/*--------------------------------*- C++ -*----------------------------------*\
| =========                 |                                                 |
| \\      /  F ield         | OpenFOAM: The Open Source CFD Toolbox           |
|  \\    /   O peration     | Version:  4.1                                   |
|   \\  /    A nd           | Web:      www.OpenFOAM.org                      |
|    \\/     M anipulation  |                                                 |
\*---------------------------------------------------------------------------*/
FoamFile
{
    version     2.0;
    format      ascii;
    class       volScalarField;
    location    "26";
    object      p;
}
// * * * * * * * * * * * * * * * * * * * * * * * * * * * * * * * * * * * * * //

dimensions      [0 2 -2 0 0 0 0];

internalField   nonuniform List<scalar> 
6785
(
528.607
475.21
423.379
374.967
330.076
288.06
248.705
211.701
176.607
143.243
112.301
84.1622
55.1332
20.2143
-8.93791
62.1728
39.9118
34.1532
30.443
24.9689
19.2614
14.1085
9.71976
6.23583
3.77707
2.58577
3.08741
5.18384
7.05536
7.31553
-40.609
-47.2521
-41.4852
-37.3384
-34.2478
-30.6525
-26.7663
-22.829
-18.9247
-15.2089
-11.8634
-8.79634
-5.71957
-3.06676
-1.83248
5.52582
3.10761
7.70011
8.02414
8.07762
8.29266
8.20339
7.82594
7.24424
6.48492
5.52806
4.4186
3.50819
3.35591
3.66646
21.9589
19.6254
21.1785
19.0801
17.6606
16.4166
15.0061
13.6237
12.3657
11.2742
10.3727
9.65984
9.18199
9.14917
9.39414
12.7426
10.7175
11.6892
10.4683
10.2632
10.2458
10.1564
10.1882
10.3424
10.5846
10.9028
11.2648
11.5839
11.8405
12.0153
9.29827
8.13862
9.21764
8.89001
9.27121
9.66089
9.95552
10.302
10.6548
10.9762
11.2629
11.5142
11.6906
11.7706
11.7858
11.0208
10.4568
11.2964
11.0561
11.2419
11.3444
11.3586
11.3947
11.4112
11.3991
11.3688
11.3354
11.2976
11.2492
11.1992
11.4188
11.0835
11.5629
11.2613
11.2774
11.2257
11.1304
11.0646
10.9923
10.9167
10.8441
10.7794
10.7236
10.6712
10.6156
10.1911
9.97182
10.2602
10.033
10.0562
10.0267
9.9766
9.95041
9.91733
9.88298
9.84889
9.81283
9.77366
9.72674
9.6606
9.0849
8.94263
9.13523
8.98536
9.01336
8.98602
8.94234
8.91054
8.86683
8.81834
8.76657
8.71041
8.6501
8.58468
8.49751
8.10581
8.04791
8.15835
7.99766
7.96485
7.88943
7.80643
7.72836
7.63912
7.54676
7.45221
7.35565
7.26209
7.17632
7.07407
8.89641
8.76958
8.62558
8.27391
8.03513
7.75419
7.45929
7.17423
6.89447
6.63068
6.3853
6.16209
5.96684
5.81144
5.66857
6.44163
6.86939
7.22145
7.04983
6.69881
6.27539
5.88004
5.51634
5.15902
4.80027
4.44172
4.08516
3.73992
3.42264
3.10651
22.63
22.2993
21.5171
19.0213
15.6005
12.2002
9.06739
6.27578
3.73794
1.57954
-0.269627
-1.80463
-3.00761
-3.88654
-4.57059
29.0766
27.9573
28.5002
27.3759
26.5629
24.821
25.1856
23.5464
22.4101
21.0751
21.6688
19.397
16.8949
18.482
16.493
14.9104
14.9293
16.4832
13.3045
11.4486
14.334
12.1207
10.2727
11.6304
14.5453
11.7724
9.94346
11.9878
15.6093
12.678
11.6509
16.0551
14.5718
12.9482
14.2414
17.8774
15.7237
14.6981
18.4502
17.4357
16.1773
16.8718
19.7563
18.6163
17.6004
18.2464
20.794
19.8919
19.1922
21.2701
21.0031
20.5985
20.9296
22.5592
22.3474
22.1512
22.5675
24.2526
24.2537
24.1118
25.7931
25.9742
25.787
25.6035
26.5537
26.6102
26.2673
26.5441
26.3396
26.8571
27.1407
24.4929
23.6334
23.8912
21.0369
15.8688
18.004
11.5589
-5.48313
0.0648836
3.76313
3.97598
4.55899
0.0275592
1.39177
4.59509
5.30347
5.42589
5.24611
5.79043
7.57422
9.13141
10.5768
4.60172
5.13571
6.8937
8.28953
8.37986
8.5815
8.6681
9.11652
13.0942
9.6691
9.86778
9.69964
10.2652
11.4589
12.1129
12.07
11.6548
11.2785
16.3133
14.1874
13.9975
13.368
12.928
13.6636
14.5097
13.638
11.9898
15.1428
16.3808
16.9818
16.8221
15.8013
14.8551
13.9538
13.1339
12.2767
18.5249
17.787
15.7644
14.9571
14.1325
12.8189
10.9287
8.07462
6.1202
12.2974
13.8395
10.8451
8.60009
5.68644
2.16488
-0.388665
-2.06967
-3.66791
-3.75985
-2.39249
0.432218
-1.66007
-2.22061
-2.99329
-5.0684
-7.95861
-8.4115
-6.82394
-9.50997
-1.69722
-2.16076
-2.52421
-0.384789
0.119984
0.862141
1.47075
2.0611
2.55229
2.72456
2.99156
3.11224
3.17093
3.24623
3.21589
3.28231
3.2559
3.34662
3.37461
3.26859
3.30716
3.2591
3.4122
3.3027
3.02987
3.28224
3.16555
2.92795
2.97003
2.97704
3.35946
2.99437
2.58905
2.65236
2.72719
3.24254
2.79221
2.14513
2.7556
2.50483
2.09742
2.16594
2.24334
2.96707
2.33055
1.658
1.75132
1.90327
2.73965
2.08353
1.1424
2.03337
1.71058
1.15308
1.25704
1.37288
2.39577
1.60809
0.742755
0.85869
1.04874
2.15524
1.39081
0.230556
1.3267
0.931964
0.239002
0.337618
0.449645
1.6861
0.792099
-0.225106
-0.136928
0.0291879
1.32152
0.46227
-0.863851
0.367777
-0.155445
-0.991407
-0.99732
-0.786804
0.0029494
0.0271589
0.0471173
0.0681409
0.0863932
0.103637
0.118971
0.134977
0.150265
0.0769293
0.0383802
0.0238053
0.0833944
0.083476
0.0774773
0.0435151
0.0387138
0.0148908
-0.00866225
-0.0141183
-0.0474154
-0.0746997
-0.0899614
-0.0703654
-0.0246449
-0.0195484
-0.0144602
-0.0110884
-0.00802831
0.00343136
0.00397926
0.0476672
-0.274111
-0.245653
-0.259483
-0.199795
-0.148617
-0.100381
-0.0631764
-0.0275154
0.0233792
0.0749155
0.0496072
-0.0872157
0.0595743
-0.0753989
-0.0519627
0.0257533
0.0427648
0.0217386
0.0366623
0.100498
0.11949
0.179055
0.0314745
-0.292383
-0.378437
0.566093
0.415712
0.252332
0.364265
0.125561
0.346596
0.167879
0.261079
0.0690843
0.0597724
0.0618381
0.0383968
0.0437434
0.0561421
0.0110289
0.0772228
0.237885
0.262972
0.210745
0.175013
0.110693
0.0478742
0.000904017
0.0365158
0.0686522
0.1025
0.132829
0.161509
0.186745
0.213581
0.245368
0.149983
0.108259
0.0487757
0.070465
0.0665983
0.0831381
0.0297932
0.0123143
-0.0208291
-0.0479664
-0.0610128
-0.0987636
-0.126403
-0.144224
-0.131269
-0.084755
-0.0730708
-0.059627
-0.0463858
-0.033303
-0.00439061
-0.00377863
0.0833675
-0.347603
-0.300757
-0.311183
-0.233905
-0.178
-0.131896
-0.103357
-0.0642653
-0.00523894
0.0488897
0.0441913
-0.137753
0.0210351
-0.0920982
-0.0807306
0.00124453
0.0459862
0.0527462
0.105595
0.240505
0.308814
0.427763
0.0326317
0.202979
0.214365
0.416602
0.502147
0.237006
0.386194
0.0744256
0.347396
0.154198
0.269858
0.0607592
0.0468991
0.0483219
0.0318941
0.0517035
0.113452
0.11542
0.216732
0.404806
0.465548
0.311161
0.232156
0.199133
0.157203
0.00469122
0.0490083
0.0891166
0.131711
0.170562
0.206823
0.236938
0.264302
0.296514
0.189693
0.128355
0.0679672
0.0593184
0.041488
0.0565743
-0.0015931
-0.0261626
-0.0617339
-0.0907515
-0.108477
-0.141685
-0.168982
-0.188876
-0.180959
-0.144309
-0.125935
-0.104983
-0.0801522
-0.0551186
-0.00692632
-0.00549931
0.125939
-0.235188
-0.206458
-0.232223
-0.175106
-0.139286
-0.106927
-0.0888937
-0.0530499
-0.00119561
0.0370803
0.017117
-0.162787
-0.026523
-0.119424
-0.104382
-0.0260242
0.0432997
0.0872557
0.180435
0.366637
0.488055
0.673614
0.154011
0.44465
0.515648
0.422888
0.544898
0.225041
0.369903
0.0525911
0.290546
0.0972938
0.200129
0.0280935
0.0131076
0.012854
0.0135596
0.0529279
0.154844
0.190984
0.309591
0.493753
0.498478
0.333296
0.256983
0.268725
0.269113
0.0108112
0.0642181
0.111657
0.162135
0.208274
0.250717
0.284199
0.310016
0.338087
0.22831
0.154264
0.0960003
0.0617032
0.0227229
0.0309472
-0.0310698
-0.0624801
-0.101185
-0.133394
-0.155684
-0.185618
-0.212291
-0.233747
-0.229315
-0.200485
-0.176816
-0.149509
-0.114695
-0.0793764
-0.013454
-0.00719331
0.149308
-0.129989
-0.0990556
-0.141955
-0.106021
-0.0925614
-0.0732684
-0.0641266
-0.0328993
0.0112325
0.0331848
0.00108106
-0.168039
-0.05723
-0.130557
-0.114529
-0.039604
0.0480688
0.124957
0.251615
0.476666
0.646343
0.877511
0.316404
0.610271
0.737132
0.50004
0.617112
0.268663
0.384098
0.0733693
0.254995
0.0581391
0.134307
-0.00963662
-0.02041
-0.0170395
0.00172437
0.0612729
0.201928
0.269749
0.396341
0.564236
0.525859
0.366113
0.310823
0.349117
0.36468
0.0160905
0.0774217
0.131568
0.188802
0.240756
0.287692
0.323016
0.346965
0.373471
0.27244
0.192478
0.123216
0.067448
0.00637766
0.0033101
-0.0620123
-0.0998442
-0.142275
-0.177281
-0.202675
-0.230446
-0.256968
-0.279446
-0.27728
-0.253855
-0.225697
-0.192043
-0.148073
-0.103965
-0.0214496
-0.00573065
0.153235
-0.090195
-0.0329609
-0.0832454
-0.0553683
-0.0564539
-0.0458151
-0.0428458
-0.0170832
0.021507
0.0309862
-0.00772226
-0.166659
-0.0764354
-0.13214
-0.119343
-0.0450824
0.0586331
0.163951
0.317927
0.573404
0.784977
1.05762
0.500789
0.791352
1.02588
0.56479
0.696641
0.346356
0.419531
0.11183
0.233905
0.0284416
0.0723847
-0.0521457
-0.0538515
-0.0437393
-0.00840316
0.0698246
0.248192
0.349374
0.478715
0.615789
0.561519
0.402507
0.367118
0.417924
0.482032
0.0198214
0.0876561
0.147945
0.210998
0.267822
0.318413
0.355232
0.378061
0.406385
0.319451
0.233625
0.150182
0.072862
-0.0100213
-0.0259672
-0.0950247
-0.139593
-0.186016
-0.223394
-0.251403
-0.278089
-0.304768
-0.327998
-0.327706
-0.30775
-0.275627
-0.235659
-0.18309
-0.130974
-0.0337413
-0.00584155
0.150299
-0.0741946
0.0138213
-0.0400925
-0.013857
-0.0248598
-0.0209351
-0.022774
-0.00304213
0.0310268
0.031933
-0.0103285
-0.160864
-0.0884823
-0.129237
-0.122397
-0.0448896
0.0740306
0.20353
0.379988
0.659972
0.9078
1.21768
0.692948
0.999184
1.36928
0.623317
0.769249
0.440001
0.465136
0.156268
0.217262
-0.0015425
0.00822429
-0.100324
-0.0908544
-0.0714484
-0.0197818
0.07729
0.292614
0.42689
0.553223
0.652406
0.59297
0.440144
0.422903
0.488069
0.565634
0.0225549
0.0961636
0.162249
0.230559
0.291877
0.346131
0.385103
0.407964
0.438796
0.365436
0.273514
0.177334
0.0769793
-0.0278342
-0.0577747
-0.130686
-0.181652
-0.231251
-0.270619
-0.30063
-0.326993
-0.353561
-0.377273
-0.378863
-0.360643
-0.324505
-0.27824
-0.217452
-0.156986
-0.0476839
-0.00438333
0.149462
-0.0470675
0.067432
0.00715846
0.0302913
0.00869279
0.00457808
-0.00287729
0.0101189
0.0396865
0.0349829
-0.0103773
-0.153721
-0.0964684
-0.125924
-0.124891
-0.0409831
0.0917316
0.241694
0.436932
0.736349
1.01385
1.35852
0.887567
1.22356
1.72005
0.695403
0.832283
0.53956
0.514221
0.200444
0.201007
-0.0342011
-0.0572813
-0.152825
-0.130931
-0.100856
-0.0321917
0.0836887
0.334389
0.49972
0.618186
0.680013
0.618066
0.479309
0.474778
0.554526
0.653861
0.0251444
0.104509
0.176362
0.249797
0.315621
0.373769
0.415506
0.43899
0.470818
0.408761
0.312082
0.205207
0.0805625
-0.0465555
-0.0925396
-0.16992
-0.226834
-0.278879
-0.32014
-0.351537
-0.378208
-0.404754
-0.429186
-0.432717
-0.41472
-0.3745
-0.322088
-0.253555
-0.183682
-0.0637671
-0.00320243
0.147023
-0.0121699
0.129321
0.0617376
0.0800004
0.0464993
0.0324795
0.0176813
0.0232466
0.0482784
0.0398117
-0.00829128
-0.14677
-0.103266
-0.12478
-0.126186
-0.0348412
0.110174
0.278251
0.489734
0.80396
1.10502
1.48179
1.08368
1.45204
2.04768
0.788872
0.887455
0.641356
0.564766
0.242183
0.184962
-0.0689787
-0.123376
-0.208292
-0.173408
-0.131909
-0.045481
0.0890353
0.372968
0.568706
0.676983
0.707369
0.641662
0.520331
0.52872
0.617446
0.76373
0.0281067
0.113534
0.191322
0.269997
0.340566
0.402891
0.447675
0.471715
0.502132
0.449285
0.350404
0.23304
0.0836438
-0.0656325
-0.129317
-0.211935
-0.273805
-0.328043
-0.370784
-0.40296
-0.430132
-0.456865
-0.481881
-0.487181
-0.467953
-0.423504
-0.365081
-0.288971
-0.208637
-0.0793971
-0.00186237
0.139409
0.0187682
0.192505
0.119423
0.132875
0.0869916
0.0618955
0.0383254
0.035809
0.056176
0.0455176
-0.00613389
-0.142288
-0.111136
-0.127281
-0.126614
-0.0277927
0.128054
0.311462
0.537407
0.861833
1.18057
1.58866
1.28071
1.67769
2.34084
0.898715
0.935745
0.739897
0.61413
0.278691
0.167829
-0.105937
-0.188556
-0.264724
-0.217053
-0.164196
-0.0597309
0.0921545
0.405733
0.632791
0.730715
0.737056
0.664407
0.559655
0.580891
0.681351
0.836581
0.0316091
0.123453
0.207451
0.291611
0.367247
0.433977
0.481898
0.50639
0.53387
0.488392
0.389365
0.26012
0.0847325
-0.0862887
-0.168365
-0.257216
-0.323027
-0.380024
-0.423783
-0.456621
-0.484181
-0.511789
-0.53733
-0.54417
-0.522689
-0.473899
-0.409564
-0.325622
-0.234214
-0.0964656
-0.00666726
0.121999
0.0414863
0.253643
0.177702
0.187532
0.129702
0.0931654
0.0598337
0.0486786
0.0628351
0.0517835
-0.00499691
-0.141204
-0.122124
-0.13507
-0.127718
-0.0205962
0.145768
0.341139
0.580151
0.90976
1.24231
1.68263
1.47146
1.89692
2.60938
1.02152
0.98062
0.83167
0.662796
0.310091
0.150105
-0.144475
-0.252807
-0.320788
-0.261281
-0.197689
-0.0753521
0.0927085
0.431401
0.691958
0.781928
0.771368
0.689042
0.597767
0.633435
0.748637
0.912233
0.0355223
0.133952
0.224285
0.313992
0.394851
0.46614
0.517328
0.542453
0.566299
0.526571
0.428925
0.285705
0.0824618
-0.109206
-0.209091
-0.304737
-0.373632
-0.433314
-0.477876
-0.511073
-0.539005
-0.567769
-0.593334
-0.601177
-0.57691
-0.523566
-0.453279
-0.360769
-0.258046
-0.113017
-0.0189431
0.0966454
0.0611067
0.315322
0.237213
0.24379
0.173975
0.125782
0.0820413
0.0618996
0.0674764
0.0559506
-0.00655256
-0.14265
-0.135642
-0.147998
-0.129703
-0.0141163
0.162264
0.366667
0.616342
0.946754
1.29353
1.76338
1.64712
2.10025
2.85378
1.15824
1.02427
0.91088
0.708388
0.335369
0.131026
-0.184661
-0.314705
-0.373895
-0.304577
-0.231991
-0.0923162
0.0905097
0.448369
0.743582
0.830089
0.808752
0.716228
0.634343
0.6844
0.812915
0.993846
0.0397144
0.144787
0.241534
0.336793
0.422938
0.498858
0.55348
0.579634
0.59989
0.564399
0.469085
0.309843
0.076546
-0.135518
-0.252566
-0.355234
-0.427061
-0.488717
-0.534431
-0.56743
-0.596323
-0.626699
-0.652065
-0.660279
-0.633155
-0.57497
-0.498538
-0.396429
-0.282218
-0.131237
-0.0381726
0.0647106
0.0812786
0.379409
0.299046
0.302337
0.220408
0.160388
0.105713
0.0764394
0.0718369
0.0570315
-0.0105877
-0.145125
-0.150996
-0.165134
-0.132864
-0.00940579
0.17684
0.388224
0.644827
0.974338
1.33657
1.8276
1.80133
2.27387
3.06944
1.30796
1.06388
0.974354
0.749421
0.355383
0.112316
-0.225176
-0.373619
-0.422285
-0.34585
-0.266906
-0.110521
0.0859168
0.45622
0.785797
0.876115
0.849298
0.74787
0.671049
0.735292
0.880026
1.067
0.0440714
0.155752
0.258884
0.35958
0.450985
0.531646
0.590003
0.617669
0.634214
0.601539
0.509635
0.331974
0.0677032
-0.164716
-0.298408
-0.407847
-0.48245
-0.544925
-0.59183
-0.624213
-0.654764
-0.686588
-0.711717
-0.7193
-0.689112
-0.62585
-0.54301
-0.430298
-0.304634
-0.149422
-0.0604214
0.0298072
0.104745
0.446993
0.363632
0.363211
0.268607
0.196497
0.130595
0.0920958
0.0767952
0.0554343
-0.0163286
-0.148378
-0.166417
-0.183058
-0.136702
-0.00584765
0.188114
0.404691
0.663717
0.992602
1.37202
1.87734
1.93841
2.41828
3.25108
1.46088
1.09266
1.01984
0.784842
0.370049
0.093823
-0.264949
-0.425936
-0.462394
-0.383792
-0.301674
-0.129483
0.079363
0.455112
0.816456
0.918214
0.889785
0.782464
0.707442
0.783562
0.941453
1.16786
0.0486176
0.166934
0.27653
0.382676
0.479419
0.564994
0.62741
0.65697
0.669705
0.63837
0.550129
0.351201
0.0560359
-0.196935
-0.34732
-0.46343
-0.540568
-0.60338
-0.651134
-0.682985
-0.715825
-0.749261
-0.774573
-0.780553
-0.747025
-0.678613
-0.588693
-0.464586
-0.327602
-0.169219
-0.0851888
-0.00928484
0.130688
0.51687
0.430735
0.426592
0.319048
0.234614
0.157255
0.109363
0.0830623
0.0522267
-0.02288
-0.152564
-0.182537
-0.200348
-0.141319
-0.00274011
0.196475
0.416982
0.67366
1.00083
1.39672
1.91041
2.06129
2.55018
3.40275
1.60926
1.11033
1.05092
0.815245
0.380694
0.0770969
-0.301595
-0.46863
-0.495042
-0.419873
-0.335933
-0.149064
0.0715102
0.446414
0.835622
0.956081
0.930053
0.818857
0.74376
0.833135
1.00658
1.24189
0.0533899
0.178391
0.294494
0.406078
0.508251
0.599002
0.665908
0.697739
0.706205
0.674633
0.589057
0.366532
0.041995
-0.230866
-0.398192
-0.521127
-0.599752
-0.662766
-0.710755
-0.742455
-0.777429
-0.812335
-0.838152
-0.841623
-0.804401
-0.730765
-0.633033
-0.497234
-0.349546
-0.189796
-0.112163
-0.0519187
0.160097
0.588947
0.500262
0.492335
0.371365
0.274326
0.185468
0.127794
0.0906114
0.047885
-0.0299038
-0.157879
-0.19857
-0.21512
-0.145852
0.000234715
0.20261
0.425525
0.674747
1.0002
1.41152
1.93332
2.16111
2.67419
3.52191
1.74953
1.12394
1.069
0.836207
0.387353
0.0620733
-0.334476
-0.501771
-0.523188
-0.455583
-0.368921
-0.168628
0.0634724
0.432994
0.843596
0.988924
0.968446
0.855294
0.778935
0.881326
1.07187
1.32596
0.0584705
0.190293
0.313079
0.430234
0.538046
0.634279
0.706078
0.740437
0.744329
0.710976
0.62605
0.377877
0.0249547
-0.266949
-0.451679
-0.581898
-0.660957
-0.724338
-0.772017
-0.803922
-0.841226
-0.87771
-0.904301
-0.90477
-0.863632
-0.784614
-0.67815
-0.530653
-0.372044
-0.212081
-0.145062
-0.0994354
0.192617
0.662427
0.572374
0.560788
0.426145
0.316167
0.21567
0.14775
0.0996825
0.042728
-0.038278
-0.165288
-0.216201
-0.228367
-0.150655
0.00202706
0.207443
0.430108
0.666765
0.991584
1.41812
1.9525
2.23325
2.7696
3.60234
1.8855
1.14301
1.0751
0.845596
0.392492
0.0507092
-0.36263
-0.530901
-0.549543
-0.490554
-0.400014
-0.188291
0.0553978
0.418003
0.843712
1.02149
1.00579
0.892516
0.815045
0.931037
1.13397
1.43477
0.0638788
0.202636
0.332189
0.454972
0.568584
0.670636
0.747816
0.785046
0.783731
0.747574
0.660409
0.384138
0.00485217
-0.30486
-0.506524
-0.644046
-0.723544
-0.786672
-0.833399
-0.865816
-0.905391
-0.942912
-0.970318
-0.967408
-0.922173
-0.837695
-0.721789
-0.563007
-0.393918
-0.233736
-0.182103
-0.149711
0.230315
0.738119
0.647607
0.632138
0.483255
0.359913
0.247668
0.168854
0.110321
0.0373581
-0.0498139
-0.175736
-0.234219
-0.239609
-0.155525
0.00215699
0.209702
0.427992
0.64887
0.975174
1.41998
1.97413
2.28645
2.82491
3.62519
2.01359
1.16648
1.06887
0.84597
0.396563
0.0406364
-0.386067
-0.556756
-0.573314
-0.523195
-0.42827
-0.208471
0.0464038
0.404222
0.839587
1.0527
1.04062
0.92986
0.853308
0.980245
1.19963
1.51504
0.0696262
0.215459
0.351971
0.48055
0.600208
0.708437
0.791466
0.83183
0.824856
0.784835
0.691431
0.384285
-0.0194281
-0.346053
-0.563538
-0.707985
-0.789504
-0.851427
-0.896398
-0.929942
-0.971898
-1.01046
-1.03826
-1.03179
-0.982464
-0.892241
-0.765924
-0.596571
-0.41885
-0.257495
-0.222217
-0.202374
0.27346
0.815741
0.726607
0.70694
0.543383
0.406121
0.281768
0.191339
0.122147
0.0320701
-0.0653344
-0.190148
-0.253658
-0.251624
-0.162337
-0.00040606
0.206942
0.414407
0.61925
0.94834
1.41408
1.98846
2.32197
2.83606
3.62657
2.13689
1.19438
1.05398
0.841751
0.40001
0.0323649
-0.401477
-0.578784
-0.598141
-0.553774
-0.453025
-0.229402
0.0356993
0.391616
0.831529
1.07713
1.07413
0.966725
0.894922
1.03138
1.27073
1.60211
0.0756748
0.228654
0.372183
0.506617
0.632491
0.747265
0.836697
0.880655
0.867014
0.821892
0.718332
0.379495
-0.0469621
-0.38944
-0.621854
-0.771984
-0.856785
-0.917406
-0.959796
-0.994905
-1.03862
-1.07851
-1.10563
-1.09529
-1.04183
-0.945583
-0.808331
-0.629124
-0.447704
-0.285646
-0.263828
-0.253466
0.324334
0.896338
0.810065
0.785431
0.606444
0.454639
0.317852
0.215012
0.133251
0.0268171
-0.0836059
-0.208075
-0.273523
-0.26559
-0.171868
-0.00708481
0.194722
0.383654
0.577019
0.911519
1.39857
1.98964
2.3386
2.80773
3.62424
2.25169
1.22599
1.03437
0.834039
0.401963
0.0244305
-0.410731
-0.597812
-0.625088
-0.580152
-0.473093
-0.249867
0.024379
0.380076
0.818631
1.08846
1.10373
1.00404
0.93913
1.08317
1.34255
1.69964
0.0819897
0.242194
0.392913
0.533372
0.665721
0.787433
0.883814
0.931819
0.911191
0.858896
0.741699
0.371186
-0.0775998
-0.43549
-0.68248
-0.837112
-0.925522
-0.985585
-1.02547
-1.06221
-1.10739
-1.14911
-1.17465
-1.16016
-1.10228
-0.999699
-0.851283
-0.662377
-0.481956
-0.31936
-0.308518
-0.303984
0.382788
0.979954
0.898627
0.868034
0.673001
0.505894
0.356042
0.239733
0.14205
0.021018
-0.104559
-0.230566
-0.296132
-0.283094
-0.185185
-0.0209994
0.169801
0.336562
0.524498
0.866131
1.37221
1.97646
2.33758
2.75787
3.63208
2.36362
1.26758
1.01849
0.825441
0.403889
0.0191897
-0.414671
-0.615123
-0.652633
-0.600623
-0.486599
-0.267979
0.0130999
0.367988
0.8016
1.09043
1.12803
1.04186
0.986046
1.13777
1.41955
1.79069
0.0885301
0.255965
0.41389
0.560428
0.699416
0.828443
0.932379
0.9851
0.957824
0.895462
0.761727
0.359632
-0.109834
-0.482246
-0.743055
-0.902361
-0.99397
-1.05391
-1.09222
-1.12982
-1.17628
-1.21957
-1.24254
-1.22373
-1.16103
-1.05196
-0.892786
-0.694187
-0.519171
-0.356103
-0.35603
-0.351957
0.450348
1.06812
0.992793
0.954852
0.742932
0.559809
0.3964
0.265281
0.149141
0.0150718
-0.12705
-0.256935
-0.320188
-0.302791
-0.202804
-0.0442085
0.13077
0.276279
0.461601
0.811163
1.3346
1.94952
2.32459
2.7029
3.63299
2.46273
1.31776
1.01168
0.816873
0.404996
0.0145058
-0.416564
-0.63072
-0.677179
-0.61382
-0.492156
-0.281755
0.00161325
0.354163
0.780487
1.08608
1.14671
1.07863
1.03467
1.1941
1.49402
1.90492
0.0952574
0.269943
0.435224
0.588006
0.733895
0.870639
0.982733
1.04083
1.00733
0.931683
0.778058
0.344469
-0.143776
-0.529772
-0.803618
-0.969053
-1.06355
-1.12327
-1.16146
-1.19995
-1.24769
-1.29167
-1.31105
-1.2879
-1.22018
-1.10416
-0.9351
-0.726182
-0.558978
-0.395887
-0.405585
-0.395929
0.526379
1.16132
1.09306
1.04615
0.816658
0.616739
0.439093
0.292403
0.155372
0.00679717
-0.151848
-0.286692
-0.346646
-0.325931
-0.227221
-0.0794202
0.0762803
0.203345
0.386793
0.744673
1.28462
1.91094
2.31228
2.65652
3.62292
2.55342
1.37988
1.02188
0.814055
0.407744
0.0132823
-0.414407
-0.643873
-0.696617
-0.61897
-0.48869
-0.289144
-0.00931869
0.337126
0.756419
1.07633
1.16065
1.11179
1.08376
1.25343
1.57351
1.99617
0.10215
0.284043
0.456651
0.615721
0.768666
0.913487
1.03435
1.09865
1.05889
0.968563
0.790286
0.325571
-0.178082
-0.576494
-0.862205
-1.03503
-1.13251
-1.19217
-1.23132
-1.2713
-1.31949
-1.36238
-1.37723
-1.34939
-1.27705
-1.15375
-0.976228
-0.759308
-0.599359
-0.436736
-0.454619
-0.43163
0.612072
1.26118
1.19966
1.14191
0.894022
0.676696
0.484288
0.321807
0.162271
-0.00476234
-0.178324
-0.317643
-0.374401
-0.352587
-0.259662
-0.127667
0.00551155
0.117296
0.299935
0.667131
1.22345
1.86138
2.30112
2.62407
3.61155
2.62731
1.44926
1.05013
0.819025
0.411646
0.0135764
-0.40997
-0.653454
-0.710351
-0.617097
-0.477567
-0.289775
-0.0178748
0.31785
0.730383
1.0605
1.1681
1.13969
1.13164
1.31348
1.65527
2.09334
0.109168
0.298249
0.478311
0.64383
0.804089
0.957376
1.08762
1.15902
1.11337
1.00761
0.798739
0.302972
-0.21365
-0.623863
-0.919438
-1.10008
-1.20115
-1.26165
-1.30274
-1.34483
-1.39258
-1.43286
-1.44259
-1.40944
-1.33293
-1.2023
-1.01719
-0.796754
-0.641051
-0.47888
-0.504277
-0.459467
0.706682
1.36807
1.3129
1.24224
0.975264
0.739871
0.531927
0.353457
0.169941
-0.0198476
-0.206954
-0.349506
-0.404747
-0.384669
-0.302381
-0.191352
-0.083268
0.0160478
0.19972
0.578662
1.1526
1.80289
2.29029
2.61996
3.60391
2.68948
1.5297
1.09977
0.836847
0.421319
0.0204416
-0.40014
-0.657103
-0.719536
-0.609642
-0.460115
-0.284357
-0.0231949
0.298048
0.701313
1.03523
1.17034
1.16308
1.17651
1.37438
1.73374
2.20636
0.116304
0.31249
0.499947
0.671962
0.839688
1.00177
1.14194
1.22153
1.17121
1.04865
0.804951
0.278993
-0.249956
-0.670846
-0.973801
-1.16173
-1.26708
-1.32958
-1.37335
-1.41755
-1.46366
-1.49982
-1.50403
-1.46532
-1.38452
-1.24725
-1.05568
-0.836662
-0.682725
-0.520333
-0.553731
-0.478948
0.811329
1.48307
1.43277
1.34714
1.06029
0.806349
0.582244
0.386238
0.179318
-0.0362684
-0.236302
-0.381364
-0.436716
-0.422198
-0.355969
-0.270508
-0.189358
-0.100668
0.0860337
0.479322
1.07296
1.73568
2.27492
2.63648
3.58853
2.73116
1.61705
1.16244
0.865844
0.437459
0.0322182
-0.387132
-0.654337
-0.722202
-0.596399
-0.438737
-0.273909
-0.025726
0.278732
0.667949
1.00352
1.16928
1.18386
1.21775
1.43515
1.81466
2.29321
0.123509
0.326757
0.521721
0.700401
0.875859
1.0471
1.19775
1.28665
1.23388
1.09246
0.810175
0.255167
-0.286537
-0.717027
-1.02644
-1.2208
-1.33048
-1.39601
-1.4433
-1.48965
-1.53317
-1.56414
-1.56237
-1.51827
-1.43257
-1.28981
-1.09171
-0.878272
-0.725105
-0.561079
-0.604145
-0.49107
0.925614
1.60615
1.55947
1.45667
1.1492
0.876108
0.635399
0.417634
0.187852
-0.0543018
-0.267094
-0.413765
-0.47197
-0.46764
-0.42303
-0.367299
-0.313651
-0.234404
-0.0415447
0.369363
0.985714
1.66419
2.25619
2.66812
3.56488
2.75873
1.7133
1.23866
0.910978
0.465968
0.0543414
-0.366492
-0.642442
-0.715496
-0.579184
-0.414174
-0.258082
-0.0256271
0.259901
0.633181
0.971238
1.16611
1.2024
1.25521
1.49703
1.89665
2.37711
0.130781
0.340974
0.543362
0.728763
0.912107
1.0928
1.25434
1.3536
1.30183
1.13896
0.815057
0.233167
-0.320758
-0.759828
-1.07567
-1.27562
-1.38942
-1.45849
-1.50961
-1.55775
-1.59788
-1.62278
-1.61462
-1.56516
-1.47451
-1.32793
-1.12334
-0.91914
-0.766938
-0.601492
-0.654682
-0.493003
1.05077
1.738
1.69279
1.57085
1.24193
0.949306
0.691681
0.447642
0.192915
-0.0732973
-0.298104
-0.446666
-0.510442
-0.521364
-0.503427
-0.480095
-0.453881
-0.383648
-0.18135
0.249804
0.890587
1.58745
2.23016
2.69763
3.521
2.76654
1.81271
1.32659
0.971251
0.506221
0.0838731
-0.340596
-0.622642
-0.698557
-0.56041
-0.387721
-0.236762
-0.0224381
0.243354
0.60118
0.938368
1.15946
1.2182
1.29048
1.55804
1.97279
2.46171
0.138047
0.355115
0.565018
0.757302
0.948784
1.13925
1.31203
1.42254
1.37534
1.18886
0.820554
0.2136
-0.352017
-0.799302
-1.12168
-1.32657
-1.44443
-1.51734
-1.57222
-1.62184
-1.65826
-1.67673
-1.66168
-1.60623
-1.51111
-1.36256
-1.15319
-0.958616
-0.80746
-0.643059
-0.705285
-0.482982
1.18668
1.87847
1.83277
1.68956
1.3383
1.02551
0.749788
0.476902
0.19201
-0.0949285
-0.32968
-0.480836
-0.554276
-0.58609
-0.599346
-0.610212
-0.610145
-0.548474
-0.332789
0.121907
0.787809
1.50601
2.19763
2.71855
3.46267
2.76858
1.92285
1.43605
1.05362
0.564022
0.127475
-0.303758
-0.59352
-0.673568
-0.538648
-0.357304
-0.207769
-0.0130936
0.23206
0.575276
0.905929
1.14836
1.23089
1.3233
1.61666
2.04337
2.52984
0.145316
0.369105
0.586415
0.785639
0.985401
1.18585
1.37011
1.49236
1.45261
1.24257
0.827094
0.197035
-0.378943
-0.833831
-1.16237
-1.37178
-1.49386
-1.57059
-1.62855
-1.67901
-1.71165
-1.72361
-1.70087
-1.63936
-1.54087
-1.39206
-1.18233
-0.995613
-0.845505
-0.683985
-0.753603
-0.457418
1.33442
2.02798
1.97912
1.81289
1.4384
1.10484
0.809221
0.506985
0.187624
-0.117565
-0.360248
-0.516438
-0.603828
-0.661606
-0.70902
-0.754006
-0.778395
-0.724479
-0.492725
-0.0129511
0.677679
1.41808
2.15589
2.72028
3.38556
2.76426
2.03901
1.56268
1.15297
0.636753
0.180982
-0.258682
-0.55726
-0.644627
-0.513087
-0.32484
-0.171473
0.00454615
0.227993
0.555682
0.874869
1.12971
1.23965
1.35395
1.66863
2.10149
2.60227
0.152503
0.382918
0.607697
0.814006
1.02226
1.23291
1.42873
1.56293
1.53288
1.30078
0.833947
0.182994
-0.402297
-0.863993
-1.19834
-1.41204
-1.53835
-1.61877
-1.6789
-1.72952
-1.75884
-1.76382
-1.73246
-1.66563
-1.56533
-1.41696
-1.20987
-1.02993
-0.88166
-0.723015
-0.798304
-0.41432
1.494
2.18635
2.13181
1.94058
1.54196
1.18677
0.869025
0.536973
0.180464
-0.142
-0.390754
-0.555038
-0.661833
-0.750361
-0.833685
-0.911537
-0.957278
-0.909309
-0.65908
-0.153355
0.561624
1.32514
2.10724
2.70479
3.30223
2.76809
2.16431
1.70243
1.27198
0.730242
0.251987
-0.198806
-0.512176
-0.611474
-0.481178
-0.290674
-0.129597
0.0326239
0.232736
0.542525
0.848938
1.10387
1.24323
1.38314
1.71092
2.15369
2.65095
0.159633
0.396483
0.628591
0.842022
1.05885
1.2798
1.48715
1.63312
1.61438
1.36254
0.839491
0.171109
-0.421662
-0.888982
-1.22864
-1.44638
-1.57668
-1.66047
-1.72154
-1.77158
-1.79849
-1.79531
-1.75574
-1.68502
-1.58412
-1.4357
-1.23456
-1.06063
-0.915262
-0.759551
-0.837136
-0.35109
1.66606
2.35371
2.29048
2.07275
1.64929
1.27167
0.929031
0.56484
0.172894
-0.166343
-0.421149
-0.597439
-0.728326
-0.850626
-0.969496
-1.07706
-1.14068
-1.09611
-0.827438
-0.297148
0.44065
1.22675
2.04968
2.66935
3.21075
2.7759
2.29015
1.84357
1.40252
0.83993
0.335711
-0.129883
-0.460404
-0.57218
-0.44434
-0.257827
-0.087468
0.0696583
0.245632
0.53486
0.827411
1.07159
1.24137
1.41046
1.74135
2.20195
2.69579
0.166612
0.409751
0.64918
0.869808
1.09532
1.3266
1.54525
1.70253
1.69619
1.4283
0.843587
0.161295
-0.43721
-0.909923
-1.25467
-1.47609
-1.61025
-1.69716
-1.75838
-1.80765
-1.83222
-1.81959
-1.77233
-1.69908
-1.59851
-1.44821
-1.25664
-1.08764
-0.945773
-0.793775
-0.868615
-0.265995
1.85045
2.52978
2.45482
2.20875
1.75989
1.35913
0.988259
0.586368
0.163053
-0.190417
-0.452196
-0.645013
-0.80527
-0.963414
-1.11589
-1.2487
-1.32555
-1.28134
-0.995776
-0.442821
0.314664
1.12341
1.9837
2.61954
3.12248
2.79756
2.42079
1.99108
1.54949
0.970597
0.440417
-0.0461305
-0.398517
-0.521885
-0.400235
-0.223245
-0.0461669
0.114246
0.2694
0.536282
0.81309
1.03902
1.23282
1.43305
1.76683
2.24168
2.73878
0.173484
0.42267
0.669231
0.897046
1.13122
1.37273
1.60236
1.77015
1.77642
1.4969
0.848342
0.155053
-0.447696
-0.92604
-1.27565
-1.50096
-1.63927
-1.72888
-1.79033
-1.83851
-1.85819
-1.83566
-1.7826
-1.70872
-1.60909
-1.45684
-1.27586
-1.11107
-0.972913
-0.826259
-0.890315
-0.157017
2.04738
2.71444
2.62452
2.34877
1.8743
1.45011
1.0481
0.602789
0.152357
-0.212347
-0.48413
-0.698574
-0.891485
-1.08493
-1.26684
-1.41897
-1.50467
-1.45824
-1.16003
-0.58891
0.184024
1.01514
1.90742
2.5548
3.03337
2.82488
2.55291
2.14308
1.70627
1.11538
0.559259
0.0471345
-0.327747
-0.460583
-0.350694
-0.185365
-0.00684784
0.163712
0.306785
0.549267
0.805349
1.011
1.21872
1.44665
1.79096
2.27585
2.76214
0.180145
0.435152
0.688749
0.923727
1.1665
1.41802
1.65808
1.83544
1.85384
1.56801
0.855834
0.153345
-0.453561
-0.93805
-1.29272
-1.52272
-1.66532
-1.75672
-1.81822
-1.86384
-1.87649
-1.84576
-1.78996
-1.7166
-1.61754
-1.4656
-1.29254
-1.13142
-0.996259
-0.857987
-0.900169
-0.0223506
2.25663
2.90709
2.79901
2.49167
1.99169
1.5431
1.10721
0.614534
0.139555
-0.233336
-0.518611
-0.759536
-0.987701
-1.21439
-1.42007
-1.58503
-1.67538
-1.62511
-1.31917
-0.736212
0.0479558
0.901623
1.8213
2.48024
2.95173
2.86419
2.69288
2.30472
1.87691
1.27904
0.700537
0.157476
-0.244534
-0.386466
-0.293649
-0.139568
0.033196
0.219539
0.359925
0.575845
0.806549
0.990796
1.20117
1.44969
1.8156
2.30009
2.77867
0.186635
0.447129
0.70751
0.949567
1.20074
1.4619
1.71177
1.89749
1.92722
1.63865
0.867036
0.156858
-0.45468
-0.945556
-1.30549
-1.54066
-1.68712
-1.77889
-1.8399
-1.88244
-1.88915
-1.8534
-1.79648
-1.72347
-1.62443
-1.47411
-1.30645
-1.14852
-1.01557
-0.888122
-0.894582
0.139238
2.47783
3.10724
2.978
2.63765
2.11232
1.63761
1.16246
0.623625
0.127504
-0.252971
-0.556207
-0.827693
-1.09065
-1.34581
-1.56824
-1.73965
-1.83227
-1.77798
-1.47008
-0.882783
-0.0911652
0.783812
1.72486
2.39551
2.87257
2.90525
2.83295
2.46649
2.05271
1.45462
0.855082
0.277753
-0.152319
-0.301254
-0.227857
-0.0844215