/*--------------------------------*- C++ -*----------------------------------*\
| =========                 |                                                 |
| \\      /  F ield         | OpenFOAM: The Open Source CFD Toolbox           |
|  \\    /   O peration     | Version:  4.1                                   |
|   \\  /    A nd           | Web:      www.OpenFOAM.org                      |
|    \\/     M anipulation  |                                                 |
\*---------------------------------------------------------------------------*/
FoamFile
{
    version     2.0;
    format      ascii;
    class       surfaceScalarField;
    location    "26";
    object      phi;
}
// * * * * * * * * * * * * * * * * * * * * * * * * * * * * * * * * * * * * * //

dimensions      [0 3 -1 0 0 0 0];

internalField   nonuniform List<scalar> 
13220
(
-949.878
2249.78
-1573.95
1924.27
-2053.99
1779.94
-2424.23
1670.13
-2699.85
1575.82
-2888.37
1488.42
-2993.05
1404.58
-3013.85
1321
-2949.6
1235.66
-2797.22
1147.52
-2551.16
1054.13
-2192.99
941.733
-1687.15
794.064
-1012.66
625.708
287.238
373.338
1876.45
442.74
1854.86
437.318
1785.39
406.696
1700.73
380.608
1601.94
359.909
1509.09
345.328
1419.19
337.554
1328.75
333.518
1239.71
326.975
1154.05
309.638
1071.48
267.483
983.88
191.435
870.109
111.445
705.694
398.682
33.6021
1842.87
-97.3759
1985.82
-253.571
1941.61
-371.093
1818.24
-473.13
1704
-567.495
1603.44
-651.694
1503.4
-725.756
1402.8
-788.023
1301.98
-837.271
1203.28
-868.187
1102.39
-856.063
971.723
-740.33
754.331
-434.299
399.615
-35.6164
28.8358
1814.05
-100.633
2115.26
-225.488
2066.51
-304.455
1897.16
-368.061
1767.65
-416.896
1652.23
-446.119
1532.66
-456.944
1413.57
-451.752
1296.81
-430.075
1181.57
-387.132
1059.45
-311.799
896.364
-192.811
635.322
-48.4
255.18
-84.0169
169.823
1644.26
146.324
2138.7
123.959
2088.93
123.049
1898.01
127.216
1763.55
136.033
1643.34
149.415
1519.34
166.869
1396.07
187.282
1276.44
208.45
1160.37
229.469
1038.44
244.11
881.676
233.204
646.17
155.308
333.022
71.292
223.657
1420.62
244.825
2117.43
235.458
2098.39
236.615
1896.74
241.106
1759.18
244.945
1639.39
247.314
1517.1
245.907
1397.37
241.89
1280.55
234.644
1167.58
222.034
1051.11
199.703
904.035
156.578
689.366
78.5223
411.144
149.814
204.875
1215.82
240.497
2081.71
215.79
2123.2
193.367
1919.06
179.304
1773.35
165.82
1652.79
152.167
1530.83
137.955
1411.53
123.126
1295.42
108.874
1181.8
94.6864
1065.32
77.3441
921.303
53.1413
713.504
19.5494
444.68
169.364
175.321
1040.63
227.258
2029.61
204.942
2145.76
175.327
1948.52
157.105
1791.82
142.495
1667.24
127.669
1545.85
113.148
1425.92
100.058
1308.65
87.2568
1194.57
75.3299
1077.33
61.9536
934.775
42.7825
732.828
16.9589
470.639
186.322
152.949
887.941
221.739
1960.74
209.194
2158.55
181.252
1976.37
163.482
1809.84
150.34
1680.28
137.777
1558.59
124.084
1439.52
111.163
1321.7
98.5628
1207.08
85.3857
1090.56
70.124
949.847
49.3454
753.39
21.7136
498.08
208.037
129.709
758.772
207.87
1882.47
204.849
2162.23
176.934
2004.11
158.787
1828.58
144.325
1694.49
131.208
1572.19
117.439
1453.03
103.674
1335.77
90.0086
1220.64
76.8254
1103.92
61.4851
965.258
41.883
773.189
17.5218
522.616
225.555
106.405
653.516
187.597
1801.18
194.806
2156.03
169.677
2029.08
152.37
1846.85
139.825
1706.86
127.456
1585.26
114.081
1466.33
101.162
1349.06
87.0647
1234.65
73.3614
1117.81
58.0489
980.129
38.8307
791.988
16.3025
544.775
241.864
95.0723
560.22
176.935
1718.75
192.732
2142.15
166.244
2054.92
142.44
1872.36
124.441
1724.09
111.857
1599.1
97.4584
1479.95
85.6449
1361.72
73.7085
1246.39
61.8968
1130.05
48.6189
993.913
31.035
810.27
10.3149
566.084
252.154
96.1293
465.162
230.276
1583.22
276.082
2097.24
269.918
2059.91
266.981
1875.62
265.297
1724.85
259.115
1605.04
246.83
1492.02
228.472
1379.27
206.981
1267.25
181.909
1153.86
151
1023.17
110.37
848.381
57.2298
616.729
309.316
155.315
311.55
269.58
1464.99
304.465
2063.81
241.803
2119.02
166.098
1952.1
108.929
1777.96
83.4848
1630.3
70.4391
1500.16
70.6698
1377.43
72.3848
1261.72
75.7954
1147.82
72.0914
1023.02
49.3504
863.654
15.9132
642.836
324.956
-163.473
303.106
895.107
1320.77
1508.68
1575.8
1517.86
1424.86
1268.94
1108.56
924.641
726.29
511.774
259.531
3.59177
910.298
-901.482
917.382
924.248
926.655
1750.27
-822.902
1752.45
1751.37
1753.78
2394.46
-640.033
2397.65
2396.82
2882.79
-483.468
2881.59
2884.31
2882.61
3203.44
-318.506
3202.8
3205.64
3388.7
-184.119
3391.88
3391.55
3394.3
3425.01
-31.5404
3427.92
3427.22
3429.95
3350.92
80.0961
3354.45
3354.51
3201.25
156.157
3201.27
3204.98
3203.98
2988.22
219.108
2988.6
2992.25
2730.38
261.298
2734.65
2734.86
2738.33
2438.23
299.308
2442.48
2441.85
2445.94
2127.86
318.376
2132.41
2131.83
1868.57
267.37
1868.43
1872.61
1871.8
1561.82
313.696
1562.21
1566.07
1565.7
1130.37
438.316
1132.34
1135.19
585.247
551.994
590.098
593.071
595.578
1.73563
597.319
12.4761
14.9838
-939.556
956.75
-938.939
-937.465
-937.599
-2459.65
1522.77
-2460.26
-2459.68
-2461.81
-4378.72
1918.44
-4382.06
-4378.45
-6577.81
2196.99
-6573.78
-6576.18
-6468.84
-6356.24
-6235.08
-8530.15
2409.48
-8415.05
-8272.57
-8102.46
-7930.79
-7757.13
-7589.73
-7414.45
-7219.1
-9581.41
2558.01
-9370.48
-9164.39
-8960.68
-8733.55
-8503.72
-8271.73
-8039.18
-7809.61
-10182.6
2607.78
-9930.96
-9678.5
-9426.07
-9174.59
-8917.96
-8649.27
-8378.16
-8104.57
-7834.68
-10114
2538.71
-9829.42
-9542.28
-9254.65
-8967.47
-8683.2
-8383.52
-8075.4
-7770.44
-9757.42
2277.17
-9460.02
-9157.48
-8841.04
-8525.24
-8207.31
-7891.15
-7574.4
-7244.45
-8754.21
1828.02
-8432.39
-8111.49
-7793.03
-7460.6
-7124.38
-6788.41
-6455.36
-6133.03
-6918.77
1104.97
-6594.76
-6274.97
-5957.44
-5644.66
-5335.45
-5046.39
-4760.17
-4486.32
-4223.78
-3880.43
-78.9559
-3659.08
-3464.84
-3276.26
-3093.34
-2907.96
-2755.35
-2671.89
-2599.12
-1934.74
-569.722
-1858.8
-1774.81
-1773.39
-1407.94
-353.492
-1080.65
-329.183
-1070.89
-801.915
-272.196
-792.976
-578.365
-216.124
-388.905
-181.317
-394.108
-246.189
-140.891
-133.06
-122.831
-128.652
-38.1199
-102.94
-33.4318
49.457
-94.6746
158.445
-105.183
150.142
248.888
-97.8022
240.038
327.767
-90.6806
412.418
-92.877
410.429
488.281
-85.1124
571.392
-83.9522
566.278
641.088
-75.9103
636.514
704.591
-71.475
765.031
-64.899
762.326
821.034
-62.2802
819.061
872.515
-57.0303
919.005
-47.6888
916.602
965.928
-51.619
1004.63
-40.913
1002.32
1040.34
-39.6255
1038.44
1076.7
-39.8711
1104.77
-29.389
1104.01
1138.81
-35.9771
1138.25
1172.31
-35.5298
1197.78
-25.8734
1196.94
1232.09
-35.7413
1257.96
-26.3357
1257.71
1285.82
-28.3436
1285.59
1315.32
-30.6323
1335.92
-20.7121
1334.7
1365.27
-30.5009
1364.47
1395.66
-31.1162
1416.88
-21.6238
1417.4
1450.61
-33.7709
1476.32
-25.1602
1475.55
1504.85
-28.7605
1504.35
1535.34
-30.4359
1556.57
-21.2511
1556.99
1589.13
-32.5061
1589.56
1621.96
-33.2751
1648.22
-25.6506
1647.94
1687.13
-38.6335
1721.2
-33.832
1721.65
1762.53
-40.6368
1762.59
-46.2909
-60.6257
465.39
-60.8621
538.451
-57.4199
597.422
-51.6341
670.19
-43.8108
766.532
-34.8977
878.842
-26.119
1011.94
-19.3301
1151.07
-9.5011
1197.68
10.2237
599.18
32.4785
439.585
45.6137
211.945
91.629
-130.48
104.765
-506.585
108.163
-498.061
112.172
-318.184
115.831
-99.7705
117.848
131.355
119.535
344.746
139.283
609.712
111.833
374.897
101.244
381.336
97.6664
449.256
81.8124
616.297
115.049
761.437
133.782
540.42
147.349
408.125
151.641
291.093
143.589
183.649
124.067
70.1707
-8.09127
-400.059
8.73464
2558.85
22.6514
4143.82
28.269
3290.1
38.6014
2668.5
45.013
2014.45
49.6967
1490.54
50.9553
1085.83
47.9601
766.679
42.882
515.91
33.1169
441.628
3.33342
516.709
26.0371
1069.43
29.6469
604.354
43.6023
1175.41
110.81
627.621
108.309
403.024
138.419
565.318
154.922
288.005
173.655
-33.1141
176.655
-405.619
139.947
-783.327
50.5049
-1122.2
-99.0205
-1343.7
-118.089
-489.499
-27.3961
569.604
43.9891
3640.82
-30.1382
1326.12
-97.0769
-255.239
-105.311
876.64
-97.0773
1081.28
-106.872
734.699
-108.422
967.998
-118.042
156.109
-135.348
-116.438
-169.14
-705.959
-184.786
-689.95
-185.722
-730.657
-173.065
-673.591
-138.571
-411.455
-98.8636
43.1294
-96.994
180.453
-81.1206
457.587
-53.7589
551.884
-9.87113
-354.939
56.8987
-662.609
65.4269
-1092.64
61.1519
-1390.64
-1602.8
-62.5914
466.761
-61.5115
536.947
-57.5912
592.334
-51.2584
662.934
-43.1212
757.092
-33.7905
868.199
-24.4651
1001.54
-17.5695
1143.09
-5.24681
1184.82
17.7166
574.931
47.7193
404.859
32.8236
212.406
101.5
-198.808
116.143
-521.671
120.579
-503.074
123.483
-322.208
125.37
-103.104
125.83
128.595
128.051
340.198
155.459
578.464
134.117
392.201
113.108
399.271
83.5712
474.69
63.9841
631.459
117.333
707.72
138.064
519.797
150.077
397.557
151.24
291.528
141.113
195.509
124.444
89.5587
-10.4522
-261.058
11.0482
2537.11
23.7761
4130.28
27.6631
3286.09
36.4663
2660.32
41.5868
2010.37
45.227
1489.82
45.6985
1088.96
43.3127
774.683
37.7406
528.408
33.9182
453.736
20.596
536.996
40.4542
1053.91
26.1579
625.157
68.2865
1139.1
78.6359
624.757
87.0036
407.948
127.237
531.472
148.096
271.06
167.892
-49.7784
169.229
-404.737
127.311
-739.182
40.4444
-1029.21
-80.0596
-1215.9
-52.6785
-512.365
-67.0877
590.109
3.57792
3570.86
20.9106
1310.53
-104.4
-136.42
-111.919
882.821
-90.3157
1060.15
-113.381
757.517
-92.3619
947.712
-117.041
181.6
-117.65
-111.256
-169.367
-652.628
-185.056
-674.084
-189.602
-726.208
-180.851
-683.175
-149.276
-443.945
-98.3963
-8.76826
-110.114
191.078
-84.3318
431.373
-24.754
491.649
9.54192
-391.789
56.4986
-711.437
66.3153
-1101.35
54.5304
-1377.85
-1588.26
-64.8168
468.11
-63.2724
535.472
-58.88
587.432
-52.1769
656.039
-43.7862
748.136
-34.2697
858.126
-24.7753
991.693
-17.1987
1135.04
-2.9934
1170.39
21.3925
550.235
51.2016
372.392
56.2119
204.902
110.132
-250.1
123.972
-535.029
127.836
-506.607
129.556
-322.627
131.015
-102.573
132.061
130.735
135.995
339.402
155.294
561.459
139.358
408.145
117.655
420.403
86.4759
504.799
73.0338
644.301
120.225
661.024
140.857
498.942
151.024
386.012
149.844
290.172
137.6
204.066
122.392
101.455
0.153509
-142.314
13.8115
2523.83
25.199
4117.99
27.8632
3283.22
35.8103
2652.54
40.1757
2005.94
43.1126
1487.74
42.9621
1089.6
40.0372
779.004
35.2564
534.47
34.012
457.187
22.1788
550.834
35.8167
1041.29
19.5689
642.748
64.3598
1096.55
69.6118
621.142
80.7254
400.095
114.832
489.983
140.39
241.018
161.965
-73.7521
163.356
-407.731
122.621
-700.031
36.8896
-947.237
-65.9327
-1117.34
-36.2998
-544.81
-45.7085
602.055
-3.32919
3528.64
10.8194
1297.44
-97.5741
-26.931
-109.91
894.445
-90.0851
1040.85
-113.464
780.427
-93.9481
928.496
-117.682
204.223
-122.438
-106.448
-168.874
-609.319
-184.205
-660.345
-190.874
-719.967
-184.792
-688.877
-157.623
-470.802
-110.259
-56.2517
-114.18
194.645
-85.4024
402.044
-17.6761
423.687
19.0142
-429.679
51.4184
-743.46
60.7482
-1112.04
54.8442
-1372.84
-1567.71
-66.9455
469.185
-65.0237
533.529
-60.2086
582.099
-53.1505
648.804
-44.4871
738.922
-34.769
847.723
-25.0879
981.35
-16.808
1125.87
-1.49627
1154.62
24.3568
523.145
51.4183
340.902
78.7388
170.361
119.813
-290.556
130.7
-546.505
133.892
-510.51
136.406
-326.204
137.792
-105.165
138.812
127.816
142.969
333.377
154.641
546.036
142.631
415.798
121.166
438.223
90.7353
530.533
85.0706
645.682
125.973
619.917
145.092
479.898
152.898
379.535
149.235
294.798
133.381
220.728
116.746
120.637
9.81684
-32.7408
15.588
2518.17
25.899
4107.41
27.9978
3281.88
35.5263
2646.68
39.6083
2004.01
42.225
1489.15
41.6932
1094.85
38.3829
789.049
33.0095
548.047
31.4356
468.327
21.3067
568.887
33.5488
1034.43
16.2993
667.512
59.1632
1061.21
62.905
626.802
74.541
404.271
106.212
463.125
136.327
214.72
158.307
-92.1167
157.597
-404.251
117.116
-656.85
34.4359
-857.775
-52.6851
-1021.21
-40.205
-551.514
-46.9198
616.112
-6.64492
3489.74
2.41871
1291.72
-94.8638
72.6496
-105.839
906.644
-89.7399
1026.79
-112.297
804.191
-96.3779
913.627
-119.453
227.311
-127.997
-95.6816
-168.513
-568.159
-183.6
-645.819
-192.033
-711.95
-188.402
-693.536
-164.927
-495.405
-121.839
-100.854
-118.175
189.287
-83.2809
366.14
-11.6094
350.872
22.5338
-468.089
52.2067
-775.351
58.9782
-1117.88
49.8338
-1362.62
-1555.75
-69.247
470.125
-66.8877
531.397
-61.6373
576.573
-54.2186
641.45
-45.268
729.667
-35.3274
837.483
-25.4323
971.332
-16.4589
1116.61
-0.230599
1138.33
26.8906
496.115
54.2408
311.824
95.2235
130.056
130.145
-323.15
138.936
-554.779
140.837
-512.075
143.396
-327.453
144.517
-104.223
145.118
130.469
148.883
332.809
155.795
541.938
146.011
426.558
124.684
459.642
95.7281
559.184
97.0093
644.625
132.256
585.146
148.984
462.655
154.098
372.952
148.281
297.878
127.184
237.506
109.311
133.597
13.8949
59.9978
16.9813
2515.48
26.2519
4097.3
28.1603
3279.81
35.3884
2639.6
39.3596
1999.83
41.8005
1487.18
40.9959
1095.5
37.2324
793.244
31.0052
554.217
29.1733
470.875
20.0465
578.811
31.7193
1023.05
13.6585
685.815
55.1071
1021.4
59.8886
622.444
69.0078
395.939
101.907
423.706
135.987
175.848
157.785
-116.51
154.205
-402.566
113.274
-618.074
31.5486
-779.435
-45.5191
-948.688
-43.6965
-556.037
-47.1714
621.749
-7.24575
3449.9
-4.69947
1290.57
-92.1023
161.86
-101.302
915.628
-89.4284
1015.64
-110.934
825.286
-97.8627
900.734
-119.391
247.236
-131.927
-84.4355
-168.212
-535.134
-182.594
-633.234
-192.45
-702.586
-190.989
-694.767
-170.327
-515.876
-130.089
-140.899
-120.142
179.002
-79.2478
324.693
-4.25341
275.642
28.929
-502.249
56.2466
-802.051
58.4598
-1121.32
52.2581
-1357.36
-1529.71
-71.7829
470.829
-68.9381
528.594
-63.2286
570.484
-55.429
633.65
-46.1599
720.044
-35.9696
826.789
-25.8338
960.663
-16.183
1106.14
0.940343
1120.74
29.3711
466.225
58.0924
278.485
108.214
76.0114
140.125
-354.804
147.641
-563.142
148.93
-514.32
150.731
-330.438
150.956
-105.654
150.852
128.731
153.63
328.118
156.973
534.878
148.234
431.565
127.837
476.36
103.512
578.784
111.013
633.917
139.436
556.398
153.141
448.696
155.552
371.505
148.881
305.099
122.049
264.726
99.3885
158.632
18.7228
142.65
18.0506
2516.45
26.3751
4088.76
28.2948
3278.7
35.3446
2634.27
39.3191
1997.96
41.7126
1488.62
40.7631
1100.8
36.6641
803.444
29.6229
568.502
26.967
481.988
18.4464
594.365
30.3628
1016.37
11.9851
711.048
52.1725
989.303
60.847
623.967
63.9042
407.896
101.582
390.138
138.051
143.214
158.843
-133.113
151.976
-392.119
109.99
-572.888
29.2046
-691.624
-40.326
-869.221
-45.1867
-543.741
-47.0264
633.253
-5.17567
3409.83
-11.333
1299.85
-90.0141
243.251
-96.9331
923.701
-88.7195
1009.3
-108.863
846.322
-97.9399
890.5
-117.825
265.9
-134.374
-68.5398
-167.554
-502.413
-181.035
-621.016
-192.002
-692.345
-192.612
-695.398
-173.948
-535.932
-135.104
-181.584
-119.455
161.166
-73.3798
277.151
7.29366
193.657
34.9537
-538.102
57.3486
-826.62
57.4822
-1120.62
50.7902
-1349.57
-1511.25
-74.5258
471.437
-71.1522
525.482
-64.9673
564.058
-56.7662
625.544
-47.1563
710.16
-36.6963
816.091
-26.2988
950.232
-15.9676
1095.63
2.07154
1102.75
31.9695
436.855
62.7802
246.573
119.632
20.3652
149.785
-382.904
156.093
-568.809
156.628
-514.391
157.637
-330.098
156.734
-102.65
155.812
132.847
157.159
330.062
159.19
536.281
150.692
441.914
130.995
497.035
110.728
599.619
122.198
623.2
145.81
533.326
156.268
437.548
155.689
370.675
148.765
308.986
120.065
289.605
87.0386
185.699
20.2046
207.285
18.7168
2518.27
26.3147
4080.23
28.3988
3276.25
35.3969
2627.11
39.4718
1993.22
41.9186
1485.98
40.9251
1100.75
36.6289
806.988
28.8463
574.672
24.96
484.874
16.9608
601.817
29.4332
1003.21
11.2096
728.33
50.7596
950.396
64.7926
608.468
64.853
404.793
106.157
342.963
143.086
101.298
162.066
-154.984
151.703
-384.193
107.774
-532.217
27.7754
-614.907
-37.0899
-809.364
-48.0217
-535.568
-44.9464
632.217
-0.70957
3365.41
-17.5352
1317.79
-88.2388
314.371
-92.6229
927.681
-87.3593
1004.56
-105.938
864.233
-96.9086
881.476
-115.361
282.546
-135.345
-50.1905
-166.533
-474.066
-178.927
-610.303
-190.682
-680.961
-193.288
-692.593
-176.013
-552.981
-136.955
-219.993
-115.856
139.97
-65.7417
226.691
23.3146
104.597
36.4165
-551.964
55.4096
-844.726
56.4506
-1122.68
47.037
-1341.14
-1497.45
-77.458
471.722
-73.5262
521.57
-66.8543
557.02
-58.2321
616.952
-48.2567
699.883
-37.5093
804.915
-26.8337
939.109
-15.8112
1083.85
3.2312
1083.3
34.6455
403.922
68.0509
208.745
129.763
-43.5051
158.993
-412.194
164.337
-575.194
164.021
-515.199
163.977
-331.316
161.929
-101.775
160.262
132.756
159.595
328.736
161.721
530.641
152.586
448.06
134.12
511.991
119.046
610.484
133.131
606.897
152.406
513.524
159.54
429.614
156.079
374.646
147.672
317.682
121.614
316.173
76.0502
233.378
18.9208
266.047
18.9466
2518.54
26.0453
4072.81
28.4634
3274.47
35.5445
2621.54
39.8157
1990.72
42.4166
1486.73
41.4905
1105.33
37.1279
816.465
28.8046
588.85
23.4932
496.998
15.7928
615.294
28.5358
995.181
11.0988
751.7
51.2121
918.276
70.4008
598.76
72.806
411.86
114.142
304.794
149.621
69.3137
166.047
-167.072
152.062
-366.17
105.943
-482.807
28.6643
-530.611
-32.8173
-738.746
-49.1733
-511.2
-40.8711
635.477
6.09257
3320.15
-22.6843
1348.95
-86.5357
379.885
-88.2743
929.873
-85.3292
1002.95
-102.183
881.412
-94.7892
874.389
-112.164
297.903
-134.781
-30.6328
-164.919
-445.468
-176.182
-600.822
-188.359
-669.694
-193.01
-689.321
-176.911
-570.633
-136.701
-262.167
-109.35
109.475
-57.7865
173.311
26.7241
18.5405
38.6634
-572.106
54.0346
-862.459
56.1667
-1124.01
50.9339
-1334.86
-1466.91
-80.5831
471.803
-76.0538
517.304
-68.8841
549.601
-59.8237
607.969
-49.4707
689.236
-38.4233
793.647
-27.4468
928.16
-15.7031
1072.04
4.40235
1063.42
37.4679
371.97
74.2839
171.202
139.469
-107.485
167.783
-438.673
172.326
-579.006
171.09
-513.382
169.762
-328.603
166.51
-96.3479
164.168
138.32
161.42
335.03
164.648
531.566
154.69
460.485
137.037
531.439
126.47
622.669
142.169
592.097
157.862
498.317
161.505
425.079
155.672
379.179
144.722
325.494
120.756
336.96
66.2384
282.854
16.0291
314.194
18.8073
2515.98
25.5583
4065.06
28.502
3270.96
35.7923
2613.8
40.3633
1985.08
43.2066
1483.14
42.4464
1104.33
38.1557
819.066
29.4893
594.705
22.5552
501.577
14.8684
621.382
27.9032
980.61
12.4593
765.274
53.9404
876.456
76.2107
572.183
83.3037
399.83
124.49
258.124
158.182
30.5815
171.753
-183.745
153.984
-351.276
105.162
-438.301
35.4008
-464.102
-24.5661
-684.259
-49.3647
-489.71
-34.1061
621.632
15.2169
3270.21
-26.8506
1391.9
-85.0863
437.687
-83.8709
928.292
-82.688
1002.26
-97.7974
895.811
-91.8043
868.404
-108.32
312.779
-132.372
-7.92221
-162.596
-417.878
-172.827
-592.209
-185.015
-657.814
-191.747
-682.471
-176.869
-585.255
-135.152
-302.945
-99.7408
74.4257
-50.5067
124.015
22.3117
-53.9283
41.6049
-589.408
54.5847
-874.489
56.2897
-1126.54
49.9037
-1329.54
-1448.52
-83.8943
471.379
-78.7391
512.124
-71.0584
541.537
-61.5431
598.483
-50.7942
678.202
-39.4315
781.906
-28.1287
916.488
-15.6491
1058.89
5.60433
1041.86
40.3534
335.91
81.5399
126.333
148.49
-175.583
175.972
-466.536
179.842
-584.146
177.82
-512.708
175.18
-327.399
170.822
-93.2619
167.982
139.336
163.703
337.087
167.291
524.592
156.639
468.353
140.138
544.429
134.808
624.201
151.28
573.808
163.543
485.108
163.793
423.226
157.267
385.852
143.124
340.094
119.261
361.547
63.4315
340.168
17.0653
361.864
18.311
2514.98
24.8324
4058.11
28.4834
3267.78
36.1199
2607.52
41.0981
1981.63
44.2862
1482.96
43.81
1107.97
39.7184
827.578
30.9009
608.377
22.3131
515.719
14.6051
633.983
29.2898
970.308
17.4142
782.649
59.5797
842.032
82.5485
557.648
95.6701
392.895
136.71
219.77
168.128
2.64145
178.205
-188.974
156.563
-324.99
106.719
-385.098
47.8936
-398.659
-7.73924
-622.025
-42.9884
-445.734
-25.0036
618.705
26.6966
3219.91
-29.4102
1449.8
-83.9221
493.247
-79.5062
923.946
-79.3543
1003.14
-92.6989
909.203
-88.0659
863.953
-103.797
326.214
-127.879
11.6017
-159.123
-389.319
-168.854
-584.757
-180.589
-647.171
-189.463
-675.136
-176.118
-600.285
-133.906
-347.378
-87.3968
23.4051
-43.414
77.6091
22.2614
-121.608
43.4002
-615.738
55.6776
-889.415
56.4809
-1126.57
47.2558
-1319.39
-1429.41
-87.3991
470.635
-81.5753
506.581
-73.3708
533.084
-63.3856
588.566
-52.2349
666.742
-40.5468
770.008
-28.8853
904.89
-15.6405
1045.64
6.81794
1019.77
43.513
301.178
90.677
78.625
157.279
-241.195
183.622
-491.139
186.843
-586.47
184.113
-509.194
180.178
-321.996
174.6
-85.4327
171.181
145.948
165.665
346.409
169.666
524.948
158.568
482.279
142.461
563.131
141.944
627.042
158.811
557.807
167.829
476.653
164.19
426.037
157.263
391.651
141.007
353.576
116.201
383.587
62.2154
390.048
18.4198
403.795
17.4504
2516.09
23.8776
4050.65
28.4122
3262.56
36.5219
2598.77
42.0195
1974.8
45.6434
1478.25
45.5563
1105.87
41.788
829.121
32.9818
613.731
23.2761
522.384
15.9498
639.164
32.7514
951.447
25.372
787.598
68.3586
797.6
89.5586
529.137
110.307
366.764
151.304
173.682
180.302
-31.362
186.444
-198.65
161.152
-303.696
112.461
-342.686
62.5569
-352.177
21.0436
-586.721
-27.0505
-402.711
-15.3995
607.364
40.2733
3163.23
-29.295
1520.02
-82.6029
545.545
-75.0263
916.063
-75.2665
1003.96
-86.7838
920.107
-83.5045
860.781
-97.9337
339.292
-119.686
32.8955
-153.452
-357.399
-164.256
-575.303
-175.111
-636.433
-186.073
-664.003
-174.835
-611.141
-133.747
-387.191
-76.717
-32.3424
-35.9922
37.1948
25.1718
-182.031
45.7539
-633.994
57.1064
-899.873
56.7852
-1126.87
49.0931
-1312.85
-1406.73
-91.0862
469.213
-84.5666
499.995
-75.8237
523.949
-65.3543
578.126
-53.7896
654.907
-41.7643
757.658
-29.7113
892.562
-15.6739
1031.05
8.07573
995.94
46.7724
261.723
102.692
19.2849
165.46
-304.638
190.497
-516.742
193.169
-590.512
189.716
-507.186
184.455
-318.237
177.876
-80.0944
174.082
148.039
168.046
350.322
171.64
518.347
160.559
490.724
146.45
574.001
151.502
618.916
166.597
540.98
172.29
469.554
164.752
431.22
157.122
399.235
140.064
371.359
113.785
410.679
62.4048
442.381
19.6239
447.446
16.1776
2519.69
22.678
4043.64
28.2587
3257.31
36.985
2591.26
43.1116
1969.99
47.2781
1476.81
47.701
1108.2
44.4162
836.236
35.8251
626.342
25.6507
537.048
18.9638
650
37.3012
937.155
34.7824
795.238
78.7114
760.577
97.6935
516.149
127.151
341.73
167.192
135.921
193.058
-53.8656
195.158
-195.517
167.6
-271.666
121.537
-294.29
81.5572
-307.094
55.5663
-555.808
-17.7839
-322.902
-9.68426
614.122
55.5433
3098.99
-25.3444
1602.34
-80.4887
601.481
-69.9287
905.639
-70.1896
1005.24
-80.0423
930.033
-77.8142
858.852
-89.5726
348.968
-106.463
44.9239
-144.474
-323.006
-158.825
-563.575
-168.646
-627.794
-181.486
-652.832
-172.909
-621.382
-133.818
-428.531
-70.0716
-99.8245
-27.7897
-7.62195
29.8281
-242.515
48.5562
-656.755
58.1981
-912.292
56.9176
-1124.79
46.025
-1301.18
-1394.22
-94.9589
467.366
-87.7009
493.031
-78.4082
514.404
-67.4433
567.215
-55.4662
642.593
-43.0974
745.073
-30.6138
880.162
-15.7266
1016.23
9.38547
971.362
50.4074
223.573
121.934
-53.3049
173.187
-355.127
196.628
-538.474
198.837
-591.622
194.553
-501.849
187.836
-309.847
180.274
-69.9967
176.062
155.73
169.652
361.241
173.026
519.87
162.283
504.9
150.951
588.947
160.385
612.276
172.736
529.436
174.996
467.983
163.976
441.622
155.054
407.401
137.978
385.98
110.851
435.251
62.4186
487.339
20.5479
487.55
14.5188
2525.81
21.253
4035.87
28.0365
3249.76
37.5104
2581.02
44.3773
1961.61
49.1779
1470.69
50.2095
1104.69
47.5848
836.248
39.3928
630.645
29.1577
543.806
23.1238
653.49
42.4706
915.332
44.9496
789.837
89.2668
713.605
109.48
487.337
145.932
299.963
184.278
92.8463
206.583
-80.9501
204.866
-197.54
174.831
-246.975
127.632
-256.37
94.2661
-278.285
53.5099
-524.771
-67.0221
-210.445
-12.7846
556.689
71.9583
3012.78
-16.5005
1691.44
-77.0919
661.057
-64.1579
892.738
-64.0223
1006.05
-72.367
938.086
-71.025
857.891
-78.3176
355.392
-89.7261
57.3427
-133.805
-279.847
-152.172
-546.383
-161.355
-618.576
-175.561
-638.427
-169.789
-626.681
-132.755
-464.074
-64.6521
-166.167
-17.5497
-53.7341
35.9988
-293.85
51.158
-669.825
59.082
-919.443
57.2337
-1123.39
50.2213
-1295.38
-1367.18
-99.0014
464.667
-90.9834
484.895
-81.1281
504.137
-69.6584
555.763
-57.2635
629.923
-44.5419
732.065
-31.586
867.019
-15.7956
1000.01
10.7702
945.078
52.7153
181.267
135.511
-139.258
179.821
-400.106
201.752
-561.113
203.598
-594.917
198.444
-498.216
190.358
-303.314
182.151
-62.9573
177.765
158.634
171.793
365.491
174.449
514.781
164.501
512.438
157.322
593.427
169.771
597.535
178.994
518.227
177.902
467.072
165.914
450.705
155.451
418.058
136.941
405.517
108.269
464.847
61.3859
534.955
20.0342
529.439
12.4656
2533.5
19.5954
4028.19
27.7178
3241.9
38.0896
2571.82
45.8033
1955.1
51.3456
1467.73
53.1016
1105.46
51.311
841.509
43.7506
641.686
33.7361
557.592
28.0858
662.833
47.9508
899.385
55.7397
786.886
100.035
675.553
124.335
466.928
165.099
262.949
201.346
59.0809
219.762
-95.4671
214.305
-186.02
180.792
-208.572
128.09
-202.16
104.287
-248.51
71.0432
-487.443
-105.714
-28.6746
-11.8737
474.136
89.1334
2911.65
-2.13209
1784.12
-71.6167
731.502
-58.3961
880.254
-57.3703
1006.43
-63.8486
944.968
-63.4106
858.097
-66.2545
356.561
-76.3486
62.7573
-127.036
-234.603
-144.604
-532.029
-153.418
-611.146
-168.354
-625.406
-165.348
-631.376
-130.744
-500.799
-59.7724
-239.832
-4.82579
-111.303
44.2244
-346.769
53.6001
-683.06
59.3317
-928.074
57.3224
-1120.55
49.9715
-1287.41
-1348.66
-103.217
461.449
-94.4001
476.404
-83.9751
493.474
-71.9951
543.848
-59.1901
616.778
-46.1088
718.774
-32.6316
853.633
-15.8499
983.325
12.2563
917.613
56.9557
140.964
140.417
-223.155
185.521
-444.624
205.873
-579.762
207.353
-595.101
201.226
-490.772
191.913
-292.157
183.182
-51.5068
178.331
167.085
172.908
375.849
175.22
517.547
166.074
525.519
162.894
601.089
176.97
586.165
183.337
512.623
178.366
473.07
166.159
462.696
154.916
428.911
134.309
423.841
104.072
492.687
58.1304
577.978
18.4273
567.59
10.091
2541.9
17.73
4019.54
27.3215
3231.51
38.7239
2559.58
47.3917
1944.83
53.7645
1459.93
56.3301
1100.28
55.5302
839.546
48.835
644.381
39.3
563.616
33.2255
666.289
53.2931
876.677
67.1729
769.428
110.973
627.543
140.859
429.112
184.818
213.933
219.274
20.1556
234.176
-115.164
225.593
-181.935
187.641
-178.388
125.022
-152.181
98.6422
-228.312
20.4005
-419.665
-85.3063
62.4962
8.67306
370.594
106.453
2812.09
17.4064
1873.52
-64.0264
811.877
-53.0716
869.375
-50.5277
1004.99
-55.4304
949.786
-55.9671
859.165
-56.7995
356.94
-64.883
73.2308
-120.872
-177.981
-136.859
-516.984
-144.907
-602.873
-159.872
-610.127
-159.522
-631.089
-127.971
-530.644
-55.2521
-310.624
6.33974
-170.316
49.7604
-386.021
54.1998
-685.528
59.1778
-932.477
57.4648
-1119.11
47.1016
-1278.3
-1333.76
-107.591
457.193
-97.9605
466.617
-86.9563
482.053
-74.4633
531.368
-61.2482
603.282
-47.7953
705.066
-33.7449
839.484
-15.9001
965.181
13.5645
888.822
64.2548
90.661
146.266
-307.689
189.94
-488.938
208.779
-599.306
209.831
-597.535
202.728
-485.092
192.577
-283.426
183.832
-43.6266
178.711
171.204
174.496
379.209
176.327
514.422
168.264
531.992
169.671
597.839
184.219
569.949
187.788
506.8
178.781
479.724
166.62
471.679
155.555
440.72
130.632
449.978
95.1333
529.053
52.1941
621.493
16.8522
603.256
7.36472
2551.52
15.6498
4010.7
26.8189
3220.53
39.4075
2548.12
49.1305
1936.21
56.4422
1455.07
59.9127
1099.13
60.2833
842.294
54.8355
652.816
45.908
575.679
39.2645
676.186
59.9583
859.605
80.0307
753.496
121.866
590.996
159.202
394.466
205.447
170.991
237.671
-9.45325
249.513
-122.58
239.562
-165.483
200.635
-134.085
137.636
-87.1628
77.8914
-161.75
-20.5058
-316.524
8.91788
35.1265
55.2381
332.998
122.44
2743.37
41.3829
1956.21
-53.945
908.405
-47.9337
864.7
-42.9477
1001.94
-47.2798
954.945
-49.2755
862.252
-50.1929
356.808
-51.7774
71.0627
-110.904
-126.726
-129.278
-502.345
-135.978
-597.72
-150.271
-598.016
-152.401
-630.683
-125.414
-559.564
-57.1892
-380.879
8.15112
-237.771
45.7228
-426.253
54.5391
-697.973
58.5114
-939.416
57.894
-1117.56
51.7574
-1271.67
-1303.55
-112.128
452.306
-101.649
456.492
-90.0649
470.233
-77.0606
518.425
-63.4465
589.298
-49.6091
690.99
-34.9284
824.853
-15.9043
946.225
14.9525
858.599
75.48
37.3212
151.107
-383.206
193.161
-530.439
210.751
-615.095
211.176
-596.365
203.103
-475.309
192.28
-270.372
183.518
-31.6523
177.843
181.039
174.771
388.205
176.532
518.646
169.253
544.269
175.171
597.285
189.347
558.522
189.873
507.241
176.264
495.023
163.924
484.57
153.955
450.627
122.292
479.528
80.6596
568.439
45.8708
653.744
15.8597
631.957
4.28177
2563.19
13.371
4000.63
26.2318
3206.86
40.141
2533.32
51.0216
1923.64
59.3555
1445.2
63.7952
1091.94
65.5026
837.668
61.4801
652.719
53.0489
580.568
47.0403
679.521
68.9805
834.942
94.4985
723.71
134.367
545.798
180.376
341.27
227.392
119.17
256.854
-43.2511
266.204
-136.775
257.876
-163.057
217.336
-102.977
155.167
-36.7621
58.2579
-71.0291
-100.471
-165.846
-123.729
38.64
2.84964
188.31
134.776
2609.55
68.7823
2022.42
-40.651
1016.84
-42.7138
866.82
-34.4972
995.062
-38.1554
958.842
-41.9872
866.905
-45.9398
360.932
-43.8221
73.3029
-103.849
-63.9519
-121.174
-485.71
-126.827
-591.532
-139.657
-584.665
-143.974
-625.537
-123.252
-578.493
-67.8569
-434.305
2.80589
-304.849
42.5172
-461.39
55.9775
-709.613
58.2818
-941.368
58.539
-1117.96
51.5943
-1265.99
-1284.47
-116.813
446.193
-105.481
444.959
-93.3111
457.628
-79.8003
504.905
-65.7898
574.97
-51.5494
676.484
-36.1804
809.43
-15.8869
925.714
14.679
828.772
83.3188
-30.1515
152.514
-454.377
195.194
-573.673
211.774
-632.327
211.232
-597.075
202.286
-467.586
191.052
-260.271
182.642
-23.6061
176.931
186.478
175.48
390.026
177.369
516.934
172.848
548.397
183.054
586.149
194.361
545.816
191.803
507.189
176.545
507.877
164.429
494.147
153.134
463.231
116.048
517.96
73.2763
612.011
45.691
681.864
15.0472
662.89
0.796004
2577.66
10.8715
3990.02
25.5307
3192.38
40.9226
2519.08
53.0556
1912.56
62.514
1438.15
68.0354
1088.6
71.1938
837.4
68.5572
658.007
60.5953
591.264
56.1418
687.028
79.5014
814.972
110.745
696.127
152.267
508.407
204.47
291.476
250.133
76.8327
275.891
-65.9231
282.619
-138.131
275.745
-148.647
232.202
-53.7595
166.102
32.4306
58.38
42.1493
-124.876
21.3255
-194.42
109.922
-17.8754
15.7264
143.232
2445.75
97.9132
2069.86
-22.992
1139.3
-37.3088
882.955
-25.6756
986.128
-27.4271
962.037
-32.5307
873.748
-44.7671
373.118
-45.9648
72.7467
-101.654
-16.3852
-112.687
-478.805
-117.675
-588.332
-128.251
-576.618
-133.982
-621.711