/*--------------------------------*- C++ -*----------------------------------*\
| =========                 |                                                 |
| \\      /  F ield         | OpenFOAM: The Open Source CFD Toolbox           |
|  \\    /   O peration     | Version:  4.1                                   |
|   \\  /    A nd           | Web:      www.OpenFOAM.org                      |
|    \\/     M anipulation  |                                                 |
\*---------------------------------------------------------------------------*/
FoamFile
{
    version     2.0;
    format      ascii;
    class       volVectorField;
    location    "26";
    object      U;
}
// * * * * * * * * * * * * * * * * * * * * * * * * * * * * * * * * * * * * * //

dimensions      [0 1 -1 0 0 0 0];

internalField   nonuniform List<vector> 
6785
(
(9.69118e-15 0.852186 15.7946)
(8.9749e-15 -4.8946 12.1215)
(-3.32612e-15 -4.19552 12.1321)
(2.90172e-15 -3.60119 11.9966)
(9.31671e-16 -3.00469 11.8778)
(-1.63947e-16 -2.5532 11.6992)
(2.07446e-15 -2.20882 11.4769)
(5.43104e-16 -1.96604 11.2116)
(-9.82306e-16 -1.79856 10.916)
(8.22652e-16 -1.71239 10.5882)
(2.36137e-16 -1.83747 10.1561)
(-5.4329e-16 -2.28568 9.53761)
(-2.94888e-17 -2.51301 8.96376)
(-1.81225e-16 -1.06553 8.91354)
(-1.09461e-16 1.76575 7.47093)
(1.42678e-14 -5.35017 22.493)
(1.56659e-14 -14.6049 21.3939)
(-1.22085e-15 -13.2708 20.3411)
(1.99224e-15 -11.7697 19.5066)
(1.79101e-15 -11.1561 18.5043)
(3.00261e-17 -10.6594 17.5174)
(3.13765e-15 -10.0901 16.5714)
(1.3721e-15 -9.525 15.6236)
(-6.04842e-16 -8.96543 14.6638)
(1.2897e-15 -8.36731 13.6946)
(6.42576e-16 -7.75709 12.7179)
(-6.08376e-16 -7.30335 11.7194)
(-1.55016e-16 -7.01705 10.6245)
(5.90372e-17 -5.73094 9.16132)
(-1.61284e-16 -2.30501 4.5833)
(2.16057e-14 -7.7157 23.9803)
(1.7382e-14 -16.7731 24.6728)
(1.50107e-16 -13.7365 23.9372)
(3.42902e-15 -12.3062 22.6249)
(1.68373e-15 -11.6447 21.2413)
(7.21862e-16 -10.814 20.0012)
(7.16181e-15 -9.94026 18.7737)
(1.72541e-16 -9.10012 17.5247)
(-1.23656e-16 -8.28339 16.2654)
(3.35143e-15 -7.47525 15.0262)
(9.33054e-16 -6.66763 13.8176)
(-8.33626e-18 -5.84165 12.4301)
(1.3731e-15 -4.81386 10.2752)
(6.34957e-16 -3.12619 6.68443)
(-1.26206e-16 -0.832054 1.68985)
(1.75882e-14 -8.50259 22.0462)
(1.69197e-14 -16.6211 24.332)
(9.96129e-16 -12.9299 23.797)
(3.72361e-15 -12.1536 21.9984)
(1.2782e-15 -11.42 20.5027)
(1.70232e-15 -10.4936 19.1721)
(2.55714e-15 -9.63386 17.8165)
(1.61793e-15 -8.82358 16.4588)
(8.00589e-16 -8.05361 15.1228)
(6.83761e-16 -7.32376 13.8163)
(8.11356e-16 -6.55241 12.4392)
(-2.20095e-16 -5.49074 10.5827)
(-7.97368e-18 -3.78502 7.5083)
(1.65196e-15 -1.49338 2.76571)
(-1.91223e-15 0.153504 -1.77325)
(1.72024e-14 -8.47595 19.7471)
(1.63916e-14 -16.3602 24.3121)
(-2.08173e-16 -13.0992 23.6599)
(3.34369e-15 -12.628 21.5362)
(1.60277e-15 -11.8566 20.0245)
(-8.62322e-16 -10.9575 18.6634)
(2.68153e-15 -10.1699 17.2583)
(1.67625e-15 -9.40294 15.8707)
(4.70146e-16 -8.65277 14.5232)
(2.44064e-15 -7.93072 13.2132)
(6.24656e-16 -7.1661 11.8289)
(8.20199e-16 -6.11634 9.99598)
(-5.09572e-16 -4.42412 7.15534)
(4.64456e-16 -2.30537 3.28808)
(-2.25763e-15 -0.787209 0.317987)
(1.65556e-14 -8.02069 17.5495)
(1.63236e-14 -16.0193 24.5273)
(3.03738e-15 -13.6448 24.046)
(3.92323e-15 -12.9947 21.7646)
(1.48764e-15 -12.1269 20.2151)
(4.21913e-16 -11.2253 18.8464)
(2.2288e-15 -10.4395 17.4335)
(4.1627e-16 -9.64949 16.0428)
(4.19181e-16 -8.86097 14.6928)
(1.47274e-15 -8.09388 13.3813)
(-1.89431e-15 -7.29791 12.0168)
(-4.72833e-16 -6.28518 10.2817)
(1.64249e-15 -4.73375 7.72136)
(-4.68142e-15 -2.75713 4.37397)
(8.43134e-16 -0.950007 1.29905)
(1.36275e-14 -7.33277 15.2398)
(1.784e-14 -15.4894 24.3515)
(6.33352e-15 -14.0274 24.4222)
(2.68967e-15 -13.1302 22.0676)
(2.29676e-16 -12.1472 20.4392)
(2.16974e-15 -11.2383 19.0538)
(1.93258e-15 -10.4387 17.6432)
(-4.1063e-16 -9.6226 16.2572)
(-6.59903e-16 -8.81302 14.9066)
(2.45304e-16 -8.03016 13.5921)
(1.76892e-15 -7.22703 12.2377)
(-2.43089e-15 -6.24366 10.5508)
(-4.06745e-16 -4.79146 8.11142)
(3.06401e-15 -2.91852 4.95328)
(3.42526e-15 -1.01365 1.80324)
(1.31364e-14 -6.54129 12.9942)
(1.89714e-14 -14.8396 23.8003)
(8.70841e-15 -14.2756 24.6701)
(2.13814e-15 -13.2444 22.3236)
(1.74086e-15 -12.174 20.5817)
(3.41845e-15 -11.2721 19.1652)
(5.05508e-16 -10.4716 17.758)
(1.33605e-15 -9.64993 16.3765)
(3.88806e-15 -8.84178 15.0252)
(-9.82753e-16 -8.0622 13.7087)
(1.45298e-16 -7.26214 12.3603)
(3.20355e-15 -6.29486 10.705)
(-2.1464e-15 -4.90065 8.34119)
(-8.5899e-16 -3.09599 5.28253)
(1.58237e-15 -1.12908 2.05794)
(1.01603e-14 -5.74088 11.0349)
(1.84423e-14 -14.1525 23.0425)
(9.84148e-15 -14.4659 24.8479)
(3.89216e-15 -13.4174 22.6261)
(1.97121e-15 -12.2715 20.7581)
(2.34122e-15 -11.3666 19.2973)
(3.04931e-15 -10.5653 17.8938)
(1.78465e-15 -9.74369 16.5157)
(1.99884e-15 -8.93774 15.1623)
(8.93645e-16 -8.1585 13.8427)
(4.74667e-16 -7.35873 12.4968)
(2.3288e-15 -6.40085 10.868)
(7.72838e-16 -5.04794 8.57428)
(-6.19689e-16 -3.29315 5.59653)
(-1.58416e-15 -1.25652 2.28524)
(7.95139e-15 -4.99612 9.39999)
(1.79067e-14 -13.4571 22.1681)
(1.06685e-14 -14.5748 24.9424)
(3.72306e-15 -13.5983 22.9591)
(1.88363e-15 -12.3817 20.9748)
(3.56032e-16 -11.4563 19.4568)
(1.89504e-15 -10.6487 18.0542)
(1.78274e-15 -9.82691 16.6792)
(1.40941e-15 -9.02067 15.3241)
(1.28568e-15 -8.23871 14.0013)
(5.51833e-16 -7.43837 12.6554)
(2.06602e-15 -6.48889 11.0449)
(1.97192e-15 -5.16916 8.80567)
(5.05927e-16 -3.45433 5.88678)
(-6.92863e-16 -1.3516 2.49678)
(5.56758e-15 -4.37352 8.10883)
(1.72804e-14 -12.7994 21.2748)
(1.20017e-14 -14.6058 24.9479)
(2.25056e-15 -13.7746 23.2947)
(2.09167e-15 -12.5126 21.2286)
(1.3161e-15 -11.5602 19.6431)
(4.41681e-16 -10.7445 18.2326)
(1.52816e-15 -9.92384 16.8575)
(2.32719e-15 -9.11743 15.4992)
(-1.42475e-15 -8.33192 14.1717)
(7.51765e-17 -7.52996 12.8234)
(1.16699e-15 -6.58764 11.2282)
(-3.23059e-15 -5.29698 9.03968)
(3.90471e-16 -3.6189 6.17504)
(-2.54871e-15 -1.45141 2.71097)
(4.48194e-15 -3.795 6.87886)
(1.67399e-14 -12.1231 20.2568)
(1.15554e-14 -14.5373 24.7835)
(5.14793e-15 -13.8865 23.4961)
(2.49893e-15 -12.581 21.3661)
(9.81802e-16 -11.5917 19.721)
(1.64789e-15 -10.771 18.3185)
(1.06823e-15 -9.95822 16.9592)
(-5.84848e-16 -9.16002 15.6137)
(6.47697e-16 -8.38176 14.2966)
(2.05817e-16 -7.58728 12.9578)
(-3.1335e-15 -6.6556 11.378)
(-7.4392e-16 -5.38577 9.22288)
(-4.12017e-15 -3.73124 6.38703)
(-4.03065e-15 -1.50474 2.84505)
(4.27388e-15 -3.49537 6.34098)
(1.60172e-14 -11.6557 19.4909)
(1.17834e-14 -14.6118 24.7031)
(6.3781e-15 -14.2898 23.9653)
(2.80111e-15 -13.0414 21.8711)
(1.22615e-16 -12.0115 20.103)
(1.13785e-15 -11.157 18.6181)
(2.93627e-15 -10.3272 17.2161)
(-1.44627e-16 -9.50624 15.8373)
(-3.34985e-17 -8.69784 14.4904)
(9.51653e-16 -7.87905 13.1379)
(-1.75084e-15 -6.93881 11.5846)
(-1.04622e-15 -5.68289 9.51049)
(-3.80298e-15 -4.02149 6.72765)
(-2.76144e-15 -1.67418 3.08138)
(2.21447e-15 -2.03359 2.93907)
(1.37655e-14 -10.0346 16.5659)
(1.19372e-14 -13.9258 23.3496)
(5.20446e-15 -13.8712 23.2763)
(2.20806e-15 -12.5111 21.147)
(3.15149e-16 -11.4351 19.4638)
(7.83655e-16 -10.6837 18.2422)
(3.40457e-15 -9.98723 17.0865)
(1.91615e-16 -9.29867 15.9092)
(-2.01383e-16 -8.61854 14.7265)
(1.35344e-15 -7.92028 13.5093)
(-1.45999e-15 -7.10229 12.0865)
(-9.60545e-16 -5.97436 10.1801)
(-1.92658e-15 -4.50402 7.68387)
(-2.62724e-15 -2.23621 4.38548)
(3.82819e-15 -4.0748 8.38986)
(1.43846e-14 -11.0957 18.3625)
(1.48172e-14 -15.3448 24.9833)
(9.54295e-15 -16.7917 26.0005)
(4.64132e-15 -16.2019 24.2063)
(1.48355e-15 -14.9808 21.7266)
(6.9048e-16 -13.6565 19.4175)
(1.41097e-15 -12.4012 17.487)
(-5.65116e-17 -11.193 15.6884)
(1.45093e-16 -10.0281 14.0898)
(9.08225e-17 -8.89192 12.551)
(-1.43618e-15 -7.68293 10.9152)
(-1.31225e-15 -6.27387 8.94233)
(-1.83894e-15 -4.3501 5.94981)
(-2.9918e-15 -0.882632 1.62604)
(1.17607e-16 0.733346 -3.70131)
(3.33407e-16 0.326039 -5.87808)
(2.83679e-16 0.71745 -4.4564)
(3.16216e-16 1.13254 -4.38292)
(3.17042e-16 1.65274 -4.16512)
(3.64667e-16 1.69279 -5.59276)
(2.33056e-16 2.01002 -4.08269)
(2.09063e-16 2.3269 -4.0125)
(2.60229e-16 2.70866 -3.84975)
(2.11306e-15 3.13835 -4.79813)
(3.0869e-16 2.95878 -3.58717)
(2.67805e-16 3.29081 -3.4012)
(2.84327e-16 4.26051 -4.02972)
(2.28216e-16 3.53667 -3.03725)
(2.20867e-16 3.88089 -2.9927)
(2.18182e-16 4.01416 -2.91974)
(1.27358e-16 5.22316 -3.30452)
(2.45726e-16 4.02013 -2.55691)
(2.94516e-16 4.20824 -2.47906)
(2.73927e-16 5.73099 -2.67162)
(2.31591e-16 4.21753 -2.08466)
(2.23884e-16 4.54093 -2.06057)
(2.33107e-16 4.57057 -2.05025)
(2.72053e-16 5.91488 -2.072)
(2.31874e-16 4.27254 -1.69186)
(2.21898e-16 4.6428 -1.66657)
(2.31395e-16 4.65782 -1.67476)
(2.89574e-16 5.97246 -1.55113)
(2.10692e-16 4.27159 -1.3092)
(1.82424e-16 4.33107 -1.32583)
(2.64921e-16 6.00115 -1.06863)
(5.15971e-16 4.06344 -0.933688)
(1.83855e-16 4.31346 -0.913447)
(5.91687e-18 4.27571 -0.942613)
(1.68958e-16 5.55936 -0.654409)
(1.5407e-16 3.82363 -0.575967)
(1.44792e-16 3.82164 -0.614845)
(1.74971e-16 5.25428 -0.274332)
(1.48563e-16 3.49293 -0.253446)
(1.3593e-16 3.65407 -0.242963)
(1.62036e-16 3.6269 -0.281394)
(2.10535e-16 4.50696 0.0740229)
(1.67693e-16 3.0905 0.032532)
(1.65973e-16 3.2429 0.0416006)
(1.48907e-16 3.25831 -0.00021384)
(2.06381e-16 3.75294 0.39307)
(1.24283e-16 2.71493 0.303904)
(1.46676e-16 2.7244 0.249319)
(5.87353e-17 3.24802 0.751908)
(8.45784e-17 2.43047 0.617018)
(1.39242e-16 2.43457 0.624413)
(1.66698e-16 2.4537 0.5584)
(1.98913e-16 2.61654 1.17552)
(1.74537e-16 2.00526 0.885087)
(3.14132e-16 2.02222 0.890249)
(2.86557e-16 2.02048 0.824279)
(1.30742e-17 2.06234 1.46473)
(4.0658e-16 1.44627 0.936475)
(2.18161e-16 1.38468 0.882616)
(-1.3683e-16 1.46912 1.1484)
(9.68544e-17 0.742411 0.474981)
(1.22554e-16 0.673647 0.450974)
(7.24898e-17 0.738226 0.495035)
(1.41844e-15 1.28157 -0.720732)
(1.55891e-16 -0.376189 -0.0154425)
(-2.68185e-16 0.0898074 0.252121)
(-1.23053e-15 0.120222 1.30838)
(-9.58645e-16 -1.27226 3.15756)
(-8.05267e-16 -1.24628 3.10076)
(-8.34693e-16 -1.22565 3.25958)
(-9.77742e-16 -2.64768 6.11136)
(-6.08326e-16 -3.0717 5.86034)
(-6.53927e-16 -3.31818 5.96071)
(-7.21926e-16 -3.46287 6.13405)
(-7.38732e-16 -6.08578 9.68279)
(-2.00073e-16 -5.50312 7.90229)
(-3.53986e-16 -5.7761 8.3689)
(-2.57078e-16 -9.12902 12.3489)
(-1.10295e-16 -8.13881 9.5471)
(-1.62044e-16 -8.52159 10.2475)
(-4.13851e-16 -9.31978 11.8915)
(-3.16947e-16 -9.21155 11.826)
(-2.88961e-16 -9.37441 12.1091)
(6.46023e-16 -11.5805 15.0092)
(1.65355e-16 -10.1098 13.2318)
(2.14492e-16 -10.4781 13.9678)
(2.1145e-16 -10.4658 14.1224)
(2.83612e-16 -10.5397 14.2489)
(3.31531e-16 -10.635 14.4053)
(3.84947e-16 -10.7139 14.5853)
(5.13722e-16 -10.8092 14.9067)
(6.9028e-16 -10.9429 15.2953)
(1.51029e-15 -11.7393 16.7512)
(1.07158e-15 -11.3114 15.7772)
(1.16875e-15 -11.4513 16.016)
(1.23569e-15 -11.4346 16.154)
(1.37112e-15 -11.5979 16.5451)
(1.38916e-15 -11.5703 16.5884)
(1.44612e-15 -11.6503 16.7449)
(1.51056e-15 -11.7067 16.8802)
(1.59252e-15 -11.7761 17.0392)
(2.72691e-15 -12.2293 18.1816)
(2.1404e-15 -11.8551 17.4704)
(2.23134e-15 -11.9629 17.6603)
(2.27475e-15 -11.9926 17.7568)
(2.33845e-15 -12.0334 17.8986)
(2.41636e-15 -12.0749 18.1078)
(2.52134e-15 -12.147 18.3408)
(2.60869e-15 -12.1483 18.4211)
(2.69446e-15 -12.2195 18.5521)
(2.81015e-15 -12.2803 18.6641)
(3.7176e-15 -12.0695 18.9917)
(3.18295e-15 -11.9777 18.6991)
(3.31404e-15 -12.0201 18.8183)
(3.38058e-15 -12.0495 18.8885)
(3.47408e-15 -12.0849 18.9806)
(3.55883e-15 -12.0738 19.0935)
(3.66078e-15 -12.1304 19.3449)
(3.76413e-15 -12.1614 19.4327)
(3.89471e-15 -12.2121 19.4341)
(4.7052e-15 -11.1913 18.5135)
(4.19929e-15 -11.4289 18.7415)
(4.39076e-15 -11.3996 18.8745)
(4.55011e-15 -11.4354 19.0197)
(4.69871e-15 -11.3806 18.9499)
(4.84164e-15 -11.3778 18.9375)
(5.02043e-15 -11.3539 18.9071)
(5.22481e-15 -11.3441 18.9058)
(5.49959e-15 -11.4387 19.0864)
(6.13579e-15 -9.24894 16.4016)
(5.79012e-15 -10.1421 17.698)
(6.00478e-15 -9.98591 17.4381)
(6.17823e-15 -9.948 17.3424)
(6.62273e-15 -9.91179 17.3727)
(6.78612e-15 -9.80585 17.1511)
(6.85544e-15 -9.7075 16.8191)
(6.94475e-15 -9.67237 16.4606)
(7.02387e-15 -9.56012 16.0034)
(7.48123e-15 -6.77294 11.976)
(7.62538e-15 -7.95134 14.512)
(7.48838e-15 -7.61669 13.7274)
(7.40192e-15 -7.55526 13.2639)
(7.29742e-15 -7.40871 12.6344)
(7.26463e-15 -7.32761 11.9508)
(7.77472e-15 -7.05016 11.1089)
(7.23852e-15 -6.99981 10.4507)
(6.90494e-15 -6.81555 9.64224)
(6.44562e-15 -6.50226 8.75008)
(3.62366e-15 -3.6965 2.90477)
(5.69157e-15 -4.88 6.84331)
(4.97594e-15 -4.3683 5.39805)
(4.55936e-15 -4.35269 4.88599)
(4.04201e-15 -4.09711 4.06124)
(3.40641e-15 -4.03151 3.13798)
(2.26374e-15 -3.85213 1.68819)
(1.15092e-15 -3.4388 0.295915)
(1.26384e-15 -3.40799 0.199354)
(4.3824e-16 -2.48603 -2.13793)
(9.01103e-16 -2.75099 0.180466)
(6.69134e-16 -2.52097 -0.594328)
(-3.16979e-16 -2.01297 -2.53184)
(1.62824e-16 -2.4538 -2.09917)
(-5.44558e-18 -1.8349 -1.7976)
(-1.08852e-16 -1.37784 -1.24661)
(-1.92623e-16 -1.60029 -1.65557)
(-2.97016e-16 -0.89998 -1.05934)
(-3.05253e-16 -1.04768 -1.39721)
(2.928e-16 -0.796002 -1.03292)
(3.77207e-16 -0.468865 -0.771353)
(3.7529e-16 -0.528697 -0.866246)
(3.17875e-16 -0.327588 -0.675511)
(2.12844e-16 -0.341569 -0.612423)
(3.15152e-16 -0.24885 -0.565171)
(1.53121e-16 -0.0388973 -0.574327)
(-2.06436e-16 -0.0330649 -0.539513)
(-9.17172e-17 0.132505 -0.53612)
(-8.65682e-17 0.135664 -0.416364)
(-3.33019e-16 0.247639 -0.448933)
(-2.89437e-16 0.327181 -0.366861)
(-2.6052e-16 0.390376 -0.394187)
(-2.13039e-16 0.540683 -0.399929)
(-9.47873e-17 0.446814 -0.282147)
(5.8335e-18 0.638075 -0.312709)
(7.82928e-16 0.840757 -0.323483)
(-4.71949e-16 0.617319 -0.246085)
(-1.79745e-16 0.949515 -0.261012)
(-3.74002e-17 0.806775 -0.233197)
(-4.77468e-16 0.963916 -0.250516)
(-6.29151e-16 1.14215 -0.252593)
(-3.13863e-16 0.817319 -0.210595)
(-2.7253e-16 1.32694 -0.210451)
(-2.75622e-16 1.04148 -0.197347)
(-1.02466e-16 1.2321 -0.207981)
(8.174e-16 1.3934 -0.205755)
(-2.45689e-16 1.005 -0.171422)
(-1.9338e-16 1.40501 -0.182837)
(3.36991e-16 1.63959 -0.166744)
(-4.93742e-16 1.09848 -0.16208)
(-3.84359e-16 1.69851 -0.150985)
(-3.2027e-16 1.29543 -0.155235)
(-1.30673e-16 1.53565 -0.170067)
(4.09924e-16 1.72253 -0.154046)
(-3.59597e-16 1.18596 -0.140443)
(-3.99457e-16 1.88687 -0.143522)
(-3.96143e-16 1.44207 -0.135244)
(-1.54522e-16 1.66466 -0.165361)
(-2.07052e-16 1.83905 -0.149349)
(-2.8517e-16 1.32212 -0.114263)
(-2.93889e-16 1.79118 -0.142855)
(-1.66405e-16 2.06166 -0.112781)
(-1.90449e-16 1.38898 -0.103669)
(-3.11411e-16 2.08359 -0.100971)
(-3.87281e-17 1.60136 -0.100133)
(-1.69937e-17 1.86345 -0.122488)
(-4.17364e-16 2.09348 -0.0925363)
(-3.41481e-16 1.44422 -0.0776651)
(-2.90577e-16 2.24852 -0.0819637)
(-1.32248e-16 1.71936 -0.0713271)
(-9.93369e-17 1.96882 -0.0996606)
(-8.43878e-17 2.18881 -0.0760745)
(-6.75745e-17 1.57419 -0.045527)
(-4.55121e-17 2.09995 -0.065401)
(-3.29527e-16 2.41778 -0.0408157)
(1.60921e-17 1.63994 -0.0291305)
(5.72953e-17 2.42941 -0.0299329)
(5.72058e-17 1.86868 -0.0305711)
(1.44546e-16 2.15829 -0.0450286)
(-1.3189e-18 2.44271 -0.0317407)
(-1.56563e-17 1.70134 -0.0163082)
(8.12272e-17 2.60022 -0.0288492)
(5.14638e-17 1.99061 -0.0213788)
(1.03498e-16 2.2738 -0.0464038)
(1.59449e-17 2.54228 -0.0536237)
(2.46972e-17 1.85345 -0.0217141)
(1.33492e-16 2.41795 -0.0406608)
(1.27454e-16 2.78788 -0.0629747)
(7.57022e-17 1.92827 -0.0314854)
(1.26992e-16 2.82426 -0.0745782)
(8.40455e-17 2.17213 -0.0563795)
(1.20957e-16 2.56431 -0.120497)
(-9.10504e-16 -0.621114 0.392721)
(-9.09469e-16 -0.730764 0.414148)
(-9.08505e-16 -0.820587 0.397652)
(-9.07268e-16 -0.925276 0.367764)
(-9.05883e-16 -1.05891 0.320778)
(-9.04444e-16 -1.21119 0.263338)
(-9.03108e-16 -1.38828 0.202054)
(-9.02014e-16 -1.57114 0.14616)
(-9.01176e-16 -1.63791 0.109204)
(-9.00235e-16 -0.846419 0.0216783)
(-8.99381e-16 -0.619525 -0.158089)
(-8.99267e-16 -0.21327 -0.233011)
(-8.99226e-16 0.145629 -0.476089)
(-8.98826e-16 0.669156 -0.687781)
(-8.98527e-16 0.660283 -0.710066)
(-8.98522e-16 0.412595 -0.733259)
(-8.98672e-16 0.119732 -0.761526)
(-8.9885e-16 -0.185592 -0.782283)
(-8.98803e-16 -0.471481 -0.792106)
(-8.98315e-16 -0.852701 -0.93192)
(-8.99074e-16 -0.338119 -0.789785)
(-9.02048e-16 -0.404332 -0.701173)
(-9.02103e-16 -0.484798 -0.644783)
(-8.97644e-16 -0.616331 -0.652461)
(-8.96412e-16 -1.03818 -0.574671)
(-8.90022e-16 -0.72836 -0.835008)
(-8.82028e-16 -0.548625 -0.948872)
(-8.74985e-16 -0.384124 -1.01545)
(-8.69775e-16 -0.230815 -1.00688)
(-8.685e-16 -0.0687769 -0.912556)
(-8.75201e-16 0.669758 -0.343776)
(-7.83823e-16 -3.43791 0.0551278)
(-7.7257e-16 -5.52541 -0.164031)
(-7.65419e-16 -4.37283 -0.141257)
(-7.60397e-16 -3.54313 -0.234309)
(-7.57381e-16 -2.66528 -0.28144)
(-7.55749e-16 -1.96464 -0.318659)
(-7.54918e-16 -1.42583 -0.344227)
(-7.54541e-16 -1.00301 -0.334925)
(-7.54409e-16 -0.680543 -0.30363)
(-7.54395e-16 -0.602747 -0.268958)
(-7.54419e-16 -0.699639 -0.176939)
(-7.54396e-16 -1.47172 0.133504)
(-7.54519e-16 -0.777946 -0.462155)
(-7.54516e-16 -1.60624 0.0439286)
(-7.54653e-16 -0.884427 -0.608509)
(-7.54818e-16 -0.465519 -0.871908)
(-7.54851e-16 -0.745538 -0.729961)
(-7.54919e-16 -0.362794 -0.957626)
(-7.55017e-16 0.0554667 -1.10929)
(-7.55038e-16 0.554749 -1.20563)
(-7.5509e-16 1.08603 -1.15349)
(-7.55132e-16 1.58118 -0.725643)
(-7.52272e-16 1.92754 0.0234581)
(-7.32299e-16 0.684593 1.10383)
(-6.87566e-16 -0.621584 0.715755)
(-3.90261e-16 -4.88832 -0.35302)
(5.01251e-16 -1.82584 -0.269679)
(8.62579e-16 -0.0420534 0.704995)
(8.08435e-16 -1.25089 0.591988)
(7.71074e-16 -1.54991 0.793382)
(7.48715e-16 -1.03281 0.529247)
(6.97124e-16 -1.39159 0.865163)
(6.78456e-16 -0.355859 0.61608)
(6.14342e-16 -0.0709125 0.906321)
(4.87762e-16 0.980536 0.975259)
(4.63654e-16 0.93357 1.22929)
(4.06459e-16 0.976743 1.23614)
(3.73506e-16 0.889039 1.24007)
(4.62959e-16 0.517767 1.07171)
(6.79246e-16 -0.0999575 0.71055)
(7.1216e-16 -0.184886 0.683487)
(6.102e-16 -0.635499 0.600322)
(2.74154e-16 -0.841584 0.469585)
(1.01946e-16 0.216218 0.245055)
(1.36939e-16 0.817646 -0.185749)
(1.49184e-16 1.4386 -0.498714)
(1.30548e-16 1.86064 -0.37003)
(1.67174e-16 2.15774 -0.467595)
(-9.10447e-16 -0.619071 0.406619)
(-9.09391e-16 -0.706517 0.422392)
(-9.08422e-16 -0.777525 0.400157)
(-9.07189e-16 -0.869264 0.366824)
(-9.05817e-16 -0.994481 0.316996)
(-9.04398e-16 -1.14281 0.257182)
(-9.03081e-16 -1.32098 0.192697)
(-9.02002e-16 -1.50945 0.135706)
(-9.01169e-16 -1.56909 0.0934799)
(-9.00243e-16 -0.767699 -0.0218527)
(-8.99414e-16 -0.565245 -0.201205)
(-8.99287e-16 -0.323564 -0.172329)
(-8.99228e-16 0.216188 -0.567772)
(-8.98762e-16 0.679986 -0.753329)
(-8.9844e-16 0.67004 -0.796726)
(-8.98443e-16 0.436571 -0.813937)
(-8.98622e-16 0.144895 -0.831353)
(-8.98815e-16 -0.164443 -0.839424)
(-8.98714e-16 -0.446764 -0.845775)
(-8.98192e-16 -0.763378 -0.966431)
(-8.98513e-16 -0.64997 -0.977498)
(-9.01321e-16 -0.608494 -0.806693)
(-9.02755e-16 -0.709891 -0.649309)
(-9.01511e-16 -0.992932 -0.436483)
(-8.97704e-16 -0.96857 -0.609549)
(-8.89734e-16 -0.705545 -0.865641)
(-8.81047e-16 -0.538708 -0.975354)
(-8.73857e-16 -0.393787 -1.02501)
(-8.68719e-16 -0.264401 -0.991684)
(-8.67606e-16 -0.120341 -0.908039)
(-8.74341e-16 0.459585 -0.337414)
(-7.84261e-16 -3.38512 0.0571154)
(-7.72548e-16 -5.52627 -0.17318)
(-7.65454e-16 -4.39779 -0.143784)
(-7.60434e-16 -3.57066 -0.22545)
(-7.57412e-16 -2.7021 -0.263477)
(-7.55772e-16 -2.00405 -0.292601)
(-7.54933e-16 -1.46085 -0.311954)
(-7.54548e-16 -1.02758 -0.301977)
(-7.54411e-16 -0.679589 -0.267414)
(-7.54394e-16 -0.559149 -0.251543)
(-7.54418e-16 -0.654137 -0.257337)
(-7.54396e-16 -1.38523 0.0404329)
(-7.54514e-16 -0.817358 -0.482605)
(-7.54513e-16 -1.51863 -0.0350054)
(-7.54627e-16 -0.799789 -0.608313)
(-7.54758e-16 -0.558847 -0.59354)
(-7.54829e-16 -0.729465 -0.68568)
(-7.54934e-16 -0.387557 -0.905445)
(-7.55056e-16 0.0398383 -1.0731)
(-7.55079e-16 0.530291 -1.16282)
(-7.55093e-16 1.00481 -1.10486)
(-7.5526e-16 1.42014 -0.633219)
(-7.52136e-16 1.68573 0.0199051)
(-7.21429e-16 0.668802 1.01101)
(-6.77406e-16 -0.953123 0.481012)
(-3.857e-16 -4.84624 -0.204761)
(5.04077e-16 -1.64774 -0.136516)
(8.56996e-16 0.718172 0.439376)
(8.0494e-16 -1.07743 0.653922)
(7.69561e-16 -1.33567 0.774337)
(7.43648e-16 -0.920241 0.549511)
(6.94671e-16 -1.18964 0.832772)
(6.62029e-16 -0.0753766 0.557777)
(5.84709e-16 0.36093 0.778096)
(4.84095e-16 0.886751 0.976403)
(4.68652e-16 0.903102 1.22115)
(4.12882e-16 0.96762 1.24866)
(3.58455e-16 0.902116 1.27922)
(4.09126e-16 0.570289 1.14134)
(6.1701e-16 -0.022121 0.795603)
(7.08186e-16 -0.310257 0.676125)
(5.6451e-16 -0.606543 0.658326)
(2.54238e-16 -0.662955 0.425587)
(9.9835e-17 0.650584 0.0822842)
(1.36527e-16 0.967834 -0.28199)
(1.52396e-16 1.47911 -0.532858)
(1.34901e-16 1.84394 -0.346504)
(1.70087e-16 2.12248 -0.409476)
(-9.10372e-16 -0.624144 0.422659)
(-9.0929e-16 -0.713859 0.436026)
(-9.08316e-16 -0.783432 0.410081)
(-9.07089e-16 -0.874667 0.373997)
(-9.05735e-16 -0.997699 0.32202)
(-9.04341e-16 -1.14425 0.260846)
(-9.03048e-16 -1.32156 0.195147)
(-9.01986e-16 -1.51069 0.138008)
(-9.01162e-16 -1.56046 0.0870168)
(-9.00258e-16 -0.73787 -0.0483896)
(-8.9946e-16 -0.502071 -0.218591)
(-8.99352e-16 -0.326088 -0.303087)
(-8.9922e-16 0.29411 -0.636915)
(-8.98686e-16 0.706004 -0.807838)
(-8.98332e-16 0.665574 -0.850313)
(-8.98337e-16 0.423454 -0.857324)
(-8.98544e-16 0.132535 -0.869144)
(-8.98753e-16 -0.180177 -0.878575)
(-8.98605e-16 -0.462324 -0.892596)
(-8.98047e-16 -0.773297 -0.99101)
(-8.98288e-16 -0.544429 -0.998039)
(-9.00995e-16 -0.551111 -0.839425)
(-9.03175e-16 -0.658666 -0.676128)
(-9.033e-16 -0.869838 -0.45946)
(-8.98354e-16 -0.921709 -0.6617)
(-8.89695e-16 -0.684786 -0.889206)
(-8.80824e-16 -0.525158 -0.989183)
(-8.73672e-16 -0.388779 -1.02452)
(-8.68582e-16 -0.266753 -0.970556)
(-8.67324e-16 -0.127349 -0.900291)
(-8.73815e-16 0.264313 -0.380806)
(-7.8473e-16 -3.37578 0.037403)
(-7.72522e-16 -5.5053 -0.187543)
(-7.65496e-16 -4.38776 -0.148423)
(-7.60481e-16 -3.5518 -0.223783)
(-7.57452e-16 -2.6888 -0.256249)
(-7.55801e-16 -1.9981 -0.28078)
(-7.54952e-16 -1.4682 -0.295686)
(-7.54558e-16 -1.05633 -0.282238)
(-7.54414e-16 -0.733232 -0.24402)
(-7.54394e-16 -0.627794 -0.243729)
(-7.54417e-16 -0.738496 -0.258338)
(-7.54396e-16 -1.39544 0.0103359)
(-7.545e-16 -0.864131 -0.384929)
(-7.54507e-16 -1.48689 -0.0505911)
(-7.54612e-16 -0.844262 -0.543885)
(-7.54723e-16 -0.557936 -0.52288)
(-7.54811e-16 -0.69005 -0.627355)
(-7.54926e-16 -0.349245 -0.844896)
(-7.55062e-16 0.0786638 -1.03216)
(-7.55122e-16 0.53988 -1.12199)
(-7.55155e-16 0.957425 -1.07331)
(-7.55291e-16 1.31554 -0.631411)
(-7.5123e-16 1.56119 0.0264284)
(-7.21289e-16 0.722815 0.984031)
(-6.43573e-16 -0.769878 0.165781)
(-3.79066e-16 -4.72702 -0.165204)
(5.1468e-16 -1.74513 -0.0526552)
(8.55307e-16 0.126772 0.410399)
(8.0094e-16 -1.18006 0.654841)
(7.67566e-16 -1.39017 0.745145)
(7.38248e-16 -1.0277 0.571548)
(6.91006e-16 -1.23944 0.817484)
(6.42178e-16 -0.243478 0.587295)
(5.5619e-16 0.171397 0.788878)
(4.76282e-16 0.843764 0.991643)
(4.68831e-16 0.89023 1.21056)
(4.1682e-16 0.965126 1.24892)
(3.52443e-16 0.915713 1.29574)
(3.75443e-16 0.61004 1.1813)
(5.57696e-16 0.0452864 0.882741)
(6.78132e-16 -0.260446 0.709289)
(5.08916e-16 -0.549337 0.68855)
(2.3061e-16 -0.588104 0.421021)
(9.76262e-17 0.619021 -0.00688147)
(1.36505e-16 0.930314 -0.300966)
(1.52706e-16 1.45709 -0.472588)
(1.38308e-16 1.83255 -0.331682)
(1.72533e-16 2.10627 -0.392358)
(-9.10291e-16 -0.625327 0.438095)
(-9.09181e-16 -0.713466 0.449372)
(-9.08203e-16 -0.780566 0.420176)
(-9.06983e-16 -0.870762 0.38154)
(-9.05649e-16 -0.992113 0.327424)
(-9.0428e-16 -1.13781 0.264624)
(-9.03014e-16 -1.31576 0.19766)
(-9.0197e-16 -1.50764 0.140348)
(-9.01154e-16 -1.55031 0.0817743)
(-9.00276e-16 -0.717941 -0.0685744)
(-8.99514e-16 -0.480155 -0.231801)
(-8.99435e-16 -0.263643 -0.410457)
(-8.99197e-16 0.358252 -0.709554)
(-8.98585e-16 0.720169 -0.863923)
(-8.98195e-16 0.685272 -0.887764)
(-8.98208e-16 0.437399 -0.901961)
(-8.9845e-16 0.142064 -0.916002)
(-8.9867e-16 -0.167073 -0.923485)
(-8.98466e-16 -0.440614 -0.938024)
(-8.97874e-16 -0.724645 -1.01075)
(-8.98209e-16 -0.545539 -1.00761)
(-9.00973e-16 -0.571869 -0.862567)
(-9.03586e-16 -0.691991 -0.700547)
(-9.04003e-16 -0.868952 -0.508776)
(-8.98247e-16 -0.85585 -0.728843)
(-8.89238e-16 -0.653581 -0.925412)
(-8.80355e-16 -0.510729 -1.01055)
(-8.73372e-16 -0.391192 -1.0299)
(-8.68461e-16 -0.287251 -0.949818)
(-8.6715e-16 -0.157368 -0.880665)
(-8.73506e-16 0.086902 -0.406144)
(-7.85163e-16 -3.35935 0.0248858)
(-7.72497e-16 -5.48169 -0.195617)
(-7.6554e-16 -4.37528 -0.150664)
(-7.6053e-16 -3.53096 -0.22314)
(-7.57494e-16 -2.6713 -0.253105)
(-7.55832e-16 -1.98227 -0.275999)
(-7.54972e-16 -1.45395 -0.288663)
(-7.54568e-16 -1.04333 -0.273296)
(-7.54416e-16 -0.719549 -0.231106)
(-7.54393e-16 -0.615722 -0.227318)
(-7.54416e-16 -0.746721 -0.233959)
(-7.54396e-16 -1.38457 -0.00942582)
(-7.54488e-16 -0.876127 -0.336441)
(-7.54501e-16 -1.44434 -0.0518018)
(-7.546e-16 -0.841048 -0.487918)
(-7.54699e-16 -0.551882 -0.460323)
(-7.54808e-16 -0.642398 -0.582408)
(-7.54926e-16 -0.308423 -0.81041)
(-7.55062e-16 0.108739 -1.01323)
(-7.55146e-16 0.541112 -1.09088)
(-7.55211e-16 0.904486 -1.03186)
(-7.55338e-16 1.20364 -0.628314)
(-7.50032e-16 1.42456 0.0227183)
(-7.20746e-16 0.735278 0.934524)
(-6.34028e-16 -0.809474 0.191548)
(-3.72447e-16 -4.6728 -0.165827)
(5.26749e-16 -1.73407 0.00370467)
(8.54719e-16 -0.0570764 0.422426)
(7.97347e-16 -1.21358 0.639884)
(7.65453e-16 -1.38521 0.712834)
(7.33161e-16 -1.06716 0.585525)
(6.8639e-16 -1.23425 0.802813)
(6.2266e-16 -0.300425 0.620994)
(5.31741e-16 0.128958 0.817109)
(4.684e-16 0.784752 0.999234)
(4.68503e-16 0.870514 1.205)
(4.21666e-16 0.954801 1.24842)
(3.48056e-16 0.921653 1.31172)
(3.41975e-16 0.64458 1.21661)
(4.93165e-16 0.105716 0.953618)
(6.27198e-16 -0.25284 0.764113)
(4.53615e-16 -0.510297 0.69438)
(2.07618e-16 -0.51201 0.407072)
(9.55896e-17 0.589466 -0.0656299)
(1.36774e-16 1.00982 -0.313405)
(1.54676e-16 1.50373 -0.466583)
(1.42894e-16 1.82445 -0.31747)
(1.75916e-16 2.08154 -0.3801)
(-9.10204e-16 -0.625795 0.454759)
(-9.09066e-16 -0.709427 0.463446)
(-9.08086e-16 -0.771908 0.430951)
(-9.06874e-16 -0.859554 0.38977)
(-9.05561e-16 -0.978355 0.333441)
(-9.04219e-16 -1.12269 0.268879)
(-9.02979e-16 -1.301 0.200472)
(-9.01953e-16 -1.49451 0.142773)
(-9.01147e-16 -1.52875 0.0772232)
(-9.00297e-16 -0.681912 -0.0865811)
(-8.99574e-16 -0.440016 -0.244797)
(-8.99507e-16 -0.205838 -0.495329)
(-8.99151e-16 0.406987 -0.781556)
(-8.98456e-16 0.733374 -0.926542)
(-8.98029e-16 0.678149 -0.937022)
(-8.98053e-16 0.432658 -0.947828)
(-8.98333e-16 0.137188 -0.96349)
(-8.98557e-16 -0.175202 -0.96678)
(-8.98289e-16 -0.448547 -0.978314)
(-8.97688e-16 -0.7331 -1.03351)
(-8.98172e-16 -0.565739 -1.02272)
(-9.01095e-16 -0.601414 -0.885105)
(-9.03967e-16 -0.731001 -0.724453)
(-9.04227e-16 -0.872176 -0.56951)
(-8.9788e-16 -0.807173 -0.793648)
(-8.88764e-16 -0.629871 -0.96144)
(-8.8002e-16 -0.501899 -1.02825)
(-8.73262e-16 -0.39448 -1.03168)
(-8.68521e-16 -0.293055 -0.922525)
(-8.67054e-16 -0.174392 -0.838336)
(-8.73354e-16 -0.0217352 -0.398481)
(-7.85553e-16 -3.35469 0.0155445)
(-7.72476e-16 -5.46751 -0.200986)
(-7.65583e-16 -4.37257 -0.152158)
(-7.60581e-16 -3.52222 -0.223165)
(-7.57538e-16 -2.66758 -0.251569)
(-7.55865e-16 -1.98272 -0.273874)
(-7.54994e-16 -1.45868 -0.285098)
(-7.5458e-16 -1.05294 -0.268401)
(-7.54419e-16 -0.731986 -0.220324)
(-7.54392e-16 -0.62394 -0.211411)
(-7.54415e-16 -0.764817 -0.213584)
(-7.54395e-16 -1.3742 -0.0224907)
(-7.54476e-16 -0.903814 -0.296435)
(-7.54494e-16 -1.39061 -0.0556292)
(-7.54591e-16 -0.841163 -0.447608)
(-7.5469e-16 -0.54383 -0.414883)
(-7.54816e-16 -0.59926 -0.555626)
(-7.54932e-16 -0.265797 -0.802672)
(-7.55063e-16 0.135729 -1.01744)
(-7.55165e-16 0.535018 -1.08023)
(-7.55269e-16 0.847159 -0.999882)
(-7.55397e-16 1.08905 -0.632347)
(-7.48723e-16 1.30914 0.0342427)
(-7.18814e-16 0.735472 0.916323)
(-6.28131e-16 -0.821454 0.215938)
(-3.66656e-16 -4.62801 -0.180447)
(5.37407e-16 -1.71828 0.0362884)
(8.54381e-16 -0.164272 0.438918)
(7.9417e-16 -1.22029 0.617439)
(7.63204e-16 -1.36336 0.683524)
(7.28295e-16 -1.08947 0.597299)
(6.80956e-16 -1.21083 0.787248)
(6.0493e-16 -0.318816 0.643815)
(5.10659e-16 0.121402 0.82967)
(4.5947e-16 0.734446 1.00483)
(4.66384e-16 0.852309 1.19881)
(4.27037e-16 0.943099 1.24334)
(3.48702e-16 0.92579 1.32226)
(3.15387e-16 0.674431 1.2438)
(4.3096e-16 0.160136 1.00237)
(5.66986e-16 -0.249019 0.805048)
(4.0327e-16 -0.460451 0.685907)
(1.86931e-16 -0.414476 0.383719)
(9.30873e-17 0.643135 -0.135724)
(1.36466e-16 1.05688 -0.353258)
(1.57988e-16 1.48938 -0.47479)
(1.4799e-16 1.81324 -0.304909)
(1.79518e-16 2.05547 -0.348203)
(-9.10112e-16 -0.626825 0.473057)
(-9.08947e-16 -0.70599 0.478745)
(-9.07965e-16 -0.763909 0.44289)
(-9.06764e-16 -0.849145 0.399045)
(-9.05472e-16 -0.965486 0.340319)
(-9.04158e-16 -1.10852 0.27378)
(-9.02943e-16 -1.2871 0.203737)
(-9.01936e-16 -1.48125 0.145421)
(-9.0114e-16 -1.50591 0.0733047)
(-9.00319e-16 -0.642113 -0.103543)
(-8.99638e-16 -0.394395 -0.260306)
(-8.99561e-16 -0.137215 -0.563686)
(-8.99072e-16 0.451638 -0.850333)
(-8.98291e-16 0.745541 -0.986907)
(-8.9783e-16 0.685295 -0.995093)
(-8.97868e-16 0.440409 -0.99927)
(-8.9819e-16 0.143013 -1.00998)
(-8.98407e-16 -0.167621 -1.00694)
(-8.98065e-16 -0.43332 -1.01328)
(-8.97462e-16 -0.704589 -1.05196)
(-8.98213e-16 -0.565848 -1.03296)
(-9.01376e-16 -0.621476 -0.902623)
(-9.04336e-16 -0.758439 -0.751247)
(-9.03979e-16 -0.851577 -0.66114)
(-8.97303e-16 -0.760132 -0.861162)
(-8.88254e-16 -0.606838 -1.0003)
(-8.79724e-16 -0.496026 -1.04743)
(-8.73226e-16 -0.403678 -1.03536)
(-8.68426e-16 -0.326531 -0.917372)
(-8.67182e-16 -0.182785 -0.768714)
(-8.73287e-16 -0.151067 -0.40133)
(-7.85918e-16 -3.35444 0.0079549)
(-7.72459e-16 -5.45698 -0.204319)
(-7.65625e-16 -4.37201 -0.152789)
(-7.60632e-16 -3.51548 -0.223553)
(-7.57583e-16 -2.66494 -0.251048)
(-7.55899e-16 -1.98377 -0.273607)
(-7.55018e-16 -1.46412 -0.284099)
(-7.54593e-16 -1.06432 -0.26683)
(-7.54422e-16 -0.747866 -0.213814)
(-7.5439e-16 -0.634642 -0.198999)