/*--------------------------------*- C++ -*----------------------------------*\
| =========                 |                                                 |
| \\      /  F ield         | OpenFOAM: The Open Source CFD Toolbox           |
|  \\    /   O peration     | Version:  4.1                                   |
|   \\  /    A nd           | Web:      www.OpenFOAM.org                      |
|    \\/     M anipulation  |                                                 |
\*---------------------------------------------------------------------------*/
FoamFile
{
    version     2.0;
    format      ascii;
    class       surfaceScalarField;
    location    "11";
    object      phi;
}
// * * * * * * * * * * * * * * * * * * * * * * * * * * * * * * * * * * * * * //

dimensions      [0 3 -1 0 0 0 0];

internalField   nonuniform List<scalar> 
13220
(
-949.882
2249.78
-1573.96
1924.28
-2054.01
1779.95
-2424.24
1670.13
-2699.87
1575.83
-2888.39
1488.42
-2993.07
1404.58
-3013.87
1321
-2949.63
1235.66
-2797.25
1147.52
-2551.19
1054.13
-2193.02
941.734
-1687.19
794.063
-1012.69
625.701
287.213
373.343
1876.45
442.742
1854.86
437.315
1785.39
406.695
1700.73
380.6
1601.94
359.903
1509.09
345.317
1419.18
337.545
1328.75
333.507
1239.7
326.968
1154.04
309.632
1071.47
267.48
983.872
191.436
870.097
111.449
705.678
398.661
33.6023
1842.86
-97.3764
1985.82
-253.577
1941.61
-371.096
1818.23
-473.134
1704
-567.496
1603.44
-651.696
1503.39
-725.755
1402.79
-788.021
1301.98
-837.264
1203.27
-868.179
1102.38
-856.051
971.726
-740.313
754.336
-434.285
399.623
-35.6238
28.8366
1814.04
-100.62
2115.26
-225.48
2066.51
-304.44
1897.16
-368.052
1767.65
-416.878
1652.23
-446.107
1532.66
-456.925
1413.58
-451.736
1296.81
-430.056
1181.57
-387.115
1059.46
-311.786
896.377
-192.807
635.343
-48.3901
255.191
-84.0144
169.826
1644.24
146.347
2138.7
123.979
2088.93
123.078
1898.01
127.235
1763.56
136.063
1643.34
149.43
1519.35
166.883
1396.08
187.278
1276.45
208.438
1160.38
229.432
1038.46
244.07
881.705
233.154
646.208
155.266
333.03
71.2518
223.679
1420.6
244.884
2117.42
235.524
2098.38
236.705
1896.75
241.184
1759.19
245.044
1639.4
247.395
1517.11
246.002
1397.38
241.966
1280.56
234.717
1167.59
222.101
1051.12
199.741
904.054
156.58
689.388
78.5109
411.117
149.762
204.934
1215.74
240.602
2081.67
215.896
2123.19
193.478
1919.09
179.39
1773.37
165.907
1652.81
152.227
1530.86
138.006
1411.56
123.148
1295.45
108.885
1181.83
94.6558
1065.35
77.328
921.35
53.1271
713.559
19.5333
444.685
169.296
175.499
1040.36
227.56
2029.47
205.233
2145.73
175.621
1948.55
157.358
1791.84
142.761
1667.26
127.899
1545.88
113.383
1425.94
100.27
1308.67
87.4624
1194.58
75.5383
1077.35
62.0991
934.807
42.8575
732.863
17.0163
470.582
186.312
153.418
887.075
222.511
1960.22
209.917
2158.47
181.841
1976.48
163.953
1809.91
150.751
1680.32
138.104
1558.65
124.355
1439.6
111.344
1321.79
98.7092
1207.17
85.4283
1090.67
70.2147
950.002
49.4676
753.592
21.8032
498.233
208.116
130.898
756.377
209.909
1880.89
206.788
2161.99
178.522
2004.42
160.032
1828.78
145.422
1694.6
132.107
1572.31
118.252
1453.15
104.373
1335.89
90.6443
1220.74
77.4267
1104.04
61.8802
965.454
42.038
773.459
17.5701
522.725
225.687
108.164
648.56
191.134
1797.37
198.168
2155.41
172.182
2029.91
154.063
1847.36
141.173
1707.04
128.427
1585.38
114.781
1466.47
101.588
1349.21
87.3809
1234.8
73.3115
1118.01
58.3968
980.518
39.3415
792.63
16.7904
545.379
242.472
95.5196
553.666
178.997
1712.94
194.593
2140.84
167.81
2055.85
143.073
1872.98
124.951
1724.34
111.78
1599.15
97.6471
1479.89
85.7974
1361.41
74.2271
1245.92
63.1058
1129.34
49.8902
993.098
32.1482
809.811
10.8553
566.129
253.317
91.7353
463.694
221.434
1583.21
265.533
2097.95
260.423
2060.95
258.087
1875.98
257.905
1724.59
252.189
1604.93
240.555
1491.9
222.12
1379.31
200.664
1267.34
174.862
1153.93
144.52
1023.24
105.594
847.613
55.2343
615.296
308.481
137.129
328.795
242.918
1475.52
276.572
2065.76
217.194
2118.47
142.051
1951.81
86.1196
1778.11
59.5029
1631.25
47.2035
1500.9
47.0499
1377.91
50.1426
1261.15
55.4718
1146.37
53.9183
1020.26
34.8635
858.837
8.58976
633.989
316.828
-198.417
254.949
843.409
1281.09
1484.97
1569.17
1527.71
1446.39
1300.35
1143
960.205
757.66
534.837
269.017
0.427716
946.813
-945.378
947.499
948.628
948.585
1803.37
-854.584
1803.17
1802.92
1802.79
2484.3
-681.617
2484.22
2483.98
3005.19
-521.212
3004.81
3004.8
3004.44
3360.76
-356.267
3360.47
3360.63
3577.35
-216.968
3577.5
3577.32
3577.47
3634.76
-57.5183
3634.83
3634.56
3634.67
3566.46
68.1559
3566.55
3566.39
3406.67
159.833
3406.24
3406.47
3405.98
3159.35
246.96
3159.03
3159.51
2859.1
300.159
2859.62
2859.62
2860.07
2513.52
346.523
2514.11
2514
2514.6
2156.65
357.633
2157.2
2156.71
1866.69
290.816
1866.25
1866.99
1866.52
1559.58
307.793
1559.27
1560.21
1559.68
1142.41
418.154
1142.43
1143.48
604.075
539.349
605.392
605.779
606.855
19.9934
587.174
23.0339
22.6655
-932.517
956.804
-933.15
-932.193
-933.162
-2473.44
1541.21
-2474.58
-2473.85
-2475.89
-4419.55
1945.26
-4421.9
-4418.6
-6645.73
2225.26
-6642.12
-6644.05
-6537.88
-6425.88
-6304.52
-8610.09
2420.74
-8495.49
-8352.31
-8181.89
-8009.39
-7835.35
-7667.01
-7490.9
-7293.91
-9657.31
2559.94
-9446.31
-9239.93
-9035.71
-8808.5
-8578.49
-8346.68
-8114.27
-7884.19
-10244.5
2594.99
-9993.8
-9742.2
-9490.62
-9239.91
-8984.08
-8716.15
-8446.1
-8173.52
-7904.27
-10147
2501.2
-9864.03
-9578.43
-9292.51
-9007.19
-8724.69
-8426.99
-8121.05
-7817.8
-9748.6
2218.93
-9454.44
-9154.81
-8841.63
-8528.78
-8214.44
-7901.55
-7588.32
-7261.24
-8705.51
1759.31
-8387.94
-8071.54
-7757.12
-7429.41
-7096.52
-6764.49
-6434.64
-6114.81
-6859.78
1061.32
-6539.21
-6221.58
-5906.36
-5594.82
-5287.34
-4997.56
-4712.17
-4436.57
-4172.59
-3867.67
-38.4403
-3645.47
-3447.15
-3254.69
-3066.52
-2874.37
-2714.21
-2619.52
-2532.63
-1906.79
-525.097
-1821.79
-1730.63
-1730.98
-1366.37
-363.698
-1043.68
-324.229
-1043.6
-764.82
-280.135
-763.814
-523.294
-241.538
-311.953
-210.206
-314.258
-102.452
-213.026
92.0081
-197.415
91.218
253.589
-164.639
254.262
388.221
-136.232
522.031
-132.422
520.324
641.178
-120.742
639.004
745.677
-108.008
849.883
-106.027
849.719
949.505
-101.453
1051.11
-100.295
1049.78
1150.5
-99.392
1148.85
1242.1
-93.2182
1329.95
-89.9654
1329.76
1422.65
-94.9716
1423.16
1512.42
-91.3946
1601.12
-87.4897
1599
1693.73
-94.8784
1782.9
-91.5589
1781.94
1876.79
-96.925
1876.24
1969.07
-94.8556
2057.98
-88.7376
2056.83
2157.85
-101.022
2156.65
2255.73
-99.9454
2347.6
-92.9955
2347.12
2453.72
-107.745
2555.67
-101.734
2555.04
2667.08
-111.593
2666.49
2778.64
-112.579
2881.47
-103.441
2880.55
3002.29
-122.141
3001.87
3124.82
-123.207
3238.38
-113.334
3238.44
3373.81
-135.354
3501.42
-127.594
3501
3644.58
-143.599
3644.54
3792.98
-148.46
3931.62
-138.131
3931.66
4097.73
-165.93
4097.67
4268.67
-171.504
4430.9
-162.227
4430.66
4625.22
-194.55
4816.21
-190.86
4816.31
5035.93
-219.518
5035.96
-243.3
-146.43
90.4747
-144.146
134.783
-142.034
130.448
-140.869
108.994
-138.117
102.596
-136.274
107.775
-133.056
101.741
-129.203
95.4213
-127.321
63.9609
-127.123
30.3706
-123.846
40.3406
-120.846
46.9855
-117.104
-4.39885
-114.974
-56.0728
-112.938
-49.7352
-112.631
-50.9984
-110.781
-43.6811
-111.889
-21.5456
-111.983
10.6828
-111.959
27.3669
-110.914
48.6663
-109.613
66.7131
-111.511
60.4168
-112.5
71.4098
-114.241
90.9128
-116.57
115.946
-119.51
143.844
-123.053
184.491
-127.607
237.885
-133.051
311.013
-138.939
405.523
-144.602
527.846
-149.642
680.972
-153.765
867.053
-157.51
1090.8
-163.673
1365.39
-173.832
1721.31
-187.481
2166.41
-203.138
2681.81
-216.841
3201.84
-220.393
3553.54
-191.551
3417.38
-104.165
2551.52
-90.3617
1527.79
-91.8202
1704.43
-54.4241
1363.29
-82.1763
1447.79
55.7673
1203.73
173.194
-56.4808
237.195
-822.907
253.348
-1278.52
231.035
-1544.66
130.668
-1796.32
13.3578
-1925.81
37.4263
5365.61
40.3267
8158.22
55.8825
4344.67
82.126
1893.66
177.31
423.435
283.732
-1451.66
388.782
-2230.12
509.556
-2433.36
594.493
-3092.89
560.574
-3548.34
441.436
-3122.81
381.607
-2139.94
536.605
3178.66
572.985
5208.13
598.267
5526.83
617.123
5265.26
630.278
4665.97
637.451
3851.64
638.086
2888.53
633.115
1816.62
621.156
725.83
594.513
-407.872
512.932
-1764.05
388.362
-3114.1
-4227.5
-143.438
98.6921
-143.93
135.202
-141.284
127.897
-139.101
106.993
-138.488
102.107
-136.284
105.752
-133.716
99.3791
-129.326
91.2778
-126.144
61.0883
-126.255
30.7068
-123.596
37.9608
-114.449
38.1167
-109.73
-9.07887
-111.788
-54.142
-109.877
-51.5359
-110.618
-50.157
-111.827
-42.3149
-113.461
-19.8126
-113.397
10.7583
-113.797
27.9106
-112.551
47.5258
-110.305
64.5461
-112.966
62.8917
-115.08
73.4016
-116.795
92.3906
-118.521
117.601
-121.554
146.836
-125.1
188.265
-129.765
243.011
-135.072
317.107
-140.751
412.475
-146.373
535.014
-151.163
687.831
-155.187
873.284
-159.049
1097.1
-165.609
1374.45
-175.953
1734.1
-189.525
2182.37
-204.794
2699.44
-217.845
3217.29
-218.281
3556.87
-182.432
3384.71
-96.2387
2469.74
-72.4964
1510.08
-72.9295
1708.16
-85.0739
1379.77
-83.6874
1450.98
70.5528
1053.81
182.91
-166.616
241.247
-878.549
249.389
-1283.09
217.245
-1508.07
122.682
-1696.04
-4.14757
-1791.95
40.3078
5323.93
54.8816
8145.24
66.5441
4335.05
100.582
1862.59
208.764
317.942
323.997
-1566.32
434.863
-2339.4
553.795
-2551.37
629.586
-3168.67
596.705
-3515.32
439.055
-2964.93
253.899
-1954.85
521.286
2911.97
592.852
5136.81
610.906
5507.64
622.961
5252.21
630.965
4657.42
634.056
3847.94
630.302
2891.7
616.912
1829.31
596.74
745.435
564.554
-375.754
483.016
-1682.24
354.488
-2985.28
-4092.46
-141.196
105.465
-140.663
134.771
-137.771
125.077
-136.86
106.276
-137.168
102.602
-135.3
104.097
-132.772
97.0849
-128.396
87.1021
-125.286
58.1838
-125.544
31.3444
-122.429
35.1542
-113.475
29.3856
-109.295
-13.1106
-111.106
-52.1681
-110.311
-51.7129
-112.335
-48.057
-114.931
-39.8197
-116.509
-18.3325
-116.177
10.3337
-116.432
28.1677
-115.28
46.4082
-113.415
62.8284
-115.429
65.0337
-117.342
75.5102
-119.121
94.3501
-120.875
119.575
-123.893
150.003
-127.514
192.078
-132.151
247.804
-137.281
322.384
-142.659
418.099
-147.912
540.45
-152.258
692.546
-155.871
877.2
-159.571
1101.21
-166.103
1381.39
-176.298
1744.71
-189.599
2196.08
-204.555
2714.93
-216.984
3230.24
-214.714
3555.33
-173.206
3343.92
-87.7433
2385.86
-74.345
1499.03
-85.5109
1720.32
-94.0579
1389.51
-72.7644
1431.63
81.3092
893.98
191.289
-278.853
245.737
-936.089
249.911
-1291.1
212.614
-1476.16
123.462
-1612.85
2.20539
-1675.65
41.429
5284.45
60.4855
8126.33
70.7964
4325.76
108.762
1825.87
232.717
192.286
355.179
-1688.99
459.109
-2444.86
576.875
-2669.62
649.351
-3240.69
616.422
-3481.53
468.099
-2815.12
262.588
-1746.63
520.365
2655.44
607.356
5050.23
619.068
5494.98
624.563
5246.05
628.36
4653.36
628.331
3847.57
621.636
2898.13
604.397
1846.21
581.083
768.631
546.689
-341.808
467.8
-1603.64
348.221
-2866
-3935.17
-139.99
109.624
-138.902
133.896
-136.55
123.124
-136.235
106.52
-136.283
103.228
-134.037
102.504
-131.103
94.844
-126.873
83.5785
-124.355
56.4166
-124.506
32.1889
-121.059
32.4002
-112.945
21.9258
-109.545
-16.0537
-111.647
-49.8046
-112.145
-50.9081
-114.832
-45.1741
-117.906
-36.635
-119.714
-16.4412
-119.538
10.3118
-119.608
28.4407
-118.679
45.6332
-117.021
61.2953
-118.434
66.4046
-120.11
77.2797
-121.948
96.2176
-123.794
121.631
-126.799
153.256
-130.461
196.187
-134.967
252.894
-139.855
328.03
-144.881
424.217
-149.714
546.503
-153.558
698.035
-156.742
882.109
-160.271
1106.69
-166.726
1389.89
-176.702
1756.75
-189.693
2211.12
-204.272
2731.57
-215.903
3244.03
-210.812
3553.02
-165.543
3301.88
-86.7986
2311.92
-81.3605
1499.83
-91.5827
1734.4
-95.9781
1398.47
-62.6666
1404.65
94.1094
739.979
202.178
-384.743
252.09
-983.472
251.242
-1286.84
209.25
-1430.16
122.379
-1520.46
7.89593
-1553.34
42.4072
5252.35
63.423
8106.72
76.026
4315.28
118.642
1787.24
249.359
64.8708
376.825
-1815.58
485.048
-2551.57
603.971
-2787.57
672.569
-3309.14
635.314
-3443.9
490.154
-2669.31
296.359
-1552.21
519.225
2432.98
617.416
4951.87
625.398
5485.61
625.105
5245.16
625.144
4652.57
622.521
3849.38
613.805
2906.1
594.565
1864.65
568.353
794.171
529.775
-303.487
450.873
-1524.46
326.988
-2741.8
-3802.64
-140.005
111.537
-138.412
132.398
-136.315
121.07
-135.978
106.314
-135.435
102.797
-132.936
100.145
-129.917
91.9862
-126.139
79.9276
-124.08
54.4918
-123.827
32.2093
-120.03
28.8277
-113.062
15.131
-110.551
-18.4696
-113.15
-47.1182
-114.818
-48.6941
-117.848
-42.1753
-121.159
-33.4047
-123.208
-14.4998
-123.251
10.2575
-123.183
28.3533
-122.355
44.8295
-120.888
59.9967
-121.786
67.4379
-123.272
78.9918
-125.113
98.2702
-127.16
123.92
-130.134
156.374
-133.789
199.983
-138.114
257.26
-142.734
332.602
-147.371
428.803
-151.74
550.673
-155.056
701.254
-157.815
884.651
-161.172
1109.91
-167.487
1396.06
-177.165
1766.29
-189.736
2223.57
-203.746
2745.59
-214.251
3254.52
-206.362
3545.25
-158.538
3254.08
-85.5164
2239.62
-85.8476
1501.36
-93.5239
1742.47
-97.9443
1403.41
-52.9362
1360.64
107.445
575.027
213.67
-493.338
259.351
-1032.41
253.954
-1285.64
208.098
-1390.25
122.166
-1441.15
12.9688
-1450.38
43.1315
5221.12
65.2368
8084.35
81.2423
4300.06
132.674
1736.97
269.035
-73.0575
398.243
-1945.08
511.375
-2666.07
631.088
-2907.61
693.645
-3371.23
652.087
-3401.51
512.461
-2528.57
324.192
-1362.62
516.399
2242.35
623.668
4845.06
630.324
5478.1
624.919
5250.04
621.383
4655.95
616.373
3854.08
605.969
2916.33
585.222
1885.14
556.692
822.645
514.404
-261.745
436.03
-1446.4
322.221
-2628.31
-3642.78
-141.252
111.434
-139.083
130.414
-136.867
119.183
-136.113
106.025
-134.941
102.124
-132.289
98.0788
-129.332
89.6732
-125.943
77.2031
-124.039
53.3004
-123.335
32.1681
-119.516
25.6939
-113.895
10.1745
-112.493
-19.3713
-115.657
-43.6308
-118.253
-45.7517
-121.524
-38.7529
-124.911
-29.9441
-127.047
-12.3014
-127.202
10.5698
-127.03
28.4048
-126.214
44.1765
-124.936
58.8501
-125.53
68.0226
-126.944
80.5304
-128.771
100.141
-130.936
126.276
-133.884
159.514
-137.451
203.882
-141.55
261.765
-145.884
337.441
-150.099
433.787
-153.971
555.378
-156.754
705.257
-159.099
888.263
-162.276
1114.58
-168.386
1403.75
-177.684
1777.22
-189.724
2237.23
-203.01
2760.51
-212.142
3265.37
-201.462
3536.95
-151.684
3207.16
-82.233
2174.68
-86.2402
1510.96
-103.01
1763.08
-112.928
1417.43
-48.4251
1307.75
121.609
407.442
226.152
-595.542
267.688
-1071.35
257.851
-1272.4
208.571
-1337.3
122.854
-1350.33
17.079
-1336.24
43.3895
5196.56
65.8868
8062.97
86.4923
4281.83
146.04
1683.09
291.027
-213.832
423.224
-2075.88
538.698
-2779.96
657.561
-3025.39
712.96
-3426.4
666.741
-3355.04
534.281
-2395.89
347.612
-1176.93
512.699
2077.39
626.829
4730.72
633.855
5469.69
623.985
5258.7
616.986
4662.11
609.712
3860.44
597.755
2927.45
575.785
1906.26
545.412
852.35
499.954
-216.753
421.497
-1367.66
308.601
-2515.08
-3505.48
-143.496
109.818
-140.708
127.631
-138.178
116.59
-136.886
104.712
-135.174
100.339
-132.401
95.2568
-129.458
86.6923
-126.257
73.9351
-124.311
51.3027
-123.229
31.1425
-119.738
22.2405
-115.554
6.01375
-115.309
-19.6853
-118.954
-40.0557
-122.242
-42.0581
-125.755
-35.3748
-129.121
-26.6376
-131.247
-10.2874
-131.46
10.6746
-131.194
28.0844
-130.396
43.3836
-129.314
57.9395
-129.752
68.5659
-131.146
82.1221
-132.978
102.147
-135.145
128.636
-138.021
162.463
-141.415
207.324
-145.251
265.52
-149.251
341.238
-153.024
437.306
-156.363
558.269
-158.618
707.118
-160.567
889.655
-163.538
1117.04
-169.378
1409.03
-178.218
1785.52
-189.633
2248.11
-202.039
2772.52
-209.553
3272.43
-196.031
3523.03
-145.018
3155.54
-82.8222
2112.34
-95.1786
1523.49
-123.074
1790.67
-157.957
1451.78
-71.8835
1221.68
136.94
194.661
240.444
-701.7
277.556
-1111.94
263.379
-1262.72
210.848
-1291.05
124.24
-1270.76
20.6693
-1240.09
42.9393
5172.81
65.4408
8039.9
91.9147
4255.89
160.006
1615.69
313.694
-369.401
447.711
-2210.43
565.441
-2898.92
682.551
-3142.75
729.862
-3473.34
678.003
-3302.48
553.127
-2270.36
365.378
-988.773
508.267
1936.62
627.13
4612.54
635.824
5460.32
622.226
5271.96
611.941
4672.43
602.533
3869.69
589.149
2940.81
566.191
1929.09
534.316
884.247
486.354
-169.357
407.911
-1289.53
290.026
-2397.52
-3381.55
-146.583
107.108
-143.225
124.372
-140.304
113.854
-138.455
103.147
-136.276
98.4754
-133.354
92.7374
-130.324
84.1345
-127.135
71.248
-125.062
49.7864
-123.787
30.3871
-120.872
19.8934
-118.09
3.79543
-118.917
-18.4396
-122.968
-35.7282
-126.761
-37.9485
-130.448
-31.6042
-133.759
-23.2773
-135.839
-8.16884
-136.088
11.0665
-135.751
27.9592
-135.031
42.8139
-134.155
57.1924
-134.525
68.9436
-135.864
83.5859
-137.682
103.985
-139.779
130.864
-142.518
165.3
-145.682
210.682
-149.225
269.287
-152.846
345.135
-156.157
441.119
-158.942
561.58
-160.678
709.754
-162.258
892.154
-164.993
1120.92
-170.502
1415.75
-178.807
1795.09
-189.493
2260.04
-200.864
2785.13
-206.526
3279.37
-190.208
3508.6
-139.121
3106.71
-88.5104
2065.46
-113.812
1553.31
-130.363
1810.75
-150.569
1476.8
-41.6439
1122.56
159.991
-4.66917
257.273
-796.642
288.697
-1140.92
269.983
-1240.88
214.118
-1232.16
125.55
-1178.17
23.1194
-1129.45
41.4856
5155.41
63.9632
8018.2
97.1115
4225.27
174.56
1545.51
337.001
-527.398
473.348
-2345.05
591.915
-3015.84
705.354
-3255
743.857
-3511.58
685.466
-3244.03
566.586
-2151.77
381.59
-806.35
503.352
1814.95
624.673
4491.08
636.068
5447.71
619.552
5287.41
606.235
4684.99
594.853
3880.2
580.189
2954.66
556.437
1952.01
523.345
916.724
473.34
-120.026
395.474
-1211.36
289.099
-2290.8
-3230.36
-150.419
103.598
-146.578
120.468
-143.276
110.408
-140.91
100.64
-138.316
95.66
-135.204
89.4148
-132.011
80.7304
-128.766
67.7615
-126.611
47.411
-125.33
28.9735
-123.136
17.5649
-121.658
2.19038
-123.395
-16.9299
-127.751
-31.5809
-131.853
-33.577
-135.622
-28.0308
-138.821
-20.1221
-140.826
-6.27452
-141.111
11.2357
-140.751
27.5178
-140.157
42.2141
-139.478
56.6892
-139.829
69.3866
-141.064
85.007
-142.803
105.881
-144.78
133.008
-147.331
167.882
-150.226
213.569
-153.444
272.351
-156.648
348.039
-159.473
443.562
-161.688
563.186
-162.92
710.397
-164.151
892.593
-166.623
1122.63
-171.744
1420.04
-179.441
1801.97
-189.301
2269.08
-199.459
2794.6
-203.042
3282.16
-184.102
3488.83
-134.091
3055.53
-93.7387
2024.12
-123.823
1582.72
-122.076
1808.14
-103.593
1457.1
27.8398
986.877
188.905
-169.358
275.935
-886.562
301.219
-1169.96
277.949
-1222.64
218.505
-1179.76
127.021
-1094.68
24.63
-1036.48
38.76
5139.54
61.4438
7994.72
101.783
4185.16
189.667
1457.2
360.684
-701.209
499.27
-2484.58
617.43
-3135.18
725.248
-3363.02
754.33
-3540.36
689.941
-3178.97
575.099
-2036.5
394.312
-625.054
498.07
1713.97
619.663
4370.42
634.441
5432.45
615.861
5305.89
599.84
4701.26
586.667
3893.4
570.903
2970.56
546.511
1976.38
512.429
950.871
460.822
-69.053
383.385
-1134.28
277.111
-2184.91
-3102.03
-154.93
99.6304
-150.713
116.295
-147.07
106.852
-144.243
97.9664
-141.282
92.875
-137.972
86.367
-134.612
77.7042
-131.33
64.8466
-129.191
45.6957
-128.082
28.2623
-126.653
16.5941
-126.305
2.29849
-128.752
-14.1547
-133.274
-26.8389
-137.485
-29.0852
-141.218
-24.2562
-144.274
-17.0158
-146.192
-4.32552
-146.514
11.6925
-146.181
27.3824
-145.734
41.9068
-145.225
56.3223
-145.57
69.769
-146.669
86.2445
-148.273
107.502
-150.096
134.932
-152.426
170.251
-155.029
216.274
-157.893
275.317
-160.663
350.926
-162.974
446.192
-164.629
565.154
-165.376
711.832
-166.274
894.181
-168.459
1125.74
-173.135
1425.69
-180.148
1810.03
-189.068
2279.01
-197.841
2804.34
-199.158
3284.41
-177.766
3468.93
-129.313
3008.79
-95.5852
1993.34
-121.369
1612.36
-107.427
1797.84
-74.7304
1430.25
69.6383
847.031
215.901
-313.345
295.204
-963.407
314.359
-1186.75
286.607
-1192.04
223.196
-1113.92
129.171
-997.973
25.5491
-927.051
34.6371
5130.69
57.9024
7971.9
105.758
4139.91
205.187
1366.37
384.456
-876.233
524.919
-2623.17
641.343
-3249.93
741.7
-3462.11
760.868
-3559.24
691.237
-3109.39
579.687
-1925.57
407.944
-457.134
492.664
1629.79
612.272
4250.73
630.828
5412.87
611.043
5324.82
592.699
4719
577.95
3907.36
561.27
2986.48
536.394
2000.44
501.522
985.112
448.804
-17.268
371.931
-1057.08
262.403
-2075.1
-2983.05
-160.075
95.2503
-155.583
111.699
-151.672
102.768
-148.472
94.573
-145.213
89.3212
-141.744
82.5993
-138.28
73.9301
-135.061
61.2823
-133.068
43.3815
-132.24
27.1759
-131.542
15.6468
-132.091
2.62062
-134.994
-11.5878
-139.503
-22.6313
-143.619
-24.8209
-147.219
-20.8757
-150.089
-14.1793
-151.906
-2.6155
-152.279
11.9422
-152.032
27.0343
-151.711
41.5702
-151.324
56.1101
-151.658
70.179
-152.612
87.3739
-154.039
109.077
-155.681
136.737
-157.767
172.367
-160.062
218.56
-162.541
277.636
-164.855
352.927
-166.637
447.564
-167.743
565.597
-168.031
711.454
-168.607
893.853
-170.477
1126.72
-174.653
1428.87
-180.907
1815.31
-188.782
2285.9
-195.983
2810.69
-194.852
3282.29
-171.12
3444.13
-124.195
2960.35
-93.5749
1961.3
-113.363
1631.07
-93.0295
1776.3
-52.3937
1387.63
102.866
687.599
243.631
-457.584
315.718
-1038.7
328.49
-1203.54
296.294
-1165.24
228.76
-1053.89
133.765
-911.909
26.8231
-831.562
29.0022
5126.8
53.3301
7946.64
108.842
4084.29
220.402
1252.89
407.514
-1066.74
549.555
-2766.53
662.92
-3364.43
754.24
-3553.63
763.369
-3568.16
689.186
-3034.52
579.12
-1815.05
418.262
-295.137
487.036
1564.33
602.738
4136.21
625.128
5390.12
604.982
5345.02
584.761
4739.64
568.681
3923.63
551.29
3004.15
526.097
2025.71
490.535
1020.79
437.179
35.4193
361.183
-981.436
259.236
-1973.59
-2851.81
-165.819
90.7597
-161.147
107.053
-157.05
98.7064
-153.582
91.1784
-150.118
85.9413
-146.573
79.2111
-143.116
70.6962
-140.071
58.487
-138.318
41.9327
-137.812
26.9529
-137.724
15.9012
-138.888
4.12382
-141.978
-8.26734
-146.284
-18.1678
-150.173
-20.7018
-153.557
-17.4746
-156.228
-11.4541
-157.938
-0.8745
-158.368
12.4993
-158.235
27.0795
-158.016
41.4812
-157.706
55.9561
-158.014
70.5568
-158.821
88.3443
-160.057
110.348
-161.503
138.281
-163.33
174.21
-165.304
220.587
-167.377
279.736
-169.223
354.787
-170.471
449.001
-171.06
566.337
-170.918
711.837
-171.181
894.618
-172.707
1128.99
-176.328
1433.28
-181.745
1821.6
-188.453
2293.44
-193.908
2816.9
-190.166
3279.21
-164.041
3419.15
-118.507
2916.06
-89.7477
1934.79
-103.469
1648.19
-79.5544
1756.33
-33.7456
1349.69
133.839
522.692
272.519
-594.175
337.037
-1100.92
342.992
-1207.49
306.196
-1126.18
234.714
-980.792
140.465
-816.822
28.2513
-719.928
21.7028
5132.7
47.7262
7920.74
111.036
4023.27
236.038
1137.29
429.879
-1257.01
572.124
-2907.15
681.524
-3472.34
762.731
-3633.6
761.737
-3566.9
683.904
-2956.72
574.38
-1706.2
428.181
-153.289
481.254
1512.28
591.225
4026.24
617.304
5363.2
597.587
5364.13
575.977
4760.84
558.843
3940.12
540.952
3021.39
515.624
2050.27
479.432
1056.31
425.932
87.6338
350.798
-905.968
245.68
-1868.29
-2741.55
-172.157
86.0608
-167.394
102.169
-163.207
94.3413
-159.586
87.3405
-156.027
82.0464
-152.511
75.338
-149.175
66.9792
-146.399
55.2886
-144.934
40.0702
-144.708
26.3745
-145.053
15.9081
-146.543
5.30942
-149.582
-5.63998
-153.544
-14.5669
-157.093
-17.0958
-160.206
-14.5833
-162.664
-9.02446
-164.255
0.615968
-164.745
12.8666
-164.726
26.9515
-164.584
41.3271
-164.318
55.8676
-164.59
70.9044
-165.257
89.1922
-166.295
111.543
-167.531
139.697
-169.089
175.82
-170.727
222.235
-172.378
281.244
-173.743
355.844
-174.465
449.302
-174.563
565.733
-174.026
710.571
-173.98
893.57
-175.13
1129.14
-178.141
1435.16
-182.648
1825.01
-188.078
2297.74
-191.602
2819.45
-185.076
3271.54
-156.485
3389.31
-112.244
2870.07
-86.1818
1907
-94.0562
1654.67
-69.6257
1730.38
-19.5371
1294.34
166.223
333.477
302.843
-734.06
359.079
-1160.67
357.973
-1210.65
316.379
-1090.49
241.243
-913.827
147.304
-733.224
28.0108
-617.557
12.5613
5146.55
41.1243
7891.14
112.147
3951.83
252.137
994.009
451.875
-1460.85
592.555
-3049.62
696.782
-3577.76
766.982
-3704.02
755.895
-3555.63
675.6
-2875.63
567.938
-1597.82
441.87
-24.6539
474.839
1483.04
577.875
3924.62
607.331
5333.53
588.769
5382.9
566.306
4783.88
548.418
3958.34
530.261
3039.96
505.002
2075.7
468.03
1093.44
414.944
139.996
341.403
-832.872
245.327
-1772.76
-2610.14
-179.073
81.4716
-174.303
97.4316
-170.098
90.1571
-166.425
83.7014
-162.883
78.5344
-159.492
72.0358
-156.364
63.9958
-153.895
52.9831
-152.694
39.083
-152.657
26.5318
-153.233
16.7321
-154.798
7.12069
-157.603
-2.67826
-161.126
-10.9285
-164.29
-13.7369
-167.108
-11.7551
-169.362
-6.69881
-170.83
2.13041
-171.368
13.5371
-171.445
27.1995
-171.361
41.3771
-171.121
55.808
-171.35
71.2396
-171.876
89.915
-172.724
112.46
-173.74
140.828
-175.023
177.121
-176.313
223.558
-177.538
282.452
-178.423
356.668
-178.639
449.609
-178.289
565.403
-177.388
710.063
-177.04
893.574
-177.78
1130.5
-180.127
1438.15
-183.648
1829.29
-187.677
2302.5
-189.09
2821.5
-179.626
3262.55
-148.51
3359.11
-105.144
2827.6
-81.5253
1885.09
-85.8386
1662.12
-59.3537
1708.26
-7.66406
1251.89
202.71
125.499
333.251
-862.497
380.543
-1205.76
372.468
-1200.87
325.936
-1042.18
246.715
-834.132
153.113
-640.703
26.6261
-500.072
1.56549
5170.34
33.5208
7859.08
112.269
3874.98
269.09
846.04
473.493
-1662.73
610.854
-3185.89
708.339
-3674.09
766.682
-3761.23
745.833
-3534.48
664.179
-2793.88
563.123
-1497.21
458.517
77.1505
467.591
1475.05
562.765
3829.52
595.23
5300.4
578.473
5399.3
555.715
4806.41
537.403
3976.14
519.21
3057.58
494.259
2099.91
457.281
1129.69
404.897
190.855
332.058
-759.812
237.228
-1677.94
-2496.58
-186.505
76.7973
-181.793
92.585
-177.643
85.8379
-174.014
79.8598
-170.581
74.7617
-167.376
68.4579
-164.496
60.7111
-162.324
50.3615
-161.328
37.6631
-161.367
26.1735
-162
16.988
-163.461
8.24663
-165.924
-0.656032
-168.979
-8.2584
-171.738
-10.9913
-174.258
-9.45137
-176.298
-4.69106
-177.638
3.36796
-178.215
13.9892
-178.37
27.2404
-178.319
41.31
-178.088
55.7444
-178.269
71.4822
-178.66
90.4824
-179.321
113.278
-180.109
141.812
-181.109
178.199
-182.046
224.544
-182.844
283.15
-183.255
356.82
-182.995
448.971
-182.23
563.963
-180.999
708.116
-180.347
891.903
-180.644
1129.77
-182.274
1438.6
-184.738
1830.61
-187.253
2303.82
-186.37
2819.58
-173.798
3248.77
-140.091
3324.11
-96.9742
2782.67
-74.334
1860.68
-79.4846
1665.82
-59.5564
1685.87
34.6965
1148.63
247.714
-90.7663
364.039
-981.985
401.102
-1246.56
386.402
-1190.62
334.723
-996.8
250.705
-759.105
160.078
-562.114
25.1947
-395.987
-11.0827
5205.3
24.9961
7821.91
111.067
3788.15
286.306
666.411
494.076
-1874.55
626.578
-3320.36
715.706
-3764.37
761.454
-3807.2
731.704
-3504.62
649.653
-2710.93
553.922
-1400.39
465.333
168.673
459.057
1485.24
546.034
3744.15
581.029
5265.24
566.638
5413.95
544.164
4829.54
525.781
3994.96
507.806
3076.06
483.425
2124.54
447.242
1166.11
395.681
241.876
323.246
-687.836
224.847
-1580.14
-2394.46
-194.36
72.3547
-189.756
88.023
-185.718
81.8186
-182.209
76.3613
-178.94
71.4852
-175.945
65.4939
-173.309
58.1512
-171.38
48.5166
-170.497
36.911
-170.516
26.3041
-171.074
17.7068
-172.322
9.65456
-174.397
1.50924
-176.991
-5.58985
-179.371
-8.45506
-181.608
-7.2091
-183.44
-2.78061
-184.659
4.64602
-185.256
14.7184
-185.464
27.6127
-185.428
41.4104
-185.202
55.7161
-185.325
71.7387
-185.58
90.9622
-186.061
113.864
-186.619
142.512
-187.332
178.943
-187.916
225.159
-188.296
283.489
-188.259
356.671
-187.559
448.286
-186.428
562.744
-184.896
706.863
-183.939
891.158
-183.76
1130.08
-184.623
1439.97
-185.955
1832.58
-186.831
2305.32
-183.467
2816.74
-167.623
3233.23
-131.199
3288.39
-87.6243
2739.73
-64.4904
1838.77
-65.2674
1669.25
-37.1132
1661.73
109.078
1007.46
294.5
-274.133
393.079
-1078.5
420.242
-1271.8
399.152
-1168.23
341.817
-938.353
252.469
-671.609
169.288
-482.326
21.6152
-265.668
-25.3715
5250.84
15.6555
7780.69
108.809
3696.62
305.232
477.836
513.411
-2082.03
639.078
-3445.68
718.474
-3843.02
751.22
-3838.93
713.783
-3466.78
632.036
-2628.84
541.825
-1310.07
465.677
244.079
449.152
1503.04
527.75
3665.75
564.8
5227.71
553.249
5425.36
531.635
4851.1
513.556
4012.66
496.049
3093.12
472.462
2147.47
437.227
1200.64
386.74
290.948
315.318
-616.412
226.513
-1491.52
-2272.12
-202.558
67.8679
-198.094
83.4117
-194.206
77.7678
-190.852
72.7973
-187.768
68.0579
-184.971
62.3105
-182.547
55.3024
-180.79
46.2861
-179.946
35.6216
-179.88
25.8051
-180.297
17.7198
-181.285
10.285
-182.982
2.74816
-185.156
-3.81551
-187.183
-6.49142
-189.158
-5.44458
-190.777
-1.20169
-191.879
5.64252
-192.478
15.1932
-192.718
27.74
-192.679
41.359
-192.446
55.6434
-192.507
71.8612
-192.628
91.2639
-192.93
114.332
-193.259
143.059
-193.68
179.476
-193.918
225.487
-193.897
283.409
-193.439
355.995
-192.343
446.84
-190.882
560.617
-189.077
704.331
-187.808
888.828
-187.12
1128.31
-187.167
1438.76
-187.297
1831.49
-186.42
2303.17
-180.387
2809.6
-161.079
3212.65
-121.812
3247.8
-77.0491
2693.15
-54.2843
1814.27
-49.1852
1662.64
-8.9409
1618.29
161.709
829.202
334.154
-449.626
420.034
-1167.47
438.099
-1293.85
410.654
-1145.32
347.586
-882
255.231
-590.259
176.677
-418.009
14.2577
-126.758
-41.1945
5305.2
5.59436
7732.77
105.333
3595.94
326.682
247.141
530.849
-2290
647.731
-3564.63
716.331
-3912.73
736.057
-3858.87
692.38
-3423.03
611.551
-2546.99
526.952
-1224.01
460.256
313.942
437.73
1529.67
508.039
3597.23
546.617
5189.05
538.274
5434.02
518.094
4872.02
500.715
4030.57
483.946
3110.48
461.338
2170.4
427.324
1234.99
378.238
339.656
307.617
-546.325
218.957
-1403.52
-2166.38
-211.02
63.6499
-206.705
79.1491
-202.976
74.0604
-199.784
69.6024
-196.873
65.1115
-194.247
59.672
-191.987
53.0637
-190.34
44.6636
-189.481
34.8296
-189.298
25.6722
-189.544
18.06
-190.27
11.1128
-191.619
4.14515
-193.417
-1.96805
-195.137
-4.63794
-196.879
-3.69358
-198.296
0.303085
-199.284
6.70471
-199.872
15.9209
-200.112
28.1476
-200.059
41.458
-199.813
55.619
-199.803
72.0148
-199.789
91.5071
-199.916
114.604
-200.018
143.337
-200.153
179.665
-200.057
225.429
-199.663
282.959
-198.827
355.004
-197.381
445.338
-195.64
558.684
-193.582
702.44
-191.995
887.319
-190.767
1127.45
-189.951
1438.32
-188.806
1830.89
-186.045
2300.95
-177.157
2801.16
-154.2
3189.88
-112.012
3206.14
-65.2381
2646.84
-43.9639
1793.93
-36.6889
1657.66
18.6763
1566.17
206.698
643.067
371.336
-612.17
445.615
-1239.48
454.31
-1300.65
420.247
-1109.89
352.656