/*--------------------------------*- C++ -*----------------------------------*\
| =========                 |                                                 |
| \\      /  F ield         | OpenFOAM: The Open Source CFD Toolbox           |
|  \\    /   O peration     | Version:  4.1                                   |
|   \\  /    A nd           | Web:      www.OpenFOAM.org                      |
|    \\/     M anipulation  |                                                 |
\*---------------------------------------------------------------------------*/
FoamFile
{
    version     2.0;
    format      ascii;
    class       volVectorField;
    location    "11";
    object      U;
}
// * * * * * * * * * * * * * * * * * * * * * * * * * * * * * * * * * * * * * //

dimensions      [0 1 -1 0 0 0 0];

internalField   nonuniform List<vector> 
6785
(
(1.10832e-14 0.852189 15.7946)
(9.12657e-15 -4.89458 12.1215)
(-1.76147e-15 -4.1955 12.1321)
(4.96851e-15 -3.60118 11.9966)
(2.63712e-16 -3.00467 11.8778)
(-3.83296e-16 -2.55318 11.6992)
(1.7773e-15 -2.2088 11.4769)
(4.14854e-16 -1.96601 11.2116)
(-7.2044e-16 -1.79853 10.916)
(1.23753e-15 -1.71236 10.5882)
(2.94377e-16 -1.83744 10.1561)
(-4.78796e-16 -2.28565 9.53762)
(6.12505e-16 -2.51297 8.96378)
(-3.77743e-17 -1.06548 8.91356)
(-4.8587e-16 1.76572 7.47085)
(1.08136e-14 -5.35016 22.493)
(1.56457e-14 -14.6049 21.3939)
(2.08323e-17 -13.2708 20.3411)
(5.66578e-15 -11.7697 19.5066)
(2.06804e-15 -11.156 18.5043)
(-2.99301e-16 -10.6594 17.5174)
(4.65268e-15 -10.0901 16.5714)
(2.02008e-15 -9.52498 15.6235)
(-7.81763e-16 -8.96542 14.6638)
(1.93273e-15 -8.36729 13.6946)
(9.39399e-16 -7.75707 12.7178)
(-1.93877e-16 -7.30333 11.7194)
(1.24647e-15 -7.01704 10.6244)
(5.35775e-16 -5.73091 9.16122)
(-2.48754e-16 -2.30497 4.58308)
(1.77061e-14 -7.71565 23.9802)
(1.81687e-14 -16.7731 24.6728)
(1.45339e-15 -13.7365 23.9372)
(4.70741e-15 -12.3061 22.6248)
(2.27472e-15 -11.6447 21.2413)
(9.52076e-16 -10.814 20.0012)
(5.01669e-15 -9.94022 18.7736)
(1.3761e-15 -9.10008 17.5246)
(-3.56116e-16 -8.28335 16.2653)
(1.92129e-15 -7.47521 15.0261)
(3.02976e-16 -6.66759 13.8175)
(-9.15744e-16 -5.8416 12.4299)
(1.21658e-15 -4.81378 10.275)
(-3.83654e-15 -3.12607 6.68414)
(3.46925e-16 -0.831954 1.68962)
(1.76266e-14 -8.5025 22.046)
(1.55467e-14 -16.6211 24.3319)
(-9.78231e-16 -12.9299 23.7969)
(5.21124e-15 -12.1536 21.9984)
(1.66881e-15 -11.42 20.5026)
(2.48309e-15 -10.4936 19.172)
(2.36642e-15 -9.63388 17.8165)
(4.26151e-16 -8.8236 16.4588)
(-1.35163e-16 -8.05364 15.1227)
(4.24716e-16 -7.3238 13.8162)
(-3.7129e-16 -6.55247 12.4392)
(-1.56425e-16 -5.49083 10.5828)
(-1.85567e-15 -3.78516 7.50838)
(-5.79419e-15 -1.49363 2.76583)
(-2.61e-15 0.153456 -1.77325)
(1.62103e-14 -8.47585 19.7469)
(1.45072e-14 -16.3601 24.312)
(4.37253e-15 -13.0993 23.6599)
(6.43396e-15 -12.6281 21.5362)
(6.27361e-17 -11.8567 20.0245)
(7.82633e-16 -10.9576 18.6634)
(1.40719e-15 -10.17 17.2584)
(-3.42693e-15 -9.40303 15.8708)
(9.31976e-16 -8.65287 14.5233)
(-1.74468e-16 -7.93081 13.2133)
(-2.19644e-15 -7.16618 11.829)
(1.50438e-15 -6.11644 9.99615)
(-3.60151e-15 -4.42424 7.15556)
(-4.25314e-15 -2.3054 3.28801)
(-1.16553e-14 -0.787075 0.317679)
(1.39886e-14 -8.02058 17.5493)
(1.40697e-14 -16.0192 24.5271)
(3.05168e-15 -13.6449 24.0459)
(8.3337e-16 -12.9949 21.7647)
(7.89358e-16 -12.1271 20.2151)
(-3.87108e-15 -11.2255 18.8464)
(8.22653e-16 -10.4398 17.4336)
(-2.63558e-15 -9.64975 16.0429)
(2.61071e-15 -8.86124 14.693)
(-3.08649e-15 -8.09416 13.3815)
(-1.20947e-15 -7.29824 12.017)
(5.14213e-15 -6.2856 10.2821)
(-7.91377e-15 -4.73414 7.72185)
(6.2494e-16 -2.75727 4.37411)
(-4.19795e-15 -0.950155 1.29868)
(1.31806e-14 -7.33256 15.2393)
(1.35401e-14 -15.4894 24.3511)
(7.31602e-15 -14.0275 24.4219)
(1.8632e-15 -13.1303 22.0676)
(-2.72073e-16 -12.1474 20.4392)
(1.42307e-15 -11.2386 19.0539)
(3.73111e-16 -10.4389 17.6433)
(-2.96388e-15 -9.62286 16.2575)
(2.07763e-15 -8.81326 14.9068)
(2.6494e-15 -8.03039 13.5923)
(2.81631e-15 -7.22723 12.2379)
(-4.02979e-15 -6.2439 10.5511)
(3.55883e-15 -4.79174 8.11177)
(-3.76458e-15 -2.91852 4.95313)
(1.87037e-14 -1.01361 1.80246)
(1.16935e-14 -6.54062 12.9925)
(1.8327e-14 -14.8394 23.7993)
(8.14595e-15 -14.2759 24.6695)
(5.11925e-16 -13.2449 22.3236)
(-1.32829e-16 -12.1747 20.5817)
(2.58653e-15 -11.2727 19.1653)
(-4.27105e-15 -10.4722 17.7582)
(1.5917e-15 -9.65063 16.3768)
(8.90256e-16 -8.8425 15.0255)
(4.4687e-15 -8.06293 13.709)
(2.57162e-15 -7.26295 12.3607)
(7.78682e-15 -6.29583 10.7056)
(1.60857e-15 -4.90163 8.34186)
(-2.79651e-15 -3.09655 5.28246)
(4.33129e-15 -1.12955 2.05752)
(1.12244e-14 -5.73887 11.0301)
(1.75098e-14 -14.1517 23.0399)
(5.03694e-15 -14.4669 24.8472)
(4.47652e-15 -13.4186 22.6266)
(1.57357e-15 -12.2726 20.7585)
(-6.62408e-16 -11.3677 19.2977)
(1.2979e-15 -10.5663 17.8944)
(1.74621e-16 -9.74475 16.5164)
(4.10897e-15 -8.93874 15.1631)
(-1.43247e-15 -8.15945 13.8435)
(7.23287e-16 -7.35967 12.4976)
(7.14367e-15 -6.40201 10.8692)
(2.14524e-15 -5.04943 8.5758)
(-2.14273e-15 -3.29437 5.59737)
(-3.6464e-15 -1.25741 2.28569)
(1.0543e-14 -4.98887 9.38392)
(1.64662e-14 -13.4526 22.1578)
(1.02252e-14 -14.5769 24.9401)
(3.73207e-15 -13.6012 22.9602)
(1.44437e-15 -12.3842 20.9752)
(-1.90182e-15 -11.4583 19.4568)
(-7.69572e-16 -10.6506 18.0544)
(-2.55734e-16 -9.82884 16.6795)
(-1.68512e-15 -9.02259 15.3244)
(-1.25692e-15 -8.24062 14.0016)
(5.68909e-16 -7.44041 12.6557)
(-2.46934e-16 -6.49125 11.0456)
(7.43135e-15 -5.17171 8.80678)
(1.42551e-15 -3.45633 5.88672)
(-2.0578e-15 -1.35328 2.49719)
(1.62886e-15 -4.35488 8.07397)
(1.51474e-14 -12.7865 21.251)
(1.37223e-14 -14.6101 24.9462)
(7.88098e-15 -13.7824 23.3029)
(1.88453e-15 -12.5194 21.2353)
(-2.09509e-15 -11.5657 19.6487)
(-1.44168e-17 -10.7499 18.2382)
(-2.94638e-15 -9.92927 16.8632)
(-8.1421e-15 -9.12273 15.5048)
(-7.34422e-15 -8.33719 14.177)
(9.04162e-16 -7.53541 12.8289)
(2.25638e-15 -6.59425 11.2351)
(1.99223e-15 -5.30532 9.04772)
(2.15248e-15 -3.62726 6.18114)
(-1.86036e-14 -1.45626 2.71562)
(2.72075e-15 -3.74741 6.8082)
(1.28223e-14 -12.0812 20.204)
(1.17227e-14 -14.5339 24.7807)
(3.33388e-15 -13.8953 23.5175)
(2.66649e-15 -12.5879 21.3821)
(-2.12979e-15 -11.5946 19.7303)
(2.37157e-16 -10.7732 18.3259)
(4.84649e-15 -9.96116 16.9662)
(-2.88612e-15 -9.16372 15.6197)
(-1.61015e-15 -8.38606 14.3017)
(4.70646e-16 -7.59327 12.9618)
(-8.15603e-15 -6.66378 11.3825)
(-6.53406e-15 -5.39549 9.22839)
(-1.5882e-14 -3.74015 6.38966)
(-1.16315e-14 -1.51268 2.85228)
(3.39992e-15 -3.43916 6.26171)
(1.57893e-14 -11.5893 19.4129)
(9.7749e-15 -14.5888 24.6886)
(4.45226e-15 -14.2807 23.9833)
(3.24728e-15 -13.0346 21.8877)
(-1.19425e-15 -12.0057 20.1179)
(-1.50363e-15 -11.1528 18.6305)
(4.38087e-15 -10.3233 17.2265)
(-2.59472e-15 -9.50126 15.8432)
(-2.06079e-15 -8.69186 14.4935)
(6.67783e-16 -7.87026 13.1357)
(-6.39219e-15 -6.92877 11.5785)
(-5.55551e-15 -5.67857 9.5089)
(-9.91067e-15 -4.02975 6.73952)
(-1.38234e-14 -1.6916 3.10697)
(-5.21541e-15 -2.02459 2.90789)
(1.189e-14 -10.0566 16.6662)
(1.17583e-14 -13.9245 23.4191)
(4.09803e-15 -13.8678 23.327)
(2.4278e-15 -12.4958 21.1798)
(-1.61054e-15 -11.4133 19.4771)
(-9.13113e-16 -10.6618 18.2546)
(3.50596e-15 -9.96699 17.0953)
(-2.47435e-15 -9.28089 15.922)
(-1.51272e-15 -8.60441 14.7388)
(1.5165e-16 -7.91 13.5212)
(-6.189e-15 -7.09382 12.0959)
(-4.35618e-15 -5.96362 10.1595)
(-9.76521e-15 -4.48786 7.62606)
(-1.05118e-14 -2.20616 4.32744)
(-1.85818e-15 -4.40977 8.87901)
(1.13482e-14 -11.1934 18.665)
(1.17474e-14 -15.35 25.0263)
(7.09739e-15 -16.7641 26.0082)
(3.56376e-15 -16.1998 24.2241)
(2.6896e-16 -15.0167 21.7705)
(-1.49535e-15 -13.7233 19.4777)
(4.05033e-16 -12.4853 17.5434)
(-7.23969e-16 -11.2862 15.7341)
(-1.77616e-15 -10.1185 14.1101)
(-1.66799e-15 -8.97635 12.5537)
(-4.03802e-15 -7.76212 10.9036)
(-4.48898e-15 -6.34526 8.95093)
(-6.34055e-15 -4.39264 5.96438)
(-1.19112e-14 -0.946631 1.56264)
(-1.27791e-15 0.735347 -3.7245)
(-1.96012e-15 0.770839 -6.0001)
(-1.44561e-15 0.778187 -4.2554)
(-1.4035e-15 1.26447 -4.20064)
(-1.33514e-15 1.72274 -3.99123)
(-2.03663e-15 2.34553 -5.53916)
(-1.46558e-15 2.08823 -3.81838)
(-1.54378e-15 2.50323 -3.7551)
(-2.22347e-15 2.78652 -3.59051)
(1.45877e-16 3.69285 -4.72925)
(5.12553e-16 3.10422 -3.29239)
(1.46866e-16 3.38579 -3.09486)
(-1.15766e-15 4.69701 -3.94425)
(-6.60476e-16 3.71355 -2.73143)
(-6.86415e-16 4.05524 -2.68564)
(-7.44399e-16 4.16564 -2.59817)
(-1.71051e-15 5.36386 -3.21221)
(-1.09977e-15 4.24498 -2.26869)
(-1.03552e-15 4.40302 -2.16288)
(-1.82847e-15 5.91192 -2.55358)
(-1.25811e-15 4.48355 -1.81014)
(-1.28791e-15 4.77782 -1.78232)
(-1.20192e-15 4.80447 -1.75211)
(-1.86922e-15 6.05806 -1.96313)
(-1.32196e-15 4.56102 -1.44351)
(-1.30836e-15 4.89425 -1.41657)
(-1.30385e-15 4.9134 -1.40607)
(-1.89241e-15 6.04604 -1.44758)
(-1.42968e-15 4.5519 -1.11301)
(-1.3478e-15 4.60842 -1.10619)
(-1.89383e-15 6.01101 -0.959)
(-1.42186e-15 4.34084 -0.775625)
(-1.39283e-15 4.53889 -0.761081)
(-1.37426e-15 4.52739 -0.786971)
(-1.90865e-15 5.5563 -0.544144)
(-1.39374e-15 4.03977 -0.487133)
(-1.30201e-15 4.04895 -0.525182)
(-1.78275e-15 5.23791 -0.168115)
(-1.27489e-15 3.66117 -0.214382)
(-1.26349e-15 3.79736 -0.210453)
(-1.13509e-15 3.77811 -0.257383)
(-1.52812e-15 4.58192 0.148613)
(-1.08814e-15 3.18944 0.0123354)
(-1.06318e-15 3.34312 0.0148546)
(-1.00802e-15 3.33927 -0.0349547)
(-1.31903e-15 3.92888 0.403563)
(-1.05661e-15 2.75796 0.238266)
(-9.91806e-16 2.74953 0.172347)
(-1.35405e-15 3.4508 0.693778)
(-8.86596e-16 2.42315 0.526765)
(-8.64723e-16 2.46175 0.528709)
(-8.20156e-16 2.44622 0.462649)
(-1.09207e-15 2.821 1.05309)
(-7.90732e-16 1.99923 0.783145)
(-8.311e-16 2.04027 0.780277)
(-5.63604e-16 2.02543 0.712752)
(-7.40688e-16 2.16885 1.28124)
(-5.09049e-16 1.45414 0.839802)
(-6.04631e-16 1.40877 0.775684)
(-5.85904e-16 1.50244 1.00133)
(-4.75757e-16 0.764211 0.415616)
(-5.21914e-16 0.700118 0.383176)
(-5.2211e-16 0.756544 0.409894)
(2.57801e-15 1.24243 -0.859288)
(9.09514e-16 -0.384061 -0.382514)
(5.45814e-17 0.0502782 -0.0489107)
(-2.3791e-15 0.162752 1.20614)
(-2.53492e-15 -1.26459 3.20585)
(-2.18977e-15 -1.22573 3.15413)
(-2.2631e-15 -1.21093 3.32136)
(-3.16887e-15 -2.56749 6.19765)
(-2.39596e-15 -3.08792 5.98854)
(-2.45211e-15 -3.3235 6.09138)
(-2.19199e-15 -3.48396 6.27134)
(-6.54862e-15 -6.04246 9.86057)
(-2.71235e-15 -5.55672 8.07529)
(-2.45743e-15 -5.82321 8.54428)
(-3.09956e-15 -9.12293 12.581)
(-2.24817e-15 -8.21668 9.74225)
(-2.61594e-15 -8.56192 10.4316)
(-3.93492e-15 -9.41739 12.0972)
(-3.58516e-15 -9.29766 12.0282)
(-3.51058e-15 -9.47991 12.3099)
(-2.60992e-15 -11.4615 15.1827)
(-2.88234e-15 -10.2128 13.3928)
(-2.65835e-15 -10.5728 14.1055)
(-2.58425e-15 -10.5671 14.2661)
(-2.44996e-15 -10.6465 14.3946)
(-2.31043e-15 -10.7446 14.5472)
(-2.12592e-15 -10.8267 14.7256)
(-1.71672e-15 -10.9215 15.05)
(-1.22945e-15 -11.0569 15.4452)
(-3.5026e-16 -11.8634 16.8845)
(-9.50378e-16 -11.4028 15.8906)
(-8.20884e-16 -11.5486 16.1259)
(-7.78606e-16 -11.5322 16.2594)
(-7.15328e-16 -11.6996 16.6405)
(-6.74262e-16 -11.6744 16.6786)
(-6.0824e-16 -11.7564 16.8282)
(-5.48388e-16 -11.814 16.958)
(-4.8022e-16 -11.8828 17.1146)
(7.62511e-16 -12.323 18.2245)
(5.13203e-16 -11.9381 17.4898)
(5.88377e-16 -12.0437 17.6711)
(6.31082e-16 -12.0766 17.7584)
(6.96619e-16 -12.1187 17.8914)
(7.60053e-16 -12.1625 18.0923)
(8.35012e-16 -12.2362 18.3164)
(9.17871e-16 -12.2386 18.3847)
(1.00427e-15 -12.3091 18.5046)
(1.11369e-15 -12.3678 18.6081)
(1.2205e-15 -12.1296 18.8534)
(1.32332e-15 -12.0341 18.5698)
(1.43549e-15 -12.0713 18.6744)
(1.4663e-15 -12.1012 18.7338)
(1.52375e-15 -12.1361 18.8144)
(1.60199e-15 -12.1255 18.916)
(1.76677e-15 -12.1818 19.1587)
(1.85057e-15 -12.2103 19.2349)
(1.96118e-15 -12.2562 19.2271)
(1.7142e-15 -11.2166 18.1984)
(1.9155e-15 -11.4426 18.4767)
(1.95155e-15 -11.4068 18.5944)
(1.92638e-15 -11.442 18.7331)
(2.1142e-15 -11.3858 18.6563)
(2.23395e-15 -11.3827 18.6378)
(2.38953e-15 -11.3578 18.6019)
(2.59072e-15 -11.3463 18.5971)
(3.02012e-15 -11.4318 18.7802)
(3.56753e-15 -9.22171 15.9914)
(3.40096e-15 -10.1122 17.375)
(3.54614e-15 -9.94479 17.1118)
(3.69496e-15 -9.91016 17.0233)
(4.08504e-15 -9.87199 17.0557)
(4.18686e-15 -9.76694 16.8449)
(4.2374e-15 -9.66666 16.5278)
(4.32463e-15 -9.62927 16.1869)
(4.4073e-15 -9.51436 15.752)
(4.45238e-15 -6.61215 11.624)
(4.99525e-15 -7.90625 14.2971)
(4.87348e-15 -7.54721 13.5475)
(4.8274e-15 -7.49215 13.1212)
(4.77744e-15 -7.34561 12.5329)
(4.84294e-15 -7.26688 11.8936)
(5.43246e-15 -6.98814 11.0954)
(4.77954e-15 -6.93525 10.4998)
(4.39758e-15 -6.75273 9.75555)
(3.92302e-15 -6.45165 8.93217)
(3.06898e-17 -3.22267 3.11924)
(2.53243e-15 -4.87824 7.04196)
(1.85864e-15 -4.30696 5.70189)
(1.57176e-15 -4.32242 5.26689)
(1.11122e-15 -4.07748 4.53205)
(5.06135e-16 -4.02608 3.7003)
(-7.61025e-16 -3.85873 2.34694)
(-1.99806e-15 -3.46473 1.01657)
(-1.64862e-15 -3.3728 0.892264)
(-1.32018e-15 -2.30352 -1.64208)
(-1.71458e-15 -2.68682 0.737416)
(-1.6228e-15 -2.4192 -0.00190898)
(-9.35542e-16 -1.46449 -2.05135)
(-6.87464e-15 -2.53581 -1.6825)
(-3.27856e-15 -1.62766 -1.35553)
(-2.4175e-15 -1.31519 -0.840013)
(3.49389e-15 -1.51196 -1.33835)
(-2.89033e-15 -0.847108 -0.705569)
(-2.3039e-15 -1.02777 -1.26903)
(1.88027e-16 -0.665388 -0.872715)
(-1.0389e-16 -0.357935 -0.610683)
(-2.1814e-16 -0.384032 -1.24914)
(-6.69519e-17 -0.139148 -1.0693)
(-5.55237e-17 0.0543785 -0.444777)
(-5.97179e-17 0.177356 -0.790441)
(8.19179e-17 0.351501 -0.444421)
(-1.52496e-15 0.445583 -0.622683)
(-1.31861e-15 0.676778 -0.678197)
(7.37291e-17 0.559134 -0.363355)
(-5.186e-15 0.926534 -0.559654)
(-4.28241e-15 0.820848 -0.348124)
(-1.91788e-15 0.995868 -0.467271)
(-2.11581e-15 1.22736 -0.526587)
(-1.74133e-15 0.945512 -0.294321)
(-1.27634e-15 1.31602 -0.39716)
(4.56498e-15 1.63778 -0.46286)
(-1.76051e-15 1.13921 -0.252493)
(-2.16642e-15 1.77614 -0.404048)
(-1.15768e-15 1.44101 -0.261804)
(-1.52891e-15 1.6895 -0.359695)
(-3.10035e-15 2.02663 -0.42045)
(-2.06716e-15 1.44093 -0.239045)
(-2.40732e-15 2.27551 -0.374971)
(-1.63056e-15 1.7868 -0.249521)
(-1.43525e-15 2.09185 -0.344177)
(-4.06602e-15 2.42355 -0.407295)
(-3.06128e-15 1.78466 -0.234275)
(-2.53467e-15 2.39866 -0.320145)
(-5.47658e-15 2.87332 -0.386065)
(-1.07154e-15 1.95003 -0.217227)
(-2.18987e-15 2.9815 -0.351099)
(-1.59161e-15 2.33597 -0.238889)
(-2.23847e-15 2.71579 -0.33148)
(-4.18951e-15 3.19349 -0.393559)
(3.5823e-16 2.23625 -0.230099)
(-2.35451e-15 3.49256 -0.362857)
(-1.97877e-15 2.69841 -0.25027)
(-1.91923e-15 3.13436 -0.350936)
(-2.32974e-15 3.59767 -0.417708)
(-1.74918e-15 2.62844 -0.246045)
(-2.06267e-15 3.48878 -0.336162)
(-2.20221e-15 4.14149 -0.40739)
(-1.56654e-15 2.8114 -0.236839)
(-1.8732e-15 4.2768 -0.382703)
(-1.46137e-15 3.30569 -0.267361)
(-1.38391e-15 3.84466 -0.373816)
(-1.93997e-15 4.50317 -0.445576)
(-1.56166e-15 3.14615 -0.267247)
(-2.40794e-15 4.88071 -0.423145)
(-1.71236e-15 3.74213 -0.296447)
(-2.04655e-15 4.34478 -0.420383)
(-2.25984e-15 4.98665 -0.501967)
(-1.37133e-15 3.64726 -0.304407)
(-9.86426e-16 4.79138 -0.415134)
(-2.39854e-15 5.67025 -0.509689)
(-1.46148e-15 3.87063 -0.305049)
(-1.70975e-15 5.87041 -0.497002)
(-1.30975e-15 4.50477 -0.349631)
(-1.35468e-15 5.24622 -0.492898)
(-1.67382e-15 6.15652 -0.602102)
(-1.25988e-15 4.31664 -0.367869)
(-1.64573e-15 6.66523 -0.593323)
(-1.18539e-15 5.09228 -0.416227)
(-1.7572e-15 5.92535 -0.596549)
(-7.88737e-16 6.8246 -0.737408)
(-1.18976e-15 5.02645 -0.461415)
(-1.12164e-15 6.53438 -0.632298)
(-1.31964e-15 7.76006 -0.818043)
(-9.28094e-16 5.343 -0.504567)
(-1.16148e-15 8.14867 -0.845712)
(-8.64578e-16 6.13878 -0.583331)
(-1.11577e-15 7.55347 -0.941665)
(-9.79571e-16 -0.11051 0.982946)
(-9.79876e-16 -0.180269 0.968694)
(-9.79922e-16 -0.184519 0.950206)
(-9.80058e-16 -0.145174 0.947571)
(-9.80266e-16 -0.145438 0.927809)
(-9.80455e-16 -0.155042 0.915357)
(-9.80619e-16 -0.157234 0.90122)
(-9.80732e-16 -0.159595 0.871929)
(-9.8084e-16 -0.125301 0.848239)
(-9.81025e-16 -0.069333 0.85592)
(-9.8121e-16 -0.0873365 0.834191)
(-9.81365e-16 -0.0972376 0.818941)
(-9.81512e-16 -0.032944 0.791619)
(-9.8164e-16 0.0414978 0.768899)
(-9.81759e-16 0.0598749 0.764026)
(-9.81791e-16 0.0680178 0.748344)
(-9.81798e-16 0.0679176 0.739999)
(-9.81784e-16 0.0385204 0.743762)
(-9.81784e-16 0.000138396 0.749246)
(-9.81787e-16 -0.0219762 0.745956)
(-9.81788e-16 -0.0569407 0.74192)
(-9.81787e-16 -0.0799539 0.732137)
(-9.81785e-16 -0.0678732 0.739326)
(-9.81788e-16 -0.0876421 0.745325)
(-9.81803e-16 -0.10761 0.755113)
(-9.81836e-16 -0.144989 0.767573)
(-9.81882e-16 -0.181932 0.786713)
(-9.81899e-16 -0.236005 0.806805)
(-9.81819e-16 -0.305564 0.833987)
(-9.81522e-16 -0.403007 0.867381)
(-9.80857e-16 -0.528903 0.906684)
(-9.79676e-16 -0.693264 0.945837)
(-9.77885e-16 -0.8996 0.982087)
(-9.75498e-16 -1.14989 1.01309)
(-9.72727e-16 -1.44925 1.03698)
(-9.70118e-16 -1.81206 1.06311)
(-9.68438e-16 -2.28081 1.11911)
(-9.67875e-16 -2.8678 1.19849)
(-9.67535e-16 -3.54798 1.30124)
(-9.64757e-16 -4.23661 1.40759)
(-9.54836e-16 -4.70914 1.48314)
(-9.30806e-16 -4.54748 1.45229)
(-8.74098e-16 -3.37863 1.11248)
(-7.55871e-16 -1.82524 0.281847)
(-7.69951e-16 -2.16774 0.900135)
(-7.74608e-16 -1.70389 0.348414)
(-7.77127e-16 -1.85934 0.360423)
(-7.79537e-16 -1.79115 0.437596)
(-7.77071e-16 -0.0312524 -0.869834)
(-7.74383e-16 1.04001 -1.44819)
(-7.72038e-16 1.69224 -1.71519)
(-7.68106e-16 2.07978 -1.65978)
(-7.65169e-16 2.48415 -1.43811)
(-7.88032e-16 2.70746 -0.152072)
(-5.82579e-16 -7.28171 -0.175807)
(-4.37953e-16 -10.9409 -0.319025)
(-2.46198e-16 -5.80706 -0.195453)
(-1.83765e-16 -2.56472 -0.566121)
(-1.7257e-16 -0.638534 -0.665144)
(-1.9078e-16 1.83271 -1.55646)
(-1.74321e-16 2.85716 -2.22944)
(-1.52708e-16 3.09333 -2.9651)
(-2.16868e-16 4.01956 -3.82955)
(-2.90582e-16 4.78904 -4.08888)
(-1.98019e-16 4.3993 -3.37747)
(-1.10022e-16 3.19391 -2.10946)
(-1.72347e-16 -4.75062 -3.4089)
(-1.2708e-16 -7.10102 -3.71932)
(-9.16532e-17 -7.40399 -3.91696)
(-6.70647e-17 -6.98947 -4.06176)
(-4.89537e-17 -6.15198 -4.16809)
(-3.61466e-17 -5.04407 -4.23679)
(-2.79474e-17 -3.74673 -4.26327)
(-2.38019e-17 -2.31654 -4.24604)
(-2.17695e-17 -0.880226 -4.20476)
(-2.35231e-17 0.573392 -4.10165)
(-1.39028e-17 2.4358 -3.79391)
(-7.14838e-17 4.29107 -3.04496)
(1.68302e-16 5.80276 -2.21365)
(-9.79686e-16 -0.126128 0.933426)
(-9.79982e-16 -0.172623 0.957985)
(-9.80048e-16 -0.156793 0.945949)
(-9.80218e-16 -0.137021 0.935343)
(-9.80415e-16 -0.122895 0.925651)
(-9.80582e-16 -0.126985 0.917751)
(-9.80718e-16 -0.110614 0.903223)
(-9.80826e-16 -0.0932951 0.873762)
(-9.80974e-16 -0.044337 0.847757)
(-9.81187e-16 -0.0102835 0.845509)
(-9.81343e-16 -0.0234438 0.833798)
(-9.81471e-16 -0.0280242 0.79676)
(-9.81605e-16 0.0458323 0.74425)
(-9.81724e-16 0.110842 0.7351)
(-9.81798e-16 0.0802233 0.741452)
(-9.81802e-16 0.0750849 0.730235)
(-9.8179e-16 0.0545673 0.735798)
(-9.81786e-16 0.0211903 0.753852)
(-9.81794e-16 -0.0276389 0.760216)
(-9.81802e-16 -0.0454908 0.757457)
(-9.81805e-16 -0.0671685 0.753609)
(-9.81803e-16 -0.0920613 0.741907)
(-9.818e-16 -0.0888275 0.743576)
(-9.81808e-16 -0.0990602 0.758289)
(-9.81831e-16 -0.132291 0.772348)
(-9.81866e-16 -0.161571 0.78329)
(-9.81896e-16 -0.19881 0.799594)
(-9.81876e-16 -0.252923 0.820561)
(-9.81736e-16 -0.325456 0.848217)
(-9.81364e-16 -0.42251 0.881697)
(-9.80621e-16 -0.548504 0.919554)
(-9.79374e-16 -0.710673 0.957911)
(-9.77544e-16 -0.91305 0.993114)
(-9.75154e-16 -1.15951 1.02269)
(-9.72436e-16 -1.4567 1.04616)
(-9.69939e-16 -1.82426 1.07493)
(-9.6838e-16 -2.3014 1.13274)
(-9.67889e-16 -2.89822 1.21252)
(-9.67507e-16 -3.58978 1.31358)
(-9.64525e-16 -4.28759 1.4169)
(-9.54257e-16 -4.75679 1.48241)
(-9.29258e-16 -4.5672 1.42148)
(-8.69759e-16 -3.43702 1.03781)
(-7.55093e-16 -2.18995 0.201189)
(-7.70187e-16 -2.34245 0.769002)
(-7.74803e-16 -1.93426 0.40656)
(-7.7715e-16 -1.98977 0.556688)
(-7.81444e-16 -1.4895 0.294214)
(-7.79872e-16 0.132886 -0.957422)
(-7.77538e-16 1.12635 -1.49517)
(-7.74989e-16 1.70319 -1.72284)
(-7.70698e-16 2.03378 -1.59725)
(-7.66983e-16 2.31687 -1.33652)
(-7.87471e-16 2.43675 -0.0748285)
(-5.83158e-16 -7.0443 -0.134455)
(-4.38568e-16 -10.8231 -0.363206)
(-2.4799e-16 -5.77574 -0.289494)
(-1.84508e-16 -2.4943 -0.588695)
(-1.74497e-16 -0.49902 -0.89422)
(-1.87277e-16 2.00991 -1.79462)
(-1.69573e-16 3.05519 -2.52868)
(-1.54355e-16 3.35422 -3.29571)
(-2.20606e-16 4.19752 -4.0925)
(-2.92058e-16 4.68558 -4.26935)
(-2.17329e-16 3.95817 -3.6839)
(-9.1764e-17 2.69644 -1.36739)
(-1.68497e-16 -3.82859 -3.03848)
(-1.31658e-16 -6.83437 -3.7816)
(-9.41942e-17 -7.35271 -4.02419)
(-6.88473e-17 -7.04748 -4.12112)
(-5.0487e-17 -6.27423 -4.18975)
(-3.74476e-17 -5.20379 -4.22867)
(-2.89914e-17 -3.93034 -4.22897)
(-2.45645e-17 -2.50622 -4.17803)
(-2.22927e-17 -1.0443 -4.06846)
(-2.42128e-17 0.518275 -3.91585)
(-1.52417e-17 2.28697 -3.57617)
(-7.41254e-17 4.04191 -2.86419)
(1.71842e-16 5.51537 -1.95471)
(-9.7971e-16 -0.144036 0.926042)
(-9.80043e-16 -0.187941 0.938731)
(-9.80154e-16 -0.175877 0.922045)
(-9.80344e-16 -0.150372 0.913865)
(-9.8053e-16 -0.14314 0.915699)
(-9.80688e-16 -0.146244 0.910825)
(-9.80816e-16 -0.135546 0.896853)
(-9.80939e-16 -0.120882 0.86777)
(-9.81116e-16 -0.0804078 0.841612)
(-9.81327e-16 -0.0441704 0.838844)
(-9.81459e-16 -0.0485057 0.830035)
(-9.81567e-16 -0.0452633 0.788665)
(-9.81681e-16 0.0130697 0.739633)
(-9.81775e-16 0.0635136 0.72992)
(-9.81812e-16 0.0556467 0.738826)
(-9.81799e-16 0.0537539 0.7383)
(-9.81788e-16 0.0445255 0.754457)
(-9.81796e-16 0.0195611 0.773772)
(-9.81813e-16 -0.0189189 0.779682)
(-9.81826e-16 -0.0447944 0.776849)
(-9.81832e-16 -0.0685263 0.771127)
(-9.81831e-16 -0.091501 0.760753)
(-9.81829e-16 -0.0908618 0.761824)
(-9.81838e-16 -0.10374 0.774465)
(-9.81862e-16 -0.126185 0.787429)
(-9.8189e-16 -0.16038 0.798923)
(-9.81893e-16 -0.199949 0.815071)
(-9.81824e-16 -0.255691 0.83648)
(-9.81614e-16 -0.3295 0.864424)
(-9.81156e-16 -0.428941 0.897357)
(-9.80324e-16 -0.556399 0.933372)
(-9.79004e-16 -0.719605 0.969522)
(-9.77129e-16 -0.92283 1.00201)
(-9.74741e-16 -1.16955 1.0284)
(-9.72091e-16 -1.46839 1.04951)
(-9.69733e-16 -1.84112 1.07851)
(-9.68317e-16 -2.32485 1.13567)
(-9.67908e-16 -2.92655 1.21404)
(-9.67469e-16 -3.61913 1.31272)
(-9.64242e-16 -4.30923 1.4142)
(-9.53549e-16 -4.75231 1.47491)
(-9.27184e-16 -4.49464 1.38402)
(-8.64068e-16 -3.25334 0.9411)
(-7.54337e-16 -2.05898 0.192366)
(-7.70496e-16 -2.30517 0.808885)
(-7.75028e-16 -1.86331 0.522793)
(-7.77729e-16 -1.90445 0.584471)
(-7.83085e-16 -1.29272 0.16192)
(-7.81602e-16 0.300576 -1.02716)
(-7.79405e-16 1.2147 -1.53686)
(-7.76793e-16 1.72059 -1.7416)
(-7.72314e-16 1.99131 -1.5845)
(-7.68219e-16 2.20778 -1.29764)
(-7.87723e-16 2.31576 -0.142374)
(-5.84033e-16 -7.0518 -0.119754)
(-4.39389e-16 -10.8389 -0.394831)
(-2.50406e-16 -5.78276 -0.34419)
(-1.85631e-16 -2.44722 -0.580319)
(-1.77428e-16 -0.350572 -0.993497)
(-1.85927e-16 2.16407 -2.03395)
(-1.69304e-16 3.1878 -2.70411)
(-1.58785e-16 3.47241 -3.45111)
(-2.25153e-16 4.26839 -4.24332)
(-2.88926e-16 4.66857 -4.36371)
(-2.25703e-16 3.85556 -3.87015)
(-8.31891e-17 2.29676 -1.57561)
(-1.63051e-16 -3.61082 -2.93)
(-1.37421e-16 -6.771 -3.8912)
(-9.77569e-17 -7.34299 -4.10314)
(-7.11226e-17 -7.02344 -4.14832)
(-5.24101e-17 -6.24045 -4.18365)
(-3.90953e-17 -5.16673 -4.19999)
(-3.03338e-17 -3.89536 -4.18152)
(-2.55867e-17 -2.48051 -4.1102)
(-2.30542e-17 -1.02703 -3.96965)
(-2.4987e-17 0.474279 -3.79728)
(-1.60392e-17 2.1921 -3.46504)
(-7.54094e-17 3.9052 -2.77282)
(1.75679e-16 5.3608 -1.83857)
(-9.79659e-16 -0.146564 0.927415)
(-9.80031e-16 -0.18202 0.926722)
(-9.80174e-16 -0.167703 0.911889)
(-9.80375e-16 -0.144379 0.908588)
(-9.80566e-16 -0.140591 0.911596)
(-9.80735e-16 -0.140534 0.903906)
(-9.8088e-16 -0.131537 0.886347)
(-9.81028e-16 -0.117835 0.856328)
(-9.81221e-16 -0.0801434 0.833323)
(-9.81422e-16 -0.04549 0.832843)
(-9.81543e-16 -0.0477198 0.822421)
(-9.81643e-16 -0.0355224 0.781532)
(-9.81742e-16 0.0164656 0.73843)
(-9.81807e-16 0.0661439 0.731174)
(-9.81813e-16 0.0700834 0.746592)
(-9.81793e-16 0.063707 0.754429)
(-9.8179e-16 0.0534172 0.773536)
(-9.81806e-16 0.0273602 0.79417)
(-9.8183e-16 -0.00970316 0.801394)
(-9.81849e-16 -0.0363526 0.799169)
(-9.81861e-16 -0.0607055 0.793491)
(-9.81862e-16 -0.0820645 0.783914)
(-9.8186e-16 -0.08825 0.783196)
(-9.81868e-16 -0.103272 0.793931)
(-9.81884e-16 -0.127813 0.806262)
(-9.81891e-16 -0.160232 0.817855)
(-9.81858e-16 -0.202348 0.834309)
(-9.81735e-16 -0.258574 0.856362)
(-9.81452e-16 -0.333475 0.883806)
(-9.80911e-16 -0.433634 0.915532)
(-9.79998e-16 -0.561908 0.949489)
(-9.78611e-16 -0.725243 0.983065)
(-9.767e-16 -0.927741 1.01247)
(-9.74322e-16 -1.17338 1.03541)
(-9.71751e-16 -1.47242 1.05422)
(-9.69534e-16 -1.84822 1.08314)
(-9.68263e-16 -2.33544 1.13917)
(-9.67929e-16 -2.93951 1.21569)
(-9.67423e-16 -3.63226 1.31173)
(-9.6395e-16 -4.31676 1.41075)
(-9.52795e-16 -4.73824 1.46545)
(-9.24768e-16 -4.42672 1.34588)
(-8.57857e-16 -3.12088 0.865195)
(-7.54302e-16 -1.98884 0.254247)
(-7.70878e-16 -2.30229 0.855009)
(-7.75454e-16 -1.86222 0.545457)
(-7.78377e-16 -1.8915 0.621311)
(-7.84897e-16 -1.08252 0.021348)
(-7.8348e-16 0.446561 -1.11499)
(-7.81397e-16 1.28103 -1.59513)
(-7.78728e-16 1.7189 -1.76839)
(-7.74091e-16 1.93867 -1.57565)
(-7.69637e-16 2.08981 -1.26683)
(-7.87723e-16 2.14753 -0.187421)
(-5.85113e-16 -7.02468 -0.110084)
(-4.40289e-16 -10.8245 -0.416727)
(-2.53105e-16 -5.76455 -0.383455)
(-1.87009e-16 -2.41687 -0.589592)
(-1.80971e-16 -0.173923 -1.10952)
(-1.88914e-16 2.33858 -2.15266)
(-1.71309e-16 3.32708 -2.87071)
(-1.64248e-16 3.63904 -3.63756)
(-2.30191e-16 4.37027 -4.4155)
(-2.87478e-16 4.61423 -4.48552)
(-2.31478e-16 3.64169 -4.00635)
(-8.07014e-17 2.13723 -1.89303)
(-1.54343e-16 -3.36859 -2.87585)
(-1.43122e-16 -6.65933 -3.96604)
(-1.02043e-16 -7.31349 -4.16679)
(-7.36311e-17 -6.98932 -4.16686)
(-5.44437e-17 -6.20137 -4.17153)
(-4.08527e-17 -5.12984 -4.16864)
(-3.1791e-17 -3.86828 -4.13537)
(-2.67374e-17 -2.47145 -4.05107)
(-2.39677e-17 -1.03828 -3.89479)
(-2.58825e-17 0.433002 -3.69716)
(-1.70426e-17 2.08532 -3.3472)
(-7.7066e-17 3.73608 -2.66811)
(1.81793e-16 5.15597 -1.78963)
(-9.79554e-16 -0.148738 0.936072)
(-9.79953e-16 -0.178066 0.923391)
(-9.80123e-16 -0.162708 0.910404)
(-9.80334e-16 -0.141783 0.907569)
(-9.80539e-16 -0.137279 0.908076)
(-9.80728e-16 -0.134559 0.897174)
(-9.80897e-16 -0.123938 0.877475)
(-9.81071e-16 -0.108202 0.849609)
(-9.81277e-16 -0.0727803 0.830984)
(-9.81474e-16 -0.041532 0.83004)
(-9.81603e-16 -0.0393725 0.816204)
(-9.81705e-16 -0.0219563 0.777695)
(-9.81789e-16 0.0260239 0.741381)
(-9.81825e-16 0.068789 0.73941)
(-9.8181e-16 0.0716341 0.761005)
(-9.81789e-16 0.0619584 0.774167)
(-9.8179e-16 0.0486509 0.795116)
(-9.8181e-16 0.0220796 0.816624)
(-9.81838e-16 -0.0122168 0.8252)
(-9.81862e-16 -0.0365915 0.823769)
(-9.81878e-16 -0.0596686 0.818017)
(-9.81883e-16 -0.0795158 0.809082)
(-9.81881e-16 -0.0873811 0.806936)
(-9.81882e-16 -0.102621 0.815533)
(-9.81883e-16 -0.129492 0.827318)
(-9.81861e-16 -0.163412 0.839638)
(-9.81783e-16 -0.206221 0.856576)
(-9.81602e-16 -0.264042 0.878883)
(-9.81248e-16 -0.340092 0.905586)
(-9.80629e-16 -0.440167 0.93582)
(-9.79642e-16 -0.56848 0.967523)
(-9.78199e-16 -0.731244 0.998272)
(-9.76262e-16 -0.932684 1.02426)
(-9.73906e-16 -1.1776 1.0437)
(-9.71423e-16 -1.47722 1.06038)
(-9.69351e-16 -1.85667 1.08894)
(-9.68219e-16 -2.34791 1.14339)
(-9.67951e-16 -2.95544 1.21745)
(-9.67367e-16 -3.65018 1.31001)
(-9.63651e-16 -4.33112 1.40501)
(-9.52004e-16 -4.73163 1.45103)
(-9.22125e-16 -4.37121 1.30432)
(-8.51834e-16 -3.03547 0.800369)
(-7.54455e-16 -2.00369 0.305234)
(-7.71553e-16 -2.32702 0.871131)
(-7.75265e-16 -1.86659 0.549247)
(-7.79258e-16 -1.84875 0.674479)
(-7.86788e-16 -0.870562 -0.127221)
(-7.85356e-16 0.588414 -1.20587)
(-7.83351e-16 1.34599 -1.65855)
(-7.80625e-16 1.71612 -1.80201)
(-7.75843e-16 1.88012 -1.57838)
(-7.71098e-16 1.97342 -1.24997)
(-7.87653e-16 1.99878 -0.230687)
(-5.86317e-16 -6.98322 -0.0995029)
(-4.41193e-16 -10.7944 -0.431042)
(-2.55868e-16 -5.74387 -0.41609)
(-1.88586e-16 -2.35321 -0.610219)
(-1.84093e-16 0.00212517 -1.26764)
(-1.92339e-16 2.49585 -2.26979)
(-1.74359e-16 3.4748 -3.03285)
(-1.70342e-16 3.79789 -3.83192)
(-2.35169e-16 4.45666 -4.58041)
(-2.85414e-16 4.56601 -4.59019)
(-2.34556e-16 3.46377 -4.12891)
(-8.40367e-17 1.93834 -2.18812)
(-1.42317e-16 -3.1139 -2.81612)
(-1.47916e-16 -6.52589 -4.00623)
(-1.06929e-16 -7.30022 -4.21849)
(-7.63711e-17 -6.98697 -4.18036)
(-5.65302e-17 -6.1971 -4.15522)
(-4.2658e-17 -5.12836 -4.13424)
(-3.33133e-17 -3.87577 -4.08797)
(-2.79739e-17 -2.49528 -3.9933)
(-2.49942e-17 -1.07492 -3.82673)
(-2.68727e-17 0.37786 -3.6046)
(-1.80342e-17 1.98086 -3.24079)
(-7.87964e-17 3.58089 -2.57464)
(1.92799e-16 4.95935 -1.63348)
(-9.79411e-16 -0.149238 0.951475)
(-9.79831e-16 -0.175286 0.928738)
(-9.80025e-16 -0.159784 0.915632)
(-9.8025e-16 -0.14091 0.910142)
(-9.80469e-16 -0.135752 0.906534)
(-9.80679e-16 -0.13119 0.892832)
(-9.80874e-16 -0.119996 0.872342)
(-9.81074e-16 -0.103281 0.847261)
(-9.81296e-16 -0.0701585 0.831354)
(-9.81502e-16 -0.0410867 0.827892)
(-9.81646e-16 -0.0342031 0.811982)
(-9.81752e-16 -0.0145768 0.777916)
(-9.81821e-16 0.0275247 0.75006)
(-9.81834e-16 0.0623361 0.754919)
(-9.81806e-16 0.0642472 0.78127)
(-9.81784e-16 0.0543504 0.798414)
(-9.81783e-16 0.0416647 0.820461)
(-9.81801e-16 0.0170668 0.841876)
(-9.81829e-16 -0.0145099 0.851012)
(-9.81856e-16 -0.0381758 0.850037)
(-9.81875e-16 -0.0597971 0.843801)
(-9.81883e-16 -0.0794851 0.835261)
(-9.8188e-16 -0.0900569 0.832862)
(-9.81871e-16 -0.105375 0.840307)
(-9.81849e-16 -0.13163 0.851598)
(-9.81792e-16 -0.166801 0.864473)
(-9.81666e-16 -0.210597 0.881763)
(-9.81425e-16 -0.269546 0.903745)
(-9.81002e-16 -0.346445 0.929421)
(-9.80312e-16 -0.446917 0.957985)
(-9.7926e-16 -0.575117 0.987298)
(-9.7777e-16 -0.737258 1.01497)
(-9.75818e-16 -0.93761 1.0373)
(-9.73496e-16 -1.18197 1.05331)
(-9.7111e-16 -1.4829 1.06804)
(-9.69184e-16 -1.8664 1.09592)
(-9.68185e-16 -2.36212 1.14833)
(-9.67972e-16 -2.97362 1.21931)
(-9.67302e-16 -3.67063 1.30766)
(-9.63358e-16 -4.3471 1.39737)
(-9.51202e-16 -4.72339 1.43246)
(-9.19278e-16 -4.31125 1.25935)
(-8.45607e-16 -2.94811 0.740058)