/*--------------------------------*- C++ -*----------------------------------*\
| =========                 |                                                 |
| \\      /  F ield         | OpenFOAM: The Open Source CFD Toolbox           |
|  \\    /   O peration     | Version:  4.1                                   |
|   \\  /    A nd           | Web:      www.OpenFOAM.org                      |
|    \\/     M anipulation  |                                                 |
\*---------------------------------------------------------------------------*/
FoamFile
{
    version     2.0;
    format      ascii;
    class       surfaceScalarField;
    location    "11";
    object      phi;
}
// * * * * * * * * * * * * * * * * * * * * * * * * * * * * * * * * * * * * * //

dimensions      [0 3 -1 0 0 0 0];

internalField   nonuniform List<scalar> 
13220
(
-817.609
2117.51
-1274.11
1756.7
-1730.72
1756.51
-2069.44
1638.61
-2341
1571.76
-2535.52
1494.42
-2658.48
1422.86
-2710.53
1352.24
-2694.89
1284.26
-2609.98
1214.99
-2447.11
1137.33
-2174.09
1026.88
-1710.8
836.606
-980.13
569.532
319.77
-167.584
2285.09
-387.858
1976.97
-654.258
2022.91
-870.09
1854.44
-1081.6
1783.27
-1257.25
1670.07
-1409.43
1575.04
-1533.41
1476.21
-1633.94
1384.79
-1705.89
1286.94
-1713.86
1145.3
-1556.45
869.468
-1096.56
376.716
-455.792
-71.2399
-136.022
-146.583
2431.67
-365.727
2196.12
-527.606
2184.79
-628.056
1954.89
-716.12
1871.34
-762.465
1716.41
-785.344
1597.92
-780.678
1471.54
-750.829
1354.94
-697.129
1233.24
-621.868
1070.04
-518.176
765.768
-370.893
229.418
-256.275
-185.877
-392.297
95.2942
2336.38
59.8397
2231.57
89.0886
2155.54
143.403
1900.57
204.218
1810.52
281.759
1638.87
372.635
1507.04
477.935
1366.24
596.355
1236.51
719.479
1110.12
818.046
971.468
800.278
783.536
533.596
496.1
111.524
236.193
-280.773
139.779
2196.6
169.139
2202.21
238.838
2085.84
316.589
1822.82
394.13
1732.98
478.286
1554.71
561.342
1423.98
642.057
1285.52
716.118
1162.45
779.563
1046.67
819.603
931.429
791.302
811.832
627.871
659.528
367.592
496.467
86.8188
67.4632
2129.13
121.325
2148.35
177.138
2030.02
232.962
1767
284.844
1681.1
347.855
1491.7
414.521
1357.32
508.203
1191.84
620.801
1049.86
727.723
939.748
787.046
872.106
762.717
836.166
614.008
808.242
364.646
745.838
451.465
-36.0459
2165.18
-13.5086
2125.81
-6.39737
2022.91
-29.6973
1790.3
-53.8333
1705.23
-86.0455
1523.91
-92.5064
1363.78
-21.0795
1120.42
133.637
895.14
334.844
738.541
515.981
690.97
599.32
752.824
521.48
886.079
304.827
962.487
756.292
-104.928
2270.11
-248.76
2269.64
-360.963
2135.12
-512.322
1941.65
-669.033
1861.94
-846.075
1700.96
-1012.37
1530.08
-1130.99
1239.03
-1175.1
939.249
-1123.93
687.378
-953.388
520.425
-659.155
458.596
-317.205
544.134
-69.9203
715.209
686.372
71.8894
2198.22
-147.673
2489.2
-303.971
2291.41
-442.283
2079.97
-572.616
1992.28
-713.744
1842.08
-878.127
1694.46
-1085.28
1446.19
-1317.12
1171.09
-1524.42
894.672
-1630.65
626.661
-1530.04
357.976
-1137.42
151.519
-515.35
93.1314
171.022
322.11
1876.11
245.285
2566.03
152.307
2384.39
119.038
2113.24
130.932
1980.38
143.872
1829.15
142.815
1695.52
77.6552
1511.35
-53.6692
1302.42
-228.953
1069.96
-420.076
817.786
-598.411
536.318
-656.606
209.722
-478.978
-84.4869
-307.956
368.101
1508.01
442.621
2491.51
446.588
2380.43
495.358
2064.47
596.049
1879.7
706.428
1718.77
817.785
1584.16
895.454
1433.68
924.285
1273.59
891.286
1102.96
789.859
919.215
604.575
721.602
327.937
486.36
24.4604
218.991
-283.495
227.803
1280.21
324.113
2395.2
368.305
2336.24
415.436
2017.34
486.59
1808.54
563.053
1642.31
640.033
1507.19
701.481
1372.23
739.918
1235.15
746.713
1096.16
714.565
951.364
634.534
801.637
490.389
630.511
275.06
434.332
-8.43478
139.798
1140.41
247.569
2287.43
342.875
2240.93
444.225
1915.99
550.979
1701.79
642.231
1551.05
711.19
1438.23
753.661
1329.76
765.045
1223.77
744.217
1116.99
688.238
1007.34
594.657
895.218
458.458
766.71
270.815
621.978
262.38
209.475
930.936
346.59
2150.32
340.69
2246.83
273.616
1983.06
229.583
1745.82
214.621
1566.02
228.644
1424.21
265.546
1292.86
320.932
1168.38
388.953
1048.97
459.64
936.657
497.628
857.231
437.49
826.85
266.216
793.253
528.596
380.703
1317.6
2044.81
2356.82
2395.24
2336.68
2159.04
1935.82
1691.05
1443.81
1168.99
889.327
616.191
328.68
-7.58344e-06
-228.711
228.711
-228.711
-228.711
-228.711
288.895
-517.605
288.895
288.895
288.895
701.109
-412.214
701.109
701.109
1016.55
-315.445
1016.55
1016.55
1016.55
1230.82
-214.271
1230.82
1230.82
1350.06
-119.238
1350.06
1350.06
1350.06
1371.91
-21.8457
1371.91
1371.91
1371.91
1309.81
62.101
1309.81
1309.81
1180.07
129.738
1180.07
1180.07
1180.07
994.891
185.178
994.891
994.891
778.906
215.985
778.906
778.906
778.906
562.681
216.225
562.681
562.681
562.681
408.378
154.302
408.378
408.378
359.227
49.1519
359.227
359.226
359.226
229.36
129.867
229.36
229.36
229.36
37.872
191.488
37.8719
37.8719
-121.37
159.242
-121.37
-121.37
-121.37
-630.412
509.042
-630.412
-630.412
-1621.31
990.898
-1621.31
-1621.31
-1621.31
-3075.55
1454.24
-3075.55
-3075.55
-3075.55
-4888.07
1812.53
-4888.07
-4888.07
-6983.32
2095.25
-6983.32
-6983.32
-6827.75
-6672.36
-6513.76
-8698.05
2347.49
-8531.17
-8342.81
-8142.39
-7940.2
-7735.82
-7529.33
-7325.01
-7123.1
-9506.3
2582.83
-9295.68
-9084.27
-8872.48
-8663.73
-8451.4
-8236.52
-8020.7
-7803.83
-10236.8
2645.62
-10008.5
-9778.94
-9548.96
-9319.48
-9085.3
-8841.04
-8595.62
-8348.5
-8100.97
-10376
2509.25
-10113.6
-9849.84
-9584.87
-9319.5
-9053.26
-8772.61
-8483.34
-8193.5
-10226.6
2307.52
-9941.84
-9650.07
-9347.16
-9045.74
-8745.26
-8446.73
-8148.81
-7832.76
-9336.15
1803.54
-9032.05
-8729.76
-8427.96
-8110.84
-7787.2
-7464.63
-7141.69
-6821.45
-7798.61
1294.66
-7471.26
-7151.88
-6839.71
-6536.68
-6243.55
-5941.52
-5650.32
-5367.68
-5094.32
-4802.82
-8.43824
-4554.42
-4320.55
-4090.08
-3864.12
-3641.67
-3460.73
-3359.2
-3256.27
-2861.56
-283.219
-2766.43
-2674.5
-2674.5
-2462.63
-211.867
-2255.16
-207.47
-2255.16
-2085.9
-169.263
-2085.9
-1949.12
-136.779
-1840.85
-108.267
-1840.85
-1750.33
-90.5264
-1678.92
-71.4084
-1678.92
-1618.69
-60.2266
-1618.69
-1573.75
-44.9462
-1537.95
-35.7909
-1537.95
-1508.79
-29.1631
-1508.79
-1489.73
-19.0593
-1471.21
-18.5258
-1471.21
-1458.49
-12.7158
-1444.42
-14.0751
-1444.42
-1430.87
-13.5495
-1430.87
-1420.12
-10.7506
-1405.64
-14.4788
-1405.64
-1390.04
-15.6005
-1390.04
-1376.45
-13.5898
-1357.82
-18.6237
-1357.82
-1340.07
-17.748
-1318.83
-21.2451
-1318.83
-1296.04
-22.7915
-1296.04
-1274.18
-21.8546
-1248.54
-25.6429
-1248.54
-1220.65
-27.8876
-1220.65
-1193.15
-27.5001
-1160.97
-32.1846
-1160.97
-1127.31
-33.6547
-1090.54
-36.7723
-1090.54
-1050.7
-39.8438
-1050.7
-1009.34
-41.3579
-964.932
-44.4069
-964.932
-916.368
-48.5645
-916.368
-865.073
-51.2944
-810.697
-54.3765
-810.697
-750.745
-59.9519
-689.866
-60.8791
-689.866
-624.086
-65.7797
-624.086
-553.726
-70.3598
-483.582
-70.1448
-483.582
-407.884
-75.6978
-407.884
-325.829
-82.0552
-244.273
-81.5558
-244.273
-152.649
-91.6239
-63.6071
-89.0418
-63.6071
29.2727
-92.8798
29.2727
-73.2841
-67.0335
-296.842
-67.0897
-352.958
-67.512
-386.468
-68.0572
-420.244
-68.8132
-452.565
-69.714
-483.187
-70.7818
-512.958
-71.9966
-541.704
-73.362
-569.76
-74.8695
-597.14
-76.5172
-623.976
-78.2992
-650.303
-80.2113
-676.171
-82.2483
-701.594
-84.405
-726.582
-86.6767
-751.131
-89.0586
-775.237
-91.5471
-798.9
-94.1391
-822.131
-96.8328
-844.956
-99.6274
-867.419
-102.523
-889.582
-105.52
-911.523
-108.62
-933.322
-111.823
-955.058
-115.128
-976.795
-118.538
-998.59
-122.053
-1020.5
-125.679
-1042.62
-129.423
-1065.09
-133.297
-1088.11
-137.309
-1111.97
-141.463
-1136.89
-145.756
-1163.05
-150.169
-1190.43
-154.675
-1218.84
-159.234
-1247.96
-163.796
-1277.35
-168.31
-1306.5
-172.725
-1334.9
-177.001
-1362.13
-181.113
-1387.91
-185.063
-1412.24
-188.883
-1435.29
-192.644
-1457.36
-196.464
-1478.48
-200.512
-1498.12
-204.985
-1514.9
-210.033
-1526.66
-215.605
-1530.62
-221.273
-1523.46
-226.075
-1501.13
-228.532
-1458.01
-226.912
-1387.81
-218.78
-1289.82
-190.954
-1134.76
-108.739
-664.577
-26.3627
388.261
7.22847
1020.97
29.2025
1373.68
43.9753
1717.35
50.8447
2052.86
54.5809
2400.49
56.3927
2737.25
56.7432
3025.68
56.6532
3254.16
56.4164
3408.66
56.208
3479.39
55.3963
3457.28
54.6029
3373.93
51.9959
3182.09
49.8205
2991.93
44.3977
2668.63
43.9589
2605.92
38.1435
2149.78
43.426
2556.2
50.0341
1936.94
55.7259
2515.26
4184.92
-71.4744
-297.216
-71.4044
-353.028
-71.7807
-386.092
-72.2972
-419.728
-73.0523
-451.81
-73.9662
-482.273
-75.0622
-511.862
-76.3157
-540.451
-77.7296
-568.346
-79.2933
-595.576
-81.0035
-622.266
-82.8529
-648.454
-84.8363
-674.188
-86.9472
-699.483
-89.1801
-724.349
-91.5296
-748.781
-93.9913
-772.775
-96.5618
-796.33
-99.2391
-819.454
-102.023
-842.172
-104.913
-864.529
-107.91
-886.584
-111.018
-908.416
-114.235
-930.105
-117.562
-951.73
-121
-973.357
-124.549
-995.041
-128.213
-1016.84
-132
-1038.83
-135.922
-1061.17
-139.992
-1084.04
-144.222
-1107.74
-148.61
-1132.51
-153.144
-1158.52
-157.797
-1185.77
-162.529
-1214.11
-167.29
-1243.2
-172.027
-1272.62
-176.684
-1301.85
-181.218
-1330.37
-185.605
-1357.74
-189.854
-1383.66
-194.026
-1408.06
-198.247
-1431.07
-202.733
-1452.87
-207.793
-1473.42
-213.82
-1492.09
-221.202
-1507.52
-230.137
-1517.73
-240.367
-1520.39
-250.951
-1512.88
-260.193
-1491.89
-265.824
-1452.38
-265.469
-1388.17
-256.557
-1298.73
-225.421
-1165.89
-121.63
-768.368
-16.8672
283.498
11.4897
992.612
31.9383
1353.23
46.1902
1703.1
52.2145
2046.83
55.0904
2397.62
56.0189
2736.33
55.7798
3025.92
55.268
3254.68
54.7638
3409.16
54.5242
3479.63
53.736
3458.07
53.1239
3374.54
50.7292
3184.49
48.824
2993.83
43.6667
2673.79
43.4275
2606.16
37.8118
2155.4
43.0745
2550.94
49.8245
1930.19
56.74
2508.34
4148.78
-73.8694
-297.665
-73.7546
-353.142
-74.1034
-385.743
-74.6087
-419.222
-75.3642
-451.054
-76.2876
-481.349
-77.4003
-510.749
-78.6767
-539.174
-80.1184
-566.905
-81.714
-593.981
-83.4593
-620.521
-85.3463
-646.567
-87.3692
-672.165
-89.521
-697.332
-91.796
-722.074
-94.1885
-746.389
-96.6945
-770.269
-99.3111
-793.713
-102.037
-816.728
-104.871
-839.338
-107.817
-861.583
-110.874
-883.527
-114.045
-905.245
-117.33
-926.82
-120.73
-948.33
-124.244
-969.843
-127.874
-991.412
-131.623
-1013.09
-135.503
-1034.95
-139.528
-1057.14
-143.715
-1079.86
-148.071
-1103.38
-152.595
-1127.98
-157.267
-1153.85
-162.055
-1180.99
-166.912
-1209.25
-171.785
-1238.33
-176.617
-1267.78
-181.355
-1297.11
-185.962
-1325.76
-190.434
-1353.27
-194.819
-1379.28
-199.247
-1403.64
-203.959
-1426.36
-209.327
-1447.5
-215.852
-1466.89
-224.09
-1483.85
-234.472
-1497.14
-247.014
-1505.18
-261.024
-1506.38
-274.944
-1498.96
-286.465
-1480.37
-292.879
-1445.96
-291.657
-1389.39
-280.658
-1309.73
-249.152
-1197.4
-149.54
-867.98
-15.046
149.005
19.1717
958.395
35.5712
1336.83
49.706
1688.96
54.6563
2041.88
56.2149
2396.06
55.882
2736.66
54.672
3027.13
53.4686
3255.88
52.5205
3410.11
52.1318
3480.02
51.3652
3458.84
50.9504
3374.96
48.8562
3186.58
47.3143
2995.37
42.5147
2678.59
42.5534
2606.12
37.2184
2160.73
42.3496
2545.81
49.4912
1923.05
56.5278
2501.3
4116.26
-76.7101
-298.185
-76.5531
-353.299
-76.8778
-385.418
-77.3746
-418.726
-78.1347
-450.294
-79.0728
-480.411
-80.2088
-509.614
-81.5154
-537.868
-82.9932
-565.427
-84.6299
-592.344
-86.4202
-618.73
-88.3554
-644.631
-90.4288
-670.092
-92.6329
-695.127
-94.9615
-719.746
-97.409
-743.941
-99.9712
-767.707
-102.646
-791.039
-105.432
-813.942
-108.33
-836.439
-111.343
-858.571
-114.473
-880.397
-117.721
-901.996
-121.09
-923.451
-124.578
-944.843
-128.184
-966.236
-131.911
-987.685
-135.765
-1009.24
-139.757
-1030.96
-143.906
-1052.99
-148.23
-1075.53
-152.739
-1098.87
-157.427
-1123.29
-162.267
-1149.01
-167.222
-1176.03
-172.238
-1204.23
-177.256
-1233.31
-182.215
-1262.83
-187.065
-1292.26
-191.781
-1321.05
-196.389
-1348.66
-201.001
-1374.66
-205.861
-1398.78
-211.382
-1420.84
-218.168
-1440.72
-226.949
-1458.11
-238.415
-1472.39
-252.902
-1482.65
-270.022
-1488.06
-288.411
-1487.99
-305.764
-1481.6
-319.178
-1466.96
-325.64
-1439.5
-322.677
-1392.35
-308.799
-1323.61
-276.408
-1229.79
-187.478
-956.911
-25.9052
-12.5678
27.3671
905.122
41.0562
1323.14
54.3943
1675.62
58.2231
2038.05
58.0586
2396.22
56.0252
2738.69
53.4793
3029.68
51.3089
3258.05
49.726
3411.69
49.0834
3480.66
48.3115
3459.61
48.1114
3375.16
46.3942
3188.3
45.2995
2996.47
40.9742
2682.91
41.3655
2605.73
36.3975
2165.7
41.472
2540.73
48.7927
1915.73
55.3252
2494.77
4079.97
-79.4357
-298.754
-79.2526
-353.482
-79.5586
-385.112
-80.0522
-418.232
-80.8201
-449.526
-81.7755
-479.456
-82.9367
-508.452
-84.2753
-536.529
-85.7907
-563.911
-87.4696
-590.665
-89.306
-616.894
-91.2902
-642.647
-93.4149
-667.967
-95.672
-692.87
-98.0549
-717.363
-100.558
-741.438
-103.177
-765.088
-105.91
-788.306
-108.756
-811.096
-111.719
-833.477
-114.8
-855.49
-118.003
-877.195
-121.33
-898.669
-124.782
-919.999
-128.358
-941.266
-132.058
-962.537
-135.882
-983.86
-139.839
-1005.28
-143.943
-1026.86
-148.216
-1048.72
-152.677
-1071.07
-157.339
-1094.21
-162.191
-1118.44
-167.202
-1144
-172.326
-1170.91
-177.503
-1199.05
-182.67
-1228.14
-187.763
-1257.73
-192.737
-1287.28
-197.589
-1316.19
-202.396
-1343.85
-207.371
-1369.69
-212.928
-1393.22
-219.729
-1414.04
-228.66
-1431.79
-240.67
-1446.1
-256.444
-1456.61
-275.966
-1463.13
-298.141
-1465.89
-320.734
-1465.4
-340.703
-1461.64
-354.752
-1452.91
-359.859
-1434.39
-353.846
-1398.37
-336.067
-1341.39
-302.194
-1263.66
-220.054
-1039.05
-47.0084
-185.614
34.4706
823.643
49.2756
1308.33
60.5614
1664.34
63.0598
2035.56
60.7819
2398.5
56.524
2742.95
52.2068
3033.99
48.7422
3261.51
46.3019
3414.13
45.2828
3481.68
44.4665
3460.42
44.5071
3375.12
43.2354
3189.57
42.7029
2997
38.9465
2686.67
39.8385
2604.84
35.2715
2170.27
40.4242
2535.58
47.6895
1908.47
53.7439
2488.72
4052.15
-82.1769
-299.357
-81.9782
-353.681
-82.2713
-384.819
-82.7668
-417.736
-83.5461
-448.747
-84.5224
-478.479
-85.7121
-507.263
-87.0859
-535.155
-88.6421
-562.355
-90.3666
-588.941
-92.2523
-615.008
-94.2889
-640.611
-96.4683
-665.787
-98.7818
-690.557
-101.222
-714.922
-103.784
-738.877
-106.463
-762.409
-109.258
-785.511
-112.169
-808.185
-115.199
-830.447
-118.352
-852.337
-121.631
-873.915
-125.04
-895.26
-128.58
-916.46
-132.249
-937.597
-136.045
-958.74
-139.972
-979.933
-144.036
-1001.21
-148.256
-1022.64
-152.656
-1044.32
-157.261
-1066.47
-162.082
-1089.39
-167.106
-1113.42
-172.296
-1138.81
-177.599
-1165.61
-182.949
-1193.7
-188.277
-1222.81
-193.52
-1252.49
-198.646
-1282.16
-203.689
-1311.15
-208.811
-1338.73
-214.383
-1364.12
-221.069
-1386.53
-229.854
-1405.25
-241.924
-1419.72
-258.344
-1429.68
-279.539
-1435.42
-304.79
-1437.88
-332.018
-1438.66
-358.068
-1439.35
-379.36
-1440.34
-392.549
-1439.72
-394.914
-1432.03
-384.735
-1408.54
-362.171
-1363.95
-325.829
-1300.01
-247.341
-1117.54
-65.9924
-366.962
40.8753
716.776
59.9147
1289.29
68.4825
1655.77
69.2122
2034.83
64.4882
2403.22
57.4927
2749.95
50.9475
3040.54
45.8397
3266.62
42.3044
3417.67
40.7666
3483.22
39.853
3461.34
40.1468
3374.82
39.3787
3190.34
39.5107
2996.87
36.415
2689.76
37.9432
2603.31
33.8242
2174.39
39.17
2530.24
46.3365
1901.3
51.6166
2483.44
4021.71
-84.908
-299.981
-84.7038
-353.885
-84.9896
-384.533
-85.4918
-417.234
-86.2862
-447.952
-87.2868
-477.479
-88.5081
-506.041
-89.9201
-533.743
-91.5201
-560.755
-93.293
-587.168
-95.2311
-613.07
-97.323
-638.519
-99.56
-663.551
-101.933
-688.184
-104.434
-712.421
-107.057
-736.253
-109.8
-759.667
-112.659
-782.652
-115.637
-805.207
-118.737
-827.347
-121.964
-849.11
-125.323
-870.556
-128.818
-891.766
-132.448
-912.829
-136.213
-933.832
-140.111
-954.842
-144.143
-975.902
-148.318
-997.039
-152.657
-1018.3
-157.188
-1039.79
-161.94
-1061.71
-166.926
-1084.4
-172.129
-1108.22
-177.506
-1133.43
-182.997
-1160.11
-188.531
-1188.17
-194.034
-1217.31
-199.45
-1247.07
-204.772
-1276.84
-210.101
-1305.82
-215.737
-1333.09
-222.29
-1357.56
-230.763
-1378.06
-242.514
-1393.5
-258.97
-1403.26
-281.068
-1407.59
-308.584
-1407.9
-339.734
-1406.73
-371.316
-1407.08
-399.43
-1411.23
-420.34
-1419.43
-431.046
-1429.01
-429.388
-1433.69
-414.156
-1423.78
-386.111
-1392
-346.407
-1339.71
-270.71
-1193.24
-83.7391
-553.932
47.0314
586.005
71.886
1264.44
78.4695
1649.19
76.8167
2036.48
69.256
2410.79
59.0465
2760.15
49.8059
3049.78
42.6872
3273.74
37.8025
3422.55
35.5865
3485.44
34.5053
3462.42
35.0507
3374.28
34.8323
3190.56
35.7183
2995.98
33.3736
2692.11
35.6639
2601.02
32.0504
2178
37.7
2524.59
44.7762
1894.22
49.052
2479.16
3995.07
-87.6385
-300.616
-87.4371
-354.086
-87.7214
-384.249
-88.2351
-416.721
-89.0484
-447.139
-90.077
-476.45
-91.3331
-504.785
-92.7866
-532.29
-94.4336
-559.108
-96.2581
-585.343
-98.2516
-611.077
-100.402
-636.368
-102.7
-661.253
-105.135
-685.749
-107.7
-709.856
-110.389
-733.565
-113.197
-756.859
-116.124
-779.725
-119.172
-802.158
-122.345
-824.173
-125.65
-845.805
-129.093
-867.114
-132.676
-888.183
-136.401
-909.104
-140.266
-929.967
-144.269
-950.84
-148.409
-971.761
-152.699
-992.75
-157.16
-1013.84
-161.827
-1035.12
-166.731
-1056.81
-171.888
-1079.24
-177.278
-1102.83
-182.852
-1127.85
-188.543
-1154.42
-194.274
-1182.44
-199.972
-1211.61
-205.597
-1241.45
-211.192
-1271.24
-216.974
-1300.04
-223.462
-1326.61
-231.601
-1349.42
-242.815
-1366.85
-258.815
-1377.5
-281.061
-1381.01
-309.96
-1378.69
-344.193
-1373.67
-380.652
-1370.27
-415.135
-1372.59
-443.408
-1382.96
-462.061
-1400.78
-468.77
-1422.3
-462.073
-1440.38
-441.226
-1444.62
-407.305
-1425.92
-363.357
-1383.66
-290
-1266.59
-101.619
-742.313
52.0555
432.33
84.4047
1232.09
90.7832
1642.81
86.177
2041.08
75.1926
2421.77
61.2871
2774.06
48.8712
3062.19
39.3453
3283.27
32.8356
3429.06
29.7652
3488.51
28.43
3463.75
29.2152
3373.49
29.5839
3190.19
31.3082
2994.26
29.8013
2693.61
32.9851
2597.84
29.9336
2181.05
36.0125
2518.51
42.9927
1887.24
46.6782
2475.48
3971.6
-90.3698
-301.252
-90.1788
-354.277
-90.4672
-383.961
-90.9972
-416.191
-91.8333
-446.303
-92.8934
-475.39
-94.1878
-503.491
-95.6861
-530.791
-97.3832
-557.411
-99.2627
-583.464
-101.315
-609.024
-103.527
-634.156
-105.889
-658.891
-108.39
-683.247
-111.022
-707.224
-113.779
-730.808
-116.656
-753.982
-119.654
-776.727
-122.776
-799.037
-126.026
-820.923
-129.412
-842.419
-132.94
-863.585
-136.616
-884.507
-140.44
-905.28
-144.41
-925.998
-148.521
-946.728
-152.775
-967.507
-157.182
-988.342
-161.77
-1009.25
-166.575
-1030.32
-171.637
-1051.75
-176.972
-1073.91
-182.557
-1097.24
-188.338
-1122.07
-194.242
-1148.52
-200.187
-1176.49
-206.111
-1205.69
-212.007
-1235.55
-218.015
-1265.23
-224.541
-1293.51
-232.426
-1318.72
-243.058
-1338.79
-258.302
-1351.6
-280.065
-1355.74
-309.447
-1351.63
-345.803
-1342.33
-386.333
-1333.14
-426.634
-1329.97
-461.922
-1337.31
-488.204
-1356.68
-502.823
-1386.16
-504.311
-1420.82
-491.895
-1452.8
-465.2
-1471.32
-425.344
-1465.77
-376.415
-1432.59
-305.103
-1337.91
-124.078
-923.338
54.5775
253.675
97.6158
1189.05
105.443
1634.98
97.639
2048.89
82.4771
2436.93
64.3017
2792.24
48.2227
3078.27
35.867
3295.62
27.4357
3437.49
23.3212
3492.62
21.6327
3465.44
22.6373
3372.49
23.6243
3189.2
26.2658
2991.62
25.6806
2694.2
29.893
2593.62
27.4606
2183.48
34.0995
2511.87
41.0768
1880.27
43.5568
2473
3944.8
-93.1051
-301.879
-92.9311
-354.451
-93.2292
-383.663
-93.7802
-415.64
-94.6431
-445.44
-95.7385
-474.295
-97.0746
-502.155
-98.6212
-529.245
-100.372
-555.66
-102.31
-581.526
-104.424
-606.91
-106.702
-631.878
-109.131
-656.461
-111.702
-680.677
-114.404
-704.521
-117.232
-727.98
-120.182
-751.031
-123.255
-773.655
-126.452
-795.839
-129.782
-817.593
-133.253
-838.948
-136.872
-859.966
-140.644
-880.734
-144.571
-901.353
-148.649
-921.92
-152.874
-942.504
-157.245
-963.136
-161.774
-983.812
-166.492
-1004.53
-171.441
-1025.37
-176.666
-1046.52
-182.186
-1068.39
-187.977
-1091.45
-193.977
-1116.07
-200.108
-1142.39
-206.293
-1170.31
-212.492
-1199.49
-218.774
-1229.27
-225.439
-1258.57
-233.193
-1285.76
-243.321
-1308.59
-257.716
-1324.4
-278.583
-1330.73
-307.659
-1326.66
-345.118
-1314.17
-388.747
-1298.7
-434.155
-1287.73
-476.035
-1288.09
-509.683
-1303.66
-531.903
-1334.46
-541.042
-1377.02
-536.479
-1425.38
-518.011
-1471.27
-485.525
-1503.81
-440.001
-1511.3
-385.717
-1486.87
-316.227
-1407.39
-162.702
-1076.86
46.3628
44.6105
112.022
1123.39
122.055
1624.95
111.396
2059.55
91.3889
2456.94
68.1912
2815.43
47.9335
3098.53
32.3072
3311.25
21.6386
3448.16
16.2785
3497.98
14.127
3467.59
15.3217
3371.29
16.9526
3187.57
20.5838
2987.99
21.0018
2693.78
26.3792
2588.25
24.6229
2185.24
31.9559
2504.54
39.015
1873.21
40.2051
2471.81
3919.22
-95.8472
-302.491
-95.6961
-354.603
-96.0093
-383.349
-96.5861
-415.063
-97.4798
-444.546
-98.6143
-473.16
-99.9959
-500.773
-101.594
-527.646
-103.402
-553.852
-105.402
-579.526
-107.582
-604.73
-109.928
-629.532
-112.429
-653.96
-115.073
-678.033
-117.85
-701.745
-120.753
-725.077
-123.779
-748.005
-126.928
-770.505
-130.206
-792.562
-133.62
-814.18
-137.178
-835.39
-140.891
-856.254
-144.764
-876.861
-148.798
-897.319
-152.99
-917.728
-157.332
-938.162
-161.825
-958.643
-166.481
-979.156
-171.332
-999.682
-176.429
-1020.27
-181.823
-1041.13
-187.537
-1062.68
-193.544
-1085.44
-199.777
-1109.84
-206.157
-1136.01
-212.623
-1163.84
-219.187
-1192.93
-226.056
-1222.4
-233.798
-1250.83
-243.554
-1276
-257.155
-1294.99
-276.954
-1304.6
-305.174
-1302.51
-342.798
-1289.04
-388.439
-1268.53
-438.045
-1249.09
-485.944
-1239.83
-526.655
-1247.38
-556.258
-1274.06
-572.717
-1318
-575.399
-1374.34
-564.371
-1436.41
-539.835
-1495.8
-501.855
-1541.79
-451.197
-1561.96
-391.758
-1546.31
-322.643
-1476.51
-199.66
-1199.85
23.8217
-178.871
127.337
1019.88
139.755
1612.53
127.391
2071.91
102.282
2482.05
73.1174
2844.6
48.0747
3123.57
28.7222
3330.6
15.4814
3461.4
8.66276
3504.8
5.92941
3470.33
7.27582
3369.95
9.57206
3185.27
14.2589
2983.3
15.7576
2692.28
22.4384
2581.57
21.4138
2186.26
29.5958
2496.35
36.7735
1866.03
37.3984
2471.18
3895.74
-98.599
-303.08
-98.4762
-354.725
-98.81
-383.016
-99.417
-414.456
-100.346
-443.618
-101.523
-471.983
-102.954
-499.342
-104.608
-525.993
-106.476
-551.984
-108.542
-577.461
-110.791
-602.48
-113.211
-627.112
-115.787
-651.384
-118.507
-675.313
-121.362
-698.89
-124.343
-722.095
-127.449
-744.899
-130.68
-767.274
-134.041
-789.201
-137.541
-810.679
-141.192
-831.739
-145.003
-852.443
-148.981
-872.883
-153.127
-893.172
-157.437
-913.419
-161.903
-933.696
-166.522
-954.024
-171.308
-974.37
-176.298
-994.693
-181.547
-1015.02
-187.117
-1035.56
-193.034
-1056.76
-199.269
-1079.21
-205.753
-1103.36
-212.415
-1129.35
-219.23
-1157.03
-226.323
-1185.83
-234.133
-1214.59
-243.645
-1241.31
-256.571
-1263.08
-275.301
-1276.26
-302.387
-1277.51
-339.487
-1265.41
-386.098
-1242.43
-438.825
-1215.8
-491.96
-1195.96
-539.305
-1192.49
-576.065
-1210.62
-599.623
-1250.5
-609.175
-1308.44
-604.927
-1378.59
-587.408
-1453.93
-557.061
-1526.15
-514.075
-1584.77
-459.004
-1617.03
-395.004
-1610.31
-324.164
-1547.35
-215.326
-1308.68
10.4066
-404.604
141.298
888.986
157.623
1596.2
145.468
2084.07
115.505
2512.01
79.3379
2880.76
48.7295
3154.18
25.1657
3354.16
9.0008
3477.57
0.498172
3513.3
-2.94268
3473.77
-1.49066
3368.5
1.48731
3182.3
7.28912
2977.5
9.94431
2689.63
18.0683
2573.44
17.8263
2186.51
27.0154
2487.17
34.4074
1858.64
33.4591
2472.13
3869.25
-101.363
-303.642
-101.274
-354.815
-101.633
-382.656
-102.275
-413.814
-103.243
-442.65
-104.468
-470.758
-105.951
-497.859
-107.665
-524.279
-109.598
-550.051
-111.733
-575.326
-114.056
-600.157
-116.552
-624.617
-119.207
-648.729
-122.008
-672.512
-124.944
-695.953
-128.009
-719.031
-131.198
-741.71
-134.514
-763.959
-137.962
-785.752
-141.553
-807.089
-145.299
-827.993
-149.212
-848.53
-153.3
-868.795
-157.564
-888.908
-161.997
-908.985
-166.591
-929.102
-171.342
-949.273
-176.264
-969.448
-181.396
-989.561
-186.803
-1009.61
-192.554
-1029.81
-198.685
-1050.63
-205.163
-1072.73
-211.924
-1096.6
-218.921
-1122.35
-226.213
-1149.74
-234.126
-1177.92
-243.484
-1205.23
-255.849
-1228.95
-273.582
-1245.34
-299.448
-1250.4
-335.634
-1241.33
-382.42
-1218.63
-437.194
-1187.66
-494.57
-1158.43
-547.917
-1142.61
-591.521
-1148.88
-621.974
-1180.16
-638.128
-1234.34
-640.227
-1306.35
-629.034
-1389.78
-605.324
-1477.64
-569.664
-1561.81
-522.325
-1632.11
-463.696
-1675.65
-396.075
-1677.93
-322.717
-1620.71
-221.391
-1410.01
1.66153
-627.657
151.052
739.596
175.402
1571.85
165.623
2093.85
131.296
2546.34
87.1979
2924.86
50.0217
3191.36
21.6878
3382.5
2.23603
3497.02
-8.18791
3523.73
-12.4671
3478.05
-10.9724
3367
-7.29883
3178.62
-0.320829
2970.52
3.55889
2685.75
13.2642
2563.74
13.853
2185.92
24.2268
2476.79
31.907
1850.96
30.1939
2473.84
3845.07
-104.143
-304.169
-104.092
-354.866
-104.482
-382.266
-105.163
-413.133
-106.175
-441.638
-107.45
-469.483
-108.991
-496.318
-110.767
-522.503
-112.769
-548.049
-114.977
-573.118
-117.378
-597.756
-119.955
-622.04
-122.693
-645.991
-125.579
-669.626
-128.601
-692.931
-131.753
-715.879
-135.03
-738.433
-138.434
-760.554
-141.973
-782.213
-145.659
-803.403
-149.505
-824.148
-153.524
-844.51
-157.727
-864.592
-162.114
-884.522
-166.677
-904.422
-171.405
-924.374
-176.293
-944.385
-181.354
-964.387
-186.633
-984.282
-192.203
-1004.04
-198.145
-1023.87
-204.501
-1044.27
-211.243
-1065.99
-218.32
-1089.52
-225.75
-1114.92
-233.752
-1141.73
-242.997
-1168.68
-254.881
-1193.35
-271.686
-1212.14
-296.32
-1220.71
-331.406
-1215.31
-377.894
-1194.84
-433.885
-1162.64
-494.474
-1127.07
-552.955
-1099.95
-602.901
-1092.67
-639.993
-1111.79
-662.52
-1157.64
-670.628
-1226.24
-665.266
-1311.71
-647.485
-1407.56
-618.153
-1506.97
-577.882
-1602.08
-526.99
-1683
-465.751
-1736.89
-395.684
-1748
-320.05
-1696.34
-223.098
-1506.96
-8.31668
-842.439
156.905
574.375
193.884
1534.87
187.869
2099.86
149.663
2584.55
97.0754
2977.45
52.1517
3236.28
18.3427
3416.31
-4.77464
3520.14
-17.3699
3536.32
-22.6281
3483.31
-21.1635
3365.54
-16.7756
3174.23
-8.58546
2962.33
-3.4093
2680.57
8.03347
2552.29
9.49474
2184.46
21.2411
2465.04
29.2612
1842.94
26.1051
2477
3819.88
-106.941
-304.658
-106.932
-354.875
-107.358
-381.839
-108.083
-412.408
-109.143
-440.579
-110.474
-468.152
-112.075
-494.717
-113.919
-520.659
-115.994
-545.974
-118.28
-570.832
-120.762
-595.274
-123.424
-619.378
-126.25
-643.165
-129.225
-666.651
-132.338
-689.818
-135.58
-712.637
-138.949
-735.064
-142.446
-757.057
-146.08
-778.579
-149.864
-799.619
-153.814
-820.198
-157.945
-840.379
-162.268
-860.27
-166.783
-880.007
-171.481
-899.723
-176.35
-919.505
-181.381
-939.354
-186.588
-959.18
-192.019
-978.852
-197.757
-998.305
-203.898
-1017.72
-210.494
-1037.68
-217.53
-1058.95
-224.997
-1082.05
-233.037
-1106.88
-242.169
-1132.6
-253.605
-1157.24
-269.51
-1177.44
-292.887
-1188.77
-326.755
-1186.84
-372.69
-1169.38
-429.417
-1138.11
-492.443
-1099.61
-555.129
-1064.38
-610.668
-1044.41
-653.972
-1049.36
-682.608
-1083.16
-696.436
-1143.81
-696.497
-1226.17
-684.095
-1324.11
-660.371
-1431.29
-626.195
-1541.14
-582.18
-1646.09
-528.661
-1736.52
-465.826
-1799.73
-394.588
-1819.24
-317.589
-1773.34
-223.597
-1600.95
-22.6283
-1043.41
160.181
391.565
213.31
1481.74
211.675
2101.5
170.324
2625.9
109.299
3038.48
55.4176
3290.16
15.2105
3456.51
-11.9912
3547.34
-27.0202
3551.35
-33.4092
3489.7
-32.0534
3364.18
-26.9376
3169.12
-17.5208
2952.91
-10.9501
2674
2.40232
2538.94
4.74483
2182.11
18.0629
2451.73
26.5194
1834.48
21.9997
2481.52
3793.31
-109.76
-305.103
-109.798
-354.837
-110.265
-381.372
-111.039
-411.634
-112.15
-439.467
-113.541
-466.762
-115.207
-493.05
-117.123
-518.744
-119.275
-543.823
-121.643
-568.464
-124.211
-592.705
-126.963
-616.626
-129.881
-640.247
-132.95
-663.582
-136.158
-686.611
-139.495
-709.299
-142.96
-731.6
-146.554
-753.462
-150.288
-774.846
-154.175
-795.732
-158.233
-816.139
-162.48
-836.132
-166.928
-855.822
-171.578
-875.357
-176.419
-894.882
-181.435
-914.489
-186.616
-934.173
-191.974
-953.822
-197.561
-973.265
-203.474
-992.393
-209.824
-1011.37
-216.683
-1030.82
-224.065
-1051.57
-232.054
-1074.06
-241.035
-1097.9
-252.023
-1121.61
-267.019
-1142.24
-289.059
-1155.4
-321.548
-1156.28
-366.722
-1141.67
-423.942
-1112.16
-489.019
-1073.03
-555.255
-1033.37
-615.558
-1004.08
-664.388
-995.579
-698.716
-1015.03
-717.951
-1063.92
-723.074
-1138.69
-715.583
-1233.67
-696.873
-1342.82
-668.058
-1460.1
-629.971
-1579.23
-583.202
-1692.86
-528.079
-1791.65
-464.73
-1863.08
-393.636
-1890.33
-316.589
-1850.39
-225.514
-1692.03
-46.2763
-1222.65
163.648
181.641
232.44
1412.95
235.919
2098.02
192.824
2668.99
124.043
3107.26
60.1869
3354.02
12.4194
3504.28
-19.3787
3579.14
-37.1117
3569.08
-44.7923
3497.38
-43.6276
3363.02
-37.779
3163.27
-27.1293
2942.26
-19.0289
2665.9
-3.65852
2523.57
-0.433753
2178.89
14.741
2436.55
23.6713
1825.55
18.8745
2486.31
3767.78
-112.603
-305.501
-112.692
-354.749
-113.205
-380.859
-114.031
-410.808
-115.2
-438.299
-116.654
-465.307
-118.391
-491.313
-120.382
-516.752
-122.615
-541.589
-125.07
-566.009
-127.73
-590.045
-130.576
-613.78
-133.591
-637.232
-136.759
-660.414
-140.066
-683.303
-143.504
-705.862
-147.069
-728.035
-150.765
-749.766
-154.602
-771.009
-158.596
-791.738
-162.768
-811.967
-167.136
-831.763
-171.715
-851.243
-176.506
-870.566
-181.497
-889.891
-186.669
-909.318
-192.006
-928.836
-197.521
-948.307
-203.27
-967.515
-209.364
-986.299
-215.938
-1004.8
-223.096
-1023.66
-230.918
-1043.75
-239.679
-1065.3
-250.196
-1087.38
-264.248
-1107.56
-284.832
-1121.66
-315.693
-1124.54
-359.805
-1112.17
-417.304
-1084.17
-484.329
-1045.13
-553.917
-1003.45
-618.463
-968.828
-672.039
-950.502
-711.357
-956.262
-735.529
-990.862
-745.333
-1054.12
-742.329
-1141.69
-728.122
-1247.87
-704.044
-1366.9
-671.132
-1493.01
-630.169
-1620.19
-581.715
-1741.32
-526.092
-1847.27
-463.398
-1925.77
-393.83
-1959.9
-318.319
-1925.9
-231.059
-1779.29
-86.1151
-1367.59
150.383
-54.8576
249.406
1313.93
259.724
2087.7
216.752
2711.96
141.232
3182.78
66.8115
3428.44
10.1754
3560.92
-26.8933
3616.2
-47.6168
3589.81
-56.7582
3506.52
-55.871
3362.13
-49.293
3156.69
-37.4049
2930.38
-27.6285
2656.12