/*--------------------------------*- C++ -*----------------------------------*\
| =========                 |                                                 |
| \\      /  F ield         | OpenFOAM: The Open Source CFD Toolbox           |
|  \\    /   O peration     | Version:  4.1                                   |
|   \\  /    A nd           | Web:      www.OpenFOAM.org                      |
|    \\/     M anipulation  |                                                 |
\*---------------------------------------------------------------------------*/
FoamFile
{
    version     2.0;
    format      ascii;
    class       surfaceScalarField;
    location    "22";
    object      phi;
}
// * * * * * * * * * * * * * * * * * * * * * * * * * * * * * * * * * * * * * //

dimensions      [0 3 -1 0 0 0 0];

internalField   nonuniform List<scalar> 
13220
(
-775.327
2075.23
-1201.44
1726.32
-1638.08
1736.53
-1950.08
1611.9
-2199.14
1549.25
-2368.14
1468.9
-2466.32
1398.07
-2493.57
1327.45
-2455.55
1261.89
-2353.53
1197.88
-2184.49
1131.15
-1935.67
1051.08
-1563.28
927.514
-967.594
704.511
332.306
-176.633
2251.86
-418.952
1968.63
-680.755
1998.34
-891.577
1822.73
-1094.07
1751.74
-1258.9
1633.74
-1401.43
1540.6
-1512.52
1438.54
-1577.39
1326.75
-1550.51
1171
-1376.66
957.306
-1059.07
733.486
-690.167
558.61
-322.312
336.656
9.99434
-198.081
2449.94
-436.774
2207.33
-630.653
2192.22
-781.904
1973.98
-925.971
1895.81
-1037.31
1745.08
-1140.96
1644.25
-1226.12
1523.7
-1278.31
1378.94
-1235.33
1128.02
-1013.46
735.438
-604.705
324.726
-153.654
107.553
162.073
20.9118
172.068
-27.0941
2477.04
-140.534
2320.77
-207.556
2259.24
-259.508
2025.93
-312.561
1948.86
-349.472
1781.99
-385.373
1680.16
-413.699
1552.02
-450.759
1416.01
-511.963
1189.23
-600.882
824.357
-671.668
395.518
-652.199
88.0904
-491.111
-140.169
-319.043
136.894
2340.14
71.464
2386.2
90.6041
2240.1
122.699
1993.84
164.816
1906.75
216.628
1730.18
279.863
1616.92
353.275
1478.61
422.368
1346.91
434.192
1177.4
319.446
939.105
82.7505
632.217
-107.977
278.828
-137.693
-110.444
-456.736
209.515
2130.63
190.942
2404.78
238.85
2192.19
303.801
1928.89
383.95
1826.6
464.308
1649.82
558.064
1523.17
658.606
1378.07
762.976
1242.54
840.946
1099.43
843.981
936.071
733.564
742.637
510.307
502.088
191.728
208.14
-265.008
176.654
1953.98
197.158
2384.27
238.251
2151.1
292.29
1874.85
362.21
1756.68
423.131
1588.9
487.074
1459.23
546.36
1318.79
599.974
1188.93
638.688
1060.72
644.952
929.807
594.428
793.164
469.752
626.77
263.028
414.877
-1.98065
106.561
1847.42
164.739
2326.1
218.484
2097.36
278.623
1814.71
348.315
1686.99
410.332
1526.89
465.58
1403.98
512.976
1271.39
554.378
1147.53
586.28
1028.82
596.578
919.509
562.066
827.674
450.976
737.857
247.944
617.902
245.963
14.6417
1832.78
101.625
2239.11
178.569
2020.42
245.207
1748.08
317.125
1615.07
406.181
1437.83
514.8
1295.36
640.649
1145.54
764.214
1023.97
862.37
930.667
895.417
886.463
830.086
893.009
643.394
924.554
358.449
902.854
604.412
-103.453
1936.23
-50.7019
2186.36
-4.57985
1974.29
-19.6848
1763.18
-27.4967
1622.88
8.14767
1402.19
111.769
1191.74
270.484
986.83
460.838
833.611
648.64
742.863
768.767
766.337
753.241
908.529
578.478
1099.31
301.403
1179.92
905.815
-107.814
2044.04
-281.32
2359.87
-420.355
2113.33
-590.204
1933.03
-768.688
1801.37
-928.028
1561.53
-1037.69
1301.4
-1097.12
1046.26
-1092.75
829.241
-1002.93
653.036
-804.802
568.211
-515.385
619.115
-226.743
810.671
-51.7098
1004.89
854.105
293.11
1750.93
153.331
2499.64
-115.092
2381.75
-355.171
2173.11
-577.846
2024.04
-825.384
1809.06
-1093.5
1569.51
-1368.44
1321.2
-1621.94
1082.75
-1807.63
838.717
-1838.81
599.394
-1624.17
404.47
-1136.51
323
-483.295
351.672
370.81
781.727
969.201
1091.46
2189.91
966.802
2506.41
807.975
2331.93
722.538
2109.48
624.204
1907.39
477.16
1716.55
280.945
1517.41
51.6095
1312.08
-198.762
1089.09
-445.454
846.084
-636.753
595.769
-653.904
340.151
-410.969
108.735
-40.1585
712.379
256.821
1065.76
1836.53
1077.03
2495.13
969.713
2439.25
912.801
2166.39
917.2
1902.99
946.753
1687
966.593
1497.57
959.235
1319.44
898.55
1149.77
766.612
978.021
563.146
799.234
298.872
604.422
27.9695
379.629
-12.189
-12.6604
735.507
1572.95
2281.23
2658.89
2810.21
2850.1
2793.86
2620.91
2398.14
2104.64
1727.02
1275.52
713.772
5.64354e-06
-246.228
246.228
-246.228
-246.228
-246.228
290.204
-536.432
290.204
290.204
290.204
756.267
-466.062
756.267
756.267
1134.03
-377.763
1134.03
1134.03
1134.03
1414.68
-280.653
1414.68
1414.68
1601.97
-187.288
1601.97
1601.97
1601.97
1695.15
-93.1839
1695.15
1695.15
1695.15
1692.72
2.43437
1692.72
1692.72
1611.36
81.355
1611.36
1611.36
1611.36
1473.61
137.753
1473.61
1473.61
1306.23
167.386
1306.23
1306.23
1306.23
1166.77
139.458
1166.77
1166.77
1166.77
1148.91
17.8541
1148.91
1148.91
1053.01
95.9
1053.01
1053.01
1053.01
838.934
214.079
838.934
838.934
838.934
512.446
326.488
512.446
512.446
154.634
357.811
154.634
154.634
154.634
-449.632
604.267
-449.632
-449.632
-1642.09
1192.46
-1642.09
-1642.09
-1642.09
-3243.74
1601.65
-3243.74
-3243.74
-3243.74
-5207.64
1963.9
-5207.64
-5207.64
-7449.99
2242.35
-7449.99
-7449.99
-7316.12
-7184.47
-7053.73
-9367.02
2438.14
-9229.8
-9066.97
-8889.93
-8713.28
-8536.28
-8359.47
-8177.52
-7982.14
-10310.7
2518.39
-10107.7
-9904.14
-9700.7
-9480.62
-9259.59
-9037.99
-8816.3
-8593.97
-10932.4
2562.96
-10694
-10454.7
-10214.5
-9973.55
-9726.91
-9470
-9212.24
-8952.03
-8689.82
-10975.5
2538.23
-10698.6
-10419.2
-10138.7
-9857.88
-9577.29
-9284.65
-8985.74
-8687.94
-10626.6
2222.24
-10339.8
-10046.5
-9739.45
-9432.09
-9123.13
-8813.4
-8501.05
-8161.8
-9642.71
1809.69
-9315.79
-8990.59
-8667.37
-8325.71
-7979.28
-7639.83
-7305.77
-6979.5
-7530.53
880.731
-7200.01
-6877.21
-6556.48
-6237.72
-5920.23
-5604.82
-5291.49
-4979.51
-4673.94
-4583.9
223.565
-4335.13
-4117.96
-3907.85
-3706.97
-3514.95
-3368.68
-3321.15
-3276.27
-2877.3
-346.802
-2833.41
-2786.78
-2786.78
-2533.33
-253.455
-2276.47
-256.856
-2276.47
-2057.17
-219.304
-2057.17
-1862.51
-194.658
-1678.19
-184.314
-1678.19
-1509.43
-168.763
-1349.83
-159.598
-1349.83
-1201.91
-147.921
-1201.91
-1065.5
-136.409
-940.956
-124.546
-940.956
-823.45
-117.506
-823.45
-712.431
-111.019
-613.262
-99.1685
-613.262
-512.312
-100.95
-424.384
-87.928
-424.384
-334.551
-89.8335
-334.551
-241.504
-93.0464
-162.937
-78.5671
-162.937
-79.5664
-83.3707
-79.5664
10.8899
-90.4562
94.4868
-83.5969
94.4868
161.587
-67.0999
242.332
-80.7448
242.332
306.657
-64.325
306.657
360.948
-54.2913
423.779
-62.8306
423.779
480.722
-56.943
480.722
525.048
-44.3262
572.529
-47.4815
572.529
609.366
-36.8368
650.43
-41.0643
650.43
688.048
-37.6171
688.048
718.824
-30.7765
752.244
-33.42
752.244
782.424
-30.1797
782.424
805.122
-22.6984
827.726
-22.6039
827.726
848.324
-20.5984
868.617
-20.293
868.617
890.87
-22.253
890.87
910.668
-19.7974
931.059
-20.3907
931.059
957.057
-25.9987
957.057
984.34
-27.2828
1015.08
-30.7402
1015.08
1050.39
-35.3108
1089.55
-39.1604
1089.55
1137.93
-48.3762
1137.93
-52.0126
-195.247
-725.256
-196.881
-811.29
-199.053
-850.408
-201.64
-897.827
-204.686
-936.987
-208.134
-976.621
-211.992
-1013.08
-216.267
-1049.64
-220.967
-1085.36
-226.111
-1121.6
-231.704
-1158.32
-237.757
-1196.17
-244.304
-1235.28
-251.545
-1275.67
-260.142
-1316.4
-271.672
-1355.13
-288.987
-1387.5
-315.932
-1407.86
-356.006
-1411.34
-410.327
-1396.77
-476.204
-1368.12
-547.547
-1333.04
-616.956
-1299.41
-678.113
-1272.35
-727.198
-1253.64
-762.98
-1242.97
-786.111
-1239.66
-798.236
-1243.45
-801.29
-1254.33
-797.075
-1271.74
-787.068
-1294.12
-772.4
-1318.86
-753.931
-1342.6
-732.366
-1361.33
-708.379
-1369.93
-682.967
-1361.99
-658.032
-1334.2
-633.895
-1293.41
-596.748
-1201.17
-522.295
-782.272
-450.13
239.12
-421.604
934.431
-398.544
1240.71
-375.285
1476.89
-351.843
1730.18
-328.502
1994.68
-305.104
2265.94
-281.611
2539.06
-258.018
2808.09
-234.147
3067.35
-209.693
3312.13
-184.699
3534.73
-159.493
3731.2
-133.657
3905.86
-107.002
4051.08
-80.085
4157
-53.2007
4227.83
-26.9359
4251.33
-3.105
4185.8
16.334
4009.13
30.0824
3738.55
38.8449
3452.15
44.004
3188
46.9197
2950.33
48.6721
2725.1
50.0203
2497.93
51.277
2250.31
52.889
2008.64
54.3902
1724.7
56.3313
1478.35
57.5523
1087.81
65.2405
854.445
61.5858
-28.0843
59.0956
-794.866
36.6078
-1443.1
24.2924
-1923.87
11.4984
-2242.71
16.8885
-2509.88
1841.04
-204.944
-724.654
-206.457
-809.778
-208.71
-848.154
-211.394
-895.143
-214.61
-933.771
-218.272
-972.958
-222.398
-1008.96
-226.991
-1045.05
-232.052
-1080.3
-237.593
-1116.06
-243.609
-1152.3
-250.123
-1189.65
-257.303
-1228.1
-265.799
-1267.17
-277.289
-1304.91
-295.017
-1337.4
-323.628
-1358.89
-367.595
-1363.89
-428.459
-1350.47
-502.665
-1322.56
-582.02
-1288.76
-656.81
-1258.25
-719.411
-1236.81
-766.15
-1225.61
-797.003
-1222.79
-814.137
-1225.84
-820.453
-1233.34
-818.639
-1245.26
-810.773
-1262.19
-798.281
-1284.23
-782.086
-1310.31
-762.826
-1338.12
-741.076
-1364.35
-717.5
-1384.9
-692.953
-1394.47
-668.709
-1386.24
-647.046
-1355.87
-629.307
-1311.15
-601.646
-1228.83
-526.752
-857.166
-436.939
149.307
-411.761
909.253
-394.487
1223.43
-371.28
1453.68
-347.883
1706.78
-325.253
1972.05
-302.593
2243.28
-279.841
2516.31
-256.923
2785.18
-233.604
3044.03
-209.601
3288.12
-184.969
3510.1
-160.037
3706.26
-134.398
3880.22
-107.886
4024.57
-81.0685
4130.18
-54.2516
4201.01
-28.0157
4225.09
-4.15626
4161.94
15.3765
3989.59
29.2773
3724.65
38.2322
3443.19
43.6276
3182.61
46.8324
2947.13
48.9431
2722.99
50.7197
2496.15
52.4672
2248.56
54.6047
2006.5
56.6129
1722.69
59.1929
1475.77
60.9369
1086.07
73.59
841.792
65.8968
-20.3911
58.9881
-787.957
36.9406
-1421.06
22.871
-1909.8
10.974
-2230.81
16.7114
-2515.61
1809.38
-210.347
-724.058
-211.797
-808.327
-214.11
-845.841
-216.851
-892.402
-220.175
-930.447
-223.969
-969.165
-228.259
-1004.67
-233.04
-1040.27
-238.31
-1075.03
-244.068
-1110.3
-250.314
-1146.06
-257.153
-1182.81
-265.05
-1220.2
-275.377
-1256.84
-291.047
-1289.25
-316.657
-1311.79
-357.231
-1318.31
-415.39
-1305.73
-488.578
-1277.29
-568.865
-1242.27
-646.01
-1211.62
-711.557
-1192.71
-761.2
-1187.17
-794.63
-1192.18
-813.981
-1203.44
-822.226
-1217.59
-822.159
-1233.41
-815.953
-1251.47
-805.1
-1273.05
-790.544
-1298.79
-772.906
-1327.95
-752.718
-1358.31
-730.624
-1386.45
-707.517
-1408.01
-684.58
-1417.41
-663.372
-1407.44
-646.22
-1373.02
-634.637
-1322.73
-615.827
-1247.64
-546.759
-926.233
-436.594
39.142
-398.543
871.202
-386.525
1211.41
-366.24
1433.4
-342.695
1683.24
-320.609
1949.96
-298.954
2221.62
-277.23
2494.58
-255.283
2763.23
-232.803
3021.55
-209.487
3264.81
-185.416
3486.03
-160.913
3681.76
-135.579
3854.89
-109.283
3998.28
-82.6076
4103.51
-55.8646
4174.27
-29.6307
4198.86
-5.69192
4138
13.9987
3969.9
28.1177
3710.53
37.3338
3433.98
43.0423
3176.9
46.6339
2943.54
49.2314
2720.39
51.6066
2493.78
54.0545
2246.12
56.9569
2003.6
59.722
1719.92
63.1545
1472.34
65.4589
1083.77
78.5739
828.677
68.6137
-10.4309
59.8481
-779.192
38.1461
-1399.35
22.6843
-1894.33
11.276
-2219.41
14.4479
-2518.79
1784.67
-216.825
-723.444
-218.241
-806.911
-220.636
-843.446
-223.461
-889.578
-226.92
-926.987
-230.877
-965.209
-235.366
-1000.18
-240.372
-1035.26
-245.885
-1069.51
-251.899
-1104.28
-258.457
-1139.5
-265.881
-1175.39
-275.249
-1210.83
-289.126
-1242.97
-312.007
-1266.36
-349.485
-1274.31
-405.484
-1262.31
-478.809
-1232.41
-561.946
-1194.15
-643.79
-1160.43
-714.383
-1141.02
-768.177
-1138.91
-804.309
-1151.03
-824.952
-1171.54
-833.431
-1194.96
-832.983
-1218.04
-826.202
-1240.19
-814.91
-1262.76
-800.244
-1287.71
-782.869
-1316.16
-763.239
-1347.58
-741.869
-1379.68
-719.556
-1408.76
-697.494
-1430.07
-677.228
-1437.68
-660.545
-1424.13
-649.644
-1383.92
-645.833
-1326.54
-636.845
-1256.62
-575.197
-987.881
-446.781
-89.2745
-387.41
811.831
-374.72
1198.72
-359.24
1417.92
-336.874
1660.87
-315.026
1928.12
-294.335
2200.93
-273.879
2474.13
-253.154
2742.51
-231.761
3000.15
-209.364
3242.41
-186.046
3462.71
-162.12
3657.84
-137.202
3829.97
-111.196
3972.27
-84.7034
4077.01
-58.0468
4147.61
-31.8051
4172.62
-7.75635
4113.95
12.142
3950
26.5476
3696.13
36.1014
3424.42
42.2039
3170.8
46.2739
2939.47
49.4709
2717.2
52.5891
2490.66
55.9162
2242.79
59.7918
1999.72
63.5234
1716.19
67.9674
1467.9
70.9229
1080.81
84.6455
814.954
73.0409
1.17361
61.9511
-768.102
40.0972
-1377.5
22.8011
-1877.04
11.0131
-2207.62
12.9986
-2520.77
1762.35
-223.18
-722.782
-224.583
-805.508
-227.071
-840.958
-229.99
-886.659
-233.593
-923.384
-237.718
-961.083
-242.409
-995.487
-247.638
-1030.03
-253.383
-1063.77
-259.659
-1098.01
-266.653
-1132.5
-275.177
-1166.87
-287.388
-1198.62
-307.513
-1222.84
-341.492
-1232.39
-394.505
-1221.3
-466.986
-1189.83
-552.251
-1147.14
-638.542
-1107.86
-714.308
-1084.66
-772.559
-1082.77
-811.762
-1099.71
-834.101
-1128.69
-843.224
-1162.42
-842.741
-1195.44
-835.581
-1225.2
-823.865
-1251.9
-808.976
-1277.65
-791.714
-1304.97
-772.54
-1335.34
-751.857
-1368.27
-730.308
-1401.22
-708.993
-1430.07
-689.516
-1449.55
-673.777
-1453.42
-663.582
-1434.32
-660.554
-1386.95
-665.268
-1321.83
-666.086
-1255.81
-612.717
-1041.25
-467.743
-234.248
-380.599
724.687
-360.833
1178.96
-349.176
1406.26
-329.882
1641.58
-308.744
1906.98
-288.786
2180.97
-269.703
2455.04
-250.463
2723.26
-230.415
2980.11
-209.189
3221.18
-186.845
3440.37
-163.669
3634.66
-139.297
3805.6
-113.672
3946.64
-87.4119
4050.75
-60.8584
4121.06
-34.5944
4146.35
-10.3954
4089.75
9.77034
3929.84
24.532
3681.37
34.5003
3414.46
41.0788
3164.22
45.7204
2934.82
49.6312
2713.29
53.6386
2486.65
58.0251
2238.4
63.0866
1994.66
68.0011
1711.28
73.6445
1462.25
77.3547
1077.1
91.4931
800.816
79.1233
13.5435
65.0147
-753.993
42.7857
-1355.27
23.514
-1857.77
10.9134
-2195.02
9.89435
-2519.75
1741.51
-229.691
-722.045
-231.103
-804.095
-233.701
-838.36
-236.728
-883.632
-240.487
-919.626
-244.793
-956.777
-249.693
-990.588
-255.143
-1024.58
-261.125
-1057.79
-267.741
-1091.39
-275.545
-1124.7
-286.278
-1156.13
-303.745
-1181.16
-333.982
-1192.6
-383.284
-1183.08
-453.957
-1150.63
-540.675
-1103.11
-631.407
-1056.41
-712.947
-1026.32
-776.537
-1021.07
-819.689
-1039.62
-844.47
-1074.93
-854.824
-1118.34
-854.699
-1162.54
-847.295
-1202.84
-834.972
-1237.52
-819.375
-1267.5
-801.564
-1295.46
-782.166
-1324.37
-761.603
-1355.9
-740.401
-1389.47
-719.493
-1422.13
-700.411
-1449.16
-685.193
-1464.77
-675.915
-1462.69
-673.976
-1436.26
-679.845
-1381.08
-692.922
-1308.75
-702.509
-1246.22
-657.702
-1086.06
-499.19
-392.761
-379.87
605.367
-346.928
1146.02
-336.103
1395.44
-320.728
1626.2
-301.664
1887.91
-282.506
2161.82
-264.686
2437.22
-247.112
2705.69
-228.665
2961.66
-208.854
3201.37
-187.715
3419.23
-165.482
3612.43
-141.805
3781.92
-116.666
3921.51
-90.7049
4024.79
-64.2812
4094.64
-37.9879
4120.06
-13.6032
4065.37
6.88468
3909.35
22.0657
3666.19
32.5179
3404
39.6472
3157.09
44.9438
2929.53
49.6693
2708.56
54.6946
2481.63
60.3012
2232.8
66.7366
1988.23
73.0325
1704.98
80.0352
1455.25
84.6001
1072.53
98.8736
786.542
86.1516
26.2655
69.1615
-737.003
46.2075
-1332.32
24.7988
-1836.36
10.9775
-2181.2
7.39685
-2516.17
1721.62
-236.309
-721.207
-237.75
-802.655
-240.472
-835.638
-243.622
-880.481
-247.547
-915.701
-252.043
-952.281
-257.152
-985.479
-262.821
-1018.91
-269.077
-1051.53
-276.277
-1084.19
-285.736
-1115.24
-300.737
-1141.13
-327.133
-1154.76
-372.077
-1147.66
-439.847
-1115.31
-527.028
-1063.44
-621.86
-1008.28
-709.553
-968.716
-779.24
-956.632
-827.116
-973.197
-854.991
-1011.75
-867.126
-1062.79
-867.864
-1117.6
-860.657
-1169.75
-848.006
-1215.5
-831.695
-1253.83
-813.007
-1286.19
-792.828
-1315.64
-771.765
-1345.43
-750.366
-1377.3
-729.445
-1410.39
-710.387
-1441.19
-695.225
-1464.32
-686.311
-1473.68
-685.509
-1463.5
-693.191
-1428.58
-708.051
-1366.22
-728.094
-1288.71
-744.382
-1229.93
-708.474
-1121.97
-540.945
-560.289
-386.122
450.543
-334.653
1094.55
-321.005
1381.79
-308.687
1613.89
-293.126
1872.35
-275.567
2144.26
-258.915
2420.57
-243.024
2689.8
-226.404
2945.04
-208.256
3183.22
-188.557
3399.53
-167.475
3591.35
-144.659
3759.11
-120.133
3896.98
-94.5546
3999.21
-68.303
4068.39
-41.9874
4093.74
-17.394
4040.77
3.46167
3888.49
19.1198
3650.53
30.1231
3393
37.8766
3149.34
43.9091
2923.49
49.5445
2702.93
55.7066
2475.47
62.6813
2225.82
70.662
1980.24
78.5238
1697.12
87.0266
1446.75
92.567
1066.99
106.925
772.184
94.013
39.1778
74.2763
-717.267
50.3298
-1308.37
26.6914
-1812.72
11.1743
-2165.68
5.72902
-2510.73
1701.35
-243.057
-720.24
-244.543
-801.169
-247.406
-832.774
-250.695
-877.193
-254.797
-911.599
-259.487
-947.591
-264.801
-980.165
-270.702
-1013.01
-277.381
-1044.85
-285.781
-1075.79
-298.58
-1102.44
-321.206
-1118.51
-361.301
-1114.66
-425.048
-1083.91
-511.434
-1028.93
-609.679
-965.2
-703.682
-914.28
-780.167
-892.231
-833.568
-903.23
-865.212
-941.554
-879.691
-997.268
-881.843
-1060.64
-875.434
-1124.01
-863.053
-1182.13
-846.481
-1232.07
-827.047
-1273.27
-805.82
-1307.42
-783.673
-1337.79
-761.365
-1367.74
-739.758
-1398.91
-720.153
-1429.99
-704.511
-1456.83
-695.312
-1473.52
-694.875
-1474.12
-704.215
-1454.16
-721.975
-1410.82
-744.666
-1343.53
-769.05
-1264.33
-789.007
-1209.97
-762.634
-1148.34
-594.855
-728.068
-402.113
257.802
-325.283
1017.72
-305.209
1361.71
-293.792
1602.47
-282.257
1860.82
-267.659
2129.66
-252.501
2405.41
-238.201
2675.5
-223.539
2930.38
-207.297
3166.98
-189.275
3381.51
-169.567
3571.64
-147.801
3737.34
-124.034
3873.21
-98.9392
3974.12
-72.9188
4042.37
-46.6017
4067.43
-21.7874
4015.96
-0.526219
3867.23
15.6603
3634.34
27.279
3381.38
35.7302
3140.88
42.5791
2916.65
49.2178
2696.29
56.6316
2468.05
65.1167
2217.34
74.8056
1970.56
84.4094
1687.52
94.5448
1436.61
101.197
1060.34
115.656
757.725
102.706
52.1278
80.3534
-694.914
55.1247
-1283.14
29.1917
-1786.79
11.4119
-2147.9
2.03703
-2501.35
1683
-249.945
-719.118
-251.489
-799.625
-254.512
-829.752
-257.952
-873.752
-262.238
-907.313
-267.122
-942.707
-272.642
-974.645
-278.858
-1006.79
-286.381
-1037.33
-297.297
-1064.88
-316.378
-1083.36
-351.356
-1083.53
-410.038
-1055.98
-494.168
-999.783
-594.768
-928.328
-694.95
-865.018
-778.838
-830.391
-838.58
-832.489
-874.667
-867.143
-891.985
-924.236
-895.99
-993.264
-890.889
-1065.74
-879.421
-1135.48
-863.295
-1198.25
-843.715
-1251.65
-821.716
-1295.27
-798.318
-1330.82
-774.545
-1361.56
-751.499
-1390.79
-730.576
-1419.83
-713.74
-1446.83
-703.549
-1467.02
-702.643
-1474.42
-712.669
-1464.09
-732.998
-1433.83
-760.006
-1383.81
-788.073
-1315.46
-813.272
-1239.13
-833.213
-1190.03
-816.717
-1164.83
-664.34
-880.445
-434.684
28.1462
-320.001
903.033
-289.865
1331.58
-276.845
1589.45
-268.501
1852.47
-258.096
2119.25
-245.379
2392.7
-232.724
2662.84
-220.017
2917.67
-205.881
3152.85
-189.779
3365.4
-171.67
3553.53
-151.159
3716.83
-128.316
3850.37
-103.827
3949.63
-78.1142
4016.65
-51.8317
4041.14
-26.7961
3990.92
-5.10163
3845.54
11.6573
3617.58
23.9501
3369.09
33.1696
3131.67
40.9137
2908.9
48.6468
2688.55
57.4233
2459.28
67.5559
2207.2
79.1084
1959
90.621
1676
102.512
1424.72
110.406
1052.45
124.984
743.147
112.148
64.9634
87.3208
-670.087
60.5514
-1256.37
32.3232
-1758.56
11.7992
-2127.37
-0.798412
-2488.75
1662.4
-256.983
-717.813
-258.599
-798.009
-261.799
-826.553
-265.404
-870.147
-269.876
-902.842
-274.95
-937.632
-280.715
-968.881
-287.515
-999.993
-296.862
-1027.98
-312.761
-1048.98
-342.594
-1053.53
-395.363
-1030.76
-475.675
-975.67
-577.203
-898.256
-683.068
-822.463
-774.807
-773.279
-841.71
-763.488
-882.942
-791.257
-903.549
-846.536
-909.72
-918.065
-906.271
-996.712
-896.214
-1075.8
-881.234
-1150.46
-862.333
-1217.15
-840.323
-1273.66
-816.113
-1319.48
-790.827
-1356.1
-765.823
-1386.56
-742.775
-1413.84
-723.841
-1438.76
-711.755
-1458.92
-709.472
-1469.31
-719.174
-1464.72
-740.938
-1442.33
-771.77
-1402.99
-805.723
-1349.86
-835.719
-1285.46
-857.93
-1216.92
-873.998
-1173.96
-865.673
-1173.16
-741.732
-1004.39
-485.638
-227.948
-320.484
737.879
-275.497
1286.59
-259.024
1572.98
-251.938
1845.39
-246.095
2113.41
-237.149
2383.75
-226.641
2652.34
-215.855
2906.88
-203.926
3140.92
-189.975
3351.45
-173.697
3537.25
-154.654
3697.79
-132.922
3828.64
-109.178
3925.88
-83.8675
3991.34
-57.6725
4014.95
-32.4302
3965.68
-10.2859
3823.39
7.08218
3600.21
20.1006
3356.07
30.1543
3121.61
38.8697
2900.19
47.786
2679.64
58.0335
2449.03
69.9473
2195.29
83.5136
1945.44
97.0932
1662.42
110.854
1410.96
120.102
1043.2
134.825
728.424
122.252
77.5364
95.1225
-642.957
66.561
-1227.81
36.045
-1728.04
12.3916
-2103.72
-2.65331
-2473.71
1637.5
-264.185
-716.295
-265.884
-796.31
-269.277
-823.159
-273.055
-866.369
-277.71
-898.187
-282.99
-932.352
-289.158
-962.713
-297.234
-991.916
-310.377
-1014.84
-335.291
-1024.06
-381.57
-1007.25
-456.536
-955.794
-557.238
-874.967
-667.868
-787.626
-767.677
-722.654
-842.556
-698.399
-889.698
-716.346
-914.054
-766.901
-922.614
-837.976
-920.986
-919.693
-912.61
-1005.09
-899.257
-1089.15
-881.768
-1167.95
-860.661
-1238.26
-836.538
-1297.78
-810.334
-1345.68
-783.444
-1382.99
-757.788
-1412.22
-735.874
-1435.75
-720.817
-1453.82
-716.037
-1463.7
-724.32
-1461.02
-746.412
-1442.63
-779.877
-1408.86
-819.075
-1363.8
-856.386
-1312.55
-884.461
-1257.39
-900.302
-1201.07
-908.948
-1165.32
-904.685
-1177.42
-810.867
-1098.2
-546.868
-491.946
-329.475
520.485
-262.056
1219.17
-241.312
1552.23
-233.285
1837.36
-231.169
2111.29
-227.115
2379.7
-219.799
2645.02
-211.117
2898.2
-201.396
3131.2
-189.773
3339.83
-175.561
3523.04
-158.208
3680.44
-137.784
3808.21
-114.945
3903.05
-90.1509
3966.55
-64.1142
3988.91
-38.6954
3940.26
-16.0962
3800.8
1.90887
3582.21
15.6954
3342.28
26.6433
3110.66
36.4036
2890.43
46.5902
2669.45
58.416
2437.2
72.2439
2181.46
87.9721
1929.71
103.771
1646.62
119.512
1395.22
130.209
1032.5
145.103
713.53
132.923
89.7163
103.691
-613.726
73.0981
-1197.22
40.2951
-1695.24
13.2378
-2076.66
-6.17671
-2454.29
1611.03
-271.564
-714.535
-273.352
-794.522
-276.955
-819.556
-280.91
-862.413
-285.75
-893.347
-291.32
-926.781
-298.35
-955.683
-309.204
-981.062
-329.61
-994.434
-369.168
-984.506
-437.423
-938.994
-535.314
-857.903
-649.319
-760.962
-757.099
-679.847
-840.73
-639.023
-894.64
-644.489
-923.264
-687.722
-934.404
-755.761
-934.636
-837.743
-928.006
-926.324
-916.494
-1016.6
-900.879
-1104.77
-881.433
-1187.4
-858.391
-1261.3
-832.298
-1323.87
-804.268
-1373.71
-776.179
-1411.08
-750.797
-1437.6
-731.746
-1454.8
-723.157
-1462.41
-728.674
-1458.18
-749.887
-1439.81
-784.924
-1407.59
-828.265
-1365.52
-872.105
-1319.96
-908.453
-1276.2
-931.033
-1234.81
-938.091
-1194.02
-936.599
-1166.81
-931.01
-1183.01
-864.783
-1164.43
-617.392
-739.337
-351.984
255.078
-249.923
1117.11
-224.012
1526.32
-213.613
1826.96
-213.396
2111.08
-214.538
2380.84
-211.741
2642.22
-205.795
2892.26
-198.311
3123.71
-189.102
3330.62
-177.176
3511.11
-161.74
3665
-142.834
3789.31
-121.076
3881.29
-96.929
3942.4
-71.1394
3963.12
-45.5913
3914.71
-22.5461
3777.75
-3.88667
3563.55
10.7025
3327.69
22.5986
3098.77
33.474
2879.55
45.0163
2657.91
58.5278
2423.69
74.4042
2165.59
92.444
1911.67
110.614
1628.45
128.442
1377.39
140.664
1020.28
155.745
698.449
144.067
101.394
112.966
-582.626
80.1069
-1164.36
45.0202
-1660.15
14.4573
-2046.1
-7.97376
-2431.86
1582.45
-279.132
-712.499
-281.015
-792.639
-284.838
-815.733
-288.973
-858.278
-294.036
-888.284
-300.185
-920.633
-309.161
-946.707
-325.629
-964.594
-358.564
-961.499
-419.059
-924.01
-512.044
-846.009
-627.56
-742.387
-742.784
-645.737
-835.84
-586.791
-897.486
-577.377
-931.012
-610.963
-944.949
-673.785
-947.015
-753.695
-942.045
-842.713
-932.368
-936
-918.802
-1030.17
-901.461
-1122.11
-880.277
-1208.58
-855.365
-1286.21
-827.35
-1351.89
-797.709
-1403.35
-769.091
-1439.7
-745.459
-1461.24
-731.779
-1468.48
-732.918
-1461.27
-751.73
-1439.37
-787.181
-1404.36
-833.837
-1360.94
-883.34
-1316.02
-927.04
-1276.26
-958.129
-1245.11
-972.415
-1220.52
-969.395
-1197.04
-956.231
-1179.97
-943.691
-1195.55
-898.788
-1209.34
-697.601
-940.524
-397.586
-44.9372
-241.354
960.878
-206.676
1491.64
-193.875
1814.16
-193.462
2110.66
-198.974
2386.35
-201.762
2645.01
-199.671
2890.16
-194.708
3118.75
-187.929
3323.84
-178.458
3501.64
-165.171
3651.71
-147.996
3772.13
-127.508
3860.8
-104.159
3919.05
-78.7233
3937.69
-53.1107
3889.1
-29.6449
3754.28
-10.3229
3544.23
5.09863
3312.27
17.9875
3085.88
30.0423
2867.5
43.024
2644.93
58.3296
2408.39
76.3929
2147.52
96.898
1891.16
117.589
1607.76
137.61
1357.37
151.423
1006.47
166.695
683.177
155.597
112.492
122.891
-549.919
87.5385
-1129.01
50.1341
-1622.75
15.9599
-2011.93
-10.3628
-2405.54
1549.49
-286.904
-710.152
-288.88
-790.662
-292.932
-811.681
-297.268
-853.943
-302.718
-882.834
-310.187
-913.165
-323.314
-933.58
-350.06
-937.848
-402.142
-909.417
-488.206
-837.946
-602.92
-731.295
-724.529
-620.779
-827.478
-542.789
-897.935
-516.334
-937.163
-538.149
-954.193
-593.933
-958.051
-669.927
-954.572
-757.175
-946.572
-850.713
-935.002
-947.57
-919.908
-1045.26
-901.018
-1141
-878.098
-1231.5
-851.261
-1313.05
-821.362
-1381.79
-790.499
-1434.21
-762.479
-1467.72
-742.853
-1480.86
-737.918
-1473.41
-752.403
-1446.79
-786.734
-1405.04
-835.824
-1355.27
-890.567
-1306.19
-941.09
-1265.5
-979.677
-1237.67
-1001.91
-1222.87
-1006.04
-1216.4
-992.501
-1210.57
-967.284
-1205.19
-943.247
-1219.59
-908.111
-1244.47
-761.446
-1087.19
-455.052
-351.331
-239.976
745.802
-188.761
1440.43
-174.461
1799.86
-172.451
2108.65
-180.543
2394.44
-189.152
2653.62
-192.245
2893.26
-190.533
3117.04
-186.267
3319.58
-179.339
3494.71
-168.419
3640.79
-153.198
3756.91
-134.178
3841.78
-111.793
3896.67
-86.8343
3912.73
-61.2399
3863.51
-37.3954
3730.44
-17.4129
3524.25
-1.13704
3296
12.7801
3071.96
26.0733
2854.2
40.576
2630.42
57.7853
2391.18
78.1791
2127.13
101.31
1868.03
124.678
1584.4
146.997
1335.05
162.453
991.012
177.91
667.72
167.438
122.964
133.413
-515.895
95.3634
-1090.96
55.5659
-1582.95
17.6967
-1974.06
-11.8455
-2376
1514.94
-294.893
-707.458
-296.956
-788.599
-301.251
-807.386
-305.881
-849.313
-312.197
-876.517
-322.614
-902.748
-343.8
-912.393
-387.312
-894.336
-464.685
-832.044
-575.96
-726.671
-702.247
-605.007
-815.211
-507.815
-895.627
-462.373
-941.579
-470.383
-962.139
-517.588
-967.778
-588.294
-965.579
-672.126
-959.006
-763.748
-949.228
-860.492
-936.296
-960.501
-919.824
-1061.73
-899.342
-1161.48
-874.557
-1256.29
-845.693
-1341.92
-814.039
-1413.44
-782.682
-1465.57
-757.092
-1493.31
-744.708
-1493.24
-752.613
-1465.51
-783.701
-1415.7
-833.973
-1354.76
-893.589
-1295.65
-950.987
-1248.8
-996.89
-1219.59
-1026.08
-1208.48
-1036.97
-1211.99
-1029.84
-1223.53
-1005.74
-1234.67
-968.892
-1242.04
-930.95
-1257.53
-893.395
-1282.03
-786.264
-1194.32
-503.419
-634.175
-247.56
489.942
-171.037
1363.91
-155.1
1783.92
-151.41
2104.96
-159.983
2403.01
-173.506
2667.14
-182.808
2902.56
-185.523
3119.75
-184.127
3318.18
-179.783
3490.37
-171.402
3632.41
-158.365
3743.87
-141.018
3824.43
-119.774
3875.42
-95.4353
3888.39
-69.9592
3838.03
-45.795
3706.28
-25.1686
3503.62
-8.02367
3278.85
6.9532
3056.98
21.5355
2839.62
37.6363
2614.32
56.8606
2371.95
79.7356
2104.25
105.662
1842.11
131.867
1558.19
156.59
1310.33
173.734
973.868
189.359
652.095
179.522
132.801
144.483
-480.856
103.578
-1050.05
61.2295
-1540.6
19.65
-1932.48
-12.4154
-2343.93
1472.35
-303.112
-704.377
-305.252
-786.459
-309.845
-802.792
-315.07
-844.088
-323.388
-868.199
-339.856
-886.28
-375.057
-877.193
-442.449
-826.944
-547.474
-727.019
-676.044
-598.101
-798.601
-482.45
-890.109
-416.307
-944.065
-408.416
-968.813
-445.635
-976.298
-510.104
-975.156
-589.436
-969.709
-677.573
-961.433
-772.024
-950.431
-871.493
-936.267
-974.665
-918.339
-1079.66
-896.091
-1183.73
-869.25
-1283.13
-838.29
-1372.88
-805.234
-1446.5
-774.686
-1496.12
-754.34
-1513.65
-753.468
-1494.12
-778.479
-1440.5
-827.933
-1366.24
-891.819
-1290.88
-956.383
-1231.09
-1010.06
-1195.12
-1046.29
-1183.36
-1063.09
-1191.68
-1061.23
-1213.84
-1042.31
-1242.45
-1007.63
-1269.36
-959.925
-1289.74
-908.187
-1309.27
-860.465
-1329.75
-776.52
-1278.26
-539.594
-871.101
-263.539
213.887
-156.196
1256.56
-135.378
1763.1
-130.883
2100.47
-138.436
2410.57
-154.989
2683.7
-170.669
2918.24
-179.153
3128.24
-181.427
3320.45
-179.793
3488.74
-174.052
3626.67
-163.421
3733.24
-147.961
3808.97
-128.046
3855.51
-104.484
3864.83
-79.2437
3812.79
-54.8363
3681.87
-33.5974
3482.38
-15.575
3260.83
0.488017
3040.92
16.3997
2823.71
34.1705
2596.55
55.5228
2350.6
81.0375
2078.74
109.942
1813.2
139.152
1528.98
166.387
1283.1
185.254
955.001
201.023
636.325
191.797
142.028
156.05
-445.109
112.206
-1006.21
67.0791
-1495.48
21.8231
-1887.22
-14.2815
-2307.83
1424.65
-311.577
-700.864
-313.801
-784.235
-318.874
-797.719
-325.46
-837.502
-338.111
-855.548
-365.764
-858.627
-422.425
-820.532
-518.523
-730.846
-646.285
-599.257
-777.253
-467.132
-880.8
-378.903
-944.319
-352.788
-974.216
-378.518
-983.762
-436.089
-983.474
-510.392
-978.82
-594.09
-971.706
-684.687
-962.318
-781.412
-950.203
-883.609
-934.704
-990.165
-915.122
-1099.24
-890.869
-1207.98
-861.775
-1312.22
-828.778
-1405.87
-795.09
-1480.18
-767.524
-1523.69
-756.447
-1524.73
-772.103
-1478.46
-817.57
-1395.03
-884.373
-1299.44
-956.449
-1218.8
-1018.8
-1168.74
-1062.74
-1151.18
-1085.65
-1160.45
-1088.45
-1188.88
-1073.38
-1228.92
-1042.53
-1273.3
-997.289
-1314.6
-939.615
-1347.42
-876.057
-1372.83
-816.127
-1389.68
-741.958
-1352.43
-561.018
-1052.04
-286.686
-60.4444
-146.837
1116.71
-115.737
1732
-110.664
2095.4
-117
2416.9
-134.392
2701.09
-155.47
2939.32
-170.72
3143.49
-177.885
3327.62
-179.36
3490.21
-176.329
3623.64
-168.287
3725.2
-154.941
3795.63
-136.549
3837.11
-113.934
3842.21
-89.064
3787.92
-64.507
3657.31
-42.7023
3460.58
-23.8076
3241.93
-6.638
3023.75
10.6423
2806.43
30.1488
2577.05
53.7405
2327.01
82.0625
2050.42
114.139
1781.13
146.534
1496.59
176.393
1253.24
197.01
934.384
212.891
620.444
204.215
150.705
168.056
-408.951
121.289
-959.439
73.1568
-1447.34
24.391
-1838.46
-15.0192
-2268.42
1378.85
-320.316
-696.858
-322.704
-781.847
-328.75
-791.672
-338.374
-827.878
-359.515
-834.407
-405.512
-812.631
-490.347
-735.697
-613.703
-607.491
-750.913