/*--------------------------------*- C++ -*----------------------------------*\
| =========                 |                                                 |
| \\      /  F ield         | OpenFOAM: The Open Source CFD Toolbox           |
|  \\    /   O peration     | Version:  4.1                                   |
|   \\  /    A nd           | Web:      www.OpenFOAM.org                      |
|    \\/     M anipulation  |                                                 |
\*---------------------------------------------------------------------------*/
FoamFile
{
    version     2.0;
    format      ascii;
    class       volVectorField;
    location    "22";
    object      U;
}
// * * * * * * * * * * * * * * * * * * * * * * * * * * * * * * * * * * * * * //

dimensions      [0 1 -1 0 0 0 0];

internalField   nonuniform List<vector> 
6785
(
(1.45318e-14 -2.26615 16.427)
(1.18069e-14 -7.91377 12.8909)
(-3.29273e-15 -5.12992 13.6779)
(4.18263e-15 -5.09452 13.1671)
(1.01534e-15 -4.31817 13.0098)
(-8.24391e-17 -3.9162 12.7061)
(2.70361e-15 -3.51906 12.4132)
(6.44382e-16 -3.24788 12.0914)
(-7.35006e-16 -3.05862 11.7551)
(1.83884e-15 -2.96415 11.3837)
(2.79285e-16 -2.91842 10.9945)
(-5.02456e-16 -2.91776 10.6066)
(8.44141e-16 -3.31751 9.97787)
(2.5656e-17 -3.39081 9.03499)
(-3.61041e-16 -0.00942532 7.39131)
(2.02386e-14 -10.1124 26.5258)
(1.39156e-14 -16.1185 22.8828)
(-2.99382e-15 -11.0335 23.236)
(4.3927e-15 -11.8268 21.3782)
(9.48556e-16 -10.0931 20.5173)
(1.20308e-15 -9.46511 19.2709)
(2.20089e-15 -8.47436 18.1983)
(1.77482e-16 -7.70552 17.1076)
(8.14733e-17 -6.96405 16.1142)
(7.39632e-16 -6.39011 15.1848)
(-3.11595e-16 -5.96164 14.1964)
(-1.97736e-16 -5.55547 12.8968)
(2.96208e-16 -5.0107 10.8892)
(-3.62397e-16 -3.83829 7.23567)
(-3.97787e-16 -0.873585 1.29907)
(1.95489e-14 -12.8001 27.9086)
(1.11006e-14 -16.5715 25.0074)
(-1.72164e-15 -11.9369 24.8828)
(3.47846e-15 -12.8264 22.4696)
(8.7122e-16 -10.712 21.4843)
(1.47555e-15 -10.2006 19.845)
(8.57536e-16 -9.05289 18.6146)
(1.03439e-17 -8.22676 17.232)
(3.34946e-16 -7.08207 15.5364)
(8.17549e-17 -5.46965 12.786)
(9.35056e-17 -3.34056 8.8192)
(-1.51489e-16 -1.67033 5.00389)
(-1.61587e-15 -1.33684 3.13453)
(-9.18323e-16 -1.46468 2.18892)
(-1.53332e-15 -1.85164 2.72548)
(1.94962e-14 -14.0617 28.6988)
(9.55441e-15 -17.0481 25.9455)
(-1.38364e-15 -12.9129 25.6915)
(3.37745e-15 -14.0885 23.052)
(7.07366e-16 -11.7167 22.186)
(1.39872e-15 -11.6259 20.33)
(6.41658e-16 -10.3482 19.2064)
(2.36258e-16 -9.77072 17.7735)
(1.08936e-16 -8.61301 16.1146)
(2.41633e-16 -6.83952 13.0452)
(1.3486e-15 -3.69071 7.89177)
(1.89257e-15 -0.310187 2.09988)
(6.28864e-15 1.89608 -1.32466)
(5.724e-15 3.01595 -3.09265)
(1.91078e-15 1.55674 -2.21344)
(1.92738e-14 -14.2838 28.1779)
(1.13437e-14 -17.8341 27.3054)
(-8.67599e-16 -13.6321 26.1427)
(3.50425e-15 -14.7881 23.3976)
(1.77405e-15 -12.46 22.4985)
(1.61825e-15 -12.5131 20.4936)
(1.35128e-15 -11.2695 19.2855)
(1.49538e-15 -10.7977 17.7663)
(5.89751e-16 -9.92023 16.2824)
(6.5135e-16 -8.79218 14.1145)
(2.28366e-15 -6.79314 10.7901)
(1.96582e-15 -3.98502 6.47262)
(4.56979e-15 -0.932642 2.06381)
(9.50485e-15 2.83765 -2.43685)
(8.72218e-15 2.14505 -5.96541)
(1.82702e-14 -13.5804 25.879)
(1.332e-14 -17.9071 27.8357)
(-1.2792e-16 -13.8504 25.6411)
(2.87533e-15 -14.4289 22.7017)
(2.09279e-15 -12.4052 21.6072)
(1.25857e-15 -12.2414 19.547)
(1.36384e-15 -11.0828 18.1361)
(1.60262e-15 -10.4743 16.4776)
(7.80753e-16 -9.67464 14.9271)
(4.34829e-16 -8.82054 13.19)
(1.08749e-15 -7.71255 11.065)
(1.25032e-15 -6.04045 8.4334)
(1.18935e-15 -4.10023 5.23063)
(3.59375e-16 -1.14637 1.58374)
(6.7237e-15 1.0621 -3.84627)
(1.82969e-14 -12.5928 23.3829)
(1.51314e-14 -17.44 27.726)
(1.88561e-15 -13.8377 25.0303)
(2.32739e-15 -13.7431 21.899)
(2.48836e-15 -11.9791 20.6208)
(2.22032e-15 -11.5899 18.6155)
(1.59663e-15 -10.4729 17.1044)
(1.94715e-15 -9.72509 15.4114)
(2.51106e-15 -8.87725 13.8474)
(1.19806e-15 -8.03831 12.2912)
(1.00725e-15 -7.18317 10.658)
(2.79549e-15 -6.04645 8.86017)
(2.14344e-15 -4.74247 6.56717)
(-1.59735e-15 -2.49842 3.58356)
(7.21452e-15 -0.174464 -1.61013)
(1.74543e-14 -11.8185 21.6793)
(1.64583e-14 -16.808 27.2704)
(3.67972e-15 -13.7775 24.5711)
(1.87087e-15 -13.2113 21.3335)
(2.46412e-15 -11.6489 19.8823)
(2.86879e-15 -11.1416 18.0039)
(2.08829e-15 -10.146 16.5269)
(2.06935e-15 -9.41002 14.9751)
(2.86687e-15 -8.62735 13.5307)
(2.19445e-15 -7.85828 12.1274)
(1.64814e-15 -7.1219 10.7288)
(2.10565e-15 -6.26576 9.35188)
(2.49025e-15 -5.35939 7.7783)
(-2.23836e-16 -3.78745 5.79391)
(7.83324e-16 -1.29139 1.04289)
(1.81299e-14 -11.4222 20.9736)
(1.71958e-14 -16.0683 26.4349)
(3.00976e-15 -13.3901 23.8565)
(1.88785e-15 -12.6751 20.5616)
(2.73134e-15 -11.1366 19.0744)
(1.72412e-15 -10.6905 17.2556)
(2.509e-15 -9.79143 15.8894)
(2.53014e-15 -9.21642 14.3887)
(3.38276e-16 -8.56608 12.9769)
(1.5586e-15 -7.97727 11.6394)
(2.36826e-15 -7.45267 10.523)
(6.20106e-17 -6.99431 9.78371)
(1.34673e-15 -6.56042 9.28788)
(8.53448e-16 -5.64855 8.52268)
(-3.61828e-15 -3.28014 4.76426)
(1.76178e-14 -11.6569 21.3011)
(1.47945e-14 -15.0013 25.2213)
(1.16696e-15 -12.6543 22.7652)
(5.98591e-16 -11.8698 19.785)
(2.16408e-15 -10.196 18.2039)
(1.25034e-16 -9.42471 15.9605)
(2.13041e-16 -8.10475 14.0653)
(1.5889e-15 -7.40667 12.1414)
(-1.31092e-15 -6.7719 10.7696)
(-1.8499e-15 -6.62792 9.94559)
(4.91487e-16 -6.87124 10.0151)
(-3.06026e-15 -7.53354 10.8959)
(-3.04841e-15 -8.02968 12.1115)
(-9.9437e-17 -7.96041 12.3825)
(-5.08056e-15 -5.51796 9.28421)
(1.67747e-14 -13.0244 23.5826)
(1.11911e-14 -14.9014 25.4043)
(-3.40712e-15 -12.3753 22.9622)
(8.51909e-16 -11.7609 21.0836)
(8.84976e-16 -10.0216 19.4227)
(-2.28287e-15 -8.44058 16.5634)
(1.23371e-15 -6.31294 13.6065)
(1.94104e-15 -4.68515 10.7899)
(1.26463e-16 -3.28831 8.58983)
(2.84695e-15 -2.63449 7.28768)
(1.96574e-15 -3.08827 7.73904)
(-2.37709e-15 -4.87095 10.1317)
(-2.14372e-15 -7.18825 13.3341)
(-4.91699e-15 -8.75763 14.9531)
(-6.4298e-15 -6.30984 11.7247)
(1.58416e-14 -13.2472 23.4634)
(1.28032e-14 -17.689 28.9553)
(-2.47034e-15 -14.4988 25.6826)
(1.74736e-16 -13.4381 23.3765)
(1.88346e-16 -11.8409 22.0029)
(-1.25492e-15 -10.2701 19.319)
(1.31441e-15 -7.90155 16.2599)
(2.62763e-15 -5.8386 13.1933)
(3.97019e-15 -3.73556 10.3903)
(5.71527e-15 -1.81956 7.63196)
(6.05398e-15 -0.194029 5.23405)
(3.37864e-15 0.40031 4.01938)
(4.65315e-16 -0.887871 5.24958)
(-1.75793e-15 -3.54069 8.11773)
(-2.9017e-15 -3.67847 7.77606)
(1.16779e-14 -9.9376 16.9249)
(1.58361e-14 -18.4535 28.705)
(6.56937e-15 -18.3477 29.2676)
(2.86075e-15 -16.8825 26.7586)
(8.69134e-16 -15.2808 24.6789)
(1.52587e-16 -14.0143 22.4054)
(1.12987e-15 -12.2945 19.9194)
(7.64037e-16 -10.5134 17.2159)
(2.69928e-15 -8.54047 14.4605)
(4.04451e-15 -6.42306 11.4731)
(4.85932e-15 -4.08887 8.20421)
(5.43891e-15 -1.87195 4.87285)
(2.44701e-15 0.140867 1.72661)
(1.04098e-15 1.56085 -0.607597)
(1.65911e-15 0.277299 -0.0962211)
(6.62308e-15 -3.28196 4.76798)
(1.593e-14 -14.0675 21.6309)
(1.20634e-14 -18.047 28.4176)
(5.33572e-15 -17.1096 26.9284)
(1.15943e-15 -15.1226 23.8844)
(3.31848e-16 -13.7718 21.495)
(9.94641e-16 -12.6865 19.5973)
(8.30468e-16 -11.6517 17.7163)
(1.66617e-15 -10.526 15.7438)
(2.29831e-15 -9.25745 13.6284)
(2.39882e-15 -7.83319 11.3642)
(2.76487e-15 -6.17175 8.98348)
(2.42149e-15 -4.37576 6.2948)
(2.29635e-15 -1.94426 3.3356)
(9.31253e-16 -0.147073 -0.742021)
(4.52708e-15 -1.88159 4.40082)
(1.73693e-14 -12.9514 21.3147)
(1.76625e-14 -18.7248 29.4881)
(1.18812e-14 -20.0562 29.571)
(5.54017e-15 -18.99 26.2863)
(2.01192e-15 -17.209 22.5535)
(5.53181e-16 -15.5054 19.433)
(-1.63745e-16 -14.0573 16.9441)
(-5.72135e-18 -12.6651 14.8013)
(4.57592e-16 -11.3027 13.0172)
(4.22192e-16 -9.97153 11.3554)
(3.68874e-16 -8.48599 9.65083)
(2.43892e-16 -6.8507 7.8982)
(-2.50626e-16 -4.90334 5.81821)
(-7.14881e-16 -1.37132 1.44054)
(-8.72508e-18 12.652 54.2169)
(-3.75465e-16 -0.0245064 6.4142)
(-4.60947e-16 -0.559441 -3.07221)
(-4.67337e-16 -0.363956 -2.01373)
(-4.97608e-16 -0.21142 -2.37239)
(-7.30998e-16 0.441018 -3.1714)
(-5.1541e-16 0.184026 -2.12495)
(-4.52025e-16 0.434986 -2.07515)
(-5.45672e-16 0.545331 -1.97662)
(2.04038e-16 1.05732 -2.78309)
(6.74646e-16 0.898495 -1.96863)
(8.33369e-16 1.08033 -1.86098)
(6.3993e-16 1.60329 -2.44081)
(4.15835e-16 1.32024 -1.69959)
(3.68394e-16 1.57124 -1.67848)
(3.66029e-16 1.59025 -1.63748)
(1.42879e-16 2.05991 -2.04856)
(2.78309e-16 1.75337 -1.44785)
(3.16855e-16 1.92388 -1.38307)
(2.62312e-16 2.41684 -1.64194)
(2.52189e-16 1.93328 -1.15204)
(2.23188e-16 2.2006 -1.1197)
(3.41697e-16 2.14511 -1.06811)
(3.6207e-16 2.63869 -1.16815)
(3.27155e-16 2.09874 -0.786408)
(3.71032e-16 2.34383 -0.720695)
(2.64609e-16 2.26598 -0.65951)
(3.35989e-16 2.66378 -0.602353)
(1.89217e-16 2.15664 -0.372729)
(1.7084e-16 2.26275 -0.33223)
(2.43396e-16 2.64787 -0.149604)
(7.23954e-17 2.02264 -0.0966301)
(8.45435e-17 2.21539 -0.0672625)
(-5.27956e-17 2.11585 -0.0743194)
(-1.45288e-16 2.4041 0.148425)
(-1.6435e-16 1.88576 0.0820221)
(-2.15371e-16 1.95979 0.044348)
(-4.09959e-16 2.22726 0.29056)
(-4.03734e-16 1.65246 0.143147)
(-5.28024e-16 1.79713 0.134311)
(-4.5922e-16 1.70394 0.0965762)
(-7.62486e-16 1.95804 0.319181)
(-6.77216e-16 1.47972 0.186775)
(-7.63481e-16 1.60462 0.178429)
(-8.23615e-16 1.51332 0.145607)
(-1.34146e-15 1.77335 0.273698)
(-1.27067e-15 1.49247 0.252851)
(-1.29018e-15 1.51806 0.225847)
(-2.08548e-15 1.72458 0.419544)
(-1.42015e-15 1.36086 0.297904)
(-1.47873e-15 1.44237 0.301127)
(-1.50018e-15 1.36811 0.291278)
(-2.18421e-15 1.44274 0.43736)
(-1.65073e-15 1.08148 0.190354)
(-1.76082e-15 1.13019 0.179861)
(-1.53343e-15 1.09969 0.231345)
(-2.09653e-15 1.01565 -0.0322207)
(-1.4287e-15 0.64947 -0.525136)
(-1.76694e-15 0.655457 -0.335568)
(-2.42957e-15 0.842738 -1.87579)
(-1.7595e-15 -0.0144431 -2.41283)
(-1.54178e-15 0.134357 -2.47007)
(-9.44775e-16 0.42685 -2.41131)
(-3.88143e-16 0.573826 -1.36508)
(-1.8079e-15 -0.831666 1.5848)
(-1.58487e-15 -0.456719 1.33542)
(-1.74477e-15 -1.2766 3.55958)
(-9.30538e-16 -1.96847 4.0642)
(-6.98409e-16 -2.21869 3.96872)
(-5.83422e-16 -2.20537 4.09325)
(-4.37296e-16 -3.61688 6.923)
(-2.48076e-16 -3.99441 6.05468)
(-3.82062e-16 -4.55553 6.26392)
(-5.02149e-16 -4.47303 6.50265)
(-6.94039e-16 -6.65813 10.2225)
(-5.60045e-16 -6.80551 8.28023)
(-7.93937e-16 -6.92094 8.89443)
(-1.05453e-15 -9.4981 13.1568)
(-9.13744e-16 -9.26712 10.3481)
(-1.11465e-15 -9.73698 11.2747)
(-1.35335e-15 -10.4661 13.1079)
(-1.14124e-15 -10.4042 12.9558)
(-9.89392e-16 -10.5028 13.2144)
(3.59911e-17 -12.2401 15.8771)
(-1.37017e-16 -11.203 14.0727)
(2.62288e-16 -11.4963 14.5635)
(4.00927e-16 -11.4772 14.5941)
(5.58973e-16 -11.5904 14.6073)
(6.71658e-16 -11.6591 14.6508)
(7.63216e-16 -11.7533 14.7315)
(8.5862e-16 -11.8444 14.9352)
(9.53421e-16 -11.9117 15.2354)
(1.60094e-15 -12.72 16.907)
(1.30185e-15 -12.2713 15.8477)
(1.50719e-15 -12.4492 16.1051)
(1.65166e-15 -12.4143 16.2157)
(1.79821e-15 -12.5831 16.5461)
(1.86398e-15 -12.5693 16.562)
(1.94716e-15 -12.6745 16.6513)
(2.01108e-15 -12.7261 16.7035)
(2.09724e-15 -12.7938 16.7826)
(2.91883e-15 -13.2944 18.0405)
(2.50875e-15 -12.894 17.1551)
(2.60773e-15 -13.0196 17.3267)
(2.6766e-15 -13.0369 17.4202)
(2.78778e-15 -13.1083 17.5573)
(2.91168e-15 -13.1429 17.7532)
(3.0352e-15 -13.2307 17.9826)
(3.14035e-15 -13.2461 18.0698)
(3.26185e-15 -13.3047 18.2499)
(3.38448e-15 -13.4143 18.4443)
(4.14081e-15 -13.2856 19.2057)
(3.4146e-15 -13.1208 18.7549)
(3.47158e-15 -13.1959 19.0192)
(3.4472e-15 -13.2058 19.1262)
(3.47267e-15 -13.2713 19.2146)
(3.49133e-15 -13.2885 19.2585)
(3.48524e-15 -13.3523 19.4289)
(3.49598e-15 -13.3299 19.3986)
(3.5201e-15 -13.458 19.2872)
(4.20155e-15 -12.4788 18.2358)
(3.50301e-15 -12.6272 18.2225)
(3.69877e-15 -12.6244 18.2953)
(3.90058e-15 -12.6419 18.5026)
(4.09648e-15 -12.5955 18.4942)
(4.3237e-15 -12.6139 18.6167)
(4.55198e-15 -12.605 18.7632)
(4.81221e-15 -12.5332 18.9964)
(5.23358e-15 -12.7769 19.5051)
(5.81007e-15 -10.4972 16.9293)
(5.57283e-15 -11.2629 18.1651)
(5.71255e-15 -11.1443 17.9955)
(5.7298e-15 -11.1197 17.8567)
(6.00081e-15 -11.0802 17.8526)
(5.88782e-15 -11.0047 17.3779)
(5.63718e-15 -10.8739 16.6856)
(5.40783e-15 -10.7212 15.9428)
(5.20115e-15 -10.758 15.1184)
(4.56644e-15 -7.6249 10.1165)
(5.5665e-15 -8.8714 13.2151)
(5.29456e-15 -8.50898 12.251)
(5.29299e-15 -8.48785 12.0252)
(5.3113e-15 -8.23882 11.7299)
(5.52273e-15 -8.15529 11.6016)
(6.39304e-15 -7.9021 11.4716)
(6.00113e-15 -7.76092 11.227)
(6.01615e-15 -7.54055 10.9524)
(5.76371e-15 -7.4467 10.4104)
(2.63747e-15 -3.80264 4.4636)
(4.99838e-15 -5.65948 8.29162)
(4.32951e-15 -5.12344 6.79502)
(3.93896e-15 -5.29575 6.26092)
(3.3483e-15 -4.95316 5.1755)
(2.60326e-15 -4.89565 3.90124)
(1.21271e-15 -4.68772 1.70391)
(-1.26885e-17 -4.33631 -0.291285)
(3.3371e-16 -4.36712 -0.113992)
(-6.99635e-16 -4.01426 -1.84802)
(1.01695e-16 -3.888 -0.593559)
(2.74845e-17 -3.85614 -1.0124)
(-7.3401e-16 -3.05994 -1.62301)
(-6.43246e-16 -4.13267 -1.6631)
(-9.07019e-16 -3.23646 -1.42374)
(-7.56055e-16 -2.86479 -0.998869)
(-1.01471e-15 -3.43928 -1.4057)
(-7.15546e-16 -2.39445 -0.896619)
(-1.00602e-15 -2.89018 -1.33042)
(-6.78176e-16 -2.49687 -1.04179)
(-5.70887e-16 -2.05996 -0.793976)
(-8.61569e-16 -2.29985 -1.16264)
(-8.32958e-16 -2.03025 -0.943212)
(-7.39515e-16 -1.69286 -0.730429)
(-1.0118e-15 -2.05338 -1.0124)
(-8.08853e-16 -1.40339 -0.695714)
(-1.02353e-15 -1.67389 -1.03783)
(-7.57522e-16 -1.39298 -0.860723)
(-8.01504e-16 -1.18298 -0.686367)
(-1.06251e-15 -1.40111 -0.951126)
(-5.58811e-16 -0.943754 -0.673326)
(-9.2849e-16 -1.1062 -1.00921)
(-9.48567e-16 -0.944585 -0.852511)
(-9.22054e-16 -0.749684 -0.690892)
(-1.34176e-15 -0.795516 -1.02234)
(-1.26859e-15 -0.692066 -0.86431)
(-8.09427e-16 -0.541709 -0.693057)
(-1.27177e-15 -0.629998 -0.970649)
(-1.07346e-15 -0.362518 -0.695641)
(-1.12159e-15 -0.433177 -1.06862)
(-5.3013e-16 -0.278395 -0.90007)
(-7.13458e-16 -0.197148 -0.707915)
(-1.04962e-15 -0.260362 -0.999114)
(-1.15047e-15 0.0174149 -0.696249)
(-1.81107e-15 -0.147397 -1.08789)
(-1.99432e-15 -0.0335436 -0.989221)
(-1.10618e-15 0.273375 -0.606256)
(-2.87964e-16 0.0905733 -0.892828)
(-3.07032e-15 0.0813328 -1.10386)
(-3.37791e-15 0.377771 -0.692785)
(-2.75271e-15 0.310008 -0.912072)
(-7.59737e-16 0.418154 -0.650459)
(-5.32713e-16 0.530023 -0.786113)
(5.99002e-16 0.469517 -0.918518)
(1.05411e-15 0.542054 -0.622098)
(1.45717e-15 0.669823 -0.83287)
(6.93802e-16 0.633312 -0.579565)
(-7.77148e-17 0.76129 -0.67486)
(-1.83709e-15 0.748955 -0.737916)
(-1.62904e-15 0.715317 -0.487436)
(-1.87005e-15 0.87817 -0.578768)
(-2.04969e-15 0.861802 -0.655626)
(-1.47905e-15 0.78153 -0.440131)
(-1.42469e-15 1.03552 -0.580912)
(-6.17741e-16 0.872299 -0.412088)
(-4.96376e-16 1.01561 -0.491482)
(-2.92538e-16 1.04337 -0.541583)
(1.33642e-16 0.905405 -0.360331)
(4.99004e-16 1.20992 -0.460019)
(4.55224e-16 0.988445 -0.314345)
(4.42563e-16 1.14519 -0.358384)
(-4.87665e-16 1.16314 -0.366454)
(-9.17241e-16 1.02065 -0.244048)
(-1.87668e-15 1.21333 -0.285622)
(-2.14005e-15 1.24351 -0.29182)
(-1.3559e-15 1.03629 -0.199537)
(-1.46681e-15 1.38613 -0.251667)
(-9.01115e-16 1.11826 -0.17355)
(-8.99718e-16 1.26388 -0.195444)
(-7.56478e-16 1.34442 -0.194597)
(-3.29383e-16 1.12002 -0.135919)
(-2.00588e-16 1.48456 -0.191465)
(2.08364e-17 1.20213 -0.139794)
(6.56755e-17 1.36826 -0.17603)
(5.46242e-16 1.43025 -0.208016)
(6.51861e-16 1.26099 -0.144457)
(1.11199e-15 1.46415 -0.187041)
(1.67976e-15 1.56071 -0.243451)
(1.26969e-15 1.30962 -0.16206)
(1.67926e-15 1.74551 -0.286243)
(1.14832e-15 1.42115 -0.199056)
(9.91265e-16 1.66659 -0.337337)
(-6.35904e-25 0.967764 1.29711)
(-4.48344e-24 1.08359 1.30611)
(-1.56045e-23 1.13642 1.31908)
(-3.714e-23 1.20014 1.3349)
(-2.54555e-23 1.25291 1.35367)
(2.7005e-22 1.30623 1.37545)
(1.62824e-21 1.35534 1.39968)
(5.33151e-21 1.40458 1.42687)
(1.02286e-20 1.45271 1.4567)
(1.77833e-22 1.50156 1.48953)
(-8.62675e-20 1.55105 1.52528)
(-3.89603e-19 1.60206 1.56411)
(-1.05897e-18 1.65481 1.60598)
(-1.75865e-18 1.70952 1.6514)
(-1.6268e-19 1.76558 1.70254)
(1.11331e-17 1.82098 1.76602)
(4.88808e-17 1.87149 1.85628)
(1.41926e-16 1.91069 1.99689)
(3.27477e-16 1.93147 2.21553)
(6.37591e-16 1.92915 2.5312)
(1.08017e-15 1.90431 2.9398)
(1.62634e-15 1.86319 3.40957)
(2.21391e-15 1.815 3.89107)
(2.76511e-15 1.76821 4.33503)
(3.20829e-15 1.72835 4.70651)
(3.49375e-15 1.6981 4.98949)
(3.59962e-15 1.6787 5.18359)
(3.52974e-15 1.67088 5.2979)
(3.30718e-15 1.67486 5.34525)
(2.96682e-15 1.6897 5.33861)
(2.54872e-15 1.71286 5.28905)
(2.09261e-15 1.74048 5.20519)
(1.63296e-15 1.76776 5.09347)
(1.19459e-15 1.78917 4.95894)
(7.89111e-16 1.7979 4.80594)
(4.11077e-16 1.78578 4.63911)
(2.33856e-17 1.74951 4.4671)
(-4.70135e-16 1.69648 4.30641)
(-1.1403e-15 1.55955 4.14569)
(-1.58114e-15 0.959176 3.81342)
(-9.26209e-16 -0.377987 3.13618)
(-3.14042e-16 -1.25244 2.88118)
(1.4103e-16 -1.66561 2.73439)
(5.89472e-16 -1.98066 2.58067)
(1.0466e-15 -2.3171 2.42357)
(1.51218e-15 -2.66905 2.26762)
(1.9783e-15 -3.03051 2.11245)
(2.43071e-15 -3.39496 1.95564)
(2.841e-15 -3.75459 1.79915)
(3.17845e-15 -4.1018 1.64106)
(3.4081e-15 -4.43033 1.48089)
(3.50333e-15 -4.72949 1.31498)
(3.44429e-15 -4.99356 1.14762)
(3.23172e-15 -5.22907 0.978943)
(2.88556e-15 -5.42554 0.803144)
(2.4462e-15 -5.56897 0.623528)
(1.95969e-15 -5.66527 0.444275)
(1.44709e-15 -5.69782 0.265086)
(9.38824e-16 -5.60978 0.0940387)
(4.82762e-16 -5.37151 -0.0526785)
(1.64139e-16 -5.00671 -0.165171)
(2.78325e-17 -4.62146 -0.235939)
(-2.07504e-18 -4.26717 -0.28199)
(-1.987e-18 -3.94932 -0.304725)
(-2.964e-19 -3.64884 -0.32087)
(2.46574e-20 -3.34614 -0.328079)
(1.28639e-20 -3.0161 -0.338852)
(9.58367e-22 -2.69381 -0.344798)
(-2.3248e-22 -2.31427 -0.360352)
(-6.42127e-23 -1.98462 -0.364778)
(-3.40878e-23 -1.46171 -0.386398)
(5.10874e-23 -1.15397 -0.380422)
(-1.08963e-21 0.0476729 -0.470962)
(5.07592e-21 1.06311 -0.368376)
(-1.91986e-20 1.95056 -0.421054)
(8.48658e-20 2.57999 -0.0657801)
(-1.45187e-19 3.00508 -0.259716)
(1.64317e-19 3.34033 0.110183)
(3.24268e-19 -2.50621 -0.342532)
(-2.8461e-24 0.966446 1.36236)
(-1.34578e-23 1.08026 1.36998)
(-3.39112e-23 1.13185 1.38304)
(-3.67829e-23 1.19466 1.39959)
(1.82602e-22 1.24643 1.41911)
(1.35015e-21 1.29887 1.44229)
(4.94982e-21 1.34709 1.46804)
(1.11466e-20 1.39542 1.49725)
(7.5553e-21 1.44263 1.52931)
(-6.2428e-20 1.49052 1.56471)
(-3.47591e-19 1.53904 1.6032)
(-1.06128e-18 1.58907 1.64491)
(-2.05371e-18 1.64073 1.69005)
(-1.30015e-18 1.69382 1.74065)
(8.52114e-18 1.74654 1.80333)
(4.52759e-17 1.79469 1.89385)
(1.41587e-16 1.83118 2.0397)
(3.41625e-16 1.84765 2.27534)
(6.84698e-16 1.83847 2.62594)
(1.17964e-15 1.80509 3.08687)
(1.78685e-15 1.75692 3.61537)
(2.42416e-15 1.70723 4.14492)
(2.9945e-15 1.66699 4.61255)
(3.41698e-15 1.64114 4.97958)
(3.64524e-15 1.62917 5.23573)
(3.66946e-15 1.62812 5.39095)
(3.50843e-15 1.63553 5.4642)
(3.1987e-15 1.65045 5.47517)
(2.78532e-15 1.67282 5.44002)
(2.31481e-15 1.70223 5.37029)
(1.83004e-15 1.73697 5.27346)
(1.36573e-15 1.77391 5.15435)
(9.44038e-16 1.8088 5.01667)
(5.70382e-16 1.83635 4.86434)
(2.30858e-16 1.84975 4.70233)
(-1.08763e-16 1.84011 4.53704)
(-5.13972e-16 1.80208 4.37909)
(-1.11609e-15 1.74596 4.24788)
(-2.03022e-15 1.63429 4.14299)
(-2.70016e-15 1.11335 3.88546)
(-1.46577e-15 -0.285071 3.09884)
(-1.96613e-16 -1.2654 2.7675)
(2.33596e-16 -1.65728 2.70721)
(6.45977e-16 -1.96812 2.5567)
(1.09369e-15 -2.30752 2.39472)
(1.55183e-15 -2.66094 2.24356)
(2.01055e-15 -3.02282 2.09333)
(2.45577e-15 -3.38679 1.94137)
(2.85914e-15 -3.74463 1.78972)
(3.1899e-15 -4.08878 1.63579)
(3.41356e-15 -4.41311 1.47886)
(3.50372e-15 -4.70762 1.31568)
(3.44099e-15 -4.96736 1.15046)
(3.22626e-15 -5.1977 0.983292)
(2.87954e-15 -5.38861 0.808611)
(2.44092e-15 -5.52753 0.629803)
(1.95567e-15 -5.61992 0.451091)
(1.4446e-15 -5.64961 0.272242)
(9.37895e-16 -5.56177 0.101233)
(4.83032e-16 -5.327 -0.0458815)
(1.6483e-16 -4.96784 -0.159202)
(2.81526e-17 -4.58718 -0.231158)
(-2.09187e-18 -4.23548 -0.278608)
(-2.04425e-18 -3.91848 -0.303101)
(-3.1133e-19 -3.61773 -0.321354)
(2.55432e-20 -3.31433 -0.331207)
(1.39065e-20 -2.98389 -0.345024)
(1.084e-21 -2.66177 -0.354405)
(-2.59756e-22 -2.28406 -0.373461)
(-7.34555e-23 -1.95697 -0.381128)
(-3.44812e-23 -1.43819 -0.408087)
(5.80317e-23 -1.12507 -0.403049)
(-1.06598e-21 0.0285788 -0.543457)
(4.54359e-21 1.0561 -0.370096)
(-1.61878e-20 1.90343 -0.41867)
(5.90005e-20 2.55327 -0.0714845)
(-2.00879e-20 2.97885 -0.237015)
(-1.24039e-19 3.35218 0.0989747)
(-6.00628e-18 -2.41599 -0.340367)
(-6.98631e-24 0.965886 1.39849)
(-2.41933e-23 1.0789 1.40569)
(-3.57398e-23 1.12959 1.41871)
(7.71209e-23 1.192 1.43581)
(8.18622e-22 1.24319 1.45574)
(3.45123e-21 1.29517 1.47982)
(9.15007e-21 1.34289 1.50649)
(1.18081e-20 1.39074 1.53692)
(-2.65108e-20 1.43746 1.5703)
(-2.24067e-19 1.48487 1.60715)
(-8.00775e-19 1.53293 1.64709)
(-1.8315e-18 1.58243 1.69042)
(-2.12698e-18 1.63323 1.73827)
(3.67986e-18 1.68426 1.79572)
(3.02735e-17 1.73208 1.87597)
(1.07045e-16 1.77035 2.00464)
(2.77621e-16 1.79073 2.21744)
(5.85939e-16 1.78678 2.54564)
(1.04961e-15 1.75885 2.99291)
(1.6371e-15 1.71599 3.52149)
(2.26941e-15 1.6721 4.06341)
(2.84785e-15 1.63884 4.55008)
(3.28807e-15 1.6211 4.93735)
(3.54045e-15 1.61728 5.21198)
(3.59251e-15 1.62279 5.38309)
(3.46067e-15 1.63362 5.46999)
(3.17943e-15 1.6481 5.49303)
(2.79219e-15 1.66682 5.46909)
(2.34452e-15 1.69123 5.41028)
(1.87893e-15 1.72197 5.32438)
(1.43049e-15 1.7579 5.2162)
(1.02258e-15 1.796 5.08921)
(6.62632e-16 1.8318 4.94702)
(3.38593e-16 1.85966 4.79462)
(1.76659e-17 1.8723 4.63894)
(-3.51807e-16 1.86037 4.48879)
(-8.46653e-16 1.81757 4.35617)
(-1.60504e-15 1.75462 4.25963)
(-2.75793e-15 1.64909 4.2024)
(-3.70058e-15 1.18278 4.01914)
(-2.29889e-15 -0.151549 3.21513)
(-2.125e-16 -1.18535 2.66153)
(3.7418e-16 -1.61976 2.63388)
(7.34224e-16 -1.92085 2.52477)
(1.15438e-15 -2.25777 2.35967)
(1.60283e-15 -2.61257 2.20938)
(2.05231e-15 -2.97441 2.06564)
(2.48787e-15 -3.33855 1.92057)
(2.88215e-15 -3.69706 1.77567)
(3.20431e-15 -4.04196 1.62795)
(3.42032e-15 -4.36693 1.476)
(3.50408e-15 -4.66241 1.31698)
(3.43669e-15 -4.92369 1.1551)
(3.21928e-15 -5.15503 0.990307)
(2.87188e-15 -5.34674 0.817331)
(2.43418e-15 -5.48722 0.639703)
(1.95052e-15 -5.58153 0.461698)
(1.44137e-15 -5.61393 0.283123)
(9.36622e-16 -5.53135 0.111875)
(4.83276e-16 -5.30464 -0.0360477)
(1.65629e-16 -4.95547 -0.150651)
(2.85349e-17 -4.58378 -0.224238)
(-2.10948e-18 -4.23888 -0.27355)
(-2.1128e-18 -3.92645 -0.300363)
(-3.29735e-19 -3.62834 -0.32146)
(2.65353e-20 -3.32607 -0.334953)
(1.52163e-20 -2.99593 -0.353105)
(1.2529e-21 -2.67288 -0.367448)
(-2.94458e-22 -2.29461 -0.391746)
(-8.62702e-23 -1.96504 -0.404178)
(-3.51819e-23 -1.44624 -0.437661)
(6.53767e-23 -1.11321 -0.433613)
(-1.02947e-21 0.0213414 -0.573763)
(4.11493e-21 1.04558 -0.380552)
(-1.40193e-20 1.88294 -0.42196)
(4.52722e-20 2.53796 -0.0825634)
(4.20763e-20 2.96828 -0.225616)
(-2.95672e-19 3.35644 0.0856254)
(-1.31389e-17 -2.39031 -0.288011)
(-1.36838e-23 0.964984 1.44165)
(-2.92518e-23 1.07672 1.4487)
(2.53624e-23 1.12611 1.4618)
(4.80705e-22 1.18787 1.47961)
(2.32738e-21 1.23817 1.50014)
(7.08918e-21 1.28945 1.52532)
(1.26222e-20 1.33641 1.55312)
(-4.76844e-21 1.38352 1.58503)
(-1.34055e-19 1.42951 1.61996)
(-5.78292e-19 1.47618 1.65849)
(-1.54317e-18 1.5235 1.70017)
(-2.4602e-18 1.57204 1.74591)
(4.00078e-19 1.62097 1.79916)
(1.87864e-17 1.66768 1.87081)
(7.87892e-17 1.70629 1.98418)
(2.23256e-16 1.72821 2.17589)
(5.01267e-16 1.72538 2.48389)
(9.41229e-16 1.69612 2.92256)
(1.52193e-15 1.6488 3.46158)
(2.16705e-15 1.59915 4.03108)
(2.77183e-15 1.5623 4.55284)
(3.24218e-15 1.54604 4.9723)
(3.52061e-15 1.54956 5.27007)
(3.59081e-15 1.56683 5.45404)
(3.46881e-15 1.59093 5.5453)
(3.19063e-15 1.61712 5.5671)
(2.80201e-15 1.64392 5.53934)
(2.35088e-15 1.67243 5.4767)
(1.88189e-15 1.70472 5.38877)
(1.43197e-15 1.74191 5.28115)
(1.02625e-15 1.78318 5.15709)
(6.74112e-16 1.82558 5.01941)
(3.65635e-16 1.86446 4.87217)
(6.90331e-17 1.89382 4.72191)
(-2.6869e-16 1.90602 4.57801)
(-7.15843e-16 1.8912 4.45169)
(-1.35594e-15 1.84211 4.35558)
(-2.32361e-15 1.77087 4.3059)
(-3.75359e-15 1.67544 4.30539)
(-5.00766e-15 1.28138 4.19745)
(-3.56781e-15 0.0175013 3.4126)
(-4.56936e-16 -1.12583 2.60864)
(4.85691e-16 -1.60679 2.53177)
(8.55807e-16 -1.89731 2.47041)
(1.22842e-15 -2.22647 2.32143)
(1.65777e-15 -2.58301 2.16993)
(2.0977e-15 -2.94567 2.03069)
(2.5228e-15 -3.30962 1.894)
(2.90685e-15 -3.66777 1.75752)
(3.21959e-15 -4.012 1.61767)
(3.42736e-15 -4.33602 1.47237)
(3.50425e-15 -4.63075 1.31894)
(3.4319e-15 -4.89173 1.16151)
(3.21166e-15 -5.12233 0.999961)
(2.86356e-15 -5.3132 0.829295)
(2.42684e-15 -5.45358 0.653229)
(1.94487e-15 -5.54821 0.476104)
(1.43775e-15 -5.58165 0.297805)
(9.35089e-16 -5.50232 0.126173)
(4.83384e-16 -5.2813 -0.0228321)
(1.66377e-16 -4.93946 -0.139123)
(2.89131e-17 -4.57426 -0.21483)
(-2.12376e-18 -4.23408 -0.266525)
(-2.18131e-18 -3.92454 -0.296213)
(-3.48837e-19 -3.62781 -0.320822)
(2.74407e-20 -3.32586 -0.338788)
(1.66125e-20 -2.99558 -0.362371)
(1.44823e-21 -2.6718 -0.382952)
(-3.31981e-22 -2.29349 -0.413991)
(-1.01693e-22 -1.9626 -0.432503)
(-3.62536e-23 -1.44504 -0.473316)
(7.21348e-23 -1.09673 -0.470524)
(-9.64515e-22 0.00776616 -0.614349)
(3.59425e-21 1.03286 -0.402082)
(-1.14091e-20 1.85024 -0.430051)
(2.94526e-20 2.51439 -0.0993139)
(1.11933e-19 2.95101 -0.212113)
(-5.22031e-19 3.36082 0.0772511)
(-1.76671e-17 -2.36688 -0.268229)
(-1.94119e-23 0.964193 1.48381)
(5.23904e-24 1.07498 1.49102)
(2.78886e-22 1.12302 1.50422)
(1.52112e-21 1.18424 1.52287)
(5.19814e-21 1.23369 1.54402)
(1.13622e-20 1.28432 1.57036)
(6.56583e-21 1.33058 1.59933)
(-7.19179e-20 1.37701 1.63272)
(-3.94799e-19 1.42235 1.66915)
(-1.22138e-18 1.46838 1.70927)
(-2.41032e-18 1.51495 1.75285)
(-1.5771e-18 1.5621 1.80251)
(1.02405e-17 1.60767 1.8665)
(5.53304e-17 1.64663 1.96532)
(1.74278e-16 1.67038 2.13483)
(4.19573e-16 1.66963 2.41837)
(8.30196e-16 1.64042 2.84168)
(1.39722e-15 1.58984 3.38481)
(2.0494e-15 1.53495 3.97858)
(2.67678e-15 1.49436 4.53537)
(3.17503e-15 1.47901 4.98878)
(3.47827e-15 1.48917 5.31203)
(3.56657e-15 1.51761 5.51146)
(3.45601e-15 1.55488 5.60987)
(3.18441e-15 1.59335 5.6331)
(2.79952e-15 1.62903 5.60343)
(2.35096e-15 1.66172 5.53765)
(1.88474e-15 1.69386 5.44723)
(1.4389e-15 1.72855 5.33912)
(1.03972e-15 1.76761 5.21707)
(6.98069e-16 1.81043 5.08345)
(4.06049e-16 1.85387 4.9413)
(1.34183e-16 1.89275 4.79614)
(-1.69597e-16 1.9204 4.65709)
(-5.76349e-16 1.92863 4.53645)
(-1.16465e-15 1.90744 4.44724)
(-2.01242e-15 1.84936 4.40054)
(-3.2314e-15 1.76767 4.40648)
(-4.94064e-15 1.67682 4.4638)
(-6.50059e-15 1.35276 4.4284)
(-5.14388e-15 0.203064 3.6874)
(-9.72545e-16 -1.03168 2.6143)
(4.89202e-16 -1.59015 2.42979)
(9.8586e-16 -1.88245 2.38776)
(1.32482e-15 -2.20087 2.27086)
(1.71841e-15 -2.55699 2.12715)
(2.14448e-15 -2.92175 1.98974)
(2.55929e-15 -3.28639 1.86102)
(2.93251e-15 -3.64409 1.73476)
(3.23521e-15 -3.98713 1.6045)
(3.4344e-15 -4.3094 1.46756)
(3.5042e-15 -4.60243 1.32137)
(3.42674e-15 -4.86208 1.16971)
(3.20358e-15 -5.09083 1.01239)
(2.85476e-15 -5.27974 0.844775)
(2.41905e-15 -5.41897 0.670732)
(1.93881e-15 -5.5129 0.494701)
(1.43378e-15 -5.54641 0.31668)
(9.33252e-16 -5.46953 0.144474)
(4.83285e-16 -5.25356 -0.00595481)
(1.67006e-16 -4.91858 -0.124375)
(2.92644e-17 -4.5594 -0.202699)
(-2.13351e-18 -4.22342 -0.257308)
(-2.24644e-18 -3.91623 -0.290436)
(-3.67836e-19 -3.62034 -0.319236)
(2.82074e-20 -3.31824 -0.342517)
(1.80501e-20 -2.9875 -0.372635)
(1.66788e-21 -2.66296 -0.400754)
(-3.71142e-22 -2.28498 -0.440048)
(-1.1986e-22 -1.95344 -0.466055)
(-3.78214e-23 -1.43842 -0.515183)
(7.82832e-23 -1.07695 -0.514277)
(-8.84594e-22 -0.00949426 -0.663384)
(3.00831e-21 1.01576 -0.432187)
(-8.67931e-21 1.82262 -0.442411)
(1.50208e-20 2.49084 -0.121682)
(1.72979e-19 2.93572 -0.200711)
(-7.57469e-19 3.36116 0.0687693)
(-1.97649e-17 -2.33573 -0.210897)
(-8.47245e-24 0.963246 1.52685)
(1.67601e-22 1.07305 1.53452)
(9.80034e-22 1.11956 1.54787)
(3.65881e-21 1.18019 1.56749)
(9.26814e-21 1.22869 1.58933)
(1.11246e-20 1.27858 1.61692)
(-3.22065e-20 1.32406 1.64713)
(-2.53979e-19 1.36975 1.68202)
(-9.14832e-19 1.41438 1.71993)
(-2.13668e-18 1.45965 1.76171)
(-2.57279e-18 1.50507 1.80817)
(4.2449e-18 1.54955 1.86574)
(3.65845e-17 1.58866 1.95129)
(1.31485e-16 1.61429 2.09862)
(3.42882e-16 1.61599 2.35445)
(7.19635e-16 1.5872 2.75598)
(1.26726e-15 1.53255 3.29677)
(1.92307e-15 1.46938 3.91226)
(2.57351e-15 1.41966 4.50655)
(3.10289e-15 1.3986 4.99947)
(3.43485e-15 1.40913 5.35441)
(3.54439e-15 1.44436 5.57479)
(3.44722e-15 1.49339 5.6848)
(3.18302e-15 1.54612 5.71282)
(2.80175e-15 1.59569 5.68314)
(2.35497e-15 1.63924 5.61411)
(1.89016e-15 1.67755 5.51885)
(1.44664e-15 1.71385 5.40616)
(1.05196e-15 1.7518 5.28136)
(7.18565e-16 1.79353 5.14751)
(4.40571e-16 1.83835 5.00719)
(1.90958e-16 1.88269 4.8648)
(-8.00409e-17 1.92066 4.72843)
(-4.43478e-16 1.94489 4.61038)
(-9.83398e-16 1.94692 4.52552)
(-1.77803e-15 1.91717 4.48668)
(-2.88326e-15 1.84888 4.49972)
(-4.36722e-15 1.75686 4.56465)
(-6.31699e-15 1.67097 4.67401)
(-8.13297e-15 1.42087 4.70179)
(-6.95949e-15 0.416102 4.02669)
(-1.79692e-15 -0.886969 2.68718)
(3.34462e-16 -1.55523 2.34461)
(1.07328e-15 -1.86794 2.28716)
(1.44051e-15 -2.17705 2.19832)
(1.79251e-15 -2.52898 2.0775)
(2.1933e-15 -2.89494 1.945)
(2.59625e-15 -3.26129 1.82209)
(2.95885e-15 -3.61899 1.70672)
(3.25105e-15 -3.96089 1.58781)
(3.44131e-15 -4.28149 1.46088)
(3.50387e-15 -4.57292 1.32355)
(3.4212e-15 -4.83131 1.1791)
(3.19505e-15 -5.05832 1.02715)
(2.84549e-15 -5.24543 0.863428)
(2.4108e-15 -5.3837 0.691981)
(1.93229e-15 -5.47714 0.517344)
(1.42937e-15 -5.51095 0.33966)
(9.31038e-16 -5.43676 0.166727)
(4.82915e-16 -5.22615 0.0145545)
(1.67474e-16 -4.8984 -0.106403)
(2.95757e-17 -4.54566 -0.187784)
(-2.13832e-18 -4.21421 -0.245793)
(-2.30662e-18 -3.90957 -0.282869)
(-3.86351e-19 -3.61459 -0.316465)
(2.88173e-20 -3.31224 -0.345803)
(1.95115e-20 -2.98089 -0.383432)
(1.91259e-21 -2.65537 -0.420255)
(-4.11332e-22 -2.2776 -0.469137)
(-1.41139e-22 -1.9451 -0.503972)
(-4.00527e-23 -1.43301 -0.562133)
(8.36893e-23 -1.05802 -0.563981)