/*--------------------------------*- C++ -*----------------------------------*\
| =========                 |                                                 |
| \\      /  F ield         | OpenFOAM: The Open Source CFD Toolbox           |
|  \\    /   O peration     | Version:  4.1                                   |
|   \\  /    A nd           | Web:      www.OpenFOAM.org                      |
|    \\/     M anipulation  |                                                 |
\*---------------------------------------------------------------------------*/
FoamFile
{
    version     2.0;
    format      ascii;
    class       volScalarField;
    location    "1";
    object      p;
}
// * * * * * * * * * * * * * * * * * * * * * * * * * * * * * * * * * * * * * //

dimensions      [0 2 -2 0 0 0 0];

internalField   nonuniform List<scalar> 
6785
(
-8.04055e+11
-8.04055e+11
-8.04055e+11
-8.04055e+11
-8.04055e+11
-8.04055e+11
-8.04055e+11
-8.04055e+11
-8.04055e+11
-8.04055e+11
-8.04055e+11
-8.04055e+11
-8.04055e+11
-8.04055e+11
-8.04055e+11
-8.04056e+11
-8.04056e+11
-8.04056e+11
-8.04056e+11
-8.04056e+11
-8.04056e+11
-8.04056e+11
-8.04056e+11
-8.04056e+11
-8.04056e+11
-8.04056e+11
-8.04056e+11
-8.04056e+11
-8.04056e+11
-8.04056e+11
-8.04059e+11
-8.04059e+11
-8.04059e+11
-8.04059e+11
-8.04059e+11
-8.04059e+11
-8.04059e+11
-8.04059e+11
-8.04059e+11
-8.0406e+11
-8.0406e+11
-8.0406e+11
-8.0406e+11
-8.0406e+11
-8.0406e+11
-8.04065e+11
-8.04065e+11
-8.04065e+11
-8.04065e+11
-8.04065e+11
-8.04065e+11
-8.04065e+11
-8.04065e+11
-8.04065e+11
-8.04066e+11
-8.04066e+11
-8.04066e+11
-8.04066e+11
-8.04066e+11
-8.04066e+11
-8.04074e+11
-8.04074e+11
-8.04074e+11
-8.04074e+11
-8.04074e+11
-8.04074e+11
-8.04074e+11
-8.04074e+11
-8.04074e+11
-8.04074e+11
-8.04074e+11
-8.04074e+11
-8.04075e+11
-8.04075e+11
-8.04075e+11
-8.04088e+11
-8.04088e+11
-8.04088e+11
-8.04088e+11
-8.04087e+11
-8.04087e+11
-8.04087e+11
-8.04087e+11
-8.04087e+11
-8.04087e+11
-8.04088e+11
-8.04088e+11
-8.04088e+11
-8.04088e+11
-8.04088e+11
-8.04119e+11
-8.04119e+11
-8.04118e+11
-8.04118e+11
-8.04117e+11
-8.04117e+11
-8.04116e+11
-8.04116e+11
-8.04116e+11
-8.04115e+11
-8.04115e+11
-8.04115e+11
-8.04115e+11
-8.04115e+11
-8.04115e+11
-8.04191e+11
-8.0419e+11
-8.04189e+11
-8.04188e+11
-8.04186e+11
-8.04185e+11
-8.04183e+11
-8.04181e+11
-8.0418e+11
-8.04178e+11
-8.04176e+11
-8.04175e+11
-8.04174e+11
-8.04173e+11
-8.04173e+11
-8.04379e+11
-8.04377e+11
-8.04375e+11
-8.04373e+11
-8.04371e+11
-8.04369e+11
-8.04367e+11
-8.04366e+11
-8.04365e+11
-8.04364e+11
-8.04363e+11
-8.04362e+11
-8.04361e+11
-8.04359e+11
-8.04359e+11
-8.04961e+11
-8.04972e+11
-8.04994e+11
-8.0502e+11
-8.05047e+11
-8.05073e+11
-8.05096e+11
-8.05115e+11
-8.05131e+11
-8.05141e+11
-8.05148e+11
-8.0515e+11
-8.05149e+11
-8.05146e+11
-8.05142e+11
-8.06787e+11
-8.06822e+11
-8.06878e+11
-8.06933e+11
-8.06973e+11
-8.06986e+11
-8.06986e+11
-8.0698e+11
-8.06973e+11
-8.06965e+11
-8.06956e+11
-8.06945e+11
-8.06939e+11
-8.06936e+11
-8.06936e+11
-8.08562e+11
-8.08578e+11
-8.08597e+11
-8.08617e+11
-8.08641e+11
-8.08671e+11
-8.0872e+11
-8.08786e+11
-8.08867e+11
-8.08951e+11
-8.09037e+11
-8.09119e+11
-8.09189e+11
-8.09239e+11
-8.09271e+11
-8.10184e+11
-8.10197e+11
-8.1023e+11
-8.10297e+11
-8.10426e+11
-8.10617e+11
-8.10847e+11
-8.11084e+11
-8.11312e+11
-8.11515e+11
-8.11691e+11
-8.11815e+11
-8.11921e+11
-8.11993e+11
-8.12037e+11
-8.09212e+11
-8.09451e+11
-8.09914e+11
-8.10595e+11
-8.11409e+11
-8.12295e+11
-8.13218e+11
-8.1414e+11
-8.15035e+11
-8.15861e+11
-8.16578e+11
-8.17188e+11
-8.17626e+11
-8.17891e+11
-8.17977e+11
-7.88028e+11
-7.89366e+11
-7.91789e+11
-7.94976e+11
-7.9878e+11
-8.03186e+11
-8.07963e+11
-8.12929e+11
-8.17879e+11
-8.22678e+11
-8.27119e+11
-8.31232e+11
-8.34836e+11
-8.37566e+11
-8.39216e+11
7.70421e+14
7.70266e+14
6.25453e+14
5.33362e+14
4.27743e+14
2.69073e+14
1.99804e+14
1.66136e+14
1.26583e+14
6.61962e+13
4.00735e+13
2.7542e+13
7.61987e+12
4.44049e+11
-2.6892e+12
-7.18286e+12
-1.47663e+13
-1.73838e+13
-1.83951e+13
-2.05448e+13
-1.99213e+13
-1.89465e+13
-1.82834e+13
-1.76969e+13
-1.64228e+13
-1.52348e+13
-1.41379e+13
-1.27262e+13
-1.17307e+13
-1.10165e+13
-1.00724e+13
-9.31929e+12
-8.79618e+12
-8.28791e+12
-7.60524e+12
-7.08117e+12
-6.73473e+12
-6.26637e+12
-5.901e+12
-5.65776e+12
-5.41976e+12
-5.09826e+12
-4.83022e+12
-4.65046e+12
-4.47421e+12
-4.23583e+12
-4.02685e+12
-3.8861e+12
-3.69406e+12
-3.5278e+12
-3.41521e+12
-3.30339e+12
-3.1506e+12
-3.01515e+12
-2.92328e+12
-2.83197e+12
-2.7072e+12
-2.59371e+12
-2.51647e+12
-2.41043e+12
-2.31616e+12
-2.25183e+12
-2.18766e+12
-2.09973e+12
-2.01906e+12
-1.9639e+12
-1.88801e+12
-1.82001e+12
-1.77347e+12
-1.72696e+12
-1.66309e+12
-1.6045e+12
-1.56437e+12
-1.52436e+12
-1.46955e+12
-1.41806e+12
-1.3828e+12
-1.33428e+12
-1.29014e+12
-1.25986e+12
-1.22245e+12
-1.19579e+12
-1.17293e+12
-1.1198e+12
-1.07294e+12
-1.05836e+12
-1.04537e+12
-1.03371e+12
-1.02323e+12
-1.01385e+12
-1.00547e+12
-9.98001e+11
-9.79708e+11
-9.5904e+11
-9.52067e+11
-9.45583e+11
-9.39562e+11
-9.33953e+11
-9.28736e+11
-9.23883e+11
-9.19375e+11
-9.07953e+11
-8.94727e+11
-8.90109e+11
-8.85676e+11
-8.81412e+11
-8.77317e+11
-8.73372e+11
-8.69585e+11
-8.65932e+11
-8.62407e+11
-8.53122e+11
-8.43276e+11
-8.39741e+11
-8.36235e+11
-8.32751e+11
-8.2928e+11
-8.25824e+11
-8.22372e+11
-8.18929e+11
-8.09488e+11
-8.01357e+11
-7.98404e+11
-7.95385e+11
-7.92305e+11
-7.89148e+11
-7.85915e+11
-7.82593e+11
-7.79171e+11
-7.6949e+11
-7.62855e+11
-7.60382e+11
-7.57757e+11
-7.5495e+11
-7.51967e+11
-7.48776e+11
-7.45375e+11
-7.41744e+11
-7.31096e+11
-7.2503e+11
-7.2263e+11
-7.19907e+11
-7.16854e+11
-7.13441e+11
-7.09652e+11
-7.05437e+11
-7.00765e+11
-6.95607e+11
-6.79999e+11
-6.68909e+11
-6.64271e+11
-6.58853e+11
-6.5263e+11
-6.45503e+11
-6.3744e+11
-6.28205e+11
-6.17374e+11
-5.83089e+11
-5.45262e+11
-5.28906e+11
-4.91519e+11
-4.73062e+11
-4.57471e+11
-4.37896e+11
-4.18792e+11
-3.99649e+11
-3.81129e+11
-3.66398e+11
-3.48646e+11
-3.31425e+11
-3.18202e+11
-3.02777e+11
-2.87772e+11
-2.73416e+11
-2.59579e+11
-2.48975e+11
-2.36647e+11
-2.24694e+11
-2.13265e+11
-2.02282e+11
-1.93853e+11
-1.83987e+11
-1.74455e+11
-1.67272e+11
-1.59051e+11
-1.51056e+11
-1.43505e+11
-1.36234e+11
-1.30725e+11
-1.24372e+11
-1.18214e+11
-1.12352e+11
-1.06727e+11
-1.0243e+11
-9.74247e+10
-9.25808e+10
-8.89412e+10
-8.47726e+10
-8.0708e+10
-7.68635e+10
-7.3158e+10
-7.0351e+10
-6.71069e+10
-6.39506e+10
-6.09385e+10
-5.80429e+10
-5.58292e+10
-5.32411e+10
-5.07253e+10
-4.88311e+10
-4.66456e+10
-4.45008e+10
-4.24622e+10
-4.04888e+10
-3.89893e+10
-3.72416e+10
-3.55269e+10
-3.3882e+10
-3.22905e+10
-3.10691e+10
-2.96236e+10
-2.82055e+10
-2.71294e+10
-2.58672e+10
-2.4612e+10
-2.34068e+10
-2.22264e+10
-2.13179e+10
-2.02305e+10
-1.91489e+10
-1.80892e+10
-1.70507e+10
-1.62291e+10
-1.52134e+10
-1.42024e+10
-1.33987e+10
-1.23841e+10
-1.1367e+10
-1.03261e+10
-8.11427e+09
590825
2.28908e+06
3.53833e+06
4.90263e+06
6.40206e+06
8.08061e+06
9.94075e+06
1.20237e+07
1.43449e+07
1.69501e+07
1.98697e+07
2.31592e+07
2.68667e+07
3.10554e+07
3.57983e+07
4.11782e+07
4.72968e+07
5.42458e+07
6.21623e+07
7.11442e+07
8.13244e+07
9.27516e+07
1.05616e+08
1.2015e+08
1.3722e+08
1.56431e+08
1.78037e+08
2.0224e+08
2.29902e+08
2.62142e+08
2.98613e+08
3.38928e+08
3.83568e+08
4.31726e+08
4.88773e+08
5.51937e+08
6.20777e+08
6.94693e+08
7.71503e+08
8.6086e+08
9.49741e+08
1.0363e+09
1.11661e+09
1.17997e+09
1.2181e+09
1.20074e+09
1.09056e+09
8.14883e+08
2.34121e+08
5.45798e+07
1.04541e+08
1.86818e+08
2.24815e+08
1.44089e+08
3.7422e+08
4.20934e+08
5.19487e+08
6.12135e+08
6.44144e+08
5.82398e+08
7.2001e+08
8.34124e+08
1.04861e+09
1.15713e+09
6.96336e+08
3.70065e+08
2.44511e+08
1.29328e+08
2.5152e+07
-7.16404e+07
-1.46153e+08
-1.96479e+08
-2.28889e+09
-3.84392e+09
-5.42926e+09
-7.12742e+09
-8.71777e+09
-9.7425e+09
-1.01879e+10
753949
2.74401e+06
4.22707e+06
5.85195e+06
7.64053e+06
9.64122e+06
1.18598e+07
1.43428e+07
1.71107e+07
2.02162e+07
2.3697e+07
2.76181e+07
3.20372e+07
3.70297e+07
4.26824e+07
4.90941e+07
5.63845e+07
6.46659e+07
7.40984e+07
8.48027e+07
9.69316e+07
1.1055e+08
1.25872e+08
1.43182e+08
1.63484e+08
1.86404e+08
2.12134e+08
2.40956e+08
2.73871e+08
3.12251e+08
3.55728e+08
4.03742e+08
4.5687e+08
5.14263e+08
5.82006e+08
6.57374e+08
7.3929e+08
8.27269e+08
9.18771e+08
1.02474e+09
1.13101e+09
1.23381e+09
1.32924e+09
1.40467e+09
1.44987e+09
1.43035e+09
1.30026e+09
9.75719e+08
3.74342e+08
1.66182e+08
3.03706e+08
5.46388e+08
6.88221e+08
4.92157e+08
1.12039e+09
1.27128e+09
1.56822e+09
1.83371e+09
1.92808e+09
1.78608e+09
2.16863e+09
2.51813e+09
3.14204e+09
3.43436e+09
2.18873e+09
1.18201e+09
7.69919e+08
4.01607e+08
7.52307e+07
-2.21988e+08
-4.47702e+08
-5.95701e+08
-2.97998e+09
-4.6622e+09
-6.55755e+09
-8.58297e+09
-1.04689e+10
-1.16962e+10
-1.22344e+10
881835
3.06465e+06
4.61722e+06
6.36777e+06
8.30314e+06
1.04691e+07
1.28724e+07
1.55615e+07
1.85596e+07
2.19225e+07
2.5692e+07
2.99374e+07
3.47219e+07
4.01264e+07
4.6245e+07
5.31846e+07
6.10744e+07
7.00361e+07
8.02422e+07
9.18239e+07
1.04944e+08
1.19676e+08
1.36248e+08
1.54973e+08
1.76935e+08
2.01724e+08
2.29546e+08
2.6072e+08
2.9632e+08
3.37832e+08
3.84836e+08
4.36763e+08
4.94218e+08
5.56299e+08
6.29576e+08
7.11083e+08
7.99672e+08
8.94846e+08
9.93844e+08
1.10858e+09
1.22362e+09
1.335e+09
1.43854e+09
1.52069e+09
1.57075e+09
1.55211e+09
1.41712e+09
1.08008e+09
4.85116e+08
2.79564e+08
5.02588e+08
8.90088e+08
1.1624e+09
9.81237e+08
1.85089e+09
2.13099e+09
2.62919e+09
3.05566e+09
3.20322e+09
3.04589e+09
3.61781e+09
4.21902e+09
5.198e+09
5.58796e+09
3.84758e+09
2.12994e+09
1.36317e+09
7.03409e+08
1.32469e+08
-3.74385e+08
-7.68735e+08
-1.06632e+09
-3.45295e+09
-5.14322e+09
-7.18677e+09
-9.38657e+09
-1.14311e+10
-1.2766e+10
-1.3383e+10
1.11609e+06
3.42551e+06
5.0334e+06
6.89971e+06
8.97682e+06
1.13045e+07
1.38896e+07
1.67821e+07
2.00076e+07
2.3625e+07
2.76799e+07
3.22459e+07
3.73915e+07
4.32031e+07
4.9782e+07
5.72429e+07
6.57244e+07
7.53575e+07
8.63269e+07
9.87734e+07
1.12871e+08
1.28699e+08
1.46504e+08
1.66627e+08
1.90226e+08
2.16854e+08
2.46735e+08
2.80229e+08
3.18483e+08
3.63081e+08
4.13545e+08
4.69329e+08
5.31055e+08
5.97777e+08
6.7654e+08
7.64085e+08
8.59274e+08
9.61579e+08
1.06807e+09
1.19162e+09
1.31542e+09
1.43554e+09
1.54756e+09
1.6371e+09
1.69327e+09
1.67774e+09
1.54334e+09
1.2063e+09
6.34828e+08
4.05802e+08
7.48029e+08
1.25694e+09
1.64579e+09
1.56546e+09
2.57449e+09
3.00578e+09
3.71022e+09
4.29675e+09
4.48823e+09
4.35262e+09
5.07238e+09
5.93796e+09
7.19071e+09
7.61231e+09
5.62587e+09
3.18799e+09
2.01418e+09
1.0335e+09
1.99481e+08
-5.26648e+08
-1.11488e+09
-1.63831e+09
-3.9951e+09
-5.67445e+09
-7.86068e+09
-1.02412e+10
-1.24423e+10
-1.38914e+10
-1.4595e+10
1.42215e+06
3.82083e+06
5.47722e+06
7.45106e+06
9.66472e+06
1.21504e+07
1.49137e+07
1.8006e+07
2.14551e+07
2.53226e+07
2.96578e+07
3.45385e+07
4.00381e+07
4.62484e+07
5.3278e+07
6.12485e+07
7.03082e+07
8.05967e+07
9.23103e+07
1.05599e+08
1.20648e+08
1.37543e+08
1.56549e+08
1.78035e+08
2.03224e+08
2.31638e+08
2.63518e+08
2.99268e+08
3.40107e+08
3.87698e+08
4.41517e+08
5.01046e+08
5.66926e+08
6.38187e+08
7.22289e+08
8.1571e+08
9.17341e+08
1.02661e+09
1.14051e+09
1.27274e+09
1.40526e+09
1.53419e+09
1.65494e+09
1.75251e+09
1.81607e+09
1.80597e+09
1.67728e+09
1.3509e+09
8.16793e+08
5.65641e+08
1.06531e+09
1.65339e+09
2.14424e+09
2.21494e+09
3.29319e+09
3.89118e+09
4.80558e+09
5.5504e+09
5.7838e+09
5.69758e+09
6.52948e+09
7.66285e+09
9.09691e+09
9.53226e+09
7.51586e+09
4.38022e+09
2.73584e+09
1.40059e+09
2.80836e+08
-6.77496e+08
-1.47371e+09
-2.23183e+09
-4.55436e+09
-6.24105e+09
-8.57406e+09
-1.11437e+10
-1.35039e+10
-1.50804e+10
-1.59076e+10
1.7681e+06
4.23802e+06
5.94123e+06
8.01587e+06
1.03612e+07
1.3001e+07
1.59395e+07
1.92286e+07
2.28985e+07
2.7013e+07
3.16254e+07
3.68171e+07
4.2667e+07
4.92717e+07
5.6747e+07
6.52216e+07
7.48532e+07
8.57897e+07
9.82392e+07
1.12361e+08
1.2835e+08
1.463e+08
1.66494e+08
1.89333e+08
2.16088e+08
2.46269e+08
2.80127e+08
3.18112e+08
3.61511e+08
4.12057e+08
4.6919e+08
5.32425e+08
6.02417e+08
6.7821e+08
7.6759e+08
8.66844e+08
9.74884e+08
1.09109e+09
1.21248e+09
1.35337e+09
1.49478e+09
1.63277e+09
1.7627e+09
1.86915e+09
1.94155e+09
1.93958e+09
1.82159e+09
1.51536e+09
1.02952e+09
7.71401e+08
1.45302e+09
2.06601e+09
2.65865e+09
2.9147e+09
4.01866e+09
4.79471e+09
5.92215e+09
6.82454e+09
7.0976e+09
7.07954e+09
7.9991e+09
9.39493e+09
1.09271e+10
1.13729e+10
9.49983e+09
5.73255e+09
3.54157e+09
1.81224e+09
3.80936e+08
-8.24363e+08
-1.84082e+09
-2.84007e+09
-5.11268e+09
-6.84486e+09
-9.33179e+09
-1.20983e+10
-1.46217e+10
-1.6338e+10
-1.72975e+10
2.14441e+06
4.67914e+06
6.42773e+06
8.59745e+06
1.10695e+07
1.38592e+07
1.69691e+07
2.04512e+07
2.43376e+07
2.86946e+07
3.3579e+07
3.90758e+07
4.5269e+07
5.22599e+07
6.01717e+07
6.91393e+07
7.933e+07
9.0899e+07
1.04067e+08
1.19e+08
1.35906e+08
1.54884e+08
1.76239e+08
2.00399e+08
2.28671e+08
2.60573e+08
2.96361e+08
3.36521e+08
3.82416e+08
4.35829e+08
4.96189e+08
5.63031e+08
6.37031e+08
7.17274e+08
8.11783e+08
9.1674e+08
1.03106e+09
1.15407e+09
1.28292e+09
1.43232e+09
1.58268e+09
1.72984e+09
1.86927e+09
1.98535e+09
2.06793e+09
2.0766e+09
1.9737e+09
1.69523e+09
1.26638e+09
1.02606e+09
1.88097e+09
2.48819e+09
3.18337e+09
3.64576e+09
4.75242e+09
5.71395e+09
7.05388e+09
8.11437e+09
8.42672e+09
8.48612e+09
9.47639e+09
1.11241e+10
1.26899e+10
1.31533e+10
1.15412e+10
7.25311e+09
4.44307e+09
2.27656e+09
5.04607e+08
-9.637e+08
-2.21076e+09
-3.45342e+09
-5.64925e+09
-7.4895e+09
-1.01373e+10
-1.31087e+10
-1.58015e+10
-1.76703e+10
-1.87933e+10
2.53377e+06
5.13456e+06
6.92991e+06
9.19059e+06
1.17852e+07
1.47214e+07
1.79995e+07
2.16718e+07
2.5772e+07
3.03685e+07
3.5522e+07
4.13207e+07
4.7854e+07
5.52275e+07
6.35718e+07
7.30278e+07
8.37727e+07
9.59687e+07
1.09848e+08
1.25585e+08
1.43401e+08
1.634e+08
1.85908e+08
2.11383e+08
2.41152e+08
2.74763e+08
3.12469e+08
3.54794e+08
4.03168e+08
4.59417e+08
5.22983e+08
5.93409e+08
6.71395e+08
7.56105e+08
8.55696e+08
9.66346e+08
1.08696e+09
1.21678e+09
1.35322e+09
1.51114e+09
1.67067e+09
1.82736e+09
1.97683e+09
2.10351e+09
2.19777e+09
2.21978e+09
2.1362e+09
1.89226e+09
1.52721e+09
1.32808e+09
2.33063e+09
2.92131e+09
3.71914e+09
4.39931e+09
5.50588e+09
6.65816e+09
8.20788e+09
9.42795e+09
9.7792e+09
9.91916e+09
1.09699e+10
1.28539e+10
1.44114e+10
1.49149e+10
1.36284e+10
8.94614e+09
5.45586e+09
2.80404e+09
6.57814e+08
-1.09241e+09
-2.57962e+09
-4.06117e+09
-6.14533e+09
-8.1883e+09
-1.09967e+10
-1.41805e+10
-1.70508e+10
-1.90869e+10
-2.03764e+10
2.93723e+06
5.60838e+06
7.45072e+06
9.79856e+06
1.25114e+07
1.55901e+07
1.90326e+07
2.2891e+07
2.72009e+07
3.20324e+07
3.745e+07
4.35448e+07
5.04117e+07
5.81601e+07
6.69282e+07
7.68623e+07
8.81495e+07
1.00958e+08
1.15534e+08
1.32056e+08
1.5076e+08
1.71756e+08
1.95393e+08
2.22154e+08
2.53376e+08
2.88654e+08
3.28239e+08
3.72677e+08
4.23471e+08
4.82476e+08
5.49175e+08
6.23101e+08
7.04984e+08
7.94094e+08
8.98634e+08
1.01487e+09
1.14168e+09
1.27821e+09
1.42224e+09
1.58855e+09
1.75736e+09
1.92375e+09
2.08366e+09
2.22172e+09
2.32901e+09
2.3667e+09
2.30609e+09
2.10188e+09
1.8059e+09
1.67094e+09
2.77151e+09
3.35696e+09
4.26207e+09
5.16404e+09
6.28006e+09
7.62517e+09
9.37725e+09
1.07591e+10
1.11513e+10
1.13699e+10
1.24743e+10
1.45758e+10
1.61052e+10
1.66812e+10
1.5753e+10
1.08159e+10
6.59436e+09
3.40548e+09
8.46882e+08
-1.20651e+09
-2.94347e+09
-4.65012e+09
-6.61422e+09
-8.96469e+09
-1.19136e+10
-1.53177e+10
-1.8376e+10
-2.0594e+10
-2.20421e+10
3.34423e+06
6.092e+06
7.98369e+06
1.04164e+07
1.32443e+07
1.64622e+07
2.00662e+07
2.4108e+07
2.8625e+07
3.36889e+07
3.93678e+07
4.5756e+07
5.29535e+07
6.10737e+07
7.02623e+07
8.0671e+07
9.24965e+07
1.05914e+08
1.2118e+08
1.38482e+08
1.58069e+08
1.80058e+08
2.0482e+08
2.32862e+08
2.65523e+08
3.02457e+08
3.43919e+08
3.90467e+08
4.43669e+08
5.05408e+08
5.75231e+08
6.52647e+08
7.38422e+08
8.31958e+08
9.4142e+08
1.06324e+09
1.19628e+09
1.33958e+09
1.49135e+09
1.66611e+09
1.84445e+09
2.02096e+09
2.1919e+09
2.34239e+09
2.46422e+09
2.52011e+09
2.48615e+09
2.32638e+09
2.10274e+09
2.04851e+09
3.18773e+09
3.79667e+09
4.81564e+09
5.93877e+09
7.08543e+09
8.62395e+09
1.05689e+10
1.21153e+10
1.25503e+10
1.28432e+10
1.39979e+10
1.62948e+10
1.7795e+10
1.84742e+10
1.79166e+10
1.28743e+10
7.88152e+09
4.09551e+09
1.07983e+09
-1.30233e+09
-3.30045e+09
-5.21789e+09
-7.11948e+09
-9.84258e+09
-1.28938e+10
-1.65266e+10
-1.97851e+10
-2.2196e+10
-2.38269e+10
3.76013e+06
6.59047e+06
8.53218e+06
1.10471e+07
1.39863e+07
1.73396e+07
2.11013e+07
2.53225e+07
3.00424e+07
3.5334e+07
4.12693e+07
4.79451e+07
5.54668e+07
6.39513e+07
7.3552e+07
8.44251e+07
9.67777e+07
1.1079e+08
1.26731e+08
1.44795e+08
1.65246e+08
1.88206e+08
2.14071e+08
2.43367e+08
2.77427e+08
3.15976e+08
3.59278e+08
4.07892e+08
4.63447e+08
5.27844e+08
6.00725e+08
6.81557e+08
7.71145e+08
8.69045e+08
9.83314e+08
1.11063e+09
1.24981e+09
1.39981e+09
1.55933e+09
1.74245e+09
1.93042e+09
2.11727e+09
2.29968e+09
2.46338e+09
2.60102e+09
2.67719e+09
2.67281e+09
2.56074e+09
2.41134e+09
2.44784e+09
3.55293e+09
4.23513e+09
5.37658e+09
6.71777e+09
7.92119e+09
9.65018e+09
1.17751e+10
1.34884e+10
1.39716e+10
1.43324e+10
1.55348e+10
1.80032e+10
1.9488e+10
2.02968e+10
2.01046e+10
1.51239e+10
9.34352e+09
4.88974e+09
1.36526e+09
-1.37518e+09
-3.64894e+09
-5.78028e+09
-7.72241e+09
-1.08146e+10
-1.39383e+10
-1.78112e+10
-2.12849e+10
-2.39039e+10
-2.57129e+10
4.17706e+06
7.09574e+06
9.08991e+06
1.16859e+07
1.47339e+07
1.82198e+07
2.21363e+07
2.65343e+07
3.14545e+07
3.69714e+07
4.31604e+07
5.01211e+07
5.79642e+07
6.68102e+07
7.68199e+07
8.81544e+07
1.0103e+08
1.15633e+08
1.32246e+08
1.51067e+08
1.72377e+08
1.96305e+08
2.23271e+08
2.53818e+08
2.89267e+08
3.29421e+08
3.74563e+08
4.25243e+08
4.83146e+08
5.50183e+08
6.26116e+08
7.10365e+08
8.03771e+08
9.06063e+08
1.02513e+09
1.15795e+09
1.30333e+09
1.46011e+09
1.62753e+09
1.81911e+09
2.01697e+09
2.21463e+09
2.40915e+09
2.5871e+09
2.74202e+09
2.84076e+09
2.86889e+09
2.80747e+09
2.73255e+09
2.85924e+09
3.85636e+09
4.68721e+09
5.95109e+09
7.50354e+09
8.79703e+09
1.07107e+10
1.30029e+10
1.4885e+10
1.54229e+10
1.58444e+10
1.70924e+10
1.9707e+10
2.12005e+10
2.21584e+10
2.23084e+10
1.75685e+10
1.10275e+10
5.81062e+09
1.7146e+09
-1.42015e+09
-3.98846e+09
-6.35167e+09
-8.43633e+09
-1.18709e+10
-1.50504e+10
-1.91787e+10
-2.28852e+10
-2.5728e+10
-2.76993e+10
4.60157e+06
7.61342e+06
9.66062e+06
1.23357e+07
1.54893e+07
1.91041e+07
2.31718e+07
2.77426e+07
3.28589e+07
3.85963e+07
4.50341e+07
5.2274e+07
6.04323e+07
6.96324e+07
8.00429e+07
9.1829e+07
1.05218e+08
1.20398e+08
1.37668e+08
1.57229e+08
1.79379e+08
2.04255e+08
2.32302e+08
2.64073e+08
3.00876e+08
3.42594e+08
3.89541e+08
4.42249e+08
5.02449e+08
5.72055e+08
6.50976e+08
7.38576e+08
8.35735e+08
9.42354e+08
1.06613e+09
1.20435e+09
1.35586e+09
1.51938e+09
1.6947e+09
1.89469e+09
2.10255e+09
2.31126e+09
2.51834e+09
2.7113e+09
2.88468e+09
3.00775e+09
3.07061e+09
3.06163e+09
3.06039e+09
3.26526e+09
4.12696e+09
5.1712e+09
6.535e+09
8.29169e+09
9.71236e+09
1.17978e+10
1.4245e+10
1.62946e+10
1.68998e+10
1.73745e+10
1.86646e+10
2.13984e+10
2.29333e+10
2.40539e+10
2.44981e+10
2.01754e+10
1.29857e+10
6.88339e+09
2.14014e+09
-1.43108e+09
-4.31714e+09
-6.93848e+09
-9.25025e+09
-1.29978e+10
-1.62288e+10
-2.06335e+10
-2.45929e+10
-2.76739e+10
-2.98378e+10
5.02676e+06
8.13586e+06
1.02383e+07
1.29919e+07
1.62492e+07
1.99905e+07
2.42068e+07
2.89479e+07
3.42577e+07
4.02132e+07
4.68972e+07
5.44137e+07
6.28845e+07
7.2436e+07
8.32444e+07
9.54791e+07
1.09377e+08
1.25132e+08
1.43054e+08
1.63352e+08
1.86339e+08
2.12161e+08
2.41286e+08
2.7428e+08
3.12431e+08
3.55704e+08
4.04453e+08
4.59194e+08
5.21689e+08
5.93852e+08
6.75755e+08
7.66714e+08
8.67636e+08
9.7861e+08
1.1071e+09
1.25075e+09
1.40844e+09
1.5788e+09
1.76217e+09
1.97072e+09
2.18884e+09
2.40906e+09
2.62938e+09
2.83836e+09
3.03159e+09
3.181e+09
3.28094e+09
3.32609e+09
3.39736e+09
3.66779e+09
4.42904e+09
5.70688e+09
7.13075e+09
9.0813e+09
1.06735e+10
1.29155e+10
1.55099e+10
1.7722e+10
1.84099e+10
1.89315e+10
2.02588e+10
2.30832e+10
2.46965e+10
2.59889e+10
2.66585e+10
2.2881e+10
1.52601e+10
8.14547e+09
2.65889e+09
-1.40079e+09
-4.6332e+09
-7.54425e+09
-1.01552e+10
-1.41864e+10
-1.74759e+10
-2.21843e+10
-2.64193e+10
-2.97538e+10
-3.21082e+10
5.45942e+06
8.66888e+06
1.08268e+07
1.36573e+07
1.70154e+07
2.08797e+07
2.52409e+07
3.01482e+07
3.56473e+07
4.18162e+07
4.87413e+07
5.65287e+07
6.53055e+07
7.52011e+07
8.6399e+07
9.90727e+07
1.13469e+08
1.29786e+08
1.48346e+08
1.69363e+08
1.93169e+08
2.19916e+08
2.501e+08
2.84289e+08
3.23758e+08
3.68545e+08
4.19059e+08
4.75795e+08
5.4054e+08
6.15193e+08
7.00013e+08
7.94269e+08
8.98896e+08
1.01415e+09
1.14728e+09
1.29626e+09
1.46008e+09
1.63724e+09
1.82866e+09
2.04574e+09
2.2742e+09
2.50619e+09
2.74018e+09
2.96587e+09
3.18001e+09
3.35722e+09
3.49589e+09
3.59593e+09
3.73893e+09
4.07305e+09
4.79342e+09
6.27312e+09
7.72785e+09
9.85788e+09
1.16608e+10
1.40535e+10
1.67922e+10
1.91556e+10
1.9948e+10
2.05119e+10
2.18693e+10
2.47543e+10
2.64826e+10
2.79587e+10
2.87848e+10
2.56077e+10
1.7845e+10
9.64208e+09
3.28983e+09
-1.32032e+09
-4.93262e+09
-8.16777e+09
-1.11402e+10
-1.54208e+10
-1.87903e+10
-2.38365e+10
-2.83726e+10
-3.19785e+10
-3.45706e+10
5.89288e+06
9.20512e+06
1.14202e+07
1.43275e+07
1.77848e+07
2.17701e+07
2.62737e+07
3.13447e+07
3.70306e+07
4.34104e+07
5.05739e+07
5.86295e+07
6.77096e+07
7.79465e+07
8.95311e+07
1.02641e+08
1.17532e+08
1.34407e+08
1.53601e+08
1.75334e+08
1.99956e+08
2.27626e+08
2.58865e+08
2.94249e+08
3.35032e+08
3.81325e+08
4.336e+08
4.92335e+08
5.5933e+08
6.36465e+08
7.24192e+08
8.21755e+08
9.30104e+08
1.04967e+09
1.18745e+09
1.34179e+09
1.51178e+09
1.69586e+09
1.89546e+09
2.12126e+09
2.36032e+09
2.60453e+09
2.85287e+09
3.09623e+09
3.33256e+09
3.53932e+09
3.71859e+09
3.87445e+09
4.08887e+09
4.48994e+09
5.21552e+09
6.87707e+09
8.33476e+09
1.06201e+10
1.26572e+10
1.52163e+10
1.81016e+10
2.06042e+10
2.15227e+10
2.21254e+10
2.35054e+10
2.64207e+10
2.82943e+10
2.99728e+10
3.09055e+10
2.83162e+10
2.07219e+10
1.14491e+10
4.06043e+09
-1.17827e+09
-5.21181e+09
-8.80757e+09
-1.21962e+10
-1.66889e+10
-2.01767e+10
-2.56016e+10
-3.04668e+10
-3.43673e+10
-3.72045e+10
6.33367e+06
9.7505e+06
1.20228e+07
1.50052e+07
1.85591e+07
2.26619e+07
2.73044e+07
3.25352e+07
3.84037e+07
4.49895e+07
5.23863e+07
6.07044e+07
7.00814e+07
8.06521e+07
9.26151e+07
1.06151e+08
1.21526e+08
1.38947e+08
1.58761e+08
1.81193e+08
2.06612e+08
2.35186e+08
2.67461e+08
3.04013e+08
3.46081e+08
3.93843e+08
4.47839e+08
5.08534e+08
5.77738e+08
6.57294e+08
7.47863e+08
8.48673e+08
9.6069e+08
1.0845e+09
1.22686e+09
1.38646e+09
1.56257e+09
1.75355e+09
1.96132e+09
2.19583e+09
2.44556e+09
2.70223e+09
2.96532e+09
3.22698e+09
3.4864e+09
3.7239e+09
3.94506e+09
4.15753e+09
4.44378e+09
4.91673e+09
5.68432e+09
7.50713e+09
8.9497e+09
1.13663e+10
1.36402e+10
1.63922e+10
1.94309e+10
2.20567e+10
2.31279e+10
2.37691e+10
2.51641e+10
2.80782e+10
3.01181e+10
3.20212e+10
3.30343e+10
3.09573e+10
2.37973e+10
1.36353e+10
5.00185e+09
-9.61021e+08
-5.46488e+09
-9.45814e+09
-1.33107e+10
-1.79693e+10
-2.16381e+10
-2.74873e+10
-3.27116e+10
-3.69321e+10
-4.0009e+10
6.77527e+06
1.02979e+07
1.26287e+07
1.56862e+07
1.93356e+07
2.35541e+07
2.83331e+07
3.37213e+07
3.97697e+07
4.65592e+07
5.41867e+07
6.27646e+07
7.24356e+07
8.33375e+07
9.56758e+07
1.09635e+08
1.25491e+08
1.43454e+08
1.63884e+08
1.87012e+08
2.13224e+08
2.427e+08
2.76008e+08
3.13725e+08
3.57078e+08
4.06303e+08
4.62013e+08
5.2467e+08
5.96086e+08
6.78061e+08
7.71459e+08
8.75525e+08
9.91233e+08
1.1193e+09
1.26627e+09
1.43117e+09
1.61345e+09
1.81143e+09
2.02751e+09
2.27093e+09
2.53159e+09
2.80115e+09
3.07964e+09
3.36048e+09
3.64418e+09
3.91391e+09
4.17854e+09
4.44924e+09
4.80827e+09
5.35823e+09
6.19899e+09
8.16217e+09
9.578e+09
1.21025e+10
1.46027e+10
1.75807e+10
2.07879e+10
2.3519e+10
2.47682e+10
2.54529e+10
2.6857e+10
2.97368e+10
3.19624e+10
3.40985e+10
3.51879e+10
3.35203e+10
2.6941e+10
1.62218e+10
6.15723e+09
-6.51804e+08
-5.68393e+09
-1.01144e+10
-1.4472e+10
-1.92422e+10
-2.31879e+10
-2.95089e+10
-3.51231e+10
-3.96875e+10
-4.30557e+10
7.22406e+06
1.08533e+07
1.32421e+07
1.63732e+07
2.01153e+07
2.44463e+07
2.93583e+07
3.48999e+07
4.11241e+07
4.81123e+07
5.59652e+07
6.4797e+07
7.47556e+07
8.5981e+07
9.86863e+07
1.13059e+08
1.29385e+08
1.47877e+08
1.68908e+08
1.92716e+08
2.19704e+08
2.5006e+08
2.84381e+08
3.23238e+08
3.67848e+08
4.185e+08
4.75883e+08
5.40461e+08
6.14047e+08
6.98385e+08
7.94546e+08
9.01806e+08
1.02115e+09
1.15341e+09
1.30492e+09
1.47503e+09
1.66341e+09
1.86836e+09
2.09273e+09
2.34508e+09
2.61671e+09
2.89937e+09
3.19362e+09
3.49417e+09
3.8029e+09
4.10579e+09
4.41489e+09
4.74479e+09
5.17733e+09
5.80907e+09
6.74793e+09
8.81485e+09
1.02085e+10
1.28247e+10
1.55284e+10
1.87561e+10
2.21587e+10
2.49786e+10
2.64286e+10
2.71696e+10
2.85871e+10
3.14015e+10
3.38337e+10
3.61892e+10
3.73668e+10
3.60286e+10
3.0064e+10
1.91776e+10
7.58131e+09
-2.31162e+08
-5.85736e+09
-1.07675e+10
-1.56627e+10
-2.04763e+10
-2.48446e+10
-3.16776e+10
-3.77126e+10
-4.26526e+10
-4.63207e+10
7.67347e+06
1.14097e+07
1.38575e+07
1.70621e+07
2.0896e+07
2.53377e+07
3.03805e+07
3.60732e+07
4.24705e+07
4.9655e+07
5.77306e+07
6.68135e+07
7.70567e+07
8.86028e+07
1.01672e+08
1.16455e+08
1.33247e+08
1.52265e+08
1.73894e+08
1.98376e+08
2.26136e+08
2.57371e+08
2.92699e+08
3.32694e+08
3.7856e+08
4.30636e+08
4.89684e+08
5.5618e+08
6.31937e+08
7.18642e+08
8.17554e+08
9.2801e+08
1.05102e+09
1.18748e+09
1.34357e+09
1.51892e+09
1.71345e+09
1.92549e+09
2.15827e+09
2.41973e+09
2.70259e+09
2.99875e+09
3.30937e+09
3.63043e+09
3.96523e+09
4.30254e+09
4.65741e+09
5.04773e+09
5.55424e+09
6.27185e+09
7.32927e+09
9.45135e+09
1.08482e+10
1.35414e+10
1.64214e+10
1.98994e+10
2.35319e+10
2.64386e+10
2.81051e+10
2.89162e+10
3.03673e+10
3.30991e+10
3.5741e+10
3.82964e+10
3.95837e+10
3.85237e+10
3.31291e+10
2.24531e+10
9.35698e+09
3.26528e+08
-5.97192e+09
-1.14097e+10
-1.6863e+10
-2.16567e+10
-2.66504e+10
-3.40132e+10
-4.04998e+10
-4.58508e+10
-4.98018e+10
8.12965e+06
1.19728e+07
1.4479e+07
1.77555e+07
2.16787e+07
2.6228e+07
3.13981e+07
3.72379e+07
4.3804e+07
5.11799e+07
5.94729e+07
6.8801e+07
7.93222e+07
9.11814e+07
1.04606e+08
1.1979e+08
1.37037e+08
1.56568e+08
1.7878e+08
2.03921e+08
2.32435e+08
2.64527e+08
3.00843e+08
3.41948e+08
3.89046e+08
4.42511e+08
5.03184e+08
5.71554e+08
6.4944e+08
7.38462e+08
8.4006e+08
9.53647e+08
1.08026e+09
1.22086e+09
1.38146e+09
1.56197e+09
1.76259e+09
1.98167e+09
2.22283e+09
2.49344e+09
2.78756e+09
3.09738e+09
3.42467e+09
3.76668e+09
4.12815e+09
4.50058e+09
4.90195e+09
5.35323e+09
5.9335e+09
6.73916e+09
7.92838e+09
1.0035e+10
1.14924e+10
1.42538e+10
1.72921e+10
2.09902e+10
2.4875e+10
2.78594e+10
2.9756e+10
3.06461e+10
3.21578e+10
3.48263e+10
3.76554e+10
4.04123e+10
4.18396e+10
4.10202e+10
3.60937e+10
2.59112e+10
1.1544e+10
1.05014e+09
-6.01111e+09
-1.20309e+10
-1.80495e+10
-2.28508e+10
-2.86641e+10
-3.65292e+10
-4.3497e+10
-4.92953e+10
-5.35927e+10
8.58614e+06
1.25363e+07
1.51015e+07
1.84497e+07
2.24612e+07
2.71166e+07
3.24119e+07
3.83965e+07
4.5129e+07
5.26937e+07
6.12014e+07
7.07719e+07
8.1568e+07
9.37373e+07
1.07514e+08
1.23095e+08
1.40793e+08
1.60834e+08
1.83625e+08
2.09421e+08
2.38684e+08
2.71631e+08
3.08929e+08
3.51143e+08
3.9947e+08
4.54322e+08
5.16614e+08
5.86852e+08
6.66865e+08
7.58211e+08
8.62486e+08
9.79203e+08
1.10945e+09
1.2542e+09
1.41934e+09
1.60504e+09
1.81179e+09
2.03803e+09
2.28769e+09
2.56763e+09
2.87325e+09
3.19711e+09
3.54162e+09
3.90528e+09
4.29431e+09
4.70292e+09
5.15182e+09
5.66487e+09
6.31827e+09
7.21252e+09
8.53742e+09
1.05387e+10
1.21623e+10
1.49756e+10
1.81626e+10
2.20418e+10
2.61821e+10
2.92218e+10
3.13481e+10
3.23295e+10
3.39243e+10
3.65808e+10
3.9574e+10
4.25453e+10
4.41475e+10
4.3541e+10
3.89805e+10
2.94302e+10
1.41672e+10
1.97657e+09
-5.95578e+09
-1.26231e+10
-1.92321e+10
-2.41998e+10
-3.09269e+10
-3.92465e+10
-4.67266e+10
-5.30143e+10
-5.76681e+10
9.04906e+06
1.31054e+07
1.57286e+07
1.91469e+07
2.32443e+07
2.80026e+07
3.34197e+07
3.95451e+07
4.64396e+07
5.41883e+07
6.29053e+07
7.2712e+07
8.37764e+07
9.62481e+07
1.10368e+08
1.26336e+08
1.44475e+08
1.65012e+08
1.88368e+08
2.14803e+08
2.44797e+08
2.78577e+08
3.16836e+08
3.60132e+08
4.09662e+08
4.65868e+08
5.2974e+08
6.018e+08
6.83896e+08
7.77515e+08
8.84407e+08
1.00418e+09
1.138e+09
1.28684e+09
1.45646e+09
1.64728e+09
1.86009e+09
2.09342e+09
2.35154e+09
2.64082e+09
2.95796e+09
3.29597e+09
3.65794e+09
4.04356e+09
4.46062e+09
4.90587e+09
5.40276e+09
5.97776e+09
6.70449e+09
7.68623e+09
9.13166e+09
1.09429e+10
1.28817e+10
1.5708e+10
1.9037e+10
2.30621e+10
2.74558e+10
3.0561e+10
3.28869e+10
3.39794e+10
3.56707e+10
3.83578e+10
4.14974e+10
4.46913e+10
4.65068e+10
4.60946e+10
4.18323e+10
3.29391e+10
1.72248e+10
3.1561e+09
-5.78222e+09
-1.31758e+10
-2.04387e+10
-2.57847e+10
-3.34358e+10
-4.2175e+10
-5.02025e+10
-5.70294e+10
-6.21395e+10
9.51182e+06
1.36741e+07
1.63557e+07
1.98438e+07
2.40261e+07
2.88858e+07
3.44226e+07
4.06866e+07
4.77406e+07
5.56706e+07
6.4594e+07
7.46342e+07
8.59636e+07
9.87345e+07
1.13194e+08
1.29547e+08
1.48122e+08
1.69151e+08
1.93067e+08
2.20136e+08
2.50856e+08
2.85465e+08
3.2468e+08
3.69054e+08
4.19785e+08
4.77344e+08
5.42787e+08
6.16664e+08
7.00836e+08
7.96735e+08
9.06237e+08
1.02907e+09
1.16647e+09
1.31942e+09
1.49354e+09
1.68951e+09
1.90842e+09
2.14894e+09
2.41562e+09
2.71444e+09
3.04331e+09
3.3958e+09
3.7757e+09
4.1839e+09
4.62971e+09
5.11244e+09
5.6581e+09
6.29564e+09
7.09701e+09
8.16424e+09
9.69176e+09
1.13257e+10
1.37206e+10
1.64639e+10
1.99223e+10
2.40689e+10
2.87255e+10
3.19571e+10
3.44218e+10
3.56292e+10
3.74211e+10
4.01654e+10
4.34368e+10
4.68607e+10
4.89294e+10
4.86993e+10
4.46936e+10
3.64003e+10
2.07e+10
4.66901e+09
-5.46069e+09
-1.36791e+10
-2.16884e+10
-2.76056e+10
-3.61979e+10
-4.53338e+10
-5.39516e+10
-6.13803e+10
-6.69853e+10
9.98048e+06
1.42475e+07
1.69863e+07
2.05424e+07
2.48071e+07
2.97653e+07
3.54184e+07
4.18171e+07
4.90262e+07
5.71326e+07
6.62571e+07
7.65244e+07
8.81122e+07
1.01175e+08
1.15966e+08
1.32692e+08
1.51692e+08
1.73201e+08
1.97664e+08
2.2535e+08
2.56778e+08
2.92196e+08
3.32343e+08
3.77769e+08
4.29675e+08
4.88555e+08
5.55533e+08
6.31179e+08
7.17382e+08
8.15511e+08
9.27566e+08
1.05338e+09
1.19431e+09