/*--------------------------------*- C++ -*----------------------------------*\
| =========                 |                                                 |
| \\      /  F ield         | OpenFOAM: The Open Source CFD Toolbox           |
|  \\    /   O peration     | Version:  4.1                                   |
|   \\  /    A nd           | Web:      www.OpenFOAM.org                      |
|    \\/     M anipulation  |                                                 |
\*---------------------------------------------------------------------------*/
FoamFile
{
    version     2.0;
    format      ascii;
    class       surfaceScalarField;
    location    "1";
    object      phi;
}
// * * * * * * * * * * * * * * * * * * * * * * * * * * * * * * * * * * * * * //

dimensions      [0 3 -1 0 0 0 0];

internalField   nonuniform List<scalar> 
13220
(
8.07741e+06
1.93249e+07
1.76682e+07
1.84731e+07
2.37985e+07
1.81371e+07
3.21449e+07
1.76622e+07
3.7176e+07
1.78364e+07
4.27941e+07
1.8165e+07
4.51544e+07
1.89783e+07
4.64539e+07
2.00852e+07
4.39326e+07
2.10075e+07
4.20741e+07
2.2259e+07
3.36746e+07
2.55872e+07
3.11849e+07
2.32699e+07
3.05558e+07
2.48062e+07
3.30633e+07
2.30071e+07
3.37162e+07
1.5409e+07
5.77573e+07
3.67475e+07
5.52647e+07
4.99978e+07
5.44628e+07
7.1211e+07
5.28079e+07
8.56388e+07
5.36295e+07
1.06357e+08
5.45541e+07
1.21057e+08
5.81662e+07
1.35492e+08
6.24847e+07
1.45858e+08
6.74569e+07
1.57565e+08
7.23278e+07
1.44345e+08
8.57479e+07
1.51525e+08
8.14516e+07
1.3232e+08
9.98512e+07
1.14919e+08
1.07827e+08
1.48615e+08
1.79353e+07
7.00355e+07
4.03045e+07
6.6329e+07
5.52939e+07
6.41053e+07
7.56385e+07
6.14794e+07
8.54499e+07
6.13968e+07
1.03905e+08
6.11631e+07
1.13281e+08
6.40952e+07
1.31192e+08
6.71761e+07
1.38016e+08
7.29899e+07
1.44901e+08
7.72051e+07
1.56121e+08
9.0966e+07
1.30166e+08
9.12337e+07
1.07003e+08
1.2087e+08
6.3177e+07
1.51747e+08
2.13825e+08
2.45911e+07
7.10772e+07
4.68183e+07
7.2145e+07
6.05305e+07
7.24952e+07
7.3546e+07
7.40705e+07
7.74775e+07
7.91582e+07
7.79009e+07
8.57281e+07
6.92326e+07
9.58193e+07
5.50997e+07
1.07211e+08
3.66371e+07
1.2096e+08
2.33398e+07
1.34297e+08
-1.30807e+07
1.55774e+08
1.09323e+07
1.55089e+08
5.3425e+07
1.70357e+08
1.46239e+08
1.88377e+08
3.6158e+08
1.95602e+07
8.84749e+07
3.49885e+07
1.01208e+08
4.13759e+07
1.06519e+08
5.34644e+07
1.1207e+08
5.91864e+07
1.21578e+08
7.2239e+07
1.32778e+08
7.64172e+07
1.48741e+08
8.73744e+07
1.69697e+08
8.32761e+07
1.88036e+08
9.21376e+07
1.94195e+08
1.26421e+08
2.06071e+08
9.97675e+07
1.96396e+08
1.33876e+08
1.90536e+08
1.68682e+08
2.46524e+08
5.35828e+08
-1.87167e+07
1.63471e+08
-3.16585e+07
1.81528e+08
-4.64834e+07
1.83749e+08
-4.72478e+07
1.84073e+08
-4.24459e+07
1.8808e+08
-2.8405e+07
1.93739e+08
163152
2.0477e+08
2.63e+07
2.26215e+08
5.53525e+07
2.46484e+08
9.32537e+07
2.52736e+08
7.82623e+07
2.83765e+08
1.31073e+08
2.78743e+08
2.15809e+08
2.68738e+08
1.90272e+08
5.86218e+08
7.28263e+08
-7.99965e+07
3.06774e+08
-1.20852e+08
2.89519e+08
-1.53707e+08
2.7017e+08
-1.66074e+08
2.52094e+08
-1.75511e+08
2.41021e+08
-1.69118e+08
2.32303e+08
-1.57454e+08
2.27744e+08
-1.20009e+08
2.26099e+08
-7.86066e+07
2.3574e+08
-4.24864e+07
2.59322e+08
-2.72708e+07
3.07035e+08
-3.1663e+07
3.26861e+08
-5.49311e+06
3.47595e+08
-1.65156e+08
8.718e+08
5.63554e+08
-1.97972e+08
5.68676e+08
-2.50438e+08
4.03196e+08
-2.75886e+08
3.38152e+08
-2.78513e+08
2.98328e+08
-2.84052e+08
2.75584e+08
-2.82843e+08
2.61246e+08
-2.91145e+08
2.57011e+08
-3.04149e+08
2.59076e+08
-3.17776e+08
2.663e+08
-3.19886e+08
2.76237e+08
-3.02358e+08
3.01552e+08
-2.84691e+08
3.20959e+08
-2.83021e+08
3.61259e+08
-3.45881e+07
6.43597e+08
5.30095e+08
-1.71477e+08
7.92399e+08
-1.68304e+08
4.32316e+08
-1.41387e+08
3.3481e+08
-1.12367e+08
2.92274e+08
-8.68432e+07
2.70317e+08
-6.26355e+07
2.57818e+08
-4.71053e+07
2.57784e+08
-3.3172e+07
2.66212e+08
-3.52803e+07
2.8357e+08
-4.28624e+07
3.03867e+08
-5.74291e+07
3.34831e+08
-8.10829e+07
3.61281e+08
-9.29982e+07
4.03035e+08
1.85075e+07
5.67004e+08
5.49422e+08
3.1971e+08
5.4112e+08
4.29279e+08
3.82755e+08
4.58758e+08
3.50094e+08
4.51759e+08
3.49326e+08
4.07687e+08
3.51909e+08
3.61597e+08
3.43956e+08
3.07387e+08
3.45528e+08
2.48362e+08
3.54195e+08
1.87095e+08
3.71328e+08
1.21055e+08
3.93041e+08
5.02212e+07
4.2374e+08
-2.1305e+07
4.57934e+08
-8.58186e+07
4.9847e+08
-7.94995e+07
5.93557e+08
4.71311e+08
4.09906e+08
2.27096e+08
6.23644e+08
2.71692e+08
6.40872e+08
4.08023e+08
5.00518e+08
5.84765e+08
1.62943e+08
7.50251e+08
3.02598e+06
5.75022e+08
-7.16599e+07
4.56303e+08
-9.71522e+07
4.22993e+08
-1.345e+08
4.25833e+08
-1.3746e+08
4.46132e+08
-2.09897e+08
4.77766e+08
-1.19711e+08
5.17099e+08
-5.71621e+07
5.61477e+08
-6.16105e+06
6.46873e+08
4.63121e+08
1.7904e+08
1.64699e+08
3.84066e+08
2.9465e+08
6.86257e+08
4.00822e+08
1.2153e+09
5.59482e+08
1.4902e+09
7.65194e+08
1.72007e+09
6.20755e+08
1.69967e+09
5.08563e+08
1.74676e+09
4.78617e+08
1.65879e+09
4.7982e+08
1.58809e+09
4.97372e+08
1.50018e+09
5.29525e+08
1.24557e+09
5.73465e+08
9.44313e+08
6.65357e+08
5.6381e+08
8.54698e+08
1.03437e+09
1.53385e+08
-1.11521e+08
4.56829e+08
-1.17912e+08
7.62285e+08
-4.12014e+07
1.23986e+09
3.33482e+07
1.78436e+09
1.08621e+08
2.17525e+09
1.8871e+08
2.32255e+09
2.77799e+08
2.37178e+09
3.77004e+08
2.28879e+09
4.92768e+08
2.21085e+09
6.28429e+08
1.81252e+09
7.91472e+08
1.91944e+09
9.90851e+08
1.81528e+09
1.28373e+09
1.60818e+09
1.77055e+09
2.6178e+09
2.38368e+09
-2.92157e+09
4.11824e+09
-2.16988e+09
5.4081e+09
-1.64474e+09
6.52154e+09
-1.34396e+09
7.38487e+09
-1.06074e+09
8.08886e+09
-7.62429e+08
8.52445e+09
-4.50473e+08
8.80306e+09
-1.07245e+08
8.8032e+09
2.64416e+08
8.37156e+09
6.83767e+08
7.87372e+09
1.14102e+09
6.23799e+09
1.6532e+09
4.35183e+09
2.21462e+09
1.8954e+09
2.99755e+09
4.52045e+09
1.26737e+10
1.65938e+10
1.92752e+10
2.068e+10
2.16838e+10
2.21594e+10
2.24675e+10
2.23211e+10
2.22582e+10
2.13998e+10
2.04267e+10
1.88331e+10
1.59293e+10
1.13034e+10
-799184
-2.25259e+11
2.25259e+11
-2.2526e+11
-2.2526e+11
-2.2526e+11
-3.14545e+11
8.92839e+10
-3.14545e+11
-3.14546e+11
-3.14546e+11
-3.56951e+11
4.24038e+10
-3.56951e+11
-3.56952e+11
-3.71174e+11
1.42213e+10
-3.71176e+11
-3.71177e+11
-3.71178e+11
-3.52922e+11
-1.8257e+10
-3.52924e+11
-3.52926e+11
-2.95086e+11
-5.78415e+10
-2.95089e+11
-2.95092e+11
-2.95095e+11
-2.03595e+11
-9.15039e+10
-2.036e+11
-2.03604e+11
-2.03608e+11
-1.42452e+11
-6.11596e+10
-1.42459e+11
-1.42463e+11
-1.09393e+11
-3.30755e+10
-1.09403e+11
-1.0941e+11
-1.09418e+11
-9.05058e+10
-1.89173e+10
-9.05177e+10
-9.05202e+10
-7.59517e+10
-1.45779e+10
-7.59564e+10
-7.5965e+10
-7.5966e+10
-6.60495e+10
-9.92208e+09
-6.60502e+10
-6.60561e+10
-6.60548e+10
-5.94048e+10
-6.65439e+09
-5.9404e+10
-5.94088e+10
-5.33942e+10
-6.01394e+09
-5.33981e+10
-5.33995e+10
-5.34022e+10
-4.92002e+10
-4.20375e+09
-4.92074e+10
-4.92084e+10
-4.92172e+10
-4.65211e+10
-2.69749e+09
-4.65329e+10
-4.65339e+10
-4.36832e+10
-2.86284e+09
-4.36904e+10
-4.37059e+10
-4.37074e+10
-4.19547e+10
-1.76307e+09
-4.19604e+10
-4.19716e+10
-3.98162e+10
-2.15344e+09
-3.98282e+10
-3.98192e+10
-3.98267e+10
-3.83552e+10
-1.45439e+09
-3.83522e+10
-3.83269e+10
-3.83146e+10
-3.74256e+10
-8.62474e+08
-3.73734e+10
-3.73581e+10
-3.57775e+10
-1.5338e+09
-3.57576e+10
-3.57335e+10
-3.23181e+10
-2.91385e+10
-2.61484e+10
-2.48202e+10
1.53094e+09
-2.27254e+10
-2.09467e+10
-1.9358e+10
-1.78579e+10
-1.64334e+10
-1.51042e+10
-1.3868e+10
-1.27852e+10
-1.48793e+10
3.34881e+09
-1.40243e+10
-1.32057e+10
-1.24232e+10
-1.17164e+10
-1.1025e+10
-1.03907e+10
-9.78355e+09
-9.2188e+09
-1.08673e+10
2.31826e+09
-1.04448e+10
-1.00456e+10
-9.68355e+09
-9.32301e+09
-9.00757e+09
-8.67379e+09
-8.40005e+09
-8.14082e+09
-7.90508e+09
-8.40225e+09
7.47664e+08
-8.2748e+09
-8.16654e+09
-8.077e+09
-8.01185e+09
-7.9524e+09
-7.92558e+09
-7.88475e+09
-7.86431e+09
-6.86412e+09
-1.0121e+09
-6.91869e+09
-6.97146e+09
-7.01557e+09
-7.09081e+09
-7.16851e+09
-7.2869e+09
-7.42152e+09
-7.56107e+09
-5.30083e+09
-2.51365e+09
-5.53525e+09
-5.75806e+09
-6.03115e+09
-6.28666e+09
-6.60919e+09
-6.93259e+09
-7.28934e+09
-7.65577e+09
-4.45933e+09
-3.7606e+09
-4.96434e+09
-5.50637e+09
-6.04791e+09
-6.63241e+09
-7.22146e+09
-7.88723e+09
-8.58632e+09
-9.32176e+09
-1.00718e+10
-7.12139e+09
-3.99668e+09
-8.14256e+09
-9.26937e+09
-1.0393e+10
-1.16401e+10
-1.2909e+10
-1.45625e+10
-1.68354e+10
-1.9193e+10
-2.09243e+10
-1.40257e+09
-2.43104e+10
-2.78999e+10
-2.78831e+10
-3.01753e+10
2.32328e+09
-3.07176e+10
5.69305e+08
-3.06807e+10
-3.12317e+10
5.73371e+08
-3.11916e+10
-3.1954e+10
7.92889e+08
-3.14632e+10
-4.40681e+08
-3.14553e+10
-3.14317e+10
2.41566e+07
-3.03674e+10
-1.0607e+09
-3.0345e+10
-2.97501e+10
-5.9727e+08
-2.97213e+10
-2.96204e+10
-1.06835e+08
-2.85183e+10
-1.07249e+09
-2.85253e+10
-2.79058e+10
-5.9843e+08
-2.79234e+10
-2.78243e+10
-9.04208e+07
-2.69103e+10
-9.37495e+08
-2.69084e+10
-2.65306e+10
-4.01285e+08
-2.53225e+10
-1.20179e+09
-2.53469e+10
-2.46042e+10
-7.41571e+08
-2.46316e+10
-2.43707e+10
-2.76875e+08
-2.33857e+10
-1.01894e+09
-2.34028e+10
-2.28419e+10
-5.93133e+08
-2.28625e+10
-2.27542e+10
-1.487e+08
-2.19642e+10
-8.1065e+08
-2.19999e+10
-2.16754e+10
-3.61055e+08
-2.07166e+10
-9.96451e+08
-2.07537e+10
-2.01763e+10
-6.10184e+08
-2.02119e+10
-2.00302e+10
-2.22666e+08
-1.9247e+10
-8.18666e+08
-1.92765e+10
-1.88451e+10
-4.65437e+08
-1.8874e+10
-1.88174e+10
-1.01644e+08
-1.82018e+10
-6.41863e+08
-1.82363e+10
-1.79905e+10
-2.78876e+08
-1.72223e+10
-8.01616e+08
-1.72474e+10
-1.67934e+10
-4.84439e+08
-1.68186e+10
-1.66906e+10
-1.68606e+08
-1.6053e+10
-6.62329e+08
-1.60845e+10
-1.57354e+10
-3.70819e+08
-1.57648e+10
-1.57215e+10
-7.37654e+07
-1.52277e+10
-5.23853e+08
-1.52496e+10
-1.50646e+10
-2.23568e+08
-1.44311e+10
-6.56103e+08
-1.44616e+10
-1.41057e+10
-3.75998e+08
-1.41368e+10
-1.40723e+10
-9.11237e+07
-1.36192e+10
-4.85596e+08
-1.36414e+10
-1.34855e+10
-1.88595e+08
-1.35024e+10
-1.36791e+10
1.34922e+08
-1.35032e+10
-1.81175e+08
-1.35382e+10
-1.37712e+10
2.27464e+08
-1.38193e+10
-9.2767e+06
-1.37886e+10
-1.43044e+10
5.23376e+08
-1.43017e+10
6.49107e+07
-2.40316e+06
-6.27685e+07
-726526
-8.43887e+07
-522189
-7.83448e+07
-434999
-7.93796e+07
-393144
-8.18073e+07
-365497
-8.5528e+07
-351409
-8.93904e+07
-341870
-9.38329e+07
-338870
-9.82367e+07
-338569
-1.03151e+08
-342276
-1.08063e+08
-347949
-1.1342e+08
-355959
-1.18789e+08
-366165
-1.24648e+08
-378077
-1.30554e+08
-391999
-1.36894e+08
-406397
-1.43275e+08
-423679
-1.50224e+08
-441977
-1.57639e+08
-464858
-1.66558e+08
-490420
-1.77598e+08
-524414
-1.9185e+08
-561490
-2.08088e+08
-601195
-2.23073e+08
-615598
-2.2391e+08
-659489
-2.41145e+08
-708740
-2.63692e+08
-762828
-2.86861e+08
-801738
-3.01634e+08
-833206
-3.01444e+08
-897663
-3.31973e+08
-972832
-3.70298e+08
-1.03941e+06
-4.08476e+08
-1.14432e+06
-4.62716e+08
-1.1598e+06
-4.46793e+08
-1.25164e+06
-4.98698e+08
-1.33436e+06
-5.56436e+08
-1.41451e+06
-6.18823e+08
-1.53613e+06
-7.19233e+08
-1.45749e+06
-6.62561e+08
-1.5186e+06
-8.1058e+08
-1.45517e+06
-9.15123e+08
-1.21506e+06
-1.01592e+09
-768177
-1.16335e+09
369356
-1.21742e+09
2.66753e+06
-1.38139e+09
8.36891e+06
-1.3781e+09
2.99475e+07
-1.45014e+09
1.56426e+09
-2.31239e+09
-4.74135e+08
-4.57644e+10
-7.7846e+07
-8.88743e+09
-7.026e+06
-2.55348e+09
3.07779e+07
-1.00808e+09
-1.11603e+08
-4.78598e+09
-1.27358e+07
-5.4811e+09
-2.39089e+07
-5.26564e+09
-2.29845e+07
-6.0155e+09
-7.4577e+06
-8.00921e+09
1.64975e+07
-6.13578e+09
-3.94607e+07
-1.02125e+10
-1.93003e+07
-7.90859e+09
-2.63396e+07
-4.84059e+09
-9.82688e+06
-6.69477e+09
2.24002e+07
-2.70117e+09
3.46445e+07
-1.85222e+09
2.55778e+07
-2.95728e+09
3.48597e+07
-3.03834e+09
4.75425e+07
-2.2742e+09
6.3321e+07
-6.20264e+08
8.61076e+07
2.82915e+09
1.99462e+08
1.15804e+10
6.83681e+09
5.68874e+10
1.73973e+08
2.36218e+10
1.02472e+08
1.46053e+10
8.00144e+07
1.45868e+10
6.24729e+07
1.44802e+10
3.68329e+07
1.65814e+10
1.44648e+07
1.65433e+10
1.58986e+10
-4.2585e+07
-6.50028e+07
-1.68953e+07
-1.11904e+08
-1.22123e+07
-8.40769e+07
-1.01959e+07
-8.19398e+07
-9.21066e+06
-8.32863e+07
-8.56886e+06
-8.64161e+07
-8.23394e+06
-8.98867e+07
-8.01267e+06
-9.40066e+07
-7.93994e+06
-9.81433e+07
-7.9341e+06
-1.02792e+08
-8.01952e+06
-1.07455e+08
-8.15277e+06
-1.12552e+08
-8.34099e+06
-1.17674e+08
-8.5804e+06
-1.2326e+08
-8.86066e+06
-1.28898e+08
-9.18654e+06
-1.34948e+08
-9.52743e+06
-1.41046e+08
-9.93231e+06
-1.47677e+08
-1.0365e+07
-1.54759e+08
-1.08995e+07
-1.63276e+08
-1.15029e+07
-1.73845e+08
-1.22957e+07
-1.87512e+08
-1.31685e+07
-2.03143e+08
-1.40947e+07
-2.17635e+08
-1.44794e+07
-2.18719e+08
-1.54773e+07
-2.34871e+08
-1.66376e+07
-2.5653e+08
-1.79037e+07
-2.78949e+08
-1.88406e+07
-2.93433e+08
-1.96065e+07
-2.93322e+08
-2.10959e+07
-3.22186e+08
-2.28556e+07
-3.59231e+08
-2.44528e+07
-3.96323e+08
-2.68497e+07
-4.48423e+08
-2.73568e+07
-4.34451e+08
-2.94264e+07
-4.83504e+08
-3.13937e+07
-5.39566e+08
-3.33047e+07
-6.00399e+08
-3.60493e+07
-6.97193e+08
-3.44852e+07
-6.46155e+08
-3.56656e+07
-7.8739e+08
-3.42178e+07
-8.91831e+08
-2.8611e+07
-9.93603e+08
-1.7966e+07
-1.14203e+09
8.36849e+06
-1.209e+09
6.23417e+07
-1.39501e+09
1.92468e+08
-1.46333e+09
5.82407e+08
-1.78447e+09
1.73692e+09
-3.42679e+09
-1.19539e+09
-4.25889e+10
-2.73234e+08
-9.71356e+09
-2.80491e+07
-2.7777e+09
4.96821e+07
-1.08282e+09
-2.26527e+08
-4.49883e+09
-4.14313e+07
-5.6466e+09
-7.05202e+07
-5.2217e+09
-6.5524e+07
-6.00294e+09
-2.18227e+07
-8.03246e+09
3.67062e+07
-6.18144e+09
-1.04598e+08
-1.00512e+10
-5.83057e+07
-7.93726e+09
-7.60554e+07
-4.81417e+09
-2.64264e+07
-6.7322e+09
5.91416e+07
-2.78172e+09
8.94368e+07
-1.88014e+09
7.12991e+07
-2.93681e+09
9.82892e+07
-3.06237e+09
1.34928e+08
-2.30834e+09
1.81727e+08
-6.65718e+08
2.4805e+08
2.762e+09
4.78349e+08
1.13435e+10
9.02562e+09
4.83152e+10
3.30943e+09
2.92958e+10
2.20915e+09
1.56722e+10
1.75694e+09
1.50169e+10
1.3901e+09
1.48292e+10
8.35982e+08
1.71267e+10
3.31813e+08
1.70398e+10
1.67565e+10
-2.8147e+07
-5.72976e+07
-1.73761e+07
-1.21661e+08
-1.30643e+07
-8.77913e+07
-1.1005e+07
-8.31687e+07
-9.97231e+06
-8.36224e+07
-9.29716e+06
-8.62798e+07
-8.94117e+06
-8.9476e+07
-8.70805e+06
-9.33763e+07
-8.63086e+06
-9.73534e+07
-8.62715e+06
-1.01843e+08
-8.71987e+06
-1.06373e+08
-8.86504e+06
-1.11325e+08
-9.06859e+06
-1.16317e+08
-9.32783e+06
-1.21758e+08
-9.63095e+06
-1.27262e+08
-9.98309e+06
-1.3316e+08
-1.03519e+07
-1.39117e+08
-1.07887e+07
-1.45587e+08
-1.12557e+07
-1.52502e+08
-1.18298e+07
-1.60791e+08
-1.2479e+07
-1.71074e+08
-1.33313e+07
-1.84374e+08
-1.42756e+07
-1.99644e+08
-1.52898e+07
-2.13878e+08
-1.57051e+07
-2.15404e+08
-1.67628e+07
-2.3073e+08
-1.80186e+07
-2.51814e+08
-1.93923e+07
-2.73836e+08
-2.0418e+07
-2.88324e+08
-2.12287e+07
-2.88456e+08
-2.28261e+07
-3.16042e+08
-2.47271e+07
-3.52329e+08
-2.64424e+07
-3.88903e+08
-2.90512e+07
-4.39539e+08
-2.96025e+07
-4.2758e+08
-3.18008e+07
-4.74426e+08
-3.39379e+07
-5.29559e+08
-3.59764e+07
-5.8979e+08
-3.90135e+07
-6.84216e+08
-3.73058e+07
-6.38571e+08
-3.85478e+07
-7.74754e+08
-3.7062e+07
-8.80717e+08
-3.1082e+07
-9.85204e+08
-1.98617e+07
-1.13712e+09
7.98891e+06
-1.21888e+09
6.47613e+07
-1.43178e+09
1.99352e+08
-1.5761e+09
5.66557e+08
-2.13238e+09
1.62647e+09
-4.48359e+09
-1.84678e+09
-3.95723e+10
-4.46555e+08
-1.113e+10
-6.03095e+07
-3.15785e+09
3.73189e+07
-1.17931e+09
-2.76272e+08
-4.2043e+09
-7.83769e+07
-5.86253e+09
-1.16132e+08
-5.20135e+09
-1.04043e+08
-6.03131e+09
-3.39938e+07
-8.11952e+09
3.95574e+07
-6.26861e+09
-1.52221e+08
-9.88999e+09
-1.00275e+08
-8.01103e+09
-1.20792e+08
-4.80306e+09
-3.71507e+07
-6.82618e+09
8.6068e+07
-2.9074e+09
1.39477e+08
-1.9342e+09
1.222e+08
-2.9206e+09
1.66211e+08
-3.10862e+09
2.26944e+08
-2.36805e+09
3.02229e+08
-7.40156e+08
3.98654e+08
2.67254e+09
6.73713e+08
1.10799e+10
6.65144e+09
4.23352e+10
3.05698e+09
3.28718e+10
2.22781e+09
1.6479e+10
1.81288e+09
1.54106e+10
1.45618e+09
1.51625e+10
8.90526e+08
1.76709e+10
3.72104e+08
1.75324e+10
1.70914e+10
-2.39642e+07
-5.04481e+07
-1.7262e+07
-1.28871e+08
-1.34999e+07
-9.16612e+07
-1.15019e+07
-8.48475e+07
-1.04669e+07
-8.43196e+07
-9.7851e+06
-8.64238e+07
-9.42315e+06
-8.92529e+07
-9.18927e+06
-9.2858e+07
-9.11411e+06
-9.65921e+07
-9.11688e+06
-1.00843e+08
-9.21874e+06
-1.05151e+08
-9.37686e+06
-1.0987e+08
-9.59557e+06
-1.14639e+08
-9.87346e+06
-1.19835e+08
-1.01974e+07
-1.25099e+08
-1.05735e+07
-1.30735e+08
-1.09679e+07
-1.36436e+08
-1.14333e+07
-1.4262e+08
-1.19303e+07
-1.49234e+08
-1.2538e+07
-1.57149e+08
-1.32255e+07
-1.66982e+08
-1.41273e+07
-1.79711e+08
-1.51337e+07
-1.94385e+08
-1.62312e+07
-2.08122e+08
-1.66768e+07
-2.10022e+08
-1.77782e+07
-2.24286e+08
-1.91189e+07
-2.44456e+08
-2.05941e+07
-2.6574e+08
-2.17064e+07
-2.79991e+08
-2.25504e+07
-2.8033e+08
-2.4241e+07
-3.06218e+08
-2.62725e+07
-3.41213e+08
-2.80948e+07
-3.76789e+08
-3.09059e+07
-4.25184e+08
-3.14987e+07
-4.15443e+08
-3.38058e+07
-4.59421e+08
-3.61068e+07
-5.12856e+08
-3.82697e+07
-5.71695e+08
-4.16166e+07
-6.62313e+08
-3.97859e+07
-6.22957e+08
-4.11136e+07
-7.52271e+08
-3.96838e+07
-8.58299e+08
-3.35058e+07
-9.64354e+08
-2.20376e+07
-1.11761e+09
6.58506e+06
-1.2134e+09
6.38888e+07
-1.44911e+09
1.9665e+08
-1.6635e+09
5.26276e+08
-2.40645e+09
1.33291e+09
-5.2429e+09
-2.07658e+09
-3.5991e+10
-5.1231e+08
-1.25522e+10
-8.67007e+07
-3.54852e+09
1.42077e+07
-1.27495e+09
-2.97854e+08
-3.88834e+09
-1.22268e+08
-6.01764e+09
-1.61193e+08
-5.14917e+09
-1.41943e+08
-6.03278e+09
-4.40429e+07
-8.19529e+09
3.29398e+07
-6.33342e+09
-1.85706e+08
-9.65701e+09
-1.43958e+08
-8.03717e+09
-1.58327e+08
-4.78074e+09
-4.29583e+07
-6.92855e+09
1.02724e+08
-3.0468e+09
1.80086e+08
-2.00848e+09
1.69817e+08
-2.90759e+09
2.28627e+08
-3.16395e+09
3.0839e+08
-2.44414e+09
4.08256e+08
-8.37738e+08
5.54453e+08
2.52758e+09
1.02493e+09
1.06059e+10
6.09972e+09
3.72421e+10
3.10954e+09
3.58014e+10
2.32387e+09
1.72209e+10
1.90205e+09
1.57982e+10
1.53105e+09
1.55031e+10
9.48022e+08
1.82279e+10
4.10219e+08
1.80448e+10
1.77145e+10
-2.22058e+07
-4.34543e+07
-1.75055e+07
-1.31833e+08
-1.41868e+07
-9.3936e+07
-1.22318e+07
-8.56262e+07
-1.11805e+07
-8.43594e+07
-1.04793e+07
-8.60436e+07
-1.0103e+07
-8.86221e+07
-9.86095e+06
-9.20367e+07
-9.78301e+06
-9.56341e+07
-9.78886e+06
-9.97575e+07
-9.8979e+06
-1.03962e+08
-1.00677e+07
-1.0857e+08
-1.03008e+07
-1.13244e+08
-1.05977e+07
-1.18335e+08
-1.09431e+07
-1.23505e+08
-1.13444e+07
-1.29034e+08
-1.17651e+07
-1.34641e+08
-1.22608e+07
-1.40715e+08
-1.27892e+07
-1.47216e+08
-1.34326e+07
-1.54964e+08
-1.41601e+07
-1.64571e+08
-1.5116e+07
-1.76999e+08
-1.61903e+07
-1.91377e+08
-1.73792e+07
-2.04908e+08
-1.78588e+07
-2.07389e+08
-1.90005e+07
-2.20929e+08
-2.04302e+07
-2.40562e+08
-2.20177e+07
-2.6155e+08
-2.32223e+07
-2.75928e+08
-2.40962e+07
-2.76663e+08
-2.58783e+07
-3.0133e+08
-2.80514e+07
-3.357e+08
-2.99871e+07
-3.71003e+08
-3.30113e+07
-4.18047e+08
-3.36492e+07
-4.10551e+08
-3.60587e+07
-4.52509e+08
-3.85284e+07
-5.05195e+08
-4.08322e+07
-5.63847e+08
-4.45056e+07
-6.52255e+08
-4.25696e+07
-6.18821e+08
-4.39764e+07
-7.43486e+08
-4.26608e+07
-8.51587e+08
-3.63656e+07
-9.61312e+08
-2.48304e+07
-1.1189e+09
4.25478e+06
-1.23067e+09
6.08973e+07
-1.49321e+09
1.88908e+08
-1.77809e+09
4.79007e+08
-2.68978e+09
1.08918e+09
-5.86932e+09
-2.25793e+09
-3.30374e+10
-5.49456e+08
-1.42818e+10
-1.17249e+08
-3.97072e+09
-1.16952e+07
-1.37859e+09
-3.0199e+08
-3.61403e+09
-1.70482e+08
-6.17081e+09
-2.05603e+08
-5.13214e+09
-1.79286e+08
-6.07599e+09
-5.36962e+07
-8.3376e+09
2.02227e+07
-6.42192e+09
-2.0871e+08
-9.4591e+09
-1.8827e+08
-8.0818e+09
-1.87649e+08
-4.79068e+09
-4.77371e+07
-7.07937e+09
1.10093e+08
-3.20717e+09
2.11558e+08
-2.11039e+09
2.15569e+08
-2.91213e+09
2.88263e+08
-3.23825e+09
3.85219e+08
-2.53926e+09
5.07703e+08
-9.58479e+08
7.00015e+08
2.34407e+09
1.30105e+09
1.00179e+10
5.73862e+09
3.28065e+10
3.23454e+09
3.82965e+10
2.41705e+09
1.80198e+10
1.98582e+09
1.62102e+10
1.59936e+09
1.58663e+10
1.0074e+09
1.87954e+10
4.65704e+08
1.85556e+10
1.79652e+10
-2.07662e+07
-3.83334e+07
-1.73256e+07
-1.35263e+08
-1.44777e+07
-9.65859e+07
-1.26358e+07
-8.68852e+07
-1.16081e+07
-8.47925e+07
-1.09133e+07
-8.59682e+07
-1.05377e+07
-8.81996e+07
-1.02988e+07
-9.13379e+07
-1.0225e+07
-9.471e+07
-1.02384e+07
-9.86162e+07
-1.03567e+07
-1.02621e+08
-1.05393e+07
-1.07022e+08
-1.07868e+07
-1.115e+08
-1.11017e+07
-1.16377e+08
-1.14664e+07
-1.21337e+08
-1.18906e+07
-1.26639e+08
-1.23352e+07
-1.32027e+08
-1.28581e+07
-1.37855e+08
-1.34138e+07
-1.44099e+08
-1.40875e+07
-1.5152e+08
-1.48475e+07
-1.60728e+08
-1.58473e+07
-1.72632e+08
-1.69786e+07
-1.86464e+08
-1.82472e+07
-1.99526e+08
-1.8771e+07
-2.0248e+08
-1.99371e+07
-2.15078e+08
-2.14399e+07
-2.33811e+08
-2.31307e+07
-2.54116e+08
-2.44254e+07
-2.68346e+08
-2.53281e+07
-2.69427e+08
-2.71803e+07
-2.92462e+08
-2.94806e+07
-3.25608e+08
-3.15274e+07
-3.601e+08
-3.47324e+07
-4.04987e+08
-3.54398e+07
-3.99846e+08
-3.79264e+07
-4.39156e+08
-4.05514e+07
-4.90239e+08
-4.30099e+07
-5.47774e+08
-4.69758e+07
-6.32494e+08
-4.50287e+07
-6.05646e+08
-4.65104e+07
-7.23898e+08
-4.53986e+07
-8.32232e+08
-3.91922e+07
-9.44103e+08
-2.79275e+07
-1.10333e+09
807112
-1.22926e+09
5.50317e+07
-1.51199e+09
1.73947e+08
-1.85581e+09
4.18094e+08
-2.88439e+09
8.22781e+08
-6.2279e+09
-2.30082e+09
-2.98123e+10
-5.6659e+08
-1.58427e+10
-1.50811e+08
-4.33737e+09
-3.90157e+07
-1.48187e+09
-2.95421e+08
-3.35556e+09
-2.19769e+08
-6.22696e+09
-2.4879e+08
-5.09022e+09
-2.16158e+08
-6.08955e+09
-6.27862e+07
-8.46546e+09
3.86304e+06
-6.4762e+09
-2.24283e+08
-9.21978e+09
-2.30848e+08
-8.06136e+09
-2.07672e+08
-4.80528e+09
-5.23808e+07
-7.2202e+09
1.08716e+08
-3.36065e+09
2.35739e+08
-2.23311e+09
2.60152e+08
-2.93265e+09
3.44089e+08
-3.31768e+09
4.55445e+08
-2.64559e+09
5.97774e+08
-1.09725e+09
8.30466e+08
2.11469e+09
1.51344e+09
9.33377e+09
5.49364e+09
2.88102e+10
3.48347e+09
4.02417e+10
2.51287e+09
1.89465e+10
2.0654e+09
1.66221e+10
1.66316e+09
1.62358e+10
1.0694e+09
1.93578e+10
5.21499e+08
1.90721e+10
1.86013e+10
-2.01083e+07
-3.35012e+07
-1.75507e+07
-1.35817e+08
-1.50624e+07
-9.78876e+07
-1.33014e+07
-8.74023e+07
-1.22807e+07
-8.47535e+07
-1.15789e+07
-8.55714e+07
-1.11953e+07
-8.75751e+07
-1.09523e+07
-9.05452e+07
-1.08775e+07
-9.37954e+07
-1.08955e+07
-9.75966e+07
-1.10211e+07
-1.01515e+08
-1.12157e+07
-1.05833e+08
-1.14769e+07
-1.10239e+08
-1.18107e+07
-1.15042e+08
-1.21956e+07
-1.19936e+08
-1.26447e+07
-1.25169e+08
-1.31142e+07
-1.30496e+08
-1.36671e+07
-1.36258e+08
-1.42519e+07
-1.4243e+08
-1.49594e+07
-1.49738e+08
-1.57543e+07
-1.58771e+08
-1.6804e+07
-1.70434e+08
-1.7998e+07
-1.84018e+08
-1.93526e+07
-1.96921e+08
-1.99304e+07
-2.00542e+08
-2.11213e+07
-2.12571e+08
-2.26975e+07
-2.30779e+08
-2.45021e+07
-2.50855e+08
-2.58951e+07
-2.65311e+08
-2.68312e+07
-2.66955e+08
-2.8748e+07
-2.88838e+08
-3.11863e+07
-3.21442e+08
-3.33566e+07
-3.5587e+08
-3.6745e+07
-3.99557e+08
-3.75398e+07
-3.96797e+08
-4.00993e+07
-4.34376e+08
-4.28791e+07
-4.84817e+08
-4.55185e+07
-5.42498e+08
-4.9769e+07
-6.25206e+08
-4.78666e+07
-6.04629e+08
-4.94072e+07
-7.18792e+08
-4.85479e+07
-8.2948e+08
-4.25177e+07
-9.45712e+08
-3.16679e+07
-1.10974e+09
-3.60151e+06
-1.25178e+09
4.76166e+07
-1.5585e+09
1.56279e+08
-1.96042e+09
3.56907e+08
-3.0917e+09
6.11693e+08
-6.51876e+09
-2.38255e+09
-2.71305e+10
-5.87478e+08
-1.76718e+10
-1.88012e+08
-4.72941e+09
-6.73175e+07
-1.60092e+09
-2.8363e+08
-3.152e+09
-2.67759e+08
-6.26723e+09
-2.90291e+08
-5.08662e+09
-2.5345e+08
-6.14414e+09
-7.18495e+07
-8.66512e+09
-1.3751e+07
-6.54998e+09
-2.35282e+08
-9.02872e+09
-2.71775e+08
-8.05042e+09
-2.20117e+08
-4.86646e+09
-5.77736e+07
-7.39466e+09
9.93562e+07
-3.52075e+09
2.56251e+08
-2.39055e+09
3.05163e+08
-2.9819e+09
3.97485e+08
-3.41163e+09
5.21219e+08
-2.76788e+09
6.81124e+08
-1.25547e+09
9.49132e+08
1.85626e+09
1.68269e+09
8.61365e+09
5.37199e+09
2.51287e+10
3.96341e+09
4.16627e+10
2.61354e+09
2.0288e+10
2.14008e+09
1.70837e+10
1.72139e+09
1.66368e+10
1.13092e+09
1.99277e+10
5.90586e+08
1.95836e+10
1.8969e+10
-1.93433e+07
-3.01095e+07
-1.73991e+07
-1.37529e+08
-1.52648e+07
-9.97029e+07
-1.36307e+07
-8.83707e+07
-1.26499e+07
-8.50607e+07
-1.19649e+07
-8.54255e+07
-1.1588e+07
-8.7105e+07
-1.13521e+07
-8.9816e+07
-1.12834e+07
-9.2855e+07
-1.13105e+07
-9.64562e+07
-1.14456e+07
-1.00194e+08
-1.16534e+07
-1.04325e+08
-1.19285e+07
-1.08557e+08
-1.22799e+07
-1.1317e+08
-1.26831e+07
-1.17882e+08
-1.31546e+07
-1.22917e+08
-1.36467e+07
-1.28057e+08
-1.42261e+07
-1.33607e+08
-1.48363e+07
-1.39561e+08
-1.55723e+07
-1.46587e+08
-1.63953e+07
-1.5527e+08
-1.74839e+07
-1.66459e+08
-1.87285e+07
-1.79541e+08
-2.01534e+07
-1.9201e+08
-2.07981e+07
-1.9614e+08
-2.20035e+07
-2.07406e+08
-2.36327e+07
-2.24732e+08
-2.55374e+07
-2.44157e+08
-2.70272e+07
-2.58534e+08
-2.80024e+07
-2.6066e+08
-2.99604e+07
-2.81029e+08
-3.25183e+07
-3.12447e+08
-3.48119e+07
-3.46216e+08
-3.83441e+07
-3.87924e+08
-3.92576e+07
-3.87508e+08
-4.187e+07
-4.22792e+08
-4.47869e+07
-4.71705e+08
-4.76208e+07
-5.28467e+08
-5.21076e+07
-6.07766e+08
-5.0361e+07
-5.93733e+08
-5.1965e+07
-7.02224e+08
-5.14339e+07
-8.13119e+08
-4.57849e+07
-9.31813e+08
-3.56472e+07
-1.09756e+09
-8.97618e+06
-1.25287e+09
3.80184e+07
-1.57563e+09
1.33861e+08
-2.02122e+09
2.90089e+08
-3.20792e+09
4.0744e+08
-6.60123e+09
-2.38372e+09
-2.43035e+10
-6.15026e+08
-1.92663e+10
-2.28716e+08
-5.05827e+09
-9.66754e+07
-1.72118e+09
-2.70637e+08
-2.97612e+09
-3.11526e+08
-6.20997e+09
-3.2911e+08
-5.05727e+09
-2.91079e+08
-6.16344e+09
-8.07672e+07
-8.84721e+09
-3.11777e+07
-6.58814e+09
-2.42808e+08
-8.80884e+09
-3.09193e+08
-7.97309e+09
-2.258e+08
-4.94096e+09
-6.54414e+07
-7.54013e+09
8.29103e+07
-3.6612e+09
2.71578e+08
-2.57371e+09
3.4762e+08
-3.05298e+09
4.46478e+08
-3.50522e+09
5.80172e+08
-2.89571e+09
7.54364e+08
-1.42524e+09
1.04934e+09
1.5663e+09
1.79674e+09
7.86712e+09
5.31176e+09
2.16003e+10
4.80763e+09
4.21042e+10
2.71102e+09
2.23413e+10
2.21076e+09
1.75514e+10
1.77668e+09
1.70399e+10
1.19158e+09
2.04809e+10
6.52186e+08
2.00895e+10
1.91124e+10
-1.91191e+07
-2.6885e+07
-1.76467e+07
-1.36892e+08
-1.57829e+07
-1.00318e+08
-1.42406e+07
-8.8663e+07
-1.32819e+07
-8.49648e+07
-1.26004e+07
-8.50365e+07
-1.22214e+07
-8.65127e+07
-1.19855e+07
-8.9074e+07
-1.1918e+07
-9.20015e+07
-1.19514e+07
-9.55129e+07
-1.20942e+07
-9.91756e+07
-1.23148e+07
-1.03242e+08
-1.26033e+07
-1.07415e+08
-1.29739e+07
-1.11977e+08
-1.33964e+07
-1.16641e+08
-1.38928e+07
-1.21633e+08
-1.44088e+07
-1.26733e+08
-1.50181e+07
-1.32249e+08
-1.56561e+07
-1.38158e+08
-1.64252e+07
-1.45111e+08
-1.72791e+07
-1.53657e+08
-1.84133e+07
-1.64647e+08
-1.97145e+07
-1.77511e+08
-2.12161e+07
-1.89853e+08
-2.19376e+07
-1.94662e+08
-2.31647e+07
-2.05547e+08
-2.48453e+07
-2.22352e+08
-2.68583e+07
-2.41556e+08
-2.84545e+07
-2.56211e+08
-2.94793e+07
-2.59053e+08
-3.14727e+07
-2.78368e+08
-3.41594e+07
-3.0925e+08
-3.65906e+07
-3.43068e+08
-4.02706e+07
-3.8376e+08
-4.13209e+07
-3.85712e+08
-4.39907e+07
-4.19615e+08
-4.70419e+07
-4.67916e+08
-5.00959e+07
-5.24979e+08
-5.481e+07
-6.02514e+08
-5.32767e+07
-5.94767e+08
-5.49416e+07
-6.99842e+08
-5.47774e+07
-8.13032e+08
-4.95879e+07
-9.36333e+08
-4.02762e+07
-1.10691e+09
-1.52224e+07
-1.27731e+09
2.72485e+07
-1.61974e+09
1.10073e+08
-2.10798e+09
2.26286e+08
-3.34244e+09
2.34183e+08
-6.6602e+09
-2.42704e+09
-2.18982e+10
-6.85566e+08
-2.10736e+10
-2.76275e+08
-5.46189e+09
-1.27179e+08
-1.86783e+09
-2.5977e+08
-2.85327e+09
-3.5008e+08
-6.14621e+09
-3.64771e+08
-5.06234e+09
-3.30019e+08
-6.21751e+09
-9.03023e+07
-9.1062e+09
-4.73989e+07
-6.64719e+09
-2.48346e+08
-8.63757e+09
-3.43807e+08
-7.9044e+09
-2.28173e+08
-5.06658e+09
-7.71075e+07
-7.70496e+09
6.21522e+07
-3.80401e+09
2.83013e+08
-2.79513e+09
3.87873e+08
-3.15799e+09
4.9242e+08
-3.61137e+09
6.35002e+08
-3.03669e+09
8.21356e+08
-1.60943e+09
1.13777e+09
1.26037e+09
1.86986e+09
7.14914e+09
4.88765e+09
1.85968e+10
5.57794e+09
4.14527e+10
2.79162e+09
2.51277e+10
2.27726e+09
1.80604e+10
1.82846e+09
1.74759e+10
1.25461e+09
2.10377e+10
7.03574e+08
2.06132e+10
1.96896e+10
-1.87012e+07
-2.46797e+07
-1.75432e+07
-1.37707e+08
-1.59326e+07
-1.01554e+08
-1.4511e+07
-8.9388e+07
-1.36006e+07
-8.51685e+07
-1.29431e+07
-8.48415e+07
-1.25759e+07
-8.6016e+07
-1.23504e+07
-8.83317e+07
-1.2291e+07
-9.10575e+07
-1.23349e+07
-9.43792e+07
-1.24879e+07
-9.78712e+07
-1.27222e+07
-1.01764e+08
-1.30242e+07
-1.05776e+08
-1.34124e+07
-1.10164e+08
-1.38524e+07
-1.14662e+08
-1.43709e+07
-1.19474e+08
-1.49085e+07
-1.24406e+08
-1.55441e+07
-1.29733e+08
-1.62065e+07
-1.35449e+08
-1.70034e+07
-1.42152e+08
-1.78822e+07
-1.50382e+08
-1.90506e+07
-1.60932e+08
-2.03952e+07
-1.73319e+08
-2.19562e+07
-1.8525e+08
-2.2764e+07
-1.90533e+08
-2.401e+07
-2.00845e+08
-2.57213e+07
-2.16799e+08
-2.7823e+07
-2.35331e+08
-2.95229e+07
-2.49921e+08
-3.06076e+07
-2.53352e+08
-3.26158e+07
-2.71309e+08
-3.5408e+07
-3.00973e+08
-3.79753e+07
-3.34186e+08
-4.17647e+07
-3.73106e+08
-4.29786e+07
-3.77247e+08
-4.5695e+07
-4.09246e+08
-4.88624e+07
-4.56041e+08
-5.21422e+07
-5.12211e+08
-5.70373e+07
-5.86666e+08
-5.58178e+07
-5.8508e+08
-5.75676e+07
-6.85301e+08
-5.78299e+07
-7.98402e+08
-5.32829e+07
-9.2405e+08
-4.50416e+07
-1.09605e+09
-2.2183e+07
-1.27786e+09
1.49539e+07
-1.63123e+09
8.37964e+07
-2.1469e+09
1.62788e+08
-3.3898e+09
8.02153e+07
-6.55339e+09
-2.43721e+09
-1.93822e+10
-8.22469e+08
-2.25028e+10
-3.33332e+08
-5.88031e+09
-1.59279e+08
-2.02463e+09
-2.52942e+08
-2.75572e+09
-3.81984e+08
-6.00277e+09
-3.9635e+08
-5.03642e+09
-3.69836e+08
-6.22514e+09
-1.00288e+08
-9.34343e+09
-6.18726e+07
-6.67373e+09
-2.52064e+08
-8.44025e+09
-3.7392e+08
-7.7739e+09
-2.28814e+08
-5.20166e+09
-9.24858e+07
-7.82614e+09
3.84018e+07
-3.9267e+09
2.89117e+08
-3.03887e+09
4.22959e+08
-3.28546e+09
5.32625e+08
-3.71426e+09
6.82797e+08
-3.17984e+09
8.78249e+08
-1.79931e+09
1.20849e+09
9.36847e+08
1.89642e+09
6.46378e+09
3.95505e+09
1.65291e+10
5.54548e+09
3.98195e+10
2.83761e+09
2.77873e+10
2.34071e+09
1.85268e+10
1.87941e+09
1.79073e+10
1.31567e+09
2.15687e+10
7.66023e+08
2.11269e+10
2.00536e+10
-1.87283e+07
-2.24974e+07
-1.78313e+07
-1.3647e+08
-1.64171e+07
-1.01689e+08
-1.50837e+07
-8.94847e+07
-1.42035e+07
-8.5016e+07
-1.35571e+07
-8.4458e+07
-1.31927e+07
-8.54545e+07
-1.29709e+07
-8.7637e+07
-1.29146e+07
-9.0259e+07
-1.29666e+07