/*--------------------------------*- C++ -*----------------------------------*\
| =========                 |                                                 |
| \\      /  F ield         | OpenFOAM: The Open Source CFD Toolbox           |
|  \\    /   O peration     | Version:  4.1                                   |
|   \\  /    A nd           | Web:      www.OpenFOAM.org                      |
|    \\/     M anipulation  |                                                 |
\*---------------------------------------------------------------------------*/
FoamFile
{
    version     2.0;
    format      ascii;
    class       volVectorField;
    location    "1";
    object      U;
}
// * * * * * * * * * * * * * * * * * * * * * * * * * * * * * * * * * * * * * //

dimensions      [0 1 -1 0 0 0 0];

internalField   nonuniform List<vector> 
6785
(
(-2.99323e-05 -2092.06 31514.7)
(-3.82429e-05 -6559.38 27540.8)
(9.23763e-06 -10520.6 24192.1)
(-8.95891e-06 -14176.3 21145.5)
(-8.74281e-06 -17548.9 18504.2)
(8.5821e-06 -20250.3 16427)
(-8.46723e-06 -22248.6 14907.8)
(-8.42559e-06 -23179.7 14252.7)
(8.47536e-06 -22988.1 14584.5)
(-1.69811e-05 -21813.5 15475.1)
(-8.64725e-06 -19450.5 17554.6)
(8.68273e-06 -16690.7 19631.5)
(-8.73949e-06 -15952.7 20816)
(-8.82531e-06 -16031.3 21529.3)
(1.00001e-05 -9507.47 29418.5)
(-2.06479e-05 -4377.38 245409)
(6.54803e-11 -13472.8 229545)
(-1.26652e-10 -22379.4 222674)
(-1.90779e-05 -30653 213649)
(5.34863e-10 -39924.4 215907)
(-5.90772e-10 -48462.9 221375)
(-4.32836e-05 -57684.5 236395)
(6.72034e-10 -65672.2 257697)
(-2.36511e-10 -71455.6 276298)
(-2.66164e-05 -75408.3 302706)
(7.44981e-10 -82983.4 368450)
(-5.62104e-10 -72190.7 327982)
(-5.82633e-05 -75984.7 351905)
(1.06393e-10 -55260.6 320003)
(-2.09471e-10 -37208 531813)
(5.49238e-05 -5142.83 342853)
(6.02937e-10 -15177.3 322089)
(-3.93226e-10 -24855.4 307762)
(4.77035e-05 -33377.6 285916)
(9.82401e-10 -41446.2 275931)
(-6.0954e-10 -47730.9 261429)
(4.50979e-05 -55564.9 262839)
(1.01762e-09 -61593.6 262524)
(-8.88901e-10 -69617.8 275582)
(4.84227e-05 -70419 276051)
(1.35243e-05 -77738.6 307275)
(-5.49251e-10 -68068.6 334249)
(8.768e-05 -63998.3 526355)
(2.94173e-05 -46705.6 726742)
(-4.94232e-10 -19366.1 905981)
(-2.06381e-05 -7007.91 342557)
(2.33025e-05 -18579.3 310957)
(-1.47381e-05 -27537.9 289714)
(-8.40344e-10 -34030.9 277441)
(2.18908e-05 -38486.9 280468)
(-1.52677e-05 -39460 293531)
(-7.82391e-10 -37832.9 323546)
(2.78881e-05 -32162.2 364499)
(-2.13329e-05 -24330.5 423731)
(-1.59033e-09 -16038.6 493200)
(4.73806e-05 -4326.4 639435)
(-1.57044e-05 -511.471 636319)
(-3.44898e-10 -16899.8 742276)
(6.46951e-05 -43878.2 850423)
(-1.6491e-05 -48100.8 1.4245e+06)
(6.44997e-06 -5273.17 407637)
(2.18701e-05 -14317 454347)
(1.5574e-05 -19786.2 479980)
(8.39608e-06 -24241.9 511728)
(2.82637e-05 -29107.5 567833)
(2.11461e-05 -33657.7 631257)
(1.20932e-05 -38524 716814)
(4.09287e-05 -42365.5 805655)
(3.03694e-05 -44651.5 896720)
(1.63243e-05 -45655.4 966313)
(5.17278e-05 -57554 1.01869e+06)
(3.36287e-05 -58154.2 996667)
(1.69088e-05 -60283.7 1.008e+06)
(5.2212e-05 -62381.6 1.04469e+06)
(7.80636e-05 -61258.3 2.38992e+06)
(-1.87229e-05 3656.41 677038)
(-6.34813e-06 12337.3 795326)
(-2.00518e-05 19055.7 834056)
(-6.98138e-06 22838.3 863924)
(-7.45155e-06 21851.5 909878)
(-2.412e-05 17044.9 965489)
(1.8228e-11 6521.4 1.05204e+06)
(-1.04822e-05 -7438.65 1.21109e+06)
(-3.49091e-05 -22346 1.32351e+06)
(4.04473e-10 -38029.3 1.27724e+06)
(-1.21004e-05 -46273.2 1.3501e+06)
(-3.3507e-05 -55419.6 1.23474e+06)
(-5.03598e-11 -73613.9 1.09722e+06)
(-1.72706e-05 -101834 1.88974e+06)
(-0.000125542 -67938.1 4.03181e+06)
(-1.09824e-05 19014.7 1.28492e+06)
(-9.33123e-06 50970 1.35343e+06)
(-1.36821e-05 69055.7 1.32135e+06)
(9.83935e-11 79778.3 1.26839e+06)
(-4.32463e-06 85415.8 1.23331e+06)
(-8.53484e-06 85876.7 1.20065e+06)
(1.69363e-10 81272.7 1.18012e+06)
(-8.64028e-06 67939.7 1.16675e+06)
(-1.40855e-05 48568.6 1.23154e+06)
(1.59466e-10 29467.6 1.40248e+06)
(-1.39531e-05 16984.8 1.73042e+06)
(-2.29827e-05 13138.5 1.86521e+06)
(3.20644e-10 6724.44 1.96263e+06)
(2.28695e-05 51991.1 5.42329e+06)
(-3.44288e-05 28342.7 3.3077e+06)
(8.67738e-06 53922.3 2.57226e+06)
(6.44312e-10 111800 2.16422e+06)
(2.59618e-06 131852 1.92784e+06)
(2.36315e-06 137974 1.75307e+06)
(6.74802e-10 140763 1.65528e+06)
(2.155e-06 141278 1.58787e+06)
(8.89911e-11 143326 1.56802e+06)
(4.67026e-10 148819 1.57848e+06)
(2.19156e-06 155503 1.60746e+06)
(2.25074e-06 157404 1.64577e+06)
(2.43238e-10 156641 1.77344e+06)
(2.59848e-06 144537 1.8638e+06)
(2.88039e-10 123987 2.06524e+06)
(3.41422e-10 100594 3.74228e+06)
(6.30313e-06 4092.5 2.92514e+06)
(2.55402e-10 56362.9 4.59882e+06)
(8.72288e-10 78064.2 2.43887e+06)
(2.39975e-06 74405.5 1.82847e+06)
(-5.10235e-11 61621 1.53205e+06)
(9.07226e-10 48255.2 1.35657e+06)
(1.50263e-06 35788.4 1.25495e+06)
(-1.4215e-10 26032.1 1.22595e+06)
(7.30028e-10 18601.7 1.24663e+06)
(1.49258e-06 15610.8 1.3216e+06)
(-4.8689e-11 17705.8 1.41354e+06)
(5.77113e-10 23458.4 1.56459e+06)
(1.83706e-06 32067.2 1.67589e+06)
(7.11829e-11 38200.4 1.89435e+06)
(1.05461e-09 20817.6 2.78029e+06)
(3.02386e-06 -8545.76 2.70788e+06)
(1.23401e-06 -100318 2.68801e+06)
(2.48506e-10 -181892 1.6425e+06)
(4.29075e-07 -220384 1.36045e+06)
(5.94309e-07 -228855 1.27417e+06)
(2.83977e-11 -219072 1.2599e+06)
(1.85385e-07 -194504 1.23124e+06)
(5.53834e-07 -170151 1.24255e+06)
(1.81571e-10 -142046 1.28458e+06)
(3.93338e-07 -112279 1.35727e+06)
(6.22789e-07 -80289.6 1.4509e+06)
(2.63108e-10 -46217.1 1.5842e+06)
(2.46703e-07 -10562.9 1.75901e+06)
(7.97214e-07 22484 1.91404e+06)
(3.48311e-10 41892.5 2.34567e+06)
(6.12567e-07 15294.6 2.19852e+06)
(4.99005e-07 -110457 1.37113e+06)
(-2.59188e-07 -255546 1.15056e+06)
(8.01493e-07 -318197 1.15206e+06)
(-4.22585e-11 -294617 1.2676e+06)
(-3.0023e-07 -173135 1.39895e+06)
(9.10396e-07 -45235.4 1.48934e+06)
(-7.57731e-12 13595.8 1.59744e+06)
(-3.34569e-07 38937 1.72859e+06)
(1.08549e-06 54755.6 1.90784e+06)
(-8.35483e-12 65175.9 2.11383e+06)
(-4.29926e-07 84076.5 2.36919e+06)
(1.38929e-06 80434.6 2.59673e+06)
(3.74853e-10 41871.3 2.89296e+06)
(1.77758e-06 14508.6 3.37094e+06)
(6.45045e-07 -3728.82 2.12844e+06)
(5.10826e-10 -35919.8 884977)
(-3.20092e-07 -124986 1.42776e+06)
(9.33519e-07 -263314 2.74038e+06)
(7.53584e-11 -478634 4.44866e+06)
(-1.3841e-06 -802158 6.1678e+06)
(1.46227e-06 -832692 4.43069e+06)
(2.65481e-10 -834622 3.10508e+06)
(-8.13276e-07 -859022 2.59434e+06)
(4.80519e-07 -854753 2.40078e+06)
(8.08346e-11 -820316 2.3578e+06)
(-8.11706e-11 -779240 2.37723e+06)
(6.41606e-07 -700229 2.48711e+06)
(-2.11438e-07 -546783 2.6074e+06)
(2.29837e-07 -411060 2.9907e+06)
(4.58908e-07 -132856 2.55103e+06)
(2.8226e-07 -28759.4 157841)
(1.80705e-07 -180390 338067)
(-1.48452e-07 -323829 360147)
(3.52313e-07 -498305 360518)
(2.28804e-10 -762255 412028)
(2.04198e-10 -998944 531969)
(1.13254e-07 -1.13811e+06 758031)
(-5.93509e-07 -1.1882e+06 1.08168e+06)
(1.27297e-07 -1.18089e+06 1.49938e+06)
(7.42999e-11 -1.13524e+06 2.01685e+06)
(-1.58373e-07 -1.02604e+06 2.7264e+06)
(1.84513e-07 -917319 3.60302e+06)
(5.81156e-11 -936738 5.18641e+06)
(-3.51086e-07 -876571 7.91886e+06)
(5.14523e-07 -489871 1.21481e+07)
(4.20421e-07 -618083 -7.79381e+06)
(1.15538e-07 -1.74173e+06 -7.66439e+06)
(2.84377e-07 -2.33229e+06 -6.18515e+06)
(1.8601e-07 -2.98533e+06 -5.66698e+06)
(9.6669e-08 -3.52282e+06 -5.14564e+06)
(7.25866e-11 -3.91397e+06 -4.32894e+06)
(-1.06391e-07 -4.21524e+06 -3.27635e+06)
(1.12366e-07 -4.37762e+06 -1.94367e+06)
(3.42449e-11 -4.45112e+06 -364490)
(-1.31561e-07 -4.35458e+06 1.56822e+06)
(1.4482e-07 -4.11906e+06 3.82394e+06)
(1.44328e-11 -3.61054e+06 6.57911e+06)
(-1.76724e-07 -2.66665e+06 9.70276e+06)
(2.11107e-07 -1.59584e+06 1.40603e+07)
(2.44954e-10 -580234 2.3061e+07)
(1.9652e-07 -3.95896e+06 -9.2897e+07)
(8.69043e-08 -7.01867e+06 -4.59332e+07)
(-7.51131e-08 -9.04247e+06 -3.01409e+07)
(2.03175e-12 -1.0198e+07 -2.4547e+07)
(6.06344e-08 -1.06779e+07 -1.79426e+07)
(-5.58532e-08 -1.10031e+07 -1.39971e+07)
(-2.81688e-12 -1.12747e+07 -1.03981e+07)
(5.31596e-08 -1.13057e+07 -6.69746e+06)
(-5.36027e-08 -1.12041e+07 -3.00956e+06)
(-3.42967e-12 -1.11292e+07 1.79761e+06)
(1.15867e-07 -1.06171e+07 6.44748e+06)
(-1.19351e-07 -9.8643e+06 1.44725e+07)
(1.90644e-12 -8.69571e+06 2.35198e+07)
(1.48207e-07 -6.95385e+06 4.51977e+07)
(-1.76289e-07 -3.1228e+06 8.45648e+07)
(-1.02592e-09 -7.29924e+13 6.86269e+12)
(-8.89035e-12 -1.48279e+09 2.86868e+08)
(-9.86631e-12 -7.16315e+08 3.53627e+07)
(-1.09802e-11 -7.15301e+08 6.98336e+07)
(-1.22103e-11 -9.46333e+08 1.03767e+08)
(-1.35254e-11 -5.11729e+08 2.33921e+08)
(-2.19183e-11 -6.55231e+08 4.19189e+07)
(-2.45238e-11 -7.05248e+08 6.95527e+07)
(-3.93712e-11 -8.82797e+08 9.36381e+07)
(3.13439e-08 -5.95968e+08 1.60618e+08)
(2.62563e-11 -6.18108e+08 4.30916e+07)
(4.61918e-12 -7.39837e+08 5.87572e+07)
(4.84983e-12 -6.1763e+08 7.09231e+07)
(-7.8597e-11 -5.27272e+08 2.91733e+07)
(3.00332e-12 -5.72671e+08 3.87691e+07)
(3.31719e-12 -6.49414e+08 4.83951e+07)
(1.42678e-12 -6.0141e+08 2.53362e+07)
(5.87083e-12 -4.69773e+08 2.67718e+07)
(5.16798e-12 -5.31338e+08 3.22969e+07)
(3.4958e-12 -5.83604e+08 -1.44517e+07)
(2.15795e-12 -3.15907e+08 1.70887e+07)
(2.4687e-12 -3.59166e+08 1.76857e+07)
(-1.01384e-08 -3.71262e+08 1.79e+07)
(3.06874e-12 -4.71666e+08 -3.16679e+07)
(1.68408e-12 -1.74987e+08 8.0846e+06)
(2.49282e-12 -2.09715e+08 5.47532e+06)
(1.34355e-08 -1.98451e+08 3.17211e+06)
(-3.76723e-13 -2.99097e+08 -3.54101e+07)
(8.63146e-09 -1.21491e+08 4.33543e+06)
(1.20142e-12 -1.27431e+08 2.4116e+06)
(2.57788e-12 -2.17404e+08 -2.73274e+07)
(1.1015e-08 -8.40628e+07 4.31675e+06)
(2.39071e-13 -1.00254e+08 1.86649e+06)
(-7.58117e-13 -8.79377e+07 -475987)
(-1.05586e-12 -1.66128e+08 -2.38322e+07)
(1.00496e-13 -7.0461e+07 2.65206e+06)
(1.2108e-13 -7.12034e+07 895423)
(1.17379e-13 -1.38818e+08 -1.82122e+07)
(1.17891e-14 -5.74529e+07 3.47298e+06)
(-2.13307e-13 -6.82431e+07 1.73675e+06)
(-8.54402e-09 -5.90338e+07 -135324)
(1.42045e-12 -1.19202e+08 -1.56515e+07)
(3.4676e-13 -4.87856e+07 2.18894e+06)
(4.50485e-13 -5.83319e+07 444133)
(4.76292e-13 -4.97242e+07 -1.04654e+06)
(5.79795e-13 -1.05732e+08 -1.31984e+07)
(5.62372e-13 -4.26099e+07 1.1596e+06)
(5.90391e-13 -4.25385e+07 -160947)
(2.22666e-13 -9.55374e+07 -9.8493e+06)
(-7.37643e-09 -3.65558e+07 1.98285e+06)
(1.48257e-12 -4.46444e+07 491730)
(1.10843e-12 -3.64639e+07 -1.00936e+06)
(1.35963e-12 -8.69901e+07 -8.57616e+06)
(1.38523e-12 -3.28999e+07 1.1343e+06)
(1.28762e-12 -4.04069e+07 -443380)
(-8.57423e-09 -3.24474e+07 -1.70359e+06)
(3.12345e-12 -8.1118e+07 -7.40441e+06)
(2.05344e-12 -3.07849e+07 427941)
(9.74822e-09 -3.02457e+07 -732301)
(2.82439e-12 -7.6468e+07 -5.23352e+06)
(3.02387e-12 -2.86817e+07 1.31582e+06)
(2.97157e-12 -3.55063e+07 -26613.5)
(2.59995e-12 -2.82446e+07 -1.26906e+06)
(-4.42068e-08 -7.26885e+07 -4.63892e+06)
(6.24532e-12 -2.74954e+07 697899)
(5.19962e-12 -2.7048e+07 -366029)
(7.2867e-12 -6.93616e+07 -3.18757e+06)
(1.40302e-08 -2.59201e+07 1.50408e+06)
(6.00841e-12 -3.21695e+07 348450)
(6.20129e-12 -2.55147e+07 -883850)
(8.31625e-12 -6.64101e+07 -3.22877e+06)
(6.34242e-12 -2.48951e+07 926679)
(6.1315e-12 -3.08874e+07 -318694)
(5.60128e-12 -2.43783e+07 -1.36905e+06)
(3.14628e-08 -6.44137e+07 -3.35157e+06)
(2.76125e-12 -2.41794e+07 389953)
(2.46785e-12 -2.36892e+07 -568829)
(5.65524e-12 -6.2231e+07 -2.7142e+06)
(-1.17482e-12 -2.29617e+07 1.13795e+06)
(-3.78657e-12 -3.97045e+07 -259012)
(6.60849e-12 -2.25794e+07 2.48862e+06)
(4.72867e-12 -2.46036e+07 1.85511e+06)
(4.50909e-12 -1.72994e+07 1.90069e+06)
(-9.02417e-08 -9.79743e+07 6.4017e+06)
(7.78192e-12 -1.43868e+07 3.6923e+06)
(-2.05578e-13 -1.74876e+07 3.55111e+06)
(-2.21834e-12 -1.61424e+07 3.05852e+06)
(-1.72888e-12 -1.49047e+07 2.6176e+06)
(-1.67166e-12 -1.37227e+07 2.23828e+06)
(-1.86151e-12 -1.26324e+07 1.92431e+06)
(-2.1288e-12 -1.15828e+07 1.66893e+06)
(-2.11641e-12 -8.2684e+06 1.67327e+06)
(-6.35349e-08 -5.37031e+07 1.1124e+07)
(-5.70851e-13 -8.73663e+06 2.51211e+06)
(-1.10599e-12 -1.08691e+07 2.40187e+06)
(-1.18317e-12 -1.02481e+07 2.06896e+06)
(-8.95269e-13 -9.6715e+06 1.82487e+06)
(-3.30983e-13 -9.11308e+06 1.55265e+06)
(-1.86139e-13 -8.57887e+06 1.30676e+06)
(1.04779e-13 -8.06745e+06 1.0855e+06)
(8.07239e-13 -5.86906e+06 1.02929e+06)
(7.30193e-08 -3.90628e+07 7.83922e+06)
(-5.93407e-13 -6.46869e+06 1.65737e+06)
(3.45957e-13 -8.18044e+06 1.57658e+06)
(-3.34391e-14 -7.89734e+06 1.31826e+06)
(-1.4842e-13 -7.62436e+06 1.07516e+06)
(-1.02835e-12 -7.36267e+06 869934)
(-2.28021e-12 -7.09437e+06 701700)
(-2.10806e-12 -6.84581e+06 498348)
(-2.34614e-12 -6.62554e+06 307108)
(-2.8171e-12 -4.94581e+06 269935)
(-1.13855e-07 -3.15812e+07 2.24396e+06)
(5.25121e-13 -5.12224e+06 773660)
(-2.47482e-13 -6.59859e+06 689474)
(3.5701e-13 -6.53293e+06 485062)
(5.99387e-13 -6.47435e+06 284452)
(1.2429e-12 -6.42571e+06 88125.2)
(2.41596e-12 -6.39616e+06 -49758.1)
(2.32124e-12 -6.36016e+06 -213284)
(1.89372e-12 -4.87231e+06 -266167)
(-7.34222e-08 -2.8139e+07 -2.68341e+06)
(4.24102e-12 -4.29625e+06 102467)
(2.76216e-12 -5.58258e+06 72033.7)
(1.84167e-12 -5.62671e+06 -36979.6)
(1.97822e-12 -5.68961e+06 -203975)
(1.78896e-12 -5.75128e+06 -372561)
(1.53731e-12 -5.83447e+06 -544365)
(1.05628e-12 -5.92592e+06 -718514)
(1.7774e-12 -4.63787e+06 -699281)
(1.02516e-07 -2.43625e+07 -6.55132e+06)
(-1.80141e-12 -3.42029e+06 -410522)
(-5.64843e-13 -4.53086e+06 -435597)
(-4.53355e-13 -4.74642e+06 -553775)
(5.21408e-13 -4.96217e+06 -635166)
(2.40922e-13 -5.20306e+06 -752884)
(-2.13007e-13 -5.45651e+06 -903685)
(-4.17078e-13 -5.72521e+06 -1.0687e+06)
(-6.86137e-13 -4.59468e+06 -1.13022e+06)
(6.28914e-08 -2.2943e+07 -9.49853e+06)
(-5.22118e-12 -2.98893e+06 -831036)
(-5.25107e-12 -4.1921e+06 -828073)
(-5.89121e-12 -4.63218e+06 -919209)
(-6.46475e-12 -5.09772e+06 -1.03509e+06)
(-7.48484e-12 -5.56305e+06 -1.17024e+06)
(-7.03409e-12 -6.06809e+06 -1.28858e+06)
(-6.65749e-12 -6.60409e+06 -1.47818e+06)
(-6.66793e-12 -7.1696e+06 -1.69795e+06)
(-6.20492e-12 -5.85871e+06 -1.75408e+06)
(-2.83726e-08 -3.29259e+07 -1.05403e+07)
(-3.17802e-12 -4.82643e+06 -1.28205e+06)
(-9.84918e-13 -6.97944e+06 -1.28816e+06)
(-1.39859e-13 -7.87434e+06 -1.44332e+06)
(9.93429e-13 -8.8424e+06 -1.65346e+06)
(2.4788e-12 -9.83184e+06 -1.91125e+06)
(3.30399e-12 -1.09985e+07 -2.23147e+06)
(2.16325e-12 -1.25458e+07 -2.63292e+06)
(1.40027e-12 -1.07491e+07 -2.80251e+06)
(4.9741e-08 -7.7836e+07 -5.71192e+06)
(1.18368e-12 -1.4239e+07 -1.72612e+06)
(9.83291e-13 -1.61629e+07 -1.95548e+06)
(-1.28736e-12 -4.44089e+07 895119)
(-2.43334e-08 -2.35932e+07 2.79717e+06)
(2.16169e-12 -2.49764e+07 2.03059e+06)
(5.81603e-13 -1.61221e+07 167381)
(2.60052e-08 -3.19499e+07 556978)
(5.89427e-13 -1.63494e+07 -574813)
(2.70894e-08 -2.57305e+07 -419113)
(2.80436e-08 -2.59344e+07 -67810)
(6.91433e-13 -1.65504e+07 -73258)
(1.03967e-12 -2.57222e+07 -956726)
(6.78998e-13 -2.51603e+07 -389678)
(4.33803e-13 -1.59752e+07 421076)
(8.36998e-13 -3.09219e+07 -978533)
(3.04126e-13 -1.56319e+07 -300837)
(1.73375e-08 -2.42422e+07 -1.48943e+06)
(4.45626e-13 -2.36814e+07 -861931)
(3.06214e-13 -1.50251e+07 172323)
(1.93366e-08 -2.9e+07 -1.42358e+06)
(2.30378e-13 -1.46707e+07 -501454)
(6.79847e-13 -2.271e+07 -1.71942e+06)
(4.16248e-13 -2.23499e+07 -1.01802e+06)
(2.64283e-13 -1.41574e+07 -48506.6)
(3.13515e-13 -2.18588e+07 -1.52842e+06)
(2.41598e-08 -2.10721e+07 -868340)
(1.67831e-13 -1.33388e+07 364476)
(7.16362e-13 -2.56501e+07 -1.22594e+06)
(-9.37549e-14 -1.29555e+07 -237468)
(1.36793e-08 -1.99927e+07 -1.54345e+06)
(-4.18937e-13 -1.94635e+07 -943537)
(1.23486e-13 -1.23112e+07 153076)
(-1.14127e-13 -2.37563e+07 -1.33119e+06)
(-1.9947e-13 -1.20072e+07 -399026)
(-3.12605e-13 -1.85711e+07 -1.52209e+06)
(1.73222e-08 -1.82599e+07 -908471)
(1.66049e-14 -1.15632e+07 -29197.3)
(-2.2745e-13 -1.78435e+07 -1.29712e+06)
(3.68909e-13 -1.72574e+07 -738010)
(2.50339e-14 -1.0897e+07 307692)
(6.4033e-14 -2.10258e+07 -1.0012e+06)
(-1.68743e-13 -1.06183e+07 -184730)
(-4.23844e-14 -1.64109e+07 -1.24887e+06)
(-1.16974e-08 -1.60305e+07 -748505)
(-5.21823e-13 -1.01234e+07 134709)
(1.23856e-08 -1.95806e+07 -1.04903e+06)
(2.12924e-15 -9.90657e+06 -320146)
(-2.8221e-13 -1.5329e+07 -1.20771e+06)
(1.39226e-08 -1.51544e+07 -707954)
(3.80734e-14 -9.56244e+06 -15885.7)
(9.116e-14 -1.48053e+07 -1.03548e+06)
(-3.04693e-13 -1.43693e+07 -579736)
(8.20626e-14 -9.03121e+06 262318)
(-1.63271e-08 -1.75049e+07 -789384)
(-6.29828e-13 -8.82217e+06 -145816)
(1.72166e-08 -1.36644e+07 -1.00198e+06)
(1.82237e-08 -1.34099e+07 -595544)
(-4.74748e-14 -8.40924e+06 118226)
(9.51263e-09 -1.63855e+07 -838611)
(-1.32954e-13 -8.24736e+06 -259873)
(1.462e-13 -1.28265e+07 -979110)
(-4.29202e-14 -1.2706e+07 -568792)
(-2.43174e-13 -7.9641e+06 -7454.88)
(9.11514e-13 -1.24099e+07 -841128)
(-1.13953e-08 -1.20836e+07 -451412)
(7.58898e-14 -7.51866e+06 222960)
(-1.69041e-12 -1.47591e+07 -591849)
(-2.0305e-13 -7.36879e+06 -116987)
(-2.62819e-13 -1.15469e+07 -739591)
(8.35982e-13 -1.13776e+07 -342709)
(5.43758e-14 -7.08599e+06 103799)
(4.98012e-14 -1.40371e+07 -459563)
(-4.23231e-14 -7.01962e+06 -216857)
(6.55136e-09 -1.11096e+07 -476676)
(-1.33934e-08 -1.12002e+07 40799.6)
(-2.71637e-15 -7.01514e+06 -2582.66)
(-6.78113e-09 -1.12168e+07 18995.3)
(1.54335e-14 -1.13565e+07 703229)
(2.5778e-14 -7.14147e+06 217277)
(-6.88308e-09 -1.45252e+07 994704)
(3.84604e-14 -1.17646e+07 -442617)
(-3.76797e-14 -5.19117e+06 46117.9)
(-3.99892e-15 21256.4 9113.95)
(-4.11088e-15 27193 3195.19)
(-4.16269e-15 25617.8 1734.74)
(-4.2246e-15 26038.9 1397.37)
(-4.2788e-15 26828.1 1225.22)
(-4.32805e-15 28075.7 1132.4)
(-4.37082e-15 29340.8 1072.8)
(-4.40622e-15 30817.7 1041.18)
(-4.43313e-15 32264.8 1022.49)
(-4.45032e-15 33893 1019.76)
(-4.45642e-15 35510.5 1024.56)
(-4.4499e-15 37283.5 1040.14)
(-4.42912e-15 39054.5 1059.98)
(-4.3923e-15 40990.2 1088.66)
(-4.33764e-15 42939.7 1121.26)
(-4.2634e-15 45033.4 1161.12)
(-4.16805e-15 47141.1 1202.56)
(-4.05042e-15 49432.2 1250.6)
(-3.90991e-15 51881.3 1301.88)
(-3.74663e-15 54823.9 1362.75)
(-3.56262e-15 58478 1433.5)
(-3.36438e-15 63186 1526.18)
(-3.16438e-15 68561.9 1639.79)
(-2.97477e-15 73507.6 1782.25)
(-2.79961e-15 73759.8 1798.55)
(-2.63805e-15 79461.7 1911.03)
(-2.48882e-15 86930.5 2060.83)
(-2.35661e-15 94583.3 2234.22)
(-2.24265e-15 99462.8 2387.14)
(-2.14091e-15 99339.2 2399.57)
(-2.04526e-15 109468 2592.41)
(-1.95297e-15 122143 2818.19)
(-1.86629e-15 134796 3000.94)
(-1.78706e-15 152756 3423.41)
(-1.71726e-15 147388 3337.03)
(-1.65396e-15 164592 3621.17)
(-1.5913e-15 183731 3885.63)
(-1.52884e-15 204356 4076.92)
(-1.46816e-15 237666 4704.57)
(-1.41504e-15 218674 4167.19)
(-1.37029e-15 267876 4549.58)
(-1.32303e-15 302404 4479.59)
(-1.27645e-15 335783 3980.1)
(-1.23501e-15 384545 3057.89)
(-1.2016e-15 402382 666.261)
(-1.1717e-15 456562 -4383.84)
(-1.13787e-15 455046 -14644.8)
(-1.10536e-15 475022 -45388.2)
(-1.07942e-15 309375 -77208.3)
(-1.11138e-15 2.87479e+07 -3.37354e+06)
(-1.10931e-15 4.96603e+06 322399)
(-1.07979e-15 1.46434e+06 49573.7)
(-9.91745e-16 594021 -2832.84)
(-8.44191e-16 3.24887e+06 153692)
(-8.74012e-16 3.21532e+06 120332)
(-8.80481e-16 3.17253e+06 55925.6)
(-8.29622e-16 3.61614e+06 67581.3)
(-7.40438e-16 4.78062e+06 50272.4)
(-6.75841e-16 3.65273e+06 -6767.12)
(-6.34459e-16 6.24451e+06 41404.6)
(-6.06942e-16 4.73263e+06 83901.1)
(-5.69871e-16 2.91258e+06 58553.9)
(-5.28611e-16 3.98947e+06 63376.2)
(-4.60546e-16 1.57697e+06 -20772.4)
(-3.43544e-16 1.13023e+06 -58822.3)
(-2.06552e-16 1.84999e+06 -106958)
(-1.00149e-16 1.86761e+06 -87888.5)
(-2.46355e-17 1.37744e+06 -115526)
(3.42215e-17 348998 -165531)
(1.03142e-16 -1.75727e+06 -191004)
(1.40884e-16 -7.10001e+06 -289443)
(1.24307e-16 -3.82322e+07 -2.05249e+07)
(-2.24537e-16 -5.85535e+06 -810501)
(-2.16985e-16 -4.82636e+06 -356244)
(-1.62029e-16 -4.82509e+06 -264247)
(-8.86429e-17 -4.78417e+06 -200208)
(-8.54176e-17 -5.46694e+06 -148973)
(-8.55853e-17 -5.45524e+06 -74788.4)
(1.58007e-15 -5.22455e+06 79860.7)
(-4.00375e-15 62585 150468)
(-4.11e-15 82124.8 73573.5)
(-4.16259e-15 70064.6 40389.1)
(-4.22455e-15 69943.4 32615.6)
(-4.27893e-15 71693 28606.9)
(-4.32829e-15 74730.8 26430.9)
(-4.37118e-15 77956.7 25035)
(-4.40668e-15 81714 24288.5)
(-4.43372e-15 85455.6 23851)
(-4.45103e-15 89645 23783.8)
(-4.45726e-15 93837.3 23896.5)
(-4.45087e-15 98416.8 24258.7)
(-4.43023e-15 103010 24726.2)
(-4.39352e-15 108023 25398.6)
(-4.33894e-15 113079 26165.8)
(-4.26469e-15 118506 27100.3)
(-4.16921e-15 123971 28078.2)
(-4.05126e-15 129921 29208.6)
(-3.91019e-15 136272 30418.5)
(-3.7461e-15 143915 31847.8)
(-3.56104e-15 153388 33511)
(-3.36169e-15 165628 35679.7)
(-3.16081e-15 179591 38338.8)
(-2.97079e-15 192494 41664.1)
(-2.79575e-15 193232 42151.9)
(-2.63434e-15 207961 44770.6)
(-2.48521e-15 227343 48253.2)
(-2.35322e-15 247297 52315.7)
(-2.23971e-15 260053 55940.7)
(-2.13842e-15 259860 56334.3)
(-2.04302e-15 286014 60825.5)
(-1.95083e-15 319024 66089)
(-1.8642e-15 351947 70433.1)
(-1.785e-15 398650 80215.1)
(-1.71536e-15 385167 78444.1)
(-1.65228e-15 429670 85074)
(-1.5897e-15 479488 91214.6)
(-1.52719e-15 533367 95791)
(-1.46639e-15 619974 110250)
(-1.41347e-15 571854 98136.2)
(-1.36879e-15 699262 106885)
(-1.32154e-15 790271 104998)
(-1.27476e-15 878413 93326.7)
(-1.23315e-15 1.00749e+06 71409.3)
(-1.19996e-15 1.05801e+06 15461.7)
(-1.17006e-15 1.20722e+06 -102774)
(-1.13603e-15 1.22536e+06 -341159)
(-1.103e-15 1.36423e+06 -952440)
(-1.08094e-15 2.35585e+06 -1.51915e+06)
(-1.13059e-15 2.60563e+07 -1.63552e+06)
(-1.12957e-15 5.8156e+06 1.11177e+06)
(-1.10803e-15 1.59412e+06 175663)
(-1.02066e-15 616606 -4523.89)
(-8.64352e-16 2.63153e+06 272848)
(-8.83099e-16 3.33208e+06 352980)
(-8.90276e-16 3.14832e+06 166501)
(-8.34949e-16 3.60647e+06 193783)
(-7.41008e-16 4.83559e+06 144147)
(-6.79493e-16 3.70244e+06 -12091)
(-6.39378e-16 6.042e+06 119717)
(-6.07416e-16 4.73888e+06 241195)
(-5.66659e-16 2.88788e+06 168072)
(-5.20553e-16 3.99554e+06 179006)
(-4.53603e-16 1.6105e+06 -66504.8)
(-3.58489e-16 1.08232e+06 -153076)
(-1.94158e-16 1.70479e+06 -277550)
(-7.19247e-17 1.76839e+06 -249763)
(1.53514e-17 1.32304e+06 -329907)
(8.29914e-17 347008 -473153)
(1.58243e-16 -1.69978e+06 -557998)
(1.93533e-16 -7.02016e+06 -828787)
(1.91896e-16 -3.26362e+07 -1.89404e+07)
(-1.68946e-16 -2.25809e+07 -1.57593e+07)
(-2.13638e-16 -1.31769e+07 -7.25076e+06)
(-1.67497e-16 -1.29254e+07 -5.76356e+06)
(-9.24653e-17 -1.27972e+07 -4.42913e+06)
(-8.48879e-17 -1.46426e+07 -3.35862e+06)
(8.31043e-17 -1.45928e+07 -1.70324e+06)
(-6.28986e-16 -1.41492e+07 323645)
(-4.06197e-15 32556.5 70970.8)
(-4.13654e-15 70526.9 77335.2)
(-4.19109e-15 51869.3 42524.5)
(-4.25277e-15 49813.9 35080.5)
(-4.30736e-15 50344.3 30939.1)
(-4.35675e-15 52081.2 28652.2)
(-4.3997e-15 54081.6 27177.8)
(-4.43528e-15 56490.9 26386.4)
(-4.46247e-15 58925.5 25924.7)
(-4.48e-15 61670 25857)
(-4.4866e-15 64428.8 25983.8)
(-4.48071e-15 67445.8 26376.7)
(-4.46073e-15 70478.9 26884.3)
(-4.42484e-15 73787.9 27611.4)
(-4.37124e-15 77128.8 28442.1)
(-4.29802e-15 80711.8 29451.7)
(-4.20356e-15 84323.1 30509.4)
(-4.08644e-15 88250.1 31730.2)
(-3.94584e-15 92443.7 33036.4)
(-3.78164e-15 97484.8 34574.4)
(-3.59567e-15 103744 36361.9)
(-3.39436e-15 111848 38693.2)
(-3.19053e-15 121135 41561.4)
(-2.99704e-15 129763 45159.7)
(-2.81893e-15 130483 45762.6)
(-2.65498e-15 139946 48504.6)
(-2.50336e-15 152795 52253.5)
(-2.36896e-15 166144 56652.8)
(-2.2534e-15 174812 60602.1)
(-2.1505e-15 174747 61056.9)
(-2.05375e-15 191724 65809)
(-1.96022e-15 213765 71496.1)
(-1.87254e-15 235885 76210.5)
(-1.79285e-15 266797 86675.3)
(-1.7226e-15 258851 84992.9)
(-1.65869e-15 287706 91942.2)
(-1.5952e-15 321124 98579.2)
(-1.53207e-15 357488 103569)
(-1.47132e-15 415040 119030)
(-1.41856e-15 385713 106440)
(-1.37333e-15 469268 115411)
(-1.32562e-15 532508 113620)
(-1.27857e-15 594490 101255)
(-1.23708e-15 684905 78007.4)
(-1.2041e-15 729838 18902.1)
(-1.17386e-15 850119 -105565)
(-1.13962e-15 913769 -354872)
(-1.10667e-15 1.17911e+06 -953008)
(-1.08871e-15 2.3895e+06 -1.46817e+06)
(-1.13731e-15 2.62513e+07 383001)
(-1.13899e-15 6.52898e+06 1.7951e+06)
(-1.12078e-15 1.83669e+06 342543)
(-1.0317e-15 685877 15308.7)
(-8.91058e-16 2.55079e+06 328837)
(-8.89116e-16 3.46312e+06 549253)
(-8.94634e-16 3.12832e+06 282450)
(-8.3335e-16 3.60963e+06 313292)
(-7.34824e-16 4.83901e+06 227447)
(-6.72811e-16 3.74077e+06 -919.971)
(-6.39427e-16 5.98709e+06 195271)
(-6.06172e-16 4.78742e+06 388959)
(-5.60635e-16 2.87962e+06 268663)
(-5.07912e-16 4.03781e+06 276206)
(-4.37159e-16 1.69582e+06 -107390)
(-3.40414e-16 1.12333e+06 -227168)
(-1.80379e-16 1.73875e+06 -437408)
(-4.3108e-17 1.83114e+06 -427942)
(5.81661e-17 1.37906e+06 -556817)
(1.36428e-16 389880 -793204)
(2.20647e-16 -1.68344e+06 -944080)
(2.52095e-16 -6.70737e+06 -1.36859e+06)
(2.45577e-16 -2.51874e+07 -1.29171e+07)
(-5.87307e-17 -1.80416e+07 -1.44611e+07)
(-1.89425e-16 -9.52062e+06 -7.01518e+06)
(-1.71998e-16 -9.07435e+06 -5.90558e+06)
(-9.79698e-17 -8.96528e+06 -4.58676e+06)
(-8.44942e-17 -1.04253e+07 -3.56877e+06)
(1.81529e-16 -1.03831e+07 -1.84525e+06)
(-2.64511e-15 -1.02088e+07 -547293)
(-4.13489e-15 30716.3 51644.3)
(-4.15823e-15 74691.9 77406.6)
(-4.21242e-15 53496.6 43249.9)
(-4.27348e-15 50077.3 36491.1)
(-4.32833e-15 50053.8 32422.3)
(-4.37772e-15 51469.7 30119.6)
(-4.42069e-15 53265.6 28628.1)
(-4.45628e-15 55501.7 27826.9)
(-4.48353e-15 57802.2 27369)
(-4.50118e-15 60407.5 27314.2)
(-4.50799e-15 63044.6 27465.3)
(-4.50243e-15 65928.7 27891.2)
(-4.48292e-15 68842.6 28442)
(-4.44765e-15 72015.8 29219.7)
(-4.39485e-15 75230.2 30110.2)
(-4.3226e-15 78671.5 31186.6)
(-4.22925e-15 82152.7 32319.4)
(-4.11335e-15 85928.4 33620.5)
(-3.974e-15 89967.7 35013.8)
(-3.81093e-15 94805.8 36644.4)
(-3.62569e-15 100818 38538.1)
(-3.42428e-15 108598 41002.3)
(-3.21906e-15 117553 44047.9)
(-3.02299e-15 125918 47874.6)
(-2.84222e-15 126914 48644.9)
(-2.67614e-15 135765 51449.5)
(-2.52237e-15 148115 55421.9)
(-2.38555e-15 161069 60124.6)
(-2.26763e-15 169658 64386.1)
(-2.16297e-15 169762 64933.8)
(-2.06507e-15 185781 69860.7)
(-1.9705e-15 207119 75931.9)
(-1.88199e-15 228711 81017.5)
(-1.80164e-15 258394 92020.6)
(-1.7305e-15 251821 90588.2)
(-1.66574e-15 279041 97711.1)
(-1.60159e-15 311572 104819)
(-1.53818e-15 347223 110261)
(-1.47746e-15 402728 126544)
(-1.42423e-15 377114 113893)
(-1.37856e-15 456761 122870)
(-1.33057e-15 520291 121433)
(-1.28357e-15 583368 108805)
(-1.24217e-15 674883 84937.6)
(-1.20879e-15 728065 24182.2)
(-1.17823e-15 863041 -101914)
(-1.14392e-15 970582 -351754)
(-1.11151e-15 1.35989e+06 -912256)
(-1.09665e-15 2.91698e+06 -1.40759e+06)
(-1.14474e-15 2.24647e+07 1.77773e+06)
(-1.14817e-15 7.04213e+06 2.13103e+06)
(-1.12584e-15 1.97136e+06 465106)
(-1.04478e-15 738514 48992.2)
(-9.10208e-16 2.39569e+06 362670)
(-8.94506e-16 3.57642e+06 716113)
(-8.98839e-16 3.10521e+06 402540)
(-8.3242e-16 3.61731e+06 430952)
(-7.29238e-16 4.88981e+06 307076)
(-6.69068e-16 3.78018e+06 18450)
(-6.37923e-16 5.85106e+06 259832)
(-6.02598e-16 4.81394e+06 526764)
(-5.53412e-16 2.86205e+06 355279)
(-4.9616e-16 4.10529e+06 356307)
(-4.21229e-16 1.77195e+06 -138882)
(-3.17394e-16 1.1577e+06 -282137)
(-1.61755e-16 1.72563e+06 -564541)
(-1.08554e-17 1.85176e+06 -594928)
(1.05524e-16 1.40843e+06 -763583)
(1.95881e-16 433515 -1.06935e+06)
(2.89331e-16 -1.60592e+06 -1.31077e+06)
(3.27466e-16 -6.54661e+06 -2.02915e+06)
(3.15498e-16 -2.36906e+07 -1.16549e+07)
(4.7419e-17 -2.05217e+07 -1.49992e+07)
(-1.49016e-16 -1.01107e+07 -7.10795e+06)
(-1.70558e-16 -9.3722e+06 -6.16568e+06)
(-1.03158e-16 -9.20325e+06 -4.79687e+06)
(-8.44402e-17 -1.07818e+07 -3.79557e+06)
(4.05539e-16 -1.06855e+07 -1.98666e+06)
(-3.34019e-15 -1.04433e+07 -243416)
(-4.22343e-15 27412.6 44089.1)
(-4.19238e-15 78651.3 78522.6)
(-4.24103e-15 55992 44805.6)
(-4.30092e-15 51420.1 38614.9)
(-4.35611e-15 50867.9 34571.7)
(-4.40554e-15 52002.6 32221.4)
(-4.44858e-15 53623.8 30679.9)
(-4.48423e-15 55731.4 29849)
(-4.51161e-15 57930.5 29374.2)
(-4.52945e-15 60444.8 29323)
(-4.53659e-15 62998.5 29488.9)
(-4.53148e-15 65797.7 29945.1)
(-4.51262e-15 68628.9 30533.8)
(-4.47817e-15 71714.8 31363.9)
(-4.42639e-15 74842.2 32314.1)
(-4.35535e-15 78189.4 33462)
(-4.26336e-15 81576.4 34670.3)
(-4.14886e-15 85249.3 36057.5)
(-4.01087e-15 89177.6 37540.6)
(-3.84893e-15 93874.2 39270.7)
(-3.66433e-15 99707.5 41273.6)
(-3.46255e-15 107266 43882.8)
(-3.25547e-15 115996 47122.2)
(-3.05612e-15 124184 51193.7)
(-2.87195e-15 125449 52161.4)
(-2.703e-15 133792 55015)
(-2.54637e-15 145759 59212)
(-2.40641e-15 158457 64248.5)
(-2.28558e-15 167025 68846.4)
(-2.17883e-15 167280 69495.7)
(-2.07951e-15 182475 74566.1)
(-1.98368e-15 203325 81047.4)
(-1.89399e-15 224611 86549.6)
(-1.81248e-15 253313 98079.4)
(-1.74016e-15 248014 96971.4)
(-1.67451e-15 273842 104215)
(-1.60969e-15 305741 111796)
(-1.54589e-15 341041 117765)
(-1.48489e-15 394891 134829)
(-1.43108e-15 372819 122303)
(-1.38497e-15 449240 131177)
(-1.33675e-15 513636 130221)
(-1.28969e-15 578492 117547)
(-1.24818e-15 672021 93428.4)
(-1.21447e-15 734417 31693.5)
(-1.18361e-15 884584 -93744.5)
(-1.14919e-15 1.03493e+06 -338519)
(-1.11702e-15 1.53375e+06 -853933)
(-1.10558e-15 3.35174e+06 -1.33325e+06)
(-1.15269e-15 2.06835e+07 2.81172e+06)
(-1.15748e-15 7.91235e+06 2.44227e+06)
(-1.13516e-15 2.25758e+06 603473)
(-1.05936e-15 795538 90640.6)
(-9.28335e-16 2.22745e+06 381496)
(-8.99541e-16 3.67417e+06 854912)
(-9.02703e-16 3.08654e+06 523856)
(-8.30048e-16 3.63204e+06 546913)
(-7.22896e-16 4.95797e+06 386032)
(-6.65383e-16 3.82838e+06 45425.1)
(-6.35879e-16 5.72533e+06 315373)
(-5.98186e-16 4.83906e+06 652877)
(-5.45128e-16 2.86254e+06 429050)
(-4.84111e-16 4.19255e+06 423789)
(-4.04367e-16 1.86247e+06 -155218)
(-2.89662e-16 1.20615e+06 -325489)
(-1.37901e-16 1.71584e+06 -659021)
(2.50833e-17 1.88967e+06 -757128)
(1.57468e-16 1.45842e+06 -961301)
(2.61669e-16 495479 -1.32572e+06)
(3.65882e-16 -1.51448e+06 -1.66343e+06)
(4.13069e-16 -6.23761e+06 -2.61961e+06)
(3.94988e-16 -2.09118e+07 -1.06606e+07)
(1.5624e-16 -2.21483e+07 -1.58373e+07)
(-9.35143e-17 -1.05755e+07 -7.24678e+06)
(-1.61222e-16 -9.60928e+06 -6.39903e+06)