/*--------------------------------*- C++ -*----------------------------------*\
| =========                 |                                                 |
| \\      /  F ield         | OpenFOAM: The Open Source CFD Toolbox           |
|  \\    /   O peration     | Version:  4.1                                   |
|   \\  /    A nd           | Web:      www.OpenFOAM.org                      |
|    \\/     M anipulation  |                                                 |
\*---------------------------------------------------------------------------*/
FoamFile
{
    version     2.0;
    format      ascii;
    class       surfaceScalarField;
    location    "30";
    object      phi;
}
// * * * * * * * * * * * * * * * * * * * * * * * * * * * * * * * * * * * * * //

dimensions      [0 3 -1 0 0 0 0];

internalField   nonuniform List<scalar> 
13220
(
-949.876
2249.78
-1573.95
1924.28
-2054
1779.95
-2424.23
1670.13
-2699.85
1575.82
-2888.37
1488.42
-2993.04
1404.58
-3013.84
1321
-2949.6
1235.66
-2797.22
1147.52
-2551.15
1054.13
-2192.98
941.734
-1687.15
794.065
-1012.66
625.709
287.245
373.354
1876.43
442.764
1854.87
437.334
1785.39
406.727
1700.74
380.626
1601.94
359.94
1509.1
345.346
1419.19
337.58
1328.76
333.534
1239.71
326.995
1154.05
309.65
1071.48
267.494
983.883
191.441
870.113
111.448
705.698
398.693
33.6057
1842.84
-97.3638
1985.84
-253.569
1941.61
-371.072
1818.24
-473.116
1704
-567.461
1603.44
-651.669
1503.4
-725.715
1402.81
-787.988
1301.99
-837.221
1203.29
-868.146
1102.41
-856.014
971.764
-740.286
754.396
-434.271
399.695
-35.5784
28.8537
1814.01
-100.577
2115.27
-225.447
2066.51
-304.382
1897.17
-368.007
1767.66
-416.809
1652.24
-446.05
1532.68
-456.848
1413.59
-451.666
1296.83
-429.979
1181.59
-387.047
1059.49
-311.731
896.431
-192.779
635.429
-48.3864
255.286
-83.9649
169.85
1644.19
146.41
2138.7
124.037
2088.93
123.176
1898.02
127.321
1763.56
136.186
1643.35
149.536
1519.37
167.012
1396.1
187.386
1276.48
208.553
1160.41
229.517
1038.51
244.175
881.779
233.263
646.321
155.363
333.167
71.397
223.751
1420.48
245.035
2117.41
235.669
2098.38
236.911
1896.76
241.372
1759.19
245.29
1639.4
247.613
1517.12
246.263
1397.4
242.198
1280.58
234.955
1167.61
222.322
1051.16
199.901
904.118
156.646
689.491
78.5039
411.228
149.901
205.116
1215.45
240.929
2081.59
216.212
2123.17
193.845
1919.1
179.729
1773.37
166.288
1652.82
152.567
1530.88
138.348
1411.59
123.438
1295.49
109.156
1181.88
94.8404
1065.43
77.5306
921.476
53.2992
713.753
19.6359
444.917
169.536
175.946
1039.64
228.38
2029.13
206.044
2145.69
176.511
1948.6
158.192
1791.83
143.684
1667.25
128.753
1545.89
114.282
1425.97
101.091
1308.72
88.2468
1194.64
76.263
1077.43
62.6205
934.956
43.0973
733.098
17.0214
470.831
186.557
154.363
885.463
224.242
1959.27
211.718
2158.36
183.657
1976.65
165.676
1809.97
152.545
1680.37
139.796
1558.74
126.03
1439.72
112.855
1321.94
100.121
1207.37
86.6117
1090.92
71.2449
950.394
50.2182
754.167
22.1643
498.921
208.72
132.836
753.001
213.549
1878.61
210.688
2161.63
182.441
2004.9
163.724
1829.05
149.225
1694.8
135.692
1572.57
121.803
1453.49
107.629
1336.28
93.6763
1221.2
80.0951
1104.59
64.0179
966.246
43.4133
774.573
18.1216
524.027
226.84
112.073
641.592
198.883
1791.79
206.763
2154.25
180.596
2030.97
161.89
1848.18
148.979
1707.55
135.834
1585.93
121.985
1467.17
108.243
1350.03
93.5387
1235.75
78.7625
1119.16
62.8759
982.104
42.4174
794.857
18.1712
548.108
245.006
103.562
539.097
193.538
1701.64
211.072
2137.74
184.156
2057.57
158.341
1874.77
139.675
1725.72
125.379
1600.65
110.317
1481.64
97.0718
1363.41
84.2043
1248.14
71.5004
1131.9
56.4902
996.405
36.5633
814.197
12.894
571.251
257.921
101.537
438.021
248.403
1553.92
297.92
2088.6
288.696
2066
281.819
1881.64
279.584
1727.17
273.253
1606.76
260.013
1494.32
240.352
1382.5
217.411
1271.1
189.064
1158.8
157.949
1030.24
116.698
857.63
62.1365
627.712
319.969
146.746
290.553
282.771
1414.57
336.127
2035.16
281.619
2117.69
201.78
1960.89
139.595
1786.3
107.508
1637.6
91.3123
1507.23
87.4111
1384.6
86.2757
1268.61
88.0293
1155.33
79.4362
1031.57
52.5814
874.892
18.4662
652.748
338.279
-203.55
271.309
903.112
1382.52
1616.82
1712.39
1676.94
1591.66
1442
1272.53
1076.86
857.999
615.947
320.698
2.01821
908.841
-903.789
912.791
916.82
918.406
1748.19
-828.889
1749.93
1750.37
1751.95
2413.49
-660.585
2415.66
2415.91
2921.24
-503.809
2921.51
2923.32
2923.08
3264.32
-339.841
3264.6
3266.15
3468.02
-201.929
3469.86
3470.28
3471.78
3515.94
-44.0542
3517.76
3517.98
3519.56
3449.11
71.4051
3451.29
3451.7
3297.9
155.479
3298.55
3300.6
3300.63
3068.75
233.587
3069.44
3071.19
2786.62
284.62
2788.79
2789.1
2790.84
2460.76
329.799
2462.89
2463.03
2464.87
2122.85
342.873
2125.09
2125.63
1850.92
276.298
1851.69
1853.47
1853.65
1524.67
330.297
1525.37
1526.7
1527.04
1080.58
447.463
1081.58
1082.5
523.004
560.292
524.815
525.964
526.787
-69.1619
597.683
-65.4124
-63.9187
-1114.44
1050.65
-1113.81
-1114.17
-1113.85
-2734.86
1620.55
-2735.13
-2735.69
-2736.62
-4743.16
2006.8
-4745.17
-4743.75
-7013.04
2267.94
-7011.24
-7012.63
-6894.9
-6770.37
-6634.56
-8950.91
2445.79
-8826.99
-8674.15
-8494.84
-8313.07
-8130.31
-7953.14
-7769.3
-7564.08
-9929
2569.28
-9711.9
-9499.31
-9288.87
-9056.5
-8821.41
-8584.71
-8347.68
-8112.09
-10457.1
2584.95
-10202.4
-9946.76
-9691.26
-9436.78
-9177.28
-8906.04
-8632.68
-8357.11
-8084.14
-10295.3
2473.05
-10009.8
-9721.8
-9433.56
-9146.08
-8861.28
-8561.73
-8253.97
-7948.82
-9824.69
2166.31
-9529.38
-9228.46
-8914.29
-8600.59
-8285.61
-7972.34
-7659.17
-7331.89
-8690.31
1674.02
-8373.55
-8058.13
-7745.28
-7419.5
-7089.82
-6760.74
-6434.88
-6118.97
-6748.81
942.065
-6435.27
-6125.93
-5819.42
-5517.2
-5219.68
-4943.71
-4670.65
-4408.91
-4157.47
-3799.39
-103.127
-3591.71
-3409.68
-3234.28
-3062.01
-2888.93
-2742.09
-2658.08
-2577.12
-1900.17
-577.379
-1818.59
-1731.13
-1730.2
-1284.78
-440.567
-875.824
-408.885
-871.722
-504.547
-367.745
-500.189
-174.753
-326.476
121.414
-290.059
118.31
392.896
-270.6
656.847
-267.124
658.321
889.643
-234.115
890.898
1088.87
-200.574
1263.36
-173.35
1261.7
1415.72
-153.173
1414.01
1545.62
-131.286
1652.28
-108.398
1652.68
1751.15
-99.9457
1833.95
-81.9961
1832.74
1911.56
-78.112
1910.46
1981.43
-70.8089
2034.67
-54.4835
2034.57
2092.78
-59.2621
2092.55
2146.77
-55.2609
2186.48
-39.7672
2185.72
2235.92
-50.6368
2271.83
-36.5788
2271.12
2314.35
-43.6722
2313.65
2358.41
-45.2814
2386.34
-28.5914
2386.09
2426.28
-40.7436
2426.11
2466.42
-40.8654
2489.19
-22.8295
2488.64
2527.27
-38.7671
2548.18
-21.5805
2548.08
2578.48
-30.9737
2578.43
2612.6
-34.6965
2627.41
-14.7641
2627.07
2655.7
-28.5634
2655.4
2685.61
-30.2348
2694.83
-9.59544
2694.86
2721.83
-27.3474
2729.85
-7.98347
2729.63
2748.24
-18.5512
2747.97
2771.91
-23.8664
2774.97
-3.39776
2775.02
2794.23
-19.479
2794.32
2817.68
-23.4467
2822.28
-4.43137
2822.08
2847.33
-25.1087
2856.04
-9.22647
2856.05
2880.07
-24.1725
2880.02
-35.2626
-56.5374
428.026
-48.9864
327.146
-41.8861
350.818
-33.878
429.558
-23.8108
546.999
-6.09762
688.952
10.8194
688.02
25.1514
632.928
37.8727
578.129
38.2325
368.484
18.655
210.896
35.3089
281.797
12.7124
-205.08
12.7867
-341.292
38.0387
794.498
19.7012
699.817
-5.57478
316.436
-26.8787
242.705
-10.1501
441.279
-8.32964
-192.209
5.36698
-355.75
31.1831
378.71
29.5534
459.862
19.9125
278.486
5.69948
94.5615
6.48538
355.129
20.3236
361.417
24.9004
118.826
18.5131
-44.9587
1.84458
-352.923
-2.77979
-518.954
16.8058
1072.85
28.9856
3883.47
29.2837
3965.19
31.1454
3527.22
29.1494
2816.48
13.5624
1971.69
-123.283
-319.142
-127.111
231.079
-132.822
437.734
-122.554
578.363
-92.5071
641.662
-52.3009
640.066
-41.7484
639.768
-26.3658
599.067
66.9655
231.158
145.65
-426.017
175.211
-757.561
117.436
-942.576
79.152
-716.867
111.455
-173.763
178.204
-408.661
221.893
-1096.6
150.012
-1924.69
-7.54653
-2431.47
-10.7353
3527.26
33.3524
3482.67
44.1387
1666.2
35.5827
263.919
-8.48608
-892.693
-55.4344
-986.53
-81.753
-796.952
-95.4998
-622.612
-96.1621
-405.028
-95.5966
-244.417
-92.5438
91.9448
-94.7353
270.578
-94.6507
409.783
-89.9443
512.712
-79.6135
567.11
-63.9245
568.281
-45.462
521
-33.8784
427.875
-42.5368
335.346
-46.9068
424.053
-7.20943
289.406
33.1394
-10.3359
32.881
-891.184
-2059.18
-52.0929
420.547
-45.3215
319.853
-38.8899
343.581
-31.5077
421.27
-21.9067
536.477
-5.1808
671.27
11.2415
670.387
25.5201
617.236
37.1384
564.777
32.7445
370.188
14.9785
223.951
35.632
256.215
14.9508
-185.697
9.60646
-336.942
38.9069
764.551
21.7219
716.293
-4.71127
340.736
-31.6219
267.342
-5.7642
411.25
-8.25683
-190.603
-1.23667
-364.029
27.9065
347.339
27.6941
458.56
14.1802
290.173
3.1658
107.286
13.5273
345.937
22.7205
353.518
22.6703
124.347
17.9358
-36.89
1.01609
-333.856
-4.6687
-512.482
14.8115
1053.92
28.5746
3869.61
28.5134
3965.25
29.9462
3525.25
27.4161
2818.26
29.8213
1969.89
-122.931
-158.283
-129.314
243.149
-129.665
443.495
-109.079
565.704
-74.9054
614.479
-51.0225
620.541
-46.2464
639.859
-20.3841
576.094
81.7527
130.452
154.852
-497.718
185.143
-786.385
117.332
-872.583
95.5503
-682.152
147.963
-213.486
198.382
-456.18
226.6
-1125.07
147.902
-1846.27
-26.9273
-2253.78
31.139
3472.07
47.3499
3465.83
40.9981
1671.91
37.8751
271.075
-7.37657
-846.18
-51.1371
-941.571
-78.4196
-768.451
-95.01
-604.29
-101.595
-396.391
-106.521
-235.775
-101.916
90.1649
-101.593
272.146
-99.9425
409.732
-93.6407
508.127
-81.8574
557.134
-65.1923
553.88
-46.2051
504.726
-32.531
416.615
-32.9822
337.96
-28.2234
420.5
-1.95244
262.946
59.8948
-61.1622
29.8583
-860.186
-2053.07
-50.8728
412.27
-43.5467
312.427
-37.4613
337.331
-30.5937
414.239
-21.5192
527.255
-5.262
654.882
10.9692
653.944
25.2609
602.759
37.0312
552.75
33.6428
373.368
20.7346
237.161
35.1924
246.629
16.4824
-165.593
7.91074
-328.001
40.9843
731.785
25.7339
731.662
-4.62425
370.921
-26.7143
289.283
-2.32393
389.772
-7.43414
-184.607
-5.47101
-364.515
28.0052
313.496
30.4618
455.634
15.1397
304.624
2.1655
121.303
13.8326
334.916
22.8982
344.73
21.6728
124.995
17.7204
-36.0097
0.908311
-318.937
-6.11488
-505.864
14.2327
1033.72
28.8578
3854.78
28.5899
3965.52
29.2042
3523.99
26.174
2819.97
19.6647
1976.75
-106.315
-37.5628
-121.056
256.952
-121.394
443.335
-100.308
547.012
-72.1699
588.644
-60.058
608.9
-51.7321
632.414
-9.9711
533.632
92.6161
24.6054
160.806
-567.856
188.55
-815.819
151.333
-837.196
130.162
-661.834
167.981
-251.058
215.513
-506.709
230.748
-1140.86
148.62
-1764.69
-17.6349
-2089.53
42.6814
3413.19
56.6215
3449.72
44.2654
1682.45
34.6136
281.533
-7.24951
-804.394
-48.8906
-901.488
-75.7043
-743.341
-92.8752
-589.213
-101.961
-389.749
-108.018
-233.969
-105.625
87.2901
-104.37
270.803
-101.395
406.737
-93.8041
500.617
-80.9351
544.28
-63.5499
536.691
-44.1114
485.577
-29.0366
401.065
-26.1817
334.578
-20.3796
413.997
0.0948432
240.698
43.0442
-103.674
35.2714
-852.589
-2027.49
-49.9142
403.375
-42.2302
304.19
-36.4346
330.668
-30.0174
406.835
-21.3097
517.534
-5.45928
637.984
10.5577
636.625
24.7357
587.085
36.75
538.966
35.2486
372.338
26.1825
242.163
35.4929
233.022
17.7476
-149.054
7.04507
-318.33
42.2586
695.654
30.0407
743.049
-1.80076
400.687
-20.0515
305.339
0.558709
365.258
-6.86586
-178.06
-8.6639
-363.724
27.6248
275.026
33.4391
448.464
17.5586
318.828
2.42787
137.265
14.3304
323.818
23.1362
336.888
21.3705
131.015
17.8858
-28.9731
0.81526
-299.639
-7.48985
-496.798
14.0334
1012.93
28.9733
3839.87
28.7124
3966.11
28.7068
3524
24.7627
2823.73
11.8254
1990.71
-96.1464
75.8375
-114.248
280.808
-114.765
448.938
-94.1962
533.789
-70.6742
571.447
-63.1567
605.268
-53.1852
627.516
-1.93049
487.444
104.087
-80.9547
169.505
-632.166
194.481
-839.484
175.001
-815.344
150.721
-628.67
184.489
-277.017
232.908
-552.252
238.778
-1147.19
153.545
-1680.06
-7.8045
-1924.92
53.1525
3354.89
63.3532
3439.19
45.5734
1699.86
30.738
300.425
-7.21437
-765.296
-47.009
-860.842
-73.3496
-716.086
-91.0991
-569.973
-101.829
-377.315
-108.156
-224.928
-107.62
89.028
-105.95
270.692
-101.898
403.997
-93.1864
493.329
-79.3817
531.983
-61.3413
520.661
-41.4955
468.328
-25.4998
387.665
-20.8245
332.571
-14.6607
409.585
3.89903
223.354
40.2133
-132.243
33.058
-844.389
-2019.16
-48.995
394.168
-41.1437
296.324
-35.6681
325.149
-29.6534
400.802
-21.1632
509.044
-5.71103
622.563
10.1453
620.752
24.2449
573.055
36.4418
526.842
36.6216
372.546
30.4492
249.689
35.9211
232.355
18.8254
-130.495
6.38593
-305.556
43.3807
659.104
35.0768
751.636
2.47688
433.533
-13.2634
321.347
3.68035
351.013
-6.27864
-167.151
-11.5231
-357.088
26.6534
236.737
36.2552
438.645
20.9824
333.442
3.62698
155.312
15.2354
312.59
23.9907
327.952
21.668
131.049
18.3536
-28.5711
0.799893
-283.86
-8.78288
-487.676
13.8516
990.381
28.9591
3824.57
28.7893
3966.32
28.3049
3523.89
23.4937
2827.22
6.96761
2007.46
-88.4162
166.852
-108.988
299.11
-108.76
446.833
-87.9501
514.152
-67.9354
552.718
-65.0154
602.03
-58.9031
621.666
3.12071
422.853
116.513
-197.022
178.653
-696.178
200.197
-862.689
186.195
-803.353
160.883
-607.334
200.967
-319.348
251.117
-605.143
248.535
-1145.47
160.33
-1592.6
2.00268
-1768.56
64.2989
3293.71
70.4447
3430.55
46.6792
1721.65
27.1359
320.063
-8.30306
-729.893
-45.3645
-825.285
-71.1978
-692.095
-89.312
-554.03
-101.317
-367.758
-108.205
-222.633
-108.863
88.4682
-106.879
268.137
-101.878
398.592
-92.1674
483.325
-77.5499
516.976
-58.9115
501.777
-38.6278
447.839
-21.9186
369.913
-15.9201
325.512
-9.61133
402.223
10.4408
200.831
42.799
-166.466
39.7789
-841.867
-1984.34
-48.1794
384.37
-40.2911
287.898
-35.1423
319.145
-29.4686
394.159
-21.113
499.691
-5.99739
606.423
9.71588
603.775
23.7835
557.556
36.1481
512.823
37.858
368.668
34.0393
250.309
36.4773
225.89
19.753
-114.987
5.7393
-292.664
44.4385
619.334
40.3908
754.866
7.91387
464.182
-6.37737
333.668
6.48732
334.578
-5.55976
-155.975
-14.3002
-349.243
25.1466
195.026
38.8492
423.6
25.1113
345.555
5.8343
174.929
16.5082
302.415
25.2114
319.938
22.2111
137.212
19.0358
-21.4026
0.990957
-263.423
-9.95335
-476.022
13.6615
967.468
28.9031
3809.34
28.8424
3966.75
27.9979
3524.84
22.5422
2832.6
3.24956
2027.9
-82.8452
256.526
-103.73
325.087
-102.372
450.064
-82.1409
500.976
-67.8195
544.369
-70.4845
608.405
-57.1428
613.866
23.0746
347.166
130.8
-304.446
188.379
-752.739
207.05
-880.034
195.292
-788.9
175.467
-581.686
223.37
-361.565
271.795
-650.487
259.83
-1134.12
166.732
-1500.38
11.3064
-1609.59
75.731
3231.57
78.6004
3427.33
48.4745
1751.25
24.5038
346.825
-9.95788
-694.53
-43.9017
-790.766
-69.151
-666.205
-87.3643
-534.499
-100.227
-353.383
-108.204
-212.886
-109.671
91.4435
-107.37
266.925
-101.517
393.653
-90.9066
473.735
-75.5487
502.693
-56.2917
484.09
-35.4995
429.177
-18.2413
354.753
-11.0244
320.489
-4.08147
396.57
18.4388
179.511
46.2271
-190.903
40.6638
-835.58
-1966.82
-47.5098
374.325
-39.6925
280.155
-34.8577
314.395
-29.4575
388.904
-21.1865
491.587
-6.29776
591.747
9.27139
588.399
23.3276
543.836
35.8856
500.664
38.8947
366.547
36.8019
254.354
37.0874
230.221
20.663
-97.0526
5.01671
-276.675
45.408
579.59
45.7988
754.934
14.5811
495.949
0.99293
347.858
9.72944
328.383
-4.65244
-140.575
-17.4245
-335.25
22.9353
154.641
41.0985
405.401
29.7004
356.487
9.1235
196.166
18.2446
293.591
26.8256
310.859
23.0745
137.678
19.9082
-20.8605
1.3139
-246.407
-10.998
-464.275
13.4684
942.998
28.8115
3793.78
28.9059
3966.65
27.8144
3525.25
21.9261
2837.05
1.07188
2048.79
-78.0171
331.935
-97.8266
341.63
-95.5344
444.779
-77.0231
482.736
-68.5978
536.451
-69.5371
608.435
-41.362
585.64
50.2084
251.885
145.347
-401.776
198.328
-807.449
215.311
-898.703
207.005
-782.891
197.448
-577.109
251.038
-418.245
294.147
-696.045
272.865
-1113.97
175.218
-1403.74
21.2031
-1457.24
87.1788
3166.65
87.3947
3424.29
50.9842
1785.49
22.3831
374.978
-12.1602
-660.072
-42.7307
-761.519
-67.3351
-643.449
-85.5393
-518.381
-98.8535
-342.392
-108.013
-208.561
-110.036
91.8419
-107.427
263.442
-100.826
386.413
-89.4103
461.803
-73.3635
486.007
-53.4611
463.66
-32.1151
407.272
-14.4397
335.545
-6.09724
310.584
1.40507
387.679
26.7108
150.971
50.1182
-216.324
38.0304
-824.175
-1948.83
-46.9821
363.793
-39.3319
272.008
-34.7957
309.059
-29.6038
382.816
-21.3714
482.428
-6.6175
576.047
8.82411
571.791
22.8722
528.494
35.6442
486.426
39.7748
360.659
39.1063
252.666
37.8733
227.682
21.6335
-81.9677
4.34528
-260.571
46.2071
536.528
51.1914
749.211
22.2039
523.354
8.79413
359.625
13.5016
321.003
-3.40273
-124.448
-21.2212
-318.298
19.7357
111.079
42.9033
381.036
34.5587
363.249
13.4664
217.288
20.4233
286.805
28.6481
303.013
24.1403
144.26
20.9367
-13.3496
1.83189
-224.787
-11.9094
-449.933
13.2818
918.411
28.6642
3778.34
28.9738
3966.64
27.7551
3526.54
21.6761
2842.98
0.472261
2071.05
-72.6681
407.361
-91.1369
364.206
-88.4217
445.969
-71.3627
472.406
-65.9707
536.741
-60.6705
606.893
-23.3882
553.763
71.0636
159.282
159.286
-489.778
209.081
-856.271
225.774
-914.081
222.926
-777.25
225.759
-575.816
282.025
-470.1
317.618
-728.505
287.513
-1084.72
185.898
-1303.31
32.1019
-1299.88
98.654
3101.82
96.7501
3425.73
54.3723
1827.17
20.8424
410.086
-14.5469
-624.031
-41.7335
-733.963
-65.6664
-619.142
-83.6613
-499.255
-96.7955
-327.88
-107.778
-196.68
-110.093
94.9642
-107.15
261.139
-99.8742
379.685
-87.7288
450.323
-71.0387
470.006
-50.5043
444.295
-28.6369
387.05
-10.5846
318.939
-1.02741
302.481
7.4277
379.674
34.8622
123.726
54.716
-235.693
46.5775
-815.796
-1905.5
-46.6116
353.179
-39.2113
264.758
-34.9521
304.986
-29.902
378.042
-21.659
474.484
-6.97871
561.726
8.37212
556.802
22.422
514.992
35.4115
474.086
40.504
356.801
40.9706
254.447
38.7781
234.556
22.7986
-64.3933
3.77335
-241.16
46.751
494.394
56.4135
740.169
30.5558
549.936
17.183
373.799
18.2604
322.89
-1.71514
-103.433
-26.9631
-292.093
14.7893
69.7626
44.104
351.775
39.4332
367.596
18.7102
238.662
23.2681
282.442
30.8517
294.655
25.5476
145.607
22.1214
-12.4672
2.46654
-206.575
-12.698
-435.477
13.1122
892.501
28.4673
3762.74
29.0596
3965.98
27.8335
3526.98
21.752
2847.51
0.931835
2091.78
-66.6854
471.698
-83.5966
377.102
-80.6257
439.122
-64.5249
455.905
-58.9922
531.211
-49.4012
595.839
-8.53976
511.459
88.3825
59.0973
173.375
-576.644
221.224
-905.711
239.2
-933.791
243.4
-783.997
258.554
-595.942
314.51
-529.376
341.384
-757.67
303.107
-1047.9
197.582
-1199.25
43.4306
-1147.35
110.139
3036.2
106.435
3426.37
58.4832
1872.86
19.9494
447.85
-16.7616
-587.533
-40.9078
-711.01
-64.1045
-597.844
-81.9378
-483.506
-94.4687
-317.661
-107.539
-188.956
-109.804
95.3117
-106.517
256.725
-98.627
370.96
-85.8125
436.808
-68.5237
451.864
-47.4096
422.395
-25.0562
363.779
-6.55968
298.39
4.10754
289.738
13.5694
368.428
42.3837
90.4994
58.8261
-254.091
47.2157
-805.068
-1882.81
-46.3957
342.223
-39.3157
257.208
-35.3112
300.211
-30.3365
372.212
-22.0309
465.282
-7.38285
546.162
7.91389
540.378
21.9904
499.694
35.1805
459.528
41.1155
349.361
42.5537
251.176
39.9237
233.587
24.1716
-49.8258
3.4859
-221.813
46.9599
449.43
61.323
725.076
39.1611
570.629
25.6263
385.867
23.9881
322.41
0.691774
-80.9897
-36.4812
-256.024
7.27309
21.9514
44.6455
313.223
44.1574
366.483
24.7003
257.87
26.7509
280.187
33.3433
288.103
27.3072
152.787
23.4474
-4.19666
3.29331
-183.75
-13.3513
-418.325
12.9609
866.686
28.2161
3747.35
29.1417
3965.28
28.032
3528.11
22.1554
2853.15
1.90273
2112.99
-60.789
535.936
-75.7102
395.365
-72.2232
439.062
-57.3209
447.582
-50.7323
530.308
-38.2429
587.816
4.47535
475.682
105.141
-41.0973
188.177
-659.487
234.89
-951.4
255.411
-952.91
267.69
-793.453
293.848
-618.76
347.327
-579.126
365.248
-772.456
319.172
-1002.89
209.582
-1091.12
54.8641
-989.446
121.406
2970.74
116.536
3430.68
63.4434
1925.24
19.7716
492.353
-18.6403
-548.689
-40.1673
-689.257
-62.5369
-575.316
-80.0678
-465.03
-92.0226
-304.429
-107.2
-173.636
-109.23
97.6392
-105.597
253.346
-97.1366
362.736
-83.7026
423.744
-65.8727
434.405
-44.2725
401.625
-21.5224
342.232
-2.5599
280.228
9.36295
278.511
20.3963
356.913
49.3859
59.7316
62.5048
-268.605
45.4938
-788.347
-1855.9
-46.3581
331.349
-39.6561
250.722
-35.874
296.697
-30.9085
367.632
-22.4827
457.26
-7.82856
531.989
7.44365
525.602
21.5868
486.265
34.9626
446.987
41.6423
344.115
43.8874
251.218
41.2037
240.921
25.7915
-32.7115
3.42245
-199.032
46.7564
407.151
65.7655
706.77
47.765
589.391
34.3555
400.222
31.3951
329.07
4.18371
-52.6494
-46.0618
-204.985
-0.134693
-22.9982
44.68
268.578
48.5436
362.416
31.1291
276.034
30.9507
280.593
36.3434
281.804
29.4826
155.638
24.9083
-2.01034
4.25914
-164.343
-13.862
-401.053
12.8219
839.872
27.9153
3731.99
29.2331
3963.84
28.3564
3528.13
22.8447
2857.06
3.34041
2132.34
-55.088
591.59
-67.9767
403.904
-63.5814
430.133
-49.9181
433.039
-42.1438
522.189
-27.1108
570.533
16.9233
427.635
122.904
-149.849
204.066
-742.28
250.192
-999.006
274.348
-978.919
295.13
-816.996
330.285
-658.585
379.692
-631.762
388.747
-783.463
335.425
-951.36
222.436
-980.233
66.5279
-834.653
132.362
2906.31
126.892
3433.03
69.1503
1980.76
20.3324
540.26
-20.1193
-508.576
-39.5668
-670.782
-61.0295
-555.693
-78.4103
-449.585
-90.4498
-294.547
-106.58
-162.322
-108.341
97.5166
-104.366
248.202
-95.3681
352.871
-81.359
409.009
-63.0468
415.195
-41.0793
378.813
-17.9677
318.105
1.60756
258.379
14.6763
263.251
27.2714
342.445
55.2996
26.593
66.0545
-280.551
51.7302
-774.86
-1812.81
-46.5003
320.263
-40.2199
244.004
-36.624
292.37
-31.6046
361.811
-22.9975
447.8
-8.3084
516.427
6.9613
509.255
21.2092
470.872
34.7498
432.166
42.0773
335.472
45.0016
246.851
42.7359
239.921
27.6439
-18.7413
3.72952
-176.553
46.0597
362.95
69.6259
682.513
55.9855
601.653
42.2488
412.54
40.0311
329.759
9.32415
-22.9733
-33.4044
-163.742
2.20621
-62.1676
44.6326
224.767
52.5544
352.889
37.7582
290.414
35.58
282.247
39.5709
277.546
32.0225
163.475
26.4547
7.63424
5.41831
-140.517
-14.1983
-381.069
12.6929
813.356
27.545
3716.92
29.3089
3962.23
28.7877
3528.62
23.8197
2861.72
5.26147
2151.76
-49.536
647.446
-60.4228
417.464
-54.9776
427.631
-42.1662
426.525
-33.3537
518.957
-15.1759
557.588
34.6512
384.82
142.707
-257.875
220.97
-820.415
267.202
-1044.22
295.861
-1006.21
325.056
-843.578
366.929
-697.694
411.195
-672.92
411.806
-781.092
351.698
-892.57
236.307
-866.894
78.9872
-674.98
142.827
2843.1
137.429
3437.8
75.4739
2042.02
21.5547
594.593
-21.2252
-465.615
-39.1527
-652.752
-59.6161
-535.264
-76.6407
-431.848
-88.6667
-281.439
-105.588
-145.984
-107.189
98.9939
-102.877
243.799
-93.3701
343.329
-78.8321
394.596
-60.1141
396.578
-37.9097
357.153
-14.5264
295.517
5.70024
238.357
20.0148
248.985
34.7494
326.416
60.3476
-3.2874
68.9247
-291.45
50.2291
-756.904
-1790.11
-46.8474
309.401
-41.0167
238.441
-37.5564
289.233
-32.4216
357.14
-23.5722
439.431
-8.81725
502.246
6.47271
494.562
20.858
457.323
34.5597
419.423
42.4696
329.101
45.942
245.595
44.3931
246.273
29.7469
-2.28431
4.26329
-150.677
44.7824
323.658
72.7786
655.289
63.7427
611.453
48.5767
428.744
47.4296
334.765
15.4574
10.2554
-19.5127
-128.067
6.01169
-86.1128
44.0843
186.877
55.8257
341.048
44.1944
302.898
40.5218
286.174
43.0364
274.038
34.7766
167.811
28.0358
11.8876
6.7265
-120.371
-14.3581
-360.986
12.5617
786.266
27.101
3702.1
29.3806
3959.79
29.3284
3527.78
25.0373
2864.38
7.6633
2168.96
-43.9618
696.642
-52.965
421.865
-46.4951
416.062
-34.1736
412.841
-24.5059
508.641
-4.17958
534.222
62.7101
311.406
164.217
-361.825
238.685
-896.35
285.985
-1092.91
319.879
-1042.03
356.851
-883.333
403.043
-748.172
441.416
-714.375
434.001
-775.255
367.741
-828.422
248.714
-750.879
90.2482
-516.805
152.755
2782.24
147.973
3439.54
82.1749
2105.72
23.3463
652.409
-21.9063
-420.877
-38.9786
-636.531
-58.4637
-517.647
-75.1396
-417.087
-87.4381
-271.29
-104.398
-133.521
-105.781
98.4797
-101.113
237.887
-91.114
332.393
-76.0919
378.775
-57.0401
376.515
-34.7308
333.836
-11.149
270.677
9.85108
214.797
25.3613
231.162
42.0721
307.677
64.136
-31.676
71.8623
-299.973
57.3836
-743.26
-1743.06
-47.4006
298.447
-42.0322
232.643
-38.6507
285.122
-33.3441
351.043
-24.1957
429.426
-9.35096
486.522
5.97984
478.144
20.5232
441.629
34.3736
404.276
42.785
319.398
46.6767
240.365
46.2655
243.719
32.09
10.7301
5.18789
-125.408
42.8504
283.706
75.1722
622.312
70.7648
614.52
54.5061
443.557
53.0302
335.064
21.9858
39.9461
-7.04673
-100.921
10.1037
-105.832
43.0842
152.086
58.0619
324.401
50.1412
310.25
45.6013
289.896
46.643
272.448
37.7675
176.149
29.5467
23.7746
8.22192
-96.0137
-14.2994
-338.208
12.4272
759.78
26.5587
3687.66
29.4187
3957.01
29.957
3527.18
26.4973
2867.51
10.4612
2185.8
-38.5027
746.432
-45.7997
431.475
-38.0651
411.092
-25.7438
406.759
-15.9656
504.477
5.1394
518.065
84.7298
235.648
184.107
-461.149
256.991
-969.109
306.409
-1141.27
345.861
-1080.1
389.61
-924.594
438.017
-794.085
470.142
-743.803
455.329
-757.565
382.905
-757.474
254.038
-625.532
96.1664
-357.23
161.818
2717.35
158.779
3441.95
89.562
2174.34
25.6856
716.527
-22.2274
-373.067
-38.7181
-620.06
-57.3315
-499.267
-73.5005
-400.497
-85.8727
-258.164
-102.939
-117.78
-104.142
99.1292
-99.113
232.404
-88.6451
321.587
-73.1906
363.162
-53.8947
356.992
-31.6191
311.726
-7.96909
247.293
13.7826
192.572
30.6491
213.692
49.7839
286.405
66.7577
-56.5648
74.0878
-310.284
58.3193
-728.726
-1715.36
-48.1848
287.862
-43.2743
228.048
-39.9
282.118
-34.366
346.041
-24.8664
420.471
-9.90507
472.22
5.49169
463.43
20.2113
427.848
34.2163
391.318
43.0904
312.104
47.2783
238.319
48.2197
247.558
34.6656
26.2383
6.27808
-96.61
40.1794
251.367
76.7414
586.551
76.9426
615.017
61.4172
460.116
58.9292
340.696
28.1144
72.2773
1.50233
-73.6759
11.7885
-114.663
41.4418
122.774
59.2504
306.572
55.2863
315.221
50.6937
294.851
50.4915
271.682
40.8619
182.29
30.9144
30.8932
9.88427
-75.9951
-14.0089
-315.503
12.2673
733.324
25.9131
3673.73
29.4339
3953.31
30.674
3525.05
28.159
2868.42
13.5883
2200.21
-33.1993
791.148
-39.1697
432.808
-29.8302
396.213
-17.7203
392.988
-8.96892
494.933
16.0955
489.333
103.776
142.557
203.175
-562.672
276.233
-1043.49
328.381
-1194.74
373.31
-1127.04
422.581
-976.635
471.365
-846.809
497.121
-772.332
475.546
-736.983
395.771
-680.397
248.563
-482.498
94.1179
-201.037
170.269
2642.91
169.894
3439.5
97.6493
2244.61
28.1471
784.834
-22.6955
-322.886
-38.1603
-605.219
-55.9989
-483.206
-72.0733
-386.154
-84.7484
-247.402
-101.409
-104.961
-102.29
98.3295
-96.8684
225.837
-85.9418
309.795
-70.102
346.584
-50.6386
336.547
-28.5356
288.651
-4.92692
222.469
17.6199
167.432
35.8228
193.372
56.9833
263.28
68.4746
-74.545
76.1561
-318.09
55.385
-708.591
-1689.24
-49.1996
277.303
-44.7255
223.16
-41.2875
277.966
-35.4712
339.462
-25.5772
409.74
-10.4781
456.26
5.00985
446.869
19.9125
411.802
34.0628
375.859
43.3396
301.527
47.7269
232.63
50.3229
242.427
37.4698
37.9442
7.66702
-68.6118
36.7362
219.922
77.4949
545.315
82.2069
609.027
68.1562
472.806
64.5517
343.659
34.1524
101.085
9.4658
-51.1299
13.5497
-120.856
39.3694
94.7272
59.5987
284.69
59.5606
314.644
55.5166
297.884
54.3809
272.077
44.1244
191.428
31.9664
46.3748
11.7316
-52.476
-13.4134
-290.256
12.0779
707.925
25.1353
3660.27
29.3935
3949.07
31.4583
3522.9
30.0258
2869.5
16.9716
2214.04
-28.1435
836.919
-33.1002
439.786
-22.0912
387.825
-10.9535
387.833
-2.32689
491.958
28.6026
462.206
122.182
50.3485
222.516
-663.086
296.424
-1117.36
351.576
-1248.89
401.556
-1175.74
455.002
-1027.81
502.77
-892.357
522.307
-789.583
494.684
-706.532
404.528
-591.952
230.797
-314.542
84.0982
-51.731
178.713
2549.08
181.303
3436.29
106.332
2319.08
31.1082
860.193
-23.0896
-268.966
-37.4246
-590.958
-54.4434
-466.618
-70.4345
-370.056
-83.3583
-234.121
-99.6897
-90.611
-100.227
97.912
-94.4069
219.216
-83.0444
297.791
-66.8758
329.96
-47.341
316.417
-25.5282
266.555
-2.13476
198.701
21.0995
143.102
40.7692
172.565
63.6903
237.441
70.6048
-91.1371
78.7058
-329.771
63.6735
-695.236
-1640.91
-50.4686
267.243
-46.3897
219.432
-42.8081
274.782
-36.6476
333.883
-26.326
400.008
-11.0628
441.721
4.54265
432.01
19.6403
397.729
33.9493
362.661
43.6176
293.497
48.1091
230.257
52.4728
242.862
40.4579
51.9918
8.92112
-36.6812
32.4199
198.766
77.4005
501.164
86.6498
600.412
74.7466
485.724
70.1322
350.961
40.0716
132.888
16.8482
-27.3471
15.6021
-118.389
36.8791
73.9259
59.0912
262.52
62.8078
312.107
59.8582
301.302
58.1597
272.892
47.5767
199.004
32.8694
57.79
13.7632
-34.303
-12.4984
-265.413
11.8182
683.411
24.2192
3647.58
29.3077
3943.79
32.3107
3519.01
32.0619
2868.17
20.6215
2225.33
-23.22
878.916
-27.5192
439.337
-14.8816
369.2
-4.79051
375.773
4.46042
481.548
41.7982
418.532
141.189
-53.5775
242.655
-766.473
317.459
-1193.38
375.627
-1308.29
430.087
-1232.2
486.339
-1086.68
531.905
-941.48
545.537
-805.572
512.349
-673.615
409.638
-492.493
229.76
-141.07
92.4878
89.1559
188.101
2455.35
192.859
3428.96
115.429
2394.71
35.6524
938.516
-22.1093
-212.01
-36.7907
-576.703
-53.0656
-452.108
-69.3571
-355.403
-82.6553
-222.636
-97.9503
-78.7718
-97.9804
96.3749
-91.7293
211.85
-79.9396
285.136
-63.4897
312.744
-43.9633
295.815
-22.5288
244.013
0.514093
174.359
24.3678
116.572
45.466
149.49
69.079
211.945
75.2692
-101.259
80.7854
-335.153
63.5112
-678.502
-1612.8
-51.9877
257.303
-48.2446
215.266
-44.4436
270.246
-37.8787
326.543
-27.1053
388.369
-11.6579
425.379
4.08802
415.141
19.3771
381.222
33.8481
346.773
43.8743
282.019
48.4584
224.151
54.7023
234.348
43.6196
61.7492
9.98493
-5.3876
27.1471
179.098
76.5199
451.44
90.2115
585.445
80.6895
493.956
75.2876
355.985
45.9834
160.453
23.9165
-7.63839
18.3847
-114.876
34.4681
55.1657
57.9492
237.396
65.0931
304.32
63.5391
301.682
61.6277
273.922
51.3979
207.928
34.3564
77.412
15.9612
-12.5086
-11.1713
-238.344
11.4771
660.735
23.1326
3635.45
29.1403
3937.76
33.211
3514.86
34.2754
2866.78
24.5102
2235.9
-18.4084
922.422
-22.3784
445.15
-8.14807
357.58
1.86937
371.434
12.8657
476.578
56.3358
378.319
161.409
-158.466
263.622
-868.904
339.083
-1268.85
400.07
-1368.26
458.265
-1289.1
516.037
-1142.21
558.557
-981.828
566.721
-811.599
528.111
-631.573
416.633
-382.827
254.879
13.6264
120.249
225.437
198.098
2377.98
204.344
3422.05
125.145
2473.53
41.32
1022.38
-19.9855
-150.961
-36.1773
-560.587
-51.9241
-437.045
-68.6418
-338.936
-82.0021
-209.445
-95.9595
-67.4771
-95.5381
94.5385