/*--------------------------------*- C++ -*----------------------------------*\
| =========                 |                                                 |
| \\      /  F ield         | OpenFOAM: The Open Source CFD Toolbox           |
|  \\    /   O peration     | Version:  4.1                                   |
|   \\  /    A nd           | Web:      www.OpenFOAM.org                      |
|    \\/     M anipulation  |                                                 |
\*---------------------------------------------------------------------------*/
FoamFile
{
    version     2.0;
    format      ascii;
    class       volVectorField;
    location    "30";
    object      U;
}
// * * * * * * * * * * * * * * * * * * * * * * * * * * * * * * * * * * * * * //

dimensions      [0 1 -1 0 0 0 0];

internalField   nonuniform List<vector> 
6785
(
(1.105e-14 0.852195 15.7946)
(9.00643e-15 -4.89459 12.1215)
(-3.00781e-15 -4.19551 12.1321)
(7.41401e-15 -3.60119 11.9966)
(8.45848e-16 -3.00469 11.8778)
(-6.52124e-17 -2.5532 11.6992)
(2.2081e-15 -2.20882 11.4769)
(6.75962e-16 -1.96605 11.2116)
(2.1063e-16 -1.79857 10.916)
(1.67187e-16 -1.7124 10.5882)
(-2.27656e-16 -1.83748 10.1561)
(-6.48806e-16 -2.2857 9.5376)
(6.44471e-16 -2.51304 8.96376)
(1.20181e-17 -1.06555 8.91356)
(-2.45413e-16 1.76576 7.47095)
(1.58847e-14 -5.35014 22.4929)
(1.47507e-14 -14.6049 21.394)
(-9.58266e-16 -13.2708 20.3411)
(1.46003e-15 -11.7697 19.5065)
(1.52753e-15 -11.1561 18.5043)
(1.45898e-16 -10.6595 17.5173)
(1.34458e-15 -10.0902 16.5714)
(1.67533e-15 -9.52506 15.6235)
(-1.89862e-16 -8.96549 14.6638)
(2.84887e-15 -8.36737 13.6945)
(9.22926e-16 -7.75714 12.7178)
(-5.9887e-16 -7.30338 11.7193)
(1.24658e-15 -7.01707 10.6243)
(3.4376e-16 -5.73098 9.16112)
(-2.16342e-16 -2.30501 4.58327)
(1.73223e-14 -7.7156 23.98)
(1.70394e-14 -16.7731 24.6729)
(-2.34783e-16 -13.7366 23.9372)
(2.68407e-15 -12.3062 22.6249)
(2.28393e-15 -11.6448 21.2413)
(9.96697e-16 -10.8141 20.0012)
(3.65719e-15 -9.94038 18.7737)
(1.09712e-15 -9.10025 17.5247)
(8.47684e-16 -8.28354 16.2655)
(2.36136e-15 -7.47541 15.0263)
(3.61784e-16 -6.6678 13.8177)
(4.09717e-17 -5.84186 12.4302)
(1.14777e-15 -4.81414 10.2755)
(4.5227e-16 -3.12652 6.68474)
(-1.61738e-16 -0.832254 1.69014)
(1.67127e-14 -8.50243 22.0457)
(1.65716e-14 -16.6212 24.332)
(7.99568e-16 -12.9301 23.7969)
(3.80485e-15 -12.1538 21.9984)
(1.46322e-15 -11.4202 20.5027)
(2.00493e-15 -10.4938 19.1721)
(2.48118e-15 -9.63412 17.8166)
(8.80226e-16 -8.82387 16.459)
(1.51652e-15 -8.05392 15.1229)
(1.8403e-15 -7.3241 13.8165)
(-6.37355e-17 -6.55283 12.4395)
(1.33749e-16 -5.49132 10.5833)
(-1.48843e-16 -3.78582 7.50931)
(-1.75321e-15 -1.49433 2.7668)
(-7.70675e-16 0.153192 -1.77296)
(1.50108e-14 -8.4757 19.7464)
(1.41633e-14 -16.3603 24.312)
(1.54784e-15 -13.0995 23.6599)
(2.8053e-15 -12.6283 21.5363)
(8.31074e-17 -11.857 20.0245)
(1.71144e-15 -10.9579 18.6635)
(2.07038e-15 -10.1704 17.2585)
(-1.17117e-15 -9.40341 15.871)
(2.98855e-15 -8.65326 14.5235)
(1.09503e-15 -7.93124 13.2136)
(-4.72916e-16 -7.16667 11.8294)
(2.61232e-15 -6.11712 9.99688)
(-1.13186e-15 -4.42525 7.15677)
(-3.69444e-15 -2.30659 3.28946)
(-3.85981e-15 -0.787917 0.318987)
(1.32611e-14 -8.02034 17.5484)
(1.69622e-14 -16.0194 24.527)
(2.04229e-15 -13.6453 24.0457)
(1.45672e-15 -12.9952 21.7646)
(1.17124e-15 -12.1275 20.215)
(9.79172e-16 -11.226 18.8464)
(1.90025e-15 -10.4403 17.4336)
(-2.96711e-16 -9.65033 16.043)
(-9.39185e-16 -8.86186 14.6931)
(1.39612e-15 -8.09482 13.3817)
(7.29966e-16 -7.29895 12.0173)
(-7.00778e-16 -6.28647 10.2827)
(-1.16269e-15 -4.73526 7.7229)
(-5.8814e-16 -2.75854 4.3753)
(4.23196e-15 -0.950962 1.30017)
(1.37452e-14 -7.3319 15.2373)
(1.69559e-14 -15.4895 24.3506)
(5.98227e-15 -14.0282 24.4217)
(3.88418e-15 -13.1309 22.0675)
(1.60513e-15 -12.1481 20.4391)
(1.54956e-15 -11.2394 19.0539)
(2.44621e-15 -10.4397 17.6434)
(4.87021e-16 -9.62374 16.2576)
(2.36036e-15 -8.81416 14.907)
(9.73736e-16 -8.03131 13.5927)
(3.25935e-15 -7.22821 12.2384)
(6.26242e-16 -6.24509 10.5521)
(-1.68805e-16 -4.79335 8.11332)
(-9.25026e-16 -2.92048 4.9549)
(6.27652e-15 -1.01484 1.80464)
(1.10248e-14 -6.53884 12.9874)
(1.67665e-14 -14.8391 23.7972)
(7.03563e-15 -14.2774 24.6689)
(4.37108e-15 -13.2463 22.3235)
(1.23914e-15 -12.1762 20.5813)
(2.43197e-15 -11.2743 19.165)
(3.64851e-15 -10.4739 17.758)
(5.7465e-16 -9.65234 16.3767)
(1.67344e-15 -8.84423 15.0255)
(5.27993e-16 -8.06469 13.7092)
(-7.61029e-16 -7.26479 12.3611)
(7.51345e-16 -6.29786 10.7066)
(2.43765e-15 -4.90397 8.34377)
(-1.89735e-15 -3.09914 5.28469)
(1.91453e-15 -1.13098 2.0601)
(9.66795e-15 -5.7343 11.0183)
(1.66949e-14 -14.1499 23.0336)
(8.32396e-15 -14.4701 24.8463)
(2.61654e-15 -13.4218 22.6271)
(1.49134e-15 -12.2758 20.7582)
(2.85437e-15 -11.3707 19.2974)
(6.07416e-16 -10.5695 17.8945)
(1.16779e-15 -9.74803 16.5169)
(-3.33079e-16 -8.94204 15.1638)
(7.08554e-16 -8.16275 13.8446)
(2.29837e-16 -7.36307 12.4993)
(-8.31405e-16 -6.40578 10.872)
(-2.68419e-15 -5.05379 8.58002)
(-1.72822e-15 -3.29902 5.6021)
(-1.64459e-15 -1.25993 2.29017)
(7.39108e-15 -4.97783 9.35718)
(1.63019e-14 -13.4465 22.1404)
(1.01238e-14 -14.5823 24.9367)
(1.82294e-15 -13.6083 22.9619)
(1.35676e-15 -12.3909 20.9752)
(1.50566e-16 -11.4643 19.4564)
(1.36722e-15 -10.6567 18.0545)
(9.51541e-16 -9.83517 16.6803)
(-3.51006e-16 -9.02886 15.3257)
(1.02147e-15 -8.2468 14.0035)
(6.40643e-16 -7.44661 12.6585)
(-6.10744e-16 -6.49785 11.0504)
(-3.00679e-16 -5.179 8.81437)
(-7.37713e-16 -3.46401 5.89617)
(-1.02718e-15 -1.35785 2.50629)
(5.12838e-15 -4.33272 8.02239)
(1.58155e-14 -12.7731 21.2131)
(9.70206e-15 -14.6207 24.9384)
(4.60649e-15 -13.799 23.3088)
(1.87141e-15 -12.5348 21.2384)
(-1.70788e-17 -11.5794 19.6506)
(1.51406e-15 -10.7636 18.2412)
(1.26069e-15 -9.94331 16.8676)
(-7.34615e-16 -9.13665 15.5103)
(5.7326e-16 -8.35088 14.1838)
(1.10751e-15 -7.54919 12.8376)
(-6.44912e-16 -6.6089 11.2477)
(-2.16838e-16 -5.32109 9.06572)
(-4.22143e-15 -3.64321 6.20249)
(-6.64872e-15 -1.46601 2.73553)
(4.27397e-15 -3.69381 6.68134)
(1.54248e-14 -12.041 20.0996)
(9.61093e-15 -14.5447 24.7491)
(4.83414e-15 -13.9255 23.5234)
(2.70402e-15 -12.6175 21.3855)
(-1.27187e-16 -11.619 19.7285)
(1.18957e-15 -10.7962 18.3243)
(1.86711e-15 -9.98397 16.9672)
(-1.30156e-15 -9.18564 15.6227)
(-3.41701e-16 -8.40715 14.307)
(3.55175e-16 -7.61393 12.9706)
(-1.93696e-15 -6.68567 11.398)
(-1.77555e-15 -5.42007 9.25409)
(-5.48804e-15 -3.76714 6.42305)
(-5.64575e-15 -1.53049 2.88894)
(1.97128e-15 -3.35575 6.0666)
(1.43625e-14 -11.5306 19.247)
(1.12164e-14 -14.6127 24.6337)
(4.9577e-15 -14.3423 23.9997)
(3.01316e-15 -13.0956 21.9094)
(2.92558e-16 -12.0597 20.1371)
(5.98422e-16 -11.2065 18.6534)
(2.48381e-15 -10.3783 17.2534)
(-7.33529e-16 -9.55654 15.8745)
(-3.66453e-16 -8.74706 14.5279)
(1.49728e-16 -7.92565 13.1752)
(-2.8154e-15 -6.98753 11.6285)
(-2.11955e-15 -5.74325 9.57266)
(-3.99893e-15 -4.09963 6.80996)
(-5.68996e-15 -1.72927 3.18066)
(-8.28614e-16 -1.76921 2.42692)
(1.21029e-14 -9.78297 16.1353)
(1.27514e-14 -13.9021 23.2334)
(4.9984e-15 -14.0106 23.4031)
(2.06608e-15 -12.6505 21.269)
(1.59371e-16 -11.5183 19.5029)
(7.6765e-16 -10.7459 18.2626)
(2.499e-15 -10.0531 17.1174)
(-3.48292e-16 -9.36872 15.9608)
(-6.45531e-16 -8.69464 14.7913)
(7.40288e-16 -8.00567 13.5967)
(-2.18039e-15 -7.20505 12.2106)
(-1.72681e-15 -6.09568 10.3299)
(-3.86545e-15 -4.63153 7.84029)
(-4.49016e-15 -2.30535 4.53766)
(3.10595e-15 -4.36373 8.99118)
(1.22664e-14 -10.7281 17.9782)
(1.39054e-14 -15.122 24.609)
(9.08942e-15 -16.8189 25.97)
(4.64146e-15 -16.4342 24.4087)
(1.7058e-15 -15.3088 21.9977)
(1.96355e-16 -14.0202 19.7073)
(6.29706e-16 -12.7746 17.7597)
(-5.15149e-17 -11.5702 15.9636)
(-1.07091e-15 -10.3924 14.3501)
(-2.51916e-16 -9.24227 12.8307)
(-1.72816e-15 -8.02333 11.2418)
(-2.54684e-15 -6.60841 9.38986)
(-3.97404e-15 -4.68568 6.58053)
(-4.78712e-15 -1.14092 2.38357)
(7.81019e-17 0.716469 -3.71687)
(2.0784e-16 0.632723 -5.81199)
(1.77789e-16 0.730688 -4.28592)
(1.48282e-16 1.19178 -4.23098)
(1.45288e-16 1.66579 -4.02938)
(1.55434e-16 2.11106 -5.48721)
(9.11267e-17 2.01413 -3.90167)
(5.96354e-17 2.39653 -3.84122)
(-1.29235e-16 2.71517 -3.68244)
(1.25899e-15 3.4384 -4.72312)
(8.80693e-16 3.00238 -3.40637)
(5.92507e-16 3.30217 -3.21951)
(4.42635e-16 4.45418 -3.96216)
(3.98713e-16 3.5983 -2.86323)
(3.53218e-16 3.93669 -2.81882)
(3.19708e-16 4.06232 -2.7369)
(3.74655e-16 5.23304 -3.24184)
(1.93474e-16 4.1133 -2.39896)
(1.32496e-16 4.28281 -2.30578)
(1.85849e-16 5.77841 -2.59987)
(1.49645e-16 4.33478 -1.93943)
(1.44125e-16 4.64212 -1.9121)
(1.49576e-16 4.66789 -1.88762)
(1.6309e-16 5.96637 -2.01095)
(1.31901e-16 4.40283 -1.55871)
(1.28409e-16 4.75275 -1.53137)
(4.3807e-17 4.76804 -1.52561)
(-3.00119e-16 5.9707 -1.50353)
(2.34137e-16 4.40097 -1.20759)
(1.77946e-16 4.46047 -1.20775)
(1.68879e-16 5.92767 -1.02762)
(1.35097e-16 4.19811 -0.859981)
(1.30386e-16 4.40962 -0.844064)
(1.24205e-16 4.39416 -0.869156)
(1.12749e-16 5.46023 -0.618524)
(9.11329e-17 3.92324 -0.554341)
(8.14649e-17 3.93441 -0.592461)
(8.01835e-17 5.1114 -0.242305)
(7.34554e-17 3.56647 -0.273074)
(6.19579e-17 3.70116 -0.268164)
(-2.6246e-16 3.68885 -0.312929)
(1.16173e-16 4.4385 0.0857148)
(9.18828e-17 3.12047 -0.0358384)
(9.10136e-17 3.26402 -0.0326495)
(8.19093e-17 3.27717 -0.081904)
(1.41957e-16 3.75231 0.364484)
(4.99658e-17 2.70772 0.198851)
(4.15665e-17 2.71672 0.131149)
(5.18587e-17 3.25233 0.690607)
(8.43546e-17 2.40246 0.492637)
(9.45865e-17 2.42635 0.496194)
(9.46523e-17 2.42565 0.42441)
(1.37192e-16 2.69237 1.08729)
(1.18526e-16 1.95441 0.722356)
(2.63583e-16 1.98847 0.717672)
(2.3652e-16 1.97877 0.64826)
(-2.4462e-17 2.08129 1.26118)
(3.63112e-16 1.37902 0.699428)
(1.79763e-16 1.32215 0.635877)
(-1.06652e-16 1.4271 0.788886)
(2.63669e-16 0.642267 0.106496)
(4.7863e-16 0.590078 0.0743429)
(1.33937e-16 0.671109 0.104327)
(5.07365e-16 1.26096 -1.26736)
(-7.41088e-16 -0.525095 -0.0894788)
(-1.06157e-15 0.00454126 0.248345)
(-1.84805e-15 -0.118039 1.87689)
(-1.43583e-15 -1.4751 3.67199)
(-1.30333e-15 -1.47289 3.62246)
(-1.32918e-15 -1.47498 3.80288)
(-1.69446e-15 -3.02425 6.84016)
(-1.1898e-15 -3.40369 6.40976)
(-1.23591e-15 -3.69604 6.53476)
(-1.16514e-15 -3.8572 6.71816)
(-2.21463e-15 -6.61168 10.4424)
(-1.01078e-15 -5.95782 8.45936)
(-9.79409e-16 -6.27047 8.95924)
(-1.05248e-15 -9.7376 13.0997)
(-7.43768e-16 -8.68372 10.0969)
(-9.28115e-16 -9.0795 10.8424)
(-1.5499e-15 -9.9385 12.5998)
(-1.33286e-15 -9.80103 12.5055)
(-1.25587e-15 -9.96545 12.7883)
(1.87228e-16 -12.0825 15.6038)
(-5.5465e-16 -10.6341 13.778)
(-2.77519e-16 -11 14.4552)
(-2.34402e-16 -10.9869 14.5967)
(-1.7738e-16 -11.058 14.7184)
(-1.00564e-16 -11.1505 14.8633)
(-1.18376e-17 -11.2279 15.0328)
(1.22008e-16 -11.3157 15.3477)
(2.52471e-16 -11.4367 15.7366)
(1.22218e-15 -12.2574 17.1704)
(6.4315e-16 -11.7496 16.1186)
(7.42443e-16 -11.8868 16.3459)
(7.80589e-16 -11.8691 16.4736)
(8.93782e-16 -12.0306 16.847)
(9.32969e-16 -12.0044 16.8826)
(9.95598e-16 -12.0846 17.0275)
(1.05695e-15 -12.1383 17.1522)
(1.1436e-15 -12.1982 17.3014)
(2.67525e-15 -12.63 18.3893)
(1.86165e-15 -12.2137 17.6189)
(1.97054e-15 -12.3132 17.7929)
(2.01378e-15 -12.3442 17.8773)
(2.07707e-15 -12.3828 18.0045)
(2.10499e-15 -12.4241 18.2007)
(2.11632e-15 -12.4954 18.4211)
(2.19087e-15 -12.4963 18.485)
(2.25978e-15 -12.5634 18.5991)
(2.3482e-15 -12.6134 18.6952)
(3.65613e-15 -12.3375 18.9081)
(2.66621e-15 -12.2341 18.6008)
(2.77765e-15 -12.2627 18.6942)
(2.83608e-15 -12.2915 18.7477)
(2.91708e-15 -12.3227 18.8185)
(3.00511e-15 -12.3097 18.9102)
(3.16195e-15 -12.3641 19.1422)
(3.27826e-15 -12.3887 19.2075)
(3.39284e-15 -12.4248 19.1865)
(4.08347e-15 -11.3359 18.1067)
(3.60626e-15 -11.5571 18.3758)
(3.74944e-15 -11.5117 18.4716)
(3.8239e-15 -11.5451 18.5938)
(3.96272e-15 -11.4844 18.4957)
(4.09151e-15 -11.478 18.4551)
(4.24671e-15 -11.4498 18.3938)
(4.40764e-15 -11.4325 18.3606)
(4.77362e-15 -11.5016 18.5147)
(5.28563e-15 -9.26256 15.64)
(5.0322e-15 -10.1266 17.0323)
(5.23616e-15 -9.94604 16.7235)
(5.4512e-15 -9.90978 16.5976)
(5.94593e-15 -9.86398 16.5811)
(6.01861e-15 -9.75479 16.3228)
(5.98664e-15 -9.64929 15.956)
(6.00192e-15 -9.60089 15.5611)
(5.99157e-15 -9.46363 15.0723)
(5.70756e-15 -6.64302 10.8255)
(6.27788e-15 -7.83548 13.5212)
(6.07571e-15 -7.46903 12.7003)
(5.93414e-15 -7.4071 12.2184)
(5.76803e-15 -7.25142 11.5657)
(5.65829e-15 -7.17348 10.8574)
(6.06762e-15 -6.87003 9.94509)
(5.52528e-15 -6.82181 9.32438)
(5.18004e-15 -6.61742 8.54685)
(4.72549e-15 -6.3135 7.70673)
(1.83262e-15 -3.30001 2.04942)
(3.88898e-15 -4.87168 5.89071)
(3.17658e-15 -4.31367 4.49592)
(2.86543e-15 -4.31583 4.07104)
(2.42534e-15 -4.05478 3.35538)
(1.89381e-15 -3.98874 2.57207)
(8.84102e-16 -3.81322 1.3148)
(-1.13464e-16 -3.41487 0.0934486)
(3.23923e-17 -3.35583 0.00374212)
(-5.22163e-16 -1.63743 -2.30842)
(-1.8078e-16 -2.74414 0.036002)
(-3.63432e-16 -2.45221 -0.687096)
(-1.03576e-15 -1.36915 -2.48923)
(-4.82152e-16 -2.37275 -2.31555)
(-5.48121e-16 -1.58296 -1.94163)
(-1.67071e-15 -1.09259 -1.40416)
(-2.25412e-15 -1.23624 -1.97565)
(-7.69668e-16 -0.544029 -1.32085)
(-1.4228e-15 -0.382101 -1.9622)
(-1.34073e-15 -0.159744 -1.70147)
(-8.65069e-16 0.0338855 -1.1844)
(-8.47022e-16 0.514538 -1.41686)
(-8.00466e-16 0.805967 -1.52807)
(-4.9443e-16 0.675032 -1.04583)
(-7.24991e-16 1.31148 -1.31051)
(-3.66078e-16 1.10466 -0.955637)
(-5.75959e-16 1.49049 -1.10102)
(-1.08459e-15 1.9015 -1.11726)
(-5.77477e-16 1.36064 -0.748812)
(-7.84576e-16 2.31103 -0.940783)
(-7.19024e-16 1.75459 -0.661663)
(-9.92931e-16 2.17357 -0.794693)
(-9.73814e-16 2.53589 -0.802289)
(-6.67128e-16 1.87218 -0.510065)
(-8.52384e-16 2.49452 -0.627364)
(-9.9505e-16 2.93218 -0.635116)
(-6.65259e-16 2.01954 -0.384605)
(-8.73014e-16 3.09637 -0.543451)
(-7.24068e-16 2.35488 -0.353301)
(-1.13513e-15 2.76 -0.477758)
(-7.49467e-16 3.20317 -0.484479)
(-5.75502e-16 2.23591 -0.279305)
(-8.03003e-16 3.42432 -0.414405)
(-5.80204e-16 2.59194 -0.261411)
(-7.16735e-16 3.01074 -0.377463)
(-8.91889e-16 3.40636 -0.386265)
(-6.09149e-16 2.47592 -0.213597)
(-6.81395e-16 3.19767 -0.302801)
(-1.04775e-15 3.71607 -0.306059)
(-7.3288e-16 2.51115 -0.164865)
(-8.83694e-16 3.79758 -0.26832)
(-6.71519e-16 2.84094 -0.160362)
(-8.28118e-16 3.30101 -0.253097)
(-7.5566e-16 3.79708 -0.253202)
(-5.2105e-16 2.62218 -0.132279)
(-7.87502e-16 4.00266 -0.217494)
(-5.57521e-16 2.99677 -0.129983)
(-7.75003e-16 3.46516 -0.214945)
(-1.09393e-15 3.89607 -0.211172)
(-4.78622e-16 2.82272 -0.110135)
(-6.43242e-16 3.62475 -0.164017)
(-7.65914e-16 4.18373 -0.150168)
(-5.17608e-16 2.82991 -0.0809034)
(-7.24408e-16 4.25101 -0.133327)
(-5.0634e-16 3.15932 -0.0801288)
(-6.37135e-16 3.6721 -0.139242)
(-8.11741e-16 4.18384 -0.119571)
(-5.31025e-16 2.90302 -0.0627196)
(-6.86068e-16 4.3905 -0.101666)
(-5.18297e-16 3.27424 -0.062582)
(-6.40208e-16 3.78531 -0.117996)
(-7.42442e-16 4.21656 -0.0954985)
(-5.11718e-16 3.06833 -0.0499484)
(-6.1474e-16 3.91432 -0.074653)
(-6.96235e-16 4.47199 -0.0446689)
(-4.83325e-16 3.05015 -0.0289521)
(-7.25367e-16 4.53319 -0.0455836)
(-4.53655e-16 3.36665 -0.0322)
(-5.40253e-16 3.91031 -0.0670801)
(-6.63053e-16 4.41291 -0.0425956)
(-4.58007e-16 3.08139 -0.0248837)
(-6.1779e-16 4.62044 -0.0450116)
(-4.28382e-16 3.44521 -0.0328969)
(-5.61339e-16 3.98013 -0.0760546)
(-4.79386e-16 4.40886 -0.0662417)
(-4.39241e-16 3.22313 -0.0398529)
(-7.38286e-16 4.0952 -0.0619601)
(-6.12051e-16 4.6625 -0.0614813)
(-4.17726e-16 3.20158 -0.0448767)
(-5.59787e-16 4.75064 -0.0892774)
(-4.1488e-16 3.50355 -0.0664024)
(-5.35704e-16 4.22032 -0.149191)
(-9.08008e-16 -0.58011 0.406817)
(-9.06295e-16 -0.437889 0.349316)
(-9.05389e-16 -0.459136 0.303782)
(-9.04447e-16 -0.560718 0.254768)
(-9.0342e-16 -0.719163 0.196646)
(-9.01803e-16 -0.917276 0.122312)
(-8.99059e-16 -0.918787 -0.0422819)
(-8.97917e-16 -0.844701 -0.102853)
(-8.96868e-16 -0.765813 -0.230686)
(-8.96297e-16 -0.463084 -0.274826)
(-8.96097e-16 -0.215892 -0.233929)
(-8.96049e-16 -0.404535 -0.122733)
(-8.96281e-16 0.300104 -0.245136)
(-8.96333e-16 0.464482 0.0702813)
(-8.98425e-16 -1.09326 -0.233768)
(-8.98348e-16 -0.902366 -0.270096)
(-8.97923e-16 -0.355956 0.0086206)
(-8.97946e-16 -0.254951 0.067067)
(-8.97821e-16 -0.592658 0.210403)
(-8.97507e-16 0.258033 0.00108684)
(-8.9771e-16 0.471657 0.111562)
(-8.98017e-16 -0.559607 -0.18919)
(-8.98162e-16 -0.618334 -0.220254)
(-8.98201e-16 -0.363053 -0.172446)
(-8.98206e-16 -0.134823 -0.0940431)
(-8.98256e-16 -0.494997 0.0133923)
(-8.98879e-16 -0.50388 -0.0949637)
(-8.98328e-16 -0.165279 -0.174332)
(-8.95807e-16 0.0701786 -0.162713)
(-8.90298e-16 0.487986 -0.0853407)
(-8.76977e-16 0.699579 0.0628813)
(-7.93988e-16 -1.45067 -0.0237623)
(-7.72609e-16 -5.19204 -0.201828)
(-7.66293e-16 -5.28603 -0.184374)
(-7.61618e-16 -4.70294 -0.205326)
(-7.58415e-16 -3.75571 -0.209141)
(-7.56499e-16 -2.64132 -0.186696)
(-7.55465e-16 0.549608 0.4264)
(-7.55455e-16 -0.317374 0.801339)
(-7.55461e-16 -0.546324 0.895419)
(-7.55448e-16 -0.731979 0.874212)
(-7.55481e-16 -0.813526 0.760955)
(-7.55522e-16 -0.793723 0.479948)
(-7.54977e-16 -0.793429 0.211371)
(-7.5384e-16 -0.814764 0.336804)
(-7.52718e-16 -0.416986 -0.0449204)
(-7.53494e-16 0.487951 -0.774336)
(-7.55464e-16 0.979034 -1.17075)
(-7.57159e-16 1.31277 -1.14033)
(-7.58299e-16 0.620287 -0.494082)
(-7.65469e-16 0.0287346 -0.520402)
(-7.65282e-16 0.457539 -0.921529)
(-7.27727e-16 1.42854 -1.48732)
(-6.93515e-16 2.67096 -1.46705)
(-6.79047e-16 3.42789 -0.393427)
(-6.3592e-16 -4.84638 0.306475)
(-3.3166e-16 -4.69108 -0.112477)
(2.11444e-16 -2.22743 -0.347183)
(4.71518e-16 -0.463035 -0.276368)
(5.10011e-16 1.24392 -0.165006)
(6.63419e-16 1.36629 0.273448)
(7.24219e-16 1.09157 0.466969)
(7.15952e-16 0.851342 0.623749)
(7.23692e-16 0.551907 0.654516)
(7.27271e-16 0.321214 0.644983)
(7.22545e-16 -0.207985 0.60722)
(6.99155e-16 -0.438199 0.625639)
(6.52072e-16 -0.625311 0.637589)
(5.73021e-16 -0.76771 0.624293)
(4.64763e-16 -0.847524 0.575025)
(3.52357e-16 -0.857566 0.486706)
(2.75442e-16 -0.803816 0.366072)
(2.5495e-16 -0.688715 0.239357)
(2.69058e-16 -0.557984 0.207539)
(2.48454e-16 -0.627997 0.367773)
(1.36162e-16 -0.485753 0.256722)
(1.70554e-16 -0.24775 -0.164012)
(1.11574e-16 1.19407 -0.261226)
(-5.66494e-17 2.74425 -0.240384)
(-9.07907e-16 -0.564289 0.388438)
(-9.06169e-16 -0.438457 0.318919)
(-9.05301e-16 -0.477515 0.281115)
(-9.04388e-16 -0.584711 0.236769)
(-9.0337e-16 -0.73964 0.182773)
(-9.01761e-16 -0.923313 0.112653)
(-8.99066e-16 -0.920203 -0.0459063)
(-8.97937e-16 -0.847596 -0.10618)
(-8.96908e-16 -0.779613 -0.228069)
(-8.96331e-16 -0.520232 -0.259712)
(-8.96113e-16 -0.342454 -0.161467)
(-8.96071e-16 -0.334759 -0.144495)
(-8.96318e-16 0.256574 -0.259153)
(-8.96392e-16 0.448522 0.079333)
(-8.98391e-16 -1.04146 -0.227806)
(-8.98376e-16 -0.954407 -0.27908)
(-8.97943e-16 -0.471081 -0.0157442)
(-8.97945e-16 -0.382042 0.106569)
(-8.97849e-16 -0.591936 0.1841)
(-8.97521e-16 0.256289 -0.000775395)
(-8.97724e-16 0.479406 0.131423)
(-8.98009e-16 -0.467583 -0.151238)
(-8.98158e-16 -0.608489 -0.208045)
(-8.98201e-16 -0.374913 -0.15383)
(-8.98207e-16 -0.10838 -0.0567588)
(-8.98253e-16 -0.448485 -0.00394024)
(-8.98871e-16 -0.462856 -0.120092)
(-8.9877e-16 -0.138546 -0.173175)
(-8.9607e-16 0.0513791 -0.161779)
(-8.90375e-16 0.455951 -0.0837533)
(-8.77602e-16 0.686069 0.0807352)
(-7.94235e-16 -1.41625 -0.0121984)
(-7.72637e-16 -5.16915 -0.197081)
(-7.66305e-16 -5.28709 -0.181078)
(-7.61642e-16 -4.7024 -0.199246)
(-7.58434e-16 -3.75416 -0.198387)
(-7.56509e-16 -2.60117 -0.200034)
(-7.55503e-16 0.348931 0.282127)
(-7.55455e-16 -0.28267 0.868672)
(-7.5546e-16 -0.598509 0.888887)
(-7.55457e-16 -0.788165 0.818468)
(-7.55498e-16 -0.879726 0.646888)
(-7.55502e-16 -0.900632 0.405966)
(-7.54884e-16 -0.898927 0.253989)
(-7.53814e-16 -0.784899 0.378058)
(-7.52448e-16 -0.229266 -0.18077)
(-7.53574e-16 0.621344 -0.853074)
(-7.5596e-16 1.02567 -1.21707)
(-7.58722e-16 1.18845 -1.24638)
(-7.58136e-16 1.26192 -0.554135)
(-7.68548e-16 0.410514 -0.684996)
(-7.64467e-16 0.593668 -1.08143)
(-7.23907e-16 1.48467 -1.55123)
(-6.87739e-16 2.48596 -1.45294)
(-6.74538e-16 3.06561 -0.404186)
(-6.35706e-16 -4.56209 0.305313)
(-3.35057e-16 -4.62181 -0.294776)
(1.99379e-16 -2.21595 -0.398067)
(4.5599e-16 -0.236961 -0.282476)
(5.03187e-16 1.14073 -0.15419)
(6.64696e-16 1.2745 0.245816)
(7.21176e-16 1.03656 0.437722)
(7.11558e-16 0.808666 0.608614)
(7.18781e-16 0.528761 0.669803)
(7.22841e-16 0.332401 0.712131)
(7.17176e-16 -0.0435465 0.67583)
(6.92031e-16 -0.291338 0.677088)
(6.42352e-16 -0.477409 0.676825)
(5.61195e-16 -0.611339 0.653187)
(4.53264e-16 -0.678581 0.59382)
(3.4458e-16 -0.673487 0.497452)
(2.72759e-16 -0.601836 0.371966)
(2.55539e-16 -0.464088 0.237682)
(2.69239e-16 -0.333296 0.174561)
(2.43803e-16 -0.488821 0.284856)
(1.3639e-16 -0.287314 0.164764)
(1.85166e-16 0.383828 -0.354681)
(1.21391e-16 1.16269 -0.286511)
(-6.12181e-17 2.74588 -0.158811)
(-9.07781e-16 -0.552434 0.386707)
(-9.06019e-16 -0.418697 0.305007)
(-9.05196e-16 -0.453816 0.270268)
(-9.04315e-16 -0.559223 0.228965)
(-9.03306e-16 -0.712789 0.178339)
(-9.01706e-16 -0.888326 0.110889)
(-8.99072e-16 -0.885293 -0.0424417)
(-8.97962e-16 -0.814421 -0.105696)
(-8.96957e-16 -0.746972 -0.225778)
(-8.96376e-16 -0.49725 -0.260505)
(-8.96139e-16 -0.305297 -0.181849)
(-8.96097e-16 -0.335992 -0.164465)
(-8.96344e-16 0.234871 -0.263562)
(-8.96431e-16 0.443596 0.078137)
(-8.98349e-16 -0.99186 -0.222993)
(-8.98408e-16 -0.969161 -0.302947)
(-8.97973e-16 -0.483951 -0.0466217)
(-8.97947e-16 -0.380913 0.129572)
(-8.97914e-16 -0.526155 0.125885)
(-8.97546e-16 0.251355 -0.00664859)
(-8.97729e-16 0.486254 0.1314)
(-8.97999e-16 -0.434576 -0.119991)
(-8.98151e-16 -0.610832 -0.225216)
(-8.982e-16 -0.399443 -0.173233)
(-8.98208e-16 -0.154873 -0.049381)
(-8.98247e-16 -0.452347 -0.00120215)
(-8.9886e-16 -0.464921 -0.12418)
(-8.99043e-16 -0.174548 -0.167532)
(-8.96379e-16 0.0475828 -0.159618)
(-8.90616e-16 0.435757 -0.0849061)
(-8.78169e-16 0.679345 0.0891092)
(-7.9456e-16 -1.39264 -0.00434195)
(-7.72675e-16 -5.14887 -0.197397)
(-7.66319e-16 -5.28866 -0.184243)
(-7.61673e-16 -4.70143 -0.19801)
(-7.58457e-16 -3.75933 -0.187256)
(-7.5652e-16 -2.62926 -0.198426)
(-7.55504e-16 0.136827 0.265798)
(-7.55454e-16 -0.345475 0.817933)
(-7.5546e-16 -0.612085 0.829449)
(-7.55468e-16 -0.767784 0.762602)
(-7.55506e-16 -0.828376 0.586458)
(-7.55434e-16 -0.848068 0.429662)
(-7.54759e-16 -0.868384 0.357005)
(-7.53704e-16 -0.730384 0.349309)
(-7.52237e-16 -0.102659 -0.277063)
(-7.53894e-16 0.710755 -0.915818)
(-7.56483e-16 1.07226 -1.23738)
(-7.598e-16 1.13941 -1.29489)
(-7.60408e-16 0.933454 -0.864198)
(-7.73565e-16 0.327626 -0.866868)
(-7.64924e-16 0.645817 -1.22017)
(-7.22195e-16 1.51565 -1.6095)
(-6.84055e-16 2.4147 -1.44854)
(-6.71333e-16 2.90597 -0.468234)
(-6.35599e-16 -4.57189 0.265858)
(-3.39357e-16 -4.60836 -0.393007)
(1.84437e-16 -2.2434 -0.423901)
(4.39325e-16 -0.360238 -0.283864)
(5.01826e-16 1.10377 -0.141769)
(6.6688e-16 1.22958 0.23978)
(7.18763e-16 1.00949 0.416229)
(7.07726e-16 0.797216 0.592272)
(7.1409e-16 0.519511 0.660881)
(7.17688e-16 0.301849 0.717401)
(7.10751e-16 -0.107831 0.700771)
(6.83295e-16 -0.350563 0.698764)
(6.30515e-16 -0.533435 0.690713)
(5.47053e-16 -0.662134 0.658249)
(4.39844e-16 -0.724412 0.590621)
(3.35765e-16 -0.717865 0.48803)
(2.69887e-16 -0.652196 0.359448)
(2.5622e-16 -0.539238 0.222731)
(2.69412e-16 -0.444974 0.140295)
(2.39815e-16 -0.558751 0.232975)
(1.37439e-16 -0.333956 0.115233)
(1.97855e-16 0.00676745 -0.227598)
(1.31334e-16 1.13935 -0.305161)
(-5.74461e-17 2.7214 -0.128515)
(-9.07646e-16 -0.543742 0.384773)
(-9.05866e-16 -0.411243 0.294016)
(-9.05091e-16 -0.445666 0.262399)
(-9.04238e-16 -0.547729 0.223581)
(-9.03238e-16 -0.696774 0.175859)
(-9.01646e-16 -0.861755 0.109905)
(-8.99076e-16 -0.860886 -0.038351)
(-8.97986e-16 -0.793636 -0.103605)
(-8.97007e-16 -0.728058 -0.221769)
(-8.96424e-16 -0.498354 -0.261346)
(-8.96172e-16 -0.320602 -0.207345)
(-8.96126e-16 -0.316986 -0.18516)
(-8.96372e-16 0.209547 -0.269252)
(-8.9647e-16 0.430919 0.0747309)
(-8.98302e-16 -0.950285 -0.216661)
(-8.9844e-16 -0.984483 -0.325439)
(-8.9801e-16 -0.511766 -0.080002)
(-8.97953e-16 -0.395716 0.118553)
(-8.97971e-16 -0.497813 0.0766838)
(-8.97572e-16 0.242649 -0.011964)
(-8.97734e-16 0.485699 0.128194)
(-8.97988e-16 -0.392483 -0.0892752)
(-8.98144e-16 -0.60435 -0.240485)
(-8.98199e-16 -0.416296 -0.197847)
(-8.98208e-16 -0.173215 -0.0548151)
(-8.9824e-16 -0.440936 -0.00272943)
(-8.98843e-16 -0.456511 -0.127704)
(-8.99204e-16 -0.175987 -0.16539)
(-8.96664e-16 0.0424404 -0.160504)
(-8.90856e-16 0.412613 -0.0872164)
(-8.7887e-16 0.668786 0.0977335)
(-7.94903e-16 -1.36445 0.000759686)
(-7.72717e-16 -5.12905 -0.197356)
(-7.66334e-16 -5.28766 -0.186956)
(-7.61705e-16 -4.6981 -0.197425)
(-7.58481e-16 -3.7617 -0.178177)
(-7.5653e-16 -2.64499 -0.193337)
(-7.55504e-16 -0.0521665 0.272487)
(-7.55449e-16 -0.357915 0.775116)
(-7.55458e-16 -0.596043 0.779055)
(-7.55476e-16 -0.720866 0.719605)
(-7.55495e-16 -0.772304 0.548551)
(-7.55353e-16 -0.80694 0.446175)
(-7.54628e-16 -0.840689 0.38947)
(-7.53552e-16 -0.684041 0.343433)
(-7.52019e-16 0.0372796 -0.373072)
(-7.54315e-16 0.800497 -0.986906)
(-7.57376e-16 1.10465 -1.28637)
(-7.61309e-16 1.10536 -1.33855)
(-7.64708e-16 0.873802 -1.05051)
(-7.78431e-16 0.354219 -0.98828)
(-7.64734e-16 0.708567 -1.35811)
(-7.19856e-16 1.52616 -1.68463)
(-6.79936e-16 2.29068 -1.48646)
(-6.67983e-16 2.68444 -0.525816)
(-6.35853e-16 -4.5158 0.207812)
(-3.44063e-16 -4.59191 -0.46706)
(1.6998e-16 -2.25679 -0.439543)
(4.25012e-16 -0.396716 -0.266481)
(5.01975e-16 1.04398 -0.135487)
(6.68745e-16 1.17351 0.236765)
(7.16229e-16 0.972415 0.397665)
(7.03702e-16 0.772419 0.577521)
(7.09045e-16 0.511791 0.654001)
(7.11928e-16 0.306095 0.715915)
(7.03735e-16 -0.121528 0.712919)
(6.73882e-16 -0.364423 0.711347)
(6.18073e-16 -0.54387 0.697673)
(5.32623e-16 -0.665903 0.657554)
(4.26572e-16 -0.720642 0.58272)
(3.27344e-16 -0.707964 0.474864)
(2.67319e-16 -0.639271 0.343509)
(2.56919e-16 -0.530569 0.20489)
(2.69433e-16 -0.451989 0.107952)
(2.36258e-16 -0.556721 0.194595)
(1.37715e-16 -0.317203 0.0835106)
(1.99357e-16 0.149079 -0.211537)
(1.4031e-16 1.13313 -0.3282)
(-5.47882e-17 2.69823 -0.159688)
(-9.07507e-16 -0.532557 0.382145)
(-9.05714e-16 -0.401847 0.284478)
(-9.04988e-16 -0.438343 0.256433)
(-9.04161e-16 -0.538852 0.219791)
(-9.03166e-16 -0.684061 0.174557)
(-9.01582e-16 -0.839102 0.109259)
(-8.99078e-16 -0.837465 -0.0344248)
(-8.9801e-16 -0.772696 -0.101413)
(-8.97057e-16 -0.70959 -0.217853)
(-8.96474e-16 -0.496686 -0.262224)
(-8.96208e-16 -0.329005 -0.227824)
(-8.96158e-16 -0.311121 -0.202094)
(-8.964e-16 0.186187 -0.274274)
(-8.96512e-16 0.416036 0.070532)
(-8.98252e-16 -0.903131 -0.209629)
(-8.98467e-16 -0.997569 -0.348006)
(-8.98053e-16 -0.555174 -0.121892)
(-8.97959e-16 -0.419682 0.0973462)
(-8.98014e-16 -0.478166 0.0302198)
(-8.97601e-16 0.230942 -0.0182783)
(-8.97737e-16 0.480877 0.121532)
(-8.97975e-16 -0.340078 -0.054872)
(-8.98135e-16 -0.591532 -0.251971)
(-8.98197e-16 -0.43441 -0.224692)
(-8.98208e-16 -0.193984 -0.0707376)
(-8.9823e-16 -0.426148 -0.00763366)
(-8.98818e-16 -0.444153 -0.133159)
(-8.99294e-16 -0.176579 -0.168913)
(-8.96959e-16 0.0377684 -0.163767)
(-8.91144e-16 0.389222 -0.0906012)
(-8.79681e-16 0.656738 0.105506)
(-7.95243e-16 -1.33588 0.00538444)
(-7.72763e-16 -5.10959 -0.196502)
(-7.66349e-16 -5.28775 -0.188687)
(-7.61737e-16 -4.69767 -0.196985)
(-7.58505e-16 -3.76654 -0.170555)
(-7.5654e-16 -2.66494 -0.188054)
(-7.55501e-16 -0.176669 0.272842)
(-7.55442e-16 -0.384004 0.739751)
(-7.55458e-16 -0.595965 0.739351)
(-7.55485e-16 -0.697208 0.674682)
(-7.55487e-16 -0.747593 0.510103)
(-7.55288e-16 -0.803426 0.446153)
(-7.54518e-16 -0.83262 0.424284)
(-7.52965e-16 -0.635232 0.385538)
(-7.51815e-16 0.180878 -0.475527)
(-7.54846e-16 0.886619 -1.06206)
(-7.58547e-16 1.13572 -1.33809)
(-7.63323e-16 1.07871 -1.36971)
(-7.6982e-16 0.817328 -1.1166)
(-7.82604e-16 0.392908 -1.07837)
(-7.63949e-16 0.772965 -1.50521)
(-7.1733e-16 1.53078 -1.77123)
(-6.75645e-16 2.18138 -1.54063)
(-6.63676e-16 2.45785 -0.576715)
(-6.36544e-16 -4.43394 0.137613)
(-3.49409e-16 -4.57908 -0.541884)
(1.55622e-16 -2.27793 -0.456111)
(4.12813e-16 -0.41368 -0.254048)
(5.03083e-16 0.996328 -0.117823)
(6.71175e-16 1.12313 0.235218)
(7.13702e-16 0.938574 0.38069)
(6.99592e-16 0.748859 0.563307)
(7.03741e-16 0.496028 0.646584)
(7.05728e-16 0.295216 0.712701)
(6.9613e-16 -0.119413 0.721322)
(6.63853e-16 -0.359997 0.719404)
(6.05209e-16 -0.535861 0.700826)
(5.18214e-16 -0.651981 0.653723)
(4.13804e-16 -0.70027 0.572539)
(3.19587e-16 -0.682581 0.460206)
(2.6515e-16 -0.61152 0.326491)
(2.57563e-16 -0.505718 0.185884)
(2.69167e-16 -0.440556 0.0755218)
(2.32773e-16 -0.544424 0.160971)
(1.37462e-16 -0.292775 0.0482654)
(1.9579e-16 0.195254 -0.24094)
(1.49772e-16 1.12578 -0.351683)
(-5.10284e-17 2.66907 -0.109099)
(-9.07364e-16 -0.519603 0.379607)
(-9.05566e-16 -0.390203 0.276527)
(-9.04887e-16 -0.429843 0.252274)
(-9.04083e-16 -0.529851 0.217424)
(-9.03092e-16 -0.672035 0.174185)
(-9.01516e-16 -0.818375 0.109095)
(-8.99078e-16 -0.815111 -0.0304292)
(-8.98032e-16 -0.752585 -0.0992745)
(-8.97105e-16 -0.692062 -0.214196)
(-8.96524e-16 -0.493299 -0.262991)
(-8.96248e-16 -0.332039 -0.245383)
(-8.96191e-16 -0.302643 -0.217338)
(-8.9643e-16 0.16358 -0.278784)
(-8.96556e-16 0.398961 0.0661817)
(-8.98197e-16 -0.852857 -0.201792)
(-8.98489e-16 -1.00568 -0.370292)
(-8.98102e-16 -0.598513 -0.168283)
(-8.97971e-16 -0.435731 0.0670199)
(-8.98041e-16 -0.450659 -0.0101145)
(-8.97633e-16 0.216206 -0.0262974)
(-8.9774e-16 0.471348 0.112132)
(-8.97962e-16 -0.287359 -0.01628)
(-8.98124e-16 -0.575214 -0.259798)
(-8.98194e-16 -0.452653 -0.252813)
(-8.98208e-16 -0.219495 -0.0950422)
(-8.98217e-16 -0.410276 -0.01717)
(-8.98787e-16 -0.432939 -0.14027)
(-8.99341e-16 -0.181141 -0.174698)
(-8.97255e-16 0.0328571 -0.168284)
(-8.91472e-16 0.36507 -0.0951776)
(-8.80583e-16 0.642909 0.111826)
(-7.95577e-16 -1.30592 0.00963875)
(-7.7281e-16 -5.08953 -0.195254)
(-7.66364e-16 -5.28861 -0.189885)
(-7.61769e-16 -4.69894 -0.196806)
(-7.58529e-16 -3.77309 -0.164611)
(-7.56549e-16 -2.6898 -0.183781)