/*--------------------------------*- C++ -*----------------------------------*\
| =========                 |                                                 |
| \\      /  F ield         | OpenFOAM: The Open Source CFD Toolbox           |
|  \\    /   O peration     | Version:  4.1                                   |
|   \\  /    A nd           | Web:      www.OpenFOAM.org                      |
|    \\/     M anipulation  |                                                 |
\*---------------------------------------------------------------------------*/
FoamFile
{
    version     2.0;
    format      ascii;
    class       surfaceScalarField;
    location    "10";
    object      phi;
}
// * * * * * * * * * * * * * * * * * * * * * * * * * * * * * * * * * * * * * //

dimensions      [0 3 -1 0 0 0 0];

internalField   nonuniform List<scalar> 
420
(
-949.879
2249.78
-1573.96
1924.28
-2054
1779.95
-2424.23
1670.13
-2699.86
1575.83
-2888.38
1488.42
-2993.06
1404.58
-3013.86
1321
-2949.61
1235.66
-2797.23
1147.52
-2551.17
1054.13
-2193
941.735
-1687.17
794.065
-1012.67
625.704
287.229
373.335
1876.44
442.748
1854.86
437.3
1785.39
406.697
1700.74
380.579
1601.94
359.9
1509.1
345.291
1419.19
337.534
1328.76
333.482
1239.71
326.952
1154.05
309.608
1071.48
267.465
983.877
191.427
870.103
111.447
705.684
398.676
33.5755
1842.87
-97.3892
1985.83
-253.613
1941.62
-371.12
1818.24
-473.183
1704.01
-567.533
1603.45
-651.749
1503.4
-725.797
1402.8
-788.074
1301.99
-837.307
1203.28
-868.227
1102.4
-856.089
971.74
-740.336
754.351
-434.284
399.633
-35.6078
28.7763
1814.09
-100.652
2115.26
-225.56
2066.53
-304.496
1897.18
-368.158
1767.67
-416.954
1652.24
-446.229
1532.68
-457.017
1413.59
-451.854
1296.83
-430.156
1181.59
-387.228
1059.47
-311.874
896.386
-192.866
635.343
-48.4075
255.176
-84.0156
169.627
1644.47
146.158
2138.72
123.733
2088.95
122.87
1898.04
126.943
1763.6
135.807
1643.38
149.105
1519.38
166.593
1396.1
186.945
1276.48
208.133
1160.4
229.133
1038.47
243.823
881.695
233.004
646.161
155.229
332.951
71.214
223.077
1421.39
244.184
2117.62
234.748
2098.39
236.029
1896.76
240.377
1759.25
244.311
1639.45
246.553
1517.14
245.256
1397.4
241.166
1280.57
233.992
1167.57
221.385
1051.08
199.142
903.94
156.143
689.162
78.3035
410.793
149.518
203.322
1218.07
238.381
2082.57
213.627
2123.14
191.416
1918.97
177.206
1773.46
163.772
1652.88
150.037
1530.87
135.894
1411.54
121.068
1295.39
106.916
1181.72
92.8197
1065.17
75.7693
920.991
52.0236
712.909
19.022
443.796
168.54
171.859
1046.21
221.99
2032.43
199.426
2145.7
170.402
1947.99
152.05
1791.81
137.667
1667.26
122.781
1545.76
108.582
1425.74
95.5886
1308.39
83.1104
1194.2
71.4915
1076.79
58.6425
933.843
40.3309
731.222
15.7528
468.374
184.292
146.097
900.11
210.052
1968.47
196.869
2158.89
170.049
1974.81
152.407
1809.46
139.546
1680.13
127.087
1558.23
113.886
1438.95
101.343
1320.93
89.4443
1206.11
77.01
1089.23
63.1093
947.742
44.3209
750.008
19.1732
493.519
203.467
116.753
783.362
184.842
1900.39
179.628
2164.11
154.327
2000.13
137.245
1826.55
124.031
1693.35
111.399
1570.86
98.9905
1451.36
86.135
1333.79
73.8936
1218.35
62.125
1101
49.045
960.824
32.8739
766.182
13.1971
513.199
216.663
83.1578
700.207
143.143
1840.42
144.698
2162.56
122.776
2022.06
106.16
1843.16
94.4614
1705.04
82.5705
1582.74
71.1523
1462.77
60.3683
1344.57
49.4406
1229.27
39.4059
1111.02
29.7304
970.505
18.0795
777.845
5.24792
526.046
221.906
51.2523
648.95
97.942
1793.73
102.717
2157.77
87.3683
2037.39
73.1277
1857.39
63.1045
1715.05
54.2053
1591.64
44.8213
1472.15
36.1147
1353.28
28.1393
1237.25
20.3984
1118.77
13.6627
977.241
6.72675
784.781
-0.415493
533.183
221.48
25.1432
623.815
57.7068
1761.14
63.4913
2151.97
53.4434
2047.43
43.8679
1866.96
36.1601
1722.76
29.5459
1598.27
23.5122
1478.2
17.068
1359.73
11.3257
1243
6.62367
1123.48
2.49885
981.376
-1.05248
788.33
-3.67739
535.793
217.791
1.41439
622.422
24.012
1738.52
33.3274
2142.68
27.713
2053.05
20.3696
1874.31
15.0895
1728.06
9.56598
1603.79
4.62264
1483.14
0.0747213
1364.26
-4.79466
1247.86
-8.31031
1126.99
-9.64443
982.682
-9.73157
788.392
-7.15622
533.201
210.637
-11.7675
-3.17472
1.41958
-0.422611
-5.11067
-8.85955
-11.8185
-15.2675
-18.1251
-20.2582
-21.8194
-21.1583
-18.168
-12.4148
)
;

boundaryField
{
    inletFace
    {
        type            calculated;
        value           nonuniform List<scalar> 
450
(
5.62836e-15
6.40428e-13
-1.28199e-14
-9.27761e-14
7.25298e-14
-1.83457e-13
-5.01195e-14
7.10689e-14
-1.04445e-13
-3.43866e-14
4.36705e-14
-5.38736e-14
-1.6886e-15
1.31897e-14
1.14003e-16
-1.99559e-12
-2.31545e-12
7.88248e-14
-1.40043e-13
-3.21615e-13
2.72364e-14
-3.30104e-13
-1.65226e-13
3.91892e-15
-1.40994e-13
-6.54877e-14
1.2889e-14
-7.65795e-14
-1.10021e-14
5.60202e-16
-2.34796e-12
-2.36923e-12
-2.16991e-14
-2.97773e-13
-8.24963e-14
-1.45707e-13
-3.55947e-13
-1.35794e-13
-9.19701e-14
-1.34209e-13
-4.77855e-14
-4.87557e-14
-5.51868e-14
7.00073e-15
7.75961e-15
-2.74249e-12
-2.08653e-12
-1.21943e-13
-5.46016e-13
-1.02059e-14
-2.34281e-13
-4.19933e-13
-9.81411e-14
-1.64708e-13
-1.90345e-13
-5.51859e-14
-8.57164e-14
-9.63867e-14
2.99453e-14
6.25481e-14
-2.42138e-12
-2.38758e-12
-3.33512e-13
-5.32246e-13
-1.83956e-13
-2.02998e-13
-3.68108e-13
-8.17803e-14
-1.78465e-13
-1.71161e-13
-5.7681e-14
-6.19505e-14
-6.58401e-14
8.98659e-15
7.71169e-14
-2.13093e-12
-2.48446e-12
-5.89562e-13
-5.65176e-13
-1.98178e-13
-1.73153e-13
-3.0165e-13
-6.26624e-14
-7.75279e-14
-1.3239e-13
-5.28794e-14
-3.2023e-14
-3.74104e-14
2.43657e-14
4.47636e-14
-1.91086e-12
-2.47784e-12
-8.55961e-13
-5.91396e-13
-2.61726e-13
-2.1782e-13
-2.93683e-13
-1.38432e-13
-7.77311e-14
-1.19749e-13
-8.55133e-14
-1.00999e-13
-5.07487e-14
-4.96388e-14
-1.0124e-13
-1.69543e-12
-2.48434e-12
-1.09419e-12
-6.04179e-13
-3.19949e-13
-2.27711e-13
-2.46389e-13
-1.81315e-13
-1.39119e-13
-1.28391e-13
-1.23947e-13
-1.85121e-13
-7.32991e-14
-1.50148e-14
-1.81924e-13
-1.44375e-12
-2.43724e-12
-1.25202e-12
-6.49575e-13
-3.63822e-13
-2.20305e-13
-2.32012e-13
-1.72103e-13
-1.18794e-13
-1.48511e-13
-1.2796e-13
-8.57523e-14
-9.47939e-14
-3.40033e-14
-8.87249e-14
-1.22905e-12
-2.36885e-12
-1.36802e-12
-7.04087e-13
-3.93058e-13
-2.14957e-13
-2.52377e-13
-1.79835e-13
-9.02452e-14
-8.4633e-14
-1.0783e-13
6.95045e-15
-7.91709e-14
-6.29423e-14
1.49265e-14
-1.00889e-12
-2.26279e-12
-1.45454e-12
-7.2548e-13
-4.09883e-13
-2.20949e-13
-2.24287e-13
-1.83652e-13
-8.62587e-14
-2.55799e-14
-9.89406e-14
-7.18502e-14
-2.87479e-14
-3.51166e-14
1.00198e-13
-8.578e-13
-2.18128e-12
-1.47924e-12
-7.61722e-13
-4.37465e-13
-1.98133e-13
-2.18999e-13
-1.80383e-13
-2.95831e-14
-6.12965e-14
-1.12017e-13
-6.00538e-14
-2.2444e-14
1.02039e-13
1.50706e-13
-7.97422e-13
-2.11878e-12
-1.49849e-12
-7.91904e-13
-4.6111e-13
-1.95826e-13
-2.17494e-13
-1.96963e-13
-1.94649e-14
-6.19913e-14
-1.13558e-13
4.84438e-15
-2.3327e-14
1.14297e-13
1.37038e-13
-7.41582e-13
-2.0498e-12
-1.50928e-12
-8.01913e-13
-4.69118e-13
-2.02708e-13
-2.15219e-13
-2.27361e-13
-3.6081e-14
-6.45166e-14
-1.14361e-13
2.05228e-14
-1.84774e-14
9.80871e-14
1.17529e-13
-7.17312e-13
-1.95984e-12
-1.48956e-12
-8.03444e-13
-4.59806e-13
-2.13621e-13
-2.20242e-13
-2.1586e-13
-5.06599e-14
-7.37322e-14
-9.70055e-14
8.96101e-15
-8.20249e-15
9.78946e-14
6.32887e-14
-5.62836e-15
-6.40428e-13
1.28199e-14
9.27761e-14
-7.25298e-14
1.83457e-13
5.01195e-14
-7.10689e-14
1.04445e-13
3.43866e-14
-4.36705e-14
5.38736e-14
1.6886e-15
-1.31897e-14
-1.14003e-16
1.99559e-12
2.31545e-12
-7.88248e-14
1.40043e-13
3.21615e-13
-2.72364e-14
3.30104e-13
1.65226e-13
-3.91892e-15
1.40994e-13
6.54877e-14
-1.2889e-14
7.65795e-14
1.10021e-14
-5.60202e-16
2.34796e-12
2.36923e-12
2.16991e-14
2.97773e-13
8.24963e-14
1.45707e-13
3.55947e-13
1.35794e-13
9.19701e-14
1.34209e-13
4.77855e-14
4.87557e-14
5.51868e-14
-7.00073e-15
-7.75961e-15
2.74249e-12
2.08653e-12
1.21943e-13
5.46016e-13
1.02059e-14
2.34281e-13
4.19933e-13
9.81411e-14
1.64708e-13
1.90345e-13
5.51859e-14
8.57164e-14
9.63867e-14
-2.99453e-14
-6.25481e-14
2.42138e-12
2.38758e-12
3.33512e-13
5.32246e-13
1.83956e-13
2.02998e-13
3.68108e-13
8.17803e-14
1.78465e-13
1.71161e-13
5.7681e-14
6.19505e-14
6.58401e-14
-8.98659e-15
-7.71169e-14
2.13093e-12
2.48446e-12
5.89562e-13
5.65176e-13
1.98178e-13
1.73153e-13
3.0165e-13
6.26624e-14
7.75279e-14
1.3239e-13
5.28794e-14
3.2023e-14
3.74104e-14
-2.43657e-14
-4.47636e-14
1.91086e-12
2.47784e-12
8.55961e-13
5.91396e-13
2.61726e-13
2.1782e-13
2.93683e-13
1.38432e-13
7.77311e-14
1.19749e-13
8.55133e-14
1.00999e-13
5.07487e-14
4.96388e-14
1.0124e-13
1.69543e-12
2.48434e-12
1.09419e-12
6.04179e-13
3.19949e-13
2.27711e-13
2.46389e-13
1.81315e-13
1.39119e-13
1.28391e-13
1.23947e-13
1.85121e-13
7.32991e-14
1.50148e-14
1.81924e-13
1.44375e-12
2.43724e-12
1.25202e-12
6.49575e-13
3.63822e-13
2.20305e-13
2.32012e-13
1.72103e-13
1.18794e-13
1.48511e-13
1.2796e-13
8.57523e-14
9.47939e-14
3.40033e-14
8.87249e-14
1.22905e-12
2.36885e-12
1.36802e-12
7.04087e-13
3.93058e-13
2.14957e-13
2.52377e-13
1.79835e-13
9.02452e-14
8.4633e-14
1.0783e-13
-6.95045e-15
7.91709e-14
6.29423e-14
-1.49265e-14
1.00889e-12
2.26279e-12
1.45454e-12
7.2548e-13
4.09883e-13
2.20949e-13
2.24287e-13
1.83652e-13
8.62587e-14
2.55799e-14
9.89406e-14
7.18502e-14
2.87479e-14
3.51166e-14
-1.00198e-13
8.578e-13
2.18128e-12
1.47924e-12
7.61722e-13
4.37465e-13
1.98133e-13
2.18999e-13
1.80383e-13
2.95831e-14
6.12965e-14
1.12017e-13
6.00538e-14
2.2444e-14
-1.02039e-13
-1.50706e-13
7.97422e-13
2.11878e-12
1.49849e-12
7.91904e-13
4.6111e-13
1.95826e-13
2.17494e-13
1.96963e-13
1.94649e-14
6.19913e-14
1.13558e-13
-4.84438e-15
2.3327e-14
-1.14297e-13
-1.37038e-13
7.41582e-13
2.0498e-12
1.50928e-12
8.01913e-13
4.69118e-13
2.02708e-13
2.15219e-13
2.27361e-13
3.6081e-14
6.45166e-14
1.14361e-13
-2.05228e-14
1.84774e-14
-9.80871e-14
-1.17529e-13
7.17312e-13
1.95984e-12
1.48956e-12
8.03444e-13
4.59806e-13
2.13621e-13
2.20242e-13
2.1586e-13
5.06599e-14
7.37322e-14
9.70055e-14
-8.96101e-15
8.20249e-15
-9.78946e-14
-6.32887e-14
)
;
    }
    inlet
    {
        type            calculated;
        value           nonuniform List<scalar> 
15
(
-1299.9
-1300.2
-1299.9
-1299.9
-1300.2
-1299.9
-1299.9
-1300.2
-1299.9
-1299.9
-1300.2
-1299.9
-1299.9
-1300.2
-1299.9
)
;
    }
    inletWalls
    {
        type            calculated;
        value           uniform 0;
    }
    outletInlet
    {
        type            calculated;
        value           nonuniform List<scalar> 
15
(
198.244
527.46
785.398
982.01
1128.54
1249.99
1367.12
1486.57
1606.74
1731.8
1879
2054.9
2138.1
1729.94
634.179
)
;
    }
}


// ************************************************************************* //
