/*--------------------------------*- C++ -*----------------------------------*\
| =========                 |                                                 |
| \\      /  F ield         | OpenFOAM: The Open Source CFD Toolbox           |
|  \\    /   O peration     | Version:  4.1                                   |
|   \\  /    A nd           | Web:      www.OpenFOAM.org                      |
|    \\/     M anipulation  |                                                 |
\*---------------------------------------------------------------------------*/
FoamFile
{
    version     2.0;
    format      ascii;
    class       volVectorField;
    location    "10";
    object      U;
}
// * * * * * * * * * * * * * * * * * * * * * * * * * * * * * * * * * * * * * //

dimensions      [0 1 -1 0 0 0 0];

internalField   nonuniform List<vector> 
225
(
(1.09922e-14 0.852193 15.7946)
(8.84992e-15 -4.89458 12.1215)
(-3.72113e-15 -4.19551 12.1321)
(2.36207e-15 -3.60118 11.9966)
(1.10142e-15 -3.00468 11.8778)
(-2.62841e-16 -2.55319 11.6992)
(1.84322e-15 -2.20881 11.4769)
(2.52521e-16 -1.96603 11.2116)
(-3.25564e-17 -1.79855 10.916)
(1.02123e-15 -1.71238 10.5882)
(1.13707e-16 -1.83746 10.1561)
(-8.47696e-17 -2.28567 9.53762)
(5.44818e-16 -2.51301 8.96378)
(-9.13099e-17 -1.06552 8.91357)
(-7.89221e-19 1.76574 7.4709)
(1.45047e-14 -5.35014 22.493)
(1.60312e-14 -14.6049 21.394)
(-5.45688e-16 -13.2708 20.3412)
(1.34315e-15 -11.7697 19.5066)
(2.22674e-15 -11.1561 18.5044)
(-1.88552e-16 -10.6594 17.5174)
(2.50676e-15 -10.0901 16.5714)
(1.14396e-15 -9.525 15.6236)
(-2.71299e-17 -8.96544 14.6638)
(9.43366e-16 -8.36731 13.6946)
(4.5341e-16 -7.75709 12.7179)
(-8.92279e-17 -7.30335 11.7194)
(5.29446e-16 -7.01705 10.6244)
(7.61738e-17 -5.73095 9.16116)
(-3.87816e-18 -2.30499 4.58318)
(1.83002e-14 -7.71562 23.9801)
(1.60061e-14 -16.7731 24.6729)
(1.50236e-16 -13.7365 23.9372)
(3.58077e-15 -12.3062 22.6249)
(5.71107e-16 -11.6447 21.2414)
(1.00882e-15 -10.814 20.0013)
(3.60415e-15 -9.94025 18.7738)
(7.48625e-16 -9.10011 17.5247)
(6.36765e-16 -8.28338 16.2654)
(1.52097e-15 -7.47524 15.0263)
(3.30811e-16 -6.66762 13.8176)
(3.37565e-16 -5.84165 12.4301)
(7.44539e-16 -4.81389 10.2753)
(-4.84648e-17 -3.12625 6.68441)
(-5.37246e-17 -0.832102 1.68986)
(1.8979e-14 -8.50255 22.0462)
(1.44448e-14 -16.6211 24.332)
(8.44194e-16 -12.93 23.7971)
(3.78044e-15 -12.1536 21.9985)
(-5.54422e-19 -11.4201 20.5028)
(1.67054e-15 -10.4936 19.1722)
(2.90748e-15 -9.63387 17.8167)
(6.00428e-16 -8.82359 16.459)
(1.1681e-15 -8.05363 15.123)
(1.30298e-15 -7.32378 13.8164)
(3.73913e-16 -6.55247 12.4394)
(5.84046e-16 -5.49087 10.583)
(6.42525e-16 -3.78524 7.50866)
(-1.4685e-17 -1.49363 2.76598)
(-7.4785e-16 0.153305 -1.77303)
(1.65512e-14 -8.47609 19.748)
(1.63575e-14 -16.3601 24.312)
(2.13053e-15 -13.099 23.6602)
(3.49005e-15 -12.628 21.5365)
(9.6257e-16 -11.8565 20.0248)
(1.18553e-15 -10.9574 18.6637)
(2.43147e-15 -10.1698 17.2587)
(3.17533e-16 -9.40278 15.8711)
(1.10314e-15 -8.65259 14.5236)
(1.11441e-15 -7.93052 13.2136)
(2.47854e-16 -7.16588 11.8292)
(3.44209e-16 -6.11615 9.99627)
(3.49464e-16 -4.42401 7.15553)
(-4.20395e-16 -2.30526 3.28786)
(-9.00038e-16 -0.787172 0.317698)
(1.49763e-14 -8.02186 17.5536)
(1.72415e-14 -16.0195 24.5277)
(4.20898e-15 -13.6434 24.0462)
(3.95882e-15 -12.9943 21.7651)
(1.42109e-15 -12.1264 20.2158)
(1.35492e-15 -11.2247 18.847)
(2.08829e-15 -10.439 17.4341)
(4.93092e-16 -9.64889 16.0434)
(6.64287e-16 -8.86036 14.6933)
(9.16521e-16 -8.09326 13.3818)
(4.41555e-16 -7.29731 12.0171)
(4.80482e-16 -6.28459 10.2818)
(2.58988e-16 -4.73301 7.7209)
(1.88925e-16 -2.75613 4.37245)
(6.98011e-16 -0.949376 1.29734)
(1.33629e-14 -7.33734 15.2534)
(1.71751e-14 -15.491 24.3551)
(6.01028e-15 -14.0226 24.4218)
(4.09464e-15 -13.1279 22.0676)
(1.8622e-15 -12.1448 20.4401)
(1.61566e-15 -11.2358 19.0547)
(2.03337e-15 -10.4361 17.6437)
(1.08385e-15 -9.61985 16.2576)
(6.74583e-16 -8.81016 14.9066)
(8.29104e-16 -8.02723 13.5919)
(7.56876e-16 -7.22396 12.2369)
(9.83444e-16 -6.24027 10.5488)
(3.51367e-16 -4.78753 8.10751)
(-3.11751e-17 -2.91411 4.94714)
(1.62372e-15 -1.01084 1.79737)
(1.1552e-14 -6.5561 13.0327)
(1.72003e-14 -14.847 23.8163)
(7.53262e-15 -14.2639 24.6691)
(4.13606e-15 -13.2372 22.3215)
(2.21516e-15 -12.1674 20.5832)
(1.46799e-15 -11.2657 19.1667)
(1.70567e-15 -10.4651 17.7586)
(1.25533e-15 -9.64316 16.3766)
(8.25467e-16 -8.83496 15.0246)
(8.88806e-16 -8.05531 13.7074)
(8.58144e-16 -7.25502 12.3576)
(1.09129e-15 -6.28692 10.6996)
(6.27139e-16 -4.89103 8.33099)
(1.03955e-16 -3.08523 5.26767)
(7.62786e-16 -1.12218 2.04391)
(9.99492e-15 -5.77816 11.1234)
(1.68727e-14 -14.1745 23.0905)
(8.54272e-15 -14.4413 24.8463)
(4.49693e-15 -13.3963 22.6148)
(2.51869e-15 -12.2528 20.7554)
(1.364e-15 -11.3493 19.2955)
(1.60619e-15 -10.5477 17.8904)
(1.19145e-15 -9.72548 16.511)
(6.1859e-16 -8.91949 15.1562)
(1.02812e-15 -8.14029 13.8352)
(8.85855e-16 -7.34002 12.4864)
(3.1314e-16 -6.38023 10.8513)
(6.56247e-16 -5.02359 8.54681)
(2.35401e-16 -3.26582 5.55837)
(-1.02286e-17 -1.23751 2.24764)
(8.30979e-15 -5.08479 9.59896)
(1.63993e-14 -13.5191 22.3)
(9.42848e-15 -14.535 24.9523)
(4.73769e-15 -13.5532 22.9353)
(2.72109e-15 -12.3448 20.9699)
(1.43429e-15 -11.4251 19.4566)
(1.63146e-15 -10.6174 18.0506)
(1.24498e-15 -9.79451 16.6721)
(5.56683e-16 -8.98832 15.3136)
(3.62794e-16 -8.20628 13.9874)
(7.46492e-16 -7.4048 12.6357)
(-1.41729e-16 -6.45156 11.0133)
(3.16192e-16 -5.12532 8.75522)
(4.35742e-16 -3.40662 5.81963)
(-4.0352e-16 -1.31907 2.43098)
(6.77793e-15 -4.53854 8.46201)
(1.56911e-14 -12.9255 21.5503)
(9.91951e-15 -14.535 24.9758)
(5.02226e-15 -13.6654 23.221)
(2.88815e-15 -12.4128 21.1812)
(1.31216e-15 -11.4736 19.6121)
(1.55266e-15 -10.659 18.2004)
(1.33478e-15 -9.83694 16.8209)
(3.22109e-16 -9.03204 15.4585)
(1.77081e-16 -8.24855 14.1269)
(7.67955e-16 -7.44646 12.7692)
(2.14065e-16 -6.49772 11.1498)
(1.99013e-16 -5.1926 8.91852)
(-4.22971e-16 -3.50194 6.01067)
(-1.25211e-15 -1.36383 2.54266)
(5.93844e-15 -4.1702 7.7024)
(1.51266e-14 -12.4377 20.9276)
(1.01981e-14 -14.4734 24.9366)
(5.27331e-15 -13.7316 23.4379)
(3.05392e-15 -12.4592 21.3594)
(1.28935e-15 -11.5039 19.7405)
(1.51611e-15 -10.6832 18.3207)
(1.31271e-15 -9.86355 16.9392)
(1.35341e-16 -9.06115 15.5729)
(4.24348e-16 -8.2776 14.2364)
(7.7548e-16 -7.47488 12.871)
(2.72899e-16 -6.5268 11.2466)
(2.13867e-16 -5.23306 9.02656)
(-7.89409e-16 -3.55804 6.12624)
(-1.23519e-15 -1.3773 2.57265)
(5.42184e-15 -3.97312 7.2792)
(1.46412e-14 -12.0681 20.461)
(1.03961e-14 -14.3843 24.8627)
(5.43604e-15 -13.76 23.5829)
(3.19221e-15 -12.4876 21.4971)
(1.35568e-15 -11.523 19.8407)
(1.47596e-15 -10.6966 18.4121)
(1.46039e-15 -9.88004 17.028)
(9.97114e-17 -9.08063 15.6585)
(4.29208e-16 -8.29728 14.3171)
(8.28317e-16 -7.49322 12.9423)
(-8.14837e-17 -6.54221 11.3063)
(1.61509e-16 -5.25105 9.08446)
(-7.08755e-16 -3.57882 6.17544)
(-1.0967e-15 -1.36508 2.53863)
(5.08653e-15 -3.90356 7.10993)
(1.41779e-14 -11.8312 20.1817)
(1.04256e-14 -14.2998 24.7902)
(5.53956e-15 -13.7668 23.6687)
(3.23499e-15 -12.5019 21.5899)
(1.40328e-15 -11.532 19.9096)
(1.50497e-15 -10.7004 18.4747)
(1.55785e-15 -9.88553 17.0884)
(2.49777e-16 -9.08797 15.7173)
(4.65846e-16 -8.30415 14.3731)
(7.70724e-16 -7.49793 12.9908)
(-1.42073e-16 -6.54322 11.3435)
(1.56941e-16 -5.25337 9.11723)
(-7.19959e-16 -3.58354 6.20144)
(-8.13615e-16 -1.3499 2.50607)
(4.95104e-15 -4.0393 7.28655)
(1.35607e-14 -11.627 19.9522)
(1.0319e-14 -14.1917 24.6682)
(5.56215e-15 -13.7463 23.7082)
(3.17666e-15 -12.5064 21.6736)
(1.48607e-15 -11.5392 19.9772)
(1.52471e-15 -10.6994 18.5349)
(1.48629e-15 -9.8868 17.1436)
(3.59483e-16 -9.09036 15.7693)
(5.1044e-16 -8.30484 14.4183)
(6.66364e-16 -7.4898 13.0147)
(-5.61571e-17 -6.51517 11.328)
(5.67849e-17 -5.20576 9.06102)
(-6.87892e-16 -3.50142 6.08254)
(-4.19062e-16 -1.25229 2.30697)
)
;

boundaryField
{
    inletFace
    {
        type            zeroGradient;
    }
    inlet
    {
        type            fixedValue;
        value           uniform (0 8.7 15);
    }
    inletWalls
    {
        type            noSlip;
    }
    outletInlet
    {
        type            zeroGradient;
    }
}


// ************************************************************************* //
