/*--------------------------------*- C++ -*----------------------------------*\
| =========                 |                                                 |
| \\      /  F ield         | OpenFOAM: The Open Source CFD Toolbox           |
|  \\    /   O peration     | Version:  4.1                                   |
|   \\  /    A nd           | Web:      www.OpenFOAM.org                      |
|    \\/     M anipulation  |                                                 |
\*---------------------------------------------------------------------------*/
FoamFile
{
    version     2.0;
    format      ascii;
    class       volScalarField;
    location    "25";
    object      nut;
}
// * * * * * * * * * * * * * * * * * * * * * * * * * * * * * * * * * * * * * //

dimensions      [0 2 -1 0 0 0 0];

internalField   nonuniform List<scalar> 
225
(
0.251064
5.04457e-22
2.61203e-25
1.26003e-25
2.11101e-25
2.42004e-25
2.4118e-25
2.1227e-25
3.25107e-25
2.92211e-26
6.94127e-10
6.40103e-09
1.83654e-08
4.39925e-07
0.453577
2.025e-16
4.00387e-28
2.19745e-25
7.3275e-09
6.62674e-28
1.25154e-27
1.66576e-27
5.78697e-28
1.11668e-28
4.80655e-26
1.87853e-26
2.45248e-06
2.08168e-06
5.99853e-07
0.357746
2.025e-16
7.9838e-07
2.08518e-27
7.87748e-09
1.71555e-07
3.23837e-07
2.72926e-07
3.05889e-07
2.11913e-07
8.99127e-08
7.61859e-08
8.58862e-09
2.59538e-10
8.38136e-08
0.590439
0.487397
3.10739e-05
3.83468e-30
7.05878e-27
1.63659e-27
1.6006e-07
3.02503e-07
3.1532e-07
1.13946e-07
1.03993e-07
1.06996e-07
3.16338e-07
9.77632e-08
5.66797e-08
0.26158
1.59269
0.000347117
6.14323e-05
1.94296e-05
7.10634e-06
7.49646e-06
6.72036e-05
6.92812e-06
4.78907e-06
1.00249e-05
1.20369e-05
3.85367e-06
3.43919e-06
1.01057e-07
2.025e-16
3.32471
4.08421e-06
2.90185e-07
5.61596e-07
8.06678e-07
4.88086e-07
7.73034e-07
6.85796e-07
8.7166e-07
4.89229e-07
5.91168e-07
3.34208e-07
1.26315e-07
1.2935e-08
0.145869
2.025e-16
1.15348e-06
8.33387e-06
6.91598e-07
1.50557e-06
3.49057e-06
1.00206e-05
4.61493e-06
8.37369e-06
8.31885e-07
3.66747e-08
4.92715e-07
1.70151e-06
1.2954e-06
2.025e-16
0.639413
3.30685e-06
5.4544e-07
1.87478e-30
2.98725e-28
3.21472e-06
3.82333e-06
6.31509e-06
5.44631e-06
4.44155e-07
5.12168e-08
7.02193e-07
2.38795e-06
2.61031e-07
2.025e-16
2.025e-16
2.75056e-05
1.72246e-28
1.52414e-28
0.000495399
0.000355701
2.00354e-05
1.37431e-05
1.27044e-05
2.81535e-06
5.57682e-08
9.99847e-08
1.22226e-28
7.89519e-29
2.025e-16
2.025e-16
0.000239506
1.85269e-05
7.41035e-06
5.57622e-06
2.25971e-05
3.3425e-06
2.35044e-06
4.33327e-06
1.72302e-28
3.02675e-28
1.70531e-27
3.61106e-24
5.62615e-28
1.6859
0.895126
1.15605e-05
1.3871e-05
1.56013e-05
1.12826e-05
9.16353e-06
7.12207e-06
5.61229e-06
1.03962e-06
4.80764e-28
3.59107e-25
1.03297e-23
2.58483e-23
1.20847e-27
1.35182
2.025e-16
1.96288e-30
2.52104e-28
3.36246e-28
2.74672e-28
2.17146e-29
1.31415e-26
1.45726e-26
4.9698e-26
5.82549e-24
5.52423e-23
3.08147e-22
6.51688e-26
3.01136e-29
0.114183
2.025e-16
9.09154e-29
0.000194407
1.75593e-05
4.15963e-05
0.0002053
3.16953e-28
1.00256e-24
4.61242e-25
3.16794e-25
1.61468e-24
1.69599e-22
2.43871e-25
5.92494e-29
2.025e-16
2.025e-16
2.849e-31
2.89291e-27
7.24403e-27
5.121e-27
1.18859e-26
1.29018e-26
1.86543e-26
3.22376e-26
5.5353e-26
5.90443e-25
2.3838e-22
9.71428e-24
5.02261e-27
2.025e-16
1.58026
6.30571e-28
2.42134e-28
3.66817e-28
4.26598e-28
2.54622e-28
7.25359e-28
1.98408e-27
5.79053e-26
1.75349e-24
6.84421e-23
9.14097e-22
1.50103e-23
3.54301e-27
2.025e-16
)
;

boundaryField
{
    inletFace
    {
        type            calculated;
        value           nonuniform List<scalar> 
450
(
0.251064
5.04457e-22
2.61203e-25
1.26003e-25
2.11101e-25
2.42004e-25
2.4118e-25
2.1227e-25
3.25107e-25
2.92211e-26
6.94127e-10
6.40103e-09
1.83654e-08
4.39925e-07
0.453577
2.025e-16
4.00387e-28
2.19745e-25
7.3275e-09
6.62674e-28
1.25154e-27
1.66576e-27
5.78697e-28
1.11668e-28
4.80655e-26
1.87853e-26
2.45248e-06
2.08168e-06
5.99853e-07
0.357746
2.025e-16
7.9838e-07
2.08518e-27
7.87748e-09
1.71555e-07
3.23837e-07
2.72926e-07
3.05889e-07
2.11913e-07
8.99127e-08
7.61859e-08
8.58862e-09
2.59538e-10
8.38136e-08
0.590439
0.487397
3.10739e-05
3.83468e-30
7.05878e-27
1.63659e-27
1.6006e-07
3.02503e-07
3.1532e-07
1.13946e-07
1.03993e-07
1.06996e-07
3.16338e-07
9.77632e-08
5.66797e-08
0.26158
1.59269
0.000347117
6.14323e-05
1.94296e-05
7.10634e-06
7.49646e-06
6.72036e-05
6.92812e-06
4.78907e-06
1.00249e-05
1.20369e-05
3.85367e-06
3.43919e-06
1.01057e-07
2.025e-16
3.32471
4.08421e-06
2.90185e-07
5.61596e-07
8.06678e-07
4.88086e-07
7.73034e-07
6.85796e-07
8.7166e-07
4.89229e-07
5.91168e-07
3.34208e-07
1.26315e-07
1.2935e-08
0.145869
2.025e-16
1.15348e-06
8.33387e-06
6.91598e-07
1.50557e-06
3.49057e-06
1.00206e-05
4.61493e-06
8.37369e-06
8.31885e-07
3.66747e-08
4.92715e-07
1.70151e-06
1.2954e-06
2.025e-16
0.639413
3.30685e-06
5.4544e-07
1.87478e-30
2.98725e-28
3.21472e-06
3.82333e-06
6.31509e-06
5.44631e-06
4.44155e-07
5.12168e-08
7.02193e-07
2.38795e-06
2.61031e-07
2.025e-16
2.025e-16
2.75056e-05
1.72246e-28
1.52414e-28
0.000495399
0.000355701
2.00354e-05
1.37431e-05
1.27044e-05
2.81535e-06
5.57682e-08
9.99847e-08
1.22226e-28
7.89519e-29
2.025e-16
2.025e-16
0.000239506
1.85269e-05
7.41035e-06
5.57622e-06
2.25971e-05
3.3425e-06
2.35044e-06
4.33327e-06
1.72302e-28
3.02675e-28
1.70531e-27
3.61106e-24
5.62615e-28
1.6859
0.895126
1.15605e-05
1.3871e-05
1.56013e-05
1.12826e-05
9.16353e-06
7.12207e-06
5.61229e-06
1.03962e-06
4.80764e-28
3.59107e-25
1.03297e-23
2.58483e-23
1.20847e-27
1.35182
2.025e-16
1.96288e-30
2.52104e-28
3.36246e-28
2.74672e-28
2.17146e-29
1.31415e-26
1.45726e-26
4.9698e-26
5.82549e-24
5.52423e-23
3.08147e-22
6.51688e-26
3.01136e-29
0.114183
2.025e-16
9.09154e-29
0.000194407
1.75593e-05
4.15963e-05
0.0002053
3.16953e-28
1.00256e-24
4.61242e-25
3.16794e-25
1.61468e-24
1.69599e-22
2.43871e-25
5.92494e-29
2.025e-16
2.025e-16
2.849e-31
2.89291e-27
7.24403e-27
5.121e-27
1.18859e-26
1.29018e-26
1.86543e-26
3.22376e-26
5.5353e-26
5.90443e-25
2.3838e-22
9.71428e-24
5.02261e-27
2.025e-16
1.58026
6.30571e-28
2.42134e-28
3.66817e-28
4.26598e-28
2.54622e-28
7.25359e-28
1.98408e-27
5.79053e-26
1.75349e-24
6.84421e-23
9.14097e-22
1.50103e-23
3.54301e-27
2.025e-16
0.251064
5.04457e-22
2.61203e-25
1.26003e-25
2.11101e-25
2.42004e-25
2.4118e-25
2.1227e-25
3.25107e-25
2.92211e-26
6.94127e-10
6.40103e-09
1.83654e-08
4.39925e-07
0.453577
2.025e-16
4.00387e-28
2.19745e-25
7.3275e-09
6.62674e-28
1.25154e-27
1.66576e-27
5.78697e-28
1.11668e-28
4.80655e-26
1.87853e-26
2.45248e-06
2.08168e-06
5.99853e-07
0.357746
2.025e-16
7.9838e-07
2.08518e-27
7.87748e-09
1.71555e-07
3.23837e-07
2.72926e-07
3.05889e-07
2.11913e-07
8.99127e-08
7.61859e-08
8.58862e-09
2.59538e-10
8.38136e-08
0.590439
0.487397
3.10739e-05
3.83468e-30
7.05878e-27
1.63659e-27
1.6006e-07
3.02503e-07
3.1532e-07
1.13946e-07
1.03993e-07
1.06996e-07
3.16338e-07
9.77632e-08
5.66797e-08
0.26158
1.59269
0.000347117
6.14323e-05
1.94296e-05
7.10634e-06
7.49646e-06
6.72036e-05
6.92812e-06
4.78907e-06
1.00249e-05
1.20369e-05
3.85367e-06
3.43919e-06
1.01057e-07
2.025e-16
3.32471
4.08421e-06
2.90185e-07
5.61596e-07
8.06678e-07
4.88086e-07
7.73034e-07
6.85796e-07
8.7166e-07
4.89229e-07
5.91168e-07
3.34208e-07
1.26315e-07
1.2935e-08
0.145869
2.025e-16
1.15348e-06
8.33387e-06
6.91598e-07
1.50557e-06
3.49057e-06
1.00206e-05
4.61493e-06
8.37369e-06
8.31885e-07
3.66747e-08
4.92715e-07
1.70151e-06
1.2954e-06
2.025e-16
0.639413
3.30685e-06
5.4544e-07
1.87478e-30
2.98725e-28
3.21472e-06
3.82333e-06
6.31509e-06
5.44631e-06
4.44155e-07
5.12168e-08
7.02193e-07
2.38795e-06
2.61031e-07
2.025e-16
2.025e-16
2.75056e-05
1.72246e-28
1.52414e-28
0.000495399
0.000355701
2.00354e-05
1.37431e-05
1.27044e-05
2.81535e-06
5.57682e-08
9.99847e-08
1.22226e-28
7.89519e-29
2.025e-16
2.025e-16
0.000239506
1.85269e-05
7.41035e-06
5.57622e-06
2.25971e-05
3.3425e-06
2.35044e-06
4.33327e-06
1.72302e-28
3.02675e-28
1.70531e-27
3.61106e-24
5.62615e-28
1.6859
0.895126
1.15605e-05
1.3871e-05
1.56013e-05
1.12826e-05
9.16353e-06
7.12207e-06
5.61229e-06
1.03962e-06
4.80764e-28
3.59107e-25
1.03297e-23
2.58483e-23
1.20847e-27
1.35182
2.025e-16
1.96288e-30
2.52104e-28
3.36246e-28
2.74672e-28
2.17146e-29
1.31415e-26
1.45726e-26
4.9698e-26
5.82549e-24
5.52423e-23
3.08147e-22
6.51688e-26
3.01136e-29
0.114183
2.025e-16
9.09154e-29
0.000194407
1.75593e-05
4.15963e-05
0.0002053
3.16953e-28
1.00256e-24
4.61242e-25
3.16794e-25
1.61468e-24
1.69599e-22
2.43871e-25
5.92494e-29
2.025e-16
2.025e-16
2.849e-31
2.89291e-27
7.24403e-27
5.121e-27
1.18859e-26
1.29018e-26
1.86543e-26
3.22376e-26
5.5353e-26
5.90443e-25
2.3838e-22
9.71428e-24
5.02261e-27
2.025e-16
1.58026
6.30571e-28
2.42134e-28
3.66817e-28
4.26598e-28
2.54622e-28
7.25359e-28
1.98408e-27
5.79053e-26
1.75349e-24
6.84421e-23
9.14097e-22
1.50103e-23
3.54301e-27
2.025e-16
)
;
    }
    inlet
    {
        type            calculated;
        value           uniform 1.85252e-05;
    }
    inletWalls
    {
        type            nutkWallFunction;
        Cmu             0.09;
        kappa           0.41;
        E               9.8;
        value           nonuniform List<scalar> 
30
(
0
0
0
0
0
0
0
0
0
0.117751
0.0658516
0
0
0
0
0.101518
0
0
0
0
0
0
0
0
0.355525
0.103436
0
0
0
0
)
;
    }
    outletInlet
    {
        type            calculated;
        value           nonuniform List<scalar> 
15
(
2.025e-16
3.54301e-27
1.50103e-23
9.14097e-22
6.84421e-23
1.75349e-24
5.79053e-26
1.98408e-27
7.25359e-28
2.54622e-28
4.26598e-28
3.66817e-28
2.42134e-28
6.30571e-28
1.58026
)
;
    }
}


// ************************************************************************* //
