/*--------------------------------*- C++ -*----------------------------------*\
| =========                 |                                                 |
| \\      /  F ield         | OpenFOAM: The Open Source CFD Toolbox           |
|  \\    /   O peration     | Version:  4.1                                   |
|   \\  /    A nd           | Web:      www.OpenFOAM.org                      |
|    \\/     M anipulation  |                                                 |
\*---------------------------------------------------------------------------*/
FoamFile
{
    version     2.0;
    format      ascii;
    class       volScalarField;
    location    "25";
    object      p;
}
// * * * * * * * * * * * * * * * * * * * * * * * * * * * * * * * * * * * * * //

dimensions      [0 2 -2 0 0 0 0];

internalField   nonuniform List<scalar> 
225
(
589.248
535.886
484.298
435.843
390.941
348.904
309.529
272.491
237.349
203.953
173.007
144.731
115.17
79.6524
50.7737
123.742
101.535
95.989
92.3408
86.9392
81.2685
76.1285
71.7415
68.2438
65.7597
64.5341
64.9875
67.0186
68.7043
69.1001
25.9904
19.5156
25.1014
29.3918
32.4027
35.8243
39.5341
43.2724
46.9644
50.482
53.6604
56.6334
59.6925
62.069
62.676
76.0391
75.3719
81.3042
80.8115
80.0713
79.7724
79.2549
78.5863
77.8797
77.1469
76.3679
75.5144
74.8566
75.0638
75.1207
109.645
105.178
108.828
106.398
101.226
97.1289
94.0908
91.2147
88.4935
86.1014
84.1955
83.0965
82.3684
81.9709
81.9722
57.5051
63.2438
74.4155
73.82
68.5082
66.5676
66.6652
66.3672
65.5747
64.8536
64.3969
64.2959
64.1423
63.2253
62.1921
20.4194
19.5677
22.2961
22.2764
21.1077
23.2115
27.9056
31.337
33.0079
34.4094
35.4666
35.844
35.8426
35.3566
34.2474
-0.426349
0.264173
4.73792
6.38658
8.28799
11.3658
14.5655
16.6543
17.8263
19.2326
20.3456
20.6571
20.8335
20.943
20.3243
15.0623
11.4145
13.5982
13.7645
12.6204
13.8438
16.5199
17.4168
17.3261
17.5552
17.3785
16.7339
15.7892
14.1967
15.7398
42.3445
35.3394
36.1857
37.8148
35.383
33.1593
31.8274
29.9878
28.3445
27.6575
27.0582
26.4464
26.5083
22.8801
21.4094
50.2914
45.8351
45.1621
46.0368
44.5911
43.3365
43.1988
43.0903
43.1091
43.7338
44.5163
45.2383
47.2871
46.2656
44.4265
39.6506
40.6851
39.795
39.3992
39.462
41.0495
42.4783
43.4243
44.4898
45.4154
46.1267
46.3353
47.3648
46.2863
45.7713
39.4157
37.112
33.1288
32.9698
33.3011
32.4129
36.1497
38.6669
38.179
37.4752
36.8248
35.7522
35.5323
33.673
33.0119
37.8399
37.142
36.5153
37.0226
36.4692
32.1842
30.8604
29.7126
27.0894
25.2474
24.0265
22.5826
22.1962
20.1864
19.4194
18.54
20.8366
22.9768
21.7274
19.0435
16.1341
14.7577
13.7334
12.214
11.1474
10.4483
9.39089
9.15672
7.69037
6.82222
)
;

boundaryField
{
    inletFace
    {
        type            zeroGradient;
    }
    inlet
    {
        type            zeroGradient;
    }
    inletWalls
    {
        type            zeroGradient;
    }
    outletInlet
    {
        type            fixedValue;
        value           uniform 0;
    }
}


// ************************************************************************* //
