/*--------------------------------*- C++ -*----------------------------------*\
| =========                 |                                                 |
| \\      /  F ield         | OpenFOAM: The Open Source CFD Toolbox           |
|  \\    /   O peration     | Version:  4.1                                   |
|   \\  /    A nd           | Web:      www.OpenFOAM.org                      |
|    \\/     M anipulation  |                                                 |
\*---------------------------------------------------------------------------*/
FoamFile
{
    version     2.0;
    format      ascii;
    class       surfaceScalarField;
    location    "25";
    object      phi;
}
// * * * * * * * * * * * * * * * * * * * * * * * * * * * * * * * * * * * * * //

dimensions      [0 3 -1 0 0 0 0];

internalField   nonuniform List<scalar> 
420
(
-948.711
2248.61
-1563.18
1914.66
-2045.63
1782.35
-2414.68
1668.94
-2688.74
1574.26
-2875.59
1486.75
-2978.4
1402.7
-2997.18
1318.99
-2931.26
1233.98
-2778.13
1146.76
-2532.94
1055.01
-2177.48
944.431
-1676.87
799.29
-1034.84
658.164
265.063
385.145
1863.45
460.341
1839.45
464.535
1778.14
435.472
1697.98
413.518
1596.19
398.974
1501.28
390.601
1411.05
388.954
1320.62
391.403
1231.51
392.145
1146.01
381.845
1065.3
342.408
983.844
257.924
883.751
154.312
761.752
419.374
51.4863
1811.95
-39.3271
1930.25
-176.197
1915
-254.096
1775.87
-317.525
1659.6
-380.462
1564.2
-437.038
1467.61
-484.482
1368.04
-520.893
1267.9
-543.068
1168.15
-552.299
1074.51
-546.047
977.539
-495.749
833.393
-282.588
548.529
136.787
214.765
1597.17
229.468
1915.53
113.02
2031.43
22.8821
1865.99
-31.7648
1714.24
-59.0914
1591.51
-70.0807
1478.58
-76.1557
1374.09
-74.4701
1266.19
-66.5905
1160.25
-47.5486
1055.45
-13.3655
943.347
20.2846
799.729
49.5498
519.251
186.336
474.061
1123.11
1229.73
1159.87
1572.31
1688.85
1558.73
1879.57
1431.17
1841.79
1300.12
1722.56
1187.54
1591.15
1084.88
1476.76
983.097
1367.98
877.323
1266.03
772.734
1160.05
667.933
1048.12
534.847
932.796
292.655
761.422
478.992
361.079
762.03
1261.23
259.723
1887.7
1062.37
2098.12
1669.16
1997.96
1941.95
1769.25
1951.27
1540.45
1819.97
1332.88
1684.33
1143.6
1557.26
969.411
1440.24
793.116
1336.35
610.634
1230.66
427.884
1115.6
213.579
975.787
692.571
-270.929
1032.98
297.314
-308.491
863.197
496.501
1118.49
1413.88
1120.85
1939.6
977.407
2094.72
811.767
1985.62
654.192
1841.91
519.241
1692.22
406.949
1552.54
297.123
1446.19
188.64
1339.14
91.1352
1213.12
12.3029
1054.63
704.874
-91.9417
1124.95
-59.9961
-340.394
82.2445
354.287
77.592
1418.54
24.3731
1992.83
-26.6634
2145.77
-74.7527
2033.72
-124.291
1891.46
-155.214
1723.16
-184.037
1581.38
-224.182
1486.34
-266.903
1381.89
-320.591
1266.83
-350.848
1084.91
354.026
91.5911
1033.39
-363.521
114.754
-397.972
388.757
-449.963
1470.54
-446.1
1988.97
-391.183
2090.86
-341.126
1983.67
-307.406
1857.75
-262.208
1677.97
-214.818
1533.99
-174.64
1446.17
-133.938
1341.2
-62.8455
1195.75
-120.128
1142.21
233.898
367.195
666.211
-35.0223
517.004
-6.87927
360.636
101.151
1362.52
175.914
1914.22
209.535
2057.24
231.067
1962.14
260.832
1827.99
291.244
1647.56
335.743
1489.5
392.621
1389.29
440.118
1293.71
523.847
1112.02
377.625
1288.43
611.524
491.704
174.512
393.67
615.045
266.251
488.06
476.964
1151.81
614.37
1776.81
642.393
2029.22
605.536
1999
572.312
1861.22
530.326
1689.55
491.336
1528.49
466.757
1413.87
427.93
1332.55
387.447
1152.51
253.632
1422.25
865.156
252.192
-77.6768
339.368
527.872
243.962
583.469
320.146
1075.63
354.825
1742.14
365.514
2018.53
356.685
2007.83
309.735
1908.17
262.233
1737.05
215.24
1575.49
176.065
1453.05
131.732
1376.87
76.5405
1207.7
6.74104
1492.05
871.897
-243.667
165.985
-11.2738
295.472
63.2701
508.921
111.163
1027.74
148.966
1704.33
195.646
1971.85
223.746
1979.73
189.605
1942.31
150.99
1775.67
113.695
1612.78
82.3095
1484.43
47.4086
1411.78
0.486035
1254.63
-34.8993
1527.43
836.998
-117.319
283.297
79.2419
98.9064
214.532
373.627
363.435
878.832
535.644
1532.12
589.22
1918.28
548.095
2020.86
482.405
2008
393.573
1864.5
303.657
1702.7
225.28
1562.81
154.053
1483
66.6545
1342.02
31.2482
1562.84
868.246
117.916
493.632
600.422
662.88
754.782
775.561
719.833
631.328
519.084
407.824
302.639
213.18
110.79
58.5146
)
;

boundaryField
{
    inletFace
    {
        type            calculated;
        value           nonuniform List<scalar> 
450
(
-6.34982e-11
5.75869e-11
9.38133e-12
2.93949e-12
8.27184e-13
7.3037e-13
2.28758e-12
5.38779e-12
1.03901e-11
1.9803e-11
3.53119e-11
4.80131e-11
4.77247e-11
2.90232e-12
-1.80191e-10
4.01671e-10
-3.03518e-10
-1.0206e-10
-3.47059e-11
-7.28937e-12
2.12283e-12
4.5874e-12
6.37442e-12
1.16172e-11
3.56551e-11
-4.20046e-11
-1.66142e-10
-5.01992e-10
-7.61449e-10
2.0755e-09
-1.91811e-09
2.10692e-09
-4.957e-11
8.75405e-11
1.01433e-11
-4.0336e-12
-3.08176e-13
8.90946e-12
1.74381e-11
-7.45531e-12
-1.60886e-10
-3.78244e-10
-4.87083e-10
2.03621e-10
2.48045e-09
-6.08469e-09
5.64627e-09
-5.38568e-11
-4.66494e-10
-8.394e-11
2.09834e-11
2.80462e-11
2.29278e-11
1.8407e-11
-3.83352e-11
-2.26428e-10
-4.49567e-10
-4.7673e-10
-1.41718e-10
3.48984e-09
-1.07525e-08
5.84028e-09
4.45494e-09
1.61485e-09
2.72023e-10
-8.7592e-11
-8.85176e-11
-2.73059e-11
1.03645e-11
-1.05786e-11
-1.428e-10
-3.58754e-10
-4.79988e-10
-6.1416e-10
1.90493e-09
-2.22426e-08
-2.66436e-12
3.27944e-09
2.54295e-09
1.31894e-09
4.66873e-10
6.77983e-11
-3.81589e-11
-2.50769e-11
-5.18283e-12
-5.99534e-11
-2.27632e-10
-4.00916e-10
-5.08943e-10
7.447e-10
-1.46957e-08
5.8137e-08
2.73611e-08
9.58776e-09
3.04244e-09
9.29048e-10
2.20262e-10
-1.16069e-11
-4.42617e-11
-1.46399e-11
-2.7231e-11
-1.58031e-10
-3.53935e-10
-4.96812e-10
4.03767e-10
-1.26799e-08
6.99373e-08
4.04164e-08
1.36842e-08
3.82859e-09
1.09467e-09
2.66515e-10
-5.92431e-12
-4.58437e-11
-1.113e-11
-2.90522e-11
-1.76888e-10
-3.60221e-10
-2.84115e-10
2.65271e-10
-2.21992e-08
3.67649e-08
3.35427e-08
1.11939e-08
3.24292e-09
9.5413e-10
2.19449e-10
-1.26957e-11
-3.27295e-11
-4.66701e-12
-4.99195e-11
-2.1164e-10
-3.55398e-10
-1.80793e-10
2.1568e-10
-2.5303e-08
4.82723e-10
3.49767e-08
1.1525e-08
3.09879e-09
9.44891e-10
2.81443e-10
2.85089e-11
-6.07423e-12
1.17309e-11
-3.92995e-11
-1.81259e-10
-3.26238e-10
-2.00975e-10
-1.10307e-11
-1.72181e-08
-1.82049e-08
1.03497e-08
1.32664e-08
5.3284e-09
1.43649e-09
3.30689e-10
4.76354e-11
-3.53513e-12
1.04819e-11
-2.00788e-11
-1.32178e-10
-2.78858e-10
-2.21853e-10
-1.04953e-10
-6.10637e-09
-1.87929e-08
-6.09564e-09
1.0459e-08
7.29598e-09
2.35829e-09
4.89481e-10
4.57444e-11
-1.43531e-11
4.90251e-12
-1.15536e-11
-1.07903e-10
-2.52605e-10
-2.14802e-10
-1.42067e-10
-1.37884e-08
-1.75071e-08
-9.54937e-09
8.66141e-09
7.82858e-09
2.68071e-09
5.57797e-10
8.52144e-11
-1.57333e-12
1.81406e-12
-1.14245e-11
-1.00255e-10
-2.40263e-10
-2.1191e-10
-1.36407e-10
-1.40458e-08
-1.64829e-08
-1.22555e-08
5.41016e-09
9.25741e-09
4.33945e-09
8.38959e-10
-6.67028e-11
-7.11088e-11
-1.79916e-12
-3.33582e-12
-8.95645e-11
-2.28722e-10
-2.12162e-10
-1.29965e-10
-7.85015e-09
-1.05038e-08
-1.27086e-08
-5.32289e-09
4.46059e-09
5.75399e-09
2.8344e-09
6.53774e-10
-2.48366e-11
-5.92726e-11
-1.7241e-11
-6.74441e-11
-1.98172e-10
-2.11622e-10
-1.23528e-10
6.34982e-11
-5.75869e-11
-9.38133e-12
-2.93949e-12
-8.27184e-13
-7.3037e-13
-2.28758e-12
-5.38779e-12
-1.03901e-11
-1.9803e-11
-3.53119e-11
-4.80131e-11
-4.77247e-11
-2.90232e-12
1.80191e-10
-4.01671e-10
3.03518e-10
1.0206e-10
3.47059e-11
7.28937e-12
-2.12283e-12
-4.5874e-12
-6.37442e-12
-1.16172e-11
-3.56551e-11
4.20046e-11
1.66142e-10
5.01992e-10
7.61449e-10
-2.0755e-09
1.91811e-09
-2.10692e-09
4.957e-11
-8.75405e-11
-1.01433e-11
4.0336e-12
3.08176e-13
-8.90946e-12
-1.74381e-11
7.45531e-12
1.60886e-10
3.78244e-10
4.87083e-10
-2.03621e-10
-2.48045e-09
6.08469e-09
-5.64627e-09
5.38568e-11
4.66494e-10
8.394e-11
-2.09834e-11
-2.80462e-11
-2.29278e-11
-1.8407e-11
3.83352e-11
2.26428e-10
4.49567e-10
4.7673e-10
1.41718e-10
-3.48984e-09
1.07525e-08
-5.84028e-09
-4.45494e-09
-1.61485e-09
-2.72023e-10
8.7592e-11
8.85176e-11
2.73059e-11
-1.03645e-11
1.05786e-11
1.428e-10
3.58754e-10
4.79988e-10
6.1416e-10
-1.90493e-09
2.22426e-08
2.66436e-12
-3.27944e-09
-2.54295e-09
-1.31894e-09
-4.66873e-10
-6.77983e-11
3.81589e-11
2.50769e-11
5.18283e-12
5.99534e-11
2.27632e-10
4.00916e-10
5.08943e-10
-7.447e-10
1.46957e-08
-5.8137e-08
-2.73611e-08
-9.58776e-09
-3.04244e-09
-9.29048e-10
-2.20262e-10
1.16069e-11
4.42617e-11
1.46399e-11
2.7231e-11
1.58031e-10
3.53935e-10
4.96812e-10
-4.03767e-10
1.26799e-08
-6.99373e-08
-4.04164e-08
-1.36842e-08
-3.82859e-09
-1.09467e-09
-2.66515e-10
5.92431e-12
4.58437e-11
1.113e-11
2.90522e-11
1.76888e-10
3.60221e-10
2.84115e-10
-2.65271e-10
2.21992e-08
-3.67649e-08
-3.35427e-08
-1.11939e-08
-3.24292e-09
-9.5413e-10
-2.19449e-10
1.26957e-11
3.27295e-11
4.66701e-12
4.99195e-11
2.1164e-10
3.55398e-10
1.80793e-10
-2.1568e-10
2.5303e-08
-4.82723e-10
-3.49767e-08
-1.1525e-08
-3.09879e-09
-9.44891e-10
-2.81443e-10
-2.85089e-11
6.07423e-12
-1.17309e-11
3.92995e-11
1.81259e-10
3.26238e-10
2.00975e-10
1.10307e-11
1.72181e-08
1.82049e-08
-1.03497e-08
-1.32664e-08
-5.3284e-09
-1.43649e-09
-3.30689e-10
-4.76354e-11
3.53513e-12
-1.04819e-11
2.00788e-11
1.32178e-10
2.78858e-10
2.21853e-10
1.04953e-10
6.10637e-09
1.87929e-08
6.09564e-09
-1.0459e-08
-7.29598e-09
-2.35829e-09
-4.89481e-10
-4.57444e-11
1.43531e-11
-4.90251e-12
1.15536e-11
1.07903e-10
2.52605e-10
2.14802e-10
1.42067e-10
1.37884e-08
1.75071e-08
9.54937e-09
-8.66141e-09
-7.82858e-09
-2.68071e-09
-5.57797e-10
-8.52144e-11
1.57333e-12
-1.81406e-12
1.14245e-11
1.00255e-10
2.40263e-10
2.1191e-10
1.36407e-10
1.40458e-08
1.64829e-08
1.22555e-08
-5.41016e-09
-9.25741e-09
-4.33945e-09
-8.38959e-10
6.67028e-11
7.11088e-11
1.79916e-12
3.33582e-12
8.95645e-11
2.28722e-10
2.12162e-10
1.29965e-10
7.85015e-09
1.05038e-08
1.27086e-08
5.32289e-09
-4.46059e-09
-5.75399e-09
-2.8344e-09
-6.53774e-10
2.48366e-11
5.92726e-11
1.7241e-11
6.74441e-11
1.98172e-10
2.11622e-10
1.23528e-10
)
;
    }
    inlet
    {
        type            calculated;
        value           nonuniform List<scalar> 
15
(
-1299.9
-1300.2
-1299.9
-1299.9
-1300.2
-1299.9
-1299.9
-1300.2
-1299.9
-1299.9
-1300.2
-1299.9
-1299.9
-1300.2
-1299.9
)
;
    }
    inletWalls
    {
        type            calculated;
        value           uniform 0;
    }
    outletInlet
    {
        type            calculated;
        value           nonuniform List<scalar> 
15
(
926.761
1615.15
1444.45
1572.49
1668.02
1813.97
1976.77
2096.52
2076.6
1897.51
1440.24
816.398
266.879
-276.784
165.399
)
;
    }
}


// ************************************************************************* //
