/*--------------------------------*- C++ -*----------------------------------*\
| =========                 |                                                 |
| \\      /  F ield         | OpenFOAM: The Open Source CFD Toolbox           |
|  \\    /   O peration     | Version:  4.1                                   |
|   \\  /    A nd           | Web:      www.OpenFOAM.org                      |
|    \\/     M anipulation  |                                                 |
\*---------------------------------------------------------------------------*/
FoamFile
{
    version     2.0;
    format      ascii;
    class       volVectorField;
    location    "25";
    object      U;
}
// * * * * * * * * * * * * * * * * * * * * * * * * * * * * * * * * * * * * * //

dimensions      [0 1 -1 0 0 0 0];

internalField   nonuniform List<vector> 
225
(
(4.56012e-13 0.873786 15.8383)
(-3.76528e-13 -4.9504 12.0037)
(-6.87644e-14 -4.18228 12.1626)
(-1.69038e-14 -3.62421 12.0038)
(-4.11853e-15 -3.02381 11.8862)
(-6.5937e-15 -2.57461 11.7043)
(-1.43371e-14 -2.23204 11.4808)
(-3.5804e-14 -1.99138 11.2153)
(-7.34465e-14 -1.82595 10.9217)
(-1.34258e-13 -1.7471 10.5976)
(-2.43622e-13 -1.89058 10.1717)
(-3.33306e-13 -2.35072 9.57533)
(-3.29358e-13 -2.53713 9.05752)
(-1.94282e-14 -1.04519 8.99959)
(1.24632e-12 1.5223 7.10779)
(-2.7793e-12 -5.24061 22.4593)
(2.10144e-12 -14.6455 21.2762)
(7.06543e-13 -13.2502 20.313)
(2.41e-13 -11.7719 19.4233)
(5.04686e-14 -11.1508 18.4131)
(-1.4696e-14 -10.6602 17.4294)
(-3.08891e-14 -10.1011 16.4801)
(-4.41339e-14 -9.54271 15.5268)
(-8.04234e-14 -8.98827 14.5644)
(-2.45823e-13 -8.40516 13.5957)
(2.90823e-13 -7.81262 12.6266)
(1.15017e-12 -7.35149 11.609)
(3.47653e-12 -6.99619 10.3964)
(5.27197e-12 -5.48285 9.07942)
(-1.43683e-11 -2.4385 3.78336)
(1.32779e-11 -7.78995 23.7921)
(-1.4584e-11 -16.5469 24.4502)
(3.43204e-13 -13.8266 23.7156)
(-6.07233e-13 -12.3894 22.5571)
(-7.02202e-14 -11.7575 21.1134)
(2.79271e-14 -10.9751 19.8217)
(-3.3764e-15 -10.1379 18.5896)
(-6.16786e-14 -9.33489 17.3433)
(-1.20735e-13 -8.56008 16.0804)
(4.93025e-14 -7.78544 14.833)
(1.1186e-12 -7.01266 13.6372)
(2.61882e-12 -6.30188 12.3862)
(3.36863e-12 -5.59504 10.6745)
(-1.40963e-12 -4.12296 8.00889)
(-1.71737e-11 -1.20826 3.0238)
(4.21303e-11 -8.06137 21.2474)
(-3.90899e-11 -16.9665 23.1739)
(3.73579e-13 -12.9747 23.4315)
(3.22985e-12 -12.0072 21.1171)
(5.78374e-13 -11.5049 19.7101)
(-1.44306e-13 -10.6883 18.6019)
(-1.94183e-13 -9.89829 17.3444)
(-1.6087e-13 -9.15307 16.0232)
(-1.26281e-13 -8.38764 14.7283)
(2.6542e-13 -7.66866 13.4341)
(1.56482e-12 -6.97723 12.242)
(3.11383e-12 -6.23306 11.0381)
(3.30072e-12 -5.15949 9.27615)
(9.76269e-13 -3.89095 5.4926)
(-2.41541e-11 -0.513036 1.92829)
(7.44341e-11 -5.69336 17.014)
(-4.04369e-11 -15.9311 21.6807)
(-3.08455e-11 -15.9468 23.7135)
(-1.118e-11 -14.8914 22.2014)
(-1.88481e-12 -13.7867 20.0864)
(6.05843e-13 -12.6646 18.261)
(6.12207e-13 -11.6545 16.8698)
(1.93385e-13 -10.7655 15.7646)
(-6.63692e-14 -9.98057 14.5603)
(7.24966e-14 -9.10706 13.4222)
(9.86233e-13 -8.26827 12.2104)
(2.47352e-12 -7.48525 10.9021)
(3.32175e-12 -6.32023 9.52915)
(4.24924e-12 -4.80476 7.05451)
(-1.32021e-11 -2.27256 3.45531)
(1.53984e-10 -1.03159 6.88864)
(1.92866e-14 -6.69508 4.2705)
(-2.26993e-11 -10.772 14.7944)
(-1.76046e-11 -14.3499 20.7118)
(-9.13045e-12 -15.7564 21.9265)
(-3.23162e-12 -15.1597 20.9926)
(-4.6936e-13 -13.7294 19.3612)
(2.64698e-13 -12.423 17.8652)
(1.748e-13 -11.4145 16.5901)
(3.58801e-14 -10.4678 15.3914)
(4.1579e-13 -9.50611 14.1784)
(1.57775e-12 -8.59218 12.901)
(2.77549e-12 -7.55639 11.5808)
(3.52462e-12 -5.99604 9.92005)
(-5.15219e-12 -3.46458 6.2969)
(1.01749e-10 0.461535 10.3238)
(-4.02481e-10 -2.42183 -1.10504)
(-1.89417e-10 -5.6353 8.30636)
(-6.63826e-11 -11.034 17.123)
(-2.10622e-11 -14.5151 22.3442)
(-6.43e-12 -15.4523 23.551)
(-1.52502e-12 -14.4328 22.2072)
(8.06709e-14 -12.8404 20.5968)
(3.07132e-13 -11.7476 18.9478)
(1.01362e-13 -10.8532 17.4349)
(1.88965e-13 -9.88638 16.2078)
(1.09504e-12 -8.96892 14.9802)
(2.45053e-12 -8.12596 13.5474)
(3.43866e-12 -6.90254 11.8539)
(-2.79319e-12 -4.22101 8.63755)
(8.77786e-11 1.49545 12.9606)
(-4.84209e-10 -2.24202 -6.6967)
(-2.7979e-10 0.141225 2.54804)
(-9.47313e-11 -8.82305 15.5386)
(-2.65071e-11 -13.2673 22.5735)
(-7.57819e-12 -14.4764 24.9193)
(-1.845e-12 -13.7621 23.665)
(4.10168e-14 -12.3342 21.9163)
(3.17149e-13 -11.3466 20.0941)
(7.70494e-14 -10.548 18.3975)
(2.01142e-13 -9.59337 17.1933)
(1.2243e-12 -8.76153 15.9816)
(2.49597e-12 -8.08861 14.5817)
(1.96706e-12 -6.92555 12.7306)
(-1.83701e-12 -3.45031 7.85029)
(1.53683e-10 2.40563 13.6883)
(-2.54519e-10 -5.0069 0.0449578)
(-2.32242e-10 -3.3081 6.96568)
(-7.74938e-11 -9.00759 17.5056)
(-2.24504e-11 -12.7219 23.5127)
(-6.60633e-12 -13.9465 24.6434)
(-1.51922e-12 -13.1413 23.3547)
(8.78907e-14 -11.8537 21.8513)
(2.26213e-13 -11.053 19.7696)
(3.23091e-14 -10.234 18.1479)
(3.45587e-13 -9.52937 17.107)
(1.46481e-12 -8.96911 15.8468)
(2.46037e-12 -8.26698 14.4554)
(1.25161e-12 -5.73596 12.0712)
(-1.495e-12 -3.183 0.106412)
(1.75192e-10 2.19921 11.1627)
(-3.34183e-12 -4.66633 4.50808)
(-2.42142e-10 -4.70295 3.86852)
(-7.97965e-11 -9.18512 17.2038)
(-2.14525e-11 -13.2136 22.9037)
(-6.54171e-12 -14.317 23.9985)
(-1.94934e-12 -13.5357 22.693)
(-1.97363e-13 -12.4012 21.204)
(4.36706e-14 -11.5254 19.1078)
(-8.20786e-14 -10.6145 17.3908)
(2.72066e-13 -9.94121 16.3963)
(1.25664e-12 -9.37501 15.2496)
(2.25805e-12 -9.48242 13.3634)
(1.39132e-12 -6.89199 14.5561)
(7.40234e-14 -5.73453 5.68402)
(1.19193e-10 -0.914788 4.44157)
(1.26042e-10 -3.87587 7.00844)
(-7.16536e-11 -4.32288 4.21525)
(-9.18435e-11 -8.38595 14.1794)
(-3.68937e-11 -12.9359 21.2422)
(-9.94878e-12 -14.6188 23.4717)
(-2.28925e-12 -14.1192 22.6634)
(-3.32404e-13 -12.9944 21.1529)
(2.58941e-14 -11.9368 19.1719)
(-7.25626e-14 -10.8267 17.341)
(1.39432e-13 -10.0098 16.1065)
(9.12359e-13 -9.12033 15.121)
(1.93044e-12 -9.4292 12.9732)
(1.53341e-12 -7.79798 15.9072)
(7.24169e-13 -7.06096 9.83891)
(4.22736e-11 -2.41455 -1.58375)
(1.30102e-10 -3.17088 6.69872)
(4.21935e-11 -4.40593 6.42581)
(-7.24061e-11 -7.08175 12.0343)
(-5.0505e-11 -11.9704 19.5605)
(-1.63257e-11 -14.1586 23.2805)
(-3.38862e-12 -13.9427 23.3603)
(-3.15616e-13 -13.0583 21.6778)
(9.50516e-14 -11.8509 19.7265)
(-3.39395e-14 -10.6653 17.8393)
(7.99841e-14 -9.84855 16.4256)
(7.50687e-13 -8.80155 15.5107)
(1.74935e-12 -9.17328 13.4442)
(1.48654e-12 -7.78778 16.7766)
(9.86343e-13 -7.6912 9.97957)
(9.54543e-11 -2.25442 0.986343)
(1.21198e-10 0.942121 5.00322)
(6.61104e-11 -4.07423 6.27458)
(-5.99702e-11 -9.04645 12.4399)
(-5.41963e-11 -10.682 20.3974)
(-1.85582e-11 -13.8025 23.0392)
(-3.86236e-12 -14.3571 22.8652)
(-5.8882e-13 -12.7696 22.3254)
(1.04845e-14 -11.9372 20.2954)
(-1.256e-14 -10.8338 18.4029)
(7.95869e-14 -10.0694 16.9408)
(6.93523e-13 -8.96525 16.0817)
(1.66351e-12 -9.44001 14.2024)
(1.46754e-12 -8.0947 17.4265)
(9.4351e-13 -7.53075 9.66314)
(9.72284e-11 -1.72691 4.34971)
(1.14116e-10 -2.09904 4.17503)
(8.48382e-11 -3.9617 7.0373)
(-3.74534e-11 -8.79417 12.1798)
(-6.40938e-11 -11.0118 19.5104)
(-3.00406e-11 -13.939 22.8743)
(-5.80753e-12 -14.797 23.0408)
(4.61497e-13 -13.4795 22.5682)
(4.92263e-13 -12.6169 20.6808)
(1.28469e-14 -11.4218 18.8072)
(2.26578e-14 -10.5679 17.3136)
(6.20026e-13 -9.38023 16.4998)
(1.58364e-12 -9.86851 14.7792)
(1.46866e-12 -8.45419 17.8301)
(8.99708e-13 -7.4788 9.6001)
(5.43449e-11 0.0812608 1.42545)
(7.27158e-11 -0.864709 -3.41022)
(8.79904e-11 -1.10872 1.9117)
(3.68497e-11 -5.52556 8.28167)
(-3.08803e-11 -10.0596 15.8405)
(-3.98386e-11 -13.469 21.4019)
(-1.96222e-11 -15.06 23.641)
(-4.52615e-12 -14.6834 23.8727)
(1.72119e-13 -13.8684 22.484)
(4.10337e-13 -12.6073 20.6387)
(1.19258e-13 -11.5986 18.9222)
(4.67071e-13 -10.3011 17.8663)
(1.37192e-12 -10.539 16.3153)
(1.46492e-12 -9.32543 18.3041)
(8.5546e-13 -7.26839 10.4982)
)
;

boundaryField
{
    inletFace
    {
        type            zeroGradient;
    }
    inlet
    {
        type            fixedValue;
        value           uniform (0 8.7 15);
    }
    inletWalls
    {
        type            noSlip;
    }
    outletInlet
    {
        type            zeroGradient;
    }
}


// ************************************************************************* //
