/*--------------------------------*- C++ -*----------------------------------*\
| =========                 |                                                 |
| \\      /  F ield         | OpenFOAM: The Open Source CFD Toolbox           |
|  \\    /   O peration     | Version:  4.1                                   |
|   \\  /    A nd           | Web:      www.OpenFOAM.org                      |
|    \\/     M anipulation  |                                                 |
\*---------------------------------------------------------------------------*/
FoamFile
{
    version     2.0;
    format      ascii;
    class       volScalarField;
    location    "10";
    object      p;
}
// * * * * * * * * * * * * * * * * * * * * * * * * * * * * * * * * * * * * * //

dimensions      [0 2 -2 0 0 0 0];

internalField   nonuniform List<scalar> 
225
(
523.378
469.981
418.149
369.738
324.847
282.83
243.475
206.471
171.377
138.013
107.071
78.9324
49.9035
14.9847
-14.1675
56.9433
34.6823
28.9237
25.2134
19.7393
14.0319
8.87898
4.49022
1.0063
-1.45245
-2.64374
-2.14209
-0.0456475
1.82588
2.08606
-45.839
-52.4821
-46.7151
-42.5682
-39.4776
-35.8823
-31.996
-28.0586
-24.1542
-20.4384
-17.0928
-14.0257
-10.9489
-8.2961
-7.06185
0.294658
-2.12337
2.4694
2.79357
2.84716
3.06235
2.97323
2.59594
2.01438
1.25521
0.298472
-0.810863
-1.72115
-1.87338
-1.56292
16.7225
14.3898
15.9435
13.8455
12.4267
11.1832
9.7732
8.39135
7.13391
6.04286
5.14186
4.42932
3.95173
3.91902
4.16388
7.4945
5.47149
6.44547
5.22615
5.02313
5.00735
4.91956
4.95287
5.10846
5.35196
5.67125
6.03413
6.35379
6.6105
6.78524
4.02287
2.86744
3.95299
3.62988
4.01669
4.41082
4.70982
5.06049
5.41708
5.74186
6.03157
6.28548
6.46371
6.54474
6.56044
5.70047
5.14266
5.99701
5.76803
5.9666
6.07915
6.1031
6.14842
6.17302
6.16819
6.14449
6.11667
6.08301
6.03715
5.98866
6.00808
5.68272
6.1936
5.91776
5.96062
5.92978
5.85465
5.80749
5.75179
5.69116
5.63184
5.57867
5.53192
5.48581
5.43459
4.68866
4.48099
4.82665
4.6502
4.72285
4.73168
4.71867
4.72679
4.72414
4.71734
4.70772
4.69298
4.67076
4.63547
4.57772
3.31779
3.20154
3.49907
3.44504
3.56455
3.61121
3.63987
3.67489
3.69159
3.69853
3.69659
3.68411
3.66009
3.62185
3.55629
2.34266
2.28242
2.53663
2.53794
2.65639
2.69791
2.72715
2.75437
2.76201
2.75998
2.74859
2.72769
2.69784
2.65907
2.59442
1.5639
1.52896
1.73146
1.74544
1.84484
1.87138
1.89382
1.91097
1.91129
1.90441
1.88981
1.86754
1.83795
1.80321
1.74534
0.88057
0.868538
1.02961
1.0344
1.11141
1.12494
1.14266
1.15463
1.15397
1.14896
1.13801
1.12095
1.09595
1.06481
1.0106
0.439053
0.399763
0.455592
0.42339
0.459381
0.440574
0.434146
0.420046
0.399135
0.376452
0.349852
0.32118
0.290765
0.260834
0.217835
)
;

boundaryField
{
    inletFace
    {
        type            zeroGradient;
    }
    inlet
    {
        type            zeroGradient;
    }
    inletWalls
    {
        type            zeroGradient;
    }
    outletInlet
    {
        type            fixedValue;
        value           uniform 0;
    }
}


// ************************************************************************* //
