/*--------------------------------*- C++ -*----------------------------------*\
| =========                 |                                                 |
| \\      /  F ield         | OpenFOAM: The Open Source CFD Toolbox           |
|  \\    /   O peration     | Version:  4.1                                   |
|   \\  /    A nd           | Web:      www.OpenFOAM.org                      |
|    \\/     M anipulation  |                                                 |
\*---------------------------------------------------------------------------*/
FoamFile
{
    version     2.0;
    format      ascii;
    class       surfaceScalarField;
    location    "10";
    object      phi;
}
// * * * * * * * * * * * * * * * * * * * * * * * * * * * * * * * * * * * * * //

dimensions      [0 3 -1 0 0 0 0];

internalField   nonuniform List<scalar> 
420
(
-949.879
2249.78
-1573.95
1924.28
-2054
1779.95
-2424.23
1670.13
-2699.86
1575.82
-2888.38
1488.42
-2993.05
1404.58
-3013.85
1321
-2949.61
1235.66
-2797.23
1147.52
-2551.17
1054.13
-2193
941.735
-1687.17
794.065
-1012.67
625.703
287.232
373.335
1876.44
442.749
1854.86
437.301
1785.39
406.698
1700.74
380.58
1601.94
359.901
1509.1
345.292
1419.19
337.535
1328.76
333.483
1239.71
326.953
1154.05
309.609
1071.48
267.467
983.877
191.428
870.103
111.447
705.684
398.679
33.5751
1842.87
-97.3886
1985.83
-253.612
1941.62
-371.119
1818.24
-473.182
1704.01
-567.531
1603.45
-651.747
1503.4
-725.794
1402.8
-788.071
1301.99
-837.304
1203.28
-868.223
1102.4
-856.084
971.739
-740.332
754.352
-434.283
399.636
-35.6038
28.7749
1814.09
-100.652
2115.25
-225.56
2066.52
-304.496
1897.18
-368.157
1767.67
-416.954
1652.24
-446.228
1532.68
-457.016
1413.59
-451.853
1296.83
-430.154
1181.58
-387.226
1059.47
-311.872
896.385
-192.865
635.344
-48.4074
255.18
-84.0115
169.623
1644.47
146.156
2138.72
123.731
2088.95
122.868
1898.04
126.941
1763.6
135.805
1643.38
149.103
1519.38
166.592
1396.1
186.943
1276.47
208.132
1160.4
229.132
1038.47
243.822
881.694
233.004
646.162
155.231
332.954
71.2197
223.071
1421.4
244.177
2117.62
234.743
2098.39
236.024
1896.76
240.373
1759.25
244.307
1639.45
246.548
1517.14
245.252
1397.4
241.162
1280.56
233.989
1167.57
221.382
1051.07
199.139
903.938
156.142
689.161
78.3037
410.794
149.524
203.313
1218.09
238.37
2082.57
213.618
2123.14
191.408
1918.97
177.198
1773.45
163.764
1652.88
150.03
1530.87
135.888
1411.54
121.063
1295.39
106.911
1181.72
92.8154
1065.17
75.7661
920.988
52.0218
712.906
19.0217
443.796
168.545
171.849
1046.24
221.975
2032.44
199.413
2145.7
170.391
1947.99
152.039
1791.8
137.657
1667.26
122.772
1545.76
108.574
1425.74
95.5816
1308.38
83.1042
1194.2
71.4861
1076.79
58.6384
933.838
40.3283
731.218
15.7519
468.372
184.297
146.087
900.15
210.036
1968.48
196.854
2158.88
170.037
1974.81
152.396
1809.45
139.536
1680.13
127.078
1558.23
113.878
1438.95
101.336
1320.93
89.438
1206.1
77.0046
1089.23
63.1052
947.737
44.3183
750.003
19.1722
493.516
203.47
116.745
783.409
184.828
1900.4
179.614
2164.11
154.316
2000.12
137.235
1826.54
124.022
1693.35
111.391
1570.86
98.9839
1451.35
86.1294
1333.78
73.8889
1218.34
62.1213
1100.99
49.0424
960.817
32.8725
766.175
13.1968
513.195
216.667
83.1535
700.259
143.134
1840.44
144.69
2162.55
122.769
2022.05
106.155
1843.15
94.4571
1705.04
82.567
1582.74
71.1495
1462.76
60.3662
1344.56
49.4391
1229.27
39.405
1111.02
29.7302
970.498
18.08
777.838
5.2487
526.041
221.91
51.2524
649.002
97.9415
1793.75
102.717
2157.76
87.3687
2037.38
73.1287
1857.38
63.1059
1715.04
54.207
1591.63
44.8232
1472.15
36.1168
1353.27
28.1416
1237.24
20.4009
1118.76
13.6653
977.234
6.7292
784.774
-0.413679
533.178
221.486
25.1469
623.863
57.7134
1761.16
63.4984
2151.97
53.4502
2047.42
43.8744
1866.96
36.1665
1722.76
29.552
1598.26
23.5181
1478.19
17.0736
1359.72
11.3311
1242.99
6.62875
1123.47
2.50349
981.369
-1.04866
788.323
-3.67499
535.79
217.8
1.42163
622.462
24.0251
1738.54
33.3415
2142.67
27.7255
2053.04
20.3809
1874.3
15.0999
1728.05
9.57551
1603.79
4.63139
1483.13
0.0827093
1364.26
-4.78736
1247.86
-8.3037
1126.98
-9.63876
982.676
-9.72732
788.387
-7.15422
533.201
210.648
-11.7608
-3.16375
1.43176
-0.411407
-5.10022
-8.84977
-11.8094
-15.2591
-18.1174
-20.2513
-21.8132
-21.153
-18.1641
-12.4128
)
;

boundaryField
{
    inletFace
    {
        type            calculated;
        value           nonuniform List<scalar> 
450
(
-1.95277e-14
5.88407e-13
-3.24945e-13
-2.10443e-13
2.11185e-13
-1.80733e-13
-6.88162e-14
5.4801e-14
-4.31663e-14
1.94906e-14
1.42322e-14
-7.42055e-14
-1.31597e-14
1.97303e-14
-7.01485e-17
-2.0669e-12
-2.24433e-12
-3.29408e-14
-7.5352e-13
-2.91155e-13
8.29414e-15
-3.03395e-13
-2.19217e-13
-2.27815e-14
-1.02611e-13
-6.35443e-14
2.13135e-14
-8.12549e-14
-9.9483e-15
-2.63666e-15
-2.38193e-12
-2.28314e-12
-2.65275e-13
-5.88698e-13
-2.94718e-13
-1.3879e-13
-3.00308e-13
-1.41223e-13
-8.62036e-14
-7.67945e-14
-5.3211e-14
-4.47093e-14
-4.06893e-14
5.43801e-15
8.63347e-16
-2.70372e-12
-2.17005e-12
-3.09378e-13
-7.84127e-13
-2.68322e-13
-2.5515e-13
-4.23242e-13
-9.24474e-14
-1.84251e-13
-1.00009e-13
-4.84552e-14
-6.75703e-14
-1.03549e-13
2.33593e-14
6.55354e-14
-2.37618e-12
-2.23508e-12
-3.79189e-13
-7.09493e-13
-2.38793e-13
-2.82833e-13
-3.78092e-13
-1.95982e-13
-1.09545e-13
-1.25572e-13
-6.39475e-15
-7.26916e-14
-9.59253e-14
5.91644e-16
6.07367e-14
-2.09802e-12
-2.27385e-12
-5.38019e-13
-5.64945e-13
-2.173e-13
-2.31057e-13
-3.51308e-13
-1.67568e-13
-8.62781e-14
-1.66664e-13
-5.94653e-15
-3.85178e-14
-5.65818e-14
8.79464e-15
1.87797e-14
-1.89997e-12
-2.35256e-12
-7.85379e-13
-5.04517e-13
-2.4936e-13
-2.39231e-13
-3.30893e-13
-2.21852e-13
-2.00163e-13
-2.05534e-13
-8.21157e-14
-5.9298e-14
-8.44883e-14
-6.85649e-14
-1.04307e-13
-1.64421e-12
-2.37368e-12
-1.01119e-12
-5.23765e-13
-2.72007e-13
-2.46325e-13
-3.12498e-13
-2.72186e-13
-2.59059e-13
-1.79404e-13
-1.20318e-13
-1.37849e-13
-2.6292e-14
-1.33338e-14
-1.78934e-13
-1.37892e-12
-2.3562e-12
-1.18138e-12
-5.76122e-13
-2.86367e-13
-2.39608e-13
-3.04998e-13
-2.59016e-13
-1.93984e-13
-1.98811e-13
-1.34463e-13
-1.08351e-13
-4.93604e-14
-1.39042e-14
-7.4591e-14
-1.16817e-12
-2.29915e-12
-1.30133e-12
-5.80281e-13
-2.96291e-13
-2.06879e-13
-2.8833e-13
-2.71654e-13
-1.6052e-13
-2.07879e-13
-1.41516e-13
-7.47061e-14
-4.3431e-14
-2.87165e-14
1.15997e-13
-9.68983e-13
-2.22725e-12
-1.41939e-12
-6.00283e-13
-3.1457e-13
-1.47973e-13
-2.37915e-13
-2.23492e-13
-1.84082e-13
-1.82844e-13
-1.43223e-13
-4.9515e-14
4.80289e-14
-1.2057e-14
1.3042e-13
-8.64589e-13
-2.16983e-12
-1.46609e-12
-6.65391e-13
-3.20918e-13
-1.23772e-13
-2.23408e-13
-2.2176e-13
-1.43973e-13
-1.78488e-13
-1.55493e-13
-2.44449e-14
8.78238e-15
1.09791e-13
1.03733e-13
-7.89421e-13
-2.1143e-12
-1.48232e-12
-7.005e-13
-3.3267e-13
-1.44126e-13
-2.16634e-13
-2.65445e-13
-1.41737e-13
-1.76254e-13
-1.57691e-13
-2.93817e-14
-6.57952e-16
1.19391e-13
1.49557e-13
-7.45323e-13
-2.06599e-12
-1.51152e-12
-7.20597e-13
-3.58339e-13
-1.53924e-13
-2.09867e-13
-2.63192e-13
-1.39224e-13
-1.76143e-13
-1.65407e-13
-5.60908e-15
2.03862e-15
1.06836e-13
1.25046e-13
-7.35757e-13
-1.98866e-12
-1.50181e-12
-7.42391e-13
-3.6983e-13
-1.66794e-13
-2.12377e-13
-2.51223e-13
-1.43802e-13
-1.75171e-13
-1.49262e-13
-1.18526e-14
6.34117e-15
1.01021e-13
7.10373e-14
1.95277e-14
-5.88407e-13
3.24945e-13
2.10443e-13
-2.11185e-13
1.80733e-13
6.88162e-14
-5.4801e-14
4.31663e-14
-1.94906e-14
-1.42322e-14
7.42055e-14
1.31597e-14
-1.97303e-14
7.01485e-17
2.0669e-12
2.24433e-12
3.29408e-14
7.5352e-13
2.91155e-13
-8.29414e-15
3.03395e-13
2.19217e-13
2.27815e-14
1.02611e-13
6.35443e-14
-2.13135e-14
8.12549e-14
9.9483e-15
2.63666e-15
2.38193e-12
2.28314e-12
2.65275e-13
5.88698e-13
2.94718e-13
1.3879e-13
3.00308e-13
1.41223e-13
8.62036e-14
7.67945e-14
5.3211e-14
4.47093e-14
4.06893e-14
-5.43801e-15
-8.63347e-16
2.70372e-12
2.17005e-12
3.09378e-13
7.84127e-13
2.68322e-13
2.5515e-13
4.23242e-13
9.24474e-14
1.84251e-13
1.00009e-13
4.84552e-14
6.75703e-14
1.03549e-13
-2.33593e-14
-6.55354e-14
2.37618e-12
2.23508e-12
3.79189e-13
7.09493e-13
2.38793e-13
2.82833e-13
3.78092e-13
1.95982e-13
1.09545e-13
1.25572e-13
6.39475e-15
7.26916e-14
9.59253e-14
-5.91644e-16
-6.07367e-14
2.09802e-12
2.27385e-12
5.38019e-13
5.64945e-13
2.173e-13
2.31057e-13
3.51308e-13
1.67568e-13
8.62781e-14
1.66664e-13
5.94653e-15
3.85178e-14
5.65818e-14
-8.79464e-15
-1.87797e-14
1.89997e-12
2.35256e-12
7.85379e-13
5.04517e-13
2.4936e-13
2.39231e-13
3.30893e-13
2.21852e-13
2.00163e-13
2.05534e-13
8.21157e-14
5.9298e-14
8.44883e-14
6.85649e-14
1.04307e-13
1.64421e-12
2.37368e-12
1.01119e-12
5.23765e-13
2.72007e-13
2.46325e-13
3.12498e-13
2.72186e-13
2.59059e-13
1.79404e-13
1.20318e-13
1.37849e-13
2.6292e-14
1.33338e-14
1.78934e-13
1.37892e-12
2.3562e-12
1.18138e-12
5.76122e-13
2.86367e-13
2.39608e-13
3.04998e-13
2.59016e-13
1.93984e-13
1.98811e-13
1.34463e-13
1.08351e-13
4.93604e-14
1.39042e-14
7.4591e-14
1.16817e-12
2.29915e-12
1.30133e-12
5.80281e-13
2.96291e-13
2.06879e-13
2.8833e-13
2.71654e-13
1.6052e-13
2.07879e-13
1.41516e-13
7.47061e-14
4.3431e-14
2.87165e-14
-1.15997e-13
9.68983e-13
2.22725e-12
1.41939e-12
6.00283e-13
3.1457e-13
1.47973e-13
2.37915e-13
2.23492e-13
1.84082e-13
1.82844e-13
1.43223e-13
4.9515e-14
-4.80289e-14
1.2057e-14
-1.3042e-13
8.64589e-13
2.16983e-12
1.46609e-12
6.65391e-13
3.20918e-13
1.23772e-13
2.23408e-13
2.2176e-13
1.43973e-13
1.78488e-13
1.55493e-13
2.44449e-14
-8.78238e-15
-1.09791e-13
-1.03733e-13
7.89421e-13
2.1143e-12
1.48232e-12
7.005e-13
3.3267e-13
1.44126e-13
2.16634e-13
2.65445e-13
1.41737e-13
1.76254e-13
1.57691e-13
2.93817e-14
6.57952e-16
-1.19391e-13
-1.49557e-13
7.45323e-13
2.06599e-12
1.51152e-12
7.20597e-13
3.58339e-13
1.53924e-13
2.09867e-13
2.63192e-13
1.39224e-13
1.76143e-13
1.65407e-13
5.60908e-15
-2.03862e-15
-1.06836e-13
-1.25046e-13
7.35757e-13
1.98866e-12
1.50181e-12
7.42391e-13
3.6983e-13
1.66794e-13
2.12377e-13
2.51223e-13
1.43802e-13
1.75171e-13
1.49262e-13
1.18526e-14
-6.34117e-15
-1.01021e-13
-7.10373e-14
)
;
    }
    inlet
    {
        type            calculated;
        value           nonuniform List<scalar> 
15
(
-1299.9
-1300.2
-1299.9
-1299.9
-1300.2
-1299.9
-1299.9
-1300.2
-1299.9
-1299.9
-1300.2
-1299.9
-1299.9
-1300.2
-1299.9
)
;
    }
    inletWalls
    {
        type            calculated;
        value           uniform 0;
    }
    outletInlet
    {
        type            calculated;
        value           nonuniform List<scalar> 
15
(
198.257
527.462
785.394
982.005
1128.54
1249.98
1367.11
1486.56
1606.73
1731.8
1878.99
2054.89
2138.08
1729.94
634.213
)
;
    }
}


// ************************************************************************* //
