/*--------------------------------*- C++ -*----------------------------------*\
| =========                 |                                                 |
| \\      /  F ield         | OpenFOAM: The Open Source CFD Toolbox           |
|  \\    /   O peration     | Version:  4.1                                   |
|   \\  /    A nd           | Web:      www.OpenFOAM.org                      |
|    \\/     M anipulation  |                                                 |
\*---------------------------------------------------------------------------*/
FoamFile
{
    version     2.0;
    format      ascii;
    class       volScalarField;
    location    "9";
    object      p;
}
// * * * * * * * * * * * * * * * * * * * * * * * * * * * * * * * * * * * * * //

dimensions      [0 2 -2 0 0 0 0];

internalField   nonuniform List<scalar> 
6785
(
601.247
523.448
476.873
423.912
377.512
332.759
291.005
251.394
213.866
178.322
144.107
110.914
82.5701
53.3876
11.9162
1.36572
-16.5643
-6.48952
-13.6036
-12.757
-15.0793
-15.5098
-15.8308
-15.1462
-13.551
-10.9276
-7.23735
-1.74592
3.95165
5.95313
8.2614
2.63384
10.6892
4.88124
7.41928
4.95438
4.43019
2.63697
1.0579
-0.878584
-2.75566
-3.83542
-4.22629
-4.96333
-5.06535
2.57443
-1.3513
0.492095
-5.45926
-5.04676
-9.3062
-10.9401
-13.8727
-16.0953
-18.3973
-20.1586
-21.0375
-20.6271
-20.3849
-19.1425
-4.65784
-6.41486
-3.32815
-6.00802
-2.72318
-3.93784
-2.11936
-1.70949
-0.523112
0.488271
1.78123
2.99982
4.88723
6.27488
9.064
19.0337
19.3536
22.6724
21.6759
25.1756
25.1683
27.4701
28.6285
30.3012
31.8245
33.4872
35.0209
36.8062
38.082
39.9875
39.8884
40.7782
43.287
42.5466
45.1711
45.086
46.7394
47.488
48.5997
49.6013
50.625
51.5697
52.6889
53.5158
54.7529
56.1266
57.2407
58.9717
58.6535
60.6763
60.6503
61.9913
62.1287
62.4583
62.3046
62.1784
62.3957
63.0185
63.6301
64.2567
65.6331
65.751
66.6358
65.7485
66.7581
65.8951
66.1441
65.4036
65.0208
64.4346
64.0064
63.6382
63.1414
63.1149
62.3033
64.8335
62.0041
62.2655
60.0656
60.0371
58.2308
57.524
55.6614
53.833
51.2049
48.3661
45.6647
44.2298
43.5985
40.2846
25.2705
19.7452
17.859
13.7124
11.1112
7.10059
4.18824
0.952716
-1.28759
-3.13113
-4.05267
-4.1274
-3.91743
-4.6373
-6.43754
-11.3724
-14.7933
-16.0791
-18.8081
-20.0687
-22.2562
-23.3646
-24.4793
-24.8699
-25.1091
-25.1421
-25.1508
-25.244
-25.3458
-23.8622
-1.77207
-1.62896
-1.54516
-2.29015
-2.19468
-2.81563
-3.01813
-3.36552
-3.53156
-3.6731
-3.59125
-3.39848
-2.44915
-1.31528
1.13873
11.6993
14.4695
15.5582
16.0205
16.6868
17.3656
18.5359
19.6791
20.8709
21.954
23.0376
24.0162
25.1631
26.1092
27.2126
54.329
53.8197
51.1136
45.3827
39.8095
36.7508
34.9527
33.8541
33.0217
32.531
31.5324
30.4342
29.295
28.5825
27.1011
24.9391
25.0021
25.0131
25.0146
25.0186
25.0359
25.0732
25.0598
25.0562
25.0488
25.0825
25.0456
25.0346
25.0576
24.995
24.9834
24.9815
25.0016
24.889
24.918
24.9378
24.8102
24.7943
24.843
24.8641
24.7125
24.6946
24.7538
24.817
24.6209
24.6925
24.7796
24.6103
24.574
24.6309
24.7159
24.5221
24.582
24.6277
24.4864
24.4314
24.521
24.428
24.2945
24.2453
24.3358
24.1791
23.9683
24.0889
23.9451
23.8122
23.745
23.8247
23.8137
23.7319
23.6764
23.7085
23.9111
23.8577
23.8308
24.1466
24.1299
24.0843
24.0234
24.2482
24.2982
24.79
24.4339
23.6116
24.3002
25.2164
21.166
18.9165
21.041
23.5619
8.03932
14.4651
19.3147
-12.0756
-3.09743
1.82006
0.446927
3.70608
-6.70248
0.625052
4.96611
5.63796
6.72827
7.61058
8.6004
10.2674
13.1814
6.6611
9.77769
11.8404
14.3925
17.0257
18.3561
19.9658
21.5062
23.889
19.0434
22.6557
25.6455
27.2665
29.6189
32.4246
34.4904
35.7724
37.2896
37.9052
40.3634
40.0345
42.5834
43.7324
44.8577
46.9763
49.7626
50.9285
48.9387
54.4228
52.9166
56.1167
56.7541
56.3265
55.7345
54.8895
56.9504
53.8013
63.3435
60.0073
56.1953
56.0487
55.6647
52.7053
50.4753
48.2057
41.1023
52.227
53.2963
46.6101
43.2625
38.563
34.4496
30.349
27.1735
23.6047
17.7588
16.1045
19.8262
14.1698
12.9488
10.8243
8.02243
0.958987
-1.46336
0.958246
-8.95992
3.5675
0.774891
-0.434452
6.63382
-1.18207
2.26107
0.269972
2.61169
6.49497
-0.243565
3.23939
5.9392
1.00613
2.76688
1.20336
2.62219
5.60968
0.700107
2.39994
0.710771
2.29649
5.01006
-0.578105
2.2561
4.4228
-0.0070234
1.56553
-0.000830789
1.40798
4.28802
-0.497887
1.14675
-0.449212
1.03773
4.10396
-1.68108
1.12729
3.75377
-0.977029
0.611091
-0.833003
0.491142
3.9324
-1.30723
0.490436
-1.10311
0.479913
3.94091
-2.2648
0.831544
3.63337
-1.24995
0.487473
-0.926
0.49414
3.873
-1.16805
0.683449
-0.798021
0.794803
3.80954
-1.58301
1.22408
3.39005
-0.523852
0.981316
-0.162329
1.04121
3.27017
-0.24183
1.10813
0.0621665
1.16098
2.75664
-0.450608
1.18528
2.05664
-0.0953286
0.67011
-0.116929
0.410411
1.90411
0.000202982
0.000379628
0.000640087
0.000846953
0.00109196
0.00132728
0.00158254
0.00184199
0.00211574
0.00239884
0.00269509
0.00300321
0.00332498
0.00366047
0.00401085
0.00437672
0.00475912
0.00515894
0.00557727
0.00601519
0.0064739
0.0069546
0.00745859
0.00798712
0.00854142
0.00912256
0.00973134
0.0103681
0.0110325
0.0117231
0.012437
0.0131697
0.0139139
0.0146598
0.0153943
0.0161014
0.0167629
0.0173599
0.017875
0.018296
0.0186191
0.0188515
0.019013
0.0191339
0.0192508
0.0194
0.0196109
0.0199021
0.020286
0.0207753
0.0213798
0.0220792
0.0227666
0.0231871
0.0229408
0.0215885
0.0187141
0.0138848
0.0068253
-0.00268554
-0.0143157
-0.0278815
-0.0415302
-0.0496357
-0.0650228
-0.0684497
-0.201212
-0.364068
-0.469542
-0.561688
-0.586034
-0.583523
-0.498525
-0.480317
-0.303423
-0.396641
-0.182198
-0.220896
-0.862131
0.000591674
0.0011055
0.00185351
0.00246335
0.00316881
0.00385095
0.00458364
0.00532872
0.00611115
0.00691931
0.00776265
0.0086385
0.00955136
0.0105017
0.0114927
0.012526
0.0136044
0.0147303
0.0159067
0.0171364
0.0184226
0.0197684
0.0211774
0.0226527
0.0241976
0.0258147
0.0275059
0.029272
0.0311114
0.03302
0.0349892
0.0370056
0.0390486
0.04109
0.0430931
0.045013
0.0467989
0.0483986
0.0497659
0.0508695
0.0517037
0.0522959
0.0527094
0.0530392
0.0533983
0.0538992
0.054635
0.0556694
0.05705
0.0588327
0.061074
0.0637573
0.0666331
0.0690435
0.069931
0.0681478
0.062607
0.0521211
0.0358401
0.0128534
-0.0165149
-0.0529236
-0.0925986
-0.122902
-0.173858
-0.170509
-0.400642
-0.700979
-0.907117
-1.08674
-1.156
-1.15719
-1.03815
-0.949739
-0.695194
-0.645022
-0.365979
-0.236704
-0.274675
0.000924725
0.00178467
0.00305393
0.00408119
0.0052723
0.00642177
0.00765721
0.00891287
0.0102319
0.0115942
0.013016
0.0144928
0.0160323
0.0176352
0.0193069
0.0210503
0.0228702
0.0247707
0.0267567
0.0288333
0.0310057
0.0332796
0.0356606
0.0381545
0.0407667
0.043502
0.0463636
0.0493528
0.0524674
0.0557004
0.059038
0.0624572
0.0659241
0.069391
0.0727961
0.0760636
0.0791076
0.0818393
0.0841796
0.0860741
0.087511
0.0885339
0.089247
0.0898073
0.0904028
0.0912202
0.0924128
0.094084
0.0963084
0.0991743
0.102771
0.107064
0.111618
0.1153
0.116284
0.112593
0.102331
0.0834427
0.0544465
0.0138087
-0.0379055
-0.101676
-0.170465
-0.224406
-0.303777
-0.268437
-0.541184
-0.890141
-1.13785
-1.35527
-1.43996
-1.43917
-1.29802
-1.17687
-0.876321
-0.770175
-0.434944
-0.292325
-0.0247172
0.0012465
0.00245095
0.00422517
0.00566766
0.0073342
0.008944
0.0106715
0.0124273
0.0142704
0.0161737
0.0181595
0.0202216
0.0223708
0.0246082
0.0269412
0.0293739
0.031913
0.0345643
0.0373346
0.0402308
0.0432604
0.0464312
0.049751
0.053228
0.0568695
0.0606822
0.0646708
0.068837
0.0731779
0.0776837
0.0823352
0.0871006
0.0919326
0.0967649
0.101511
0.106066
0.110309
0.114115
0.117375
0.120012
0.122009
0.123428
0.124415
0.125191
0.126021
0.127167
0.128846
0.131202
0.134339
0.138384
0.143473
0.149575
0.1561
0.161468
0.163117
0.158283
0.144294
0.118244
0.0779758
0.0212103
-0.0515598
-0.142181
-0.240821
-0.322474
-0.432088
-0.376071
-0.720724
-1.14184
-1.44031
-1.70395
-1.80528
-1.79963
-1.62288
-1.46586
-1.09348
-0.951648
-0.528435
-0.366395
-0.0502241
0.00153967
0.00309402
0.00537503
0.00723774
0.00938393
0.0114587
0.0136826
0.0159432
0.018315
0.020764
0.0233185
0.0259709
0.0287349
0.0316123
0.0346123
0.0377404
0.0410051
0.0444139
0.0479756
0.0516991
0.055594
0.0596703
0.0639382
0.0684081
0.0730896
0.0779913
0.0831194
0.0884762
0.0940581
0.0998528
0.105836
0.111967
0.118185
0.124406
0.130518
0.136386
0.141854
0.146762
0.150967
0.154367
0.156941
0.158767
0.160032
0.161022
0.16208
0.163545
0.165696
0.168716
0.172737
0.177923
0.184463
0.192339
0.200813
0.207848
0.210104
0.204008
0.186068
0.152477
0.100356
0.0266211
-0.0684196
-0.18762
-0.318116
-0.431718
-0.576777
-0.50385
-0.935792
-1.42605
-1.77799
-2.08995
-2.21
-2.19811
-1.98472
-1.78362
-1.33793
-1.14248
-0.635013
-0.450139
0.0789599
0.0018165
0.00372388
0.00650304
0.00878736
0.0114101
0.0139492
0.0166668
0.0194299
0.0223271
0.0253184
0.0284377
0.0316762
0.0350504
0.0385626
0.0422241
0.0460417
0.0500256
0.054185
0.0585308
0.0630736
0.0678254
0.0727981
0.0780045
0.083457
0.0891676
0.0951467
0.101402
0.107937
0.114746
0.121816
0.129117
0.1366
0.144191
0.151788
0.159254
0.166425
0.173108
0.179109
0.184248
0.188402
0.191541
0.19376
0.19529
0.196482
0.197759
0.199539
0.202164
0.205856
0.210772
0.217118
0.225147
0.234877
0.24544
0.25435
0.257467
0.250416
0.228868
0.188097
0.124451
0.0339536
-0.0834992
-0.232106
-0.396123
-0.546696
-0.733821
-0.657781
-1.17819
-1.72036
-2.11809
-2.47093
-2.6049
-2.58331
-2.3332
-2.08619
-1.5705
-1.32007
-0.73358
-0.514745
0.121103
0.00207479
0.00434049
0.00761187
0.0103205
0.0134192
0.0164238
0.0196352
0.0229013
0.0263238
0.0298574
0.0335412
0.0373654
0.0413492
0.0454955
0.0498177
0.0543237
0.0590258
0.0639348
0.0690633
0.0744242
0.0800314
0.0858991
0.0920423
0.0984758
0.105214
0.112269
0.11965
0.127361
0.135397
0.143742
0.152361
0.161198
0.170165
0.179141
0.187968
0.196448
0.204356
0.211456
0.217537
0.222449
0.226154
0.228762
0.230549
0.231931
0.233414
0.2355
0.238591
0.242949
0.248751
0.256248
0.265769
0.27739
0.290139
0.301071
0.305213
0.297381
0.27237
0.224507
0.149317
0.041852
-0.0986158
-0.277886
-0.477447
-0.670375
-0.904872
-0.843008
-1.45336
-2.04034
-2.47927
-2.86782
-3.0104
-2.97461
-2.68458
-2.38872
-1.80083
-1.49674
-0.831243
-0.592307
0.140231
0.00231855
0.00494743
0.00870269
0.0118373
0.0154097
0.01888
0.0225836
0.0263517
0.0302978
0.0343721
0.0386181
0.0430257
0.0476165
0.0523941
0.0573739
0.0625651
0.0679818
0.0736364
0.0795436
0.085718
0.0921758
0.0989334
0.106008
0.113417
0.121176
0.1293
0.137801
0.146682
0.155939
0.165552
0.175485
0.18567
0.196009
0.206364
0.21655
0.226341
0.235475
0.243678
0.250701
0.256369
0.260633
0.26362
0.265648
0.267205
0.26888
0.271258
0.274811
0.279832
0.286519
0.295165
0.306196
0.319773
0.334846
0.348016
0.353429
0.345094
0.316898
0.262195
0.17564
0.0512242
-0.112645
-0.323653
-0.560823
-0.80182
-1.08864
-1.05994
-1.76148
-2.39114
-2.8688
-3.28953
-3.43492
-3.37947
-3.04586
-2.69659
-2.03397
-1.67381
-0.92992
-0.680432
0.183809
0.00254861
0.00554618
0.0097772
0.0133398
0.0173836
0.0213199
0.0255146
0.0297841
0.0342526
0.0388662
0.043673
0.0486623
0.0538581
0.059265
0.0649
0.0707739
0.0769025
0.0832998
0.0899825
0.0969672
0.104272
0.111916
0.119918
0.128298
0.137074
0.146263
0.155878
0.165925
0.176398
0.187278
0.19852
0.210052
0.221764
0.233499
0.245049
0.256157
0.266523
0.275835
0.283806
0.29023
0.29505
0.298406
0.30066
0.302372
0.30422
0.306878
0.310883
0.316562
0.324124
0.33391
0.346458
0.362052
0.379596
0.395229
0.402166
0.393612
0.362499
0.301189
0.203416
0.0620264
-0.125691
-0.369553
-0.646566
-0.941547
-1.28526
-1.30979
-2.10126
-2.7728
-3.28688
-3.73684
-3.87788
-3.79564
-3.41427
-3.00661
-2.2672
-1.84797
-1.02779
-0.736078
0.176242
0.0027669
0.00613857
0.0108367
0.0148287
0.0193411
0.0237435
0.0284276
0.0331975
0.0381866
0.043338
0.0487035
0.0542723
0.0600707
0.0661042
0.0723917
0.0789452
0.0857823
0.0929189
0.100373
0.108164
0.116312
0.124837
0.133762
0.143107
0.152895
0.163144
0.173868
0.185075
0.19676
0.2089
0.221449
0.234327
0.247411
0.260527
0.273445
0.285874
0.29748
0.307907
0.316829
0.324011
0.32938
0.333091
0.335552
0.337397
0.339396
0.342317
0.346766
0.353096
0.361526
0.37244
0.386512
0.40419
0.424372
0.442732
0.451489
0.443047
0.409338
0.341713
0.232939
0.0746362
-0.137295
-0.41504
-0.734205
-1.08916
-1.49426
-1.59342
-2.47257
-3.18771
-3.73661
-4.21431
-4.34328
-4.22529
-3.7907
-3.319
-2.50018
-2.01901
-1.12497
-0.8086
0.153215
0.00297459
0.00672589
0.0118826
0.0163053
0.0212835
0.0261517
0.0313235
0.0365928
0.0421008
0.0477882
0.0537103
0.0598565
0.066255
0.0729126
0.0798496
0.0870797
0.0946222
0.102494
0.110717
0.11931
0.128296
0.137698
0.147541
0.157847
0.168642
0.179945
0.191773
0.204135
0.217026
0.230423
0.244276
0.258497
0.272954
0.287454
0.301744
0.315503
0.328357
0.339908
0.349788
0.357728
0.36364
0.367692
0.370339
0.37229
0.374416
0.377581
0.382462
0.389437
0.398721
0.410745
0.426343
0.446172
0.469177
0.490553
0.50145
0.493485
0.457526
0.383905
0.264382
0.0892654
-0.147205
-0.459783
-0.823493
-1.24435
-1.71539
-1.91173
-2.87495
-3.6383
-4.22113
-4.72719
-4.83645
-4.67216
-4.17734
-3.63485
-2.73343
-2.18716
-1.22074
-0.896158
0.174275
0.00317293
0.00730931
0.0129159
0.0177706
0.0232114
0.028545
0.0342024
0.0399699
0.0459948
0.0522164
0.0586928
0.065414
0.07241
0.0796888
0.0872723
0.0951757
0.10342
0.112024
0.121011
0.130402
0.140222
0.150496
0.161251
0.172514
0.184309
0.196661
0.209587
0.223099
0.237192
0.251841
0.266994
0.282558
0.298388
0.314276
0.329945
0.345041
0.359153
0.371838
0.382682
0.391381
0.397829
0.402206
0.405013
0.407043
0.409266
0.412654
0.417954
0.425565
0.43569
0.4488
0.465917
0.487969
0.513998
0.538713
0.552106
0.545018
0.507193
0.427941
0.297973
0.10621
-0.155043
-0.503281
-0.913973
-1.40649
-1.94815
-2.26561
-3.30725
-4.12644
-4.7426
-5.27977
-5.3621
-5.13962
-4.57588
-3.95458
-2.96689
-2.35121
-1.31445
-0.933012
0.166431
0.00336294
0.00788976
0.0139379
0.0192255
0.0251254
0.030924
0.0370649
0.043329
0.0498687
0.0566225
0.0636509
0.0709445
0.0785353
0.0864323
0.0946592
0.103233
0.112175
0.121507
0.131254
0.141438
0.152088
0.163229
0.174892
0.187104
0.199895
0.21329
0.227309
0.241965
0.257254
0.273152
0.289603
0.306508
0.323712
0.340993
0.358047
0.374491
0.389872
0.403701
0.415519
0.424978
0.431955
0.436639
0.439579
0.441653
0.443942
0.447527
0.453233
0.461473
0.472421
0.486586
0.505207
0.529549
0.558823
0.58723
0.603505
0.597735
0.55846
0.47398
0.333918
0.125741
-0.160446
-0.54502
-1.00515
-1.57469
-2.19198
-2.65641
-3.76807
-4.65442
-5.30306
-5.8762
-5.92505
-5.63151
-4.98847
-4.27871
-3.20044
-2.51085
-1.40663
-1.00824
0.126084
0.00354554
0.00846803
0.0149495
0.0206708
0.0270263
0.0332891
0.0399112
0.0466704
0.0537226
0.0610063
0.0685841
0.0764476
0.0846302
0.0931423
0.102009
0.111249
0.120886
0.130942
0.141444
0.152418
0.163892
0.175896
0.18846
0.201617
0.215397
0.229829
0.244935
0.260729
0.27721
0.294352
0.312098
0.330343
0.348924
0.367601
0.386048
0.403851
0.420515
0.435502
0.448301
0.458523
0.466021
0.470992
0.474034
0.476115
0.478433
0.482188
0.488287
0.497146
0.508897
0.524076
0.544176
0.570873
0.603633
0.636119
0.655696
0.651722
0.611445
0.522182
0.372435
0.148151
-0.163008
-0.584411
-1.09636
-1.74761
-2.44603
-3.086
-4.25578
-5.22542
-5.90475
-6.52059
-6.53027
-6.15207
-5.41786
-4.60806
-3.43409
-2.66543
-1.49562
-1.05076
0.14424
0.00372151
0.00904477
0.0159516
0.0221073
0.0289148
0.0356407
0.0427415
0.0499941
0.0575563
0.0653677
0.0734922
0.0819227
0.090694
0.0998181
0.109322
0.119224
0.129551
0.140328
0.151581
0.163339
0.175632
0.188493
0.201954
0.216049
0.230813
0.246275
0.262462
0.279389
0.297055
0.315438
0.334476
0.354061
0.37402
0.394099
0.41395
0.433124
0.451084
0.467243
0.481035
0.492023
0.500033
0.505269
0.508379
0.510425
0.512732
0.516627
0.523103
0.532574
0.545105
0.561248
0.582785
0.611899
0.648404
0.685389
0.708722
0.707061
0.666266
0.572706
0.413733
0.17373
-0.1623
-0.620814
-1.18677
-1.92332
-2.70896
-3.55522
-4.76567
-5.84244
-6.55018
-7.21707
-7.18262
-6.70569
-5.86725
-4.94371
-3.66784
-2.81406
-1.58091
-1.10543
0.0689405
0.00389157
0.00962052
0.0169451
0.0235356
0.0307913
0.0379794
0.0455562
0.0533002
0.0613699
0.0697065
0.0783748
0.0873694
0.0967263
0.106459
0.116595
0.127157
0.13817
0.149662
0.161662
0.174199
0.187307
0.201019
0.21537
0.230399
0.246139
0.262626
0.279887
0.29794
0.316788
0.336406
0.356733
0.377658
0.398998
0.420485
0.441749
0.462308
0.481581
0.498929
0.513725
0.525483
0.533996
0.539473
0.542614
0.544579
0.546828
0.550831
0.557669
0.567745
0.581031
0.598075
0.620991
0.652574
0.693105
0.735047
0.762624
0.763833
0.723032
0.625703
0.458022
0.202775
-0.157865
-0.653513
-1.27525
-2.09904
-2.97839
-4.0587
-5.28399
-6.50472
-7.24174
-7.96996
-7.88681
-7.29685
-6.3401
-5.28704
-3.90157
-2.95696
-1.65967
-1.1715
0.0848445
0.00405631
0.0101958
0.0179306
0.0249562
0.0326565
0.0403055
0.0483554
0.0565888
0.0651633
0.0740223
0.0832315
0.0927871
0.102726
0.113064
0.123829
0.135045
0.146741
0.158944
0.171686
0.184997
0.198914
0.213471
0.228708
0.244662
0.261373
0.278878
0.297206
0.31638
0.336403
0.357252
0.378866
0.40113
0.423854
0.446756
0.469444
0.491403
0.512008
0.530562
0.546377
0.55891
0.567916
0.573609
0.576739
0.578571
0.580713
0.584787
0.591972
0.602647
0.61666
0.63453
0.658745
0.69284
0.7377
0.785091
0.817439
0.822115
0.781852
0.681323
0.505506
0.235586
-0.149211
-0.681703
-1.36031
-2.27103
-3.24986
-4.57761
-5.78512
-7.20415
-7.98083
-8.784
-8.64746
-7.93007
-6.84006
-5.63974
-4.13505
-3.0947
-1.72959
-1.18291
0.113038
0.00421626
0.0107708
0.018909
0.0263699
0.0345107
0.0426191
0.0511394
0.0598599
0.0689363
0.0783151
0.088062
0.0981752
0.108693
0.119632
0.131023
0.14289
0.155263
0.168173
0.181651
0.195732
0.210451
0.225849
0.241964
0.258838
0.276513
0.295028
0.314418
0.334705
0.355897
0.377973
0.400871
0.424474
0.448585
0.47291
0.497034
0.52041
0.542366
0.562146
0.578996
0.592309
0.6018
0.607679
0.610753
0.612397
0.614375
0.618481
0.625998
0.63727
0.65198
0.670586
0.695995
0.732628
0.782147
0.835519
0.8732
0.881978
0.842827
0.739708
0.556381
0.27246
-0.135817
-0.704472
-1.4401
-2.43471
-3.51626
-5.07833
-6.25085
-7.93048
-8.76783
-9.66445
-9.46925
-8.6098
-7.37087
-6.00372
-4.3682
-3.22759
-1.79139
-1.21459
0.03512
0.00437187
0.0113461
0.0198807
0.0277769
0.0363545
0.0449208
0.0539083
0.0631135
0.0726887
0.0825843
0.0928657
0.103533
0.114626
0.126163
0.138174
0.150688
0.163735
0.177346
0.191556
0.2064
0.221918
0.238148
0.255135
0.272923
0.291555
0.311074
0.331517
0.352912
0.375267
0.398564
0.422743
0.447685
0.473186
0.498942
0.524515
0.549326
0.572656
0.593684
0.611587
0.625688
0.635653
0.64169
0.644657
0.646049
0.647803
0.651898
0.659734
0.671604
0.68698
0.706213
0.732679
0.771861
0.826394
0.886317
0.929938
0.943494
0.906054
0.800988
0.610828
0.313688
-0.117136
-0.720816
-1.51261
-2.58599
-3.77002
-5.52857
-6.6959
-8.67928
-9.60283
-10.6172
-10.357
-9.34039
-7.93631
-6.38086
-4.60126
-3.35465
-1.84321
-1.25864
0.0593866
0.00452354
0.0119218
0.0208464
0.0291778
0.0381881
0.0472105
0.0566622
0.0663496
0.0764205
0.0868298
0.0976422
0.108861
0.120525
0.132655
0.145284
0.158439
0.172154
0.186462
0.201399
0.217001
0.23331
0.250368
0.268221
0.286914
0.306496
0.327011
0.348501
0.370996
0.394508
0.419022
0.444479
0.470759
0.497655
0.524849
0.551886
0.578152
0.602878
0.62518
0.644156
0.659052
0.669482
0.675644
0.678452
0.679524
0.680985
0.685021
0.693164
0.70564
0.721651
0.741383
0.768733
0.810451
0.870384
0.93747
0.987679
1.00673
0.971621
0.865281
0.669
0.359521
-0.0926375
-0.729697
-1.5757
-2.72171
-4.00673
-5.91752
-7.1379
-9.42762
-10.4836
-11.6484
-11.316
-10.1261
-8.54014
-6.77293
-4.83468
-3.47398
-1.88321
-1.22847
0.125609
0.00467158
0.0124982
0.0218064
0.0305728
0.040012
0.0494886
0.0594012
0.069568
0.0801314
0.0910512
0.102391
0.114157
0.126388
0.139107
0.152349
0.166142
0.180521
0.19552
0.211178
0.227532
0.244627
0.262506
0.281217
0.30081
0.321334
0.342838
0.365367
0.388954
0.413617
0.439342
0.466074
0.493692
0.521986
0.550628
0.579144
0.606886
0.633035
0.656637
0.676708
0.69241
0.703295
0.709548
0.712137
0.712814
0.713906
0.717834
0.726274
0.739369
0.755986
0.776068
0.804083
0.848295
0.914051
0.988953
1.04645
1.07174
1.03961
0.932667
0.730978
0.410117
-0.0618945
-0.730179
-1.62731
-2.83993
-4.22875
-6.24439
-7.58276
-10.1315
-11.4048
-12.7645
-12.3521
-10.9711
-9.18599
-7.18162
-5.06897
-3.58492
-1.91305
-1.23764
0.0446215
0.00481628
0.0130755
0.0227613
0.0319623
0.0418264
0.0517552
0.0621253
0.0727687
0.083821
0.0952479
0.107112
0.11942
0.132215
0.14552
0.159369
0.173795
0.188833
0.204518
0.220891
0.237992
0.255866
0.27456
0.294122
0.314606
0.336065
0.35855
0.38211
0.406782
0.432588
0.459519
0.487522
0.516478
0.546174
0.576274
0.606284
0.635525
0.663125
0.688058
0.709249
0.725769
0.7371
0.743406
0.745714
0.745912
0.746553
0.750316
0.759048
0.772786
0.78998
0.810238
0.838649
0.885279
0.95732
1.04074
1.10627
1.13857
1.11005
1.00315
0.796698
0.465425
-0.0247408
-0.721651
-1.6659
-2.93949
-4.4352
-6.51709
-8.05545
-10.774
-12.3687
-13.9714
-13.471
-11.8798
-9.87731
-7.60855
-5.30452
-3.68665
-1.92907
-1.20031
0.14994
0.00495785
0.0136539
0.0237113
0.0333466
0.0436316
0.0540103
0.0648344
0.0759515
0.0874893
0.0994197
0.111803
0.124652
0.138006
0.151891
0.166344
0.181397
0.197089
0.213455
0.230538
0.248379
0.267026
0.286526
0.306933
0.328301
0.350686
0.374144
0.398727
0.424476
0.451419
0.47955
0.50882
0.539113
0.570215
0.601782
0.633304
0.664067
0.693148
0.719445
0.741785
0.759138
0.770905
0.777226
0.779182
0.778811
0.778908
0.782448
0.791468
0.805886
0.823635
0.843869
0.87234
0.921273
1.00011
1.09278
1.16715
1.20727
1.18293
1.07656
0.865822
0.525013
0.0185049
-0.704101
-1.69085
-3.02049
-4.62068
-6.75836
-8.6153
-11.3473
-13.3807
-15.2736
-14.6784
-12.8569
-10.6174
-8.0553
-5.54148
-3.77821
-1.93121
-1.16974
0.106443
0.00509648
0.0142334
0.0246569
0.0347258
0.0454277
0.0562541
0.0675286
0.0791162
0.0911357
0.103566
0.116466
0.129849
0.143758
0.158219
0.173271
0.188948
0.205287
0.222329
0.240115
0.25869
0.278103
0.298404
0.319648
0.341892
0.365195
0.389617
0.415214
0.442033
0.470103
0.499428
0.529961
0.56159
0.594102
0.627147
0.660198
0.69251
0.723106
0.750801
0.774322
0.792523
0.804718
0.811014
0.812545
0.811504
0.810956
0.814205
0.823517
0.838665
0.856954
0.876935
0.905058
0.956128
1.04233
1.14504
1.22912
1.27778
1.25804
1.15243
0.937545
0.587851
0.0668187
-0.678353
-1.7027
-3.08418
-4.78461
-6.99749
-9.25062
-11.8038
-14.4322
-16.6799
-15.9797
-13.907
-11.4092
-8.52343
-5.77979
-3.85892
-1.91748
-1.14023
0.1839
0.0052323
0.0148143
0.0255982
0.0361001
0.0472149
0.0584865
0.0702078
0.0822625
0.09476
0.107687
0.121098
0.135012
0.149471
0.164505
0.18015
0.196444
0.213427
0.231138
0.249621
0.268924
0.289096
0.31019
0.332263
0.355375
0.379588
0.404966
0.431568
0.459447
0.488638
0.519149
0.550941
0.583905
0.617831
0.652363
0.686962
0.72085
0.752995
0.782129
0.806865
0.825935
0.83855
0.844777
0.845802
0.843983
0.842676
0.845563
0.855174
0.871123
0.889951
0.909415
0.936694
0.989677
1.08387
1.19745
1.29211
1.34995
1.33489
1.22977
1.01037
0.652131
0.118369
-0.646117
-1.7032
-3.13291
-4.92977
-7.24883
-9.81639
-12.1918
-15.5548
-18.1963
-17.3791
-15.0347
-12.2556
-9.01436
-6.01908
-3.92761
-1.88546
-1.03705
0.315201
0.00536542
0.0153966
0.0265355
0.0374697
0.0489933
0.0607075
0.0728718
0.0853902
0.0983618
0.11178
0.125699
0.140141
0.155145
0.170745
0.18698
0.203886
0.221505
0.23988
0.259055
0.279079
0.300003
0.321882
0.344776
0.368747
0.393862
0.420186
0.447784
0.476714
0.507017
0.538708
0.571754
0.606052
0.641394
0.677425
0.71359
0.749084
0.782816
0.813431
0.839421
0.859383
0.872412
0.878524
0.878957
0.876239
0.874047
0.876492
0.886419
0.903262
0.922642
0.941293
0.967127
1.02173
1.12463
1.24993
1.35601
1.42329
1.41244
1.30682
1.08197
0.715264
0.170639
-0.609798
-1.69494
-3.17008
-5.06157
-7.51416
-10.2857
-12.6132
-16.7439
-19.8224
-18.8805
-16.2441
-13.1592
-9.52928
-6.25875
-3.98333
-1.83646
-0.952281
0.321298
0.00549591
0.0159805
0.027469
0.0388347
0.050763
0.062917
0.0755204
0.088499
0.101941
0.115847
0.13027
0.145233
0.160778
0.17694
0.193758
0.211271
0.229522
0.248554
0.268414
0.289152
0.310821
0.333478
0.357185
0.382007
0.408013
0.435274
0.463858
0.49383
0.525236
0.558099
0.592393
0.628022
0.664785
0.702325
0.740076
0.777206
0.812567
0.84471
0.871997
0.892877
0.906314
0.912265
0.912012
0.908263
0.905045
0.90696
0.917227
0.935087
0.955057
0.97256
0.996222
1.05208
1.16448
1.30231
1.42043
1.49683
1.48883
1.38089
1.14917
0.774146
0.2208
-0.572072
-1.68089
-3.19967
-5.18741
-7.7986
-10.7458
-13.2184
-18.0028
-21.5926
-20.4869
-17.5381
-14.122
-10.0691
-6.49786
-4.02479
-1.76768
-0.87079
0.448946
0.00562379
0.0165661
0.0283988
0.0401951
0.0525239
0.065115
0.0781535
0.0915886
0.105496
0.119886
0.134807
0.150288
0.16637
0.183088
0.200484
0.218599
0.237475
0.257158
0.277697
0.299141
0.321548
0.344975
0.369486
0.39515
0.422038
0.450226
0.479787
0.51079
0.54329
0.577316
0.612852
0.64981
0.687996
0.727055
0.766414
0.805211
0.842244
0.875965
0.904598
0.926426
0.940268
0.946009
0.944971
0.940045
0.935646
0.936932
0.947573
0.966607
0.987233
1.00322
1.02383
1.08049
1.20325
1.35424
1.48454
1.56877
1.56118
1.44838
1.20842
0.825696
0.26624
-0.535329
-1.6637
-3.2254
-5.3148
-8.10836
-11.2558
-14.1128
-19.4051
-23.5628
-22.2021
-18.9177
-15.1449
-10.634
-6.73517
-4.04917
-1.67563
-0.702842
0.639763
0.00574908
0.0171534
0.0293251
0.0415509
0.0542762
0.0673013
0.0807708
0.0946584
0.109027
0.123897
0.139312
0.155306
0.171918
0.189188
0.207157
0.225867
0.245363
0.265691
0.286901
0.309045
0.332181
0.35637
0.381677
0.408173
0.435935
0.465039
0.495566
0.52759
0.561174
0.596354
0.633125
0.671409
0.71102
0.751609
0.792595
0.833094
0.871845
0.9072
0.937232
0.960044
0.97429
0.979769
0.977838
0.971577
0.96582
0.966365
0.977426
0.997834
1.01923
1.03327
1.0498
1.10665
1.24065
1.40503
1.54682
1.63625
1.62549
1.50526
1.25647
0.867475
0.305118
-0.501117
-1.64513
-3.25002
-5.44991
-8.44801
-11.8571
-15.3743
-20.9685
-25.7758
-24.0324
-20.3816
-16.2272
-11.224
-6.9693
-4.05378
-1.56268
-0.566605
0.671965
0.00587176
0.0177426
0.0302478
0.0429022
0.0560196
0.0694756
0.083372
0.0977082
0.112534
0.127879
0.143783
0.160284
0.177423
0.195238
0.213774
0.233074
0.253183
0.274149
0.296024
0.318861
0.342719
0.367661
0.393755
0.421074
0.449698
0.479709
0.511191
0.544225
0.578881
0.615206
0.653205
0.692811
0.733849
0.775977
0.818612
0.860847
0.901366
0.938414
0.969904
0.99374
1.00839
1.01356
1.01062
1.00285
0.995537
0.995214
1.00675
1.02878
1.0511
1.06276
1.07392
1.13023
1.27619
1.45345
1.60469
1.69507
1.67716
1.54799
1.2911
0.898208
0.336798
-0.469744
-1.62562
-3.27468
-5.59629
-8.8202
-12.572
-16.9947
-22.661
-28.2637
-25.9893
-21.9277
-17.3667
-11.8383
-7.1985
-4.03579
-1.42331
-0.377272
0.908992
0.00599177
0.0183337
0.0311671
0.0442488
0.0577541
0.0716378
0.0859568
0.100737
0.116016
0.131831
0.14822
0.165223
0.182882
0.201238
0.220335
0.240219
0.260934
0.282532
0.305064
0.328586
0.353158
0.378845
0.405716
0.433849
0.463326
0.494232
0.526657
0.56069
0.596408
0.633867
0.673084
0.714008
0.756474
0.80015
0.844455
0.888463
0.930802
0.969609
1.00262
1.02753
1.04259
1.04739
1.04332
1.03385
1.02476
1.02343
1.03551
1.05948
1.08296
1.09171
1.09599
1.1507
1.309
1.49749
1.65424
1.74004
1.7121
1.57449
1.31164
0.918064
0.362054
-0.440165
-1.60428
-3.2988
-5.75424
-9.22608
-13.4092
-18.8839
-24.4815
-31.0863
-28.0912
-23.5537
-18.5594
-12.4751
-7.42047
-3.99178
-1.25619
-0.188355
1.02163
0.00610904
0.0189267
0.0320829
0.0455908
0.0594796
0.0737876
0.0885247
0.103745
0.119472
0.135752
0.15262
0.170121
0.188295
0.207186
0.226839
0.247299
0.268615
0.290838
0.31402
0.338219
0.363497
0.389919
0.417559
0.446495
0.476813
0.508603
0.54196
0.576979
0.613746
0.652329
0.692756
0.734991
0.778884
0.824118
0.870115
0.915933
0.960148
1.00078
1.03539
1.06142
1.0769
1.08128
1.07595
1.06456
1.05345
1.05094
1.06366
1.08994
1.1149
1.12021
1.11571
1.16735
1.33776
1.53404
1.69004
1.76615
1.72801
1.58463
1.31906
0.928656
0.382938
-0.410233
-1.57911
-3.32026
-5.92094
-9.66305
-14.3665
-20.9396
-26.5266
-34.3476
-30.36
-25.2578
-19.7988
-13.1317
-7.63237
-3.91856
-1.05797
0.0101486
1.26468
0.00622346
0.0195218
0.0329952
0.0469281
0.0611959
0.0759246
0.0910755
0.106732
0.122901
0.139642
0.156984
0.174977
0.19366
0.213081
0.233282
0.254314
0.276223
0.299063
0.322888
0.347757
0.373731
0.400881
0.429279
0.459008
0.490156
0.522819
0.557096
0.593088
0.630892
0.670586
0.712213
0.755751
0.801071
0.84787
0.89558
0.943247
0.989396
1.03194
1.06822
1.09543
1.11134
1.11524
1.10851
1.09498
1.08157
1.07768
1.09113
1.12022
1.14707
1.14832
1.13265
1.17918
1.36072
1.55839
1.70602
1.77035
1.72509
1.58013
1.31575
0.932707
0.402312
-0.377233
-1.54746
-3.33578
-6.09103
-10.1237
-15.435
-23.1269
-28.9605
-38.1666
-32.8206
-27.0392
-21.0758
-13.8041
-7.83069
-3.81245
-0.823749
0.289545
1.55164
0.00633492
0.0201191
0.033904
0.0482604
0.0629027
0.0780485
0.0936084
0.109696
0.126303
0.143499
0.161311
0.17979
0.198977
0.21892
0.239665
0.26126
0.283757
0.307208
0.331668
0.357197
0.38386
0.411727
0.440874
0.471386
0.503353
0.536875
0.572059
0.609011
0.647839
0.688631
0.731446
0.776281
0.823024
0.871395
0.920838
0.970394
1.01854
1.06306
1.10111
1.12957
1.14593
1.1493
1.14103
1.1251
1.10906
1.10358
1.11788
1.15033
1.17964
1.17606
1.14616
1.18526
1.37526
1.56401
1.69766
1.75279
1.70581
1.56418
1.30506
0.933447
0.423184
-0.338477
-1.50647
-3.34127
-6.25722
-10.5972
-16.6022
-25.4557
-31.9483
-42.6198
-35.4989
-28.8981
-22.3793
-14.4872
-8.01134
-3.67004
-0.553541
0.5568
1.7519
0.00644327
0.0207185
0.0348092
0.0495877
0.0645999
0.080159
0.0961232
0.112637
0.129677
0.147324
0.165598
0.184559
0.204243
0.224703
0.245985
0.268138
0.291214
0.315268
0.340355
0.366538
0.39388
0.422455
0.452341
0.483623
0.516398
0.550768
0.586844
0.624743
0.66458
0.706456
0.750447
0.796568
0.844732
0.89468
0.945876
0.997361
1.04757
1.09417
1.13407
1.16385
1.18069
1.18348
1.17351
1.15491
1.13588
1.12854
1.14383
1.18033
1.21276
1.20325
1.15554
1.18514
1.37664
1.54428
1.66429
1.71654
1.67411
1.5407
1.29056
0.933926
0.448122
-0.291673
-1.45328
-3.33206
-6.41069
-11.0698
-17.8498
-27.9202
-35.5555
-47.7332
-38.419
-30.835
-23.6973
-15.1743
-8.16959
-3.48804
-0.243129
0.829669
2.08251
0.00654834
0.0213201
0.0357106
0.0509097
0.066287
0.0822555