/*--------------------------------*- C++ -*----------------------------------*\
| =========                 |                                                 |
| \\      /  F ield         | OpenFOAM: The Open Source CFD Toolbox           |
|  \\    /   O peration     | Version:  4.1                                   |
|   \\  /    A nd           | Web:      www.OpenFOAM.org                      |
|    \\/     M anipulation  |                                                 |
\*---------------------------------------------------------------------------*/
FoamFile
{
    version     2.0;
    format      ascii;
    class       surfaceScalarField;
    location    "9";
    object      phi;
}
// * * * * * * * * * * * * * * * * * * * * * * * * * * * * * * * * * * * * * //

dimensions      [0 3 -1 0 0 0 0];

internalField   nonuniform List<scalar> 
13220
(
-774.243
2074.14
-1204.34
1730.3
-1645.07
1740.63
-1964.29
1619.12
-2222.45
1558.36
-2403.02
1480.48
-2515.01
1411.89
-2558.16
1343.35
-2535.25
1276.99
-2440.75
1205.4
-2263.74
1123.19
-1984.33
1020.49
-1559.94
875.516
-932.894
673.15
367.006
-217.868
2292.01
-496.924
2009.36
-798.452
2042.16
-1049.08
1869.74
-1291.99
1801.27
-1497
1685.49
-1680.65
1595.54
-1836.19
1498.89
-1959.48
1400.28
-2016.74
1262.66
-1922.09
1028.54
-1558.39
656.784
-961.106
278.236
-391.646
103.691
-24.64
-186.968
2478.98
-427.482
2249.87
-612.598
2227.27
-745.592
2002.74
-869.273
1924.95
-952.724
1768.95
-1020.68
1663.5
-1066.55
1544.76
-1094.08
1427.8
-1090.51
1259.1
-1020.76
958.795
-831.359
467.386
-588.568
35.4511
-323.593
-161.274
-348.233
56.3999
2422.58
-13.2672
2319.54
-16.2603
2230.27
3.43563
1983.04
28.6367
1899.75
74.7678
1722.82
132.42
1605.85
207.524
1469.66
291.314
1344.01
358.746
1191.67
347.005
970.538
177.204
637.189
-63.5921
276.252
-121.894
-102.967
-470.127
171.306
2251.28
148.633
2342.21
201.859
2177.04
264.272
1920.63
338.342
1825.68
415.501
1645.66
502.009
1519.34
597.598
1374.07
700.651
1240.96
789.414
1102.9
817.943
942.008
713.481
741.654
490.481
499.256
190.197
197.321
-279.929
165.67
2085.61
175.638
2332.25
226.459
2126.22
285.692
1861.4
356.456
1754.92
421.333
1580.78
489.515
1451.16
552.833
1310.75
612.603
1181.19
660.56
1054.95
677.121
925.447
629.088
789.683
502.792
625.548
284.241
415.862
4.31195
105.566
1980.04
165.109
2272.7
228.044
2063.29
297.86
1791.58
373.243
1679.53
446.742
1507.28
515.618
1382.28
580.821
1245.55
639.317
1122.69
687.408
1006.86
706.073
906.782
666.474
829.285
536.018
756.005
302.408
649.476
306.72
7.25748
1972.78
86.9477
2193.01
151.846
1998.39
196.102
1747.33
244.62
1631.01
314.058
1437.84
422.54
1273.8
578.828
1089.26
751.321
950.198
895.671
862.505
953.359
849.094
887.758
894.882
682.741
961.019
375.762
956.451
682.481
-120.343
2093.13
-120.042
2192.71
-135.077
2013.42
-212.524
1824.78
-291.294
1709.78
-343.749
1490.3
-318.539
1248.59
-218.503
989.225
-61.5736
793.269
132.498
668.435
320.309
661.282
430.681
784.512
397.22
994.482
226.186
1127.49
908.668
-111.357
2204.48
-330.054
2411.41
-514.286
2197.65
-726.78
2037.27
-954.331
1937.33
-1190.56
1726.53
-1404.68
1462.71
-1586.2
1170.75
-1708.67
915.729
-1720.35
680.116
-1559.67
500.608
-1201.54
426.376
-708.484
501.423
-255.719
674.717
652.949
243.865
1960.62
59.1978
2596.07
-161.618
2418.47
-324.789
2200.44
-462.485
2075.03
-628.152
1892.19
-838.848
1673.41
-1083.6
1415.5
-1334.68
1166.81
-1564.07
909.511
-1705.8
642.337
-1651.21
371.782
-1293.24
143.459
-631.455
12.9293
21.4942
568.4
1392.22
671.88
2492.59
562.441
2527.91
499.921
2262.96
514.754
2060.19
531.544
1875.4
507.55
1697.4
422.754
1500.29
294.053
1295.51
123.813
1079.75
-79.4906
845.64
-288.503
580.789
-412.799
267.75
-326.817
-73.0589
-305.323
568.04
824.176
808.413
2252.22
856.785
2479.54
923.722
2196.02
1050.3
1933.61
1180.08
1745.63
1280.1
1597.38
1330.09
1450.29
1329.22
1296.38
1275.4
1133.57
1159.37
961.67
957.987
782.172
650.1
575.636
230.233
346.806
-75.09
343.444
480.731
505.379
2090.28
526.679
2458.24
483.391
2239.31
473.293
1943.71
515.609
1703.31
596.38
1516.61
688.312
1358.36
769.525
1215.17
814.324
1088.77
803.688
972.307
729.117
856.742
571.284
733.469
336.684
581.404
261.594
96.3077
931.598
1756.3
2311.1
2461.01
2387.32
2189.25
1946.87
1671.45
1442.29
1247.39
1047.14
802.793
474.817
4.76433e-06
-36.0435
36.0435
-36.0435
-36.0435
-36.0435
80.2778
-116.321
80.2778
80.2778
80.2778
199.849
-119.571
199.849
199.849
313.055
-113.206
313.055
313.055
313.055
415.566
-102.511
415.566
415.566
495.218
-79.6513
495.218
495.218
495.218
549.283
-54.065
549.283
549.283
549.283
574.673
-25.3902
574.673
574.673
574.486
0.187313
574.486
574.486
574.486
559.604
14.8816
559.604
559.604
538.442
21.162
538.442
538.442
538.442
552.23
-13.7876
552.23
552.23
552.23
591.872
-39.6421
591.872
591.872
584.655
7.21721
584.655
584.655
584.655
494.001
90.6533
494.001
494.001
494.001
315.445
178.556
315.445
315.445
105.507
209.938
105.507
105.507
105.507
-243.952
349.459
-243.952
-243.952
-1113.2
869.246
-1113.2
-1113.2
-1113.2
-2392.27
1279.07
-2392.27
-2392.27
-2392.27
-4027.01
1634.75
-4027.01
-4027.01
-5991.01
1964
-5991.01
-5991.01
-5854.68
-5720.9
-5584.12
-7662.69
2217.14
-7519.74
-7356.92
-7184.34
-7012.99
-6842.58
-6673.31
-6502.46
-6323.24
-8503.33
2361.76
-8317.35
-8130.92
-7944.1
-7748.39
-7551.44
-7353.78
-7155.63
-6954.77
-9317.77
2571.13
-9102.61
-8885.27
-8665.15
-8441.29
-8210.17
-7968.9
-7723.57
-7473.75
-7219.76
-9878.23
2906.95
-9607.11
-9331.17
-9051.85
-8769.48
-8484.34
-8185.56
-7878.92
-7571.45
-10097.1
2815.42
-9798.31
-9492.51
-9173.46
-8853.45
-8531.33
-8208.33
-7883.34
-7533.43
-9488.03
2284.28
-9155.15
-8825.4
-8498.66
-8154.4
-7805.31
-7462.76
-7125.78
-6797.25
-7629.52
1155.52
-7300.13
-6982.01
-6670.22
-6365.11
-6065.15
-5754.89
-5448.49
-5143.58
-4843.63
-4812.48
281.363
-4547.83
-4302.45
-4061.68
-3827.49
-3600.28
-3425.2
-3352.64
-3281.65
-3020.08
-187.817
-2955.61
-2892.02
-2892.02
-2760.9
-131.123
-2619.77
-141.13
-2619.77
-2511.37
-108.395
-2511.37
-2429.27
-82.1082
-2354.77
-74.4995
-2354.77
-2297.94
-56.8255
-2244.31
-53.6341
-2244.31
-2201.4
-42.9082
-2201.4
-2172.52
-28.8816
-2144.12
-28.4013
-2144.12
-2125.86
-18.2549
-2125.86
-2122.39
-3.47107
-2115.14
-7.25005
-2115.14
-2122.02
6.88198
-2123.28
1.26316
-2123.28
-2131.65
8.36328
-2131.65
-2150.91
19.2576
-2159.16
8.2541
-2159.16
-2175.49
16.3269
-2175.49
-2204.61
29.1279
-2217.39
12.7718
-2217.39
-2244.3
26.914
-2254.19
9.88861
-2254.19
-2268.21
14.0185
-2268.21
-2287.35
19.14
-2287.44
0.093566
-2287.44
-2290.78
3.34331
-2290.78
-2300.67
9.88475
-2290.66
-10.0094
-2290.66
-2289.12
-1.53764
-2269.4
-19.7225
-2269.4
-2248.68
-20.7217
-2248.68
-2227.38
-21.2931
-2188.89
-38.4984
-2188.89
-2147.32
-41.5649
-2147.32
-2104.91
-42.4118
-2047.18
-57.7346
-2047.18
-1987.71
-59.4694
-1917.54
-70.1648
-1917.54
-1842.25
-75.2939
-1842.25
-1763.84
-78.402
-1678.53
-85.3165
-1678.53
-1586.92
-91.6042
-1586.92
-1491.38
-95.5462
-1391.32
-100.057
-1391.32
-1282.57
-108.755
-1173.5
-109.065
-1173.5
-1056.65
-116.849
-1056.65
-123.842
-19.6246
-94.3426
-19.5356
-121.437
-19.6269
-139.232
-19.7558
-156.439
-19.9713
-173.373
-20.2396
-189.5
-20.5743
-205.457
-20.9653
-221.064
-21.4167
-236.566
-21.9251
-251.949
-22.4914
-267.323
-23.1144
-282.718
-23.7943
-298.198
-24.5306
-313.801
-25.3235
-329.572
-26.1731
-345.549
-27.0795
-361.768
-28.0433
-378.263
-29.0649
-395.068
-30.1452
-412.214
-31.2849
-429.73
-32.4852
-447.646
-33.747
-465.992
-35.0718
-484.793
-36.4608
-504.078
-37.9154
-523.871
-39.4368
-544.198
-41.0264
-565.079
-42.6851
-586.533
-44.4136
-608.573
-46.2119
-631.208
-48.0796
-654.434
-50.0149
-678.239
-52.015
-702.596
-54.0757
-727.459
-56.1909
-752.765
-58.3526
-778.428
-60.551
-804.343
-62.7744
-830.39
-65.0097
-856.438
-67.2428
-882.359
-69.4588
-908.042
-71.6431
-933.402
-73.7808
-958.398
-75.8572
-983.032
-77.8568
-1007.35
-79.7622
-1031.43
-81.5532
-1055.37
-83.2049
-1079.25
-84.6862
-1103.16
-85.9551
-1127.16
-86.9507
-1151.26
-87.5806
-1175.34
-87.7056
-1198.95
-87.1289
-1221.09
-85.5883
-1240.16
-82.7551
-1253.88
-78.2385
-1259.24
-71.6019
-1252.36
-62.3914
-1228.29
-50.211
-1180.67
-34.8084
-1100.34
-16.3301
-975.934
4.03445
-785.679
29.0954
-489.93
48.805
133.496
53.1827
607.732
56.7281
1003.29
58.9691
1348.55
60.2788
1670.5
58.6965
1932.45
56.5082
2185.47
50.3395
2341.69
48.8674
2597.72
40.3829
2611.72
48.622
3020.4
46.6176
2753.61
59.7744
3440.27
4131.2
-21.6279
-94.6002
-21.468
-121.596
-21.5354
-139.165
-21.6502
-156.324
-21.8666
-173.156
-22.1434
-189.223
-22.4948
-205.106
-22.9088
-220.65
-23.3892
-236.086
-23.9317
-251.406
-24.5373
-266.718
-25.2043
-282.051
-25.9327
-297.47
-26.7219
-313.011
-27.5718
-328.722
-28.4825
-344.638
-29.4541
-360.796
-30.487
-377.231
-31.5817
-393.974
-32.739
-411.057
-33.9597
-428.509
-35.2448
-446.361
-36.5954
-464.641
-38.013
-483.375
-39.4986
-502.592
-41.0537
-522.316
-42.6795
-542.572
-44.3771
-563.381
-46.147
-584.763
-47.9897
-606.731
-49.9045
-629.293
-51.8901
-652.449
-53.9438
-676.186
-56.0614
-700.478
-58.237
-725.284
-60.4629
-750.539
-62.7291
-776.161
-65.024
-802.048
-67.3346
-828.079
-69.6469
-854.126
-71.9465
-880.06
-74.2195
-905.769
-76.4528
-931.169
-78.6339
-956.217
-80.7502
-980.916
-82.788
-1005.31
-84.731
-1029.49
-86.5588
-1053.54
-88.246
-1077.57
-89.7598
-1101.65
-91.0542
-1125.87
-92.0586
-1150.26
-92.6603
-1174.74
-92.6884
-1198.92
-91.906
-1221.88
-90.0079
-1242.06
-86.6209
-1257.27
-81.3132
-1264.55
-73.6116
-1260.06
-63.0335
-1238.87
-49.1763
-1194.53
-31.8069
-1117.71
-11.1779
-996.563
11.3071
-808.164
38.5582
-517.181
61.2807
110.774
59.2621
609.751
59.674
1002.88
60.6474
1347.58
61.0338
1670.11
58.7772
1934.71
56.0666
2188.18
49.6879
2348.07
47.9255
2599.48
39.6124
2620.03
47.5228
3012.49
45.6829
2755.45
59.2698
3426.68
4073.62
-22.7084
-94.8969
-22.5235
-121.781
-22.576
-139.112
-22.6848
-156.215
-22.9015
-172.94
-23.1836
-188.941
-23.5444
-204.745
-23.9712
-220.223
-24.4677
-235.59
-25.0292
-250.845
-25.6565
-266.09
-26.3477
-281.36
-27.1027
-296.715
-27.9208
-312.193
-28.802
-327.841
-29.7461
-343.694
-30.7533
-359.789
-31.824
-376.16
-32.9585
-392.839
-34.1578
-409.857
-35.4225
-427.245
-36.7539
-445.03
-38.1529
-463.242
-39.6209
-481.907
-41.1592
-501.054
-42.769
-520.706
-44.4515
-540.889
-46.2076
-561.625
-48.038
-582.932
-49.9424
-604.826
-51.9202
-627.315
-53.9694
-650.4
-56.0866
-674.069
-58.2671
-698.298
-60.5038
-723.047
-62.7881
-748.255
-65.1092
-773.84
-67.4544
-799.703
-69.8101
-825.723
-72.162
-851.774
-74.4961
-877.726
-76.7993
-903.466
-79.0595
-928.909
-81.2658
-954.01
-83.4068
-978.775
-85.4697
-1003.25
-87.4386
-1027.52
-89.293
-1051.69
-91.0072
-1075.85
-92.5477
-1100.11
-93.8668
-1124.55
-94.8879
-1149.24
-95.4864
-1174.14
-95.4723
-1198.93
-94.5868
-1222.76
-92.502
-1244.14
-88.8218
-1260.95
-83.0938
-1270.27
-74.8251
-1268.33
-63.5158
-1250.18
-48.7542
-1209.29
-30.3061
-1136.16
-8.46483
-1018.4
15.34
-831.968
41.9578
-543.799
71.4066
81.3249
68.373
612.785
64.7193
1006.54
63.4021
1348.9
62.4175
1671.09
59.0686
1938.06
55.569
2191.68
48.7215
2354.92
46.6114
2601.59
38.2911
2628.35
45.9523
3004.83
43.9834
2757.42
59.4072
3411.26
4023.97
-23.9706
-95.2292
-23.7631
-121.989
-23.8031
-139.072
-23.9074
-156.111
-24.1267
-172.72
-24.4166
-188.651
-24.7899
-204.371
-25.2334
-219.78
-25.7501
-235.073
-26.3352
-250.26
-26.9893
-265.436
-27.7103
-280.639
-28.4979
-295.927
-29.3515
-311.34
-30.2707
-326.922
-31.2555
-342.709
-32.306
-358.739
-33.4225
-375.043
-34.6055
-391.656
-35.8556
-408.607
-37.1738
-425.926
-38.5612
-443.643
-40.0188
-461.784
-41.5479
-480.378
-43.1499
-499.452
-44.8259
-519.03
-46.5771
-539.138
-48.4044
-559.798
-50.3079
-581.029
-52.2876
-602.847
-54.3421
-625.261
-56.469
-648.273
-58.6642
-671.873
-60.9221
-696.04
-63.2347
-720.734
-65.592
-745.897
-67.9821
-771.45
-70.3912
-797.294
-72.8048
-823.31
-75.2082
-849.37
-77.5874
-875.346
-79.9299
-901.123
-82.225
-926.613
-84.4632
-951.772
-86.6349
-976.603
-88.7284
-1001.16
-90.7283
-1025.52
-92.6143
-1049.8
-94.3606
-1074.11
-95.9334
-1098.54
-97.2834
-1123.2
-98.3287
-1148.19
-98.9319
-1173.54
-98.8825
-1198.98
-97.8965
-1223.75
-95.6189
-1246.42
-91.6258
-1264.95
-85.4387
-1276.46
-76.5387
-1277.23
-64.4018
-1262.31
-48.5966
-1225.09
-28.8684
-1155.89
-5.53906
-1041.73
19.9623
-857.47
46.7803
-570.617
83.5736
44.5317
80.0957
616.262
72.2872
1014.34
67.5195
1353.66
64.5061
1674.11
59.6719
1942.89
55.0548
2196.3
47.5581
2362.41
44.9281
2604.22
36.6133
2636.67
43.9312
2997.51
41.835
2759.51
56.1735
3396.92
3971.38
-25.1712
-95.5854
-24.9505
-122.21
-24.9806
-139.042
-25.083
-156.008
-25.3061
-172.497
-25.6048
-188.352
-25.9912
-203.985
-26.4515
-219.32
-26.9886
-234.536
-27.5973
-249.651
-28.278
-264.756
-29.0283
-279.888
-29.8482
-295.107
-30.7365
-310.451
-31.6931
-325.965
-32.7178
-341.684
-33.8107
-357.646
-34.9719
-373.882
-36.2021
-390.426
-37.502
-407.307
-38.8723
-424.556
-40.3142
-442.201
-41.8289
-460.27
-43.4176
-478.79
-45.0816
-497.788
-46.8222
-517.29
-48.6403
-537.32
-50.5368
-557.901
-52.5118
-579.054
-54.5648
-600.794
-56.6941
-623.131
-58.8969
-646.07
-61.1683
-669.602
-63.5019
-693.707
-65.8887
-718.347
-68.3176
-743.468
-70.7754
-768.992
-73.2474
-794.822
-75.7181
-820.839
-78.1722
-846.916
-80.596
-872.923
-82.9777
-898.741
-85.3079
-924.283
-87.5785
-949.501
-89.7817
-974.4
-91.9071
-999.032
-93.9399
-1023.49
-95.8599
-1047.88
-97.6412
-1072.33
-99.2504
-1096.93
-100.637
-1121.81
-101.716
-1147.11
-102.337
-1172.92
-102.27
-1199.05
-101.207
-1224.81
-98.766
-1248.86
-94.4981
-1269.21
-87.8988
-1283.06
-78.4236
-1286.7
-65.5222
-1275.21
-48.7375
-1241.88
-27.779
-1176.84
-2.97188
-1066.54
24.3605
-884.802
53.1889
-599.446
93.9226
3.79793
93.5333
616.652
82.8587
1025.02
73.5442
1362.98
67.5238
1680.13
60.7114
1949.7
54.6178
2202.39
46.2103
2370.82
42.9191
2607.52
34.5071
2645.08
41.5097
2990.51
39.1661
2761.86
54.8096
3381.28
3926.14
-26.3664
-95.9583
-26.1385
-122.437
-26.1617
-139.019
-26.2644
-155.906
-26.4929
-172.269
-26.8018
-188.043
-27.2025
-203.584
-27.681
-218.841
-28.2395
-233.977
-28.8729
-249.018
-29.5812
-264.047
-30.362
-279.108
-31.2151
-294.254
-32.1393
-309.527
-33.1343
-324.97
-34.1999
-340.619
-35.3362
-356.509
-36.5434
-372.675
-37.822
-389.147
-39.1726
-405.957
-40.5963
-423.132
-42.094
-440.703
-43.667
-458.697
-45.3166
-477.14
-47.044
-496.06
-48.8505
-515.483
-50.737
-535.433
-52.7043
-555.934
-54.7524
-577.006
-56.8804
-598.666
-59.0864
-620.925
-61.367
-643.789
-63.7168
-667.252
-66.1283
-691.295
-68.5917
-715.884
-71.0948
-740.965
-73.623
-766.464
-76.1605
-792.284
-78.6909
-818.309
-81.1985
-844.409
-83.6694
-870.452
-86.0927
-896.318
-88.4601
-921.916
-90.7655
-947.196
-93.0025
-972.163
-95.1623
-996.872
-97.2306
-1021.42
-99.1876
-1045.93
-101.008
-1070.51
-102.658
-1095.28
-104.088
-1120.38
-105.21
-1145.99
-105.862
-1172.27
-105.795
-1199.12
-104.676
-1225.93
-102.098
-1251.44
-97.5845
-1273.73
-90.6057
-1290.04
-80.5894
-1296.72
-66.9558
-1288.85
-49.2132
-1259.62
-27.0204
-1199.04
-0.682003
-1092.88
28.6657
-914.15
60.0757
-630.856
103.136
-39.2627
107.741
612.047
96.2252
1036.53
81.9676
1377.24
71.7432
1690.35
62.309
1959.14
54.355
2210.34
44.7542
2380.42
40.6335
2611.64
32.0185
2653.69
38.6955
2983.83
35.9839
2764.57
50.3375
3366.92
3880.93
-27.5457
-96.3411
-27.3161
-122.667
-27.3352
-139
-27.4405
-155.8
-27.6758
-172.034
-27.9963
-187.723
-28.4124
-203.168
-28.9099
-218.344
-29.4908
-233.396
-30.1497
-248.359
-30.8864
-263.311
-31.6985
-278.295
-32.5854
-293.367
-33.5462
-308.567
-34.5803
-323.936
-35.6876
-339.511
-36.8679
-355.329
-38.1217
-371.421
-39.4492
-387.82
-40.8514
-404.555
-42.329
-421.655
-43.8832
-439.149
-45.5152
-457.065
-47.2263
-475.429
-49.0178
-494.269
-50.8909
-513.61
-52.8467
-533.478
-54.8856
-553.895
-57.0076
-574.884
-59.2117
-596.462
-61.4955
-618.642
-63.8551
-641.43
-66.2845
-664.823
-68.7755
-688.804
-71.3172
-713.342
-73.8961
-738.386
-76.4966
-763.864
-79.1015
-789.679
-81.6936
-815.717
-84.2564
-841.846
-86.7763
-867.932
-89.2429
-893.852
-91.6493
-919.509
-93.9912
-944.854
-96.264
-969.89
-98.4602
-994.676
-100.567
-1019.31
-102.564
-1043.93
-104.426
-1068.64
-106.122
-1093.58
-107.603
-1118.9
-108.777
-1144.82
-109.475
-1171.57
-109.427
-1199.16
-108.275
-1227.08
-105.588
-1254.13
-100.862
-1278.45
-93.5414
-1297.36
-83.0248
-1307.23
-68.7004
-1303.17
-50.0348
-1278.29
-26.6231
-1222.45
1.27538
-1120.78
32.7644
-945.639
66.7702
-664.861
112.44
-84.9322
122.261
602.225
111.727
1047.07
93.132
1395.83
77.5852
1705.9
64.6191
1972.1
54.359
2220.6
43.2632
2391.52
38.1246
2616.78
29.2018
2662.62
35.5191
2977.51
32.4407
2767.65
46.0911
3353.27
3835.42
-28.7134
-96.7282
-28.4864
-122.894
-28.504
-138.982
-28.6141
-155.69
-28.8578
-171.79
-29.1912
-187.389
-29.6238
-202.736
-30.1414
-217.826
-30.7456
-232.792
-31.4309
-247.673
-32.1969
-262.545
-33.0411
-277.451
-33.9629
-292.445
-34.961
-307.568
-36.035
-322.862
-37.1846
-338.362
-38.4099
-354.104
-39.7109
-370.12
-41.0883
-386.442
-42.5427
-403.1
-44.0751
-420.122
-45.6866
-437.537
-47.3784
-455.373
-49.1519
-473.655
-51.0084
-492.412
-52.9492
-511.669
-54.9751
-531.452
-57.0867
-551.783
-59.2838
-572.687
-61.5652
-594.18
-63.9281
-616.279
-66.3682
-638.99
-68.879
-662.312
-71.4512
-686.232
-74.0731
-710.72
-76.7299
-735.73
-79.4049
-761.189
-82.0796
-787.004
-84.7355
-813.061
-87.3558
-839.225
-89.9267
-865.361
-92.4385
-891.34
-94.8859
-917.062
-97.2661
-942.474
-99.5769
-967.579
-101.812
-992.44
-103.96
-1017.17
-106
-1041.89
-107.908
-1066.73
-109.655
-1091.83
-111.194
-1117.36
-112.432
-1143.58
-113.191
-1170.81
-113.181
-1199.17
-112.023
-1228.24
-109.257
-1256.89
-104.353
-1283.36
-96.7287
-1304.98
-85.7546
-1318.21
-70.7827
-1318.14
-51.2302
-1297.84
-26.6178
-1247.06
2.86649
-1150.26
36.6017
-979.374
73.2603
-701.52
121.848
-133.52
136.87
587.204
128.556
1055.38
107.048
1417.34
85.5626
1727.39
67.8921
1989.77
54.7339
2233.76
41.804
2404.45
35.4431
2623.14
26.0905
2671.97
32.0479
2971.55
28.5453
2771.15
44.5922
3337.23
3794.69
-29.8701
-97.1149
-29.6495
-123.115
-29.6682
-138.964
-29.7852
-155.573
-30.0388
-171.536
-30.3864
-187.042
-30.8366
-202.285
-31.3754
-217.287
-32.0039
-232.164
-32.7166
-246.961
-33.5128
-261.749
-34.3899
-276.574
-35.3472
-291.488
-36.3835
-306.532
-37.4983
-321.747
-38.6911
-337.169
-39.962
-352.833
-41.3112
-368.771
-42.7392
-385.014
-44.2466
-401.593
-45.8346
-418.534
-47.5042
-435.868
-49.2567
-453.62
-51.0935
-471.819
-53.0159
-490.49
-55.0252
-509.66
-57.1223
-529.354
-59.3077
-549.598
-61.5811
-570.413
-63.9409
-591.82
-66.3844
-613.835
-68.9066
-636.467
-71.5003
-659.718
-74.1557
-683.576
-76.8598
-708.016
-79.5968
-732.993
-82.3485
-758.437
-85.0952
-784.258
-87.8173
-810.338
-90.4973
-836.545
-93.1213
-862.737
-95.6804
-888.781
-98.1705
-914.572
-100.591
-940.053
-102.942
-965.228
-105.219
-990.164
-107.41
-1014.98
-109.496
-1039.8
-111.455
-1064.78
-113.257
-1090.03
-114.861
-1115.76
-116.175
-1142.27
-117.013
-1169.97
-117.063
-1199.12
-115.925
-1229.38
-113.111
-1259.71
-108.065
-1288.4
-100.179
-1312.87
-88.7932
-1329.6
-73.2206
-1333.72
-52.822
-1318.24
-27.0345
-1272.85
4.05149
-1181.35
40.1068
-1015.43
79.4756
-740.889
131.293
-185.338
151.489
567.008
146.03
1060.84
123.311
1440.06
96.0842
1754.61
72.5037
2013.35
55.6173
2250.65
40.447
2419.62
32.6369
2630.95
22.7165
2681.89
28.2691
2966
24.2654
2775.15
38.3947
3323.1
3754.68
-31.0174
-97.4973
-30.8062
-123.326
-30.8284
-138.942
-30.9543
-155.447
-31.2193
-171.271
-31.5825
-186.678
-32.0515
-201.816
-32.6126
-216.726
-33.2664
-231.51
-34.0073
-246.22
-34.8346
-260.921
-35.7456
-275.663
-36.7393
-290.494
-37.8146
-305.457
-38.9709
-320.591
-40.2078
-335.932
-41.5252
-351.516
-42.9233
-367.373
-44.4027
-383.535
-45.9641
-400.031
-47.6085
-416.89
-49.3371
-434.139
-51.1511
-451.806
-53.0521
-469.918
-55.0414
-488.501
-57.1203
-507.581
-59.2897
-527.185
-61.55
-547.338
-63.9008
-568.062
-66.3406
-589.381
-68.866
-611.31
-71.4719
-633.862
-74.1505
-657.039
-76.8909
-680.836
-79.6794
-705.228
-82.4989
-730.173
-85.3298
-755.606
-88.151
-781.436
-90.9419
-807.548
-93.6839
-833.803
-96.3632
-860.058
-98.9715
-886.172
-101.506
-912.037
-103.969
-937.59
-106.362
-962.835
-108.683
-987.843
-110.921
-1012.74
-113.057
-1037.67
-115.07
-1062.76
-116.933
-1088.17
-118.61
-1114.08
-120.013
-1140.86
-120.946
-1169.04
-121.08
-1198.99
-119.99
-1230.47
-117.161
-1262.53
-112.013
-1293.55
-103.91
-1320.97
-92.1598
-1341.35
-76.0368
-1349.84
-54.8374
-1339.44
-27.9078
-1299.78
4.78357
-1214.04
43.2005
-1053.85
85.3468
-783.035
140.654
-240.645
166.134
541.528
163.724
1063.25
141.237
1462.54
109.273
1786.58
78.9191
2043.71
57.2181
2272.35
39.2736
2437.56
29.7556
2640.46
19.1165
2692.53
24.2
2960.92
19.7439
2779.61
32.9299
3309.91
3712.32
-32.1562
-97.872
-31.9571
-123.525
-31.9852
-138.913
-32.1219
-155.311
-32.3998
-170.993
-32.7799
-186.298
-33.269
-201.327
-33.8533
-216.142
-34.5334
-230.83
-35.3036
-245.449
-36.1629
-260.062
-37.1087
-274.717
-38.1398
-289.463
-39.255
-304.342
-40.4537
-319.392
-41.7354
-334.65
-43.1001
-350.151
-44.5481
-365.925
-46.0798
-382.003
-47.6959
-398.415
-49.3976
-415.188
-51.1861
-432.351
-53.0627
-449.93
-55.0288
-467.952
-57.086
-486.443
-59.2355
-505.432
-61.4783
-524.942
-63.8147
-545.001
-66.2444
-565.633
-68.7654
-586.86
-71.3744
-608.701
-74.0657
-631.17
-76.831
-654.274
-79.6587
-678.008
-82.5339
-702.353
-85.4383
-727.269
-88.351
-752.694
-91.2494
-778.538
-94.1115
-804.686
-96.9181
-830.997
-99.655
-857.321
-102.315
-883.513
-104.896
-909.456
-107.403
-935.083
-109.841
-960.398
-112.208
-985.476
-114.496
-1010.45
-116.686
-1035.48
-118.756
-1060.69
-120.686
-1086.24
-122.444
-1112.32
-123.948
-1139.36
-124.996
-1167.99
-125.239
-1198.75
-124.226
-1231.48
-121.419
-1265.34
-116.209
-1298.76
-107.935
-1329.25
-95.8725
-1353.41
-79.2529
-1366.46
-57.304
-1361.39
-29.2785
-1327.8
4.99739
-1248.32
45.7687
-1094.62
90.7392
-828.006
149.758
-299.664
180.806
510.48
181.432
1062.63
160.113
1483.86
124.9
1821.79
87.5773
2081.03
59.8511
2300.08
38.3945
2459.02
26.8592
2652
15.3342
2704.05
19.9359
2956.32
15.0039
2784.54
31.2707
3293.64
3673.43
-33.2879
-98.2361
-33.103
-123.71
-33.1392
-138.877
-33.2885
-155.161
-33.5809
-170.701
-33.9792
-185.9
-34.4894
-200.817
-35.0983
-215.533
-35.8057
-230.122
-36.6062
-244.649
-37.4985
-259.17
-38.4798
-273.736
-39.5492
-288.394
-40.7052
-303.186
-41.9472
-318.15
-43.2747
-333.323
-44.6877
-348.738
-46.1863
-364.426
-47.7712
-380.418
-49.4431
-396.743
-51.203
-413.428
-53.0523
-430.502
-54.9924
-447.99
-57.0247
-465.919
-59.1508
-484.317
-61.3721
-503.21
-63.6894
-522.625
-66.1032
-542.587
-68.613
-563.123
-71.2169
-584.256
-73.9111
-606.007
-76.6897
-628.392
-79.5437
-651.42
-82.4609
-675.091
-85.4252
-699.388
-88.4173
-724.277
-91.4145
-749.696
-94.3929
-775.56
-97.329
-801.749
-100.203
-828.123
-102.999
-854.524
-105.713
-880.8
-108.343
-906.825
-110.897
-932.529
-113.381
-957.914
-115.798
-983.059
-118.139
-1008.11
-120.385
-1033.23
-122.518
-1058.56
-124.519
-1084.24
-126.367
-1110.47
-127.985
-1137.74
-129.168
-1166.81
-129.546
-1198.37
-128.644
-1232.38
-125.896
-1268.09
-120.667
-1303.99
-112.271
-1337.64
-99.9504
-1365.73
-82.8923
-1383.52
-60.2545
-1384.02
-31.2036
-1356.86
4.58611
-1284.1
47.6223
-1137.65
95.4128
-875.796
158.4
-362.651
195.45
473.43
199.096
1058.98
179.406
1503.55
142.46
1858.74
98.74
2124.75
63.9302
2334.88
37.9755
2484.97
24.0201
2665.95
11.4195
2716.65
15.4469
2952.29
9.91376
2790.08
23.3488
3280.21
3637.3
-34.4134
-98.5872
-34.2447
-123.878
-34.2911
-138.831
-34.4547
-154.998
-34.7631
-170.392
-35.181
-185.482
-35.7136
-200.284
-36.3479
-214.899
-37.0838
-229.387
-37.9155
-243.817
-38.8418
-258.243
-39.8598
-272.718
-40.9684
-287.285
-42.1661
-301.988
-43.4523
-316.864
-44.8265
-331.949
-46.2886
-347.276
-47.8389
-362.876
-49.4779
-378.779
-51.2064
-395.015
-53.0256
-411.609
-54.9367
-428.59
-56.9413
-445.985
-59.0409
-463.82
-61.237
-482.121
-63.5312
-500.916
-65.9243
-520.232
-68.4169
-540.095
-71.0083
-560.532
-73.6965
-581.568
-76.4777
-603.225
-79.3455
-625.524
-82.2904
-648.475
-85.2994
-672.082
-88.3556
-696.332
-91.438
-721.194
-94.5227
-746.612
-97.584
-772.498
-100.597
-798.736
-103.541
-825.18
-106.4
-851.665
-109.169
-878.031
-111.85
-904.144
-114.452
-929.927
-116.985
-955.38
-119.454
-980.59
-121.852
-1005.71
-124.16
-1030.92
-126.358
-1056.36
-128.436
-1082.16
-130.382
-1108.53
-132.13
-1135.99
-133.47
-1165.47
-134.01
-1197.83
-133.253
-1233.14
-130.603
-1270.74
-125.402
-1309.19
-116.935
-1346.11
-104.413
-1378.25
-86.9802
-1400.95
-63.7343
-1407.27
-33.7794
-1386.81
3.35522
-1321.24
48.4228
-1182.72
98.9326
-926.306
166.244
-429.962
209.929
429.745
216.709
1052.2
198.832
1521.43
161.337
1896.23
112.39
2173.7
69.8989
2377.38
38.2634
2516.61
21.329
2682.89
7.43379
2730.55
10.8198
2948.9
4.752
2796.14
20.5652
3264.39
3600.14
-35.5337
-98.9232
-35.383
-124.029
-35.4415
-138.772
-35.6212
-154.818
-35.947
-170.067
-36.3857
-185.043
-36.9419
-199.728
-37.603
-214.237
-38.3683
-228.621
-39.2324
-242.953
-40.1936
-257.282
-41.2493
-271.662
-42.398
-286.137
-43.6384
-300.748
-44.9698
-315.532
-46.3916
-330.527
-47.9039
-345.763
-49.5068
-361.273
-51.2009
-377.085
-52.987
-393.228
-54.8664
-409.73
-56.8404
-426.616
-58.9106
-443.915
-61.0785
-461.652
-63.3459
-479.854
-65.7142
-498.548
-68.1844
-517.762
-70.7571
-537.522
-73.4316
-557.857
-76.2059
-578.793
-79.0759
-600.355
-82.0349
-622.565
-85.073
-645.437
-88.1764
-668.979
-91.3271
-693.181
-94.5029
-718.018
-97.6782
-743.436
-100.826
-769.351
-103.919
-795.643
-106.935
-822.163
-109.859
-848.741
-112.686
-875.204
-115.42
-901.41
-118.073
-927.275
-120.658
-952.795
-123.182
-978.065
-125.64
-1003.25
-128.013
-1028.55
-130.281
-1054.1
-132.441
-1080
-134.494
-1106.47
-136.387
-1134.1
-137.906
-1163.95
-138.639
-1197.09
-138.063
-1233.72
-135.554
-1273.25
-130.427
-1314.32
-121.942
-1354.59
-109.279
-1390.91
-91.5517
-1418.68
-67.8233
-1431
-37.1877
-1417.45
0.944545
-1359.37
47.5725
-1229.35
100.537
-979.271
172.644
-502.069
223.937
378.451
234.22
1041.92
218.303
1537.35
180.976
1933.56
128.228
2226.45
78.1159
2427.49
39.5954
2555.13
18.9037
2703.58
3.44076
2746.01
6.09931
2946.25
-0.622858
2802.87
13.0233
3250.75
3570.75
-36.6498
-99.2421
-36.5185
-124.16
-36.5912
-138.7
-36.7884
-154.621
-37.1331
-169.722
-37.5941
-184.582
-38.1751
-199.147
-38.864
-213.549
-39.66
-227.825
-40.5574
-242.056
-41.5547
-256.285
-42.649
-270.568
-43.8389
-284.947
-45.123
-299.463
-46.5005
-314.155
-47.971
-329.056
-49.5344
-344.2
-51.1909
-359.617
-52.9411
-375.335
-54.786
-391.384
-56.7267
-407.789
-58.7646
-424.578
-60.9015
-441.778
-63.1389
-459.414
-65.4787
-477.514
-67.9224
-496.104
-70.4712
-515.213
-73.1254
-534.868
-75.8846
-555.098
-78.7467
-575.931
-81.7075
-597.395
-84.7599
-619.512
-87.8936
-642.303
-91.094
-665.778
-94.3421
-689.933
-97.6144
-714.746
-100.884
-740.167
-104.121
-766.114
-107.297
-792.467
-110.389
-819.071
-113.381
-845.749
-116.268
-872.317
-119.057
-898.621
-121.763
-924.569
-124.402
-950.156
-126.985
-975.482
-129.507
-1000.73
-131.948
-1026.11
-134.291
-1051.75
-136.539
-1077.75
-138.707
-1104.3
-140.76
-1132.05
-142.483
-1162.23
-143.441
-1196.14
-143.085
-1234.07
-140.76
-1275.57
-135.756
-1319.32
-127.307
-1363.04
-114.575
-1403.64
-96.6703
-1436.58
-72.6813
-1454.99
-41.7746
-1448.35
-3.27965
-1397.87
44.086
-1276.71
99.0013
-1034.19
176.407
-579.475
236.836
318.022
251.443
1027.31
237.816
1550.97
200.991
1970.38
145.767
2281.67
88.7455
2484.51
42.373
2601.5
16.9049
2729.05
-0.496905
2763.41
1.29431
2944.45
-6.00266
2810.16
6.93342
3237.81
3536.12
-37.7627
-99.5425
-37.6522
-124.271
-37.7408
-138.611
-37.9572
-154.405
-38.3222
-169.357
-38.8067
-184.098
-39.4138
-198.54
-40.1318
-212.831
-40.9595
-226.998
-41.8914
-241.124
-42.9257
-255.251
-44.0597
-269.434
-45.2918
-283.715
-46.6206
-298.135
-48.0454
-312.73
-49.5656
-327.536
-51.1811
-342.585
-52.8923
-357.905
-54.6997
-373.528
-56.6043
-389.479
-58.6074
-405.786
-60.7105
-422.475
-62.9152
-439.573
-65.2234
-457.106
-67.6369
-475.1
-70.1574
-493.584
-72.786
-512.584
-75.5234
-532.131
-78.369
-552.252
-81.3208
-572.98
-84.3743
-594.341
-87.5224
-616.364
-90.7542
-639.072
-94.0544
-662.478
-97.4031
-686.585
-100.775
-711.374
-104.142
-736.8
-107.472
-762.784
-110.735
-789.204
-113.906
-815.901
-116.969
-842.686
-119.919
-869.367
-122.765
-895.775
-125.526
-921.808
-128.222
-947.46
-130.867
-972.837
-133.457
-998.142
-135.972
-1023.59
-138.393
-1049.33
-140.733
-1075.41
-143.026
-1102.01
-145.256
-1129.82
-147.209
-1160.27
-148.425
-1194.92
-148.33
-1234.17
-146.234
-1277.67
-141.401
-1324.16
-133.05
-1371.39
-120.35
-1416.34
-102.472
-1454.46
-78.6318
-1478.83
-48.1653
-1478.82
-10.3409
-1435.69
36.5043
-1323.56
92.5709
-1090.25
175.483
-662.387
247.336
246.169
267.982
1006.67
257.368
1561.59
221.174
2006.58
164.455
2338.39
101.698
2547.27
46.9905
2656.21
15.55
2760.49
-4.30967
2783.27
-3.49912
2943.64
-11.3159
2817.98
5.99203
3220.5
3503.61
-38.8733
-99.8227
-38.7848
-124.359
-38.891
-138.505
-39.1281
-154.167
-39.5149
-168.97
-40.0243
-183.589
-40.6587
-197.906
-41.407
-212.082
-42.2675
-226.137
-43.235
-240.156
-44.3076
-254.178
-45.4823
-268.259
-46.7577
-282.439
-48.1324
-296.76
-49.6054
-311.257
-51.1763
-325.965
-52.8451
-340.916
-54.612
-356.139
-56.4778
-371.662
-58.4433
-387.513
-60.51
-403.719
-62.6793
-420.306
-64.9532
-437.299
-67.3334
-454.726
-69.822
-472.612
-72.4206
-490.985
-75.1306
-509.874
-77.9528
-529.308
-80.8866
-549.319
-83.9299
-569.936
-87.0783
-591.193
-90.3244
-613.118
-93.657
-635.739
-97.0601
-659.075
-100.513
-683.132
-103.988
-707.898
-107.456
-733.333
-110.883
-759.357
-114.237
-785.85
-117.49
-812.647
-120.626
-839.55
-123.642
-866.351
-126.547
-892.869
-129.365
-918.99
-132.121
-944.704
-134.832
-970.126
-137.495
-995.479
-140.087
-1021
-142.592
-1046.83
-145.028
-1072.98
-147.454
-1099.58
-149.879
-1127.39
-152.089
-1158.06
-153.601
-1193.41
-153.807
-1233.96
-151.985
-1279.49
-147.376
-1328.77
-139.204
-1379.57
-126.714
-1428.84
-109.252
-1471.92
-86.2892
-1501.79
-57.3965
-1507.71
-21.7198
-1471.37
22.9631