/*--------------------------------*- C++ -*----------------------------------*\
| =========                 |                                                 |
| \\      /  F ield         | OpenFOAM: The Open Source CFD Toolbox           |
|  \\    /   O peration     | Version:  4.1                                   |
|   \\  /    A nd           | Web:      www.OpenFOAM.org                      |
|    \\/     M anipulation  |                                                 |
\*---------------------------------------------------------------------------*/
FoamFile
{
    version     2.0;
    format      ascii;
    class       volScalarField;
    location    "9";
    object      p;
}
// * * * * * * * * * * * * * * * * * * * * * * * * * * * * * * * * * * * * * //

dimensions      [0 2 -2 0 0 0 0];

internalField   nonuniform List<scalar> 
6785
(
600.952
523.149
476.567
423.6
377.194
332.437
290.678
251.062
213.532
177.985
143.768
110.574
82.2374
53.0676
11.5954
0.970734
-16.9569
-6.88713
-14.0027
-13.1598
-15.4841
-15.917
-16.2392
-15.5556
-13.9608
-11.3399
-7.65165
-2.15822
3.52773
5.52758
7.81262
2.18818
10.2431
4.43536
6.97264
4.506
3.97959
2.18297
0.599443
-1.34287
-3.2292
-4.32445
-4.71827
-5.4494
-5.53501
2.29925
-1.61827
0.237568
-5.70715
-5.27887
-9.52466
-11.1431
-14.0571
-16.2603
-18.541
-20.2814
-21.1469
-20.7094
-20.4399
-19.1941
-4.72538
-6.46953
-3.37574
-6.04465
-2.7533
-3.95327
-2.1269
-1.70306
-0.506111
0.517253
1.82012
3.04391
4.932
6.31495
9.0989
18.943
19.274
22.5906
21.5983
25.0928
25.0891
27.3849
28.5425
30.2093
31.7281
33.3849
34.9139
36.6941
37.9676
39.8661
39.7963
40.6892
43.1882
42.448
45.0624
44.9731
46.6197
47.3608
48.4674
49.4657
50.4866
51.4288
52.5418
53.3638
54.5952
55.8726
56.9939
58.7143
58.4092
60.4314
60.4195
61.7723
61.9206
62.2571
62.0895
61.9297
62.1076
62.6982
63.2999
63.9068
65.4071
65.4865
66.3629
65.4449
66.4303
65.5287
65.743
64.9499
64.5126
63.8634
63.3896
63.0078
62.5252
62.5052
61.6667
63.8346
60.9493
61.1813
58.9532
58.9129
57.0947
56.399
54.5613
52.78
50.2093
47.4363
44.7903
43.3918
42.7575
39.434
24.3889
18.8705
16.9798
12.8602
10.233
6.20602
3.25616
-0.0306752
-2.33336
-4.23618
-5.20648
-5.30794
-5.11855
-5.82294
-7.51936
-11.7016
-15.0459
-16.3479
-19.0616
-20.3199
-22.4892
-23.5813
-24.6652
-24.9947
-25.1394
-25.0497
-24.9368
-24.8977
-24.8917
-23.3961
-1.54199
-1.3514
-1.23163
-1.91315
-1.773
-2.32992
-2.47132
-2.75212
-2.85654
-2.94541
-2.83213
-2.64551
-1.74141
-0.671719
1.73712
11.4394
14.1845
15.3232
15.8211
16.4936
17.1748
18.3404
19.4793
20.6634
21.7318
22.7904
23.7343
24.835
25.7364
26.7788
53.548
53.0611
50.4472
44.7288
39.1381
36.0603
34.2652
33.1743
32.3388
31.8374
30.8256
29.7164
28.5637
27.8435
26.3547
24.8984
24.9605
24.9713
24.9729
24.9768
24.9934
25.0311
25.0172
25.0134
25.0058
25.0391
25.001
24.9899
25.0123
24.948
24.936
24.9346
24.9537
24.8383
24.8692
24.8875
24.7576
24.7414
24.7927
24.8119
24.6583
24.6404
24.7024
24.7644
24.5656
24.6414
24.7269
24.5557
24.5197
24.5797
24.6639
24.4677
24.5308
24.5753
24.4326
24.3772
24.4693
24.375
24.2406
24.1914
24.2835
24.1246
23.9121
24.0354
23.8891
23.7552
23.6881
23.7706
23.7575
23.6755
23.6202
23.6553
23.8567
23.8031
23.778
24.0939
24.0774
24.032
23.9687
24.1932
24.241
24.7302
24.3851
23.5639
24.2482
25.1635
21.1251
18.8719
20.9888
23.5164
7.97931
14.3935
19.2551
-12.1913
-3.22298
1.68834
0.304777
3.55119
-6.7798
0.440983
4.77917
5.43761
6.51658
7.38668
8.36593
10.0169
12.9147
6.4962
9.48521
11.5287
14.0657
16.6817
17.9908
19.584
21.0997
23.4565
18.7207
22.2192
25.1883
26.789
29.1223
31.9143
33.9621
35.2279
36.7267
37.3148
39.8696
39.4734
42.0039
43.1403
44.2492
46.3582
49.1375
50.2913
48.2703
53.8336
52.311
55.5035
56.1352
55.696
55.0973
54.2483
56.3111
53.146
62.7714
59.4393
55.612
55.4542
55.0554
52.1041
49.8838
47.6375
40.5452
51.5981
52.8044
46.1515
42.8446
38.1949
34.0876
30.0163
26.8999
23.3787
17.6022
15.9383
19.6721
14.0768
12.8933
10.8069
8.0406
1.01564
-1.39962
1.02615
-8.75723
3.56574
0.82375
-0.332739
6.6578
-1.10474
2.30811
0.324947
2.65173
6.51852
-0.20088
3.26875
5.96084
1.0361
2.79173
1.22855
2.64527
5.63017
0.721319
2.41975
0.729918
2.31398
5.02999
-0.561482
2.26978
4.43943
0.00720477
1.57578
0.0119632
1.41268
4.2939
-0.49101
1.14903
-0.444577
1.03669
4.09895
-1.6812
1.12427
3.74151
-0.982525
0.603993
-0.843197
0.481145
3.90105
-1.31847
0.472743
-1.11759
0.457375
3.89184
-2.27553
0.799171
3.5774
-1.27245
0.450885
-0.955518
0.45335
3.80185
-1.20215
0.633623
-0.839655
0.73862
3.72527
-1.62445
1.15655
3.30396
-0.580263
0.910342
-0.225679
0.966244
3.18341
-0.307904
1.03257
-0.00774293
1.08541
2.68424
-0.515363
1.1201
2.00529
-0.145217
0.627833
-0.152284
0.380435
1.9061
0.000203226
0.000379978
0.000640672
0.000847659
0.00109282
0.00132825
0.00158361
0.00184313
0.00211695
0.00240009
0.00269635
0.00300446
0.0033262
0.00366162
0.0040119
0.00437763
0.00475986
0.00515947
0.00557755
0.00601517
0.00647353
0.00695385
0.0074574
0.00798545
0.00853921
0.00911975
0.00972787
0.0103639
0.0110275
0.0117172
0.0124302
0.0131618
0.0139048
0.0146494
0.0153824
0.0160878
0.0167475
0.0173424
0.0178553
0.0182741
0.0185948
0.0188251
0.0189848
0.0191042
0.0192201
0.0193688
0.0195797
0.0198714
0.020256
0.0207465
0.0213526
0.0220541
0.0227438
0.0231664
0.0229211
0.021568
0.0186893
0.0138507
0.00677633
-0.00275755
-0.014415
-0.028008
-0.0417414
-0.0499924
-0.0663475
-0.0735999
-0.205183
-0.365193
-0.470296
-0.562071
-0.585908
-0.583482
-0.498322
-0.480381
-0.304906
-0.392813
-0.187403
-0.204759
-0.828614
0.000592399
0.00110652
0.00185518
0.00246537
0.00317123
0.00385365
0.00458662
0.00533189
0.00611445
0.00692268
0.00776601
0.00864177
0.00955446
0.0105046
0.0114952
0.012528
0.0136058
0.014731
0.0159066
0.0171353
0.0184204
0.019765
0.0211726
0.0226464
0.0241895
0.0258047
0.0274939
0.0292577
0.0310947
0.0330005
0.0349668
0.0369798
0.0390191
0.0410565
0.043055
0.0449699
0.0467502
0.0483438
0.0497045
0.0508014
0.0516288
0.0522146
0.0526225
0.0529478
0.0533038
0.0538032
0.0545387
0.055574
0.0569564
0.0587419
0.0609873
0.0636766
0.066559
0.0689758
0.0698669
0.0680828
0.0625316
0.0520211
0.0356979
0.0126423
-0.0168126
-0.0533176
-0.0932626
-0.124007
-0.177605
-0.180062
-0.409087
-0.703825
-0.908369
-1.08725
-1.1557
-1.15668
-1.03765
-0.949089
-0.696354
-0.642496
-0.370518
-0.23188
-0.272547
0.000925855
0.00178632
0.00305668
0.00408452
0.00527634
0.00642631
0.00766222
0.00891822
0.0102375
0.0115999
0.0130218
0.0144984
0.0160376
0.0176401
0.0193112
0.0210539
0.0228728
0.0247722
0.0267568
0.0288318
0.0310024
0.0332743
0.035653
0.0381444
0.0407538
0.0434859
0.0463441
0.0493296
0.0524401
0.0556687
0.0590013
0.062415
0.0658757
0.0693359
0.0727334
0.0759926
0.0790272
0.0817488
0.0840782
0.0859614
0.087387
0.0883991
0.0891028
0.0896557
0.0902461
0.091061
0.0922534
0.0939261
0.0961536
0.0990244
0.102628
0.106931
0.111497
0.115189
0.11618
0.112486
0.102206
0.0832762
0.0542081
0.0134538
-0.0384047
-0.102334
-0.171544
-0.226073
-0.309401
-0.279182
-0.550827
-0.893968
-1.1394
-1.35589
-1.43961
-1.43847
-1.29742
-1.17596
-0.877331
-0.768252
-0.43969
-0.29002
-0.0343647
0.00124802
0.0024532
0.00422896
0.00567227
0.00733981
0.0089503
0.0106784
0.0124348
0.0142782
0.0161817
0.0181675
0.0202294
0.0223781
0.024615
0.0269471
0.0293788
0.0319166
0.0345662
0.0373346
0.0402286
0.0432557
0.0464236
0.0497403
0.0532136
0.0568512
0.0606596
0.0646434
0.0688044
0.0731396
0.0776391
0.0822836
0.0870413
0.0918647
0.0966875
0.101423
0.105966
0.110196
0.113989
0.117233
0.119854
0.121836
0.123239
0.124213
0.124978
0.125801
0.126944
0.128623
0.130981
0.134122
0.138174
0.143273
0.149389
0.155929
0.161313
0.162971
0.158134
0.144121
0.118012
0.0776435
0.0207132
-0.0522606
-0.143108
-0.242306
-0.324541
-0.438025
-0.386704
-0.729402
-1.14621
-1.44209
-1.70466
-1.8048
-1.79873
-1.62211
-1.46474
-1.09456
-0.949626
-0.534171
-0.363133
-0.0611468
0.00154153
0.00309685
0.00537983
0.00724362
0.00939108
0.0114668
0.0136915
0.0159527
0.0183249
0.0207742
0.0233287
0.0259809
0.0287444
0.031621
0.03462
0.0377467
0.0410097
0.0444164
0.0479757
0.0516963
0.055588
0.0596606
0.0639244
0.0683897
0.0730662
0.0779623
0.0830843
0.0884344
0.0940089
0.0997955
0.10577
0.111891
0.118098
0.124306
0.130405
0.136258
0.141709
0.1466
0.150784
0.154164
0.156718
0.158524
0.159772
0.160749
0.161797
0.163258
0.165409
0.168432
0.172458
0.177652
0.184205
0.1921
0.200594
0.207649
0.209917
0.203819
0.185848
0.152183
0.099931
0.0259818
-0.0693226
-0.188817
-0.319985
-0.43403
-0.582158
-0.513285
-0.942073
-1.43057
-1.77988
-2.09066
-2.20933
-2.19692
-1.98373
-1.78219
-1.33898
-1.14054
-0.641399
-0.447766
0.0593755
0.00181869
0.00372727
0.00650883
0.00879447
0.0114188
0.013959
0.0166776
0.0194415
0.0223392
0.0253308
0.0284501
0.0316884
0.035062
0.0385733
0.0422334
0.0460493
0.0500312
0.0541881
0.0585308
0.0630702
0.067818
0.0727863
0.0779876
0.0834346
0.0891389
0.0951112
0.101359
0.107886
0.114686
0.121746
0.129036
0.136507
0.144085
0.151667
0.159116
0.166268
0.172932
0.17891
0.184025
0.188154
0.191268
0.193463
0.194973
0.196148
0.197413
0.199188
0.201813
0.205508
0.210431
0.216787
0.224832
0.234584
0.245173
0.254107
0.25724
0.250188
0.228603
0.187742
0.123935
0.0331736
-0.0846041
-0.233578
-0.398361
-0.549178
-0.738952
-0.664322
-1.18285
-1.72479
-2.11996
-2.47155
-2.60398
-2.58179
-2.33195
-2.08444
-1.57145
-1.31827
-0.740401
-0.513127
0.0983251
0.00207727
0.00434442
0.00761861
0.0103288
0.0134294
0.0164353
0.019648
0.0229149
0.0263381
0.0298721
0.0335558
0.0373797
0.0413628
0.0455081
0.0498287
0.0543328
0.0590324
0.0639384
0.0690634
0.0744201
0.0800226
0.0858851
0.0920223
0.0984492
0.10518
0.112227
0.119599
0.1273
0.135326
0.143659
0.152266
0.161088
0.170039
0.178998
0.187805
0.196263
0.204147
0.211221
0.217274
0.222156
0.225831
0.228411
0.230173
0.231536
0.233006
0.235085
0.238176
0.242537
0.248347
0.255856
0.265396
0.277044
0.289823
0.300785
0.304947
0.297115
0.272062
0.224094
0.148714
0.0409329
-0.0999219
-0.279637
-0.480039
-0.672995
-0.909902
-0.847019
-1.45698
-2.04453
-2.48104
-2.86829
-3.00918
-2.97274
-2.68305
-2.38664
-1.80165
-1.495
-0.838415
-0.590957
0.113577
0.00232131
0.00495191
0.00871037
0.0118469
0.0154214
0.0188932
0.0225983
0.0263673
0.0303142
0.0343889
0.038635
0.0430422
0.0476321
0.0524086
0.0573865
0.0625755
0.0679893
0.0736405
0.0795436
0.0857133
0.0921657
0.0989172
0.105985
0.113386
0.121137
0.129252
0.137742
0.146612
0.155857
0.165457
0.175374
0.185543
0.195864
0.206199
0.216363
0.226128
0.235234
0.243407
0.250397
0.256031
0.260261
0.263215
0.265215
0.266748
0.268408
0.270779
0.274332
0.279357
0.286052
0.294712
0.305764
0.319373
0.334482
0.347687
0.353124
0.344791
0.316549
0.261728
0.174953
0.0501689
-0.114152
-0.325688
-0.563761
-0.804581
-1.09368
-1.0618
-1.76452
-2.39502
-2.87038
-3.28976
-3.43332
-3.3772
-3.044
-2.69415
-2.0346
-1.67208
-0.937284
-0.679189
0.154763
0.00255162
0.00555117
0.0097858
0.0133505
0.0173967
0.0213347
0.0255311
0.0298017
0.0342711
0.0388852
0.043692
0.0486809
0.0538758
0.0592813
0.0649143
0.0707856
0.076911
0.0833044
0.0899825
0.0969619
0.104261
0.111897
0.119892
0.128263
0.137029
0.146208
0.155812
0.165846
0.176305
0.187169
0.198395
0.209909
0.2216
0.233312
0.244837
0.255916
0.266251
0.275528
0.283462
0.289847
0.294628
0.297947
0.300168
0.301854
0.303684
0.306334
0.310339
0.316023
0.323595
0.333396
0.345968
0.361598
0.379183
0.394858
0.401824
0.393275
0.362114
0.300672
0.202649
0.0608382
-0.127396
-0.37188
-0.649847
-0.94448
-1.29041
-1.30989
-2.10413
-2.7763
-3.28819
-3.73673
-3.87579
-3.79291
-3.41203
-3.00379
-2.26759
-1.84623
-1.03515
-0.734832
0.146655
0.00277015
0.00614409
0.0108462
0.0148406
0.0193557
0.02376
0.028446
0.0332172
0.0382073
0.0433592
0.0487247
0.0542931
0.0600904
0.0661224
0.0724076
0.0789582
0.0857917
0.0929239
0.100373
0.108158
0.116299
0.124816
0.133732
0.143068
0.152846
0.163083
0.173794
0.184987
0.196656
0.208779
0.221309
0.234166
0.247227
0.260318
0.273207
0.285605
0.297175
0.307564
0.316445
0.323583
0.328908
0.332577
0.335001
0.336817
0.338797
0.341709
0.346157
0.352493
0.360933
0.371864
0.385962
0.403681
0.423911
0.442318
0.451109
0.442678
0.408919
0.34115
0.232098
0.0733194
-0.139199
-0.417666
-0.737829
-1.09231
-1.49964
-1.59215
-2.47564
-3.1908
-3.73757
-4.21376
-4.34059
-4.22204
-3.78803
-3.31574
-2.50027
-2.01725
-1.13213
-0.807234
0.122168
0.00297806
0.00673192
0.0118929
0.0163184
0.0212995
0.0261699
0.0313437
0.0366145
0.0421235
0.0478116
0.0537337
0.0598794
0.0662768
0.0729326
0.0798671
0.0870941
0.0946325
0.1025
0.110717
0.119303
0.128282
0.137675
0.147508
0.157804
0.168587
0.179877
0.191691
0.204037
0.216911
0.23029
0.244121
0.25832
0.272751
0.287224
0.301482
0.315206
0.328021
0.33953
0.349364
0.357255
0.363118
0.367124
0.369729
0.371648
0.373752
0.376908
0.381788
0.388769
0.398065
0.410107
0.425733
0.445609
0.468667
0.490098
0.501036
0.493086
0.457076
0.383303
0.263472
0.0878253
-0.149305
-0.462719
-0.827464
-1.2478
-1.72108
-1.90943
-2.87856
-3.64092
-4.22166
-4.72609
-4.83303
-4.6683
-4.17417
-3.63113
-2.73315
-2.18535
-1.22752
-0.894457
0.14266
0.00317662
0.00731585
0.0129272
0.0177848
0.0232288
0.0285648
0.0342245
0.0399935
0.0460196
0.0522419
0.0587184
0.065439
0.0724338
0.0797106
0.0872915
0.0951914
0.103431
0.11203
0.12101
0.130394
0.140206
0.150471
0.161216
0.172466
0.184249
0.196586
0.209497
0.222992
0.237066
0.251695
0.266826
0.282364
0.298166
0.314024
0.329658
0.344716
0.358786
0.371424
0.382218
0.390863
0.397257
0.401583
0.404345
0.406338
0.408538
0.411914
0.417215
0.424833
0.434971
0.4481
0.465247
0.48735
0.51344
0.538216
0.551657
0.544592
0.506718
0.427306
0.297002
0.104653
-0.157337
-0.506535
-0.918299
-1.41032
-1.95424
-2.26258
-3.31172
-4.12855
-4.7426
-5.27802
-5.3578
-5.13506
-4.57213
-3.95036
-2.96617
-2.34936
-1.3206
-0.931074
0.135429
0.00336682
0.0078968
0.01395
0.0192409
0.0251442
0.0309454
0.0370888
0.0433547
0.0498956
0.0566501
0.0636786
0.0709716
0.0785611
0.086456
0.0946799
0.10325
0.112187
0.121514
0.131253
0.14143
0.152071
0.163202
0.174853
0.187053
0.19983
0.213209
0.227211
0.241849
0.257117
0.272993
0.28942
0.306298
0.323472
0.340719
0.357736
0.374138
0.389473
0.403252
0.415014
0.424415
0.431333
0.43596
0.438851
0.440885
0.443148
0.446722
0.452429
0.460676
0.471638
0.485822
0.504476
0.528874
0.558216
0.586692
0.603024
0.597284
0.557963
0.473318
0.332894
0.124075
-0.162933
-0.548603
-1.00984
-1.57898
-2.19852
-2.65285
-3.77368
-4.65592
-5.30243
-5.87368
-5.9197
-5.62613
-4.98405
-4.27394
-3.19922
-2.50897
-1.41195
-1.00578
0.0954379
0.0035496
0.00847557
0.0149624
0.0206873
0.0270466
0.0333122
0.0399368
0.046698
0.0537516
0.0610361
0.068614
0.0764768
0.084658
0.0931679
0.102032
0.111267
0.120899
0.130949
0.141444
0.152409
0.163873
0.175866
0.188418
0.201562
0.215327
0.229741
0.244829
0.260603
0.277062
0.294181
0.3119
0.330116
0.348665
0.367306
0.385713
0.403471
0.420085
0.435017
0.447756
0.457915
0.465349
0.470258
0.473246
0.475284
0.477574
0.481317
0.487417
0.496285
0.50805
0.523249
0.543383
0.570142
0.602977
0.635539
0.655183
0.651249
0.610933
0.521502
0.371366
0.146384
-0.165684
-0.58833
-1.10142
-1.75249
-2.45303
-3.08199
-4.26266
-5.22603
-5.90339
-6.51722
-6.52371
-6.14576
-5.41267
-4.60268
-3.43229
-2.66351
-1.49988
-1.04788
0.114114
0.00372574
0.00905281
0.0159654
0.0221249
0.0289364
0.0356655
0.042769
0.0500237
0.0575874
0.0653996
0.0735242
0.081954
0.0907239
0.0998455
0.109346
0.119244
0.129565
0.140335
0.15158
0.163329
0.175612
0.188461
0.201909
0.21599
0.230737
0.246181
0.262348
0.279254
0.296897
0.315254
0.334264
0.353818
0.373742
0.393783
0.41359
0.432716
0.450623
0.466723
0.48045
0.49137
0.49931
0.50448
0.507531
0.50953
0.511806
0.515689
0.522167
0.531647
0.544193
0.560357
0.581929
0.611111
0.647699
0.684769
0.708178
0.70657
0.665743
0.572015
0.41263
0.171872
-0.165163
-0.625074
-1.19223
-1.92891
-2.7164
-3.55096
-4.77437
-5.842
-6.54793
-7.21273
-7.17467
-6.69831
-5.86116
-4.93766
-3.66537
-2.81219
-1.58408
-1.10172
0.0403762
0.00389596
0.00962906
0.0169596
0.0235543
0.0308143
0.0380058
0.0455855
0.0533317
0.0614031
0.0697405
0.078409
0.0874028
0.0967581
0.106488
0.116621
0.127177
0.138185
0.14967
0.161661
0.174189
0.187286
0.200985
0.215323
0.230335
0.246058
0.262526
0.279766
0.297796
0.316619
0.336209
0.356507
0.377398
0.398701
0.420148
0.441365
0.461873
0.481089
0.498373
0.513101
0.524785
0.533223
0.538628
0.541705
0.543619
0.545836
0.549826
0.556666
0.566753
0.580053
0.597119
0.620071
0.651728
0.692351
0.734385
0.762051
0.763326
0.722504
0.625012
0.456897
0.200839
-0.160908
-0.658118
-1.28113
-2.10545
-2.98619
-4.05525
-5.29563
-6.50348
-7.23846
-7.96454
-7.87729
-7.28828
-6.33298
-5.28023
-3.89837
-2.95493
-1.66199
-1.16646
0.0574047
0.00406086
0.0102048
0.017946
0.0249761
0.0326809
0.0403334
0.0483866
0.0566223
0.0651985
0.0740585
0.0832678
0.0928226
0.10276
0.113095
0.123857
0.135068
0.146757
0.158953
0.171685
0.184987
0.198891
0.213435
0.228657
0.244595
0.261287
0.278771
0.297078
0.316227
0.336223
0.357043
0.378625
0.400854
0.423539
0.446398
0.469037
0.490941
0.511485
0.529971
0.545713
0.558167
0.567093
0.572708
0.575769
0.577546
0.579653
0.583714
0.590902
0.601589
0.615617
0.633508
0.657761
0.691936
0.736896
0.784389
0.816838
0.821594
0.781325
0.680641
0.504371
0.233585
-0.152429
-0.686651
-1.36663
-2.27833
-3.25799
-4.57688
-5.80073
-7.20259
-7.97648
-8.77735
-8.63618
-7.92016
-6.83177
-5.63208
-4.13113
-3.0922
-1.73111
-1.17703
0.086563
0.00422095
0.0107804
0.0189252
0.0263908
0.0345365
0.0426487
0.0511724
0.0598954
0.0689736
0.0783534
0.0881004
0.0982129
0.108729
0.119665
0.131052
0.142913
0.15528
0.168182
0.181651
0.19572
0.210428
0.225811
0.24191
0.258766
0.276422
0.294915
0.314281
0.334543
0.355707
0.377752
0.400616
0.424181
0.448251
0.47253
0.496602
0.519921
0.541813
0.561521
0.578293
0.591521
0.600926
0.606722
0.609721
0.611306
0.613247
0.617339
0.624861
0.636146
0.650872
0.669497
0.694943
0.731664
0.781293
0.834775
0.872572
0.881447
0.842308
0.739044
0.555251
0.270411
-0.1392
-0.709757
-1.44688
-2.4429
-3.52471
-5.08209
-6.26803
-7.92804
-8.76234
-9.65641
-9.45596
-8.59842
-7.36124
-5.9951
-4.36351
-3.22447
-1.79209
-1.20799
0.0116388
0.00437671
0.0113562
0.0198977
0.0277989
0.0363816
0.0449519
0.053943
0.063151
0.0727281
0.0826248
0.0929063
0.103573
0.114664
0.126197
0.138205
0.150713
0.163753
0.177355
0.191555
0.206388
0.221892
0.238108
0.255078
0.272847
0.291458
0.310955
0.331373
0.35274
0.375066
0.398331
0.422474
0.447376
0.472834
0.498541
0.524061
0.548811
0.572072
0.593025
0.610844
0.624855
0.634728
0.640675
0.643563
0.644892
0.646606
0.650686
0.658529
0.670414
0.685806
0.705057
0.73156
0.770837
0.82549
0.885531
0.929284
0.942955
0.905549
0.800356
0.60972
0.311607
-0.120672
-0.726424
-1.51985
-2.59505
-3.77877
-5.53667
-6.71072
-8.67512
-9.59608
-10.6076
-10.3415
-9.32738
-7.92516
-6.37117
-4.59576
-3.35082
-1.8431
-1.25123
0.0374392
0.00452851
0.0119324
0.0208642
0.0292009
0.0382166
0.0472433
0.0566987
0.066389
0.076462
0.0868724
0.097685
0.108903
0.120565
0.132691
0.145316
0.158465
0.172173
0.186472
0.201398
0.216988
0.233284
0.250326
0.268161
0.286835
0.306394
0.326886
0.34835
0.370816
0.394296
0.418776
0.444196
0.470434
0.497285
0.524428
0.551408
0.57761
0.602265
0.624487
0.643374
0.658175
0.668507
0.674573
0.677295
0.678299
0.679717
0.68374
0.691892
0.704384
0.720411
0.740158
0.767545
0.809364
0.869429
0.936641
0.987
1.00618
0.971138
0.864693
0.66793
0.357429
-0.0963102
-0.735611
-1.5834
-2.73158
-4.01571
-5.9285
-7.1482
-9.42361
-10.4757
-11.6371
-11.2979
-10.1113
-8.52728
-6.76206
-4.8283
-3.46936
-1.88231
-1.2206
0.104467
0.00467668
0.0125093
0.021825
0.0305971
0.0400419
0.049523
0.0594395
0.0696094
0.0801749
0.0910959
0.102436
0.114201
0.12643
0.139146
0.152383
0.16617
0.180541
0.195531
0.211177
0.227519
0.244599
0.262462
0.281154
0.300726
0.321227
0.342706
0.365207
0.388765
0.413394
0.439084
0.465777
0.493351
0.521597
0.550187
0.578643
0.606318
0.632391
0.655909
0.675887
0.691488
0.702269
0.708419
0.710916
0.71152
0.712568
0.716482
0.724933
0.738047
0.754679
0.774773
0.802824
0.847145
0.913044
0.98808
1.04575
1.07119
1.03915
0.932135
0.729965
0.408036
-0.0656823
-0.736372
-1.63548
-2.8505
-4.23802
-6.25723
-7.58839
-10.1287
-11.3959
-12.7512
-12.3311
-10.9544
-9.1712
-7.16943
-5.06164
-3.5794
-1.91135
-1.22903
0.0265976
0.00482149
0.0130871
0.0227807
0.0319877
0.0418577
0.0517912
0.0621654
0.072812
0.0838667
0.0952949
0.107159
0.119467
0.132259
0.14556
0.159405
0.173824
0.188854
0.20453
0.220891
0.237979
0.255837
0.274513
0.294056
0.314519
0.335953
0.358412
0.381943
0.406584
0.432356
0.459249
0.487211
0.516122
0.545768
0.575812
0.60576
0.634931
0.662452
0.687296
0.708389
0.724803
0.736022
0.742219
0.744428
0.744549
0.745142
0.748893
0.757639
0.771398
0.788606
0.808874
0.837316
0.884064
0.95626
1.03982
1.10554
1.13803
1.10963
1.00268
0.795762
0.46338
-0.0286176
-0.72809
-1.67451
-2.95068
-4.44493
-6.53076
-8.05533
-10.7721
-12.3587
-13.956
-13.4467
-11.861
-9.86035
-7.5949
-5.29615
-3.68013
-1.92659
-1.19121
0.133069
0.00496318
0.013666
0.0237315
0.0333731
0.0436642
0.0540479
0.0648764
0.0759968
0.087537
0.0994689
0.111853
0.1247
0.138052
0.151933
0.166381
0.181428
0.197111
0.213467
0.230537
0.248365
0.266995
0.286478
0.306864
0.32821
0.35057
0.374
0.398552
0.424269
0.451176
0.479268
0.508495
0.538741
0.569791
0.6013
0.632757
0.663447
0.692446
0.71865
0.740887
0.758127
0.769776
0.775981
0.777832
0.777377
0.777425
0.780952
0.78999
0.804432
0.822194
0.842432
0.870932
0.91999
0.998996
1.09181
1.1664
1.20672
1.18254
1.07618
0.864981
0.523029
0.01457
-0.710747
-1.69988
-3.03224
-4.63103
-6.77183
-8.60939
-11.3481
-13.3702
-15.256
-14.6504
-12.8357
-10.5979
-8.04005
-5.53201
-3.7706
-1.92794
-1.15992
0.0917468
0.00510192
0.0142461
0.0246779
0.0347534
0.0454617
0.0562933
0.0675724
0.0791634
0.0911856
0.103617
0.116517
0.1299
0.143806
0.158264
0.17331
0.18898
0.20531
0.222341
0.240115
0.258676
0.278071
0.298353
0.319576
0.341796
0.365073
0.389467
0.415032
0.441817
0.46985
0.499134
0.529623
0.561203
0.59366
0.626645
0.659628
0.691865
0.722375
0.749973
0.773385
0.791468
0.803538
0.80971
0.811128
0.809999
0.809398
0.812636
0.82197
0.837145
0.855447
0.875425
0.903572
0.954776
1.04116
1.14402
1.22834
1.27724
1.2577
1.15213
0.936815
0.585954
0.0628617
-0.685161
-1.71211
-3.09645
-4.7957
-7.01039
-9.24428
-11.8087
-14.422
-16.6597
-15.9476
-13.8833
-11.387
-8.50641
-5.76911
-3.85015
-1.91341
-1.12966
0.171177
0.00523785
0.0148275
0.02562
0.0361289
0.0472502
0.0585273
0.0702534
0.0823118
0.094812
0.10774
0.121152
0.135065
0.149522
0.164551
0.180191
0.196478
0.213451
0.231151
0.249622
0.268909
0.289064
0.310138
0.332188
0.355275
0.379461
0.404809
0.431379
0.459222
0.488374
0.518843
0.550589
0.583502
0.617371
0.651842
0.68637
0.72018
0.752236
0.781268
0.80589
0.824836
0.837318
0.843414
0.844318
0.842404
0.841041
0.84392
0.853558
0.869538
0.888376
0.907831
0.935127
0.988254
1.08265
1.19639
1.29131
1.3494
1.3346
1.22956
1.00977
0.650347
0.114431
-0.653036
-1.71293
-3.14567
-4.94169
-7.26163
-9.81615
-12.1973
-15.5446
-18.1735
-17.3423
-15.0081
-12.2303
-8.9954
-6.00709
-3.9176
-1.88056
-1.02618
0.304676
0.00537107
0.0154104
0.0265581
0.0374996
0.04903
0.06075
0.0729192
0.0854415
0.0984159
0.111836
0.125755
0.140196
0.155198
0.170794
0.187022
0.203921
0.221531
0.239894
0.259056
0.279063
0.299969
0.321828
0.344699
0.368644
0.39373
0.420023
0.447587
0.47648
0.506743
0.53839
0.571388
0.605633
0.640917
0.676884
0.712976
0.748388
0.782028
0.812538
0.838409
0.858239
0.871128
0.877101
0.877405
0.874585
0.872335
0.874773
0.884733
0.901612
0.921001
0.939634
0.965475
1.02024
1.12335
1.24881
1.35518
1.42272
1.41217
1.3067
1.08149
0.713618
0.166768
-0.616772
-1.70496
-3.18333
-5.07439
-7.52737
-10.2895
-12.6164
-16.7366
-19.7966
-18.8384
-16.2145
-13.1304
-9.5082
-6.24532
-3.972
-1.83067
-0.94086
0.313962
0.00550165
0.0159949
0.0274924
0.0388657
0.0508011
0.0629612
0.0755697
0.0885523
0.101997
0.115905
0.130328
0.14529
0.160833
0.17699
0.193803
0.211308
0.229549
0.248569
0.268415
0.289136
0.310786
0.333422
0.357105
0.3819
0.407877
0.435105
0.463655
0.493588
0.524952
0.557769
0.592013
0.627588
0.664291
0.701764
0.739441
0.776486
0.811751
0.843784
0.870947
0.891689
0.904979
0.910781
0.910392
0.906533
0.903254
0.905165
0.915473
0.933373
0.953349
0.970823
0.994483
1.05051
1.16315
1.30113
1.41955
1.49623
1.48858
1.38083
1.14881
0.772668
0.21705
-0.579039
-1.69115
-3.21341
-5.20123
-7.81261
-10.7526
-13.2156
-17.998
-21.5619
-20.4387
-17.5052
-14.0893
-10.0456
-6.48286
-4.01204
-1.76094
-0.858858
0.443583
0.00562963
0.016581
0.028423
0.0402273
0.0525634
0.0651608
0.0782046
0.0916439
0.105554
0.119947
0.134868
0.150348
0.166427
0.183141
0.200531
0.218637
0.237503
0.257174
0.277698
0.299125
0.321512
0.344917
0.369403
0.395039
0.421897
0.450052
0.479576
0.51054
0.542996
0.576975
0.612459
0.649362
0.687485
0.726476
0.765757
0.804467
0.841401
0.875008
0.903512
0.925195
0.938882
0.944465
0.94328
0.938238
0.933773
0.935058
0.945749
0.964829
0.985461
1.0014
1.022
1.07883
1.20185
1.35299
1.48361
1.56812
1.5609
1.44836
1.20819
0.824422
0.262674
-0.542226
-1.67416
-3.23968
-5.32976
-8.12364
-11.2648
-14.1015
-19.4033
-23.5255
-22.1471
-18.8811
-15.1079
-10.6081
-6.71846
-4.0349
-1.66793
-0.690711
0.635522
0.005755
0.0171689
0.0293501
0.0415843
0.0543171
0.0673487
0.0808238
0.0947158
0.109088
0.12396
0.139375
0.155367
0.171977
0.189242
0.207205
0.225906
0.245392
0.265707
0.286902
0.309029
0.332144
0.35631
0.381591
0.408059
0.435789
0.464859
0.495348
0.527331
0.56087
0.596001
0.632719
0.670945
0.710493
0.75101
0.791917
0.832326
0.870975
0.906212
0.936109
0.958769
0.972851
0.978164
0.976076
0.96969
0.963864
0.964412
0.975532
0.995994
1.01739
1.03138
1.04787
1.10492
1.23919
1.4037
1.54581
1.63549
1.62514
1.50524
1.25637
0.866451
0.301806
-0.507879
-1.65576
-3.2649
-5.46622
-8.46506
-11.8678
-15.3539
-20.973
-25.731
-23.9695
-20.3411
-16.1853
-11.1954
-6.95074
-4.03795
-1.55396
-0.554274
0.67161
0.00587776
0.0177587
0.0302736
0.0429367
0.0560619
0.0695247
0.0834268
0.0977676
0.112597
0.127944
0.143848
0.160348
0.177484
0.195295
0.213824
0.233115
0.253213
0.274166
0.296025
0.318844
0.342681
0.367599
0.393666
0.420956
0.449548
0.479523
0.510966
0.543957
0.578567
0.614842
0.652786
0.692332
0.733305
0.775359
0.817913
0.860056
0.900469
0.937396
0.968745
0.992422
1.0069
1.01189
1.00878
1.00088
0.993494
0.993179
1.00479
1.02688
1.0492
1.06078
1.07189
1.1284
1.27466
1.45202
1.60356
1.69414
1.67668
1.54795
1.29115
0.897489
0.333818
-0.476307
-1.63642
-3.29027
-5.6142
-8.83958
-12.5842
-16.9702
-22.6754
-28.2107
-25.9174
-21.8829
-17.3196
-11.8068
-7.17796
-4.01836
-1.41357
-0.364897
0.909725
0.00599785
0.0183503
0.0311937
0.0442846
0.0577979
0.0716886
0.0860135
0.100799
0.116081
0.131898
0.148287
0.16529
0.182945
0.201297
0.220387
0.240261
0.260966
0.28255
0.305066
0.328569
0.353119
0.378781
0.405625
0.433728
0.46317
0.494039
0.526425
0.560413
0.596083
0.633491
0.672652
0.713514
0.755912
0.799514
0.843736
0.887649
0.929879
0.96856
1.00143
1.02617
1.04105
1.04566
1.04141
1.03179
1.02263
1.02131
1.03348
1.05752
1.08099
1.08965
1.09386
1.14878
1.30738
1.49592
1.65293
1.73889
1.71145
1.57441
1.31186
0.917719
0.359489
-0.446468
-1.61524
-3.31521
-5.77404
-9.24838
-13.4233
-18.8632
-24.5042
-31.022
-28.0088
-23.5043
-18.5066
-12.4406
-7.39784
-3.97277
-1.24544
-0.175854
1.02451
0.00611518
0.018944
0.0321103
0.0456278
0.0595248
0.0738401
0.0885833
0.103809
0.119539
0.135821
0.15269
0.17019
0.188361
0.207247
0.226892
0.247344
0.268648
0.290857
0.314022
0.338202
0.363457
0.389854
0.417465
0.44637
0.476653
0.508405
0.541721
0.576694
0.613412
0.651942
0.692311
0.734483
0.778307
0.823464
0.869375
0.915096
0.959199
0.999704
1.03416
1.06002
1.0753
1.07948
1.07396
1.06242
1.05123
1.04873
1.06156
1.08793
1.11288
1.11806
1.11346
1.16533
1.33604
1.53229
1.68848
1.76471
1.72716
1.5845
1.31948
0.928769
0.380877
-0.416219
-1.59023
-3.33761
-5.94293
-9.68883
-14.383
-20.9275
-26.5495
-34.2651
-30.2655
-25.2035
-19.7398
-13.094
-7.60756
-3.89798
-1.04625
0.0226599
1.26862
0.00622967
0.0195398
0.0330235
0.0469662
0.0612425
0.0759788
0.0911359
0.106797
0.12297
0.139713
0.157056
0.175048
0.193728
0.213144
0.233338
0.25436
0.276258
0.299083
0.322891
0.347739
0.373691
0.400814
0.429183
0.45888
0.489992
0.522615
0.556849
0.592795
0.630548
0.670188
0.711755
0.755229
0.800478
0.847198
0.89482
0.942388
0.988422
1.03083
1.06695
1.09398
1.10969
1.11338
1.10645
1.09276
1.07925
1.07539
1.08897
1.11815
1.14499
1.14608
1.13029
1.17704
1.35887
1.5564
1.70414
1.76859
1.72403
1.57998
1.31644
0.933372
0.400845
-0.382852
-1.55877
-3.3542
-6.1155
-10.1535
-15.4544
-23.1235
-28.9723
-38.0574
-32.7118
-26.9798
-21.0103
-13.7632
-7.80362
-3.79035
-0.81116
0.301888
1.55709
0.00634119
0.0201376
0.0339331
0.0482997
0.0629508
0.0781045
0.0936708
0.109764
0.126375
0.143573
0.161385
0.179863
0.199047
0.218985
0.239723
0.261309
0.283793
0.307228
0.331671
0.35718
0.383819
0.411659
0.440776
0.471253
0.503184
0.536666
0.571805
0.60871
0.647485
0.688221
0.730975
0.775743
0.822415
0.870705
0.920058
0.969512
1.01754
1.06193
1.09981
1.12808
1.14423
1.14738
1.13889
1.12278
1.10664
1.1012
1.11565
1.14821
1.1775
1.17373
1.14367
1.183
1.37324
1.56168
1.69544
1.75072
1.70456
1.56402
1.30607
0.934771
0.422402
-0.34368
-1.51799
-3.36089
-6.28448
-10.6315
-16.625
-25.4602
-31.9395
-42.4797
-35.3737
-28.8334
-22.307
-14.4431
-7.98198
-3.64651
-0.540187
0.569272
1.75856
0.00644959
0.0207377
0.0348391
0.0496282
0.0646494
0.0802167
0.0961875
0.112707
0.129751
0.1474
0.165675
0.184634
0.204316
0.224771
0.246044
0.268188
0.291252
0.31529
0.340359
0.36652
0.393838
0.422385
0.45224
0.483488
0.516224
0.550552
0.586583
0.624433
0.664216
0.706035
0.749964
0.796017
0.844106
0.893972
0.945077
0.996458
1.04655
1.093
1.13274
1.16233
1.17894
1.18149
1.17129
1.15249
1.13336
1.12606
1.14154
1.17816
1.21057
1.20082
1.15291
1.18276
1.37439
1.54157
1.66176
1.71417
1.67269
1.54058
1.29198
0.936026
0.448116
-0.296411
-1.46502
-3.35298
-6.44103
-11.1091
-17.8766
-27.9329
-35.5258
-47.5598
-38.2752
-30.7649
-23.6178
-15.1269
-8.13792
-3.46323
-0.229167
0.84238
2.08988
0.00655471
0.02134