/*--------------------------------*- C++ -*----------------------------------*\
| =========                 |                                                 |
| \\      /  F ield         | OpenFOAM: The Open Source CFD Toolbox           |
|  \\    /   O peration     | Version:  4.1                                   |
|   \\  /    A nd           | Web:      www.OpenFOAM.org                      |
|    \\/     M anipulation  |                                                 |
\*---------------------------------------------------------------------------*/
FoamFile
{
    version     2.0;
    format      ascii;
    class       volSymmTensorField;
    location    "9";
    object      turbulenceProperties:R;
}
// * * * * * * * * * * * * * * * * * * * * * * * * * * * * * * * * * * * * * //

dimensions      [0 2 -2 0 0 0 0];

internalField   nonuniform List<symmTensor> 
6785
(
(0.753313 1.50037e-19 7.95924e-20 0.753189 0.000165841 0.753498)
(0.753354 -1.13986e-19 -5.71122e-20 0.75332 6.12402e-06 0.753326)
(0.753325 -4.21998e-20 -3.08162e-20 0.753359 3.82567e-05 0.753316)
(0.753334 2.10231e-20 1.08767e-20 0.753344 2.60231e-05 0.753322)
(0.753332 -2.46984e-20 -6.02327e-21 0.753346 2.65711e-05 0.753322)
(0.753333 1.50922e-20 -1.52786e-21 0.753343 2.35513e-05 0.753325)
(0.753332 1.59402e-21 2.28346e-21 0.753341 2.18988e-05 0.753326)
(0.753333 -2.44504e-20 -9.3552e-21 0.753339 2.0227e-05 0.753329)
(0.753333 9.11959e-21 5.11687e-22 0.753336 1.88366e-05 0.753331)
(0.753333 3.41592e-21 5.48927e-21 0.753333 1.76426e-05 0.753334)
(0.753332 -1.59925e-20 -3.68258e-21 0.753331 1.64362e-05 0.753336)
(0.753334 5.54751e-21 -1.35665e-21 0.753327 1.17686e-05 0.753339)
(0.753334 9.34761e-22 5.15304e-21 0.753328 6.56418e-06 0.753338)
(0.753318 -7.75169e-21 -1.6209e-23 0.753361 1.39532e-05 0.753321)
(0.753347 3.57557e-21 -1.77969e-21 0.753391 -7.43333e-05 0.753261)
(0.75333 1.86361e-19 1.1356e-19 0.753009 0.000218773 0.753661)
(0.753351 -1.27568e-19 -7.30083e-20 0.753341 -1.51224e-05 0.753309)
(0.753325 -5.00686e-20 -2.98668e-20 0.753378 1.19824e-05 0.753297)
(0.75334 1.51053e-20 2.76836e-20 0.753353 -5.82782e-06 0.753306)
(0.753333 -2.24753e-20 -1.2685e-20 0.753362 1.57142e-06 0.753305)
(0.753336 8.08894e-21 3.70696e-21 0.753356 -2.18631e-06 0.753308)
(0.753334 -9.27568e-21 6.97078e-21 0.753357 -1.39268e-06 0.753309)
(0.753335 -1.27812e-20 -6.6493e-21 0.753355 -2.51657e-06 0.753311)
(0.753334 2.67026e-21 8.03579e-22 0.753355 -3.91571e-06 0.753311)
(0.753334 -6.78512e-21 8.10455e-21 0.753355 -7.34418e-06 0.753311)
(0.753334 -6.19008e-21 -3.4836e-21 0.753355 -1.36879e-05 0.753311)
(0.753334 3.82715e-21 -2.42363e-22 0.753351 -2.38035e-05 0.753315)
(0.753335 -1.50149e-21 3.22418e-21 0.753347 -3.40824e-05 0.753318)
(0.753333 -4.38365e-21 -1.43584e-21 0.753362 -3.96375e-05 0.753304)
(0.753331 6.29429e-21 5.83517e-21 0.753384 -4.05418e-05 0.753285)
(0.753329 2.05523e-19 7.21315e-20 0.752965 0.000226105 0.753706)
(0.753339 -1.3168e-19 -7.423e-20 0.753349 -1.46678e-05 0.753312)
(0.753325 -4.05106e-20 -2.38911e-20 0.75337 -3.91742e-07 0.753304)
(0.753337 3.43617e-20 -2.45755e-20 0.753351 -1.43952e-05 0.753311)
(0.75333 -1.95703e-20 -9.00825e-21 0.753361 -5.27388e-06 0.753309)
(0.753334 2.74979e-21 1.325e-21 0.753353 -9.79269e-06 0.753313)
(0.753332 2.98163e-21 -2.97083e-20 0.753354 -6.93989e-06 0.753314)
(0.753333 -4.06455e-21 -2.56281e-21 0.753352 -8.29152e-06 0.753315)
(0.753333 2.45601e-21 1.25393e-21 0.753358 -1.11861e-05 0.753309)
(0.753333 7.36839e-21 -1.7099e-20 0.753375 -2.2281e-05 0.753292)
(0.753333 1.52324e-20 1.16706e-20 0.753405 -4.24765e-05 0.753262)
(0.753333 1.38405e-20 6.30457e-21 0.753418 -5.53096e-05 0.753249)
(0.753331 -2.74286e-20 -1.0687e-20 0.753379 -3.42216e-05 0.75329)
(0.753333 -3.42955e-20 -2.5861e-20 0.753324 -9.17065e-06 0.753344)
(0.753333 2.79881e-20 1.7631e-20 0.753273 2.14939e-05 0.753394)
(0.753332 1.79316e-19 1.2491e-19 0.752948 0.00022375 0.75372)
(0.753337 -1.18861e-19 -1.04574e-19 0.753348 -1.29451e-05 0.753315)
(0.753329 -4.94721e-20 -1.57824e-20 0.753366 -8.44685e-06 0.753305)
(0.753338 1.63206e-20 9.97405e-21 0.75335 -1.78267e-05 0.753313)
(0.75333 -2.41526e-21 -3.41543e-20 0.753359 -7.94707e-06 0.753311)
(0.753336 -1.72615e-21 9.95946e-21 0.75335 -1.42007e-05 0.753314)
(0.753332 -5.51898e-21 -3.53184e-21 0.753353 -9.40843e-06 0.753315)
(0.753334 5.87929e-21 -2.13231e-20 0.75335 -1.15096e-05 0.753316)
(0.753333 -3.3136e-21 8.96688e-21 0.753353 -1.21331e-05 0.753313)
(0.753334 5.94259e-21 3.31068e-21 0.753365 -1.83976e-05 0.753302)
(0.753333 1.32666e-20 -8.82201e-21 0.753389 -2.834e-05 0.753278)
(0.753334 5.8634e-21 8.47073e-21 0.753404 -3.17838e-05 0.753262)
(0.753331 3.55301e-20 1.93932e-20 0.753412 -2.40642e-05 0.753257)
(0.753341 -3.05635e-20 -1.55913e-20 0.753384 -3.38772e-05 0.753275)
(0.753333 -2.89663e-20 -2.11062e-20 0.753275 3.3736e-05 0.753392)
(0.753332 2.04799e-19 9.7624e-20 0.752949 0.000217635 0.753719)
(0.753336 -1.05608e-19 -1.03079e-19 0.75334 -8.50361e-06 0.753324)
(0.75333 -4.71495e-20 -4.18944e-20 0.75337 -1.52463e-05 0.7533)
(0.753337 2.50332e-20 2.27884e-21 0.753352 -2.01673e-05 0.753311)
(0.75333 -8.66039e-22 -3.35329e-20 0.753359 -1.08848e-05 0.753311)
(0.753336 4.27242e-21 -1.66077e-20 0.753351 -1.71785e-05 0.753313)
(0.753332 3.96603e-21 -8.49916e-21 0.753354 -1.26091e-05 0.753314)
(0.753334 4.2838e-21 -2.22494e-20 0.753351 -1.48256e-05 0.753315)
(0.753333 3.21813e-22 -1.12725e-20 0.753352 -1.42622e-05 0.753314)
(0.753334 8.16671e-21 -5.79466e-21 0.753356 -1.66652e-05 0.753311)
(0.753333 8.65313e-21 -1.19416e-20 0.753367 -1.95597e-05 0.7533)
(0.753334 -1.63788e-21 -6.07088e-21 0.753378 -2.21119e-05 0.753288)
(0.753332 -3.72383e-21 -3.8865e-21 0.753393 -2.20648e-05 0.753275)
(0.753337 1.28311e-20 1.45893e-20 0.753401 -3.4401e-05 0.753262)
(0.75333 -1.12276e-20 -1.07809e-20 0.753328 1.73181e-05 0.753342)
(0.753333 1.95658e-19 1.25949e-19 0.752963 0.000207836 0.753704)
(0.753335 -1.26874e-19 -5.48837e-20 0.75333 -2.24295e-06 0.753335)
(0.753331 -8.5982e-20 -1.82965e-20 0.753374 -1.9849e-05 0.753296)
(0.753336 1.17182e-20 1.5912e-20 0.753355 -2.09731e-05 0.753309)
(0.753331 -1.13849e-20 2.7571e-21 0.753358 -1.23313e-05 0.753311)
(0.753335 -1.65951e-20 1.22332e-20 0.753353 -1.74003e-05 0.753312)
(0.753332 1.03053e-21 1.85056e-22 0.753355 -1.36177e-05 0.753312)
(0.753334 -5.57839e-21 6.25253e-21 0.753353 -1.50338e-05 0.753313)
(0.753333 -1.60726e-20 4.68349e-21 0.753353 -1.37304e-05 0.753314)
(0.753333 -2.22397e-21 -6.7916e-21 0.753353 -1.40757e-05 0.753313)
(0.753333 2.55334e-21 7.47212e-21 0.753357 -1.43738e-05 0.75331)
(0.753334 -7.85174e-21 4.53335e-21 0.753363 -1.61569e-05 0.753303)
(0.753333 -1.12937e-20 -7.33351e-21 0.753377 -1.85047e-05 0.753291)
(0.753336 5.07948e-20 3.04894e-20 0.753392 -3.12957e-05 0.753271)
(0.75333 -5.31531e-20 -3.84733e-20 0.753362 2.87692e-07 0.753308)
(0.753333 2.12603e-19 1.44626e-19 0.752979 0.000199932 0.753688)
(0.753334 -1.1694e-19 -5.6284e-20 0.753322 1.79261e-06 0.753344)
(0.753331 -9.69342e-20 -2.58043e-20 0.753374 -2.21044e-05 0.753295)
(0.753336 3.51037e-21 2.21976e-21 0.753357 -2.14036e-05 0.753307)
(0.753331 4.09774e-21 1.19017e-20 0.753357 -1.32346e-05 0.753311)
(0.753335 -1.95736e-20 1.10385e-20 0.753352 -1.6718e-05 0.753313)
(0.753333 -5.89845e-21 -4.15982e-21 0.753354 -1.32148e-05 0.753314)
(0.753334 9.64651e-21 1.5314e-20 0.753351 -1.36931e-05 0.753315)
(0.753333 -1.10115e-20 1.34963e-20 0.753351 -1.23918e-05 0.753316)
(0.753333 -1.68765e-20 -1.12022e-20 0.753351 -1.19102e-05 0.753316)
(0.753333 7.44902e-21 1.44779e-20 0.753352 -1.08451e-05 0.753315)
(0.753334 1.26963e-21 1.24075e-20 0.753354 -1.02003e-05 0.753312)
(0.753333 -3.15645e-20 -1.95946e-20 0.753362 -1.01788e-05 0.753305)
(0.753335 3.76595e-20 1.71998e-20 0.753383 -2.17002e-05 0.753282)
(0.753332 -4.42924e-20 -1.90255e-20 0.753401 -2.33014e-05 0.753267)
(0.753333 2.23243e-19 1.08633e-19 0.752994 0.000195014 0.753672)
(0.753334 -1.01622e-19 -5.63941e-20 0.753323 1.2858e-06 0.753343)
(0.753332 -7.62697e-20 -5.52998e-20 0.753372 -2.27141e-05 0.753296)
(0.753335 6.37828e-21 3.05157e-21 0.75336 -2.08971e-05 0.753305)
(0.753332 5.21661e-21 3.5175e-21 0.753358 -1.37196e-05 0.75331)
(0.753335 -3.14301e-21 -1.05957e-20 0.753352 -1.72171e-05 0.753313)
(0.753332 -2.62447e-21 -1.84587e-21 0.753352 -1.47638e-05 0.753315)
(0.753334 4.5065e-21 3.11585e-21 0.753348 -1.69296e-05 0.753318)
(0.753333 1.71352e-22 -3.50159e-21 0.753346 -1.53359e-05 0.75332)
(0.753333 -9.94149e-21 -6.2144e-21 0.753343 -1.28005e-05 0.753323)
(0.753334 -2.76572e-21 -1.61227e-21 0.753341 -7.40651e-06 0.753326)
(0.753334 8.9081e-21 2.92798e-21 0.75334 -1.49667e-06 0.753326)
(0.753333 -1.89568e-20 -8.52738e-21 0.753346 1.12315e-06 0.75332)
(0.753334 1.1319e-21 7.97875e-22 0.753371 -9.78087e-06 0.753295)
(0.753333 -7.28657e-21 4.30157e-21 0.753452 -5.22555e-05 0.753215)
(0.753334 1.95239e-19 1.13746e-19 0.753001 0.000196499 0.753665)
(0.753334 -1.15444e-19 -6.15079e-20 0.753335 -1.90984e-06 0.753331)
(0.753332 -4.91432e-20 -5.74459e-20 0.753369 -1.83064e-05 0.753298)
(0.753335 1.40505e-20 8.65134e-21 0.753362 -1.67527e-05 0.753303)
(0.753332 -1.13497e-20 -4.6067e-21 0.753366 -1.37809e-05 0.753302)
(0.753334 1.17073e-20 -1.46864e-20 0.753368 -2.08696e-05 0.753298)
(0.753333 4.87989e-21 3.5889e-21 0.75337 -2.22955e-05 0.753298)
(0.753334 -1.13798e-20 -6.27756e-21 0.75336 -2.27454e-05 0.753306)
(0.753333 1.10399e-20 -5.66222e-21 0.753345 -1.58591e-05 0.753321)
(0.753334 5.87182e-21 7.34704e-22 0.753326 -7.20177e-06 0.753341)
(0.753333 -2.52633e-20 -1.78042e-20 0.753311 1.86746e-06 0.753356)
(0.753333 4.13731e-21 -1.42528e-20 0.753308 7.99619e-06 0.75336)
(0.753334 5.8946e-22 1.87968e-21 0.753318 6.69554e-06 0.753348)
(0.753333 -2.04188e-20 -1.18583e-20 0.753358 -6.76963e-06 0.75331)
(0.753334 2.90312e-20 8.74633e-21 0.753505 -9.11321e-05 0.753161)
(0.753333 1.84543e-19 7.39697e-20 0.752977 0.000210808 0.75369)
(0.753335 -1.18121e-19 -6.72718e-20 0.753349 -2.51488e-06 0.753317)
(0.753332 -4.43393e-20 -3.60258e-20 0.753369 -9.96429e-06 0.753299)
(0.753334 2.71685e-20 -7.05078e-21 0.753359 -8.84243e-06 0.753306)
(0.753332 -8.6298e-21 -3.37856e-21 0.75337 -1.02244e-05 0.753297)
(0.753334 5.97466e-21 -7.08168e-21 0.753381 -1.93866e-05 0.753285)
(0.753333 1.92115e-20 -8.31489e-21 0.753388 -2.21481e-05 0.753279)
(0.753333 1.15828e-20 6.20649e-21 0.753383 -2.22757e-05 0.753284)
(0.753333 2.08658e-20 -1.35958e-21 0.753374 -1.90136e-05 0.753293)
(0.753333 1.50729e-20 -3.45549e-21 0.753356 -1.46729e-05 0.75331)
(0.753333 -1.85719e-20 -1.71928e-20 0.753326 -4.53834e-06 0.753341)
(0.753333 -3.16987e-20 -3.41927e-20 0.753289 7.35288e-06 0.753378)
(0.753334 -1.69543e-20 -3.2905e-20 0.753272 9.95739e-06 0.753394)
(0.75333 -1.67075e-20 -1.64592e-20 0.753317 -6.93907e-06 0.753352)
(0.753335 2.60991e-20 7.2609e-21 0.753486 -0.000103412 0.753179)
(0.753332 1.82159e-19 9.49042e-20 0.752942 0.000218134 0.753726)
(0.753335 -1.12325e-19 -4.79855e-20 0.753324 9.35178e-06 0.753341)
(0.753332 -2.8621e-20 -9.12902e-20 0.753379 -1.30066e-05 0.753289)
(0.753334 3.92321e-21 1.43376e-21 0.753359 -8.83064e-06 0.753307)
(0.753333 -8.78769e-21 6.23821e-21 0.753363 -8.03279e-06 0.753304)
(0.753334 3.06206e-20 -4.76049e-20 0.753374 -1.6066e-05 0.753292)
(0.753333 1.39874e-20 5.14457e-21 0.753386 -1.83857e-05 0.753281)
(0.753334 2.05868e-20 2.38576e-20 0.753387 -1.91389e-05 0.753279)
(0.753333 3.63753e-20 -1.12114e-20 0.753387 -1.76459e-05 0.753279)
(0.753333 2.53439e-20 1.1416e-20 0.753387 -1.89338e-05 0.75328)
(0.753333 4.282e-20 2.65916e-20 0.753383 -2.04556e-05 0.753284)
(0.753333 9.73671e-21 -4.44368e-21 0.753364 -1.86546e-05 0.753303)
(0.753333 -3.77767e-20 -2.71339e-20 0.753323 -8.69661e-06 0.753344)
(0.753331 -7.4923e-20 -5.3118e-20 0.753295 -2.91529e-06 0.753375)
(0.753335 -3.83363e-20 -2.89324e-20 0.753345 -3.69604e-05 0.75332)
(0.753332 1.81287e-19 1.08834e-19 0.752968 0.000189913 0.7537)
(0.753335 -6.09103e-20 -1.79655e-20 0.753258 3.5847e-05 0.753407)
(0.753333 -5.96982e-20 -8.59312e-20 0.753367 -1.19773e-05 0.7533)
(0.753334 -3.47382e-20 -2.27993e-20 0.753369 -1.79541e-05 0.753297)
(0.753333 -1.44463e-20 4.08382e-21 0.753361 -1.33157e-05 0.753306)
(0.753334 2.74018e-20 -1.07775e-20 0.75336 -1.52073e-05 0.753306)
(0.753333 -5.63624e-21 -3.52282e-21 0.753367 -1.56069e-05 0.753299)
(0.753334 3.56389e-22 2.23833e-20 0.753372 -1.65948e-05 0.753294)
(0.753333 2.56452e-20 6.80657e-21 0.753377 -1.59543e-05 0.75329)
(0.753333 1.06011e-20 9.26971e-21 0.753381 -1.66182e-05 0.753285)
(0.753333 3.52698e-20 2.58514e-20 0.753389 -1.83413e-05 0.753278)
(0.753333 2.015e-20 1.34374e-20 0.753399 -2.22972e-05 0.753268)
(0.753331 -2.15231e-20 -3.73816e-21 0.753409 -2.69727e-05 0.75326)
(0.753341 -4.22766e-20 -1.83401e-20 0.753359 -2.74474e-05 0.7533)
(0.753334 -4.81374e-20 -2.91634e-20 0.753269 2.80515e-05 0.753397)
(0.753333 1.8291e-19 9.26858e-20 0.753036 0.000148386 0.753631)
(0.753333 1.96172e-21 -2.17267e-20 0.753203 6.36072e-05 0.753463)
(0.753333 -8.10231e-20 -2.92417e-20 0.753338 -4.50539e-06 0.753329)
(0.753334 -4.10078e-20 -6.73169e-20 0.753372 -2.58577e-05 0.753295)
(0.753333 -2.22189e-20 -1.31744e-20 0.753366 -2.3407e-05 0.753301)
(0.753333 2.73693e-21 1.96436e-21 0.753358 -2.05025e-05 0.753308)
(0.753333 8.68001e-21 -8.19418e-21 0.753358 -1.8031e-05 0.753309)
(0.753333 -1.86284e-20 2.51543e-20 0.75336 -1.73357e-05 0.753307)
(0.753333 1.00167e-20 -3.16366e-21 0.753363 -1.64728e-05 0.753304)
(0.753333 3.89063e-21 4.61575e-21 0.753366 -1.59337e-05 0.753301)
(0.753333 2.55471e-21 1.11637e-20 0.75337 -1.50596e-05 0.753297)
(0.753334 5.89968e-21 4.02763e-21 0.753375 -1.52457e-05 0.753291)
(0.753333 5.31292e-22 5.43181e-21 0.753384 -1.37371e-05 0.753284)
(0.753337 -1.50865e-20 -3.57816e-21 0.753392 -2.29605e-05 0.753271)
(0.75333 -2.50316e-20 -1.38478e-20 0.753358 2.7261e-06 0.753312)
(0.753336 1.60361e-19 9.93894e-20 0.753107 0.000114439 0.753557)
(0.753332 1.71652e-20 -3.12845e-21 0.753177 8.62598e-05 0.753491)
(0.753334 -6.45924e-20 -7.55861e-20 0.753333 4.02563e-07 0.753334)
(0.753334 -6.13725e-20 -5.54712e-20 0.753381 -2.45e-05 0.753285)
(0.753333 -7.27543e-21 -1.91151e-20 0.753371 -1.88844e-05 0.753296)
(0.753334 9.19144e-21 5.53908e-21 0.753356 -1.32146e-05 0.753311)
(0.753333 4.47188e-22 1.19477e-20 0.75335 -1.15279e-05 0.753317)
(0.753333 -1.50482e-21 -1.16651e-20 0.75335 -1.24947e-05 0.753317)
(0.753333 -3.9998e-21 -3.72048e-21 0.753352 -1.33928e-05 0.753315)
(0.753333 -4.34776e-21 6.76829e-21 0.753354 -1.38958e-05 0.753312)
(0.753333 2.52912e-21 -8.90538e-21 0.753357 -1.3445e-05 0.753309)
(0.753333 1.79151e-21 2.91989e-21 0.753361 -1.36077e-05 0.753305)
(0.753333 -2.79345e-21 4.91891e-21 0.753369 -1.42553e-05 0.753297)
(0.753335 -1.02042e-20 -9.32148e-21 0.753386 -2.4013e-05 0.753279)
(0.753331 -2.21814e-21 -1.89474e-21 0.753396 -1.99234e-05 0.753273)
(0.753331 1.3867e-19 8.62584e-20 0.753111 0.000124076 0.753557)
(0.753333 6.6672e-20 2.80783e-20 0.753144 7.36751e-05 0.753523)
(0.753333 -5.44862e-20 -5.86422e-21 0.75328 -3.09977e-06 0.753388)
(0.753333 -7.26921e-20 -4.35239e-20 0.75335 -3.36373e-05 0.753317)
(0.753333 -4.18979e-20 -4.2507e-20 0.753378 -3.37752e-05 0.753289)
(0.753333 -2.72354e-20 -6.92523e-21 0.753382 -2.65426e-05 0.753285)
(0.753333 2.91795e-21 -3.24121e-22 0.753377 -1.86422e-05 0.753289)
(0.753333 2.47691e-20 9.22334e-21 0.753371 -1.29779e-05 0.753295)
(0.753334 1.17753e-20 2.74037e-20 0.753366 -8.33048e-06 0.753301)
(0.753333 -9.4492e-21 -2.1574e-21 0.753358 -4.77796e-06 0.753308)
(0.753333 -1.44884e-20 -1.51218e-20 0.753354 -3.1744e-06 0.753313)
(0.753333 -9.03122e-21 9.69364e-22 0.753353 -2.04628e-06 0.753313)
(0.753334 2.34325e-22 4.41871e-21 0.753356 -2.33017e-06 0.753311)
(0.753332 1.87541e-21 2.63383e-21 0.753378 -8.15527e-06 0.75329)
(0.753334 -1.76452e-20 -5.86547e-22 0.753438 -4.08114e-05 0.753228)
(0.753393 -8.20324e-21 -5.03679e-22 0.753251 6.64125e-05 0.753356)
(0.75332 -7.01351e-21 -8.81202e-22 0.753354 7.50406e-05 0.753326)
(0.753335 5.14834e-22 -2.31197e-21 0.753329 1.32702e-05 0.753336)
(0.753333 8.46947e-22 -2.24791e-21 0.75333 -4.64533e-06 0.753336)
(0.753335 -2.59927e-21 -2.41839e-21 0.753328 2.76565e-06 0.753337)
(0.753333 2.57436e-22 -6.81752e-22 0.753332 -6.27018e-07 0.753335)
(0.753333 1.94899e-22 -2.29967e-21 0.753331 -1.64957e-06 0.753336)
(0.753334 6.46606e-21 -2.01053e-21 0.753329 1.09479e-06 0.753337)
(0.753334 -2.02607e-20 -3.91418e-21 0.753329 2.57426e-06 0.753337)
(0.753333 -3.11386e-20 -1.70429e-21 0.753332 -4.73269e-08 0.753335)
(0.753333 4.26493e-21 -1.09901e-20 0.753331 -2.27649e-06 0.753336)
(0.753334 1.41425e-20 -9.88596e-21 0.753328 1.36587e-06 0.753338)
(0.753333 1.31714e-20 6.52037e-25 0.753332 -3.34773e-07 0.753335)
(0.753333 1.9321e-20 -7.1349e-21 0.753331 -2.43872e-06 0.753336)
(0.753334 1.037e-20 -5.26524e-21 0.753329 -6.54695e-08 0.753337)
(0.753333 3.84689e-21 -4.67427e-21 0.753329 9.09749e-07 0.753337)
(0.753333 1.96145e-21 -3.06775e-22 0.753332 -5.86718e-07 0.753334)
(0.753333 7.65685e-21 -4.5591e-21 0.753331 -3.75687e-06 0.753336)
(0.753334 2.92991e-22 -3.86344e-21 0.753328 -5.12972e-07 0.753338)
(0.753333 1.61511e-21 -9.6517e-22 0.753333 -7.79955e-07 0.753334)
(0.753333 8.53494e-21 -3.77421e-21 0.753331 -3.56807e-06 0.753336)
(0.753334 1.92087e-21 -2.94432e-21 0.753329 -1.67097e-06 0.753337)
(0.753333 -4.62044e-21 -3.46515e-21 0.75333 -9.47281e-07 0.753336)
(0.753333 1.24008e-21 -1.18619e-21 0.753333 -7.50287e-07 0.753333)
(0.753333 4.71637e-21 -2.90228e-21 0.753332 -3.75009e-06 0.753336)
(0.753334 1.09808e-20 -2.1381e-21 0.75333 -2.26946e-06 0.753336)
(0.753333 8.37243e-21 -8.82261e-22 0.753331 -1.66295e-06 0.753336)
(0.753333 6.06241e-22 -1.34235e-21 0.753334 -6.1367e-07 0.753333)
(0.753332 3.13324e-21 -1.17436e-21 0.753333 -3.5656e-06 0.753335)
(0.753335 -2.84246e-21 -1.29426e-21 0.753329 -2.00555e-06 0.753337)
(0.753333 1.95965e-21 -1.46549e-21 0.753335 -5.08075e-07 0.753332)
(0.753333 6.02793e-21 -8.44211e-22 0.753333 -3.19989e-06 0.753335)
(0.753334 5.80309e-21 -2.82891e-22 0.75333 -2.48998e-06 0.753336)
(0.753333 4.83043e-21 4.20071e-22 0.753332 -2.30462e-06 0.753335)
(0.753333 -3.10937e-22 -3.72201e-22 0.753335 -5.94267e-07 0.753332)
(0.753332 -2.1818e-21 1.05992e-22 0.753334 -3.66687e-06 0.753334)
(0.753335 -3.98584e-21 -2.20852e-22 0.753329 -3.1604e-06 0.753336)
(0.753333 -2.2231e-21 -9.51214e-22 0.753335 -1.04798e-06 0.753332)
(0.753333 -1.51955e-21 -7.56549e-22 0.753334 -3.8322e-06 0.753334)
(0.753334 -8.13141e-21 -1.01287e-21 0.753332 -3.79018e-06 0.753334)
(0.753334 -1.44223e-20 -2.37628e-21 0.753332 -3.35427e-06 0.753334)
(0.753333 -4.10825e-21 -3.44455e-21 0.753333 -9.57344e-07 0.753334)
(0.753333 -4.10274e-22 -3.20623e-21 0.753334 -3.90978e-06 0.753333)
(0.753334 -4.57109e-21 -3.39587e-21 0.753334 -3.80526e-06 0.753333)
(0.753334 -1.07943e-20 -4.46183e-21 0.753333 -2.54105e-06 0.753333)
(0.753333 -2.35912e-21 -1.98085e-21 0.753332 5.33049e-09 0.753335)
(0.753333 9.36318e-21 -4.74373e-21 0.753335 -3.96291e-06 0.753332)
(0.753335 -5.46603e-22 -4.18919e-21 0.753332 -4.11894e-06 0.753333)
(0.753333 2.51378e-22 2.87979e-22 0.753333 8.25127e-08 0.753334)
(0.753333 7.33636e-21 -4.24087e-21 0.753335 -2.86539e-06 0.753332)
(0.753333 8.32065e-21 -3.54895e-21 0.753335 -3.81574e-06 0.753332)
(0.753333 3.95268e-21 -2.96592e-21 0.753335 -3.82185e-06 0.753331)
(0.753333 1.87404e-21 2.62023e-21 0.753335 1.55169e-06 0.753332)
(0.753333 9.52408e-21 -2.68867e-21 0.753336 -4.58414e-07 0.753331)
(0.753333 8.39704e-21 -1.68351e-21 0.753335 -3.31718e-06 0.753332)
(0.753333 1.57705e-21 -1.33058e-21 0.753336 -1.20667e-06 0.753331)
(0.753334 -4.63675e-21 5.27385e-21 0.753337 6.73361e-06 0.753329)
(0.753332 9.39398e-21 -2.60503e-21 0.753336 -1.36261e-06 0.753332)
(0.753333 -7.75917e-22 -2.12508e-21 0.753333 7.90969e-06 0.753335)
(0.753334 -1.79504e-20 7.48928e-21 0.753341 1.78713e-05 0.753325)
(0.753328 -1.19294e-20 -6.49825e-21 0.753334 7.19467e-06 0.753338)
(0.753335 -1.20006e-20 -7.82062e-21 0.75332 2.61887e-06 0.753345)
(0.753334 2.25988e-20 -6.17314e-21 0.753321 -7.22265e-09 0.753345)
(0.753333 6.88378e-20 7.33879e-21 0.753347 -1.71065e-05 0.753319)
(0.753332 4.28858e-20 1.05142e-20 0.753336 -2.15778e-05 0.753332)
(0.753336 1.72483e-20 1.39271e-20 0.753332 -1.35656e-05 0.753332)
(0.753333 1.51581e-20 8.08841e-21 0.753353 -1.70079e-05 0.753314)
(0.753332 -1.81867e-20 1.75895e-20 0.753352 -3.72212e-06 0.753316)
(0.753336 -1.36528e-20 1.65763e-20 0.753344 3.65025e-06 0.75332)
(0.753333 1.3758e-20 1.70755e-20 0.753355 -2.11215e-05 0.753313)
(0.753333 -2.97892e-21 7.20467e-21 0.753358 -8.14896e-06 0.753309)
(0.753333 -3.07436e-20 1.65591e-20 0.753362 1.16103e-05 0.753306)
(0.753336 -1.75398e-20 1.36762e-20 0.753354 3.42483e-06 0.753309)
(0.753334 4.39596e-21 1.38117e-20 0.753367 -2.53769e-05 0.753299)
(0.753331 -3.09826e-21 2.66812e-21 0.753366 -6.71702e-06 0.753303)
(0.753344 -1.82506e-20 1.23243e-20 0.753352 1.65729e-05 0.753305)
(0.753332 1.38131e-20 1.22498e-20 0.753381 -3.40037e-05 0.753287)
(0.753331 -1.44674e-21 5.43162e-21 0.753369 -4.14768e-06 0.7533)
(0.753345 -1.09157e-20 1.21197e-20 0.753361 2.60824e-05 0.753294)
(0.75333 2.10506e-20 1.17641e-20 0.753393 -6.35295e-05 0.753276)
(0.753329 2.00078e-20 7.77924e-21 0.753359 -4.42261e-05 0.753312)
(0.753341 3.12869e-20 9.3531e-21 0.753333 3.07217e-06 0.753325)
(0.753327 5.0648e-20 1.17923e-20 0.75337 -3.85481e-05 0.753303)
(0.753333 1.39228e-21 1.70738e-20 0.75335 -9.45766e-06 0.753316)
(0.753337 2.11905e-20 7.92123e-21 0.753343 -6.75759e-06 0.75332)
(0.75333 4.43484e-20 6.86542e-21 0.753351 -2.16075e-05 0.753319)
(0.753335 2.07789e-20 8.81888e-21 0.753341 1.02349e-05 0.753323)
(0.753333 1.20196e-21 9.56706e-21 0.753346 1.53158e-05 0.753321)
(0.753333 -2.0621e-20 9.26897e-21 0.753345 1.52386e-05 0.753322)
(0.753333 -4.37765e-20 7.76012e-21 0.753345 7.17016e-06 0.753322)
(0.753335 -6.29437e-20 5.44249e-21 0.753341 -7.38007e-06 0.753324)
(0.75333 -4.19006e-20 5.66219e-21 0.753353 -2.35364e-05 0.753317)
(0.753333 -2.92766e-20 7.63702e-21 0.753348 -6.47505e-06 0.753318)
(0.753335 -1.06452e-19 1.37674e-20 0.753341 2.45048e-06 0.753324)
(0.753333 -1.54849e-19 1.36116e-20 0.753343 -1.52948e-05 0.753325)
(0.753333 -1.36375e-19 8.12316e-21 0.753342 -1.82825e-05 0.753324)
(0.753332 -1.2773e-19 3.39762e-21 0.753344 -1.6053e-05 0.753324)
(0.753334 -1.04341e-19 -2.47346e-22 0.753342 -8.14261e-06 0.753324)
(0.753333 -7.24157e-20 -2.46317e-21 0.753345 -1.22431e-05 0.753322)
(0.753335 -4.38252e-20 -3.17612e-21 0.753342 -1.74522e-05 0.753323)
(0.753331 -1.38732e-20 -2.25304e-21 0.753354 -2.86878e-05 0.753315)
(0.753333 9.92385e-21 -1.16114e-20 0.753346 -9.25883e-06 0.753321)
(0.753335 2.04707e-20 -1.36821e-21 0.753339 -7.48752e-06 0.753326)
(0.753332 4.71231e-20 -2.38076e-21 0.753343 -3.69539e-05 0.753326)
(0.753334 5.64825e-20 -1.32478e-21 0.753341 -4.40434e-05 0.753326)
(0.753333 5.65245e-20 4.12466e-22 0.753344 -5.94317e-05 0.753323)
(0.753333 6.21339e-20 3.00086e-21 0.753348 -6.67787e-05 0.753319)
(0.753333 9.36998e-20 7.42085e-21 0.75335 -6.05668e-05 0.753317)
(0.753334 1.26862e-19 1.18317e-20 0.753351 -5.29661e-05 0.753315)
(0.753333 1.47789e-19 1.72634e-20 0.753357 -5.16353e-05 0.75331)
(0.753334 1.28852e-19 1.98184e-20 0.753357 -4.57642e-05 0.753309)
(0.753333 3.02457e-20 2.33725e-20 0.753337 -1.19104e-05 0.75333)
(0.753335 1.22852e-19 5.75841e-21 0.753343 -2.15669e-05 0.753322)
(0.753332 1.93357e-19 5.38823e-21 0.753347 -5.44373e-05 0.753321)
(0.753333 1.18903e-19 1.32077e-20 0.753348 -4.58126e-05 0.753318)
(0.753333 5.65957e-20 1.66798e-20 0.753351 -4.84179e-05 0.753316)
(0.753334 -2.80852e-20 1.65963e-20 0.753354 -5.19053e-05 0.753313)
(0.753334 -1.26617e-19 9.45823e-21 0.753353 -4.3782e-05 0.753313)
(0.753331 -2.11034e-19 -6.9128e-22 0.753356 -2.15016e-05 0.753312)
(0.753337 -1.68814e-19 -2.97338e-21 0.753345 -9.02067e-06 0.753319)
(0.753333 -7.74922e-20 -1.42602e-22 0.753322 4.68355e-06 0.753345)
(0.753336 -1.89744e-19 1.54607e-20 0.753344 -1.47431e-06 0.753321)
(0.753332 -2.44783e-19 1.31407e-20 0.753347 -2.80996e-05 0.753321)
(0.753334 -1.50871e-19 1.75885e-21 0.753341 -1.98348e-05 0.753325)
(0.753334 -1.08646e-19 -2.97075e-21 0.753343 -1.69988e-05 0.753324)
(0.753332 -6.09043e-20 -5.60985e-21 0.753347 -2.28681e-05 0.753321)
(0.753337 -3.41621e-20 -6.49335e-21 0.753339 -2.4875e-05 0.753324)
(0.753328 -2.64211e-20 -7.16493e-21 0.75336 -4.1602e-05 0.753312)
(0.753339 -2.78624e-20 -7.30802e-21 0.753326 -7.24296e-06 0.753335)
(0.753333 2.68842e-22 -1.55689e-20 0.753302 1.34727e-05 0.753365)
(0.75333 -2.49868e-20 -4.34759e-21 0.753342 1.29631e-05 0.753327)
(0.753336 -5.1162e-20 -3.46318e-21 0.753332 3.13703e-05 0.753332)
(0.753333 -4.94109e-20 -5.20175e-21 0.753335 1.42557e-05 0.753332)
(0.753332 -3.2364e-20 -4.70775e-21 0.753329 2.58445e-05 0.753338)
(0.753335 5.63121e-21 -4.31997e-21 0.753318 6.42489e-05 0.753347)
(0.753335 2.50914e-20 -3.53606e-21 0.753312 8.27709e-05 0.753353)
(0.753327 3.3221e-20 -2.33076e-21 0.75332 9.67859e-05 0.753352)
(0.753344 2.41462e-20 -2.08725e-21 0.753279 0.00010538 0.753377)
(0.753333 6.12888e-21 2.66297e-21 0.753292 1.97073e-05 0.753376)
(0.753329 2.37869e-20 1.82425e-21 0.753319 4.81496e-05 0.753352)
(0.753339 3.41527e-20 1.63408e-21 0.753305 0.000120635 0.753356)
(0.753331 8.67946e-21 3.71755e-21 0.753309 8.24436e-05 0.75336)
(0.753335 -7.74825e-21 4.17629e-21 0.753296 7.13629e-05 0.753369)
(0.753333 -6.44447e-20 3.33069e-21 0.753295 3.43722e-05 0.753372)
(0.753335 -2.51661e-20 1.07046e-20 0.753285 2.93429e-05 0.753381)
(0.753334 2.71029e-20 1.18495e-20 0.753282 3.25252e-05 0.753383)
(0.753329 9.07845e-21 1.16679e-20 0.753289 2.98935e-05 0.753381)
(0.753345 4.10043e-20 1.49737e-20 0.753245 7.54939e-05 0.75341)
(0.753332 -1.49345e-21 1.47723e-20 0.753294 4.97749e-06 0.753374)
(0.753329 -3.70166e-21 1.33018e-20 0.753299 2.23386e-06 0.753371)
(0.753342 4.20718e-20 1.15294e-20 0.753284 7.47585e-05 0.753373)
(0.753331 4.76134e-20 1.28165e-20 0.753301 6.01447e-05 0.753368)
(0.753338 6.7544e-20 1.43279e-20 0.753282 0.000107406 0.75338)
(0.753327 1.13662e-19 1.76828e-20 0.753291 0.000189895 0.753381)
(0.753338 1.47688e-19 1.80849e-20 0.753265 0.000259947 0.753397)
(0.75334 6.54704e-20 7.80823e-21 0.753294 0.000134361 0.753366)
(0.753331 9.64352e-21 5.51763e-21 0.75332 2.86844e-05 0.753349)
(0.753333 7.687e-21 5.11629e-21 0.753322 6.8441e-06 0.753344)
(0.753331 8.63527e-21 4.59123e-21 0.753326 2.81121e-05 0.753343)
(0.753343 4.89547e-20 2.8274e-21 0.753304 7.34347e-05 0.753352)
(0.753336 2.04057e-20 -2.03113e-21 0.753322 3.26201e-05 0.753342)
(0.75333 -4.71347e-21 -9.72529e-22 0.753339 3.37899e-07 0.753331)
(0.753337 2.66562e-21 -1.14284e-22 0.753325 9.84997e-07 0.753339)
(0.753329 3.20374e-23 -1.44859e-21 0.753337 9.04357e-06 0.753333)
(0.753334 2.02193e-21 1.90505e-22 0.75333 3.16689e-06 0.753336)
(0.753334 6.73356e-22 -1.15322e-21 0.753328 7.97205e-06 0.753338)
(0.753331 1.02798e-21 2.06862e-22 0.753338 4.32492e-06 0.753332)
(0.753336 2.15884e-21 8.95837e-23 0.753327 1.65161e-06 0.753337)
(0.753333 -2.54902e-22 -9.76153e-22 0.753332 8.74108e-06 0.753335)
(0.753331 -4.44662e-22 -1.17558e-22 0.753336 4.2291e-06 0.753332)
(0.753335 5.84288e-22 -9.38401e-23 0.753328 2.3159e-06 0.753336)
(0.75333 -5.29826e-22 -9.64388e-22 0.753337 8.33352e-06 0.753332)
(0.753334 -1.24518e-22 -1.45192e-22 0.753332 3.8973e-06 0.753334)
(0.753334 -6.66175e-22 -1.10532e-21 0.753329 7.59962e-06 0.753336)
(0.753331 4.6145e-22 -5.73384e-23 0.753337 4.45229e-06 0.753331)
(0.753336 9.31703e-22 -1.84102e-22 0.753329 2.89277e-06 0.753336)
(0.75333 2.26619e-22 -1.09709e-21 0.753338 8.01933e-06 0.753332)
(0.753334 1.70555e-21 -1.94046e-22 0.753332 4.09994e-06 0.753334)
(0.753334 5.44698e-22 -9.03061e-22 0.75333 7.24793e-06 0.753336)
(0.753331 5.19258e-23 -1.73855e-22 0.753338 4.55797e-06 0.753331)
(0.753336 9.11037e-22 -1.24624e-22 0.753329 3.38459e-06 0.753336)
(0.753333 4.08295e-23 -5.75156e-22 0.753333 7.5956e-06 0.753334)
(0.753332 -2.02349e-22 -1.35814e-22 0.753337 4.38465e-06 0.753331)
(0.753335 1.55684e-21 -2.50517e-23 0.75333 3.55862e-06 0.753335)
(0.753331 -8.0137e-22 -5.89414e-22 0.753338 7.52327e-06 0.753331)
(0.753334 -4.97878e-22 -1.50959e-22 0.753332 4.28561e-06 0.753334)
(0.753335 -1.39982e-21 -9.34147e-22 0.75333 6.97417e-06 0.753335)
(0.753331 -1.05059e-22 -2.38959e-22 0.753338 4.30976e-06 0.753331)
(0.753336 4.0413e-22 -1.98588e-22 0.753329 3.87033e-06 0.753335)
(0.753331 -3.73203e-22 -1.341e-21 0.753339 7.35148e-06 0.75333)
(0.753334 2.92072e-22 -2.36278e-22 0.753332 4.35042e-06 0.753334)
(0.753335 6.23628e-22 -1.21402e-21 0.753331 6.87039e-06 0.753334)
(0.753331 1.23417e-22 -1.84237e-22 0.753339 4.3361e-06 0.75333)
(0.753336 2.868e-21 -1.96825e-22 0.753329 4.55888e-06 0.753336)
(0.753333 1.16303e-21 -5.81395e-22 0.753335 7.46653e-06 0.753332)
(0.753331 7.65071e-22 -4.18262e-23 0.753337 4.48347e-06 0.753331)
(0.753335 2.36557e-21 -1.24985e-22 0.753329 4.88897e-06 0.753335)
(0.753331 1.20505e-21 1.12248e-22 0.753339 8.15246e-06 0.75333)
(0.753334 5.33419e-22 6.0052e-23 0.753332 5.06423e-06 0.753334)
(0.753335 6.90728e-22 4.4704e-22 0.753331 8.0694e-06 0.753334)
(0.753331 4.33946e-22 1.08095e-22 0.753338 4.87243e-06 0.753331)
(0.753336 -1.69804e-21 1.26201e-22 0.753329 4.96233e-06 0.753336)
(0.75333 9.64288e-24 4.94934e-22 0.75334 8.38302e-06 0.75333)
(0.753334 1.20207e-21 4.93097e-23 0.753332 5.10065e-06 0.753334)
(0.753335 -2.83762e-22 4.30936e-22 0.753331 7.94078e-06 0.753334)
(0.753331 -9.73682e-23 6.75119e-23 0.753339 5.02822e-06 0.753331)
(0.753336 8.74999e-22 -3.58689e-24 0.753328 5.00965e-06 0.753336)
(0.753333 -1.09753e-22 2.41151e-22 0.753334 8.23565e-06 0.753333)
(0.753331 -1.83398e-23 3.39446e-23 0.753337 5.15762e-06 0.753332)
(0.753335 -6.15437e-23 2.26382e-23 0.753329 5.06378e-06 0.753336)
(0.753331 4.50813e-22 2.23758e-22 0.753339 8.63846e-06 0.753331)
(0.753334 -1.04455e-21 2.78402e-23 0.753332 5.47367e-06 0.753334)
(0.753335 6.57342e-22 4.04896e-22 0.75333 8.47558e-06 0.753335)
(0.753331 3.85185e-22 1.391e-22 0.753337 5.61818e-06 0.753332)
(0.753336 1.15485e-21 4.3022e-23 0.753328 4.88631e-06 0.753336)