/*--------------------------------*- C++ -*----------------------------------*\
| =========                 |                                                 |
| \\      /  F ield         | OpenFOAM: The Open Source CFD Toolbox           |
|  \\    /   O peration     | Version:  4.1                                   |
|   \\  /    A nd           | Web:      www.OpenFOAM.org                      |
|    \\/     M anipulation  |                                                 |
\*---------------------------------------------------------------------------*/
FoamFile
{
    version     2.0;
    format      ascii;
    class       volVectorField;
    location    "5";
    object      U;
}
// * * * * * * * * * * * * * * * * * * * * * * * * * * * * * * * * * * * * * //

dimensions      [0 1 -1 0 0 0 0];

internalField   nonuniform List<vector> 
6785
(
(1.21823e-14 -1.965 16.3461)
(1.11774e-14 -7.70386 12.7858)
(-3.0429e-15 -5.07915 13.5069)
(4.13174e-15 -4.94133 13.0602)
(8.98769e-16 -4.20839 12.8954)
(-1.81714e-16 -3.77974 12.6094)
(2.55007e-15 -3.37867 12.317)
(5.73702e-16 -3.09064 11.9989)
(-8.23938e-16 -2.90377 11.6829)
(1.74491e-15 -2.84102 11.3781)
(2.53149e-16 -2.84776 11.1089)
(-5.85406e-16 -2.93819 10.8127)
(6.53313e-16 -3.43639 10.1451)
(-1.68174e-16 -3.36801 9.13409)
(-1.64652e-16 0.175997 7.45861)
(1.92781e-14 -9.76221 26.5468)
(1.31829e-14 -16.2134 22.8865)
(-2.67214e-15 -11.1132 23.2639)
(4.19708e-15 -11.7867 21.5201)
(6.69215e-16 -10.1612 20.6622)
(7.03071e-16 -9.46129 19.4919)
(1.64222e-15 -8.49181 18.4504)
(-1.46567e-16 -7.68091 17.397)
(-4.77067e-16 -6.87384 16.3654)
(2.67401e-16 -6.09978 15.2662)
(-5.64479e-16 -5.30969 13.9733)
(-7.81016e-16 -4.57612 12.2657)
(-1.06255e-16 -4.10033 9.9314)
(-2.30497e-16 -3.54386 6.94623)
(-2.4601e-16 -1.40487 2.64201)
(2.20477e-14 -12.6212 28.4145)
(1.09042e-14 -16.9943 25.2767)
(-1.27852e-15 -12.1005 25.3327)
(4.34798e-15 -13.0926 22.941)
(3.26649e-16 -11.0286 21.9508)
(1.4635e-15 -10.5111 20.3362)
(1.43649e-15 -9.4221 19.089)
(-3.592e-16 -8.68479 17.7981)
(4.38478e-16 -7.82324 16.4975)
(6.85547e-16 -6.6633 14.5315)
(4.92089e-16 -4.45423 10.7203)
(3.41191e-15 -0.991583 4.30129)
(3.50772e-15 2.15717 -1.83214)
(-1.07146e-15 2.78044 -3.21904)
(-2.59044e-15 1.53425 -2.42908)
(2.14806e-14 -13.586 28.4184)
(1.11231e-14 -17.5748 26.0321)
(-1.39386e-15 -12.8361 25.6578)
(4.77738e-15 -14.3881 22.861)
(7.93082e-16 -11.9759 21.992)
(1.17058e-15 -11.9224 20.0509)
(1.70989e-15 -10.7698 18.7789)
(6.90869e-16 -10.2245 17.338)
(1.73491e-16 -9.49615 16.0156)
(1.07914e-15 -8.63193 14.2919)
(1.8736e-15 -7.01131 11.3995)
(2.37386e-15 -4.12014 6.62492)
(3.56351e-15 -1.05744 1.85731)
(1.18715e-14 2.82126 -2.37221)
(-1.34877e-15 2.02829 -5.7376)
(1.98037e-14 -13.4646 26.9849)
(1.30799e-14 -17.7903 26.7942)
(-7.51706e-16 -13.2713 25.4187)
(4.38813e-15 -14.4515 22.5004)
(2.17692e-15 -12.2192 21.5134)
(1.3275e-15 -12.0933 19.4629)
(1.93605e-15 -10.9597 18.0401)
(1.78939e-15 -10.3168 16.4305)
(6.40196e-16 -9.56416 14.9397)
(1.02705e-15 -8.786 13.3441)
(2.00395e-15 -7.78511 11.3449)
(1.66689e-15 -6.09159 8.61557)
(1.27535e-15 -4.13707 5.35826)
(2.14405e-15 -1.03939 1.69077)
(3.5793e-15 0.981462 -3.83033)
(1.82084e-14 -12.8131 24.8197)
(1.45561e-14 -17.388 26.867)
(3.29437e-16 -13.3078 24.7674)
(3.40618e-15 -13.8188 21.7439)
(2.8297e-15 -11.8798 20.6056)
(1.54236e-15 -11.5512 18.5905)
(1.80021e-15 -10.4518 17.0676)
(2.16136e-15 -9.68402 15.3969)
(1.25521e-15 -8.86776 13.8425)
(5.45042e-16 -8.05951 12.3346)
(1.14943e-15 -7.2485 10.7459)
(1.64868e-15 -6.14131 8.96856)
(4.1175e-16 -4.84702 6.6767)
(3.96303e-16 -2.56476 3.71249)
(5.3637e-15 -0.272658 -1.64735)
(1.85158e-14 -12.1799 23.2168)
(1.58864e-14 -16.76 26.4174)
(2.25046e-15 -13.189 24.1366)
(2.69012e-15 -13.2549 21.0294)
(3.30569e-15 -11.5225 19.79)
(2.9823e-15 -11.1071 17.8511)
(1.92724e-15 -10.1032 16.3674)
(2.31565e-15 -9.39227 14.8431)
(2.85802e-15 -8.66513 13.4287)
(1.05897e-15 -7.93896 12.0669)
(9.0042e-16 -7.24375 10.7147)
(2.51982e-15 -6.44426 9.418)
(1.42022e-15 -5.58452 7.95114)
(-9.71051e-16 -4.07663 6.10965)
(6.49201e-15 -1.67562 1.5668)
(1.77712e-14 -11.8416 22.5523)
(1.58148e-14 -15.9672 25.5059)
(2.12443e-15 -12.6736 23.3416)
(2.59518e-15 -12.6694 20.1942)
(3.27433e-15 -10.7994 19.0012)
(2.73357e-15 -10.479 16.9729)
(1.79129e-15 -9.36523 15.5882)
(2.27635e-15 -8.82799 13.9988)
(2.39972e-15 -8.1949 12.5904)
(9.05922e-16 -7.73183 11.3212)
(3.70294e-16 -7.37499 10.3967)
(1.04295e-15 -7.12298 9.91446)
(6.86855e-16 -6.80633 9.67054)
(-1.52157e-15 -6.00964 9.04229)
(1.93215e-15 -3.72531 5.62627)
(1.78782e-14 -12.2892 23.1028)
(1.2528e-14 -15.0266 24.6954)
(2.33102e-16 -12.2245 22.7389)
(2.61395e-15 -11.9917 20.0635)
(2.36063e-15 -10.1114 18.7826)
(1.83231e-15 -9.31279 16.4067)
(3.47365e-15 -7.50337 14.0646)
(3.31404e-15 -6.31701 11.4051)
(1.37818e-15 -5.37321 9.61838)
(1.96471e-15 -5.33061 8.92166)
(9.21425e-16 -5.97017 9.54741)
(-8.96906e-16 -7.027 10.9383)
(1.58007e-16 -7.83649 12.4662)
(-1.61374e-15 -8.12452 12.8515)
(-1.81102e-15 -5.7124 9.96882)
(1.71317e-14 -13.6243 25.333)
(9.04366e-15 -15.3697 25.6775)
(-1.09522e-15 -12.5824 23.8405)
(1.5756e-15 -12.3368 22.019)
(1.5187e-15 -10.5817 20.8224)
(2.60028e-15 -9.29468 18.3308)
(5.2274e-15 -6.87761 15.2379)
(6.20077e-15 -4.78299 11.814)
(5.52012e-15 -2.85097 9.04857)
(6.15152e-15 -1.53498 6.89242)
(5.66672e-15 -1.09247 6.0439)
(3.13245e-15 -2.22941 7.31829)
(8.42768e-16 -4.73933 10.3918)
(-5.76628e-16 -7.09045 12.8886)
(-1.22526e-15 -5.49381 10.7049)
(1.67927e-14 -13.8717 25.4448)
(1.05503e-14 -17.8804 29.1564)
(1.35587e-16 -14.3728 26.3197)
(1.6944e-15 -14.0727 24.3435)
(9.1432e-16 -12.5113 23.3369)
(3.7508e-15 -11.5748 21.1473)
(5.58689e-15 -9.34807 18.3462)
(7.35991e-15 -7.26179 14.9469)
(9.64424e-15 -4.98498 11.8443)
(8.21704e-15 -2.87243 8.71073)
(1.18729e-14 -0.729922 5.56248)
(1.77251e-14 0.998057 2.64259)
(1.70504e-14 1.48599 1.32386)
(1.16659e-14 -0.102693 2.78817)
(4.68692e-16 -1.56733 4.25863)
(1.51664e-14 -11.6975 20.7912)
(1.39231e-14 -18.8639 30.2015)
(5.56231e-15 -16.752 28.5285)
(2.72867e-15 -15.5796 25.5089)
(1.56061e-16 -14.1213 23.8499)
(3.47658e-15 -13.422 21.9836)
(4.43904e-15 -12.0571 19.9332)
(3.40734e-15 -10.6103 17.3872)
(7.22655e-15 -8.85286 14.7498)
(7.31898e-15 -6.98088 11.9247)
(7.83331e-15 -4.81482 8.80712)
(1.45075e-14 -2.30216 5.13614)
(1.19608e-14 0.838803 0.747099)
(1.03765e-14 3.84429 -3.60491)
(4.08061e-15 1.40657 -3.74163)
(1.3606e-14 -8.60891 14.6576)
(1.63171e-14 -17.5779 28.2988)
(9.6641e-15 -17.5318 28.9386)
(4.97245e-15 -16.0713 25.6784)
(1.30711e-15 -14.5096 23.0645)
(2.67522e-15 -13.5814 20.9127)
(3.68886e-15 -12.6291 19.052)
(1.95311e-15 -11.65 17.1322)
(3.09792e-15 -10.5361 15.1253)
(4.08308e-15 -9.29081 13.0252)
(4.09871e-15 -7.92308 10.8044)
(5.54355e-15 -6.3054 8.44215)
(4.77622e-15 -4.48947 5.73164)
(4.30331e-15 -2.17529 3.03295)
(1.68858e-15 -0.134367 -1.58987)
(1.19328e-14 -5.92256 9.37309)
(1.7035e-14 -15.7101 25.7525)
(9.97549e-15 -16.5235 27.4044)
(3.94952e-15 -14.459 23.6001)
(8.76775e-17 -12.6475 20.8253)
(4.86783e-16 -11.7616 19.0383)
(1.61471e-15 -10.9893 17.5955)
(9.60608e-16 -10.2274 16.0678)
(1.05311e-15 -9.38162 14.4746)
(1.82662e-15 -8.45177 12.831)
(1.6393e-15 -7.47736 11.1332)
(1.2546e-15 -6.34618 9.38335)
(1.01546e-15 -5.12523 7.35999)
(3.29309e-16 -3.3934 4.98066)
(-2.24044e-15 -1.22427 0.343704)
(8.35007e-15 -4.36449 8.06636)
(1.74714e-14 -15.4258 24.7788)
(1.47299e-14 -19.0608 29.2094)
(7.6439e-15 -18.624 27.0542)
(5.78363e-15 -16.5451 23.1852)
(7.3207e-15 -14.4584 19.7986)
(6.30058e-15 -12.8401 17.407)
(3.7627e-15 -11.7272 15.7361)
(2.20997e-15 -10.7966 14.2756)
(2.83317e-15 -9.86823 12.8757)
(3.41471e-15 -8.8525 11.4748)
(2.81632e-15 -7.74171 10.0057)
(2.95157e-15 -6.45246 8.45497)
(4.05092e-15 -4.85933 6.41119)
(5.6933e-15 -1.82061 2.61518)
(1.79518e-17 4.26084 16.7656)
(7.77111e-16 -0.383088 2.14232)
(7.55631e-16 -0.139997 -1.08178)
(7.17577e-16 -0.128842 -0.76886)
(7.08267e-16 -0.0210222 -0.896042)
(9.49365e-16 0.214457 -1.24327)
(7.11255e-16 0.126769 -0.843968)
(7.37592e-16 0.223017 -0.82571)
(7.3378e-16 0.265282 -0.77727)
(1.08271e-15 0.479783 -1.08718)
(9.42179e-16 0.416821 -0.761461)
(9.18032e-16 0.486054 -0.714604)
(1.16356e-15 0.72692 -0.959069)
(7.98656e-16 0.598612 -0.665807)
(7.89214e-16 0.704813 -0.663622)
(7.44313e-16 0.706746 -0.639937)
(1.02228e-15 0.929778 -0.810817)
(6.81856e-16 0.797346 -0.534802)
(5.59013e-16 0.859715 -0.475472)
(7.17386e-16 1.1123 -0.536578)
(3.66135e-16 0.88642 -0.304965)
(2.80892e-16 0.997943 -0.255921)
(2.32074e-16 0.950407 -0.205617)
(4.32393e-16 1.19675 -0.156862)
(3.75484e-16 0.950666 -0.032128)
(4.74422e-16 1.04544 0.00249617)
(5.09737e-16 0.985123 0.0148638)
(8.03481e-16 1.18186 0.11033)
(4.47735e-16 0.965817 0.130121)
(1.89741e-16 0.989941 0.114993)
(-8.89974e-17 1.18887 0.228916)
(-6.24816e-16 0.91317 0.174142)
(-1.03349e-15 0.988771 0.161939)
(-1.39293e-15 0.929583 0.12747)
(-2.3321e-15 1.08205 0.22994)
(-2.19802e-15 0.863142 0.158945)
(-2.19651e-15 0.887469 0.123722)
(-3.04353e-15 1.03281 0.235323)
(-2.222e-15 0.777638 0.147908)
(-2.02037e-15 0.8409 0.133351)
(-1.63675e-15 0.793957 0.103544)
(-1.74245e-15 0.910711 0.20895)
(-8.14789e-16 0.687721 0.112724)
(-4.43632e-16 0.742823 0.0917937)
(-9.66837e-17 0.709594 0.0548009)
(2.39995e-16 0.786237 0.134623)
(4.06157e-16 0.598257 0.0431156)
(4.20768e-16 0.632284 0.00314249)
(5.21092e-16 0.693119 0.0734892)
(3.34766e-16 0.49949 -0.0141064)
(2.62126e-16 0.546219 -0.0437846)
(1.89506e-16 0.533815 -0.0801805)
(2.01343e-16 0.608684 -0.0333817)
(1.62782e-16 0.463251 -0.067323)
(2.22971e-16 0.512414 -0.096416)
(2.88062e-16 0.500652 -0.105642)
(7.556e-16 0.593585 -0.227603)
(7.10435e-16 0.519088 -0.198669)
(7.10464e-16 0.565608 -0.211869)
(9.42599e-16 0.553367 -0.232338)
(8.13023e-16 0.406582 -0.250541)
(7.99663e-16 0.438599 -0.27248)
(6.75288e-16 0.465798 -0.237827)
(1.65149e-15 0.410602 -0.806312)
(1.84336e-15 0.0848679 -0.96953)
(1.35695e-15 0.171055 -0.632532)
(4.12562e-15 0.349521 -2.4499)
(3.4725e-17 -0.467318 -0.335565)
(-7.58402e-16 -0.232876 0.12246)
(-1.95898e-15 -0.277358 0.654518)
(-6.75177e-15 -0.694894 3.28905)
(-8.70792e-15 -1.53603 4.62522)
(-8.86293e-15 -1.77762 4.55599)
(-9.28496e-15 -1.89628 4.86102)
(-1.39961e-14 -3.2034 8.16716)
(-1.13212e-14 -3.79416 7.32013)
(-1.12117e-14 -3.94408 7.59687)
(-1.47685e-14 -5.84236 11.3944)
(-1.0607e-14 -6.04258 9.15961)
(-1.03475e-14 -6.48526 9.74935)
(-1.06003e-14 -7.04626 11.4209)
(-9.9872e-15 -6.9886 11.245)
(-1.00296e-14 -7.08031 11.4854)
(-1.33569e-14 -8.52118 13.8746)
(-1.10046e-14 -7.8203 12.3435)
(-1.16633e-14 -8.05509 12.7607)
(-1.19398e-14 -8.03565 12.7523)
(-1.19406e-14 -8.11676 12.7492)
(-1.15773e-14 -8.17287 12.7846)
(-1.08603e-14 -8.24282 12.8585)
(-9.92042e-15 -8.29113 13.0509)
(-8.98092e-15 -8.36583 13.3017)
(-9.02265e-15 -8.95056 14.6516)
(-6.36006e-15 -8.89122 13.6721)
(-5.03147e-15 -9.00542 13.7118)
(-4.22024e-15 -8.98289 13.7023)
(-3.53671e-15 -9.1031 13.903)
(-3.0898e-15 -9.07846 13.835)
(-3.01578e-15 -9.14878 13.8803)
(-3.28309e-15 -9.15777 13.9148)
(-3.89191e-15 -9.21209 13.993)
(-7.7091e-15 -9.68881 15.2566)
(-6.85648e-15 -9.65995 14.4635)
(-8.18526e-15 -9.72053 14.5088)
(-8.71623e-15 -9.74017 14.5075)
(-8.85204e-15 -9.77214 14.5587)
(-8.3923e-15 -9.78732 14.6949)
(-7.37068e-15 -9.83941 14.8733)
(-5.83869e-15 -9.83524 14.9255)
(-4.00608e-15 -9.85054 15.0489)
(-2.31855e-15 -9.91738 15.1748)
(-1.49223e-15 -10.0572 16.089)
(1.82637e-16 -10.1982 15.6129)
(1.51419e-15 -10.2128 15.7939)
(1.86618e-15 -10.2186 15.9436)
(2.09238e-15 -10.2422 16.16)
(2.02314e-15 -10.2502 16.4294)
(1.90128e-15 -10.2955 16.8531)
(1.53705e-15 -10.2838 17.1648)
(1.00207e-15 -10.3981 17.4423)
(-2.53483e-15 -10.0842 18.0503)
(-1.65916e-15 -10.3211 17.811)
(-2.21576e-15 -10.2956 18.4503)
(-2.64897e-15 -10.3165 18.988)
(-3.68834e-15 -10.2909 19.4373)
(-5.00782e-15 -10.3378 19.9821)
(-6.88762e-15 -10.3726 20.5527)
(-9.35236e-15 -10.365 21.1865)
(-1.21121e-14 -10.6362 22.0059)
(-2.16737e-14 -9.16616 21.5084)
(-1.93506e-14 -9.79208 21.4214)
(-2.27143e-14 -9.75598 21.742)
(-2.33014e-14 -9.74687 21.8327)
(-2.26498e-14 -9.78992 22.1216)
(-1.9844e-14 -9.76918 21.9495)
(-1.52695e-14 -9.71652 21.5763)
(-9.65288e-15 -9.67507 21.1226)
(-4.32594e-15 -9.76093 20.5623)
(4.18864e-15 -7.25443 17.0138)
(6.03007e-15 -8.22718 18.1667)
(8.04721e-15 -7.99378 17.4066)
(7.00916e-15 -8.01064 17.1001)
(6.24467e-15 -7.87912 16.7368)
(5.57348e-15 -7.78953 16.4606)
(6.27232e-15 -7.69343 16.3472)
(5.96538e-15 -7.49727 15.6479)
(6.50365e-15 -7.34141 14.9418)
(6.94199e-15 -7.22652 13.972)
(5.78547e-15 -3.64208 7.64872)
(7.30081e-15 -5.47112 10.6357)
(7.06155e-15 -4.95588 9.04621)
(6.3819e-15 -5.08641 8.36471)
(5.60177e-15 -4.74205 7.25183)
(4.6474e-15 -4.6776 6.01905)
(3.30822e-15 -4.47538 3.89022)
(2.26179e-15 -4.09343 1.92028)
(2.47119e-15 -4.14008 1.99885)
(8.84359e-16 -3.66049 -0.256041)
(2.07154e-15 -3.69964 1.10162)
(1.8785e-15 -3.67407 0.401098)
(1.85998e-16 -2.7487 -1.34721)
(1.45062e-15 -4.32527 -0.472148)
(1.16695e-15 -3.60727 -0.610613)
(9.71527e-16 -3.27863 -0.35172)
(1.27293e-15 -4.32452 -0.511575)
(8.26964e-16 -3.01554 -0.275352)
(1.17492e-15 -4.00289 -0.388849)
(8.40891e-16 -3.81769 -0.300935)
(5.91477e-16 -3.14032 -0.203758)
(8.53998e-16 -3.89452 -0.31048)
(6.95193e-16 -3.71291 -0.267172)
(5.76472e-16 -3.20059 -0.182156)
(8.04832e-16 -4.31828 -0.268665)
(6.1762e-16 -2.99851 -0.163638)
(9.15695e-16 -3.96546 -0.233634)
(7.27794e-16 -3.60919 -0.233098)
(6.34915e-16 -3.15983 -0.163545)
(8.39732e-16 -4.23581 -0.239433)
(5.10034e-16 -2.92261 -0.145997)
(7.78331e-16 -3.88961 -0.193593)
(6.16037e-16 -3.63469 -0.207369)
(4.79994e-16 -2.99352 -0.137873)
(6.23262e-16 -3.69147 -0.209795)
(4.48538e-16 -3.45677 -0.21272)
(2.26003e-16 -2.9701 -0.145228)
(2.95223e-16 -3.98253 -0.22217)
(2.02422e-16 -2.74618 -0.14678)
(3.31703e-16 -3.62013 -0.220451)
(2.31017e-16 -3.225 -0.239625)
(2.63676e-16 -2.81622 -0.172962)
(4.12659e-16 -3.74912 -0.25847)
(3.4868e-16 -2.56664 -0.167498)
(5.27405e-16 -3.40439 -0.242042)
(4.15266e-16 -3.12112 -0.255876)
(1.63678e-16 -2.56451 -0.186704)
(1.73879e-16 -3.14614 -0.291935)
(-2.77371e-17 -2.90712 -0.280207)
(-1.13806e-16 -2.48429 -0.202709)
(-1.64298e-16 -3.3228 -0.297551)
(-1.51956e-16 -2.26681 -0.195469)
(-2.3994e-16 -2.99307 -0.281493)
(-1.04131e-16 -2.65346 -0.260568)
(9.05791e-17 -2.31159 -0.188091)
(2.51883e-16 -3.09845 -0.260811)
(1.99371e-16 -2.10695 -0.161219)
(4.71782e-16 -2.8244 -0.195283)
(4.07551e-16 -2.63769 -0.155948)
(2.41503e-16 -2.16133 -0.0791791)
(4.15341e-16 -2.69867 -0.0646055)
(3.33827e-16 -2.54661 -0.0354766)
(2.61143e-16 -2.18731 0.00354908)
(3.23445e-16 -2.97824 0.0169868)
(2.30363e-16 -2.05081 0.0329586)
(1.74018e-16 -2.74187 0.0622098)
(-8.6052e-17 -2.44826 0.00435961)
(-2.16392e-16 -2.1366 0.010168)
(-3.34502e-16 -2.88046 -0.018041)
(-3.24545e-16 -1.9599 -0.0145623)
(-4.19586e-16 -2.62895 -0.0289254)
(-3.10476e-16 -2.38708 -0.0843949)
(-2.24621e-16 -1.95471 -0.0533684)
(-2.65074e-16 -2.42113 -0.0956047)
(-1.79698e-16 -2.20277 -0.106297)
(-2.40529e-17 -1.87313 -0.0646185)
(1.68851e-18 -2.52732 -0.115006)
(7.23803e-17 -1.69167 -0.0853377)
(1.02553e-16 -2.25741 -0.155602)
(8.61212e-17 -1.93363 -0.203772)
(2.25938e-17 -1.65335 -0.171876)
(-8.57314e-18 -2.21608 -0.291123)
(-5.72728e-17 -1.43015 -0.235276)
(-1.33796e-16 -1.92362 -0.390577)
(-1.51515e-16 -1.64779 -0.412684)
(-1.02056e-16 -1.27861 -0.346746)
(-1.84014e-16 -1.57939 -0.580905)
(-1.91378e-16 -1.3219 -0.583277)
(-1.59976e-16 -1.02594 -0.489382)
(-2.06255e-16 -1.44698 -0.748026)
(-1.53291e-16 -0.754152 -0.567807)
(-2.31441e-16 -0.961991 -0.913346)
(1.73006e-68 0.0500958 0.0508038)
(1.10782e-67 0.0680571 0.0494652)
(3.15275e-67 0.0804849 0.0497288)
(-5.71504e-67 0.092203 0.0496504)
(-1.17701e-65 0.103849 0.0500807)
(-5.85385e-65 0.114975 0.0505393)
(-2.69593e-65 0.126055 0.05127)
(1.54773e-63 0.136964 0.0521312)
(9.87845e-63 0.147879 0.0531987)
(9.00212e-63 0.158796 0.0544278)
(-2.61041e-61 0.169797 0.0558428)
(-1.75324e-60 0.180909 0.0574293)
(-1.27139e-60 0.192181 0.0591954)
(5.00645e-59 0.203647 0.0611367)
(3.13187e-58 0.215345 0.0632566)
(5.77376e-59 0.227307 0.0655546)
(-9.7995e-57 0.239567 0.0680333)
(-5.34507e-56 0.252155 0.0706941)
(3.16119e-56 0.265103 0.0735401)
(1.83455e-54 0.27844 0.0765742)
(8.39605e-54 0.292196 0.0798002)
(-1.32873e-53 0.306399 0.0832224)
(-3.17445e-52 0.321078 0.0868457)
(-1.17975e-51 0.336261 0.0906755)
(3.39662e-51 0.351977 0.0947178)
(4.9832e-50 0.368255 0.0989791)
(1.43011e-49 0.385123 0.103467)
(-6.85405e-49 0.40261 0.108188)
(-6.97553e-48 0.420746 0.113152)
(-1.3784e-47 0.439558 0.118367)
(1.15995e-46 0.459079 0.123842)
(8.4481e-46 0.479337 0.129586)
(7.84168e-46 0.500363 0.135611)
(-1.64908e-44 0.522189 0.141927)
(-8.32542e-44 0.544844 0.148544)
(4.10119e-44 0.568359 0.155474)
(1.89882e-42 0.592765 0.162726)
(5.7655e-42 0.618089 0.170311)
(-1.81262e-41 0.644358 0.178237)
(-1.63117e-40 0.671594 0.186513)
(-1.18553e-40 0.699813 0.195143)
(2.67031e-39 0.729025 0.204129)
(8.21136e-39 0.759226 0.213465)
(-3.49717e-38 0.790399 0.223141)
(-2.50091e-37 0.822502 0.233137)
(1.67713e-37 0.855472 0.243418)
(6.2511e-36 0.88921 0.253935)
(1.59844e-35 0.923577 0.26462)
(-8.5183e-35 0.958391 0.275379)
(-6.53123e-34 0.993418 0.286094)
(-6.88376e-34 1.02838 0.296612)
(1.01885e-32 1.06295 0.306747)
(5.20807e-32 1.09676 0.316277)
(2.07034e-32 1.12943 0.324938)
(-7.97169e-31 1.16057 0.332425)
(-3.40438e-30 1.18978 0.338379)
(-9.97626e-31 1.21668 0.342371)
(4.48368e-29 1.24081 0.343881)
(1.82628e-28 1.26162 0.34225)
(1.16455e-28 1.27832 0.336627)
(-1.72423e-27 1.28972 0.325878)
(-7.58711e-27 1.29393 0.308539)
(-9.94536e-27 1.28818 0.282642)
(3.52947e-26 1.268 0.245921)
(2.09929e-25 1.22775 0.195516)
(4.61724e-25 1.15813 0.129342)
(1.35087e-25 1.04971 0.044858)
(-2.40226e-24 0.8818 -0.0542381)
(-8.94628e-24 0.640783 -0.166101)
(-1.42145e-23 0.217456 -0.279618)
(-2.47093e-23 -0.413826 -0.361895)
(3.11426e-23 -0.856482 -0.350486)
(-1.05907e-22 -1.26688 -0.363118)
(4.24647e-22 -1.75632 -0.29066)
(-1.05001e-21 -2.06846 -0.347553)
(9.92199e-21 -2.66409 -0.16924)
(-1.80511e-19 -2.57699 -0.475121)
(4.76717e-18 -3.72279 0.00250858)
(-6.84624e-18 -4.08755 -1.10365)
(5.88518e-68 0.0503724 0.0577659)
(4.51961e-67 0.0682695 0.0559001)
(1.55565e-66 0.080482 0.0561224)
(-5.10407e-67 0.0921638 0.0559357)
(-4.28598e-65 0.10372 0.0563767)
(-2.53912e-64 0.114794 0.0568494)
(-3.43827e-64 0.125807 0.0576431)
(5.33929e-63 0.136659 0.0585845)
(4.14151e-62 0.147515 0.0597615)
(7.23584e-62 0.158375 0.0611198)
(-8.97729e-61 0.169318 0.0626869)
(-7.33101e-60 0.180372 0.0644448)
(-1.14392e-59 0.191587 0.0664024)
(1.75904e-58 0.202996 0.068554)
(1.32437e-57 0.214636 0.0709033)
(1.38906e-57 0.22654 0.0734491)
(-3.53427e-56 0.238741 0.0761939)
(-2.30103e-55 0.251271 0.0791392)
(-7.9711e-56 0.264159 0.0822879)
(6.76942e-54 0.277435 0.0856431)
(3.69588e-53 0.291128 0.0892086)
(-1.83967e-53 0.305267 0.092989)
(-1.19135e-51 0.319881 0.0969892)
(-5.34614e-51 0.334997 0.101215)
(8.04503e-51 0.350644 0.105673)
(1.89093e-49 0.366851 0.110369)
(6.79958e-49 0.383645 0.115312)
(-1.89663e-48 0.401056 0.12051)
(-2.67096e-47 0.419112 0.12597)
(-7.31352e-47 0.437843 0.131703)
(3.42017e-46 0.457279 0.137718)
(3.29246e-45 0.477449 0.144024)
(6.07167e-45 0.498384 0.150634)
(-5.02351e-44 0.520115 0.157558)
(-3.41151e-43 0.542672 0.164806)
(-2.78757e-43 0.566086 0.172389)
(5.96973e-42 0.590387 0.180319)
(2.75721e-41 0.615604 0.188604)
(-1.5365e-41 0.641763 0.197253)
(-5.44956e-40 0.668887 0.206271)
(-1.42417e-39 0.696994 0.215661)
(4.74179e-39 0.726094 0.22542)
(3.33183e-38 0.756186 0.235539)
(-3.46879e-39 0.787255 0.245999)
(-5.18876e-37 0.819264 0.25677)
(-5.906e-37 0.852153 0.267805)
(9.83163e-36 0.88583 0.27904)
(3.36999e-35 0.920163 0.290386)
(-1.38794e-34 0.954977 0.30173)
(-1.20821e-33 0.990049 0.312925)
(-1.23791e-33 1.02511 0.323794)
(1.97146e-32 1.05984 0.334126)
(9.62371e-32 1.0939 0.343675)
(1.22699e-32 1.1269 0.352158)
(-1.54638e-30 1.15848 0.359254)
(-5.96348e-30 1.18826 0.36459)
(4.98804e-31 1.21587 0.367725)
(8.40467e-29 1.2409 0.36811)
(3.016e-28 1.26286 0.365035)
(7.60744e-29 1.28102 0.357565)
(-3.14695e-27 1.29431 0.344417)
(-1.20375e-26 1.30096 0.323923)
(-1.18079e-26 1.29833 0.293809)
(6.69814e-26 1.28212 0.251504)
(3.29584e-25 1.24664 0.193753)
(6.31198e-25 1.18254 0.118405)
(-7.25853e-26 1.07951 0.0226397)
(-4.0401e-24 0.916382 -0.0885779)
(-1.32569e-23 0.677059 -0.215079)
(-1.98947e-23 0.25457 -0.343334)
(-2.71675e-23 -0.429464 -0.426094)
(2.93888e-23 -0.886617 -0.387668)
(-1.04982e-22 -1.3026 -0.38583)
(4.20358e-22 -1.78844 -0.305645)
(-1.06259e-21 -2.11159 -0.357462)
(1.04122e-20 -2.67789 -0.174104)
(-1.89763e-19 -2.62414 -0.473028)
(4.76299e-18 -3.66745 0.00115837)
(-5.3646e-18 -4.00823 -1.07731)
(1.54849e-67 0.0505415 0.0615149)
(1.48334e-66 0.0683964 0.0594435)
(5.9644e-66 0.0804828 0.0596413)
(4.09651e-66 0.0921404 0.0593987)
(-1.24175e-64 0.103645 0.0598465)
(-8.77602e-64 0.11469 0.060329)
(-1.84213e-63 0.125666 0.0611587)
(1.44775e-62 0.136487 0.062146)
(1.3854e-61 0.14731 0.0633849)
(3.42355e-61 0.158138 0.0648159)
(-2.43076e-60 0.16905 0.0664679)
(-2.43964e-59 0.180073 0.0683215)
(-5.54425e-59 0.191257 0.0703857)
(4.8982e-58 0.202634 0.0726542)
(4.43571e-57 0.214243 0.0751305)
(7.80116e-57 0.226116 0.0778133)
(-1.0143e-55 0.238285 0.0807052)
(-7.79175e-55 0.250783 0.0838074)
(-8.41532e-55 0.263638 0.0871229)
(1.98958e-53 0.276881 0.0906548)
(1.26776e-52 0.290541 0.094407)
(3.83108e-53 0.304646 0.0983841)
(-3.55759e-51 0.319224 0.102591)
(-1.86191e-50 0.334304 0.107034)
(1.05418e-50 0.349914 0.11172)
(5.69438e-49 0.366082 0.116655)
(2.42206e-48 0.382837 0.121847)
(-3.79728e-48 0.400207 0.127304)
(-8.07095e-47 0.418221 0.133036)
(-2.7284e-46 0.436909 0.139052)
(7.69945e-46 0.456299 0.145361)
(9.99938e-45 0.476423 0.151975)
(2.55474e-44 0.497309 0.158903)
(-1.18182e-43 0.51899 0.166158)
(-1.05759e-42 0.541496 0.17375)
(-1.81665e-42 0.564856 0.18169)
(1.43875e-41 0.589103 0.189988)
(9.13861e-41 0.614264 0.198654)
(7.33407e-41 0.640366 0.207695)
(-1.35939e-39 0.667433 0.217115)
(-5.91528e-39 0.695484 0.226917)
(2.02648e-39 0.72453 0.237094)
(9.16345e-38 0.75457 0.247634)
(2.20687e-37 0.785592 0.258514)
(-5.8118e-37 0.817562 0.269699)
(-3.2191e-36 0.850422 0.281134)
(4.50915e-36 0.884083 0.292746)
(4.36606e-35 0.918418 0.304436)
(-1.22016e-34 0.953257 0.316076)
(-1.45699e-33 0.988382 0.327509)
(-1.42715e-33 1.02353 0.338544)
(2.77477e-32 1.05838 0.348956)
(1.3146e-31 1.0926 0.358489)
(-1.72144e-32 1.12581 0.366855)
(-2.27518e-30 1.15765 0.373726)
(-8.13935e-30 1.18776 0.37873)
(3.17601e-30 1.21577 0.381418)
(1.21621e-28 1.24129 0.381231)
(3.96217e-28 1.26388 0.37743)
(-2.95132e-29 1.28285 0.369034)
(-4.47265e-27 1.29719 0.354676)
(-1.52952e-26 1.30521 0.332571)
(-1.03619e-26 1.30437 0.300266)
(9.85238e-26 1.29041 0.255011)
(4.18298e-25 1.25761 0.193325)
(6.90922e-25 1.19656 0.112996)
(-4.47086e-25 1.09638 0.0109761)
(-5.593e-24 0.935643 -0.107159)
(-1.65423e-23 0.696363 -0.243125)
(-2.33141e-23 0.271572 -0.375404)
(-3.27224e-23 -0.411757 -0.503316)
(2.55904e-23 -0.879706 -0.451792)
(-1.03501e-22 -1.29907 -0.424796)
(4.14172e-22 -1.77941 -0.330091)
(-1.08151e-21 -2.11252 -0.372452)
(1.10757e-20 -2.65419 -0.18176)
(-2.00847e-19 -2.63038 -0.467711)
(4.75865e-18 -3.59162 0.00609066)
(-4.03842e-18 -3.9271 -1.05116)
(3.45117e-67 0.0508116 0.0658109)
(4.63067e-66 0.0685957 0.0635569)
(2.16874e-65 0.0805016 0.063739)
(3.31328e-65 0.0921184 0.0634486)
(-3.3125e-64 0.103547 0.0639105)
(-2.90386e-63 0.114545 0.064412)
(-8.22877e-63 0.125465 0.0652887)
(3.5105e-62 0.13624 0.0663348)
(4.44445e-61 0.147013 0.0676502)
(1.42949e-60 0.157795 0.0691705)
(-5.93983e-60 0.168659 0.0709261)
(-7.80638e-59 0.179636 0.0728957)
(-2.34141e-58 0.190773 0.0750886)
(1.26e-57 0.202105 0.077498)
(1.43198e-56 0.213667 0.0801271)
(3.52774e-56 0.225494 0.0829746)
(-2.7385e-55 0.237616 0.086043)
(-2.54732e-54 0.250066 0.0893333)
(-4.5427e-54 0.262874 0.0928487)
(5.5677e-53 0.276068 0.0965922)
(4.20159e-52 0.289678 0.100568)
(4.35769e-52 0.303732 0.104781)
(-1.01997e-50 0.318258 0.109235)
(-6.26013e-50 0.333285 0.113938)
(-1.56018e-50 0.34884 0.118896)
(1.65649e-48 0.364952 0.124117)
(8.28636e-48 0.381648 0.129607)
(-4.88963e-48 0.398958 0.135376)
(-2.36498e-46 0.41691 0.141433)
(-9.60124e-46 0.435533 0.147787)
(1.46076e-45 0.454857 0.15445)
(2.94345e-44 0.474911 0.161431)
(9.5382e-44 0.495726 0.168742)
(-2.5065e-43 0.517333 0.176393)
(-3.1466e-42 0.539762 0.184397)
(-7.84234e-42 0.563044 0.192765)
(3.19237e-41 0.58721 0.201505)
(2.81179e-40 0.612288 0.210629)
(5.0174e-40 0.638306 0.220141)
(-3.11118e-39 0.665289 0.230047)
(-2.00325e-38 0.693255 0.240344)
(-2.22099e-38 0.722218 0.251027)
(2.21683e-37 0.75218 0.262078)
(1.03753e-36 0.78313 0.273471)
(4.9687e-37 0.815038 0.285162)
(-9.73118e-36 0.847851 0.297091)
(-2.88703e-35 0.881484 0.309173)
(1.6913e-36 0.915816 0.321296)
(2.033e-35 0.950684 0.333321)
(-7.60627e-34 0.985877 0.345072)
(4.87636e-34 1.02114 0.356342)
(3.52596e-32 1.05616 0.366892)
(1.47743e-31 1.0906 0.376453)
(-1.20904e-31 1.12411 0.384726)
(-3.16103e-30 1.15633 0.391378)
(-1.02266e-29 1.1869 0.396032)
(8.08541e-30 1.21548 0.398234)
(1.66791e-28 1.24173 0.397415)
(4.92301e-28 1.26523 0.392811)
(-2.09138e-28 1.28537 0.383389)
(-6.01345e-27 1.30124 0.367697)
(-1.8329e-26 1.31126 0.34382)
(-5.79697e-27 1.31299 0.309102)
(1.38033e-25 1.30231 0.260571)
(5.03591e-25 1.27344 0.194457)
(6.64798e-25 1.21686 0.108392)
(-1.11484e-24 1.121 -0.000964331)
(-7.65743e-24 0.964194 -0.127585)
(-2.02388e-23 0.725679 -0.275074)
(-2.62916e-23 0.304102 -0.417227)
(-4.00124e-23 -0.399712 -0.572651)
(1.99842e-23 -0.886101 -0.534636)
(-1.01407e-22 -1.30889 -0.481454)
(4.06249e-22 -1.7825 -0.363839)
(-1.10633e-21 -2.1226 -0.392934)
(1.18332e-20 -2.64317 -0.192058)
(-2.11947e-19 -2.64388 -0.461756)
(4.75615e-18 -3.53657 0.0119251)
(-3.18879e-18 -3.8772 -0.980533)
(5.02475e-67 0.0510696 0.069853)
(1.35682e-65 0.0687827 0.0674864)
(7.47497e-65 0.0805235 0.0676587)
(1.70456e-64 0.0920976 0.0673343)
(-7.73646e-64 0.103454 0.067814)
(-9.13462e-63 0.114406 0.0683393)
(-3.29419e-62 0.125274 0.0692645)
(6.87834e-62 0.136004 0.0703709)
(1.35646e-60 0.146731 0.0717631)
(5.4667e-60 0.157469 0.0733725)
(-1.20514e-59 0.168288 0.0752306)
(-2.38446e-58 0.179222 0.0773146)
(-9.01277e-58 0.190315 0.0796341)
(2.85738e-57 0.201603 0.0821815)
(4.42807e-56 0.213122 0.0849602)
(1.41463e-55 0.224905 0.0879687)
(-6.77246e-55 0.236984 0.0912092)
(-7.99604e-54 0.24939 0.0946829)
(-1.98705e-53 0.262153 0.098393)
(1.45788e-52 0.275301 0.102342)
(1.3388e-51 0.288865 0.106536)
(2.32962e-51 0.302871 0.110977)
(-2.77094e-50 0.317349 0.115673)
(-2.02389e-49 0.332326 0.120628)
(-2.00561e-49 0.34783 0.125851)
(4.60408e-48 0.363889 0.131348)
(2.7196e-47 0.380532 0.137127)
(6.59121e-48 0.397786 0.143198)
(-6.65759e-46 0.41568 0.149571)
(-3.21255e-45 0.434243 0.156254)
(1.65494e-45 0.453505 0.163258)
(8.34047e-44 0.473496 0.170596)
(3.29732e-43 0.494245 0.178277)
(-4.27986e-43 0.515783 0.186314)
(-8.97273e-42 0.538142 0.194717)
(-2.89343e-41 0.561352 0.203499)
(6.12761e-41 0.585443 0.212669)
(8.1478e-40 0.610446 0.222235)
(2.12427e-39 0.636387 0.232205)
(-6.25875e-39 0.663293 0.242581)
(-6.06351e-38 0.691184 0.25336)
(-1.27766e-37 0.720074 0.264534)
(4.60505e-37 0.749968 0.276082)
(3.5217e-36 0.780858 0.287972)
(6.30086e-36 0.812716 0.300157)
(-2.17797e-35 0.845494 0.312567)
(-1.44954e-34 0.879113 0.325108)
(-2.71969e-34 0.913458 0.337657)
(3.02712e-34 0.94837 0.35006)
(2.99186e-33 0.983646 0.362126)
(1.16451e-32 1.01903 0.373633)
(4.49595e-32 1.05423 0.384327)
(8.71816e-32 1.08891 0.393927)
(-4.99057e-31 1.12272 0.402125)
(-4.31618e-30 1.1553 0.408585)
(-1.10825e-29 1.18631 0.412927)
(1.83023e-29 1.21544 0.414697)
(2.16233e-28 1.24236 0.413317)
(5.57738e-28 1.2667 0.408006)
(-4.82608e-28 1.28794 0.397688)
(-7.38652e-27 1.30524 0.380833)
(-1.94716e-26 1.31715 0.355401)
(4.06075e-27 1.32136 0.318543)
(1.77425e-25 1.31381 0.267057)
(5.34561e-25 1.28872 0.196874)
(4.18877e-25 1.23644 0.105408)
(-2.23754e-24 1.14474 -0.0109991)
(-1.0064e-23 0.991772 -0.14612)
(-2.31936e-23 0.753962 -0.305473)
(-2.64315e-23 0.335212 -0.458339)
(-4.75804e-23 -0.387416 -0.639457)
(1.32674e-23 -0.898755 -0.630423)
(-9.83763e-23 -1.33086 -0.558266)
(3.96109e-22 -1.79729 -0.409299)
(-1.13653e-21 -2.14312 -0.419601)
(1.26531e-20 -2.64174 -0.205378)
(-2.22343e-19 -2.6669 -0.455192)
(4.75668e-18 -3.48894 0.0200637)
(-3.03821e-18 -3.83319 -0.941354)
(-5.56252e-67 0.0513556 0.0738341)
(3.66655e-65 0.0689855 0.071398)
(2.43985e-64 0.0805529 0.0715674)
(7.32546e-64 0.0920767 0.0712221)
(-1.38442e-63 0.103353 0.0717243)
(-2.71414e-62 0.114254 0.0722793)
(-1.21484e-61 0.125064 0.0732571)
(6.76922e-62 0.135744 0.0744281)
(3.91021e-60 0.146419 0.0759007)
(1.94655e-59 0.157108 0.0776028)
(-1.47599e-59 0.167878 0.0795669)
(-6.91437e-58 0.178763 0.0817688)
(-3.22454e-57 0.189809 0.0842182)
(5.08995e-57 0.201049 0.0869071)
(1.30663e-55 0.212521 0.0898388)
(5.20868e-55 0.224255 0.0930116)
(-1.46449e-54 0.236286 0.0964277)
(-2.40358e-53 0.248643 0.100088)
(-7.71892e-53 0.261357 0.103997)
(3.49159e-52 0.274455 0.108156)
(4.09366e-51 0.287968 0.11257)
(9.97331e-51 0.301922 0.117244)
(-7.03871e-50 0.316347 0.122184)
(-6.28454e-49 0.331269 0.127396)
(-1.06318e-48 0.346717 0.132887)
(1.21164e-47 0.362718 0.138665)
(8.56658e-47 0.379301 0.144739)
(8.44414e-47 0.396493 0.151117)
(-1.78856e-45 0.414324 0.157809)
(-1.02721e-44 0.432822 0.164825)
(-3.28116e-45 0.452016 0.172178)
(2.26512e-43 0.471937 0.179876)
(1.0754e-42 0.492613 0.187934)
(-3.25868e-43 0.514077 0.196361)
(-2.451e-41 0.536359 0.20517)
(-9.74768e-41 0.559489 0.214372)
(8.40548e-41 0.583499 0.223978)
(2.24131e-39 0.608419 0.233995)
(7.57402e-39 0.634277 0.24443)
(-9.85599e-39 0.6611 0.255284)
(-1.69706e-37 0.688909 0.266554)
(-5.00017e-37 0.71772 0.278227)
(7.44181e-37 0.74754 0.290282)
(1.02863e-35 0.778364 0.302682)
(2.79803e-35 0.81017 0.315373)
(-3.32932e-35 0.842913 0.328278)
(-4.70848e-34 0.87652 0.341294)
(-1.33337e-33 0.910881 0.354285)
(2.02845e-34 0.945847 0.367084)