/*--------------------------------*- C++ -*----------------------------------*\
| =========                 |                                                 |
| \\      /  F ield         | OpenFOAM: The Open Source CFD Toolbox           |
|  \\    /   O peration     | Version:  4.1                                   |
|   \\  /    A nd           | Web:      www.OpenFOAM.org                      |
|    \\/     M anipulation  |                                                 |
\*---------------------------------------------------------------------------*/
FoamFile
{
    version     2.0;
    format      ascii;
    class       volScalarField;
    location    "10";
    object      p;
}
// * * * * * * * * * * * * * * * * * * * * * * * * * * * * * * * * * * * * * //

dimensions      [0 2 -2 0 0 0 0];

internalField   nonuniform List<scalar> 
6785
(
600.919
522.728
475.92
422.805
376.329
331.626
290.024
250.69
213.51
178.279
144.298
111.174
82.4025
52.719
12.2543
-8.15404
-25.3539
-15.2998
-22.0613
-21.2412
-23.4512
-23.9571
-24.3723
-23.898
-22.57
-20.1413
-17.0026
-12.7182
-6.62118
-2.63429
20.1609
17.1809
26.8243
23.0819
27.6381
27.3577
29.0409
29.6061
30.4378
31.0898
31.8421
32.4993
32.9389
33.3115
35.2169
55.3885
52.8111
55.8467
51.0285
52.7118
49.9453
49.7439
48.3061
47.5783
46.7514
46.1306
45.5488
45.0889
44.5255
43.4793
24.0292
19.7464
20.7404
16.4715
17.2755
14.2089
13.9348
12.0646
11.2355
10.038
9.25215
8.53721
7.56032
5.88725
4.34871
-6.02881
-9.57848
-8.40786
-11.6855
-10.8158
-13.6146
-13.835
-15.8374
-16.9082
-18.2954
-19.0945
-19.6151
-19.9752
-20.3403
-18.6181
-2.77588
-3.59036
-1.33756
-2.95655
-0.812487
-1.90781
-0.741797
-0.988585
-0.542976
-0.37398
0.152206
0.877152
2.4041
4.03555
7.03183
20.9824
21.9473
24.2829
24.0606
26.6115
26.9516
28.9035
30.0235
31.6303
33.1196
34.7658
36.3291
38.094
39.416
41.2546
38.3146
39.4742
41.1508
41.1241
43.015
43.2911
44.6507
45.3963
46.4143
47.3113
48.27
49.1343
50.1261
50.8126
51.7967
50.6671
51.902
53.2136
53.2837
54.7683
54.974
56.0448
56.6247
57.4303
58.1667
58.9303
59.6402
60.4962
61.0759
62.0866
65.9118
67.126
68.0108
68.3108
69.4891
69.7191
70.4998
70.5464
70.5734
70.2619
69.9581
70.0224
70.4553
70.9743
71.4003
73.2399
72.8213
72.838
72.2086
72.2287
71.294
70.8283
69.8973
69.1627
68.3827
67.7868
67.3787
66.9302
66.9916
66.1406
73.1271
70.281
68.6161
66.5101
65.19
63.49
62.3887
60.7918
59.1218
56.9927
54.7312
52.5631
51.1807
50.8045
48.2727
44.4213
41.9375
39.2357
35.5846
31.9041
27.8795
24.2462
20.8899
18.3768
16.5727
15.6071
15.2435
15.5166
15.6854
14.4145
49.926
46.9369
42.192
35.9494
27.9985
20.4274
16.3469
15.1614
15.188
16.6459
18.1503
19.1868
19.6313
19.4148
18.4582
30.1539
30.2116
30.2269
30.2283
30.234
30.2597
30.3258
30.3013
30.2881
30.2838
30.3207
30.2508
30.2509
30.2579
30.166
30.133
30.1456
30.1552
29.9894
30.0437
30.0403
29.8762
29.8374
29.9178
29.908
29.7133
29.6814
29.7793
29.8177
29.5428
29.7061
29.7398
29.5076
29.4839
29.6278
29.706
29.4161
29.589
29.6753
29.4594
29.4393
29.598
29.6659
29.4845
29.4795
29.6386
29.6881
29.4986
29.7662
29.648
29.4996
29.5444
29.7793
29.809
29.6923
29.7213
29.876
30.1756
30.1129
30.1354
30.6304
30.6147
30.5455
30.5725
30.7642
30.7828
31.0693
31.3053
30.7063
31.3632
32.1224
29.2488
27.3696
29.4375
31.8214
17.8379
24.0903
28.7441
-0.874137
6.26875
10.3398
9.50693
13.3275
7.49554
7.73756
12.441
12.6973
13.8937
14.3581
15.2232
17.6033
21.4
18.9967
15.2385
17.0803
20.6609
24.2818
25.0321
26.8375
28.4
30.973
33.4601
31.5587
35.2106
36.6092
39.6493
44.1456
46.9971
48.4259
50.7605
50.2908
61.2378
56.1253
58.423
59.1367
59.922
62.2275
65.8679
67.4246
62.473
71.1035
69.2795
72.3566
72.6505
71.0619
69.3653
67.688
69.6945
63.521
74.0376
71.3449
65.4076
63.9901
61.7655
57.672
54.5996
51.7781
41.7445
48.6638
53.3836
46.2584
43.0417
38.2791
31.6828
26.2919
24.0825
20.5464
15.215
15.3366
16.1976
11.9502
12.0756
11.2325
10.1532
5.23133
3.80906
6.10455
-2.22429
7.54682
5.24278
3.6445
9.79366
3.29168
5.97272
4.29605
6.18598
9.30042
3.71007
6.6147
8.71954
4.64381
6.12988
4.7256
6.02151
8.42025
4.27203
5.72814
4.22074
5.60196
7.92307
3.07478
5.43702
7.3675
3.46411
4.73474
3.40878
4.47628
7.13271
2.78921
4.17278
2.72534
4.00604
6.87619
1.38543
4.00182
6.43636
1.89523
3.37383
1.92408
3.15848
6.35597
1.33411
2.99327
1.39869
2.89001
6.09104
0.108634
3.04799
5.58133
0.888411
2.51917
1.05242
2.40757
5.4025
0.661746
2.34984
0.859068
2.32393
4.93883
-0.0409012
2.46891
4.30829
0.705866
2.01353
0.889131
1.93637
3.83207
0.606567
1.76549
0.739046
1.68709
3.03115
0.0648138
1.49201
2.2039
0.18123
0.829287
0.0525149
0.496514
1.78486
0.000293182
0.000531408
0.00089155
0.00116851
0.0014967
0.00180651
0.00214044
0.00247589
0.00282689
0.00318629
0.00355912
0.00394343
0.00434137
0.00475285
0.00517922
0.00562112
0.00607972
0.00655601
0.00705119
0.00756636
0.00810264
0.00866098
0.00924209
0.0098462
0.0104729
0.0111207
0.0117868
0.0124665
0.0131531
0.013837
0.014506
0.0151453
0.0157383
0.0162682
0.0167202
0.0170844
0.0173589
0.0175515
0.0176811
0.0177754
0.0178679
0.0179916
0.0181734
0.0184311
0.0187786
0.0192387
0.0198554
0.0206854
0.0217502
0.0229697
0.0241178
0.024847
0.024825
0.0236852
0.0210698
0.0166765
0.0101607
0.00127625
-0.0102845
-0.0243786
-0.039992
-0.0580201
-0.0697907
-0.069274
-0.22849
-0.354839
-0.460522
-0.56911
-0.644591
-0.668318
-0.617811
-0.557306
-0.407263
-0.355649
-0.157395
-0.21492
-0.042927
0.0344564
-0.608983
0.000852303
0.00153956
0.00256736
0.0033795
0.00431773
0.00520969
0.00616067
0.00711612
0.00811035
0.00912672
0.0101774
0.0112583
0.0123747
0.0135267
0.0147178
0.0159499
0.0172261
0.0185489
0.0199215
0.0213468
0.0228276
0.0243663
0.0259644
0.0276223
0.0293383
0.0311078
0.0329223
0.0347683
0.0366259
0.0384679
0.0402593
0.0419583
0.0435183
0.0448926
0.0460412
0.0469388
0.0475835
0.0480026
0.0482549
0.0484257
0.0486161
0.0489259
0.0494367
0.0502046
0.0512751
0.0527219
0.0546861
0.0573536
0.0608193
0.0648988
0.0690034
0.0722212
0.07372
0.0725835
0.0679243
0.0589833
0.0447865
0.0244738
-0.00331427
-0.0390753
-0.0816514
-0.135905
-0.177769
-0.201888
-0.454419
-0.689828
-0.893746
-1.09991
-1.24798
-1.29533
-1.22391
-1.10971
-0.86784
-0.705851
-0.40828
-0.306669
-0.0526802
0.126469
0.0962688
0.00133066
0.00248509
0.00423116
0.00560127
0.00718819
0.00869392
0.0103005
0.011914
0.0135936
0.0153106
0.0170862
0.0189131
0.0208005
0.0227486
0.0247635
0.0268482
0.029008
0.0312475
0.033572
0.0359866
0.038496
0.0411045
0.043815
0.0466279
0.0495408
0.0525462
0.0556301
0.0587699
0.0619322
0.0650716
0.0681292
0.0710345
0.0737088
0.0760729
0.0780582
0.0796211
0.0807564
0.0815087
0.0819746
0.0822964
0.0826424
0.083179
0.0840417
0.0853223
0.0870934
0.0894748
0.0927005
0.0970809
0.102772
0.109451
0.116104
0.121159
0.123173
0.120545
0.111724
0.0953637
0.0697762
0.0334764
-0.0157985
-0.0787198
-0.153361
-0.246881
-0.316659
-0.376112
-0.617207
-0.886062
-1.12833
-1.37677
-1.5554
-1.60803
-1.51979
-1.3767
-1.08439
-0.873086
-0.51893
-0.357173
-0.0376153
0.127463
0.400199
0.00179167
0.00340997
0.00584929
0.00777332
0.00999306
0.0121016
0.0143475
0.0166031
0.0189494
0.0213475
0.0238264
0.0263762
0.0290099
0.0317278
0.0345381
0.0374454
0.0404569
0.0435791
0.0468193
0.0501845
0.0536816
0.0573163
0.0610926
0.0650114
0.0690692
0.0732556
0.0775511
0.0819243
0.0863288
0.0907011
0.0949593
0.0990047
0.102727
0.106016
0.108775
0.110943
0.112513
0.113547
0.114181
0.114614
0.115085
0.115826
0.117027
0.118816
0.121292
0.124621
0.129133
0.135278
0.143289
0.152732
0.162184
0.169445
0.172512
0.169143
0.15718
0.134724
0.0993754
0.0489454
-0.0199376
-0.108469
-0.214926
-0.349198
-0.451494
-0.56099
-0.819406
-1.14051
-1.43108
-1.73197
-1.95048
-2.01051
-1.89745
-1.71637
-1.35214
-1.08549
-0.646777
-0.440811
-0.0320803
0.146909
0.468499
0.00221059
0.00430225
0.00743749
0.00992314
0.0127822
0.0155007
0.0183927
0.0212976
0.0243176
0.0274042
0.0305937
0.0338744
0.0372623
0.0407583
0.0443729
0.0481119
0.0519848
0.0559998
0.0601665
0.0644939
0.0689908
0.0736647
0.0785208
0.0835606
0.0887795
0.0941646
0.0996909
0.105318
0.110988
0.116618
0.122103
0.127316
0.132115
0.136357
0.139918
0.142715
0.14474
0.146072
0.146885
0.147438
0.148037
0.148984
0.150524
0.152818
0.155986
0.160239
0.166007
0.173885
0.184201
0.19641
0.208666
0.21811
0.222162
0.2179
0.202541
0.173598
0.127923
0.062571
-0.0270052
-0.142551
-0.282966
-0.460155
-0.598461
-0.771192
-1.04698
-1.42928
-1.76906
-2.12424
-2.38615
-2.45367
-2.31479
-2.09143
-1.65087
-1.31852
-0.792968
-0.524242
-0.0284756
0.162425
0.698337
0.00260506
0.00517491
0.00899301
0.0120422
0.0155359
0.0188631
0.0223973
0.0259482
0.0296373
0.0334074
0.0373021
0.0413075
0.045443
0.0497099
0.054121
0.0586835
0.0634088
0.0683072
0.0733902
0.0786689
0.0841541
0.0898551
0.0957784
0.101926
0.108292
0.114861
0.121604
0.128472
0.135392
0.142266
0.148964
0.155333
0.161197
0.16638
0.170728
0.174142
0.176607
0.17822
0.179195
0.179849
0.18056
0.181702
0.183572
0.186364
0.190218
0.195383
0.202394
0.212008
0.224672
0.239742
0.254946
0.266751
0.272013
0.267128
0.248701
0.213655
0.158081
0.0782145
-0.0318031
-0.174449
-0.349987
-0.571898
-0.751399
-1.00192
-1.28843
-1.73284
-2.1127
-2.51431
-2.81406
-2.88428
-2.71788
-2.45112
-1.93584
-1.53819
-0.930381
-0.598655
-0.0214281
0.190085
0.834077
0.00297197
0.00602849
0.0105206
0.0141374
0.0182649
0.0222031
0.0263797
0.0305775
0.0349359
0.0393898
0.0439894
0.0487193
0.0536019
0.0586392
0.063846
0.069231
0.0748078
0.0805883
0.0865864
0.0928151
0.0992873
0.106014
0.113003
0.120257
0.12777
0.135524
0.143484
0.151593
0.159767
0.167889
0.175807
0.183338
0.190274
0.196405
0.201548
0.205581
0.208486
0.210376
0.211505
0.212251
0.213064
0.214391
0.216585
0.219868
0.224395
0.230449
0.238673
0.250007
0.265041
0.28305
0.301315
0.315604
0.322213
0.316823
0.29544
0.254381
0.188956
0.0945211
-0.0362013
-0.206562
-0.418833
-0.687359
-0.91381
-1.25542
-1.54577
-2.06105
-2.47846
-2.9225
-3.25614
-3.32417
-3.12667
-2.81316
-2.22007
-1.75567
-1.06441
-0.671042
-0.0142442
0.208997
0.955577
0.00331715
0.00686786
0.0120216
0.0162088
0.0209666
0.025516
0.0303329
0.0351764
0.0402017
0.0453373
0.050639
0.0560903
0.0617166
0.0675204
0.0735189
0.079722
0.0861454
0.092803
0.0997107
0.106884
0.114337
0.122083
0.130132
0.138486
0.147139
0.156071
0.165243
0.174589
0.184012
0.19338
0.202516
0.211208
0.219217
0.226297
0.232232
0.236881
0.240218
0.242372
0.24364
0.244459
0.245358
0.246856
0.249365
0.253132
0.258317
0.265236
0.274643
0.287684
0.305124
0.32618
0.347665
0.364618
0.372782
0.367103
0.343001
0.296183
0.221169
0.112373
-0.0390195
-0.237426
-0.48782
-0.804756
-1.08467
-1.52766
-1.81623
-2.41597
-2.872
-3.35718
-3.72147
-3.78138
-3.54865
-3.18407
-2.50923
-1.97475
-1.19858
-0.740966
-0.00694018
0.221241
1.10036
0.00364181
0.00769525
0.0134985
0.018259
0.0236442
0.0288055
0.0342612
0.0397498
0.0454405
0.0512563
0.0572581
0.0634288
0.0697963
0.0763641
0.0831512
0.0901693
0.097436
0.104967
0.112781
0.120894
0.129324
0.138085
0.147189
0.156639
0.166428
0.176535
0.186916
0.197497
0.20817
0.218785
0.229142
0.239001
0.248088
0.256121
0.262852
0.268115
0.271878
0.274287
0.275677
0.276552
0.277518
0.279174
0.281987
0.286229
0.292057
0.29981
0.31036
0.325084
0.344967
0.369187
0.394063
0.413867
0.423799
0.418034
0.39143
0.339075
0.254694
0.131699
-0.0403714
-0.267207
-0.55714
-0.924241
-1.2644
-1.8135
-2.09435
-2.79512
-3.29249
-3.81906
-4.21047
-4.25424
-3.98111
-3.56066
-2.80026
-2.19253
-1.33089
-0.806005
0.00124691
0.262778
1.19062
0.00394878
0.00851327
0.0149533
0.0202895
0.026298
0.0320714
0.0381638
0.0442963
0.0506503
0.0571441
0.0638435
0.0707307
0.0778364
0.0851647
0.0927368
0.100566
0.108672
0.117071
0.125786
0.134834
0.144235
0.154007
0.16416
0.1747
0.185621
0.196898
0.208484
0.220298
0.23222
0.244083
0.255664
0.266693
0.276863
0.285853
0.293382
0.299258
0.30344
0.306089
0.307582
0.30849
0.309502
0.311297
0.314404
0.319111
0.325565
0.334117
0.345762
0.362143
0.38451
0.412031
0.440493
0.463367
0.475311
0.469698
0.44085
0.383231
0.289777
0.152838
-0.0397987
-0.295337
-0.62608
-1.04498
-1.45216
-2.10601
-2.37672
-3.19884
-3.74136
-4.31238
-4.72822
-4.74608
-4.42578
-3.94365
-3.09311
-2.40871
-1.46077
-0.865717
0.0101712
0.29126
1.27806
0.00423979
0.00932381
0.0163879
0.0223022
0.0289298
0.0353154
0.042042
0.0488173
0.0558322
0.0630021
0.0703964
0.0779975
0.0858382
0.0939238
0.102277
0.110913
0.119854
0.129118
0.138729
0.148707
0.159075
0.169851
0.181048
0.192674
0.204721
0.217165
0.229953
0.242998
0.256169
0.269282
0.282091
0.294297
0.305556
0.31551
0.32384
0.330327
0.33492
0.337794
0.33937
0.340286
0.341318
0.343235
0.346623
0.351786
0.358847
0.368157
0.38084
0.398841
0.423732
0.454707
0.486975
0.513158
0.527377
0.522166
0.491346
0.428753
0.326543
0.175955
-0.0370723
-0.321524
-0.694188
-1.16636
-1.64705
-2.40062
-2.66857
-3.63392
-4.22022
-4.8416
-5.28088
-5.26178
-4.88581
-4.33485
-3.38874
-2.62369
-1.58833
-0.91984
0.0207391
0.30793
1.40575
0.00451666
0.0101286
0.017804
0.0242983
0.0315405
0.038538
0.0458963
0.0533128
0.0609862
0.0688297
0.0769161
0.0852281
0.0938004
0.10264
0.111771
0.12121
0.130981
0.141105
0.151606
0.16251
0.173838
0.185613
0.197849
0.210555
0.223724
0.237329
0.251316
0.265591
0.280012
0.294377
0.308419
0.321808
0.334164
0.345089
0.354224
0.361321
0.366316
0.369399
0.371033
0.371929
0.372954
0.37497
0.378627
0.384236
0.391883
0.401906
0.415559
0.435132
0.462592
0.497192
0.533507
0.563263
0.580046
0.57551
0.543013
0.475764
0.365165
0.20129
-0.031847
-0.345301
-0.760727
-1.28733
-1.84756
-2.69694
-2.98345
-4.11179
-4.73056
-5.41004
-5.8739
-5.8058
-5.36396
-4.73536
-3.68743
-2.83725
-1.71328
-0.966917
0.0333539
0.370319
1.49837
0.0047809
0.010929
0.0192034
0.0262793
0.0341314
0.0417403
0.0497274
0.0577835
0.0661127
0.0746274
0.0834028
0.0924225
0.101723
0.111312
0.121216
0.131454
0.142051
0.153029
0.164417
0.17624
0.188524
0.201291
0.214561
0.228341
0.242627
0.25739
0.272573
0.288076
0.303747
0.319368
0.33465
0.34923
0.362692
0.374596
0.384542
0.392247
0.397636
0.400909
0.402574
0.403418
0.404405
0.406497
0.410409
0.416456
0.424668
0.435351
0.449894
0.47098
0.501051
0.539468
0.580095
0.613712
0.633371
0.629797
0.595936
0.524372
0.405786
0.229052
-0.0238067
-0.366206
-0.824856
-1.40655
-2.0513
-2.99333
-3.33449
-4.63225
-5.27382
-6.02064
-6.51286
-6.383
-5.86359
-5.14656
-3.98945
-3.04921
-1.835
-1.00687
0.0478401
0.399991
1.57916
0.00503385
0.0117261
0.0205873
0.0282466
0.0367035
0.0449231
0.0535359
0.0622296
0.0712118
0.0803949
0.0898562
0.0995802
0.109605
0.11994
0.130614
0.141645
0.153063
0.164891
0.17716
0.189896
0.203129
0.216884
0.231181
0.24603
0.261427
0.277344
0.29372
0.310451
0.327373
0.344254
0.360781
0.376563
0.391141
0.404034
0.414796
0.423109
0.428881
0.432324
0.433991
0.434747
0.435662
0.437803
0.441957
0.448434
0.45719
0.468474
0.483814
0.506338
0.53906
0.581507
0.626736
0.66453
0.687396
0.68509
0.650196
0.574682
0.448554
0.259462
-0.0125976
-0.383676
-0.885498
-1.52217
-2.25415
-3.28298
-3.72378
-5.18035
-5.85084
-6.67632
-7.20344
-6.99857
-6.38882
-5.57038
-4.2953
-3.25941
-1.95216
-1.03958
0.0651131
0.459625
1.70106
0.00527669
0.012521
0.0219573
0.0302011
0.0392578
0.0480871
0.0573223
0.0666516
0.0762836
0.0861323
0.096276
0.106701
0.117446
0.128523
0.139961
0.151782
0.164016
0.176688
0.189832
0.203476
0.217652
0.232388
0.247706
0.263619
0.280122
0.297188
0.314755
0.332712
0.350887
0.369033
0.386814
0.403807
0.419514
0.433406
0.444991
0.453912
0.460057
0.463649
0.465285
0.465914
0.466718
0.46888
0.473262
0.480163
0.489442
0.501261
0.517288
0.541157
0.576569
0.623282
0.673428
0.715739
0.742168
0.741449
0.705868
0.626788
0.493603
0.292732
0.00214522
-0.397076
-0.941371
-1.63201
-2.45101
-3.55685
-4.13955
-5.73327
-6.46037
-7.37995
-7.95132
-7.65777
-6.94416
-6.00918
-4.60559
-3.46853
-2.06328
-1.06612
0.0874679
0.509449
1.75
0.00551045
0.0133145
0.0233146
0.0321439
0.0417952
0.051233
0.0610873
0.0710497
0.0813282
0.0918394
0.102662
0.113784
0.125246
0.13706
0.149259
0.161864
0.174908
0.188419
0.202432
0.216978
0.232091
0.247802
0.264135
0.281104
0.298708
0.316919
0.335674
0.354856
0.374287
0.393703
0.412747
0.430962
0.447812
0.462716
0.475133
0.484662
0.491169
0.494884
0.496454
0.496913
0.497563
0.499715
0.504312
0.511634
0.521416
0.533698
0.550285
0.575381
0.61352
0.664758
0.720161
0.76736
0.797727
0.79893
0.763022
0.680774
0.541052
0.329063
0.0207997
-0.405686
-0.991015
-1.73415
-2.64016
-3.80644
-4.56944
-6.26254
-7.09844
-8.13438
-8.76232
-8.36588
-7.53436
-6.46577
-4.92106
-3.67744
-2.16746
-1.08799
0.119715
0.548924
1.8835
0.00573603
0.0141073
0.0246603
0.0340761
0.0443165
0.0543615
0.0648311
0.0754242
0.0863458
0.0975162
0.109014
0.120829
0.133003
0.145551
0.158504
0.171889
0.185738
0.200083
0.214958
0.2304
0.246444
0.263122
0.280463
0.298484
0.317183
0.336534
0.356473
0.376882
0.39757
0.418262
0.438578
0.458029
0.476036
0.491967
0.505225
0.515363
0.522221
0.526034
0.527498
0.527739
0.528188
0.530296
0.535096
0.54284
0.553106
0.565772
0.582769
0.608952
0.649845
0.7059
0.766926
0.819414
0.854113
0.857584
0.821715
0.736704
0.590987
0.368617
0.043717
-0.408764
-1.03292
-1.82666
-2.81908
-4.02742
-5.01518
-6.74847
-7.76359
-8.94279
-9.64261
-9.12814
-8.16441
-6.94329
-5.24271
-3.88618
-2.26426
-1.1036
0.162265
0.639443
2.01299
0.00595419
0.0149
0.0259954
0.0359983
0.0468227
0.0574731
0.0685543
0.0797753
0.0913364
0.103163
0.115331
0.127836
0.140717
0.153993
0.167697
0.181856
0.196505
0.211676
0.227409
0.24374
0.260707
0.278347
0.296689
0.315754
0.335543
0.35603
0.377151
0.398784
0.420733
0.442707
0.464306
0.485008
0.504188
0.521162
0.535272
0.546022
0.553217
0.557102
0.558418
0.558388
0.558584
0.560611
0.565602
0.573774
0.584508
0.59747
0.614707
0.641804
0.685473
0.746665
0.813708
0.871919
0.911364
0.917457
0.881992
0.794605
0.643429
0.411467
0.0711475
-0.40566
-1.06575
-1.90783
-2.98231
-4.22783
-5.50298
-7.18308
-8.45852
-9.80799
-10.5987
-9.94974
-8.83939
-7.445
-5.57185
-4.09474
-2.35323
-1.11191
0.213925
0.713763
2.06177
0.00616562
0.0156931
0.0273209
0.0379115
0.0493143
0.0605684
0.0722572
0.0841032
0.0962999
0.108778
0.121614
0.134803
0.148388
0.162388
0.176837
0.191764
0.207206
0.223199
0.239782
0.256995
0.274879
0.293473
0.31281
0.332912
0.353784
0.375403
0.397702
0.42056
0.443772
0.467036
0.489929
0.511898
0.53227
0.550304
0.56528
0.576642
0.584164
0.58809
0.589212
0.588854
0.58874
0.590646
0.595818
0.604429
0.615622
0.628785
0.646062
0.673862
0.720319
0.787007
0.860489
0.924893
0.969513
0.978586
0.94386
0.854426
0.698268
0.457504
0.10311
-0.39601
-1.08866
-1.97649
-3.12651
-4.42118
-6.0266
-7.5237
-9.16819
-10.7335
-11.6382
-10.8359
-9.56439
-7.97423
-5.91005
-4.3032
-2.43379
-1.11241
0.276655
0.776671
2.20269
0.00637087
0.016487
0.0286376
0.0398162
0.0517921
0.0636477
0.07594
0.088408
0.101236
0.114363
0.127861
0.141731
0.156014
0.170733
0.185921
0.201612
0.217841
0.234649
0.252075
0.270164
0.288958
0.308498
0.328822
0.349955
0.371904
0.394648
0.418124
0.442205
0.466684
0.491246
0.515446
0.538698
0.560283
0.579396
0.595252
0.607231
0.615067
0.619003
0.61988
0.619131
0.618644
0.620386
0.625731
0.634799
0.646446
0.659709
0.676797
0.705047
0.754293
0.826875
0.907249
0.978354
1.02859
1.04098
1.00725
0.915968
0.755156
0.506298
0.139221
-0.379958
-1.10154
-2.03229
-3.25133
-4.61437
-6.47423
-7.78435
-9.90725
-11.7255
-12.7689
-11.7919
-10.3444
-8.53425
-6.25896
-4.51172
-2.50532
-1.10362
0.352115
0.908928
2.36101
0.00657044
0.0172822
0.0299463
0.0417131
0.0542565
0.0667116
0.0796032
0.0926897
0.106146
0.119916
0.134073
0.148619
0.163596
0.179027
0.19495
0.211397
0.228408
0.246024
0.264287
0.283244
0.302939
0.323419
0.344723
0.366879
0.389899
0.413764
0.438411
0.463716
0.489465
0.515333
0.540853
0.565407
0.588226
0.608442
0.625194
0.637795
0.645932
0.649844
0.650424
0.649214
0.648283
0.649813
0.655325
0.664879
0.676986
0.690238
0.706875
0.735268
0.787291
0.866213
0.953962
1.03232
1.0886
1.10458
1.07195
0.978766
0.813371
0.556946
0.178541
-0.358306
-1.1052
-2.07595
-3.35881
-4.80643
-6.80171
-8.0399
-10.6663
-12.7815
-13.9997
-12.8231
-11.1843
-9.12825
-6.62019
-4.72061
-2.56721
-1.08474
0.438496
1.00301
2.40776
0.00676472
0.018079
0.0312477
0.0436027
0.0567083
0.0697603
0.0832468
0.0969483
0.111028
0.125438
0.140249
0.155465
0.17113
0.18727
0.203921
0.221119
0.238906
0.257322
0.276415
0.296232
0.316822
0.338233
0.360508
0.38368
0.407764
0.432744
0.458561
0.485088
0.512111
0.539293
0.566149
0.592025
0.616102
0.637445
0.655112
0.66834
0.676765
0.680619
0.680841
0.679095
0.677644
0.678911
0.684587
0.694666
0.707249
0.720374
0.736258
0.764427
0.819196
0.90496
1.0006
1.08679
1.1495
1.16919
1.13745
1.04194
0.871655
0.607944
0.219514
-0.332533
-1.10125
-2.1093
-3.45287
-4.99849
-7.07689
-8.37984
-11.39
-13.9124
-15.3398
-13.9347
-12.0886
-9.75925
-6.99524
-4.93041
-2.61879
-1.05478
0.538865
1.13976
2.59612
0.00695406
0.0188777
0.0325423
0.0454854
0.0591477
0.0727942
0.086871
0.101184
0.115882
0.130928
0.146387
0.16227
0.178618
0.19546
0.212834
0.230777
0.249332
0.268542
0.288458
0.309127
0.330604
0.352938
0.376176
0.400356
0.425496
0.451585
0.478567
0.506317
0.534617
0.563122
0.591328
0.618548
0.64391
0.666406
0.685009
0.698873
0.707573
0.711331
0.711134
0.708769
0.706712
0.707658
0.7135
0.724157
0.737246
0.750122
0.764907
0.792411
0.849882
0.943052
1.04713
1.14174
1.21113
1.23435
1.20285
1.10405
0.928119
0.657214
0.26009
-0.304614
-1.0919
-2.135
-3.53851
-5.19388
-7.34543
-8.87571
-12.1249
-15.1562
-16.7995
-15.1313
-13.0615
-10.4299
-7.38542
-5.14169
-2.65935
-1.01249
0.652871
1.26814
2.65224
0.00713869
0.0196786
0.0338307
0.0473617
0.0615752
0.0758133
0.090476
0.105396
0.120708
0.136386
0.152489
0.169032
0.186058
0.203596
0.221687
0.240368
0.259684
0.279682
0.300412
0.321927
0.344281
0.367529
0.391723
0.416902
0.443091
0.470283
0.498426
0.527397
0.556978
0.586816
0.616388
0.644975
0.67165
0.695329
0.714892
0.729401
0.738364
0.741986
0.741302
0.738228
0.735471
0.736032
0.742044
0.753349
0.766992
0.779494
0.792784
0.819099
0.879204
0.980417
1.09349
1.19706
1.27309
1.29916
1.26658
1.16295
0.980302
0.702316
0.298017
-0.276699
-1.07955
-2.15607
-3.62083
-5.39617
-7.65069
-9.60412
-12.8902
-16.5404
-18.3895
-16.4167
-14.1068
-11.1424
-7.7919
-5.35476
-2.68828
-0.956829
0.782143
1.39399
2.81563
0.00731884
0.0204818
0.0351133
0.049232
0.0639912
0.0788179
0.0940617
0.109585
0.125507
0.141811
0.158552
0.175751
0.193449
0.211678
0.230478
0.249891
0.269962
0.29074
0.312276
0.334627
0.357851
0.382005
0.407144
0.433315
0.460544
0.488833
0.518132
0.548324
0.579189
0.610369
0.641325
0.671303
0.699322
0.724216
0.744766
0.759931
0.769146
0.772591
0.771347
0.767464
0.763902
0.764009
0.7702
0.782241
0.796511
0.808511
0.819853
0.844354
0.907005
1.01697
1.13957
1.25244
1.33456
1.36209
1.32638
1.21589
1.02548
0.740859
0.331232
-0.250709
-1.06635
-2.17531
-3.7044
-5.60965
-8.02049
-10.5397
-13.6524
-18.074
-20.1194
-17.7934
-15.2276
-11.8982
-8.21571
-5.56956
-2.70503
-0.886271
0.928752
1.58876
3.02287
0.00749465
0.0212878
0.0363905
0.0510964
0.0663958
0.0818081
0.0976281
0.113751
0.130277
0.147202
0.164577
0.182426
0.20079
0.219703
0.239207
0.259345
0.280163
0.301713
0.324048
0.347227
0.371311
0.396362
0.422438
0.44959
0.477852
0.50723
0.53768
0.569091
0.601244
0.633776
0.666133
0.69753
0.726925
0.75307
0.774636
0.790471
0.799926
0.803152
0.801271
0.796471
0.791987
0.791561
0.797943
0.810833
0.825831
0.837201
0.846079
0.868023
0.933103
1.05258
1.1851
1.30721
1.3941
1.42079
1.37925
1.25992
1.06118
0.770943
0.358249
-0.227964
-1.05379
-2.1948
-3.79273
-5.83879
-8.46071
-11.5432
-14.4463
-19.8235
-22.0029
-19.263
-16.4263
-12.6981
-8.65769
-5.78574
-2.70908
-0.799672
1.0911
1.76225
3.11167
0.0076662
0.0220966
0.0376626
0.0529552
0.0687893
0.0847839
0.101175
0.117893
0.135018
0.152559
0.170562
0.189056
0.20808
0.227671
0.247872
0.268728
0.290286
0.312599
0.335725
0.359723
0.384658
0.410596
0.437599
0.465723
0.495009
0.525468
0.557065
0.589693
0.623136
0.65703
0.690808
0.72365
0.754458
0.781893
0.804508
0.82103
0.830714
0.833675
0.831074
0.825239
0.819704
0.818657
0.825249
0.839125
0.854986
0.865606
0.87143
0.889935
0.957287
1.08706
1.22955
1.36012
1.44942
1.47206
1.4219
1.29244
1.08569
0.791521
0.378442
-0.208916
-1.04244
-2.21551
-3.8877
-6.08674
-8.96858
-12.5556
-15.3795
-21.8735
-24.0653
-20.827
-17.7041
-13.5419
-9.1183
-6.00273
-2.69983
-0.696114
1.27161
1.9305
3.32177
0.00783354
0.0229085
0.03893
0.0548087
0.0711719
0.0877453
0.104703
0.12201
0.139729
0.157882
0.176507
0.195639
0.215317
0.23558
0.256472
0.278037
0.300328
0.323397
0.347304
0.372113
0.39789
0.424704
0.452624
0.481711
0.512011
0.543544
0.576281
0.610122
0.644859
0.680126
0.715343
0.74966
0.781919
0.810686
0.834388
0.851616
0.86152
0.86417
0.860761
0.853761
0.847028
0.84526
0.852085
0.867119
0.884022
0.893781
0.89588
0.909894
0.979284
1.11998
1.27189
1.40913
1.49725
1.51219
1.45149
1.31193
1.09841
0.802584
0.392175
-0.193065
-1.03191
-2.23729
-3.98931
-6.35432
-9.54241
-13.6145
-16.5957
-24.2418
-26.3453
-22.4861
-19.0605
-14.4279
-9.59738
-6.21988
-2.67639
-0.573943
1.47327
2.17902
3.58271
0.00799666
0.0237237
0.0401929
0.056657
0.0735436
0.0906923
0.10821
0.126103
0.144411
0.163169
0.182411
0.202176
0.222501
0.243429
0.265003
0.287272
0.310287
0.334104
0.358784
0.384393
0.411002
0.438683
0.46751
0.497549
0.528853
0.56145
0.595321
0.630374
0.666406
0.703055
0.739731
0.775554
0.809306
0.839451
0.864281
0.882238
0.892353
0.894646
0.890333
0.882028
0.873936
0.871331
0.878418
0.894817
0.912993
0.921801
0.919407
0.927665
0.998701
1.15062
1.31049
1.45121
1.53346
1.53782
1.46645
1.31817
1.09987
0.805149
0.40073
-0.17909
-1.02097
-2.25888
-4.09581
-6.63975
-10.1797
-14.7409
-18.1704
-26.9557
-28.8841
-24.2419
-20.4925
-15.3532
-10.0941
-6.43653
-2.63759
-0.431828
1.69278
2.39356
3.69443
0.00815552
0.0245424
0.0414513
0.0585
0.0759044
0.0936246
0.111698
0.130172
0.149062
0.16842
0.188272
0.208664
0.22963
0.251216
0.273466
0.296431
0.320162
0.344717
0.370161
0.396561
0.423992
0.452529
0.482251
0.513231
0.54553
0.579182
0.614179
0.650439
0.687769
0.72581
0.763965
0.801327
0.836616
0.86819
0.894193
0.912906
0.923226
0.925112
0.919796
0.910032
0.900398
0.896825
0.904207
0.922219
0.941965
0.949762
0.94199
0.942948
1.01493
1.1778
1.34288
1.48213
1.55393
1.54706
1.46692
1.3123
1.09163
0.80105
0.406031
-0.165145
-1.00785
-2.2782
-4.20401
-6.93923
-10.8754
-15.942
-20.1349
-30.0252
-31.7209
-26.0987
-21.9963
-16.3132
-10.6067
-6.65194
-2.58194
-0.268569
1.93431
2.65463
3.98601
0.00831003
0.0253646
0.0427055
0.060338
0.0782544
0.096542
0.115166
0.134214
0.153682
0.173635
0.194091
0.215102
0.236703
0.25894
0.281859
0.305511
0.329949
0.355235
0.381433
0.408615
0.436856
0.466239
0.496845
0.528755
0.562036
0.596733
0.632848
0.670311
0.70894
0.748382
0.788037
0.826972
0.863845
0.896903
0.924131
0.943629
0.954151
0.95558
0.949155
0.937763
0.926383
0.92169
0.929405
0.94933
0.971018
0.977783
0.9636
0.955315
1.02705
1.19992
1.36536
1.49699
1.55597
1.54014
1.45453
1.29641
1.07593
0.792573
0.410256
-0.149228
-0.990506
-2.2926
-4.30961
-7.24736
-11.6214
-17.2135
-22.4964
-33.4461
-34.8992
-28.0634
-23.5678
-17.3021
-11.1325
-6.86512
-2.50755
-0.0822186
2.19728
2.9097
4.1615
0.00846006
0.0261907
0.0439554
0.0621708
0.0805934
0.0994444
0.118613
0.138231
0.158271
0.178811
0.199865
0.22149
0.243718
0.266599
0.290179
0.31451
0.339648
0.365655
0.392598
0.42055
0.449592
0.479809
0.511287
0.544114
0.578366
0.614097
0.651321
0.689982
0.72991
0.770762
0.811938
0.852481
0.890989
0.92559
0.954099
0.974418
0.985139
0.986062
0.978417
0.965214
0.951858
0.945868
0.953957
0.976149
1.00025
1.00601
0.984161
0.964123
1.03405
1.21473
1.37283
1.49187
1.53954
1.51919
1.43194
1.27316
1.05525
0.782035
0.415446
-0.12946
-0.966837
-2.29896
-4.40744
-7.55723
-12.4042
-18.5407
-25.2563
-37.2045
-38.4676
-30.1438
-25.2036
-18.3123
-11.6677
-7.07466
-2.4121
0.129181
2.48318
3.17014
4.44217
0.00860544
0.0270208
0.0452012
0.0639985
0.0829213
0.102331
0.122039
0.142221
0.162826
0.183948
0.205594
0.227825
0.250674
0.274191
0.298424
0.323427
0.349256
0.375974
0.403652
0.432364
0.462195
0.493234
0.525573
0.559304
0.594514
0.631268
0.669592
0.709444
0.75067
0.79294
0.835658
0.877847
0.918042
0.954252
0.984103
1.00528
1.01621
1.01657
1.00759
0.992376
0.976786
0.969293
0.977798
1.00268
1.02975
1.03458
1.00343
0.968631
1.03511
1.21844
1.35978
1.46577
1.50708
1.48743
1.40226
1.24532
1.03189
0.771419
0.423283
-0.104171
-0.934661
-2.29375
-4.49152
-7.86017
-13.2036
-19.902
-28.418
-41.2615
-42.4729
-32.3471
-26.9018
-19.3354
-12.2074
-7.2785
-2.2925
0.368212
2.79457
3.50067
4.75548
0.00874597
0.027855
0.0464428
0.0658209
0.0852379
0.105203
0.125443
0.146184
0.167348
0.189046
0.211277
0.234107
0.257569
0.281716
0.306594
0.332259
0.358769
0.38619
0.414592
0.444054
0.474663
0.506511
0.539697
0.57432
0.610476
0.648239
0.687651
0.728686
0.771209
0.814905
0.859185
0.903058
0.944999
0.982887
1.01415
1.03624
1.04736
1.04713
1.03668
1.01924
1.00113
0.991891
1.00085
1.02892
1.05964
1.06357
1.02082
0.968709
1.02911
1.20534
1.32307
1.4212
1.46246
1.44848
1.36853
1.21533
1.00768
0.762215
0.435075
-0.0717995
-0.891619
-2.27299
-4.55504
-8.14546
-13.9924
-21.2733
-31.9738
-45.5118
-46.9345
-34.6799
-28.6609
-20.3624
-12.7452
-7.47385
-2.14488
0.637637
3.1294
3.81321
4.97249
0.0088814
0.0286935
0.0476802
0.0676379
0.0875429
0.108058
0.128825
0.150118
0.171836
0.194102
0.216911
0.240335
0.264402
0.28917
0.314685
0.341004
0.368187
0.3963
0.425416
0.455617
0.486991
0.519636
0.553656
0.589157
0.626243
0.665003
0.705491
0.747701
0.791518
0.836646
0.882509
0.928104
0.971851
1.01149
1.04424
1.06729
1.07863
1.07774
1.06571
1.04581
1.02484
1.01358
1.02304
1.05484
1.08998
1.09267
1.03555
0.965333
1.01227
1.16987
1.26399
1.36287
1.40981
1.40573
1.33343
1.18509
0.983881
0.755463
0.451924
-0.0307052
-0.835083
-2.2323
-4.59066
-8.40054
-14.7377
-22.6279
-35.8898
-49.7596
-51.8197
-37.1471
-30.4795
-21.3849
-13.274
-7.65711
-1.96535
0.940105
3.49057
4.12621
5.31652
0.00901147
0.0295366
0.0489132
0.0694492
0.089836
0.110896
0.132184
0.154024
0.176288
0.199117
0.222497
0.246505
0.271171
0.296552
0.322695
0.34966
0.377506
0.406302
0.436121
0.467049
0.499176
0.532605
0.567444