/*--------------------------------*- C++ -*----------------------------------*\
| =========                 |                                                 |
| \\      /  F ield         | OpenFOAM: The Open Source CFD Toolbox           |
|  \\    /   O peration     | Version:  4.1                                   |
|   \\  /    A nd           | Web:      www.OpenFOAM.org                      |
|    \\/     M anipulation  |                                                 |
\*---------------------------------------------------------------------------*/
FoamFile
{
    version     2.0;
    format      ascii;
    class       surfaceScalarField;
    location    "10";
    object      phi;
}
// * * * * * * * * * * * * * * * * * * * * * * * * * * * * * * * * * * * * * //

dimensions      [0 3 -1 0 0 0 0];

internalField   nonuniform List<scalar> 
13220
(
-791.325
2091.22
-1230.53
1739.41
-1681.68
1751.05
-2007.14
1625.36
-2269.69
1562.75
-2451.56
1481.77
-2561.6
1409.94
-2599.49
1338.09
-2570.67
1271.08
-2474.34
1203.56
-2305.61
1131.47
-2053.94
1048.23
-1669.08
915.044
-1023.59
654.71
276.305
-156.297
2247.52
-366.001
1949.11
-594.446
1979.49
-759.174
1790.09
-911.209
1714.79
-1015.18
1585.74
-1088.64
1483.4
-1123.59
1373.04
-1120.85
1268.34
-1077.71
1160.42
-998.15
1051.91
-884.164
934.246
-715.78
746.659
-434.2
373.127
-157.894
-120.34
2367.86
-294.743
2123.51
-418.295
2103.04
-500.945
1872.74
-573.937
1787.78
-616.498
1628.3
-648.574
1515.47
-650.754
1375.22
-586.027
1203.61
-403.946
978.336
-120.145
768.108
167.605
646.487
354.373
559.883
340.922
386.564
183.028
-67.2162
2435.08
-170.651
2226.95
-253.34
2185.73
-339.469
1958.87
-431.892
1880.2
-523.133
1719.54
-627.774
1620.11
-725.57
1473.01
-782.547
1260.59
-722.132
917.921
-509.394
555.368
-194.672
331.768
96.7593
268.455
198.329
284.998
381.356
-11.8646
2446.94
-147.032
2362.11
-228.686
2267.38
-313.93
2044.11
-402.131
1968.4
-487.476
1804.88
-580.476
1713.11
-679.845
1572.38
-805.894
1386.64
-961.135
1073.16
-1096.48
690.716
-1110.93
346.214
-914.029
71.5561
-508.508
-120.523
-127.152
163.041
2283.9
65.8904
2459.27
57.7338
2275.54
69.9086
2031.94
97.3474
1940.97
131.572
1770.66
183.04
1661.65
234.459
1520.97
251.789
1369.31
169.665
1155.29
-18.4608
878.843
-230.026
557.791
-335.574
177.115
-315.687
-140.4
-442.839
256.099
2027.8
248.305
2467.06
291.239
2232.61
364.168
1959.01
460.771
1844.36
556.688
1674.74
670.895
1547.44
789.942
1401.92
897.994
1261.26
948.169
1105.12
900.735
926.277
736.781
721.748
444.163
469.738
127.97
175.798
-314.869
202.738
1825.07
236.161
2433.64
274.736
2194.04
330.401
1903.35
404.135
1770.63
472.105
1606.77
542.784
1476.76
609.605
1335.1
668.491
1202.37
702.462
1071.14
693.734
935.005
625.473
790.009
482.248
612.964
268.497
389.549
-46.3721
114.679
1710.39
167.415
2380.9
207.471
2153.98
255.093
1855.73
315.071
1710.65
366.557
1555.29
412.8
1430.52
448.497
1299.4
476.371
1174.5
494.582
1052.94
495.065
934.521
462.231
822.846
371.118
704.081
203.168
557.51
156.795
33.6473
1676.74
118.198
2296.35
191.198
2080.98
260.439
1786.49
335.279
1635.81
408.593
1481.98
480.813
1358.3
552.832
1227.39
621.865
1105.47
681.507
993.293
708.383
907.645
669.503
861.723
533.731
839.85
301.858
789.378
458.653
-81.5954
1758.34
3.79021
2210.97
105.139
1979.63
160.294
1731.33
221.928
1574.18
318.706
1385.2
453.643
1223.36
620.418
1060.61
794.337
931.548
931.838
855.791
974.985
864.498
886.506
950.204
659.438
1066.92
350.82
1098
809.474
-63.6238
1821.96
-148.966
2296.31
-194.308
2024.97
-251.458
1788.48
-303.083
1625.8
-308.74
1390.85
-251.892
1166.51
-147.812
956.529
-9.50116
793.236
141.773
704.514
271.365
734.905
334.222
887.343
290.628
1110.51
154.796
1233.83
964.27
283.491
1538.47
234.743
2345.06
-10.7707
2270.49
-253.196
2030.9
-461.934
1834.54
-666.797
1595.72
-858.428
1358.14
-1033.25
1131.35
-1169.33
929.312
-1218.7
753.888
-1129.63
645.831
-887.875
645.586
-537.286
759.921
-200.574
897.113
763.696
678.927
859.539
1034.26
1989.72
883.625
2421.12
523.547
2390.98
167.932
2190.15
-161.535
1925.18
-455.061
1651.67
-720.715
1397.01
-954.709
1163.31
-1145.91
945.085
-1251.51
751.434
-1203.51
597.589
-941.331
497.737
-489.375
445.155
274.321
581.374
1555.21
2279.39
2805.89
3116.7
3161.18
2966.16
2660.28
2256.21
1809.47
1354.44
936.723
568.266
275.289
6.32631e-06
-35.2314
35.2314
-35.2314
-35.2314
-35.2314
126.872
-162.103
126.872
126.872
126.872
261.082
-134.21
261.082
261.082
371.693
-110.611
371.693
371.693
371.693
466.891
-95.1981
466.891
466.891
545.821
-78.93
545.821
545.821
545.821
611.348
-65.5273
611.348
611.348
611.348
659.852
-48.5043
659.852
659.852
685.716
-25.8633
685.716
685.716
685.716
690.52
-4.8043
690.52
690.52
674.683
15.8367
674.683
674.683
674.683
646.614
28.0689
646.614
646.614
646.614
641.351
5.26391
641.351
641.351
701.957
-60.6063
701.957
701.957
701.957
646.677
55.2799
646.677
646.677
646.677
463.86
182.817
463.86
463.86
204.51
259.351
204.51
204.51
204.51
-99.5714
304.081
-99.5714
-99.5714
-916.225
816.654
-916.225
-916.225
-916.225
-2216.84
1300.62
-2216.84
-2216.84
-2216.84
-3935.45
1718.61
-3935.45
-3935.45
-6003.4
2067.95
-6003.4
-6003.4
-5898.35
-5798.42
-5698.14
-7881.54
2284.66
-7773.38
-7645.52
-7506.08
-7367.16
-7227.84
-7089.83
-6947.38
-6789.68
-9102.59
2471.04
-8934.62
-8767.6
-8601.16
-8415.33
-8227.55
-8038
-7846.46
-7651.22
-10179.2
2735.52
-9956.31
-9729.66
-9500.39
-9268.73
-9027.68
-8770.57
-8510.24
-8245.21
-7976.65
-10654.6
2936.15
-10364
-10070.9
-9777
-9482.57
-9187.31
-8873.37
-8548.15
-8221.9
-10534.8
2623.65
-10217.8
-9889.9
-9543.32
-9196.79
-8849.7
-8503.8
-8157.65
-7782.92
-9378.06
1951.23
-9027.79
-8683.36
-8343.06
-7987.45
-7628.44
-7275.32
-6924.97
-6579.2
-7255.97
1028.11
-6907.87
-6561.36
-6212.95
-5863.59
-5514.97
-5183.92
-4855.74
-4532.26
-4218.87
-4288.66
379.344
-4046.79
-3841.58
-3644.81
-3459.52
-3284.49
-3156.33
-3109.56
-3059.74
-2765.53
-235.597
-2718.28
-2669.69
-2669.69
-2522.18
-147.513
-2383.43
-138.746
-2383.43
-2272.93
-110.501
-2272.93
-2188.52
-84.4131
-2117.18
-71.3423
-2117.18
-2065.49
-51.6813
-2023.16
-42.3384
-2023.16
-1993.72
-29.437
-1993.72
-1979.68
-14.0347
-1967.18
-12.501
-1967.18
-1963
-4.18541
-1963
-1971.62
8.62528
-1973.71
2.09035
-1973.71
-1989.76
16.0473
-1999.17
9.40662
-1999.17
-2018.5
19.3331
-2018.5
-2050.76
32.255
-2071.06
20.3089
-2071.06
-2098.2
27.1318
-2098.2
-2133.56
35.3645
-2149.98
16.4148
-2149.98
-2176.77
26.7929
-2186.51
9.74622
-2186.51
-2199.88
13.3669
-2199.88
-2218.8
18.9159
-2219.89
1.08984
-2219.89
-2222.55
2.66419
-2222.55
-2227.9
5.34552
-2213.04
-14.8552
-2213.04
-2201.99
-11.0479
-2174.77
-27.2282
-2174.77
-2145.35
-29.4129
-2145.35
-2115.37
-29.9872
-2071.84
-43.5263
-2071.84
-2024.94
-46.8972
-2024.94
-1977.6
-47.342
-1918.59
-59.0145
-1918.59
-1858.16
-60.4228
-1790.18
-67.9797
-1790.18
-1717.84
-72.3432
-1717.84
-1643.07
-74.7742
-1563.29
-79.7749
-1563.29
-1477.85
-85.4431
-1477.85
-1389.23
-88.6169
-1297.52
-91.7112
-1297.52
-1197.95
-99.5649
-1099.03
-98.9273
-1099.03
-993.379
-105.648
-993.379
-111.459
-25.561
-121.206
-25.4768
-153.569
-25.607
-174.483
-25.7853
-194.833
-26.0696
-214.784
-26.4192
-233.751
-26.8501
-252.462
-27.3502
-270.711
-27.9241
-288.777
-28.5675
-306.645
-29.2815
-324.44
-30.0646
-342.196
-30.9167
-359.986
-31.8373
-377.853
-32.8266
-395.848
-33.8844
-414.013
-35.011
-432.391
-36.2069
-451.02
-37.4728
-469.936
-38.8093
-489.175
-40.2173
-508.771
-41.698
-528.754
-43.2522
-549.155
-44.8811
-570
-46.5855
-591.312
-48.366
-613.109
-50.2229
-635.403
-52.1558
-658.196
-54.1636
-681.48
-56.244
-705.234
-58.3935
-729.42
-60.6075
-753.981
-62.8794
-778.843
-65.2015
-803.915
-67.5645
-829.09
-69.9584
-854.257
-72.3725
-879.31
-74.796
-904.159
-77.2187
-928.742
-79.6312
-953.037
-82.0244
-977.069
-84.3898
-1000.9
-86.7182
-1024.64
-88.9992
-1048.4
-91.221
-1072.32
-93.3702
-1096.52
-95.4309
-1121.2
-97.3812
-1146.55
-99.1852
-1172.82
-100.781
-1200.12
-102.068
-1228.31
-102.897
-1256.77
-103.066
-1284.44
-102.315
-1309.77
-100.32
-1330.7
-96.6968
-1344.63
-91.0068
-1348.29
-82.7704
-1337.42
-71.5056
-1306.35
-56.8096
-1247.51
-38.5374
-1149.66
-16.8416
-995.328
7.11289
-760.843
34.1695
-349.324
49.1077
403.347
53.3357
827.693
56.0767
1218.54
58.3418
1575.38
59.568
1897.31
60.059
2183.63
57.9281
2384.35
55.5286
2574.58
49.3238
2646.16
48.0469
2842.16
40.1801
2768.1
47.3412
3149.09
48.3361
2834.96
53.9943
3415.19
4250.86
-27.9626
-121.499
-27.7955
-153.736
-27.8968
-174.381
-28.0571
-194.673
-28.3407
-214.501
-28.6982
-233.393
-29.1465
-252.014
-29.671
-270.187
-30.2761
-288.172
-30.9566
-305.965
-31.7133
-323.683
-32.5443
-341.365
-33.4495
-359.081
-34.428
-376.874
-35.4798
-394.796
-36.6047
-412.888
-37.803
-431.193
-39.075
-449.748
-40.4213
-468.59
-41.8426
-487.754
-43.3398
-507.274
-44.9138
-527.18
-46.5656
-547.504
-48.2959
-568.27
-50.1055
-589.503
-51.9945
-611.22
-53.9626
-633.435
-56.0087
-656.15
-58.1307
-679.358
-60.3251
-703.04
-62.5872
-727.158
-64.9106
-751.658
-67.2872
-776.467
-69.7079
-801.494
-72.1624
-826.635
-74.6399
-851.78
-77.1301
-876.82
-79.6233
-901.666
-82.1111
-926.254
-84.5862
-950.562
-87.0422
-974.613
-89.4727
-998.473
-91.8697
-1022.24
-94.2239
-1046.05
-96.5244
-1070.02
-98.7591
-1094.29
-100.914
-1119.04
-102.968
-1144.5
-104.877
-1170.91
-106.565
-1198.43
-107.903
-1226.97
-108.713
-1255.97
-108.755
-1284.4
-107.735
-1310.79
-105.295
-1333.14
-101.013
-1348.92
-94.4136
-1354.89
-84.977
-1346.86
-72.1843
-1319.14
-55.6107
-1264.08
-35.146
-1170.12
-10.9246
-1019.55
15.2222
-786.99
44.4827
-378.584
57.2179
390.612
57.3034
827.608
58.3265
1217.52
59.6432
1574.06
60.0272
1896.93
59.8442
2183.82
57.3112
2386.89
54.5531
2577.34
48.336
2652.38
46.9209
2843.57
39.2832
2775.74
46.2615
3142.11
47.4104
2833.81
53.661
3408.94
4198.87
-29.256
-121.837
-29.0593
-153.933
-29.1428
-174.298
-29.2951
-194.521
-29.5782
-214.217
-29.9408
-233.03
-30.3988
-251.556
-30.937
-269.648
-31.5594
-287.55
-32.2604
-305.263
-33.0408
-322.903
-33.8982
-340.508
-34.8325
-358.147
-35.8427
-375.864
-36.9288
-393.71
-38.0904
-411.727
-39.3279
-429.955
-40.6414
-448.434
-42.0317
-467.199
-43.4993
-486.286
-45.0451
-505.728
-46.6701
-525.555
-48.375
-545.799
-50.1606
-566.484
-52.0273
-587.636
-53.9752
-609.272
-56.0035
-631.406
-58.1108
-654.043
-60.2942
-677.175
-62.5498
-700.784
-64.8719
-724.836
-67.2532
-749.276
-69.6851
-774.035
-72.1574
-799.022
-74.6594
-824.133
-77.1806
-849.259
-79.7106
-874.29
-82.2409
-899.135
-84.7642
-923.731
-87.2747
-948.051
-89.7674
-972.12
-92.2368
-996.003
-94.6756
-1019.8
-97.0748
-1043.65
-99.4238
-1067.67
-101.712
-1092
-103.927
-1116.83
-106.047
-1142.38
-108.026
-1168.93
-109.776
-1196.68
-111.152
-1225.59
-111.959
-1255.16
-111.94
-1284.42
-110.783
-1311.95
-108.113
-1335.81
-103.49
-1353.54
-96.4166
-1361.97
-86.3506
-1356.92
-72.748
-1332.75
-55.1617
-1281.67
-33.4761
-1191.81
-7.78128
-1045.24
19.5491
-814.32
52.072
-411.107
67.735
374.949
64.5179
830.825
62.2086
1219.83
61.8297
1574.44
60.9433
1897.82
59.7196
2185.04
56.4862
2390.12
53.2295
2580.59
46.8255
2658.78
45.2917
2845.1
37.7833
2783.24
44.6839
3135.21
45.8043
2832.69
53.9102
3400.83
4153.85
-30.7717
-122.218
-30.548
-154.157
-30.6161
-174.23
-30.7623
-194.374
-31.0473
-213.932
-31.4179
-232.66
-31.8892
-251.085
-32.4452
-269.092
-33.0896
-286.906
-33.8164
-304.537
-34.626
-322.093
-35.5161
-339.618
-36.4863
-357.177
-37.5355
-374.815
-38.6635
-392.582
-39.87
-410.52
-41.1552
-428.67
-42.5194
-447.07
-43.9632
-465.756
-45.4871
-484.762
-47.0921
-504.123
-48.7789
-523.869
-50.5484
-544.029
-52.4012
-564.631
-54.3375
-585.7
-56.3572
-607.253
-58.4591
-629.305
-60.6412
-651.861
-62.9002
-674.916
-65.2313
-698.453
-67.6278
-722.439
-70.0816
-746.823
-72.5828
-771.534
-75.1206
-796.484
-77.6835
-821.57
-80.2605
-846.681
-82.842
-871.709
-85.4198
-896.558
-87.9881
-921.162
-90.5428
-945.497
-93.0804
-969.582
-95.5969
-993.487
-98.0858
-1017.32
-100.538
-1041.2
-102.945
-1065.26
-105.296
-1089.65
-107.582
-1114.54
-109.781
-1140.18
-111.845
-1166.86
-113.673
-1194.85
-115.105
-1224.16
-115.925
-1254.34
-115.857
-1284.49
-114.564
-1313.24
-111.653
-1338.72
-106.662
-1358.53
-99.0657
-1369.56
-88.2939
-1367.7
-73.768
-1347.27
-55.0074
-1300.43
-31.8624
-1214.95
-4.37611
-1072.73
24.8161
-843.512
59.7058
-445.997
79.1453
355.509
74.7669
835.203
68.046
1226.55
65.005
1577.48
62.3832
1900.44
59.7293
2187.69
55.5137
2394.34
51.5538
2584.55
44.8776
2665.46
43.1445
2846.84
35.8252
2790.56
42.6351
3128.4
43.7352
2831.59
51.2174
3393.35
4105.5
-32.2151
-122.627
-31.9753
-154.396
-32.0311
-174.174
-32.1741
-194.231
-32.4625
-213.644
-32.8422
-232.28
-33.3275
-250.599
-33.9018
-268.518
-34.5684
-286.239
-35.321
-303.784
-36.1599
-321.255
-37.0823
-338.695
-38.0879
-356.171
-39.1755
-373.727
-40.3447
-391.413
-41.5954
-409.27
-42.9274
-427.338
-44.3413
-445.656
-45.8374
-464.26
-47.4164
-483.183
-49.0792
-502.46
-50.8265
-522.121
-52.6591
-542.197
-54.5776
-562.713
-56.5819
-583.695
-58.6717
-605.163
-60.8455
-627.131
-63.1009
-649.605
-65.434
-672.583
-67.839
-696.048
-70.3085
-719.97
-72.8334
-744.298
-75.4028
-768.964
-78.0049
-793.882
-80.6277
-818.947
-83.2599
-844.049
-85.8921
-869.077
-88.517
-893.933
-91.1301
-918.549
-93.7289
-942.898
-96.3117
-966.999
-98.8756
-990.923
-101.415
-1014.78
-103.922
-1038.69
-106.387
-1062.8
-108.802
-1087.23
-111.16
-1112.18
-113.442
-1137.9
-115.595
-1164.71
-117.51
-1192.94
-119.01
-1222.66
-119.859
-1253.49
-119.76
-1284.59
-118.36
-1314.64
-115.244
-1341.84
-109.929
-1363.85
-101.866
-1377.62
-90.4545
-1379.11
-75.0779
-1362.65
-55.2149
-1320.29
-30.658
-1239.51
-1.38901
-1102
29.8328
-874.734
67.3069
-483.471
91.8168
330.999
87.7427
839.277
76.37
1237.92
69.5048
1584.34
64.4948
1905.45
59.9897
2192.2
54.4464
2399.88
49.5593
2589.44
42.463
2672.55
40.4859
2848.81
33.3238
2797.73
40.1262
3121.6
41.1473
2830.57
50.0835
3384.42
4063.88
-33.6545
-123.056
-33.4053
-154.646
-33.4523
-174.127
-33.5949
-194.089
-33.8886
-213.35
-34.279
-231.89
-34.7798
-250.098
-35.3739
-267.924
-36.064
-285.549
-36.8437
-303.004
-37.7131
-320.385
-38.6692
-337.739
-39.7115
-355.129
-40.8387
-372.6
-42.0505
-390.201
-43.3465
-407.974
-44.7268
-425.958
-46.1916
-444.191
-47.7415
-462.71
-49.377
-481.548
-51.0991
-500.738
-52.9084
-520.312
-54.8058
-540.299
-56.7915
-560.727
-58.8656
-581.621
-61.0274
-603.001
-63.2751
-624.883
-65.6059
-647.274
-68.0151
-670.174
-70.4964
-693.567
-73.0414
-717.425
-75.64
-741.699
-78.2802
-766.324
-80.9494
-791.213
-83.6348
-816.262
-86.3249
-841.359
-89.0103
-866.391
-91.6847
-891.258
-94.3449
-915.889
-96.9901
-940.253
-99.6203
-964.369
-102.234
-988.309
-104.827
-1012.18
-107.391
-1036.13
-109.916
-1060.27
-112.399
-1084.75
-114.832
-1109.75
-117.202
-1135.53
-119.453
-1162.46
-121.466
-1190.92
-123.048
-1221.08
-123.944
-1252.59
-123.837
-1284.69
-122.355
-1316.13
-119.063
-1345.13
-113.458
-1369.45
-104.967
-1386.12
-92.9541
-1391.12
-76.7622
-1378.84
-55.8194
-1341.23
-29.8375
-1265.49
1.26527
-1133.1
34.7247
-908.194
75.1719
-523.918
105.145
301.026
102.533
841.889
87.4458
1253.01
75.7278
1596.06
67.4271
1913.75
60.6148
2199.01
53.3815
2407.11
47.3164
2595.5
39.6378
2680.23
37.3443
2851.11
30.3077
2804.76
37.1582
3114.74
38.0402
2829.68
46.229
3376.23
4021.49
-35.0769
-123.498
-34.8248
-154.898
-34.8662
-174.086
-35.0109
-193.944
-35.3116
-213.05
-35.7145
-231.487
-36.232
-249.581
-36.847
-267.309
-37.5618
-284.834
-38.3697
-302.196
-39.2705
-319.484
-40.2612
-336.748
-41.3411
-354.049
-42.5089
-371.432
-43.7642
-388.946
-45.1064
-406.631
-46.5357
-424.529
-48.0524
-442.675
-49.6569
-461.105
-51.3498
-479.855
-53.132
-498.956
-55.0043
-518.44
-56.9673
-538.336
-59.0213
-558.673
-61.1662
-579.476
-63.4011
-600.766
-65.7239
-622.56
-68.1314
-644.867
-70.6182
-667.687
-73.1774
-691.008
-75.7996
-714.802
-78.4737
-739.025
-81.1867
-763.611
-83.9249
-788.474
-86.6748
-813.512
-89.4246
-838.609
-92.165
-863.651
-94.8907
-888.533
-97.5996
-913.18
-100.293
-937.559
-102.972
-961.69
-105.638
-985.643
-108.286
-1009.54
-110.909
-1033.5
-113.498
-1057.68
-116.05
-1082.2
-118.563
-1107.24
-121.025
-1133.07
-123.382
-1160.1
-125.505
-1188.8
-127.184
-1219.4
-128.146
-1251.63
-128.054
-1284.79
-126.516
-1317.66
-123.081
-1348.57
-117.225
-1375.31
-108.348
-1394.99
-95.7822
-1403.69
-78.8222
-1395.8
-56.8408
-1363.22
-29.4531
-1292.88
3.48001
-1166.04
39.3283
-944.042
83.0762
-567.666
118.567
265.535
118.263
842.193
101.178
1270.1
84.1273
1613.11
71.3984
1926.48
61.7031
2208.71
52.4015
2416.41
44.8803
2603.03
36.4455
2688.67
33.7452
2853.81
26.8057
2811.7
33.7441
3107.81
34.5264
2828.9
42.4852
3368.27
3978.53
-36.4873
-123.945
-36.2374
-155.147
-36.2762
-174.047
-36.4258
-193.795
-36.7354
-212.74
-37.1523
-231.07
-37.6879
-249.045
-38.3251
-266.672
-39.0657
-284.094
-39.903
-301.359
-40.8363
-318.551
-41.8627
-335.722
-42.9813
-352.93
-44.1907
-370.223
-45.4903
-387.646
-46.8798
-405.242
-48.3592
-423.049
-49.9287
-441.105
-51.5888
-459.445
-53.3402
-478.103
-55.1836
-497.112
-57.1199
-516.503
-59.1497
-536.306
-61.2732
-556.55
-63.4902
-577.259
-65.7996
-598.457
-68.1991
-620.161
-70.6848
-642.381
-73.251
-665.121
-75.8899
-688.369
-78.5914
-712.101
-81.3431
-736.273
-84.1311
-760.823
-86.9406
-785.665
-89.7573
-810.695
-92.569
-835.798
-95.3666
-860.853
-98.1454
-885.754
-100.905
-910.42
-103.648
-934.816
-106.379
-958.959
-109.098
-982.924
-111.804
-1006.83
-114.489
-1030.82
-117.143
-1055.03
-119.767
-1079.58
-122.363
-1104.64
-124.924
-1130.5
-127.396
-1157.63
-129.642
-1186.55
-131.435
-1217.61
-132.482
-1250.59
-132.429
-1284.84
-130.865
-1319.23
-127.322
-1352.11
-121.254
-1381.37
-112.038
-1404.21
-98.9682
-1416.76
-81.2904
-1413.48
-58.3204
-1386.19
-29.5714
-1321.63
5.1391
-1200.75
43.4738
-982.377
90.7159
-614.908
131.947
224.304
134.362
839.779
117.094
1287.36
95.0685
1635.14
76.7575
1944.79
63.3768
2222.09
51.5829
2428.21
42.3037
2612.3
32.9173
2698.05
29.7114
2857.01
22.8287
2818.58
29.9289
3100.71
30.5958
2828.23
41.0337
3357.83
3939.79
-37.8866
-124.393
-37.6432
-155.391
-37.6826
-174.007
-37.8394
-193.638
-38.1597
-212.42
-38.5923
-230.638
-39.1474
-248.49
-39.8082
-266.011
-40.5758
-283.326
-41.4435
-300.491
-42.4105
-317.584
-43.4736
-334.659
-44.6319
-351.772
-45.8839
-368.971
-47.2291
-386.301
-48.6668
-403.804
-50.1973
-421.519
-51.8206
-439.482
-53.5374
-457.728
-55.3482
-476.293
-57.254
-495.207
-59.2555
-514.502
-61.3532
-534.209
-63.5475
-554.356
-65.8379
-574.969
-68.2232
-596.072
-70.7008
-617.683
-73.2664
-639.816
-75.9138
-662.473
-78.6345
-685.648
-81.4173
-709.318
-84.2489
-733.442
-87.1142
-757.958
-89.9973
-782.782
-92.8832
-807.809
-95.7589
-832.922
-98.6158
-857.996
-101.45
-882.92
-104.262
-907.608
-107.057
-932.021
-109.841
-956.175
-112.617
-980.148
-115.382
-1004.06
-118.131
-1028.07
-120.854
-1052.3
-123.553
-1076.88
-126.235
-1101.96
-128.901
-1127.84
-131.498
-1155.03
-133.88
-1184.17
-135.804
-1215.68
-136.959
-1249.43
-136.971
-1284.83
-135.411
-1320.79
-131.795
-1355.73
-125.558
-1387.61
-116.05
-1413.72
-102.53
-1430.28
-84.1949
-1431.81
-60.3138
-1410.07
-30.3097
-1351.63
6.02555
-1237.08
46.8154
-1023.17
97.5023
-665.595
145.228
176.578
150.468
834.539
134.481
1303.35
108.655
1660.96
83.9618
1969.48
65.8295
2240.22
51.0101
2443.03
39.6474
2623.67
29.0934
2708.61
25.2716
2860.84
18.3949
2825.46
25.6992
3093.4
26.2305
2827.7
35.4795
3348.58
3900.5
-39.2764
-124.835
-39.0433
-155.624
-39.0861
-173.965
-39.2526
-193.471
-39.5854
-212.087
-40.0352
-230.188
-40.6113
-247.914
-41.2969
-265.325
-42.0928
-282.53
-42.9922
-299.592
-43.9939
-316.582
-45.0949
-333.558
-46.294
-350.573
-47.5897
-367.675
-48.9814
-384.91
-50.4685
-402.317
-52.051
-419.936
-53.7293
-437.803
-55.5038
-455.954
-57.3753
-474.421
-59.3445
-493.237
-61.4123
-512.434
-63.5792
-532.042
-65.8456
-552.089
-68.2108
-572.603
-70.6735
-593.609
-73.2308
-615.126
-75.8782
-637.168
-78.6087
-659.743
-81.4132
-682.844
-84.2796
-706.452
-87.1935
-730.528
-90.1386
-755.013
-93.0979
-779.822
-96.0553
-804.852
-98.9975
-829.98
-101.916
-855.078
-104.807
-880.029
-107.673
-904.742
-110.522
-929.173
-113.361
-953.336
-116.196
-977.313
-119.024
-1001.24
-121.839
-1025.26
-124.634
-1049.51
-127.41
-1074.1
-130.182
-1099.18
-132.959
-1125.06
-135.691
-1152.3
-138.225
-1181.64
-140.299
-1213.61
-141.586
-1248.14
-141.689
-1284.72
-140.167
-1322.31
-136.515
-1359.38
-130.153
-1393.97
-120.404
-1423.47
-106.492
-1444.19
-87.5844
-1450.72
-62.9264
-1434.73
-31.886
-1382.67
5.75657
-1274.72
48.7734
-1066.18
102.45
-719.271
158.214
120.814
166.348
826.404
152.644
1317.06
124.654
1688.95
93.4628
2000.67
69.3715
2264.31
50.7891
2461.61
36.976
2637.48
25.0194
2720.57
20.4586
2865.4
13.53
2832.39
21.0695
3085.86
21.5497
2827.22
30.4402
3339.69
3858.59
-40.6582
-125.27
-40.4384
-155.844
-40.4875
-173.916
-40.6659
-193.293
-41.0131
-211.74
-41.4818
-229.719
-42.0803
-247.315
-42.792
-264.614
-43.6174
-281.705
-44.5497
-298.66
-45.5874
-315.545
-46.7274
-332.418
-47.9684
-349.332
-49.3089
-366.335
-50.7482
-383.47
-52.2857
-400.779
-53.9215
-418.3
-55.6558
-436.069
-57.4892
-454.121
-59.4224
-472.488
-61.4563
-491.203
-63.5917
-510.299
-65.8291
-529.804
-68.1689
-549.749
-70.6104
-570.162
-73.1521
-591.067
-75.7909
-612.487
-78.5218
-634.437
-81.3375
-656.927
-84.228
-679.953
-87.1803
-703.499
-90.179
-727.529
-93.2065
-751.985
-96.2446
-776.784
-99.2762
-801.82
-102.287
-826.969
-105.269
-852.096
-108.22
-877.079
-111.142
-901.819
-114.047
-926.268
-116.943
-950.44
-119.839
-974.418
-122.733
-998.341
-125.618
-1022.37
-128.486
-1046.64
-131.342
-1071.25
-134.208
-1096.32
-137.102
-1122.17
-139.98
-1149.42
-142.682
-1178.94
-144.927
-1211.36
-146.37
-1246.7
-146.595
-1284.5
-145.143
-1323.76
-141.496
-1363.03
-135.052
-1400.42
-125.116
-1433.4
-110.894
-1458.41
-91.5491
-1470.07
-66.3592
-1459.92
-34.6916
-1414.34
3.68872
-1313.1
48.4379
-1110.93
103.977
-774.811
169.891
54.8996
181.773
814.523
171.083
1327.75
142.553
1717.48
105.538
2037.69
74.4334
2295.42
51.0806
2484.96
34.3575
2654.2
20.742
2734.18
15.3075
2870.83
8.26188
2839.44
16.1191
3078.01
16.563
2826.78
28.6011
3327.65
3819.21
-42.0332
-125.692
-41.8295
-156.047
-41.8875
-173.858
-42.08
-193.1
-42.4434
-211.376
-42.9326
-229.23
-43.555
-246.693
-44.2943
-263.874
-45.1505
-280.848
-46.1168
-297.693
-47.1917
-314.47
-48.3719
-331.238
-49.656
-348.048
-51.0424
-364.948
-52.5304
-381.982
-54.1196
-399.19
-55.8097
-416.61
-57.6013
-434.278
-59.4947
-452.227
-61.4909
-470.492
-63.5907
-489.104
-65.7949
-508.095
-68.1042
-527.495
-70.5188
-547.335
-73.0381
-567.643
-75.6605
-588.445
-78.3825
-609.765
-81.199
-631.621
-84.102
-654.024
-87.0809
-676.974
-90.1218
-700.458
-93.208
-724.443
-96.3207
-748.872
-99.4404
-773.665
-102.549
-798.712
-105.632
-823.886
-108.68
-849.048
-111.691
-874.067
-114.672
-898.838
-117.635
-923.306
-120.591
-947.484
-123.55
-971.458
-126.512
-995.378
-129.47
-1019.41
-132.414
-1043.7
-135.353
-1068.31
-138.317
-1093.35
-141.335
-1119.15
-144.371
-1146.39
-147.257
-1176.05
-149.696
-1208.92
-151.322
-1245.07
-151.699
-1284.12
-150.353
-1325.11
-146.748
-1366.63
-140.272
-1406.89
-130.218
-1443.46
-115.809
-1472.82
-96.272
-1489.6
-70.989
-1485.2
-39.3853
-1445.95
-1.16434
-1351.33
44.5311
-1156.63
101.614
-831.894
176.599
-20.0854
196.42
794.702
189.523
1334.64
161.715
1745.29
120.164
2079.24
81.4889
2334.09
52.1417
2514.31
31.8748
2674.47
16.3084
2749.75
9.85276
2877.29
2.61518
2846.67
10.8131
3069.81
11.1644
2826.43
21.2164
3317.6
3780.01
-43.4028
-126.099
-43.2176
-156.233
-43.287
-173.788
-43.4957
-192.892
-43.8771
-210.995
-44.3885
-228.719
-45.0362
-246.045
-45.8044
-263.106
-46.6928
-279.96
-47.6945
-296.692
-48.8078
-313.356
-50.0294
-330.016
-51.3577
-346.719
-52.7913
-363.515
-54.3293
-380.444
-55.9711
-397.549
-57.7169
-414.864
-59.5668
-432.428
-61.5216
-450.272
-63.582
-468.431
-65.7489
-486.937
-68.0234
-505.82
-70.406
-525.112
-72.897
-544.844
-75.4957
-565.044
-78.2005
-585.74
-81.0077
-606.958
-83.9118
-628.717
-86.9044
-651.031
-89.9741
-673.905
-93.1062
-697.326
-96.2828
-721.266
-99.4837
-745.671
-102.688
-770.46
-105.876
-795.524
-109.033
-820.729
-112.15
-845.932
-115.225
-870.991
-118.267
-895.796
-121.289
-920.284
-124.306
-944.466
-127.332
-968.433
-130.366
-992.344
-133.399
-1016.38
-136.423
-1040.67
-139.447
-1065.28
-142.512
-1090.29
-145.661
-1116
-148.868
-1143.18
-151.957
-1172.96
-154.613
-1206.27
-156.45
-1243.24
-157.012
-1283.56
-155.806
-1326.31
-152.285
-1370.15
-145.831
-1413.35
-135.767
-1453.52
-121.4
-1487.19
-102.113
-1508.89
-77.4734
-1509.84
-46.9757
-1476.44
-10.1341
-1388.17
35.4543
-1202.22
94.0624
-890.502
177.447
-103.47
209.898
762.25
207.84
1336.7
181.559
1771.57
136.994
2123.8
90.9125
2380.17
54.3443
2550.88
29.6497
2699.17
11.7683
2767.63
4.12394
2884.93
-3.38147
2854.18
5.21208
3061.21
5.56265
2826.08
18.1708
3304.99
3739.16
-44.7682
-126.488
-44.6035
-156.397
-44.6868
-173.705
-44.9138
-192.665
-45.315
-210.593
-45.8502
-228.183
-46.5247
-245.371
-47.3233
-262.307
-48.2452
-279.038
-49.2836
-295.653
-50.4366
-312.203
-51.7008
-328.752
-53.0746
-345.346
-54.5566
-362.033
-56.1457
-378.855
-57.8415
-395.853
-59.6441
-413.062
-61.5537
-430.518
-63.5711
-448.255
-65.697
-466.305
-67.9325
-484.701
-70.2786
-503.474
-72.736
-522.655
-75.3049
-542.275
-77.9848
-562.364
-80.7738
-582.951
-83.6682
-604.063
-86.6621
-625.723
-89.7467
-647.947
-92.91
-670.742
-96.1361
-694.1
-99.406
-717.997
-102.698
-742.379
-105.99
-767.168
-109.262
-792.252
-112.496
-817.495
-115.683
-842.744
-118.825
-867.85
-121.929
-892.692
-125.012
-917.201
-128.095
-941.384
-131.189
-965.338
-134.298
-989.235
-137.411
-1013.27
-140.517
-1037.57
-143.629
-1062.17
-146.798
-1087.12
-150.085
-1112.72
-153.476
-1139.79
-156.79
-1169.65
-159.688
-1203.37
-161.766
-1241.16
-162.544
-1282.78
-161.513
-1327.34
-158.119
-1373.54
-151.774
-1419.69
-141.9
-1463.39
-128
-1501.09
-109.726
-1527.16
-86.8566
-1532.71
-58.8454
-1504.45
-24.7727
-1422.24
19.5723
-1246.56
78.9693
-949.899
172.915
-197.415
221.627
713.538
225.931
1332.4
201.683
1795.82
155.465
2170.02
102.841
2432.8
58.1377
2595.58
27.8763
2729.43
7.17946
2788.33
-1.85682
2893.97
-9.70111
2862.02
-0.652184
3052.16
-0.380306
2825.8
10.8026
3293.81
3702.62
-46.1306
-126.858
-45.9883
-156.54
-46.0877
-173.606
-46.335
-192.417
-46.7579
-210.171
-47.3185
-227.623
-48.0213
-244.668
-48.8518
-261.477
-49.8085
-278.081
-50.885
-294.577
-52.079
-311.009
-53.3871
-327.444
-54.8078
-343.925
-56.3393
-360.501
-57.9809
-377.214
-59.732
-394.102
-61.5927
-411.201
-63.5633
-428.547
-65.6446
-446.174
-67.8374
-464.113
-70.1429
-482.396
-72.5621
-501.055
-75.0959
-520.121
-77.7444
-539.626
-80.5072
-559.601
-83.3823
-580.076
-86.366
-601.08
-89.4521
-622.637
-92.6313
-644.767
-95.8908
-667.482
-99.214
-690.777
-102.581
-714.63
-105.967
-738.992
-109.351
-763.785
-112.708
-788.895
-116.022
-814.181
-119.284
-839.482
-122.493
-864.64
-125.662
-889.523
-128.81
-914.053
-131.959
-938.235
-135.126
-962.171
-138.314
-986.048
-141.51
-1010.07
-144.701
-1034.37
-147.904
-1058.97
-151.18
-1083.84
-154.612
-1109.28
-158.202
-1136.2
-161.761
-1166.09
-164.93
-1200.2
-167.279
-1238.81
-168.303
-1281.76
-167.482
-1328.17
-164.28
-1376.75
-158.209
-1425.76
-148.917
-1472.69
-136.247
-1513.76
-120.19
-1543.22
-100.62
-1552.28
-76.6483
-1528.43
-46.5462
-1452.34
-4.2567
-1288.85
55.3146
-1009.47
161.654
-303.755
230.675
644.517
243.553
1319.52
221.888
1817.49
174.979
2216.93
117.113
2490.66
63.9517
2648.74
26.8487
2766.53
2.63521
2812.54
-8.0509
2904.65
-16.2801
2870.25
-6.80506
3042.69
-6.54037
2825.54
4.5273
3282.74
3660.25
-47.4913
-127.205
-47.3731
-156.658
-47.4909
-173.488
-47.7603
-192.148
-48.2066
-209.724
-48.7942
-227.035
-49.527
-243.935
-50.3908
-260.613
-51.3838
-277.088
-52.4997
-293.461
-53.736
-309.773
-55.0895
-326.09
-56.5583
-342.456
-58.1408
-358.919
-59.8361
-375.518
-61.6438
-392.294
-63.564
-409.281
-65.597
-426.514
-67.7435
-444.027
-70.0047
-461.851
-72.3817
-480.019
-74.8756
-498.561
-77.4873
-517.509
-80.2173
-536.896
-83.0648
-556.754
-86.0281
-577.113
-89.1033
-598.004
-92.2839
-619.456
-95.5604
-641.491
-98.9191
-664.123
-102.343
-687.354
-105.809
-711.163
-109.294
-735.507
-112.772
-760.307
-116.219
-785.448
-119.617
-810.784
-122.955
-836.144
-126.235
-861.36
-129.472
-886.287
-132.686
-910.839
-135.904
-935.016
-139.147
-958.929
-142.417
-982.777
-145.7
-1006.79
-148.98
-1031.09
-152.276
-1055.67
-155.663
-1080.46
-159.247
-1105.7
-163.052
-1132.39
-166.879
-1162.26
-170.346
-1196.73
-172.995
-1236.16
-174.295
-1280.46
-173.73
-1328.73
-170.847
-1379.63
-165.392
-1431.22
-157.418
-1480.66
-147.235
-1523.94
-135.091
-1555.37
-120.595
-1566.77
-102.037
-1546.98
-76.4228
-1477.96
-36.252
-1329.02
23.6346
-1069.36
143.275
-423.394
235.82
551.972
260.155
1295.18
242.097
1835.54
195.058
2263.97
133.317
2552.4
72.0754
2709.98
26.9577
2811.65
-1.73102
2841.23
-14.407
2917.33
-23.0693
2878.91
-13.1958
3032.82
-12.8805
2825.22
2.71584
3267.15
3619.44
-48.8513
-127.529
-48.7587
-156.75
-48.897
-173.349
-49.1904
-191.855
-49.662
-209.253
-50.2784
-226.419
-51.0427
-243.171
-51.9412
-259.715
-52.9721
-276.058
-54.1288
-292.304
-55.4089
-308.493
-56.809
-324.69
-58.3273
-340.938
-59.9621
-357.284
-61.7126
-373.768
-63.5783
-390.428
-65.5594
-407.3
-67.6561
-424.418
-69.8695
-441.814
-72.2005
-459.52
-74.6505
-477.569
-77.2207
-495.991
-79.9122
-514.818
-82.7253
-534.083
-85.6596
-553.819
-88.7132
-574.059
-91.8822
-594.835
-95.16
-616.178
-98.5365
-638.115
-101.998
-660.662
-105.525
-683.826
-109.095
-707.593
-112.682
-731.92
-116.259
-756.731
-119.799
-781.908
-123.283
-807.299
-126.701
-832.726
-130.055
-858.006
-133.361
-882.982
-136.643
-907.556
-139.934
-931.726
-143.255
-955.607
-146.613
-979.42
-149.988
-1003.41
-153.36
-1027.72
-156.751
-1052.28
-160.251
-1076.96
-163.996
-1101.95
-168.032
-1128.36
-172.151
-1158.14
-175.944
-1192.94
-178.919
-1233.19
-180.528
-1278.85
-180.31
-1328.95
-178.027
-1381.91
-173.869
-1435.38
-168.487
-1486.04
-162.637
-1529.79
-156.452
-1561.55
-148.679
-1574.55
-136.251
-1559.41
-114.684
-1499.52
-75.757
-1367.95
-14.2267
-1130.89
118.594