/*--------------------------------*- C++ -*----------------------------------*\
| =========                 |                                                 |
| \\      /  F ield         | OpenFOAM: The Open Source CFD Toolbox           |
|  \\    /   O peration     | Version:  4.1                                   |
|   \\  /    A nd           | Web:      www.OpenFOAM.org                      |
|    \\/     M anipulation  |                                                 |
\*---------------------------------------------------------------------------*/
FoamFile
{
    version     2.0;
    format      ascii;
    class       volVectorField;
    location    "10";
    object      U;
}
// * * * * * * * * * * * * * * * * * * * * * * * * * * * * * * * * * * * * * //

dimensions      [0 1 -1 0 0 0 0];

internalField   nonuniform List<vector> 
6785
(
(1.1995e-14 -2.3159 16.4857)
(1.12523e-14 -7.91716 12.9812)
(-2.94351e-15 -5.13445 13.7678)
(3.90143e-15 -5.07667 13.2734)
(9.90526e-16 -4.29322 13.1309)
(1.03116e-16 -3.87838 12.8435)
(2.84491e-15 -3.46481 12.553)
(5.98205e-16 -3.15938 12.2009)
(-6.21386e-16 -2.91722 11.7986)
(1.91477e-15 -2.77016 11.3576)
(2.69975e-16 -2.70865 10.9486)
(-3.47177e-16 -2.75173 10.627)
(1.03828e-15 -3.23252 10.1334)
(-3.29962e-17 -3.36528 9.26264)
(-5.62143e-16 -0.0775628 7.40161)
(1.88042e-14 -10.1302 26.782)
(1.37127e-14 -16.3588 23.0271)
(-2.61551e-15 -11.1604 23.41)
(5.32679e-15 -12.0841 21.4958)
(1.02702e-15 -10.3625 20.615)
(1.55285e-15 -9.81593 19.3277)
(2.86193e-15 -8.89579 18.2231)
(2.24906e-16 -8.23971 17.1287)
(3.13056e-16 -7.63237 16.1664)
(1.42393e-15 -7.13979 15.2307)
(1.16621e-16 -6.62187 14.1517)
(5.56183e-16 -5.89134 12.7183)
(1.26384e-15 -4.72729 10.3195)
(-4.75262e-16 -2.60191 5.59127)
(-8.35738e-16 0.356401 -0.854175)
(2.00354e-14 -12.4513 27.4842)
(1.22779e-14 -16.5853 24.4022)
(-1.86738e-15 -11.6754 24.2881)
(3.92118e-15 -12.8282 21.6503)
(1.20007e-15 -10.6114 20.6108)
(1.4631e-15 -10.193 18.7847)
(6.99428e-16 -9.01394 17.4014)
(1.90077e-16 -8.22742 15.8582)
(-1.29635e-16 -7.3068 14.321)
(-9.43841e-16 -6.56503 12.6964)
(-2.78775e-16 -6.09952 11.2372)
(-8.2697e-16 -5.81676 9.91267)
(-3.93513e-15 -5.02038 7.89515)
(-2.49245e-15 -2.8391 4.10379)
(-1.62845e-15 -0.801389 -0.992802)
(2.12983e-14 -13.4855 27.4424)
(9.33082e-15 -16.275 24.8514)
(-7.42134e-16 -12.2538 24.4543)
(2.85155e-15 -13.1915 21.7707)
(4.62397e-17 -10.8732 20.807)
(1.51038e-15 -10.5657 18.9422)
(-4.52026e-16 -9.23878 17.6983)
(-9.94212e-16 -8.30646 15.9795)
(3.21492e-16 -6.66186 13.5513)
(-8.63947e-16 -4.62466 9.97784)
(-1.66208e-16 -2.85619 6.59766)
(1.86901e-15 -2.50349 5.19866)
(-2.40225e-15 -3.28458 5.57461)
(-6.01145e-15 -3.83476 5.69677)
(1.51178e-15 -3.32403 5.86349)
(2.09379e-14 -14.4086 28.5421)
(8.0003e-15 -16.9062 26.3029)
(-6.66779e-16 -13.1355 25.7499)
(2.51309e-15 -14.0716 23.2006)
(-2.84992e-16 -11.6714 22.3552)
(1.3856e-15 -11.6216 20.5031)
(-5.94566e-16 -10.1964 19.4692)
(-8.80199e-16 -9.48263 17.7957)
(1.99001e-16 -7.66751 15.3117)
(2.61271e-16 -5.04458 10.9525)
(3.22081e-15 -1.79742 5.88762)
(7.38437e-15 0.57165 1.97171)
(9.04969e-15 1.75907 -0.191291)
(7.13212e-15 1.44539 -0.323301)
(3.79508e-15 -0.145121 1.53299)
(1.94923e-14 -14.4131 27.7845)
(9.98748e-15 -18.013 28.0795)
(-6.79457e-16 -13.9738 26.441)
(2.42351e-15 -14.8476 23.8088)
(2.62586e-16 -12.6186 22.9094)
(9.13004e-16 -12.6923 20.971)
(1.32122e-16 -11.4183 19.8624)
(-2.63541e-16 -10.9561 18.2774)
(-2.14196e-16 -9.77715 16.4453)
(1.00962e-16 -8.11683 13.5003)
(1.59057e-15 -5.58409 9.58459)
(3.40432e-15 -2.62295 5.17858)
(4.89892e-15 0.665679 0.238516)
(1.99015e-15 3.43516 -3.72547)
(4.75627e-15 2.25805 -5.37438)
(1.85426e-14 -13.3708 24.9205)
(1.32299e-14 -18.1935 28.6697)
(7.94708e-16 -14.411 26.0934)
(1.9704e-15 -14.5832 23.1073)
(1.41087e-15 -12.7627 21.9052)
(1.58027e-15 -12.5472 19.9335)
(1.01108e-15 -11.4731 18.5346)
(8.59788e-16 -10.8878 16.8778)
(1.28183e-15 -10.0541 15.2368)
(8.16082e-16 -9.06886 13.2808)
(8.96754e-16 -7.7438 10.9089)
(2.34558e-15 -5.92333 8.141)
(3.40885e-15 -3.83104 4.8193)
(9.81436e-16 -0.875981 1.3426)
(2.02292e-16 1.26589 -4.16827)
(1.70651e-14 -12.0811 21.9816)
(1.55047e-14 -17.6219 28.3521)
(2.57719e-15 -14.3749 25.5159)
(1.48752e-15 -13.8433 22.2137)
(1.9239e-15 -12.2178 20.7752)
(2.22543e-15 -11.7485 18.8365)
(1.42082e-15 -10.6958 17.3162)
(1.43497e-15 -9.94333 15.6292)
(2.0027e-15 -9.09336 14.0344)
(1.73768e-15 -8.22461 12.4177)
(1.38689e-15 -7.30044 10.6986)
(1.68331e-15 -6.08282 8.79913)
(2.93801e-15 -4.69614 6.41442)
(1.82664e-15 -2.38363 3.38624)
(-6.84735e-15 0.000581518 -2.05909)
(1.67982e-14 -11.1671 20.1357)
(1.68645e-14 -16.9358 27.8142)
(2.96457e-15 -14.2517 25.118)
(1.54531e-15 -13.2926 21.6973)
(2.17262e-15 -11.7783 20.0779)
(1.02307e-15 -11.1952 18.2286)
(2.06839e-15 -10.2017 16.7329)
(2.26553e-15 -9.42785 15.1481)
(5.64482e-16 -8.6029 13.6677)
(2.12348e-15 -7.79523 12.2343)
(2.6466e-15 -7.0153 10.7965)
(-3.55915e-16 -6.08656 9.32077)
(2.01606e-15 -5.09389 7.56547)
(2.74143e-15 -3.40916 5.32755)
(-1.1438e-14 -0.854215 0.304033)
(1.60421e-14 -10.7063 19.2943)
(1.76841e-14 -16.2693 27.091)
(3.7899e-15 -13.9973 24.5628)
(-4.05336e-16 -12.8598 21.0956)
(2.14463e-15 -11.4281 19.3577)
(8.77949e-16 -10.861 17.6289)
(-5.15585e-16 -10.0117 16.2456)
(1.62293e-15 -9.34319 14.7986)
(5.60349e-16 -8.63119 13.4048)
(-1.74311e-15 -7.93269 12.0357)
(3.32792e-17 -7.27848 10.7389)
(-6.758e-16 -6.6159 9.64448)
(-2.54388e-15 -6.00351 8.66143)
(1.44216e-15 -4.90311 7.51098)
(-6.81864e-15 -2.46787 3.28265)
(1.39584e-14 -10.7839 19.4649)
(1.72159e-14 -15.3095 25.9604)
(-5.79224e-16 -13.3144 23.512)
(-9.73054e-16 -12.2046 20.205)
(3.37988e-15 -10.7289 18.4723)
(-4.19723e-15 -10.1613 16.651)
(-1.91263e-15 -9.27485 15.1929)
(2.61828e-15 -8.70441 13.6179)
(-5.97453e-15 -8.10248 12.1903)
(-5.07176e-15 -7.67634 10.9753)
(1.18106e-15 -7.4353 10.2937)
(-4.98228e-15 -7.45429 10.3245)
(-6.13734e-15 -7.48154 10.8092)
(-6.35921e-15 -7.0386 10.8126)
(-9.75006e-15 -4.6949 7.48424)
(1.43232e-14 -11.8566 21.1034)
(1.46197e-14 -14.6471 25.0635)
(-5.81142e-15 -12.2757 22.1688)
(5.18499e-16 -11.346 19.7325)
(1.78751e-15 -9.72433 17.8437)
(-4.64335e-15 -8.51075 15.3009)
(2.45334e-15 -7.04129 13.0198)
(4.85751e-15 -6.05277 10.8611)
(-1.41458e-15 -5.30831 9.34555)
(1.20238e-15 -5.31123 8.86415)
(5.87254e-16 -6.05163 9.79099)
(-7.83541e-15 -7.34686 11.7107)
(-5.14668e-15 -8.47498 13.8627)
(-9.58014e-15 -8.96931 14.5639)
(-1.15196e-14 -6.34482 11.2222)
(1.15619e-14 -12.1095 21.0971)
(1.3741e-14 -17.0273 28.0245)
(-3.42894e-15 -14.2291 24.6709)
(-1.25342e-15 -12.5224 21.667)
(4.76944e-16 -10.798 19.802)
(-1.86712e-15 -9.06717 16.942)
(4.42909e-15 -6.9416 14.0552)
(8.41785e-15 -5.19203 11.3669)
(6.50022e-15 -3.58639 9.11633)
(7.17608e-15 -2.53226 7.53648)
(3.06365e-15 -2.37626 7.27459)
(-2.37334e-15 -3.52649 8.82681)
(-3.8097e-15 -5.74082 11.8102)
(-7.47353e-15 -7.77631 13.9771)
(-9.1127e-15 -5.82925 11.1102)
(6.11268e-15 -8.40685 14.1102)
(1.33171e-14 -16.639 25.9334)
(4.2712e-15 -17.3936 27.5575)
(-1.91086e-16 -15.6213 25.0321)
(-8.22583e-16 -13.3313 22.3409)
(-1.3208e-15 -11.384 19.6325)
(3.43645e-15 -9.28549 16.9972)
(6.74481e-15 -7.48197 14.4341)
(7.49446e-15 -5.66879 12.0127)
(7.79394e-15 -3.95565 9.55085)
(5.14524e-15 -2.41152 7.3293)
(2.5209e-15 -1.43657 5.77799)
(2.44947e-16 -1.49921 5.4404)
(-1.96029e-15 -2.64416 6.39475)
(-3.00596e-15 -2.75603 5.95915)
(1.63328e-18 -3.47661 6.45146)
(1.1374e-14 -13.358 20.2122)
(1.36267e-14 -19.3712 28.4462)
(1.00092e-14 -21.3609 30.2187)
(5.73774e-15 -20.8254 28.2816)
(2.56644e-15 -19.1755 24.8507)
(1.36565e-15 -16.9033 21.1461)
(1.30418e-15 -14.5741 17.859)
(2.99658e-15 -12.3421 14.9065)
(5.11247e-15 -10.215 12.3643)
(5.50302e-15 -8.23603 10.1678)
(4.9252e-15 -6.41723 8.19673)
(3.75451e-15 -4.71182 6.27317)
(3.18704e-15 -2.98406 4.1705)
(5.52478e-15 -0.477486 0.946656)
(1.73454e-17 2.07455 8.15268)
(6.99245e-16 -0.372218 1.54661)
(5.29007e-16 -0.0642377 -0.606532)
(4.63697e-16 -0.0867642 -0.426721)
(3.90166e-16 -7.85426e-05 -0.531995)
(3.87054e-16 0.195179 -0.7955)
(3.40265e-16 0.115337 -0.506034)
(5.26922e-16 0.186513 -0.469866)
(2.31172e-16 0.197124 -0.416204)
(3.33991e-15 0.378467 -0.591825)
(3.71142e-15 0.320181 -0.386665)
(3.8163e-15 0.356492 -0.366966)
(4.16955e-15 0.559106 -0.494984)
(2.88457e-15 0.441862 -0.343428)
(2.77006e-15 0.51818 -0.362212)
(2.63044e-15 0.50611 -0.383724)
(3.00936e-15 0.697055 -0.494065)
(2.06304e-15 0.582088 -0.360796)
(1.80073e-15 0.627942 -0.380697)
(2.11132e-15 0.840629 -0.468096)
(1.4505e-15 0.657021 -0.348756)
(1.39209e-15 0.753489 -0.374565)
(1.28688e-15 0.728105 -0.40123)
(1.70389e-15 0.952078 -0.468136)
(1.1772e-15 0.749144 -0.34293)
(1.22373e-15 0.849641 -0.357609)
(8.42221e-16 0.824203 -0.377312)
(1.1524e-15 1.02324 -0.416927)
(7.87483e-16 0.833343 -0.303927)
(6.67665e-16 0.888145 -0.317515)
(9.22117e-16 1.09816 -0.321012)
(5.58641e-16 0.843139 -0.245309)
(4.97997e-16 0.94612 -0.262611)
(4.18819e-16 0.91361 -0.288143)
(6.29122e-16 1.09427 -0.273859)
(3.29147e-16 0.869393 -0.222115)
(2.00566e-16 0.925472 -0.246033)
(2.07472e-16 1.10679 -0.205279)
(-1.21856e-17 0.82937 -0.180659)
(-4.69416e-17 0.928031 -0.198283)
(-4.3605e-17 0.891822 -0.210901)
(4.76007e-17 1.06092 -0.1446)
(8.76417e-17 0.803665 -0.111077)
(2.21528e-16 0.892225 -0.110388)
(3.46367e-16 0.852658 -0.092301)
(8.67875e-16 0.994623 -0.0329241)
(8.63893e-16 0.822633 -0.0192751)
(9.64668e-16 0.850807 -0.00951887)
(1.76911e-15 1.0435 -0.128321)
(1.36529e-15 0.89028 -0.0378091)
(1.3741e-15 0.965972 0.0112778)
(1.35748e-15 0.915389 0.0552136)
(1.83708e-15 1.03033 0.212493)
(1.50576e-15 0.832828 0.172866)
(1.41236e-15 0.877884 0.178858)
(1.5704e-15 0.840971 0.191402)
(2.06927e-15 0.823766 0.215874)
(1.73689e-15 0.590113 -0.0643654)
(1.50298e-15 0.616593 -0.0179078)
(2.33528e-15 0.57506 -0.709633)
(2.12245e-15 0.171576 -1.09542)
(2.0693e-15 0.262786 -1.19909)
(1.95845e-15 0.332559 -1.17401)
(2.99057e-15 0.794463 -2.50238)
(-3.94647e-15 -0.424472 0.0621419)
(-2.85452e-15 0.0246173 -0.319714)
(-4.40207e-15 -0.393195 1.27004)
(-3.74712e-15 -1.14022 2.59521)
(-3.19668e-15 -1.22491 2.42359)
(-3.06024e-15 -1.23086 2.57987)
(-4.14195e-15 -2.22303 4.9321)
(-3.26505e-15 -2.73376 4.77312)
(-3.23353e-15 -3.11595 4.8485)
(-3.25925e-15 -3.08295 5.0288)
(-4.73863e-15 -4.82478 8.19348)
(-3.70346e-15 -5.1532 6.87621)
(-4.10714e-15 -5.22314 7.33193)
(-6.00099e-15 -7.45991 11.1194)
(-4.74277e-15 -7.44852 8.80106)
(-5.09934e-15 -7.87126 9.36984)
(-5.23644e-15 -8.43424 10.665)
(-5.47371e-15 -8.39797 10.3652)
(-5.55552e-15 -8.44725 10.4787)
(-7.04667e-15 -10.3198 13.2292)
(-5.0784e-15 -9.45151 11.4925)
(-4.84451e-15 -9.71499 11.9107)
(-4.1743e-15 -9.69621 11.9105)
(-3.34018e-15 -9.79955 11.911)
(-2.39551e-15 -9.8627 11.945)
(-1.39925e-15 -9.9519 12.0099)
(-4.13929e-16 -10.0315 12.2133)
(4.24951e-16 -10.0806 12.517)
(1.02313e-15 -11.2044 14.5686)
(1.64509e-15 -10.8868 13.3933)
(2.12082e-15 -11.0613 13.5753)
(2.17073e-15 -11.0186 13.6897)
(2.29708e-15 -11.1835 14.1038)
(2.15271e-15 -11.1579 14.2081)
(1.93442e-15 -11.2655 14.4584)
(1.6232e-15 -11.3172 14.7362)
(1.23308e-15 -11.3888 15.0846)
(-6.34093e-16 -12.3096 17.5015)
(-2.6887e-16 -11.9442 16.5231)
(-1.24245e-15 -12.0704 17.0414)
(-2.12989e-15 -12.085 17.312)
(-3.24602e-15 -12.1647 17.6687)
(-4.4982e-15 -12.2048 18.1242)
(-5.80278e-15 -12.3239 18.6561)
(-6.93098e-15 -12.3523 18.997)
(-7.79034e-15 -12.4422 19.4069)
(-8.28121e-15 -12.5919 19.7703)
(-9.45953e-15 -12.6784 21.2413)
(-7.29852e-15 -12.5626 20.2614)
(-5.94149e-15 -12.6774 20.5367)
(-4.17088e-15 -12.6882 20.5966)
(-2.34712e-15 -12.7826 20.7326)
(-5.36858e-16 -12.7989 20.908)
(9.29273e-16 -12.8996 21.3724)
(2.22453e-15 -12.888 21.6224)
(3.17071e-15 -13.0878 21.7568)
(4.91355e-15 -12.0143 21.2332)
(4.21093e-15 -12.2753 20.8804)
(4.59252e-15 -12.2815 21.259)
(4.67956e-15 -12.3173 21.5448)
(4.87265e-15 -12.2731 21.4905)
(5.07729e-15 -12.3107 21.4945)
(5.34989e-15 -12.3084 21.4418)
(5.65276e-15 -12.2106 21.4149)
(6.07737e-15 -12.5083 21.673)
(6.2961e-15 -9.70964 17.8964)
(6.16186e-15 -10.8473 18.9795)
(6.07187e-15 -10.7097 18.3587)
(5.99254e-15 -10.6932 17.9824)
(6.22745e-15 -10.6311 17.7939)
(6.14563e-15 -10.5404 17.2627)
(6.06464e-15 -10.3883 16.6901)
(6.11618e-15 -10.2229 16.223)
(6.23275e-15 -10.3065 15.7451)
(6.31081e-15 -6.87462 11.2377)
(7.39413e-15 -8.38102 14.6831)
(7.52472e-15 -7.95726 14.392)
(7.76482e-15 -7.94464 14.5894)
(8.00912e-15 -7.68562 14.5937)
(8.32853e-15 -7.66361 14.5172)
(8.95441e-15 -7.37877 14.019)
(8.58017e-15 -7.31912 13.7081)
(8.40477e-15 -7.08423 13.093)
(7.92413e-15 -7.00725 12.1381)
(4.88489e-15 -3.35139 5.43576)
(6.39852e-15 -5.26327 8.50583)
(5.4794e-15 -4.75405 6.55318)
(5.03094e-15 -4.95867 5.818)
(4.33467e-15 -4.61932 4.52274)
(3.50449e-15 -4.56792 3.20052)
(2.08268e-15 -4.37529 1.25747)
(8.34846e-16 -4.06599 -0.268993)
(1.02933e-15 -4.08722 0.0987203)
(6.65847e-16 -3.82726 -1.43063)
(6.93604e-16 -3.71653 -0.314579)
(4.04908e-16 -3.68545 -0.481119)
(2.5247e-16 -2.83932 -1.21353)
(5.0001e-16 -4.08234 -1.20306)
(1.87272e-16 -3.32664 -0.962709)
(1.84818e-16 -2.97055 -0.659066)
(2.17638e-16 -3.76609 -0.93987)
(1.82942e-16 -2.62754 -0.564146)
(2.6199e-16 -3.33988 -0.837519)
(3.66062e-16 -3.08945 -0.624377)
(3.1385e-16 -2.56309 -0.446431)
(4.36765e-16 -3.05955 -0.658568)
(3.43027e-16 -2.90746 -0.49771)
(2.52496e-16 -2.48707 -0.351553)
(2.90467e-16 -3.3095 -0.495845)
(1.61213e-16 -2.30704 -0.300125)
(2.0827e-16 -2.99906 -0.43029)
(2.23776e-16 -2.76659 -0.332239)
(1.45313e-16 -2.4174 -0.226436)
(2.03713e-16 -3.24069 -0.30921)
(1.91556e-16 -2.26043 -0.170144)
(3.00252e-16 -2.97419 -0.211835)
(2.93568e-16 -2.86311 -0.159605)
(2.66136e-16 -2.37727 -0.0778888)
(4.21628e-16 -2.91875 -0.0832964)
(4.06821e-16 -2.82813 -0.0377061)
(3.57512e-16 -2.44123 0.0230641)
(4.51742e-16 -3.31749 0.0521998)
(2.85966e-16 -2.34544 0.089353)
(3.55419e-16 -3.0961 0.174986)
(2.80187e-16 -2.87178 0.147514)
(1.53276e-16 -2.53931 0.15229)
(1.10167e-16 -3.44542 0.196407)
(2.32581e-18 -2.43341 0.164209)
(-8.27043e-17 -3.22973 0.257155)
(-1.60923e-16 -3.09177 0.162633)
(-1.44623e-16 -2.59524 0.152408)
(-2.40754e-16 -3.20007 0.195634)
(-2.1293e-16 -3.07889 0.120784)
(-1.50724e-16 -2.66894 0.120667)
(-1.88225e-16 -3.62484 0.136691)
(-1.1522e-16 -2.55538 0.113392)
(-1.43642e-16 -3.3716 0.173672)
(-9.86783e-17 -3.08941 0.0924891)
(-7.98024e-17 -2.72298 0.0913311)
(-1.01871e-16 -3.67439 0.0825219)
(-6.58195e-17 -2.56932 0.0618842)
(-1.24122e-16 -3.3994 0.0790597)
(-1.41705e-16 -3.20341 -0.0212781)
(-1.41605e-16 -2.66891 -0.00968239)
(-2.3993e-16 -3.2671 -0.0712087)
(-2.42342e-16 -3.10058 -0.134181)
(-2.15949e-16 -2.65884 -0.0990226)
(-3.16299e-16 -3.58367 -0.190839)
(-2.50056e-16 -2.47819 -0.140383)
(-3.52804e-16 -3.25088 -0.230753)
(-2.21943e-16 -2.9264 -0.268585)
(-1.91047e-16 -2.54192 -0.209607)
(-2.48672e-16 -3.40053 -0.337479)
(-1.72534e-16 -2.3191 -0.243517)
(-2.51061e-16 -3.05048 -0.37455)
(-2.07704e-16 -2.82116 -0.388532)
(-1.68406e-16 -2.30437 -0.304398)
(-2.20387e-16 -2.79773 -0.483811)
(-1.3916e-16 -2.60898 -0.464797)
(-1.38036e-16 -2.18733 -0.364413)
(-1.83696e-16 -2.94464 -0.537671)
(-1.50967e-16 -1.95857 -0.387412)
(-2.28365e-16 -2.5789 -0.592093)
(-2.04031e-16 -2.25578 -0.558933)
(-1.71134e-16 -1.90969 -0.44624)
(-2.35738e-16 -2.56603 -0.646734)
(-1.71057e-16 -1.65295 -0.469417)
(-2.27232e-16 -2.20466 -0.711651)
(-1.40603e-16 -1.96642 -0.667935)
(-1.35974e-16 -1.53196 -0.541536)
(-2.14772e-16 -1.87793 -0.82397)
(-2.43277e-16 -1.6806 -0.755393)
(-2.00942e-16 -1.32409 -0.606777)
(-2.82079e-16 -1.86461 -0.861005)
(-2.24971e-16 -1.0866 -0.633953)
(-3.47565e-16 -1.38057 -0.970048)
(2.53532e-52 0.161337 0.171638)
(1.75476e-51 0.204618 0.169222)
(4.09683e-51 0.23277 0.170451)
(-4.02242e-51 0.259964 0.170985)
(-7.356e-50 0.286694 0.172814)
(-2.60758e-49 0.312062 0.174783)
(-2.20933e-50 0.337109 0.177471)
(3.82523e-48 0.361524 0.180531)
(1.5697e-47 0.3857 0.184138)
(1.68272e-48 0.409607 0.188183)
(-2.4479e-46 0.433418 0.192717)
(-9.63221e-46 0.457175 0.197703)
(3.77686e-46 0.480977 0.203157)
(1.73265e-44 0.504881 0.209065)
(5.79155e-44 0.528956 0.215432)
(-7.48123e-44 0.553258 0.222255)
(-1.23267e-42 0.577843 0.229536)
(-3.23665e-42 0.602763 0.237277)
(8.51651e-42 0.628068 0.245482)
(8.30704e-41 0.653804 0.254155)
(1.59936e-40 0.680017 0.263302)
(-7.46506e-40 0.706747 0.272929)
(-5.1341e-39 0.734036 0.283044)
(-6.64515e-39 0.761918 0.293652)
(5.39245e-38 0.790423 0.304762)
(2.86444e-37 0.819576 0.316378)
(2.19241e-37 0.849392 0.328502)
(-3.27905e-36 0.879873 0.341136)
(-1.43588e-35 0.911008 0.354275)
(-5.51469e-36 0.942766 0.367906)
(1.6862e-34 0.975096 0.382013)
(6.4859e-34 1.00792 0.396567)
(1.39574e-34 1.04114 0.411532)
(-7.29277e-33 1.07463 0.42686)
(-2.65235e-32 1.10825 0.442493)
(-8.39689e-33 1.14184 0.458367)
(2.60568e-31 1.17527 0.474412)
(9.77581e-31 1.20841 0.490555)
(6.74379e-31 1.24119 0.506725)
(-7.36472e-30 1.27357 0.522858)
(-3.16581e-29 1.30559 0.538891)
(-4.02322e-29 1.33733 0.554768)
(1.46219e-28 1.36894 0.57043)
(8.53921e-28 1.40056 0.585813)
(1.71195e-27 1.43237 0.600843)
(-1.08314e-27 1.46456 0.615437)
(-1.74069e-26 1.49736 0.629499)
(-5.20817e-26 1.53103 0.642912)
(-4.99856e-26 1.56587 0.655502)
(2.07225e-25 1.60202 0.666965)
(1.07432e-24 1.63924 0.676778)
(2.30111e-24 1.67666 0.684121)
(8.39266e-25 1.71276 0.687836)
(-1.17725e-23 1.74544 0.686382)
(-4.5657e-23 1.77187 0.677815)
(-8.80462e-23 1.78851 0.659779)
(-4.68525e-23 1.79093 0.629512)
(3.12625e-22 1.7734 0.583912)
(1.33313e-21 1.72837 0.519697)
(3.12461e-21 1.64582 0.433726)
(4.62589e-21 1.51106 0.323724)
(1.88445e-21 1.30114 0.19023)
(-1.33014e-20 0.98595 0.0345288)
(-4.66427e-20 0.430347 -0.136174)
(-1.65502e-20 -0.534084 -0.311801)
(-2.24913e-21 -1.09131 -0.343385)
(6.48336e-24 -1.61294 -0.368)
(2.14982e-23 -2.08875 -0.379514)
(-1.21834e-23 -2.51766 -0.398347)
(-1.34245e-23 -2.89992 -0.395861)
(-3.35486e-23 -3.1664 -0.40516)
(5.04758e-23 -3.42145 -0.366998)
(-2.10283e-22 -3.51502 -0.373929)
(9.51063e-22 -3.78319 -0.283064)
(-4.40228e-21 -3.67955 -0.35864)
(4.75917e-20 -4.20444 -0.175864)
(-6.46653e-19 -3.78036 -0.456138)
(8.47095e-18 -4.561 -0.189673)
(-6.13126e-18 -5.72787 -0.523251)
(5.49449e-52 0.161846 0.188263)
(5.20317e-51 0.204887 0.184703)
(1.45903e-50 0.232542 0.185856)
(-2.74464e-52 0.259624 0.186125)
(-1.95282e-49 0.286117 0.187957)
(-8.25718e-49 0.31134 0.189924)
(-6.20389e-49 0.336207 0.192714)
(9.65108e-48 0.360471 0.195907)
(4.74317e-47 0.384487 0.199705)
(3.45487e-47 0.408243 0.203975)
(-6.14641e-46 0.431902 0.208778)
(-2.86065e-45 0.45551 0.214066)
(-6.92451e-46 0.479163 0.219858)
(4.40435e-44 0.50292 0.226135)
(1.71967e-43 0.526848 0.232904)
(-9.91347e-44 0.551002 0.240159)
(-3.17225e-42 0.57544 0.247903)
(-9.74455e-42 0.600212 0.256136)
(1.66487e-41 0.625367 0.264863)
(2.15509e-40 0.650952 0.274087)
(4.97465e-40 0.677011 0.283814)
(-1.62425e-39 0.703587 0.29405)
(-1.33724e-38 0.730718 0.304801)
(-2.20971e-38 0.75844 0.316073)
(1.22155e-37 0.786785 0.327872)
(7.46415e-37 0.815776 0.3402)
(8.37739e-37 0.845429 0.353059)
(-7.5265e-36 0.875748 0.366442)
(-3.72865e-35 0.906725 0.38034)
(-2.79715e-35 0.93833 0.394735)
(3.86004e-34 0.970514 0.409599)
(1.66894e-33 1.0032 0.424896)
(9.77491e-34 1.0363 0.440578)
(-1.64308e-32 1.06969 0.456586)
(-6.70686e-32 1.10322 0.472854)
(-4.51254e-32 1.13675 0.489312)
(5.68963e-31 1.17014 0.505888)
(2.40347e-30 1.20327 0.522515)
(2.43038e-30 1.23604 0.539131)
(-1.52042e-29 1.26845 0.555685)
(-7.48156e-29 1.30051 0.572132)
(-1.1621e-28 1.33231 0.588431)
(2.66725e-28 1.36399 0.604537)
(1.91645e-27 1.39572 0.620392)
(4.36039e-27 1.42765 0.635927)
(-5.49593e-28 1.45999 0.651065)
(-3.63955e-26 1.49297 0.665723)
(-1.21742e-25 1.52687 0.679797)
(-1.48834e-25 1.56202 0.693099)
(3.72458e-25 1.59862 0.705257)
(2.34099e-24 1.63651 0.7156)
(5.51036e-24 1.67491 0.723106)
(3.39432e-24 1.71246 0.72639)
(-2.36238e-23 1.74714 0.723678)
(-1.01536e-22 1.77626 0.712789)
(-2.06528e-22 1.79642 0.691137)
(-1.27708e-22 1.8033 0.655708)
(6.92785e-22 1.79127 0.603134)
(3.06048e-21 1.75277 0.529895)
(7.07589e-21 1.67764 0.432588)
(9.5419e-21 1.55062 0.308826)
(-4.01531e-22 1.3482 0.160124)
(-4.29545e-20 1.03768 -0.0141637)
(-1.25027e-19 0.49235 -0.198029)
(-2.68204e-20 -0.549703 -0.384328)
(-2.84979e-21 -1.11941 -0.378725)
(1.09937e-22 -1.63878 -0.386076)
(4.00467e-23 -2.11421 -0.390999)
(-1.18615e-23 -2.5435 -0.404099)
(-1.35113e-23 -2.92445 -0.396333)
(-3.35546e-23 -3.19208 -0.402174)
(5.01851e-23 -3.44412 -0.361577)
(-2.10113e-22 -3.53973 -0.367013)
(9.51798e-22 -3.79604 -0.276339)
(-4.44892e-21 -3.69937 -0.351041)
(4.85257e-20 -4.19633 -0.170979)
(-6.59502e-19 -3.78009 -0.446938)
(8.43301e-18 -4.54852 -0.185725)
(-5.22143e-18 -5.63152 -0.528913)
(8.1779e-52 0.162178 0.197141)
(1.16008e-50 0.205085 0.193138)
(3.72518e-50 0.23245 0.194239)
(2.15371e-50 0.259469 0.194372)
(-3.91973e-49 0.285831 0.196208)
(-1.93068e-48 0.310977 0.198178)
(-2.36328e-48 0.335752 0.201026)
(1.84633e-47 0.359937 0.204293)
(1.06522e-46 0.383871 0.208198)
(1.25192e-46 0.40755 0.212594)
(-1.1778e-45 0.43113 0.217544)
(-6.31197e-45 0.454663 0.222999)
(-4.29912e-45 0.478241 0.228976)
(8.57819e-44 0.501923 0.235457)
(3.77379e-43 0.525777 0.242446)
(-4.2029e-44 0.549857 0.249937)
(-6.25575e-42 0.574221 0.257934)
(-2.14436e-41 0.598918 0.266437)
(2.47158e-41 0.623998 0.275448)
(4.27499e-40 0.649507 0.284973)
(1.10773e-39 0.675489 0.295017)
(-2.76624e-39 0.701987 0.305584)
(-2.65468e-38 0.72904 0.316682)
(-5.05003e-38 0.756684 0.328316)
(2.16849e-37 0.784949 0.34049)
(1.47723e-36 0.813861 0.353206)
(2.0115e-36 0.843436 0.366462)
(-1.35123e-35 0.873679 0.380251)
(-7.33056e-35 0.904582 0.394558)
(-7.25235e-35 0.936118 0.409363)
(6.90209e-34 0.96824 0.424633)
(3.24521e-33 1.00088 0.440325)
(2.67629e-33 1.03393 0.456385)
(-2.89208e-32 1.06728 0.47275)
(-1.28221e-31 1.10078 0.489349)
(-1.15798e-31 1.1343 0.506111)
(9.72834e-31 1.16769 0.522965)
(4.48401e-30 1.20082 0.539846)
(5.48246e-30 1.23361 0.556702)
(-2.46951e-29 1.26602 0.573489)
(-1.35084e-28 1.2981 0.590174)
(-2.35775e-28 1.32992 0.606724)
(3.82903e-28 1.36163 0.623098)
(3.31843e-27 1.39339 0.639242)
(8.19176e-27 1.42537 0.655088)
(1.37077e-27 1.45777 0.670563)
(-5.95738e-26 1.49081 0.685597)
(-2.15521e-25 1.5248 0.700094)
(-2.97755e-25 1.56009 0.71386)
(5.40718e-25 1.59691 0.726478)
(3.95214e-24 1.63517 0.737183)
(9.7776e-24 1.67416 0.744836)
(7.01477e-24 1.71255 0.747937)
(-3.87764e-23 1.74839 0.744594)
(-1.7346e-22 1.77905 0.732511)
(-3.51401e-22 1.80119 0.708987)
(-1.86379e-22 1.81055 0.670878)
(1.31025e-21 1.80154 0.614666)
(5.4053e-21 1.76659 0.536682)
(1.15362e-20 1.69543 0.433333)
(1.21306e-20 1.57246 0.302066)
(-1.47348e-20 1.37399 0.144879)
(-1.03504e-19 1.0648 -0.0410769)
(-2.53725e-19 0.521962 -0.226914)
(-6.28121e-20 -0.510139 -0.45985)
(-6.36001e-21 -1.10469 -0.44205)
(5.02361e-22 -1.62369 -0.418852)
(1.10955e-22 -2.09852 -0.409813)
(-1.21557e-23 -2.52973 -0.414375)
(-1.39394e-23 -2.91264 -0.398338)
(-3.3561e-23 -3.18505 -0.39859)
(4.98182e-23 -3.43907 -0.354131)
(-2.09889e-22 -3.54157 -0.356947)
(9.5274e-22 -3.79283 -0.266226)
(-4.50558e-21 -3.70689 -0.339451)
(4.96698e-20 -4.18445 -0.162561)
(-6.74494e-19 -3.77772 -0.434771)
(8.38863e-18 -4.53967 -0.174678)
(-4.40743e-18 -5.56266 -0.54637)
(7.23543e-52 0.162704 0.207483)
(2.46836e-50 0.20539 0.203068)
(9.07545e-50 0.232338 0.204129)
(9.8171e-50 0.259249 0.204141)
(-7.37419e-49 0.285414 0.205994)
(-4.3327e-48 0.310439 0.207984)
(-7.22566e-48 0.335069 0.210912)
(3.29578e-47 0.359133 0.21428)
(2.29972e-46 0.38294 0.21832)
(3.67911e-46 0.4065 0.222874)
(-2.13758e-45 0.429962 0.228009)
(-1.34099e-44 0.453379 0.233671)
(-1.45439e-44 0.476841 0.239876)
(1.60499e-43 0.500409 0.246606)
(7.97981e-43 0.524148 0.253865)
(2.35226e-43 0.548115 0.261646)
(-1.19442e-41 0.572365 0.269952)
(-4.54166e-41 0.596948 0.278783)
(3.15113e-41 0.621913 0.288142)
(8.24152e-40 0.647306 0.298033)
(2.364e-39 0.673171 0.308461)
(-4.49764e-39 0.69955 0.319432)
(-5.13043e-38 0.726483 0.330952)
(-1.0953e-37 0.754005 0.343025)
(3.73817e-37 0.782149 0.355656)
(2.84805e-36 0.810939 0.368843)
(4.4894e-36 0.840393 0.382584)
(-2.36811e-35 0.870518 0.396869)
(-1.40424e-34 0.901307 0.411679)
(-1.68275e-34 0.932735 0.426989)
(1.20735e-33 0.964756 0.44276)
(6.14928e-33 0.997303 0.458943)
(6.33607e-33 1.03028 0.475478)
(-4.98436e-32 1.06357 0.492293)
(-2.38981e-31 1.09703 0.509315)
(-2.63028e-31 1.13052 0.526466)
(1.62826e-30 1.16389 0.543677)
(8.1628e-30 1.19702 0.560886)
(1.14754e-29 1.22982 0.578048)
(-3.91291e-29 1.26225 0.59513)
(-2.3827e-28 1.29436 0.612109)
(-4.56435e-28 1.32622 0.628963)
(5.20863e-28 1.35797 0.64566)
(5.61959e-27 1.38979 0.662148)
(1.48688e-26 1.42185 0.678362)
(5.88393e-27 1.45433 0.694237)
(-9.54817e-26 1.48748 0.709712)
(-3.70511e-25 1.52161 0.724708)
(-5.57331e-25 1.55711 0.739029)
(7.72691e-25 1.59428 0.752214)
(6.50529e-24 1.6331 0.763402)
(1.65654e-23 1.67294 0.771321)
(1.24114e-23 1.71256 0.774336)
(-6.38899e-23 1.75011 0.770411)
(-2.84465e-22 1.78303 0.757111)
(-5.48214e-22 1.80809 0.731594)
(-1.58569e-22 1.82112 0.69056)
(2.50331e-21 1.81658 0.630302)
(8.97486e-21 1.78692 0.546958)
(1.62352e-20 1.72174 0.436664)
(7.40129e-21 1.60493 0.296645)
(-5.7727e-20 1.41253 0.129023)
(-2.27536e-19 1.10584 -0.0710145)
(-4.7695e-19 0.571882 -0.265766)
(-1.57526e-19 -0.484061 -0.524716)
(-1.86072e-20 -1.10779 -0.528236)
(1.50643e-21 -1.62671 -0.469449)
(3.33546e-22 -2.0976 -0.436857)
(-1.17526e-23 -2.52902 -0.42956)
(-1.52882e-23 -2.91236 -0.402413)
(-3.35941e-23 -3.18727 -0.394792)
(4.94221e-23 -3.4415 -0.344871)
(-2.09629e-22 -3.54806 -0.344158)
(9.53706e-22 -3.79362 -0.252806)
(-4.56286e-21 -3.71529 -0.324612)
(5.0836e-20 -4.17546 -0.150864)
(-6.88936e-19 -3.77608 -0.419761)
(8.34457e-18 -4.52983 -0.161546)
(-3.65905e-18 -5.50733 -0.516688)
(-1.12833e-51 0.163215 0.217262)
(4.92824e-50 0.205693 0.212585)
(2.09685e-49 0.232262 0.213614)
(3.22119e-49 0.259066 0.213537)
(-1.25513e-48 0.28505 0.215414)
(-9.233e-48 0.309961 0.217436)
(-1.94773e-47 0.33446 0.220448)
(5.26867e-47 0.358413 0.223921)
(4.71706e-46 0.382105 0.228098)
(9.55326e-46 0.405557 0.232813)
(-3.5786e-45 0.428911 0.238132)
(-2.71223e-44 0.452223 0.243999)
(-3.99294e-44 0.475582 0.250431)
(2.83688e-43 0.499047 0.257407)
(1.60901e-42 0.522684 0.264931)
(1.06691e-42 0.546549 0.272997)
(-2.17882e-41 0.570697 0.281606)
(-9.17253e-41 0.595177 0.290758)
(2.76013e-41 0.620039 0.300457)
(1.52531e-39 0.645328 0.310706)
(4.7998e-39 0.671088 0.321511)
(-6.82154e-39 0.697362 0.332877)
(-9.53807e-38 0.724188 0.344809)
(-2.24722e-37 0.751603 0.357311)
(6.16632e-37 0.779638 0.370387)
(5.28648e-36 0.808321 0.384036)
(9.37265e-36 0.83767 0.398251)
(-3.99685e-35 0.867692 0.413021)
(-2.59061e-34 0.898384 0.428323)
(-3.58865e-34 0.929721 0.444127)
(2.03848e-33 0.961661 0.46039)
(1.12244e-32 0.994138 0.477055)
(1.36058e-32 1.02706 0.494056)
(-8.2961e-32 1.0603 0.511315)
(-4.29243e-31 1.09374 0.528751)
(-5.47499e-31 1.12722 0.546287)
(2.6288e-30 1.16059 0.563849)
(1.43288e-29 1.19372 0.581383)
(2.25065e-29 1.22654 0.598848)
(-5.94156e-29 1.25899 0.616223)
(-4.05388e-28 1.29112 0.633497)
(-8.40681e-28 1.323 0.650659)
(6.40725e-28 1.35479 0.667682)
(9.16958e-27 1.38665 0.684519)
(2.58393e-26 1.41876 0.701107)
(1.52187e-26 1.45131 0.717386)
(-1.46793e-25 1.48453 0.733311)
(-6.09262e-25 1.51876 0.74882)
(-9.79047e-25 1.55443 0.763722)
(1.04437e-24 1.5919 0.777518)
(1.01698e-23 1.63124 0.789253)
(2.62527e-23 1.6719 0.797526)
(1.93474e-23 1.7127 0.800572)
(-1.00433e-22 1.75188 0.796223)
(-4.27605e-22 1.78696 0.781911)
(-7.38676e-22 1.81477 0.754669)
(1.32639e-22 1.83124 0.711046)
(4.43742e-21 1.8309 0.647151)
(1.2842e-20 1.80621 0.558917)
(1.5843e-20 1.74663 0.442172)
(-1.9987e-20 1.63565 0.293883)
(-1.56432e-19 1.44907 0.115945)
(-4.34495e-19 1.14458 -0.0983049)
(-7.75405e-19 0.61825 -0.303504)
(-3.78599e-19 -0.458362 -0.590889)
(-5.55677e-20 -1.11676 -0.629389)
(3.64085e-21 -1.64183 -0.541587)
(9.8244e-22 -2.1067 -0.475518)
(-3.30561e-24 -2.53665 -0.450747)
(-1.89505e-23 -2.91957 -0.409464)
(-3.37481e-23 -3.19592 -0.391346)
(4.90028e-23 -3.44925 -0.334018)
(-2.09321e-22 -3.55871 -0.328678)
(9.54588e-22 -3.79722 -0.23593)
(-4.61724e-21 -3.72567 -0.306282)
(5.19623e-20 -4.16688 -0.135596)
(-7.02022e-19 -3.77486 -0.402092)
(8.30594e-18 -4.51889 -0.143422)
(-3.4652e-18 -5.44538 -0.530196)
(-8.67642e-51 0.163785 0.226964)
(9.11988e-50 0.206024 0.222116)
(4.59787e-49 0.232193 0.223125)
(9.05248e-49 0.258873 0.222989)
(-1.8303e-48 0.284655 0.224899)
(-1.86378e-47 0.309439 0.226967)
(-4.7947e-47 0.33379 0.230073)
(7.04237e-47 0.35762 0.233661)
(9.16851e-46 0.381184 0.237985)
(2.26494e-45 0.404517 0.242867)
(-5.38732e-45 0.427752 0.248379)
(-5.21621e-44 0.450948 0.25446)
(-9.6775e-44 0.474192 0.261127)
(4.71228e-43 0.497543 0.268358)
(3.09471e-42 0.521068 0.276156)
(3.10221e-42 0.54482 0.284515)
(-3.7975e-41 0.568856 0.293436)
(-1.76948e-40 0.593223 0.302919)
(-6.99039e-42 0.617971 0.312967)
(2.71397e-39 0.643146 0.323584)
(9.30113e-39 0.66879 0.334775)
(-9.53819e-39 0.694947 0.346545)
(-1.70901e-37 0.721655 0.358899)
(-4.38577e-37 0.748952 0.371842)
(9.74634e-37 0.776869 0.385375)
(9.46786e-36 0.805434 0.399497)
(1.84901e-35 0.834667 0.414199)
(-6.51369e-35 0.864577 0.429467)
(-4.61455e-34 0.895162 0.445275)
(-7.16335e-34 0.926401 0.461589)
(3.33229e-33 0.958253 0.47836)
(1.97967e-32 0.990655 0.495524)
(2.71826e-32 1.02352 0.513008)
(-1.33822e-31 1.05672 0.530728)
(-7.45765e-31 1.09013 0.548599)
(-1.06747e-30 1.12359 0.566535)
(4.10862e-30 1.15697 0.584468)
(2.43623e-29 1.19012 0.602342)
(4.19456e-29 1.22295 0.620126)
(-8.65329e-29 1.25542 0.63781)
(-6.68574e-28 1.28757 0.655394)
(-1.48819e-27 1.31947 0.672877)
(6.64231e-28 1.35129 0.690243)
(1.44707e-26 1.3832 0.707446)
(4.3356e-26 1.41536 0.724426)
(3.33328e-26 1.44798 0.741127)
(-2.15386e-25 1.48128 0.757523)
(-9.62042e-25 1.51561 0.773573)
(-1.64818e-24 1.55144 0.789099)
(1.23507e-24 1.58923 0.803572)
(1.48824e-23 1.62915 0.815939)
(3.88937e-23 1.67071 0.824674)
(2.866e-23 1.71284 0.827884)
(-1.39733e-22 1.75382 0.823266)
(-5.56359e-22 1.79128 0.808126)