/*--------------------------------*- C++ -*----------------------------------*\
| =========                 |                                                 |
| \\      /  F ield         | OpenFOAM: The Open Source CFD Toolbox           |
|  \\    /   O peration     | Version:  4.1                                   |
|   \\  /    A nd           | Web:      www.OpenFOAM.org                      |
|    \\/     M anipulation  |                                                 |
\*---------------------------------------------------------------------------*/
FoamFile
{
    version     2.0;
    format      ascii;
    class       volScalarField;
    location    "14";
    object      p;
}
// * * * * * * * * * * * * * * * * * * * * * * * * * * * * * * * * * * * * * //

dimensions      [0 2 -2 0 0 0 0];

internalField   nonuniform List<scalar> 
6785
(
737.996
683.8
631.934
583.225
538.059
495.75
456.111
418.851
383.532
349.89
318.543
290.117
261.262
226.319
195.824
264.853
242.981
238.293
234.768
229.403
223.887
218.932
214.732
211.442
209.174
208.136
208.759
211.048
213.196
213.148
166.731
161.089
167.029
170.75
173.52
176.839
180.44
184.088
187.718
191.182
194.267
197.059
199.924
202.247
202.832
211.233
211.143
215.538
215.656
215.498
215.549
215.325
214.84
214.17
213.342
212.326
211.147
210.115
209.764
209.998
224.553
225.462
227.201
225.462
224.163
223.093
221.818
220.549
219.405
218.425
217.627
216.98
216.481
216.389
216.512
214.072
214.844
215.953
215.481
215.584
215.809
215.925
216.127
216.425
216.774
217.156
217.539
217.799
218.05
217.976
210
210.791
212.251
213.133
213.964
214.585
215.065
215.544
215.986
216.355
216.65
216.87
216.887
216.915
216.475
212.133
212.674
214.127
215.315
215.884
216.153
216.331
216.487
216.586
216.632
216.639
216.623
216.401
216.336
215.792
214.423
214.537
215.606
216.605
216.733
216.696
216.66
216.623
216.561
216.49
216.416
216.355
216.039
215.974
215.418
214.854
214.714
215.422
216.271
216.194
216.098
216.036
215.97
215.896
215.829
215.76
215.718
215.358
215.301
214.737
213.732
213.564
214.107
214.969
214.921
214.927
214.942
214.934
214.915
214.9
214.863
214.859
214.487
214.453
213.883
211.724
211.668
212.207
213.161
213.263
213.46
213.627
213.758
213.871
213.974
214.03
214.109
213.774
213.806
213.279
209.406
209.331
209.925
211.042
211.311
211.737
212.107
212.456
212.791
213.121
213.386
213.668
213.451
213.628
213.262
202.803
203.452
204.733
206.566
207.764
209.26
210.694
212.089
213.419
214.629
215.671
216.444
216.648
217.131
216.644
203.301
198.617
196.335
196.107
196.503
198.245
200.468
203.109
205.814
208.544
210.959
212.989
214.782
216.937
218.358
260.237
260.204
260.262
259.963
259.977
259.739
259.724
259.238
259.169
259.149
259.135
258.213
257.6
257.964
257.234
256.855
257.137
257.336
256.035
255.258
255.645
254.701
254.158
254.768
255.107
253.855
253.069
253.581
254.191
252.751
252.249
252.93
251.89
251.25
252.143
253.119
251.759
251.453
252.365
251.386
250.743
251.724
252.905
251.969
251.284
252.087
253.449
252.411
252.333
253.515
252.798
252.321
253.147
254.539
253.962
253.54
254.157
255.57
254.98
254.915
256.092
255.72
255.499
255.837
257.027
256.757
256.54
257.43
257.265
257.192
257.037
257.766
257.699
257.684
257.225
257.48
257.659
257.068
256.621
256.793
257.203
256.936
256.085
263.529
254.879
255.301
255.39
255.467
255.652
256.066
256.006
255.211
262.12
252.371
252.381
252.815
253.2
253.314
253.82
253.721
252.542
256.545
247.603
247.289
246.805
246.628
246.689
246.632
246.719
246.249
244.148
242.152
233.493
232.34
230.967
229.55
229.044
229.299
228.409
224.843
211.98
208.234
207.332
205.679
203.22
201.181
200.151
199.187
195.213
173.035
170.673
167.514
165.452
162.961
160.007
157.484
154.471
149.35
118.488
123.646
119.01
114.661
110.049
106.188
102.43
98.7021
95.0569
90.3324
51.1137
66.0314
61.5967
58.8945
55.9644
51.9261
47.3161
46.3889
47.3629
13.9873
41.8087
39.6064
37.925
39.4254
37.8276
38.1002
37.4999
37.4297
36.6475
35.3251
35.1378
34.6292
33.9173
33.9142
33.9863
34.0401
34.0983
34.151
34.1894
34.1888
34.2153
34.2064
34.2129
34.2458
34.2436
34.2555
34.3025
34.2808
34.3619
34.4052
34.3413
34.3564
34.2538
34.5392
34.6679
34.169
34.3262
34.5488
34.1799
34.1676
33.6671
34.0999
34.5946
33.5117
33.4112
32.9851
34.1602
34.4524
32.0974
33.5575
34.6086
32.7149
32.6588
31.9047
33.4453
34.6695
32.5047
32.8587
32.5219
34.2209
34.7928
32.6576
34.5728
35.2324
33.8161
34.4825
34.2326
35.5398
35.4552
34.1299
34.5585
33.5197
33.8223
33.1544
30.3895
28.3948
25.9476
22.2657
17.5347
12.0685
7.07284
2.38099
-0.167394
-0.199651
-0.217515
-0.22344
-0.228428
-0.232402
-0.235373
-0.236354
-0.233838
-0.22569
-0.209218
-0.180711
-0.135319
-0.0685021
0.0255038
0.152184
0.316401
0.520863
0.764544
1.0398
1.33037
1.60898
1.83829
1.97623
1.98463
1.83078
1.47128
0.874863
0.0717452
-0.79695
-1.42262
-1.31384
-0.468914
0.479438
0.203585
0.142218
0.136933
-0.0236365
0.0266959
0.243286
0.654119
1.21192
2.3698
3.67448
4.04623
3.34703
3.88776
8.17008
14.2263
19.4669
21.0085
17.9586
11.4943
1.49985
-7.17454
-7.3496
-3.47073
-3.06747
-4.48022
-5.21126
-5.79959
-5.89938
-5.64092
-5.05764
-4.26235
-3.36695
-2.48855
-1.71328
-1.08228
-0.607336
-0.264262
-0.0417915
-0.000769365
0.0588565
-0.00360237
-0.167795
-0.586108
-0.441801
2.36912
-0.244141
-0.286704
-0.308127
-0.304979
-0.299127
-0.291118
-0.281572
-0.269187
-0.251976
-0.226961
-0.190487
-0.136838
-0.0592134
0.0479886
0.193396
0.385059
0.630036
0.932666
1.2925
1.69996
2.1333
2.55498
2.91157
3.13951
3.17552
2.9645
2.46589
1.72898
0.870227
-0.111961
-0.957632
-0.968504
-0.163429
1.08842
1.27084
0.878281
0.430137
0.0645713
-0.125681
0.0623986
0.581758
1.33788
2.71793
4.44017
4.98602
3.91272
3.81489
8.73192
17.055
25.5571
29.9303
27.5672
19.4707
5.88391
-8.07789
-13.0991
-11.7624
-12.3695
-14.5465
-16.2905
-17.7499
-17.929
-17.086
-15.1725
-12.3778
-9.04575
-5.73961
-3.05018
-1.28927
-0.359904
0.039474
0.0747283
0.0269416
0.0884702
-0.0425899
0.43909
1.38894
3.31515
8.92655
-0.194927
-0.217058
-0.224486
-0.199318
-0.169376
-0.135071
-0.0978595
-0.0563027
-0.00839594
0.0491125
0.120568
0.212042
0.329036
0.477771
0.666471
0.902613
1.19131
1.53458
1.92844
2.35847
2.79662
3.19795
3.50073
3.63363
3.52945
3.14436
2.48496
1.69444
0.865494
-0.192419
-1.0596
-1.007
-0.12747
1.14534
1.53303
1.04914
0.440535
0.0825989
-0.0362525
0.23515
0.960266
1.85925
3.43491
5.19116
5.38297
3.96094
3.63301
8.5261
16.5588
24.3127
27.4044
23.502
13.99
-0.35696
-14.2798
-19.4983
-19.3835
-21.4331
-24.761
-27.5402
-29.6846
-30.1379
-28.8974
-26.0285
-21.7522
-16.5158
-11.1086
-6.44186
-3.11416
-1.12811
-0.149081
0.0525068
0.0803384
0.130823
-0.0712086
0.76141
2.68475
6.7231
14.9739
-0.133694
-0.129553
-0.116835
-0.066859
-0.010144
0.052964
0.120346
0.193337
0.273818
0.365098
0.472191
0.599988
0.752027
0.935837
1.15738
1.42212
1.73214
2.08582
2.47423
2.87754
3.26216
3.57849
3.76215
3.74411
3.47175
2.94692
2.25387
1.52053
0.616439
-0.531488
-1.3191
-1.11538
-0.13936
1.14018
1.59268
1.10019
0.528481
0.286371
0.362311
0.774447
1.66428
2.6187
4.3186
5.85612
5.80692
4.35433
4.34824
9.24081
16.3181
22.0428
22.3911
16.1351
5.40835
-8.62881
-21.0523
-25.617
-26.7822
-30.6708
-35.4628
-39.2131
-41.6254
-42.1704
-40.6317
-36.9472
-31.3255
-24.25
-16.7065
-9.95809
-4.95961
-1.85742
-0.308294
0.0263962
0.0974237
0.168924
-0.116076
0.640266
2.71982
8.46351
19.1849
-0.0903208
-0.0608581
-0.0267517
0.0463202
0.12749
0.216285
0.310165
0.410207
0.518153
0.637078
0.771539
0.924994
1.10061
1.30541
1.54283
1.81551
2.12289
2.45952
2.8122
3.15739
3.45917
3.66852
3.72677
3.5802
3.21116
2.685
2.08142
1.3159
0.251071
-0.969499
-1.56663
-1.13876
-0.0261449
1.27389
1.70828
1.26509
0.830272
0.722698
0.981802
1.56577
2.39006
3.38263
5.06107
6.19686
5.98092
4.64276
5.09945
9.73702
15.4062
18.7954
16.6772
9.0167
-1.68739
-14.4457
-25.2062
-30.0297
-33.6203
-39.9533
-46.3399
-50.8882
-53.3638
-53.9219
-52.1819
-47.9063
-41.2256
-32.5755
-23.0361
-14.1676
-7.31825
-2.88535
-0.619998
-0.0737806
0.0535438
0.194225
-0.142973
0.544592
2.51037
9.39088
21.6454
-0.0591884
-0.00484149
0.0513505
0.146218
0.249997
0.362055
0.479445
0.602972
0.734213
0.875786
1.03086
1.20227
1.39363
1.60951
1.85149
2.11954
2.41073
2.71632
3.02044
3.29825
3.5151
3.62797
3.59176
3.3782
3.01076
2.57528
1.99321
1.09389
-0.147211
-1.36731
-1.71556
-1.02896
0.215654
1.52752
1.89417
1.51352
1.16572
1.19992
1.60996
2.27502
2.949
3.94641
5.53836
6.36173
5.90284
4.73284
5.56572
9.66275
13.7234
14.9955
11.3065
3.47293
-6.27487
-17.521
-27.3311
-33.7485
-40.5907
-49.3967
-57.1394
-62.2522
-64.7051
-65.2239
-63.3568
-58.672
-51.1834
-41.2133
-29.8476
-18.8813
-10.0665
-4.14618
-1.05984
-0.239983
0.00593765
0.220211
-0.168163
0.595515
2.63663
10.2946
23.6413
-0.0338093
0.0458891
0.12534
0.24208
0.368306
0.503144
0.6433
0.789293
0.942428
1.10487
1.27874
1.46648
1.67128
1.8955
2.1393
2.40057
2.67409
2.94894
3.20807
3.42748
3.5767
3.6224
3.53654
3.31507
2.99704
2.60088
1.92374
0.880228
-0.471078
-1.58872
-1.72142
-0.811938
0.5103
1.7703
2.05191
1.69077
1.40067
1.53978
2.03684
2.69247
3.33417
4.29205
5.72464
6.4173
5.73126
4.8697
5.94618
9.323
11.8775
11.5502
7.13671
-0.192771
-8.90986
-19.2201
-29.2451
-38.2649
-48.3318
-59.0416
-67.6943
-73.1454
-75.5266
-75.978
-74.0451
-69.1129
-61.0636
-50.0589
-37.1025
-24.1327
-13.2776
-5.70962
-1.66
-0.460231
0.0138725
0.259326
-0.206173
0.671829
3.00892
11.2636
24.8314
-0.0110942
0.0944199
0.198331
0.337627
0.486874
0.644908
0.80828
0.977243
1.15279
1.33671
1.53066
1.7365
1.95635
2.19114
2.43977
2.69857
2.96035
3.21288
3.43893
3.61658
3.72069
3.72774
3.62239
3.40723
3.09589
2.64007
1.85973
0.705321
-0.671101
-1.65535
-1.59562
-0.57847
0.76865
1.92964
2.10631
1.75219
1.52387
1.73652
2.2608
2.92663
3.6143
4.48917
5.70814
6.35645
5.68984
5.29683
6.44358
8.98718
10.2397
8.80633
4.12838
-2.65453
-10.8189
-21.032
-32.2654
-44.1674
-56.7639
-68.6583
-77.8428
-83.4667
-85.7496
-86.1247
-84.1651
-79.1048
-70.702
-58.9375
-44.663
-29.8533
-16.9471
-7.5975
-2.42217
-0.714423
0.0408449
0.271803
-0.220346
0.715808
3.40564
12.1237
25.719
0.0106193
0.142232
0.271619
0.434154
0.606929
0.788549
0.975621
1.16823
1.36715
1.57384
1.78964
2.01588
2.25368
2.50295
2.76142
3.02413
3.28236
3.52293
3.7287
3.87991
3.95542
3.93736
3.81145
3.56741
3.19786
2.66
1.81012
0.583654
-0.781759
-1.61423
-1.42607
-0.355387
0.956717
1.99757
2.10204
1.75954
1.62888
1.88072
2.43878
3.13179
3.90204
4.64467
5.65056
6.3079
5.97934
6.05837
7.07899
8.70626
8.80875
6.55614
1.70347
-4.81709
-12.9729
-23.7091
-36.6614
-51.1059
-65.3574
-77.9209
-87.4449
-93.1524
-95.3443
-95.6519
-93.6826
-88.5695
-79.9734
-67.7008
-52.4036
-35.979
-21.0758
-9.8397
-3.35833
-0.998815
0.000882166
0.188197
-0.165232
0.751016
3.78142
12.8009
26.3578
0.0320552
0.190105
0.345986
0.532463
0.729202
0.934663
1.14563
1.36214
1.58485
1.81501
2.05369
2.30179
2.55974
2.82655
3.09895
3.3708
3.63209
3.86859
4.06286
4.19607
4.24777
4.19921
4.0272
3.71392
3.25769
2.67404
1.77418
0.501696
-0.821615
-1.51728
-1.20967
-0.177951
1.10712
2.05081
2.10142
1.8226
1.77979
2.0696
2.66767
3.36648
4.23477
4.85682
5.70985
6.45437
6.63288
7.00854
7.7342
8.40554
7.4615
4.49891
-0.597197
-7.15589
-15.6643
-27.2302
-42.0109
-58.4243
-73.6513
-86.6344
-96.4279
-102.183
-104.323
-104.583
-102.601
-97.4656
-88.7833
-76.2157
-60.1904
-42.4203
-25.6394
-12.4533
-4.48678
-1.32269
-0.14386
0.0117199
-0.00914493
0.801383
4.21984
13.3434
26.83
0.0529883
0.237897
0.421407
0.632736
0.854116
1.08386
1.31899
1.55951
1.80607
2.05977
2.32151
2.59187
2.87072
3.15634
3.44456
3.72807
3.99545
4.23101
4.41594
4.52973
4.54867
4.44764
4.19806
3.79809
3.2904
2.67767
1.74654
0.454667
-0.788934
-1.34037
-1.01945
0.00868627
1.25562
2.10464
2.1713
1.97078
2.00763
2.34821
2.95625
3.66417
4.60475
5.20671
5.98299
6.83906
7.47651
7.9331
8.26016
8.01506
6.14639
2.52682
-2.86557
-9.65529
-18.7043
-31.2513
-47.7938
-65.6704
-81.4803
-94.7775
-104.79
-110.585
-112.73
-112.968
-110.954
-105.792
-97.0813
-84.3838
-67.9007
-49.0754
-30.5952
-15.4462
-5.83132
-1.69722
-0.333772
-0.128266
0.261274
0.907769
4.78896
13.8368
27.0556
0.0726682
0.284722
0.49697
0.734206
0.981174
1.23599
1.49591
1.76091
2.03157
2.3089
2.59364
2.88611
3.18568
3.48999
3.79399
4.08906
4.36202
4.59491
4.76595
4.85015
4.81843
4.64118
4.30446
3.8247
3.3048
2.67035
1.72289
0.452685
-0.689307
-1.14966
-0.793968
0.190116
1.38336
2.19068
2.28579
2.18187
2.29528
2.69733
3.2801
4.02626
4.99104
5.71403
6.50692
7.41937
8.31012
8.69186
8.5898
7.55688
4.93351
0.730231
-4.96124
-12.0978
-21.8087
-35.4869
-53.6994
-72.6895
-88.8863
-102.408
-112.57
-118.416
-120.632
-120.871
-118.799
-113.582
-104.859
-92.1411
-75.4241
-55.831
-35.8785
-18.8118
-7.41503
-2.1352
-0.486206
-0.11461
0.67569
1.16167
5.47691
14.3769
27.1591
0.0905321
0.329696
0.571529
0.835599
1.1091
1.3899
1.6755
1.96579
2.26126
2.56275
2.8708
3.18541
3.50548
3.82795
4.14677
4.45175
4.72727
4.95211
5.09974
5.13903
5.03767
4.7746
4.3532
3.83172
3.29908
2.65676
1.70679
0.473825
-0.544707
-0.890017
-0.585545
0.350113
1.50352
2.26601
2.41117
2.41879
2.62786
3.07017
3.63522
4.42583
5.38839
6.319
7.23067
8.13409
9.05361
9.28796
8.79036
7.15092
3.95709
-0.748215
-6.74778
-14.337
-24.833
-39.8251
-59.6184
-79.4804
-95.9512
-109.581
-119.823
-125.752
-128.102
-128.365
-126.21
-120.895
-112.141
-99.4531
-82.6639
-62.5675
-41.4055
-22.5275
-9.25534
-2.65358
-0.556041
0.0874096
1.25266
1.63768
6.23201
15.015
27.3506
0.106697
0.372629
0.644537
0.936031
1.2367
1.54418
1.85625
2.1727
2.49389
2.82043
3.15256
3.48986
3.83064
4.171
4.50362
4.81623
5.09004
5.29937
5.41171
5.39049
5.20624
4.85858
4.36131
3.82832
3.2862
2.63599
1.6858
0.549046
-0.333972
-0.641834
-0.385194
0.515894
1.58672
2.31347
2.5321
2.63433
2.96257
3.44459
4.04332
4.8655
5.83614
6.9595
8.03567
8.91897
9.734
9.82551
9.01412
6.93983
3.3077
-1.85702
-8.23169
-16.3951
-27.8052
-44.2734
-65.5248
-86.0533
-102.706
-116.332
-126.608
-132.671
-135.214
-135.52
-133.261
-127.801
-118.97
-106.305
-89.5395
-69.1684
-47.0799
-26.5546
-11.3607
-3.27037
-0.53667
0.458721
1.96589
2.34286
7.04191
15.757
27.6649
0.121942
0.414191
0.716407
1.03558
1.36369
1.69814
2.03707
2.38023
2.72785
3.08027
3.43735
3.79815
4.16018
4.51845
4.86392
5.18161
5.44869
5.63403
5.69922
5.60666
5.34097
4.91255
4.3693
3.81825
3.27459
2.60874
1.70403
0.646888
-0.127607
-0.369635
-0.158673
0.648391
1.64368
2.35675
2.62993
2.85268
3.28031
3.81459
4.5127
5.37346
6.36011
7.60594
8.86376
9.74368
10.4274
10.429
9.39839
6.99943
2.96536
-2.68329
-9.55413
-18.4094
-30.8409
-48.8662
-71.388
-92.3788
-109.129
-122.693
-132.989
-139.246
-142.032
-142.395
-140.019
-134.368
-125.39
-112.697
-95.994
-75.5328
-52.8002
-30.84
-13.7314
-4.00283
-0.435198
0.960173
2.76561
3.24611
7.95642
16.6225
27.9819
0.137326
0.455546
0.788262
1.13518
1.49075
1.85213
2.21792
2.58787
2.96215
3.34084
3.7234
4.10822
4.49185
4.86782
5.22482
5.54439
5.79873
5.95073
5.9575
5.78586
5.44073
4.94382
4.38596
3.81993
3.2707
2.59889
1.71083
0.767528
0.140123
-0.0759962
0.0500598
0.77666
1.71773
2.39366
2.72184
3.076
3.59844
4.19591
5.02601
5.95937
6.98134
8.26119
9.67634
10.6036
11.2172
11.1829
9.99796
7.30366
2.81606
-3.39702
-10.8914
-20.5208
-34.0397
-53.5976
-77.1422
-98.401
-115.187
-128.693
-139.031
-145.537
-148.603
-149.036
-146.534
-140.648
-131.445
-118.647
-102.002
-81.5838
-58.4668
-35.3186
-16.358
-4.8674
-0.263072
1.57352
3.62573
4.33197
9.04123
17.5903
28.3402
0.153757
0.49784
0.861399
1.23617
1.61917
2.0073
2.3997
2.79617
3.19687
3.60165
4.00955
4.41822
4.82298
5.21548
5.5815
5.89823
6.13228
6.24111
6.18162
5.9357
5.51931
4.98114
4.40255
3.83617
3.26455
2.58826
1.76434
0.931723
0.405238
0.183195
0.273842
0.940138
1.80355
2.45237
2.83942
3.30847
3.9287
4.59462
5.55351
6.59742
7.71313
8.95609
10.4711
11.5095
12.1536
12.1111
10.7811
7.75334
2.71483
-4.15051
-12.3521
-22.7901
-37.4241
-58.3994
-82.6938
-104.067
-120.87
-134.365
-144.791
-151.589
-154.96
-155.466
-152.836
-146.676
-137.176
-124.192
-107.568
-87.2682
-63.9855
-39.9162
-19.2217
-5.87985
-0.0402221
2.30129
4.56418
5.61677
10.3338
18.6601
28.743
0.171759
0.541829
0.93683
1.33972
1.75025
2.16505
2.58379
3.00638
3.43297
3.86319
4.29561
4.72697
5.15114
5.55741
5.92791
6.23473
6.43864
6.49327
6.36045
6.04441
5.57518
5.02707
4.43825
3.85549
3.28541
2.6116
1.81931
1.07101
0.634445
0.453463
0.533029
1.12498
1.92201
2.54459
2.98954
3.562
4.28039
5.01863
6.08436
7.26512
8.54174
9.74749
11.2866
12.4927
13.238
13.1838
11.6692
8.23636
2.55391
-5.00444
-13.9321
-25.1804
-40.9363
-63.1593
-87.9472
-109.343
-126.193
-139.75
-150.311
-157.43
-161.114
-161.693
-158.934
-152.475
-142.624
-129.384
-112.718
-92.5508
-69.2711
-44.5529
-22.2963
-7.05531
0.20463
3.15421
5.60816
7.12331
11.828
19.7908
29.1121
0.191474
0.587779
1.01508
1.44653
1.88492
2.32647
2.77144
3.21981
3.67167
4.12637
4.58187
5.0338
5.4742
5.88944
6.25738
6.54461
6.70706
6.6995
6.49973
6.12784
5.63389
5.07188
4.49126
3.90393
3.29937
2.62354
1.87288
1.22799
0.881938
0.736595
0.79439
1.33887
2.08063
2.6751
3.18132
3.84402
4.65363
5.48587
6.62843
7.94951
9.412
10.6814
12.1851
13.5813
14.4385
14.3444
12.5844
8.67561
2.30768
-5.91531
-15.5367
-27.5927
-44.4763
-67.7591
-92.8297
-114.221
-131.189
-144.886
-155.624
-163.077
-167.064
-167.71
-164.828
-158.061
-147.83
-134.271
-117.48
-97.4124
-74.2547
-49.1482
-25.548
-8.40769
0.435245
4.14322
6.7867
8.85835
13.4937
20.9431
29.5668
0.212801
0.635562
1.09621
1.55679
2.0235
2.49206
2.96333
3.43723
3.91375
4.39179
4.86844
5.33788
5.78981
6.20712
6.56286
6.81831
6.92679
6.8502
6.59068
6.18505
5.69249
5.13542
4.54605
3.9497
3.3389
2.67183
1.95998
1.40282
1.11374
0.983285
1.06447
1.5817
2.25517
2.85386
3.41188
4.15946
5.03872
5.99979
7.20462
8.63651
10.2796
11.7327
13.2327
14.7699
15.7136
15.5397
13.481
9.05076
2.0317
-6.7753
-17.0394
-29.9215
-47.946
-72.1089
-97.3075
-118.714
-135.887
-149.805
-160.749
-168.53
-172.799
-173.508
-170.514
-163.447
-152.824
-138.889
-121.882
-101.854
-78.8878
-53.6259
-28.936
-9.9469
0.610914
5.26763
8.12657
10.8102
15.3013
22.1476
30.0678
0.23557
0.684823
1.17996
1.6703
2.16586
2.66176
3.15942
3.65866
4.15916
4.65913
5.15447
5.63741
6.09475
6.50533
6.83745
7.0489
7.09633
6.96043
6.65929
6.24302
5.7461
5.20184
4.6272
4.02134
3.39089
2.72655
2.04051
1.5292
1.29552
1.23329
1.34516
1.82106
2.46213
3.06348
3.68216
4.49931
5.42941
6.53957
7.80779
9.33377
11.1271
12.826
14.4191
16.0266
17.0274
16.7412
14.358
9.40346
1.82263
-7.47131
-18.34
-32.0954
-51.2789
-76.1634
-101.388
-122.851
-140.316
-154.521
-165.696
-173.786
-178.309
-179.078
-175.987
-168.636
-157.616
-143.261
-125.959
-105.895
-83.1397
-57.9162
-32.4101
-11.6748
0.691419
6.50616
9.65487
12.9571
17.228
23.3759
30.5095
0.25968
0.735142
1.26596
1.7866
2.31149
2.83497
3.35903
3.88323
4.40675
4.92681
5.43765
5.929
6.38411
6.77748
7.07331
7.22885
7.21012
7.0239
6.70519
6.29896
5.81673
5.27755
4.69444
4.0818
3.43732
2.77024
2.11266
1.65693
1.48499
1.4743
1.60602
2.06739
2.68352
3.30333
3.98282
4.85539
5.84844
7.08276
8.43466
10.0642
11.9414
13.8906
15.6583
17.3199
18.3577
17.9507
15.2522
9.81215
1.77069
-7.9308
-19.3947
-34.0904
-54.4434
-79.9166
-105.107
-126.674
-144.497
-159.042
-170.466
-178.839
-183.588
-184.415
-181.242
-173.622
-162.208
-147.404
-129.745
-109.561
-86.9938
-61.9566
-35.9087
-13.5796
0.642331
7.81307
11.4021
15.2691
19.2617
24.5972
31.0855
0.285168
0.786124
1.35376
1.90513
2.45962
3.0107
3.56087
4.10926
4.65432
5.19185
5.714
6.20739
6.65139
7.01661
7.26576
7.36221
7.2922
7.07505
6.75124
6.346
5.8796
5.36211
4.78585
4.16052
3.50205
2.83873
2.21171
1.80002
1.65429
1.67994
1.86274
2.30897
2.90973
3.56944
4.31401
5.22306
6.31084
7.6401
9.10332
10.8402
12.7624
14.9042
16.8888
18.6374
19.7063
19.1951
16.2177
10.35
1.92981
-8.13817
-20.2152
-35.9171
-57.4308
-83.3856
-108.515
-130.225
-148.45
-163.368
-175.056
-183.685
-188.633
-189.516
-186.277
-178.401
-166.598
-151.332
-133.265
-112.88
-90.4475
-65.6924
-39.358
-15.6303
0.441373
9.12198
13.3944
17.6857
21.3835
25.8305
31.6121
0.312232
0.837431
1.44296
2.02521
2.60933
3.18766
3.76317
4.33435
4.8986
5.44992
5.97782
6.46543
6.88821
7.2141
7.4078
7.44446
7.33459
7.11137
6.79998
6.41151
5.95827
5.44302
4.86882
4.23827
3.57379
2.91175
2.2961
1.89647
1.79057
1.88579
2.09458
2.53773
3.15067
3.86636
4.66936
5.60141
6.81054
8.23227
9.80774
11.6723
13.6657
15.8906
18.1151
19.9848
21.0996
20.5148
17.3053
11.0628
2.31106
-8.12397
-20.8455
-37.5985
-60.2377
-86.5923
-111.658
-133.541
-152.184
-167.495
-179.462
-188.327
-193.445
-194.383
-191.091
-182.969
-170.785
-155.051
-136.538
-115.879
-93.5086
-69.078
-42.6741
-17.7731
0.0871476
10.3597
15.6307
20.1137
23.5619
27.0813
32.1066
0.341213
0.888745
1.53313
2.14609
2.75946
3.3642
3.96362
4.55534
5.13535
5.69545
6.22215
6.69504
7.08675
7.36581
7.50559
7.50083
7.36847
7.14131
6.8365
6.46572
6.03347
5.52761
4.94999
4.30865
3.63583
2.9751
2.38185
2.00838
1.93563
2.06191
2.31076
2.76458
3.40476
4.19008
5.0417
6.0131
7.33927
8.8483
10.5453
12.5606
14.674
16.9323
19.3769
21.3853
22.5794
21.9536
18.549
11.9686
2.89386
-7.93994
-21.3345
-39.1493
-62.8537
-89.5511
-114.569
-136.644
-155.705
-171.417
-183.677
-192.765
-198.028
-199.021
-195.687
-187.328
-174.77
-158.562
-139.575
-118.582
-96.1938
-72.0787
-45.77
-19.9323
-0.393027
11.4683
18.0585
22.468
25.7525
28.348
32.5456
0.372547
0.939709
1.62376
2.26686
2.90859
3.53824
4.15934
4.7683
5.35938
5.92183
6.43904
6.88767
7.23949
7.46774
7.55933
7.52573
7.39403
7.17806
6.88943
6.53423
6.11363
5.617
5.03902
4.39087
3.7141
3.06347
2.49659
2.13341
2.05558
2.22118
2.51611
2.98709
3.6904
4.53611
5.42934
6.46563
7.89094
9.48394
11.3315
13.4773
15.7626
18.1091
20.711
22.879
24.1888
23.5491
19.9668
13.065
3.64427
-7.63415
-21.7159
-40.5664
-65.2576
-92.2649
-117.264
-139.543
-159.012
-175.12
-187.694
-197.001
-202.389
-203.43
-200.068
-191.479
-178.551
-161.866
-142.388
-121.011
-98.5252
-74.6735
-48.5647
-22.0183
-0.943928
12.4233
20.5555
24.7109
27.8895
29.5622
32.9612
0.406712
0.989848
1.71419
2.38632
3.0549
3.70718
4.34674
4.96848
5.56462
6.12171
6.62044
7.036
7.34266
7.52335
7.58139
7.53381
7.40359
7.20006
6.93175
6.59758
6.18969
5.69658
5.11387
4.4596
3.786
3.15055
2.59357
2.22073
2.15746
2.37244
2.70058
3.22074
3.99988
4.89709
5.82957
6.96439
8.47236
10.1727
12.165
14.415
16.8985
19.4206
22.1493
24.5106
25.962
25.3267
21.5659
14.3385
4.53157
-7.23548
-22
-41.8307
-67.4212
-94.7267
-119.747
-142.236
-162.099
-178.597
-191.502
-201.031
-206.527
-207.608
-204.23
-195.42
-182.127
-164.967
-144.986
-123.184
-100.527
-76.856
-50.9921
-23.9403
-1.49654
13.2361
22.9398
26.8561
29.9061
30.7034
33.3947
0.444141
1.03848
1.80345
2.50285
3.19601
3.86771
4.52142
5.15027
5.74428
6.28766
6.75951
7.13623
7.39885
7.5436
7.58279
7.53786
7.41859
7.23025
6.97881
6.6618
6.26557
5.77517
5.18761
4.52648
3.8568
3.24099
2.69853
2.31899
2.2571
2.49984
2.88211
3.47117
4.3287
5.26886
6.25106
7.51857
9.09178
10.9306
13.0384
15.4108
18.0825
20.841
23.7276
26.3142
27.9203
27.2963
23.3442
15.7724
5.53801
-6.74939
-22.1774
-42.9147
-69.3152
-96.9248
-122.015
-144.719
-164.959
-181.842
-195.091
-204.85
-210.438
-211.545
-208.166
-199.146
-185.497
-167.868
-147.375
-125.113
-102.222
-78.6324
-53.008
-25.6236
-1.99284
13.9403
25.0311
28.9708
31.737
31.7949
33.7133
0.485109
1.08466
1.89017
2.61431
3.3289
4.01579
4.67823
5.30742
5.89147
6.41302
6.85156
7.18775
7.41207
7.53204
7.56579
7.52808
7.42468
7.25724
7.02461
6.72167
6.33484
5.85099
5.26511
4.60353
3.94154
3.34652
2.81139
2.41816
2.36056
2.62963
3.06229
3.74221
4.67349
5.65112
6.70125
8.11639
9.77465
11.7409
13.9576
16.4986
19.3443
22.3722
25.4759
28.3076
30.0717
29.4527
25.2905
17.3534
6.66118
-6.16211
-22.2267
-43.7915
-70.9165
-98.846
-124.064
-146.989
-167.585
-184.848
-198.453
-208.444
-214.108
-215.228
-211.864
-202.652
-188.66
-170.568
-149.558
-126.809
-103.628
-80.0201
-54.594
-27.0236
-2.41004
14.5723
26.7585
31.1646
33.3067
32.7988
33.9719
0.52955
1.12709
1.97243
2.71791
3.44978
4.14664
4.81148
5.43382
6.00057
6.49454
6.8984
7.20008
7.39944
7.50702
7.54138
7.51404
7.4289
7.28411
7.07231
6.78373
6.40348
5.91905
5.32587
4.65954
4.00325
3.42876
2.90808
2.52229
2.47178
2.75288
3.25702
4.02727
5.02038
6.04699
7.18408
8.71551
10.5331
12.6225
14.9738
17.6963
20.7206
24.0351
27.4048
30.4944
32.4133
31.782
27.3904
19.0744
7.91142
-5.44847
-22.1232
-44.4413
-72.2111
-100.479
-125.887
-149.043
-169.974
-187.612
-201.579
-211.8
-217.519
-218.639
-215.308
-205.931
-191.616
-173.067
-151.537
-128.279
-104.762
-81.0444
-55.7564
-28.132
-2.76941
15.1543
28.2254
33.5631
34.5769
33.7164
34.2123
0.576758
1.16408
2.04763
2.81014
3.55427
4.25516
4.91576
5.52457
6.06862
6.53297
6.90545
7.18087
7.36413
7.47006
7.51175
7.49917
7.43343
7.30838
7.1137
6.84027
6.47165
5.98949
5.3894
4.71859
4.07021
3.52129
3.02415
2.64199
2.58829
2.89172
3.46777
4.31401
5.36627
6.46704
7.70537
9.3224
11.3347
13.5773
16.092
19.023
22.2576
25.8455
29.5125
32.8712
34.9375
34.2707
29.6332
20.9363
9.30695
-4.57959
-21.8445
-44.8535
-73.1955
-101.814
-127.473
-150.88
-172.124
-190.125
-204.46
-214.902
-220.653
-221.76
-218.487
-208.975
-194.361
-175.362
-153.314
-129.532
-105.639
-81.7355
-56.5222
-28.9717
-3.12268
15.6872
29.6327
36.2536
35.5758
34.5675
34.3258
0.625161
1.19378
2.11273
2.88717
3.63794
4.3368
4.98724
5.57778
6.09724
6.53448
6.88247
7.14001
7.31506
7.42258
7.47559
7.48196
7.43873
7.33431
7.15426
6.88844
6.52094
6.0374
5.44026
4.77602
4.1426
3.62173
3.1548
2.78889
2.7345
3.04384
3.67735
4.59349
5.71531
6.92184
8.25243
9.96636
12.15
14.5907
17.2929
20.4501
23.9532
27.8081
31.7971
35.4338
37.6381
36.9098
32.0155
22.9459
10.8687
-3.52863
-21.373
-45.0252
-73.8748
-102.848
-128.811
-152.497
-174.036
-192.383
-207.085
-217.736
-223.494
-224.576
-221.389
-211.77
-196.89
-177.451
-154.89
-130.576
-106.271
-82.1238
-56.9313
-29.5806
-3.52209
16.1571
31.1354
39.217
36.3978
35.3518
34.389
0.671898
1.21432
2.16434
2.94512
3.6969
4.38851
5.02477
5.59551
6.09242
6.50806
6.83855
7.08568
7.25974
7.37422
7.44145
7.46634
7.44257
7.35616
7.19227
6.9392
6.57571
6.09024
5.49216
4.82858
4.21133
3.72819
3.30852
2.95865
2.90037
3.21689
3.88771
4.85838
6.07614
7.40919
8.81921
10.6543
12.9808
15.6463
18.5828
21.9756
25.7811
29.9263
34.2622
38.1796
40.5111
39.6969
34.5412
25.114
12.6155
-2.27445
-20.6966
-44.9593
-74.261
-103.581
-129.892
-153.886
-175.714
-194.385
-209.444
-220.29
-226.028
-227.079
-224.008
-214.302
-199.188
-179.332
-156.265
-131.417
-106.668
-82.2368
-57.0283
-29.9923
-3.98391
16.5543
32.7506
42.2746
37.1934
36.0649
34.3985
0.712662
1.22437
2.19937
2.98108
3.72919
4.41029
5.03132
5.58407
6.06285
6.46243
6.78131
7.02404
7.20097
7.32538
7.40863
7.45248
7.44806
7.37789
7.22569
6.98107
6.62611
6.15066
5.55938
4.89954
4.29718
3.85092
3.47814
3.15162
3.08894
3.39177
4.09468
5.13688
6.46555
7.91755
9.41533
11.3889
13.8704
16.7493
19.9574
23.6076
27.7268
32.2105
36.9131
41.1071
43.5532
42.638
37.2189
27.4515
14.5608
-0.803864
-19.8074
-44.6612
-74.37
-104.023
-130.709
-155.038
-177.16
-196.134
-211.525
-222.553
-228.251
-229.265
-226.335
-216.556
-201.239
-181.001
-157.439
-132.057
-106.842
-82.0982
-56.8554
-30.2206
-4.45965
16.9019
34.3338
45.0415
38.1424
36.6664
34.3872
0.742101
1.22366
2.21593
2.99433
3.73603
4.40609
5.0137
5.5522
6.01742
6.40595
6.71858
6.96082
7.14321
7.27903
7.37846
7.44092
7.45549
7.40344
7.26892
7.03585
6.68632
6.21382
5.62411
4.97237
4.39029
3.98711
3.66655
3.35167
3.26642
3.56559
4.3274
5.46083
6.88573
8.4258
10.059
12.1794
14.8455
17.9133
21.4016
25.3504
29.8026
34.6724
39.7521
44.2192
46.7684
45.7441
40.0585
29.9658
16.7097
0.887441
-18.7022
-44.1369
-74.2204
-104.186
-131.263
-155.948
-178.37
-197.637
-213.324
-224.521
-230.165
-231.13
-228.354
-218.521
-203.027
-182.453
-158.412
-132.502
-106.802
-81.7274
-56.4478
-30.2527
-4.83267
17.2878
35.6418
46.8819
39.38
37.1198
34.3719
0.755275
1.21338
2.21454
2.9875
3.72253
4.38335
4.98068
5.50864
5.96442
6.34627
6.6561
6.90026
7.08999
7.23844
7.35453
7.43631
7.47063
7.43614
7.31752
7.09821
6.76097
6.29264
5.70043
5.04994
4.48409
4.11898
3.83527
3.52314
3.42898
3.78145
4.62394
5.83364
7.31893
8.93569
10.7537
13.0195
15.8838
19.1547
22.9278
27.2118
32.0301
37.3186
42.7822
47.5244
50.1694
49.0268
43.0677
32.659
19.0587
2.79493
-17.3821
-43.3922
-73.8307
-104.089
-131.561
-156.613
-179.338
-198.897
-214.84
-226.191
-231.774
-232.665
-230.036
-220.196
-204.544
-183.681
-159.188
-132.752
-106.557
-81.1407
-55.8315
-30.0547
-4.94921
17.8693
36.5348
46.9908
41.0231
37.3416
34.3332
0.750113
1.19694
2.19917
2.96677
3.69648
4.35039
4.94016
5.46064
5.91021
6.28807
6.59717
6.84504
7.04366
7.20582
7.3393
7.44085
7.49539
7.48142
7.38006
7.16976
6.8343
6.36078
5.76227
5.11132
4.56253
4.2328
3.97465
3.66385
3.60645
4.07876
4.97458
6.22067
7.7616
9.47898
11.4816
13.9158
16.9714
20.487
24.5591
29.2007
34.4203
40.15
46.0092
51.0339
53.7696
52.4932
46.2499
35.5264
21.596
4.90644
-15.8523
-42.4324
-73.2178
-103.755
-131.616
-157.04
-180.06
-199.917
-216.079
-227.559
-233.077
-233.863
-231.357
-221.579
-205.788
-184.675
-159.771
-132.811
-106.117
-80.3522
-55.0218
-29.5847
-4.67127
18.8015
37.2922
45.1078
42.5646
37.2692
34.3177
0.728982
1.17966
2.1758
2.9391
3.66465
4.31333
4.89752
5.41262
5.85782
6.23327
6.54318
6.79624
7.00492
7.18166
7.33316
7.45502
7.52987
7.53459
7.44747
7.2443
6.90378
6.41389
5.79921
5.14682
4.61882
4.32086
4.08586
3.80784
3.85543
4.42402
5.36018
6.64037
8.23677
10.0765
12.236
14.8706
18.1265
21.9173
26.3037
31.3227
36.9758
43.1663
49.4377
54.7558
57.5739
56.1439
49.6031
38.5577
24.3039
7.20424
-14.1215
-41.262
-72.3952
-103.203
-131.445
-157.242
-180.542
-200.697
-217.055
-228.624
-234.08
-234.745
-232.341
-222.675
-206.768
-185.426
-160.159
-132.685
-105.492
-79.3754
-54.0255
-28.8085
-3.91716
20.117
38.4305
43.378
43.8149
36.5807
34.2839
0.697848
1.16624
2.14946
2.90942
3.63137
4.27592
4.85566
5.36639
5.80815
6.18223
6.4941
6.75348
6.9733
7.16561
7.33595
7.47839
7.57347
7.59521
7.51579
7.30722
6.94815
6.43415
5.80348
5.16155
4.66929
4.4048
4.20485
3.98913
4.13623
4.77688
5.77608
7.10081
8.75589
10.7209
13.0349
15.8874
19.3703
23.4452
28.1631
33.5839
39.6996
46.3703
53.0709
58.6898
61.5769
59.9765
53.1214
41.7398
27.1623
9.66797