/*--------------------------------*- C++ -*----------------------------------*\
| =========                 |                                                 |
| \\      /  F ield         | OpenFOAM: The Open Source CFD Toolbox           |
|  \\    /   O peration     | Version:  4.1                                   |
|   \\  /    A nd           | Web:      www.OpenFOAM.org                      |
|    \\/     M anipulation  |                                                 |
\*---------------------------------------------------------------------------*/
FoamFile
{
    version     2.0;
    format      ascii;
    class       surfaceScalarField;
    location    "14";
    object      phi;
}
// * * * * * * * * * * * * * * * * * * * * * * * * * * * * * * * * * * * * * //

dimensions      [0 3 -1 0 0 0 0];

internalField   nonuniform List<scalar> 
13220
(
-906.844
2206.74
-1504.66
1898.02
-1985.12
1780.36
-2354.93
1669.72
-2630.26
1575.53
-2818.7
1488.33
-2923.5
1404.7
-2944.47
1321.17
-2880.29
1235.72
-2727.84
1147.45
-2482.46
1054.82
-2127.46
944.893
-1626.89
799.339
-956.03
629.337
343.87
423.562
1783.18
466.655
1854.93
450.467
1796.55
411.027
1709.16
378.585
1607.98
352.468
1514.45
333.21
1423.96
321.507
1332.88
314.078
1243.15
304.764
1156.77
285.422
1074.16
242.313
988.007
165.822
875.834
88.5254
706.638
432.395
181.129
1602.06
20.9859
2015.07
-140.005
1957.54
-258.598
1827.75
-362.847
1712.23
-459.879
1611.49
-546.958
1511.05
-624.481
1410.4
-690.626
1309.3
-742.949
1209.1
-777.158
1108.38
-774.531
985.386
-684.663
785.975
-432.711
454.696
-0.315666
215.867
1386.19
135.92
2095.02
1.89868
2091.57
-93.4915
1923.15
-169.601
1788.34
-229.627
1671.52
-269.499
1550.92
-289.429
1430.34
-291.408
1311.28
-275.922
1193.61
-241.746
1074.2
-184.11
927.754
-101.16
703.032
-9.77777
363.322
-10.0933
282.449
1103.75
348.941
2028.53
326.014
2114.49
305.535
1943.63
296.107
1797.77
292.569
1675.06
292.631
1550.86
296.604
1426.37
303.275
1304.61
310.713
1186.18
318.296
1066.62
320.289
925.767
297.009
726.32
215.871
444.468
205.777
248.724
855.025
359.001
1918.26
369.955
2103.54
350.686
1962.9
335.587
1812.87
324.628
1686.02
313.263
1562.23
299.211
1440.42
283.368
1320.46
265.728
1203.82
244.898
1087.45
218.989
951.671
177.726
767.577
109.101
513.087
314.879
130.865
724.161
213.776
1835.35
238.482
2078.84
216.155
1985.23
192.805
1836.22
173.113
1705.71
154.553
1580.79
136.48
1458.49
118.612
1338.33
102.333
1220.1
87.7021
1102.08
75.0547
964.326
61.1495
781.489
44.5214
529.721
359.4
35.4026
688.758
84.8247
1785.93
124.735
2038.93
114.623
1995.34
99.3822
1851.46
87.6121
1717.48
75.9088
1592.49
65.1695
1469.23
55.7306
1347.76
46.6931
1229.13
39.0028
1109.77
35.4554
967.862
32.3671
784.566
28.3781
533.699
387.778
11.0805
677.676
48.4417
1748.56
92.662
1994.7
92.7849
1995.21
83.546
1860.7
75.8094
1725.22
68.7425
1599.56
61.1314
1476.84
54.0722
1354.82
47.4159
1235.79
40.5101
1116.68
38.2735
970.105
37.0287
785.817
28.8421
541.891
416.62
26.2544
651.418
66.9519
1707.86
105.338
1956.32
106.398
1994.15
96.975
1870.12
86.6089
1735.58
77.3118
1608.85
68.7962
1485.35
59.8961
1363.72
51.6662
1244.01
44.1906
1124.15
41.2699
973.014
39.6271
787.448
28.7979
552.709
445.418
38.5823
612.83
78.6003
1667.84
110.598
1924.31
111.066
1993.68
100.938
1880.24
89.7715
1746.74
78.4882
1620.13
68.1896
1495.65
58.4866
1373.42
48.7864
1253.71
40.6791
1132.25
39.0105
974.679
37.7853
788.667
26.285
564.204
471.703
12.923
599.901
32.472
1648.29
51.2342
1905.55
45.3069
1999.6
32.3005
1893.25
19.3441
1759.69
9.23358
1630.24
0.414136
1504.46
-6.03773
1379.86
-9.92235
1257.59
-11.4015
1133.73
-3.2968
966.568
8.91249
776.452
10.7565
562.354
482.459
-16.4043
616.302
1.95055
1629.93
14.3568
1893.14
15.7329
1998.23
9.34927
1899.63
-3.85144
1772.89
-17.9651
1644.35
-30.5704
1517.07
-42.9774
1392.27
-52.3825
1266.99
-50.6353
1131.98
-34.9448
950.867
-14.9354
756.433
-15.9519
563.362
466.508
-264.569
880.871
-430.205
1795.57
-533.063
1996
-591.897
2057.06
-615.66
1923.39
-620.519
1777.75
-611.161
1634.99
-591.014
1496.92
-556.014
1357.27
-500.234
1211.22
-402.678
1034.43
-284.982
833.183
-168.707
640.171
-83.6728
478.342
382.835
-242.694
-180.793
-261.657
-364.336
-506.776
-647.219
-759.264
-830.496
-862.203
-812.545
-733.426
-607.738
-464.541
-291.119
0.000922478
423.688
-423.686
423.69
423.691
423.692
792.788
-369.095
792.79
792.791
792.792
1107.23
-314.436
1107.23
1107.23
1386.19
-278.96
1386.19
1386.19
1386.19
1618.08
-231.886
1618.08
1618.08
1826.25
-208.169
1826.25
1826.26
1826.26
1981.69
-155.432
1981.69
1981.69
1981.69
2100.53
-118.842
2100.53
2100.53
2190.64
-90.1033
2190.64
2190.64
2190.64
2230.43
-39.7863
2230.43
2230.43
2239.36
-8.92662
2239.36
2239.36
2239.36
2194.57
44.7894
2194.57
2194.57
2194.57
2104.19
90.3795
2104.2
2104.2
1968.41
135.789
1968.41
1968.41
1968.41
1772.42
195.991
1772.42
1772.42
1772.42
1522.72
249.701
1522.72
1522.72
1219.24
303.487
1219.24
1219.24
1219.24
865.065
354.18
865.066
865.068
464.272
400.796
464.275
464.276
464.279
32.7007
431.579
32.7046
32.7057
32.7094
-400.445
433.154
-400.441
-400.443
-856.797
456.356
-856.799
-856.797
-852.586
-835.264
-825.323
-1634.23
823.661
-1597.5
-1555.11
-1502.21
-1447.12
-1390.52
-1329.66
-1254.58
-1169.97
-2470.44
1385.32
-2367.37
-2267.83
-2167.01
-2042.23
-1915.55
-1785.27
-1646.76
-1506.24
-3420.98
2071.31
-3241.68
-3062.08
-2880.46
-2696.82
-2503.31
-2293.65
-2080.8
-1859.39
-1633.78
-4179.61
2769.18
-3924.31
-3666.22
-3405.26
-3143.11
-2880.6
-2603.93
-2312.58
-2014.88
-5012.56
3287.85
-4712.13
-4402.09
-4078.89
-3752.85
-3425.79
-3097.53
-2760.83
-2399.31
-5678.22
3630.75
-5320.28
-4958.04
-4594.9
-4217.06
-3832.9
-3448.31
-3058.74
-2662.8
-5924.44
3655.25
-5523.65
-5116.22
-4709.14
-4304.2
-3903.13
-3502.69
-3105.8
-2712.65
-2319.66
-4549.07
2609.24
-4205.66
-3863.44
-3531.96
-3208.33
-2893.54
-2612.26
-2387.41
-2156.45
-2405.56
485.701
-2239.98
-2076.75
-2076.75
-1605.61
-471.141
-1096.45
-509.16
-1096.45
-720.901
-375.544
-720.899
-407.828
-313.07
-179.136
-228.688
-179.136
-19.5717
-159.559
15.0229
-34.5943
15.0267
-23.8028
38.8289
-23.7986
-75.7736
51.9738
-118.326
42.5559
-118.327
-124.936
6.61096
-124.938
-137.866
12.9298
-172.427
34.5577
-172.426
-228.055
55.6261
-302.066
74.0122
-302.069
-393.11
91.0421
-393.113
-504.228
111.114
-624.984
120.753
-624.984
-759.46
134.473
-759.461
-911.642
152.178
-1061.01
149.371
-1061.02
-1225.46
164.443
-1378.58
153.121
-1378.58
-1538.45
159.868
-1538.45
-1702.93
164.471
-1841.41
138.483
-1841.41
-1977.27
135.858
-1977.27
-2111.22
133.947
-2207.76
96.5399
-2207.76
-2300.48
92.7183
-2352.57
52.0867
-2352.57
-2387.03
34.4604
-2387.03
-2402.54
15.5106
-2373.26
-29.2771
-2373.26
-2318.45
-54.8114
-2318.45
-2236.83
-81.6234
-2111.65
-125.175
-2111.65
-1950.91
-160.746
-1749.79
-201.125
-1749.79
-1505.54
-244.248
-1505.54
-1217.83
-287.712
-896.97
-320.857
-896.971
-520.52
-376.451
-520.521
-59.9273
-460.595
510.516
-570.444
510.516
1093.73
-583.21
1804.52
-710.789
1804.51
2558.33
-753.819
2558.33
-789.911
-1912.67
1002.1
-1915.18
1075.69
-1916.72
1119.17
-1918.51
1169.95
-1920.35
1226.64
-1922.33
1290.2
-1924.49
1360.92
-1926.86
1438.7
-1929.47
1523.3
-1932.37
1614.22
-1935.61
1710.7
-1939.24
1811.71
-1943.32
1915.87
-1947.94
2021.46
-1953.16
2126.18
-1959.09
2227.25
-1965.83
2321.27
-1973.48
2404.32
-1982.18
2471.99
-1992.04
2519.81
-2003.18
2543.68
-2015.68
2540.91
-2029.73
2510.65
-2045.83
2453.95
-2064.48
2371.57
-2078.98
2258.76
-2049.82
2096.11
-1878.6
1837.71
-1472.4
1495.57
-894.107
1273.76
-347.477
1328
-0.109432
1407.09
184.987
1113.41
211.262
-129.053
-90.181
-1151.21
-344.2
-469.868
-424.877
605.96
-493.845
1404.84
-567.934
2116.88
-618.443
2730.72
-672.433
3224.11
-742.467
3782.73
-833.726
4379.31
-955.292
4871.93
-1124.63
5526.75
-1350.44
6819.88
-1611.14
8742.98
-1883.73
10486.9
-2136.99
11583.4
-2327.63
11812.4
-2434.32
11028.4
-2443.21
9514.88
-2330.69
7518.37
-2211.67
5745.28
-2336.36
5725.53
-2719.58
6536.08
-3117.53
6503.49
-3361.76
5628.78
-3473.62
4389.44
-3527.56
2848.16
-3548.85
1063.01
-3533.59
-798.646
-3463.84
-2645.17
-3315.51
-4293.37
-3058.92
-5590.75
-2676.77
-6357.47
-2180.22
-6441.1
-1612.87
-5782.5
-1033.66
-4471.63
-492.146
-2742.99
-88.4702
-948.774
56.0458
250.862
55.7049
242.682
78.2246
359.838
137.243
523.968
325.533
2210.05
563.519
4870.79
768.532
6232.47
3925.48
-1914.32
1012
-1917.4
1078.76
-1919.13
1120.91
-1921.07
1171.89
-1923.07
1228.64
-1925.27
1292.39
-1927.69
1363.34
-1930.38
1441.4
-1933.39
1526.31
-1936.76
1617.59
-1940.55
1714.49
-1944.8
1815.97
-1949.56
1920.63
-1954.88
2026.78
-1960.77
2132.07
-1967.25
2233.73
-1974.31
2328.34
-1981.94
2411.95
-1990.09
2480.14
-1998.72
2528.43
-2007.84
2552.81
-2017.68
2550.75
-2028.91
2521.88
-2042.25
2467.29
-2053.3
2382.62
-2034.82
2240.27
-1915.01
1976.3
-1603.8
1526.51
-1125.36
1017.12
-653.658
802.055
-290.601
964.947
-23.0405
1139.53
157.131
933.238
172.672
-144.595
-152.71
-825.825
-346.362
-276.216
-439.847
699.445
-525.732
1490.72
-591.709
2182.86
-636.041
2775.05
-690.456
3278.52
-761.912
3854.18
-843.626
4461.02
-958.189
4986.49
-1143.26
5711.82
-1401.38
7078
-1673.06
9014.66
-1935.98
10749.8
-2168.6
11816.1
-2330.04
11973.8
-2404.73
11103.1
-2363.47
9473.62
-2226.24
7381.14
-2245.47
5764.5
-2520.22
6000.28
-2879.09
6894.95
-3198.77
6823.18
-3415.97
5845.97
-3531.87
4505.35
-3592.44
2908.72
-3629.89
1100.45
-3634.66
-793.871
-3599.31
-2680.52
-3502.06
-4390.63
-3300.37
-5792.44
-2960.56
-6697.28
-2478.43
-6923.24
-1892.28
-6368.65
-1272.17
-5091.75
-681.877
-3333.28
-175.185
-1455.47
64.8465
10.8284
46.9517
260.573
73.4802
333.306
123.523
473.921
312.228
2021.35
547.347
4635.67
744.368
6035.45
3916.03
-1916.91
1020.79
-1920.2
1082.04
-1922.09
1122.8
-1924.14
1173.94
-1926.26
1230.76
-1928.6
1294.74
-1931.21
1365.95
-1934.14
1444.33
-1937.45
1529.62
-1941.18
1621.32
-1945.4
1718.71
-1950.16
1820.73
-1955.51
1925.98
-1961.47
2032.74
-1968.07
2138.67
-1975.27
2240.93
-1983.04
2336.11
-1991.28
2420.18
-1999.84
2488.69
-2008.55
2537.14
-2017.37
2561.62
-2026.6
2559.98
-2036.85
2532.14
-2045.66
2476.1
-2033.22
2370.17
-1933.26
2140.31
-1636.61
1679.65
-1136.43
1026.33
-700.211
580.902
-484.342
586.186
-295.207
775.812
-61.7298
906.054
106.395
765.113
113.231
-151.431
-129.073
-583.521
-316.994
-88.2949
-457.015
839.466
-545.653
1579.36
-606.772
2243.98
-650.585
2818.87
-707.473
3335.41
-781.013
3927.72
-862.937
4542.95
-980.488
5104.04
-1175.3
5906.64
-1445.12
7347.82
-1725.17
9294.71
-1988.25
11012.9
-2209.83
12037.6
-2350.62
12114.6
-2392.14
11144.6
-2303.73
9385.22
-2162.52
7239.93
-2276.03
5878.01
-2649.44
6373.69
-3023.96
7269.47
-3301.52
7100.74
-3479.77
6024.22
-3572.89
4598.47
-3608.2
2944.03
-3622.54
1114.79
-3628.79
-787.616
-3616.56
-2692.75
-3554.81
-4452.38
-3397.64
-5949.61
-3101.66
-6993.25
-2649.89
-7375.01
-2070.78
-6947.75
-1437
-5725.53
-831.23
-3939.05
-311.29
-1975.41
-2.0899
-298.372
41.9135
216.568
68.4743
306.743
104.848
437.545
286.177
1840.02
515.226
4406.62
701.79
5848.89
3907.03
-1920.55
1027.57
-1923.66
1085.15
-1925.76
1124.89
-1927.91
1176.1
-1930.15
1232.99
-1932.64
1297.22
-1935.43
1368.74
-1938.59
1447.49
-1942.18
1533.21
-1946.26
1625.41
-1950.9
1723.35
-1956.14
1825.97
-1962.04
1931.87
-1968.6
2039.31
-1975.84
2145.9
-1983.7
2248.79
-1992.08
2344.49
-2000.83
2428.93
-2009.74
2497.6
-2018.62
2546.03
-2027.56
2570.57
-2036.83
2569.24
-2044.56
2539.86
-2036.04
2467.59
-1956.46
2290.59
-1681.86
1865.71
-1107
1104.79
-480.951
400.279
-243.64
343.59
-297.544
640.089
-280.46
758.728
-122.675
748.268
27.8282
614.61
49.5208
-173.124
-109.341
-424.66
-311.996
114.36
-477.261
1004.73
-564.052
1666.15
-620.907
2300.83
-665.261
2863.22
-725.123
3395.27
-800.147
4002.75
-883.204
4626.01
-1006.33
5227.16
-1211.47
6111.78
-1490.26
7626.61
-1775.57
9580.02
-2037.13
11274.4
-2246.77
12247.3
-2366.16
12234
-2372.55
11151
-2245.15
9257.81
-2129.01
7123.79
-2341.55
6090.55
-2782.02
6814.16
-3151.48
7638.94
-3385.49
7334.75
-3520.01
6158.73
-3576.67
4655.13
-3585.1
2952.45
-3589.94
1119.63
-3604.55
-773.002
-3615.97
-2681.33
-3593.63
-4474.72
-3487.07
-6056.17
-3243.21
-7237.11
-2830.74
-7787.48
-2265.17
-7513.32
-1617.24
-6373.46
-985.434
-4570.86
-439.717
-2521.12
-40.8476
-697.242
53.8407
121.876
71.6381
288.942
88.3179
420.861
256.65
1671.69
475.474
4187.8
648.568
5675.79
3972.39
-1924.9
1032.88
-1927.85
1088.1
-1930.12
1127.17
-1932.37
1178.34
-1934.72
1235.35
-1937.35
1299.85
-1940.32
1371.71
-1943.71
1450.88
-1947.58
1537.08
-1952.01
1629.84
-1957.04
1728.38
-1962.73
1831.66
-1969.13
1938.27
-1976.23
2046.41
-1984.02
2153.69
-1992.42
2257.19
-2001.3
2353.38
-2010.48
2438.11
-2019.74
2506.87
-2029.01
2555.3
-2038.14
2579.69
-2045.03
2576.13
-2037.7
2532.53
-1972.74
2402.63
-1740.47
2058.32
-1175.97
1301.21
-357.677
286.499
124.263
-81.6616
174.709
293.143
84.5432
730.255
-42.4561
885.727
-73.7416
779.553
-23.7802
564.649
-15.0719
-181.833
-143.034
-296.697
-352.879
324.206
-499.786
1151.64
-581.1
1747.47
-634.851
2354.58
-680.487
2908.86
-743.195
3457.98
-819.019
4078.57
-904.348
4711.33
-1034.67
5357.49
-1250.3
6327.41
-1535.95
7912.25
-1824.21
9868.28
-2082.27
11532.5
-2278.54
12443.5
-2374.88
12330.3
-2344.92
11121
-2191.09
9103.98
-2125.74
7058.44
-2432.8
6397.62
-2910.3
7291.65
-3256.09
7984.73
-3440.9
7519.55
-3525.81
6243.65
-3542.59
4671.91
-3527.43
2937.29
-3523.07
1115.27
-3542.61
-753.464
-3575.37
-2648.57
-3590.47
-4459.62
-3535.88
-6110.75
-3350.72
-7422.28
-2989.17
-8149.03
-2450.49
-8052
-1797.55
-7026.4
-1139.56
-5228.85
-566.812
-3093.87
-96.0847
-1167.97
68.1273
-42.337
79.347
277.721
76.2328
423.973
225.968
1521.95
431.248
3982.52
591.023
5516.02
3992.97
-1929.91
1037.32
-1932.78
1090.96
-1935.17
1129.56
-1937.5
1180.68
-1939.98
1237.83
-1942.75
1302.62
-1945.91
1374.86
-1949.52
1454.49
-1953.67
1541.23
-1958.41
1634.58
-1963.81
1733.78
-1969.9
1837.75
-1976.73
1945.1
-1984.29
2053.97
-1992.54
2161.94
-2001.38
2266.03
-2010.66
2362.65
-2020.19
2447.64
-2029.77
2516.45
-2038.95
2564.49
-2045.46
2586.19
-2039.23
2569.91
-1986.8
2480.1
-1801.91
2217.74
-1325.34
1581.75
-478.784
454.659
84.5251
-276.81
177.752
-174.889
206.758
264.136
156.531
780.481
77.8459
964.412
4.72273
852.676
-11.8192
581.19
-46.8305
-146.822
-202.676
-140.853
-407.065
528.594
-521.961
1266.53
-597.136
1822.64
-648.672
2406.11
-696.394
2956.58
-761.25
3522.83
-837.637
4154.96
-926.505
4800.2
-1065.05
5496.03
-1290.89
6553.26
-1581.4
8202.76
-1870.77
10157.7
-2123.59
11785.3
-2305.21
12625.2
-2376.88
12402
-2311.39
11055.6
-2146.63
8939.21
-2151.04
7062.86
-2539.51
6786.08
-3026.42
7778.56
-3332.48
8290.8
-3462.33
7649.4
-3496.48
6277.79
-3477.1
4652.53
-3443.2
2903.39
-3431.5
1103.57
-3454.43
-730.541
-3505.18
-2597.82
-3554.24
-4410.56
-3550.49
-6114.5
-3427.61
-7545.16
-3126.11
-8450.53
-2626.79
-8551.33
-1979.22
-7673.97
-1297.33
-5910.74
-696.982
-3694.22
-218.031
-1646.92
25.328
-285.698
80.6699
222.374
65.8233
438.815
193.878
1393.89
384.246
3792.15
528.646
5371.61
4061.02
-1935.64
1041.21
-1938.45
1093.77
-1940.91
1132.02
-1943.34
1183.11
-1945.94
1240.43
-1948.86
1305.54
-1952.19
1378.19
-1956.02
1458.32
-1960.42
1545.63
-1965.44
1639.61
-1971.16
1739.49
-1977.61
1844.2
-1984.82
1952.32
-1992.77
2061.92
-2001.39
2170.56
-2010.58
2275.22
-2020.17
2372.24
-2029.93
2457.39
-2039.29
2525.8
-2046.1
2571.3
-2042.36
2582.45
-2003.16
2530.71
-1865.22
2342.16
-1501.4
1853.92
-771.323
851.668
-66.0661
-250.599
102.936
-445.813
83.1763
-155.13
112.071
235.242
119.101
773.451
95.5783
987.934
37.2902
910.964
11.194
607.286
-38.2397
-97.3883
-226.43
47.3379
-446.364
748.529
-542.778
1362.95
-612.458
1892.32
-662.528
2456.18
-712.899
3006.95
-779.176
3589.11
-856.354
4232.13
-949.737
4893.59
-1097.24
5643.54
-1332.45
6788.46
-1626.19
8496.5
-1915.13
10446.6
-2161.12
12031.3
-2326.86
12790.9
-2372.28
12447.4
-2274.27
10957.6
-2115.71
8780.65
-2201.15
7148.3
-2651.87
7236.8
-3123.83
8250.52
-3377.03
8544
-3449.34
7721.71
-3436.77
6265.23
-3387.55
4603.31
-3338.9
2854.74
-3320.91
1085.58
-3345.46
-705.99
-3409.79
-2533.49
-3487.36
-4332.99
-3530.65
-6071.21
-3470.92
-7604.89
-3236.69
-8684.76
-2789.1
-8998.92
-2159.41
-8303.66
-1459.11
-6611.03
-827.754
-4325.58
-334.877
-2139.8
-21.1858
-599.389
87.0859
114.101
59.9457
465.954
160.259
1293.58
334.866
3617.54
465.645
5240.84
4150.21
-1942.11
1044.71
-1944.88
1096.54
-1947.39
1134.54
-1949.9
1185.61
-1952.61
1243.13
-1955.66
1308.59
-1959.15
1381.68
-1963.17
1462.34
-1967.79
1550.25
-1973.07
1644.89
-1979.07
1745.49
-1985.83
1850.97
-1993.37
1959.85
-2001.64
2070.19
-2010.58
2179.5
-2020.04
2284.68
-2029.8
2382
-2039.26
2466.86
-2046.53
2533.07
-2045.3
2570.07
-2017.02
2554.18
-1915.27
2428.95
-1643.36
2070.25
-1054.31
1264.88
-211.643
8.99706
75.9392
-538.182
-38.1437
-331.731
19.0674
-212.341
66.8227
187.485
78.6529
761.62
76.1242
990.462
37.1115
949.976
19.1557
625.242
-69.2613
-8.97177
-290.356
268.432
-477.426
935.599
-562.312
1447.83
-627.245
1957.25
-676.719
2505.66
-729.836
3060.07
-797.175
3656.45
-875.487
4310.45
-974.028
4992.13
-1131.16
5800.67
-1374.45
7031.75
-1670.23
8792.28
-1957.32
10733.7
-2194.98
12268.9
-2343.42
12939.3
-2361.23
12465.2
-2235.94
10832.3
-2100.81
8645.52
-2270.59
7318.08
-2760.92
7727.13
-3197.07
8686.68
-3388.51
8735.44
-3405.27
7738.47
-3353.3
6213.26
-3280.94
4530.95
-3221.59
2795.38
-3199
1062.99
-3223.61
-681.381
-3296.47
-2460.63
-3395.57
-4233.89
-3479.58
-5987.2
-3480.66
-7603.8
-3318.08
-8847.34
-2933.27
-9383.72
-2335.01
-8901.93
-1624.61
-7321.44
-960.042
-4990.14
-446.544
-2653.29
-80.391
-965.543
84.2299
-50.5234
54.742
495.438
125.598
1222.72
284.12
3459.02
405.695
5119.26
4235.05
-1949.36
1047.89
-1952.08
1099.26
-1954.62
1137.08
-1957.19
1188.18
-1959.99
1245.92
-1963.15
1311.75
-1966.77
1385.31
-1970.95
1466.52
-1975.76
1555.05
-1981.26
1650.39
-1987.51
1751.74
-1994.55
1858
-2002.36
1967.67
-2010.91
2078.74
-2020.09
2188.68
-2029.69
2294.28
-2039.15
2391.46
-2046.84
2474.55
-2047.83
2534.06
-2028.32
2550.57
-1954.28
2480.14
-1753.46
2228.13
-1301.56
1618.34
-507.029
470.35
-4.98993
-493.042
-59.3404
-483.831
-69.5195
-321.552
-3.90895
-277.952
38.2859
145.29
51.1365
748.769
48.795
992.804
20.8683
977.903
3.17721
642.933
-148.787
142.993
-373.326
492.97
-504.525
1066.8
-580.953
1524.26
-641.834
2018.13
-691.427
2555.25
-747.045
3115.69
-815.432
3724.84
-895.23
4390.24
-999.444
5096.34
-1166.56
5967.78
-1416.64
7281.83
-1713.49
9089.14
-1997.32
11017.5
-2225.15
12496.8
-2354.7
13068.9
-2344.15
12454.7
-2199.01
10687.1
-2103.04
8549.54
-2352.87
7567.92
-2858.86
8233.11
-3242.45
9070.27
-3368.39
8861.37
-3335.62
7705.7
-3252.74
6130.38
-3163.9
4442.12
-3098.3
2729.79
-3073.13
1037.81
-3096.36
-658.154
-3172.52
-2384.47
-3285.24
-4121.17
-3401.55
-5870.89
-3458.07
-7547.28
-3368.3
-8937.11
-3055.27
-9696.75
-2502.28
-9454.92
-1792.97
-8030.75
-1095.79
-5687.32
-557.417
-3191.67
-183.135
-1339.82
34.1582
-267.816
41.3859
488.21
89.5512
1174.55
232.685
3315.88
346.15
5005.79
4293.48
-1957.39
1050.82
-1960.06
1101.93
-1962.61
1139.63
-1965.22
1190.79
-1968.07
1248.78
-1971.31
1314.99
-1975.04
1389.04
-1979.35
1470.83
-1984.32
1560.02
-1990.01
1656.08
-1996.47
1758.21
-2003.73
1865.26
-2011.77
1975.71
-2020.52
2087.49
-2029.79
2197.95
-2039.09
2303.58
-2047.07
2399.44
-2049.93
2477.41
-2037.6
2521.73
-1985.72
2498.68
-1842.35
2336.76
-1513.8
1899.58
-886.189
990.735
-179.611
-236.229
-51.8591
-620.794
-161.235
-374.456
-91.3297
-391.457
-44.1446
-325.138
3.54957
97.5957
18.9006
733.417
18.5532
993.151
-0.805278
997.261
-31.8253
673.952
-217.554
328.721
-422.882
698.298
-529.028
1172.94
-599.059
1594.29
-656.532
2075.61
-706.751
2605.47
-764.456
3173.39
-834.074
3794.45
-915.701
4471.87
-1026.13
5206.77
-1203.06
6144.71
-1458.92
7537.69
-1755.89
9386.11
-2035.04
11296.7
-2251.46
12713.2
-2360.45
13177.9
-2321.82
12416
-2166.21
10531.5
-2121.98
8505.32
-2441.01
7886.94
-2939.41
8731.51
-3258.49
9389.35
-3320.24
8923.12
-3246.48
7631.94
-3141.26
6025.16
-3042.66
4343.51
-2975.58
2662.71
-2949.88
1012.11
-2970.56
-637.479
-3045.1
-2309.93
-3163.3
-4002.97
-3302.1
-5732.09
-3405.92
-7443.46
-3386.71
-8956.32
-3151.69
-9931.76
-2657.18
-9949.43
-1962.4
-8725.53
-1236.69
-6413.03
-664.983
-3763.38
-281.837
-1722.97
-22.3891
-527.266
22.0743
443.742
50.8928
1145.73
180.878
3185.9
286.159
4900.51
4335.39
-1966.2
1053.55
-1968.8
1104.53
-1971.33
1142.16
-1973.95
1193.41
-1976.84
1251.67
-1980.14
1318.29
-1983.95
1392.85
-1988.37
1475.25
-1993.46
1565.12
-1999.3
1661.92
-2005.93
1764.83
-2013.36
1872.69
-2021.54
1983.89
-2030.32
2096.27
-2039.28
2206.91
-2047.3
2311.6
-2051.41
2403.55
-2044.12
2470.12
-2007.73
2485.34
-1904.28
2395.23
-1662.36
2094.85
-1174.59
1411.82
-411.979
228.12
-53.9795
-594.229
-192.382
-482.392
-194.724
-372.114
-131.326
-454.855
-98.2234
-358.24
-48.2343
47.6066
-25.5086
710.692
-15.3393
982.981
-28.2273
1010.15
-88.0331
733.758
-288.081
528.769
-462.458
872.676
-551.992
1262.48
-616.828
1659.13
-671.549
2130.33
-722.743
2656.66
-782.089
3232.74
-853.194
3865.56
-937.049
4555.73
-1054.19
5323.91
-1240.36
6330.88
-1501.2
7798.53
-1797.24
9682.14
-2070.31
11569.7
-2273.71
12916.6
-2360.6
13264.8
-2295.49
12350.9
-2140.01
10376
-2155.66
8520.98
-2527.97
8259.25
-2998.05
9201.59
-3245.96
9637.25
-3249
8926.16
-3143.86
7526.8
-3024.51
5905.81
-2922.84
4241.84
-2858.79
2598.66
-2834.35
987.675
-2851.69
-620.141
-2920.43
-2241.19
-3036.51
-3886.89
-3187.42
-5581.18
-3328.26
-7302.62
-3374.02
-8910.57
-3219.98
-10085.8
-2795.58
-10373.8
-2130.04
-9391.07
-1383.13
-7159.94
-771.726
-4374.78
-372.067
-2122.63
-82.1458
-817.186
0.703699
360.893
8.74063
1137.7
128.966
3065.67
229.796
4799.68
4364.06
-1975.79
1056.13
-1978.31
1107.05
-1980.79
1144.64
-1983.39
1196.02
-1986.29
1254.56
-1989.62
1321.62
-1993.48
1396.72
-1997.97
1479.74
-2003.16
1570.31
-2009.11
1667.87
-2015.84
1771.57
-2023.35
1880.2
-2031.51
1992.05
-2039.98
2104.74
-2047.82
2214.75
-2052.74
2316.52
-2049.15
2399.96
-2024.21
2445.17
-1950.64
2411.76
-1776.23
2220.83
-1416.21
1734.83
-787.011
782.617
-193.231
-365.66
-159.66
-627.801
-275.409
-366.643
-220.922
-426.601
-187.444
-488.334
-161.59
-384.094
-117.265
3.28131
-84.8298
678.255
-61.4256
959.577
-73.2999
1022.02
-161.621
822.079
-355.399
722.547
-496.941
1014.22
-574.039
1339.58
-634.379
1719.47
-687.105
2183.05
-739.402
2708.96
-800.097
3293.43
-872.77
3938.23
-959.388
4642.34
-1083.57
5448.09
-1278.26
6525.57
-1543.37
8063.64
-1837.32
9976.09
-2102.95
11835.4
-2291.73
13105.4
-2355.29
13328.3
-2266.7
12262.3
-2122.23
10231.6
-2200.65
8599.4
-2607.28
8665.88
-3032.28
9626.59
-3207.43
9812.4
-3160.08
8878.82
-3033.24
7399.97
-2907.5
5780.06
-2809.01
4143.35
-2751.61
2541.26
-2729.73
965.794
-2743.36
-606.503
-2803.27
-2181.29
-2910.88
-3779.28
-3063.9
-5428.16
-3230.18
-7136.34
-3332.32
-8808.43
-3258.65
-10159.5
-2913.65
-10718.8
-2292.47
-10012.3
-1534.8
-7917.61
-880.185
-5029.39
-459.694
-2543.12
-154.448
-1122.43
-28.5804
235.02
-37.3367
1146.45
76.4987
2951.84
174.282
4701.9
4377.6
-1986.14
1058.59
-1988.56
1109.47
-1990.97
1147.05
-1993.53
1198.58
-1996.41
1257.44
-1999.74
1324.95
-2003.63
1400.6
-2008.15
1484.26
-2013.39
1575.54
-2019.38
1673.85
-2026.12
1778.31
-2033.54
1887.62
-2041.34
1999.86
-2048.78
2112.17
-2054.02
2220
-2052.84
2315.34
-2035.77
2382.89
-1982.89
2392.3
-1855.68
2284.55
-1588.07
1953.22
-1092.5
1239.26
-388.078
78.199
-117.781
-635.958
-291.816
-453.765
-305.33
-353.129
-259.792
-472.139
-251.023
-497.104
-232.18
-402.937
-199.5
-29.3986
-158.472
637.227
-126.718
927.823
-144.072
1039.38
-247.323
925.33
-416.589
891.814
-528.052
1125.68
-595.479
1407
-651.869
1775.86
-703.397
2234.58
-756.709
2762.27
-818.69
3355.41
-892.755
4012.3
-982.773
4732.36
-1114.19
5579.51
-1316.69
6728.07
-1585.23
8332.19
-1875.95
10266.8
-2132.79
12092.2
-2305.39
13278
-2344.92
13367.8
-2237.13
12154.6
-2113.7
10108.1
-2252.49
8738.19
-2673.63
9087.02
-3041.53
9994.49
-3146.74
9917.61
-3058.88
8790.95
-2919.44
7260.53
-2794.35
5654.97
-2704.26
4053.26
-2655.75
2492.75
-2637.14
947.177
-2647.16
-596.48
-2696.56
-2131.89
-2791.12
-3684.71
-2937.53
-5281.75
-3117.34
-6956.53
-3264.92
-8660.84
-3267.44
-10157
-3008.07
-10978.2
-2445.84
-10574.5
-1690.76
-8672.68
-992.68
-5727.48
-547.276
-2988.52
-275.834
-1393.87
-100.031
59.2189
-84.806
1131.22
23.481
2843.55
119.34
4606.04
4371.76
-1997.24
1060.94
-1999.55
1111.78
-2001.86
1149.36
-2004.36
1201.08
-2007.19
1260.28
-2010.49
1328.24
-2014.35
1404.47
-2018.87
1488.78
-2024.08
1580.75
-2030.01
1679.79
-2036.6
1784.9
-2043.63
1894.64
-2050.47
2006.7
-2055.69
2117.39
-2056.04
2220.35
-2044.47
2303.78
-2006.43
2344.84
-1913.68
2299.55
-1716.58
2087.44
-1341.43
1578.07
-730.863
628.686
-219.05
-433.614
-236.742
-618.266
-362.271
-328.236
-326.546
-388.855
-311.067
-487.618
-315.583
-492.588
-307.765
-410.756
-289.941
-47.2221
-245.817
593.103
-213.917
895.923
-235.692
1061.15
-334.797
1024.43
-470.213
1027.23
-556.817
1212.28
-616.468
1466.66
-669.524
1828.91
-720.473
2285.53
-774.701
2816.5
-837.967
3418.68
-913.186
4087.52
-1007.23
4826.4
-1146.02
5718.29
-1355.6
6937.65
-1626.57
8603.15
-1912.96
10553.2
-2159.64
12338.9
-2314.62
13432.9
-2330.09
13383.3
-2208.34
12032.8
-2114.18
10014
-2306.38
8930.38
-2723.32
9503.96
-3026.94
10298.1
-3068.35
9959.01
-2950.31
8672.92
-2806.46
7116.68
-2688.09
5536.6
-2609.94
3975.11
-2571.03
2453.84
-2555.84
931.979
-2562.72
-589.596
-2601.32
-2093.29
-2680.34
-3605.69
-2813.41
-5148.68
-2995.53
-6774.42
-3176.13
-8480.24
-3247.31
-10085.8
-3076.32
-11149.2
-2586.14
-11064.7
-1849.18
-9409.65
-1111.95
-6464.7
-631.469
-3469
-399.731
-1625.61
-194.264
-146.252
-130.762
1067.72
-29.919
2742.7
68.6231
4507.5
4358.76
-2009.09
1063.14
-2011.27
1113.96
-2013.45
1151.55
-2015.85
1203.48
-2018.6
1263.02
-2021.82
1331.47
-2025.62
1408.26
-2030.04
1493.2
-2035.13
1585.84
-2040.84
1685.49
-2046.98
1791.05
-2053.06
1900.72
-2057.93
2011.56
-2059.05
2118.51
-2051.1
2212.39
-2023.23
2275.91
-1954.59
2276.2
-1807.78
2152.74
-1523.73
1803.39
-1033.83
1088.17
-390.229
-14.9178
-174.4
-649.443
-361.494
-431.172
-389.896
-299.835
-356.773
-421.978
-366.482
-477.909
-379.156
-479.914
-385.532
-404.379
-383.309
-49.4451
-342.925
552.719
-315.181
868.179
-334.625
1080.6
-415.418
1105.23
-516.465
1128.28
-583.828
1279.65
-637.181
1520.01
-687.642
1879.37
-738.322
2336.21
-793.482
2871.66
-857.91
3483.11
-934.184
4163.79
-1032.74
4924.96
-1179.01
5864.56
-1394.98
7153.62
-1667.18
8875.35
-1948.18
10834.2
-2183.36
12574.1
-2319.43
13569
-2311.51
13375.4
-2181.65
11902.9
-2122.44
9954.75
-2357.66
9165.61
-2754.25
9900.55
-2990.84
10534.7
-2976.79
9944.96
-2838.64
8534.76
-2697.38
6975.42
-2590.33
5429.56
-2525.71
3910.49
-2495.7
2423.83
-2483.67
919.948
-2488.22
-585.044
-2516.93
-2064.58
-2579.92
-3542.7
-2695.35
-5033.26
-2870.18
-6599.59
-3070.89
-8279.52
-3200.45
-9956.22
-3116.87
-11232.8
-2709.48
-11472.1
-2006.94
-10112.2
-1238.38
-7233.27
-708.512
-3998.87
-467.714
-1866.41
-257.897
-356.066
-175.769
985.592
-83.0524
2649.99
17.5247
4406.92
4321.48
-2021.68
1065.11
-2023.7
1115.98
-2025.72
1153.57
-2027.98
1205.74
-2030.6
1265.64
-2033.7
1334.56
-2037.35
1411.91
-2041.58
1497.44
-2046.38
1590.64
-2051.58
1690.7
-2056.79
1796.25
-2061.07
1905
-2062.43
2012.93
-2056.78
2112.86
-2035.96
2191.58
-1984.46
2224.41
-1874.3
2166.05
-1659.58
1938.02
-1277.91
1421.72
-694.431
504.689
-246.846
-462.503
-292.859
-603.43
-427.862
-296.17
-405.53
-322.167
-397.248
-430.261
-420.448
-454.709
-440.021
-460.341
-460.666
-383.735
-472.406
-37.7056
-440.054
520.366
-416.759
844.884
-428.138
1091.97
-485.084
1162.17
-556.456
1199.65
-609.499
1332.69
-657.901
1568.41
-706.405
1927.88
-756.963
2386.77
-813.101
2927.8
-878.473
3548.48
-955.94
4241.26
-1059.33
5028.35
-1213.1
6018.33
-1434.69
7375.22
-1706.92
9147.58
-1981.45
11108.7
-2203.78
12796.4
-2319.93
13685.2
-2289.98
13345.4
-2157.99
11771
-2136.5
9933.26
-2402.4
9431.51
-2765.85
10264
-2936.33
10705.2
-2876.37
9884.99
-2727.33
8385.73
-2594.26
6842.35
-2501.34
5336.63
-2449.88
3859.03
-2427.04
2400.99
-2417.69
910.603
-2420.9
-581.833
-2441.49
-2043.99
-2489.7
-3494.49
-2585.68
-4937.28
-2745.93
-6439.34
-2954.42
-8071.03
-3130.06
-9780.58
-3129.26
-11233.6
-2812.35
-11789
-2160.62
-10763.9
-1372.12
-8021.77
-786.657
-4584.34
-524.152
-2128.92
-314.069
-566.15
-221.548
893.067
-134.895
2563.33
-27.4486
4299.47
4264.75
-2034.97
1066.8
-2036.8
1117.81
-2038.63
1155.39
-2040.71
1207.82
-2043.14
1268.07
-2046.03
1337.45
-2049.42
1415.3
-2053.29
1501.31
-2057.52
1594.87
-2061.76
1694.94
-2065.24
1799.74
-2066.39
1906.14
-2061.99
2008.53
-2045.81
2096.68
-2006.13
2151.89
-1921.87
2140.15
-1757.75
2001.93
-1461.97
1642.24
-983.084
942.838
-397.673
-80.722
-223.523
-636.653
-413.492
-413.462
-455.815
-253.847
-426.61
-351.372
-441.801
-415.069
-470.255
-426.255
-496.61
-433.986
-529.971
-350.373
-552.008
-15.6689
-528.012
496.37
-507.743
824.615
-509.033
1093.27
-543.249
1196.39
-591.518
1247.92
-634.247
1375.42
-678.94
1613.1
-725.964
1974.9
-776.442
2437.25
-833.512
2984.87
-899.636
3614.6
-978.657
4320.28
-1087.04
5136.73
-1248.2
6179.48
-1474.59
7601.61
-1745.63
9418.62
-2012.59
11375.7
-2220.81
13004.6
-2316.29
13780.6
-2266.3
13295.4
-2137.85
11642.5
-2153.99
9949.4
-2437.54
9715.06
-2758.68
10585.1
-2866.83
10813.3
-2770.87
9789.04
-2618.97
8233.83
-2498.09
6721.47
-2420.12
5258.67
-2379.9
3818.82
-2362.02
2383.11
-2354.87
903.451
-2357.78
-578.918
-2372.45
-2029.32
-2408.32
-3458.62
-2485.28
-4860.32
-2626.32
-6298.3
-2831.76
-7865.59
-3040.17
-9572.16
-3114.17
-11159.6
-2891.88
-12011.3
-2306.46
-11349.3
-1512.44
-8815.79
-868.436
-5228.34
-575.696
-2421.65
-370.152
-771.692
-269.063
791.979
-184.818
2479.09
-70.9868
4185.64
4209.27
-2048.93
1068.13
-2050.54
1119.42
-2052.11
1156.96
-2053.94
1209.66
-2056.1
1270.23
-2058.66
1340.01
-2061.61
1418.25
-2064.85
1504.55
-2068.07
1598.09
-2070.64
1697.51
-2071.26
1800.35
-2067.39
1902.27
-2054.19
1995.33
-2022.72
2065.2
-1956.97
2086.14
-1829.94
2013.12
-1600.1
1772.08
-1216.02
1258.17
-663.502
390.317
-274.855
-469.368
-340.722
-570.787
-479.815
-274.369
-467.088
-266.574
-456.598
-361.862
-485.282