/*--------------------------------*- C++ -*----------------------------------*\
| =========                 |                                                 |
| \\      /  F ield         | OpenFOAM: The Open Source CFD Toolbox           |
|  \\    /   O peration     | Version:  4.1                                   |
|   \\  /    A nd           | Web:      www.OpenFOAM.org                      |
|    \\/     M anipulation  |                                                 |
\*---------------------------------------------------------------------------*/
FoamFile
{
    version     2.0;
    format      ascii;
    class       volScalarField;
    location    "2";
    object      p;
}
// * * * * * * * * * * * * * * * * * * * * * * * * * * * * * * * * * * * * * //

dimensions      [0 2 -2 0 0 0 0];

internalField   nonuniform List<scalar> 
225
(
-2.43509e+12
-2.03632e+12
-1.07068e+12
-7.45845e+11
-8.78953e+11
-9.72549e+11
-1.03634e+12
-1.1712e+12
-1.35666e+12
-1.45559e+12
-1.49368e+12
-1.46581e+12
-1.38491e+12
-1.35331e+12
-1.3806e+12
-3.05342e+11
-5.13675e+11
-1.24949e+12
-1.9037e+12
-2.00729e+12
-1.83946e+12
-1.71249e+12
-1.63475e+12
-1.47301e+12
-1.25199e+12
-1.16926e+12
-1.28421e+12
-1.44307e+12
-1.5911e+12
-1.76386e+12
-3.82911e+11
-4.03115e+11
-4.74821e+11
-5.80944e+11
-6.30151e+11
-6.24931e+11
-5.94998e+11
-6.03092e+11
-7.22469e+11
-8.80224e+11
-1.06971e+12
-1.37437e+12
-1.32396e+12
-7.75246e+11
-5.24209e+11
-4.77057e+10
-9.88077e+10
-1.54697e+11
-2.71257e+11
-4.0725e+11
-4.93517e+11
-5.63672e+11
-6.30478e+11
-7.0789e+11
-7.43216e+11
-7.10499e+11
-7.81731e+11
-1.17099e+12
-1.50587e+12
-1.46735e+12
-1.52886e+11
-2.01516e+11
-2.08762e+11
-1.8631e+11
-1.68993e+11
-1.61095e+11
-1.55118e+11
-1.59347e+11
-1.51503e+11
-1.54448e+11
-1.60592e+11
-1.45261e+11
-2.1581e+11
-2.73737e+11
-1.51804e+11
-1.66882e+11
-1.53541e+11
-1.37366e+11
-1.43694e+11
-1.70563e+11
-1.74064e+11
-1.57133e+11
-1.479e+11
-1.02726e+11
-2.88933e+10
1.73419e+10
3.15515e+10
9.67322e+09
-6.06301e+10
-7.3991e+10
-1.02619e+11
-1.06234e+11
-9.04782e+10
-8.24835e+10
-9.49948e+10
-1.12315e+11
-1.35949e+11
-1.35421e+11
-1.35055e+11
-1.43374e+11
-1.39305e+11
-1.28875e+11
-1.1458e+11
-1.10151e+11
-1.17997e+11
-5.044e+10
-6.06468e+10
-7.35988e+10
-6.42866e+10
-4.60004e+10
-3.8711e+10
-5.44199e+10
-7.3917e+10
-7.29537e+10
-8.22648e+10
-8.32866e+10
-7.16855e+10
-6.28467e+10
-3.85296e+10
-2.96392e+10
5.98267e+10
3.65312e+10
1.52035e+10
-3.09342e+10
-8.4848e+10
-1.07598e+11
-9.43067e+10
-7.22798e+10
-6.74195e+10
-8.65649e+10
-9.42114e+10
-8.1939e+10
-6.23531e+10
-3.02848e+10
1.07764e+10
-5.70899e+10
-6.62124e+10
-3.91752e+10
-1.49495e+10
-1.01058e+10
-2.14951e+10
-4.46848e+10
-6.51691e+10
-4.63262e+10
-5.16201e+09
7.20668e+09
-1.0506e+10
-3.86854e+10
-6.58851e+10
-6.10638e+10
-4.24538e+09
3.27625e+09
1.11425e+10
1.22959e+10
1.41636e+10
2.09229e+10
2.20539e+10
8.87767e+09
-1.37371e+10
-2.75962e+10
1.0161e+10
8.76086e+10
9.49618e+10
6.6916e+10
6.49194e+10
6.33373e+10
5.76829e+10
5.13743e+10
4.50168e+10
4.13058e+10
5.07918e+10
6.79823e+10
7.99714e+10
7.62148e+10
5.02244e+10
2.42555e+10
3.16463e+10
5.43861e+10
5.50195e+10
5.3741e+10
4.22048e+10
3.65721e+10
2.55152e+10
2.22086e+10
2.64054e+10
3.27756e+10
3.38714e+10
3.06018e+10
2.70833e+10
3.14365e+10
4.75968e+10
5.52069e+10
5.01546e+10
5.00281e+10
4.643e+10
1.22704e+11
1.00898e+11
7.60175e+10
5.85116e+10
5.84516e+10
5.64616e+10
4.97823e+10
4.53309e+10
4.74273e+10
5.04515e+10
4.33998e+10
2.06026e+10
-1.66655e+09
-1.8597e+10
-3.65381e+10
2.92444e+09
-5.39711e+10
-1.36627e+11
-1.55498e+11
-1.32457e+11
-9.23652e+10
-7.58021e+10
-6.07188e+10
-5.10193e+10
-4.81281e+10
-4.87533e+10
-5.05064e+10
-4.8559e+10
-2.64117e+10
2.49804e+10
)
;

boundaryField
{
    inletFace
    {
        type            zeroGradient;
    }
    inlet
    {
        type            zeroGradient;
    }
    inletWalls
    {
        type            zeroGradient;
    }
    outletInlet
    {
        type            fixedValue;
        value           uniform 0;
    }
}


// ************************************************************************* //
