/*--------------------------------*- C++ -*----------------------------------*\
| =========                 |                                                 |
| \\      /  F ield         | OpenFOAM: The Open Source CFD Toolbox           |
|  \\    /   O peration     | Version:  4.1                                   |
|   \\  /    A nd           | Web:      www.OpenFOAM.org                      |
|    \\/     M anipulation  |                                                 |
\*---------------------------------------------------------------------------*/
FoamFile
{
    version     2.0;
    format      ascii;
    class       surfaceScalarField;
    location    "2";
    object      phi;
}
// * * * * * * * * * * * * * * * * * * * * * * * * * * * * * * * * * * * * * //

dimensions      [0 3 -1 0 0 0 0];

internalField   nonuniform List<scalar> 
420
(
1.39822e+08
-1.39812e+08
2.54821e+08
-1.14991e+08
3.55904e+08
-1.01074e+08
3.87596e+08
-3.1683e+07
3.50424e+08
3.71813e+07
2.26277e+08
1.24152e+08
7.56246e+07
1.50657e+08
-3.98421e+07
1.15472e+08
-9.09232e+07
5.10898e+07
-1.30637e+08
3.97256e+07
-1.74266e+08
4.36397e+07
-2.2854e+08
5.42843e+07
-2.62427e+08
3.39074e+07
-1.88106e+08
-7.42847e+07
-1.88105e+08
-4.2045e+07
-9.77618e+07
-1.35398e+08
-2.16326e+07
-1.94694e+08
-4.17722e+07
-1.88371e+08
-3.79999e+07
-1.5714e+08
5.95614e+06
-7.99552e+07
4.69703e+07
1.52666e+07
5.54376e+07
4.5585e+07
8.51559e+07
3.04887e+07
6.61884e+07
4.91834e+07
2.10323e+07
1.00214e+08
-7.38918e+06
1.19994e+08
3.45037e+07
1.70462e+08
-1.65597e+07
1.43302e+08
-4.71242e+07
-4.48028e+07
-6.46335e+07
-3.31249e+07
-1.62093e+08
7.5829e+07
-2.79999e+08
7.61351e+07
-3.72792e+08
5.47951e+07
-4.30195e+08
6.33617e+07
-4.21716e+08
3.84932e+07
-3.68968e+08
2.69215e+06
-2.74761e+08
-9.04931e+06
-1.66173e+08
-4.23959e+07
-5.34485e+07
-9.16852e+07
4.41742e+07
-1.05007e+08
1.0243e+08
-2.3744e+07
1.09948e+08
-2.40715e+07
6.95688e+07
-6.73886e+06
2.4766e+07
-1.11588e+08
7.84671e+07
-1.2487e+08
8.91126e+07
-1.2752e+08
7.87874e+07
-1.51847e+08
7.91242e+07
-1.39863e+08
5.13788e+07
-1.09355e+08
7.98722e+06
-9.21295e+07
-1.45293e+07
-3.94421e+07
-6.17316e+07
-2.10506e+07
-6.07831e+07
-2.73718e+07
-8.53622e+07
-7.24528e+07
-5.99239e+07
-7.43927e+07
-2.18066e+07
-1.01511e+08
3.04504e+06
-1.22178e+08
1.39273e+07
-9.74123e+07
9.96629e+07
-2.11923e+07
2.08673e+08
-1.9896e+07
2.85147e+08
2.3157e+06
3.26818e+08
3.74542e+07
3.43497e+08
3.4703e+07
3.15464e+08
3.60223e+07
2.65476e+08
3.54609e+07
1.39946e+08
6.38011e+07
2.33326e+07
5.58309e+07
-9.43121e+07
3.22843e+07
-1.9491e+08
4.06735e+07
-2.51291e+08
3.45781e+07
-1.27966e+08
-1.20277e+08
-6.75599e+07
-4.64764e+07
-1.64972e+08
-2.71691e+06
-1.84745e+07
1.85438e+06
-2.44661e+07
-1.75292e+07
2.17016e+07
-3.09428e+07
5.08702e+07
-3.57067e+07
3.94683e+07
-2.33505e+07
2.36669e+07
1.77548e+07
-5.64444e+06
8.16118e+07
-55734.7
1.02071e+08
3.53714e+07
9.63535e+07
3.80008e+07
1.10652e+08
2.63746e+07
1.17635e+08
2.75875e+07
7.73003e+07
-7.99503e+07
7.29656e+07
-4.21467e+07
-9.20066e+07
7.38467e+07
-9.23192e+07
1.0855e+08
-5.91684e+07
1.34892e+08
-4.63992e+06
1.79217e+08
6.54662e+06
2.22849e+08
-4.16284e+06
2.61081e+08
-1.45647e+07
2.8269e+08
-2.72519e+07
3.00799e+08
-1.81647e+07
3.19826e+08
1.63456e+07
3.1666e+08
4.11676e+07
3.00961e+08
4.20734e+07
2.7462e+08
5.39343e+07
1.48335e+08
4.63399e+07
8.15862e+07
2.46061e+07
-1.04205e+07
4.98579e+07
-1.42177e+08
4.81805e+07
-5.74914e+07
5.49085e+07
-1.13683e+07
6.27046e+07
-1.25041e+06
5.35158e+07
5.02409e+06
2.57741e+07
1.31752e+07
-1.39272e+07
1.24458e+07
-3.90046e+07
6.90976e+06
-3.75788e+07
1.49162e+07
-3.93852e+07
4.29707e+07
-5.05709e+07
5.32586e+07
-5.41724e+07
5.75296e+07
-5.48471e+07
4.70096e+07
-4.42973e+07
1.40497e+07
-5.47177e+07
-1.37807e+08
-4.37398e+06
-2.24989e+08
2.9689e+07
-2.64618e+08
2.826e+07
-2.82138e+08
1.62685e+07
-2.94702e+08
1.7588e+07
-3.07789e+08
2.62613e+07
-3.2922e+08
3.38767e+07
-3.59208e+08
3.68973e+07
-3.76669e+08
3.23766e+07
-3.55777e+08
2.20787e+07
-2.94967e+08
-7.5519e+06
-2.00245e+08
-3.71893e+07
-1.20155e+08
-3.30775e+07
-5.53082e+07
-5.07894e+07
-1.10026e+08
-4.10314e+07
3.66552e+07
-6.64441e+07
5.50999e+07
-6.7349e+07
2.91629e+07
-6.23229e+07
1.12408e+07
-5.21494e+07
7.41302e+06
-3.54324e+07
9.54307e+06
-1.47451e+07
1.31877e+07
1.49107e+07
7.24026e+06
5.11336e+07
-3.84909e+06
8.89834e+07
-1.5781e+07
1.01969e+08
-2.05439e+07
1.02082e+08
-3.73182e+07
1.03613e+08
-3.46147e+07
8.43639e+07
-3.15487e+07
-2.56621e+07
-1.74407e+07
5.40913e+07
-1.44024e+07
5.20577e+07
9.31041e+06
5.4475e+06
2.63374e+07
-5.7881e+06
3.76716e+07
-3.9227e+06
3.68864e+07
1.03266e+07
3.4582e+07
1.54909e+07
6.67896e+07
-2.4969e+07
6.99879e+07
-7.04835e+06
6.79594e+07
-1.37531e+07
5.4918e+07
-7.5037e+06
2.17331e+07
-4.13165e+06
-1.12912e+06
-1.17515e+07
-9.50589e+06
-2.31703e+07
-3.51681e+07
6.11247e+07
-7.03853e+06
1.23058e+08
-9.88029e+06
1.68079e+08
-3.95777e+07
2.11306e+08
-4.90198e+07
2.50802e+08
-4.34242e+07
2.70457e+08
-9.33615e+06
2.78087e+08
7.84081e+06
2.62278e+08
-9.17715e+06
2.2768e+08
2.75394e+07
1.90453e+08
2.34643e+07
1.66383e+08
1.65629e+07
1.32247e+08
2.99953e+07
7.45064e+07
4.59826e+07
3.48736e+07
1.64557e+07
-294555
5.39709e+07
-6.10148e+07
7.73666e+07
-3.32792e+07
8.54968e+07
-4.77116e+07
9.2433e+07
-5.59608e+07
1.03318e+08
-5.4316e+07
9.04584e+07
3.51807e+06
6.65049e+07
3.17906e+07
2.32517e+07
3.40738e+07
1.73135e+07
3.34759e+07
3.77408e+06
3.70023e+07
-2.51807e+07
4.55162e+07
-4.28038e+07
4.76175e+07
-3.30773e+07
3.62545e+07
-1.15369e+07
-5.08881e+06
-1.18314e+07
1.71225e+07
-7.81396e+07
1.40556e+07
-3.02136e+07
-844799
-3.28138e+07
-2.96014e+07
-2.72074e+07
-5.89109e+07
-2.50096e+07
-8.07033e+07
2.53094e+07
-8.46601e+07
3.57466e+07
-7.69793e+07
2.63928e+07
-6.31057e+07
1.9602e+07
-4.82488e+07
2.21451e+07
-2.94971e+07
2.67645e+07
-818998
1.89389e+07
3.60743e+07
-638961
4.19297e+07
-1.09443e+07
3.00984e+07
-9.45844e+07
-1.44239e+08
-1.97532e+08
-2.4094e+08
-2.80514e+08
-2.65178e+08
-2.31792e+08
-1.9159e+08
-1.57412e+08
-1.23357e+08
-8.56321e+07
-5.73314e+07
-4.85449e+07
-4.48854e+07
)
;

boundaryField
{
    inletFace
    {
        type            calculated;
        value           nonuniform List<scalar> 
450
(
-7.5969e-05
-0.000121172
-0.000122331
-5.16589e-05
-2.34803e-05
-3.82085e-05
-4.45863e-05
-5.4231e-05
-7.95818e-05
-9.21788e-05
-9.41932e-05
-9.80975e-05
-9.79564e-05
-8.53712e-05
-4.62707e-05
-0.000145806
-0.000130752
-0.000124376
-9.16403e-05
-7.56812e-05
-7.71973e-05
-8.46274e-05
-9.05965e-05
-8.85952e-05
-8.51182e-05
-8.43362e-05
-8.90849e-05
-9.62321e-05
-9.66631e-05
-9.30153e-05
-0.000158554
-0.000114099
-0.000104532
-0.000103197
-0.000110388
-0.00010771
-0.000106813
-0.000100554
-9.13416e-05
-8.65115e-05
-8.18827e-05
-9.08755e-05
-9.37175e-05
-9.22955e-05
-0.000119341
-9.8528e-05
-0.000115008
-0.00012915
-0.000126429
-0.000124939
-0.000125979
-0.000125543
-0.000125117
-0.000111646
-8.89987e-05
-7.28321e-05
-7.96816e-05
-9.24677e-05
-8.46145e-05
-7.81067e-05
-4.91848e-05
-9.83134e-05
-0.000101442
-0.000111552
-0.000118959
-0.000122639
-0.000125979
-0.000125565
-0.000117358
-9.63495e-05
-6.90438e-05
-6.05658e-05
-6.01484e-05
-6.55088e-05
-3.80059e-05
-9.48095e-05
-9.2626e-05
-9.79598e-05
-0.000110377
-0.000115212
-0.000113204
-0.000107941
-0.000105162
-0.000105379
-0.000106671
-0.000103282
-8.58051e-05
-7.99457e-05
-5.00594e-05
-4.26085e-05
-6.07531e-05
-0.000105159
-9.95312e-05
-9.89465e-05
-9.5561e-05
-9.37738e-05
-9.17657e-05
-8.44028e-05
-8.20022e-05
-8.74059e-05
-9.48352e-05
-9.07119e-05
-8.64406e-05
-6.25457e-05
-5.1032e-05
-5.16252e-05
-0.00010829
-9.66338e-05
-9.28905e-05
-9.45002e-05
-9.32881e-05
-9.24761e-05
-9.10999e-05
-8.61268e-05
-8.11729e-05
-8.00766e-05
-7.8706e-05
-7.31867e-05
-6.00673e-05
-2.13012e-05
-9.14703e-05
-0.000103057
-8.93684e-05
-8.44775e-05
-8.86462e-05
-8.80745e-05
-8.75445e-05
-8.66621e-05
-8.51291e-05
-8.34153e-05
-8.24561e-05
-8.0439e-05
-7.81539e-05
-7.25079e-05
-6.17981e-05
-0.000112878
-0.000118824
-0.000102504
-9.22303e-05
-9.0794e-05
-9.08894e-05
-9.04463e-05
-8.73332e-05
-8.23829e-05
-7.97506e-05
-7.93042e-05
-7.72287e-05
-7.71627e-05
-8.01712e-05
-7.52698e-05
-8.36455e-05
-5.20253e-05
-5.23741e-05
-5.25738e-05
-5.28508e-05
-5.49474e-05
-5.89282e-05
-6.3033e-05
-6.44034e-05
-6.55012e-05
-6.80523e-05
-6.88299e-05
-6.717e-05
-6.80328e-05
-7.87615e-05
-4.87616e-05
-4.11584e-05
-2.90845e-05
-2.03504e-05
-1.77459e-05
-2.37328e-05
-2.93725e-05
-3.17849e-05
-4.2547e-05
-4.97101e-05
-5.90861e-05
-6.46456e-05
-6.4003e-05
-6.3706e-05
-5.12641e-05
-2.53767e-05
-2.09183e-05
-2.26129e-05
-2.12831e-05
-2.29468e-05
-3.48564e-05
-4.14424e-05
-4.08337e-05
-3.83431e-05
-3.97306e-05
-4.15906e-05
-3.60871e-05
-3.05346e-05
-3.64443e-05
-6.1773e-06
-1.35858e-05
-1.58356e-05
-1.31375e-05
-1.00929e-05
-1.53319e-05
-3.91262e-05
-3.60885e-05
-2.55279e-05
-1.77112e-05
-1.63812e-05
-1.7904e-05
-1.71276e-05
-1.35898e-05
-1.19157e-05
-6.70832e-06
-1.84076e-05
-1.84543e-05
-1.88512e-05
-1.94065e-05
-2.03162e-05
-2.17409e-05
-1.82274e-05
-1.26085e-05
-9.97955e-06
-1.03335e-05
-1.07901e-05
-1.04196e-05
-1.0869e-05
-1.18681e-05
-1.07394e-05
7.5969e-05
0.000121172
0.000122331
5.16589e-05
2.34803e-05
3.82085e-05
4.45863e-05
5.4231e-05
7.95818e-05
9.21788e-05
9.41932e-05
9.80975e-05
9.79564e-05
8.53712e-05
4.62707e-05
0.000145806
0.000130752
0.000124376
9.16403e-05
7.56812e-05
7.71973e-05
8.46274e-05
9.05965e-05
8.85952e-05
8.51182e-05
8.43362e-05
8.90849e-05
9.62321e-05
9.66631e-05
9.30153e-05
0.000158554
0.000114099
0.000104532
0.000103197
0.000110388
0.00010771
0.000106813
0.000100554
9.13416e-05
8.65115e-05
8.18827e-05
9.08755e-05
9.37175e-05
9.22955e-05
0.000119341
9.8528e-05
0.000115008
0.00012915
0.000126429
0.000124939
0.000125979
0.000125543
0.000125117
0.000111646
8.89987e-05
7.28321e-05
7.96816e-05
9.24677e-05
8.46145e-05
7.81067e-05
4.91848e-05
9.83134e-05
0.000101442
0.000111552
0.000118959
0.000122639
0.000125979
0.000125565
0.000117358
9.63495e-05
6.90438e-05
6.05658e-05
6.01484e-05
6.55088e-05
3.80059e-05
9.48095e-05
9.2626e-05
9.79598e-05
0.000110377
0.000115212
0.000113204
0.000107941
0.000105162
0.000105379
0.000106671
0.000103282
8.58051e-05
7.99457e-05
5.00594e-05
4.26085e-05
6.07531e-05
0.000105159
9.95312e-05
9.89465e-05
9.5561e-05
9.37738e-05
9.17657e-05
8.44028e-05
8.20022e-05
8.74059e-05
9.48352e-05
9.07119e-05
8.64406e-05
6.25457e-05
5.1032e-05
5.16252e-05
0.00010829
9.66338e-05
9.28905e-05
9.45002e-05
9.32881e-05
9.24761e-05
9.10999e-05
8.61268e-05
8.11729e-05
8.00766e-05
7.8706e-05
7.31867e-05
6.00673e-05
2.13012e-05
9.14703e-05
0.000103057
8.93684e-05
8.44775e-05
8.86462e-05
8.80745e-05
8.75445e-05
8.66621e-05
8.51291e-05
8.34153e-05
8.24561e-05
8.0439e-05
7.81539e-05
7.25079e-05
6.17981e-05
0.000112878
0.000118824
0.000102504
9.22303e-05
9.0794e-05
9.08894e-05
9.04463e-05
8.73332e-05
8.23829e-05
7.97506e-05
7.93042e-05
7.72287e-05
7.71627e-05
8.01712e-05
7.52698e-05
8.36455e-05
5.20253e-05
5.23741e-05
5.25738e-05
5.28508e-05
5.49474e-05
5.89282e-05
6.3033e-05
6.44034e-05
6.55012e-05
6.80523e-05
6.88299e-05
6.717e-05
6.80328e-05
7.87615e-05
4.87616e-05
4.11584e-05
2.90845e-05
2.03504e-05
1.77459e-05
2.37328e-05
2.93725e-05
3.17849e-05
4.2547e-05
4.97101e-05
5.90861e-05
6.46456e-05
6.4003e-05
6.3706e-05
5.12641e-05
2.53767e-05
2.09183e-05
2.26129e-05
2.12831e-05
2.29468e-05
3.48564e-05
4.14424e-05
4.08337e-05
3.83431e-05
3.97306e-05
4.15906e-05
3.60871e-05
3.05346e-05
3.64443e-05
6.1773e-06
1.35858e-05
1.58356e-05
1.31375e-05
1.00929e-05
1.53319e-05
3.91262e-05
3.60885e-05
2.55279e-05
1.77112e-05
1.63812e-05
1.7904e-05
1.71276e-05
1.35898e-05
1.19157e-05
6.70832e-06
1.84076e-05
1.84543e-05
1.88512e-05
1.94065e-05
2.03162e-05
2.17409e-05
1.82274e-05
1.26085e-05
9.97955e-06
1.03335e-05
1.07901e-05
1.04196e-05
1.0869e-05
1.18681e-05
1.07394e-05
)
;
    }
    inlet
    {
        type            calculated;
        value           nonuniform List<scalar> 
15
(
-1299.9
-1300.2
-1299.9
-1299.9
-1300.2
-1299.9
-1299.9
-1300.2
-1299.9
-1299.9
-1300.2
-1299.9
-1299.9
-1300.2
-1299.9
)
;
    }
    inletWalls
    {
        type            calculated;
        value           uniform 0;
    }
    outletInlet
    {
        type            calculated;
        value           nonuniform List<scalar> 
15
(
-1.47871e+07
-1.46005e+07
-9.42246e+06
-9.35871e+06
-1.09578e+07
-1.19065e+07
-1.45695e+07
-1.38033e+07
2.36853e+06
9.97903e+06
1.45703e+07
1.6205e+07
2.04859e+07
1.94488e+07
1.64571e+07
)
;
    }
}


// ************************************************************************* //
