/*--------------------------------*- C++ -*----------------------------------*\
| =========                 |                                                 |
| \\      /  F ield         | OpenFOAM: The Open Source CFD Toolbox           |
|  \\    /   O peration     | Version:  4.1                                   |
|   \\  /    A nd           | Web:      www.OpenFOAM.org                      |
|    \\/     M anipulation  |                                                 |
\*---------------------------------------------------------------------------*/
FoamFile
{
    version     2.0;
    format      ascii;
    class       volVectorField;
    location    "2";
    object      U;
}
// * * * * * * * * * * * * * * * * * * * * * * * * * * * * * * * * * * * * * //

dimensions      [0 1 -1 0 0 0 0];

internalField   nonuniform List<vector> 
225
(
(5.21903e-07 18823.4 -1.26329e+06)
(8.33026e-07 22417.1 -1.9105e+06)
(8.47966e-07 528047 -2.05831e+06)
(3.55832e-07 504144 -759767)
(1.59182e-07 -2.10934e+06 1.05352e+06)
(2.66462e-07 -1.97301e+06 2.25302e+06)
(3.07258e-07 -2.06098e+06 2.09939e+06)
(3.73992e-07 -353451 986177)
(5.53796e-07 -20999 -346101)
(6.33603e-07 -259097 -162611)
(6.47967e-07 4509.28 217448)
(6.82978e-07 -211019 498997)
(6.73174e-07 -256442 663986)
(5.81104e-07 -181585 45865.6)
(3.36618e-07 -928987 -1.33604e+06)
(1.00803e-06 -692645 -1.29451e+06)
(9.05274e-07 317356 -805108)
(8.61028e-07 747592 -1.38862e+06)
(6.32376e-07 1.11164e+06 -1.22292e+06)
(5.23986e-07 -669252 -338667)
(5.34421e-07 -1.26428e+06 1.08222e+06)
(5.85258e-07 -1.17514e+06 1.77859e+06)
(6.27254e-07 -1.12224e+06 1.73642e+06)
(6.13327e-07 -1.23816e+06 1.47726e+06)
(5.88479e-07 -1.06256e+06 1.13802e+06)
(5.8391e-07 -875564 836437)
(6.16717e-07 -473019 789790)
(6.6556e-07 -832383 486394)
(6.69256e-07 -714954 290769)
(6.43926e-07 -607809 -470484)
(1.10169e-06 -954979 -996509)
(7.90163e-07 -397305 -78420.6)
(7.23742e-07 98929 -124196)
(7.15916e-07 313714 -293694)
(7.64197e-07 281809 344528)
(7.45744e-07 24384 344230)
(7.40871e-07 -145273 -98427.3)
(6.96119e-07 197405 355441)
(6.32415e-07 51028.2 -29957.4)
(6.02245e-07 592.415 -899430)
(5.66731e-07 -189883 -1.49037e+06)
(6.29187e-07 462565 -411016)
(6.50645e-07 -317042 -990535)
(6.38695e-07 -271100 -1.05794e+06)
(8.26272e-07 593066 -61923.7)
(6.81109e-07 -570588 519773)
(7.96898e-07 -1.00849e+06 1.20873e+06)
(8.93985e-07 -945879 1.22372e+06)
(8.75356e-07 -739045 943532)
(8.65693e-07 -544867 686152)
(8.71693e-07 -584310 540402)
(8.69273e-07 -693101 325920)
(8.68544e-07 -887541 -586871)
(7.72117e-07 -511559 -1.09834e+06)
(6.16158e-07 379445 -1.64196e+06)
(5.05629e-07 169631 -1.61297e+06)
(5.51097e-07 481281 -785359)
(6.40348e-07 -71088.9 -398680)
(5.86659e-07 274878 4975.22)
(5.40317e-07 249957 -191575)
(3.41627e-07 -307383 79965.1)
(6.82061e-07 -405824 -369298)
(7.03083e-07 -622943 -488685)
(7.72675e-07 -775088 -10101.8)
(8.25205e-07 -960007 -235425)
(8.50361e-07 -1.03988e+06 -720287)
(8.73168e-07 -1.11485e+06 -732703)
(8.72112e-07 -1.09192e+06 -878541)
(8.13175e-07 -639575 -522394)
(6.67635e-07 11682.4 -975988)
(4.79254e-07 287049 -595909)
(4.19765e-07 315435 -424710)
(4.16827e-07 284672 -259767)
(4.54462e-07 184871 -160164)
(2.64234e-07 -302300 -1.72376e+06)
(6.53016e-07 292845 -706691)
(6.40693e-07 173328 -572531)
(6.76776e-07 -135938 -199325)
(7.6378e-07 -599819 213034)
(7.96517e-07 -644430 247423)
(7.8217e-07 -553697 370217)
(7.47147e-07 -436483 156422)
(7.27686e-07 -319154 209293)
(7.28936e-07 -288838 199340)
(7.38512e-07 -331403 -29458.4)
(7.14161e-07 -250529 -293788)
(5.92253e-07 17676.5 -348835)
(5.55522e-07 -875272 -3.33048e+06)
(3.4531e-07 276238 -1.29042e+06)
(2.91224e-07 -357929 -2.49447e+06)
(4.12791e-07 429123 -718396)
(7.27118e-07 -152026 -735848)
(6.8716e-07 -50354 -217939)
(6.85074e-07 -345774 -226598)
(6.61073e-07 -177830 -469996)
(6.46576e-07 -109011 -540098)
(6.35356e-07 -338163 -836405)
(5.81927e-07 -480477 -1.20086e+06)
(5.65413e-07 -195609 -708302)
(6.05171e-07 -53382.2 -343800)
(6.54893e-07 -729660 -810952)
(6.25986e-07 -353865 -482304)
(5.98487e-07 -682212 -882597)
(4.34273e-07 -218416 -681858)
(3.50272e-07 -207624 -601017)
(3.63587e-07 -157497 -1.29525e+06)
(7.49746e-07 -202481 -638636)
(6.69745e-07 -7175.52 -256531)
(6.4305e-07 -3574.31 -290088)
(6.54269e-07 28281.6 -327741)
(6.4636e-07 54632.1 -327547)
(6.40327e-07 104982 -258301)
(6.30728e-07 -16233.8 -383509)
(5.97694e-07 -88180.8 -406524)
(5.6262e-07 110586 -67968.3)
(5.54408e-07 -20992.3 -77946.9)
(5.45353e-07 9724.89 110248)
(5.06921e-07 -2220.12 198943)
(4.15874e-07 -83860.8 107281)
(1.48556e-07 -168643 -223447)
(6.33238e-07 -92158.6 -605642)
(7.13454e-07 88532.1 16388.3)
(6.19484e-07 282708 85139.3)
(5.84828e-07 416247 64315.7)
(6.13687e-07 372683 84607.7)
(6.10281e-07 362671 150374)
(6.0606e-07 332288 156877)
(5.99951e-07 337720 201131)
(5.90097e-07 430635 244278)
(5.77474e-07 426819 221897)
(5.70834e-07 337241 272089)
(5.5764e-07 250430 246489)
(5.4105e-07 187223 59017.1)
(5.01964e-07 46378.1 -376549)
(4.3292e-07 -159307 -1.40732e+06)
(7.82782e-07 211149 113022)
(8.22606e-07 -9925.35 228524)
(7.10283e-07 112045 34940.6)
(6.40125e-07 123188 -142415)
(6.28556e-07 180336 -142652)
(6.30048e-07 142152 -149456)
(6.27355e-07 152695 -78115.3)
(6.04597e-07 144141 -139649)
(5.71613e-07 109605 -274769)
(5.55821e-07 -36651.6 -578699)
(5.49013e-07 -4728.29 -1.42436e+06)
(5.39188e-07 128953 -1.32527e+06)
(5.37088e-07 123529 -796311)
(5.55016e-07 113418 -734747)
(5.23061e-07 -128213 -902131)
(5.80273e-07 282859 472082)
(3.59651e-07 -213674 473131)
(3.64554e-07 -27430.1 146741)
(3.63951e-07 -78170.5 45485.6)
(3.65528e-07 -65314 -11033.6)
(3.81351e-07 -34367.8 -29447.9)
(4.07918e-07 -6426.06 -39853.4)
(4.36233e-07 -20692.6 -86375.2)
(4.46818e-07 -63239.8 -121237)
(4.53465e-07 -76693.1 -159659)
(4.70922e-07 -81373.2 -187572)
(4.77516e-07 -10927.6 -139747)
(4.64996e-07 93970.9 -108115)
(4.73026e-07 84925.4 -187745)
(5.48893e-07 59892.9 -267502)
(3.3757e-07 -20744.1 313131)
(2.85164e-07 -218446 253752)
(2.03516e-07 -250953 -192971)
(1.40884e-07 -188664 -296819)
(1.22336e-07 -239606 -393622)
(1.67151e-07 -220289 -346573)
(2.03343e-07 -237343 -456935)
(2.10438e-07 -650160 -1.39508e+06)
(2.96608e-07 -205672 -88979.4)
(3.44137e-07 -380717 -177933)
(4.09046e-07 -424938 -318551)
(4.50176e-07 -242275 -255151)
(4.42006e-07 -54793.1 -204226)
(4.41738e-07 -32632.1 -253066)
(3.56152e-07 110770 -253709)
(1.79331e-07 -37218.2 -555043)
(1.4522e-07 -223095 -184522)
(1.56158e-07 -137828 -298069)
(1.49025e-07 -122621 -481523)
(1.58858e-07 -200316 -577303)
(2.41307e-07 -218716 -386527)
(2.87482e-07 -230207 -92283.9)
(2.80428e-07 -243415 58262.2)
(2.65736e-07 -213683 190117)
(2.75082e-07 -222100 243710)
(2.87329e-07 -267425 308836)
(2.50344e-07 -312259 516189)
(2.11412e-07 -259686 765060)
(2.51696e-07 -237421 237067)
(4.48791e-08 132133 -289913)
(9.58684e-08 -186358 -956001)
(1.09966e-07 -189201 -446499)
(9.19323e-08 -107777 -617313)
(7.09213e-08 -120440 -749423)
(1.06681e-07 -362034 -898433)
(2.70858e-07 -357810 128896)
(2.49587e-07 -254823 400692)
(1.76928e-07 -184259 283946)
(1.22609e-07 -159129 167936)
(1.13056e-07 -217362 233519)
(1.24258e-07 -255198 403170)
(1.18569e-07 -156549 309507)
(9.39128e-08 -73084 -101809)
(8.26884e-08 -131725 -379046)
(4.64395e-08 246541 240277)
(1.27501e-07 -152131 4178.78)
(1.27821e-07 23817.4 56231)
(1.30445e-07 78862.5 119339)
(1.34349e-07 73782.7 167710)
(1.40712e-07 83958.3 248113)
(1.5042e-07 59567.3 248027)
(1.26186e-07 89209.1 170075)
(8.73918e-08 93798.3 1821.34)
(6.90151e-08 82862.8 -13661.2)
(7.15375e-08 72443.7 8290.26)
(7.47217e-08 40189.4 -11046.9)
(7.21195e-08 16309.3 -39159.9)
(7.5245e-08 9064.71 -54494.7)
(8.21888e-08 33349.2 -122606)
(7.43071e-08 74797.2 -39250.6)
)
;

boundaryField
{
    inletFace
    {
        type            zeroGradient;
    }
    inlet
    {
        type            fixedValue;
        value           uniform (0 8.7 15);
    }
    inletWalls
    {
        type            noSlip;
    }
    outletInlet
    {
        type            zeroGradient;
    }
}


// ************************************************************************* //
