/*--------------------------------*- C++ -*----------------------------------*\
| =========                 |                                                 |
| \\      /  F ield         | OpenFOAM: The Open Source CFD Toolbox           |
|  \\    /   O peration     | Version:  4.1                                   |
|   \\  /    A nd           | Web:      www.OpenFOAM.org                      |
|    \\/     M anipulation  |                                                 |
\*---------------------------------------------------------------------------*/
FoamFile
{
    version     2.0;
    format      ascii;
    class       volScalarField;
    location    "16";
    object      p;
}
// * * * * * * * * * * * * * * * * * * * * * * * * * * * * * * * * * * * * * //

dimensions      [0 2 -2 0 0 0 0];

internalField   nonuniform List<scalar> 
6785
(
585.984
511.843
463.508
411.803
365.313
321.051
279.568
240.322
203.201
167.989
133.814
101.122
73.2694
42.6489
3.13888
2.40731
-15.7096
-7.51053
-13.61
-14.1097
-16.4444
-17.5614
-18.2577
-18.0422
-16.8346
-14.7265
-11.4865
-6.10222
-0.908216
0.540745
-7.54319
-13.603
-4.82761
-9.46619
-6.80052
-7.96099
-7.88506
-8.64696
-9.40975
-10.4841
-11.6776
-12.4517
-12.7604
-13.2375
-13.0127
1.31515
-2.46097
0.161781
-5.53431
-5.13059
-8.80483
-10.551
-13.1225
-15.2874
-17.425
-19.1735
-20.1124
-19.4526
-18.7371
-17.1485
-3.11644
-5.03431
-1.66451
-4.48662
-1.35801
-2.19458
-0.700784
0.0211182
1.16903
2.36287
3.75314
5.10928
6.98966
8.35691
10.7877
17.5543
17.6057
21.2024
20.0341
23.4481
23.6746
25.6865
27.0097
28.5171
29.9932
31.4989
32.8981
34.4804
35.6761
37.305
38.4586
39.0812
41.7016
40.7212
43.2113
43.0364
44.3788
44.8863
45.5867
46.2245
46.9425
47.7424
48.7078
49.4419
50.4497
50.0589
50.6887
52.3275
51.6732
53.5824
53.453
54.6718
55.0023
55.542
55.6478
55.5218
55.2692
55.0882
55.2897
55.4299
58.8946
57.8368
58.9344
57.4108
58.3449
57.0955
57.1054
55.8886
54.7871
53.0805
51.3282
49.7255
48.7405
48.4787
47.0086
41.5454
37.8544
37.6337
34.7314
34.2074
31.9228
31.0271
29.4119
28.4696
27.1948
26.0649
25.1265
24.6832
23.7051
20.8573
7.06134
2.71221
1.84482
-1.13652
-2.576
-5.39957
-7.33329
-9.82691
-11.8668
-13.9921
-15.7041
-16.8108
-17.8906
-18.948
-18.6887
-12.3194
-13.9809
-14.1362
-15.9338
-16.3396
-17.8761
-18.6927
-19.8383
-20.4693
-20.8007
-20.5693
-19.8177
-18.5495
-17.3822
-15.2947
6.06911
6.67526
7.26491
6.8498
7.41304
7.25563
7.51127
7.69315
8.08967
8.65682
9.48922
10.4377
11.7602
12.8387
14.8027
19.4753
22.085
22.6591
22.474
22.9025
23.2555
24.0562
24.8298
25.6894
26.52
27.33
28.0093
28.6995
29.131
29.6526
66.6193
65.7474
61.9451
55.3111
49.7487
45.4099
41.0875
37.3608
34.2735
31.5704
29.2237
27.314
25.6139
24.4006
22.2852
34.0591
34.6836
35.1183
35.1054
35.3771
36.1793
36.7857
36.6744
36.6102
36.558
37.1741
36.808
36.6119
36.9717
36.3867
36.2257
36.3453
36.5086
35.4961
35.82
36.0257
35.0774
34.9344
35.6889
35.7101
34.7083
34.635
35.4988
35.7987
34.6283
35.4365
35.9246
35.1055
35.0695
35.885
36.3513
35.5043
36.0777
36.6864
36.1556
36.133
36.6762
37.0379
36.6026
36.5724
36.9646
37.0375
36.5714
36.8139
36.9993
36.7275
36.6952
36.9086
37.3223
37.1743
37.1328
37.2369
37.9768
37.8654
37.9813
38.0404
37.9561
37.976
38.2242
38.8022
39.0744
40.2142
38.6387
37.1758
38.7133
40.7658
31.993
28.5748
32.3562
34.8782
11.1128
21.536
26.4456
-18.5217
-5.02128
1.49002
-0.586462
3.33937
-4.19291
-0.668247
3.97105
4.22071
4.94606
5.50864
6.15702
7.19252
10.4064
11.3501
6.94025
8.62253
10.5912
12.726
13.2282
14.0692
14.3326
16.2301
20.4902
16.703
18.3224
18.3113
19.4686
21.5487
22.6944
22.8763
22.9968
22.6324
28.0178
26.5371
27.3119
27.3019
27.0684
28.0849
29.856
29.7154
26.9577
29.8368
33.0598
34.7491
35.2095
34.4491
33.7767
33.1964
34.4815
31.8224
35.0662
41.1486
38.5603
39.2295
39.2542
37.4731
36.1076
34.1283
28.6245
35.2768
40.9818
35.5162
32.8788
29.1235
25.9867
23.0427
20.8133
18.2152
14.1337
10.216
18.8602
14.239
13.5256
12.1793
9.67987
3.27544
1.40586
4.03966
-7.30156
7.54448
4.83762
3.63734
10.2689
4.43235
7.47935
6.48228
8.91745
11.8447
7.73644
10.4969
12.2922
9.83288
10.987
10.4655
11.483
12.849
11.0776
11.8167
11.4044
12.0376
12.7435
11.4114
12.1022
12.4252
11.639
11.836
11.6105
11.7254
11.8823
11.3091
11.3483
11.1521
11.126
11.0873
10.628
10.6117
10.4742
10.1122
9.98892
9.81047
9.75104
9.71018
9.20017
9.03179
8.9486
8.60271
8.4682
8.18333
7.95856
7.84561
7.54448
7.31093
7.10404
6.89606
6.68763
6.49364
6.26382
6.02747
5.87439
5.65675
5.52756
5.28109
5.01158
4.95829
4.69584
4.42804
4.29466
4.04876
3.96883
3.61707
3.30989
3.13557
2.84427
2.75356
2.30278
1.87708
1.82774
1.2216
0.775212
0.418709
0.00753924
0.00254742
0.00606245
0.00795015
0.010421
0.0122363
0.0143694
0.0163261
0.018492
0.0206853
0.023045
0.0255242
0.0281763
0.0309958
0.0339925
0.0371384
0.040386
0.0436583
0.0468749
0.0499858
0.0530158
0.0560756
0.0593013
0.0627164
0.0660919
0.068922
0.0705524
0.0703413
0.0677482
0.0624562
0.0545416
0.04454
0.033284
0.0215358
0.00968445
-0.00230302
-0.0147475
-0.028019
-0.0422519
-0.0578568
-0.0792672
-0.131611
-0.177975
-0.127721
-0.700133
-0.561342
-0.634464
-0.788767
-0.92814
-1.0598
-1.16198
-1.21952
-1.21988
-1.16959
-1.07702
-0.935793
-0.75984
-0.551679
-0.33939
-0.0708195
0.184255
0.399905
0.58637
0.697763
0.761383
0.783955
0.770223
0.72933
0.658939
0.575052
0.462331
0.359781
0.192652
0.0862976
0.106607
0.161273
0.130706
0.21801
0.113848
0.477259
0.00619715
0.0152508
0.0203439
0.0270219
0.0316685
0.0372755
0.0423043
0.0479226
0.0535722
0.0596587
0.0660364
0.0728527
0.0800839
0.0877407
0.0957017
0.103726
0.111354
0.11787
0.122295
0.123503
0.120509
0.112896
0.101204
0.0870214
0.0726047
0.0601882
0.0512343
0.0459705
0.0435658
0.0426627
0.0417999
0.0396482
0.0350256
0.0268658
0.0142305
-0.00370081
-0.0276651
-0.0587216
-0.0993704
-0.151402
-0.239284
-0.310534
-0.093104
-1.06008
-0.848648
-0.99835
-1.26357
-1.50289
-1.72515
-1.89069
-1.96831
-1.9378
-1.80978
-1.59438
-1.29466
-0.936832
-0.537787
-0.126552
0.309878
0.695843
1.01813
1.27125
1.43155
1.52046
1.54584
1.51404
1.4346
1.30157
1.13861
0.923763
0.727179
0.439882
0.264332
0.32063
0.415271
0.377672
0.56156
0.375196
1.41473
0.00991195
0.0254989
0.0343726
0.0458339
0.0539126
0.0635695
0.0722728
0.081957
0.0917045
0.10219
0.113178
0.124916
0.137372
0.150574
0.164342
0.17832
0.191837
0.203882
0.213118
0.218085
0.217589
0.211216
0.199721
0.184981
0.169422
0.15518
0.143301
0.133375
0.124048
0.113874
0.101731
0.0867986
0.0682216
0.0448743
0.0154025
-0.021646
-0.0676646
-0.124221
-0.194458
-0.281052
-0.417532
-0.538698
-0.0793407
-1.1267
-0.891251
-1.07753
-1.39183
-1.67282
-1.93129
-2.12089
-2.20387
-2.15719
-1.99384
-1.72523
-1.35846
-0.925432
-0.447774
0.0424176
0.53973
0.969627
1.3282
1.59949
1.77205
1.86721
1.89164
1.85144
1.75662
1.59865
1.40534
1.14888
0.922078
0.610862
0.450611
0.528762
0.703136
0.637109
0.94488
0.636959
1.7786
0.0130486
0.0348374
0.0472215
0.063269
0.0745223
0.0879923
0.100115
0.113599
0.127163
0.141745
0.157016
0.173322
0.19062
0.208947
0.228044
0.247397
0.266032
0.282477
0.294795
0.300885
0.299053
0.288743
0.271055
0.248666
0.225035
0.203251
0.184981
0.170007
0.156896
0.143947
0.129518
0.111981
0.0895098
0.0600168
0.0213401
-0.0286053
-0.0917197
-0.170112
-0.267554
-0.384018
-0.542917
-0.697242
-0.177914
-1.38643
-1.07404
-1.25315
-1.63494
-1.97769
-2.28845
-2.51615
-2.61392
-2.55407
-2.35306
-2.02521
-1.57978
-1.0555
-0.478366
0.111775
0.705422
1.21693
1.6451
1.96628
2.16992
2.28262
2.31159
2.26347
2.15056
1.96183
1.7313
1.42386
1.15622
0.799698
0.638962
0.734664
0.968936
0.894878
1.29761
0.913904
2.06624
0.0158865
0.0441745
0.0600594
0.0808248
0.0953203
0.112695
0.128323
0.145696
0.163166
0.181933
0.201579
0.222547
0.244781
0.268324
0.292826
0.317593
0.341322
0.362075
0.377378
0.384679
0.38212
0.369395
0.348229
0.322045
0.294823
0.269763
0.248273
0.229697
0.212286
0.194234
0.173814
0.149195
0.118167
0.0781244
0.0263192
-0.0399145
-0.123001
-0.225466
-0.351116
-0.49713
-0.678096
-0.890027
-0.439775
-1.6701
-1.29531
-1.45045
-1.91381
-2.33062
-2.70311
-2.97698
-3.09311
-3.01867
-2.77427
-2.37703
-1.83947
-1.208
-0.514891
0.193203
0.898442
1.50384
2.01135
2.38853
2.62852
2.76132
2.79546
2.73831
2.6044
2.37995
2.10542
1.73895
1.41979
1.00202
0.827287
0.937322
1.23651
1.15713
1.65136
1.20602
2.39762
0.0183242
0.0532181
0.0724065
0.0978889
0.115531
0.136757
0.155823
0.17702
0.198325
0.221196
0.245127
0.270652
0.297703
0.326309
0.356008
0.385877
0.414221
0.438584
0.455954
0.46341
0.459077
0.443043
0.417704
0.387122
0.355627
0.326459
0.300916
0.278235
0.256714
0.234623
0.21005
0.180635
0.143406
0.0949388
0.0317661
-0.0493555
-0.151286
-0.276855
-0.429518
-0.602744
-0.802123
-1.08973
-0.841723
-1.86709
-1.50144
-1.62243
-2.16779
-2.65757
-3.0885
-3.40611
-3.53781
-3.44659
-3.15832
-2.69254
-2.06536
-1.33052
-0.526737
0.293545
1.10261
1.79416
2.37407
2.80084
3.07328
3.22354
3.26169
3.19566
3.0419
2.7839
2.46794
2.04609
1.67787
1.20416
1.0192
1.13949
1.49744
1.4222
1.99546
1.51405
2.74622
0.0204175
0.0621818
0.0844875
0.11475
0.135487
0.160568
0.183061
0.208077
0.233209
0.26017
0.288365
0.318414
0.350227
0.383801
0.418519
0.453172
0.48562
0.51289
0.531536
0.538498
0.532181
0.513315
0.485
0.451725
0.417802
0.386163
0.357779
0.331712
0.306339
0.280066
0.250846
0.215866
0.171487
0.113577
0.0380487
-0.0588294
-0.180264
-0.329248
-0.508503
-0.707981
-0.928
-1.29984
-1.32337
-1.92785
-1.7183
-1.79312
-2.42091
-2.98682
-3.47534
-3.83701
-3.98358
-3.87423
-3.5414
-3.00704
-2.29081
-1.45366
-0.54073
0.389725
1.30148
2.07875
2.73073
3.20717
3.5121
3.67973
3.72212
3.6478
3.47521
3.18513
2.82938
2.35435
1.93794
1.41012
1.21486
1.34112
1.75644
1.69133
2.33626
1.83463
3.07849
0.0221435
0.0710544
0.0962231
0.13131
0.155047
0.183956
0.209833
0.238634
0.267553
0.298557
0.330954
0.365445
0.4019
0.440246
0.479657
0.518567
0.55436
0.583595
0.602571
0.608357
0.599899
0.578641
0.54821
0.513174
0.477505
0.443691
0.412455
0.38289
0.353678
0.323488
0.290122
0.250193
0.199257
0.132394
0.044886
-0.067412
-0.20793
-0.379669
-0.584371
-0.80894
-1.05098
-1.49243
-1.76844
-1.82662
-1.95451
-1.96923
-2.6803
-3.32949
-3.87642
-4.28444
-4.44661
-4.31803
-3.93906
-3.33411
-2.52658
-1.5847
-0.560353
0.482434
1.49942
2.36498
3.0911
3.61896
3.95779
4.14345
4.19063
4.10849
3.91751
3.59576
3.2003
2.67236
2.20623
1.62306
1.41373
1.54295
2.01301
1.96454
2.67293
2.17227
3.43228
0.0235062
0.0799183
0.107664
0.147635
0.174271
0.206989
0.236213
0.268773
0.301446
0.33645
0.37299
0.41183
0.452771
0.495617
0.539259
0.581722
0.619925
0.650104
0.668566
0.672834
0.662596
0.639951
0.608752
0.573289
0.536945
0.501676
0.468015
0.435197
0.402332
0.368401
0.331019
0.286164
0.228558
0.152519
0.0527907
-0.0750665
-0.234559
-0.42854
-0.657666
-0.906643
-1.17162
-1.65139
-2.0862
-1.66537
-2.22017
-2.15147
-2.94095
-3.68193
-4.28708
-4.74257
-4.92037
-4.77091
-4.34383
-3.66617
-2.76528
-1.71673
-0.579481
0.576889
1.70007
2.65491
3.45561
4.03487
4.40802
4.61173
4.66385
4.57431
4.3655
4.01282
3.57804
2.99789
2.48101
1.84365
1.61662
1.74684
2.2686
2.2421
3.00712
2.52352
3.78075
0.0244876
0.088813
0.118803
0.163721
0.193133
0.22963
0.262154
0.298438
0.334824
0.373771
0.414369
0.457417
0.502602
0.549531
0.596741
0.641828
0.681341
0.711425
0.728734
0.731533
0.720289
0.697491
0.666827
0.632001
0.595656
0.559233
0.523202
0.487111
0.450654
0.413187
0.372087
0.322596
0.258524
0.173423
0.0615677
-0.0816429
-0.259642
-0.474993
-0.727316
-1.00011
-1.28835
-1.77732
-2.27969
-1.63481
-2.4924
-2.34306
-3.20107
-4.0453
-4.70887
-5.21203
-5.40481
-5.23251
-4.7551
-4.0025
-3.00617
-1.84916
-0.597789
0.67303
1.90301
2.94786
3.82329
4.45343
4.86103
5.08267
5.13984
5.04341
4.81748
4.43484
3.96142
3.33007
2.76185
2.07325
1.82481
1.95523
2.52379
2.52401
3.33941
2.88532
4.1167
0.0250693
0.0977969
0.129656
0.179592
0.211642
0.251886
0.287659
0.327629
0.367682
0.410502
0.455044
0.502095
0.551165
0.60158
0.651478
0.69807
0.737732
0.76684
0.782759
0.784654
0.77359
0.75205
0.723203
0.689974
0.654214
0.616912
0.578606
0.53929
0.499366
0.458595
0.414037
0.360092
0.289596
0.195379
0.0713672
-0.0870509
-0.28309
-0.518919
-0.793311
-1.08966
-1.40257
-1.8901
-2.42986
-1.85653
-2.64515
-2.54523
-3.46105
-4.42219
-5.14602
-5.69679
-5.90337
-5.70598
-5.17576
-4.34562
-3.25127
-1.98351
-0.616295
0.770332
2.10815
3.24417
4.19471
4.87523
5.31768
5.55717
5.61953
5.51676
5.27448
4.8629
4.35145
3.66976
3.04967
2.31455
2.03917
2.17049
2.77938
2.8102
3.67081
3.2592
4.45369
0.0252211
0.106922
0.140229
0.195258
0.229791
0.273742
0.312709
0.356321
0.399982
0.446578
0.494894
0.545644
0.598072
0.651156
0.702643
0.749506
0.788233
0.815829
0.830642
0.83267
0.823201
0.8043
0.778361
0.747452
0.712642
0.674561
0.633942
0.591361
0.548059
0.50422
0.456493
0.3983
0.32145
0.218105
0.0819848
-0.0913813
-0.304874
-0.560226
-0.85563
-1.17542
-1.51493
-2.00328
-2.57255
-2.25538
-2.55971
-2.7726
-3.72422
-4.81363
-5.6015
-6.19993
-6.41827
-6.19288
-5.60701
-4.69639
-3.501
-2.11977
-0.634689
0.869416
2.31628
3.54468
4.57069
5.30127
5.77842
6.03561
6.10326
5.99473
5.73691
5.29744
4.74855
4.01728
3.34483
2.56851
2.26083
2.39335
3.03581
3.10043
4.00192
3.64107
4.78978
0.0249044
0.116248
0.15053
0.210733
0.247579
0.29519
0.337289
0.384489
0.431682
0.481919
0.533758
0.587754
0.642805
0.697515
0.749339
0.79525
0.832238
0.858305
0.872848
0.876387
0.869982
0.854955
0.832806
0.80475
0.771123
0.732283
0.689278
0.643389
0.596822
0.550182
0.499563
0.437267
0.354032
0.241462
0.093242
-0.0948093
-0.325172
-0.599168
-0.914715
-1.25786
-1.6254
-2.11979
-2.69602
-2.61092
-2.33759
-3.06273
-4.00032
-5.2193
-6.07762
-6.72456
-6.95187
-6.69458
-6.04962
-5.0553
-3.75547
-2.25775
-0.652536
0.970904
2.52808
3.85005
4.95184
5.73232
6.24317
6.51788
6.5908
6.47712
6.20463
5.73845
5.15274
4.37257
3.6473
2.8332
2.49083
2.62269
3.2933
3.39439
4.33353
4.03026
5.14155
0.0240686
0.125838
0.160563
0.22603
0.264998
0.316215
0.361378
0.412099
0.462717
0.51639
0.571376
0.627973
0.684685
0.739793
0.790654
0.834589
0.869516
0.894637
0.910185
0.916742
0.914754
0.904615
0.886914
0.86207
0.82973
0.790054
0.744524
0.695248
0.645536
0.596373
0.543116
0.476778
0.387023
0.265062
0.104748
-0.0976895
-0.344334
-0.636201
-0.971228
-1.33763
-1.73389
-2.23928
-2.8042
-2.84472
-2.26734
-3.37844
-4.29597
-5.63781
-6.57638
-7.27418
-7.50734
-7.21312
-6.50482
-5.42325
-4.01515
-2.39757
-0.669684
1.0752
2.74408
4.16087
5.33871
6.169
6.71234
7.00397
7.08204
6.96386
6.67763
6.18598
5.56414
4.73563
3.95695
3.10717
2.72894
2.85756
3.55185
3.69164
4.66592
4.42353
5.53746
0.0226498
0.135761
0.170333
0.241159
0.282042
0.336798
0.384947
0.439097
0.492984
0.549788
0.607371
0.665701
0.722907
0.777093
0.825811
0.867169
0.900337
0.925628
0.943677
0.954693
0.958268
0.953799
0.941018
0.919615
0.888569
0.847916
0.799672
0.746921
0.694212
0.642824
0.58712
0.516646
0.420066
0.288444
0.116029
-0.100473
-0.362833
-0.671944
-1.02605
-1.41571
-1.84108
-2.36291
-2.9224
-3.05891
-2.52385
-3.52567
-4.62225
-6.06951
-7.09939
-7.85206
-8.0882
-7.75103
-6.97404
-5.80119
-4.28058
-2.53936
-0.685967
1.18277
2.96489
4.4778
5.73192
6.61215
7.18653
7.49376
7.57688
7.45485
7.1559
6.64012
5.98285
5.10641
4.27356
3.3893
2.97461
3.09724
3.81133
3.99167
4.99908
4.81792
5.92549
0.0205679
0.146095
0.179846
0.256127
0.2987
0.356916
0.407957
0.465403
0.522321
0.581799
0.64122
0.700199
0.756603
0.808597
0.854336
0.893128
0.925452
0.95235
0.974387
0.991111
1.00115
1.00293
0.995399
0.97757
0.947749
0.905904
0.854708
0.798384
0.742863
0.689546
0.631456
0.556523
0.45261
0.310984
0.126498
-0.103681
-0.381192
-0.707055
-1.08009
-1.49322
-1.94807
-2.49125
-3.06063
-3.29238
-2.97168
-3.40414
-5.01558
-6.52193
-7.64789
-8.46105
-8.698
-8.31128
-7.45894
-6.19007
-4.5522
-2.68322
-0.701163
1.29411
3.19118
4.80157
6.13215
7.06236
7.66632
7.98752
8.07514
7.9499
7.63934
7.10085
6.40889
5.48478
4.59677
3.67859
3.22716
3.34111
4.0715
4.29389
5.3333
5.21309
6.30576
0.0177237
0.15693
0.189103
0.27094
0.314957
0.376531
0.430344
0.490889
0.550477
0.611978
0.672255
0.730645
0.784943
0.833727
0.876221
0.913135
0.945954
0.975955
1.0033
1.02673
1.04393
1.05239
1.05032
1.03613
1.0074
0.964089
0.909648
0.849661
0.791567
0.736581
0.675942
0.595913
0.483963
0.331987
0.135568
-0.107805
-0.399888
-0.742111
-1.13414
-1.5712
-2.05609
-2.62437
-3.21504
-3.52318
-3.34545
-3.24306
-5.52587
-7.00971
-8.22211
-9.10315
-9.33971
-8.89695
-7.96159
-6.59102
-4.8305
-2.82927
-0.715056
1.40975
3.42366
5.13292
6.54007
7.52009
8.15245
8.48565
8.57644
8.44876
8.12775
7.56808
6.84226
5.87054
4.92615
3.97408
3.48578
3.58852
4.33201
4.59763
5.66867
5.60514
6.70904
0.0139945
0.168366
0.198107
0.285598
0.33079
0.39559
0.452009
0.515355
0.577079
0.639731
0.699706
0.756213
0.807266
0.852322
0.892013
0.928265
0.963064
0.997519
1.03123
1.06216
1.08704
1.10249
1.10605
1.09553
1.06769
1.02255
0.964523
0.900807
0.840436
0.783923
0.720208
0.634092
0.513302
0.350761
0.142737
-0.113216
-0.419263
-0.777521
-1.18876
-1.65047
-2.16642
-2.76328
-3.38338
-3.75987
-3.67157
-3.36612
-6.09434
-7.54558
-8.82122
-9.78019
-10.0161
-9.51112
-8.4844
-7.00544
-5.11602
-2.97763
-0.727439
1.53024
3.66303
5.47265
6.95644
7.98589
8.64528
8.98837
9.08069
8.95111
8.62092
8.04169
7.28287
6.26339
5.26112
4.27474
3.74954
3.83881
4.59247
4.90218
6.00524
5.99349
7.12261
0.00922931
0.18052
0.20686
0.300093
0.346164
0.414011
0.472797
0.538494
0.601613
0.664349
0.722773
0.776189
0.823261
0.864774
0.902734
0.939784
0.977937
1.01795
1.05885
1.09787
1.13086
1.15355
1.16288
1.15601
1.1288
1.08139
1.01937
0.951918
0.88961
0.83144
0.763619
0.670134
0.539798
0.366758
0.147704
-0.120079
-0.439448
-0.813464
-1.24424
-1.73157
-2.28012
-2.90961
-3.56717
-4.02312
-4.08249
-3.91633
-6.55144
-8.13739
-9.44686
-10.4941
-10.7296
-10.1567
-9.03004
-7.43505
-5.40939
-3.12846
-0.738103
1.65613
3.91007
5.82158
7.38201
8.46033
9.14508
9.49611
9.58812
9.45652
9.11854
8.52148
7.73065
6.663
5.60106
4.57952
4.01744
4.09121
4.85243
5.20678
6.3428
6.38034
7.57124
0.00324226
0.193523
0.215361
0.314408
0.361022
0.431668
0.492462
0.559866
0.623434
0.685066
0.740713
0.790125
0.833138
0.872011
0.909669
0.948919
0.991549
1.03795
1.08667
1.13428
1.17574
1.2059
1.22111
1.21786
1.19093
1.1407
1.07424
1.00313
0.939188
0.878728
0.805205
0.703018
0.562785
0.379699
0.150447
-0.128298
-0.460325
-0.849869
-1.30062
-1.81471
-2.39791
-3.06474
-3.76791
-4.31721
-4.57807
-4.72523
-6.78168
-8.79718
-10.1024
-11.2458
-11.4808
-10.8356
-9.6012
-7.88194
-5.71144
-3.28193
-0.746829
1.78801
4.16558
6.18058
7.81761
8.944
9.6521
10.009
10.0985
9.96442
9.62024
9.0072
8.18543
7.06896
5.94522
4.88726
4.28839
4.3449
5.11137
5.51061
6.68075
6.76538
8.0255
-0.00419566
0.207529
0.223606
0.328507
0.375275
0.448361
0.510643
0.578898
0.641823
0.701139
0.752968
0.798031
0.837682
0.875304
0.914105
0.956713
1.00466
1.05807
1.11513
1.17176
1.22205
1.25991
1.2811
1.28141
1.25428
1.20052
1.12913
1.0546
0.989106
0.924948
0.843729
0.73185
0.581933
0.389665
0.151261
-0.137491
-0.481509
-0.886412
-1.35769
-1.89989
-2.52012
-3.22941
-3.98646
-4.63933
-5.11021
-5.53162
-6.83166
-9.56397
-10.8028
-12.041
-12.2737
-11.5485
-10.2
-8.34844
-6.02326
-3.43831
-0.753397
1.92648
4.43041
6.55058
8.2641
9.43752
10.1666
10.527
10.6119
10.4746
10.1256
9.49857
8.64706
7.48079
6.29279
5.19673
4.5612
4.59902
5.36879
5.81285
7.01909
7.14628
8.42608
-0.0133675
0.222709
0.231583
0.342328
0.388781
0.463792
0.526844
0.594922
0.656058
0.711936
0.759347
0.800507
0.838116
0.87599
0.917149
0.963968
1.01784
1.07874
1.14458
1.21068
1.27018
1.31598
1.34326
1.347
1.31901
1.26082
1.18405
1.10648
1.0389
0.968747
0.87793
0.756123
0.597365
0.397118
0.150759
-0.146999
-0.502371
-0.922555
-1.41503
-1.98688
-2.64679
-3.40378
-4.22281
-4.98537
-5.64187
-6.20483
-6.9204
-10.4854
-11.5707
-12.8856
-13.1168
-12.2985
-10.8279
-8.83682
-6.34626
-3.59798
-0.757594
2.07217
4.70543
6.93257
8.7224
9.94153
10.6888
11.0499
11.1283
10.9872
10.6341
9.99526
9.11533
7.89797
6.64284
5.50662
4.83462
4.85263
5.62413
6.11271
7.35766
7.52447
8.89804
-0.0246246
0.239256
0.239269
0.355763
0.401312
0.477536
0.540463
0.607254
0.665476
0.717086
0.760219
0.798678
0.835812
0.875242
0.919652
0.971273
1.0315
1.10031
1.17537
1.25142
1.32056
1.37456
1.40802
1.41496
1.38518
1.32141
1.23901
1.15874
1.08744
1.00842
0.906913
0.7759
0.609666
0.402868
0.149833
-0.155937
-0.522097
-0.957602
-1.47211
-2.07529
-2.77766
-3.58751
-4.47627
-5.35259
-6.16853
-6.80016
-7.28232
-11.5713
-12.422
-13.7771
-14.0151
-13.0903
-11.4867
-9.34896
-6.682
-3.76159
-0.759239
2.22572
4.99161
7.3276
9.19351
10.4567
11.219
11.5775
11.6474
11.5015
11.1452
10.4969
9.59005
8.31993
6.99439
5.81551
5.10732
5.1048
5.87688
6.40943
7.69554
7.90013
9.31314
-0.0384051
0.257378
0.246613
0.368641
0.412536
0.489054
0.550862
0.61524
0.669567
0.716698
0.756553
0.793928
0.832014
0.873964
0.922222
0.979047
1.04598
1.1231
1.20788
1.29442
1.37368
1.43617
1.47586
1.48556
1.45263
1.38194
1.294
1.21084
1.13278
1.0424
0.930489
0.791839
0.619819
0.408006
0.149579
-0.16327
-0.53977
-0.99079
-1.5283
-2.1646
-2.91223
-3.77983
-4.74542
-5.73924
-6.70506
-7.46128
-8.07731
-12.7386
-13.3648
-14.7102
-14.9696
-13.9277
-12.1788
-9.88647
-7.03193
-3.93002
-0.758233
2.38782
5.28992
7.7368
9.67847
10.9838
11.7574
12.1094
12.1687
12.0171
11.6584
11.003
10.071
8.74604
7.34635
6.1219
5.37789
5.35459
6.12651
6.70235
8.03276
8.26909
9.75294
-0.0552572
0.277292
0.253524
0.380693
0.421998
0.497754
0.55743
0.618302
0.668183
0.711516
0.749709
0.787579
0.827688
0.872793
0.925284
0.987609
1.06158
1.14744
1.2425
1.34017
1.43009
1.50133
1.54719
1.55889
1.52083
1.44194
1.34895
1.26124
1.17256
1.06987
0.949297
0.805079
0.629089
0.413803
0.151205
-0.167913
-0.554473
-1.02138
-1.58298
-2.25424
-3.04984
-3.97965
-5.02825
-6.14282
-7.26125
-8.24158
-9.3323
-13.8581
-14.3914
-15.6816
-15.98
-14.8127
-12.9069
-10.4506
-7.39726
-4.10427
-0.754598
2.55914
5.60144
8.1614
10.1784
11.5236
12.3042
12.6453
12.6916
12.5337
12.1735
11.5132
10.558
9.17566
7.69755
6.4242
5.64484
5.60106
6.37252
6.99086
8.36819
8.63429
10.2704
-0.0758643
0.299199
0.259838
0.391534
0.429165
0.503075
0.559596
0.616074
0.661769
0.702812
0.741084
0.780677
0.823511
0.872158
0.929139
0.997226
1.07859
1.17368
1.27967
1.38919
1.49038
1.57061
1.62238
1.63465
1.5888
1.50097
1.40317
1.30723
1.2048
1.09119
0.964633
0.817058
0.638896
0.421597
0.15591
-0.168856
-0.565399
-1.04873
-1.63561
-2.34362
-3.18974
-4.1857
-5.32245
-6.56043
-7.83948
-9.12293
-10.8888
-14.8272
-15.4999
-16.6944
-17.0453
-15.7463
-13.6731
-11.0426
-7.7788
-4.28521
-0.748459
2.7404
5.9273
8.60271
10.6946
12.0768
12.8596
13.1848
13.2155
13.0511
12.6903
12.0271
11.0508
9.60811
8.04676
6.72075
5.90661
5.8433
6.61446
7.27443
8.70011
8.99706
10.7308
-0.101063
0.323247
0.265292
0.400674
0.433508
0.504491
0.556858
0.60866
0.651408
0.692037
0.73183
0.773952
0.819922
0.872351
0.934031
1.00815
1.09731
1.20221
1.31988
1.44207
1.55517
1.64451
1.70147
1.7119
1.65522
1.55866
1.45469
1.34553
1.22896
1.10779
0.978159
0.82934
0.650682
0.432665
0.164757
-0.165271
-0.57194
-1.07237
-1.68573
-2.43219
-3.33112
-4.3967
-5.62574
-6.9892
-8.43747
-10.0635
-12.5237
-15.5339
-16.6601
-17.7544
-18.1658
-16.7288
-14.4783
-11.6638
-8.17686
-4.47344
-0.739973
2.93233
6.26877
9.06219
11.2285
12.6444
13.4238
13.7274
13.7396
13.5683
13.2083
12.5441
11.5492
10.0427
8.39264
7.0098
6.16155
6.08044
6.85193
7.55254
9.02684
9.35768
11.2259
-0.131828
0.349446
0.269506
0.407605
0.434587
0.501498
0.54899
0.596854
0.638583
0.680477
0.722752
0.767865
0.817209
0.873593
0.940182
1.02065
1.11807
1.23344
1.36362
1.49941
1.62508
1.72339
1.78401
1.7889
1.7188
1.61421
1.49988
1.3738
1.24626
1.12169
0.991624
0.843461
0.665773
0.44809
0.17856
-0.156605
-0.573731
-1.09202
-1.733
-2.51942
-3.47323
-4.61136
-5.93601
-7.42657
-9.0498
-11.0078
-13.9972
-15.9474
-17.8608
-18.8771
-19.3439
-17.7602
-15.3229
-12.3152
-8.59141
-4.66925
-0.729175
3.13571
6.62723
9.54144
11.7814
13.2274
13.997
14.2724
14.263
14.0846
13.7267
13.0638
12.0531
10.4787
8.7338
7.28951
6.40798
6.31171
7.08466
7.82482
9.34695
9.71908
11.697
-0.169168
0.37754
0.272017
0.411869
0.431954
0.493735
0.536395
0.58196
0.624664
0.669031
0.714349
0.7627
0.81557
0.876078
0.947815
1.035
1.14121
1.26779
1.41143
1.56181
1.70064
1.80726
1.86862
1.86318
1.77866
1.66528
1.53448
1.39199
1.25919
1.13497
1.00668
0.860783
0.685244
0.468643
0.197793
-0.142615
-0.570654
-1.10755
-1.77715
-2.60484
-3.61529
-4.82846
-6.25127
-7.86999
-9.66914
-11.9054
-15.1257
-16.1848
-19.1329
-20.0811
-20.5833
-18.8409
-16.2068
-12.9972
-9.02255
-4.87265
-0.715858
3.35136
7.00428
10.0422
12.355
13.8267
14.5794
14.8191
14.7848
14.5991
14.2449
13.586
12.5622
10.9154
9.06876
7.55799
6.64422
6.53649
7.31251
8.09093
9.65843
10.0773
12.2376
-0.213835
0.406836
0.272356
0.41299
0.424799
0.480904
0.52016
0.565587
0.610786
0.658268
0.706909
0.75864
0.815174
0.879995
0.95716
1.05146
1.16705
1.30565
1.46379
1.62983
1.78222
1.89546
1.95268
1.93232
1.83389
1.70741
1.55583
1.40262
1.27057
1.1495
1.02473
0.882361
0.709811
0.494711
0.222575
-0.123342
-0.562771
-1.1189
-1.81793
-2.68794
-3.75653
-5.04677
-6.56957
-8.31674
-10.2876
-12.728
-15.9052
-16.4855
-20.5176
-21.3861
-21.8872
-19.9716
-17.1299
-13.7095
-9.47023
-5.08337
-0.699525
3.58026
7.40169
10.5666
12.9512
14.4436
15.1711
15.3667
15.304
15.1106
14.7628
14.1109
13.0763
11.352
9.39593
7.81327
6.8686
6.75435
7.53551
8.35063
9.95891
10.4342
12.6827
-0.265724
0.436009
0.270135
0.410899
0.41349
0.463744
0.501593
0.54878
0.597469
0.64848
0.700612
0.755831
0.816187
0.88554
0.968439
1.07029
1.19589
1.34739
1.52115
1.70391
1.8698
1.98621
2.03249
1.99479
1.88205
1.73539
1.56476
1.40959
1.28276
1.16674
1.0468
0.908836
0.739762
0.526287
0.252714
-0.0990205
-0.550223
-1.12603
-1.85505
-2.7682
-3.89613
-5.26499
-6.88882
-8.76348
-10.8974
-13.4779
-16.502
-17.0701
-22.0357
-22.8118
-23.2572
-21.153
-18.0927
-14.4512
-9.93413
-5.3009
-0.679455
3.82349
7.82145
11.117
13.5722
15.0793
15.7724
15.9143
15.8194
15.6181
15.2798
14.6387
13.5953
11.7876
9.71363
8.05327
7.07951
6.96506
7.75384
8.60367
10.2462
10.7876
13.136
-0.32295
0.46294
0.264616
0.404051
0.395133
0.442915
0.482003
0.532646
0.585232
0.639837
0.695575
0.754417
0.818777
0.892897
0.98185
1.09171
1.22798
1.39333
1.58387
1.78433
1.96266
2.07609
2.10428
2.04978
1.91808
1.74641
1.56557
1.41649
1.29743
1.18771
1.07346
0.940392
0.774971
0.563046
0.287833
-0.0699394
-0.533107
-1.12878
-1.88809
-2.84494
-4.03314
-5.48165
-7.2066
-9.20614
-11.4918
-14.1754
-17.1117
-18.0639
-23.5833
-24.3642
-24.6923
-22.3844
-19.0966
-15.2216
-10.4136
-5.52458
-0.65486
4.08224
8.26574
11.6961
14.2203
15.7354
16.3833
16.4607
16.3299
16.1204
15.795
15.1693
14.1188
12.2212
10.02
8.27577
7.27539
7.16863
7.96784
8.8498
10.5171
11.1264
13.5286
-0.380917
0.484629
0.254853
0.391773
0.372285
0.421735
0.461823
0.517384
0.574195
0.632497
0.691957
0.754557
0.823107
0.902228
0.99755
1.11588
1.2635
1.44366
1.65219
1.87098
2.05883
2.16017
2.16584
2.0952
1.93588
1.74257
1.56374
1.42572
1.31558
1.21287
1.10477
0.97679
0.815002
0.604503
0.327536
-0.0363038
-0.511374
-1.12684
-1.91649
-2.91738
-4.16646
-5.69506
-7.52002
-9.63978
-12.0641
-14.8377
-17.8232
-19.5361
-24.9921
-26.0255
-26.1917
-23.6639
-20.1433
-16.0203
-10.908
-5.75359
-0.624866
4.35784
8.73688
12.3071
14.8985
16.4136
17.0041
17.0048
16.8341
16.6162
16.3076
15.7027
14.6466
12.6516
10.3129
8.47821
7.45513
7.36546
8.17791
9.08874
10.7686
11.4542
13.808
-0.432243
0.498014
0.240082
0.374142
0.348969
0.401881
0.442461
0.503735
0.564519
0.626585
0.689893
0.7564
0.82932
0.913656
1.01564
1.14288
1.30253
1.49848
1.72612
1.9631
2.15449
2.23336
2.21677
2.12576
1.93241
1.73026
1.56354
1.43839
1.33757
1.24217
1.1404
1.01752
0.8593
0.650192
0.371553
0.00187508
-0.484764
-1.1197
-1.93953
-2.98456
-4.29481
-5.90319
-7.82567
-10.0588
-12.6083
-15.4747
-18.6292
-21.3091
-26.0848
-27.7801
-27.7594
-24.9885
-21.2342
-16.847
-11.4163
-5.98705
-0.588508
4.65165
9.23734
12.9535
15.6103
17.116
17.635
17.5453
17.3305
17.1042
16.8163
16.2388
15.1778
13.0773
10.59
8.657
7.61729
7.55547
8.38489
9.32005
10.9969
11.7629
14.0554
-0.468389
0.501727
0.218835
0.353629
0.326773
0.382582
0.423965
0.491572
0.556256
0.622283
0.689543
0.760088
0.837528
0.927262
1.03618
1.17273
1.34506
1.55776
1.80538
2.05873
2.24388
2.29272
2.25585
2.13442
1.91093
1.71668
1.56687
1.45471
1.36321
1.27519
1.17978
1.06198
0.907375
0.699826
0.419853
0.0448343
-0.452791
-1.10665
-1.9563
-3.04539
-4.41669
-6.10371
-8.11957
-10.4573
-13.12
-16.0913
-19.4837
-23.0794
-26.7556
-29.6331
-29.4051
-26.3544
-22.37
-17.7017
-11.9379
-6.22409
-0.544603
4.96512
9.76962
13.6393
16.3596
17.845
18.2762
18.0805
17.8175
17.5831
17.3203
16.778
15.7115
13.4962
10.8484
8.80873
7.75978
7.73914
8.59092
9.54299
11.1966
12.0334
14.1909
-0.4832
0.492367
0.194403
0.332111
0.305638
0.364186
0.407388
0.481256
0.549647
0.619759
0.691045
0.765741
0.847813
0.943079
1.05912
1.20534
1.39094
1.62125
1.88913
2.15404
2.32071
2.33844
2.27739
2.11688
1.87982
1.70666
1.57397
1.47441
1.392
1.31134
1.22234
1.10971
0.958961
0.753389
0.472681
0.0930602
-0.414761
-1.08682
-1.96579
-3.09863
-4.53043
-6.29392
-8.39734
-10.8304
-13.5977
-16.6883
-20.3211
-24.5278
-27.0997
-31.6334
-31.1561
-27.7595
-23.5498
-18.5839
-12.4721
-6.46388
-0.491772
5.29988
10.3363
14.3687
17.1515
18.6038
18.9281
18.6087
18.2934
18.0514
17.8184
17.3208
16.2466
13.9057
11.084
8.9301
7.88068
7.91856
8.79836
9.75566
11.3624
12.2639
14.156
-0.473729
0.465098
0.172264
0.309849
0.285609
0.346147
0.393078
0.472767
0.544854
0.619184
0.694542
0.773458
0.860218
0.961082
1.08438
1.24054
1.43993
1.68847
1.97549
2.24296
2.3813
2.37145
2.27344
2.07727
1.84787
1.70115
1.58422
1.49691
1.42332
1.3501
1.26768
1.1605
1.01409
0.811157
0.530541
0.14725
-0.369816
-1.05923
-1.96686
-3.14294
-4.63421
-6.47076
-8.65456
-11.1745
-14.0421
-17.2643
-21.094
-25.517
-27.4933
-33.8965
-33.0569
-29.2025
-24.7718
-19.4926
-13.0183
-6.70565
-0.428586
5.65768
10.94
15.1462
17.9915
19.3963
19.5912
19.1281
18.7564
18.5077
18.3095
17.8682
16.7821
14.3022
11.2914
9.01545
7.97613
8.09294
9.00644
9.95445
11.489
12.4264
14.0616
-0.443395
0.425136
0.153699
0.28732
0.267384
0.328202
0.381585
0.46634
0.542119