/*--------------------------------*- C++ -*----------------------------------*\
| =========                 |                                                 |
| \\      /  F ield         | OpenFOAM: The Open Source CFD Toolbox           |
|  \\    /   O peration     | Version:  4.1                                   |
|   \\  /    A nd           | Web:      www.OpenFOAM.org                      |
|    \\/     M anipulation  |                                                 |
\*---------------------------------------------------------------------------*/
FoamFile
{
    version     2.0;
    format      ascii;
    class       volVectorField;
    location    "16";
    object      U;
}
// * * * * * * * * * * * * * * * * * * * * * * * * * * * * * * * * * * * * * //

dimensions      [0 1 -1 0 0 0 0];

internalField   nonuniform List<vector> 
6785
(
(1.58218e-14 -1.79278 16.3225)
(1.10448e-14 -7.57716 12.7471)
(-2.88289e-15 -5.05093 13.4227)
(4.38035e-15 -4.8533 13.0104)
(9.41543e-16 -4.14536 12.8414)
(6.52741e-17 -3.70744 12.5657)
(2.90201e-15 -3.31001 12.2765)
(6.74693e-16 -3.01905 11.958)
(-4.76748e-16 -2.83072 11.6329)
(2.06004e-15 -2.76281 11.3188)
(2.29575e-16 -2.76134 11.0548)
(-3.5567e-16 -2.87309 10.77)
(9.93556e-16 -3.40721 10.1124)
(1.43183e-17 -3.26604 9.14973)
(-3.50775e-16 0.278003 7.47155)
(2.00995e-14 -9.48765 26.5178)
(1.34465e-14 -16.2963 22.7837)
(-2.45527e-15 -11.1657 23.1783)
(4.77943e-15 -11.8043 21.4719)
(8.31056e-16 -10.2534 20.5972)
(1.08606e-15 -9.53666 19.4457)
(2.18287e-15 -8.59441 18.3985)
(1.90455e-16 -7.78581 17.3467)
(1.64591e-16 -6.99614 16.3223)
(8.5975e-16 -6.23844 15.2549)
(-3.7437e-16 -5.43923 14.0085)
(-3.43544e-16 -4.64684 12.2962)
(2.0194e-16 -4.0755 9.82286)
(-3.63104e-16 -3.44437 6.74709)
(-4.27587e-16 -1.4291 2.69685)
(2.09817e-14 -12.3575 28.4129)
(1.12512e-14 -17.1123 25.1901)
(-1.23794e-15 -12.0616 25.3158)
(4.55955e-15 -13.0848 22.9342)
(6.08911e-16 -11.0596 21.9296)
(1.68748e-15 -10.5126 20.3271)
(1.55164e-15 -9.44452 19.0533)
(-4.32192e-17 -8.70084 17.7582)
(6.11628e-16 -7.89118 16.5112)
(5.74925e-16 -6.87258 14.7735)
(-1.46874e-16 -4.90931 11.3824)
(1.35147e-15 -1.51142 5.14024)
(8.8606e-16 2.10627 -1.73659)
(-2.92885e-15 3.11502 -3.7462)
(-3.96066e-15 1.66356 -2.74337)
(2.17167e-14 -13.2773 28.21)
(1.12828e-14 -17.6318 25.8428)
(-1.22711e-15 -12.7032 25.5052)
(4.65433e-15 -14.3147 22.6879)
(8.32334e-16 -11.9488 21.7979)
(1.65456e-15 -11.8349 19.8722)
(1.79452e-15 -10.7321 18.5488)
(6.43679e-16 -10.1497 17.0934)
(5.27705e-16 -9.45966 15.7747)
(8.68488e-16 -8.69622 14.2)
(9.25335e-16 -7.33738 11.6809)
(9.64752e-16 -4.75116 7.38544)
(1.42912e-15 -1.89299 2.72047)
(4.85627e-15 2.24155 -1.46254)
(-5.17254e-15 1.95035 -5.78765)
(2.1241e-14 -13.1423 26.6847)
(1.29377e-14 -17.7335 26.5106)
(-6.95479e-16 -13.1107 25.1987)
(3.85039e-15 -14.3134 22.2596)
(1.40917e-15 -12.1331 21.2558)
(1.23544e-15 -11.9388 19.2408)
(1.7556e-15 -10.8555 17.7789)
(1.0602e-15 -10.1634 16.1674)
(3.2237e-16 -9.40989 14.6624)
(5.27117e-16 -8.65136 13.1219)
(6.21163e-16 -7.74543 11.2932)
(-6.52735e-17 -6.23931 8.84561)
(-2.70001e-16 -4.42479 5.75015)
(-5.01335e-16 -1.40795 2.18474)
(-1.01541e-16 0.507189 -3.12399)
(2.04453e-14 -12.5539 24.659)
(1.451e-14 -17.257 26.4766)
(6.75425e-16 -13.1202 24.534)
(2.94846e-15 -13.6877 21.506)
(1.93374e-15 -11.7848 20.3719)
(1.45725e-15 -11.4145 18.4012)
(1.74809e-15 -10.3711 16.8627)
(1.6188e-15 -9.58696 15.2322)
(1.09556e-15 -8.79879 13.7099)
(4.42337e-16 -8.02037 12.2643)
(5.85446e-16 -7.25977 10.7766)
(1.08566e-15 -6.26605 9.16372)
(-1.86623e-16 -5.08964 7.07581)
(-2.59068e-16 -3.00593 4.39268)
(7.05037e-15 -0.68925 -0.84061)
(2.11724e-14 -12.0222 23.3618)
(1.63254e-14 -16.5825 25.8654)
(2.94372e-15 -12.8542 23.8478)
(2.76896e-15 -13.1432 20.7361)
(2.90587e-15 -11.3072 19.5826)
(3.55156e-15 -10.9449 17.6063)
(2.33412e-15 -9.9242 16.1487)
(2.40159e-15 -9.2717 14.6532)
(3.73797e-15 -8.60601 13.2773)
(1.87073e-15 -7.95636 11.954)
(1.41223e-15 -7.33673 10.6917)
(3.62733e-15 -6.66075 9.5758)
(2.18561e-15 -5.93452 8.40747)
(-1.68355e-15 -4.62861 6.91828)
(6.96653e-15 -2.29013 2.71553)
(2.01697e-14 -11.9194 22.9918)
(1.55626e-14 -15.7217 24.9161)
(2.3482e-15 -12.3057 23.0495)
(3.33208e-15 -12.5514 19.9823)
(3.14502e-15 -10.5037 18.8852)
(3.2855e-15 -10.1948 16.7215)
(2.25733e-15 -8.83323 15.1901)
(2.29252e-15 -8.18289 13.3356)
(2.54666e-15 -7.45998 11.8693)
(1.95677e-15 -7.11215 10.7278)
(9.35542e-16 -6.99319 10.1539)
(1.1979e-15 -7.11146 10.1407)
(1.27815e-15 -7.10949 10.3973)
(-2.38235e-15 -6.64065 10.0932)
(2.0605e-15 -4.40418 7.02647)
(2.02277e-14 -12.7537 24.1854)
(1.1838e-14 -15.0612 24.638)
(6.73029e-16 -12.1527 23.0532)
(3.22132e-15 -12.0976 20.643)
(1.91771e-15 -10.181 19.4975)
(6.00336e-16 -9.35674 17.2398)
(1.35016e-15 -7.32004 14.7406)
(1.17091e-15 -5.66841 11.5874)
(-5.85525e-17 -4.1925 9.16257)
(9.86425e-16 -3.64326 7.83137)
(1.56478e-16 -4.03469 8.11938)
(-1.04083e-15 -5.45855 9.95069)
(2.82796e-16 -7.12486 12.2816)
(-1.78252e-15 -8.09437 13.2342)
(-1.48291e-15 -5.76877 10.4699)
(1.96711e-14 -13.7426 25.7655)
(1.0594e-14 -16.3875 26.792)
(-5.22782e-16 -12.9771 24.6005)
(1.88126e-15 -12.9768 22.7161)
(9.31252e-16 -11.2078 21.739)
(-3.75257e-16 -10.32 19.6311)
(4.57216e-17 -8.05179 16.9306)
(9.21144e-16 -5.8902 13.3894)
(8.33081e-16 -3.63064 10.3051)
(1.77974e-15 -1.84416 7.59741)
(1.93341e-15 -0.441009 5.46087)
(-7.20564e-17 -0.238596 4.74042)
(-2.24751e-15 -1.87216 6.41355)
(-2.214e-15 -4.43562 9.22145)
(-1.21929e-15 -4.10562 8.63385)
(1.81931e-14 -12.9777 23.871)
(1.37691e-14 -18.4906 29.7275)
(1.88051e-15 -15.103 27.0868)
(1.78884e-15 -14.5976 24.5542)
(5.23582e-16 -13.0068 23.4786)
(6.47994e-16 -12.4594 21.6536)
(1.63654e-16 -10.6934 19.5117)
(3.19281e-16 -8.9393 16.4453)
(2.39934e-15 -6.73955 13.3833)
(2.26523e-15 -4.6789 10.2433)
(2.95915e-15 -2.47472 6.96498)
(5.93583e-15 -0.29779 3.40104)
(4.55624e-15 1.82604 0.0329345)
(4.24961e-15 2.18473 -1.15141)
(-9.62173e-16 0.298091 0.425434)
(1.5983e-14 -10.4151 18.4744)
(1.70418e-14 -18.395 29.4101)
(6.69517e-15 -16.8221 28.4004)
(2.46932e-15 -15.4901 25.0474)
(3.39732e-16 -13.9397 23.0773)
(1.30073e-15 -13.2972 21.2597)
(1.06152e-15 -12.2572 19.5419)
(3.30418e-17 -11.1667 17.4159)
(1.59222e-15 -9.77158 15.1167)
(1.69094e-15 -8.24945 12.6614)
(1.49369e-15 -6.5472 10.0391)
(3.72356e-15 -4.58172 7.1617)
(3.14331e-15 -2.27255 3.77853)
(3.625e-15 1.20415 -0.115511)
(-2.65159e-15 1.316 -4.42463)
(1.35564e-14 -7.80487 13.2539)
(1.85598e-14 -17.0069 27.4881)
(1.01695e-14 -17.1766 28.4148)
(3.69297e-15 -15.6584 25.0226)
(9.88251e-16 -14.0436 22.3247)
(9.8654e-16 -13.1286 20.2119)
(7.65328e-16 -12.2614 18.4631)
(1.27671e-15 -11.3924 16.7055)
(1.28566e-15 -10.4115 14.876)
(7.71106e-16 -9.29575 12.9689)
(1.11697e-15 -8.07526 10.9626)
(1.05301e-15 -6.63676 8.86496)
(5.47253e-16 -5.06899 6.44868)
(1.59291e-15 -2.7766 3.747)
(-2.27485e-15 -0.701372 -0.898811)
(1.05964e-14 -5.25033 8.02633)
(1.87129e-14 -15.0809 24.7133)
(9.96903e-15 -16.1488 26.7083)
(2.08376e-15 -14.1566 23.0126)
(5.04007e-16 -12.2211 20.0327)
(8.80733e-16 -11.22 18.1638)
(9.72133e-16 -10.4945 16.8886)
(1.90672e-15 -9.87148 15.6808)
(1.90538e-15 -9.23179 14.4377)
(1.34771e-15 -8.53027 13.1648)
(5.44583e-16 -7.8078 11.8354)
(-6.8965e-17 -6.94114 10.4466)
(3.08214e-16 -5.97421 8.76671)
(1.40169e-16 -4.42559 6.69755)
(-1.99733e-15 -2.24971 2.82168)
(5.91044e-15 -4.33311 8.18559)
(1.79814e-14 -14.9232 24.1194)
(1.58153e-14 -18.6039 28.4406)
(8.25304e-15 -18.7108 26.6334)
(2.33546e-15 -17.1442 23.2541)
(5.61578e-16 -15.4495 20.2078)
(-4.56967e-16 -13.9579 17.7573)
(-9.20852e-16 -12.5955 15.7419)
(9.55178e-17 -11.2779 14.0003)
(7.87527e-16 -10.0038 12.406)
(-3.48043e-16 -8.75331 10.889)
(-1.4332e-15 -7.5369 9.51623)
(-2.22131e-15 -6.48028 8.56532)
(-3.31122e-15 -5.65055 7.7246)
(-4.73898e-15 -2.84224 5.04253)
(2.62682e-18 11.6096 67.971)
(1.36899e-16 0.170366 8.00356)
(1.051e-16 -0.764254 -3.51693)
(8.78372e-17 -0.510663 -2.1919)
(6.77095e-17 -0.355615 -2.56999)
(4.52282e-17 0.322588 -3.39058)
(4.47131e-17 0.0194062 -2.26751)
(1.01912e-16 0.273539 -2.23744)
(-1.38273e-17 0.437999 -2.2235)
(1.092e-15 0.954731 -2.98345)
(1.25421e-15 0.752245 -2.07586)
(1.27947e-15 0.9348 -1.96212)
(1.23634e-15 1.44648 -2.53436)
(9.23914e-16 1.1791 -1.75896)
(9.29305e-16 1.41009 -1.72862)
(9.14238e-16 1.45403 -1.67608)
(8.78545e-16 1.90359 -2.06718)
(8.06781e-16 1.60912 -1.40403)
(7.84895e-16 1.77009 -1.29581)
(9.20996e-16 2.26568 -1.49449)
(7.29472e-16 1.79507 -0.977196)
(6.92824e-16 2.03124 -0.90914)
(7.82707e-16 1.9843 -0.84854)
(1.00146e-15 2.44856 -0.891483)
(7.67983e-16 1.93755 -0.568962)
(7.91084e-16 2.15346 -0.517042)
(6.25422e-16 2.08509 -0.498188)
(8.41602e-16 2.46493 -0.442299)
(4.82678e-16 1.97724 -0.284229)
(3.77121e-16 2.07865 -0.289447)
(4.57267e-16 2.46287 -0.139501)
(7.55512e-17 1.86005 -0.114785)
(-6.10726e-18 2.03168 -0.11305)
(-2.40086e-16 1.96329 -0.156994)
(-4.90267e-16 2.23703 0.0178888)
(-5.33423e-16 1.73003 -0.0268603)
(-6.00522e-16 1.81822 -0.0791282)
(-9.63933e-16 2.07854 0.143394)
(-8.42311e-16 1.51836 0.0379276)
(-9.66699e-16 1.64839 0.0268994)
(-8.68038e-16 1.59527 -0.0273231)
(-1.31687e-15 1.79374 0.19357)
(-1.08275e-15 1.32182 0.0727436)
(-1.15959e-15 1.43982 0.0621008)
(-1.19773e-15 1.38646 0.00962568)
(-1.78275e-15 1.59836 0.192762)
(-1.6189e-15 1.28766 0.179883)
(-1.59516e-15 1.33308 0.129102)
(-2.44129e-15 1.52349 0.348299)
(-1.63378e-15 1.18071 0.26919)
(-1.65629e-15 1.24627 0.272651)
(-1.63313e-15 1.19904 0.23272)
(-2.29401e-15 1.24673 0.423911)
(-1.69304e-15 0.91191 0.220259)
(-1.76401e-15 0.948074 0.218626)
(-1.43979e-15 0.931066 0.244543)
(-1.79724e-15 0.834628 0.040261)
(-1.03569e-15 0.505749 -0.350078)
(-1.4679e-15 0.416936 -0.11676)
(-1.38289e-15 1.21468 -1.85385)
(-3.63028e-17 0.122899 -1.45526)
(3.73281e-16 -0.791925 -0.13552)
(5.05649e-16 0.697364 -0.138336)
(-1.80884e-16 0.184844 -1.18213)
(-1.7366e-15 -1.00431 1.24588)
(-1.63937e-15 -0.623366 1.18121)
(-2.2178e-15 -1.52539 3.57215)
(-1.55641e-15 -2.16471 4.13501)
(-1.4277e-15 -2.42563 4.14032)
(-1.33851e-15 -2.39231 4.32112)
(-1.27783e-15 -3.90664 7.25138)
(-6.24769e-16 -4.24768 6.20751)
(-4.8739e-16 -4.79207 6.29133)
(-3.38037e-16 -4.68463 6.42229)
(-2.97733e-17 -7.09457 9.92468)
(8.87613e-17 -6.99041 7.9323)
(-7.45656e-17 -7.0651 8.5035)
(-1.71676e-16 -9.85784 12.5932)
(-3.61622e-16 -9.42723 9.83441)
(-7.11181e-16 -9.7899 10.7447)
(-1.45313e-15 -10.5925 12.8674)
(-1.25918e-15 -10.4349 12.6305)
(-1.29794e-15 -10.5307 12.982)
(4.88669e-17 -12.0419 15.2452)
(-9.09034e-16 -11.0885 14.1173)
(-5.11562e-16 -11.3082 14.6654)
(-3.63514e-16 -11.2939 14.7703)
(-1.40079e-16 -11.378 14.8501)
(1.06155e-16 -11.4318 14.8824)
(3.27788e-16 -11.5115 14.9065)
(5.57412e-16 -11.5892 14.9875)
(7.71388e-16 -11.6074 15.1646)
(1.82948e-15 -12.5035 16.665)
(1.01326e-15 -11.9389 15.622)
(1.08514e-15 -12.0941 15.8008)
(1.05985e-15 -12.077 15.9298)
(1.20859e-15 -12.2062 16.2332)
(1.25927e-15 -12.2177 16.394)
(1.3862e-15 -12.3075 16.536)
(1.501e-15 -12.3826 16.6797)
(1.6284e-15 -12.4223 16.8295)
(2.78777e-15 -13.0057 18.0923)
(2.14129e-15 -12.4799 17.1354)
(2.22502e-15 -12.6059 17.2999)
(2.23756e-15 -12.6305 17.3316)
(2.30275e-15 -12.7024 17.4573)
(2.44705e-15 -12.7413 17.6771)
(2.59894e-15 -12.8306 17.9435)
(2.6211e-15 -12.8495 18.044)
(2.76555e-15 -12.929 18.1832)
(2.88827e-15 -12.9924 18.2842)
(3.63131e-15 -12.93 18.7778)
(3.09092e-15 -12.6792 18.2712)
(3.29769e-15 -12.7413 18.4483)
(3.41832e-15 -12.7592 18.5923)
(3.52331e-15 -12.8224 18.804)
(3.54302e-15 -12.8394 19.0498)
(3.44708e-15 -12.9146 19.4249)
(3.51789e-15 -12.9347 19.5908)
(3.63172e-15 -13.0388 19.638)
(4.61037e-15 -12.1964 18.9879)
(3.66673e-15 -12.2576 18.8169)
(3.70592e-15 -12.2604 18.8262)
(3.72898e-15 -12.3111 18.8311)
(3.76631e-15 -12.2818 18.6602)
(3.83683e-15 -12.3161 18.5893)
(4.0148e-15 -12.3115 18.5369)
(4.27948e-15 -12.2663 18.5636)
(4.69498e-15 -12.4443 18.8346)
(5.56087e-15 -10.5021 16.599)
(5.17729e-15 -11.1235 17.6833)
(5.53685e-15 -11.0128 17.5959)
(5.74951e-15 -10.995 17.6797)
(6.08245e-15 -10.9738 17.9372)
(6.23161e-15 -10.9227 17.8909)
(6.26059e-15 -10.8317 17.6718)
(6.20505e-15 -10.7634 17.3501)
(6.09118e-15 -10.7921 16.8383)
(6.06508e-15 -8.08278 12.7768)
(6.00607e-15 -9.11184 14.8067)
(5.49175e-15 -8.82961 13.5922)
(5.13788e-15 -8.85586 12.8243)
(4.86411e-15 -8.68639 11.9299)
(4.81149e-15 -8.58472 11.1737)
(5.62923e-15 -8.40281 10.6983)
(4.87638e-15 -8.19433 9.95284)
(4.73598e-15 -7.98387 9.41947)
(4.41504e-15 -7.82331 8.80912)
(1.74692e-15 -4.43207 3.32134)
(4.19281e-15 -6.16634 7.56566)
(3.84985e-15 -5.5709 6.54698)
(3.61437e-15 -5.673 6.31214)
(3.23281e-15 -5.30971 5.6261)
(2.68382e-15 -5.23395 4.76039)
(1.50675e-15 -5.03881 2.94386)
(3.87697e-16 -4.65422 1.10488)
(6.42412e-16 -4.64085 1.10488)
(-6.49491e-16 -4.03624 -1.41296)
(3.01484e-16 -4.10842 0.261435)
(9.66976e-17 -4.02282 -0.484761)
(-9.80101e-16 -3.00809 -2.09706)
(-6.55512e-16 -4.51606 -1.54641)
(-8.89612e-16 -3.50074 -1.48793)
(-6.9381e-16 -3.13274 -1.03407)
(-9.50858e-16 -3.88446 -1.45148)
(-6.94815e-16 -2.64249 -0.929866)
(-9.5325e-16 -3.35469 -1.3786)
(-7.7501e-16 -2.95957 -1.07884)
(-6.22892e-16 -2.39188 -0.828381)
(-9.35131e-16 -2.82995 -1.21252)
(-8.84648e-16 -2.52368 -0.985442)
(-7.86262e-16 -2.11308 -0.767459)
(-1.10287e-15 -2.70169 -1.06757)
(-8.68209e-16 -1.79078 -0.737087)
(-1.2051e-15 -2.28274 -1.10436)
(-8.57884e-16 -1.91826 -0.925991)
(-8.37017e-16 -1.62974 -0.742484)
(-1.08637e-15 -2.06269 -1.04169)
(-6.13927e-16 -1.3362 -0.736661)
(-9.56634e-16 -1.71635 -1.11328)
(-8.2054e-16 -1.46339 -0.9327)
(-6.82398e-16 -1.1561 -0.745582)
(-9.61422e-16 -1.36186 -1.11863)
(-9.80183e-16 -1.166 -0.916248)
(-6.51826e-16 -0.949227 -0.712571)
(-9.65838e-16 -1.21753 -1.02169)
(-7.21752e-16 -0.724431 -0.700313)
(-1.02751e-15 -0.970353 -1.095)
(-6.10207e-16 -0.718351 -0.871899)
(-6.45127e-16 -0.584538 -0.662542)
(-8.79606e-16 -0.777581 -0.964139)
(-7.51362e-16 -0.369694 -0.648957)
(-1.21888e-15 -0.59865 -1.04135)
(-1.52621e-15 -0.355905 -0.836575)
(-6.79731e-16 -0.200537 -0.630394)
(-1.10062e-15 -0.396864 -0.998987)
(-1.36091e-15 -0.12861 -0.81424)
(1.46423e-16 0.0348681 -0.573488)
(5.07573e-17 -0.595766 -0.8411)
(1.9096e-18 0.66078 -0.446734)
(3.35921e-16 -0.253631 -0.757052)
(3.62788e-15 -0.293634 -0.819318)
(1.6311e-15 0.484495 -0.480948)
(-2.23774e-15 -0.00637955 -0.643056)
(-2.43758e-15 0.342894 -0.424758)
(-1.29957e-15 0.444513 -0.478774)
(-1.87017e-15 0.287692 -0.577255)
(-1.77361e-15 0.443097 -0.410923)
(-1.96158e-15 0.497103 -0.461713)
(-1.0266e-15 0.407003 -0.515499)
(-4.16131e-16 0.532087 -0.364776)
(3.03136e-16 0.560508 -0.484088)
(7.49185e-16 0.572253 -0.351149)
(1.35679e-15 0.661336 -0.385457)
(7.02164e-16 0.637558 -0.384697)
(-1.69671e-16 0.633413 -0.248489)
(-1.72139e-15 0.752268 -0.312478)
(-1.96923e-15 0.683099 -0.235569)
(-2.7901e-15 0.772793 -0.274445)
(-3.26406e-15 0.779134 -0.281516)
(-2.14496e-15 0.725604 -0.192463)
(-2.75627e-15 0.846702 -0.199528)
(-2.2036e-15 0.852178 -0.18752)
(-1.18371e-15 0.765336 -0.133352)
(-9.50698e-16 0.949867 -0.175797)
(-3.86961e-16 0.822809 -0.141798)
(-2.05052e-16 0.924728 -0.166518)
(-5.77423e-17 0.961424 -0.190826)
(1.13082e-16 0.867635 -0.137164)
(5.94228e-16 1.07926 -0.191392)
(8.01955e-16 0.938189 -0.138287)
(1.24342e-15 1.05183 -0.161115)
(1.76642e-15 1.10547 -0.193723)
(1.17117e-15 1.01462 -0.129976)
(1.18437e-15 1.16776 -0.164486)
(7.56866e-16 1.23146 -0.267336)
(2.31402e-16 1.10428 -0.184822)
(2.1572e-17 1.39664 -0.343608)
(-1.43967e-16 1.21145 -0.243745)
(-2.05935e-16 1.40974 -0.380628)
(-6.47007e-26 0.903817 1.18684)
(-2.69777e-25 1.01665 1.19481)
(-7.10972e-25 1.07304 1.20701)
(-1.51193e-24 1.13582 1.2215)
(-2.15272e-24 1.19116 1.23915)
(6.52092e-25 1.24504 1.25936)
(2.02149e-23 1.29596 1.28211)
(1.069e-22 1.34586 1.3074)
(4.61589e-22 1.39457 1.33515)
(1.9198e-21 1.44299 1.36545)
(7.87235e-21 1.4913 1.39829)
(3.10926e-20 1.54 1.43377)
(1.15264e-19 1.58933 1.47199)
(3.9509e-19 1.63954 1.51314)
(1.24476e-18 1.69069 1.55761)
(3.60089e-18 1.74255 1.60625)
(9.57442e-18 1.79441 1.66084)
(2.34365e-17 1.84487 1.72492)
(5.28949e-17 1.89154 1.80458)
(1.10207e-16 1.93108 1.90906)
(2.12191e-16 1.95943 2.05001)
(3.77952e-16 1.97263 2.239)
(6.23768e-16 1.96796 2.48327)
(9.56136e-16 1.94495 2.78162)
(1.36574e-15 1.90579 3.12257)
(1.82543e-15 1.85503 3.4862)
(2.29376e-15 1.79893 3.84827)
(2.72293e-15 1.74478 4.18459)
(3.06855e-15 1.69995 4.47421)
(3.29776e-15 1.67048 4.70198)
(3.39357e-15 1.65936 4.86049)
(3.35456e-15 1.6657 4.95047)
(3.19147e-15 1.68537 4.97881)
(2.92236e-15 1.71244 4.95538)
(2.56817e-15 1.74041 4.89015)
(2.1491e-15 1.76264 4.79166)
(1.68203e-15 1.77184 4.66659)
(1.17641e-15 1.76045 4.52033)
(6.18349e-16 1.72611 4.36085)
(-4.99188e-17 1.67065 4.20057)
(-8.08868e-16 1.50547 4.01025)
(-1.06869e-15 0.842961 3.57632)
(4.5826e-18 -0.492154 2.79617)
(7.41314e-16 -1.30552 2.55752)
(1.30283e-15 -1.72857 2.40913)
(1.82786e-15 -2.06225 2.2539)
(2.31544e-15 -2.41593 2.09272)
(2.74738e-15 -2.7852 1.93456)
(3.10827e-15 -3.16404 1.77471)
(3.37504e-15 -3.54505 1.61316)
(3.52453e-15 -3.92016 1.45158)
(3.54503e-15 -4.27799 1.28521)
(3.42978e-15 -4.61224 1.11928)
(3.1857e-15 -4.91972 0.946994)
(2.83137e-15 -5.18195 0.767863)
(2.40171e-15 -5.39594 0.587618)
(1.93412e-15 -5.54997 0.403725)
(1.45799e-15 -5.66539 0.231988)
(9.8482e-16 -5.59996 0.0478301)
(5.44552e-16 -5.43042 -0.0736296)
(2.35055e-16 -5.21198 -0.191123)
(6.71659e-17 -4.89474 -0.250892)
(9.94331e-18 -4.64421 -0.292279)
(-3.20251e-19 -4.41005 -0.313148)
(-4.63815e-19 -4.16529 -0.327484)
(-8.70397e-20 -3.91233 -0.33264)
(-2.65714e-21 -3.62842 -0.342405)
(2.02784e-21 -3.30645 -0.346448)
(4.23236e-22 -2.89787 -0.358575)
(1.26213e-24 -2.48526 -0.358471)
(-3.56028e-23 -1.88518 -0.375149)
(2.39432e-23 -1.40932 -0.364323)
(-6.82556e-22 0.219778 -0.446782)
(4.17304e-21 1.17322 -0.380453)
(-1.95628e-20 2.03769 -0.424527)
(1.20536e-19 2.51986 -0.047008)
(-3.76792e-19 2.86191 -0.354682)
(6.35353e-19 3.14417 0.241721)
(1.46303e-18 -3.47182 -0.440427)
(-2.10431e-25 0.902734 1.24799)
(-7.71509e-25 1.01364 1.25441)
(-1.77673e-24 1.06888 1.26674)
(-3.01733e-24 1.13079 1.28167)
(-1.48814e-24 1.18518 1.30004)
(1.61048e-23 1.23824 1.32138)
(9.91212e-23 1.28833 1.34545)
(4.30028e-22 1.33742 1.37239)
(1.71725e-21 1.38533 1.40198)
(6.7562e-21 1.43293 1.43438)
(2.61465e-20 1.48041 1.46953)
(9.70802e-20 1.52824 1.50761)
(3.38238e-19 1.57665 1.54875)
(1.09183e-18 1.62585 1.59336)
(3.24739e-18 1.67574 1.64226)
(8.88557e-18 1.72587 1.69731)
(2.23703e-17 1.77505 1.76223)
(5.18532e-17 1.8211 1.84373)
(1.10725e-16 1.86069 1.9523)
(2.17902e-16 1.88958 2.1017)
(3.95369e-16 1.90348 2.30594)
(6.61979e-16 1.8994 2.57384)
(1.0246e-15 1.87699 2.90316)
(1.47037e-15 1.83902 3.27784)
(1.9646e-15 1.79069 3.671)
(2.45645e-15 1.73836 4.05195)
(2.89022e-15 1.6886 4.39344)
(3.21777e-15 1.6478 4.67573)
(3.40756e-15 1.6216 4.88765)
(3.44802e-15 1.61372 5.02631)
(3.34544e-15 1.62461 5.09596)
(3.11849e-15 1.65126 5.10589)
(2.792e-15 1.68832 5.06736)
(2.39175e-15 1.72955 4.99108)
(1.94033e-15 1.76875 4.88606)
(1.45393e-15 1.79983 4.75961)
(9.40153e-16 1.816 4.61765)
(3.95623e-16 1.80953 4.46515)
(-2.07218e-16 1.7768 4.30903)
(-9.50225e-16 1.72488 4.16281)
(-1.86524e-15 1.59914 4.01277)
(-2.25608e-15 1.0266 3.64146)
(-4.53161e-16 -0.422123 2.71064)
(9.01818e-16 -1.34084 2.43204)
(1.40061e-15 -1.7319 2.3854)
(1.88239e-15 -2.06038 2.23111)
(2.35592e-15 -2.41684 2.06524)
(2.77619e-15 -2.78724 1.912)
(3.12659e-15 -3.16588 1.75723)
(3.38479e-15 -3.54568 1.60067)
(3.52771e-15 -3.91783 1.44392)
(3.54338e-15 -4.27145 1.28203)
(3.42505e-15 -4.60051 1.11953)
(3.17949e-15 -4.90139 0.949992)
(2.82514e-15 -5.15722 0.773123)
(2.3965e-15 -5.36508 0.594432)
(1.93044e-15 -5.51462 0.411725)
(1.45591e-15 -5.62462 0.240653)
(9.84212e-16 -5.55962 0.0567811)
(5.45015e-16 -5.39299 -0.0653902)
(2.3586e-16 -5.17739 -0.183985)
(6.76977e-17 -4.86493 -0.245452)
(1.00613e-17 -4.61574 -0.288659)
(-3.4621e-19 -4.3824 -0.31131)
(-4.83477e-19 -4.13782 -0.32733)
(-9.08581e-20 -3.88443 -0.334173)
(-2.58947e-21 -3.60023 -0.345725)
(2.21032e-21 -3.27835 -0.351742)
(4.60681e-22 -2.87067 -0.366301)
(1.88423e-24 -2.45945 -0.368654)
(-3.73338e-23 -1.86078 -0.390825)
(2.69344e-23 -1.38164 -0.383652)
(-7.72652e-22 0.205409 -0.495701)
(4.25611e-21 1.17094 -0.36027)
(-1.94478e-20 1.98641 -0.419213)
(1.10555e-19 2.50777 -0.0366484)
(-3.21692e-19 2.81979 -0.339694)
(3.22648e-19 3.1547 0.214216)
(2.32239e-18 -3.36348 -0.430983)
(-5.03962e-25 0.902312 1.28173)
(-1.61792e-24 1.01232 1.28764)
(-3.12088e-24 1.06678 1.29999)
(-3.24213e-24 1.12826 1.31527)
(8.14824e-24 1.18211 1.33409)
(6.98227e-23 1.23473 1.35614)
(3.19698e-22 1.28437 1.38102)
(1.25919e-21 1.33303 1.40895)
(4.77792e-21 1.3805 1.43964)
(1.79631e-20 1.42767 1.4733)
(6.60744e-20 1.47469 1.50985)
(2.32204e-19 1.52205 1.54953)
(7.65113e-19 1.56991 1.59259)
(2.33836e-18 1.61841 1.63975)
(6.59542e-18 1.66728 1.69251)
(1.71354e-17 1.71572 1.75409)
(4.09857e-17 1.762 1.83046)
(9.02362e-17 1.80326 1.9315)
(1.82836e-16 1.83562 2.07092)
(3.40894e-16 1.85483 2.26383)
(5.85043e-16 1.85768 2.52131)
(9.25417e-16 1.84342 2.84362)
(1.35287e-15 1.81441 3.21611)
(1.83567e-15 1.77547 3.61135)
(2.3245e-15 1.73224 3.99689)
(2.76391e-15 1.68987 4.34415)
(3.105e-15 1.65283 4.63371)
(3.31462e-15 1.62538 4.85585)
(3.37897e-15 1.61148 5.00861)
(3.30203e-15 1.61381 5.09556)
(3.10073e-15 1.63245 5.12407)
(2.79907e-15 1.66458 5.10355)
(2.42277e-15 1.70536 5.04369)
(1.99487e-15 1.74907 4.9534)
(1.53212e-15 1.78986 4.84045)
(1.04191e-15 1.82176 4.71179)
(5.20758e-16 1.83807 4.57367)
(-4.61667e-17 1.83098 4.43146)
(-6.946e-16 1.79621 4.29152)
(-1.51416e-15 1.74149 4.16577)
(-2.57104e-15 1.62842 4.04914)
(-3.19317e-15 1.11836 3.75005)
(-1.23256e-15 -0.283158 2.78413)
(9.445e-16 -1.2633 2.29086)
(1.55683e-15 -1.69175 2.31033)
(1.96594e-15 -2.00862 2.20279)
(2.40603e-15 -2.3631 2.03237)
(2.81249e-15 -2.73513 1.87995)
(3.14997e-15 -3.11369 1.73201)
(3.39694e-15 -3.49386 1.5824)
(3.5315e-15 -3.8666 1.43228)
(3.54112e-15 -4.2212 1.27694)
(3.41894e-15 -4.55134 1.11974)
(3.17153e-15 -4.8528 0.954387)
(2.81718e-15 -5.10989 0.780918)
(2.38984e-15 -5.31946 0.6046)
(1.9257e-15 -5.47211 0.423647)
(1.45317e-15 -5.58428 0.253314)
(9.83319e-16 -5.52692 0.0695239)
(5.45478e-16 -5.36968 -0.0536662)
(2.36791e-16 -5.16276 -0.173847)
(6.83303e-17 -4.86049 -0.237644)
(1.02056e-17 -4.6171 -0.283216)
(-3.76741e-19 -4.38784 -0.308257)
(-5.07548e-19 -4.14576 -0.326601)
(-9.56386e-20 -3.89332 -0.335783)
(-2.51042e-21 -3.60936 -0.349839)
(2.44423e-21 -3.28708 -0.358653)
(5.09537e-22 -2.87947 -0.376664)
(2.73056e-24 -2.46692 -0.382481)
(-3.96605e-23 -1.86856 -0.411173)
(2.9692e-23 -1.37509 -0.406161)
(-8.10426e-22 0.196941 -0.503592)
(4.27588e-21 1.16421 -0.350732)
(-1.92796e-20 1.96426 -0.41866)
(1.04145e-19 2.49997 -0.0373316)
(-2.82833e-19 2.8065 -0.330925)
(1.45427e-19 3.15736 0.184857)
(1.76226e-18 -3.31403 -0.397278)
(-1.12529e-24 0.901678 1.32198)
(-3.09204e-24 1.01033 1.3276)
(-4.41692e-24 1.06367 1.34008)
(1.81794e-24 1.12448 1.35585)
(4.57936e-23 1.17753 1.37526)
(2.34689e-22 1.2295 1.39821)
(9.40293e-22 1.27846 1.42409)
(3.49018e-21 1.32648 1.45324)
(1.27216e-20 1.37331 1.48529)
(4.58923e-20 1.41982 1.52049)
(1.61034e-19 1.46616 1.55878)
(5.37836e-19 1.51278 1.6005)
(1.68255e-18 1.55977 1.64616)
(4.88442e-18 1.60711 1.69702)
(1.3096e-17 1.65422 1.75581)
(3.23571e-17 1.69975 1.82786)
(7.35826e-17 1.74118 1.92244)
(1.53872e-16 1.77485 2.05327)
(2.9565e-16 1.79643 2.23673)
(5.21764e-16 1.80231 2.48673)
(8.46304e-16 1.79123 2.80698)
(1.26443e-15 1.7654 3.18501)
(1.7471e-15 1.72995 3.59268)
(2.24496e-15 1.69106 3.99407)
(2.70011e-15 1.6539 4.35638)
(3.06008e-15 1.62195 4.65756)
(3.2883e-15 1.59777 4.88781)
(3.36842e-15 1.5841 5.0468)
(3.30311e-15 1.58391 5.13975)
(3.10932e-15 1.59915 5.1747)
(2.81223e-15 1.62938 5.16085)
(2.43938e-15 1.67143 5.1076)
(2.01578e-15 1.7203 5.02378)
(1.55996e-15 1.77028 4.91741)
(1.08063e-15 1.81561 4.79586)
(5.74349e-16 1.85045 4.66618)
(2.50923e-17 1.86828 4.53503)
(-5.93591e-16 1.86136 4.40806)
(-1.32388e-15 1.82475 4.29083)
(-2.25773e-15 1.76767 4.19319)
(-3.48684e-15 1.67244 4.11466)
(-4.38558e-15 1.24337 3.88898)
(-2.50434e-15 -0.0889681 2.96112)
(7.38837e-16 -1.20509 2.19835)
(1.68991e-15 -1.68109 2.19267)
(2.08367e-15 -1.98214 2.15165)
(2.46558e-15 -2.32735 1.99847)
(2.84962e-15 -2.70127 1.84324)
(3.17477e-15 -3.08045 1.70028)
(3.40984e-15 -3.46034 1.55915)
(3.53524e-15 -3.83269 1.41712)
(3.53845e-15 -4.18693 1.26988)
(3.41221e-15 -4.51659 1.11957)
(3.16287e-15 -4.81715 0.959779)
(2.80853e-15 -5.07393 0.790774)
(2.38257e-15 -5.28362 0.617657)
(1.92047e-15 -5.43764 0.439007)
(1.45006e-15 -5.55044 0.269627)
(9.82162e-16 -5.49833 0.0859458)
(5.45794e-16 -5.34795 -0.0384329)
(2.37663e-16 -5.14734 -0.160542)
(6.89515e-17 -4.85279 -0.227213)
(1.03529e-17 -4.61368 -0.275724)
(-4.06441e-19 -4.38741 -0.303717)
(-5.32279e-19 -4.14713 -0.324988)
(-1.00701e-19 -3.89528 -0.33708)
(-2.43576e-21 -3.61135 -0.354225)
(2.6995e-21 -3.28864 -0.366452)
(5.64175e-22 -2.88099 -0.388633)
(3.74387e-24 -2.46727 -0.398587)
(-4.23527e-23 -1.86906 -0.43404)
(3.20275e-23 -1.36578 -0.430387)
(-8.37938e-22 0.190559 -0.523067)
(4.3117e-21 1.15835 -0.350005)
(-1.89914e-20 1.93086 -0.421189)
(9.60924e-20 2.48809 -0.0419288)
(-2.37977e-19 2.78518 -0.3199)
(-4.97713e-20 3.16002 0.160125)
(1.32692e-18 -3.28348 -0.370287)
(-2.30696e-24 0.901155 1.36119)
(-5.05564e-24 1.00866 1.36683)
(-2.73557e-24 1.06088 1.37947)
(2.66566e-23 1.12109 1.39583)
(1.66756e-22 1.17337 1.41587)
(7.0162e-22 1.22472 1.43977)
(2.5984e-21 1.27306 1.46669)
(9.23745e-21 1.32048 1.49711)
(3.24896e-20 1.3667 1.53056)
(1.12642e-19 1.41259 1.56736)
(3.77733e-19 1.45828 1.60751)
(1.20153e-18 1.50413 1.65154)
(3.57546e-18 1.55013 1.7004)
(9.87174e-18 1.59597 1.7564)
(2.51727e-17 1.64056 1.82417)
(5.91258e-17 1.6818 1.91221)
(1.27677e-16 1.71627 2.03389)
(2.53068e-16 1.73968 2.20651)
(4.59885e-16 1.74808 2.44664)
(7.66066e-16 1.73973 2.76196)
(1.17148e-15 1.71664 3.1432)
(1.65045e-15 1.6844 3.56248)
(2.15403e-15 1.65006 3.98061)
(2.62205e-15 1.61942 4.3598)
(2.99854e-15 1.59543 4.67388)
(3.24377e-15 1.5788 4.91169)
(3.33929e-15 1.56979 5.0742)
(3.28682e-15 1.56973 5.16928)
(3.10333e-15 1.58097 5.2072)
(2.81477e-15 1.60536 5.19814)
(2.44994e-15 1.64259 5.15128)
(2.03529e-15 1.68978 5.07486)
(1.59068e-15 1.7422 4.97637)
(1.12602e-15 1.79436 4.86299)
(6.3865e-16 1.84057 4.74191)
(1.12098e-16 1.87501 4.62057)
(-4.82378e-16 1.89128 4.5061)
(-1.18066e-15 1.88182 4.40418)
(-2.02637e-15 1.8414 4.3189)
(-3.1043e-15 1.77963 4.25657)
(-4.51812e-15 1.69446 4.21825)
(-5.70896e-15 1.34042 4.06384)
(-4.05668e-15 0.119443 3.20276)
(2.35733e-16 -1.12537 2.1613)
(1.70544e-15 -1.67681 2.06368)
(2.21268e-15 -1.97199 2.06583)
(2.54535e-15 -2.3024 1.95377)
(2.88877e-15 -2.67571 1.80424)
(3.19878e-15 -3.05699 1.66281)
(3.42294e-15 -3.43724 1.53012)
(3.53884e-15 -3.8088 1.39798)
(3.53538e-15 -4.16183 1.26042)
(3.40504e-15 -4.48974 1.11869)
(3.15375e-15 -4.78788 0.966059)
(2.79943e-15 -5.04268 0.802789)
(2.37487e-15 -5.25079 0.633853)
(1.91485e-15 -5.40451 0.458177)
(1.44659e-15 -5.51621 0.290076)
(9.80687e-16 -5.4678 0.106584)
(5.45882e-16 -5.32291 -0.0191513)
(2.38402e-16 -5.1274 -0.143547)
(6.95219e-17 -4.8396 -0.213657)
(1.04957e-17 -4.60398 -0.265753)
(-4.33599e-19 -4.38013 -0.297346)
(-5.56533e-19 -4.14123 -0.322238)
(-1.05855e-19 -3.88967 -0.337895)
(-2.37255e-21 -3.60558 -0.358802)
(2.96875e-21 -3.28242 -0.375131)
(6.23652e-22 -2.87475 -0.402262)
(4.96618e-24 -2.46015 -0.417164)
(-4.53913e-23 -1.86265 -0.45996)
(3.40265e-23 -1.35281 -0.458159)
(-8.53222e-22 0.172426 -0.552245)
(4.31875e-21 1.149 -0.354602)
(-1.85607e-20 1.90348 -0.42641)
(8.76905e-20 2.4752 -0.0515875)
(-1.92549e-19 2.77045 -0.308846)
(-2.43174e-19 3.15911 0.140653)
(-2.07778e-18 -3.24889 -0.32809)
(-4.22653e-24 0.900552 1.40114)
(-5.82223e-24 1.00684 1.40707)
(1.21462e-23 1.05783 1.41993)
(1.12757e-22 1.11736 1.43699)
(5.16522e-22 1.1688 1.45773)
(1.9509e-21 1.21947 1.48267)
(6.85042e-21 1.2671 1.51072)
(2.35126e-20 1.31386 1.54248)
(7.9949e-20 1.3594 1.57744)
(2.6659e-19 1.4046 1.616)
(8.55305e-19 1.4495 1.65827)
(2.59474e-18 1.49439 1.70516)
(7.35343e-18 1.539 1.75845)
(1.93214e-17 1.58258 1.82214)
(4.68522e-17 1.6233 1.9038)
(1.04513e-16 1.65805 2.01618)
(2.13913e-16 1.6826 2.17699)
(4.00886e-16 1.69261 2.40525)
(6.87104e-16 1.68572 2.71295)
(1.07768e-15 1.66346 3.09524)
(1.55124e-15 1.63172 3.52587)
(2.06002e-15 1.59869 3.96312)
(2.54158e-15 1.57152 4.3637)
(2.93602e-15 1.55377 4.69591)
(3.19984e-15 1.54525 4.94537)
(3.31216e-15 1.54397 5.11288)
(3.27359e-15 1.5486 5.2084)
(3.10107e-15 1.55995 5.24519)
(2.82124e-15 1.5805 5.23594)
(2.4641e-15 1.61242 5.19109)
(2.05752e-15 1.6557 5.11885)
(1.62282e-15 1.70759 5.02611)
(1.17117e-15 1.76337 4.91938)
(7.00952e-16 1.81743 4.80555)
(1.96252e-16 1.86398 4.69219)
(-3.72549e-16 1.89719 4.58729)
(-1.04473e-15 1.91089 4.49828)
(-1.8607e-15 1.89794 4.43006)
(-2.85811e-15 1.85322 4.38405)
(-4.10426e-15 1.78671 4.36171)
(-5.70084e-15 1.71031 4.36315)
(-7.16793e-15 1.43151 4.27396)
(-5.83006e-15 0.350858 3.49854)
(-5.96553e-16 -0.99658 2.18775)
(1.53965e-15 -1.65641 1.94506)
(2.29568e-15 -1.96498 1.95232)
(2.64438e-15 -2.27974 1.88525)
(2.93821e-15 -2.64731 1.75994)
(3.22167e-15 -3.03011 1.62195)
(3.43527e-15 -3.41189 1.49531)
(3.54232e-15 -3.78313 1.37416)
(3.53196e-15 -4.13506 1.24802)
(3.39747e-15 -4.4613 1.11641)
(3.14423e-15 -4.75706 0.972579)
(2.78991e-15 -5.00995 0.81645)
(2.36675e-15 -5.21657 0.652793)
(1.90881e-15 -5.3701 0.480879)
(1.44271e-15 -5.48079 0.314473)
(9.78824e-16 -5.43634 0.13133)
(5.45673e-16 -5.29726 0.0041456)
(2.38957e-16 -5.10714 -0.122826)
(7.00175e-17 -4.8265 -0.196846)
(1.06292e-17 -4.59473 -0.253098)
(-4.57332e-19 -4.37357 -0.288904)
(-5.79697e-19 -4.13624 -0.318082)
(-1.11007e-19 -3.8851 -0.33794)
(-2.3264e-21 -3.60084 -0.363258)
(3.2488e-21 -3.27712 -0.38434)
(6.87941e-22 -2.86932 -0.417143)
(6.47871e-24 -2.45359 -0.437771)
(-4.87976e-23 -1.85698 -0.48834)
(3.56184e-23 -1.3403 -0.489402)
(-8.6119e-22 0.153465 -0.582224)
(4.30217e-21 1.13832 -0.366357)