/*--------------------------------*- C++ -*----------------------------------*\
| =========                 |                                                 |
| \\      /  F ield         | OpenFOAM: The Open Source CFD Toolbox           |
|  \\    /   O peration     | Version:  4.1                                   |
|   \\  /    A nd           | Web:      www.OpenFOAM.org                      |
|    \\/     M anipulation  |                                                 |
\*---------------------------------------------------------------------------*/
FoamFile
{
    version     2.0;
    format      ascii;
    class       volScalarField;
    location    "28";
    object      p;
}
// * * * * * * * * * * * * * * * * * * * * * * * * * * * * * * * * * * * * * //

dimensions      [0 2 -2 0 0 0 0];

internalField   nonuniform List<scalar> 
225
(
523.379
469.982
418.15
369.739
324.848
282.831
243.476
206.472
171.378
138.014
107.072
78.9333
49.9043
14.9856
-14.1665
56.9441
34.6831
28.9245
25.2143
19.7402
14.0327
8.87981
4.49105
1.00713
-1.45162
-2.64291
-2.14126
-0.0448137
1.82671
2.08688
-45.8383
-52.4813
-46.7143
-42.5675
-39.4769
-35.8815
-31.9952
-28.0579
-24.1535
-20.4376
-17.0921
-14.025
-10.9481
-8.29531
-7.06105
0.295432
-2.12262
2.47019
2.79433
2.84791
3.0631
2.97396
2.59665
2.01508
1.25589
0.299129
-0.810227
-1.72052
-1.87275
-1.56229
16.7232
14.3904
15.9441
13.8461
12.4273
11.1837
9.77376
8.39189
7.13444
6.04337
5.14235
4.42979
3.9522
3.91949
4.16434
7.49503
5.47197
6.44595
5.22661
5.02361
5.00783
4.92005
4.95336
5.10894
5.35244
5.67172
6.03459
6.35424
6.61094
6.78567
4.02359
2.86813
3.95372
3.63061
4.01742
4.41153
4.7105
5.06115
5.4177
5.74246
6.03214
6.28604
6.46426
6.54528
6.56098
5.70138
5.14356
5.9979
5.76887
5.96737
6.07986
6.10375
6.14904
6.17362
6.16878
6.14508
6.11727
6.08361
6.03775
5.98926
6.00853
5.68313
6.19394
5.91804
5.96085
5.93001
5.85493
5.80782
5.75217
5.69159
5.63232
5.5792
5.53247
5.48638
5.43517
4.68868
4.48099
4.82666
4.65026
4.72303
4.73197
4.71907
4.72726
4.72466
4.71789
4.70829
4.69356
4.67135
4.63609
4.57835
3.31854
3.20237
3.50004
3.44615
3.56577
3.61247
3.6411
3.67608
3.6927
3.69957
3.69757
3.68504
3.66098
3.62272
3.55718
2.34445
2.28425
2.53852
2.53983
2.65818
2.69957
2.72867
2.75577
2.76332
2.76124
2.74981
2.7289
2.69902
2.66022
2.59555
1.56515
1.53016
1.73249
1.74629
1.84549
1.8719
1.89426
1.9114
1.91174
1.90489
1.8903
1.86805
1.83847
1.80372
1.74583
0.880305
0.868195
1.02915
1.03389
1.11093
1.12455
1.1424
1.15449
1.15394
1.149
1.1381
1.12107
1.09608
1.06493
1.0107
0.438402
0.39913
0.455035
0.422954
0.459106
0.440424
0.434081
0.420026
0.399118
0.37643
0.349818
0.321133
0.290709
0.260778
0.217774
)
;

boundaryField
{
    inletFace
    {
        type            zeroGradient;
    }
    inlet
    {
        type            zeroGradient;
    }
    inletWalls
    {
        type            zeroGradient;
    }
    outletInlet
    {
        type            fixedValue;
        value           uniform 0;
    }
}


// ************************************************************************* //
