/*--------------------------------*- C++ -*----------------------------------*\
| =========                 |                                                 |
| \\      /  F ield         | OpenFOAM: The Open Source CFD Toolbox           |
|  \\    /   O peration     | Version:  4.1                                   |
|   \\  /    A nd           | Web:      www.OpenFOAM.org                      |
|    \\/     M anipulation  |                                                 |
\*---------------------------------------------------------------------------*/
FoamFile
{
    version     2.0;
    format      ascii;
    class       surfaceScalarField;
    location    "28";
    object      phi;
}
// * * * * * * * * * * * * * * * * * * * * * * * * * * * * * * * * * * * * * //

dimensions      [0 3 -1 0 0 0 0];

internalField   nonuniform List<scalar> 
420
(
-949.879
2249.78
-1573.96
1924.28
-2054
1779.95
-2424.23
1670.13
-2699.86
1575.83
-2888.38
1488.42
-2993.05
1404.58
-3013.85
1321
-2949.61
1235.66
-2797.22
1147.52
-2551.16
1054.13
-2192.98
941.734
-1687.18
794.063
-1012.69
625.706
287.232
373.336
1876.44
442.747
1854.86
437.297
1785.39
406.693
1700.73
380.576
1601.94
359.898
1509.1
345.288
1419.19
337.533
1328.76
333.484
1239.71
326.958
1154.05
309.617
1071.48
267.471
983.874
191.451
870.098
111.459
705.679
398.679
33.5739
1842.87
-97.3926
1985.83
-253.62
1941.62
-371.127
1818.24
-473.191
1704.01
-567.543
1603.45
-651.757
1503.4
-725.807
1402.8
-788.085
1301.99
-837.317
1203.28
-868.235
1102.4
-856.097
971.74
-740.35
754.343
-434.295
399.62
-35.6092
28.7753
1814.09
-100.655
2115.26
-225.564
2066.53
-304.5
1897.18
-368.161
1767.67
-416.958
1652.24
-446.235
1532.68
-457.019
1413.59
-451.859
1296.83
-430.16
1181.59
-387.234
1059.47
-311.883
896.39
-192.877
635.341
-48.422
255.165
-84.0157
169.626
1644.47
146.156
2138.72
123.733
2088.95
122.87
1898.04
126.943
1763.6
135.808
1643.38
149.107
1519.38
166.595
1396.1
186.952
1276.47
208.139
1160.4
229.142
1038.47
243.829
881.695
233.011
646.16
155.238
332.946
71.2115
223.078
1421.39
244.182
2117.62
234.743
2098.39
236.024
1896.76
240.372
1759.25
244.306
1639.45
246.55
1517.14
245.254
1397.4
241.163
1280.56
233.993
1167.57
221.386
1051.07
199.146
903.934
156.147
689.153
78.3016
410.785
149.512
203.319
1218.07
238.372
2082.57
213.615
2123.14
191.408
1918.97
177.2
1773.45
163.769
1652.88
150.036
1530.87
135.897
1411.54
121.072
1295.39
106.918
1181.72
92.8239
1065.17
75.7706
920.983
52.0203
712.897
19.0192
443.786
168.533
171.851
1046.22
221.983
2032.44
199.421
2145.7
170.407
1947.99
152.055
1791.8
137.674
1667.26
122.786
1545.76
108.587
1425.74
95.5946
1308.38
83.1158
1194.2
71.4939
1076.79
58.6445
933.837
40.3321
731.214
15.7527
468.366
184.287
146.093
900.122
210.059
1968.47
196.877
2158.89
170.058
1974.81
152.408
1809.45
139.54
1680.13
127.077
1558.23
113.873
1438.94
101.328
1320.93
89.4318
1206.1
76.9984
1089.22
63.1006
947.733
44.3126
749.997
19.1662
493.506
203.455
116.756
783.359
184.851
1900.38
179.629
2164.11
154.312
2000.13
137.225
1826.54
124.005
1693.35
111.374
1570.86
98.9644
1451.35
86.109
1333.78
73.8663
1218.34
62.1033
1100.98
49.0228
960.806
32.8488
766.159
13.178
513.171
216.64
83.1612
700.191
143.137
1840.41
144.687
2162.55
122.759
2022.05
106.153
1843.15
94.4638
1705.03
82.5809
1582.73
71.1685
1462.76
60.3833
1344.56
49.4512
1229.27
39.4159
1111.01
29.7315
970.488
18.073
777.818
5.23355
526.016
221.887
51.2513
648.938
97.941
1793.72
102.724
2157.76
87.3911
2037.39
73.1586
1857.38
63.1482
1715.04
54.2519
1591.63
44.8728
1472.14
36.1637
1353.27
28.1884
1237.24
20.437
1118.77
13.6913
977.233
6.7513
784.768
-0.393506
533.176
221.493
25.1342
623.809
57.7314
1761.13
63.5256
2151.97
53.4838
2047.44
43.8957
1866.97
36.1792
1722.76
29.5497
1598.26
23.5049
1478.19
17.0631
1359.72
11.3235
1242.99
6.62645
1123.47
2.4967
981.37
-1.04972
788.33
-3.6665
535.802
217.811
1.40552
622.412
24.0379
1738.5
33.3535
2142.68
27.7251
2053.06
20.3676
1874.33
15.0676
1728.07
9.53085
1603.8
4.57506
1483.15
0.027507
1364.27
-4.84155
1247.86
-8.35048
1126.98
-9.65547
982.685
-9.72502
788.405
-7.14574
533.217
210.654
-11.7397
-3.15271
1.44488
-0.39888
-5.07787
-8.81971
-11.7643
-15.2006
-18.0655
-20.1994
-21.7651
-21.1
-18.1161
-12.3854
)
;

boundaryField
{
    inletFace
    {
        type            calculated;
        value           nonuniform List<scalar> 
450
(
-2.0505e-14
5.83123e-13
-2.26899e-13
-1.28198e-13
1.46724e-13
-1.92201e-13
-6.32744e-14
6.97824e-14
-1.01392e-13
-2.67642e-14
5.7725e-14
-2.95745e-14
-7.39646e-15
7.90524e-15
8.18886e-16
-2.1964e-12
-2.28343e-12
-4.60701e-14
-6.81402e-13
-1.98774e-13
3.78905e-14
-2.8196e-13
-1.83884e-13
-2.17292e-15
-9.58762e-14
-4.46695e-14
4.65348e-14
-5.18149e-14
-9.93779e-15
-1.25375e-15
-2.21428e-12
-2.40562e-12
-1.90969e-13
-5.43594e-13
-3.79249e-13
-7.99638e-14
-2.45774e-13
-4.87641e-14
-1.5898e-13
-1.71563e-13
3.86124e-15
1.78032e-14
1.5141e-14
-1.59561e-14
1.18076e-15
-2.38369e-12
-2.27116e-12
-2.89627e-13
-6.48487e-13
-4.40459e-13
-1.47945e-13
-3.60725e-13
-2.97031e-14
-2.37082e-13
-2.5391e-13
2.59228e-14
-2.30383e-14
-2.53055e-14
2.23331e-14
7.35147e-14
-2.32561e-12
-2.31688e-12
-3.99253e-13
-7.51142e-13
-2.92133e-13
-2.1374e-13
-3.29818e-13
-8.7224e-14
-1.54841e-13
-1.54629e-13
-4.92043e-14
-3.46577e-15
-1.36589e-14
2.87573e-14
8.77563e-14
-2.05111e-12
-2.35164e-12
-6.20088e-13
-6.56406e-13
-2.85493e-13
-2.60929e-13
-2.92978e-13
-4.04633e-14
-1.01398e-13
-1.47723e-13
-6.64455e-14
1.62861e-15
-5.29858e-14
1.43413e-14
2.80414e-14
-1.84659e-12
-2.42003e-12
-8.70783e-13
-6.52166e-13
-3.33043e-13
-2.62352e-13
-2.73272e-13
-1.19552e-13
-1.63015e-13
-1.26505e-13
-6.36328e-14
-6.18778e-14
-5.26958e-14
-6.52113e-14
-1.87244e-13
-1.62256e-12
-2.43336e-12
-1.07939e-12
-6.40129e-13
-3.63383e-13
-2.67559e-13
-2.88954e-13
-1.83352e-13
-1.55526e-13
-1.62106e-13
-1.00943e-13
-1.23314e-13
-7.97764e-14
-2.71183e-14
-2.2208e-13
-1.37238e-12
-2.40495e-12
-1.26803e-12
-6.86665e-13
-3.80978e-13
-2.51454e-13
-3.04709e-13
-1.80546e-13
-1.54965e-13
-1.74782e-13
-1.10479e-13
-6.08545e-14
-1.21259e-13
-3.14005e-14
-3.71129e-14
-1.17785e-12
-2.34695e-12
-1.4094e-12
-7.00268e-13
-3.90973e-13
-2.37253e-13
-2.46614e-13
-1.85573e-13
-1.33236e-13
-1.74297e-13
-1.10305e-13
-6.67037e-14
-6.55088e-14
-4.38895e-14
5.67405e-14
-9.84174e-13
-2.27318e-12
-1.47616e-12
-7.19673e-13
-4.02371e-13
-2.30528e-13
-2.23704e-13
-1.98902e-13
-1.29891e-13
-1.54347e-13
-1.11709e-13
-7.08979e-14
-1.3076e-14
-1.63806e-14
9.67157e-14
-8.555e-13
-2.2103e-12
-1.50877e-12
-7.81272e-13
-4.22734e-13
-1.96885e-13
-2.64097e-13
-1.96119e-13
-6.89583e-14
-1.17982e-13
-1.21863e-13
2.5507e-14
-2.11119e-15
9.49304e-14
1.58949e-13
-7.93365e-13
-2.14894e-12
-1.54849e-12
-8.0367e-13
-4.38345e-13
-1.88855e-13
-2.36661e-13
-2.06652e-13
-5.25091e-14
-1.0982e-13
-1.17271e-13
4.77122e-14
3.46231e-15
1.1227e-13
1.42522e-13
-7.43975e-13
-2.09739e-12
-1.56873e-12
-8.13425e-13
-4.41047e-13
-1.92229e-13
-2.28871e-13
-2.37618e-13
-6.45889e-14
-1.06473e-13
-1.15264e-13
5.63393e-14
1.15418e-14
9.85001e-14
1.33263e-13
-7.33033e-13
-2.02119e-12
-1.55866e-12
-8.19078e-13
-4.3498e-13
-2.00326e-13
-2.30721e-13
-2.26312e-13
-7.48973e-14
-1.06517e-13
-9.43389e-14
4.2753e-14
1.86388e-14
1.04732e-13
6.87679e-14
2.0505e-14
-5.83123e-13
2.26899e-13
1.28198e-13
-1.46724e-13
1.92201e-13
6.32744e-14
-6.97824e-14
1.01392e-13
2.67642e-14
-5.7725e-14
2.95745e-14
7.39646e-15
-7.90524e-15
-8.18886e-16
2.1964e-12
2.28343e-12
4.60701e-14
6.81402e-13
1.98774e-13
-3.78905e-14
2.8196e-13
1.83884e-13
2.17292e-15
9.58762e-14
4.46695e-14
-4.65348e-14
5.18149e-14
9.93779e-15
1.25375e-15
2.21428e-12
2.40562e-12
1.90969e-13
5.43594e-13
3.79249e-13
7.99638e-14
2.45774e-13
4.87641e-14
1.5898e-13
1.71563e-13
-3.86124e-15
-1.78032e-14
-1.5141e-14
1.59561e-14
-1.18076e-15
2.38369e-12
2.27116e-12
2.89627e-13
6.48487e-13
4.40459e-13
1.47945e-13
3.60725e-13
2.97031e-14
2.37082e-13
2.5391e-13
-2.59228e-14
2.30383e-14
2.53055e-14
-2.23331e-14
-7.35147e-14
2.32561e-12
2.31688e-12
3.99253e-13
7.51142e-13
2.92133e-13
2.1374e-13
3.29818e-13
8.7224e-14
1.54841e-13
1.54629e-13
4.92043e-14
3.46577e-15
1.36589e-14
-2.87573e-14
-8.77563e-14
2.05111e-12
2.35164e-12
6.20088e-13
6.56406e-13
2.85493e-13
2.60929e-13
2.92978e-13
4.04633e-14
1.01398e-13
1.47723e-13
6.64455e-14
-1.62861e-15
5.29858e-14
-1.43413e-14
-2.80414e-14
1.84659e-12
2.42003e-12
8.70783e-13
6.52166e-13
3.33043e-13
2.62352e-13
2.73272e-13
1.19552e-13
1.63015e-13
1.26505e-13
6.36328e-14
6.18778e-14
5.26958e-14
6.52113e-14
1.87244e-13
1.62256e-12
2.43336e-12
1.07939e-12
6.40129e-13
3.63383e-13
2.67559e-13
2.88954e-13
1.83352e-13
1.55526e-13
1.62106e-13
1.00943e-13
1.23314e-13
7.97764e-14
2.71183e-14
2.2208e-13
1.37238e-12
2.40495e-12
1.26803e-12
6.86665e-13
3.80978e-13
2.51454e-13
3.04709e-13
1.80546e-13
1.54965e-13
1.74782e-13
1.10479e-13
6.08545e-14
1.21259e-13
3.14005e-14
3.71129e-14
1.17785e-12
2.34695e-12
1.4094e-12
7.00268e-13
3.90973e-13
2.37253e-13
2.46614e-13
1.85573e-13
1.33236e-13
1.74297e-13
1.10305e-13
6.67037e-14
6.55088e-14
4.38895e-14
-5.67405e-14
9.84174e-13
2.27318e-12
1.47616e-12
7.19673e-13
4.02371e-13
2.30528e-13
2.23704e-13
1.98902e-13
1.29891e-13
1.54347e-13
1.11709e-13
7.08979e-14
1.3076e-14
1.63806e-14
-9.67157e-14
8.555e-13
2.2103e-12
1.50877e-12
7.81272e-13
4.22734e-13
1.96885e-13
2.64097e-13
1.96119e-13
6.89583e-14
1.17982e-13
1.21863e-13
-2.5507e-14
2.11119e-15
-9.49304e-14
-1.58949e-13
7.93365e-13
2.14894e-12
1.54849e-12
8.0367e-13
4.38345e-13
1.88855e-13
2.36661e-13
2.06652e-13
5.25091e-14
1.0982e-13
1.17271e-13
-4.77122e-14
-3.46231e-15
-1.1227e-13
-1.42522e-13
7.43975e-13
2.09739e-12
1.56873e-12
8.13425e-13
4.41047e-13
1.92229e-13
2.28871e-13
2.37618e-13
6.45889e-14
1.06473e-13
1.15264e-13
-5.63393e-14
-1.15418e-14
-9.85001e-14
-1.33263e-13
7.33033e-13
2.02119e-12
1.55866e-12
8.19078e-13
4.3498e-13
2.00326e-13
2.30721e-13
2.26312e-13
7.48973e-14
1.06517e-13
9.43389e-14
-4.2753e-14
-1.86388e-14
-1.04732e-13
-6.87679e-14
)
;
    }
    inlet
    {
        type            calculated;
        value           nonuniform List<scalar> 
15
(
-1299.9
-1300.2
-1299.9
-1299.9
-1300.2
-1299.9
-1299.9
-1300.2
-1299.9
-1299.9
-1300.2
-1299.9
-1299.9
-1300.2
-1299.9
)
;
    }
    inletWalls
    {
        type            calculated;
        value           uniform 0;
    }
    outletInlet
    {
        type            calculated;
        value           nonuniform List<scalar> 
15
(
198.253
527.473
785.413
982.02
1128.55
1250
1367.14
1486.59
1606.76
1731.82
1879.01
2054.91
2138.09
1729.92
634.158
)
;
    }
}


// ************************************************************************* //
