/*--------------------------------*- C++ -*----------------------------------*\
| =========                 |                                                 |
| \\      /  F ield         | OpenFOAM: The Open Source CFD Toolbox           |
|  \\    /   O peration     | Version:  4.1                                   |
|   \\  /    A nd           | Web:      www.OpenFOAM.org                      |
|    \\/     M anipulation  |                                                 |
\*---------------------------------------------------------------------------*/
FoamFile
{
    version     2.0;
    format      ascii;
    class       volVectorField;
    location    "15";
    object      U;
}
// * * * * * * * * * * * * * * * * * * * * * * * * * * * * * * * * * * * * * //

dimensions      [0 1 -1 0 0 0 0];

internalField   nonuniform List<vector> 
6785
(
(1.17816e-14 0.684594 15.7418)
(6.52576e-15 -5.1303 12.0537)
(-2.64392e-15 -4.2925 12.1841)
(4.9823e-15 -3.72377 12.0221)
(9.91166e-16 -3.11932 11.901)
(-1.67573e-15 -2.66648 11.7153)
(2.40445e-15 -2.31763 11.4881)
(7.37546e-16 -2.07346 11.2168)
(-9.51217e-17 -1.90797 10.9139)
(2.16961e-15 -1.81723 10.5843)
(5.54886e-16 -1.92245 10.165)
(-9.85965e-16 -2.37182 9.5601)
(3.26336e-15 -2.68978 8.9698)
(-1.03071e-16 -1.33556 8.92614)
(-1.97568e-15 1.73303 7.64145)
(1.84514e-14 -5.63789 22.1818)
(2.25166e-14 -14.7671 21.3399)
(1.46336e-15 -13.2426 20.4984)
(3.71952e-15 -11.8214 19.622)
(2.52935e-15 -11.2269 18.5971)
(-1.64066e-15 -10.7092 17.6049)
(4.45513e-15 -10.1209 16.6522)
(2.39587e-15 -9.54485 15.6955)
(4.2395e-16 -8.97911 14.7276)
(6.78358e-15 -8.37635 13.7517)
(2.61937e-15 -7.75129 12.7738)
(-3.31633e-16 -7.27679 11.7831)
(4.98457e-15 -7.01216 10.6939)
(1.15771e-15 -5.78426 8.97413)
(-1.81458e-15 -1.73328 4.8534)
(1.53182e-14 -7.89601 22.1871)
(2.33415e-14 -16.7498 24.7015)
(2.45392e-15 -13.8114 23.9906)
(3.48949e-15 -12.4976 22.6551)
(2.70661e-15 -11.8331 21.2611)
(-1.68783e-15 -10.989 20.0206)
(1.96503e-15 -10.1074 18.7901)
(7.21825e-15 -9.26106 17.5387)
(-1.41025e-15 -8.43692 16.2753)
(1.74862e-15 -7.62024 15.0227)
(1.52405e-15 -6.79713 13.8036)
(-2.47552e-15 -5.96868 12.4326)
(-3.07518e-15 -4.99136 10.3269)
(1.12244e-15 -3.27577 6.89107)
(-1.12312e-15 -0.662778 2.39991)
(1.79766e-14 -8.14308 17.9872)
(1.72109e-14 -16.3386 24.4549)
(1.0759e-14 -13.436 23.9538)
(6.63798e-15 -12.5306 22.1185)
(1.97127e-15 -11.7971 20.614)
(2.37622e-15 -10.8464 19.2821)
(1.76523e-15 -9.96763 17.9219)
(9.10209e-16 -9.13814 16.5571)
(1.27171e-16 -8.3454 15.2039)
(-2.89992e-15 -7.59647 13.8758)
(-6.68695e-16 -6.8361 12.5326)
(4.68686e-15 -5.8748 10.8638)
(-3.58035e-15 -4.38661 8.19801)
(-5.30926e-15 -2.24489 3.97647)
(2.44756e-14 0.0129416 -1.35148)
(1.26946e-14 -7.3229 13.9177)
(2.17915e-14 -15.3604 23.7139)
(9.82422e-15 -13.9044 24.0464)
(2.93111e-15 -13.0906 21.9523)
(-7.10154e-15 -12.2991 20.3346)
(6.40164e-15 -11.3795 18.9613)
(-2.12642e-15 -10.5629 17.5518)
(8.03263e-17 -9.7699 16.149)
(1.58374e-15 -8.98441 14.776)
(5.09591e-16 -8.22677 13.4374)
(5.8416e-16 -7.46127 12.0839)
(4.94895e-15 -6.51708 10.45)
(-7.23351e-15 -5.04656 8.04589)
(-8.81398e-15 -3.1726 4.5705)
(-2.85735e-14 -1.17742 1.481)
(1.01037e-14 -6.12277 10.869)
(1.64341e-14 -14.1693 22.6786)
(1.10447e-14 -14.3397 24.3341)
(-8.25434e-16 -13.5261 22.4679)
(-6.01758e-15 -12.572 20.7483)
(-3.30969e-15 -11.6373 19.3225)
(-3.25377e-15 -10.8164 17.9)
(-1.00295e-14 -9.99745 16.4885)
(3.14925e-15 -9.17141 15.1057)
(-5.62281e-15 -8.36546 13.7559)
(-1.05272e-14 -7.55833 12.4008)
(-1.35477e-14 -6.63341 10.819)
(8.51587e-15 -5.23919 8.63779)
(-2.18845e-14 -3.6672 5.60083)
(-2.22001e-14 -1.4455 3.03259)
(2.74072e-14 -5.11874 8.83686)
(1.93062e-14 -13.0051 21.5837)
(9.39673e-15 -14.2991 24.2374)
(6.93364e-16 -13.5809 22.8796)
(-1.89926e-15 -12.5394 21.136)
(2.08398e-15 -11.6018 19.645)
(-2.83289e-15 -10.7717 18.2085)
(-3.66012e-15 -9.9331 16.7931)
(1.50633e-14 -9.09382 15.4005)
(-6.36149e-15 -8.28043 14.038)
(-4.95072e-15 -7.46963 12.6754)
(-7.27208e-16 -6.57722 11.0961)
(-7.60763e-15 -5.18746 8.98823)
(-1.55304e-14 -3.93044 6.09253)
(1.4347e-14 -1.52262 3.97997)
(1.8463e-14 -4.64424 8.0398)
(1.94984e-14 -12.2087 20.8477)
(1.31235e-14 -14.0425 23.8092)
(6.4819e-15 -13.4647 23.0219)
(-1.8493e-15 -12.4669 21.3214)
(1.17844e-15 -11.5573 19.7832)
(-2.99469e-15 -10.728 18.337)
(-3.41374e-15 -9.88927 16.919)
(-1.04157e-15 -9.05888 15.5195)
(-2.22935e-15 -8.25569 14.1499)
(-4.69312e-15 -7.44892 12.7804)
(4.45051e-15 -6.57375 11.1701)
(-6.65281e-15 -5.1006 9.06229)
(-1.36901e-14 -4.06774 6.15331)
(3.93415e-15 -1.53658 4.34965)
(1.17902e-14 -4.52436 7.88371)
(1.87649e-14 -11.7349 20.3677)
(1.28952e-14 -13.8029 23.2609)
(5.99609e-15 -13.3753 23.0313)
(-4.11784e-16 -12.4905 21.4168)
(-2.57929e-15 -11.5974 19.859)
(9.85953e-16 -10.76 18.411)
(-3.48347e-15 -9.92235 16.9928)
(-1.29044e-14 -9.09811 15.5904)
(1.49856e-16 -8.29896 14.2186)
(-3.96103e-15 -7.48585 12.8446)
(-3.67662e-15 -6.61775 11.1865)
(-5.09694e-15 -5.03028 9.06687)
(-1.40075e-14 -4.21104 6.19855)
(-1.29247e-14 -1.60722 4.64163)
(3.60783e-15 -4.45467 7.65799)
(1.6637e-14 -11.3781 19.9051)
(1.1063e-14 -13.622 22.7562)
(2.43996e-15 -13.345 23.0085)
(1.07694e-15 -12.5851 21.5132)
(-1.47992e-15 -11.6857 19.9531)
(-6.28988e-15 -10.8309 18.5026)
(-2.76219e-15 -9.99119 17.0833)
(8.33334e-16 -9.16615 15.68)
(-5.709e-15 -8.36493 14.3071)
(-4.30885e-15 -7.53746 12.9292)
(-6.37228e-15 -6.67334 11.2155)
(-1.16129e-14 -4.97917 9.08623)
(-8.59977e-15 -4.36994 6.32333)
(-1.60736e-14 -1.73086 4.97826)
(-1.53681e-15 -4.27869 7.14922)
(1.72093e-14 -10.9934 19.3479)
(4.76887e-15 -13.4543 22.3464)
(6.23274e-15 -13.3383 23.0067)
(1.07956e-14 -12.7022 21.6606)
(-8.87462e-15 -11.7922 20.1055)
(-4.17574e-15 -10.9193 18.6421)
(7.22618e-16 -10.0754 17.2149)
(-1.25699e-14 -9.24511 15.807)
(-6.8323e-15 -8.43971 14.4271)
(-1.07122e-15 -7.59149 13.042)
(-8.83053e-15 -6.73167 11.2706)
(-8.40084e-15 -4.94938 9.13031)
(-2.63602e-14 -4.52294 6.475)
(-2.47629e-14 -1.8549 5.31396)
(-5.50637e-15 -4.04941 6.57847)
(1.88766e-14 -10.5798 18.8048)
(3.22032e-17 -13.2363 22.0078)
(-2.48861e-15 -13.2483 22.9878)
(1.11284e-15 -12.7158 21.7777)
(-2.36817e-14 -11.7978 20.2465)
(-1.32307e-14 -10.9193 18.779)
(-3.25352e-15 -10.0764 17.3465)
(-1.62073e-14 -9.2449 15.9372)
(-4.99443e-15 -8.44201 14.5505)
(-1.50305e-15 -7.57815 13.1469)
(-2.38169e-14 -6.71047 11.2994)
(-1.06277e-14 -4.86385 9.15371)
(-3.52343e-14 -4.65949 6.64551)
(-2.54403e-14 -1.96641 5.6095)
(-1.37519e-14 -4.03544 6.40156)
(1.5348e-14 -10.3375 18.5318)
(1.3362e-15 -13.141 21.85)
(2.16489e-16 -13.2706 23.137)
(3.66338e-15 -12.8514 22.0122)
(-1.13626e-14 -11.9039 20.4623)
(-1.29668e-14 -10.9952 18.9325)
(1.50406e-14 -10.1216 17.4579)
(-1.84557e-14 -9.25646 16.0047)
(-6.68752e-15 -8.43021 14.5721)
(1.7989e-15 -7.5126 13.13)
(-2.65919e-14 -6.64917 11.1597)
(-1.66473e-14 -4.63619 8.94109)
(-3.0664e-14 -4.60418 6.4373)
(-4.32179e-14 -1.91572 5.606)
(-1.48664e-14 -3.81181 6.48695)
(9.90283e-15 -9.71936 18.1957)
(-2.30526e-15 -12.3358 21.6068)
(-1.74178e-15 -12.4444 22.9207)
(1.80663e-16 -12.0756 21.9753)
(-1.22904e-14 -11.2108 20.6023)
(-6.89446e-15 -10.3831 19.2031)
(1.91496e-15 -9.57477 17.768)
(-1.64363e-14 -8.76398 16.3624)
(-3.28896e-15 -7.98081 14.938)
(-7.41872e-15 -7.13157 13.3848)
(-3.01809e-14 -6.15484 11.3016)
(-1.56575e-14 -4.60339 9.12067)
(-3.50081e-14 -4.67243 7.13191)
(-3.37061e-14 -1.88958 5.73758)
(-1.69608e-14 -7.564 13.2599)
(8.97525e-15 -13.0393 22.1851)
(-1.19675e-15 -14.8723 24.1453)
(-3.4179e-15 -14.471 24.7792)
(-3.20064e-15 -13.4539 22.6736)
(-1.21661e-14 -11.7485 20.5931)
(-2.5401e-15 -10.3724 18.4436)
(-2.3748e-15 -9.05259 16.6684)
(-1.27327e-14 -7.88328 14.8147)
(-6.31269e-15 -6.76096 12.969)
(-1.90321e-14 -5.43223 10.637)
(-2.56112e-14 -3.89934 7.88717)
(-2.55137e-14 -2.3812 5.37462)
(-3.69745e-14 -1.89514 3.04107)
(-1.49607e-14 -0.30271 1.221)
(-2.57042e-15 0.0957103 -1.29274)
(-4.69964e-15 0.211916 -1.55323)
(-3.47309e-15 0.368843 -0.728434)
(-3.29298e-15 0.491018 -0.734753)
(-3.09755e-15 0.511148 -0.646643)
(-4.71096e-15 0.77887 -1.23305)
(-3.77836e-15 0.816782 -0.679684)
(-4.24309e-15 0.95804 -0.68988)
(-4.09307e-15 0.962673 -0.636818)
(1.05292e-14 1.27492 -1.16074)
(2.08202e-15 1.22522 -0.692411)
(1.69097e-15 1.35515 -0.621519)
(-8.35366e-16 1.77585 -1.06333)
(-9.53813e-16 1.51095 -0.6397)
(-1.36155e-15 1.69345 -0.647548)
(-1.58974e-15 1.67373 -0.616042)
(-3.23519e-15 2.11593 -0.97435)
(-1.70838e-15 1.8148 -0.612977)
(-1.544e-15 1.94437 -0.569338)
(-2.32262e-15 2.54695 -0.844558)
(-1.52495e-15 2.00273 -0.523062)
(-1.39312e-15 2.20731 -0.526705)
(-7.50629e-16 2.1602 -0.509337)
(-1.02797e-15 2.76239 -0.717361)
(-2.98385e-16 2.17385 -0.449249)
(3.01222e-16 2.42784 -0.447961)
(-1.91922e-17 2.35805 -0.439839)
(-4.28506e-15 2.9163 -0.581165)
(-1.52607e-15 2.30906 -0.36913)
(-5.58932e-16 2.44066 -0.349043)
(2.96257e-16 3.20555 -0.410693)
(1.01978e-16 2.38373 -0.246385)
(4.19823e-16 2.5909 -0.244619)
(2.61782e-16 2.51751 -0.248586)
(8.93213e-17 3.12045 -0.254235)
(2.38859e-16 2.40393 -0.152017)
(3.04934e-16 2.51807 -0.155684)
(-8.28108e-17 3.26394 -0.0752182)
(1.45052e-16 2.35749 -0.0283809)
(-2.05038e-17 2.55819 -0.0282558)
(2.94924e-16 2.46959 -0.0462208)
(-1.24353e-16 3.0748 0.0960562)
(1.01145e-16 2.23495 0.076613)
(1.77094e-17 2.49186 0.0786076)
(-2.68475e-17 2.40353 0.0520336)
(-3.75701e-16 2.84194 0.249281)
(-5.98163e-16 2.09194 0.18164)
(-6.06311e-16 2.20505 0.151527)
(-1.30147e-15 2.79752 0.430345)
(-2.85116e-16 1.92197 0.298551)
(-2.8036e-16 2.08099 0.297315)
(-2.80665e-16 1.99004 0.259248)
(-6.15199e-16 2.36801 0.582507)
(-3.74927e-16 1.62798 0.382597)
(-2.27207e-16 1.83285 0.383671)
(3.72058e-16 1.74018 0.341181)
(3.65117e-16 1.94071 0.698068)
(4.9621e-16 1.3187 0.458933)
(-1.39374e-16 1.4276 0.409139)
(-3.14563e-16 1.66782 0.825585)
(-4.12827e-16 1.00485 0.523223)
(-5.09851e-16 1.10205 0.524032)
(8.22791e-17 1.03118 0.485867)
(1.72699e-14 1.09964 0.915411)
(3.38881e-15 0.606115 0.581164)
(2.73211e-15 0.708389 0.535782)
(3.39862e-15 0.647712 0.980408)
(1.64913e-15 0.225142 0.623872)
(1.12756e-15 0.260065 0.653215)
(8.4364e-16 0.245629 0.711037)
(-1.94309e-15 0.181564 1.39479)
(-7.34042e-15 -0.207551 1.52721)
(-1.04128e-14 -0.264018 1.77677)
(-1.16002e-14 -0.245765 1.92131)
(-2.79261e-14 -0.797203 2.72608)
(-8.60272e-15 -0.835806 2.2927)
(-1.0427e-14 -0.898109 2.42171)
(-1.67395e-14 -1.62107 3.75231)
(-1.37729e-14 -1.78856 3.10619)
(-1.45885e-14 -1.8721 3.32643)
(-1.79044e-14 -1.99471 3.9282)
(-1.75419e-14 -2.10727 4.13252)
(-1.76199e-14 -2.4624 4.38949)
(-2.04433e-14 -2.67166 6.4344)
(-2.25592e-14 -2.7083 6.13463)
(-2.44969e-14 -3.01845 6.57966)
(-2.45951e-14 -3.01241 6.79535)
(-2.38621e-14 -3.06739 6.99776)
(-2.32326e-14 -3.09513 7.22353)
(-2.24613e-14 -3.10237 7.48301)
(-2.11163e-14 -3.22721 7.87351)
(-1.95702e-14 -3.54695 8.3374)
(-1.74696e-14 -3.59508 10.2644)
(-1.89179e-14 -3.92368 9.98033)
(-1.81647e-14 -4.10606 10.2935)
(-1.77386e-14 -4.06852 10.5411)
(-1.73074e-14 -4.22558 11.0949)
(-1.69494e-14 -4.17163 11.2217)
(-1.65255e-14 -4.19214 11.476)
(-1.60745e-14 -4.27402 11.738)
(-1.56633e-14 -4.52944 12.0525)
(-1.0404e-14 -4.53709 14.4935)
(-8.70769e-15 -5.02305 14.2044)
(-8.21311e-15 -5.13746 14.4733)
(-7.75292e-15 -5.16253 14.6627)
(-7.09628e-15 -5.18248 14.9111)
(-5.86938e-15 -5.22296 15.2794)
(-4.58338e-15 -5.29166 15.6821)
(-4.74577e-15 -5.24165 15.8369)
(-4.58258e-15 -5.31703 16.0849)
(-4.62613e-15 -5.55211 16.3553)
(-1.73955e-15 -5.26246 18.4182)
(-6.24805e-15 -6.05689 18.16)
(-6.10176e-15 -6.08839 18.4062)
(-5.98136e-15 -6.12503 18.588)
(-5.76477e-15 -6.16805 18.8166)
(-5.411e-15 -6.17811 19.0863)
(-4.07752e-15 -6.21578 19.5217)
(-3.80972e-15 -6.23092 19.7884)
(-3.9702e-15 -6.44643 20.0094)
(-5.38794e-15 -5.97969 21.542)
(-5.22821e-15 -6.86135 21.0411)
(-5.44952e-15 -6.83124 21.4436)
(-5.63857e-15 -6.90259 21.7582)
(-5.79854e-15 -6.88785 21.9127)
(-6.01719e-15 -6.94567 22.1411)
(-6.28353e-15 -6.92069 22.3877)
(-6.7698e-15 -6.87432 22.7043)
(-8.37955e-15 -7.11864 23.2559)
(-7.73963e-15 -5.96425 23.5024)
(-5.68084e-15 -7.26459 23.0001)
(-5.1687e-15 -7.10767 23.1821)
(-4.67049e-15 -7.11148 23.3359)
(-3.37387e-15 -7.17767 23.6638)
(-3.10414e-15 -7.17672 23.7791)
(-3.10468e-15 -7.11936 23.8235)
(-2.98685e-15 -7.02066 23.8771)
(-2.84153e-15 -6.90395 23.8747)
(-3.97321e-15 -5.41077 22.2368)
(-2.23256e-15 -6.51772 22.0625)
(-2.07718e-15 -6.18802 21.8629)
(-1.94672e-15 -6.24976 21.7041)
(-1.81552e-15 -6.19423 21.4789)
(-1.68392e-15 -6.18658 21.2026)
(-1.58174e-15 -6.22716 20.805)
(-1.70576e-15 -6.17715 20.5299)
(-1.66918e-15 -5.93168 20.1208)
(-1.66904e-15 -5.39571 19.5767)
(-1.38931e-15 -3.04893 14.1303)
(-9.77949e-16 -4.04499 15.4307)
(-1.13355e-15 -3.33359 14.4186)
(-1.98103e-15 -3.37503 13.7429)
(-2.85043e-15 -3.15754 12.7425)
(-4.10983e-15 -3.19379 11.4419)
(-6.61436e-15 -3.17063 9.44326)
(-8.88824e-15 -2.6283 7.38563)
(-7.8981e-15 -1.87604 6.51708)
(-4.42874e-15 -1.54203 1.49174)
(-7.03687e-15 -1.97699 5.22273)
(-5.44828e-15 -0.326116 2.74545)
(4.38749e-16 0.601987 -3.67988)
(-7.93626e-15 -0.794217 -2.17968)
(-3.37552e-15 0.328784 -1.54126)
(-2.49132e-15 1.42075 0.140147)
(-9.27445e-15 0.140244 -0.791503)
(-3.848e-15 0.532648 -0.233474)
(-8.96685e-15 0.552284 -0.0507656)
(-1.4593e-14 0.743215 0.329064)
(-1.00435e-14 0.417806 0.495107)
(-1.18702e-14 0.373485 0.277489)
(-1.10026e-14 0.457381 -0.0475588)
(-7.23554e-15 0.393115 0.0259788)
(-7.81685e-15 0.347472 -0.195255)
(-4.58465e-15 0.32284 -0.19161)
(-1.28728e-14 0.37501 -0.389794)
(-6.85761e-15 0.275394 -0.263168)
(-4.0919e-15 0.18419 -0.19428)
(-8.08643e-15 0.0555847 -0.0203655)
(-1.31585e-15 0.0647495 0.0357996)
(-1.56034e-15 -0.0694035 0.291664)
(-1.44958e-15 -0.417289 0.433479)
(-1.20224e-15 -0.354623 0.370843)
(-1.82022e-15 -0.700925 0.679251)
(-9.94664e-16 -1.0308 0.680417)
(-3.58478e-17 -0.947408 0.546444)
(-4.34627e-16 -1.50146 0.838443)
(-2.5467e-16 -1.13385 0.605209)
(-7.14706e-16 -1.84258 0.999091)
(-1.06864e-15 -2.06256 0.864629)
(-4.9854e-16 -1.82404 0.677157)
(-7.98478e-16 -2.67909 0.997223)
(-5.95578e-16 -1.95947 0.690276)
(-9.23213e-16 -3.03989 1.10774)
(1.91335e-15 -3.05857 0.888735)
(2.17012e-16 -2.48954 0.676965)
(2.6363e-16 -3.68249 1.04402)
(2.80664e-16 -3.65946 0.806397)
(-3.01579e-16 -3.13746 0.62354)
(-5.60782e-17 -4.41572 0.88488)
(4.00893e-17 -3.08666 0.575072)
(3.18046e-16 -4.62263 0.895423)
(5.97476e-16 -4.37237 0.628472)
(-5.49325e-16 -3.75679 0.4796)
(-5.63196e-16 -5.19299 0.663106)
(2.8016e-16 -3.56957 0.412963)
(1.89474e-16 -5.32268 0.623678)
(1.68262e-15 -4.84423 0.373506)
(3.23604e-16 -3.84023 0.249668)
(4.63177e-16 -5.42539 0.342142)
(3.95741e-16 -4.97755 0.128677)
(1.52879e-16 -4.19104 0.0713657)
(-1.04363e-16 -5.72046 0.075234)
(-3.45276e-16 -3.80046 -0.0298344)
(1.42772e-17 -5.55292 -0.0627087)
(2.13098e-15 -4.90082 -0.23716)
(5.85467e-16 -4.11537 -0.232479)
(2.18857e-15 -5.53979 -0.352789)
(1.00483e-15 -3.62536 -0.337833)
(1.2202e-15 -5.29028 -0.54411)
(1.11768e-15 -4.50941 -0.655694)
(1.0881e-15 -3.42715 -0.608862)
(3.75648e-15 -4.71746 -0.95867)
(5.29831e-16 -4.03951 -1.02476)
(2.88179e-16 -3.22865 -0.895258)
(-8.56042e-16 -4.29432 -1.29335)
(5.00847e-16 -2.57629 -1.05463)
(5.46625e-16 -3.7359 -1.64925)
(2.18334e-15 -2.9292 -1.6541)
(1.11583e-15 -2.16202 -1.44166)
(1.39879e-15 -2.87681 -2.06235)
(1.02299e-15 -1.34314 -1.66516)
(8.9688e-16 -2.18451 -2.59321)
(1.11056e-15 -1.36788 -2.61038)
(2.9728e-15 -0.309766 -2.34034)
(3.66425e-15 -1.01184 -3.74214)
(1.05333e-15 -1.03581 -4.37459)
(3.08942e-17 1.52291 -2.90359)
(-1.18694e-15 0.867592 -4.26527)
(4.10298e-16 1.86426 -2.98851)
(4.73729e-16 2.27421 -4.2782)
(7.4518e-16 -1.21696 12.9102)
(7.35918e-16 -1.04548 12.922)
(7.28784e-16 -0.967681 12.9514)
(7.18946e-16 -0.874022 12.9875)
(7.06498e-16 -0.784968 13.0306)
(6.90271e-16 -0.701015 13.0828)
(6.69263e-16 -0.626363 13.1442)
(6.42525e-16 -0.56412 13.2134)
(6.09458e-16 -0.516897 13.2859)
(5.69888e-16 -0.485915 13.3551)
(5.2394e-16 -0.470709 13.4122)
(4.71572e-16 -0.469652 13.4484)
(4.12063e-16 -0.480723 13.4556)
(3.43478e-16 -0.502125 13.4263)
(2.62309e-16 -0.532246 13.3522)
(1.62871e-16 -0.569091 13.2219)
(3.65685e-17 -0.609502 13.0184)
(-1.29267e-16 -0.648694 12.7164)
(-3.53511e-16 -0.679824 12.2781)
(-6.6553e-16 -0.691756 11.6479)
(-1.11313e-15 -0.665401 10.7407)
(-1.77941e-15 -0.566156 9.4195)
(-2.80688e-15 -0.332806 7.47375)
(-4.38498e-15 0.0952266 4.69202)
(-6.19254e-15 0.371216 1.85022)
(-6.58873e-15 0.270948 1.33721)
(-5.77408e-15 -0.0840711 2.56483)
(-5.55012e-15 0.0838455 2.86212)
(-5.54067e-15 -0.0360039 2.83745)
(-5.59483e-15 -0.067577 2.74924)
(-5.60655e-15 -0.219509 2.7385)
(-5.60374e-15 -0.361937 2.79732)
(-5.58744e-15 -0.461615 2.93468)
(-5.56332e-15 -0.524798 3.13156)
(-5.52167e-15 -0.602574 3.40086)
(-5.47306e-15 -0.800182 3.68724)
(-5.43658e-15 -1.09397 3.9726)
(-5.42607e-15 -1.41708 4.23689)
(-5.43929e-15 -1.75619 4.51044)
(-5.45973e-15 -2.15557 4.85802)
(-5.47628e-15 -2.6529 5.31906)
(-5.4792e-15 -3.23552 5.93871)
(-5.42633e-15 -3.87667 6.82514)
(-5.23293e-15 -4.55801 8.08331)
(-4.81893e-15 -5.37507 9.69783)
(-4.19566e-15 -6.52276 11.482)
(-3.50231e-15 -8.04789 13.185)
(-2.96284e-15 -9.71334 14.5901)
(-2.78218e-15 -11.0975 15.4969)
(-2.94973e-15 -11.7211 15.7744)
(-3.11009e-15 -11.0651 15.479)
(-3.00852e-15 -9.12346 15.2299)
(-3.34963e-15 -7.65442 16.4456)
(-4.79988e-15 -8.28732 19.3255)
(-6.36369e-15 -9.34715 22.0007)
(-7.11222e-15 -9.1828 23.3473)
(-7.19359e-15 -7.90437 23.3505)
(-6.92722e-15 -6.25378 22.1489)
(-6.18e-15 -4.49215 19.9174)
(-5.05528e-15 -2.93351 17.3154)
(-4.06171e-15 -1.89669 15.2257)
(-3.45563e-15 -0.77152 13.9683)
(-2.57571e-15 -0.199691 12.0846)
(-1.0366e-15 -0.10685 8.72699)
(1.14252e-15 -0.658079 4.12331)
(3.02893e-15 -1.57879 0.0552293)
(3.17003e-15 -1.236 -0.514866)
(3.07757e-15 -0.883171 -0.560578)
(2.95234e-15 -0.999933 -0.694215)
(2.64462e-15 -1.24013 -0.735272)
(2.13813e-15 -1.27645 -0.653681)
(1.59239e-15 -1.06082 -0.551808)
(1.10222e-15 -0.736486 -0.427466)
(9.29787e-16 0.154448 -0.358145)
(1.57967e-15 1.03333 0.145484)
(1.85175e-15 1.37297 0.604624)
(6.28928e-16 -4.23046 -2.08455)
(5.29347e-16 -8.0107 -3.49304)
(2.7552e-16 -6.8668 -4.72004)
(7.32731e-16 -1.10896 12.9563)
(7.17492e-16 -0.962089 12.9562)
(7.03313e-16 -0.894344 13.0052)
(6.83432e-16 -0.812656 13.0534)
(6.57553e-16 -0.738588 13.1088)
(6.24081e-16 -0.672012 13.1684)
(5.81911e-16 -0.615005 13.2274)
(5.3024e-16 -0.568154 13.2778)
(4.68672e-16 -0.531323 13.31)
(3.96936e-16 -0.503684 13.3137)
(3.14426e-16 -0.483933 13.2796)
(2.19594e-16 -0.471169 13.2002)
(1.09461e-16 -0.464564 13.0685)
(-2.09781e-17 -0.463113 12.8764)
(-1.79192e-16 -0.465027 12.6119)
(-3.76208e-16 -0.466815 12.2559)
(-6.27908e-16 -0.462489 11.7792)
(-9.56586e-16 -0.443092 11.141)
(-1.3932e-15 -0.395994 10.2858)
(-1.98003e-15 -0.301728 9.14277)
(-2.77165e-15 -0.131127 7.62894)
(-3.82013e-15 0.149068 5.68863)
(-5.08944e-15 0.523292 3.47101)
(-6.04625e-15 0.694398 2.07665)
(-5.99474e-15 0.472085 2.37686)
(-5.66434e-15 0.2084 2.90917)
(-5.52453e-15 0.255559 2.95091)
(-5.51891e-15 0.124244 2.88981)
(-5.58985e-15 0.00721163 2.79261)
(-5.61106e-15 -0.136219 2.78233)
(-5.59927e-15 -0.275204 2.85488)
(-5.58762e-15 -0.381692 2.95136)
(-5.56763e-15 -0.462911 3.08924)
(-5.53671e-15 -0.545218 3.28164)
(-5.49398e-15 -0.683147 3.53927)
(-5.45417e-15 -0.923499 3.8173)
(-5.43076e-15 -1.22048 4.08764)
(-5.42994e-15 -1.53511 4.34345)
(-5.44611e-15 -1.87731 4.62864)
(-5.46586e-15 -2.29127 5.0017)
(-5.48007e-15 -2.79941 5.49586)
(-5.4726e-15 -3.3958 6.15797)
(-5.39124e-15 -4.06775 7.08362)
(-5.14872e-15 -4.8294 8.364)
(-4.6815e-15 -5.7941 9.98897)
(-4.03339e-15 -7.0999 11.7873)
(-3.36822e-15 -8.69203 13.5035)
(-2.90522e-15 -10.2735 14.8931)
(-2.80415e-15 -11.4247 15.7382)
(-2.98268e-15 -11.6903 15.8836)
(-3.08786e-15 -10.6839 15.4173)
(-3.0651e-15 -8.822 15.2446)
(-3.72625e-15 -8.07475 16.9718)
(-5.28986e-15 -9.12319 20.1258)
(-6.64664e-15 -9.91614 22.5337)
(-7.15444e-15 -9.34039 23.3651)
(-7.02325e-15 -7.79878 22.7375)
(-6.49913e-15 -5.98206 21.0242)
(-5.74011e-15 -4.16872 19.1429)
(-5.30957e-15 -2.5893 18.3864)
(-5.40811e-15 -1.16589 18.6882)
(-5.32701e-15 0.0338079 18.4824)
(-4.62342e-15 0.927433 16.8187)
(-3.31852e-15 1.28863 13.7412)
(-1.14307e-15 0.735191 8.94194)
(1.82889e-15 -0.645736 2.47718)
(3.4322e-15 -1.1193 -1.29734)
(3.25402e-15 -1.01066 -1.00619)
(2.95219e-15 -1.03869 -0.69108)
(2.67486e-15 -1.27881 -0.717333)
(2.17665e-15 -1.30732 -0.650489)
(1.63446e-15 -1.0852 -0.571694)
(1.14296e-15 -0.748688 -0.454389)
(9.58028e-16 0.0146171 -0.323425)
(1.68874e-15 0.915164 0.0732976)
(1.98447e-15 1.19512 0.604148)
(6.81205e-16 -3.74992 -1.90918)
(5.28349e-16 -7.72179 -3.40261)
(2.88478e-16 -6.85511 -4.57967)
(7.10352e-16 -1.09476 12.9994)
(6.83907e-16 -0.975029 13.0108)
(6.56747e-16 -0.915227 13.0682)
(6.19096e-16 -0.845305 13.1154)
(5.70197e-16 -0.783748 13.1606)
(5.07814e-16 -0.728241 13.193)
(4.3039e-16 -0.67871 13.2016)
(3.36753e-16 -0.634043 13.1731)
(2.25991e-16 -0.593177 13.0945)
(9.70316e-17 -0.555344 12.9552)
(-5.18987e-17 -0.520111 12.7476)
(-2.24008e-16 -0.48741 12.4667)
(-4.24412e-16 -0.456767 12.1071)
(-6.60672e-16 -0.427486 11.6603)
(-9.43808e-16 -0.39687 11.1112)
(-1.28914e-15 -0.360459 10.4359)
(-1.71689e-15 -0.311483 9.60165)
(-2.25142e-15 -0.24157 8.57101)
(-2.91811e-15 -0.142258 7.31114)
(-3.73251e-15 -0.00834051 5.81806)
(-4.66775e-15 0.149397 4.17534)
(-5.54257e-15 0.273608 2.73744)
(-5.94151e-15 0.251683 2.2311)
(-5.81963e-15 0.176505 2.6353)
(-5.51389e-15 0.0571026 3.21475)
(-5.45715e-15 0.0790376 3.20796)
(-5.52153e-15 0.0794597 2.97675)
(-5.56371e-15 0.0646298 2.88575)
(-5.59967e-15 -0.068396 2.88052)
(-5.60092e-15 -0.175191 2.91861)
(-5.58199e-15 -0.291387 3.02578)
(-5.56482e-15 -0.38947 3.14641)
(-5.54043e-15 -0.470033 3.28709)
(-5.50504e-15 -0.573169 3.47445)
(-5.46598e-15 -0.745015 3.71304)
(-5.43811e-15 -1.00149 3.96916)
(-5.42845e-15 -1.29603 4.22019)
(-5.43642e-15 -1.61002 4.47355)
(-5.45466e-15 -1.96542 4.77732)
(-5.47311e-15 -2.40316 5.18205)
(-5.48257e-15 -2.93884 5.72138)
(-5.45796e-15 -3.57224 6.44814)
(-5.33667e-15 -4.29568 7.4439)
(-5.0328e-15 -5.13679 8.771)
(-4.50663e-15 -6.19582 10.4005)
(-3.83974e-15 -7.56433 12.1696)
(-3.2205e-15 -9.14539 13.8386)
(-2.85428e-15 -10.6334 15.1608)
(-2.8372e-15 -11.6193 15.9096)
(-3.0105e-15 -11.6714 15.9291)
(-3.07036e-15 -10.5454 15.411)
(-3.20941e-15 -8.96449 15.5332)
(-4.22403e-15 -8.73787 17.7738)
(-5.82686e-15 -9.8322 20.9734)
(-6.89981e-15 -10.2799 22.9293)
(-7.10944e-15 -9.36066 23.0866)
(-6.76165e-15 -7.64536 21.8673)
(-6.20786e-15 -5.86564 20.3375)
(-5.88445e-15 -4.32427 19.8912)
(-6.07056e-15 -2.95278 20.6713)
(-6.29501e-15 -1.36219 21.2159)
(-6.16586e-15 0.28761 20.8367)
(-5.70087e-15 1.41552 19.538)
(-4.72839e-15 2.0911 16.992)
(-2.97773e-15 1.93461 12.8969)
(-2.09252e-16 0.523196 6.77978)
(3.16766e-15 -1.42816 -0.853365)
(3.1623e-15 -1.02097 -1.00805)
(3.13539e-15 -1.10449 -1.04858)
(2.71596e-15 -1.30844 -0.698769)
(2.20772e-15 -1.33878 -0.617776)
(1.68358e-15 -1.12754 -0.56288)
(1.19107e-15 -0.790947 -0.447557)
(9.82192e-16 -0.0693053 -0.290218)
(1.72982e-15 0.879002 0.0690319)
(1.99077e-15 1.24525 0.341317)
(7.44681e-16 -3.3096 -1.68659)
(5.32175e-16 -7.38481 -3.24011)
(3.06426e-16 -6.73817 -4.34771)
(6.7416e-16 -1.12546 13.0284)
(6.29229e-16 -1.03213 13.054)
(5.81018e-16 -0.976477 13.0974)
(5.15106e-16 -0.910726 13.1154)
(4.3008e-16 -0.848858 13.1087)
(3.22573e-16 -0.787017 13.0595)
(1.90088e-16 -0.724427 12.9515)
(3.05405e-17 -0.660277 12.7686)
(-1.57722e-16 -0.594887 12.4983)
(-3.76249e-16 -0.529525 12.1342)
(-6.26925e-16 -0.465697 11.6749)
(-9.12899e-16 -0.404578 11.1221)
(-1.23899e-15 -0.346277 10.4766)
(-1.61234e-15 -0.289597 9.73548)
(-2.04378e-15 -0.231027 8.88832)
(-2.54661e-15 -0.165792 7.9206)
(-3.1332e-15 -0.0886335 6.82263)
(-3.80691e-15 0.00331914 5.60694)
(-4.54311e-15 0.105939 4.34367)
(-5.24786e-15 0.201667 3.22412)
(-5.72986e-15 0.256156 2.56368)
(-5.85112e-15 0.247079 2.5214)
(-5.71546e-15 0.202911 2.86519)
(-5.51941e-15 0.146584 3.2613)
(-5.4642e-15 0.0334088 3.33592)
(-5.52764e-15 -0.0614926 3.13412)
(-5.5931e-15 -0.09214 2.98157)
(-5.60335e-15 -0.101823 2.96811)
(-5.58899e-15 -0.187127 3.03761)
(-5.57431e-15 -0.254583 3.11214)
(-5.55721e-15 -0.331028 3.2256)
(-5.53819e-15 -0.41392 3.34908)
(-5.51069e-15 -0.517189 3.4875)
(-5.47567e-15 -0.65299 3.66756)
(-5.44476e-15 -0.833899 3.88748)
(-5.42941e-15 -1.07679 4.12088)
(-5.43088e-15 -1.35807 4.35707)
(-5.44465e-15 -1.67809 4.61554)
(-5.46358e-15 -2.05297 4.94282)
(-5.47992e-15 -2.51636 5.383)
(-5.48156e-15 -3.08392 5.97305)
(-5.43353e-15 -3.75924 6.76855)
(-5.26516e-15 -4.54505 7.83433)
(-4.89736e-15 -5.47482 9.20452)
(-4.31894e-15 -6.62125 10.8319)
(-3.64831e-15 -8.02479 12.5598)
(-3.09069e-15 -9.55045 14.1628)
(-2.82491e-15 -10.8984 15.3951)
(-2.87429e-15 -11.6846 16.0249)
(-3.0248e-15 -11.5384 15.9233)
(-3.07731e-15 -10.4107 15.4495)
(-3.44923e-15 -9.24665 15.9982)
(-4.7592e-15 -9.45354 18.66)
(-6.28817e-15 -10.4139 21.6802)
(-7.04628e-15 -10.4522 23.0377)
(-7e-15 -9.24046 22.5724)
(-6.59419e-15 -7.48277 21.2815)
(-6.28592e-15 -5.87049 20.7422)
(-6.38283e-15 -4.48339 21.6114)
(-6.68774e-15 -2.97549 22.7198)
(-6.80136e-15 -1.13097 23.0639)
(-6.73376e-15 0.628193 22.7902)
(-6.4613e-15 1.96548 21.748)
(-5.80047e-15 2.89462 19.6579)
(-4.46836e-15 3.09186 16.2084)
(-2.17147e-15 2.14347 10.9516)
(1.09754e-15 -0.00474255 3.705)
(3.3113e-15 -1.22274 -1.55865)
(3.38528e-15 -1.39612 -1.54374)
(2.76514e-15 -1.33488 -0.711749)
(2.24605e-15 -1.33055 -0.577258)
(1.73102e-15 -1.14327 -0.540248)
(1.23548e-15 -0.821084 -0.429213)
(1.016e-15 -0.14605 -0.250798)
(1.78235e-15 0.890499 0.14989)
(1.99551e-15 1.38548 0.272535)
(8.08942e-16 -2.96532 -1.44646)
(5.40185e-16 -7.11977 -3.02478)
(2.42737e-16 -6.70267 -4.04548)
(6.17446e-16 -1.15617 13.033)
(5.43453e-16 -1.07407 13.048)
(4.62363e-16 -1.01 13.0431)
(3.52635e-16 -0.933396 12.9867)
(2.11676e-16 -0.854166 12.8694)
(3.42494e-17 -0.768507 12.6679)
(-1.83633e-16 -0.676415 12.3632)
(-4.44915e-16 -0.578852 11.9406)
(-7.50928e-16 -0.478508 11.3946)
(-1.1013e-15 -0.379023 10.7307)
(-1.49422e-15 -0.283299 9.9633)
(-1.92718e-15 -0.193386 9.11235)
(-2.39815e-15 -0.109334 8.1979)
(-2.9069e-15 -0.0284737 7.23522)
(-3.45333e-15 0.0521599 6.23812)
(-4.03234e-15 0.134677 5.22946)
(-4.62014e-15 0.216603 4.26615)
(-5.15132e-15 0.287942 3.47309)
(-5.54948e-15 0.334155 2.95585)
(-5.74382e-15 0.341205 2.78614)
(-5.74967e-15 0.313272 2.88443)
(-5.62601e-15 0.261963 3.14132)
(-5.50825e-15 0.212146 3.34736)
(-5.48313e-15 0.159791 3.40677)
(-5.54249e-15 0.0467055 3.30763)
(-5.59294e-15 -0.0741119 3.18508)
(-5.5975e-15 -0.138997 3.15881)
(-5.58408e-15 -0.17802 3.1737)
(-5.56389e-15 -0.249466 3.23027)
(-5.54691e-15 -0.300581 3.31129)
(-5.53055e-15 -0.36104 3.42674)
(-5.50988e-15 -0.444612 3.54807)
(-5.48208e-15 -0.570463 3.68158)
(-5.45214e-15 -0.721843 3.85292)
(-5.4318e-15 -0.904857 4.0557)
(-5.4277e-15 -1.13632 4.26992)
(-5.43698e-15 -1.4141 4.49823)
(-5.4538e-15 -1.74489 4.76852)
(-5.47224e-15 -2.14095 5.12355)
(-5.4851e-15 -2.62857 5.60277)
(-5.47501e-15 -3.22918 6.24762)
(-5.39734e-15 -3.94694 7.11124)
(-5.17682e-15 -4.796 8.23958)
(-4.74655e-15 -5.80402 9.64301)
(-4.12713e-15 -7.01462 11.2605)
(-3.47019e-15 -8.42042 12.9406)
(-2.98713e-15 -9.85996 14.4674)
(-2.81685e-15 -11.046 15.5937)
(-2.90905e-15 -11.6284 16.0894)
(-3.0294e-15 -11.3253 15.8892)
(-3.12789e-15 -10.2953 15.5601)
(-3.77416e-15 -9.58236 16.5961)
(-5.2812e-15 -10.0875 19.515)
(-6.63958e-15 -10.8208 22.1594)
(-7.0992e-15 -10.4704 22.8878)
(-6.90954e-15 -9.06916 22.1021)
(-6.61524e-15 -7.40099 21.3491)
(-6.58375e-15 -5.97057 21.9337)
(-6.79807e-15 -4.58941 23.2901)
(-6.94908e-15 -2.92294 24.1135)
(-6.95809e-15 -0.98224 24.3092)
(-6.94495e-15 0.846203 24.1229)
(-6.84837e-15 2.35221 23.3242)
(-6.48168e-15 3.49924 21.652)
(-5.54953e-15 3.99883 18.7771)
(-3.69785e-15 3.4556 14.2305)
(-6.82976e-16 1.53036 7.58118)
(3.0148e-15 -1.25504 -0.636709)
(3.24976e-15 -1.33268 -1.38477)
(2.9693e-15 -1.39065 -1.0705)
(2.33272e-15 -1.33786 -0.582116)
(1.76534e-15 -1.15511 -0.496096)
(1.27083e-15 -0.848195 -0.400722)
(1.0549e-15 -0.193086 -0.215192)
(1.79596e-15 0.895145 0.195297)
(1.97866e-15 1.4381 0.289789)
(8.68133e-16 -2.64156 -1.21043)
(5.52008e-16 -6.89686 -2.77791)
(2.76985e-16 -6.76781 -3.74793)
(5.30472e-16 -1.15903 12.9863)
(4.11735e-16 -1.0741 12.9438)
(2.80021e-16 -0.989556 12.843)
(1.02965e-16 -0.890321 12.6498)
(-1.23994e-16 -0.782316 12.347)
(-4.08678e-16 -0.663072 11.9088)
(-7.56323e-16 -0.534322 11.3187)
(-1.16867e-15 -0.399712 10.5725)
(-1.64193e-15 -0.265068 9.68524)
(-2.16542e-15 -0.137182 8.69328)
(-2.72157e-15 -0.0213909 7.65046)
(-3.28807e-15 0.0781368 6.61882)
(-3.84151e-15 0.159268 5.65677)
(-4.3588e-15 0.22221 4.8142)
(-4.81152e-15 0.267853 4.13966)
(-5.19276e-15 0.301918 3.62184)
(-5.4748e-15 0.320399 3.28659)
(-5.64114e-15 0.324979 3.1294)
(-5.68897e-15 0.314142 3.14185)
(-5.63917e-15 0.288414 3.26521)
(-5.54788e-15 0.254655 3.40439)
(-5.47975e-15 0.226264 3.48836)
(-5.47148e-15 0.204904 3.49644)
(-5.5103e-15 0.16063 3.47613)
(-5.55265e-15 0.0397357 3.45017)
(-5.56921e-15 -0.0908819 3.41144)
(-5.55985e-15 -0.160493 3.39735)
(-5.54683e-15 -0.20381 3.39957)
(-5.53391e-15 -0.267419 3.43462)
(-5.52058e-15 -0.316202 3.5102)
(-5.50406e-15 -0.380721 3.6237)
(-5.48267e-15 -0.477865 3.74132)
(-5.45782e-15 -0.615624 3.86905)
(-5.43611e-15 -0.770353 4.02967)
(-5.42658e-15 -0.960717 4.21581)
(-5.43133e-15 -1.19305 4.41667)
(-5.44536e-15 -1.47768 4.64561)
(-5.4632e-15 -1.81986 4.93406)
(-5.48005e-15 -2.23566 5.32063)
(-5.48723e-15 -2.74627 5.84264)
(-5.46066e-15 -3.37714 6.54473)
(-5.34727e-15 -4.14027 7.47328)
(-5.07122e-15 -5.05048 8.6553)
(-4.58284e-15 -6.12216 10.0816)
(-3.93628e-15 -7.3737 11.6816)
(-3.31073e-15 -8.75286 13.3079)
(-2.91117e-15 -10.0875 14.7475)
(-2.82507e-15 -11.1079 15.7514)
(-2.93714e-15 -11.5085 16.1059)
(-3.03472e-15 -11.1177 15.8498)
(-3.23781e-15 -10.2828 15.7636)
(-4.16291e-15 -10.0063 17.2771)
(-5.75659e-15 -10.6659 20.2564)
(-6.8866e-15 -11.109 22.3988)
(-7.10845e-15 -10.4278 22.6236)
(-6.89642e-15 -8.9602 21.9403)