/*--------------------------------*- C++ -*----------------------------------*\
| =========                 |                                                 |
| \\      /  F ield         | OpenFOAM: The Open Source CFD Toolbox           |
|  \\    /   O peration     | Version:  4.1                                   |
|   \\  /    A nd           | Web:      www.OpenFOAM.org                      |
|    \\/     M anipulation  |                                                 |
\*---------------------------------------------------------------------------*/
FoamFile
{
    version     2.0;
    format      ascii;
    class       surfaceScalarField;
    location    "21";
    object      phi;
}
// * * * * * * * * * * * * * * * * * * * * * * * * * * * * * * * * * * * * * //

dimensions      [0 3 -1 0 0 0 0];

internalField   nonuniform List<scalar> 
13220
(
-791.135
2091.03
-1238.86
1747.92
-1697.11
1758.15
-2034.63
1637.42
-2311.65
1577.22
-2511.88
1500.12
-2643.81
1431.83
-2707.33
1363.72
-2706.24
1298.8
-2635.54
1229.2
-2477.97
1142.62
-2193.85
1015.78
-1708.26
814.309
-962.973
554.913
336.927
-225.393
2316.43
-503.574
2026.1
-806.193
2060.77
-1052.5
1883.73
-1289.81
1814.54
-1484.07
1694.38
-1653.07
1600.83
-1790.22
1500.87
-1899.43
1408.02
-1967.39
1297.16
-1950.7
1125.93
-1747.43
812.509
-1229.2
296.077
-545.106
-129.179
-208.179
-144.248
2460.67
-355.333
2237.18
-502.759
2208.19
-594.503
1975.47
-672.549
1892.58
-707.61
1729.44
-720.367
1613.59
-704.156
1484.66
-663.164
1367.03
-599.124
1233.12
-517.828
1044.64
-419.87
714.544
-297.977
174.172
-222.679
-204.491
-430.858
103.369
2357.3
67.3348
2273.22
102.06
2173.47
157.902
1919.63
221.979
1828.5
301.627
1649.79
394.178
1521.03
502.134
1376.7
623.085
1246.07
743.757
1112.44
829.711
958.68
791.481
752.773
506.655
458.998
109.663
192.5
-321.195
151.37
2205.93
167.455
2257.13
234.251
2106.67
306.962
1846.91
385.296
1750.17
465.77
1569.31
546.614
1440.19
624.006
1299.31
696.475
1173.6
757.162
1051.75
789.527
926.314
749.716
792.582
584.621
624.089
336.558
440.557
15.3627
92.766
2113.16
148.498
2201.4
214.932
2040.24
285.123
1776.72
355.204
1680.08
436.243
1488.27
518.575
1357.85
613.236
1204.65
706.404
1080.44
786.047
972.112
823.205
889.156
785.017
830.774
629.385
779.725
370.923
699.027
386.286
-9.4406
2122.6
44.5426
2147.42
78.3936
2006.38
82.4097
1772.7
85.0178
1677.48
89.7998
1483.49
139.265
1308.39
268.53
1075.38
459.536
889.43
667.71
763.938
816.078
740.788
827.02
819.829
661.739
945.003
369.723
991.038
756.009
-137.972
2260.58
-237.551
2247
-333.498
2102.33
-484.227
1923.43
-643.066
1836.32
-815.304
1655.73
-938.771
1431.86
-982.435
1119.05
-937.935
844.931
-806.844
632.848
-585.084
519.027
-303.816
538.566
-59.2297
700.421
46.3091
885.505
802.318
-12.3675
2272.94
-255.292
2489.92
-442.714
2289.75
-626.479
2107.2
-814.73
2024.57
-1024.94
1865.94
-1258.89
1665.81
-1512.29
1372.44
-1751.2
1083.84
-1919.39
801.034
-1929.85
529.495
-1683.41
292.115
-1151.18
168.196
-484.194
218.51
318.124
318.212
1954.73
190.767
2617.37
49.1646
2431.36
-23.1827
2179.55
-48.7905
2050.18
-79.3986
1896.55
-146.909
1733.32
-281.073
1506.61
-460.799
1263.57
-664.347
1004.58
-865.859
731.008
-1003.99
430.253
-949.547
113.758
-624.627
-106.402
-306.503
465.821
1488.91
553.06
2530.13
535.25
2449.17
577.381
2137.42
689.398
1938.16
815.362
1770.59
924.613
1624.07
974.601
1456.62
960.616
1277.55
877.202
1088
721.361
886.85
479.577
672.037
171.817
421.52
-60.8604
126.277
-367.363
319.022
1169.89
443.112
2406.04
487.281
2405
542.124
2082.58
631.077
1849.21
729.993
1671.68
825.165
1528.9
894.57
1387.22
929.966
1242.16
923.808
1094.16
870.039
940.621
760.183
781.897
581.368
600.34
320.822
386.835
-46.5411
184.516
985.377
303.641
2286.92
393.525
2315.12
491.105
1985
599.296
1741.02
694.364
1576.61
767.516
1455.75
812.676
1342.06
824.485
1230.35
800.298
1118.34
737.559
1003.36
635.013
884.443
488.812
746.542
291.624
584.025
245.083
218.022
767.356
373.177
2131.76
384.383
2303.91
319.736
2049.64
272.933
1787.82
256.144
1593.4
264.593
1447.3
289.977
1316.67
324.571
1195.76
364.562
1078.35
405.863
962.06
428.237
862.07
380.507
794.273
234.393
730.141
479.476
284.219
1228.09
2043.44
2448.4
2516.05
2486.17
2344.31
2124.55
1881.88
1631.53
1351.9
1058.78
762.857
412.79
-1.8696e-06
-251.286
251.286
-251.286
-251.286
-251.286
284.955
-536.241
284.955
284.955
284.955
750.154
-465.199
750.154
750.154
1123.46
-373.301
1123.46
1123.46
1123.46
1396.23
-272.772
1396.23
1396.23
1561.55
-165.318
1561.55
1561.55
1561.55
1622.57
-61.0262
1622.57
1622.57
1622.57
1601.76
20.8129
1601.76
1601.76
1515.8
85.9631
1515.8
1515.8
1515.8
1383.61
132.182
1383.61
1383.61
1214.04
169.574
1214.04
1214.04
1214.04
1035.6
178.439
1035.6
1035.6
1035.6
945.701
89.8998
945.701
945.701
851.239
94.4614
851.239
851.239
851.239
639.37
211.87
639.37
639.37
639.37
312.309
327.061
312.308
312.308
-40.2408
352.549
-40.2408
-40.2409
-40.2408
-690.341
650.101
-690.341
-690.341
-1932.08
1241.74
-1932.08
-1932.08
-1932.08
-3623.58
1691.5
-3623.58
-3623.58
-3623.58
-5578.54
1954.96
-5578.54
-5578.54
-7744.96
2166.43
-7744.96
-7744.96
-7578.99
-7415.51
-7251.62
-9414.62
2328.92
-9240.51
-9048.5
-8846.55
-8643.67
-8439.91
-8235.32
-8032.95
-7831.4
-10106.5
2472.49
-9897.64
-9688.92
-9479.99
-9267.17
-9051.11
-8832.97
-8613.97
-8394.1
-10691.1
2515.08
-10457.3
-10222.2
-9987.01
-9752.1
-9512.17
-9261.95
-9010.57
-8757.33
-8503.58
-10666.3
2403.2
-10400.1
-10132.3
-9863.02
-9592.56
-9320.29
-9034.53
-8740.67
-8446.18
-10428.7
2261.24
-10141.1
-9848.51
-9546.93
-9247.89
-8950.37
-8655
-8360.04
-8046.56
-9496.68
1750.87
-9193.5
-8891.21
-8588.45
-8268.97
-7942.07
-7616.35
-7290.88
-6968.74
-7902.28
1252.57
-7576.66
-7261.87
-6955.9
-6660.32
-6375.27
-6083.52
-5801.5
-5526.1
-5257.83
-4920.78
-54.3703
-4677.97
-4449.76
-4223.75
-4001.66
-3783.13
-3608.39
-3518.61
-3427.47
-3057.64
-272.524
-2975.45
-2895.6
-2895.6
-2694.33
-201.275
-2472.72
-221.602
-2472.72
-2283.78
-188.944
-2283.78
-2117.3
-166.483
-1966.35
-150.944
-1966.35
-1826.74
-139.613
-1699.8
-126.935
-1699.8
-1579.14
-120.669
-1579.14
-1466.22
-112.914
-1363.82
-102.4
-1363.82
-1263.11
-100.708
-1263.11
-1166.37
-96.7414
-1078.29
-88.088
-1078.29
-987.821
-90.4644
-907.107
-80.7133
-907.107
-824.749
-82.3582
-824.749
-742.153
-82.596
-669.981
-72.1721
-669.981
-594.895
-75.0859
-594.895
-518.026
-76.8696
-450.983
-67.0427
-450.983
-376.89
-74.0928
-313.603
-63.287
-313.603
-247.66
-65.9437
-247.66
-178.814
-68.8456
-119.774
-59.04
-119.774
-58.8257
-60.9482
-58.8257
4.13927
-62.965
66.4089
-62.2696
66.4089
112.975
-46.5661
171.082
-58.107
171.082
218.332
-47.2505
218.332
254.528
-36.1957
294.299
-39.7706
294.299
334.144
-39.8456
334.144
367.506
-33.362
400.986
-33.4798
400.986
428.067
-27.0814
458.6
-30.533
458.6
491.051
-32.4509
491.051
521.871
-30.8197
556.209
-34.3378
556.209
591.288
-35.0795
591.288
623.248
-31.9599
658.512
-35.2637
658.512
695.153
-36.6414
741.057
-45.9038
741.057
795.159
-54.1016
795.159
-55.9514
-171.582
-660.2
-172.673
-738.521
-174.269
-777.582
-176.204
-821.057
-178.543
-859.191
-181.208
-896.302
-184.204
-930.849
-187.51
-964.321
-191.127
-996.226
-195.064
-1027.43
-199.34
-1058.14
-203.979
-1089.11
-209.009
-1120.74
-214.454
-1153.53
-220.33
-1187.82
-226.642
-1223.91
-233.396
-1261.95
-240.694
-1301.8
-248.952
-1342.58
-259.277
-1382.2
-273.831
-1416.78
-295.788
-1440.99
-328.493
-1449.51
-373.899
-1439.34
-431.147
-1411.63
-496.289
-1371.52
-563.41
-1326.23
-626.383
-1282.9
-680.326
-1247.35
-722.321
-1223.69
-751.459
-1214.04
-768.419
-1218.23
-774.809
-1234
-772.499
-1257.7
-763.164
-1285.2
-748.099
-1312.33
-728.202
-1334.84
-704.069
-1347.71
-676.457
-1344.84
-647.113
-1323.62
-616.041
-1291.8
-567.364
-1211.79
-475.494
-799.484
-392.822
262.801
-362.813
996.96
-338.143
1323.47
-313.178
1578.76
-288.4
1849.76
-263.617
2133.4
-238.498
2424.94
-212.99
2718.46
-187.073
3005.66
-160.936
3276.74
-134.244
3528.85
-106.999
3751.8
-79.6461
3940.15
-52.2746
4097.17
-24.8628
4214.41
-0.632507
4215.46
18.8795
4127.53
32.8168
3962.42
40.9248
3740.37
45.5488
3550.88
47.851
3371.58
48.9609
3189.45
49.688
2993.19
50.3569
2767.57
51.3901
2524.14
52.2969
2223.35
53.4968
1927.47
53.8554
1499.13
55.1501
1156.99
58.2929
351.792
61.4816
-513.504
35.5048
-1187.7
29.0501
-1667.11
18.7916
-1860.1
17.5962
-2190.32
2469.77
-180.07
-660.005
-181.034
-737.556
-182.658
-775.958
-184.646
-819.069
-187.094
-856.743
-189.894
-893.503
-193.053
-927.689
-196.546
-960.828
-200.38
-992.392
-204.573
-1023.23
-209.15
-1053.56
-214.136
-1084.13
-219.558
-1115.32
-225.433
-1147.66
-231.762
-1181.49
-238.548
-1217.13
-245.87
-1254.63
-254.134
-1293.53
-264.512
-1332.21
-279.453
-1367.26
-302.757
-1393.47
-338.601
-1405.15
-389.451
-1398.66
-453.998
-1374.79
-526.743
-1338.88
-599.782
-1298.48
-665.588
-1260.42
-719.061
-1229.42
-758.086
-1208.32
-782.979
-1198.8
-795.514
-1201.51
-798.005
-1215.74
-792.639
-1239.36
-781.144
-1269.2
-764.738
-1301.61
-744.259
-1332.81
-720.312
-1358.79
-693.386
-1374.64
-664.189
-1374.04
-634.628
-1353.18
-606.308
-1320.12
-565.408
-1252.69
-474.131
-890.762
-376.376
165.046
-352.849
973.432
-334.691
1305.31
-309.659
1553.72
-284.98
1825.08
-260.876
2109.3
-236.422
2400.48
-211.622
2693.66
-186.379
2980.42
-160.791
3251.15
-134.549
3502.61
-107.662
3724.91
-80.5782
3913.06
-53.4067
4070
-26.127
4187.13
-1.92978
4191.26
17.6339
4107.96
31.7111
3948.34
40.0088
3732.07
44.8483
3546.04
47.3852
3369.04
48.7606
3188.07
49.7879
2992.16
50.8236
2766.54
52.2685
2522.69
53.6597
2221.96
55.3731
1925.76
56.2964
1498.2
58.9256
1154.36
60.7912
349.927
61.8659
-514.579
35.7464
-1161.58
27.1553
-1658.52
18.1595
-1851.1
16.4281
-2188.58
2432.1
-184.756
-659.863
-185.673
-736.64
-187.322
-774.308
-189.349
-817.042
-191.868
-854.224
-194.75
-890.621
-198.008
-924.431
-201.612
-957.223
-205.577
-988.427
-209.925
-1018.89
-214.682
-1048.81
-219.875
-1078.93
-225.523
-1109.67
-231.635
-1141.54
-238.208
-1174.92
-245.285
-1210.05
-253.149
-1246.77
-262.741
-1283.94
-276.233
-1318.71
-297.321
-1346.17
-330.502
-1360.29
-379.001
-1356.65
-442.287
-1335.37
-515.149
-1301.93
-589.388
-1264.65
-656.967
-1230.9
-712.471
-1204.92
-753.751
-1188.14
-781.178
-1180.9
-796.486
-1183.49
-801.836
-1196.16
-799.248
-1218.33
-790.347
-1248.26
-776.331
-1283.21
-758.072
-1319.87
-736.26
-1354.62
-711.537
-1383.51
-684.559
-1401.61
-656.234
-1402.36
-628.553
-1380.86
-603.752
-1344.92
-570.664
-1285.77
-487.405
-974.022
-370.576
48.2179
-337.836
940.692
-327.621
1295.1
-305.448
1531.55
-280.456
1800.09
-256.95
2085.79
-233.426
2376.96
-209.579
2669.82
-185.295
2956.13
-160.544
3226.4
-134.981
3477.04
-108.64
3698.57
-81.9705
3886.39
-55.081
4043.11
-27.9562
4160
-3.78794
4167.1
15.8664
4088.31
30.1412
3934.07
38.6936
3723.52
43.8191
3540.92
46.6731
3366.19
48.406
3186.34
49.8483
2990.72
51.3834
2765
53.4087
2520.67
55.4698
2219.9
57.8979
1923.33
59.4917
1496.61
63.1268
1150.72
62.7782
350.275
61.5535
-513.354
37.0348
-1137.07
26.869
-1648.35
19.1394
-1843.37
16.22
-2185.66
2402.41
-190.382
-659.76
-191.267
-735.755
-192.956
-772.619
-195.038
-814.959
-197.648
-851.614
-200.636
-887.633
-204.018
-921.05
-207.761
-953.48
-211.886
-984.303
-216.419
-1014.35
-221.393
-1043.83
-226.831
-1073.5
-232.745
-1103.76
-239.133
-1135.16
-246.011
-1168.04
-253.561
-1202.5
-262.51
-1237.82
-274.741
-1271.71
-293.811
-1299.64
-324.565
-1315.42
-371.175
-1313.68
-434.218
-1293.61
-508.966
-1260.62
-586.693
-1224.2
-658.232
-1193.11
-717.169
-1171.97
-760.914
-1161.18
-789.916
-1159.14
-806.22
-1164.59
-812.297
-1177.42
-810.38
-1198.07
-802.217
-1226.49
-789.065
-1261.41
-771.807
-1300.47
-751.119
-1340.55
-727.646
-1378.09
-702.131
-1409.03
-675.469
-1428.28
-648.833
-1429
-624.342
-1405.36
-604.578
-1364.68
-580.256
-1310.1
-507.064
-1047.21
-374.482
-84.3643
-323.323
889.534
-316.002
1287.78
-299.73
1515.28
-275.455
1775.81
-252.14
2062.47
-229.599
2354.42
-206.929
2647.15
-183.833
2933.04
-160.167
3202.73
-135.51
3452.39
-109.9
3672.96
-83.7853
3860.28
-57.2707
4016.59
-30.3596
4133.09
-6.23766
4142.97
13.5239
4068.55
28.0445
3919.55
36.9252
3714.64
42.4143
3535.43
45.6701
3362.93
47.8535
3184.16
49.8153
2988.76
51.9739
2762.84
54.7247
2517.92
57.6259
2217
60.9301
1920.03
63.3297
1494.21
67.6648
1146.39
65.9775
351.963
63.0093
-510.386
38.8119
-1112.87
26.7023
-1636.24
19.7881
-1836.46
15.9022
-2181.78
2381.67
-195.88
-659.669
-196.756
-734.879
-198.494
-770.881
-200.643
-812.81
-203.351
-848.905
-206.452
-884.533
-209.962
-917.539
-213.849
-949.593
-218.136
-980.015
-222.859
-1009.63
-228.051
-1038.64
-233.73
-1067.82
-239.898
-1097.59
-246.554
-1128.5
-253.802
-1160.79
-262.167
-1194.13
-273.212
-1226.77
-290.232
-1254.69
-318.254
-1271.62
-362.357
-1271.31
-424.432
-1251.61
-500.57
-1217.47
-581.694
-1179.5
-657.385
-1148.51
-719.958
-1130.53
-766.186
-1125.74
-796.556
-1130.8
-813.524
-1142.18
-820.014
-1158.1
-818.585
-1178.84
-811.144
-1205.51
-798.97
-1238.66
-782.899
-1277.49
-763.528
-1319.84
-741.426
-1362.65
-717.308
-1402.21
-692.154
-1434.18
-667.212
-1453.22
-643.967
-1452.24
-624.529
-1424.79
-611.383
-1377.83
-596.647
-1324.83
-534.337
-1109.52
-388.101
-230.6
-311.822
813.254
-300.921
1276.88
-290.954
1505.31
-269.683
1754.54
-246.689
2039.48
-224.919
2332.65
-203.602
2625.83
-181.934
2911.37
-159.601
3180.4
-136.101
3428.89
-111.435
3648.29
-86.0388
3834.88
-60.0145
3990.57
-33.3816
4106.46
-9.32946
4118.92
10.5528
4048.67
25.3643
3904.74
34.639
3705.36
40.5722
3529.5
44.3196
3359.18
47.0537
3181.42
49.6476
2986.16
52.5601
2759.93
56.1909
2514.29
60.1065
2213.08
64.4626
1915.67
67.8344
1490.84
72.7871
1141.43
69.7218
355.028
64.9707
-505.635
41.1115
-1089.01
26.966
-1622.1
20.4597
-1829.95
15.098
-2176.42
2361.51
-201.5
-659.568
-202.386
-733.993
-204.187
-769.08
-206.414
-810.583
-209.232
-846.087
-212.456
-881.309
-216.105
-913.889
-220.144
-945.554
-224.604
-975.555
-229.526
-1004.71
-234.942
-1033.23
-240.862
-1061.9
-247.281
-1091.17
-254.243
-1121.54
-262.098
-1152.94
-272.078
-1184.15
-287.107
-1211.74
-312.198
-1229.6
-353.221
-1230.6
-413.567
-1210.97
-490.583
-1174.59
-575.192
-1132.86
-655.697
-1098.99
-722.82
-1081.39
-772.332
-1081.02
-804.535
-1093.54
-822.224
-1113.12
-828.83
-1135.57
-827.368
-1159.57
-820.053
-1186.16
-808.317
-1217.25
-793.006
-1253.97
-774.647
-1295.85
-753.698
-1340.79
-730.772
-1385.58
-706.802
-1426.18
-683.133
-1457.85
-661.415
-1474.93
-643.348
-1470.31
-630.758
-1437.38
-625.525
-1383.06
-620.611
-1329.74
-569.13
-1161
-411.483
-388.247
-305.43
707.201
-284.403
1255.85
-278.429
1499.34
-262.114
1738.23
-240.685
2018.05
-219.52
2311.48
-199.536
2605.85
-179.518
2891.35
-158.752
3159.64
-136.653
3406.79
-113.158
3624.8
-88.6618
3810.39
-63.2582
3965.16
-36.9847
4080.18
-13.0396
4094.98
6.96481
4028.66
22.0978
3889.6
31.8206
3695.64
38.2682
3523.05
42.5896
3354.86
45.9665
3178.05
49.2952
2982.83
53.0783
2756.15
57.7262
2509.64
62.8111
2208
68.3746
1910.11
72.8635
1486.35
78.4571
1135.84
74.203
359.282
67.7547
-499.187
43.9409
-1065.19
27.5925
-1605.75
20.9082
-1823.27
14.1573
-2169.67
2343.71
-207.196
-659.436
-208.11
-733.079
-209.985
-767.205
-212.303
-808.265
-215.241
-843.149
-218.6
-877.95
-222.398
-910.091
-226.598
-941.354
-231.239
-970.915
-236.365
-999.582
-242.007
-1027.58
-248.162
-1055.74
-254.841
-1084.49
-262.251
-1114.13
-271.302
-1143.89
-284.468
-1170.99
-306.535
-1189.68
-343.945
-1192.19
-401.654
-1172.89
-478.728
-1133.89
-566.587
-1086.73
-652.375
-1047.07
-724.932
-1026.44
-778.635
-1027.68
-813.332
-1046.33
-832.047
-1074.82
-838.712
-1106.45
-836.845
-1137.44
-829.088
-1167.32
-817.174
-1198.07
-802.099
-1232.33
-784.379
-1271.69
-764.359
-1315.87
-742.493
-1362.66
-719.577
-1408.5
-696.91
-1448.85
-676.284
-1478.47
-659.695
-1491.52
-648.784
-1481.22
-644.6
-1441.57
-647.871
-1379.79
-652.222
-1325.39
-611.468
-1201.76
-445.408
-554.307
-305.9
567.693
-268.641
1218.59
-262.7
1493.4
-251.559
1727.08
-233.645
2000.14
-213.549
2291.39
-194.734
2587.03
-176.496
2873.11
-157.532
3140.67
-137.067
3386.32
-114.979
3602.71
-91.5831
3786.99
-66.9495
3940.53
-41.1405
4054.38
-17.3615
4071.2
2.74999
4008.55
18.222
3874.13
28.4383
3685.43
35.4663
3516.02
40.4412
3349.89
44.55
3173.94
48.7116
2978.67
53.4746
2751.39
59.2664
2503.85
65.6637
2201.6
72.5813
1903.19
78.3222
1480.61
84.6838
1129.48
79.4647
364.501
71.2936
-491.016
47.3606
-1041.26
28.6597
-1587.05
21.2111
-1815.82
13.1459
-2161.6
2321.77
-212.987
-659.255
-213.945
-732.121
-215.908
-765.242
-218.33
-805.844
-221.4
-840.078
-224.905
-874.446
-228.862
-906.134
-233.233
-936.982
-238.062
-966.087
-243.396
-994.248
-249.258
-1021.72
-255.644
-1049.36
-262.659
-1077.48
-270.925
-1105.86
-282.422
-1132.39
-301.505
-1151.9
-334.887
-1156.3
-389.005
-1138.07
-465.04
-1096.86
-555.553
-1043.38
-646.846
-995.438
-725.667
-968.252
-784.575
-967.529
-822.662
-989.596
-843.055
-1025.93
-850.138
-1067.74
-847.909
-1108.68
-839.428
-1145.92
-826.795
-1179.96
-811.299
-1213.57
-793.61
-1250.02
-774.054
-1291.25
-752.939
-1336.98
-730.872
-1384.73
-709.001
-1430.37
-689.107
-1468.74
-673.429
-1494.15
-664.074
-1500.88
-662.123
-1483.17
-667.232
-1436.46
-678.533
-1368.49
-690.483
-1313.44
-660.25
-1231.99
-491.273
-723.284
-315.164
391.585
-255.516
1158.94
-245.159
1483.04
-237.413
1719.34
-224.583
1987.31
-206.899
2273.7
-189.285
2569.42
-172.799
2856.63
-155.852
3123.72
-137.258
3367.73
-116.813
3582.27
-94.7352
3764.91
-71.0428
3916.84
-45.8246
4029.16
-22.2918
4047.66
-2.10474
3988.36
13.7114
3858.31
24.4574
3674.68
32.1279
3508.35
37.835
3344.18
42.7645
3169.01
47.8571
2973.58
53.7078
2745.54
60.768
2496.79
68.6174
2193.75
77.035
1894.77
84.1642
1473.48
91.4634
1122.18
85.492
370.472
75.5725
-481.096
51.4187
-1017.11
30.2321
-1565.86
21.5697
-1807.16
11.7053
-2151.74
2299.14
-218.881
-659.007
-219.896
-731.105
-221.961
-763.177
-224.499
-803.305
-227.715
-836.862
-231.377
-870.784
-235.504
-902.007
-240.056
-932.431
-245.077
-961.065
-250.617
-988.708
-256.69
-1015.65
-263.338
-1042.71
-270.948
-1069.87
-281.012
-1095.8
-297.287
-1116.12
-326.409
-1122.78
-376.036
-1106.67
-449.725
-1064.38
-541.911
-1004.67
-638.598
-946.692
-724.367
-909.67
-789.503
-903.116
-831.967
-925.065
-854.859
-966.704
-862.999
-1017.79
-860.839
-1069.9
-851.778
-1117.74
-838.217
-1159.48
-821.764
-1196.41
-803.393
-1231.94
-783.607
-1269.8
-762.696
-1312.16
-741.1
-1358.58
-719.755
-1406.07
-700.313
-1449.81
-685.086
-1483.97
-676.572
-1502.67
-676.514
-1500.94
-684.759
-1474.93
-698.981
-1422.24
-716.562
-1350.91
-733.338
-1296.67
-713.361
-1251.97
-551.329
-885.316
-336.614
176.87
-246.565
1068.89
-227.426
1463.9
-220.033
1711.95
-212.469
1979.74
-199.012
2260.24
-183.251
2553.66
-168.433
2841.81
-153.625
3108.92
-137.144
3351.25
-118.577
3563.7
-98.042
3744.38
-75.4813
3894.28
-51.0009
4004.68
-27.8139
4024.48
-7.60108
3968.15
8.5508
3842.16
19.8526
3663.38
28.2217
3499.98
34.7367
3337.66
40.5747
3163.17
46.6956
2967.46
53.7406
2738.49
62.1913
2488.34
71.6301
2184.31
81.6895
1884.71
90.342
1464.83
98.7343
1113.79
92.2231
376.984
80.5569
-469.43
56.1284
-992.68
32.3604
-1542.09
22.2703
-1797.07
10.7771
-2140.24
2279.1
-224.884
-658.673
-225.972
-730.018
-228.152
-760.997
-230.821
-800.636
-234.195
-833.489
-238.028
-866.95
-242.336
-897.699
-247.075
-927.692
-252.29
-955.85
-258.027
-982.972
-264.314
-1009.36
-271.372
-1035.65
-280.248
-1060.99
-294.005
-1082.04
-318.851
-1091.27
-363.25
-1078.38
-433.181
-1036.74
-525.677
-971.884
-627.244
-903.103
-720.419
-853.517
-792.751
-837.338
-840.591
-855.276
-866.831
-898.825
-876.766
-956.769
-875.343
-1019.21
-866.261
-1078.98
-852.084
-1131.92
-834.599
-1176.96
-815.065
-1215.94
-794.309
-1252.7
-772.83
-1291.28
-751.06
-1333.93
-729.762
-1379.87
-710.391
-1425.44
-695.2
-1465
-686.912
-1492.26
-687.847
-1501.73
-698.663
-1490.12
-717.279
-1456.31
-739.105
-1400.41
-760.072
-1329.94
-778.134
-1278.61
-767.539
-1262.56
-627.868
-1024.99
-377.899
-73.0994
-242.981
933.975
-210.883
1431.8
-200.632
1701.69
-196.763
1975.88
-188.95
2252.43
-176.442
2541.15
-163.46
2828.83
-150.791
3096.25
-136.638
3337.1
-120.189
3547.25
-101.424
3725.61
-80.2011
3873.06
-56.6261
3981.1
-33.9045
4001.76
-13.7338
3947.98
2.73144
3825.7
14.6037
3651.51
23.7194
3490.86
31.1144
3330.27
37.9463
3156.34
45.1914
2960.21
53.5361
2730.15
63.4974
2478.38
74.6605
2173.15
86.4989
1872.88
96.8063
1454.52
106.421
1104.17
99.6061
383.799
86.2477
-456.072
61.4794
-967.911
35.0702
-1515.69
23.2817
-1785.28
10.2976
-2127.26
2256.94
-231.007
-658.237
-232.178
-728.847
-234.489
-758.686
-237.303
-797.822
-240.849
-829.943
-244.867
-862.932
-249.367
-893.199
-254.298
-922.76
-259.7
-950.449
-265.624
-977.048
-272.199
-1002.79
-280.109
-1027.74
-291.709
-1049.39
-312.482
-1061.27
-351.173
-1052.58
-415.96
-1013.6
-507.08
-945.618
-612.554
-866.411
-713.295
-802.361
-793.704
-773.108
-847.913
-783.128
-878.321
-824.868
-890.733
-886.413
-890.729
-956.773
-882.36
-1027.58
-868.276
-1093.07
-850.257
-1149.94
-829.642
-1197.58
-807.512
-1238.07
-784.713
-1275.5
-761.921
-1314.07
-739.917
-1355.93
-720.006
-1399.79
-704.318
-1441.13
-695.669
-1473.65
-696.803
-1491.12
-709.112
-1489.42
-731.351
-1467.88
-759.076
-1428.59
-785.723
-1373.76
-806.488
-1309.18
-821.998
-1263.1
-818.128
-1266.43
-707.414
-1135.7
-435.482
-345.031
-246.529
745.022
-196.294
1381.57
-180.812
1686.21
-177.76
1972.82
-175.762
2250.43
-168.28
2533.67
-157.89
2818.44
-147.35
3085.71
-135.654
3325.4
-121.571
3533.17
-104.804
3708.85
-85.1351
3853.39
-62.6532
3958.62
-40.5359
3979.64
-20.4939
3927.94
-3.75331
3808.96
8.69327
3639.06
18.5952
3480.96
26.9367
3321.93
34.845
3148.43
43.3082
2951.75
53.0566
2720.4
64.6486
2466.78
77.6696
2160.13
91.4221
1859.12
103.513
1442.43
114.463
1093.22
107.591
390.671
92.621
-441.102
67.4532
-942.743
38.3809
-1486.61
24.515
-1771.41
9.8269
-2112.57
2236.24
-237.258
-657.682
-238.525
-727.581
-240.982
-756.228
-243.956
-794.848
-247.689
-826.21
-251.906
-858.715
-256.606
-888.499
-261.728
-917.638
-267.305
-944.872
-273.441
-970.912
-280.569
-995.66
-290.391
-1017.92
-307.477
-1032.3
-340.298
-1028.45
-398.73
-994.145
-486.563
-925.763
-594.479
-837.703
-702.561
-758.329
-791.802
-713.12
-853.383
-711.527
-888.759
-747.753
-904.225
-809.402
-906.171
-884.467
-899.162
-963.782
-885.977
-1040.77
-868.289
-1110.75
-847.289
-1170.94
-824.05
-1220.82
-799.641
-1262.48
-775.095
-1300.04
-751.474
-1337.69
-730.149
-1377.26
-713.189
-1416.75
-703.446
-1450.87
-703.989
-1473.11
-716.834
-1478.28
-741.492
-1464.76
-774.173
-1435.2
-808.235
-1394.53
-836.05
-1345.95
-853.02
-1292.21
-862.392
-1253.73
-861.156
-1267.67
-777.678
-1219.18
-502.144
-620.566
-260.167
503.045
-183.68
1305.08
-161.972
1664.5
-156.58
1967.43
-158.952
2252.81
-157.882
2532.6
-151.505
2812.06
-143.338
3077.54
-134.133
3316.2
-122.641
3521.67
-108.111
3694.32
-90.215
3835.49
-69.0303
3937.44
-47.6762
3958.28
-27.8678
3908.13
-10.9059
3791.99
2.10901
3626.04
12.8267
3470.25
22.1741
3312.58
31.2369
3139.37
41.0094
2941.98
52.264
2709.14
65.6074
2453.44
80.6207
2145.12
96.4238
1843.32
110.425
1428.43
122.816
1080.83
116.133
397.355
99.6395
-424.609
74.0243
-917.128
42.3172
-1454.91
25.9794
-1755.07
9.75054
-2096.34
2218.91
-243.647
-656.992
-245.02
-726.208
-247.639
-753.609
-250.789
-791.699
-254.724
-822.274
-259.154
-854.285
-264.06
-883.593
-269.364
-912.334
-275.115
-939.122
-281.605
-964.421
-290.007
-987.258
-303.912
-1004.02
-331.025
-1005.19
-382.206
-977.267
-464.767
-911.584
-573.175
-817.355
-687.887
-722.99
-786.535
-659.682
-856.522
-643.133
-897.697
-670.352
-916.721
-728.728
-920.967
-805.156
-915.732
-889.702
-904.074
-975.441
-887.585
-1057.26
-867.203
-1131.14
-843.743
-1194.4
-818.183
-1246.38
-791.731
-1288.93
-765.802
-1325.97
-742.092
-1361.4
-722.836
-1396.51
-711.014
-1428.57
-710.002
-1451.88
-722.403
-1460.71
-748.437
-1452.24
-784.858
-1428.34
-825.262
-1394.8
-861.697
-1358.09
-886.82
-1320.82
-897.067
-1281.96
-897.556
-1253.24
-894.332
-1270.89
-836.212
-1277.3
-582.783
-873.994
-290.378
210.64
-173.318
1188.02
-144.765
1635.95
-134.831
1957.5
-138.814
2256.79
-144.37
2538.15
-143.743
2811.43
-138.732
3072.53
-132.057
3309.52
-123.316
3512.93
-111.272
3682.27
-95.3741
3819.59
-75.7017
3917.76
-55.2884
3937.87
-35.8367
3888.68
-18.7246
3774.88
-5.15959
3612.48
6.39548
3458.69
16.8006
3302.18
27.09
3129.08
38.2596
2930.81
51.1212
2696.28
66.3382
2438.22
83.481
2127.97
101.476
1825.33
117.512
1412.39
131.453
1066.89
125.189
403.619
107.251
-406.67
81.157
-891.034
46.8934
-1420.64
27.5166
-1735.7
9.74823
-2078.57
2195.17
-250.184
-656.148
-251.672
-724.72
-254.471
-750.81
-257.813
-788.357
-261.967
-818.12
-266.621
-849.631
-271.732
-878.482
-277.21
-906.856
-283.197
-933.134
-290.494
-957.124
-301.777
-975.975
-323.632
-982.161
-367.085
-961.736
-442.501
-901.852
-549.029
-805.056
-669.074
-697.31
-777.416
-614.649
-856.883
-580.215
-904.793
-595.223
-927.875
-647.27
-934.636
-721.967
-931.352
-808.44
-921.548
-899.505
-906.865
-990.124
-888.011
-1076.11
-865.449
-1153.7
-839.804
-1220.04
-812.102
-1274.08
-783.862
-1317.17
-757.118
-1352.71
-734.511
-1384.01
-719.391
-1411.63
-715.586
-1432.37
-726.355
-1441.12
-752.676
-1434.38
-791.84
-1413.08
-837.497
-1382.69
-881.399
-1350.89
-915.741
-1323.75
-934.768
-1301.8
-936.388
-1280.34
-926.374
-1263.25
-916.496
-1280.77
-878.482
-1315.31
-678.146
-1074.33
-348.254
-119.252
-167.288
1007.06
-128.704
1597.37
-114.029
1942.82
-116.447
2259.21
-127.273
2548.98
-133.762
2817.92
-133.302
3072.07
-129.441
3305.66
-123.525
3507.02
-114.211
3672.96
-100.549
3805.93
-82.6095
3899.82
-63.3308
3918.59
-44.3775
3869.72
-27.2031
3757.71
-13.119
3598.39
-0.711823
3446.28
10.795
3290.67
22.376
3117.5
35.0255
2918.16
49.5924
2681.71
66.8075
2421.01
86.2215
2108.56
106.556
1804.99
124.754
1394.19
140.351
1051.29
134.721
409.248
115.4
-387.349
88.8081
-864.442
52.1154
-1383.95
29.1064
-1712.69
9.75831
-2059.23
2171.57
-256.88
-655.134
-258.493
-723.106
-261.488
-747.815
-265.04
-784.806
-269.428
-813.731
-274.314
-844.746
-279.624
-873.173
-285.296
-901.184
-291.779
-926.652
-300.999
-947.904
-318.265
-958.708
-353.978
-946.447
-420.697
-895.017
-522.684
-799.865
-646.086
-681.653
-763.976
-579.421
-854.001
-524.624
-909.759
-524.457
-937.485
-567.497
-946.917
-637.838
-945.584
-723.3
-937.692
-816.332
-925.077
-912.121
-908.331
-1006.87
-887.599
-1096.84
-863.082
-1178.22
-835.361
-1247.76
-805.656
-1303.78
-776.014
-1346.82
-749.412
-1379.31
-729.78
-1403.64
-721.691
-1419.72
-729.32
-1424.74
-754.6
-1415.84
-795.467
-1393.52
-845.592
-1362.95
-896.127
-1332.15
-938.507
-1308.51
-966.577
-1295.68
-976.974
-1291.4
-969.032
-1288.28
-947.932
-1284.35
-927.398
-1301.3
-898.868
-1343.84
-755.494
-1217.7
-417.875
-456.871
-169.463
758.646
-112.566
1540.47
-94.9598
1925.22
-93.4445
2257.69
-106.836
2562.37
-120.702
2831.79
-126.514
3077.88
-126.243
3305.39
-123.235
3504.01
-116.846
3666.57
-105.679
3794.76
-89.6962
3883.84
-71.7572
3900.65
-53.4629
3851.43
-36.3305
3740.58
-21.7734
3583.84
-8.50722
3433.02
4.14231
3278.02
17.0705
3104.57
31.2759
2903.95
47.644
2665.35
66.9834
2401.67
88.8167
2086.73
111.647
1782.16
132.133
1373.71
149.489
1033.94
144.689
414.048
124.04
-366.701
96.9292
-837.331
57.9827
-1345
31.0854
-1685.79
9.98124
-2038.12
2141.71
-263.745
-653.93
-265.492
-721.359
-268.703
-744.605
-272.48
-781.028
-277.117
-809.095
-282.237
-839.625
-287.751
-867.658
-293.752
-895.183
-301.453
-918.951
-314.935
-934.422
-343.36
-930.284
-400.333
-889.474
-495.049
-800.302
-619.121
-675.793
-745.774
-555
-847.342
-477.853
-912.293
-459.672
-945.445
-491.305
-957.728
-555.214
-958.236
-637.329
-952.121
-729.416
-941.553
-826.9
-927.123
-926.55
-908.775
-1025.22
-886.337
-1119.28
-859.898
-1204.65
-830.12
-1277.54
-798.604
-1335.3
-768.232
-1377.19
-743.347
-1404.2
-729.465
-1417.53
-732.11
-1417.08
-754.632
-1402.22
-795.919
-1374.55
-849.725
-1339.71
-906.446
-1306.23
-956.349
-1282.25
-992.33
-1272.53
-1010.86
-1277.15
-1011
-1291.26
-993.142
-1306.14
-961.076
-1316.42
-927.225
-1335.15
-896.363
-1374.71
-794.331
-1319.74
-482.918
-768.283
-183.885
459.612
-96.2335
1452.82
-77.3046
1906.29
-71.3863
2251.77
-84.0896
2575.07
-104.065
2851.76
-117.567
3091.38
-122.248
3310.07
-122.431
3504.19
-119.096
3663.23
-110.694
3786.36
-96.907
3870.05
-80.5186
3884.26
-63.061
3833.97
-46.092
3723.61
-31.1223
3568.87
-17.0003
3418.89
-3.17306
3264.19
11.1521
3090.24
26.9829
2888.12
45.243
2647.09
66.8346
2380.08
91.2423
2062.32
116.733
1756.67
139.639
1350.8
158.842
1014.73
155.051
417.839
133.131
-344.781
105.461
-809.661
64.4774
-1304.02
33.6439
-1654.96
10.5172
-2014.99
2112.45
-270.791
-652.517
-272.681
-719.469
-276.125
-741.161
-280.146
-777.006
-285.04
-804.201
-290.4
-834.265
-296.184
-861.874
-302.952
-888.415
-313.527
-908.376
-335.512
-912.437
-382.356
-883.44
-467.286
-804.544
-588.698
-678.89
-722.458
-542.032
-836.264
-441.195
-911.999
-402.117
-951.669
-420.002
-967.112
-475.863
-969.315
-553.011
-964.708
-641.937
-955.974
-738.15
-943.786
-839.087
-927.984
-942.352
-908.158
-1045.04
-883.984
-1143.45
-855.542
-1233.1
-823.715
-1309.37
-790.752
-1368.26
-760.821
-1407.12
-740.112
-1424.91
-735.784
-1421.85
-753.331
-1399.53
-793.309
-1362.24
-849.834
-1318.02
-912.386
-1277.16
-969.738
-1248.88
-1013.41
-1238.58
-1039.08
-1246.87
-1045.93
-1270.3
-1034.87
-1302.32
-1006.86
-1334.15
-964.197
-1359.08
-916.262
-1383.09
-874.159
-1416.81
-797.126
-1396.77
-543.37
-1022.04
-214.379
130.622
-82.3841
1320.82
-59.8945
1883.8
-51.2571
2243.14
-60.6166
2584.43
-84.0459
2875.19
-105.625
3112.96
-116.97
3321.42
-121.064
3508.28
-120.897
3663.07
-115.513
3780.98
-104.187
3858.73
-89.5647
3869.64
-73.1361
3817.54
-56.4695
3706.94
-41.1609
3553.56
-26.1986
3403.93
-11.1633
3249.16
4.60611
3074.47
22.1209
2870.61
42.3571
2626.85
66.3308
2356.1
93.4761
2035.17
121.8
1728.35
147.264
1325.34
168.392
993.606
165.774
420.457
142.649
-321.657
114.331
-781.342
71.5501
-1261.24
36.8248
-1620.23
11.6855
-1989.86
2087.94
-278.032
-650.874
-280.071
-717.43
-283.768
-737.464
-288.048
-772.726
-293.207
-799.043
-298.842
-828.629