/*--------------------------------*- C++ -*----------------------------------*\
| =========                 |                                                 |
| \\      /  F ield         | OpenFOAM: The Open Source CFD Toolbox           |
|  \\    /   O peration     | Version:  4.1                                   |
|   \\  /    A nd           | Web:      www.OpenFOAM.org                      |
|    \\/     M anipulation  |                                                 |
\*---------------------------------------------------------------------------*/
FoamFile
{
    version     2.0;
    format      ascii;
    class       surfaceScalarField;
    location    "15";
    object      phi;
}
// * * * * * * * * * * * * * * * * * * * * * * * * * * * * * * * * * * * * * //

dimensions      [0 3 -1 0 0 0 0];

internalField   nonuniform List<scalar> 
13220
(
-906.841
2206.74
-1504.66
1898.02
-1985.11
1780.36
-2354.92
1669.71
-2630.25
1575.53
-2818.68
1488.33
-2923.48
1404.7
-2944.45
1321.17
-2880.27
1235.72
-2727.82
1147.45
-2482.44
1054.82
-2127.43
944.894
-1626.87
799.341
-956.008
629.343
343.892
423.569
1783.18
466.666
1854.93
450.482
1796.55
411.045
1709.16
378.606
1607.98
352.492
1514.46
333.235
1423.97
321.534
1332.88
314.105
1243.16
304.792
1156.78
285.448
1074.17
242.339
988.017
165.844
875.852
88.5387
706.664
432.431
181.138
1602.05
20.9989
2015.08
-139.987
1957.55
-258.574
1827.76
-362.816
1712.23
-459.843
1611.5
-546.916
1511.05
-624.434
1410.41
-690.577
1309.31
-742.895
1209.11
-777.103
1108.39
-774.477
985.416
-684.626
786.032
-432.703
454.781
-0.271754
215.881
1386.18
135.944
2095.02
1.92805
2091.57
-93.4582
1923.16
-169.565
1788.35
-229.587
1671.53
-269.458
1550.94
-289.387
1430.36
-291.365
1311.3
-275.88
1193.64
-241.708
1074.23
-184.081
927.803
-101.145
703.115
-9.77487
363.436
-10.0462
282.49
1103.7
349.006
2028.51
326.082
2114.5
305.6
1943.65
296.171
1797.79
292.631
1675.08
292.689
1550.89
296.654
1426.4
303.317
1304.65
310.746
1186.22
318.315
1066.67
320.31
925.831
297.036
726.414
215.913
444.587
205.867
248.871
854.832
359.245
1918.15
370.21
2103.54
350.926
1962.94
335.814
1812.91
324.845
1686.05
313.464
1562.27
299.395
1440.47
283.532
1320.51
265.868
1203.88
245.016
1087.52
219.068
951.759
177.764
767.697
109.099
513.23
314.966
131.281
723.556
214.49
1834.94
239.236
2078.8
216.869
1985.31
193.476
1836.3
173.748
1705.78
155.144
1580.88
137.019
1458.59
119.092
1338.44
102.751
1220.22
88.0429
1102.23
75.3217
964.504
61.3219
781.72
44.5843
529.989
359.55
36.4028
687.154
86.5599
1784.79
126.587
2038.77
116.427
1995.47
101.091
1851.64
89.2392
1717.63
77.4402
1592.67
66.5877
1469.45
57.0151
1348.01
47.8235
1229.41
39.9622
1110.09
36.1811
968.253
32.8129
785.056
28.5171
534.255
388.068
13.3183
673.836
52.4029
1745.7
96.8622
1994.31
96.9162
1995.41
87.404
1861.15
79.4352
1725.6
72.1286
1599.98
64.2375
1477.34
56.8654
1355.38
49.8698
1236.41
42.5664
1117.39
39.8487
971.001
38.0288
786.903
29.1966
543.112
417.264
31.1552
642.676
75.5669
1701.29
114.691
1955.19
115.868
1994.23
105.946
1871.07
95.0942
1736.45
85.2923
1609.78
76.1763
1486.45
66.5687
1364.98
57.5312
1245.44
49.1334
1125.78
45.0175
975.08
41.9606
789.925
29.7276
555.312
446.991
47.3322
595.332
95.3026
1653.31
128.404
1922.08
128.971
1993.66
117.57
1882.46
105.237
1748.77
92.8088
1622.2
81.2707
1497.98
70.2562
1375.99
59.1636
1256.52
49.4098
1135.52
45.594
978.899
42.0556
793.46
27.6276
569.736
474.619
33.5534
561.764
68.6199
1618.23
90.347
1900.34
85.6311
1998.36
70.3895
1897.69
55.1617
1763.99
42.8773
1634.46
31.5241
1509.31
21.995
1385.5
14.595
1263.9
8.61574
1141.49
11.2417
976.233
17.0334
787.629
15.5244
571.209
490.143
1.74919
560.001
31.198
1588.77
51.5264
1880
57.8153
1992.06
53.2271
1902.26
41.2614
1775.94
27.2822
1648.43
14.3431
1522.24
1.39297
1398.44
-8.86939
1274.15
-11.1463
1143.76
-2.69677
967.774
8.09761
776.823
-2.96289
582.259
487.18
-179.799
739.791
-289.69
1698.66
-356.614
1946.92
-415.149
2050.59
-443.787
1930.9
-457.421
1789.57
-457.652
1648.66
-450.755
1515.34
-433.748
1381.43
-407.453
1247.85
-345.506
1081.81
-260.712
882.976
-166.355
682.462
-93.0617
508.962
394.119
-117.081
27.614
70.9187
70.1829
-41.3575
-174.212
-306.909
-407.918
-478.198
-482.644
-466.443
-401.833
-319.31
-203.306
0.000584235
335.192
-335.19
335.193
335.194
335.194
658.853
-323.658
658.854
658.855
658.855
950.682
-291.826
950.683
950.683
1208.52
-257.837
1208.52
1208.52
1208.52
1425.26
-216.735
1425.26
1425.26
1606.24
-180.979
1606.24
1606.24
1606.24
1744.77
-138.525
1744.77
1744.77
1744.77
1838.6
-93.8369
1838.61
1838.61
1898.78
-60.1698
1898.78
1898.78
1898.78
1910.95
-12.1767
1910.96
1910.96
1884.04
26.9172
1884.04
1884.04
1884.04
1809.72
74.3226
1809.72
1809.72
1809.72
1688.93
120.786
1688.94
1688.94
1532.92
156.015
1532.92
1532.92
1532.92
1332.69
200.236
1332.69
1332.69
1332.69
1092.28
240.412
1092.28
1092.28
819.717
272.564
819.718
819.719
819.719
521.783
297.938
521.784
521.785
209.831
311.955
209.833
209.834
209.836
-135.767
345.605
-135.765
-135.764
-135.761
-669.815
534.054
-669.812
-669.814
-1443.07
773.261
-1443.08
-1443.07
-1417.23
-1380.04
-1350.07
-2568.14
1250.99
-2515.12
-2454.99
-2384.99
-2313.46
-2240.9
-2163.88
-2071.38
-1968.26
-3688.39
1825.57
-3565.06
-3446.18
-3326.32
-3180.33
-3032.48
-2880.99
-2721.7
-2561.86
-4835.68
2452.67
-4634.13
-4433.54
-4232.06
-4029.17
-3817.04
-3589.69
-3359.1
-3120.54
-2879.69
-5639.33
3000.15
-5370.83
-5101.02
-4828.77
-4555.22
-4281.16
-3993.73
-3692.2
-3385.35
-6464.49
3379.31
-6156.08
-5839.76
-5510.19
-5176.89
-4842.52
-4508.08
-4166.14
-3799.74
-6905.17
3458.32
-6546.87
-6185.53
-5822.97
-5444.68
-5059.7
-4676.15
-4290.3
-3898.76
-6338.98
2812.54
-5959.9
-5573.97
-5187.65
-4801.67
-4417.4
-4041.41
-3671.64
-3310.31
-2946.85
-3649.44
1035.03
-3342.59
-3037.63
-2740.37
-2447.78
-2162.12
-1918.64
-1753.29
-1577.53
-854.537
-560.521
-712.854
-573.941
-573.94
-113.927
-460.013
183.703
-297.628
183.704
332.301
-148.596
332.303
383.404
-51.1002
363.495
19.9102
363.495
321.441
42.056
280.291
41.15
280.292
226.49
53.8006
226.491
165.882
60.6076
77.9766
87.9065
77.9749
-45.9662
123.942
-45.9682
-207.306
161.338
-385.372
178.064
-385.372
-592.953
207.579
-802.58
209.627
-802.581
-1028.22
225.639
-1028.22
-1270.53
242.305
-1496.37
225.845
-1496.37
-1729.75
233.379
-1729.75
-1970.9
241.15
-2180.86
209.951
-2180.86
-2402.21
221.35
-2584.74
182.533
-2584.74
-2763.48
178.74
-2763.48
-2939.79
176.31
-3068.98
129.191
-3068.99
-3188.27
119.28
-3188.27
-3300.47
112.207
-3364.98
64.5059
-3364.98
-3427.79
62.8091
-3443.03
15.2431
-3443.03
-3441.59
-1.43939
-3441.59
-3427.39
-14.2031
-3367.03
-60.3569
-3367.03
-3283.45
-83.5886
-3283.45
-3178.59
-104.856
-3033.06
-145.529
-3033.06
-2861.28
-171.78
-2651.9
-209.379
-2651.9
-2405.47
-246.427
-2405.47
-2120.77
-284.708
-1806.18
-314.586
-1806.18
-1444.05
-362.13
-1444.05
-1027.59
-416.465
-588.322
-439.265
-588.322
-51.3038
-537.018
571.21
-622.513
571.21
1215.88
-644.668
1215.88
-670.772
-1936.36
873.6
-1940.35
767.065
-1945.29
719.61
-1951.27
660.13
-1958.45
603.424
-1967.02
549.733
-1976.87
500.941
-1987.55
458.2
-1998.22
422.522
-2007.71
394.57
-2014.71
374.511
-2017.95
362.461
-2016.26
358.281
-2008.47
361.652
-1993.1
371.601
-1968.04
386.219
-1930.08
402.198
-1874.51
414.789
-1794.3
417.783
-1678.88
401.353
-1511.57
349.352
-1266.26
235.17
-911.55
25.9634
-494.745
-217.089
-243.024
-154.08
-289.546
96.2159
-409.488
187.081
-425.357
82.0261
-418.459
165.685
-411.7
141.513
-415.444
215.909
-430.059
286.778
-454.768
359.686
-489.423
431.998
-531.167
526.964
-574.391
690.964
-615.784
904.688
-656.146
1138.13
-702.692
1390.79
-763.363
1693.75
-844.399
2068.84
-957.27
2514.09
-1117.76
3023.97
-1332.64
3602.06
-1587.39
4316.55
-1849.6
5264.49
-2083.7
6419.89
-2257.73
7583.01
-2346.85
8454.03
-2345.36
8707.09
-2302.48
8046.66
-2371.76
6685.66
-2681.23
6001.57
-3100.83
6690.48
-3402.07
7331.83
-3501.91
6991.77
-3412.06
5889.59
-3155.61
4524.95
-2795.85
3067.81
-2446.52
1711.44
-2174.55
521.526
-1957.26
-612.664
-1558.47
-1042.05
-954.092
-1174.96
-323.691
-733.018
36.165
368.596
83.6464
799.097
95.4868
654.336
106.603
780.708
103.819
937.539
90.598
947.561
74.0294
782.708
67.5706
538.253
11.1305
-133.634
-49.8441
-756.182
106.039
-858.339
418.811
2922.39
615.641
5867.35
5147.7
-1938.92
863.737
-1946.17
774.324
-1953.5
726.937
-1961.6
668.227
-1970.49
612.314
-1979.71
558.952
-1988.25
509.48
-1994.74
464.692
-1997.63
425.412
-1995.43
392.376
-1986.87
365.944
-1970.88
346.476
-1946.39
333.787
-1911.92
327.182
-1865.14
324.818
-1802.43
323.509
-1718.51
318.28
-1606.05
302.333
-1455.52
267.253
-1255.27
201.1
-994.781
88.8634
-681.338
-78.2724
-412.095
-243.28
-347.452
-281.733
-416.217
-85.3139
-448.632
128.63
-430.921
169.37
-430.896
82.0016
-417.351
152.14
-428.515
152.677
-438.373
225.767
-453.92
302.325
-475.667
381.433
-506.405
462.735
-548.502
569.061
-592.619
735.081
-633.108
945.177
-673.43
1178.45
-722.995
1440.36
-788.763
1759.52
-875.319
2155.39
-991.637
2630.4
-1149.67
3182
-1360.15
3812.55
-1618.69
4575.09
-1894.31
5540.11
-2141.07
6666.65
-2317.53
7759.47
-2394.3
8530.8
-2359.13
8671.92
-2275.98
7963.51
-2370.28
6779.96
-2774.26
6405.55
-3216.11
7132.32
-3451.13
7566.85
-3455.64
6996.28
-3285.6
5719.55
-3024.58
4263.93
-2837.32
2880.56
-2804.29
1678.42
-2758.87
476.103
-2650.27
-721.269
-2288.29
-1404.03
-1686.64
-1776.61
-854.551
-1565.1
-49.2218
-436.733
203.615
546.26
135.599
722.352
94.6421
821.665
98.3779
933.803
95.1068
950.831
84.352
793.462
72.7284
549.875
10.1607
-71.0692
-29.3827
-716.64
78.2518
-965.975
398.067
2602.57
604.394
5661.02
5107.43
-1946.32
857.97
-1955.05
783.057
-1962.96
734.846
-1970.35
675.616
-1976.51
618.473
-1979.98
562.422
-1978.85
508.357
-1971.1
456.94
-1954.89
409.203
-1928.87
366.351
-1892.06
329.14
-1843.74
298.152
-1782.91
272.964
-1707.87
252.133
-1615.66
232.615
-1502.06
209.907
-1361.77
177.992
-1189.39
129.949
-982.09
59.9551
-745.837
-35.1526
-513.398
-143.575
-365.815
-225.855
-361.548
-247.547
-448.285
-194.996
-497.051
-36.5474
-470.446
102.025
-435.569
134.492
-439.548
85.9806
-436.611
149.204
-452.094
168.16
-465.645
239.318
-482.529
319.209
-504.295
403.199
-534.37
492.81
-573.754
608.445
-614.407
775.734
-652.878
983.647
-694.373
1219.95
-747.722
1493.71
-819.154
1830.95
-913.586
2249.82
-1039.42
2756.24
-1206.1
3348.68
-1421.41
4027.85
-1679.5
4833.18
-1950.22
5810.83
-2188.51
6904.94
-2352.31
7923.27
-2410.98
8589.46
-2359.36
8620.3
-2292.72
7896.86
-2453.05
6940.29
-2900.04
6852.54
-3309.44
7541.72
-3460.29
7717.71
-3371.7
6907.69
-3172.69
5520.54
-3033.4
4124.64
-3065.89
2913.05
-3158.86
1771.39
-3133.82
451.067
-3029.53
-825.561
-2736.76
-1696.8
-2230.13
-2283.24
-1461.77
-2333.46
-394.157
-1504.34
187.279
-35.1767
164.579
745.052
119.288
866.956
94.3419
958.749
92.5658
952.607
83.9352
802.093
71.339
562.471
3.73765
-3.46467
-6.57764
-706.324
77.1585
-1049.71
371.66
2308.07
574.887
5457.8
5059.8
-1952.11
856.528
-1960.76
791.708
-1965.47
739.551
-1966.85
676.997
-1963.03
614.654
-1951.62
551.014
-1930.11
486.843
-1896.3
423.13
-1848.72
361.627
-1786.83
304.453
-1710.61
252.921
-1620.3
207.842
-1515.83
168.495
-1396.22
132.529
-1259.64
96.0325
-1104.26
54.5297
-930.304
4.03158
-743.791
-56.564
-564.259
-119.577
-429.618
-169.794
-375.2
-197.993
-397.827
-203.229
-456.683
-188.691
-501.076
-150.604
-496.264
-41.3587
-464.593
70.3536
-444.352
114.251
-458.326
99.9554
-464.597
155.474
-481.026
184.588
-495.18
253.472
-512.099
336.128
-533.708
424.808
-562.812
521.913
-599.017
644.65
-636.334
813.051
-673.773
1021.09
-717.498
1263.68
-775.375
1551.58
-853.042
1908.62
-955.975
2352.76
-1091.68
2891.94
-1267.29
3524.3
-1487.45
4248.01
-1744.04
5089.77
-2007.04
6073.84
-2232.57
7130.47
-2378.96
8069.66
-2416.94
8627.45
-2356.55
8559.9
-2327.24
7867.55
-2559.87
7172.93
-3023.17
7315.84
-3369.67
7888.22
-3429.59
7777.62
-3292.3
6770.4
-3163.19
5391.43
-3195.11
4156.56
-3346.12
3064.06
-3443.21
1868.47
-3425.52
433.379
-3341.96
-909.124
-3103.34
-1935.43
-2681.09
-2705.49
-2023.29
-2991.26
-1057.48
-2470.16
-86.6419
-1006.01
239.565
418.844
159.856
946.664
91.0062
1027.6
88.1757
955.437
81.6703
808.597
65.3326
578.808
-6.03715
67.903
-9.97238
-702.39
61.8332
-1121.52
340.796
2029.11
535.819
5262.77
5058.6
-1952.13
855.096
-1956.59
796.17
-1952.08
735.04
-1939.57
664.492
-1915.99
591.072
-1878.33
513.352
-1823.98
432.494
-1751.39
350.546
-1660.52
270.754
-1552.91
196.845
-1431.11
131.114
-1298.15
74.8882
-1156.79
27.1376
-1009.24
-15.0242
-858.273
-54.9361
-709.925
-93.8177
-577.82
-128.074
-478.985
-155.399
-426.471
-172.092
-420.274
-175.99
-446.486
-171.781
-481.892
-167.823
-504.334
-166.249
-508.434
-146.504
-496.092
-53.7008
-481.383
55.6448
-475.015
107.882
-487.822
112.762
-494.85
162.503
-509.88
199.618
-524.457
268.049
-541.355
353.025
-562.519
445.972
-590.106
549.5
-623.36
677.904
-658.23
847.921
-695.911
1058.77
-742.638
1310.4
-805.59
1614.53
-889.995
1993.03
-1001.67
2464.43
-1146.92
3037.2
-1330.73
3708.11
-1554.62
4471.89
-1808.25
5343.39
-2061.32
6326.91
-2271.19
7340.34
-2397.19
8195.66
-2415.06
8645.32
-2356.69
8501.53
-2379.97
7890.83
-2676.5
7469.46
-3126.29
7765.63
-3393.12
8155.05
-3383.53
7768.03
-3265.64
6652.51
-3260.49
5386.28
-3410.48
4306.55
-3572.59
3226.18
-3635.16
1931.04
-3623.87
422.084
-3560.66
-972.328
-3372.21
-2123.87
-3025.58
-3052.12
-2463.81
-3553.02
-1602.5
-3331.48
-447.78
-2160.73
171.649
-200.584
176.05
942.262
116.351
1087.3
85.3812
986.406
77.0313
816.947
60.1216
595.718
-11.4966
139.524
-17.307
-696.579
38.5882
-1177.41
308.453
1759.24
493.409
5077.82
5112.75
-1940.41
847.987
-1934.1
789.863
-1911.98
712.924
-1875.25
627.764
-1819.93
535.743
-1743.02
436.442
-1642.9
332.38
-1520.37
228.019
-1379.23
129.614
-1226.33
43.9364
-1070.25
-24.9617
-920.104
-75.2576
-784.112
-108.855
-669.659
-129.476
-579.598
-144.998
-515.128
-158.287
-477.757
-165.445
-466.698
-166.458
-476.624
-162.166
-496.1
-156.514
-512.888
-154.994
-520.407
-160.304
-521.511
-165.145
-523.779
-144.235
-522.384
-55.096
-515.912
49.1721
-511.496
103.466
-519.46
120.727
-525.255
168.298
-538.336
212.699
-553.177
282.889
-570.024
369.873
-590.412
466.36
-616.037
575.125
-646.811
708.678
-680.433
881.543
-719.544
1097.88
-769.949
1360.81
-838.375
1682.96
-930.01
2084.66
-1050.4
2584.82
-1204.67
3191.46
-1395.6
3899.05
-1621.77
4698.06
-1870.71
5592.33
-2111.64
6567.83
-2303.25
7531.95
-2407.07
8299.49
-2408.3
8646.55
-2364.6
8457.83
-2448.9
7975.14
-2791.31
7811.87
-3202.09
8176.4
-3390.32
8343.28
-3352.64
7730.35
-3307.24
6607.11
-3413.74
5492.79
-3599.41
4492.21
-3720.58
3347.34
-3752.25
1962.71
-3748.62
418.459
-3704.89
-1016.06
-3563.35
-2265.41
-3288.45
-3327.03
-2822.01
-4019.46
-2085.3
-4068.18
-1052.4
-3193.63
-87.6474
-1165.34
243.595
611.02
171.593
1159.3
84.6968
1073.3
70.0267
831.617
56.7864
608.957
-11.5869
207.896
-21.8213
-686.346
16.2833
-1215.52
275.973
1499.55
450.286
4903.51
5146.57
-1909.42
829.736
-1883.54
763.973
-1833.37
662.759
-1760.49
554.888
-1660.9
436.147
-1533.25
308.796
-1379.69
178.821
-1207.6
55.9294
-1030.34
-47.6526
-866.225
-120.175
-733.991
-157.195
-640.685
-168.563
-580.367
-169.173
-543.06
-166.784
-521.841
-166.217
-514.214
-165.914
-517.047
-162.613
-526.106
-157.399
-535.999
-152.272
-541.592
-150.921
-541.427
-155.158
-539.569
-162.162
-542.205
-162.509
-550.76
-135.681
-553.793
-52.0629
-548.65
44.0294
-544.345
99.1611
-549.469
125.851
-555.118
173.947
-566.989
224.57
-581.5
297.401
-597.845
386.218
-617.096
485.611
-640.831
598.86
-669.837
737.684
-703.506
915.212
-745.013
1139.38
-799.731
1415.53
-873.972
1757.2
-973.155
2183.84
-1102.1
2713.76
-1264.61
3353.97
-1461.3
4095.74
-1688.11
4924.88
-1930.35
5834.57
-2156.9
6794.39
-2327.96
7703.01
-2409.26
8380.79
-2399.95
8637.24
-2383.19
8441.07
-2529.18
8121.13
-2895.32
8178.01
-3251.59
8532.67
-3378.77
8470.47
-3356.27
7707.84
-3399.52
6650.37
-3566.93
5660.2
-3727.64
4652.92
-3796.95
3416.66
-3806.62
1972.37
-3808.18
420.023
-3782.5
-1041.75
-3683.94
-2363.96
-3475.56
-3535.41
-3097.18
-4397.85
-2469.02
-4696.35
-1531.48
-4131.16
-326.899
-2369.92
251.493
32.6277
191.699
1219.09
93.7902
1171.21
63.9669
861.44
54.2805
618.644
-10.8907
273.069
-26.1334
-671.103
-2.45851
-1239.19
243.648
1253.45
404.399
4742.75
5188.84
-1850.87
794.951
-1794.94
708.042
-1705.54
573.358
-1585.6
434.947
-1433.48
284.03
-1253.69
129.001
-1058.63
-16.2336
-870.963
-131.739
-721.609
-197.007
-628.511
-213.273
-582.668
-203.038
-565.459
-185.772
-561.79
-172.842
-561.857
-166.717
-562.657
-165.418
-564.586
-163.985
-567.371
-159.828
-569.419
-155.35
-568.84
-152.852
-565.412
-154.349
-562.071
-158.499
-562.818
-161.415
-569.629
-155.698
-579.574
-125.736
-582.402
-49.2345
-577.66
39.2874
-574.134
95.6347
-578.262
129.979
-584.447
180.131
-595.578
235.701
-609.249
311.072
-624.622
401.59
-642.649
503.639
-665.053
621.264
-693.257
765.887
-728.132
950.087
-772.773
1184.03
-832.307
1475.06
-912.681
1837.58
-1019.46
2290.62
-1156.63
2850.93
-1326.35
3523.69
-1527.23
4296.62
-1752.88
5150.53
-1986.22
6067.9
-2196.17
7004.34
-2344.93
7851.76
-2405.07
8440.94
-2393.23
8625.39
-2413.34
8461.19
-2614.79
8322.58
-2983.56
8546.78
-3281.9
8831.01
-3374.77
8563.34
-3396.22
7729.29
-3510.25
6764.4
-3683.58
5833.54
-3790.85
4760.18
-3814.85
3440.66
-3808.89
1966.41
-3813.17
424.305
-3803.67
-1051.25
-3743.63
-2424
-3596.83
-3682.21
-3302.88
-4691.8
-2782.22
-5217
-1965.96
-4947.43
-848.785
-3487.1
2.12509
-818.283
219.358
1001.86
137.24
1253.33
65.1173
933.562
50.5
633.261
-10.5355
334.104
-31.769
-649.871
-17.9046
-1253.06
211.748
1023.79
359.952
4594.55
5234.2
-1756.99
737.75
-1660.36
611.41
-1522.95
435.942
-1351.82
263.817
-1153.18
85.3951
-945.952
-78.2272
-763.447
-198.738
-643.106
-252.081
-590.661
-249.451
-582.601
-221.333
-594.287
-191.353
-606.1
-173.958
-610.09
-168.852
-607.469
-169.338
-603.263
-169.623
-600.678
-166.57
-598.855
-161.651
-596.028
-158.177
-591.933
-156.947
-588.222
-158.06
-587.397
-159.324
-590.962
-157.849
-598.52
-148.14
-606.895
-117.361
-608.913
-47.216
-605.256
35.63
-603.151
93.5299
-606.917
133.745
-613.27
186.485
-623.686
246.117
-636.26
323.646
-650.543
415.873
-667.65
520.746
-689.52
643.133
-717.976
794.344
-754.926
987.037
-803.269
1232.37
-867.952
1539.74
-954.672
1924.3
-1068.87
2404.82
-1213.7
2995.76
-1389.45
3699.44
-1592.83
4499.99
-1815.27
5372.98
-2037.46
6290.09
-2228.69
7195.56
-2354.22
7977.3
-2396.39
8483.1
-2390.93
8619.93
-2454.16
8524.41
-2700.16
8568.58
-3055.34
8901.96
-3302.58
9078.25
-3387.37
8648.13
-3460.17
7802.09
-3609.15
6913.38
-3748.6
5972.98
-3797.33
4808.92
-3786.49
3429.81
-3768.86
1948.78
-3774.07
429.519
-3778.16
-1047.16
-3751.28
-2450.88
-3659.73
-3773.76
-3444.56
-4906.97
-3025.84
-5635.71
-2326.97
-5646.29
-1300.9
-4513.17
-184.488
-1934.69
284.17
533.202
197.537
1339.96
72.5632
1058.54
44.8887
660.936
-6.7639
385.759
-35.9167
-620.717
-30.2167
-1258.76
180.724
812.851
315.61
4459.66
5265.1
-1622.84
652.242
-1477.73
466.306
-1291.99
250.195
-1082.43
54.2608
-872.731
-124.305
-706.585
-244.373
-618.479
-286.845
-598.214
-272.345
-614.113
-233.552
-638.588
-196.859
-652.747
-177.194
-652.887
-173.818
-644.367
-177.372
-635.375
-178.33
-630.252
-174.745
-627.785
-169.037
-624.882
-164.555
-620.826
-162.234
-616.867
-160.905
-614.826
-160.101
-615.823
-158.328
-619.892
-153.78
-626.337
-141.695
-633.124
-110.575
-635.198
-45.1418
-633.001
33.433
-632.029
92.5572
-635.494
137.211
-641.564
192.555
-651.177
255.729
-662.726
335.195
-676.179
429.326
-692.876
537.442
-715.035
665.293
-744.698
824.006
-784.309
1026.65
-836.764
1284.82
-906.806
1609.78
-999.966
2017.46
-1121.24
2526.1
-1272.92
3147.44
-1453.36
3879.88
-1657.46
4704.09
-1874.44
5589.96
-2083.27
6498.92
-2253.93
7366.23
-2356.46
8079.82
-2385.43
8512.07
-2395.1
8629.6
-2503.55
8632.86
-2781.18
8846.21
-3113.03
9233.8
-3321.95
9287.17
-3416.8
8742.98
-3529.69
7914.98
-3676.17
7059.86
-3761.46
6058.27
-3758.7
4806.17
-3722.69
3393.8
-3696.38
1922.47
-3701.45
434.585
-3716.07
-1032.54
-3716.33
-2450.62
-3672.48
-3817.61
-3528.91
-5050.55
-3205.75
-5958.87
-2617.87
-6234.17
-1692.57
-5438.48
-441.573
-3185.69
240.299
-148.671
213.021
1367.24
88.1422
1183.42
40.3241
708.754
0.65229
425.43
-36.9227
-583.144
-40.4715
-1255.21
150.898
621.479
269.724
4340.84
5288.4
-1448.31
534.302
-1254.52
272.518
-1036.53
32.1961
-828.867
-153.398
-680.17
-273.001
-619.128
-305.415
-623.031
-282.942
-654.534
-240.842
-683.059
-205.027
-693.125
-186.793
-686.713
-183.607
-674.022
-186.508
-664.342
-187.053
-659.902
-182.77
-657.874
-176.774
-654.977
-171.934
-650.784
-168.748
-646.647
-166.37
-643.768
-163.785
-642.98
-160.889
-644.435
-156.873
-648.008
-150.207
-653.469
-136.234
-659.48
-104.564
-661.936
-42.6855
-660.829
32.326
-660.51
92.2388
-663.728
140.428
-669.382
198.209
-678.302
264.649
-689.112
346.005
-702.138
442.352
-719.05
554.354
-742.196
688.439
-773.816
855.626
-816.501
1069.33
-873.336
1341.66
-948.889
1685.34
-1048.48
2117.05
-1176.36
2653.98
-1333.84
3304.92
-1517.55
4063.58
-1720.45
4906.99
-1929.61
5799.12
-2122.94
6692.26
-2271.72
7515.01
-2352.71
8160.82
-2374.49
8533.84
-2406.79
8661.91
-2558.81
8784.88
-2855.48
9142.88
-3160.46
9538.78
-3344.83
9471.55
-3456.46
8854.61
-3587.39
8045.91
-3702.41
7174.87
-3729.17
6085.03
-3686.44
4763.43
-3633.33
3340.69
-3601.15
1890.3
-3605.46
438.894
-3627.38
-1010.62
-3648.37
-2429.63
-3643.84
-3822.14
-3563.59
-5130.79
-3330.03
-6192.43
-2853.06
-6711.14
-2050.75
-6240.79
-920.251
-4316.18
-11.437
-1057.48
232.515
1123.29
133.403
1282.53
44.9799
797.178
8.75417
461.658
-33.5589
-540.83
-48.4562
-1240.31
122.356
450.667
228.229
4234.97
5307.25
-1241.95
384.748
-1014.38
44.9543
-806.567
-175.619
-672.768
-287.197
-630.974
-314.795
-650.754
-285.635
-690.778
-242.917
-719.904
-211.716
-726.348
-198.583
-715.614
-197.527
-700.903
-198.317
-692.017
-195.395
-689.62
-189.45
-688.634
-183.756
-685.657
-179.751
-681.086
-176.505
-676.668
-173.166
-673.345
-169.694
-671.419
-165.71
-671.135
-161.173
-672.46
-155.548
-675.559
-147.108
-680.517
-131.276
-686.146
-98.9357
-688.916
-39.9158
-688.543
31.9532
-688.592
92.2882
-691.705
143.541
-697.039
203.543
-705.379
272.989
-715.855
356.481
-728.967
455.464
-746.675
572.062
-771.393
713.157
-805.512
889.746
-851.604
1115.42
-912.996
1403.05
-994.168
1766.51
-1100.03
2222.91
-1233.91
2787.85
-1396
3467.01
-1581.39
4248.97
-1781.06
5106.66
-1980.1
5998.16
-2155.94
6868.1
-2282.25
7641.31
-2344.4
8222.97
-2365.6
8555.04
-2426.11
8722.41
-2617.18
8975.96
-2922.29
9447.99
-3201.33
9817.82
-3371.91
9642.12
-3496.42
8979.12
-3620.94
8170.43
-3687.59
7241.52
-3661.58
6059.02
-3590.9
4692.75
-3527.45
3277.24
-3492.18
1855.03
-3495.41
442.123
-3521.45
-984.583
-3556.7
-2394.38
-3582.44
-3796.4
-3555.68
-5157.56
-3403.18
-6344.92
-3031.01
-7083.32
-2346.32
-6925.48
-1305.95
-5356.55
-180.851
-2182.58
294.742
647.693
205.381
1371.89
62.3446
940.213
16.8344
507.167
-25.1547
-498.842
-54.0141
-1211.45
95.1499
301.502
186.994
4143.12
5322.46
-1026.52
213.5
-804.421
-177.147
-676.045
-303.995
-646.861
-316.381
-674.541
-287.116
-717.964
-242.212
-746.987
-213.894
-752.827
-205.877
-742.042
-209.368
-728.425
-211.144
-720.759
-205.983
-719.098
-197.056
-718.535
-190.013
-715.869
-186.422
-711.39
-184.23
-706.815
-181.08
-703.128
-176.853
-700.6
-172.222
-699.186
-167.124
-698.945
-161.415
-700.053
-154.439
-702.916
-144.245
-707.612
-126.58
-712.96
-93.5879
-715.97
-36.9053
-716.161
32.1444
-716.558
92.6847
-719.632
146.615
-724.795
208.707
-732.814
281.008
-743.384
367.051
-757.106
469.186
-776.135
591.091
-802.913
739.935
-839.885
926.718
-889.672
1165.21
-955.752
1469.13
-1042.56
1853.32
-1154.38
2334.73
-1293.54
2927.01
-1458.88
3632.35
-1644.27
4434.36
-1838.61
5301.01
-2025.31
6184.85
-2181.95
7024.74
-2286.04
7745.41
-2333.1
8270.03
-2360.37
8582.31
-2452.38
8814.42
-2676.28
9199.86
-2981.89
9753.6
-3238.14
10074.1
-3400.45
9804.43
-3526.77
9105.44
-3624.06
8267.73
-3636.71
7254.17
-3568.77
5991.08
-3481.08
4605.06
-3413.1
3209.25
-3377.33
1819.27
-3379.36
444.147
-3406.65
-957.293
-3450.03
-2350.99
-3496.9
-3749.54
-3512.83
-5141.62
-3431.34
-6426.41
-3156.83
-7357.83
-2584.59
-7497.73
-1642.05
-6299.09
-380.025
-3444.61
292.984
-25.3147
243.744
1421.13
89.9455
1094.01
29.4097
567.705
-9.97804
-459.453
-57.1863
-1164.24
69.5419
174.774
145.199
4067.47
5322.13
-843.729
43.2319
-691.528
-329.348
-665.713
-329.81
-698.579
-283.516
-743.222
-242.473
-770.769
-214.664
-775.049
-209.614
-765.041
-215.885
-754.285
-220.124
-749.287
-216.142
-748.762
-206.509
-748.224
-197.593
-745.48
-192.757
-741.103
-190.8
-736.728
-188.604
-733.158
-184.649
-730.361
-179.651
-728.282
-174.301
-726.947
-168.458
-726.616
-161.746
-727.671
-153.384
-730.44
-141.476
-734.885
-122.135
-739.963
-88.51
-743.163
-33.7059
-743.824
32.8051
-744.552
93.4135
-747.721
149.783
-753.061
214.047
-761.116
289.062
-772.149
378.084
-786.979
484.016
-807.77
611.881
-836.981
769.146
-877.063
966.8
-930.755
1218.9
-1001.61
1539.98
-1093.91
1945.62
-1211.21
2452.02
-1354.78
3070.59
-1522
3799.57
-1705.55
4617.91
-1892.44
5487.89
-2064.7
6357.11
-2200.87
7160.91
-2283.91
7828.45
-2320.39
8306.52
-2359.79
8621.71
-2484.45
8939.08
-2734.32
9449.73
-3035.02
10054.3
-3271.69
10310.7
-3425.72
9958.47
-3539.73
9219.45
-3595.74
8323.74
-3557.28
7215.71
-3459.97
5893.77
-3364.6
4509.69
-3296.99
3141.64
-3262.95
1785.22
-3263.78
444.98
-3289.94
-931.128
-3336.03
-2304.91
-3395.37
-3690.2
-3442.9
-5094.08
-3421.21
-6448.1
-3236.69
-7542.35
-2775.98
-7958.44
-1951.12
-7123.95
-793.31
-4602.42
70.1972
-888.822
253.162
1238.16
136.422
1210.75
57.0826
647.044
12.8658
-415.238
-57.8058
-1093.57
46.0555
70.911
107.347
4006.17
5324.62
-748.109
-90.553
-684.842
-392.616
-724.173
-290.478
-768.847
-238.842
-794.121
-217.199
-796.377
-212.408
-786.238
-219.753
-777.558
-224.565
-775.402
-222.28
-777.078
-214.465
-777.55
-206.036
-774.969
-200.174
-770.569
-197.157
-766.381
-194.988
-763.214
-191.771
-760.607
-187.256
-758.2
-182.058
-756.211
-176.291
-754.937
-169.732
-754.682
-162.001
-755.789
-152.277
-758.49
-138.775
-762.682
-117.943
-767.511
-83.681
-770.774
-30.4426
-771.846
33.8778
-773.086
94.6536
-776.581
153.278
-782.301
219.766
-790.77
297.532
-802.653
389.967
-819.011
500.374
-841.897
634.768
-873.779
801.028
-917.166
1010.19
-974.899
1276.64
-1050.53
1615.61
-1148.02
2043.12
-1270.19
2574.19
-1417.16
3217.56
-1584.84
3967.25
-1764.62
4797.69
-1941.92
5665.19
-2097.83
6513.03
-2212.83
7275.9
-2276.82
7892.44
-2307.75
8337.45
-2364.36
8678.32
-2520.97
9095.69
-2790.13
9718.88
-3082.34
10346.5
-3301.16
10529.6
-3442.45
10099.8
-3530.6
9307.6
-3538.71
8331.84
-3457.49
7134.49
-3343.05
5779.34
-3247.57
4414.21
-3184.27
3078.34
-3153.61
1754.57
-3153.37
444.733
-3176.63
-907.859
-3220.99
-2260.56
-3285.1
-3626.08
-3353.4
-5025.78
-3379.33
-6422.18
-3274.83
-7646.85
-2920.62
-8312.65
-2211.97
-7832.61
-1145.02
-5669.36
-108.931
-1924.91
287.961
841.273
212.752
1285.96
107.479
752.318
44.2054
-351.962
-54.5385
-994.829
23.9196
-7.54636
67.3645
3962.73
5308.4
-728.615
-166.327
-741.85
-379.38
-793.911
-238.417
-817.061
-215.692
-818.624
-215.636
-808.782
-222.25
-801.015
-227.52
-800.084
-225.496
-803.238
-219.126
-805.255
-212.448
-803.826
-207.465
-800.008
-203.993
-796.149
-201.016
-793.361
-197.775
-791.075
-194.057
-788.706
-189.625
-786.435
-184.329
-784.668
-178.058
-783.638
-170.761
-783.576
-162.064
-784.769
-151.084
-787.427
-136.117
-791.422
-113.948
-796.035
-79.0679
-799.409
-27.0683
-800.965
35.4334
-802.747
96.4351
-806.672
157.204
-813.001
226.095
-822.287
306.818
-835.363
403.043
-853.531
518.542
-878.754
659.991
-913.461
835.735
-960.271
1057
-1022.11
1338.48
-1102.4
1695.91
-1204.66
2145.37
-1330.95
2700.48
-1480.17
3366.77
-1646.85
4133.93
-1820.88
4971.73
-1986.46
5830.76
-2124.38
6650.96
-2218.16
7369.68
-2265.86
7940.13
-2296.43
8368.02
-2374.16
8756.05
-2560.6
9282.12
-2842.91
10001.2
-3124.03
10627.6
-3324.57
10730.1
-3445.98
10221.2
-3497.75
9359.37
-3457.94
8292.04
-3345.1
7021.65
-3224.33
5658.56
-3134.53
4324.41
-3078.37
3022.17
-3052.11
1728.32
-3050.95
443.565
-3070.21
-888.596
-3109.62
-2221.15
-3172.2
-3563.5
-3251.31
-4946.67
-3312.4
-6361.09
-3276.39
-7682.86
-3021.44
-8567.6
-2425.81
-8428.23
-1446
-6649.18
-246.226
-3124.68
329.504
265.543
286.801
1328.66
175.719
863.4
79.2563
-255.502
-44.4784
-871.095
0.559618
-52.5858
33.8024
3929.49
5281.84
-765.513
-200.663
-807.286
-337.607
-840.813
-204.89
-841.129
-215.376
-832.537
-224.228
-825.621
-229.167
-825.043
-228.098
-828.528
-222.011
-831.42
-216.234
-831.385
-212.484
-828.934
-209.915
-826.006
-206.921
-823.719
-203.303
-821.744
-199.751
-819.591
-196.21
-817.398
-191.819
-815.509
-186.217
-814.117
-179.45
-813.374
-171.505
-813.535
-161.902
-814.874
-149.745
-817.542
-133.449
-821.452
-110.038
-825.958
-74.5617
-829.469
-23.5574
-831.48
37.4441
-833.886
98.8417
-838.516
161.833
-845.698
233.276
-856.074
317.195
-870.603
417.572
-890.761
538.701
-918.472
687.701
-956.115
873.379
-1006.41
1107.29
-1072.33
1404.4
-1157.05
1780.63
-1263.54
2251.87
-1393.06
2829.99
-1543.3
3517.02
-1707.43
4298.06
-1873.72
5138.02
-2025.53
5982.57
-2144.17
6769.59
-2217.38
7442.89
-2252.2
7974.95
-2287.5
8403.33
-2388.97
8857.52
-2602.09
9495.24
-2892.06
10291.2
-3159.6
10895.2
-3339.31
10909.8
-3432.99
10314.8
-3442.1
9368.49
-3359.44
8209.38
-3226.87
6889.08
-3108.54
5540.23
-3028.45
4244.33
-2981.03
2974.75
-2959.52
1706.81
-2957.6
441.647
-2972.39
-873.804
-3004.9
-2188.64
-3061.32
-3507.08
-3142.77
-4865.23
-3226.98
-6276.87
-3246.87
-7662.98
-3082.59
-8731.88
-2596.74
-8914.08
-1718.13
-7527.8
-532.382
-4310.42
206.043
-472.881
309.498
1225.21
251.553
921.345
108.177
-112.123
-19.0115
-743.906
-30.3617
-41.2343
0.218988
3898.91
5267.86
-813.695
-207.315
-857.566
-293.736
-865.956
-196.5
-856.085
-225.246
-850.203
-230.11
-849.79
-229.58
-853.485
-224.403
-857.075
-218.421
-858.254
-215.055
-857.166
-213.572
-855.406
-211.675
-853.944
-208.383
-852.532
-204.715
-850.802
-201.481
-848.907
-198.104
-847.174
-193.552
-845.765
-187.626
-844.77
-180.445