/*--------------------------------*- C++ -*----------------------------------*\
| =========                 |                                                 |
| \\      /  F ield         | OpenFOAM: The Open Source CFD Toolbox           |
|  \\    /   O peration     | Version:  4.1                                   |
|   \\  /    A nd           | Web:      www.OpenFOAM.org                      |
|    \\/     M anipulation  |                                                 |
\*---------------------------------------------------------------------------*/
FoamFile
{
    version     2.0;
    format      ascii;
    class       volScalarField;
    location    "7";
    object      p;
}
// * * * * * * * * * * * * * * * * * * * * * * * * * * * * * * * * * * * * * //

dimensions      [0 2 -2 0 0 0 0];

internalField   nonuniform List<scalar> 
6785
(
591.697
517.74
469.527
417.994
371.674
327.602
286.313
247.262
210.31
175.212
141.111
108.35
79.9131
48.6176
9.37528
10.0522
-7.70465
0.575297
-5.3354
-5.73942
-7.99068
-9.06864
-9.77478
-9.61909
-8.48189
-6.34659
-3.21653
1.85317
7.6143
9.58721
8.12249
2.39516
11.4329
7.14209
10.2301
9.55238
10.1367
9.95418
9.787
9.369
8.9729
9.05775
9.13006
8.5206
7.81701
14.8609
10.541
12.7836
6.72962
6.56044
2.43256
0.166862
-3.05043
-5.88952
-8.79687
-11.2784
-12.7677
-13.5718
-14.2567
-13.583
-7.14836
-10.2284
-7.7766
-11.3735
-9.25581
-11.2048
-10.6795
-11.2063
-11.1991
-11.2407
-11.0169
-10.4343
-9.10312
-8.02299
-5.93529
7.07716
6.44923
9.77914
8.38543
11.6096
11.507
13.4649
14.5741
16.0478
17.4808
19.0186
20.4838
22.2017
23.4389
25.533
28.5576
29.09
31.9592
31.1356
33.8486
33.9663
35.5776
36.5363
37.6813
38.7841
39.9065
40.9659
42.1853
43.1189
44.4174
45.2016
46.0116
48.1005
47.4355
49.4878
49.3954
50.556
50.9798
51.6016
52.1966
52.8804
53.6544
54.5748
55.2707
56.2247
56.6756
57.432
58.7768
58.4264
60.0611
60.0884
61.1637
61.4655
61.9198
61.9645
61.7653
61.4868
61.3261
61.5398
61.6567
65.1184
64.2325
65.0792
63.7987
64.4376
63.2946
63.0754
61.7925
60.5371
58.7743
56.9907
55.4099
54.4453
54.2409
52.8509
50.0386
46.4848
45.9296
43.2224
42.5006
40.3567
39.3643
37.7992
36.7248
35.3205
33.9734
32.8471
32.3274
31.4015
28.4679
15.9085
11.6377
10.2462
7.22516
5.376
2.46644
0.256403
-2.36855
-4.61023
-6.82385
-8.50996
-9.46731
-10.3092
-11.2559
-11.3318
0.244907
-1.96749
-3.25644
-5.66909
-7.00785
-9.15168
-10.6461
-12.0924
-12.8886
-13.2061
-12.8748
-11.9977
-10.6816
-9.56809
-7.7327
6.05564
7.89801
8.55831
8.21128
8.51585
8.71554
9.46246
10.205
11.0445
11.8606
12.742
13.5711
14.615
15.3734
16.9785
50.0126
49.743
47.9035
43.1695
38.5193
35.5578
33.8021
32.8155
32.1968
32.0539
31.5136
30.8128
30.1381
29.7045
28.8734
27.4073
27.5095
27.5269
27.529
27.5367
27.5674
27.609
27.5962
27.5904
27.583
27.6238
27.588
27.5671
27.5965
27.5375
27.5174
27.5144
27.5335
27.4253
27.4274
27.4589
27.3382
27.3067
27.3478
27.3654
27.2164
27.1819
27.2363
27.2875
27.0955
27.1283
27.2212
27.0586
27.0016
27.058
27.1312
26.94
26.9621
27.0261
26.8922
26.8258
26.9043
26.849
26.7282
26.683
26.7788
26.6154
26.4199
26.5228
26.4037
26.2822
26.2207
26.3174
26.313
26.2437
26.192
26.2472
26.4432
26.4046
26.3856
26.6917
26.6872
26.6378
26.5662
26.7719
26.8394
27.3633
26.8955
26.1434
26.8254
27.7467
23.6033
21.6837
23.6066
24.6794
11.5548
17.4476
19.8548
-7.843
0.564869
4.96804
4.06295
6.86824
-4.13437
3.72864
7.93377
8.71044
9.76193
10.5945
11.5925
13.6391
16.3987
9.61664
12.8979
14.9441
17.6748
20.4004
21.8025
23.4502
25.254
27.4079
22.6055
26.7918
29.7758
31.5389
34.0105
36.9484
39.1213
40.5555
42.15
42.6938
45.2654
45.2647
47.714
48.8715
49.9798
52.1347
54.9626
56.0213
54.057
58.7648
58.0225
60.9522
61.6272
61.1498
60.4748
59.8578
61.2744
58.4832
67.8598
63.7735
60.2528
60.0181
59.4451
56.6272
54.4728
51.5305
45.0656
56.3177
55.6861
49.3837
45.7615
40.9743
36.5711
32.3347
28.9214
24.7394
19.2706
18.9713
20.3442
14.8543
13.4144
11.4968
8.43479
1.56312
-0.689484
1.61943
-7.05346
4.26526
1.84778
0.770544
6.89506
0.658775
3.20605
1.78465
3.97093
7.07822
1.59766
4.57449
6.79152
2.83447
4.02704
2.79659
4.11585
6.46633
2.57737
3.68244
2.35347
3.80839
5.81352
1.29193
3.663
5.3831
1.81392
2.83715
1.57168
2.85229
5.12738
1.29591
2.34044
1.05307
2.44599
4.76568
0.00416998
2.40297
4.52387
0.65
1.6931
0.482594
1.76303
4.50827
0.270281
1.4387
0.138737
1.6541
4.2997
-0.823363
1.83101
4.11919
0.1069
1.27648
0.106405
1.46738
4.1971
0.0924829
1.33876
0.137396
1.6455
3.97476
-0.509647
1.9048
3.67868
0.432938
1.48467
0.536584
1.65978
3.43675
0.560444
1.48857
0.6359
1.63037
2.80319
0.150175
1.49726
2.13241
0.355044
0.826393
0.112548
0.619621
1.6858
0.000221625
0.000415427
0.000693901
0.000917665
0.001178
0.00142896
0.00169853
0.00197237
0.00225958
0.0025559
0.00286464
0.00318487
0.00351816
0.00386472
0.00422568
0.00460176
0.00499404
0.00540353
0.00583142
0.00627894
0.00674741
0.00723822
0.00775278
0.00829245
0.00885849
0.00945192
0.0100734
0.0107228
0.0113992
0.0121005
0.0128228
0.0135602
0.0143045
0.0150452
0.0157696
0.0164636
0.0171135
0.0177075
0.0182386
0.0187071
0.0191216
0.0194993
0.0198635
0.02024
0.0206525
0.0211196
0.0216546
0.0222668
0.0229611
0.0237227
0.024486
0.0250982
0.0253092
0.0248114
0.0232891
0.0204173
0.0158771
0.00938822
0.000715861
-0.0103483
-0.0235612
-0.0381311
-0.0539904
-0.0653312
-0.0610662
-0.22929
-0.364166
-0.474738
-0.569281
-0.642035
-0.638461
-0.608739
-0.4987
-0.459886
-0.268128
-0.347967
-0.117024
-0.209221
-0.812993
0.000642664
0.00120989
0.00201449
0.00267622
0.00343019
0.00416119
0.00493975
0.00573078
0.006557
0.0074084
0.00829332
0.00920985
0.0101621
0.0111509
0.0121793
0.0132494
0.0143641
0.0155262
0.0167391
0.0180059
0.0193304
0.0207164
0.0221675
0.0236875
0.0252797
0.0269467
0.0286899
0.0305091
0.0324011
0.0343593
0.0363724
0.0384233
0.0404885
0.0425377
0.0445348
0.0464404
0.0482159
0.0498298
0.0512651
0.0525261
0.0536428
0.0546701
0.055682
0.0567596
0.0579785
0.0594003
0.0610726
0.0630351
0.0653186
0.0679058
0.0706398
0.0731228
0.0746871
0.0745149
0.0717792
0.065622
0.0551769
0.0396204
0.0181209
-0.0103024
-0.0456687
-0.0870112
-0.135775
-0.174432
-0.185145
-0.457239
-0.705589
-0.921688
-1.10734
-1.2496
-1.26375
-1.21298
-1.03976
-0.913123
-0.619454
-0.559879
-0.247343
-0.145917
-0.230409
0.00100499
0.00195571
0.00331739
0.00443169
0.00570257
0.00693311
0.0082439
0.00957522
0.0109659
0.0123989
0.0138885
0.0154313
0.0170345
0.0186994
0.0204312
0.0222335
0.0241112
0.0260691
0.0281127
0.0302478
0.0324805
0.0348171
0.0372641
0.0398279
0.0425141
0.0453273
0.0482699
0.0513416
0.0545374
0.0578464
0.0612496
0.0647187
0.0682142
0.0716852
0.075071
0.0783049
0.0813216
0.0840671
0.0865117
0.0886609
0.0905634
0.0923099
0.0940224
0.0958352
0.0978732
0.100237
0.103003
0.106234
0.109978
0.114203
0.118638
0.122602
0.124949
0.124276
0.119157
0.108103
0.0896148
0.0622639
0.0246168
-0.024966
-0.0864486
-0.158282
-0.242272
-0.306838
-0.344545
-0.611685
-0.889316
-1.14608
-1.36669
-1.53592
-1.55233
-1.48852
-1.28488
-1.11486
-0.774865
-0.64366
-0.284603
-0.134789
0.130065
0.00135194
0.00268567
0.00458946
0.00615513
0.00793418
0.00965851
0.0114925
0.0133553
0.0152998
0.0173032
0.0193849
0.0215408
0.0237803
0.0261059
0.0285245
0.0310411
0.0336628
0.0363962
0.0392489
0.0422291
0.0453451
0.048606
0.0520206
0.0555979
0.0593458
0.0632706
0.067376
0.0716613
0.0761197
0.080736
0.085484
0.090324
0.0952011
0.100044
0.104768
0.109281
0.113489
0.117318
0.120725
0.123719
0.126368
0.1288
0.131186
0.133716
0.136565
0.139875
0.143752
0.148288
0.153555
0.159517
0.165807
0.171478
0.174925
0.174183
0.167255
0.152047
0.126439
0.0883842
0.0357665
-0.0338752
-0.120762
-0.22348
-0.344584
-0.439054
-0.517588
-0.803916
-1.12476
-1.43022
-1.69115
-1.89379
-1.90964
-1.8274
-1.57803
-1.36305
-0.950765
-0.775964
-0.333842
-0.166939
0.177254
0.00166865
0.0033912
0.00583712
0.00785915
0.0101496
0.0123719
0.0147324
0.0171304
0.0196322
0.0222095
0.0248869
0.0276594
0.0305391
0.033529
0.0366384
0.0398735
0.0432435
0.0467568
0.0504235
0.0542536
0.0582584
0.0624491
0.0668375
0.0714349
0.0762515
0.0812957
0.0865721
0.0920803
0.0978115
0.103747
0.109852
0.116077
0.122351
0.128583
0.134664
0.140473
0.145891
0.150821
0.155207
0.159058
0.162463
0.165586
0.16865
0.171898
0.175557
0.179809
0.18479
0.190619
0.197395
0.205087
0.213235
0.220625
0.225177
0.224346
0.215548
0.196059
0.163111
0.114006
0.045887
-0.0445912
-0.158006
-0.293445
-0.453936
-0.581879
-0.713508
-1.02513
-1.40153
-1.76147
-2.06649
-2.3075
-2.32421
-2.22073
-1.92051
-1.65091
-1.15901
-0.926023
-0.39832
-0.201882
0.339548
0.00196647
0.00408156
0.00706099
0.00954119
0.0123405
0.0150603
0.0179453
0.0208766
0.0239331
0.0270815
0.0303513
0.0337368
0.0372526
0.0409026
0.0446978
0.0486463
0.052759
0.0570464
0.0615205
0.0661938
0.0710799
0.0761927
0.0815464
0.0871549
0.0930309
0.0991845
0.105622
0.112342
0.119335
0.126578
0.134029
0.141629
0.14929
0.156901
0.164329
0.171425
0.178044
0.184065
0.189418
0.194115
0.198262
0.202063
0.205791
0.209746
0.214209
0.2194
0.225487
0.232615
0.240919
0.250383
0.26047
0.269701
0.275519
0.274794
0.264354
0.24084
0.20083
0.140949
0.0575344
-0.0537538
-0.194063
-0.363544
-0.565584
-0.731883
-0.929711
-1.26138
-1.6926
-2.09956
-2.44096
-2.71478
-2.7288
-2.60156
-2.25129
-1.92491
-1.35795
-1.06237
-0.456733
-0.220586
0.442782
0.00224444
0.00475745
0.00826353
0.0112046
0.0145118
0.0177304
0.0211396
0.0246045
0.0282152
0.0319344
0.0357958
0.0397933
0.0439441
0.0482529
0.0527327
0.057393
0.0622466
0.0673061
0.0725856
0.0780999
0.0838649
0.0898972
0.0962135
0.10283
0.109763
0.117023
0.124618
0.132548
0.1408
0.149349
0.158147
0.16712
0.176169
0.185162
0.19394
0.202328
0.210151
0.217265
0.223586
0.229125
0.234009
0.23848
0.242863
0.247518
0.252777
0.258903
0.26609
0.274515
0.284353
0.295615
0.307705
0.31888
0.326091
0.325611
0.313677
0.286274
0.239318
0.16873
0.0699749
-0.0623722
-0.230228
-0.435323
-0.681059
-0.891181
-1.1675
-1.51281
-2.00452
-2.45687
-2.82922
-3.13064
-3.13686
-2.98189
-2.5791
-2.19365
-1.55117
-1.19442
-0.512299
-0.248475
0.519175
0.00250641
0.00542231
0.00944635
0.0128501
0.016663
0.0203805
0.0243127
0.0283102
0.0324735
0.0367618
0.0412128
0.0458202
0.0506034
0.0555683
0.0607296
0.0660984
0.0716895
0.0775172
0.083598
0.0899488
0.096588
0.103535
0.110808
0.118428
0.126411
0.134772
0.143519
0.152652
0.162158
0.172008
0.182146
0.192491
0.202926
0.213298
0.223426
0.233105
0.242132
0.250336
0.25762
0.263993
0.269603
0.274729
0.279754
0.285097
0.291144
0.298198
0.306482
0.316202
0.327584
0.340684
0.35486
0.368114
0.376888
0.376847
0.363631
0.332558
0.278875
0.197777
0.0837917
-0.0696908
-0.265592
-0.507766
-0.799244
-1.0593
-1.42465
-1.77845
-2.34175
-2.84279
-3.24428
-3.5696
-3.56229
-3.37466
-2.91544
-2.46669
-1.74626
-1.32682
-0.568709
-0.286799
0.606097
0.00275375
0.00607788
0.0106113
0.0144796
0.0187957
0.0230126
0.0274663
0.0319958
0.0367104
0.0415664
0.0466052
0.0518206
0.0572342
0.0628527
0.068693
0.0747675
0.0810929
0.0876857
0.0945641
0.101748
0.109257
0.117114
0.12534
0.133958
0.142987
0.152443
0.162337
0.172669
0.183425
0.194572
0.206049
0.217763
0.229583
0.241337
0.252817
0.26379
0.274022
0.283317
0.29156
0.298761
0.305085
0.310853
0.316505
0.322522
0.329347
0.337321
0.346695
0.357707
0.370639
0.385613
0.401966
0.417445
0.427965
0.428566
0.414288
0.379765
0.319573
0.228157
0.0990491
-0.075642
-0.300097
-0.580812
-0.920046
-1.23651
-1.698
-2.05374
-2.70278
-3.25678
-3.68706
-4.03255
-4.00434
-3.7779
-3.25818
-2.74142
-1.94137
-1.45631
-0.624636
-0.301658
0.64804
0.00298852
0.00672604
0.0117598
0.016094
0.0209108
0.0256268
0.0306005
0.035661
0.0409251
0.0463472
0.0519717
0.0577929
0.0638342
0.0701037
0.0766198
0.0833968
0.0904532
0.0978071
0.105479
0.113491
0.121866
0.130629
0.139803
0.149413
0.159482
0.170028
0.181063
0.192589
0.20459
0.21703
0.229842
0.242924
0.256129
0.269266
0.2821
0.29437
0.30581
0.316196
0.325394
0.333413
0.340437
0.346831
0.353092
0.359768
0.367358
0.376244
0.386701
0.398997
0.413485
0.430374
0.449004
0.466876
0.479348
0.480822
0.465732
0.428012
0.361569
0.260081
0.116024
-0.0798649
-0.333307
-0.653936
-1.04291
-1.42245
-1.98243
-2.33421
-3.08681
-3.69942
-4.1602
-4.5227
-4.46473
-4.19163
-3.60645
-3.01654
-2.13514
-1.58162
-0.679582
-0.326809
0.67305
0.00321215
0.0073682
0.0128935
0.0176947
0.0230092
0.028224
0.033716
0.0393063
0.0451182
0.0511044
0.0573125
0.0637371
0.0704036
0.0773213
0.0845103
0.0919865
0.0997702
0.107882
0.116343
0.12518
0.134416
0.144078
0.154195
0.164792
0.175896
0.187526
0.199698
0.212412
0.225653
0.239382
0.253528
0.267976
0.282567
0.297089
0.311281
0.324852
0.337503
0.34898
0.35913
0.367958
0.375669
0.382669
0.389518
0.396835
0.405176
0.414964
0.426494
0.440066
0.456112
0.474955
0.495973
0.51642
0.531072
0.533672
0.518041
0.477398
0.404985
0.2937
0.134915
-0.0820976
-0.364899
-0.726707
-1.16738
-1.61671
-2.27273
-2.62104
-3.49662
-4.17246
-4.66804
-5.04583
-4.94837
-4.61901
-3.96199
-3.29295
-2.32797
-1.7029
-0.733037
-0.364367
0.736315
0.00342603
0.00800561
0.0140136
0.0192828
0.0250918
0.030805
0.0368132
0.0429319
0.0492895
0.0558379
0.0626272
0.0696527
0.0769416
0.0845045
0.0923631
0.100535
0.109042
0.117907
0.127154
0.13681
0.146902
0.15746
0.168513
0.180093
0.192225
0.204934
0.218236
0.232133
0.24661
0.261625
0.2771
0.292914
0.308893
0.324803
0.340358
0.355234
0.3691
0.381671
0.392769
0.402395
0.410775
0.41836
0.425776
0.433712
0.44279
0.453468
0.466059
0.480895
0.498496
0.519334
0.542858
0.566083
0.583164
0.587167
0.571289
0.528021
0.449951
0.329186
0.155953
-0.0820204
-0.394458
-0.798545
-1.29283
-1.81856
-2.56629
-2.92132
-3.93887
-4.67752
-5.21393
-5.60712
-5.45988
-5.06307
-4.32624
-3.57108
-2.51989
-1.81923
-0.784369
-0.365436
0.775323
0.00363134
0.00863925
0.0151215
0.0208592
0.0271594
0.0333702
0.0398925
0.0465381
0.0534392
0.0605477
0.0679157
0.0755394
0.0834478
0.0916527
0.100178
0.109042
0.118269
0.127883
0.137911
0.148381
0.159324
0.170772
0.182757
0.195312
0.208467
0.222249
0.236675
0.25175
0.267457
0.283754
0.300558
0.317738
0.335105
0.352407
0.369331
0.38552
0.400606
0.41427
0.426312
0.436727
0.445757
0.453903
0.46186
0.470394
0.480191
0.491746
0.505385
0.521467
0.540617
0.563489
0.589647
0.615872
0.635651
0.641356
0.62555
0.579978
0.496589
0.366701
0.179363
-0.0793185
-0.421557
-0.868787
-1.41845
-2.02695
-2.86358
-3.24764
-4.42428
-5.21708
-5.8007
-6.21134
-6.00368
-5.52692
-4.70054
-3.85102
-2.71066
-1.92988
-0.834066
-0.389026
0.779609
0.00382912
0.00927
0.0162183
0.0224249
0.0292129
0.0359203
0.0429543
0.050125
0.0575673
0.0652336
0.0731776
0.0813968
0.0899215
0.0987652
0.107953
0.117505
0.127448
0.137807
0.148611
0.159891
0.17168
0.184012
0.196923
0.210447
0.224619
0.239467
0.255012
0.271258
0.288192
0.305767
0.323897
0.342443
0.361201
0.3799
0.398199
0.415708
0.432021
0.446782
0.459764
0.470954
0.480614
0.489295
0.497764
0.50687
0.517368
0.529787
0.544459
0.561766
0.582451
0.607392
0.63632
0.665788
0.688558
0.696287
0.680893
0.633357
0.545019
0.406403
0.205372
-0.0736568
-0.445711
-0.93662
-1.54314
-2.24021
-3.16488
-3.61352
-4.95623
-5.79373
-6.4312
-6.86338
-6.58448
-6.0142
-5.08676
-4.13312
-2.90007
-2.03406
-0.880281
-0.394005
0.838255
0.00402025
0.00989857
0.0173049
0.0239807
0.0312529
0.0384557
0.045999
0.053693
0.061674
0.0698955
0.0784127
0.0872244
0.0963623
0.105841
0.115688
0.125924
0.136578
0.147678
0.159254
0.171338
0.183968
0.197178
0.211008
0.225496
0.240678
0.256586
0.273243
0.290656
0.308811
0.32766
0.347115
0.367026
0.387179
0.407281
0.426963
0.4458
0.463346
0.479207
0.493126
0.505078
0.515347
0.524533
0.533483
0.543134
0.554312
0.56758
0.583268
0.601774
0.623971
0.651013
0.682856
0.715828
0.741904
0.752003
0.737383
0.688247
0.595353
0.448445
0.234205
-0.06469
-0.466385
-1.00109
-1.66557
-2.45595
-3.46747
-4.02477
-5.52572
-6.4088
-7.10826
-7.56815
-7.20703
-6.52889
-5.48726
-4.41794
-3.08761
-2.13183
-0.921208
-0.403263
0.813981
0.00420552
0.0105255
0.0183824
0.0255274
0.03328
0.0409771
0.0490269
0.0572421
0.0657591
0.0745333
0.0836207
0.0930217
0.102769
0.11288
0.123382
0.134298
0.145659
0.157495
0.169837
0.182721
0.196185
0.210268
0.225011
0.240456
0.256642
0.273603
0.291365
0.309939
0.329309
0.34943
0.370207
0.391486
0.413036
0.434547
0.455621
0.475795
0.494584
0.51155
0.526401
0.539102
0.549955
0.559614
0.569011
0.579176
0.591013
0.605114
0.621798
0.64147
0.665149
0.694316
0.729227
0.765988
0.795707
0.808548
0.795083
0.744728
0.647696
0.492972
0.266086
-0.0520598
-0.482982
-1.06111
-1.78424
-2.67095
-3.7662
-4.47586
-6.11846
-7.06215
-7.83473
-8.33064
-7.87597
-7.07508
-5.9047
-4.70633
-3.27256
-2.22458
-0.954068
-0.421008
0.865663
0.0043856
0.0111515
0.0194516
0.0270656
0.035295
0.0434847
0.0520383
0.0607724
0.0698226
0.0791467
0.0888012
0.0987882
0.109142
0.119881
0.131033
0.142626
0.154689
0.167255
0.180359
0.194037
0.20833
0.223279
0.238929
0.255324
0.272507
0.290514
0.309375
0.329103
0.349684
0.371073
0.393171
0.415817
0.43877
0.461696
0.484172
0.505696
0.525737
0.543811
0.559592
0.573028
0.584438
0.594535
0.604339
0.614986
0.627458
0.642377
0.660037
0.680835
0.705953
0.737261
0.775402
0.81626
0.849981
0.865959
0.854051
0.802874
0.702143
0.540116
0.301228
-0.0354008
-0.494846
-1.11548
-1.8974
-2.88071
-4.05474
-4.9619
-6.71731
-7.75308
-8.61358
-9.15607
-8.59579
-7.65695
-6.34191
-4.99941
-3.45447
-2.31244
-0.976888
-0.397376
0.93463
0.00456107
0.0117767
0.0205133
0.0285959
0.0372984
0.0459789
0.0550335
0.064284
0.0738645
0.0837354
0.0939538
0.104523
0.11548
0.126842
0.138642
0.150906
0.163667
0.176959
0.190818
0.205284
0.2204
0.236209
0.252759
0.270098
0.28827
0.307316
0.32727
0.348145
0.369932
0.392584
0.416001
0.440017
0.464376
0.488727
0.512615
0.535501
0.556805
0.575995
0.592702
0.606857
0.618796
0.629292
0.639462
0.650554
0.663637
0.679358
0.697971
0.719849
0.746348
0.779803
0.821342
0.86663
0.904736
0.924272
0.91434
0.862752
0.758777
0.589992
0.339827
-0.0143524
-0.501279
-1.16291
-2.00322
-3.08059
-4.3278
-5.48044
-7.30401
-8.48149
-9.44808
-10.0501
-9.37087
-8.27874
-6.80186
-5.29849
-3.63308
-2.39407
-0.990769
-0.383079
0.903986
0.00473241
0.0124017
0.0215681
0.030119
0.0392906
0.0484602
0.0580126
0.067777
0.0778846
0.0882993
0.099078
0.110227
0.121782
0.133764
0.146206
0.159137
0.172591
0.186604
0.201213
0.216462
0.232394
0.249056
0.2665
0.284774
0.303928
0.324006
0.345045
0.367061
0.390048
0.41396
0.438695
0.464081
0.489852
0.515636
0.54095
0.565211
0.587792
0.608104
0.625735
0.640592
0.653029
0.663881
0.674372
0.685869
0.699538
0.716047
0.735588
0.75849
0.786296
0.821891
0.867005
0.917081
0.95998
0.983519
0.975996
0.924415
0.817657
0.642678
0.382036
0.0114126
-0.50158
-1.20214
-2.09988
-3.26679
-4.58345
-6.02759
-7.85147
-9.24321
-10.3416
-11.0189
-10.2055
-8.94461
-7.28753
-5.60494
-3.80827
-2.46823
-0.994309
-0.376985
0.963793
0.00490006
0.0130268
0.0226166
0.0316351
0.0412722
0.0509287
0.0609758
0.0712513
0.0818828
0.0928381
0.104174
0.115898
0.128047
0.140645
0.153726
0.167319
0.181461
0.196188
0.211542
0.227567
0.244309
0.261818
0.280147
0.299349
0.319478
0.340581
0.362696
0.385847
0.410029
0.435196
0.461247
0.488005
0.515193
0.542421
0.569173
0.594826
0.618697
0.640141
0.658694
0.674236
0.687137
0.698299
0.70906
0.72092
0.735149
0.75243
0.772875
0.796737
0.825757
0.863465
0.912341
0.967592
1.01572
1.04373
1.03906
0.987897
0.878805
0.698198
0.427935
0.0421353
-0.495133
-1.23202
-2.18537
-3.43513
-4.82568
-6.58413
-8.31672
-10.0231
-11.2972
-12.0696
-11.104
-9.65859
-7.80187
-5.92005
-3.97999
-2.53353
-0.985531
-0.314691
1.06676
0.00506436
0.0136522
0.0236595
0.0331449
0.0432435
0.0533848
0.0639232
0.0747069
0.085859
0.0973513
0.10924
0.121535
0.134276
0.147485
0.161199
0.175449
0.190273
0.205711
0.221803
0.238598
0.256143
0.274491
0.293699
0.313822
0.334917
0.357036
0.380221
0.404499
0.429869
0.456288
0.483654
0.511785
0.540397
0.569078
0.597283
0.624345
0.649523
0.672109
0.691581
0.707791
0.72112
0.732542
0.743517
0.755694
0.770455
0.788497
0.809821
0.834569
0.864685
0.904462
0.957294
1.01814
1.07194
1.10492
1.10354
1.0532
0.942182
0.756477
0.477465
0.0778854
-0.481533
-1.25177
-2.25798
-3.58303
-5.06151
-7.09473
-8.68509
-10.8101
-12.3178
-13.2098
-12.0708
-10.4246
-8.34776
-6.24498
-4.14833
-2.58897
-0.965516
-0.271607
1.0384
0.0052256
0.0142781
0.0246971
0.0346486
0.0452049
0.0558286
0.066855
0.0781438
0.0898128
0.101839
0.114277
0.127139
0.140466
0.154282
0.168624
0.183527
0.199028
0.215169
0.231995
0.249552
0.267894
0.287074
0.307152
0.328188
0.350242
0.373368
0.397615
0.423013
0.449565
0.47723
0.505909
0.535417
0.565458
0.595604
0.625279
0.653768
0.680272
0.704011
0.724403
0.74126
0.754978
0.766606
0.777735
0.790177
0.805444
0.824238
0.846417
0.871964
0.903032
0.944807
1.0018
1.06868
1.12864
1.1671
1.16944
1.12026
1.00764
0.817275
0.53034
0.118443
-0.460751
-1.26108
-2.31663
-3.71071
-5.29195
-7.49955
-9.00942
-11.6075
-13.4022
-14.448
-13.1106
-11.2464
-8.92786
-6.58077
-4.31341
-2.63359
-0.931651
-0.197877
1.16946
0.00538403
0.0149048
0.02573
0.0361465
0.0471566
0.0582602
0.0697711
0.0815618
0.0937441
0.1063
0.119283
0.132709
0.146617
0.161035
0.176002
0.191551
0.207724
0.224563
0.242114
0.260428
0.279559
0.299564
0.320505
0.342446
0.365448
0.389574
0.414875
0.441385
0.469111
0.498019
0.528009
0.558894
0.590372
0.621995
0.653157
0.683094
0.710943
0.735851
0.757162
0.774648
0.788713
0.800485
0.811702
0.824356
0.8401
0.859641
0.882653
0.908902
0.940746
0.984417
1.04578
1.11919
1.18581
1.23026
1.23669
1.18892
1.07487
0.880098
0.585934
0.163168
-0.433277
-1.26027
-2.36122
-3.82011
-5.51367
-7.81696
-9.36163
-12.389
-14.55
-15.7919
-14.2278
-12.1277
-9.54459
-6.92838
-4.47527
-2.66611
-0.883298
-0.120958
1.18044
0.00553983
0.0155325
0.0267584
0.0376389
0.049099
0.0606798
0.0726715
0.0849608
0.0976526
0.110734
0.124258
0.138243
0.152729
0.167744
0.183329
0.19952
0.216358
0.233889
0.252161
0.271224
0.291137
0.311959
0.333755
0.35659
0.380534
0.40565
0.431995
0.459609
0.488503
0.518648
0.549947
0.582212
0.615133
0.648247
0.680914
0.712323
0.74154
0.767632
0.789863
0.807957
0.822325
0.834177
0.845408
0.858214
0.874409
0.894695
0.918522
0.945363
0.97777
1.0232
1.08917
1.16961
1.2434
1.29434
1.30514
1.25885
1.14327
0.94408
0.643168
0.210903
-0.400201
-1.2504
-2.39273
-3.91424
-5.72521
-8.0949
-9.84054
-13.1499
-15.7843
-17.2492
-15.4262
-13.0722
-10.2
-7.28871
-4.63375
-2.68544
-0.818959
-0.0409592
1.2909
0.00569315
0.0161613
0.0277826
0.0391261
0.0510321
0.0630875
0.0755562
0.0883405
0.101538
0.115141
0.129202
0.143741
0.158799
0.174407
0.190605
0.207432
0.224931
0.243147
0.262132
0.281938
0.302625
0.324256
0.346897
0.37062
0.395495
0.421592
0.448972
0.477681
0.507737
0.539113
0.571718
0.605364
0.639736
0.674354
0.708547
0.741452
0.772063
0.799356
0.822512
0.841193
0.855815
0.867675
0.878842
0.891735
0.908352
0.929392
0.954022
0.981329
1.01404
1.06105
1.13185
1.21988
1.30134
1.3592
1.37446
1.32943
1.21186
1.00788
0.700439
0.259964
-0.363161
-1.23314
-2.4131
-3.99645
-5.92776
-8.38126
-10.5106
-13.9015
-17.1344
-18.8299
-16.7084
-14.0832
-10.8958
-7.66261
-4.78834
-2.69032
-0.736466
0.0973404
1.45459
0.00584409
0.0167914
0.0288031
0.0406083
0.0529562
0.0654831
0.0784251
0.0917007
0.1054
0.119521
0.134114
0.149203
0.164828
0.181024
0.19783
0.215286
0.233439
0.252334
0.272025
0.292567
0.31402
0.336451
0.35993
0.384531
0.410328
0.437396
0.465802
0.495597
0.526805
0.559407
0.593316
0.628345
0.664175
0.700312
0.736052
0.770481
0.802513
0.83103
0.855113
0.87436
0.889185
0.900975
0.911989
0.924899
0.941912
0.963722
0.989149
1.01679
1.0495
1.09785
1.17374
1.2699
1.35951
1.42458
1.44409
1.39965
1.27918
1.06964
0.755674
0.308278
-0.324156
-1.21052
-2.4248
-4.07035
-6.12571
-8.7113
-11.3564
-14.6107
-18.6127
-20.5441
-18.0763
-15.1633
-11.6331
-8.05085
-4.93824
-2.67954
-0.636829
0.228279
1.50807
0.00599273
0.0174229
0.0298198
0.0420854
0.0548713
0.0678668
0.0812781
0.0950412
0.109237
0.123872
0.138993
0.154627
0.170815
0.187592
0.205
0.223081
0.241881
0.26145
0.281839
0.303109
0.325321
0.348544
0.372851
0.39832
0.425029
0.453059
0.48248
0.513351
0.545704
0.579526
0.614734
0.651148
0.688444
0.726115
0.763426
0.799406
0.832891
0.862655
0.887673
0.907464
0.922436
0.934072
0.944837
0.957685
0.975069
0.997675
1.02391
1.05172
1.08406
1.13346
1.21469
1.31955
1.41765
1.48994
1.51302
1.468
1.34319
1.12704
0.806528
0.353658
-0.285219
-1.18461
-2.43038
-4.13955
-6.32559
-9.09713
-12.2573
-15.3088
-20.266
-22.401
-19.5305
-16.3144
-12.4127
-8.45398
-5.08228
-2.65204
-0.517938
0.359379
1.66681
0.00613909
0.018056
0.0308331
0.0435578
0.0567776
0.0702383
0.0841149
0.0983615
0.113051
0.128194
0.143838
0.160012
0.176757
0.194111
0.212116
0.230815
0.250256
0.27049
0.291572
0.313562
0.336524
0.36053
0.385657
0.411983
0.439595
0.468575
0.499001
0.530939
0.564427
0.599461
0.635967
0.673766
0.712536
0.751756
0.790662
0.828227
0.863198
0.894236
0.920197
0.94051
0.955571
0.966961
0.97737
0.990071
1.0078
1.03125
1.05831
1.08613
1.11765
1.16773
1.25454
1.36859
1.47532
1.5544
1.57976
1.53234
1.4014
1.17757
0.850739
0.394166
-0.248039
-1.15708
-2.43193
-4.20721
-6.53418
-9.53952
-13.1513
-16.1121
-22.1769
-24.4178
-21.0704
-17.5371
-13.2341
-8.87221
-5.21904
-2.60612
-0.376681
0.557945
1.8834
0.0062832
0.0186908
0.0318431
0.0450253
0.0586749
0.0725977
0.0869353
0.101661
0.116839
0.132486
0.148649
0.165358
0.182655
0.20058
0.219175
0.238487
0.258563
0.279455
0.301222
0.323923
0.347628
0.372408
0.398343
0.425519
0.454021
0.483941
0.515361
0.548355
0.582969
0.619208
0.657006
0.696192
0.736443
0.777228
0.817756
0.856939
0.893434
0.925778
0.952692
0.973506
0.988592
0.999636
1.00957
1.02203
1.04009
1.06442
1.09235
1.12001
1.15019
1.20047
1.29307
1.41665
1.53175
1.61654
1.64212
1.58998
1.45111
1.21896
0.886531
0.428488
-0.213613
-1.12882
-2.43068
-4.27542
-6.75693
-10.0406
-14.0848
-17.1759
-24.3766
-26.6283
-22.6941
-18.8296
-14.096
-9.30533
-5.34693
-2.53988
-0.2147
0.744044
1.9659
0.00642501
0.0193273
0.0328498
0.0464881
0.0605633
0.0749447
0.0897391
0.10494
0.120602
0.136749
0.153424
0.170663
0.188507
0.206996
0.226177
0.246094
0.266798
0.288342
0.310785
0.334191
0.358629
0.384174
0.410909
0.438921
0.468305
0.499152
0.531556
0.565594
0.601324
0.638759
0.677844
0.718417
0.760157
0.802525
0.844701
0.88554
0.9236
0.957285
0.985167
1.00646
1.0215
1.03209
1.04142
1.05354
1.07189
1.09721
1.12607
1.15336
1.18157
1.23145
1.32996
1.46309
1.5857
1.67428
1.69725
1.63798
1.49
1.24965
0.912964
0.456204
-0.181998
-1.09977
-2.42671
-4.3447
-6.99644
-10.6022
-15.093
-18.6078
-26.9025
-29.0769
-24.401
-20.188
-14.9953
-9.75258
-5.46415
-2.45139
-0.0280145
0.966713
2.21601
0.00656449
0.0199657
0.0338534
0.0479462
0.0624427
0.0772791
0.0925259
0.108198
0.124338
0.14098
0.158163
0.175926
0.194311
0.21336
0.233119
0.253635
0.27496
0.297149
0.320261
0.344363
0.369524
0.395825
0.423349
0.452189
0.482441
0.514205
0.547579
0.58265
0.619485
0.658107
0.698474
0.740433
0.783669
0.827637
0.87149
0.914025
0.953695
0.98876
1.01763
1.03938
1.05431
1.06432
1.0729
1.08455
1.10319
1.12958
1.15949
1.18619
1.21168
1.26035
1.36469
1.50691
1.63533
1.72475
1.74189
1.67375
1.51661
1.26908
0.930125
0.477914
-0.152259
-1.06884
-2.41893
-4.41379
-7.25189
-11.2221
-16.1934
-20.4589
-29.787
-31.8125
-26.1946
-21.6066
-15.9272
-10.2126
-5.56853
-2.3376
0.185125
1.19759
2.37169
0.00670156
0.020606
0.0348538
0.0493994
0.064313
0.0796007
0.0952954
0.111434
0.128048
0.145179
0.162865
0.181147
0.200067
0.21967
0.240001
0.26111
0.283048
0.305874
0.329647
0.354436
0.380313
0.407358
0.435661
0.465317
0.496426
0.529094
0.563426
0.599517
0.637445
0.677245
0.718887
0.762231
0.80697
0.852556
0.898117
0.94239
0.98372
1.02021
1.05008
1.07227
1.08701
1.09632
1.10399
1.11505
1.13395
1.16155
1.19264
1.21853
1.24035
1.28677
1.3965
1.54661
1.678
1.76443
1.77297
1.69574
1.53073
1.27788
0.939128
0.49515
-0.122615
-1.03411
-2.40518
-4.47975
-7.51925
-11.8927
-17.3923
-22.7547
-33.0461
-34.8885
-28.0835
-23.0793
-16.8855
-10.6832
-5.65739
-2.1951
0.427451
1.44098
2.63126
0.00683612
0.0212485
0.035851
0.0508477
0.066174
0.0819091
0.0980471
0.114647
0.131731
0.149346
0.167529
0.186324
0.205774
0.225923
0.24682
0.268514
0.29106
0.314515
0.338941
0.364408
0.39099
0.418771
0.447842
0.478302
0.510256
0.543815
0.579092
0.616191
0.655199
0.696166
0.739075
0.783802
0.830049
0.877271
0.924572
0.970628
1.01367
1.05164
1.08254
1.10514
1.11962
1.12808
1.13467
1.14498
1.16413
1.1931
1.22557
1.25038
1.26737
1.31008
1.42429
1.58007
1.71023
1.78966
1.78851
1.70388
1.53344
1.27766
0.94191
0.51011
-0.0907614
-0.993135
-2.38247
-4.53815
-7.7917
-12.6015
-18.6882
-25.4998
-36.6696
-38.3538
-30.0781
-24.6007
-17.862
-11.1612
-5.72748
-2.02009
0.703126
1.74888
2.93302
0.00696805
0.021893
0.0368451
0.052291
0.0680254
0.0842041
0.10078
0.117837
0.135385
0.153479
0.172154
0.191457
0.211429
0.232119
0.253575
0.275848
0.298993
0.323069
0.34814
0.374276
0.401554
0.430061
0.459888
0.49114
0.523926
0.558363
0.594571
0.632663
0.672739
0.714861
0.759029
0.805135
0.852897
0.901771
0.950845
0.998734
1.04355
1.08305
1.11502
1.13802
1.15214
1.15961
1.1649
1.1743
1.19368
1.22423
1.2583
1.28173
1.2924
1.32948
1.4466
1.60436
1.72792
1.79773
1.78833
1.69968
1.5269
1.27079
0.940873
0.525256
-0.0542594
-0.943282
-2.3473
-4.58346
-8.06009
-13.3306
-20.0733
-28.6853
-40.6126
-42.2411
-32.1875
-26.1666
-18.8474
-11.6429
-5.77501
-1.80901
1.01236
2.05404
3.16182
0.00709719
0.0225398
0.0378359
0.0537291
0.0698671
0.0864851
0.103495
0.121003
0.13901
0.157578
0.176739
0.196542
0.217032
0.238257
0.260265
0.283109
0.306846
0.331535
0.357242
0.384038
0.412002
0.441223
0.471796
0.503828
0.537433
0.572734
0.609858
0.648929
0.690057
0.733322
0.778739
0.826221
0.875501
0.926046
0.976926
1.0267
1.07336
1.11444
1.14752
1.1709
1.18459
1.19088
1.19466
1.20295
1.22254
1.25491
1.29089
1.31252
1.31495
1.34399
1.4615
1.6156
1.72736
1.78795
1.77418
1.6858
1.51393
1.25994
0.938464
0.542926
-0.0108411
-0.88192
-2.29582
-4.60931
-8.31327
-14.0576
-21.5331
-32.2842
-44.7782
-46.5549
-34.4199
-27.7749
-19.8315
-12.1231
-5.79569
-1.55885
1.35873
2.36609
3.50279
0.00722338
0.0231889
0.0388233
0.0551619
0.0716987
0.0887519
0.10619
0.124145
0.142605
0.161641
0.181282
0.201581
0.222581
0.244333
0.266887
0.290295
0.314616