/*--------------------------------*- C++ -*----------------------------------*\
| =========                 |                                                 |
| \\      /  F ield         | OpenFOAM: The Open Source CFD Toolbox           |
|  \\    /   O peration     | Version:  4.1                                   |
|   \\  /    A nd           | Web:      www.OpenFOAM.org                      |
|    \\/     M anipulation  |                                                 |
\*---------------------------------------------------------------------------*/
FoamFile
{
    version     2.0;
    format      ascii;
    class       volScalarField;
    location    "18";
    object      p;
}
// * * * * * * * * * * * * * * * * * * * * * * * * * * * * * * * * * * * * * //

dimensions      [0 2 -2 0 0 0 0];

internalField   nonuniform List<scalar> 
6785
(
592.976
517.532
469.863
417.776
371.35
326.968
285.43
246.093
208.853
173.545
139.361
106.443
78.279
47.9838
7.76221
4.12667
-13.8455
-4.89402
-11.2971
-11.2657
-13.5283
-14.3591
-14.8773
-14.4717
-13.1023
-10.765
-7.35104
-1.96913
3.606
5.3632
1.91906
-3.94791
4.60399
-0.452763
2.21526
0.636145
0.547415
-0.50421
-1.47305
-2.7461
-4.03034
-4.68181
-4.90523
-5.52349
-5.63619
4.09569
0.14115
2.31093
-3.5738
-3.34698
-7.37961
-9.24076
-12.1212
-14.4966
-16.8956
-18.8375
-19.8609
-19.6453
-19.4675
-18.3407
-5.45549
-7.56747
-4.51856
-7.47663
-4.49302
-5.7522
-4.36231
-4.04961
-3.17688
-2.36369
-1.32712
-0.292071
1.37107
2.67402
5.23212
15.3889
15.4206
18.8627
17.7223
21.1455
21.2247
23.3402
24.5765
26.1469
27.6578
29.2694
30.787
32.5274
33.8206
35.6695
36.4274
37.1172
39.7511
38.8573
41.4342
41.356
42.8653
43.62
44.6414
45.6316
46.644
47.5974
48.6823
49.4923
50.6699
51.3247
52.29
54.1104
53.666
55.7392
55.7502
57.1053
57.4112
57.8456
57.8117
57.6893
57.7913
58.2389
58.7697
59.3348
61.0736
61.005
62.0174
60.9707
62.0221
61.089
61.3068
60.509
60.0064
59.2716
58.6848
58.193
57.7343
57.7431
56.9945
57.85
55.0988
55.4293
53.2347
53.3104
51.6039
51.0739
49.4965
48.0506
45.8732
43.495
41.2495
40.0787
39.345
36.3485
23.7014
18.741
17.2711
13.6424
11.5356
7.97913
5.42955
2.4154
0.227106
-1.71114
-2.79681
-3.03542
-3.11439
-3.98993
-5.47718
-8.52317
-11.6687
-12.7814
-15.4185
-16.6114
-18.8087
-20.0132
-21.2988
-21.837
-22.1328
-22.1277
-21.9955
-21.9344
-21.8317
-20.4357
0.884957
0.712019
0.508519
-0.591511
-0.686134
-1.49018
-1.84498
-2.28814
-2.48684
-2.57548
-2.43338
-2.17834
-1.3101
-0.289963
1.91994
12.2675
14.9658
15.9975
16.2344
16.8908
17.4941
18.5432
19.5542
20.6225
21.6398
22.6424
23.5259
24.498
25.2556
26.0793
61.1262
60.7154
58.1806
52.3187
46.7715
42.7354
38.6899
35.0504
32.1066
29.5495
27.2281
25.3827
23.7718
22.6912
20.7457
36.0265
36.4949
36.8862
36.8554
37.0359
37.6114
38.2386
38.0934
38.0159
37.9284
38.4838
38.0449
37.8228
38.1557
37.4978
37.3055
37.3659
37.542
36.4333
36.7476
36.9246
35.8846
35.7082
36.4203
36.4354
35.3643
35.2608
36.0923
36.3926
35.1456
36.0157
36.4282
35.5589
35.514
36.311
36.7463
35.8639
36.4808
37.0075
36.4554
36.4245
36.9583
37.2312
36.7773
36.7264
37.1026
37.0915
36.6024
36.8888
37.0221
36.7333
36.6901
36.8992
37.3046
37.1486
37.0942
37.1836
37.9405
37.814
37.9227
38.2237
38.1977
38.1837
38.1661
38.6107
38.8487
40.0775
38.41
36.7955
38.3138
40.3807
31.4621
27.7149
31.5826
35.1268
9.58425
20.2681
26.68
-20.4646
-7.10233
-0.714034
-3.08003
1.05207
-5.89099
-3.4245
1.54285
1.69171
2.46083
2.94694
3.65658
4.86448
8.24282
9.16521
4.3123
5.93075
8.22013
10.6265
10.9959
11.9929
12.2673
14.0951
18.2936
14.8537
16.6867
16.8408
18.1783
20.4695
21.7783
22.1689
22.677
22.1993
27.1739
26.7804
27.9797
28.3562
28.5131
29.8275
31.9516
32.3825
29.6134
33.0081
36.3346
38.2868
38.9572
38.4085
37.8916
37.3975
39.079
36.1032
40.1872
45.8384
43.0187
43.6711
43.6841
41.697
40.2045
38.3404
32.2772
39.8972
45.0606
39.1605
36.4066
32.4111
28.7997
25.4035
22.9902
20.0851
15.4648
12.601
19.4618
14.5654
13.8495
12.4056
9.9806
3.38711
1.32664
4.01537
-6.37561
7.28337
4.7986
4.0581
10.7421
4.68472
7.97876
6.89919
9.3634
12.4705
8.2384
11.0629
12.9191
10.4295
11.6585
11.1328
12.1099
13.4919
11.712
12.469
12.0292
12.6194
13.3033
11.98
12.6352
12.9176
12.1411
12.3317
12.0835
12.1828
12.3022
11.7412
11.7746
11.566
11.5314
11.4682
11.0224
10.9947
10.8443
10.49
10.372
10.1876
10.053
10.0354
9.48038
9.23559
9.13807
8.82377
8.6782
8.40035
8.15585
7.98027
7.69746
7.45387
7.20762
7.0106
6.76767
6.60127
6.33901
6.06361
5.92412
5.67268
5.58288
5.30587
4.97985
4.98459
4.68205
4.38019
4.26659
3.98825
3.97183
3.58392
3.25131
3.0973
2.77453
2.74848
2.27154
1.80385
1.84328
1.20705
0.740853
0.411939
-0.0284095
0.00250046
0.00634917
0.00810853
0.0107474
0.0124931
0.0147079
0.0166991
0.0190195
0.0213984
0.0240158
0.0267915
0.0297807
0.0329607
0.036332
0.0398417
0.0434215
0.0469855
0.0504991
0.0540507
0.0578908
0.0623252
0.0674365
0.0727891
0.0773988
0.0800732
0.0798546
0.0762516
0.0692834
0.059446
0.0476284
0.0348962
0.02212
0.00969271
-0.00249155
-0.0148654
-0.0279758
-0.0422544
-0.0579271
-0.0757143
-0.102287
-0.164791
-0.179391
-0.811182
-0.66707
-0.56833
-0.703307
-0.849767
-0.983608
-1.09991
-1.18521
-1.2194
-1.19532
-1.12659
-1.01565
-0.872639
-0.695275
-0.489479
-0.261708
-0.0278644
0.20484
0.429415
0.602353
0.722578
0.79307
0.821758
0.811869
0.772556
0.698083
0.60516
0.480009
0.3664
0.198103
0.0831944
0.108525
0.161896
0.132945
0.215084
0.116585
0.456832
0.00594922
0.0158666
0.020505
0.027613
0.0319705
0.0377432
0.0427891
0.0487715
0.0548631
0.0615851
0.0686919
0.0763348
0.0844448
0.093012
0.101844
0.110595
0.118601
0.124853
0.128018
0.126719
0.120054
0.108193
0.0926689
0.0760841
0.0612835
0.0503252
0.0437773
0.0408411
0.039982
0.0395428
0.0380916
0.0344176
0.0274526
0.0162238
-0.000187792
-0.022698
-0.0524787
-0.0918225
-0.141703
-0.196245
-0.309841
-0.398554
-1.28212
-1.02589
-0.874498
-1.11352
-1.36017
-1.58924
-1.78626
-1.9156
-1.94344
-1.86785
-1.70595
-1.46076
-1.15108
-0.787947
-0.393179
0.0146929
0.408767
0.772588
1.08706
1.32312
1.48733
1.58301
1.61919
1.59373
1.516
1.37596
1.1969
0.958663
0.741247
0.452641
0.25775
0.324634
0.411864
0.379331
0.560079
0.377053
1.3718
0.00951404
0.0266109
0.0347514
0.0469621
0.0545861
0.0645457
0.0733072
0.0836324
0.0941562
0.105747
0.118001
0.131175
0.145161
0.159955
0.175268
0.190597
0.205015
0.21717
0.225378
0.228015
0.224126
0.213999
0.199297
0.182551
0.166257
0.151909
0.139473
0.127851
0.115745
0.102178
0.0865127
0.0680166
0.0455809
0.0177276
-0.017243
-0.0611237
-0.11591
-0.184479
-0.267634
-0.363598
-0.587932
-0.799054
-1.35885
-1.11558
-0.946181
-1.23383
-1.52465
-1.79427
-2.02416
-2.17039
-2.1938
-2.09479
-1.89162
-1.58715
-1.20583
-0.764317
-0.291158
0.190525
0.648865
1.06411
1.41176
1.66959
1.84792
1.95103
1.98885
1.95689
1.86394
1.69613
1.48272
1.19697
0.943256
0.627093
0.44083
0.53332
0.700224
0.641698
0.941932
0.642203
1.71701
0.0124525
0.0363709
0.0477015
0.0647936
0.0753885
0.0892628
0.101448
0.115812
0.130444
0.146549
0.163567
0.181852
0.201257
0.221771
0.242979
0.264146
0.283903
0.300254
0.31072
0.312936
0.305533
0.288957
0.265672
0.239458
0.214123
0.192122
0.17381
0.158034
0.143162
0.127634
0.109972
0.0884327
0.0608998
0.0250234
-0.0216098
-0.0814048
-0.15699
-0.251857
-0.366146
-0.497711
-0.812772
-1.21
-1.41295
-1.34821
-1.11561
-1.45742
-1.81724
-2.14536
-2.42365
-2.59967
-2.62525
-2.50196
-2.25155
-1.87763
-1.41113
-0.873191
-0.298622
0.284611
0.837831
1.33794
1.75495
2.06371
2.27668
2.39968
2.44503
2.40715
2.29601
2.09325
1.83633
1.49088
1.18745
0.817928
0.625322
0.739452
0.965578
0.900979
1.29552
0.920237
1.99376
0.0150845
0.0461909
0.0606963
0.0828259
0.0964647
0.114354
0.13006
0.148566
0.167415
0.188145
0.210041
0.233555
0.258498
0.284843
0.312021
0.339016
0.363977
0.384288
0.39688
0.399082
0.389719
0.369916
0.342991
0.313296
0.284694
0.259271
0.236858
0.215997
0.195079
0.172693
0.147382
0.117146
0.079356
0.0309983
-0.0310476
-0.10987
-0.208688
-0.33109
-0.476313
-0.645433
-1.04423
-1.59805
-1.35612
-1.59305
-1.29659
-1.69896
-2.14107
-2.53646
-2.87137
-3.08236
-3.11016
-2.95921
-2.65473
-2.20129
-1.63647
-0.987474
-0.296644
0.402034
1.06233
1.65679
2.14865
2.51243
2.76306
2.90793
2.9617
2.91707
2.78514
2.54292
2.23571
1.8224
1.4588
1.0222
0.812655
0.943362
1.23443
1.16562
1.65068
1.21501
2.32423
0.0172778
0.05572
0.0731677
0.100338
0.116903
0.138738
0.157883
0.180456
0.203438
0.228701
0.25537
0.283988
0.314322
0.346295
0.379138
0.411461
0.44084
0.463997
0.477345
0.478097
0.465483
0.441402
0.409904
0.375705
0.342683
0.312787
0.285747
0.260192
0.234695
0.207832
0.177764
0.141766
0.0963402
0.037646
-0.0381377
-0.134653
-0.255511
-0.404138
-0.57871
-0.781933
-1.23157
-1.87115
-1.22859
-1.8247
-1.46157
-1.91589
-2.44142
-2.90098
-3.28968
-3.53309
-3.56034
-3.38079
-3.02275
-2.49182
-1.83202
-1.07679
-0.275546
0.53194
1.29231
1.97403
2.5337
2.94728
3.23191
3.39659
3.45821
3.40755
3.25654
2.97744
2.6229
2.1459
1.72506
1.22828
1.00477
1.14671
1.49689
1.43302
1.9971
1.52552
2.67706
0.0190925
0.065212
0.085383
0.117677
0.137102
0.16288
0.185446
0.212084
0.239198
0.268983
0.300409
0.334096
0.36975
0.407203
0.445402
0.482493
0.515424
0.540354
0.553455
0.552253
0.536786
0.509851
0.475979
0.439756
0.404568
0.371878
0.341148
0.311114
0.280651
0.248485
0.212562
0.16958
0.115296
0.0451262
-0.0453783
-0.160321
-0.303545
-0.47807
-0.681067
-0.915847
-1.38559
-2.03662
-1.16901
-2.08291
-1.64042
-2.1302
-2.74587
-3.27025
-3.71304
-3.98933
-4.01488
-3.80574
-3.39345
-2.78492
-2.03058
-1.1701
-0.259471
0.655913
1.51565
2.28436
2.91217
3.3764
3.69567
3.88079
3.95103
3.89538
3.72658
3.41201
3.01144
2.47259
1.99478
1.43961
1.20124
1.349
1.75816
1.70491
2.34086
1.84789
3.01768
0.0204913
0.0746473
0.0972412
0.13472
0.156886
0.186566
0.212499
0.243164
0.274368
0.308624
0.34474
0.383395
0.424201
0.466821
0.509819
0.550788
0.586078
0.611476
0.623282
0.619732
0.601838
0.573064
0.537947
0.500522
0.463521
0.428016
0.393442
0.358904
0.323753
0.286878
0.24589
0.196733
0.134282
0.0531711
-0.0516184
-0.184499
-0.34933
-0.548594
-0.778657
-1.04188
-1.51008
-2.14616
-1.30545
-2.31813
-1.83348
-2.34333
-3.06026
-3.6522
-4.15079
-4.46183
-4.48504
-4.24493
-3.77648
-3.08824
-2.23706
-1.26919
-0.247009
0.778411
1.73949
2.59702
3.29442
3.8109
4.16603
4.37256
4.45235
4.39258
4.20673
3.85712
3.41033
2.8096
2.27273
1.6578
1.40232
1.55157
2.01716
1.98108
2.68113
2.1876
3.37691
0.0214718
0.0841249
0.108803
0.15155
0.176331
0.209879
0.239131
0.273796
0.309061
0.347749
0.388488
0.431986
0.477703
0.525027
0.572034
0.615738
0.652029
0.676666
0.686543
0.680947
0.661812
0.632864
0.598181
0.560933
0.523093
0.485369
0.447255
0.408349
0.36857
0.327009
0.280918
0.225454
0.154614
0.0623034
-0.0569468
-0.207689
-0.39361
-0.616621
-0.872655
-1.16255
-1.62251
-2.25264
-1.66834
-2.41283
-2.0316
-2.55075
-3.38077
-4.04315
-4.59776
-4.94445
-4.96404
-4.6912
-4.16456
-3.39469
-2.4448
-1.36815
-0.233272
0.903062
1.96606
2.91267
3.67963
4.24833
4.63958
4.86792
4.95799
4.89501
4.69308
4.30928
3.81652
3.15443
2.55701
1.88304
1.60817
1.75611
2.27533
2.2619
3.01962
2.54007
3.72536
0.0220041
0.0936897
0.120055
0.168158
0.195401
0.232769
0.265281
0.30391
0.343195
0.386256
0.431514
0.47965
0.529878
0.581193
0.631114
0.676152
0.712016
0.734901
0.74275
0.73599
0.717109
0.689568
0.656599
0.620345
0.582044
0.54217
0.500441
0.457127
0.41284
0.366882
0.316058
0.254622
0.175628
0.0722878
-0.0611937
-0.229326
-0.435449
-0.680949
-0.961759
-1.27718
-1.73031
-2.35728
-2.11359
-2.28184
-2.24459
-2.75679
-3.70855
-4.44577
-5.05604
-5.43856
-5.4529
-5.14534
-4.55827
-3.70468
-2.65415
-1.46743
-0.218836
1.02913
2.19443
3.23021
4.06685
4.68735
5.11494
5.36548
5.46662
5.40151
5.18469
4.76777
4.22947
3.50665
2.84752
2.11758
1.81924
1.96514
2.53309
2.54737
3.35697
2.90165
4.06371
0.022058
0.103413
0.131018
0.184575
0.214111
0.255244
0.290951
0.333508
0.376769
0.424124
0.473745
0.526194
0.580324
0.634627
0.686092
0.730933
0.765108
0.785778
0.792207
0.785715
0.768794
0.744189
0.714077
0.679545
0.641165
0.599284
0.553955
0.506257
0.457581
0.407443
0.352111
0.284832
0.197698
0.0833154
-0.0642797
-0.249377
-0.474848
-0.741659
-1.04615
-1.38645
-1.83751
-2.44682
-2.46003
-2.04657
-2.50836
-2.97111
-4.04454
-4.86353
-5.52963
-5.94765
-5.95466
-5.61016
-4.96011
-4.02027
-2.86667
-1.56807
-0.20425
1.15651
2.42488
3.55024
4.45674
5.12863
5.59296
5.8662
5.97931
5.91327
5.68281
5.23384
4.65029
3.86713
3.1451
2.36446
2.03643
2.18168
2.79123
2.83747
3.69428
3.27558
4.40856
0.0215889
0.113357
0.141694
0.200815
0.23245
0.277284
0.316114
0.362554
0.409729
0.46126
0.514989
0.57124
0.62838
0.68437
0.735813
0.778982
0.810637
0.829347
0.835605
0.831083
0.817743
0.797331
0.770914
0.738554
0.700251
0.656325
0.607276
0.555143
0.502202
0.448165
0.388635
0.315723
0.22054
0.0951891
-0.066286
-0.267807
-0.511726
-0.798723
-1.12585
-1.49047
-1.94487
-2.5245
-2.67252
-1.97766
-2.78136
-3.19864
-4.38711
-5.29823
-6.02149
-6.47416
-6.47092
-6.08675
-5.37089
-4.34191
-3.08237
-1.66979
-0.18897
1.28593
2.65822
3.87353
4.85004
5.57291
6.07389
6.37022
6.49622
6.43053
6.18778
5.70793
5.07936
4.23604
3.44995
2.6239
2.26099
2.40633
3.05019
3.13202
4.03224
3.65775
4.76646
0.0205421
0.123595
0.152094
0.216896
0.250417
0.298875
0.340752
0.39102
0.442022
0.497537
0.554964
0.614249
0.673206
0.729347
0.779168
0.81952
0.848531
0.866287
0.874036
0.8732
0.864839
0.849609
0.827509
0.797634
0.759491
0.71345
0.66055
0.603942
0.546885
0.489247
0.425797
0.347371
0.244115
0.107789
-0.0673676
-0.284804
-0.54638
-0.852652
-1.20155
-1.59016
-2.05394
-2.61116
-2.84972
-2.22825
-2.87328
-3.44365
-4.7365
-5.75134
-6.53468
-7.02097
-7.00355
-6.57621
-5.79137
-4.67002
-3.30131
-1.77238
-0.172587
1.4179
2.895
4.20058
5.2473
6.02068
6.55747
6.8773
7.01716
6.95319
6.69963
6.19015
5.51676
4.61327
3.76195
2.89348
2.49378
2.63763
3.31019
3.43073
4.37159
4.05232
5.14542
0.0188477
0.134204
0.162223
0.232834
0.268008
0.319999
0.364834
0.418855
0.473543
0.532729
0.593219
0.654471
0.713788
0.768437
0.815248
0.852276
0.879342
0.897697
0.9087
0.913057
0.910775
0.90145
0.884096
0.856883
0.818883
0.770572
0.713623
0.652479
0.591482
0.530574
0.463461
0.379558
0.268113
0.120762
-0.067869
-0.300717
-0.579268
-0.904142
-1.27419
-1.68663
-2.16516
-2.715
-3.02372
-2.63639
-2.69632
-3.74191
-5.09999
-6.2242
-7.07223
-7.59152
-7.55525
-7.08012
-6.22264
-5.00535
-3.52386
-1.87591
-0.154873
1.55286
3.13572
4.53191
5.64892
6.47228
7.04393
7.38737
7.54205
7.48127
7.2185
6.68076
5.96269
4.99879
4.08091
3.17163
2.73434
2.87457
3.57123
3.73312
4.71256
4.45742
5.55927
0.0164192
0.145272
0.172089
0.248644
0.285216
0.34063
0.388323
0.445982
0.504125
0.566476
0.629108
0.690984
0.749045
0.800656
0.843602
0.877659
0.904169
0.92489
0.940742
0.9515
0.956112
0.953213
0.94091
0.916458
0.878525
0.827734
0.766501
0.70077
0.636063
0.572236
0.501628
0.412099
0.292178
0.13367
-0.0682349
-0.316011
-0.610986
-0.954048
-1.34496
-1.78123
-2.2784
-2.83327
-3.18652
-2.95444
-2.49901
-4.13645
-5.49249
-6.71708
-7.63655
-8.1892
-8.12909
-7.60041
-6.66586
-5.34864
-3.75035
-1.98037
-0.135537
1.69128
3.38098
4.86811
6.05537
6.92836
7.53379
7.90018
8.07076
8.01477
7.74451
7.17997
6.41732
5.39249
4.4065
3.45706
2.98202
3.11637
3.83316
4.03862
5.05509
4.86689
5.95607
0.0131502
0.156895
0.181699
0.264339
0.302033
0.360735
0.411159
0.472272
0.533484
0.598235
0.661802
0.722761
0.777954
0.82538
0.864446
0.896704
0.924388
0.949129
0.971123
0.989183
1.00128
1.00518
0.998156
0.976503
0.9385
0.88495
0.819152
0.748806
0.680684
0.614278
0.540167
0.444609
0.315749
0.14593
-0.0689919
-0.331191
-0.642121
-1.00317
-1.41498
-1.87542
-2.39428
-2.96319
-3.35291
-3.21364
-2.60225
-4.52899
-5.92531
-7.229
-8.22947
-8.81701
-8.72842
-8.13933
-7.12233
-5.70059
-3.98107
-2.08573
-0.114245
1.83371
3.6314
5.20981
6.46715
7.38933
8.02735
8.41571
8.60312
8.55358
8.27768
7.68795
6.88069
5.79417
4.73825
3.74856
3.236
3.36233
4.0957
4.34652
5.3995
5.28059
6.35212
0.00891006
0.169184
0.19106
0.279929
0.318443
0.380265
0.433242
0.497505
0.561176
0.627274
0.690349
0.748785
0.799747
0.842604
0.878699
0.910823
0.941377
0.971493
1.00059
1.02661
1.04662
1.05762
1.05606
1.0372
0.99894
0.942283
0.871603
0.796665
0.725501
0.65678
0.578854
0.476532
0.338146
0.156937
-0.0706209
-0.346687
-0.673155
-1.05213
-1.48518
-1.97064
-2.51422
-3.1049
-3.54201
-3.52935
-3.0983
-4.72225
-6.40803
-7.76203
-8.8528
-9.47759
-9.35656
-8.69958
-7.59366
-6.06197
-4.21633
-2.192
-0.0906686
1.98068
3.88761
5.55766
6.88478
7.85547
8.52512
8.93431
9.13876
9.09749
8.81796
8.20478
7.35284
6.20353
5.07556
4.04494
3.49535
3.61172
4.35851
4.65603
5.74571
5.69442
6.78631
0.0035389
0.182265
0.200179
0.295418
0.334424
0.399139
0.45441
0.521327
0.586571
0.652722
0.713764
0.768187
0.814182
0.853068
0.887766
0.921488
0.956318
0.992812
1.02971
1.06416
1.09243
1.1108
1.11487
1.09878
1.06
0.999809
0.9239
0.844478
0.770716
0.699721
0.617208
0.50709
0.358633
0.166174
-0.0734593
-0.362763
-0.704375
-1.10133
-1.55619
-2.06802
-2.63972
-3.25905
-3.75588
-3.89376
-3.72633
-4.66819
-6.97865
-8.32474
-9.50808
-10.1728
-10.0162
-9.28401
-8.08188
-6.43373
-4.45648
-2.29918
-0.0644709
2.13276
4.15031
5.91233
7.30879
8.32709
9.02736
9.45599
9.67731
9.64628
9.36525
8.73055
7.83373
6.62023
5.41772
4.34497
3.75902
3.86375
4.62113
4.96631
6.09346
6.10637
7.22938
-0.00315882
0.196284
0.209065
0.310802
0.349933
0.417232
0.474387
0.543206
0.60888
0.673654
0.731132
0.780494
0.821761
0.858117
0.89319
0.929979
0.970118
1.01369
1.05889
1.10216
1.139
1.16501
1.1749
1.16149
1.12188
1.05762
0.976124
0.89246
0.816541
0.742867
0.654444
0.535386
0.376598
0.173352
-0.0776003
-0.379449
-0.735826
-1.15089
-1.62835
-2.16828
-2.77195
-3.42666
-3.99141
-4.27234
-4.26205
-4.58413
-7.6888
-8.93248
-10.1969
-10.905
-10.7099
-9.8953
-8.58936
-6.81703
-4.7019
-2.40728
-0.0353028
2.29054
4.42022
6.27456
7.73977
8.8045
9.53407
9.98106
10.219
10.1997
9.91941
9.26529
8.32325
7.04382
5.76393
4.64733
4.02585
4.11757
4.88306
5.27645
6.44224
6.51811
7.69975
-0.0114231
0.211405
0.217724
0.326061
0.364893
0.434328
0.492744
0.562444
0.62725
0.68916
0.741785
0.785919
0.823702
0.859343
0.896352
0.937281
0.983427
1.03457
1.08847
1.14093
1.18666
1.22059
1.23649
1.22567
1.18479
1.11581
1.02838
0.940891
0.863073
0.785578
0.689485
0.560605
0.391718
0.178502
-0.0828447
-0.396498
-0.767292
-1.20069
-1.70171
-2.2718
-2.91161
-3.60872
-4.24731
-4.65754
-4.73367
-4.75534
-8.53475
-9.60121
-10.9185
-11.6755
-11.4396
-10.5359
-9.11864
-7.21336
-4.95307
-2.51631
-0.00280279
2.45466
4.69808
6.64511
8.1783
9.28802
10.0452
10.5097
10.7639
10.7571
10.4802
9.80897
8.82126
7.4738
6.11325
4.95065
4.29458
4.37224
5.14376
5.58551
6.79118
6.92681
8.18249
-0.0215505
0.227819
0.226159
0.341148
0.379168
0.450088
0.50888
0.578256
0.640824
0.698449
0.745615
0.785471
0.82161
0.858223
0.898312
0.944086
0.996698
1.05578
1.11876
1.1808
1.23578
1.27796
1.30007
1.29165
1.24893
1.1744
1.0808
0.990089
0.910053
0.826706
0.721193
0.582274
0.404091
0.182016
-0.0886905
-0.413399
-0.798313
-1.25037
-1.77612
-2.37867
-3.05896
-3.80571
-4.52418
-5.06084
-5.26972
-5.36634
-9.42563
-10.3389
-11.6714
-12.4855
-12.2056
-11.2073
-9.67227
-7.62448
-5.21066
-2.62631
0.0334038
2.62575
4.98471
7.0248
8.62502
9.77799
10.5608
11.0417
11.3115
11.3184
11.0473
10.3616
9.32752
7.90955
6.46461
5.25346
4.56383
4.62672
5.40261
5.89259
7.13974
7.32772
8.62452
-0.0339111
0.245738
0.234358
0.355973
0.392519
0.464006
0.522089
0.589868
0.648773
0.7011
0.743328
0.780717
0.817058
0.855906
0.899813
0.950864
1.01026
1.07763
1.1501
1.22213
1.28677
1.33757
1.36612
1.35982
1.31445
1.23335
1.13356
1.04023
0.956567
0.86472
0.748738
0.600447
0.414251
0.184615
-0.094366
-0.429409
-0.828233
-1.29941
-1.85123
-2.4887
-3.21382
-4.01718
-4.82151
-5.4902
-5.91675
-6.41871
-10.2494
-11.1435
-12.4577
-13.3421
-13.0116
-11.9101
-10.2523
-8.05235
-5.47557
-2.73737
0.0737062
2.80451
5.28096
7.4145
9.08062
10.2747
11.0807
11.5765
11.8622
11.8837
11.6204
10.923
9.84176
8.3504
6.81686
5.55418
4.83216
4.87996
5.65899
6.19678
7.48718
7.72021
9.13031
-0.0489734
0.265402
0.242288
0.370362
0.404562
0.475445
0.531673
0.596509
0.650432
0.697436
0.736367
0.77332
0.811297
0.853187
0.90134
0.957941
1.0244
1.10042
1.18283
1.26538
1.34014
1.39999
1.43517
1.4305
1.3813
1.29248
1.18693
1.09101
1.00089
0.89817
0.771948
0.615744
0.42311
0.187293
-0.0988951
-0.44363
-0.856286
-1.34722
-1.92659
-2.6015
-3.37561
-4.24195
-5.13766
-5.94712
-6.65733
-7.74154
-10.8861
-12.0067
-13.2815
-14.2516
-13.8651
-12.646
-10.86
-8.49883
-5.749
-2.84971
0.118498
2.99166
5.58774
7.81515
9.5458
10.7786
11.6049
12.1138
12.4156
12.4529
12.1991
11.4933
10.3636
8.79555
7.16869
5.85118
5.09801
5.13084
5.9122
6.49718
7.83228
8.10824
9.5915
-0.0673394
0.287063
0.249859
0.384017
0.414752
0.483763
0.536977
0.597411
0.645688
0.688651
0.726461
0.764658
0.805191
0.850577
0.903218
0.96558
1.0394
1.12448
1.2174
1.31106
1.39646
1.46582
1.50777
1.50391
1.44913
1.35152
1.24104
1.14109
1.04081
0.926307
0.791428
0.629243
0.431851
0.191218
-0.101191
-0.45511
-0.88168
-1.39315
-2.00164
-2.71651
-3.54345
-4.47837
-5.47051
-6.42934
-7.44794
-9.09531
-11.2787
-12.9357
-14.148
-15.2135
-14.7715
-13.4186
-11.4965
-8.96527
-6.03227
-2.96374
0.168158
3.18794
5.90603
8.22775
10.0214
11.2898
12.1331
12.653
12.9711
13.0253
12.7827
12.0722
10.8927
9.24415
7.51868
6.14271
5.35976
5.37825
6.16157
6.793
8.17475
8.49112
10.0855
-0.0897899
0.31097
0.256886
0.396473
0.422482
0.488423
0.537289
0.59206
0.635318
0.676471
0.715138
0.755687
0.799282
0.848402
0.905693
0.974034
1.05555
1.15022
1.2543
1.35975
1.4564
1.53575
1.5844
1.57989
1.51718
1.41031
1.29546
1.18792
1.07449
0.949476
0.80841
0.642308
0.441804
0.197621
-0.10017
-0.462951
-0.903703
-1.43662
-2.07586
-2.83305
-3.71632
-4.72464
-5.81778
-6.93221
-8.24016
-10.256
-11.4891
-13.953
-15.0716
-16.2266
-15.7331
-14.2315
-12.1635
-9.4525
-6.32659
-3.08005
0.223013
3.39415
6.23686
8.65339
10.5081
11.8089
12.6651
13.1936
13.5281
13.6009
13.3712
12.6597
11.4285
9.69523
7.8653
6.42696
5.61572
5.62108
6.40639
7.08349
8.51298
8.87112
10.6699
-0.117331
0.337318
0.263033
0.407129
0.427251
0.488916
0.531883
0.580732
0.620932
0.662599
0.703485
0.746993
0.793899
0.846892
0.908996
0.983581
1.07323
1.17809
1.29408
1.41212
1.52065
1.61044
1.66535
1.65769
1.58435
1.46876
1.34836
1.22838
1.10144
0.969026
0.824472
0.656421
0.454314
0.207673
-0.0948753
-0.466414
-0.921796
-1.47716
-2.14871
-2.95045
-3.89312
-4.979
-6.17737
-7.45058
-9.00022
-11.1304
-11.71
-15.0979
-16.075
-17.2922
-16.7503
-15.0866
-12.863
-9.96099
-6.63275
-3.1993
0.283327
3.61114
6.58137
9.09326
11.007
12.3362
13.2006
13.7348
14.0857
14.1797
13.9649
13.2555
11.9706
10.1477
8.20686
6.702
5.86415
5.85824
6.64601
7.36802
8.84532
9.24526
11.1135
-0.151212
0.366147
0.26778
0.415379
0.428609
0.484459
0.520275
0.564558
0.604353
0.648282
0.692151
0.738919
0.789262
0.846255
0.913372
0.994534
1.09281
1.20858
1.33738
1.46888
1.58996
1.69048
1.75036
1.73572
1.64961
1.52624
1.3962
1.26025
1.12283
0.98686
0.841276
0.673025
0.470608
0.222353
-0.0845838
-0.465001
-0.9356
-1.51444
-2.21976
-3.06801
-4.07279
-5.2398
-6.54725
-7.97984
-9.72163
-11.8046
-12.1465
-16.4017
-17.1768
-18.4122
-17.823
-15.9846
-13.5967
-10.4912
-6.95111
-3.32206
0.349305
3.83979
6.94077
9.54865
11.519
12.872
13.7394
14.276
14.643
14.7612
14.5638
13.8598
12.5181
10.6003
8.54154
6.96584
6.1033
6.08871
6.87981
7.64606
9.17088
9.6142
11.6047
-0.192826
0.397161
0.270511
0.420757
0.425924
0.474604
0.503573
0.545411
0.587036
0.634301
0.681506
0.731666
0.78555
0.84671
0.919101
1.00724
1.11475
1.24226
1.38486
1.53081
1.66506
1.77618
1.83825
1.81166
1.71233
1.58048
1.43484
1.28359
1.14101
1.00495
0.860378
0.693384
0.491658
0.242341
-0.0688812
-0.458482
-0.944948
-1.54822
-2.2886
-3.1851
-4.25432
-5.50555
-6.92535
-8.51612
-10.4155
-12.4533
-12.9327
-17.7936
-18.3919
-19.5889
-18.951
-16.9251
-14.3658
-11.0435
-7.28172
-3.44853
0.421167
4.08111
7.31644
10.021
12.0452
13.4168
14.281
14.8163
15.199
15.3447
15.167
14.4723
13.0704
11.0517
8.86733
7.21636
6.33144
6.31158
7.10727
7.91713
9.4885
9.98223
12.0844
-0.243355
0.429506
0.270693
0.423006
0.418498
0.457753
0.482208
0.525103
0.569974
0.620963
0.67173
0.725394
0.78296
0.848506
0.926487
1.02207
1.1395
1.27968
1.43724
1.59866
1.74651
1.86717
1.92651
1.8832
1.77177
1.627
1.4618
1.30083
1.15858
1.02505
0.883082
0.718452
0.518086
0.267954
-0.0476729
-0.44686
-0.949809
-1.57832
-2.35484
-3.30105
-4.43674
-5.77474
-7.30926
-9.05476
-11.0905
-13.1628
-14.1542
-19.1543
-19.7138
-20.8243
-20.1352
-17.908
-15.1704
-11.6181
-7.62442
-3.57852
0.499261
4.33616
7.70992
10.5119
12.5868
13.9711
14.8249
15.3546
15.7525
15.9295
15.7741
15.0925
13.6265
11.5003
9.18206
7.4513
6.54683
6.52603
7.32795
8.18071
9.79656
10.3451
12.6288
-0.302925
0.461576
0.267746
0.420755
0.403103
0.434051
0.459293
0.503851
0.553683
0.608533
0.662963
0.720265
0.781711
0.851906
0.935838
1.0394
1.16751
1.32142
1.49519
1.67314
1.83456
1.96188
2.0114
1.94899
1.82549
1.66068
1.47812
1.31562
1.17776
1.04853
0.910314
0.748776
0.550104
0.299152
-0.0211229
-0.430283
-0.950199
-1.60456
-2.41805
-3.41518
-4.619
-6.04576
-7.69604
-9.59013
-11.7488
-13.9431
-15.7156
-20.3582
-21.109
-22.1193
-21.3768
-18.9342
-16.0101
-12.2149
-7.97882
-3.71153
0.58415
4.60617
8.123
11.0232
13.1453
14.5353
15.3707
15.8899
16.3024
16.5148
16.385
15.721
14.1853
11.9442
9.48332
7.66826
6.7478
6.73143
7.5416
8.43636
10.0933
10.7054
13.0733
-0.369228
0.490898
0.261149
0.413846
0.379877
0.408645
0.436974
0.482774
0.538452
0.597098
0.655383
0.716489
0.782037
0.85717
0.947446
1.05956
1.1992
1.36803
1.55938
1.75479
1.92867
2.05699
2.0891
2.00835
1.86835
1.67903
1.48803
1.33125
1.2001
1.07629
0.94254
0.784464
0.587547
0.335629
0.0104682
-0.408922
-0.946076
-1.62665
-2.47771
-3.52671
-4.79997
-6.31671
-8.0821
-10.116
-12.3905
-14.7826
-17.4426
-21.2734
-22.5484
-23.4742
-22.676
-20.0055
-16.8848
-12.8335
-8.34439
-3.8469
0.67663
4.89252
8.55775
11.5569
13.7221
15.11
15.9176
16.4209
16.8473
17.0998
17
16.3584
14.7454
12.3812
9.76835
7.86459
6.93272
6.92733
7.74819
8.6837
10.3775
11.062
13.5373
-0.43618
0.514501
0.250976
0.400752
0.352927
0.383904
0.414873
0.462695
0.524451
0.586822
0.649171
0.714263
0.784158
0.864532
0.961569
1.08285
1.23494
1.41997
1.63036
1.84377
2.02696
2.14743
2.15746
2.05919
1.89444
1.68453
1.49668
1.3499
1.2265
1.10873
0.979762
0.825238
0.629989
0.376962
0.0468129
-0.382844
-0.937257
-1.64416
-2.53316
-3.63475
-4.97831
-6.58534
-8.46319
-10.6259
-13.0134
-15.6427
-19.0899
-21.8216
-24.0116
-24.8945
-24.0318
-21.1237
-17.7946
-13.4732
-8.72046
-3.98396
0.777669
5.19674
9.01653
12.1157
14.3192
15.6959
16.465
16.9465
17.3856
17.6835
17.6191
17.0054
15.3051
12.8085
10.034
8.03731
7.1
7.11353
7.94805
8.92257
10.6471
11.4039
13.9479
-0.494151
0.529712
0.234918
0.381935
0.326657
0.359164
0.392551
0.443863
0.511646
0.577879
0.644524
0.713781
0.788269
0.874186
0.978407
1.1095
1.27502
1.47763
1.7085
1.93957
2.12546
2.2279
2.21622
2.09615
1.90144
1.68351
1.50793
1.37257
1.25728
1.14572
1.0216
0.870582
0.676923
0.422784
0.0877696
-0.351933
-0.923378
-1.65652
-2.58361
-3.73821
-5.15244
-6.84892
-8.83436
-11.1138
-13.6136
-16.4715
-20.4066
-22.0634
-25.5241
-26.3993
-25.4428
-22.2903
-18.7405
-14.1332
-9.10625
-4.12182
0.888372
5.52048
9.50198
12.7024
14.9388
16.2937
17.0121
17.4649
17.9158
18.2649
18.2418
17.6617
15.8625
13.2226
10.2764
8.183
7.24809
7.29027
8.14209
9.15317
10.9008
11.7372
14.2558
-0.532585
0.535449
0.210784
0.360882
0.301093
0.334805
0.370016
0.426854
0.500314
0.570498
0.641616
0.715214
0.79453
0.886278
0.998098
1.13965
1.31963
1.54127
1.79388
2.04031
2.21795
2.29548
2.2643
2.1126
1.89334
1.68269
1.5235
1.39944
1.29218
1.18679
1.06748
0.919948
0.727944
0.472922
0.133425
-0.315851
-0.90388
-1.66297
-2.62811
-3.83587
-5.32051
-7.10423
-9.19023
-11.5745
-14.1871
-17.2288
-21.2782
-22.2743
-27.1775
-28.0225
-26.9079
-23.5051
-19.7234
-14.8127
-9.50099
-4.25936
1.00996
5.86545
10.0169
13.3205
15.5835
16.9044
17.5579
17.9748
18.436
18.8428
18.8678
18.3274
16.4146
13.6193
10.491
8.29755
7.37539
7.45824
8.33185
9.37578
11.1363
12.0555
14.5461
-0.54468
0.525352
0.185444
0.338821
0.275863
0.311472
0.346937
0.411719
0.490513
0.564872
0.640625
0.718719
0.80307
0.9009
1.0207
1.17334
1.36882
1.61095
1.88599
2.14196
2.29766
2.35076
2.29656
2.10591
1.87868
1.68615
1.54354
1.43014
1.33065
1.23134
1.11686
0.972937
0.782886
0.527466
0.184118
-0.274047
-0.878043
-1.66264
-2.66562
-3.92635
-5.4804
-7.34753
-9.52544
-12.0044
-14.731
-17.9124
-21.8578
-22.7997
-29.0366
-29.8062
-28.4263
-24.766
-20.7433
-15.5112
-9.90396
-4.39529
1.14381
6.23341
10.5644
13.9738
16.2565
17.529
18.1016
18.4743
18.9442
19.416
19.497
19.0022
16.9581
13.9929
10.6714
8.37568
7.48045
7.61868
8.51919
9.59028
11.3493
12.3413
14.7364
-0.528531
0.494554
0.164521
0.31548
0.251776
0.29003
0.324208
0.398989
0.4825
0.561243
0.641716
0.724429
0.813975
0.918082
1.04618
1.2105
1.42252
1.6865
1.9832
2.23784
2.36079
2.39456
2.30527
2.08107
1.86564
1.6948
1.56747
1.46399
1.37206
1.27886
1.16938
1.02943
0.841876
0.586778
0.240408
-0.225807
-0.845028
-1.65457
-2.69501
-4.00817
-5.62971
-7.57475
-9.83542
-12.4024
-15.2462
-18.5506
-22.4424
-23.9407
-30.9559
-31.7814
-29.9987
-26.07
-21.7997
-16.2279
-10.3146
-4.5283
1.29144
6.62619
11.1474
14.6668
16.9618
18.1691
18.642
18.9616
19.4383
19.9834
20.1291
19.6854
17.4881
14.3362
10.8097
8.41074
7.56113
7.77347
8.7063
9.79534
11.5343
12.5971
14.7759
-0.490172
0.452598
0.147341
0.291297
0.229563
0.270895
0.302752
0.388824
0.476438
0.559822
0.645046
0.732459
0.827291
0.93779
1.07443
1.25095
1.48047
1.76731
2.08187
2.32008
2.40857
2.42246
2.28605
2.04859
1.85846
1.70787
1.59447
1.50033
1.41594
1.32907
1.22501
1.08962
0.905322
0.651446
0.303017
-0.17031
-0.803935
-1.63778
-2.71515
-4.07981
-5.76577
-7.78184
-10.1174
-12.7698
-15.7349
-19.1689
-23.1701
-25.8027
-32.6886
-33.9479
-31.6288
-27.4148
-22.8909
-16.9617
-10.7321
-4.65723
1.45449
7.04579
11.7691
15.4041
17.7041
18.8265
19.1779
19.4345
19.9161
20.5434
20.7645
20.376
17.9983
14.6399
10.8936
8.3945
7.61574
7.92662
8.89529
9.98734
11.6834
12.7943
14.7808
-0.441004
0.410105
0.132282
0.267158
0.209706
0.254396
0.284259
0.381456
0.472612
0.560839