/*--------------------------------*- C++ -*----------------------------------*\
| =========                 |                                                 |
| \\      /  F ield         | OpenFOAM: The Open Source CFD Toolbox           |
|  \\    /   O peration     | Version:  4.1                                   |
|   \\  /    A nd           | Web:      www.OpenFOAM.org                      |
|    \\/     M anipulation  |                                                 |
\*---------------------------------------------------------------------------*/
FoamFile
{
    version     2.0;
    format      ascii;
    class       volVectorField;
    location    "18";
    object      U;
}
// * * * * * * * * * * * * * * * * * * * * * * * * * * * * * * * * * * * * * //

dimensions      [0 1 -1 0 0 0 0];

internalField   nonuniform List<vector> 
6785
(
(1.23792e-14 -1.96382 16.3451)
(1.11341e-14 -7.70375 12.7837)
(-3.2198e-15 -5.07917 13.5045)
(3.31306e-15 -4.94199 13.0573)
(9.15064e-16 -4.20964 12.8919)
(-7.44216e-17 -3.78173 12.6054)
(2.85587e-15 -3.38157 12.3125)
(5.50219e-16 -3.09462 11.994)
(-8.35234e-16 -2.90869 11.6772)
(1.74636e-15 -2.84589 11.3699)
(2.99904e-16 -2.85077 11.0954)
(-3.8499e-16 -2.93713 10.7927)
(1.18387e-15 -3.42911 10.1226)
(7.69551e-18 -3.35584 9.11741)
(-3.82663e-16 0.17843 7.44607)
(1.93898e-14 -9.75601 26.5375)
(1.30862e-14 -16.2101 22.8744)
(-2.92853e-15 -11.1088 23.252)
(4.22414e-15 -11.784 21.5067)
(7.17547e-16 -10.1585 20.648)
(8.28629e-16 -9.45922 19.4763)
(1.98534e-15 -8.48972 18.4334)
(-2.69128e-17 -7.67871 17.3782)
(-1.92087e-16 -6.87208 16.3461)
(5.71964e-16 -6.10354 15.2532)
(-3.55766e-16 -5.3317 13.9809)
(-3.7962e-16 -4.62892 12.3128)
(2.16034e-16 -4.17998 10.0269)
(-4.18303e-16 -3.62008 7.04198)
(-4.59149e-16 -1.41782 2.64633)
(2.09584e-14 -12.615 28.3972)
(1.08232e-14 -16.9818 25.2654)
(-1.79566e-15 -12.0922 25.319)
(3.85897e-15 -13.0787 22.9297)
(5.32314e-16 -11.016 21.9397)
(1.3133e-15 -10.495 20.3274)
(1.0876e-15 -9.4051 19.0819)
(-2.44223e-16 -8.66402 17.7923)
(3.21567e-16 -7.79353 16.4834)
(2.8751e-16 -6.60835 14.4821)
(2.47429e-18 -4.36575 10.6133)
(1.32772e-15 -0.928519 4.22502)
(2.7678e-16 2.09032 -1.6983)
(-2.69258e-15 2.64756 -3.00382)
(-3.53019e-15 1.46585 -2.2819)
(2.06972e-14 -13.5924 28.4328)
(1.07367e-14 -17.5666 26.0309)
(-1.74135e-15 -12.8348 25.6655)
(4.05496e-15 -14.3854 22.8729)
(7.40242e-16 -11.9675 22.0087)
(1.35866e-15 -11.9193 20.0698)
(1.32435e-15 -10.7616 18.8059)
(3.80532e-16 -10.2193 17.3699)
(2.63323e-16 -9.48523 16.0483)
(5.83035e-16 -8.60183 14.299)
(9.69467e-16 -6.92923 11.3346)
(1.01488e-15 -3.98285 6.46464)
(1.67555e-15 -0.854675 1.63029)
(5.45274e-15 2.88345 -2.51847)
(-3.40743e-15 2.01803 -5.66855)
(1.941e-14 -13.4795 27.0167)
(1.2378e-14 -17.8015 26.8129)
(-1.19697e-15 -13.2835 25.4427)
(3.47696e-15 -14.468 22.5282)
(1.40359e-15 -12.2342 21.5437)
(1.19076e-15 -12.1139 19.4948)
(1.51519e-15 -10.9817 18.0769)
(9.4006e-16 -10.3449 16.4721)
(2.23324e-16 -9.59619 14.9852)
(4.13642e-16 -8.81676 13.3834)
(7.23178e-16 -7.79976 11.3583)
(2.42561e-16 -6.07785 8.58446)
(1.64738e-17 -4.09132 5.29872)
(-6.16973e-16 -0.994432 1.6376)
(2.51268e-15 1.02873 -3.91406)
(1.84611e-14 -12.8246 24.8366)
(1.39074e-14 -17.4033 26.8898)
(1.6926e-16 -13.3224 24.7872)
(2.62591e-15 -13.8336 21.7638)
(1.89383e-15 -11.8959 20.6242)
(1.4609e-15 -11.5685 18.6093)
(1.57645e-15 -10.4718 17.0874)
(1.51806e-15 -9.70688 15.4178)
(1.01182e-15 -8.89343 13.8624)
(3.09921e-16 -8.08581 12.3505)
(6.77412e-16 -7.27215 10.7533)
(9.34201e-16 -6.15565 8.9609)
(-1.66576e-16 -4.84923 6.65517)
(-4.533e-16 -2.55113 3.67683)
(8.40259e-15 -0.257264 -1.70807)
(1.95256e-14 -12.1855 23.2183)
(1.57972e-14 -16.7712 26.4399)
(2.56873e-15 -13.1999 24.1506)
(2.10223e-15 -13.261 21.0412)
(2.78582e-15 -11.5296 19.8)
(3.73067e-15 -11.1123 17.8592)
(2.25567e-15 -10.1068 16.3705)
(2.28998e-15 -9.39399 14.8404)
(3.34523e-15 -8.66705 13.4226)
(1.95122e-15 -7.94239 12.0604)
(1.70176e-15 -7.24907 10.7093)
(3.38998e-15 -6.45071 9.41453)
(2.26923e-15 -5.58893 7.94511)
(-1.58263e-15 -4.07124 6.08945)
(8.88694e-15 -1.66713 1.53994)
(1.90951e-14 -11.8489 22.551)
(1.61795e-14 -15.9685 25.5242)
(2.3131e-15 -12.6895 23.3567)
(2.31591e-15 -12.6729 20.2093)
(2.87961e-15 -10.8067 19.0105)
(3.69946e-15 -10.4766 16.9771)
(2.84263e-15 -9.3539 15.5817)
(2.42361e-15 -8.80541 13.9857)
(2.79178e-15 -8.16402 12.5752)
(2.22995e-15 -7.6982 11.307)
(1.38399e-15 -7.34366 10.3843)
(1.49239e-15 -7.0977 9.90114)
(2.15659e-15 -6.78971 9.65822)
(-1.36783e-15 -5.99928 9.02992)
(2.32372e-15 -3.71558 5.61276)
(1.9755e-14 -12.3202 23.1504)
(1.29308e-14 -15.0238 24.6947)
(1.10577e-16 -12.2358 22.7668)
(2.72537e-15 -12.0081 20.0959)
(2.0832e-15 -10.1329 18.8207)
(1.17751e-15 -9.34935 16.4753)
(2.18463e-15 -7.55141 14.1682)
(1.33406e-15 -6.35237 11.5112)
(-2.54641e-16 -5.3705 9.68256)
(1.33093e-15 -5.27007 8.91171)
(3.49128e-16 -5.88127 9.48511)
(-1.85537e-15 -6.92602 10.8464)
(1.13823e-15 -7.75347 12.3779)
(-1.5576e-15 -8.06856 12.7822)
(-2.50653e-15 -5.67506 9.91598)
(1.91192e-14 -13.6057 25.2764)
(9.66069e-15 -15.4767 25.7665)
(-1.47152e-15 -12.5814 23.8151)
(1.56166e-15 -12.3668 21.9812)
(9.47902e-16 -10.6202 20.8197)
(-3.66085e-16 -9.39879 18.3979)
(4.79133e-16 -7.02181 15.3868)
(1.09068e-15 -4.94607 11.9826)
(7.5424e-16 -3.00878 9.22028)
(1.62788e-15 -1.66524 7.02921)
(9.72385e-16 -1.12749 6.05035)
(-1.64402e-15 -2.13342 7.14088)
(-2.48863e-15 -4.56234 10.1085)
(-2.3141e-15 -6.90868 12.614)
(-2.82621e-15 -5.37817 10.5087)
(1.79944e-14 -13.6217 24.9091)
(1.19193e-14 -18.0053 29.2535)
(-5.72066e-16 -14.4929 26.359)
(1.55685e-15 -14.0902 24.2314)
(6.15091e-16 -12.5374 23.2383)
(1.6612e-17 -11.6678 21.1287)
(2.88267e-16 -9.50772 18.433)
(1.09251e-15 -7.46526 15.0786)
(2.56461e-15 -5.21351 12.009)
(2.81559e-15 -3.14085 8.92709)
(4.22123e-15 -1.01635 5.8162)
(5.694e-15 0.738223 2.87971)
(3.98392e-15 1.35872 1.41413)
(2.11487e-15 -0.0617873 2.68001)
(-1.48463e-15 -1.43903 4.01962)
(1.56793e-14 -11.1823 19.7623)
(1.58128e-14 -18.7387 29.8815)
(5.24735e-15 -16.9371 28.5783)
(2.15763e-15 -15.6418 25.4676)
(3.60305e-16 -14.1359 23.7077)
(1.21169e-15 -13.4262 21.8643)
(1.03554e-15 -12.1106 19.89)
(1.20671e-16 -10.7103 17.4203)
(2.0154e-15 -8.99689 14.8443)
(2.42937e-15 -7.1812 12.1005)
(2.58281e-15 -5.10109 9.09851)
(5.7753e-15 -2.67629 5.59426)
(4.11693e-15 0.333161 1.41306)
(2.64468e-15 3.60241 -3.16118)
(-6.02159e-16 1.47369 -3.84891)
(1.2725e-14 -7.8304 13.1786)
(1.797e-14 -17.2663 27.5441)
(1.03215e-14 -17.8194 29.0291)
(4.21759e-15 -16.3426 25.8683)
(1.14399e-15 -14.7177 23.1452)
(1.12663e-15 -13.7669 20.9613)
(9.74014e-16 -12.8348 19.0971)
(8.10741e-16 -11.8733 17.1836)
(1.37551e-15 -10.7682 15.1856)
(1.19865e-15 -9.52331 13.0972)
(1.26012e-15 -8.15281 10.8905)
(1.86955e-15 -6.52788 8.55198)
(1.34942e-15 -4.71763 5.8709)
(1.91854e-15 -2.32721 3.09226)
(-8.1558e-16 -0.259154 -1.38288)
(9.53092e-15 -4.33093 6.32278)
(1.83335e-14 -14.8174 24.0823)
(1.09947e-14 -16.7047 27.3786)
(3.08272e-15 -14.8222 23.96)
(5.72179e-16 -12.7992 20.7609)
(8.60806e-16 -11.6907 18.7076)
(1.06655e-15 -10.9205 17.3066)
(1.79241e-15 -10.2519 15.9967)
(1.90042e-15 -9.54739 14.6238)
(1.44256e-15 -8.75452 13.1952)
(6.79127e-16 -7.92604 11.7079)
(2.85306e-16 -6.94415 10.1735)
(8.29465e-16 -5.86593 8.35814)
(5.37987e-16 -4.2246 6.17905)
(-1.00714e-15 -1.99536 2.05447)
(5.1313e-15 -3.44553 6.81999)
(1.80701e-14 -14.5405 23.7213)
(1.67116e-14 -18.683 28.8435)
(9.53496e-15 -19.0035 27.309)
(3.34768e-15 -17.5019 23.8384)
(9.14959e-16 -15.7435 20.6123)
(-1.32957e-16 -14.2108 18.0369)
(-6.49476e-16 -12.846 15.9484)
(-4.037e-17 -11.5349 14.183)
(4.98497e-16 -10.2799 12.6226)
(-2.82162e-16 -9.04005 11.1213)
(-9.01334e-16 -7.76434 9.66529)
(-1.46378e-15 -6.5413 8.47981)
(-2.51762e-15 -5.46619 7.27969)
(-3.80973e-15 -2.54826 4.36782)
(-1.02331e-18 13.6137 59.3586)
(-4.065e-17 0.091734 6.71851)
(-7.47268e-17 -0.643358 -3.33349)
(-8.30957e-17 -0.410812 -2.11062)
(-9.976e-17 -0.257114 -2.43791)
(-1.7517e-16 0.380928 -3.14858)
(-1.20493e-16 0.0935262 -2.15784)
(-6.81339e-17 0.343758 -2.16312)
(-2.07647e-16 0.492257 -2.14241)
(1.15285e-15 0.983306 -2.84664)
(1.3069e-15 0.798351 -2.01532)
(1.1846e-15 0.983967 -1.93052)
(1.02268e-15 1.49317 -2.47145)
(7.49159e-16 1.21619 -1.72732)
(7.61663e-16 1.45305 -1.71434)
(7.7318e-16 1.49029 -1.67496)
(6.90421e-16 1.94229 -2.0596)
(6.76298e-16 1.64156 -1.42769)
(6.76618e-16 1.80543 -1.33675)
(7.59713e-16 2.29756 -1.55016)
(6.20385e-16 1.8229 -1.03393)
(5.86754e-16 2.0685 -0.969131)
(6.79475e-16 2.01761 -0.898974)
(8.27613e-16 2.48471 -0.938401)
(6.23929e-16 1.96807 -0.5999)
(6.24976e-16 2.18852 -0.538857)
(4.48336e-16 2.11438 -0.503736)
(5.55368e-16 2.49195 -0.429393)
(2.73327e-16 2.00382 -0.26701)
(2.05351e-16 2.1019 -0.263)
(2.59735e-16 2.47449 -0.0939163)
(5.42785e-18 1.87494 -0.0776748)
(-2.02983e-17 2.04809 -0.0699432)
(-2.00394e-16 1.96958 -0.105664)
(-3.85328e-16 2.2376 0.0876211)
(-3.98475e-16 1.73617 0.0241747)
(-4.53291e-16 1.81818 -0.0263742)
(-7.50179e-16 2.06583 0.205237)
(-6.63862e-16 1.51568 0.0808457)
(-7.86145e-16 1.64566 0.0709547)
(-6.91206e-16 1.5819 0.0215881)
(-1.07117e-15 1.78784 0.247086)
(-8.90193e-16 1.32719 0.1156)
(-9.63814e-16 1.44357 0.104571)
(-1.00556e-15 1.37929 0.0570569)
(-1.51365e-15 1.60035 0.227143)
(-1.40766e-15 1.30983 0.215009)
(-1.39348e-15 1.34687 0.170509)
(-2.16074e-15 1.52861 0.385958)
(-1.42103e-15 1.19038 0.288293)
(-1.44609e-15 1.25606 0.292414)
(-1.43596e-15 1.20202 0.262337)
(-2.03373e-15 1.24664 0.432998)
(-1.5041e-15 0.912724 0.210977)
(-1.59246e-15 0.948472 0.205323)
(-1.29733e-15 0.928978 0.242591)
(-1.65415e-15 0.829039 -0.033241)
(-9.49473e-16 0.50267 -0.45743)
(-1.43078e-15 0.418381 -0.196714)
(-1.44302e-15 1.1157 -2.10484)
(-1.97707e-16 -0.120515 -2.24087)
(3.4199e-16 -0.227408 -1.74204)
(6.34866e-16 0.42707 -1.55625)
(-4.33177e-18 0.201426 -1.10144)
(-1.77508e-15 -0.993756 1.41423)
(-1.69923e-15 -0.637164 1.32532)
(-2.22524e-15 -1.54001 3.71406)
(-1.50278e-15 -2.17319 4.19834)
(-1.34287e-15 -2.44698 4.17928)
(-1.21318e-15 -2.41682 4.33074)
(-1.04001e-15 -3.92086 7.20458)
(-4.39471e-16 -4.24861 6.14444)
(-3.34891e-16 -4.80958 6.25113)
(-2.54415e-16 -4.69573 6.41394)
(-6.43748e-17 -7.04664 9.97995)
(-1.98734e-17 -7.00625 8.0151)
(-2.35804e-16 -7.09076 8.61757)
(-3.97335e-16 -9.81464 12.7488)
(-4.94145e-16 -9.4403 9.95693)
(-8.0112e-16 -9.83384 10.8681)
(-1.44907e-15 -10.6126 12.9537)
(-1.27745e-15 -10.4821 12.7723)
(-1.29854e-15 -10.5782 13.1515)
(-1.95831e-17 -12.1286 15.5335)
(-7.93132e-16 -11.1522 14.252)
(-3.70637e-16 -11.3887 14.7615)
(-1.95703e-16 -11.3755 14.8226)
(3.53356e-17 -11.4685 14.8561)
(2.58068e-16 -11.5259 14.8614)
(4.51249e-16 -11.6083 14.886)
(6.57626e-16 -11.6916 14.9995)
(8.47574e-16 -11.7183 15.2105)
(1.74321e-15 -12.5848 16.6981)
(1.05414e-15 -12.0405 15.6628)
(1.13722e-15 -12.1994 15.8806)
(1.18038e-15 -12.1732 16.0347)
(1.38338e-15 -12.3147 16.3619)
(1.47714e-15 -12.3159 16.4777)
(1.62132e-15 -12.41 16.6131)
(1.72698e-15 -12.4796 16.7451)
(1.84026e-15 -12.5245 16.8846)
(2.90898e-15 -13.066 18.1056)
(2.31282e-15 -12.5798 17.1718)
(2.3956e-15 -12.7029 17.3108)
(2.41395e-15 -12.7258 17.3553)
(2.48657e-15 -12.7957 17.4986)
(2.61419e-15 -12.8326 17.7259)
(2.75581e-15 -12.9207 17.9799)
(2.82686e-15 -12.938 18.0583)
(2.97392e-15 -13.0099 18.1777)
(3.10336e-15 -13.0802 18.2743)
(3.95603e-15 -12.9967 18.798)
(3.32688e-15 -12.7727 18.3548)
(3.52476e-15 -12.8338 18.5795)
(3.59029e-15 -12.8497 18.7622)
(3.63521e-15 -12.9123 18.9938)
(3.63228e-15 -12.9323 19.2292)
(3.59736e-15 -13.006 19.5649)
(3.67998e-15 -13.0175 19.6777)
(3.7664e-15 -13.1267 19.6685)
(4.62968e-15 -12.2688 18.9006)
(3.69281e-15 -12.3458 18.714)
(3.74703e-15 -12.3526 18.6765)
(3.78808e-15 -12.3972 18.6939)
(3.8434e-15 -12.3653 18.5405)
(3.98272e-15 -12.3962 18.4983)
(4.21033e-15 -12.3915 18.4836)
(4.48947e-15 -12.339 18.5581)
(4.88213e-15 -12.5321 18.8935)
(5.6969e-15 -10.5496 16.6627)
(5.37041e-15 -11.1807 17.7881)
(5.70417e-15 -11.0691 17.7432)
(5.87781e-15 -11.0481 17.8313)
(6.22435e-15 -11.0243 18.0817)
(6.31316e-15 -10.9707 17.9682)
(6.23893e-15 -10.8742 17.6375)
(6.09066e-15 -10.7866 17.1805)
(5.90124e-15 -10.8162 16.5346)
(5.59542e-15 -8.02256 12.1101)
(5.81192e-15 -9.08513 14.3123)
(5.28978e-15 -8.79276 13.0334)
(5.01713e-15 -8.81065 12.3056)
(4.81449e-15 -8.62175 11.484)
(4.82598e-15 -8.51914 10.8514)
(5.65367e-15 -8.31973 10.4969)
(4.98486e-15 -8.12152 9.91769)
(4.90694e-15 -7.90904 9.51877)
(4.62872e-15 -7.76803 9.00066)
(1.8636e-15 -4.32804 3.53714)
(4.41436e-15 -6.08641 7.75019)
(4.03552e-15 -5.49744 6.70232)
(3.79352e-15 -5.61761 6.42382)
(3.37338e-15 -5.25484 5.67073)
(2.77803e-15 -5.18262 4.71314)
(1.51045e-15 -4.98306 2.75604)
(3.01442e-16 -4.60487 0.79019)
(5.63705e-16 -4.60132 0.798901)
(-6.19042e-16 -4.11748 -1.49975)
(2.49637e-16 -4.10644 0.0211414)
(3.18312e-17 -4.04108 -0.672118)
(-9.35434e-16 -3.10139 -1.98655)
(-7.06381e-16 -4.47108 -1.58945)
(-8.92605e-16 -3.51682 -1.49377)
(-7.29985e-16 -3.1311 -1.04419)
(-1.02358e-15 -3.86798 -1.46906)
(-7.6134e-16 -2.64716 -0.944599)
(-1.09095e-15 -3.32194 -1.40022)
(-7.82657e-16 -2.93615 -1.10061)
(-6.35424e-16 -2.38452 -0.846555)
(-9.23244e-16 -2.78764 -1.2423)
(-8.3375e-16 -2.49347 -1.00975)
(-7.21713e-16 -2.08434 -0.785172)
(-1.00378e-15 -2.64577 -1.09911)
(-7.88558e-16 -1.7641 -0.757207)
(-1.13539e-15 -2.22128 -1.14212)
(-8.58542e-16 -1.86651 -0.952048)
(-7.7697e-16 -1.58583 -0.7575)
(-9.82614e-16 -1.9898 -1.07031)
(-5.72175e-16 -1.29733 -0.752185)
(-9.11743e-16 -1.64095 -1.14484)
(-8.37792e-16 -1.40433 -0.957341)
(-7.76843e-16 -1.11172 -0.762243)
(-1.19141e-15 -1.2891 -1.14938)
(-9.88464e-16 -1.11235 -0.943974)
(-7.02543e-16 -0.899364 -0.733447)
(-9.96087e-16 -1.14516 -1.05289)
(-6.92567e-16 -0.678582 -0.723603)
(-9.38253e-16 -0.898356 -1.13295)
(-5.13599e-16 -0.664022 -0.909876)
(-5.42399e-16 -0.532553 -0.693228)
(-7.01267e-16 -0.708005 -1.00699)
(-6.48771e-16 -0.317569 -0.681914)
(-1.28075e-15 -0.530792 -1.09195)
(-1.73938e-15 -0.29637 -0.888547)
(-6.13782e-16 -0.135329 -0.669956)
(-1.10795e-15 -0.350382 -1.06276)
(-1.92605e-15 -0.0792735 -0.892379)
(1.15484e-16 0.287224 -0.633048)
(-2.20718e-17 -0.783363 -0.900947)
(-4.71855e-17 0.482547 -0.532724)
(-7.65854e-17 0.0300826 -0.741951)
(2.46734e-15 -0.12231 -0.888758)
(1.76761e-15 0.45946 -0.541236)
(-1.83215e-15 0.177552 -0.694489)
(-2.60403e-15 0.400545 -0.469428)
(-1.97869e-15 0.482476 -0.53044)
(-2.01072e-15 0.385085 -0.609025)
(-1.7218e-15 0.492276 -0.433261)
(-2.30737e-15 0.573622 -0.4983)
(-1.80332e-15 0.503117 -0.547998)
(-8.03746e-16 0.580421 -0.380393)
(-1.42431e-16 0.651291 -0.504408)
(2.9391e-16 0.631699 -0.37023)
(8.68936e-16 0.729342 -0.413987)
(8.33362e-16 0.715585 -0.416757)
(1.59638e-16 0.68564 -0.269661)
(-1.62009e-15 0.839062 -0.333255)
(-2.46768e-15 0.740289 -0.246824)
(-3.74226e-15 0.842424 -0.288729)
(-4.26638e-15 0.847981 -0.301473)
(-2.61606e-15 0.781592 -0.209069)
(-3.06303e-15 0.913527 -0.223088)
(-2.66145e-15 0.924778 -0.206503)
(-1.41053e-15 0.815534 -0.142303)
(-1.05302e-15 1.02946 -0.179027)
(-3.29133e-16 0.875406 -0.140469)
(-4.06053e-17 0.983608 -0.164609)
(-1.35767e-18 1.02658 -0.186177)
(6.12104e-18 0.910748 -0.136189)
(1.76827e-16 1.14565 -0.18913)
(3.69378e-16 0.981301 -0.138034)
(6.94142e-16 1.10172 -0.162117)
(1.38757e-15 1.15507 -0.189924)
(1.08576e-15 1.05103 -0.128453)
(1.2451e-15 1.21034 -0.160238)
(8.91402e-16 1.27297 -0.252596)
(3.03104e-16 1.13014 -0.178074)
(8.40749e-17 1.43591 -0.33717)
(-9.03724e-17 1.23507 -0.248051)
(-1.10479e-16 1.43728 -0.389499)
(5.19311e-26 0.919572 1.21333)
(1.59842e-25 1.0322 1.22131)
(3.21013e-25 1.08747 1.23357)
(7.45938e-25 1.14999 1.24817)
(2.39599e-24 1.20437 1.26591)
(7.45658e-24 1.25773 1.28629)
(1.11139e-23 1.3079 1.30921)
(-5.65034e-23 1.3574 1.3348)
(-5.64345e-22 1.40588 1.36292)
(-2.81354e-21 1.45448 1.39375)
(-9.94629e-21 1.50335 1.42728)
(-2.5397e-20 1.55308 1.46366)
(-3.64033e-20 1.60391 1.50296)
(5.59313e-20 1.6561 1.5454)
(6.50623e-19 1.70965 1.59139)
(2.96815e-18 1.76416 1.6421)
(1.00833e-17 1.81852 1.70033)
(2.85536e-17 1.87056 1.77184)
(7.02761e-17 1.91675 1.86664)
(1.53408e-16 1.95242 1.99906)
(3.00513e-16 1.97255 2.18502)
(5.32609e-16 1.97332 2.43625)
(8.60074e-16 1.95365 2.75368)
(1.27435e-15 1.9158 3.12389)
(1.74511e-15 1.86494 3.52144)
(2.22509e-15 1.80789 3.91559)
(2.66055e-15 1.75203 4.27737)
(3.0032e-15 1.70457 4.58421)
(3.21928e-15 1.67156 4.82191)
(3.29363e-15 1.65658 4.98509)
(3.22867e-15 1.65968 5.07647)
(3.04003e-15 1.67757 5.10445)
(2.7512e-15 1.70483 5.07991)
(2.38844e-15 1.73527 5.01345)
(1.97658e-15 1.76263 4.91401)
(1.53565e-15 1.78032 4.78867)
(1.07804e-15 1.78073 4.6429)
(6.0049e-16 1.75761 4.4826)
(5.98852e-17 1.71429 4.31945)
(-6.18145e-16 1.63639 4.16037)
(-1.26322e-15 1.30887 3.91315)
(-1.02724e-15 0.256331 3.30736)
(-3.66809e-18 -0.946322 2.74883)
(5.67433e-16 -1.52751 2.57096)
(1.0808e-15 -1.8724 2.41605)
(1.57373e-15 -2.20698 2.25564)
(2.04128e-15 -2.5651 2.09658)
(2.47377e-15 -2.93399 1.93512)
(2.84266e-15 -3.30897 1.77794)
(3.12612e-15 -3.68781 1.62142)
(3.30346e-15 -4.05631 1.45986)
(3.35464e-15 -4.39782 1.29397)
(3.26846e-15 -4.71433 1.12943)
(3.05053e-15 -5.00121 0.958479)
(2.71884e-15 -5.255 0.78591)
(2.30014e-15 -5.45414 0.602137)
(1.84269e-15 -5.58577 0.422521)
(1.36939e-15 -5.6362 0.243427)
(9.04549e-16 -5.60425 0.0838973)
(4.83523e-16 -5.46114 -0.0619331)
(1.91241e-16 -5.18056 -0.171629)
(4.79806e-17 -4.87013 -0.243008)
(4.88905e-18 -4.57573 -0.287739)
(-1.04511e-18 -4.30544 -0.310738)
(-4.44006e-19 -4.05304 -0.324694)
(-5.0408e-20 -3.78926 -0.332129)
(5.23408e-21 -3.48239 -0.340077)
(2.34986e-21 -3.16275 -0.344585)
(2.19159e-22 -2.76752 -0.356811)
(-4.35362e-23 -2.36977 -0.358831)
(-3.77805e-23 -1.78358 -0.376044)
(1.69876e-23 -1.34792 -0.368613)
(-4.28727e-22 0.215375 -0.457102)
(2.34451e-21 1.1691 -0.376161)
(-1.04338e-20 2.04206 -0.425048)
(6.00485e-20 2.56749 -0.0417241)
(-1.61228e-19 2.93152 -0.33874)
(1.76489e-19 3.23937 0.203258)
(-3.52106e-18 -3.47001 -0.40042)
(1.57863e-25 0.918466 1.27523)
(4.04425e-25 1.02916 1.28171)
(7.00578e-25 1.08326 1.2941)
(1.49963e-24 1.1449 1.30919)
(4.23351e-24 1.19833 1.32767)
(7.14521e-24 1.25085 1.34924)
(-3.54284e-23 1.30017 1.37355)
(-4.03876e-22 1.34883 1.40088)
(-2.21056e-21 1.39646 1.43098)
(-8.54919e-21 1.44419 1.46408)
(-2.44048e-20 1.49216 1.50012)
(-4.49447e-20 1.54096 1.53928)
(3.79007e-21 1.59081 1.58168)
(4.64515e-19 1.64191 1.62777)
(2.4717e-18 1.69405 1.67865)
(9.05726e-18 1.74643 1.73719)
(2.70142e-17 1.79708 1.80955)
(6.92111e-17 1.84259 1.90696)
(1.56048e-16 1.878 2.04623)
(3.13677e-16 1.89783 2.24678)
(5.66858e-16 1.89781 2.52332)
(9.27263e-16 1.87702 2.87657)
(1.3825e-15 1.83878 3.28784)
(1.89292e-15 1.78965 3.72245)
(2.39943e-15 1.73723 4.14049)
(2.83875e-15 1.68833 4.50824)
(3.15878e-15 1.64852 4.80432)
(3.3285e-15 1.6223 5.02)
(3.34021e-15 1.61287 5.1565)
(3.20576e-15 1.62119 5.22167)
(2.94991e-15 1.64533 5.22696)
(2.60341e-15 1.68095 5.18454)
(2.19744e-15 1.72247 5.10522)
(1.75927e-15 1.76411 4.99773)
(1.30835e-15 1.80021 4.86913)
(8.53173e-16 1.82467 4.72545)
(3.89518e-16 1.83007 4.57211)
(-1.04379e-16 1.80915 4.41494)
(-6.92021e-16 1.76471 4.26528)
(-1.4879e-15 1.69834 4.13573)
(-2.34076e-15 1.43975 3.95148)
(-2.00943e-15 0.453413 3.36218)
(6.73607e-18 -0.954658 2.60493)
(7.01668e-16 -1.53817 2.51194)
(1.14931e-15 -1.86583 2.39811)
(1.62163e-15 -2.20257 2.22814)
(2.07909e-15 -2.56254 2.07046)
(2.50097e-15 -2.93229 1.91483)
(2.86062e-15 -3.30772 1.76265)
(3.13652e-15 -3.68462 1.61094)
(3.30763e-15 -4.04913 1.454)
(3.35397e-15 -4.38652 1.2921)
(3.26455e-15 -4.69812 1.13052)
(3.04495e-15 -4.9793 0.962064)
(2.71289e-15 -5.22654 0.79124)
(2.29506e-15 -5.41973 0.608897)
(1.83898e-15 -5.54691 0.430177)
(1.36718e-15 -5.59489 0.251604)
(9.03774e-16 -5.56233 0.0920737)
(4.83825e-16 -5.42084 -0.0542017)
(1.91914e-16 -5.145 -0.164916)
(4.83762e-17 -4.83863 -0.237748)
(4.95e-18 -4.54678 -0.284046)
(-1.07847e-18 -4.27757 -0.308685)
(-4.61207e-19 -4.02508 -0.324339)
(-5.27308e-20 -3.76081 -0.333606)
(5.64743e-21 -3.45351 -0.343655)
(2.54377e-21 -3.13356 -0.350515)
(2.39474e-22 -2.73914 -0.365708)
(-4.7717e-23 -2.34304 -0.370552)
(-3.96664e-23 -1.75846 -0.393441)
(1.86559e-23 -1.31853 -0.389574)
(-4.55833e-22 0.202096 -0.50948)
(2.32439e-21 1.16497 -0.358808)
(-1.00357e-20 1.99035 -0.42118)
(5.13688e-20 2.5528 -0.0341627)
(-1.11681e-19 2.89549 -0.321377)
(-5.64845e-20 3.24675 0.184303)
(-2.8925e-18 -3.36684 -0.392106)
(3.26634e-25 0.918032 1.30941)
(6.75091e-25 1.02786 1.3154)
(8.86829e-25 1.08116 1.32781)
(1.36012e-24 1.14238 1.34329)
(1.34239e-24 1.19525 1.36221)
(-2.15996e-23 1.24733 1.38453)
(-2.26912e-22 1.29619 1.40967)
(-1.33005e-21 1.34439 1.43807)
(-5.60935e-21 1.39156 1.46935)
(-1.7819e-20 1.43883 1.5038)
(-3.97479e-20 1.48633 1.54133)
(-3.30685e-20 1.53462 1.58216)
(2.2255e-19 1.5839 1.62655)
(1.53664e-18 1.63422 1.67542)
(6.24238e-18 1.68508 1.73101)
(1.99144e-17 1.73506 1.79859)
(5.37658e-17 1.7813 1.88828)
(1.26668e-16 1.81935 2.01631)
(2.64434e-16 1.84385 2.20305)
(4.93671e-16 1.8503 2.46609)
(8.30021e-16 1.83727 2.80994)
(1.26573e-15 1.8077 3.21849)
(1.76458e-15 1.76799 3.65677)
(2.26884e-15 1.72537 4.08233)
(2.71489e-15 1.68552 4.45884)
(3.04939e-15 1.65209 4.7641)
(3.23946e-15 1.6276 4.99027)
(3.27515e-15 1.6146 5.13977)
(3.16609e-15 1.61542 5.22056)
(2.93524e-15 1.63102 5.24292)
(2.61241e-15 1.66003 5.21746)
(2.22859e-15 1.69885 5.15389)
(1.81142e-15 1.74253 5.06059)
(1.38115e-15 1.78561 4.94476)
(9.46981e-16 1.82246 4.81303)
(5.04428e-16 1.84694 4.67191)
(3.50688e-17 1.85154 4.5278)
(-4.948e-16 1.82864 4.38713)
(-1.15537e-15 1.78018 4.26008)
(-2.07476e-15 1.71301 4.15924)
(-3.13717e-15 1.48777 4.02825)
(-2.95118e-15 0.590936 3.50281)
(-2.65378e-16 -0.80763 2.54794)
(8.48208e-16 -1.48696 2.39086)
(1.26539e-15 -1.82104 2.35673)
(1.68606e-15 -2.14959 2.1979)
(2.12638e-15 -2.51057 2.03548)
(2.53581e-15 -2.88125 1.88546)
(2.88347e-15 -3.25733 1.74052)
(3.14953e-15 -3.63451 1.59539)
(3.31272e-15 -3.99929 1.44502)
(3.35296e-15 -4.33788 1.28914)
(3.25948e-15 -4.65074 1.13214)
(3.0378e-15 -4.93301 0.967509)
(2.70529e-15 -5.18098 0.799396)
(2.28857e-15 -5.37556 0.619142)
(1.83422e-15 -5.50538 0.441643)
(1.36429e-15 -5.55761 0.263692)
(9.02684e-16 -5.53064 0.103996)
(4.84107e-16 -5.39647 -0.043154)
(1.92691e-16 -5.13061 -0.155459)
(4.88481e-17 -4.83309 -0.230306)
(5.02542e-18 -4.54807 -0.278739)
(-1.11823e-18 -4.28345 -0.30559)
(-4.8229e-19 -4.03354 -0.323527)
(-5.56624e-20 -3.77045 -0.335282)
(6.15794e-21 -3.46371 -0.348225)
(2.79261e-21 -3.14316 -0.358348)
(2.66526e-22 -2.74856 -0.377701)
(-5.32024e-23 -2.3509 -0.38653)
(-4.22433e-23 -1.76653 -0.416389)
(2.00961e-23 -1.31117 -0.414718)
(-4.64533e-22 0.196625 -0.521191)
(2.28939e-21 1.15722 -0.353036)
(-9.64566e-21 1.96815 -0.422559)
(4.57068e-20 2.54342 -0.0385878)
(-8.08874e-20 2.88361 -0.311427)
(-1.76003e-19 3.24853 0.158425)
(-4.03101e-18 -3.32261 -0.358068)
(5.84154e-25 0.91736 1.35021)
(8.02462e-25 1.02586 1.35593)
(6.0006e-26 1.07799 1.36847)
(-2.83794e-24 1.13855 1.38449)
(-1.99924e-23 1.19061 1.404)
(-1.39878e-22 1.24202 1.42726)
(-8.03643e-22 1.29017 1.45344)
(-3.59864e-21 1.3377 1.48314)
(-1.25162e-20 1.38418 1.51586)
(-3.22622e-20 1.43074 1.55195)
(-4.66259e-20 1.47752 1.59129)
(7.85568e-20 1.52503 1.63425)
(9.04103e-19 1.57336 1.68139)
(4.19102e-18 1.62231 1.73458)
(1.44555e-17 1.67082 1.79816)
(4.13956e-17 1.7165 1.88122)
(1.02434e-16 1.75525 1.99936)
(2.23156e-16 1.78165 2.17393)
(4.32431e-16 1.79061 2.42598)
(7.50783e-16 1.77992 2.76507)
(1.17607e-15 1.75214 3.17892)
(1.67553e-15 1.71425 3.63237)
(2.191e-15 1.67462 4.07857)
(2.65524e-15 1.63977 4.47523)
(3.01021e-15 1.61283 4.79585)
(3.21903e-15 1.59463 5.03156)
(3.26929e-15 1.58565 5.18626)
(3.16974e-15 1.58728 5.2703)
(2.9439e-15 1.60133 5.29579)
(2.62309e-15 1.62854 5.2741)
(2.24029e-15 1.66742 5.21507)
(1.82516e-15 1.71434 5.12692)
(1.39979e-15 1.76438 5.01673)
(9.7506e-16 1.81214 4.89107)
(5.47472e-16 1.85202 4.75674)
(9.77347e-17 1.87792 4.62105)
(-4.0726e-16 1.88241 4.49131)
(-1.0116e-15 1.85751 4.37426)
(-1.7874e-15 1.80451 4.27845)
(-2.86665e-15 1.73806 4.21481)
(-4.16513e-15 1.55714 4.13956)
(-4.19153e-15 0.760757 3.68844)
(-8.74742e-16 -0.693202 2.57013)
(8.80087e-16 -1.46325 2.2645)
(1.40791e-15 -1.80575 2.2771)
(1.77298e-15 -2.11743 2.1601)
(2.17752e-15 -2.47692 1.99816)
(2.57244e-15 -2.84974 1.84955)
(2.90807e-15 -3.22623 1.71236)
(3.1633e-15 -3.60285 1.57544)
(3.31791e-15 -3.96676 1.43313)
(3.35165e-15 -4.30499 1.28494)
(3.25387e-15 -4.6174 1.1341)
(3.02999e-15 -4.89911 0.974497)
(2.69702e-15 -5.14619 0.810032)
(2.28149e-15 -5.34052 0.632556)
(1.82897e-15 -5.47122 0.456683)
(1.36104e-15 -5.52578 0.279531)
(9.01335e-16 -5.50235 0.11962)
(4.84253e-16 -5.37325 -0.0286439)
(1.93417e-16 -5.11476 -0.142973)
(4.93134e-17 -4.82382 -0.220374)
(5.10372e-18 -4.5438 -0.271527)
(-1.15763e-18 -4.28247 -0.30116)
(-5.03999e-19 -4.03424 -0.321932)
(-5.8798e-20 -3.7718 -0.336734)
(6.68924e-21 -3.46521 -0.353217)
(3.06489e-21 -3.14402 -0.36731)
(2.97577e-22 -2.74919 -0.391686)
(-5.93617e-23 -2.35034 -0.405326)
(-4.52921e-23 -1.76627 -0.442702)
(2.12089e-23 -1.3004 -0.442516)
(-4.66305e-22 0.18529 -0.547257)
(2.24031e-21 1.1495 -0.35626)
(-9.10609e-21 1.93426 -0.427121)
(3.89516e-20 2.52909 -0.0468821)
(-4.50661e-20 2.86442 -0.299237)
(-3.22051e-19 3.24974 0.139498)
(-4.8994e-18 -3.2952 -0.333043)
(7.96846e-25 0.9168 1.38998)
(-1.53931e-25 1.0242 1.39575)
(-4.92698e-24 1.07517 1.40845)
(-2.19682e-23 1.13514 1.4251)
(-1.01636e-22 1.18641 1.44524)
(-5.06334e-22 1.2372 1.46949)
(-2.28017e-21 1.28469 1.49675)
(-8.45788e-21 1.33158 1.52778)
(-2.43425e-20 1.37743 1.56197)
(-4.62078e-20 1.42334 1.59974)
(1.56798e-21 1.46943 1.641)
(4.90957e-19 1.51613 1.68635)
(2.70673e-18 1.56332 1.7371)
(1.02007e-17 1.61032 1.79686)
(3.11347e-17 1.65516 1.87346)
(8.11839e-17 1.69418 1.9815)
(1.85069e-16 1.72205 2.14267)
(3.73205e-16 1.73321 2.38102)
(6.70757e-16 1.72463 2.71161)
(1.08175e-15 1.69839 3.12732)
(1.57782e-15 1.66195 3.59428)
(2.10102e-15 1.62516 4.06167)
(2.58063e-15 1.59587 4.48047)
(2.95387e-15 1.57739 4.81852)
(3.18005e-15 1.56891 5.06455)
(3.24471e-15 1.56817 5.22337)
(3.15612e-15 1.57398 5.30809)
(2.93832e-15 1.58725 5.33373)
(2.62376e-15 1.61003 5.31365)
(2.2468e-15 1.64361 5.25835)
(1.83851e-15 1.68709 5.17579)
(1.42235e-15 1.73726 5.07235)
(1.01048e-15 1.78941 4.95399)
(6.00652e-16 1.8381 4.82715)
(1.74236e-16 1.87759 4.69931)
(-3.03354e-16 1.90167 4.5789)
(-8.77661e-16 1.90296 4.47414)
(-1.59762e-15 1.87355 4.3913)
(-2.52765e-15 1.81424 4.33583)
(-3.78831e-15 1.7447 4.3147)
(-5.32105e-15 1.59914 4.29453)
(-5.62761e-15 0.91645 3.92724)
(-1.86882e-15 -0.559567 2.67506)
(7.12326e-16 -1.43216 2.16595)
(1.51609e-15 -1.80146 2.16853)
(1.88511e-15 -2.0968 2.09934)
(2.23885e-15 -2.44999 1.95687)
(2.60908e-15 -2.82535 1.8095)
(2.93296e-15 -3.20358 1.67778)
(3.17745e-15 -3.57971 1.5504)
(3.32296e-15 -3.94223 1.41791)
(3.35002e-15 -4.27917 1.27909)
(3.24787e-15 -4.58994 1.13612)
(3.02174e-15 -4.86968 0.98299)
(2.6883e-15 -5.1144 0.823286)
(2.27398e-15 -5.30697 0.649419)
(1.82333e-15 -5.43709 0.475691)
(1.35744e-15 -5.49263 0.299583)
(8.99684e-16 -5.4715 0.139439)
(4.8419e-16 -5.34634 -0.0101754)
(1.94024e-16 -5.09432 -0.126968)
(4.97424e-17 -4.80921 -0.207483)
(5.18109e-18 -4.53356 -0.26198)
(-1.19459e-18 -4.27497 -0.295031)
(-5.25371e-19 -4.02797 -0.319278)
(-6.20284e-20 -3.76581 -0.337769)
(7.2197e-21 -3.4591 -0.358524)
(3.35347e-21 -3.13714 -0.377386)
(3.32397e-22 -2.74213 -0.407722)
(-6.60664e-23 -2.34245 -0.427156)
(-4.88269e-23 -1.75937 -0.47288)
(2.20656e-23 -1.28581 -0.474564)
(-4.62042e-22 0.166507 -0.582581)
(2.16277e-21 1.13824 -0.365724)
(-8.43419e-21 1.90657 -0.43458)
(3.21229e-20 2.51378 -0.0601624)
(-8.98502e-21 2.8501 -0.287231)
(-4.81355e-19 3.24798 0.125866)
(-7.52008e-18 -3.26299 -0.291202)
(3.50831e-25 0.916144 1.43053)
(-5.1431e-24 1.02238 1.43661)
(-2.31384e-23 1.07205 1.44952)
(-8.59506e-23 1.13138 1.46694)
(-3.48786e-22 1.18177 1.48777)
(-1.46791e-21 1.23187 1.5131)
(-5.58324e-21 1.27862 1.54151)
(-1.74098e-20 1.32481 1.57396)
(-3.93069e-20 1.36994 1.60972)
(-3.30168e-20 1.41512 1.64929)
(2.36446e-19 1.46039 1.69272)
(1.67334e-18 1.50602 1.74118)
(6.98639e-18 1.55148 1.79735)
(2.28552e-17 1.59528 1.86793)
(6.30181e-17 1.63415 1.96607)
(1.50765e-16 1.66294 2.11316)
(3.17306e-16 1.67565 2.33561)
(5.92117e-16 1.66823 2.65414)
(9.86058e-16 1.6418 3.06835)
(1.47651e-15 1.60396 3.54759)
(2.0068e-15 1.56607 4.03819)
(2.50279e-15 1.53811 4.48391)
(2.89621e-15 1.52475 4.8453)
(3.14175e-15 1.5249 5.10692)
(3.22244e-15 1.53424 5.27304)
(3.14589e-15 1.54861 5.35868)
(2.93667e-15 1.56639 5.38185)
(2.62833e-15 1.58885 5.35888)
(2.25663e-15 1.61875 5.3024)
(1.8541e-15 1.65796 5.22122)
(1.44565e-15 1.70591 5.12151)
(1.04482e-15 1.75944 5.00843)
(6.50725e-16 1.81369 4.88763)
(2.45879e-16 1.86294 4.76617)
(-2.03966e-16 1.90122 4.65275)
(-7.46684e-16 1.92225 4.55697)
(-1.43503e-15 1.91902 4.48719)
(-2.31423e-15 1.88408 4.4477)
(-3.4295e-15 1.81821 4.43888)
(-4.87538e-15 1.74548 4.46198)
(-6.61211e-15 1.63335 4.492)
(-7.22769e-15 1.07219 4.21289)
(-3.29332e-15 -0.391979 2.88393)
(3.07392e-16 -1.36838 2.10882)
(1.51722e-15 -1.79228 2.05269)
(1.99769e-15 -2.07964 2.00968)
(2.31851e-15 -2.42244 1.90277)
(2.64915e-15 -2.79752 1.76665)
(2.95693e-15 -3.17818 1.6381)
(3.19153e-15 -3.55466 1.51973)
(3.32792e-15 -3.91601 1.39876)
(3.34805e-15 -4.25179 1.27092)
(3.2415e-15 -4.56098 1.13747)
(3.01309e-15 -4.83882 0.992383)
(2.67916e-15 -5.08125 0.838686)
(2.26605e-15 -5.2722 0.669367)
(1.81727e-15 -5.40192 0.498415)
(1.35343e-15 -5.45862 0.323697)
(8.97663e-16 -5.44 0.163374)
(4.83856e-16 -5.31904 0.012224)
(1.9447e-16 -5.07386 -0.107405)
(5.01176e-17 -4.79499 -0.191516)
(5.25526e-18 -4.52407 -0.249927)
(-1.22803e-18 -4.26853 -0.286994)
(-5.45922e-19 -4.02295 -0.315327)
(-6.53026e-20 -3.76112 -0.338123)
(7.73866e-21 -3.45424 -0.363839)
(3.65593e-21 -3.13137 -0.388209)
(3.71273e-22 -2.73601 -0.425346)
(-7.32686e-23 -2.3352 -0.451521)
(-5.29107e-23 -1.75333 -0.506174)
(2.26378e-23 -1.27144 -0.510682)