/*--------------------------------*- C++ -*----------------------------------*\
| =========                 |                                                 |
| \\      /  F ield         | OpenFOAM: The Open Source CFD Toolbox           |
|  \\    /   O peration     | Version:  4.1                                   |
|   \\  /    A nd           | Web:      www.OpenFOAM.org                      |
|    \\/     M anipulation  |                                                 |
\*---------------------------------------------------------------------------*/
FoamFile
{
    version     2.0;
    format      ascii;
    class       surfaceScalarField;
    location    "3";
    object      phi;
}
// * * * * * * * * * * * * * * * * * * * * * * * * * * * * * * * * * * * * * //

dimensions      [0 3 -1 0 0 0 0];

internalField   nonuniform List<scalar> 
13220
(
-906.754
2206.64
-1503.75
1897.19
-1983.37
1779.5
-2352.89
1669.42
-2628.35
1575.65
-2816.95
1488.49
-2921.86
1404.8
-2942.98
1321.31
-2879.02
1235.94
-2726.83
1147.71
-2481.68
1055.05
-2126.8
945.006
-1626.07
799.163
-954.44
628.558
345.459
420.925
1785.68
463.762
1854.31
447.408
1795.81
406.455
1710.32
372.767
1609.29
346.096
1515.11
326.412
1424.44
314.391
1333.28
306.976
1243.3
297.817
1156.82
278.33
1074.5
234.99
988.286
159.07
875.015
83.3888
704.167
428.846
185.739
1599.91
24.0145
2015.99
-141.577
1961.36
-264.398
1833.1
-370.728
1715.57
-469.575
1613.91
-558.863
1513.68
-638.416
1412.79
-705.791
1310.63
-758.177
1209.14
-791.413
1107.69
-787.386
984.157
-695.642
783.138
-440.826
449.187
-11.9817
219.72
1380.16
135.303
2100.38
-3.12576
2099.75
-99.5411
1929.47
-175
1790.99
-234.842
1673.7
-274.286
1553.07
-293.076
1431.53
-293.527
1311.02
-275.978
1191.54
-238.54
1070.2
-176.999
922.563
-91.8125
697.877
-2.32081
359.601
-14.3041
266.502
1113.62
326.372
2040.48
305.985
2120.11
292.773
1942.65
289.66
1794.07
290.837
1672.49
295.576
1548.3
304.451
1422.62
314.913
1300.53
324.046
1182.37
331.63
1062.6
332.633
921.472
307.389
723.024
222.667
444.212
208.363
234.617
878.977
344.722
1930.34
364.9
2099.9
355.492
1952.02
346.11
1803.43
338.368
1680.2
329.691
1556.95
317.319
1434.97
300.945
1316.89
279.967
1203.35
253.7
1088.85
222.369
952.864
178.344
767.11
110.736
511.883
319.098
133.789
745.156
221.734
1842.37
251.231
2070.39
229.852
1973.38
203.073
1830.19
178.752
1704.51
155.942
1579.75
133.399
1457.5
110.709
1339.57
89.8273
1224.2
71.6264
1107.06
57.5544
966.821
46.8782
777.674
38.1239
520.53
357.223
46.7194
698.413
99.1535
1789.92
135.731
2033.79
117.908
1991.19
93.5427
1854.55
74.4418
1723.6
57.2573
1596.94
41.911
1472.84
29.4312
1352.05
19.8443
1233.81
14.0737
1112.82
14.4066
966.61
17.2088
774.987
20.1994
517.646
377.421
20.1795
678.211
55.0091
1755.07
92.5914
1996.2
84.5623
1999.2
69.0521
1870.03
58.3267
1734.3
50.0027
1605.23
41.8955
1480.94
35.9265
1358
32.4594
1237.23
30.2391
1115.04
32.0118
964.647
33.3124
773.505
26.2234
524.568
403.646
32.9556
645.265
68.0636
1719.97
101.578
1962.69
99.2713
2001.51
89.6503
1879.66
81.5346
1742.42
74.6526
1612.12
68.0909
1487.49
61.5089
1364.59
56.0377
1242.74
50.977
1120.09
48.6273
967.188
45.0406
777.276
31.0533
538.726
434.699
48.4731
596.834
87.3942
1681.08
118.458
1931.66
120.847
1999.16
114.276
1886.28
107.398
1749.35
98.9292
1620.64
89.9682
1496.52
80.9737
1373.64
71.2368
1252.52
61.6648
1129.75
55.8621
972.931
49.0499
784.066
31.0477
556.712
465.749
42.5451
554.363
79.6474
1644.04
102.374
1908.99
104.848
1996.75
95.735
1895.46
85.8559
1759.3
76.7886
1629.8
67.0992
1506.28
57.9865
1382.84
49.0446
1261.57
39.2982
1139.55
35.1409
977.339
32.5613
786.887
21.8628
567.633
487.613
22.8909
531.551
65.8477
1601.14
97.9091
1876.99
114.729
1979.98
121.082
1889.17
115.529
1764.91
103.698
1641.68
89.6911
1520.34
74.0621
1398.52
60.1676
1275.51
51.0118
1148.76
48.2691
980.089
45.4624
789.72
21.7016
591.421
509.315
-86.5871
618.197
-140.782
1655.37
-187.353
1923.6
-236.968
2029.63
-280.14
1932.38
-307.694
1792.49
-311.317
1645.34
-303.093
1512.14
-286.784
1382.25
-273.22
1261.98
-239.052
1114.61
-183.617
924.736
-113.59
719.771
-60.8169
538.721
448.497
3.29835
253.403
436.473
560.422
532.964
420.896
246.116
79.3835
-73.1734
-156.315
-218.403
-230.944
-215.686
-153.84
0.000985209
198.861
-198.859
198.863
198.864
198.865
441.501
-242.634
441.502
441.504
441.505
601.789
-160.283
601.791
601.792
745.875
-144.082
745.876
745.877
745.878
813.446
-67.5671
813.448
813.449
845.254
-31.8045
845.255
845.256
845.257
850.825
-5.56636
850.826
850.827
850.827
846.781
4.04763
846.782
846.783
814.454
32.3299
814.455
814.456
814.457
766.94
47.518
766.941
766.942
694.973
71.97
694.975
694.976
694.977
646.022
48.9553
646.024
646.025
646.026
617.864
28.1633
617.865
617.866
566.043
51.824
566.044
566.045
566.046
458.485
107.563
458.486
458.488
458.488
390.597
67.8933
390.598
390.6
327.319
63.2821
327.32
327.321
327.323
240.564
86.7587
240.566
240.566
85.2307
155.338
85.2306
85.2331
85.233
-358.566
443.802
-358.567
-358.564
-358.567
-1196.6
838.032
-1196.6
-1196.59
-2410.72
1214.13
-2410.71
-2410.72
-2365.13
-2310.87
-2262.76
-3872.49
1664.04
-3797.85
-3721.45
-3637.52
-3550.53
-3460.31
-3365.65
-3256.79
-3135.54
-5171.59
2163.03
-5027.48
-4888.92
-4750.07
-4582.7
-4412.59
-4238.83
-4056.97
-3873.94
-6363.52
2690.84
-6143.07
-5922.49
-5699
-5474.1
-5242.42
-4998.62
-4751.29
-4494.67
-4234.58
-7090
3113.09
-6807.93
-6521.68
-6230.93
-5940.48
-5653.05
-5352.74
-5037.63
-4716.7
-7658.19
3251.05
-7340.98
-7013.37
-6672.1
-6329.55
-5988.87
-5649.82
-5305.71
-4938.44
-7535.91
2946.67
-7182.47
-6825.3
-6467.63
-6097.83
-5724.85
-5355.08
-4986.23
-4616.61
-6374.7
2110.46
-6019.1
-5659.74
-5301.17
-4944.3
-4590.53
-4247.08
-3909.08
-3579.77
-3252.92
-3689.5
745.256
-3406.84
-3131.18
-2862.45
-2597.7
-2339.72
-2126.13
-1998
-1860.99
-1547.15
-200.116
-1460.06
-1367.73
-1367.73
-1285.32
-82.3989
-1243.94
-41.3924
-1243.93
-1227.63
-16.3052
-1227.63
-1222
-5.63469
-1229.67
7.67252
-1229.67
-1239.13
9.46285
-1254.82
15.6813
-1254.81
-1272.01
17.1953
-1272.01
-1298.28
26.2701
-1317.7
19.4247
-1317.71
-1337.46
19.7603
-1337.47
-1356.49
19.0266
-1361.64
5.14735
-1361.64
-1369.85
8.20901
-1361.84
-8.01416
-1361.84
-1350.81
-11.022
-1350.82
-1342.84
-7.97281
-1314.78
-28.065
-1314.78
-1285.73
-29.0493
-1285.73
-1254.8
-30.9335
-1202.1
-52.6961
-1202.11
-1156.72
-45.3845
-1088.96
-67.7608
-1088.96
-1027.1
-61.8654
-1027.1
-976.082
-51.0238
-896.631
-79.4496
-896.634
-817.937
-78.696
-817.94
-755.324
-62.6162
-667.496
-87.8308
-667.496
-607.627
-59.8722
-526.922
-80.7048
-526.925
-437.315
-89.6099
-437.318
-346.349
-90.9707
-229.499
-116.853
-229.5
-101.597
-127.906
-101.598
54.801
-156.401
250.708
-195.907
250.706
436.266
-185.56
650.23
-213.965
650.23
849.891
-199.662
849.89
1046.4
-196.513
1259.76
-213.359
1259.76
1467.14
-207.382
1467.14
1669.73
-202.584
1852.29
-182.565
1852.29
2035.24
-182.953
2188.28
-153.04
2188.28
2350.98
-162.698
2350.98
-184.112
-605.179
-706.511
-581.777
-611.468
-537.063
-394.3
-474.415
-214.501
-399.603
16.9149
-330.451
232.901
-249.167
479.702
-263.342
281.191
-281.723
-279.412
-294.116
331.162
-80.7296
1222.92
-208.365
-508.544
-167.233
716.439
-219.067
-279.656
-200.251
670.529
-186.795
505.496
-156.596
1270.07
-118.183
1371.89
-118.587
-1396.23
-269.553
-1158.04
-254.978
189.266
-398.581
-615.312
-422.723
-254.021
-471.794
39.842
-491.076
306.921
-488.827
368.786
-492.237
254.839
-508.996
377.861
-600.42
473.757
-627.419
826.38
-736.632
625.998
-775.277
961.477
-807.056
1306.38
-836.905
1486.33
-896.879
1786.9
-980.65
2187.79
-1068.34
2743.92
-1153.45
3436.96
-1229.48
4163.03
-1295.2
4818.9
-1370.53
5672.71
-1449.27
6238.87
-1504.46
6706.66
-1534.45
7065.14
-1536.37
7377.05
-1495.24
7192.94
-1298
6034.57
-458.115
1415.68
-183.868
-2018.28
-536.142
-1135.34
-753.729
-233.655
-813.126
2082.38
-926.796
3770.39
-1090.69
4980.65
-1284.16
5954.51
-1463.81
6765.87
-1599.08
6970.19
-1745.91
6214.71
-2024.63
4775.32
-2408.09
3324.51
-2697.14
1935.16
-2828.13
510.076
-2877.6
-1260.72
-2929.65
-3458.15
-2943.9
-5539.41
-2774.74
-7136.27
-2144.4
-7305.18
-883.338
-4497.45
-124.195
459.499
21.0139
2535.65
106.4
2694.69
-2.77664
-176.153
-8.09459
-1641.47
74.557
1619.59
-0.638836
457.229
209.79
1049.55
128.005
57.0676
124.73
697.306
822.513
-642.346
-703.205
-625.903
-627.91
-585.77
-434.433
-524.841
-275.43
-448.065
-59.8613
-362.471
147.307
-236.663
353.894
-203.23
247.759
-332.031
-150.612
-313.723
312.854
-51.6349
960.83
-219.132
-341.047
-148.431
645.738
-329.604
-98.4833
-199.17
540.094
-255.403
561.728
-205.794
1220.46
-59.9133
1226.01
-118.419
-1337.72
-419.548
-856.91
-352.186
121.903
-511.93
-455.568
-507.447
-258.505
-514.749
47.1447
-504.092
296.264
-488.047
352.741
-521.437
288.229
-569.027
425.45
-631.806
536.536
-639.264
833.837
-754.981
741.715
-800.932
1007.43
-811.387
1316.83
-848.716
1523.66
-919.424
1857.61
-1012.89
2281.26
-1107.68
2838.71
-1191.86
3521.15
-1257.12
4228.28
-1334.6
4896.39
-1399.32
5737.43
-1462
6301.55
-1512.62
6757.28
-1549.86
7102.37
-1552.93
7380.12
-1486.63
7126.64
-1098.67
5646.61
-214.569
531.58
-213.593
-2019.26
-511.433
-837.504
-766.824
21.735
-864.772
2180.33
-971.721
3877.34
-1130.38
5139.31
-1333.18
6157.32
-1519.66
6952.34
-1651.89
7102.42
-1796.7
6359.52
-2084.9
5063.51
-2457.11
3696.72
-2708.06
2186.11
-2795.88
597.893
-2841.22
-1215.37
-2921.08
-3378.3
-2989.56
-5470.93
-2930.28
-7195.55
-2479.06
-7756.39
-1320.03
-5656.49
-294.153
-566.375
30.4718
2211.02
237.403
2487.76
68.4198
-7.17204
-51.7723
-1521.28
159.007
1408.81
69.3209
546.914
148.176
970.69
113.485
91.7566
147.784
663.006
807.598
-675.798
-699.125
-659.983
-643.725
-622.514
-471.902
-568.012
-329.932
-496.945
-130.928
-411.256
61.6173
-294.119
236.757
-240.023
193.662
-328.636
-61.9987
-297.337
281.555
-74.1821
737.675
-239.535
-175.694
-157.917
564.12
-306.091
49.69
-233.821
467.825
-274.731
602.638
-211.235
1156.97
-42.4284
1057.2
-136.393
-1243.76
-472.871
-520.432
-431.552
80.5851
-557.116
-330.004
-546.561
-269.06
-530.177
30.7609
-516.438
282.524
-513.815
350.118
-550.515
324.929
-603.324
478.258
-670.076
603.288
-691.102
854.864
-776.8
827.413
-810.568
1041.2
-823.938
1330.2
-874.598
1574.32
-951.553
1934.56
-1043.09
2372.79
-1133.89
2929.51
-1213.66
3600.91
-1281.42
4296.05
-1362.33
4977.29
-1426.16
5801.26
-1483.55
6358.94
-1528.41
6802.14
-1562.86
7136.83
-1559.02
7376.28
-1450.34
7017.96
-941.185
5137.45
-132.732
-276.873
-230.063
-1921.93
-485.432
-582.134
-741.177
277.481
-870.532
2309.68
-997.542
4004.35
-1164.96
5306.73
-1370.65
6363
-1555.63
7137.32
-1696.31
7243.1
-1877.14
6540.34
-2189.03
5375.4
-2507.52
4015.21
-2684.26
2362.85
-2754.81
668.447
-2812.76
-1157.42
-2902.03
-3289.02
-2995.35
-5377.61
-2995.05
-7195.85
-2670.59
-8080.85
-1666.85
-6660.23
-374.455
-1858.76
124.37
1712.2
246.778
2365.35
93.1335
146.472
-32.0086
-1396.14
181.859
1194.94
127.658
601.116
132.041
966.31
121.541
102.256
178.992
605.555
833.551
-709.318
-695.179
-695.436
-657.607
-662.36
-504.978
-615.385
-376.906
-552.003
-194.31
-472.839
-17.5474
-370.148
134.066
-305.181
128.695
-349.962
-17.2171
-308.089
239.681
-136.073
565.659
-271.973
-39.7934
-196.275
488.422
-300.484
153.899
-270.796
438.136
-289.677
621.519
-210.186
1077.48
-39.3505
886.364
-169.34
-1113.77
-405.452
-284.32
-451.975
127.107
-554.979
-227
-562.039
-262
-548.354
17.0753
-542.383
276.553
-551.653
359.388
-596.363
369.639
-650.471
532.365
-712.621
665.438
-735.879
878.122
-797.091
888.625
-827.115
1071.22
-850.2
1353.29
-909.75
1633.87
-986.666
2011.48
-1072.8
2458.93
-1158.29
3014.99
-1234.69
3677.32
-1306.38
4367.73
-1391.53
5062.44
-1452.19
5861.92
-1505.16
6411.92
-1544.61
6841.58
-1574.42
7166.63
-1558.79
7360.65
-1395.73
6854.9
-769.188
4510.91
-76.529
-969.534
-239.035
-1759.42
-462.013
-359.157
-721.198
536.665
-878.213
2466.7
-1021.72
4147.86
-1197.77
5482.78
-1403.93
6569.17
-1586.01
7319.4
-1739.33
7396.42
-1954.08
6755.09
-2265.53
5686.85
-2518.7
4268.38
-2641.97
2486.13
-2706.28
732.752
-2770.87
-1092.83
-2868.05
-3191.84
-2982.5
-5263.17
-3035.17
-7143.18
-2824.6
-8291.42
-1981.24
-7503.6
-444.368
-3395.63
255.655
1012.17
255.653
2365.35
111.581
290.543
-22.0225
-1262.54
196.916
976.002
158.094
639.937
165.647
958.755
123.976
143.925
182.408
547.121
833.004
-744.374
-690.528
-732.883
-669.099
-703.033
-534.828
-662.222
-417.717
-606.523
-250.009
-535.772
-88.2982
-447.943
46.2371
-384.152
64.9042
-395.64
-5.72891
-350.104
194.145
-218.104
433.658
-312.552
54.655
-254.487
430.356
-323.13
222.542
-311.212
426.218
-306.08
616.387
-210.667
982.063
-52.7137
728.411
-200.349
-966.132
-345.168
-139.501
-434.533
216.472
-535.782
-125.75
-569.568
-228.213
-577.313
24.8198
-582.083
281.324
-600.86
378.165
-648.907
417.685
-697.339
580.798
-749.102
717.201
-771.143
900.163
-818.778
936.26
-850.503
1102.94
-883.417
1386.2
-945.946
1696.4
-1019.78
2085.32
-1100.83
2539.98
-1182.38
3096.54
-1257.24
3752.18
-1332.65
4443.14
-1420.69
5150.48
-1477.16
5918.39
-1525.92
6460.67
-1561.02
6876.68
-1584.33
7189.95
-1550.08
7326.39
-1316.09
6620.91
-542.623
3737.44
49.8313
-1561.99
-217.312
-1492.28
-442.503
-133.964
-710.074
804.236
-886.709
2643.33
-1044.48
4305.63
-1228.07
5666.36
-1432.48
6773.58
-1611.8
7498.72
-1780.27
7564.89
-2019.74
6994.56
-2310.43
5977.53
-2501.17
4459.12
-2590.5
2575.46
-2655.75
798.003
-2723.17
-1025.42
-2824.42
-3090.58
-2952.26
-5135.33
-3045.2
-7050.24
-2931.65
-8404.96
-2262.91
-8172.34
-718.49
-4940.05
226.991
66.6931
264.053
2328.29
140.726
413.87
-11.1202
-1110.7
206.413
758.468
164.023
682.327
212.606
910.175
128.542
227.989
164.398
511.264
814.839
-778.97
-685.508
-770.244
-677.826
-744.59
-560.481
-709.594
-452.714
-660.475
-299.128
-597.384
-151.389
-521.484
-29.6632
-461.035
4.45538
-450.818
-15.9463
-405.061
148.389
-303.655
332.251
-363.065
114.065
-318.627
385.918
-360.683
264.598
-348.036
413.571
-320.635
588.986
-213.789
875.217
-77.2696
591.891
-233.161
-810.24
-327.37
-45.2924
-413.085
302.187
-517.405
-21.4306
-577.118
-168.5
-605.743
53.444
-620.555
296.137
-644.736
402.346
-691.68
464.629
-733.813
622.929
-776.07
759.459
-797.048
921.14
-838.897
978.108
-875.248
1139.29
-915.149
1426.1
-977.56
1758.81
-1048.47
2156.23
-1126.6
2618.1
-1206.53
3176.46
-1282.2
3827.85
-1360.77
4521.71
-1448.96
5238.66
-1501.73
5971.17
-1545.72
6504.66
-1576.74
6907.7
-1591.92
7205.13
-1531.66
7266.13
-1216.49
6305.74
-325.013
2845.97
161.819
-2048.82
-173.452
-1157.01
-422.394
114.976
-705.559
1087.4
-896.279
2834.05
-1065.81
4475.16
-1255.05
5855.59
-1456.1
6974.64
-1634.04
7676.66
-1818.71
7749.55
-2071.89
7247.74
-2328.79
6234.43
-2465.47
4595.79
-2534.52
2644.51
-2602.32
865.798
-2669.97
-957.764
-2772.5
-2988.06
-2908.17
-4999.66
-3032.2
-6926.2
-3004.56
-8432.61
-2519.58
-8657.32
-1257.26
-6202.37
-77.0114
-1113.56
299.047
1952.23
193.739
519.177
12.972
-929.932
214.521
556.918
179.801
717.046
239.341
850.634
138.637
328.69
162.729
487.17
774.98
-813.86
-680.276
-808.373
-683.313
-787.727
-581.127
-758.037
-482.404
-714.544
-342.62
-658.276
-207.658
-591.723
-96.2163
-534.86
-52.4073
-510.592
-40.2138
-463.637
101.433
-383.257
251.872
-410.862
141.671
-372.962
348.018
-394.865
286.501
-374.481
393.188
-327.765
542.27
-212.953
760.405
-105.254
484.192
-270.493
-645.001
-337.144
21.3587
-404.397
369.441
-505.475
79.6481
-585.984
-87.9912
-628.855
96.3152
-650.441
317.723
-677.232
429.138
-721.513
508.91
-759.132
660.548
-795.135
795.462
-815.295
941.301
-853.122
1015.94
-894.013
1180.19
-940.375
1472.47
-1003.55
1821.98
-1073.78
2226.46
-1151.37
2695.7
-1231.59
3256.69
-1309.55
3905.81
-1390.67
4602.84
-1476.16
5324.15
-1526.06
6021.06
-1565.09
6543.69
-1591.45
6934.06
-1597.24
7210.92
-1507.69
7176.58
-1125.9
5923.95
-265.11
1985.18
86.7184
-2400.65
-153.865
-916.426
-414.251
375.364
-706.607
1379.76
-906.746
3034.19
-1085.6
4654.02
-1278.33
6048.32
-1475
7171.31
-1653.53
7855.18
-1853.66
7949.68
-2109.61
7503.7
-2325.77
6450.59
-2418.66
4688.68
-2477.52
2703.38
-2547.05
935.331
-2613.16
-891.657
-2714.35
-2886.87
-2852.39
-4861.62
-2997.26
-6781.33
-3037.33
-8392.53
-2706.57
-8988.09
-1652.51
-7256.43
-276.254
-2489.81
391.126
1284.85
286.073
624.23
61.1197
-704.977
223.815
394.223
209.293
731.568
251.462
808.467
154.984
425.169
163.287
478.867
730.887
-849.914
-674.929
-847.466
-685.761
-831.886
-596.706
-807.353
-506.937
-769.452
-380.521
-719.702
-257.408
-661.12
-154.799
-608.003
-105.524
-574.257
-73.9592
-523.987
51.1622
-452.996
180.881
-452.218
140.894
-413.48
309.279
-417.835
290.856
-390.1
365.452
-334.258
486.428
-223.662
649.809
-147.151
407.68
-310.663
-481.489
-360.379
71.0747
-408.852
417.913
-502.591
173.387
-593.011
2.42886
-643.818
147.121
-669.235
343.14
-697.378
457.28
-739.141
550.673
-773.545
694.952
-804.797
826.713
-823.803
960.307
-858.57
1050.7
-904.495
1226.11
-959.133
1527.1
-1026.32
1889.17
-1098.67
2298.82
-1177.25
2774.27
-1258.54
3337.98
-1338.95
3986.22
-1421.63
4685.52
-1502.42
5404.94
-1549.85
6068.49
-1584.26
6578.1
-1605.6
6955.4
-1600.99
7206.31
-1481.21
7056.8
-1037.29
5480.03
-151.54
1099.44
72.982
-2625.17
-183.998
-659.447
-438.733
630.099
-712.684
1653.71
-917.804
3239.31
-1103.59
4839.8
-1297.74
6242.47
-1489.57
7363.13
-1670.63
8036.25
-1883.83
8162.88
-2132.67
7752.54
-2305.87
6623.79
-2365.87
4748.68
-2421.52
2759.03
-2490.7
1004.51
-2554.18
-828.176
-2651.97
-2789.09
-2787.88
-4725.7
-2944.48
-6624.73
-3035.45
-8301.57
-2834.2
-9189.33
-1971.83
-8118.81
-411.269
-4050.37
546.815
326.767
402.688
768.357
129.129
-431.421
236.22
287.131
239.737
728.049
257.526
790.676
172.961
509.732
161.271
490.554
678.797
-886.957
-669.47
-887.076
-685.641
-876.206
-607.576
-856.789
-526.355
-824.937
-412.373
-782.079
-300.266
-731.392
-205.486
-683.261
-153.655
-645.055
-112.165
-592.32
-1.5728
-523.895
112.456
-499.49
116.489
-452.467
262.256
-440.903
279.291
-412.678
337.228
-365.56
439.309
-279.515
563.764
-223.437
351.602
-356.721
-348.205
-390.455
104.809
-422.565
450.024
-506.789
257.611
-598.026
93.6659
-651.476
200.572
-678.883
370.547
-706.013
484.411
-743.773
588.432
-775.235
726.415
-802.1
853.578
-820.95
979.157
-857.219
1086.97
-911.658
1280.55
-977.004
1592.45
-1050.48
1962.64
-1126.14
2374.47
-1205.59
2853.72
-1287.79
3420.18
-1370.16
4068.59
-1452.89
4768.25
-1528.04
5480.09
-1572.79
6113.24
-1603.23
6608.55
-1619.43
6971.6
-1602.65
7189.53
-1450.44
6904.59
-942.477
4972.06
-71.3573
228.315
20.8747
-2717.41
-239.022
-399.551
-471.007
862.086
-722.023
1904.72
-929.073
3446.36
-1119.48
5030.21
-1313.13
6436.13
-1500.25
7550.25
-1685.34
8221.34
-1907.94
8385.47
-2141.55
7986.16
-2273.26
6755.5
-2310.85
4786.27
-2367.17
2815.34
-2433.89
1071.23
-2494.34
-767.724
-2587.23
-2696.2
-2717.41
-4595.52
-2877.84
-6464.31
-3004.53
-8174.88
-2906.79
-9287.07
-2238.21
-8787.38
-713.564
-5575.02
482.377
-869.174
472.182
778.552
213.379
-172.617
255.981
244.529
267.487
716.545
264.101
794.063
190.588
583.246
166.219
514.923
648.504
-924.273
-663.712
-926.655
-683.259
-919.975
-614.257
-905.391
-540.939
-879.735
-438.028
-844.102
-335.898
-801.719
-247.87
-760.444
-194.93
-723.394
-149.215
-672.548
-52.4188
-607.554
47.4611
-567.748
76.6833
-511.979
206.487
-488.492
255.804
-467.066
315.801
-434.57
406.813
-368.622
497.816
-317.237
300.217
-411.634
-253.808
-430.85
124.025
-447.031
466.204
-517.692
328.272
-604.702
180.675
-656.253
252.123
-682.31
396.604
-706.405
508.505
-738.908
620.935
-766.683
754.189
-790.352
877.247
-812.979
1001.78
-857.728
1131.72
-924.751
1347.57
-1001.28
1668.98
-1080.08
2041.45
-1157.48
2451.87
-1236.49
2932.74
-1319.06
3502.74
-1402.89
4152.41
-1484.11
4849.47
-1553.19
5549.17
-1594.68
6154.73
-1621.77
6635.64
-1632.2
6982.03
-1598.95
7156.27
-1404.35
6709.99
-823.169
4390.88
-10.9098
-583.945
-61.9481
-2666.37
-301.615
-159.885
-497.744
1058.21
-733.12
2140.1
-940.202
3653.44
-1133.07
5223.08
-1324.46
6627.51
-1507.46
7733.25
-1697.34
8411.22
-1924.96
8613.09
-2137.35
8198.55
-2231.66
6849.81
-2255.99
4810.6
-2314.33
2873.68
-2377.16
1134.06
-2434.71
-710.183
-2521.78
-2609.13
-2643.65
-4473.64
-2801.59
-6306.37
-2951.68
-8024.79
-2939.52
-9299.23
-2458.24
-9268.66
-1243.69
-6789.56
86.3631
-2199.23
511.091
353.824
303.33
35.1426
283.471
264.387
290.962
709.052
272.242
812.782
206.835
648.65
173.665
548.091
622.506
-961.49
-657.345
-965.946
-678.803
-962.877
-617.326
-952.67
-551.146
-932.73
-457.967
-903.908
-364.721
-869.548
-282.229
-836.028
-228.449
-804.148
-181.095
-759.952
-96.6145
-703.261
-9.22941
-659.727
33.149
-602.999
149.759
-572.185
224.99
-553.358
296.975
-523.694
377.149
-460.504
434.626
-409.419
249.132
-476.101
-187.125
-484.468
132.392
-486.394
468.13
-540.426
382.304
-616.204
256.454
-662.607
298.526
-685.329
419.327
-705.586
528.763
-732.688
648.037
-757.258
778.759
-781.408
901.397
-813.418
1033.79
-871.755
1190.06
-951.62
1427.44
-1035.79
1753.15
-1116.04
2121.69
-1192.21
2528.04
-1269.46
3009.98
-1351.85
3585.14
-1436.46
4237.02
-1515.08
4928.09
-1577.74
5611.83
-1615.62
6192.61
-1639.54
6659.56
-1642.96
6985.45
-1587.85
7101.16
-1339.28
6461.43
-663.106
3714.7
77.7227
-1324.77
-101.666
-2486.98
-342.611
81.0604
-521.356
1236.96
-744.832
2363.58
-950.881
3859.49
-1144.17
5416.37
-1331.77
6815.11
-1511.45
7912.94
-1706.2
8605.97
-1934.27
8841.16
-2121.62
8385.91
-2184.19
6912.38
-2202.47
4828.87
-2262.61
2933.82
-2320.94
1192.39
-2376.04
-655.083
-2456.88
-2528.29
-2568.78
-4361.74
-2719.12
-6156.03
-2881.08
-7862.83
-2933.76
-9246.56
-2607.78
-9594.64
-1605.3
-7792.04
-130.967
-3673.56
579.062
-356.203
403.344
210.861
321.8
345.932
311.457
719.395
280.927
843.313
220.544
709.035
179.775
588.86
588.317
-998.516
-650.114
-1004.91
-672.41
-1004.95
-617.283
-998.589
-557.509
-983.639
-472.917
-960.764
-387.597
-933.185
-309.808
-906.429
-255.205
-880.57
-206.955
-844.765
-132.419
-798.799
-55.1959
-759.497
-6.1528
-709.21
99.4723
-674.353
190.133
-649.411
272.032
-612.067
339.806
-546.279
368.838
-499.704
202.556
-549.476
-137.354
-550.525
133.441
-540.872
458.477
-577.289
418.72
-637.403
316.569
-677.217
338.34
-697.05
439.16
-714.287
546
-736.99
670.74
-760.635
802.403
-790.361
931.124
-835.528
1078.96
-906.951
1261.48
-994.244
1514.73
-1079.31
1838.22
-1156.38
2198.77
-1229.06
2600.72
-1304.02
3084.93
-1385.74
3666.85
-1470.02
4321.31
-1545.42
5003.49
-1601.58
5667.99
-1635.81
6226.84
-1656.36
6680.11
-1650.84
6979.93
-1566.2
7016.52
-1238.63
6133.86
-388.037
2864.11
232.079
-1944.89
-133.013
-2121.89
-376.686
324.733
-542.632
1402.91
-756.611
2577.56
-960.796
4063.68
-1152.53
5608.1
-1335.21
6997.78
-1512.39
8090.12
-1711.46
8805.05
-1935.64
9065.34
-2096.14
8546.4
-2133.27
6949.52
-2150.64
4846.24
-2211.54
2994.72
-2265.4
1246.25
-2318.74
-601.751
-2393.41
-2453.61
-2494.58
-4260.57
-2633.58
-6017.03
-2797.59
-7698.82
-2895.28
-9148.87
-2695.81
-9794.11
-1883.51
-8604.33
-378.328
-5178.75
548.432
-1282.96
466.055
293.238
366.227
445.757
332.22
753.401
290.16
885.372
231.464
767.729
184.327
635.995
587.081
-1035.3
-641.845
-1043.54
-664.178
-1046.28
-614.537
-1043.27
-560.524
-1032.64
-483.54
-1014.88
-405.361
-992.778
-331.909
-971.157
-276.826
-950.14
-227.972
-921.413
-161.146
-884.504
-92.1045
-850.518
-40.1395
-807.341
56.2962
-770.296
153.088
-737.23
238.966
-693.293
295.869
-630.577
306.123
-592.432
164.41
-629.415
-100.371
-624.569
128.596
-605.765
439.673
-626.342
439.298
-672.134
362.361
-707.262
373.467
-726.572
458.47
-743.132
562.559
-763.907
691.516
-789.541
828.037
-827.59
969.173
-884.364
1135.74
-962.362
1339.48
-1048.43
1600.8
-1127.57
1917.36
-1198.3
2269.49
-1266.78
2669.21
-1339.7
3157.85
-1420.24
3747.39
-1502.85
4403.92
-1574.64
5075.28
-1624.88
5718.23
-1655.45
6257.4
-1672.24
6696.9
-1655.5
6963.2
-1534.93
6895.94
-1124.54
5723.47
-202.978
1942.55
258.748
-2406.62
-139.918
-1723.22
-388.948
573.765
-561.018
1574.98
-768.365
2784.9
-969.594
4264.91
-1157.92
5796.43
-1334.94
7174.8
-1510.36
8265.53
-1712.77
9007.46
-1929.19
9281.76
-2062.64
8679.85
-2080.6
6967.48
-2100.31
4865.96
-2160.71
3055.11
-2210.48
1296.03
-2262.84
-549.389
-2331.82
-2384.63
-2422.3
-4170.09
-2547.64
-5891.69
-2706.07
-7540.4
-2831.73
-9023.2
-2728.37
-9897.47
-2095.34
-9237.37
-838.51
-6435.57
267.876
-2389.35
483.026
78.0884
418.29
510.495
358.667
813.025
301.65
942.39
240.165
829.215
186.905
689.256
578.08
-1071.61
-632.44
-1081.64
-654.148
-1086.85
-609.327
-1086.85
-560.526
-1080.04
-490.341
-1066.75
-418.651
-1049.3
-349.365
-1031.77
-294.356
-1014.5
-245.24
-991.207
-184.44
-961.084
-122.227
-931.195
-70.0292
-892.858
17.959
-855.011
115.242
-817.455
201.409
-773.028
251.442
-718.67
251.764
-688.772
134.512
-714.37
-74.7721
-704.04
118.265
-677.925
413.558
-686.368
447.74
-722.782
398.775
-756.952
407.637
-778.716
480.233
-797.278
581.122
-818.911
713.148
-848.136
857.261
-892.745
1013.78
-954.414
1197.4
-1029.87
1414.93
-1107.06
1677.99
-1176.12
1986.41
-1239.61
2332.98
-1304.54
2734.15
-1375.99
3229.3
-1454.83
3826.22
-1534.51
4483.6
-1602.44
5143.21
-1647.83
5763.62
-1674.78
6284.35
-1687.27
6709.4
-1657.6
6933.53
-1498.09
6736.43
-1013.66
5239.04
-85.3161
1014.21
255.179
-2747.11
-145.477
-1322.57
-387.295
815.582
-577.468
1765.15
-779.869
2987.3
-976.881
4461.92
-1160.16
5979.71
-1331.16
7345.8
-1505.44
8439.81
-1709.86
9211.88
-1915.29
9487.19
-2022.75
8787.31
-2027.25
6971.98
-2050.95
4889.65
-2109.59
3113.76
-2155.84
1342.28
-2208.03
-497.203
-2272.09
-2320.57
-2352.65
-4089.52
-2463.32
-5781.02
-2610.58
-7393.14
-2751.48
-8882.29
-2723.81
-9925.14
-2249.04
-9712.14
-1195.01
-7489.61
78.7817
-3663.14
536.823
-379.953
474.15
573.166
389.597
897.577
316.02
1015.97
248.077
897.157
187.353
749.977
609.03
-1107.1
-621.868
-1118.89
-642.36
-1126.4
-601.815
-1129.21
-557.72
-1125.9
-493.646
-1116.68
-427.874
-1103.42
-362.626
-1089.56
-308.218
-1075.68
-259.114
-1057.16
-202.97
-1032.89
-146.488
-1007.06
-95.8662
-973.178
-15.9204
-936.572
78.6355
-898.511
163.349
-857.377
210.308
-811.919
206.305
-788.037
110.631
-805.051
-57.7579
-791.694
104.908
-761.177
383.041
-760.99
447.554
-791.419
429.204
-826.419
442.637
-852.071
505.886
-873.931
602.983
-897.639
736.857
-929.4
889.022
-975.423
1059.81
-1033.92
1255.9
-1099.5
1480.52
-1163.8
1742.29
-1222.02
2044.63
-1279.33
2390.28
-1342
2796.83
-1412.47
3299.77
-1489.06
3902.82
-1564.85
4559.4
-1628.76
5207.12
-1670.38
5805.24
-1694.06
6308.03
-1701.54
6716.87
-1657.85
6889.85
-1456.66
6535.23
-896.633
4679.01
19.3343
98.2408
254.543
-2982.32
-173.072
-894.95
-402.918
1045.43
-593.141
1955.37
-790.73
3184.89
-982.257
4653.44
-1159.1
6156.55
-1324.04
7510.75
-1497.72
8613.48
-1702.57
9416.74
-1894.44
9679.07
-1977.87
8870.73
-1973.79
6967.89
-2001.86
4917.73
-2057.71
3169.6
-2101.08
1385.65
-2153.77
-444.512
-2213.83
-2260.52
-2285.77
-4017.57
-2381.95
-5684.84
-2514.3
-7260.8
-2659.48
-8737.11
-2689.14
-9895.48
-2349.17
-10052.1
-1451.42
-8387.36
-90.3932
-5024.16
563.509
-1033.85
498.524
638.152
414.259
981.843
329.271
1100.96
254.649
971.78
183.975
820.653
665.1
-1141.51
-610.162
-1154.93
-628.94
-1164.53
-592.21
-1169.93
-552.323
-1169.85
-493.73
-1164.39
-433.327
-1155.03
-371.984
-1144.63
-318.626
-1134.03
-269.715
-1119.98
-217.014
-1101.34
-165.13
-1080.3
-116.906
-1051.79
-44.4265
-1018.53
45.3738
-982.719
127.534
-946.029
173.618
-908.222
168.498
-888.704
91.1134
-901.045
-45.4178
-889.013
92.8761
-858.444
352.473
-852.546
441.656
-877.291
453.948
-911.388
476.734
-939.477
533.975
-963.741
627.246
-988.614
761.73
-1020
920.407
-1061.86
1101.66
-1111.38
1305.43
-1163.83
1532.96
-1215.06
1793.52
-1264.29
2093.86
-1317.46
2443.45
-1379.16
2858.53
-1448.83
3369.44
-1522.64
3976.62
-1593.89
4630.65
-1653.77
5266.99
-1692.4
5843.87
-1713.21
6328.85
-1714.22
6717.87
-1652.76
6828.39
-1398.51
6280.98
-749.834
4030.34
92.2616
-743.855
207.398
-3097.46
-215.996
-471.557
-422.148
1251.58
-608.245
2141.47
-800.469
3377.12
-985.349
4838.32
-1154.71
6325.92
-1313.84
7669.87
-1487.27
8786.91
-1690.81
9620.28
-1867.24
9855.49
-1929.14
8932.63
-1920.37
6959.13
-1952.35
4949.71
-2004.64
3221.89
-2045.73
1426.74
-2099.35
-390.887
-2156.37
-2203.5
-2221.34
-3952.6
-2304.19
-5601.99
-2419.72
-7145.27
-2560.43
-8596.4
-2629.15
-9826.76
-2399.4
-10281.9
-1652.04
-9134.73
-496.3
-6179.9
363.529
-1893.68
476.605
525.075
426.727
1031.72
336.641
1191.04
258.191
1050.23
183.403
895.439
731.647
-1174.66
-597.399
-1189.49
-614.106
-1200.9
-580.801
-1208.56
-544.662
-1211.32
-490.971
-1209.27
-435.383
-1203.48
-377.769
-1196.26
-325.846
-1188.65
-277.329
-1178.62
-227.043
-1165.14
-178.609
-1149.13
-132.909
-1126.44
-67.1174
-1097.95
16.8823
-1065.81
95.3955
-1033.24
141.047
-1002.19
137.448
-987.111
76.0332
-998.239
-34.289
-991.04
85.6763
-964.392
325.825
-955.273
432.538
-973.446
472.122
-1003.31
506.596
-1030.65
561.317
-1055.03
651.63
-1078.98
785.679
-1107.02
948.448
-1141.16
1135.8
-1179.52
1343.79
-1219.43
1572.88
-1260.09
1834.17
-1303.35
2137.12
-1354.53
2494.63
-1416.1
2920.09
-1484.83
3438.17
-1555.33
4047.12
-1621.65
4696.97
-1677.6
5322.95
-1713.82
5880.09
-1731.72
6346.75
-1724.35
6710.49
-1638.98
6743.03
-1317.38
5959.38
-536.08
3249.03
204.157
-1484.09
186.772
-3080.07
-251.353
-33.4315
-440.84
1441.07
-622.609
2323.24
-808.638
3563.15
-985.84
5015.52
-1147.05
6487.13
-1300.82
7823.64
-1474.16
8960.25
-1674.57
9820.69
-1834.29
10015.2
-1877.46
8975.8
-1866.9
6948.57
-1901.8
4984.61
-1950.08
3270.16
-1989.33
1465.99
-2044.02
-336.191
-2098.89
-2148.63
-2158.67
-3892.82
-2230.04
-5530.62
-2328.45
-7046.86
-2458.62
-8466.23
-2551.43
-9733.95
-2407.89
-10425.4
-1799.74
-9742.88
-782.237
-7197.41
220.003
-2895.92
470.935
274.144
445.785
1056.87
343.365
1293.46
258.981
1134.61
181.783
972.638
822.46
-1206.51
-583.675
-1222.48
-598.134
-1235.36
-567.923
-1244.88
-535.141
-1249.98
-485.867
-1250.79
-434.579
-1248.08
-380.477
-1243.63
-330.297
-1238.51
-282.443
-1231.75
-233.809
-1222.6
-187.762
-1211.22
-144.279
-1193.99
-84.3489
-1170.65
-6.46158
-1142.64
67.3886
-1113.7
112.102
-1088.75
112.496
-1078.09
65.3731
-1089.7
-22.6785
-1088.57
84.5484
-1067.78
305.033
-1057.45
422.211
-1068.91
483.58
-1092.1
529.785
-1115.92
585.139