/*--------------------------------*- C++ -*----------------------------------*\
| =========                 |                                                 |
| \\      /  F ield         | OpenFOAM: The Open Source CFD Toolbox           |
|  \\    /   O peration     | Version:  4.1                                   |
|   \\  /    A nd           | Web:      www.OpenFOAM.org                      |
|    \\/     M anipulation  |                                                 |
\*---------------------------------------------------------------------------*/
FoamFile
{
    version     2.0;
    format      ascii;
    class       volVectorField;
    location    "23";
    object      U;
}
// * * * * * * * * * * * * * * * * * * * * * * * * * * * * * * * * * * * * * //

dimensions      [0 1 -1 0 0 0 0];

internalField   nonuniform List<vector> 
6785
(
(-2.37639e+56 -1.08876e+58 3.33583e+57)
(-2.52265e+56 -1.50751e+58 9.16601e+57)
(-2.03296e+56 -1.43079e+58 9.74728e+57)
(-1.55515e+56 -1.28568e+58 7.70868e+57)
(-6.77558e+55 -9.46208e+57 4.2067e+57)
(-2.58835e+55 -5.92306e+57 2.01588e+57)
(-4.39639e+55 -2.78655e+57 3.37555e+57)
(-2.82529e+56 -9.04032e+57 1.4223e+58)
(-3.79763e+56 -1.34407e+58 1.72583e+58)
(-4.17547e+56 -1.48867e+58 1.89771e+58)
(-4.07384e+56 -1.47408e+58 1.94539e+58)
(-3.54512e+56 -1.36006e+58 1.85994e+58)
(-1.94564e+56 -9.80791e+57 1.68207e+58)
(-1.87399e+56 -1.215e+58 1.7578e+58)
(-2.45467e+56 -1.31595e+58 1.12884e+58)
(-3.29749e+56 -1.65401e+58 3.70449e+57)
(-3.36696e+56 -1.90878e+58 5.15805e+57)
(-3.06626e+56 -2.01372e+58 1.24809e+58)
(-2.75735e+56 -1.73954e+58 1.2486e+58)
(-2.17604e+56 -1.35517e+58 1.08756e+58)
(-2.60272e+56 -1.08072e+58 1.02986e+58)
(-3.56559e+56 -1.08448e+58 1.37271e+58)
(-5.02133e+56 -1.67186e+58 1.9551e+58)
(-5.11854e+56 -1.92933e+58 1.96513e+58)
(-4.77207e+56 -1.93308e+58 1.72748e+58)
(-4.63703e+56 -1.95137e+58 1.34021e+58)
(-4.55681e+56 -1.88799e+58 9.65477e+57)
(-4.72469e+56 -1.90894e+58 1.49458e+58)
(-4.70473e+56 -1.9283e+58 1.87705e+58)
(-4.31279e+56 -1.92339e+58 1.79709e+58)
(-3.70513e+56 -1.73396e+58 1.05352e+58)
(-3.52225e+56 -1.84799e+58 1.47601e+58)
(-3.55931e+56 -1.72753e+58 1.41892e+58)
(-3.62761e+56 -1.59448e+58 1.40174e+58)
(-3.51711e+56 -1.59009e+58 1.44498e+58)
(-3.66274e+56 -1.62322e+58 1.50316e+58)
(-4.18792e+56 -1.83289e+58 1.67816e+58)
(-4.83231e+56 -2.2783e+58 1.76732e+58)
(-4.78175e+56 -2.29152e+58 1.48897e+58)
(-4.57909e+56 -2.10769e+58 9.49038e+57)
(-4.59888e+56 -1.86293e+58 7.18029e+57)
(-4.62592e+56 -1.70103e+58 6.33502e+57)
(-4.58194e+56 -1.63084e+58 6.23381e+57)
(-5.15144e+56 -1.86931e+58 1.23633e+58)
(-4.65845e+56 -1.94778e+58 1.62491e+58)
(-3.79654e+56 -1.90405e+58 1.27513e+58)
(-5.49261e+56 -1.97874e+58 8.73847e+57)
(-5.5875e+56 -1.93128e+58 8.29396e+57)
(-5.1994e+56 -1.8485e+58 6.85497e+57)
(-4.75067e+56 -1.86427e+58 7.42551e+57)
(-4.4444e+56 -2.04473e+58 9.61496e+57)
(-4.39979e+56 -2.24549e+58 1.13715e+58)
(-4.46994e+56 -2.38583e+58 1.14346e+58)
(-4.51633e+56 -2.4114e+58 1.05146e+58)
(-4.55265e+56 -2.36521e+58 9.80185e+57)
(-4.58452e+56 -2.25157e+58 9.33281e+57)
(-4.63767e+56 -2.08157e+58 8.68026e+57)
(-4.64788e+56 -1.83573e+58 7.45829e+57)
(-4.74468e+56 -1.76817e+58 7.65168e+57)
(-4.67595e+56 -1.98513e+58 1.63838e+58)
(-4.12389e+56 -2.06888e+58 1.08105e+58)
(-5.42313e+56 -2.42265e+58 1.27153e+58)
(-5.7515e+56 -2.46848e+58 1.20613e+58)
(-5.56421e+56 -2.58489e+58 1.0647e+58)
(-5.44164e+56 -2.71781e+58 9.98538e+57)
(-5.33792e+56 -2.83888e+58 9.5417e+57)
(-5.27188e+56 -2.90657e+58 9.42453e+57)
(-5.24338e+56 -2.90477e+58 9.08252e+57)
(-5.21596e+56 -2.87443e+58 9.19774e+57)
(-5.17581e+56 -2.7884e+58 9.56564e+57)
(-5.10788e+56 -2.62674e+58 9.81411e+57)
(-5.05198e+56 -2.43795e+58 9.83195e+57)
(-4.97298e+56 -2.13274e+58 8.95917e+57)
(-4.93991e+56 -1.81308e+58 7.72371e+57)
(-4.64303e+56 -1.78052e+58 1.43991e+58)
(-5.48363e+56 -2.07319e+58 2.15092e+58)
(-5.37009e+56 -1.79712e+58 1.97334e+58)
(-5.38523e+56 -1.63296e+58 1.96685e+58)
(-5.40275e+56 -1.53088e+58 1.93097e+58)
(-5.40044e+56 -1.4689e+58 1.90662e+58)
(-5.37012e+56 -1.53139e+58 2.02301e+58)
(-5.28587e+56 -1.80085e+58 2.40053e+58)
(-5.16163e+56 -2.25016e+58 2.99034e+58)
(-5.04795e+56 -2.66389e+58 3.49563e+58)
(-4.95361e+56 -2.96814e+58 3.85688e+58)
(-4.94049e+56 -2.98514e+58 3.75386e+58)
(-4.94047e+56 -2.73878e+58 3.62868e+58)
(-4.83094e+56 -2.5702e+58 4.40919e+58)
(-4.99692e+56 -2.7409e+58 4.30583e+58)
(-5.34748e+56 -2.21486e+58 3.22899e+58)
(-5.92983e+56 -2.59586e+57 2.01818e+58)
(-6.04967e+56 1.04937e+58 3.65559e+57)
(-6.33294e+56 1.84209e+58 -4.65382e+57)
(-6.48508e+56 2.40915e+58 -1.09952e+58)
(-6.56415e+56 2.79376e+58 -1.49824e+58)
(-6.61414e+56 3.06786e+58 -1.79096e+58)
(-6.64839e+56 3.23017e+58 -1.99989e+58)
(-6.70618e+56 3.36462e+58 -2.25103e+58)
(-6.78254e+56 3.47111e+58 -2.57573e+58)
(-6.85045e+56 3.48154e+58 -2.89123e+58)
(-6.86518e+56 3.38039e+58 -3.1572e+58)
(-6.68197e+56 3.11345e+58 -3.16563e+58)
(-6.08359e+56 2.06123e+58 -1.90394e+58)
(-4.99217e+56 -5.44306e+57 1.94245e+58)
(-3.52061e+56 -2.39535e+58 6.67919e+58)
(-6.0216e+56 -4.90806e+57 4.1676e+58)
(-6.06061e+56 4.8293e+57 2.30816e+58)
(-6.41512e+56 1.25263e+58 1.52835e+58)
(-6.74116e+56 1.78391e+58 8.19495e+57)
(-7.03996e+56 2.18499e+58 2.57996e+57)
(-7.36798e+56 2.51928e+58 -3.39639e+57)
(-7.7735e+56 2.94807e+58 -1.20564e+58)
(-8.28169e+56 3.41164e+58 -2.28351e+58)
(-8.81129e+56 3.78861e+58 -3.26548e+58)
(-9.38187e+56 4.31963e+58 -4.49213e+58)
(-9.80855e+56 5.03658e+58 -6.07563e+58)
(-9.68474e+56 5.74254e+58 -7.50053e+58)
(-9.28391e+56 6.56163e+58 -9.21797e+58)
(-7.91734e+56 5.90916e+58 -9.83546e+58)
(-3.83626e+56 1.79384e+58 -4.26665e+58)
(-5.61525e+56 -7.87503e+57 4.63826e+58)
(-6.34559e+56 -5.126e+57 3.31865e+58)
(-6.3854e+56 6.93424e+56 2.34516e+58)
(-6.5245e+56 4.5941e+57 1.81315e+58)
(-6.76134e+56 6.80512e+57 1.42778e+58)
(-7.03785e+56 8.25516e+57 1.01911e+58)
(-7.36195e+56 1.00203e+58 4.51774e+57)
(-7.69662e+56 1.19883e+58 -1.29205e+57)
(-7.98788e+56 1.38298e+58 -5.11697e+57)
(-8.1696e+56 1.48518e+58 -5.45691e+57)
(-8.14283e+56 1.25678e+58 2.76641e+57)
(-8.16078e+56 6.30418e+57 1.89016e+58)
(-1.0059e+57 2.1773e+58 -9.46014e+57)
(-1.13955e+57 6.07807e+58 -1.02828e+59)
(-8.09011e+56 5.06661e+58 -1.31278e+59)
(-5.2307e+56 -1.04094e+58 4.72894e+58)
(-6.61138e+56 -1.30426e+58 4.34259e+58)
(-6.65288e+56 -9.32877e+57 3.24858e+58)
(-6.52203e+56 -5.57158e+57 2.54223e+58)
(-6.52477e+56 -3.34224e+57 2.08133e+58)
(-6.64854e+56 -2.12355e+57 1.71076e+58)
(-6.85564e+56 -1.26508e+57 1.33876e+58)
(-7.0901e+56 -7.96383e+56 1.02104e+58)
(-7.32214e+56 -3.97991e+56 8.24967e+57)
(-7.47389e+56 -3.78755e+56 7.7798e+57)
(-7.5452e+56 -1.9009e+57 1.06241e+58)
(-7.69526e+56 -3.65749e+57 1.42819e+58)
(-8.52489e+56 -3.42914e+57 1.62061e+58)
(-1.01193e+57 3.10071e+58 -4.64656e+58)
(-9.35566e+56 5.04224e+58 -1.58448e+59)
(-4.40316e+56 -8.31992e+57 5.34375e+58)
(-6.28574e+56 -1.70062e+58 5.10491e+58)
(-6.70245e+56 -1.49686e+58 4.53877e+58)
(-6.61698e+56 -1.21167e+58 4.22144e+58)
(-6.5187e+56 -9.38819e+57 4.12389e+58)
(-6.53174e+56 -7.86586e+57 3.98826e+58)
(-6.65023e+56 -6.44252e+57 3.76624e+58)
(-6.83861e+56 -5.1314e+57 3.42319e+58)
(-7.05174e+56 -4.1283e+57 3.05766e+58)
(-7.27236e+56 -3.84383e+57 2.75306e+58)
(-7.50587e+56 -5.4734e+57 2.57216e+58)
(-7.75088e+56 -8.44172e+57 2.60862e+58)
(-8.26294e+56 -5.66134e+57 2.0068e+58)
(-8.08967e+56 3.39608e+57 -1.40745e+57)
(-9.96855e+56 4.33118e+58 -1.68356e+59)
(-4.54592e+56 -2.03591e+58 6.41641e+58)
(-6.1365e+56 -1.30907e+58 7.11815e+58)
(-6.33623e+56 -8.63285e+57 6.78842e+58)
(-6.53337e+56 -3.19369e+57 6.33309e+58)
(-6.90132e+56 -3.88618e+57 5.41922e+58)
(-7.33952e+56 -5.51592e+57 4.37601e+58)
(-7.82378e+56 -9.44059e+57 3.32762e+58)
(-8.31979e+56 -1.59912e+58 2.35257e+58)
(-8.79299e+56 -2.42265e+58 1.42571e+58)
(-9.23526e+56 -3.19909e+58 4.17736e+57)
(-9.62047e+56 -3.7484e+58 -5.33476e+57)
(-9.84204e+56 -4.07698e+58 -1.73199e+58)
(-9.90826e+56 -3.54957e+58 -3.33454e+58)
(-9.44649e+56 -2.64661e+58 -4.06575e+58)
(-1.03541e+57 2.52288e+58 -1.40151e+59)
(-4.24503e+56 3.10449e+58 1.29183e+59)
(-5.61806e+56 -2.67143e+58 1.10045e+59)
(-6.48904e+56 -1.6246e+58 8.35386e+58)
(-8.34642e+56 -7.44344e+58 4.61024e+58)
(-9.79046e+56 -9.48349e+58 1.75134e+58)
(-1.0847e+57 -1.01461e+59 1.59116e+54)
(-1.16463e+57 -1.05846e+59 -1.01754e+58)
(-1.22516e+57 -1.11256e+59 -1.48967e+58)
(-1.269e+57 -1.16595e+59 -1.34893e+58)
(-1.2973e+57 -1.21778e+59 -6.49924e+57)
(-1.31062e+57 -1.23545e+59 6.10355e+57)
(-1.30948e+57 -1.24146e+59 2.3425e+58)
(-1.29003e+57 -1.21459e+59 4.39172e+58)
(-1.21356e+57 -1.13803e+59 6.63419e+58)
(-1.11331e+57 -4.88218e+58 2.31353e+58)
(-5.97989e+56 -2.4755e+59 5.8361e+58)
(-1.23066e+57 -1.97599e+59 -2.47397e+58)
(-1.49813e+57 -1.4317e+59 -8.29945e+58)
(-1.66e+57 -1.03074e+59 -1.31506e+59)
(-1.76639e+57 -8.06261e+58 -1.61053e+59)
(-1.84071e+57 -6.52455e+58 -1.7703e+59)
(-1.88845e+57 -6.35435e+58 -1.76009e+59)
(-1.91854e+57 -6.62104e+58 -1.60984e+59)
(-1.93215e+57 -7.71952e+58 -1.31634e+59)
(-1.93552e+57 -9.14629e+58 -8.72732e+58)
(-1.92487e+57 -1.14811e+59 -2.62128e+58)
(-1.8879e+57 -1.47285e+59 5.50372e+58)
(-1.81662e+57 -1.91237e+59 1.68277e+59)
(-1.65591e+57 -2.51998e+59 3.49939e+59)
(-1.29831e+57 -4.08878e+59 6.42605e+59)
(-2.13872e+57 -4.82233e+58 5.58944e+59)
(-2.6292e+57 6.1902e+59 -1.84571e+59)
(-2.55766e+57 5.82078e+59 -1.88327e+59)
(-2.57575e+57 6.67417e+59 -2.64197e+59)
(-2.55787e+57 6.8573e+59 -2.50585e+59)
(-2.55012e+57 7.17383e+59 -2.69928e+59)
(-2.52927e+57 7.1408e+59 -2.6156e+59)
(-2.51212e+57 7.1964e+59 -2.50507e+59)
(-2.48472e+57 6.99032e+59 -2.51677e+59)
(-2.45272e+57 6.72446e+59 -2.17133e+59)
(-2.42191e+57 6.48607e+59 -2.26171e+59)
(-2.3621e+57 5.93214e+59 -1.76363e+59)
(-2.29357e+57 5.93067e+59 -1.47637e+59)
(-2.09486e+57 6.05549e+59 -4.48097e+58)
(-1.471e+57 6.66174e+59 1.93225e+59)
(-4.3903e+57 1.28616e+61 1.99714e+60)
(-5.09699e+57 1.24603e+60 -8.73661e+59)
(-4.80437e+57 1.5233e+59 -2.49668e+60)
(-4.78e+57 4.51938e+59 -1.35643e+60)
(-4.77645e+57 7.10804e+58 -1.42745e+60)
(-6.50138e+57 6.79644e+56 -1.67479e+60)
(-4.13516e+57 2.06201e+59 -1.56797e+60)
(-4.34822e+57 3.48699e+59 -1.67327e+60)
(-4.63049e+57 4.36654e+59 -1.74031e+60)
(-6.55415e+57 6.27867e+59 -1.78094e+60)
(-4.97333e+57 4.05659e+59 -1.78936e+60)
(-4.62611e+57 5.52597e+59 -1.64014e+60)
(-6.40188e+57 9.6469e+59 -1.92452e+60)
(-4.72677e+57 6.7835e+59 -1.80019e+60)
(-4.66905e+57 8.06428e+59 -1.75979e+60)
(-4.43217e+57 8.51728e+59 -1.6742e+60)
(-6.23745e+57 1.45752e+60 -2.01479e+60)
(-4.67907e+57 1.06653e+60 -1.71455e+60)
(-4.36407e+57 1.09874e+60 -1.61945e+60)
(-6.16427e+57 1.84378e+60 -1.96278e+60)
(-4.54507e+57 1.32419e+60 -1.58712e+60)
(-4.49511e+57 1.47358e+60 -1.56227e+60)
(-4.26736e+57 1.47791e+60 -1.50002e+60)
(-6.04082e+57 2.29901e+60 -1.82669e+60)
(-4.4578e+57 1.67356e+60 -1.44577e+60)
(-4.40883e+57 1.82087e+60 -1.42117e+60)
(-4.18889e+57 1.81235e+60 -1.36563e+60)
(-5.90266e+57 2.66816e+60 -1.6601e+60)
(-4.43048e+57 2.02112e+60 -1.30845e+60)
(-4.13485e+57 1.99657e+60 -1.24533e+60)
(-5.84116e+57 2.96906e+60 -1.50116e+60)
(-4.31174e+57 2.19305e+60 -1.16845e+60)
(-4.26471e+57 2.33434e+60 -1.15109e+60)
(-4.05251e+57 2.29959e+60 -1.1106e+60)
(-5.70926e+57 3.23469e+60 -1.33874e+60)
(-4.28876e+57 2.47695e+60 -1.04458e+60)
(-4.00306e+57 2.42135e+60 -9.99414e+59)
(-5.65458e+57 3.46912e+60 -1.19066e+60)
(-4.17661e+57 2.58666e+60 -9.24573e+59)
(-4.13206e+57 2.71898e+60 -9.13682e+59)
(-3.92383e+57 2.65741e+60 -8.84555e+59)
(-5.55352e+57 3.68801e+60 -1.05643e+60)
(-4.10495e+57 2.76817e+60 -8.18996e+59)
(-4.06068e+57 2.89153e+60 -8.06746e+59)
(-3.85854e+57 2.8243e+60 -7.80422e+59)
(-5.43723e+57 3.83334e+60 -9.2946e+59)
(-4.08682e+57 2.96113e+60 -7.25011e+59)
(-3.81455e+57 2.87023e+60 -6.96529e+59)
(-5.39055e+57 3.98978e+60 -8.13611e+59)
(-3.98289e+57 2.9988e+60 -6.3693e+59)
(-3.94047e+57 3.11626e+60 -6.29471e+59)
(-3.74156e+57 3.02924e+60 -6.10669e+59)
(-5.29864e+57 4.11263e+60 -7.17949e+59)
(-3.91675e+57 3.10547e+60 -5.61994e+59)
(-3.87451e+57 3.21524e+60 -5.52724e+59)
(-3.68122e+57 3.12634e+60 -5.35259e+59)
(-5.19134e+57 4.1735e+60 -6.29826e+59)
(-3.90137e+57 3.23572e+60 -4.95736e+59)
(-3.64076e+57 3.12287e+60 -4.77653e+59)
(-5.14986e+57 4.27756e+60 -5.46741e+59)
(-3.80329e+57 3.22788e+60 -4.35076e+59)
(-3.76218e+57 3.33299e+60 -4.29512e+59)
(-3.57397e+57 3.23503e+60 -4.16828e+59)
(-5.04387e+57 4.29449e+60 -4.84274e+59)
(-3.78872e+57 3.33323e+60 -3.85739e+59)
(-3.53514e+57 3.21154e+60 -3.73669e+59)
(-5.00473e+57 4.37598e+60 -4.22245e+59)
(-3.69366e+57 3.30646e+60 -3.40913e+59)
(-3.65426e+57 3.40879e+60 -3.38552e+59)
(-3.46866e+57 3.29886e+60 -3.28791e+59)
(-4.92265e+57 4.41328e+60 -3.82819e+59)
(-3.63344e+57 3.34773e+60 -3.07172e+59)
(-3.59417e+57 3.4453e+60 -3.02548e+59)
(-3.41357e+57 3.33725e+60 -2.92142e+59)
(-4.82605e+57 4.40838e+60 -3.49286e+59)
(-3.61955e+57 3.42617e+60 -2.80024e+59)
(-3.38023e+57 3.30618e+60 -2.69469e+59)
(-4.75255e+57 4.39686e+60 -3.16622e+59)
(-3.61539e+57 3.4756e+60 -2.56525e+59)
(-3.19512e+57 3.14736e+60 -2.49049e+59)
(-4.06452e+57 3.71349e+60 -2.69468e+59)
(-4.14237e+57 3.59929e+60 -2.80302e+59)
(-4.11081e+57 3.52575e+60 -2.90906e+59)
(-4.59504e+57 3.55797e+60 -2.52249e+59)
(-4.1037e+57 3.35448e+60 -2.45756e+59)
(-4.12082e+57 3.3619e+60 -2.65785e+59)
(-4.13604e+57 3.36709e+60 -2.799e+59)
(-4.12329e+57 3.37001e+60 -2.82147e+59)
(-4.10766e+57 3.37388e+60 -2.82058e+59)
(-4.08692e+57 3.37288e+60 -2.81755e+59)
(-4.07989e+57 3.38572e+60 -2.79105e+59)
(-4.05655e+57 3.35774e+60 -2.9474e+59)
(-4.39019e+57 3.66818e+60 -1.60859e+59)
(-4.04795e+57 3.29251e+60 -2.32138e+59)
(-4.02454e+57 3.28203e+60 -2.35687e+59)
(-4.00349e+57 3.28303e+60 -2.35477e+59)
(-3.99564e+57 3.28416e+60 -2.39202e+59)
(-3.9811e+57 3.28652e+60 -2.39017e+59)
(-3.96232e+57 3.28438e+60 -2.39072e+59)
(-3.9527e+57 3.29522e+60 -2.34605e+59)
(-3.9126e+57 3.26894e+60 -2.4219e+59)
(-4.21489e+57 3.55591e+60 -8.65625e+58)
(-3.90574e+57 3.19717e+60 -1.83529e+59)
(-3.88278e+57 3.18553e+60 -1.87275e+59)
(-3.86552e+57 3.18541e+60 -1.88279e+59)
(-3.84893e+57 3.1861e+60 -1.88341e+59)
(-3.83288e+57 3.18618e+60 -1.87837e+59)
(-3.82028e+57 3.18929e+60 -1.85804e+59)
(-3.8024e+57 3.18641e+60 -1.85311e+59)
(-3.79279e+57 3.196e+60 -1.80123e+59)
(-3.75491e+57 3.171e+60 -1.88166e+59)
(-4.03051e+57 3.44145e+60 -1.78666e+58)
(-3.74112e+57 3.09335e+60 -1.29238e+59)
(-3.71906e+57 3.08211e+60 -1.33056e+59)
(-3.70217e+57 3.08226e+60 -1.33638e+59)
(-3.68607e+57 3.0827e+60 -1.33335e+59)
(-3.66999e+57 3.08391e+60 -1.32105e+59)
(-3.65416e+57 3.08234e+60 -1.31741e+59)
(-3.64606e+57 3.09168e+60 -1.26301e+59)
(-3.61023e+57 3.06726e+60 -1.35218e+59)
(-3.86435e+57 3.32666e+60 5.03123e+58)
(-3.58894e+57 2.98484e+60 -7.19762e+58)
(-3.56786e+57 2.97372e+60 -7.63783e+58)
(-3.55315e+57 2.9735e+60 -7.79778e+58)
(-3.53754e+57 2.97377e+60 -7.78783e+58)
(-3.52241e+57 2.97543e+60 -7.66078e+58)
(-3.50531e+57 2.97313e+60 -7.65289e+58)
(-3.49455e+57 2.98194e+60 -7.07233e+58)
(-3.46323e+57 2.9591e+60 -8.1475e+58)
(-3.69641e+57 3.21414e+60 1.18252e+59)
(-3.43881e+57 2.87485e+60 -1.81954e+58)
(-3.41834e+57 2.86345e+60 -2.26707e+58)
(-3.40219e+57 2.86418e+60 -2.39447e+58)
(-3.38739e+57 2.86314e+60 -2.24443e+58)
(-3.37319e+57 2.86466e+60 -2.01436e+58)
(-3.35635e+57 2.86319e+60 -1.98697e+58)
(-3.34652e+57 2.87275e+60 -1.42371e+58)
(-3.3138e+57 2.84988e+60 -2.44446e+58)
(-3.52856e+57 3.11104e+60 1.82274e+59)
(-3.28772e+57 2.76564e+60 3.65204e+58)
(-3.26804e+57 2.75589e+60 3.16691e+58)
(-3.25257e+57 2.7573e+60 3.04164e+58)
(-3.2375e+57 2.75765e+60 3.1524e+58)
(-3.22324e+57 2.7625e+60 2.91171e+58)
(-3.20675e+57 2.75855e+60 4.02899e+58)
(-3.18996e+57 2.76063e+60 4.25153e+58)
(-3.18006e+57 2.77449e+60 4.88855e+58)
(-3.14896e+57 2.75264e+60 4.01387e+58)
(-3.34525e+57 3.04375e+60 2.37089e+59)
(-3.1226e+57 2.68179e+60 9.72286e+58)
(-3.1071e+57 2.67533e+60 9.28638e+58)
(-3.09304e+57 2.68026e+60 9.18303e+58)
(-3.07801e+57 2.68428e+60 9.33488e+58)
(-3.06699e+57 2.6967e+60 9.09752e+58)
(-3.04342e+57 2.70102e+60 1.04475e+59)
(-2.98926e+57 2.69813e+60 1.79678e+59)
(-2.94434e+57 2.67592e+60 1.98632e+59)
(-3.2028e+57 3.30785e+60 2.61309e+59)
(-2.89898e+57 2.73002e+60 2.40982e+59)
(-2.93103e+57 2.75595e+60 2.51332e+59)
(-2.30758e+57 2.5456e+60 1.6314e+59)
(-2.78352e+57 3.02033e+60 1.85115e+59)
(-3.21922e+57 3.27342e+60 2.27267e+59)
(-2.11575e+57 2.23966e+60 1.40354e+59)
(-2.90686e+57 3.11534e+60 1.96263e+59)
(-2.08559e+57 2.28387e+60 1.38003e+59)
(-2.57837e+57 2.71229e+60 1.56127e+59)
(-2.98009e+57 2.93381e+60 1.86497e+59)
(-2.00677e+57 2.08209e+60 1.2065e+59)
(-2.46118e+57 2.51378e+60 1.43722e+59)
(-2.84919e+57 2.76581e+60 1.75493e+59)
(-1.86624e+57 1.8904e+60 1.05368e+59)
(-2.56497e+57 2.64138e+60 1.4534e+59)
(-1.83343e+57 1.9286e+60 1.01752e+59)
(-2.26891e+57 2.2902e+60 1.09965e+59)
(-2.67925e+57 2.58572e+60 1.71355e+59)
(-1.76188e+57 1.76319e+60 1.03966e+59)
(-2.45455e+57 2.54564e+60 2.03249e+59)
(-1.76511e+57 1.85589e+60 1.39785e+59)
(-2.19579e+57 2.25409e+60 2.14745e+59)
(-2.56806e+57 2.49412e+60 4.02328e+59)
(-1.73475e+57 1.75825e+60 2.4934e+59)
(-2.13471e+57 2.16649e+60 4.00277e+59)
(-2.51973e+57 2.49153e+60 5.76542e+59)
(-1.66024e+57 1.6633e+60 3.96769e+59)
(-2.30079e+57 2.52107e+60 4.49328e+59)
(-1.65817e+57 1.84243e+60 3.53323e+59)
(-2.04346e+57 2.20045e+60 2.79702e+59)
(-2.18171e+57 3.25208e+60 -6.99302e+59)
(-1.47808e+57 2.2148e+60 -3.39915e+59)
(-1.63294e+57 3.69689e+60 -1.66129e+60)
(-1.12883e+57 2.93388e+60 -1.25923e+60)
(-1.25649e+57 3.68748e+60 -1.97499e+60)
(-1.48441e+57 4.37557e+60 -2.6941e+60)
(-9.56803e+56 3.38131e+60 -1.83411e+60)
(-1.23316e+57 4.20519e+60 -2.39423e+60)
(-1.56775e+57 4.77535e+60 -3.04546e+60)
(-9.57701e+56 3.54474e+60 -2.0221e+60)
(-1.44807e+57 4.95409e+60 -2.98157e+60)
(-9.62988e+56 3.8836e+60 -2.18169e+60)
(-1.24782e+57 4.60639e+60 -2.84189e+60)
(-1.35881e+57 4.72454e+60 -3.43081e+60)
(-7.69223e+56 3.52828e+60 -2.44726e+60)
(-9.41057e+56 4.40103e+60 -3.30285e+60)
(-5.2149e+56 3.42579e+60 -2.61855e+60)
(-4.87454e+56 3.95443e+60 -3.28723e+60)
(4.51171e+56 3.83586e+60 -3.86821e+60)
(5.18591e+56 2.48888e+60 -3.12777e+60)
(1.74438e+57 3.13175e+60 -4.08961e+60)
(6.53068e+57 6.91559e+60 -6.08669e+60)
(3.59468e+57 -2.36295e+60 -3.45732e+60)
(3.8349e+57 3.90508e+60 -3.77209e+60)
(-2.01741e+56 -8.85102e+59 -1.04779e+60)
(-6.52333e+56 -3.38358e+58 -5.99152e+59)
(-3.81492e+57 -4.17295e+60 2.03033e+60)
(-4.10939e+57 -4.40379e+60 2.43316e+60)
(-6.18524e+57 -6.87046e+60 3.96463e+60)
(-5.75141e+57 -6.36255e+60 3.89027e+60)
(-9.13872e+57 -1.01517e+61 6.46774e+60)
(-9.83658e+57 -1.26688e+61 7.289e+60)
(-8.52949e+57 -1.12843e+61 6.47465e+60)
(-1.30831e+58 -1.72782e+61 1.00314e+61)
(-1.28046e+58 -1.93232e+61 1.00837e+61)
(-1.07281e+58 -1.73193e+61 8.73939e+60)
(-1.51569e+58 -2.4916e+61 1.23312e+61)
(-1.17435e+58 -1.98358e+61 9.83725e+60)
(-1.79245e+58 -2.99418e+61 1.49308e+61)
(-1.6517e+58 -3.06725e+61 1.39783e+61)
(-1.36354e+58 -2.70898e+61 1.19605e+61)
(-1.90358e+58 -3.81586e+61 1.65477e+61)
(-1.44204e+58 -2.94926e+61 1.29453e+61)
(-2.1805e+58 -4.38668e+61 1.93786e+61)
(-1.9575e+58 -4.26961e+61 1.76376e+61)
(-1.61761e+58 -3.66509e+61 1.50245e+61)
(-2.3821e+58 -5.26565e+61 2.17987e+61)
(-2.1185e+58 -5.11193e+61 1.9828e+61)
(-1.73467e+58 -4.43364e+61 1.70264e+61)
(-2.39376e+58 -6.19594e+61 2.31511e+61)
(-1.79391e+58 -4.48954e+61 1.79689e+61)
(-2.77644e+58 -6.19583e+61 2.80344e+61)
(-5.65466e+55 -2.5035e+58 1.27397e+59)
(-5.81785e+55 -5.012e+58 1.32256e+59)
(-5.83724e+55 -9.13911e+58 1.17831e+59)
(-6.17493e+55 -2.12707e+56 1.08943e+59)
(-7.44948e+55 6.04487e+58 1.31376e+59)
(-7.04273e+55 -6.88809e+58 9.20996e+58)
(-6.8646e+55 6.74002e+58 1.10878e+59)
(-6.76646e+55 -4.95434e+58 9.5304e+58)
(-6.35122e+55 -7.82838e+58 7.47053e+58)
(-6.15048e+55 -4.35234e+58 7.49297e+58)
(-5.47023e+55 -2.79271e+59 -2.04723e+58)
(-5.37919e+55 -6.67221e+58 3.50501e+58)
(-4.93284e+55 -1.00606e+59 7.58058e+57)
(-5.13074e+55 -3.12359e+58 1.19487e+59)
(-4.2316e+55 -4.90832e+58 4.86218e+58)
(-3.53161e+55 -4.13734e+58 -3.81399e+58)
(-5.57257e+55 3.2577e+59 8.09603e+58)
(-6.21493e+55 1.61104e+59 1.40945e+59)
(-6.0589e+55 1.28246e+59 1.37709e+59)
(-6.1943e+55 1.05835e+59 1.55776e+59)
(-6.11947e+55 6.16882e+58 1.46967e+59)
(-5.95376e+55 3.87116e+58 1.39063e+59)
(-5.60342e+55 -8.77792e+57 1.4033e+59)
(-5.23379e+55 -6.6889e+58 1.41121e+59)
(-5.11776e+55 -1.26936e+59 1.08162e+59)
(-5.0758e+55 -1.81649e+58 1.3467e+59)
(-4.85067e+55 -3.50298e+58 1.31011e+59)
(-4.60921e+55 -7.71177e+58 1.18404e+59)
(-4.55094e+55 -1.0477e+59 9.46225e+58)
(-4.55307e+55 -4.59715e+58 1.20174e+59)
(-4.3591e+55 -3.58527e+58 1.06255e+59)
(-4.01057e+55 -3.83124e+58 7.77969e+58)
(-3.77906e+55 -1.72776e+58 8.26492e+58)
(-4.28939e+55 -5.79421e+58 1.0304e+59)
(-3.87401e+55 -1.81541e+59 4.44735e+58)
(-3.92945e+55 -1.99934e+58 8.65697e+58)
(-4.10162e+55 -4.75124e+58 7.80574e+58)
(-4.12597e+55 -8.2637e+58 6.44125e+58)
(-3.95172e+55 -7.08208e+58 4.33052e+58)
(-3.69827e+55 -2.66494e+59 -2.3577e+57)
(-3.60357e+55 -1.27142e+59 8.37393e+57)
(-2.83781e+55 -4.18177e+59 -1.10062e+59)
(-2.45462e+55 -2.51282e+59 -1.08225e+59)
(-2.07572e+55 -1.44931e+59 -8.35349e+58)
(-2.56554e+55 1.81064e+59 -5.99376e+58)
(-3.5891e+55 2.31637e+59 -5.91747e+58)
(-5.03154e+55 2.23945e+59 -5.46306e+58)
(-5.52614e+55 1.58423e+59 -6.49256e+58)
(-5.64889e+55 -1.41219e+58 -8.44804e+58)
(-4.49149e+55 -1.86784e+58 -6.76955e+58)
(-4.48219e+55 -4.39385e+57 -1.16131e+59)
(-2.53789e+55 -8.03494e+58 -9.62591e+58)
(-2.31109e+55 -1.34739e+59 -9.64255e+58)
(-2.46894e+55 -1.03912e+59 -9.48964e+58)
(-1.00401e+55 -6.21795e+58 -4.02383e+58)
(-1.79275e+54 -7.63809e+58 -6.05876e+57)
(-1.4975e+54 -1.00569e+59 -4.3619e+57)
(-2.30915e+53 -1.13771e+59 -2.44976e+57)
(2.07031e+52 -1.27357e+59 -2.41976e+57)
(1.30052e+52 -1.38069e+59 -2.10128e+57)
(9.80041e+51 -1.47704e+59 -1.95829e+57)
(7.60727e+51 -1.57493e+59 -2.07325e+57)
(4.72729e+51 -1.69474e+59 -2.51792e+57)
(2.19477e+51 -1.85341e+59 -3.34e+57)
(6.03043e+50 -2.07385e+59 -4.55417e+57)
(-7.73654e+49 -2.37539e+59 -6.19198e+57)
(-2.2182e+50 -2.78425e+59 -8.27018e+57)
(-2.1576e+50 -3.32423e+59 -1.07677e+58)
(-2.32688e+50 -4.02115e+59 -1.36019e+58)
(-2.63971e+50 -4.89492e+59 -1.60079e+58)
(-2.26308e+50 -5.91004e+59 -1.70976e+58)
(-9.48905e+51 -6.99841e+59 -9.16676e+57)
(7.64684e+54 -7.28727e+59 1.45241e+58)
(4.28223e+55 -5.29309e+59 1.13615e+59)
(-9.00293e+55 -8.5594e+59 4.32413e+59)
(-7.58483e+56 -3.12687e+60 1.29972e+60)
(-2.91227e+57 -9.54912e+60 3.96508e+60)
(-8.44038e+57 -2.34838e+61 1.07159e+61)
(-1.89651e+58 -4.66098e+61 2.29184e+61)
(-5.80716e+55 -3.31186e+58 1.43337e+59)
(-5.95747e+55 -4.84394e+58 1.44212e+59)
(-5.98907e+55 -5.85928e+58 1.07611e+59)
(-6.63092e+55 5.85275e+58 8.73446e+58)
(-7.67753e+55 5.59009e+58 1.31668e+59)
(-7.25745e+55 -7.02858e+58 9.68741e+58)
(-7.05885e+55 -2.79115e+58 9.51512e+58)
(-6.87382e+55 -9.55755e+58 9.18249e+58)
(-6.14551e+55 -1.79737e+59 5.3787e+58)
(-6.00555e+55 -8.56673e+58 6.95747e+58)
(-5.47739e+55 -2.76087e+59 -1.20827e+58)
(-5.33874e+55 -7.30216e+58 5.75012e+58)
(-4.96576e+55 -7.22694e+58 4.39561e+58)
(-5.05642e+55 -6.61555e+57 1.13013e+59)
(-4.12869e+55 1.04671e+58 2.82206e+58)
(-3.7804e+55 4.84202e+58 -5.57584e+58)
(-6.032e+55 2.76005e+59 1.10793e+59)
(-6.40391e+55 1.65343e+59 1.61307e+59)
(-6.26443e+55 1.37581e+59 1.51632e+59)
(-6.37203e+55 8.78048e+58 1.61662e+59)
(-6.33948e+55 5.7405e+58 1.54507e+59)
(-6.17036e+55 2.86446e+58 1.44598e+59)
(-5.77278e+55 -1.73765e+58 1.42168e+59)
(-5.32824e+55 -7.88642e+58 1.41032e+59)
(-5.08727e+55 -1.37981e+59 1.07956e+59)
(-4.95676e+55 -9.46304e+58 9.60601e+58)
(-4.77746e+55 -7.23531e+58 1.18684e+59)
(-4.58752e+55 -9.05901e+58 1.17572e+59)
(-4.53757e+55 -1.13976e+59 9.66647e+58)
(-4.53753e+55 -6.76466e+58 1.19782e+59)
(-4.32093e+55 -4.82815e+58 1.2838e+59)
(-3.96803e+55 -4.41839e+58 8.97055e+58)
(-3.88115e+55 -1.47483e+58 1.08e+59)
(-4.23981e+55 -7.04219e+58 1.1956e+59)
(-3.86326e+55 -1.62186e+59 6.26007e+58)
(-3.95835e+55 1.09672e+58 1.01794e+59)
(-4.1112e+55 -2.48298e+58 8.33107e+58)
(-4.10943e+55 -4.209e+58 7.68013e+58)
(-3.91982e+55 -2.10196e+58 4.90181e+58)
(-3.68281e+55 7.3596e+58 -6.64583e+58)
(-3.61429e+55 -1.00709e+59 -1.58257e+58)
(-2.85094e+55 -4.03208e+59 -1.1411e+59)
(-2.47393e+55 -2.41634e+59 -1.15934e+59)
(-2.09263e+55 -1.26709e+59 -1.08499e+59)
(-2.67975e+55 1.51093e+59 -6.99555e+58)
(-3.86189e+55 2.5435e+59 -8.55408e+58)
(-5.24904e+55 2.12671e+59 -5.33399e+58)
(-5.73988e+55 1.5512e+59 -7.05219e+58)
(-5.8744e+55 -5.94278e+58 -8.406e+58)
(-4.59059e+55 -2.67654e+58 -7.54422e+58)
(-4.56013e+55 -2.72001e+58 -1.02315e+59)
(-2.70871e+55 -9.11524e+58 -8.79924e+58)
(-2.2734e+55 -1.39961e+59 -8.70363e+58)
(-2.44216e+55 -1.10117e+59 -8.72507e+58)
(-1.02737e+55 -6.2241e+58 -3.61269e+58)
(-1.67528e+54 -7.30614e+58 -9.97768e+57)
(-1.49974e+54 -9.94458e+58 -1.16579e+58)
(-2.33881e+53 -1.15222e+59 -9.08181e+57)
(2.06967e+52 -1.30761e+59 -7.72377e+57)
(1.36323e+52 -1.42894e+59 -5.90437e+57)
(9.82487e+51 -1.5343e+59 -4.38607e+57)
(7.62674e+51 -1.63755e+59 -3.51624e+57)
(4.74948e+51 -1.76101e+59 -3.51124e+57)
(2.20912e+51 -1.92369e+59 -4.40951e+57)
(6.10085e+50 -2.15026e+59 -6.1245e+57)
(-7.52079e+49 -2.46142e+59 -8.57718e+57)
(-2.2192e+50 -2.88451e+59 -1.17073e+58)
(-2.1601e+50 -3.44445e+59 -1.54459e+58)
(-2.32484e+50 -4.16841e+59 -1.96804e+58)
(-2.63858e+50 -5.07844e+59 -2.33806e+58)
(-2.12024e+50 -6.14271e+59 -2.53859e+58)
(-1.10146e+52 -7.30095e+59 -1.55807e+58)
(8.5511e+54 -7.68417e+59 1.4552e+58)
(4.67449e+55 -5.85549e+59 1.22925e+59)
(-9.72894e+55 -9.87483e+59 4.08841e+59)
(-8.19033e+56 -3.53813e+60 1.22956e+60)
(-3.18603e+57 -1.0726e+61 4.07526e+60)
(-9.29389e+57 -2.59677e+61 1.13808e+61)
(-1.99612e+58 -4.95995e+61 2.25423e+61)
(-5.99541e+55 -3.24462e+58 1.55972e+59)
(-6.19849e+55 -4.12466e+58 1.48265e+59)
(-6.3197e+55 -3.06107e+58 1.06956e+59)
(-7.32723e+55 7.48863e+58 7.28251e+58)
(-7.8161e+55 4.7142e+58 1.27521e+59)
(-7.35339e+55 -7.0157e+58 8.99554e+58)
(-7.10669e+55 -8.0487e+58 9.62696e+58)
(-6.7861e+55 -1.04811e+59 9.0225e+58)
(-6.10506e+55 -1.57094e+59 5.11743e+58)
(-5.91369e+55 -1.27065e+59 6.09188e+58)
(-5.49244e+55 -2.69212e+59 -4.03705e+57)
(-5.30801e+55 -1.04446e+59 4.60594e+58)
(-5.00301e+55 -8.48851e+58 6.2645e+58)
(-4.94841e+55 -3.10402e+58 1.09157e+59)
(-4.10571e+55 -1.9093e+58 2.78513e+58)
(-4.06175e+55 3.85752e+58 -1.01278e+58)
(-6.20715e+55 2.35152e+59 1.26232e+59)
(-6.54533e+55 1.4511e+59 1.67839e+59)
(-6.42759e+55 1.22012e+59 1.60256e+59)
(-6.54491e+55 8.79054e+58 1.62153e+59)
(-6.49419e+55 5.51665e+58 1.52421e+59)
(-6.29861e+55 2.67218e+58 1.44467e+59)
(-5.89213e+55 -1.69282e+58 1.4063e+59)
(-5.40213e+55 -8.14879e+58 1.38716e+59)
(-5.11086e+55 -1.37546e+59 1.11261e+59)
(-4.94337e+55 -8.82522e+58 9.82561e+58)
(-4.77322e+55 -7.29473e+58 1.17349e+59)
(-4.59913e+55 -9.25896e+58 1.15556e+59)
(-4.53052e+55 -1.15839e+59 9.49717e+58)
(-4.49231e+55 -9.1943e+58 9.77841e+58)
(-4.26108e+55 -5.33086e+58 1.14747e+59)
(-3.93174e+55 -5.38822e+58 8.50154e+58)
(-3.95153e+55 -3.6917e+58 1.11838e+59)
(-4.1825e+55 -9.70485e+58 1.17964e+59)
(-3.85502e+55 -1.65007e+59 6.75122e+58)
(-3.97232e+55 -2.28997e+58 1.03741e+59)
(-4.11492e+55 -5.83617e+58 8.11138e+58)
(-4.08818e+55 -7.82417e+58 7.16199e+58)
(-3.91597e+55 -4.40104e+58 4.24705e+58)
(-3.73766e+55 4.69544e+58 -6.6511e+58)
(-3.61636e+55 -1.19802e+59 -1.07861e+58)
(-2.8485e+55 -4.02402e+59 -1.07744e+59)
(-2.47181e+55 -2.51452e+59 -1.07585e+59)
(-2.10128e+55 -1.40437e+59 -1.04075e+59)
(-2.66059e+55 1.52361e+59 -8.05294e+58)
(-3.83484e+55 1.91043e+59 -7.61782e+58)
(-5.4601e+55 2.11184e+59 -4.07913e+58)
(-5.91617e+55 1.54651e+59 -7.65752e+58)
(-6.05737e+55 -4.43839e+58 -9.26289e+58)
(-4.77141e+55 -2.37057e+58 -8.75294e+58)
(-4.62228e+55 -3.00288e+58 -1.00025e+59)
(-2.89197e+55 -9.04775e+58 -8.71095e+58)
(-2.27948e+55 -1.41478e+59 -8.4777e+58)
(-2.42822e+55 -1.20347e+59 -8.68672e+58)
(-1.12184e+55 -7.604e+58 -3.62567e+58)
(-1.55905e+54 -8.03527e+58 -6.73926e+57)
(-1.48633e+54 -1.03266e+59 -1.12941e+58)
(-2.29781e+53 -1.17313e+59 -9.39816e+57)
(2.06965e+52 -1.31595e+59 -8.51197e+57)
(1.40443e+52 -1.42992e+59 -6.99531e+57)
(9.84781e+51 -1.53085e+59 -5.6235e+57)
(7.64762e+51 -1.63182e+59 -4.79459e+57)
(4.77592e+51 -1.75423e+59 -4.83039e+57)
(2.22833e+51 -1.91638e+59 -5.8717e+57)
(6.20221e+50 -2.14223e+59 -7.89684e+57)
(-7.19791e+49 -2.4521e+59 -1.08614e+58)
(-2.22049e+50 -2.87309e+59 -1.4714e+58)
(-2.16388e+50 -3.43036e+59 -1.93762e+58)
(-2.32187e+50 -4.15163e+59 -2.47223e+58)
(-2.63747e+50 -5.06111e+59 -2.95395e+58)
(-1.83257e+50 -6.13221e+59 -3.25456e+58)
(-1.58554e+52 -7.3193e+59 -2.2201e+58)
(9.66593e+54 -7.77172e+59 1.14835e+58)
(5.15436e+55 -6.08589e+59 1.23517e+59)
(-1.03212e+56 -1.09107e+60 3.57973e+59)
(-8.95487e+56 -3.91722e+60 1.15817e+60)
(-3.58806e+57 -1.18823e+61 4.38141e+60)
(-1.0378e+58 -2.82607e+61 1.23749e+61)
(-2.06095e+58 -5.04064e+61 2.20062e+61)
(-6.22664e+55 -2.71142e+58 1.60503e+59)
(-6.53068e+55 -2.79278e+58 1.46095e+59)
(-6.77145e+55 -9.11363e+57 1.08158e+59)
(-7.9737e+55 6.64946e+58 8.51466e+58)
(-7.9668e+55 4.25231e+58 1.29159e+59)
(-7.44979e+55 -6.4706e+58 8.89338e+58)
(-7.05604e+55 -1.01371e+59 8.61895e+58)
(-6.80976e+55 -1.0074e+59 7.91876e+58)
(-6.12495e+55 -1.7253e+59 5.45151e+58)
(-5.83549e+55 -1.56729e+59 5.39581e+58)
(-5.49593e+55 -2.64106e+59 3.41997e+57)
(-5.2911e+55 -1.12297e+59 4.27592e+58)
(-4.94962e+55 -7.94949e+58 7.09918e+58)
(-4.88521e+55 -1.82543e+58 1.1002e+59)
(-4.14144e+55 -1.75098e+58 3.13966e+58)
(-4.36202e+55 5.48284e+58 2.33249e+58)
(-6.25007e+55 2.21619e+59 1.30222e+59)
(-6.65362e+55 1.51815e+59 1.69868e+59)
(-6.63265e+55 1.30955e+59 1.67206e+59)
(-6.72843e+55 8.705e+58 1.66073e+59)
(-6.66354e+55 5.71158e+58 1.54289e+59)
(-6.45621e+55 2.73675e+58 1.45731e+59)
(-6.02295e+55 -2.06474e+58 1.41172e+59)
(-5.49744e+55 -8.22536e+58 1.37326e+59)
(-5.16373e+55 -1.33376e+59 1.1361e+59)
(-4.95893e+55 -9.92935e+58 9.97133e+58)
(-4.78346e+55 -8.15429e+58 1.15481e+59)
(-4.61473e+55 -9.64425e+58 1.13343e+59)
(-4.53133e+55 -1.16089e+59 9.45674e+58)
(-4.47468e+55 -8.67241e+58 9.3988e+58)
(-4.23714e+55 -5.15663e+58 1.08507e+59)
(-3.93164e+55 -5.28875e+58 8.5901e+58)
(-4.0065e+55 -4.61192e+58 1.1208e+59)