/*--------------------------------*- C++ -*----------------------------------*\
| =========                 |                                                 |
| \\      /  F ield         | OpenFOAM: The Open Source CFD Toolbox           |
|  \\    /   O peration     | Version:  4.1                                   |
|   \\  /    A nd           | Web:      www.OpenFOAM.org                      |
|    \\/     M anipulation  |                                                 |
\*---------------------------------------------------------------------------*/
FoamFile
{
    version     2.0;
    format      ascii;
    class       volSymmTensorField;
    location    "26";
    object      turbulenceProperties:R;
}
// * * * * * * * * * * * * * * * * * * * * * * * * * * * * * * * * * * * * * //

dimensions      [0 2 -2 0 0 0 0];

internalField   nonuniform List<symmTensor> 
6785
(
(0.753313 1.53341e-19 7.86413e-20 0.753188 0.000167114 0.753499)
(0.753354 -1.16575e-19 -5.47148e-20 0.75332 6.71904e-06 0.753325)
(0.753325 -3.4357e-20 -2.65415e-20 0.75336 3.85736e-05 0.753315)
(0.753334 1.9186e-20 1.2745e-20 0.753344 2.66234e-05 0.753322)
(0.753331 -3.1387e-20 -9.89054e-21 0.753346 2.71316e-05 0.753322)
(0.753332 1.30438e-20 -2.76379e-21 0.753343 2.41251e-05 0.753324)
(0.753332 1.55598e-21 2.42897e-21 0.753342 2.22497e-05 0.753326)
(0.753333 -2.14574e-20 -4.02046e-21 0.75334 2.02181e-05 0.753328)
(0.753333 7.65057e-21 -3.98592e-21 0.753337 1.8498e-05 0.75333)
(0.753333 4.58869e-21 5.17364e-21 0.753335 1.73812e-05 0.753333)
(0.753332 -1.3975e-20 -3.54689e-21 0.753332 1.70239e-05 0.753336)
(0.753334 4.34563e-21 -1.9614e-21 0.753327 1.381e-05 0.75334)
(0.753334 1.07107e-21 4.56845e-21 0.753326 8.65233e-06 0.75334)
(0.753319 -7.40438e-21 1.0706e-21 0.753357 1.07557e-05 0.753324)
(0.753346 3.67459e-21 -1.82259e-21 0.753389 -7.75944e-05 0.753265)
(0.75333 2.03441e-19 1.23038e-19 0.753006 0.000219316 0.753664)
(0.753351 -1.40391e-19 -8.24505e-20 0.753339 -1.67318e-05 0.75331)
(0.753325 -5.04957e-20 -2.97364e-20 0.753377 1.11625e-05 0.753298)
(0.753341 1.49631e-20 1.93333e-20 0.753351 -7.39601e-06 0.753308)
(0.753333 -2.47529e-20 -1.43337e-20 0.753361 2.89523e-07 0.753306)
(0.753336 8.83991e-21 4.04475e-21 0.753354 -3.7708e-06 0.75331)
(0.753335 -1.00743e-20 5.79969e-21 0.753354 -3.05797e-06 0.753311)
(0.753335 -1.26757e-20 -7.04306e-21 0.753352 -4.0083e-06 0.753314)
(0.753335 6.57145e-21 3.2028e-21 0.753351 -4.36684e-06 0.753315)
(0.753335 -4.37707e-21 9.25207e-21 0.75335 -5.43543e-06 0.753315)
(0.753334 -6.28541e-21 -3.56935e-21 0.753353 -7.93825e-06 0.753313)
(0.753334 1.16766e-21 2.8435e-22 0.753363 -1.63492e-05 0.753303)
(0.753335 -6.72442e-21 3.07208e-21 0.753384 -3.49252e-05 0.753281)
(0.753336 -5.34619e-21 -2.20274e-21 0.753398 -5.22809e-05 0.753266)
(0.753332 7.45486e-21 5.17921e-21 0.753335 -1.36084e-05 0.753334)
(0.75333 2.26444e-19 7.66889e-20 0.752973 0.000217188 0.753697)
(0.753339 -1.40207e-19 -7.91032e-20 0.753347 -1.74381e-05 0.753314)
(0.753325 -4.8491e-20 -2.89464e-20 0.75337 -3.16823e-06 0.753305)
(0.753338 3.79838e-20 -1.38661e-20 0.753349 -1.87352e-05 0.753313)
(0.753329 -2.11681e-20 -1.99824e-20 0.75336 -8.47237e-06 0.75331)
(0.753334 3.60307e-21 1.55762e-21 0.753352 -1.45275e-05 0.753314)
(0.753332 5.7016e-21 -2.73515e-20 0.753353 -1.1297e-05 0.753315)
(0.753333 -8.67716e-21 -4.23738e-21 0.753349 -1.20683e-05 0.753318)
(0.753333 4.05462e-22 1.22924e-22 0.753346 -1.10093e-05 0.753321)
(0.753333 8.85115e-21 -1.85586e-20 0.753345 -1.18586e-05 0.753322)
(0.753333 -1.54506e-21 9.42543e-22 0.753349 -1.37542e-05 0.753318)
(0.753333 -8.60939e-21 -4.90784e-21 0.753361 -1.97809e-05 0.753306)
(0.753332 5.72242e-22 -1.49382e-20 0.753386 -2.9099e-05 0.753282)
(0.753339 -1.69287e-21 6.13732e-21 0.753407 -4.91964e-05 0.753254)
(0.753328 1.62913e-20 1.09255e-20 0.753342 1.41734e-05 0.753329)
(0.753332 1.90132e-19 1.31298e-19 0.752975 0.000208921 0.753693)
(0.753336 -1.2244e-19 -1.01589e-19 0.75335 -1.51628e-05 0.753314)
(0.753329 -5.19433e-20 -9.55284e-21 0.753366 -9.26777e-06 0.753305)
(0.753338 7.84607e-21 6.44028e-21 0.753353 -1.9777e-05 0.75331)
(0.75333 -2.17145e-22 -2.28917e-20 0.753362 -9.61301e-06 0.753308)
(0.753335 -2.0836e-21 9.53445e-21 0.753354 -1.61993e-05 0.75331)
(0.753332 -1.59482e-20 -7.4036e-21 0.753359 -1.19082e-05 0.753309)
(0.753334 7.4564e-21 -1.60848e-20 0.753356 -1.55295e-05 0.75331)
(0.753333 -5.86838e-21 2.96576e-21 0.753355 -1.66242e-05 0.753312)
(0.753333 -1.52051e-20 -9.58071e-21 0.753346 -1.77521e-05 0.75332)
(0.753333 1.36834e-20 -7.02008e-21 0.753341 -1.63702e-05 0.753326)
(0.753333 -3.99243e-21 6.54524e-22 0.753343 -1.59354e-05 0.753324)
(0.753333 -3.82977e-20 -2.33773e-20 0.753355 -1.54778e-05 0.753312)
(0.753335 2.32208e-21 -5.44102e-21 0.753369 -1.48015e-05 0.753296)
(0.753332 5.21972e-20 3.03575e-20 0.753415 -2.30217e-05 0.753253)
(0.753332 1.85796e-19 8.68189e-20 0.752969 0.000215178 0.753699)
(0.753336 -1.16484e-19 -9.92091e-20 0.753353 -1.20936e-05 0.753311)
(0.75333 -3.08979e-20 -2.86754e-20 0.753365 -7.90799e-06 0.753305)
(0.753336 6.55176e-21 -5.65395e-21 0.753356 -1.52323e-05 0.753307)
(0.753331 5.56489e-21 -2.02016e-20 0.753363 -6.93772e-06 0.753307)
(0.753335 1.59717e-21 -8.99819e-21 0.753357 -1.16045e-05 0.753308)
(0.753332 -9.83568e-21 -1.55312e-20 0.753365 -9.97691e-06 0.753303)
(0.753334 1.5012e-20 -1.25848e-20 0.753375 -1.95365e-05 0.753291)
(0.753333 1.61778e-20 4.39278e-21 0.753387 -2.77974e-05 0.75328)
(0.753333 2.35381e-20 6.19378e-21 0.753379 -2.95593e-05 0.753288)
(0.753333 2.19866e-20 -1.70626e-22 0.753351 -1.94213e-05 0.753316)
(0.753334 -2.14069e-20 -1.77139e-20 0.753318 -6.67087e-06 0.753348)
(0.753334 -4.73118e-20 -3.44437e-20 0.753299 1.63939e-06 0.753367)
(0.75333 -2.88553e-21 -1.50543e-20 0.753318 2.58794e-06 0.753352)
(0.753334 2.93111e-20 1.20049e-20 0.753443 -6.92535e-05 0.753222)
(0.753332 1.72146e-19 1.17944e-19 0.752946 0.000225352 0.753722)
(0.753336 -1.40061e-19 -6.14836e-20 0.753351 -8.7582e-06 0.753313)
(0.753331 -4.5769e-20 5.87531e-21 0.753366 -8.82318e-06 0.753303)
(0.753336 4.08657e-21 -5.66213e-21 0.753355 -1.29967e-05 0.753309)
(0.753331 -1.31002e-20 2.65536e-21 0.75336 -6.17999e-06 0.753309)
(0.753335 -9.92792e-21 2.48181e-20 0.753353 -9.99584e-06 0.753312)
(0.753332 -1.51247e-20 -7.16096e-21 0.753361 -8.16494e-06 0.753307)
(0.753334 -1.46963e-21 9.25989e-21 0.753372 -1.77601e-05 0.753294)
(0.753333 1.14318e-20 2.89295e-20 0.753394 -2.5952e-05 0.753273)
(0.753334 2.97701e-20 1.75472e-20 0.753404 -3.11228e-05 0.753263)
(0.753333 7.4888e-21 8.31354e-21 0.753398 -2.86396e-05 0.753269)
(0.753333 -2.6538e-20 -1.36832e-20 0.753378 -2.42604e-05 0.753288)
(0.753332 -3.80985e-20 -2.45087e-20 0.753343 -1.37505e-05 0.753325)
(0.753332 -1.79374e-20 -1.5295e-20 0.753304 -2.46919e-06 0.753365)
(0.753335 3.51468e-20 2.73173e-20 0.753315 -1.65453e-05 0.75335)
(0.753332 1.69712e-19 1.21749e-19 0.752936 0.000222866 0.753732)
(0.753336 -1.37368e-19 -5.82842e-20 0.753333 -7.28287e-07 0.753331)
(0.753331 -6.84092e-20 1.35947e-21 0.753373 -1.63446e-05 0.753296)
(0.753336 7.91565e-21 5.20024e-21 0.753354 -1.66401e-05 0.75331)
(0.753331 -1.56817e-20 8.53974e-21 0.753356 -9.52608e-06 0.753313)
(0.753335 -1.64376e-20 1.62738e-20 0.75335 -1.35607e-05 0.753315)
(0.753332 -2.77166e-21 -2.98521e-21 0.753353 -1.04498e-05 0.753314)
(0.753334 -1.50533e-20 2.9091e-21 0.753357 -1.55641e-05 0.753309)
(0.753333 -1.28659e-21 1.97522e-20 0.753371 -1.82121e-05 0.753296)
(0.753334 1.4998e-20 9.56034e-21 0.753384 -2.18976e-05 0.753283)
(0.753333 -3.52435e-22 8.09813e-21 0.753395 -2.29115e-05 0.753272)
(0.753333 4.29758e-21 1.23483e-20 0.753406 -2.67127e-05 0.753261)
(0.753331 1.06956e-20 1.30675e-21 0.753411 -2.82749e-05 0.753257)
(0.753342 -6.17717e-20 -4.02274e-20 0.753365 -3.01928e-05 0.753293)
(0.753332 3.13133e-20 1.62417e-20 0.753262 3.5352e-05 0.753405)
(0.753333 2.01947e-19 1.05213e-19 0.752955 0.00020735 0.753712)
(0.753335 -9.99648e-20 -6.24309e-20 0.753309 1.07629e-05 0.753357)
(0.753332 -6.87868e-20 -6.42971e-20 0.753377 -2.27007e-05 0.753291)
(0.753335 3.51495e-22 6.26447e-22 0.753359 -2.17393e-05 0.753306)
(0.753332 -1.04915e-21 -2.15885e-21 0.753356 -1.36334e-05 0.753312)
(0.753335 6.66851e-21 -1.02307e-20 0.753351 -1.66587e-05 0.753315)
(0.753333 -2.69895e-21 -2.78585e-21 0.753353 -1.41646e-05 0.753315)
(0.753334 -1.13557e-21 -2.3885e-21 0.753352 -1.64475e-05 0.753314)
(0.753333 5.64191e-21 -8.8856e-21 0.753356 -1.65103e-05 0.75331)
(0.753333 2.0784e-22 -4.05788e-22 0.753362 -1.77008e-05 0.753305)
(0.753333 1.49027e-22 -7.66926e-23 0.75337 -1.78082e-05 0.753297)
(0.753334 8.52162e-21 3.27923e-22 0.753378 -1.91938e-05 0.753289)
(0.753332 1.0895e-20 7.46583e-21 0.75339 -1.83856e-05 0.753278)
(0.753337 -4.13916e-20 -2.41379e-20 0.753399 -3.0628e-05 0.753264)
(0.75333 1.17314e-20 6.67511e-21 0.753333 1.45333e-05 0.753337)
(0.753333 2.0159e-19 1.18056e-19 0.752983 0.000193475 0.753684)
(0.753334 -8.43346e-20 -5.13526e-20 0.753292 2.07309e-05 0.753375)
(0.753332 -7.42716e-20 -7.98237e-20 0.753377 -2.48416e-05 0.75329)
(0.753335 -4.41674e-21 -2.02748e-21 0.753365 -2.35874e-05 0.7533)
(0.753332 -6.11175e-22 -8.71752e-22 0.753358 -1.50155e-05 0.75331)
(0.753334 5.93484e-21 -2.65579e-20 0.753353 -1.64396e-05 0.753313)
(0.753333 2.88626e-21 1.68432e-21 0.753354 -1.43781e-05 0.753313)
(0.753334 -4.99599e-21 -3.57999e-21 0.753353 -1.53518e-05 0.753313)
(0.753333 1.01715e-20 -1.82737e-20 0.753354 -1.45511e-05 0.753313)
(0.753333 5.05727e-21 3.42453e-21 0.753355 -1.46269e-05 0.753311)
(0.753333 -8.08088e-21 -4.80933e-21 0.753359 -1.45201e-05 0.753308)
(0.753333 3.38683e-21 -1.32265e-20 0.753364 -1.59569e-05 0.753303)
(0.753333 1.64105e-20 1.20536e-20 0.753375 -1.80704e-05 0.753293)
(0.753336 -5.19898e-20 -2.95487e-20 0.753391 -3.19773e-05 0.753273)
(0.753329 2.7066e-20 1.69506e-20 0.753364 -2.10096e-06 0.753307)
(0.753334 2.10223e-19 1.02352e-19 0.753003 0.000185974 0.753664)
(0.753333 -6.95697e-20 -4.16924e-20 0.753283 2.59076e-05 0.753383)
(0.753333 -1.01166e-19 -7.53653e-20 0.753376 -2.47102e-05 0.753292)
(0.753334 -1.81191e-21 -3.18224e-20 0.753368 -2.38292e-05 0.753298)
(0.753333 5.35565e-21 2.61907e-21 0.753358 -1.52013e-05 0.753309)
(0.753334 -1.59074e-21 -9.90332e-21 0.753353 -1.51107e-05 0.753313)
(0.753333 1.27085e-20 -1.42268e-20 0.753354 -1.29629e-05 0.753313)
(0.753334 1.83156e-21 1.04781e-21 0.753353 -1.32126e-05 0.753313)
(0.753333 -3.54106e-21 -6.66868e-21 0.753353 -1.21692e-05 0.753314)
(0.753333 6.72624e-21 -9.70185e-21 0.753353 -1.19023e-05 0.753314)
(0.753333 -2.57261e-21 1.80329e-23 0.753354 -1.1506e-05 0.753313)
(0.753334 -1.02277e-20 -9.94054e-21 0.753356 -1.21268e-05 0.75331)
(0.753333 1.77577e-20 3.54973e-21 0.753364 -1.32449e-05 0.753303)
(0.753335 -2.08661e-20 -6.25024e-21 0.753386 -2.70323e-05 0.753278)
(0.753332 1.53525e-20 9.67454e-21 0.753386 -1.95367e-05 0.753282)
(0.753334 2.0002e-19 1.06173e-19 0.753014 0.000183079 0.753652)
(0.753333 -7.3177e-20 -2.953e-20 0.753282 2.54251e-05 0.753384)
(0.753333 -7.91167e-20 -1.10463e-19 0.753372 -2.51883e-05 0.753295)
(0.753334 -3.07924e-21 -1.26386e-21 0.753368 -2.44708e-05 0.753298)
(0.753333 -7.86455e-21 4.77769e-21 0.753358 -1.57167e-05 0.75331)
(0.753334 1.84763e-21 -4.16435e-20 0.753351 -1.447e-05 0.753315)
(0.753333 1.1959e-20 1.17736e-20 0.753351 -1.24881e-05 0.753316)
(0.753333 -1.10702e-20 4.88959e-21 0.75335 -1.27144e-05 0.753316)
(0.753333 -1.3833e-20 -4.31527e-20 0.75335 -1.20647e-05 0.753316)
(0.753333 8.26835e-21 9.17096e-21 0.75335 -1.149e-05 0.753317)
(0.753333 -3.51072e-21 1.03638e-20 0.753349 -9.69609e-06 0.753318)
(0.753334 -9.42148e-21 -2.49897e-20 0.753349 -7.24352e-06 0.753318)
(0.753333 -8.93255e-21 -2.32564e-21 0.753353 -4.96266e-06 0.753314)
(0.753334 -2.14587e-20 -2.7263e-20 0.753376 -1.70967e-05 0.753289)
(0.753333 8.29675e-20 5.0357e-20 0.753425 -3.91655e-05 0.753242)
(0.753334 1.94717e-19 1.1381e-19 0.753024 0.000179978 0.753642)
(0.753333 -1.00565e-19 -3.50166e-20 0.753298 1.92097e-05 0.753369)
(0.753333 -9.51824e-20 -8.23163e-20 0.753368 -2.40207e-05 0.753298)
(0.753334 2.86488e-20 1.72744e-20 0.753365 -2.26785e-05 0.753301)
(0.753333 -3.21217e-20 -7.61524e-21 0.753358 -1.62734e-05 0.753309)
(0.753334 -2.27836e-20 -3.39678e-20 0.753352 -1.56119e-05 0.753314)
(0.753333 5.14167e-20 2.88557e-20 0.75335 -1.42983e-05 0.753316)
(0.753334 -1.4129e-20 5.09746e-21 0.753349 -1.50269e-05 0.753318)
(0.753333 -5.11836e-20 -3.45169e-20 0.753347 -1.38701e-05 0.753319)
(0.753334 1.19688e-20 6.02813e-21 0.753344 -1.07492e-05 0.753323)
(0.753333 -1.37197e-21 -1.10719e-21 0.753338 -4.39964e-06 0.753329)
(0.753333 -1.48255e-20 -1.82408e-20 0.753333 3.06913e-06 0.753333)
(0.753333 -1.73736e-20 -2.33596e-21 0.753337 6.37584e-06 0.75333)
(0.753334 -3.60285e-20 -2.37761e-20 0.753366 -7.78868e-06 0.7533)
(0.753333 1.13321e-19 6.8769e-20 0.753473 -6.60296e-05 0.753194)
(0.753333 1.8533e-19 8.82798e-20 0.753008 0.000182543 0.753659)
(0.753333 -8.36432e-20 -6.74803e-20 0.75331 1.47739e-05 0.753356)
(0.753333 -1.12789e-19 -4.598e-20 0.753383 -2.40476e-05 0.753284)
(0.753334 4.41274e-20 4.14643e-21 0.753368 -1.82262e-05 0.753298)
(0.753333 -2.11707e-20 -8.03192e-21 0.753361 -1.54335e-05 0.753307)
(0.753334 -1.43906e-20 -9.0674e-21 0.753359 -1.9016e-05 0.753308)
(0.753333 7.37603e-20 2.75289e-20 0.753357 -1.85538e-05 0.75331)
(0.753333 -3.42625e-20 2.69206e-21 0.753351 -1.77974e-05 0.753315)
(0.753333 -4.99723e-20 -4.04836e-20 0.753344 -1.33815e-05 0.753323)
(0.753333 2.30872e-20 6.79208e-21 0.753332 -6.15253e-06 0.753335)
(0.753333 -3.66527e-20 -1.53099e-20 0.753319 3.541e-06 0.753348)
(0.753333 -2.90557e-20 -2.49806e-20 0.753311 1.21225e-05 0.753356)
(0.753334 -1.05115e-21 -1.00064e-21 0.753317 1.136e-05 0.753349)
(0.753332 -5.21773e-20 -1.91233e-20 0.753358 -6.80705e-06 0.75331)
(0.753333 1.29634e-19 6.24608e-20 0.753518 -0.000101482 0.753149)
(0.753334 1.39444e-19 8.14709e-20 0.753026 0.00015569 0.75364)
(0.753333 -2.92668e-20 -2.50239e-20 0.753254 3.64967e-05 0.753413)
(0.753334 -9.23951e-20 -1.07236e-19 0.753371 -1.30918e-05 0.753295)
(0.753334 -1.21045e-20 -2.73067e-20 0.753398 -1.92826e-05 0.753269)
(0.753333 5.90798e-22 -1.23308e-20 0.753393 -1.44918e-05 0.753274)
(0.753334 3.10556e-20 1.26454e-20 0.753383 -1.13286e-05 0.753283)
(0.753333 5.34602e-20 3.48112e-20 0.753375 -8.18547e-06 0.753291)
(0.753334 1.18603e-21 -6.77577e-22 0.753367 -7.06263e-06 0.753299)
(0.753333 -1.48154e-20 -1.32803e-20 0.753356 -3.80982e-06 0.75331)
(0.753334 -2.38417e-20 -1.21494e-20 0.753338 1.78844e-06 0.753328)
(0.753334 -3.707e-20 -2.77531e-20 0.753315 9.61876e-06 0.753352)
(0.753334 -2.5249e-20 -2.14071e-20 0.753296 1.448e-05 0.753371)
(0.753334 -3.26482e-20 -1.19573e-20 0.753296 8.53629e-06 0.75337)
(0.753332 -2.32988e-20 -2.71719e-20 0.753345 -1.75584e-05 0.753323)
(0.753334 1.02267e-19 5.16097e-20 0.753492 -0.000106483 0.753174)
(0.753331 6.4013e-20 4.32145e-20 0.753103 0.000108416 0.753566)
(0.753333 7.20172e-20 3.89043e-20 0.753169 4.97027e-05 0.753498)
(0.753333 -1.89178e-20 -1.06668e-21 0.753254 1.5228e-05 0.753412)
(0.753333 -3.82203e-20 -3.00718e-20 0.753317 -6.40768e-06 0.75335)
(0.753333 -2.76312e-20 -4.30298e-20 0.753356 -1.70212e-05 0.753311)
(0.753333 -2.68901e-20 -1.03563e-21 0.753379 -2.14305e-05 0.753287)
(0.753333 -1.82778e-21 -2.20626e-21 0.75339 -1.81665e-05 0.753277)
(0.753333 1.1723e-20 -4.93256e-21 0.753391 -1.41362e-05 0.753276)
(0.753333 -3.19921e-21 1.1254e-20 0.75339 -1.02876e-05 0.753276)
(0.753333 -5.65057e-21 -3.49755e-21 0.753387 -6.60147e-06 0.75328)
(0.753333 -4.52694e-21 -1.17984e-20 0.753378 -3.33088e-06 0.753289)
(0.753333 -1.58338e-20 -7.09815e-21 0.753362 1.01513e-06 0.753305)
(0.753334 -3.0286e-20 -2.24585e-20 0.753342 3.54009e-06 0.753324)
(0.753332 -1.73465e-20 -2.29083e-20 0.753361 -6.56302e-06 0.753308)
(0.753335 4.25743e-20 2.04429e-20 0.753416 -3.98969e-05 0.753249)
(0.753868 9.4759e-21 5.84755e-22 0.752588 0.000617884 0.753544)
(0.753217 8.66549e-21 1.27933e-21 0.753508 0.000656725 0.753275)
(0.753331 7.62929e-22 2.7714e-21 0.753336 9.88295e-05 0.753333)
(0.753335 3.64417e-22 2.84733e-21 0.753312 -1.90872e-05 0.753353)
(0.753335 4.62759e-21 3.21451e-21 0.753309 2.31626e-05 0.753355)
(0.753333 4.86173e-23 1.22693e-21 0.753325 -5.31715e-06 0.753343)
(0.753331 -4.76152e-21 3.18851e-21 0.753321 -1.66442e-05 0.753348)
(0.753336 1.13007e-22 2.86955e-21 0.753312 -9.12652e-06 0.753352)
(0.753335 -3.1397e-21 2.56329e-21 0.753315 1.89832e-06 0.75335)
(0.753333 -6.13214e-21 -6.76174e-22 0.753326 -2.38698e-06 0.753341)
(0.753331 -6.03979e-21 9.72663e-22 0.753323 -1.938e-05 0.753346)
(0.753337 2.06586e-21 8.23022e-22 0.753313 -2.41362e-06 0.75335)
(0.753333 1.95201e-21 1.68135e-21 0.753328 -3.9171e-06 0.753339)
(0.753332 -2.26862e-21 1.361e-21 0.753324 -1.64739e-05 0.753345)
(0.753335 -2.51242e-21 1.10263e-21 0.75332 -1.02066e-05 0.753345)
(0.753334 1.13382e-21 1.13573e-21 0.753322 -4.6935e-06 0.753344)
(0.753333 6.29389e-22 1.75787e-21 0.75333 -3.95059e-06 0.753337)
(0.753331 -3.86403e-21 8.0055e-22 0.753329 -1.6075e-05 0.75334)
(0.753338 5.26177e-22 1.02237e-21 0.753317 -6.81954e-06 0.753345)
(0.753333 1.83428e-22 1.79936e-21 0.753332 -3.6032e-06 0.753335)
(0.753332 -3.88456e-21 1.21893e-21 0.753329 -1.29345e-05 0.753339)
(0.753335 -3.22721e-21 8.00429e-22 0.753324 -8.53792e-06 0.753341)
(0.753334 1.0219e-21 6.82121e-22 0.753326 -7.17389e-06 0.75334)
(0.753333 3.73576e-24 1.82546e-21 0.753334 -3.10323e-06 0.753334)
(0.753332 -3.33302e-21 7.37593e-22 0.753331 -1.13321e-05 0.753337)
(0.753335 -7.89275e-23 4.94564e-22 0.753326 -8.01e-06 0.753339)
(0.753334 2.2748e-21 1.03813e-21 0.753329 -7.83824e-06 0.753338)
(0.753333 -2.48847e-23 1.8263e-21 0.753335 -2.54009e-06 0.753332)
(0.753331 -4.55429e-21 8.89844e-22 0.753336 -9.26071e-06 0.753334)
(0.753338 -4.79251e-22 4.38509e-22 0.753321 -8.78237e-06 0.753341)
(0.753333 -7.1525e-22 1.71369e-21 0.753337 -2.30125e-06 0.75333)
(0.753332 -3.93208e-21 4.65525e-22 0.753335 -7.7972e-06 0.753334)
(0.753335 -1.82217e-21 4.6417e-23 0.753328 -6.1429e-06 0.753337)
(0.753334 -1.05939e-21 1.05369e-22 0.753331 -8.24218e-06 0.753335)
(0.753333 -3.21398e-23 1.39443e-21 0.753338 -1.79358e-06 0.753329)
(0.753331 -7.62796e-22 -1.45066e-23 0.753338 -5.43097e-06 0.753332)
(0.753337 4.13506e-22 -4.32444e-23 0.753324 -8.03115e-06 0.753338)
(0.753333 1.0716e-22 9.60592e-22 0.753339 -1.49619e-06 0.753328)
(0.753332 2.36426e-22 -2.25048e-23 0.753336 -4.734e-06 0.753332)
(0.753335 1.16331e-21 1.6018e-23 0.75333 -4.35137e-06 0.753336)
(0.753334 2.14354e-21 1.45985e-22 0.753332 -7.40429e-06 0.753334)
(0.753333 2.63251e-22 4.03929e-22 0.753338 -1.24162e-06 0.753329)
(0.753332 -1.51125e-22 2.00576e-22 0.753336 -4.5176e-06 0.753332)
(0.753335 -9.23157e-23 1.8589e-22 0.75333 -4.74061e-06 0.753335)
(0.753334 -4.47522e-23 1.79954e-22 0.753333 -7.20029e-06 0.753334)
(0.753333 -3.51152e-22 1.5011e-22 0.753335 -1.19749e-06 0.753332)
(0.753332 -1.48423e-21 3.07082e-23 0.753337 -4.65831e-06 0.753331)
(0.753336 -1.32856e-21 -6.46821e-23 0.753329 -8.09836e-06 0.753335)
(0.753333 -1.18937e-21 3.55282e-22 0.753337 -6.07696e-07 0.75333)
(0.753333 -1.45354e-23 -2.30663e-22 0.753337 -3.81034e-06 0.753331)
(0.753334 5.62752e-22 -3.8253e-22 0.753333 -4.54256e-06 0.753333)
(0.753333 -2.67851e-23 -3.65843e-22 0.753336 -7.88027e-06 0.753331)
(0.753333 2.43392e-22 2.66314e-22 0.75334 1.62929e-06 0.753327)
(0.753332 2.13743e-21 -3.28757e-22 0.753338 -4.63774e-07 0.75333)
(0.753334 -2.44398e-21 -2.90743e-22 0.753333 -3.61931e-06 0.753332)
(0.753333 -4.82991e-21 -6.03509e-22 0.753337 -4.15543e-06 0.753331)
(0.753334 -8.86231e-22 1.51286e-22 0.753343 7.64852e-06 0.753323)
(0.753331 7.18077e-21 -7.73215e-22 0.753338 1.16475e-06 0.753331)
(0.753334 5.52735e-21 -9.75866e-24 0.75333 7.04323e-06 0.753336)
(0.753334 -1.58239e-21 7.33133e-23 0.753348 1.88147e-05 0.753318)
(0.753327 -6.69728e-22 -5.11258e-22 0.753337 7.20852e-06 0.753336)
(0.753337 1.59785e-21 -5.15835e-22 0.753317 4.06786e-06 0.753347)
(0.753335 -4.03125e-21 -8.23109e-22 0.753318 1.33564e-06 0.753346)
(0.753333 1.05561e-20 -1.91143e-21 0.753354 -2.05428e-05 0.753313)
(0.753332 1.11935e-20 1.90529e-21 0.753339 -2.17892e-05 0.753329)
(0.753337 -5.53915e-21 2.27394e-21 0.753332 -1.45794e-05 0.75333)
(0.753333 -1.24994e-21 -1.59162e-22 0.75336 -2.01129e-05 0.753307)
(0.753331 -1.53673e-21 1.04907e-22 0.753358 -2.99406e-06 0.75331)
(0.753337 4.13247e-21 1.87242e-21 0.753349 9.87852e-07 0.753314)
(0.753333 7.78309e-21 2.59746e-21 0.753363 -3.19802e-05 0.753304)
(0.753333 1.99401e-21 -5.78224e-22 0.753366 -1.1392e-05 0.753302)
(0.753333 3.30618e-21 2.9136e-21 0.753372 1.38014e-05 0.753295)
(0.753337 7.77771e-21 3.45537e-21 0.753364 3.65016e-07 0.753299)
(0.753334 6.82549e-21 4.22596e-21 0.75338 -3.37283e-05 0.753286)
(0.753331 1.48127e-21 -7.87843e-21 0.753373 -6.41778e-06 0.753296)
(0.753347 -5.10492e-21 3.45647e-21 0.753358 2.75691e-05 0.753295)
(0.753331 1.00781e-22 3.20734e-21 0.753397 -3.74239e-05 0.753272)
(0.753331 -5.63601e-21 -2.34506e-21 0.753373 4.23643e-07 0.753296)
(0.753347 -1.17042e-20 2.10326e-21 0.753369 4.72384e-05 0.753284)
(0.75333 -3.83009e-21 1.01798e-21 0.753405 -4.89451e-05 0.753265)
(0.753328 -1.11766e-20 -4.54329e-21 0.753367 -4.00537e-05 0.753305)
(0.75334 -1.8289e-20 -5.19365e-21 0.753341 1.63147e-06 0.753318)
(0.753325 -1.86331e-20 -5.89708e-21 0.753381 -4.1755e-05 0.753294)
(0.753333 -1.98962e-20 1.05853e-20 0.753351 -5.42825e-06 0.753316)
(0.753338 -4.13499e-21 -5.00482e-21 0.753346 2.38959e-06 0.753316)
(0.753328 -1.06896e-20 -4.76053e-21 0.753359 -2.62516e-05 0.753313)
(0.753336 -5.9769e-21 -5.31501e-21 0.753344 7.67453e-07 0.75332)
(0.753333 -6.89228e-21 -5.47512e-21 0.753352 -5.61638e-06 0.753316)
(0.753334 -5.98081e-21 -5.68214e-21 0.75335 -1.26645e-05 0.753316)
(0.753331 -1.3944e-20 -6.21005e-21 0.753358 -2.18867e-05 0.753311)
(0.753336 -2.80514e-20 -6.14219e-21 0.75335 -2.65587e-05 0.753314)
(0.753332 -2.48024e-20 -4.00957e-21 0.753362 -3.17204e-05 0.753306)
(0.753333 -1.17776e-20 4.53861e-21 0.753345 -5.10335e-06 0.753322)
(0.753338 -1.53721e-21 -2.62253e-21 0.753346 1.50154e-05 0.753316)
(0.753332 -6.25561e-21 -2.34561e-21 0.753353 -1.06887e-05 0.753314)
(0.753334 -1.681e-20 -2.29584e-21 0.753352 -1.67738e-05 0.753314)
(0.753333 -1.96338e-20 -5.94762e-22 0.753354 -8.52303e-06 0.753313)
(0.753335 -1.09182e-20 -1.19098e-21 0.75335 3.89052e-06 0.753315)
(0.753331 -1.20817e-20 -1.54787e-21 0.753359 -3.588e-06 0.75331)
(0.753336 -9.59319e-21 -1.78398e-21 0.75335 -5.19746e-06 0.753314)
(0.753334 -9.84505e-21 -2.12064e-21 0.753357 -2.0124e-05 0.753309)
(0.753333 1.09969e-20 -1.72274e-20 0.753338 -9.1719e-06 0.75333)
(0.753339 -8.42287e-21 -9.78237e-22 0.753341 7.99888e-06 0.75332)
(0.753331 -1.40744e-20 -8.07755e-22 0.753353 -1.3158e-05 0.753316)
(0.753334 -8.65577e-21 -1.47456e-21 0.753349 -1.28205e-05 0.753317)
(0.753334 -8.7836e-21 -1.74848e-21 0.75335 -2.85459e-05 0.753316)
(0.753333 -1.32858e-20 -1.5836e-21 0.753353 -4.19361e-05 0.753314)
(0.753333 -1.4829e-20 -1.03815e-21 0.75335 -2.89217e-05 0.753316)
(0.753334 -1.14248e-20 -1.33743e-21 0.753349 -1.17874e-05 0.753317)
(0.753333 -8.61446e-21 -1.48997e-21 0.753353 -6.37095e-06 0.753315)
(0.753338 -4.15648e-21 -1.33878e-21 0.753342 -2.29727e-06 0.75332)
(0.753333 -1.14992e-20 2.23954e-20 0.753325 -5.0117e-06 0.753343)
(0.753337 3.16095e-21 -1.21132e-21 0.753338 1.0583e-05 0.753326)
(0.753333 -1.18396e-21 -8.71355e-22 0.753344 9.66762e-06 0.753323)
(0.753333 -1.38565e-21 -9.34041e-22 0.753344 9.42186e-06 0.753323)
(0.753334 -5.32405e-21 -9.71667e-22 0.753342 2.03099e-06 0.753325)
(0.753334 -5.98232e-21 -1.13777e-21 0.753343 -1.96314e-05 0.753323)
(0.753334 -9.89366e-21 -1.98571e-21 0.75334 -2.15363e-05 0.753327)
(0.753331 -1.77469e-20 -3.02657e-21 0.75334 4.37865e-06 0.753329)
(0.753339 -1.72485e-20 -3.48965e-21 0.753321 2.20821e-05 0.75334)
(0.753333 -6.72495e-21 7.48381e-21 0.75331 -2.10821e-06 0.753357)
(0.753334 -1.64927e-20 -1.4434e-21 0.753328 -3.39727e-05 0.753338)
(0.753334 -2.98708e-20 -1.10046e-21 0.753327 -5.44672e-05 0.753339)
(0.753333 -1.85785e-20 -2.37346e-21 0.753327 -3.72819e-05 0.75334)
(0.753335 -1.86252e-20 -2.96004e-21 0.753326 -2.015e-05 0.753339)
(0.753332 -1.94336e-20 -3.543e-21 0.753333 -2.00167e-05 0.753335)
(0.753338 -1.99687e-20 -4.17135e-21 0.753322 -1.15169e-05 0.753341)
(0.753327 -2.17431e-20 -4.89871e-21 0.753344 -1.8644e-05 0.753329)
(0.753341 -1.08175e-20 -4.2394e-21 0.7533 2.73277e-05 0.753359)
(0.753333 9.18894e-21 -1.32182e-20 0.753293 1.02136e-05 0.753374)
(0.753328 4.05477e-21 -3.67294e-21 0.753328 1.3055e-06 0.753344)
(0.753339 -9.40215e-22 -3.33804e-21 0.753312 4.17529e-05 0.75335)
(0.753332 -2.45642e-20 -2.69072e-21 0.753321 1.24253e-05 0.753347)
(0.753333 -2.23226e-20 -1.03201e-21 0.753312 1.67411e-05 0.753355)
(0.753334 -4.70742e-21 -5.25232e-22 0.753306 2.99418e-05 0.75336)
(0.753337 -1.33677e-20 -1.00075e-21 0.753299 2.30898e-05 0.753364)
(0.753327 -2.33859e-20 -1.94135e-21 0.753317 2.25894e-05 0.753357)
(0.753346 -1.75389e-20 -2.14454e-21 0.753269 5.79571e-05 0.753385)
(0.753333 -1.03882e-20 -2.2638e-21 0.753285 -7.04502e-06 0.753382)
(0.753328 -2.31463e-20 3.26276e-21 0.753307 -4.71806e-05 0.753366)
(0.75334 -2.75078e-20 2.78358e-21 0.75329 -3.33288e-06 0.75337)
(0.753332 -2.65045e-20 1.94464e-21 0.753305 5.93956e-07 0.753363)
(0.753333 -1.86403e-20 1.00329e-21 0.753304 3.85835e-05 0.753363)
(0.753334 -2.37422e-20 3.15945e-22 0.753298 8.45834e-05 0.753368)
(0.753335 2.11146e-20 5.04028e-21 0.753293 9.48252e-05 0.753372)
(0.753332 6.95576e-20 7.77803e-21 0.753291 0.000105113 0.753377)
(0.753332 8.18891e-20 1.09596e-20 0.753277 0.000154721 0.753391)
(0.753346 8.69265e-20 1.37842e-20 0.753236 0.000167397 0.753419)
(0.753332 1.40767e-20 1.10569e-20 0.753288 2.8567e-05 0.75338)
(0.753333 4.68629e-20 4.50157e-21 0.753305 8.41762e-05 0.753362)
(0.753343 9.00669e-20 2.81038e-21 0.753296 0.000185401 0.753362)
(0.753329 6.47135e-20 6.47187e-21 0.753306 0.000119404 0.753365)
(0.753338 8.5231e-20 8.42279e-21 0.753281 0.000137471 0.753381)
(0.753328 1.13099e-19 1.18647e-20 0.753291 0.000153548 0.753381)
(0.753337 1.22093e-19 1.18712e-20 0.753271 0.000165221 0.753392)
(0.75334 3.12544e-20 1.8942e-21 0.753291 5.59679e-05 0.75337)
(0.753334 -1.76e-20 -8.56805e-22 0.753304 7.18616e-06 0.753361)
(0.753333 9.73332e-21 3.70159e-21 0.753318 -3.00121e-06 0.753349)
(0.753331 5.50138e-21 6.52508e-22 0.753311 -8.2082e-06 0.753358)
(0.753346 -9.01495e-22 1.09634e-21 0.753287 4.17796e-05 0.753367)
(0.753335 -2.10449e-21 3.12051e-22 0.753315 3.28118e-05 0.75335)
(0.753331 3.01757e-22 -1.46403e-21 0.75333 9.91135e-07 0.753339)
(0.753335 8.3075e-22 -6.0891e-23 0.753322 -6.4003e-06 0.753343)
(0.753332 7.77349e-22 1.0601e-21 0.753325 4.43361e-06 0.753343)
(0.753334 2.01776e-22 1.37975e-21 0.753326 -1.05182e-06 0.753341)
(0.753334 2.87319e-22 1.20862e-21 0.753323 6.9974e-07 0.753344)
(0.753333 -3.15669e-22 7.60627e-22 0.753327 9.26055e-07 0.75334)
(0.753333 -2.66962e-21 7.75463e-23 0.753328 -6.26738e-06 0.753339)
(0.753334 -1.35204e-21 1.22663e-24 0.753326 1.09382e-06 0.75334)
(0.753333 4.68606e-22 4.08503e-23 0.753328 3.24301e-06 0.753338)
(0.753333 1.01841e-23 2.10085e-23 0.75333 -3.39715e-06 0.753337)
(0.753334 6.71692e-23 8.25734e-23 0.753326 -4.06161e-06 0.75334)
(0.753333 -2.21115e-22 3.17338e-23 0.75333 -1.65571e-06 0.753337)
(0.753333 1.37119e-21 1.2943e-22 0.75333 -4.64939e-06 0.753337)
(0.753334 1.39795e-21 4.86571e-22 0.753329 -3.68462e-07 0.753337)
(0.753333 -3.09833e-22 9.70629e-23 0.753332 -3.00974e-06 0.753335)
(0.753334 5.43049e-22 6.71318e-22 0.753329 -5.22763e-06 0.753337)
(0.753333 1.09218e-22 4.47069e-22 0.753331 -1.7838e-06 0.753336)
(0.753332 2.49294e-22 9.8288e-22 0.753333 -5.05459e-06 0.753335)
(0.753334 9.55383e-22 1.11367e-22 0.75333 -6.3923e-07 0.753336)
(0.753332 -3.6415e-23 1.03516e-22 0.753333 -2.13647e-06 0.753334)
(0.753333 3.55793e-22 1.30966e-21 0.753332 -5.3312e-06 0.753335)
(0.753335 2.4506e-21 8.94909e-23 0.753329 -9.30817e-07 0.753336)
(0.753332 -1.6631e-22 3.71962e-22 0.753335 -2.40424e-06 0.753333)
(0.753334 8.73733e-22 2.31139e-21 0.75333 -5.64915e-06 0.753336)
(0.753334 2.98573e-22 2.54633e-22 0.753331 -2.03704e-06 0.753335)
(0.753332 -7.5444e-22 2.42359e-21 0.753336 -6.13105e-06 0.753333)
(0.753335 8.75919e-22 1.72528e-22 0.753329 -1.67564e-06 0.753336)
(0.753332 -1.60657e-21 2.84292e-22 0.753335 -2.62091e-06 0.753333)
(0.753334 -1.10926e-21 2.31341e-21 0.753331 -6.48318e-06 0.753335)
(0.753334 -1.2004e-22 2.04685e-22 0.753332 -2.50394e-06 0.753334)
(0.753332 -1.06789e-21 2.09116e-21 0.753337 -6.50603e-06 0.753332)
(0.753335 1.34242e-21 1.53101e-22 0.75333 -2.34965e-06 0.753336)
(0.753332 -1.00825e-21 2.06121e-22 0.753335 -2.55899e-06 0.753333)
(0.753333 -1.50652e-21 2.07236e-21 0.753334 -6.45386e-06 0.753333)
(0.753335 2.04332e-21 1.17427e-22 0.753329 -2.77334e-06 0.753336)
(0.753331 -1.43899e-21 2.27454e-22 0.753337 -2.60933e-06 0.753332)
(0.753335 1.88684e-21 2.67029e-21 0.753332 -6.34345e-06 0.753334)
(0.753334 1.92317e-21 4.05099e-22 0.753332 -2.79328e-06 0.753334)
(0.753332 1.92103e-21 3.61309e-21 0.753338 -6.2028e-06 0.75333)
(0.753335 4.7804e-21 5.28966e-22 0.75333 -2.89931e-06 0.753335)
(0.753332 1.32896e-22 8.78383e-22 0.753337 -2.36664e-06 0.753332)
(0.753335 8.57677e-22 4.89875e-21 0.753332 -5.55181e-06 0.753334)
(0.753334 -4.97302e-22 7.09347e-22 0.753333 -2.62879e-06 0.753334)
(0.753331 -1.89841e-21 5.04723e-21 0.753338 -5.46814e-06 0.753331)
(0.753335 2.63888e-21 6.36044e-22 0.75333 -2.57476e-06 0.753335)
(0.753332 -3.6795e-21 7.98023e-22 0.753337 -2.40635e-06 0.753331)
(0.753333 -4.54345e-21 4.36709e-21 0.753334 -5.10799e-06 0.753333)
(0.753335 2.14514e-21 4.22663e-22 0.75333 -2.37617e-06 0.753335)
(0.753331 -2.24544e-21 7.27721e-22 0.753338 -2.75792e-06 0.75333)
(0.753334 -2.38982e-22 4.05886e-21 0.753331 -4.83944e-06 0.753335)
(0.753334 2.07225e-21 6.02012e-22 0.753333 -2.71978e-06 0.753333)
(0.753331 -3.77053e-22 4.25086e-21 0.753337 -5.49126e-06 0.753332)
(0.753335 2.70131e-21 6.95806e-22 0.753331 -2.12142e-06 0.753334)
(0.753332 -3.35344e-21 1.19396e-21 0.753338 -3.20062e-06 0.753331)