/*--------------------------------*- C++ -*----------------------------------*\
| =========                 |                                                 |
| \\      /  F ield         | OpenFOAM: The Open Source CFD Toolbox           |
|  \\    /   O peration     | Version:  4.1                                   |
|   \\  /    A nd           | Web:      www.OpenFOAM.org                      |
|    \\/     M anipulation  |                                                 |
\*---------------------------------------------------------------------------*/
FoamFile
{
    version     2.0;
    format      ascii;
    class       surfaceScalarField;
    location    "12";
    object      phi;
}
// * * * * * * * * * * * * * * * * * * * * * * * * * * * * * * * * * * * * * //

dimensions      [0 3 -1 0 0 0 0];

internalField   nonuniform List<scalar> 
13220
(
-880.255
2180.16
-1359.21
1779.15
-1814.08
1754.77
-2155.84
1641.67
-2416.6
1560.96
-2597.16
1480.46
-2699.58
1402.32
-2723.82
1324.44
-2670.33
1246.41
-2542.88
1172.45
-2352.74
1110.06
-2091.55
1038.72
-1690.12
898.473
-1031.12
641.194
268.785
-28.8589
2209.02
-99.6832
1849.98
-255.858
1910.95
-382.384
1768.2
-513.112
1691.69
-626.871
1594.22
-725.337
1500.79
-807.126
1406.24
-875.458
1314.74
-922.996
1219.99
-899.126
1086.19
-712.163
851.756
-344.632
530.948
-5.79224
302.367
262.993
-177.413
2386.44
-417.001
2089.58
-638.352
2132.31
-791.435
1921.29
-938.215
1838.48
-1049.78
1705.79
-1143.02
1594.04
-1220.02
1483.24
-1285.55
1380.27
-1327.8
1262.25
-1297.25
1055.65
-1113.46
667.974
-766.385
183.888
-408.485
-55.5047
-145.491
13.0525
2373.39
-81.7093
2184.35
-128.226
2178.83
-140.911
1933.98
-154.002
1851.58
-145.601
1697.39
-125.49
1573.94
-90.0105
1447.77
-40.1818
1330.45
16.3396
1205.74
43.9129
1028.08
-16.6865
728.597
-144.858
312.123
-147.529
-52.7676
-293.019
148.192
2225.21
126.151
2206.4
171.272
2133.72
226.552
1878.71
284.925
1793.21
347.317
1635.01
414.239
1507.02
486.494
1375.52
567.294
1249.66
647.178
1125.86
689.091
986.168
615.042
802.664
384.499
542.694
78.9429
252.834
-214.077
142.213
2083
146.111
2202.51
188.673
2091.17
233.541
1833.85
282.238
1744.52
327.215
1590.04
373.027
1461.22
416.898
1331.66
460.892
1205.67
501.077
1085.68
522.551
964.696
491.864
833.341
373.709
660.836
189.81
436.702
-24.2655
87.3594
1995.65
132.916
2156.96
175.551
2048.54
221.267
1788.14
265.727
1700.07
310.704
1545.07
352.25
1419.68
389.109
1294.81
416.885
1177.9
436.885
1065.69
445.735
955.849
430.415
848.69
360.093
731.19
214.661
582.203
190.394
26.5825
1969.07
95.6636
2087.88
142.895
2001.31
188.583
1742.46
228.12
1660.53
280.2
1492.99
328.891
1370.98
389.632
1234.07
453.612
1113.92
510.623
1008.67
541.189
925.283
523.941
865.903
433.327
821.77
265.229
750.25
455.624
-31.6981
2000.77
0.160554
2056.02
26.7553
1974.72
32.522
1736.69
40.7352
1652.32
59.5848
1474.15
100.877
1329.7
198.033
1136.91
337.583
974.37
475.728
870.532
559.73
841.281
553.326
872.341
443.348
931.777
255.933
937.7
711.556
-42.0497
2042.82
-132.121
2146.09
-172.661
2015.25
-244.384
1808.41
-309.462
1717.4
-373.364
1538.04
-405.795
1362.12
-375.78
1106.9
-289.508
888.092
-170.914
751.928
-37.2342
707.598
85.3339
749.728
144.575
872.496
103.518
978.713
815.075
60.194
1982.61
-127.214
2333.49
-249.328
2137.35
-367.198
1926.27
-483.86
1834.05
-607.054
1661.23
-735.639
1490.7
-857.513
1228.76
-953.841
984.41
-991.803
789.883
-926.749
642.532
-723.722
546.714
-411.771
560.552
-125.555
692.505
689.519
247.438
1735.16
141.499
2439.42
-1.72557
2280.57
-108.303
2032.83
-188.556
1914.28
-280.787
1753.44
-394.608
1604.5
-555.589
1389.72
-737.64
1166.44
-900.532
952.757
-1004.19
746.181
-993.594
536.072
-791.308
358.219
-375.188
276.32
314.331
451.003
1284.15
580.583
2309.83
530.719
2330.42
506.407
2057.14
543.428
1877.26
566.696
1730.17
564.004
1607.19
496.591
1457.13
371.76
1291.27
207.742
1116.77
21.9341
931.982
-167.065
725.066
-291.808
482.947
-237.584
222.071
76.746
594.133
690.01
878.564
2025.39
880.395
2328.59
775.395
2162.13
713.242
1939.4
692.862
1750.54
702.802
1597.24
707.825
1452.1
695.668
1303.42
667.55
1144.88
608.712
990.817
491.673
842.095
303.812
670.798
73.3308
452.529
150.077
387.306
1355.54
2134.35
2587.08
2732.68
2738.3
2644.37
2483.2
2266.27
2021.78
1736.63
1403.45
1020.9
542.51
-1.02507e-05
102.343
-102.343
102.343
102.343
102.343
189.403
-87.06
189.403
189.403
189.403
258.235
-68.8318
258.235
258.235
312.707
-54.4725
312.707
312.707
312.707
361.745
-49.0376
361.745
361.745
402.154
-40.4095
402.154
402.154
402.154
435.147
-32.9923
435.147
435.147
435.147
461.645
-26.4984
461.645
461.645
476.882
-15.2367
476.882
476.882
476.882
486.438
-9.55598
486.438
486.438
490.561
-4.12326
490.561
490.561
490.561
483.704
6.85669
483.704
483.704
483.704
457.939
25.765
457.939
457.939
451.64
6.29922
451.64
451.64
451.64
500.114
-48.4738
500.114
500.114
500.114
432.911
67.2034
432.911
432.911
237.22
195.691
237.22
237.22
237.22
-58.1055
295.326
-58.1057
-58.1053
-944.352
886.246
-944.351
-944.352
-944.351
-2367.42
1423.07
-2367.42
-2367.42
-2367.42
-4189.07
1821.65
-4189.07
-4189.07
-6343
2153.93
-6343.01
-6343.01
-6216.1
-6088.16
-5956.67
-8227.18
2399.39
-8093.24
-7933.33
-7758.31
-7582.78
-7406.98
-7232.33
-7052.62
-6857.96
-9227.43
2561.42
-9025.58
-8823.62
-8621.48
-8404.09
-8184.8
-7964.08
-7742.18
-7518.16
-9992.02
2700.32
-9753.41
-9513.2
-9272.32
-9030.37
-8781.94
-8522.03
-8261.02
-7997.86
-7732.91
-10199.9
2723.28
-9918.52
-9634.65
-9349.37
-9063.29
-8776.42
-8476.41
-8168.44
-7859.65
-10113.7
2551
-9815.05
-9509.67
-9192.66
-8875.59
-8558.17
-8241.39
-7923.53
-7584.4
-9392.28
2136.43
-9068.12
-8745.21
-8423.66
-8086.49
-7743.99
-7404.82
-7067.78
-6735.1
-7748.86
1346.48
-7418.19
-7094.58
-6776.69
-6465.31
-6161.03
-5856.34
-5559.17
-5269.06
-4987.7
-4579.98
-118.857
-4344.03
-4131.59
-3928.02
-3733.94
-3547.76
-3405.42
-3351.19
-3297
-2093.03
-1136.84
-2048.88
-2005.31
-2005.31
-884.424
-1120.89
4.29226
-888.716
4.29164
843.402
-839.11
843.402
1599.4
-755.996
2311.51
-712.107
2311.51
2906.24
-594.734
3437.67
-531.429
3437.67
3884.27
-446.596
3884.27
4254.86
-370.598
4535.59
-280.731
4535.59
4753.06
-217.471
4753.06
4915.39
-162.328
4972.91
-57.5169
4972.91
5004.64
-31.7346
4921.79
82.8556
4921.79
4804.38
117.405
4804.38
4656.82
147.567
4403.76
253.056
4403.76
4141.32
262.441
4141.32
3872.88
268.444
3530.49
342.388
3530.49
3226.83
303.659
2880.65
346.18
2880.65
2587.68
292.968
2587.68
2363.24
224.441
2189.81
173.43
2189.81
2201.4
-11.5894
2201.4
2274.89
-73.4893
2284.02
-9.13451
2284.02
2254.1
29.9195
2185.54
68.5649
2185.54
2076.23
109.312
2076.23
1891.16
185.071
1671.1
220.061
1671.1
1358.45
312.647
1358.45
927.022
431.427
410.907
516.115
410.907
-373.278
784.185
-1561.2
1187.93
-1561.2
-3049.61
1488.41
-3049.61
-4912.07
1862.45
-7043.51
2131.44
-7043.51
-9532.74
2489.24
-9532.74
-12492.6
2959.81
-15569.1
3076.56
-15569.1
-19246.4
3677.24
-22919.6
3673.21
-22919.6
-27075
4155.42
-27075
4827.98
176.843
-314.089
182.419
-302.43
187.887
-305.175
192.791
-314.417
197.061
-328.637
200.72
-348.08
203.966
-371.442
207.191
-397.671
211.1
-424.436
215.261
-449.553
221.212
-468.326
244.772
-442.744
276.757
-472.114
261.541
-932.65
205.792
-1774.23
170.793
-2408.64
164.839
-2629.21
162.867
-2658.51
151.061
-2695.75
134.295
-2813.99
128.509
-2905.67
135.473
-2804.2
149.79
-2496.47
173.852
-2111.4
202.875
-1792.21
221.581
-1664.42
215.43
-1723.07
182.936
-1830.36
138.794
-1954.82
104.831
-2132.42
92.6335
-2284.47
96.0437
-2283.27
98.9566
-2122.11
90.9902
-1893.2
68.7528
-1702.74
37.055
-1591.39
0.647135
-1500.41
-35.4221
-1396.96
-67.6187
-1238.71
-97.0987
-1072.21
-123.76
-948.577
-150.367
-844.732
-176.326
-776.813
-199.693
-765.603
-221.458
-804.268
-244.115
-850.9
-268.293
-898.57
-293.258
-960.918
-318.93
-1050.26
-345.81
-1167.84
-374.143
-1316.51
-405.019
-1499.72
-442.445
-1710.03
-492.758
-1926.33
-556.348
-2141
-617.37
-2397.3
-649.309
-2776.34
-635.268
-3316.99
-577.174
-3961
-485.026
-4595.85
-366.324
-5116.55
-228.74
-5432.57
-87.1035
-5451.22
38.0949
-5114.26
126.811
-4534.15
160.031
-3937.7
126.115
-3747.75
28.6796
-4290.26
-106.815
-5214.34
-241.992
-6197.96
-398.327
-6826.73
-661.803
-5545.08
-979.433
-2044.5
-1201.58
524.215
-1474.64
2424.29
-2050.18
5449.53
-3021.32
10675
-4298.09
18970.9
28596.3
194.888
-316.633
199.597
-307.138
204.198
-309.776
208.439
-318.658
212.258
-332.456
215.69
-351.513
218.957
-374.709
222.418
-401.131
226.802
-428.82
232.21
-454.961
240.601
-476.717
265.574
-467.717
297.979
-504.519
284.546
-919.217
226.21
-1715.89
183.892
-2366.32
173.395
-2618.71
171.133
-2656.25
160.385
-2685
142.855
-2796.45
135.528
-2898.34
143.472
-2812.14
159.384
-2512.38
185.242
-2137.26
216.695
-1823.66
236.144
-1683.87
231.373
-1718.3
203.883
-1802.87
163.676
-1914.61
127.389
-2096.13
109.881
-2266.97
110.379
-2283.77
112.362
-2124.09
102.212
-1883.05
76.8491
-1677.37
42.0665
-1556.61
4.10409
-1462.45
-32.6071
-1360.25
-65.419
-1205.9
-94.6827
-1042.95
-119.773
-923.487
-142.874
-821.631
-165.75
-753.937
-189.156
-742.197
-213.673
-779.752
-239.545
-825.027
-266.056
-872.059
-292.625
-934.349
-320.137
-1022.75
-349.502
-1138.47
-380.677
-1285.33
-414.696
-1465.7
-456.38
-1668.34
-513.299
-1869.42
-584.955
-2069.34
-651.264
-2330.99
-682.319
-2745.29
-663.12
-3336.19
-599.705
-4024.41
-502.606
-4692.95
-377.366
-5241.79
-231.646
-5578.29
-82.6365
-5600.23
46.5239
-5243.42
133.237
-4620.87
153.599
-3958.07
96.9351
-3691.09
-22.8032
-4170.52
-171.508
-5065.63
-304.589
-6064.88
-454.464
-6676.85
-694.261
-5305.28
-964.385
-1774.38
-1200.67
760.501
-1532.73
2756.35
-2160.87
6077.67
-3188.99
11703.1
-4392.25
20174.2
28359.5
206.263
-318.97
210.44
-311.315
214.61
-313.946
218.515
-322.562
222.093
-336.034
225.377
-354.797
228.59
-377.922
232.049
-404.59
236.444
-433.215
242.223
-460.74
251.061
-485.555
274.551
-491.206
306.256
-536.224
296.782
-909.743
240.442
-1659.55
194.19
-2320.07
179.546
-2604.07
176.195
-2652.9
166.241
-2675.04
148.859
-2779.07
140.178
-2889.66
148.353
-2820.32
165.221
-2529.25
190.342
-2162.38
221.301
-1854.62
241.732
-1704.3
239.818
-1716.39
217.24
-1780.29
181.515
-1878.89
145.125
-2059.74
123.392
-2245.23
120.311
-2280.69
121.58
-2125.36
110.865
-1872.33
83.7084
-1650.22
46.4754
-1519.38
6.97439
-1422.95
-30.6564
-1322.62
-64.4575
-1172.1
-94.4441
-1012.96
-120.654
-897.277
-144.719
-797.567
-168.292
-730.364
-192.913
-717.576
-219.27
-753.395
-246.529
-797.769
-273.503
-845.084
-300.501
-907.352
-329.137
-994.116
-360.009
-1107.6
-392.784
-1252.56
-429.059
-1429.42
-475.058
-1622.35
-538.622
-1805.85
-615.382
-1992.58
-680.108
-2266.26
-703.913
-2721.48
-678.149
-3361.95
-611.614
-4090.95
-512.068
-4792.5
-382.895
-5370.96
-232.773
-5728.41
-80.7467
-5752.25
48.7818
-5372.94
131.272
-4703.36
138.601
-3965.39
63.284
-3615.77
-69.4467
-4037.79
-221.064
-4914.01
-350.697
-5935.24
-503.1
-6524.45
-741.945
-5066.44
-989.306
-1527.02
-1231.59
1002.79
-1614.76
3139.52
-2318.48
6781.39
-3399.13
12783.7
-4390.69
21165.7
27642
218.757
-321.124
222.449
-315.008
226.193
-317.69
229.779
-326.148
233.178
-339.434
236.42
-358.039
239.703
-381.206
243.3
-408.187
247.847
-437.762
254.063
-466.956
263.471
-494.963
285.712
-513.446
316.443
-566.956
310.307
-903.607
256.028
-1605.27
206.13
-2270.17
187.153
-2585.09
182.394
-2648.14
173.029
-2665.68
155.735
-2761.78
145.651
-2879.58
153.719
-2828.38
171.523
-2547.05
196.055
-2186.91
226.227
-1884.79
247.473
-1725.55
248.532
-1717.45
231.041
-1762.8
200.235
-1848.08
164.59
-2024.1
139.082
-2219.72
131.735
-2273.34
131.299
-2124.92
119.827
-1860.86
91.0184
-1621.41
51.3249
-1479.68
10.1688
-1381.79
-28.4299
-1284.02
-63.0051
-1137.53
-93.1138
-982.851
-119.386
-871.006
-143.639
-773.314
-167.768
-706.234
-193.177
-692.167
-220.239
-726.332
-247.941
-770.067
-275.531
-817.494
-303.912
-878.971
-334.502
-963.526
-367.363
-1074.74
-402.191
-1217.73
-441.367
-1390.25
-492.422
-1571.29
-562.765
-1735.51
-643.822
-1911.52
-706.759
-2203.32
-725.244
-2703
-695.573
-3391.62
-626.993
-4159.53
-524.568
-4894.92
-390.861
-5504.67
-235.998
-5883.27
-80.6333
-5907.62
49.8898
-5503.47
129.22
-4782.69
124.526
-3960.7
29.901
-3521.15
-118.188
-3889.7
-275.093
-4757.11
-405.127
-5805.21
-563.309
-6366.26
-801.891
-4827.86
-1034.37
-1294.54
-1288.29
1256.71
-1728.48
3579.7
-2510.37
7563.28
-3606.9
13880.3
-4410.15
21969
26909.1
230.785
-323.091
234.032
-318.255
237.392
-321.051
240.718
-329.474
244.005
-342.72
247.262
-361.296
250.65
-384.594
254.401
-411.938
259.084
-442.445
265.609
-473.481
275.363
-504.718
296.038
-534.121
325.133
-596.052
322.227
-900.701
271.218
-1554.26
218.711
-2217.66
195.319
-2561.7
188.687
-2641.51
179.739
-2656.73
162.725
-2744.77
151.251
-2868.1
158.735
-2835.87
177.164
-2565.48
200.772
-2210.52
229.512
-1913.54
251.353
-1747.39
255.602
-1721.69
243.299
-1750.5
217.82
-1822.6
183.935
-1990.21
155.37
-2191.16
143.48
-2261.45
140.637
-2122.08
128.294
-1848.52
98.1623
-1591.28
56.2298
-1437.75
13.3972
-1338.96
-26.2437
-1244.38
-61.6274
-1102.14
-92.0465
-952.432
-118.528
-844.524
-142.825
-749.016
-167.208
-681.851
-193.178
-666.197
-221.053
-698.458
-249.747
-741.373
-278.574
-788.666
-308.467
-849.078
-340.655
-931.337
-375.104
-1040.29
-411.753
-1181.08
-453.859
-1348.14
-510.162
-1514.99
-586.926
-1658.75
-671.003
-1827.45
-731.075
-2143.25
-744.502
-2689.57
-711.922
-3424.2
-641.955
-4229.49
-537.013
-4999.86
-399.372
-5642.31
-240.715
-6041.93
-83.0889
-6065.25
47.7607
-5634.32
123.872
-4858.8
107.126
-3943.95
-7.03167
-3406.99
-169.899
-3726.83
-330.74
-4596.27
-462.718
-5673.23
-630.197
-6198.79
-870.683
-4587.37
-1093.39
-1071.83
-1367.86
1531.18
-1872.97
4084.81
-2722.33
8412.64
-3786.71
14944.7
-4335.57
22517.8
25650.1
242.666
-324.898
245.545
-321.134
248.597
-324.102
251.738
-332.615
254.985
-345.968
258.322
-364.632
261.859
-388.131
265.798
-415.877
270.644
-447.291
277.395
-480.233
287.369
-514.691
306.584
-553.336
333.782
-623.25
333.489
-900.409
286.162
-1506.93
231.959
-2163.46
204.297
-2534.04
195.42
-2632.63
186.615
-2647.93
169.941
-2728.09
157.167
-2855.33
163.631
-2842.33
182.402
-2584.25
205.118
-2233.24
232.191
-1940.61
254.515
-1769.71
261.988
-1729.17
254.65
-1743.16
234.45
-1802.4
203.022
-1958.78
172.205
-2160.34
155.779
-2245.02
149.854
-2116.15
136.31
-1834.97
105.079
-1560.04
61.1901
-1393.86
16.6963
-1294.47
-24.0361
-1203.65
-60.0952
-1066.08
-90.7506
-921.777
-117.505
-817.77
-141.96
-724.562
-166.668
-657.142
-193.245
-639.62
-221.971
-669.732
-251.626
-711.719
-281.514
-758.778
-312.645
-817.947
-346.221
-897.761
-382.168
-1004.34
-420.667
-1142.58
-465.957
-1302.85
-527.779
-1453.16
-610.559
-1575.96
-696.572
-1741.44
-753.368
-2086.46
-762.737
-2680.2
-728.568
-3458.37
-657.805
-4300.26
-550.516
-5107.15
-409.328
-5783.49
-247.626
-6203.63
-88.6274
-6224.24
42.2205
-5765.17
115.604
-4932.18
87.1976
-3915.55
-46.5839
-3273.21
-224.014
-3549.4
-388.483
-4431.8
-524.889
-5536.83
-705.256
-6018.42
-951.325
-4341.3
-1171.57
-851.588
-1473.59
1833.21
-2042.01
4653.22
-2933.21
9303.83
-3917.44
15928.9
-4227.75
22828.1
24382.1
254.355
-326.576
256.95
-323.729
259.775
-326.927
262.81
-335.649
266.079
-349.237
269.533
-368.086
273.235
-391.833
277.368
-420.01
282.389
-452.312
289.322
-487.166
299.401
-524.77
317.179
-571.114
342.27
-648.341
344.088
-902.226
300.746
-1463.59
245.711
-2108.42
214.011
-2502.34
202.568
-2621.19
193.632
-2638.99
177.326
-2711.78
163.359
-2841.36
168.398
-2847.37
187.15
-2603
209.132
-2255.22
234.599
-1966.07
257.33
-1792.44
267.949
-1739.79
265.27
-1740.48
250.071
-1787.2
221.459
-1930.17
189.147
-2128.03
168.481
-2224.36
159.002
-2106.68
143.807
-1819.78
111.572
-1527.81
66.0397
-1348.33
19.967
-1248.4
-21.8941
-1161.78
-58.559
-1029.42
-89.3977
-890.938
-116.416
-790.752
-141.073
-699.905
-166.168
-632.047
-193.358
-612.43
-222.868
-640.222
-253.376
-681.211
-284.23
-727.924
-316.522
-785.655
-351.41
-862.873
-388.785
-966.968
-429.163
-1102.2
-477.868
-1254.15
-545.353
-1385.68
-633.572
-1487.75
-720.483
-1654.52
-773.824
-2033.11
-780.119
-2673.9
-745.371
-3493.12
-674.213
-4371.42
-564.862
-5216.5
-420.778
-5927.58
-257.117
-6367.29
-97.9924
-6383.37
32.3418
-5895.5
103.477
-5003.32
63.701
-3875.77
-89.8033
-3119.7
-281.227
-3357.98
-448.79
-4264.23
-591.638
-5393.98
-787.925
-5822.13
-1043.75
-4085.48
-1270.23
-625.107
-1605.32
2168.3
-2227.85
5275.75
-3131.17
10207.2
-4002.98
16800.7
-4071.2
22896.4
22800.2
265.892
-328.169
268.311
-326.148
271.017
-329.633
274.03
-338.662
277.366
-352.574
280.949
-371.668
284.811
-395.695
289.128
-424.327
294.319
-457.504
301.375
-494.221
311.467
-534.861
327.92
-587.568
350.828
-671.248
354.201
-905.599
314.915
-1424.31
259.842
-2053.35
224.46
-2466.96
210.203
-2606.93
200.829
-2629.62
184.862
-2695.82
169.818
-2826.32
173.11
-2850.66
191.437
-2621.33
212.885
-2276.67
237.137
-1990.33
260.415
-1815.72
274.015
-1753.39
275.479
-1741.95
264.69
-1776.42
238.909
-1904.39
205.756
-2094.88
181.353
-2199.95
168.11
-2093.43
150.824
-1802.49
117.562
-1494.55
70.6919
-1301.46
23.1754
-1200.88
-19.8092
-1118.8
-56.978
-992.249
-87.9357
-859.98
-115.197
-763.49
-140.075
-675.028
-165.608
-606.514
-193.434
-584.604
-223.68
-609.976
-254.967
-649.924
-286.738
-696.153
-320.13
-752.263
-356.233
-826.771
-394.96
-928.24
-437.268
-1059.9
-489.612
-1201.8
-562.791
-1312.5
-655.768
-1394.77
-742.714
-1567.58
-792.746
-1983.08
-797.036
-2669.61
-762.573
-3527.58
-691.363
-4442.63
-580.321
-5327.55
-434.127
-6073.77
-269.817
-6531.6
-112.019
-6541.17
17.2659
-6024.78
86.7513
-5072.8
36.1098
-3825.13
-136.917
-2946.68
-341.459
-3153.44
-511.565
-4094.13
-662.768
-5242.78
-877.776
-5607.12
-1147.94
-3815.32
-1388.81
-384.237
-1758.9
2538.4
-2421.03
5937.88
-3306.77
11092.9
-4040.77
17534.7
-3866.31
22721.9
21065.3
277.347
-329.712
279.692
-328.493
282.391
-332.332
285.453
-341.725
288.878
-355.999
292.576
-375.366
296.575
-399.693
301.054
-428.807
306.401
-462.85
313.533
-501.353
323.538
-544.867
338.751
-602.781
359.487
-691.984
363.95
-910.061
328.658
-1389.02
274.238
-1998.93
235.606
-2428.32
218.365
-2589.69
208.24
-2619.49
192.534
-2680.11
176.516
-2810.3
177.83
-2851.98
195.299
-2638.8
216.409
-2297.78
240.087
-2014
264.199
-1839.83
280.553
-1769.74
285.554
-1746.95
278.413
-1769.27
255.17
-1881.15
221.654
-2061.36
194.11
-2172.41
177.117
-2076.44
157.369
-1782.75
122.969
-1460.15
75.0289
-1253.52
26.2469
-1152.1
-17.8298
-1074.72
-55.4242
-954.654
-86.4553
-828.949
-113.947
-735.999
-139.062
-649.912
-165.068
-580.507
-193.516
-556.156
-224.407
-579.085
-256.384
-617.947
-289.024
-663.513
-323.455
-717.831
-360.682
-789.544
-400.701
-888.222
-445.011
-1015.59
-501.2
-1145.61
-579.997
-1233.7
-676.998
-1297.77
-763.292
-1481.28
-810.365
-1936.01
-813.671
-2666.31
-780.194
-3561.06
-709.263
-4513.56
-597.025
-5439.78
-449.708
-6221.09
-286.349
-6694.96
-131.534
-6695.98
-3.90787
-6152.41
64.403
-5141.11
3.44177
-3764.17
-188.567
-2754.67
-404.885
-2937.12
-576.783
-3922.23
-737.969
-5081.59
-974.057
-5371.03
-1262.72
-3526.66
-1523.96
-122.988
-1927.28
2941.71
-2611.54
6622.14
-3452.03
11933.4
-4030.69
18113.4
-3638.03
22329.2
19289.7
288.816
-331.237
291.182
-330.859
293.968
-335.118
297.122
-344.879
300.627
-359.504
304.41
-379.149
308.515
-403.798
313.128
-433.419
318.604
-468.326
325.761
-508.51
335.589
-554.696
349.648
-616.84
368.288
-710.624
373.44
-915.214
341.976
-1357.55
288.8
-1945.76
247.407
-2386.93
227.092
-2569.38
215.905
-2608.3
200.335
-2664.54
183.424
-2793.39
182.618
-2851.17
198.796
-2654.98
219.679
-2318.66
243.529
-2037.85
268.916
-1865.22
287.819
-1788.64
295.703
-1754.83
291.331
-1764.9
270.106
-1859.92
236.524
-2027.78
206.461
-2142.35
185.91
-2055.89
163.452
-1760.29
127.76
-1424.46
78.9683
-1204.73
29.1296
-1102.26
-15.9611
-1029.63
-53.8927
-916.723
-84.9574
-797.885
-112.664
-708.292
-138.014
-624.562
-164.49
-554.031
-193.528
-527.118
-225.001
-547.612
-257.626
-585.322
-291.108
-630.031
-326.517
-682.422
-364.782
-751.28
-406.042
-846.961
-452.441
-969.187
-512.646
-1085.41
-596.873
-1149.48
-697.138
-1197.5
-782.281
-1396.14
-826.917
-1891.37
-830.203
-2663.02
-798.301
-3592.96
-728.004
-4583.86
-615.19
-5552.6
-467.928
-6368.35
-307.361
-6855.53
-157.288
-6846.05
-31.9678
-6277.73
35.3392
-5208.42
-35.351
-3693.48
-245.175
-2544.84
-471.325
-2710.97
-644.126
-3749.43
-816.705
-4909.01
-1075.72
-5112.02
-1386.13
-3216.25
-1670.9
161.779
-2102.14
3372.95
-2790.23
7310.23
-3562.43
12705.6
-3977.1
18528
-3383.07
21735.2
17395
300.433
-332.757
302.867
-333.294
305.784
-338.035
309.035
-348.13
312.597
-363.065
316.433
-382.985
320.615
-407.979
325.331
-438.136
330.903
-473.898
338.034
-515.641
347.602
-564.264
360.578
-629.816
377.245
-727.291
382.768
-920.737
354.896
-1329.68
303.445
-1894.3
259.816
-2343.3
236.419
-2545.98
223.868
-2595.75
208.262
-2648.94
190.511
-2775.64
187.509
-2848.17
202.004
-2669.47
222.67
-2339.33
247.379
-2062.56
274.546
-1892.39
295.884
-1809.98
306.047
-1764.99
303.545
-1762.4
283.672
-1840.05
250.154
-1994.26
218.147
-2110.34
194.343
-2032.08
169.042
-1734.99
131.903
-1387.32
82.4311
-1155.26
31.7587
-1051.59
-14.2313
-983.643
-52.4253
-878.529
-83.5124
-766.798
-111.44
-680.364
-137.027
-598.976
-163.949
-527.109
-193.526
-497.541
-225.492
-515.647
-258.688
-552.125
-292.958
-595.761
-329.286
-646.094
-368.517
-712.049
-410.988
-804.491
-459.572
-920.603
-523.92
-1021.06
-613.291
-1060.11
-716.077
-1094.72
-799.753
-1312.47
-842.585
-1848.54
-846.731
-2658.88
-816.915
-3622.77
-747.664
-4653.11
-635.024
-5665.24
-489.177
-6514.2
-333.442
-7011.27
-189.916
-6989.58
-67.6115
-6400.03
-1.65227
-5274.38
-81.5009
-3613.63
-307.194
-2319.15
-540.472
-2477.69
-713.138
-3576.76
-898.308
-4723.84
-1181.29
-4829.04
-1514.74
-2882.81
-1823.17
470.217
-2274.96
3824.74
-2949.24
7984.51
-3635.08
13391.4
-3884.17
18777.1
-3116.54
20967.6
15466.4
312.341
-334.26
314.817
-335.769
317.838
-341.057
321.165
-351.456
324.758
-366.659
328.625
-386.852
332.861
-412.216
337.652
-442.927
343.28
-479.526
350.332
-522.693
359.572
-573.503
371.537
-641.781
386.38
-742.134
392.015
-926.372
367.455
-1305.12
318.106
-1844.96
272.782
-2297.98
246.368
-2519.56
232.175
-2581.56
216.324
-2633.09
197.747
-2757.06
192.515
-2842.94
205.005
-2681.96
225.37
-2359.69
251.471
-2088.66
280.936
-1921.85
304.71
-1833.76
316.634
-1776.92
315.134
-1760.9
295.887
-1820.8
262.423
-1960.8
228.972
-2076.89
202.262
-2005.37
174.086
-1706.81
135.377
-1348.61
85.3581
-1105.24
34.0819
-1000.31
-12.6474
-936.913
-51.0222
-840.154
-82.1301
-735.69
-110.291
-652.204
-136.112
-573.155
-163.42
-499.801
-193.448
-467.513
-225.829
-483.266
-259.56
-518.394
-294.59
-560.731
-331.788
-608.896
-371.919
-671.917
-415.571
-760.839
-466.436
-869.738
-534.995
-952.5
-629.134
-965.966
-733.735
-990.117
-815.798
-1230.4
-857.526
-1806.81
-863.329
-2653.07
-836.068
-3650.04
-768.344
-4720.83
-656.749
-5776.83
-513.827
-6657.12
-365.083
-7160.01
-229.942
-7124.72
-111.481
-6518.49
-47.804
-5338.06
-136.356
-3525.08
-374.957
-2080.55
-611.679
-2240.97
-783.132
-3405.31
-981.883
-4525.09
-1288.59
-4522.33
-1643.72
-2527.67
-1973.8
800.291
-2437.84
4288.79
-3082.59
8629.25
-3670.45
13979.3
-3761.89
18868.6
-2840.81
20046.5
13409.8
324.653
-335.697
327.067
-338.183
330.107
-344.097
333.47
-354.819
337.082
-370.272
340.971
-390.741
345.247
-416.491
350.083
-447.764
355.723
-485.166
362.647
-529.617
371.508
-582.364
382.534
-652.807
395.714
-755.314
401.26
-931.918
379.698
-1283.56
332.731
-1797.99
286.248
-2251.49
256.956
-2490.27
240.872
-2565.48
224.534
-2616.75
205.109
-2737.64
197.631
-2835.46
207.874
-2692.2
227.82
-2379.64
255.685
-2116.53
287.92
-1954.09
314.206
-1860.04
327.46
-1790.17
326.166
-1759.61
306.828
-1801.47
273.316
-1927.29
238.808
-2042.38
209.525
-1976.09
178.511
-1675.8
138.152
-1308.25
87.6988
-1054.78
36.0466
-948.658
-11.2298
-889.637
-49.7099
-801.674
-80.8517
-704.548
-109.262
-623.793
-135.324
-547.093
-162.949
-472.177
-193.338
-437.123
-226.051
-450.553
-260.245
-484.2
-295.971
-525.005
-333.984
-570.883
-374.97
-630.931
-419.797
-716.011
-473.032
-816.503
-545.813
-879.719
-644.273
-867.506
-750.044
-884.345
-830.501
-1149.95
-871.853
-1765.46
-880.034
-2644.89
-855.786
-3674.28
-790.152
-4786.46
-680.573
-5886.41
-542.19
-6795.5
-402.65
-7299.55
-277.768
-7249.6
-164.232
-6632.03
-104.358
-5397.93
-201.207
-3428.23
-448.518
-1833.24
-684.028
-2005.46
-853.283
-3236.06
-1066.23
-4312.14
-1394.85
-4193.71
-1768.31
-2154.21
-2116.57
1148.55
-2584.19
4756.41
-3186.68
9231.74
-3670.88
14463.5
-3615.31
18813
-2569.78
19001
11356.1
337.413
-337.007
339.629
-340.4
342.572
-347.04
345.925
-358.171
349.553
-373.9
353.465
-394.653
357.767
-420.793
362.618
-452.614
368.223
-490.771
374.974
-536.368
383.425
-590.815
393.584
-662.966
405.27
-767
410.57
-937.218
391.681
-1264.67
347.283
-1753.59
300.158
-2204.37
268.19
-2458.31
250.005
-2547.29
232.916
-2599.66
212.578
-2717.3
202.841
-2825.72
210.668
-2700.03
230.094
-2399.06
259.991
-2146.43
295.396
-1989.49
324.286
-1888.93
338.497
-1804.38
336.702
-1757.81
316.628
-1781.39
282.91
-1893.57
247.594
-2007.07
216.006
-1944.5
182.233
-1642.02
140.195
-1266.21
89.4137
-1004
37.6084
-896.852
-9.99535
-842.033
-48.4978
-763.171
-79.6823
-673.363
-108.353
-595.122
-134.664
-520.782
-162.52
-444.321
-193.16
-406.483
-226.123
-417.591
-260.729
-449.594
-297.103
-488.631
-335.887
-532.1
-377.691
-589.127
-423.693
-670.009
-479.372
-760.824
-556.313
-802.779
-658.589
-765.229
-764.964
-777.97
-843.947
-1070.96
-885.652
-1723.76
-896.863
-2633.68
-876.103
-3695.04
-813.196
-4849.37
-706.674
-5992.93
-574.497
-6927.68
-446.369
-7427.68
-333.705
-7362.27
-226.711
-6739.02
-172.674
-5451.97
-276.998
-3323.9
-527.422
-1582.82
-756.418
-1776.46
-922.68
-3069.79
-1149.81
-4085.01
-1497.1
-3846.42
-1884.47
-1766.85
-2246.41
1510.5
-2709.22
5219.22
-3259.83
9782.35
-3638.34
14842
-3445.26
18619.9
-2309.29
17865
9478.28
350.604
-338.152
352.517
-342.312
355.25
-349.772
358.533
-361.454
362.169
-377.537
366.103
-398.587
370.416
-425.106
375.245
-457.443
380.767
-496.294
387.309
-542.91
395.334
-598.841
404.703
-672.334
415.059
-777.356
420.001
-942.16
403.457
-1248.12
361.734
-1711.87
314.452
-2157.09
280.065
-2423.92
259.616
-2526.84
241.501
-2581.54
220.144
-2695.94
208.126
-2813.7
213.424
-2705.33
232.267
-2417.91
264.41
-2178.57
303.307
-2028.39
334.867
-1920.49
349.715
-1819.23
346.822
-1754.92
325.465
-1760.03
291.337
-1859.44
255.309
-1971.04
221.592
-1910.79
185.156
-1605.59
141.465
-1222.52
90.4686
-953.006
38.7256
-845.109
-8.97513
-794.332
-47.4182
-724.728
-78.6446
-642.137
-107.568
-566.198
-134.137
-494.213
-162.149
-416.309
-192.945
-375.687
-226.079
-384.457
-261.023
-414.65
-297.967
-451.687
-337.468
-492.599
-380.067
-546.528
-427.259
-622.817
-485.438
-702.645
-566.414
-721.804
-671.967
-659.676
-778.465
-671.472
-856.206
-993.221
-898.973
-1680.99
-913.814
-2618.84
-897.05
-3711.81
-837.577
-4908.84
-735.192
-6095.32
-610.885
-7051.99
-496.328
-7542.23
-397.99
-7460.61
-299.956
-6837.06
-254.104
-5497.82
-364.1
-3213.91
-610.663
-1336.25
-827.802
-1559.32
-990.494
-2907.1
-1230.79
-3844.71
-1592.68
-3484.53
-1989.1
-1370.43
-2359.52
1880.92
-2809.83
5669.53
-3301.63
10274.1
-3575.29
15115.6
-3258.14
18302.8
-2057.37
16664.2
7733.56
364.172
-339.151
365.748
-343.888
368.179
-352.204
371.321
-364.596
374.936
-381.152
378.882
-402.533
383.181
-429.405
387.947
-462.209
393.344
-501.69
399.648
-549.214
407.25
-606.443
415.903
-680.988
425.087
-786.54
429.597
-946.669
415.078
-1233.6
376.064
-1672.85
329.069
-2110.09
292.563
-2387.41
269.744
-2504.02
250.326
-2562.13
227.803
-2673.42
213.464
-2799.37
216.161
-2708.03
234.401
-2436.15
268.97
-2213.14
311.608
-2071.03
345.875
-1954.76
361.092
-1834.45
356.623
-1750.45
333.534
-1736.94
298.739
-1824.64
261.935
-1934.23
226.167
-1875.02
187.174
-1566.59
141.916
-1177.26
90.8342
-901.924
39.3633
-793.639
-8.20342
-746.766
-46.5014
-686.43
-77.7446
-610.894
-106.891
-537.052
-133.726
-467.378
-161.822
-388.212
-192.672
-344.837
-225.9
-351.229
-261.117
-379.434
-298.566
-414.238
-338.734
-452.43
-382.108
-503.154
-430.506
-574.419
-491.216
-641.935
-576.035
-636.985
-684.305
-551.406
-790.538
-565.239
-867.346
-916.413
-911.844
-1636.49
-930.875
-2599.81
-918.653
-3724.03
-863.374
-4964.12
-766.211
-6192.48
-651.385
-7166.81
-552.463
-7641.16
-470.772
-7542.3
-384.995
-6922.84
-349.692
-5533.12
-461.986
-3101.61
-696.118
-1102.12
-896.856
-1358.59
-1056.05
-2747.91
-1307.44
-3593.32
-1679.67
-3112.3
-2080.18
-969.93
-2453.39
2254.14
-2884.32
6100.46
-3312.78
10702.6
-3485.05
15287.9
-3059.73
17877.4
-1818.54
15423.1
6135.09
378.022
-340.064
379.312
-345.179
381.402
-354.293
384.328
-367.521
387.862
-384.686
391.786
-406.457
396.038
-433.657
400.704
-466.876
405.942
-506.927
411.995
-555.268
419.187
-613.634
427.199
-689
435.356
-794.696
439.388
-950.701
426.589
-1220.81
390.257
-1636.52
343.946
-2063.78
305.654
-2349.12
280.417
-2478.79
259.431
-2541.14
235.562
-2649.55
218.836
-2782.64
218.893
-2708.08
236.556
-2453.81
273.714
-2250.29
320.279
-2117.59
357.255
-1991.73
372.622
-1849.81
366.216
-1744.05
341.011
-1711.74
305.215
-1788.85
267.429
-1896.45
229.603
-1837.19
188.177
-1525.17
141.496
-1130.58
90.4843
-850.912
39.4915
-742.646
-7.7227
-699.551
-45.7935
-648.36
-76.9998
-579.687
-106.31
-507.741
-133.412
-440.277
-161.534
-360.09
-192.358
-314.013
-225.611
-317.976
-261.024
-344.022
-298.888
-376.373
-339.656
-411.663
-383.784
-459.026
-433.42
-524.783
-496.667
-578.688
-585.072
-548.579
-695.506
-440.973
-801.188
-459.557
-877.424
-840.177
-924.275
-1589.64
-948.026
-2576.06
-940.93
-3731.12
-890.639
-5014.41
-799.761
-6283.36
-695.923
-7270.65
-614.555
-7722.53
-552.016
-7604.84
-482.413
-6992.44
-459.69
-5555.85
-569.09
-2992.21
-780.335
-890.876
-961.495
-1177.43
-1118.69
-2590.71
-1378.41
-3333.61
-1756.98
-2733.72
-2156.53
-570.385
-2526.59
2624.2
-2932.22
6506.09
-3294.96
11065.3
-3371.42
15364.4
-2853.7
17359.7
-1594.53
14163.9
4725.63
392.041
-340.966
393.153
-346.291
394.924
-356.065
397.575
-370.172
400.949
-388.06
404.791
-410.299
408.96