/*--------------------------------*- C++ -*----------------------------------*\
| =========                 |                                                 |
| \\      /  F ield         | OpenFOAM: The Open Source CFD Toolbox           |
|  \\    /   O peration     | Version:  4.1                                   |
|   \\  /    A nd           | Web:      www.OpenFOAM.org                      |
|    \\/     M anipulation  |                                                 |
\*---------------------------------------------------------------------------*/
FoamFile
{
    version     2.0;
    format      ascii;
    class       volVectorField;
    location    "12";
    object      U;
}
// * * * * * * * * * * * * * * * * * * * * * * * * * * * * * * * * * * * * * //

dimensions      [0 1 -1 0 0 0 0];

internalField   nonuniform List<vector> 
6785
(
(1.51293e-14 -0.831553 16.1319)
(1.13901e-14 -6.75062 12.4965)
(-2.65388e-15 -4.83389 12.8988)
(4.87966e-15 -4.36468 12.6422)
(1.68504e-15 -3.75701 12.4679)
(-8.19173e-16 -3.30199 12.2358)
(2.5652e-15 -2.93001 11.9723)
(1.15065e-15 -2.65892 11.6639)
(-1.6852e-15 -2.48937 11.3053)
(2.64383e-15 -2.39019 10.9158)
(5.06804e-16 -2.33626 10.5332)
(-6.40919e-16 -2.50445 10.0731)
(2.50959e-15 -2.9258 9.3874)
(-4.01182e-17 -2.20555 8.71261)
(-4.13178e-15 0.876859 7.00399)
(2.43512e-14 -7.7737 26.1401)
(1.87612e-14 -16.5638 21.855)
(-2.35226e-15 -11.5184 22.3284)
(1.11039e-14 -11.8663 20.8605)
(1.43508e-15 -10.7988 19.8888)
(2.01349e-15 -10.0667 18.8207)
(7.8921e-15 -9.2882 17.7639)
(1.02608e-15 -8.53835 16.6907)
(2.31964e-15 -7.83198 15.6262)
(5.93206e-15 -7.20894 14.6904)
(1.84431e-15 -6.70341 14.0076)
(5.17602e-15 -6.42848 13.2435)
(7.195e-15 -6.38596 11.5588)
(-8.02535e-16 -5.7946 8.8167)
(-1.52739e-15 -3.3723 5.32494)
(2.14334e-14 -10.7283 28.1369)
(1.69026e-14 -17.4971 24.4927)
(-1.73891e-15 -11.8771 24.9417)
(3.66964e-15 -12.7073 22.7655)
(1.30594e-15 -11.0643 21.6619)
(1.29368e-15 -10.2536 20.2195)
(9.35107e-16 -9.27786 18.8836)
(1.40517e-15 -8.40971 17.5786)
(2.13193e-16 -7.58498 16.3348)
(-1.81469e-15 -6.6453 14.8748)
(-3.47978e-16 -5.1122 12.2868)
(-9.45718e-15 -2.55023 7.51082)
(-2.23438e-14 0.434964 1.70214)
(-2.38506e-14 1.64753 -1.09279)
(-1.24056e-14 0.0329801 -0.091782)
(2.55997e-14 -11.8186 27.777)
(1.21918e-14 -17.5826 24.5713)
(1.02073e-15 -11.998 24.9377)
(3.33515e-15 -13.6623 22.1824)
(-3.26268e-15 -11.5464 21.2429)
(6.55156e-15 -11.1414 19.5105)
(5.65958e-16 -10.1501 18.1424)
(-4.56445e-15 -9.43493 16.7422)
(6.51305e-15 -8.736 15.4772)
(-1.06562e-15 -7.99035 14.0838)
(-7.6318e-15 -6.6914 11.7727)
(-3.22635e-15 -4.11946 7.4192)
(-1.14253e-14 -0.238831 1.34992)
(-1.00738e-13 5.01355 -3.9547)
(-2.98019e-14 1.9485 -4.81853)
(2.15064e-14 -11.9748 26.5132)
(7.03523e-15 -17.6905 25.2785)
(-5.02954e-16 -12.4199 24.7962)
(3.70361e-16 -14.0206 21.8803)
(-9.50177e-15 -11.9311 20.9365)
(1.77511e-15 -11.5891 19.1093)
(-2.00261e-15 -10.6595 17.6547)
(-1.14471e-14 -9.92656 16.1631)
(-1.88505e-15 -9.22148 14.7584)
(-3.92327e-15 -8.52067 13.3489)
(-1.35726e-14 -7.64103 11.6282)
(-9.96671e-15 -6.12503 9.09322)
(-1.13738e-14 -3.9228 5.47959)
(-4.13938e-14 -0.892095 2.0213)
(-2.45103e-14 0.534813 -2.69155)
(2.38965e-14 -11.7245 24.7753)
(1.00351e-14 -17.3768 25.5901)
(2.37101e-15 -12.6093 24.4207)
(1.06463e-15 -13.6814 21.4589)
(-6.69365e-15 -11.7667 20.4427)
(1.46528e-15 -11.3226 18.6363)
(-1.24972e-15 -10.403 17.1403)
(-7.19229e-15 -9.5908 15.6157)
(-5.3344e-16 -8.80926 14.1259)
(-3.16076e-15 -8.03386 12.6815)
(-5.99111e-15 -7.24993 11.1941)
(-3.16773e-15 -6.2431 9.51271)
(-1.34765e-14 -4.90885 7.17703)
(-1.57927e-14 -2.65352 4.15831)
(3.27745e-14 -0.517721 -1.47745)
(3.18106e-14 -11.419 23.3639)
(1.2998e-14 -16.7962 25.293)
(1.06905e-14 -12.5803 23.9179)
(1.86698e-15 -13.2562 20.9384)
(-4.37285e-15 -11.4972 19.8755)
(9.15812e-15 -11.0127 18.1211)
(5.10027e-16 -10.1206 16.6317)
(-2.26619e-15 -9.31583 15.1514)
(7.23764e-15 -8.569 13.7294)
(2.01725e-15 -7.82907 12.3964)
(-4.57356e-16 -7.11053 11.0759)
(8.97221e-15 -6.29985 9.72279)
(-1.32406e-15 -5.38615 8.06989)
(-1.74912e-14 -3.79375 5.91261)
(3.929e-14 -1.60535 0.910157)
(2.65879e-14 -11.3222 22.7238)
(1.30555e-14 -16.1221 24.5276)
(1.00402e-14 -12.2717 23.388)
(1.77304e-15 -12.9696 20.3649)
(-3.54247e-15 -11.0861 19.4025)
(7.88413e-15 -10.7541 17.5726)
(5.98576e-16 -9.79253 16.1798)
(-1.11487e-15 -9.12848 14.7893)
(7.78479e-15 -8.4981 13.5157)
(5.61783e-15 -7.88499 12.2822)
(1.72692e-15 -7.29023 11.0811)
(6.68999e-15 -6.66411 9.97375)
(1.16256e-14 -6.03526 8.93455)
(-7.95176e-15 -4.99638 7.69184)
(6.47012e-15 -3.04525 3.85492)
(2.67368e-14 -11.6761 22.8028)
(1.15525e-14 -15.3634 23.7634)
(3.14897e-15 -11.9296 22.8906)
(3.29744e-15 -12.6469 19.9494)
(-2.19546e-15 -10.529 19.0457)
(1.63679e-15 -10.3346 17.0302)
(8.60333e-16 -9.09238 15.6228)
(2.45389e-16 -8.43778 13.907)
(-4.67275e-15 -7.7194 12.4489)
(5.78471e-15 -7.30933 11.2705)
(2.59112e-15 -7.06097 10.5537)
(-6.87133e-15 -6.96253 10.2828)
(1.22635e-14 -6.84754 10.2884)
(1.24145e-15 -6.44674 9.93156)
(-1.66754e-14 -4.65749 7.13848)
(2.10691e-14 -12.3861 23.5694)
(9.41678e-15 -15.0744 23.8689)
(-8.46544e-16 -11.9369 22.8675)
(-1.30399e-15 -12.3672 20.3365)
(-1.75124e-15 -10.299 19.2917)
(-5.43198e-15 -9.83669 17.2159)
(-7.04302e-15 -8.17782 15.3013)
(-4.81316e-15 -6.85521 12.5904)
(-1.83436e-14 -5.52927 10.3308)
(-2.6328e-14 -5.05779 9.1305)
(-2.62237e-14 -5.24198 9.16506)
(-2.69654e-14 -6.05675 10.157)
(-3.72565e-15 -7.04675 11.5424)
(1.03035e-14 -7.54886 12.0735)
(-2.10198e-14 -5.61721 9.69457)
(1.42424e-14 -12.6444 23.7589)
(1.22675e-14 -16.1348 25.8278)
(-1.42684e-14 -12.4818 23.7915)
(-1.88063e-15 -12.8082 21.5651)
(-7.8662e-16 -10.7741 20.5121)
(-1.67811e-14 -10.2083 18.4432)
(-5.08138e-15 -8.29711 16.3096)
(-1.19456e-14 -6.54029 13.1346)
(-3.89176e-14 -4.57997 10.3365)
(-4.38053e-14 -3.37073 8.38731)
(-7.53566e-14 -2.72262 7.32183)
(-1.05651e-13 -2.9645 7.32572)
(-8.51767e-14 -4.31449 8.84591)
(-5.44515e-14 -5.9214 10.7767)
(-1.7727e-14 -4.77 9.34039)
(1.25922e-14 -11.7918 21.824)
(1.75849e-14 -17.3767 27.8921)
(-1.58655e-14 -13.8836 25.3843)
(-5.34201e-15 -13.6568 22.7119)
(2.21248e-15 -11.7142 21.6284)
(-2.50767e-14 -11.2924 19.6872)
(-6.0949e-15 -9.54353 17.8533)
(-4.39761e-15 -7.96517 14.9534)
(-3.97188e-14 -5.85574 12.0731)
(-3.99029e-14 -4.1549 9.50044)
(-8.05616e-14 -2.59532 7.16132)
(-1.29258e-13 -1.24954 4.93496)
(-1.20507e-13 -0.530878 3.65902)
(-1.00129e-13 -1.37339 4.54798)
(-1.68637e-14 -2.25644 5.61027)
(2.79695e-15 -10.0805 18.0774)
(1.74142e-14 -17.6666 28.2698)
(-3.54413e-15 -15.9627 27.1252)
(-9.94464e-15 -14.9375 24.0538)
(2.23985e-15 -13.3722 22.3718)
(-1.47602e-14 -12.7925 20.5935)
(-1.63796e-14 -11.6599 18.9721)
(5.67923e-15 -10.5192 16.887)
(-1.75777e-14 -9.00457 14.5973)
(-2.66178e-14 -7.39661 12.2027)
(-3.48104e-14 -5.65296 9.70984)
(-7.96654e-14 -3.68528 6.93582)
(-9.38664e-14 -1.34624 3.77802)
(-8.88232e-14 0.913487 0.58921)
(-8.45715e-14 0.778155 -0.137432)
(-6.15778e-15 -6.71581 10.6553)
(1.3507e-14 -15.643 24.6499)
(5.234e-17 -16.3087 26.3368)
(-1.22173e-14 -14.7152 23.1249)
(-4.14566e-15 -12.8936 20.6666)
(-8.84584e-15 -12.0531 19.0699)
(-1.35233e-14 -11.3192 17.9004)
(-2.42371e-16 -10.5814 16.5623)
(-3.3757e-15 -9.70831 15.0546)
(-9.59044e-15 -8.74788 13.4597)
(-1.75374e-14 -7.68553 11.7127)
(-3.08495e-14 -6.36818 9.70707)
(-3.47854e-14 -4.77152 7.261)
(-4.90518e-14 -2.56735 4.36932)
(-5.32094e-14 -1.19402 1.59464)
(-2.05187e-14 -4.85402 9.0365)
(-4.44629e-16 -14.819 23.326)
(6.49641e-15 -18.9471 28.2339)
(-2.12292e-15 -19.5291 27.419)
(-8.11622e-15 -18.3046 24.6404)
(-7.5862e-15 -16.7422 21.7943)
(-1.05839e-14 -15.247 19.3436)
(-1.12896e-14 -13.8612 17.2752)
(-1.96744e-15 -12.4124 15.2842)
(-2.8777e-15 -10.8118 13.1571)
(-1.42986e-14 -9.35326 11.3101)
(-1.60433e-14 -8.08595 9.86011)
(-1.55703e-14 -6.71339 8.39291)
(-2.80931e-14 -4.91345 6.32478)
(-2.72891e-14 -1.79528 2.3941)
(-1.3734e-15 -0.0122684 -0.0673793)
(-6.82205e-15 0.0869489 -0.433512)
(-5.94596e-15 0.10809 -0.341363)
(-5.4136e-15 0.138871 -0.384743)
(-4.37782e-15 0.150349 -0.337974)
(-7.67459e-15 0.224392 -0.474671)
(-5.51521e-15 0.227274 -0.348115)
(-4.80092e-15 0.266462 -0.340614)
(-4.67554e-15 0.268149 -0.294174)
(8.58528e-15 0.339861 -0.374892)
(7.74101e-15 0.331209 -0.256786)
(6.18419e-15 0.354127 -0.222143)
(3.77363e-15 0.420322 -0.285139)
(1.42702e-15 0.388401 -0.195848)
(3.3418e-16 0.432914 -0.202166)
(-6.63798e-17 0.415306 -0.187711)
(-3.19987e-15 0.508762 -0.248797)
(-1.18511e-15 0.464196 -0.181964)
(-5.29019e-16 0.486667 -0.166004)
(-2.32443e-15 0.571693 -0.212885)
(-1.94897e-15 0.499265 -0.150474)
(-2.54541e-15 0.558267 -0.15538)
(-1.33486e-15 0.521273 -0.145194)
(-2.12156e-15 0.662452 -0.177248)
(-1.56087e-15 0.546204 -0.123626)
(-1.53705e-15 0.603002 -0.132439)
(-4.64768e-15 0.570497 -0.129433)
(-5.91716e-15 0.687903 -0.152224)
(-4.12866e-15 0.59358 -0.111593)
(-4.24991e-15 0.620041 -0.109998)
(-6.48826e-15 0.712862 -0.119836)
(-5.80341e-15 0.597219 -0.089663)
(-5.55947e-15 0.661701 -0.102568)
(-5.61133e-15 0.620133 -0.108312)
(-8.75093e-15 0.744158 -0.104949)
(-6.24663e-15 0.624465 -0.071036)
(-5.31016e-15 0.649446 -0.0747931)
(-7.30396e-15 0.752032 -0.0605533)
(-4.70723e-15 0.614752 -0.0369722)
(-4.65721e-15 0.682923 -0.0436873)
(-3.48938e-15 0.629544 -0.0542398)
(-4.20956e-15 0.783931 -0.0112716)
(-2.09175e-15 0.611841 0.0210204)
(-1.76103e-15 0.668809 0.0209588)
(-1.57774e-15 0.623122 0.00782706)
(-2.01828e-15 0.731281 0.0922812)
(-1.98089e-15 0.593976 0.09785)
(-2.2957e-15 0.602603 0.108576)
(-4.7543e-15 0.706464 0.183025)
(-2.73671e-15 0.579363 0.121252)
(-1.86241e-15 0.628904 0.0624552)
(-1.44162e-15 0.573037 0.0183454)
(-1.86254e-15 0.755392 -0.0434493)
(-1.36328e-15 0.64535 0.0694408)
(-1.93186e-15 0.685878 0.051844)
(9.24895e-16 0.645312 0.0207151)
(8.84141e-16 0.749233 -0.0198848)
(7.68744e-16 0.542495 -0.133941)
(-3.2631e-17 0.593138 -0.0963054)
(-9.92249e-16 0.534852 -0.829182)
(-1.22694e-15 0.196434 -1.18215)
(-9.79471e-16 0.343715 -1.41404)
(-1.26891e-15 0.379854 -1.27278)
(1.15688e-14 0.698418 -2.48139)
(-3.21685e-15 -0.276075 0.11031)
(-1.92317e-15 0.0532658 -0.046936)
(-5.02866e-15 -0.441291 1.76708)
(-4.80074e-15 -1.10264 3.19777)
(-3.61951e-15 -1.27388 3.14925)
(-4.02468e-15 -1.28714 3.3444)
(-5.11987e-15 -2.30564 5.91741)
(-3.91587e-15 -2.91042 5.52479)
(-4.00213e-15 -3.30395 5.57555)
(-4.16915e-15 -3.29707 5.73016)
(-6.2418e-15 -5.30439 9.09184)
(-4.60589e-15 -5.4477 7.52307)
(-5.88665e-15 -5.52079 8.02816)
(-9.24879e-15 -8.11491 12.0067)
(-7.77369e-15 -7.88624 9.454)
(-9.25585e-15 -8.20976 10.231)
(-1.33061e-14 -8.97588 11.9944)
(-1.21917e-14 -8.83906 11.8282)
(-1.16658e-14 -8.98767 12.1548)
(-6.55608e-15 -10.5068 14.8653)
(-9.81371e-15 -9.76464 13.2962)
(-8.77315e-15 -10.0034 13.8879)
(-8.93023e-15 -9.99963 13.9832)
(-8.80762e-15 -10.0797 14.0384)
(-8.90036e-15 -10.1525 14.0951)
(-9.11378e-15 -10.2272 14.1777)
(-8.74361e-15 -10.2948 14.3826)
(-7.91835e-15 -10.3845 14.6833)
(-6.5914e-15 -11.0674 16.3679)
(-7.88685e-15 -10.9081 15.2777)
(-7.62805e-15 -11.0162 15.5127)
(-7.44706e-15 -11.0035 15.6692)
(-7.47596e-15 -11.1414 16.0284)
(-7.19284e-15 -11.1378 16.1432)
(-7.28481e-15 -11.2227 16.3103)
(-7.4292e-15 -11.2748 16.4697)
(-7.66184e-15 -11.3483 16.6441)
(-5.32502e-15 -11.8197 18.1951)
(-6.49867e-15 -11.666 17.1419)
(-6.6703e-15 -11.7447 17.3515)
(-6.86001e-15 -11.7883 17.4298)
(-6.71832e-15 -11.8397 17.5807)
(-5.82653e-15 -11.8811 17.816)
(-4.61288e-15 -11.9693 18.0921)
(-4.51904e-15 -11.9738 18.1848)
(-3.82852e-15 -12.0382 18.3481)
(-3.10114e-15 -12.1281 18.5115)
(-1.11079e-15 -11.9977 19.4282)
(-1.84314e-15 -12.123 18.7623)
(-1.14238e-15 -12.1262 18.9687)
(-8.07135e-16 -12.163 19.0956)
(-7.48337e-16 -12.2099 19.2597)
(-1.1824e-15 -12.2167 19.4293)
(-2.5953e-15 -12.276 19.7408)
(-2.98057e-15 -12.273 19.8478)
(-2.93491e-15 -12.3791 19.877)
(-8.552e-16 -11.4234 19.4096)
(-3.07779e-15 -11.915 19.1243)
(-3.1252e-15 -11.8388 19.2692)
(-2.97697e-15 -11.8987 19.4102)
(-2.75094e-15 -11.8445 19.3491)
(-2.48948e-15 -11.8753 19.3582)
(-2.05125e-15 -11.8505 19.3593)
(-1.5924e-15 -11.7972 19.4187)
(-8.86644e-16 -11.9696 19.7091)
(1.48922e-15 -9.8429 17.5269)
(5.25372e-16 -10.9896 18.2598)
(6.05955e-16 -10.7906 18.0758)
(4.11852e-16 -10.7888 18.0269)
(2.1486e-16 -10.7543 18.1238)
(1.75534e-16 -10.6864 17.9146)
(1.6617e-16 -10.5718 17.564)
(1.86921e-16 -10.49 17.1641)
(3.71571e-16 -10.4651 16.647)
(3.54277e-15 -7.56177 12.6046)
(2.401e-15 -9.11445 14.5808)
(2.66755e-15 -8.70355 13.5509)
(2.99659e-15 -8.73534 12.9338)
(3.51459e-15 -8.54379 12.1647)
(4.24275e-15 -8.45169 11.4495)
(5.87646e-15 -8.22968 10.8066)
(5.49972e-15 -8.04838 9.965)
(5.92802e-15 -7.81956 9.16264)
(6.11325e-15 -7.54088 8.22993)
(6.05035e-15 -3.79045 1.73692)
(4.81788e-15 -5.9907 5.88276)
(5.00166e-15 -5.2352 4.17032)
(5.36838e-15 -5.37814 3.4991)
(5.58011e-15 -4.96631 2.31936)
(5.55306e-15 -4.87966 1.03152)
(4.52983e-15 -4.66364 -1.07192)
(3.34531e-15 -4.20554 -3.0603)
(4.27451e-15 -3.98397 -3.22649)
(1.1011e-14 -2.70465 -6.8524)
(7.74077e-15 -3.43291 -4.01349)
(8.79515e-15 -2.96056 -5.1275)
(1.14912e-14 -1.96672 -6.06324)
(1.49362e-14 -1.83696 -7.18405)
(8.92681e-15 -0.351794 -5.03516)
(4.1421e-15 -0.502975 -3.22718)
(6.43312e-15 1.35358 -5.03562)
(6.41888e-15 1.0757 -3.83488)
(5.47834e-15 2.05097 -4.36165)
(8.05119e-15 2.93918 -4.48258)
(4.11522e-15 2.72572 -2.91227)
(6.95188e-15 3.87757 -3.26145)
(9.66471e-15 4.86007 -3.22228)
(6.04371e-15 3.84834 -2.04621)
(8.81608e-15 6.06208 -2.45578)
(6.37203e-15 4.82008 -1.65092)
(6.61627e-15 5.77211 -1.81292)
(8.01083e-15 6.79138 -1.55896)
(5.27784e-15 5.16373 -0.955319)
(6.65141e-15 7.71193 -1.0191)
(4.82183e-15 5.86808 -0.652068)
(6.51487e-15 6.87184 -0.665031)
(7.93038e-15 7.51282 -0.290466)
(5.14269e-15 5.84793 -0.114306)
(6.58062e-15 7.3089 0.0143671)
(6.74573e-15 7.79415 0.534053)
(4.44497e-15 5.59891 0.380163)
(6.16829e-15 8.05217 0.780749)
(4.53174e-15 5.90841 0.596744)
(5.20121e-15 6.6653 0.854042)
(6.03571e-15 6.97214 1.37782)
(3.80267e-15 5.04015 0.895706)
(5.34132e-15 7.06503 1.3829)
(3.67688e-15 5.06067 0.976306)
(4.67923e-15 5.65871 1.25464)
(4.04128e-15 5.56018 1.62693)
(3.02059e-15 4.12789 1.06532)
(3.46939e-15 5.0295 1.32886)
(3.03276e-15 4.76882 1.59112)
(1.08412e-15 3.28989 0.991058)
(1.04687e-15 4.51862 1.2816)
(7.05552e-16 3.18214 0.85379)
(5.65381e-16 3.4216 0.964415)
(3.12699e-15 3.49463 0.923126)
(2.11127e-15 2.50392 0.567267)
(2.32512e-16 3.59228 0.484755)
(7.93854e-16 2.71316 0.31005)
(8.6546e-16 3.06309 0.129183)
(1.31222e-15 3.42605 -0.221049)
(2.9293e-16 2.73103 -0.203585)
(2.89101e-16 3.28502 -0.517006)
(5.0061e-16 3.35513 -1.17551)
(-4.48039e-16 2.49946 -0.859306)
(6.37837e-16 3.43713 -1.65109)
(2.40266e-15 2.5942 -1.27812)
(2.85525e-15 2.91751 -1.93611)
(-3.55175e-15 2.56233 -2.9102)
(-2.95807e-15 1.87119 -2.03222)
(-7.28478e-15 2.55815 -3.21525)
(-4.52533e-15 1.73339 -2.38887)
(-7.84576e-15 1.94204 -3.48709)
(-1.79382e-14 1.41463 -4.51126)
(-1.34727e-14 -0.21992 -2.92151)
(-1.97228e-14 1.74291 -3.26067)
(2.98645e-15 -1.68522 -0.0200239)
(5.2677e-15 -2.06746 1.13513)
(8.87347e-15 -3.52536 1.99431)
(1.16478e-14 -3.70244 2.61537)
(2.01301e-14 -5.21515 4.74675)
(2.64669e-14 -8.71549 6.41631)
(2.50436e-14 -8.63825 6.08094)
(3.6937e-14 -13.7147 9.19704)
(3.13805e-14 -11.0769 8.08379)
(5.0479e-14 -17.034 13.1671)
(5.203e-14 -21.2586 13.732)
(4.4607e-14 -18.1808 12.1872)
(6.94e-14 -25.9569 19.1646)
(6.67866e-14 -29.2953 19.0173)
(5.6326e-14 -27.5521 16.5517)
(8.10201e-14 -40.8862 23.9172)
(6.33858e-14 -32.3468 19.2186)
(1.00767e-13 -45.0773 30.8771)
(2.56607e-37 0.415435 -1.16012)
(2.52719e-37 0.396924 -1.19754)
(2.36218e-37 0.400554 -1.2351)
(2.34786e-37 0.413518 -1.26994)
(4.61359e-37 0.433229 -1.3006)
(-1.87071e-36 0.459887 -1.32688)
(7.99969e-36 0.491541 -1.34938)
(-8.50177e-37 0.526573 -1.37017)
(-1.40771e-34 0.561478 -1.39239)
(6.29056e-34 0.594692 -1.42227)
(-6.00466e-34 0.617169 -1.44829)
(-4.89343e-33 0.562771 -1.50063)
(1.92185e-32 0.59229 -1.76241)
(-3.50334e-33 1.25899 -1.92823)
(-2.19812e-31 2.42922 -1.55939)
(-4.29538e-31 3.25185 -1.18447)
(-3.34091e-31 3.51276 -1.09236)
(-6.72228e-31 3.54737 -1.10553)
(2.14659e-30 3.60834 -1.06623)
(-8.82022e-30 3.77175 -0.948103)
(1.35401e-29 3.88143 -0.842413)
(1.35041e-29 3.73195 -0.870969)
(8.7793e-30 3.31403 -0.935259)
(-5.63668e-29 2.7899 -1.06183)
(-8.74531e-29 2.35863 -1.25612)
(4.93889e-27 2.19956 -1.44892)
(-5.07355e-26 2.30538 -1.50559)
(3.19727e-25 2.47784 -1.36694)
(-1.26112e-24 2.65675 -1.0724)
(1.12432e-24 2.88206 -0.77806)
(2.18503e-23 3.06035 -0.619464)
(5.95953e-24 3.04126 -0.615608)
(-3.26022e-23 2.82737 -0.665076)
(-2.48605e-23 2.53495 -0.654421)
(-1.11773e-22 2.29737 -0.55891)
(4.32607e-22 2.15968 -0.35781)
(1.95918e-21 2.04379 -0.136259)
(-6.1421e-19 1.9056 0.127669)
(-2.56539e-18 1.69047 0.344673)
(-2.25776e-18 1.46573 0.556982)
(-1.47561e-18 1.29789 0.737674)
(-6.36327e-19 1.15965 0.9124)
(4.70888e-19 1.06907 1.09247)
(8.72258e-19 1.05195 1.25862)
(-2.45034e-18 1.1019 1.40392)
(-1.41997e-17 1.16507 1.5488)
(-3.59321e-17 1.23048 1.70605)
(-6.25734e-17 1.31474 1.8712)
(-9.19141e-17 1.43495 2.0389)
(-1.47178e-16 1.59345 2.21348)
(-2.82349e-16 1.79369 2.39732)
(-4.87501e-16 2.04103 2.59126)
(-4.43227e-16 2.32877 2.80893)
(5.40311e-16 2.63168 3.09013)
(2.71445e-15 2.93344 3.47973)
(4.71836e-15 3.27331 3.93828)
(4.43837e-15 3.74614 4.29365)
(1.08732e-15 4.41383 4.36404)
(-3.91537e-15 5.22077 4.10616)
(-9.59996e-15 6.02692 3.58936)
(-1.62165e-14 6.68956 2.87764)
(-2.38229e-14 7.08819 2.00679)
(-3.1051e-14 7.10766 1.0432)
(-3.56404e-14 6.67708 0.118396)
(-3.58324e-14 5.94583 -0.626087)
(-3.11079e-14 5.21592 -1.06439)
(-2.29478e-14 5.0433 -1.07077)
(-1.50343e-14 5.84391 -0.612771)
(-1.48923e-14 7.12034 0.230481)
(-1.51147e-14 8.43066 1.19421)
(-4.52138e-15 9.2897 2.0339)
(5.20508e-15 7.6877 3.27718)
(8.6908e-15 3.06506 5.54506)
(1.04248e-14 -0.460943 7.52268)
(1.34418e-14 -2.92823 8.50015)
(2.08724e-14 -6.63848 11.1629)
(3.57882e-14 -13.1797 16.1665)
(6.10187e-14 -23.908 24.1107)
(9.33474e-14 -37.5292 33.3016)
(2.35975e-37 0.421374 -1.28226)
(2.30257e-37 0.407956 -1.31577)
(2.11504e-37 0.411637 -1.3463)
(1.73931e-37 0.423493 -1.3761)
(6.476e-37 0.441887 -1.40308)
(-2.34751e-36 0.467265 -1.42704)
(5.23275e-36 0.498054 -1.44882)
(2.30701e-35 0.533011 -1.47062)
(-1.94661e-34 0.569266 -1.49501)
(5.075e-34 0.603064 -1.52896)
(3.06171e-34 0.630381 -1.56748)
(-6.10391e-33 0.611862 -1.64008)
(1.59327e-32 0.658345 -1.90191)
(1.63547e-32 1.23047 -2.07149)
(-1.86461e-31 2.31705 -1.72047)
(-4.53825e-31 3.18081 -1.29643)
(-3.77473e-31 3.49993 -1.15583)
(-9.31793e-31 3.54263 -1.15606)
(3.1677e-30 3.58357 -1.12565)
(-1.34824e-29 3.73646 -1.01287)
(2.39629e-29 3.86816 -0.891949)
(2.11637e-29 3.74363 -0.915215)
(-8.94635e-31 3.33864 -0.997561)
(-3.10037e-29 2.83326 -1.12754)
(-4.06525e-28 2.41207 -1.3424)
(7.66487e-27 2.23299 -1.54695)
(-6.81831e-26 2.29043 -1.60156)
(4.00115e-25 2.41191 -1.48325)
(-1.43983e-24 2.56816 -1.23523)
(6.36565e-25 2.81317 -0.946945)
(2.79609e-23 3.03421 -0.751582)
(4.5585e-24 3.04591 -0.713735)
(-5.29644e-23 2.82991 -0.758076)
(-4.88867e-23 2.51426 -0.740064)
(-1.2999e-22 2.2474 -0.622803)
(5.76774e-22 2.09055 -0.401888)
(2.62045e-22 1.96513 -0.159016)
(-4.85691e-19 1.82731 0.104347)
(-2.53594e-18 1.61923 0.330369)
(-2.30471e-18 1.39906 0.542005)
(-1.51389e-18 1.23646 0.720378)
(-7.87513e-19 1.09763 0.876597)
(2.98888e-19 1.0062 1.02836)
(1.1959e-18 0.991809 1.18166)
(-1.0108e-18 1.04417 1.34038)
(-1.18432e-17 1.10552 1.50857)
(-3.36706e-17 1.16749 1.68534)
(-6.14602e-17 1.24948 1.86207)
(-9.2418e-17 1.36741 2.03957)
(-1.48992e-16 1.52235 2.22888)
(-2.84542e-16 1.71854 2.4311)
(-4.76399e-16 1.9601 2.64454)
(-3.41221e-16 2.23472 2.88461)
(8.96487e-16 2.5118 3.20029)
(3.36158e-15 2.78547 3.6436)
(5.26327e-15 3.12794 4.15592)
(4.28906e-15 3.65849 4.5278)
(1.00542e-16 4.42132 4.56974)
(-5.46399e-15 5.32098 4.27156)
(-1.167e-14 6.19943 3.72425)
(-1.915e-14 6.91907 2.97706)
(-2.78829e-14 7.35898 2.05452)
(-3.61396e-14 7.38871 1.03437)
(-4.15132e-14 6.92505 0.0681952)
(-4.22922e-14 6.11776 -0.687613)
(-3.78136e-14 5.26737 -1.08773)
(-2.86192e-14 4.94176 -0.963547)
(-1.76059e-14 5.60134 -0.332925)
(-1.5098e-14 6.80293 0.6381)
(-1.48676e-14 8.12272 1.64781)
(-3.47074e-15 8.95799 2.41563)
(6.57064e-15 7.1833 3.65307)
(9.13397e-15 2.48489 5.5974)
(1.02897e-14 -0.870621 7.25872)
(1.42937e-14 -3.44983 8.75052)
(2.25644e-14 -7.6672 11.6858)
(3.87363e-14 -14.8804 17.1142)
(6.54019e-14 -26.1193 25.5369)
(9.45597e-14 -38.5236 32.5313)
(2.1739e-37 0.423366 -1.35938)
(2.10517e-37 0.411809 -1.39013)
(1.95916e-37 0.415197 -1.4169)
(9.71708e-38 0.426898 -1.44421)
(7.7191e-37 0.445179 -1.46931)
(-1.85548e-36 0.470493 -1.49194)
(-1.11456e-36 0.501458 -1.51306)
(4.21672e-35 0.536902 -1.53481)
(-1.77439e-34 0.574436 -1.55925)
(2.34392e-34 0.610217 -1.5933)
(9.74584e-34 0.640771 -1.6369)
(-5.87891e-33 0.636997 -1.71007)
(1.05785e-32 0.690727 -1.95145)
(2.44334e-32 1.21952 -2.13225)
(-1.55252e-31 2.25343 -1.82265)
(-4.54038e-31 3.12719 -1.38404)
(-3.95377e-31 3.4834 -1.2056)
(-1.17357e-30 3.54035 -1.18836)
(4.19866e-30 3.57454 -1.16092)
(-1.84407e-29 3.71843 -1.05574)
(3.73742e-29 3.85968 -0.929043)
(2.75178e-29 3.75514 -0.940184)
(-2.38367e-29 3.36079 -1.03771)
(2.60564e-29 2.86635 -1.16519)
(-8.99488e-28 2.45165 -1.37276)
(1.11487e-26 2.25769 -1.57791)
(-8.75726e-26 2.28999 -1.64507)
(4.77653e-25 2.39106 -1.55239)
(-1.56661e-24 2.5319 -1.3443)
(-2.40618e-25 2.77287 -1.07551)
(3.348e-23 3.00991 -0.859409)
(1.74855e-24 3.04408 -0.786201)
(-8.06381e-23 2.83354 -0.818189)
(-8.26871e-23 2.50489 -0.802874)
(-1.44046e-22 2.22147 -0.675396)
(5.81926e-22 2.05502 -0.44076)
(1.71428e-22 1.92857 -0.178948)
(-4.14163e-19 1.79372 0.0860312)
(-2.49532e-18 1.59057 0.322687)
(-2.32279e-18 1.37623 0.536922)
(-1.47802e-18 1.22021 0.722251)
(-7.13507e-19 1.08704 0.886462)
(4.48177e-19 0.997841 1.04306)
(1.28075e-18 0.981203 1.20087)
(-1.63345e-18 1.02925 1.37125)
(-1.39233e-17 1.08854 1.55232)
(-3.69545e-17 1.15167 1.73468)
(-6.51179e-17 1.23539 1.91202)
(-9.82593e-17 1.35272 2.0946)
(-1.65662e-16 1.50576 2.2938)
(-3.20934e-16 1.70047 2.50622)
(-4.87965e-16 1.93904 2.73076)
(-1.4833e-16 2.20378 2.9898)
(1.49712e-15 2.46156 3.34406)
(4.16247e-15 2.71965 3.8374)
(5.53507e-15 3.07464 4.36784)
(3.57686e-15 3.65083 4.7005)
(-1.24204e-15 4.46782 4.68494)
(-6.99684e-15 5.40846 4.35668)
(-1.34891e-14 6.31756 3.79785)
(-2.15443e-14 7.06557 3.02961)
(-3.08983e-14 7.52612 2.0758)
(-3.95875e-14 7.55628 1.0284)
(-4.53169e-14 7.06701 0.0494683)
(-4.67111e-14 6.20917 -0.698338)
(-4.30464e-14 5.28227 -1.05005)
(-3.38005e-14 4.88052 -0.804288)
(-2.06872e-14 5.49024 -0.0463259)
(-1.5328e-14 6.67259 0.97439)
(-1.40866e-14 8.01975 1.97137)
(-2.29328e-15 8.82443 2.70841)
(7.66181e-15 6.94219 4.01582)
(9.59949e-15 2.22399 5.86914)
(1.06363e-14 -1.16665 7.31786)
(1.54336e-14 -3.92972 9.10061)
(2.48818e-14 -8.59657 12.4326)
(4.27685e-14 -16.4177 18.4662)
(7.01297e-14 -27.8003 27.0496)
(9.2837e-14 -37.4217 30.9693)
(1.94109e-37 0.426991 -1.44382)
(1.86062e-37 0.417987 -1.47212)
(1.81893e-37 0.42156 -1.49534)
(2.85979e-38 0.432851 -1.52012)
(7.35996e-37 0.450555 -1.54358)
(-6.47885e-37 0.475336 -1.56549)
(-7.07679e-36 0.506099 -1.58673)
(4.85851e-35 0.541814 -1.60931)
(-1.30042e-34 0.580584 -1.63479)
(9.38258e-36 0.618253 -1.66979)
(1.31167e-33 0.65363 -1.71833)
(-5.32558e-33 0.671382 -1.79419)
(6.45619e-33 0.736793 -2.01649)
(3.16422e-32 1.20625 -2.20282)
(-1.24396e-31 2.17387 -1.93185)
(-4.53089e-31 3.06096 -1.48279)
(-4.09896e-31 3.46116 -1.26629)
(-1.47401e-30 3.5345 -1.22914)
(5.55302e-30 3.5598 -1.20275)
(-2.52476e-29 3.6933 -1.10445)
(5.78288e-29 3.84641 -0.972032)
(3.06849e-29 3.76581 -0.970217)
(-6.83654e-29 3.38382 -1.07924)
(1.24793e-28 2.89975 -1.20767)
(-1.60092e-27 2.49349 -1.40651)
(1.57505e-26 2.28657 -1.60981)
(-1.13139e-25 2.2874 -1.68963)
(5.79174e-25 2.35824 -1.62386)
(-1.71225e-24 2.48067 -1.45688)
(-1.41269e-24 2.72097 -1.2125)
(4.05165e-23 2.97756 -0.981994)
(-2.85991e-24 3.03758 -0.872944)
(-1.22257e-22 2.83408 -0.883845)
(-1.33381e-22 2.48845 -0.866774)
(-1.66247e-22 2.18023 -0.730976)
(5.52765e-22 1.99822 -0.482681)
(5.67191e-22 1.86793 -0.201685)
(-3.35505e-19 1.73536 0.0661903)
(-2.44234e-18 1.53711 0.312815)
(-2.36025e-18 1.32718 0.527488)
(-1.4714e-18 1.17482 0.713897)
(-7.10094e-19 1.04232 0.877925)
(4.76833e-19 0.952328 1.03717)
(1.27216e-18 0.934602 1.19976)
(-1.85305e-18 0.98182 1.37584)
(-1.42913e-17 1.04085 1.56064)
(-3.72006e-17 1.10402 1.74518)
(-6.58739e-17 1.18646 1.92853)
(-1.03225e-16 1.30055 2.12352)
(-1.84013e-16 1.45018 2.33637)
(-3.53498e-16 1.64208 2.56165)
(-4.64058e-16 1.87522 2.80068)
(1.24759e-16 2.12513 3.08388)
(2.14412e-15 2.35715 3.48145)
(4.839e-15 2.59757 4.02194)
(5.55702e-15 2.97246 4.56259)
(2.73351e-15 3.609 4.86108)
(-2.52927e-15 4.49765 4.80861)
(-8.44813e-15 5.4985 4.46516)
(-1.52926e-14 6.45814 3.89432)
(-2.3922e-14 7.25124 3.09976)
(-3.38211e-14 7.74294 2.11193)
(-4.28023e-14 7.77605 1.0355)
(-4.87473e-14 7.25427 0.0413598)
(-5.07068e-14 6.32733 -0.704318)
(-4.79655e-14 5.287 -1.01602)
(-3.8792e-14 4.75737 -0.653495)
(-2.40334e-14 5.27893 0.245815)
(-1.57706e-14 6.43681 1.33299)
(-1.32469e-14 7.81632 2.33221)
(-9.98989e-16 8.5885 3.07441)
(8.8393e-15 6.58817 4.45973)
(1.02021e-14 1.86208 6.22316)
(1.12124e-14 -1.50552 7.56332)
(1.68428e-14 -4.45654 9.61303)
(2.76413e-14 -9.53869 13.4439)
(4.70162e-14 -17.791 20.0097)
(7.37478e-14 -28.8421 28.2445)
(9.17497e-14 -36.3528 30.2636)
(1.69009e-37 0.429404 -1.52517)
(1.59873e-37 0.422141 -1.55106)
(1.68466e-37 0.425742 -1.57108)
(-1.3769e-38 0.436961 -1.59366)
(5.34607e-37 0.454641 -1.6159)
(8.275e-37 0.479426 -1.63753)
(-1.10188e-35 0.510406 -1.65924)
(4.45528e-35 0.546621 -1.68277)
(-6.96168e-35 0.586681 -1.70938)
(-1.74215e-34 0.626803 -1.74507)
(1.47646e-33 0.666079 -1.79708)
(-4.4676e-33 0.698096 -1.87396)
(2.31379e-33 0.775429 -2.07431)
(3.53518e-32 1.20237 -2.26096)
(-9.39125e-32 2.10558 -2.03248)
(-4.453e-31 2.99278 -1.58454)
(-4.14454e-31 3.43277 -1.33244)
(-1.8249e-30 3.52731 -1.27196)
(7.24217e-30 3.54845 -1.24385)
(-3.42314e-29 3.67113 -1.15285)
(8.8255e-29 3.83229 -1.01681)
(2.37282e-29 3.77648 -1.00014)
(-1.4828e-28 3.40818 -1.11625)
(2.9033e-28 2.93195 -1.24582)
(-2.61127e-27 2.53261 -1.43129)
(2.19817e-26 2.31484 -1.62877)
(-1.46863e-25 2.29186 -1.72236)
(7.06813e-25 2.34132 -1.6853)
(-1.86418e-24 2.44618 -1.55895)
(-2.99006e-24 2.67576 -1.34482)
(4.93357e-23 2.94139 -1.10761)
(-9.65399e-24 3.02458 -0.964592)
(-1.83102e-22 2.83214 -0.948891)
(-2.0841e-22 2.47327 -0.926223)
(-1.99794e-22 2.1425 -0.784427)
(5.08309e-22 1.9462 -0.52452)
(5.3529e-22 1.81518 -0.225245)
(-2.65158e-19 1.68689 0.0467149)
(-2.37286e-18 1.49446 0.303139)
(-2.40756e-18 1.29177 0.518834)
(-1.46045e-18 1.1457 0.708282)
(-6.98539e-19 1.01743 0.872105)
(4.83835e-19 0.928399 1.03211)
(1.28661e-18 0.908701 1.19735)
(-1.85269e-18 0.952725 1.37826)
(-1.43091e-17 1.01029 1.56906)
(-3.74305e-17 1.07342 1.76082)
(-6.73179e-17 1.15472 1.95345)
(-1.10044e-16 1.26592 2.15931)
(-2.05915e-16 1.41264 2.38259)
(-3.84723e-16 1.6018 2.61859)
(-4.13117e-16 1.82846 2.87114)
(4.58262e-16 2.06109 3.17989)
(2.81961e-15 2.26673 3.62192)
(5.41092e-15 2.49541 4.20362)
(5.38304e-15 2.89855 4.74339)
(1.76738e-15 3.59476 5.00448)
(-3.81477e-15 4.54333 4.92188)
(-9.84858e-15 5.59142 4.56975)
(-1.70427e-14 6.59395 3.98914)
(-2.61897e-14 7.42779 3.17085)
(-3.64223e-14 7.94644 2.1544)
(-4.54414e-14 7.97864 1.05616)
(-5.13925e-14 7.42249 0.0539228)
(-5.38697e-14 6.42593 -0.687761)
(-5.23213e-14 5.27053 -0.960592)
(-4.35507e-14 4.62191 -0.480002)
(-2.73634e-14 5.0824 0.562732)
(-1.62144e-14 6.23812 1.70646)
(-1.21939e-14 7.65601 2.6998)
(4.22333e-16 8.38561 3.4758)
(1.00284e-14 6.28623 4.95632)
(1.09421e-14 1.58392 6.64308)
(1.2059e-14 -1.84953 7.92945)
(1.85689e-14 -5.08846 10.3078)
(3.07716e-14 -10.6267 14.6794)
(5.1279e-14 -19.222 21.5948)
(7.65995e-14 -29.7227 29.0082)
(8.80027e-14 -35.141 28.4059)
(1.44417e-37 0.432081 -1.60536)
(1.34543e-37 0.426412 -1.62922)
(1.54943e-37 0.430246 -1.64662)
(-2.10819e-38 0.441476 -1.66747)
(2.2791e-37 0.459133 -1.689)
(2.1048e-36 0.483894 -1.71085)
(-1.22706e-35 0.515051 -1.73339)
(3.26025e-35 0.551751 -1.75807)
(-8.67654e-36 0.593016 -1.78604)
(-3.00188e-34 0.635636 -1.82256)
(1.46035e-33 0.679504 -1.87676)
(-3.41357e-33 0.725606 -1.9544)
(-1.12554e-33 0.813483 -2.13441)
(3.66288e-32 1.19959 -2.31615)
(-6.51743e-32 2.03911 -2.1274)
(-4.32747e-31 2.92117 -1.68871)
(-4.09326e-31 3.39872 -1.40504)
(-2.22657e-30 3.51696 -1.31916)
(9.3109e-30 3.53639 -1.2864)
(-4.5987e-29 3.64838 -1.20202)
(1.33038e-28 3.81597 -1.06387)
(-6.26902e-30 3.78583 -1.03198)
(-2.82314e-28 3.433 -1.14975)
(5.65145e-28 2.96265 -1.2821)
(-4.08602e-27 2.56992 -1.45301)
(3.06157e-26 2.34458 -1.64273)
(-1.9214e-25 2.29927 -1.75051)
(8.70055e-25 2.32696 -1.74215)
(-2.02862e-24 2.41438 -1.65349)
(-5.06975e-24 2.63144 -1.47203)
(6.07276e-23 2.90148 -1.23492)
(-1.88217e-23 3.00574 -1.06178)
(-2.70262e-22 2.82653 -1.01577)
(-3.17759e-22 2.45592 -0.982227)
(-2.52641e-22 2.10082 -0.835298)
(4.72168e-22 1.88778 -0.56592)
(4.19141e-23 1.75544 -0.249977)
(-2.00494e-19 1.63155 0.0274649)
(-2.28497e-18 1.44474 0.292946)
(-2.47262e-18 1.2483 0.508634)
(-1.46156e-18 1.10669 0.701158)
(-6.8446e-19 0.980393 0.865608)
(4.81338e-19 0.890331 1.02704)
(1.31878e-18 0.868168 1.19519)
(-1.75957e-18 0.910011 1.38127)
(-1.41895e-17 0.966825 1.5783)
(-3.75029e-17 1.02982 1.77664)
(-6.87323e-17 1.1096 1.97681)
(-1.18115e-16 1.2177 2.19162)
(-2.30922e-16 1.36141 2.42446)
(-4.11937e-16 1.54755 2.67086)
(-3.28478e-16 1.76625 2.93766)
(8.55448e-16 1.97847 3.27457)
(3.50828e-15 2.15622 3.76208)
(5.85465e-15 2.37749 4.37861)
(5.01977e-15 2.81641 4.90939)
(7.23533e-16 3.57655 5.13565)
(-5.04675e-15 4.58635 5.03368)
(-1.11753e-14 5.68515 4.67977)
(-1.87168e-14 6.73658 4.09038)
(-2.8317e-14 7.61581 3.24961)
(-3.86894e-14 8.16281 2.20847)
(-4.7526e-14 8.19282 1.09445)
(-5.32959e-14 7.59983 0.0899353)
(-5.61469e-14 6.52779 -0.649102)
(-5.58946e-14 5.24151 -0.888335)