/*--------------------------------*- C++ -*----------------------------------*\
| =========                 |                                                 |
| \\      /  F ield         | OpenFOAM: The Open Source CFD Toolbox           |
|  \\    /   O peration     | Version:  4.1                                   |
|   \\  /    A nd           | Web:      www.OpenFOAM.org                      |
|    \\/     M anipulation  |                                                 |
\*---------------------------------------------------------------------------*/
FoamFile
{
    version     2.0;
    format      ascii;
    class       volScalarField;
    location    "9";
    object      p;
}
// * * * * * * * * * * * * * * * * * * * * * * * * * * * * * * * * * * * * * //

dimensions      [0 2 -2 0 0 0 0];

internalField   nonuniform List<scalar> 
225
(
523.378
469.981
418.149
369.738
324.847
282.83
243.475
206.471
171.377
138.013
107.071
78.9326
49.9037
14.9849
-14.1673
56.9435
34.6825
28.9239
25.2136
19.7396
14.0321
8.87919
4.49044
1.00652
-1.45223
-2.64352
-2.14187
-0.045425
1.8261
2.08628
-45.8388
-52.4818
-46.7149
-42.568
-39.4774
-35.8821
-31.9957
-28.0584
-24.154
-20.4381
-17.0926
-14.0255
-10.9487
-8.29585
-7.0616
0.294892
-2.12314
2.46963
2.79379
2.84738
3.06258
2.97346
2.59617
2.01462
1.25545
0.29871
-0.810625
-1.72091
-1.87314
-1.56268
16.7227
14.39
15.9437
13.8457
12.4269
11.1834
9.77345
8.3916
7.13416
6.04311
5.1421
4.42956
3.95197
3.91925
4.16412
7.49486
5.47188
6.44588
5.22657
5.02353
5.0077
4.91988
4.95318
5.10875
5.35224
5.67153
6.0344
6.35407
6.61077
6.78551
4.02332
2.86788
3.95338
3.63018
4.01691
4.41101
4.71001
5.06069
5.41728
5.74208
6.03181
6.28574
6.46398
6.54501
6.56071
5.70046
5.14261
5.99688
5.76788
5.96651
6.07915
6.1032
6.14858
6.17323
6.16843
6.14475
6.11695
6.08328
6.03741
5.98892
6.00798
5.68263
6.1936
5.91792
5.96094
5.9302
5.8551
5.80791
5.75219
5.69152
5.63216
5.57895
5.53217
5.48606
5.43485
4.68941
4.48182
4.82763
4.65128
4.7239
4.73259
4.71941
4.7274
4.72465
4.71777
4.70811
4.69335
4.67112
4.63583
4.57808
3.31883
3.2026
3.50005
3.44581
3.56504
3.61147
3.63999
3.67498
3.69167
3.69862
3.69671
3.68426
3.66026
3.62201
3.55644
2.3425
2.28216
2.53611
2.53718
2.6555
2.69709
2.7265
2.75388
2.76166
2.75972
2.74841
2.72755
2.69771
2.65892
2.59426
1.5626
1.52759
1.73002
1.74411
1.84379
1.87065
1.89334
1.91063
1.91101
1.90416
1.88955
1.86726
1.83765
1.80289
1.74501
0.879558
0.867595
1.02893
1.03408
1.11142
1.12508
1.14276
1.15461
1.15383
1.14871
1.13768
1.12055
1.09554
1.06441
1.01022
0.439182
0.399965
0.455994
0.423892
0.459782
0.440758
0.43411
0.419886
0.398923
0.376247
0.349684
0.321059
0.290683
0.260777
0.217786
)
;

boundaryField
{
    inletFace
    {
        type            zeroGradient;
    }
    inlet
    {
        type            zeroGradient;
    }
    inletWalls
    {
        type            zeroGradient;
    }
    outletInlet
    {
        type            fixedValue;
        value           uniform 0;
    }
}


// ************************************************************************* //
