/*--------------------------------*- C++ -*----------------------------------*\
| =========                 |                                                 |
| \\      /  F ield         | OpenFOAM: The Open Source CFD Toolbox           |
|  \\    /   O peration     | Version:  4.1                                   |
|   \\  /    A nd           | Web:      www.OpenFOAM.org                      |
|    \\/     M anipulation  |                                                 |
\*---------------------------------------------------------------------------*/
FoamFile
{
    version     2.0;
    format      ascii;
    class       surfaceScalarField;
    location    "9";
    object      phi;
}
// * * * * * * * * * * * * * * * * * * * * * * * * * * * * * * * * * * * * * //

dimensions      [0 3 -1 0 0 0 0];

internalField   nonuniform List<scalar> 
420
(
-949.879
2249.78
-1573.95
1924.28
-2054
1779.95
-2424.23
1670.13
-2699.86
1575.82
-2888.38
1488.42
-2993.05
1404.58
-3013.86
1321
-2949.61
1235.66
-2797.23
1147.52
-2551.17
1054.13
-2193
941.735
-1687.17
794.065
-1012.67
625.703
287.231
373.336
1876.44
442.749
1854.86
437.301
1785.39
406.698
1700.74
380.58
1601.94
359.9
1509.1
345.292
1419.19
337.535
1328.76
333.483
1239.71
326.953
1154.05
309.609
1071.48
267.467
983.877
191.428
870.103
111.448
705.684
398.679
33.5753
1842.87
-97.3885
1985.83
-253.613
1941.62
-371.119
1818.24
-473.182
1704.01
-567.531
1603.45
-651.747
1503.4
-725.795
1402.8
-788.072
1301.99
-837.305
1203.28
-868.224
1102.4
-856.085
971.739
-740.332
754.351
-434.283
399.635
-35.6041
28.7744
1814.09
-100.653
2115.25
-225.561
2066.52
-304.497
1897.18
-368.158
1767.67
-416.955
1652.24
-446.23
1532.68
-457.017
1413.59
-451.855
1296.83
-430.156
1181.58
-387.227
1059.47
-311.873
896.385
-192.865
635.343
-48.408
255.179
-84.0121
169.624
1644.47
146.155
2138.72
123.731
2088.95
122.868
1898.04
126.94
1763.6
135.804
1643.38
149.102
1519.38
166.591
1396.1
186.943
1276.47
208.132
1160.4
229.132
1038.47
243.823
881.693
233.005
646.16
155.231
332.953
71.2184
223.073
1421.4
244.179
2117.62
234.744
2098.39
236.024
1896.76
240.374
1759.25
244.309
1639.45
246.551
1517.14
245.254
1397.4
241.165
1280.56
233.991
1167.57
221.384
1051.07
199.141
903.938
156.144
689.16
78.3053
410.794
149.524
203.312
1218.09
238.371
2082.57
213.618
2123.14
191.41
1918.97
177.201
1773.46
163.768
1652.88
150.033
1530.87
135.89
1411.54
121.064
1295.39
106.911
1181.72
92.8165
1065.17
75.7665
920.987
52.0219
712.905
19.0212
443.795
168.545
171.847
1046.24
221.971
2032.44
199.411
2145.7
170.389
1947.99
152.037
1791.8
137.652
1667.26
122.765
1545.76
108.566
1425.74
95.5739
1308.38
83.0971
1194.2
71.4789
1076.79
58.6322
933.836
40.3238
731.215
15.7508
468.369
184.296
146.089
900.146
210.035
1968.48
196.853
2158.88
170.03
1974.81
152.387
1809.45
139.525
1680.12
127.067
1558.22
113.87
1438.94
101.328
1320.93
89.4324
1206.1
76.9984
1089.22
63.101
947.735
44.3164
750.001
19.1728
493.515
203.469
116.748
783.404
184.835
1900.4
179.617
2164.11
154.317
2000.12
137.236
1826.54
124.028
1693.35
111.401
1570.85
98.9953
1451.36
86.1416
1333.78
73.9005
1218.34
62.1336
1100.99
49.0538
960.82
32.8824
766.178
13.2036
513.198
216.672
83.1497
700.266
143.138
1840.43
144.695
2162.55
122.784
2022.05
106.174
1843.15
94.4822
1705.04
82.5943
1582.74
71.1766
1462.77
60.3919
1344.57
49.4607
1229.27
39.4292
1111.02
29.7482
970.501
18.0893
777.839
5.24531
526.044
221.917
51.2437
649.021
97.93
1793.75
102.713
2157.76
87.3714
2037.37
73.1318
1857.38
63.1054
1715.05
54.2038
1591.64
44.8166
1472.15
36.1071
1353.27
28.1322
1237.24
20.388
1118.77
13.6511
977.235
6.71361
784.773
-0.425471
533.18
221.492
25.133
623.879
57.6919
1761.18
63.4756
2151.97
53.4096
2047.42
43.8277
1866.96
36.1114
1722.76
29.4904
1598.26
23.4511
1478.19
17.0085
1359.72
11.2715
1242.99
6.56629
1123.47
2.44941
981.368
-1.08952
788.325
-3.68947
535.791
217.802
1.39898
622.476
24.0034
1738.55
33.303
2142.68
27.6769
2053.05
20.3357
1874.31
15.0576
1728.05
9.53203
1603.79
4.59467
1483.13
0.0522826
1364.26
-4.81488
1247.85
-8.32383
1126.98
-9.64833
982.673
-9.73386
788.386
-7.16173
533.197
210.641
-11.7635
-3.16166
1.43052
-0.396277
-5.08187
-8.81922
-11.7699
-15.2092
-18.0712
-20.2079
-21.7731
-21.1087
-18.1177
-12.385
)
;

boundaryField
{
    inletFace
    {
        type            calculated;
        value           nonuniform List<scalar> 
450
(
2.73277e-13
7.39801e-13
-8.6479e-14
-5.59899e-14
6.59696e-14
-2.01131e-13
-6.67969e-14
6.77901e-14
-1.08138e-13
-3.11915e-14
4.29219e-14
-6.02753e-14
5.18211e-17
1.62328e-14
-2.17328e-15
-1.80235e-12
-1.27898e-12
2.24236e-13
-1.57788e-13
-1.45888e-13
4.9614e-14
-2.75476e-13
-1.33912e-13
-1.16642e-14
-1.75805e-13
-7.61097e-14
7.95175e-15
-6.94529e-14
-7.01931e-15
-1.88614e-16
-1.95213e-12
-2.14675e-12
7.86168e-14
-4.76609e-13
-3.24199e-13
-5.37049e-14
-2.67592e-13
-1.0692e-13
-8.04696e-14
-1.40482e-13
-6.85428e-14
-7.00401e-14
-4.58248e-14
1.71321e-14
3.84697e-15
-2.41381e-12
-2.05044e-12
-1.0343e-13
-6.78909e-13
-4.13473e-13
-1.72786e-13
-3.90333e-13
-8.44286e-14
-1.29513e-13
-1.55711e-13
-7.81828e-14
-1.06622e-13
-1.15883e-13
4.29163e-14
7.45679e-14
-2.25232e-12
-1.95903e-12
-2.66559e-13
-6.94696e-13
-2.69294e-13
-2.07449e-13
-3.70378e-13
-7.51614e-14
-8.46591e-14
-1.00447e-13
-6.51473e-14
-9.49193e-14
-1.05616e-13
-9.68179e-15
5.65816e-14
-1.96989e-12
-2.05112e-12
-4.54589e-13
-5.82394e-13
-2.62216e-13
-1.80962e-13
-3.27141e-13
-7.61993e-14
-4.11493e-15
-1.06154e-13
-3.56553e-14
-8.47804e-14
-8.25673e-14
-6.60366e-15
3.35708e-14
-1.78001e-12
-2.13388e-12
-6.77314e-13
-5.53203e-13
-3.12462e-13
-2.1119e-13
-3.2212e-13
-1.59801e-13
-4.44892e-14
-1.3919e-13
-6.33276e-14
-7.14431e-14
-9.45872e-14
-9.46306e-14
-1.55378e-13
-1.57035e-12
-2.16153e-12
-8.68839e-13
-5.74532e-13
-3.46793e-13
-2.53789e-13
-2.89319e-13
-2.10459e-13
-1.30828e-13
-9.16264e-14
-9.3303e-14
-1.2604e-13
-9.22397e-14
-4.66771e-14
-2.54165e-13
-1.32848e-12
-2.14374e-12
-1.01164e-12
-5.77724e-13
-3.59931e-13
-2.46092e-13
-2.93922e-13
-2.04696e-13
-9.77519e-14
-8.77751e-14
-9.73481e-14
-8.04915e-14
-5.59737e-14
-4.27135e-14
-6.75699e-14
-1.14248e-12
-2.0911e-12
-1.13924e-12
-5.85855e-13
-3.60733e-13
-2.36399e-13
-2.87514e-13
-2.11696e-13
-9.72879e-14
-1.20263e-13
-9.49494e-14
-1.56605e-14
-1.42387e-14
-8.43539e-14
6.26693e-14
-9.56265e-13
-2.03863e-12
-1.23415e-12
-6.16952e-13
-3.74523e-13
-2.28695e-13
-2.7066e-13
-2.19365e-13
-1.37032e-13
-1.11271e-13
-9.63831e-14
-3.27033e-14
-3.19467e-14
2.85502e-14
1.06198e-13
-8.24303e-13
-1.98019e-12
-1.25366e-12
-6.41737e-13
-3.86212e-13
-2.05315e-13
-2.91742e-13
-2.52917e-13
-7.67675e-14
-1.11643e-13
-1.10509e-13
2.22003e-14
-5.95319e-14
1.77767e-13
1.54574e-13
-7.5842e-13
-1.90625e-12
-1.26872e-12
-6.6154e-13
-3.90994e-13
-2.09554e-13
-2.62778e-13
-2.6779e-13
-9.04881e-14
-1.08748e-13
-1.10497e-13
2.35741e-14
-1.39151e-14
1.07005e-13
1.30531e-13
-6.99965e-13
-1.84884e-12
-1.28711e-12
-6.6588e-13
-3.96486e-13
-2.03189e-13
-2.53423e-13
-2.71867e-13
-1.05102e-13
-1.15636e-13
-1.19048e-13
1.95351e-14
-1.44499e-14
8.64923e-14
1.09606e-13
-6.76357e-13
-1.77709e-12
-1.27773e-12
-6.66176e-13
-3.8736e-13
-2.08024e-13
-2.55474e-13
-2.65992e-13
-1.11606e-13
-1.22698e-13
-1.10397e-13
9.02421e-15
-9.89099e-15
8.54975e-14
6.35683e-14
-2.73277e-13
-7.39801e-13
8.6479e-14
5.59899e-14
-6.59696e-14
2.01131e-13
6.67969e-14
-6.77901e-14
1.08138e-13
3.11915e-14
-4.29219e-14
6.02753e-14
-5.18211e-17
-1.62328e-14
2.17328e-15
1.80235e-12
1.27898e-12
-2.24236e-13
1.57788e-13
1.45888e-13
-4.9614e-14
2.75476e-13
1.33912e-13
1.16642e-14
1.75805e-13
7.61097e-14
-7.95175e-15
6.94529e-14
7.01931e-15
1.88614e-16
1.95213e-12
2.14675e-12
-7.86168e-14
4.76609e-13
3.24199e-13
5.37049e-14
2.67592e-13
1.0692e-13
8.04696e-14
1.40482e-13
6.85428e-14
7.00401e-14
4.58248e-14
-1.71321e-14
-3.84697e-15
2.41381e-12
2.05044e-12
1.0343e-13
6.78909e-13
4.13473e-13
1.72786e-13
3.90333e-13
8.44286e-14
1.29513e-13
1.55711e-13
7.81828e-14
1.06622e-13
1.15883e-13
-4.29163e-14
-7.45679e-14
2.25232e-12
1.95903e-12
2.66559e-13
6.94696e-13
2.69294e-13
2.07449e-13
3.70378e-13
7.51614e-14
8.46591e-14
1.00447e-13
6.51473e-14
9.49193e-14
1.05616e-13
9.68179e-15
-5.65816e-14
1.96989e-12
2.05112e-12
4.54589e-13
5.82394e-13
2.62216e-13
1.80962e-13
3.27141e-13
7.61993e-14
4.11493e-15
1.06154e-13
3.56553e-14
8.47804e-14
8.25673e-14
6.60366e-15
-3.35708e-14
1.78001e-12
2.13388e-12
6.77314e-13
5.53203e-13
3.12462e-13
2.1119e-13
3.2212e-13
1.59801e-13
4.44892e-14
1.3919e-13
6.33276e-14
7.14431e-14
9.45872e-14
9.46306e-14
1.55378e-13
1.57035e-12
2.16153e-12
8.68839e-13
5.74532e-13
3.46793e-13
2.53789e-13
2.89319e-13
2.10459e-13
1.30828e-13
9.16264e-14
9.3303e-14
1.2604e-13
9.22397e-14
4.66771e-14
2.54165e-13
1.32848e-12
2.14374e-12
1.01164e-12
5.77724e-13
3.59931e-13
2.46092e-13
2.93922e-13
2.04696e-13
9.77519e-14
8.77751e-14
9.73481e-14
8.04915e-14
5.59737e-14
4.27135e-14
6.75699e-14
1.14248e-12
2.0911e-12
1.13924e-12
5.85855e-13
3.60733e-13
2.36399e-13
2.87514e-13
2.11696e-13
9.72879e-14
1.20263e-13
9.49494e-14
1.56605e-14
1.42387e-14
8.43539e-14
-6.26693e-14
9.56265e-13
2.03863e-12
1.23415e-12
6.16952e-13
3.74523e-13
2.28695e-13
2.7066e-13
2.19365e-13
1.37032e-13
1.11271e-13
9.63831e-14
3.27033e-14
3.19467e-14
-2.85502e-14
-1.06198e-13
8.24303e-13
1.98019e-12
1.25366e-12
6.41737e-13
3.86212e-13
2.05315e-13
2.91742e-13
2.52917e-13
7.67675e-14
1.11643e-13
1.10509e-13
-2.22003e-14
5.95319e-14
-1.77767e-13
-1.54574e-13
7.5842e-13
1.90625e-12
1.26872e-12
6.6154e-13
3.90994e-13
2.09554e-13
2.62778e-13
2.6779e-13
9.04881e-14
1.08748e-13
1.10497e-13
-2.35741e-14
1.39151e-14
-1.07005e-13
-1.30531e-13
6.99965e-13
1.84884e-12
1.28711e-12
6.6588e-13
3.96486e-13
2.03189e-13
2.53423e-13
2.71867e-13
1.05102e-13
1.15636e-13
1.19048e-13
-1.95351e-14
1.44499e-14
-8.64923e-14
-1.09606e-13
6.76357e-13
1.77709e-12
1.27773e-12
6.66176e-13
3.8736e-13
2.08024e-13
2.55474e-13
2.65992e-13
1.11606e-13
1.22698e-13
1.10397e-13
-9.02421e-15
9.89099e-15
-8.54975e-14
-6.35683e-14
)
;
    }
    inlet
    {
        type            calculated;
        value           nonuniform List<scalar> 
15
(
-1299.9
-1300.2
-1299.9
-1299.9
-1300.2
-1299.9
-1299.9
-1300.2
-1299.9
-1299.9
-1300.2
-1299.9
-1299.9
-1300.2
-1299.9
)
;
    }
    inletWalls
    {
        type            calculated;
        value           uniform 0;
    }
    outletInlet
    {
        type            calculated;
        value           nonuniform List<scalar> 
15
(
198.256
527.466
785.396
982.007
1128.54
1249.98
1367.12
1486.57
1606.74
1731.8
1878.99
2054.89
2138.09
1729.96
634.24
)
;
    }
}


// ************************************************************************* //
