/*--------------------------------*- C++ -*----------------------------------*\
| =========                 |                                                 |
| \\      /  F ield         | OpenFOAM: The Open Source CFD Toolbox           |
|  \\    /   O peration     | Version:  4.1                                   |
|   \\  /    A nd           | Web:      www.OpenFOAM.org                      |
|    \\/     M anipulation  |                                                 |
\*---------------------------------------------------------------------------*/
FoamFile
{
    version     2.0;
    format      ascii;
    class       volVectorField;
    location    "9";
    object      U;
}
// * * * * * * * * * * * * * * * * * * * * * * * * * * * * * * * * * * * * * //

dimensions      [0 1 -1 0 0 0 0];

internalField   nonuniform List<vector> 
225
(
(9.13909e-15 0.852191 15.7946)
(1.26623e-14 -4.89458 12.1215)
(-3.21121e-15 -4.19551 12.1321)
(6.3277e-15 -3.60118 11.9966)
(1.14683e-15 -3.00468 11.8778)
(-1.40487e-16 -2.55319 11.6992)
(1.95869e-15 -2.20881 11.4769)
(2.7522e-16 -1.96603 11.2116)
(-6.98647e-18 -1.79855 10.916)
(9.99105e-16 -1.71238 10.5882)
(1.1889e-16 -1.83746 10.1561)
(-4.04518e-17 -2.28567 9.53762)
(-2.10816e-17 -2.51301 8.96378)
(-1.12377e-16 -1.06552 8.91357)
(1.50452e-17 1.76574 7.47091)
(1.31669e-14 -5.35016 22.493)
(8.85511e-15 -14.6049 21.394)
(-1.55234e-15 -13.2708 20.3411)
(-4.02335e-16 -11.7697 19.5066)
(1.01007e-15 -11.1561 18.5043)
(-3.43468e-16 -10.6594 17.5174)
(2.01782e-15 -10.0901 16.5714)
(9.2715e-16 -9.525 15.6236)
(8.07487e-17 -8.96544 14.6638)
(1.34789e-15 -8.36731 13.6946)
(5.26953e-16 -7.75709 12.7179)
(-5.50484e-17 -7.30335 11.7194)
(4.79412e-16 -7.01705 10.6244)
(4.85989e-17 -5.73093 9.16113)
(1.30574e-18 -2.30501 4.5832)
(1.2572e-14 -7.71565 23.9801)
(1.09053e-14 -16.7731 24.6729)
(-5.44312e-16 -13.7365 23.9372)
(1.02046e-15 -12.3062 22.6249)
(-1.16897e-15 -11.6447 21.2414)
(3.71832e-16 -10.814 20.0013)
(2.99248e-15 -9.94025 18.7738)
(7.40186e-16 -9.10011 17.5247)
(5.57141e-16 -8.28338 16.2654)
(3.53727e-15 -7.47524 15.0263)
(4.74509e-16 -6.66761 13.8176)
(4.84931e-16 -5.84165 12.4301)
(8.00559e-16 -4.8139 10.2752)
(-1.18602e-16 -3.12627 6.68443)
(-2.66349e-17 -0.83214 1.68992)
(1.67033e-14 -8.50259 22.0462)
(1.41949e-14 -16.621 24.332)
(6.93298e-16 -12.93 23.7971)
(4.70055e-15 -12.1536 21.9985)
(2.79122e-15 -11.42 20.5028)
(1.4637e-15 -10.4936 19.1722)
(2.70254e-15 -9.63387 17.8167)
(5.05498e-16 -8.82358 16.459)
(9.2445e-16 -8.05362 15.123)
(1.06319e-15 -7.32377 13.8164)
(5.33118e-16 -6.55246 12.4394)
(7.28772e-16 -5.49087 10.583)
(7.77508e-16 -3.78524 7.50866)
(-1.04482e-16 -1.49366 2.76603)
(-8.31089e-16 0.15328 -1.77299)
(1.53809e-14 -8.47615 19.748)
(1.32176e-14 -16.3601 24.312)
(1.66703e-15 -13.099 23.6602)
(4.61464e-15 -12.628 21.5365)
(1.5534e-15 -11.8565 20.0248)
(1.21634e-15 -10.9574 18.6637)
(2.44718e-15 -10.1698 17.2587)
(2.71707e-16 -9.40276 15.8711)
(4.5375e-16 -8.65258 14.5236)
(6.24875e-16 -7.9305 13.2135)
(2.23797e-16 -7.16587 11.8292)
(5.72441e-16 -6.11613 9.99624)
(6.24819e-16 -4.42401 7.15552)
(-2.91143e-16 -2.30527 3.28788)
(-7.57878e-16 -0.787196 0.317732)
(1.38614e-14 -8.02193 17.5537)
(1.42415e-14 -16.0195 24.5277)
(3.27446e-15 -13.6434 24.0461)
(4.49358e-15 -12.9943 21.7651)
(1.86442e-15 -12.1264 20.2157)
(1.40898e-15 -11.2247 18.847)
(2.26476e-15 -10.439 17.4341)
(5.86806e-16 -9.64888 16.0434)
(-4.17792e-16 -8.86035 14.6933)
(1.14655e-16 -8.09324 13.3817)
(3.22316e-16 -7.2973 12.0171)
(8.45758e-16 -6.28458 10.2818)
(5.71604e-16 -4.733 7.72089)
(4.03322e-16 -2.75613 4.37246)
(1.78587e-15 -0.949414 1.29739)
(1.2457e-14 -7.33745 15.2535)
(1.47939e-14 -15.491 24.355)
(4.77353e-15 -14.0225 24.4218)
(3.8302e-15 -13.1278 22.0675)
(2.21345e-15 -12.1448 20.4401)
(1.56976e-15 -11.2358 19.0547)
(2.23025e-15 -10.4361 17.6437)
(6.04289e-16 -9.61983 16.2576)
(4.44454e-16 -8.81015 14.9066)
(9.63705e-16 -8.02722 13.5919)
(6.03289e-16 -7.22393 12.2368)
(1.72632e-15 -6.24025 10.5488)
(6.54891e-16 -4.7875 8.10748)
(2.80296e-16 -2.91411 4.94715)
(1.35615e-15 -1.01088 1.79744)
(1.06862e-14 -6.55628 13.0331)
(1.49653e-14 -14.847 23.8164)
(5.97255e-15 -14.2638 24.669)
(3.51253e-15 -13.2372 22.3215)
(2.40101e-15 -12.1674 20.5832)
(1.64852e-15 -11.2657 19.1667)
(2.00286e-15 -10.4651 17.7586)
(1.45711e-15 -9.64312 16.3766)
(7.68069e-16 -8.83491 15.0246)
(1.3864e-15 -8.05527 13.7073)
(6.45981e-16 -7.25497 12.3576)
(6.82279e-16 -6.28687 10.6995)
(1.83569e-15 -4.89098 8.33093)
(3.23168e-16 -3.08521 5.26764)
(1.26291e-15 -1.12221 2.04396)
(9.19694e-15 -5.7784 11.1238)
(1.48409e-14 -14.1745 23.0906)
(6.87844e-15 -14.4412 24.8462)
(3.99951e-15 -13.3963 22.6148)
(2.49176e-15 -12.2527 20.7553)
(1.54254e-15 -11.3492 19.2955)
(2.03478e-15 -10.5477 17.8904)
(1.41709e-15 -9.72542 16.5109)
(4.729e-16 -8.91943 15.1561)
(6.07657e-16 -8.14024 13.8351)
(6.73929e-16 -7.33997 12.4864)
(2.76713e-16 -6.38017 10.8513)
(3.87499e-16 -5.02352 8.54671)
(2.957e-16 -3.26578 5.5583)
(4.90332e-16 -1.23753 2.24766)
(7.71041e-15 -5.08504 9.5994)
(1.44764e-14 -13.5192 22.3002)
(7.84468e-15 -14.5349 24.9522)
(3.50754e-15 -13.5531 22.9352)
(2.49731e-15 -12.3447 20.9698)
(1.58273e-15 -11.425 19.4566)
(2.39636e-15 -10.6174 18.0506)
(1.46555e-15 -9.79449 16.6721)
(6.0544e-16 -8.98831 15.3136)
(6.83878e-16 -8.20627 13.9874)
(6.57323e-16 -7.40479 12.6356)
(1.48045e-17 -6.45154 11.0133)
(-1.33377e-16 -5.12531 8.75517)
(5.83972e-16 -3.40662 5.81962)
(-1.68168e-15 -1.31913 2.43104)
(6.15929e-15 -4.53884 8.46255)
(1.39164e-14 -12.9256 21.5505)
(8.20115e-15 -14.5349 24.9757)
(4.04134e-15 -13.6654 23.2209)
(2.64334e-15 -12.4128 21.1811)
(1.36579e-15 -11.4736 19.6121)
(1.34702e-15 -10.659 18.2004)
(1.58204e-15 -9.83698 16.8209)
(1.36118e-15 -9.03207 15.4585)
(7.70292e-16 -8.24857 14.1269)
(7.50249e-16 -7.44648 12.7691)
(7.93052e-16 -6.49773 11.1498)
(-8.26395e-16 -5.1926 8.91847)
(-8.63767e-16 -3.50195 6.01067)
(-1.29364e-15 -1.36389 2.54278)
(5.70655e-15 -4.17063 7.70315)
(1.37345e-14 -12.4379 20.9279)
(8.61446e-15 -14.4733 24.9365)
(4.44267e-15 -13.7316 23.4378)
(2.6991e-15 -12.4592 21.3593)
(1.36656e-15 -11.5039 19.7405)
(2.01969e-15 -10.6832 18.3207)
(1.84683e-15 -9.86351 16.9391)
(4.96771e-16 -9.06111 15.5729)
(7.72889e-16 -8.27756 14.2364)
(7.65039e-16 -7.47483 12.8709)
(-7.25299e-16 -6.52674 11.2465)
(4.70624e-16 -5.23297 9.02645)
(-1.31367e-15 -3.55799 6.12619)
(-1.26194e-15 -1.37734 2.57277)
(5.15181e-15 -3.97359 7.28005)
(1.31699e-14 -12.0684 20.4614)
(8.80547e-15 -14.3843 24.8626)
(4.54515e-15 -13.7598 23.5828)
(2.70681e-15 -12.4875 21.497)
(1.45072e-15 -11.5229 19.8407)
(1.78949e-15 -10.6964 18.4121)
(1.95072e-15 -9.87987 17.0279)
(5.91395e-16 -9.08047 15.6584)
(7.52937e-16 -8.29716 14.317)
(8.07128e-16 -7.49309 12.9422)
(-2.11149e-16 -6.54208 11.3062)
(9.63435e-17 -5.25093 9.08437)
(-6.58269e-16 -3.57878 6.17541)
(-1.05165e-15 -1.36516 2.53878)
(4.78136e-15 -3.90391 7.1106)
(1.27865e-14 -11.8315 20.1821)
(8.88761e-15 -14.2998 24.7902)
(4.59785e-15 -13.7667 23.6686)
(2.73213e-15 -12.5018 21.5899)
(1.40661e-15 -11.532 19.9095)
(1.76945e-15 -10.7003 18.4746)
(1.86598e-15 -9.88547 17.0884)
(7.2759e-16 -9.08793 15.7173)
(8.19731e-16 -8.30409 14.373)
(8.03172e-16 -7.49786 12.9907)
(-1.35235e-16 -6.54318 11.3434)
(1.2906e-16 -5.2534 9.11722)
(-6.39682e-16 -3.58355 6.20143)
(-7.58767e-16 -1.35 2.50616)
(4.66751e-15 -4.03968 7.2872)
(1.22956e-14 -11.6272 19.9524)
(8.85237e-15 -14.1916 24.668)
(4.61186e-15 -13.7463 23.7081)
(2.67513e-15 -12.5065 21.6736)
(1.44732e-15 -11.5392 19.9772)
(1.76862e-15 -10.6995 18.5349)
(1.83334e-15 -9.88691 17.1437)
(7.81456e-16 -9.09046 15.7693)
(8.49425e-16 -8.3049 14.4182)
(7.59072e-16 -7.48986 13.0146)
(-5.65945e-17 -6.5152 11.3279)
(6.84742e-17 -5.20582 9.06097)
(-6.02068e-16 -3.50148 6.08254)
(-4.20999e-16 -1.25238 2.30705)
)
;

boundaryField
{
    inletFace
    {
        type            zeroGradient;
    }
    inlet
    {
        type            fixedValue;
        value           uniform (0 8.7 15);
    }
    inletWalls
    {
        type            noSlip;
    }
    outletInlet
    {
        type            zeroGradient;
    }
}


// ************************************************************************* //
