/*--------------------------------*- C++ -*----------------------------------*\
| =========                 |                                                 |
| \\      /  F ield         | OpenFOAM: The Open Source CFD Toolbox           |
|  \\    /   O peration     | Version:  4.1                                   |
|   \\  /    A nd           | Web:      www.OpenFOAM.org                      |
|    \\/     M anipulation  |                                                 |
\*---------------------------------------------------------------------------*/
FoamFile
{
    version     2.0;
    format      ascii;
    class       surfaceScalarField;
    location    "29";
    object      phi;
}
// * * * * * * * * * * * * * * * * * * * * * * * * * * * * * * * * * * * * * //

dimensions      [0 3 -1 0 0 0 0];

internalField   nonuniform List<scalar> 
420
(
-949.879
2249.78
-1573.95
1924.28
-2054
1779.95
-2424.23
1670.13
-2699.86
1575.82
-2888.38
1488.42
-2993.06
1404.58
-3013.86
1321
-2949.62
1235.66
-2797.25
1147.52
-2551.18
1054.13
-2193.03
941.736
-1687.23
794.067
-1012.68
625.711
287.232
373.336
1876.44
442.748
1854.86
437.299
1785.39
406.697
1700.73
380.578
1601.94
359.898
1509.1
345.288
1419.19
337.529
1328.76
333.475
1239.71
326.94
1154.05
309.592
1071.48
267.448
983.878
191.41
870.107
111.418
705.688
398.68
33.5742
1842.87
-97.3915
1985.83
-253.617
1941.62
-371.123
1818.24
-473.187
1704.01
-567.537
1603.45
-651.753
1503.4
-725.8
1402.8
-788.079
1301.99
-837.311
1203.28
-868.228
1102.4
-856.092
971.739
-740.338
754.352
-434.29
399.638
-35.6015
28.7742
1814.09
-100.657
2115.25
-225.566
2066.52
-304.501
1897.18
-368.162
1767.67
-416.959
1652.24
-446.234
1532.68
-457.021
1413.59
-451.857
1296.82
-430.159
1181.58
-387.228
1059.47
-311.879
896.384
-192.873
635.343
-48.4014
255.18
-84.0077
169.623
1644.47
146.154
2138.72
123.728
2088.95
122.866
1898.04
126.939
1763.6
135.802
1643.38
149.1
1519.38
166.591
1396.1
186.944
1276.47
208.134
1160.39
229.134
1038.47
243.822
881.692
233
646.159
155.233
332.953
71.2211
223.074
1421.4
244.175
2117.62
234.737
2098.39
236.017
1896.76
240.366
1759.25
244.301
1639.45
246.545
1517.14
245.25
1397.4
241.164
1280.56
233.993
1167.57
221.39
1051.07
199.147
903.934
156.151
689.155
78.3115
410.789
149.519
203.312
1218.09
238.362
2082.57
213.608
2123.14
191.4
1918.97
177.194
1773.45
163.764
1652.88
150.032
1530.87
135.892
1411.54
121.068
1295.39
106.92
1181.72
92.828
1065.17
75.7796
920.983
52.0318
712.899
19.0231
443.786
168.536
171.844
1046.24
221.971
2032.44
199.413
2145.7
170.399
1947.99
152.051
1791.8
137.671
1667.26
122.782
1545.76
108.585
1425.74
95.5902
1308.38
83.1133
1194.2
71.4925
1076.79
58.6401
933.834
40.324
731.211
15.7434
468.363
184.29
146.087
900.156
210.048
1968.48
196.868
2158.88
170.05
1974.8
152.405
1809.45
139.538
1680.13
127.077
1558.22
113.873
1438.94
101.33
1320.93
89.4299
1206.1
76.9934
1089.22
63.0913
947.732
44.3049
749.996
19.1672
493.506
203.463
116.754
783.403
184.839
1900.4
179.616
2164.1
154.303
2000.12
137.216
1826.54
123.998
1693.34
111.372
1570.85
98.966
1451.35
86.1164
1333.77
73.8783
1218.33
62.1171
1100.98
49.0384
960.806
32.8698
766.16
13.2031
513.176
216.649
83.1567
700.244
143.123
1840.43
144.672
2162.55
122.744
2022.05
106.134
1843.15
94.4456
1705.03
82.5626
1582.73
71.1535
1462.76
60.3746
1344.55
49.4536
1229.26
39.4303
1111.01
29.7553
970.48
18.1036
777.813
5.26349
526.015
221.892
51.2433
648.993
97.9275
1793.74
102.714
2157.76
87.3816
2037.38
73.149
1857.38
63.1355
1715.04
54.2323
1591.63
44.8457
1472.14
36.1314
1353.27
28.1554
1237.24
20.4086
1118.76
13.6758
977.228
6.74844
784.764
-0.400035
533.172
221.494
25.1345
623.854
57.7304
1761.15
63.5309
2151.96
53.4985
2047.41
43.9215
1866.96
36.2085
1722.76
29.5819
1598.26
23.5341
1478.19
17.0834
1359.72
11.3353
1242.99
6.62645
1123.48
2.49134
981.375
-1.0636
788.333
-3.68919
535.803
217.818
1.42753
622.435
24.0667
1738.51
33.3744
2142.66
27.7469
2053.04
20.397
1874.31
15.1026
1728.06
9.57714
1603.79
4.63245
1483.14
0.0895707
1364.26
-4.78055
1247.86
-8.29725
1126.98
-9.62105
982.684
-9.71666
788.401
-7.14808
533.215
210.663
-11.7279
-3.12365
1.4681
-0.390144
-5.08498
-8.83448
-11.7817
-15.2175
-18.0762
-20.2085
-21.7742
-21.1149
-18.1318
-12.3929
)
;

boundaryField
{
    inletFace
    {
        type            calculated;
        value           nonuniform List<scalar> 
450
(
-1.68232e-14
6.15345e-13
-8.93297e-14
-1.49781e-13
1.20612e-13
-1.88504e-13
-6.54655e-14
6.84082e-14
-1.06742e-13
-3.50825e-14
3.95188e-14
-6.07574e-14
1.81272e-16
1.61462e-14
-1.72153e-15
-2.12765e-12
-2.17288e-12
1.38783e-13
-3.35396e-13
-2.61506e-13
2.04543e-14
-2.93179e-13
-1.69011e-13
-4.55119e-15
-1.42212e-13
-7.23501e-14
6.96427e-15
-7.91417e-14
-1.19298e-14
-1.21236e-15
-2.28398e-12
-2.26929e-12
-1.2521e-14
-4.04465e-13
-2.45356e-13
-1.07516e-13
-2.74833e-13
-1.1423e-13
-1.04599e-13
-1.14346e-13
-4.86007e-14
-6.09115e-14
-4.25964e-14
5.61067e-15
9.39355e-16
-2.56453e-12
-2.30722e-12
-9.3132e-14
-4.92684e-13
-2.16955e-13
-2.0269e-13
-3.70477e-13
-5.44842e-14
-1.81864e-13
-1.93986e-13
-4.42814e-14
-1.04724e-13
-9.66003e-14
3.72807e-14
8.08621e-14
-2.39336e-12
-2.37605e-12
-2.26194e-13
-4.32899e-13
-2.10333e-13
-2.20923e-13
-3.19784e-13
-8.5967e-14
-1.7512e-13
-1.73045e-13
-5.53099e-14
-6.38816e-14
-7.28017e-14
3.99002e-15
6.27934e-14
-2.11596e-12
-2.37504e-12
-4.2872e-13
-3.77757e-13
-2.04898e-13
-1.89623e-13
-2.98366e-13
-1.01293e-13
-1.08594e-13
-1.53493e-13
-4.29547e-14
-4.53001e-14
-7.08688e-14
2.69579e-16
2.09759e-14
-1.89787e-12
-2.44209e-12
-6.9406e-13
-3.62327e-13
-2.2056e-13
-2.16166e-13
-3.10202e-13
-1.349e-13
-1.42103e-13
-1.75851e-13
-7.51373e-14
-1.32432e-13
-1.11959e-13
-9.81127e-14
-1.93804e-13
-1.66349e-12
-2.45442e-12
-9.32544e-13
-3.71433e-13
-2.2477e-13
-2.3649e-13
-2.96453e-13
-1.91997e-13
-1.97246e-13
-1.6702e-13
-1.1341e-13
-1.71041e-13
-1.18509e-13
-6.5673e-14
-2.72711e-13
-1.40279e-12
-2.42629e-12
-1.12157e-12
-4.18404e-13
-2.33935e-13
-2.32394e-13
-3.19824e-13
-2.1447e-13
-1.74977e-13
-1.76773e-13
-1.21544e-13
-1.29121e-13
-1.03453e-13
-6.16192e-14
-9.02635e-14
-1.20065e-12
-2.3582e-12
-1.26728e-12
-4.81054e-13
-2.34124e-13
-1.9938e-13
-2.98468e-13
-2.17942e-13
-1.54179e-13
-1.77948e-13
-1.17972e-13
-7.79693e-14
-7.94284e-14
-6.38649e-14
6.47769e-14
-9.77556e-13
-2.2752e-12
-1.3763e-12
-5.16196e-13
-2.5036e-13
-1.55231e-13
-2.37804e-13
-2.18038e-13
-1.47131e-13
-1.1579e-13
-1.11609e-13
-2.0817e-14
-2.0381e-14
-4.40729e-14
8.16917e-14
-8.55877e-13
-2.21811e-12
-1.42103e-12
-5.68093e-13
-2.78395e-13
-1.39413e-13
-2.47743e-13
-2.25418e-13
-1.03763e-13
-1.09204e-13
-1.16976e-13
3.31295e-14
-1.02542e-14
8.2981e-14
8.98925e-14
-8.03052e-13
-2.16274e-12
-1.45989e-12
-6.09096e-13
-2.8261e-13
-1.50007e-13
-2.44856e-13
-2.40934e-13
-1.01205e-13
-1.1395e-13
-1.13185e-13
2.85117e-14
-8.74674e-15
9.98243e-14
1.18733e-13
-7.46324e-13
-2.10258e-12
-1.48637e-12
-6.31092e-13
-2.87627e-13
-1.4995e-13
-2.30771e-13
-2.55266e-13
-9.85876e-14
-1.13634e-13
-1.16419e-13
3.60213e-14
1.10269e-15
8.74988e-14
1.08688e-13
-7.3813e-13
-2.02322e-12
-1.47883e-12
-6.51701e-13
-2.95915e-13
-1.53941e-13
-2.28644e-13
-2.42817e-13
-1.05051e-13
-1.16018e-13
-1.01188e-13
2.98441e-14
9.24092e-15
8.79406e-14
6.23518e-14
1.68232e-14
-6.15345e-13
8.93297e-14
1.49781e-13
-1.20612e-13
1.88504e-13
6.54655e-14
-6.84082e-14
1.06742e-13
3.50825e-14
-3.95188e-14
6.07574e-14
-1.81272e-16
-1.61462e-14
1.72153e-15
2.12765e-12
2.17288e-12
-1.38783e-13
3.35396e-13
2.61506e-13
-2.04543e-14
2.93179e-13
1.69011e-13
4.55119e-15
1.42212e-13
7.23501e-14
-6.96427e-15
7.91417e-14
1.19298e-14
1.21236e-15
2.28398e-12
2.26929e-12
1.2521e-14
4.04465e-13
2.45356e-13
1.07516e-13
2.74833e-13
1.1423e-13
1.04599e-13
1.14346e-13
4.86007e-14
6.09115e-14
4.25964e-14
-5.61067e-15
-9.39355e-16
2.56453e-12
2.30722e-12
9.3132e-14
4.92684e-13
2.16955e-13
2.0269e-13
3.70477e-13
5.44842e-14
1.81864e-13
1.93986e-13
4.42814e-14
1.04724e-13
9.66003e-14
-3.72807e-14
-8.08621e-14
2.39336e-12
2.37605e-12
2.26194e-13
4.32899e-13
2.10333e-13
2.20923e-13
3.19784e-13
8.5967e-14
1.7512e-13
1.73045e-13
5.53099e-14
6.38816e-14
7.28017e-14
-3.99002e-15
-6.27934e-14
2.11596e-12
2.37504e-12
4.2872e-13
3.77757e-13
2.04898e-13
1.89623e-13
2.98366e-13
1.01293e-13
1.08594e-13
1.53493e-13
4.29547e-14
4.53001e-14
7.08688e-14
-2.69579e-16
-2.09759e-14
1.89787e-12
2.44209e-12
6.9406e-13
3.62327e-13
2.2056e-13
2.16166e-13
3.10202e-13
1.349e-13
1.42103e-13
1.75851e-13
7.51373e-14
1.32432e-13
1.11959e-13
9.81127e-14
1.93804e-13
1.66349e-12
2.45442e-12
9.32544e-13
3.71433e-13
2.2477e-13
2.3649e-13
2.96453e-13
1.91997e-13
1.97246e-13
1.6702e-13
1.1341e-13
1.71041e-13
1.18509e-13
6.5673e-14
2.72711e-13
1.40279e-12
2.42629e-12
1.12157e-12
4.18404e-13
2.33935e-13
2.32394e-13
3.19824e-13
2.1447e-13
1.74977e-13
1.76773e-13
1.21544e-13
1.29121e-13
1.03453e-13
6.16192e-14
9.02635e-14
1.20065e-12
2.3582e-12
1.26728e-12
4.81054e-13
2.34124e-13
1.9938e-13
2.98468e-13
2.17942e-13
1.54179e-13
1.77948e-13
1.17972e-13
7.79693e-14
7.94284e-14
6.38649e-14
-6.47769e-14
9.77556e-13
2.2752e-12
1.3763e-12
5.16196e-13
2.5036e-13
1.55231e-13
2.37804e-13
2.18038e-13
1.47131e-13
1.1579e-13
1.11609e-13
2.0817e-14
2.0381e-14
4.40729e-14
-8.16917e-14
8.55877e-13
2.21811e-12
1.42103e-12
5.68093e-13
2.78395e-13
1.39413e-13
2.47743e-13
2.25418e-13
1.03763e-13
1.09204e-13
1.16976e-13
-3.31295e-14
1.02542e-14
-8.2981e-14
-8.98925e-14
8.03052e-13
2.16274e-12
1.45989e-12
6.09096e-13
2.8261e-13
1.50007e-13
2.44856e-13
2.40934e-13
1.01205e-13
1.1395e-13
1.13185e-13
-2.85117e-14
8.74674e-15
-9.98243e-14
-1.18733e-13
7.46324e-13
2.10258e-12
1.48637e-12
6.31092e-13
2.87627e-13
1.4995e-13
2.30771e-13
2.55266e-13
9.85876e-14
1.13634e-13
1.16419e-13
-3.60213e-14
-1.10269e-15
-8.74988e-14
-1.08688e-13
7.3813e-13
2.02322e-12
1.47883e-12
6.51701e-13
2.95915e-13
1.53941e-13
2.28644e-13
2.42817e-13
1.05051e-13
1.16018e-13
1.01188e-13
-2.98441e-14
-9.24092e-15
-8.79406e-14
-6.23518e-14
)
;
    }
    inlet
    {
        type            calculated;
        value           nonuniform List<scalar> 
15
(
-1299.9
-1300.2
-1299.9
-1299.9
-1300.2
-1299.9
-1299.9
-1300.2
-1299.9
-1299.9
-1300.2
-1299.9
-1299.9
-1300.2
-1299.9
)
;
    }
    inletWalls
    {
        type            calculated;
        value           uniform 0;
    }
    outletInlet
    {
        type            calculated;
        value           nonuniform List<scalar> 
15
(
198.264
527.47
785.402
982.011
1128.54
1249.99
1367.12
1486.57
1606.74
1731.8
1879
2054.9
2138.07
1729.9
634.166
)
;
    }
}


// ************************************************************************* //
