/*--------------------------------*- C++ -*----------------------------------*\
| =========                 |                                                 |
| \\      /  F ield         | OpenFOAM: The Open Source CFD Toolbox           |
|  \\    /   O peration     | Version:  4.1                                   |
|   \\  /    A nd           | Web:      www.OpenFOAM.org                      |
|    \\/     M anipulation  |                                                 |
\*---------------------------------------------------------------------------*/
FoamFile
{
    version     2.0;
    format      ascii;
    class       volScalarField;
    location    "7";
    object      p;
}
// * * * * * * * * * * * * * * * * * * * * * * * * * * * * * * * * * * * * * //

dimensions      [0 2 -2 0 0 0 0];

internalField   nonuniform List<scalar> 
6785
(
586.961
532.764
480.898
432.189
387.023
344.714
305.075
267.815
232.496
198.855
167.508
139.081
110.226
75.2831
44.7882
113.817
91.9435
87.2564
83.733
78.3689
72.8524
67.8979
63.6978
60.4072
58.1389
57.1011
57.7243
60.0124
62.161
62.1126
15.6982
10.0581
16.0013
19.724
22.4917
25.8088
29.4086
33.0557
36.6845
40.148
43.232
46.0242
48.8883
51.2116
51.7964
60.2209
60.1315
64.5181
64.6241
64.4585
64.5076
64.2832
63.797
63.1273
62.2999
61.2853
60.1067
59.0756
58.724
58.9577
73.5006
74.4002
76.1271
74.3861
73.0979
72.0383
70.769
69.5044
68.3635
67.3868
66.5884
65.9415
65.4413
65.3483
65.4714
62.9874
63.7613
64.8864
64.4429
64.5657
64.7957
64.908
65.1072
65.4021
65.746
66.1214
66.4983
66.7555
67.0053
66.9319
59.0199
59.8216
61.2973
62.1836
62.9964
63.5926
64.0519
64.5173
64.9466
65.3053
65.5944
65.8136
65.8311
65.8601
65.4198
61.219
61.755
63.1835
64.3279
64.8511
65.0901
65.2541
65.4032
65.498
65.5437
65.556
65.5452
65.3272
65.2621
64.7151
63.4419
63.5373
64.5573
65.5117
65.6163
65.5786
65.5519
65.522
65.4653
65.3992
65.3274
65.2635
64.9419
64.8696
64.3077
63.8494
63.7009
64.3746
65.2126
65.1407
65.0505
64.9847
64.9044
64.8114
64.7234
64.6288
64.5606
64.1794
64.1092
63.5378
62.98
62.8194
63.3126
64.1411
64.0519
63.9935
63.9346
63.849
63.7594
63.6798
63.5838
63.5319
63.126
63.0695
62.4787
61.2844
61.2254
61.6361
62.4611
62.4026
62.4134
62.41
62.3863
62.3645
62.3495
62.3035
62.3022
61.9064
61.8919
61.311
59.6336
59.6101
59.9761
60.8274
60.8225
60.9028
60.9666
61.0146
61.0635
61.1259
61.1397
61.2175
60.8529
60.9014
60.4061
56.0259
56.4798
57.2878
58.3541
58.5791
59.013
59.4522
59.9195
60.3901
60.819
61.1809
61.494
61.3962
61.6552
61.0448
63.9599
62.4313
60.8675
59.7607
57.8858
56.7821
56.2713
56.2759
56.5767
57.192
57.8839
58.7078
59.3689
60.5913
61.407
96.0935
96.1533
96.1292
96.0798
96.1209
96.1234
96.0576
95.9842
96.0503
96.1373
96.0492
95.8747
96.0551
95.9827
95.7859
95.8482
96.1378
95.9951
95.6486
95.9361
95.8964
95.6088
95.6417
96.0831
95.9194
95.5534
95.6454
96.182
96.0516
95.5224
95.911
96.0144
95.6808
95.6898
96.2128
96.197
95.6823
96.0749
96.2382
95.9202
95.917
96.4286
96.4431
96.0887
96.1364
96.6313
96.6786
96.2561
96.5356
96.742
96.5419
96.5663
96.9119
97.0421
96.8728
96.938
97.2061
97.3804
97.2503
97.4341
97.6329
97.605
97.6696
97.7809
97.9547
97.9722
98.0446
98.2069
98.2004
98.25
98.1832
98.0362
97.9933
98.1327
97.6238
96.624
96.9703
95.3083
91.3121
92.2873
93.5722
93.441
92.491
95.7904
90.7971
92.0317
92.2854
92.4826
92.7599
93.1595
93.082
92.1738
94.8977
86.5113
86.8398
88.3105
89.3718
89.4486
89.8926
89.6302
88.2468
88.4064
82.0889
82.0955
81.9362
82.1927
82.7869
83.014
83.0353
82.5005
80.6376
78.1998
73.5882
73.2344
72.5453
71.7777
71.9477
72.5132
71.6515
68.8706
61.4005
62.0322
62.5436
61.958
60.2522
58.6804
57.7157
57.1698
55.3021
48.657
48.4096
46.4775
45.5773
44.2511
42.162
39.7994
37.0346
34.5729
28.9969
32.7652
29.6591
27.1421
24.327
21.5421
19.0731
16.722
14.5102
13.5341
5.51737
12.582
9.77896
8.62901
7.39045
5.10464
2.01282
1.70289
3.61144
-7.15014
6.00705
4.65001
3.14776
4.61414
3.6127
3.6642
3.59867
3.90231
4.16328
3.18232
3.708
3.97114
2.92059
2.7375
2.52969
2.94891
3.30267
2.19761
2.06451
1.82876
2.15798
2.31551
1.24314
1.94837
2.23076
1.0045
0.949147
0.821628
1.47713
1.92025
0.713367
0.803182
0.740587
1.33309
1.6488
0.631064
1.52209
1.84698
0.70632
0.873062
0.874137
1.46528
1.76339
0.695482
0.892694
0.890923
1.33833
1.50937
0.730981
1.29268
1.34442
0.618633
0.832232
0.834818
1.07383
1.1529
0.794613
1.07333
1.09406
1.28512
1.40067
1.53031
1.93924
1.95585
2.31156
2.64102
2.66973
2.84076
2.96282
3.68154
3.74151
3.51902
3.64228
3.62076
4.15715
3.21503
1.96084
3.10367
1.87116
0.334375
-0.264202
-0.578119
0.0112954
0.0128183
0.0127864
0.0152305
0.0179804
0.0193176
0.0203767
0.0222398
0.0253032
0.0270143
0.0269675
0.027083
0.0279318
0.0277842
0.026718
0.0260293
0.0259072
0.0258674
0.025431
0.0244662
0.0228162
0.0186599
0.0104144
-0.00121455
-0.0140255
-0.025947
-0.0373723
-0.0498997
-0.0625491
-0.0751573
-0.0902748
-0.110447
-0.13511
-0.160241
-0.188836
-0.23761
-0.292179
-0.320796
-0.320701
-0.307578
-0.318167
-0.353538
-0.404134
-0.460099
-0.432849
-0.19356
0.420344
1.59359
3.4631
5.81545
7.59421
7.30614
4.80651
1.57223
-1.85089
-5.28384
-7.16272
-3.47514
0.0991667
-0.228582
0.100365
0.260887
0.393906
0.612593
2.32118
0.223084
0.0814585
-0.0102547
0.468803
0.515535
0.467136
0.325931
0.228294
0.117803
0.0391906
-0.0346797
0.0199471
0.15632
0.523844
0.0130548
0.00869817
0.0124935
0.0191591
0.0272485
0.0311983
0.0350676
0.040266
0.0470644
0.0491689
0.0492361
0.0523783
0.0562783
0.0554691
0.0543477
0.0576866
0.0608689
0.0642913
0.0679471
0.0709382
0.0732034
0.0699567
0.0608592
0.0481482
0.036218
0.0263147
0.0133643
-0.00657501
-0.0276468
-0.0508596
-0.0790332
-0.110736
-0.13903
-0.159893
-0.189942
-0.254896
-0.301021
-0.338402
-0.383325
-0.462752
-0.604994
-0.778032
-1.01857
-1.27095
-1.4533
-1.40519
-0.813299
0.753024
3.77962
8.14592
12.1857
13.1104
9.93904
4.92573
0.150263
-3.72948
-5.96737
-3.26884
0.373475
-0.105731
0.280493
0.35986
0.655277
1.12611
3.51719
0.427037
0.157131
0.206005
0.813086
0.896117
0.750769
0.561565
0.510835
0.467863
0.299059
0.112069
0.166721
0.485094
1.17186
0.0133287
-0.0017599
0.00618151
0.0166921
0.029413
0.0364491
0.0415828
0.0470936
0.0529464
0.0539542
0.0548672
0.0621826
0.067173
0.0631848
0.062483
0.0709339
0.0759037
0.0816396
0.0878031
0.0918434
0.0946003
0.0907551
0.0822717
0.0711356
0.0640397
0.0611703
0.0538217
0.0355852
0.013543
-0.0100483
-0.03607
-0.060844
-0.0761825
-0.0853115
-0.108937
-0.167142
-0.226973
-0.236153
-0.299021
-0.382642
-0.554647
-0.678438
-0.864635
-1.05494
-1.14505
-0.937475
-0.0286973
2.01298
5.68432
10.7377
15.1196
15.8238
12.1765
6.87948
2.35492
-0.740976
-2.50908
-1.46982
0.934475
-0.0032578
0.390911
0.39534
0.869128
1.59541
4.03156
0.506548
0.0784433
0.297089
0.95089
1.21353
1.13459
0.863081
0.791146
0.681702
0.428316
0.23827
0.357468
0.874828
1.73065
0.0143193
-0.0148983
-0.001991
0.0123669
0.0316106
0.0437224
0.0497475
0.0538747
0.0559322
0.0555661
0.0581262
0.0690758
0.0750721
0.0682114
0.0681564
0.0818832
0.0909343
0.0982723
0.107132
0.110199
0.109254
0.100578
0.0878738
0.0733389
0.06659
0.0665162
0.0661088
0.0555815
0.0397336
0.0214585
0.00570645
-0.0011089
0.00638705
0.0161527
0.00846324
-0.0250893
-0.0704254
-0.0619754
-0.0712511
-0.130522
-0.292855
-0.357022
-0.366509
-0.320526
-0.113377
0.481043
1.84974
4.44419
8.49245
13.4242
16.9983
16.7187
12.7292
7.94991
4.41563
2.35558
1.15319
1.11911
2.20859
0.639454
0.799112
0.621736
1.181
2.08755
4.53388
0.82477
0.148875
0.457853
1.11281
1.58409
1.59085
1.24241
1.13101
0.889227
0.576376
0.395416
0.542999
1.16878
2.13347
0.0168301
-0.0294535
-0.0116908
0.00589516
0.0333554
0.0529481
0.0602728
0.0616362
0.059587
0.0583404
0.0627795
0.0754742
0.0822741
0.0734095
0.0733197
0.0905464
0.10518
0.115985
0.130451
0.13817
0.138478
0.129696
0.117431
0.101419
0.0925554
0.0905097
0.0907156
0.0844188
0.0730669
0.0590875
0.0505885
0.0576704
0.0800043
0.097094
0.0924095
0.0774324
0.0619625
0.0853392
0.149551
0.173813
0.0998598
0.107332
0.250454
0.534569
1.03706
1.98096
3.67089
6.54108
10.5264
14.77
17.2216
16.1942
12.4563
8.69687
6.29752
5.12492
4.22888
3.57039
3.72164
1.57498
1.29926
0.930789
1.50973
2.49113
4.89277
1.25463
0.320188
0.630516
1.25787
1.78654
1.86403
1.50222
1.36126
1.05162
0.704395
0.527432
0.700587
1.36496
2.41639
0.021518
-0.0425912
-0.0205708
-0.000932667
0.0351697
0.0641737
0.0747133
0.0732744
0.0681075
0.0670633
0.0734832
0.0872217
0.0947275
0.0840979
0.0816114
0.0978479
0.114622
0.126583
0.145209
0.16042
0.167972
0.166225
0.163471
0.156313
0.152084
0.151992
0.152244
0.147871
0.138018
0.124645
0.117379
0.127942
0.151002
0.159805
0.143883
0.132887
0.143569
0.192579
0.336124
0.48976
0.548779
0.677619
0.936229
1.39724
2.11602
3.29884
5.16943
8.0224
11.6514
15.0932
16.7183
15.5402
12.5714
9.92906
8.36488
7.69368
6.64812
5.63263
5.18635
2.53926
1.78144
1.26597
1.82629
2.7817
5.02143
1.60943
0.464592
0.761745
1.33471
1.79406
1.9182
1.61435
1.48012
1.1857
0.827096
0.647896
0.842044
1.48988
2.55368
0.0264547
-0.054178
-0.0286914
-0.00813067
0.0355249
0.0740805
0.0901998
0.0881957
0.0816627
0.0818924
0.0909755
0.106777
0.11591
0.105008
0.09837
0.109551
0.123447
0.131349
0.148211
0.166555
0.181406
0.188438
0.197774
0.206181
0.21544
0.225734
0.233186
0.235157
0.230629
0.220361
0.215078
0.226725
0.246662
0.244778
0.219309
0.209887
0.242019
0.327238
0.539828
0.81953
1.02941
1.29391
1.66658
2.26968
3.16102
4.51522
6.5172
9.26106
12.5272
15.4108
16.6988
15.8499
13.8165
12.0367
10.8132
10.1233
8.60273
7.37457
6.51231
3.45765
2.2869
1.65391
2.14178
2.99469
4.99182
1.84543
0.554657
0.836751
1.34392
1.73002
1.872
1.65243
1.56971
1.32906
0.969492
0.781757
0.967893
1.55177
2.56066
0.029695
-0.0649478
-0.0370423
-0.0161183
0.0331389
0.0796327
0.102766
0.103866
0.098947
0.10161
0.113946
0.132891
0.145165
0.136903
0.126901
0.131605
0.139904
0.140601
0.150133
0.164746
0.181808
0.194062
0.211291
0.232258
0.256592
0.28175
0.302819
0.317468
0.325482
0.326613
0.330813
0.349843
0.373332
0.371254
0.347623
0.345709
0.397379
0.517928
0.78176
1.16416
1.51979
1.92266
2.43642
3.18496
4.25615
5.77927
7.91621
10.6177
13.6693
16.3023
17.6062
17.2674
16.0154
14.6915
13.3817
12.2532
10.2105
8.88474
7.66539
4.31622
2.84215
2.07529
2.41811
3.16286
4.90454
2.00142
0.595557
0.821173
1.29657
1.68027
1.83113
1.68383
1.67051
1.48425
1.12764
0.922567
1.0685
1.56835
2.48297
0.0307419
-0.0746922
-0.0455878
-0.024327
0.0283295
0.0801267
0.110217
0.117566
0.117619
0.123948
0.139695
0.162212
0.178915
0.175959
0.165702
0.165608
0.168922
0.162881
0.16363
0.170161
0.183166
0.195639
0.214931
0.24128
0.275123
0.312451
0.347552
0.37739
0.402368
0.421978
0.443597
0.47748
0.513984
0.526809
0.51753
0.528093
0.596901
0.75076
1.05587
1.51938
2.01679
2.57073
3.25639
4.17625
5.4513
7.17227
9.45652
12.2043
15.1663
17.7227
19.1551
19.2423
18.461
17.2339
15.6011
13.9008
11.5119
10.2081
8.6461
5.11195
3.4358
2.51152
2.65355
3.27408
4.8036
2.11618
0.593351
0.742539
1.22851
1.65179
1.82663
1.73613
1.78407
1.6356
1.28166
1.04495
1.13249
1.55373
2.31291
0.0297323
-0.083014
-0.0538827
-0.0319919
0.0219774
0.0762318
0.112032
0.127153
0.134398
0.145355
0.164419
0.190714
0.212542
0.216011
0.208635
0.207398
0.208527
0.198664
0.193285
0.191583
0.197001
0.20565
0.222721
0.249016
0.285716
0.328958
0.373471
0.416076
0.457541
0.497379
0.539683
0.591895
0.648785
0.689545
0.708635
0.7412
0.831845
1.02227
1.36972
1.89641
2.52752
3.25041
4.13332
5.25688
6.74716
8.67679
11.1043
13.9157
16.811
19.3002
20.7918
21.0953
20.4875
19.1581
17.1814
15.0333
12.5696
11.3287
9.48055
5.85955
4.06843
2.96036
2.8895
3.35743
4.69046
2.21966
0.579612
0.669613
1.18525
1.62834
1.85
1.80744
1.90174
1.76514
1.41037
1.13038
1.15362
1.50137
2.08435
0.0270385
-0.089744
-0.0615607
-0.0386738
0.015059
0.069366
0.109066
0.131934
0.147033
0.162992
0.185105
0.215179
0.242214
0.251781
0.24879
0.249892
0.252043
0.242184
0.234888
0.228225
0.226553
0.229615
0.242439
0.26589
0.301587
0.345598
0.393574
0.443904
0.498198
0.555813
0.617267
0.687463
0.768713
0.845326
0.906306
0.974155
1.09766
1.32989
1.72938
2.32115
3.0707
3.96788
5.06026
6.4087
8.10661
10.2184
12.7497
15.5599
18.3273
20.659
22.0692
22.3909
21.7724
20.2933
18.1101
15.7441
13.4254
12.2298
10.1979
6.57452
4.71416
3.42143
3.16456
3.46622
4.57955
2.31094
0.599906
0.649431
1.18376
1.61053
1.88192
1.88648
2.01204
1.86145
1.50391
1.1817
1.13799
1.41286
1.81957
0.023375
-0.0946849
-0.0680568
-0.0439009
0.00878364
0.0614688
0.10326
0.132768
0.155292
0.175932
0.200611
0.233985
0.26592
0.280484
0.281684
0.28659
0.292106
0.285446
0.280242
0.273067
0.267883
0.266624
0.275214
0.295284
0.328757
0.37123
0.418507
0.471603
0.534422
0.60633
0.684106
0.771693
0.87855
0.995374
1.10703
1.22017
1.38941
1.6785
2.14017
2.8087
3.66756
4.72902
6.02211
7.59617
9.48105
11.7235
14.2882
16.9939
19.5392
21.6011
22.8071
23.0313
22.3436
20.7527
18.5579
16.1907
14.1188
12.9345
10.8217
7.28106
5.33878
3.89679
3.4721
3.60658
4.49603
2.37489
0.649067
0.66492
1.20183
1.619
1.90654
1.96763
2.10928
1.9263
1.56772
1.2076
1.09702
1.29759
1.54082
0.0197491
-0.0973763
-0.0724671
-0.0470549
0.00430198
0.0547575
0.0972589
0.13163
0.16028
0.184919
0.211682
0.247628
0.283653
0.301898
0.306076
0.314334
0.323856
0.321991
0.321712
0.317858
0.314083
0.312179
0.318626
0.336622
0.368407
0.409266
0.454353
0.506858
0.574524
0.658
0.751048
0.857462
0.989778
1.15077
1.32037
1.49076
1.71766
2.07429
2.60677
3.36148
4.33301
5.54273
7.01217
8.79182
10.8393
13.1588
15.6794
18.1876
20.4302
22.137
23.0754
23.1732
22.4383
20.8068
18.7319
16.5272
14.6838
13.4832
11.3637
7.99216
5.9277
4.37436
3.77814
3.74114
4.43028
2.3963
0.69581
0.63798
1.20339
1.66519
1.91512
2.04673
2.18694
1.96731
1.61386
1.20853
1.03754
1.15763
1.27452
0.0168968
-0.0975217
-0.0740883
-0.0476699
0.00238845
0.0509018
0.0934381
0.13092
0.163949
0.191791
0.220294
0.258259
0.297243
0.317758
0.323321
0.333542
0.345994
0.348894
0.354691
0.356934
0.358883
0.361083
0.369173
0.387833
0.420003
0.460558
0.503801
0.554185
0.62387
0.717242
0.827537
0.955943
1.11473
1.32117
1.55328
1.79265
2.08904
2.52408
3.14167
3.98284
5.07321
6.42223
8.04362
9.9965
12.1854
14.5426
16.9555
19.2076
21.0998
22.4177
23.0829
23.0792
22.3412
20.7745
18.8055
16.8312
15.1393
13.917
11.8428
8.70204
6.4902
4.85458
4.07871
3.83509
4.33548
2.37297
0.702966
0.549361
1.16913
1.71435
1.91339
2.11862
2.23569
1.98869
1.64872
1.18391
0.962353
1.00243
1.02544
0.014932
-0.0951656
-0.0727491
-0.0456711
0.00321724
0.0504449
0.0931409
0.132531
0.168272
0.198433
0.228645
0.268455
0.309336
0.33056
0.336058
0.346703
0.36028
0.366593
0.378303
0.388257
0.398691
0.409101
0.423222
0.446335
0.4821
0.524919
0.567718
0.61559
0.685166
0.787418
0.91884
1.07394
1.26411
1.51451
1.80857
2.12385
2.505
3.02951
3.7492
4.68406
5.89263
7.3824
9.14598
11.2378
13.5508
15.9232
18.1919
20.16
21.6869
22.6325
23.0564
22.993
22.2702
20.8147
18.8561
17.1124
15.4969
14.2785
12.2925
9.3946
7.04456
5.32448
4.35216
3.88598
4.18225
2.30985
0.655111
0.44322
1.10727
1.723
1.91346
2.18295
2.25127
1.99385
1.66913
1.13622
0.874744
0.843739
0.809444
0.0134985
-0.0907129
-0.0690129
-0.0414223
0.00657469
0.053231
0.096522
0.137278
0.174519
0.206182
0.238202
0.280037
0.322076
0.342681
0.346917
0.356876
0.370028
0.378026
0.394657
0.41283
0.433095
0.454033
0.47783
0.509455
0.552615
0.601404
0.646304
0.691972
0.75991
0.870219
1.02547
1.21275
1.44145
1.73747
2.0943
2.49008
2.96528
3.59126
4.42226
5.47011
6.80049
8.43802
10.3516
12.5622
14.9767
17.3518
19.464
21.1415
22.3147
22.93
23.1584
23.0648
22.3467
20.9837
18.9488
17.3427
15.7537
14.5978
12.7425
10.053
7.58857
5.7509
4.57692
3.9056
3.98612
2.1934
0.551267
0.314744
1.03178
1.68658
1.91507
2.23539
2.24318
1.98848
1.67004
1.07047
0.780663
0.698925
0.629436
0.0120799
-0.0847194
-0.0635409
-0.0354167
0.0121006
0.0589069
0.103221
0.145115
0.18306
0.215609
0.249537
0.29366
0.33654
0.355837
0.358081
0.366676
0.378653
0.387237
0.407505
0.433426
0.463975
0.496198
0.531532
0.574994
0.629413
0.688442
0.739306
0.784138
0.84985
0.968029
1.14806
1.37328
1.6458
1.98953
2.40944
2.88796
3.46298
4.20744
5.15902
6.33978
7.8064
9.60259
11.6827
14.0137
16.5021
18.8655
20.8158
22.2117
23.0555
23.3875
23.4638
23.3462
22.6181
21.2282
19.1302
17.527
15.9431
14.8941
13.2007
10.6635
8.12051
6.13144
4.73979
3.89291
3.77094
2.03074
0.392694
0.136961
0.916032
1.61873
1.9095
2.26146
2.22368
1.98261
1.65207
0.993586
0.686056
0.574011
0.487844
0.0102312
-0.0776528
-0.0567918
-0.0280629
0.0194531
0.0670575
0.112692
0.155476
0.193573
0.226589
0.2625
0.309053
0.352728
0.370752
0.371051
0.377976
0.388653
0.397794
0.42098
0.453508
0.494206
0.537678
0.584791
0.641919
0.710917
0.784456
0.845842
0.892724
0.957162
1.0834
1.28845
1.55662
1.87793
2.27111
2.75234
3.31547
3.99389
4.86894
5.95949
7.29071
8.91451
10.8841
13.1452
15.612
18.1502
20.4782
22.2565
23.3862
23.923
24.0168
23.973
23.807
23.0647
21.502
19.4057
17.6775
16.1055
15.1668
13.6541
11.2271
8.64317
6.50376
4.83963
3.83709
3.56208
1.85269
0.167354
-0.109822
0.727232
1.5006
1.8844
2.24147
2.19041
1.98059
1.61881
0.913736
0.595856
0.463889
0.374869
0.0079277
-0.0698308
-0.0490952
-0.0196523
0.0282469
0.0771542
0.124264
0.167583
0.205289
0.238535
0.27657
0.325619
0.369987
0.387202
0.386436
0.392066
0.401585
0.412039
0.438462
0.47668
0.52682
0.581184
0.639494
0.710538
0.796309
0.888029
0.964521
1.01822
1.0848
1.21942
1.44945
1.76218
2.13766
2.58796
3.1345
3.78079
4.56349
5.57193
6.81995
8.32002
10.1225
12.2798
14.7314
17.3438
19.9158
22.1761
23.7673
24.6408
24.8924
24.7896
24.6449
24.3812
23.5642
21.7554
19.7395
17.8042
16.2565
15.4054
14.0786
11.7509
9.15995
6.88832
4.91879
3.77848
3.33739
1.62453
-0.112659
-0.409257
0.480092
1.31608
1.82215
2.16347
2.1369
1.97615
1.57569
0.838396
0.514351
0.366205
0.290058
0.00545456
-0.0614999
-0.0407214
-0.0105295
0.0379818
0.0884795
0.137156
0.180685
0.217465
0.250754
0.29114
0.342806
0.387737
0.404597
0.404061
0.409484
0.418488
0.43126
0.461943
0.505971
0.56485
0.62954
0.698246
0.782268
0.885394
0.997763
1.09364
1.16085
1.23579
1.38073
1.63662
1.99215
2.42175
2.93507
3.55562
4.28819
5.17841
6.32289
7.73824
9.4231
11.4214
13.7767
16.4223
19.1781
21.769
23.9248
25.3098
25.9279
25.9251
25.6608
25.4201
25.0141
24.0259
21.9803
19.9926
17.9034
16.4028
15.6147
14.462
12.2558
9.66657
7.22892
4.99569
3.75327
3.09631
1.33678
-0.404749
-0.732131
0.189107
1.05697
1.73426
2.04399
2.07063
1.95696
1.52494
0.770601
0.443427
0.282991
0.235478
0.00314615
-0.0528845
-0.0319358
-0.0010748
0.0480895
0.100238
0.150511
0.194128
0.229653
0.262824
0.305682
0.360104
0.405611
0.42256
0.423393
0.429911
0.439754
0.456108
0.492204
0.543255
0.610954
0.685473
0.763902
0.859174
0.978665
1.11253
1.23153
1.32001
1.41094
1.57129
1.85538
2.25255
2.73402
3.31189
4.0149
4.84034
5.84127
7.12726
8.71693
10.5975
12.8022
15.358
18.19
21.0776
23.6715
25.6864
26.8433
27.2041
26.9807
26.5828
26.2409
25.6942
24.3613
22.1658
20.1493
17.9869
16.5443
15.8071
14.808
12.7496
10.1499
7.51369
5.18335
3.81579
2.88708
1.07179
-0.679429
-1.04
-0.115364
0.760541
1.63945
1.93082
2.00477
1.9149
1.46774
0.709621
0.381858
0.212778
0.194971
0.00119728
-0.0442558
-0.0228939
0.00846973
0.0581266
0.11176
0.163527
0.207271
0.241571
0.274639
0.319935
0.377075
0.423321
0.440971
0.444108
0.452737
0.465101
0.486649
0.52949
0.589298
0.667014
0.751383
0.839089
0.943643
1.07734
1.23225
1.37798
1.49504
1.60982
1.79347
2.10822
2.54641
3.08098
3.72798
4.51643
5.44216
6.55902
7.98754
9.75817
11.8415
14.26
17.0117
20.0084
23.004
25.5834
27.4301
28.3385
28.4412
28.0234
27.5152
27.043
26.3095
24.5469
22.3635
20.2234
18.0717
16.658
15.9769
15.1089
13.212
10.5789
7.85226
5.51442
3.80591
2.6128
0.923581
-0.827621
-1.32562
-0.445555
0.476533
1.52638
1.84952
1.93814
1.85051
1.40847
0.656325
0.328339
0.153323
0.184494
-0.000322263
-0.0358461
-0.0136832
0.0180255
0.0678605
0.122557
0.175506
0.219434
0.2529
0.286214
0.333888
0.393536
0.440782
0.459934
0.466237
0.477715
0.494053
0.522414
0.57362
0.644122
0.733924
0.829006
0.925853
1.03798
1.18301
1.35793
1.53386
1.68563
1.83281
2.04942
2.39828
2.87573
3.46241
4.18356
5.06197
6.09733
7.33722
8.90751
10.8637
13.1532
15.7898
18.7303
21.864
24.9277
27.4676
29.1284
29.7749
29.6174
29.0268
28.4256
27.7789
26.7415
24.6242
22.3968
20.1618
18.1064
16.7316
16.1093
15.3649
13.5896
11.0129
8.23561
5.65164
3.22765
1.87432
0.559492
-0.850937
-1.46176
-0.76651
0.203507
1.36001
1.77692
1.86433
1.76864
1.35356
0.611135
0.2834
0.104191
0.187082
-0.00142616
-0.0279096
-0.00443831
0.0275186
0.0771452
0.132295
0.185902
0.229969
0.263244
0.297536
0.347696
0.40964
0.458272
0.479835
0.490065
0.505073
0.526397
0.562685
0.623917
0.707242
0.811574
0.919221
1.02559
1.14423
1.29787
1.49175
1.70033
1.89174
2.08021
2.33876
2.72793
3.24725
3.88631
4.68251
5.65739
6.80948
8.18118
9.89744
12.036
14.5321
17.3821
20.5053
23.7508
26.8338
29.296
30.7565
31.1354
30.7175
29.9733
29.2743
28.4313
26.9657
24.532
22.1956
19.9601
18.0689
16.7906
16.1998
15.5469
13.8552
11.4066
8.42933
4.91923
1.66983
0.487825
-0.289589
-1.12058
-1.42755
-1.00701
-0.0486814
1.14369
1.6797
1.77863
1.67941
1.3008
0.570222
0.247948
0.0656421
0.218907
-0.00213327
-0.0208879
0.0045808
0.0368426
0.0858838
0.14076
0.194352
0.238433
0.272268
0.308557
0.361594
0.425799
0.476354
0.501325
0.51616
0.535385
0.562242
0.606942
0.679414
0.777678
0.89904
1.02182
1.13887
1.26383
1.42457
1.63698
1.87929
2.11475
2.35243
2.65943
3.09524
3.66306
4.36067
5.23225
6.30826
7.58291
9.09584
10.9695
13.2811
15.9829
19.0297
22.325
25.6593
28.7165
31.0543
32.2974
32.4052
31.7329
30.8459
30.0199
28.9663
26.9993
24.299
21.8866
19.7407
18.0234
16.8573
16.278
15.6052
14.025
11.4441
7.50202
2.58127
-1.33683
-2.11246
-1.907
-1.78628
-1.50084
-1.12191
-0.273056
0.905705
1.54309
1.68329
1.59345
1.24318
0.53046
0.221118
0.0430129
0.278896
-0.00241144
-0.0151231
0.0129887
0.0457844
0.0940594
0.147969
0.200758
0.244636
0.279784
0.319241
0.375862
0.442616
0.49576
0.525214
0.5454
0.569476
0.602008
0.655017
0.739266
0.854285
0.994991
1.13565
1.26532
1.3974
1.56563
1.79682
2.07365
2.35783
2.65081
3.01171
3.49993
4.12261
4.88596
5.83794
7.01995
8.42339
10.0847
12.1294
14.6088
17.5129
20.7346
24.1811
27.578
30.5755
32.7424
33.7455
33.5779
32.6641
31.6297
30.6298
29.3332
26.967
24.0347
21.5865
19.5659
18.0163
16.9447
16.3543
15.5211
13.8917
10.3673
4.84412
-1.56026
-5.93518
-6.22223
-4.78074
-3.1147
-1.86916
-1.11209
-0.427453
0.648247
1.3596
1.58121
1.50341
1.17361
0.494376
0.200913
0.0366756
0.329179
-0.00242205
-0.0107196
0.0204083
0.0539942
0.101551
0.154067
0.205357
0.248742
0.285817
0.329582
0.390767
0.460786
0.517367
0.552349
0.578738
0.6082
0.646294
0.707049
0.803089
0.93607
1.09804
1.25913
1.40383
1.54504
1.72312
1.97394
2.28651
2.62331
2.97549
3.39529
3.94362
4.63072
5.46597
6.50506
7.79936
9.33822
11.1516
13.3711
16.0327
19.1238
22.5063
26.0689
29.4988
32.4097
34.372
35.1086
34.661
33.5132
32.3032
31.1421
29.5349
26.9075
23.852
21.3515
19.4367
18.0314
17.0305
16.3712
15.2529
12.8586
7.64682
0.386059
-7.37902
-12.024
-11.8138
-9.08949
-5.55905
-2.73234
-1.18134
-0.474256
0.409221
1.14307
1.46724
1.39949
1.08176
0.462572
0.184945
0.0429166
0.392952
-0.00243055
-0.0076465
0.0265549
0.0611681
0.108143
0.159162
0.208603
0.251341
0.290778
0.339738
0.406518
0.480903
0.542055
0.583595
0.617038
0.652239
0.695635
0.763401
0.870996
1.02245
1.20704
1.39077
1.55318
1.70685
1.89829
2.17075
2.52184
2.91395
3.32787
3.81004
4.42452
5.18675
6.10364
7.23631
8.6498
10.3343
12.3043
14.6872
17.5547
20.8067
24.3497
27.9885
31.4174
34.2154
35.9557
36.4047
35.6689
34.2817
32.8657
31.5985
29.6703
26.8622
23.779
21.2085
19.3738
18.0443
17.078
16.2569
14.4837
10.3069
3.18565
-5.6539
-14.543
-19.2813
-18.6298
-14.7408
-9.30899
-4.43124
-1.55251
-0.36201
0.257897
0.938257
1.3286
1.28192
0.968369
0.434844
0.175539
0.0675498
0.477733
-0.00255979
-0.00565732
0.0313532
0.0671456
0.1137
0.163344
0.210983
0.253259
0.295469
0.350207
0.423411
0.503353
0.570443
0.619661
0.660965
0.702113
0.750488
0.824632
0.943382
1.11327
1.32126
1.52945
1.71265
1.88305
2.09121
2.38858
2.78215
3.2317
3.71037
4.2595
4.94498
5.78934
6.79817
8.03225
9.571
11.4139
13.5507
16.0813
19.1535
22.5684
26.2426
29.9408
33.3298
35.9847
37.4943
37.6495
36.6193
34.9771
33.3584
31.9723
29.8186
26.8719
23.8571
21.181
19.3493
18.0698
17.0662
15.9176
12.7345
6.04128
-2.84562
-12.9112
-22.6038
-27.2989
-26.2858
-21.471
-14.3403
-7.20731
-2.35553
-0.206077
0.202351
0.778667
1.17756
1.14989
0.844134
0.410875
0.177808
0.114419
0.543389
-0.00282985
-0.00433153
0.035
0.071997
0.118258
0.166797
0.212991
0.25532
0.300834
0.361778
0.441961
0.528477
0.602843
0.660879
0.710784
0.758134
0.811318
0.891424
1.02079
1.20876
1.44053
1.67493
1.8827
2.074
2.30209
2.6287
3.0685
3.57749
4.12381
4.74458
5.50792
6.44272
7.55177
8.89439
10.5614
12.5727
14.893
17.564
20.8036
24.4087
28.1655
31.9198
35.2363
37.7122
38.9804
38.852
37.5241
35.6039
33.8642
32.2808
30.0096
26.9719
24.0307
21.2854
19.4219
18.0943
16.9946
15.1786
9.6751
0.228431
-10.1122
-20.9526
-31.0807
-35.6647
-34.3914
-28.9107
-20.4407
-11.1118
-3.83794
-0.303193
0.237396
0.689636
1.02685
1.00818
0.726097
0.389556
0.195147
0.181592
0.635512
-0.00324935
-0.00316787
0.0378922
0.0760764
0.12211
0.169884
0.215187
0.258294
0.307745
0.375265
0.462799
0.556675
0.639422
0.707225
0.766342
0.820388
0.878579
0.964429
1.10387
1.30941
1.56528
1.82793
2.06432
2.27997
2.53151
2.89194
3.38116
3.95335
4.57064
5.26583
6.11226
7.14573
8.36584
9.82367
11.6184
13.8008
16.3223
19.1438
22.5008
26.2874
30.115
33.8785
37.128
39.4003
40.4151
40.0153
38.3829
36.1635
34.3635
32.6208
30.2749
27.1864
24.2795
21.6026
19.6597
18.0889
16.8429
13.7937
5.29702
-6.76029
-18.1949
-29.3686
-39.5594
-43.9639
-42.5733
-36.6986
-27.2721
-16.07
-6.27157
-0.882645
0.329202
0.691664
0.870228
0.86369
0.636986
0.37512
0.229536
0.269779
0.730838
-0.00386367
-0.00164664
0.0405353
0.0799516
0.12584
0.173212
0.218268
0.262954
0.316954
0.391333
0.486459
0.588289
0.680261
0.758495
0.827306
0.888819
0.952613
1.04422
1.19332
1.41595
1.69657
1.99013
2.25865
2.5018
2.78072
3.17823
3.71983
4.36027
5.05306
5.82673
6.76004
7.89694
9.23867
10.8201
12.74
15.0842
17.8183
20.8151
24.2567
28.1639
32.0899
35.7797
38.9936
41.0552
41.8076
41.1352
39.1966
36.7204
34.8257
32.9787
30.5881
27.5623
24.6485
22.1071
20.0545
18.0712
16.5219
11.5711
-0.167893
-14.483
-26.6645
-37.8108
-47.7589
-51.901
-50.4935
-44.4866
-34.4786
-21.8626
-9.67989
-2.00131
0.349557
0.794389
0.705985
0.724562
0.59629
0.37264
0.281924
0.376806
0.851347
-0.00469363
0.000799457
0.0434967
0.0843021
0.1302
0.177569
0.223037
0.270068
0.32911
0.410457
0.513243
0.623449
0.725288
0.81445
0.893445
0.96336
1.03363
1.1313
1.28989
1.5294
1.83595
2.16324
2.46668
2.74113
3.05137
3.488
4.08518
4.79737
5.57026
6.42894
7.45355
8.69791
10.1689
11.8836
13.9273
16.4137
19.354
22.5516
26.0742
30.0354
34.0779
37.5725
40.737
42.6517
43.1522
42.199
39.9533
37.3075
35.2711
33.3292
30.918
28.0672
25.1862
22.7955
20.5576
18.1105
15.9041
8.463
-6.37306
-22.5003
-35.1182
-45.9812
-55.4939
-59.3308
-57.9524
-51.9901
-41.7455
-28.1898
-13.9736
-3.83157
0.124863
0.996186
0.543183
0.609492
0.610055
0.384742
0.348805
0.508235
1.00373
-0.00571791
0.00478796
0.0474157
0.0898735
0.136015
0.183798
0.230295
0.28033
0.344723
0.432935
0.54326
0.66208
0.774305
0.874947
0.964787
1.04405
1.12185
1.22632
1.39463
1.65124
1.985
2.34801
2.68914
2.99973
3.34542
3.82366
4.47864
5.26419
6.1218
7.07088
8.19154
9.54744
11.153
13.0118
15.1834
17.7873
20.9009
24.3181
27.9394
31.8882
36.0189
39.4765
42.3516
44.1641
44.4259
43.1925
40.6626
37.9331
35.766
33.6738
31.3191
28.6829
25.9143
23.6522
21.1463
18.2851
14.8866
4.57534
-12.9493
-30.4194
-43.2231
-53.6576
-62.6405
-66.1872
-64.8601
-59.0347
-48.805
-34.731
-18.9665
-6.41032
-0.400231
1.22896
0.412691
0.522265
0.647409
0.412622
0.428274
0.666192
1.15971
-0.00686104
0.0108541
0.0528796
0.0973566
0.144054
0.192665
0.240735
0.294254
0.3641
0.458889
0.576492
0.704024
0.827116
0.939977
1.04153
1.13112
1.21773
1.33022
1.50916
1.78335
2.14465
2.54423
2.92647
3.27881
3.66489
4.18812
4.90092
5.76156
6.70847
7.75222
8.97201
10.4399
12.182
14.1967
16.5071
19.2095
22.4452
26.0769
29.8262
33.693
37.8013
41.5828
43.5203
45.5482
45.6111
44.1092
41.3649
38.5738
36.2959
34.0757
31.8319
29.3848
26.7788
24.641
21.7892
18.53
13.3473
0.102356
-19.5695
-37.9393
-50.7665
-60.7403
-69.1722
-72.4814
-71.21
-65.5457
-55.473
-41.2123
-24.4156
-9.66479
-1.22217
1.2985
0.393745
0.449856
0.639339
0.454488
0.526166
0.84863
1.35134
-0.00802429
0.0193433
0.0603228
0.107256
0.154907
0.204789
0.254896
0.312184
0.387375
0.488333
0.612927
0.749244
0.88371
1.00964
1.12397
1.22511
1.32211
1.44447
1.6354
1.92718
2.31509
2.75173
3.17922
3.57915
4.01129
4.5826
5.3531
6.29022
7.32978
8.47387
9.79455
11.3706
13.2456
15.4221
17.8849
20.685
23.9873
27.785
31.7101
35.5186
39.3945
43.1834
45.8552
46.7433
46.6663
44.9389
42.0808
39.191
36.7862
34.5258
32.403
30.1384
27.7569
25.7439
22.492
18.6855
11.2057
-4.74665
-25.9889
-44.8774
-57.6629
-67.238
-75.1455
-78.2809
-77.0562
-71.5277
-61.6559
-47.4309
-30.0636
-13.4994
-2.58665
1.03377
0.578581
0.366904
0.548611
0.50189
0.644117
1.06001
1.58316
-0.00905921
0.0304067
0.070025
0.119882
0.16897
0.2206
0.273146
0.334323
0.414598
0.521298
0.652677
0.797946
0.944306
1.08417
1.21259
1.32686
1.43619
1.57057
1.77452
2.0831
2.49643
2.97125
3.44787
3.90087
4.38536
5.00786
5.83622
6.84901
7.98434
9.23427
10.6588
12.3383
14.3352
16.666
19.2933
22.2083
25.5361
29.4046
33.5234
37.4077
41.0067
44.3145
47.3059
47.8894
47.6036
45.6939
42.81
39.799
37.2462
35.0052
32.9838
30.9199
28.8163
26.8876
23.3091
18.6172
8.46333
-9.79059
-32.056
-51.1626
-63.9192
-73.2172
-80.6543
-83.6778
-82.4824
-77.0367
-67.3387
-53.262
-35.6663
-17.7308
-4.522
0.491348
0.885922
0.220082
0.420396
0.538896
0.775195
1.30323
1.81773
-0.00971751
0.043985
0.0821112
0.135347
0.186412
0.240286
0.295626
0.36074
0.445825
0.557962
0.696091
0.850609
1.00941
1.16411
1.30803
1.43723
1.56091
1.7091
1.92654
2.25127
2.68974
3.20389
3.73236
4.24384
4.78707
5.46363
6.34917
7.43634
8.66925
10.0292
11.5625
13.3432
15.4448
17.909
20.7023
23.7582
27.1102
30.938
35.1649
39.2407
42.7077
45.816
47.9668
49.1633
48.4781