/*--------------------------------*- C++ -*----------------------------------*\
| =========                 |                                                 |
| \\      /  F ield         | OpenFOAM: The Open Source CFD Toolbox           |
|  \\    /   O peration     | Version:  4.1                                   |
|   \\  /    A nd           | Web:      www.OpenFOAM.org                      |
|    \\/     M anipulation  |                                                 |
\*---------------------------------------------------------------------------*/
FoamFile
{
    version     2.0;
    format      ascii;
    class       volVectorField;
    location    "7";
    object      U;
}
// * * * * * * * * * * * * * * * * * * * * * * * * * * * * * * * * * * * * * //

dimensions      [0 1 -1 0 0 0 0];

internalField   nonuniform List<vector> 
6785
(
(1.26605e-14 0.684593 15.7418)
(9.34751e-15 -5.1303 12.0538)
(-2.39288e-15 -4.2925 12.1841)
(3.8863e-15 -3.72376 12.0221)
(7.25563e-16 -3.1193 11.901)
(-3.89615e-16 -2.66645 11.7153)
(1.66502e-15 -2.3176 11.4881)
(1.05666e-15 -2.07344 11.2168)
(1.90074e-16 -1.90795 10.9139)
(2.35063e-15 -1.81721 10.5843)
(1.82181e-16 -1.92244 10.165)
(-1.60262e-16 -2.37181 9.56011)
(1.11198e-16 -2.68975 8.96981)
(-1.42972e-16 -1.33553 8.92613)
(-9.81171e-16 1.73302 7.64142)
(2.11603e-14 -5.63797 22.1817)
(1.51264e-14 -14.7671 21.3399)
(6.34742e-16 -13.2426 20.4984)
(3.73343e-15 -11.8212 19.6219)
(3.16161e-15 -11.2266 18.5971)
(3.45328e-16 -10.7091 17.6048)
(3.66783e-15 -10.1208 16.6521)
(2.12451e-15 -9.54474 15.6954)
(4.17771e-16 -8.97903 14.7275)
(7.6621e-15 -8.37631 13.7517)
(1.00181e-15 -7.75127 12.7737)
(2.93281e-16 -7.27676 11.783)
(3.62402e-15 -7.01208 10.6937)
(1.29484e-15 -5.78415 8.97397)
(-8.51807e-16 -1.7332 4.85319)
(1.1858e-14 -7.89577 22.1864)
(1.66919e-14 -16.7493 24.7015)
(1.44462e-15 -13.8107 23.9907)
(6.37916e-15 -12.4971 22.6551)
(3.79618e-15 -11.8331 21.2609)
(7.17473e-16 -10.9893 20.0204)
(3.04912e-15 -10.1077 18.79)
(1.61278e-15 -9.26133 17.5386)
(-5.50869e-16 -8.4372 16.2752)
(9.90352e-16 -7.6205 15.0227)
(-4.99493e-16 -6.79735 13.8035)
(5.40664e-17 -5.96891 12.4326)
(-4.83972e-16 -4.99162 10.327)
(-3.03492e-16 -3.27604 6.89132)
(1.18515e-16 -0.662931 2.40018)
(1.53396e-14 -8.14281 17.9869)
(1.59767e-14 -16.3384 24.4547)
(3.74021e-15 -13.4364 23.9533)
(4.07641e-15 -12.532 22.1178)
(1.16794e-15 -11.7986 20.6134)
(2.25323e-15 -10.8473 19.2818)
(2.24136e-15 -9.96818 17.9218)
(-6.1432e-16 -9.13863 16.5571)
(9.12253e-16 -8.3457 15.2039)
(-4.96183e-16 -7.59652 13.8759)
(-2.44092e-15 -6.83599 12.5328)
(1.70386e-15 -5.87465 10.864)
(-1.67633e-15 -4.38647 8.19806)
(-4.93285e-15 -2.24476 3.97625)
(9.80407e-15 0.0131051 -1.35101)
(1.25883e-14 -7.32295 13.9161)
(1.55726e-14 -15.3617 23.7131)
(6.36168e-15 -13.9078 24.0461)
(2.848e-15 -13.093 21.9521)
(-4.36767e-16 -12.2998 20.3349)
(-2.31113e-15 -11.3791 18.9619)
(1.36755e-15 -10.5625 17.5523)
(-2.53278e-15 -9.76955 16.1494)
(1.20796e-15 -8.98392 14.7764)
(-1.42864e-15 -8.22622 13.4377)
(-4.82892e-15 -7.46088 12.0841)
(-1.53782e-15 -6.51695 10.4501)
(-3.27513e-15 -5.04666 8.04598)
(-9.92818e-15 -3.17274 4.57042)
(-1.1826e-14 -1.17748 1.48092)
(1.28974e-14 -6.11958 10.8604)
(1.75372e-14 -14.1676 22.6739)
(5.86027e-15 -14.3412 24.3348)
(2.78578e-15 -13.5251 22.47)
(1.07849e-16 -12.5696 20.7498)
(2.69766e-15 -11.6356 19.3233)
(1.15061e-15 -10.8158 17.9002)
(-4.37851e-16 -9.99731 16.4885)
(1.61638e-15 -9.17153 15.1057)
(-1.36135e-15 -8.36627 13.7558)
(-3.13855e-15 -7.55988 12.4006)
(-2.21412e-16 -6.63534 10.8191)
(-3.00677e-15 -5.24119 8.63862)
(-5.11686e-15 -3.66872 5.60238)
(-3.34501e-15 -1.44615 3.03395)
(1.62787e-14 -5.1102 8.82103)
(1.98797e-14 -12.9978 21.575)
(1.04006e-14 -14.2969 24.2378)
(3.7253e-15 -13.5789 22.8819)
(1.27542e-15 -12.5392 21.1366)
(3.33662e-15 -11.6042 19.6443)
(1.39685e-15 -10.7752 18.2077)
(6.91952e-16 -9.93668 16.7929)
(2.8652e-15 -9.09769 15.4006)
(-8.32172e-16 -8.28478 14.0383)
(-1.21455e-15 -7.47398 12.6763)
(3.38181e-15 -6.58108 11.098)
(-1.98911e-15 -5.19085 8.99167)
(-5.65179e-15 -3.93295 6.09728)
(4.75115e-15 -1.52399 3.98395)
(1.70763e-14 -4.63432 8.02233)
(1.57353e-14 -12.2006 20.8349)
(1.10448e-14 -14.0438 23.8073)
(4.32948e-15 -13.4703 23.0227)
(1.66136e-15 -12.4755 21.3206)
(3.44371e-15 -11.5665 19.7821)
(1.54335e-15 -10.7362 18.3371)
(2.45428e-16 -9.89644 16.9203)
(1.8382e-15 -9.06557 15.5216)
(-8.80862e-16 -8.2615 14.1527)
(-1.01656e-15 -7.45337 12.7843)
(2.87824e-15 -6.57731 11.1755)
(-1.20519e-15 -5.10451 9.06945)
(-5.35507e-15 -4.07192 6.16168)
(1.30263e-15 -1.53987 4.35637)
(9.60286e-15 -4.51248 7.85702)
(1.67105e-14 -11.7267 20.3412)
(9.9422e-15 -13.8127 23.2553)
(5.17716e-15 -13.3917 23.0321)
(2.00224e-15 -12.5065 21.4188)
(1.21778e-15 -11.6098 19.8616)
(1.93946e-15 -10.7692 18.4152)
(1.4413e-17 -9.93047 16.998)
(-9.21212e-16 -9.1056 15.5963)
(-2.36422e-16 -8.30525 14.2254)
(-7.76658e-16 -7.49121 12.8526)
(-6.36052e-16 -6.62384 11.1964)
(-4.85763e-16 -5.03931 9.07932)
(-5.39397e-15 -4.22098 6.21314)
(-6.44467e-15 -1.61525 4.65297)
(6.04129e-15 -4.42486 7.58888)
(1.61105e-14 -11.3574 19.8435)
(9.81877e-15 -13.6342 22.7439)
(4.18855e-15 -13.3668 23.0102)
(2.04341e-15 -12.6036 21.5209)
(4.11773e-16 -11.6992 19.9601)
(-5.14501e-17 -10.8424 18.5103)
(2.12465e-16 -10.0035 17.0918)
(-4.81446e-16 -9.17943 15.6895)
(-2.26759e-15 -8.37859 14.3177)
(-4.25396e-16 -7.5522 12.9417)
(-1.91022e-15 -6.69105 11.2321)
(-4.28303e-15 -5.00147 9.10848)
(-2.95806e-15 -4.38952 6.35076)
(-8.40899e-15 -1.74525 5.00009)
(9.34118e-16 -4.21305 7.01284)
(1.58824e-14 -10.9469 19.228)
(6.57654e-15 -13.4649 22.3227)
(4.06933e-15 -13.3697 23.0082)
(2.85855e-15 -12.733 21.6785)
(-2.34682e-15 -11.8237 20.1216)
(-8.04734e-16 -10.9518 18.6575)
(1.22843e-15 -10.1108 17.2313)
(-2.65661e-15 -9.28211 15.8255)
(-2.9606e-15 -8.47793 14.4485)
(2.8837e-17 -7.63178 13.0682)
(-8.3393e-15 -6.77559 11.3086)
(-3.29175e-15 -5.00237 9.18238)
(-1.23576e-14 -4.56257 6.53779)
(-4.84884e-15 -1.88689 5.36188)
(1.34532e-15 -3.89711 6.25162)
(1.62314e-14 -10.4692 18.5324)
(2.79637e-15 -13.243 21.9344)
(4.43062e-15 -13.304 22.9681)
(3.89169e-15 -12.7792 21.7905)
(-4.33424e-15 -11.864 20.2556)
(-8.82691e-16 -10.9866 18.7902)
(2.14988e-15 -10.1477 17.3671)
(8.33359e-16 -9.31938 15.9678)
(-3.34112e-15 -8.51849 14.59)
(-1.74755e-15 -7.65693 13.1997)
(-1.23999e-14 -6.79515 11.377)
(-5.30894e-15 -4.95746 9.25469)
(-1.65933e-14 -4.73412 6.76441)
(-1.50363e-14 -2.02256 5.7108)
(-2.94453e-15 -3.74297 5.89511)
(1.46666e-14 -10.1308 18.0271)
(9.47453e-15 -13.1426 21.7463)
(3.40063e-15 -13.4045 23.1056)
(4.37945e-15 -13.0136 22.1007)
(-4.2568e-15 -12.1099 20.5534)
(-2.78284e-15 -11.195 19.0153)
(5.32039e-15 -10.3211 17.538)
(-8.17606e-15 -9.45262 16.0939)
(-4.36127e-15 -8.62677 14.6775)
(3.84588e-16 -7.71276 13.2665)
(-1.34967e-14 -6.8537 11.3657)
(-9.12048e-15 -4.89586 9.19785)
(-1.35945e-14 -4.75446 6.70888)
(-1.68587e-14 -2.06147 5.79557)
(-4.5877e-15 -3.14902 4.53361)
(1.21919e-14 -9.31879 16.9554)
(5.90043e-15 -12.3729 20.9589)
(2.42483e-15 -12.6288 22.5666)
(2.89406e-15 -12.3202 21.7134)
(-4.23485e-15 -11.4604 20.4023)
(-5.99128e-16 -10.6725 19.0973)
(3.50783e-15 -9.91172 17.7734)
(-7.61397e-15 -9.15119 16.4548)
(-2.3459e-15 -8.38944 15.0911)
(-1.75132e-15 -7.54059 13.6347)
(-1.25886e-14 -6.60359 11.6928)
(-7.66873e-15 -4.9778 9.58203)
(-1.48057e-14 -5.00634 7.55504)
(-1.51909e-14 -2.18009 6.22311)
(-5.79108e-15 -5.84399 10.7459)
(1.1726e-14 -11.4997 20.4488)
(7.92381e-15 -14.4819 23.5051)
(3.1915e-15 -15.0522 24.7517)
(1.77529e-15 -14.6472 23.418)
(-2.77048e-15 -13.4205 21.3596)
(-1.57358e-15 -12.0018 19.0901)
(1.70613e-15 -10.6279 17.1284)
(-5.56222e-15 -9.32821 15.2361)
(-3.54082e-15 -8.19769 13.5523)
(-4.90815e-15 -6.92534 11.7873)
(-1.16804e-14 -5.63448 9.38317)
(-9.22371e-15 -3.47878 6.97594)
(-1.93031e-14 -3.18117 4.55559)
(-1.07249e-14 -0.651759 2.72105)
(-1.54667e-15 0.0323874 -0.905496)
(-1.42471e-15 0.085908 -1.2277)
(-9.35631e-16 0.132758 -0.484022)
(-9.41939e-16 0.162788 -0.37215)
(-9.26252e-16 0.132672 -0.271483)
(-1.24465e-15 0.23374 -0.560322)
(-6.29504e-16 0.216878 -0.260665)
(-2.84752e-16 0.236164 -0.18321)
(3.64764e-16 0.178475 -0.169848)
(1.31052e-14 0.20008 -0.510737)
(-1.89786e-15 0.2655 -0.385377)
(-1.86863e-16 0.304515 -0.315588)
(1.79577e-15 0.257347 -0.571375)
(1.97313e-15 0.288026 -0.383914)
(2.42163e-15 0.3856 -0.28421)
(2.57486e-15 0.305727 -0.245407)
(2.87011e-15 0.37007 -0.490459)
(3.31659e-15 0.367891 -0.401043)
(3.21927e-15 0.44651 -0.338876)
(3.70019e-15 0.484959 -0.534689)
(2.61766e-15 0.405317 -0.39645)
(2.19453e-15 0.544938 -0.321945)
(2.7019e-15 0.46371 -0.273191)
(3.33693e-15 0.57885 -0.435538)
(2.38511e-15 0.476489 -0.338336)
(2.19089e-15 0.623682 -0.285017)
(2.35678e-15 0.51379 -0.247686)
(1.5801e-15 0.655296 -0.384363)
(3.20232e-16 0.549428 -0.312521)
(2.54977e-16 0.652629 -0.268278)
(7.6909e-16 0.763919 -0.384744)
(-1.70815e-16 0.577946 -0.287321)
(1.20997e-16 0.727002 -0.245693)
(-3.43702e-16 0.641908 -0.210971)
(-3.40202e-16 0.79056 -0.30215)
(-1.38186e-16 0.649095 -0.235064)
(-2.53661e-17 0.731814 -0.203777)
(3.88583e-16 0.869742 -0.2805)
(4.25321e-16 0.652401 -0.199658)
(3.65106e-16 0.792517 -0.171877)
(1.03681e-15 0.713612 -0.150017)
(1.87247e-15 0.867628 -0.212456)
(1.46668e-15 0.666453 -0.153318)
(1.45182e-15 0.805798 -0.132114)
(1.44214e-15 0.710942 -0.121535)
(2.21538e-15 0.850154 -0.189068)
(4.72077e-16 0.677527 -0.131334)
(4.30809e-16 0.749202 -0.123833)
(4.7317e-16 0.858577 -0.183291)
(1.441e-15 0.632275 -0.138112)
(1.35279e-15 0.730741 -0.124564)
(1.22878e-15 0.67798 -0.133432)
(1.61196e-15 0.761494 -0.165153)
(1.10425e-15 0.551611 -0.145947)
(1.07794e-15 0.637332 -0.115996)
(2.08451e-15 0.586018 -0.120933)
(2.84807e-15 0.643845 -0.089174)
(2.13869e-15 0.433064 -0.0885143)
(9.28637e-16 0.470339 -0.0843359)
(1.18148e-15 0.481281 -0.00575603)
(1.31158e-15 0.269626 -0.00765518)
(1.72251e-15 0.305368 0.0457348)
(1.57965e-15 0.282687 0.0534393)
(8.62932e-15 0.259293 0.0643758)
(6.38032e-15 0.0431255 0.010381)
(5.61342e-15 0.0560885 0.00788095)
(4.71871e-15 -0.0104299 -0.192948)
(-4.23364e-15 -0.219827 0.448731)
(-3.43529e-15 -0.243733 0.779474)
(-3.31695e-15 -0.264378 0.941368)
(-5.25442e-15 -0.494125 1.78804)
(-4.8247e-15 -0.905775 2.31905)
(-4.7736e-15 -1.00382 2.34397)
(-4.81989e-15 -1.0508 2.41763)
(-7.10108e-15 -1.92919 4.12916)
(-3.27327e-15 -2.04763 3.84505)
(-4.08105e-15 -2.17543 4.04295)
(-6.1954e-15 -3.61296 6.41894)
(-4.93533e-15 -3.61432 5.39832)
(-5.48258e-15 -3.85438 5.76016)
(-7.39527e-15 -4.11768 6.87097)
(-7.18493e-15 -4.15461 6.97326)
(-7.2842e-15 -4.39623 7.2426)
(-6.97799e-15 -5.58435 9.83589)
(-7.94312e-15 -4.97248 9.11066)
(-8.73768e-15 -5.32065 9.56978)
(-8.77924e-15 -5.31078 9.75357)
(-8.49841e-15 -5.36911 9.9441)
(-8.25871e-15 -5.41254 10.1522)
(-7.90629e-15 -5.44836 10.3934)
(-7.06063e-15 -5.54067 10.7721)
(-5.96794e-15 -5.74208 11.2329)
(-6.53365e-15 -6.52822 13.5565)
(-5.96091e-15 -6.45096 12.8224)
(-5.78722e-15 -6.64579 13.1372)
(-5.76643e-15 -6.60556 13.3477)
(-6.01608e-15 -6.82614 13.8667)
(-5.76005e-15 -6.7586 13.9542)
(-5.62584e-15 -6.8113 14.1796)
(-5.43496e-15 -6.87034 14.396)
(-5.17762e-15 -7.05295 14.6703)
(-2.25021e-15 -7.50739 17.1612)
(-2.23357e-15 -7.70517 16.3769)
(-2.09329e-15 -7.81395 16.6412)
(-1.99115e-15 -7.85017 16.7911)
(-1.85302e-15 -7.89258 17.0013)
(-1.65332e-15 -7.95044 17.2975)
(-1.45468e-15 -8.03546 17.6231)
(-1.40403e-15 -8.01547 17.7644)
(-1.29022e-15 -8.08683 17.98)
(-1.17624e-15 -8.24278 18.2117)
(8.41732e-16 -8.29832 20.0216)
(-1.28268e-15 -8.70732 19.2818)
(-1.09893e-15 -8.74767 19.5169)
(-9.80538e-16 -8.79346 19.6523)
(-8.0669e-16 -8.8497 19.8351)
(-5.3684e-16 -8.86445 20.0445)
(3.42093e-16 -8.93067 20.4135)
(5.21887e-16 -8.96015 20.6112)
(4.58489e-16 -9.09534 20.75)
(2.79088e-16 -8.63614 21.411)
(3.3872e-16 -9.14082 20.6976)
(1.37213e-16 -9.11647 21.0041)
(-4.66329e-17 -9.18003 21.2242)
(1.42831e-16 -9.15791 21.2603)
(2.28374e-16 -9.20384 21.3551)
(3.53129e-16 -9.20081 21.4439)
(4.5309e-16 -9.1898 21.5758)
(4.25214e-16 -9.35668 21.9198)
(1.83963e-15 -7.77819 20.6242)
(1.50534e-15 -8.80336 20.5629)
(1.75979e-15 -8.64435 20.5085)
(1.99649e-15 -8.62981 20.4807)
(2.63075e-15 -8.63256 20.59)
(2.82641e-15 -8.5804 20.481)
(2.89296e-15 -8.52338 20.2814)
(3.00924e-15 -8.50186 20.0587)
(3.12312e-15 -8.42112 19.7519)
(3.47259e-15 -6.10553 16.6606)
(3.50947e-15 -7.3355 17.6593)
(3.55202e-15 -7.00286 17.1436)
(3.59405e-15 -7.00095 16.78)
(3.64846e-15 -6.88959 16.3003)
(3.74321e-15 -6.81259 15.7508)
(4.25009e-15 -6.64385 15.0067)
(3.91995e-15 -6.57313 14.4856)
(3.78048e-15 -6.42135 13.7978)
(3.54823e-15 -6.10485 13.0153)
(2.00035e-15 -3.32988 7.66661)
(3.1824e-15 -4.73278 10.1519)
(2.87248e-15 -4.15109 8.92821)
(2.39458e-15 -4.18836 8.23295)
(1.87363e-15 -3.95146 7.26815)
(1.16938e-15 -3.88905 6.13706)
(-2.41495e-16 -3.73526 4.43539)
(-1.58854e-15 -3.32188 2.76068)
(-1.23378e-15 -3.03059 2.34186)
(-1.06623e-15 -2.28648 -0.995256)
(-1.35737e-15 -2.30854 2.00394)
(-1.16945e-15 -1.77212 0.872045)
(-4.07472e-16 -0.934263 -2.11871)
(-1.46295e-15 -2.09834 -0.903016)
(-8.71914e-16 -1.21367 -0.712111)
(-6.542e-16 -1.24384 -0.374679)
(-8.50053e-16 -1.45014 -0.320198)
(-3.4699e-16 -1.02249 -0.17348)
(-9.45255e-16 -1.41076 -0.0688573)
(-5.20624e-16 -1.26955 -0.0274389)
(-5.25603e-16 -1.02618 -0.0672902)
(-7.17792e-16 -1.39863 0.0210573)
(-5.62232e-16 -1.38322 0.0270701)
(-3.96693e-16 -1.31516 0.0127907)
(-5.7401e-16 -1.76835 0.0988716)
(-2.84229e-16 -1.20742 0.0558542)
(-8.53785e-16 -1.74187 0.153028)
(-5.3068e-16 -1.65014 0.121714)
(-3.50593e-16 -1.51514 0.0898804)
(-4.77703e-16 -2.05128 0.179384)
(-2.79504e-16 -1.4553 0.110992)
(-4.82441e-16 -2.13908 0.211466)
(-3.50228e-16 -1.99924 0.154337)
(-2.71885e-16 -1.60018 0.114208)
(-4.29795e-16 -2.20738 0.188955)
(-3.40375e-16 -2.09791 0.130923)
(-2.66827e-16 -1.87088 0.1123)
(-3.83771e-16 -2.49162 0.158614)
(-2.76257e-16 -1.70222 0.111356)
(-4.2779e-16 -2.4345 0.150339)
(-2.74036e-16 -2.21234 0.0935199)
(-2.44816e-16 -1.93201 0.0887437)
(-3.62732e-16 -2.58615 0.0948359)
(-2.6378e-16 -1.74285 0.0757904)
(-4.08418e-16 -2.55711 0.0718638)
(-3.75728e-16 -2.25771 0.0235422)
(-3.1469e-16 -1.75719 0.0224646)
(-4.57911e-16 -2.452 -0.0133684)
(-4.35417e-16 -2.21509 -0.0549909)
(-3.52968e-16 -1.88089 -0.0339651)
(-4.90598e-16 -2.55496 -0.0767031)
(-3.99649e-16 -1.65005 -0.0685859)
(-5.79857e-16 -2.44355 -0.121937)
(-6.61365e-16 -2.14765 -0.164807)
(-5.34964e-16 -1.81527 -0.135992)
(-7.23776e-16 -2.46196 -0.195435)
(-5.46086e-16 -1.60571 -0.17241)
(-8.10522e-16 -2.38519 -0.244522)
(-7.93343e-16 -2.06924 -0.279882)
(-6.29657e-16 -1.63003 -0.251007)
(-9.11698e-16 -2.27303 -0.349083)
(-8.78817e-16 -2.02736 -0.366222)
(-7.37485e-16 -1.68911 -0.308129)
(-9.14092e-16 -2.22785 -0.404412)
(-7.90769e-16 -1.52242 -0.332972)
(-1.24665e-15 -2.15397 -0.466502)
(-9.97777e-16 -1.84273 -0.453799)
(-8.15783e-16 -1.53306 -0.367836)
(-9.90021e-16 -1.93844 -0.503923)
(-7.704e-16 -1.37474 -0.377023)
(-1.18114e-15 -1.84483 -0.570781)
(-1.0375e-15 -1.49186 -0.516206)
(-8.49691e-16 -1.16992 -0.402634)
(-1.09694e-15 -1.46215 -0.652675)
(-5.88636e-16 -1.14251 -0.580114)
(-7.70482e-16 -0.832506 -0.452424)
(-1.19553e-15 -0.977027 -0.716559)
(-9.47439e-16 -0.668876 -0.475473)
(-1.24393e-15 -0.707537 -0.85732)
(-7.56149e-16 -0.306213 -0.743106)
(-8.24033e-16 0.156942 -0.636715)
(-1.19806e-15 0.122406 -1.09303)
(-1.02692e-15 0.110123 -0.514205)
(-1.11521e-15 0.17945 -0.971682)
(-1.19206e-15 0.585098 -1.41785)
(-7.68307e-16 0.929763 -0.87928)
(-8.48885e-16 1.28324 -1.25019)
(-1.15842e-15 1.70744 -1.7108)
(-7.82484e-16 1.4781 -1.08891)
(-1.09822e-15 2.45315 -1.75359)
(-7.98441e-16 2.10091 -1.19643)
(-1.03316e-15 2.67928 -1.92183)
(-4.23159e-15 -0.208314 8.24542)
(-4.17443e-15 -0.199768 8.22787)
(-4.10093e-15 -0.182937 8.18566)
(-4.02473e-15 -0.168272 8.14261)
(-3.93526e-15 -0.154525 8.08882)
(-3.83718e-15 -0.141889 8.02829)
(-3.72895e-15 -0.129688 7.96019)
(-3.61086e-15 -0.118437 7.88451)
(-3.4826e-15 -0.109001 7.80089)
(-3.34382e-15 -0.10185 7.70899)
(-3.19418e-15 -0.0958771 7.60838)
(-3.03352e-15 -0.0913361 7.49858)
(-2.86128e-15 -0.089269 7.37889)
(-2.67666e-15 -0.089493 7.2486)
(-2.47941e-15 -0.0911698 7.10733)
(-2.26914e-15 -0.0948742 6.95454)
(-2.04449e-15 -0.10181 6.78905)
(-1.8041e-15 -0.111928 6.6098)
(-1.54685e-15 -0.125716 6.41601)
(-1.27146e-15 -0.143315 6.20684)
(-9.77671e-16 -0.164937 5.98243)
(-6.66936e-16 -0.190659 5.74448)
(-3.43845e-16 -0.218854 5.49748)
(-1.85387e-17 -0.248313 5.25045)
(2.91756e-16 -0.279416 5.01816)
(5.61976e-16 -0.315486 4.82171)
(7.6166e-16 -0.361505 4.6862)
(8.64059e-16 -0.421209 4.6328)
(8.60304e-16 -0.497242 4.66684)
(7.69105e-16 -0.593546 4.77085)
(6.29162e-16 -0.709871 4.91209)
(4.82394e-16 -0.842358 5.05453)
(3.61518e-16 -0.986813 5.16598)
(2.84038e-16 -1.14144 5.22092)
(2.5182e-16 -1.30454 5.20458)
(2.55248e-16 -1.46624 5.12293)
(2.80658e-16 -1.61661 5.01737)
(3.18383e-16 -1.78895 4.97872)
(3.70364e-16 -2.02908 5.13029)
(4.51825e-16 -2.39711 5.55988)
(5.79831e-16 -2.9306 6.25657)
(7.51973e-16 -3.63736 7.13392)
(9.36864e-16 -4.51465 8.11055)
(1.08213e-15 -5.54448 9.15576)
(1.13029e-15 -6.73752 10.2759)
(1.04222e-15 -8.09427 11.4789)
(8.19306e-16 -9.57317 12.7208)
(5.11764e-16 -11.0428 13.8649)
(2.05705e-16 -12.2165 14.6676)
(-5.37548e-18 -12.6662 14.8402)
(-6.6532e-17 -11.9991 14.1571)
(-6.19229e-18 -10.3039 12.6917)
(8.70819e-17 -8.57918 11.0296)
(1.58363e-16 -7.94372 9.73132)
(1.81195e-16 -8.20919 8.31885)
(7.56556e-17 -8.63113 5.90009)
(-2.14447e-16 -8.63692 2.48407)
(-6.36092e-16 -6.95071 -1.31719)
(-8.02662e-16 -4.07907 -1.8195)
(-8.02948e-16 -1.54674 -1.56781)
(-7.96686e-16 -0.491171 -1.48401)
(-8.04463e-16 0.822436 -0.891166)
(-8.25054e-16 0.999085 -1.39908)
(-7.99168e-16 2.52084 -1.64736)
(-9.34918e-16 -0.19992 -0.463268)
(-9.83954e-16 -0.745805 -0.336696)
(-9.90197e-16 -0.0789849 -1.12268)
(-9.77149e-16 1.36052 -0.822477)
(-1.07502e-15 -0.158187 -0.9214)
(-1.12496e-15 -1.51126 -2.11061)
(-1.12866e-15 -1.47122 -2.66522)
(-1.13122e-15 -1.05919 -2.83274)
(-1.13136e-15 -0.579077 -2.85462)
(-1.1407e-15 0.0488975 -2.90012)
(-1.13729e-15 0.355259 -2.90579)
(-1.10351e-15 0.459684 -2.94494)
(-1.11841e-15 0.531018 -2.96891)
(-1.17321e-15 0.804436 -2.77085)
(-1.18041e-15 1.45453 -2.79273)
(-3.94614e-15 -0.189017 8.08481)
(-3.81677e-15 -0.173352 8.00916)
(-3.7036e-15 -0.149707 7.93675)
(-3.58015e-15 -0.131521 7.85688)
(-3.44471e-15 -0.113808 7.76722)
(-3.29959e-15 -0.0984079 7.66988)
(-3.14365e-15 -0.0842472 7.56397)
(-2.97751e-15 -0.0715276 7.44953)
(-2.80142e-15 -0.0603959 7.32657)
(-2.61586e-15 -0.0508068 7.19546)
(-2.4214e-15 -0.0425266 7.05648)
(-2.21897e-15 -0.0366224 6.91001)
(-2.00918e-15 -0.0339256 6.75659)
(-1.79292e-15 -0.033501 6.59709)
(-1.57143e-15 -0.0348068 6.43225)
(-1.34601e-15 -0.0395148 6.26283)
(-1.11707e-15 -0.0486245 6.08943)
(-8.85131e-16 -0.0615549 5.91268)
(-6.51092e-16 -0.0790338 5.73358)
(-4.15883e-16 -0.101039 5.55331)
(-1.81272e-16 -0.127724 5.37403)
(4.86832e-17 -0.159145 5.19957)
(2.68349e-16 -0.195173 5.0354)
(4.68629e-16 -0.23652 4.88952)
(6.37441e-16 -0.284727 4.77205)
(7.60701e-16 -0.34291 4.69441)
(8.2512e-16 -0.413528 4.66691)
(8.22623e-16 -0.497203 4.69487)
(7.56728e-16 -0.593403 4.77382)
(6.45644e-16 -0.702422 4.88744)
(5.17374e-16 -0.823105 5.01158)
(3.99872e-16 -0.953068 5.12024)
(3.12922e-16 -1.0902 5.19041)
(2.64616e-16 -1.23359 5.20522)
(2.52101e-16 -1.38192 5.15961)
(2.65769e-16 -1.53265 5.07154)
(2.95436e-16 -1.6916 4.99526)
(3.36717e-16 -1.89161 5.02336)
(3.96127e-16 -2.18217 5.25865)
(4.89235e-16 -2.60627 5.75655)
(6.27684e-16 -3.18981 6.48913)
(8.0208e-16 -3.9303 7.37782)
(9.77062e-16 -4.8277 8.35818)
(1.10063e-15 -5.87335 9.4116)
(1.12015e-15 -7.07621 10.547)
(1.00473e-15 -8.42626 11.7644)
(7.64421e-16 -9.86135 13.0053)
(4.54992e-16 -11.2206 14.1126)
(1.63304e-16 -12.192 14.8219)
(-2.29209e-17 -12.3526 14.8282)
(-6.11492e-17 -11.39 13.929)
(9.50816e-18 -9.57236 12.3033)
(1.02432e-16 -8.01282 10.64)
(1.67594e-16 -7.61766 9.38756)
(1.7504e-16 -7.95224 7.93977)
(5.51244e-17 -8.31692 5.55901)
(-2.30874e-16 -8.25579 2.36001)
(-6.33578e-16 -6.72939 -1.18957)
(-7.98659e-16 -4.09193 -1.78731)
(-8.08773e-16 -1.82786 -1.66613)
(-8.01438e-16 -0.676715 -1.47716)
(-8.03871e-16 0.325443 -1.00814)
(-8.29626e-16 0.798429 -1.58693)
(-7.98542e-16 2.12248 -1.74015)
(-9.19922e-16 0.637576 -0.491062)
(-9.78303e-16 -0.498632 -0.618152)
(-9.86946e-16 -0.161565 -1.40879)
(-9.72452e-16 1.29067 -1.05433)
(-1.04891e-15 0.724465 -0.186426)
(-1.11653e-15 -1.02803 -1.82848)
(-1.12832e-15 -1.22745 -2.5972)
(-1.13064e-15 -0.942159 -2.86772)
(-1.13003e-15 -0.515275 -2.92712)
(-1.13277e-15 -0.0128786 -2.94504)
(-1.14814e-15 0.285442 -2.946)
(-1.13283e-15 0.444267 -2.98436)
(-1.09972e-15 0.535794 -3.04223)
(-1.10363e-15 0.787848 -2.85864)
(-1.18332e-15 1.22453 -2.58099)
(-3.52646e-15 -0.172786 7.79895)
(-3.32155e-15 -0.153062 7.6621)
(-3.16618e-15 -0.127842 7.55546)
(-2.99259e-15 -0.10836 7.43377)
(-2.80854e-15 -0.0893745 7.30349)
(-2.61449e-15 -0.0735017 7.16515)
(-2.41017e-15 -0.059294 7.0185)
(-2.19695e-15 -0.0463259 6.86415)
(-1.97612e-15 -0.0342446 6.70301)
(-1.74938e-15 -0.022931 6.53649)
(-1.51884e-15 -0.0132489 6.36608)
(-1.28672e-15 -0.00634661 6.19336)
(-1.05528e-15 -0.00279215 6.0206)
(-8.27336e-16 -0.00218967 5.85044)
(-6.05473e-16 -0.00332342 5.68444)
(-3.92338e-16 -0.00871929 5.5243)
(-1.89783e-16 -0.0196488 5.37224)
(7.30081e-19 -0.0352978 5.22975)
(1.7744e-16 -0.0558916 5.09837)
(3.38993e-16 -0.0816037 4.9797)
(4.83205e-16 -0.111897 4.87604)
(6.06691e-16 -0.146659 4.79043)
(7.06279e-16 -0.186127 4.72573)
(7.77388e-16 -0.231812 4.68564)
(8.15411e-16 -0.28562 4.6734)
(8.16582e-16 -0.350865 4.69164)
(7.79661e-16 -0.429478 4.74118)
(7.07882e-16 -0.521365 4.81893)
(6.10648e-16 -0.623959 4.91609)
(5.02923e-16 -0.734834 5.01884)
(4.01861e-16 -0.851642 5.11065)
(3.22271e-16 -0.973109 5.17425)
(2.72538e-16 -1.09955 5.19499)
(2.53295e-16 -1.23203 5.16577)
(2.58951e-16 -1.37041 5.09478)
(2.81558e-16 -1.51765 5.01562)
(3.15612e-16 -1.69091 4.99238)
(3.62494e-16 -1.92534 5.10926)
(4.32464e-16 -2.26988 5.4417)
(5.39502e-16 -2.75135 6.01245)
(6.88264e-16 -3.38151 6.78062)
(8.61903e-16 -4.15076 7.67745)
(1.02146e-15 -5.06837 8.6573)
(1.11643e-15 -6.13439 9.71539)
(1.10079e-15 -7.3581 10.862)
(9.53744e-16 -8.72057 12.0878)
(6.95217e-16 -10.1412 13.3165)
(3.86869e-16 -11.4325 14.3692)
(1.1535e-16 -12.2605 14.9625)
(-3.99698e-17 -12.2088 14.7817)
(-5.18932e-17 -11.0398 13.6614)
(2.93298e-17 -9.16089 11.8923)
(1.20509e-16 -7.71289 10.2338)
(1.76371e-16 -7.38735 8.99753)
(1.64489e-16 -7.61867 7.49066)
(2.86436e-17 -7.79457 5.14478)
(-2.50995e-16 -7.60985 2.16457)
(-6.30039e-16 -6.34815 -1.10233)
(-7.93047e-16 -4.08261 -1.78108)
(-8.14212e-16 -1.98369 -1.78822)
(-8.08344e-16 -0.731466 -1.55614)
(-8.133e-16 0.121078 -1.28313)
(-8.31792e-16 0.892462 -1.81064)
(-7.96947e-16 1.98148 -1.88975)
(-9.00026e-16 0.818557 -0.657463)
(-9.68737e-16 -0.341621 -0.978172)
(-9.79147e-16 0.0357654 -1.66614)
(-9.66838e-16 1.2195 -1.24108)
(-1.00218e-15 1.42056 0.6596)
(-1.10287e-15 -0.57863 -1.4327)
(-1.12597e-15 -1.05359 -2.43855)
(-1.13e-15 -0.90298 -2.83467)
(-1.12948e-15 -0.51955 -2.9371)
(-1.12825e-15 -0.0249862 -2.97733)
(-1.13833e-15 0.241956 -3.00478)
(-1.14554e-15 0.405734 -3.01626)
(-1.1277e-15 0.509356 -3.0218)
(-1.10332e-15 0.685295 -2.8506)
(-1.11548e-15 1.0158 -2.4868)
(-2.98136e-15 -0.153121 7.40481)
(-2.70492e-15 -0.129948 7.21095)
(-2.50989e-15 -0.1042 7.07298)
(-2.29035e-15 -0.0836767 6.91313)
(-2.06389e-15 -0.0638551 6.74808)
(-1.83004e-15 -0.0480938 6.57705)
(-1.59013e-15 -0.0349258 6.4015)
(-1.34693e-15 -0.023139 6.22326)
(-1.10335e-15 -0.011959 6.04449)
(-8.62663e-16 -0.00136607 5.86773)
(-6.28323e-16 0.00700804 5.69529)
(-4.0412e-16 0.0120705 5.52988)
(-1.93575e-16 0.0131419 5.37496)
(5.34562e-19 0.0104867 5.2333)
(1.75629e-16 0.00549278 5.10601)
(3.29851e-16 -0.00397476 4.99367)
(4.62687e-16 -0.0198747 4.8977)
(5.74547e-16 -0.0418745 4.81838)
(6.65607e-16 -0.069377 4.75549)
(7.36656e-16 -0.102941 4.70907)
(7.87523e-16 -0.141348 4.67989)
(8.17875e-16 -0.183716 4.66875)
(8.27192e-16 -0.230143 4.67593)
(8.14414e-16 -0.281868 4.70205)
(7.79161e-16 -0.339996 4.74655)
(7.22181e-16 -0.406725 4.80802)
(6.46551e-16 -0.483289 4.8836)
(5.58496e-16 -0.570244 4.96781)
(4.67215e-16 -0.665945 5.0519)
(3.83273e-16 -0.76751 5.12487)
(3.16175e-16 -0.872582 5.17503)
(2.72155e-16 -0.981245 5.19132)
(2.52678e-16 -1.09567 5.16703)
(2.54599e-16 -1.21798 5.10604)
(2.72284e-16 -1.34978 5.02999)
(3.00747e-16 -1.50046 4.98393)
(3.39233e-16 -1.69678 5.03351)
(3.93677e-16 -1.97123 5.24626)
(4.7589e-16 -2.35905 5.66854)
(5.96273e-16 -2.88443 6.2995)
(7.5228e-16 -3.5477 7.09449)
(9.20747e-16 -4.33886 7.99636)
(1.06051e-15 -5.26759 8.97569)
(1.12382e-15 -6.34524 10.0389)
(1.07223e-15 -7.57942 11.1955)
(8.95194e-16 -8.94095 12.4243)
(6.21915e-16 -10.3321 13.6297)
(3.18922e-16 -11.5405 14.6101)
(7.11955e-17 -12.2231 15.0651)
(-5.20452e-17 -11.9891 14.6803)
(-3.92164e-17 -10.6902 13.3477)
(5.04027e-17 -8.84272 11.4727)
(1.38004e-16 -7.52685 9.84126)
(1.81941e-16 -7.20062 8.60649)
(1.49829e-16 -7.2713 7.03833)
(2.16618e-19 -7.2559 4.73333)
(-2.70866e-16 -6.96192 1.95218)
(-6.25519e-16 -5.89919 -1.05464)
(-7.8609e-16 -3.96461 -1.81028)
(-8.17617e-16 -2.02063 -1.92429)
(-8.16412e-16 -0.670239 -1.76134)
(-8.24602e-16 0.276024 -1.72044)
(-8.34157e-16 0.906721 -2.11127)
(-7.94945e-16 1.74301 -2.07969)
(-8.75775e-16 1.05698 -0.907743)
(-9.54282e-16 -0.0684938 -1.27428)
(-9.68922e-16 0.236224 -1.93956)
(-9.60111e-16 1.09962 -1.46585)
(-9.79959e-16 1.10781 0.481426)
(-1.0916e-15 -0.165343 -1.01533)
(-1.12224e-15 -0.791858 -2.22158)
(-1.12928e-15 -0.774698 -2.75138)
(-1.12949e-15 -0.45913 -2.91784)
(-1.12701e-15 -0.0127166 -2.98604)
(-1.13158e-15 0.237345 -3.0269)
(-1.14252e-15 0.391677 -3.01761)
(-1.13574e-15 0.486276 -2.97183)
(-1.12573e-15 0.589533 -2.7723)
(-1.09996e-15 0.808045 -2.43145)
(-2.32523e-15 -0.129742 6.92131)
(-1.9868e-15 -0.102726 6.6805)
(-1.76444e-15 -0.0771682 6.52291)
(-1.51462e-15 -0.0555233 6.33987)
(-1.26627e-15 -0.0348695 6.15924)
(-1.01825e-15 -0.0193267 5.97895)
(-7.73891e-16 -0.00760266 5.80272)
(-5.3738e-16 0.00205642 5.63335)
(-3.12756e-16 0.0109229 5.47355)
(-1.03943e-16 0.0186507 5.3259)
(8.56669e-17 0.0237302 5.19225)
(2.52975e-16 0.0248756 5.07448)
(3.96512e-16 0.021572 4.97453)
(5.16963e-16 0.0149442 4.89264)
(6.14806e-16 0.0060506 4.82698)
(6.90565e-16 -0.00593898 4.77593)
(7.45317e-16 -0.022919 4.73988)
(7.82194e-16 -0.0454055 4.71742)
(8.03095e-16 -0.0730562 4.70704)
(8.09233e-16 -0.107264 4.70852)
(8.00991e-16 -0.148011 4.72259)
(7.78959e-16 -0.194464 4.74936)
(7.4335e-16 -0.246593 4.78827)
(6.94877e-16 -0.305301 4.83862)
(6.35068e-16 -0.370283 4.89826)
(5.66384e-16 -0.441517 4.96414)
(4.92803e-16 -0.519023 5.03219)
(4.19843e-16 -0.602913 5.09675)
(3.53945e-16 -0.692792 5.15045)
(3.01267e-16 -0.78683 5.18504)
(2.66119e-16 -0.883747 5.19261)
(2.49981e-16 -0.984697 5.16761)
(2.51202e-16 -1.0932 5.1117)
(2.65987e-16 -1.21288 5.03987)
(2.904e-16 -1.34773 4.98441)
(3.22913e-16 -1.51173 4.99452)
(3.66777e-16 -1.73493 5.12857)
(4.30647e-16 -2.04764 5.43458)
(5.25609e-16 -2.46873 5.93305)
(6.57236e-16 -3.02289 6.60854)
(8.16334e-16 -3.70787 7.42033)
(9.74929e-16 -4.5186 8.32463)
(1.0912e-15 -5.46165 9.30516)
(1.12132e-15 -6.55277 10.3748)
(1.03489e-15 -7.79728 11.5397)
(8.3125e-16 -9.1553 12.765)
(5.47797e-16 -10.5119 13.9345)
(2.54587e-16 -11.6323 14.8243)
(3.32759e-17 -12.1701 15.1195)
(-5.83852e-17 -11.7705 14.5198)
(-2.36181e-17 -10.3763 12.9936)
(7.17754e-17 -8.58251 11.0549)
(1.5371e-16 -7.36847 9.46792)
(1.83408e-16 -6.99585 8.22104)
(1.31352e-16 -6.90342 6.59479)
(-2.88237e-17 -6.73331 4.3394)
(-2.89306e-16 -6.37629 1.74139)
(-6.19907e-16 -5.45698 -1.0331)
(-7.77662e-16 -3.78918 -1.86694)
(-8.18494e-16 -1.98641 -2.08388)
(-8.23058e-16 -0.635102 -2.05799)
(-8.3125e-16 0.261733 -2.15411)
(-8.33934e-16 0.857961 -2.41108)
(-7.92456e-16 1.52583 -2.30196)
(-8.47372e-16 1.2206 -1.24066)
(-9.34172e-16 0.264937 -1.55211)
(-9.55527e-16 0.360638 -2.14808)
(-9.51732e-16 0.91007 -1.84164)
(-9.5813e-16 0.583331 -0.20142)
(-1.07791e-15 0.170026 -0.511949)
(-1.11681e-15 -0.513513 -1.91512)
(-1.12788e-15 -0.645204 -2.60402)
(-1.12954e-15 -0.425539 -2.85638)
(-1.12683e-15 -0.0444774 -2.9419)
(-1.12817e-15 0.194353 -2.97581)
(-1.13926e-15 0.356111 -2.93889)
(-1.13225e-15 0.455014 -2.83531)
(-1.13522e-15 0.506241 -2.65022)
(-1.08411e-15 0.656656 -2.16963)
(-1.59315e-15 -0.100746 6.38881)
(-1.21694e-15 -0.0689891 6.12389)
(-9.9532e-16 -0.0444824 5.97173)
(-7.47505e-16 -0.0218778 5.79446)
(-5.15439e-16 -0.000839049 5.6313)
(-2.95776e-16 0.0144095 5.47756)
(-9.29897e-17 0.0244715 5.3385)
(8.91516e-17 0.0310417 5.2162)
(2.47879e-16 0.0359254 5.11172)
(3.81423e-16 0.0385497 5.02531)
(4.91106e-16 0.0376386 4.95502)
(5.79588e-16 0.0323168 4.89853)
(6.48641e-16 0.0227817 4.85573)
(6.98715e-16 0.00992759 4.82733)
(7.31324e-16 -0.00499957 4.81048)
(7.48874e-16 -0.02101 4.80194)
(7.54071e-16 -0.0388946 4.80102)
(7.47835e-16 -0.059787 4.80833)
(7.32226e-16 -0.0835725 4.82231)
(7.07647e-16 -0.112134 4.84328)
(6.74543e-16 -0.147338 4.87202)
(6.33676e-16 -0.18974 4.90837)
(5.85792e-16 -0.239506 4.95124)
(5.32501e-16 -0.297863 4.99918)
(4.76005e-16 -0.364605 5.04964)
(4.19071e-16 -0.438217 5.09911)
(3.65141e-16 -0.517522 5.14345)
(3.17946e-16 -0.601506 5.17758)
(2.80963e-16 -0.689988 5.19586)
(2.56742e-16 -0.782153 5.19287)
(2.46338e-16 -0.877925 5.16475)
(2.48981e-16 -0.9794 5.11195)
(2.62399e-16 -1.09101 5.04444)
(2.83942e-16 -1.21761 4.98635)
(3.12141e-16 -1.36566 4.97561)
(3.48672e-16 -1.55167 5.05838)
(3.99518e-16 -1.80372 5.28)
(4.74166e-16 -2.1479 5.66987)
(5.81233e-16 -2.59584 6.22921)
(7.20951e-16 -3.16807 6.9351)
(8.78465e-16 -3.8676 7.75509)
(1.02258e-15 -4.69512 8.65934)
(1.11223e-15 -5.65779 9.64247)
(1.10851e-15 -6.76794 10.7194)
(9.8931e-16 -8.02598 11.8897)
(7.63154e-16 -9.38046 13.1031)
(4.74436e-16 -10.6982 14.2225)
(1.95234e-16 -11.7277 15.0028)
(2.21556e-18 -12.1193 15.1202)
(-5.91853e-17 -11.5593 14.3038)