/*--------------------------------*- C++ -*----------------------------------*\
| =========                 |                                                 |
| \\      /  F ield         | OpenFOAM: The Open Source CFD Toolbox           |
|  \\    /   O peration     | Version:  4.1                                   |
|   \\  /    A nd           | Web:      www.OpenFOAM.org                      |
|    \\/     M anipulation  |                                                 |
\*---------------------------------------------------------------------------*/
FoamFile
{
    version     2.0;
    format      ascii;
    class       volScalarField;
    location    "9";
    object      p;
}
// * * * * * * * * * * * * * * * * * * * * * * * * * * * * * * * * * * * * * //

dimensions      [0 2 -2 0 0 0 0];

internalField   nonuniform List<scalar> 
6785
(
8.63747e+110
8.63501e+110
8.63446e+110
8.63334e+110
8.63251e+110
8.63086e+110
8.62922e+110
8.6275e+110
8.62538e+110
8.62505e+110
8.62418e+110
8.6234e+110
8.62248e+110
8.62217e+110
8.6208e+110
8.59045e+110
8.58837e+110
8.58853e+110
8.58674e+110
8.58589e+110
8.58412e+110
8.58331e+110
8.58196e+110
8.58174e+110
8.58273e+110
8.58317e+110
8.58391e+110
8.58443e+110
8.58502e+110
8.58601e+110
8.6116e+110
8.61238e+110
8.61315e+110
8.6128e+110
8.61248e+110
8.61241e+110
8.61297e+110
8.61248e+110
8.61421e+110
8.61614e+110
8.61773e+110
8.61882e+110
8.62018e+110
8.62019e+110
8.62144e+110
8.61376e+110
8.61313e+110
8.613e+110
8.61176e+110
8.61067e+110
8.61031e+110
8.6106e+110
8.61136e+110
8.61171e+110
8.61112e+110
8.61044e+110
8.61033e+110
8.61004e+110
8.60975e+110
8.60855e+110
8.59874e+110
8.59835e+110
8.59833e+110
8.59868e+110
8.59848e+110
8.59882e+110
8.60005e+110
8.60074e+110
8.6014e+110
8.60116e+110
8.60081e+110
8.60045e+110
8.60082e+110
8.60099e+110
8.60143e+110
8.61312e+110
8.61278e+110
8.61195e+110
8.61049e+110
8.60902e+110
8.60891e+110
8.60992e+110
8.61006e+110
8.61036e+110
8.6099e+110
8.60975e+110
8.60864e+110
8.60872e+110
8.60825e+110
8.60835e+110
8.59884e+110
8.59861e+110
8.59744e+110
8.59584e+110
8.59472e+110
8.59398e+110
8.59312e+110
8.59297e+110
8.5937e+110
8.59436e+110
8.59502e+110
8.59545e+110
8.59647e+110
8.5967e+110
8.59793e+110
8.60846e+110
8.60966e+110
8.6094e+110
8.60935e+110
8.60925e+110
8.61036e+110
8.61192e+110
8.61324e+110
8.61416e+110
8.61501e+110
8.61638e+110
8.61804e+110
8.61992e+110
8.6211e+110
8.62301e+110
8.62829e+110
8.62895e+110
8.6294e+110
8.63005e+110
8.6308e+110
8.63159e+110
8.63219e+110
8.63259e+110
8.63277e+110
8.6329e+110
8.63316e+110
8.63355e+110
8.63395e+110
8.63433e+110
8.63469e+110
8.62947e+110
8.62951e+110
8.62955e+110
8.62959e+110
8.62961e+110
8.62959e+110
8.62947e+110
8.62928e+110
8.62907e+110
8.6289e+110
8.62877e+110
8.62869e+110
8.62859e+110
8.62859e+110
8.62843e+110
8.62859e+110
8.62863e+110
8.6286e+110
8.62858e+110
8.62852e+110
8.62844e+110
8.62836e+110
8.62834e+110
8.62837e+110
8.62842e+110
8.6285e+110
8.6286e+110
8.62869e+110
8.62887e+110
8.62904e+110
8.62983e+110
8.62996e+110
8.63001e+110
8.63009e+110
8.63013e+110
8.63016e+110
8.6302e+110
8.63026e+110
8.63036e+110
8.63048e+110
8.63061e+110
8.63073e+110
8.63082e+110
8.63089e+110
8.63099e+110
8.63129e+110
8.63124e+110
8.6312e+110
8.63115e+110
8.63111e+110
8.63111e+110
8.63114e+110
8.63117e+110
8.63117e+110
8.63113e+110
8.63103e+110
8.63088e+110
8.63072e+110
8.63062e+110
8.63057e+110
8.62905e+110
8.62894e+110
8.62919e+110
8.62966e+110
8.6302e+110
8.63056e+110
8.63076e+110
8.63081e+110
8.63069e+110
8.63048e+110
8.63018e+110
8.62982e+110
8.62945e+110
8.6291e+110
8.62901e+110
8.62879e+110
8.63005e+110
8.62967e+110
8.62889e+110
8.62762e+110
8.62595e+110
8.62417e+110
8.62242e+110
8.62066e+110
8.61915e+110
8.61789e+110
8.61688e+110
8.61504e+110
8.60983e+110
8.60201e+110
9.14551e+110
9.14503e+110
9.14981e+110
9.15099e+110
9.15354e+110
9.15221e+110
9.15731e+110
9.15534e+110
9.15288e+110
9.14829e+110
9.15806e+110
9.1573e+110
9.151e+110
9.15461e+110
9.14891e+110
9.14124e+110
9.12836e+110
9.12925e+110
9.1177e+110
9.09859e+110
9.09661e+110
9.08187e+110
9.06513e+110
9.04701e+110
9.04523e+110
9.02715e+110
9.00705e+110
8.98852e+110
8.98968e+110
8.96692e+110
8.94183e+110
8.94109e+110
8.91862e+110
8.8939e+110
8.87833e+110
8.88482e+110
8.85865e+110
8.83558e+110
8.83918e+110
8.8149e+110
8.78772e+110
8.77722e+110
8.78617e+110
8.76224e+110
8.73499e+110
8.7269e+110
8.7419e+110
8.71411e+110
8.69692e+110
8.7072e+110
8.68282e+110
8.65487e+110
8.65184e+110
8.66752e+110
8.64431e+110
8.61714e+110
8.61611e+110
8.63745e+110
8.61032e+110
8.599e+110
8.614e+110
8.59085e+110
8.56397e+110
8.56626e+110
8.59026e+110
8.5642e+110
8.55607e+110
8.57274e+110
8.55072e+110
8.52464e+110
8.52979e+110
8.5507e+110
8.53018e+110
8.50532e+110
8.51137e+110
8.53632e+110
8.51206e+110
8.5064e+110
8.53136e+110
8.50509e+110
8.53014e+110
8.57282e+110
8.6044e+110
8.67179e+110
8.66772e+110
8.65988e+110
8.65051e+110
8.64225e+110
8.63583e+110
8.63049e+110
8.626e+110
8.62067e+110
8.61466e+110
8.6315e+110
8.63138e+110
8.62918e+110
8.62618e+110
8.62292e+110
8.6196e+110
8.61664e+110
8.61316e+110
8.61209e+110
8.62958e+110
8.62991e+110
8.62823e+110
8.62585e+110
8.62321e+110
8.62052e+110
8.61772e+110
8.61524e+110
8.61226e+110
8.61171e+110
8.62781e+110
8.62796e+110
8.62632e+110
8.62407e+110
8.62165e+110
8.61909e+110
8.61681e+110
8.61409e+110
8.61381e+110
8.6288e+110
8.62898e+110
8.6272e+110
8.62473e+110
8.62232e+110
8.61995e+110
8.61784e+110
8.61522e+110
8.61453e+110
8.62937e+110
8.62982e+110
8.62873e+110
8.62684e+110
8.62426e+110
8.62144e+110
8.61904e+110
8.61635e+110
8.61544e+110
8.62843e+110
8.6282e+110
8.62663e+110
8.62476e+110
8.62303e+110
8.6205e+110
8.61659e+110
8.61295e+110
8.60913e+110
8.60429e+110
8.61621e+110
8.61401e+110
8.60944e+110
8.60453e+110
8.59975e+110
8.59464e+110
8.58851e+110
8.58037e+110
8.56067e+110
8.56694e+110
8.56256e+110
8.54268e+110
8.53133e+110
8.57125e+110
8.57256e+110
8.565e+110
8.56638e+110
8.56456e+110
8.59402e+110
8.59346e+110
8.58244e+110
8.60282e+110
8.59884e+110
8.58938e+110
8.58842e+110
8.58469e+110
8.60471e+110
8.60086e+110
8.59475e+110
8.59225e+110
8.59126e+110
8.6148e+110
8.61004e+110
8.60711e+110
8.64552e+110
8.63437e+110
8.6158e+110
8.58802e+110
8.55152e+110
8.56303e+110
8.51063e+110
8.43743e+110
8.38929e+110
8.33204e+110
8.36843e+110
8.37009e+110
8.32442e+110
8.39735e+110
8.45929e+110
8.46561e+110
8.54106e+110
8.57231e+110
8.73122e+110
8.87567e+110
8.96319e+110
9.07672e+110
9.15863e+110
9.3425e+110
9.50256e+110
9.62939e+110
9.77925e+110
9.93858e+110
1.00419e+111
1.027e+111
1.03493e+111
1.00803e+111
1.01222e+111
1.00625e+111
1.02574e+111
1.01862e+111
9.13541e+110
9.29207e+110
8.88723e+110
6.62318e+110
6.16732e+110
5.56618e+110
5.50694e+110
4.85492e+110
5.23461e+109
-2.74829e+109
-1.13204e+110
-1.04281e+110
-1.53387e+110
-7.62713e+110
-7.09914e+110
-8.26089e+110
-1.6969e+111
-1.72777e+111
-1.61326e+111
-8.99396e+110
8.15304e+110
8.17498e+105
1.31138e+106
2.74996e+106
4.67657e+106
1.8508e+106
2.0197e+106
5.85146e+106
8.79005e+106
1.12621e+107
1.55731e+107
2.45051e+106
8.14263e+106
1.23473e+107
1.02371e+106
4.48286e+106
1.08166e+107
1.95072e+106
-5.78771e+105
7.50221e+106
-9.81928e+106
-3.09889e+106
-7.39793e+106
9.94217e+106
8.57693e+106
4.35401e+106
2.07787e+106
1.01738e+107
5.27168e+106
4.71739e+105
1.98432e+106
1.7717e+106
3.03816e+106
-1.15501e+106
8.46487e+104
-4.45082e+106
-4.78664e+106
-6.05829e+106
-5.09418e+106
-2.50544e+106
-1.65521e+106
-9.9359e+104
8.69791e+104
1.30818e+106
1.54724e+105
1.97628e+106
1.68421e+106
1.42916e+106
8.33774e+105
4.95056e+104
-3.86276e+105
-8.80239e+105
-1.09275e+106
-6.39772e+105
-1.64146e+105
-1.54238e+104
2.1299e+104
5.1025e+104
3.66893e+104
-5.9839e+104
-2.77294e+105
-5.89149e+105
-9.35053e+105
-1.26674e+106
-1.57391e+106
-1.91352e+106
-2.40387e+106
-3.2052e+106
-4.47886e+106
-6.43767e+106
-9.46223e+106
-1.41722e+107
-2.16216e+107
-3.21741e+107
-4.77078e+107
-4.23864e+107
-1.84591e+107
-1.11036e+107
-1.30161e+109
-1.80579e+110
6.96381e+105
1.00167e+106
2.52005e+106
4.82799e+106
2.85591e+106
1.61631e+106
5.78894e+106
8.80456e+106
1.14594e+107
1.618e+107
2.46562e+106
7.28794e+106
9.68939e+106
-9.94005e+105
1.72548e+106
1.10561e+107
-7.97472e+105
-1.3458e+106
7.59624e+105
-1.20802e+107
-4.34938e+106
-7.96029e+106
1.18169e+107
5.42253e+106
1.71403e+106
2.13972e+106
8.78128e+106
5.80784e+106
2.80655e+106
2.55745e+106
1.64005e+106
3.58731e+106
-7.15839e+105
-1.62955e+106
-6.45862e+106
-6.77571e+106
-8.23116e+106
-6.78436e+106
-3.09318e+106
-2.40018e+106
-1.42984e+106
-2.92116e+105
9.51188e+105
-2.68678e+105
2.03077e+106
1.77066e+106
1.6256e+106
8.64509e+105
-1.63888e+105
-6.39746e+105
-1.32577e+106
-1.63539e+106
-1.10287e+106
-4.7465e+105
-2.89239e+105
-2.68003e+105
-2.40293e+105
-2.47791e+105
-3.46987e+105
-5.96255e+105
-9.70456e+105
-1.41214e+106
-1.86819e+106
-2.31034e+106
-2.80608e+106
-3.52226e+106
-4.68186e+106
-6.53227e+106
-9.40937e+106
-1.38855e+107
-2.08754e+107
-3.19596e+107
-4.80664e+107
-7.30159e+107
-8.10452e+107
-1.08311e+108
-9.12069e+108
-7.10271e+109
-3.37553e+110
4.99416e+105
9.70261e+105
2.18241e+106
4.2188e+106
3.36268e+106
2.63435e+106
6.23933e+106
8.91896e+106
1.11818e+107
1.51718e+107
2.96441e+106
4.713e+106
5.83865e+106
-2.0447e+106
2.96058e+105
9.38374e+106
-2.83342e+106
-2.90078e+106
-4.52282e+106
-1.21541e+107
-6.72055e+106
-8.32973e+106
1.01343e+107
2.90509e+106
-1.45778e+106
1.53939e+106
7.14235e+106
6.23933e+106
4.55358e+106
3.36684e+106
2.05976e+106
3.85819e+106
-6.11446e+105
-2.98269e+106
-7.6305e+106
-8.22511e+106
-9.36198e+106
-7.24724e+106
-3.15449e+106
-3.10606e+106
-2.46598e+106
-5.79524e+105
6.12187e+105
-2.23548e+105
2.09384e+106
1.99541e+106
1.85253e+106
9.78696e+105
-1.78581e+105
-7.22079e+105
-1.47585e+106
-1.80132e+106
-1.30966e+106
-6.13343e+105
-3.3053e+105
-2.36773e+105
-1.7694e+105
-1.94967e+105
-3.29366e+105
-6.14383e+105
-1.0119e+106
-1.47417e+106
-1.97025e+106
-2.47212e+106
-3.03778e+106
-3.83169e+106
-5.0889e+106
-7.08797e+106
-1.02132e+107
-1.51051e+107
-2.27646e+107
-3.49841e+107
-5.2953e+107
-8.26365e+107
-1.04942e+108
-1.65756e+108
-1.35705e+109
-8.57109e+109
-2.92144e+110
5.74687e+105
1.37067e+106
2.60514e+106
4.70772e+106
4.67781e+106
4.40801e+106
7.5234e+106
1.00237e+107
1.21561e+107
1.53399e+107
3.37667e+106
2.6021e+106
2.64393e+106
-2.11748e+106
5.00349e+105
9.17933e+106
-4.26177e+106
-4.37201e+106
-8.73194e+106
-1.09148e+107
-8.17959e+106
-8.05244e+106
8.43786e+106
9.40604e+105
-3.72836e+106
1.36836e+106
6.3446e+106
7.12679e+106
7.05163e+106
4.78452e+106
3.20331e+106
4.62172e+106
-2.21351e+105
-4.07278e+106
-8.51713e+106
-9.32327e+106
-1.00954e+107
-7.35877e+106
-3.05698e+106
-3.46482e+106
-3.00404e+106
-5.83154e+105
5.76402e+105
8.73595e+104
2.37211e+106
2.3679e+106
2.16462e+106
1.11771e+106
-1.66603e+105
-8.21271e+105
-1.6442e+106
-1.92582e+106
-1.45699e+106
-7.17773e+105
-3.23408e+105
-1.26633e+105
-1.6415e+104
-4.02998e+104
-2.15414e+105
-5.47306e+105
-9.7769e+105
-1.45539e+106
-1.97111e+106
-2.51417e+106
-3.13528e+106
-3.98555e+106
-5.29981e+106
-7.37518e+106
-1.06302e+107
-1.5758e+107
-2.38144e+107
-3.67835e+107
-5.60969e+107
-9.0304e+107
-1.27136e+108
-2.19254e+108
-1.57084e+109
-7.28244e+109
-1.3093e+110
7.68939e+105
1.91679e+106
3.31578e+106
5.55615e+106
6.15144e+106
6.37138e+106
9.13891e+106
1.1453e+107
1.34291e+107
1.55223e+107
3.40176e+106
4.5259e+105
-3.5874e+105
-2.62735e+106
1.20493e+106
9.4207e+106
-5.33644e+106
-6.31388e+106
-1.23015e+107
-1.08346e+107
-9.31457e+106
-8.41867e+106
6.37261e+106
-8.41268e+105
-6.39894e+106
9.38475e+105
5.91362e+106
7.78846e+106
9.36361e+106
6.00294e+106
4.32718e+106
5.34904e+106
5.92409e+104
-5.0429e+106
-9.35763e+106
-1.05318e+107
-1.07758e+107
-7.54125e+106
-3.19205e+106
-3.83737e+106
-3.34686e+106
-4.60924e+105
6.59231e+105
4.76796e+105
2.73268e+106
2.73809e+106
2.46957e+106
1.20877e+106
-2.14564e+105
-1.00738e+106
-1.92189e+106
-2.11254e+106
-1.62313e+106
-8.40029e+105
-3.41616e+105
-4.08591e+104
1.24438e+105
1.0263e+105
-1.0519e+105
-4.83348e+105
-9.5533e+105
-1.45738e+106
-1.99056e+106
-2.56654e+106
-3.23581e+106
-4.13855e+106
-5.50821e+106
-7.65852e+106
-1.10397e+107
-1.63987e+107
-2.48469e+107
-3.85901e+107
-5.93176e+107
-9.83423e+107
-1.46431e+108
-2.78164e+108
-1.64376e+109
-4.40632e+109
4.26193e+109
1.01079e+106
2.55479e+106
4.21083e+106
6.6236e+106
7.83872e+106
8.54941e+106
1.10501e+107
1.31439e+107
1.48547e+107
1.57526e+107
3.4504e+106
-1.28479e+106
-2.9313e+106
-3.53482e+106
2.17609e+106
9.82394e+106
-6.19053e+106
-8.58629e+106
-1.53361e+107
-1.13464e+107
-1.0178e+107
-9.19346e+106
4.07203e+106
-2.48153e+106
-8.81967e+106
5.81119e+105
5.90824e+106
8.4708e+106
1.11602e+107
7.1484e+106
5.22376e+106
5.71239e+106
2.12952e+105
-5.90677e+106
-1.01895e+107
-1.16842e+107
-1.14054e+107
-7.8383e+106
-3.53423e+106
-4.29257e+106
-3.58903e+106
-2.51536e+105
8.41925e+105
9.67808e+105
3.17503e+106
3.12407e+106
2.7657e+106
1.2624e+106
-3.13555e+105
-1.2859e+106
-2.31502e+106
-2.36636e+106
-1.82159e+106
-9.76031e+105
-3.76066e+105
2.65593e+104
2.46215e+105
2.28239e+105
-8.24168e+103
-4.30621e+105
-9.47574e+105
-1.4824e+106
-2.03774e+106
-2.64123e+106
-3.3503e+106
-4.29953e+106
-5.72218e+106
-7.94889e+106
-1.14596e+107
-1.70543e+107
-2.58987e+107
-4.04458e+107
-6.26098e+107
-1.06582e+108
-1.61229e+108
-3.47116e+108
-1.60518e+109
-5.59811e+108
2.24883e+110
1.26997e+106
3.24903e+106
5.22679e+106
7.8659e+106
9.70771e+106
1.08616e+107
1.31386e+107
1.49739e+107
1.63314e+107
1.60349e+107
3.48013e+106
-2.73633e+106
-5.22659e+106
-4.99921e+106
2.74445e+106
1.00266e+107
-7.38882e+106
-1.11725e+107
-1.79747e+107
-1.22791e+107
-1.07941e+107
-1.02605e+107
1.22081e+106
-4.25289e+106
-1.01886e+107
3.65522e+105
6.2832e+106
9.41017e+106
1.26726e+107
8.20239e+106
5.88094e+106
5.50571e+106
2.40525e+105
-6.70483e+106
-1.10864e+107
-1.26797e+107
-1.20219e+107
-8.25833e+106
-4.02687e+106
-4.83952e+106
-3.77547e+106
2.72233e+104
1.1154e+106
1.56016e+106
3.69708e+106
3.54002e+106
3.0472e+106
1.3039e+106
-4.69072e+105
-1.67837e+106
-2.83039e+106
-2.68421e+106
-2.0566e+106
-1.1203e+106
-4.11681e+105
9.4826e+104
3.6803e+105
3.51759e+105
8.4518e+104
-3.8213e+105
-9.43986e+105
-1.51591e+106
-2.09808e+106
-2.72622e+106
-3.46807e+106
-4.45799e+106
-5.92991e+106
-8.23031e+106
-1.18689e+107
-1.7696e+107
-2.69265e+107
-4.22778e+107
-6.57999e+107
-1.14787e+108
-1.71429e+108
-4.28438e+108
-1.46984e+109
3.64824e+109
3.91511e+110
1.53918e+106
3.98645e+106
6.32767e+106
9.25541e+106
1.17093e+107
1.32513e+107
1.5324e+107
1.6878e+107
1.78158e+107
1.63674e+107
3.5071e+106
-3.91871e+106
-7.2282e+106
-6.74929e+106
2.75531e+106
9.96034e+106
-9.09653e+106
-1.4065e+107
-2.02411e+107
-1.38339e+107
-1.14221e+107
-1.15773e+107
-2.30379e+106
-6.05798e+106
-1.01412e+107
3.30607e+105
6.91855e+106
1.05827e+107
1.40552e+107
9.1423e+106
6.39845e+106
4.83719e+106
1.78385e+105
-7.44666e+106
-1.20907e+107
-1.35493e+107
-1.2705e+107
-8.82499e+106
-4.76779e+106
-5.46935e+106
-3.90052e+106
3.61323e+105
1.45988e+106
2.23993e+106
4.28402e+106
3.97095e+106
3.3047e+106
1.31812e+106
-7.14462e+105
-2.23137e+106
-3.47736e+106
-3.06607e+106
-2.33159e+106
-1.27266e+106
-4.43368e+105
1.72368e+105
4.98789e+105
4.80318e+105
1.77105e+105
-3.36007e+105
-9.41951e+105
-1.55181e+106
-2.16207e+106
-2.81339e+106
-3.58341e+106
-4.60967e+106
-6.12711e+106
-8.49638e+106
-1.22575e+107
-1.83082e+107
-2.7908e+107
-4.40452e+107
-6.87796e+107
-1.22836e+108
-1.78383e+108
-5.21136e+108
-1.21168e+109
8.20384e+109
5.38804e+110
1.8158e+106
4.7534e+106
7.49495e+106
1.07673e+107
1.3809e+107
1.56794e+107
1.75648e+107
1.88259e+107
1.92912e+107
1.67444e+107
3.5215e+106
-4.87724e+106
-8.91006e+106
-8.22846e+106
2.74611e+106
9.49203e+106
-1.13167e+107
-1.72324e+107
-2.2175e+107
-1.59445e+107
-1.24478e+107
-1.30899e+107
-6.30593e+106
-7.83223e+106
-8.90188e+106
4.48697e+105
7.71465e+106
1.18396e+107
1.53283e+107
9.99274e+106
6.81341e+106
3.97952e+106
-3.25414e+104
-8.14432e+106
-1.3198e+107
-1.43535e+107
-1.35592e+107
-9.61775e+106
-5.78516e+106
-6.15717e+106
-3.95461e+106
7.35771e+105
1.86294e+106
2.99022e+106
4.91983e+106
4.38726e+106
3.51345e+106
1.23978e+106
-1.07596e+106
-2.97313e+106
-4.25889e+106
-3.51128e+106
-2.65012e+106
-1.43482e+106
-4.72191e+105
2.60124e+105
6.39888e+105
6.14241e+105
2.68933e+105
-2.95012e+105
-9.45478e+105
-1.59306e+106
-2.23069e+106
-2.9037e+106
-3.69875e+106
-4.75774e+106
-6.31693e+106
-8.75024e+106
-1.26265e+107
-1.88892e+107
-2.8839e+107
-4.57307e+107
-7.15002e+107
-1.30522e+108
-1.84718e+108
-6.19485e+108
-7.84207e+108
1.30725e+110
6.742e+110
2.10089e+106
5.53938e+106
8.71984e+106
1.23792e+107
1.59826e+107
1.81183e+107
1.98438e+107
2.08043e+107
2.07571e+107
1.7157e+107
3.50585e+106
-5.67205e+106
-1.03314e+107
-9.36871e+106
2.63343e+106
8.18273e+106
-1.39237e+107
-2.06389e+107
-2.42062e+107
-1.83335e+107
-1.40099e+107
-1.47876e+107
-1.07268e+107
-9.5051e+106
-6.92449e+106
7.58285e+105
8.62089e+106
1.31031e+107
1.65001e+107
1.08006e+107
7.14321e+106
3.08422e+106
-5.07962e+105
-8.88526e+106
-1.44156e+107
-1.52189e+107
-1.46045e+107
-1.06364e+107
-6.91404e+106
-6.83906e+106
-3.93839e+106
1.14031e+106
2.30969e+106
3.78226e+106
5.58164e+106
4.79086e+106
3.65276e+106
9.95488e+105
-1.55521e+106
-3.88567e+106
-5.16857e+106
-4.01906e+106
-3.01554e+106
-1.60735e+106
-4.9984e+105
3.57748e+105
7.9269e+105
7.55245e+105
3.61305e+105
-2.59873e+105
-9.5688e+105
-1.64183e+106
-2.30576e+106
-2.99812e+106
-3.81486e+106
-4.90268e+106
-6.49953e+106
-8.99254e+106
-1.29759e+107
-1.94378e+107
-2.97163e+107
-4.7318e+107
-7.39505e+107
-1.37329e+108
-1.93938e+108
-7.13306e+108
-1.60009e+108
1.78993e+110
7.81808e+110
2.39514e+106
6.34474e+106
9.99758e+106
1.40761e+107
1.82157e+107
2.05579e+107
2.21545e+107
2.28091e+107
2.22223e+107
1.76003e+107
3.4511e+106
-6.35463e+106
-1.15782e+107
-1.03636e+107
2.1004e+106
6.08132e+106
-1.67813e+107
-2.42234e+107
-2.67423e+107
-2.09604e+107
-1.60785e+107
-1.67546e+107
-1.53846e+107
-1.09291e+107
-4.93623e+106
1.19097e+106
9.6154e+106
1.43808e+107
1.74954e+107
1.16128e+107
7.3733e+106
2.1401e+106
-1.25552e+106
-9.8022e+106
-1.57555e+107
-1.62325e+107
-1.57781e+107
-1.17785e+107
-8.03935e+106
-7.48281e+106
-3.84172e+106
1.561e+106
2.78644e+106
4.59162e+106
6.24923e+106
5.19349e+106
3.70007e+106
5.48441e+105
-2.13109e+106
-4.94573e+106
-6.20407e+106
-4.59349e+106
-3.42955e+106
-1.78908e+106
-5.26873e+105
4.65223e+105
9.58794e+105
9.06173e+105
4.56432e+105
-2.30293e+105
-9.77438e+105
-1.69914e+106
-2.38794e+106
-3.09664e+106
-3.93103e+106
-5.04353e+106
-6.67423e+106
-9.22329e+106
-1.33057e+107
-1.99545e+107
-3.05395e+107
-4.87922e+107
-7.61679e+107
-1.42341e+108
-2.09701e+108
-7.90339e+108
6.98814e+108
2.27297e+110
8.65881e+110
2.69969e+106
7.17419e+106
1.13221e+107
1.58469e+107
2.04915e+107
2.30058e+107
2.44967e+107
2.48399e+107
2.36928e+107
1.80756e+107
3.39092e+106
-6.96402e+106
-1.27112e+107
-1.13365e+107
1.03936e+106
3.34292e+106
-1.98305e+107
-2.78551e+107
-2.98113e+107
-2.41508e+107
-1.86824e+107
-1.91413e+107
-1.94714e+107
-1.19936e+107
-3.31921e+106
1.69989e+106
1.06728e+107
1.56408e+107
1.82315e+107
1.24749e+107
7.49516e+106
1.16795e+106
-2.25394e+106
-1.09368e+107
-1.71861e+107
-1.73992e+107
-1.70537e+107
-1.29659e+107
-9.14475e+106
-8.08758e+106
-3.64238e+106
1.98768e+106
3.28324e+106
5.41454e+106
6.89888e+106
5.57442e+106
3.61763e+106
-1.2701e+105
-2.792e+106
-6.15306e+106
-7.36984e+106
-5.24561e+106
-3.89546e+106
-1.97778e+106
-5.51783e+105
5.84508e+105
1.14018e+106
1.07003e+106
5.57274e+105
-2.04541e+105
-1.00672e+106
-1.76359e+106
-2.47392e+106
-3.19476e+106
-4.04185e+106
-5.17467e+106
-6.83586e+106
-9.43737e+106
-1.36113e+107
-2.0435e+107
-3.1305e+107
-5.013e+107
-7.82367e+107
-1.44376e+108
-2.3577e+108
-8.36366e+108
1.82372e+109
2.75592e+110
9.35405e+110
3.01546e+106
8.02744e+106
1.26877e+107
1.76804e+107
2.27868e+107
2.54748e+107
2.68739e+107
2.68987e+107
2.51687e+107
1.85809e+107
3.36967e+106
-7.52475e+106
-1.37699e+107
-1.23512e+107
-5.21695e+105
9.12503e+104
-2.30514e+107
-3.13866e+107
-3.30878e+107
-2.78546e+107
-2.17985e+107
-2.19842e+107
-2.23466e+107
-1.25546e+107
-1.96917e+106
2.36748e+106
1.17306e+107
1.6758e+107
1.87025e+107
1.3418e+107
7.55483e+106
2.74379e+105
-3.45535e+106
-1.22505e+107
-1.86654e+107
-1.86863e+107
-1.84249e+107
-1.41588e+107
-1.01903e+107
-8.63524e+106
-3.30704e+106
2.4264e+106
3.78812e+106
6.25106e+106
7.49709e+106
5.90569e+106
3.34664e+106
-1.03608e+106
-3.56217e+106
-7.52666e+106
-8.67284e+106
-5.99156e+106
-4.42524e+106
-2.17148e+106
-5.72656e+105
7.1808e+105
1.33729e+106
1.24658e+106
6.63911e+105
-1.83155e+105
-1.04667e+106
-1.83674e+106
-2.56276e+106
-3.2898e+106
-4.14395e+106
-5.29266e+106
-6.98155e+106
-9.63189e+106
-1.38906e+107
-2.08777e+107
-3.2014e+107
-5.13092e+107
-8.03022e+107
-1.4237e+108
-2.76629e+108
-8.31139e+108
3.23406e+109
3.22024e+110
9.74675e+110
3.34302e+106
8.90357e+106
1.40923e+107
1.95655e+107
2.509e+107
2.79766e+107
2.92894e+107
2.89897e+107
2.66503e+107
1.91105e+107
3.39084e+106
-8.04914e+106
-1.47818e+107
-1.34457e+107
-2.51785e+106
-3.57344e+106
-2.6429e+107
-3.47682e+107
-3.63168e+107
-3.13738e+107
-2.50271e+107
-2.49802e+107
-2.43599e+107
-1.25831e+107
-8.19492e+105
3.19325e+106
1.27757e+107
1.76965e+107
1.89507e+107
1.45289e+107
7.59556e+106
-4.89972e+105
-4.70584e+106
-1.36713e+107
-2.01828e+107
-2.00711e+107
-1.98938e+107
-1.5323e+107
-1.10887e+107
-9.09381e+106
-2.82962e+106
2.87236e+106
4.28202e+106
7.08205e+106
8.00773e+106
6.14652e+106
2.83194e+106
-2.09653e+106
-4.47685e+106
-9.10927e+106
-1.01233e+107
-6.81044e+106
-5.0196e+106
-2.36643e+106
-5.87106e+105
8.70048e+105
1.5518e+106
1.43543e+106
7.76145e+105
-1.66333e+105
-1.09845e+106
-1.92046e+106
-2.65415e+106
-3.37896e+106
-4.23337e+106
-5.39298e+106
-7.10657e+106
-9.80177e+106
-1.4139e+107
-2.12774e+107
-3.26653e+107
-5.23039e+107
-8.25493e+107
-1.36092e+108
-3.35112e+108
-7.46779e+108
4.9341e+109
3.66168e+110
9.99294e+110
3.68311e+106
9.80443e+106
1.55413e+107
2.14966e+107
2.74059e+107
3.05174e+107
3.17473e+107
3.11203e+107
2.81415e+107
1.96652e+107
3.44609e+106
-8.54099e+106
-1.57656e+107
-1.46415e+107
-4.87551e+106
-7.56377e+106
-2.99007e+107
-3.80349e+107
-3.94402e+107
-3.44062e+107
-2.80693e+107
-2.78813e+107
-2.58241e+107
-1.21225e+107
1.44901e+105
4.15319e+106
1.38794e+107
1.85488e+107
1.91462e+107
1.58375e+107
7.58697e+106
-1.19031e+106
-5.89042e+106
-1.51351e+107
-2.17206e+107
-2.15371e+107
-2.14552e+107
-1.6433e+107
-1.18129e+107
-9.45838e+106
-2.25366e+106
3.31831e+106
4.75114e+106
7.90892e+106
8.46465e+106
6.27763e+106
2.05954e+106
-3.20122e+106
-5.57235e+106
-1.09482e+107
-1.17152e+107
-7.7214e+106
-5.69158e+106
-2.56302e+106
-5.93954e+105
1.04454e+106
1.78588e+106
1.63582e+106
8.92489e+105
-1.5566e+105
-1.16442e+106
-2.0191e+106
-2.75209e+106
-3.46411e+106
-4.31064e+106
-5.47563e+106
-7.21031e+106
-9.94623e+106
-1.43564e+107
-2.16335e+107
-3.32629e+107
-5.31025e+107
-8.51498e+107
-1.2728e+108
-4.07304e+108
-5.49324e+108
6.91384e+109
4.06362e+110
1.00364e+111
4.03691e+106
1.07315e+107
1.70433e+107
2.34711e+107
2.97437e+107
3.30894e+107
3.42529e+107
3.32957e+107
2.96486e+107
2.02507e+107
3.54145e+106
-8.99475e+106
-1.67313e+107
-1.59526e+107
-7.56315e+106
-1.18064e+107
-3.33935e+107
-4.12341e+107
-4.24928e+107
-3.71177e+107
-3.09053e+107
-3.06412e+107
-2.66355e+107
-1.11928e+107
9.49731e+105
5.23684e+106
1.51153e+107
1.93809e+107
1.94341e+107
1.71281e+107
7.4603e+106
-1.96642e+106
-6.99892e+106
-1.66045e+107
-2.32371e+107
-2.30615e+107
-2.30756e+107
-1.74761e+107
-1.24226e+107
-9.73926e+106
-1.58754e+106
3.7832e+106
5.20764e+106
8.76677e+106
8.92323e+106
6.27201e+106
1.10443e+106
-4.29675e+106
-6.88783e+106
-1.29205e+107
-1.33651e+107
-8.76976e+106
-6.45026e+106
-2.76585e+106
-5.91362e+105
1.24652e+106
2.04385e+106
1.84979e+106
1.01363e+106
-1.50976e+105
-1.24465e+106
-2.13437e+106
-2.85926e+106
-3.54668e+106
-4.37555e+106
-5.53938e+106
-7.29039e+106
-1.00624e+107
-1.45398e+107
-2.19417e+107
-3.38062e+107
-5.37075e+107
-8.80929e+107
-1.19731e+108
-4.81459e+108
-2.02717e+108
9.16787e+109
4.43413e+110
9.97304e+110
4.40763e+106
1.16872e+107
1.85999e+107
2.54885e+107
3.2111e+107
3.56837e+107
3.68109e+107
3.55167e+107
3.11784e+107
2.08737e+107
3.68531e+106
-9.40576e+106
-1.76826e+107
-1.73924e+107
-1.05711e+107
-1.62369e+107
-3.68744e+107
-4.43866e+107
-4.54728e+107
-3.9699e+107
-3.36263e+107
-3.32285e+107
-2.67551e+107
-9.84541e+106
1.62017e+106
6.44057e+106
1.65347e+107
2.01974e+107
1.98109e+107
1.81558e+107
7.1714e+106
-2.87842e+106
-8.04508e+106
-1.80647e+107
-2.47024e+107
-2.46219e+107
-2.471e+107
-1.84577e+107
-1.29728e+107
-9.92989e+106
-8.25667e+105
4.27995e+106
5.67121e+106
9.66234e+106
9.36555e+106
6.17443e+106
1.15358e+105
-5.36619e+106
-8.41521e+106
-1.48696e+107
-1.49777e+107
-9.92256e+106
-7.28577e+106
-2.98719e+106
-5.79489e+105
1.47942e+106
2.32928e+106
2.07934e+106
1.13973e+106
-1.53735e+105
-1.3406e+106
-2.26841e+106
-2.97957e+106
-3.63073e+106
-4.43117e+106
-5.58641e+106
-7.34814e+106
-1.01511e+107
-1.46903e+107
-2.22026e+107
-3.42968e+107
-5.41549e+107
-9.09786e+107
-1.18022e+108
-5.41695e+108
3.27128e+108
1.16959e+110
4.78057e+110
9.83978e+110
4.79754e+106
1.26728e+107
2.02065e+107
2.75475e+107
3.45121e+107
3.83049e+107
3.94229e+107
3.77839e+107
3.27385e+107
2.15461e+107
3.88715e+106
-9.77824e+106
-1.86199e+107
-1.89703e+107
-1.38573e+107
-2.07891e+107
-4.03181e+107
-4.74822e+107
-4.83553e+107
-4.22529e+107
-3.6299e+107
-3.5587e+107
-2.61483e+107
-8.18133e+106
2.19202e+106
7.74688e+106
1.80914e+107
2.10391e+107
2.02262e+107
1.88836e+107
6.74661e+106
-3.77209e+106
-9.04251e+106
-1.95186e+107
-2.61092e+107
-2.62018e+107
-2.63385e+107
-1.94095e+107
-1.34837e+107
-1.00264e+107
2.70535e+104
4.80249e+106
6.1545e+106
1.05787e+107
9.78487e+106
6.07982e+106
-8.33218e+105
-6.4302e+106
-1.01283e+107
-1.67529e+107
-1.65176e+107
-1.1118e+107
-8.18638e+106
-3.24348e+106
-5.61724e+105
1.74665e+106
2.64596e+106
2.32757e+106
1.27217e+106
-1.64904e+105
-1.45304e+106
-2.42064e+106
-3.11302e+106
-3.71696e+106
-4.4778e+106
-5.61601e+106
-7.38208e+106
-1.02104e+107
-1.48051e+107
-2.24134e+107
-3.47269e+107
-5.45103e+107
-9.28943e+107
-1.25736e+108
-5.73481e+108
1.06939e+109
1.4496e+110
5.09815e+110
9.58925e+110
5.20775e+106
1.36882e+107
2.18602e+107
2.96461e+107
3.69494e+107
4.09657e+107
4.20894e+107
4.00999e+107
3.43387e+107
2.22843e+107
4.15878e+106
-1.011e+107
-1.95431e+107
-2.06831e+107
-1.73583e+107
-2.5398e+107
-4.3701e+107
-5.04982e+107
-5.11254e+107
-4.48845e+107
-3.91282e+107
-3.75266e+107
-2.47923e+107
-6.3163e+106
2.70769e+106
9.12928e+106
1.95917e+107
2.19487e+107
2.06692e+107
1.93304e+107
6.27475e+106
-4.26242e+106
-1.00089e+107
-2.0965e+107
-2.74497e+107
-2.77955e+107
-2.79593e+107
-2.03347e+107
-1.396e+107
-1.0036e+107
9.64945e+105
5.34364e+106
6.66945e+106
1.14963e+107
1.01612e+107
5.94405e+106
-1.74474e+106
-7.5432e+106
-1.1994e+107
-1.85427e+107
-1.79893e+107
-1.23612e+107
-9.15007e+106
-3.5449e+106
-5.4598e+105
2.04943e+106
2.99512e+106
2.59512e+106
1.40999e+106
-1.88622e+105
-1.58639e+106
-2.59275e+106
-3.26034e+106
-3.80681e+106
-4.51746e+106
-5.62996e+106
-7.39379e+106
-1.02416e+107
-1.48854e+107
-2.25769e+107
-3.50877e+107
-5.48824e+107
-9.27473e+107
-1.45475e+108
-5.64152e+108
2.04508e+109
1.7553e+110
5.38993e+110
9.32128e+110
5.63689e+106
1.47285e+107
2.35602e+107
3.17821e+107
3.94241e+107
4.36777e+107
4.48127e+107
4.24678e+107
3.59898e+107
2.31069e+107
4.51708e+106
-1.03851e+107
-2.04511e+107
-2.25141e+107
-2.10084e+107
-3.00062e+107
-4.70297e+107
-5.34373e+107
-5.37989e+107
-4.75868e+107
-4.1839e+107
-3.87369e+107
-2.26922e+107
-4.37018e+106
3.2101e+106
1.05803e+107
2.09193e+107
2.29176e+107
2.11679e+107
1.95659e+107
5.85512e+106
-4.27803e+106
-1.09757e+107
-2.23961e+107
-2.87264e+107
-2.93997e+107
-2.95637e+107
-2.12015e+107
-1.43996e+107
-9.95504e+106
1.9568e+106
5.90622e+106
7.23627e+106
1.24136e+107
1.04676e+107
5.67948e+106
-2.63346e+106
-8.74417e+106
-1.39546e+107
-2.0243e+107
-1.94678e+107
-1.37071e+107
-1.01705e+107
-3.87458e+106
-5.34044e+105
2.38996e+106
3.3777e+106
2.8822e+106
1.55218e+106
-2.29529e+105
-1.7454e+106
-2.78586e+106
-3.41946e+106
-3.89764e+106
-4.54807e+106
-5.62641e+106
-7.38136e+106
-1.02423e+107
-1.4928e+107
-2.26927e+107
-3.53617e+107
-5.54035e+107
-8.99317e+107
-1.80008e+108
-4.95897e+108
3.26849e+109
2.08625e+110
5.66846e+110
9.05e+110
6.11862e+106
1.57862e+107
2.53032e+107
3.39526e+107
4.19354e+107
4.64437e+107
4.75953e+107
4.48919e+107
3.7704e+107
2.40323e+107
4.98314e+106
-1.05838e+107
-2.13357e+107
-2.4439e+107
-2.47448e+107
-3.45616e+107
-5.02983e+107
-5.63063e+107
-5.63927e+107
-5.01688e+107
-4.38755e+107
-3.92049e+107
-1.99313e+107
-2.45973e+106
3.75478e+106
1.21077e+107
2.21145e+107
2.39174e+107
2.17717e+107
1.97051e+107
5.49957e+106
-4.2521e+106
-1.19692e+107
-2.38231e+107
-2.99852e+107
-3.10164e+107
-3.11414e+107
-2.19838e+107
-1.47893e+107
-9.776e+106
2.9699e+106
6.49901e+106
7.88109e+106
1.33433e+107
1.06919e+107
5.28589e+106
-3.51578e+106
-1.00436e+107
-1.59575e+107
-2.18996e+107
-2.10613e+107
-1.50796e+107
-1.11399e+107
-4.19483e+106
-5.1508e+105
2.76798e+106
3.79246e+106
3.18594e+106
1.69462e+106
-2.96041e+105
-1.93877e+106
-3.00502e+106
-3.59117e+106
-3.98844e+106
-4.56912e+106
-5.60584e+106
-7.34586e+106
-1.02136e+107
-1.4934e+107
-2.2766e+107
-3.55393e+107
-5.62008e+107
-8.53718e+107
-2.29264e+108
-3.4071e+108
4.75085e+109
2.44179e+110
5.942e+110
8.76625e+110
6.63378e+106
1.68474e+107
2.70865e+107
3.61582e+107
4.4483e+107
4.92655e+107
5.0441e+107
4.73785e+107
3.94942e+107
2.50789e+107
5.57973e+106
-1.06852e+107
-2.21809e+107
-2.64286e+107
-2.85093e+107
-3.90157e+107
-5.34659e+107
-5.90993e+107
-5.89499e+107
-5.26778e+107
-4.5684e+107
-3.91202e+107
-1.69552e+107
-7.80352e+105
4.4496e+106
1.37164e+107
2.32252e+107
2.49378e+107
2.2523e+107
1.98198e+107
5.17808e+106
-4.37968e+106
-1.30305e+107
-2.5259e+107
-3.12573e+107
-3.26486e+107
-3.26772e+107
-2.26597e+107
-1.51092e+107
-9.49958e+106
3.99244e+106
7.12778e+106
8.61537e+106
1.42888e+107
1.0842e+107
4.76941e+106
-4.40365e+106
-1.14385e+107
-1.79934e+107
-2.3567e+107
-2.2573e+107
-1.62747e+107
-1.19349e+107
-4.48101e+106
-4.49479e+105
3.17939e+106
4.23845e+106
3.50316e+106