/*--------------------------------*- C++ -*----------------------------------*\
| =========                 |                                                 |
| \\      /  F ield         | OpenFOAM: The Open Source CFD Toolbox           |
|  \\    /   O peration     | Version:  4.1                                   |
|   \\  /    A nd           | Web:      www.OpenFOAM.org                      |
|    \\/     M anipulation  |                                                 |
\*---------------------------------------------------------------------------*/
FoamFile
{
    version     2.0;
    format      ascii;
    class       volScalarField;
    location    "23";
    object      p;
}
// * * * * * * * * * * * * * * * * * * * * * * * * * * * * * * * * * * * * * //

dimensions      [0 2 -2 0 0 0 0];

internalField   nonuniform List<scalar> 
225
(
523.378
469.982
418.15
369.739
324.848
282.831
243.476
206.472
171.378
138.014
107.072
78.9333
49.9044
14.9855
-14.1668
56.9441
34.6831
28.9245
25.2142
19.7401
14.0326
8.87976
4.49099
1.00707
-1.45169
-2.64299
-2.14135
-0.0449172
1.8266
2.08677
-45.8384
-52.4814
-46.7144
-42.5675
-39.4769
-35.8816
-31.9953
-28.0579
-24.1535
-20.4377
-17.0922
-14.0251
-10.9482
-8.29544
-7.06119
0.295341
-2.12271
2.4701
2.79424
2.84782
3.06301
2.97388
2.59657
2.01501
1.25582
0.299069
-0.810281
-1.72058
-1.87282
-1.56235
16.7232
14.3904
15.9441
13.8461
12.4273
11.1837
9.77377
8.39191
7.13447
6.04342
5.14241
4.42987
3.95227
3.91956
4.16441
7.49507
5.47201
6.446
5.22666
5.02366
5.00789
4.92011
4.95343
5.10901
5.35252
5.67181
6.03468
6.35434
6.61105
6.78578
4.02364
2.86819
3.95378
3.63067
4.01749
4.41161
4.71058
5.06123
5.41779
5.74256
6.03225
6.28616
6.46439
6.54541
6.56111
5.70145
5.14363
5.99796
5.76894
5.96744
6.07994
6.10384
6.14914
6.17372
6.16889
6.14519
6.11739
6.08373
6.03787
5.98939
6.00862
5.68322
6.19403
5.91814
5.96096
5.93014
5.85506
5.80796
5.75232
5.69174
5.63248
5.57935
5.53262
5.48652
5.43531
4.68879
4.4811
4.82679
4.65041
4.72318
4.73214
4.71924
4.72744
4.72485
4.71808
4.70848
4.69375
4.67153
4.63627
4.57854
3.31872
3.20256
3.50025
3.44637
3.56602
3.61274
3.64138
3.67637
3.69301
3.69989
3.6979
3.68537
3.66132
3.62307
3.55753
2.34479
2.28462
2.5389
2.54022
2.65859
2.69999
2.7291
2.75621
2.76377
2.76169
2.75028
2.72936
2.69948
2.66067
2.596
1.56571
1.53072
1.73304
1.74682
1.84599
1.87237
1.89471
1.91182
1.91214
1.90527
1.89067
1.86839
1.8388
1.80404
1.74615
0.880981
0.868828
1.02972
1.03439
1.1114
1.12497
1.14278
1.15484
1.15426
1.14929
1.13838
1.12135
1.09636
1.06521
1.01098
0.438833
0.399509
0.455341
0.423211
0.459342
0.440642
0.434282
0.420216
0.399304
0.376617
0.35001
0.321337
0.290926
0.260995
0.217982
)
;

boundaryField
{
    inletFace
    {
        type            zeroGradient;
    }
    inlet
    {
        type            zeroGradient;
    }
    inletWalls
    {
        type            zeroGradient;
    }
    outletInlet
    {
        type            fixedValue;
        value           uniform 0;
    }
}


// ************************************************************************* //
