/*--------------------------------*- C++ -*----------------------------------*\
| =========                 |                                                 |
| \\      /  F ield         | OpenFOAM: The Open Source CFD Toolbox           |
|  \\    /   O peration     | Version:  4.1                                   |
|   \\  /    A nd           | Web:      www.OpenFOAM.org                      |
|    \\/     M anipulation  |                                                 |
\*---------------------------------------------------------------------------*/
FoamFile
{
    version     2.0;
    format      ascii;
    class       surfaceScalarField;
    location    "23";
    object      phi;
}
// * * * * * * * * * * * * * * * * * * * * * * * * * * * * * * * * * * * * * //

dimensions      [0 3 -1 0 0 0 0];

internalField   nonuniform List<scalar> 
420
(
-949.88
2249.78
-1573.96
1924.28
-2054
1779.95
-2424.23
1670.13
-2699.86
1575.83
-2888.38
1488.42
-2993.06
1404.58
-3013.86
1321
-2949.62
1235.66
-2797.25
1147.52
-2551.18
1054.13
-2193.01
941.736
-1687.13
794.064
-1012.65
625.697
287.222
373.332
1876.44
442.747
1854.86
437.301
1785.39
406.697
1700.74
380.579
1601.94
359.898
1509.1
345.29
1419.19
337.532
1328.76
333.476
1239.71
326.943
1154.05
309.599
1071.48
267.455
983.88
191.405
870.107
111.442
705.685
398.67
33.5764
1842.87
-97.387
1985.83
-253.614
1941.62
-371.119
1818.24
-473.182
1704.01
-567.53
1603.45
-651.747
1503.4
-725.793
1402.8
-788.069
1301.99
-837.303
1203.28
-868.223
1102.4
-856.085
971.744
-740.336
754.361
-434.282
399.645
-35.608
28.7727
1814.09
-100.654
2115.26
-225.56
2066.53
-304.496
1897.18
-368.157
1767.67
-416.952
1652.24
-446.226
1532.68
-457.014
1413.59
-451.849
1296.83
-430.147
1181.58
-387.221
1059.47
-311.869
896.392
-192.865
635.354
-48.4122
255.189
-84.0135
169.628
1644.47
146.158
2138.72
123.732
2088.95
122.871
1898.04
126.943
1763.6
135.806
1643.38
149.105
1519.38
166.594
1396.1
186.944
1276.48
208.133
1160.4
229.134
1038.47
243.821
881.7
233.002
646.17
155.24
332.958
71.2175
223.078
1421.39
244.183
2117.62
234.745
2098.39
236.024
1896.76
240.373
1759.25
244.307
1639.45
246.549
1517.14
245.254
1397.4
241.165
1280.56
233.989
1167.57
221.384
1051.08
199.141
903.942
156.144
689.166
78.3122
410.796
149.518
203.322
1218.07
238.374
2082.57
213.621
2123.14
191.412
1918.97
177.205
1773.45
163.775
1652.88
150.041
1530.87
135.899
1411.54
121.075
1295.39
106.923
1181.72
92.8243
1065.17
75.7715
920.994
52.0257
712.913
19.0263
443.8
168.541
171.854
1046.21
221.986
2032.44
199.424
2145.7
170.41
1947.99
152.06
1791.8
137.678
1667.26
122.789
1545.76
108.59
1425.74
95.5942
1308.39
83.1152
1194.2
71.4947
1076.79
58.641
933.845
40.3307
731.225
15.7556
468.376
184.292
146.098
900.116
210.059
1968.47
196.873
2158.88
170.056
1974.81
152.405
1809.45
139.535
1680.13
127.072
1558.23
113.867
1438.95
101.322
1320.93
89.4213
1206.1
76.9878
1089.23
63.0906
947.738
44.3084
750.003
19.1681
493.513
203.459
116.764
783.354
184.847
1900.38
179.628
2164.11
154.308
2000.13
137.214
1826.54
123.994
1693.35
111.362
1570.86
98.9511
1451.35
86.0977
1333.78
73.855
1218.34
62.0898
1100.99
49.0098
960.814
32.8444
766.168
13.1772
513.179
216.641
83.1558
700.194
143.13
1840.41
144.686
2162.56
122.753
2022.05
106.148
1843.15
94.4575
1705.04
82.5727
1582.74
71.1604
1462.77
60.377
1344.56
49.4475
1229.27
39.415
1111.02
29.7294
970.498
18.0754
777.831
5.24155
526.025
221.885
51.2346
648.956
97.9188
1793.74
102.694
2157.77
87.374
2037.38
73.1511
1857.37
63.1423
1715.04
54.2485
1591.63
44.8669
1472.14
36.1562
1353.27
28.1804
1237.24
20.4317
1118.77
13.6915
977.237
6.75605
784.774
-0.386633
533.178
221.49
25.15
623.827
57.7038
1761.15
63.487
2151.97
53.4534
2047.41
43.8694
1866.95
36.1625
1722.75
29.5373
1598.25
23.4941
1478.18
17.0533
1359.71
11.3132
1242.98
6.61607
1123.47
2.4876
981.362
-1.06015
788.319
-3.67975
535.791
217.806
1.45225
622.394
24.0616
1738.5
33.3676
2142.67
27.7142
2053.05
20.3518
1874.31
15.0451
1728.06
9.50417
1603.79
4.55224
1483.14
0.00770324
1364.26
-4.86118
1247.86
-8.37324
1126.98
-9.68209
982.679
-9.74796
788.395
-7.16404
533.209
210.654
-11.75
-3.10648
1.49561
-0.357464
-5.05004
-8.80915
-11.7599
-15.2042
-18.0754
-20.2169
-21.7905
-21.1355
-18.1556
-12.4184
)
;

boundaryField
{
    inletFace
    {
        type            calculated;
        value           nonuniform List<scalar> 
450
(
-9.59544e-14
4.81994e-13
7.66774e-14
-4.38498e-14
7.14118e-14
-1.93167e-13
-6.38311e-14
7.01954e-14
-1.01228e-13
-2.66115e-14
5.81199e-14
-2.91002e-14
-7.13124e-15
7.82516e-15
8.42065e-16
-2.07e-12
-2.53297e-12
1.14408e-13
-1.35123e-13
-2.54365e-13
4.11518e-14
-2.82443e-13
-1.84659e-13
-4.36403e-15
-1.43975e-13
-5.54666e-14
4.33287e-14
-2.67014e-14
-4.23577e-15
5.04701e-16
-2.52643e-12
-2.32335e-12
1.42769e-14
-5.99277e-13
-2.145e-13
-9.88881e-14
-2.47758e-13
-5.35903e-14
-1.06965e-13
-1.15969e-13
-2.2923e-14
-1.18635e-14
-1.70818e-14
7.85618e-15
3.60175e-15
-2.81926e-12
-2.11782e-12
-1.59336e-13
-8.28308e-13
-2.00119e-13
-1.95966e-13
-3.54035e-13
7.11314e-15
-1.19142e-13
-1.57342e-13
-4.05387e-15
-5.31594e-14
-6.74233e-14
2.96365e-14
6.52407e-14
-2.48186e-12
-2.11771e-12
-3.37388e-13
-6.49612e-13
-2.0916e-13
-2.16882e-13
-3.052e-13
-6.0015e-14
-1.70325e-13
-1.51552e-13
-4.50334e-14
-4.18908e-14
-4.54526e-14
1.5624e-14
7.94814e-14
-2.16874e-12
-2.14043e-12
-4.77908e-13
-5.68215e-13
-2.1462e-13
-1.82247e-13
-2.88835e-13
-5.41004e-14
-1.45525e-13
-1.42514e-13
-5.61333e-14
-1.75925e-14
-2.93529e-14
2.437e-14
4.68677e-14
-1.92541e-12
-2.19652e-12
-6.92319e-13
-5.51339e-13
-2.67172e-13
-2.05617e-13
-2.76364e-13
-1.32645e-13
-1.57445e-13
-1.24691e-13
-5.45534e-14
-7.20814e-14
-3.77755e-14
-5.49243e-14
-1.69271e-13
-1.70018e-12
-2.20196e-12
-8.7805e-13
-5.49629e-13
-3.04748e-13
-2.3301e-13
-2.7042e-13
-1.89867e-13
-2.09881e-13
-1.64085e-13
-9.62904e-14
-1.24819e-13
-4.3631e-14
-1.34237e-14
-2.65619e-13
-1.45138e-12
-2.15539e-12
-1.01426e-12
-5.61977e-13
-3.27154e-13
-2.04878e-13
-2.61457e-13
-1.84383e-13
-1.75262e-13
-1.91691e-13
-1.06672e-13
-8.68396e-14
-5.13653e-14
-1.10284e-14
-2.03228e-14
-1.19194e-12
-2.07713e-12
-1.1149e-12
-5.88643e-13
-3.29688e-13
-2.17454e-13
-2.81659e-13
-1.94707e-13
-1.13403e-13
-1.26177e-13
-1.03295e-13
-4.92609e-14
-4.28866e-14
2.16408e-14
9.88832e-14
-9.55638e-13
-2.00841e-12
-1.19295e-12
-6.03103e-13
-3.77255e-13
-2.29022e-13
-2.62642e-13
-1.99133e-13
-7.3518e-14
-1.25395e-13
-1.05121e-13
-4.1915e-14
7.49272e-15
-3.45474e-14
1.15914e-13
-8.34726e-13
-1.9462e-12
-1.22179e-12
-6.3072e-13
-3.95787e-13
-1.77845e-13
-2.33179e-13
-2.08542e-13
-5.81768e-14
-1.45632e-13
-1.13451e-13
4.61464e-14
1.19341e-14
3.662e-14
1.77796e-13
-7.5496e-13
-1.86797e-12
-1.24078e-12
-6.58436e-13
-3.82253e-13
-1.69675e-13
-2.25665e-13
-2.27843e-13
-5.88271e-14
-1.09168e-13
-1.08031e-13
7.93372e-14
7.97222e-15
1.1697e-13
1.55755e-13
-6.8369e-13
-1.80744e-12
-1.254e-12
-6.67783e-13
-3.96875e-13
-1.75218e-13
-2.18232e-13
-2.43013e-13
-5.64809e-14
-1.04817e-13
-1.06367e-13
6.47636e-14
1.6467e-14
1.04609e-13
1.20107e-13
-6.53825e-13
-1.72894e-12
-1.24535e-12
-6.7099e-13
-3.93874e-13
-1.85932e-13
-2.20596e-13
-2.29329e-13
-6.64268e-14
-1.03437e-13
-8.7232e-14
5.17403e-14
2.44841e-14
1.04495e-13
6.66264e-14
9.59544e-14
-4.81994e-13
-7.66774e-14
4.38498e-14
-7.14118e-14
1.93167e-13
6.38311e-14
-7.01954e-14
1.01228e-13
2.66115e-14
-5.81199e-14
2.91002e-14
7.13124e-15
-7.82516e-15
-8.42065e-16
2.07e-12
2.53297e-12
-1.14408e-13
1.35123e-13
2.54365e-13
-4.11518e-14
2.82443e-13
1.84659e-13
4.36403e-15
1.43975e-13
5.54666e-14
-4.33287e-14
2.67014e-14
4.23577e-15
-5.04701e-16
2.52643e-12
2.32335e-12
-1.42769e-14
5.99277e-13
2.145e-13
9.88881e-14
2.47758e-13
5.35903e-14
1.06965e-13
1.15969e-13
2.2923e-14
1.18635e-14
1.70818e-14
-7.85618e-15
-3.60175e-15
2.81926e-12
2.11782e-12
1.59336e-13
8.28308e-13
2.00119e-13
1.95966e-13
3.54035e-13
-7.11314e-15
1.19142e-13
1.57342e-13
4.05387e-15
5.31594e-14
6.74233e-14
-2.96365e-14
-6.52407e-14
2.48186e-12
2.11771e-12
3.37388e-13
6.49612e-13
2.0916e-13
2.16882e-13
3.052e-13
6.0015e-14
1.70325e-13
1.51552e-13
4.50334e-14
4.18908e-14
4.54526e-14
-1.5624e-14
-7.94814e-14
2.16874e-12
2.14043e-12
4.77908e-13
5.68215e-13
2.1462e-13
1.82247e-13
2.88835e-13
5.41004e-14
1.45525e-13
1.42514e-13
5.61333e-14
1.75925e-14
2.93529e-14
-2.437e-14
-4.68677e-14
1.92541e-12
2.19652e-12
6.92319e-13
5.51339e-13
2.67172e-13
2.05617e-13
2.76364e-13
1.32645e-13
1.57445e-13
1.24691e-13
5.45534e-14
7.20814e-14
3.77755e-14
5.49243e-14
1.69271e-13
1.70018e-12
2.20196e-12
8.7805e-13
5.49629e-13
3.04748e-13
2.3301e-13
2.7042e-13
1.89867e-13
2.09881e-13
1.64085e-13
9.62904e-14
1.24819e-13
4.3631e-14
1.34237e-14
2.65619e-13
1.45138e-12
2.15539e-12
1.01426e-12
5.61977e-13
3.27154e-13
2.04878e-13
2.61457e-13
1.84383e-13
1.75262e-13
1.91691e-13
1.06672e-13
8.68396e-14
5.13653e-14
1.10284e-14
2.03228e-14
1.19194e-12
2.07713e-12
1.1149e-12
5.88643e-13
3.29688e-13
2.17454e-13
2.81659e-13
1.94707e-13
1.13403e-13
1.26177e-13
1.03295e-13
4.92609e-14
4.28866e-14
-2.16408e-14
-9.88832e-14
9.55638e-13
2.00841e-12
1.19295e-12
6.03103e-13
3.77255e-13
2.29022e-13
2.62642e-13
1.99133e-13
7.3518e-14
1.25395e-13
1.05121e-13
4.1915e-14
-7.49272e-15
3.45474e-14
-1.15914e-13
8.34726e-13
1.9462e-12
1.22179e-12
6.3072e-13
3.95787e-13
1.77845e-13
2.33179e-13
2.08542e-13
5.81768e-14
1.45632e-13
1.13451e-13
-4.61464e-14
-1.19341e-14
-3.662e-14
-1.77796e-13
7.5496e-13
1.86797e-12
1.24078e-12
6.58436e-13
3.82253e-13
1.69675e-13
2.25665e-13
2.27843e-13
5.88271e-14
1.09168e-13
1.08031e-13
-7.93372e-14
-7.97222e-15
-1.1697e-13
-1.55755e-13
6.8369e-13
1.80744e-12
1.254e-12
6.67783e-13
3.96875e-13
1.75218e-13
2.18232e-13
2.43013e-13
5.64809e-14
1.04817e-13
1.06367e-13
-6.47636e-14
-1.6467e-14
-1.04609e-13
-1.20107e-13
6.53825e-13
1.72894e-12
1.24535e-12
6.7099e-13
3.93874e-13
1.85932e-13
2.20596e-13
2.29329e-13
6.64268e-14
1.03437e-13
8.7232e-14
-5.17403e-14
-2.44841e-14
-1.04495e-13
-6.66264e-14
)
;
    }
    inlet
    {
        type            calculated;
        value           nonuniform List<scalar> 
15
(
-1299.9
-1300.2
-1299.9
-1299.9
-1300.2
-1299.9
-1299.9
-1300.2
-1299.9
-1299.9
-1300.2
-1299.9
-1299.9
-1300.2
-1299.9
)
;
    }
    inletWalls
    {
        type            calculated;
        value           uniform 0;
    }
    outletInlet
    {
        type            calculated;
        value           nonuniform List<scalar> 
15
(
198.263
527.476
785.414
982.022
1128.55
1250
1367.13
1486.59
1606.75
1731.82
1879.02
2054.92
2138.08
1729.89
634.118
)
;
    }
}


// ************************************************************************* //
