/*--------------------------------*- C++ -*----------------------------------*\
| =========                 |                                                 |
| \\      /  F ield         | OpenFOAM: The Open Source CFD Toolbox           |
|  \\    /   O peration     | Version:  4.1                                   |
|   \\  /    A nd           | Web:      www.OpenFOAM.org                      |
|    \\/     M anipulation  |                                                 |
\*---------------------------------------------------------------------------*/
FoamFile
{
    version     2.0;
    format      ascii;
    class       volVectorField;
    location    "23";
    object      U;
}
// * * * * * * * * * * * * * * * * * * * * * * * * * * * * * * * * * * * * * //

dimensions      [0 1 -1 0 0 0 0];

internalField   nonuniform List<vector> 
225
(
(1.16955e-14 0.852195 15.7946)
(9.94673e-15 -4.89458 12.1215)
(-4.34071e-15 -4.19551 12.1321)
(2.02332e-15 -3.60118 11.9966)
(1.10916e-15 -3.00468 11.8778)
(-1.95615e-16 -2.55319 11.6992)
(1.93815e-15 -2.20881 11.4769)
(2.58567e-16 -1.96603 11.2116)
(-5.48235e-17 -1.79854 10.916)
(9.67392e-16 -1.71237 10.5882)
(1.36753e-17 -1.83745 10.1561)
(-2.5627e-16 -2.28566 9.53762)
(3.15937e-16 -2.51301 8.96376)
(-5.41721e-17 -1.06556 8.91351)
(-5.82947e-18 1.76575 7.47095)
(1.50198e-14 -5.35014 22.493)
(1.75372e-14 -14.6049 21.394)
(-7.92022e-16 -13.2708 20.3411)
(1.3091e-15 -11.7697 19.5066)
(1.76112e-15 -11.1561 18.5044)
(-2.84886e-16 -10.6594 17.5174)
(2.06605e-15 -10.0901 16.5714)
(1.27851e-15 -9.525 15.6236)
(3.02113e-17 -8.96544 14.6638)
(9.80354e-16 -8.3673 13.6946)
(3.84028e-16 -7.75708 12.7179)
(-2.99956e-16 -7.30334 11.7194)
(1.83452e-16 -7.01703 10.6244)
(2.93268e-17 -5.73086 9.16109)
(-3.49394e-18 -2.30493 4.58302)
(1.95357e-14 -7.71562 23.9802)
(1.56885e-14 -16.7731 24.6729)
(-9.8848e-17 -13.7365 23.9372)
(5.66803e-15 -12.3062 22.6249)
(1.48494e-15 -11.6447 21.2414)
(6.84663e-16 -10.814 20.0013)
(2.85518e-15 -9.94025 18.7738)
(1.79541e-16 -9.10011 17.5247)
(7.40586e-16 -8.28338 16.2654)
(1.39469e-15 -7.47525 15.0263)
(1.58692e-16 -6.66762 13.8177)
(8.21386e-17 -5.84168 12.4301)
(4.80746e-16 -4.81395 10.2753)
(-5.43869e-17 -3.12629 6.6845)
(-2.49371e-17 -0.832122 1.68986)
(1.95105e-14 -8.50254 22.0462)
(1.46614e-14 -16.6211 24.332)
(1.10307e-15 -12.93 23.7971)
(5.73494e-15 -12.1536 21.9985)
(1.31419e-15 -11.4201 20.5028)
(1.38097e-15 -10.4936 19.1722)
(2.45123e-15 -9.63388 17.8167)
(-1.28235e-16 -8.82359 16.459)
(8.52659e-16 -8.05363 15.123)
(1.07448e-15 -7.32379 13.8164)
(1.99324e-17 -6.55249 12.4394)
(3.58658e-16 -5.49092 10.5831)
(4.41992e-16 -3.78533 7.5088)
(-1.25506e-17 -1.49374 2.76619)
(-6.43609e-16 0.153301 -1.77302)
(1.69699e-14 -8.47611 19.748)
(1.44891e-14 -16.3601 24.312)
(2.15736e-15 -13.099 23.6602)
(4.30254e-15 -12.628 21.5365)
(1.13706e-15 -11.8565 20.0248)
(1.28164e-15 -10.9574 18.6637)
(1.99597e-15 -10.1698 17.2587)
(1.66841e-16 -9.40278 15.8711)
(1.1791e-15 -8.65259 14.5236)
(9.78664e-16 -7.93051 13.2136)
(1.60289e-16 -7.16589 11.8292)
(2.05343e-16 -6.11619 9.99633)
(2.08328e-16 -4.42407 7.15565)
(-4.66341e-16 -2.30533 3.28796)
(-9.16404e-16 -0.787211 0.317741)
(1.52381e-14 -8.02187 17.5536)
(1.48598e-14 -16.0195 24.5277)
(3.43592e-15 -13.6434 24.0462)
(3.97986e-15 -12.9943 21.7651)
(1.53491e-15 -12.1264 20.2158)
(1.36586e-15 -11.2247 18.847)
(1.99957e-15 -10.439 17.4341)
(4.33818e-16 -9.64888 16.0434)
(1.13508e-15 -8.86036 14.6933)
(9.86607e-16 -8.09326 13.3818)
(4.64082e-16 -7.29731 12.0171)
(3.8057e-16 -6.28461 10.2818)
(2.03207e-16 -4.73305 7.72097)
(1.88893e-16 -2.75616 4.37249)
(6.83452e-16 -0.949397 1.29735)
(1.34637e-14 -7.33735 15.2534)
(1.52275e-14 -15.491 24.355)
(4.87741e-15 -14.0225 24.4218)
(3.8173e-15 -13.1278 22.0675)
(1.89991e-15 -12.1448 20.4401)
(1.53118e-15 -11.2358 19.0547)
(1.91345e-15 -10.4361 17.6437)
(1.04379e-15 -9.61984 16.2576)
(1.29466e-15 -8.81016 14.9066)
(8.63319e-16 -8.02724 13.5919)
(5.42544e-16 -7.22397 12.2369)
(7.83252e-16 -6.24029 10.5489)
(2.61545e-16 -4.78755 8.10755)
(5.41943e-18 -2.91414 4.94719)
(2.44424e-15 -1.01087 1.79739)
(1.15849e-14 -6.5561 13.0328)
(1.52452e-14 -14.847 23.8163)
(6.03632e-15 -14.2638 24.6691)
(3.75842e-15 -13.2372 22.3215)
(2.10991e-15 -12.1674 20.5832)
(1.50467e-15 -11.2657 19.1667)
(1.93044e-15 -10.4651 17.7586)
(1.31454e-15 -9.64317 16.3766)
(1.31533e-15 -8.83496 15.0246)
(1.21112e-15 -8.05532 13.7074)
(6.66664e-16 -7.25504 12.3577)
(6.73834e-16 -6.28695 10.6996)
(3.02043e-16 -4.89106 8.33105)
(9.29384e-17 -3.08527 5.26773)
(1.34215e-15 -1.12219 2.04391)
(1.00477e-14 -5.77818 11.1235)
(1.49215e-14 -14.1745 23.0906)
(6.89657e-15 -14.4412 24.8463)
(3.8905e-15 -13.3963 22.6148)
(2.26485e-15 -12.2528 20.7553)
(1.2572e-15 -11.3493 19.2955)
(1.81004e-15 -10.5477 17.8904)
(1.27646e-15 -9.72544 16.5109)
(1.00955e-15 -8.91945 15.1562)
(1.32705e-15 -8.14025 13.8352)
(7.38477e-16 -7.33998 12.4864)
(3.20662e-16 -6.3802 10.8513)
(3.55595e-16 -5.02356 8.54681)
(7.63484e-17 -3.26581 5.55837)
(-7.96106e-16 -1.23749 2.2476)
(7.95294e-15 -5.08481 9.59896)
(1.43797e-14 -13.5191 22.3)
(7.67615e-15 -14.535 24.9523)
(3.98412e-15 -13.5531 22.9353)
(2.28239e-15 -12.3447 20.9698)
(1.45157e-15 -11.425 19.4566)
(1.8342e-15 -10.6173 18.0506)
(1.34793e-15 -9.79442 16.6721)
(6.48924e-16 -8.98823 15.3136)
(7.24823e-16 -8.20618 13.9873)
(7.15098e-16 -7.40469 12.6356)
(2.47413e-16 -6.45144 11.0132)
(6.4961e-17 -5.1252 8.75509)
(-1.49817e-16 -3.40649 5.81947)
(-9.84762e-16 -1.31897 2.43081)
(6.46566e-15 -4.53849 8.46186)
(1.39547e-14 -12.9254 21.5502)
(8.13e-15 -14.5349 24.9758)
(4.17508e-15 -13.6654 23.221)
(2.66226e-15 -12.4128 21.1812)
(1.36805e-15 -11.4735 19.6121)
(1.81819e-15 -10.659 18.2004)
(1.44196e-15 -9.83693 16.8209)
(2.3391e-16 -9.03202 15.4585)
(9.43201e-16 -8.24852 14.1269)
(8.10746e-16 -7.44643 12.7691)
(-8.7607e-17 -6.49766 11.1497)
(-5.18697e-17 -5.19249 8.91835)
(-2.60399e-16 -3.50177 6.0104)
(-1.36104e-15 -1.36369 2.54236)
(5.77871e-15 -4.17016 7.70232)
(1.34992e-14 -12.4378 20.9277)
(8.39376e-15 -14.4733 24.9366)
(4.3664e-15 -13.7315 23.4378)
(2.76539e-15 -12.4592 21.3593)
(1.14889e-15 -11.5039 19.7405)
(1.61427e-15 -10.6833 18.3207)
(1.53962e-15 -9.8636 16.9392)
(3.68056e-16 -9.0612 15.5729)
(1.00819e-15 -8.27766 14.2364)
(7.85409e-16 -7.47494 12.871)
(-4.62395e-16 -6.52684 11.2465)
(-2.41289e-17 -5.23305 9.02647)
(-3.36523e-16 -3.55801 6.12611)
(-1.5707e-15 -1.3773 2.57259)
(5.12785e-15 -3.97324 7.27937)
(1.29048e-14 -12.0683 20.4612)
(8.61203e-15 -14.3843 24.8626)
(4.52366e-15 -13.7599 23.5827)
(2.64629e-15 -12.4874 21.4969)
(1.17464e-15 -11.5229 19.8405)
(1.53253e-15 -10.6965 18.412)
(1.67418e-15 -9.8799 17.0278)
(3.7221e-16 -9.08051 15.6584)
(7.55845e-16 -8.2972 14.317)
(7.90055e-16 -7.49315 12.9422)
(-5.9719e-16 -6.54213 11.3061)
(-5.51971e-17 -5.25094 9.0843)
(-7.27254e-16 -3.57878 6.17537)
(-1.22627e-15 -1.36512 2.53876)
(4.66864e-15 -3.9036 7.10994)
(1.24999e-14 -11.8312 20.1816)
(8.6584e-15 -14.2999 24.7901)
(4.61102e-15 -13.7667 23.6685)
(2.73482e-15 -12.5018 21.5898)
(1.21298e-15 -11.5319 19.9095)
(1.52583e-15 -10.7002 18.4745)
(1.66621e-15 -9.88534 17.0883)
(3.90999e-16 -9.08777 15.7172)
(7.44829e-16 -8.30393 14.3729)
(7.15379e-16 -7.4977 12.9906)
(-4.48337e-16 -6.54304 11.3433)
(-8.49676e-17 -5.25329 9.11714)
(-7.65116e-16 -3.58354 6.20146)
(-8.3146e-16 -1.34999 2.50629)
(4.51154e-15 -4.03886 7.28589)
(1.19622e-14 -11.6268 19.9517)
(8.62816e-15 -14.1918 24.668)
(4.64519e-15 -13.7465 23.7084)
(2.72022e-15 -12.5067 21.6739)
(1.29437e-15 -11.5394 19.9774)
(1.52716e-15 -10.6996 18.5351)
(1.57953e-15 -9.88701 17.1438)
(4.68649e-16 -9.09054 15.7695)
(7.1608e-16 -8.30497 14.4184)
(5.98703e-16 -7.48992 13.0148)
(-3.52347e-16 -6.51528 11.3281)
(-1.695e-16 -5.20591 9.0612)
(-7.33588e-16 -3.50153 6.08271)
(-4.42172e-16 -1.25236 2.30716)
)
;

boundaryField
{
    inletFace
    {
        type            zeroGradient;
    }
    inlet
    {
        type            fixedValue;
        value           uniform (0 8.7 15);
    }
    inletWalls
    {
        type            noSlip;
    }
    outletInlet
    {
        type            zeroGradient;
    }
}


// ************************************************************************* //
