/*--------------------------------*- C++ -*----------------------------------*\
| =========                 |                                                 |
| \\      /  F ield         | OpenFOAM: The Open Source CFD Toolbox           |
|  \\    /   O peration     | Version:  4.1                                   |
|   \\  /    A nd           | Web:      www.OpenFOAM.org                      |
|    \\/     M anipulation  |                                                 |
\*---------------------------------------------------------------------------*/
FoamFile
{
    version     2.0;
    format      ascii;
    class       volScalarField;
    location    "11";
    object      p;
}
// * * * * * * * * * * * * * * * * * * * * * * * * * * * * * * * * * * * * * //

dimensions      [0 2 -2 0 0 0 0];

internalField   nonuniform List<scalar> 
6785
(
8905.2
8841.05
8789.94
8740.46
8694.54
8651.41
8610.92
8572.85
8537.04
8502.98
8470.24
8440.2
8412.55
8378.6
8343.79
8374.32
8356.6
8359.35
8355.25
8351.95
8348.6
8345.62
8343.25
8341.71
8341.12
8341.43
8342.88
8346.19
8350.02
8351.09
8325.07
8319.6
8329.34
8329.09
8332.65
8335.32
8338.16
8340.84
8343.36
8345.7
8347.76
8349.44
8351
8352.83
8353.81
8381.29
8378.97
8383.97
8380.38
8380.87
8379.39
8378.27
8376.93
8375.6
8374.36
8373.37
8372.59
8371.78
8371.18
8371.28
8376.63
8374.05
8376.3
8372.71
8373.48
8372.15
8371.83
8371.39
8371.19
8371.09
8371.05
8370.75
8370.08
8369.43
8369.13
8358.49
8356.17
8357.83
8355.23
8356.51
8355.49
8355.67
8355.48
8355.4
8355.24
8355.05
8354.58
8353.7
8352.92
8352.67
8347.63
8345.99
8347.34
8345.11
8346.06
8344.75
8344.54
8343.85
8343.2
8342.51
8341.92
8341.43
8340.96
8340.92
8341.57
8343.91
8343.2
8344.49
8342.79
8343.74
8342.76
8342.73
8342.33
8341.98
8341.64
8341.41
8341.35
8341.51
8341.92
8342.76
8347.77
8347.94
8349.25
8348.24
8349.39
8349.01
8349.44
8349.6
8349.81
8350.04
8350.31
8350.62
8351.04
8351.46
8352.22
8354.18
8355.01
8356.21
8355.72
8356.94
8356.88
8357.55
8357.91
8358.34
8358.78
8359.24
8359.69
8360.18
8360.57
8361.12
8363.41
8364.26
8365.08
8364.54
8365.43
8365.21
8365.74
8365.95
8366.3
8366.65
8367.04
8367.43
8367.89
8368.23
8368.66
8362.2
8363.55
8364.16
8364.08
8365.26
8365.56
8366.58
8367.45
8368.4
8369.18
8369.88
8370.51
8371.17
8371.74
8372.34
8387.82
8385.88
8384.68
8383.35
8383.38
8382.86
8382.59
8381.72
8381.12
8380.47
8379.93
8379.75
8380.29
8381.1
8381.79
8280.65
8287.45
8302.17
8313.98
8327.1
8338.32
8348.48
8356.69
8363.88
8369.77
8374.11
8378.01
8382.92
8385.8
8385.04
8437.71
8466.15
8460.56
8456.86
8452.74
8447.5
8442.1
8436.35
8429.57
8422.99
8414.22
8406.52
8397.25
8378.47
8354.87
7127.08
7131.15
7137.53
7133.39
7147.39
7097.47
7076.78
7069.82
7095.4
6997.83
6963.88
7034.03
6951.47
6801.92
6795.8
6883.07
6722.11
6587.74
6784.35
6695.41
6364.88
6361.31
6582.38
6516.56
6126.88
6153.11
6378.28
6183.57
5932.1
6321.11
6244.8
5802.34
5862.8
6158.89
5986.67
5739.64
6191.86
6162.36
5749.65
5828.58
6190.14
6224.59
5874.87
5983.85
6284.96
6217.24
6104.79
6497.76
6525.21
6326.08
6435.6
6716.67
6785.27
6659.99
6775.79
6990.4
6997.17
7034.06
7264.57
7295
7302.86
7397.03
7531.83
7539.4
7627.24
7744.38
7743.55
7802.71
7856.39
7918.31
7894.91
7938.05
7960.82
7992.23
7965.01
7942.39
7936.19
7927.81
7863.96
7796.89
7860.6
7914.25
7929.08
7815.41
7789.42
7772.71
7804.35
7840.71
7866.86
7893.36
7918.93
7949.38
7912.02
7786.69
7748.9
7782.46
7827.93
7862.12
7890.29
7933.5
7999.85
8041.52
7867.69
7823.76
7869.87
7909.62
7936.99
7971.45
8006.18
8039.68
8065.79
8065.12
7902.79
7845.05
7875.06
7899.2
7908.7
7916.87
7925.66
7931.47
7916.32
7768.45
7679.38
7678.72
7680.75
7679.19
7675.19
7686.5
7661.95
7482.24
7442.65
7313.73
7308.03
7309.49
7260.75
7220.44
7213.11
7180.58
7025.58
6920.45
6678.78
6633.41
6632
6588.92
6512.21
6413.39
6371.63
6298.15
5960.62
5963.95
5560.84
5424.26
5390.19
5293.57
5156.12
4970.55
4694.86
3987.09
4169.62
3540.67
2500.43
3886.77
5653.93
3843.37
3413.82
3581.64
3613.4
5052.09
3855.79
2943.48
4643.21
3579.89
3021.64
3142.64
3011.04
4318.86
3225.61
2658.83
2795.45
2643.1
3742.19
2930.78
2091.4
3307.21
2619.18
2078.37
2205.4
2015.69
2946.03
2226.69
1722.62
1866.65
1679.69
2506.71
1959.37
1245.02
2232.9
1739.69
1241.63
1414.12
1197.87
2078.02
1482.2
980.798
1193.42
974.38
1900.19
1378.76
570.737
1790.82
1249.75
649.945
916.708
655.022
1828.49
1063.14
422.057
725.362
453.664
1716.02
989.937
-96.6908
1569.48
809.54
3.17054
343.463
19.6685
1585.46
519.559
-333.446
36.533
-293.718
1341.8
353.298
-1057.66
1056.72
48.4792
-964.756
-638.847
-871.984
1.07663
0.363731
2.65145
3.42432
4.48888
4.88059
4.74957
5.12941
7.34993
10.1317
12.4574
14.3513
16.199
18.2024
20.1631
20.2921
10.1202
4.59011
9.02495
9.02731
10.0455
11.7229
12.989
14.3731
16.0032
17.4743
18.5739
19.3378
24.2036
31.4799
34.0525
32.9718
29.669
22.0003
11.378
-0.518465
-11.9672
-21.1612
-26.1329
-26.3923
-184.06
-204.896
-238.827
-315.558
-380.555
-339.114
-191.243
-90.1653
-64.4281
-67.5951
-65.3167
-47.9398
-10.2053
-11.0554
-61.8946
-98.2023
-81.983
-38.5047
-15.4512
37.3942
30.2817
31.6244
41.6402
26.5327
24.3215
22.0201
19.344
25.2028
24.5634
154.29
-45.0136
-0.97755
-81.5241
34.3789
34.068
37.8858
32.474
17.9462
5.78558
5.60897
4.78119
9.97745
11.952
14.6379
15.9748
15.833
15.8009
19.7357
24.711
28.9191
32.5203
36.1336
40.0591
43.7615
44.627
25.4876
18.6464
28.2682
27.8022
30.2969
34.8288
38.221
42.0172
46.5479
50.8407
54.6108
57.8853
67.04
79.1232
83.1287
80.2772
74.4082
61.4873
41.618
14.3886
-17.0423
-44.5866
-60.6984
-78.5292
-329.527
-384.783
-455.431
-561.093
-629.443
-577.324
-398.846
-243.298
-157.83
-120.853
-89.8229
-50.9119
15.2544
55.6293
37.8025
-3.49437
-28.5724
-22.8877
-4.11441
89.1434
72.7182
48.6192
87.6122
69.7488
68.3143
65.2423
62.1144
83.0095
81.13
339.619
-0.107167
-20.5922
-244.012
101.238
94.0366
99.1156
100.94
90.5876
68.2689
7.9768
7.52224
16.5334
20.3044
24.9613
27.5718
28.4953
28.0932
30.5735
34.4972
38.2878
41.8345
45.5625
49.6131
53.3078
54.4034
38.1212
35.1361
46.7581
47.4613
51.495
58.9086
64.7712
71.1586
78.7862
86.1526
92.8706
98.4047
113.499
134.338
142.867
138.685
128.359
104.465
67.8778
19.603
-33.7174
-78.4577
-108.773
-154.732
-389.026
-450.61
-534.469
-633.594
-675.48
-614.423
-453.491
-305.845
-205.31
-141.508
-87.3545
-36.7147
38.7498
98.5725
112.293
96.5695
79.0365
85.9432
100.343
165.796
145.256
99.7722
123.408
106.55
107.316
108.493
111.892
153.674
157.801
423.494
119.952
-31.1267
-308.882
166.018
167.625
174.121
172.434
151.836
149.092
10.4586
11.1335
23.4353
29.0243
35.3754
38.767
40.6033
41.0609
43.2248
46.3209
49.6091
52.9367
56.6258
60.7596
64.727
66.9559
53.9741
50.5728
64.5011
66.8516
72.2584
82.3533
90.6329
99.5051
110.075
120.464
130.26
138.216
157.628
184.513
197.041
191.778
178.144
146.145
96.1109
29.0305
-45.2486
-107.449
-157.343
-242.331
-446.266
-518.445
-617.513
-719.217
-747.849
-672.262
-505.626
-359.244
-253.288
-173.216
-101.093
-38.4831
46.8194
118.905
146.468
151.969
158.804
183.05
192.188
237.232
191.061
151.769
166.699
146.35
148.019
151.704
160.59
212.672
219.995
508.609
226.028
-10.3011
-317.241
233.219
240.765
245.153
243.945
219.577
202.652
12.2298
14.7577
30.3232
37.9534
46.1214
50.3484
52.5601
53.3994
55.824
58.7695
62.0192
65.469
69.4243
73.9688
78.59
81.6971
68.8826
66.032
81.9907
86.081
93.0423
105.65
116.364
127.718
141.199
154.62
167.549
177.722
201.041
233.592
250.871
244.899
228.189
188.255
124.677
38.6329
-56.4634
-136.653
-211.394
-339.846
-511.492
-611.36
-732.201
-844.537
-869.144
-779.659
-595.395
-434.11
-312.755
-215.541
-125.597
-49.5757
46.6857
137.995
180.992
202.347
226.168
261.218
268.424
305.81
249.08
200.122
209.175
185.486
187.362
192.487
205.266
266.842
277.645
598.205
319.094
46.7835
-270.264
301.645
317.868
318.376
316.285
287.39
291.522
13.6219
18.6831
37.3244
47.0897
56.9577
62.1509
64.9068
65.759
67.941
70.5943
73.7516
77.3051
81.53
86.4797
91.7383
95.4696
82.6468
82.0999
99.0352
105.063
113.681
128.611
141.731
155.536
171.849
188.3
204.443
216.785
243.139
280.271
302.542
296.197
276.908
230.147
154.205
50.0821
-65.2738
-164.368
-268.107
-439.804
-574.326
-713.468
-855.475
-975.474
-992.546
-888.647
-689.362
-510.847
-369.29
-252.83
-144.772
-56.1851
47.3885
161.422
224.974
261.744
298.432
340.734
347.441
374.626
305.598
250.228
251.173
224.008
225.695
232.127
248.414
318.36
335.582
679.432
422.899
136.248
-181.036
373.163
396.897
391.696
388.91
350.734
346.216
14.5284
22.786
44.4121
56.4941
67.9822
74.0232
77.3413
78.3069
80.1344
82.3682
85.2897
88.8154
93.1986
98.4516
104.288
108.716
96.5873
97.9846
115.751
123.832
134.199
151.3
166.776
183.012
202.1
221.567
240.959
255.408
284.054
325.255
352.672
346.375
324.87
272.053
184.561
63.0642
-72.0896
-191.121
-325.551
-534.203
-628.784
-818.153
-980.101
-1104.16
-1109.33
-989.09
-776.551
-582.583
-420.44
-284.825
-159.005
-58.2257
48.1822
183.674
268.877
321.605
371.79
420.887
426.285
442.252
362.615
301.226
293.485
262.437
263.506
270.748
290.33
366.29
391.968
749.512
532.828
247.437
-61.5384
446.979
477.673
465.849
462.356
429.144
404.195
15.0113
27.0789
51.5798
66.1376
79.2376
86.0825
89.807
90.8335
92.3892
94.2665
96.9498
100.416
104.924
110.45
116.854
122.012
110.788
113.603
132.33
142.344
154.552
173.683
191.439
210.084
231.885
254.348
277.011
293.654
323.803
368.678
400.924
395.211
371.854
313.84
215.824
77.8986
-76.5321
-216.364
-380.039
-613.27
-672.852
-926.408
-1111.38
-1238.68
-1229.7
-1091.54
-864.858
-654.499
-470.312
-315.828
-172.238
-58.4345
48.5573
201.145
308.507
378.274
442.614
497.673
502.397
509.684
421.833
351.945
335.419
300.435
300.578
308.176
330.725
410.668
445.321
808.532
637.343
368.683
76.3785
522.263
559.157
540.359
535.987
498.794
497.786
15.0788
31.5306
58.8352
76.0159
90.702
98.3417
102.392
103.338
104.568
106.106
108.558
111.958
116.584
122.381
129.329
135.166
124.912
129.054
148.759
160.617
174.713
195.752
215.699
236.731
261.187
286.615
312.529
331.573
362.603
410.83
447.11
442.779
417.892
355.472
247.965
94.6445
-78.5342
-239.616
-428.078
-668.889
-708.779
-1039.99
-1253.06
-1383.4
-1357.36
-1199.44
-957.629
-728.413
-519.43
-345.513
-183.582
-55.7773
52.4466
213.599
344.298
433.136
511.822
571.733
577.433
577.678
482.513
402.091
376.727
337.965
337.022
344.72
369.947
452.019
495.27
855.883
730.504
490.699
222.091
597.455
640.523
615.206
609.526
565.145
556.654
14.7678
36.1136
66.1761
86.1343
102.391
110.783
115.095
115.873
116.694
117.857
120.048
123.349
128.067
134.117
141.565
148.027
138.875
144.338
165.041
178.671
194.633
217.481
239.531
262.927
289.98
318.328
347.439
369.195
400.702
451.661
490.838
489.041
462.907
396.833
280.942
113.39
-77.9348
-260.129
-467.189
-700.343
-747.345
-1162.7
-1405.83
-1538.74
-1491.28
-1310.84
-1053.39
-803.136
-566.556
-372.295
-191.325
-48.7775
63.8496
218.938
375.054
486.216
579.999
643.996
652.188
646.058
544.001
451.297
417.302
375.081
373.003
380.627
408.26
490.593
541.771
890.744
809.598
605.864
366.365
670.885
720.921
690.079
683.129
642.713
615.655
14.117
40.7949
73.5975
96.4867
114.322
123.415
127.895
128.427
128.795
129.558
131.457
134.621
139.402
145.681
153.583
160.612
152.611
159.44
181.165
196.496
214.281
238.844
262.927
288.669
318.261
349.45
381.677
406.48
438.294
490.892
532.034
533.96
506.844
437.788
314.66
134.151
-74.5994
-277.216
-497.302
-719.064
-804.112
-1298.89
-1570.4
-1705.44
-1631.52
-1425.08
-1151.54
-878.378
-611.445
-395.946
-195.341
-37.3809
83.9818
217.354
398.539
535.778
646.342
714.67
726.397
713.921
605.29
499.403
457.015
411.763
408.613
416.072
445.795
526.692
585.12
913.611
873.314
708.014
501.317
740.965
799.654
764.662
756.418
714.964
698.615
13.1778
45.5393
81.0954
107.067
126.504
136.253
140.798
140.987
140.855
141.197
142.783
145.783
150.601
157.086
165.405
172.925
166.014
174.382
197.12
214.079
233.617
259.813
285.876
313.942
346.015
379.947
415.187
443.324
475.466
528.273
571.175
577.311
549.627
478.163
348.979
156.895
-68.3853
-290.385
-520.452
-741.178
-895.236
-1443.98
-1749.39
-1885.19
-1779.35
-1542.87
-1252.69
-954.558
-654.345
-416.632
-195.858
-21.9037
111.886
220.05
415.31
579.721
709.533
783.979
799.225
779.895
665.102
546.456
495.803
447.991
443.946
451.253
482.705
560.802
625.429
926.905
921.863
793.249
621.258
806.56
876.2
838.674
829.23
787.355
752.371
12.0139
50.3099
88.6637
117.869
138.944
149.304
153.81
153.554
152.863
152.754
154.005
156.814
161.646
168.321
177.021
184.936
179.027
189.145
212.888
231.39
252.596
280.356
308.358
338.721
373.222
409.794
447.921
479.566
512.234
563.953
608.908
618.73
591.152
517.764
383.704
181.537
-59.1713
-299.376
-539.195
-776.02
-1033.89
-1594.36
-1948.5
-2080.2
-1935.9
-1664.79
-1357.15
-1031.68
-695.233
-434.164
-192.761
-2.38382
146.272
238.483
428.984
616.87
768.13
851.748
869.254
842.467
722.37
592.459
533.573
483.734
479.083
486.35
519.121
593.461
662.431
934.694
956.913
860.793
723.367
867.205
950.244
911.844
901.35
859.137
827.943
10.7027
55.0723
96.2963
128.884
151.65
162.576
166.93
166.131
164.816
164.223
165.116
167.708
172.532
179.383
188.42
196.649
191.816
203.702
228.444
248.384
271.179
300.441
330.354
362.98
399.858
438.96
479.826
515.029
548.602
598.452
645.39
658.1
631.255
556.371
418.594
207.928
-46.8864
-304.172
-555.849
-826.592
-1216.19
-1746.71
-2174.97
-2293.58
-2102.1
-1791.05
-1464.69
-1109.43
-733.847
-448.223
-185.891
21.1092
186.403
273.286
443.875
647.719
821.017
917.142
934.971
900.076
776.238
637.247
570.115
518.91
514.068
521.483
555.109
625.164
696.233
941.033
981.117
913.062
807.972
923.162
1021.67
983.988
972.571
925.136
881.339
9.33022
59.7962
103.988
140.104
164.629
176.082
180.159
178.713
176.71
175.599
176.112
178.467
183.263
190.28
199.603
208.083
204.574
218.05
243.748
265.011
289.325
320.042
351.84
386.695
425.896
467.414
510.863
549.557
584.556
632.295
680.292
695.672
669.739
593.733
453.37
235.86
-31.5503
-304.964
-571.884
-888.852
-1414.58
-1887.22
-2430.34
-2529.25
-2279.15
-1921.93
-1574.67
-1187.31
-769.773
-458.506
-175.183
48.2765
231.745
321.385
464.965
674.546
868.163
979.467
995.467
951.359
825.884
680.412
605.152
553.387
548.896
556.724
590.681
656.309
727.588
947.962
998.049
954.807
878.174
975.218
1090.51
1054.91
1043.23
1001.37
930.263
7.98463
64.4573
111.735
151.522
177.888
189.833
193.496
191.296
188.539
186.872
186.989
189.091
193.842
201.019
210.575
219.235
217.268
232.184
258.747
281.219
306.993
339.131
372.789
409.833
451.299
495.119
541
583.031
620.036
665.712
713.339
731.57
706.487
629.608
487.705
265.061
-13.2963
-302.044
-587.387
-952.717
-1582.91
-1997.92
-2705.77
-2789.86
-2468.33
-2057.61
-1686.2
-1264.34
-802.395
-464.663
-160.589
78.7412
281.558
380.689
498.019
701.782
911.246
1038.84
1050.78
995.556
870.546
721.333
638.434
587.035
583.528
592.098
625.864
687.177
757.452
955.908
1011.71
990.489
938.25
1024.31
1156.9
1124.46
1113.08
1070.1
1005.5
6.74929
69.0367
119.537
163.135
191.433
203.84
206.944
203.877
200.295
198.036
197.743
199.583
204.273
211.61
221.358
230.158
229.816
246.059
273.374
296.953
324.141
357.671
393.166
432.359
476.023
522.039
570.218
615.377
654.864
698.641
744.593
765.518
741.422
663.8
521.217
295.188
7.6288
-295.703
-601.221
-1006.85
-1683.71
-2089.15
-2992.58
-3074.23
-2670.1
-2197.94
-1797.99
-1338.89
-830.887
-466.333
-142.064
112.221
334.949
448.356
547.546
735.223
953.222
1096.13
1102.11
1032.81
909.74
759.328
669.794
619.785
617.96
627.617
660.787
717.96
786.469
965.099
1024.89
1022.62
991.864
1071.18
1221.04
1192.6
1182.1
1135.72
1059.34
5.69857
73.5223
127.395
174.939
205.275
218.114
220.507
216.452
211.972
209.084
208.371
209.947
214.561
222.057
231.988
240.981
242.17
259.582
287.554
312.155
340.723
375.613
412.928
454.225
500.012
548.142
598.506
646.562
688.738
730.923
774.296
797.129
774.266
696.106
553.507
325.804
30.877
-286.225
-612.055
-1046.02
-1726.86
-2210.02
-3295.7
-3380.49
-2883.85
-2342.23
-1908.48
-1408.8
-854.386
-463.327
-119.694
148.562
391.157
521.523
614.032
779.424
996.749
1152.33
1151.28
1064.21
943.378
793.857
699.196
651.628
652.228
663.312
695.606
748.781
814.983
975.897
1038.5
1052.36
1041.31
1116.28
1283.16
1259.31
1250.67
1208.99
1109.46
4.89508
77.9106
135.309
186.93
219.422
232.667
234.189
229.016
223.566
220.01
218.877
220.19
224.714
232.356
242.477
251.755
254.253
272.678
301.211
326.775
356.695
392.918
432.029
475.378
523.217
573.401
625.866
676.578
721.369
762.452
802.634
826.216
804.616
726.378
584.232
356.375
55.9816
-273.969
-619.477
-1074.25
-1764.63
-2412.45
-3614.57
-3714.05
-3109.1
-2489.1
-2016.06
-1471.85
-872.329
-455.777
-93.8994
187.682
449.764
598.666
692.82
836.322
1043.66
1207.58
1199.09
1091.32
971.886
824.692
726.758
682.628
686.361
699.237
730.362
779.706
843.225
988.63
1052.77
1080.35
1087.61
1159.86
1343.52
1324.59
1318.84
1278.21
1180.56
4.38701
82.2098
143.283
199.097
233.889
247.511
247.988
241.564
235.072
230.811
229.261
230.329
234.743
242.49
252.787
262.372
265.964
285.287
314.284
340.779
372.019
409.564
450.428
495.774
545.594
597.791
652.31
705.446
752.617
793.129
829.741
852.831
832.261
754.517
613.153
386.317
82.3121
-259.394
-623.885
-1098.49
-1829.14
-2729.27
-3942.58
-4087.53
-3347.49
-2636.88
-2119.22
-1526.23
-884.653
-444.239
-65.6009
229.515
510.633
678.895
778.138
906.446
1096.97
1262.03
1245.27
1115.68
995.972
851.939
752.752
712.923
720.394
735.396
765.027
810.752
871.336
1003.38
1067.95
1107.07
1131.12
1202.11
1402.35
1388.5
1386.79
1347.56
1232.85
4.20464
86.4406
151.325
211.428
248.686
262.648
261.9
254.088
246.487
241.482
239.522
240.373
244.648
252.42
262.828
272.631
277.189
297.348
326.734
354.151
386.688
425.542
468.107
515.382
567.106
621.285
677.851
733.222
782.489
822.767
855.775
877.181
857.235
780.332
640.018
415.042
109.073
-243.072
-625.993
-1123.52
-1924.1
-3125.98
-4250.58
-4502.49
-3602.39
-2784.35
-2216.67
-1570.84
-891.882
-429.855
-35.9992
273.782
573.705
761.502
866.78
988.533
1161.21
1318.9
1291.22
1138.97
1016.3
875.955
777.558
742.719
754.387
771.664
799.547
841.855
899.376
1019.97
1084.14
1132.94
1172.1
1243.27
1459.93
1451.13
1454.71
1416.91
1301.81
4.35846
90.6303
159.445
223.915
263.815
278.072
275.921
266.574
257.815
252.036
249.663
250.317
254.421
262.091
272.487
282.313
287.823
308.821
338.553
366.895
400.716
440.865
485.069
534.179
587.717
643.852
702.496
759.978
811.062
851.177
880.845
899.61
879.698
803.786
664.631
441.981
135.354
-225.773
-626.56
-1150.6
-2032.62
-3506.08
-4481.54
-4934.11
-3875.12
-2930.07
-2307.35
-1605.52
-894.993
-414.156
-6.06747
319.722
639.013
846.222
957.139
1077.75
1237.94
1384.06
1341.61
1164.16
1033.8
897.115
801.565
772.28
788.331
807.804
833.789
872.865
927.316
1038.15
1101.34
1158.24
1210.79
1283.62
1516.52
1512.62
1522.73
1482.32
1355.88
4.83977
94.8071
167.643
236.543
279.269
293.777
290.046
279.012
269.058
262.494
259.697
260.144
264.034
271.443
281.647
291.248
297.78
319.688
349.744
379.028
414.135
455.554
501.328
552.15
607.382
665.438
726.224
785.769
838.42
878.326
905.011
920.586
899.874
825.034
686.924
466.593
160.318
-208.459
-626.157
-1177.4
-2127.54
-3763.6
-4620.48
-5353.09
-4162.52
-3071.85
-2390.12
-1630.8
-895.07
-398.525
23.7276
366.399
706.914
933.107
1048.33
1167.83
1322.75
1459.6
1401.24
1194.53
1050
915.68
824.996
801.682
822.077
843.511
867.537
903.589
955.087
1057.66
1119.48
1183.21
1247.46
1323.42
1572.38
1573.08
1591.25
1554.25
1414.78
5.61936
99.0048
175.905
249.274
295.039
309.754
304.279
291.398
280.215
272.869
269.626
269.826
273.426
280.416
290.225
299.362
307
329.93
360.334
390.58
426.977
469.637
516.905
569.287
626.058
685.97
748.963
810.606
864.637
904.325
928.371
940.494
918.059
844.162
706.785
488.534
183.184
-192.122
-625.21
-1200.71
-2189.7
-3865.56
-4750.04
-5765.49
-4462.24
-3207.6
-2463.91
-1647.54
-893.09
-383.762
53.4879
413.435
777.797
1022.34
1140.4
1255.5
1409.04
1540.82
1469.98
1231.23
1066.57
932.094
847.747
830.601
855.306
878.417
900.516
933.802
982.603
1078.23
1138.49
1208.05
1282.26
1362.99
1627.73
1632.58
1660.15
1619.72
1506.58
6.64906
103.269
184.222
262.031
311.102
325.986
318.622
303.726
291.28
283.156
279.436
279.314
282.511
288.957
298.187
306.688
315.494
339.548
370.369
401.597
439.272
483.142
531.816
585.593
643.726
705.377
770.592
834.43
889.74
929.244
951.019
959.466
934.742
861.247
724.165
507.568
203.159
-177.428
-624.296
-1219.31
-2221.7
-3887.86
-4977.34
-6190.4
-4778.4
-3335.98
-2527.73
-1656.61
-889.713
-369.795
83.2645
461.293
851.523
1114.28
1234.07
1341.67
1491.35
1620.37
1542.7
1272.35
1084.13
947.082
869.481
858.502
887.611
912.117
932.428
963.285
1009.78
1099.61
1158.27
1232.92
1315.32
1402.66
1682.81
1691.26
1729.42
1681.72
1575.91
7.88521
107.634
192.602
274.72
327.419
342.441
333.066
315.965
302.243
293.345
289.117
288.556
291.228
297.031
305.53
313.301
323.351
348.604
379.91
412.127
451.045
496.088
546.067
601.076
660.395
723.635
791.006
857.11
913.676
952.995
972.887
977.552
950.445
876.346
739.013
523.465
219.832
-164.671
-624.176
-1234.21
-2239.81
-3933.8
-5358.19
-6604.22
-5114.94
-3457.03
-2580.62
-1658.57
-885.146
-355.97
112.597
511.221
928.141
1209.21
1330.14
1428.09
1565.73
1693.64
1613.16
1314.62
1102.01
960.993
889.775
884.752
918.454
944.222
962.99
991.87
1036.56
1121.58
1178.7
1257.97
1346.66
1442.78
1737.79
1749.19
1799.24
1747.95
1659.87
9.2764
112.103
201.052
287.268
343.943
359.096
347.602
328.097
313.116
303.438
298.646
297.51
299.532
304.614
312.275
319.295
330.68
357.186
389.024
422.217
462.321
508.487
559.659
615.739
676.084
740.768
810.19
878.549
936.374
975.422
993.674
994.766
965.328
889.423
751.285
536.123
232.944
-154.256
-625.203
-1246.75
-2254.97
-4022.87
-5865.98
-6956.62
-5464.71
-3572.49
-2621.49
-1653.61
-879.325
-341.404
141.927
564.786
1008.04
1307.15
1428.67
1514.94
1632.67
1759.9
1676.91
1355.05
1119.09
973.519
908.209
908.778
947.26
974.41
992.017
1019.51
1062.99
1144.02
1199.67
1283.36
1376.32
1483.75
1792.8
1806.37
1869.32
1810.13
1779.24
10.6335
116.756
209.544
299.626
360.63
375.942
362.209
340.13
323.93
313.438
307.973
306.123
307.391
311.715
318.507
324.82
337.577
365.386
397.784
431.909
473.124
520.342
572.58
629.575
690.804
756.815
828.193
898.765
957.856
996.494
1013.04
1010.88
979.085
900.498
760.943
545.418
242.357
-146.514
-626.903
-1257.89
-2269.17
-4124.59
-6376.67
-7175.89
-5806.76
-3683.76
-2648.88
-1641.51
-872.126
-324.862
172.653
622.555
1090.85
1406.62
1529.52
1601.9
1696.37
1820.19
1732.32
1391.5
1134.38
984.156
924.364
930.206
973.674
1002.51
1019.47
1046.29
1089.19
1166.93
1221.09
1309.26
1404.32
1525.99
1847.91
1862.79
1939.47
1870.86
1876.07
11.657
121.866
218.053
311.71
377.439
392.983
376.855
352.094
334.68
323.318
317.042
314.331
314.8
318.399
324.369
330.073
344.169
373.291
406.257
441.242
483.475
531.651
584.814
642.567
704.556
771.8
845.067
917.837
978.218
1016.3
1030.81
1025.5
991.185
909.568
767.935
551.35
248.014
-141.817
-628.396
-1268.1
-2278.82
-4196.4
-6739.23
-7213.16
-6129.7
-3791.33
-2661.07
-1621.55
-863.413
-304.931
205.5
683.921
1176
1505.33
1633.44
1688.58
1759.8
1875.68
1779.66
1422.7
1147.12
992.477
937.735
948.726
997.469
1028.45
1045.35
1072.34
1115.3
1190.35
1242.85
1335.85
1430.71
1569.94
1903.12
1918.43
2009.4
1930.62
2019.24
12.2846
127.504
226.649
323.369
394.292
410.1
391.462
363.996
345.353
333.013
325.776
322.094
321.801
324.767
330.018
335.255
350.605
380.971
414.495
450.247
493.387
542.406
596.334
654.694
717.331
785.731
860.853
935.835
997.528
1034.89
1046.9
1038.28
1001.15
916.413
772.245
553.991
249.807
-140.397
-629.295
-1276.83
-2278.7
-4205.93
-6866.12
-7130.23
-6448.87
-3894.29
-2656.31
-1592.51
-852.829
-280.306
240.828
748.539
1263.8
1603.07
1740.35
1774.59
1823.69
1927.19
1819.48
1448.2
1156.63
998.002
947.842
963.995
1018.37
1052.11
1069.67
1097.79
1141.45
1214.39
1264.86
1363.31
1455.59
1616.07
1958.35
1973.24
2078.88
1986.99
2118.68
12.6023
133.564
235.36
334.532
411.094
427.052
405.856
375.771
355.926
342.444
334.091
329.425
328.475
330.918
335.595
340.543
357.026
388.491
422.538
458.947
502.868
552.593
607.116
665.931
729.11
798.606
875.576
952.809
1015.81
1052.24
1061.17
1048.9
1008.6
920.726
773.928
553.501
247.798
-142.463
-630.485
-1282.24
-2266.2
-4148.07
-6794.59
-7073.38
-6766.46
-3991
-2633.46
-1552.9
-839.512
-250.364
279.364
816.649
1354.07
1700.73
1848.35
1860.28
1887.63
1974.64
1851.66
1467.97
1162.31
1000.2
954.181
975.544
1035.98
1073.32
1092.44
1122.74
1167.73
1239.19
1287.01
1391.75
1479.27
1664.72
2013.39
2027.06
2148.03
2050.52
2244.34
12.6409
140.037
244.083
345.302
427.769
443.65
419.857
387.317
366.293
351.508
341.946
336.384
334.909
336.94
341.214
346.077
363.546
395.921
430.42
467.358
511.923
562.199
617.138
676.248
739.868
810.407
889.245
968.799
1033.06
1068.28
1073.53
1057.08
1013.2
922.258
772.991
550.112
242.203
-148.265
-633.025
-1282.72
-2242.45
-4043.2
-6646.69
-7130.92
-7039.71
-4083.55
-2590.97
-1501.31
-821.881
-215.235
322.171
888.428
1445.56
1797.89
1954.92
1946.41
1950.82
2017.14
1875.67
1481.98
1163.57
998.527
956.092
982.802
1049.75
1091.8
1113.56
1147.31
1194.29
1264.91
1309.3
1421.15
1502.42
1716.05
2067.91
2079.63
2216.24
2110.75
2418.52
12.4375
146.883
252.741
355.826
444.185
459.62
433.315
398.593
376.322
360.103
349.362
343.057
341.179
342.908
346.954
351.944
370.249
403.309
438.152
475.488
520.548
571.208
626.379
685.626
749.578
821.1
901.846
983.829
1049.29
1082.97
1083.96
1062.63
1014.77
920.889
769.423
544.163
233.357
-157.89
-637.623
-1278.01
-2209.48
-3913.15
-6495.61
-7302.17
-7200.66
-4171.53
-2525.7
-1436.7
-797.439
-175.068
370.415
964.309
1537.48
1894.05
2058.32
2033.39
2012.28
2053.5
1890.96
1489.92
1159.87
992.366
952.817
985.209
1059.06
1107.28
1132.99
1171.62
1221.37
1291.79
1331.89
1451.2
1526.14
1769.99
2121.47
2130.78
2283.34
2169.98
2539.84
12.0231
154.057
261.297
366.147
460.072
474.453
446.062
409.543
385.889
368.189
356.413
349.529
347.353
348.87
352.85
358.167
377.165
410.669
445.72
483.327
528.726
579.605
634.828
694.057
758.221
830.635
913.318
997.884
1064.47
1096.25
1092.45
1065.57
1013.35
916.695
763.366
536.044
221.432
-171.517
-644.352
-1267.91
-2167.21
-3766.03
-6324.74
-7495.53
-7205.07
-4244.38
-2438.48
-1358.18
-762.805
-129.378
424.985
1044.84
1629.68
1990.3
2158.81
2120.72
2070.69
2082.51
1897.15
1491.12
1150.72
981.079
943.555
982.052
1063.16
1119.46
1150.93
1196
1249.32
1320.02
1355.18
1481.24
1552.01
1826.18
2173.54
2180.29
2349.56
2238.13
2686.91
11.424
161.502
269.71
376.303
475.185
487.634
457.943
420.013
394.884
375.796
363.194
355.872
353.476
354.851
358.895
364.693
384.26
417.972
453.09
490.849
536.435
587.378
642.486
701.548
765.795
838.97
923.56
1010.88
1078.54
1108.04
1099.04
1066.11
1009.27
909.994
755.231
526.149
206.605
-189.26
-652.923
-1253.01
-2114.5
-3602.85
-6102.4
-7588.4
-7035.24
-4293.34
-2329.93
-1266.48
-714.379
-76.6655
486.631
1130.86
1722.52
2090.79
2259.75
2206.35
2124.31
2103.2
1894.37
1484.73
1135.92
964.003
927.462
972.472
1061.52
1128.06
1167.5
1220.74
1278.56
1349.61
1379.87
1510.12
1582.14
1883.99
2223.53
2227.91
2414.63
2307.29
2872.24
10.663
169.153
277.947
386.32
489.446
498.913
468.827
429.841
403.256
383.005
369.785
362.136
359.572
360.855
365.054
371.421
391.447
425.167
460.216
498.014
543.647
594.517
649.361
708.119
772.316
846.083
932.462
1022.65
1091.38
1118.2
1103.79
1064.59
1003.04
901.428
745.726
514.994
189.35
-211.292
-663.578
-1233.5
-2048.12
-3422.65
-5808.97
-7499.65
-6703.65
-4318.81
-2195
-1164.7
-649.82
-14.8307
555.913
1223.42
1818.65
2202.07
2365.2
2286.73
2171.49
2115.22
1882.73
1470
1115.41
940.389
903.642
955.6
1053.7
1132.83
1182.87
1246.12
1309.53
1380.38
1406.83
1536.54
1618.75
1942.5
2270.84
2273.47
2478.69
2380.69
3012.65
9.75944
176.932
285.97
396.175
502.697
508.36
478.674
438.955
411.037
389.917
376.252
368.355
365.653
366.879
371.281
378.24
398.612
432.186
467.044
504.781
550.341
601.02
655.474
713.805
777.816
851.976
939.933
1033.02
1102.81
1126.59
1106.75
1061.42
995.344
891.944
735.753
503.322
170.374
-237.711
-677.217
-1207.53
-1961.87
-3223.62
-5441.87
-7214.07
-6280.87
-4316.89
-2034.59
-1055.08
-569.032
57.6473
632.917
1322.34
1922.79
2323.79
2471.3
2360.06
2211.21
2117.81
1860.51
1446.29
1088.49
909.189
871.215
930.608
1039.1
1132.88
1197.4
1272.43
1342.76
1411.93
1436.78
1560.05
1663.38
2000.59
2314.92
2316.85
2541.78
2458.96
3231.69
8.72996
184.757
293.741
405.853
514.71
516.399
487.59
447.331
418.33
396.62
382.641
374.55
371.728
372.915
377.534
385.078
405.663
438.963
473.53
511.116
556.502
606.891
660.848
718.645
782.34
856.68
945.913
1041.81
1112.69
1133.1
1107.97
1056.95
986.958
882.533
726.236
492.042
150.454
-267.915
-695.336
-1178.45
-1853.74
-3000.5
-5015.4
-6780.44
-5861.08
-4269.78
-1855.99
-939.839
-473.011
141.009
717.435
1428.44
2037.07
2445.08
2569.75
2433.5
2243.53
2107.8
1823.51
1412.56
1053.51
869.138
828.982
896.165
1017.48
1127.04
1211.46
1299.92
1378.69
1443.93
1469.71
1582.55
1716.27
2057.1
2355.35
2358
2604.11
2536.8
3371.01
7.58891
192.538
301.222
415.276
525.253
523.618
495.661
455.002
425.258
403.185
388.989
380.735
377.802
378.95
383.78
391.898
412.552
445.435
479.633
516.996
562.122
612.137
665.512
722.686
785.94
860.25
950.388
1048.85
1120.91
1137.68
1107.6
1051.69
978.688
873.993
718.051
481.976
130.333
-300.473
-718.704
-1155.33
-1733.31
-2742.38
-4549.78
-6264.35
-5496.39
-4152.53
-1666.89
-820.358
-363.251
234.148
809.173
1544.92
2158.69
2558.61
2662.63
2515.19
2268.69
2080.14
1766.71
1366.5
1008.77
818.929
775.462
850.567
989.28
1115.99
1225.15
1328.89
1417.78
1477.06
1504.6
1608.52
1776.34
2110.88
2391.81
2396.93
2666.54
2627.12
3553.21
6.34816
200.181
308.371
424.303
533.999
530.352
502.882
462.077
431.927
409.667
395.321
386.924
383.878
384.973
389.98
398.649
419.231
451.568
485.326
522.406
567.2
616.772
669.497
725.97
788.671
862.755
953.387
1053.98
1127.4
1140.42
1105.88
1046.19
971.273
866.962
711.958
473.637
110.568
-333.932
-745.389
-1139.58
-1618.31
-2451.45
-4058.04
-5702.27
-5182.04
-3942.6
-1475.26
-692.575
-241.618
335.323
907.427
1672.01
2283.54
2668.4
2760.17
2595.99
2286.2
2030.8
1686.52
1305.29
953.342
757.573
709.509
793.637
954.677
1101.14
1238.44
1359.82
1459.92
1512.95
1539.89
1642.96
1841.6
2160.96
2424.09