/*--------------------------------*- C++ -*----------------------------------*\
| =========                 |                                                 |
| \\      /  F ield         | OpenFOAM: The Open Source CFD Toolbox           |
|  \\    /   O peration     | Version:  4.1                                   |
|   \\  /    A nd           | Web:      www.OpenFOAM.org                      |
|    \\/     M anipulation  |                                                 |
\*---------------------------------------------------------------------------*/
FoamFile
{
    version     2.0;
    format      ascii;
    class       surfaceScalarField;
    location    "11";
    object      phi;
}
// * * * * * * * * * * * * * * * * * * * * * * * * * * * * * * * * * * * * * //

dimensions      [0 3 -1 0 0 0 0];

internalField   nonuniform List<scalar> 
13220
(
-896.038
2195.98
-1395.87
1800.07
-1860.27
1764.34
-2215.5
1655.17
-2487.11
1571.84
-2678.73
1491.55
-2791.93
1413.13
-2826.5
1334.79
-2780.64
1254.06
-2649.93
1169.21
-2433.91
1084.19
-2130.12
996.149
-1706.07
875.891
-1087.06
681.248
212.838
35.6605
2160.38
16.1679
1819.63
-78.9589
1859.54
-140.73
1717.02
-203.807
1634.99
-248.785
1536.61
-274.953
1439.38
-279.616
1339.52
-267.385
1241.9
-249.996
1151.88
-239.234
1073.46
-244.657
1001.65
-260.76
892.064
-176.061
596.713
36.7943
-95.7897
2256.2
-258.666
1982.55
-418.029
2018.93
-510.59
1809.62
-592.684
1717.14
-638.876
1582.84
-659.392
1459.94
-653.954
1334.13
-619.524
1207.51
-550.776
1083.23
-455.263
978.01
-353.809
900.451
-265.355
803.934
-186.571
518.884
-149.785
-26.7027
2282.9
-91.9295
2047.77
-143.45
2070.45
-164.433
1830.59
-187.05
1739.74
-187.865
1583.66
-180.629
1452.71
-158.311
1311.83
-98.7062
1147.95
50.7141
933.784
298.593
730.239
550.277
648.499
690.74
663.304
588.582
620.803
438.796
-14.0673
2296.93
-82.1668
2115.82
-129.076
2117.31
-174.13
1875.6
-232.859
1798.42
-284.735
1635.49
-348.685
1516.61
-413.92
1377.01
-457.277
1191.25
-411.933
888.376
-226.173
544.35
23.4351
398.862
203.942
482.678
202.701
621.913
641.492
21.3025
2275.57
-107.159
2244.22
-179.792
2189.88
-255.184
1950.92
-342.694
1885.86
-428.749
1721.47
-525.297
1613.09
-630.388
1482.04
-751.344
1312.13
-886.741
1023.68
-978.339
635.923
-911.739
332.018
-628.983
199.696
-264.116
256.737
377.373
116.969
2158.55
18.7014
2342.44
-15.3752
2223.9
-44.7803
1980.27
-66.5537
1907.58
-92.654
1747.52
-114.826
1635.2
-140.488
1507.66
-192.059
1363.66
-318.084
1149.63
-524.952
842.785
-699.982
506.827
-685.936
185.424
-451.569
22.0849
-74.1959
180.785
1977.74
156.576
2366.62
170.158
2210.29
194.037
1956.36
235.039
1866.55
270.054
1712.47
312.389
1592.84
354.946
1465.07
385.045
1333.53
358.554
1176.1
230.005
971.305
16.6388
720.227
-201.03
403.132
-195.359
16.4455
-269.56
174.279
1803.44
192.374
2348.51
220.824
2181.82
261.154
1916.01
311.055
1816.62
357.84
1665.67
407.921
1542.74
459.616
1413.37
508.39
1284.75
534.871
1149.59
512.765
993.437
426.052
806.75
268.753
560.2
43.3715
241.473
-226.183
131.482
1671.96
152.882
2327.11
166.982
2167.73
189.69
1893.31
221.199
1785.12
249.796
1637.07
279.275
1513.26
307.829
1384.81
334.974
1257.6
355.331
1129.26
356.851
991.883
325.569
838.202
249.052
636.891
119.533
371.36
-106.651
101.318
1570.66
139.634
2288.81
159.591
2147.79
176.35
1876.57
197.742
1763.74
222.103
1612.72
246.155
1489.22
261.737
1369.24
264.454
1254.9
262.054
1131.66
255.315
998.655
235.991
857.466
189.146
683.699
116.824
443.577
10.1806
102.096
1468.59
103.318
2287.61
66.5392
2184.58
34.1056
1909.02
27.2406
1770.63
15.1776
1624.8
7.10641
1497.31
13.3562
1363
16.1506
1252.12
3.39576
1144.44
-24.716
1026.77
-58.868
891.71
-83.4502
708.373
-104.907
465.481
-94.7247
384.545
1084.06
564.806
2107.36
678.065
2071.34
720.971
1866.13
765.649
1725.96
824.06
1566.4
902.843
1418.53
980.36
1285.5
1034.89
1197.6
1043.4
1135.94
969.053
1101.12
759.486
1101.28
457.939
1009.93
231.046
692.405
136.323
-1342.43
2426.49
-2145.37
2910.32
-2588
2513.96
-2879.17
2157.31
-2919.01
1765.81
-2750.51
1397.9
-2398.51
1066.54
-1965.35
852.342
-1532.29
764.546
-1165.22
768.882
-890.516
826.414
-643.734
854.507
-447.344
813.563
-208.947
454.096
-72.6208
-3296.5
-4459.98
-5051.01
-5484.47
-5685.95
-5880.79
-6006.33
-6065.31
-5984.86
-5497.24
-4645.5
-3199.49
-1785.67
-421.068
0.000179313
-3876.79
3876.79
-3876.79
-3876.79
-3876.79
-8406.21
4529.42
-8406.21
-8406.21
-8406.21
-13116.1
4709.9
-13116.1
-13116.1
-17754.1
4638.03
-17754.1
-17754.1
-17754.1
-22026.3
4272.15
-22026.3
-22026.3
-25775.5
3749.16
-25775.5
-25775.5
-25775.5
-28810.8
3035.39
-28810.8
-28810.8
-28810.8
-30983.4
2172.53
-30983.4
-30983.4
-32362.8
1379.4
-32362.8
-32362.8
-32362.8
-32878.8
516.023
-32878.8
-32878.8
-32658.2
-220.623
-32658.2
-32658.2
-32658.2
-31712
-946.17
-31712
-31712
-31712
-30084.4
-1627.61
-30084.4
-30084.4
-27887.4
-2197.02
-27887.4
-27887.4
-27887.4
-25177.4
-2709.93
-25177.4
-25177.4
-25177.4
-22000.3
-3177.12
-22000.3
-22000.3
-18381.4
-3618.96
-18381.4
-18381.4
-18381.4
-14305.4
-4075.94
-14305.4
-14305.4
-9790.27
-4515.15
-9790.27
-9790.27
-9790.27
-4842.3
-4947.97
-4842.3
-4842.29
-4842.29
683.612
-5525.91
683.614
683.608
6755.6
-6072
6755.59
6755.59
6448.21
6180.22
6143.12
12669
-6505.78
12707.4
12609.9
12432.9
12256.3
12084.2
11907.9
11728.3
11585.7
17858.8
-6374.89
17778
17679.6
17540.6
17406.8
17284
17164.9
17042.4
16957.4
22076.4
-5165.77
22077.4
22075.2
22061.9
22069
22090
22119
22160.8
22216.1
22297.2
25636.8
-3275.68
25764.9
25892.1
26007
26134.5
26270.9
26422.2
26583.4
26754
29155.6
-2266.6
29360.9
29576.5
29795.6
30018
30243.2
30466.6
30690.1
30985.9
33213.4
-1965.31
33530.3
33854.4
34145.2
34486.2
34862.3
35231.7
35598.9
35980.5
38086.2
-1727.96
38583.4
39102.3
39568.6
40037.7
40526.3
41099.2
41673.5
42243.9
42835.5
44808.2
-1408.93
45519.5
46325.1
47051.6
47779.4
48551.5
49407.2
50421.5
51469.8
52979.1
-580.469
54086.6
55384.5
55384.5
55696.7
-312.172
55242.4
454.31
55242.4
55106.7
135.681
55106.7
55078
28.7185
54292.6
785.342
54292.6
53897.2
395.446
52747.3
1149.89
52747.3
51784
963.333
51784
50922.5
861.479
49462.7
1459.77
49462.7
48265.2
1197.53
48265.2
47228.4
1036.82
45774.5
1453.87
45774.5
44744.1
1030.41
43350.4
1393.65
43350.4
42271.8
1078.6
42271.8
41396.3
875.516
40294.8
1101.5
40294.8
39515.6
779.26
39515.6
38934.9
580.64
38239.9
695.021
38239.9
37884.7
355.21
37445.2
439.465
37445.2
37316.8
128.416
37316.8
37378.1
-61.2557
37451.1
-73.0524
37451.1
37808.4
-357.281
37808.4
38311.4
-503.047
38846
-534.519
38846
39575.1
-729.123
40287.3
-712.255
40287.3
41178.4
-891.064
41178.4
42125.8
-947.395
43032.2
-906.409
43032.2
44081.7
-1049.51
44081.7
45153.8
-1072.08
46138.3
-984.531
46138.3
47236.5
-1098.17
48178.7
-942.176
48178.7
49234.8
-1056.15
49234.8
50291.8
-1056.95
51172
-880.209
51172
52184.2
-1012.16
52184.2
53207
-1022.87
54039.6
-832.615
54039.6
55055.9
-1016.23
55855.2
-799.297
55855.2
56859
-1003.86
56859
-1132.81
-2166.03
-10164.3
-1870.8
-9842.3
-1705.21
-9466.94
-1578.03
-8411.48
-1516.3
-7307.97
-1482.01
-5907.86
-1463.74
-4312.34
-1445.34
-2452.52
-1425.32
-416.506
-1401.02
1549.48
-1370.63
2943.44
-1329.65
4013.45
-1276.17
4803.52
-1207.64
5156.56
-1105.89
4695.22
-837.443
2001.73
-593.061
-4885.39
-477.227
-8922.96
-493.462
-11993.8
-532.581
-14368
-579.946
-16401.6
-648.956
-18246.9
-741.296
-19960.6
-844.999
-21622.3
-956.446
-23291.9
-1077.82
-24933.1
-1205.85
-26330.6
-1340.19
-27079.5
-1632.93
-28012.9
-2157.55
-30487.6
-2734.14
-33204.7
-3249.05
-35429.7
-3606.72
-37486.5
-3685.47
-39081.5
-3463.13
-39406.3
-3012.53
-37766.9
-2443.61
-34004
-1787.04
-28200.3
-808.81
-19378.5
595.437
-1455.68
982.106
16325.8
1111.81
24207.7
1197.56
31577.3
1593.8
41081.3
2252.8
50468.7
2662.56
53869.7
2414.81
49115.8
1975.85
44083.4
1902.49
49827.2
2059.14
59589
2289.94
66761.4
2510.16
70995.5
2679.93
71806.8
3042.81
76497.5
3653.42
86027
4246.56
91893
4544.72
87075
4449.26
69353
4142.03
43180.8
3688.52
15343.5
2741.4
-879.555
1888.35
4791.82
1690.39
14154
1676.49
13328
1692.18
8932.26
1694.03
3592.87
1702.27
-640.786
1391.69
-5570.55
907.161
-8712.62
1215.26
11416.9
2078.61
27329.4
2202.1
4480.97
1288.98
-54687.6
1027.37
-70690.1
836.084
-67538.5
600.156
-67195.8
599.69
-70237.7
792.803
-74256.6
-75474.4
-2285.44
-10413.9
-1963.95
-10163.8
-1770.92
-9659.97
-1619.11
-8563.28
-1541.69
-7385.39
-1500.32
-5949.23
-1483.2
-4329.45
-1468.58
-2467.14
-1445.97
-439.111
-1412.77
1516.28
-1377.41
2908.07
-1334.39
3970.43
-1280.17
4749.3
-1209.91
5086.3
-1083.86
4569.17
-754.684
1672.56
-588.814
-5051.26
-516.639
-8995.13
-552.752
-11957.7
-596.937
-14323.8
-648.989
-16349.6
-729.378
-18166.5
-836.691
-19853.3
-956.755
-21502.2
-1085.47
-23163.2
-1229.22
-24789.4
-1388.6
-26171.2
-1563.91
-26904.2
-1893.76
-27683.1
-2441.08
-29940.3
-3032.34
-32613.4
-3554.29
-34907.7
-3911.44
-37129.3
-3989.34
-39003.6
-3764.04
-39631.6
-3303.11
-38227.8
-2716.07
-34591
-2033.43
-28882.9
-1038.9
-20373.1
676.352
-3170.93
1055.13
15947
1156.6
24106.3
1230.18
31503.7
1595.5
40716
2219.11
49845.1
2610.06
53478.8
2375.62
49350.2
1953.42
44505.6
1888.35
49892.2
2048.71
59428.6
2280.39
66529.7
2499.7
70776.2
2670.45
71636
3033.72
76134.2
3644.51
85416.2
4239.7
91297.8
4543.33
86771.4
4449.87
69446.5
4131.85
43498.9
3586.85
15888.5
2622.98
84.3152
1851.09
5563.7
1689.22
14315.9
1680.79
13336.4
1692.46
8920.59
1687.16
3598.17
1671.14
-624.773
1322.89
-5222.3
836.268
-8226
1256.58
10996.6
2555.35
26030.6
3022.28
4014.03
1616.9
-53282.3
1128.28
-70201.5
898.421
-67308.6
652.652
-66950
645.361
-70230.4
722.232
-74333.4
-75756
-2338.64
-10669
-2010.31
-10492.1
-1802.95
-9867.32
-1638.88
-8727.35
-1552.09
-7472.19
-1504.57
-5996.75
-1484.9
-4349.12
-1472.03
-2480.01
-1453.52
-457.618
-1420.07
1482.83
-1382.62
2870.62
-1338.33
3926.14
-1283.44
4694.41
-1210.89
5013.75
-1073
4431.28
-750.982
1350.54
-613.368
-5188.87
-557.241
-9051.26
-587.181
-11927.8
-634.442
-14276.6
-693.33
-16290.7
-783.301
-18076.5
-900.975
-19735.6
-1032.39
-21370.8
-1174.76
-23020.8
-1336.47
-24627.7
-1515.82
-25991.9
-1705.76
-26714.2
-2043.44
-27345.4
-2599.92
-29383.8
-3201.01
-32012.3
-3727.22
-34381.5
-4086.44
-36770.1
-4171.79
-38918.3
-3957.09
-39846.3
-3503.94
-38681
-2916.81
-35178.1
-2226.62
-29573.1
-1238.92
-21360.8
596.746
-5006.59
1189.59
15354.2
1241.36
24054.5
1278.2
31466.9
1602.04
40392.1
2185.18
49261.9
2559.6
53104.3
2333.22
49576.6
1921.12
44917.7
1861.16
49952.2
2028.07
59261.7
2264.09
66293.7
2485.76
70554.5
2655.79
71466
3014.96
75775
3626.12
84805
4226.47
90697.4
4539.31
86458.6
4451.43
69534.4
4136.48
43813.8
3589.17
16435.8
2622.14
1051.35
1849.54
6336.29
1689.74
14475.7
1681.94
13344.2
1684.11
8918.41
1663.33
3618.95
1622.1
-583.541
1309.92
-4910.11
907.14
-7823.22
1367.89
10535.9
2965.7
24432.8
3638.15
3341.58
1911.34
-51555.4
1229.9
-69520.1
949.177
-67027.9
687.98
-66688.8
668.982
-70211.4
760.103
-74424.6
-75795.2
-2397.37
-10928.8
-2060.55
-10829
-1837.13
-10090.7
-1658.42
-8906.07
-1562.28
-7568.33
-1510.6
-6048.42
-1489.2
-4370.52
-1474.53
-2494.68
-1455.12
-477.029
-1423.22
1450.93
-1385.57
2832.97
-1341
3881.57
-1285.95
4639.36
-1212.19
4940
-1071.76
4290.85
-762.033
1040.82
-628.206
-5322.7
-592.002
-9087.46
-623.631
-11896.2
-676.846
-14223.4
-744.576
-16223
-846.393
-17974.7
-976.518
-19605.5
-1121.05
-21226.2
-1279.13
-22862.8
-1462.65
-24444.1
-1667.78
-25786.7
-1875.81
-26506.2
-2220.09
-27001.1
-2787.61
-28816.3
-3403.05
-31396.9
-3936.53
-33848
-4301.99
-36404.6
-4400.26
-38820
-4201.07
-40045.5
-3758.19
-39123.8
-3171.07
-35765.3
-2468.02
-30276.2
-1446.57
-22382.2
506.502
-6959.66
1341.5
14519.2
1371.17
24024.8
1345.26
31492.8
1615.59
40121.8
2152.29
48725.2
2507.61
52749
2290.23
49793.9
1885.94
45322
1826.92
50011.2
1999.75
59088.9
2242
66051.5
2468.51
70328
2637.88
71296.6
2991.24
75421.7
3600.66
84195.6
4205.27
90092.8
4529.53
86134.3
4454.8
69609.1
4161.63
44107
3640.54
16956.8
2655.5
2036.4
1861.81
7129.98
1695.63
14641.9
1682.96
13356.9
1675.18
8926.2
1642.17
3651.96
1586.63
-528.007
1317.53
-4641.01
979.308
-7485
1590.21
9924.95
3468.84
22554.2
4255.2
2555.22
2252.88
-49553.1
1358.2
-68625.4
1008.1
-66677.8
721.342
-66402.1
686.698
-70176.7
773.578
-74511.5
-76037.9
-2443.81
-11187.1
-2103.61
-11169.2
-1866.63
-10327.7
-1673.87
-9098.82
-1567.77
-7674.42
-1512.15
-6104.04
-1490.71
-4391.97
-1477.45
-2507.94
-1456.97
-497.509
-1425.62
1419.58
-1388.07
2795.42
-1343.53
3837.02
-1288.56
4584.39
-1214.24
4865.68
-1072.83
4149.43
-770.019
738.003
-652.333
-5440.39
-630.033
-9109.76
-661.647
-11864.6
-718.226
-14166.8
-796.941
-16144.3
-912.076
-17859.5
-1054.91
-19462.7
-1212.47
-21068.7
-1386.71
-22688.5
-1593.41
-24237.4
-1826.66
-25553.5
-2052.71
-26280.1
-2396.28
-26657.5
-2970.38
-28242.1
-3601.55
-30765.7
-4143.57
-33306
-4518.62
-36029.6
-4636.33
-38702.3
-4460.92
-40220.9
-4036.31
-39548.5
-3454.79
-36346.8
-2738.92
-30992
-1669.19
-23451.9
396.018
-9024.86
1497.46
13417.7
1545.05
23977.2
1438.65
31599.2
1639.44
39921
2121.74
48242.9
2452.66
52418.1
2241.7
50004.9
1844.33
45719.3
1785.59
50070
1963.96
58910.5
2213.56
65801.9
2447.16
70094.4
2616.1
71127.7
2962.97
75074.8
3569.3
83589.3
4177.26
89484.9
4514.15
85797.4
4456.62
69666.7
4198.99
44364.6
3713.62
17442.2
2712.46
3037.56
1885.35
7957.09
1705.45
14821.8
1686.03
13376.3
1670.27
8941.96
1628.76
3693.47
1562.69
-461.939
1330.07
-4408.39
1028.91
-7183.84
1898.85
9055.01
4037.16
20415.9
4823.81
1768.56
2608.89
-47338.2
1502.06
-67518.6
1070.76
-66246.5
750.299
-66081.6
695.149
-70121.6
763.787
-74580.1
-76106.7
-2481.25
-11439.4
-2141.17
-11509.2
-1892.52
-10576.4
-1686.68
-9304.67
-1570.92
-7790.18
-1511.03
-6163.94
-1488.34
-4414.65
-1476.58
-2519.7
-1457.49
-516.596
-1427.46
1389.55
-1390.41
2758.37
-1346.14
3792.75
-1291.35
4529.6
-1216.64
4790.97
-1075.1
4007.89
-784.505
447.411
-683.993
-5540.9
-666.624
-9127.13
-698.403
-11832.8
-760.31
-14104.9
-852.274
-16052.3
-981.789
-17730
-1137.56
-19306.9
-1307.87
-20898.4
-1498.44
-22498
-1729.55
-24006.3
-1994.04
-25289
-2241.58
-26032.6
-2580.05
-26319.1
-3155.73
-27666.5
-3803.88
-30117.6
-4356.65
-32753.2
-4745.4
-35640.8
-4889.18
-38558.5
-4745.1
-40365
-4345.33
-39948.2
-3773.37
-36918.8
-3043.92
-31721.5
-1917.14
-24578.7
255.52
-11197.5
1659.74
12013.5
1755.05
23881.9
1561.91
31792.3
1675.85
39807.1
2095.59
47823.2
2396.59
52117.1
2187.03
50214.5
1794.41
46112
1736.04
50128.3
1920.34
58726.2
2178.26
65543.9
2420.71
69852
2590.29
70958.1
2930.27
74734.8
3532.04
82987.5
4142.83
88874.1
4492.8
85447.4
4455.55
69703.9
4246.15
44574
3805.72
17882.6
2784.46
4058.82
1918.91
8822.64
1719.43
15021.3
1692.74
13403
1671.93
8962.76
1624.81
3740.59
1554.11
-391.232
1347.6
-4201.88
1062.28
-6898.52
2220.19
7897.1
4610.42
18025.6
5333.77
1045.22
2961.37
-44965.8
1657.53
-66214.7
1136.23
-65725.2
772.643
-65718
693.174
-70042.1
807.2
-74694.1
-76322.4
-2508.61
-11680.9
-2172.54
-11845.3
-1914.03
-10834.9
-1696.21
-9522.49
-1571.69
-7914.69
-1508.54
-6227.09
-1484.73
-4438.47
-1473.72
-2530.71
-1456.39
-533.928
-1428.28
1361.44
-1392.19
2722.28
-1348.46
3749.03
-1293.97
4475.11
-1219.17
4716.16
-1078.91
3867.64
-802.048
170.549
-713.554
-5629.39
-700.977
-9139.71
-734.872
-11798.9
-803.98
-14035.8
-910.559
-15945.7
-1055.14
-17585.5
-1223.48
-19138.6
-1405.74
-20716.1
-1612.37
-22291.3
-1868.29
-23750.4
-2166
-24991.3
-2440.08
-25758.5
-2772.28
-25986.9
-3343.34
-27095.4
-4008.07
-29452.9
-4574.04
-32187.3
-4980.63
-35234.3
-5157.12
-38382
-5052.18
-40469.9
-4684.36
-40316
-4126.37
-37476.7
-3383.71
-32464.2
-2197.92
-25764.5
90.8361
-13486.3
1839.19
10265.1
1990.12
23731
1716.48
32066
1727.7
39795.9
2075.52
47475.4
2341.25
51851.4
2128.17
50427.5
1737.03
46503.1
1678.33
50187
1868.88
58535.6
2135.97
65276.9
2388.43
69599.5
2560.43
70786.1
2893.53
74401.7
3488.62
82392.4
4101.58
88261.1
4464.6
85084.4
4450.91
69717.6
4301.77
44723.2
3914.3
18270.1
2870.54
5102.59
1960.8
9732.37
1738.03
15244
1704.79
13436.2
1682.38
8985.18
1632.63
3790.34
1564.09
-322.695
1372.31
-4010.1
1096.48
-6622.69
2507.88
6485.7
5100.39
15433.1
5754.57
391.035
3292.08
-42503.3
1818.52
-64741.2
1203.24
-65109.9
788.529
-65303.3
677.401
-69931
728.191
-74744.9
-76606.3
-2525.89
-11907.2
-2197.22
-12174
-1930.65
-11101.4
-1702.29
-9750.85
-1569.8
-8047.19
-1504.18
-6292.71
-1479.86
-4462.79
-1470.06
-2540.51
-1454.47
-549.518
-1428.28
1335.25
-1393.39
2687.39
-1350.39
3706.03
-1296.32
4421.04
-1221.74
4641.58
-1083.23
3729.13
-817.953
-94.7253
-739.442
-5707.91
-732.987
-9146.16
-771.101
-11760.8
-849.586
-13957.3
-972.15
-15823.2
-1131.9
-17425.7
-1311.88
-18958.6
-1505
-20523
-1727.35
-22069
-2008.02
-23469.7
-2339.73
-24659.6
-2645.96
-25452.3
-2975.06
-25657.8
-3535.44
-26535
-4214.29
-28774
-4796.53
-31605
-5225.41
-34805.4
-5441.09
-38166.3
-5382.87
-40528.1
-5054.02
-40644.9
-4514.3
-38016.5
-3759.48
-33219
-2521.17
-27002.8
-101.33
-15906.1
2044.24
8119.58
2237.01
23538.2
1903.06
32399.9
1799.37
39899.6
2063.19
47211.6
2287.99
51626.6
2066.86
50648.7
1673.33
46896.6
1612.84
50247.5
1809.68
58338.8
2086.53
65000
2349.52
69336.5
2526.91
70608.7
2853.48
74075.1
3439.09
81806.8
4053.17
87647
4428.72
84708.9
4440.1
69706.2
4361.61
44801.6
4033.66
18598.1
2965.89
6170.36
2009.26
10689
1761.39
15491.9
1723.61
13474
1703.22
9005.57
1654.21
3839.35
1593.62
-262.111
1409.34
-3825.82
1155.37
-6368.72
2756.86
4884.22
5464.46
12725.5
6066.38
-210.884
3585.97
-40022.9
1979.89
-63135.1
1270.79
-64400.8
797.995
-64830.5
652.723
-69785.7
749.733
-74841.9
-76736.8
-2532.67
-12114.4
-2214.43
-12492.2
-1941.64
-11374.2
-1704.88
-9987.61
-1565.4
-8186.67
-1497.82
-6360.28
-1473.32
-4487.3
-1465.21
-2548.62
-1451.83
-562.899
-1427.63
1311.05
-1394.08
2653.84
-1351.93
3663.89
-1298.34
4367.45
-1224.12
4567.36
-1087.23
3592.23
-832.583
-349.368
-762.999
-5777.49
-762.808
-9146.35
-807.514
-11716.1
-897.898
-13866.9
-1037.3
-15683.7
-1211.54
-17251.5
-1401.76
-18768.4
-1604.69
-20320.1
-1842.6
-21831.1
-2147.6
-23164.7
-2512.9
-24294.3
-2856.61
-25108.6
-3190.18
-25324.2
-3734.54
-25990.7
-4422.51
-28086
-5024.46
-31003.1
-5480.28
-34349.6
-5741.3
-37905.3
-5737.15
-40532.3
-5454.3
-40927.7
-4937.31
-38533.5
-4172.15
-33984.1
-2898.2
-28276.8
-379.294
-18425
2264.09
5476.19
2477.83
23324.5
2121.48
32756.2
1896.23
40124.8
2060.95
47046.9
2238.37
51449.1
2003.98
50883.1
1603.21
47297.4
1539.49
50311.2
1742.81
58135.5
2029.7
64713.1
2303.18
69063.1
2490.91
70421
2811.41
73754.6
3383.82
81234.4
3997.53
87033.3
4384.43
84322
4420.16
69670.5
4416.83
44805
4145.68
18869.2
3054.6
7261.44
2059.72
11683.9
1789.42
15762.2
1750.22
13513.2
1735.51
9020.28
1691.15
3883.71
1642.94
-213.899
1466.99
-3649.86
1247.42
-6149.15
2964.2
3167.43
5696.34
9993.38
6260.78
-775.326
3832.63
-37594.8
2137.16
-61439.6
1338.12
-63601.8
800.789
-64293.2
618.677
-69603.6
758.264
-74981.5
-77035.5
-2527.93
-12298.7
-2223.11
-12797
-1946.12
-11651.2
-1703.76
-10230
-1558.62
-8331.82
-1489.62
-6429.28
-1465.34
-4511.58
-1459.13
-2554.82
-1448.36
-573.671
-1426.3
1288.99
-1394.22
2621.76
-1353.02
3622.69
-1299.94
4314.37
-1226.06
4493.47
-1090.74
3456.91
-846.919
-593.19
-785.107
-5839.3
-791.486
-9139.98
-844.957
-11662.6
-949.6
-13762.3
-1105.99
-15527.4
-1293.41
-17064
-1492.33
-18569.4
-1704.41
-20108
-1958.17
-21577.3
-2286.91
-22836
-2684.34
-23896.9
-3069.67
-24723.3
-3418.61
-24975.3
-3943.21
-25466.1
-4633.08
-27396.2
-5258.2
-30378
-5745.81
-33861.9
-6057.84
-37593.3
-6114.72
-40475.4
-5884.91
-41157.6
-5395.45
-39022.9
-4622.83
-34756.8
-3338.82
-29560.8
-915.472
-20848.4
2408.08
2152.64
2692.13
23040.4
2371.46
33076.9
2024.72
40471.5
2072.47
46999.1
2194.08
51327.5
1939.32
51137.8
1525.09
47711.6
1457.79
50378.5
1668.55
57924.7
1965.2
64416.5
2248.74
68779.5
2451.3
70218.4
2765.62
73440.3
3322.85
80677.2
3934.66
86421.5
4331.17
83925.5
4390.68
69611
4454.41
44741.2
4219.93
19103.7
3112.83
8368.54
2104.86
12691.9
1821.92
16045.1
1785.41
13549.7
1779.88
9025.81
1744.7
3918.9
1711.96
-181.164
1553.38
-3491.28
1359.77
-5955.55
3101.66
1425.55
5787.41
7307.63
6333.12
-1321.04
4026.7
-35288.3
2287.15
-59700.1
1404.93
-62719.5
798.447
-63686.7
574.182
-69379.3
667.293
-75074.6
-77424.3
-2509.82
-12456.7
-2221.89
-13085
-1943.15
-11930
-1698.64
-10474.5
-1549.49
-8480.96
-1479.56
-6499.21
-1456.11
-4535.03
-1452.05
-2558.88
-1444.12
-581.607
-1424.29
1269.16
-1393.77
2591.24
-1353.6
3582.52
-1301.02
4261.79
-1227.37
4419.83
-1093.65
3323.19
-861.212
-825.626
-806.701
-5893.81
-820.183
-9126.49
-884.412
-11598.4
-1005.16
-13641.5
-1177.98
-15354.5
-1376.89
-16865.1
-1583.21
-18363.1
-1804.57
-19886.6
-2075.04
-21306.8
-2426.85
-22484.2
-2854.01
-23469.7
-3283.22
-24294.1
-3659.78
-24598.7
-4163.85
-24962
-4847.19
-26712.8
-5497.94
-29727.2
-6022.22
-33337.7
-6390.27
-37225.2
-6514.71
-40351
-6345.03
-41327.2
-5888.59
-39479.4
-5114.36
-35531
-3838.63
-30836.5
-1610.05
-23077
2021.59
-1479
2874.08
22187.9
2652.79
33298.2
2192.15
40932.2
2103.18
47088.1
2156.52
51274.2
1872.07
51422.3
1437.66
48146
1367.66
50448.5
1587.47
57704.9
1892.88
64111.1
2185.35
68487
2403.68
70000.1
2713.41
73130.6
3257.16
80133.4
3864.75
85813.9
4268.55
83521.7
4353.55
69526
4461.19
44633.6
4226.66
19338.2
3119.81
9475.39
2137.62
13674
1858.62
16324.1
1829.72
13578.6
1836.57
9018.96
1815.4
3940.07
1800.64
-166.406
1672
-3362.63
1476.49
-5760.05
3135.46
-233.422
5721.2
4721.89
6283.9
-1883.74
4168.38
-33172.8
2428.15
-57959.8
1471.31
-61762.7
792.8
-63008.2
524.912
-69111.5
658.753
-75208.5
-77707.8
-2475.89
-12584.6
-2209.17
-13351.7
-1931.89
-12207.3
-1689.18
-10717.2
-1538.01
-8632.14
-1467.56
-6569.66
-1445.68
-4556.91
-1444.06
-2560.49
-1439.18
-586.491
-1421.62
1251.59
-1392.71
2562.34
-1353.61
3543.42
-1301.47
4209.65
-1227.91
4346.27
-1095.72
3191
-875.558
-1045.78
-828.532
-5940.84
-849.737
-9105.29
-926.715
-11521.4
-1064.77
-13503.5
-1252.92
-15166.4
-1461.57
-16656.5
-1674.6
-18150.1
-1906.39
-19654.8
-2194.97
-21018.2
-2569.05
-22110.1
-3022.9
-23015.9
-3495.96
-23821
-3911.59
-24183.1
-4399.74
-24473.8
-5068.17
-26044.4
-5743.79
-29051.6
-6309.18
-32772.3
-6737.47
-36796.9
-6935.49
-40152.9
-6833.13
-41429.6
-6415.94
-39896.5
-5646.04
-36300.9
-4375.3
-32107.3
-2185.41
-25266.8
1561.07
-5225.49
3056.13
20692.9
2969.23
33385.1
2404.5
41496.9
2159.87
47332.7
2126.68
51307.4
1803.13
51745.8
1344.2
48605
1271.5
50521.2
1500.62
57475.8
1812.75
63798.9
2112.75
68187
2344.55
69768.3
2654.18
72821
3187.09
79600.5
3788.08
85212.9
4196.35
83113.4
4309.72
69412.6
4428.56
44514.8
4152.11
19614.7
3068.35
10559.1
2154.41
14588
1899.19
16579.4
1883.29
13594.5
1905.43
8996.82
1902.88
3942.63
1909.09
-172.618
1820.84
-3274.38
1604.95
-5544.16
3070.11
-1698.58
5499.47
2292.53
6126.85
-2511.12
4263.88
-31309.8
2559.89
-56255.9
1537.79
-60740.6
785.464
-62255.9
472.264
-68798.3
626.576
-75362.8
-78179.4
-2423.93
-12679.5
-2183.42
-13592.2
-1911.56
-12479.1
-1675.01
-10953.7
-1524.13
-8783.02
-1453.6
-6640.19
-1434.1
-4576.41
-1435.21
-2559.39
-1433.6
-588.103
-1418.33
1236.32
-1391.06
2535.07
-1353.04
3505.4
-1301.26
4157.87
-1227.57
4272.58
-1096.79
3060.22
-890.065
-1252.51
-850.959
-5979.95
-880.788
-9075.46
-972.515
-11429.7
-1128.41
-13347.6
-1330.44
-14964.4
-1547.3
-16439.6
-1767.23
-17930.2
-2011.55
-19410.5
-2320.05
-20709.7
-2715.5
-21714.6
-3192.67
-22538.7
-3707.43
-23306.2
-4171.19
-23719.3
-4655.22
-23989.8
-5302.03
-25397.6
-5996.22
-28357.4
-6605.66
-32162.8
-7097.42
-36305.1
-7374.43
-39875.9
-7346.84
-41457.2
-6976.16
-40267.2
-6216.97
-37060.1
-4946.96
-33377.3
-2745.46
-27468.3
1206.5
-9177.44
3276.48
18622.9
3324.49
33337.1
2662.81
42158.6
2250.03
47745.5
2106.91
51450.5
1738.69
52114
1256.97
49086.7
1176.49
50601.7
1410.13
57242.2
1725.19
63483.9
2030.41
67881.8
2272.41
69526.3
2587.94
72505.4
3112.07
79076.4
3704.64
84620.4
4114.43
82703.6
4256.99
69270
4354.58
44417.2
4004.17
19965.1
2967.32
11596
2156.45
15398.8
1943.18
16792.6
1945.65
13592
1985.82
8956.65
2005.78
3922.67
2036.52
-203.36
1995.53
-3233.39
1780.23
-5328.86
2971.91
-2890.26
5166.11
98.3209
5894.78
-3239.79
4324.66
-29739.7
2683.27
-54614.5
1605.3
-59662.6
778.983
-61429.6
418.756
-68438
569.692
-75513.7
-78594.2
-2352.72
-12738.8
-2143.55
-13801.4
-1881.63
-12741
-1655.68
-11179.7
-1507.74
-8930.95
-1437.73
-6710.21
-1421.47
-4592.66
-1425.59
-2555.27
-1427.44
-586.249
-1414.48
1223.36
-1388.83
2509.41
-1351.86
3468.44
-1300.36
4106.37
-1226.37
4198.58
-1097.07
2930.93
-904.942
-1444.64
-873.854
-6011.03
-913.948
-9035.37
-1022.37
-11321.2
-1195.97
-13174
-1410.24
-14750.1
-1634.32
-16215.6
-1862.22
-17702.3
-2121.83
-19150.9
-2452.17
-20379.4
-2867.93
-21298.9
-3365.06
-22041.6
-3918.1
-22753.2
-4435.89
-23201.5
-4932.6
-23493.1
-5555.13
-24775.1
-6256.9
-27655.6
-6910.08
-31509.7
-7467.11
-35748.1
-7827.86
-39515.2
-7882.77
-41402.3
-7567.1
-40582.9
-6826.35
-37800.8
-5556.6
-34647
-3318.56
-29706.4
901.593
-13397.6
3566.67
15957.8
3709.9
33193.9
2961.34
42907.2
2381.88
48324.9
2104.87
51727.5
1693.13
52525.8
1197.37
49582.4
1094.73
50704.4
1319.8
57017.1
1631.65
63172
1937.72
67575.8
2186.89
69277.1
2512.96
72179.4
3030.96
78558.4
3614.01
84037.3
4022.5
82295.1
4191.11
69101.4
4243.45
44364.8
3806.08
20402.5
2836.17
12565.9
2148.77
16086.2
1990.12
16951.3
2015.63
13566.5
2076.45
8895.83
2121.76
3877.36
2180.05
-261.656
2188.72
-3242.06
2017.92
-5158.06
2935.97
-3808.31
4820.93
-1786.64
5639.72
-4058.58
4364.96
-28464.9
2799.94
-53049.5
1675.04
-58537.7
775.779
-60530.3
367.721
-68030
552.468
-75698.4
-79113.8
-2262.27
-12761
-2089.28
-13974.4
-1841.93
-12988.4
-1630.72
-11390.9
-1488.63
-9073.05
-1419.98
-6778.85
-1407.86
-4604.78
-1415.35
-2547.78
-1420.84
-580.756
-1410.18
1212.71
-1386.09
2485.31
-1350.12
3432.47
-1298.81
4055.06
-1224.47
4124.24
-1096.89
2803.35
-920.234
-1621.29
-897.188
-6034.08
-950.004
-8982.55
-1076.71
-11194.5
-1267.25
-12983.4
-1492.16
-14525.2
-1723.09
-15984.6
-1960.68
-17464.7
-2238.54
-18873
-2592.32
-20025.6
-3027.32
-20863.9
-3541.49
-21527.4
-4128.79
-22165.9
-4703.18
-22627.1
-5228.86
-22967.4
-5831.42
-24172.5
-6529.71
-26957.3
-7220.85
-30818.5
-7842.61
-35126.3
-8290.92
-39066.9
-8436.39
-41256.8
-8185.59
-40833.7
-7472.39
-38514
-6205.24
-35914.2
-3924.1
-31987.5
627.474
-17949.2
3918.83
12666.5
4088.39
33024.3
3288.83
43706.7
2564.27
49049.5
2137.27
52154.5
1688.91
52974.2
1189.48
50081.9
1038.9
50855
1233.34
56822.6
1534.32
62871
1835.12
67275
2087.73
69024.5
2425.14
71842
2940.19
78043.3
3514.72
83462.8
3920.34
81889.5
4108.83
68912.9
4104.03
44369.6
3586.02
20920.5
2696.8
13455.1
2138.03
16645
2039.61
17049.7
2091.5
13514.6
2175.26
8812.08
2247.69
3804.93
2334.86
-348.826
2390.84
-3298.04
2296.76
-5063.98
3022.51
-4534.06
4583.98
-3348.11
5419.61
-4894.21
4397.6
-27442.9
2911.76
-51563.6
1748.45
-57374.4
778.849
-59560.7
318.993
-67570.1
443.54
-75823
-79719.8
-2153.48
-12745.2
-2021.13
-14106.7
-1792.75
-13216.8
-1599.7
-11583.9
-1466.47
-9206.28
-1400.41
-6844.91
-1393.3
-4611.89
-1404.62
-2536.46
-1413.92
-571.45
-1405.56
1204.35
-1382.93
2462.68
-1347.85
3397.39
-1296.66
4003.86
-1222.06
4049.63
-1096.4
2677.69
-936.008
-1781.68
-921.636
-6048.45
-989.788
-8914.4
-1135.75
-11048.6
-1341.9
-12777.3
-1576.02
-14291.1
-1813.92
-15746.7
-2063.25
-17215.3
-2361.99
-18574.3
-2740.31
-19647.3
-3193.63
-20410.6
-3722.68
-20998.3
-4340.02
-21548.6
-4970.09
-21997.1
-5536.14
-22401.4
-6130.03
-23578.6
-6819.14
-26268.2
-7537.23
-30100.4
-8219.48
-34444.1
-8757.69
-38528.7
-9001.96
-41012.6
-8827.26
-41008.4
-8152.24
-39189
-6892.77
-37173.6
-4588.07
-34292.2
262.867
-22800.1
4230.5
8698.81
4396.19
32858.6
3631.64
44471.3
2803.09
49878
2227.57
52730
1751.33
53450.4
1250.91
50582.3
1017.72
51088.1
1152.03
56688.3
1434.06
62589
1724
66985
1974.75
68773.7
2320.53
71496.2
2835.89
77528
3404.51
82894.2
3807.09
81486.9
4009.19
68710.8
3947.8
44431
3368.69
21499.6
2566.95
14256.9
2130.22
17081.7
2091.34
17088.6
2171.24
13434.7
2279.5
8703.82
2379.79
3704.65
2495.07
-464.105
2592.47
-3395.44
2581.94
-5053.46
3199.5
-5151.61
4482.74
-4631.36
5263.17
-5674.63
4429.9
-26609.7
3020.57
-50154.3
1827.04
-56180.9
791.18
-58524.9
277.925
-67056.9
406.991
-75952.1
-80219.2
-2027.44
-12691.1
-1939.91
-14194.2
-1734.72
-13422
-1562.27
-11756.4
-1440.87
-9327.67
-1379.07
-6906.71
-1377.83
-4613.13
-1393.55
-2520.75
-1406.85
-558.146
-1400.78
1198.27
-1379.48
2441.38
-1345.15
3363.06
-1294.02
3952.74
-1219.32
3974.94
-1095.77
2554.14
-952.377
-1925.08
-947.946
-6052.88
-1033.87
-8828.47
-1199.27
-10883.2
-1419.3
-12557.2
-1661.41
-14049
-1906.73
-15501.4
-2169.77
-16952.3
-2491.37
-18252.7
-2894.57
-19244.1
-3365.68
-19939.4
-3908.63
-20455.4
-4551.77
-20905.4
-5232.61
-21316.2
-5844.55
-21789.4
-6444.12
-22979
-7125.83
-25586.5
-7859.42
-29366.8
-8593.57
-33709.9
-9221.55
-37900.7
-9572.56
-40661.6
-9486.37
-41094.6
-8861.88
-39813.5
-7619.45
-38416.1
-5345.53
-36566.1
-589.795
-27555.8
4229.66
3879.36
4576.28
32512
3979.42
45068.1
3096.96
50760.5
2396.63
53430.4
1899.03
53948
1386.66
51094.6
1036.75
51438.1
1077.55
56647.5
1328.69
62337.9
1604.46
66709.2
1847.99
68530.2
2197.03
71147.1
2716.16
77008.9
3281.74
82328.6
3681.31
81087.3
3893.03
68499.1
3786.26
44537.8
3171.05
22114.8
2457.12
14970.8
2129.25
17409.6
2144.86
17073
2252.66
13326.9
2385.84
8570.64
2513.56
3576.93
2654.63
-605.175
2785.48
-3526.3
2846.95
-5114.93
3404.33
-5708.98
4469.61
-5696.64
5160.67
-6365.69
4463.19
-25912.2
3128.1
-48819.2
1912.24
-54965
814.607
-57427.2
245.173
-66487.4
360.363
-76067.3
-80806.2
-1885.12
-12599.4
-1846.1
-14233.2
-1668.54
-13599.5
-1518.2
-11906.7
-1411.35
-9434.52
-1356.04
-6962.03
-1361.47
-4607.69
-1382.3
-2499.93
-1399.8
-540.637
-1396
1194.46
-1375.86
2421.24
-1342.09
3329.28
-1290.99
3901.65
-1216.45
3900.4
-1095.57
2433.25
-968.765
-2051.88
-976.851
-6044.8
-1082.5
-8722.83
-1266.65
-10699
-1498.56
-12325.3
-1747.46
-13800.1
-2000.71
-15248.2
-2279.24
-16673.8
-2624.86
-17907.1
-3052.5
-18816.5
-3541.27
-19450.7
-4098.53
-19898.1
-4763.63
-20240.3
-5486.45
-20593.4
-6144.67
-21131.2
-6762.65
-22361.1
-7443.89
-24905.3
-8186.47
-28624.2
-8961.73
-32934.7
-9675.9
-37186.5
-10140.3
-40197.1
-10156
-41078.9
-9596.79
-40372.7
-8390.37
-39622.5
-6220.42
-38736.1
-2152.36