/*--------------------------------*- C++ -*----------------------------------*\
| =========                 |                                                 |
| \\      /  F ield         | OpenFOAM: The Open Source CFD Toolbox           |
|  \\    /   O peration     | Version:  4.1                                   |
|   \\  /    A nd           | Web:      www.OpenFOAM.org                      |
|    \\/     M anipulation  |                                                 |
\*---------------------------------------------------------------------------*/
FoamFile
{
    version     2.0;
    format      ascii;
    class       surfaceScalarField;
    location    "11";
    object      phi;
}
// * * * * * * * * * * * * * * * * * * * * * * * * * * * * * * * * * * * * * //

dimensions      [0 3 -1 0 0 0 0];

internalField   nonuniform List<scalar> 
13220
(
-836.707
2136.61
-1293.17
1756.66
-1740.39
1747.12
-2069.85
1629.36
-2325.25
1555.6
-2500.75
1475.4
-2599.67
1398.81
-2622.54
1323.07
-2574.16
1251.52
-2460
1185.74
-2284.38
1124.58
-2036.32
1051.83
-1662.77
926.348
-1056.72
694.155
243.176
-69.2032
2205.81
-194.597
1882.05
-379.094
1931.62
-519.813
1770.07
-658.361
1694.15
-767.901
1584.94
-856.228
1487.14
-920.287
1387.13
-955.452
1286.69
-940.347
1170.63
-844.032
1028.27
-666.102
873.903
-452.932
713.177
-224.541
465.762
18.6345
-180.65
2386.46
-416.502
2117.91
-618.821
2133.94
-766.774
1918.03
-907.979
1835.35
-1015.56
1692.52
-1110.98
1582.56
-1191.49
1467.64
-1244.31
1339.51
-1216.41
1142.73
-1027.88
839.738
-640.318
486.325
-172.034
244.874
138.407
155.271
157.042
-43.4118
2429.87
-164.943
2239.44
-246.972
2215.97
-308.272
1979.33
-375.128
1902.21
-425.438
1742.83
-475.908
1633.03
-521.425
1513.15
-569.749
1387.83
-617.402
1190.39
-641.514
863.85
-590.657
435.486
-444.145
98.3835
-244.805
-44.0411
-87.7627
106.86
2323.02
33.5934
2312.71
35.1839
2214.38
47.5941
1966.92
62.3779
1887.43
85.2662
1719.95
113.244
1605.06
148.682
1477.72
181.532
1354.99
173.926
1198
73.7899
963.992
-126.059
635.348
-284.538
256.886
-265.94
-62.6156
-353.703
187.473
2135.55
159.294
2340.89
197.504
2176.18
249.863
1914.57
314.544
1822.75
379.407
1655.09
455.331
1529.14
539.22
1393.84
630.182
1264.03
700.488
1127.7
699.331
965.152
572.166
762.52
322.295
506.769
56.3557
203.342
-297.346
165.168
1970.38
183.469
2322.6
226.201
2133.45
280.46
1860.32
348.168
1755.05
408.583
1594.68
472.846
1464.88
535.906
1330.78
596.567
1203.37
645.582
1078.69
661.862
948.874
614.443
809.951
482.56
638.67
264.673
421.265
-32.6739
96.131
1874.26
154.076
2264.66
208.219
2079.31
267.538
1801
331.245
1691.34
392.071
1533.86
446.501
1410.45
494.142
1283.14
535.157
1162.36
566.956
1046.89
577.721
938.11
545.724
841.939
442.363
742.022
254.321
609.288
221.647
12.6902
1861.57
90.2708
2187.08
155.878
2013.71
213.871
1743.01
268.654
1636.57
336.42
1466.09
415.4
1331.47
513.564
1184.98
612.912
1063.02
694.33
965.473
726.689
905.752
681.078
887.565
536.145
886.969
306.236
839.218
527.883
-75.7277
1937.3
-33.1088
2144.46
6.77286
1973.82
3.31812
1746.47
0.558283
1639.32
20.695
1445.96
94.8515
1257.32
227.93
1051.9
386.019
904.925
536.929
814.558
633.93
808.752
626.298
895.18
491.304
1021.95
267.949
1062.56
795.832
-80.053
2017.34
-209.561
2273.96
-292.024
2056.28
-409.094
1863.53
-532.98
1763.21
-649.398
1562.37
-724.063
1331.98
-747.679
1075.51
-722.131
879.373
-637.754
730.179
-480.739
651.73
-265.025
679.472
-67.1489
824.076
21.0368
974.373
816.869
170.373
1846.97
-8.83929
2453.17
-216.005
2263.44
-390.524
2038.04
-549.807
1922.48
-728.197
1740.75
-926.206
1529.98
-1132.27
1281.57
-1311.82
1058.92
-1426.12
844.471
-1416.15
641.752
-1213.85
477.155
-805.769
415.981
-308.669
477.248
508.199
525.738
1321.22
626.599
2352.31
481.074
2408.96
369.034
2150.08
327.326
1964.19
266.611
1801.47
153.959
1642.63
-17.7643
1453.29
-215.536
1256.68
-419.08
1048.01
-605.657
828.326
-726.961
598.459
-680.063
369.082
-394.583
191.765
113.616
667.869
653.35
963.888
2056.28
923.46
2449.39
785.129
2288.41
714.335
2034.98
701.103
1814.7
710.895
1632.83
702.441
1461.74
664.89
1294.23
584.077
1128.82
452.962
959.439
269.463
781.955
50.6913
587.848
-121.335
363.762
-7.71915
306.073
1176.57
1943.72
2481.93
2737.85
2841.44
2839.35
2749.24
2567.56
2333.74
2036.64
1669.08
1232.5
685.499
6.143e-06
-1129.6
1129.6
-1129.6
-1129.6
-1129.6
-631.924
-497.68
-631.924
-631.924
-631.924
245.917
-877.841
245.917
245.917
890.759
-644.842
890.759
890.759
890.759
1285.39
-394.627
1285.39
1285.39
1503.09
-217.709
1503.09
1503.09
1503.09
1621.71
-118.619
1621.71
1621.71
1621.71
1670.02
-48.3021
1670.02
1670.02
1634.64
35.3805
1634.64
1634.64
1634.64
1496.48
138.16
1496.48
1496.48
1351.09
145.382
1351.09
1351.09
1351.09
1225
126.097
1225
1225
1225
1171.28
53.7181
1171.28
1171.28
1096.18
75.1028
1096.18
1096.18
1096.18
896.046
200.13
896.046
896.046
896.046
573.196
322.851
573.196
573.196
197.087
376.108
197.087
197.087
197.087
-264.61
461.698
-264.611
-264.61
-1331.13
1066.52
-1331.13
-1331.13
-1331.13
-2883.26
1552.13
-2883.26
-2883.26
-2883.26
-4820.82
1937.56
-4820.82
-4820.82
-7047.48
2226.66
-7047.48
-7047.48
-6919.69
-6793.74
-6665.82
-8955.34
2412.87
-8824.19
-8667.19
-8495.37
-8323.86
-8152.32
-7981.81
-7806.6
-7616.86
-9922.71
2491.03
-9725.62
-9528.74
-9332.1
-9118.15
-8902.85
-8686.66
-8469.91
-8251.81
-10582.5
2552.2
-10347.2
-10110.8
-9873.34
-9635.02
-9390.53
-9134.98
-8878.4
-8619.57
-8359.36
-10634.3
2524.6
-10360.7
-10084.9
-9807.78
-9530.08
-9252.11
-8961.44
-8663.45
-8365.97
-10353.3
2270.65
-10065.9
-9772.41
-9466.25
-9160.19
-8853.51
-8546.96
-8238.9
-7907.76
-9413.82
1825.98
-9094.73
-8776.95
-8460.08
-8125.14
-7784.08
-7446.94
-7112.55
-6784.46
-7543.65
1089.11
-7209.08
-6880.89
-6555.47
-6233.19
-5913.91
-5590.52
-5270.78
-4954.13
-4645.36
-4613.12
283.144
-4351.87
-4116.47
-3888.59
-3669.43
-3458.15
-3297.14
-3234.57
-3172
-2806.63
-294.812
-2749.74
-2692.85
-2692.85
-2480.52
-212.333
-2282.11
-198.407
-2282.11
-2110.04
-172.066
-2110.04
-1962.2
-147.844
-1839.16
-123.035
-1839.16
-1724.08
-115.087
-1626.7
-97.3809
-1626.7
-1533.59
-93.1097
-1533.59
-1449.66
-83.9229
-1377.18
-72.4867
-1377.18
-1305.83
-71.3484
-1305.83
-1240.21
-65.621
-1181.01
-59.1987
-1181.01
-1121.91
-59.0958
-1068.53
-53.3816
-1068.53
-1014.27
-54.2555
-1014.27
-962.118
-52.1565
-914.22
-47.8978
-914.22
-865.194
-49.0262
-865.194
-817.434
-47.7599
-773.244
-44.1903
-773.244
-727.452
-45.7913
-686.184
-41.2686
-686.184
-644.333
-41.8508
-644.333
-602.791
-41.5414
-565.304
-37.4873
-565.304
-527.041
-38.2631
-527.041
-488.802
-38.2394
-453.695
-35.1062
-453.695
-417.656
-36.0392
-385.561
-32.0957
-385.561
-354.438
-31.1229
-354.438
-324.91
-29.5278
-298.528
-26.3818
-298.528
-275.633
-22.8947
-275.633
-257.715
-17.918
-241.338
-16.3772
-241.338
-230.051
-11.2871
-216.52
-13.5312
-216.52
-204.522
-11.9974
-204.522
-192.78
-11.7425
-175.679
-17.1004
-175.679
-160.071
-15.6083
-160.071
-131.109
-28.9625
-83.7685
-47.3401
-83.7685
-22.5596
-61.2089
54.7482
-77.3078
54.7482
127.166
-72.4177
127.166
-76.6197
-127.876
-519.764
-128.57
-593.822
-129.718
-634.089
-131.124
-676.5
-132.857
-715.571
-134.848
-752.686
-137.11
-788.121
-139.62
-822.147
-142.375
-854.974
-145.364
-886.782
-148.582
-917.699
-152.023
-947.857
-155.683
-977.365
-159.561
-1006.34
-163.655
-1034.91
-167.965
-1063.16
-172.492
-1091.22
-177.238
-1119.17
-182.204
-1147.1
-187.392
-1175.09
-192.805
-1203.17
-198.448
-1231.36
-204.336
-1259.62
-210.503
-1287.79
-217.016
-1315.58
-224.013
-1342.49
-231.739
-1367.73
-240.598
-1390.17
-251.197
-1408.4
-264.367
-1420.75
-281.115
-1425.62
-302.493
-1421.76
-329.349
-1408.76
-361.973
-1387.55
-399.726
-1360.59
-440.822
-1331.82
-482.478
-1305.84
-521.461
-1286.68
-554.813
-1276.56
-580.404
-1275.21
-597.088
-1280.08
-604.497
-1286.96
-602.684
-1290.22
-592.082
-1283.22
-574.005
-1260.78
-548.124
-1222.7
-497.176
-1137.97
-386.015
-799.156
-270.284
114.025
-237.267
917.836
-210.153
1327.36
-181.221
1661.39
-152.192
1991.49
-122.657
2319.35
-92.0083
2638.66
-63.1536
2931.74
-36.3263
3209.29
-8.23398
3495.15
14.0204
3648.75
28.2952
3718.05
39.5961
3817.59
46.3118
3846.19
49.2001
3820.02
50.1092
3769.36
50.7615
3705.61
51.248
3584.31
51.8037
3412.89
52.8391
3204.37
53.0624
2906.41
53.1145
2575.35
51.5054
2142.3
50.0145
1737.32
47.1141
1090.08
42.4686
855.672
32.1161
-824.859
38.8548
-648.66
28.0319
-1144.3
40.1943
-1018.88
3345.22
-134.753
-519.827
-135.315
-593.26
-136.441
-632.963
-137.853
-675.088
-139.631
-713.794
-141.691
-750.626
-144.044
-785.767
-146.663
-819.528
-149.544
-852.094
-152.672
-883.654
-156.042
-914.329
-159.648
-944.251
-163.487
-973.527
-167.556
-1002.28
-171.856
-1030.61
-176.386
-1058.63
-181.148
-1086.46
-186.145
-1114.18
-191.377
-1141.87
-196.851
-1169.61
-202.573
-1197.45
-208.559
-1225.37
-214.846
-1253.33
-221.506
-1281.13
-228.68
-1308.41
-236.626
-1334.55
-245.774
-1358.58
-256.78
-1379.17
-270.551
-1394.62
-288.203
-1403.1
-310.915
-1402.91
-339.661
-1393.01
-374.828
-1373.6
-415.801
-1346.57
-460.677
-1315.72
-506.352
-1286.15
-549.124
-1263.06
-585.586
-1250.22
-613.384
-1248.76
-631.449
-1257.14
-639.745
-1271.79
-638.774
-1287.93
-629.127
-1299.87
-611.378
-1300.97
-586.819
-1285.34
-556.889
-1252.63
-509.378
-1185.48
-400.663
-907.871
-257.209
-29.4295
-223.207
883.834
-205.679
1309.83
-177.982
1633.7
-149.367
1962.87
-120.525
2290.51
-90.6476
2608.78
-62.5873
2903.68
-36.4887
3183.19
-9.21492
3467.88
12.5176
3627.02
26.6057
3703.96
37.7843
3806.41
44.5736
3839.4
47.6617
3816.93
48.8377
3768.18
49.7796
3704.67
50.5713
3583.52
51.4199
3412.04
52.74
3203.05
53.2392
2905.91
53.57
2575.02
52.2938
2143.57
51.1998
1738.41
49.0226
1092.26
46.0238
858.67
32.4355
-811.27
38.2074
-654.432
21.5287
-1127.62
28.8333
-1026.19
3301.64
-138.515
-519.968
-139.032
-592.744
-140.148
-631.846
-141.572
-673.664
-143.38
-711.986
-145.485
-748.522
-147.895
-783.357
-150.581
-816.842
-153.536
-849.139
-156.747
-880.443
-160.207
-910.869
-163.91
-940.547
-167.854
-969.583
-172.036
-998.093
-176.457
-1026.19
-181.118
-1053.97
-186.019
-1081.56
-191.164
-1109.03
-196.557
-1136.48
-202.206
-1163.97
-208.127
-1191.53
-214.351
-1219.15
-220.94
-1246.74
-228.018
-1274.05
-235.812
-1300.61
-244.705
-1325.65
-255.3
-1347.99
-268.451
-1366.02
-285.241
-1377.83
-306.86
-1381.48
-334.354
-1375.41
-368.29
-1359.08
-408.356
-1333.53
-453.052
-1301.88
-499.645
-1269.13
-544.576
-1241.22
-584.275
-1223.37
-616.007
-1218.49
-638.31
-1226.46
-650.892
-1244.56
-654.19
-1268.49
-648.909
-1293.21
-635.679
-1313.1
-614.976
-1321.67
-587.782
-1312.53
-556.064
-1284.35
-512.655
-1228.89
-415.569
-1004.96
-254.17
-190.829
-200.221
829.885
-194.582
1304.19
-173.644
1612.76
-145.42
1934.65
-117.39
2262.48
-88.5651
2579.96
-61.5288
2876.65
-36.4851
3158.15
-10.2257
3441.62
10.7488
3606.05
24.396
3690.32
35.3635
3795.44
42.159
3832.61
45.4472
3813.64
46.9308
3766.7
48.2498
3703.35
49.4662
3582.31
50.7354
3410.77
52.4729
3201.32
53.381
2905
54.0954
2574.3
53.2694
2144.4
52.4896
1739.19
51.4345
1093.31
48.0006
862.104
31.7555
-795.025
37.9471
-660.624
19.5722
-1109.25
24.675
-1031.29
3249.01
-143.01
-520.175
-143.491
-592.262
-144.607
-630.731
-146.052
-672.219
-147.903
-710.135
-150.065
-746.359
-152.547
-780.875
-155.317
-814.073
-158.366
-846.09
-161.68
-877.129
-165.252
-907.297
-169.076
-936.723
-173.149
-965.51
-177.47
-993.771
-182.04
-1021.62
-186.859
-1049.15
-191.931
-1076.48
-197.26
-1103.7
-202.853
-1130.89
-208.725
-1158.09
-214.904
-1185.35
-221.446
-1212.61
-228.461
-1239.72
-236.149
-1266.36
-244.86
-1291.9
-255.154
-1315.36
-267.851
-1335.29
-284.021
-1349.85
-304.885
-1356.97
-331.58
-1354.79
-364.826
-1342.17
-404.55
-1319.35
-449.567
-1288.52
-497.459
-1253.98
-544.817
-1221.77
-587.911
-1198.12
-623.581
-1187.7
-649.887
-1192.18
-666.22
-1210.13
-672.937
-1237.84
-670.852
-1270.58
-660.843
-1303.22
-643.609
-1330.33
-619.616
-1345.66
-589.632
-1342.52
-555.763
-1318.22
-514.577
-1270.07
-428.248
-1091.29
-256.898
-362.179
-177.098
750.085
-175.876
1302.97
-166.729
1603.61
-140.942
1908.86
-113.421
2234.96
-85.85
2552.38
-60.0578
2850.85
-36.2319
3134.32
-11.231
3416.62
8.76642
3586.05
21.8112
3677.27
32.4272
3784.83
39.1585
3825.88
42.6317
3810.17
44.4542
3764.88
46.2095
3701.59
47.9416
3580.57
49.7366
3408.98
51.9911
3199.06
53.4148
2903.58
54.5932
2573.13
54.2977
2144.69
53.8336
1739.66
53.6511
1093.49
50.1356
865.62
31.5734
-776.463
38.4028
-667.453
17.8484
-1088.7
19.6899
-1033.13
3207.49
-147.372
-520.42
-147.838
-591.796
-148.961
-629.608
-150.435
-670.745
-152.334
-708.236
-154.56
-744.133
-157.119
-778.316
-159.976
-811.216
-163.122
-842.944
-166.542
-873.709
-170.229
-903.61
-174.176
-932.776
-178.381
-961.304
-182.844
-989.308
-187.566
-1016.89
-192.548
-1044.17
-197.795
-1071.24
-203.314
-1098.18
-209.118
-1125.08
-215.233
-1151.98
-221.707
-1178.87
-228.638
-1205.68
-236.204
-1232.16
-244.722
-1257.84
-254.709
-1281.92
-266.948
-1303.12
-282.49
-1319.75
-302.584
-1329.75
-328.445
-1331.11
-360.926
-1322.31
-400.125
-1302.97
-445.085
-1274.39
-493.668
-1239.93
-542.7
-1204.95
-588.482
-1175.99
-627.59
-1159.01
-657.643
-1157.64
-677.642
-1172.18
-687.758
-1200.01
-688.818
-1236.78
-681.836
-1277.56
-667.739
-1317.32
-647.236
-1350.84
-620.775
-1372.12
-588.937
-1374.35
-553.634
-1353.52
-514.022
-1309.69
-438.025
-1167.28
-264.897
-535.307
-157.177
642.365
-151.868
1297.66
-155.031
1606.77
-135.433
1889.26
-108.708
2208.23
-82.3476
2526.02
-58.0799
2826.59
-35.6924
3111.93
-12.2006
3393.13
6.56214
3567.29
18.7917
3665.04
28.9029
3774.72
35.4794
3819.3
39.1101
3806.54
41.3032
3762.68
43.5669
3699.33
45.9166
3578.22
48.3563
3406.54
51.2496
3196.17
53.3046
2901.52
55.0572
2571.37
55.3755
2144.38
55.2893
1739.74
55.7877
1093
52.4856
868.922
32.0273
-756.005
38.6704
-674.096
17.4113
-1067.44
16.5908
-1032.31
3176.74
-151.802
-520.686
-152.27
-591.329
-153.41
-628.467
-154.922
-669.232
-156.877
-706.282
-159.174
-741.837
-161.816
-775.674
-164.768
-808.264
-168.019
-839.693
-171.553
-870.175
-175.362
-899.801
-179.44
-928.698
-183.786
-956.959
-188.399
-984.695
-193.282
-1012.01
-198.437
-1039.02
-203.872
-1065.8
-209.598
-1092.46
-215.637
-1119.04
-222.033
-1145.58
-228.869
-1172.04
-236.305
-1198.24
-244.624
-1223.84
-254.303
-1248.16
-266.083
-1270.14
-280.996
-1288.21
-300.314
-1300.43
-325.342
-1304.72
-357.069
-1299.38
-395.752
-1283.62
-440.594
-1258.13
-489.637
-1225.35
-539.915
-1189.65
-587.869
-1157
-629.989
-1133.87
-663.556
-1125.45
-687.147
-1134.05
-700.632
-1158.7
-704.753
-1195.89
-700.602
-1240.93
-689.262
-1288.9
-671.649
-1334.93
-648.471
-1374.01
-620.196
-1400.4
-587.294
-1407.26
-551.355
-1389.46
-513.019
-1348.02
-446.356
-1233.94
-277.781
-703.883
-141.974
506.558
-126.462
1282.15
-137.884
1618.2
-127.568
1878.95
-103.266
2183.93
-78.0184
2500.78
-55.4746
2804.04
-34.7996
3091.26
-13.0454
3371.37
4.22502
3550.02
15.3985
3653.87
24.833
3765.28
31.1456
3812.99
34.8829
3802.8
37.4598
3760.11
40.2951
3696.49
43.3562
3575.16
46.5559
3403.34
50.2101
3192.51
53.0123
2898.72
55.4523
2568.93
56.4648
2143.36
56.8402
1739.37
57.8358
1092
54.7026
872.055
32.5172
-733.819
38.884
-680.463
17.7243
-1046.28
14.6892
-1029.27
3162.46
-156.264
-520.952
-156.748
-590.845
-157.914
-627.301
-159.474
-667.673
-161.491
-704.264
-163.866
-739.462
-166.599
-772.941
-169.653
-805.21
-173.015
-836.33
-176.67
-866.521
-180.608
-895.863
-184.824
-924.481
-189.318
-952.465
-194.089
-979.923
-199.142
-1006.96
-204.482
-1033.68
-210.118
-1060.17
-216.071
-1086.5
-222.377
-1112.74
-229.109
-1138.85
-236.405
-1164.74
-244.518
-1190.13
-253.882
-1214.47
-265.193
-1236.85
-279.457
-1255.87
-297.964
-1269.7
-322.112
-1276.28
-353.05
-1273.79
-391.218
-1261.21
-435.958
-1238.88
-485.394
-1208.69
-536.65
-1174.1
-586.284
-1140.02
-630.846
-1112.44
-667.469
-1097.24
-694.39
-1098.52
-711.128
-1117.31
-718.231
-1151.59
-716.79
-1197.33
-708.001
-1249.72
-692.934
-1303.97
-672.48
-1355.38
-647.354
-1399.14
-618.06
-1429.69
-585.013
-1440.3
-549.444
-1425.03
-512.665
-1384.8
-455.213
-1291.4
-299.478
-859.618
-134.209
341.289
-102.802
1250.74
-116.307
1631.7
-115.871
1878.51
-96.6329
2164.69
-72.9207
2477.06
-52.1279
2783.25
-33.4664
3072.6
-13.6896
3351.6
1.8439
3534.48
11.7124
3644
20.2773
3756.72
26.2
3807.07
29.9751
3799.02
32.9304
3757.15
36.3871
3693.04
40.2416
3571.31
44.3074
3399.27
48.838
3187.98
52.4999
2895.06
55.7379
2565.7
57.5253
2141.58
58.4727
1738.42
59.7921
1090.68
56.8526
874.995
33.1207
-710.087
39.0784
-686.421
18.3312
-1025.53
13.5735
-1024.52
3160.43
-160.771
-521.203
-161.285
-590.331
-162.488
-626.098
-164.103
-666.058
-166.191
-702.176
-168.652
-737.001
-171.483
-770.109
-174.647
-802.047
-178.128
-832.849
-181.91
-862.738
-185.985
-891.788
-190.348
-920.119
-194.997
-947.816
-199.936
-974.984
-205.17
-1001.73
-210.706
-1028.14
-216.562
-1054.31
-222.769
-1080.3
-229.389
-1106.12
-236.54
-1131.7
-244.443
-1156.84
-253.49
-1181.08
-264.325
-1203.64
-277.914
-1223.26
-295.558
-1238.23
-318.744
-1246.51
-348.803
-1246.22
-386.402
-1236.19
-431.062
-1216.55
-480.959
-1188.99
-533.168
-1156.48
-584.222
-1123.04
-630.724
-1093.52
-669.835
-1073.32
-699.648
-1067.43
-719.394
-1078.78
-729.364
-1107.34
-730.541
-1150.42
-724.167
-1203.7
-711.43
-1262.46
-693.361
-1322.03
-670.833
-1377.91
-644.581
-1425.39
-615.162
-1459.11
-582.971
-1472.49
-548.89
-1459.11
-514.358
-1419.33
-465.978
-1339.78
-332.625
-992.971
-138.813
147.476
-83.2985
1195.22
-92.0148
1640.42
-99.5177
1886.01
-87.8061
2152.98
-66.9851
2456.24
-47.9608
2764.23
-31.5775
3056.21
-14.0722
3334.09
-0.517014
3520.93
7.78849
3635.7
15.2697
3749.23
20.6584
3801.68
24.3882
3795.29
27.7026
3753.84
31.8205
3688.92
36.5435
3566.58
41.5748
3394.24
47.0946
3182.46
51.7274
2890.42
55.8751
2561.55
58.5228
2138.93
60.1716
1736.77
61.7308
1089.12
59.0909
877.634
34.0167
-685.013
39.2654
-691.669
19.1548
-1005.42
13.2203
-1018.58
3156.55
-165.328
-521.424
-165.884
-589.775
-167.133
-624.848
-168.813
-664.378
-170.981
-700.008
-173.535
-734.447
-176.473
-767.172
-179.753
-798.767
-183.361
-829.24
-187.279
-858.82
-191.499
-887.568
-196.016
-915.602
-200.83
-943.001
-205.947
-969.868
-211.373
-996.299
-217.123
-1022.39
-223.223
-1048.21
-229.724
-1073.8
-236.727
-1099.11
-244.422
-1124.01
-253.155
-1148.1
-263.513
-1170.72
-276.412
-1190.74
-293.139
-1206.54
-315.258
-1216.11
-344.291
-1217.48
-381.184
-1209.33
-425.713
-1191.66
-476.153
-1166.11
-529.466
-1135.67
-581.974
-1103.97
-630.163
-1074.85
-671.239
-1052.44
-703.354
-1041.21
-725.652
-1045.13
-738.22
-1066.21
-741.868
-1103.69
-737.784
-1154.5
-727.217
-1214.27
-711.306
-1278.37
-691.04
-1342.3
-667.3
-1401.65
-640.862
-1451.83
-612.332
-1487.64
-582.086
-1502.74
-550.68
-1490.52
-519.359
-1450.65
-479.416
-1379.72
-371.753
-1100.63
-162.705
-61.5714
-70.804
1103.32
-67.2589
1636.87
-78.8077
1897.56
-75.6627
2149.84
-59.8246
2440.41
-42.933
2747.33
-28.997
3042.28
-14.1106
3319.2
-2.79403
3509.61
3.68234
3629.22
9.84435
3743.07
14.535
3796.99
18.1221
3791.71
21.7627
3750.19
26.5711
3684.11
32.2315
3560.92
38.3211
3388.15
44.9398
3175.85
50.6525
2884.71
55.8216
2556.38
59.4195
2135.33
61.9026
1734.29
63.7257
1087.3
61.5113
879.849
35.3451
-658.847
39.5705
-695.895
20.4716
-986.32
13.1851
-1011.3
3157.99
-169.941
-521.602
-170.55
-589.165
-171.856
-623.542
-173.611
-662.624
-175.866
-697.753
-178.522
-731.79
-181.574
-764.121
-184.979
-795.362
-188.722
-825.497
-192.784
-854.758
-197.157
-883.195
-201.837
-910.922
-206.827
-938.011
-212.133
-964.562
-217.767
-990.665
-223.751
-1016.4
-230.129
-1041.83
-236.983
-1066.94
-244.475
-1091.62
-252.904
-1115.58
-262.796
-1138.21
-275.002
-1158.52
-290.775
-1174.97
-311.724
-1185.59
-339.552
-1188.28
-375.518
-1181.52
-419.748
-1165.1
-470.723
-1140.68
-525.327
-1111.51
-579.555
-1081.45
-629.534
-1053.99
-672.324
-1032.06
-706.182
-1018.58
-730.401
-1016.99
-745.071
-1030.46
-750.881
-1060.4
-748.904
-1105.67
-740.357
-1163.05
-726.427
-1228.2
-708.194
-1296.6
-686.635
-1363.86
-662.662
-1425.62
-637.101
-1477.39
-610.591
-1514.15
-583.45
-1529.88
-555.887
-1518.08
-528.7
-1477.84
-496.022
-1412.4
-406.87
-1189.79
-192.004
-276.438
-66.1695
977.489
-45.1382
1615.84
-55.3632
1907.79
-59.5493
2154.02
-50.7426
2431.6
-36.9831
2733.57
-25.6112
3030.91
-13.6821
3307.28
-4.91045
3500.84
-0.540289
3624.85
4.0473
3738.48
7.85375
3793.18
11.1849
3788.37
15.1056
3746.27
20.6221
3678.59
27.2803
3554.27
34.5138
3380.92
42.3351
3168.02
49.2332
2877.81
55.5324
2550.08
60.1726
2130.69
63.6203
1730.84
65.8092
1085.11
64.2158
881.442
37.2965
-631.928
40.1199
-698.718
21.9978
-968.198
13.6716
-1002.97
3159.67
-174.616
-521.724
-175.29
-588.491
-176.662
-622.17
-178.5
-660.786
-180.852
-695.401
-183.619
-729.023
-186.792
-760.947
-190.331
-791.823
-194.218
-821.611
-198.433
-850.543
-202.968
-878.66
-207.821
-906.068
-212.998
-932.835
-218.507
-959.053
-224.368
-984.804
-230.617
-1010.16
-237.322
-1035.13
-244.617
-1059.65
-252.758
-1083.48
-262.206
-1106.13
-273.736
-1126.68
-288.539
-1143.71
-308.235
-1155.27
-334.677
-1159.15
-369.445
-1153.51
-413.092
-1137.87
-464.443
-1113.75
-520.426
-1084.7
-576.706
-1055.23
-628.871
-1029.28
-673.545
-1009.32
-708.889
-996.719
-734.42
-993.053
-750.498
-1000.91
-757.911
-1023.05
-757.675
-1060.64
-750.922
-1112.42
-738.798
-1175.17
-722.407
-1244.59
-702.791
-1316.22
-680.952
-1385.7
-657.851
-1448.72
-634.357
-1500.89
-611.098
-1537.41
-588.252
-1552.73
-565.609
-1540.73
-543.327
-1500.12
-517.151
-1438.57
-442.116
-1264.82
-226.423
-492.131
-68.5668
819.632
-28.0925
1575.37
-31.8064
1911.5
-39.7046
2161.92
-38.9003
2430.79
-29.9212
2724.6
-21.3717
3022.36
-12.6379
3298.54
-6.76297
3494.96
-4.80393
3622.89
-2.06775
3735.75
0.64476
3790.47
3.58933
3785.43
7.73202
3742.13
13.9617
3672.36
21.6696
3546.56
30.1253
3372.46
39.2459
3158.9
47.4299
2869.63
54.9639
2542.55
60.7395
2124.91
65.2794
1726.3
67.9874
1082.4
67.2989
882.131
40.2119
-604.841
41.0216
-699.528
23.3554
-950.531
14.2339
-993.848
3160.37
-179.358
-521.779
-180.107
-587.742
-181.557
-620.721
-183.487
-658.855
-185.944
-692.944
-188.831
-726.137
-192.136
-757.642
-195.817
-788.141
-199.856
-817.572
-204.234
-846.166
-208.941
-873.952
-213.979
-901.031
-219.355
-927.459
-225.085
-953.323
-231.199
-978.69
-237.754
-1003.6
-244.86
-1028.02
-252.732
-1051.78
-261.765
-1074.45
-272.651
-1095.24
-286.499
-1112.84
-304.896
-1125.32
-329.797
-1130.37
-363.081
-1125.86
-405.774
-1110.82
-457.181
-1086.46
-514.45
-1056.48
-573.02
-1026.13
-627.877
-1000.37
-674.962
-982.197
-712.019
-972.263
-738.592
-970.146
-755.408
-976.237
-763.65
-992.67
-764.515
-1022.18
-759.121
-1066.03
-748.529
-1123.02
-733.776
-1189.92
-715.901
-1262.47
-695.948
-1336.17
-674.966
-1406.68
-653.975
-1469.71
-633.852
-1521.01
-615.129
-1556.13
-597.718
-1570.14
-580.872
-1557.57
-563.967
-1517.03
-543.631
-1458.91
-480.934
-1327.52
-270.319
-702.745
-78.5336
627.847
-16.7648
1513.6
-10.5352
1905.27
-17.1913
2168.58
-23.4876
2437.09
-21.248
2722.36
-16.2494
3017.36
-10.8438
3293.14
-8.21436
3492.33
-9.01666
3623.69
-8.43457
3735.17
-7.05321
3789.09
-4.64865
3783.03
-0.353615
3737.84
6.58428
3665.43
15.3845
3537.76
25.1334
3362.72
35.6433
3148.39
45.2079
2860.06
54.0773
2533.68
61.0807
2117.91
66.8388
1720.54
70.2498
1078.99
70.6857
881.695
44.1505
-578.306
42.4761
-697.854
25.1456
-933.201
14.9112
-983.613
3163.99
-184.175
-521.755
-185.009
-586.908
-186.545
-619.185
-188.578
-656.822
-191.15
-690.372
-194.166
-723.121
-197.612
-754.196
-201.445
-784.308
-205.647
-813.371
-210.196
-841.616
-215.088
-869.061
-220.323
-895.796
-225.914
-921.868
-231.888
-947.349
-238.29
-972.287
-245.213
-996.678
-252.833
-1020.4
-261.486
-1043.12
-271.774
-1064.16
-284.705
-1082.31
-301.799
-1095.74
-325.051
-1102.07
-356.589
-1098.83
-397.919
-1084.53
-448.934
-1059.81
-507.193
-1028.2
-568.09
-995.581
-626.062
-968.158
-676.237
-950.198
-715.657
-942.777
-743.554
-944.365
-760.828
-952.871
-769.166
-967.9
-770.265
-991.571
-765.49
-1026.96
-755.912
-1075.61
-742.468
-1136.46
-726.095
-1206.3
-707.804
-1280.76
-688.677
-1355.3
-669.829
-1425.53
-652.311
-1487.23
-636.937
-1536.38
-624.007
-1569.06
-613.001
-1581.14
-602.495
-1568.08
-591.004
-1528.52
-575.655
-1474.26
-524.622
-1378.55
-328.223
-899.145
-99.0158
398.64
-11.3636
1425.95
7.16196
1886.75
6.44961
2169.29
-3.94473
2447.49
-9.95448
2728.37
-10.0302
3017.43
-8.21132
3291.32
-9.11383
3493.24
-13.0671
3627.65
-14.9782
3737.08
-15.194
3789.3
-13.508
3781.34
-9.14583
3733.47
-1.51455
3657.79
8.41503
3527.83
19.523
3351.61
31.5047
3136.41
42.5386
2849.03
52.839
2523.38
61.1611
2109.59
68.2604
1713.44
72.5686
1074.68
74.14
880.124
48.3517
-552.517
44.5384
-694.04
27.6211
-916.284
16.3288
-972.321
3163.94
-189.073
-521.643
-190.002
-585.979
-191.635
-617.552
-193.78
-654.677
-196.476
-687.676
-199.631
-719.967
-203.227
-750.599
-207.223
-780.312
-211.597
-808.997
-216.331
-836.883
-221.418
-863.974
-226.865
-890.348
-232.693
-916.04
-238.941
-941.101
-245.685
-965.543
-253.069
-989.293
-261.374
-1012.1
-271.117
-1033.38
-283.192
-1052.08
-299.017
-1066.49
-320.57
-1074.19
-350.153
-1072.48
-389.721
-1059.27
-439.819
-1034.43
-498.595
-1001.03
-561.618
-965.179
-622.919
-934.281
-676.796
-914.281
-719.409
-907.586
-749.386
-912.8
-767.465
-926.286
-775.629
-944.707
-776.18
-967.349
-771.061
-996.69
-761.643
-1036.38
-748.889
-1088.36
-733.617
-1151.73
-716.704
-1223.21
-699.175
-1298.29
-682.174
-1372.3
-666.87
-1440.83
-654.284
-1499.82
-645.029
-1545.64
-638.999
-1575.09
-635.045
-1585.1
-630.951
-1572.17
-624.384
-1535.09
-612.917
-1485.73
-572.877
-1418.59
-403.819
-1068.2
-136.892
131.713
-12.7618
1301.82
20.6297
1853.35
29.054
2160.86
19.2053
2457.33
5.22385
2742.35
-2.04913
3024.71
-4.64129
3293.91
-9.33399
3497.93
-16.8264
3635.14
-21.6088
3741.86
-23.7217
3791.41
-22.9611
3780.58
-18.6335
3729.15
-10.3363
3649.5
0.752868
3516.74
13.2843
3339.08
26.815
3122.88
39.3991
2836.45
51.2207
2511.55
60.9496
2099.86
69.5109
1704.88
74.9004
1069.29
77.563
877.461
52.2103
-527.164
46.9261
-688.756
30.7258
-900.083
17.9141
-959.509
3163.94
-194.058
-521.432
-195.09
-584.947
-196.831
-615.811
-199.099
-652.409
-201.93
-684.845
-205.233
-716.664
-208.991
-746.841
-213.16
-776.142
-217.719
-804.438
-222.648
-831.954
-227.946
-858.676
-233.624
-884.67
-239.715
-909.949
-246.282
-934.534
-253.444
-958.381
-261.433
-981.305
-270.683
-1002.85
-281.976
-1022.09
-296.599
-1037.46
-316.458
-1046.63
-343.949
-1046.7
-381.406
-1035.02
-430.041
-1010.63
-488.734
-975.741
-553.464
-936.3
-618.055
-900.588
-676.04
-876.295
-722.614
-867.707
-755.613
-874.586
-775.35
-893.063
-783.778
-917.858
-783.558
-944.927
-777.287
-973.621
-766.972
-1007
-753.927
-1049.42
-739.018
-1103.27
-722.989
-1167.76
-706.706
-1239.49
-691.246
-1313.75
-677.818
-1385.73
-667.585
-1451.06
-661.407
-1506
-659.511
-1547.54
-661.163
-1573.44
-664.423
-1581.84
-666.239
-1570.36
-663.558
-1537.77
-654.544
-1494.74
-623.575
-1449.56
-487.542
-1204.24
-196.766
-159.064
-21.6385
1126.69
29.5694
1802.15
48.3539
2142.08
43.8309
2461.86
24.7614
2761.42
8.76219
3040.71
0.146727
3302.52
-8.77236
3506.85
-20.1615
3646.53
-28.2231
3749.92
-32.5704
3795.76
-32.9722
3780.98
-28.8001
3724.97
-19.8781
3640.58
-7.60968
3504.47
6.41046
3325.06
21.5661
3107.73
35.7732
2822.24
49.2
2498.13
60.4198
2088.64
70.5629
1694.74
77.1975
1062.66
81.0225
873.636
56.0563
-502.198
49.6435
-682.343
34.4547
-884.894
19.9431
-944.998
3160.99
-199.137
-521.112
-200.283
-583.801
-202.142
-613.952
-204.542
-650.009
-207.519
-681.869
-210.982
-713.201
-214.912
-742.911
-219.266
-771.788
-224.021
-799.683
-229.161
-826.814
-234.687
-853.15
-240.621
-878.736
-247.013
-903.556
-253.964
-927.584
-261.662
-950.683
-270.472
-972.495
-281.059
-992.257
-294.572
-1008.58
-312.792
-1019.24
-338.129
-1021.29
-373.203
-1011.62
-419.857
-988.371
-477.8
-952.688
-543.645
-909.896
-611.245
-868.7
-673.493
-838.34
-724.59
-825.198
-761.474
-830.823
-783.883
-852.177
-793.525
-883.421
-793.098
-918.286
-785.548
-952.477
-773.539
-985.63
-759.065
-1021.48
-743.399
-1065.09
-727.372
-1119.3
-711.723
-1183.41
-697.361
-1253.85
-685.431
-1325.68
-677.157
-1394
-673.574
-1454.65
-675.178
-1504.39
-681.566
-1541.15
-691.173
-1563.83
-701.184
-1571.83
-707.803
-1563.74
-707.487
-1538.08
-699.046
-1503.18
-673.634
-1474.97
-561.62
-1316.25
-261.336
-459.348
-37.5452
902.898
34.3262
1730.28
62.961
2113.44
67.2013
2457.62
47.7843
2780.83
23.3776
3065.11
6.75942
3319.14
-7.28194
3520.89
-22.9448
3662.19
-34.7083
3761.69
-41.6651
3802.72
-43.4986
3782.81
-39.6245
3721.1
-30.1311
3631.08
-16.6749
3491.01
-1.10596
3309.49
15.7527
3090.87
31.6525
2806.34
46.7595
2483.02
59.5501
2075.85
71.394
1682.89
79.4213
1054.63
84.539
868.518
60.0528
-477.712
52.7471
-675.038
38.2424
-870.39
22.0261
-928.782
3156.63
-204.318
-520.674
-205.586
-582.533
-207.574
-611.963
-210.118
-647.466
-213.251
-678.736
-216.885
-709.567
-220.999
-738.796
-225.551
-767.237
-230.517
-794.717
-235.885
-821.447
-241.661
-847.373
-247.883
-872.514
-254.632
-896.807
-262.063
-920.153
-270.478
-942.269
-280.437
-962.536
-292.942
-979.753
-309.618
-991.899
-332.811
-996.048
-365.318
-988.783
-409.538
-967.403
-466.052
-931.857
-532.301
-886.44
-602.428
-839.768
-668.857
-802.272
-724.806
-782.391
-766.224
-783.78
-792.188
-804.859
-804.09
-840.276
-804.507
-883.004
-796.403
-926.389
-782.719
-966.161
-766.07
-1002.28
-748.447
-1039.1
-731.158
-1082.38
-715.097
-1135.36
-701.077
-1197.43
-690.09
-1264.84
-683.314
-1332.45
-681.871
-1395.45
-686.451
-1450.07
-696.916
-1493.93
-711.986
-1526.08
-729.138
-1546.68
-744.745
-1556.22
-754.523
-1553.96
-754.765
-1537.84
-744.925
-1513.02
-721.827
-1498.07
-629.138
-1408.94
-332.987
-755.499
-60.9802
630.891
35.8607
1633.43
73.0069
2076.3
87.3361
2443.29
72.3207
2795.85
42.0183
3095.41
16.045
3345.12
-4.55654
3541.49
-25.043
3682.68
-40.9476
3777.59
-50.9217
3812.69
-54.4911
3786.38
-51.0806
3717.69
-41.0819
3621.08
-26.4405
3476.37
-9.26723
3292.31
9.37618
3072.22
27.0349
2788.68
43.8879
2466.17
58.3238
2061.41
71.9865
1669.23
81.5483
1045.07
88.0978
861.969
64.1612
-453.775
56.0575