/*--------------------------------*- C++ -*----------------------------------*\
| =========                 |                                                 |
| \\      /  F ield         | OpenFOAM: The Open Source CFD Toolbox           |
|  \\    /   O peration     | Version:  4.1                                   |
|   \\  /    A nd           | Web:      www.OpenFOAM.org                      |
|    \\/     M anipulation  |                                                 |
\*---------------------------------------------------------------------------*/
FoamFile
{
    version     2.0;
    format      ascii;
    class       volVectorField;
    location    "11";
    object      U;
}
// * * * * * * * * * * * * * * * * * * * * * * * * * * * * * * * * * * * * * //

dimensions      [0 1 -1 0 0 0 0];

internalField   nonuniform List<vector> 
6785
(
(1.16101e-14 -1.40459 16.2686)
(9.75058e-15 -7.25775 12.6605)
(-2.94321e-15 -4.96828 13.2202)
(3.24588e-15 -4.64793 12.8743)
(9.06285e-16 -3.99487 12.6964)
(4.5771e-17 -3.55176 12.44)
(2.77415e-15 -3.17473 12.1581)
(6.11684e-16 -2.89397 11.8283)
(-7.02371e-16 -2.7005 11.4407)
(1.89367e-15 -2.57927 11.0056)
(2.11535e-16 -2.48905 10.587)
(-5.52692e-16 -2.5648 10.1615)
(7.73026e-16 -3.04538 9.52943)
(1.89043e-17 -2.6767 8.88936)
(-3.4906e-16 0.497356 7.26365)
(1.85474e-14 -8.65385 26.2878)
(1.34108e-14 -16.4972 22.2346)
(-3.081e-15 -11.2576 22.6886)
(4.96007e-15 -11.9095 21.0142)
(7.2981e-16 -10.5661 20.0685)
(9.38572e-16 -9.88383 18.9056)
(2.80143e-15 -9.04466 17.7928)
(2.73166e-16 -8.30174 16.6859)
(8.69236e-17 -7.64795 15.6955)
(1.16641e-15 -7.17167 14.8862)
(-2.48563e-16 -6.80318 14.1597)
(-6.7506e-17 -6.38919 13.172)
(8.66516e-16 -5.83017 11.3206)
(-4.58533e-17 -4.37217 7.55101)
(-3.34829e-16 -0.766259 0.885037)
(2.01719e-14 -11.4343 27.6808)
(1.21764e-14 -17.0379 24.4739)
(-1.71549e-15 -11.6903 24.6385)
(4.46226e-15 -12.6512 22.3037)
(6.53274e-16 -10.7454 21.2404)
(1.36267e-15 -10.0518 19.6755)
(1.36715e-15 -9.00067 18.3425)
(1.60654e-16 -8.12874 16.9905)
(3.77352e-16 -7.15748 15.5177)
(1.44865e-16 -5.95951 13.5165)
(-2.15693e-16 -4.5666 10.8714)
(-2.86313e-16 -3.53235 8.2647)
(-1.12896e-15 -3.27059 6.44952)
(-7.93765e-16 -3.10572 4.69946)
(-8.80163e-16 -2.20024 2.62156)
(2.06279e-14 -12.7023 27.9499)
(1.03051e-14 -17.1029 24.9344)
(-8.60523e-16 -12.2336 25.0331)
(4.14049e-15 -13.605 22.3564)
(1.7995e-16 -11.3472 21.4294)
(1.65903e-15 -11.0028 19.6511)
(8.84062e-16 -9.86581 18.3904)
(-1.83656e-16 -9.14919 17.0308)
(4.99496e-16 -8.14656 15.513)
(9.70758e-17 -6.59597 12.943)
(1.06007e-16 -3.99673 8.57384)
(1.13666e-15 -0.892605 3.01937)
(3.16809e-15 1.31655 -0.753825)
(3.03584e-15 1.55805 -1.22585)
(1.83598e-15 0.360181 -0.0713399)
(2.01773e-14 -13.1045 27.6782)
(1.15108e-14 -17.7688 26.2498)
(-5.82965e-16 -12.9084 25.6169)
(4.26247e-15 -14.4382 22.8236)
(8.6747e-16 -12.0651 21.9813)
(1.76665e-15 -11.9714 20.07)
(1.37749e-15 -10.8308 18.8128)
(6.50483e-16 -10.234 17.4106)
(6.51706e-16 -9.42828 16.0334)
(6.10144e-16 -8.31057 14.0368)
(1.31194e-15 -6.31915 10.7745)
(1.48729e-15 -3.34908 6.0429)
(4.93852e-15 0.557558 0.954294)
(1.02532e-14 3.51482 -2.74716)
(7.32431e-15 1.4996 -4.12036)
(1.91756e-14 -12.7194 25.8541)
(1.341e-14 -17.9751 27.0659)
(-3.7211e-17 -13.3319 25.4482)
(3.77338e-15 -14.36 22.5226)
(1.6246e-15 -12.2642 21.5456)
(1.35031e-15 -12.0607 19.5975)
(1.60023e-15 -11.0093 18.1969)
(1.16371e-15 -10.3499 16.6697)
(5.76854e-16 -9.62511 15.2161)
(5.27352e-16 -8.80721 13.5865)
(9.74434e-16 -7.67777 11.4777)
(9.784e-16 -5.95198 8.69903)
(1.41817e-15 -3.75413 5.28278)
(1.15966e-15 -0.795147 1.72247)
(6.5885e-15 0.876894 -3.83789)
(1.91362e-14 -11.9853 23.5431)
(1.53596e-14 -17.5466 27.0491)
(1.66244e-15 -13.417 24.8902)
(3.16422e-15 -13.7817 21.7917)
(2.37931e-15 -11.9679 20.6383)
(2.13238e-15 -11.5773 18.7376)
(1.90648e-15 -10.5753 17.2371)
(1.84479e-15 -9.80443 15.642)
(1.86575e-15 -9.02689 14.1189)
(1.08448e-15 -8.23124 12.6173)
(1.32364e-15 -7.39137 10.9995)
(2.526e-15 -6.2647 9.16302)
(2.1663e-15 -4.91391 6.80598)
(-9.24228e-16 -2.64507 3.80849)
(6.75258e-15 -0.455853 -1.747)
(1.85567e-14 -11.3698 21.942)
(1.67087e-14 -16.8856 26.5603)
(3.13132e-15 -13.3152 24.3452)
(2.7092e-15 -13.2408 21.1487)
(2.78349e-15 -11.611 19.8702)
(2.66482e-15 -11.1233 18.0609)
(2.2742e-15 -10.1945 16.5723)
(2.31372e-15 -9.43087 15.0732)
(2.61755e-15 -8.69029 13.6493)
(1.89699e-15 -7.93648 12.2791)
(1.40522e-15 -7.20235 10.8976)
(2.23716e-15 -6.35375 9.51728)
(2.79298e-15 -5.43585 7.91328)
(2.11791e-16 -3.84824 5.86228)
(1.00706e-15 -1.44922 0.846555)
(1.88868e-14 -11.089 21.3292)
(1.72084e-14 -16.1689 25.7333)
(2.52546e-15 -12.8987 23.672)
(2.84858e-15 -12.778 20.4361)
(3.24976e-15 -11.0819 19.1965)
(1.64611e-15 -10.6893 17.3706)
(2.66336e-15 -9.75767 16.0059)
(2.91608e-15 -9.14785 14.5753)
(8.89514e-16 -8.50894 13.2116)
(1.46337e-15 -7.90519 11.9137)
(1.74966e-15 -7.36927 10.79)
(7.162e-17 -6.87877 9.95318)
(1.78188e-15 -6.37738 9.24924)
(8.87507e-16 -5.38954 8.24517)
(-2.62611e-15 -3.11993 4.30602)
(1.79613e-14 -11.4199 21.6584)
(1.50568e-14 -15.2828 24.766)
(1.07087e-15 -12.3402 22.8322)
(1.45194e-15 -12.2014 19.8325)
(2.69954e-15 -10.3701 18.6124)
(2.66334e-16 -9.88268 16.5263)
(6.55643e-16 -8.55591 14.8036)
(1.80902e-15 -7.84435 12.8876)
(-1.40905e-15 -7.17721 11.4795)
(-1.62256e-15 -6.91807 10.5442)
(5.01578e-16 -6.92684 10.2817)
(-2.19212e-15 -7.25142 10.6874)
(-2.27071e-15 -7.47033 11.355)
(2.77967e-16 -7.23916 11.2719)
(-3.82625e-15 -4.95835 8.10317)
(1.71106e-14 -12.4401 23.262)
(1.21567e-14 -15.1412 24.9138)
(-2.39376e-15 -12.1916 22.9017)
(1.69454e-15 -12.0234 20.6781)
(1.55745e-15 -10.2336 19.4258)
(-2.51752e-15 -9.22288 17.0475)
(-1.14341e-16 -7.22694 14.4318)
(9.60445e-17 -5.71131 11.6191)
(-2.66276e-15 -4.4617 9.62711)
(2.12871e-16 -3.91065 8.46327)
(-2.2155e-16 -4.10656 8.55908)
(-4.32481e-15 -5.31974 10.1153)
(-2.61845e-15 -7.01035 12.3877)
(-4.46862e-15 -8.10437 13.4668)
(-6.00216e-15 -5.75882 10.5067)
(1.62604e-14 -12.6204 23.2726)
(1.32188e-14 -17.0075 27.5525)
(-2.99013e-15 -13.3139 24.5166)
(1.59077e-15 -12.9432 22.2753)
(9.48035e-16 -11.2405 21.2154)
(-2.30329e-15 -10.2475 18.948)
(-2.12585e-16 -8.04472 16.2316)
(1.9379e-16 -6.14308 13.1226)
(-1.47065e-16 -4.25686 10.5831)
(1.78649e-15 -2.73282 8.29527)
(1.82873e-15 -1.47916 6.38728)
(2.77087e-16 -1.11226 5.48023)
(-8.70898e-16 -2.26057 6.57979)
(-3.01494e-15 -4.39973 8.97473)
(-3.68963e-15 -3.96357 8.20946)
(1.34169e-14 -10.7239 19.2779)
(1.59718e-14 -18.2943 28.9856)
(3.56993e-15 -16.3896 27.6492)
(1.84921e-15 -15.1445 24.6809)
(1.08218e-15 -13.5896 23.055)
(-4.14781e-16 -12.7646 21.1283)
(1.81883e-17 -11.175 18.9625)
(-3.68263e-17 -9.51726 16.2941)
(2.524e-16 -7.57214 13.6243)
(1.43522e-15 -5.62637 10.8506)
(2.11129e-15 -3.60953 7.98052)
(2.41148e-15 -1.71066 5.03806)
(9.65291e-16 -0.0239806 2.45017)
(2.55671e-16 0.549123 1.27569)
(-2.4294e-16 -0.708842 2.31502)
(9.4037e-15 -6.40538 10.5927)
(1.73057e-14 -16.058 25.05)
(9.14302e-15 -17.293 27.7375)
(2.6711e-15 -15.6583 24.7513)
(3.99844e-16 -13.7277 22.0936)
(2.59345e-16 -12.7532 20.2698)
(8.63907e-16 -11.8415 18.7968)
(6.30892e-16 -10.8959 17.106)
(9.58473e-16 -9.76579 15.2378)
(1.38387e-15 -8.50432 13.2114)
(1.37088e-15 -7.1015 11.0385)
(1.85277e-15 -5.50038 8.70121)
(1.91821e-15 -3.685 6.02078)
(1.67064e-15 -1.27763 3.0255)
(1.00944e-15 0.832929 -1.00804)
(5.10114e-15 -3.44945 6.78696)
(1.75593e-14 -14.5557 23.0398)
(1.68959e-14 -19.1638 29.1845)
(1.05765e-14 -19.7808 28.3211)
(4.64081e-15 -18.4609 25.0792)
(1.67242e-15 -16.7963 21.7558)
(5.34156e-16 -15.2482 18.9775)
(-2.03591e-16 -13.8554 16.6994)
(-1.40311e-16 -12.4946 14.6769)
(3.92664e-16 -11.1265 12.8844)
(4.62755e-16 -9.74777 11.1741)
(4.5974e-16 -8.24913 9.44388)
(2.42822e-16 -6.64321 7.68291)
(-3.10205e-16 -4.69078 5.59267)
(-3.43913e-16 -1.29185 1.47508)
(-2.25513e-17 584.554 1035.52)
(-8.55355e-16 79.8637 8.90005)
(-1.00949e-15 -20.2271 -37.0781)
(-1.08339e-15 3.29873 -2.04361)
(-1.06043e-15 1.52446 4.83522)
(-1.31538e-15 -4.77534 4.48264)
(-5.34934e-16 -0.462079 3.22021)
(-7.29931e-17 -0.737748 -0.109509)
(1.98626e-16 -0.0278602 -2.14899)
(6.442e-16 -2.39475 -3.31293)
(1.73384e-15 0.563304 -0.429852)
(1.37418e-15 0.896049 -1.60576)
(1.31238e-15 -0.450127 -2.79289)
(5.13637e-16 1.34235 -0.660943)
(2.12159e-16 1.33741 -1.12815)
(1.46577e-16 1.67945 -1.67106)
(2.02043e-16 0.692172 -2.08802)
(2.16822e-16 1.92232 -0.633472)
(2.50523e-16 1.93511 -0.920006)
(2.26049e-16 1.67282 -1.15071)
(1.24698e-17 2.08554 -0.549425)
(-1.75526e-16 2.11839 -0.797729)
(-2.35513e-16 2.2111 -1.02178)
(-4.0506e-16 2.16804 -1.07624)
(-4.20758e-16 2.17007 -0.589946)
(-4.60365e-16 2.26077 -0.696934)
(-6.26379e-16 2.29429 -0.826564)
(-1.00218e-15 2.45757 -0.836472)
(-9.63272e-16 2.20804 -0.559189)
(-1.05502e-15 2.22734 -0.64216)
(-1.49134e-15 2.67179 -0.594564)
(-1.26474e-15 2.06263 -0.472308)
(-1.35471e-15 2.21644 -0.532269)
(-1.3937e-15 2.1881 -0.594831)
(-2.07032e-15 2.49249 -0.498076)
(-1.68141e-15 1.90931 -0.399225)
(-1.60152e-15 1.98035 -0.452024)
(-2.25048e-15 2.31578 -0.313185)
(-1.67076e-15 1.6936 -0.299621)
(-1.67634e-15 1.8299 -0.33446)
(-1.56099e-15 1.80595 -0.354471)
(-2.06042e-15 2.05994 -0.13812)
(-1.33557e-15 1.53572 -0.146095)
(-1.21589e-15 1.67089 -0.151841)
(-1.05112e-15 1.62611 -0.142016)
(-1.18605e-15 1.88549 0.108839)
(-7.36345e-16 1.51039 0.121321)
(-5.9752e-16 1.53489 0.113943)
(-6.20621e-16 1.84154 0.405018)
(-2.93056e-16 1.42284 0.333468)
(-2.82248e-17 1.4956 0.354535)
(2.22043e-16 1.41941 0.380475)
(6.17229e-16 1.55315 0.750679)
(7.36208e-16 1.16882 0.491105)
(8.32966e-16 1.20428 0.489295)
(1.15231e-15 1.14287 0.532242)
(1.86222e-15 1.10276 0.618403)
(1.86356e-15 0.752966 0.0728666)
(1.80764e-15 0.707164 0.189177)
(2.74906e-15 0.793675 -0.865768)
(2.37538e-15 0.152454 -1.51361)
(2.30171e-15 0.185041 -1.64028)
(2.5417e-15 0.384809 -1.57811)
(5.35004e-16 0.774946 -2.43563)
(-3.70726e-15 -0.664183 0.549765)
(-3.27235e-15 -0.190839 0.304602)
(-4.30672e-15 -0.789813 2.43924)
(-2.99728e-15 -1.64046 3.57674)
(-2.66912e-15 -1.79123 3.46642)
(-2.46065e-15 -1.77298 3.64101)
(-2.67822e-15 -3.07771 6.45783)
(-1.68671e-15 -3.57632 5.90326)
(-1.6697e-15 -4.01554 6.0525)
(-1.63362e-15 -3.98316 6.28072)
(-1.93394e-15 -6.28702 9.92483)
(-1.31521e-15 -6.26535 8.13709)
(-1.47109e-15 -6.37087 8.69807)
(-1.74792e-15 -9.15354 12.8701)
(-1.3098e-15 -8.75349 10.1022)
(-1.43615e-15 -9.16117 10.924)
(-1.62863e-15 -9.9416 12.6737)
(-1.3951e-15 -9.83738 12.5006)
(-1.26926e-15 -9.95473 12.7787)
(-4.16231e-16 -11.7583 15.4918)
(-4.84385e-16 -10.6832 13.7203)
(-1.95797e-16 -10.9777 14.2329)
(-7.79266e-17 -10.9684 14.2631)
(6.69563e-17 -11.0687 14.2671)
(1.63276e-16 -11.1469 14.2923)
(2.50653e-16 -11.2372 14.3551)
(3.60091e-16 -11.3192 14.5465)
(4.76813e-16 -11.3953 14.84)
(1.02931e-15 -12.2495 16.507)
(7.10862e-16 -11.8016 15.3995)
(8.31967e-16 -11.9686 15.6378)
(9.2722e-16 -11.9383 15.7552)
(1.07511e-15 -12.1054 16.0952)
(1.11996e-15 -12.0918 16.1366)
(1.18659e-15 -12.191 16.2605)
(1.23742e-15 -12.2456 16.3725)
(1.30537e-15 -12.316 16.5125)
(2.02555e-15 -12.8591 17.8814)
(1.76581e-15 -12.4455 16.9613)
(1.89217e-15 -12.5675 17.177)
(2.01145e-15 -12.5912 17.2909)
(2.17475e-15 -12.6545 17.467)
(2.3315e-15 -12.6948 17.7028)
(2.46443e-15 -12.7854 17.9593)
(2.58526e-15 -12.7947 18.0415)
(2.71975e-15 -12.8615 18.19)
(2.83173e-15 -12.9608 18.3361)
(3.60365e-15 -12.8244 18.9937)
(2.98198e-15 -12.69 18.4907)
(3.12781e-15 -12.7565 18.7158)
(3.13015e-15 -12.7729 18.8381)
(3.13874e-15 -12.8343 18.9773)
(3.13453e-15 -12.8477 19.1028)
(3.14245e-15 -12.9088 19.3616)
(3.20376e-15 -12.9119 19.4241)
(3.26935e-15 -13.0308 19.3986)
(4.03276e-15 -12.0653 18.5658)
(3.31716e-15 -12.2458 18.4716)
(3.53719e-15 -12.2409 18.5671)
(3.73595e-15 -12.2719 18.7156)
(3.91509e-15 -12.2306 18.6529)
(4.14381e-15 -12.2539 18.6843)
(4.37834e-15 -12.2349 18.7246)
(4.61777e-15 -12.1919 18.84)
(4.96638e-15 -12.3906 19.2159)
(5.5665e-15 -10.1887 16.7393)
(5.29772e-15 -10.9924 17.8801)
(5.44322e-15 -10.867 17.7534)
(5.49275e-15 -10.8362 17.7359)
(5.78644e-15 -10.8116 17.8807)
(5.76534e-15 -10.7346 17.642)
(5.64067e-15 -10.6136 17.2274)
(5.54977e-15 -10.5342 16.762)
(5.47758e-15 -10.543 16.1864)
(5.24914e-15 -7.52728 11.8648)
(6.04626e-15 -8.776 14.4962)
(5.92141e-15 -8.42901 13.6359)
(6.00725e-15 -8.41793 13.3189)
(6.11673e-15 -8.22047 12.9075)
(6.37579e-15 -8.12688 12.6141)
(7.30883e-15 -7.9167 12.4134)
(6.80634e-15 -7.74495 11.9497)
(6.75449e-15 -7.5704 11.5148)
(6.42884e-15 -7.40473 10.8556)
(3.45212e-15 -3.76294 4.95098)
(5.75478e-15 -5.69036 8.73948)
(5.09973e-15 -5.10857 7.28553)
(4.65076e-15 -5.24705 6.72107)
(4.02629e-15 -4.88783 5.64502)
(3.25906e-15 -4.83454 4.38862)
(1.87077e-15 -4.63743 2.21415)
(5.91572e-16 -4.22131 0.207818)
(7.75743e-16 -4.23986 0.287261)
(-6.07403e-16 -3.84414 -1.82146)
(3.19528e-16 -3.82371 -0.324298)
(1.43682e-17 -3.73533 -0.934509)
(-1.03299e-15 -2.81628 -2.03653)
(-6.30732e-16 -4.10929 -1.83252)
(-8.38009e-16 -3.23329 -1.57757)
(-6.62886e-16 -2.8448 -1.10323)
(-9.17246e-16 -3.58984 -1.53009)
(-6.78275e-16 -2.36894 -0.955911)
(-1.00022e-15 -3.12229 -1.42034)
(-8.25701e-16 -2.73721 -1.05302)
(-6.82845e-16 -2.17323 -0.791344)
(-9.78128e-16 -2.68716 -1.15252)
(-8.52027e-16 -2.38155 -0.875967)
(-6.97813e-16 -1.99977 -0.651653)
(-9.30264e-16 -2.66299 -0.904943)
(-7.26098e-16 -1.71392 -0.581473)
(-1.07771e-15 -2.3237 -0.874331)
(-8.17445e-16 -1.97349 -0.674059)
(-7.01295e-16 -1.68486 -0.503611)
(-8.73048e-16 -2.26714 -0.704147)
(-6.13416e-16 -1.43489 -0.453459)
(-9.13712e-16 -2.00628 -0.685142)
(-7.70581e-16 -1.75941 -0.540639)
(-6.42309e-16 -1.37501 -0.403394)
(-9.34925e-16 -1.77054 -0.606101)
(-8.39054e-16 -1.55929 -0.479712)
(-5.74869e-16 -1.29944 -0.34834)
(-8.25e-16 -1.79659 -0.500788)
(-6.38604e-16 -1.11318 -0.316771)
(-9.02003e-16 -1.57716 -0.49867)
(-5.70731e-16 -1.30834 -0.396043)
(-4.91811e-16 -1.10871 -0.280418)
(-6.1192e-16 -1.54291 -0.417252)
(-4.24965e-16 -0.93154 -0.257361)
(-6.0553e-16 -1.3671 -0.423069)
(-4.93778e-16 -1.15578 -0.335686)
(-4.30105e-16 -0.886819 -0.235853)
(-6.68344e-16 -1.18706 -0.390807)
(-6.07507e-16 -0.999926 -0.301461)
(-3.2188e-16 -0.821389 -0.202073)
(-4.87389e-16 -1.1884 -0.311213)
(-3.6836e-16 -0.682921 -0.187282)
(-5.2999e-16 -1.03864 -0.321315)
(-4.0963e-16 -0.802991 -0.240265)
(-5.27546e-16 -0.671471 -0.156725)
(-7.11125e-16 -0.993286 -0.248612)
(-3.7521e-16 -0.538036 -0.143582)
(-5.70162e-16 -0.875144 -0.256065)
(-3.14548e-16 -0.681004 -0.187715)
(-1.605e-16 -0.501046 -0.118967)
(-2.24342e-16 -0.732184 -0.213982)
(-1.3138e-16 -0.561621 -0.142266)
(-8.60441e-17 -0.443521 -0.0707897)
(-1.52652e-16 -0.718211 -0.121426)
(-3.11511e-16 -0.344136 -0.0448503)
(-3.74887e-16 -0.625158 -0.099307)
(-9.90603e-17 -0.416793 -0.0391414)
(5.44673e-17 -0.338146 0.0223337)
(-1.6333e-17 -0.579624 0.0152889)
(1.29696e-16 -0.256196 0.0681669)
(1.14555e-16 -0.514431 0.080059)
(1.49235e-16 -0.361744 0.116245)
(2.04646e-16 -0.255665 0.14097)
(2.49178e-16 -0.4161 0.178151)
(5.65222e-16 -0.311287 0.16012)
(1.58541e-16 -0.236801 0.154316)
(3.96822e-16 -0.447728 0.193937)
(3.721e-16 -0.179384 0.150454)
(7.89478e-16 -0.3863 0.19938)
(8.33187e-16 -0.274289 0.142535)
(1.01652e-15 -0.178846 0.139908)
(1.21924e-15 -0.421238 0.176509)
(7.13146e-16 -0.0743629 0.0788257)
(1.00537e-15 -0.376109 0.00962165)
(9.10808e-16 -0.374312 -0.200179)
(3.38642e-16 0.175237 -0.198088)
(4.02963e-16 -0.4456 -0.389001)
(-4.74569e-17 -0.898399 -0.540751)
(1.03041e-16 1.11158 -0.432382)
(3.78047e-16 -1.38317 -0.541567)
(2.89474e-16 0.465286 -0.348401)
(2.17263e-16 0.131565 -0.478001)
(-7.2968e-28 0.693051 0.851679)
(-1.55447e-27 0.792479 0.853423)
(-2.60994e-27 0.846719 0.860831)
(-3.99722e-27 0.903572 0.86875)
(-4.69144e-27 0.956054 0.87957)
(-3.00527e-28 1.00585 0.891852)
(2.47738e-26 1.05341 0.906119)
(1.21156e-25 1.09907 0.922009)
(4.45162e-25 1.14313 0.939588)
(1.4635e-24 1.18582 0.95874)
(4.53326e-24 1.22731 0.979443)
(1.35126e-23 1.26778 1.00164)
(3.91529e-23 1.30738 1.02532)
(1.1089e-22 1.34627 1.05045)
(3.0805e-22 1.38461 1.07702)
(8.41307e-22 1.42254 1.10504)
(2.26209e-21 1.4602 1.13449)
(5.99108e-21 1.49772 1.1654)
(1.56207e-20 1.53522 1.19777)
(4.00306e-20 1.57278 1.23161)
(1.00566e-19 1.61048 1.26694)
(2.46857e-19 1.64834 1.30378)
(5.89906e-19 1.6863 1.34219)
(1.36726e-18 1.72419 1.38229)
(3.06297e-18 1.76167 1.4244)
(6.61152e-18 1.79814 1.46914)
(1.37143e-17 1.8327 1.5177)
(2.72765e-17 1.86404 1.57215)
(5.19214e-17 1.89049 1.63581)
(9.44459e-17 1.91015 1.71348)
(1.63964e-16 1.92102 1.81141)
(2.71388e-16 1.9215 1.93678)
(4.27911e-16 1.91077 2.09645)
(6.42401e-16 1.88935 2.29486)
(9.18116e-16 1.85941 2.53144)
(1.24984e-15 1.8248 2.79823)
(1.62284e-15 1.79051 3.0794)
(2.01448e-15 1.76145 3.35366)
(2.39789e-15 1.74097 3.59918)
(2.7461e-15 1.72976 3.79836)
(3.03506e-15 1.72564 3.94039)
(3.24523e-15 1.72385 4.02081)
(3.36239e-15 1.7174 4.03916)
(3.37742e-15 1.69778 3.99663)
(3.28235e-15 1.65916 3.89777)
(3.0625e-15 1.59963 3.7555)
(2.72895e-15 1.45861 3.55337)
(2.50959e-15 0.930432 3.07661)
(2.92777e-15 -0.340435 2.01298)
(3.27438e-15 -1.19912 1.6583)
(3.36131e-15 -1.76203 1.49436)
(3.31647e-15 -2.21241 1.30861)
(3.14834e-15 -2.65344 1.10824)
(2.87504e-15 -3.0924 0.92083)
(2.50667e-15 -3.52013 0.714835)
(2.08179e-15 -3.91061 0.51189)
(1.64869e-15 -4.28099 0.329934)
(1.22676e-15 -4.66639 0.154799)
(8.28286e-16 -4.86941 -0.0453994)
(4.41254e-16 -4.95835 -0.141985)
(1.8958e-16 -5.09237 -0.235094)
(6.66513e-17 -5.13028 -0.293082)
(1.6713e-17 -5.09549 -0.324503)
(2.49777e-18 -5.0294 -0.331535)
(1.31313e-19 -4.9469 -0.336548)
(-2.85943e-20 -4.78719 -0.340272)
(-8.41528e-21 -4.56041 -0.343018)
(-9.4213e-22 -4.28411 -0.347639)
(6.96894e-23 -3.88708 -0.356899)
(3.48894e-23 -3.4464 -0.350538)
(-1.22577e-23 -2.86855 -0.357694)
(4.813e-24 -2.32991 -0.329045)
(-4.28041e-23 -1.46957 -0.337299)
(3.64897e-22 -1.15773 -0.293416)
(-9.42726e-21 1.10079 -0.267203)
(1.4443e-19 0.890478 -0.151404)
(-1.21932e-18 1.52926 -0.382634)
(7.02296e-18 1.33617 0.014238)
(-1.80231e-17 -4.5056 -0.550952)
(-1.56124e-27 0.693024 0.898549)
(-3.25686e-27 0.791204 0.898397)
(-5.28412e-27 0.844413 0.90575)
(-7.53562e-27 0.900703 0.913487)
(-6.88297e-27 0.952476 0.924547)
(8.75203e-27 1.00171 0.937195)
(8.03357e-26 1.04869 0.952011)
(3.3732e-25 1.09382 0.968573)
(1.17179e-24 1.13736 0.986937)
(3.73579e-24 1.17955 1.00697)
(1.13313e-23 1.22055 1.02865)
(3.32192e-23 1.26055 1.05191)
(9.48753e-23 1.29969 1.07673)
(2.65178e-22 1.33812 1.10309)
(7.27472e-22 1.37599 1.13099)
(1.96271e-21 1.41346 1.16042)
(5.21383e-21 1.45066 1.19139)
(1.36397e-20 1.48772 1.22392)
(3.51089e-20 1.52475 1.25801)
(8.87435e-20 1.56185 1.29369)
(2.19632e-19 1.59907 1.33098)
(5.30335e-19 1.63643 1.36998)
(1.24459e-18 1.67386 1.41081)
(2.82792e-18 1.71114 1.4538)
(6.19916e-18 1.74784 1.4996)
(1.30694e-17 1.78322 1.54946)
(2.64276e-17 1.8161 1.60556)
(5.11376e-17 1.84482 1.67144)
(9.45049e-17 1.86729 1.75231)
(1.66526e-16 1.88108 1.85506)
(2.79394e-16 1.88388 1.98767)
(4.45829e-16 1.87403 2.15788)
(6.76055e-16 1.85128 2.37094)
(9.73824e-16 1.81746 2.62676)
(1.33275e-15 1.77689 2.91724)
(1.73474e-15 1.73592 3.2251)
(2.15193e-15 1.70159 3.52625)
(2.55175e-15 1.67953 3.79539)
(2.90282e-15 1.67219 4.01242)
(3.17915e-15 1.67829 4.16603)
(3.36173e-15 1.69344 4.25329)
(3.43845e-15 1.71132 4.27664)
(3.40361e-15 1.72415 4.24036)
(3.25743e-15 1.72282 4.14802)
(3.00206e-15 1.6997 4.00374)
(2.62791e-15 1.65516 3.82064)
(2.12885e-15 1.56132 3.60524)
(1.74084e-15 1.15976 3.18573)
(2.33179e-15 -0.0881816 2.07741)
(3.30607e-15 -1.25715 1.47592)
(3.37118e-15 -1.79052 1.45911)
(3.30793e-15 -2.22588 1.28806)
(3.13784e-15 -2.66591 1.08643)
(2.86427e-15 -3.1017 0.904558)
(2.49761e-15 -3.52605 0.703107)
(2.07553e-15 -3.91698 0.505463)
(1.64504e-15 -4.2867 0.328352)
(1.2253e-15 -4.66503 0.158411)
(8.28394e-16 -4.86997 -0.0366883)
(4.42232e-16 -4.96319 -0.131298)
(1.90432e-16 -5.09398 -0.223433)
(6.70771e-17 -5.13091 -0.281088)
(1.68628e-17 -5.0946 -0.313489)
(2.51455e-18 -5.02502 -0.322162)
(1.23405e-19 -4.93756 -0.328997)
(-3.18453e-20 -4.77385 -0.334712)
(-8.91222e-21 -4.54367 -0.339479)
(-9.65008e-22 -4.26424 -0.346005)
(7.82994e-23 -3.86659 -0.357094)
(3.8211e-23 -3.4247 -0.352659)
(-1.17972e-23 -2.8477 -0.361549)
(4.55537e-24 -2.30728 -0.335803)
(-4.39922e-23 -1.44389 -0.345454)
(4.14677e-22 -1.1312 -0.314995)
(-1.06499e-20 1.07837 -0.289037)
(1.58938e-19 0.823 -0.126341)
(-1.17932e-18 1.50284 -0.411591)
(7.52696e-18 1.35836 0.141329)
(-1.94008e-17 -4.42864 -0.532692)
(-2.755e-27 0.693162 0.924036)
(-5.59403e-27 0.790689 0.923177)
(-8.65555e-27 0.843267 0.930486)
(-1.10142e-26 0.899252 0.938192)
(-5.0197e-27 0.950635 0.949419)
(3.6721e-26 0.99957 0.962317)
(2.0359e-25 1.04625 0.977475)
(7.71126e-25 1.0911 0.99445)
(2.55818e-24 1.13437 1.01329)
(7.93162e-24 1.1763 1.03385)
(2.35745e-23 1.21705 1.0561)
(6.79685e-23 1.25681 1.07999)
(1.91275e-22 1.2957 1.10548)
(5.27368e-22 1.33389 1.13257)
(1.42812e-21 1.37153 1.16124)
(3.80487e-21 1.40875 1.19151)
(9.98189e-21 1.44571 1.22338)
(2.57823e-20 1.48252 1.25686)
(6.54827e-20 1.5193 1.29198)
(1.6316e-19 1.55614 1.32877)
(3.97545e-19 1.59309 1.3673)
(9.43642e-19 1.63015 1.40771)
(2.17345e-18 1.66722 1.45028)
(4.83879e-18 1.70403 1.49557)
(1.03758e-17 1.74002 1.54466)
(2.13619e-17 1.7743 1.59949)
(4.21118e-17 1.80545 1.66324)
(7.93026e-17 1.83154 1.74076)
(1.42369e-16 1.85015 1.8386)
(2.4324e-16 1.85873 1.96464)
(3.94951e-16 1.85505 2.12684)
(6.08832e-16 1.83797 2.33123)
(8.90568e-16 1.80825 2.5793)
(1.23621e-15 1.76919 2.86542)
(1.62988e-15 1.72666 3.17524)
(2.04487e-15 1.68808 3.48667)
(2.44828e-15 1.66049 3.77434)
(2.8073e-15 1.64834 4.016)
(3.09435e-15 1.65229 4.19743)
(3.28942e-15 1.66945 4.31339)
(3.38003e-15 1.69456 4.36519)
(3.36032e-15 1.7211 4.35736)
(3.23023e-15 1.74158 4.29479)
(2.99506e-15 1.74729 4.18097)
(2.66206e-15 1.73009 4.01879)
(2.22595e-15 1.68874 3.81842)
(1.66442e-15 1.60592 3.59623)
(1.14432e-15 1.27026 3.23929)
(1.61392e-15 0.137871 2.23257)
(3.20482e-15 -1.1302 1.27895)
(3.3961e-15 -1.74243 1.34156)
(3.29887e-15 -2.16326 1.25868)
(3.12346e-15 -2.6007 1.05822)
(2.85026e-15 -3.03776 0.880099)
(2.48604e-15 -3.46143 0.685877)
(2.06761e-15 -3.85619 0.495)
(1.64043e-15 -4.2304 0.324618)
(1.22343e-15 -4.60891 0.161751)
(8.28459e-16 -4.8247 -0.0266165)
(4.43361e-16 -4.93222 -0.117735)
(1.91435e-16 -5.07015 -0.207772)
(6.75823e-17 -5.11654 -0.264579)
(1.70412e-17 -5.08847 -0.297821)
(2.53503e-18 -5.02416 -0.308351)
(1.14029e-19 -4.939 -0.31744)
(-3.57952e-20 -4.77708 -0.325895)
(-9.52225e-21 -4.54805 -0.333547)
(-9.90965e-22 -4.26882 -0.342847)
(8.96608e-23 -3.87317 -0.356661)
(4.24333e-23 -3.43216 -0.355003)
(-1.12086e-23 -2.85832 -0.366221)
(4.24525e-24 -2.31843 -0.344099)
(-4.57265e-23 -1.4589 -0.354685)
(4.73832e-22 -1.1508 -0.336718)
(-1.13144e-20 1.06386 -0.295465)
(1.63334e-19 0.856696 -0.1161)
(-1.16513e-18 1.48499 -0.415655)
(7.94951e-18 1.36941 0.175897)
(-1.82888e-17 -4.36614 -0.51496)
(-4.85738e-27 0.693407 0.954351)
(-9.54158e-27 0.789952 0.952892)
(-1.38499e-26 0.841648 0.960199)
(-1.45822e-26 0.897172 0.967938)
(6.28213e-27 0.947984 0.979397)
(1.09913e-25 0.99648 0.992632)
(4.89819e-25 1.0427 1.00823)
(1.72985e-24 1.08715 1.02573)
(5.53518e-24 1.13002 1.04516)
(1.67588e-23 1.17157 1.06638)
(4.89076e-23 1.21196 1.08935)
(1.38827e-22 1.25135 1.114)
(3.85216e-22 1.28989 1.14033)
(1.04817e-21 1.32773 1.16831)
(2.80283e-21 1.36501 1.19795)
(7.37576e-21 1.40188 1.22924)
(1.91119e-20 1.43848 1.26221)
(4.87391e-20 1.47493 1.29687)
(1.22132e-19 1.51135 1.33325)
(2.99915e-19 1.5478 1.37144)
(7.19224e-19 1.58434 1.41155)
(1.67768e-18 1.62094 1.45382)
(3.79108e-18 1.65744 1.49877)
(8.26657e-18 1.69346 1.54735)
(1.73318e-17 1.72831 1.60128)
(3.48288e-17 1.76082 1.6635)
(6.68954e-17 1.78925 1.73855)
(1.22506e-16 1.81131 1.8328)
(2.13455e-16 1.82428 1.95417)
(3.53249e-16 1.82554 2.11099)
(5.54504e-16 1.81318 2.3101)
(8.24984e-16 1.78686 2.55427)
(1.16323e-15 1.74868 2.83973)
(1.5555e-15 1.70361 3.15446)
(1.97594e-15 1.65914 3.47828)
(2.39056e-15 1.62364 3.78592)
(2.7639e-15 1.60391 4.0529)
(3.06538e-15 1.60318 4.26153)
(3.27283e-15 1.62042 4.40365)
(3.37298e-15 1.65128 4.4793)
(3.36021e-15 1.68961 4.49321)
(3.23516e-15 1.72852 4.45151)
(3.00346e-15 1.7606 4.35976)
(2.67493e-15 1.77729 4.22174)
(2.26073e-15 1.76976 4.03991)
(1.75956e-15 1.7354 3.82199)
(1.13883e-15 1.66835 3.58802)
(4.91885e-16 1.40642 3.27294)
(7.55686e-16 0.388844 2.38762)
(2.87572e-15 -1.02049 1.1512)
(3.40095e-15 -1.73057 1.15275)
(3.29719e-15 -2.13346 1.19683)
(3.10732e-15 -2.55377 1.02893)
(2.8349e-15 -2.99111 0.84972)
(2.47347e-15 -3.41431 0.663476)
(2.0592e-15 -3.81155 0.481241)
(1.63555e-15 -4.1889 0.318611)
(1.22144e-15 -4.56683 0.164229)
(8.28462e-16 -4.79054 -0.0158901)
(4.44443e-16 -4.9088 -0.102151)
(1.92412e-16 -5.05168 -0.189025)
(6.8078e-17 -5.10492 -0.244339)
(1.72166e-17 -5.08276 -0.278108)
(2.55576e-18 -5.02207 -0.290575)
(1.04863e-19 -4.93824 -0.302219)
(-3.97772e-20 -4.77734 -0.31393)
(-1.01471e-20 -4.54897 -0.325162)
(-1.0153e-21 -4.26966 -0.337914)
(1.02319e-22 -3.87544 -0.355165)
(4.69747e-23 -3.43497 -0.356926)
(-1.05707e-23 -2.8633 -0.371003)
(3.93201e-24 -2.3237 -0.352895)
(-4.78372e-23 -1.46468 -0.364149)
(5.35472e-22 -1.16091 -0.35642)
(-1.20666e-20 1.04033 -0.303909)
(1.70206e-19 0.880876 -0.109256)
(-1.15178e-18 1.4598 -0.426826)
(8.32847e-18 1.36752 0.214184)
(-1.9837e-17 -4.30493 -0.488694)
(-8.44079e-27 0.693714 0.983619)
(-1.58823e-26 0.789359 0.981843)
(-2.09898e-26 0.840213 0.989173)
(-1.47592e-26 0.895299 0.997024)
(4.40425e-26 0.945574 1.00875)
(2.89717e-25 0.993657 1.02236)
(1.13604e-24 1.03946 1.03843)
(3.80724e-24 1.08353 1.05648)
(1.18198e-23 1.12603 1.07652)
(3.50316e-23 1.16724 1.09843)
(1.0049e-22 1.20729 1.12213)
(2.80979e-22 1.24635 1.14758)
(7.6893e-22 1.28456 1.17476)
(2.06501e-21 1.32207 1.20365)
(5.45245e-21 1.35903 1.23426)
(1.41705e-20 1.39557 1.2666)
(3.62581e-20 1.43184 1.30069)
(9.12624e-20 1.46795 1.33656)
(2.25518e-19 1.50401 1.37428)
(5.45461e-19 1.54009 1.41395)
(1.28649e-18 1.57621 1.4558)
(2.94655e-18 1.61228 1.50027)
(6.52637e-18 1.64807 1.54821)
(1.39238e-17 1.68306 1.60115)
(2.85099e-17 1.71631 1.66178)
(5.58442e-17 1.74635 1.73433)
(1.04339e-16 1.77107 1.82496)
(1.8548e-16 1.78784 1.94158)
(3.13023e-16 1.79387 2.09289)
(5.00651e-16 1.78679 2.28642)
(7.58042e-16 1.76547 2.52596)
(1.08618e-15 1.73087 2.80906)
(1.47364e-15 1.68669 3.1254)
(1.89589e-15 1.63952 3.45679)
(2.31858e-15 1.59792 3.77916)
(2.70419e-15 1.57023 4.06724)
(3.01923e-15 1.56206 4.30062)
(3.23913e-15 1.57471 4.46797)
(3.3495e-15 1.60538 4.56729)
(3.34489e-15 1.64858 4.60284)
(3.22677e-15 1.69779 4.58142)
(3.00177e-15 1.74622 4.50977)
(2.68009e-15 1.7868 4.39348)
(2.27411e-15 1.81137 4.2364)
(1.79591e-15 1.81089 4.04073)
(1.24565e-15 1.78084 3.81187)
(5.84729e-16 1.7203 3.5692)
(-1.63895e-16 1.51253 3.28467)
(-1.64853e-16 0.624403 2.52832)
(2.2679e-15 -0.913198 1.09533)
(3.32146e-15 -1.73899 0.94342)
(3.30274e-15 -2.13709 1.08197)
(3.09217e-15 -2.52782 0.989531)
(2.81877e-15 -2.96017 0.815766)
(2.46044e-15 -3.38375 0.634706)
(2.05061e-15 -3.78317 0.463378)
(1.63066e-15 -4.16281 0.309947)
(1.21942e-15 -4.53893 0.165527)
(8.28424e-16 -4.76845 -0.00450358)
(4.45431e-16 -4.89486 -0.0843003)
(1.93312e-16 -5.04011 -0.166767)
(6.85347e-17 -5.09754 -0.219784)
(1.73782e-17 -5.07881 -0.253669)
(2.5754e-18 -5.01959 -0.268113)
(9.64944e-20 -4.93531 -0.282689)
(-4.35456e-20 -4.77401 -0.298234)
(-1.07523e-20 -4.54525 -0.313826)
(-1.03712e-21 -4.26513 -0.330835)
(1.15707e-22 -3.87183 -0.352333)
(5.16621e-23 -3.43158 -0.358257)
(-9.90463e-24 -2.86163 -0.37591)
(3.62818e-24 -2.32228 -0.362213)
(-5.0203e-23 -1.46208 -0.374493)
(5.97816e-22 -1.16267 -0.374628)
(-1.27975e-20 1.01521 -0.315836)
(1.7724e-19 0.88659 -0.106)
(-1.14278e-18 1.43168 -0.432977)
(8.48334e-18 1.37172 0.228465)
(-2.4551e-17 -4.25281 -0.464972)
(-1.44251e-26 0.694062 1.01324)
(-2.56111e-26 0.788728 1.01135)
(-2.91052e-26 0.838686 1.01874)
(-1.92682e-27 0.893283 1.02678)
(1.48164e-25 0.942973 1.03882)
(7.11764e-25 0.990604 1.05286)
(2.5637e-24 1.03595 1.06944)
(8.24547e-24 1.07961 1.08809)
(2.49417e-23 1.12171 1.10881)
(7.24955e-23 1.16254 1.13144)
(2.04588e-22 1.20223 1.15593)
(5.63721e-22 1.24093 1.18222)
(1.52175e-21 1.27879 1.2103)
(4.03381e-21 1.31595 1.24016)
(1.05166e-20 1.35255 1.27181)
(2.69895e-20 1.38873 1.30526)
(6.81768e-20 1.42463 1.34055)
(1.69307e-19 1.46036 1.37773)
(4.12365e-19 1.49602 1.41689)
(9.81756e-19 1.53166 1.45825)
(2.27562e-18 1.56725 1.50217)
(5.11326e-18 1.60263 1.5494)
(1.10903e-17 1.63744 1.60131)
(2.31248e-17 1.67094 1.66031)
(4.61843e-17 1.70187 1.73037)
(8.80504e-17 1.72839 1.81738)
(1.59763e-16 1.74802 1.92923)
(2.75149e-16 1.75796 2.07497)
(4.488e-16 1.75558 2.26295)
(6.92233e-16 1.73923 2.49801)
(1.00893e-15 1.70901 2.77873)
(1.38997e-15 1.66742 3.09588)
(1.8125e-15 1.61971 3.43259)
(2.24231e-15 1.57361 3.76623)
(2.64023e-15 1.53802 4.07197)
(2.96994e-15 1.52053 4.32784)
(3.20402e-15 1.52513 4.51956)
(3.32636e-15 1.5513 4.64241)
(3.33118e-15 1.59489 4.69937)
(3.22066e-15 1.64976 4.69736)
(3.00259e-15 1.70929 4.64404)
(2.68827e-15 1.76688 4.54616)
(2.29062e-15 1.81571 4.40922)
(1.82208e-15 1.84794 4.23715)
(1.29247e-15 1.85443 4.03227)
(6.99985e-16 1.82904 3.79838)
(2.56208e-18 1.77335 3.55195)
(-8.32489e-16 1.60907 3.28919)
(-1.12248e-15 0.849551 2.65512)
(1.38651e-15 -0.795514 1.09837)
(3.08629e-15 -1.73073 0.757735)
(3.29575e-15 -2.15078 0.922089)
(3.08171e-15 -2.50869 0.922761)
(2.80191e-15 -2.92693 0.77783)
(2.4476e-15 -3.3509 0.600215)
(2.04191e-15 -3.75351 0.440224)
(1.6259e-15 -4.13557 0.298213)
(1.21749e-15 -4.51011 0.165141)
(8.28388e-16 -4.7456 0.00691227)
(4.46329e-16 -4.88024 -0.064677)
(1.94114e-16 -5.02781 -0.141322)
(6.89386e-17 -5.08945 -0.191128)
(1.752e-17 -5.07417 -0.224591)
(2.59305e-18 -5.01648 -0.240885)
(8.92542e-20 -4.93178 -0.258697)
(-4.69441e-20 -4.77011 -0.278607)
(-1.1316e-20 -4.54107 -0.299284)
(-1.0565e-21 -4.26026 -0.321366)
(1.2936e-22 -3.86802 -0.347914)
(5.64025e-23 -3.42818 -0.358749)
(-9.21896e-24 -2.86011 -0.380742)
(3.33754e-24 -2.32142 -0.37174)