/*--------------------------------*- C++ -*----------------------------------*\
| =========                 |                                                 |
| \\      /  F ield         | OpenFOAM: The Open Source CFD Toolbox           |
|  \\    /   O peration     | Version:  4.1                                   |
|   \\  /    A nd           | Web:      www.OpenFOAM.org                      |
|    \\/     M anipulation  |                                                 |
\*---------------------------------------------------------------------------*/
FoamFile
{
    version     2.0;
    format      ascii;
    class       volScalarField;
    location    "25";
    object      nut;
}
// * * * * * * * * * * * * * * * * * * * * * * * * * * * * * * * * * * * * * //

dimensions      [0 2 -1 0 0 0 0];

internalField   nonuniform List<scalar> 
6785
(
0.553236
2.39872e-08
1.10071e-08
1.09923e-08
1.09933e-08
1.09907e-08
1.09918e-08
1.09929e-08
1.09903e-08
1.09909e-08
1.09902e-08
1.09865e-08
1.10076e-08
3.8827e-08
0.327498
0.831061
0.035268
0.001185
1.35315e-06
4.31709e-10
2.59513e-10
2.4255e-10
2.19981e-10
2.0127e-10
2.05396e-10
2.05352e-10
1.71431e-10
3.70459e-09
0.00092093
0.422809
1.03513
0.134943
0.00495337
2.08139e-05
2.02492e-06
0.000236167
0.00509902
0.0487556
0.198205
0.321871
0.329452
0.299111
0.259798
0.236045
0.393689
1.08901
0.385692
0.157723
0.000367383
0.000125988
0.000846016
0.0102697
0.0665909
0.134892
0.154468
0.170086
0.186749
0.222945
0.34259
0.31488
1.04025
0.69412
0.194069
0.0364001
0.0113042
0.00310072
0.00797285
0.0460047
0.119058
0.154196
0.175102
0.188359
0.209517
0.294269
0.345165
0.956802
1.17222
0.624133
0.17696
0.079014
0.0284565
0.0111012
0.0363651
0.0918438
0.140417
0.156029
0.173397
0.210947
0.327648
0.409092
0.899076
1.53102
0.61477
0.207565
0.103996
0.0548147
0.0188117
0.0296954
0.0722859
0.10611
0.119216
0.128762
0.211483
0.471279
0.468009
0.868102
1.56836
0.620961
0.234475
0.124881
0.0858456
0.0321074
0.0248057
0.0475703
0.0693965
0.0793061
0.0909508
0.229559
0.52874
0.482561
0.852959
1.48816
0.596299
0.24842
0.13636
0.0943184
0.0418001
0.0219519
0.0302687
0.0455693
0.0493858
0.0693758
0.252542
0.615812
0.518954
0.833312
1.20637
0.508564
0.234495
0.150135
0.121482
0.0656102
0.0228162
0.0221735
0.0285975
0.0331704
0.0623776
0.286719
0.707236
0.535142
0.810168
0.972572
0.426943
0.217582
0.148267
0.127494
0.0813973
0.0257632
0.0167458
0.0190056
0.0251586
0.064907
0.327919
0.790145
0.546676
0.78624
0.785463
0.339484
0.188645
0.159359
0.147468
0.112427
0.0325461
0.0137105
0.0144925
0.0209922
0.0718154
0.373327
0.870739
0.548243
0.762209
0.63303
0.29811
0.19717
0.14729
0.136937
0.119887
0.0383804
0.0140086
0.0129167
0.0215102
0.0876691
0.430817
0.938424
0.543807
0.717189
0.568783
0.235997
0.0889821
0.157664
0.13022
0.101738
0.0371776
0.0177278
0.0306415
0.0884136
0.203868
0.531517
0.933846
0.566578
0.819135
0.522646
0.220489
0.24944
0.847607
0.375791
0.245652
0.0898474
0.0265489
0.0254511
0.041002
0.0995688
0.31727
0.523575
0.428877
1.49688
2.3472
1.29932
1.26344
1.21005
1.86025
1.08334
1.10136
1.1053
1.87744
1.10229
1.12899
2.01581
1.19427
1.233
1.25509
2.1969
1.29409
1.32657
2.37779
1.40291
1.44375
1.47205
2.63
1.52935
1.55906
1.57584
2.78625
1.60091
1.61776
2.86707
1.64525
1.66107
1.66754
2.92924
1.67133
1.67858
2.9506
1.68645
1.69372
1.6942
2.96389
1.69713
1.70396
1.70387
2.97707
1.70628
1.71138
3.00637
1.72339
1.72996
1.72494
2.99014
1.72478
1.73673
1.73632
3.04899
1.7338
1.73943
3.08527
1.73719
1.73633
1.72436
3.00236
1.65289
1.62832
2.77723
1.48536
1.44119
1.38464
2.2637
1.18719
1.15188
1.13477
2.04426
1.16812
1.20902
2.30237
1.3408
1.395
0.0901533
0.096466
0.0962508
0.155672
0.130765
0.130754
0.122021
0.117508
0.109286
0.098865
0.0895953
0.0793907
0.13203
0.0879555
0.0881488
0.072052
0.0646771
0.0579074
0.0564257
0.0545192
0.0508618
0.0695027
0.0507383
0.053818
0.0524764
0.0521091
0.0505019
0.0492327
0.0516471
0.0527062
0.0559176
0.0503634
0.0534259
0.0548055
0.0577304
0.0597944
0.0642052
0.0691823
0.0745175
0.0790477
0.0655471
0.0732078
0.0738151
0.0766755
0.0753135
0.0751003
0.0732745
0.0715853
0.0678396
0.0605095
0.0648293
0.063183
0.0627958
0.0623456
0.0634745
0.0648445
0.0681398
0.0731037
0.0855912
0.0973584
0.102766
0.109709
0.118728
0.130129
0.145468
0.158747
0.171365
0.188846
0.224216
0.246595
0.261226
0.293062
0.294468
0.297357
0.292787
0.257055
0.25999
0.56051
0.135663
0.0978592
0.871686
1.16103
1.05018
0.672209
1.08035
0.679942
1.1002
1.11749
0.695441
1.11744
1.11861
0.688925
1.08698
0.674816
1.07736
1.06919
0.652706
1.02086
0.630192
0.992718
0.980853
0.610362
0.964643
0.956387
0.586678
0.905437
0.564946
0.885747
0.878334
0.540393
0.82407
0.514168
0.796274
0.790737
0.50193
0.775239
0.783807
0.497681
0.746104
0.477953
0.735826
0.769359
0.503282
0.785286
0.490421
0.749973
0.745266
0.472155
0.732133
0.731899
0.488497
0.800897
0.510294
0.80875
0.807806
0.521159
0.858119
0.545056
0.873244
0.884971
0.557502
0.886397
0.896026
0.566397
0.926938
0.587722
0.938883
0.954869
0.604594
0.985796
0.628039
1.00413
1.01994
0.647811
1.03383
1.04745
0.659807
1.07038
0.674418
1.07881
0.0109172
0.0121829
0.010564
0.00746625
0.00168616
0.00232968
0.00184919
0.00116405
0.000817465
0.00100617
0.00143463
0.00554116
0.00206585
0.00280551
0.0032218
0.00127827
0.00214674
0.00669742
0.00404743
0.0193479
0.0136113
0.0140021
0.00568308
0.00187586
0.00537113
0.00154502
0.00501097
0.00586428
0.0033087
0.00346584
0.00319939
0.00673269
0.00626539
0.00561787
0.00453014
0.00467329
0.00339027
0.00302353
0.00271822
0.00254648
0.00714264
0.0194232
0.0210365
0.0136397
0.0131822
0.0145631
0.0131086
0.00602028
0.00281577
0.0141449
0.0169685
0.0161755
0.0160056
0.0477005
0.139202
0.198182
0.240458
0.217743
0.129131
0.0939661
0.114652
0.0843069
0.0716048
0.0790762
0.0849471
0.0617007
0.0356035
0.0154034
0.0107442
0.0238596
0.029488
0.00404193
0.00358225
0.00849981
0.0116267
0.00496344
0.00618215
0.00981468
0.0262049
0.0129883
0.0178601
0.0173419
0.0133904
0.00258897
0.00304358
0.00238641
0.00126835
0.00116727
0.00131085
0.00275793
0.00690761
0.00245697
0.00249705
0.00221914
0.000756117
0.00154327
0.00596456
0.00504833
0.0185405
0.0158961
0.014947
0.00828001
0.00249116
0.00415819
0.00218607
0.00466243
0.00445723
0.00289937
0.00328636
0.00400591
0.0090405
0.00661294
0.00416579
0.00323714
0.00332949
0.00269522
0.00254862
0.00265348
0.00380046
0.00891881
0.0189173
0.0194448
0.0134604
0.0133734
0.0149939
0.0130596
0.0053432
0.0058559
0.0476354
0.0293661
0.0184212
0.0195886
0.0494907
0.131065
0.184128
0.225782
0.206835
0.125874
0.10026
0.112866
0.0919434
0.0968503
0.103918
0.106638
0.0902277
0.044946
0.0186672
0.0061787
0.0224206
0.0681544
0.00386139
0.00391536
0.00697948
0.0121888
0.00505154
0.00671383
0.0100316
0.0164271
0.0129031
0.016243
0.015419
0.0119859
0.00537051
0.00314276
0.00263577
0.00267894
0.00654711
0.00374971
0.0062147
0.015007
0.00341718
0.0036242
0.00762615
0.00266833
0.00193245
0.00555462
0.00620153
0.0240597
0.0112596
0.0129963
0.0107106
0.00464311
0.00457079
0.00225082
0.00436014
0.00341985
0.00261927
0.00269234
0.00391115
0.0101632
0.00767158
0.00385787
0.00298851
0.00304861
0.00287221
0.00286445
0.00332298
0.00555744
0.0108433
0.0189034
0.0185391
0.0135755
0.0139266
0.015706
0.014553
0.00703654
0.0306101
0.0378495
0.0497848
0.0246236
0.0248772
0.0540351
0.131481
0.181419
0.220677
0.200512
0.125871
0.101783
0.106956
0.0898527
0.0988578
0.119348
0.124036
0.0987719
0.0574902
0.0271031
0.00986862
0.0216379
0.0583092
0.00342771
0.00663524
0.00638011
0.0102084
0.00914427
0.0111117
0.00887624
0.0191944
0.0141072
0.0181591
0.0180024
0.0133112
0.00645485
0.00321001
0.00247056
0.0021113
0.00337843
0.0101268
0.0122331
0.00609079
0.00422728
0.00422797
0.00790698
0.00247753
0.00316196
0.0043902
0.00677904
0.0183048
0.00934011
0.0109064
0.011716
0.0046296
0.00314623
0.00206078
0.00385432
0.0038789
0.0035885
0.00475526
0.00720126
0.0162545
0.00797091
0.00430486
0.00339907
0.00349489
0.00344449
0.00351792
0.00454383
0.00739276
0.0126976
0.0187018
0.0177326
0.0137461
0.014084
0.0163688
0.012297
0.00795457
0.0235876
0.00522493
0.0633956
0.0331422
0.031481
0.0590111
0.134687
0.18364
0.219281
0.188846
0.119026
0.100086
0.101376
0.0900833
0.113576
0.135707
0.150036
0.134972
0.0736294
0.033003
0.0130891
0.0214446
0.0499999
0.00315561
0.00447725
0.00690928
0.0106566
0.0157742
0.019245
0.0148249
0.0363099
0.0139127
0.0171207
0.0174807
0.0126839
0.00670837
0.00395141
0.00295849
0.00274624
0.00343358
0.00971836
0.00810411
0.000935278
0.00485986
0.00319671
0.0024541
0.00240743
0.00306143
0.00363304
0.00831119
0.020198
0.00882692
0.0117739
0.0133673
0.00528141
0.00304912
0.00215624
0.00375037
0.00422878
0.0041881
0.00579375
0.00830739
0.0155183
0.00872119
0.00496774
0.00450265
0.0047479
0.0045313
0.00452658
0.00585419
0.009073
0.0141972
0.0186053
0.0170712
0.0139185
0.0146194
0.0159059
0.0130761
0.0087778
0.0351833
0.0103632
0.0805816
0.040412
0.0392457
0.065949
0.138792
0.184435
0.205549
0.177216
0.119136
0.100778
0.0974977
0.0987712
0.128574
0.150563
0.16925
0.157899
0.105131
0.0461684
0.0135901
0.00463315
0.0221044
0.00184331
0.00375062
0.00457086
0.010113
0.0206418
0.0266537
0.0147797
0.0741272
0.0127101
0.0146578
0.0141787
0.00846057
0.00642624
0.0047005
0.003961
0.00369999
0.00422588
0.00299201
0.00194153
0.00690717
0.00624636
0.00354247
0.00157776
0.00217821
0.00243776
0.0034103
0.0153163
0.0247998
0.0105713
0.0123673
0.014025
0.00644781
0.00342862
0.00275676
0.00397781
0.00503201
0.00570593
0.00745399
0.00999862
0.0126462
0.00895134
0.00644542
0.00628302
0.00636564
0.00551655
0.00552334
0.00728467
0.010679
0.0153247
0.0184088
0.0165923
0.0142378
0.0155979
0.01824
0.0134439
0.00985446
0.0328701
0.0728048
0.100627
0.0497635
0.0491718
0.0735235
0.143101
0.187843
0.202862
0.169177
0.116581
0.0995281
0.0905179
0.107581
0.146626
0.166331
0.194054
0.179964
0.11106
0.0537171
0.0191308
0.00585963
0.0226302
0.00174722
0.00248354
0.00519063
0.00994491
0.0237701
0.0317535
0.0146463
0.128198
0.0111771
0.012228
0.0100043
0.00707863
0.00647487
0.00487279
0.00428353
0.00425643
0.00453764
0.00424356
0.00457375
0.0123048
0.007972
0.00466622
0.00212614
0.00209823
0.00235577
0.00437257
0.027854
0.028943
0.0132767
0.0138574
0.0173295
0.00815027
0.00457575
0.00367851
0.00441664
0.00586938
0.00697163
0.00930296
0.0113262
0.0130611
0.0106143
0.0080452
0.00834524
0.00785291
0.00672764
0.00682022
0.00880887
0.0123042
0.0163865
0.0182633
0.0162366
0.0144407
0.0155134
0.0161984
0.0134615
0.0110543
0.0400507
0.118791
0.130744
0.0623398
0.0611617
0.0822379
0.146948
0.1899
0.202874
0.159548
0.112995
0.0972967
0.0843075
0.11369
0.160816
0.187641
0.213282
0.214432
0.133288
0.0643883
0.0235103
0.0108317
0.0198058
0.00707903
0.00166088
0.0046323
0.00895129
0.0268349
0.0290423
0.0153903
0.165843
0.00947493
0.00968246
0.00786751
0.00677046
0.00634631
0.00503376
0.00468825
0.00448558
0.00485754
0.00716059
0.00917049
0.0134236
0.00819588
0.00513454
0.00205404
0.00183753
0.00196823
0.00385969
0.0351092
0.030274
0.0148938
0.015277
0.0178784
0.0108075
0.00620624
0.00468867
0.00517829
0.00672899
0.00853059
0.0112239
0.0139512
0.0149966
0.0117797
0.0106444
0.0101063
0.00913416
0.0077444
0.00820279
0.0105343
0.0138649
0.0171392
0.0182125
0.0160882
0.0148466
0.0169932
0.0187043
0.0139619
0.0127662
0.0576051
0.137569
0.160395
0.0797563
0.0762833
0.0915743
0.151098
0.189361
0.189869
0.146642
0.108038
0.0877933
0.0798423
0.121869
0.177181
0.216201
0.255664
0.243925
0.180639
0.0804366
0.0308388
0.0106309
0.0128057
0.0223588
0.00107108
0.00474008
0.00937228
0.0271954
0.0251446
0.0164691
0.194823
0.0088071
0.00885369
0.00887115
0.00751234
0.00573007
0.00516004
0.00566142
0.0049191
0.00512081
0.00579146
0.00729782
0.0081422
0.00640754
0.00511348
0.0022011
0.0018845
0.00201833
0.00414859
0.0459882
0.0319084
0.0170425
0.0159032
0.0188495
0.0127172
0.0079682
0.00598657
0.00637293
0.00796511
0.010421
0.0132303
0.0153096
0.0141621
0.0121742
0.0123944
0.0113273
0.0100059
0.00867512
0.00995586
0.012512
0.0156369
0.0181535
0.0183783
0.0161393
0.0154149
0.0167541
0.0197887
0.0103262
0.0137321
0.106609
0.1302
0.192421
0.101281
0.09202
0.10285
0.156353
0.188906
0.185647
0.131467
0.102109
0.0798533
0.077591
0.134118
0.191468
0.243241
0.290603
0.297237
0.211087
0.12016
0.0447638
0.0131172
0.00383526
0.0151014
0.000714742
0.00448916
0.00888786
0.0265226
0.0235754
0.0172983
0.255147
0.00843932
0.00891463
0.00897237
0.00760257
0.00650519
0.00612757
0.00674659
0.00597809
0.00571912
0.00563601
0.0058671
0.00599189
0.00529471
0.00346249
0.0021395
0.00180545
0.0023804
0.00529506
0.0563452
0.0322886
0.019314
0.0172842
0.0165301
0.0119131
0.00894932
0.00848704
0.00798902
0.00965738
0.0124795
0.0151552
0.0158315
0.0140458
0.0126287
0.0122323
0.0118731
0.0105781
0.0097469
0.0118086
0.0147375
0.0175847
0.0192372
0.018823
0.0164045
0.0156046
0.0172843
0.0148942
0.00529379
0.0161065
0.166329
0.138757
0.226997
0.125619
0.110455
0.11605
0.161697
0.180967
0.165226
0.121105
0.0957716
0.0735303
0.0840869
0.14998
0.216536
0.287077
0.330619
0.322014
0.231628
0.128804
0.0620021
0.0203917
0.00959346
0.0174987
0.000693339
0.00456097
0.0107786
0.0264096
0.0237737
0.0176345
0.28715
0.00873508
0.0101992
0.0103524
0.00975947
0.00784159
0.00660011
0.00675332
0.00746437
0.00669713
0.0061752
0.00571285
0.00525027
0.00421743
0.00301342
0.00224275
0.00221733
0.00315869
0.00924412
0.0540664
0.0287436
0.0189416
0.0174191
0.0159177
0.0135832
0.00981133
0.0105843
0.00934853
0.0108928
0.0142076
0.015814
0.0143669
0.0130428
0.0121923
0.0126081
0.0114188
0.0112385
0.0114381
0.0137833
0.0171337
0.0198315
0.0206404
0.019415
0.0169149
0.0170881
0.0185021
0.0149239
0.00518857
0.0244314
0.247004
0.156663
0.253849
0.152552
0.129183
0.132045
0.167201
0.177122
0.161416
0.115964
0.0898026
0.0728605
0.0920244
0.170944
0.248439
0.320958
0.363413
0.351257
0.283424
0.154662
0.0649
0.0231277
0.0116661
0.00683642
0.000412496
0.00244818
0.00525142
0.021909
0.0239405
0.017907
0.295606
0.00936696
0.0115201
0.0125333
0.011435
0.0100109
0.00991226
0.00950899
0.00828403
0.00804486
0.00709392
0.00620571
0.00521043
0.00414212
0.00314615
0.00276989
0.00318179
0.00475364
0.0148082
0.05016
0.0246625
0.0179251
0.0160157
0.012934
0.011589
0.0109861
0.00964667
0.0104004
0.0125281
0.0150293
0.0150419
0.0136082
0.0127712
0.0119308
0.0125844
0.0117291
0.0119761
0.0130917
0.0160444
0.0199144
0.0221811
0.0221791
0.0201706
0.0177595
0.0177363
0.0186893
0.0154265
0.00919838
0.0318839
0.262701
0.218424
0.273685
0.177873
0.149353
0.148897
0.171248
0.173441
0.158286
0.112993
0.0845094
0.0731844
0.103864
0.197301
0.287113
0.348601
0.3875
0.365877
0.295551
0.160286
0.0775009
0.0320135
0.00997652
0.00643049
0.0004729
0.00242438
0.00550802
0.0189244
0.0233918
0.0180572
0.329466
0.0100596
0.0133615
0.0137527
0.0132258
0.0117938
0.0109151
0.0104189
0.00944929
0.00895516
0.00809814
0.0069147
0.00576644
0.00452839
0.00375345
0.00362568
0.00414006
0.00683515
0.0177301
0.0403496
0.0200743
0.0152005
0.0136865
0.0111652
0.0105716
0.0102831
0.00924827
0.0103957
0.0126099
0.014012
0.0132841
0.0121152
0.0118856
0.0113953
0.011652
0.012204
0.0132732
0.0152946
0.0187417
0.0223873
0.0241168
0.0233871
0.0210831
0.0190964
0.0200853
0.0215259
0.01594
0.0165434
0.0366083
0.104871
0.290633
0.288977
0.205422
0.172495
0.167012
0.175728
0.170839
0.15588
0.115867
0.0870632
0.0745282
0.116515
0.205714
0.281991
0.338262
0.385172
0.386027
0.317823
0.191582
0.101579
0.0362823
0.0152249
0.0083462
0.00103519
0.00382627
0.00645619
0.0185627
0.0226921
0.0181736
0.328652
0.0115524
0.0138675
0.015243
0.0140347
0.0129384
0.0120999
0.0113366
0.010485
0.00994119
0.00905903
0.00779609
0.00659286
0.00548224
0.00481669
0.00502429
0.00634014
0.010315
0.0219501
0.0282656
0.016823
0.0133776
0.0115086
0.00936635
0.00862957
0.00878914
0.00949737
0.0112563
0.012864
0.0131523
0.0122197
0.0112987
0.0110193
0.0111664
0.0122123
0.0134657
0.0153813
0.0176369
0.0212199
0.024761
0.026121
0.0248951
0.0222461
0.0204773
0.0206168
0.0204376
0.0136858
0.0140323
0.0473828
0.0188385
0.334652
0.296928
0.224381
0.196305
0.183618
0.179276
0.16953
0.153736
0.116852
0.0833724
0.0776572
0.133644
0.227173
0.286368
0.339119
0.403849
0.378883
0.326523
0.223389
0.105218
0.0403506
0.0193857
0.0147296
0.00329745
0.00204032
0.00641075
0.0144785
0.0214239
0.0179668
0.332191
0.0133553
0.0159784
0.015341
0.0156552
0.0133607
0.0120563
0.0112724
0.0106327
0.0103168
0.00951369
0.00847777
0.00752485
0.00671598
0.00632187
0.00674967
0.00934784
0.0141563
0.0234452
0.0227123
0.0133787
0.0106281
0.00843468
0.00750315
0.00709403
0.00777614
0.0089773
0.0100798
0.0117275
0.0119416
0.011602
0.010996
0.0111491
0.0117812
0.013356
0.0154065
0.0173058
0.0199308
0.0237443
0.0270585
0.0280509
0.0265466
0.023794
0.022635
0.0229226
0.0207501
0.0102895
0.0229179
0.0729028
0.0259496
0.338733
0.300726
0.240193
0.223796
0.200967
0.184075
0.169464
0.151937
0.121598
0.082532
0.0822222
0.143467
0.23543
0.288008
0.335532
0.379154
0.384928
0.322907
0.220196
0.109309
0.0452497
0.0201598
0.0121028
0.012887
0.00135737
0.004234
0.0121514
0.020132
0.0177654
0.30797
0.0149768
0.0172378
0.017066
0.0167501
0.015218
0.0133921
0.0123993
0.0112294
0.0102175
0.010067
0.00960289
0.00896036
0.00832212
0.00823121
0.00983918
0.0147677
0.0196932
0.0270484
0.0239768
0.0128232
0.0105162
0.00794318
0.00673146
0.00620474
0.0071776
0.00822005
0.00968526
0.0108368
0.0112849
0.0111757
0.0110195
0.0117989
0.0129483
0.0149255
0.0170142
0.0191596
0.0222247
0.0260245
0.0293198
0.030512
0.0284776
0.0256989
0.0246502
0.0238998
0.0182991
0.00671768
0.0290961
0.127605
0.0557067
0.356295
0.29375
0.257999
0.244963
0.214326
0.187088
0.168489
0.151879
0.1137
0.0860601
0.0897675
0.164874
0.238069
0.280423
0.322822
0.374857
0.370196
0.315898
0.237521
0.144288
0.0493523
0.0224543
0.0129751
0.0227369
0.00260028
0.00552729
0.0108387
0.0194966
0.0178205
0.302715
0.0164724
0.0190597
0.0187394
0.0176836
0.0162073
0.0147269
0.0133591
0.0124841
0.0117228
0.0110657
0.0108001
0.0103671
0.010172
0.0108032
0.0134993
0.0193218
0.0232742
0.0284142
0.0255828
0.0131811
0.0110569
0.0080492
0.00702097
0.00645854
0.00676628
0.00806055
0.00933825
0.0107286
0.0106891
0.011113
0.0112993
0.0124404
0.0139602
0.0162257
0.0183819
0.0208793
0.0241405
0.028416
0.0320424
0.0329096
0.030535
0.0279733
0.0269329
0.026678
0.0187141
0.00882401
0.0398729
0.157424
0.0636883
0.310865
0.293839
0.26299
0.268146
0.224818
0.186686
0.16569
0.139608
0.109941
0.0838204
0.0972535
0.169958
0.234694
0.266927
0.305669
0.345138
0.347912
0.299338
0.246664
0.147546
0.0545934
0.021415
0.0125054
0.0139753
0.0034106
0.00741365
0.0100304
0.0181648
0.0177585
0.316434
0.0177773
0.0200557
0.0197929
0.0189276
0.017053
0.0152813
0.0141859
0.0128417
0.0123406
0.0119004
0.0116796
0.0116963
0.0123216
0.0144144
0.0191793
0.0241444
0.0282975
0.0301712
0.0257479
0.0139615
0.0111379
0.00898901
0.00698519
0.00624923
0.00721638
0.00798052
0.00935422
0.0100415
0.0103717
0.0108878
0.0113565
0.012851
0.0148358
0.0171411
0.0195395
0.0222125
0.0260368
0.0308062
0.0345811
0.0351553
0.0328324
0.0303507
0.0297563
0.028253
0.0204183
0.0136182
0.0486933
0.0918338
0.0840728
0.248659
0.27961
0.267539
0.284172
0.230127
0.183626
0.160173
0.134198
0.108971
0.0920278
0.108513
0.189221
0.226843
0.251448
0.286858
0.323306
0.327413
0.285266
0.233212
0.161711
0.0642114
0.022905
0.0121118
0.0105195
0.00231904
0.00560514
0.00874977
0.0169817
0.0176763
0.309176
0.0192519
0.0205007
0.02045
0.0194885
0.0177929
0.0161905
0.0146464
0.0130837
0.0127345
0.0124214
0.0124472
0.0133101
0.0150382
0.0180267
0.023073
0.0291065
0.0341096
0.0334132
0.0278183
0.0162238
0.0128891
0.0102209
0.00768867
0.00680194
0.007994
0.00839211
0.00928231
0.0095559
0.0101259
0.0106387
0.0114746
0.0133385
0.0153607
0.0178481
0.0201963
0.0233238
0.0279849
0.0330316
0.0368271
0.0372467
0.0350838
0.0334141
0.0334753
0.0320158
0.0197704
0.0222204
0.0563133
0.0132734
0.109094
0.23034
0.27266
0.281
0.299841
0.232642
0.177888
0.154588
0.128118
0.105275
0.0879069
0.118889
0.186283
0.217769
0.23599
0.268136
0.299617
0.307095
0.271688
0.223603
0.171574
0.0862242
0.0257744
0.0117491
0.00788408
0.00201924
0.00333194
0.00753903
0.0157747
0.0173954
0.309182
0.0203957
0.0214041
0.0207835
0.0202341
0.01877
0.0169039
0.0155005
0.0137183
0.0125496
0.0127853
0.0129664
0.0145063
0.0160108
0.0194157
0.0240344
0.029215
0.0328104
0.0320403
0.0270201
0.0186088
0.0149443
0.0112353
0.00931662
0.00831531
0.00853555
0.00856786
0.00882805
0.00922818
0.00976866
0.0104145
0.0115999
0.0134855
0.0157178
0.0180738
0.0207087
0.0246629
0.0297465
0.0349812
0.0387762
0.0390288
0.0372534
0.0350987
0.0327088
0.0255158
0.0142233
0.0215108
0.0663089
0.00529083
0.113288
0.219466
0.269292
0.28787
0.304643
0.228728
0.171815
0.14557
0.124686
0.106221
0.090706
0.129151
0.2003
0.207651
0.220852
0.250415
0.280141
0.289941
0.261058
0.213594
0.169725
0.0895218
0.0295208
0.0110401
0.00659275
0.00181642
0.00279567
0.00636041
0.014809
0.01686
0.325161
0.0214531
0.0219141
0.0215983
0.0210883
0.019566
0.0178773
0.0160676
0.0142544
0.01298
0.0127927
0.013974
0.0143282
0.0168381
0.0193489
0.0237597
0.0282518
0.0301765
0.0299206
0.0261447
0.0191945
0.0149827
0.0118997
0.00979774
0.00882073
0.0085256
0.008477
0.00846547
0.00883798
0.00931727
0.0101651
0.011523
0.0135109
0.0157649
0.0182229
0.0213578
0.0258836
0.0312271
0.0366808
0.0403287
0.0403864
0.0395455
0.0383325
0.0379977
0.0291957
0.00790966
0.0289027
0.0919086
0.0151783
0.106589
0.210388
0.268773
0.296497
0.303783
0.220893
0.161602
0.136357
0.120272
0.108872
0.0992901
0.137657
0.204342
0.19696
0.20923
0.236703
0.252262
0.272747
0.252736
0.210262
0.166153
0.0999382
0.0302363
0.0118372
0.00552395
0.00227762
0.00245647
0.00503651
0.0123846
0.0161548
0.327245
0.0226716
0.0234961
0.022197
0.0214818
0.0208238
0.01864
0.0171955
0.0153993
0.0140052
0.0135173
0.0145741
0.0152675
0.0158833
0.01755
0.0204546
0.0234393
0.0278399
0.0287798
0.0263513
0.019795
0.015294
0.012045
0.00986171
0.00882677
0.00831809
0.00824385
0.00817224
0.00848611
0.00906057
0.00999583
0.0114816
0.0135368
0.0158363
0.0184654
0.0220157
0.0268705
0.0324675
0.0380605
0.0414344
0.0410991
0.0415591
0.0406136
0.034797
0.0165182
0.00774029
0.0382564
0.118399
0.0166406
0.100778
0.20049
0.259886
0.298612
0.29715
0.206436
0.150216
0.127445
0.111869
0.102038
0.105953
0.156471
0.209964
0.193268
0.212194
0.2346
0.24027
0.256262
0.246783
0.208273
0.163203
0.110955
0.0376647
0.0120656
0.0043989
0.00637206
0.00298952
0.00467705
0.0113349
0.0153055
0.328182
0.0231613
0.0239586
0.0229192
0.022182
0.0211225
0.0194859
0.0181216
0.016728
0.0154267
0.0146203
0.0147675
0.0164738
0.0168416
0.0183124
0.0206775
0.0240199
0.0293136
0.0291237
0.0247381
0.019474
0.0149551
0.0118741
0.00975988
0.00882879
0.00823216
0.00814104
0.00803141
0.00826295
0.00886538
0.00996261
0.0115831
0.0136894
0.0159344
0.0187461
0.0225492
0.0276447
0.0333467
0.0388527
0.0416942
0.0410732
0.0423512
0.0395205
0.0299925
0.0203555
0.0128908
0.0427703
0.0866466
0.0194803
0.0981321
0.187128
0.246067
0.292802
0.271938
0.18996
0.137216
0.114281
0.103297
0.104271
0.11265
0.150526
0.21256
0.194579
0.217877
0.242576
0.239846
0.244825
0.242543
0.210425
0.163527
0.121044
0.0502649
0.0133925
0.00377174
0.00369584
0.0020781
0.00441399
0.0108323
0.0146214
0.315844
0.0234329
0.0238412
0.0230569
0.0224449
0.0213314
0.0199968
0.0186952
0.0176356
0.0166833
0.0162475
0.0170199
0.0183254
0.0187001
0.0197386
0.0209776
0.0232496
0.0256008
0.0256166
0.0230888
0.0182886
0.0143698
0.0112077
0.00951996
0.00861907
0.00809736
0.00795961
0.00788072
0.00820259
0.00885004
0.0100154
0.0116576
0.01372
0.0161081
0.019011
0.0229407
0.0282033
0.0338385
0.0388267
0.041266
0.0416839
0.0426879
0.0410681
0.0325672
0.0139376
0.0229472
0.049158
0.0295656
0.0233843
0.0909006
0.169999
0.225416
0.275579
0.245836
0.166747
0.120746
0.100933
0.0937395
0.101197
0.113639
0.162875
0.194498
0.202129
0.237473
0.26706
0.247305
0.247752
0.239292
0.215525
0.169335
0.12487
0.0748179
0.0209445
0.0046208
0.00244656
0.0016505
0.00457953
0.00902523
0.0138456
0.34169
0.024405
0.0242478
0.022781
0.0218493
0.0215234
0.0200607
0.0191123
0.0181834
0.0174214
0.0173678
0.0182856
0.018846
0.0190519
0.0191928
0.0191689
0.0218807
0.023469
0.0223315
0.0203135
0.0164658
0.013262
0.010839
0.00924859
0.00857767
0.00807276
0.00804049
0.00796304
0.00825127
0.00896368
0.0101133
0.0117452
0.013841
0.0161741
0.019197
0.0232082
0.0284868
0.0336285
0.0379578
0.0406743
0.0414846
0.0413395
0.0382368
0.0213165
0.00968763
0.0214553
0.0461942
0.00856321
0.0229555
0.0825434
0.15177
0.207189
0.255427
0.219538
0.146755
0.104632
0.0858385
0.0867383
0.0992747
0.111562
0.151024
0.181838
0.216506
0.250467
0.283548
0.269312
0.263035
0.249321
0.223274
0.177253
0.129568
0.0835039
0.0263526
0.00490812
0.00184407
0.00184632
0.00301152
0.00803146
0.0132683
0.348568
0.0251425
0.0253698
0.0236857
0.0225021
0.0211583
0.0201236
0.0191925
0.0183553
0.0176407
0.0175921
0.0183102
0.018852
0.0189644
0.019597
0.0195272
0.0211551
0.0213889
0.0214575
0.0184724
0.015298
0.012383
0.0102776
0.00899598
0.00839593
0.00800579
0.00792885
0.00789133
0.00823554
0.00902413
0.0102485
0.011921
0.0139213
0.0162255
0.0193718
0.0232871
0.0283916
0.0330427
0.0372636
0.0401432
0.0407351
0.0399964
0.0344645
0.0156893
0.00602536
0.0292222
0.0500116
0.0060403
0.0214472
0.0737831
0.1297
0.186071
0.235087
0.187216
0.127029
0.0894318
0.074494
0.0832731
0.0978619
0.11527
0.15573
0.188063
0.212193
0.280688
0.322667
0.305069
0.287912
0.268775
0.236114
0.189544
0.136275
0.0996335
0.0357026
0.00803454
0.00176578
0.0054
0.00362528
0.00765066
0.0128898
0.328453
0.0254114
0.0254746
0.0240649
0.0230935
0.0217183
0.0203483
0.0192208
0.0182416
0.0176779
0.017527
0.0181975
0.0186692
0.0188202
0.0193611
0.0192912
0.0202064
0.0197943
0.01943
0.0169845
0.0138477
0.0116343
0.00996185
0.00884405
0.0083732
0.00795062
0.00784203
0.00782911
0.00824628
0.00907769
0.0103507
0.0119451
0.0139717
0.0162874
0.0194217
0.0231978
0.0280275
0.0322984
0.0364178
0.038973
0.0388924
0.038865
0.0317672
0.0158469
0.00540213
0.0278656
0.0516972
0.006509
0.0201422
0.0647475
0.109177
0.16643
0.205206
0.172497
0.108628
0.077952
0.0649082
0.0752797
0.0971989
0.12241
0.17318
0.200105
0.229015
0.32656
0.385923
0.35321
0.334378
0.295334
0.263602
0.205654
0.147178
0.110072
0.0456167
0.00954251
0.00220105
0.00159298
0.00395811
0.00730119
0.0124253
0.335308
0.0253724
0.0251939
0.0239832
0.0232182
0.0217901
0.020503
0.0191494
0.0181613
0.0174315
0.0172413
0.0176796
0.0181255
0.0182955
0.0186604
0.0188838
0.0189836
0.0186684
0.0176433
0.0151586
0.0128083
0.011066
0.00971811
0.00880171
0.00833276
0.0079204
0.00779531
0.00784003
0.00832042
0.00920916
0.0105156
0.0121274
0.0141492
0.0162702
0.0193668
0.0228869
0.0274492
0.031423
0.0351402
0.03709
0.0364152
0.0373307
0.0273697
0.0136749
0.0060125
0.0237345
0.0412223
0.00712308
0.0196611
0.0554386
0.090337
0.147755
0.182698
0.152503
0.0948318
0.0672693
0.05729
0.0658849
0.0978017
0.134002
0.159183
0.205558
0.253246
0.396643
0.48503
0.42045
0.399958
0.335707
0.295598
0.229007
0.16335
0.120683
0.0755684
0.0152003
0.00253068
0.00098859
0.003204
0.00622579
0.0121877
0.330217
0.0254388
0.0250168
0.0238055
0.0227653
0.0218116
0.0204179
0.0191534
0.0179809
0.0173838
0.0168691
0.0169809
0.0172758
0.017328
0.0171019
0.0172705
0.0172196
0.0167304
0.0158202
0.0141276
0.0120185
0.0106655
0.00955102
0.00872617
0.00829518
0.00785396
0.00778189
0.00785939
0.00839566
0.00930766
0.0106504
0.0122358
0.0141129
0.0162778
0.0192345
0.0224858
0.0267031
0.0303456
0.0333996
0.0344535
0.0328537
0.0327713
0.0217289
0.0061379
0.00572606
0.0220858
0.0266315
0.00785954
0.0194672
0.0479318
0.0760128
0.130834
0.159927
0.132438
0.0830401
0.0607596
0.052027
0.0602929
0.094465
0.126413
0.160447
0.185939
0.28353
0.501277
0.623151
0.505469
0.483958
0.40953
0.336963
0.264432
0.183309
0.133123
0.0928754
0.0329471
0.00392106
0.00140408
0.00195687
0.00537742
0.0120954
0.335146
0.0259055
0.0252335
0.0236137
0.0223234
0.021193
0.0200159
0.018905
0.0177793
0.0171374
0.0167017
0.016538
0.016679
0.0165929
0.016296
0.0162392
0.0160755
0.0155461
0.0147012
0.0132866
0.0117343
0.0104309
0.00953676
0.00871994
0.00824917
0.0078543
0.00775244
0.00786791
0.00842737
0.00935933
0.0106562
0.0121703
0.0140686
0.016147
0.0188594
0.0217306
0.0255341
0.0286581
0.0312731
0.0318579
0.029237
0.0282576
0.0109724
0.00505833
0.00484507
0.0211378
0.0237238
0.00927127
0.0192396
0.0405313
0.0647527
0.115944
0.139995
0.11691
0.0754223
0.0541519
0.0475119
0.0547079
0.0915395
0.130483
0.162513
0.211551
0.317859
0.59088
0.732372
0.600261
0.594619
0.510249
0.394058
0.31077
0.210339
0.147169
0.113489
0.0423104
0.0062443
0.00151881
0.00154226
0.00472925
0.0121256
0.315526
0.0267639
0.0257972
0.023953
0.0224444
0.0211367
0.0197608
0.0185856
0.0175703
0.0168206
0.0163838
0.0160121
0.0160247
0.0157906
0.0156862
0.0154265
0.0153171
0.0149745
0.0140989
0.0129123
0.0116229
0.0104989
0.00954733
0.00872993
0.00816451
0.00779059
0.00765782
0.00781521
0.00836899
0.00925095
0.0104597
0.0119053
0.0136061
0.0155485
0.0179624
0.0204759
0.0237386
0.0267196
0.0292046
0.0293989
0.0254035
0.0159839
0.00720774
0.00149356
0.00434349
0.0186518
0.00522206
0.00980409
0.0184594
0.0353963
0.057504
0.102079
0.120714
0.103506
0.0684205
0.0512118
0.0447027
0.0512183
0.0933532
0.145083
0.204787
0.234777
0.349152
0.721199
0.892622
0.71228
0.718489
0.653258
0.484037
0.364136
0.246138
0.165702
0.135009
0.0627793
0.0112421
0.00184375
0.001354
0.00430429
0.0122325
0.307693
0.0275458
0.0264116
0.0242671
0.0225816
0.0211391
0.0196932
0.018672
0.0176076
0.0167315
0.0160389
0.0155986
0.0152255
0.0150137
0.0148953
0.0148807
0.0148243
0.0146148
0.0138977
0.0129103
0.0117055
0.010603
0.00959086
0.00874237
0.00812241
0.00769954
0.0075299
0.00763856
0.00809226
0.00882835
0.00990566
0.0112288
0.0128452
0.0145694
0.0165757
0.0185524
0.0210774
0.0237199
0.0265269
0.026837
0.0231594
0.0152733
0.00634558
0.000754207
0.00224987
0.010958
0.000863252
0.0101009
0.0180078
0.0307564
0.0506857
0.0900965
0.106221
0.0937704
0.0641402
0.0471484
0.0413347
0.0533612
0.0930566
0.146478