/*--------------------------------*- C++ -*----------------------------------*\
| =========                 |                                                 |
| \\      /  F ield         | OpenFOAM: The Open Source CFD Toolbox           |
|  \\    /   O peration     | Version:  4.1                                   |
|   \\  /    A nd           | Web:      www.OpenFOAM.org                      |
|    \\/     M anipulation  |                                                 |
\*---------------------------------------------------------------------------*/
FoamFile
{
    version     2.0;
    format      ascii;
    class       volScalarField;
    location    "6";
    object      p;
}
// * * * * * * * * * * * * * * * * * * * * * * * * * * * * * * * * * * * * * //

dimensions      [0 2 -2 0 0 0 0];

internalField   nonuniform List<scalar> 
6785
(
578.932
501.155
454.742
401.884
355.607
310.967
269.319
229.802
192.351
156.857
122.673
89.4581
60.8912
31.4405
-10.0573
-19.2265
-37.1275
-26.9534
-34.0245
-33.1093
-35.4051
-35.8106
-36.1384
-35.4782
-33.9187
-31.2697
-27.5865
-22.2035
-16.2259
-14.0899
-9.66361
-15.3026
-7.22662
-12.9999
-10.3986
-12.7845
-13.2223
-14.9038
-16.3559
-18.143
-19.7932
-20.563
-20.9559
-21.8496
-22.442
-18.9704
-23.1883
-21.5324
-27.6696
-27.6445
-32.1749
-34.1502
-37.4795
-40.1053
-42.8356
-44.9987
-46.1141
-46.3065
-46.647
-45.4415
-32.8722
-34.9831
-32.0824
-35.0207
-31.9808
-33.5628
-31.9858
-31.9589
-31.079
-30.4024
-29.3967
-28.2978
-26.3972
-24.8784
-21.9823
-8.75115
-8.61663
-5.19528
-6.24124
-2.59195
-2.63401
-0.159069
1.04976
2.87601
4.51644
6.31642
7.96354
9.87875
11.2112
13.3959
12.9596
13.8051
16.4868
15.768
18.5823
18.5595
20.3382
21.1744
22.362
23.4122
24.5199
25.5564
26.8052
27.7163
29.0725
31.1461
32.0509
33.9311
33.3404
35.3701
35.1316
36.3364
36.5449
37.1187
37.6642
38.4007
39.2775
40.3117
41.0337
42.0501
41.7901
42.7104
44.0765
43.9863
45.7464
45.9451
47.1455
47.568
48.1381
48.0982
47.5713
46.7961
46.1162
46.1822
46.0957
54.842
53.6429
54.2074
52.6337
52.8135
51.1507
50.1489
47.7884
45.1286
41.6618
38.2103
35.2833
33.6057
33.2358
30.7134
21.5654
16.3315
15.2537
11.4453
9.7206
6.62578
4.82051
2.71176
1.3801
0.0517732
-0.963072
-1.65414
-1.87894
-3.09469
-6.88427
-29.1443
-34.3415
-35.4386
-38.9833
-41.1056
-44.5122
-47.1732
-50.276
-53.1163
-55.9028
-58.0847
-59.3189
-60.1443
-60.8145
-59.3738
-38.8194
-40.0956
-40.5019
-42.4674
-43.1785
-44.9721
-46.0277
-47.0344
-47.3533
-47.0442
-45.7929
-43.7875
-40.978
-38.6803
-35.3349
-14.7197
-12.0436
-12.026
-12.2392
-11.3524
-10.4353
-8.87042
-7.34487
-5.7061
-4.0896
-2.38597
-0.794629
0.909441
2.10316
4.082
30.9647
30.7245
27.3289
24.3093
21.9201
20.7501
20.164
19.0141
17.3881
16.0558
14.955
14.2424
13.8929
13.8437
13.7045
1.25827
1.25624
1.65387
1.20142
1.2255
1.30369
1.16843
1.01163
0.991376
0.953179
0.882671
0.625911
0.711486
0.601614
0.330005
0.292639
0.42888
0.364583
-0.0383604
0.267443
0.169723
-0.155805
-0.182532
0.153016
0.0610076
-0.251931
-0.256493
0.0838223
0.0823572
-0.306059
0.119991
0.0930081
-0.164451
-0.14314
0.166873
0.216421
-0.0654752
0.263826
0.315421
0.140886
0.171067
0.411503
0.482226
0.349863
0.386931
0.568657
0.683533
0.565494
0.723098
0.846004
0.77732
0.810655
0.925605
0.967589
0.898115
0.917081
0.988341
0.989892
0.93829
1.01119
1.19967
1.17024
1.20305
1.24718
1.55613
1.54739
1.46208
1.80531
1.75334
1.88844
2.09669
1.94461
1.20238
1.98985
3.81572
-3.43509
-0.444602
3.94764
-16.3338
-11.9339
-8.13062
-7.94472
-5.46504
-13.7759
-6.73475
-2.2226
-1.38264
-0.0182088
0.800238
2.02702
4.42866
6.50803
1.91633
3.64294
4.98129
7.73504
10.2831
10.9856
12.3867
13.7393
14.8193
11.0173
14.2883
16.2404
17.3986
19.1612
21.6907
23.3671
24.3885
26.1848
25.9241
21.313
26.3584
28.1358
29.5649
30.7793
32.5064
34.5811
36.2873
34.5155
29.4928
36.0765
39.0538
40.6807
41.3067
41.6279
41.6449
44.0055
41.2515
43.1699
44.0717
42.1797
43.3111
44.1297
42.1737
40.77
39.2941
32.9547
42.4393
41.9623
36.6058
33.4587
28.8393
25.7475
21.8484
17.8442
13.8713
6.95526
6.89209
6.82208
0.845123
-0.912892
-3.38628
-6.57937
-13.3816
-15.1667
-13.2082
-22.8965
-10.0102
-12.8916
-14.9662
-8.08578
-16.3781
-12.8123
-15.3396
-12.4454
-8.12866
-16.4072
-11.9202
-8.38912
-14.9709
-12.4513
-14.5979
-12.3807
-8.00242
-14.8854
-12.2871
-14.4532
-12.1325
-7.94234
-15.5569
-11.5669
-8.28415
-13.9855
-11.7846
-13.3817
-11.6078
-7.78207
-13.2833
-11.1003
-12.5944
-10.7766
-7.40247
-13.0146
-9.92219
-7.42556
-11.4212
-9.71085
-10.7148
-9.31905
-6.58568
-10.2884
-8.59383
-9.57145
-8.02086
-5.59037
-9.48029
-7.0047
-4.98667
-7.89011
-6.44845
-7.06076
-5.86795
-3.36518
-6.35788
-4.92961
-5.5244
-4.31999
-2.01702
-5.22571
-3.20678
-1.46031
-3.71014
-2.54309
-2.89723
-1.98062
-0.159831
-2.18525
-1.10325
-1.4612
-0.584897
0.705053
-1.10687
0.0824332
0.771523
-0.361827
0.19155
-0.18237
0.195288
1.06798
4.94394e-05
0.000100732
0.000172768
0.000234665
0.000308267
0.000381957
0.00046331
0.000548417
0.000640179
0.000737464
0.00084162
0.000952563
0.00107115
0.00119774
0.00133307
0.00147773
0.00163248
0.00179805
0.00197526
0.00216499
0.00236815
0.00258571
0.00281872
0.00306827
0.0033355
0.00362164
0.00392796
0.00425582
0.00460661
0.00498182
0.00538298
0.00581169
0.00626956
0.00675826
0.00727943
0.00783463
0.00842529
0.00905256
0.00971716
0.0104191
0.0111575
0.0119297
0.0127314
0.0135555
0.0143911
0.0152233
0.016032
0.0167917
0.0174717
0.0180374
0.0184524
0.0186833
0.0187036
0.0184982
0.0180654
0.0174138
0.016554
0.0154816
0.0141637
0.0125065
0.0103654
0.00746982
0.00353308
-0.00184381
-0.00881048
-0.0174074
-0.02606
-0.0346252
-0.0413091
-0.0378714
-0.107972
-0.211272
-0.28456
-0.414864
-0.427686
-0.640137
-0.470043
-0.955187
-1.27256
0.000145218
0.000297227
0.000507571
0.00069243
0.000908053
0.00112512
0.00136296
0.00161195
0.00187951
0.00216304
0.00246608
0.00278865
0.00313311
0.00350059
0.00389319
0.00431261
0.00476104
0.00524057
0.00575358
0.00630252
0.00689002
0.00751883
0.00819191
0.00891232
0.00968332
0.0105083
0.0113909
0.0123349
0.0133442
0.014423
0.0155754
0.0168059
0.0181191
0.0195194
0.0210115
0.0225995
0.0242875
0.0260785
0.0279744
0.0299751
0.0320778
0.0342754
0.0365554
0.0388975
0.0412718
0.0436363
0.0459353
0.0480982
0.0500404
0.0516676
0.0528829
0.053599
0.0537516
0.0533126
0.0522959
0.0507486
0.0487285
0.0462557
0.0432756
0.0395668
0.0347652
0.0281448
0.01889
0.00580026
-0.0118569
-0.0346549
-0.0593489
-0.0868414
-0.111913
-0.114545
-0.235277
-0.426209
-0.590045
-0.823241
-0.905501
-1.13387
-1.02417
-1.21146
-1.25467
0.00022774
0.000480049
0.000835994
0.00114637
0.001509
0.00187337
0.00227273
0.00269059
0.00313963
0.0036154
0.00412392
0.00466519
0.00524318
0.00585981
0.0065186
0.00722242
0.00797494
0.00877969
0.00964068
0.010562
0.0115481
0.0126037
0.0137336
0.0149431
0.0162377
0.0176231
0.0191054
0.020691
0.0223865
0.0241988
0.0261353
0.0282032
0.0304104
0.0327645
0.0352732
0.0379439
0.040783
0.043796
0.0469861
0.0503533
0.0538929
0.0575933
0.0614331
0.0653787
0.0693795
0.073365
0.077241
0.0808879
0.0841625
0.086904
0.0889469
0.0901403
0.0903714
0.0895872
0.0878042
0.085094
0.0815447
0.0771798
0.071893
0.0652938
0.0567442
0.0449896
0.0286145
0.00555293
-0.0254711
-0.0653346
-0.108664
-0.157261
-0.199486
-0.211174
-0.340128
-0.55727
-0.759374
-1.03918
-1.14467
-1.38092
-1.28206
-1.39064
-1.26839
0.000308066
0.000660807
0.00115919
0.00159507
0.00210285
0.00261336
0.00317218
0.00375686
0.00438484
0.0050501
0.00576095
0.0065175
0.00732526
0.00818694
0.00910742
0.0100908
0.0111421
0.0122663
0.0134691
0.014756
0.0161334
0.0176077
0.0191859
0.0208751
0.022683
0.0246178
0.0266877
0.0289017
0.0312691
0.0337996
0.0365031
0.0393902
0.0424715
0.0457578
0.0492597
0.0529875
0.0569504
0.0611558
0.0656085
0.0703085
0.0752492
0.0804147
0.0857755
0.0912848
0.0968726
0.102441
0.107858
0.112958
0.11754
0.121381
0.12425
0.125934
0.126277
0.125205
0.122743
0.118996
0.114091
0.108069
0.100786
0.0917043
0.0799306
0.0637024
0.0409938
0.00883311
-0.0347809
-0.0912032
-0.153547
-0.225036
-0.28726
-0.316402
-0.468788
-0.726847
-0.974694
-1.31489
-1.44337
-1.71733
-1.60205
-1.71717
-1.57883
0.000381856
0.00083558
0.00147688
0.0020393
0.00269309
0.00335067
0.00406978
0.00482215
0.00562989
0.0064855
0.00739956
0.00837229
0.00941076
0.0105185
0.0117017
0.0129657
0.014317
0.015762
0.0173079
0.018962
0.0207323
0.0226271
0.0246554
0.0268263
0.0291499
0.0316364
0.0342966
0.037142
0.0401845
0.0434365
0.0469111
0.0506214
0.0545814
0.0588049
0.0633055
0.0680966
0.07319
0.0785954
0.084319
0.0903609
0.0967132
0.103355
0.11025
0.117338
0.12453
0.131699
0.138677
0.145252
0.151165
0.156126
0.159837
0.162024
0.162481
0.161112
0.157949
0.153127
0.146816
0.13907
0.129711
0.118048
0.102926
0.0820581
0.0527682
0.0111167
-0.0457457
-0.119664
-0.202513
-0.299157
-0.383163
-0.436252
-0.613777
-0.919019
-1.21916
-1.6229
-1.77942
-2.0834
-1.96399
-2.05546
-1.80985
0.000452137
0.00100752
0.00178996
0.00247935
0.00327857
0.00408313
0.00496195
0.00588152
0.00686827
0.00791344
0.00902973
0.0102176
0.0114855
0.012838
0.0142825
0.0158256
0.0174752
0.019239
0.021126
0.0231449
0.0253057
0.0276185
0.030094
0.0327437
0.0355795
0.0386141
0.0418608
0.0453333
0.0490463
0.0530149
0.057255
0.0617829
0.0666153
0.0717691
0.0772612
0.0831077
0.0893232
0.0959198
0.102905
0.110279
0.118034
0.126143
0.134563
0.143222
0.15201
0.160775
0.169314
0.177364
0.184611
0.190701
0.195266
0.197968
0.198554
0.196906
0.193063
0.187197
0.179523
0.17012
0.158781
0.144673
0.126386
0.101108
0.06548
0.0145307
-0.0556142
-0.147377
-0.251865
-0.375786
-0.484083
-0.568477
-0.77068
-1.12159
-1.47203
-1.9328
-2.1116
-2.43741
-2.31507
-2.3725
-2.0839
0.000518327
0.00117634
0.00209865
0.00291558
0.00386007
0.00481185
0.00585032
0.00693708
0.00810268
0.00933723
0.0106555
0.0120581
0.0135552
0.0151519
0.0168573
0.0186789
0.0206261
0.0227082
0.0249355
0.0273187
0.0298691
0.0325989
0.0355208
0.0386482
0.0419952
0.0455768
0.0494086
0.0535069
0.057889
0.0625727
0.0675768
0.0729204
0.0786233
0.0847056
0.0911872
0.0980871
0.105423
0.113209
0.121454
0.13016
0.139315
0.148892
0.158839
0.16907
0.179461
0.18983
0.199938
0.209478
0.218076
0.225312
0.230748
0.233982
0.23471
0.232788
0.228268
0.221357
0.212322
0.201274
0.187983
0.171481
0.150106
0.120517
0.0786354
0.0183787
-0.0653319
-0.175559
-0.303114
-0.456587
-0.591841
-0.715348
-0.941813
-1.34261
-1.74536
-2.26088
-2.45566
-2.80027
-2.67139
-2.71438
-2.3998
0.000581401
0.00134306
0.00240343
0.00334831
0.00443754
0.00553654
0.00673424
0.00798788
0.00933182
0.0107552
0.0122747
0.0138915
0.0156168
0.0174569
0.0194221
0.0215211
0.0237648
0.0261638
0.0287301
0.0314759
0.0344144
0.0375594
0.0409257
0.0445287
0.0483847
0.0525109
0.0569252
0.0616466
0.0666948
0.0720903
0.0778548
0.0840104
0.09058
0.0975865
0.105053
0.113002
0.121453
0.130423
0.139923
0.149955
0.160507
0.171548
0.183018
0.194823
0.206816
0.218794
0.23048
0.241519
0.251482
0.259882
0.266208
0.26999
0.270874
0.26869
0.2635
0.255554
0.245177
0.23252
0.217342
0.198551
0.174238
0.140536
0.0926062
0.0231735
-0.0742519
-0.203457
-0.3555
-0.54075
-0.706114
-0.87745
-1.12738
-1.58511
-2.04463
-2.61468
-2.81948
-3.17765
-3.04051
-3.07668
-2.72806
0.000641532
0.001508
0.00270464
0.00377784
0.00501127
0.00625749
0.00761403
0.00903429
0.0105561
0.0121678
0.013888
0.0157182
0.0176711
0.0197537
0.0219778
0.0243533
0.0268924
0.0296073
0.0325113
0.0356184
0.0389434
0.0425022
0.0463113
0.0503882
0.0547513
0.05942
0.0644147
0.0697567
0.0754684
0.0815731
0.0880952
0.0950597
0.102493
0.11042
0.118868
0.127861
0.137424
0.147574
0.158325
0.16968
0.181626
0.194129
0.207123
0.220502
0.234103
0.247697
0.260972
0.273527
0.284875
0.294458
0.301696
0.306047
0.307101
0.304663
0.298807
0.289828
0.278119
0.263881
0.246871
0.225886
0.19878
0.161164
0.107401
0.0289248
-0.0823834
-0.231126
-0.409188
-0.628444
-0.827566
-1.05592
-1.32715
-1.85008
-2.37099
-2.99565
-3.20309
-3.5671
-3.41962
-3.4268
-3.08326
0.000699179
0.00167162
0.00300261
0.00420441
0.00558137
0.00697471
0.0084896
0.0100761
0.0117752
0.0135747
0.0154949
0.0175376
0.0197172
0.0220414
0.0245233
0.0271741
0.0300074
0.0330367
0.0362771
0.0397439
0.043454
0.0474247
0.0516746
0.0562233
0.0610913
0.0663001
0.0718727
0.0778326
0.0842049
0.0910157
0.0982919
0.106062
0.114354
0.123198
0.132623
0.142657
0.153326
0.164652
0.17665
0.189324
0.202661
0.216623
0.23114
0.246095
0.261308
0.276526
0.291402
0.30549
0.318242
0.329034
0.337207
0.342148
0.343388
0.340705
0.334185
0.324176
0.311145
0.295358
0.276581
0.253515
0.223792
0.182506
0.123185
0.0358672
-0.089434
-0.258246
-0.463892
-0.719336
-0.956433
-1.25051
-1.53995
-2.13936
-2.7277
-3.4084
-3.61005
-3.97094
-3.80995
-3.7985
-3.49337
0.000754604
0.00183422
0.00329763
0.00462828
0.00614803
0.00768833
0.00936101
0.0111133
0.012989
0.0149757
0.017095
0.0193496
0.0217549
0.0243197
0.0270584
0.0299833
0.0331095
0.036452
0.0400271
0.0438522
0.0479455
0.0523263
0.0570152
0.0620335
0.0674041
0.0731508
0.0792985
0.0858736
0.0929036
0.100417
0.108444
0.117016
0.126164
0.13592
0.146318
0.157388
0.169159
0.181657
0.194898
0.208887
0.223611
0.239031
0.255071
0.271604
0.288435
0.305287
0.321779
0.337418
0.351599
0.363625
0.372761
0.378315
0.379758
0.376838
0.369653
0.358613
0.344268
0.326959
0.306482
0.281454
0.249304
0.20462
0.140062
0.0441516
-0.0952156
-0.28462
-0.519462
-0.813267
-1.09311
-1.45942
-1.76318
-2.45412
-3.11814
-3.85855
-4.04506
-4.39267
-4.21317
-4.19109
-3.87353
0.000808099
0.00199607
0.00358999
0.00504965
0.00671137
0.00839841
0.0102282
0.0121459
0.0141975
0.0163705
0.0186883
0.0211538
0.0237838
0.0265881
0.0295823
0.0327801
0.0361979
0.0398519
0.0437603
0.0479419
0.0524166
0.0572056
0.0623313
0.0678172
0.073688
0.0799698
0.08669
0.0938774
0.101562
0.109775
0.118549
0.127919
0.137918
0.148583
0.159949
0.17205
0.184919
0.198583
0.213062
0.228362
0.244471
0.261347
0.27891
0.297024
0.31548
0.333976
0.352099
0.369311
0.384947
0.398238
0.408365
0.414558
0.416222
0.413071
0.405221
0.393145
0.37749
0.358689
0.33658
0.30972
0.275351
0.22758
0.158163
0.0539766
-0.099471
-0.309965
-0.575632
-0.909995
-1.23788
-1.67964
-1.99599
-2.79626
-3.54522
-4.35155
-4.51239
-4.83487
-4.63022
-4.56204
-4.2404
0.000859891
0.00215739
0.00387992
0.0054687
0.00727153
0.00910501
0.0110913
0.0131737
0.0154006
0.0177592
0.0202744
0.0229498
0.0258034
0.0288461
0.0320947
0.035564
0.0392718
0.0432359
0.047476
0.0520122
0.0568665
0.0620616
0.067622
0.073573
0.0799415
0.0867558
0.0940457
0.101842
0.110178
0.119087
0.128605
0.138768
0.149615
0.161183
0.173513
0.186641
0.200603
0.215429
0.231141
0.247748
0.265238
0.283568
0.302655
0.322353
0.34244
0.362593
0.382365
0.401174
0.418294
0.432881
0.444033
0.450893
0.452795
0.449421
0.440901
0.42778
0.410815
0.390549
0.366878
0.338322
0.30196
0.251448
0.177611
0.0655327
-0.101946
-0.333996
-0.632122
-1.00932
-1.39102
-1.9099
-2.24438
-3.17208
-4.01233
-4.89335
-5.01649
-5.30092
-5.06393
-4.96775
-4.69024
0.00091019
0.00231834
0.00416765
0.0058856
0.0078286
0.00980818
0.0119502
0.0141967
0.0165979
0.0191413
0.021853
0.0247373
0.0278134
0.0310933
0.0345948
0.0383342
0.0423306
0.0466032
0.051173
0.0560621
0.0612939
0.0668931
0.0728858
0.0792994
0.0861631
0.0935071
0.101364
0.109766
0.118749
0.128351
0.138608
0.149561
0.161251
0.173719
0.187007
0.201157
0.216206
0.232189
0.24913
0.267039
0.285907
0.305691
0.326301
0.347588
0.369315
0.391137
0.412578
0.433009
0.451643
0.467563
0.479775
0.487332
0.489494
0.485902
0.476704
0.462526
0.444247
0.422539
0.397379
0.367267
0.329157
0.276287
0.198533
0.0790266
-0.10236
-0.356387
-0.688589
-1.11101
-1.55276
-2.15168
-2.51911
-3.58873
-4.52397
-5.49046
-5.56198
-5.79423
-5.51547
-5.36371
-5.06184
0.000959175
0.00247907
0.00445335
0.00630048
0.00838271
0.010508
0.0128049
0.0152148
0.0177895
0.0205168
0.0234239
0.026516
0.0298134
0.0333291
0.0370822
0.0410902
0.0453736
0.0499529
0.0548507
0.0600907
0.0656979
0.0716988
0.0781214
0.0849952
0.0923512
0.100222
0.108642
0.117647
0.127275
0.137564
0.148557
0.160296
0.172824
0.186186
0.200428
0.215594
0.231726
0.24886
0.267025
0.286233
0.306476
0.32771
0.349846
0.372725
0.3961
0.419606
0.442737
0.464817
0.485002
0.502292
0.515603
0.523891
0.526333
0.522526
0.51264
0.497387
0.477787
0.454657
0.428077
0.396558
0.356957
0.302151
0.221057
0.0946704
-0.100414
-0.376786
-0.744641
-1.21479
-1.72321
-2.4065
-2.83041
-4.04847
-5.08556
-6.15007
-6.15339
-6.31825
-5.98763
-5.77938
-5.53211
0.001007
0.00263968
0.00473721
0.00671346
0.00893391
0.0112044
0.0136554
0.016228
0.0189752
0.0218854
0.0249868
0.0282856
0.031803
0.0355531
0.0395564
0.0438314
0.0484
0.0532842
0.0585081
0.0640969
0.0700773
0.0764776
0.0833277
0.090659
0.0985045
0.106899
0.115879
0.125483
0.135751
0.146726
0.15845
0.170969
0.184331
0.198583
0.213773
0.22995
0.247159
0.265439
0.284823
0.305325
0.326939
0.349623
0.373285
0.397761
0.422793
0.447999
0.472841
0.496602
0.518373
0.537076
0.551528
0.560583
0.563326
0.55931
0.548721
0.532371
0.511432
0.486896
0.458967
0.42619
0.385373
0.329092
0.245311
0.112686
-0.0957926
-0.394808
-0.799827
-1.32037
-1.90236
-2.6752
-3.18255
-4.55174
-5.70314
-6.88032
-6.79515
-6.87643
-6.48218
-6.21414
-5.94756
0.0010538
0.00280026
0.00501936
0.00712465
0.00948229
0.0118974
0.0145015
0.017236
0.0201548
0.0232468
0.0265414
0.0300456
0.0337816
0.0377648
0.0420166
0.046557
0.0514091
0.0565964
0.0621444
0.0680798
0.0744311
0.0812284
0.0885033
0.0962892
0.104621
0.113536
0.123073
0.133273
0.144178
0.155832
0.168283
0.181579
0.195769
0.210905
0.227039
0.244221
0.262501
0.281922
0.302519
0.324311
0.347293
0.371425
0.396613
0.422691
0.44939
0.476312
0.50289
0.528364
0.551762
0.571922
0.587562
0.597422
0.600491
0.596267
0.584957
0.56748
0.545182
0.519249
0.490037
0.456156
0.414405
0.357151
0.271421
0.133302
-0.0881587
-0.410032
-0.853644
-1.42739
-2.09002
-2.9584
-3.57738
-5.09851
-6.38326
-7.69059
-7.49165
-7.47175
-6.99994
-6.62525
-6.34155
0.0010997
0.00296088
0.00529995
0.00753412
0.0100279
0.0125871
0.0153434
0.0182389
0.0213281
0.0246009
0.0280875
0.0317957
0.035749
0.0399637
0.0444625
0.0492665
0.0544003
0.0598886
0.0657585
0.0720383
0.0787583
0.0859499
0.093647
0.101885
0.1107
0.120132
0.130223
0.141014
0.152552
0.164882
0.178056
0.192123
0.207137
0.223151
0.240222
0.258404
0.27775
0.298305
0.32011
0.343187
0.367533
0.393111
0.419827
0.447512
0.475889
0.504544
0.532883
0.560103
0.585172
0.606839
0.623715
0.634423
0.637844
0.633413
0.621359
0.602719
0.579032
0.551706
0.521274
0.486439
0.444049
0.386364
0.299515
0.156755
-0.0771574
-0.421999
-0.905534
-1.53545
-2.28582
-3.25663
-4.01708
-5.68848
-7.13325
-8.5918
-8.24742
-8.10737
-7.5434
-7.06281
-6.84759
0.00114479
0.00312159
0.00557907
0.00794194
0.0105708
0.0132734
0.0161808
0.0192364
0.022495
0.0259474
0.0296246
0.0335356
0.0377047
0.0421493
0.0468933
0.0519592
0.0573727
0.06316
0.0693497
0.0759716
0.0830576
0.090641
0.0987574
0.107444
0.116739
0.126686
0.137326
0.148705
0.160871
0.173873
0.187764
0.202598
0.21843
0.235318
0.253321
0.272496
0.2929
0.314585
0.337592
0.361948
0.387655
0.414677
0.442922
0.472218
0.502284
0.53269
0.562817
0.591821
0.618606
0.641833
0.66
0.671601
0.6754
0.670763
0.657938
0.63809
0.612977
0.584253
0.552659
0.517018
0.474288
0.416752
0.329716
0.183287
-0.0624149
-0.430208
-0.954865
-1.64409
-2.48915
-3.57056
-4.50486
-6.3225
-7.96271
-9.59687
-9.06731
-8.78659
-8.1128
-7.52342
-7.27247
0.00118915
0.00328243
0.00585683
0.00834815
0.011111
0.0139563
0.0170138
0.0202285
0.0236552
0.0272861
0.0311526
0.0352648
0.0396481
0.044321
0.0493086
0.0546344
0.0603256
0.0664098
0.072917
0.0798786
0.087328
0.0953005
0.103833
0.112965
0.122738
0.133194
0.14438
0.156343
0.169133
0.182803
0.197407
0.213001
0.229646
0.247402
0.26633
0.286493
0.30795
0.330757
0.35496
0.380591
0.407654
0.436118
0.465893
0.496806
0.528572
0.560747
0.592691
0.623518
0.652067
0.676911
0.696427
0.708971
0.713177
0.708332
0.694703
0.673596
0.647008
0.616874
0.584168
0.547865
0.505095
0.448329
0.362144
0.213146
-0.0435399
-0.434118
-1.00091
-1.75276
-2.69911
-3.9011
-5.04435
-7.00009
-8.88311
-10.7214
-9.95662
-9.51202
-8.70732
-7.95207
-7.65748
0.00123285
0.00344343
0.0061333
0.0087528
0.0116484
0.0146357
0.0178423
0.021215
0.0248086
0.0286166
0.032671
0.0369831
0.041579
0.0464785
0.0517077
0.0572915
0.0632583
0.0696372
0.0764595
0.0837583
0.0915685
0.0999271
0.108873
0.118448
0.128694
0.139657
0.151385
0.163927
0.177337
0.191669
0.206981
0.223331
0.240783
0.2594
0.279248
0.300391
0.322895
0.346818
0.372211
0.39911
0.427525
0.457429
0.488735
0.521271
0.554747
0.588712
0.622501
0.655191
0.685558
0.71208
0.733007
0.746548
0.751193
0.746137
0.731666
0.709239
0.681116
0.649549
0.615773
0.578943
0.53643
0.481092
0.396916
0.246582
-0.0201254
-0.433166
-1.04286
-1.86076
-2.9145
-4.2495
-5.63591
-7.713
-9.90358
-11.9834
-10.9214
-10.287
-9.32917
-8.42508
-8.15814
0.00127596
0.00360461
0.00640854
0.00915591
0.0121832
0.0153117
0.0186661
0.0221957
0.025955
0.0299388
0.0341797
0.0386899
0.0434968
0.048621
0.05409
0.0599298
0.0661701
0.0728413
0.0799763
0.0876096
0.0957779
0.10452
0.113876
0.123889
0.134605
0.146071
0.158337
0.171455
0.18548
0.20047
0.216484
0.233585
0.251838
0.27131
0.292071
0.314188
0.337731
0.362763
0.38934
0.417502
0.447264
0.478605
0.511442
0.545605
0.580804
0.616578
0.652245
0.686841
0.719081
0.747346
0.769753
0.784349
0.789466
0.784196
0.768838
0.745018
0.715291
0.682256
0.647444
0.610209
0.568239
0.515022
0.434141
0.283846
0.00824948
-0.426759
-1.0799
-1.96718
-3.13391
-4.61697
-6.27133
-8.45516
-11.0336
-13.4039
-11.9682
-11.1145
-9.97574
-8.88538
-8.53324
0.00131852
0.00376598
0.00668261
0.00955748
0.0127154
0.0159841
0.0194851
0.0231706
0.0270942
0.0312524
0.0356781
0.040385
0.045401
0.0507482
0.056455
0.0625487
0.0690602
0.0760214
0.0834665
0.0914317
0.0999551
0.109077
0.11884
0.129289
0.140472
0.152436
0.165236
0.178925
0.19356
0.209202
0.225913
0.243759
0.262808
0.283129
0.304796
0.32788
0.352455
0.378589
0.406342
0.435761
0.466866
0.499641
0.534009
0.569805
0.606738
0.644342
0.681917
0.718464
0.752636
0.782714
0.806674
0.82239
0.828017
0.822527
0.80623
0.780935
0.749519
0.71497
0.679144
0.64161
0.600451
0.550082
0.473924
0.32519
0.0420176
-0.414273
-1.11113
-2.071
-3.35586
-5.00419
-6.93723
-9.24723
-12.2937
-15.007
-13.1047
-11.9974
-10.6457
-9.36876
-9.00482
0.00136057
0.00392755
0.00695554
0.00995752
0.0132448
0.0166529
0.0202993
0.0241394
0.0282259
0.032557
0.037166
0.0420679
0.0472913
0.0528595
0.058802
0.0651473
0.0719278
0.0791765
0.0869292
0.0952234
0.104099
0.113598
0.123765
0.134646
0.146291
0.15875
0.172079
0.186334
0.201575
0.217865
0.235267
0.253852
0.273689
0.294853
0.317419
0.341464
0.367064
0.394292
0.423214
0.453883
0.486325
0.520531
0.55643
0.593863
0.632542
0.671997
0.711513
0.750059
0.786224
0.818189
0.843782
0.860688
0.866864
0.861148
0.843855
0.816989
0.783785
0.747662
0.710832
0.673087
0.63298
0.586213
0.516359
0.370861
0.081622
-0.395053
-1.13562
-2.171
-3.57882
-5.41102
-7.62746
-10.1289
-13.7081
-16.8223
-14.339
-12.9387
-11.336
-9.87159
-9.38403
0.00140214
0.00408932
0.00722736
0.010356
0.0137714
0.017318
0.0211086
0.0251019
0.0293499
0.0338524
0.0386431
0.0437381
0.0491671
0.0549543
0.0611304
0.0677252
0.0747722
0.0823058
0.0903634
0.0989838
0.108209
0.118081
0.128648
0.139958
0.152061
0.165011
0.178865
0.193682
0.209523
0.226455
0.244543
0.263861
0.284481
0.30648
0.329938
0.354935
0.381552
0.409867
0.439951
0.471863
0.505636
0.541269
0.578698
0.617773
0.658209
0.699536
0.741027
0.781621
0.819845
0.853777
0.881089
0.89926
0.906031
0.90008
0.881724
0.853179
0.818073
0.780302
0.742464
0.704572
0.665718
0.623331
0.56153
0.421101
0.127513
-0.368422
-1.15236
-2.26582
-3.80113
-5.83647
-8.34212
-11.135
-15.2905
-18.8861
-15.6804
-13.9407
-12.0425
-10.3333
-9.74692
0.00144324
0.0042513
0.00749808
0.0107529
0.0142953
0.0179793
0.0219127
0.026058
0.0304659
0.0351384
0.040109
0.0453954
0.0510279
0.0570321
0.0634396
0.0702815
0.0775926
0.0854086
0.0937682
0.102712
0.112283
0.122526
0.133489
0.145223
0.157781
0.171218
0.185592
0.200966
0.217402
0.23497
0.253739
0.273783
0.295178
0.318006
0.342349
0.368291
0.395917
0.425311
0.456549
0.489695
0.524794
0.561849
0.600808
0.641528
0.683733
0.726953
0.770453
0.813145
0.853497
0.889482
0.918605
0.938125
0.945539
0.939346
0.919852
0.889504
0.852364
0.812856
0.773992
0.735986
0.698535
0.661325
0.60951
0.476141
0.180144
-0.333682
-1.16028
-2.35374
-4.02078
-6.27807
-9.07895
-12.2781
-17.0488
-21.2398
-17.1397
-15.0059
-12.7631
-10.8181
-10.1799
0.0014839
0.00441348
0.00776771
0.0111483
0.0148163
0.0186368
0.0227115
0.0270074
0.0315738
0.0364145
0.0415633
0.0470392
0.0528732
0.0590923
0.065729
0.0728156
0.0803882
0.0884839
0.0971426
0.106406
0.11632
0.12693
0.138287
0.150441
0.163449
0.177368
0.192258
0.208183
0.22521
0.243408
0.262851
0.283615
0.30578
0.329429
0.354649
0.381528
0.410155
0.440618
0.473002
0.507376
0.543793
0.582266
0.622753
0.665121
0.709104
0.754239
0.799784
0.844626
0.887179
0.925306
0.95634
0.9773
0.985414
0.978968
0.958252
0.925961
0.886636
0.845287
0.805366
0.767246
0.731278
0.700051
0.660356
0.536203
0.239968
-0.290136
-1.15833
-2.43276
-4.23512
-6.7312
-9.83248
-13.5668
-18.9852
-23.9293
-18.7283
-16.1371
-13.4936
-11.3184
-10.5219
0.00152411
0.00457586
0.00803625
0.0115419
0.0153344
0.0192902
0.0235049
0.0279501
0.0326732
0.0376804
0.0430056
0.0486691
0.0547027
0.0611344
0.0679979
0.0753268
0.0831583
0.0915308
0.100486
0.110067
0.12032
0.131293
0.143039
0.15561
0.169064
0.18346
0.198862
0.215333
0.232945
0.251768
0.271878
0.293356
0.316283
0.340746
0.366834
0.394642
0.424261
0.455786
0.489306
0.5249
0.562627
0.602512
0.644525
0.688544
0.734316
0.781385
0.82901
0.876058
0.920887
0.961252
0.994306
1.01681
1.02568
1.01897
0.996941
0.96255
0.920869
0.877555
0.836532
0.798257
0.763764
0.73933
0.714112
0.601491
0.307427
-0.237121
-1.14554
-2.50076
-4.44077
-7.18851
-10.5948
-15.0138
-21.1016
-27.01
-20.4598
-17.3352
-14.2291
-11.7499
-10.8419
0.00156387
0.00473843
0.00830368
0.0119339
0.0158495
0.0199394
0.0242928
0.0288856
0.0337639
0.0389359
0.0444356
0.0502846
0.0565156
0.0631578
0.0702457
0.0778144
0.085902
0.0945485
0.103797
0.113691
0.12428
0.135614
0.147745
0.160728
0.174624
0.189493
0.2054
0.222413
0.240603
0.260045
0.280817
0.303001
0.326683
0.351952
0.378902
0.407629
0.438232
0.470809
0.505457
0.542261
0.581291
0.622582
0.666117
0.711789
0.759359
0.808384
0.858124
0.907433
0.954617
0.997323
1.03251
1.05666
1.06636
1.05938
1.03594
0.999266
0.955035
0.90962
0.867436
0.82892
0.795781
0.778941
0.770803
0.672184
0.382923
-0.174087
-1.1211
-2.5559
-4.63498
-7.64061
-11.3586
-16.6403
-23.3842
-30.5379
-22.3501
-18.6018
-14.9669
-12.2221
-11.2236
0.00160319
0.00490117
0.00856998
0.0123242
0.0163616
0.0205845
0.0250749
0.0298139
0.0348457
0.0401806
0.0458529
0.0518855
0.0583116
0.0651619
0.0724718
0.0802775
0.0886186
0.0975362
0.107074
0.11728
0.128201
0.13989
0.152403
0.165795
0.180128
0.195465
0.211872
0.229421
0.248185
0.268239
0.289666
0.31255
0.336979
0.363046
0.390849
0.420487
0.452064
0.485684
0.521449
0.559454
0.599778
0.642468
0.687521
0.734847
0.784224
0.835223
0.887115
0.938741
0.988363
1.03352
1.07097
1.09689
1.1075
1.10024
1.07525
1.03611
0.989109
0.941437
0.898022
0.859128
0.827084
0.818622
0.830429
0.748418
0.466747
-0.100757
-1.08466
-2.59744
-4.81769
-8.07872
-12.1224
-18.4572
-25.783
-34.5385
-24.4148
-19.9369
-15.6999
-12.6432
-11.4914
0.00164205
0.00506409
0.00883513
0.0127126
0.0168705
0.0212251
0.0258511
0.0307346
0.0359181
0.0414142
0.047257
0.053471
0.0600902
0.0671461
0.0746755
0.0827157
0.0913073
0.100493
0.110318
0.12083
0.132081
0.144122
0.157011
0.170808
0.185573
0.201373
0.218277
0.236356
0.255686
0.276347
0.298422
0.321998
0.347167
0.374025
0.402671
0.433211
0.465752
0.500405
0.537278
0.576474
0.618082
0.662163
0.70873
0.757709
0.8089
0.861893
0.915971
0.969973
1.02212
1.06984
1.10969
1.13751
1.14911
1.14156
1.11491
1.07307
1.02306
0.972959
0.928238
0.888769
0.857388
0.858059
0.892961
0.830226
0.558919
-0.0174378
-1.03678
-2.62607
-4.99192
-8.50211
-12.8914
-20.438
-28.3055
-39.0166
-26.6659
-21.3385
-16.4228
-13.0681
-11.8458
0.00168044
0.00522715
0.00909908
0.0130992
0.0173761
0.0218611
0.0266211
0.0316476
0.036981
0.0426363
0.0486476
0.0550409
0.0618507
0.0691099
0.0768561
0.0851279
0.0939672
0.103418
0.113526
0.124342
0.135918
0.148307
0.16157
0.175765
0.190959
0.207217
0.22461
0.243214
0.263106
0.284367
0.307083
0.331344
0.357245
0.384884
0.414366
0.445798
0.479294
0.514969
0.552938
0.593315
0.636197
0.681661
0.729734
0.780366
0.833376
0.888381
0.944681
1.00112
1.05587
1.10628
1.14868
1.17855
1.19124
1.18338
1.15494
1.11015
1.05686
1.00414
0.958033
0.917729
0.886369
0.896879
0.958293
0.9174
0.658861
0.0744727
-0.97958
-2.64483
-5.16261
-8.91335
-13.6793
-22.5336
-31.0311
-43.9593
-29.1096
-22.8022
-17.1278
-13.4895
-12.0736
0.00171833
0.00539036
0.00936179
0.0134838
0.0178784
0.0224925
0.0273848
0.0325526
0.038034
0.0438466
0.0500243
0.0565946
0.0635926
0.0710526
0.079013
0.0875137
0.0965976
0.10631
0.116699
0.127815
0.139711
0.152445
0.166076
0.180667
0.196283
0.212994
0.230872
0.249995
0.270441
0.292295
0.315646
0.340584
0.367209
0.395621
0.425929
0.458244
0.492684
0.52937
0.568425
0.609971
0.654117
0.700954
0.750527
0.802807
0.857642
0.914674
0.973229
1.03216
1.08962
1.14284
1.18794
1.22003
1.23391
1.22576
1.19536
1.14735
1.09046
1.03493
0.987363
0.945894
0.913652
0.934635
1.02616
1.0092
0.764866
0.171807
-0.91745
-2.65978
-5.33802
-9.3188
-14.5535
-24.6891
-34.02
-49.2189
-31.7448
-24.3184
-17.8058
-13.8149
-12.249
0.0017557
0.0055537
0.00962322
0.0138664
0.0183772
0.023119
0.028142
0.0334493
0.0390768
0.0450446
0.0513866
0.0581316
0.0653155
0.0729736
0.0811455
0.0898721
0.0991976
0.109168
0.119834
0.131246
0.14346
0.156534
0.170529
0.18551
0.201544
0.218703
0.23706
0.256696
0.27769
0.300131
0.324108
0.349717
0.377057
0.406233
0.437357
0.470545
0.505918
0.543604
0.583734
0.626436
0.671835
0.720033
0.771097
0.825023
0.881685
0.940759
1.0016
1.06308
1.12334
1.17951
1.22749
1.26197
1.27717
1.26871
1.2362
1.18465
1.12384
1.06527
1.01619
0.973153
0.93881
0.970753
1.09592
1.10385
0.873358
0.268975
-0.857361
-2.67987
-5.52973
-9.73349
-15.595
-26.842