/*--------------------------------*- C++ -*----------------------------------*\
| =========                 |                                                 |
| \\      /  F ield         | OpenFOAM: The Open Source CFD Toolbox           |
|  \\    /   O peration     | Version:  4.1                                   |
|   \\  /    A nd           | Web:      www.OpenFOAM.org                      |
|    \\/     M anipulation  |                                                 |
\*---------------------------------------------------------------------------*/
FoamFile
{
    version     2.0;
    format      ascii;
    class       surfaceScalarField;
    location    "6";
    object      phi;
}
// * * * * * * * * * * * * * * * * * * * * * * * * * * * * * * * * * * * * * //

dimensions      [0 3 -1 0 0 0 0];

internalField   nonuniform List<scalar> 
13220
(
-777.904
2077.8
-1203.1
1725.4
-1639.91
1736.72
-1954.56
1614.54
-2207.99
1553.64
-2383.45
1475.36
-2490.16
1406.61
-2527.85
1337.89
-2499.55
1271.6
-2400.92
1201.27
-2223.55
1122.83
-1951.08
1027.43
-1543.86
892.682
-935.126
691.467
364.774
-221.221
2299.03
-497.927
2002.1
-795.337
2034.13
-1043.09
1862.3
-1283.32
1793.86
-1486.82
1678.86
-1669.68
1589.47
-1824.58
1492.79
-1943.66
1390.67
-1984.88
1242.5
-1856.83
994.774
-1468.82
639.417
-900.577
324.445
-369.811
160.704
-5.03637
-212.749
2511.78
-455.613
2244.97
-649.797
2228.31
-793.646
2006.15
-929.671
1929.89
-1027.04
1776.23
-1112.01
1674.45
-1176.72
1557.51
-1222.63
1436.58
-1226.86
1246.73
-1138.88
906.793
-903.083
403.627
-621.866
43.2359
-292.263
-168.886
-297.3
13.9299
2497.85
-56.3458
2315.25
-71.1855
2243.15
-63.8063
1998.77
-52.397
1918.48
-18.813
1742.65
25.274
1630.36
86.3039
1496.48
152.337
1370.55
194.14
1204.93
150.915
950.019
-16.2145
570.761
-156.144
183.172
-197.592
-127.434
-494.892
143.794
2354.06
118.722
2340.32
174.747
2187.13
239.656
1933.86
315.146
1842.99
396.807
1660.99
489.465
1537.7
593.06
1392.89
703.863
1259.75
792.899
1115.89
803.021
939.898
659.223
714.564
392.216
450.185
134.409
130.38
-360.483
157.588
2196.47
154.422
2343.48
208.146
2133.41
269.119
1872.89
341.874
1770.24
408.995
1593.87
482.212
1464.49
553.709
1321.39
624.106
1189.35
681.026
1058.97
699.302
921.621
642.519
771.342
505.974
586.723
283.469
352.874
-77.014
115.515
2080.95
158.478
2300.52
216.774
2075.11
283.238
1806.43
358.846
1694.63
424.852
1527.86
486.131
1403.21
538.862
1268.66
584.761
1143.45
621.659
1022.08
635.367
907.912
599.535
807.176
484.599
701.662
273.478
564.002
196.464
47.8197
2033.13
127.53
2220.81
203.77
1998.87
276.065
1734.13
354.682
1616.01
448.3
1434.25
557.613
1293.89
684.091
1142.18
806.752
1020.79
903.244
925.582
935.831
875.326
870.108
872.894
679.576
892.19
383.825
859.745
580.289
-58.4992
2091.63
1.97591
2160.34
31.031
1969.81
10.9417
1754.22
4.09173
1622.86
41.4489
1396.89
153.318
1182.02
328.752
966.745
543.109
806.431
754.336
714.356
885.582
744.08
864.285
894.194
666.898
1089.58
349.569
1177.08
929.858
-222.87
2314.5
-347.136
2284.6
-493.885
2116.56
-709.812
1970.15
-921.302
1834.35
-1105.65
1581.24
-1226.85
1303.22
-1287.98
1027.87
-1273.44
791.891
-1160.08
601.002
-927.893
511.889
-598.76
565.057
-265.859
756.674
-55.6531
966.867
874.205
-55.5191
2370.02
-333.618
2562.7
-561.755
2344.7
-781.138
2189.53
-1013.84
2067.05
-1273.54
1840.94
-1552.89
1582.57
-1833.11
1308.09
-2084.63
1043.41
-2250.47
766.838
-2232.41
493.827
-1926.57
259.224
-1313.77
143.871
-555.632
208.73
318.573
366.018
2004
233.508
2695.21
71.0919
2507.11
-7.51867
2268.14
-49.4112
2108.94
-117.521
1909.05
-227.174
1692.22
-373.106
1454.02
-541.629
1211.93
-728.278
953.485
-911.639
677.186
-1030.65
378.227
-965.192
78.4094
-633.75
-122.719
-315.177
574.363
1429.64
722.436
2547.13
729.692
2499.86
818.533
2179.29
971.276
1956.2
1103.46
1776.86
1186.63
1609.05
1210.32
1430.33
1176.7
1245.55
1075.84
1054.35
897.231
855.791
626.758
648.699
285.995
419.171
2.79013
160.483
-312.387
488.079
941.557
704.722
2330.49
694.967
2509.61
651.053
2223.21
682.659
1924.59
769.484
1690.04
868.461
1510.07
941.306
1357.48
973.674
1213.18
957.541
1070.48
888.838
924.494
764.118
773.418
576.312
606.976
334.291
402.502
21.9045
436.567
1347.85
1955.05
2270.91
2303.17
2204.02
2097
2024.24
1938.63
1813.82
1626.42
1372.4
1037.02
605.222
1.34258e-05
222.17
-222.17
222.17
222.17
222.17
444.357
-222.187
444.357
444.357
444.357
622.595
-178.239
622.595
622.595
755.137
-132.542
755.137
755.137
755.137
843.492
-88.3552
843.493
843.493
894.981
-51.4889
894.981
894.981
894.981
907.862
-12.8802
907.862
907.862
907.862
885.625
22.2367
885.625
885.625
838.771
46.8542
838.771
838.771
838.771
779.324
59.447
779.324
779.324
710.88
68.4438
710.88
710.88
710.88
634.937
75.9428
634.937
634.937
634.937
552.184
82.7535
552.184
552.184
466.822
85.362
466.822
466.822
466.822
434.175
32.6471
434.175
434.175
434.175
449.759
-15.5845
449.759
449.759
355.218
94.5412
355.218
355.218
355.218
129.884
225.334
129.884
129.884
-182.254
312.137
-182.254
-182.254
-182.254
-1223.96
1041.7
-1223.96
-1223.96
-1223.96
-2862.44
1638.48
-2862.44
-2862.44
-4869.38
2006.94
-4869.38
-4869.38
-4752.07
-4636.9
-4517.44
-6638.14
2235.48
-6516.77
-6371.96
-6215.25
-6058.85
-5902.09
-5745.7
-5583.37
-5407.2
-7588.14
2354.19
-7408.03
-7228.86
-7050.87
-6858.47
-6666.07
-6473.65
-6281.17
-6087.21
-8315.19
2429.94
-8106.37
-7897.72
-7689.12
-7480.34
-7266.89
-7044.61
-6821.92
-6597.48
-6370.92
-8643.17
2497.88
-8403.66
-8162.27
-7919.33
-7674.77
-7428.04
-7169.92
-6904.2
-6635.28
-8962.21
2594.16
-8691.58
-8410.99
-8116.79
-7818.11
-7513.89
-7205.04
-6890.17
-6549.2
-8875.06
2656.6
-8540.64
-8204.48
-7868.66
-7512.67
-7149.54
-6790.38
-6433.78
-6081.89
-7568.65
1835.16
-7207.79
-6851.19
-6495.44
-6141.3
-5788.73
-5417.07
-5050.74
-4689.12
-4337.13
-4778.64
788.14
-4475.51
-4194.35
-3921.58
-3659.01
-3406.71
-3210.82
-3114.05
-3017.8
-2875.14
-43.5893
-2788.86
-2706.97
-2706.97
-2708.82
1.85201
-2672.39
-36.4353
-2672.39
-2658.34
-14.0505
-2658.34
-2661
2.65975
-2651.65
-9.34649
-2651.65
-2653.04
1.38435
-2639.78
-13.2515
-2639.78
-2628.68
-11.1002
-2628.68
-2622.19
-6.49202
-2597.73
-24.4569
-2597.73
-2574.71
-23.0265
-2574.71
-2557.9
-16.8117
-2521.87
-36.0267
-2521.87
-2494.36
-27.5049
-2450.42
-43.9424
-2450.42
-2407.7
-42.7274
-2407.7
-2368.16
-39.5355
-2314.52
-53.6435
-2314.52
-2263.89
-50.6278
-2263.89
-2219.21
-44.6799
-2161.34
-57.8679
-2161.34
-2111.05
-50.2856
-2052.45
-58.6029
-2052.45
-1999.37
-53.0814
-1999.37
-1957.09
-42.2831
-1914.54
-42.5524
-1914.54
-1884.62
-29.9119
-1884.62
-1873.13
-11.4887
-1858.78
-14.3541
-1858.78
-1860.12
1.3387
-1849.5
-10.6197
-1849.5
-1840.04
-9.4565
-1840.04
-1831.17
-8.87334
-1802.93
-28.235
-1802.93
-1772.02
-30.9151
-1772.02
-1740.89
-31.1256
-1693.68
-47.2122
-1693.68
-1650.94
-42.7376
-1596.98
-53.9636
-1596.98
-1541.34
-55.6361
-1541.34
-1481.68
-59.6686
-1407.42
-74.2574
-1407.42
-1320.95
-86.4633
-1320.95
-1222.4
-98.5534
-1113.45
-108.949
-1113.45
-992.341
-121.111
-864.833
-127.508
-864.833
-723.024
-141.81
-723.024
-154.783
-7.50819
-37.7032
-7.42972
-51.227
-7.44339
-60.5694
-7.4711
-69.4029
-7.53877
-78.1902
-7.62941
-86.5828
-7.75036
-94.9478
-7.89675
-103.182
-8.0709
-111.428
-8.27125
-119.674
-8.49856
-127.989
-8.75234
-136.388
-9.03288
-144.913
-9.34012
-153.586
-9.67429
-162.438
-10.0356
-171.492
-10.4242
-180.776
-10.8407
-190.31
-11.2854
-200.12
-11.7588
-210.228
-12.2617
-220.655
-12.7946
-231.424
-13.3585
-242.557
-13.9542
-254.076
-14.5826
-266.001
-15.2448
-278.354
-15.942
-291.158
-16.6754
-304.434
-17.4462
-318.205
-18.2559
-332.491
-19.1059
-347.317
-19.9978
-362.704
-20.9329
-378.675
-21.9131
-395.254
-22.9398
-412.462
-24.0146
-430.322
-25.1391
-448.855
-26.3146
-468.083
-27.5421
-488.021
-28.8226
-508.686
-30.1562
-530.087
-31.5424
-552.227
-32.9797
-575.099
-34.4652
-598.685
-35.9944
-622.948
-37.5602
-647.83
-39.1531
-673.248
-40.76
-699.087
-42.3639
-725.197
-43.9433
-751.389
-45.4721
-777.44
-46.9189
-803.093
-48.2472
-828.071
-49.4147
-852.085
-50.3729
-874.856
-51.0648
-896.115
-51.4227
-915.604
-51.3617
-933.046
-50.7734
-948.1
-49.5131
-960.248
-47.3902
-968.713
-44.1487
-972.142
-39.4709
-968.616
-32.9646
-954.773
-24.2529
-926.426
-12.9761
-876.283
0.769228
-797.208
16.5873
-672.448
33.0146
-492.007
48.3231
-171.88
53.1891
319.153
53.4441
664.603
48.9911
972.867
48.0313
1343.44
39.147
1575.94
49.6924
2025.79
37.3496
1950.24
84.1903
2785.45
3115.18
-8.51957
-37.8562
-8.40195
-51.3447
-8.40283
-60.5685
-8.42396
-69.3817
-8.49319
-78.1209
-8.58995
-86.486
-8.72173
-94.816
-8.88265
-103.022
-9.07498
-111.235
-9.29678
-119.452
-9.54873
-127.737
-9.83016
-136.106
-10.1413
-144.601
-10.4821
-153.245
-10.8526
-162.067
-11.253
-171.092
-11.6836
-180.345
-12.1448
-189.849
-12.637
-199.628
-13.1608
-209.704
-13.7169
-220.099
-14.3058
-230.835
-14.9286
-241.935
-15.5861
-253.418
-16.2794
-265.307
-17.0095
-277.624
-17.7777
-290.39
-18.5852
-303.627
-19.4333
-317.357
-20.3236
-331.601
-21.2576
-346.383
-22.2367
-361.725
-23.2626
-377.65
-24.337
-394.179
-25.4614
-411.338
-26.6373
-429.146
-27.8662
-447.627
-29.1494
-466.799
-30.4876
-486.683
-31.8813
-507.293
-33.3301
-528.638
-34.8328
-550.724
-36.3868
-573.546
-37.9877
-597.084
-39.6292
-621.306
-41.302
-646.157
-42.9936
-671.556
-44.6875
-697.393
-46.3633
-723.521
-47.9955
-749.757
-49.5541
-775.882
-51.0043
-801.643
-52.3069
-826.768
-53.4178
-850.974
-54.2872
-873.987
-54.8573
-895.545
-55.0579
-915.403
-54.7995
-933.304
-53.9635
-948.936
-52.3886
-961.823
-49.8574
-971.244
-46.075
-975.925
-40.6752
-974.016
-33.211
-962.237
-23.2669
-936.37
-10.4627
-889.087
5.03994
-812.711
22.8755
-690.284
41.26
-510.392
57.6063
-188.227
60.4198
316.339
57.5265
667.496
51.7481
978.645
49.6233
1345.56
40.2552
1585.31
49.6662
2016.38
37.0485
1962.85
82.24
2740.25
3055.61
-9.0682
-38.0303
-8.93688
-51.476
-8.92988
-60.5755
-8.94826
-69.3634
-9.01834
-78.0509
-9.11885
-86.3855
-9.25676
-94.6781
-9.42596
-102.852
-9.62849
-111.033
-9.86231
-119.219
-10.128
-127.471
-10.4248
-135.81
-10.753
-144.273
-11.1123
-152.886
-11.5029
-161.677
-11.9249
-170.67
-12.3787
-179.891
-12.8645
-189.363
-13.3828
-199.11
-13.9343
-209.152
-14.5195
-219.514
-15.1392
-230.216
-15.7942
-241.279
-16.4856
-252.727
-17.2143
-264.579
-17.9815
-276.857
-18.7885
-289.583
-19.6364
-302.779
-20.5268
-316.466
-21.461
-330.667
-22.4407
-345.403
-23.4674
-360.698
-24.5427
-376.574
-25.6683
-393.054
-26.8458
-410.16
-28.0766
-427.915
-29.3622
-446.341
-30.7038
-465.458
-32.1019
-485.285
-33.5567
-505.838
-35.0677
-527.127
-36.6331
-549.159
-38.2496
-571.929
-39.9121
-595.422
-41.6131
-619.605
-43.342
-644.428
-45.0847
-669.814
-46.823
-695.655
-48.5343
-721.81
-50.1912
-748.1
-51.7618
-774.311
-53.2098
-800.195
-54.495
-825.483
-55.573
-849.896
-56.394
-873.166
-56.9001
-895.038
-57.0204
-915.283
-56.6629
-933.662
-55.7038
-949.895
-53.9718
-963.555
-51.2344
-973.981
-47.1747
-979.985
-41.3974
-979.793
-33.4241
-970.21
-22.8148
-946.979
-9.17495
-902.727
7.32239
-829.208
26.3761
-709.338
45.7766
-529.792
65.5681
-208.018
70.6093
311.298
64.7754
673.33
56.2335
987.187
52.353
1349.44
41.7909
1595.87
49.7302
2008.44
36.0318
1976.55
79.9321
2696.35
3008.04
-9.70211
-38.2231
-9.559
-51.6191
-9.54564
-60.5889
-9.56232
-69.3467
-9.63456
-77.9786
-9.74033
-86.2797
-9.88619
-94.5322
-10.0658
-102.673
-10.2809
-110.818
-10.5294
-118.97
-10.8118
-127.189
-11.1273
-135.494
-11.4759
-143.925
-11.8576
-152.504
-12.2723
-161.262
-12.7203
-170.222
-13.2018
-179.41
-13.7172
-188.848
-14.2669
-198.56
-14.8515
-208.568
-15.4716
-218.894
-16.1281
-229.559
-16.8218
-240.586
-17.5538
-251.995
-18.325
-263.807
-19.1366
-276.045
-19.99
-288.73
-20.8864
-301.883
-21.8273
-315.525
-22.8142
-329.68
-23.8487
-344.369
-24.9325
-359.615
-26.067
-375.44
-27.2541
-391.867
-28.4953
-408.919
-29.7922
-426.618
-31.146
-444.987
-32.5577
-464.046
-34.0281
-483.815
-35.5568
-504.309
-37.143
-525.541
-38.7844
-547.518
-40.4771
-570.236
-42.215
-593.684
-43.9894
-617.831
-45.7883
-642.629
-47.5956
-668.006
-49.3911
-693.859
-51.1498
-720.051
-52.8419
-746.408
-54.4331
-772.72
-55.8853
-798.743
-57.1567
-824.211
-58.2023
-848.851
-58.9721
-872.396
-59.4084
-894.602
-59.4397
-915.251
-58.9716
-934.13
-57.8751
-950.992
-55.9692
-965.461
-53.0048
-976.945
-48.6399
-984.349
-42.4455
-985.987
-33.9029
-978.753
-22.5355
-958.346
-7.92026
-917.343
9.77412
-846.902
30.3193
-729.883
51.3593
-550.832
74.072
-230.731
82.1023
303.267
74.8662
680.566
62.7456
999.308
56.1595
1356.03
43.9855
1608.04
49.8599
2002.56
35.0084
1991.4
74.612
2656.75
2961.54
-10.303
-38.4283
-10.1536
-51.7686
-10.1354
-60.6071
-10.1517
-69.3304
-10.2267
-77.9036
-10.3382
-86.1682
-10.4923
-94.3782
-10.6823
-102.483
-10.91
-110.59
-11.1732
-118.707
-11.472
-126.89
-11.8058
-135.16
-12.1746
-143.556
-12.5782
-152.101
-13.0165
-160.823
-13.4899
-169.749
-13.9984
-178.901
-14.5426
-188.304
-15.1227
-197.98
-15.7395
-207.951
-16.3937
-218.24
-17.0859
-228.867
-17.8172
-239.855
-18.5885
-251.223
-19.4009
-262.995
-20.2556
-275.191
-21.1541
-287.831
-22.0975
-300.939
-23.0874
-314.535
-24.1254
-328.642
-25.213
-343.281
-26.352
-358.476
-27.544
-374.248
-28.7907
-390.62
-30.0937
-407.616
-31.4545
-425.257
-32.8744
-443.567
-34.3543
-462.566
-35.8946
-482.274
-37.495
-502.708
-39.1543
-523.882
-40.8695
-545.802
-42.6363
-568.47
-44.4476
-591.872
-46.2935
-615.985
-48.1607
-640.762
-50.0313
-666.136
-51.883
-692.008
-53.6886
-718.246
-55.416
-744.681
-57.0285
-771.107
-58.4863
-797.285
-59.7464
-822.951
-60.7632
-847.834
-61.4869
-871.672
-61.8604
-894.229
-61.812
-915.3
-61.2459
-934.696
-60.029
-952.209
-57.9713
-967.519
-54.8089
-980.108
-50.1756
-988.983
-43.6085
-992.555
-34.5474
-987.814
-22.4743
-970.42
-6.92974
-932.887
11.9425
-865.775
33.9975
-751.938
56.7878
-573.622
82.2187
-256.162
94.4555
291.031
87.5883
687.434
71.6471
1015.25
61.3114
1366.36
46.8589
1622.49
50.2251
1999.2
33.7713
2007.86
70.5069
2620.01
2923.1
-10.8983
-38.6418
-10.7458
-51.9211
-10.7245
-60.6284
-10.7416
-69.3133
-10.8203
-77.8249
-10.9383
-86.0503
-11.1012
-94.2153
-11.3023
-102.282
-11.5432
-110.349
-11.8214
-118.429
-12.1373
-126.574
-12.49
-134.808
-12.8794
-143.166
-13.3054
-151.675
-13.7679
-160.361
-14.2671
-169.249
-14.8032
-178.365
-15.3766
-187.73
-15.9878
-197.369
-16.6374
-207.301
-17.3261
-217.551
-18.0546
-228.138
-18.824
-239.085
-19.6353
-250.412
-20.4896
-262.141
-21.3881
-274.292
-22.3322
-286.887
-23.3234
-299.948
-24.3631
-313.496
-25.4529
-327.552
-26.5945
-342.14
-27.7895
-357.281
-29.0398
-372.997
-30.347
-389.313
-31.7127
-406.25
-33.1385
-423.832
-34.6255
-442.08
-36.1746
-461.017
-37.7861
-480.663
-39.4596
-501.035
-41.1932
-522.148
-42.9838
-544.012
-44.8263
-566.627
-46.7128
-589.986
-48.6323
-614.065
-50.57
-638.825
-52.5064
-664.199
-54.4171
-690.097
-56.2725
-716.39
-58.0382
-742.915
-59.6754
-769.47
-61.1421
-795.818
-62.3944
-821.699
-63.3861
-846.842
-64.068
-870.99
-64.3835
-893.913
-64.2618
-915.422
-63.6061
-935.352
-62.2799
-953.535
-60.0858
-969.713
-56.7455
-983.448
-51.8693
-993.859
-44.9589
-999.465
-35.409
-997.364
-22.6535
-983.175
-6.18727
-949.353
13.8921
-885.854
37.527
-775.573
62.215
-598.31
90.4161
-284.363
107.36
274.086
102.262
692.532
83.0557
1034.46
67.9945
1381.42
50.4335
1640.06
50.7532
1998.88
32.2554
2026.35
63.4125
2588.86
2887.95
-11.4831
-38.86
-11.3306
-52.0736
-11.3077
-60.6513
-11.3269
-69.294
-11.41
-77.7417
-11.5351
-85.9252
-11.7074
-94.043
-11.9201
-102.069
-12.1746
-110.094
-12.4684
-118.135
-12.8016
-126.24
-13.1735
-134.436
-13.5839
-142.756
-14.0325
-151.226
-14.5194
-159.874
-15.0448
-168.724
-15.6087
-177.801
-16.2117
-187.127
-16.8542
-196.726
-17.5368
-206.619
-18.2602
-216.828
-19.0253
-227.373
-19.8331
-238.277
-20.6846
-249.561
-21.5809
-261.244
-22.5235
-273.35
-23.5135
-285.897
-24.5526
-298.909
-25.6423
-312.406
-26.7842
-326.41
-27.98
-340.944
-29.2314
-356.029
-30.5403
-371.689
-31.9082
-387.945
-33.337
-404.821
-34.8281
-422.341
-36.3826
-440.526
-38.0014
-459.398
-39.6846
-478.98
-41.4315
-499.288
-43.2401
-520.34
-45.1069
-542.145
-47.026
-564.708
-48.9887
-588.023
-50.9831
-612.071
-52.9928
-636.815
-54.9966
-662.196
-56.9682
-688.125
-58.8757
-714.483
-60.6823
-741.109
-62.3468
-767.806
-63.8255
-794.34
-65.0732
-820.451
-66.0435
-845.872
-66.6877
-870.346
-66.9507
-893.65
-66.7626
-915.61
-66.0267
-936.088
-64.6042
-954.958
-62.2912
-972.026
-58.7964
-986.943
-53.7069
-998.948
-46.4879
-1006.68
-36.486
-1007.37
-23.0808
-996.58
-5.71308
-966.721
15.5863
-907.153
40.8463
-800.833
67.5524
-625.017
98.7427
-315.553
120.523
252.306
118.121
694.933
96.8587
1055.72
76.4337
1401.85
54.7488
1661.74
51.4391
2002.19
30.5545
2047.24
56.8477
2562.56
2858.34
-12.0596
-39.0798
-11.9095
-52.2237
-11.8864
-60.6744
-11.9088
-69.2716
-11.9972
-77.6533
-12.1301
-85.7923
-12.3123
-93.8608
-12.5371
-101.844
-12.8056
-109.826
-13.1154
-117.825
-13.4665
-125.889
-13.8579
-134.044
-14.2896
-142.324
-14.7613
-150.754
-15.273
-159.362
-15.8248
-168.172
-16.417
-177.209
-17.0498
-186.495
-17.7239
-196.052
-18.4398
-205.903
-19.1983
-216.069
-20.0003
-226.571
-20.8468
-237.431
-21.7388
-248.669
-22.6776
-260.306
-23.6644
-272.363
-24.7008
-284.861
-25.7882
-297.822
-26.9283
-311.266
-28.1226
-325.216
-29.373
-339.694
-30.6812
-354.721
-32.0491
-370.321
-33.4783
-386.516
-34.9706
-403.329
-36.5275
-420.784
-38.1501
-438.903
-39.8392
-457.709
-41.5948
-477.224
-43.4159
-497.467
-45.3005
-518.455
-47.2444
-540.201
-49.2412
-562.711
-51.2816
-585.983
-53.3523
-610
-55.4358
-634.731
-57.5092
-660.122
-59.5441
-686.09
-61.5064
-712.52
-63.3566
-739.259
-65.0516
-766.111
-66.5456
-792.846
-67.7922
-819.205
-68.7449
-844.919
-69.3561
-869.735
-69.572
-893.434
-69.3246
-915.857
-68.5183
-936.894
-67.0128
-956.463
-64.5991
-974.439
-60.9741
-990.568
-55.7023
-1004.22
-48.2113
-1014.17
-37.7959
-1017.78
-23.775
-1010.6
-5.52746
-984.969
17.003
-929.684
43.9271
-827.757
72.7814
-653.871
107.162
-349.933
133.829
225.639
134.629
694.133
112.735
1077.61
86.8328
1427.75
59.9186
1688.65
52.3861
2009.72
28.7854
2070.84
53.3102
2538.04
2837.39
-12.6284
-39.2989
-12.4826
-52.3695
-12.4606
-60.6964
-12.4873
-69.2449
-12.5818
-77.5589
-12.7232
-85.6509
-12.9159
-93.6681
-13.1533
-101.607
-13.4363
-109.543
-13.7624
-117.499
-14.1317
-125.52
-14.5431
-133.633
-14.9966
-141.871
-15.4917
-150.259
-16.0285
-158.825
-16.6071
-167.594
-17.2277
-176.588
-17.8908
-185.831
-18.5968
-195.346
-19.3464
-205.153
-20.1403
-215.275
-20.9795
-225.732
-21.865
-236.545
-22.7978
-247.736
-23.7794
-259.324
-24.8109
-271.331
-25.894
-283.778
-27.03
-296.685
-28.2208
-310.075
-29.468
-323.969
-30.7734
-338.388
-32.1388
-353.355
-33.5661
-368.893
-35.0571
-385.025
-36.6134
-401.773
-38.2366
-419.161
-39.9279
-437.212
-41.6879
-455.949
-43.5165
-475.395
-45.4128
-495.571
-47.3741
-516.494
-49.3962
-538.179
-51.4719
-560.635
-53.5913
-583.863
-55.7401
-607.851
-57.8993
-632.572
-60.0445
-657.977
-62.1451
-683.99
-64.1648
-710.501
-66.0619
-737.362
-67.7906
-764.382
-69.3033
-791.333
-70.5523
-817.956
-71.4914
-843.98
-72.0739
-869.152
-72.2483
-893.26
-71.949
-916.156
-71.0822
-937.761
-69.5074
-958.038
-67.012
-976.935
-63.2823
-994.298
-57.8611
-1009.64
-50.137
-1021.9
-39.3493
-1028.57
-24.7507
-1025.2
-5.64982
-1004.07
18.1161
-953.45
46.731
-856.372
77.8569
-684.997
115.553
-387.629
147.337
193.854
151.52
689.95
130.223
1098.91
99.2759
1458.7
66.1767
1721.75
53.7037
2022.19
27.0566
2097.49
46.544
2518.55
2824.27
-13.1901
-39.5153
-13.0502
-52.5095
-13.0307
-60.7158
-13.0627
-69.2129
-13.1639
-77.4577
-13.3145
-85.5003
-13.5183
-93.4644
-13.7688
-101.356
-14.0668
-109.245
-14.4098
-117.156
-14.7977
-125.132
-15.2295
-133.201
-15.705
-141.395
-16.2239
-149.74
-16.7862
-158.263
-17.3919
-166.988
-18.0414
-175.939
-18.735
-185.138
-19.4733
-194.608
-20.2568
-204.37
-21.0865
-214.445
-21.9632
-224.855
-22.8881
-235.621
-23.8622
-246.762
-24.8868
-258.299
-25.9634
-270.255
-27.0935
-282.648
-28.2786
-295.5
-29.5205
-308.833
-30.8209
-322.668
-32.1817
-337.027
-33.6048
-351.932
-35.0921
-367.406
-36.6453
-383.472
-38.2662
-400.152
-39.9563
-417.47
-41.7168
-435.451
-43.5484
-454.118
-45.4509
-473.493
-47.423
-493.599
-49.4621
-514.455
-51.5634
-536.078
-53.7194
-558.479
-55.9193
-581.663
-58.1478
-605.623
-60.3848
-630.335
-62.6041
-655.758
-64.7732
-681.821
-66.8534
-708.421
-68.8004
-735.414
-70.5662
-762.616
-72.1012
-789.798
-73.3565
-816.7
-74.2859
-843.051
-74.8444
-868.594
-74.983
-893.121
-74.6392
-916.5
-73.722
-938.678
-72.0921
-959.668
-69.5347
-979.492
-65.7271
-998.105
-60.1913
-1015.18
-52.2756
-1029.81
-41.1601
-1039.68
-26.0256
-1040.33
-6.10223
-1023.99
18.8968
-978.449
49.2192
-886.694
82.7404
-718.518
123.794
-428.683
161.146
156.503
168.702
682.393
148.85
1118.76
113.701
1493.85
73.8672
1761.59
55.6228
2040.44
25.7157
2127.39
41.588
2502.68
2810.22
-13.7455
-39.7272
-13.6127
-52.6423
-13.5968
-60.7317
-13.6351
-69.1746
-13.7439
-77.3489
-13.9043
-85.34
-14.1197
-93.2489
-14.3839
-101.092
-14.6974
-108.931
-15.0577
-116.796
-15.4646
-124.725
-15.9172
-132.749
-16.4152
-140.897
-16.9582
-149.197
-17.5463
-157.675
-18.1796
-166.355
-18.8583
-175.26
-19.5828
-184.413
-20.3536
-193.837
-21.1715
-203.552
-22.0373
-213.58
-22.9519
-223.941
-23.9165
-234.656
-24.9321
-245.746
-26.0003
-257.231
-27.1223
-269.132
-28.2998
-281.47
-29.5344
-294.266
-30.8278
-307.54
-32.182
-321.314
-33.5987
-335.611
-35.0799
-350.451
-36.6275
-365.859
-38.2435
-381.856
-39.9295
-398.466
-41.6872
-415.713
-43.5176
-433.621
-45.4215
-452.214
-47.3986
-471.516
-49.4475
-491.55
-51.5654
-512.337
-53.7471
-533.896
-55.9847
-556.242
-58.2666
-579.381
-60.5768
-603.313
-62.8937
-628.018
-65.1896
-653.462
-67.43
-679.58
-69.5738
-706.277
-71.5743
-733.414
-73.3809
-760.81
-74.9418
-788.237
-76.2073
-815.435
-77.1312
-842.127
-77.6702
-868.055
-77.7787
-893.013
-77.398
-916.881
-76.4407
-939.635
-74.7702
-961.338
-72.171
-982.091
-68.3135
-1001.96
-62.6999
-1020.79
-54.6368
-1037.88
-43.2412
-1051.08
-27.6168
-1055.96
-6.90738
-1044.7
19.3143
-1004.67
51.353
-918.733
87.3892
-754.554
131.697
-472.99
175.25
112.949
186.152
671.491
168.253
1136.66
129.922
1532.18
83.367
1808.14
58.5249
2065.28
25.0016
2160.92
40.7482
2486.93
2797
-14.295
-39.9333
-14.1705
-52.7668
-14.1594
-60.7428
-14.2049
-69.1291
-14.3219
-77.2318
-14.4928
-85.1692
-14.7204
-93.0213
-14.9988
-100.813
-15.3282
-108.602
-15.7062
-116.418
-16.1326
-124.299
-16.6064
-132.275
-17.1273
-140.376
-17.6949
-148.63
-18.3092
-157.061
-18.9704
-165.694
-19.6786
-174.552
-20.4344
-183.658
-21.2382
-193.033
-22.0908
-202.699
-22.993
-212.677
-23.9459
-222.988
-24.9506
-233.651
-26.0082
-244.688
-27.1202
-256.119
-28.2881
-267.965
-29.5134
-280.245
-30.7979
-292.981
-32.1433
-306.194
-33.5516
-319.906
-35.0246
-334.138
-36.5645
-348.911
-38.173
-364.25
-39.8523
-380.176
-41.6041
-396.714
-43.4299
-413.887
-45.331
-431.72
-47.3079
-450.237
-49.3604
-469.463
-51.4871
-489.423
-53.6848
-510.139
-55.9482
-531.633
-58.2689
-553.921
-60.6346
-577.016
-63.0284
-600.919
-65.4276
-625.619
-67.8027
-651.087
-70.1174
-677.266
-72.3283
-704.066
-74.3859
-731.356
-76.237
-758.959
-77.8278
-786.646
-79.1074
-814.155
-80.0299
-841.204
-80.5543
-867.53
-80.6384
-892.929
-80.2283
-917.291
-79.2415
-940.622
-77.5451
-963.035
-74.9251
-984.711
-71.0468
-1005.84
-65.394
-1026.44
-57.2306
-1046.04
-45.6065
-1062.7
-29.5431
-1072.02
-8.08975
-1066.16
19.3357
-1032.1
53.0953
-952.492
91.7546
-793.213
138.855
-520.091
189.472
62.3324
203.855
657.108
188.229
1152.29
147.653
1572.75
94.9545
1860.84
62.7602
2097.47
24.9289
2198.75
35.1674
2476.69
2789.43
-14.8393
-40.1323
-14.7239
-52.8822
-14.7186
-60.748
-14.7721
-69.0756
-14.8982
-77.1057
-15.0801
-84.9872
-15.3206
-92.7809
-15.6136
-100.52
-15.9595
-108.256
-16.3557
-116.021
-16.8021
-123.853
-17.2975
-131.78
-17.8416
-139.832
-18.4342
-148.037
-19.0751
-156.42
-19.7645
-165.004
-20.5027
-173.814
-21.2901
-182.87
-22.1273
-192.196
-23.015
-201.812
-23.9541
-211.738
-24.9456
-221.996
-25.9907
-232.606
-27.0907
-243.588
-28.247
-254.963
-29.4611
-266.751
-30.7347
-278.971
-32.0695
-291.646
-33.4674
-304.797
-34.9303
-318.443
-36.4603
-332.608
-38.0593
-347.312
-39.7293
-362.58
-41.4725
-378.433
-43.2906
-394.896
-45.1853
-411.992
-47.1577
-429.747
-49.2085
-448.186
-51.3373
-467.334
-53.5428
-487.217
-55.8215
-507.86
-58.1679
-529.286
-60.5731
-551.516
-63.0244
-574.564
-65.504
-598.439
-67.9878
-623.135
-70.4451
-648.629
-72.8374
-674.873
-75.1188
-701.784
-77.2373
-729.238
-79.137
-757.059
-80.7619
-785.021
-82.0597
-812.858
-82.9852
-840.279
-83.4995
-867.016
-83.5649
-892.863
-83.1331
-917.723
-82.1273
-941.628
-80.4199
-964.742
-77.8005
-987.331
-73.9317
-1009.71
-68.2805
-1032.09
-60.067
-1054.25
-48.2698
-1074.5
-31.8236
-1088.47
-9.67521
-1088.3
18.9255
-1060.7
54.4078
-987.975
95.7808
-834.586
145.213
-569.523
202.866
4.67925
221.82
638.154
208.727
1165.38
166.561
1614.92
108.688
1918.72
68.7745
2137.39
26.0655
2241.46
34.5332
2468.23
2776.76
-15.3788
-40.3234
-15.2733
-52.9877
-15.2748
-60.7466
-15.3371
-69.0133
-15.473
-76.9699
-15.6666
-84.7936
-15.9204
-92.5271
-16.2287
-100.212
-16.5915
-107.893
-17.0064
-115.606
-17.4731
-123.386
-17.9906
-131.262
-18.5584
-139.264
-19.1764
-147.419
-19.8443
-155.752
-20.5624
-164.286
-21.331
-173.045
-22.1504
-182.051
-23.0213
-191.325
-23.9444
-200.888
-24.9208
-210.762
-25.9514
-220.966
-27.0374
-231.52
-28.1802
-242.446
-29.3812
-253.762
-30.642
-265.49
-31.9643
-277.649
-33.3499
-290.261
-34.8008
-303.346
-36.3189
-316.925
-37.9062
-331.02
-39.5649
-345.654
-41.2971
-360.848
-43.1048
-376.625
-44.9899
-393.011
-46.9541
-410.028
-48.9986
-427.703
-51.1241
-446.061
-53.3302
-465.128
-55.6155
-484.932
-57.9764
-505.499
-60.4071
-526.856
-62.8986
-549.024
-65.4374
-572.026
-68.0049
-595.872
-70.5761
-620.564
-73.1185
-646.087
-75.5917
-672.4
-77.9475
-699.429
-80.131
-727.054
-82.0836
-755.106
-83.7467
-783.358
-85.0671
-811.537
-85.9999
-839.346
-86.509
-866.507
-86.5615
-892.811
-86.1153
-918.169
-85.101
-942.642
-83.3979
-966.445
-80.8009
-989.928
-76.973
-1013.54
-71.3664
-1037.7
-63.1561
-1062.46
-51.2458
-1086.41
-34.4786
-1105.24
-11.6914
-1111.09
18.0454
-1090.43
55.247
-1025.18
99.4111
-878.75
151.463
-621.575
214.596
-58.4535
240.103
612.647
229.797
1175.69
186.323
1658.39
124.338
1980.7
76.8345
2184.89
28.6285
2289.66
30.2647
2466.59
2775.89
-15.914
-40.5057
-15.819
-53.0826
-15.8282
-60.7374
-15.9001
-68.9414
-16.0464
-76.8236
-16.2524
-84.5876
-16.5202
-92.2593
-16.8442
-99.8881
-17.2245
-107.513
-17.6586
-115.172
-18.1461
-122.898
-18.686
-130.722
-19.278
-138.672
-19.9217
-146.775
-20.6171
-155.056
-21.3643
-163.539
-22.1636
-172.246
-23.0154
-181.199
-23.9205
-190.42
-24.8796
-199.929
-25.8936
-209.748
-26.9636
-219.896
-28.091
-230.393
-29.277
-241.26
-30.5232
-252.516
-31.8312
-264.182
-33.2027
-276.278
-34.6397
-288.824
-36.144
-301.841
-37.7177
-315.351
-39.363
-329.375
-41.0821
-343.935
-42.8769
-359.053
-44.7498
-374.753
-46.7026
-391.058
-48.7371
-407.994
-50.8546
-425.585
-53.0556
-443.86
-55.3401
-462.844
-57.7062
-482.566
-60.1506
-503.055
-62.6672
-524.339
-65.2466
-546.445
-67.8748
-569.397
-70.5327
-593.214
-73.1939
-617.903
-75.8247
-643.456
-78.3825
-669.842
-80.8167
-696.994
-83.0696
-724.802
-85.0794
-753.096
-86.7854
-781.652
-88.1327
-810.19
-89.0772
-838.402
-89.5858
-865.998
-89.631
-892.766
-89.1781
-918.622
-88.1658
-943.655
-86.482
-968.129
-83.9295
-992.48
-80.1748
-1017.29
-74.6581
-1043.22
-66.508
-1070.62
-54.5491
-1098.37
-37.5291
-1122.26
-14.1675
-1134.45
16.6542
-1121.26
55.5631
-1064.08
102.575
-925.762
157.618
-676.618
225.848
-126.684
258.801
579.694
251.522
1182.96
206.693
1703.22
141.441
2045.95
86.9395
2239.39
33.0951
2343.51
27.7712
2471.91
2772.75
-16.4453
-40.6784
-16.3615
-53.1665
-16.3792
-60.7197
-16.4614
-68.8591
-16.6189
-76.6661
-16.8379
-84.3686
-17.1201
-91.9771
-17.4605
-99.5477
-17.8587
-107.115
-18.3124
-114.718
-18.8213
-122.389
-19.3842
-130.159
-20.0007
-138.056
-20.6707
-146.106
-21.3939
-154.333
-22.1706
-162.762
-23.001
-171.415
-23.8857
-180.314
-24.8254
-189.48
-25.8207
-198.934
-26.8729
-208.696
-27.9829
-218.786
-29.152
-229.224
-30.3817
-240.03
-31.6736
-251.224
-33.0292
-262.826
-34.4505
-274.856
-35.9393
-287.335
-37.4976
-300.283
-39.1276
-313.721
-40.8315
-327.671
-42.6114
-342.155
-44.4697
-357.195
-46.4084
-372.814
-48.4297
-389.037
-50.5353
-405.888
-52.7265
-423.394
-55.0041
-441.582
-57.3679
-460.48
-59.8161
-480.118
-62.3453
-500.526
-64.9493
-521.735
-67.6183
-543.776
-70.3382
-566.677
-73.0888
-590.463
-75.843
-615.149
-78.5655
-640.734
-81.2118
-667.196
-83.7286
-694.478
-86.0554
-722.475
-88.1274
-751.024
-89.8809
-779.899
-91.2597
-808.811
-92.2204
-837.441
-92.7332
-865.485
-92.7767
-892.722
-92.3244
-919.074
-91.3245
-944.654
-89.6751
-969.779
-87.1895
-994.966
-83.5416
-1020.94
-78.1623
-1048.6
-70.133
-1078.64
-58.195
-1110.31
-40.9974
-1139.45
-17.1348
-1158.32
14.7074
-1153.1
55.3004
-1104.68
105.186
-975.648
163.43
-734.862
237.075
-200.329
277.965
538.804
273.978
1186.95
227.527
1749.67
159.445
2114.03
98.803
2300.04
39.5373
2402.77
29.5167
2481.93
2774.03
-16.9732
-40.841
-16.901
-53.2386
-16.928
-60.6927
-17.0213
-68.7658
-17.1906
-76.4968
-17.4232
-84.136
-17.7205
-91.6797
-18.0777
-99.1905
-18.4944
-106.698
-18.9683
-114.245
-19.4989
-121.859
-20.0852
-129.573
-20.7268
-137.414
-21.4234
-145.409
-22.175
-153.582
-22.9816
-161.956
-23.8436
-170.553
-24.7616
-179.396
-25.7363
-188.506
-26.7684
-197.902
-27.8591
-207.605
-29.0095
-217.635
-30.2209
-228.012
-31.4948
-238.756
-32.8328
-249.886
-34.2367
-261.422
-35.7082
-273.385
-37.2494
-285.794
-38.8624
-298.67
-40.5492
-312.034
-42.3123
-325.908
-44.1538
-340.313
-46.0761
-355.272
-48.0815
-370.808
-50.172
-386.946
-52.3495
-403.711
-54.6154
-421.128
-56.9705
-439.227
-59.4147
-458.036
-61.9462
-477.586
-64.5616
-497.91
-67.2546
-519.042
-70.0152
-541.015
-72.8289
-563.864
-75.6749
-587.617
-78.5252
-612.298
-81.3429
-637.916
-84.0817
-664.457
-86.6857
-691.874
-89.0913
-720.069
-91.2303
-748.885
-93.0363
-778.093
-94.4514
-807.396
-95.4328
-836.46