/*--------------------------------*- C++ -*----------------------------------*\
| =========                 |                                                 |
| \\      /  F ield         | OpenFOAM: The Open Source CFD Toolbox           |
|  \\    /   O peration     | Version:  4.1                                   |
|   \\  /    A nd           | Web:      www.OpenFOAM.org                      |
|    \\/     M anipulation  |                                                 |
\*---------------------------------------------------------------------------*/
FoamFile
{
    version     2.0;
    format      ascii;
    class       volVectorField;
    location    "6";
    object      U;
}
// * * * * * * * * * * * * * * * * * * * * * * * * * * * * * * * * * * * * * //

dimensions      [0 1 -1 0 0 0 0];

internalField   nonuniform List<vector> 
6785
(
(1.30783e-14 -2.25273 16.4239)
(1.139e-14 -7.90088 12.851)
(-3.0329e-15 -5.11047 13.6507)
(3.59388e-15 -5.07972 13.1422)
(9.02112e-16 -4.2972 12.9884)
(-1.77498e-16 -3.88776 12.6845)
(2.62378e-15 -3.47849 12.3911)
(6.7445e-16 -3.1977 12.0788)
(-6.67328e-16 -3.01462 11.7834)
(1.65744e-15 -2.95863 11.4976)
(2.31111e-16 -2.97756 11.2195)
(-5.96118e-16 -3.03897 10.9045)
(6.69231e-16 -3.48006 10.2343)
(-1.69347e-16 -3.55019 9.15308)
(-1.46796e-16 -0.00621172 7.48834)
(1.92567e-14 -10.2591 26.7205)
(1.28584e-14 -16.0503 23.0432)
(-2.55364e-15 -11.0248 23.4006)
(4.23882e-15 -11.7397 21.6004)
(6.13676e-16 -9.99541 20.7738)
(5.99582e-16 -9.32737 19.5755)
(1.48931e-15 -8.31058 18.5515)
(-5.09915e-17 -7.49729 17.4956)
(-2.67023e-16 -6.65628 16.4446)
(2.26859e-16 -5.85324 15.2831)
(-7.44739e-16 -5.07601 13.909)
(-8.88679e-16 -4.41964 12.1808)
(-2.62458e-16 -4.02898 9.97245)
(-3.20723e-16 -3.50988 7.02667)
(-2.78115e-16 -1.29321 2.4994)
(2.09317e-14 -13.1543 28.671)
(1.03491e-14 -16.8007 25.4499)
(-1.39502e-15 -12.1736 25.3768)
(3.99796e-15 -13.0935 22.9818)
(3.7276e-16 -10.9848 22.0173)
(1.20734e-15 -10.5163 20.392)
(9.8607e-16 -9.39377 19.1931)
(-4.19678e-16 -8.66003 17.8911)
(4.01611e-16 -7.68991 16.4615)
(7.42159e-16 -6.28826 14.0884)
(1.08793e-15 -3.73715 9.67117)
(4.13575e-15 -0.283504 3.15831)
(4.32014e-15 2.21603 -1.92308)
(1.12964e-15 2.47023 -2.77766)
(-1.54348e-15 1.53445 -2.27147)
(2.09021e-14 -14.3032 29.2445)
(1.01863e-14 -17.4142 26.2507)
(-1.72352e-15 -13.0705 25.9119)
(4.1519e-15 -14.4793 23.1568)
(9.60392e-16 -12.0476 22.306)
(8.13736e-16 -12.0827 20.3557)
(1.20453e-15 -10.8627 19.1676)
(5.62227e-16 -10.3824 17.7267)
(7.09706e-17 -9.56333 16.3438)
(9.01113e-16 -8.50945 14.2974)
(2.76791e-15 -6.45929 10.7798)
(2.36877e-15 -3.18532 5.35752)
(6.01406e-15 -0.178876 0.75763)
(1.53212e-14 2.83995 -2.87769)
(4.79909e-16 2.36993 -5.92657)
(2.05217e-14 -14.3396 28.2314)
(1.22345e-14 -17.7337 27.0022)
(-1.16985e-15 -13.46 25.6931)
(3.97141e-15 -14.6183 22.8231)
(2.38631e-15 -12.3327 21.8515)
(1.20952e-15 -12.31 19.7578)
(1.80884e-15 -11.1136 18.3969)
(2.11526e-15 -10.5547 16.7822)
(8.25717e-16 -9.78506 15.2891)
(1.22825e-15 -8.95191 13.5619)
(2.79549e-15 -7.76333 11.2656)
(2.33657e-15 -5.78646 8.12389)
(2.37953e-15 -3.64624 4.66098)
(3.7493e-15 -0.364975 0.830074)
(5.31177e-15 1.62735 -4.99066)
(1.94163e-14 -13.7572 26.2228)
(1.38026e-14 -17.4509 27.1527)
(-4.61731e-16 -13.4129 24.9384)
(3.07068e-15 -13.9613 21.9681)
(2.85684e-15 -11.9514 20.8507)
(1.40105e-15 -11.703 18.7554)
(1.8488e-15 -10.5232 17.2634)
(2.55693e-15 -9.80733 15.5479)
(1.64933e-15 -8.9667 13.9711)
(1.00026e-15 -8.12971 12.3769)
(1.72037e-15 -7.24325 10.6324)
(1.96951e-15 -5.97051 8.61422)
(9.57579e-16 -4.52832 6.06694)
(5.00282e-16 -1.9745 2.7976)
(5.61258e-15 0.232507 -2.56552)
(1.95612e-14 -13.1071 24.4759)
(1.53968e-14 -16.9172 26.9228)
(1.59265e-15 -13.3643 24.2984)
(2.23012e-15 -13.3343 21.2513)
(3.35698e-15 -11.6259 19.9835)
(2.73508e-15 -11.2085 18.0123)
(1.85703e-15 -10.1493 16.5098)
(2.44674e-15 -9.40903 14.9081)
(3.0412e-15 -8.6171 13.4355)
(1.53503e-15 -7.83901 12.0099)
(1.25465e-15 -7.09 10.5656)
(2.43279e-15 -6.17495 9.10024)
(1.46424e-15 -5.18157 7.35086)
(-1.22144e-15 -3.43266 5.13644)
(6.50869e-15 -1.05487 0.380589)
(1.89955e-14 -12.6673 23.5641)
(1.64233e-14 -16.2333 26.1809)
(2.50159e-15 -13.0645 23.5915)
(1.89963e-15 -12.7865 20.4461)
(3.20239e-15 -11.1498 19.1319)
(2.36796e-15 -10.7766 17.242)
(9.97639e-16 -9.84153 15.8761)
(1.57284e-15 -9.27352 14.3725)
(2.36233e-15 -8.62188 12.9522)
(1.31278e-15 -8.00857 11.5876)
(7.46603e-16 -7.44674 10.4006)
(1.21792e-15 -6.90852 9.54104)
(1.09603e-15 -6.38434 8.86735)
(-1.10344e-15 -5.3367 7.91769)
(1.44868e-15 -3.05441 4.23734)
(1.92906e-14 -12.6059 23.3167)
(1.48274e-14 -15.2364 25.0578)
(7.29525e-16 -12.385 22.5278)
(2.21997e-15 -11.9283 19.5687)
(2.86111e-15 -10.1392 18.1807)
(1.66903e-15 -9.49241 15.9019)
(2.79001e-15 -8.12315 14.0549)
(2.55568e-15 -7.46643 12.1065)
(3.41408e-16 -6.84761 10.7362)
(1.38577e-15 -6.72294 9.88391)
(8.13221e-16 -6.96459 9.89196)
(-1.60837e-15 -7.58248 10.683)
(-1.93466e-16 -8.00813 11.7912)
(-1.34316e-15 -7.8428 12.0097)
(-2.65538e-15 -5.57206 9.27222)
(1.80406e-14 -13.6853 25.1627)
(9.52548e-15 -14.6117 24.9871)
(-1.10058e-15 -12.3399 23.1299)
(1.64778e-15 -11.6771 21.1133)
(4.2073e-15 -9.81328 19.4501)
(6.84034e-15 -8.17785 16.5142)
(8.94887e-15 -5.9109 13.3939)
(8.24894e-15 -4.14902 10.3495)
(7.13493e-15 -2.65987 7.98548)
(7.4516e-15 -2.02805 6.67342)
(5.71674e-15 -2.64501 7.32864)
(1.8065e-15 -4.6471 10.0057)
(-1.91104e-16 -7.16929 13.4191)
(-1.48136e-15 -8.91867 15.2488)
(-2.76829e-15 -6.63192 12.285)
(1.84333e-14 -15.4383 28.213)
(7.35996e-15 -16.4162 27.6879)
(-1.38813e-15 -13.6729 25.6414)
(1.61574e-15 -13.3734 24.2842)
(4.9219e-15 -11.648 22.8117)
(1.09076e-14 -9.94304 19.8974)
(1.31764e-14 -7.41642 16.6121)
(1.41705e-14 -5.20445 13.3074)
(1.4528e-14 -2.9362 10.2328)
(1.49795e-14 -0.846815 7.15803)
(2.11369e-14 0.906047 4.45982)
(2.30714e-14 1.50587 3.02666)
(1.65684e-14 0.124891 4.08583)
(7.75521e-15 -2.78678 7.14359)
(-9.08468e-16 -3.61515 7.96774)
(1.81294e-14 -14.739 26.2469)
(1.08117e-14 -19.2066 31.2684)
(2.85433e-15 -16.0474 28.2696)
(1.76131e-15 -15.3261 26.0114)
(1.70416e-15 -13.9309 24.6435)
(1.00984e-14 -12.8495 22.2968)
(1.19471e-14 -10.878 19.534)
(1.11455e-14 -8.98991 16.4179)
(1.59487e-14 -6.85992 13.2946)
(1.43876e-14 -4.65705 9.89465)
(1.88575e-14 -2.24058 6.21832)
(2.35044e-14 0.261092 2.15145)
(1.03647e-14 2.74777 -1.74253)
(8.5612e-15 3.59446 -3.45108)
(1.59207e-15 1.47518 -2.19059)
(1.72246e-14 -11.6704 19.924)
(1.54462e-14 -19.2441 30.8842)
(8.11782e-15 -17.8873 29.5738)
(4.86966e-15 -16.4747 26.3182)
(1.29044e-15 -15.0916 24.0111)
(5.00889e-15 -14.1786 21.7719)
(8.08082e-15 -13.0025 19.5608)
(6.03146e-15 -11.7613 17.2161)
(8.2806e-15 -10.3661 14.8155)
(8.84967e-15 -8.83489 12.3276)
(8.59065e-15 -7.14763 9.71992)
(1.09402e-14 -5.19386 6.97424)
(8.75154e-15 -3.1542 4.03911)
(5.21942e-15 -0.301878 1.05711)
(-4.47169e-15 1.28768 -4.40126)
(1.55844e-14 -8.20056 13.0806)
(1.75935e-14 -17.2291 27.9376)
(1.0133e-14 -17.2541 28.1611)
(4.75687e-15 -14.9814 24.0522)
(-6.83229e-16 -13.2062 21.2357)
(-5.61214e-16 -12.3094 19.3572)
(1.13176e-15 -11.4981 17.7378)
(-2.5748e-16 -10.6368 15.9955)
(-2.65167e-16 -9.66604 14.165)
(6.57146e-16 -8.57929 12.2854)
(4.07552e-16 -7.4285 10.3513)
(3.08645e-16 -6.08436 8.36922)
(4.19214e-17 -4.67715 6.12759)
(-2.18685e-15 -2.50814 3.47221)
(-5.94631e-15 -0.429347 -1.54471)
(1.1659e-14 -5.61784 9.64041)
(1.8898e-14 -16.507 26.1618)
(1.59032e-14 -19.8742 29.9363)
(9.38896e-15 -19.1151 27.3488)
(8.21067e-15 -16.9458 23.2474)
(1.1517e-14 -14.8054 19.6821)
(1.43743e-14 -13.1258 17.1201)
(1.45501e-14 -11.9487 15.3452)
(1.1494e-14 -10.9799 13.8222)
(1.03264e-14 -10.0035 12.388)
(1.13443e-14 -8.93389 10.9468)
(9.40353e-15 -7.73408 9.42544)
(8.67379e-15 -6.36243 7.81128)
(1.1059e-14 -4.61502 5.73618)
(2.19803e-14 -1.60575 1.87905)
(3.29324e-16 6.94941 0.498229)
(1.16721e-16 1.99995 -0.847611)
(-1.29751e-17 -0.0961549 -0.884912)
(-3.16373e-17 0.407876 -0.915583)
(-5.22235e-17 0.373556 -0.875788)
(6.42848e-17 0.509503 -1.24224)
(3.68111e-17 0.515274 -0.850519)
(4.18879e-17 0.63446 -0.834105)
(3.57645e-17 0.64569 -0.792054)
(3.49351e-16 0.858488 -1.03755)
(3.02997e-16 0.784013 -0.691202)
(3.67881e-16 0.855733 -0.629458)
(8.77652e-16 1.10284 -0.787675)
(5.85113e-16 0.924969 -0.502037)
(7.08752e-16 1.04503 -0.473422)
(8.66236e-16 1.01385 -0.440048)
(1.76474e-15 1.24898 -0.532811)
(1.35425e-15 1.07412 -0.336046)
(1.42155e-15 1.12772 -0.307826)
(2.47512e-15 1.38644 -0.344545)
(1.70079e-15 1.11423 -0.205428)
(1.66405e-15 1.23586 -0.182305)
(1.58244e-15 1.17021 -0.158976)
(2.4544e-15 1.43526 -0.115231)
(1.89677e-15 1.14598 -0.0266646)
(2.20888e-15 1.25213 0.00268539)
(2.61748e-15 1.18229 0.011247)
(4.47534e-15 1.38919 0.105576)
(4.11342e-15 1.14136 0.112353)
(4.25635e-15 1.17154 0.0968219)
(6.25544e-15 1.37343 0.213382)
(4.70048e-15 1.06641 0.15282)
(4.50979e-15 1.15512 0.142772)
(4.00211e-15 1.08861 0.109639)
(5.03073e-15 1.24888 0.215769)
(3.20944e-15 1.00346 0.13634)
(2.50198e-15 1.03478 0.0959968)
(2.67935e-15 1.18205 0.203936)
(1.08903e-15 0.902651 0.112955)
(3.94189e-16 0.978273 0.0967837)
(-3.02463e-16 0.92638 0.0685792)
(-1.26559e-15 1.05383 0.184075)
(-1.59625e-15 0.804982 0.100066)
(-1.85272e-15 0.868966 0.0872307)
(-1.83091e-15 0.830355 0.0555536)
(-2.39862e-15 0.912748 0.162675)
(-1.47195e-15 0.701898 0.0702471)
(-1.06314e-15 0.740031 0.0279546)
(-1.02928e-15 0.799086 0.132341)
(-3.44901e-16 0.584908 0.0316786)
(-1.47077e-16 0.637143 0.00108525)
(-3.84397e-17 0.616892 -0.0438521)
(5.03919e-17 0.701166 0.038212)
(-5.94371e-17 0.543887 -0.00777732)
(-1.75673e-17 0.595211 -0.0429217)
(2.4599e-17 0.577079 -0.0706503)
(5.31642e-16 0.668672 -0.0885417)
(7.25398e-16 0.570726 -0.0896111)
(8.80675e-16 0.617104 -0.126846)
(1.18455e-15 0.59771 -0.089295)
(1.50835e-15 0.440367 -0.141649)
(1.4857e-15 0.470824 -0.167898)
(1.04894e-15 0.493649 -0.152345)
(4.13323e-15 0.425587 -0.629899)
(5.34555e-15 0.100138 -0.820091)
(3.11996e-15 0.190919 -0.497952)
(1.58369e-14 0.332305 -2.49572)
(9.89697e-16 -0.474451 -0.780309)
(-2.92953e-15 -0.199846 -0.164948)
(-7.82452e-15 -0.241943 0.494182)
(-2.71111e-14 -0.658039 3.17091)
(-3.50316e-14 -1.48369 4.55152)
(-3.58983e-14 -1.72947 4.4591)
(-3.82231e-14 -1.84626 4.75192)
(-5.8278e-14 -3.07462 7.99361)
(-4.74019e-14 -3.72586 7.18055)
(-4.67136e-14 -3.87268 7.44691)
(-5.97333e-14 -5.68545 11.2211)
(-4.14586e-14 -5.94083 9.06402)
(-3.89534e-14 -6.39251 9.65795)
(-3.87651e-14 -6.92892 11.2453)
(-3.52812e-14 -6.89177 11.0654)
(-3.50083e-14 -6.97334 11.2791)
(-4.72415e-14 -8.42689 13.7488)
(-3.83507e-14 -7.75491 12.1612)
(-4.0393e-14 -7.98883 12.5683)
(-4.01439e-14 -7.97255 12.5697)
(-3.89481e-14 -8.06057 12.5735)
(-3.68729e-14 -8.11819 12.6135)
(-3.39955e-14 -8.19401 12.6867)
(-3.08195e-14 -8.2471 12.8732)
(-2.8048e-14 -8.32289 13.1191)
(-3.13677e-14 -8.935 14.5549)
(-2.30282e-14 -8.8779 13.5073)
(-1.95601e-14 -9.0016 13.5386)
(-1.74679e-14 -8.97913 13.5245)
(-1.58724e-14 -9.10527 13.7306)
(-1.5589e-14 -9.08158 13.6623)
(-1.65944e-14 -9.1579 13.7061)
(-1.88613e-14 -9.17006 13.7345)
(-2.21403e-14 -9.22588 13.8053)
(-3.9021e-14 -9.72873 15.1391)
(-3.40543e-14 -9.70102 14.2868)
(-3.83028e-14 -9.76835 14.3278)
(-3.92457e-14 -9.78785 14.326)
(-3.90153e-14 -9.82546 14.3821)
(-3.68924e-14 -9.84161 14.5264)
(-3.33217e-14 -9.89679 14.7139)
(-2.87536e-14 -9.89717 14.7699)
(-2.40805e-14 -9.9136 14.8931)
(-2.06443e-14 -9.98557 15.018)
(-2.5354e-14 -10.1489 16.0023)
(-1.97891e-14 -10.288 15.4704)
(-2.09348e-14 -10.3101 15.6656)
(-2.38482e-14 -10.3152 15.8247)
(-2.70657e-14 -10.3431 16.0497)
(-3.05779e-14 -10.3536 16.323)
(-3.36875e-14 -10.4043 16.7509)
(-3.68414e-14 -10.3905 17.0664)
(-3.96981e-14 -10.5144 17.3475)
(-5.28379e-14 -10.2208 18.0235)
(-4.27985e-14 -10.4543 17.7137)
(-4.24172e-14 -10.437 18.3613)
(-3.99513e-14 -10.4568 18.9056)
(-3.75813e-14 -10.4343 19.3565)
(-3.51793e-14 -10.4817 19.8969)
(-3.39603e-14 -10.5235 20.4566)
(-3.44957e-14 -10.5059 21.0748)
(-3.71413e-14 -10.7918 21.8926)
(-4.9355e-14 -9.32962 21.3413)
(-4.3459e-14 -9.95849 21.1822)
(-4.72547e-14 -9.93368 21.4298)
(-4.67532e-14 -9.9238 21.468)
(-4.38189e-14 -9.96293 21.7286)
(-3.75921e-14 -9.93999 21.5357)
(-2.90406e-14 -9.88843 21.163)
(-1.96671e-14 -9.82657 20.7468)
(-1.15324e-14 -9.93757 20.2552)
(-1.34048e-16 -7.46106 16.9478)
(2.19419e-15 -8.42696 18.2094)
(4.63693e-15 -8.1856 17.6518)
(3.48831e-15 -8.19408 17.5165)
(3.22397e-15 -8.06403 17.3243)
(3.23205e-15 -7.96273 17.2072)
(4.81256e-15 -7.89422 17.2757)
(5.42199e-15 -7.68548 16.628)
(6.77019e-15 -7.53215 16.0133)
(7.75288e-15 -7.45902 15.107)
(7.0156e-15 -3.76407 8.82682)
(8.35913e-15 -5.63721 11.6979)
(8.05244e-15 -5.12723 10.1438)
(7.13482e-15 -5.2596 9.39566)
(6.24e-15 -4.91614 8.22121)
(5.2091e-15 -4.84305 6.88354)
(3.94265e-15 -4.62689 4.62584)
(2.96256e-15 -4.24183 2.52147)
(3.00775e-15 -4.29494 2.48074)
(6.03972e-16 -3.57568 -0.204678)
(2.33784e-15 -3.72194 1.40032)
(1.88433e-15 -3.71692 0.559158)
(-4.83423e-16 -2.70618 -1.49986)
(9.79741e-16 -4.42528 -0.420953)
(6.65182e-16 -3.62089 -0.634291)
(6.59041e-16 -3.3228 -0.350015)
(9.60417e-16 -4.34883 -0.52096)
(6.67951e-16 -3.07238 -0.279784)
(1.04507e-15 -4.00846 -0.39417)
(8.08514e-16 -3.8547 -0.314825)
(5.72336e-16 -3.19458 -0.210505)
(8.31559e-16 -3.90565 -0.319758)
(6.50811e-16 -3.76152 -0.275647)
(5.18112e-16 -3.23313 -0.184326)
(7.01196e-16 -4.34878 -0.276967)
(5.28973e-16 -3.04781 -0.168738)
(7.98312e-16 -3.98315 -0.239152)
(6.40666e-16 -3.65061 -0.241236)
(5.53634e-16 -3.19193 -0.164864)
(7.30436e-16 -4.2629 -0.243691)
(4.39926e-16 -2.97348 -0.145212)
(6.56052e-16 -3.89786 -0.184886)
(4.92913e-16 -3.66231 -0.20224)
(3.62469e-16 -3.04599 -0.128787)
(4.18377e-16 -3.70313 -0.198299)
(2.50122e-16 -3.49967 -0.208841)
(1.02686e-16 -3.00206 -0.142271)
(1.9316e-16 -4.01054 -0.228534)
(1.81514e-16 -2.7916 -0.152679)
(3.27911e-16 -3.63773 -0.22662)
(2.96191e-16 -3.25991 -0.246164)
(3.04111e-16 -2.84639 -0.173799)
(4.42584e-16 -3.77384 -0.26429)
(3.2673e-16 -2.61186 -0.171357)
(4.32176e-16 -3.41352 -0.24422)
(3.12334e-16 -3.14725 -0.261528)
(1.07515e-16 -2.61135 -0.18661)
(8.60986e-17 -3.15787 -0.291045)
(-7.22159e-17 -2.94782 -0.282056)
(-2.63771e-16 -2.51526 -0.203241)
(-3.85062e-16 -3.35406 -0.303648)
(-3.11685e-16 -2.31032 -0.199992)
(-4.18068e-16 -3.01711 -0.284424)
(-2.35079e-16 -2.69918 -0.266198)
(7.41617e-17 -2.35107 -0.190077)
(2.20418e-16 -3.14488 -0.260701)
(1.21223e-16 -2.16433 -0.154284)
(3.05138e-16 -2.8613 -0.166283)
(2.9645e-16 -2.70001 -0.125228)
(2.51416e-16 -2.23576 -0.0486829)
(4.31758e-16 -2.75562 -0.0176165)
(3.63069e-16 -2.62706 -0.000442123)
(2.62397e-16 -2.25486 0.0339255)
(2.57773e-16 -3.06061 0.0526922)
(1.12242e-16 -2.1307 0.0574932)
(-6.6875e-17 -2.81751 0.0963288)
(-3.04348e-16 -2.52686 0.0248239)
(-3.88333e-16 -2.20951 0.0278061)
(-6.12669e-16 -2.96579 -0.00294552)
(-5.48953e-16 -2.04247 -0.00431853)
(-7.82826e-16 -2.70033 -0.0119694)
(-6.47522e-16 -2.46292 -0.0726776)
(-4.97734e-16 -2.04227 -0.0384802)
(-6.1983e-16 -2.49228 -0.0739507)
(-4.00579e-16 -2.29043 -0.0934741)
(-1.8011e-16 -1.94904 -0.0581926)
(-1.72701e-16 -2.61798 -0.12001)
(-1.85462e-17 -1.77234 -0.0939028)
(1.2264e-17 -2.33542 -0.172198)
(2.81041e-17 -2.01163 -0.232463)
(-3.34829e-17 -1.72249 -0.206485)
(-1.17264e-16 -2.29211 -0.368535)
(-1.48917e-16 -1.49149 -0.306852)
(-2.821e-16 -1.96754 -0.499683)
(-2.6557e-16 -1.6898 -0.50331)
(-2.20951e-16 -1.32106 -0.409297)
(-3.67938e-16 -1.59841 -0.66403)
(-3.7013e-16 -1.35143 -0.650269)
(-3.02002e-16 -1.03965 -0.542069)
(-4.15128e-16 -1.45714 -0.818537)
(-3.30716e-16 -0.764575 -0.611757)
(-5.07874e-16 -0.951797 -0.977784)
(2.60881e-67 0.0501223 0.0507404)
(2.90342e-66 0.0681873 0.04939)
(1.11898e-65 0.080759 0.0496647)
(-1.96673e-67 0.0925551 0.0495847)
(-2.81734e-64 0.10432 0.0500272)
(-1.60817e-63 0.115538 0.0504905)
(-1.26101e-63 0.126728 0.0512339)
(3.81956e-62 0.137737 0.0521042)
(2.3538e-61 0.148763 0.0531851)
(7.64031e-62 0.15979 0.0544266)
(-6.6357e-60 0.170907 0.0558563)
(-3.4463e-59 0.182138 0.0574575)
(3.85532e-59 0.193535 0.0592399)
(1.23452e-57 0.205131 0.0611982)
(4.45408e-57 0.216965 0.0633364)
(-1.78747e-56 0.22907 0.0656538)
(-2.15074e-55 0.241479 0.0681533)
(-3.9153e-55 0.254225 0.0708363)
(4.80943e-54 0.267338 0.0737059)
(3.20067e-53 0.280848 0.0767654)
(-8.54427e-54 0.294786 0.0800187)
(-9.67165e-52 0.30918 0.0834701)
(-3.68601e-51 0.32406 0.0871248)
(1.24834e-50 0.339455 0.0909883)
(1.51732e-49 0.355393 0.0950668)
(2.56468e-49 0.371905 0.0993672)
(-3.04598e-48 0.389018 0.103897)
(-1.84002e-47 0.406762 0.108663)
(7.59783e-48 0.425166 0.113675)
(4.86717e-46 0.444261 0.118941)
(1.63352e-45 0.464075 0.124471)
(-5.47312e-45 0.484641 0.130274)
(-5.77377e-44 0.505987 0.136362)
(-8.75636e-44 0.528144 0.142744)
(9.41422e-43 0.551143 0.14943)
(5.23271e-42 0.575013 0.156433)
(-6.47529e-43 0.599782 0.163762)
(-1.06451e-40 0.625478 0.171426)
(-3.64172e-40 0.652125 0.179434)
(7.03845e-40 0.67974 0.187794)
(9.07707e-39 0.708337 0.196507)
(1.97123e-38 0.737919 0.205575)
(-8.47153e-38 0.768476 0.21499)
(-6.28772e-37 0.79998 0.224739)
(-8.96161e-37 0.832382 0.234797)
(6.67741e-36 0.865602 0.245127)
(3.86171e-35 0.899525 0.255675)
(4.19488e-35 0.933994 0.266366)
(-4.32484e-34 0.968804 0.2771)
(-2.30549e-33 1.0037 0.287751)
(-2.28767e-33 1.03837 0.29816)
(2.64978e-32 1.07248 0.308135)
(1.3703e-31 1.10564 0.317451)
(1.22469e-31 1.13747 0.325846)
(-1.5749e-30 1.16758 0.333018)
(-7.6442e-30 1.19561 0.338621)
(-5.98326e-30 1.2212 0.342244)
(8.17341e-29 1.24395 0.343391)
(3.72312e-28 1.2634 0.34143)
(3.26467e-28 1.27879 0.335546)
(-3.16327e-27 1.28905 0.324625)
(-1.47178e-26 1.2923 0.307241)
(-1.95749e-26 1.28589 0.281405)
(6.96101e-26 1.26525 0.244874)
(4.09658e-25 1.22483 0.194656)
(8.67096e-25 1.15491 0.128745)
(7.78749e-26 1.04649 0.0442756)
(-5.15493e-24 0.877488 -0.0545001)
(-1.79422e-23 0.636054 -0.166383)
(-2.39248e-23 0.208401 -0.279107)
(-6.74263e-23 -0.421148 -0.360758)
(1.30781e-22 -0.874328 -0.347278)
(-4.51527e-22 -1.28073 -0.366089)
(1.9871e-21 -1.77799 -0.286034)
(-9.628e-21 -2.0803 -0.356016)
(1.0904e-19 -2.70055 -0.163579)
(-1.69802e-18 -2.57641 -0.502941)
(3.95292e-17 -3.75454 0.00790506)
(-1.29406e-16 -4.21762 -1.12441)
(2.92131e-67 0.0503974 0.0577696)
(1.22293e-65 0.0683989 0.0558842)
(6.57091e-65 0.0807525 0.0561195)
(1.14747e-64 0.0925128 0.0559287)
(-9.58039e-64 0.104187 0.0563837)
(-8.46234e-63 0.115352 0.0568608)
(-2.09664e-62 0.126474 0.057669)
(1.22661e-61 0.137427 0.0586206)
(1.23683e-60 0.148393 0.0598132)
(2.71085e-60 0.159362 0.0611858)
(-2.31531e-59 0.17042 0.0627701)
(-1.93372e-58 0.181593 0.0645454)
(-2.17937e-58 0.192933 0.0665224)
(4.85883e-57 0.20447 0.0686944)
(2.88249e-56 0.216246 0.0710656)
(-1.83532e-56 0.228293 0.0736346)
(-9.54659e-55 0.240643 0.0764045)
(-3.59952e-54 0.253329 0.0793764)
(1.31058e-53 0.266381 0.0825536)
(1.6194e-52 0.279829 0.0859393)
(2.92392e-52 0.293704 0.0895376)
(-3.46807e-51 0.308033 0.0933529)
(-2.24267e-50 0.322847 0.0973907)
(6.74063e-51 0.338173 0.101657)
(6.42712e-49 0.354042 0.106158)
(2.34692e-48 0.37048 0.1109)
(-7.83217e-48 0.387518 0.115892)
(-9.08162e-47 0.405184 0.121142)
(-1.48528e-46 0.423508 0.126659)
(1.67961e-45 0.44252 0.132451)
(9.85988e-45 0.462248 0.13853)
(-2.84688e-45 0.482724 0.144904)
(-2.35691e-43 0.503977 0.151585)
(-7.95624e-43 0.526038 0.158583)
(2.2134e-42 0.548937 0.165909)
(2.46184e-41 0.572704 0.173574)
(4.26505e-41 0.597368 0.181588)
(-3.34321e-40 0.622955 0.18996)
(-1.98888e-39 0.649491 0.198697)
(-7.76542e-40 0.676993 0.207803)
(3.28187e-38 0.705478 0.217279)
(1.27018e-37 0.734948 0.227121)
(-1.09545e-37 0.765397 0.237315)
(-2.42564e-36 0.7968 0.24784)
(-6.61109e-36 0.829111 0.258661)
(1.40158e-35 0.862255 0.269727)
(1.44727e-34 0.896124 0.280965)
(2.9363e-34 0.930568 0.292281)
(-1.00971e-33 0.96539 0.303552)
(-7.38797e-33 1.00034 0.314625)
(-1.13799e-32 1.03513 0.325315)
(5.85313e-32 1.06942 0.335406)
(3.38486e-31 1.10285 0.344652)
(3.54959e-31 1.13503 0.352775)
(-3.1196e-30 1.1656 0.359464)
(-1.43841e-29 1.1942 0.364367)
(-7.28158e-30 1.2205 0.367064)
(1.52333e-28 1.24416 0.36704)
(5.81508e-28 1.26474 0.363615)
(1.40612e-28 1.28158 0.355893)
(-6.03602e-27 1.2937 0.342612)
(-2.18948e-26 1.29935 0.322144)
(-1.43912e-26 1.29604 0.292177)
(1.53987e-25 1.27937 0.250156)
(6.52785e-25 1.24372 0.192657)
(1.0442e-24 1.17937 0.117634)
(-1.00496e-24 1.07634 0.0218637)
(-9.87603e-24 0.912118 -0.0889726)
(-2.79868e-23 0.672408 -0.215375)
(-3.46602e-23 0.24464 -0.342775)
(-7.1787e-23 -0.434249 -0.420416)
(1.26465e-22 -0.899762 -0.381416)
(-4.49431e-22 -1.31296 -0.387225)
(1.99206e-21 -1.80533 -0.300091)
(-9.83687e-21 -2.11985 -0.364688)
(1.13531e-19 -2.70695 -0.168216)
(-1.77353e-18 -2.62047 -0.498791)
(3.97917e-17 -3.69319 0.00777751)
(-1.25008e-16 -4.12053 -1.09959)
(-2.21833e-66 0.0505662 0.0615463)
(3.65344e-65 0.0685276 0.0594536)
(2.66415e-64 0.0807532 0.0596658)
(7.75457e-64 0.0924898 0.0594176)
(-2.01111e-63 0.104112 0.0598806)
(-3.14692e-62 0.115248 0.0603674)
(-1.19695e-61 0.126333 0.0612126)
(2.26904e-61 0.137256 0.0622107)
(4.56132e-60 0.148188 0.0634662)
(1.65607e-59 0.159126 0.0649125)
(-5.18075e-59 0.170153 0.0665831)
(-7.41828e-58 0.181295 0.0684554)
(-1.96267e-57 0.192603 0.0705406)
(1.31935e-56 0.20411 0.072831)
(1.19303e-55 0.215855 0.075331)
(1.37692e-55 0.227869 0.0780391)
(-2.97123e-54 0.240188 0.0809581)
(-1.70169e-53 0.252842 0.0840892)
(1.50014e-53 0.265862 0.0874356)
(5.61717e-52 0.279277 0.0910005)
(1.9085e-51 0.293118 0.0947882)
(-8.17609e-51 0.307413 0.0988032)
(-8.69438e-50 0.322191 0.103051)
(-1.236e-49 0.337482 0.107537)
(1.87067e-48 0.353313 0.112269)
(1.06562e-47 0.369713 0.117254)
(-7.36655e-48 0.386712 0.122499)
(-3.00832e-46 0.404337 0.128013)
(-9.63952e-46 0.422619 0.133805)
(3.70076e-45 0.441587 0.139884)
(3.68162e-44 0.46127 0.146261)
(5.06807e-44 0.481699 0.152946)
(-6.45784e-43 0.502904 0.15995)
(-3.46851e-42 0.524915 0.167284)
(1.25507e-42 0.547763 0.174958)
(7.64188e-41 0.571477 0.182983)
(2.4671e-40 0.596087 0.19137)
(-6.16693e-40 0.621619 0.200125)
(-6.81103e-39 0.648098 0.209256)
(-1.24941e-38 0.675546 0.218766)
(7.65055e-38 0.703975 0.228654)
(4.74927e-37 0.733393 0.238913)
(3.73669e-37 0.763792 0.249526)
(-6.19615e-36 0.795152 0.260466)
(-2.65692e-35 0.827427 0.271692)
(8.27257e-37 0.860548 0.283146)
(3.72909e-34 0.894408 0.294745)
(1.21953e-33 0.928861 0.306382)
(-7.92571e-34 0.963717 0.317923)
(-1.7487e-32 0.998732 0.3292)
(-4.58817e-32 1.03362 0.340015)
(5.47548e-32 1.06804 0.350142)
(6.53939e-31 1.10163 0.359324)
(1.29497e-30 1.13403 0.367279)
(-3.01497e-30 1.16486 0.373697)
(-2.02256e-29 1.19378 0.378225)
(-1.81846e-29 1.22047 0.380443)
(1.67205e-28 1.24461 0.379827)
(6.05665e-28 1.26579 0.375672)
(-3.25773e-28 1.28341 0.367036)
(-8.08297e-27 1.29654 0.352572)
(-2.23504e-26 1.30353 0.330539)
(1.07556e-26 1.30196 0.298436)
(2.58507e-25 1.28751 0.253524)
(8.16939e-25 1.25452 0.192134)
(7.94797e-25 1.19321 0.112172)
(-3.10921e-24 1.09298 0.0101466)
(-1.57746e-23 0.931122 -0.107568)
(-3.73212e-23 0.691439 -0.24329)
(-4.14076e-23 0.260785 -0.374834)
(-8.26067e-23 -0.41844 -0.495652)
(1.17223e-22 -0.892868 -0.44158)
(-4.45937e-22 -1.30997 -0.423545)
(1.99877e-21 -1.7964 -0.323228)
(-1.01319e-20 -2.12146 -0.378067)
(1.19519e-19 -2.68238 -0.175488)
(-1.8635e-18 -2.62741 -0.49169)
(4.0132e-17 -3.62024 0.0140384)
(-1.20503e-16 -4.03432 -1.07713)
(-2.04622e-65 0.0508365 0.0658787)
(8.57176e-65 0.0687295 0.0636007)
(9.7056e-64 0.08077 0.0637987)
(3.93411e-63 0.0924663 0.0635014)
(-6.83882e-64 0.10401 0.0639799)
(-1.04615e-61 0.1151 0.0644856)
(-5.56651e-61 0.126128 0.065379)
(-1.09024e-61 0.137003 0.0664366)
(1.50291e-59 0.147885 0.06777)
(7.90432e-59 0.158776 0.0693069)
(-4.66763e-59 0.169755 0.0710827)
(-2.54869e-57 0.18085 0.0730727)
(-1.06601e-56 0.192111 0.0752885)
(2.6498e-56 0.203571 0.0777218)
(4.3869e-55 0.215269 0.080377)
(1.17389e-54 0.227237 0.0832522)
(-7.85574e-54 0.239508 0.0863502)
(-6.8747e-53 0.252114 0.0896722)
(-6.4164e-53 0.265085 0.0932216)
(1.72166e-51 0.27845 0.0970013)
(9.01317e-51 0.292241 0.101016)
(-1.15376e-50 0.306484 0.10527)
(-2.97768e-49 0.32121 0.109769)
(-8.81863e-49 0.336445 0.11452)
(4.49816e-48 0.352221 0.119528)
(4.0966e-47 0.368563 0.124802)
(4.32993e-47 0.385502 0.13035)
(-8.69487e-46 0.403066 0.136181)
(-4.39112e-45 0.421284 0.142303)
(4.40003e-45 0.440186 0.148726)
(1.2e-43 0.459802 0.155461)
(3.44475e-43 0.48016 0.162519)
(-1.41675e-42 0.501292 0.169911)
(-1.26656e-41 0.523228 0.177647)
(-1.58812e-41 0.545998 0.185739)
(2.02899e-40 0.569633 0.194196)
(1.03872e-39 0.59416 0.20303)
(-2.36443e-40 0.619609 0.212247)
(-2.01856e-38 0.646003 0.221853)
(-6.61222e-38 0.673365 0.231851)
(1.21483e-37 0.701711 0.242237)
(1.52431e-36 0.731047 0.253)
(3.26098e-36 0.76137 0.264122)
(-1.24638e-35 0.792661 0.275569)
(-9.04791e-35 0.824879 0.287294)
(-1.27548e-34 0.857957 0.299228)
(7.98888e-34 0.891796 0.311279)
(4.29731e-33 0.926256 0.323326)
(4.36072e-33 0.961152 0.335219)
(-3.56179e-32 0.996249 0.346776)
(-1.62191e-31 1.03126 0.357781)
(-1.48527e-31 1.06587 0.367994)
(1.07719e-30 1.09971 0.377145)
(4.47663e-30 1.13241 0.384948)
(4.24604e-30 1.16362 0.391087)
(-1.84951e-29 1.19301 0.395211)
(-5.92411e-29 1.22029 0.396901)
(-2.88631e-30 1.24514 0.395625)
(1.01688e-28 1.26721 0.390654)
(-1.47983e-27 1.28599 0.381002)
(-8.39365e-27 1.30062 0.365232)
(-8.83056e-27 1.30958 0.341477)
(8.11584e-26 1.31058 0.307026)
(4.36771e-25 1.29942 0.258905)
(9.31887e-25 1.27038 0.193138)
(-1.68397e-25 1.2136 0.107476)
(-7.60862e-24 1.11769 -0.00190554)
(-2.62534e-23 0.959809 -0.128083)
(-5.09734e-23 0.720863 -0.275325)
(-4.76004e-23 0.292985 -0.417132)
(-9.7394e-23 -0.408855 -0.567486)
(1.04042e-22 -0.900281 -0.522399)
(-4.40594e-22 -1.32083 -0.477365)
(2.00666e-21 -1.80031 -0.355659)
(-1.05006e-20 -2.13303 -0.39694)
(1.26316e-19 -2.67121 -0.185349)
(-1.954e-18 -2.64267 -0.48415)
(4.04727e-17 -3.56642 0.0204461)
(-1.16642e-16 -3.97805 -1.00534)
(-1.14403e-64 0.0510928 0.0699529)
(9.34451e-65 0.0689184 0.0675614)
(3.14612e-63 0.0807904 0.067751)
(1.70149e-62 0.092445 0.0674187)
(2.30387e-62 0.103916 0.0679162)
(-3.02031e-61 0.11496 0.0684457)
(-2.25995e-60 0.125935 0.0693888)
(-3.82239e-60 0.136766 0.0705075)
(4.30268e-59 0.147601 0.071919)
(3.25062e-58 0.158447 0.0735462)
(3.6028e-58 0.169382 0.075426)
(-7.73465e-57 0.180433 0.077532)
(-4.70417e-56 0.191651 0.0798762)
(1.06081e-56 0.203067 0.0824495)
(1.43824e-54 0.214722 0.0852565)
(6.11331e-54 0.226645 0.0882948)
(-1.5398e-53 0.238873 0.0915675)
(-2.45394e-52 0.251434 0.0950756)
(-6.02498e-52 0.264359 0.0988225)
(4.49933e-51 0.277679 0.102811)
(3.58164e-50 0.291423 0.107046)
(2.15342e-50 0.305619 0.111533)
(-8.98925e-49 0.320295 0.116276)
(-4.19788e-48 0.335481 0.121283)
(7.22351e-48 0.351205 0.12656)
(1.38019e-46 0.367494 0.132115)
(3.52889e-46 0.384379 0.137957)
(-2.09481e-45 0.401886 0.144094)
(-1.66415e-44 0.420046 0.150536)
(-1.28765e-44 0.438888 0.157293)
(3.40016e-43 0.458441 0.164376)
(1.55629e-42 0.478735 0.171795)
(-1.79747e-42 0.499801 0.179562)
(-4.00919e-41 0.521669 0.187688)
(-1.07615e-40 0.544368 0.196185)
(4.27847e-40 0.56793 0.205061)
(3.64626e-39 0.592383 0.214328)
(4.7491e-39 0.617757 0.223993)
(-5.05884e-38 0.644075 0.23406)
(-2.61421e-37 0.671362 0.244531)
(-3.78472e-38 0.699634 0.255399)
(4.20028e-36 0.7289 0.266653)
(1.50335e-35 0.759158 0.278269)
(-1.28617e-35 0.790392 0.29021)
(-2.64315e-34 0.822566 0.30242)
(-7.16429e-34 0.855617 0.314822)
(1.11831e-33 0.889451 0.327315)
(1.29205e-32 0.923934 0.339764)
(2.99414e-32 0.958887 0.352006)
(-4.78885e-32 0.99408 0.36384)
(-4.8597e-31 1.02924 0.375038)
(-1.14225e-30 1.06403 0.385343)
(8.09065e-31 1.09812 0.394477)
(1.28811e-29 1.13113 0.402146)
(3.70122e-29 1.16271 0.408034)
(3.03576e-29 1.19254 0.411795)
(-1.47426e-28 1.22034 0.41301)
(-7.59109e-28 1.24584 0.411146)
(-2.28021e-27 1.26874 0.405455)
(-5.1414e-27 1.28857 0.394915)
(-3.39699e-27 1.3046 0.378007)
(4.50514e-26 1.31541 0.352749)
(2.68498e-25 1.31884 0.316221)
(7.77402e-25 1.31079 0.265211)
(8.84708e-25 1.28552 0.195426)
(-2.73081e-24 1.23307 0.104399)
(-1.69853e-23 1.14127 -0.0120568)
(-4.54068e-23 0.987244 -0.1467)
(-7.14508e-23 0.748978 -0.305858)
(-4.9318e-23 0.323521 -0.458514)
(-1.12531e-22 -0.397468 -0.635901)
(8.96291e-23 -0.912554 -0.617894)
(-4.3181e-22 -1.34202 -0.551532)
(2.01459e-21 -1.81381 -0.399701)
(-1.09454e-20 -2.15307 -0.421984)
(1.33699e-19 -2.66737 -0.19836)
(-2.04e-18 -2.66582 -0.476132)
(4.08055e-17 -3.51736 0.0292616)
(-1.14398e-16 -3.92259 -0.968914)
(-5.19728e-64 0.0513782 0.0739658)
(-5.08248e-64 0.0691241 0.0715039)
(8.80551e-63 0.080818 0.071692)
(6.5267e-62 0.0924232 0.0713379)
(1.67891e-61 0.103812 0.0718593)
(-7.00031e-61 0.114805 0.0724186)
(-8.20184e-60 0.125721 0.0734155)
(-2.46035e-59 0.136501 0.0745996)
(9.92221e-59 0.147284 0.0760928)
(1.1894e-57 0.158081 0.077814)
(3.00145e-57 0.168966 0.0798013)
(-1.99295e-56 0.179969 0.0820269)
(-1.81016e-55 0.191138 0.0845028)
(-2.5272e-55 0.202506 0.0872197)
(4.15226e-54 0.214112 0.0901818)
(2.59017e-53 0.225988 0.0933868)
(-7.17482e-54 0.238166 0.0968376)
(-7.80547e-52 0.250678 0.100535)
(-3.12535e-51 0.263553 0.104483)
(9.00499e-51 0.276823 0.108685)
(1.25167e-49 0.290514 0.113144)
(2.6525e-49 0.304657 0.117867)
(-2.33455e-48 0.31928 0.122858)
(-1.64948e-47 0.33441 0.128125)
(-4.0979e-48 0.350077 0.133675)
(4.10075e-46 0.366308 0.139516)
(1.70118e-45 0.383131 0.145656)
(-3.60081e-45 0.400577 0.152104)
(-5.49801e-44 0.418672 0.158871)
(-1.22873e-43 0.437448 0.165966)
(8.0894e-43 0.456932 0.173402)
(5.77362e-42 0.477155 0.181188)
(3.54437e-42 0.498147 0.189336)
(-1.10187e-40 0.519939 0.197858)
(-4.72947e-40 0.542561 0.206765)
(5.15857e-40 0.566043 0.216067)
(1.10705e-38 0.590415 0.225775)
(2.94971e-38 0.615705 0.235894)
(-9.85603e-38 0.64194 0.24643)
(-8.66102e-37 0.669144 0.257381)
(-1.33297e-36 0.697335 0.268741)
(9.6178e-36 0.726524 0.280496)
(5.42173e-35 0.756712 0.292616)
(3.99575e-35 0.787885 0.305062)
(-6.53628e-34 0.820013 0.31777)
(-2.78968e-33 0.853036 0.330656)
(-7.84463e-34 0.886868 0.343605)
(3.28989e-32 0.921379 0.356474)