/*--------------------------------*- C++ -*----------------------------------*\
| =========                 |                                                 |
| \\      /  F ield         | OpenFOAM: The Open Source CFD Toolbox           |
|  \\    /   O peration     | Version:  4.1                                   |
|   \\  /    A nd           | Web:      www.OpenFOAM.org                      |
|    \\/     M anipulation  |                                                 |
\*---------------------------------------------------------------------------*/
FoamFile
{
    version     2.0;
    format      ascii;
    class       volScalarField;
    location    "25";
    object      p;
}
// * * * * * * * * * * * * * * * * * * * * * * * * * * * * * * * * * * * * * //

dimensions      [0 2 -2 0 0 0 0];

internalField   nonuniform List<scalar> 
225
(
523.378
469.981
418.149
369.738
324.847
282.83
243.476
206.472
171.377
138.013
107.072
78.9328
49.9039
14.985
-14.1671
56.9437
34.6827
28.924
25.2138
19.7397
14.0322
8.87934
4.49058
1.00665
-1.4521
-2.64339
-2.14174
-0.0453024
1.82621
2.08638
-45.8387
-52.4817
-46.7148
-42.5679
-39.4773
-35.8819
-31.9956
-28.0583
-24.1539
-20.438
-17.0925
-14.0254
-10.9485
-8.29573
-7.06148
0.29503
-2.123
2.46979
2.79396
2.84755
3.06274
2.97362
2.59632
2.01477
1.2556
0.298859
-0.810472
-1.72076
-1.87298
-1.56252
16.7229
14.3902
15.9439
13.8459
12.4271
11.1835
9.77358
8.39173
7.1343
6.04325
5.14225
4.42971
3.95213
3.91942
4.16428
7.4948
5.47179
6.44577
5.22646
5.02346
5.0077
4.91993
4.95325
5.10884
5.35235
5.67164
6.03451
6.35418
6.6109
6.78564
4.02337
2.86796
3.95354
3.63046
4.01729
4.41141
4.7104
5.06106
5.41763
5.74241
6.03211
6.28603
6.46426
6.54529
6.561
5.70122
5.14343
5.99777
5.76877
5.9673
6.07981
6.10373
6.14903
6.17363
6.16881
6.14512
6.11733
6.08368
6.03783
5.98936
6.00855
5.68316
6.19398
5.9181
5.96094
5.93012
5.85505
5.80796
5.75233
5.69175
5.63249
5.57937
5.53265
5.48656
5.43535
4.68897
4.48129
4.82695
4.65055
4.72331
4.73226
4.71936
4.72755
4.72495
4.71818
4.70858
4.69384
4.67163
4.63635
4.57861
3.31909
3.20292
3.50057
3.44663
3.56623
3.6129
3.64151
3.67646
3.69306
3.6999
3.69788
3.68532
3.66124
3.62297
3.55742
2.3451
2.28493
2.53917
2.54044
2.65875
2.70011
2.72916
2.75622
2.76374
2.76162
2.75016
2.72922
2.69933
2.66052
2.59586
1.56583
1.53085
1.73318
1.74695
1.84613
1.87251
1.89485
1.91196
1.91228
1.90541
1.89082
1.86857
1.83899
1.80425
1.74638
0.880957
0.868824
1.02973
1.03443
1.11147
1.12509
1.14293
1.15503
1.15449
1.14955
1.13867
1.12166
1.09669
1.06555
1.01133
0.438718
0.399381
0.455233
0.423159
0.459333
0.440667
0.434337
0.420296
0.399405
0.376729
0.350124
0.321444
0.291015
0.261066
0.218034
)
;

boundaryField
{
    inletFace
    {
        type            zeroGradient;
    }
    inlet
    {
        type            zeroGradient;
    }
    inletWalls
    {
        type            zeroGradient;
    }
    outletInlet
    {
        type            fixedValue;
        value           uniform 0;
    }
}


// ************************************************************************* //
