/*--------------------------------*- C++ -*----------------------------------*\
| =========                 |                                                 |
| \\      /  F ield         | OpenFOAM: The Open Source CFD Toolbox           |
|  \\    /   O peration     | Version:  4.1                                   |
|   \\  /    A nd           | Web:      www.OpenFOAM.org                      |
|    \\/     M anipulation  |                                                 |
\*---------------------------------------------------------------------------*/
FoamFile
{
    version     2.0;
    format      ascii;
    class       surfaceScalarField;
    location    "25";
    object      phi;
}
// * * * * * * * * * * * * * * * * * * * * * * * * * * * * * * * * * * * * * //

dimensions      [0 3 -1 0 0 0 0];

internalField   nonuniform List<scalar> 
420
(
-949.879
2249.78
-1573.96
1924.28
-2054
1779.95
-2424.23
1670.13
-2699.86
1575.83
-2888.38
1488.42
-2993.06
1404.58
-3013.85
1321
-2949.61
1235.66
-2797.23
1147.52
-2551.16
1054.13
-2193
941.736
-1687.17
794.069
-1012.68
625.709
287.217
373.335
1876.44
442.747
1854.86
437.299
1785.39
406.696
1700.73
380.577
1601.94
359.897
1509.1
345.288
1419.19
337.533
1328.76
333.48
1239.71
326.951
1154.05
309.607
1071.48
267.468
983.877
191.433
870.104
111.459
705.684
398.676
33.5755
1842.87
-97.3889
1985.83
-253.613
1941.62
-371.121
1818.24
-473.184
1704.01
-567.533
1603.45
-651.75
1503.4
-725.796
1402.8
-788.074
1301.99
-837.305
1203.28
-868.224
1102.4
-856.084
971.738
-740.331
754.351
-434.28
399.633
-35.6046
28.7744
1814.09
-100.653
2115.25
-225.561
2066.53
-304.496
1897.18
-368.158
1767.67
-416.954
1652.24
-446.229
1532.68
-457.016
1413.59
-451.853
1296.83
-430.153
1181.58
-387.224
1059.47
-311.871
896.386
-192.862
635.344
-48.4072
255.18
-84.0118
169.623
1644.47
146.156
2138.72
123.731
2088.95
122.869
1898.04
126.94
1763.6
135.804
1643.38
149.101
1519.38
166.591
1396.1
186.941
1276.47
208.13
1160.39
229.131
1038.47
243.823
881.692
233.003
646.159
155.228
332.95
71.2159
223.072
1421.4
244.176
2117.62
234.74
2098.39
236.018
1896.76
240.366
1759.25
244.301
1639.44
246.543
1517.14
245.248
1397.4
241.158
1280.56
233.984
1167.57
221.378
1051.07
199.136
903.931
156.139
689.151
78.2999
410.784
149.516
203.311
1218.09
238.362
2082.57
213.61
2123.14
191.401
1918.97
177.195
1773.45
163.764
1652.87
150.031
1530.87
135.89
1411.54
121.065
1295.39
106.913
1181.72
92.8184
1065.17
75.7672
920.981
52.0233
712.895
19.0225
443.785
168.538
171.845
1046.24
221.97
2032.44
199.412
2145.7
170.397
1947.98
152.047
1791.8
137.665
1667.26
122.776
1545.76
108.578
1425.74
95.5838
1308.38
83.1058
1194.2
71.4854
1076.79
58.6352
933.835
40.3248
731.211
15.752
468.363
184.29
146.088
900.154
210.046
1968.48
196.863
2158.88
170.042
1974.81
152.395
1809.45
139.526
1680.13
127.064
1558.22
113.861
1438.94
101.318
1320.93
89.4203
1206.1
76.9879
1089.22
63.0913
947.733
44.3075
749.996
19.1684
493.503
203.459
116.755
783.398
184.841
1900.39
179.617
2164.1
154.301
2000.12
137.213
1826.54
123.992
1693.35
111.364
1570.85
98.9558
1451.35
86.104
1333.78
73.8642
1218.34
62.1024
1100.98
49.0261
960.811
32.861
766.165
13.191
513.177
216.65
83.1578
700.241
143.126
1840.43
144.68
2162.55
122.757
2022.05
106.15
1843.15
94.4623
1705.03
82.5813
1582.73
71.1719
1462.76
60.3898
1344.56
49.4639
1229.27
39.4307
1111.02
29.7517
970.495
18.0933
777.83
5.24884
526.027
221.899
51.24
649.004
97.9186
1793.75
102.709
2157.76
87.3862
2037.37
73.1614
1857.37
63.157
1715.04
54.2622
1591.63
44.8852
1472.14
36.1779
1353.27
28.2046
1237.24
20.4574
1118.76
13.7141
977.232
6.76213
784.77
-0.400058
533.179
221.498
25.127
623.877
57.717
1761.16
63.5116
2151.96
53.475
2047.41
43.8985
1866.95
36.1889
1722.75
29.563
1598.25
23.5219
1478.18
17.0808
1359.71
11.3401
1242.97
6.64548
1123.46
2.51053
981.353
-1.04964
788.311
-3.68001
535.792
217.818
1.42686
622.448
24.0754
1738.51
33.3775
2142.66
27.7373
2053.05
20.3755
1874.31
15.0709
1728.06
9.53238
1603.79
4.57842
1483.14
0.0263955
1364.26
-4.84402
1247.85
-8.36315
1126.98
-9.66983
982.673
-9.73572
788.39
-7.14489
533.212
210.674
-11.7215
-3.11203
1.48112
-0.378777
-5.07491
-8.82699
-11.7777
-15.22
-18.0852
-20.221
-21.7891
-21.1287
-18.143
-12.399
)
;

boundaryField
{
    inletFace
    {
        type            calculated;
        value           nonuniform List<scalar> 
450
(
-4.15057e-14
6.37102e-13
-8.65545e-14
-1.55094e-13
1.23714e-13
-1.90727e-13
-6.69483e-14
6.71948e-14
-1.04647e-13
-2.85835e-14
5.85327e-14
-3.21641e-14
-1.00662e-14
8.44526e-15
2.60405e-16
-2.1671e-12
-2.19496e-12
1.05137e-13
-3.24868e-13
-2.45166e-13
1.94226e-14
-2.90404e-13
-1.40735e-13
5.6592e-15
-1.32664e-13
-5.23212e-14
4.73875e-14
-1.76818e-14
-5.26549e-15
-1.61721e-15
-2.20187e-12
-2.3373e-12
-6.95047e-14
-3.46916e-13
-2.42956e-13
-1.07398e-13
-2.82587e-13
-9.21425e-14
-8.39764e-14
-9.65653e-14
-1.63952e-14
-1.77052e-14
-6.88784e-15
8.18516e-15
-5.46672e-16
-2.49676e-12
-2.21599e-12
-1.54167e-13
-4.93748e-13
-2.07943e-13
-2.21844e-13
-3.93809e-13
-8.55423e-14
-1.37338e-13
-1.74874e-13
-8.39333e-15
-5.89635e-14
-7.06268e-14
4.18527e-14
6.41567e-14
-2.3967e-12
-2.24154e-12
-2.61541e-13
-4.38336e-13
-1.66555e-13
-2.50419e-13
-3.79187e-13
-1.16097e-13
-1.44093e-13
-1.75732e-13
-3.13498e-14
-4.39816e-14
-6.76719e-14
7.78269e-15
4.26074e-14
-2.11922e-12
-2.28674e-12
-4.43177e-13
-3.34485e-13
-1.43775e-13
-2.00537e-13
-3.5546e-13
-1.33253e-13
-1.52998e-13
-1.75984e-13
-3.44358e-14
-2.60054e-14
-5.45143e-14
-2.03826e-14
4.31728e-15
-1.89416e-12
-2.38502e-12
-7.03932e-13
-3.19264e-13
-1.75148e-13
-2.01992e-13
-3.39278e-13
-1.72081e-13
-1.8522e-13
-1.78272e-13
-7.1038e-14
-8.14744e-14
-4.14812e-14
-1.04774e-13
-1.60021e-13
-1.66737e-12
-2.42544e-12
-9.41146e-13
-3.37105e-13
-1.85862e-13
-2.21665e-13
-3.25834e-13
-2.03223e-13
-2.14979e-13
-1.7807e-13
-1.12375e-13
-1.51332e-13
-4.04755e-14
-4.42404e-14
-2.49852e-13
-1.41138e-12
-2.42099e-12
-1.12959e-12
-3.73686e-13
-1.88953e-13
-2.02793e-13
-3.14646e-13
-2.21195e-13
-1.8718e-13
-1.94419e-13
-1.26089e-13
-1.15491e-13
-5.63698e-14
-3.09343e-14
-7.58399e-14
-1.21517e-12
-2.38035e-12
-1.27865e-12
-4.3327e-13
-1.9318e-13
-1.78413e-13
-2.91694e-13
-2.25812e-13
-1.54738e-13
-1.85098e-13
-1.2898e-13
-9.59563e-14
-6.50685e-14
-4.69807e-14
5.75223e-14
-1.02473e-12
-2.32257e-12
-1.39865e-12
-4.69729e-13
-2.00553e-13
-1.67849e-13
-2.57067e-13
-2.25468e-13
-1.48822e-13
-1.51111e-13
-1.30629e-13
-8.91132e-14
-2.05865e-14
-3.29073e-14
9.0143e-14
-8.89793e-13
-2.27545e-12
-1.45426e-12
-5.22105e-13
-2.18727e-13
-1.31539e-13
-2.5405e-13
-2.34337e-13
-1.09215e-13
-1.52533e-13
-1.44456e-13
-2.81287e-14
-1.49718e-14
9.14142e-14
1.41654e-13
-8.29326e-13
-2.22233e-12
-1.49856e-12
-5.68324e-13
-2.34506e-13
-1.22617e-13
-2.46348e-13
-2.49764e-13
-1.03678e-13
-1.50326e-13
-1.43446e-13
-1.26912e-14
-1.87502e-14
1.05812e-13
1.25036e-13
-7.89824e-13
-2.17749e-12
-1.53125e-12
-5.96451e-13
-2.4638e-13
-1.28136e-13
-2.33468e-13
-2.63467e-13
-1.04473e-13
-1.46105e-13
-1.47187e-13
-8.2808e-15
-1.24275e-14
8.85322e-14
1.06206e-13
-7.87237e-13
-2.10732e-12
-1.52658e-12
-6.22919e-13
-2.56661e-13
-1.35435e-13
-2.28975e-13
-2.48702e-13
-1.11572e-13
-1.44737e-13
-1.31762e-13
-1.2899e-14
-5.60692e-15
8.55002e-14
6.29255e-14
4.15057e-14
-6.37102e-13
8.65545e-14
1.55094e-13
-1.23714e-13
1.90727e-13
6.69483e-14
-6.71948e-14
1.04647e-13
2.85835e-14
-5.85327e-14
3.21641e-14
1.00662e-14
-8.44526e-15
-2.60405e-16
2.1671e-12
2.19496e-12
-1.05137e-13
3.24868e-13
2.45166e-13
-1.94226e-14
2.90404e-13
1.40735e-13
-5.6592e-15
1.32664e-13
5.23212e-14
-4.73875e-14
1.76818e-14
5.26549e-15
1.61721e-15
2.20187e-12
2.3373e-12
6.95047e-14
3.46916e-13
2.42956e-13
1.07398e-13
2.82587e-13
9.21425e-14
8.39764e-14
9.65653e-14
1.63952e-14
1.77052e-14
6.88784e-15
-8.18516e-15
5.46672e-16
2.49676e-12
2.21599e-12
1.54167e-13
4.93748e-13
2.07943e-13
2.21844e-13
3.93809e-13
8.55423e-14
1.37338e-13
1.74874e-13
8.39333e-15
5.89635e-14
7.06268e-14
-4.18527e-14
-6.41567e-14
2.3967e-12
2.24154e-12
2.61541e-13
4.38336e-13
1.66555e-13
2.50419e-13
3.79187e-13
1.16097e-13
1.44093e-13
1.75732e-13
3.13498e-14
4.39816e-14
6.76719e-14
-7.78269e-15
-4.26074e-14
2.11922e-12
2.28674e-12
4.43177e-13
3.34485e-13
1.43775e-13
2.00537e-13
3.5546e-13
1.33253e-13
1.52998e-13
1.75984e-13
3.44358e-14
2.60054e-14
5.45143e-14
2.03826e-14
-4.31728e-15
1.89416e-12
2.38502e-12
7.03932e-13
3.19264e-13
1.75148e-13
2.01992e-13
3.39278e-13
1.72081e-13
1.8522e-13
1.78272e-13
7.1038e-14
8.14744e-14
4.14812e-14
1.04774e-13
1.60021e-13
1.66737e-12
2.42544e-12
9.41146e-13
3.37105e-13
1.85862e-13
2.21665e-13
3.25834e-13
2.03223e-13
2.14979e-13
1.7807e-13
1.12375e-13
1.51332e-13
4.04755e-14
4.42404e-14
2.49852e-13
1.41138e-12
2.42099e-12
1.12959e-12
3.73686e-13
1.88953e-13
2.02793e-13
3.14646e-13
2.21195e-13
1.8718e-13
1.94419e-13
1.26089e-13
1.15491e-13
5.63698e-14
3.09343e-14
7.58399e-14
1.21517e-12
2.38035e-12
1.27865e-12
4.3327e-13
1.9318e-13
1.78413e-13
2.91694e-13
2.25812e-13
1.54738e-13
1.85098e-13
1.2898e-13
9.59563e-14
6.50685e-14
4.69807e-14
-5.75223e-14
1.02473e-12
2.32257e-12
1.39865e-12
4.69729e-13
2.00553e-13
1.67849e-13
2.57067e-13
2.25468e-13
1.48822e-13
1.51111e-13
1.30629e-13
8.91132e-14
2.05865e-14
3.29073e-14
-9.0143e-14
8.89793e-13
2.27545e-12
1.45426e-12
5.22105e-13
2.18727e-13
1.31539e-13
2.5405e-13
2.34337e-13
1.09215e-13
1.52533e-13
1.44456e-13
2.81287e-14
1.49718e-14
-9.14142e-14
-1.41654e-13
8.29326e-13
2.22233e-12
1.49856e-12
5.68324e-13
2.34506e-13
1.22617e-13
2.46348e-13
2.49764e-13
1.03678e-13
1.50326e-13
1.43446e-13
1.26912e-14
1.87502e-14
-1.05812e-13
-1.25036e-13
7.89824e-13
2.17749e-12
1.53125e-12
5.96451e-13
2.4638e-13
1.28136e-13
2.33468e-13
2.63467e-13
1.04473e-13
1.46105e-13
1.47187e-13
8.2808e-15
1.24275e-14
-8.85322e-14
-1.06206e-13
7.87237e-13
2.10732e-12
1.52658e-12
6.22919e-13
2.56661e-13
1.35435e-13
2.28975e-13
2.48702e-13
1.11572e-13
1.44737e-13
1.31762e-13
1.2899e-14
5.60692e-15
-8.55002e-14
-6.29255e-14
)
;
    }
    inlet
    {
        type            calculated;
        value           nonuniform List<scalar> 
15
(
-1299.9
-1300.2
-1299.9
-1299.9
-1300.2
-1299.9
-1299.9
-1300.2
-1299.9
-1299.9
-1300.2
-1299.9
-1299.9
-1300.2
-1299.9
)
;
    }
    inletWalls
    {
        type            calculated;
        value           uniform 0;
    }
    outletInlet
    {
        type            calculated;
        value           nonuniform List<scalar> 
15
(
198.275
527.469
785.405
982.014
1128.54
1249.99
1367.13
1486.58
1606.74
1731.81
1879.01
2054.9
2138.07
1729.9
634.166
)
;
    }
}


// ************************************************************************* //
