/*--------------------------------*- C++ -*----------------------------------*\
| =========                 |                                                 |
| \\      /  F ield         | OpenFOAM: The Open Source CFD Toolbox           |
|  \\    /   O peration     | Version:  4.1                                   |
|   \\  /    A nd           | Web:      www.OpenFOAM.org                      |
|    \\/     M anipulation  |                                                 |
\*---------------------------------------------------------------------------*/
FoamFile
{
    version     2.0;
    format      ascii;
    class       volVectorField;
    location    "25";
    object      U;
}
// * * * * * * * * * * * * * * * * * * * * * * * * * * * * * * * * * * * * * //

dimensions      [0 1 -1 0 0 0 0];

internalField   nonuniform List<vector> 
225
(
(1.13185e-14 0.852191 15.7946)
(8.87295e-15 -4.89458 12.1215)
(-3.21068e-15 -4.19551 12.1321)
(7.01386e-15 -3.60119 11.9966)
(7.47076e-16 -3.00468 11.8778)
(-2.12507e-16 -2.55319 11.6992)
(1.95974e-15 -2.20881 11.4769)
(2.7934e-16 -1.96603 11.2116)
(-3.11544e-17 -1.79855 10.916)
(9.81048e-16 -1.71238 10.5882)
(1.08193e-17 -1.83746 10.1561)
(-2.35063e-16 -2.2857 9.53761)
(8.90105e-16 -2.513 8.96383)
(-5.8465e-17 -1.0655 8.91353)
(-1.80274e-18 1.76575 7.47091)
(1.5692e-14 -5.35016 22.493)
(1.5197e-14 -14.6049 21.394)
(-7.27845e-16 -13.2708 20.3411)
(2.43583e-15 -11.7697 19.5066)
(1.69743e-15 -11.1561 18.5044)
(-1.34459e-16 -10.6594 17.5174)
(2.12116e-15 -10.0901 16.5714)
(9.74389e-16 -9.52499 15.6236)
(-3.91775e-17 -8.96543 14.6638)
(7.38516e-16 -8.3673 13.6946)
(3.62251e-16 -7.75709 12.7179)
(-3.28054e-16 -7.30336 11.7194)
(1.14726e-16 -7.01709 10.6244)
(3.64561e-17 -5.73094 9.16117)
(1.11956e-17 -2.30499 4.58307)
(1.72889e-14 -7.71566 23.9801)
(1.97413e-14 -16.7731 24.6729)
(4.81224e-16 -13.7365 23.9372)
(7.3395e-15 -12.3062 22.6249)
(1.68194e-15 -11.6447 21.2414)
(7.4358e-16 -10.814 20.0013)
(3.09629e-15 -9.94024 18.7738)
(-1.27666e-15 -9.1001 17.5247)
(5.8142e-16 -8.28338 16.2654)
(1.45766e-15 -7.47525 15.0263)
(1.13501e-16 -6.66761 13.8176)
(1.22584e-16 -5.84165 12.4301)
(5.31007e-16 -4.8139 10.2752)
(1.61641e-15 -3.12625 6.68438)
(3.78495e-18 -0.8321 1.68991)
(1.72776e-14 -8.50259 22.0462)
(1.5341e-14 -16.621 24.332)
(1.06728e-15 -12.93 23.7971)
(3.41855e-15 -12.1536 21.9985)
(1.36836e-15 -11.4201 20.5028)
(1.56012e-15 -10.4936 19.1722)
(2.72661e-15 -9.63388 17.8167)
(5.13208e-16 -8.82359 16.459)
(9.78624e-16 -8.05362 15.123)
(1.19587e-15 -7.32378 13.8164)
(4.9974e-17 -6.55248 12.4394)
(3.05261e-16 -5.49087 10.583)
(4.64171e-16 -3.78525 7.50867)
(-9.71183e-17 -1.49365 2.76603)
(-9.0623e-16 0.153274 -1.773)
(1.63804e-14 -8.47615 19.748)
(1.51736e-14 -16.3601 24.312)
(1.63229e-15 -13.099 23.6602)
(2.83994e-15 -12.628 21.5365)
(8.42092e-16 -11.8565 20.0248)
(1.51381e-15 -10.9574 18.6637)
(2.50816e-15 -10.1698 17.2587)
(-6.8823e-16 -9.40277 15.8711)
(-3.25662e-16 -8.65258 14.5236)
(1.14605e-15 -7.9305 13.2135)
(7.47295e-16 -7.16587 11.8292)
(-6.26723e-16 -6.11615 9.99627)
(3.62146e-16 -4.42403 7.15555)
(-2.02382e-15 -2.3053 3.28792)
(-6.61135e-16 -0.787199 0.317744)
(1.48952e-14 -8.02194 17.5537)
(1.58727e-14 -16.0195 24.5277)
(3.19545e-15 -13.6434 24.0461)
(2.77734e-15 -12.9943 21.7651)
(1.04447e-15 -12.1264 20.2157)
(1.4925e-15 -11.2247 18.847)
(2.46081e-15 -10.4389 17.4341)
(9.81784e-16 -9.64886 16.0433)
(1.18682e-15 -8.86034 14.6933)
(1.21831e-15 -8.09323 13.3817)
(3.13873e-16 -7.29727 12.0171)
(4.38821e-16 -6.28455 10.2817)
(2.67191e-16 -4.73296 7.72082)
(4.9872e-16 -2.75607 4.37237)
(9.78065e-16 -0.949359 1.29731)
(1.32474e-14 -7.33746 15.2536)
(1.65325e-14 -15.491 24.355)
(4.9578e-15 -14.0225 24.4218)
(2.21048e-15 -13.1278 22.0675)
(1.26284e-15 -12.1447 20.4401)
(1.50608e-15 -11.2358 19.0546)
(2.34905e-15 -10.436 17.6437)
(1.25405e-15 -9.6198 16.2576)
(2.10103e-15 -8.81012 14.9066)
(1.2343e-15 -8.02719 13.5918)
(6.56667e-16 -7.22391 12.2368)
(9.43031e-16 -6.24018 10.5487)
(2.87203e-16 -4.78742 8.10734)
(3.50508e-16 -2.91403 4.94701)
(2.38021e-15 -1.01084 1.79735)
(1.08662e-14 -6.55628 13.0331)
(1.67925e-14 -14.847 23.8164)
(6.47311e-15 -14.2638 24.669)
(2.75195e-15 -13.2372 22.3215)
(1.28681e-15 -12.1674 20.5831)
(1.42613e-15 -11.2657 19.1666)
(2.25564e-15 -10.4651 17.7586)
(1.40701e-15 -9.64312 16.3765)
(1.35062e-15 -8.83492 15.0245)
(5.55841e-16 -8.05526 13.7073)
(7.78027e-16 -7.25498 12.3576)
(8.57371e-16 -6.28685 10.6995)
(2.80198e-16 -4.89093 8.33084)
(3.06297e-16 -3.08516 5.26756)
(1.23301e-15 -1.12219 2.0439)
(9.77083e-15 -5.77842 11.1239)
(1.67603e-14 -14.1745 23.0906)
(7.69508e-15 -14.4412 24.8462)
(2.58698e-15 -13.3963 22.6148)
(1.3081e-15 -12.2528 20.7553)
(1.24275e-15 -11.3493 19.2955)
(2.17826e-15 -10.5477 17.8904)
(1.53131e-15 -9.72541 16.5109)
(1.09207e-15 -8.91942 15.1561)
(1.34594e-15 -8.14022 13.8351)
(8.72902e-16 -7.33995 12.4864)
(6.12566e-16 -6.38016 10.8513)
(3.90241e-16 -5.0235 8.5467)
(2.14155e-16 -3.26573 5.55823)
(-4.11732e-16 -1.2375 2.24759)
(8.21365e-15 -5.08507 9.59945)
(1.64789e-14 -13.5192 22.3001)
(8.38814e-15 -14.5349 24.9522)
(2.86264e-15 -13.5531 22.9352)
(1.33736e-15 -12.3447 20.9698)
(1.18129e-15 -11.425 19.4566)
(1.32409e-15 -10.6173 18.0505)
(1.56327e-15 -9.79441 16.672)
(1.00316e-15 -8.98822 15.3135)
(1.13277e-15 -8.20617 13.9873)
(8.92915e-16 -7.40469 12.6355)
(5.70679e-16 -6.45144 11.0132)
(-9.41315e-16 -5.1252 8.75503)
(3.25241e-16 -3.40646 5.8194)
(-6.98423e-16 -1.31901 2.43084)
(7.1983e-15 -4.5388 8.4624)
(1.61297e-14 -12.9255 21.5504)
(9.74664e-15 -14.5349 24.9757)
(3.25178e-15 -13.6653 23.2209)
(1.43886e-15 -12.4128 21.1811)
(9.44573e-16 -11.4735 19.612)
(1.77959e-15 -10.659 18.2003)
(1.62429e-15 -9.83693 16.8208)
(7.55217e-16 -9.03203 15.4584)
(1.04609e-15 -8.24852 14.1268)
(9.87348e-16 -7.44643 12.7691)
(2.39133e-16 -6.49767 11.1497)
(1.42513e-16 -5.19251 8.91831)
(-4.38279e-16 -3.50179 6.0104)
(-1.18259e-15 -1.36377 2.54249)
(6.15993e-15 -4.17052 7.70288)
(1.57786e-14 -12.4378 20.9278)
(9.80688e-15 -14.4733 24.9365)
(3.61447e-15 -13.7315 23.4377)
(1.53962e-15 -12.4592 21.3593)
(8.28279e-16 -11.5039 19.7404)
(1.75876e-15 -10.6832 18.3206)
(1.39849e-15 -9.86359 16.9391)
(7.21429e-16 -9.06121 15.5729)
(1.05597e-15 -8.27767 14.2364)
(1.00005e-15 -7.47496 12.8709)
(9.94942e-17 -6.52687 11.2465)
(1.62136e-16 -5.23308 9.02647)
(-7.15856e-16 -3.55803 6.12616)
(-1.17262e-15 -1.37739 2.57275)
(5.64274e-15 -3.97353 7.27993)
(1.5358e-14 -12.0683 20.4614)
(1.03966e-14 -14.3843 24.8626)
(3.89976e-15 -13.7598 23.5826)
(1.62345e-15 -12.4875 21.4968)
(8.48863e-16 -11.5229 19.8405)
(1.67573e-15 -10.6965 18.4119)
(1.82593e-15 -9.8799 17.0278)
(6.82706e-16 -9.08051 15.6583)
(1.04081e-15 -8.29719 14.3169)
(1.03523e-15 -7.49314 12.9421)
(3.99126e-17 -6.54212 11.3061)
(1.29821e-16 -5.25094 9.08427)
(-6.50009e-16 -3.5788 6.1754)
(-1.01361e-15 -1.36521 2.53888)
(5.40338e-15 -3.90384 7.11053)
(1.50619e-14 -11.8313 20.1818)
(1.04645e-14 -14.2998 24.79)
(4.11722e-15 -13.7667 23.6685)
(1.69287e-15 -12.5018 21.5897)
(8.87045e-16 -11.5319 19.9095)
(1.6313e-15 -10.7003 18.4745)
(1.80782e-15 -9.88536 17.0882)
(7.23232e-16 -9.08777 15.7171)
(1.03066e-15 -8.3039 14.3728)
(9.97989e-16 -7.49765 12.9905)
(5.73253e-17 -6.54297 11.3432)
(1.1506e-16 -5.25323 9.11701)
(-6.53807e-16 -3.58355 6.20145)
(-7.35226e-16 -1.35011 2.50647)
(5.43515e-15 -4.03927 7.28648)
(1.45817e-14 -11.6269 19.9518)
(1.05753e-14 -14.1917 24.6679)
(4.31239e-15 -13.7464 23.7083)
(1.77032e-15 -12.5066 21.6738)
(9.44736e-16 -11.5393 19.9773)
(1.58516e-15 -10.6995 18.535)
(1.71364e-15 -9.88698 17.1438)
(7.81222e-16 -9.09053 15.7695)
(1.00199e-15 -8.30496 14.4183)
(9.06978e-16 -7.48991 13.0147)
(9.5195e-17 -6.51529 11.3281)
(3.8816e-17 -5.20593 9.06116)
(-6.02087e-16 -3.5016 6.0827)
(-4.16549e-16 -1.2525 2.30734)
)
;

boundaryField
{
    inletFace
    {
        type            zeroGradient;
    }
    inlet
    {
        type            fixedValue;
        value           uniform (0 8.7 15);
    }
    inletWalls
    {
        type            noSlip;
    }
    outletInlet
    {
        type            zeroGradient;
    }
}


// ************************************************************************* //
