/*--------------------------------*- C++ -*----------------------------------*\
| =========                 |                                                 |
| \\      /  F ield         | OpenFOAM: The Open Source CFD Toolbox           |
|  \\    /   O peration     | Version:  4.1                                   |
|   \\  /    A nd           | Web:      www.OpenFOAM.org                      |
|    \\/     M anipulation  |                                                 |
\*---------------------------------------------------------------------------*/
FoamFile
{
    version     2.0;
    format      ascii;
    class       volScalarField;
    location    "22";
    object      p;
}
// * * * * * * * * * * * * * * * * * * * * * * * * * * * * * * * * * * * * * //

dimensions      [0 2 -2 0 0 0 0];

internalField   nonuniform List<scalar> 
6785
(
591.565
513.837
467.331
414.536
368.337
323.854
282.403
243.132
205.939
170.639
136.557
103.292
74.2464
44.2615
3.18446
-10.2477
-27.6
-17.4751
-24.3104
-23.4303
-25.6994
-26.2033
-26.6703
-26.2347
-24.911
-22.3834
-19.0329
-14.2553
-7.86062
-4.84187
13.7978
9.22897
17.9927
13.094
16.6217
15.2141
15.7977
15.2047
14.8558
14.2832
13.974
14.1221
14.3327
14.1433
13.6506
15.6926
11.2537
13.0579
6.89733
7.01084
2.6812
0.920916
-2.15643
-4.44918
-6.8319
-8.56332
-9.44133
-10.3395
-11.7404
-11.706
-17.6603
-21.1665
-19.3222
-23.0696
-21.3563
-23.9479
-23.589
-24.8668
-25.2487
-25.8961
-26.1095
-25.8687
-25.3092
-25.0667
-23.7519
-8.67763
-9.41292
-6.42933
-8.03489
-5.01495
-5.79687
-3.96338
-3.62605
-2.58865
-1.8602
-0.949131
-0.0963728
1.30134
2.52245
5.20069
15.6048
16.2896
18.9022
18.2522
21.0423
21.0415
22.9656
23.8658
25.2841
26.5507
27.9618
29.2855
30.8294
31.985
33.6386
31.5447
32.6012
34.6193
34.2723
36.4731
36.5843
38.0631
38.8047
39.842
40.7625
41.7314
42.6447
43.7384
44.5461
45.7258
47.6965
48.8468
50.2839
50.1069
51.7252
51.6677
52.6771
52.8464
53.3014
53.6944
54.2658
55.0069
55.9059
56.5352
57.3832
57.5156
58.3603
59.2649
59.2087
60.4312
60.4898
61.3117
61.5415
61.9312
61.8932
61.5202
60.9435
60.3441
60.384
60.1675
67.9732
66.3619
66.6098
65.239
65.2265
63.7508
62.8569
60.8836
58.6968
55.8231
52.9273
50.3994
48.8263
48.516
46.3442
40.3442
35.6264
33.2712
29.5263
27.0102
23.6915
21.5061
19.2489
17.8335
16.6315
15.8261
15.2601
15.1893
14.8333
12.1584
13.2493
8.53555
5.26583
1.92926
-0.37474
-3.08098
-4.79051
-6.36614
-7.63041
-9.01791
-10.4257
-11.6476
-12.5815
-13.5417
-13.3705
-8.87355
-7.95263
-6.69558
-6.46846
-6.51361
-6.88958
-7.01547
-7.41269
-7.88298
-8.39222
-8.5929
-8.41512
-7.45627
-6.60782
-5.27782
41.5268
42.1275
43.024
39.6493
33.8567
28.968
24.8977
20.8331
17.4487
15.1902
13.1445
11.7878
11.1076
10.7033
10.282
38.0815
38.5214
38.8587
38.8383
38.9852
39.4891
40.2023
40.017
39.928
39.8463
40.3633
39.8092
39.6758
39.923
39.122
38.9266
39.005
39.1421
37.8172
38.29
38.366
37.1043
36.9063
37.6246
37.6505
36.3373
36.1892
37.0381
37.4043
35.8264
36.9066
37.2141
36.1
35.9971
36.8485
37.2496
36.1026
36.8839
37.2581
36.5411
36.4385
37.038
37.1721
36.6144
36.5261
36.9963
36.8375
36.1874
36.6752
36.6802
36.2764
36.2023
36.4823
36.8798
36.6362
36.548
36.6421
37.4781
37.3224
37.2251
38.1167
38.0624
37.963
37.8397
38.3186
38.3889
39.548
38.2773
36.5802
37.8234
39.4753
31.5505
27.4874
30.9473
35.9526
8.99469
19.0788
27.5351
-21.4018
-9.63119
-4.29611
-7.10832
-2.94781
-8.67242
-9.08047
-2.96724
-3.04097
-2.10258
-1.83182
-0.855919
1.31403
4.9133
5.6561
0.232521
2.1491
5.57787
9.08941
9.66003
11.4451
12.4704
14.2854
18.6364
16.3586
19.3665
20.3749
22.7163
26.1134
28.381
29.6858
31.5458
30.7249
37.137
36.9906
39.2965
40.414
41.4688
43.5272
46.6013
48.3967
45.0271
50.5026
52.9831
55.4928
56.3951
55.9648
55.3661
54.6253
56.667
51.9243
59.4991
61.54
57.4267
57.2688
56.5063
53.5243
51.2989
49.3028
41.005
49.0106
54.0498
47.262
44.1795
39.5782
34.1119
29.1421
26.3877
22.6615
16.9115
18.1822
18.498
13.3412
12.784
11.3691
9.50871
3.50122
1.4704
3.79555
-2.21175
6.68474
4.79559
4.35711
10.8083
5.54585
8.61836
7.78987
9.59629
12.3277
9.0913
11.1167
12.4956
10.7739
11.6101
11.1916
11.6861
12.5
11.3882
11.8116
11.4477
11.7011
11.9936
11.285
11.5589
11.6134
11.2406
11.2983
11.135
11.1434
11.1239
10.8977
10.8686
10.7731
10.723
10.6634
10.4083
10.3404
10.3516
9.97829
9.79502
9.69244
9.4696
9.3086
9.09859
8.86044
8.59114
8.42733
8.15743
8.05902
7.77121
7.39461
7.41554
7.07445
6.67408
6.60138
6.22357
6.33866
5.92211
5.49166
5.45924
5.05927
5.29232
4.88189
4.31573
4.72291
4.22747
3.77519
3.79082
3.35603
3.74467
3.16172
2.72242
2.70326
2.24506
2.60849
1.98101
1.26709
1.83027
0.976137
0.430825
0.267461
-0.266717
0.00224269
0.00754697
0.00873362
0.0120737
0.0135857
0.01613
0.0181844
0.0208369
0.0235012
0.0265378
0.0297539
0.0332448
0.0369355
0.0407775
0.0446892
0.0487476
0.0533968
0.0595694
0.0682598
0.0795155
0.0915812
0.101249
0.105395
0.1025
0.0931211
0.0792505
0.0632389
0.0470064
0.0317495
0.0179439
0.00547699
-0.00615058
-0.0176028
-0.0295292
-0.0423942
-0.0561959
-0.0707743
-0.0889091
-0.139566
-0.216786
-0.098082
-0.659059
-0.498905
-0.573416
-0.726432
-0.861045
-0.989669
-1.09549
-1.15596
-1.16982
-1.14218
-1.06838
-0.954816
-0.817036
-0.658058
-0.478035
-0.288164
-0.0873642
0.13421
0.363254
0.576136
0.740122
0.851378
0.912807
0.928105
0.898673
0.829241
0.722635
0.592201
0.448002
0.306048
0.15229
0.059046
0.0711233
0.130667
0.120441
0.184719
0.0960038
0.463306
0.00479907
0.0186719
0.0214393
0.0304492
0.0339115
0.0404736
0.0455111
0.0522571
0.0589475
0.0666177
0.0747002
0.0834857
0.0928171
0.102573
0.112225
0.120746
0.126437
0.127258
0.121626
0.109509
0.0929838
0.0757217
0.0614772
0.0524208
0.0484328
0.0476996
0.0478938
0.0471777
0.0445601
0.0396244
0.0320673
0.0213859
0.00680542
-0.0126271
-0.0379093
-0.070269
-0.111983
-0.162846
-0.256928
-0.406585
-0.0462291
-0.958966
-0.712
-0.867494
-1.12885
-1.35716
-1.57382
-1.74496
-1.82924
-1.82346
-1.7354
-1.56193
-1.31988
-1.02603
-0.691844
-0.332203
0.0360312
0.405693
0.767682
1.09916
1.37951
1.5916
1.73724
1.81628
1.82688
1.76386
1.62841
1.42505
1.17243
0.895425
0.621469
0.350723
0.18224
0.215283
0.320784
0.319705
0.486054
0.317781
1.1511
0.00763518
0.0315329
0.036612
0.0520868
0.0582875
0.0696354
0.0784592
0.0901415
0.101756
0.115032
0.129026
0.144228
0.160383
0.177349
0.194448
0.210476
0.223564
0.231637
0.233185
0.228082
0.217764
0.204543
0.190457
0.17642
0.162206
0.147075
0.130372
0.111907
0.0918846
0.0703899
0.0469142
0.0202189
-0.011463
-0.0500899
-0.0974714
-0.155144
-0.225265
-0.308241
-0.455519
-0.686777
-0.023932
-1.03945
-0.758373
-0.951219
-1.26815
-1.54103
-1.79905
-2.00116
-2.09619
-2.08207
-1.96849
-1.75223
-1.45336
-1.09067
-0.680271
-0.241394
0.205761
0.649333
1.07422
1.45441
1.76959
2.0064
2.16876
2.25627
2.26526
2.18741
2.02208
1.77316
1.46471
1.1258
0.796683
0.491003
0.313302
0.358364
0.551367
0.550923
0.817729
0.547961
1.39119
0.00966333
0.0431743
0.0501389
0.0717949
0.0803485
0.0961257
0.108367
0.124591
0.14071
0.159124
0.178519
0.199575
0.221937
0.245372
0.268831
0.290411
0.307159
0.315778
0.313829
0.301158
0.280436
0.256167
0.232613
0.212003
0.194142
0.177366
0.15979
0.140207
0.118182
0.0933758
0.0648541
0.0308522
-0.0110112
-0.0633256
-0.128465
-0.208434
-0.305766
-0.418923
-0.593221
-0.863477
-0.102799
-1.30865
-0.93155
-1.12854
-1.5245
-1.86317
-2.18028
-2.42895
-2.54388
-2.52396
-2.3818
-2.11375
-1.74384
-1.29544
-0.789546
-0.249208
0.300436
0.843599
1.36201
1.82546
2.20985
2.49894
2.69733
2.8049
2.81705
2.72286
2.52071
2.21416
1.83451
1.41694
1.01408
0.653387
0.449119
0.503994
0.76032
0.772756
1.12799
0.791224
1.65396
0.011335
0.0550565
0.0638478
0.0919115
0.102903
0.123239
0.139032
0.159939
0.180718
0.204431
0.229395
0.256472
0.285165
0.315054
0.344583
0.37111
0.390915
0.400332
0.397303
0.382794
0.360648
0.335677
0.311396
0.288849
0.266969
0.2439
0.21814
0.189171
0.157194
0.122137
0.0828316
0.0368654
-0.0189922
-0.0881666
-0.173672
-0.27776
-0.402614
-0.544543
-0.739416
-1.04592
-0.332616
-1.56794
-1.11679
-1.30603
-1.79098
-2.20245
-2.58423
-2.88432
-3.0206
-2.99354
-2.81869
-2.49231
-2.04337
-1.49929
-0.886637
-0.233754
0.429074
1.08156
1.70014
2.24965
2.70294
3.04425
3.27922
3.40752
3.42291
3.31099
3.06865
2.69914
2.24075
1.73728
1.25133
0.83085
0.590547
0.655098
0.976156
1.00374
1.44134
1.05886
1.98582
0.0124108
0.0666618
0.0769204
0.111413
0.124671
0.149464
0.168704
0.194193
0.219528
0.248416
0.278804
0.311703
0.3464
0.382131
0.416637
0.446421
0.467064
0.474795
0.46827
0.44969
0.423852
0.395806
0.368805
0.343493
0.31843
0.291509
0.26114
0.226876
0.18902
0.147391
0.100387
0.0448985
-0.0230919
-0.107695
-0.212362
-0.339468
-0.490682
-0.658714
-0.863254
-1.20404
-0.711799
-1.75151
-1.29552
-1.46286
-2.03785
-2.52054
-2.96356
-3.31263
-3.46727
-3.43144
-3.22372
-2.84039
-2.31522
-1.67948
-0.965203
-0.205606
0.564079
1.31922
2.03129
2.66062
3.17739
3.56737
3.83682
3.98514
4.00438
3.87653
3.59667
3.16747
2.63401
2.04936
1.48453
1.01336
0.739422
0.812983
1.18812
1.23717
1.74927
1.34344
2.31252
0.0129597
0.0783704
0.0897452
0.130809
0.146231
0.175473
0.198151
0.228225
0.258127
0.292191
0.327974
0.366577
0.406936
0.447741
0.485903
0.517182
0.536921
0.542043
0.532729
0.512612
0.486887
0.459911
0.433756
0.407987
0.380514
0.349121
0.312552
0.270955
0.225166
0.175154
0.118954
0.0527168
-0.0284168
-0.129232
-0.253511
-0.403601
-0.580401
-0.772597
-0.984514
-1.36458
-1.20054
-1.79516
-1.48404
-1.6184
-2.28937
-2.84735
-3.35206
-3.75148
-3.92402
-3.87851
-3.63699
-3.19591
-2.5939
-1.86633
-1.05077
-0.184891
0.690989
1.54811
2.35366
3.06376
3.64558
4.08633
4.3922
4.56236
4.58723
4.44504
4.12891
3.64064
3.03231
2.36713
1.72341
1.20412
0.896279
0.977413
1.40234
1.47684
2.05719
1.63397
2.63
0.0128895
0.0901461
0.102157
0.149906
0.167313
0.20094
0.226996
0.261609
0.296037
0.335206
0.376246
0.42023
0.465549
0.510166
0.550178
0.580896
0.598042
0.599958
0.588526
0.568198
0.543764
0.518482
0.493325
0.467089
0.437322
0.401847
0.359758
0.31174
0.259072
0.201749
0.137318
0.0611109
-0.0325641
-0.149031
-0.292175
-0.46416
-0.665043
-0.879527
-1.09937
-1.51211
-1.67262
-1.64576
-1.68208
-1.77323
-2.54525
-3.18459
-3.75194
-4.20381
-4.39428
-4.33817
-4.06127
-3.56063
-2.87981
-2.05848
-1.13994
-0.166178
0.817215
1.77743
2.67754
3.46953
4.11736
4.61061
4.95468
5.14844
5.18064
5.02539
4.67359
4.12586
3.44139
2.69476
1.97058
1.40339
1.06124
1.14894
1.61735
1.72193
2.36474
1.94974
2.96707
0.0121682
0.102145
0.114245
0.168832
0.188037
0.225995
0.255382
0.294508
0.333436
0.377638
0.423722
0.472554
0.521772
0.56855
0.608381
0.636654
0.650313
0.649667
0.637989
0.619783
0.598863
0.577143
0.554409
0.528636
0.49698
0.457354
0.409341
0.354367
0.294333
0.229346
0.156445
0.0700869
-0.0362388
-0.168272
-0.329806
-0.522695
-0.746211
-0.981893
-1.21315
-1.63983
-2.00947
-1.43236
-1.91162
-1.9328
-2.80233
-3.52981
-4.1599
-4.66505
-4.87268
-4.8046
-4.49052
-3.9286
-3.16735
-2.25099
-1.22866
-0.146481
0.944563
2.0077
3.00208
3.87571
4.58943
5.13563
5.5191
5.73792
5.77915
5.61241
5.22599
4.6189
3.85767
3.02932
2.22409
1.60994
1.23456
1.32783
1.83472
1.97318
2.67354
2.27729
3.31146
0.0107151
0.114439
0.125981
0.187567
0.208343
0.250555
0.283216
0.326811
0.370191
0.419268
0.469982
0.522762
0.574367
0.621313
0.65888
0.683334
0.693617
0.691901
0.681999
0.667713
0.651573
0.634164
0.614229
0.589061
0.555533
0.511722
0.457785
0.395977
0.328876
0.256663
0.175763
0.0796751
-0.0389002
-0.185951
-0.364972
-0.577417
-0.82194
-1.07814
-1.32498
-1.74941
-2.20758
-1.38346
-2.1407
-2.10372
-3.06052
-3.88561
-4.57941
-5.13822
-5.36179
-5.28018
-4.92691
-4.30174
-3.45818
-2.44531
-1.31825
-0.127019
1.07185
2.23773
3.32611
4.28134
5.06125
5.66067
6.08492
6.33049
6.3827
6.20623
5.78636
5.12001
4.28131
3.3708
2.48396
1.82351
1.4163
1.51422
2.05445
2.23047
2.98406
2.6106
3.67602
0.00845038
0.127144
0.137391
0.206158
0.228252
0.274634
0.31051
0.358525
0.406265
0.459924
0.514554
0.569959
0.622086
0.66707
0.700649
0.720919
0.729061
0.728344
0.722248
0.713478
0.703275
0.691004
0.674455
0.650258
0.614983
0.56689
0.506798
0.43795
0.363734
0.284419
0.195724
0.0901113
-0.0404575
-0.202057
-0.397737
-0.628516
-0.892653
-1.16925
-1.43652
-1.85736
-2.35114
-1.62581
-2.2135
-2.28418
-3.31948
-4.25366
-5.01379
-5.62649
-5.86423
-5.7672
-5.37249
-4.6818
-3.7536
-2.64231
-1.40917
-0.107844
1.19935
2.46809
3.6504
4.68724
5.53356
6.18643
6.65312
6.92728
6.9926
6.80832
6.35618
5.63042
4.71319
3.71959
2.75037
2.04376
1.60622
1.70802
2.277
2.49382
3.29716
2.97626
4.06552
0.00526701
0.140368
0.148477
0.224619
0.24775
0.298195
0.337222
0.389573
0.441485
0.499179
0.556602
0.612923
0.663485
0.704526
0.733242
0.750167
0.758134
0.760489
0.759823
0.757674
0.754115
0.747431
0.734544
0.711442
0.674384
0.62184
0.555392
0.479438
0.39829
0.312263
0.21621
0.101456
-0.0407156
-0.216303
-0.427813
-0.675839
-0.958463
-1.25559
-1.54743
-1.97189
-2.47795
-2.01626
-2.02887
-2.4982
-3.58488
-4.63478
-5.46547
-6.13236
-6.38172
-6.26669
-5.82796
-5.06924
-4.05373
-2.84186
-1.50105
-0.0884432
1.32767
2.69936
3.97546
5.09378
6.00659
6.71311
7.22361
7.52827
7.60898
7.41892
6.93578
6.1503
5.15327
4.07536
3.02289
2.27
1.80387
1.90896
2.5024
2.76277
3.61282
3.35617
4.45758
0.00103966
0.154235
0.159253
0.242978
0.266837
0.32122
0.363317
0.419852
0.475559
0.536375
0.595067
0.65034
0.697247
0.73301
0.757242
0.772634
0.78257
0.789741
0.7957
0.800947
0.804569
0.803873
0.794952
0.773108
0.73424
0.677037
0.603966
0.52079
0.432882
0.340532
0.237514
0.113898
-0.0396126
-0.228767
-0.455479
-0.719999
-1.02042
-1.33836
-1.65758
-2.0933
-2.59124
-2.32399
-1.79896
-2.79013
-3.86994
-5.02938
-5.93674
-6.65882
-6.91673
-6.78019
-6.29431
-5.46484
-4.35903
-3.04412
-1.59385
-0.0685976
1.4571
2.93186
4.30152
5.50106
6.48063
7.24108
7.79606
8.13326
8.23182
8.03823
7.52542
6.67977
5.60142
4.43766
3.30097
2.50146
2.00862
2.11655
2.73066
3.03672
3.93133
3.75551
4.85029
-0.00438519
0.168881
0.169731
0.261254
0.285506
0.343666
0.388715
0.44914
0.507954
0.570566
0.628727
0.680877
0.722424
0.75276
0.774072
0.790108
0.803863
0.817111
0.830476
0.843622
0.854795
0.860389
0.855663
0.835166
0.794382
0.732237
0.652248
0.561802
0.467461
0.369313
0.259741
0.12744
-0.0372848
-0.239707
-0.481159
-0.761718
-1.07968
-1.41887
-1.76704
-2.21974
-2.70626
-2.54893
-1.83504
-3.0634
-4.18374
-5.4368
-6.42944
-7.20887
-7.47228
-7.30979
-6.77285
-5.86956
-4.67011
-3.24941
-1.6876
-0.0481248
1.58795
3.16595
4.62891
5.90933
6.95584
7.77039
8.37041
8.74224
8.86126
8.66653
8.12547
7.219
6.05753
4.806
3.584
2.73726
2.21967
2.33009
2.9616
3.31477
4.25248
4.1627
5.26623
-0.0111913
0.184459
0.179929
0.279466
0.303748
0.365473
0.413267
0.477029
0.537864
0.600644
0.656324
0.703417
0.738902
0.765029
0.7856
0.804248
0.823172
0.843314
0.864578
0.885976
0.905022
0.917205
0.916914
0.897853
0.85501
0.787583
0.700357
0.60266
0.502338
0.398953
0.283059
0.141948
-0.0340969
-0.24961
-0.505475
-0.801878
-1.13754
-1.49871
-1.87697
-2.35113
-2.8396
-2.78908
-2.22492
-3.11709
-4.53683
-5.85872
-6.94533
-7.78519
-8.05144
-7.85787
-7.26498
-6.28431
-4.98752
-3.45798
-1.78227
-0.0267673
1.72059
3.40205
4.95801
6.31884
7.43229
8.30142
8.94711
9.35503
9.4973
9.30404
8.73622
7.76807
6.52134
5.17974
3.87117
2.9764
2.43608
2.54873
3.19492
3.59601
4.5757
4.56464
5.68353
-0.0196001
0.201141
0.189868
0.297628
0.321537
0.386524
0.436674
0.502847
0.564285
0.625452
0.676655
0.71746
0.747639
0.771684
0.793609
0.816321
0.84127
0.868793
0.898274
0.928209
0.955434
0.974508
0.978891
0.96132
0.916205
0.843078
0.74829
0.643495
0.537819
0.429712
0.307378
0.156968
-0.0306258
-0.259039
-0.529022
-0.841233
-1.19505
-1.57927
-1.98876
-2.48794
-2.99327
-3.05143
-2.70504
-2.94254
-4.9714
-6.30461
-7.48597
-8.39011
-8.65717
-8.42717
-7.77248
-6.71009
-5.31177
-3.67009
-1.87783
-0.00426021
1.85543
3.64059
5.28917
6.72981
7.91008
8.83448
9.52636
9.97127
10.1399
9.9509
9.35787
8.32694
6.99247
5.55808
4.16153
3.21777
2.65678
2.77151
3.43021
3.87943
4.90053
4.97876
6.132
-0.0298782
0.219125
0.199572
0.315741
0.33882
0.406599
0.458411
0.525691
0.586172
0.643819
0.688882
0.723571
0.750426
0.774633
0.799497
0.827185
0.85865
0.893844
0.931784
0.970537
1.00627
1.03258
1.04189
1.02584
0.978173
0.89885
0.796195
0.684642
0.574373
0.46176
0.332288
0.171809
-0.0274844
-0.26848
-0.552274
-0.880347
-1.25298
-1.6616
-2.10385
-2.63147
-3.16445
-3.32247
-3.09182
-2.81418
-5.52717
-6.79145
-8.05237
-9.02562
-9.292
-9.0205
-8.29749
-7.14815
-5.64343
-3.88599
-1.97425
0.0196617
1.99286
3.88202
5.62279
7.1425
8.38928
9.36947
10.1085
10.5915
10.7888
10.6072
9.99056
8.89548
7.4704
5.9401
4.45397
3.46017
2.88059
2.99734
3.66696
4.16387
5.22571
5.39461
6.5972
-0.04235
0.238636
0.209071
0.333783
0.355469
0.425291
0.477694
0.544599
0.602469
0.654677
0.693081
0.723351
0.749278
0.775411
0.804206
0.837366
0.875614
0.918685
0.96532
1.0132
1.05784
1.09174
1.10626
1.09172
1.04113
0.955014
0.844246
0.726535
0.612424
0.494858
0.356962
0.185693
-0.0251329
-0.278209
-0.575477
-0.919523
-1.31179
-1.74639
-2.22341
-2.78365
-3.35292
-3.60698
-3.46328
-3.0119
-6.15357
-7.33313
-8.6447
-9.69356
-9.95803
-9.64039
-8.84245
-7.60004
-5.98318
-4.10597
-2.07152
0.0452774
2.1333
4.12681
5.95926
7.55714
8.86995
9.90627
10.6941
11.2159
11.4438
11.2729
10.6344
9.47347
7.95446
6.32471
4.74723
3.7023
3.10624
3.22506
3.90455
4.44824
5.55011
5.8013
7.03702
-0.0574174
0.259934
0.218389
0.351685
0.37122
0.441935
0.493636
0.558672
0.61205
0.657581
0.690513
0.718878
0.745882
0.775059
0.808306
0.847181
0.892381
0.943531
0.999135
1.05652
1.1105
1.15244
1.17244
1.15937
1.10533
1.0117
0.892708
0.769747
0.652128
0.528185
0.38036
0.198066
-0.0237122
-0.288218
-0.598616
-0.958807
-1.37163
-1.834
-2.34823
-2.94611
-3.56006
-3.9141
-3.91517
-3.65685
-6.73721
-7.93538
-9.26272
-10.3959
-10.6573
-10.289
-9.4099
-8.06767
-6.33184
-4.33031
-2.16958
0.0728799
2.27722
4.37546
6.29899
7.97399
9.35213
10.4448
11.2828
11.8446
12.1047
11.948
11.2892
10.0606
8.44384
6.71063
5.03985
3.94275
3.33236
3.45344
4.14229
4.73152
5.87286
6.21076
7.49237
-0.0755939
0.283313
0.227528
0.369281
0.385577
0.455687
0.505469
0.566919
0.614017
0.653275
0.683232
0.712018
0.741398
0.774196
0.812123
0.856843
0.90916
0.968632
1.03354
1.10088
1.16472
1.21517
1.24097
1.22921
1.171
1.06897
0.941942
0.814802
0.692951
0.56038
0.401618
0.208808
-0.0229958
-0.298198
-0.621406
-0.998
-1.43246
-1.92456
-2.47872
-3.11968
-3.78644
-4.24744
-4.45495
-4.61612
-7.16702
-8.60079
-9.90778
-11.1343
-11.3916
-10.9676
-10.0021
-8.55318
-6.69049
-4.55939
-2.26842
0.102776
2.42507
4.62851
6.64245
8.39329
9.83584
10.9848
11.8744
12.4782
12.7725
12.6323
11.9551
10.6564
8.93754
7.09644
5.33024
4.18002
3.55753
3.68124
4.37939
5.01269
6.19243
6.61463
7.96644
-0.0975617
0.309107
0.236427
0.386219
0.39779
0.465797
0.512454
0.568216
0.608443
0.64363
0.673295
0.704081
0.736511
0.773168
0.815867
0.866551
0.926195
0.994301
1.06893
1.14676
1.22106
1.28059
1.31248
1.30172
1.23825
1.1268
0.99244
0.861769
0.733429
0.59002
0.420444
0.2183
-0.0224176
-0.307577
-0.64334
-1.03671
-1.49403
-2.01794
-2.61492
-3.30441
-4.03171
-4.60715
-5.05339
-5.67112
-7.37917
-9.33086
-10.5852
-11.9094
-12.1638
-11.6775
-10.6207
-9.0588
-7.06053
-4.79369
-2.36798
0.135288
2.57736
4.88653
6.9901
8.81533
10.3211
11.5261
12.4686
13.1165
13.4468
13.3256
12.6317
11.2602
9.43436
7.48046
5.61659
4.41252
3.78028
3.90719
4.61501
5.29082
6.5077
7.01522
8.39552
-0.12426
0.337674
0.244891
0.401873
0.407088
0.47178
0.513565
0.561905
0.596763
0.630864
0.662214
0.695839
0.731589
0.77218
0.819723
0.876536
0.943791
1.02093
1.10578
1.19472
1.28021
1.34942
1.38765
1.37726
1.30687
1.1851
1.04468
0.90963
0.771448
0.616291
0.437265
0.227337
-0.0211527
-0.31559
-0.663759
-1.07442
-1.55594
-2.11382
-2.75651
-3.4997
-4.2948
-4.99115
-5.67091
-6.60828
-7.45138
-10.1597
-11.3081
-12.7207
-12.9764
-12.4197
-11.2669
-9.5864
-7.44352
-5.03392
-2.46829
0.170762
2.73462
5.1501
7.34244
9.24037
10.8079
12.0686
13.0651
13.7591
14.1273
14.0277
13.3187
11.8714
9.93287
7.86082
5.89688
4.63852
3.99908
4.13008
4.84825
5.56504
6.81746
7.40538
8.86596
-0.156998
0.369344
0.252464
0.415423
0.413008
0.473022
0.507749
0.548701
0.581224
0.616758
0.650891
0.687693
0.726838
0.771406
0.823908
0.887088
0.962325
1.04898
1.14466
1.24548
1.34295
1.42252
1.46716
1.45586
1.37622
1.24393
1.09852
0.955997
0.805193
0.639423
0.453083
0.236977
-0.0182159
-0.321368
-0.681943
-1.11057
-1.61772
-2.2117
-2.90289
-3.70454
-4.57415
-5.39647
-6.28312
-7.34981
-7.59278
-11.1375
-12.0933
-13.5658
-13.8297
-13.1951
-11.9415
-10.1374
-7.84105
-5.28102
-2.5694
0.209557
2.89742
5.41989
7.7
9.66871
11.2962
12.6119
13.6636
14.4058
14.8144
14.7394
14.0156
12.489
10.4314
8.23536
6.16887
4.85617
4.21239
4.3487
5.07819
5.83458
7.12019
7.783
9.30693
-0.197561
0.404285
0.258382
0.426187
0.41511
0.468014
0.494411
0.530597
0.563992
0.602372
0.639773
0.679851
0.722417
0.771045
0.828696
0.898565
0.982251
1.07901
1.18624
1.29983
1.41022
1.50079
1.55152
1.53694
1.44532
1.30345
1.15233
0.997822
0.834149
0.660589
0.469216
0.248403
-0.0125768
-0.324051
-0.697212
-1.14461
-1.67888
-2.31099
-3.0533
-3.91768
-4.86807
-5.8207
-6.889
-7.99341
-7.99667
-12.2646
-12.9595
-14.4467
-14.7284
-14.0052
-12.6447
-10.7128
-8.25443
-5.53609
-2.67155
0.252036
3.06637
5.69659
8.06337
10.1007
11.786
13.1556
14.2636
15.0559
15.5085
15.4614
14.7218
13.1119
10.9279
8.60163
6.43005
5.0635
4.41866
4.5619
5.30388
6.09869
7.41468
8.15316
9.75843
-0.248176
0.442227
0.261788
0.433908
0.412843
0.456789
0.475504
0.50967
0.546308
0.588262
0.629081
0.672453
0.718509
0.771354
0.83442
0.911392
1.0041
1.11168
1.23129
1.35868
1.48301
1.5851
1.6407
1.61894
1.51327
1.36325
1.20259
1.03301
0.859411
0.68146
0.48706
0.262778
-0.0032822
-0.322898
-0.709011
-1.17609
-1.73893
-2.41108
-3.20689
-4.13789
-5.17483
-6.26163
-7.49594
-8.65276
-8.8075
-13.4628
-13.9273
-15.3688
-15.6783
-14.8538
-13.3778
-11.3128
-8.68455
-5.80021
-2.7751
0.298536
3.24212
5.98095
8.43316
10.5365
12.2771
13.6995
14.8645
15.709
16.2087
16.1935
15.4367
13.7387
11.4202
8.95685
6.67764
5.25833
4.6163
4.76861
5.5244
6.35665
7.69919
8.50756
10.2049
-0.311071
0.482131
0.262162
0.438456
0.404285
0.435698
0.452679
0.488198
0.528937
0.574559
0.618928
0.665661
0.715353
0.772645
0.841469
0.92605
1.02846
1.1477
1.28069
1.42306
1.56236
1.67603
1.73362
1.69954
1.57965
1.42106
1.24531
1.06174
0.883128
0.703758
0.507917
0.281121
0.0104276
-0.317381
-0.71697
-1.2047
-1.79747
-2.51137
-3.36286
-4.364
-5.4927
-6.7164
-8.10639
-9.36367
-10.0155
-14.6637
-15.0029
-16.3342
-16.6802
-15.7445
-14.1428
-11.9374
-9.13177
-6.07424
-2.88053
0.349341
3.42534
6.27377
8.81004
10.9767
12.7695
14.243
15.4659
16.3644
16.9146
16.9353
16.1589
14.3676
11.9056
9.29784
6.90851
5.43832
4.80377
4.9678
5.73891
6.60775
7.97256
8.84719
10.5915
-0.387155
0.521955
0.258792
0.437432
0.385049
0.408761
0.428419
0.465779
0.512121
0.561425
0.609457
0.65969
0.71324
0.775271
0.850274
0.943074
1.05601
1.18788
1.33536
1.49402
1.64921
1.77345
1.82768
1.77645
1.6438
1.47235
1.27841
1.08644
0.907639
0.728988
0.532859
0.304184
0.0290297
-0.30723
-0.720916
-1.23021
-1.85412
-2.61129
-3.52047
-4.59495
-5.81992
-7.18158
-8.71985
-10.1364
-11.5419
-15.7914
-16.1707
-17.3448
-17.7355
-16.6791
-14.9419
-12.5877
-9.59591
-6.35866
-2.98827
0.404681
3.61677
6.57592
9.19476
11.4215
13.2631
14.7856
16.067
17.0214
17.6253
17.6868
16.887
14.9967
12.3808
9.62098
7.11915
5.60092
4.9795
5.15849
5.94662
6.85129
8.23412
9.17064
10.9665
-0.47356
0.558562
0.251041
0.429927
0.356335
0.381628
0.404362
0.443908
0.496016
0.548949
0.60089
0.654818
0.712494
0.779611
0.861293
0.963028
1.08744
1.23305
1.39627
1.57258
1.74411
1.87581
1.91892
1.84845
1.70313
1.51237
1.30332
1.11045
0.934882
0.758306
0.562624
0.332377
0.0526829
-0.292424
-0.720831
-1.2525
-1.90857
-2.71033
-3.67902
-4.82972
-6.15456
-7.65314
-9.33335
-10.9633
-13.2458
-16.7414
-17.3956
-18.4019
-18.847
-17.6588
-15.777
-13.2646
-10.0767
-6.65348
-3.09851
0.464783
3.8172
6.88835
9.58812
11.8713
13.7578
15.3268
16.6672
17.6793
18.3402
18.4485
17.6207
15.6234
12.8425
9.92213
7.30558
5.74329
5.14194
5.33979
6.14683
7.08656
8.48299
9.47886
11.3476
-0.561139
0.588326
0.238247
0.413094
0.325952
0.354441
0.379429
0.422696
0.48063
0.537366
0.593474
0.651328
0.713442
0.786047
0.874986
0.986487
1.12347
1.28406
1.46435
1.6596
1.84678
1.97949
2.00345
1.91492
1.75243
1.5395
1.32425
1.1367
0.966194
0.792431
0.597541
0.365749
0.081267
-0.273111
-0.716757
-1.27141
-1.96045
-2.80795
-3.83781
-5.06723
-6.49438
-8.12647
-9.94185
-11.8179
-14.9283
-17.4174
-18.6325
-19.5053
-20.0166
-18.6862
-16.6493
-13.9689
-10.574
-6.95827
-3.21112
0.52998
4.02751
7.21217
9.991
12.3267
14.2532
15.866
17.2655
18.3371
19.0583
19.2214
18.3593
16.2446
13.2862
10.1965
7.46326
5.86233
5.28953
5.51063
6.33911
7.31285
8.71862
9.76243
11.6121
-0.634953
0.609231
0.215511
0.390658
0.296886
0.326456
0.353813
0.402296
0.466093
0.526906
0.587462
0.649504
0.716399
0.79494
0.891789
1.01399
1.16476
1.34168
1.54041
1.75551
1.95528
2.07898
2.07926
1.97349
1.7866
1.55696
1.34588
1.16706
1.0023
0.831612
0.637552
0.404054
0.114494
-0.249485
-0.7087
-1.28673
-2.00934
-2.90354
-3.99603
-5.30616
-6.83664
-8.59637
-10.5389
-12.6601
-16.367
-17.7683
-19.85
-20.6566
-21.2434
-19.7643
-17.56
-14.7007
-11.0878
-7.27235
-3.32562
0.600828
4.2487
7.54864
10.4044
12.7881
14.7494
16.4024
17.8612
18.9939
19.7785
20.0055
19.1013
16.8567
13.707
10.4385
7.58698
5.95454
5.42044
5.66948
6.52301
7.52974
8.9415
10.0267
11.8451
-0.680409
0.617734
0.183987
0.367018
0.267613
0.298501
0.327445
0.383005
0.452668
0.517824
0.583094
0.649602
0.72164
0.806601
0.912078
1.04602
1.21192
1.4066
1.62504
1.85988
2.06523
2.16878
2.14623
2.01887
1.80484
1.57102
1.37147
1.20236
1.04337
0.875674
0.682302
0.446896
0.152063
-0.221648
-0.696522
-1.29808
-2.05467
-2.99639
-4.15274
-5.54487
-7.17795
-9.05701
-11.1172
-13.447
-17.3867
-17.8944
-21.0772
-21.863
-22.5236
-20.8941
-18.5106
-15.4606
-11.6176
-7.59504
-3.44125
0.678147
4.48198
7.89929
10.8297
13.2562
15.246
16.9354
18.4533
19.6486
20.4997
20.8006
19.844
17.455
14.099
10.6417
7.67056
6.01594
5.53247
5.81459
6.69804
7.73728
9.15208
10.272
12.0541
-0.688829
0.601593
0.155847
0.341794
0.238372
0.271213
0.300293
0.365044
0.440479
0.510356
0.580588
0.651838
0.729387
0.82127
0.936138
1.08295
1.26543
1.47933
1.71843
1.97062
2.16988
2.24635
2.20298
2.04582
1.81233
1.58756
1.40242
1.24267
1.08909
0.924165
0.731321
0.49391
0.193812
-0.189515
-0.679886
-1.30493
-2.09573
-3.08559
-4.30668
-5.78123
-7.51412
-9.50196
-11.6696
-14.154
-18.0043
-18.0703
-22.3681
-23.142
-23.8529
-22.0743
-19.5027
-16.2492
-12.1631
-7.92565
-3.55702
0.762969
4.72877
8.26592
11.2682
13.7317
15.7429
17.4639
19.0406
20.3
21.2206
21.6067
20.5839
18.0335
14.4549
10.7981
7.70668
6.04193
5.62361
5.94461
6.86399
7.9358
9.35063
10.4904
12.2116
-0.660262
0.55902
0.134391
0.314628
0.210191
0.245282
0.273025
0.348958
0.429789
0.504737
0.580121
0.656382
0.739792
0.839097
0.964148
1.12502
1.32563
1.56017
1.82001
2.08306
2.26238
2.31255
2.24457
2.05424
1.81731
1.60975
1.43876
1.28753
1.1389
0.976558
0.784212
0.544913
0.239817
-0.152749
-0.658236
-1.30653
-2.13162
-3.17005
-4.45634
-6.01255
-7.84013
-9.92464
-12.1905
-14.7871
-18.4297
-18.5668
-23.7052
-24.5181
-25.2286
-23.3014
-20.5373
-17.0669
-12.724
-8.26333
-3.67177
0.856472
4.9907
8.65059
11.7219
14.2153
16.2397
17.9873
19.622
20.9468
21.9398
22.4235
21.3167
18.5844
14.766
10.898
7.68631
6.02713
5.69196
6.05843
7.02106
8.12584
9.5381
10.6915
12.3183
-0.606111
0.508193
0.116206
0.28646
0.18351
0.221296
0.246267
0.334972
0.42079
0.501184
0.581856
0.663366
0.752947
0.860146
0.996178
1.17237
1.39273
1.64911
1.92773
2.18973
2.33977
2.36767
2.26546
2.05091
1.82649
1.63816
1.47983
1.33624
1.19222
1.03246
0.840814
0.600005
0.290432
-0.110773
-0.630809
-1.30197
-2.16129
-3.2485
-4.59986
-6.23553
-8.15032
-10.3192
-12.6769
-15.3656
-18.8531
-19.5966
-24.9654
-26.0051
-26.6521
-24.5709
-21.6144
-17.9141
-13.3002
-8.60714
-3.78422
0.959975
5.26949
9.0556
12.1929
14.7084
16.7364
18.5044
20.1963
21.5876
22.6559
23.2508
22.0363
19.0974
15.0208
10.9287
7.59825
5.96505
5.73509
6.15448
7.16881
8.30802
9.71542
10.8739
12.4147
-0.542504
0.459766
0.100123
0.258175
0.158703
0.200035
0.221534
0.32353
0.413783
0.499927
0.585948
0.672894
0.768888
0.884398
1.03219
1.225
1.46677
1.74559
2.03704
2.28282
2.40417
2.4074
2.26546
2.04565
1.84265
1.67195
1.52475
1.38813
1.24867
1.09175
0.901274
0.659579
0.346264
-0.0628051
-0.596684
-1.29021
-2.18356
-3.31951
-4.73511
-6.44627
-8.439
-10.682
-13.1285
-15.9067
-19.3567
-21.1121
-25.9699
-27.6014
-28.1309
-25.88
-22.7327
-18.7906
-13.8919
-8.9563
-3.89302
1.07499
5.56691
9.48341
12.6837
15.2123
17.2327
19.0142
20.7621
22.2208
23.3672
24.0884
22.7346
19.5584
15.2037
10.8729
7.42622
5.84744
5.751
6.23131
7.3055
8.48297
9.88378
11.0295
12.4744
-0.479115
0.412582
0.0865125
0.230274
0.136124
0.181413
0.200133
0.314875
0.4091
0.501204
0.592561
0.685053
0.787604
0.911747
1.07202
1.28279
1.54758
1.84784
2.14033
2.35886
2.45798
2.42527
2.2521
2.0458
1.86543
1.70996
1.57273
1.44283
1.3082
1.15465
0.96604
0.724276
0.408109
-0.00792694
-0.554844
-1.27014
-2.19724
-3.38159
-4.85968
-6.64048
-8.70162
-11.0123
-13.5479
-16.4242
-19.9456
-22.808
-26.5325
-29.3167
-29.6819
-27.2283
-23.8908
-19.6953
-14.499
-9.31029
-3.99679
1.2032
5.88481
9.93651
13.1972
15.7287
17.7284
19.5156
21.3181
22.845
24.0724
24.9358
23.4005
19.9461
15.2972
10.7054
7.1513
5.66326
5.73608
6.28707
7.42936
8.65149
10.0451
11.1774
12.4944
-0.417774
0.365941
0.0753968
0.203242
0.116229
0.164637
0.18369
0.30925
0.407146
0.505271
0.601863
0.699902
0.809019
0.941994
1.11541
1.34545
1.63461
1.95187
2.22899
2.42113
2.49771
2.4198
2.23645
2.05376
1.89336
1.75123
1.62334
1.50033
1.37109
1.22167
1.03579
0.794905
0.476873
0.0548388
-0.504257
-1.24071
-2.2012
-3.43337
-4.9709
-6.81405
-8.93604
-11.3127
-13.9399
-16.9261
-20.5683
-24.2403
-26.7213
-31.2225
-31.3365
-28.6182
-25.0876
-20.6263
-15.1207
-9.66874
-4.09423
1.34645
6.22521
10.4174
13.7363
16.2597
18.2238
20.0076
21.8627
23.4584
24.7699
25.7925
24.0177
20.2593
15.2749
10.3885
6.73441
5.3978
5.68839
6.31993
7.54086
8.81593
10.2025
11.2988
12.5153
-0.358978
0.320812
0.0664543