/*--------------------------------*- C++ -*----------------------------------*\
| =========                 |                                                 |
| \\      /  F ield         | OpenFOAM: The Open Source CFD Toolbox           |
|  \\    /   O peration     | Version:  4.1                                   |
|   \\  /    A nd           | Web:      www.OpenFOAM.org                      |
|    \\/     M anipulation  |                                                 |
\*---------------------------------------------------------------------------*/
FoamFile
{
    version     2.0;
    format      ascii;
    class       volScalarField;
    location    "18";
    object      p;
}
// * * * * * * * * * * * * * * * * * * * * * * * * * * * * * * * * * * * * * //

dimensions      [0 2 -2 0 0 0 0];

internalField   nonuniform List<scalar> 
6785
(
8062.45
7998.05
7946.76
7897.1
7851.04
7807.81
7767.23
7729.06
7693.06
7658.76
7625.89
7595.81
7567.85
7533.7
7500.99
7525.35
7507.42
7509.85
7505.34
7501.65
7497.93
7494.61
7491.92
7490.06
7489.14
7489.13
7490.33
7493.53
7496.97
7497.33
7469.72
7464.06
7473.63
7473.14
7476.41
7478.86
7481.48
7483.99
7486.39
7488.64
7490.61
7492.11
7493.41
7495.26
7496.99
7525.45
7523.72
7529.04
7525.84
7526.74
7525.79
7525.15
7524.39
7523.65
7522.97
7522.37
7521.81
7521.28
7521.44
7523.24
7536.49
7535.51
7538.79
7536.07
7537.94
7537.64
7538.25
7538.78
7539.45
7540.14
7540.81
7541.5
7542.4
7543.43
7544.94
7538.36
7537.71
7540.36
7538.58
7540.81
7540.65
7541.61
7542.1
7542.6
7542.83
7542.84
7542.77
7542.79
7542.86
7543.1
7538.96
7537.88
7539.61
7537.62
7538.93
7537.89
7538.06
7537.57
7537.21
7536.61
7535.95
7535.28
7534.57
7533.8
7533.06
7528.29
7526.73
7527.35
7525.09
7525.51
7523.89
7523.5
7522.47
7521.75
7521.01
7520.42
7519.77
7518.86
7517.94
7517.35
7512.72
7511.37
7511.64
7509.64
7509.83
7508.28
7507.78
7506.77
7505.99
7505.28
7504.75
7504.25
7503.69
7503.51
7504.02
7505.77
7505.29
7505.75
7504.41
7504.86
7503.89
7503.78
7503.25
7502.87
7502.57
7502.42
7502.37
7502.46
7502.77
7503.57
7506.85
7507.46
7508.33
7507.67
7508.47
7508.18
7508.55
7508.58
7508.84
7509.17
7509.58
7510.03
7510.59
7511.1
7511.94
7517.73
7518.1
7517.79
7517.11
7517.84
7517.94
7518.69
7519.14
7519.77
7520.39
7521.03
7521.65
7522.3
7522.78
7523.27
7507.75
7506.47
7506.98
7508.08
7510.13
7511.41
7513.06
7514.56
7516.23
7517.85
7519.56
7521.22
7522.71
7524.11
7525.73
7467.26
7470.84
7485.74
7498.21
7509.67
7518.48
7525.89
7531.88
7537.06
7541.94
7546.65
7550.9
7553.29
7553.68
7554.38
7418.05
7445.93
7447.11
7452.19
7458.13
7465.6
7472.75
7481.24
7497.01
7516.15
7531.81
7547.75
7560.28
7545.01
7489.04
6957.67
6956.56
6957.54
6958.12
6958.79
6957.32
6959.04
6960.33
6961.81
6960.04
6962.54
6964.71
6962.66
6964.95
6968.13
6970.7
6967.02
6971.45
6975.13
6970.54
6974.15
6979.6
6983.79
6979.59
6985.29
6991.44
6996.11
6993.92
7003.95
7010.95
7019.89
7035.05
7043.78
7054.97
7073.54
7093.99
7096.45
7118.64
7142.32
7146
7153.61
7172.22
7195.29
7197.04
7212.11
7248.29
7260.67
7235.18
7316.26
7313.37
7270.49
7291.15
7404.13
7361.93
7285.28
7312.27
7466.31
7413.5
7256.56
7436.41
7406.05
7246.23
7255.86
7524.46
7436.09
7148.64
7402.58
7370.31
7113.44
7093.37
7510.6
7343.99
6997.25
6982.13
7470.48
7323.85
6824.43
7147
7259.82
6667.43
7091.61
7591.75
7617.9
7391.72
7497.55
7471.56
7463.68
7488.49
7523.19
7548.17
7581.72
7580.4
7810.74
7593.84
7493.55
7517.39
7567.4
7585.72
7592.98
7635.74
7653.7
8032.96
7686.72
7542.13
7570.62
7623.62
7636.11
7638.85
7639.51
7663.78
7656.55
7952.18
7689.36
7528.37
7524.76
7559.1
7562.03
7549.87
7558.93
7526.77
7694.87
7603.75
7436.43
7411.63
7435.02
7420.15
7381.81
7360.67
7321.9
7437.26
7410.12
7206.11
7116.3
7082.13
7027.02
6967.12
6928.74
6840.94
6737.5
6756.51
6500.05
6393.3
6333.5
6246.32
6097.82
5899.86
5799.83
5658.32
5270.92
5427.45
4982.8
4749.63
4635.06
4462.78
4240.18
3957.33
3560.91
2616.95
3042.5
2368.72
1233.29
2729.23
4185.78
2801.26
2553.19
2646.77
2755.32
3526.79
2830
2442.25
3152.89
2634.22
2402.61
2392.2
2326.73
2714.8
2306.66
2067.24
2087.11
1968.98
2291.49
2053.92
1686.46
2142.38
1962.71
1655.24
1796.32
1631.83
2125.64
1895.23
1556.91
1721.31
1546.44
2090.48
1852.47
1335.39
2047.42
1765.57
1371.08
1528.35
1340.33
2014.01
1567.89
1175.07
1319.12
1155.26
1825.53
1395.46
820.06
1602.36
1198.66
793.151
874.016
723.498
1284.52
843.453
468.071
509.968
365.66
750.983
446.515
53.7609
408.965
172.534
-76.5032
-56.5855
-197.131
78.8527
-145.044
-327.122
-262.206
-384.168
-16.0929
-216.796
-549.698
115.12
-227.685
-468.921
-303.859
-354.548
-1.11551
0.0883141
-0.940058
-1.04568
-1.82342
-2.47395
-3.49552
-4.68824
-6.288
-8.3209
-10.9648
-14.3099
-18.4695
-23.414
-29.082
-35.4012
-44.128
-54.2921
-175.125
-268.192
-276.993
-291.609
-294.287
-261.753
-224.519
-182.924
-117.122
-56.8538
34.8923
94.3919
122.73
140.657
122.508
99.4626
99.7791
105.234
108.759
102.356
89.9646
75.7703
76.2679
43.1253
33.7931
41.0374
18.8479
158.368
121.821
45.9536
15.9259
20.3086
7.66548
12.8716
-6.41406
10.1447
9.75239
304.595
118.658
24.05
-5.81928
-20.3453
-23.4287
-22.8745
-20.8375
-17.0001
-11.7136
-5.15075
1.93272
10.2624
16.5544
21.3261
16.2578
18.484
2.15209
-10.2995
-47.6297
-71.5833
-55.4245
-53.4367
-44.5731
-3.06623
0.112117
-2.84599
-2.83104
-4.60632
-5.83277
-8.04289
-10.6764
-14.4401
-19.4069
-26.127
-34.9541
-46.3739
-60.4987
-77.365
-96.8034
-122.742
-154.928
-321.394
-491.546
-507.783
-530.829
-533.668
-476.248
-402.964
-320.966
-207.047
-103.613
22.1959
117.584
176.996
206.772
202.068
193.253
203.577
216.142
223.773
219.357
206.383
179.186
173.012
118.683
103.975
116.331
86.66
363.579
259.796
107.41
50.4624
48.0615
26.7059
52.5771
20.5148
25.3186
14.8999
515.432
254.84
102.926
3.7445
-46.6233
-53.4341
-44.4365
-32.4975
-19.7787
-7.02173
6.53404
20.1009
31.1789
36.535
37.986
21.952
16.7974
-19.9163
91.9742
56.5297
-99.7315
-117.789
-152.062
-185.084
-4.57094
0.319323
-4.36567
-4.52362
-7.62448
-9.96421
-13.9879
-18.8105
-25.5907
-34.4866
-46.4274
-62.0113
-82.0182
-106.58
-135.659
-168.92
-212.475
-265.974
-400.96
-568.385
-568.119
-592.566
-593.71
-525.413
-438.805
-342.346
-214.815
-101.25
21.5339
110.783
173.109
203.807
216.199
226.293
243.52
259.168
268.224
267.263
259.644
232.509
227.825
178.358
174.63
192.382
162.464
453.097
340.703
162.614
95.6917
76.0831
48.9702
75.8113
21.0976
31.495
37.6385
422.209
202.871
118.311
31.6532
-11.6552
-20.3011
-16.9511
-9.82833
0.184296
11.6848
25.1219
38.2675
48.5809
54.828
58.4386
37.7063
29.2047
-38.7493
86.8973
31.5381
-191.57
-191.564
-223.046
-249.25
-5.89777
0.363641
-5.9507
-6.25705
-10.5426
-13.837
-19.4603
-26.2373
-35.7657
-48.2983
-65.144
-87.1662
-115.459
-150.192
-191.272
-238.093
-297.445
-367.763
-470.188
-640.632
-637.927
-669.34
-668.288
-587.266
-488.159
-377.376
-232.586
-105.198
30.3677
118.287
180.701
213.875
235.566
256.627
279.102
298.116
308.839
309.922
305.902
280.845
280.358
239.059
240.297
263.708
230.211
537.775
418.108
217.136
140.579
104.703
71.9596
98.2416
24.4559
27.8589
32.8267
342.127
142.836
120.299
54.3749
20.3957
7.50898
2.64974
3.97306
11.8271
23.6434
39.0494
54.4521
66.8685
72.554
75.8331
49.7896
38.321
-49.6745
108.463
51.5128
-248.897
-241.041
-277.781
-301.755
-7.09188
0.237119
-7.48443
-7.99701
-13.4417
-17.7477
-25.0277
-33.8541
-46.2412
-62.5509
-84.4691
-113.13
-149.931
-195.039
-248.226
-308.382
-381.62
-463.278
-539.292
-737.75
-753.141
-792.207
-784.685
-687.401
-572.291
-441.674
-271.618
-123.345
34.2845
131.36
200.07
238.858
268.035
297.941
326.327
349.839
362.985
365.748
363.855
338.785
340.141
301.961
302.895
330.575
304.598
639.16
499.24
269.235
182.583
132.475
98.6205
115.234
19.5913
13.8181
20.4417
297.825
119.094
132.017
72.0771
39.4182
22.6791
13.612
12.9053
21.2041
34.8506
52.8296
70.1621
83.6692
89.4532
93.5827
64.3808
51.3385
-55.197
113.007
60.6156
-301.942
-275.948
-306.744
-332.686
-8.08191
0.0185971
-8.9629
-9.71389
-16.2628
-21.5641
-30.4607
-41.3049
-56.5097
-76.5581
-103.514
-138.789
-184.085
-239.536
-304.718
-377.81
-463.015
-550.222
-602.37
-841.731
-881.96
-921.161
-900.345
-785.631
-654.692
-503.08
-307.426
-139.293
37.0665
143.203
219.281
263.568
301.85
341.67
376.208
404.108
419.495
424.03
424.187
398.257
399.623
361.628
361.433
393.606
382.083
740.79
576.154
319.706
225.166
160.699
130.493
131.348
10.0019
-10.36
-6.11235
238.233
99.6041
144.365
90.3113
58.2289
38.051
25.4592
22.9443
31.5536
46.7009
66.737
85.5636
100.189
106.104
110.981
79.6412
66.853
-51.3063
121.458
81.5575
-333.395
-288.609
-314.069
-331.072
-8.92661
-0.321451
-10.3841
-11.4074
-19.0092
-25.3094
-35.8107
-48.6782
-66.7035
-90.5021
-122.513
-164.434
-218.258
-284.051
-361.122
-446.743
-542.211
-632.174
-670.102
-948.127
-1011.29
-1044.28
-1006.18
-874.612
-729.22
-556.761
-336.966
-151.457
41.3214
155.08
236.963
286.139
334.06
383.834
424.277
456.257
473.594
479.9
482.199
455.655
456.59
417.594
415.517
452.488
455.29
836.621
646.486
369.419
268.898
190.348
167.662
148.912
-4.85299
-43.7122
-48.4766
157.436
75.2467
154.123
108.816
76.9215
52.6027
36.229
31.9654
41.074
57.9368
80.0842
100.435
116.321
122.578
128.643
96.5587
85.8897
-38.7147
130.247
107.693
-343.688
-279.683
-290.195
-299.607
-9.60311
-0.733713
-11.7239
-13.0499
-21.6561
-28.9511
-41.0327
-55.9087
-76.7305
-104.256
-141.299
-189.845
-252.168
-328.234
-417.026
-514.801
-619.483
-712.092
-748.725
-1059.68
-1145.37
-1170.75
-1113.54
-964.88
-804.933
-610.611
-366.682
-164.424
45.4987
168.173
254.922
309.321
366.526
425.607
471.844
507.929
527.222
535.306
539.712
512.786
513.081
471.941
466.451
507.452
528.076
927.417
711.593
418.696
312.896
221.892
209.141
170.506
-20.907
-84.9579
-105.543
65.858
51.2656
164.115
126.81
92.9538
63.9858
44.5632
39.4599
49.7208
68.6747
93.001
114.862
132.131
138.939
146.547
114.853
108.257
-16.8954
144.151
141.955
-327.755
-248.564
-244.033
-226.645
-10.1393
-1.21098
-12.9801
-14.6353
-24.1973
-32.4821
-46.1191
-62.987
-86.5781
-117.801
-159.844
-214.979
-285.752
-371.999
-472.331
-582.03
-695.8
-792.37
-835.691
-1171.61
-1286.46
-1306.96
-1227.75
-1059.61
-883.77
-666.007
-397.553
-178.583
49.2957
182.786
273.673
333.861
400.189
468.133
520.127
560.333
581.598
591.462
597.895
570.54
569.715
525.415
515.472
559.192
600.567
1014.56
771.686
467.636
357.06
255.851
252.779
196.608
-33.9259
-134.706
-175.563
-27.6603
29.6237
175.737
144.996
107.023
72.9958
51.1977
45.9659
57.8131
79.0554
105.56
128.966
147.743
155.299
164.81
134.532
133.747
13.2048
163.679
183.954
-285.597
-197.006
-176.437
-144.778
-10.5392
-1.72243
-14.139
-16.1467
-26.6188
-35.8859
-51.0489
-69.8837
-96.2054
-131.082
-178.072
-239.731
-318.863
-415.16
-526.855
-648.445
-772.162
-877.163
-933.387
-1285.75
-1434.44
-1452.98
-1347.23
-1156.4
-963.543
-720.916
-427.925
-192.622
53.4184
199.143
293.073
359.415
434.95
511.482
569.113
613.294
636.431
648.033
656.412
628.5
625.975
577.632
562.933
608.305
669.175
1097.07
826.169
516.297
401.875
292.715
296.951
227.184
-39.665
-193.835
-257.163
-115.722
10.6204
189.383
164.155
120.124
80.3841
56.4618
51.5564
65.3186
89.0218
117.749
142.783
163.162
171.65
183.385
155.344
161.803
50.4356
189.146
236.53
-220.788
-127.073
-85.8289
-37.6327
-10.8212
-2.24859
-15.1963
-17.5754
-28.9135
-39.1524
-55.808
-76.5776
-105.582
-144.054
-195.92
-264.013
-351.38
-457.573
-580.482
-714.132
-849.382
-968.621
-1046.34
-1398.98
-1589.95
-1608.29
-1470.13
-1254.14
-1043.97
-774.893
-457.421
-206.297
58.0479
217.136
313.217
385.852
470.709
555.532
618.633
666.597
691.486
704.781
715.064
686.523
681.791
628.509
609.151
655.169
735.279
1171.72
874.69
564.771
447.852
332.701
341.037
261.824
-35.6077
-252.862
-346.496
-192.865
-4.32205
205.76
184.821
132.777
86.5131
60.4997
56.2646
72.2379
98.5711
129.603
156.369
178.456
188.052
202.22
177.021
191.74
93.0889
219.652
301.753
-139.563
-42.3498
18.6277
96.1156
-10.9979
-2.76572
-16.1461
-18.9106
-31.0729
-42.2695
-60.3802
-83.0451
-114.675
-156.671
-213.322
-287.732
-383.175
-499.086
-633.109
-779.175
-927.82
-1065.87
-1171.1
-1507.12
-1753.21
-1773.78
-1596.55
-1353.67
-1126.27
-828.443
-486.336
-219.848
63.0679
236.326
334.821
413.299
507.572
600.366
668.766
720.326
746.873
761.842
774.037
744.842
737.493
678.418
654.684
700.383
800.006
1237.53
917.159
613.153
495.26
375.608
384.951
300.098
-20.4819
-292.665
-437.146
-257.365
-13.6304
225.619
207.503
145.655
91.8985
63.6416
60.2276
78.6279
107.736
141.176
169.778
193.647
204.486
221.2
199.217
222.778
139.23
254.176
377.514
-46.0636
53.0556
132.462
223.611
-11.0851
-3.25436
-16.986
-20.1447
-33.0907
-45.2272
-64.7511
-89.2643
-123.451
-168.886
-230.214
-310.797
-414.126
-539.573
-684.673
-843.67
-1007.61
-1167.63
-1303.19
-1609.35
-1924.74
-1950.46
-1727.01
-1455.98
-1211.27
-881.645
-514.67
-233.273
68.5129
256.236
359.042
441.967
545.694
646.139
719.639
774.588
802.698
819.331
833.481
803.614
793.322
727.848
700.182
744.697
860.677
1294.04
953.816
661.576
544.083
420.928
428.71
341.706
7.11535
-302.003
-522.04
-307.781
-15.8641
249.481
232.601
159.501
97.096
66.2632
63.6148
84.5658
116.574
152.538
183.076
208.776
220.964
240.204
221.572
254.145
186.885
291.614
458.654
57.1219
155.01
253.663
382.742
-11.0968
-3.69658
-17.7141
-21.2703
-34.9611
-48.0153
-68.9065
-95.2136
-131.88
-180.654
-246.532
-333.119
-444.118
-578.924
-735.141
-907.724
-1088.81
-1272.84
-1438.23
-1708.03
-2106.34
-2139.42
-1861.64
-1561.44
-1299.17
-934.245
-542.31
-246.435
74.5268
276.507
386.524
472.402
585.207
692.961
771.312
829.406
858.981
877.244
893.422
862.86
849.402
777.279
746.215
788.658
917.632
1339.32
985.062
710.133
594.135
468.089
472.561
386.585
48.3095
-278.254
-592.659
-340.251
-9.32071
277.752
260.342
174.887
102.615
68.7127
66.6748
90.2067
125.206
163.793
196.349
223.866
237.466
259.09
243.711
285.123
234.376
331.177
539.858
167.159
260.07
376.433
504.662
-11.0468
-4.07834
-18.3301
-22.2813
-36.6791
-50.6245
-72.833
-100.873
-139.932
-191.931
-262.216
-354.616
-473.047
-617.052
-784.506
-971.439
-1171.44
-1380.81
-1574.48
-1808.99
-2301.47
-2342.05
-2000.13
-1670.05
-1389.96
-986.083
-569.324
-259.224
81.2642
296.906
416.669
505.742
626.303
740.924
823.81
884.777
915.735
935.564
953.878
922.593
905.867
827.077
793.114
832.603
972.598
1372.79
1011.53
758.839
645.248
516.637
517.144
434.813
103.408
-217.745
-635.605
-347.342
7.99399
310.836
290.894
192.256
108.993
71.3539
69.7503
95.828
133.85
175.09
209.701
238.949
253.979
277.72
265.285
315.09
280.536
372.671
616.384
280.7
365.966
507.581
625.124
-10.9471
-4.38891
-18.8341
-23.1723
-38.2401
-53.046
-76.5179
-106.222
-147.577
-202.678
-277.208
-375.211
-500.824
-653.897
-832.786
-1034.92
-1255.53
-1491.39
-1711.54
-1921.66
-2514.47
-2559.39
-2142.36
-1781.91
-1483.65
-1037.12
-595.901
-271.503
88.8769
317.317
448.221
542.916
669.339
790.157
877.178
940.72
972.985
994.293
1014.9
982.854
962.877
877.562
841.084
876.878
1024.49
1394.37
1034.16
807.771
697.318
566.344
563.45
486.483
172.077
-120.56
-631.184
-318.378
39.285
349.493
324.609
212.13
116.865
74.6504
73.2505
101.801
142.786
186.623
223.235
254.053
270.473
295.951
285.991
343.531
324.802
416.614
684.308
394.468
469.69
632.7
759.976
-10.808
-4.62067
-19.2271
-23.9388
-39.6399
-55.272
-79.9494
-111.244
-154.79
-212.853
-291.452
-394.833
-527.376
-689.419
-880.009
-1098.23
-1341.12
-1604.9
-1852.33
-2059.89
-2753.09
-2793.72
-2287.81
-1897.12
-1580.19
-1087.31
-622.214
-283.066
97.5665
337.697
480.33
583.715
714.759
840.885
931.486
997.265
1030.75
1053.44
1076.55
1043.68
1020.58
928.946
890.254
921.614
1071.37
1403.65
1053.91
857.095
750.32
617.306
612.684
541.752
253.254
5.37042
-562.09
-246.875
88.5944
395.089
362.245
235.354
127.021
79.2772
77.7038
108.551
152.314
198.6
237.021
269.213
286.919
313.656
305.607
370.053
367.145
464.068
740.635
505.541
569.511
747.538
868.51
-10.6377
-4.76832
-19.5098
-24.577
-40.8747
-57.2955
-83.1172
-115.922
-161.546
-222.421
-304.898
-413.424
-552.651
-723.596
-926.202
-1161.44
-1428.28
-1722.2
-2001.67
-2233.58
-3021.45
-3045.07
-2436.24
-2015.85
-1679.32
-1136.53
-648.402
-293.666
107.502
358.198
512.805
627.115
762.739
893.383
986.871
1054.45
1089.06
1113.03
1138.87
1105.1
1079.1
981.312
940.6
966.794
1113.24
1402.22
1071.93
906.98
804.334
669.99
666.104
600.857
344.979
149.121
-434.325
-139.055
157.636
448.729
404.909
263.174
140.532
86.2133
83.8451
116.58
162.767
211.22
251.117
284.462
303.283
330.726
324.017
394.387
407.932
516.19
783.678
611.147
665.22
865.44
973.281
-10.4424
-4.82851
-19.683
-25.0833
-41.9413
-59.1104
-86.0121
-120.241
-167.822
-231.346
-317.5
-430.938
-576.618
-756.415
-971.377
-1224.54
-1517.05
-1844.38
-2164.82
-2447.85
-3326.8
-3315.46
-2587.13
-2138.27
-1780.55
-1184.6
-674.605
-303.065
118.761
379.325
545.786
672.218
812.992
947.821
1043.54
1112.37
1147.91
1173.11
1201.86
1167.12
1138.51
1034.7
991.991
1012.5
1151.55
1392.82
1089.6
957.55
859.473
724.906
724.643
664.025
444.886
301.077
-273.478
-6.08285
245.271
510.467
453.433
296.929
158.795
96.7545
92.6309
126.509
174.545
224.656
265.617
299.83
319.537
347.085
341.243
416.398
447.743
573.373
813.472
708.821
755.73
975.354
1082.19
-10.2264
-4.79869
-19.7477
-25.4542
-42.837
-60.7115
-88.6262
-124.188
-173.598
-239.598
-329.215
-447.341
-599.265
-787.869
-1015.52
-1287.46
-1607.36
-1972.08
-2345.73
-2714.21
-3661.97
-3600.94
-2739.53
-2264.76
-1883.19
-1231.39
-700.975
-311.065
131.559
401.612
579.533
718.711
865.054
1004.19
1101.74
1171.22
1207.33
1233.79
1265.52
1229.74
1198.85
1089.2
1044.28
1058.94
1187.14
1377.18
1107.98
1008.92
915.852
782.476
788.621
731.392
550.771
453.199
-96.6685
147.353
350.571
580.27
507.919
337.451
183.286
112.369
105.169
139.061
188.071
239.089
280.637
315.347
335.658
362.707
357.445
436.099
487.143
633.191
832.675
796.191
840.511
1076.41
1168.24
-9.99188
-4.67532
-19.7049
-25.6864
-43.5597
-62.0941
-90.9531
-127.753
-178.857
-247.148
-340.001
-462.602
-620.584
-817.944
-1058.6
-1350.1
-1699.06
-2105.39
-2544.35
-3028.43
-4013.87
-3899.21
-2893.13
-2395.66
-1986.43
-1276.82
-727.616
-317.48
146.186
425.425
614.411
766.621
918.613
1062.25
1161.61
1231.34
1267.43
1295.11
1329.84
1292.96
1260.11
1144.95
1097.37
1106.31
1219.64
1356.4
1127.77
1061.15
973.512
843.187
857.778
802.928
660.264
599.961
90.1351
315.502
472.921
660.087
568.908
385.311
215.412
134.452
122.601
154.969
203.707
254.726
296.275
331.037
351.641
377.624
372.92
453.673
526.263
691.059
846.943
870.558
919.023
1173.3
1272.55
-9.74034
-4.4541
-19.5551
-25.7766
-44.1079
-63.2548
-92.9872
-130.925
-183.584
-253.979
-349.826
-476.688
-640.572
-846.62
-1100.53
-1412.28
-1791.84
-2243.86
-2758.8
-3381.48
-4391.77
-4209.3
-3047.5
-2531.66
-2089.24
-1320.9
-754.557
-322.076
162.82
451.059
650.867
816.029
973.575
1121.67
1222.99
1293
1328.51
1357.1
1394.85
1356.78
1322.26
1202.08
1151.18
1154.59
1249.39
1331.93
1149.46
1114.2
1032.38
907.473
931.471
878.227
770.615
737.434
280.928
484.497
609.495
753.528
638.83
441.8
256.632
164.25
145.93
174.908
221.771
271.752
312.589
346.91
367.491
391.925
388.064
469.528
564.867
744.298
863.173
929.363
990.27
1262.88
1348.96
-9.47326
-4.13261
-19.2988
-25.7217
-44.4808
-64.1908
-94.7244
-133.696
-187.768
-260.076
-358.672
-489.571
-659.203
-873.866
-1141.23
-1473.77
-1885.29
-2386.7
-2986.69
-3765.1
-4772.81
-4518.22
-3202.95
-2673.23
-2190.5
-1363.83
-781.733
-324.599
181.54
478.797
689.347
867.115
1029.94
1182.26
1285.59
1356.13
1390.95
1419.81
1460.56
1421.17
1385.2
1260.85
1205.77
1203.95
1278.16
1307.88
1174.05
1168.01
1092.37
975.619
1008.78
956.461
878.829
862.898
469.115
644.294
753.553
861.424
720.322
508.545
307.986
202.694
175.713
199.271
242.484
290.243
329.582
362.96
383.221
405.733
403.313
484.341
602.976
793.659
887.748
971.065
1054.47
1361.55
1417.34
-9.19257
-3.71037
-18.9353
-25.5194
-44.6771
-64.9002
-96.1618
-136.06
-191.394
-265.427
-366.523
-501.222
-676.432
-899.634
-1180.54
-1534.31
-1978.89
-2532.75
-3224.52
-4166.24
-5139.09
-4823.79
-3359.65
-2820.28
-2289.11
-1405.89
-808.986
-324.864
202.3
508.931
730.311
920.202
1087.73
1243.88
1349.19
1420.42
1455.04
1483.34
1526.97
1486.15
1448.81
1321.57
1261.37
1254.82
1307.79
1289.62
1202.99
1222.38
1153.41
1047.73
1088.64
1036.56
981.69
976.391
650.639
794.334
896.495
979.734
812.78
585.725
369.086
249.546
211.736
227.885
265.801
310.138
347.188
379.161
398.834
419.184
419.07
499.016
641.2
841.544
925.928
996.832
1110.63
1455.69
1493.19
-8.90041
-3.18646
-18.4624
-25.1679
-44.6958
-65.3813
-97.2959
-138.01
-194.452
-270.016
-373.366
-511.615
-692.221
-923.862
-1218.33
-1593.57
-2072
-2680.54
-3467.7
-4572.88
-5521.03
-5123.05
-3518.36
-2972.83
-2383.73
-1447.54
-836.033
-322.804
224.845
541.645
774.199
975.524
1147.09
1306.44
1413.58
1485.59
1520.7
1547.98
1594.09
1551.71
1512.92
1384.31
1318.12
1307.3
1339.17
1278.97
1236.45
1277.08
1215.45
1123.48
1170.73
1117.37
1077.32
1078.98
822.902
936.636
1032.54
1101.92
912.278
671.197
438.048
303.191
252.962
260.102
291.44
331.266
365.3
395.471
414.319
432.413
435.651
514.571
680.547
890.573
980.872
1011.55
1158.38
1546.29
1562.59
-8.59936
-2.55905
-17.8761
-24.666
-44.5362
-65.6335
-98.1235
-139.542
-196.93
-273.83
-379.203
-520.748
-706.555
-946.479
-1254.4
-1651.15
-2163.88
-2828.37
-3711.78
-4976.69
-5910.6
-5402.69
-3684.34
-3129.06
-2472.88
-1489.35
-862.383
-318.399
248.734
576.754
821.219
1033.16
1208.39
1369.93
1478.64
1551.48
1587.6
1614.18
1661.92
1617.87
1577.33
1448.98
1376.04
1361.29
1372.46
1275.27
1273.65
1331.85
1278.28
1201.94
1254.95
1197.73
1166.16
1171.46
981.993
1071.3
1161.19
1221.6
1014.33
761.631
512.47
361.595
297.929
295.004
318.902
353.395
383.794
411.84
429.649
445.55
453.245
532.046
722.073
943.36
1051.08
1024.88
1199.34
1647.74
1616.9
-8.29252
-1.82604
-17.1741
-24.0122
-44.1981
-65.6546
-98.6468
-140.657
-198.828
-276.865
-384.028
-528.628
-719.422
-967.402
-1288.54
-1706.64
-2253.7
-2974.37
-3952.26
-5365.15
-6235.59
-5655.15
-3860.59
-3284.87
-2555.97
-1531.8
-887.27
-311.577
273.686
613.792
871.124
1093.15
1271.95
1434.37
1544.29
1618.05
1655.61
1682.28
1730.59
1684.65
1641.83
1515.3
1435.06
1416.44
1407.69
1278.34
1313.86
1386.45
1341.22
1281.71
1339.67
1276.63
1248.94
1254.55
1125.82
1198.11
1285.47
1334.13
1115.74
854.037
590.25
423.159
345.415
331.746
347.597
376.256
402.541
428.213
444.796
458.748
471.933
552.422
766.647
1001.88
1129.11
1051.68
1235.58
1747.64
1674.61
-7.98352
-0.984962
-16.3561
-23.2036
-43.6807
-65.4366
-98.8711
-141.354
-200.146
-279.124
-387.837
-535.266
-730.811
-986.528
-1320.52
-1759.59
-2340.59
-3116.5
-4183.96
-5715.11
-6445.8
-5879.6
-4044.35
-3436.99
-2633.02
-1575.02
-909.757
-302.278
299.873
652.566
923.428
1155.45
1337.72
1499.92
1610.45
1685.15
1724.64
1752.36
1800.37
1752.03
1706.21
1582.9
1495.01
1472.23
1444.71
1287.99
1356.52
1440.68
1402.99
1361.1
1422.95
1353.47
1325.73
1327.93
1257.09
1317.14
1406.16
1437.03
1214.78
946.36
669.839
486.901
394.726
369.842
377.166
399.629
421.424
444.545
459.755
472.202
491.74
576.564
814.887
1066.41
1208.37
1108.38
1271.53
1845.67
1733.63
-7.67653
-0.0326158
-15.4228
-22.2367
-42.984
-64.9785
-98.7984
-141.642
-200.893
-280.6
-390.636
-540.68
-740.692
-1003.72
-1350.05
-1809.5
-2423.61
-3252.74
-4401.27
-6010.45
-6595.27
-6081.46
-4233.95
-3582.48
-2703.72
-1618.91
-929.008
-290.625
327.65
693.34
977.909
1219.81
1405.4
1566.79
1677.1
1752.6
1794.52
1824.21
1871.63
1820.09
1770.29
1651.32
1555.66
1528.34
1483.38
1303.67
1401.16
1494.33
1461.86
1438.54
1503.65
1427.94
1397.59
1393.61
1377.61
1428.42
1520.91
1529.7
1310.56
1037.46
750.252
552.21
445.5
409.067
407.5
423.407
440.39
460.827
474.573
486.165
512.723
605.161
867.26
1136.43
1289.08
1205.23
1316.05
1944.14
1780.16
-7.3763
1.03475
-14.3757
-21.1088
-42.1071
-64.3038
-98.4327
-141.529
-201.086
-281.285
-392.435
-544.902
-749.001
-1018.8
-1376.84
-1855.86
-2501.86
-3381.18
-4600.41
-6259.25
-6763.33
-6261.57
-4430.35
-3714.61
-2768.51
-1663.06
-944.446
-276.929
357.163
736.376
1034.63
1286.09
1474.69
1635.04
1744.31
1820.25
1864.99
1897.45
1944.6
1888.95
1833.94
1720.04
1616.72
1584.58
1523.65
1324.78
1447.44
1546.98
1516.09
1512.94
1580.74
1499.87
1466.51
1456.33
1486.37
1532.54
1627.1
1612.95
1402.63
1126.83
830.927
618.695
497.593
449.341
438.566
447.547
459.445
477.113
489.372
500.939
535.027
638.698
924.156
1211.56
1375.67
1338.54
1383.13
2039.63
1847.78
-7.088
2.22124
-13.2172
-19.8189
-41.046
-63.4354
-97.7802
-141.015
-200.738
-281.179
-393.264
-547.944
-755.631
-1031.59
-1400.58
-1898.16
-2574.45
-3500.21
-4780.08
-6475.18
-6957.94
-6420.98
-4629.85
-3825.94
-2829.4
-1706.42
-955.826
-261.51
388.34
781.64
1093.59
1354.22
1545.4
1704.58
1812.21
1888.07
1935.8
1971.72
2019.09
1958.91
1897.08
1788.54
1678.02
1640.63
1565.76
1350.69
1495.08
1598.01
1564.28
1584.01
1653.6
1569.2
1533.12
1518.6
1583.3
1629.83
1721.7
1688.64
1490.89
1214.32
911.573
686.206
550.971
490.655
470.331
472.051
478.657
493.531
504.344
516.865
558.937
677.468
985.825
1291.72
1470.73
1493.17
1489.88
2142.2
1883.44
-6.81693
3.53143
-11.9504
-18.3708
-39.8041
-62.3684
-96.8449
-140.109
-199.837
-280.278
-393.176
-549.771
-760.457
-1041.9
-1420.97
-1935.93
-2640.55
-3608.54
-4939.9
-6662.9
-7148.32
-6560.87
-4818.82
-3914.77
-2888.33
-1747.28
-963.211
-244.534
421.086
828.964
1154.63
1424.12
1617.41
1775.33
1880.92
1956.02
2006.79
2046.67
2094.6
2030.34
1959.76
1856.52
1739.49
1696.45
1609.33
1380.94
1543.9
1646.52
1605.59
1651.93
1721.84
1636.02
1597.16
1580
1669.51
1720.27
1803.6
1759.11
1575.49
1299.83
992.045
754.737
605.634
533.055
502.793
496.953
498.117
510.277
519.779
534.343
584.926
721.597
1052.32
1376.77
1573.38
1655.67
1643.72
2239.12
1919.16
-6.5679
4.97091
-10.5782
-16.7714
-38.4024
-61.099
-95.6356
-138.834
-198.371
-278.593
-392.214
-550.303
-763.357
-1049.56
-1437.77
-1968.74
-2699.46
-3705.15
-5079.42
-6820
-7306.44
-6673.17
-4982.12
-3986.74
-2945.15
-1783.68
-966.913
-225.995
455.345
878.218
1217.52
1495.58
1690.58
1847.19
1950.55
2024.21
2077.91
2122.04
2170.65
2103.35
2022.15
1923.94
1801.19
1752.15
1652.95
1415.31
1593.92
1691.49
1640.04
1716.85
1785.18
1700.67
1659.14
1640.41
1746.89
1803.7
1875.29
1826.29
1656.57
1383.34
1072.28
824.305
661.626
576.646
536.027
522.377
518.034
527.625
536.064
553.828
613.622
771.1
1123.48
1466.33
1681.52
1820
1835.35
2335.8
1980.78
-6.34485
6.54678
-9.10025
-15.0223
-36.8651
-59.6405
-94.1671
-137.21
-196.322
-276.174
-390.382
-549.446
-764.231
-1054.45
-1450.77
-1996.25
-2750.62
-3789.3
-5198.05
-6942.03
-7417.19
-6748.33
-5114.85
-4049
-2996.52
-1814.39
-967.347
-205.732
491.043
929.3
1282.05
1568.33
1764.78
1920.06
2021.18
2092.87
2149.05
2197.59
2246.84
2177.85
2084.61
1991
1863.27
1807.58
1697.19
1453.94
1644.97
1731.62
1668.87
1778.89
1843.78
1763.43
1718.87
1700.39
1818.01
1879.3
1940.83
1891.12
1734.17
1464.86
1152.25
894.915
719.037
621.498
570.142
548.492
538.755
545.963
553.703
575.841
645.749
825.954
1198.94
1559.7
1793.39
1982.9
2044.31
2448.74
2022.12
-6.15091
8.267
-7.51478
-13.1186
-35.2057
-58.0053
-92.4578
-135.234
-193.675
-273.078
-387.645
-547.126
-763.014
-1056.5
-1459.83
-2018.2
-2793.61
-3860.54
-5295.16
-7025.04
-7474.63
-6783.05
-5220.37
-4102.73
-3038.03
-1839.46
-964.735
-183.448
528.145
982.116
1347.95
1642.03
1839.86
1993.84
2092.84
2162.31
2220.22
2273.01
2322.85
2253.62
2147.74
2057.97
1925.8
1862.61
1742.26
1496.4
1695.78
1764.92
1694.71
1837.8
1897.94
1824.96
1775.72
1762.58
1885.93
1945.29
2002.2
1953.25
1808.18
1544.39
1231.98
966.578
777.992
667.711
605.371
575.597
560.687
565.753
573.239
600.915
682.081
886.083
1278.2
1655.96
1907.81
2140.37
2251.61
2572.98
2084.08
-5.98866
10.1397
-5.8214
-11.066
-33.4338
-56.2015
-90.529
-132.891
-190.436
-269.352
-383.953
-543.298
-759.685
-1055.65
-1464.88
-2034.44
-2828.2
-3918.68
-5370.25
-7066.87
-7478.7
-6778.79
-5300.21
-4143.85
-3067.36
-1859.61
-958.859
-158.787
566.752
1036.66
1415.07
1716.32
1915.59
2068.38
2165.54
2232.8
2291.63
2347.98
2398.21
2330.16
2212.17
2125.11
1988.78
1917.29
1785.97
1540.68
1744.06
1788.28
1720.92
1893.42
1948.14
1886.07
1831.5
1831.89
1952.31
1999.37
2057.8
2011.41
1878.44
1621.93
1311.48
1039.32
838.647
715.554
642.093
604.175
584.292
587.487
595.295
629.634
723.411
951.353
1360.75
1754.1
2023.71
2289.11
2446.93
2705.38
2174.32
-5.86062
12.1744
-4.01632
-8.87722
-31.5546
-54.2416
-88.4028
-130.162
-186.64
-265.011
-379.267
-537.949
-754.262
-1051.94
-1465.9
-2044.92
-2854.33
-3963.77
-5423.12
-7067.73
-7433.31
-6738.82
-5351.77
-4169.19
-3085.02
-1875.13
-949.165
-131.459
607.093
1093.08
1483.4
1790.99
1991.69
2143.51
2239.23
2304.51
2363.71
2422.3
2472.35
2406.85
2278.81
2192.89
2052.04
1971.69
1828.15
1585.2
1788.08
1797.62
1749.58
1946.97
1995.36
1946.2
1890.74
1906.61
2012.94
2043.2
2106.44
2064.85
1944.9
1697.48
1390.78
1113.21
901.209
765.419
680.788
634.745
610.045
611.666
620.59
662.687
770.372
1021.58
1446.08
1853.18
2140.02
2427.82
2625.97
2840.12
2305.96
-5.7698
14.3813
-2.09087
-6.55751
-29.5703
-52.1521
-86.0992
-127.036
-182.346
-260.046
-373.572
-531.096
-746.796
-1045.42
-1462.94
-2049.69
-2872.08
-3996.05
-5454.03
-7030.05
-7344.92
-6667.25
-5372.88
-4179.06
-3092.44
-1885.39
-935.133
-101.27
649.466
1151.58
1553.1
1866.06
2067.93
2219
2313.83
2377.53
2436.86
2496.05
2544.64
2482.63
2348.08
2262.18
2115.14
2025.69
1869.73
1629.2
1826.67
1789.23
1781.65
2000.06
2040.78
2004.96
1954.69
1975.97
2063.74
2085.51
2149.02
2114.17
2007.66
1771.06
1469.87
1188.35
965.936
817.733
722
667.831
638.439
638.842
649.764
700.605
823.282
1096.54
1533.76
1952.42
2255.65
2557.06
2787.82
2969.06
2448.01
-5.71986
16.7667
-0.0530323
-4.12035
-27.493
-49.9743
-83.6343
-123.526
-177.599
-254.45
-366.871
-522.787
-737.379
-1036.21
-1456.16
-2048.91
-2881.67
-4015.92
-5463.73
-6957.98
-7221.3
-6569.06
-5364.57
-4175.12
-3090.13
-1889.31
-916.525
-68.042
694.194
1212.36
1624.3
1941.71
2144.28
2294.65
2389.18
2451.89
2511.3
2569.62
2614.76
2555.67
2418.29
2334.68
2177.7
2079.07
1910.39
1671.93
1858.44
1762.89
1818.86
2052.37
2085.04
2063.82
2018.28
2033.71
2107.74
2132.5
2185.95
2159.95
2066.71
1842.66
1548.73
1264.85
1033.12
872.924
766.257
703.956
669.979
669.602
683.427
743.755
882.244
1175.99
1623.45
2051.25