/*--------------------------------*- C++ -*----------------------------------*\
| =========                 |                                                 |
| \\      /  F ield         | OpenFOAM: The Open Source CFD Toolbox           |
|  \\    /   O peration     | Version:  4.1                                   |
|   \\  /    A nd           | Web:      www.OpenFOAM.org                      |
|    \\/     M anipulation  |                                                 |
\*---------------------------------------------------------------------------*/
FoamFile
{
    version     2.0;
    format      ascii;
    class       surfaceScalarField;
    location    "18";
    object      phi;
}
// * * * * * * * * * * * * * * * * * * * * * * * * * * * * * * * * * * * * * //

dimensions      [0 3 -1 0 0 0 0];

internalField   nonuniform List<scalar> 
13220
(
-908.251
2208.16
-1414
1805.95
-1886.84
1772.74
-2249.04
1662.11
-2527.59
1578.76
-2725.98
1498.3
-2846.4
1420.32
-2889.74
1343.54
-2855.91
1266.08
-2742.77
1186.76
-2552.43
1109.86
-2283.69
1031.16
-1897.99
914.208
-1271.47
673.687
28.4286
12.5052
2195.66
-17.307
1835.78
-133.06
1888.51
-220.877
1749.94
-311.73
1669.62
-387.389
1573.97
-447.338
1480.28
-488.494
1384.71
-511.205
1288.8
-518.388
1193.95
-514.461
1105.94
-498.593
1015.3
-413.715
829.337
-137.173
397.171
-108.739
-102.801
2298.47
-279.678
2012.66
-449.216
2058.05
-542.598
1843.33
-627.851
1754.88
-678.799
1624.92
-705.469
1506.96
-709.258
1388.5
-692.805
1272.35
-660.053
1161.22
-611.618
1057.51
-534.373
938.132
-398.86
693.925
-184.631
183.141
-293.374
44.3295
2254.12
12.0238
2044.94
1.70613
2068.35
32.3081
1812.7
58.9974
1728.17
108.839
1575.06
172.676
1443.1
251.356
1309.81
337.018
1186.68
423.42
1074.79
511.516
969.414
591.404
858.154
585.583
699.651
337.859
430.691
44.4825
74.1251
2179.96
107.058
2011.97
149.912
2025.45
204.184
1758.39
248.261
1684.05
304.736
1518.54
357.646
1390.14
417.156
1250.25
490.86
1112.93
577.618
987.982
652.025
894.962
679.158
830.982
608.029
770.715
370.056
668.552
414.537
3.92819
2175.99
-5.05667
2020.91
-5.89494
2026.25
-19.0626
1771.5
-34.5457
1699.48
-43.8674
1527.8
-55.78
1402
-38.0061
1232.42
54.0509
1020.8
227.38
814.573
400.057
722.227
485.643
745.311
442.121
814.164
264.2
846.383
678.736
-33.8806
2209.84
-144.013
2131.02
-209.849
2092.05
-296.586
1858.21
-381.605
1784.47
-467.419
1613.6
-556.571
1491.13
-617.326
1293.16
-609.867
1013.33
-506.23
710.898
-326.317
542.316
-116.892
535.755
41.3675
655.782
70.0327
817.58
748.77
33.8992
2175.93
-138.399
2303.3
-235.937
2189.58
-340.329
1962.6
-445.812
1889.95
-554.033
1721.81
-672.656
1609.75
-804.394
1424.89
-954.719
1163.65
-1089.97
846.164
-1127.49
579.819
-982.104
390.467
-649.453
323.221
-248.643
416.889
500.125
157.303
2018.63
46.475
2414.13
-15.1961
2251.26
-62.0533
2009.45
-97.4044
1925.3
-141.089
1765.49
-184.267
1652.93
-256.743
1497.37
-388.786
1295.7
-581.413
1038.76
-771.603
770.033
-870.659
489.38
-771.965
224.41
-460.303
105.077
39.8247
224.432
1794.21
214.779
2423.8
197.707
2268.34
202.07
2005.1
235.288
1892.1
262.606
1738.18
303.722
1611.83
326.694
1474.4
300.151
1322.25
201.471
1137.47
45.6001
925.897
-145.167
680.306
-296.361
375.905
-222.261
31.3335
-182.437
216.004
1578.23
266.998
2372.82
300.383
2234.97
344.739
1960.76
396.699
1840.16
443.141
1691.76
491.051
1563.93
528.927
1436.54
544.923
1306.27
525.735
1156.67
465.771
985.894
355.505
790.511
190.323
541.031
-14.6384
236.208
-197.07
178.259
1400
207.685
2343.41
155.536
2287.15
123.499
1992.83
130.082
1833.6
152.469
1669.39
188.484
1527.94
227.763
1397.28
253.785
1280.27
262.365
1148.12
256.091
992.178
233.391
813.332
187.216
587.358
159.005
264.775
-38.0643
547.232
852.784
639.219
2251.44
560.084
2366.3
403.909
2149.02
273.304
1964.22
166.721
1775.99
95.3209
1599.35
56.7436
1435.87
30.9398
1306.09
-9.39288
1188.47
-69.2617
1052.06
-128.419
872.494
-137.956
596.919
-12.5407
139.43
-50.604
-1694.08
2546.87
-2469.59
3026.95
-2562.32
2459.03
-2364.48
1951.18
-2054.05
1653.8
-1827.92
1549.86
-1711.26
1482.69
-1642.63
1367.25
-1529.65
1193.11
-1294.78
953.599
-955.039
712.317
-476.273
393.742
71.918
48.7462
400.875
-189.496
350.27
-3525.76
-4674.98
-5051.94
-5076.78
-4593.8
-3774.27
-2810.99
-2278.37
-2164.36
-1956.2
-2067.34
-1856.01
-1930.66
-1845.72
-0.000156657
-564.289
564.289
-564.29
-564.29
-564.29
-1056.43
492.14
-1056.43
-1056.43
-1056.43
-1579.04
522.608
-1579.04
-1579.04
-2137
557.962
-2137
-2137
-2137
-2859.1
722.097
-2859.1
-2859.1
-3540.89
681.794
-3540.89
-3540.89
-3540.89
-4029.21
488.316
-4029.21
-4029.21
-4029.21
-4134.09
104.879
-4134.09
-4134.09
-3594.51
-539.575
-3594.51
-3594.51
-3594.51
-2304.71
-1289.8
-2304.71
-2304.71
-199.319
-2105.39
-199.32
-199.32
-199.32
2645.5
-2844.82
2645.5
2645.5
2645.5
5933.49
-3287.99
5933.49
5933.49
9489.13
-3555.64
9489.13
9489.13
9489.13
13137.5
-3648.41
13137.5
13137.5
13137.5
16777.4
-3639.85
16777.4
16777.4
20395.8
-3618.43
20395.8
20395.8
20395.8
23875.1
-3479.28
23875.1
23875.1
27251.9
-3376.78
27251.9
27251.9
27251.9
30407
-3155.07
30407
30407
30407
33301.3
-2894.38
33301.3
33301.3
35986.2
-2684.83
35986.2
35986.2
35132.6
34430.2
34376.7
36490.4
-2123.24
36482.7
36492.5
36452.7
36377.5
36305.5
36238.6
36198
36149.2
36821.1
-731.214
36969.2
37082.9
37065.1
37088.4
37153.1
37201.6
37240.8
37247.9
36990.1
293.214
37251.4
37476
37581.3
37687.8
37831.6
38001.3
38156.4
38309.9
38434.3
37987.1
543.642
38253.3
38511
38684.9
38842.8
39008.4
39170.2
39332.5
39465.7
39529.4
53.8627
39709.1
39893.9
39997.4
40078.9
40171.8
40263
40352.4
40423.2
40836.5
-332.105
40982.7
41181.5
41351.1
41526.6
41725.8
41936
42171.3
42423.1
41525.5
1140.15
41879.5
42281.4
42644.6
43013.9
43410.1
43936.4
44471.9
45002.5
45545.6
44200.8
1838.71
44877.5
45689.6
46442
47197.2
48001.4
48909.3
50015.9
51152.9
49522.8
2619.55
50669.7
52025.1
52025.1
49268
2757.02
45991.4
3276.59
45991.4
43299.3
2692.11
43299.3
40952.2
2347.14
38164.9
2787.29
38164.9
35936.5
2228.42
33319
2617.51
33319
31100.5
2218.53
31100.5
29182.3
1918.21
27144
2038.21
27144
25599.7
1544.35
25599.7
24449.8
1149.92
23560.2
889.558
23560.2
23249.1
311.124
23308.8
-59.7419
23308.8
23782.9
-474.088
23782.9
24396.6
-613.649
25244.9
-848.322
25244.9
26177.4
-932.473
26177.4
27077.8
-900.444
28122.9
-1045.13
28122.9
29104.6
-981.638
30144.5
-1039.96
30144.5
31174.7
-1030.19
31174.7
32127.3
-952.601
33010.4
-883.012
33010.4
33822.9
-812.524
33822.9
34490.7
-667.779
34862.3
-371.679
34862.3
35129.4
-267.07
34916.4
213.053
34916.4
34513.5
402.853
34513.5
33886.4
627.108
32713.9
1172.51
32713.9
31449.2
1264.63
31449.2
30079.5
1369.74
28344.3
1735.2
28344.3
26812.1
1532.16
25104.5
1707.65
25104.5
23722.2
1382.25
23722.2
22683.5
1038.69
21888.3
795.226
21888.3
21732.2
156.16
21732.2
22184
-451.817
23267.2
-1083.25
23267.2
24994.2
-1727.01
27438.6
-2444.38
27438.6
30526.8
-3088.23
30526.8
-3849.42
-4701.52
-17278.9
-4745.16
-19113
-4760.37
-19941.4
-4752.77
-21177.3
-4715.02
-22301.2
-4648.25
-23499
-4552.52
-24648.7
-4428.84
-25770.8
-4276.15
-26803.7
-4091.64
-27708.4
-3871.46
-28398
-3613.24
-28758
-3317.84
-28621.3
-2989.12
-27768.4
-2631.24
-25898.9
-2233.7
-22627.1
-1654.88
-16940.2
-569.158
-3740.2
35.8172
14899.6
404.588
22939.2
715.926
29888.2
1026.94
36308.9
1317.16
41882.6
1548.75
46073.3
1771.08
49355.4
1984.22
51759.8
2101.63
51805.7
2117.51
50307.3
1715.02
42177.5
1124.34
34233.1
628.955
32772
77.174
31975
-142.439
41658.1
-124.867
48361
-48.9798
49100.3
40.1568
48651.5
134.748
48430.4
270.687
51176.8
452.463
54164.9
625.003
48015.4
768.325
35244.6
1060.7
23519.2
700.189
-5901.8
145.135
-22600.7
943.509
-21191.6
2204.61
27950.8
2382.13
38742.5
2326.72
32498.7
2238.99
20735.1
2038.5
9899.84
2115.35
4580.44
3393.57
-7105.9
5052.89
-19489.5
5083.75
-23315.4
3840.37
-21819.1
3707.31
19242.6
4229.11
63982.9
4488.51
81582.9
4475.35
82555.6
4303.59
72806.3
4105.32
59242
3960.59
46325.3
3893.48
35499.9
3898.16
26651.4
3960.94
19364.3
4076.14
13239.3
4241.37
7953.52
4301.19
3332.97
3959.73
-882.899
3218.63
-7101.36
2427.57
-12297.2
1398.41
-18267.8
762.109
-47913
1946.35
-92016.1
3775.77
-102895
4687.39
-93585
4972.63
-81546.5
4713.67
-68085.5
-52062.3
-4724.28
-17228.2
-4775.17
-19062.1
-4785.64
-19931
-4769.94
-21193
-4721.1
-22350.1
-4644.03
-23576
-4540.08
-24752.7
-4411.2
-25899.7
-4256.18
-26958.7
-4071.65
-27893
-3853.25
-28616.4
-3599
-29012.2
-3311.38
-28908.9
-2996.17
-28083.6
-2657.06
-26238
-2279.22
-23005
-1704.59
-17514.8
-323.298
-5121.49
188.023
14388.2
423.566
22703.6
719.982
29591.8
1016.71
36012.2
1291.12
41608.2
1520.58
45843.8
1740.03
49136
1948.85
51551
2069.49
51685.1
2084.64
50292.1
1692.6
42569.6
1110.85
34814.8
621.881
33261
78.484
32518.4
-140.508
41877.1
-126.892
48347.4
-52.1197
49025.5
38.3526
48561
135.52
48333.2
273.514
51038.8
458.309
53980.1
628.344
47845.4
782.942
35090
1114.51
23187.6
742.5
-5529.79
132.38
-21990.6
746.285
-21805.5
2227.11
26469.9
2449.54
38520.1
2365.84
32582.4
2266.88
20834.1
2058.81
10107.9
2302.62
4336.63
3834.17
-8637.45
5383.78
-21039.1
5253.06
-23184.6
3846.53
-20412.5
3693.64
19395.5
4247.63
63428.9
4504.94
81325.6
4488.67
82571.9
4312.2
72982.8
4108.63
59445.6
3959.28
46474.7
3888.1
35571.1
3887.62
26651.9
3944.86
19307.1
4054.05
13130.1
4158.38
7849.2
4076.86
3414.49
3733.78
-539.817
3130.37
-6497.95
2501.37
-11668.2
1536.52
-17302.9
613.799
-46990.3
1604.91
-93007.3
3400.56
-104691
4119.12
-94303.6
4247.65
-81675.1
3837.48
-67675.4
-51313
-4743.59
-17174.9
-4789.14
-19016.6
-4791.97
-19928.1
-4768.27
-21216.7
-4712.59
-22405.8
-4631.15
-23657.5
-4525.47
-24858.3
-4397.17
-26028
-4244.37
-27111.5
-4063.13
-28074.2
-3849.09
-28830.4
-3601.14
-29260.2
-3323.48
-29186.5
-3023.16
-28383.9
-2702.13
-26559
-2338.45
-23368.6
-1773.59
-18079.7
-304.35
-6590.72
433.113
13650.8
571.775
22565
738.468
29425.1
1004.35
35746.3
1266.26
41346.3
1485.66
45624.4
1697.61
48924
1902.2
51346.4
2023.8
51563.5
2042.83
50273.1
1665.05
42947.3
1091.65
35388.2
608.479
33744.2
71.4262
33055.4
-146.533
42095.1
-132.507
48333.3
-57.4845
48950.5
35.4036
48468.1
135.542
48233.1
276.945
50897.4
465.01
53792
640.336
47670.1
795.782
34934.5
1089.11
22894.3
719.592
-5160.27
181.127
-21452.1
722.511
-22346.9
2208.37
24984.1
2489.27
38239.2
2399.05
32672.6
2308.06
20925.1
2073.17
10342.8
2429.13
3980.66
4094.65
-10303
5507.33
-22451.7
5388.91
-23066.2
3989.29
-19012.9
3684.83
19700
4255.72
62858
4520.16
81061.2
4504.29
82587.8
4324.23
73162.9
4114.9
59654.9
3959.89
46629.7
3883.01
35648
3875.61
26659.3
3928.37
19254.3
4021.37
13037.1
4071.77
7798.8
3973.06
3513.2
3697.47
-264.234
3170.65
-5971.12
2637.89
-11135.4
1752.76
-16417.8
629.091
-45866.6
1370.25
-93748.4
3045.9
-106366
3583.91
-94841.6
3599.29
-81690.4
3172.07
-67248.1
-50585.3
-4760.04
-17118.5
-4801.41
-18975.2
-4797.05
-19932.5
-4766.18
-21247.5
-4704.44
-22467.5
-4619.41
-23742.5
-4512.7
-24965.1
-4385.62
-26155
-4235.71
-27261.4
-4058.65
-28251.3
-3850.34
-29038.7
-3610.96
-29499.5
-3346.76
-29450.7
-3065.94
-28664.7
-2768
-26857
-2422.26
-23714.4
-1869.43
-18632.5
-445.698
-8014.46
559.123
12645.9
776.314
22347.8
804.4
29397
993.109
35557.6
1237.57
41101.8
1447.14
45414.9
1648.74
48722.4
1847.15
51148
1969.94
51440.7
1993.2
50249.9
1634.24
43306.3
1071.11
35951.4
590.261
34225
59.089
33586.6
-157.922
42312.1
-141.95
48317.4
-64.8749
48873.4
31.0996
48372.2
134.528
48129.7
279.512
50752.4
470.953
53600.6
651.822
47489.2
805.853
34780.5
1079.38
22620.8
701.166
-4782.06
184.652
-20935.6
663.261
-22825.5
2194.92
23452.4
2522.02
37912.1
2432.93
32761.7
2353.96
21004
2104.72
10592
2580.83
3504.55
4348.99
-12071.1
5637.22
-23740
5502.29
-22931.3
4098.67
-17609.3
3692.73
20105.9
4251.16
62299.6
4527.65
80784.7
4517.97
82597.4
4337.97
73342.9
4124.9
59868
3964.55
46790
3880.42
35732.1
3865.72
26674
3911.81
19208.3
3979.06
12969.8
3990.07
7787.79
3889.7
3613.57
3663.82
-38.3577
3202.35
-5509.66
2765.79
-10698.9
1980.42
-15632.4
653.147
-44539.3
1087.62
-94182.9
2596.25
-107875
2921.06
-95166.4
2814.35
-81583.7
2368.18
-66802
-49944.2
-4775.34
-17061.9
-4809.59
-18940.9
-4797.19
-19944.9
-4759.35
-21285.4
-4692.79
-22534.1
-4605.88
-23829.4
-4499.98
-25071
-4375.9
-26279.1
-4230.54
-27406.8
-4059.36
-28422.5
-3858.9
-29239.2
-3631.11
-29727.3
-3384.48
-29697.3
-3127.91
-28921.3
-2857.06
-27127.8
-2531.83
-24039.6
-1991.46
-19172.9
-608.298
-9397.62
648.753
11388.9
978.863
22017.7
933.211
29442.7
1000.88
35490
1204.1
40898.6
1402.53
45216.4
1592.48
48532.5
1782.3
50958.2
1904.98
51318
1932.82
50222
1595.01
43644.1
1044.93
36501.4
566.776
34703.2
41.5643
34111.8
-174.012
42527.7
-155.128
48298.5
-74.7432
48793
25.0025
48272.4
132.117
48022.6
280.785
50603.7
475.814
53405.6
661.934
47303.1
814.984
34627.4
1065.95
22369.8
680.867
-4396.98
177.577
-20432.3
597.034
-23245
2192.31
21857.1
2558.29
37546.1
2474.45
32845.5
2399.73
21078.8
2156.4
10835.4
2759.44
2901.51
4563.7
-13875.4
5711.66
-24887.9
5565.11
-22784.7
4180.17
-16224.4
3700.4
20585.7
4237.02
61762.9
4530.3
80491.4
4531.14
82596.6
4353.5
73520.5
4137.89
60083.6
3972.1
46955.8
3879.7
35824.5
3857.74
26695.9
3892.76
19173.2
3931.95
12930.6
3914.66
7805.09
3818.68
3709.55
3637.22
143.104
3240.58
-5113.02
2899.29
-10357.6
2240.32
-14973.4
733.877
-43032.9
793.598
-94242.6
2063.49
-109145
2157.68
-95260.6
1941.47
-81367.5
1495.23
-66355.7
-49532.2
-4786.95
-17006.8
-4813.13
-18914.8
-4793.17
-19964.8
-4749.6
-21328.9
-4679.87
-22603.8
-4592.74
-23916.5
-4489.12
-25174.6
-4369.26
-26399
-4229.58
-27546.5
-4065.63
-28586.4
-3875.06
-29429.8
-3661.98
-29940.4
-3437.23
-29922.1
-3209.47
-29149.1
-2968.7
-27368.6
-2664.25
-24344.1
-2140.46
-19696.7
-802.183
-10735.9
718.981
9867.73
1155.84
21580.8
1108.43
29490.1
1046.71
35551.7
1172.19
40773.1
1349.94
45038.7
1527.91
48354.5
1707.83
50778.3
1828.53
51197.3
1861.13
50189.4
1545.89
43959.4
1011.16
37036.1
537.172
35177.2
17.6722
34631.3
-195.464
42740.8
-172.333
48275.3
-87.4248
48708.1
16.8217
48168.2
127.948
47911.4
280.435
50451.3
479.462
53206.5
671.112
47111.4
823.726
34474.8
1041.2
22152.3
658.157
-4013.93
187.9
-19962.1
552.692
-23609.8
2198.75
20211.1
2598.55
37146.3
2524.32
32919.8
2439.45
21163.6
2226.5
11048.3
2958.47
2169.54
4734.14
-15651.1
5739.01
-25892.8
5582.76
-22628.5
4235.92
-14877.5
3696.02
21125.6
4212.76
61246.2
4529.29
80174.9
4544.57
82581.3
4371.14
73693.9
4153.83
60300.9
3982.29
47127.3
3881.5
35925.3
3851.85
26725.6
3871.87
19153.2
3884.56
12917.9
3847.42
7842.23
3759.17
3797.8
3617.94
284.329
3280.69
-4775.76
3023.02
-10099.9
2507.05
-14457.5
855.871
-41381.7
485.944
-93872.7
1449.94
-110109
1315.02
-95125.6
1014.19
-81066.7
635.505
-65977
-49348.5
-4795.25
-16954.9
-4812.59
-18897.4
-4785.77
-19991.7
-4737.73
-21377
-4666.38
-22675.1
-4580.46
-24002.5
-4480.3
-25274.8
-4365.66
-26513.6
-4232.7
-27679.4
-4077.44
-28741.7
-3899.1
-29608.1
-3704.34
-30135.2
-3506.11
-30120.3
-3311.53
-29343.7
-3102.56
-27577.5
-2816.73
-24629.9
-2309.43
-20204
-1062.38
-11982.9
730.661
8074.7
1293.34
21018.1
1300.81
29482.6
1138.86
35713.6
1154.76
40757.2
1290.82
44902.6
1454.15
48191.2
1624.36
50608
1741.76
51079.9
1778.5
50152.7
1486.92
44250.9
969.937
37553.1
501.021
35646.1
-13.0463
35145.4
-222.609
42950.4
-193.767
48246.5
-103.042
48617.4
6.44052
48058.7
121.825
47796
278.214
50294.9
481.656
53003.1
679.422
46913.7
832.677
34321.6
1021.99
21963
645.779
-3637.72
210.968
-19527.3
524.75
-23923.5
2211.97
18523.9
2641.46
36716.8
2582.21
32979
2471.7
21274.1
2312.36
11207.7
3165.94
1315.95
4853.27
-17338.4
5711.17
-26750.7
5528.5
-22445.8
4242.34
-13591.4
3672.71
21695.2
4177.35
60741.5
4524.72
79827.5
4558.65
82547.4
4391.35
73861.2
4173.21
60519.1
3995.48
47305.1
3886.47
36034.3
3847.9
26764.2
3850.27
19150.8
3839.67
12928.5
3789.27
7892.63
3709.83
3877.24
3603.52
390.634
3319.07
-4491.31
3130.68
-9911.53
2770.2
-14097
1019.5
-39631
173.225
-93026.4
767.52
-110703
431.556
-94789.7
85.3819
-80720.5
-220.467
-65671.2
-49412.8
-4799.81
-16907.1
-4808.22
-18889
-4775.72
-20024.2
-4724.68
-21428
-4653.22
-22746.6
-4569.73
-24086
-4473.94
-25370.5
-4365.33
-26622.2
-4240.06
-27804.7
-4095.03
-28886.7
-3931.54
-29771.6
-3759.09
-30307.6
-3592.14
-30287.3
-3434.44
-29501.4
-3257.33
-27754.7
-2986.11
-24901.1
-2486.76
-20703.3
-1309.4
-13160.3
806.741
5958.55
1385.6
20439.3
1486.41
29381.8
1271.4
35928.6
1165.4
40863.2
1231.54
44836.5
1370.64
48052.1
1531.38
50447.3
1645.15
50966.2
1685.01
50112.8
1417.39
44518.6
920.914
38049.6
457.946
36109.1
-50.6711
35654
-255.48
43155.2
-219.558
48210.6
-121.77
48519.6
-6.31593
47943.2
113.565
47676.2
273.876
50134.6
482.133
52794.8
686.757
46709
842.407
34165.9
1018.5
21786.9
651.065
-3270.29
234.579
-19110.8
494.139
-24183.1
2228.14
16789.9
2686.48
36258.5
2647.95
33017.6
2503.97
21418.1
2411.45
11300.2
3362.74
364.662
4916.79
-18892.4
5625.47
-27459.4
5386.43
-22206.8
4177.52
-12382.5
3622.27
22250.5
4130.61
60233.2
4517.44
79440.7
4574.23
82490.6
4414.73
74020.7
4196.23
60737.6
4012.03
47489.3
3894.77
36151.6
3845.65
26813.3
3829.32
19167.2
3799.34
12958.5
3740.5
7951.46
3669.75
3948
3593.24
467.145
3353.58
-4251.66
3215.69
-9773.64
3015.04
-13896.3
1218.05
-37834
-135.392
-91673
39.0732
-110878
-439.034
-94311.6
-781.354
-80378.2
-936.167
-65516.4
-49553.7
-4800.88
-16864.2
-4800.79
-18889.1
-4763.99
-20060.9
-4711.38
-21480.6
-4641.11
-22816.9
-4560.97
-24166.1
-4470.23
-25461.3
-4368.26
-26724.2
-4251.62
-27921.3
-4118.56
-29019.7
-3972.91
-29917.3
-3827.1
-30453.4
-3696.15
-30418.2
-3578
-29619.5
-3430.78
-27901.9
-3167.75
-25164.1
-2669.85
-21201.2
-1569.73
-14260.4
814.147
3574.68
1454.49
19798.9
1653.92
29182.4
1427.79
36154.8
1211.45
41079.5
1182.47
44865.4
1279.02
47955.6
1427.63
50298.7
1538.3
50855.5
1580.66
50070.5
1336.45
44762.8
863.232
38522.8
407.496
36564.8
-95.4787
36157
-294.219
43353.9
-249.871
48166.2
-143.861
48413.6
-21.7106
47821.1
102.909
47551.5
267.119
49970.4
480.619
52581.3
692.982
46496.7
853.185
34005.7
1023.35
21616.8
668.412
-2915.35
271.007
-18713.4
469.394
-24381.5
2245.19
15014.1
2732.56
35771.1
2720.09
33030
2551.16
21587.1
2528.46
11322.9
3532.96
-639.839
4924.13
-20283.6
5478.2
-28013.4
5156.99
-21885.6
4037.57
-11263.1
3538.29
22749.7
4072.71
59698.8
4508.63
79004.8
4592.41
82406.8
4442
74171.1
4223.05
60956.5
4032.26
47680.1
3906.5
36277.3
3845.24
26874.5
3810.52
19201.9
3764.96
13004.1
3701.18
8015.25
3638.43
4010.75
3586.54
519.034
3382.53
-4047.65
3274.2
-9665.3
3230.35
-13852.5
1444.3
-36048
-427.553
-89801.1
-702.494
-110603
-1241.85
-93772.2
-1530.82
-80089.2
-1513.47
-65533.7
-50028.5
-4798.78
-16826.6
-4791.08
-18896.8
-4751.5
-20100.5
-4698.64
-21533.5
-4630.59
-22884.9
-4554.46
-24242.2
-4469.21
-25546.5
-4374.44
-26819
-4267.45
-28028.3
-4148.33
-29138.9
-4023.88
-30041.7
-3909.31
-30568
-3818.68
-30508.9
-3741.29
-29696.9
-3619.72
-28023.4
-3355.95
-25427.9
-2847.15
-21710
-1804.4
-15303.2
629.48
1140.8
1502.23
18926.2
1799.89
28884.7
1590.29
36364.4
1291.29
41378.5
1154.41
45002.3
1184.56
47925.4
1312.63
50170.6
1420.22
50747.9
1465.31
50025.4
1243.66
44984.4
796.187
38970.3
349.217
37011.8
-147.898
36654.1
-339.076
43545.1
-284.896
48112.1
-169.559
48298.3
-40.0155
47691.5
89.5716
47422
257.633
49802.3
476.846
52362.1
697.924
46275.6
865.203
33838.4
1033.72
21448.3
692.083
-2573.72
319.919
-18341.2
457.067
-24518.6
2263.61
13207.5
2778.99
35255.7
2795.88
33013.1
2625
21757.9
2666.21
11281.7
3665.99
-1639.62
4878.51
-21496.1
5270.55
-28405.5
4859.72
-21474.7
3834.88
-10238.2
3417.98
23166.6
4004.14
59112.6
4499.46
78509.4
4614.34
82291.9
4474.02
74311.5
4253.94
61176.6
4056.32
47877.7
3921.68
36412
3847.07
26949.2
3795.23
19253.7
3737.46
13061.8
3671.04
8081.66
3615.07
4066.72
3582.79
551.315
3405.15
-3870.01
3304.68
-9564.84
3407.49
-13955.3
1688.7
-34329.2
-690.29
-87422.1
-1420.03
-109873
-1946.27
-93246
-2139.37
-79896.1
-1968.4
-65704.7
-50614.7
-4794.07
-16794
-4779.99
-18910.9
-4739.1
-20141.4
-4687.11
-21585.5
-4622.05
-22950
-4550.34
-24313.9
-4470.91
-25626
-4383.85
-26906
-4287.66
-28124.5
-4184.71
-29241.8
-4085.16
-30141.3
-4006.53
-30646.6
-3959.81
-30555.6
-3922.5
-29734.2
-3820.01
-28125.9
-3544.7
-25703.2
-3006.9
-22247.8
-1974.19
-16335.9
482.884
-1316.28
1552.07
17857
1926.99
28509.8
1745.67
36545.7
1396.45
41727.8
1154.56
45244.2
1095.56
47984.4
1188.02
50078.2
1289.88
50646
1338.33
49976.9
1138.72
45184
719.157
39389.9
282.615
37448.3
-208.347
37145.1
-390.31
43727.1
-324.813
48046.6
-199.079
48172.5
-61.4846
47553.9
73.2841
47287.2
245.138
49630.4
470.573
52136.7
701.421
46044.8
878.603
33661.2
1051.4
21275.5
723.155
-2245.47
378.062
-17996.1
454.597
-24595.2
2282.85
11379.3
2825.57
34713
2872.43
32966.3
2724.31
21906.1
2817.93
11188.1
3760.11
-2581.79
4788.18
-22524.2
5017.41
-28634.7
4533.51
-20990.8
3588.56
-9293.27
3263.05
23492.1
3925.86
58449.8
4491.05
77944.2
4641.16
82141.8
4511.69
74440.9
4289.5
61398.8
4084.47
48082.7
3940.34
36556.1
3851.73
27037.8
3784.52
19320.9
3717.3
13129
3649.63
8149.34
3599.08
4117.26
3581.78
568.613
3421.41
-3709.63
3308.09
-9451.52
3541.81
-14189
1942.42
-32729.8
-911.971
-84567.7
-2084.69
-108700
-2541.69
-92789
-2599.36
-79838.5
-2239.41
-66064.6
-51146.4
-4787.38
-16766.2
-4768.37
-18929.9
-4727.55
-20182.2
-4677.29
-21635.7
-4615.74
-23011.5
-4548.69
-24381
-4475.32
-25699.3
-4396.52
-26984.8
-4312.42
-28208.6
-4228.18
-29326.1
-4157.51
-30211.9
-4119.36
-30684.8
-4118.98
-30556
-4118.88
-29734.3
-4026.8
-28218
-3728.55
-26001.5
-3146.83
-22829.5
-2090.9
-17391.8
356.22
-3763.4
1607.27
16606
2042.61
28074.5
1886.95
36701.3
1514.98
42099.7
1184.12
45575.1
1021.09
48147.4
1058.21
50041.1
1147.03
50557.2
1198.63
49925.3
1021.05
45361.6
631.091
39779.8
207.114
37872.3
-277.186
37629.4
-448.15
43898
-369.788
47968.2
-232.616
48035.4
-86.3501
47407.7
53.7962
47147
229.389
49454.8
461.603
51904.5
703.347
45803
893.398
33471.2
1077.71
21091.2
765.289
-1933.05
454.095
-17684.9
468.05
-24609.1
2301.42
9545.9
2871.2
34143.2
2947.26
32890.2
2837.46
22015.9
2970.58
11054.9
3820.6
-3431.81
4667.11
-23370.7
4742.58
-28710.2
4199.13
-20447.4
3294.7
-8388.85
3075.93
23710.9
3839.49
57686.3
4484.42
77299.3
4673.86
81952.4
4555.87
74558.9
4330.6
61624.1
4117.3
48296
3962.76
36710.6
3859.95
27140.6
3779.25
19401.6
3704.69
13203.6
3636.32
8217.7
3589.7
4163.88
3583.11
575.199
3431.68
-3558.2
3287.54
-9307.39
3632.58
-14534.1
2199.61
-31296.8
-1080.06
-81288.1
-2677.44
-107103
-3027.52
-92438.9
-2916.3
-79949.7
-2360.42
-66620.5
-51974.7
-4779.46
-16742.4
-4757.05
-18952.3
-4717.42
-20221.9
-4669.52
-21683.6
-4611.79
-23069.3
-4549.52
-24443.2
-4482.44
-25766.4
-4412.55
-27054.7
-4342.01
-28279.2
-4279.27
-29388.8
-4241.64
-30249.6
-4248.09
-30678.3
-4294.89
-30509.1
-4326.73
-29702.5
-4234.71
-28310
-3902.65
-26333.5
-3266.7
-23465.5
-2171.34
-18487.2
260.665
-6195.41
1696.78
15169.8
2153.92
27617.3
2011.18
36844.1
1635.06
42475.8
1238.34
45971.8
968.088
48417.7
929.894
50079.3
993.096
50494
1045.38
49873
889.737
45517.2
530.475
40139.1
122.106
38280.7
-354.721
38106.2
-512.802
44056.1
-419.965
47875.4
-270.336
47885.7
-114.812
47252.2
30.8694
47001.4
210.163
49275.6
449.789
51664.9
703.607
45549.2
909.4
33265.4
1113.21
20887.3
822.06
-1641.9
549.666
-17412.5
501.858
-24561.3
2318.47
7729.29
2914.51
33547.2
3018.35
32786.4
2951.99
22082.2
3113.67
10893.3
3856.9
-4175.05
4530.3
-24044.1
4465.65
-28645.5
3847.3
-19829
2935.63
-7477.18
2858.48
23788.1
3747.3
56797.4
4480.55
76566.1
4713.23
81719.7
4607.36
74664.8
4378.2
61853.2
4155.6
48518.6
3989.49
36876.7
3872.52
27257.5
3779.98
19494.2
3699.53
13284
3630.42
8286.82
3586.27
4208.03
3586.49
574.98
3436.6
-3408.31
3248.03
-9118.82
3682.8
-14968.8
2458.43
-30072.4
-1181.38
-77648.3
-3186.68
-105098
-3410.91
-92214.7
-3102.67
-80257.9
-2355.05
-67368.1
-52594.5
-4771.05
-16722
-4746.71
-18976.7
-4709.15
-20259.4
-4664.01
-21728.8
-4610.24
-23123
-4552.85
-24500.6
-4492.35
-25826.9
-4432.11
-27115
-4376.79
-28334.5
-4338.61
-29427
-4338.19
-30250
-4392.52
-30624
-4485.35
-30416.3
-4541.45
-29646.4
-4438.12
-28413.4
-4062.63
-26709
-3365.64
-24162.5
-2225.79
-19627
168.918
-8590.12
1809.54
13529.2
2267.99
27158.9
2119.63
36992.4
1747.11
42848.4
1308.3
46410.6
939.39
48786.6
810.565
50208.1
831.602
50473
878.809
49825.8
743.866
45652.2
415.725
40467.2
26.6675
38669.7
-441.189
38574
-584.43
44199.4
-475.461
47766.4
-312.385
47722.6
-147.045
47086.8
4.28592
46850
187.257
49092.6
435.02
51417.1
702.116
45282.1
926.216
33041.3
1151.39
20662.2
893.718
-1384.23
662.09
-17180.9
555.753
-24455
2332.64
5952.41
2954.75
32925.1
3084.5
32656.6
3060.93
22105.8
3243.97
10710.2
3880.18
-4811.25
4391.62
-24555.6
4198.84
-28452.8
3441.52
-19071.7
2484.41
-6520.08
2612.67
23659.8
3652.03
55758.1
4480.19
75737.9
4759.74
81440.2
4666.81
74757.7
4433.11
62086.9
4200.12
48751.6
4021.18
37055.7
3890.18
27388.5
3787.06
19597.3
3701.53
13369.6
3631.2
8357.15
3588.14
4251.1
3591.4
571.721
3436.79
-3253.7
3196.01
-8878.04
3698.47
-15471.3
2720.22
-29094.2
-1203.03
-73725
-3606.45
-102694
-3706.64
-92114.5
-3180.45
-80784.1
-2199.25
-68349.3
-53424
-4762.87
-16704
-4737.92
-19001.6
-4703.05
-20294.3
-4660.87
-21771
-4611.13
-23172.8
-4558.73
-24553
-4505.16
-25880.5
-4455.42
-27164.7
-4417.19
-28372.7
-4406.81
-29437.4
-4447.58
-30209.2
-4551.87
-30519.7
-4687.27
-30280.9
-4757.81
-29575.8
-4631.57
-28539.6
-4205.16
-27135.4
-3444.58
-24923
-2259.14
-20812.5
103.071
-10952.3
1982.36
11649.9
2387.06
26754.2
2214.87
37164.6
1845.11
43218.1
1383.41
46872.3
933.13
49236.9
706.646
50434.6
667.834
50511.8
700.702
49793
583.065
45769.8
285.794
40764.5
-80.526
39036
-536.728
39030.2
-663.102
44325.7
-536.36
47639.7
-358.885
47545.2
-183.209
46911.1
-26.1308
46692.9
160.504
48905.9
417.213
51160.4
698.824
45000.5
943.34
32796.8
1185.2
20420.3
976.614
-1175.65
791.539
-16995.8
632.744
-24296.2
2343.7
4241.45
2991.1
32277.7
3145.42
32502.3
3162.77
22088.4
3363.56
10509.4
3901.07
-5348.76
4262.49
-24917
3944.03
-28134.3
2940.03
-18067.7
1921.43
-5501.47
2340.94
23240.3
3556.14
54542.9
4483.54
74810.5
4813.39
81110.3
4734.68
74836.4
4495.93
62325.7
4251.36
48996.2
4058.47
37248.6
3913.58
27533.4
3800.55
19710.3
3710.1
13460
3637.91
8429.34
3594.67
4294.34
3597.14
569.253
3432.76
-3089.32
3138.87
-8584.14
3687.6
-16020
2987.85
-28394.4
-1132.82
-69604.3
-3934.22
-99892.7
-3933.92
-92114.8
-3183.67
-81534.4
-2006.02
-69527
-54165.4
-4755.59
-16687.8
-4731.13
-19026.1
-4699.29
-20326.1
-4660.15
-21810.1
-4614.49
-23218.4
-4567.24
-24600.3
-4521.03
-25926.7
-4482.77
-27203
-4463.68
-28391.8
-4484.47
-29416.6
-4569.95
-30123.7
-4724.65
-30365
-4896.65
-30108.9
-4970.17
-29502.3
-4810.09
-28699.7
-4327.82
-27617.7
-3504.17
-25746.7
-2278.56
-22038.1
7.08515
-13238
2187.57
9469.45
2518
26423.8
2302.01
37380.6
1926.21
43593.9
1453.62
47344.9
943.448
49747
621.871
50756.1
507.846
50625.8
514.42
49786.4
408.118
45876.1
140.795
41031.8
-200.444
39377.3
-641.639
39471.4
-748.776
44432.9
-602.719
47493.6
-409.944
47352.4
-223.441
46724.6
-60.5265
46530
129.753
48715.7
396.303
50893.8
693.708
44703.1
960.238
32530.3
1215.66
20164.9
1067.21
-1027.19
931.533
-16860.2
731.009
-24095.7
2352.72
2619.74
3022.31
31608.1
3202
32322.6
3259
22031.4
3476.15
10292.3
3928.39
-5801.01
4151.64
-25140.2
3698.46
-27681.1
2373.18
-16742.4
1296.7
-4424.98
2053.89
22483.1
3461.71
53135.1
4489.84
73782.4
4873.39
80726.8
4811
74898.8
4567.04
62569.6
4309.7
49253.5
4101.94
37456.3
3943.16
27692.2
3820.28
19833.2
3724.44
13555.9
3649.56
8504.22
3604.83
4339.06
3602.43
571.661
3424.82
-2911.71
3084.3
-8243.63
3659.15
-16594.9
3263.66
-27998.9
-959.87
-65380.8
-4168.28
-96684.3
-4115.18
-92167.9
-3144.88
-82504.7
-1713.6
-70958.2
-54706.5
-4749.77
-16672.5
-4726.64
-19049.2
-4697.97
-20354.8
-4661.89
-21846.2
-4620.36
-23260
-4578.48
-24642.2
-4540.15
-25965
-4514.48
-27228.6
-4516.75
-28389.5
-4572.08
-29361.2
-4705.04
-29990.8
-4908.59
-30161.5
-5108.79
-29908.7
-5172.86
-29438.2
-4969.55
-28903
-4429.38
-28157.9
-3546.26
-26629.8
-2286
-23298.3
-132.767
-15391.2
2474.18
6862.5
2651.89
26246
2384.91
37647.6
1991.18
43987.7
1511.16
47824.9
962.052
50296.2
556.469
51161.7
357.178
50825.1
324.484
49819.1
221.512
45979.1
-18.7156
41272
-333.922
39692.5
-756.351
39893.9
-841.418
44517.9
-674.594
47326.8
-465.653
47143.5
-267.861
46526.8
-99.0455
46361.2
94.8417
48521.8
372.248
50616.4
686.741
44388.6
976.412
32240.6
1245.21
19896.1
1162.65
-944.642
1077.44
-16774.9
851.671
-23869.9
2356.83
1114.58
3047.31
30917.6
3256.09
32113.8
3352.18
21935.3
3584.5
10060
3967.75
-6184.25
4064.7
-25237.2
3468.57
-27085
1876.02
-15149.9
746.211
-3295.17
1774.76
21454.6
3370.92
51538.9
4497.24
72656.1
4937.84
80286.2
4895.06
74941.6
4646.48
62818.2
4375.49
49524.5
4152.08
37679.7
3979.11
27865.2
3845.8
19966.5
3743.54
13658.1
3664.79
8582.97
3616.93
4386.92
3605.41
583.179
3413.15
-2719.45
3039.67
-7870.15
3622.1
-17177.3
3547.3
-27924.1
-675.517
-61158
-4304.62
-93055.2
-4271.45
-92201.1
-3101.11
-83675
-1408.64
-72650.7
-55488.1
-4745.85
-16657.6
-4724.65
-19070.4
-4699.12
-20380.3
-4666.09
-21879.2
-4628.83
-23297.2
-4592.61
-24678.4
-4562.74
-25994.9
-4550.88
-27240.5
-4576.88
-28363.5
-4669.99
-29268.1
-4852.11
-29808.6
-5100.67
-29912.9
-5318.46
-29690.9
-5360.59
-29396.1
-5106.96
-29156.6
-4509.86
-28755
-3573.95
-27565.7
-2282.43
-24589.9
-280.06
-17393.6
2724.96
3857.48
2789.26
26181.7
2467.76
37969.1
2042.42
44413
1550.95
48316.4
980.005
50867.1
507.257
51634.5
219.65
51112.7
135.576
49903.2
26.7171
46088
-191.769
41490.5
-481.39
39982.1
-881.056
40293.5
-941.026
44577.9
-752.058
47137.8
-526.108
46917.5
-316.585
46317.3
-141.85
46186.5
55.598
48324.3
345.033
50327
677.888
44055.7
991.465
31927
1275.09
19612.5
1259.6
-929.161
1229.92
-16745.3
998.635
-23638.6
2354.58
-241.375
3065
30207.2
3309.25
31869.6
3444.21
21800.4
3689.15
9815.02
4020.4
-6515.5
4003.99
-25220.8
3272.29
-26353.3
1549.18
-13426.8
362.112
-2108.1
1524.53
20292.1
3286.5
49776.9
4504.16
71438.4
5004.31
79786
4985.36
74960.5
4733.85
63069.7
4448.91
49809.4
4209.21
37919.5
4021.37
28053
3876.5
20111.4
3766.31
13768.3
3682
8667.28
3628.73
4440.19
3604
607.903
3398.09
-2513.53
3011.37
-7483.43
3584.97
-17750.9
3833.48
-28172.6
-275.061