/*--------------------------------*- C++ -*----------------------------------*\
| =========                 |                                                 |
| \\      /  F ield         | OpenFOAM: The Open Source CFD Toolbox           |
|  \\    /   O peration     | Version:  4.1                                   |
|   \\  /    A nd           | Web:      www.OpenFOAM.org                      |
|    \\/     M anipulation  |                                                 |
\*---------------------------------------------------------------------------*/
FoamFile
{
    version     2.0;
    format      ascii;
    class       volVectorField;
    location    "18";
    object      U;
}
// * * * * * * * * * * * * * * * * * * * * * * * * * * * * * * * * * * * * * //

dimensions      [0 1 -1 0 0 0 0];

internalField   nonuniform List<vector> 
6785
(
(1.66286e-13 -0.584702 16.0975)
(1.62302e-13 -6.4564 12.4392)
(-4.55988e-14 -4.69861 12.7898)
(6.25204e-14 -4.16014 12.559)
(2.4891e-14 -3.54309 12.3931)
(-2.11192e-14 -3.06823 12.1722)
(5.91868e-14 -2.67942 11.9222)
(1.9984e-14 -2.39379 11.6348)
(-1.39862e-14 -2.20976 11.3149)
(6.85772e-14 -2.10052 10.9817)
(1.11625e-14 -2.07226 10.6385)
(-3.54699e-14 -2.3069 10.1777)
(6.2992e-14 -2.70818 9.55164)
(-1.64587e-14 -1.81951 9.05599)
(-1.38379e-13 0.879284 6.93881)
(3.02998e-13 -7.31415 26.0002)
(2.40474e-13 -16.5217 21.7704)
(-3.97103e-14 -11.6489 22.1609)
(2.88604e-13 -11.8362 20.7802)
(1.63566e-14 -10.9408 19.7794)
(4.6652e-14 -10.2393 18.7371)
(2.78875e-13 -9.53971 17.7009)
(2.08093e-15 -8.86405 16.6622)
(6.28414e-14 -8.21643 15.6055)
(2.71673e-13 -7.57925 14.5333)
(-4.41861e-15 -6.93282 13.5207)
(1.28846e-13 -6.41785 12.6007)
(3.35661e-13 -6.05238 11.2304)
(-1.41762e-13 -4.29211 7.73232)
(-4.6364e-14 1.02084 -0.12333)
(1.67868e-13 -9.98607 27.8051)
(2.65583e-13 -17.7436 24.1634)
(-7.43456e-14 -11.8724 24.6375)
(-1.19828e-14 -12.7466 22.4808)
(4.79379e-14 -11.298 21.3383)
(-1.80542e-14 -10.5235 19.9208)
(-7.64685e-14 -9.65652 18.5658)
(3.88612e-14 -8.85447 17.208)
(-6.79607e-14 -8.0872 15.8575)
(-1.76709e-13 -7.36682 14.524)
(1.04469e-13 -6.69438 13.2645)
(-4.15687e-14 -5.86587 11.7865)
(-2.21578e-13 -4.01039 8.43669)
(1.0964e-13 -0.321183 1.18629)
(1.44766e-13 1.14403 -4.2909)
(2.98453e-13 -10.7569 26.4745)
(1.13313e-13 -17.5011 23.5928)
(4.48248e-14 -11.5661 23.9845)
(-5.47614e-14 -13.2791 21.1563)
(-1.37026e-13 -11.4082 20.1449)
(1.46612e-13 -10.8883 18.4696)
(-9.19978e-14 -10.0468 17.0007)
(-2.36952e-13 -9.31253 15.5204)
(1.52766e-13 -8.62324 14.1075)
(-5.29625e-14 -8.00196 12.7991)
(-1.63634e-13 -7.45437 11.6041)
(1.32631e-13 -6.85456 10.3185)
(2.18034e-14 -5.66152 8.12382)
(-3.30239e-13 -3.25772 4.10037)
(3.3981e-14 -2.01368 -0.320523)
(1.6631e-13 -11.0237 25.3504)
(-1.58489e-13 -17.0568 23.372)
(-6.78555e-14 -11.5239 23.5175)
(-1.80372e-13 -13.4158 20.4576)
(-4.68007e-13 -11.2732 19.5689)
(-2.07396e-14 -10.894 17.7438)
(-2.1384e-13 -9.96254 16.2416)
(-6.13732e-13 -9.19795 14.731)
(-5.15088e-15 -8.52947 13.3902)
(-1.9203e-13 -7.98666 12.2236)
(-8.81392e-13 -7.474 11.0838)
(-6.10288e-13 -6.9205 9.9036)
(-3.58389e-13 -6.22397 8.57547)
(-1.12511e-12 -4.72453 6.6387)
(-1.17595e-12 -3.23823 2.89824)
(2.71115e-13 -11.5289 25.0735)
(-1.36768e-13 -16.4098 23.2363)
(1.15211e-13 -11.446 23.3877)
(-2.45864e-13 -13.1797 20.3191)
(-3.6694e-13 -10.7254 19.516)
(1.27556e-13 -10.4562 17.5323)
(-3.17151e-13 -9.26218 16.0752)
(-3.61728e-13 -8.38881 14.3794)
(-3.37063e-14 -7.409 12.5799)
(-5.32059e-13 -6.72897 10.9379)
(-6.08702e-13 -6.50502 9.99325)
(1.56504e-13 -6.54231 9.64346)
(3.97978e-14 -6.59159 9.50801)
(-7.34139e-13 -5.98295 9.05019)
(-5.79912e-13 -4.78149 6.84069)
(5.26327e-13 -12.2462 25.4908)
(-7.6068e-15 -16.0605 23.7634)
(2.29813e-13 -11.7167 23.7181)
(-2.61683e-13 -12.9826 20.926)
(-6.4358e-14 -10.5322 20.0505)
(2.32327e-13 -10.2103 18.0762)
(-3.17317e-13 -8.79108 16.6201)
(-7.51966e-14 -7.5622 14.3943)
(-1.37282e-13 -5.65517 11.3284)
(-4.17848e-13 -3.95837 8.25231)
(1.73089e-14 -3.50902 7.10471)
(-1.79994e-13 -4.43927 8.03473)
(-4.68647e-13 -5.86765 9.79932)
(-1.14046e-13 -6.62388 10.9844)
(7.0863e-13 -5.30512 9.33623)
(3.69023e-13 -12.5818 25.6052)
(3.62192e-14 -16.7302 25.5045)
(2.41864e-13 -12.2616 24.6165)
(-1.77436e-13 -13.4467 22.0155)
(3.15656e-14 -10.9427 21.1855)
(1.23858e-13 -10.7451 19.2034)
(-3.26087e-13 -9.20055 17.8405)
(-3.67196e-14 -7.94393 15.4969)
(-3.03403e-13 -5.64886 12.1009)
(-5.85783e-13 -3.17517 8.19487)
(-1.04332e-12 -1.39816 5.45014)
(-2.57486e-12 -0.795324 4.37386)
(-2.90965e-12 -1.65404 5.3494)
(-1.31823e-12 -3.44208 7.75952)
(5.67429e-13 -3.4619 7.72729)
(3.50162e-13 -12.2025 24.3038)
(9.27781e-14 -17.5719 27.3584)
(2.676e-14 -13.2609 25.5959)
(-1.86062e-13 -14.1035 22.9106)
(-2.09979e-14 -11.8099 22.0545)
(-3.93992e-14 -11.6896 20.1213)
(-2.2281e-13 -10.3011 18.8523)
(-5.81906e-14 -9.33063 16.8828)
(-4.93648e-13 -7.48282 14.1592)
(-4.69796e-13 -5.15799 10.603)
(-1.05329e-12 -2.76695 7.08676)
(-3.16289e-12 -0.40611 3.64764)
(-4.04611e-12 1.52032 0.86739)
(-4.6929e-12 1.45891 0.266504)
(-2.82395e-12 -0.212534 1.76006)
(1.7211e-13 -11.3681 21.9446)
(1.3067e-13 -17.7216 28.0512)
(-4.72925e-15 -14.2034 26.0649)
(-3.33363e-13 -14.2841 23.1375)
(-1.53052e-13 -12.4726 22.0284)
(-7.87892e-14 -12.1757 20.2676)
(-3.34985e-13 -11.1411 18.9313)
(-1.72379e-13 -10.3471 17.2823)
(-3.78322e-13 -9.19316 15.3224)
(-5.60276e-13 -7.68892 12.8862)
(-5.54819e-13 -5.87961 10.1087)
(-1.47507e-12 -3.67309 6.88638)
(-3.22986e-12 -0.83878 3.02513)
(-4.21492e-12 2.14745 -0.974789)
(-5.91206e-12 0.793193 -2.76339)
(-1.50622e-15 -10.3425 19.214)
(2.10717e-13 -17.2481 27.7118)
(-2.79693e-13 -14.712 26.1219)
(-3.69207e-13 -14.1897 22.9818)
(-1.2563e-13 -12.6529 21.4862)
(-4.894e-13 -12.0814 19.7156)
(-3.62403e-13 -11.1201 18.1689)
(-9.75081e-14 -10.3372 16.6365)
(-7.28452e-13 -9.47088 15.0611)
(-6.17849e-13 -8.40716 13.2422)
(-1.72652e-13 -7.15563 11.145)
(-1.375e-12 -5.59285 8.70007)
(-1.82473e-12 -3.64551 5.59535)
(-3.29775e-12 -0.946001 1.88118)
(-5.76139e-12 -0.116857 -1.72693)
(-1.10693e-13 -9.7065 17.4516)
(3.3764e-13 -16.6919 27.2159)
(-4.85075e-13 -14.4524 25.622)
(-3.08082e-13 -13.6094 22.4304)
(1.01241e-15 -12.1471 21.1554)
(-9.34308e-13 -11.6127 19.4901)
(-3.23507e-13 -10.6242 18.0562)
(1.81711e-13 -9.96491 16.6671)
(-9.87052e-13 -9.22091 15.2805)
(-7.01443e-13 -8.33135 13.6906)
(-1.17761e-13 -7.32009 11.8944)
(-1.54288e-12 -6.09672 9.87695)
(-1.20108e-12 -4.66944 7.33167)
(-2.5767e-12 -2.67372 4.38755)
(-4.37874e-12 -0.618102 -1.18752)
(-4.70832e-13 -8.59195 15.0765)
(1.17767e-13 -16.8717 26.8924)
(-2.71969e-13 -16.3371 27.1276)
(-4.36685e-13 -14.5374 23.4619)
(8.1457e-14 -12.3919 20.9909)
(-8.26565e-13 -11.2508 18.8425)
(-6.56604e-13 -9.95972 17.0109)
(6.07582e-13 -8.9721 15.3427)
(-8.43355e-13 -8.11637 13.9608)
(-8.2011e-13 -7.17721 12.4042)
(1.70801e-13 -6.01029 10.4832)
(-1.5711e-12 -4.54714 8.25397)
(-1.27264e-12 -2.70672 5.37265)
(-2.51241e-12 0.0883863 0.361227)
(-4.07822e-12 -0.989602 -3.51534)
(-4.13317e-13 0.63109 3.82051)
(-1.43978e-13 -11.3528 24.522)
(-4.49257e-13 -11.4651 27.0597)
(-4.18923e-13 -11.2442 25.81)
(-3.0527e-13 -10.5979 24.1548)
(-4.39709e-13 -10.1485 22.1923)
(9.2152e-15 -9.25143 20.1622)
(2.56659e-13 -8.26097 18.1689)
(-5.29263e-13 -7.46706 16.5931)
(-4.77369e-13 -7.01812 15.4293)
(-4.95611e-13 -6.6529 14.174)
(-1.01366e-12 -6.19602 12.3102)
(-5.33669e-13 -5.09806 9.07324)
(-1.14367e-12 -3.08931 4.69499)
(-2.1244e-12 -5.90531 8.69701)
(-5.18627e-13 -38.0635 67.8321)
(-6.97666e-13 -23.4964 52.3595)
(-9.15811e-13 -12.9675 33.9487)
(-1.02224e-12 -5.5444 21.8837)
(-1.08662e-12 -2.12409 15.5456)
(-1.079e-12 -2.36585 14.2456)
(-1.10386e-12 -3.61274 14.4886)
(-1.13926e-12 -4.30297 13.1699)
(-1.11193e-12 -3.12838 10.7262)
(-9.66755e-13 -0.0133938 5.8187)
(-7.55254e-13 2.37038 1.80783)
(-4.72244e-13 5.95502 -3.47005)
(-4.15376e-13 6.47997 -8.08015)
(-2.80943e-13 10.5441 -7.46686)
(-5.58364e-14 13.5387 -1.44351)
(-1.18014e-15 0.0622495 0.519056)
(-3.56587e-15 -0.554321 3.34504)
(-2.70318e-15 -0.826696 -0.6329)
(-1.83374e-15 -0.775641 -1.37224)
(8.0678e-16 -0.630234 -0.65523)
(1.32707e-14 -1.42844 1.91419)
(3.18274e-14 -1.4741 -0.797884)
(7.51755e-14 -1.39284 -1.04046)
(1.75387e-13 -1.31239 -0.204078)
(3.1078e-13 -2.33561 1.88867)
(8.76389e-14 -2.06852 -0.106579)
(5.88155e-14 -2.01312 0.374044)
(6.33039e-14 -3.22221 1.6264)
(4.05639e-14 -2.82731 -0.208302)
(3.75363e-14 -2.86401 0.246796)
(3.2565e-14 -2.82241 1.22213)
(3.5584e-14 -4.25806 2.6522)
(2.24174e-14 -3.65433 0.873038)
(2.06077e-14 -3.75617 1.3878)
(2.25975e-14 -5.22471 1.86273)
(1.1712e-14 -4.64366 0.243382)
(5.33218e-15 -4.75052 0.867195)
(-4.45924e-15 -4.63583 1.14375)
(-2.05472e-14 -6.17421 0.722024)
(-2.36067e-14 -5.33525 -0.730738)
(-2.76082e-14 -5.40888 -0.0640089)
(-1.69457e-14 -5.33096 0.306139)
(1.63743e-14 -6.55418 -0.575279)
(4.77133e-16 -5.49609 -1.86142)
(7.79607e-16 -5.47054 -1.49955)
(2.4487e-15 -6.09828 -2.84679)
(3.68952e-15 -5.09204 -4.08966)
(2.90395e-15 -4.81884 -4.20463)
(7.12752e-16 -4.40254 -4.05392)
(-8.77684e-16 -3.44293 -6.227)
(1.70275e-15 -3.73663 -6.05296)
(1.892e-15 -2.92478 -6.10553)
(-2.98875e-16 0.149847 -10.4982)
(5.05523e-16 -1.50951 -8.20267)
(1.68148e-15 -0.359698 -8.41799)
(2.44089e-15 -1.15316 -7.69677)
(1.73319e-15 4.02697 -14.2441)
(1.37143e-15 2.69808 -10.3463)
(1.68628e-15 3.86933 -10.2045)
(1.83132e-15 3.35642 -9.26967)
(2.00626e-15 7.98287 -16.2379)
(1.37898e-15 7.27818 -11.7424)
(1.25375e-15 8.1348 -10.426)
(1.78512e-15 13.2962 -17.5776)
(1.1537e-15 10.871 -12.2298)
(1.07518e-15 13.3069 -11.8779)
(9.44625e-16 12.6356 -10.7906)
(1.71502e-15 19.0895 -17.8575)
(1.50652e-15 15.8123 -12.3383)
(8.14337e-16 18.5734 -11.9611)
(3.98521e-15 17.7807 -10.9773)
(5.73671e-15 24.593 -17.778)
(4.19575e-15 21.0991 -12.4627)
(3.77707e-15 22.7149 -11.1553)
(5.27836e-15 31.3358 -17.7664)
(3.67629e-15 24.816 -12.1867)
(3.82096e-15 28.2416 -11.8355)
(2.90908e-15 27.2669 -10.9334)
(1.20164e-14 35.864 -17.1783)
(1.13218e-14 30.0257 -11.9708)
(1.09198e-14 31.8359 -10.7755)
(1.55822e-14 42.869 -16.677)
(1.02328e-14 33.4241 -11.3568)
(1.0515e-14 37.4437 -11.0095)
(1.07286e-14 36.0001 -10.1301)
(1.54698e-14 47.4336 -15.6529)
(1.26233e-14 37.5987 -10.5963)
(1.32304e-14 42.1006 -10.1303)
(1.42774e-14 40.421 -9.26877)
(1.49355e-14 51.6668 -14.2028)
(1.1354e-14 42.1702 -9.51946)
(1.11487e-14 44.3102 -8.30514)
(1.90628e-14 56.2222 -12.3638)
(1.04419e-14 46.4251 -7.86659)
(2.34187e-14 43.7086 -6.9789)
(6.28842e-15 49.7418 -7.73545)
(1.15726e-15 45.6561 -7.43514)
(-8.68877e-15 45.1163 -6.13005)
(2.05711e-14 52.8702 -7.77784)
(4.67009e-15 48.3033 -3.17494)
(-2.67762e-14 48.4964 -2.53146)
(-5.20172e-14 48.6467 -1.64487)
(-6.30858e-14 48.5338 -0.44913)
(-7.46815e-14 48.4193 0.761588)
(-9.34302e-14 48.1511 1.93045)
(-1.08782e-13 48.3091 2.96794)
(-1.46892e-13 47.3772 4.34436)
(-7.47868e-14 54.9452 4.64536)
(-1.54156e-13 49.2001 6.81996)
(-1.67425e-13 50.0676 7.6865)
(-1.60146e-13 49.9486 8.46811)
(-1.69566e-13 49.4256 9.88279)
(-1.77656e-13 49.4024 10.6463)
(-1.94018e-13 49.1331 11.2264)
(-1.92706e-13 49.2813 11.884)
(-1.98598e-13 48.3258 12.2103)
(-6.13931e-14 56.3417 12.3991)
(-1.86014e-13 49.9775 14.0822)
(-1.93976e-13 51.1107 14.142)
(-2.04614e-13 50.8108 14.2103)
(-2.13027e-13 50.3883 14.0967)
(-2.32415e-13 50.2749 13.9497)
(-2.80005e-13 50.2642 13.9917)
(-3.03994e-13 50.0905 13.5292)
(-3.0651e-13 50.381 13.0483)
(-3.26506e-13 49.5857 12.1524)
(-9.97608e-14 59.1112 11.4763)
(-2.86758e-13 50.9413 12.9662)
(-3.00277e-13 52.1136 12.3179)
(-3.06406e-13 52.0231 11.5304)
(-3.03073e-13 51.6813 10.5519)
(-3.01428e-13 51.7638 9.52083)
(-3.05306e-13 51.7027 8.33812)
(-2.88212e-13 52.1597 6.92178)
(-2.83112e-13 51.6553 4.53093)
(-9.86829e-15 61.7413 2.74735)
(-2.05118e-13 52.2753 3.12754)
(-2.28441e-13 53.3918 1.69189)
(-2.32942e-13 53.5934 -0.0771027)
(-2.33001e-13 53.3369 -1.75366)
(-2.37142e-13 53.5803 -3.14652)
(-2.47097e-13 53.7776 -3.93257)
(-2.69608e-13 54.2385 -4.30863)
(-2.86383e-13 53.8625 -4.01368)
(-8.35351e-14 63.3409 -4.68335)
(-3.08228e-13 53.6907 -0.437543)
(-3.42772e-13 55.0565 0.746939)
(-3.75009e-13 55.5211 2.03075)
(-3.96368e-13 55.4546 3.59413)
(-4.15533e-13 55.6619 5.34585)
(-4.38622e-13 55.5986 7.13698)
(-4.5724e-13 56.0091 8.83024)
(-4.88417e-13 55.1875 10.6542)
(-3.31932e-13 66.7578 10.6989)
(-5.0487e-13 56.0317 15.1507)
(-5.25058e-13 57.3843 15.9209)
(-5.39665e-13 57.7781 16.536)
(-5.47522e-13 57.4186 17.3652)
(-5.60434e-13 57.9771 17.1104)
(-5.49369e-13 57.7713 19.6683)
(-5.49273e-13 58.2042 20.9679)
(-5.47524e-13 58.771 21.6925)
(-5.57683e-13 57.8368 23.1373)
(-4.33731e-13 73.4331 18.8064)
(-5.46028e-13 59.9659 25.3738)
(-5.44648e-13 61.9202 27.1265)
(-5.49021e-13 62.7717 28.2934)
(-5.52899e-13 62.6344 29.5612)
(-5.57302e-13 63.1458 30.8098)
(-5.53566e-13 63.5162 32.8497)
(-5.29642e-13 64.1094 36.2341)
(-5.22199e-13 63.7329 40.3933)
(-4.72721e-13 85.8483 31.6926)
(-5.17081e-13 68.1773 42.1634)
(-5.22176e-13 71.3637 46.4808)
(-3.95923e-13 71.0063 34.0125)
(-4.60211e-13 67.8858 36.8374)
(-5.22152e-13 72.5313 40.1622)
(-3.46675e-13 52.9781 26.8585)
(-4.64846e-13 73.8269 34.0459)
(-3.35366e-13 52.3568 25.1312)
(-4.07769e-13 56.9365 29.046)
(-4.6538e-13 60.6013 31.8652)
(-3.1549e-13 44.9101 21.9534)
(-3.78573e-13 53.067 25.3921)
(-4.23548e-13 55.6184 27.4534)
(-2.76858e-13 38.2701 18.1294)
(-3.60277e-13 53.7064 22.2464)
(-2.52078e-13 37.7632 15.7814)
(-2.98003e-13 41.6667 17.6049)
(-3.19701e-13 44.1951 17.186)
(-2.01913e-13 30.6658 10.6891)
(-2.52385e-13 44.3029 11.2115)
(-1.69158e-13 30.8619 6.86381)
(-1.88833e-13 35.1914 5.84617)
(-1.88644e-13 36.8827 1.24314)
(-1.1588e-13 26.8934 -1.35859)
(-1.27869e-13 34.6791 -5.17982)
(-1.44158e-13 37.1791 -11.2163)
(-9.0787e-14 24.8201 -9.28371)
(-1.29111e-13 40.7068 -15.4712)
(-9.2269e-14 28.9576 -12.4692)
(-1.18175e-13 34.7795 -16.597)
(-1.49769e-13 39.1616 -19.9902)
(-9.74364e-14 27.284 -13.8391)
(-1.39605e-13 44.6114 -18.993)
(-9.88623e-14 32.1461 -13.907)
(-1.22984e-13 38.9293 -17.1383)
(-1.46622e-13 42.5921 -18.9778)
(-9.5058e-14 32.2882 -12.7109)
(-1.14278e-13 42.5764 -15.1822)
(-1.30536e-13 46.9672 -16.1658)
(-8.05431e-14 33.0233 -10.549)
(-1.06565e-13 51.8327 -13.6396)
(-6.94333e-14 38.298 -9.2991)
(-8.25003e-14 44.7909 -11.0284)
(-8.42839e-14 51.0173 -10.6976)
(-4.79784e-14 36.9113 -6.54853)
(-6.04684e-14 56.3875 -7.67262)
(-3.595e-14 41.529 -4.56759)
(-3.9734e-14 48.4418 -5.03758)
(-3.76708e-14 53.3144 -3.16439)
(-1.99525e-14 40.6217 -1.08489)
(-2.14267e-14 51.2637 -0.568016)
(-1.86096e-14 55.7365 2.0817)
(-9.35023e-15 39.3323 1.92297)
(-9.92541e-15 58.0337 3.74941)
(-5.03674e-15 42.3074 3.35632)
(-5.33545e-15 48.2914 4.53066)
(-5.66727e-15 51.911 7.14479)
(-2.23504e-15 37.0633 4.91673)
(-1.68062e-15 53.4822 7.31686)
(-1.07622e-16 38.3731 5.53836)
(4.3968e-16 43.6755 6.90682)
(1.92154e-15 44.5662 8.63015)
(1.87369e-15 32.8988 5.72839)
(2.592e-15 40.6498 6.94745)
(5.05992e-15 41.0334 7.83141)
(3.92837e-15 28.3794 4.74253)
(5.36952e-15 40.5432 5.56841)
(3.78077e-15 28.9317 3.37891)
(4.47978e-15 32.5247 3.36124)
(4.91625e-15 34.7457 1.97891)
(3.38736e-15 24.4284 0.550963)
(4.64699e-15 36.5543 -1.50081)
(3.53499e-15 26.4386 -2.16235)
(4.92536e-15 30.7635 -4.19039)
(6.11724e-15 34.5552 -8.14442)
(4.58208e-15 27.3228 -6.48434)
(5.32256e-15 34.2746 -9.7597)
(6.90699e-15 41.4586 -15.2207)
(4.89914e-15 30.2307 -10.6045)
(6.89624e-15 49.3001 -18.2892)
(5.11256e-15 36.8235 -13.3005)
(7.64897e-15 48.2783 -21.8706)
(-4.70074e-16 23.0857 31.1083)
(-2.09543e-16 25.5391 31.5707)
(-1.37981e-16 26.6105 31.703)
(-6.09302e-17 28.2322 31.767)
(-2.1471e-17 29.6959 31.6046)
(-7.30089e-19 31.2598 31.2621)
(6.57293e-18 32.7603 30.7152)
(7.11385e-18 34.2255 29.9853)
(5.05045e-18 35.5712 29.0665)
(2.45155e-18 36.7432 27.9494)
(-4.90857e-19 37.6245 26.6066)
(-5.20301e-18 38.0646 25.0138)
(-1.47137e-17 37.8445 23.164)
(-3.37048e-17 36.6756 21.0754)
(-6.81225e-17 34.1591 18.7812)
(-1.23984e-16 29.77 16.3022)
(-2.05402e-16 22.0387 13.4925)
(-2.89486e-16 4.07937 8.05515)
(-2.50638e-16 -17.7066 0.972417)
(-1.95644e-16 -29.5894 -1.61931)
(-1.46985e-16 -39.3334 -3.89023)
(-1.05525e-16 -48.0044 -5.64272)
(-6.83303e-17 -55.5464 -8.04852)
(-3.7296e-17 -61.2305 -9.53356)
(-2.1058e-17 -65.7036 -11.1184)
(-3.10014e-17 -68.9939 -12.4913)
(-8.29099e-17 -69.0647 -13.975)
(-1.7879e-16 -67.0451 -14.0332)
(-3.56041e-16 -55.9108 -14.2202)
(-2.55667e-16 -45.309 -8.64738)
(-3.11569e-15 -43.5684 -6.33303)
(-4.11237e-15 -42.498 -2.06435)
(-3.77258e-15 -55.6217 1.05059)
(-3.8628e-15 -64.7182 0.858905)
(-4.28295e-15 -65.7606 0.800028)
(-4.95251e-15 -65.186 -0.148944)
(-5.4958e-15 -64.9031 -0.389001)
(-5.58935e-15 -68.5865 -1.40648)
(-5.12502e-15 -72.5894 -2.20219)
(-4.23452e-15 -64.3693 -3.8254)
(-2.96794e-15 -47.3827 -4.53238)
(-1.8151e-15 -31.9145 -5.68453)
(-1.439e-15 7.93507 -8.17358)
(-7.53292e-16 30.323 -1.52993)
(-2.93004e-16 27.263 0.0668979)
(2.72358e-17 -39.7102 -13.3912)
(-3.19734e-17 -52.3117 -15.8885)
(-8.43809e-17 -43.4036 -15.8041)
(-1.00181e-16 -27.5611 -15.2046)
(-1.01175e-16 -13.0571 -14.6909)
(-1.00384e-16 -6.22048 -12.4177)
(-1.04156e-16 7.9164 -15.9052)
(-9.43829e-17 24.0917 -29.1972)
(-7.55571e-17 31.1319 -38.222)
(-6.06853e-17 30.6748 -29.2644)
(-8.06539e-18 -26.3282 -22.3933)
(5.8546e-19 -86.167 -26.8006)
(5.23128e-20 -109.091 -29.5869)
(4.8219e-20 -110.032 -30.2685)
(7.8841e-20 -96.8296 -29.4041)
(7.98039e-20 -78.7053 -27.979)
(7.77334e-20 -61.5412 -26.7592)
(7.95482e-20 -47.194 -26.0487)
(8.11596e-20 -35.4766 -25.8645)
(1.00901e-19 -25.8273 -26.111)
(3.33206e-19 -17.7255 -26.7016)
(-9.47599e-19 -10.7481 -27.6456)
(-9.05443e-19 -4.50084 -28.9076)
(8.08423e-18 1.49123 -28.444)
(-3.75381e-17 10.2119 -24.3725)
(1.33562e-16 17.233 -18.5165)
(-1.46925e-16 25.4936 -13.8797)
(7.18035e-16 64.6243 -4.7476)
(1.2339e-15 121.313 -5.41952)
(-1.38109e-15 135.05 -20.5238)
(-2.83584e-15 123.759 -29.8046)
(-2.21344e-15 108.418 -32.7192)
(-4.34047e-17 91.1233 -33.5748)
(2.83573e-15 70.455 -29.4344)
(-3.29588e-16 22.9986 31.1707)
(-9.78794e-17 25.4424 31.8001)
(-5.65026e-17 26.5753 31.8803)
(-6.67401e-18 28.2457 31.9231)
(9.43809e-18 29.7732 31.6792)
(1.36542e-17 31.3977 31.2678)
(1.08038e-17 32.9581 30.6542)
(6.32278e-18 34.481 29.8808)
(2.58348e-18 35.8867 28.9369)
(-2.81214e-20 37.125 27.8139)
(-2.74731e-18 38.0814 26.4773)
(-8.26515e-18 38.6022 24.9023)
(-2.08688e-17 38.462 23.0883)
(-4.65517e-17 37.366 21.0683)
(-9.23558e-17 34.916 18.8867)
(-1.6435e-16 30.6199 16.544)
(-2.65319e-16 23.3119 13.8738)
(-3.67132e-16 6.84437 8.38856)
(-2.71289e-16 -19.8244 -1.4928)
(-1.94905e-16 -31.1843 -2.26395)
(-1.47198e-16 -40.3721 -3.8676)
(-1.06157e-16 -48.8154 -5.63905)
(-6.89123e-17 -56.2088 -7.94412)
(-3.77611e-17 -61.747 -9.36035)
(-2.1178e-17 -66.045 -10.9251)
(-3.04482e-17 -69.1874 -12.2725)
(-8.12861e-17 -69.2171 -13.742)
(-1.75823e-16 -67.2021 -13.8199)
(-3.52608e-16 -56.495 -13.9949)
(-2.46701e-16 -45.8686 -8.57366)
(-3.06498e-15 -43.7678 -6.22592)
(-4.11131e-15 -42.6879 -2.0568)
(-3.77305e-15 -55.4928 1.0347)
(-3.86324e-15 -64.3464 0.860864)
(-4.28358e-15 -65.2959 0.821836)
(-4.95256e-15 -64.6783 -0.129072)
(-5.49543e-15 -64.3732 -0.38531)
(-5.58974e-15 -68.0272 -1.42034)
(-5.12776e-15 -72.0105 -2.236)
(-4.24165e-15 -63.8369 -3.85138)
(-2.98316e-15 -46.8142 -4.61141)
(-1.83601e-15 -31.198 -5.79506)
(-1.50503e-15 6.40979 -8.5682)
(-8.01744e-16 29.3273 -2.00787)
(-3.49967e-16 27.8406 0.945918)
(2.16155e-17 -36.3376 -12.7034)
(-2.7699e-17 -51.4568 -16.2077)
(-8.25414e-17 -43.3657 -16.1301)
(-9.99341e-17 -27.7641 -15.3825)
(-1.01502e-16 -13.3349 -14.9222)
(-1.00419e-16 -5.98909 -12.2952)
(-1.04334e-16 10.608 -18.7135)
(-9.07604e-17 27.3869 -32.2107)
(-6.88672e-17 31.0909 -39.5889)
(-5.69797e-17 27.8972 -29.9582)
(-1.076e-17 -24.4952 -22.0515)
(5.9673e-19 -84.6931 -26.9043)
(1.24951e-19 -108.569 -29.6977)
(4.67017e-20 -110.1 -30.3699)
(7.76223e-20 -97.2462 -29.4848)
(7.99955e-20 -79.1958 -28.0204)
(7.78146e-20 -61.9425 -26.7657)
(7.9436e-20 -47.4575 -26.0262)
(8.08299e-20 -35.6111 -25.8159)
(9.60527e-20 -25.8546 -26.019)
(3.47149e-19 -17.6437 -26.5787)
(-9.94441e-19 -10.5551 -27.4783)
(6.2736e-19 -4.46196 -27.9713)
(4.10122e-18 0.917326 -26.3907)
(-2.70103e-17 8.92487 -23.4135)
(1.04819e-16 15.7731 -18.2897)
(-7.85524e-17 23.5126 -15.1001)
(5.66689e-16 63.3201 -5.25919)
(6.5649e-16 123.757 -3.03773)
(-3.86527e-15 138.796 -18.3813)
(-6.3503e-15 125.542 -26.8565)
(-5.64319e-15 108.913 -28.1324)
(-2.70189e-15 90.4276 -28.5003)
(8.77722e-16 68.6075 -22.7856)
(-2.67898e-16 22.9375 31.2882)
(-6.29532e-17 25.3892 31.9303)
(-3.78504e-17 26.5749 31.9429)
(-6.52803e-19 28.275 31.9422)
(7.70165e-18 29.8384 31.6399)
(8.757e-18 31.4899 31.1934)
(5.78245e-18 33.0747 30.5579)
(2.70509e-18 34.6192 29.7827)
(6.40924e-19 36.048 28.849)
(-8.23942e-19 37.3134 27.7454)
(-3.42462e-18 38.3013 26.4338)
(-1.03217e-17 38.8545 24.8924)
(-2.64401e-17 38.7412 23.1296)
(-5.85401e-17 37.6628 21.1915)
(-1.14112e-16 35.2254 19.1269)
(-1.98542e-16 30.9624 16.9068)
(-3.12833e-16 23.8661 14.3255)
(-4.29821e-16 8.39746 9.17884)
(-3.30314e-16 -19.196 -3.02244)
(-2.00328e-16 -30.5725 -4.052)
(-1.46595e-16 -39.6321 -4.09735)
(-1.0677e-16 -48.0471 -5.6003)
(-6.97095e-17 -55.5269 -7.83392)
(-3.83613e-17 -61.1878 -9.15468)
(-2.13355e-17 -65.538 -10.6628)
(-2.9785e-17 -68.7351 -11.9733)
(-7.93251e-17 -68.9414 -13.4216)
(-1.72235e-16 -67.1215 -13.5337)
(-3.48527e-16 -57.0936 -13.7185)
(-2.36498e-16 -46.8421 -8.47078)
(-3.00624e-15 -44.6461 -6.07824)
(-4.10956e-15 -43.6733 -2.0082)
(-3.77355e-15 -55.9302 1.06878)
(-3.86381e-15 -64.3977 0.89967)
(-4.28441e-15 -65.2555 0.863244)
(-4.95265e-15 -64.619 -0.0975079)
(-5.49499e-15 -64.3076 -0.375174)
(-5.59022e-15 -67.8916 -1.4313)
(-5.1312e-15 -71.7926 -2.27689)
(-4.25061e-15 -63.6362 -3.89663)
(-3.00225e-15 -46.6603 -4.72824)
(-1.86224e-15 -30.8159 -5.87718)
(-1.53746e-15 6.64477 -8.15108)
(-8.2965e-16 28.7169 -2.235)
(-3.77989e-16 29.1907 0.465543)
(1.50225e-17 -34.5002 -12.0589)
(-2.30918e-17 -51.1936 -16.4064)
(-8.01752e-17 -43.5019 -16.4061)
(-9.95314e-17 -27.8738 -15.5746)
(-1.01838e-16 -13.6706 -15.2534)
(-1.00873e-16 -5.50347 -12.1211)
(-1.0426e-16 12.446 -20.6873)
(-8.78198e-17 28.9167 -33.6223)
(-6.48343e-17 30.869 -39.8187)
(-5.45395e-17 26.5712 -31.6322)
(-1.33524e-17 -25.706 -22.0031)
(5.36116e-19 -84.036 -26.9738)
(2.16858e-19 -108.215 -29.7725)
(4.72741e-20 -110.103 -30.4822)
(7.57688e-20 -97.4517 -29.5842)
(8.01769e-20 -79.424 -28.0812)
(7.79327e-20 -62.0847 -26.7875)
(7.932e-20 -47.4847 -26.0127)
(8.03305e-20 -35.5383 -25.7622)
(9.14717e-20 -25.7012 -25.9131)
(3.60115e-19 -17.4302 -26.4663)
(-1.08909e-18 -10.4175 -27.157)
(1.55215e-18 -4.65836 -27.1365)
(3.02374e-18 0.481017 -25.8407)
(-1.96741e-17 8.30373 -23.4947)
(7.97516e-17 15.2095 -18.7343)
(-4.78067e-17 22.4862 -16.5086)
(3.78999e-16 61.949 -6.68446)
(1.66644e-16 124.488 -1.83611)
(-6.2673e-15 140.598 -16.4708)
(-9.65468e-15 126.075 -23.9911)
(-8.59579e-15 108.887 -23.9049)
(-4.67463e-15 89.9308 -24.0786)
(-2.36655e-16 67.948 -18.0179)
(-1.99461e-16 22.8619 31.3823)
(-2.24561e-17 25.3281 32.0476)
(-1.37653e-17 26.5727 31.9945)
(1.07981e-17 28.3101 31.9559)
(1.11717e-17 29.918 31.6001)
(8.46057e-18 31.6055 31.1241)
(4.37841e-18 33.2244 30.4717)
(1.54669e-18 34.8013 29.6991)
(5.87352e-20 36.2655 28.7797)
(-1.15992e-18 37.5723 27.7004)
(-4.37339e-18 38.6077 26.4207)
(-1.3403e-17 39.2096 24.9242)
(-3.40796e-17 39.1383 23.2315)
(-7.4132e-17 38.0915 21.4031)
(-1.41442e-16 35.684 19.4893)
(-2.4023e-16 31.4842 17.4264)
(-3.68945e-16 24.652 14.9475)
(-5.0045e-16 10.2677 10.1053)
(-4.09736e-16 -17.804 -2.69082)
(-2.22983e-16 -29.9333 -5.95904)
(-1.47231e-16 -39.0486 -4.92293)
(-1.06718e-16 -47.3683 -5.61844)
(-7.05367e-17 -54.8824 -7.69001)
(-3.90442e-17 -60.646 -8.93263)
(-2.15189e-17 -65.0563 -10.3655)
(-2.91191e-17 -68.3102 -11.6228)
(-7.73402e-17 -68.6713 -13.043)
(-1.68593e-16 -67.0287 -13.1899)
(-3.44459e-16 -57.5582 -13.4101)
(-2.26811e-16 -47.6496 -8.35492)
(-2.94931e-15 -45.4056 -5.91461)
(-4.10733e-15 -44.5291 -1.924)
(-3.77391e-15 -56.3316 1.14633)
(-3.86446e-15 -64.4705 0.970507)
(-4.28537e-15 -65.2504 0.92086)
(-4.95282e-15 -64.5957 -0.0560251)
(-5.49455e-15 -64.2783 -0.357784)
(-5.59071e-15 -67.7989 -1.43457)
(-5.13479e-15 -71.6235 -2.31108)
(-4.26003e-15 -63.4715 -3.93998)
(-3.02226e-15 -46.5256 -4.83847)
(-1.89026e-15 -30.4441 -5.93287)
(-1.56865e-15 6.25131 -7.89034)
(-8.60543e-16 28.0503 -2.44527)
(-4.10463e-16 29.8494 0.617568)
(8.36981e-18 -32.6384 -11.5587)
(-1.79624e-17 -50.8405 -16.5532)
(-7.75142e-17 -43.6208 -16.6572)
(-9.89975e-17 -27.951 -15.8027)
(-1.02052e-16 -13.9795 -15.6186)
(-1.02091e-16 -4.96001 -12.1539)
(-1.03867e-16 14.8766 -22.7388)
(-8.41758e-17 30.8653 -34.9377)
(-6.00147e-17 30.7224 -40.2148)
(-5.09144e-17 24.414 -32.7808)
(-1.52733e-17 -26.6718 -22.1893)
(3.99848e-19 -83.454 -26.9431)
(3.06598e-19 -107.902 -29.7766)
(5.03773e-20 -110.113 -30.5682)
(7.3592e-20 -97.6546 -29.6837)
(8.02977e-20 -79.664 -28.1633)
(7.8076e-20 -62.2626 -26.8372)
(7.92346e-20 -47.5719 -26.0248)
(7.96906e-20 -35.5449 -25.7161)
(8.79534e-20 -25.6351 -25.8278)
(3.75893e-19 -17.3308 -26.3318)
(-1.22297e-18 -10.3906 -26.7282)
(2.13776e-18 -4.76266 -26.4814)
(9.7909e-19 0.165804 -25.3816)
(-1.26398e-17 7.59243 -23.5158)
(5.77398e-17 14.4719 -19.1261)
(-2.65303e-17 21.2744 -17.8477)
(2.18915e-16 60.317 -8.33646)
(-4.27835e-16 125.45 -0.531624)
(-9.44128e-15 142.923 -14.0316)
(-1.39302e-14 126.761 -20.3828)
(-1.21761e-14 108.861 -18.7158)
(-6.80388e-15 89.3019 -18.7986)
(-1.241e-15 66.8122 -12.9027)
(-1.45196e-16 22.7853 31.4875)
(2.79566e-18 25.2773 32.1401)
(-1.83851e-18 26.5845 32.0155)
(1.33003e-17 28.3564 31.9347)
(9.04584e-18 30.0036 31.5319)
(5.21553e-18 31.7192 31.0366)
(1.76678e-18 33.3641 30.3797)
(1.03967e-19 34.9652 29.622)
(-4.64798e-19 36.4573 28.7283)
(-1.46323e-18 37.7978 27.684)
(-5.59796e-18 38.872 26.4482)
(-1.73957e-17 39.5111 25.0129)
(-4.36799e-17 39.467 23.414)
(-9.31043e-17 38.4354 21.7264)
(-1.73564e-16 36.0449 19.9955)
(-2.87296e-16 31.9061 18.1123)
(-4.29386e-16 25.3269 15.7448)
(-5.7358e-16 11.8407 11.0989)
(-4.99841e-16 -17.0365 -2.24231)
(-2.65827e-16 -29.5175 -7.23805)
(-1.54844e-16 -39.1105 -6.35071)
(-1.06276e-16 -47.2692 -5.91756)
(-7.10199e-17 -54.6426 -7.52045)
(-3.97667e-17 -60.4212 -8.66816)
(-2.17443e-17 -64.84 -10.0295)
(-2.84796e-17 -68.0946 -11.2146)
(-7.5412e-17 -68.5404 -12.5932)
(-1.65046e-16 -67.0172 -12.7665)
(-3.40569e-16 -58.0162 -13.0376)
(-2.18022e-16 -48.3634 -8.19451)
(-2.89662e-15 -46.017 -5.71985)
(-4.1048e-15 -45.1988 -1.8016)
(-3.77405e-15 -56.6074 1.25945)
(-3.86521e-15 -64.4494 1.07086)
(-4.28649e-15 -65.1492 0.997764)
(-4.9531e-15 -64.4671 -0.000755377)
(-5.49417e-15 -64.1382 -0.330301)
(-5.59118e-15 -67.6046 -1.42876)
(-5.13837e-15 -71.3689 -2.33607)
(-4.26952e-15 -63.226 -3.97682)
(-3.04229e-15 -46.3084 -4.93764)
(-1.91879e-15 -30.0565 -5.97543)
(-1.59839e-15 5.63786 -7.58787)
(-8.89087e-16 27.4059 -2.6782)
(-4.50002e-16 30.5362 0.940829)
(1.46811e-18 -30.4524 -11.1576)
(-1.2836e-17 -50.3403 -16.7272)
(-7.46096e-17 -43.7308 -16.9392)
(-9.83282e-17 -28.0597 -16.1039)
(-1.02106e-16 -14.3116 -15.9086)
(-1.03818e-16 -4.24786 -12.575)
(-1.02999e-16 17.2793 -24.6883)
(-8.01789e-17 32.4339 -35.8529)
(-5.52069e-17 30.5023 -40.2675)
(-4.693e-17 22.6318 -33.569)
(-1.65393e-17 -27.1277 -22.4443)
(2.17596e-19 -82.7101 -26.8155)
(3.84145e-19 -107.525 -29.7322)
(5.51812e-20 -110.126 -30.6404)
(7.1304e-20 -97.9045 -29.7892)
(8.03536e-20 -79.9645 -28.2644)
(7.82401e-20 -62.4961 -26.9088)
(7.91641e-20 -47.7053 -26.0541)
(7.90496e-20 -35.5837 -25.6778)
(8.44678e-20 -25.5915 -25.7602)
(4.0221e-19 -17.2682 -26.1468)
(-1.39525e-18 -10.401 -26.2867)
(2.65496e-18 -4.90342 -25.9191)
(-8.37475e-19 -0.109412 -24.9942)
(-6.86641e-18 7.04056 -23.5605)
(3.98214e-17 13.9885 -19.5844)
(-1.48202e-17 20.3256 -19.197)
(6.24957e-17 58.3932 -10.4268)
(-1.14485e-15 125.731 0.476969)
(-1.34363e-14 144.732 -11.1465)
(-1.91581e-14 126.987 -16.1231)
(-1.62017e-14 108.611 -12.8332)
(-8.84343e-15 88.6861 -13.0459)
(-1.92921e-15 66.1431 -6.72425)
(-1.00155e-16 22.7108 31.5782)
(1.96499e-17 25.2369 32.1996)
(4.849e-18 26.6059 32.0066)
(1.32757e-17 28.4109 31.8884)
(6.59272e-18 30.095 31.4497)
(2.86124e-18 31.8361 30.9464)
(4.01687e-19 33.5049 30.2958)
(-2.87155e-19 35.1294 29.5617)
(-3.62085e-19 36.6495 28.7011)
(-1.62401e-18 38.024 27.6994)
(-7.24686e-18 39.1363 26.5179)
(-2.26296e-17 39.8096 25.1605)
(-5.57395e-17 39.7868 23.6806)
(-1.16067e-16 38.764 22.1658)
(-2.11001e-16 36.3903 20.6468)
(-3.39859e-16 32.3243 18.9548)
(-4.93605e-16 26.0003 16.6858)
(-6.48164e-16 13.4266 12.2107)
(-6.08714e-16 -16.1158 -1.69877)
(-3.27951e-16 -29.0856 -7.98803)
(-1.75469e-16 -39.3021 -7.99396)
(-1.07516e-16 -47.3924 -6.65071)
(-7.0876e-17 -54.5001 -7.41782)
(-4.03713e-17 -60.2277 -8.34735)
(-2.20166e-17 -64.648 -9.64325)
(-2.78823e-17 -67.8932 -10.7486)
(-7.3565e-17 -68.408 -12.0718)
(-1.61647e-16 -66.9952 -12.2614)
(-3.36909e-16 -58.4608 -12.5929)
(-2.10219e-16 -49.0769 -7.97525)
(-2.849e-15 -46.6273 -5.48515)
(-4.10233e-15 -45.8632 -1.63526)
(-3.77375e-15 -56.8702 1.41177)
(-3.86608e-15 -64.4032 1.20334)
(-4.28783e-15 -65.0198 1.09659)
(-4.95354e-15 -64.3098 0.0703408)
(-5.49387e-15 -63.97 -0.290629)
(-5.59164e-15 -67.3825 -1.41188)
(-5.14188e-15 -71.0875 -2.35067)
(-4.27893e-15 -62.9563 -4.00776)
(-3.06207e-15 -46.083 -5.02966)
(-1.94696e-15 -29.721 -6.01347)
(-1.62429e-15 5.10974 -7.15686)
(-9.16905e-16 26.8006 -2.95748)
(-4.89278e-16 31.1113 1.06036)
(-5.77755e-18 -28.1648 -10.8317)
(-7.76264e-18 -49.7917 -16.9406)
(-7.15025e-17 -43.8372 -17.2516)
(-9.75196e-17 -28.1729 -16.4887)
(-1.02007e-16 -14.6261 -16.0249)
(-1.05497e-16 -3.35885 -13.447)
(-1.01656e-16 19.7182 -26.4137)
(-7.59047e-17 33.8955 -36.4207)
(-5.03414e-17 30.2853 -40.0448)
(-4.25746e-17 20.7831 -34.0139)
(-1.72823e-17 -27.7231 -22.6721)
(1.48692e-20 -81.9727 -26.585)
(4.4633e-19 -107.111 -29.6475)
(6.0772e-20 -110.119 -30.7056)
(6.90644e-20 -98.1453 -29.9043)
(8.03569e-20 -80.2587 -28.3839)
(7.84252e-20 -62.7233 -27.0016)
(7.90674e-20 -47.8338 -26.0972)
(7.85599e-20 -35.6155 -25.6593)
(8.00403e-20 -25.5503 -25.7007)