/*--------------------------------*- C++ -*----------------------------------*\
| =========                 |                                                 |
| \\      /  F ield         | OpenFOAM: The Open Source CFD Toolbox           |
|  \\    /   O peration     | Version:  4.1                                   |
|   \\  /    A nd           | Web:      www.OpenFOAM.org                      |
|    \\/     M anipulation  |                                                 |
\*---------------------------------------------------------------------------*/
FoamFile
{
    version     2.0;
    format      ascii;
    class       volScalarField;
    location    "17";
    object      p;
}
// * * * * * * * * * * * * * * * * * * * * * * * * * * * * * * * * * * * * * //

dimensions      [0 2 -2 0 0 0 0];

internalField   nonuniform List<scalar> 
225
(
69268.2
73314
76947.5
76085.4
74588.8
74777.3
75709.3
76509
76812.6
76681.8
76410.5
76215.6
76256.5
76375.5
76287.1
62429.2
57802.8
51798.3
53374.2
59908.4
65822.7
69334.4
70105.7
69881
69920.3
70292.1
70844
71629
72684
73970.4
55924.1
56857.8
57748
58618.5
57559.5
58279.4
60089.7
61233.7
60678.4
57759.8
55882.3
56691.9
57669.4
57904.1
57788.8
53330.8
54694.6
54998.5
54455.6
54995.6
56027.3
57698.4
60906
64272.5
65366
64748.3
64366.1
64279.4
63818.8
63248.8
47546.2
46892.1
46194
45457.5
45376.4
46219.3
46510.1
46227.7
46249.2
46344.5
47544
49912.7
52903.3
56301.4
59480.5
40631.4
40905.9
40496.9
39923.4
39110.4
38287.8
38314.2
38723.4
38795.1
38840.7
39337.5
41170.8
43824.7
45702.4
46650.6
33540.9
33483.3
34309.3
35179.1
35149.4
35719.5
37012.8
38684.8
40669.7
43265.8
45416
46379.1
46824.3
47460.7
49019
29698.1
28916.7
27176.1
27270.1
28449.2
28895.1
30558.9
33546.7
36101.5
37830.8
40143
43121.4
44437.5
43803.5
43594.6
32571.2
33250.4
32055.1
28060.3
26784.5
26427.9
27387.9
29814.9
32814.4
35916.5
37805.9
38411
38852.8
39815.8
40258.3
15780.6
15020.7
13196.2
11238.7
11815.3
13672.8
15704.1
18471.2
21607.1
25314.1
29216.8
32761.7
36349.4
39484
40532.6
12572.5
12424.8
11704.8
10309.9
9501.67
9209.61
8483.08
8516.92
9628.76
11165.4
13461.2
15851.9
18136.9
20002.9
20293.4
14879.9
14313.4
14012.5
14241.8
14245.4
14072.9
13702.3
13373.6
13487.6
13857.6
14218.7
14766.5
16297.9
18577.8
19734.9
16588.6
16533.4
16181.6
15682.7
15565.6
15806.9
16354.7
16968.8
17492.3
18106.2
18700.8
18907.2
18661.8
18473
18611.7
19615.2
19603.2
19529.8
19430.7
19107.8
18490.7
18127.7
18082.6
17933.2
17727.6
17515.7
17499.8
17411.5
17154.9
17172.2
15651.6
14454.3
13255.5
11857.7
10754.7
9830.55
9038.52
8768.06
8312.29
7674.3
7095.82
6504.07
5941.62
5896.35
4656.53
)
;

boundaryField
{
    inletFace
    {
        type            zeroGradient;
    }
    inlet
    {
        type            zeroGradient;
    }
    inletWalls
    {
        type            zeroGradient;
    }
    outletInlet
    {
        type            fixedValue;
        value           uniform 0;
    }
}


// ************************************************************************* //
