/*--------------------------------*- C++ -*----------------------------------*\
| =========                 |                                                 |
| \\      /  F ield         | OpenFOAM: The Open Source CFD Toolbox           |
|  \\    /   O peration     | Version:  4.1                                   |
|   \\  /    A nd           | Web:      www.OpenFOAM.org                      |
|    \\/     M anipulation  |                                                 |
\*---------------------------------------------------------------------------*/
FoamFile
{
    version     2.0;
    format      ascii;
    class       surfaceScalarField;
    location    "17";
    object      phi;
}
// * * * * * * * * * * * * * * * * * * * * * * * * * * * * * * * * * * * * * //

dimensions      [0 3 -1 0 0 0 0];

internalField   nonuniform List<scalar> 
420
(
-19560.4
20859.9
-26908
8647.51
-34419.1
8810.67
-43581.2
10461.8
-41837.6
-443.651
-28391.1
-12146.9
-16012.4
-11078.9
-7167.76
-7544.7
255.641
-6123.73
4960.53
-3405.33
7061.91
-801.465
11433.6
-3072.27
13642.6
-909.618
9455.58
5486.61
10755.5
24532.4
-3672.74
41027.5
-7847.77
52429.4
-2591.48
62772
118.995
68913.3
-6584.96
69795.4
-13029.1
66833.3
-8116.91
61719.8
-2431.31
57440.3
-1844.42
55260.3
-1225.38
51864.3
2594.32
43557.5
5234.6
33862.4
8785.45
20194
19154.9
30949.4
6109.55
-9782.52
9468
-11206.4
7882.29
-1005.96
11426.4
-3425.27
7828.73
-2987.43
-4324.74
-875.734
-10710.1
-1731.65
-13864.2
722.655
-15911.6
202.777
-14334
-2803.26
-10456.7
-1283.18
-9135.36
3912.76
-5465.31
5114.75
3152.53
10536.2
34102
-20436.7
10653.6
-34329
2685.03
-45968.6
10633.1
-49146.3
-248.041
-52378.9
244.897
-55246.7
1991.76
-57128.5
149.943
-58420.3
2014.23
-62480.7
4262.94
-64923.7
-360.564
-60814
-5393.22
-51717.5
-5184.14
-40984.9
-5618.28
-23436.3
-7013.02
10665.6
8068.37
2585.01
22288.2
-11535
39460
-6538.82
47231.7
-8019.88
53156.9
-5680.45
55700.9
-552.349
51187.6
4663.16
42963.4
10238.5
43273.1
3953.2
48868.9
-5956.49
53539.9
-10064.1
54472.2
-6116.73
49841.7
-988.126
32304.7
10523.3
42970.4
5960.43
-3375.49
-486.571
-5088.16
-2208.82
-4816.68
-6577.1
-3651.73
-4890.42
-7367.19
-2280.73
-3162.18
691.013
1691.41
6427.91
4501.42
13852.1
-3470.95
14503.6
-6607.93
10387.4
-5947.89
8115.25
-3844.07
5265.71
1862.05
-4437.64
20227.6
38532.7
-5916.35
2540.92
-28656.7
17652.2
-28602.8
-4870.47
-29216.3
-3038.24
-34833.1
-1750.3
-35128.6
-2866.68
-31722.4
-1714.78
-25007.3
-2213.62
-25284.4
-3193.74
-28297.3
-3595.09
-28256.3
-5988.77
-24839.5
-7261.51
-20293.9
-2684.3
-15895.7
15828.4
22637.1
-7136.58
9677.7
-16150.8
26666.7
-24122.4
3101.23
-27605
444.374
-32794.3
3439.12
-35212.1
-448.823
-35150.9
-1775.85
-33107.1
-4257.45
-29268
-7032.7
-22488.7
-10374.3
-16089.6
-12387.9
-9101.99
-14248.3
-3449.61
-8335.47
673.984
11706.4
23311
-6615.32
16293.1
5394.01
14657.4
-3713.7
12209
-12485.6
9216.34
-15463.1
6416.59
-20331.9
4420.05
-24397.1
2289.32
-29708
1053.5
-34985.2
-1755.4
-38519.3
-6840.3
-40901.2
-10005.9
-38808.8
-16341.2
-32143.7
-15001
-15167.8
-5270.07
8143.29
19818.9
-3525.82
38053.6
-3577.26
52753.3
-2490.69
62470.8
-501.121
70500.5
-1613.13
77937.3
-3016.71
83708.3
-3481.6
87696.8
-2935.08
90212
-4270.57
90144.9
-6773.08
85606.1
-5467.15
72951.6
-3686.25
55587.5
2363.58
36149.7
14168.7
44293
-3490.22
-35.4074
-3371.22
-3695.99
-1487.63
-4373.91
2440.02
-4428.44
7265.85
-6438.75
11359
-7109.72
14257.5
-6379.97
16273.4
-4950.86
15814.2
-3811.26
11746
-2704.8
6233.88
45.0442
-704.173
3251.58
-5728.42
7387.67
-5997.38
14437.4
38295.6
6195.51
-6230.76
10294.5
-7794.87
12057.4
-6136.72
11937.8
-4308.77
9258.57
-3759.36
6256.86
-4107.93
4115.86
-4238.85
2328.63
-3163.56
258.52
-1741.04
-1969.27
-476.864
-4601.14
2676.98
-12870.2
11521.1
-27159.1
21677.1
-23908.4
11187.6
14387.2
-3319.07
-2911.26
-10624.9
-488.705
-16590.4
-170.952
-22132.7
1233.73
-27875.1
1983.16
-33704.4
1721.62
-39170.7
1227.63
-43689.7
1355.59
-47114.8
1684.31
-49225.4
1633.97
-48580.1
2032.13
-40729.5
3671.15
-23120.7
4068.93
-13722
1789.23
665.174
-6073.05
3162.47
-9115.95
2554.85
-12126
2839.76
-13866.3
2974.45
-14437.3
2554.51
-14487.6
1772.11
-14476.4
1216.65
-14111.7
991.007
-12885.8
458.545
-10592
-659.759
-7121.29
-1438.53
-1691.51
-1758.55
3414.76
-1037.36
7377.73
-2173.77
8042.89
-13773.7
-22217.3
-27806.7
-30909.4
-32192.1
-32256.7
-30397
-26767.1
-22010.8
-16967.3
-11509.9
-5819.5
477.451
6778.74
)
;

boundaryField
{
    inletFace
    {
        type            calculated;
        value           nonuniform List<scalar> 
450
(
-1.21355e-07
-1.51489e-07
-1.44281e-07
-1.24694e-07
-1.25358e-07
-1.17235e-07
-9.20653e-08
-5.21053e-08
-2.98671e-08
-2.73995e-08
-2.99791e-08
-4.08625e-08
8.94713e-09
9.99656e-08
3.67905e-08
-2.03317e-07
-2.33464e-07
-2.02852e-07
-1.85994e-07
-1.77781e-07
-1.74002e-07
-1.6215e-07
-1.38195e-07
-1.10884e-07
-9.21359e-08
-7.55537e-08
-2.82031e-08
-9.20746e-08
-1.64092e-07
-4.66382e-08
-2.45882e-07
-1.84239e-07
-1.72271e-07
-1.77966e-07
-1.83553e-07
-1.85792e-07
-1.81976e-07
-1.60716e-07
-1.47152e-07
-1.67465e-07
-2.1533e-07
-2.31814e-07
-2.20229e-07
-1.94216e-07
-2.38163e-08
-3.03654e-07
-2.45808e-07
-1.78143e-07
-1.95639e-07
-1.86869e-07
-1.96157e-07
-2.30665e-07
-2.4694e-07
-2.55728e-07
-2.77095e-07
-2.90494e-07
-2.99546e-07
-3.20844e-07
-3.37221e-07
-3.10935e-07
-4.51374e-07
-4.68759e-07
-3.68854e-07
-2.93306e-07
-2.49088e-07
-2.27846e-07
-2.26593e-07
-2.4064e-07
-2.83054e-07
-3.40257e-07
-3.31484e-07
-2.94665e-07
-3.01258e-07
-3.08723e-07
-2.98306e-07
-5.60515e-07
-6.3879e-07
-4.55262e-07
-4.57128e-07
-4.46766e-07
-4.08881e-07
-3.58434e-07
-2.99586e-07
-3.08393e-07
-3.19438e-07
-3.16931e-07
-3.10783e-07
-2.84841e-07
-2.25645e-07
-1.67994e-07
-5.80888e-07
-6.10309e-07
-4.84056e-07
-4.79478e-07
-4.47955e-07
-4.22303e-07
-3.994e-07
-3.88737e-07
-3.98179e-07
-4.11834e-07
-4.18416e-07
-4.19876e-07
-4.33028e-07
-3.17327e-07
-2.11546e-07
-5.31685e-07
-5.35836e-07
-5.49301e-07
-5.84834e-07
-5.73302e-07
-5.95178e-07
-6.16043e-07
-6.40613e-07
-6.74911e-07
-7.08601e-07
-7.38477e-07
-7.70538e-07
-8.14146e-07
-8.90488e-07
-6.7142e-07
-5.12807e-07
-6.73837e-07
-7.01823e-07
-7.14311e-07
-7.15237e-07
-7.31442e-07
-7.55143e-07
-7.83169e-07
-7.9398e-07
-7.99239e-07
-8.02828e-07
-8.07005e-07
-7.98108e-07
-7.45678e-07
-6.90364e-07
-4.46477e-07
-5.88416e-07
-7.53112e-07
-7.82242e-07
-7.86718e-07
-7.91485e-07
-7.93122e-07
-7.91499e-07
-8.02825e-07
-8.26053e-07
-8.29255e-07
-8.2636e-07
-8.14106e-07
-7.62921e-07
-7.98095e-07
-1.04587e-06
-1.00746e-06
-9.28645e-07
-8.60122e-07
-8.08049e-07
-8.03376e-07
-8.09682e-07
-8.1179e-07
-8.10472e-07
-8.09879e-07
-7.99826e-07
-7.78086e-07
-7.29887e-07
-5.96497e-07
-4.41993e-07
-8.38913e-07
-9.28472e-07
-9.20008e-07
-9.11693e-07
-8.99932e-07
-9.03719e-07
-9.06746e-07
-9.07195e-07
-9.13579e-07
-9.22829e-07
-9.32313e-07
-9.38852e-07
-9.70406e-07
-9.17985e-07
-1.08897e-06
-7.88591e-07
-9.10657e-07
-9.01239e-07
-9.14002e-07
-9.26621e-07
-9.60464e-07
-1.00985e-06
-1.05955e-06
-1.09207e-06
-1.11484e-06
-1.1568e-06
-1.19827e-06
-1.2775e-06
-1.42083e-06
-1.5856e-06
-3.30012e-07
-9.20378e-07
-8.98927e-07
-9.16594e-07
-9.51805e-07
-9.92341e-07
-1.03776e-06
-1.07973e-06
-1.1414e-06
-1.2502e-06
-1.36899e-06
-1.46838e-06
-1.5275e-06
-1.59851e-06
-1.45668e-06
-1.38204e-06
-1.64229e-06
-1.69509e-06
-1.74128e-06
-1.77578e-06
-1.80585e-06
-1.83466e-06
-1.86951e-06
-1.9095e-06
-1.93994e-06
-1.94911e-06
-1.91383e-06
-1.80518e-06
-1.61421e-06
-1.41741e-06
1.21355e-07
1.51489e-07
1.44281e-07
1.24694e-07
1.25358e-07
1.17235e-07
9.20653e-08
5.21053e-08
2.98671e-08
2.73995e-08
2.99791e-08
4.08625e-08
-8.94713e-09
-9.99656e-08
-3.67905e-08
2.03317e-07
2.33464e-07
2.02852e-07
1.85994e-07
1.77781e-07
1.74002e-07
1.6215e-07
1.38195e-07
1.10884e-07
9.21359e-08
7.55537e-08
2.82031e-08
9.20746e-08
1.64092e-07
4.66382e-08
2.45882e-07
1.84239e-07
1.72271e-07
1.77966e-07
1.83553e-07
1.85792e-07
1.81976e-07
1.60716e-07
1.47152e-07
1.67465e-07
2.1533e-07
2.31814e-07
2.20229e-07
1.94216e-07
2.38163e-08
3.03654e-07
2.45808e-07
1.78143e-07
1.95639e-07
1.86869e-07
1.96157e-07
2.30665e-07
2.4694e-07
2.55728e-07
2.77095e-07
2.90494e-07
2.99546e-07
3.20844e-07
3.37221e-07
3.10935e-07
4.51374e-07
4.68759e-07
3.68854e-07
2.93306e-07
2.49088e-07
2.27846e-07
2.26593e-07
2.4064e-07
2.83054e-07
3.40257e-07
3.31484e-07
2.94665e-07
3.01258e-07
3.08723e-07
2.98306e-07
5.60515e-07
6.3879e-07
4.55262e-07
4.57128e-07
4.46766e-07
4.08881e-07
3.58434e-07
2.99586e-07
3.08393e-07
3.19438e-07
3.16931e-07
3.10783e-07
2.84841e-07
2.25645e-07
1.67994e-07
5.80888e-07
6.10309e-07
4.84056e-07
4.79478e-07
4.47955e-07
4.22303e-07
3.994e-07
3.88737e-07
3.98179e-07
4.11834e-07
4.18416e-07
4.19876e-07
4.33028e-07
3.17327e-07
2.11546e-07
5.31685e-07
5.35836e-07
5.49301e-07
5.84834e-07
5.73302e-07
5.95178e-07
6.16043e-07
6.40613e-07
6.74911e-07
7.08601e-07
7.38477e-07
7.70538e-07
8.14146e-07
8.90488e-07
6.7142e-07
5.12807e-07
6.73837e-07
7.01823e-07
7.14311e-07
7.15237e-07
7.31442e-07
7.55143e-07
7.83169e-07
7.9398e-07
7.99239e-07
8.02828e-07
8.07005e-07
7.98108e-07
7.45678e-07
6.90364e-07
4.46477e-07
5.88416e-07
7.53112e-07
7.82242e-07
7.86718e-07
7.91485e-07
7.93122e-07
7.91499e-07
8.02825e-07
8.26053e-07
8.29255e-07
8.2636e-07
8.14106e-07
7.62921e-07
7.98095e-07
1.04587e-06
1.00746e-06
9.28645e-07
8.60122e-07
8.08049e-07
8.03376e-07
8.09682e-07
8.1179e-07
8.10472e-07
8.09879e-07
7.99826e-07
7.78086e-07
7.29887e-07
5.96497e-07
4.41993e-07
8.38913e-07
9.28472e-07
9.20008e-07
9.11693e-07
8.99932e-07
9.03719e-07
9.06746e-07
9.07195e-07
9.13579e-07
9.22829e-07
9.32313e-07
9.38852e-07
9.70406e-07
9.17985e-07
1.08897e-06
7.88591e-07
9.10657e-07
9.01239e-07
9.14002e-07
9.26621e-07
9.60464e-07
1.00985e-06
1.05955e-06
1.09207e-06
1.11484e-06
1.1568e-06
1.19827e-06
1.2775e-06
1.42083e-06
1.5856e-06
3.30012e-07
9.20378e-07
8.98927e-07
9.16594e-07
9.51805e-07
9.92341e-07
1.03776e-06
1.07973e-06
1.1414e-06
1.2502e-06
1.36899e-06
1.46838e-06
1.5275e-06
1.59851e-06
1.45668e-06
1.38204e-06
1.64229e-06
1.69509e-06
1.74128e-06
1.77578e-06
1.80585e-06
1.83466e-06
1.86951e-06
1.9095e-06
1.93994e-06
1.94911e-06
1.91383e-06
1.80518e-06
1.61421e-06
1.41741e-06
)
;
    }
    inlet
    {
        type            calculated;
        value           nonuniform List<scalar> 
15
(
-1299.9
-1300.2
-1299.9
-1299.9
-1300.2
-1299.9
-1299.9
-1300.2
-1299.9
-1299.9
-1300.2
-1299.9
-1299.9
-1300.2
-1299.9
)
;
    }
    inletWalls
    {
        type            calculated;
        value           uniform 0;
    }
    outletInlet
    {
        type            calculated;
        value           nonuniform List<scalar> 
15
(
14821.6
-8475.53
-7334.42
-7449.02
-6895.93
-5703.24
-4297.96
-2638.94
-643.293
1836.44
3836.71
6076.82
8428.57
10998
16935.5
)
;
    }
}


// ************************************************************************* //
