/*--------------------------------*- C++ -*----------------------------------*\
| =========                 |                                                 |
| \\      /  F ield         | OpenFOAM: The Open Source CFD Toolbox           |
|  \\    /   O peration     | Version:  4.1                                   |
|   \\  /    A nd           | Web:      www.OpenFOAM.org                      |
|    \\/     M anipulation  |                                                 |
\*---------------------------------------------------------------------------*/
FoamFile
{
    version     2.0;
    format      ascii;
    class       volVectorField;
    location    "2";
    object      U;
}
// * * * * * * * * * * * * * * * * * * * * * * * * * * * * * * * * * * * * * //

dimensions      [0 1 -1 0 0 0 0];

internalField   nonuniform List<vector> 
6785
(
(1.19815e-14 -1.80644 16.3384)
(1.02733e-14 -7.57731 12.7702)
(-3.13953e-15 -5.05047 13.4488)
(4.01112e-15 -4.84517 13.0404)
(9.04999e-16 -4.13142 12.8748)
(-3.00849e-16 -3.68583 12.6018)
(2.28957e-15 -3.27914 12.3124)
(4.01792e-16 -2.9774 11.9904)
(-7.39661e-17 -2.7804 11.6635)
(1.07881e-15 -2.71361 11.3631)
(1.2433e-16 -2.72968 11.14)
(-3.43676e-16 -2.87599 10.9085)
(1.2323e-16 -3.45977 10.2725)
(-7.91793e-17 -3.36594 9.27465)
(5.26598e-16 0.25186 7.58074)
(1.62624e-14 -9.52943 26.6094)
(1.2083e-14 -16.344 22.8769)
(-3.56567e-15 -11.2073 23.2728)
(2.93982e-15 -11.8472 21.5718)
(4.22312e-16 -10.2957 20.7012)
(-2.7864e-16 -9.57983 19.5527)
(7.66471e-16 -8.6363 18.5048)
(-1.83576e-16 -7.82643 17.4467)
(-7.55636e-16 -7.03307 16.4115)
(-7.63082e-16 -6.2484 15.3018)
(-9.54077e-16 -5.34236 13.921)
(-1.17888e-15 -4.32841 11.9314)
(4.47177e-16 -3.48985 9.06913)
(2.44088e-15 -2.77599 5.86457)
(1.07951e-15 -1.25019 2.47502)
(1.93287e-14 -12.3573 28.4809)
(1.00728e-14 -17.2028 25.2353)
(-2.08844e-15 -12.1047 25.3718)
(4.42773e-15 -13.1779 22.9644)
(-3.44645e-16 -11.1523 21.962)
(7.49538e-16 -10.6267 20.3441)
(1.75635e-15 -9.56694 19.0467)
(-9.65191e-16 -8.83399 17.7243)
(3.01769e-16 -8.07425 16.5112)
(1.01718e-15 -7.21755 15.0037)
(-6.00282e-16 -5.55111 12.1177)
(8.30535e-15 -2.2162 6.11001)
(2.03421e-14 2.11589 -1.87779)
(1.49325e-14 3.66391 -4.72609)
(8.60359e-15 1.94239 -3.29114)
(1.8527e-14 -13.2022 28.0792)
(1.08261e-14 -17.5887 25.7007)
(-2.60624e-15 -12.6676 25.3705)
(4.64334e-15 -14.2734 22.5229)
(7.56786e-16 -11.9396 21.6117)
(-3.6908e-16 -11.808 19.6795)
(1.96343e-15 -10.7206 18.3093)
(8.59753e-16 -10.116 16.8124)
(-1.2223e-15 -9.44458 15.4843)
(6.47907e-16 -8.79159 14.067)
(1.26437e-15 -7.73326 11.9933)
(1.83347e-15 -5.5158 8.2618)
(5.89251e-15 -2.74976 3.58431)
(1.84509e-14 0.865937 -0.125342)
(1.03579e-14 1.99545 -5.60151)
(1.7164e-14 -13.0578 26.5842)
(1.27703e-14 -17.6617 26.2983)
(-1.20283e-15 -12.8918 25.0161)
(4.43849e-15 -14.2191 22.038)
(2.66697e-15 -11.8997 21.0953)
(2.20267e-16 -11.7671 19.0318)
(1.96626e-15 -10.5931 17.5841)
(2.66007e-15 -9.89225 15.9481)
(-1.07166e-18 -9.10347 14.4639)
(4.4499e-16 -8.36832 13.0016)
(2.84786e-15 -7.56072 11.3532)
(2.02739e-15 -6.23144 9.14516)
(1.71296e-15 -4.48945 6.05469)
(9.37149e-15 -1.64344 2.55655)
(8.76653e-15 0.444842 -2.79824)
(1.42639e-14 -12.4541 24.6086)
(1.29184e-14 -17.5057 26.7106)
(-1.23988e-15 -12.921 24.6426)
(4.13803e-15 -13.7575 21.5463)
(2.93189e-15 -11.5141 20.584)
(-7.78099e-16 -11.332 18.4809)
(1.72713e-15 -10.0574 17.0437)
(3.30582e-15 -9.30117 15.3456)
(1.96377e-16 -8.39597 13.8026)
(6.58495e-16 -7.56101 12.2942)
(3.58827e-15 -6.76223 10.7664)
(2.74987e-15 -5.76059 9.12443)
(1.53585e-15 -4.54865 6.85103)
(6.17142e-15 -2.5078 4.00925)
(-2.2721e-15 -0.121858 -1.21278)
(1.30404e-14 -11.7804 22.8573)
(1.33596e-14 -17.271 26.9614)
(-1.37921e-15 -13.1606 24.5775)
(3.62828e-15 -13.4422 21.3682)
(3.57829e-15 -11.3985 20.3087)
(-5.47865e-16 -11.1324 18.2872)
(2.2316e-15 -9.8914 16.884)
(4.60665e-15 -9.12506 15.2195)
(2.11104e-15 -8.18794 13.6913)
(2.77157e-15 -7.30142 12.1742)
(5.53596e-15 -6.45655 10.6649)
(4.46229e-15 -5.51038 9.17122)
(3.39161e-15 -4.50288 7.29235)
(7.92156e-15 -2.8632 4.92077)
(-2.04096e-15 -0.00538738 -0.753748)
(1.86679e-14 -11.2828 21.6097)
(1.68994e-14 -16.7813 26.7142)
(7.87566e-16 -13.4503 24.4992)
(3.62214e-15 -13.2226 21.2867)
(6.19725e-15 -11.4733 20.0067)
(3.3292e-15 -11.0645 18.1561)
(4.50214e-15 -10.0109 16.7814)
(7.21687e-15 -9.26256 15.2531)
(6.35855e-15 -8.40824 13.8171)
(5.94326e-15 -7.55606 12.391)
(7.70363e-15 -6.72072 10.95)
(7.43603e-15 -5.77645 9.51104)
(5.37e-15 -4.84103 7.81674)
(9.13737e-15 -3.37037 5.80722)
(6.99668e-15 -0.614056 0.175218)
(2.77423e-14 -11.0973 20.9676)
(2.47717e-14 -15.9029 25.6991)
(5.59505e-15 -13.4027 23.9307)
(4.68566e-15 -12.9023 20.8988)
(8.79977e-15 -11.4218 19.4187)
(7.51504e-15 -10.9065 17.7444)
(6.41863e-15 -10.0643 16.4365)
(7.91159e-15 -9.38568 15.1062)
(7.30149e-15 -8.67576 13.8511)
(5.11272e-15 -7.94518 12.6314)
(5.31265e-15 -7.21695 11.3968)
(5.09006e-15 -6.35915 10.1319)
(2.7e-15 -5.50189 8.64136)
(6.50389e-15 -4.16232 6.93961)
(8.08143e-15 -1.54095 1.62089)
(2.67367e-14 -11.1694 20.8049)
(3.34362e-14 -14.8894 24.2905)
(9.72026e-15 -12.8562 22.8175)
(5.49454e-15 -12.3647 20.0613)
(8.25092e-15 -11.0755 18.5852)
(5.64421e-15 -10.5696 17.0873)
(2.57853e-15 -9.88323 15.9192)
(2.89706e-15 -9.31404 14.8147)
(4.30358e-16 -8.75218 13.7959)
(-3.63374e-15 -8.17303 12.8362)
(-4.26474e-15 -7.59654 11.8797)
(-5.63087e-15 -6.89913 10.8879)
(-7.24605e-15 -6.1817 9.69739)
(-1.05878e-15 -5.02122 8.28809)
(3.97017e-15 -2.4689 3.36959)
(3.27095e-15 -11.2316 20.6851)
(2.97885e-14 -14.3434 23.4601)
(7.544e-15 -11.9777 21.4714)
(3.75071e-15 -11.6784 18.945)
(2.35832e-15 -10.4943 17.7009)
(-5.54448e-15 -10.1276 16.3884)
(-8.46399e-15 -9.54627 15.4326)
(-7.66473e-15 -9.11468 14.5598)
(-1.37279e-14 -8.68837 13.7868)
(-1.78111e-14 -8.25622 13.0785)
(-1.84365e-14 -7.83138 12.3863)
(-2.28015e-14 -7.31293 11.6706)
(-2.13142e-14 -6.77353 10.8137)
(-1.3767e-14 -5.85475 9.70702)
(-5.31259e-15 -3.37474 5.23058)
(-3.3481e-14 -10.9423 19.9868)
(4.57438e-15 -14.5132 23.6745)
(-1.55211e-15 -11.1885 20.3361)
(-1.06452e-15 -10.9215 17.7201)
(-8.82301e-15 -9.76421 16.7679)
(-2.18206e-14 -9.61393 15.6261)
(-2.20589e-14 -9.11008 14.9292)
(-1.97479e-14 -8.83621 14.271)
(-2.85947e-14 -8.52371 13.7207)
(-3.13534e-14 -8.21774 13.2192)
(-3.28428e-14 -7.91916 12.738)
(-4.01293e-14 -7.5505 12.2466)
(-3.38802e-14 -7.17923 11.6813)
(-2.68251e-14 -6.49431 10.8585)
(-1.58271e-14 -4.09299 6.70343)
(-5.98202e-14 -10.3099 18.7784)
(-2.22353e-14 -15.0483 24.5184)
(-7.69945e-15 -11.2017 20.3179)
(-3.57775e-15 -10.3948 16.9607)
(-1.81377e-14 -9.17636 16.0063)
(-3.37938e-14 -9.15828 14.992)
(-3.05734e-14 -8.73433 14.5706)
(-2.73738e-14 -8.61373 14.1377)
(-3.85182e-14 -8.40027 13.8063)
(-3.79791e-14 -8.21029 13.4891)
(-4.23864e-14 -8.02048 13.1889)
(-5.18666e-14 -7.79207 12.8902)
(-4.03605e-14 -7.56836 12.5673)
(-3.87737e-14 -7.13016 12.0065)
(-2.42235e-14 -4.78912 8.13765)
(-5.06225e-14 -9.49951 16.8336)
(-3.38173e-14 -15.1857 24.6882)
(-1.57395e-14 -11.7472 20.7083)
(-6.91327e-15 -9.7967 16.2045)
(-2.49749e-14 -8.38065 15.0152)
(-3.7655e-14 -8.484 14.2291)
(-2.95678e-14 -8.23314 14.0748)
(-2.94637e-14 -8.27323 13.7737)
(-3.82423e-14 -8.14599 13.5401)
(-3.40697e-14 -8.02676 13.2875)
(-4.41194e-14 -7.89647 13.0436)
(-5.32636e-14 -7.70393 12.8139)
(-3.79771e-14 -7.57284 12.5899)
(-4.65458e-14 -7.22504 12.2661)
(-2.59371e-14 -5.07567 8.56624)
(-1.02998e-14 -7.76486 13.9693)
(4.61649e-14 -16.0347 24.7983)
(6.86034e-14 -15.5887 23.7865)
(6.20609e-14 -13.1408 19.3314)
(3.08687e-14 -10.83 15.7537)
(1.36798e-15 -9.68267 13.7824)
(-1.64039e-15 -9.19014 13.2198)
(-6.93094e-15 -9.11148 13.3544)
(-1.86885e-14 -9.0645 13.5895)
(-1.39084e-14 -8.97007 13.7332)
(-2.91258e-14 -8.84136 13.901)
(-3.87458e-14 -8.76298 13.9536)
(-1.97488e-14 -8.64521 14.1906)
(-4.9131e-14 -8.6304 14.096)
(-1.04034e-14 -6.34723 10.8949)
(4.12135e-17 -0.506665 0.427949)
(8.63331e-16 -0.0208776 0.286307)
(1.59731e-15 0.0032452 -0.00419687)
(2.17012e-15 -0.0220533 0.0186677)
(2.80643e-15 -0.0137487 -0.0796067)
(3.95609e-15 0.0299952 -0.221473)
(2.46609e-15 0.168651 0.0365281)
(2.13954e-15 0.099212 -0.0122989)
(1.69426e-15 0.0147892 -0.112512)
(1.35932e-15 0.122652 -0.3239)
(2.55992e-17 0.138681 -0.0791092)
(-1.03814e-15 0.0968623 -0.0513287)
(-3.91512e-15 0.175255 -0.237713)
(-3.83136e-15 0.164945 -0.0553966)
(-4.51959e-15 0.166939 -0.022273)
(-4.72229e-15 0.130952 -0.063135)
(-5.7627e-15 0.262029 -0.256286)
(-3.58452e-15 0.18279 -0.0804567)
(-3.43083e-15 0.16224 -0.0795283)
(-3.71161e-15 0.264548 -0.252914)
(-2.2834e-15 0.217004 -0.0613023)
(-1.70967e-15 0.228375 -0.0367956)
(-8.10161e-16 0.192616 -0.0933658)
(2.98827e-16 0.296758 -0.289963)
(8.26144e-16 0.254312 -0.0713834)
(1.21175e-15 0.257768 -0.0516775)
(1.2488e-15 0.230854 -0.13524)
(1.7311e-15 0.374739 -0.379411)
(7.21527e-16 0.281525 -0.146084)
(4.48992e-16 0.284164 -0.206791)
(1.6664e-16 0.254423 -0.464754)
(-6.13257e-16 0.36635 -0.151284)
(-6.58226e-16 0.344216 -0.142438)
(-6.5665e-16 0.362547 -0.31868)
(3.17997e-16 -0.431294 -0.595801)
(4.11264e-16 0.788756 -0.241184)
(7.22557e-16 0.324029 -0.383501)
(1.79851e-15 -0.0682189 -0.615641)
(1.15804e-15 0.453782 -0.45319)
(1.00633e-15 0.567769 -0.256619)
(8.19145e-16 0.40882 -0.215939)
(1.28373e-15 0.319184 -0.396268)
(6.64451e-16 0.451654 -0.339386)
(5.76761e-16 0.529837 -0.217234)
(5.88056e-16 0.420032 -0.225304)
(1.18581e-15 0.561126 -0.396006)
(1.09151e-15 0.511053 -0.298772)
(1.6455e-15 0.435554 -0.227596)
(3.61889e-15 0.560391 -0.327184)
(3.70626e-15 0.474521 -0.216225)
(4.25835e-15 0.534901 -0.111466)
(4.35529e-15 0.435932 -0.137116)
(5.03381e-15 0.452473 -0.230666)
(2.42149e-15 0.469105 -0.156916)
(1.25726e-15 0.553168 -0.0612198)
(2.82876e-16 0.365279 -0.109082)
(-8.92611e-16 0.463927 -0.142451)
(-8.89039e-16 0.473631 -0.0370553)
(-1.03942e-15 0.312946 -0.115371)
(-1.6033e-15 0.400397 0.0217079)
(-1.11211e-15 0.54229 0.0942027)
(-1.148e-15 0.801048 0.0629196)
(-1.14948e-15 0.270472 -0.0484081)
(-6.03535e-16 0.182077 0.170227)
(3.81534e-16 -0.12359 0.320157)
(9.66512e-16 -0.0455031 0.275136)
(2.19156e-15 -0.294466 0.95557)
(2.0479e-15 -0.555056 1.19354)
(2.34997e-15 -0.618897 1.377)
(2.19236e-15 -0.645036 1.59632)
(1.98094e-16 -1.14324 3.17041)
(-3.29095e-15 -1.44496 3.14899)
(-6.85836e-15 -1.68951 3.4859)
(-1.07364e-14 -1.76079 3.78959)
(-2.27996e-14 -2.73808 6.38968)
(-2.18098e-14 -3.05857 5.75762)
(-2.43083e-14 -3.23948 6.51207)
(-3.10507e-14 -4.59375 10.2176)
(-1.96193e-14 -4.86032 8.62444)
(-1.62556e-14 -5.12139 9.77568)
(-1.62498e-14 -5.82697 12.5065)
(-1.44325e-14 -5.55758 12.119)
(-1.43824e-14 -5.69181 12.2636)
(-1.53889e-14 -5.54668 12.4291)
(-1.28591e-14 -5.67381 12.5138)
(-1.80951e-14 -5.64062 13.0791)
(-1.78479e-14 -5.62387 13.4204)
(-1.67321e-14 -5.5873 13.6759)
(-1.69251e-14 -5.5963 13.898)
(-1.66141e-14 -5.58775 14.0064)
(-1.46061e-14 -5.55423 13.9987)
(-1.30104e-14 -5.57404 13.9002)
(-1.74826e-14 -5.10691 13.5535)
(-1.41596e-14 -5.59352 13.7152)
(-1.21315e-14 -5.49207 13.8614)
(-9.29768e-15 -5.51052 14.1925)
(-9.16588e-15 -5.48388 14.5064)
(-5.72573e-15 -5.5008 14.8042)
(-3.91052e-15 -5.50449 14.971)
(-3.72343e-15 -5.47832 15.0439)
(-4.76713e-15 -5.53053 15.0486)
(-2.54163e-15 -5.15552 15.2135)
(-5.49548e-15 -5.65645 15.0308)
(-6.52476e-15 -5.59569 15.063)
(-7.21951e-15 -5.63741 15.1638)
(-7.33011e-15 -5.62376 15.3031)
(-6.24504e-15 -5.64214 15.4422)
(-5.26965e-15 -5.66407 15.5542)
(-6.55338e-15 -5.67942 15.6384)
(-6.53933e-15 -5.65308 15.6752)
(-6.05052e-15 -5.73217 15.6951)
(-3.52595e-15 -5.43629 16.1421)
(-1.26793e-15 -5.92572 15.7734)
(1.22826e-15 -5.89762 15.8366)
(9.90469e-16 -5.94039 15.9061)
(-4.88476e-16 -5.94654 15.9655)
(-2.91126e-15 -5.98418 15.9875)
(-4.79029e-15 -5.99982 15.945)
(-7.73739e-15 -5.96729 15.9115)
(-1.15164e-14 -6.07276 15.8993)
(-2.25771e-14 -5.86824 16.5033)
(-2.21708e-14 -6.32444 15.9818)
(-2.40816e-14 -6.33188 16.0063)
(-2.22348e-14 -6.37133 16.0007)
(-1.965e-14 -6.3869 15.9891)
(-1.44032e-14 -6.43215 15.939)
(-8.43466e-15 -6.45395 15.8708)
(-2.85569e-15 -6.40251 15.83)
(1.61542e-15 -6.55279 15.9052)
(2.97188e-16 -6.28009 16.5378)
(1.0597e-15 -6.80132 15.8929)
(2.24644e-16 -6.82882 15.8947)
(-2.59831e-15 -6.82761 15.8855)
(-2.36176e-15 -6.86501 16.0583)
(-4.46104e-15 -6.86844 16.1031)
(-7.64684e-15 -6.86119 16.1113)
(-1.08905e-14 -6.83183 16.2004)
(-1.4843e-14 -6.94215 16.354)
(-4.34143e-14 -6.21305 16.7907)
(-3.30262e-14 -6.86806 16.6643)
(-3.75385e-14 -6.74708 16.8384)
(-3.75396e-14 -6.75207 17.1018)
(-3.67331e-14 -6.73062 17.4933)
(-3.5336e-14 -6.61681 18.0525)
(-3.57111e-14 -6.74605 19.1358)
(-4.58045e-14 -6.5561 19.2223)
(-5.92547e-14 -6.59583 19.5364)
(-7.81451e-14 -6.6242 19.5498)
(-1.41777e-13 -4.11596 16.6272)
(-1.0953e-13 -5.5243 16.6783)
(-1.04856e-13 -5.22839 15.8045)
(-8.09313e-14 -5.29143 14.5547)
(-5.06445e-14 -5.10473 12.609)
(-1.88085e-14 -5.02348 9.87595)
(3.82134e-15 -4.80841 6.21458)
(1.50959e-14 -4.35722 2.91941)
(2.13043e-14 -4.28591 1.91591)
(1.85656e-14 -3.23113 -1.09669)
(1.05468e-14 -3.55917 2.11354)
(1.40575e-15 -3.47534 1.7892)
(-6.46148e-15 -2.25361 -1.17193)
(4.86013e-15 -4.46066 -0.115618)
(-6.43965e-16 -3.61939 -0.314145)
(1.92184e-16 -3.3576 -0.0325822)
(4.70737e-16 -4.50869 -0.0493746)
(3.07566e-16 -3.13934 0.00403427)
(8.83181e-16 -4.22707 -0.0457252)
(6.68448e-16 -3.97218 -0.245669)
(4.6937e-16 -3.20258 -0.17254)
(6.79828e-16 -3.99739 -0.322044)
(4.49e-16 -3.62946 -0.323013)
(3.11651e-16 -3.08731 -0.155684)
(3.95382e-16 -4.13058 -0.252402)
(2.56954e-16 -2.77783 -0.205151)
(2.81137e-16 -3.67826 -0.380187)
(-2.1725e-17 -3.13018 -0.449279)
(2.90685e-17 -2.68628 -0.319511)
(-2.59531e-17 -3.53913 -0.467975)
(-4.63799e-17 -2.33088 -0.346642)
(1.71111e-16 -3.09406 -0.55585)
(2.8424e-16 -2.65186 -0.565695)
(2.61976e-16 -2.11132 -0.408529)
(4.89625e-16 -2.57608 -0.579337)
(6.83966e-16 -2.20648 -0.540429)
(5.57895e-16 -1.81083 -0.454512)
(8.36033e-16 -2.38725 -0.713861)
(4.39042e-16 -1.46756 -0.583987)
(2.76132e-16 -1.94362 -0.852901)
(-1.0252e-16 -1.5045 -0.788)
(-1.78312e-17 -1.19042 -0.643588)
(-3.77454e-17 -1.58742 -0.850626)
(1.03617e-16 -0.810852 -0.687304)
(5.54538e-16 -1.16846 -1.10255)
(7.54344e-16 -0.792561 -1.03024)
(5.12377e-17 -0.372228 -0.72265)
(8.40705e-17 -0.614013 -1.11676)
(5.88666e-16 -0.478643 -1.42041)
(1.76948e-16 0.168826 -0.97841)
(-1.64874e-16 -0.183426 -1.33961)
(-3.28279e-16 0.362998 -0.904709)
(-3.32797e-16 0.381426 -1.06786)
(-6.5452e-16 0.629291 -1.25525)
(-5.49513e-16 0.79687 -0.727336)
(-5.67348e-16 0.988344 -0.988218)
(-5.37278e-16 1.05468 -0.595222)
(-8.84081e-16 1.20313 -0.736554)
(-1.23907e-15 1.4642 -0.897162)
(-1.02958e-15 1.46363 -0.511389)
(-1.37166e-15 1.64785 -0.659336)
(-1.37628e-15 2.01187 -0.766347)
(-7.00452e-16 1.74383 -0.412746)
(-4.51855e-16 2.37132 -0.591563)
(6.02475e-17 2.02827 -0.31844)
(5.71308e-16 2.24957 -0.417074)
(1.01266e-15 2.66682 -0.452506)
(6.60532e-16 2.18973 -0.212883)
(6.23624e-16 2.98511 -0.289061)
(2.25489e-16 2.4019 -0.128444)
(-2.52082e-17 2.71363 -0.192384)
(-2.73442e-16 2.97716 -0.229311)
(-2.26712e-16 2.54639 -0.103319)
(-1.42867e-16 2.97876 -0.189167)
(-3.18837e-16 3.32447 -0.184523)
(-2.89891e-16 2.61769 -0.0682115)
(-8.27081e-16 3.60839 -0.125256)
(-8.7509e-16 2.83842 -0.0626946)
(-1.3983e-15 3.16126 -0.127209)
(-1.98783e-15 3.52349 -0.102033)
(-1.43861e-15 2.76946 -0.0174277)
(-1.80647e-15 3.80905 -0.0367011)
(-1.15907e-15 2.94184 -0.0110006)
(-1.15794e-15 3.31195 -0.0464461)
(-7.13116e-16 3.44902 -0.0224254)
(-1.42125e-16 2.85724 -0.0128707)
(1.72097e-16 3.39307 -0.0632747)
(6.04544e-16 3.74135 -0.0599007)
(5.10789e-16 2.91621 -0.0112011)
(6.00718e-16 4.13509 -0.181692)
(3.29006e-16 3.25065 -0.120231)
(1.51652e-16 3.85717 -0.264395)
(3.16575e-90 0.0115034 0.0109787)
(-3.85945e-90 0.0173714 0.0104121)
(-1.29363e-88 0.0217793 0.0103738)
(-1.34939e-87 0.0257939 0.0102258)
(-1.07732e-86 0.0298051 0.0102209)
(-7.22588e-86 0.0336503 0.01022)
(-3.99109e-85 0.0374895 0.0102933)
(-1.55779e-84 0.0412906 0.0104011)
(-3.67159e-85 0.0451128 0.0105637)
(6.81999e-83 0.0489601 0.0107694)
(8.21818e-82 0.0528624 0.0110237)
(6.34857e-81 0.0568329 0.0113232)
(3.38462e-80 0.060892 0.0116691)
(7.85157e-80 0.065055 0.0120607)
(-7.87292e-79 0.0693389 0.0124983)
(-1.31247e-77 0.0737593 0.0129819)
(-1.13079e-76 0.0783323 0.0135121)
(-6.59369e-76 0.0830733 0.0140895)
(-2.02568e-75 0.0879983 0.0147148)
(1.0556e-74 0.0931231 0.0153891)
(2.54653e-73 0.0984637 0.0161136)
(2.77878e-72 0.104036 0.0168899)
(2.06509e-71 0.109858 0.0177197)
(7.78737e-71 0.115946 0.018605)
(-4.62992e-70 0.122318 0.0195478)
(-1.05747e-68 0.128992 0.0205507)
(-9.94655e-68 0.135987 0.0216164)
(-8.7523e-67 0.143322 0.0227477)
(-9.22591e-66 0.15102 0.023948)
(-2.17562e-65 0.159099 0.0252206)
(2.01322e-63 0.167584 0.0265695)
(3.91507e-62 0.176498 0.0279986)
(1.62508e-61 0.185865 0.0295124)
(-5.06782e-60 0.195711 0.0311156)
(-8.72364e-59 0.206063 0.0328133)
(-1.30393e-58 0.216951 0.0346109)
(1.21886e-56 0.228403 0.0365144)
(1.38642e-55 0.240453 0.0385298)
(-4.44955e-55 0.253134 0.0406639)
(-2.29536e-53 0.266481 0.0429237)
(-1.3665e-52 0.280531 0.0453167)
(1.80849e-51 0.295324 0.0478506)
(3.09502e-50 0.310902 0.0505338)
(1.59326e-50 0.327308 0.0533747)
(-3.48043e-48 0.344589 0.0563822)
(-2.58931e-47 0.362791 0.0595652)
(2.13064e-46 0.381965 0.0629324)
(4.1832e-45 0.402162 0.0664925)
(3.3657e-45 0.423435 0.0702531)
(-4.16412e-43 0.445836 0.0742208)
(-2.79201e-42 0.469417 0.0784002)
(2.54897e-41 0.494226 0.0827926)
(4.1278e-40 0.520307 0.0873951)
(-1.25832e-40 0.547694 0.0921982)
(-3.77461e-38 0.576405 0.0971832)
(-1.86298e-37 0.606438 0.102318)
(2.12745e-36 0.637758 0.107555)
(2.49456e-35 0.670284 0.112819)
(-3.30519e-35 0.703871 0.118005)
(-1.84886e-33 0.738287 0.122963)
(-6.44929e-33 0.773177 0.127486)
(7.94063e-32 0.808028 0.131295)
(6.98643e-31 0.842116 0.134013)
(-9.6212e-31 0.874433 0.135153)
(-3.59763e-29 0.90364 0.134078)
(-1.07568e-28 0.927846 0.130027)
(9.31692e-28 0.944829 0.121968)
(7.37648e-27 0.950906 0.108975)
(-1.48527e-28 0.943007 0.0894091)
(-2.06151e-25 0.913307 0.0629277)
(-7.86408e-25 0.858757 0.0270771)
(1.74655e-24 0.761635 -0.0154222)
(3.09314e-23 0.620704 -0.0674335)
(1.43031e-22 0.370395 -0.111876)
(-1.79806e-21 -0.185797 -0.261099)
(1.29507e-20 -0.559862 -0.121241)
(-1.35766e-19 -0.720583 -0.352192)
(5.60986e-18 -1.34038 0.0662557)
(-4.10132e-17 -1.24692 -1.5453)
(1.36718e-89 0.0116198 0.0134503)
(-1.04235e-89 0.0174855 0.0126718)
(-4.95398e-88 0.0218191 0.012609)
(-5.31941e-87 0.0258235 0.0124154)
(-4.30185e-86 0.0298094 0.0124074)
(-2.91207e-85 0.0336401 0.0124059)
(-1.62427e-84 0.0374609 0.0124967)
(-6.45554e-84 0.0412466 0.0126294)
(-2.77852e-84 0.0450524 0.0128288)
(2.684e-82 0.0488844 0.0130799)
(3.3016e-81 0.0527711 0.0133895)
(2.57899e-80 0.0567264 0.0137531)
(1.39264e-79 0.0607703 0.0141725)
(3.38229e-79 0.0649182 0.0146463)
(-3.07621e-78 0.0691869 0.0151752)
(-5.29243e-77 0.0735921 0.015759)
(-4.60469e-76 0.0781497 0.0163985)
(-2.70096e-75 0.0828751 0.0170942)
(-8.37413e-75 0.0877842 0.0178471)
(4.18417e-74 0.0928927 0.0186585)
(1.01826e-72 0.0982166 0.0195296)
(1.10934e-71 0.103772 0.0204624)
(8.31111e-71 0.109576 0.0214587)
(3.26767e-70 0.115646 0.0225209)
(-1.76641e-69 0.121998 0.0236514)
(-4.37749e-68 0.128652 0.0248531)
(-4.14188e-67 0.135626 0.026129)
(-3.15021e-66 0.14294 0.0274826)
(-2.81274e-65 0.150614 0.0289176)
(-6.22459e-65 0.158669 0.0304379)
(6.39216e-63 0.167129 0.0320479)
(1.30768e-61 0.176015 0.0337522)
(6.59963e-61 0.185354 0.0355559)
(-1.54812e-59 0.19517 0.0374644)
(-2.98178e-58 0.205491 0.0394833)
(-7.76111e-58 0.216345 0.041619)
(3.81666e-56 0.227762 0.0438779)
(4.90299e-55 0.239775 0.0462671)
(-8.27164e-55 0.252416 0.048794)
(-7.39946e-53 0.265721 0.0514663)
(-5.213e-52 0.279727 0.0542924)
(5.04198e-51 0.294473 0.0572809)
(1.02091e-49 0.310002 0.0604407)
(1.71166e-49 0.326355 0.0637812)
(-1.02833e-47 0.343581 0.0673117)
(-8.87376e-47 0.361725 0.0710415)
(5.12256e-46 0.380839 0.0749799)
(1.2398e-44 0.400973 0.0791352)
(2.32031e-44 0.42218 0.0835147)
(-1.08854e-42 0.444515 0.0881241)
(-8.40336e-42 0.468028 0.0929659)
(5.61112e-41 0.49277 0.0980386)
(1.07076e-39 0.518786 0.103335)
(6.63202e-40 0.546112 0.108838)
(-8.80235e-38 0.574772 0.11452)
(-4.99478e-37 0.604767 0.120336)
(4.38962e-36 0.63607 0.126218)
(5.82628e-35 0.668609 0.132067)
(-2.86216e-35 0.702251 0.137744)
(-3.94203e-33 0.73678 0.143052)
(-1.62185e-32 0.771864 0.147725)
(1.51206e-31 0.807016 0.151406)
(1.50966e-30 0.841548 0.15362)
(-8.68745e-31 0.874493 0.153761)
(-7.05396e-29 0.904557 0.151033)
(-2.53113e-28 0.929912 0.144523)
(1.58587e-27 0.948368 0.132945)
(1.46963e-26 0.956331 0.115274)
(8.98672e-27 0.950656 0.0894362)
(-3.65257e-25 0.923623 0.0553081)
(-1.6093e-24 0.871744 0.0098215)
(2.14744e-24 0.777308 -0.0431206)
(5.76751e-23 0.637345 -0.107067)
(3.23084e-22 0.393814 -0.159331)
(-2.47468e-21 -0.125316 -0.333513)
(1.47391e-20 -0.582169 -0.167214)
(-1.72218e-19 -0.775976 -0.400601)
(7.30821e-18 -1.2324 0.0783799)
(-6.59113e-17 -1.32905 -1.67231)
(6.25475e-89 0.0116895 0.0148035)
(2.7617e-89 0.0175508 0.0139386)
(-1.49593e-87 0.021841 0.0138639)
(-1.81215e-86 0.0258383 0.0136463)
(-1.53604e-85 0.0298094 0.0136379)
(-1.07334e-84 0.0336312 0.0136377)
(-6.18605e-84 0.0374412 0.0137398)
(-2.60956e-83 0.0412177 0.013888)
(-2.81782e-83 0.0450137 0.0141094)
(8.85398e-82 0.0488363 0.0143872)
(1.17986e-80 0.0527136 0.0147292)
(9.57009e-80 0.0566596 0.0151299)
(5.38584e-79 0.0606942 0.0155916)
(1.50559e-78 0.0648328 0.0161126)
(-9.61281e-78 0.0690922 0.0166936)
(-1.87989e-76 0.073488 0.0173346)
(-1.69871e-75 0.0780361 0.0180362)
(-1.02906e-74 0.0827519 0.0187991)
(-3.45597e-74 0.0876512 0.0196243)
(1.25008e-73 0.0927497 0.0205131)
(3.54695e-72 0.0980633 0.0214671)
(3.97541e-71 0.103608 0.0224882)
(3.074e-70 0.109401 0.0235784)
(1.3301e-69 0.115459 0.0247402)
(-5.1391e-69 0.1218 0.0259763)
(-1.58363e-67 0.128442 0.0272898)
(-1.56792e-66 0.135403 0.0286838)
(-1.07007e-65 0.142703 0.0301622)
(-7.49227e-65 0.150363 0.0317288)
(-1.29039e-64 0.158404 0.0333879)
(1.75198e-62 0.166848 0.0351441)
(3.78451e-61 0.175718 0.0370025)
(2.32982e-60 0.18504 0.0389683)
(-3.91081e-59 0.194838 0.0410473)
(-8.77443e-58 0.205139 0.0432456)
(-3.44127e-57 0.215973 0.0455698)
(9.95492e-56 0.227369 0.0480269)
(1.48768e-54 0.23936 0.0506241)
(-7.67512e-56 0.251977 0.0533694)
(-2.00451e-52 0.265257 0.0562709)
(-1.68838e-51 0.279236 0.0593374)
(1.10221e-50 0.293955 0.0625779)
(2.84107e-49 0.309454 0.0660017)
(8.41761e-49 0.325778 0.0696184)
(-2.50187e-47 0.342971 0.0734377)
(-2.55876e-46 0.361081 0.0774691)
(8.96364e-46 0.38016 0.0817219)
(3.05529e-44 0.400258 0.0862043)
(9.36132e-44 0.421429 0.0909233)
(-2.29715e-42 0.443726 0.0958838)
(-2.08502e-41 0.467202 0.101087)
(9.19574e-41 0.491908 0.10653)
(2.24355e-39 0.517891 0.112202)
(3.55548e-39 0.545189 0.118083)
(-1.61842e-37 0.573827 0.124139)
(-1.04834e-36 0.603812 0.130317)
(6.95603e-36 0.635119 0.136538)
(1.05615e-34 0.667685 0.14269)
(2.21646e-35 0.701385 0.148611)
(-6.47453e-33 0.736013 0.154081)
(-2.98567e-32 0.771254 0.158798)
(2.21766e-31 0.806638 0.162362)
(2.44133e-30 0.841497 0.164243)
(-1.11833e-31 0.874893 0.163767)
(-1.04274e-28 0.90556 0.160055)
(-4.12446e-28 0.931706 0.152109)
(2.07311e-27 0.951159 0.1385)
(2.11963e-26 0.960372 0.118158)
(2.00576e-26 0.956148 0.0887577)
(-4.77557e-25 0.930796 0.0502954)
(-2.26398e-24 0.880528 -0.000627937)
(1.95958e-24 0.787516 -0.059571)
(7.48083e-23 0.647449 -0.130446)
(4.90864e-22 0.405591 -0.188238)
(-3.24345e-21 -0.11662 -0.349413)
(2.33784e-20 -0.566799 -0.223625)
(-2.87056e-19 -0.787745 -0.445389)
(9.13127e-18 -1.10138 0.104313)
(-3.24085e-17 -1.21031 -1.0401)
(2.7502e-88 0.0118001 0.0163151)
(3.58797e-88 0.0176514 0.015379)
(-4.15453e-87 0.0218787 0.0152977)
(-6.01887e-86 0.0258632 0.0150594)
(-5.40244e-85 0.0298119 0.0150533)
(-3.91195e-84 0.0336198 0.0150574)
(-2.33349e-83 0.0374136 0.0151742)
(-1.04214e-82 0.0411763 0.015342)
(-1.73478e-82 0.0449579 0.0155902)
(2.81953e-81 0.0487669 0.0159004)
(4.15784e-80 0.0526305 0.0162808)
(3.51711e-79 0.0565631 0.0167257)
(2.06522e-78 0.0605842 0.0172373)
(6.51788e-78 0.0647094 0.017814)
(-2.82804e-77 0.0689555 0.0184565)
(-6.58583e-76 0.0733378 0.0191647)
(-6.21221e-75 0.0778723 0.0199394)
(-3.89329e-74 0.0825744 0.0207811)
(-1.40743e-73 0.0874596 0.0216912)
(3.46315e-73 0.0925437 0.022671)
(1.22063e-71 0.0978425 0.0237222)
(1.40974e-70 0.103372 0.0248468)
(1.12301e-69 0.10915 0.0260471)
(5.29915e-69 0.115191 0.0273258)
(-1.31987e-68 0.121515 0.0286858)
(-5.57655e-67 0.128139 0.0301303)
(-5.87562e-66 0.135082 0.031663)
(-3.76415e-65 0.142363 0.0332878)
(-1.9014e-64 0.150003 0.0350089)
(2.35913e-65 0.158022 0.0368309)
(4.7725e-62 0.166444 0.0387589)
(1.04882e-60 0.175291 0.0407982)
(7.58339e-60 0.184588 0.0429545)
(-9.17147e-59 0.19436 0.045234)
(-2.46401e-57 0.204635 0.0476432)
(-1.30314e-56 0.21544 0.0501892)
(2.4236e-55 0.226806 0.0528794)
(4.3116e-54 0.238764 0.0557217)
(6.62215e-54 0.251347 0.0587243)
(-5.14556e-52 0.264591 0.061896)
(-5.19918e-51 0.278533 0.0652461)
(2.03921e-50 0.293212 0.068784)
(7.58342e-49 0.30867 0.0725196)
(3.30057e-48 0.324949 0.0764628)
(-5.71569e-47 0.342096 0.0806238)
(-7.13915e-46 0.360159 0.0850124)
(1.03378e-45 0.379187 0.0896378)
(7.27902e-44 0.399234 0.0945086)
(3.24205e-43 0.420351 0.0996312)
(-4.53239e-42 0.442594 0.10501)
(-5.07668e-41 0.466017 0.110645)
(1.13776e-40 0.490672 0.116531)
(4.53746e-39 0.516606 0.122654)
(1.248e-38 0.543862 0.128991)
(-2.77925e-37 0.572467 0.135501)
(-2.126e-36 0.602433 0.142122)
(9.68389e-36 0.633744 0.148765)
(1.80955e-34 0.666344 0.155299)
(1.73493e-34 0.70012 0.161543)
(-9.88837e-33 0.734883 0.167246)
(-5.09658e-32 0.770336 0.17207)
(2.98432e-31 0.806036 0.175564)
(3.65076e-30 0.841345 0.177138)
(1.44893e-30 0.875362 0.176042)
(-1.42416e-28 0.906862 0.171296)
(-6.04415e-28 0.934104 0.161807)
(2.51656e-27 0.954944 0.145984)
(2.7875e-26 0.965898 0.122686)
(3.26358e-26 0.963714 0.0893043)
(-5.74223e-25 0.940734 0.0459257)
(-2.85586e-24 0.892801 -0.0112406)
(1.57481e-24 0.801951 -0.0772507)
(8.72371e-23 0.662454 -0.156299)
(6.78737e-22 0.422643 -0.221734)
(-3.32471e-21 -0.0916768 -0.385449)
(3.23827e-21 -0.557132 -0.279285)
(-7.66954e-20 -0.814382 -0.479285)
(5.54882e-19 -1.05581 0.111418)
(-4.24714e-17 -1.24183 -0.809741)
(1.17105e-87 0.0119051 0.0177309)
(2.29979e-87 0.0177446 0.0167508)
(-9.82985e-87 0.0219147 0.0166669)
(-1.93267e-85 0.0258855 0.0164133)
(-1.8649e-84 0.0298126 0.0164116)
(-1.40661e-83 0.0336064 0.0164222)
(-8.70399e-83 0.0373844 0.0165548)
(-4.10897e-82 0.0411333 0.0167431)
(-9.04504e-82 0.0449006 0.0170186)
(8.53008e-81 0.048696 0.0173612)
(1.43988e-79 0.052546 0.0177799)
(1.27755e-78 0.0564652 0.0182686)
(7.84137e-78 0.060473 0.0188295)
(2.75659e-77 0.0645848 0.0194609)
(-7.50019e-77 0.0688175 0.0201637)
(-2.26723e-75 0.0731864 0.0209376)
(-2.2477e-74 0.0777073 0.0217835)
(-1.46093e-73 0.0823955 0.0227023)
(-5.66159e-73 0.0872667 0.023695)
(8.30422e-73 0.0923364 0.0247633)
(4.13976e-71 0.0976205 0.025909)
(4.94069e-70 0.103135 0.0271343)
(4.04653e-69 0.108897 0.0284416)
(2.06449e-68 0.114922 0.0298338)
(-2.58554e-68 0.121229 0.031314)
(-1.90055e-66 0.127836 0.0328858)
(-2.16415e-65 0.13476 0.034553)
(-1.36741e-64 0.142022 0.0363198)
(-4.73837e-64 0.149642 0.0381907)
(2.0451e-63 0.15764 0.0401708)
(1.32926e-61 0.16604 0.0422652)
(2.77638e-60 0.174864 0.0444799)
(2.27183e-59 0.184137 0.0468208)
(-1.95997e-58 0.193883 0.0492945)
(-6.54603e-57 0.204131 0.0519081)
(-4.40634e-56 0.214907 0.0546689)
(5.3795e-55 0.226243 0.0575849)
(1.18276e-53 0.238169 0.0606643)
(3.69507e-53 0.25072 0.0639161)
(-1.23204e-51 0.263929 0.0673494)
(-1.51182e-50 0.277834 0.0709738)
(2.52087e-50 0.292474 0.0747995)
(1.91742e-48 0.30789 0.0788367)
(1.13338e-47 0.324127 0.0830958)
(-1.18939e-46 0.341229 0.0875873)
(-1.906e-45 0.359245 0.0923213)
(-8.91772e-46 0.378225 0.0973072)
(1.65095e-43 0.398222 0.102553)
(1.01645e-42 0.419289 0.108066)
(-7.9866e-42 0.441481 0.113849)
(-1.20374e-40 0.464853 0.119902)
(1.4391e-41 0.48946 0.126216)
(8.75599e-39 0.51535 0.132777)
(3.76469e-38 0.542568 0.139555)
(-4.28052e-37 0.571147 0.146506)
(-4.19454e-36 0.601103 0.153559)
(9.90783e-36 0.632427 0.160612)
(2.90323e-34 0.665071 0.167522)
(5.63276e-34 0.698937 0.174085)
(-1.3628e-32 0.733852 0.180025)
(-8.13973e-32 0.769538 0.184967)
(3.46213e-31 0.805578 0.188415)
(4.97776e-30 0.841367 0.189719)
(4.3174e-30 0.87604 0.188058)
(-1.75034e-28 0.908413 0.182361)
(-7.95573e-28 0.936795 0.171438)
(2.72253e-27 0.95907 0.153546)
(3.28084e-26 0.971817 0.12747)
(4.41972e-26 0.971726 0.0903289)
(-6.18148e-25 0.951158 0.0422649)
(-3.17966e-24 0.905598 -0.0209088)
(1.01361e-24 0.816876 -0.0938911)
(8.96762e-23 0.677938 -0.181053)
(8.57971e-22 0.439375 -0.255143)
(-8.28099e-21 -0.0705141 -0.425757)
(-1.84754e-20 -0.556324 -0.335641)
(1.78877e-19 -0.856872 -0.504785)
(-4.5041e-18 -1.05747 0.122153)
(-3.59634e-17 -1.25254 -0.13254)
(4.84673e-87 0.0120205 0.0191131)
(1.20564e-86 0.0178446 0.0181063)
(-1.49136e-86 0.021955 0.0180234)
(-5.94088e-85 0.0259095 0.0177597)
(-6.30213e-84 0.0298127 0.0177646)
(-4.98341e-83 0.0335904 0.0177839)
(-3.20728e-82 0.0373507 0.017934)
(-1.59839e-81 0.0410841 0.0181445)
(-4.31023e-81 0.0448355 0.0184485)
(2.3913e-80 0.0486158 0.0188249)
(4.88857e-79 0.0524505 0.0192832)
(4.58194e-78 0.0563548 0.0198167)
(2.94552e-77 0.0603476 0.0204281)
(1.14116e-76 0.0644446 0.0211153)
(-1.60674e-76 0.0686624 0.0218794)
(-7.65004e-75 0.0730163 0.0227201)
(-8.03913e-74 0.077522 0.0236384)
(-5.43427e-73 0.0821949 0.0246351)
(-2.2505e-72 0.0870504 0.0257115)
(1.35943e-72 0.0921041 0.0268694)
(1.38249e-70 0.0973718 0.0281107)
(1.71226e-69 0.102869 0.0294377)
(1.43844e-68 0.108614 0.0308531)
(7.86097e-68 0.114621 0.03236)
(-1.10869e-68 0.120909 0.0339616)
(-6.24239e-66 0.127496 0.0356619)
(-7.78925e-65 0.1344 0.0374648)
(-5.07519e-64 0.141641 0.0393749)
(-1.27405e-63 0.149238 0.0413971)
(1.37509e-62 0.157213 0.0435365)
(3.93893e-61 0.165589 0.045799)
(7.09134e-60 0.174387 0.0481905)
(6.23998e-59 0.183632 0.0507177)
(-3.79338e-58 0.19335 0.0533874)