/*--------------------------------*- C++ -*----------------------------------*\
| =========                 |                                                 |
| \\      /  F ield         | OpenFOAM: The Open Source CFD Toolbox           |
|  \\    /   O peration     | Version:  4.1                                   |
|   \\  /    A nd           | Web:      www.OpenFOAM.org                      |
|    \\/     M anipulation  |                                                 |
\*---------------------------------------------------------------------------*/
FoamFile
{
    version     2.0;
    format      ascii;
    class       surfaceScalarField;
    location    "27";
    object      phi;
}
// * * * * * * * * * * * * * * * * * * * * * * * * * * * * * * * * * * * * * //

dimensions      [0 3 -1 0 0 0 0];

internalField   nonuniform List<scalar> 
13220
(
-7.01423e+61
7.83569e+61
-1.10438e+62
4.57477e+61
-1.35928e+62
3.01286e+61
-1.48624e+62
1.69006e+61
-1.48596e+62
4.2656e+60
-1.36401e+62
-8.18902e+60
-1.12436e+62
-1.97068e+61
-7.99387e+61
-2.80333e+61
-4.46546e+61
-2.97798e+61
-2.2158e+61
-1.61401e+61
5.10277e+60
-2.13659e+61
3.42404e+61
-2.3629e+61
5.59039e+61
-1.53909e+61
6.07418e+61
1.79431e+60
6.08116e+61
-6.38061e+61
1.49152e+62
-1.22406e+62
1.10177e+62
-1.79553e+62
9.25179e+61
-2.37184e+62
7.91562e+61
-2.93591e+62
6.49041e+61
-3.47503e+62
4.92907e+61
-3.9839e+62
3.44139e+61
-4.4626e+62
2.2409e+61
-4.9169e+62
1.81345e+61
-5.37901e+62
3.20158e+61
-5.52071e+62
-5.65022e+60
-5.17987e+62
-5.5849e+61
-4.03845e+62
-1.27389e+62
-2.28106e+62
-1.70512e+62
-1.67199e+62
1.22533e+61
1.44755e+62
8.37023e+60
1.2114e+62
8.28226e+60
9.95535e+61
7.32186e+60
8.75018e+61
3.26805e+60
7.67991e+61
-4.49001e+60
6.54376e+61
-1.53971e+61
5.45697e+61
-2.8582e+61
4.56922e+61
-3.9364e+61
4.04853e+61
-3.35569e+61
3.82808e+61
-5.57315e+61
2.60489e+61
-1.0379e+62
-6.83815e+59
-1.68606e+62
-5.64429e+61
-1.70284e+62
-1.62937e+62
-3.37408e+62
4.90255e+61
1.06337e+62
6.39255e+61
1.14789e+62
7.77171e+61
9.42233e+61
9.24271e+61
8.07016e+61
1.05916e+62
7.1292e+61
1.16143e+62
6.29088e+61
1.24012e+62
5.47678e+61
1.29848e+62
4.72983e+61
1.37362e+62
4.12609e+61
1.44958e+62
3.78392e+61
1.41504e+62
3.53654e+61
1.28727e+62
2.03956e+61
5.4975e+61
2.59809e+61
-5.73189e+61
-4.33095e+61
-3.94637e+62
4.44522e+61
7.90323e+61
6.12597e+61
1.1019e+62
7.018e+61
9.69316e+61
7.76515e+61
8.42073e+61
8.50273e+61
7.53975e+61
8.95372e+61
6.87722e+61
9.22887e+61
6.28319e+61
9.20638e+61
5.73092e+61
9.16099e+61
5.15423e+61
9.20615e+61
4.71407e+61
9.33777e+61
4.2305e+61
9.43163e+61
2.94952e+61
6.84414e+61
6.49242e+61
-1.62189e+61
5.27117e+61
-4.10787e+62
2.65684e+61
7.78071e+61
3.85318e+61
1.15851e+62
4.50128e+61
1.08262e+62
4.71276e+61
9.73033e+61
4.94441e+61
8.91098e+61
4.87743e+61
8.31827e+61
4.83079e+61
7.8268e+61
4.42505e+61
7.36718e+61
4.09542e+61
6.86404e+61
3.45479e+61
6.46986e+61
2.67564e+61
6.06485e+61
1.02211e+61
5.56635e+61
-9.06603e+60
9.40408e+61
-3.45149e+61
8.64977e+61
-4.45183e+62
2.17117e+61
8.52107e+61
2.87503e+61
1.27398e+62
3.14357e+61
1.23287e+62
2.98148e+61
1.13738e+62
2.88351e+61
1.05848e+62
2.43923e+61
1.00331e+62
1.96701e+61
9.62611e+61
1.14479e+61
9.28551e+61
1.4135e+60
8.9545e+61
-8.56249e+60
8.70419e+61
-2.49945e+61
8.40316e+61
-3.51761e+61
8.39547e+61
-3.53015e+61
1.10505e+62
-3.62123e+61
1.00512e+62
-4.81422e+62
2.14053e+61
9.61014e+61
2.6156e+61
1.42024e+62
3.11396e+61
1.38814e+62
2.88446e+61
1.29548e+62
2.79306e+61
1.21308e+62
2.23506e+61
1.15411e+62
1.68923e+61
1.11461e+62
8.00712e+60
1.0829e+62
-7.5693e+58
1.05123e+62
-1.19949e+61
1.01782e+62
-2.12521e+61
9.94859e+61
-4.27248e+61
9.9659e+61
-5.00285e+61
1.14346e+62
-5.05374e+61
9.86857e+61
-5.31667e+62
8.98454e+60
1.22424e+62
1.00493e+60
1.72087e+62
-9.76368e+60
1.69265e+62
-2.37799e+61
1.61845e+62
-3.55229e+61
1.54514e+62
-5.08618e+61
1.48434e+62
-6.47622e+61
1.44763e+62
-8.19377e+61
1.42268e+62
-9.99469e+61
1.39802e+62
-1.12914e+62
1.36479e+62
-1.37426e+62
1.34007e+62
-1.34738e+62
1.38133e+62
-1.25262e+62
1.42881e+62
-4.9227e+61
5.28203e+61
-5.81076e+62
1.88957e+60
1.50533e+62
-2.0319e+61
2.16635e+62
-4.06602e+61
2.14352e+62
-6.68476e+61
2.04313e+62
-8.85817e+61
1.93198e+62
-1.10366e+62
1.82626e+62
-1.25263e+62
1.7384e+62
-1.39953e+62
1.65885e+62
-1.48559e+62
1.58225e+62
-1.62291e+62
1.48995e+62
-1.60071e+62
1.39982e+62
-1.8189e+62
1.34625e+62
-1.84449e+62
1.26176e+62
-8.61969e+61
-6.10882e+61
-6.67002e+62
-1.75489e+62
3.20935e+62
-3.10074e+62
3.38622e+62
-4.29643e+62
3.25091e+62
-5.27363e+62
2.88794e+62
-5.96925e+62
2.51967e+62
-6.42154e+62
2.13936e+62
-6.56486e+62
1.75551e+62
-6.39117e+62
1.34473e+62
-5.94988e+62
1.00632e+62
-5.26806e+62
7.90566e+61
-4.76775e+62
6.38665e+61
-3.44668e+62
4.90392e+61
-2.14076e+62
2.67797e+61
-5.06267e+61
-1.994e+62
-7.18507e+62
-3.59384e+62
6.78835e+62
-7.14778e+62
6.85368e+62
-9.89719e+62
5.9894e+62
-1.05208e+63
3.40018e+62
-9.95292e+62
1.87755e+62
-8.86317e+62
9.0176e+61
-7.41165e+62
1.58273e+61
-5.79141e+62
-4.43216e+61
-4.17987e+62
-8.14465e+61
-2.79251e+62
-1.00445e+62
-1.08717e+62
-1.32797e+62
-1.69368e+61
-1.82769e+62
1.13787e+62
-2.27003e+62
1.31839e+62
-3.06929e+62
-5.8576e+62
-2.74247e+62
8.90144e+62
-1.94609e+62
5.04158e+62
3.64403e+62
-2.28288e+61
9.95761e+62
-3.39096e+62
1.61177e+63
-4.50329e+62
2.15582e+63
-4.779e+62
2.62135e+63
-4.59534e+62
2.97562e+63
-4.11456e+62
3.22031e+63
-3.32114e+62
3.33691e+63
-2.16619e+62
3.2568e+63
-6.40701e+61
2.9871e+63
1.20028e+62
2.44905e+63
3.3571e+62
1.53124e+63
6.39796e+62
9.43424e+62
1.63643e+63
-7.78238e+62
3.24037e+63
-1.12697e+63
4.12549e+63
-9.25162e+62
4.62232e+63
-8.57793e+62
4.93095e+63
-7.77137e+62
5.12841e+63
-6.9663e+62
5.22993e+63
-5.80431e+62
5.26272e+63
-4.65989e+62
5.20446e+63
-2.91906e+62
5.07394e+63
-1.17687e+62
4.86722e+63
1.3005e+62
4.47849e+63
4.422e+62
3.80257e+63
9.41981e+62
2.38393e+63
1.9759e+63
3.32612e+63
-5.91984e+63
-8.30951e+63
-1.01174e+64
-1.1172e+64
-1.2159e+64
-1.26697e+64
-1.31355e+64
-1.32235e+64
-1.30473e+64
-1.2681e+64
-1.17664e+64
-1.06778e+64
-8.81734e+63
-6.27899e+63
-5.96268e+60
-7.46793e+63
7.46061e+63
-7.47044e+63
-7.47303e+63
-7.47521e+63
-3.53035e+63
-3.95321e+63
-3.55104e+63
-3.57512e+63
-3.58115e+63
3.59655e+63
-7.18065e+63
3.59532e+63
3.59303e+63
1.49038e+64
-1.13103e+64
1.49023e+64
1.49025e+64
1.49009e+64
2.70702e+64
-1.21688e+64
2.70692e+64
2.70699e+64
3.88548e+64
-1.17861e+64
3.88553e+64
3.8854e+64
3.88545e+64
4.96723e+64
-1.0819e+64
4.96725e+64
4.96713e+64
4.96717e+64
5.93664e+64
-9.69572e+63
5.93664e+64
5.93653e+64
6.77226e+64
-8.35709e+63
6.77214e+64
6.77216e+64
6.77203e+64
7.50043e+64
-7.2838e+63
7.5003e+64
7.50035e+64
8.10622e+64
-6.06003e+63
8.10624e+64
8.10611e+64
8.10616e+64
8.62411e+64
-5.18096e+63
8.62416e+64
8.624e+64
8.62409e+64
9.06345e+64
-4.39541e+63
9.06351e+64
9.0633e+64
9.41317e+64
-3.49769e+63
9.41295e+64
9.41302e+64
9.4128e+64
9.70741e+64
-2.94507e+63
9.70713e+64
9.70723e+64
9.7069e+64
9.95305e+64
-2.46039e+63
9.95273e+64
9.95287e+64
1.01384e+65
-1.85837e+63
1.01384e+65
1.0138e+65
1.01381e+65
1.02979e+65
-1.60192e+63
1.02979e+65
1.02974e+65
1.04149e+65
-1.17299e+63
1.04143e+65
1.04144e+65
1.04139e+65
1.05223e+65
-1.08195e+63
1.05216e+65
1.05218e+65
1.05211e+65
1.06232e+65
-1.01707e+63
1.06224e+65
1.06233e+65
1.07235e+65
-1.00762e+63
1.07245e+65
1.07242e+65
1.06845e+65
1.05865e+65
1.05118e+65
1.03456e+65
1.08158e+63
1.03112e+65
1.02941e+65
1.02817e+65
1.027e+65
1.02596e+65
1.02504e+65
1.02419e+65
1.02278e+65
1.00914e+65
1.19521e+63
1.00684e+65
1.00501e+65
1.00351e+65
1.00206e+65
1.0008e+65
9.99653e+64
9.98687e+64
9.97539e+64
9.79294e+64
1.67395e+63
9.77323e+64
9.75722e+64
9.7441e+64
9.73273e+64
9.72248e+64
9.71337e+64
9.70516e+64
9.69855e+64
9.6904e+64
9.47326e+64
2.05942e+63
9.45842e+64
9.44711e+64
9.4384e+64
9.43153e+64
9.42561e+64
9.42072e+64
9.41694e+64
9.41195e+64
9.15854e+64
2.45616e+63
9.14727e+64
9.13929e+64
9.13434e+64
9.13084e+64
9.12894e+64
9.12784e+64
9.12823e+64
9.1276e+64
8.84006e+64
2.83916e+63
8.83249e+64
8.82803e+64
8.82636e+64
8.82704e+64
8.82991e+64
8.83374e+64
8.83921e+64
8.8432e+64
8.52565e+64
3.19112e+63
8.52352e+64
8.52536e+64
8.52997e+64
8.53653e+64
8.5449e+64
8.55879e+64
8.57551e+64
8.59434e+64
8.61196e+64
8.28951e+64
3.36464e+63
8.29917e+64
8.3156e+64
8.33712e+64
8.36232e+64
8.39299e+64
8.44207e+64
8.53579e+64
8.63615e+64
8.45936e+64
2.72674e+63
8.5457e+64
8.65464e+64
8.65435e+64
8.43578e+64
2.19088e+63
8.16057e+64
2.74439e+63
8.16063e+64
7.92065e+64
2.39183e+63
7.92061e+64
7.71533e+64
2.04523e+63
7.45921e+64
2.56005e+63
7.45857e+64
7.23993e+64
2.18254e+63
6.97021e+64
2.69101e+63
6.96995e+64
6.73388e+64
2.35552e+63
6.73361e+64
6.6467e+64
8.63907e+62
6.58956e+64
5.68731e+62
6.58918e+64
6.5572e+64
3.1694e+62
6.55688e+64
6.52773e+64
2.87685e+62
6.4112e+64
1.16262e+63
6.41096e+64
6.35352e+64
5.71463e+62
6.30183e+64
5.14491e+62
6.30163e+64
6.48188e+64
-1.80481e+63
6.48171e+64
6.98975e+64
-5.08285e+63
8.14712e+64
-1.15747e+64
8.14694e+64
1.00356e+65
-1.88872e+64
1.00355e+65
1.148e+65
-1.44454e+64
1.25115e+65
-1.03173e+64
1.25115e+65
1.31049e+65
-5.93469e+63
1.34223e+65
-3.17352e+63
1.34222e+65
1.33495e+65
7.27964e+62
1.33494e+65
1.28053e+65
5.44244e+63
1.19396e+65
8.65516e+63
1.19397e+65
1.05162e+65
1.42333e+64
1.05164e+65
8.53012e+64
1.98612e+64
6.16202e+64
2.36818e+64
6.162e+64
3.07057e+64
3.09157e+64
-3.32094e+63
3.40284e+64
-3.31502e+63
-4.42364e+64
4.09195e+64
-4.42344e+64
-9.6471e+64
5.22358e+64
-1.58703e+65
6.22338e+64
-1.58703e+65
-2.29837e+65
7.11358e+64
-2.29837e+65
-3.11598e+65
8.17618e+64
-3.96915e+65
8.53168e+64
-3.96914e+65
-4.93076e+65
9.61631e+64
-5.89136e+65
9.60603e+64
-5.89135e+65
-6.93376e+65
1.04242e+65
-6.93376e+65
-8.06838e+65
1.13463e+65
-9.14788e+65
1.0795e+65
-9.14787e+65
-1.03151e+66
1.1672e+65
-1.03151e+66
-1.15831e+66
1.26802e+65
-1.27483e+66
1.16523e+65
-1.27483e+66
-1.40663e+66
1.31797e+65
-1.52455e+66
1.17922e+65
-1.52455e+66
-1.65538e+66
1.30832e+65
-1.65538e+66
1.61365e+65
-1.26393e+63
3.25451e+62
-1.24361e+63
1.56684e+63
-1.22382e+63
2.98634e+63
-1.12306e+63
4.58729e+63
-1.10927e+63
5.05914e+63
-1.18783e+63
2.76663e+63
-1.09732e+63
2.61522e+63
-9.00419e+62
2.83113e+63
-9.11407e+62
3.12553e+63
-1.0485e+63
1.33094e+63
-1.03801e+63
3.77589e+63
-1.00814e+63
4.77226e+62
-9.46122e+62
1.30802e+63
-7.94219e+62
2.84273e+63
-7.48714e+62
5.13468e+63
-8.54953e+62
-3.37175e+63
-6.24677e+62
-2.00953e+63
-4.38719e+62
-5.84502e+61
-4.78916e+62
-7.82556e+63
-5.26689e+62
-2.38798e+63
2.39362e+62
-2.2806e+63
-6.09928e+62
-1.47911e+64
-5.93749e+62
-7.76017e+63
-4.96095e+62
-4.07444e+63
-1.26479e+62
2.02354e+63
-1.5351e+62
5.05076e+63
-8.47149e+61
1.03551e+64
-1.21933e+62
7.66784e+63
1.73089e+62
8.96848e+62
8.2424e+61
5.44136e+63
5.83585e+62
2.0555e+63
1.12021e+62
-4.04606e+63
1.75534e+62
2.60313e+63
1.49409e+62
6.26463e+63
2.13651e+62
-7.2295e+62
-1.20333e+62
-1.01423e+64
-2.65311e+62
-7.80548e+63
-4.74539e+62
-4.68989e+63
-5.82182e+62
-2.92316e+63
-4.49664e+62
-2.2655e+63
-9.19336e+61
5.73878e+63
-2.82622e+62
1.56237e+63
5.53948e+62
1.07454e+64
-9.53576e+61
8.64731e+63
2.56009e+60
6.22113e+63
-1.754e+61
4.88691e+63
-2.73197e+61
4.33551e+63
7.12627e+61
5.81835e+63
-7.91329e+59
4.19224e+63
4.0924e+61
3.48144e+63
2.96414e+61
3.27483e+63
-1.40811e+61
2.61176e+63
2.07778e+62
8.66937e+62
-3.61214e+62
-3.16574e+63
8.15261e+61
-5.17822e+62
5.11475e+61
9.64604e+62
3.97515e+61
1.68844e+63
3.45356e+61
2.63558e+63
2.67447e+61
3.5085e+63
2.17021e+61
4.22965e+63
1.90888e+61
4.79899e+63
1.86678e+61
5.24537e+63
2.10984e+61
5.68331e+63
2.6398e+61
6.20302e+63
3.45532e+61
6.90166e+63
4.56808e+61
7.8563e+63
5.96764e+61
9.1559e+63
7.61917e+61
1.08823e+64
9.25985e+61
1.31172e+64
1.03383e+62
1.59316e+64
8.30647e+61
1.92131e+64
-1.7505e+61
2.27708e+64
-4.09337e+62
2.3852e+64
-1.70947e+63
1.82801e+64
-5.44593e+63
3.0132e+64
-1.64683e+64
1.0728e+65
-4.59284e+64
3.25031e+65
-1.03943e+65
7.88094e+65
1.51914e+66
-1.25145e+63
3.19992e+62
-1.22501e+63
1.5404e+63
-1.19166e+63
2.953e+63
-9.85842e+62
4.38148e+63
-7.94319e+62
4.86762e+63
-9.19847e+62
2.89216e+63
-9.32963e+62
2.62834e+63
-9.41534e+62
2.83969e+63
-9.83092e+62
3.16709e+63
-1.31243e+63
1.66028e+63
-1.25073e+63
3.71419e+63
-1.31924e+63
5.45735e+62
-1.2504e+63
1.23917e+63
-1.2197e+63
2.81203e+63
-8.22996e+62
4.73797e+63
-1.08477e+63
-3.10998e+63
-8.20162e+62
-2.27414e+63
-2.32145e+62
-6.4647e+62
-5.38535e+62
-7.51917e+63
-5.18042e+62
-2.40848e+63
8.35595e+62
-3.63423e+63
-5.67641e+62
-1.33878e+64
-5.65848e+62
-7.76196e+63
-4.28466e+62
-4.21183e+63
2.99619e+62
1.29545e+63
-7.57669e+62
6.10805e+63
-1.50397e+62
9.74788e+63
-1.73294e+62
7.69073e+63
1.57714e+62
5.6584e+62
8.8308e+61
5.51077e+63
4.93958e+62
1.64985e+63
-5.52377e+61
-3.49686e+63
-8.14331e+61
2.62933e+63
2.34153e+61
6.15978e+63
4.97738e+62
-1.19727e+63
-1.12288e+62
-9.53226e+63
-2.94986e+62
-7.62278e+63
-4.76659e+62
-4.50822e+63
-5.55245e+62
-2.84458e+63
-4.67017e+62
-2.35374e+63
1.77029e+62
5.0947e+63
-9.20742e+61
1.83146e+63
1.60405e+63
9.04924e+63
-2.38277e+62
1.04896e+64
5.62226e+61
5.92661e+63
4.06858e+62
4.53627e+63
-1.26077e+63
6.00312e+63
-7.03283e+62
5.26061e+63
-3.61931e+62
3.85052e+63
-2.11893e+62
3.33111e+63
-1.06511e+62
3.16919e+63
-2.8034e+61
2.53301e+63
3.90779e+62
4.47805e+62
-5.9624e+62
-2.17963e+63
2.22344e+62
-1.33737e+63
2.92219e+62
8.94411e+62
2.38214e+62
1.74202e+63
1.57408e+62
2.7161e+63
8.93657e+61
3.57615e+63
4.78081e+61
4.27108e+63
2.92078e+61
4.81743e+63
2.62736e+61
5.24838e+63
3.2828e+61
5.67684e+63
4.47504e+61
6.19134e+63
6.03304e+61
6.88629e+63
7.97749e+61
7.83716e+63
1.03639e+62
9.13218e+63
1.31884e+62
1.08543e+64
1.62048e+62
1.3087e+64
1.84083e+62
1.59097e+64
1.69803e+62
1.92272e+64
2.93505e+61
2.29112e+64
-4.71357e+62
2.43524e+64
-1.8031e+63
1.96114e+64
-5.21689e+63
3.35456e+64
-1.59255e+64
1.17989e+65
-4.70799e+64
3.56186e+65
-1.06209e+65
8.47223e+65
1.54376e+66
-1.21617e+63
3.19752e+62
-1.19376e+63
1.51798e+63
-1.15584e+63
2.91508e+63
-9.79444e+62
4.20508e+63
-8.09338e+62
4.69751e+63
-8.99147e+62
2.98197e+63
-9.22929e+62
2.65212e+63
-9.4833e+62
2.8651e+63
-9.73944e+62
3.1927e+63
-1.28279e+63
1.96912e+63
-1.16377e+63
3.59517e+63
-1.27509e+63
6.5706e+62
-1.26476e+63
1.22884e+63
-1.23679e+63
2.78406e+63
-8.44632e+62
4.34581e+63
-1.07063e+63
-2.88398e+63
-8.41394e+62
-2.50338e+63
-2.97377e+62
-1.19049e+63
-5.98869e+62
-7.21768e+63
-5.8524e+62
-2.42211e+63
5.10134e+62
-4.72961e+63
-5.58128e+62
-1.23196e+64
-5.67894e+62
-7.7522e+63
-4.60229e+62
-4.31949e+63
2.70016e+62
5.65211e+62
-7.88605e+62
7.16668e+63
-2.21417e+62
9.18069e+63
-1.70272e+62
7.63959e+63
1.31888e+62
2.63685e+62
1.30037e+62
5.51262e+63
4.11525e+62
1.36837e+63
-7.19457e+61
-3.01338e+63
-1.30743e+62
2.68813e+63
-2.60321e+61
6.05507e+63
3.28695e+62
-1.55199e+63
-1.21418e+62
-9.08213e+63
-3.00527e+62
-7.44366e+63
-3.94923e+62
-4.41382e+63
-4.6952e+62
-2.76998e+63
-4.69831e+62
-2.35342e+63
2.25886e+62
4.39903e+63
3.34671e+60
2.05405e+63
1.82037e+63
7.23243e+63
-2.82822e+62
1.2593e+64
1.82518e+62
5.4613e+63
5.76657e+62
4.14224e+63
-7.03451e+62
7.28323e+63
-6.06594e+62
5.16387e+63
-3.61766e+62
3.60577e+63
-2.39717e+62
3.20919e+63
-1.26025e+62
3.05567e+63
-5.86189e+61
2.46579e+63
2.77589e+62
1.1198e+62
-5.05614e+62
-1.39295e+63
2.17772e+62
-2.06021e+63
3.13168e+62
7.99642e+62
2.633e+62
1.79254e+63
1.77944e+62
2.80214e+63
1.03077e+62
3.65148e+63
5.61369e+61
4.31866e+63
3.44942e+61
4.83962e+63
3.08337e+61
5.25278e+63
3.85825e+61
5.66978e+63
5.3179e+61
6.17756e+63
7.25977e+61
6.86759e+63
9.69184e+61
7.81365e+63
1.26696e+62
9.10308e+63
1.61892e+62
1.08199e+64
1.99657e+62
1.30498e+64
2.28868e+62
1.58812e+64
2.16452e+62
1.92401e+64
7.00948e+61
2.30584e+64
-4.39718e+62
2.48628e+64
-1.68945e+63
2.08624e+64
-4.77552e+63
3.66326e+64
-1.62697e+64
1.29483e+65
-5.07266e+64
3.90643e+65
-1.0911e+65
9.05607e+65
1.55258e+66
-1.19773e+63
3.19005e+62
-1.17165e+63
1.4919e+63
-1.12276e+63
2.8662e+63
-9.6328e+62
4.0456e+63
-8.11888e+62
4.54612e+63
-8.83855e+62
3.05394e+63
-9.28004e+62
2.69627e+63
-9.74357e+62
2.91145e+63
-9.986e+62
3.21694e+63
-1.27736e+63
2.24788e+63
-1.12942e+63
3.44723e+63
-1.26479e+63
7.92428e+62
-1.28024e+63
1.24428e+63
-1.23918e+63
2.743e+63
-8.57585e+62
3.96422e+63
-1.0437e+63
-2.69787e+63
-8.41013e+62
-2.70607e+63
-3.58565e+62
-1.67294e+63
-6.61967e+62
-6.91428e+63
-6.38381e+62
-2.44569e+63
2.75007e+62
-5.643e+63
-5.43071e+62
-1.15015e+64
-5.85611e+62
-7.70966e+63
-4.99211e+62
-4.40589e+63
2.28645e+62
-1.62644e+62
-8.09694e+62
8.20502e+63
-2.73104e+62
8.6441e+63
-1.79401e+62
7.54589e+63
7.76641e+61
6.62149e+60
1.39665e+62
5.45062e+63
3.47123e+62
1.16091e+63
-1.06052e+62
-2.56021e+63
-2.01084e+62
2.78317e+63
-7.3015e+61
5.92701e+63
2.21534e+62
-1.84653e+63
-1.49184e+62
-8.71142e+63
-3.24112e+62
-7.26874e+63
-3.57699e+62
-4.38024e+63
-4.38169e+62
-2.68951e+63
-4.2977e+62
-2.36182e+63
2.40276e+62
3.72896e+63
7.42439e+61
2.22008e+63
2.12994e+63
5.17681e+63
-3.57385e+62
1.50805e+64
1.89811e+62
4.9141e+63
1.99253e+62
4.13288e+63
-4.99275e+62
7.98175e+63
-5.26733e+62
5.19136e+63
-3.20202e+62
3.39922e+63
-2.24495e+62
3.11354e+63
-1.20805e+62
2.95207e+63
-5.2811e+61
2.39788e+63
2.1012e+62
-1.50738e+62
-4.37938e+62
-7.44771e+62
2.70582e+62
-2.76817e+63
3.50431e+62
7.20667e+62
2.84435e+62
1.85933e+63
1.89575e+62
2.89776e+63
1.08532e+62
3.73311e+63
5.83266e+61
4.36969e+63
3.57955e+61
4.86298e+63
3.29363e+61
5.25674e+63
4.26977e+61
5.66115e+63
6.02121e+61
6.16135e+63
8.33767e+61
6.84568e+63
1.12307e+62
7.78604e+63
1.47675e+62
9.06885e+63
1.89509e+62
1.07792e+64
2.3484e+62
1.30054e+64
2.72187e+62
1.58449e+64
2.66178e+62
1.9247e+64
1.29153e+62
2.31965e+64
-3.53869e+62
2.53468e+64
-1.48262e+63
2.19925e+64
-4.36462e+63
3.95156e+64
-1.7443e+64
1.42562e+65
-5.59796e+64
4.2918e+65
-1.15036e+65
9.64664e+65
1.56934e+66
-1.18757e+63
3.15576e+62
-1.15716e+63
1.46149e+63
-1.10034e+63
2.80938e+63
-9.53619e+62
3.89888e+63
-8.1548e+62
4.40798e+63
-8.7576e+62
3.11422e+63
-9.36431e+62
2.75694e+63
-9.95783e+62
2.9708e+63
-1.02169e+63
3.24285e+63
-1.26405e+63
2.49024e+63
-1.11472e+63
3.2979e+63
-1.25843e+63
9.36135e+62
-1.29246e+63
1.27831e+63
-1.23222e+63
2.68276e+63
-8.70548e+62
3.60255e+63
-1.03818e+63
-2.53023e+63
-8.50637e+62
-2.89361e+63
-4.22778e+62
-2.10079e+63
-7.23967e+62
-6.61309e+63
-6.70111e+62
-2.49955e+63
1.01629e+62
-6.41473e+63
-5.41471e+62
-1.08584e+64
-5.91625e+62
-7.6595e+63
-5.36261e+62
-4.46125e+63
2.57651e+62
-9.56553e+62
-8.60476e+62
9.32316e+63
-3.07836e+62
8.09146e+63
-1.72445e+62
7.4105e+63
3.92313e+60
-1.69742e+62
1.2973e+62
5.32481e+63
2.78038e+62
1.01261e+63
-1.6632e+62
-2.11584e+63
-2.90634e+62
2.90748e+63
-1.31263e+62
5.76764e+63
1.46739e+62
-2.12453e+63
-1.72974e+62
-8.39169e+63
-3.56816e+62
-7.08489e+63
-3.38367e+62
-4.39868e+63
-3.98213e+62
-2.62966e+63
-4.2366e+62
-2.33637e+63
2.02613e+62
3.10273e+63
1.60079e+62
2.2627e+63
2.43366e+63
2.90339e+63
-2.47665e+62
1.77624e+64
1.9643e+62
4.47006e+63
1.02414e+61
4.3192e+63
-4.57279e+62
8.44929e+63
-4.76999e+62
5.21129e+63
-2.79983e+62
3.2024e+63
-2.08462e+62
3.04226e+63
-1.28287e+62
2.87218e+63
-6.03489e+61
2.33026e+63
1.43874e+62
-3.54163e+62
-3.52017e+62
-2.44963e+62
3.6402e+62
-3.48281e+63
4.05348e+62
6.80405e+62
3.11145e+62
1.95457e+63
2.02836e+62
3.00704e+63
1.1382e+62
3.82284e+63
5.97453e+61
4.42463e+63
3.63707e+61
4.88712e+63
3.46037e+61
5.25944e+63
4.66628e+61
5.64997e+63
6.72699e+61
6.14172e+63
9.42511e+61
6.8196e+63
1.27827e+62
7.75344e+63
1.68862e+62
9.02866e+63
2.17557e+62
1.07315e+64
2.71072e+62
1.29527e+64
3.18268e+62
1.57986e+64
3.23827e+62
1.92422e+64
2.08069e+62
2.33133e+64
-2.24977e+62
2.57807e+64
-1.21411e+63
2.29831e+64
-4.09236e+63
4.23949e+64
-1.96941e+64
1.58165e+65
-6.28943e+64
4.72381e+65
-1.2088e+65
1.02265e+66
1.56498e+66
-1.18641e+63
3.08678e+62
-1.15204e+63
1.42712e+63
-1.08983e+63
2.74717e+63
-9.55057e+62
3.7641e+63
-8.27694e+62
4.28062e+63
-8.80186e+62
3.16671e+63
-9.46696e+62
2.82345e+63
-1.00983e+63
3.03394e+63
-1.04087e+63
3.27389e+63
-1.25009e+63
2.69946e+63
-1.11457e+63
3.16238e+63
-1.25902e+63
1.08058e+63
-1.30606e+63
1.32536e+63
-1.22555e+63
2.60225e+63
-8.76166e+62
3.25317e+63
-1.03395e+63
-2.37245e+63
-8.61409e+62
-3.06616e+63
-4.74006e+62
-2.4882e+63
-7.72712e+62
-6.31438e+63
-6.90086e+62
-2.58217e+63
-3.21247e+61
-7.0727e+63
-5.49806e+62
-1.03407e+64
-6.09192e+62
-7.60012e+63
-5.98175e+62
-4.47227e+63
4.79573e+62
-2.0343e+63
-9.42959e+62
1.07457e+64
-3.28889e+62
7.47739e+63
-1.58337e+62
7.23994e+63
-7.56805e+61
-2.52396e+62
1.0572e+62
5.14341e+63
1.85328e+62
9.33e+62
-2.4816e+62
-1.68235e+63
-3.84247e+62
3.04357e+63
-1.95217e+62
5.57861e+63
8.95156e+61
-2.40925e+63
-1.95058e+62
-8.10712e+63
-4.02249e+62
-6.8777e+63
-3.42059e+62
-4.45888e+63
-3.38476e+62
-2.63325e+63
-4.09952e+62
-2.2649e+63
1.31247e+62
2.56152e+63
2.17421e+62
2.17653e+63
2.20765e+63
9.13261e+62
3.78337e+62
1.95921e+64
2.46501e+62
4.60187e+63
-6.62156e+61
4.63199e+63
-4.49503e+62
8.83259e+63
-4.4134e+62
5.20325e+63
-2.26026e+62
2.98719e+63
-1.83517e+62
2.99991e+63
-1.28903e+62
2.81776e+63
-6.45601e+61
2.26611e+63
9.18793e+61
-5.10136e+62
-2.37291e+62
8.53011e+61
4.93251e+62
-4.21164e+63
4.72818e+62
7.02244e+62
3.40984e+62
2.08768e+63
2.16936e+62
3.13217e+63
1.18709e+62
3.92193e+63
6.03951e+61
4.48403e+63
3.625e+61
4.91238e+63
3.58054e+61
5.26127e+63
5.03968e+61
5.63681e+63
7.42786e+61
6.11943e+63
1.05223e+62
6.79019e+63
1.43605e+62
7.71665e+63
1.90538e+62
8.98315e+63
2.46494e+62
1.0677e+64
3.08993e+62
1.28914e+64
3.67899e+62
1.57411e+64
3.89991e+62
1.92212e+64
3.04575e+62
2.34e+64
-6.34573e+61
2.615e+64
-8.96451e+62
2.38178e+64
-4.08453e+63
4.55842e+64
-2.30451e+64
1.77126e+65
-7.05988e+64
5.19935e+65
-1.27066e+65
1.07912e+66
1.56472e+66
-1.19373e+63
2.98383e+62
-1.15658e+63
1.38997e+63
-1.09207e+63
2.68266e+63
-9.71147e+62
3.64318e+63
-8.54014e+62
4.16349e+63
-9.01088e+62
3.21378e+63
-9.68059e+62
2.89042e+63
-1.02859e+63
3.09447e+63
-1.06157e+63
3.30686e+63
-1.23735e+63
2.87524e+63
-1.1245e+63
3.04952e+63
-1.26452e+63
1.22061e+63
-1.31832e+63
1.37915e+63
-1.22072e+63
2.50465e+63
-8.83544e+62
2.916e+63
-1.03136e+63
-2.22463e+63
-8.74186e+62
-3.22333e+63
-5.19855e+62
-2.84253e+63
-8.05473e+62
-6.02876e+63
-7.03895e+62
-2.68375e+63
-1.37732e+62
-7.63886e+63
-5.65955e+62
-9.91249e+63
-6.37166e+62
-7.5289e+63
-6.93349e+62
-4.41608e+63
-8.02353e+61
-2.64741e+63
-9.5119e+62
1.16167e+64
-3.63738e+62
6.88994e+63
-1.61948e+62
7.03816e+63
-1.57102e+62
-2.57239e+62
7.09632e+61
4.91535e+63
7.24747e+61
9.31491e+62
-3.46695e+62
-1.26318e+63
-4.84234e+62
3.18111e+63
-2.63516e+62
5.3579e+63
3.21878e+61
-2.70495e+63
-2.40833e+62
-7.83409e+63
-4.71631e+62
-6.64689e+63
-3.54732e+62
-4.57577e+63
-2.28404e+62
-2.75956e+63
-3.33788e+62
-2.15951e+63
8.48267e+61
2.14294e+63
1.8758e+62
2.07388e+63
6.80219e+62
4.20747e+62
6.08668e+62
1.96642e+64
2.68776e+62
4.94183e+63
-7.39647e+61
4.97483e+63
-4.58626e+62
9.21728e+63
-4.3029e+62
5.17513e+63
-1.95002e+62
2.75212e+63
-1.5763e+62
2.96278e+63
-1.17115e+62
2.77754e+63
-6.63442e+61
2.21566e+63
4.25779e+61
-6.18057e+62
-6.49185e+61
1.96749e+62
6.75846e+62
-4.95036e+63
5.51473e+62
8.27844e+62
3.71547e+62
2.26865e+63
2.30958e+62
3.27365e+63
1.22594e+62
4.03094e+63
5.99287e+61
4.54746e+63
3.52761e+61
4.93769e+63
3.64975e+61
5.26084e+63
5.39092e+61
5.62013e+63
8.12666e+61
6.09289e+63
1.16327e+62
6.75586e+63
1.59684e+62
7.6741e+63
2.1276e+62
8.93077e+63
2.76397e+62
1.06142e+64
3.48686e+62
1.28197e+64
4.21056e+62
1.56695e+64
4.63988e+62
1.9179e+64
4.15407e+62
2.34495e+64
1.19278e+62
2.64469e+64
-5.30153e+62
2.44685e+64
-4.47117e+63
4.95261e+64
-2.74971e+64
2.00152e+65
-7.90119e+64
5.7145e+65
-1.33104e+65
1.13321e+66
1.54833e+66
-1.20888e+63
2.84895e+62
-1.16974e+63
1.35082e+63
-1.10494e+63
2.61786e+63
-9.98547e+62
3.53679e+63
-8.91353e+62
4.05629e+63
-9.31911e+62
3.25434e+63
-9.96229e+62
2.95474e+63
-1.05236e+63
3.1506e+63
-1.08458e+63
3.33908e+63
-1.22567e+63
3.01634e+63
-1.14081e+63
2.96467e+63
-1.2739e+63
1.3537e+63
-1.32937e+63
1.43462e+63
-1.21819e+63
2.39347e+63
-8.94317e+62
2.59212e+63
-1.03114e+63
-2.0878e+63
-8.934e+62
-3.36107e+63
-5.7178e+62
-3.16415e+63
-8.20861e+62
-5.77968e+63
-7.00594e+62
-2.80402e+63
-2.11472e+62
-8.12798e+63
-5.77626e+62
-9.54633e+63
-6.64094e+62
-7.44244e+63
-7.77182e+62
-4.303e+63
-6.97521e+62
-2.72707e+63
-6.03585e+62
1.15228e+64
-4.10507e+62
6.69687e+63
-1.83255e+62
6.81091e+63
-2.48198e+62
-1.92295e+62
1.75647e+61
4.64958e+63
-6.36273e+61
1.01269e+63
-4.77252e+62
-8.49547e+62
-5.95688e+62
3.29955e+63
-3.32225e+62
5.09444e+63
-1.73037e+61
-3.01986e+63
-2.90018e+62
-7.56137e+63
-5.62039e+62
-6.37487e+63
-4.06625e+62
-4.73119e+63
-1.38528e+62
-3.02767e+63
-2.92004e+62
-2.00604e+63
7.83558e+60
1.8431e+63
1.00696e+62
1.98104e+63
1.06841e+62
4.14677e+62
5.92085e+62
1.91791e+64
2.60922e+62
5.27299e+63
-3.69212e+61
5.27272e+63
-4.24526e+62
9.6049e+63
-4.17644e+62
5.16838e+63
-1.83008e+62
2.51764e+63
-1.34859e+62
2.91483e+63
-1.03189e+62
2.74608e+63
-8.96202e+61
2.20231e+63
-2.2971e+60
-7.04793e+62
2.66746e+62
-7.00396e+61
9.85375e+62
-5.66526e+63
6.46519e+62
1.16834e+63
4.02986e+62
2.51361e+63
2.447e+62
3.43307e+63
1.25227e+62
4.15131e+63
5.81285e+61
4.61568e+63
3.33002e+61
4.96368e+63
3.65938e+61
5.25896e+63
5.71577e+61
5.60102e+63
8.82106e+61
6.06344e+63
1.27544e+62
6.71809e+63
1.76043e+62
7.62722e+63
2.35503e+62
8.87274e+63
3.07228e+62
1.0544e+64
3.90067e+62
1.27382e+64
4.77439e+62
1.55835e+64
5.44624e+62
1.9113e+64
5.38145e+62
2.34574e+64
3.00497e+62
2.66859e+64
-1.17128e+62
2.48878e+64
-5.39159e+63
5.48015e+64
-3.30576e+64
2.27818e+65
-8.78954e+64
6.26288e+65
-1.37406e+65
1.18272e+66
1.51888e+66
-1.23105e+63
2.68375e+62
-1.19015e+63
1.30993e+63
-1.12593e+63
2.55363e+63
-1.03214e+63
3.44301e+63
-9.34646e+62
3.9588e+63
-9.68801e+62
3.2885e+63
-1.02806e+63
3.014e+63
-1.07911e+63
3.20165e+63
-1.11022e+63
3.37019e+63
-1.21816e+63
3.12428e+63
-1.1615e+63
2.90801e+63
-1.28686e+63
1.47907e+63
-1.34016e+63
1.48792e+63
-1.21898e+63
2.27229e+63
-9.10034e+62
2.28318e+63
-1.03409e+63
-1.96375e+63
-9.15796e+62
-3.47936e+63
-6.18089e+62
-3.46185e+63
-8.10488e+62
-5.58728e+63
-6.71466e+62
-2.94304e+63
-2.5652e+62
-8.54292e+63
-5.84328e+62
-9.21852e+63
-6.90492e+62
-7.33627e+63
-8.53306e+62
-4.14018e+63
-9.01361e+62
-2.67901e+63
-5.46888e+62
1.11683e+64
-4.6808e+62
6.61806e+63
-1.98915e+62
6.54174e+63
-3.12381e+62
-7.88261e+61
3.68202e+60
4.33352e+63
-2.7459e+62
1.29096e+63
-6.9829e+62
-4.25841e+62
-7.15801e+62
3.31706e+63
-4.01924e+62
4.78056e+63
-5.67374e+61
-3.36505e+63
-3.2028e+62
-7.29782e+63
-6.08678e+62
-6.08647e+63
-5.02834e+62
-4.83703e+63
-1.70654e+62
-3.35984e+63
-3.00943e+62
-1.87574e+63
-9.08749e+61
1.63307e+63
-1.60243e+59
1.89042e+63
-1.55212e+62
5.6982e+62
5.40517e+62
1.84838e+64
2.48519e+62
5.56507e+63
-1.03661e+62
5.62497e+63
-3.43457e+62
9.84473e+63
-4.0571e+62
5.2308e+63
-1.69382e+62
2.28153e+63
-1.22251e+62
2.86793e+63
-9.89337e+61
2.72304e+63
-1.32025e+62
2.23571e+63
1.09965e+60
-8.36795e+62
1.17475e+63
-1.23976e+63
1.66722e+63
-6.15318e+63
7.56836e+62
2.08024e+63
4.34167e+62
2.83729e+63
2.57809e+62
3.6102e+63
1.26389e+62
4.28328e+63
5.48772e+61
4.68783e+63
3.02587e+61
4.98881e+63
3.60635e+61
5.25378e+63
6.01247e+61
5.57751e+63
9.50893e+61
6.02911e+63
1.38843e+62
6.67487e+63
1.92641e+62
7.57404e+63
2.58712e+62
8.8072e+63
3.38906e+62
1.04644e+64
4.32986e+62
1.26446e+64
5.36646e+62
1.54806e+64
6.30603e+62
1.90196e+64
6.70949e+62
2.34179e+64
4.76917e+62
2.68806e+64
3.19863e+62
2.50458e+64
-7.00875e+63
6.21307e+64
-3.96064e+64
2.60416e+65
-9.67211e+64
6.83403e+65
-1.41406e+65
1.22741e+66
1.49094e+66
-1.25977e+63
2.48868e+62
-1.21704e+63
1.2672e+63
-1.15361e+63
2.4902e+63
-1.06992e+63
3.35932e+63
-9.8181e+62
3.87068e+63
-1.011e+63
3.31769e+63
-1.06378e+63
3.06678e+63
-1.10898e+63
3.24685e+63
-1.13775e+63
3.39896e+63
-1.21705e+63
3.20358e+63
-1.18565e+63
2.8766e+63
-1.30307e+63
1.59649e+63
-1.3513e+63
1.53615e+63
-1.22348e+63
2.14448e+63
-9.31103e+62
1.9908e+63
-1.03928e+63
-1.85557e+63
-9.35121e+62
-3.58351e+63
-6.48727e+62
-3.74824e+63
-7.81184e+62
-5.45482e+63
-6.32082e+62
-3.09214e+63
-2.9056e+62
-8.88444e+63
-5.89845e+62
-8.91924e+63
-7.20948e+62
-7.20517e+63
-9.21234e+62
-3.93989e+63
-1.06386e+63
-2.53638e+63
-5.01885e+62
1.06063e+64
-5.21989e+62
6.63817e+63
-1.98912e+62
6.21867e+63
-3.56911e+62
7.91749e+61
-2.88675e+61
4.00548e+63
-7.6098e+62
2.02307e+63
-1.20282e+63
1.60102e+61
-8.3733e+62
2.95157e+63
-4.77188e+62
4.42043e+63
-9.47841e+61
-3.74744e+63
-3.23141e+62
-7.06946e+63
-5.72606e+62
-5.837e+63
-5.38522e+62
-4.87111e+63
-2.21593e+62
-3.67677e+63
-2.9557e+62
-1.80176e+63
-1.65926e+62
1.50342e+63
-9.35309e+61
1.81804e+63
-3.07343e+62
7.83683e+62
4.66805e+62
1.77097e+64
2.17332e+62
5.81455e+63
-1.67638e+62
6.00997e+63
-2.51656e+62
9.92877e+63
-4.06099e+62
5.38537e+63
-1.83616e+62
2.05924e+63
-1.27805e+62
2.81233e+63
-1.01984e+62
2.69744e+63
-1.65874e+62
2.29984e+63
9.62923e+61
-1.09823e+63
2.34998e+63
-3.49028e+63
2.16009e+63
-5.95715e+63
8.69122e+62
3.37344e+63
4.63969e+62
3.244e+63
2.70434e+62
3.80485e+63
1.25932e+62
4.42869e+63
5.00164e+61
4.76488e+63
2.60578e+61
5.01394e+63
3.48649e+61
5.24639e+63
6.27958e+61
5.55105e+63
1.01892e+62
5.99163e+63
1.50205e+62
6.62813e+63
2.0945e+62
7.51641e+63
2.82347e+62
8.73574e+63
3.71355e+62
1.03769e+64
4.77276e+62
1.25399e+64
5.98241e+62
1.5361e+64
7.20763e+62
1.88983e+64
8.11445e+62
2.33286e+64
6.64355e+62
2.7029e+64
7.08467e+62
2.50033e+64
-9.46315e+63
7.2303e+64
-4.70241e+64
2.97978e+65
-1.05463e+65
7.41843e+65
-1.44616e+65
1.26656e+66
1.45056e+66
-1.29485e+63
2.26284e+62
-1.24995e+63
1.2223e+63
-1.18708e+63
2.42733e+63
-1.11135e+63
3.28359e+63
-1.03192e+63
3.79126e+63
-1.0573e+63
3.34306e+63
-1.10282e+63
3.11231e+63
-1.14125e+63
3.28527e+63
-1.16572e+63
3.42343e+63
-1.22199e+63
3.25986e+63
-1.21269e+63
2.86731e+63
-1.32231e+63
1.7061e+63
-1.36343e+63
1.57728e+63
-1.23211e+63
2.01316e+63
-9.57457e+62
1.71614e+63
-1.04565e+63
-1.76738e+63
-9.48809e+62
-3.68035e+63
-6.67663e+62
-4.02939e+63
-7.50698e+62
-5.37178e+63
-5.91633e+62
-3.2512e+63
-3.18664e+62
-9.15741e+63
-5.96611e+62
-8.64129e+63
-7.5707e+62
-7.04471e+63
-9.82921e+62
-3.71404e+63
-1.22106e+63
-2.29824e+63
-4.62025e+62
9.84728e+63
-5.87128e+62
6.76327e+63
-2.01726e+62
5.83326e+63
-4.30508e+62
3.07959e+62
-2.67953e+62