/*--------------------------------*- C++ -*----------------------------------*\
| =========                 |                                                 |
| \\      /  F ield         | OpenFOAM: The Open Source CFD Toolbox           |
|  \\    /   O peration     | Version:  4.1                                   |
|   \\  /    A nd           | Web:      www.OpenFOAM.org                      |
|    \\/     M anipulation  |                                                 |
\*---------------------------------------------------------------------------*/
FoamFile
{
    version     2.0;
    format      ascii;
    class       volVectorField;
    location    "27";
    object      U;
}
// * * * * * * * * * * * * * * * * * * * * * * * * * * * * * * * * * * * * * //

dimensions      [0 1 -1 0 0 0 0];

internalField   nonuniform List<vector> 
6785
(
(-1.17651e+58 -1.55823e+59 4.57069e+59)
(-2.54426e+58 1.1081e+59 1.65626e+59)
(-3.16131e+58 2.73607e+59 -3.23563e+58)
(-3.57343e+58 4.24281e+59 -1.88394e+59)
(-3.80984e+58 5.49026e+59 -3.25644e+59)
(-3.90028e+58 6.58226e+59 -4.52132e+59)
(-3.896e+58 7.59846e+59 -5.73251e+59)
(-3.89657e+58 8.49262e+59 -6.87125e+59)
(-3.88201e+58 9.20576e+59 -7.71113e+59)
(-3.85219e+58 9.48699e+59 -8.14014e+59)
(-3.76908e+58 1.04457e+60 -9.18879e+59)
(-3.71785e+58 7.6833e+59 -6.34557e+59)
(-3.62068e+58 5.00924e+59 -3.09509e+59)
(-3.6881e+58 3.96158e+59 -1.69e+59)
(-2.43049e+58 1.85161e+58 4.54455e+59)
(-2.02852e+58 -1.56804e+59 1.08338e+60)
(-3.90554e+58 -4.87204e+58 6.36315e+59)
(-4.24311e+58 1.4021e+59 4.60315e+59)
(-4.15572e+58 3.45868e+59 2.79155e+59)
(-4.0354e+58 5.66207e+59 7.70599e+58)
(-4.0231e+58 7.96397e+59 -1.45401e+59)
(-4.06096e+58 1.02158e+60 -3.6265e+59)
(-4.05947e+58 1.23175e+60 -5.61817e+59)
(-4.04992e+58 1.42334e+60 -7.47221e+59)
(-4.02923e+58 1.58845e+60 -9.24457e+59)
(-3.98463e+58 1.71175e+60 -1.10073e+60)
(-3.87899e+58 1.75512e+60 -1.26328e+60)
(-3.57536e+58 1.69664e+60 -1.31592e+60)
(-2.86522e+58 1.39522e+60 -1.00241e+60)
(-1.62712e+58 6.48099e+59 -3.85728e+59)
(-2.08584e+58 -2.9054e+59 1.55992e+60)
(-4.0801e+58 -4.66034e+59 1.17157e+60)
(-4.55586e+58 -3.99274e+59 9.78297e+59)
(-4.44828e+58 -2.89605e+59 8.6731e+59)
(-4.23306e+58 -1.76208e+59 7.42412e+59)
(-4.10332e+58 -6.03932e+58 6.03541e+59)
(-4.07601e+58 3.4029e+58 4.82305e+59)
(-4.07892e+58 8.34436e+58 4.1377e+59)
(-4.08661e+58 1.07422e+58 4.60179e+59)
(-4.1094e+58 -2.53582e+59 6.68341e+59)
(-4.59918e+58 4.00024e+59 1.90835e+59)
(-5.33843e+58 6.22705e+59 -4.91195e+59)
(-5.27176e+58 1.5583e+60 -1.81316e+60)
(-4.7988e+58 2.39581e+60 -3.03571e+60)
(-2.83862e+58 2.38776e+60 -3.44559e+60)
(-1.73868e+58 -4.12121e+59 1.47827e+60)
(-3.64421e+58 -7.02945e+59 1.40097e+60)
(-4.39721e+58 -7.35036e+59 1.15101e+60)
(-4.54525e+58 -6.67598e+59 1.01531e+60)
(-4.4575e+58 -6.01441e+59 9.13948e+59)
(-4.32455e+58 -5.47267e+59 8.1684e+59)
(-4.22122e+58 -5.06878e+59 7.26189e+59)
(-4.15977e+58 -4.76328e+59 6.50399e+59)
(-4.12679e+58 -4.81122e+59 6.10104e+59)
(-4.08371e+58 -5.27571e+59 6.08574e+59)
(-4.21245e+58 -4.54753e+59 6.09735e+59)
(-4.43357e+58 -3.66391e+59 4.89325e+59)
(-4.43e+58 -4.11458e+59 3.74488e+59)
(-4.84268e+58 7.4452e+59 -9.50384e+59)
(-3.9724e+58 2.91957e+60 -4.36271e+60)
(-1.30753e+58 -4.45368e+59 1.16236e+60)
(-3.04691e+58 -7.48772e+59 1.38011e+60)
(-3.95823e+58 -8.22277e+59 1.19311e+60)
(-4.34947e+58 -7.63323e+59 1.04215e+60)
(-4.45869e+58 -6.9059e+59 9.34946e+59)
(-4.43266e+58 -6.35231e+59 8.4828e+59)
(-4.35436e+58 -5.94628e+59 7.71061e+59)
(-4.27574e+58 -5.59579e+59 7.02305e+59)
(-4.21264e+58 -5.31305e+59 6.3947e+59)
(-4.13969e+58 -5.2557e+59 5.93028e+59)
(-4.10012e+58 -5.06072e+59 5.43668e+59)
(-4.17089e+58 -3.18448e+59 3.63353e+59)
(-4.10024e+58 -6.68901e+59 6.53963e+59)
(-4.17153e+58 -4.8527e+59 5.08636e+59)
(-4.01361e+58 3.02612e+60 -4.47077e+60)
(-1.06331e+58 -4.36909e+59 9.76412e+59)
(-2.69571e+58 -7.37323e+59 1.34427e+60)
(-3.63723e+58 -8.18739e+59 1.23767e+60)
(-4.14147e+58 -7.64576e+59 1.10504e+60)
(-4.36728e+58 -6.92001e+59 1.00264e+60)
(-4.42337e+58 -6.38507e+59 9.25145e+59)
(-4.38486e+58 -6.00095e+59 8.6067e+59)
(-4.31046e+58 -5.66131e+59 8.01962e+59)
(-4.23203e+58 -5.28664e+59 7.38939e+59)
(-4.14454e+58 -5.09922e+59 6.90006e+59)
(-4.06971e+58 -4.85352e+59 6.2735e+59)
(-4.08674e+58 -3.05428e+59 5.25801e+59)
(-3.88419e+58 -9.17546e+59 1.06462e+60)
(-4.0655e+58 -5.72129e+59 8.84856e+59)
(-3.97504e+58 3.2855e+60 -4.92739e+60)
(-1.01001e+58 -4.35331e+59 9.80275e+59)
(-2.46265e+58 -7.44832e+59 1.40401e+60)
(-3.45451e+58 -8.33083e+59 1.34116e+60)
(-4.04308e+58 -7.83325e+59 1.23032e+60)
(-4.30824e+58 -7.182e+59 1.13944e+60)
(-4.38189e+58 -6.73529e+59 1.07352e+60)
(-4.35221e+58 -6.40297e+59 1.02219e+60)
(-4.27625e+58 -6.08511e+59 9.75898e+59)
(-4.1885e+58 -5.71549e+59 9.28829e+59)
(-4.09881e+58 -5.51074e+59 8.95639e+59)
(-4.01874e+58 -5.11666e+59 8.57504e+59)
(-3.99948e+58 -4.50734e+59 8.7151e+59)
(-3.84594e+58 -9.90268e+59 1.25785e+60)
(-4.08109e+58 -5.65455e+59 1.14656e+60)
(-3.95772e+58 3.44474e+60 -5.3471e+60)
(-8.36743e+57 -4.2093e+59 9.99503e+59)
(-2.09178e+58 -7.55474e+59 1.51067e+60)
(-3.1815e+58 -8.78212e+59 1.48923e+60)
(-3.85841e+58 -8.50742e+59 1.39346e+60)
(-4.20291e+58 -7.93517e+59 1.30356e+60)
(-4.32425e+58 -7.51561e+59 1.23906e+60)
(-4.31533e+58 -7.22161e+59 1.19543e+60)
(-4.24861e+58 -6.9576e+59 1.16204e+60)
(-4.16312e+58 -6.64495e+59 1.13106e+60)
(-4.07485e+58 -6.41793e+59 1.10456e+60)
(-3.99335e+58 -6.0389e+59 1.0727e+60)
(-3.94717e+58 -5.76426e+59 1.08758e+60)
(-3.87066e+58 -9.8694e+59 1.34709e+60)
(-4.14076e+58 -3.85909e+59 1.10256e+60)
(-3.92371e+58 3.5804e+60 -5.8224e+60)
(-6.835e+57 -4.53147e+59 1.22418e+60)
(-1.71884e+58 -8.17153e+59 1.74534e+60)
(-2.83373e+58 -9.44415e+59 1.72059e+60)
(-3.6497e+58 -9.25958e+59 1.63562e+60)
(-4.11172e+58 -8.60994e+59 1.55653e+60)
(-4.28231e+58 -8.09814e+59 1.49849e+60)
(-4.28261e+58 -7.7314e+59 1.46466e+60)
(-4.21485e+58 -7.39119e+59 1.43917e+60)
(-4.12552e+58 -6.934e+59 1.41013e+60)
(-4.03583e+58 -6.54648e+59 1.37198e+60)
(-3.94099e+58 -6.26326e+59 1.35564e+60)
(-3.9001e+58 -6.75926e+59 1.4012e+60)
(-3.92926e+58 -9.26183e+59 1.50603e+60)
(-4.19081e+58 -2.70681e+59 1.27296e+60)
(-3.93004e+58 3.71829e+60 -6.41252e+60)
(-5.87327e+57 -3.63362e+59 1.41263e+60)
(-1.73489e+58 -8.79709e+59 2.07713e+60)
(-2.6776e+58 -1.02468e+60 2.08295e+60)
(-3.4427e+58 -1.01623e+60 2.00681e+60)
(-3.92891e+58 -9.46491e+59 1.89984e+60)
(-4.16198e+58 -8.78696e+59 1.79543e+60)
(-4.21746e+58 -8.26482e+59 1.71841e+60)
(-4.18553e+58 -7.88013e+59 1.65976e+60)
(-4.11867e+58 -7.49385e+59 1.60821e+60)
(-4.0437e+58 -7.15295e+59 1.55282e+60)
(-3.95313e+58 -6.9428e+59 1.52047e+60)
(-3.87189e+58 -7.77962e+59 1.59014e+60)
(-3.98511e+58 -8.85343e+59 1.56457e+60)
(-4.53225e+58 7.92457e+59 -3.96268e+59)
(-3.91224e+58 3.86292e+60 -7.20269e+60)
(-9.53158e+56 -1.64897e+59 1.41435e+60)
(-1.57795e+58 -7.14427e+59 2.55295e+60)
(-2.64949e+58 -9.15461e+59 2.6684e+60)
(-3.389e+58 -9.20328e+59 2.66498e+60)
(-3.84683e+58 -8.73576e+59 2.61853e+60)
(-4.04638e+58 -8.40231e+59 2.54143e+60)
(-4.07209e+58 -8.1048e+59 2.45687e+60)
(-4.01535e+58 -7.87335e+59 2.34188e+60)
(-3.9327e+58 -7.66985e+59 2.20576e+60)
(-3.85624e+58 -7.45419e+59 2.04555e+60)
(-3.82358e+58 -7.56476e+59 1.89756e+60)
(-3.87898e+58 -7.7836e+59 1.73811e+60)
(-4.07484e+58 -7.12951e+59 1.49499e+60)
(-4.60661e+58 1.14481e+60 -1.01077e+60)
(-4.18446e+58 4.00943e+60 -8.15129e+60)
(-1.61845e+58 -6.61524e+59 3.89014e+60)
(-3.06681e+58 -6.69287e+59 3.29672e+60)
(-3.56147e+58 -5.43592e+59 3.50088e+60)
(-3.77241e+58 -4.39883e+59 3.14081e+60)
(-3.9447e+58 -3.93231e+59 2.66127e+60)
(-4.04511e+58 -4.25498e+59 2.15033e+60)
(-4.11944e+58 -5.50836e+59 1.6247e+60)
(-4.18306e+58 -7.49115e+59 1.08865e+60)
(-4.22713e+58 -9.69425e+59 7.09876e+59)
(-4.19476e+58 -9.41129e+59 4.95532e+59)
(-4.09262e+58 -5.74212e+59 1.22934e+59)
(-3.9659e+58 3.55376e+58 -4.76073e+59)
(-4.04495e+58 5.3727e+59 -1.16928e+60)
(-4.66129e+58 2.34798e+60 -3.80865e+60)
(-4.40307e+58 3.60499e+60 -8.37981e+60)
(-1.87788e+58 1.06669e+60 7.58862e+60)
(-3.70347e+58 -2.0515e+60 6.10262e+60)
(-4.44496e+58 -4.25655e+60 3.99145e+60)
(-4.97746e+58 -5.28699e+60 1.17085e+60)
(-5.29198e+58 -5.08732e+60 -2.47958e+59)
(-5.4816e+58 -4.94899e+60 -8.9912e+59)
(-5.64866e+58 -4.95172e+60 -1.21536e+60)
(-5.7803e+58 -5.00527e+60 -1.31938e+60)
(-5.88349e+58 -5.11922e+60 -1.15953e+60)
(-5.93509e+58 -5.22582e+60 -7.16379e+59)
(-5.91187e+58 -5.18576e+60 -2.15939e+58)
(-5.78956e+58 -5.11109e+60 8.31947e+59)
(-5.56278e+58 -4.79756e+60 1.6805e+60)
(-5.20976e+58 -4.19638e+60 2.47463e+60)
(-4.8752e+58 -7.43353e+59 7.60582e+57)
(-2.58355e+58 -9.62401e+60 3.9261e+60)
(-5.82683e+58 -9.59695e+60 -5.8521e+59)
(-6.77637e+58 -6.03422e+60 -3.82937e+60)
(-7.33095e+58 -4.10133e+60 -5.90268e+60)
(-7.68191e+58 -3.10213e+60 -7.06718e+60)
(-7.90497e+58 -2.48651e+60 -7.6229e+60)
(-8.03702e+58 -2.4365e+60 -7.49023e+60)
(-8.11178e+58 -2.57569e+60 -6.80747e+60)
(-8.13404e+58 -3.0362e+60 -5.56129e+60)
(-8.12581e+58 -3.63763e+60 -3.71656e+60)
(-8.05796e+58 -4.65772e+60 -1.22701e+60)
(-7.88787e+58 -6.00832e+60 2.03703e+60)
(-7.57414e+58 -7.80933e+60 6.5593e+60)
(-6.88343e+58 -1.02365e+61 1.38833e+61)
(-5.71403e+58 -1.61579e+61 2.56866e+61)
(-9.09129e+58 -7.76847e+59 2.22967e+61)
(-1.07822e+59 2.56207e+61 -7.5676e+60)
(-1.04417e+59 2.37726e+61 -7.72476e+60)
(-1.05029e+59 2.71349e+61 -1.07301e+61)
(-1.04269e+59 2.77846e+61 -1.01962e+61)
(-1.03903e+59 2.8975e+61 -1.09457e+61)
(-1.03097e+59 2.88961e+61 -1.05677e+61)
(-1.02483e+59 2.92488e+61 -1.03098e+61)
(-1.01515e+59 2.85652e+61 -1.04594e+61)
(-1.00491e+59 2.78184e+61 -9.4597e+60)
(-9.9473e+58 2.70446e+61 -1.01094e+61)
(-9.74652e+58 2.52777e+61 -8.67432e+60)
(-9.45398e+58 2.52489e+61 -7.42522e+60)
(-8.53475e+58 2.44836e+61 -2.07435e+60)
(-5.89435e+58 2.5117e+61 7.46657e+60)
(-1.56056e+59 3.02103e+61 9.6678e+61)
(-1.8923e+59 -2.94457e+60 3.12665e+61)
(-1.85874e+59 -2.53055e+61 -5.75232e+61)
(-1.87292e+59 -2.485e+61 -5.42077e+61)
(-1.91981e+59 -2.11843e+61 -5.9327e+61)
(-2.57846e+59 3.98781e+60 -4.86406e+61)
(-1.83711e+59 -3.55194e+61 -6.92533e+61)
(-1.75938e+59 -3.59101e+61 -6.8238e+61)
(-1.68566e+59 -1.65573e+61 -6.40817e+61)
(-2.57535e+59 2.3485e+61 -6.08116e+61)
(-1.91518e+59 6.99301e+60 -6.62491e+61)
(-1.78998e+59 7.8878e+60 -6.54845e+61)
(-2.54327e+59 2.41658e+61 -7.62309e+61)
(-1.86819e+59 1.89429e+61 -6.84785e+61)
(-1.84744e+59 2.07659e+61 -6.96137e+61)
(-1.75471e+59 2.24684e+61 -6.73798e+61)
(-2.48189e+59 4.32276e+61 -8.37071e+61)
(-1.85971e+59 3.32566e+61 -7.11696e+61)
(-1.73465e+59 3.38182e+61 -6.8582e+61)
(-2.45553e+59 5.99544e+61 -8.48113e+61)
(-1.80951e+59 4.41971e+61 -6.89891e+61)
(-1.78964e+59 4.92322e+61 -6.85943e+61)
(-1.69886e+59 4.96045e+61 -6.62686e+61)
(-2.40769e+59 8.08887e+61 -8.08582e+61)
(-1.77616e+59 5.87712e+61 -6.47831e+61)
(-1.75647e+59 6.43821e+61 -6.40449e+61)
(-1.66861e+59 6.41806e+61 -6.18006e+61)
(-2.35292e+59 9.81464e+61 -7.44763e+61)
(-1.76552e+59 7.38249e+61 -5.95463e+61)
(-1.64747e+59 7.28136e+61 -5.70719e+61)
(-2.32819e+59 1.11696e+62 -6.79355e+61)
(-1.71817e+59 8.18206e+61 -5.37507e+61)
(-1.6991e+59 8.76255e+61 -5.30131e+61)
(-1.61423e+59 8.63892e+61 -5.12173e+61)
(-2.27481e+59 1.24115e+62 -6.06395e+61)
(-1.70824e+59 9.4357e+61 -4.80934e+61)
(-1.59416e+59 9.22016e+61 -4.61742e+61)
(-2.25226e+59 1.34638e+62 -5.39594e+61)
(-1.66309e+59 9.96425e+61 -4.26424e+61)
(-1.64496e+59 1.05212e+62 -4.20532e+61)
(-1.56173e+59 1.02873e+62 -4.06781e+61)
(-2.21079e+59 1.44692e+62 -4.74673e+61)
(-1.63358e+59 1.07825e+62 -3.74688e+61)
(-1.61557e+59 1.13063e+62 -3.67893e+61)
(-1.5348e+59 1.10454e+62 -3.55315e+61)
(-2.16331e+59 1.51564e+62 -4.12687e+61)
(-1.62526e+59 1.16377e+62 -3.26936e+61)
(-1.51668e+59 1.12828e+62 -3.14146e+61)
(-2.14377e+59 1.58538e+62 -3.58214e+61)
(-1.58328e+59 1.18475e+62 -2.84597e+61)
(-1.56603e+59 1.23459e+62 -2.79882e+61)
(-1.48665e+59 1.20023e+62 -2.70827e+61)
(-2.10596e+59 1.64166e+62 -3.10334e+61)
(-1.55597e+59 1.23351e+62 -2.46156e+61)
(-1.53882e+59 1.28004e+62 -2.40829e+61)
(-1.46173e+59 1.24465e+62 -2.32637e+61)
(-2.06219e+59 1.67167e+62 -2.66769e+61)
(-1.54883e+59 1.29088e+62 -2.11947e+61)
(-1.44508e+59 1.24619e+62 -2.04008e+61)
(-2.0449e+59 1.71819e+62 -2.27929e+61)
(-1.50935e+59 1.29157e+62 -1.8276e+61)
(-1.49271e+59 1.33583e+62 -1.7946e+61)
(-1.41777e+59 1.29659e+62 -1.73776e+61)
(-2.0019e+59 1.72834e+62 -1.9733e+61)
(-1.50274e+59 1.33784e+62 -1.57716e+61)
(-1.4019e+59 1.28926e+62 -1.5263e+61)
(-1.98571e+59 1.76514e+62 -1.68863e+61)
(-1.46462e+59 1.33012e+62 -1.3658e+61)
(-1.44875e+59 1.37296e+62 -1.35093e+61)
(-1.37496e+59 1.32865e+62 -1.30988e+61)
(-1.95251e+59 1.78279e+62 -1.50043e+61)
(-1.44025e+59 1.34969e+62 -1.20217e+61)
(-1.42448e+59 1.39041e+62 -1.18016e+61)
(-1.35274e+59 1.3468e+62 -1.13787e+61)
(-1.91379e+59 1.78303e+62 -1.34692e+61)
(-1.43439e+59 1.38414e+62 -1.07479e+61)
(-1.33943e+59 1.33578e+62 -1.03219e+61)
(-1.88437e+59 1.78109e+62 -1.20862e+61)
(-1.43403e+59 1.40771e+62 -9.78833e+60)
(-1.26285e+59 1.27338e+62 -9.25505e+60)
(-1.6108e+59 1.5025e+62 -1.01979e+61)
(-1.64305e+59 1.45549e+62 -1.07483e+61)
(-1.6321e+59 1.42473e+62 -1.12693e+61)
(-1.82253e+59 1.44883e+62 -9.93215e+60)
(-1.62854e+59 1.35586e+62 -9.35334e+60)
(-1.63925e+59 1.3628e+62 -1.03641e+61)
(-1.64777e+59 1.36599e+62 -1.10291e+61)
(-1.64317e+59 1.36713e+62 -1.11233e+61)
(-1.63719e+59 1.36875e+62 -1.11237e+61)
(-1.62943e+59 1.36838e+62 -1.11449e+61)
(-1.62704e+59 1.37367e+62 -1.10855e+61)
(-1.61861e+59 1.36183e+62 -1.16513e+61)
(-1.74268e+59 1.48626e+62 -6.23349e+60)
(-1.61366e+59 1.33687e+62 -8.9028e+60)
(-1.60464e+59 1.33282e+62 -9.03229e+60)
(-1.59653e+59 1.3336e+62 -9.0461e+60)
(-1.59266e+59 1.33324e+62 -9.0583e+60)
(-1.58661e+59 1.33417e+62 -9.02679e+60)
(-1.57911e+59 1.33315e+62 -9.02788e+60)
(-1.57499e+59 1.33727e+62 -8.85545e+60)
(-1.55971e+59 1.32652e+62 -9.16539e+60)
(-1.67237e+59 1.44544e+62 -3.06345e+60)
(-1.55549e+59 1.29836e+62 -6.57429e+60)
(-1.54668e+59 1.29433e+62 -6.73164e+60)
(-1.53986e+59 1.29449e+62 -6.78943e+60)
(-1.53328e+59 1.29485e+62 -6.81324e+60)
(-1.52692e+59 1.29486e+62 -6.80977e+60)
(-1.5218e+59 1.29596e+62 -6.74018e+60)
(-1.51476e+59 1.2948e+62 -6.74834e+60)
(-1.51077e+59 1.29853e+62 -6.57128e+60)
(-1.49644e+59 1.28859e+62 -6.92604e+60)
(-1.59915e+59 1.40161e+62 -3.63168e+59)
(-1.49025e+59 1.25851e+62 -4.39482e+60)
(-1.48187e+59 1.2548e+62 -4.5693e+60)
(-1.47528e+59 1.25517e+62 -4.62288e+60)
(-1.46897e+59 1.25553e+62 -4.64276e+60)
(-1.46268e+59 1.25617e+62 -4.62368e+60)
(-1.45657e+59 1.25564e+62 -4.65295e+60)
(-1.45322e+59 1.25942e+62 -4.47417e+60)
(-1.43971e+59 1.24992e+62 -4.87239e+60)
(-1.53389e+59 1.35814e+62 2.30098e+60)
(-1.4308e+59 1.21829e+62 -2.17055e+60)
(-1.4229e+59 1.21464e+62 -2.36775e+60)
(-1.41724e+59 1.21488e+62 -2.4593e+60)
(-1.41111e+59 1.21522e+62 -2.48559e+60)
(-1.40516e+59 1.2161e+62 -2.46461e+60)
(-1.39848e+59 1.21533e+62 -2.4928e+60)
(-1.39417e+59 1.21899e+62 -2.28486e+60)
(-1.3825e+59 1.21026e+62 -2.7813e+60)
(-1.46821e+59 1.31598e+62 5.02975e+60)
(-1.37243e+59 1.17793e+62 -5.02139e+58)
(-1.36467e+59 1.17405e+62 -2.50344e+59)
(-1.3584e+59 1.17467e+62 -3.2811e+59)
(-1.35271e+59 1.17453e+62 -3.00324e+59)
(-1.34713e+59 1.17533e+62 -2.34878e+59)
(-1.34052e+59 1.17487e+62 -2.4947e+59)
(-1.33649e+59 1.17887e+62 -4.22557e+58)
(-1.32414e+59 1.16996e+62 -4.90945e+59)
(-1.40252e+59 1.27818e+62 7.66551e+60)
(-1.31373e+59 1.13782e+62 2.16028e+60)
(-1.30623e+59 1.13446e+62 1.94433e+60)
(-1.30016e+59 1.13528e+62 1.87004e+60)
(-1.2942e+59 1.13556e+62 1.89531e+60)
(-1.28865e+59 1.13777e+62 1.7673e+60)
(-1.28228e+59 1.13632e+62 2.18253e+60)
(-1.27565e+59 1.13725e+62 2.25558e+60)
(-1.27157e+59 1.14308e+62 2.50039e+60)
(-1.25984e+59 1.13443e+62 2.11742e+60)
(-1.33064e+59 1.25476e+62 9.93132e+60)
(-1.24997e+59 1.10801e+62 4.59241e+60)
(-1.24437e+59 1.10597e+62 4.38977e+60)
(-1.23875e+59 1.10816e+62 4.33039e+60)
(-1.2327e+59 1.10988e+62 4.38307e+60)
(-1.22867e+59 1.11506e+62 4.2624e+60)
(-1.21983e+59 1.11739e+62 4.73954e+60)
(-1.197e+59 1.11727e+62 7.79004e+60)
(-1.17903e+59 1.10838e+62 8.61066e+60)
(-1.27561e+59 1.36086e+62 1.10445e+61)
(-1.16175e+59 1.13461e+62 1.04552e+61)
(-1.17516e+59 1.14564e+62 1.08997e+61)
(-9.20998e+58 1.05211e+62 7.34977e+60)
(-1.11226e+59 1.25328e+62 8.39722e+60)
(-1.2891e+59 1.36267e+62 1.02754e+61)
(-8.47117e+58 9.32298e+61 6.42033e+60)
(-1.16577e+59 1.29865e+62 8.95998e+60)
(-8.36567e+58 9.52448e+61 6.34524e+60)
(-1.03533e+59 1.13213e+62 7.23043e+60)
(-1.19769e+59 1.22765e+62 8.66619e+60)
(-8.06927e+58 8.71739e+61 5.67719e+60)
(-9.90355e+58 1.05326e+62 6.77643e+60)
(-1.14669e+59 1.16088e+62 8.29138e+60)
(-7.51819e+58 7.94125e+61 5.06886e+60)
(-1.03303e+59 1.10941e+62 6.98756e+60)
(-7.38966e+58 8.10653e+61 4.92868e+60)
(-9.14275e+58 9.62934e+61 5.41789e+60)
(-1.0781e+59 1.08687e+62 8.13952e+60)
(-7.09746e+58 7.42151e+61 5.01982e+60)
(-9.8737e+58 1.069e+62 9.34636e+60)
(-7.10521e+58 7.80209e+61 6.48417e+60)
(-8.83229e+58 9.4688e+61 9.68677e+60)
(-1.03179e+59 1.04726e+62 1.75957e+61)
(-6.97606e+58 7.39218e+61 1.10017e+61)
(-8.57868e+58 9.09811e+61 1.73347e+61)
(-1.01122e+59 1.04463e+62 2.48484e+61)
(-6.66766e+58 6.98972e+61 1.70744e+61)
(-9.23382e+58 1.05403e+62 1.96994e+61)
(-6.65889e+58 7.71005e+61 1.54662e+61)
(-8.20535e+58 9.19071e+61 1.27811e+61)
(-8.76673e+58 1.35393e+62 -2.73967e+61)
(-5.94528e+58 9.21361e+61 -1.28238e+61)
(-6.57126e+58 1.53921e+62 -6.7645e+61)
(-4.54943e+58 1.22102e+62 -5.12147e+61)
(-5.05621e+58 1.53424e+62 -8.09943e+61)
(-5.96074e+58 1.82079e+62 -1.10971e+62)
(-3.84719e+58 1.40721e+62 -7.54294e+61)
(-4.95011e+58 1.74941e+62 -9.86654e+61)
(-6.28348e+58 1.98681e+62 -1.25786e+62)
(-3.84416e+58 1.47509e+62 -8.33652e+61)
(-5.80386e+58 2.06073e+62 -1.2322e+62)
(-3.86495e+58 1.61587e+62 -9.00527e+61)
(-5.00454e+58 1.91596e+62 -1.17473e+62)
(-5.45452e+58 1.96567e+62 -1.42024e+62)
(-3.09622e+58 1.46841e+62 -1.01178e+62)
(-3.79483e+58 1.83085e+62 -1.36777e+62)
(-2.11467e+58 1.42598e+62 -1.08362e+62)
(-1.99429e+58 1.64512e+62 -1.36158e+62)
(1.71175e+58 1.59529e+62 -1.60366e+62)
(2.00606e+58 1.03779e+62 -1.29607e+62)
(6.81551e+58 1.29941e+62 -1.69432e+62)
(2.58109e+59 2.89619e+62 -2.53088e+62)
(1.4454e+59 -1.00053e+62 -1.4483e+62)
(1.53758e+59 1.64162e+62 -1.58216e+62)
(-7.41727e+57 -3.65993e+61 -4.41637e+61)
(-2.48847e+58 -3.5844e+59 -2.58754e+61)
(-1.50789e+59 -1.72742e+62 8.38357e+61)
(-1.62718e+59 -1.82528e+62 1.00804e+62)
(-2.44969e+59 -2.84803e+62 1.64357e+62)
(-2.27966e+59 -2.63946e+62 1.61456e+62)
(-3.62277e+59 -4.21181e+62 2.68513e+62)
(-3.9014e+59 -5.25967e+62 3.02814e+62)
(-3.38347e+59 -4.68553e+62 2.69026e+62)
(-5.19015e+59 -7.17499e+62 4.16862e+62)
(-5.08072e+59 -8.02652e+62 4.19138e+62)
(-4.25702e+59 -7.19466e+62 3.63273e+62)
(-6.01459e+59 -1.03509e+63 5.12605e+62)
(-4.66046e+59 -8.24148e+62 4.08958e+62)
(-7.11357e+59 -1.24407e+63 6.2073e+62)
(-6.55553e+59 -1.2746e+63 5.81184e+62)
(-5.41193e+59 -1.12576e+63 4.9729e+62)
(-7.55549e+59 -1.58579e+63 6.88035e+62)
(-5.72376e+59 -1.22573e+63 5.3826e+62)
(-8.65502e+59 -1.82316e+63 8.05772e+62)
(-7.77017e+59 -1.77463e+63 7.33407e+62)
(-6.42106e+59 -1.52341e+63 6.24742e+62)
(-9.45579e+59 -2.18872e+63 9.06445e+62)
(-8.40964e+59 -2.12493e+63 8.24511e+62)
(-6.88601e+59 -1.84301e+63 7.08003e+62)
(-9.5024e+59 -2.5756e+63 9.62698e+62)
(-7.12129e+59 -1.86632e+63 7.47202e+62)
(-1.10217e+60 -2.57565e+63 1.16576e+63)
(-3.1914e+57 1.61408e+59 8.58525e+60)
(-3.18552e+57 -5.909e+59 8.44657e+60)
(-3.14077e+57 -1.22333e+60 8.25156e+60)
(-3.12691e+57 -1.80949e+60 7.98336e+60)
(-3.11259e+57 -1.63908e+60 7.85076e+60)
(-3.07358e+57 -1.10556e+60 8.13729e+60)
(-2.98708e+57 -1.89884e+60 7.84366e+60)
(-2.90457e+57 -2.7399e+60 6.86628e+60)
(-2.90359e+57 -3.6928e+60 5.08203e+60)
(-2.93194e+57 -1.1374e+59 7.01859e+60)
(-2.91031e+57 -5.00078e+60 6.81994e+60)
(-2.83544e+57 -1.39558e+60 6.91878e+60)
(-2.71725e+57 -3.16259e+60 6.36479e+60)
(-2.59235e+57 -5.49776e+60 6.18623e+60)
(-2.48403e+57 -8.91856e+60 4.12564e+60)
(-2.45178e+57 -1.26635e+60 5.92976e+60)
(-2.3288e+57 -2.83729e+60 5.38642e+60)
(-2.12767e+57 -4.60428e+60 2.72682e+60)
(-1.98319e+57 -2.0013e+58 3.38247e+60)
(-1.96149e+57 -2.8235e+60 2.91693e+60)
(-2.51868e+57 -3.36131e+60 3.96657e+60)
(-2.79294e+57 1.2584e+61 2.03674e+60)
(-2.6832e+57 8.71258e+60 3.98706e+60)
(-2.63128e+57 4.64847e+60 4.32606e+60)
(-2.44189e+57 -1.70281e+60 2.32064e+60)
(-2.2411e+57 -4.71426e+60 8.56209e+59)
(-2.58461e+57 -9.08036e+60 1.84013e+60)
(-2.65166e+57 -1.00916e+61 -1.54231e+60)
(-2.65474e+57 2.31167e+60 1.16479e+60)
(-1.96547e+57 -7.17289e+60 -8.34354e+59)
(-2.18745e+57 4.65728e+59 -4.24857e+60)
(-2.41057e+57 5.08088e+60 -3.19201e+60)
(-1.83021e+57 -4.28383e+60 -1.45751e+59)
(-1.24674e+57 -9.34581e+60 -2.36586e+60)
(-1.04589e+57 -2.37082e+60 2.46899e+59)
(-1.94251e+57 1.08751e+61 -3.02197e+59)
(-2.94511e+57 9.23574e+60 1.41784e+60)
(-2.69928e+57 5.91977e+60 2.24629e+60)
(-2.17879e+57 4.35827e+60 4.37859e+60)
(-2.04418e+57 4.1058e+60 4.2695e+60)
(-2.27879e+57 2.50845e+59 1.51166e+60)
(-2.40823e+57 3.38747e+60 1.78033e+60)
(-2.09334e+57 -4.4252e+60 2.71413e+59)
(-1.52948e+57 -3.84519e+60 8.86043e+59)
(-1.00651e+57 -4.40054e+60 1.42321e+59)
(-1.87674e+57 -3.57205e+60 -2.2779e+59)
(-1.70835e+57 -4.28276e+60 7.38062e+59)
(-1.53203e+57 -5.69634e+60 -1.18402e+60)
(-9.3107e+56 -4.90276e+60 1.28843e+59)
(-4.47825e+56 -4.84038e+60 -2.41084e+59)
(-3.81569e+56 -5.01537e+60 -3.75672e+59)
(-2.84109e+56 -4.50058e+60 -5.25313e+58)
(-3.27213e+56 -3.08571e+60 1.62148e+59)
(-1.58405e+56 -1.937e+60 1.7424e+60)
(-9.02271e+55 -2.11004e+60 -5.43891e+59)
(-9.41479e+55 -2.90629e+60 -3.47489e+59)
(-5.78226e+55 -3.30777e+60 -2.32611e+59)
(-2.46338e+55 -3.9844e+60 -2.33301e+59)
(-8.39969e+54 -4.79478e+60 -1.87419e+59)
(-2.11049e+53 -5.60037e+60 -1.50844e+59)
(1.27921e+53 -6.30607e+60 -1.32859e+59)
(1.17869e+52 -6.8862e+60 -1.2115e+59)
(4.31642e+51 -7.45878e+60 -1.27538e+59)
(2.39002e+51 -8.12718e+60 -1.52577e+59)
(7.38119e+50 -9.01511e+60 -1.96653e+59)
(-2.97259e+49 -1.0225e+61 -2.60257e+59)
(-2.21983e+50 -1.18756e+61 -3.43813e+59)
(-2.21498e+50 -1.40743e+61 -4.45426e+59)
(-2.29072e+50 -1.69257e+61 -5.62051e+59)
(-2.85663e+50 -2.05178e+61 -6.59127e+59)
(2.66019e+51 -2.4687e+61 -7.02473e+59)
(-4.76692e+53 -2.91626e+61 -3.61369e+59)
(3.14237e+56 -3.02197e+61 6.30808e+59)
(1.66193e+57 -2.19745e+61 4.79582e+60)
(-3.67264e+57 -3.57393e+61 1.80548e+61)
(-3.02468e+58 -1.3025e+62 5.41718e+61)
(-1.15807e+59 -3.97306e+62 1.65069e+62)
(-3.35297e+59 -9.76572e+62 4.45805e+62)
(-7.5305e+59 -1.93781e+63 9.53115e+62)
(-3.27894e+57 -8.29027e+58 8.70189e+60)
(-3.25054e+57 -1.17298e+60 8.43819e+60)
(-3.18172e+57 -2.32011e+60 8.17151e+60)
(-3.13378e+57 -3.22058e+60 7.77787e+60)
(-3.09038e+57 -4.08293e+60 6.95521e+60)
(-3.04041e+57 -2.90205e+60 7.06457e+60)
(-2.96372e+57 -3.01052e+60 7.1222e+60)
(-2.89573e+57 -3.52789e+60 6.52012e+60)
(-2.89569e+57 -3.98803e+60 5.16938e+60)
(-2.92545e+57 -1.93497e+60 7.68078e+60)
(-2.89942e+57 -5.35059e+60 7.11746e+60)
(-2.81489e+57 -1.47155e+60 7.65805e+60)
(-2.68999e+57 -2.98567e+60 7.321e+60)
(-2.57104e+57 -5.31849e+60 7.112e+60)
(-2.47668e+57 -7.77122e+60 4.80746e+60)
(-2.42356e+57 1.07833e+60 6.48388e+60)
(-2.28093e+57 -5.84671e+59 5.74869e+60)
(-2.10007e+57 -2.1272e+60 2.95976e+60)
(-1.96047e+57 5.01257e+60 3.15176e+60)
(-2.04422e+57 2.98655e+59 3.27617e+60)
(-2.56134e+57 1.14708e+60 1.65594e+60)
(-2.78308e+57 1.2034e+61 2.61573e+60)
(-2.74724e+57 9.16291e+60 4.23787e+60)
(-2.72051e+57 5.45872e+60 4.48774e+60)
(-2.53882e+57 -6.91708e+59 2.12983e+60)
(-2.29717e+57 -6.43279e+60 3.48069e+59)
(-2.62428e+57 -1.25946e+61 2.89392e+60)
(-2.65311e+57 -1.00675e+61 -1.32859e+60)
(-2.68017e+57 5.70106e+59 1.83212e+60)
(-1.97388e+57 -6.9173e+60 -7.62481e+59)
(-2.2494e+57 5.66305e+59 -4.36309e+60)
(-2.4523e+57 4.96472e+60 -3.34127e+60)
(-1.86285e+57 -3.78792e+60 8.18661e+59)
(-1.25149e+57 -8.68173e+60 -1.87026e+60)
(-1.05047e+57 9.06555e+57 -4.09466e+59)
(-2.04639e+57 9.12466e+60 -1.87896e+59)
(-3.07068e+57 7.85286e+60 1.83706e+60)
(-2.70588e+57 4.98485e+60 2.58958e+60)
(-2.18496e+57 3.42911e+60 4.47102e+60)
(-2.12837e+57 4.69334e+60 4.93034e+60)
(-2.35545e+57 -6.888e+59 1.06555e+60)
(-2.49418e+57 2.135e+60 1.28556e+60)
(-2.22547e+57 -3.39754e+60 -2.47943e+58)
(-1.55944e+57 -7.45449e+60 -1.82565e+60)
(-9.48798e+56 -6.74903e+60 -4.11195e+59)
(-1.7888e+57 -3.92781e+60 -3.51045e+59)
(-1.65444e+57 -6.488e+60 -1.13045e+60)
(-1.53569e+57 -6.94937e+60 3.44079e+60)
(-9.28132e+56 -5.38565e+60 1.99388e+60)
(-4.32683e+56 -4.98779e+60 7.75096e+59)
(-3.78398e+56 -4.94015e+60 2.66702e+59)
(-2.85894e+56 -4.16589e+60 2.71371e+59)
(-3.19571e+56 -2.22277e+60 -4.66807e+59)
(-1.3817e+56 -1.96979e+59 2.18396e+60)
(-8.46047e+55 -7.17548e+59 2.22323e+59)
(-9.43938e+55 -2.13993e+60 -8.77771e+59)
(-5.85364e+55 -2.8396e+60 -9.37734e+59)
(-2.54688e+55 -3.82234e+60 -7.34207e+59)
(-8.66659e+54 -4.82715e+60 -4.84477e+59)
(-2.82907e+53 -5.71996e+60 -3.00347e+59)
(1.46338e+53 -6.45496e+60 -2.00003e+59)
(1.33498e+52 -7.04318e+60 -1.58394e+59)
(4.21468e+51 -7.62353e+60 -1.67784e+59)
(2.39221e+51 -8.31141e+60 -2.12788e+59)
(7.45569e+50 -9.23564e+60 -2.84452e+59)
(-2.70585e+49 -1.05002e+61 -3.80493e+59)
(-2.21878e+50 -1.22251e+61 -5.0225e+59)
(-2.21812e+50 -1.45204e+61 -6.49092e+59)
(-2.28885e+50 -1.74953e+61 -8.18666e+59)
(-2.92144e+50 -2.12467e+61 -9.65663e+59)
(3.37471e+51 -2.56266e+61 -1.04503e+60)
(-5.32142e+53 -3.03971e+61 -6.24096e+59)
(3.50487e+56 -3.18473e+61 6.34525e+59)
(1.81623e+57 -2.42816e+61 5.17869e+60)
(-3.96536e+57 -4.11973e+61 1.70744e+61)
(-3.26591e+58 -1.47364e+62 5.1274e+61)
(-1.26687e+59 -4.46254e+62 1.69682e+62)
(-3.69192e+59 -1.07985e+63 4.7349e+62)
(-7.92591e+59 -2.06208e+63 9.37502e+62)
(-3.33275e+57 -7.70748e+58 8.5842e+60)
(-3.30465e+57 -1.10866e+60 8.30711e+60)
(-3.22228e+57 -2.34214e+60 8.00078e+60)
(-3.16443e+57 -3.31195e+60 7.64941e+60)
(-3.11244e+57 -3.74823e+60 6.91831e+60)
(-3.05722e+57 -2.81842e+60 6.94835e+60)
(-2.98533e+57 -3.0998e+60 6.9648e+60)
(-2.9199e+57 -3.89703e+60 6.41894e+60)
(-2.90354e+57 -4.39528e+60 5.32838e+60)
(-2.91877e+57 -3.09741e+60 7.36554e+60)
(-2.87988e+57 -5.81916e+60 6.91634e+60)
(-2.78778e+57 -2.45063e+60 7.00775e+60)
(-2.6651e+57 -3.9487e+60 7.24113e+60)
(-2.55597e+57 -6.35944e+60 7.03942e+60)
(-2.47226e+57 -8.04375e+60 5.02849e+60)
(-2.38933e+57 -1.09365e+60 6.31706e+60)
(-2.22952e+57 -2.09057e+60 5.64995e+60)
(-2.06831e+57 -2.84413e+60 3.37164e+60)
(-1.96925e+57 2.04137e+60 3.58234e+60)
(-2.13673e+57 -1.24525e+60 3.79872e+60)
(-2.60759e+57 1.18702e+60 2.21011e+60)
(-2.83343e+57 1.14727e+61 3.69753e+60)
(-2.82278e+57 9.64848e+60 4.56967e+60)
(-2.7971e+57 6.00003e+60 4.84024e+60)
(-2.6267e+57 1.57158e+59 2.90046e+60)
(-2.35972e+57 -7.13074e+60 4.52178e+59)
(-2.65136e+57 -9.7373e+60 3.01292e+60)
(-2.64626e+57 -9.59304e+60 -8.95578e+59)
(-2.74892e+57 2.25874e+60 1.85846e+60)
(-1.98988e+57 -6.70657e+60 -8.59009e+59)
(-2.2907e+57 3.55799e+59 -4.15312e+60)
(-2.47618e+57 4.25999e+60 -3.18249e+60)
(-1.89142e+57 -3.85262e+60 8.51219e+59)
(-1.26107e+57 -8.85341e+60 -1.61206e+60)
(-1.05523e+57 -6.48365e+59 -6.5216e+57)
(-2.14894e+57 9.50738e+60 2.36598e+59)
(-3.11278e+57 7.80099e+60 2.07345e+60)
(-2.6938e+57 4.86106e+60 2.77423e+60)
(-2.24896e+57 2.88116e+60 3.8323e+60)
(-2.20651e+57 3.40966e+60 5.12595e+60)
(-2.46149e+57 -8.23056e+59 1.59558e+60)
(-2.57606e+57 2.31733e+60 1.29472e+60)
(-2.29504e+57 -2.51586e+60 5.54323e+59)
(-1.59464e+57 -6.75764e+60 -2.53223e+60)
(-1.05029e+57 -5.81082e+60 -1.44568e+60)
(-1.72667e+57 -2.98632e+60 -4.63448e+59)
(-1.69539e+57 -1.13487e+61 -4.49607e+60)
(-1.55446e+57 -7.04793e+60 2.14562e+60)
(-9.57082e+56 -5.28662e+60 1.64686e+60)
(-4.35834e+56 -5.19253e+60 9.18241e+59)
(-3.73328e+56 -5.24766e+60 4.10441e+59)
(-2.8508e+56 -4.62899e+60 3.6254e+59)
(-3.12481e+56 -2.56053e+60 -7.34896e+58)
(-1.48928e+56 -2.06328e+60 2.2585e+60)
(-7.68653e+55 -1.31823e+60 5.33878e+59)
(-9.28329e+55 -2.59981e+60 -7.93427e+59)
(-5.81281e+55 -3.15692e+60 -1.00356e+60)
(-2.58852e+55 -3.99119e+60 -8.33699e+59)
(-8.86826e+54 -4.90489e+60 -5.76605e+59)
(-3.4749e+53 -5.75098e+60 -3.66777e+59)
(1.61569e+53 -6.46519e+60 -2.43336e+59)
(1.49155e+52 -7.04399e+60 -1.89789e+59)
(4.12154e+51 -7.61726e+60 -1.99302e+59)
(2.39462e+51 -8.29782e+60 -2.55362e+59)
(7.55301e+50 -9.21271e+60 -3.47016e+59)
(-2.32969e+49 -1.0466e+61 -4.70393e+59)
(-2.21694e+50 -1.21778e+61 -6.26168e+59)
(-2.2227e+50 -1.44596e+61 -8.13371e+59)
(-2.28585e+50 -1.74227e+61 -1.02987e+60)
(-3.0503e+50 -2.11722e+61 -1.22301e+60)
(4.75444e+51 -2.55818e+61 -1.34353e+60)
(-7.2034e+53 -3.0474e+61 -8.98378e+59)
(3.95321e+56 -3.22123e+61 5.08936e+59)
(2.0052e+57 -2.52418e+61 5.2049e+60)
(-4.20647e+57 -4.5522e+61 1.49713e+61)
(-3.57059e+58 -1.63153e+62 4.8332e+61)
(-1.42663e+59 -4.94355e+62 1.82443e+62)
(-4.12242e+59 -1.1752e+63 5.14852e+62)
(-8.18324e+59 -2.09561e+63 9.15237e+62)
(-3.3995e+57 -1.329e+59 8.5947e+60)
(-3.36583e+57 -1.19926e+60 8.2563e+60)
(-3.2696e+57 -2.45961e+60 7.85462e+60)
(-3.19839e+57 -3.42386e+60 7.46682e+60)
(-3.13485e+57 -3.94065e+60 6.7826e+60)
(-3.07359e+57 -3.20446e+60 6.79039e+60)
(-3.00412e+57 -3.4263e+60 6.82481e+60)
(-2.94465e+57 -4.16109e+60 6.41612e+60)
(-2.9211e+57 -4.55468e+60 5.65117e+60)
(-2.91764e+57 -3.59673e+60 7.24185e+60)
(-2.86911e+57 -5.45924e+60 6.8416e+60)
(-2.77179e+57 -2.73924e+60 6.77101e+60)
(-2.6492e+57 -4.21909e+60 7.19171e+60)
(-2.54516e+57 -6.56907e+60 6.90139e+60)
(-2.46753e+57 -7.70012e+60 5.20334e+60)
(-2.35704e+57 -1.35283e+60 6.10155e+60)
(-2.18144e+57 -1.99266e+60 5.45857e+60)
(-2.04213e+57 -2.37595e+60 3.72469e+60)
(-2.01084e+57 1.90277e+60 4.03434e+60)
(-2.23595e+57 -1.21004e+60 4.25498e+60)
(-2.66632e+57 2.43304e+60 2.73878e+60)
(-2.9009e+57 1.17168e+61 4.31836e+60)
(-2.90276e+57 9.56486e+60 5.01508e+60)
(-2.87173e+57 6.10884e+60 5.23908e+60)
(-2.71207e+57 1.31583e+60 3.67185e+60)
(-2.41788e+57 -7.70734e+60 6.34369e+59)
(-2.65649e+57 -9.1736e+60 2.90926e+60)
(-2.63769e+57 -9.13607e+60 -2.58178e+59)
(-2.80072e+57 3.31772e+60 1.97883e+60)
(-2.00579e+57 -6.57436e+60 -9.1425e+59)
(-2.32594e+57 2.01521e+59 -3.96315e+60)
(-2.49259e+57 3.73226e+60 -2.98794e+60)
(-1.90203e+57 -3.78489e+60 1.05795e+60)