/*--------------------------------*- C++ -*----------------------------------*\
| =========                 |                                                 |
| \\      /  F ield         | OpenFOAM: The Open Source CFD Toolbox           |
|  \\    /   O peration     | Version:  4.1                                   |
|   \\  /    A nd           | Web:      www.OpenFOAM.org                      |
|    \\/     M anipulation  |                                                 |
\*---------------------------------------------------------------------------*/
FoamFile
{
    version     2.0;
    format      ascii;
    class       volVectorField;
    location    "17";
    object      U;
}
// * * * * * * * * * * * * * * * * * * * * * * * * * * * * * * * * * * * * * //

dimensions      [0 1 -1 0 0 0 0];

internalField   nonuniform List<vector> 
6785
(
(1.63726e-14 0.684593 15.7418)
(9.44325e-15 -5.1303 12.0537)
(-1.96444e-15 -4.2925 12.1841)
(5.05193e-15 -3.72376 12.0221)
(1.2071e-15 -3.11931 11.901)
(-2.26087e-15 -2.66647 11.7153)
(1.75311e-15 -2.31762 11.4881)
(8.7225e-16 -2.07345 11.2168)
(6.59708e-16 -1.90795 10.9139)
(2.98779e-15 -1.81721 10.5843)
(1.79594e-16 -1.92244 10.165)
(-9.1566e-16 -2.37181 9.56011)
(1.81193e-15 -2.68975 8.96981)
(-1.51793e-16 -1.33554 8.92614)
(-2.00498e-15 1.73302 7.64142)
(1.19771e-14 -5.6379 22.1818)
(1.71473e-14 -14.7671 21.3398)
(2.84066e-16 -13.2426 20.4984)
(6.29641e-15 -11.8214 19.6219)
(3.00341e-15 -11.2269 18.5971)
(-1.57561e-15 -10.7092 17.6048)
(3.80621e-15 -10.1209 16.6522)
(1.63639e-15 -9.54482 15.6955)
(-6.20938e-16 -8.97907 14.7276)
(5.61043e-15 -8.37632 13.7517)
(2.13079e-15 -7.75126 12.7738)
(-4.33539e-16 -7.27677 11.7831)
(1.5872e-15 -7.01215 10.6939)
(-2.1239e-16 -5.78424 8.97413)
(-2.14911e-15 -1.73324 4.85328)
(1.85385e-14 -7.89601 22.187)
(1.9374e-14 -16.7498 24.7015)
(1.90991e-15 -13.8114 23.9905)
(2.87757e-15 -12.4976 22.6551)
(2.87949e-15 -11.833 21.2611)
(-1.05829e-15 -10.989 20.0205)
(-2.96971e-15 -10.1074 18.79)
(-3.99387e-15 -9.26101 17.5387)
(-3.93597e-16 -8.43686 16.2752)
(-4.28963e-15 -7.62017 15.0226)
(2.80007e-16 -6.79703 13.8034)
(-3.05365e-15 -5.96854 12.4324)
(-2.47432e-15 -4.99111 10.3265)
(-3.87482e-15 -3.27541 6.89046)
(-2.04662e-15 -0.662515 2.39924)
(1.94972e-14 -8.14299 17.9867)
(1.89649e-14 -16.3386 24.4548)
(4.4588e-15 -13.4361 23.9537)
(4.45256e-15 -12.5306 22.1184)
(5.78994e-15 -11.7971 20.6138)
(-3.16034e-15 -10.8464 19.2819)
(2.00477e-15 -9.96759 17.9217)
(-5.36585e-16 -9.13809 16.5569)
(7.46771e-15 -8.34533 15.2037)
(7.77709e-16 -7.59639 13.8755)
(-1.6882e-15 -6.83599 12.5323)
(2.04755e-15 -5.8746 10.8633)
(-2.16085e-15 -4.38623 8.19724)
(-2.40735e-15 -2.24435 3.97527)
(2.16266e-14 0.0130435 -1.35209)
(1.49171e-14 -7.32257 13.9166)
(1.57387e-14 -15.3602 23.7135)
(3.03768e-15 -13.9046 24.0463)
(2.63464e-15 -13.0906 21.9521)
(-3.11728e-15 -12.2991 20.3344)
(-3.26993e-16 -11.3795 18.961)
(-2.47055e-16 -10.5629 17.5515)
(-1.38769e-14 -9.76993 16.1487)
(-2.67196e-15 -8.98444 14.7757)
(-2.2074e-15 -8.22679 13.437)
(-7.65968e-15 -7.46127 12.0835)
(-2.80186e-15 -6.51703 10.4495)
(-5.60328e-15 -5.04639 8.04521)
(-2.3883e-14 -3.17233 4.56962)
(-2.67121e-14 -1.17724 1.48038)
(1.00853e-14 -6.12209 10.8672)
(1.66958e-14 -14.1689 22.6776)
(3.46148e-15 -14.3399 24.3339)
(2.10964e-15 -13.5263 22.4678)
(-2.18883e-15 -12.5722 20.748)
(2.78221e-16 -11.6375 19.3223)
(-3.13547e-16 -10.8165 17.8997)
(-8.88796e-16 -9.99757 16.4882)
(6.80323e-16 -9.17152 15.1054)
(-2.58809e-15 -8.36555 13.7555)
(-7.29142e-15 -7.55841 12.4004)
(-9.8822e-16 -6.63345 10.8186)
(-2.50821e-14 -5.2392 8.63733)
(-1.09389e-14 -3.66722 5.60037)
(6.5546e-15 -1.44553 3.03231)
(2.24201e-14 -5.11779 8.83473)
(1.86553e-14 -13.0043 21.5821)
(1.30685e-14 -14.2994 24.2372)
(3.7189e-15 -13.5813 22.8797)
(-6.82626e-16 -12.5397 21.1359)
(9.16045e-15 -11.6021 19.6448)
(4.89507e-16 -10.772 18.2082)
(1.45425e-15 -9.93335 16.7928)
(6.38843e-16 -9.09409 15.4002)
(-1.56296e-15 -8.28069 14.0377)
(-2.18202e-15 -7.46991 12.6751)
(-3.19921e-15 -6.5775 11.0958)
(-4.45819e-15 -5.18776 8.988)
(-1.06559e-14 -3.9308 6.09241)
(6.4636e-15 -1.52293 3.98012)
(1.36181e-14 -4.6435 8.03836)
(1.81346e-14 -12.2079 20.8463)
(1.39418e-14 -14.0428 23.809)
(4.65908e-15 -13.465 23.022)
(1.64702e-16 -12.4672 21.3213)
(3.65144e-15 -11.5575 19.783)
(7.99197e-16 -10.7284 18.3367)
(1.28774e-15 -9.88963 16.9188)
(5.7276e-15 -9.05929 15.5193)
(-1.00451e-15 -8.25615 14.1497)
(9.59966e-16 -7.44944 12.7803)
(5.34968e-15 -6.57437 11.17)
(-2.85528e-15 -5.10141 9.06244)
(-1.01259e-14 -4.06881 6.15382)
(3.93663e-15 -1.53753 4.3505)
(1.05211e-14 -4.52464 7.88469)
(1.72566e-14 -11.7346 20.3675)
(1.13219e-14 -13.8031 23.2607)
(5.04741e-15 -13.3755 23.0313)
(6.72293e-16 -12.4907 21.4165)
(5.12855e-15 -11.5976 19.8586)
(1.07308e-15 -10.7603 18.4105)
(1.29353e-15 -9.92281 16.9922)
(-7.89748e-15 -9.0987 15.5899)
(-1.5877e-15 -8.2997 14.2181)
(-4.99151e-17 -7.48675 12.8442)
(2.69463e-16 -6.61886 11.1862)
(-2.51362e-15 -5.03176 9.067)
(-1.00473e-14 -4.21304 6.19929)
(-5.68169e-15 -1.60897 4.64314)
(2.59694e-16 -4.45733 7.66476)
(1.60876e-14 -11.3795 19.9088)
(9.32452e-15 -13.622 22.7565)
(-2.00637e-15 -13.3444 23.0086)
(-3.40576e-16 -12.5848 21.5125)
(-5.08633e-15 -11.6856 19.9525)
(-7.71916e-15 -10.8312 18.5022)
(-3.90531e-17 -9.99175 17.0829)
(-1.36257e-15 -9.16707 15.6797)
(-7.03424e-15 -8.36623 14.307)
(-6.52108e-17 -7.53915 12.9292)
(-6.16493e-15 -6.67553 11.2158)
(-6.93e-15 -4.98207 9.08733)
(-7.30382e-15 -4.37401 6.32558)
(-1.42399e-14 -1.73424 4.98144)
(4.33208e-15 -4.28761 7.17097)
(1.39136e-14 -11 19.3616)
(3.8734e-15 -13.4558 22.3478)
(3.16956e-15 -13.3374 23.0064)
(2.96467e-15 -12.7013 21.6581)
(-1.39937e-14 -11.7916 20.1027)
(-1.0349e-14 -10.919 18.6393)
(4.36547e-16 -10.0755 17.2118)
(-6.33007e-15 -9.24563 15.8038)
(-3.70843e-15 -8.4408 14.424)
(5.81781e-15 -7.59311 13.0388)
(-1.39834e-14 -6.73384 11.2678)
(-1.18041e-14 -4.95276 9.12854)
(-2.94926e-14 -4.52859 6.47506)
(-2.8469e-14 -1.86006 5.31697)
(-3.07491e-15 -4.06559 6.60352)
(2.05986e-14 -10.5903 18.8225)
(1.51617e-15 -13.2361 22.0069)
(4.5774e-15 -13.2422 22.9857)
(5.91285e-15 -12.7109 21.7718)
(-1.43963e-14 -11.7937 20.243)
(-3.74942e-15 -10.9173 18.7768)
(7.25064e-15 -10.0762 17.3455)
(-1.34813e-14 -9.24681 15.9372)
(-8.98742e-15 -8.44607 14.5518)
(-4.76155e-15 -7.58452 13.1498)
(-1.94814e-14 -6.71875 11.3035)
(-1.15196e-14 -4.87355 9.1603)
(-2.7507e-14 -4.67457 6.6557)
(-2.77032e-14 -1.978 5.62162)
(-1.67187e-14 -4.05241 6.5101)
(1.21786e-14 -10.3678 18.6166)
(3.50256e-15 -13.1544 21.8774)
(6.05298e-15 -13.2744 23.1507)
(5.67012e-15 -12.8542 22.0137)
(-9.82106e-15 -11.9075 20.4543)
(-5.3764e-15 -10.9974 18.9204)
(1.71473e-14 -10.1252 17.441)
(-1.01625e-14 -9.2605 15.9861)
(-8.5688e-15 -8.43619 14.5512)
(7.35062e-16 -7.51827 13.109)
(-2.58809e-14 -6.65641 11.1411)
(-1.16278e-14 -4.64651 8.92644)
(-2.43586e-14 -4.61108 6.42286)
(-2.90468e-14 -1.92874 5.60297)
(-7.51855e-15 -3.85867 6.24314)
(9.80464e-15 -9.7082 18.0278)
(2.49933e-16 -12.2975 21.4693)
(4.50407e-16 -12.3993 22.8071)
(1.42292e-15 -12.0447 21.8784)
(-8.94889e-15 -11.1939 20.5528)
(-1.44018e-15 -10.3919 19.1813)
(3.72221e-15 -9.60132 17.7705)
(-1.18244e-14 -8.80881 16.38)
(-3.32561e-15 -8.03847 14.9704)
(-6.29292e-15 -7.19798 13.4385)
(-2.36385e-14 -6.22957 11.3718)
(-1.01993e-14 -4.66621 9.20273)
(-3.00218e-14 -4.75938 7.20049)
(-2.60419e-14 -1.94714 5.84454)
(-1.3744e-14 -7.1732 14.0456)
(8.3969e-15 -12.7927 22.9131)
(2.00039e-15 -14.8298 24.6269)
(5.93047e-17 -14.5426 25.1961)
(-1.86665e-15 -13.6004 23.0223)
(-7.15722e-15 -11.9336 20.766)
(2.86189e-16 -10.5185 18.5122)
(-1.08684e-15 -9.17746 16.6596)
(-9.30454e-15 -7.96874 14.7718)
(-6.04495e-15 -6.81887 12.9224)
(-1.675e-14 -5.45513 10.5872)
(-2.05523e-14 -3.88472 7.82873)
(-2.06756e-14 -2.32985 5.26819)
(-3.19866e-14 -1.83985 2.92327)
(-1.00161e-14 -0.296136 1.14181)
(-2.74013e-15 0.119034 -1.40853)
(-4.25208e-15 0.277581 -1.84397)
(-3.05577e-15 0.404814 -1.1774)
(-2.8922e-15 0.570167 -1.156)
(-2.71268e-15 0.640428 -1.07648)
(-4.02927e-15 1.00904 -1.61773)
(-2.92602e-15 0.948007 -1.04291)
(-2.6832e-15 1.12513 -1.02905)
(-2.70443e-15 1.16183 -0.970193)
(-4.9115e-15 1.64029 -1.47095)
(-3.88763e-16 1.44795 -0.954015)
(3.28896e-16 1.57924 -0.874081)
(-1.69585e-16 2.25851 -1.31749)
(-1.56468e-16 1.83852 -0.834431)
(-6.89393e-17 2.04049 -0.823018)
(5.32831e-17 2.02083 -0.786342)
(-7.67128e-16 2.71506 -1.15306)
(-4.1638e-17 2.23295 -0.728764)
(8.0895e-17 2.33427 -0.675905)
(-5.08726e-16 3.26381 -0.961217)
(-2.383e-16 2.52719 -0.58415)
(-2.89557e-16 2.75655 -0.576095)
(1.18341e-16 2.69385 -0.558495)
(-3.59783e-16 3.57446 -0.763371)
(-1.35525e-16 2.76197 -0.450254)
(-5.18182e-17 3.03101 -0.437481)
(-3.30744e-16 2.96264 -0.427264)
(-8.40125e-16 3.82259 -0.550185)
(-8.53795e-16 3.01197 -0.301341)
(-7.99604e-16 3.0707 -0.285479)
(-1.34462e-15 4.17312 -0.30162)
(-1.20541e-15 3.1181 -0.130756)
(-1.14074e-15 3.34546 -0.124247)
(-1.3445e-15 3.25458 -0.137215)
(-2.16194e-15 4.12153 -0.0689362)
(-1.51101e-15 3.17977 0.0267715)
(-1.38908e-15 3.21743 0.00854839)
(-2.16168e-15 4.30432 0.193253)
(-1.45595e-15 3.15649 0.199781)
(-1.49856e-15 3.35723 0.198785)
(-1.1369e-15 3.25063 0.161783)
(-1.73924e-15 4.08498 0.436161)
(-1.13492e-15 3.00753 0.351332)
(-1.10481e-15 3.22447 0.351461)
(-1.05092e-15 3.12224 0.30523)
(-1.48055e-15 3.82874 0.658779)
(-1.325e-15 2.85598 0.507947)
(-1.24043e-15 2.87941 0.444419)
(-1.92733e-15 3.688 0.904417)
(-8.77167e-16 2.60272 0.651212)
(-8.02907e-16 2.74391 0.639004)
(-7.48928e-16 2.64817 0.568718)
(-1.06349e-15 3.16873 1.08587)
(-5.99155e-16 2.22506 0.751489)
(-6.28801e-16 2.36756 0.73751)
(-1.92822e-16 2.28259 0.66163)
(-1.75204e-16 2.63874 1.21888)
(2.16406e-16 1.83138 0.836724)
(-2.56907e-16 1.86289 0.73979)
(-2.63749e-16 2.2002 1.3541)
(-5.58228e-17 1.39794 0.888921)
(-2.7466e-18 1.46726 0.858687)
(-9.53501e-16 1.41335 0.772733)
(-2.65334e-15 1.48304 1.37906)
(5.70441e-15 0.866751 0.88171)
(5.0848e-15 0.924343 0.774785)
(6.02356e-15 0.91554 1.3741)
(1.8176e-15 0.373827 0.812827)
(1.44543e-15 0.407998 0.773345)
(1.01751e-15 0.413868 0.711843)
(-2.38113e-15 0.198448 1.5112)
(-6.39341e-15 -0.178156 1.32713)
(-8.2472e-15 -0.177327 1.63459)
(-9.25651e-15 -0.21691 1.8672)
(-1.12759e-14 -0.790511 3.18377)
(-5.59438e-15 -0.967033 2.58149)
(-6.07387e-15 -0.984124 2.78237)
(-9.79015e-15 -1.74876 4.24549)
(-8.0205e-15 -1.94387 3.38167)
(-8.64895e-15 -2.0313 3.64541)
(-1.0895e-14 -2.20059 4.29084)
(-1.07232e-14 -2.28811 4.50631)
(-1.08247e-14 -2.63719 4.77448)
(-1.97818e-14 -2.8837 6.86328)
(-1.53767e-14 -2.90002 6.40372)
(-1.74694e-14 -3.20999 6.86132)
(-1.78513e-14 -3.21141 7.08277)
(-1.7378e-14 -3.2861 7.29675)
(-1.70286e-14 -3.33817 7.53308)
(-1.65516e-14 -3.35894 7.80109)
(-1.5503e-14 -3.46846 8.1987)
(-1.41813e-14 -3.75889 8.67308)
(-1.21053e-14 -3.90009 10.6623)
(-1.34434e-14 -4.13905 10.231)
(-1.30413e-14 -4.34553 10.5602)
(-1.28366e-14 -4.31762 10.8123)
(-1.26387e-14 -4.49216 11.3786)
(-1.24762e-14 -4.45332 11.5122)
(-1.22816e-14 -4.48182 11.7748)
(-1.20853e-14 -4.5548 12.0436)
(-1.1907e-14 -4.80114 12.3655)
(-4.03976e-15 -4.88205 14.8374)
(-6.72953e-15 -5.26508 14.4022)
(-6.46721e-15 -5.39324 14.6835)
(-6.11454e-15 -5.42529 14.8734)
(-5.58162e-15 -5.46459 15.126)
(-4.53517e-15 -5.52259 15.4972)
(-3.44102e-15 -5.60554 15.9032)
(-3.63386e-15 -5.55858 16.0622)
(-3.48377e-15 -5.62586 16.314)
(-3.40279e-15 -5.84997 16.5876)
(-3.46059e-15 -5.62558 18.6786)
(-4.92437e-15 -6.33514 18.2715)
(-4.72509e-15 -6.38113 18.5204)
(-4.64679e-15 -6.43353 18.691)
(-4.51995e-15 -6.49769 18.9094)
(-4.30895e-15 -6.51725 19.1632)
(-3.50579e-15 -6.55757 19.581)
(-3.24587e-15 -6.56592 19.8267)
(-3.23375e-15 -6.76582 20.0248)
(-6.25379e-15 -6.35747 21.5412)
(-3.64483e-15 -7.17457 20.909)
(-3.45592e-15 -7.15314 21.2833)
(-3.28301e-15 -7.22948 21.558)
(-3.44404e-15 -7.22314 21.6626)
(-3.5562e-15 -7.29349 21.8328)
(-3.70631e-15 -7.29256 22.0104)
(-3.95779e-15 -7.26488 22.247)
(-4.93203e-15 -7.49618 22.7262)
(-4.16272e-15 -6.35763 22.9163)
(-2.85713e-15 -7.59792 22.3968)
(-2.50248e-15 -7.46231 22.4973)
(-2.19893e-15 -7.45889 22.5693)
(-1.46968e-15 -7.51121 22.821)
(-1.23048e-15 -7.50096 22.8316)
(-1.11645e-15 -7.48076 22.7521)
(-9.43767e-16 -7.47108 22.6667)
(-7.4188e-16 -7.44287 22.525)
(3.42672e-16 -5.58152 20.9478)
(2.78031e-16 -7.01187 20.9095)
(3.7266e-16 -6.66706 20.5754)
(4.28337e-16 -6.68873 20.3009)
(4.90456e-16 -6.59654 19.945)
(5.42029e-16 -6.52094 19.5278)
(7.24454e-16 -6.47275 18.9852)
(5.85991e-16 -6.4242 18.5251)
(5.51859e-16 -6.31649 17.9217)
(4.72355e-16 -5.97854 17.1999)
(-2.54823e-16 -2.99548 11.9623)
(7.28561e-16 -4.7381 13.3765)
(5.59409e-16 -4.06758 12.2044)
(-5.42383e-17 -4.10958 11.4231)
(-6.6129e-16 -3.85448 10.3552)
(-1.53274e-15 -3.80321 9.0664)
(-3.31588e-15 -3.69648 7.17869)
(-4.89586e-15 -3.25359 5.32252)
(-4.08807e-15 -2.7754 4.71813)
(-2.3528e-15 -1.51802 0.544034)
(-4.11352e-15 -2.38967 3.51978)
(-3.2509e-15 -1.45431 1.55316)
(-4.29431e-16 -0.360421 -3.13903)
(-2.80627e-15 -1.93665 -1.44413)
(-1.2071e-15 -1.05723 -1.52164)
(-1.42972e-15 -0.968689 -0.903388)
(-4.32042e-15 -1.17202 -1.24007)
(-1.73864e-15 -0.70817 -0.612795)
(-3.78098e-16 -1.06769 -0.89262)
(-1.07979e-15 -0.881315 -0.312952)
(-3.61782e-16 -0.78909 -0.0773534)
(-8.57082e-16 -1.14031 -0.0704517)
(-6.37325e-16 -1.19784 0.245709)
(-4.79515e-16 -1.08574 0.282026)
(-6.56715e-16 -1.56747 0.445646)
(-4.05688e-16 -1.2257 0.410007)
(1.18315e-15 -1.85373 0.685092)
(-1.28742e-16 -2.01937 0.688165)
(3.59362e-17 -1.77334 0.560161)
(-1.04874e-15 -2.54971 0.840761)
(-1.48389e-16 -1.925 0.600677)
(-7.54993e-17 -2.9169 0.988761)
(-4.70609e-17 -2.96763 0.814802)
(-2.9197e-17 -2.42154 0.619261)
(-1.37455e-17 -3.54844 0.981866)
(1.4563e-16 -3.57011 0.756565)
(1.62186e-16 -3.07736 0.578892)
(1.65677e-16 -4.31627 0.839555)
(1.48517e-16 -3.04812 0.531464)
(1.09966e-15 -4.54093 0.859972)
(4.02982e-16 -4.35163 0.595747)
(2.88296e-16 -3.75524 0.455798)
(4.31691e-16 -5.17898 0.644224)
(2.96536e-16 -3.62324 0.399717)
(4.3448e-16 -5.3949 0.625992)
(4.20022e-16 -4.96668 0.392691)
(4.23437e-16 -3.92104 0.287859)
(5.86949e-16 -5.519 0.407405)
(4.77045e-16 -5.16125 0.220173)
(4.11009e-16 -4.47231 0.185634)
(5.9848e-16 -6.06257 0.234593)
(4.21573e-16 -4.06909 0.135872)
(6.50055e-16 -5.90396 0.180005)
(5.54088e-16 -5.34224 0.0339101)
(3.98517e-16 -4.62452 0.0418576)
(6.4374e-16 -6.233 0.0235268)
(4.88327e-16 -4.21422 0.00496188)
(7.38327e-16 -6.20267 -0.0390124)
(6.05283e-16 -5.50211 -0.130421)
(4.89134e-16 -4.26503 -0.106562)
(7.36671e-16 -5.87393 -0.226882)
(6.58957e-16 -5.33468 -0.286316)
(5.15454e-16 -4.62332 -0.207419)
(7.60246e-16 -6.18939 -0.331265)
(3.44433e-16 -4.04167 -0.249573)
(1.13935e-15 -5.79807 -0.437961)
(9.37733e-16 -5.11888 -0.479992)
(6.82099e-16 -4.40551 -0.382681)
(8.96274e-16 -5.87311 -0.577857)
(5.33435e-16 -3.86704 -0.436834)
(8.78683e-16 -5.63938 -0.734143)
(7.48131e-16 -4.90236 -0.748736)
(3.86097e-16 -3.72126 -0.639347)
(4.80107e-16 -5.0602 -1.04466)
(8.26044e-16 -4.48208 -1.04178)
(5.98494e-16 -3.76954 -0.863339)
(1.08086e-15 -4.96181 -1.27132)
(5.71236e-16 -3.09673 -0.978993)
(8.91073e-16 -4.39606 -1.58197)
(6.93146e-16 -3.68942 -1.53511)
(5.32049e-16 -2.9819 -1.29879)
(7.08086e-16 -3.90058 -1.87117)
(3.7498e-16 -2.27167 -1.43945)
(7.31293e-16 -3.36618 -2.26955)
(1.26929e-15 -2.59011 -2.13874)
(7.13263e-16 -1.51978 -1.83353)
(6.75718e-16 -2.20101 -2.79923)
(3.53584e-16 -1.37479 -2.55733)
(5.40664e-16 -0.668085 -2.10389)
(5.97204e-16 -1.6605 -2.9196)
(2.50515e-16 0.620674 -2.12668)
(4.29082e-16 -1.28291 -3.42325)
(-5.43995e-15 -0.000588062 4.18815)
(-5.43957e-15 -0.00651074 4.19878)
(-5.43942e-15 -1.07137e-05 4.20482)
(-5.43923e-15 0.00117371 4.21077)
(-5.43906e-15 0.00264907 4.2169)
(-5.4389e-15 0.0027216 4.22292)
(-5.43874e-15 0.00163806 4.22908)
(-5.43859e-15 -0.00120852 4.23543)
(-5.43844e-15 -0.00589167 4.24214)
(-5.4383e-15 -0.0124294 4.2493)
(-5.43816e-15 -0.0205437 4.25708)
(-5.43803e-15 -0.0299981 4.26564)
(-5.43791e-15 -0.0406154 4.27512)
(-5.43781e-15 -0.0522412 4.28576)
(-5.43773e-15 -0.0646509 4.29778)
(-5.43768e-15 -0.078183 4.31139)
(-5.43768e-15 -0.09348 4.3269)
(-5.43776e-15 -0.111017 4.34468)
(-5.43794e-15 -0.131193 4.36519)
(-5.43826e-15 -0.154611 4.38887)
(-5.43879e-15 -0.182167 4.4164)
(-5.43958e-15 -0.215183 4.44845)
(-5.44074e-15 -0.253976 4.48602)
(-5.44238e-15 -0.298224 4.53033)
(-5.44463e-15 -0.347845 4.58269)
(-5.44763e-15 -0.4045 4.64482)
(-5.45154e-15 -0.4708 4.71895)
(-5.45646e-15 -0.547703 4.80828)
(-5.46243e-15 -0.637095 4.91705)
(-5.46926e-15 -0.741585 5.05076)
(-5.47633e-15 -0.864597 5.21699)
(-5.48222e-15 -1.01134 5.42598)
(-5.48403e-15 -1.18862 5.69155)
(-5.47632e-15 -1.40589 6.03157)
(-5.44983e-15 -1.67614 6.46772)
(-5.39027e-15 -2.01614 7.02397)
(-5.27836e-15 -2.44601 7.72279)
(-5.09247e-15 -2.9868 8.57891)
(-4.81525e-15 -3.65585 9.59137)
(-4.44455e-15 -4.4597 10.7347)
(-4.00531e-15 -5.38404 11.9502)
(-3.55474e-15 -6.3816 13.1405)
(-3.17073e-15 -7.36221 14.172)
(-2.92055e-15 -8.20275 14.9019)
(-2.82964e-15 -8.81354 15.2574)
(-2.8922e-15 -9.27966 15.374)
(-3.13941e-15 -9.94685 15.6825)
(-3.67481e-15 -11.2034 16.6836)
(-4.55981e-15 -13.1052 18.4622)
(-5.65223e-15 -15.3138 20.5256)
(-6.61995e-15 -17.295 22.1514)
(-7.12827e-15 -18.5411 22.7818)
(-7.00356e-15 -18.7208 22.1723)
(-6.22801e-15 -17.6704 20.3402)
(-4.81763e-15 -15.2856 17.3782)
(-2.77151e-15 -11.5152 13.1479)
(-2.7161e-16 -6.76991 7.47468)
(1.84888e-15 -2.31104 1.92675)
(2.40338e-15 1.22397 -0.813085)
(1.80193e-15 1.3831 -0.185484)
(1.64705e-15 0.973381 -0.197145)
(1.62713e-15 0.892919 0.100464)
(1.66386e-15 0.500318 0.478822)
(1.71056e-15 0.432469 0.719011)
(1.71773e-15 0.433112 0.661672)
(1.70485e-15 0.31656 0.52685)
(1.70075e-15 0.230982 0.302889)
(1.69802e-15 -0.130274 0.129609)
(1.68645e-15 -1.00728 0.230809)
(1.64484e-15 -1.25608 -0.290699)
(1.67483e-15 -0.874532 -0.39955)
(1.73564e-15 -0.530315 -0.444232)
(1.77137e-15 -0.299753 -0.450796)
(1.78055e-15 -0.0419944 -0.494872)
(1.78986e-15 -0.00664657 -0.419582)
(1.81376e-15 0.416262 0.00147246)
(1.87848e-15 0.62274 1.15482)
(1.68599e-15 -1.62181 -1.0599)
(7.27414e-16 -6.66027 -2.99212)
(-5.43941e-15 -0.00103765 4.24276)
(-5.43913e-15 -0.00273152 4.2543)
(-5.43903e-15 -0.000793548 4.26236)
(-5.4389e-15 -0.000437094 4.26977)
(-5.43879e-15 0.000179186 4.27734)
(-5.4387e-15 -0.000407077 4.28477)
(-5.43861e-15 -0.00181828 4.29231)
(-5.43854e-15 -0.00469861 4.29995)
(-5.43848e-15 -0.00918052 4.3079)
(-5.43844e-15 -0.0153973 4.31632)
(-5.43842e-15 -0.0232287 4.3254)
(-5.43842e-15 -0.03281 4.33537)
(-5.43846e-15 -0.0436728 4.34648)
(-5.43853e-15 -0.0554305 4.35887)
(-5.43865e-15 -0.0681044 4.37268)
(-5.43884e-15 -0.0820661 4.38804)
(-5.43911e-15 -0.0977877 4.40534)
(-5.43949e-15 -0.115985 4.42497)
(-5.44002e-15 -0.13755 4.44746)
(-5.44074e-15 -0.163192 4.47335)
(-5.4417e-15 -0.193376 4.50351)
(-5.44298e-15 -0.228587 4.53845)
(-5.44467e-15 -0.268541 4.5794)
(-5.44686e-15 -0.313637 4.62761)
(-5.44966e-15 -0.365246 4.68455)
(-5.45318e-15 -0.42553 4.75216)
(-5.45751e-15 -0.496105 4.83307)
(-5.46266e-15 -0.5778 4.93085)
(-5.4685e-15 -0.672914 5.05012)
(-5.4746e-15 -0.785043 5.19694)
(-5.47996e-15 -0.918123 5.37959)
(-5.48255e-15 -1.07804 5.60903)
(-5.47863e-15 -1.27239 5.89968)
(-5.46164e-15 -1.51158 6.26964)
(-5.42117e-15 -1.80933 6.73997)
(-5.34221e-15 -2.18236 7.33279)
(-5.2059e-15 -2.64939 8.06725)
(-4.99306e-15 -3.22835 8.95333)
(-4.6914e-15 -3.93131 9.98415)
(-4.30603e-15 -4.75726 11.1274)
(-3.86917e-15 -5.68235 12.3169)
(-3.44121e-15 -6.64954 13.4477)
(-3.09521e-15 -7.56444 14.3821)
(-2.88665e-15 -8.31921 14.9898)
(-2.8322e-15 -8.87656 15.2458)
(-2.93322e-15 -9.39854 15.3677)
(-3.23752e-15 -10.2505 15.8232)
(-3.84283e-15 -11.7187 17.0153)
(-4.77264e-15 -13.7267 18.882)
(-5.85027e-15 -15.8809 20.8828)
(-6.74313e-15 -17.6677 22.3412)
(-7.14519e-15 -18.6375 22.7659)
(-6.91225e-15 -18.5131 21.9582)
(-6.03377e-15 -17.1567 19.9415)
(-4.51509e-15 -14.4547 16.7624)
(-2.3637e-15 -10.372 12.2526)
(1.44219e-16 -5.51507 6.46451)
(2.04432e-15 -1.33144 1.2644)
(2.57338e-15 0.701863 -1.4135)
(1.9695e-15 0.63651 -0.5605)
(1.6519e-15 0.700167 -0.414303)
(1.6432e-15 0.606465 0.295073)
(1.69295e-15 0.27176 0.765635)
(1.72361e-15 0.211961 0.854723)
(1.71824e-15 0.302707 0.781204)
(1.70366e-15 0.247124 0.649664)
(1.69832e-15 0.0714419 0.431452)
(1.69688e-15 -0.183457 0.257207)
(1.68583e-15 -0.946829 0.235577)
(1.64506e-15 -1.17994 -0.284541)
(1.67126e-15 -0.847786 -0.417282)
(1.72747e-15 -0.541633 -0.471378)
(1.76446e-15 -0.336893 -0.46854)
(1.77626e-15 -0.168402 -0.499918)
(1.78837e-15 -0.104625 -0.417045)
(1.80159e-15 0.148667 -0.178236)
(1.8998e-15 0.748915 1.07613)
(1.73776e-15 -0.999473 -0.813364)
(7.70992e-16 -6.38775 -2.87462)
(-5.43939e-15 -0.008374 4.32734)
(-5.43928e-15 -0.00531941 4.34067)
(-5.43929e-15 -0.00480804 4.34971)
(-5.43927e-15 -0.00515852 4.35832)
(-5.43928e-15 -0.00551414 4.36709)
(-5.43931e-15 -0.00699665 4.37568)
(-5.43935e-15 -0.00903759 4.38442)
(-5.43941e-15 -0.0120282 4.39324)
(-5.43949e-15 -0.0160603 4.40231)
(-5.4396e-15 -0.0213926 4.4118)
(-5.43975e-15 -0.0284589 4.42196)
(-5.43993e-15 -0.0371709 4.43315)
(-5.44016e-15 -0.0468461 4.44579)
(-5.44046e-15 -0.0584732 4.45982)
(-5.44083e-15 -0.071328 4.47549)
(-5.44129e-15 -0.0858072 4.49286)
(-5.44188e-15 -0.102205 4.5123)
(-5.44262e-15 -0.121531 4.53418)
(-5.44354e-15 -0.144713 4.55906)
(-5.4447e-15 -0.172375 4.5876)
(-5.44616e-15 -0.204439 4.6209)
(-5.44797e-15 -0.240821 4.65974)
(-5.4502e-15 -0.281316 4.70532)
(-5.45295e-15 -0.327386 4.75892)
(-5.45627e-15 -0.381445 4.82203)
(-5.46022e-15 -0.445467 4.89705)
(-5.46478e-15 -0.520366 4.98724)
(-5.46982e-15 -0.607099 5.09657)
(-5.47498e-15 -0.708262 5.22996)
(-5.47946e-15 -0.828004 5.39423)
(-5.48173e-15 -0.971133 5.59847)
(-5.47898e-15 -1.14421 5.85433)
(-5.46631e-15 -1.35561 6.17674)
(-5.43594e-15 -1.61647 6.58363)
(-5.37633e-15 -1.94061 7.09492)
(-5.27207e-15 -2.34457 7.73018)
(-5.10548e-15 -2.84561 8.50437)
(-4.86107e-15 -3.45865 9.42177)
(-4.5332e-15 -4.19064 10.4685)
(-4.13559e-15 -5.0334 11.6043)
(-3.70797e-15 -5.95401 12.7542)
(-3.31236e-15 -6.88642 13.8054)
(-3.01402e-15 -7.73364 14.6196)
(-2.8548e-15 -8.4051 15.088)
(-2.84485e-15 -8.9126 15.2474)
(-2.99746e-15 -9.47883 15.3997)
(-3.37627e-15 -10.4743 16.0293)
(-4.06371e-15 -12.1042 17.4222)
(-5.03653e-15 -14.191 19.3693)
(-6.08289e-15 -16.2875 21.2851)
(-6.87586e-15 -17.8882 22.5404)
(-7.14531e-15 -18.5933 22.7169)
(-6.77901e-15 -18.1779 21.6684)
(-5.77095e-15 -16.5261 19.4206)
(-4.11447e-15 -13.5124 15.9536)
(-1.84108e-15 -9.13391 11.0754)
(6.45671e-16 -4.17766 5.13466)
(2.29213e-15 -0.324917 0.308221)
(2.65063e-15 0.561364 -1.31362)
(2.05137e-15 0.466733 -0.632531)
(1.66281e-15 0.550943 -0.250899)
(1.65945e-15 0.520572 0.516308)
(1.71335e-15 0.343235 0.908364)
(1.73399e-15 0.330765 0.932854)
(1.72191e-15 0.419212 0.864944)
(1.7052e-15 0.352857 0.749297)
(1.69707e-15 0.141459 0.556443)
(1.69536e-15 -0.212284 0.365501)
(1.68492e-15 -0.883767 0.237078)
(1.64536e-15 -1.10763 -0.274779)
(1.66707e-15 -0.827996 -0.434433)
(1.71739e-15 -0.535921 -0.497505)
(1.75441e-15 -0.338905 -0.489106)
(1.76916e-15 -0.200828 -0.515386)
(1.78415e-15 -0.149476 -0.412277)
(1.7892e-15 0.0231502 -0.346995)
(1.91357e-15 0.752637 0.901823)
(1.80589e-15 -0.392819 -0.408766)
(8.42917e-16 -6.13284 -2.71501)
(-5.44051e-15 -0.0075118 4.43266)
(-5.44063e-15 -0.00331114 4.44669)
(-5.44077e-15 -0.00309154 4.45615)
(-5.44091e-15 -0.00361926 4.46535)
(-5.44107e-15 -0.00462523 4.47479)
(-5.44124e-15 -0.00678277 4.48408)
(-5.44144e-15 -0.00983308 4.49363)
(-5.44166e-15 -0.0139067 4.50343)
(-5.44192e-15 -0.0189889 4.51369)
(-5.4422e-15 -0.0251053 4.52454)
(-5.44254e-15 -0.0325046 4.53615)
(-5.44292e-15 -0.0408277 4.54881)
(-5.44337e-15 -0.0500394 4.56285)
(-5.4439e-15 -0.0610039 4.57841)
(-5.44453e-15 -0.0733496 4.59577)
(-5.44527e-15 -0.0876074 4.61504)
(-5.44616e-15 -0.104749 4.63648)
(-5.44723e-15 -0.125636 4.66059)
(-5.44851e-15 -0.150724 4.68804)
(-5.45005e-15 -0.180006 4.71966)
(-5.4519e-15 -0.212832 4.75665)
(-5.45411e-15 -0.249411 4.80022)
(-5.45674e-15 -0.290415 4.8512)
(-5.45982e-15 -0.337958 4.91096)
(-5.46339e-15 -0.394317 4.98136)
(-5.46741e-15 -0.461161 5.0653)
(-5.47174e-15 -0.539672 5.16653)
(-5.47606e-15 -0.631521 5.28944)
(-5.47972e-15 -0.739173 5.43943)
(-5.48149e-15 -0.866752 5.62389)
(-5.47918e-15 -1.01985 5.85258)
(-5.4691e-15 -1.20531 6.13771)
(-5.44527e-15 -1.43263 6.49438)
(-5.39878e-15 -1.71342 6.94)
(-5.31727e-15 -2.06103 7.49287)
(-5.18551e-15 -2.49108 8.16942)
(-4.98785e-15 -3.01901 8.9801)
(-4.71339e-15 -3.65656 9.92323)
(-4.36369e-15 -4.40569 10.9777)
(-3.96079e-15 -5.25152 12.0948)
(-3.55024e-15 -6.15375 13.1906)
(-3.19292e-15 -7.04093 14.1457)
(-2.9443e-15 -7.82078 14.8271)
(-2.83398e-15 -8.4292 15.1595)
(-2.87077e-15 -8.92819 15.252)
(-3.0827e-15 -9.5785 15.4785)
(-3.54267e-15 -10.718 16.3033)
(-4.30848e-15 -12.4607 17.8788)
(-5.31005e-15 -14.5584 19.8706)
(-6.3081e-15 -16.5468 21.6696)
(-6.98858e-15 -17.948 22.7005)
(-7.11861e-15 -18.4111 22.6156)
(-6.61361e-15 -17.7494 21.3145)
(-5.46717e-15 -15.8534 18.8101)
(-3.66437e-15 -12.5897 15.0131)
(-1.28046e-15 -8.0327 9.75608)
(1.1431e-15 -3.20347 3.72413)
(2.53417e-15 -0.0778638 -0.720019)
(2.65283e-15 0.353389 -1.27958)
(1.99807e-15 0.0651251 -0.462131)
(1.65183e-15 0.36193 0.0536357)
(1.67784e-15 0.459009 0.675989)
(1.73001e-15 0.418487 0.981752)
(1.74342e-15 0.440729 0.989819)
(1.72936e-15 0.470079 0.941576)
(1.71152e-15 0.408088 0.845159)
(1.69781e-15 0.222647 0.667789)
(1.6932e-15 -0.139987 0.468768)
(1.68375e-15 -0.801096 0.238049)
(1.64571e-15 -1.02378 -0.265311)
(1.66302e-15 -0.793041 -0.454142)
(1.70713e-15 -0.516747 -0.527455)
(1.74277e-15 -0.318206 -0.515207)
(1.76007e-15 -0.198174 -0.539685)
(1.77739e-15 -0.159355 -0.422862)
(1.77525e-15 -0.0430812 -0.514859)
(1.92241e-15 0.727784 0.712926)
(1.8887e-15 -0.0956392 0.0678997)
(8.93756e-16 -5.94738 -2.46031)
(-5.44317e-15 -0.0111962 4.55704)
(-5.44354e-15 -0.00673641 4.57173)
(-5.44381e-15 -0.00624766 4.58144)
(-5.4441e-15 -0.0063576 4.59108)
(-5.44441e-15 -0.00709617 4.60101)
(-5.44474e-15 -0.00911143 4.6108)
(-5.44509e-15 -0.0122178 4.62092)
(-5.44548e-15 -0.0166208 4.63139)
(-5.44589e-15 -0.0222993 4.6425)
(-5.44635e-15 -0.0291188 4.65442)
(-5.44687e-15 -0.0366658 4.66728)
(-5.44744e-15 -0.0449823 4.6812)
(-5.44809e-15 -0.0546404 4.69654)
(-5.44883e-15 -0.0654293 4.71365)
(-5.44969e-15 -0.0778078 4.73265)
(-5.45067e-15 -0.0924802 4.75372)
(-5.45181e-15 -0.11064 4.77712)
(-5.45314e-15 -0.132852 4.8035)
(-5.45469e-15 -0.159321 4.83378)
(-5.45649e-15 -0.189791 4.86893)
(-5.45859e-15 -0.223799 4.91023)
(-5.46101e-15 -0.261905 4.95895)
(-5.46378e-15 -0.304804 5.01589)
(-5.46689e-15 -0.354194 5.08263)
(-5.4703e-15 -0.41229 5.16136)
(-5.47386e-15 -0.481349 5.25541)
(-5.47728e-15 -0.563127 5.369)
(-5.48001e-15 -0.659499 5.50706)
(-5.48105e-15 -0.77349 5.6755)
(-5.47867e-15 -0.909539 5.8822)
(-5.47003e-15 -1.07329 6.13742)
(-5.45048e-15 -1.27148 6.45357)
(-5.41313e-15 -1.51438 6.84554)
(-5.34818e-15 -1.81412 7.3299)
(-5.24295e-15 -2.18397 7.9229)
(-5.08307e-15 -2.63802 8.63753)
(-4.85572e-15 -3.18947 9.4794)
(-4.55521e-15 -3.84648 10.4407)
(-4.19035e-15 -4.60634 11.4928)
(-3.79037e-15 -5.44778 12.5783)
(-3.40431e-15 -6.32416 13.6047)
(-3.08914e-15 -7.16155 14.4487)
(-2.8897e-15 -7.87784 14.9905)
(-2.82647e-15 -8.44103 15.2014)
(-2.91225e-15 -8.96044 15.267)
(-3.18986e-15 -9.71591 15.6118)
(-3.73285e-15 -10.9937 16.6426)
(-4.56721e-15 -12.8204 18.3714)
(-5.57988e-15 -14.8967 20.3657)
(-6.51353e-15 -16.7585 22.0152)
(-7.07324e-15 -17.9621 22.8042)
(-7.06229e-15 -18.201 22.452)
(-6.4175e-15 -17.3142 20.8922)
(-5.12801e-15 -15.1871 18.1091)
(-3.17842e-15 -11.6872 13.9548)
(-7.07776e-16 -7.00846 8.35313)
(1.60237e-15 -2.4591 2.38359)
(2.58809e-15 -0.0191117 -1.21113)
(2.58707e-15 0.22164 -1.27823)
(1.82908e-15 -0.280037 -0.153752)
(1.65011e-15 0.261805 0.364496)
(1.70048e-15 0.373148 0.795968)
(1.74517e-15 0.400433 1.03178)
(1.7535e-15 0.449054 1.04453)
(1.74328e-15 0.474994 1.02312)
(1.72368e-15 0.437936 0.931994)
(1.70068e-15 0.261624 0.755485)
(1.69049e-15 -0.0835374 0.548009)
(1.68234e-15 -0.712073 0.237959)
(1.64613e-15 -0.935014 -0.259707)
(1.6593e-15 -0.750679 -0.477049)
(1.69725e-15 -0.493861 -0.563564)
(1.73038e-15 -0.296549 -0.553291)
(1.74956e-15 -0.193108 -0.574699)
(1.76846e-15 -0.14897 -0.449932)
(1.76583e-15 -0.0648814 -0.593458)
(1.92201e-15 0.670256 0.537498)
(1.98924e-15 0.0905382 0.617519)
(9.46274e-16 -5.79442 -2.226)
(-5.44751e-15 -0.0120089 4.70078)
(-5.44808e-15 -0.00813474 4.71579)
(-5.44846e-15 -0.00764481 4.72581)
(-5.44888e-15 -0.00785216 4.73588)
(-5.44931e-15 -0.00871892 4.74633)
(-5.44976e-15 -0.0108129 4.75664)
(-5.45024e-15 -0.0139844 4.76731)
(-5.45075e-15 -0.0184533 4.77835)
(-5.4513e-15 -0.0241887 4.79009)
(-5.45189e-15 -0.0311008 4.80274)
(-5.45255e-15 -0.0388299 4.81649)
(-5.45327e-15 -0.0474285 4.83155)
(-5.45407e-15 -0.0571875 4.8483)
(-5.45496e-15 -0.0682253 4.86699)
(-5.45597e-15 -0.0810641 4.88768)
(-5.45711e-15 -0.0964608 4.91063)
(-5.45841e-15 -0.115232 4.93619)
(-5.45988e-15 -0.138004 4.96516)
(-5.46156e-15 -0.165145 4.99861)
(-5.46346e-15 -0.196825 5.03768)
(-5.4656e-15 -0.233045 5.08374)
(-5.46797e-15 -0.274077 5.13811)
(-5.47055e-15 -0.320045 5.20181)
(-5.47329e-15 -0.372502 5.27653)
(-5.47602e-15 -0.434047 5.36466)
(-5.47848e-15 -0.506916 5.46998)
(-5.48017e-15 -0.592706 5.59728)
(-5.48025e-15 -0.693768 5.75188)
(-5.47734e-15 -0.814291 5.9401)
(-5.46915e-15 -0.959117 6.17033)
(-5.45211e-15 -1.13409 6.45323)
(-5.42084e-15 -1.34618 6.80118)
(-5.36762e-15 -1.60552 7.22844)
(-5.28216e-15 -1.92417 7.75022)
(-5.15202e-15 -2.31574 8.38044)
(-4.96444e-15 -2.79286 9.12851)
(-4.71011e-15 -3.36626 9.99497)
(-4.38898e-15 -4.04031 10.9656)
(-4.01667e-15 -4.80754 12.0039)
(-3.62803e-15 -5.64068 13.0437)
(-3.27295e-15 -6.48752 13.9849)
(-3.00226e-15 -7.27459 14.7053)
(-2.85057e-15 -7.93428 15.1082)
(-2.83347e-15 -8.46954 15.2219)
(-2.97189e-15 -9.03052 15.3063)
(-3.32077e-15 -9.89966 15.8071)
(-3.94501e-15 -11.3032 17.0414)
(-4.83467e-15 -13.1914 18.8859)