/*--------------------------------*- C++ -*----------------------------------*\
| =========                 |                                                 |
| \\      /  F ield         | OpenFOAM: The Open Source CFD Toolbox           |
|  \\    /   O peration     | Version:  4.1                                   |
|   \\  /    A nd           | Web:      www.OpenFOAM.org                      |
|    \\/     M anipulation  |                                                 |
\*---------------------------------------------------------------------------*/
FoamFile
{
    version     2.0;
    format      ascii;
    class       volScalarField;
    location    "19";
    object      p;
}
// * * * * * * * * * * * * * * * * * * * * * * * * * * * * * * * * * * * * * //

dimensions      [0 2 -2 0 0 0 0];

internalField   nonuniform List<scalar> 
225
(
523.378
469.981
418.149
369.738
324.847
282.83
243.475
206.472
171.377
138.013
107.072
78.9328
49.9039
14.9852
-14.167
56.9436
34.6826
28.924
25.2137
19.7397
14.0322
8.87928
4.49052
1.0066
-1.45215
-2.64344
-2.14179
-0.0453503
1.82617
2.08634
-45.8388
-52.4819
-46.7149
-42.568
-39.4774
-35.8821
-31.9958
-28.0584
-24.154
-20.4382
-17.0927
-14.0256
-10.9487
-8.29593
-7.06169
0.294827
-2.12323
2.46958
2.79372
2.8473
3.06249
2.97336
2.59606
2.0145
1.25531
0.298567
-0.810782
-1.72109
-1.87333
-1.56287
16.7227
14.3899
15.9436
13.8456
12.4268
11.1832
9.77327
8.39141
7.13397
6.04292
5.14192
4.42938
3.95179
3.91907
4.16393
7.49455
5.4715
6.44548
5.22615
5.02315
5.00738
4.9196
4.95292
5.10851
5.35201
5.6713
6.03418
6.35385
6.61056
6.7853
4.02313
2.86767
3.95326
3.63016
4.01698
4.41109
4.71007
5.06072
5.41728
5.74205
6.03175
6.28566
6.46388
6.54491
6.56062
5.70092
5.14311
5.99745
5.76844
5.96694
6.07944
6.10335
6.14864
6.17323
6.1684
6.14469
6.11688
6.08322
6.03736
5.98888
6.00812
5.68271
6.19353
5.91765
5.96047
5.92966
5.85458
5.80748
5.75185
5.69127
5.632
5.57888
5.53215
5.48606
5.43485
4.6883
4.4806
4.82627
4.64989
4.72266
4.73161
4.71872
4.72692
4.72433
4.71756
4.70796
4.69324
4.67103
4.63577
4.57804
3.31823
3.20206
3.49974
3.44585
3.56549
3.61219
3.64083
3.67581
3.69244
3.69932
3.69734
3.68482
3.66077
3.62252
3.55698
2.34427
2.28411
2.53841
2.53974
2.65809
2.69949
2.72858
2.75568
2.76324
2.76116
2.74974
2.72883
2.69896
2.66016
2.59549
1.5651
1.53015
1.73254
1.74636
1.84556
1.87198
1.89434
1.91147
1.9118
1.90494
1.89035
1.86809
1.8385
1.80375
1.74586
0.880408
0.868327
1.0293
1.03404
1.11109
1.12472
1.14257
1.15467
1.15413
1.14918
1.13827
1.12124
1.09624
1.06508
1.01088
0.438604
0.399313
0.455154
0.423048
0.459211
0.440534
0.434193
0.420147
0.39925
0.376576
0.349971
0.321297
0.290889
0.260972
0.217986
)
;

boundaryField
{
    inletFace
    {
        type            zeroGradient;
    }
    inlet
    {
        type            zeroGradient;
    }
    inletWalls
    {
        type            zeroGradient;
    }
    outletInlet
    {
        type            fixedValue;
        value           uniform 0;
    }
}


// ************************************************************************* //
