/*--------------------------------*- C++ -*----------------------------------*\
| =========                 |                                                 |
| \\      /  F ield         | OpenFOAM: The Open Source CFD Toolbox           |
|  \\    /   O peration     | Version:  4.1                                   |
|   \\  /    A nd           | Web:      www.OpenFOAM.org                      |
|    \\/     M anipulation  |                                                 |
\*---------------------------------------------------------------------------*/
FoamFile
{
    version     2.0;
    format      ascii;
    class       surfaceScalarField;
    location    "19";
    object      phi;
}
// * * * * * * * * * * * * * * * * * * * * * * * * * * * * * * * * * * * * * //

dimensions      [0 3 -1 0 0 0 0];

internalField   nonuniform List<scalar> 
420
(
-949.879
2249.78
-1573.95
1924.28
-2054
1779.95
-2424.23
1670.13
-2699.86
1575.82
-2888.37
1488.42
-2993.05
1404.58
-3013.85
1321
-2949.61
1235.66
-2797.23
1147.52
-2551.17
1054.13
-2193
941.736
-1687.17
794.066
-1012.67
625.706
287.231
373.335
1876.44
442.748
1854.86
437.301
1785.39
406.698
1700.73
380.58
1601.94
359.901
1509.1
345.293
1419.19
337.536
1328.76
333.484
1239.71
326.953
1154.05
309.612
1071.48
267.467
983.877
191.429
870.103
111.449
705.686
398.68
33.5752
1842.87
-97.3902
1985.83
-253.615
1941.62
-371.123
1818.24
-473.187
1704.01
-567.537
1603.45
-651.755
1503.4
-725.803
1402.8
-788.082
1301.99
-837.318
1203.28
-868.237
1102.4
-856.101
971.739
-740.344
754.348
-434.288
399.631
-35.6079
28.775
1814.09
-100.654
2115.26
-225.562
2066.53
-304.499
1897.18
-368.159
1767.67
-416.957
1652.24
-446.232
1532.68
-457.02
1413.59
-451.857
1296.83
-430.158
1181.58
-387.229
1059.47
-311.876
896.385
-192.868
635.34
-48.4099
255.173
-84.0178
169.627
1644.47
146.159
2138.72
123.734
2088.95
122.871
1898.04
126.944
1763.6
135.806
1643.38
149.105
1519.38
166.593
1396.1
186.946
1276.47
208.136
1160.4
229.136
1038.47
243.828
881.695
233.008
646.161
155.231
332.951
71.2134
223.079
1421.39
244.183
2117.62
234.746
2098.39
236.024
1896.76
240.372
1759.25
244.306
1639.45
246.549
1517.14
245.252
1397.4
241.164
1280.56
233.99
1167.57
221.385
1051.07
199.141
903.939
156.141
689.16
78.3009
410.791
149.514
203.319
1218.07
238.372
2082.57
213.617
2123.14
191.407
1918.97
177.199
1773.45
163.768
1652.88
150.034
1530.87
135.891
1411.54
121.065
1295.39
106.911
1181.72
92.8163
1065.17
75.7641
920.988
52.0199
712.905
19.0199
443.791
168.534
171.853
1046.21
221.982
2032.44
199.422
2145.7
170.405
1947.99
152.052
1791.81
137.67
1667.26
122.779
1545.76
108.578
1425.74
95.5827
1308.38
83.0999
1194.2
71.4811
1076.79
58.6297
933.837
40.322
731.214
15.75
468.365
184.284
146.097
900.116
210.06
1968.47
196.877
2158.89
170.054
1974.81
152.405
1809.45
139.534
1680.13
127.071
1558.23
113.864
1438.95
101.32
1320.93
89.4177
1206.1
76.9849
1089.22
63.0878
947.733
44.3079
749.996
19.1702
493.505
203.454
116.763
783.352
184.852
1900.38
179.626
2164.11
154.309
2000.13
137.219
1826.54
123.998
1693.35
111.368
1570.85
98.9592
1451.35
86.1072
1333.78
73.8643
1218.34
62.1029
1100.99
49.0204
960.812
32.8527
766.166
13.1841
513.175
216.639
83.1585
700.191
143.126
1840.41
144.676
2162.56
122.75
2022.05
106.141
1843.15
94.4532
1705.04
82.571
1582.73
71.161
1462.76
60.3807
1344.56
49.4531
1229.26
39.4255
1111.01
29.7421
970.492
18.085
777.825
5.24381
526.018
221.882
51.2335
648.954
97.9114
1793.73
102.698
2157.77
87.3681
2037.38
73.1372
1857.38
63.1291
1715.04
54.2306
1591.63
44.8498
1472.14
36.1406
1353.27
28.1651
1237.24
20.4217
1118.76
13.6857
977.224
6.75136
784.758
-0.397306
533.165
221.485
25.1197
623.833
57.7096
1761.15
63.5036
2151.97
53.4652
2047.42
43.8857
1866.96
36.1719
1722.76
29.5428
1598.26
23.4954
1478.19
17.0474
1359.71
11.3034
1242.98
6.5985
1123.46
2.47448
981.354
-1.07391
788.306
-3.68786
535.778
217.797
1.41875
622.417
24.0584
1738.51
33.3592
2142.67
27.7373
2053.05
20.3854
1874.31
15.0915
1728.06
9.55925
1603.79
4.61545
1483.14
0.0659543
1364.26
-4.79407
1247.85
-8.3172
1126.98
-9.62842
982.674
-9.72088
788.386
-7.15301
533.199
210.644
-11.7277
-3.1298
1.46151
-0.383819
-5.07249
-8.81065
-11.7604
-15.1837
-18.0498
-20.168
-21.7369
-21.0749
-18.1016
-12.3836
)
;

boundaryField
{
    inletFace
    {
        type            calculated;
        value           nonuniform List<scalar> 
450
(
-8.36258e-15
6.39899e-13
-7.19531e-14
-1.2352e-13
1.83178e-13
6.35054e-14
-9.99122e-15
-2.18003e-14
-1.0933e-13
-3.22713e-14
4.61003e-14
-5.52212e-14
-3.542e-15
1.3083e-14
4.46527e-16
-2.11089e-12
-2.21703e-12
1.24969e-13
-2.70817e-13
-1.88227e-13
1.93922e-13
1.58389e-13
-1.07515e-13
1.10809e-15
-1.57576e-13
-7.1818e-14
1.4377e-14
-7.66217e-14
-5.23593e-14
-1.0249e-14
-2.28478e-12
-2.34886e-12
-4.32502e-14
-3.40929e-13
-2.03542e-13
1.32844e-13
-8.17428e-14
-9.15085e-14
-1.00217e-13
-1.34122e-13
-5.38534e-14
-5.81163e-14
-2.66925e-15
4.75615e-14
-3.96565e-14
-2.58091e-12
-2.20071e-12
-1.30143e-13
-5.80573e-13
-1.76288e-13
9.64914e-15
-2.55332e-13
-8.11202e-14
-1.58764e-13
-2.0139e-13
-5.1483e-14
-7.03216e-14
-4.8514e-14
8.90685e-14
7.23169e-14
-2.39466e-12
-2.33815e-12
-2.71885e-13
-5.35224e-13
-2.0083e-13
-1.0664e-13
-2.49209e-13
-6.18815e-14
-1.32676e-13
-1.80421e-13
-6.07596e-14
-6.33525e-14
-4.98774e-14
5.91578e-15
7.08066e-14
-2.11053e-12
-2.44968e-12
-4.87685e-13
-4.67839e-13
-1.87713e-13
-1.92454e-13
-2.44869e-13
-6.0663e-14
-1.07118e-13
-1.61578e-13
-4.58246e-14
-7.38772e-14
-1.2059e-14
1.775e-14
1.64067e-15
-1.90038e-12
-2.45381e-12
-7.53583e-13
-4.51622e-13
-2.24042e-13
-1.80362e-13
-2.62998e-13
-1.15696e-13
-1.15976e-13
-1.35118e-13
-7.42101e-14
-7.2499e-14
-2.05542e-14
-6.47486e-14
-1.33608e-13
-1.66541e-12
-2.46456e-12
-9.87624e-13
-4.40201e-13
-2.4691e-13
-1.8159e-13
-2.34067e-13
-1.48871e-13
-1.37689e-13
-1.70184e-13
-1.09339e-13
-7.81515e-14
-8.21223e-15
-1.47417e-14
-1.92313e-13
-1.38397e-12
-2.43442e-12
-1.1799e-12
-4.92668e-13
-2.55306e-13
-2.04843e-13
-2.47959e-13
-1.70599e-13
-1.47861e-13
-1.82554e-13
-1.16326e-13
-1.21063e-13
2.62866e-14
-5.21781e-15
-7.08499e-14
-1.20115e-12
-2.36925e-12
-1.29304e-12
-5.09089e-13
-2.58635e-13
-1.65549e-13
-2.35777e-13
-1.85526e-13
-1.37894e-13
-2.0857e-13
-1.24961e-13
-1.09078e-13
-8.24875e-14
-3.25632e-14
1.0406e-13
-1.02268e-12
-2.30503e-12
-1.37371e-12
-5.36529e-13
-2.58462e-13
-1.39326e-13
-1.86855e-13
-1.9546e-13
-1.441e-13
-1.60406e-13
-1.29569e-13
-6.12072e-14
-6.19233e-14
-1.34852e-14
1.71325e-13
-8.76193e-13
-2.24457e-12
-1.44901e-12
-6.08228e-13
-2.89284e-13
-1.33823e-13
-2.09578e-13
-2.14205e-13
-8.83888e-14
-1.10431e-13
-1.3754e-13
-5.69214e-15
-1.31917e-14
1.16273e-13
1.71171e-13
-8.00346e-13
-2.16922e-12
-1.49454e-12
-6.34465e-13
-3.12625e-13
-1.29321e-13
-2.12464e-13
-2.39211e-13
-7.47445e-14
-1.34064e-13
-1.37243e-13
1.89842e-14
-1.43239e-14
1.2182e-13
1.5108e-13
-7.42325e-13
-2.11228e-12
-1.50716e-12
-6.58681e-13
-3.09003e-13
-1.38678e-13
-2.12755e-13
-2.60186e-13
-9.37486e-14
-1.371e-13
-1.39829e-13
2.70202e-14
-1.01247e-14
1.03115e-13
1.27353e-13
-7.33584e-13
-2.03217e-12
-1.49858e-12
-6.75824e-13
-3.12797e-13
-1.52622e-13
-2.20854e-13
-2.54171e-13
-1.11356e-13
-1.43227e-13
-1.23271e-13
1.31212e-14
-2.83786e-15
1.01857e-13
6.81516e-14
8.36258e-15
-6.39899e-13
7.19531e-14
1.2352e-13
-1.83178e-13
-6.35054e-14
9.99122e-15
2.18003e-14
1.0933e-13
3.22713e-14
-4.61003e-14
5.52212e-14
3.542e-15
-1.3083e-14
-4.46527e-16
2.11089e-12
2.21703e-12
-1.24969e-13
2.70817e-13
1.88227e-13
-1.93922e-13
-1.58389e-13
1.07515e-13
-1.10809e-15
1.57576e-13
7.1818e-14
-1.4377e-14
7.66217e-14
5.23593e-14
1.0249e-14
2.28478e-12
2.34886e-12
4.32502e-14
3.40929e-13
2.03542e-13
-1.32844e-13
8.17428e-14
9.15085e-14
1.00217e-13
1.34122e-13
5.38534e-14
5.81163e-14
2.66925e-15
-4.75615e-14
3.96565e-14
2.58091e-12
2.20071e-12
1.30143e-13
5.80573e-13
1.76288e-13
-9.64914e-15
2.55332e-13
8.11202e-14
1.58764e-13
2.0139e-13
5.1483e-14
7.03216e-14
4.8514e-14
-8.90685e-14
-7.23169e-14
2.39466e-12
2.33815e-12
2.71885e-13
5.35224e-13
2.0083e-13
1.0664e-13
2.49209e-13
6.18815e-14
1.32676e-13
1.80421e-13
6.07596e-14
6.33525e-14
4.98774e-14
-5.91578e-15
-7.08066e-14
2.11053e-12
2.44968e-12
4.87685e-13
4.67839e-13
1.87713e-13
1.92454e-13
2.44869e-13
6.0663e-14
1.07118e-13
1.61578e-13
4.58246e-14
7.38772e-14
1.2059e-14
-1.775e-14
-1.64067e-15
1.90038e-12
2.45381e-12
7.53583e-13
4.51622e-13
2.24042e-13
1.80362e-13
2.62998e-13
1.15696e-13
1.15976e-13
1.35118e-13
7.42101e-14
7.2499e-14
2.05542e-14
6.47486e-14
1.33608e-13
1.66541e-12
2.46456e-12
9.87624e-13
4.40201e-13
2.4691e-13
1.8159e-13
2.34067e-13
1.48871e-13
1.37689e-13
1.70184e-13
1.09339e-13
7.81515e-14
8.21223e-15
1.47417e-14
1.92313e-13
1.38397e-12
2.43442e-12
1.1799e-12
4.92668e-13
2.55306e-13
2.04843e-13
2.47959e-13
1.70599e-13
1.47861e-13
1.82554e-13
1.16326e-13
1.21063e-13
-2.62866e-14
5.21781e-15
7.08499e-14
1.20115e-12
2.36925e-12
1.29304e-12
5.09089e-13
2.58635e-13
1.65549e-13
2.35777e-13
1.85526e-13
1.37894e-13
2.0857e-13
1.24961e-13
1.09078e-13
8.24875e-14
3.25632e-14
-1.0406e-13
1.02268e-12
2.30503e-12
1.37371e-12
5.36529e-13
2.58462e-13
1.39326e-13
1.86855e-13
1.9546e-13
1.441e-13
1.60406e-13
1.29569e-13
6.12072e-14
6.19233e-14
1.34852e-14
-1.71325e-13
8.76193e-13
2.24457e-12
1.44901e-12
6.08228e-13
2.89284e-13
1.33823e-13
2.09578e-13
2.14205e-13
8.83888e-14
1.10431e-13
1.3754e-13
5.69214e-15
1.31917e-14
-1.16273e-13
-1.71171e-13
8.00346e-13
2.16922e-12
1.49454e-12
6.34465e-13
3.12625e-13
1.29321e-13
2.12464e-13
2.39211e-13
7.47445e-14
1.34064e-13
1.37243e-13
-1.89842e-14
1.43239e-14
-1.2182e-13
-1.5108e-13
7.42325e-13
2.11228e-12
1.50716e-12
6.58681e-13
3.09003e-13
1.38678e-13
2.12755e-13
2.60186e-13
9.37486e-14
1.371e-13
1.39829e-13
-2.70202e-14
1.01247e-14
-1.03115e-13
-1.27353e-13
7.33584e-13
2.03217e-12
1.49858e-12
6.75824e-13
3.12797e-13
1.52622e-13
2.20854e-13
2.54171e-13
1.11356e-13
1.43227e-13
1.23271e-13
-1.31212e-14
2.83786e-15
-1.01857e-13
-6.81516e-14
)
;
    }
    inlet
    {
        type            calculated;
        value           nonuniform List<scalar> 
15
(
-1299.9
-1300.2
-1299.9
-1299.9
-1300.2
-1299.9
-1299.9
-1300.2
-1299.9
-1299.9
-1300.2
-1299.9
-1299.9
-1300.2
-1299.9
)
;
    }
    inletWalls
    {
        type            calculated;
        value           uniform 0;
    }
    outletInlet
    {
        type            calculated;
        value           nonuniform List<scalar> 
15
(
198.26
527.478
785.409
982.016
1128.54
1249.99
1367.12
1486.58
1606.74
1731.8
1879
2054.9
2138.09
1729.92
634.151
)
;
    }
}


// ************************************************************************* //
