/*--------------------------------*- C++ -*----------------------------------*\
| =========                 |                                                 |
| \\      /  F ield         | OpenFOAM: The Open Source CFD Toolbox           |
|  \\    /   O peration     | Version:  4.1                                   |
|   \\  /    A nd           | Web:      www.OpenFOAM.org                      |
|    \\/     M anipulation  |                                                 |
\*---------------------------------------------------------------------------*/
FoamFile
{
    version     2.0;
    format      ascii;
    class       volSymmTensorField;
    location    "7";
    object      turbulenceProperties:R;
}
// * * * * * * * * * * * * * * * * * * * * * * * * * * * * * * * * * * * * * //

dimensions      [0 2 -2 0 0 0 0];

internalField   nonuniform List<symmTensor> 
6785
(
(0.753313 1.43367e-19 7.60974e-20 0.753188 0.000166887 0.753499)
(0.753354 -1.08838e-19 -5.4518e-20 0.75332 6.61846e-06 0.753326)
(0.753325 -3.99028e-20 -2.90832e-20 0.75336 3.84638e-05 0.753316)
(0.753334 2.12888e-20 1.49822e-20 0.753344 2.65082e-05 0.753322)
(0.753331 -2.61329e-20 -7.04527e-21 0.753346 2.70324e-05 0.753322)
(0.753332 1.24936e-20 -3.07832e-21 0.753343 2.40559e-05 0.753325)
(0.753332 2.15008e-21 2.74599e-21 0.753341 2.21948e-05 0.753326)
(0.753333 -2.10451e-20 -3.8986e-21 0.753339 2.01415e-05 0.753328)
(0.753333 6.91513e-21 -4.39962e-21 0.753337 1.83832e-05 0.75333)
(0.753333 4.30142e-21 9.45709e-21 0.753335 1.7233e-05 0.753332)
(0.753332 -1.39648e-20 -3.43269e-21 0.753332 1.68541e-05 0.753335)
(0.753334 3.31956e-21 -2.42973e-21 0.753327 1.38167e-05 0.753339)
(0.753334 7.33538e-22 4.49051e-21 0.753326 9.28542e-06 0.75334)
(0.753319 -5.55655e-21 2.06219e-21 0.753357 1.21237e-05 0.753324)
(0.753346 3.13544e-21 -2.44619e-21 0.753388 -7.63618e-05 0.753266)
(0.75333 1.93194e-19 1.25021e-19 0.753007 0.000218366 0.753663)
(0.753351 -1.33063e-19 -7.78992e-20 0.753339 -1.71085e-05 0.75331)
(0.753325 -5.37954e-20 -3.14424e-20 0.753377 1.09536e-05 0.753298)
(0.753341 1.94409e-20 2.17722e-20 0.753351 -7.88241e-06 0.753308)
(0.753333 -2.21739e-20 -1.27823e-20 0.753361 -8.85889e-08 0.753306)
(0.753336 8.11855e-21 3.68143e-21 0.753354 -4.241e-06 0.75331)
(0.753335 -9.74605e-21 6.21289e-21 0.753354 -3.35845e-06 0.753312)
(0.753335 -1.33784e-20 -7.23315e-21 0.753351 -4.08454e-06 0.753315)
(0.753335 4.08991e-21 1.93199e-21 0.753349 -4.30315e-06 0.753316)
(0.753335 -4.8353e-21 9.35076e-21 0.753348 -5.59224e-06 0.753317)
(0.753334 -4.93359e-21 -2.19121e-21 0.753351 -7.89058e-06 0.753315)
(0.753334 2.12556e-21 1.44497e-21 0.753359 -1.45897e-05 0.753306)
(0.753335 -4.83919e-21 4.44351e-21 0.753379 -3.17453e-05 0.753286)
(0.753336 -3.89326e-21 -1.31843e-21 0.753398 -5.1177e-05 0.753265)
(0.753331 5.00632e-21 3.41476e-21 0.753349 -1.77875e-05 0.75332)
(0.75333 2.18068e-19 6.29048e-20 0.752976 0.000216001 0.753694)
(0.753339 -1.37007e-19 -6.79348e-20 0.753348 -1.7197e-05 0.753314)
(0.753325 -5.04603e-20 -3.03942e-20 0.75337 -2.99608e-06 0.753304)
(0.753338 3.702e-20 -2.00033e-20 0.75335 -1.84029e-05 0.753312)
(0.753329 -1.74756e-20 -9.45743e-21 0.753361 -8.23542e-06 0.753309)
(0.753334 1.80118e-21 8.72131e-22 0.753353 -1.40688e-05 0.753313)
(0.753332 5.04617e-21 -2.73466e-20 0.753355 -1.11045e-05 0.753313)
(0.753333 -3.6566e-21 -3.69324e-21 0.753351 -1.25332e-05 0.753316)
(0.753333 -1.46418e-21 -9.6051e-22 0.753349 -1.26768e-05 0.753319)
(0.753333 5.23088e-21 -2.18747e-20 0.753344 -1.40687e-05 0.753323)
(0.753333 -3.40783e-21 1.73561e-21 0.753344 -1.5349e-05 0.753324)
(0.753333 -7.21191e-21 -5.03126e-21 0.753353 -1.91777e-05 0.753314)
(0.753332 4.56168e-21 -1.30099e-20 0.753376 -2.69207e-05 0.753291)
(0.753337 5.00888e-21 6.3414e-21 0.753398 -4.26564e-05 0.753265)
(0.753329 1.34071e-20 7.51361e-21 0.753363 3.15432e-06 0.753308)
(0.753332 1.7699e-19 1.2325e-19 0.752973 0.000212152 0.753695)
(0.753336 -1.17718e-19 -9.91798e-20 0.753351 -1.41512e-05 0.753313)
(0.753329 -4.56592e-20 -8.74776e-21 0.753367 -7.68068e-06 0.753305)
(0.753337 9.20127e-21 6.49554e-21 0.753354 -1.75282e-05 0.753309)
(0.75333 2.06464e-21 -3.03148e-20 0.753362 -7.99272e-06 0.753307)
(0.753335 -9.16293e-21 7.67692e-21 0.753355 -1.34113e-05 0.75331)
(0.753332 -1.31843e-20 -6.42848e-21 0.75336 -1.03429e-05 0.753308)
(0.753334 9.72756e-21 -1.54792e-20 0.753364 -1.60338e-05 0.753303)
(0.753333 1.36657e-21 1.06975e-20 0.753371 -2.19208e-05 0.753296)
(0.753333 1.83209e-21 -1.72046e-21 0.753365 -2.52192e-05 0.753302)
(0.753333 1.07118e-20 -1.14507e-20 0.753343 -1.9034e-05 0.753323)
(0.753333 -1.55716e-20 -1.25809e-20 0.753327 -1.20222e-05 0.753339)
(0.753333 -3.13009e-20 -2.55782e-20 0.753333 -1.18111e-05 0.753334)
(0.753332 1.42919e-20 -3.80104e-21 0.753347 -8.34623e-06 0.753321)
(0.753332 2.40532e-20 1.09866e-20 0.753424 -3.8806e-05 0.753244)
(0.753332 1.83363e-19 8.57143e-20 0.752958 0.000221448 0.75371)
(0.753336 -1.13458e-19 -9.94905e-20 0.753353 -1.15523e-05 0.753311)
(0.75333 -2.97282e-20 -2.81216e-20 0.753365 -7.06412e-06 0.753305)
(0.753336 1.40188e-20 -4.83553e-21 0.753355 -1.40638e-05 0.753308)
(0.753331 4.90889e-21 -2.94134e-20 0.753362 -6.24083e-06 0.753308)
(0.753335 5.28755e-21 -1.77825e-20 0.753355 -1.03209e-05 0.75331)
(0.753332 -6.30277e-21 -1.45179e-20 0.753361 -7.75109e-06 0.753307)
(0.753334 1.98401e-20 -1.28706e-20 0.75337 -1.61652e-05 0.753296)
(0.753333 2.41562e-20 5.01746e-21 0.753392 -2.62843e-05 0.753275)
(0.753333 4.64486e-20 1.97439e-20 0.753401 -3.39551e-05 0.753266)
(0.753333 4.38684e-20 1.68674e-20 0.753385 -2.91184e-05 0.753282)
(0.753333 -3.61323e-21 -5.67818e-21 0.753352 -1.84727e-05 0.753315)
(0.753333 -4.5767e-20 -3.18524e-20 0.753318 -6.07023e-06 0.753349)
(0.75333 -3.94149e-20 -2.85184e-20 0.7533 5.94103e-06 0.753369)
(0.753336 -2.31366e-20 -1.61937e-20 0.753372 -4.35133e-05 0.753292)
(0.753332 1.64014e-19 1.18847e-19 0.752938 0.000226333 0.75373)
(0.753336 -1.32084e-19 -5.78939e-20 0.753345 -6.64567e-06 0.753319)
(0.753331 -5.4933e-20 1.07523e-20 0.753368 -1.19399e-05 0.753301)
(0.753336 8.63541e-21 -3.03052e-21 0.753353 -1.47256e-05 0.753311)
(0.753331 -2.16941e-20 -2.60597e-22 0.753358 -7.64057e-06 0.753311)
(0.753335 -1.32277e-20 2.52282e-20 0.75335 -1.20256e-05 0.753314)
(0.753332 -4.727e-21 4.7051e-21 0.753355 -8.12099e-06 0.753313)
(0.753334 -8.34874e-21 5.09879e-21 0.753359 -1.44837e-05 0.753307)
(0.753333 2.31598e-21 2.58683e-20 0.753378 -2.0225e-05 0.753289)
(0.753334 4.15177e-20 2.04716e-20 0.753397 -2.82404e-05 0.75327)
(0.753334 2.08839e-20 2.24313e-20 0.753405 -2.99558e-05 0.753261)
(0.753334 -1.33784e-20 7.66193e-22 0.753404 -3.0181e-05 0.753262)
(0.753333 -5.25625e-20 -2.87019e-20 0.753388 -2.47521e-05 0.753279)
(0.753337 -3.66213e-20 -2.50247e-20 0.75334 -1.54388e-05 0.753323)
(0.753333 3.33298e-20 1.97393e-20 0.753265 2.19809e-05 0.753402)
(0.753332 1.68902e-19 1.21241e-19 0.752943 0.000216772 0.753725)
(0.753335 -1.15826e-19 -4.98855e-20 0.753325 1.90421e-06 0.753339)
(0.753331 -6.68165e-20 -1.11849e-20 0.753374 -1.95507e-05 0.753295)
(0.753336 9.90272e-21 6.55797e-21 0.753355 -1.94949e-05 0.753309)
(0.753331 -1.57036e-20 8.46899e-21 0.753356 -1.17146e-05 0.753313)
(0.753335 -1.50884e-20 1.42903e-20 0.75335 -1.59971e-05 0.753315)
(0.753332 1.56798e-21 -3.28137e-23 0.753352 -1.25216e-05 0.753315)
(0.753334 -1.32314e-20 4.11701e-21 0.753352 -1.57307e-05 0.753314)
(0.753333 -6.11503e-21 1.61946e-20 0.753359 -1.65411e-05 0.753308)
(0.753334 1.15414e-20 7.28341e-21 0.753368 -1.92401e-05 0.753298)
(0.753333 6.13837e-21 1.14605e-20 0.753379 -1.98108e-05 0.753287)
(0.753334 3.76057e-21 1.77339e-20 0.753388 -2.13021e-05 0.753278)
(0.753331 1.59799e-20 7.5277e-21 0.7534 -1.95736e-05 0.753269)
(0.753339 -3.85153e-20 -2.81293e-20 0.753398 -3.54516e-05 0.753263)
(0.753331 -8.03373e-21 -6.05139e-21 0.753304 2.47798e-05 0.753365)
(0.753333 1.92566e-19 9.3362e-20 0.752967 0.000201932 0.7537)
(0.753334 -8.93967e-20 -5.51595e-20 0.753306 1.22176e-05 0.75336)
(0.753332 -6.97098e-20 -6.43369e-20 0.753378 -2.39208e-05 0.75329)
(0.753335 2.45361e-21 1.85615e-21 0.753361 -2.23401e-05 0.753304)
(0.753332 -1.06915e-21 -1.72406e-21 0.753357 -1.40266e-05 0.753311)
(0.753334 -4.9389e-22 -1.1988e-20 0.753352 -1.69135e-05 0.753313)
(0.753333 3.68987e-21 -1.26355e-21 0.753354 -1.43684e-05 0.753314)
(0.753334 1.29996e-21 -5.34624e-22 0.753353 -1.59625e-05 0.753314)
(0.753333 4.0114e-21 -9.51418e-21 0.753354 -1.54137e-05 0.753313)
(0.753333 -2.24134e-21 -2.16255e-21 0.753357 -1.60641e-05 0.75331)
(0.753333 -5.63457e-22 -4.66297e-22 0.753362 -1.61956e-05 0.753305)
(0.753333 9.7193e-21 1.46705e-21 0.753369 -1.79712e-05 0.753298)
(0.753332 8.90756e-21 6.55269e-21 0.753383 -1.97573e-05 0.753285)
(0.753336 -3.99637e-20 -2.15849e-20 0.753396 -3.34687e-05 0.753267)
(0.753329 7.73216e-21 8.31059e-21 0.753349 7.8467e-06 0.753322)
(0.753333 1.95924e-19 1.13903e-19 0.752989 0.000192108 0.753678)
(0.753333 -7.8974e-20 -4.78667e-20 0.753294 1.96039e-05 0.753372)
(0.753332 -7.21393e-20 -8.63503e-20 0.753377 -2.48017e-05 0.75329)
(0.753335 -2.06632e-21 -3.10165e-22 0.753365 -2.29127e-05 0.753301)
(0.753332 -4.09209e-22 -3.97474e-22 0.753358 -1.44777e-05 0.75331)
(0.753334 8.97446e-21 -2.70278e-20 0.753354 -1.58117e-05 0.753312)
(0.753333 3.68237e-21 2.72467e-21 0.753355 -1.35116e-05 0.753313)
(0.753334 -3.8448e-21 -2.21957e-21 0.753353 -1.41506e-05 0.753313)
(0.753333 7.25194e-21 -1.70734e-20 0.753354 -1.30352e-05 0.753313)
(0.753333 3.84389e-21 3.33823e-21 0.753354 -1.28714e-05 0.753313)
(0.753333 -9.72541e-21 -4.87297e-21 0.753355 -1.26304e-05 0.753311)
(0.753334 4.31856e-21 -1.21303e-20 0.753359 -1.38852e-05 0.753307)
(0.753333 1.24895e-20 1.03283e-20 0.753369 -1.60675e-05 0.753298)
(0.753336 -5.79264e-20 -3.22436e-20 0.753388 -2.90455e-05 0.753276)
(0.753331 3.2663e-20 1.97752e-20 0.753375 -1.19727e-05 0.753293)
(0.753334 2.0876e-19 1.00332e-19 0.753005 0.000186488 0.753662)
(0.753333 -6.98817e-20 -4.16611e-20 0.753289 2.23403e-05 0.753378)
(0.753333 -9.35737e-20 -7.45721e-20 0.753375 -2.48408e-05 0.753292)
(0.753334 1.66563e-21 -2.94741e-20 0.753367 -2.35215e-05 0.753299)
(0.753333 6.78286e-21 3.68498e-21 0.753358 -1.48971e-05 0.75331)
(0.753334 -6.31878e-21 -1.16173e-20 0.753352 -1.46585e-05 0.753314)
(0.753333 1.09168e-20 -1.48933e-20 0.753353 -1.23882e-05 0.753314)
(0.753334 4.95854e-21 3.33608e-21 0.753352 -1.26081e-05 0.753315)
(0.753333 -4.09728e-22 -9.75527e-21 0.753352 -1.17527e-05 0.753315)
(0.753333 1.22778e-21 -1.17317e-20 0.753351 -1.14575e-05 0.753315)
(0.753333 -2.84294e-21 1.82942e-22 0.753352 -1.0528e-05 0.753315)
(0.753334 -8.44348e-21 -7.03149e-21 0.753353 -9.73245e-06 0.753314)
(0.753333 1.64695e-20 2.77237e-21 0.753359 -9.03455e-06 0.753308)
(0.753335 -2.32422e-20 -6.95574e-21 0.753381 -2.18833e-05 0.753284)
(0.753332 2.54993e-20 1.37712e-20 0.753405 -2.87202e-05 0.753262)
(0.753334 2.01758e-19 1.06287e-19 0.753015 0.0001843 0.753651)
(0.753333 -8.60696e-20 -3.5261e-20 0.753293 1.92717e-05 0.753374)
(0.753333 -8.62535e-20 -1.08458e-19 0.753371 -2.5729e-05 0.753296)
(0.753334 6.63888e-21 3.83337e-21 0.753366 -2.37702e-05 0.7533)
(0.753333 -1.28973e-20 1.09299e-20 0.753357 -1.55972e-05 0.753311)
(0.753334 -2.46522e-22 -4.3409e-20 0.75335 -1.52928e-05 0.753316)
(0.753333 2.51875e-20 1.15123e-20 0.75335 -1.38089e-05 0.753317)
(0.753334 -1.56083e-20 -8.95905e-22 0.753349 -1.45415e-05 0.753318)
(0.753333 -1.77405e-20 -4.12314e-20 0.753348 -1.36421e-05 0.753318)
(0.753333 1.72606e-20 1.07485e-20 0.753346 -1.16069e-05 0.75332)
(0.753333 -1.54637e-21 8.68481e-21 0.753344 -7.0734e-06 0.753323)
(0.753333 -1.0842e-20 -3.26799e-20 0.753341 -1.46053e-06 0.753326)
(0.753333 -1.06931e-20 -8.75947e-21 0.753345 1.79712e-06 0.753322)
(0.753334 -1.10371e-20 -2.68578e-20 0.753371 -1.09543e-05 0.753295)
(0.753333 8.9165e-20 5.25071e-20 0.753453 -5.34892e-05 0.753214)
(0.753334 1.86861e-19 1.0921e-19 0.753019 0.000183909 0.753647)
(0.753333 -1.17996e-19 -5.19769e-20 0.753316 1.09534e-05 0.753351)
(0.753333 -7.865e-20 -7.31402e-20 0.75337 -2.2918e-05 0.753296)
(0.753334 3.65103e-20 2.08345e-20 0.753365 -2.03937e-05 0.753301)
(0.753333 -3.45667e-20 -7.06832e-21 0.753362 -1.70235e-05 0.753305)
(0.753334 2.32473e-21 -1.70015e-20 0.753357 -1.85209e-05 0.753309)
(0.753333 5.12409e-20 2.23579e-20 0.753354 -1.75168e-05 0.753313)
(0.753334 -3.51957e-20 -1.06301e-20 0.753349 -1.75616e-05 0.753317)
(0.753333 -3.23177e-20 -3.68475e-20 0.753343 -1.4264e-05 0.753324)
(0.753333 2.83708e-20 7.24108e-21 0.753334 -8.08671e-06 0.753333)
(0.753333 -2.69829e-20 -1.81725e-20 0.753323 1.30037e-06 0.753344)
(0.753333 -3.20749e-20 -3.17991e-20 0.753318 1.0073e-05 0.753349)
(0.753334 -2.11416e-20 -5.7775e-21 0.753326 1.07625e-05 0.753341)
(0.753333 -3.04669e-20 -2.19716e-20 0.753362 -5.73084e-06 0.753304)
(0.753333 1.14449e-19 6.72346e-20 0.753504 -8.75952e-05 0.753163)
(0.753333 1.76692e-19 7.5314e-20 0.752993 0.00018997 0.753674)
(0.753334 -9.40735e-20 -7.43262e-20 0.753319 1.21993e-05 0.753348)
(0.753333 -9.32236e-20 -3.68822e-20 0.753387 -2.11079e-05 0.75328)
(0.753334 5.4285e-20 8.73738e-21 0.753371 -1.51469e-05 0.753295)
(0.753333 1.11659e-20 7.89916e-21 0.753371 -1.5212e-05 0.753296)
(0.753333 2.93571e-20 1.16742e-20 0.753374 -2.04202e-05 0.753293)
(0.753333 5.89941e-20 2.31248e-20 0.753371 -1.96945e-05 0.753296)
(0.753333 -8.88109e-21 1.0859e-20 0.753363 -1.80369e-05 0.753303)
(0.753333 -1.96708e-20 -2.89506e-20 0.753351 -1.25897e-05 0.753316)
(0.753333 -2.9646e-20 -2.64544e-20 0.75333 -3.5995e-06 0.753336)
(0.753333 -6.86147e-20 -3.75404e-20 0.753306 7.68438e-06 0.753361)
(0.753333 -4.43793e-20 -3.60306e-20 0.75329 1.52005e-05 0.753377)
(0.753334 -3.08577e-20 -2.08927e-20 0.753296 1.04881e-05 0.75337)
(0.753332 -3.67322e-20 -1.43265e-20 0.753349 -1.206e-05 0.753319)
(0.753334 1.16347e-19 5.20697e-20 0.753523 -0.000113568 0.753143)
(0.753333 1.35389e-19 7.83185e-20 0.753011 0.000161833 0.753655)
(0.753334 -2.72067e-20 -2.7121e-20 0.753246 3.80349e-05 0.75342)
(0.753333 -7.22986e-20 -9.73723e-20 0.753364 -6.96477e-06 0.753302)
(0.753334 -8.3237e-21 -2.85297e-20 0.753391 -1.38726e-05 0.753275)
(0.753333 3.15507e-20 3.15832e-21 0.753389 -1.15379e-05 0.753277)
(0.753334 4.42906e-20 2.24699e-20 0.753385 -1.11715e-05 0.753281)
(0.753333 4.78307e-20 3.75022e-20 0.753381 -1.01239e-05 0.753286)
(0.753334 2.80749e-20 6.2621e-21 0.753377 -1.03872e-05 0.753289)
(0.753333 -4.17779e-21 -4.35207e-21 0.753373 -9.38759e-06 0.753294)
(0.753334 -4.19623e-20 -2.09799e-20 0.753363 -7.06304e-06 0.753304)
(0.753333 -5.89074e-20 -4.36036e-20 0.753344 -1.98573e-06 0.753323)
(0.753334 -4.16819e-20 -3.36852e-20 0.753317 4.27514e-06 0.753349)
(0.753334 -2.86573e-20 -2.06787e-20 0.753296 6.21832e-06 0.75337)
(0.753332 -2.15214e-20 -2.96344e-20 0.75332 -9.97961e-06 0.753348)
(0.753335 5.0773e-20 1.49543e-20 0.753444 -8.50838e-05 0.753221)
(0.753332 8.68831e-20 5.57092e-20 0.753113 0.000102685 0.753555)
(0.753334 6.88468e-20 3.49269e-20 0.753154 5.83479e-05 0.753512)
(0.753333 -2.53515e-20 -5.57415e-21 0.753244 2.12702e-05 0.753423)
(0.753333 -4.1476e-20 -3.11716e-20 0.753321 -9.01609e-06 0.753345)
(0.753333 -1.13138e-20 -3.22002e-20 0.753368 -2.31413e-05 0.753299)
(0.753333 1.21846e-20 3.72142e-20 0.753389 -2.71417e-05 0.753278)
(0.753333 2.7254e-20 3.93537e-20 0.753393 -2.21604e-05 0.753273)
(0.753333 1.61902e-20 1.15354e-20 0.753387 -1.55144e-05 0.75328)
(0.753333 -1.31162e-20 1.64638e-20 0.75338 -1.08093e-05 0.753286)
(0.753333 -7.55859e-21 3.84704e-21 0.753377 -7.71034e-06 0.753289)
(0.753333 7.43091e-23 3.22838e-21 0.753377 -6.28629e-06 0.75329)
(0.753333 -1.48163e-20 7.53504e-21 0.753374 -6.33488e-06 0.753292)
(0.753334 -1.35088e-20 -3.1283e-21 0.753368 -7.29996e-06 0.753299)
(0.753332 6.38107e-21 3.86428e-21 0.753373 -1.28328e-05 0.753295)
(0.753335 -9.0688e-20 -4.55725e-20 0.75338 -2.01226e-05 0.753286)
(0.753439 -2.81395e-22 -1.80862e-23 0.753188 0.000121426 0.753373)
(0.75331 -6.25223e-22 -2.92773e-22 0.753368 0.000134946 0.753322)
(0.753335 -9.79002e-22 -1.4444e-22 0.753329 2.54356e-05 0.753336)
(0.753334 -1.59541e-21 -2.65933e-22 0.753328 -3.24016e-06 0.753339)
(0.753335 -2.78521e-21 -5.3371e-22 0.753324 7.77949e-06 0.753341)
(0.753333 4.58678e-23 -1.03289e-21 0.753331 -1.10341e-06 0.753336)
(0.753333 2.30541e-21 -4.91783e-22 0.753329 -6.15575e-06 0.753338)
(0.753334 3.21543e-21 -1.97823e-22 0.753327 -3.89389e-06 0.753339)
(0.753334 -6.60708e-21 -8.04589e-22 0.753328 5.3187e-07 0.753339)
(0.753333 -5.92333e-21 -2.27056e-21 0.753331 -3.25736e-07 0.753336)
(0.753333 5.53743e-21 -2.04037e-21 0.75333 -6.69505e-06 0.753338)
(0.753334 1.80548e-22 -1.7704e-21 0.753327 -6.08402e-07 0.753339)
(0.753333 4.91724e-22 -1.54336e-21 0.753331 -7.14134e-07 0.753335)
(0.753333 6.61046e-21 -1.81388e-21 0.75333 -5.584e-06 0.753337)
(0.753334 5.37905e-21 -1.11926e-21 0.753328 -3.50863e-06 0.753338)
(0.753333 -1.54576e-22 -9.96182e-22 0.753329 -1.06877e-06 0.753337)
(0.753333 -1.25941e-21 -1.3955e-21 0.753332 -6.17206e-07 0.753335)
(0.753332 3.85798e-21 -1.56817e-21 0.753331 -5.74465e-06 0.753336)
(0.753335 -6.47696e-22 -1.1462e-21 0.753327 -1.71868e-06 0.753338)
(0.753333 -5.40333e-22 -1.29903e-21 0.753333 -5.8438e-07 0.753334)
(0.753333 2.76019e-21 -1.39164e-21 0.753331 -4.98856e-06 0.753336)
(0.753334 6.49399e-22 -1.12277e-21 0.753329 -3.58861e-06 0.753337)
(0.753334 -2.33219e-21 -1.30253e-21 0.75333 -2.44579e-06 0.753336)
(0.753333 -8.68879e-22 -1.25981e-21 0.753333 -8.31517e-07 0.753334)
(0.753333 1.13538e-21 -1.49454e-21 0.753332 -5.67538e-06 0.753335)
(0.753334 8.27621e-23 -1.4096e-21 0.75333 -4.95409e-06 0.753336)
(0.753333 -3.35361e-21 -1.55793e-21 0.753331 -4.07497e-06 0.753335)
(0.753333 -1.96341e-21 -1.20895e-21 0.753334 -1.14422e-06 0.753333)
(0.753332 -2.2562e-21 -2.01662e-21 0.753334 -5.66919e-06 0.753333)
(0.753335 -9.89952e-21 -2.76067e-21 0.753329 -5.03493e-06 0.753336)
(0.753333 -4.68027e-21 -1.09188e-21 0.753334 -1.14132e-06 0.753332)
(0.753333 -5.07177e-21 -3.77484e-21 0.753334 -4.39984e-06 0.753333)
(0.753334 -8.76836e-21 -4.39149e-21 0.753332 -4.11053e-06 0.753334)
(0.753334 -1.29026e-20 -5.68904e-21 0.753333 -4.45213e-06 0.753333)
(0.753333 -3.28075e-21 -1.78491e-21 0.753335 -6.55019e-07 0.753332)
(0.753332 8.71014e-21 -6.24338e-21 0.753336 -2.16747e-06 0.753332)
(0.753335 -4.4585e-21 -5.90277e-21 0.753331 -3.77306e-06 0.753334)
(0.753333 1.56989e-21 -2.62424e-21 0.753335 -3.49089e-07 0.753332)
(0.753333 1.48569e-20 -6.16159e-21 0.753335 -1.54835e-06 0.753332)
(0.753334 1.25662e-20 -4.54796e-21 0.753333 -1.8068e-06 0.753333)
(0.753334 6.17009e-21 -3.53636e-21 0.753334 -3.1116e-06 0.753333)
(0.753333 6.50519e-21 -2.19812e-21 0.753335 -6.187e-08 0.753331)
(0.753333 1.73538e-20 -2.37642e-21 0.753335 -9.07621e-07 0.753332)
(0.753334 1.66624e-20 -4.79904e-22 0.753333 -1.38612e-06 0.753333)
(0.753333 1.25555e-20 9.94447e-22 0.753334 -2.63548e-06 0.753333)
(0.753333 5.4227e-21 -1.11627e-22 0.753335 -1.21887e-08 0.753332)
(0.753333 2.94325e-21 1.88576e-21 0.753336 -2.10397e-07 0.753332)
(0.753335 4.27707e-21 2.35948e-21 0.753331 -1.9974e-06 0.753334)
(0.753333 -3.01977e-22 -1.06297e-21 0.753333 -1.03438e-07 0.753334)
(0.753333 -7.07189e-21 2.58342e-21 0.753334 -7.58192e-07 0.753332)
(0.753334 -7.78228e-21 1.70369e-21 0.753334 -8.23748e-07 0.753333)
(0.753334 -7.2835e-21 8.81019e-22 0.753333 -2.0451e-07 0.753333)
(0.753333 -4.49987e-21 -5.17772e-22 0.753333 1.63884e-06 0.753334)
(0.753333 -2.70273e-21 -7.52793e-23 0.753333 -1.92585e-06 0.753334)
(0.753334 -2.02329e-21 -3.44939e-22 0.753333 -2.53264e-06 0.753334)
(0.753333 -4.81313e-23 -3.95826e-22 0.753334 -2.67636e-06 0.753333)
(0.753333 3.53466e-22 2.66815e-21 0.753335 9.94087e-07 0.753332)
(0.753333 1.56513e-21 -2.80335e-22 0.753334 -1.31185e-06 0.753333)
(0.753333 1.92945e-22 -1.69026e-22 0.753333 -6.70691e-08 0.753334)
(0.753334 -4.97382e-21 6.67588e-21 0.753338 4.2928e-06 0.753328)
(0.753332 -6.82586e-21 -1.28596e-21 0.753334 1.02664e-06 0.753334)
(0.753334 4.63633e-21 -1.68985e-21 0.753331 -4.47053e-06 0.753335)
(0.753333 -2.45636e-20 -3.68795e-21 0.753331 7.35209e-06 0.753336)
(0.753334 -3.03159e-20 9.50886e-21 0.753342 1.51134e-05 0.753324)
(0.75333 -1.00949e-20 -1.06949e-20 0.753332 -1.89049e-07 0.753339)
(0.753334 5.33592e-20 -8.51248e-21 0.753324 -9.38077e-06 0.753342)
(0.753334 9.78623e-20 1.31694e-20 0.753347 -2.33505e-05 0.753319)
(0.75333 5.66494e-20 1.40791e-20 0.753345 -2.21949e-05 0.753325)
(0.753336 1.48187e-20 2.00542e-20 0.753337 -2.69532e-06 0.753327)
(0.753333 6.83793e-20 2.56219e-20 0.753349 -3.09232e-05 0.753319)
(0.753333 2.99955e-20 1.71365e-20 0.753357 -2.06398e-05 0.75331)
(0.753332 -2.62057e-20 3.24692e-20 0.753362 -8.60513e-07 0.753306)
(0.753336 -1.82564e-20 2.98818e-20 0.753356 1.6426e-07 0.753309)
(0.753334 3.27105e-20 3.26863e-20 0.753368 -3.24294e-05 0.753299)
(0.753332 4.09143e-21 1.21912e-20 0.753366 -1.24007e-05 0.753303)
(0.753341 -3.61383e-20 3.18256e-20 0.753359 1.40376e-05 0.7533)
(0.753333 3.78929e-20 3.23176e-20 0.753382 -3.48926e-05 0.753285)
(0.753331 -1.87923e-21 1.33088e-20 0.753368 -5.58949e-06 0.753301)
(0.753342 -4.12077e-20 3.28169e-20 0.753369 3.1892e-05 0.753288)
(0.753331 -4.88228e-21 2.92253e-20 0.753392 -3.71495e-05 0.753277)
(0.753329 -3.30707e-20 2.07647e-20 0.753364 -2.23988e-05 0.753306)
(0.753339 -5.11915e-20 1.87954e-20 0.753345 9.18521e-06 0.753317)
(0.753327 8.1897e-21 2.25555e-20 0.753377 -4.00135e-05 0.753296)
(0.753333 -2.48232e-20 2.4979e-20 0.753354 -9.99297e-06 0.753313)
(0.753337 -1.06799e-19 2.75298e-20 0.753349 -2.18133e-06 0.753313)
(0.753329 -1.19904e-19 2.3611e-20 0.753359 -2.52039e-05 0.753312)
(0.753336 -1.15402e-19 1.91934e-20 0.753347 9.27559e-06 0.753317)
(0.753332 -9.49033e-20 1.55222e-20 0.753354 1.04928e-05 0.753313)
(0.753333 -6.87928e-20 1.29974e-20 0.753352 8.98007e-06 0.753314)
(0.753333 -3.98684e-20 1.19527e-20 0.753354 -2.01883e-06 0.753313)
(0.753335 -6.22823e-21 1.30125e-20 0.753351 -1.71552e-05 0.753314)
(0.753331 4.90963e-20 1.79814e-20 0.75336 -2.9503e-05 0.753309)
(0.753333 1.43088e-20 1.85486e-20 0.753349 -5.51064e-06 0.753317)
(0.753334 2.80373e-20 1.43053e-20 0.75335 1.55705e-05 0.753316)
(0.753333 9.67947e-20 1.09308e-20 0.753349 -1.77909e-06 0.753317)
(0.753333 8.72572e-20 1.42498e-20 0.75335 -1.72415e-05 0.753317)
(0.753332 8.76639e-20 1.87812e-20 0.753349 -9.73816e-06 0.75332)
(0.753335 7.7696e-20 2.1274e-20 0.753343 9.59157e-06 0.753322)
(0.753332 4.40331e-20 2.25675e-20 0.753349 3.21966e-06 0.753319)
(0.753335 7.9024e-21 2.20014e-20 0.753344 2.12132e-06 0.753321)
(0.753331 2.23768e-20 2.36361e-20 0.753355 -1.79668e-05 0.753314)
(0.753333 -1.21803e-20 -7.07814e-21 0.753346 -9.87845e-06 0.75332)
(0.753335 -1.57284e-19 3.27999e-20 0.753341 4.9802e-06 0.753324)
(0.753332 -2.20672e-19 3.20553e-20 0.753345 -1.02049e-05 0.753323)
(0.753334 -2.18222e-19 2.51932e-20 0.753342 -9.62264e-06 0.753324)
(0.753334 -2.02271e-19 1.8207e-20 0.753342 -2.18294e-05 0.753324)
(0.753332 -1.76614e-19 1.22757e-20 0.753345 -3.46751e-05 0.753322)
(0.753333 -1.45749e-19 7.96395e-21 0.753343 -2.72049e-05 0.753325)
(0.753335 -1.12343e-19 5.10257e-21 0.753339 -1.95174e-05 0.753326)
(0.753332 -7.29205e-20 4.42399e-21 0.753347 -2.31805e-05 0.753321)
(0.753332 4.54998e-21 9.51997e-21 0.753348 -2.45461e-05 0.753319)
(0.753334 7.73637e-21 2.94475e-20 0.75334 -1.16713e-05 0.753327)
(0.753332 7.88255e-21 1.09862e-20 0.753338 -1.94594e-05 0.75333)
(0.753333 4.90241e-20 9.29184e-21 0.753336 -4.27409e-05 0.753331)
(0.753333 6.10605e-20 1.05502e-20 0.753338 -4.34003e-05 0.753329)
(0.753333 7.51384e-20 1.24646e-20 0.75334 -5.5278e-05 0.753327)
(0.753333 9.28694e-20 1.51863e-20 0.753345 -7.84331e-05 0.753322)
(0.753334 1.1941e-19 1.92304e-20 0.753343 -8.41935e-05 0.753322)
(0.75333 1.49313e-19 2.48368e-20 0.753352 -6.13707e-05 0.753318)
(0.753335 1.60395e-19 3.03364e-20 0.753341 -3.25232e-05 0.753324)
(0.753333 5.58537e-20 2.57868e-20 0.753325 -7.82357e-06 0.753342)
(0.753332 1.82014e-19 1.21729e-20 0.753336 -5.23034e-05 0.753332)
(0.753332 3.54559e-19 7.52222e-21 0.753332 -9.51697e-05 0.753336)
(0.753333 3.1481e-19 1.87538e-20 0.753331 -6.63971e-05 0.753335)
(0.753334 2.72428e-19 2.84512e-20 0.753334 -5.11562e-05 0.753332)
(0.753332 1.70036e-19 3.49897e-20 0.753342 -5.04057e-05 0.753327)
(0.753338 2.55197e-20 3.45235e-20 0.753331 -4.62143e-05 0.75333)
(0.753326 -1.08143e-19 2.74196e-20 0.75336 -5.98917e-05 0.753314)
(0.753338 -1.27933e-19 1.90655e-20 0.753321 -9.92413e-06 0.753341)
(0.753334 -1.06294e-19 -2.09369e-20 0.753303 1.69239e-05 0.753364)
(0.753327 -4.43012e-19 4.82671e-20 0.75334 -2.78959e-06 0.753333)
(0.753337 -6.18365e-19 4.6214e-20 0.75332 9.14997e-06 0.753343)
(0.753332 -4.52655e-19 2.16367e-20 0.753327 -1.90566e-05 0.753341)
(0.753332 -3.03498e-19 6.277e-21 0.753322 -1.7635e-05 0.753346)
(0.753335 -1.44211e-19 -1.35378e-21 0.753314 4.40617e-06 0.753351)
(0.753336 -3.42826e-20 -2.29237e-21 0.75331 2.6501e-06 0.753354)
(0.753325 1.75617e-20 -6.45152e-22 0.753331 8.65855e-06 0.753344)
(0.753345 1.59184e-20 -3.91403e-22 0.753282 4.86511e-05 0.753372)
(0.753333 -4.04074e-21 -4.04709e-21 0.75329 8.97536e-06 0.753377)
(0.753327 -3.57619e-20 4.64989e-21 0.753321 -1.30144e-05 0.753353)
(0.753339 -6.89256e-20 5.46224e-21 0.753303 3.63941e-05 0.753359)
(0.753332 -7.62817e-20 3.75532e-21 0.753312 4.25575e-05 0.753355)
(0.753333 -5.87456e-20 1.13209e-21 0.75331 7.33215e-05 0.753358)
(0.753334 -5.60275e-20 -7.52376e-22 0.753301 0.000115178 0.753365)
(0.753335 9.06396e-21 4.0346e-21 0.753294 0.000119177 0.75337)
(0.753333 7.38331e-20 7.11077e-21 0.753292 0.000113091 0.753376)
(0.75333 8.74383e-20 1.05362e-20 0.753285 0.00014748 0.753386)
(0.753343 9.62088e-20 1.38785e-20 0.753245 0.000157894 0.753412)
(0.753333 1.86405e-20 1.41894e-20 0.753292 3.69494e-05 0.753375)
(0.75333 4.13118e-20 5.14429e-21 0.753315 8.20212e-05 0.753355)
(0.75334 8.4226e-20 3.64501e-21 0.753304 0.000170102 0.753356)
(0.75333 6.01304e-20 7.05363e-21 0.75331 0.000121035 0.75336)
(0.753337 7.99092e-20 8.89635e-21 0.753287 0.000153592 0.753375)
(0.753327 1.15652e-19 1.23792e-20 0.753295 0.000179839 0.753377)
(0.753338 1.33927e-19 1.27921e-20 0.753273 0.000185694 0.753389)
(0.753337 4.3039e-20 2.95886e-21 0.753303 5.4974e-05 0.75336)
(0.753327 -1.12877e-20 1.01167e-22 0.753328 -9.12353e-06 0.753345)
(0.753334 7.93811e-21 2.98247e-21 0.753326 2.55024e-06 0.75334)
(0.753327 8.70768e-21 7.25551e-22 0.753326 -1.32306e-05 0.753347)
(0.753339 2.11784e-20 3.40133e-22 0.753304 1.87075e-05 0.753356)
(0.753337 4.62132e-21 -3.09335e-21 0.753322 2.61554e-05 0.753341)
(0.75333 -4.07799e-21 -1.0749e-21 0.753341 2.5954e-06 0.75333)
(0.753337 3.0068e-21 -3.86059e-22 0.753326 1.79181e-06 0.753337)
(0.753329 2.51527e-23 -2.82708e-21 0.753339 9.75165e-06 0.753332)
(0.753334 2.49986e-21 -8.50897e-23 0.753331 3.90736e-06 0.753334)
(0.753334 6.86723e-22 -2.37651e-21 0.753329 8.6618e-06 0.753337)
(0.75333 5.72894e-22 -2.56321e-22 0.753339 4.76942e-06 0.75333)
(0.753336 3.42616e-21 -5.77783e-23 0.753327 2.93841e-06 0.753336)
(0.753333 -1.03981e-21 -1.98939e-21 0.753333 9.41606e-06 0.753334)
(0.753331 -1.11714e-21 -3.48035e-22 0.753338 4.72984e-06 0.753331)
(0.753336 1.49129e-21 -2.6799e-22 0.753328 3.4063e-06 0.753336)
(0.75333 -4.2151e-22 -1.94191e-21 0.753338 9.31666e-06 0.753331)
(0.753334 2.97223e-22 -3.0059e-22 0.753332 4.62013e-06 0.753334)
(0.753335 4.14587e-22 -1.84857e-21 0.753329 8.61623e-06 0.753336)
(0.753331 1.21369e-21 -1.86608e-22 0.753338 4.94134e-06 0.753331)
(0.753336 1.8292e-21 -1.65577e-22 0.753328 3.84215e-06 0.753336)
(0.75333 4.91962e-22 -1.24964e-21 0.753339 9.22272e-06 0.753331)
(0.753334 2.222e-21 -1.46365e-22 0.753332 4.83685e-06 0.753334)
(0.753335 8.19767e-22 -8.43016e-22 0.75333 8.59905e-06 0.753336)
(0.75333 -4.90477e-22 -1.20181e-22 0.753339 5.21803e-06 0.753331)
(0.753336 2.37471e-22 -4.01583e-23 0.753327 4.21289e-06 0.753337)
(0.753333 -1.37456e-21 -9.94134e-22 0.753334 8.96906e-06 0.753334)
(0.753331 -9.07545e-22 -1.54447e-22 0.753337 5.08986e-06 0.753332)
(0.753336 2.23055e-21 -5.23241e-23 0.753328 4.13893e-06 0.753336)
(0.75333 -3.37273e-22 -1.08299e-21 0.753338 8.84759e-06 0.753331)
(0.753334 -1.76275e-22 -1.53804e-22 0.753332 4.90326e-06 0.753334)
(0.753335 1.29362e-22 -1.15912e-21 0.75333 8.35127e-06 0.753336)
(0.753331 5.7947e-25 -6.5285e-23 0.753338 5.12804e-06 0.753331)
(0.753336 1.21895e-21 -1.07489e-22 0.753328 4.02649e-06 0.753336)
(0.75333 4.76899e-22 -7.3592e-22 0.753338 8.5462e-06 0.753331)
(0.753334 4.52635e-22 -1.01741e-22 0.753332 4.76838e-06 0.753334)
(0.753335 4.74779e-22 -5.09327e-22 0.75333 7.80475e-06 0.753336)
(0.753331 -1.67412e-23 -1.02338e-22 0.753338 5.03563e-06 0.753331)
(0.753336 2.16445e-21 -3.6828e-23 0.753328 3.98221e-06 0.753336)
(0.753333 1.35107e-23 -2.27959e-22 0.753333 7.92831e-06 0.753334)
(0.753331 -8.11581e-22 -1.3364e-22 0.753337 4.74572e-06 0.753332)
(0.753335 1.2633e-21 -3.46033e-23 0.753329 3.90956e-06 0.753336)
(0.753331 -1.41918e-21 -5.55496e-22 0.753338 7.70601e-06 0.753331)
(0.753334 -1.12184e-21 -1.86435e-22 0.753332 4.45437e-06 0.753334)
(0.753335 -1.65346e-21 -1.17643e-21 0.75333 6.98971e-06 0.753335)
(0.753331 -1.05225e-21 -2.84469e-22 0.753338 4.33479e-06 0.753331)
(0.753336 -6.07482e-22 -1.81144e-22 0.753329 3.89347e-06 0.753336)
(0.753331 5.79257e-23 -1.35477e-21 0.753339 7.32695e-06 0.75333)
(0.753334 1.20975e-21 -2.135e-22 0.753332 4.37958e-06 0.753334)
(0.753335 1.82366e-21 -7.86476e-22 0.753331 7.03048e-06 0.753334)
(0.753331 8.16672e-22 -7.04403e-23 0.753338 4.45858e-06 0.753331)
(0.753336 3.23873e-21 -9.87033e-23 0.753328 4.5615e-06 0.753336)
(0.753333 2.32639e-21 2.97401e-22 0.753334 7.66925e-06 0.753332)
(0.753331 1.07918e-21 1.02456e-22 0.753337 4.62458e-06 0.753332)
(0.753335 -4.3634e-23 9.03657e-23 0.753329 4.62469e-06 0.753336)
(0.753331 1.42341e-22 7.73823e-22 0.753338 7.96085e-06 0.753331)
(0.753334 -1.85922e-21 1.41787e-22 0.753332 4.83496e-06 0.753334)
(0.753335 -5.21856e-22 5.709e-22 0.75333 7.60264e-06 0.753335)
(0.753331 1.588e-21 9.8417e-23 0.753337 4.70238e-06 0.753332)
(0.753335 -4.04091e-22 7.19701e-23 0.753328 4.31821e-06 0.753336)