/*--------------------------------*- C++ -*----------------------------------*\
| =========                 |                                                 |
| \\      /  F ield         | OpenFOAM: The Open Source CFD Toolbox           |
|  \\    /   O peration     | Version:  4.1                                   |
|   \\  /    A nd           | Web:      www.OpenFOAM.org                      |
|    \\/     M anipulation  |                                                 |
\*---------------------------------------------------------------------------*/
FoamFile
{
    version     2.0;
    format      ascii;
    class       surfaceScalarField;
    location    "21";
    object      phi;
}
// * * * * * * * * * * * * * * * * * * * * * * * * * * * * * * * * * * * * * //

dimensions      [0 3 -1 0 0 0 0];

internalField   nonuniform List<scalar> 
420
(
-949.879
2249.78
-1573.95
1924.28
-2054
1779.95
-2424.23
1670.13
-2699.86
1575.82
-2888.38
1488.42
-2993.05
1404.58
-3013.85
1321
-2949.61
1235.66
-2797.23
1147.52
-2551.17
1054.13
-2193
941.735
-1687.16
794.065
-1012.67
625.703
287.232
373.334
1876.44
442.748
1854.86
437.301
1785.39
406.697
1700.74
380.58
1601.94
359.9
1509.1
345.292
1419.19
337.535
1328.76
333.483
1239.71
326.953
1154.05
309.609
1071.48
267.467
983.877
191.429
870.103
111.448
705.684
398.679
33.5751
1842.87
-97.3893
1985.83
-253.614
1941.62
-371.12
1818.24
-473.184
1704.01
-567.532
1603.45
-651.748
1503.4
-725.796
1402.8
-788.074
1301.99
-837.306
1203.28
-868.224
1102.4
-856.086
971.739
-740.333
754.35
-434.285
399.633
-35.6057
28.7748
1814.09
-100.654
2115.25
-225.562
2066.52
-304.497
1897.18
-368.158
1767.67
-416.955
1652.24
-446.23
1532.68
-457.018
1413.59
-451.857
1296.83
-430.157
1181.58
-387.227
1059.47
-311.872
896.383
-192.863
635.34
-48.4077
255.175
-84.0144
169.623
1644.47
146.156
2138.72
123.731
2088.95
122.868
1898.04
126.939
1763.6
135.802
1643.38
149.099
1519.38
166.587
1396.1
186.938
1276.47
208.126
1160.4
229.128
1038.47
243.821
881.691
233.006
646.157
155.23
332.948
71.2162
223.073
1421.4
244.177
2117.62
234.74
2098.39
236.019
1896.76
240.366
1759.25
244.301
1639.45
246.544
1517.14
245.246
1397.4
241.157
1280.56
233.984
1167.57
221.379
1051.07
199.136
903.935
156.139
689.156
78.2993
410.787
149.517
203.313
1218.08
238.363
2082.56
213.611
2123.14
191.401
1918.97
177.195
1773.45
163.764
1652.88
150.031
1530.87
135.889
1411.54
121.063
1295.39
106.914
1181.72
92.8192
1065.17
75.7687
920.987
52.0215
712.903
19.0192
443.789
168.539
171.845
1046.24
221.97
2032.44
199.411
2145.7
170.397
1947.98
152.048
1791.8
137.667
1667.26
122.777
1545.76
108.579
1425.74
95.5826
1308.38
83.1041
1194.2
71.4867
1076.79
58.6374
933.835
40.3263
731.213
15.7516
468.364
184.291
146.087
900.152
210.044
1968.48
196.86
2158.88
170.042
1974.8
152.395
1809.45
139.525
1680.12
127.064
1558.22
113.859
1438.94
101.315
1320.92
89.415
1206.1
76.9827
1089.22
63.0897
947.728
44.3101
749.993
19.1709
493.504
203.46
116.752
783.4
184.835
1900.4
179.61
2164.1
154.297
2000.12
137.206
1826.54
123.987
1693.34
111.36
1570.85
98.9517
1451.35
86.1008
1333.77
73.8628
1218.33
62.101
1100.98
49.0247
960.804
32.8579
766.159
13.1857
513.173
216.643
83.1518
700.248
143.116
1840.43
144.673
2162.55
122.746
2022.05
106.135
1843.15
94.4493
1705.03
82.5658
1582.73
71.1563
1462.76
60.3759
1344.56
49.4513
1229.26
39.4227
1111.01
29.744
970.485
18.0868
777.817
5.24368
526.014
221.886
51.2345
649.007
97.9165
1793.75
102.711
2157.76
87.377
2037.38
73.1536
1857.38
63.1433
1715.05
54.2428
1591.63
44.8611
1472.15
36.146
1353.27
28.1673
1237.24
20.418
1118.77
13.6796
977.234
6.74132
784.768
-0.405433
533.173
221.493
25.1245
623.876
57.7148
1761.17
63.505
2151.97
53.4733
2047.4
43.9075
1866.95
36.1946
1722.75
29.575
1598.26
23.5321
1478.19
17.0882
1359.72
11.3423
1242.99
6.64168
1123.48
2.50021
981.377
-1.06088
788.336
-3.68241
535.803
217.819
1.41534
622.471
24.036
1738.54
33.3266
2142.67
27.7076
2053.03
20.3544
1874.3
15.0624
1728.05
9.5383
1603.79
4.59302
1483.13
0.0564469
1364.26
-4.80709
1247.85
-8.31785
1126.98
-9.62728
982.68
-9.69938
788.4
-7.12176
533.217
210.672
-11.7448
-3.14906
1.44369
-0.413934
-5.10901
-8.85769
-11.8069
-15.2445
-18.104
-20.2337
-21.7928
-21.1224
-18.124
-12.3882
)
;

boundaryField
{
    inletFace
    {
        type            calculated;
        value           nonuniform List<scalar> 
450
(
2.64216e-14
6.54698e-13
-2.09716e-13
-9.26285e-14
1.70869e-13
-1.94656e-13
-5.90254e-14
7.10931e-14
-9.99935e-14
-2.34659e-14
6.29248e-14
-2.32877e-14
-7.97573e-15
5.3329e-15
8.29546e-16
-2.09644e-12
-2.47053e-12
-8.02409e-14
-6.17079e-13
-2.58916e-13
5.17822e-14
-2.75236e-13
-1.44747e-13
2.24792e-15
-1.60273e-13
-5.72265e-14
4.81848e-14
-2.57611e-14
-6.28553e-15
-6.97932e-16
-2.35263e-12
-2.63454e-12
-3.23115e-13
-6.94907e-13
-2.463e-13
-1.05672e-13
-3.28959e-13
-1.14266e-13
-7.26929e-14
-1.38699e-13
-3.66136e-14
-2.20313e-15
-2.81889e-14
-2.37362e-15
8.38323e-15
-2.68019e-12
-2.23341e-12
-4.64267e-13
-9.26365e-13
-2.26388e-13
-2.15871e-13
-4.32973e-13
-9.25919e-14
-1.13706e-13
-1.46627e-13
-3.99805e-14
-3.09344e-14
-5.56385e-14
2.4214e-14
8.36367e-14
-2.47798e-12
-2.23263e-12
-5.50988e-13
-8.70057e-13
-2.47294e-13
-2.38411e-13
-3.95234e-13
-8.47589e-14
-8.74319e-14
-1.49039e-13
-4.72618e-14
9.94817e-16
-4.04816e-14
3.68349e-15
6.3119e-14
-2.18078e-12
-2.28168e-12
-6.66329e-13
-7.19154e-13
-2.49556e-13
-2.45577e-13
-3.61828e-13
-1.02407e-13
-7.21121e-14
-1.48187e-13
-1.89916e-14
3.14102e-14
-2.4435e-14
2.67568e-14
1.38573e-14
-1.94743e-12
-2.32651e-12
-8.63067e-13
-6.4758e-13
-2.98987e-13
-2.5675e-13
-3.46568e-13
-1.65346e-13
-1.2448e-13
-1.3085e-13
-5.26624e-14
-4.11202e-14
1.17455e-14
-4.08442e-14
-1.83493e-13
-1.70609e-12
-2.3291e-12
-1.03184e-12
-6.27543e-13
-3.30383e-13
-2.54496e-13
-3.25422e-13
-2.03895e-13
-1.39448e-13
-1.33013e-13
-1.01502e-13
-1.04447e-13
1.09096e-14
5.34635e-15
-2.15653e-13
-1.45315e-12
-2.29473e-12
-1.16069e-12
-6.29774e-13
-3.42487e-13
-2.43498e-13
-3.29218e-13
-2.18367e-13
-1.40297e-13
-1.18119e-13
-1.03951e-13
-7.01635e-14
-3.61249e-14
4.00846e-15
-3.33122e-14
-1.24251e-12
-2.22661e-12
-1.25032e-12
-6.45402e-13
-3.50396e-13
-2.20635e-13
-3.27291e-13
-2.29176e-13
-1.33008e-13
-1.08836e-13
-1.0159e-13
-5.56051e-14
-4.94543e-14
-9.58756e-15
8.78887e-14
-1.01599e-12
-2.142e-12
-1.30091e-12
-6.58977e-13
-3.56911e-13
-2.14488e-13
-2.72589e-13
-2.2433e-13
-9.12095e-14
-1.03358e-13
-1.06681e-13
-5.09832e-14
4.46343e-14
-1.40706e-15
8.66162e-14
-8.73343e-13
-2.06306e-12
-1.32191e-12
-6.70397e-13
-3.69222e-13
-2.05465e-13
-2.42547e-13
-2.24891e-13
-5.35502e-14
-1.0664e-13
-1.18778e-13
3.80533e-14
5.48375e-14
1.15982e-13
1.46098e-13
-7.92905e-13
-1.98897e-12
-1.3394e-12
-6.79676e-13
-3.75989e-13
-1.96522e-13
-2.39198e-13
-2.48423e-13
-7.66065e-14
-1.01301e-13
-1.13276e-13
5.43053e-14
3.61523e-14
1.37736e-13
1.66675e-13
-7.24669e-13
-1.92367e-12
-1.34495e-12
-6.76378e-13
-3.7672e-13
-1.92384e-13
-2.38867e-13
-2.65596e-13
-7.78918e-14
-1.01114e-13
-1.15879e-13
4.25684e-14
3.89203e-14
1.30002e-13
1.36888e-13
-6.99659e-13
-1.83969e-12
-1.32801e-12
-6.80161e-13
-3.73551e-13
-1.98977e-13
-2.40317e-13
-2.49348e-13
-8.31684e-14
-1.04844e-13
-1.04004e-13
3.04331e-14
4.05567e-14
1.20618e-13
7.82436e-14
-2.64216e-14
-6.54698e-13
2.09716e-13
9.26285e-14
-1.70869e-13
1.94656e-13
5.90254e-14
-7.10931e-14
9.99935e-14
2.34659e-14
-6.29248e-14
2.32877e-14
7.97573e-15
-5.3329e-15
-8.29546e-16
2.09644e-12
2.47053e-12
8.02409e-14
6.17079e-13
2.58916e-13
-5.17822e-14
2.75236e-13
1.44747e-13
-2.24792e-15
1.60273e-13
5.72265e-14
-4.81848e-14
2.57611e-14
6.28553e-15
6.97932e-16
2.35263e-12
2.63454e-12
3.23115e-13
6.94907e-13
2.463e-13
1.05672e-13
3.28959e-13
1.14266e-13
7.26929e-14
1.38699e-13
3.66136e-14
2.20313e-15
2.81889e-14
2.37362e-15
-8.38323e-15
2.68019e-12
2.23341e-12
4.64267e-13
9.26365e-13
2.26388e-13
2.15871e-13
4.32973e-13
9.25919e-14
1.13706e-13
1.46627e-13
3.99805e-14
3.09344e-14
5.56385e-14
-2.4214e-14
-8.36367e-14
2.47798e-12
2.23263e-12
5.50988e-13
8.70057e-13
2.47294e-13
2.38411e-13
3.95234e-13
8.47589e-14
8.74319e-14
1.49039e-13
4.72618e-14
-9.94817e-16
4.04816e-14
-3.68349e-15
-6.3119e-14
2.18078e-12
2.28168e-12
6.66329e-13
7.19154e-13
2.49556e-13
2.45577e-13
3.61828e-13
1.02407e-13
7.21121e-14
1.48187e-13
1.89916e-14
-3.14102e-14
2.4435e-14
-2.67568e-14
-1.38573e-14
1.94743e-12
2.32651e-12
8.63067e-13
6.4758e-13
2.98987e-13
2.5675e-13
3.46568e-13
1.65346e-13
1.2448e-13
1.3085e-13
5.26624e-14
4.11202e-14
-1.17455e-14
4.08442e-14
1.83493e-13
1.70609e-12
2.3291e-12
1.03184e-12
6.27543e-13
3.30383e-13
2.54496e-13
3.25422e-13
2.03895e-13
1.39448e-13
1.33013e-13
1.01502e-13
1.04447e-13
-1.09096e-14
-5.34635e-15
2.15653e-13
1.45315e-12
2.29473e-12
1.16069e-12
6.29774e-13
3.42487e-13
2.43498e-13
3.29218e-13
2.18367e-13
1.40297e-13
1.18119e-13
1.03951e-13
7.01635e-14
3.61249e-14
-4.00846e-15
3.33122e-14
1.24251e-12
2.22661e-12
1.25032e-12
6.45402e-13
3.50396e-13
2.20635e-13
3.27291e-13
2.29176e-13
1.33008e-13
1.08836e-13
1.0159e-13
5.56051e-14
4.94543e-14
9.58756e-15
-8.78887e-14
1.01599e-12
2.142e-12
1.30091e-12
6.58977e-13
3.56911e-13
2.14488e-13
2.72589e-13
2.2433e-13
9.12095e-14
1.03358e-13
1.06681e-13
5.09832e-14
-4.46343e-14
1.40706e-15
-8.66162e-14
8.73343e-13
2.06306e-12
1.32191e-12
6.70397e-13
3.69222e-13
2.05465e-13
2.42547e-13
2.24891e-13
5.35502e-14
1.0664e-13
1.18778e-13
-3.80533e-14
-5.48375e-14
-1.15982e-13
-1.46098e-13
7.92905e-13
1.98897e-12
1.3394e-12
6.79676e-13
3.75989e-13
1.96522e-13
2.39198e-13
2.48423e-13
7.66065e-14
1.01301e-13
1.13276e-13
-5.43053e-14
-3.61523e-14
-1.37736e-13
-1.66675e-13
7.24669e-13
1.92367e-12
1.34495e-12
6.76378e-13
3.7672e-13
1.92384e-13
2.38867e-13
2.65596e-13
7.78918e-14
1.01114e-13
1.15879e-13
-4.25684e-14
-3.89203e-14
-1.30002e-13
-1.36888e-13
6.99659e-13
1.83969e-12
1.32801e-12
6.80161e-13
3.73551e-13
1.98977e-13
2.40317e-13
2.49348e-13
8.31684e-14
1.04844e-13
1.04004e-13
-3.04331e-14
-4.05567e-14
-1.20618e-13
-7.82436e-14
)
;
    }
    inlet
    {
        type            calculated;
        value           nonuniform List<scalar> 
15
(
-1299.9
-1300.2
-1299.9
-1299.9
-1300.2
-1299.9
-1299.9
-1300.2
-1299.9
-1299.9
-1300.2
-1299.9
-1299.9
-1300.2
-1299.9
)
;
    }
    inletWalls
    {
        type            calculated;
        value           uniform 0;
    }
    outletInlet
    {
        type            calculated;
        value           nonuniform List<scalar> 
15
(
198.264
527.465
785.392
982
1128.53
1249.98
1367.11
1486.57
1606.73
1731.79
1878.99
2054.89
2138.08
1729.95
634.217
)
;
    }
}


// ************************************************************************* //
