/*--------------------------------*- C++ -*----------------------------------*\
| =========                 |                                                 |
| \\      /  F ield         | OpenFOAM: The Open Source CFD Toolbox           |
|  \\    /   O peration     | Version:  4.1                                   |
|   \\  /    A nd           | Web:      www.OpenFOAM.org                      |
|    \\/     M anipulation  |                                                 |
\*---------------------------------------------------------------------------*/
FoamFile
{
    version     2.0;
    format      ascii;
    class       volVectorField;
    location    "21";
    object      U;
}
// * * * * * * * * * * * * * * * * * * * * * * * * * * * * * * * * * * * * * //

dimensions      [0 1 -1 0 0 0 0];

internalField   nonuniform List<vector> 
225
(
(1.08482e-14 0.852191 15.7946)
(8.75114e-15 -4.89458 12.1215)
(-2.35806e-15 -4.19551 12.1321)
(4.08077e-15 -3.60119 11.9966)
(4.20633e-16 -3.00468 11.8778)
(-1.85312e-16 -2.55319 11.6992)
(1.90488e-15 -2.20881 11.4769)
(2.52353e-16 -1.96603 11.2116)
(-6.33711e-17 -1.79856 10.916)
(9.45616e-16 -1.71238 10.5882)
(-1.95866e-17 -1.83746 10.1561)
(-2.96511e-16 -2.28568 9.53762)
(3.21784e-16 -2.51301 8.96378)
(-3.69187e-17 -1.06552 8.91357)
(-5.74279e-18 1.76574 7.47091)
(1.52028e-14 -5.35016 22.493)
(1.71049e-14 -14.6049 21.394)
(5.55491e-16 -13.2708 20.3411)
(4.64558e-15 -11.7697 19.5066)
(1.79263e-15 -11.1561 18.5043)
(-3.58477e-16 -10.6594 17.5174)
(2.12691e-15 -10.0901 16.5714)
(1.00217e-15 -9.525 15.6236)
(-1.55619e-17 -8.96544 14.6638)
(1.09318e-15 -8.36731 13.6946)
(3.96213e-16 -7.75709 12.7179)
(-3.33574e-16 -7.30335 11.7194)
(1.77641e-16 -7.01705 10.6244)
(4.35185e-17 -5.73094 9.16114)
(4.83164e-18 -2.30501 4.5832)
(1.83325e-14 -7.71565 23.9801)
(1.78428e-14 -16.7731 24.6729)
(2.23712e-15 -13.7365 23.9372)
(6.33006e-15 -12.3062 22.6249)
(1.70509e-15 -11.6447 21.2414)
(7.31631e-16 -10.814 20.0013)
(3.41732e-15 -9.94025 18.7738)
(7.91045e-16 -9.1001 17.5247)
(5.03298e-16 -8.28337 16.2654)
(1.55205e-15 -7.47523 15.0263)
(2.53469e-16 -6.66762 13.8176)
(1.52536e-17 -5.84165 12.4301)
(5.57638e-16 -4.81389 10.2752)
(1.64321e-17 -3.12626 6.68443)
(-5.80423e-17 -0.832135 1.68991)
(1.85476e-14 -8.50259 22.0462)
(1.54616e-14 -16.621 24.332)
(3.21406e-15 -12.93 23.7971)
(6.41386e-15 -12.1536 21.9985)
(1.49605e-15 -11.4201 20.5028)
(1.51877e-15 -10.4936 19.1722)
(2.99776e-15 -9.63387 17.8167)
(5.62011e-16 -8.82359 16.459)
(8.15024e-16 -8.05362 15.123)
(1.00029e-15 -7.32376 13.8164)
(2.68648e-16 -6.55245 12.4394)
(1.9544e-16 -5.49086 10.583)
(3.60398e-16 -3.78523 7.50864)
(2.49911e-17 -1.49364 2.76599)
(-8.93888e-16 0.153289 -1.77301)
(1.69431e-14 -8.47615 19.748)
(1.51119e-14 -16.3601 24.312)
(3.63604e-15 -13.099 23.6602)
(5.8286e-15 -12.628 21.5365)
(1.40109e-15 -11.8565 20.0248)
(1.54056e-15 -10.9574 18.6637)
(2.61925e-15 -10.1698 17.2587)
(3.38155e-16 -9.40276 15.8711)
(4.72945e-16 -8.65257 14.5236)
(9.61265e-16 -7.93049 13.2135)
(9.99672e-17 -7.16585 11.8292)
(-1.76196e-16 -6.11611 9.99621)
(1.73915e-16 -4.42399 7.15548)
(-3.83679e-16 -2.30526 3.28784)
(-8.03136e-16 -0.787187 0.317714)
(1.53214e-14 -8.02193 17.5537)
(1.58377e-14 -16.0195 24.5277)
(4.78283e-15 -13.6434 24.0461)
(4.97862e-15 -12.9943 21.7651)
(1.77677e-15 -12.1264 20.2157)
(1.80434e-15 -11.2247 18.847)
(2.50489e-15 -10.4389 17.4341)
(7.68241e-16 -9.64887 16.0434)
(6.90546e-16 -8.86034 14.6933)
(1.02588e-15 -8.09323 13.3817)
(2.06955e-16 -7.29728 12.0171)
(4.12925e-17 -6.28455 10.2817)
(5.89558e-17 -4.73296 7.72083)
(1.72376e-16 -2.75609 4.37239)
(1.28579e-15 -0.949377 1.29734)
(1.36161e-14 -7.33745 15.2535)
(1.61274e-14 -15.4909 24.355)
(6.05947e-15 -14.0225 24.4218)
(4.48363e-15 -13.1278 22.0675)
(2.12016e-15 -12.1447 20.4401)
(1.88517e-15 -11.2358 19.0547)
(2.39952e-15 -10.436 17.6437)
(1.20742e-15 -9.61982 16.2576)
(9.98224e-16 -8.81013 14.9066)
(9.05963e-16 -8.02721 13.5918)
(5.29454e-16 -7.22394 12.2368)
(5.68913e-16 -6.24024 10.5488)
(-8.13222e-17 -4.78749 8.10745)
(-9.20625e-17 -2.91407 4.94708)
(2.19313e-15 -1.01085 1.79737)
(1.16258e-14 -6.55628 13.033)
(1.61255e-14 -14.847 23.8164)
(7.10094e-15 -14.2638 24.669)
(4.34427e-15 -13.2372 22.3215)
(2.2874e-15 -12.1674 20.5831)
(1.65341e-15 -11.2657 19.1667)
(2.3112e-15 -10.4651 17.7586)
(1.41166e-15 -9.64313 16.3766)
(8.27748e-16 -8.83492 15.0245)
(9.20807e-16 -8.05527 13.7073)
(7.02749e-16 -7.25499 12.3576)
(5.32803e-16 -6.28688 10.6995)
(-7.55238e-17 -4.89098 8.33092)
(-3.70153e-17 -3.08518 5.26759)
(9.96287e-16 -1.12218 2.0439)
(1.00599e-14 -5.77841 11.1239)
(1.58862e-14 -14.1745 23.0906)
(7.91041e-15 -14.4412 24.8462)
(4.35985e-15 -13.3963 22.6147)
(2.371e-15 -12.2528 20.7553)
(1.52458e-15 -11.3493 19.2955)
(2.27914e-15 -10.5477 17.8904)
(1.51173e-15 -9.72541 16.5109)
(7.67464e-16 -8.91941 15.1561)
(8.17723e-16 -8.1402 13.8351)
(7.19641e-16 -7.33992 12.4863)
(2.05199e-16 -6.38012 10.8512)
(2.50088e-16 -5.02348 8.54665)
(-2.77501e-17 -3.26573 5.55823)
(-7.06172e-16 -1.23751 2.2476)
(8.30309e-15 -5.08505 9.59942)
(1.54146e-14 -13.5192 22.3002)
(8.5715e-15 -14.5349 24.9522)
(4.3771e-15 -13.553 22.9352)
(2.42575e-15 -12.3447 20.9698)
(1.47359e-15 -11.425 19.4565)
(2.09218e-15 -10.6173 18.0505)
(1.58656e-15 -9.79439 16.672)
(7.84646e-16 -8.9882 15.3135)
(6.04759e-16 -8.20616 13.9873)
(7.03299e-16 -7.40466 12.6355)
(2.91333e-16 -6.4514 11.0131)
(-5.55317e-18 -5.12517 8.75499)
(6.63735e-17 -3.40646 5.8194)
(-9.08646e-16 -1.31901 2.43083)
(6.88347e-15 -4.53883 8.46245)
(1.48549e-14 -12.9256 21.5505)
(8.85599e-15 -14.5348 24.9757)
(4.53892e-15 -13.6653 23.2209)
(2.52141e-15 -12.4127 21.1811)
(1.32179e-15 -11.4735 19.612)
(1.88704e-15 -10.6589 18.2003)
(1.61641e-15 -9.83687 16.8208)
(3.56381e-16 -9.03197 15.4584)
(7.15512e-16 -8.24847 14.1268)
(8.21549e-16 -7.44638 12.769)
(-2.48344e-17 -6.49761 11.1496)
(-3.08988e-16 -5.19245 8.91823)
(-6.56385e-16 -3.50173 6.01032)
(-1.1582e-15 -1.36372 2.54238)
(6.04605e-15 -4.1706 7.70299)
(1.43082e-14 -12.4378 20.9278)
(9.08701e-15 -14.4733 24.9365)
(4.64108e-15 -13.7316 23.4378)
(2.58149e-15 -12.4592 21.3593)
(1.34012e-15 -11.5039 19.7405)
(1.67912e-15 -10.6832 18.3206)
(1.65281e-15 -9.86356 16.9391)
(3.36024e-16 -9.06115 15.5728)
(7.38254e-16 -8.27758 14.2363)
(8.22289e-16 -7.47485 12.8708)
(-3.58729e-16 -6.52672 11.2464)
(-3.21144e-16 -5.23291 9.02626)
(-8.85935e-16 -3.55788 6.12594)
(-1.35122e-15 -1.37729 2.57258)
(5.35749e-15 -3.9735 7.2799)
(1.37425e-14 -12.0683 20.4613)
(9.29476e-15 -14.3843 24.8626)
(4.65901e-15 -13.7598 23.5827)
(2.60293e-15 -12.4876 21.4969)
(1.3605e-15 -11.523 19.8406)
(1.62623e-15 -10.6966 18.4121)
(1.81664e-15 -9.88004 17.028)
(4.95297e-16 -9.08064 15.6585)
(7.01377e-16 -8.29732 14.3171)
(8.26361e-16 -7.49324 12.9423)
(-4.23893e-16 -6.54222 11.3062)
(-2.50307e-16 -5.251 9.08441)
(-8.71015e-16 -3.57881 6.17543)
(-1.30187e-15 -1.36518 2.53885)
(4.96944e-15 -3.90382 7.11055)
(1.33046e-14 -11.8315 20.182)
(9.28803e-15 -14.2998 24.79)
(4.67052e-15 -13.7666 23.6683)
(2.59527e-15 -12.5018 21.5897)
(1.33181e-15 -11.5319 19.9095)
(1.66868e-15 -10.7003 18.4745)
(1.82256e-15 -9.88543 17.0883)
(5.39219e-16 -9.0879 15.7173)
(7.19199e-16 -8.30409 14.373)
(7.81228e-16 -7.49788 12.9907)
(-2.94687e-16 -6.54326 11.3435)
(-2.40404e-16 -5.25354 9.11744)
(-9.40919e-16 -3.58373 6.20169)
(-9.47629e-16 -1.35017 2.50652)
(4.82885e-15 -4.03959 7.28706)
(1.27289e-14 -11.6272 19.9524)
(9.20049e-15 -14.1916 24.668)
(4.70867e-15 -13.7463 23.7081)
(2.57953e-15 -12.5064 21.6736)
(1.38468e-15 -11.5391 19.9772)
(1.66368e-15 -10.6994 18.5349)
(1.71811e-15 -9.88681 17.1436)
(5.84561e-16 -9.09036 15.7693)
(7.25826e-16 -8.30481 14.4182)
(7.14811e-16 -7.48978 13.0145)
(-2.04823e-16 -6.51514 11.3279)
(-2.80769e-16 -5.20581 9.06098)
(-8.45201e-16 -3.50153 6.08262)
(-5.22607e-16 -1.25246 2.30725)
)
;

boundaryField
{
    inletFace
    {
        type            zeroGradient;
    }
    inlet
    {
        type            fixedValue;
        value           uniform (0 8.7 15);
    }
    inletWalls
    {
        type            noSlip;
    }
    outletInlet
    {
        type            zeroGradient;
    }
}


// ************************************************************************* //
