/*--------------------------------*- C++ -*----------------------------------*\
| =========                 |                                                 |
| \\      /  F ield         | OpenFOAM: The Open Source CFD Toolbox           |
|  \\    /   O peration     | Version:  4.1                                   |
|   \\  /    A nd           | Web:      www.OpenFOAM.org                      |
|    \\/     M anipulation  |                                                 |
\*---------------------------------------------------------------------------*/
FoamFile
{
    version     2.0;
    format      ascii;
    class       volScalarField;
    location    "30";
    object      p;
}
// * * * * * * * * * * * * * * * * * * * * * * * * * * * * * * * * * * * * * //

dimensions      [0 2 -2 0 0 0 0];

internalField   nonuniform List<scalar> 
6785
(
644.969
590.773
538.906
490.198
445.032
402.722
363.084
325.824
290.505
256.863
225.516
197.09
168.235
133.292
102.797
171.827
149.954
145.267
141.742
136.376
130.86
125.905
121.705
118.415
116.146
115.109
115.732
118.02
120.169
120.121
73.7051
68.0627
74.0021
77.7232
80.4928
83.8119
87.4127
91.0609
94.6908
98.1549
101.239
104.031
106.896
109.219
109.805
118.209
118.119
122.513
122.63
122.473
122.524
122.3
121.814
121.144
120.316
119.3
118.121
117.089
116.737
116.971
131.534
132.442
134.181
132.442
131.142
130.072
128.796
127.527
126.382
125.402
124.603
123.957
123.458
123.365
123.489
121.06
121.832
122.939
122.466
122.567
122.791
122.906
123.107
123.404
123.753
124.134
124.516
124.776
125.027
124.953
116.997
117.787
119.243
120.123
120.951
121.57
122.047
122.525
122.965
123.332
123.626
123.845
123.861
123.889
123.448
119.141
119.681
121.129
122.312
122.876
123.14
123.314
123.466
123.561
123.604
123.608
123.589
123.365
123.299
122.753
121.459
121.572
122.63
123.618
123.735
123.687
123.642
123.596
123.526
123.449
123.368
123.301
122.981
122.912
122.352
121.929
121.789
122.476
123.303
123.204
123.085
123.003
122.918
122.827
122.745
122.662
122.608
122.239
122.173
121.602
120.922
120.752
121.242
122.055
121.958
121.914
121.887
121.839
121.785
121.738
121.671
121.643
121.251
121.199
120.611
118.963
118.902
119.355
120.231
120.248
120.354
120.442
120.497
120.539
120.574
120.569
120.594
120.216
120.214
119.649
117.218
117.173
117.617
118.576
118.687
118.908
119.09
119.244
119.387
119.537
119.63
119.773
119.457
119.551
119.106
112.232
112.826
113.877
115.286
115.926
116.786
117.611
118.423
119.21
119.924
120.54
121.038
121.064
121.404
120.823
120.365
117.829
115.897
114.784
113.281
112.765
112.834
113.435
114.327
115.514
116.754
118.023
119.2
120.915
122.119
178.627
178.079
178.046
177.505
177.11
176.31
176.425
175.582
174.771
173.924
175.02
174.479
173.684
174.895
174.347
173.367
172.344
173.473
172.839
172.123
172.978
172.328
171.427
170.594
171.39
170.859
170.129
169.436
170.148
169.61
169.451
169.811
169.243
168.749
168.349
168.72
168.226
168.332
168.451
167.95
167.649
167.47
167.586
167.215
166.992
166.799
166.977
166.597
166.838
166.824
166.445
166.316
166.256
166.316
166.046
165.929
165.801
165.964
165.714
165.793
165.905
165.728
165.674
165.595
165.811
165.753
165.772
166.021
166.01
166.042
165.99
165.897
165.773
165.725
165.263
164.885
165.181
163.944
160.884
161.257
162.08
161.837
160.787
165.844
158.793
159.646
159.767
159.776
159.897
160.348
160.411
159.531
163.833
154.337
154.471
155.49
156.174
156.108
156.433
156.084
154.538
155.289
147.379
147.052
146.708
146.895
147.394
147.486
147.352
146.483
143.951
139.291
133.197
132.572
131.897
131.28
131.465
131.841
130.467
126.452
112.871
112.601
113.123
113.204
112.356
111.289
110.25
108.889
105.135
88.2179
88.0984
86.3676
86.4495
86.4331
85.3595
83.3661
80.0567
75.7158
58.022
62.8013
59.7098
57.5172
55.205
53.2152
51.2283
48.8222
46.1665
44.066
27.9807
36.9652
33.5356
31.6933
29.7451
26.7899
23.1032
22.5726
24.4483
9.18396
23.2928
20.881
17.9757
19.3009
18.2997
18.5122
18.5881
18.9358
19.2023
18.649
19.1594
19.4124
18.9138
18.9615
18.9256
19.2606
19.5065
19.0734
19.2174
19.2269
19.5207
19.6575
19.2163
19.7007
19.8585
19.3633
19.5662
19.6251
20.0195
20.2172
19.6813
19.8883
19.9397
20.3135
20.4632
20.0134
20.5623
20.7167
20.2495
20.5174
20.6313
21.0328
21.2206
20.8762
21.1763
21.3393
21.7242
21.922
21.8426
22.2732
22.4142
22.4217
22.7247
22.8567
23.0575
23.1469
23.2833
23.3934
23.3261
23.3565
23.2988
23.4053
23.1216
22.6393
22.9101
22.34
21.6515
21.411
20.9509
21.6033
19.9944
18.3501
17.6529
16.6605
18.0125
15.0266
10.819
12.9093
8.41135
3.40927
0.178582
-1.86671
-0.00252348
0.00442168
0.00649138
0.010222
0.013946
0.017888
0.0221122
0.0266747
0.0315856
0.0367942
0.0420972
0.0475789
0.0534351
0.0587867
0.063435
0.0668138
0.0683359
0.0671768
0.0625312
0.0535425
0.0397954
0.0208578
-0.00274125
-0.029446
-0.0563133
-0.0785956
-0.0896195
-0.0807042
-0.0415318
0.0393958
0.17403
0.37388
0.648998
1.00672
1.45057
1.97872
2.58237
3.24554
3.94844
4.67528
5.42353
6.2082
7.05695
7.99543
8.99639
9.8754
10.3933
10.9777
12.0237
8.78531
1.7873
-3.17792
-3.64236
-2.23128
-1.7146
-0.902203
-0.874458
-2.15077
-3.06073
-2.86983
-2.89672
-2.76561
-2.50998
-2.15055
-1.72728
-1.24368
-0.740025
-0.345552
-0.103754
0.0448545
-0.0260177
-0.864856
-0.68869
-0.467186
-0.315018
-0.119464
0.279861
0.948432
1.78576
-0.0032165
0.01416
0.0214118
0.0322154
0.0433009
0.0551586
0.067819
0.0814822
0.0961653
0.111828
0.128158
0.145712
0.164536
0.182606
0.199916
0.215572
0.228326
0.236585
0.238914
0.23364
0.219909
0.196475
0.163717
0.123569
0.0799664
0.0398326
0.0131739
0.0133459
0.0564041
0.160909
0.346628
0.633686
1.04121
1.58505
2.27708
3.12272
4.11746
5.24456
6.47693
7.7863
9.15998
10.6176
12.2167
14.0359
16.1087
18.3374
20.6299
23.24
24.636
17.722
4.67344
-4.20907
-7.80357
-7.75184
-6.61329
-4.64762
-4.81968
-6.80143
-8.50199
-8.49961
-8.67038
-8.44619
-7.70079
-6.30731
-4.30744
-2.12155
-0.586944
-0.10356
-0.0396081
0.143187
-0.100356
-0.85604
0.00204012
0.667646
0.93449
1.24252
2.01922
3.35602
4.94295
0.00233677
0.0294018
0.0429145
0.0614332
0.0806282
0.101609
0.12413
0.14861
0.175103
0.20382
0.235041
0.269436
0.305843
0.343103
0.381205
0.419519
0.456296
0.48985
0.518452
0.540268
0.554079
0.558222
0.552541
0.538639
0.520072
0.503528
0.499131
0.520491
0.584024
0.70913
0.916335
1.22694
1.66152
2.23681
2.96629
3.85722
4.90707
6.10174
7.41812
8.83439
10.3501
12.0057
13.8899
16.1203
18.7784
21.836
25.2357
28.8085
29.582
20.5985
5.57677
-4.65719
-9.77648
-10.1207
-9.38508
-7.83295
-8.99911
-11.5377
-13.3311
-13.7908
-14.0531
-13.7273
-12.6021
-10.5257
-7.61325
-4.38297
-1.90999
-0.700555
-0.154842
0.0955913
-0.346555
-0.56877
0.564095
1.63162
2.12045
2.6178
3.77642
5.72642
7.99288
0.00651372
0.0431772
0.0638171
0.0906512
0.118535
0.149256
0.182525
0.218927
0.258654
0.302222
0.350764
0.404123
0.460147
0.519958
0.582744
0.647973
0.713819
0.778615
0.840095
0.896393
0.945727
0.986166
1.01679
1.03856
1.05434
1.0702
1.09585
1.14462
1.23278
1.37986
1.6068
1.93555
2.38758
2.97973
3.72629
4.63549
5.7063
6.92744
8.28355
9.7659
11.3931
13.2291
15.3813
17.9756
21.0983
24.7162
28.6031
31.9064
30.9949
20.8298
5.86436
-4.52634
-10.6713
-11.8677
-11.6468
-11.4251
-13.8373
-16.4666
-18.1335
-18.8566
-19.2528
-18.8807
-17.4518
-14.7386
-10.8833
-6.57748
-3.14087
-1.2159
-0.270252
-0.00151933
-0.594721
-0.283745
0.775184
2.24753
3.15837
3.99918
5.53404
7.91917
10.5366
0.00995124
0.0556425
0.0837132
0.118861
0.155383
0.195641
0.239552
0.287873
0.341082
0.399852
0.465317
0.536754
0.612813
0.695322
0.782931
0.874812
0.969664
1.06546
1.15933
1.24925
1.33241
1.40653
1.46981
1.52219
1.56539
1.60457
1.64884
1.71122
1.80792
1.95851
2.18472
2.50979
2.95657
3.54344
4.28602
5.1954
6.27512
7.51968
8.92484
10.5005
12.2857
14.3628
16.8455
19.8503
23.4488
27.5565
31.6661
34.2849
31.9574
21.5734
7.36496
-3.36653
-10.8994
-13.505
-13.9052
-15.132
-18.6259
-21.306
-22.8548
-23.7018
-24.2065
-23.8105
-22.1533
-18.9298
-14.2894
-9.04612
-4.65122
-1.89418
-0.476835
-0.146402
-0.737106
-0.0727407
0.716816
2.55893
3.93317
5.2153
7.13444
9.85914
12.7458
0.0134342
0.0679685
0.103843
0.147401
0.192706
0.242589
0.297123
0.357319
0.424008
0.497966
0.579656
0.668692
0.765183
0.869982
0.981916
1.09992
1.22311
1.349
1.47425
1.59645
1.71142
1.81634
1.90854
1.98682
2.05158
2.10669
2.16045
2.22563
2.31881
2.4599
2.67155
2.97876
3.40663
3.97717
4.70801
5.61428
6.70738
7.99147
9.47376
11.1823
13.1746
15.5418
18.3928
21.8243
25.8832
30.4036
34.5594
36.4073
33.171
23.0162
9.75449
-1.78332
-10.8008
-14.8386
-16.0827
-18.5295
-22.9286
-25.9582
-27.4498
-28.3629
-28.9462
-28.5393
-26.7135
-23.077
-17.7594
-11.6388
-6.29426
-2.68356
-0.754141
-0.315144
-0.697932
0.131778
0.655796
2.78
4.54252
6.25991
8.53462
11.5639
14.6176
0.0165144
0.0797348
0.123733
0.175948
0.230466
0.290373
0.355848
0.428131
0.508359
0.597524
0.695836
0.803348
0.920729
1.04806
1.18452
1.32907
1.48073
1.63684
1.7938
1.94859
2.09568
2.23144
2.35233
2.4561
2.54204
2.61279
2.67566
2.74329
2.83313
2.96635
3.16699
3.46208
3.88018
4.44842
5.18805
6.11796
7.2576
8.62283
10.2307
12.1197
14.3581
17.0357
20.2436
24.0473
28.4532
33.1836
37.093
38.0154
34.0464
24.135
11.8671
-0.564648
-10.8937
-16.1096
-18.3461
-21.7407
-26.9151
-30.4724
-31.9056
-32.8553
-33.4836
-33.0576
-31.1081
-27.1626
-21.2944
-14.3834
-8.10524
-3.59149
-1.09612
-0.482472
-0.521319
0.356927
0.775728
3.07974
5.132
7.22701
9.78985
13.0618
16.2187
0.0191924
0.0907641
0.142964
0.204019
0.268106
0.338411
0.415253
0.500046
0.594146
0.698813
0.814533
0.941588
1.08053
1.23129
1.39319
1.56528
1.74628
1.93348
2.12323
2.31186
2.4927
2.66115
2.81265
2.94398
3.05355
3.14318
3.21939
3.29466
3.38756
3.52142
3.72257
4.02044
4.44745
5.03614
5.81335
6.8014
8.02463
9.50877
11.279
13.3758
15.8669
18.832
22.3329
26.3931
30.9603
35.6191
38.9422
38.7895
34.1214
24.4577
13.114
-0.0556177
-11.5729
-17.77
-20.9008
-24.9978
-30.768
-34.8319
-36.2051
-37.1477
-37.8065
-37.3696
-35.334
-31.1656
-24.8572
-17.2602
-10.0755
-4.61125
-1.49129
-0.621431
-0.290603
0.557503
1.09181
3.48455
5.74769
8.15719
10.9402
14.3496
17.5856
0.0218596
0.101453
0.161808
0.231739
0.305511
0.386399
0.4749
0.572597
0.681022
0.801657
0.935341
1.08262
1.24393
1.41925
1.60789
1.8089
2.02064
2.24034
2.46435
2.68845
2.905
3.10847
3.29321
3.45487
3.59108
3.70311
3.79713
3.88559
3.98812
4.13057
4.34248
4.65633
5.10779
5.73421
6.56884
7.63792
8.96725
10.5873
12.5287
14.8298
17.5486
20.7478
24.4546
28.6429
33.1901
37.5324
40.042
38.843
33.5901
24.3079
13.6298
-0.227746
-12.9333
-20.0185
-23.7671
-28.3216
-34.4614
-38.9798
-40.3614
-41.2379
-41.9025
-41.4733
-39.3891
-35.0736
-28.4229
-20.2481
-12.2001
-5.75651
-1.94191
-0.730279
-0.0758769
0.713788
1.53361
3.92868
6.35861
9.02637
11.9776
15.4554
18.6898
0.0250273
0.112475
0.180971
0.259738
0.343152
0.434644
0.534895
0.645665
0.76867
0.905594
1.05758
1.22548
1.40983
1.61065
1.82729
2.05867
2.30287
2.55685
2.81702
3.07847
3.33277
3.57366
3.79436
3.98931
4.1552
4.2928
4.40814
4.51402
4.6311
4.78758
5.01669
5.35464
5.84002
6.51379
7.41488
8.57421
10.0177
11.7754
13.8797
16.3652
19.2775
22.6579
26.4996
30.7253
35.1387
39.0344
40.6938
38.6684
33.0238
24.2455
13.7712
-0.971353
-14.8778
-22.7544
-26.8332
-31.615
-37.9533
-42.8842
-44.3831
-45.1752
-45.7979
-45.3594
-43.2675
-38.8694
-31.97
-23.3123
-14.4635
-7.04414
-2.46381
-0.827579
0.0931678
0.833385
2.01753
4.34091
6.92574
9.79855
12.8729
16.3803
19.6023
0.029037
0.124396
0.201142
0.288756
0.381795
0.483893
0.595921
0.719827
0.857503
1.01085
1.18133
1.37004
1.57774
1.8046
2.05008
2.31301
2.59119
2.8813
3.17973
3.48049
3.77466
4.05527
4.31449
4.54556
4.74408
4.91014
5.04965
5.17598
5.31093
5.48486
5.73462
6.10059
6.62454
7.35013
8.32046
9.57138
11.1297
13.0221
15.2791
17.9316
21.0137
24.5457
28.4888
32.7183
36.9656
40.4033
41.3287
38.7588
32.9063
24.6004
13.7518
-2.20773
-17.2387
-25.7392
-29.9743
-34.8179
-41.2924
-46.5306
-48.2218
-48.9699
-49.5368
-49.0598
-46.9589
-42.5291
-35.4735
-26.4197
-16.8464
-8.47901
-3.08629
-0.94738
0.219663
0.963338
2.48744
4.68953
7.43773
10.4587
13.6154
17.1173
20.3504
0.0339048
0.137451
0.222719
0.319329
0.422109
0.53491
0.658817
0.795972
0.948442
1.11834
1.30741
1.51703
1.7482
2.00133
2.27606
2.57121
2.88439
3.21214
3.55061
3.89238
4.22843
4.55081
4.85071
5.12022
5.35378
5.55062
5.71641
5.86506
6.01968
6.21274
6.48442
6.8793
7.44286
8.2212
9.26035
10.6007
12.2714
14.2962
16.7014
19.514
22.759
26.4384
30.4841
34.7291
38.8355
41.8761
42.243
39.3445
33.4177
25.3959
13.5969
-3.83508
-19.7841
-28.714
-33.1004
-37.9375
-44.5641
-49.9871
-51.8804
-52.6205
-53.1239
-52.5953
-50.4723
-46.0232
-38.898
-29.5381
-19.3209
-10.0564
-3.83725
-1.11522
0.328545
1.20126
2.95528
4.99828
7.90646
11.0146
14.2188
17.6887
20.9175
0.0393384
0.151488
0.245696
0.35162
0.464422
0.588173
0.724193
0.874836
1.04235
1.22906
1.43695
1.66769
1.92251
2.20207
2.50627
2.834
3.18276
3.54911
3.92872
4.31276
4.69227
5.05805
5.40023
5.70971
5.97981
6.20874
6.40175
6.57318
6.74747
6.9593
7.25203
7.67427
8.27556
9.10465
10.2099
11.6358
13.4154
15.5711
18.125
21.0999
24.5132
28.3519
32.5208
36.8139
40.8249
43.5483
43.5129
40.3954
34.4853
26.5002
13.2744
-5.66953
-22.2618
-31.4841
-36.1143
-40.9471
-47.7704
-53.3219
-55.3989
-56.1476
-56.5729
-55.9747
-53.8064
-49.337
-42.199
-32.6337
-21.8585
-11.767
-4.72425
-1.32782
0.447014
1.61161
3.4499
5.32969
8.35124
11.4863
14.7045
18.1205
21.3153
0.0449168
0.166083
0.269728
0.385414
0.50867
0.643775
0.792299
0.956823
1.1398
1.34374
1.57091
1.8232
2.10209
2.40847
2.7425
3.10317
3.48798
3.8935
4.31473
4.74192
5.16598
5.57628
5.96178
6.31207
6.61925
6.88043
7.10028
7.29337
7.48545
7.71354
8.02423
8.47017
9.10512
9.98088
11.1478
12.6543
14.5386
16.8244
19.5303
22.675
26.2683
30.283
34.5988
38.9706
42.9228
45.39
45.0575
41.7608
35.9342
27.7611
12.8306
-7.48101
-24.45
-33.9051
-38.9065
-43.8123
-50.8572
-56.5465
-58.7997
-59.5639
-59.8991
-59.2052
-56.9538
-52.4624
-45.3425
-35.6713
-24.437
-13.5933
-5.72593
-1.56896
0.587566
2.11289
3.97693
5.73607
8.78979
11.8963
15.0964
18.4365
21.5676
0.0502822
0.18077
0.294332
0.420281
0.554514
0.701495
0.863042
1.04198
1.24097
1.46274
1.7098
1.98433
2.28801
2.62196
2.98653
3.38081
3.80233
4.24757
4.7108
5.182
5.65137
6.10697
6.53643
6.92789
7.27208
7.56485
7.81013
8.02257
8.22912
8.4692
8.79288
9.25713
9.92031
10.8378
12.0619
13.6443
15.6292
18.0449
20.9079
24.232
28.0187
32.2239
36.7016
41.1662
45.0705
47.3089
46.7394
43.2929
37.5992
29.0366
12.3614
-9.1105
-26.2182
-35.8949
-41.3782
-46.5368
-53.7914
-59.6639
-62.0924
-62.8743
-63.1134
-62.2903
-59.9132
-55.3888
-48.3099
-38.6113
-27.0366
-15.516
-6.81238
-1.83903
0.745088
2.60821
4.50253
6.23388
9.22846
12.2638
15.4151
18.6532
21.6713
0.0552481
0.195212
0.319081
0.455761
0.601506
0.760934
0.936104
1.13007
1.34574
1.58605
1.85378
2.15139
2.48082
2.84339
3.23958
3.66858
4.12793
4.61381
5.11987
5.63615
6.15165
6.65334
7.12736
7.56025
7.94119
8.26465
8.53358
8.76257
8.9796
9.22652
9.55713
10.0332
10.7184
11.6726
12.9505
14.6061
16.6893
19.2356
22.2618
25.776
29.7683
34.1722
38.8119
43.3599
47.1973
49.2031
48.4331
44.8979
39.3627
30.1907
11.8852
-10.5178
-27.5515
-37.462
-43.4849
-49.1255
-56.5851
-62.682
-65.2853
-66.0885
-66.2263
-65.2375
-62.6981
-58.1159
-51.0899
-41.4219
-29.6242
-17.5174
-7.97353
-2.15039
0.906456
3.07472
5.00303
6.79628
9.66009
12.6032
15.6773
18.7869
21.6461
0.0598296
0.209293
0.343736
0.491517
0.649242
0.821665
1.01107
1.22075
1.45382
1.71346
2.00272
2.32439
2.68066
3.07309
3.50229
3.96751
4.46623
4.99428
5.54472
6.10749
6.67042
7.21933
7.73882
8.21368
8.63139
8.98486
9.27592
9.51885
9.7426
9.99135
10.3228
10.804
11.5048
12.4907
13.8202
15.5488
17.731
20.4098
23.6057
27.3198
31.5259
36.128
40.9135
45.5116
49.2375
50.9888
50.0492
46.5282
41.1496
31.1088
11.3468
-11.7235
-28.5288
-38.6761
-45.2514
-51.5459
-59.2817
-65.6008
-68.3967
-69.2309
-69.2541
-68.069
-65.3406
-60.6669
-53.681
-44.0823
-32.1595
-19.5688
-9.20695
-2.5114
1.0663
3.51286
5.46941
7.38628
10.0765
12.9253
15.8961
18.8453
21.5138
0.0642092
0.22313
0.368308
0.527437
0.697493
0.883366
1.08757
1.3136
1.56482
1.84463
2.15637
2.50312
2.88743
3.31109
3.77486
4.27801
4.81801
5.39022
5.98722
6.59846
7.21074
7.80861
8.37504
8.89296
9.34794
9.73126
10.0435
10.2985
10.526
10.7724
11.0994
11.5796
12.2896
13.3024
14.6816
16.485
18.7694
21.5844
24.9555
28.876
33.2972
38.0855
42.9846
47.5801
51.1337
52.6052
51.5318
48.1549
42.906
31.7752
10.7031
-12.7554
-29.2651
-39.6381
-46.7765
-53.7739
-61.9086
-68.4342
-71.4427
-72.3217
-72.2184
-70.822
-67.8884
-63.0856
-56.0967
-46.5729
-34.603
-21.6316
-10.498
-2.92547
1.22203
3.92656
5.92584
7.98667
10.4771
13.238
16.0813
18.8393
21.3022
0.0686286
0.236997
0.393024
0.563663
0.746289
0.94595
1.16539
1.40834
1.67839
1.9792
2.31436
2.68728
3.10087
3.55719
4.05716
4.60014
5.18349
5.80222
6.44837
7.11066
7.77485
8.42407
9.03954
9.6022
10.0956
10.5091
10.8422
11.108
11.3372
11.5784
11.897
12.3712
13.0849
14.1194
15.5459
17.4257
19.8168
22.7725
26.3223
30.4508
35.0792
40.0284
44.9945
49.5206
52.8353
54.011
52.8485
49.7365
44.5637
32.2454
9.94077
-13.6497
-29.8554
-40.455
-48.1751
-55.8264
-64.4546
-71.2108
-74.4234
-75.3544
-75.1356
-73.5359
-70.3825
-65.4106
-58.3539
-48.8809
-36.9234
-23.6645
-11.8214
-3.39015
1.36777
4.32257
6.43251
8.60668
10.867
13.5479
16.2394
18.788
21.0456
0.0732707
0.251172
0.418196
0.600494
0.795881
1.00959
1.24461
1.50492
1.79437
2.11689
2.47637
2.87654
3.32065
3.81108
4.34896
4.93371
5.56265
6.23048
6.92866
7.64506
8.36425
9.06779
9.735
10.3447
10.8781
11.3227
11.6765
11.9525
12.1818
12.4156
12.7232
13.188
13.9011
14.9524
16.4222
18.378
20.8793
23.9795
27.709
32.0411
36.8595
41.9311
46.9043
51.2864
54.2991
55.1798
53.9828
51.2127
46.0187
32.5247
9.04247
-14.4536
-30.3565
-41.2108
-49.5213
-57.738
-66.8856
-73.9442
-77.3276
-78.3183
-78.0152
-76.222
-72.8236
-67.6416
-60.4603
-51.0066
-39.1057
-25.6372
-13.1546
-3.89611
1.49851
4.71756
7.05578
9.25815
11.2583
13.861
16.3747
18.7052
20.7725
0.0782138
0.265829
0.444075
0.638235
0.846598
1.07459
1.32551
1.60354
1.91286
2.25771
2.64229
3.07069
3.54651
4.07246
4.64991
5.27844
5.9553
6.67492
7.42822
8.20211
8.97984
9.74119
10.4634
11.1229
11.6984
12.1752
12.55
12.8353
13.0633
13.2878
13.5823
14.0355
14.745
15.8089
17.317
19.3452
21.9566
25.2032
29.1108
33.6363
38.6192
43.7642
48.6749
52.8357
55.494
56.0993
54.935
52.5315
47.1471
32.5336
8.0008
-15.1997
-30.7975
-41.9527
-50.846
-59.5405
-69.1756
-76.6206
-80.157
-81.2065
-80.841
-78.8395
-75.1667
-69.7407
-62.406
-52.9482
-41.1303
-27.5289
-14.4795
-4.42998
1.61524
5.13131
7.7719
9.93934
11.6753
14.1815
16.491
18.6011
20.4953
0.0834661
0.281025
0.470787
0.67708
0.898705
1.1413
1.40843
1.70457
2.03419
2.40191
2.8123
3.26979
3.77841
4.34118
4.95979
5.63401
6.36112
7.13532
7.94693
8.7819
9.62204
10.4451
11.2261
11.9387
12.5588
13.0694
13.4654
13.7589
13.9836
14.1964
14.4755
14.9152
15.619
16.6923
18.2337
20.3286
23.0459
26.4366
30.5176
35.2222
40.3378
45.5009
50.2751
54.1414
56.4092
56.7741
55.7216
53.6671
47.8972
32.2036
6.83682
-15.908
-31.2025
-42.7037
-52.1687
-61.2826
-71.3176
-79.22
-82.9453
-84.0309
-83.5815
-81.3432
-77.3835
-71.6917
-64.1814
-54.6919
-42.9638
-29.3111
-15.778
-4.98023
1.72136
5.57474
8.50384
10.6226
12.1361
14.5097
16.593
18.488
20.2271
0.0890297
0.296767
0.498369
0.717105
0.952341
1.20989
1.49366
1.80835
2.15879
2.54994
2.9868
3.47422
4.01661
4.6174
5.27865
6.00036
6.77996
7.61143
8.48454
9.38427
10.2909
11.18
12.0239
12.7934
13.4612
14.0074
14.4248
14.7253
14.944
15.1417
15.4019
15.8254
16.5219
17.6025
19.1731
21.328
24.1437
27.6723
31.9189
36.7854
41.9984
47.1224
51.6886
55.1987
57.0606
57.2284
56.364
54.5994
48.3279
31.5327
5.57387
-16.5976
-31.599
-43.4746
-53.5115
-63.0162
-73.3565
-81.7316
-85.669
-86.7692
-86.2194
-83.7558
-79.5197
-73.5428
-65.8113
-56.2428
-44.5941
-30.9522
-17.0232
-5.53563
1.82137
6.04337
9.20087
11.2875
12.6377
14.8436
16.6875
18.3783
19.9704
0.0949382
0.313071
0.526839
0.758329
1.00755
1.28047
1.58133
1.91511
2.28696
2.70223
3.16631
3.68452
4.26166
4.90164
5.6069
6.37781
7.21196
8.10324
9.04089
10.009
10.9862
11.9458
12.8572
13.6877
14.4067
14.9907
15.4302
15.7362
15.9458
16.1237
16.3602
16.7634
17.4498
18.536
20.1331
22.3423
25.2482
28.9055
33.3073
38.3166
43.591
48.6208
52.9162
56.0265
57.4895
57.5053
56.8831
55.2979
48.5061
30.5634
4.22096
-17.288
-32.0125
-44.2712
-54.8844
-64.7488
-75.3507
-84.1508
-88.2972
-89.3983
-88.7621
-86.1115
-81.6132
-75.3428
-67.3457
-57.6245
-46.0157
-32.4284
-18.1885
-6.08032
1.92326
6.53239
9.83668
11.9133
13.1687
15.179
16.7816
18.2788
19.7455
0.101246
0.329993
0.556251
0.800789
1.06434
1.35304
1.67147
2.02494
2.41889
2.85905
3.35126
3.90123
4.51423
5.19463
5.9453
6.76703
7.65769
8.61112
9.61619
10.656
11.7077
12.7423
13.7259
14.622
15.396
16.0204
16.4828
16.7931
16.99
17.1428
17.3493
17.7262
18.3982
19.4875
21.1092
23.3691
26.3585
30.1352
34.68
39.8128
45.1139
49.9997
53.9748
56.6628
57.7522
57.6608
57.302
55.7329
48.4506
29.3589
2.79121
-17.9954
-32.4615
-45.0955
-56.2704
-66.4496
-77.3119
-86.476
-90.8181
-91.9096
-91.2011
-88.3857
-83.6372
-77.092
-68.819
-58.875
-47.2285
-33.714
-19.2563
-6.59407
2.03862
7.04527
10.4085
12.4891
13.7163
15.5101
16.8815
18.1987
19.5621
0.10799
0.347592
0.586687
0.844566
1.12279
1.42763
1.7641
2.13782
2.55459
3.02052
3.54186
4.12474
4.77488
5.49709
6.29473
7.16901
8.11811
9.13598
10.2112
11.3259
12.4559
13.5696
14.6299
15.5961
16.429
17.0968
17.5833
17.8968
18.0774
18.1994
18.3686
18.7117
19.3629
20.4514
22.0958
24.4048
27.4736
31.3624
36.0388
41.2762
46.5723
51.2721
54.8916
57.1549
57.9069
57.7518
57.6494
55.9467
48.1882
27.9959
1.31546
-18.7293
-32.9559
-45.9461
-57.6355
-68.0779
-79.2045
-88.7035
-93.2273
-94.2848
-93.5187
-90.5592
-85.5771
-78.769
-70.2242
-60.027
-48.2542
-34.7878
-20.206
-7.05827
2.18055
7.58288
10.9214
13.0115
14.2812
15.8337
16.9942
18.1473
19.397
0.115147
0.36589
0.618224
0.889762
1.18298
1.50433
1.85925
2.25377
2.69406
3.18664
3.73817
4.35523
5.04395
5.8096
6.656
7.58479
8.59446
9.67912
10.8271
12.0198
13.2315
14.4283
15.5695
16.6101
17.5058
18.2199
18.7319
19.0478
19.2086
19.2938
19.4178
19.7187
20.3413
21.4231
23.0873
25.4446
28.5917
32.5883
37.3871
42.7116
47.9745
52.4543
55.6972
57.5491
58.0017
57.8237
57.944
56.0535
47.7802
26.5373
-0.171728
-19.4999
-33.4943
-46.8123
-58.9546
-69.6073
-80.9874
-90.8212
-95.495
-96.5179
-95.7186
-92.6489
-87.4544
-80.385
-71.5602
-61.0862
-49.1217
-35.6436
-21.0091
-7.46047
2.35852
8.1341
11.3869
13.4897
14.8684
16.1508
17.1264
18.1236
19.2675
0.122632
0.384833
0.650881
0.936455
1.24505
1.58326
1.95706
2.37286
2.8373
3.35735
3.94014
4.59266
5.32153
6.13244
7.02966
8.01521
9.0879
10.2419
11.4655
12.7393
14.0361
15.3196
16.5456
17.6645
18.6265
19.3895
19.9282
20.2456
20.3833
20.4258
20.4969
20.7465
21.3316
22.3994
24.079
26.4833
29.7092
33.8125
38.7266
44.1228
49.3276
53.561
56.418
57.8809
58.0697
57.9061
58.1796
56.1393
47.2853
25.0241
-1.64997
-20.3125
-34.0721
-47.6766
-60.219
-71.0354
-82.6437
-92.8001
-97.5908
-98.6028
-97.7868
-94.6342
-89.2485
-81.9336
-72.839
-62.0641
-49.8517
-36.2899
-21.641
-7.79109
2.57295
8.68542
11.8294
13.956
15.48
16.4594
17.2826
18.1276
19.1791
0.130317
0.404292
0.684593
0.984651
1.30905
1.66457
2.05767
2.49524
2.98443
3.53271
4.14772
4.83698
5.60757
6.46566
7.41594
8.46081
9.59931
10.8258
12.1281
13.4864
14.8718
16.2456
17.56
18.7608
19.7922
20.606
21.1718
21.4896
21.6007
21.5947
21.6051
21.7945
22.333
23.3787
25.0677
27.5165
30.8216
35.0315
40.0554
45.5084
50.633
54.5996
57.0698
58.1691
58.129
58.0146
58.3257
56.221
46.7452
23.4927
-3.09848
-21.1532
-34.6768
-48.5272
-61.4352
-72.3826
-84.1753
-94.6187
-99.5007
-100.508
-99.6777
-96.4629
-90.9254
-83.3964
-74.0559
-62.9768
-50.4634
-36.7455
-22.0877
-8.03799
2.8207
9.24085
12.2888
14.455
16.1018
16.7556
17.4644
18.1568
19.0989
0.138079
0.424096
0.71922
1.03426
1.375
1.74831
2.16122
2.62109
3.13562
3.71284
4.36097
5.08814
5.90197
6.80914
7.81482
8.92175
10.1292
11.4316
12.8164
14.263
15.7409
17.2088
18.6153
19.9011
21.0045
21.8706
22.4633
22.7791
22.8595
22.799
22.741
22.8615
23.3445
24.3596
26.0514
28.5407
31.924
36.2394
41.3668
46.8614
51.8847
55.5694
57.6569
58.4166
58.1861
58.1536
58.3901
56.3016
46.2052
21.9794
-4.49537
-21.9962
-35.2986
-49.3615
-62.6109
-73.6819
-85.5869
-96.2883
-101.207
-102.191
-101.346
-98.0901
-92.4587
-84.7579
-75.2028
-63.8302
-50.9806
-37.0302
-22.34
-8.18664
3.10143
9.82135
12.8132
15.0109
16.7164
17.0366
17.667
18.2051
19.0512
0.145839
0.444085
0.754584
1.08514
1.44278
1.83447
2.26777
2.75053
3.29104
3.89793
4.58005
5.34622
6.2047
7.16279
8.22616
9.39799
10.6778
12.0598
13.5313
15.0707
16.6456
18.212
19.7145
21.0886
22.2663
23.1856
23.8041
24.1146
24.1589
24.0366
23.902
23.9451
24.3642
25.3408
27.0283
29.5532
33.0116
37.4288
42.65
48.1683
53.0699
56.4615
58.1734
58.6157
58.2423
58.3093
58.4197
56.3862
45.6544
20.4995
-5.82484
-22.8095
-35.9192
-50.1734
-63.7464
-74.9556
-86.8876
-97.8237
-102.691
-103.629
-102.765
-99.4934
-93.832
-86.0049
-76.2708
-64.6255
-51.4217
-37.1645
-22.4012
-8.21996
3.42088
10.4529
13.4495
15.6183
17.3069
17.3033
17.8805
18.2703
19.0097
0.153592
0.46416
0.790533
1.1371
1.51222
1.92291
2.37728
2.88362
3.45084
4.08816
4.80517
5.6114
6.51588
7.5266
8.64987
9.88937
11.2449
12.7106
14.2734
15.9105
17.5876
19.2576
20.8607
22.3267
23.581
24.5541
25.1969
25.4977
25.4989
25.3063
25.0857
25.0423
25.3892
26.3199
27.9965
30.5512
34.0796
38.5912
43.8919
49.412
54.1711
57.2632
58.6084
58.7574
58.3017
58.4426
58.439
56.4939
45.1135
19.1166
-7.04509
-23.5624
-36.5105
-50.9455
-64.8325
-76.1914
-88.0875
-99.1978
-103.948
-104.821
-103.932
-100.668
-95.0355
-87.1258
-77.2498
-65.3607
-51.7977
-37.1798
-22.2783
-8.11065
3.79928
11.168
14.2399
16.2629
17.8538
17.5542
18.0937
18.3438
18.996
0.161407
0.48431
0.826989
1.19002
1.58316
2.01347
2.48959
3.02028
3.61501
4.28366
5.03651
5.88391
6.8357
7.90071
9.08597
10.3958
11.8304
13.3839
15.0428
16.783
18.568
20.3475
22.0566
23.6189
24.9525
25.9801
26.645
26.9311
26.881
26.6077
26.29
26.1496
26.4156
27.2934
28.953
31.5317
35.1232
39.718
45.0783
50.5738
55.1703
57.9628
58.9529
58.8382
58.3689
58.5087
58.4328
56.6253
44.5972
17.8545
-8.13287
-24.2363
-37.0466
-51.6535
-65.8473
-77.3589
-89.1775
-100.362
-104.983
-105.776
-104.86
-101.617
-96.0621
-88.1114
-78.1286
-66.0308
-52.1141
-37.1005
-21.9757
-7.8379
4.27345
12.004
15.2102
16.9244
18.3289
17.791
18.3015
18.4239
19.0088
0.169406
0.504614
0.863971
1.24382
1.65547
2.10597
2.60452
3.16034
3.78346
4.48439
5.27416
6.16391
7.1644
8.28535
9.53465
10.9174
12.4343
14.0797
15.8394
17.6883
19.5875
21.4828
23.3042
24.9682
26.3846
27.4676
28.1526
28.4183
28.3078
27.9417
27.5138
27.2644
27.4396
28.2571
29.8939
32.4908
36.1372
40.8004
46.1952
51.6357
56.0519
58.5527
59.2018
58.8636
58.444
58.4998
58.3717
56.7249
44.0475
16.6844
-9.08163
-24.8191
-37.5042
-52.2677
-66.7519
-78.4456
-90.1439
-101.303
-105.807
-106.502
-105.572
-102.362
-96.9115
-88.9561
-78.8964
-66.6275
-52.3731
-36.9443
-21.5191
-7.38522
4.89175
12.9967
16.3631
17.5757
18.6942
18.0228
18.5005
18.5046
19.0074
0.177725
0.52521
0.901588
1.29856
1.72911
2.20028
2.72188
3.30358
3.95597
4.69022
5.51806
6.45147
7.50213
8.68073
9.99614
11.4543
13.0566
14.7978
16.6632
18.6265
20.6462
22.6643
24.6049
26.3768
27.8806
29.0206
29.7239
29.9634
29.7824
29.3103
28.7574
28.3849
28.4581
29.2072
30.8151
33.424
37.1158
41.8294
47.2292
52.5818
56.8027
59.0272
59.351
58.8539
58.512
58.4225
58.2608
56.803
43.5159
15.6399
-9.8822
-25.2913
-37.8595
-52.7617
-67.4964
-79.4419
-90.9803
-102.035
-106.434
-107.01
-106.108
-102.934
-97.5911
-89.6595
-79.5455
-67.1407
-52.5734
-36.7225
-20.937
-6.72804
5.69019
14.1836
17.6921
18.2067
18.9139
18.2736
18.6826
18.5758
19.0164
0.186471
0.546245
0.939994
1.35436
1.80414
2.29637
2.84155
3.44981
4.13232
4.90089
5.76801
6.74647
7.84888
9.08694
10.4706
12.0068
13.6977
15.5384
17.5143
19.5975
21.7444
23.8923
25.9594
27.8462
29.4428
30.6427
31.363
31.5704
31.3085
30.716
30.0216
29.5104
29.4689
30.1404
31.7126
34.3265
38.0525
42.796
48.1682
53.3991
57.4176
59.411
59.4218
58.8267
58.5383
58.2925
58.1026
56.8455
43.0214
14.7473
-10.5264
-25.6359
-38.0977
-53.1214
-68.0497
-80.3167
-91.7017
-102.547
-106.871
-107.336
-106.523
-103.373
-98.1097
-90.2248
-80.0734
-67.5599
-52.7111
-36.4406
-20.2571
-5.87075
6.68316
15.5972
19.1971
18.8745
18.9632
18.5911
18.8283
18.6359
19.0469
0.19569
0.567823
0.979335
1.41137
1.88068
2.39434
2.96353
3.59892
4.31229
5.11615
6.02373
7.04866
8.20448
9.50394
10.9581
12.575
14.3577
16.302
18.3929
20.6017
22.8822
25.1673
27.3685
29.3774
31.073
32.3364
33.0732
33.243
32.8894
32.1612
31.3079
30.6408
30.4706
31.0544
32.5831
35.1936
38.9409
43.6911
49.0005
54.074
57.8804
59.6737
59.4182
58.7769
58.4756
58.083
57.8717
56.794
42.5203
13.9883
-11.0197
-25.8471
-38.2112
-53.3391
-68.4138
-81.0174
-92.3059
-102.815
-107.105
-107.525
-106.871
-103.714
-98.4715
-90.6529
-80.4816
-67.8776
-52.7797
-36.1003
-19.5028
-4.84049
7.88927
17.2403
20.8882
19.7339
18.9077
18.9561
18.8975
18.6814
19.0638
0.205356
0.589966
1.01969
1.46971
1.95889
2.49429
3.08789
3.75089
4.49578
5.33578
6.28493
7.3577
8.56861
9.93148
11.4586
13.159
15.0369
17.0886
19.2993
21.6394
24.06
26.4897
28.8328
30.9714
32.7724
34.1033
34.8569
34.984
34.5279
33.6482
32.6173
31.7763
31.4625
31.9476
33.4239
36.021
39.7746
44.5063
49.7155
54.591
58.1656
59.7783
59.3177
58.6873
58.2761
57.7627
57.556
56.6283
42.004
13.3414
-11.3766
-25.931
-38.2017
-53.41
-68.6046
-81.5036
-92.7712
-102.876
-107.132
-107.6
-107.166
-103.981
-98.6763
-90.9381
-80.7733
-68.0901
-52.7714
-35.7001
-18.6903
-3.67071
9.31678
19.0705
22.7779
20.9783
19.1128
19.3417
18.8108
18.6938
19.0971
0.215381
0.612608
1.06104
1.52941
2.03884
2.59635
3.21472
3.90578
4.68276
5.55965
6.55135
7.67327
8.9409
10.3692
11.9716
13.7585
15.735
17.8983
20.2339
22.711
25.2785
27.8603
30.3533
32.6293
34.5424
35.9452
36.7161
36.7957
36.2258
35.1781
33.9502
32.9164
32.4437
32.8188
34.2329
36.8052
40.5481
45.2349
50.3064
54.9523
58.3161
59.7396
59.0439
58.4789
57.9317
57.2885
57.1575
56.3387
41.4893
12.8042
-11.6159
-25.9153
-38.0842
-53.3306
-68.6322
-81.7752
-93.0711
-102.804
-107
-107.566
-107.371
-104.192
-98.7269