/*--------------------------------*- C++ -*----------------------------------*\
| =========                 |                                                 |
| \\      /  F ield         | OpenFOAM: The Open Source CFD Toolbox           |
|  \\    /   O peration     | Version:  4.1                                   |
|   \\  /    A nd           | Web:      www.OpenFOAM.org                      |
|    \\/     M anipulation  |                                                 |
\*---------------------------------------------------------------------------*/
FoamFile
{
    version     2.0;
    format      ascii;
    class       volVectorField;
    location    "30";
    object      U;
}
// * * * * * * * * * * * * * * * * * * * * * * * * * * * * * * * * * * * * * //

dimensions      [0 1 -1 0 0 0 0];

internalField   nonuniform List<vector> 
6785
(
(7.30701e-15 0.684593 15.7418)
(9.0783e-15 -5.13029 12.0537)
(-1.85004e-15 -4.29249 12.1841)
(5.1827e-15 -3.72375 12.0221)
(1.47313e-15 -3.1193 11.901)
(9.59397e-18 -2.66645 11.7153)
(9.43295e-16 -2.3176 11.4881)
(2.69803e-16 -2.07342 11.2168)
(-9.10117e-17 -1.90793 10.9139)
(2.21222e-15 -1.81719 10.5844)
(6.02355e-16 -1.92242 10.165)
(-7.18382e-16 -2.37178 9.56013)
(2.31147e-15 -2.68973 8.96983)
(-9.5335e-18 -1.33552 8.92614)
(-1.96672e-15 1.73297 7.64133)
(3.03302e-14 -5.63792 22.1818)
(1.73898e-14 -14.7671 21.3398)
(1.09339e-15 -13.2425 20.4984)
(6.82843e-15 -11.8214 19.6219)
(3.07509e-15 -11.2268 18.5971)
(-4.32412e-16 -10.7092 17.6048)
(7.96264e-15 -10.1208 16.6521)
(2.45452e-15 -9.54475 15.6955)
(3.48365e-16 -8.979 14.7276)
(6.99879e-15 -8.37624 13.7517)
(1.9168e-15 -7.75118 12.7738)
(-3.17185e-16 -7.27673 11.7831)
(1.513e-14 -7.01215 10.6939)
(-1.62602e-16 -5.78416 8.97417)
(-1.75547e-15 -1.73313 4.8531)
(1.88774e-14 -7.89602 22.1868)
(1.96294e-14 -16.7499 24.7015)
(1.54171e-15 -13.8114 23.9905)
(3.05979e-15 -12.4976 22.655)
(2.63595e-15 -11.833 21.261)
(-3.01832e-15 -10.989 20.0205)
(1.0603e-15 -10.1073 18.7899)
(2.49031e-15 -9.26094 17.5386)
(-7.08696e-16 -8.43677 16.2751)
(4.09731e-15 -7.62005 15.0225)
(2.84242e-15 -6.79688 13.8033)
(-3.12557e-15 -5.96828 12.4321)
(-6.84143e-15 -4.99061 10.3258)
(-1.68801e-15 -3.27458 6.88911)
(-8.49221e-16 -0.661932 2.39784)
(2.15476e-14 -8.14282 17.9859)
(1.84397e-14 -16.3386 24.4547)
(4.41699e-15 -13.4363 23.9536)
(3.55412e-15 -12.5306 22.1182)
(5.80364e-16 -11.7972 20.6136)
(-4.95206e-15 -10.8464 19.2817)
(4.32383e-16 -9.9676 17.9214)
(-2.75457e-15 -9.13808 16.5566)
(1.34636e-14 -8.3453 15.2034)
(-1.95803e-15 -7.59632 13.8752)
(-3.30413e-16 -6.83587 12.5318)
(-1.53852e-17 -5.87437 10.8627)
(-3.66232e-15 -4.38573 8.19605)
(-9.72859e-15 -2.24354 3.97329)
(2.05566e-14 0.0129405 -1.35295)
(1.66323e-14 -7.32195 13.9146)
(1.5818e-14 -15.3599 23.7128)
(4.33378e-15 -13.905 24.0462)
(2.29566e-15 -13.0908 21.9519)
(-3.17737e-15 -12.2993 20.334)
(4.1466e-15 -11.3797 18.9607)
(1.42864e-16 -10.5631 17.5512)
(-1.19982e-14 -9.77011 16.1483)
(-3.10068e-15 -8.98461 14.7753)
(-4.38261e-15 -8.22695 13.4366)
(-8.02319e-15 -7.46142 12.0829)
(-5.97351e-15 -6.51715 10.4489)
(-7.67261e-15 -5.04643 8.04444)
(-2.13819e-14 -3.17234 4.56867)
(-2.5776e-14 -1.17744 1.47979)
(1.75094e-14 -6.12064 10.8635)
(1.62847e-14 -14.1679 22.6756)
(7.601e-15 -14.3406 24.3336)
(2.47414e-15 -13.5269 22.4677)
(-1.33856e-15 -12.5726 20.7477)
(2.63544e-15 -11.6379 19.3219)
(1.6655e-18 -10.8169 17.8993)
(2.26104e-15 -9.99793 16.4877)
(-1.25872e-15 -9.17186 15.1049)
(-3.78841e-15 -8.36587 13.7551)
(-8.1139e-15 -7.55869 12.3999)
(-1.9158e-15 -6.63373 10.8181)
(-7.01019e-15 -5.23955 8.63696)
(-1.36081e-14 -3.6677 5.60022)
(-1.0116e-14 -1.44604 3.03229)
(2.33272e-14 -5.11509 8.82858)
(2.02807e-14 -13.0023 21.5779)
(1.64405e-14 -14.3003 24.2365)
(4.03945e-15 -13.5824 22.8799)
(5.971e-15 -12.5406 21.1357)
(5.90364e-15 -11.6029 19.6445)
(5.42379e-16 -10.7728 18.2079)
(6.22105e-15 -9.93421 16.7926)
(5.7117e-15 -9.09494 15.4)
(-1.70072e-15 -8.28152 14.0375)
(-1.84501e-14 -7.47073 12.675)
(5.94021e-15 -6.57836 11.0958)
(-4.6245e-15 -5.18874 8.98839)
(-1.47923e-14 -3.93185 6.09319)
(9.23091e-15 -1.5238 3.98089)
(1.40185e-14 -4.63926 8.02917)
(2.21228e-14 -12.2045 20.839)
(1.64072e-14 -14.0438 23.8077)
(4.85313e-15 -13.4668 23.0225)
(-2.11315e-15 -12.4689 21.3214)
(5.40786e-15 -11.559 19.7828)
(3.09162e-16 -10.7298 18.3366)
(-5.80934e-15 -9.89116 16.9187)
(7.62808e-15 -9.06083 15.5194)
(-3.74191e-16 -8.25769 14.1499)
(5.53746e-16 -7.45099 12.7806)
(6.56619e-15 -6.57603 11.1707)
(-2.59725e-15 -5.10342 9.06387)
(-1.2545e-14 -4.07096 6.15605)
(1.68903e-15 -1.53925 4.35261)
(1.38588e-14 -4.51871 7.87243)
(2.03786e-14 -11.7298 20.3565)
(1.11326e-14 -13.8049 23.2588)
(6.25198e-15 -13.379 23.0323)
(3.62942e-16 -12.4942 21.4175)
(-2.75237e-15 -11.601 19.8592)
(9.83406e-16 -10.7637 18.4112)
(-1.10975e-15 -9.92635 16.9932)
(1.78403e-15 -9.10231 15.591)
(1.28491e-15 -8.30337 14.2195)
(1.34197e-17 -7.4905 12.846)
(-2.04823e-15 -6.62295 11.1891)
(-7.38461e-16 -5.0368 9.07144)
(-1.1222e-14 -4.21782 6.20524)
(-1.81654e-14 -1.61284 4.64806)
(3.96796e-15 -4.44697 7.64235)
(1.84084e-14 -11.3711 19.8891)
(1.13779e-14 -13.624 22.7514)
(4.05873e-15 -13.3496 23.008)
(-4.38612e-16 -12.5902 21.5126)
(-2.41655e-15 -11.6908 19.9521)
(-2.6832e-15 -10.8364 18.5022)
(-1.91709e-15 -9.99728 17.0836)
(-1.41818e-15 -9.17285 15.6811)
(-3.3996e-15 -8.37229 14.309)
(-3.29981e-15 -7.54549 12.9322)
(-7.07318e-15 -6.68254 11.2206)
(1.01683e-14 -4.99058 9.09479)
(-7.82563e-15 -4.383 6.3359)
(-1.03265e-14 -1.74098 4.99114)
(-1.6539e-14 -4.27229 7.14464)
(1.74954e-14 -10.9898 19.3317)
(1.5865e-15 -13.4629 22.3431)
(2.86923e-15 -13.3513 23.0087)
(1.30668e-15 -12.7164 21.6647)
(-5.65423e-15 -11.8073 20.1088)
(-3.84719e-15 -10.9344 18.6452)
(-2.65738e-15 -10.0911 17.2184)
(-1.13183e-14 -9.2614 15.8112)
(-5.23459e-15 -8.45672 14.4323)
(1.60137e-16 -7.60935 13.0491)
(-1.6478e-14 -6.75125 11.2825)
(-1.36157e-14 -4.97437 9.14828)
(-3.47144e-14 -4.54597 6.4983)
(-2.76343e-14 -1.8752 5.33597)
(1.31375e-16 -4.01458 6.48516)
(1.9862e-14 -10.5524 18.7322)
(-2.98779e-15 -13.2356 21.9737)
(6.92343e-16 -13.2564 22.9698)
(6.75899e-15 -12.7269 21.7657)
(-1.11961e-14 -11.8096 20.2363)
(-3.87141e-15 -10.9331 18.7738)
(4.86437e-15 -10.094 17.3463)
(-1.46996e-14 -9.267 15.9421)
(-6.02502e-15 -8.4684 14.5599)
(1.33254e-15 -7.60916 13.1624)
(-2.35221e-14 -6.74757 11.3248)
(-9.86741e-15 -4.90908 9.19173)
(-2.50282e-14 -4.70993 6.69632)
(-2.77147e-14 -2.00484 5.65726)
(6.85645e-15 -3.99811 6.47307)
(1.87702e-14 -10.3364 18.504)
(2.05858e-15 -13.1801 21.8794)
(-7.15876e-15 -13.3356 23.1689)
(6.43507e-15 -12.9264 22.0684)
(-1.16208e-14 -11.9935 20.5107)
(-7.14705e-15 -11.0802 18.9665)
(1.32643e-14 -10.2065 17.4841)
(-1.59226e-14 -9.3401 16.0286)
(-7.73765e-15 -8.51614 14.6001)
(3.23885e-15 -7.59929 13.1696)
(-2.92219e-14 -6.73831 11.2243)
(-1.23461e-14 -4.74494 9.02698)
(-2.56749e-14 -4.67652 6.53198)
(-3.07169e-14 -1.9895 5.68751)
(-1.00932e-14 -3.49961 5.23753)
(1.20216e-14 -9.48968 17.4997)
(-4.76529e-15 -12.2601 21.1902)
(5.33609e-15 -12.4283 22.6089)
(3.06302e-17 -12.0746 21.7291)
(-1.09038e-14 -11.2296 20.4077)
(-2.67327e-15 -10.4394 19.0934)
(4.95995e-15 -9.67127 17.7241)
(-1.43176e-14 -8.89839 16.3705)
(-4.01172e-15 -8.12971 14.9709)
(-5.33082e-15 -7.28807 13.4573)
(-2.63319e-14 -6.33601 11.4355)
(-1.28127e-14 -4.7789 9.27784)
(-3.10411e-14 -4.84671 7.26377)
(-2.74791e-14 -2.03948 5.91319)
(-7.87212e-15 -7.14852 14.4351)
(1.1168e-14 -12.5766 22.7938)
(2.02976e-15 -14.7918 24.5552)
(2.27677e-15 -14.7116 25.3589)
(-1.87085e-15 -14.0927 23.3457)
(-9.3289e-15 -12.6174 21.2044)
(-2.65085e-15 -11.2388 18.8507)
(8.16708e-16 -9.89271 16.9337)
(-1.28592e-14 -8.64062 15.0112)
(-5.03266e-15 -7.52437 13.26)
(-1.46065e-14 -6.19072 11.194)
(-2.302e-14 -4.64624 8.5149)
(-2.15311e-14 -2.75767 5.98708)
(-3.78034e-14 -2.2503 3.60017)
(-1.43356e-14 -0.330518 1.52123)
(-3.03103e-15 0.147482 -2.35747)
(-4.16439e-15 0.236192 -3.73129)
(-3.01201e-15 0.602514 -3.31007)
(-3.00098e-15 0.946534 -3.71823)
(-2.91892e-15 1.30131 -3.88637)
(-4.24212e-15 1.16177 -5.11316)
(-3.28418e-15 1.38748 -3.77112)
(-3.3236e-15 1.72893 -3.953)
(-2.59836e-15 2.03175 -4.05621)
(-1.95956e-15 2.3531 -5.06919)
(-1.62773e-15 2.00831 -3.84867)
(-1.81799e-15 2.14534 -3.85104)
(-3.10375e-15 3.07645 -4.57548)
(-2.20868e-15 2.19101 -3.5627)
(-2.10886e-15 2.47556 -3.61999)
(-1.94213e-15 2.6053 -3.62227)
(-2.44165e-15 3.62983 -4.21458)
(-1.22696e-15 2.67568 -3.33333)
(-1.00685e-15 2.72216 -3.31365)
(-8.60371e-16 3.75457 -3.82136)
(-3.82021e-16 2.72419 -3.06862)
(-2.49738e-16 2.94636 -3.08508)
(1.5644e-16 3.02015 -3.08831)
(4.3794e-16 3.95861 -3.52139)
(4.60743e-16 2.96325 -2.85824)
(6.16589e-16 3.13047 -2.83133)
(1.82037e-16 3.17291 -2.81217)
(2.80147e-16 4.03562 -3.07377)
(-1.48368e-16 3.10015 -2.47673)
(-3.28273e-16 3.07889 -2.44442)
(-9.90333e-17 3.87789 -2.46256)
(-5.23684e-16 2.93543 -2.04343)
(-2.26847e-16 3.0602 -1.92292)
(-2.15247e-16 3.05059 -1.85505)
(3.8611e-16 3.78456 -1.63208)
(3.06463e-16 2.87666 -1.37321)
(6.08723e-16 2.84428 -1.33953)
(7.37084e-16 3.48063 -0.974505)
(6.4566e-16 2.60138 -0.896229)
(-7.98557e-17 2.68536 -0.80457)
(-1.71222e-16 2.63862 -0.782761)
(-1.67344e-15 3.1884 -0.368372)
(-1.54477e-15 2.37263 -0.444966)
(-1.83474e-15 2.4278 -0.411458)
(-2.01745e-15 2.37852 -0.42836)
(-2.09506e-15 2.77066 -0.0200115)
(-1.99541e-15 2.11964 -0.221945)
(-1.95356e-15 2.09582 -0.2726)
(-3.34562e-15 2.39112 0.153364)
(-1.48172e-15 1.77734 -0.100322)
(-8.40818e-16 1.85684 -0.1447)
(-4.15833e-16 1.7835 -0.181195)
(5.31126e-16 2.0372 0.220991)
(6.01166e-16 1.52511 -0.0827971)
(4.87136e-16 1.58045 -0.137512)
(1.8798e-15 1.51949 -0.14974)
(4.1371e-15 1.66546 0.209125)
(3.96592e-15 1.31597 -0.127613)
(2.62874e-15 1.30772 -0.150436)
(2.35972e-15 1.33704 0.166381)
(6.2421e-16 1.04571 -0.185105)
(-7.19628e-16 1.10223 -0.214028)
(-1.92088e-15 1.0568 -0.19267)
(1.67095e-14 1.0105 0.139926)
(1.04835e-14 0.787339 -0.222575)
(1.16924e-14 0.801308 -0.209389)
(1.67e-14 0.492132 0.0897559)
(5.5133e-15 0.3456 -0.360595)
(3.34298e-15 0.339422 -0.277374)
(1.75769e-15 0.295761 -0.116915)
(-2.32903e-15 0.140702 1.19935)
(-6.03728e-15 -0.317419 1.56153)
(-7.09871e-15 -0.423059 1.59152)
(-7.74932e-15 -0.526409 1.48501)
(-4.67466e-15 -1.01943 2.88252)
(-5.47164e-15 -1.35967 2.49986)
(-7.41668e-15 -1.34334 2.67924)
(-1.17576e-14 -2.21022 4.60417)
(-9.77618e-15 -2.53914 3.81201)
(-1.07594e-14 -2.63748 4.10005)
(-1.3982e-14 -2.87476 4.88151)
(-1.3825e-14 -2.92311 5.04352)
(-1.37549e-14 -3.24812 5.31157)
(-1.9326e-14 -3.65507 7.6748)
(-1.715e-14 -3.58185 7.17925)
(-1.92172e-14 -3.91302 7.65507)
(-1.95045e-14 -3.89442 7.87371)
(-1.89057e-14 -3.96631 8.07994)
(-1.84165e-14 -4.01502 8.30985)
(-1.77289e-14 -4.03715 8.57277)
(-1.61815e-14 -4.12813 8.96741)
(-1.41252e-14 -4.38615 9.44254)
(-1.1188e-14 -4.82187 11.6207)
(-1.39369e-14 -4.85035 11.139)
(-1.33413e-14 -5.08523 11.4618)
(-1.31224e-14 -5.03588 11.6944)
(-1.29335e-14 -5.23605 12.2406)
(-1.27028e-14 -5.17757 12.3497)
(-1.24392e-14 -5.21584 12.5932)
(-1.21285e-14 -5.28293 12.8358)
(-1.18157e-14 -5.51917 13.1353)
(-3.8201e-15 -5.71055 15.6379)
(-6.30884e-15 -6.08227 15.091)
(-6.05598e-15 -6.20728 15.3562)
(-5.74287e-15 -6.24144 15.5197)
(-5.28404e-15 -6.27555 15.7432)
(-4.37995e-15 -6.31877 16.0667)
(-3.44723e-15 -6.38794 16.42)
(-3.65948e-15 -6.34118 16.5556)
(-3.55346e-15 -6.41019 16.7749)
(-3.53463e-15 -6.62844 17.0121)
(-3.676e-15 -6.47675 18.964)
(-5.39297e-15 -7.19292 18.4152)
(-5.0612e-15 -7.22168 18.6398)
(-4.88128e-15 -7.26465 18.7785)
(-4.60851e-15 -7.30265 18.9613)
(-4.20798e-15 -7.29234 19.1742)
(-2.87029e-15 -7.3216 19.5503)
(-2.57168e-15 -7.34144 19.7462)
(-2.71315e-15 -7.54983 19.8885)
(-3.26722e-15 -7.02083 21.0265)
(-3.43058e-15 -8.00845 20.3456)
(-3.62914e-15 -7.93738 20.6606)
(-3.87442e-15 -7.9887 20.8899)
(-3.91374e-15 -7.92049 20.9351)
(-3.98857e-15 -7.92583 21.0431)
(-4.06948e-15 -7.88702 21.1523)
(-4.22945e-15 -7.87464 21.3164)
(-5.03869e-15 -8.12219 21.7297)
(-4.01002e-15 -6.72682 21.3512)
(-3.20237e-15 -8.27968 20.9903)
(-2.88032e-15 -8.06679 20.9854)
(-2.56743e-15 -8.04679 20.9954)
(-1.68984e-15 -8.01076 21.1573)
(-1.48611e-15 -7.9017 21.0951)
(-1.46953e-15 -7.78968 20.949)
(-1.37392e-15 -7.75187 20.7978)
(-1.26828e-15 -7.72598 20.601)
(-6.81594e-16 -5.75924 18.6172)
(-6.95606e-16 -7.48593 18.8822)
(-7.51258e-16 -7.06414 18.4529)
(-7.84324e-16 -7.07218 18.1486)
(-8.23372e-16 -6.92887 17.75)
(-8.207e-16 -6.80529 17.3004)
(-3.56205e-16 -6.64706 16.7117)
(-8.04541e-16 -6.50064 16.2745)
(-1.08331e-15 -6.32566 15.7089)
(-1.42674e-15 -5.9785 15.0556)
(-2.22022e-15 -3.3251 9.93555)
(-1.63195e-15 -5.12692 11.8089)
(-2.11827e-15 -4.42167 10.7917)
(-3.01884e-15 -4.455 10.2259)
(-3.96475e-15 -4.20573 9.43265)
(-5.24395e-15 -4.13386 8.49512)
(-7.5927e-15 -3.96006 7.04917)
(-9.9427e-15 -3.50658 5.61578)
(-9.76612e-15 -3.08216 5.25726)
(-9.9668e-15 -1.73319 1.53339)
(-1.11374e-14 -2.87066 3.63446)
(-1.14414e-14 -2.1949 2.20441)
(-9.10389e-15 -0.687594 -1.72473)
(-1.42201e-14 -3.15436 -0.0541339)
(-1.26251e-14 -1.94579 -0.260073)
(-1.11803e-14 -1.88192 -0.0783197)
(-1.64118e-14 -2.33799 -0.173144)
(-1.08171e-14 -1.6897 -0.0224659)
(-1.28605e-14 -2.33011 -0.106867)
(-1.30044e-14 -2.06223 0.0127896)
(-9.91089e-15 -1.68102 0.0414256)
(-1.47519e-14 -2.22343 0.0341177)
(-1.18866e-14 -2.04047 0.102254)
(-8.65016e-15 -1.76518 0.0982593)
(-1.2051e-14 -2.32453 0.139027)
(-7.35524e-15 -1.67618 0.125226)
(-1.15913e-14 -2.32087 0.179641)
(-7.15564e-15 -2.13337 0.160268)
(-4.48106e-15 -1.81984 0.105971)
(-6.54986e-15 -2.42723 0.171385)
(-4.96159e-15 -1.74451 0.0962712)
(-7.40182e-15 -2.472 0.178063)
(-4.60437e-15 -2.28053 0.092743)
(-3.74391e-15 -1.84142 0.040787)
(-5.01115e-15 -2.51021 0.103354)
(-3.38063e-15 -2.35033 0.000764628)
(-4.18979e-15 -1.96759 -0.0188384)
(-5.10154e-15 -2.63692 0.0036835)
(-3.68585e-15 -1.84473 -0.0536921)
(-2.39789e-15 -2.6146 -0.0310436)
(-2.99963e-15 -2.39405 -0.126014)
(-2.97202e-15 -1.99195 -0.114311)
(-4.05604e-15 -2.67759 -0.130076)
(-2.91633e-15 -1.85762 -0.151705)
(-4.34145e-15 -2.64993 -0.171434)
(-3.4462e-15 -2.37847 -0.2431)
(-2.3454e-15 -1.87937 -0.224539)
(-3.53808e-15 -2.56569 -0.294088)
(1.40492e-16 -2.32489 -0.341735)
(-1.72542e-15 -1.907 -0.300738)
(-2.60465e-15 -2.52302 -0.384621)
(-1.82841e-15 -1.71676 -0.34277)
(-2.12461e-15 -2.40192 -0.453716)
(-1.27536e-15 -2.10947 -0.483023)
(-3.1719e-15 -1.71689 -0.424474)
(-7.35534e-15 -2.223 -0.549434)
(-2.76988e-15 -1.48777 -0.464556)
(-3.85046e-15 -2.04408 -0.631589)
(-3.59557e-15 -1.7202 -0.633852)
(-2.57913e-15 -1.30042 -0.559248)
(-3.8024e-15 -1.69163 -0.775493)
(-3.48969e-15 -1.39893 -0.7551)
(-3.62787e-15 -1.03476 -0.64301)
(-1.08189e-14 -1.30304 -0.843456)
(-5.74896e-15 -0.7464 -0.676735)
(-6.92398e-15 -0.995715 -0.917542)
(-5.64864e-15 -0.660587 -0.858766)
(-4.91582e-15 -0.322029 -0.75056)
(-6.39666e-15 -0.511131 -0.924975)
(-6.2485e-16 -0.115401 -0.846203)
(-1.37131e-15 -0.199214 -1.00297)
(-1.667e-15 0.0305749 -1.33481)
(-1.15194e-15 0.47063 -1.00682)
(-4.78648e-15 0.590433 -1.2696)
(3.21731e-15 0.871746 -1.61261)
(-9.97303e-16 0.898019 -1.10678)
(-2.04917e-15 1.45026 -1.60717)
(-1.07569e-15 1.3518 -1.19143)
(-5.53709e-16 1.60877 -1.49784)
(-2.35193e-15 2.16793 -1.81496)
(-1.41346e-15 1.78925 -1.20485)
(-1.18341e-15 2.91052 -1.77274)
(-9.9333e-16 2.44647 -1.28059)
(-1.30234e-15 2.94734 -1.67186)
(-1.22698e-15 3.71857 -2.0973)
(-7.75674e-16 3.05572 -1.40298)
(-8.41815e-16 4.03101 -1.83454)
(-1.14997e-15 5.16851 -2.39728)
(-7.14967e-16 3.86912 -1.54787)
(-9.87437e-16 6.18929 -2.45053)
(-7.84173e-16 4.87169 -1.69187)
(-1.1011e-15 6.40894 -2.62998)
(1.48418e-17 -0.284001 8.07753)
(1.1504e-17 -0.28853 8.09903)
(9.55736e-18 -0.299219 8.1108)
(7.16894e-18 -0.313238 8.12575)
(4.70802e-18 -0.332643 8.14076)
(2.0456e-18 -0.357296 8.15688)
(-8.42722e-19 -0.387907 8.17417)
(-4.01389e-18 -0.425085 8.19293)
(-7.529e-18 -0.469611 8.21346)
(-1.14624e-17 -0.522354 8.23612)
(-1.5903e-17 -0.584265 8.26131)
(-2.09583e-17 -0.656455 8.28952)
(-2.67593e-17 -0.740262 8.32128)
(-3.34657e-17 -0.837144 8.35727)
(-4.12761e-17 -0.948439 8.39825)
(-5.04349e-17 -1.07567 8.4451)
(-6.12475e-17 -1.22041 8.49885)
(-7.40964e-17 -1.38419 8.56067)
(-8.94638e-17 -1.56848 8.63196)
(-1.0796e-16 -1.77457 8.71429)
(-1.30365e-16 -2.0036 8.80951)
(-1.57674e-16 -2.25666 8.91965)
(-1.91171e-16 -2.5342 9.04697)
(-2.32513e-16 -2.83644 9.19407)
(-2.83843e-16 -3.1632 9.36381)
(-3.47926e-16 -3.51398 9.55943)
(-4.2832e-16 -3.88805 9.78442)
(-5.29557e-16 -4.2846 10.0426)
(-6.57299e-16 -4.70299 10.338)
(-8.18412e-16 -5.14298 10.6748)
(-1.02081e-15 -5.60493 11.057)
(-1.27286e-15 -6.08992 11.4882)
(-1.58224e-15 -6.59967 11.9712)
(-1.95385e-15 -7.13615 12.5069)
(-2.3871e-15 -7.7011 13.0937)
(-2.87288e-15 -8.2953 13.7269)
(-3.39141e-15 -8.91863 14.3983)
(-3.91244e-15 -9.57079 15.0974)
(-4.3993e-15 -10.2529 15.813)
(-4.81715e-15 -10.9687 16.5354)
(-5.14324e-15 -11.7235 17.2547)
(-5.37394e-15 -12.5165 17.9529)
(-5.5221e-15 -13.3281 18.5908)
(-5.60201e-15 -14.104 19.0994)
(-5.60884e-15 -14.7469 19.3803)
(-5.50279e-15 -15.1089 19.2694)
(-5.19157e-15 -14.9292 18.4037)
(-4.5026e-15 -13.6406 16.1528)
(-3.22028e-15 -9.98893 12.0818)
(-1.45178e-15 -2.159 7.23954)
(-8.38662e-16 0.871188 6.41715)
(-1.43808e-15 -4.66676 8.88058)
(-2.2198e-15 -7.71667 11.6423)
(-3.04418e-15 -9.44806 14.4803)
(-3.62739e-15 -9.78077 15.3982)
(-3.83464e-15 -7.81624 13.628)
(-3.7634e-15 -3.96868 11.3785)
(-3.88719e-15 -1.08613 12.9828)
(-4.01994e-15 0.308715 14.5084)
(-3.99284e-15 2.63221 14.5403)
(-3.96021e-15 5.07904 15.1818)
(-3.82253e-15 7.45827 15.9707)
(-3.50096e-15 9.44826 16.5828)
(-2.91621e-15 10.4255 16.3776)
(-2.10556e-15 9.74241 14.6154)
(-1.34172e-15 7.50729 11.1132)
(-1.03279e-15 5.28908 7.24295)
(-1.19081e-15 4.61323 5.15)
(-1.3388e-15 4.29701 4.29388)
(-1.29705e-15 2.40735 2.63307)
(-1.15416e-15 -1.0906 -0.315038)
(-1.13788e-15 -2.09184 -0.814289)
(-1.22958e-15 -3.59148 -2.06968)
(-1.349e-15 -5.12378 -3.44428)
(-1.38967e-15 -5.49403 -4.47997)
(-1.34619e-15 -4.61781 -4.97082)
(-1.26402e-15 -2.99629 -5.04546)
(-1.22952e-15 -0.886373 -4.95728)
(-1.24758e-15 2.33376 -4.8531)
(8.06314e-18 -0.286619 8.12496)
(4.4646e-18 -0.291981 8.14662)
(2.37718e-18 -0.302921 8.15865)
(-1.85229e-19 -0.317834 8.17429)
(-2.82274e-18 -0.338043 8.18984)
(-5.67278e-18 -0.363698 8.20655)
(-8.7616e-18 -0.395378 8.22442)
(-1.21492e-17 -0.433758 8.24375)
(-1.59e-17 -0.479616 8.26483)
(-2.00925e-17 -0.533849 8.28803)
(-2.48206e-17 -0.597432 8.31374)
(-3.01982e-17 -0.671677 8.34248)
(-3.63637e-17 -0.757844 8.37484)
(-4.34852e-17 -0.857265 8.41149)
(-5.17736e-17 -0.971452 8.4532)
(-6.14876e-17 -1.10203 8.50082)
(-7.29499e-17 -1.25057 8.55544)
(-8.65661e-17 -1.41864 8.61827)
(-1.02847e-16 -1.60776 8.69074)
(-1.22439e-16 -1.81926 8.77451)
(-1.46168e-16 -2.05422 8.87157)
(-1.75087e-16 -2.31367 8.98394)
(-2.10558e-16 -2.59792 9.11405)
(-2.54329e-16 -2.90704 9.26458)
(-3.08664e-16 -3.24064 9.43854)
(-3.76482e-16 -3.59795 9.63926)
(-4.6152e-16 -3.978 9.8703)
(-5.68519e-16 -4.37975 10.1355)
(-7.03358e-16 -4.80234 10.4389)
(-8.73081e-16 -5.2454 10.7846)
(-1.08566e-15 -5.70919 11.1764)
(-1.34931e-15 -6.19475 11.6176)
(-1.67111e-15 -6.70372 12.1105)
(-2.05486e-15 -7.23795 12.6555)
(-2.49827e-15 -7.79894 13.2502)
(-2.99008e-15 -8.38732 13.8892)
(-3.50836e-15 -9.00303 14.5637)
(-4.0215e-15 -9.64626 15.2631)
(-4.49309e-15 -10.3189 15.9772)
(-4.89072e-15 -11.0252 16.6972)
(-5.19566e-15 -11.7685 17.4128)
(-5.40813e-15 -12.5429 18.1034)
(-5.5422e-15 -13.3199 18.7248)
(-5.60954e-15 -14.0354 19.2038)
(-5.59997e-15 -14.5801 19.4349)
(-5.46548e-15 -14.7759 19.2299)
(-5.09885e-15 -14.2929 18.1765)
(-4.31091e-15 -12.4639 15.5727)
(-2.91337e-15 -8.0087 10.9464)
(-1.21256e-15 -0.433665 5.53322)
(-1.04136e-15 -1.27854 6.36139)
(-1.61753e-15 -5.90456 9.64437)
(-2.39877e-15 -8.63469 12.391)
(-3.18414e-15 -9.96065 14.8942)
(-3.69291e-15 -9.62945 15.2082)
(-3.83526e-15 -7.09591 13.0955)
(-3.81515e-15 -3.54513 11.5776)
(-3.98051e-15 -1.42383 13.3196)
(-4.05153e-15 0.0819242 14.0065)
(-4.04737e-15 2.44037 14.1328)
(-4.03515e-15 4.8183 14.821)
(-3.94056e-15 7.21548 15.7417)
(-3.67885e-15 9.35788 16.6049)
(-3.15563e-15 10.6853 16.8148)
(-2.37098e-15 10.5001 15.5964)
(-1.54882e-15 8.62436 12.5407)
(-1.09787e-15 6.24533 8.60177)
(-1.15356e-15 5.08253 5.90139)
(-1.31799e-15 4.63688 4.68525)
(-1.31496e-15 2.99701 3.1686)
(-1.1736e-15 -0.315053 0.365219)
(-1.13746e-15 -1.99955 -0.766199)
(-1.21915e-15 -3.35116 -1.95151)
(-1.33904e-15 -4.85895 -3.31372)
(-1.38869e-15 -5.35439 -4.39018)
(-1.35586e-15 -4.62605 -4.91934)
(-1.28118e-15 -3.08555 -4.99766)
(-1.24141e-15 -0.983234 -4.89108)
(-1.2683e-15 2.09425 -4.29207)
(-4.94432e-19 -0.286623 8.18899)
(-4.40824e-18 -0.293419 8.2113)
(-6.67194e-18 -0.304333 8.22387)
(-9.45331e-18 -0.31976 8.24025)
(-1.23155e-17 -0.340393 8.25639)
(-1.54079e-17 -0.366617 8.27374)
(-1.87584e-17 -0.398942 8.29221)
(-2.24318e-17 -0.438065 8.31212)
(-2.64971e-17 -0.484777 8.33374)
(-3.10384e-17 -0.540019 8.35742)
(-3.61557e-17 -0.604967 8.3836)
(-4.19707e-17 -0.68074 8.41284)
(-4.86307e-17 -0.768271 8.4458)
(-5.63149e-17 -0.869433 8.48307)
(-6.52493e-17 -0.985491 8.52545)
(-7.57101e-17 -1.11813 8.57383)
(-8.80423e-17 -1.26885 8.62934)
(-1.0268e-16 -1.43926 8.69325)
(-1.20172e-16 -1.63086 8.76706)
(-1.4121e-16 -1.84498 8.85251)
(-1.66681e-16 -2.08275 8.9517)
(-1.9771e-16 -2.34518 9.06673)
(-2.35756e-16 -2.63267 9.20019)
(-2.82692e-16 -2.94532 9.35491)
(-3.40933e-16 -3.28284 9.53401)
(-4.1359e-16 -3.64457 9.74096)
(-5.04626e-16 -4.02964 9.97943)
(-6.19038e-16 -4.43713 10.2533)
(-7.62954e-16 -4.86629 10.5666)
(-9.43606e-16 -5.31685 10.9233)
(-1.16898e-15 -5.78909 11.3271)
(-1.447e-15 -6.28395 11.7808)
(-1.7839e-15 -6.80281 12.2863)
(-2.18199e-15 -7.34708 12.843)
(-2.63678e-15 -7.91762 13.4478)
(-3.13439e-15 -8.5144 14.0942)
(-3.65043e-15 -9.13691 14.7727)
(-4.15201e-15 -9.78531 15.4729)
(-4.60356e-15 -10.4618 16.1851)
(-4.976e-15 -11.1707 16.9012)
(-5.25563e-15 -11.9138 17.61)
(-5.44684e-15 -12.6809 18.2868)
(-5.56433e-15 -13.4368 18.8827)
(-5.616e-15 -14.1093 19.3199)
(-5.58456e-15 -14.5759 19.4808)
(-5.41021e-15 -14.624 19.1372)
(-4.96593e-15 -13.8528 17.811)
(-4.05156e-15 -11.5045 14.7648)
(-2.55251e-15 -6.43343 9.63249)
(-1.04608e-15 0.125669 4.19189)
(-1.28071e-15 -2.51086 6.58136)
(-1.83948e-15 -6.5946 10.3388)
(-2.61171e-15 -9.20362 13.1195)
(-3.34051e-15 -10.2471 15.191)
(-3.75737e-15 -9.40055 14.8206)
(-3.84208e-15 -6.57278 12.5633)
(-3.87525e-15 -3.4103 11.8274)
(-4.03361e-15 -1.54488 13.2922)
(-4.06157e-15 0.116506 13.5493)
(-4.07073e-15 2.33518 13.8384)
(-4.07041e-15 4.67538 14.5397)
(-4.00356e-15 7.05803 15.5242)
(-3.78143e-15 9.25263 16.5164)
(-3.30122e-15 10.7394 16.9573)
(-2.5412e-15 10.8182 16.07)
(-1.69431e-15 9.19276 13.3401)
(-1.16157e-15 6.83201 9.46707)
(-1.14637e-15 5.44335 6.45696)
(-1.30854e-15 4.88015 4.98922)
(-1.32511e-15 3.36775 3.52742)
(-1.19928e-15 0.344486 1.05654)
(-1.1384e-15 -1.7011 -0.657839)
(-1.20683e-15 -3.05625 -1.77987)
(-1.32614e-15 -4.54896 -3.13232)
(-1.38607e-15 -5.14802 -4.25311)
(-1.36613e-15 -4.5441 -4.83453)
(-1.30091e-15 -3.07026 -4.9293)
(-1.26047e-15 -0.990092 -4.80027)
(-1.2831e-15 1.88637 -3.99885)
(-1.0301e-17 -0.288364 8.26169)
(-1.45191e-17 -0.29563 8.28477)
(-1.69545e-17 -0.306263 8.29782)
(-1.99469e-17 -0.321762 8.31476)
(-2.30255e-17 -0.342419 8.33141)
(-2.63517e-17 -0.368662 8.34928)
(-2.99564e-17 -0.401077 8.36825)
(-3.39098e-17 -0.440337 8.38869)
(-3.82866e-17 -0.487278 8.41088)
(-4.31778e-17 -0.542852 8.43519)
(-4.86917e-17 -0.608256 8.46203)
(-5.49583e-17 -0.684442 8.49192)
(-6.21353e-17 -0.772598 8.52549)
(-7.04171e-17 -0.87457 8.56337)
(-8.00449e-17 -0.991573 8.60642)
(-9.13152e-17 -1.12521 8.65555)
(-1.04598e-16 -1.27713 8.71194)
(-1.20359e-16 -1.44896 8.77694)
(-1.39185e-16 -1.64218 8.85213)
(-1.61821e-16 -1.85819 8.9393)
(-1.89217e-16 -2.09813 9.04057)
(-2.22579e-16 -2.36307 9.15836)
(-2.63472e-16 -2.65349 9.29527)
(-3.13901e-16 -2.9696 9.45431)
(-3.76449e-16 -3.3112 9.63875)
(-4.54428e-16 -3.67779 9.85217)
(-5.52042e-16 -4.06859 10.0983)
(-6.74544e-16 -4.48283 10.3812)
(-8.28305e-16 -4.9199 10.7048)
(-1.02071e-15 -5.37959 11.0729)
(-1.25968e-15 -5.86219 11.489)
(-1.5527e-15 -6.36853 11.9556)
(-1.905e-15 -6.8997 12.4737)
(-2.31716e-15 -7.45663 13.0422)
(-2.78232e-15 -8.03959 13.6568)
(-3.2839e-15 -8.64795 14.31)
(-3.79527e-15 -9.28079 14.992)
(-4.28266e-15 -9.9382 15.6926)
(-4.712e-15 -10.6224 16.4027)
(-5.05816e-15 -11.3367 17.1144)
(-5.3125e-15 -12.0804 17.8147)
(-5.48304e-15 -12.8384 18.4747)
(-5.58415e-15 -13.5691 19.0407)
(-5.61913e-15 -14.1928 19.4294)
(-5.56231e-15 -14.5703 19.5046)
(-5.33931e-15 -14.4488 18.9868)
(-4.80276e-15 -13.3632 17.3295)
(-3.75681e-15 -10.5347 13.7968)
(-2.2032e-15 -5.20709 8.25333)
(-1.00418e-15 -0.297481 3.43766)
(-1.49866e-15 -3.59862 7.20541)
(-2.06595e-15 -7.27596 11.0272)
(-2.82069e-15 -9.65435 13.7509)
(-3.48158e-15 -10.3346 15.2951)
(-3.80578e-15 -9.01389 14.2987)
(-3.85188e-15 -6.12877 12.1129)
(-3.9241e-15 -3.45217 11.9633)
(-4.05421e-15 -1.73314 13.0386)
(-4.06767e-15 0.0109781 13.1258)
(-4.08662e-15 2.17438 13.4738)
(-4.09957e-15 4.46755 14.1825)
(-4.06337e-15 6.83285 15.2246)
(-3.88736e-15 9.0887 16.3504)
(-3.46012e-15 10.7688 17.0438)
(-2.73556e-15 11.177 16.5262)
(-1.87066e-15 9.88266 14.1736)
(-1.25193e-15 7.58806 10.425)
(-1.14678e-15 5.93385 7.12636)
(-1.2943e-15 5.17501 5.3454)
(-1.33374e-15 3.75986 3.87982)
(-1.22032e-15 0.961853 1.56707)
(-1.14089e-15 -1.38947 -0.501828)
(-1.19538e-15 -2.823 -1.59079)
(-1.31223e-15 -4.28294 -2.92779)
(-1.38159e-15 -4.9517 -4.08626)
(-1.37461e-15 -4.45911 -4.72161)
(-1.31931e-15 -3.06216 -4.83819)
(-1.28147e-15 -1.038 -4.66846)
(-1.31253e-15 1.60621 -3.8821)
(-2.14517e-17 -0.290848 8.34196)
(-2.59615e-17 -0.298481 8.36568)
(-2.85658e-17 -0.308936 8.37902)
(-3.17637e-17 -0.324508 8.39633)
(-3.50543e-17 -0.345225 8.41336)
(-3.86106e-17 -0.371614 8.43162)
(-4.24663e-17 -0.404201 8.45101)
(-4.66973e-17 -0.44369 8.4719)
(-5.1384e-17 -0.490941 8.49462)
(-5.66246e-17 -0.546898 8.51952)
(-6.25353e-17 -0.612511 8.54697)
(-6.92558e-17 -0.688993 8.57742)
(-7.69566e-17 -0.777938 8.6115)
(-8.58475e-17 -0.880641 8.64997)
(-9.61864e-17 -0.99856 8.69364)
(-1.08292e-16 -1.13327 8.74353)
(-1.22563e-16 -1.28654 8.80079)
(-1.39498e-16 -1.45996 8.86687)
(-1.59727e-16 -1.65512 8.9434)
(-1.8405e-16 -1.87348 9.03222)
(-2.13484e-16 -2.1162 9.13557)
(-2.49322e-16 -2.38442 9.25609)
(-2.93242e-16 -2.67867 9.39643)
(-3.47387e-16 -2.99928 9.55979)
(-4.14514e-16 -3.34615 9.74957)
(-4.98141e-16 -3.71884 9.96948)
(-6.02714e-16 -4.11668 10.2234)
(-7.33735e-16 -4.53894 10.5153)
(-8.9779e-16 -4.98507 10.8492)
(-1.10236e-15 -5.45489 11.2287)
(-1.35522e-15 -5.94859 11.6571)
(-1.66325e-15 -6.46677 12.1364)
(-2.03053e-15 -7.01013 12.6669)
(-2.45575e-15 -7.57915 13.2466)
(-2.92959e-15 -8.17344 13.8702)
(-3.43289e-15 -8.79181 14.5296)
(-3.93706e-15 -9.43299 15.2145)
(-4.40805e-15 -10.097 15.915)
(-4.81391e-15 -10.7859 16.623)
(-5.13383e-15 -11.5019 17.33)
(-5.36404e-15 -12.2411 18.0206)
(-5.51529e-15 -12.9834 18.6614)
(-5.60068e-15 -13.6815 19.1942)
(-5.61809e-15 -14.2465 19.5279)
(-5.53204e-15 -14.5175 19.4995)
(-5.25134e-15 -14.1961 18.7693)
(-4.61116e-15 -12.7639 16.7317)
(-3.44041e-15 -9.48515 12.7041)
(-1.89121e-15 -4.12105 6.91248)
(-1.07743e-15 -0.828847 3.3489)
(-1.70421e-15 -4.43709 7.92686)
(-2.28518e-15 -7.8792 11.6735)
(-3.01466e-15 -10.0062 14.2344)
(-3.59936e-15 -10.2898 15.1931)
(-3.83665e-15 -8.5732 13.6896)
(-3.8611e-15 -5.79354 11.7378)
(-3.95716e-15 -3.55668 11.9739)
(-4.05765e-15 -1.90068 12.6998)
(-4.06731e-15 -0.104678 12.7276)
(-4.09061e-15 2.01692 13.0871)
(-4.11599e-15 4.26397 13.7917)
(-4.10925e-15 6.59928 14.8703)
(-3.97995e-15 8.89035 16.1045)
(-3.60939e-15 10.7252 17.0248)
(-2.92843e-15 11.4276 16.8628)
(-2.05772e-15 10.4695 14.9059)
(-1.36288e-15 8.31194 11.3537)
(-1.16206e-15 6.46675 7.84638)
(-1.28097e-15 5.50014 5.73975)
(-1.33941e-15 4.12653 4.21981)
(-1.23933e-15 1.48308 2.00579)
(-1.14071e-15 -1.04968 -0.328772)
(-1.18434e-15 -2.61903 -1.39402)
(-1.29812e-15 -4.05543 -2.70436)
(-1.37547e-15 -4.7712 -3.89261)
(-1.38076e-15 -4.37797 -4.58033)
(-1.33511e-15 -3.06803 -4.72226)
(-1.30225e-15 -1.13257 -4.5391)
(-1.33776e-15 1.29204 -3.52093)
(-3.40291e-17 -0.293669 8.43061)
(-3.88178e-17 -0.301547 8.45482)
(-4.15869e-17 -0.311867 8.46834)
(-4.49856e-17 -0.327513 8.48591)
(-4.8486e-17 -0.34836 8.50322)
(-5.22723e-17 -0.374976 8.52179)
(-5.63813e-17 -0.407845 8.54149)
(-6.08947e-17 -0.447671 8.5627)
(-6.58992e-17 -0.495296 8.5857)
(-7.14997e-17 -0.551682 8.61084)
(-7.78211e-17 -0.617823 8.63853)
(-8.50142e-17 -0.69504 8.66923)
(-9.32627e-17 -0.7848 8.70365)
(-1.02791e-16 -0.888447 8.74253)
(-1.13876e-16 -1.00752 8.78669)
(-1.26859e-16 -1.14366 8.83718)
(-1.42169e-16 -1.29858 8.8952)
(-1.60342e-16 -1.47397 8.96221)
(-1.82052e-16 -1.67147 9.03993)
(-2.08158e-16 -1.89262 9.13029)
(-2.39749e-16 -2.1387 9.23567)
(-2.78211e-16 -2.41086 9.3588)
(-3.2534e-16 -2.7097 9.5025)
(-3.83424e-16 -3.03562 9.6701)
(-4.55397e-16 -3.38862 9.86516)
(-5.4499e-16 -3.76833 10.0915)
(-6.56885e-16 -4.17414 10.3531)
(-7.96817e-16 -4.60535 10.654)
(-9.7155e-16 -5.06137 10.9981)
(-1.18859e-15 -5.54198 11.389)
(-1.45546e-15 -6.04722 11.8296)
(-1.7783e-15 -6.5774 12.3213)
(-2.15984e-15 -7.13275 12.8638)
(-2.59678e-15 -7.71315 13.4541)
(-3.07732e-15 -8.3176 14.0861)
(-3.57986e-15 -8.94437 14.7509)
(-4.07429e-15 -9.59186 15.4382)
(-4.52689e-15 -10.2601 16.1386)
(-4.90843e-15 -10.9508 16.8444)
(-5.20263e-15 -11.6648 17.5465)
(-5.41013e-15 -12.395 18.2261)
(-5.54353e-15 -13.1166 18.8456)
(-5.61365e-15 -13.7762 19.3419)
(-5.61206e-15 -14.2737 19.6124)
(-5.49172e-15 -14.4202 19.4576)
(-5.14326e-15 -13.8691 18.4733)
(-4.39096e-15 -12.066 16.015)
(-3.11142e-15 -8.37876 11.5155)
(-1.62999e-15 -3.16911 5.69594)
(-1.22245e-15 -1.37001 3.77028)
(-1.8996e-15 -5.12971 8.64316)
(-2.49367e-15 -8.43031 12.2532)
(-3.18962e-15 -10.2617 14.5441)
(-3.69218e-15 -10.1271 14.8992)
(-3.85203e-15 -8.1231 13.0354)
(-3.86852e-15 -5.54752 11.4242)
(-3.9764e-15 -3.66014 11.8815)
(-4.05069e-15 -2.03624 12.3249)