/*--------------------------------*- C++ -*----------------------------------*\
| =========                 |                                                 |
| \\      /  F ield         | OpenFOAM: The Open Source CFD Toolbox           |
|  \\    /   O peration     | Version:  4.1                                   |
|   \\  /    A nd           | Web:      www.OpenFOAM.org                      |
|    \\/     M anipulation  |                                                 |
\*---------------------------------------------------------------------------*/
FoamFile
{
    version     2.0;
    format      ascii;
    class       volScalarField;
    location    "7";
    object      p;
}
// * * * * * * * * * * * * * * * * * * * * * * * * * * * * * * * * * * * * * //

dimensions      [0 2 -2 0 0 0 0];

internalField   nonuniform List<scalar> 
225
(
523.381
469.984
418.152
369.741
324.85
282.833
243.478
206.474
171.38
138.016
107.074
78.9356
49.9067
14.9879
-14.1642
56.9464
34.6854
28.9268
25.2165
19.7425
14.0351
8.88217
4.49342
1.00951
-1.44924
-2.64053
-2.13887
-0.0424281
1.8291
2.08929
-45.8358
-52.4787
-46.7117
-42.5647
-39.4741
-35.8789
-31.9926
-28.0552
-24.1509
-20.435
-17.0895
-14.0223
-10.9455
-8.29269
-7.05843
0.298443
-2.11956
2.47305
2.79687
2.85021
3.0654
2.97633
2.59908
2.01754
1.25839
0.301703
-0.807564
-1.7178
-1.87001
-1.55953
16.7248
14.3917
15.9451
13.8473
12.4289
11.1858
9.77611
8.39442
7.13715
6.04618
5.1452
4.43266
3.95506
3.92234
4.16722
7.49664
5.47391
6.44882
5.23069
5.02838
5.01258
4.92453
4.95765
5.11307
5.35632
5.6753
6.03791
6.35745
6.61418
6.78895
4.03024
2.87547
3.96165
3.63821
4.02377
4.4166
4.71474
5.06489
5.42104
5.74557
6.03523
6.28928
6.46771
6.54889
6.56462
5.70739
5.14908
6.00173
5.77038
5.96725
6.07943
6.10379
6.14965
6.17475
6.17057
6.14761
6.12044
6.08713
6.04136
5.99287
6.00711
5.68074
6.19004
5.91386
5.95824
5.92969
5.85651
5.81061
5.75582
5.69583
5.63684
5.58363
5.53669
5.49046
5.43927
4.6887
4.48151
4.8289
4.65565
4.73154
4.74207
4.72928
4.73691
4.73367
4.72615
4.71563
4.69997
4.67718
4.64176
4.58413
3.32977
3.21497
3.51536
3.46345
3.58278
3.62729
3.65325
3.68607
3.70111
3.70672
3.7038
3.69071
3.6665
3.62823
3.56275
2.35962
2.29954
2.55328
2.55213
2.6666
2.70464
2.73178
2.75826
2.76578
2.76394
2.75303
2.73301
2.70368
2.66494
2.60007
1.57145
1.53507
1.73381
1.74339
1.83974
1.86571
1.88926
1.90813
1.90994
1.90428
1.89066
1.86918
1.83998
1.8052
1.74703
0.876215
0.862771
1.02106
1.02461
1.10295
1.1193
1.13976
1.1535
1.15374
1.14904
1.13806
1.12062
1.09521
1.06377
1.0094
0.431439
0.392729
0.450435
0.421587
0.461057
0.444381
0.438356
0.423484
0.401485
0.377827
0.350337
0.320853
0.289957
0.259936
0.21702
)
;

boundaryField
{
    inletFace
    {
        type            zeroGradient;
    }
    inlet
    {
        type            zeroGradient;
    }
    inletWalls
    {
        type            zeroGradient;
    }
    outletInlet
    {
        type            fixedValue;
        value           uniform 0;
    }
}


// ************************************************************************* //
