/*--------------------------------*- C++ -*----------------------------------*\
| =========                 |                                                 |
| \\      /  F ield         | OpenFOAM: The Open Source CFD Toolbox           |
|  \\    /   O peration     | Version:  4.1                                   |
|   \\  /    A nd           | Web:      www.OpenFOAM.org                      |
|    \\/     M anipulation  |                                                 |
\*---------------------------------------------------------------------------*/
FoamFile
{
    version     2.0;
    format      ascii;
    class       surfaceScalarField;
    location    "7";
    object      phi;
}
// * * * * * * * * * * * * * * * * * * * * * * * * * * * * * * * * * * * * * //

dimensions      [0 3 -1 0 0 0 0];

internalField   nonuniform List<scalar> 
420
(
-949.879
2249.78
-1573.96
1924.28
-2054
1779.95
-2424.23
1670.13
-2699.86
1575.83
-2888.38
1488.42
-2993.06
1404.58
-3013.86
1321
-2949.62
1235.66
-2797.24
1147.52
-2551.17
1054.13
-2193
941.735
-1687.17
794.064
-1012.67
625.703
287.229
373.335
1876.44
442.748
1854.86
437.3
1785.39
406.696
1700.73
380.578
1601.94
359.898
1509.1
345.29
1419.19
337.533
1328.76
333.48
1239.71
326.95
1154.05
309.607
1071.48
267.464
983.876
191.426
870.101
111.447
705.681
398.676
33.5734
1842.87
-97.39
1985.83
-253.614
1941.62
-371.12
1818.24
-473.183
1704
-567.534
1603.45
-651.751
1503.4
-725.8
1402.8
-788.079
1301.99
-837.314
1203.28
-868.234
1102.39
-856.095
971.735
-740.339
754.341
-434.284
399.622
-35.6083
28.7688
1814.1
-100.659
2115.25
-225.566
2066.52
-304.504
1897.18
-368.167
1767.67
-416.967
1652.24
-446.244
1532.68
-457.033
1413.59
-451.872
1296.82
-430.174
1181.58
-387.244
1059.46
-311.889
896.376
-192.876
635.325
-48.413
255.155
-84.0213
169.63
1644.47
146.16
2138.72
123.733
2088.95
122.863
1898.04
126.933
1763.6
135.793
1643.38
149.094
1519.38
166.581
1396.1
186.936
1276.47
208.125
1160.39
229.133
1038.46
243.822
881.68
232.999
646.14
155.219
332.929
71.1975
223.08
1421.39
244.179
2117.62
234.737
2098.39
236.014
1896.77
240.365
1759.24
244.306
1639.44
246.551
1517.13
245.26
1397.39
241.171
1280.56
234.002
1167.56
221.394
1051.06
199.155
903.926
156.155
689.146
78.3096
410.781
149.507
203.281
1218.11
238.33
2082.57
213.581
2123.14
191.393
1918.96
177.194
1773.44
163.776
1652.86
150.04
1530.86
135.904
1411.53
121.075
1295.38
106.923
1181.72
92.8186
1065.17
75.7671
920.983
52.0221
712.896
19.0256
443.781
168.533
171.827
1046.27
221.965
2032.43
199.422
2145.68
170.417
1947.96
152.066
1791.79
137.674
1667.25
122.774
1545.76
108.565
1425.74
95.5635
1308.38
83.0746
1194.2
71.4501
1076.79
58.5966
933.833
40.2895
731.198
15.7279
468.339
184.26
146.164
900.107
210.15
1968.44
196.971
2158.86
170.114
1974.81
152.447
1809.46
139.545
1680.14
127.083
1558.23
113.862
1438.95
101.333
1320.92
89.4261
1206.09
77.0267
1089.21
63.1026
947.709
44.3015
749.961
19.1442
493.461
203.405
116.853
783.268
184.951
1900.34
179.704
2164.11
154.345
2000.16
137.241
1826.57
124.014
1693.36
111.394
1570.85
98.9929
1451.34
86.1432
1333.77
73.9151
1218.32
62.1402
1100.97
49.0935
960.791
32.9331
766.153
13.2435
513.179
216.648
83.1397
700.143
143.1
1840.39
144.648
2162.57
122.743
2022.08
106.161
1843.15
94.5183
1705.02
82.6624
1582.71
71.2809
1462.74
60.5081
1344.54
49.5934
1229.25
39.5622
1111.01
29.8577
970.497
18.1709
777.847
5.29363
526.063
221.942
51.1577
648.99
97.8518
1793.71
102.681
2157.75
87.4182
2037.36
73.2327
1857.34
63.2658
1715.01
54.3724
1591.61
44.9965
1472.13
36.2734
1353.27
28.2918
1237.25
20.5074
1118.78
13.7766
977.258
6.82755
784.808
-0.328128
533.23
221.614
25.12
623.858
57.7805
1761.05
63.617
2151.9
53.6029
2047.38
44.0135
1866.93
36.2799
1722.75
29.6118
1598.27
23.5354
1478.22
17.0484
1359.75
11.2846
1243.02
6.52387
1123.51
2.43767
981.41
-1.08173
788.377
-3.67674
535.87
217.937
1.61839
622.238
24.3849
1738.28
33.7072
2142.59
27.9966
2053.08
20.5721
1874.36
15.1967
1728.11
9.6203
1603.85
4.62779
1483.19
0.0756167
1364.31
-4.81931
1247.89
-8.29982
1127.02
-9.68078
982.713
-9.80029
788.432
-7.2431
533.254
210.694
-11.5048
-2.82161
1.77029
-0.15556
-4.90787
-8.72192
-11.7128
-15.1928
-18.0745
-20.2257
-21.8018
-21.1507
-18.1786
-12.4434
)
;

boundaryField
{
    inletFace
    {
        type            calculated;
        value           nonuniform List<scalar> 
450
(
-1.11016e-13
4.22614e-13
2.47314e-14
-4.21602e-14
9.33144e-14
-1.96777e-13
-6.1659e-14
7.70682e-14
-1.07923e-13
-3.53524e-14
6.16726e-14
-2.81455e-14
-9.43979e-15
8.37864e-15
-8.05968e-18
-2.14935e-12
-2.31451e-12
9.92761e-14
-1.52228e-13
-2.29108e-13
4.12269e-14
-2.80037e-13
-1.54762e-13
7.98563e-15
-8.90986e-14
-4.31813e-14
5.03055e-14
-1.75396e-14
-3.03312e-15
-3.58233e-16
-2.39174e-12
-2.31175e-12
-1.61538e-14
-5.53015e-13
-2.19715e-13
-9.32729e-14
-2.62077e-13
-9.2586e-14
-1.35618e-13
-1.6903e-13
7.43427e-15
-1.35678e-14
-1.6989e-14
6.56709e-15
4.07918e-15
-2.57483e-12
-2.33554e-12
-1.96306e-13
-7.94174e-13
-2.0061e-13
-2.19773e-13
-3.60213e-13
-2.89137e-14
-1.91996e-13
-2.61062e-13
-6.96417e-15
-5.46919e-14
-8.29162e-14
5.55769e-14
6.42405e-14
-2.3813e-12
-2.17922e-12
-3.34181e-13
-5.66814e-13
-1.89452e-13
-2.47948e-13
-3.3203e-13
-8.83368e-14
-1.9376e-13
-1.71489e-13
-3.23697e-14
-4.01067e-14
-3.94511e-14
-5.04906e-14
1.58872e-14
-2.0919e-12
-2.19193e-12
-4.61354e-13
-4.63842e-13
-1.89346e-13
-1.97923e-13
-3.07075e-13
-8.76334e-14
-1.35612e-13
-1.68159e-13
-4.44344e-14
-3.03954e-15
-2.31342e-14
-5.60503e-14
-4.07454e-15
-1.87794e-12
-2.24948e-12
-6.8381e-13
-4.49499e-13
-2.30207e-13
-2.21298e-13
-3.0376e-13
-1.05867e-13
-1.35359e-13
-1.56522e-13
-7.72007e-14
-6.80143e-14
-5.34083e-14
-6.63315e-14
-1.33948e-13
-1.62335e-12
-2.25752e-12
-9.02004e-13
-4.53207e-13
-2.53086e-13
-2.46208e-13
-2.98115e-13
-1.83419e-13
-1.53959e-13
-1.44714e-13
-1.09865e-13
-1.74793e-13
-1.208e-13
-3.18387e-14
-1.7367e-13
-1.36061e-12
-2.23747e-12
-1.06851e-12
-4.83798e-13
-2.68319e-13
-2.26659e-13
-2.91271e-13
-2.03755e-13
-1.6041e-13
-1.52489e-13
-1.19937e-13
-1.37274e-13
-9.47523e-14
-2.86072e-14
-7.09076e-14
-1.16075e-12
-2.18235e-12
-1.18928e-12
-5.32327e-13
-2.94054e-13
-2.10048e-13
-3.12902e-13
-2.04166e-13
-1.43225e-13
-1.29046e-13
-1.18783e-13
-9.10887e-14
-7.82668e-14
-1.11503e-15
3.0349e-14
-9.34838e-13
-2.1132e-12
-1.29713e-12
-5.63967e-13
-2.81894e-13
-2.14325e-13
-2.45849e-13
-2.11159e-13
-1.36122e-13
-1.35649e-13
-1.22467e-13
-8.86285e-14
-1.2885e-13
-8.32953e-14
7.51968e-14
-8.06882e-13
-2.06281e-12
-1.35284e-12
-6.03029e-13
-2.70201e-13
-1.57685e-13
-2.1919e-13
-2.37902e-13
-8.79339e-14
-1.61288e-13
-1.36134e-13
-2.47283e-14
-1.10957e-13
-1.74622e-14
1.28834e-13
-7.62326e-13
-2.01389e-12
-1.39044e-12
-6.40489e-13
-3.03833e-13
-1.3802e-13
-2.46691e-13
-2.51082e-13
-9.45082e-14
-1.30468e-13
-1.31368e-13
-4.89058e-16
-5.85115e-14
6.69668e-14
1.33628e-13
-7.20236e-13
-1.97068e-12
-1.415e-12
-6.62153e-13
-3.22704e-13
-1.594e-13
-2.34118e-13
-2.62665e-13
-1.03063e-13
-1.29477e-13
-1.32956e-13
1.58435e-15
-4.09665e-14
5.93108e-14
1.02534e-13
-7.12443e-13
-1.91581e-12
-1.42115e-12
-6.84269e-13
-3.29851e-13
-1.70692e-13
-2.3688e-13
-2.57264e-13
-1.13053e-13
-1.34424e-13
-1.2136e-13
-6.04575e-15
-3.02324e-14
6.14464e-14
5.83061e-14
1.11016e-13
-4.22614e-13
-2.47314e-14
4.21602e-14
-9.33144e-14
1.96777e-13
6.1659e-14
-7.70682e-14
1.07923e-13
3.53524e-14
-6.16726e-14
2.81455e-14
9.43979e-15
-8.37864e-15
8.05968e-18
2.14935e-12
2.31451e-12
-9.92761e-14
1.52228e-13
2.29108e-13
-4.12269e-14
2.80037e-13
1.54762e-13
-7.98563e-15
8.90986e-14
4.31813e-14
-5.03055e-14
1.75396e-14
3.03312e-15
3.58233e-16
2.39174e-12
2.31175e-12
1.61538e-14
5.53015e-13
2.19715e-13
9.32729e-14
2.62077e-13
9.2586e-14
1.35618e-13
1.6903e-13
-7.43427e-15
1.35678e-14
1.6989e-14
-6.56709e-15
-4.07918e-15
2.57483e-12
2.33554e-12
1.96306e-13
7.94174e-13
2.0061e-13
2.19773e-13
3.60213e-13
2.89137e-14
1.91996e-13
2.61062e-13
6.96417e-15
5.46919e-14
8.29162e-14
-5.55769e-14
-6.42405e-14
2.3813e-12
2.17922e-12
3.34181e-13
5.66814e-13
1.89452e-13
2.47948e-13
3.3203e-13
8.83368e-14
1.9376e-13
1.71489e-13
3.23697e-14
4.01067e-14
3.94511e-14
5.04906e-14
-1.58872e-14
2.0919e-12
2.19193e-12
4.61354e-13
4.63842e-13
1.89346e-13
1.97923e-13
3.07075e-13
8.76334e-14
1.35612e-13
1.68159e-13
4.44344e-14
3.03954e-15
2.31342e-14
5.60503e-14
4.07454e-15
1.87794e-12
2.24948e-12
6.8381e-13
4.49499e-13
2.30207e-13
2.21298e-13
3.0376e-13
1.05867e-13
1.35359e-13
1.56522e-13
7.72007e-14
6.80143e-14
5.34083e-14
6.63315e-14
1.33948e-13
1.62335e-12
2.25752e-12
9.02004e-13
4.53207e-13
2.53086e-13
2.46208e-13
2.98115e-13
1.83419e-13
1.53959e-13
1.44714e-13
1.09865e-13
1.74793e-13
1.208e-13
3.18387e-14
1.7367e-13
1.36061e-12
2.23747e-12
1.06851e-12
4.83798e-13
2.68319e-13
2.26659e-13
2.91271e-13
2.03755e-13
1.6041e-13
1.52489e-13
1.19937e-13
1.37274e-13
9.47523e-14
2.86072e-14
7.09076e-14
1.16075e-12
2.18235e-12
1.18928e-12
5.32327e-13
2.94054e-13
2.10048e-13
3.12902e-13
2.04166e-13
1.43225e-13
1.29046e-13
1.18783e-13
9.10887e-14
7.82668e-14
1.11503e-15
-3.0349e-14
9.34838e-13
2.1132e-12
1.29713e-12
5.63967e-13
2.81894e-13
2.14325e-13
2.45849e-13
2.11159e-13
1.36122e-13
1.35649e-13
1.22467e-13
8.86285e-14
1.2885e-13
8.32953e-14
-7.51968e-14
8.06882e-13
2.06281e-12
1.35284e-12
6.03029e-13
2.70201e-13
1.57685e-13
2.1919e-13
2.37902e-13
8.79339e-14
1.61288e-13
1.36134e-13
2.47283e-14
1.10957e-13
1.74622e-14
-1.28834e-13
7.62326e-13
2.01389e-12
1.39044e-12
6.40489e-13
3.03833e-13
1.3802e-13
2.46691e-13
2.51082e-13
9.45082e-14
1.30468e-13
1.31368e-13
4.89058e-16
5.85115e-14
-6.69668e-14
-1.33628e-13
7.20236e-13
1.97068e-12
1.415e-12
6.62153e-13
3.22704e-13
1.594e-13
2.34118e-13
2.62665e-13
1.03063e-13
1.29477e-13
1.32956e-13
-1.58435e-15
4.09665e-14
-5.93108e-14
-1.02534e-13
7.12443e-13
1.91581e-12
1.42115e-12
6.84269e-13
3.29851e-13
1.70692e-13
2.3688e-13
2.57264e-13
1.13053e-13
1.34424e-13
1.2136e-13
6.04575e-15
3.02324e-14
-6.14464e-14
-5.83061e-14
)
;
    }
    inlet
    {
        type            calculated;
        value           nonuniform List<scalar> 
15
(
-1299.9
-1300.2
-1299.9
-1299.9
-1300.2
-1299.9
-1299.9
-1300.2
-1299.9
-1299.9
-1300.2
-1299.9
-1299.9
-1300.2
-1299.9
)
;
    }
    inletWalls
    {
        type            calculated;
        value           uniform 0;
    }
    outletInlet
    {
        type            calculated;
        value           nonuniform List<scalar> 
15
(
198.25
527.498
785.438
982.048
1128.58
1250.03
1367.18
1486.66
1606.84
1731.91
1879.11
2055
2137.99
1729.58
633.732
)
;
    }
}


// ************************************************************************* //
