/*--------------------------------*- C++ -*----------------------------------*\
| =========                 |                                                 |
| \\      /  F ield         | OpenFOAM: The Open Source CFD Toolbox           |
|  \\    /   O peration     | Version:  4.1                                   |
|   \\  /    A nd           | Web:      www.OpenFOAM.org                      |
|    \\/     M anipulation  |                                                 |
\*---------------------------------------------------------------------------*/
FoamFile
{
    version     2.0;
    format      ascii;
    class       volScalarField;
    location    "7";
    object      p;
}
// * * * * * * * * * * * * * * * * * * * * * * * * * * * * * * * * * * * * * //

dimensions      [0 2 -2 0 0 0 0];

internalField   nonuniform List<scalar> 
225
(
523.381
469.984
418.153
369.742
324.851
282.834
243.479
206.475
171.381
138.017
107.075
78.9363
49.9074
14.9886
-14.1636
56.947
34.686
28.9274
25.2172
19.7431
14.0357
8.88277
4.49402
1.0101
-1.44865
-2.63994
-2.13829
-0.0418491
1.82968
2.08986
-45.8352
-52.4782
-46.7111
-42.5642
-39.4736
-35.8783
-31.9921
-28.0547
-24.1503
-20.4345
-17.0889
-14.0218
-10.945
-8.29218
-7.05793
0.298938
-2.11909
2.47355
2.79733
2.85067
3.06585
2.97677
2.59951
2.01795
1.2588
0.302093
-0.807189
-1.71744
-1.86965
-1.55918
16.7253
14.3921
15.9455
13.8476
12.4293
11.1862
9.77646
8.39476
7.13747
6.04649
5.1455
4.43295
3.95535
3.92263
4.1675
7.49704
5.47426
6.44918
5.23103
5.02871
5.0129
4.92484
4.95796
5.11338
5.35663
5.6756
6.03821
6.35775
6.61448
6.78925
4.03065
2.87584
3.96202
3.63856
4.02412
4.41694
4.71507
5.06522
5.42136
5.74589
6.03555
6.2896
6.46803
6.5492
6.56494
5.70777
5.14943
6.00208
5.77072
5.96757
6.07975
6.1041
6.14996
6.17505
6.17086
6.1479
6.12073
6.08741
6.04164
5.99315
6.00739
5.681
6.1903
5.91411
5.95848
5.92993
5.85675
5.81084
5.75605
5.69606
5.63706
5.58385
5.53691
5.49068
5.43949
4.68883
4.48163
4.82902
4.65578
4.73168
4.74221
4.72943
4.73705
4.73382
4.7263
4.71578
4.70012
4.67733
4.64191
4.58427
3.32975
3.21494
3.51535
3.46346
3.58281
3.62733
3.6533
3.68613
3.70118
3.70678
3.70387
3.69079
3.66657
3.62831
3.56283
2.35949
2.29941
2.55318
2.55206
2.66655
2.7046
2.73176
2.75825
2.76577
2.76394
2.75304
2.73302
2.7037
2.66495
2.60008
1.57128
1.53491
1.73368
1.74329
1.83966
1.86564
1.88921
1.90808
1.9099
1.90425
1.89063
1.86916
1.83995
1.80518
1.74701
0.876079
0.862642
1.02096
1.02453
1.10288
1.11924
1.13971
1.15346
1.15371
1.14901
1.13803
1.12059
1.09518
1.06375
1.00938
0.431435
0.392731
0.450432
0.421577
0.461041
0.444361
0.438334
0.423461
0.401462
0.377803
0.350313
0.320829
0.289934
0.259915
0.217
)
;

boundaryField
{
    inletFace
    {
        type            zeroGradient;
    }
    inlet
    {
        type            zeroGradient;
    }
    inletWalls
    {
        type            zeroGradient;
    }
    outletInlet
    {
        type            fixedValue;
        value           uniform 0;
    }
}


// ************************************************************************* //
