/*--------------------------------*- C++ -*----------------------------------*\
| =========                 |                                                 |
| \\      /  F ield         | OpenFOAM: The Open Source CFD Toolbox           |
|  \\    /   O peration     | Version:  4.1                                   |
|   \\  /    A nd           | Web:      www.OpenFOAM.org                      |
|    \\/     M anipulation  |                                                 |
\*---------------------------------------------------------------------------*/
FoamFile
{
    version     2.0;
    format      ascii;
    class       surfaceScalarField;
    location    "7";
    object      phi;
}
// * * * * * * * * * * * * * * * * * * * * * * * * * * * * * * * * * * * * * //

dimensions      [0 3 -1 0 0 0 0];

internalField   nonuniform List<scalar> 
420
(
-949.88
2249.78
-1573.96
1924.28
-2054
1779.95
-2424.23
1670.13
-2699.86
1575.83
-2888.38
1488.42
-2993.06
1404.58
-3013.86
1321
-2949.62
1235.66
-2797.24
1147.52
-2551.17
1054.13
-2193.01
941.735
-1687.17
794.064
-1012.67
625.704
287.226
373.335
1876.44
442.747
1854.86
437.299
1785.39
406.695
1700.73
380.577
1601.94
359.897
1509.1
345.289
1419.19
337.532
1328.76
333.479
1239.71
326.949
1154.05
309.606
1071.48
267.462
983.876
191.425
870.101
111.446
705.681
398.672
33.5737
1842.87
-97.3906
1985.83
-253.615
1941.62
-371.121
1818.24
-473.185
1704
-567.536
1603.45
-651.753
1503.4
-725.803
1402.8
-788.082
1301.99
-837.317
1203.28
-868.238
1102.4
-856.1
971.736
-740.343
754.341
-434.285
399.618
-35.6123
28.7701
1814.1
-100.659
2115.25
-225.566
2066.52
-304.504
1897.18
-368.167
1767.67
-416.968
1652.25
-446.245
1532.68
-457.034
1413.59
-451.873
1296.82
-430.176
1181.58
-387.245
1059.47
-311.891
896.377
-192.877
635.324
-48.4131
255.15
-84.0255
169.633
1644.47
146.162
2138.72
123.735
2088.95
122.864
1898.04
126.934
1763.6
135.795
1643.38
149.096
1519.38
166.583
1396.1
186.938
1276.47
208.127
1160.39
229.135
1038.46
243.823
881.681
232.999
646.14
155.217
332.926
71.1917
223.086
1421.38
244.186
2117.62
234.742
2098.39
236.018
1896.77
240.369
1759.25
244.31
1639.44
246.555
1517.13
245.264
1397.39
241.175
1280.56
234.005
1167.56
221.397
1051.07
199.157
903.928
156.156
689.147
78.3094
410.779
149.501
203.29
1218.09
238.341
2082.57
213.591
2123.14
191.401
1918.96
177.202
1773.44
163.783
1652.86
150.046
1530.87
135.91
1411.54
121.08
1295.38
106.928
1181.72
92.8229
1065.17
75.7703
920.986
52.0238
712.898
19.0259
443.781
168.527
171.838
1046.24
221.98
2032.43
199.435
2145.68
170.428
1947.97
152.076
1791.79
137.683
1667.26
122.783
1545.77
108.573
1425.74
95.5706
1308.39
83.0809
1194.21
71.4554
1076.8
58.6008
933.838
40.2921
731.202
15.7288
468.34
184.255
146.174
900.068
210.166
1968.43
196.986
2158.87
170.127
1974.81
152.458
1809.47
139.555
1680.14
127.092
1558.24
113.87
1438.95
101.34
1320.93
89.4325
1206.1
77.032
1089.21
63.1067
947.714
44.304
749.966
19.1451
493.464
203.401
116.861
783.221
184.965
1900.32
179.718
2164.12
154.356
2000.17
137.25
1826.57
124.023
1693.36
111.401
1570.85
98.9994
1451.35
86.1488
1333.77
73.9198
1218.33
62.1439
1100.97
49.0961
960.798
32.9346
766.16
13.2438
513.184
216.645
83.144
700.092
143.108
1840.37
144.657
2162.58
122.749
2022.09
106.166
1843.16
94.5226
1705.02
82.666
1582.71
71.2838
1462.75
60.5103
1344.55
49.5949
1229.26
39.563
1111.02
29.8578
970.505
18.1705
777.855
5.29284
526.068
221.938
51.1575
648.939
97.8523
1793.69
102.681
2157.75
87.4179
2037.37
73.2318
1857.35
63.2645
1715.01
54.3708
1591.61
44.9946
1472.14
36.2713
1353.27
28.2895
1237.25
20.5049
1118.79
13.774
977.265
6.82509
784.815
-0.329942
533.234
221.608
25.1163
623.81
57.7739
1761.04
63.6099
2151.91
53.5961
2047.39
44.0069
1866.94
36.2735
1722.75
29.6056
1598.28
23.5295
1478.22
17.0428
1359.75
11.2792
1243.02
6.51881
1123.51
2.43304
981.416
-1.08554
788.384
-3.67913
535.872
217.928
1.61116
622.198
24.3718
1738.27
33.6931
2142.59
27.9841
2053.09
20.5609
1874.36
15.1864
1728.11
9.6108
1603.85
4.61908
1483.2
0.0676629
1364.31
-4.82658
1247.9
-8.3064
1127.02
-9.68642
982.719
-9.80451
788.437
-7.24509
533.254
210.683
-11.5115
-2.83257
1.75814
-0.166742
-4.9183
-8.73168
-11.7219
-15.2012
-18.0821
-20.2326
-21.808
-21.156
-18.1825
-12.4454
)
;

boundaryField
{
    inletFace
    {
        type            calculated;
        value           nonuniform List<scalar> 
450
(
-6.64535e-15
5.95717e-13
-2.94512e-14
-6.60122e-14
9.46987e-14
-1.96034e-13
-6.70922e-14
6.75092e-14
-1.06194e-13
-3.50376e-14
3.96562e-14
-6.04373e-14
1.64579e-15
1.82287e-14
-9.75211e-16
-2.128e-12
-2.30921e-12
7.33601e-14
-2.03053e-13
-2.46819e-13
2.90652e-14
-2.87904e-13
-1.41101e-13
5.72449e-15
-1.37516e-13
-6.81249e-14
6.61989e-15
-8.66981e-14
-1.34221e-14
2.15653e-15
-2.28177e-12
-2.25811e-12
-3.76934e-14
-3.99226e-13
-2.51647e-13
-1.08597e-13
-2.86212e-13
-1.08078e-13
-9.47853e-14
-1.14198e-13
-4.99684e-14
-6.55504e-14
-5.61601e-14
-7.68364e-15
3.67748e-15
-2.56806e-12
-2.11353e-12
-1.64388e-13
-6.38711e-13
-2.00525e-13
-2.42203e-13
-4.00916e-13
-8.51609e-14
-1.69369e-13
-2.04502e-13
-4.36253e-14
-9.69622e-14
-1.02892e-13
1.38038e-14
6.25033e-14
-2.3888e-12
-2.34936e-12
-3.04004e-13
-6.17412e-13
-1.76554e-13
-2.06389e-13
-3.59236e-13
-1.67601e-13
-2.02073e-13
-1.98489e-13
-4.99029e-14
-5.10755e-14
-8.80407e-14
1.16274e-14
8.78353e-14
-2.11129e-12
-2.35546e-12
-5.59166e-13
-5.11955e-13
-1.73315e-13
-1.31052e-13
-3.20803e-13
-1.73061e-13
-1.29178e-13
-1.33604e-13
-2.72206e-14
-3.73107e-14
-5.47174e-14
5.60815e-14
6.02794e-14
-1.89156e-12
-2.42615e-12
-8.35573e-13
-4.96394e-13
-2.29117e-13
-1.91033e-13
-3.15135e-13
-1.73622e-13
-1.234e-13
-1.4146e-13
-6.0899e-14
-9.07504e-14
3.15906e-15
-2.94816e-14
-1.2893e-13
-1.66007e-12
-2.44347e-12
-1.04583e-12
-5.36116e-13
-2.65651e-13
-2.31742e-13
-3.33484e-13
-2.1057e-13
-1.86983e-13
-1.63559e-13
-9.98411e-14
-1.18611e-13
-1.31716e-14
-7.69727e-15
-2.20562e-13
-1.40852e-12
-2.41896e-12
-1.21894e-12
-5.64891e-13
-2.87696e-13
-2.10358e-13
-3.59602e-13
-2.13871e-13
-1.68633e-13
-1.40139e-13
-1.02822e-13
-6.99361e-14
-8.63184e-14
-2.027e-14
-8.75759e-14
-1.21056e-12
-2.36179e-12
-1.35105e-12
-6.3542e-13
-3.10371e-13
-1.95374e-13
-2.97626e-13
-2.22044e-13
-1.39742e-13
-1.37317e-13
-9.98013e-14
-5.20166e-14
-7.96765e-14
-5.0456e-14
2.96096e-14
-1.00656e-12
-2.27913e-12
-1.45662e-12
-6.74839e-13
-3.27757e-13
-2.08832e-13
-2.08606e-13
-2.16001e-13
-1.27555e-13
-1.15012e-13
-1.036e-13
-4.8237e-14
-1.43202e-14
-3.96025e-14
9.25973e-14
-8.58736e-13
-2.22777e-12
-1.48905e-12
-6.9396e-13
-3.4979e-13
-1.61534e-13
-2.24332e-13
-2.21033e-13
-8.84854e-14
-1.11689e-13
-1.14997e-13
1.70727e-14
-1.02156e-14
9.89567e-14
9.51107e-14
-7.96099e-13
-2.17443e-12
-1.5211e-12
-7.43551e-13
-3.69259e-13
-1.51339e-13
-2.43482e-13
-2.41683e-13
-7.47115e-14
-1.05942e-13
-1.14821e-13
2.70394e-14
-1.22846e-14
1.1721e-13
1.10792e-13
-7.46123e-13
-2.11049e-12
-1.55239e-12
-7.62267e-13
-3.80958e-13
-1.70827e-13
-2.3184e-13
-2.63547e-13
-7.02175e-14
-1.04264e-13
-1.17873e-13
3.19016e-14
-4.98474e-15
9.70309e-14
1.09829e-13
-7.35775e-13
-2.0337e-12
-1.54348e-12
-7.73745e-13
-3.83891e-13
-1.79101e-13
-2.3235e-13
-2.45719e-13
-8.44089e-14
-1.09587e-13
-1.01847e-13
2.27036e-14
2.76767e-15
9.75145e-14
5.76962e-14
6.64535e-15
-5.95717e-13
2.94512e-14
6.60122e-14
-9.46987e-14
1.96034e-13
6.70922e-14
-6.75092e-14
1.06194e-13
3.50376e-14
-3.96562e-14
6.04373e-14
-1.64579e-15
-1.82287e-14
9.75211e-16
2.128e-12
2.30921e-12
-7.33601e-14
2.03053e-13
2.46819e-13
-2.90652e-14
2.87904e-13
1.41101e-13
-5.72449e-15
1.37516e-13
6.81249e-14
-6.61989e-15
8.66981e-14
1.34221e-14
-2.15653e-15
2.28177e-12
2.25811e-12
3.76934e-14
3.99226e-13
2.51647e-13
1.08597e-13
2.86212e-13
1.08078e-13
9.47853e-14
1.14198e-13
4.99684e-14
6.55504e-14
5.61601e-14
7.68364e-15
-3.67748e-15
2.56806e-12
2.11353e-12
1.64388e-13
6.38711e-13
2.00525e-13
2.42203e-13
4.00916e-13
8.51609e-14
1.69369e-13
2.04502e-13
4.36253e-14
9.69622e-14
1.02892e-13
-1.38038e-14
-6.25033e-14
2.3888e-12
2.34936e-12
3.04004e-13
6.17412e-13
1.76554e-13
2.06389e-13
3.59236e-13
1.67601e-13
2.02073e-13
1.98489e-13
4.99029e-14
5.10755e-14
8.80407e-14
-1.16274e-14
-8.78353e-14
2.11129e-12
2.35546e-12
5.59166e-13
5.11955e-13
1.73315e-13
1.31052e-13
3.20803e-13
1.73061e-13
1.29178e-13
1.33604e-13
2.72206e-14
3.73107e-14
5.47174e-14
-5.60815e-14
-6.02794e-14
1.89156e-12
2.42615e-12
8.35573e-13
4.96394e-13
2.29117e-13
1.91033e-13
3.15135e-13
1.73622e-13
1.234e-13
1.4146e-13
6.0899e-14
9.07504e-14
-3.15906e-15
2.94816e-14
1.2893e-13
1.66007e-12
2.44347e-12
1.04583e-12
5.36116e-13
2.65651e-13
2.31742e-13
3.33484e-13
2.1057e-13
1.86983e-13
1.63559e-13
9.98411e-14
1.18611e-13
1.31716e-14
7.69727e-15
2.20562e-13
1.40852e-12
2.41896e-12
1.21894e-12
5.64891e-13
2.87696e-13
2.10358e-13
3.59602e-13
2.13871e-13
1.68633e-13
1.40139e-13
1.02822e-13
6.99361e-14
8.63184e-14
2.027e-14
8.75759e-14
1.21056e-12
2.36179e-12
1.35105e-12
6.3542e-13
3.10371e-13
1.95374e-13
2.97626e-13
2.22044e-13
1.39742e-13
1.37317e-13
9.98013e-14
5.20166e-14
7.96765e-14
5.0456e-14
-2.96096e-14
1.00656e-12
2.27913e-12
1.45662e-12
6.74839e-13
3.27757e-13
2.08832e-13
2.08606e-13
2.16001e-13
1.27555e-13
1.15012e-13
1.036e-13
4.8237e-14
1.43202e-14
3.96025e-14
-9.25973e-14
8.58736e-13
2.22777e-12
1.48905e-12
6.9396e-13
3.4979e-13
1.61534e-13
2.24332e-13
2.21033e-13
8.84854e-14
1.11689e-13
1.14997e-13
-1.70727e-14
1.02156e-14
-9.89567e-14
-9.51107e-14
7.96099e-13
2.17443e-12
1.5211e-12
7.43551e-13
3.69259e-13
1.51339e-13
2.43482e-13
2.41683e-13
7.47115e-14
1.05942e-13
1.14821e-13
-2.70394e-14
1.22846e-14
-1.1721e-13
-1.10792e-13
7.46123e-13
2.11049e-12
1.55239e-12
7.62267e-13
3.80958e-13
1.70827e-13
2.3184e-13
2.63547e-13
7.02175e-14
1.04264e-13
1.17873e-13
-3.19016e-14
4.98474e-15
-9.70309e-14
-1.09829e-13
7.35775e-13
2.0337e-12
1.54348e-12
7.73745e-13
3.83891e-13
1.79101e-13
2.3235e-13
2.45719e-13
8.44089e-14
1.09587e-13
1.01847e-13
-2.27036e-14
-2.76767e-15
-9.75145e-14
-5.76962e-14
)
;
    }
    inlet
    {
        type            calculated;
        value           nonuniform List<scalar> 
15
(
-1299.9
-1300.2
-1299.9
-1299.9
-1300.2
-1299.9
-1299.9
-1300.2
-1299.9
-1299.9
-1300.2
-1299.9
-1299.9
-1300.2
-1299.9
)
;
    }
    inletWalls
    {
        type            calculated;
        value           uniform 0;
    }
    outletInlet
    {
        type            calculated;
        value           nonuniform List<scalar> 
15
(
198.238
527.496
785.441
982.053
1128.59
1250.04
1367.19
1486.66
1606.84
1731.91
1879.11
2055
2138
1729.58
633.698
)
;
    }
}


// ************************************************************************* //
