/*--------------------------------*- C++ -*----------------------------------*\
| =========                 |                                                 |
| \\      /  F ield         | OpenFOAM: The Open Source CFD Toolbox           |
|  \\    /   O peration     | Version:  4.1                                   |
|   \\  /    A nd           | Web:      www.OpenFOAM.org                      |
|    \\/     M anipulation  |                                                 |
\*---------------------------------------------------------------------------*/
FoamFile
{
    version     2.0;
    format      ascii;
    class       volVectorField;
    location    "7";
    object      U;
}
// * * * * * * * * * * * * * * * * * * * * * * * * * * * * * * * * * * * * * //

dimensions      [0 1 -1 0 0 0 0];

internalField   nonuniform List<vector> 
225
(
(1.10772e-14 0.852193 15.7946)
(9.15945e-15 -4.89458 12.1215)
(-3.606e-15 -4.19551 12.1321)
(2.17677e-15 -3.60118 11.9966)
(9.47945e-16 -3.00468 11.8778)
(-1.75772e-16 -2.55319 11.6992)
(1.96073e-15 -2.20881 11.4769)
(2.77163e-16 -1.96603 11.2116)
(-2.04482e-17 -1.79855 10.916)
(1.02573e-15 -1.71238 10.5882)
(1.41497e-16 -1.83745 10.1561)
(-3.933e-17 -2.28567 9.53762)
(5.21731e-16 -2.51301 8.96378)
(-1.26194e-16 -1.06551 8.91356)
(6.75121e-18 1.76574 7.4709)
(1.54213e-14 -5.35014 22.493)
(1.59881e-14 -14.6049 21.394)
(-5.07857e-16 -13.2708 20.3411)
(1.77936e-15 -11.7697 19.5066)
(1.70887e-15 -11.1561 18.5043)
(-2.01213e-16 -10.6594 17.5174)
(3.21143e-15 -10.0901 16.5714)
(9.76928e-16 -9.52499 15.6236)
(-3.96295e-17 -8.96543 14.6638)
(9.35642e-16 -8.3673 13.6946)
(4.71669e-16 -7.75708 12.7179)
(-4.58281e-17 -7.30334 11.7194)
(5.99495e-16 -7.01705 10.6244)
(9.29295e-17 -5.73094 9.16116)
(-1.49292e-17 -2.30499 4.58316)
(1.7842e-14 -7.71562 23.9801)
(1.91932e-14 -16.7731 24.6729)
(2.60975e-16 -13.7365 23.9372)
(4.28311e-15 -12.3062 22.6249)
(1.7421e-15 -11.6447 21.2414)
(7.51885e-16 -10.814 20.0013)
(3.12138e-15 -9.94024 18.7738)
(-1.16634e-15 -9.1001 17.5247)
(6.56257e-16 -8.28336 16.2654)
(1.57972e-15 -7.47522 15.0263)
(3.45922e-16 -6.6676 13.8176)
(4.53846e-16 -5.84162 12.4301)
(8.72106e-16 -4.81386 10.2752)
(1.72627e-15 -3.1262 6.68435)
(-2.54615e-17 -0.832076 1.68981)
(1.77713e-14 -8.50256 22.0463)
(1.46317e-14 -16.6211 24.3319)
(1.34264e-15 -12.93 23.7971)
(4.42223e-15 -12.1536 21.9985)
(1.317e-15 -11.4201 20.5028)
(1.48218e-15 -10.4936 19.1722)
(2.77581e-15 -9.63385 17.8167)
(5.10569e-16 -8.82356 16.459)
(1.20037e-15 -8.05359 15.1229)
(1.40101e-15 -7.32374 13.8164)
(2.93881e-16 -6.55241 12.4394)
(7.46119e-16 -5.49078 10.5829)
(6.87565e-16 -3.7851 7.50845)
(9.70641e-17 -1.49347 2.76571)
(-6.24281e-16 0.153362 -1.77307)
(1.63257e-14 -8.47612 19.748)
(1.592e-14 -16.3601 24.312)
(1.92625e-15 -13.099 23.6602)
(4.07962e-15 -12.628 21.5365)
(9.11315e-16 -11.8565 20.0248)
(1.209e-15 -10.9574 18.6637)
(2.37005e-15 -10.1698 17.2587)
(9.11707e-16 -9.40273 15.871)
(1.26657e-15 -8.65254 14.5235)
(1.30359e-15 -7.93046 13.2135)
(1.18252e-16 -7.16582 11.8291)
(-5.77621e-16 -6.11606 9.99613)
(5.03149e-16 -4.42386 7.15528)
(-4.38699e-16 -2.30509 3.28755)
(-1.9791e-15 -0.787049 0.317469)
(1.48403e-14 -8.02183 17.5535)
(1.63484e-14 -16.0195 24.5277)
(3.61741e-15 -13.6434 24.0462)
(4.00594e-15 -12.9943 21.7651)
(1.24897e-15 -12.1263 20.2158)
(1.0114e-15 -11.2246 18.847)
(1.72226e-15 -10.4389 17.434)
(1.25737e-15 -9.64884 16.0433)
(1.0219e-15 -8.86032 14.6932)
(9.24925e-16 -8.09322 13.3817)
(2.63922e-16 -7.29727 12.017)
(5.17093e-16 -6.28453 10.2817)
(1.37064e-15 -4.73292 7.7207)
(-3.06294e-17 -2.75601 4.37222)
(5.90972e-16 -0.949252 1.29711)
(1.32294e-14 -7.33732 15.2534)
(1.68172e-14 -15.4909 24.355)
(5.86913e-15 -14.0224 24.4218)
(3.43687e-15 -13.1277 22.0675)
(1.63646e-15 -12.1447 20.4401)
(1.43021e-15 -11.2358 19.0546)
(2.18189e-15 -10.4361 17.6437)
(1.32747e-15 -9.61985 16.2575)
(3.76673e-16 -8.81017 14.9066)
(9.79421e-16 -8.02724 13.5918)
(5.86475e-16 -7.22396 12.2368)
(1.85998e-15 -6.24023 10.5487)
(-2.18723e-17 -4.78743 8.10736)
(-1.70732e-16 -2.914 4.94699)
(2.16533e-15 -1.01073 1.79722)
(1.13071e-14 -6.55627 13.0331)
(1.69173e-14 -14.8471 23.8164)
(7.19779e-15 -14.2638 24.669)
(3.71135e-15 -13.2372 22.3214)
(1.83923e-15 -12.1675 20.5831)
(1.49589e-15 -11.2658 19.1666)
(2.36701e-15 -10.4652 17.7586)
(1.45787e-15 -9.64316 16.3765)
(1.15682e-15 -8.83493 15.0245)
(1.13226e-15 -8.05527 13.7073)
(6.91247e-16 -7.25493 12.3576)
(6.30849e-16 -6.28676 10.6994)
(2.10903e-16 -4.89079 8.33076)
(5.32918e-17 -3.08498 5.26739)
(1.02989e-15 -1.12201 2.04365)
(9.75101e-15 -5.77831 11.1236)
(1.67461e-14 -14.1746 23.0905)
(8.31368e-15 -14.4415 24.8462)
(3.91067e-15 -13.3966 22.6148)
(1.99169e-15 -12.253 20.7553)
(1.29514e-15 -11.3493 19.2955)
(2.48948e-15 -10.5476 17.8904)
(1.4806e-15 -9.72536 16.5109)
(9.63658e-16 -8.91937 15.1561)
(9.70164e-16 -8.14015 13.8351)
(7.11828e-16 -7.33987 12.4863)
(2.03639e-16 -6.38004 10.8511)
(5.97572e-16 -5.02327 8.54641)
(1.40327e-16 -3.26539 5.55778)
(-9.77678e-16 -1.23719 2.24696)
(7.60145e-15 -5.08434 9.59794)
(1.63504e-14 -13.5188 22.2994)
(9.311e-15 -14.5351 24.9522)
(3.85074e-15 -13.5532 22.9354)
(2.14866e-15 -12.3446 20.9699)
(1.29871e-15 -11.4248 19.4566)
(2.46637e-15 -10.6172 18.0506)
(1.53719e-15 -9.79431 16.672)
(8.99343e-16 -8.98814 15.3135)
(8.01955e-16 -8.20609 13.9872)
(6.90912e-16 -7.40461 12.6355)
(2.66492e-16 -6.45138 11.0131)
(3.19694e-16 -5.12513 8.75484)
(3.49301e-16 -3.40636 5.81917)
(-5.05194e-16 -1.31887 2.43047)
(7.07229e-15 -4.53758 8.46026)
(1.5829e-14 -12.9248 21.5493)
(9.93386e-15 -14.5348 24.9757)
(4.67169e-15 -13.6652 23.2212)
(1.81614e-15 -12.4126 21.1813)
(1.22829e-15 -11.4734 19.612)
(1.44411e-15 -10.659 18.2003)
(1.55874e-15 -9.83703 16.8208)
(1.29554e-15 -9.03214 15.4584)
(7.96193e-16 -8.24866 14.1268)
(8.00208e-16 -7.44662 12.7691)
(-4.37949e-17 -6.49789 11.1498)
(9.9134e-17 -5.19269 8.91846)
(-3.9183e-16 -3.50188 6.0106)
(-1.84728e-15 -1.3637 2.54255)
(5.94493e-15 -4.16954 7.70142)
(1.52153e-14 -12.4371 20.927)
(1.04625e-14 -14.4732 24.9365)
(4.8042e-15 -13.7315 23.438)
(2.70101e-15 -12.4593 21.3594)
(1.03596e-15 -11.5042 19.7404)
(1.55303e-15 -10.6836 18.3206)
(1.62609e-15 -9.86395 16.9391)
(5.43168e-16 -9.06152 15.5729)
(7.73213e-16 -8.27796 14.2365)
(7.96109e-16 -7.47527 12.8711)
(-2.1346e-16 -6.52721 11.2467)
(1.29203e-16 -5.23345 9.02685)
(-7.68067e-16 -3.55845 6.1267)
(-1.32203e-15 -1.37777 2.57361)
(5.41268e-15 -3.97311 7.27934)
(1.50264e-14 -12.0679 20.4606)
(1.05526e-14 -14.3844 24.8625)
(5.11297e-15 -13.7603 23.5829)
(2.55634e-15 -12.4881 21.497)
(1.0477e-15 -11.5235 19.8407)
(1.65589e-15 -10.697 18.4122)
(1.76998e-15 -9.88027 17.0281)
(4.82177e-16 -9.0808 15.6587)
(7.33508e-16 -8.29745 14.3172)
(8.37061e-16 -7.49331 12.9424)
(-2.3514e-16 -6.5423 11.3065)
(8.50544e-17 -5.25134 9.08486)
(-7.28921e-16 -3.57949 6.17625)
(-9.14943e-16 -1.36593 2.54034)
(5.18707e-15 -3.90345 7.1095)
(1.4598e-14 -11.8307 20.1802)
(1.07241e-14 -14.3003 24.7897)
(5.26511e-15 -13.7676 23.6688)
(2.62462e-15 -12.5026 21.5901)
(1.18258e-15 -11.5324 19.9098)
(1.62003e-15 -10.7006 18.4749)
(1.80838e-15 -9.88565 17.0887)
(4.86093e-16 -9.0881 15.7176)
(7.41004e-16 -8.30427 14.3733)
(7.95037e-16 -7.49803 12.991)
(-2.20845e-16 -6.54338 11.3439)
(6.35312e-17 -5.25374 9.11788)
(-7.12635e-16 -3.58415 6.20243)
(-7.60308e-16 -1.35055 2.50733)
(5.07905e-15 -4.03675 7.28179)
(1.40721e-14 -11.6253 19.9484)
(1.06923e-14 -14.1919 24.6674)
(5.35655e-15 -13.7475 23.7096)
(2.65111e-15 -12.5074 21.6748)
(1.24707e-15 -11.5397 19.9781)
(1.60853e-15 -10.6998 18.5356)
(1.69299e-15 -9.88724 17.1443)
(5.9315e-16 -9.09077 15.7699)
(7.58659e-16 -8.30519 14.4187)
(6.9988e-16 -7.49011 13.0151)
(-1.51307e-16 -6.51548 11.3285)
(-1.91603e-17 -5.20617 9.06161)
(-6.85259e-16 -3.50179 6.0831)
(-3.80344e-16 -1.2524 2.30706)
)
;

boundaryField
{
    inletFace
    {
        type            zeroGradient;
    }
    inlet
    {
        type            fixedValue;
        value           uniform (0 8.7 15);
    }
    inletWalls
    {
        type            noSlip;
    }
    outletInlet
    {
        type            zeroGradient;
    }
}


// ************************************************************************* //
