/*--------------------------------*- C++ -*----------------------------------*\
| =========                 |                                                 |
| \\      /  F ield         | OpenFOAM: The Open Source CFD Toolbox           |
|  \\    /   O peration     | Version:  4.1                                   |
|   \\  /    A nd           | Web:      www.OpenFOAM.org                      |
|    \\/     M anipulation  |                                                 |
\*---------------------------------------------------------------------------*/
FoamFile
{
    version     2.0;
    format      ascii;
    class       volScalarField;
    location    "13";
    object      p;
}
// * * * * * * * * * * * * * * * * * * * * * * * * * * * * * * * * * * * * * //

dimensions      [0 2 -2 0 0 0 0];

internalField   nonuniform List<scalar> 
6785
(
607.425
529.297
482.537
429.474
383.049
338.387
296.814
257.487
220.286
184.996
150.924
117.68
88.7273
58.8507
18.2326
-0.72586
-17.8799
-7.78808
-14.5097
-13.6512
-15.8443
-16.3366
-16.7586
-16.2967
-14.9685
-12.508
-9.34897
-5.02749
1.22492
4.97993
29.0979
25.859
35.4262
31.522
35.9658
35.5243
37.0589
37.4332
38.0513
38.4908
39.1254
39.7498
40.0865
40.3781
41.7171
57.1315
53.8746
56.5749
51.3223
52.5372
49.3156
48.656
46.7468
45.5782
44.2961
43.3108
42.4573
41.706
40.4547
38.7789
18.9888
14.5797
15.3245
10.9462
11.5007
8.15799
7.51421
5.21894
3.8348
2.10163
0.907509
0.149973
-0.673995
-1.85108
-1.84534
-3.32771
-6.13325
-4.35112
-7.16936
-5.5264
-7.72106
-7.12888
-8.258
-8.39206
-8.75994
-8.45148
-7.671
-6.5128
-5.62341
-3.73691
12.5548
12.5674
15.296
14.3309
17.088
16.7574
18.6057
19.1801
20.3713
21.2839
22.3545
23.3201
24.7219
25.8941
28.5463
35.6358
36.6878
38.8917
38.6448
41.0363
41.2599
42.988
43.8833
45.1919
46.353
47.622
48.7877
50.1369
51.1292
52.508
50.1415
51.2788
52.8978
52.789
54.5965
54.7815
56.0318
56.68
57.5778
58.3732
59.2381
60.0547
61.049
61.7759
62.8781
63.8045
65.0637
66.2653
66.3034
67.6925
67.767
68.6984
69.0462
69.6765
70.3117
71.0669
71.8718
72.7874
73.4058
74.3393
76.8534
77.7462
78.5428
78.7252
79.7983
80.0751
80.9006
81.157
81.4018
81.1003
80.4308
79.791
79.3926
79.5776
79.529
83.9854
82.7936
82.5813
81.5739
81.5285
80.2782
79.3948
77.6573
75.7924
73.5337
71.4229
69.6909
68.5179
68.4077
66.8874
72.6611
68.743
66.4756
63.6199
61.1927
58.416
56.4299
54.4485
52.9088
51.3327
49.7914
48.2455
47.2801
46.7135
43.9929
40.8066
38.7313
36.6792
33.6616
30.598
27.395
24.6646
21.8578
19.1484
16.5995
14.6289
13.3909
13.0304
12.6455
11.521
53.8858
51.5372
47.9434
42.0272
33.7475
25.7741
19.9373
15.1131
11.7097
10.9235
11.542
12.8503
14.3354
15.0862
14.9526
42.7246
43.0524
43.2464
43.2465
43.333
43.6438
44.2653
44.0825
43.9822
43.9265
44.2074
43.6962
43.6821
43.6589
43.0535
42.8726
43.04
42.9107
41.9959
42.4585
42.2164
41.4983
41.3202
41.8362
41.5751
40.9091
40.7669
41.2152
41.1597
40.4004
40.8683
40.8336
40.3565
40.2509
40.5273
40.6173
40.1502
40.3555
40.4761
40.2006
40.1259
40.2527
40.3535
40.1529
40.0936
40.1736
40.238
40.0467
40.175
40.0572
39.9096
39.8809
39.9633
40.0468
39.9327
39.8952
39.9509
40.2816
40.2213
40.1519
40.6356
40.6052
40.5475
40.4437
40.805
40.8857
41.3811
41.0784
40.1976
41.156
41.6699
37.5461
35.1669
37.864
39.8154
23.2377
30.8077
34.9516
1.37121
9.62998
13.594
12.0868
15.9295
11.6691
9.8967
15.5659
15.8697
17.2066
17.7165
18.9374
21.7919
25.6565
28.0551
20.4259
22.6547
26.7768
30.9734
31.5352
33.5831
34.994
36.8615
45.1979
39.3545
42.8862
43.8147
46.608
50.8838
53.4952
54.7794
56.9574
55.3865
67.4452
61.9031
63.7875
64.3275
64.9913
66.8584
70.0955
71.8667
66.8281
73.1588
74.2445
76.6786
77.2908
76.1989
74.8699
73.5117
75.1543
68.7333
77.1882
76.2812
70.8079
69.6396
67.6297
63.6067
60.5183
57.6014
47.7075
54.8778
58.7538
51.247
47.6811
42.561
35.7224
29.9832
27.3626
23.4457
17.9129
18.1714
18.4385
13.8421
13.8336
12.9308
11.7559
6.58572
4.9925
7.53349
-0.567922
9.04948
7.1771
6.70585
12.4856
6.82138
9.61611
8.37925
10.2719
13.199
8.57662
11.1106
12.994
9.80102
11.0085
10.1113
11.0083
13.0414
9.89681
10.9579
9.9702
10.8751
12.7628
9.10309
10.8267
12.343
9.37959
10.2995
9.29439
10.0683
12.0278
8.72106
9.73824
8.56358
9.52345
11.4601
7.43125
9.29945
10.8183
7.58832
8.58329
7.41125
8.27199
10.1351
6.76447
7.80746
6.58196
7.52981
9.23301
5.50472
7.19667
8.43388
5.59935
6.4502
5.42897
6.12206
7.53179
4.81076
5.61705
4.6364
5.3178
6.46063
3.71751
4.88394
5.59114
3.59847
4.12506
3.38556
3.77614
4.46208
2.71089
3.1272
2.45768
2.76449
3.14686
1.56227
2.06372
2.13404
0.999879
1.12242
0.597589
0.649189
0.950938
0.000696593
0.00115334
0.00190957
0.00243588
0.0030648
0.00363006
0.00423144
0.00481864
0.00542229
0.00602763
0.00664399
0.00726676
0.00789786
0.00853432
0.00917397
0.00981196
0.0104422
0.0110562
0.011644
0.0121941
0.0126944
0.0131338
0.0135035
0.0137986
0.0140196
0.0141732
0.0142726
0.0143371
0.01439
0.0144546
0.0145491
0.0146827
0.0148555
0.0150676
0.0153354
0.0157081
0.0162756
0.0171496
0.0184211
0.0200926
0.0220186
0.0239468
0.0256652
0.0269521
0.0276332
0.0276361
0.0269154
0.0254852
0.0233184
0.0202788
0.0160585
0.0101802
0.00210409
-0.00868785
-0.0227079
-0.0399803
-0.059794
-0.0854793
-0.107686
-0.126562
-0.526434
-0.494317
-0.557028
-0.708855
-0.813405
-0.867992
-0.841854
-0.761125
-0.607655
-0.432344
-0.229727
-0.052866
0.126899
0.21142
0.351204
0.336838
0.36886
0.54043
0.0776108
0.00200507
0.00327716
0.00539142
0.00690232
0.0086534
0.0102379
0.0118991
0.0135189
0.0151702
0.01682
0.0184902
0.0201707
0.0218652
0.0235662
0.0252666
0.0269526
0.0286064
0.0302037
0.0317155
0.033109
0.0343501
0.0354076
0.0362572
0.0368866
0.0372988
0.0375148
0.0375746
0.037535
0.0374641
0.0374295
0.0374837
0.0376521
0.0379342
0.038329
0.0388821
0.039735
0.0411452
0.043433
0.0468602
0.0514371
0.0567509
0.0620955
0.0669086
0.0706095
0.0727683
0.0732632
0.0720623
0.0693317
0.0651537
0.059339
0.051239
0.0397126
0.0233502
0.00056634
-0.0306357
-0.0714145
-0.121862
-0.192999
-0.248978
-0.357134
-0.921327
-0.912955
-1.0587
-1.36113
-1.56879
-1.67925
-1.63114
-1.4723
-1.18084
-0.841295
-0.477764
-0.128425
0.17202
0.402157
0.608642
0.7115
0.818682
0.95991
0.955082
0.00312414
0.00529405
0.00890026
0.0114651
0.0144465
0.0171404
0.0199682
0.0227253
0.0255387
0.0283508
0.0311998
0.0340681
0.0369628
0.0398709
0.0427811
0.0456705
0.048509
0.0512562
0.0538634
0.0562753
0.0584346
0.0602883
0.0617953
0.062934
0.0637089
0.0641546
0.0643375
0.0643529
0.0643149
0.0643372
0.0645085
0.0648712
0.0654235
0.0661621
0.0671619
0.0686602
0.0710917
0.075
0.0808318
0.0886068
0.0976226
0.10668
0.114818
0.121037
0.124593
0.125249
0.12292
0.117842
0.110102
0.0993076
0.0842738
0.0629802
0.0329847
-0.00838784
-0.0643442
-0.136423
-0.224902
-0.345677
-0.431368
-0.657578
-1.1199
-1.12288
-1.30989
-1.69235
-1.94862
-2.08178
-2.0167
-1.81593
-1.45207
-1.0309
-0.586392
-0.154734
0.204727
0.496928
0.742625
0.877733
1.05136
1.12151
1.33632
0.00419346
0.00724559
0.0122741
0.0158765
0.0200425
0.0238128
0.0277619
0.0316127
0.035538
0.0394606
0.0434322
0.0474296
0.0514621
0.0555123
0.0595644
0.0635863
0.0675363
0.0713582
0.0749837
0.0783356
0.0813336
0.0839037
0.0859882
0.087557
0.0886161
0.0892141
0.0894439
0.0894392
0.0893601
0.0893668
0.0895834
0.0900686
0.0908175
0.0918214
0.093181
0.0952266
0.0985691
0.103978
0.11209
0.122942
0.135542
0.148199
0.15958
0.168281
0.173277
0.174242
0.171076
0.164133
0.15356
0.138838
0.118318
0.0891673
0.0479577
-0.00909897
-0.0865142
-0.186434
-0.310409
-0.477298
-0.590337
-0.970284
-1.36095
-1.40688
-1.63223
-2.11723
-2.43883
-2.60071
-2.51412
-2.26046
-1.80344
-1.27782
-0.725332
-0.188362
0.254745
0.61771
0.922275
1.08148
1.32092
1.36354
1.61527
0.00515929
0.00912879
0.0155863
0.0202483
0.025617
0.0304843
0.035574
0.0405388
0.0455963
0.0506503
0.055766
0.060915
0.0661087
0.0713256
0.0765453
0.0817271
0.0868175
0.0917442
0.0964197
0.100744
0.104615
0.107935
0.11063
0.112661
0.114034
0.114813
0.115116
0.115116
0.11502
0.115036
0.115324
0.115959
0.116932
0.118224
0.119957
0.122554
0.126806
0.133721
0.144145
0.158139
0.174408
0.190751
0.205453
0.216683
0.223125
0.224352
0.22024
0.21126
0.197615
0.178644
0.152194
0.114565
0.0613047
-0.0124961
-0.11254
-0.241377
-0.402102
-0.612763
-0.756598
-1.3115
-1.58846
-1.7193
-1.98362
-2.58505
-2.98183
-3.17489
-3.06367
-2.75113
-2.19094
-1.55031
-0.88081
-0.227024
0.304878
0.75128
1.11448
1.31213
1.61649
1.62837
2.06534
0.0060612
0.0109619
0.0188133
0.0245386
0.0310968
0.037057
0.0432767
0.0493467
0.0555247
0.0616984
0.067945
0.0742316
0.0805719
0.0869403
0.0933119
0.0996377
0.105852
0.111868
0.117578
0.122859
0.127585
0.131639
0.134927
0.137402
0.13907
0.140009
0.140363
0.140345
0.140209
0.140213
0.140554
0.141324
0.142502
0.144057
0.146128
0.149225
0.154326
0.16269
0.175389
0.192526
0.212484
0.232532
0.25058
0.264358
0.27227
0.273791
0.268791
0.257882
0.241356
0.21844
0.186482
0.140914
0.0762782
-0.0134224
-0.134979
-0.291328
-0.48747
-0.737302
-0.91913
-1.66049
-1.76988
-2.02423
-2.32448
-3.04431
-3.51589
-3.73559
-3.59603
-3.22392
-2.56079
-1.80855
-1.02627
-0.25978
0.355393
0.883102
1.2995
1.53486
1.9003
1.88258
2.39253
0.00689306
0.0127514
0.0219735
0.0287737
0.0365195
0.0435788
0.05093
0.0581088
0.0654091
0.0727047
0.0800838
0.08751
0.0949988
0.102521
0.110047
0.117521
0.124864
0.131974
0.138724
0.144969
0.150558
0.155352
0.159239
0.16216
0.164126
0.165224
0.165627
0.165586
0.165407
0.165396
0.165791
0.166697
0.168084
0.169897
0.172284
0.175846
0.181748
0.191519
0.206487
0.226808
0.250524
0.274348
0.295813
0.312183
0.321589
0.3234
0.31749
0.304633
0.28523
0.25841
0.22101
0.167571
0.0916528
-0.0137675
-0.156406
-0.339526
-0.570001
-0.854954
-1.0846
-1.99472
-1.89371
-2.32787
-2.67217
-3.51794
-4.0678
-4.31052
-4.13768
-3.7027
-2.93211
-2.06652
-1.16974
-0.289517
0.408712
1.0181
1.48606
1.75836
2.18048
2.13451
2.74163
0.00766818
0.014506
0.0250663
0.0329485
0.0418729
0.0500322
0.0585099
0.066795
0.0752127
0.0836258
0.0921321
0.100692
0.109324
0.117994
0.12667
0.135287
0.143755
0.151956
0.159744
0.16695
0.173399
0.178929
0.18341
0.186773
0.189027
0.190273
0.19071
0.190632
0.190394
0.190355
0.190795
0.191833
0.193421
0.195476
0.198148
0.20212
0.208756
0.219875
0.237091
0.260636
0.288182
0.315851
0.340803
0.359811
0.370738
0.372846
0.36603
0.351251
0.329051
0.298487
0.255876
0.194865
0.10809
-0.0123977
-0.175069
-0.383543
-0.646414
-0.963128
-1.24674
-2.25782
-1.93929
-2.62184
-3.03247
-4.01605
-4.64928
-4.91078
-4.69855
-4.19599
-3.31136
-2.32875
-1.31414
-0.317243
0.464599
1.15841
1.6759
1.98775
2.46189
2.38746
3.08883
0.00838987
0.016232
0.0280993
0.037072
0.047167
0.0564289
0.0660299
0.0754208
0.0849534
0.094482
0.104113
0.113805
0.123577
0.133393
0.143217
0.152976
0.162569
0.171863
0.18069
0.18886
0.196173
0.202441
0.207516
0.211318
0.213855
0.215241
0.215702
0.215573
0.215262
0.215185
0.215664
0.216832
0.21862
0.220905
0.22383
0.228155
0.235452
0.247853
0.2673
0.294126
0.325596
0.357201
0.385732
0.407435
0.419915
0.42232
0.414578
0.397866
0.372899
0.338678
0.290994
0.222607
0.125312
-0.00964484
-0.191326
-0.423793
-0.717147
-1.06378
-1.40034
-2.4114
-1.94927
-2.92119
-3.40529
-4.53984
-5.26138
-5.53498
-5.27565
-4.70027
-3.6947
-2.59203
-1.45703
-0.341522
0.523384
1.3038
1.86753
2.22191
2.74214
2.65202
3.37857
0.00906481
0.017935
0.0310759
0.0411461
0.0524019
0.0627672
0.0734868
0.0839815
0.0946246
0.105265
0.116016
0.126836
0.137743
0.148703
0.159672
0.17057
0.181288
0.191673
0.201541
0.210676
0.218854
0.225861
0.231529
0.235766
0.238578
0.240092
0.240563
0.240365
0.239965
0.239836
0.240346
0.241642
0.243627
0.246128
0.249267
0.25388
0.261749
0.275354
0.297012
0.327186
0.362687
0.398335
0.430547
0.455009
0.469078
0.471775
0.463082
0.444413
0.416685
0.378873
0.326233
0.250669
0.143251
-0.00544977
-0.204959
-0.459952
-0.781881
-1.15785
-1.54471
-2.4983
-1.98597
-3.22734
-3.79638
-5.09461
-5.91111
-6.18776
-5.87153
-5.21709
-4.08253
-2.85639
-1.598
-0.361875
0.58548
1.45476
2.06114
2.46109
3.02102
2.91225
3.70437
0.00969721
0.0196196
0.034001
0.0451758
0.0575817
0.0690516
0.0808845
0.0924811
0.104231
0.11598
0.127847
0.13979
0.15183
0.163929
0.176041
0.188078
0.199919
0.211398
0.222309
0.232413
0.241458
0.249205
0.255466
0.260134
0.263215
0.264846
0.26531
0.265026
0.264518
0.264322
0.264855
0.266277
0.268458
0.271162
0.274476
0.279301
0.287644
0.302365
0.326211
0.359813
0.399472
0.439287
0.4753
0.502595
0.518291
0.521267
0.511572
0.490872
0.460317
0.418879
0.361292
0.278657
0.161455
-0.000281533
-0.216479
-0.492666
-0.841604
-1.24761
-1.68499
-2.5661
-2.11183
-3.49926
-4.21439
-5.6864
-6.60742
-6.87586
-6.49034
-5.74929
-4.47627
-3.12258
-1.7372
-0.378152
0.651358
1.61196
2.25691
2.70635
3.29928
3.1676
4.03679
0.0102915
0.0212898
0.0368786
0.049164
0.0627088
0.0752833
0.0882237
0.10092
0.113771
0.126625
0.139603
0.152665
0.165834
0.179069
0.19232
0.205495
0.21846
0.231034
0.242991
0.254067
0.263982
0.272472
0.279324
0.28442
0.28776
0.289496
0.289935
0.289544
0.288906
0.288627
0.289174
0.290723
0.293101
0.295993
0.299437
0.304393
0.313098
0.328829
0.354839
0.391962
0.435925
0.480046
0.519996
0.550206
0.567568
0.570796
0.560007
0.537127
0.503564
0.458332
0.395674
0.305971
0.179282
0.00521478
-0.226578
-0.522783
-0.897588
-1.33521
-1.82421
-2.63984
-2.36531
-3.74337
-4.67411
-6.32063
-7.35898
-7.60598
-7.13559
-6.29881
-4.87643
-3.3907
-1.8742
-0.389783
0.721102
1.77599
2.45538
2.95838
3.57676
3.44219
4.32136
0.0108513
0.022949
0.0397125
0.0531144
0.067786
0.0814649
0.0955065
0.109299
0.123246
0.137201
0.151285
0.165463
0.179755
0.194122
0.208512
0.222823
0.236912
0.250584
0.26359
0.275642
0.286432
0.295667
0.303111
0.30863
0.312222
0.314048
0.314443
0.313921
0.313131
0.312748
0.313301
0.314977
0.317555
0.320623
0.324152
0.329147
0.338084
0.354706
0.382849
0.423605
0.472035
0.520622
0.56466
0.597877
0.616942
0.620363
0.608311
0.582969
0.546045
0.49666
0.428627
0.331737
0.195809
0.0100993
-0.236294
-0.551576
-0.951624
-1.42278
-1.96466
-2.74936
-2.79069
-3.97784
-5.1917
-7.00296
-8.17514
-8.38579
-7.81149
-6.86784
-5.28357
-3.66077
-2.00867
-0.396645
0.796119
1.9473
2.65566
3.21822
3.85329
3.70281
4.64223
0.0113799
0.0246
0.0425063
0.0570297
0.0728158
0.0875983
0.102734
0.117619
0.132658
0.147708
0.162893
0.178181
0.193593
0.209089
0.224613
0.24006
0.255274
0.270046
0.284105
0.297139
0.308808
0.318791
0.326828
0.332766
0.3366
0.3385
0.338831
0.338152
0.337183
0.336677
0.337226
0.339032
0.341815
0.345049
0.348612
0.353545
0.36257
0.379943
0.410185
0.454702
0.507782
0.561017
0.60931
0.64563
0.666419
0.66991
0.656298
0.628019
0.587153
0.533026
0.459139
0.354865
0.20997
0.0133259
-0.246767
-0.580421
-1.0056
-1.51229
-2.10929
-2.91067
-3.33201
-4.16172
-5.76619
-7.74031
-9.06634
-9.22403
-8.52323
-7.4591
-5.69846
-3.93342
-2.14029
-0.399104
0.87857
2.12523
2.86066
3.48531
4.12953
3.97597
4.94504
0.0118801
0.0262453
0.0452631
0.0609129
0.0778006
0.0936854
0.109908
0.125882
0.142006
0.158146
0.174427
0.19082
0.207347
0.223968
0.240625
0.257206
0.273546
0.289421
0.304539
0.318559
0.331114
0.34185
0.350479
0.356832
0.360898
0.362857
0.3631
0.362236
0.361059
0.360406
0.36094
0.362881
0.365879
0.36927
0.372817
0.377578
0.386527
0.404488
0.436789
0.485214
0.543151
0.601236
0.653968
0.693486
0.715973
0.719291
0.70362
0.671675
0.626017
0.566332
0.485995
0.374173
0.220681
0.013861
-0.259113
-0.610674
-1.06135
-1.60576
-2.26104
-3.11282
-3.80219
-4.29715
-6.41544
-8.53907
-10.0442
-10.1303
-9.27674
-8.07573
-6.12192
-4.20934
-2.2687
-0.39679
0.969057
2.30884
3.07551
3.75863
4.40495
4.24517
5.22848
0.0123543
0.027887
0.047986
0.0647664
0.0827426
0.0997279
0.11703
0.134089
0.15129
0.168516
0.185886
0.20338
0.221016
0.238758
0.256545
0.274259
0.291728
0.308709
0.324891
0.339905
0.353352
0.364844
0.374067
0.380832
0.38512
0.38712
0.387249
0.38617
0.384751
0.383927
0.384436
0.386518
0.389744
0.393287
0.396765
0.401232
0.40992
0.428283
0.462595
0.515099
0.578123
0.641283
0.698647
0.741429
0.765492
0.768195
0.749693
0.713058
0.661498
0.595285
0.507932
0.388566
0.22702
0.010851
-0.274258
-0.643464
-1.12043
-1.70506
-2.42221
-3.3429
-4.16547
-4.46951
-7.15036
-9.40759
-11.1218
-11.1148
-10.0786
-8.72148
-6.55509
-4.48878
-2.39345
-0.389099
1.06795
2.49875
3.30026
4.03902
4.68016
4.51029
5.55681
0.0128047
0.0295271
0.0506778
0.0685927
0.087644
0.105727
0.124101
0.142239
0.160512
0.178818
0.19727
0.215858
0.234599
0.253458
0.272372
0.291219
0.309817
0.327909
0.345161
0.361177
0.375523
0.387778
0.397597
0.404768
0.409268
0.411289
0.411278
0.409949
0.408255
0.40723
0.407704
0.409936
0.413408
0.417102
0.420457
0.424501
0.432719
0.451266
0.487534
0.544313
0.612676
0.681163
0.743341
0.789381
0.814711
0.816068
0.793639
0.751007
0.69226
0.618567
0.523852
0.39722
0.228357
0.00373394
-0.292822
-0.679592
-1.18395
-1.81172
-2.59549
-3.60138
-4.51938
-4.79078
-7.9364
-10.364
-12.3121
-12.1883
-10.9357
-9.40071
-6.99913
-4.7719
-2.51413
-0.375524
1.17582
2.69559
3.53474
4.32574
4.95769
4.79637
5.86037
0.0132331
0.031167
0.053341
0.0723938
0.0925067
0.111686
0.131122
0.150334
0.169672
0.18905
0.208579
0.228255
0.248095
0.268067
0.288105
0.308085
0.327814
0.347021
0.36535
0.382376
0.39763
0.410654
0.42107
0.428645
0.433344
0.435368
0.435187
0.433571
0.431562
0.430306
0.430732
0.433127
0.436869
0.440719
0.443897
0.447376
0.45489
0.47337
0.511527
0.572809
0.646791
0.720865
0.787995
0.837124
0.863116
0.862031
0.834264
0.784148
0.716951
0.63508
0.533024
0.39971
0.224447
-0.00768715
-0.31506
-0.719461
-1.25257
-1.92674
-2.78317
-3.88997
-4.90036
-5.33094
-8.77561
-11.4285
-13.6275
-13.361
-11.8554
-10.1184
-7.45519
-5.05876
-2.63034
-0.35555
1.29322
2.89975
3.77963
4.61789
5.23868
5.07514
6.14843
0.013641
0.0328082
0.0559779
0.0761716
0.0973325
0.117603
0.138093
0.158375
0.178768
0.199213
0.219812
0.240569
0.261502
0.282582
0.303742
0.324853
0.345716
0.366043
0.385458
0.403504
0.419675
0.433475
0.444491
0.452466
0.457353
0.459357
0.458975
0.457033
0.454666
0.453144
0.453509
0.456084
0.460127
0.464143
0.467091
0.469853
0.476401
0.494519
0.534493
0.600539
0.680437
0.760349
0.832438
0.884202
0.909844
0.904841
0.87011
0.811074
0.734474
0.644164
0.535197
0.396056
0.215445
-0.0232326
-0.340856
-0.763079
-1.32642
-2.05051
-2.98654
-4.2082
-5.33109
-6.12379
-9.67412
-12.6232
-15.0811
-14.6431
-12.845
-10.8799
-7.92473
-5.34947
-2.74164
-0.32861
1.42065
3.11173
4.03545
4.9162
5.52443
5.34939
6.48758
0.0140299
0.0344521
0.0585906
0.0799279
0.102123
0.123482
0.145017
0.166361
0.187803
0.209307
0.230967
0.252799
0.274819
0.297003
0.319281
0.341524
0.363522
0.384975
0.405484
0.42456
0.441659
0.456244
0.467863
0.476234
0.481297
0.48326
0.482643
0.48033
0.477558
0.475732
0.476024
0.478797
0.483182
0.487381
0.49005
0.491932
0.497216
0.514635
0.556337
0.627448
0.713565
0.799492
0.876289
0.929802
0.953615
0.942912
0.899639
0.83065
0.744231
0.645715
0.530622
0.386705
0.201881
-0.042384
-0.369762
-0.810094
-1.40522
-2.18282
-3.20574
-4.55403
-5.82667
-7.183
-10.6179
-13.9677
-16.6902
-16.0445
-13.9121
-11.6909
-8.40964
-5.64417
-2.84757
-0.294117
1.5586
3.33209
4.30252
5.22146
5.81635
5.66108
6.80241
0.0144006
0.0360998
0.0611809
0.0836643
0.10688
0.129323
0.151893
0.174292
0.196774
0.219331
0.242044
0.264944
0.288044
0.311326
0.33472
0.358093
0.38123
0.403816
0.425428
0.445545
0.463584
0.478962
0.491189
0.499952
0.505179
0.507078
0.506191
0.50346
0.500229
0.498057
0.498262
0.501257
0.506032
0.510444
0.512786
0.513617
0.517305
0.533628
0.576961
0.653471
0.746071
0.838
0.918825
0.972658
0.992717
0.974478
0.921566
0.84231
0.746251
0.640161
0.519973
0.372448
0.184572
-0.0643642
-0.401077
-0.859861
-1.48829
-2.3229
-3.4398
-4.92437
-6.39179
-8.43886
-11.5372
-15.4583
-18.4763
-17.5767
-15.0643
-12.5573
-8.912
-5.94314
-2.94767
-0.25148
1.70752
3.56136
4.58116
5.53363
6.11385
5.95701
7.09433
0.0147541
0.0377523
0.0637506
0.0873822
0.111605
0.135128
0.158722
0.18217
0.205683
0.229283
0.253042
0.277002
0.301176
0.325551
0.350056
0.37456
0.398837
0.422562
0.445288
0.46646
0.48545
0.501632
0.514471
0.523625
0.529003
0.530813
0.529617
0.526417
0.522671
0.520105
0.520207
0.523455
0.528679
0.533343
0.535316
0.534915
0.536633
0.551404
0.596249
0.678512
0.777729
0.875286
0.95887
1.011
1.02511
0.997958
0.935246
0.846205
0.741133
0.628346
0.504233
0.354311
0.164524
-0.0882349
-0.433927
-0.911516
-1.57467
-2.46954
-3.68691
-5.31585
-7.01818
-9.72137
-12.3959
-17.1056
-20.461
-19.2511
-16.3085
-13.4847
-9.43385
-6.24681
-3.04146
-0.200101
1.86784
3.8001
4.8716
5.85286
6.41836
6.27626
7.42523
0.0150911
0.0394106
0.0663012
0.0910828
0.116298
0.140895
0.165504
0.189993
0.214529
0.239164
0.263959
0.288971
0.314211
0.339674
0.365287
0.39092
0.416342
0.441212
0.465062
0.487303
0.50726
0.524257
0.537714
0.547255
0.552772
0.554469
0.552923
0.549198
0.544873
0.541861
0.541843
0.545379
0.551122
0.556091
0.557664
0.555841
0.555171
0.567852
0.614063
0.702399
0.808084
0.910346
0.994717
1.04257
1.04881
1.01245
0.940878
0.843121
0.729878
0.611377
0.484558
0.333431
0.142818
-0.11299
-0.467339
-0.964022
-1.66311
-2.62115
-3.94451
-5.72471
-7.69154
-10.8986
-13.2874
-18.984
-22.6691
-21.0792
-17.6509
-14.478
-9.97695
-6.55579
-3.12848
-0.139384
2.03996
4.04887
5.17403
6.17926
6.72985
6.59351
7.69641
0.015412
0.0410757
0.068834
0.0947673
0.120961
0.146628
0.172241
0.197763
0.22331
0.248972
0.274795
0.30085
0.327149
0.353692
0.38041
0.407171
0.43374
0.459764
0.484751
0.508074
0.529013
0.546838
0.560919
0.570846
0.57649
0.578046
0.576109
0.571798
0.566825
0.563308
0.563151
0.567016
0.573364
0.578706
0.579856
0.576419
0.57289
0.582851
0.630219
0.724806
0.836331
0.941682
1.02407
1.06494
1.06245
1.01807
0.939421
0.834257
0.713693
0.590458
0.462139
0.310947
0.120517
-0.137615
-0.500276
-1.0162
-1.75215
-2.7757
-4.20932
-6.14638
-8.40054
-11.9899
-14.3322
-21.0901
-25.1356
-23.0729
-19.0959
-15.5414
-10.5426
-6.87091
-3.20827
-0.0687434
2.22426
4.30819
5.48853
6.51276
7.04922
6.90751
8.03273
0.0157172
0.0427483
0.0713502
0.0984367
0.125595
0.152325
0.178931
0.205478
0.232027
0.258706
0.285547
0.312637
0.339986
0.367603
0.395421
0.423309
0.451029
0.478215
0.50435
0.528773
0.550711
0.569378
0.584091
0.594402
0.600159
0.601549
0.599175
0.594213
0.588515
0.584426
0.58411
0.588351
0.595405
0.601207
0.601928
0.596679
0.58976
0.596248
0.644435
0.745143
0.861266
0.96722
1.04416
1.07613
1.0659
1.01591
0.932296
0.820976
0.693816
0.566758
0.4381
0.287909
0.0986199
-0.161114
-0.531646
-1.06675
-1.8401
-2.93086
-4.47736
-6.57552
-9.13489
-13.0157
-15.6242
-23.332
-27.9026
-25.2461
-20.6474
-16.6783
-11.1318
-7.19303
-3.2804
0.0123917
2.42105
4.57857
5.81515
6.85357
7.3774
7.25771
8.35178
0.0160067
0.0444294
0.0738508
0.102092
0.130201
0.157987
0.185576
0.213138
0.240679
0.268365
0.296213
0.324328
0.352719
0.381404
0.410316
0.439331
0.468204
0.49656
0.523858
0.549398
0.572354
0.591878
0.607232
0.617925
0.623784
0.62498
0.622122
0.61644
0.609932
0.605197
0.604696
0.609369
0.617247
0.623617
0.623919
0.616666
0.605751
0.60784
0.65625
0.762527
0.881264
0.984182
1.05232
1.07552
1.0603
1.00761
0.921071
0.804615
0.671371
0.541304
0.413417
0.26525
0.078055
-0.182487
-0.560285
-1.11424
-1.92512
-3.08395
-4.74411
-7.00641
-9.88246
-13.9799
-17.1776
-25.6419
-31.0164
-27.6154
-22.3091
-17.8909
-11.7447
-7.52285
-3.34443
0.104575
2.63062
4.86044
6.15382
7.2016
7.71375
7.59407
8.62095
0.0162808
0.0461198
0.0763368
0.105733
0.134779
0.163615
0.192175
0.220742
0.249265
0.277947
0.306793
0.335923
0.365346
0.39509
0.425093
0.455232
0.485262
0.514796
0.543272
0.569948
0.593942
0.614339
0.630343
0.64142
0.647368
0.648343
0.644951
0.638473
0.631062
0.625596
0.624882
0.630051
0.63889
0.645959
0.645878
0.636433
0.620819
0.617312
0.664985
0.7759
0.894041
0.989339
1.04712
1.06415
1.04757
0.995005
0.907235
0.786345
0.647284
0.514931
0.388904
0.243791
0.0597112
-0.200705
-0.584971
-1.15719
-2.00534
-3.23224
-5.00503
-7.4337
-10.6299
-14.901
-19.0676
-27.9996
-34.5518
-30.1999
-24.0847
-19.1804
-12.381
-7.86061
-3.39989
0.208349
2.85321
5.15415
6.50443
7.55662
8.05932
7.92119
8.95727
0.0165391
0.0478202
0.0788089
0.109362
0.13933
0.169209
0.198727
0.228291
0.257783
0.287451
0.317282
0.347417
0.377863
0.408659
0.439746
0.471008
0.502197
0.53292
0.562588
0.59042
0.615474
0.636764
0.653429
0.664889
0.670916
0.671641
0.667663
0.660309
0.65189
0.6456
0.644639
0.650376
0.660336
0.668263
0.667863
0.656042
0.634865
0.624157
0.669915
0.783965
0.896325
0.980171
1.02921
1.04423
1.02983
0.979761
0.892063
0.767103
0.622244
0.488271
0.365231
0.224289
0.0444797
-0.214704
-0.604472
-1.19422
-2.0791
-3.37335
-5.25633
-7.85309
-11.3636
-15.8216
-21.414
-30.3928
-38.5989
-33.0207
-25.977
-20.5459
-13.0392
-8.20582
-3.44616
0.324267
3.08898
5.45995
6.8668
7.91892
8.41538
8.29344
9.28022
0.0167814
0.0495313
0.0812677
0.112978
0.143853
0.174768
0.205233
0.235783
0.266232
0.296874
0.327681
0.358808
0.390267
0.422106
0.454271
0.486653
0.519005
0.550925
0.581803
0.610813
0.63695
0.659154
0.676491
0.688336
0.69443
0.694879
0.690261
0.681943
0.672404
0.66518
0.663934
0.670322
0.681586
0.69056
0.689934
0.675542
0.647639
0.627769
0.670659
0.784466
0.884478
0.956397
1.00098
1.0183
1.00901
0.963286
0.876571
0.747577
0.59671
0.461785
0.342975
0.20748
0.0332743
-0.223423
-0.617693
-1.2243
-2.14542
-3.50589
-5.49604
-8.26227
-12.0734
-16.7997
-24.2201
-32.7115
-43.2012
-36.0992
-27.9883
-21.9853
-13.7169
-8.55705
-3.4824
0.452929
3.33805
5.77794
7.24065
8.28847
8.77988
8.63712
9.54293
0.0170074
0.051254
0.0837137
0.116583
0.14835
0.180292
0.211692
0.243216
0.274611
0.306216
0.337985
0.370094
0.402554
0.435426
0.468663
0.502163
0.53568
0.568807
0.600911
0.631123
0.658369
0.681508
0.699532
0.711764
0.717915
0.718059
0.712747
0.703372
0.692587
0.684308
0.68273
0.689861
0.70264
0.712879
0.712143
0.694894
0.658598
0.628033
0.666874
0.773618
0.856463
0.920332
0.965498
0.988629
0.986673
0.946677
0.86152
0.728234
0.570945
0.435812
0.322674
0.194118
0.0270072
-0.225924
-0.623927
-1.2472
-2.20452
-3.63027
-5.72495
-8.66196
-12.7573
-17.8756
-27.1497
-34.9383
-48.455
-39.4545
-30.1189
-23.4953
-14.4106
-8.91188
-3.5074
0.595033
3.60048
6.10809
7.6256
8.66516
9.15469
9.00366
9.87832
0.0172166
0.0529889
0.0861474
0.120175
0.152821
0.185782
0.218104
0.250591
0.282919
0.315473
0.348192
0.38127
0.41472
0.448616
0.482917
0.517531
0.552215
0.586559
0.619908
0.651347
0.67973
0.703828
0.722553
0.735175
0.741374
0.741188
0.735124
0.724594
0.712422
0.70295
0.700984
0.708964
0.723497
0.735244
0.734495
0.713755
0.667068
0.625729
0.656355
0.747481
0.813406
0.875638
0.925473
0.957005
0.963997
0.930756
0.84747
0.709366
0.545065
0.41062
0.304854
0.184959
0.0265008
-0.221614
-0.623247
-1.26396
-2.2585
-3.74945
-5.94713
-9.0562
-13.4212
-19.0612
-29.8387
-37.2677
-54.5626
-43.0926
-32.3656
-25.0714
-15.1159
-9.26684
-3.51949
0.751455
3.87629
6.45017
8.02123
9.04924
9.53873
9.35758
10.135
0.0174083
0.0547369
0.0885689
0.123756
0.157265
0.191236
0.224467
0.257905
0.291153
0.324644
0.358299
0.392334
0.426762
0.46167
0.497027
0.53275
0.568604
0.604175
0.638788
0.671481
0.701031
0.726114
0.745556
0.758573
0.764812
0.764269
0.757396
0.745604
0.731894
0.721069
0.71865
0.727597
0.744148
0.757652
0.756801
0.731244
0.673214
0.621403
0.634205
0.705137
0.759285
0.825855
0.882916
0.924732
0.94184
0.916141
0.834843
0.691138
0.51907
0.386426
0.290031
0.180707
0.032315
-0.210589
-0.616999
-1.27751
-2.31188
-3.86918
-6.16948
-9.45153
-14.0757
-20.3622
-32.2941
-39.9784
-61.4245
-47.0148
-34.7195
-26.7081
-15.8276
-9.61759
-3.51645
0.923337
4.16553
6.8038
8.42695
9.44072
9.93201
9.7048
10.4568
0.0175818
0.0564987
0.0909784
0.127326
0.161682
0.196654
0.23078
0.265158
0.299312
0.333726
0.368304
0.403281
0.438674
0.474583
0.510986
0.547814
0.58484
0.621648
0.657545
0.69152
0.722269
0.748366
0.768542
0.781958
0.788231
0.787308
0.779567
0.766402
0.750985
0.738628
0.735675
0.745719
0.764571
0.780007
0.778325
0.746287
0.678761
0.61411
0.595011
0.648315
0.69844
0.773299
0.839317
0.892717
0.920825
0.903334
0.82399
0.673628
0.492859
0.363398
0.278682
0.181899
0.0444613
-0.194107
-0.608333
-1.29311
-2.37176
-3.99745
-6.40046
-9.85543
-14.7333
-21.7801
-34.5581
-43.3209
-68.9221
-51.2329
-37.1667
-28.3982
-16.5395
-9.95891
-3.49549
1.11219
4.46832
7.16842
8.84213
9.83989
10.3348
10.0921
10.7715
0.0177362
0.058275
0.093376
0.130884
0.166071
0.202035
0.237043
0.272347
0.307393
0.342717
0.378202
0.414108
0.450451
0.487349
0.524788
0.562716
0.600913
0.638969
0.67617
0.711459
0.743442
0.770583
0.791513
0.805334
0.811636
0.81031
0.801644
0.786988
0.769676
0.755583
0.751999
0.763274
0.784704
0.801901
0.797496
0.758641
0.683468
0.593388
0.530112
0.583911
0.632904
0.71971
0.795396
0.861601
0.90146
0.892795
0.815238
0.656836
0.466221
0.34164
0.271175
0.188698
0.0619836
-0.175105
-0.602639
-1.31852
-2.44718
-4.14298
-6.64833
-10.2747
-15.4058
-23.3096
-36.6775
-47.4683
-76.9549
-55.755
-39.6902
-30.1325
-17.2444
-10.2847
-3.45331
1.31995
4.78494
7.54332
9.26594
10.2468
10.7444
10.4551
11.023
0.0178706
0.0600665
0.0957616
0.13443
0.170433
0.207378
0.243254
0.279471
0.315395
0.351613
0.387991
0.42481
0.46209
0.499962
0.538427
0.577447
0.616816
0.656129
0.694657
0.731291
0.764547
0.792765
0.814467
0.828701
0.83503
0.833282
0.823634
0.807362
0.787952
0.771886
0.767549
0.780187
0.804359
0.822206
0.812418
0.768807
0.686261
0.547901
0.452461
0.514401
0.563575
0.66599
0.751782
0.831816
0.884211
0.885006
0.808926
0.640685
0.438814
0.321156
0.267653
0.200563
0.0824491
-0.158627
-0.607764
-1.36349
-2.54741
-4.31338
-6.91969
-10.7142
-16.1034
-24.9426
-38.6913
-52.5297
-85.3821
-60.5739
-42.2681
-31.8985
-17.9346
-10.588
-3.38623
1.54906
5.11594
7.92773
9.69745
10.6611
11.1611
10.8061
11.3525
0.0179838
0.061874
0.0981351
0.137964
0.174767
0.212683
0.249412
0.286528
0.323314
0.360411
0.397667
0.435383
0.473583
0.512416
0.551895
0.591999
0.632539
0.673118
0.712996
0.75101
0.785579
0.814909
0.837405
0.85206
0.858414
0.85623
0.845545
0.827527
0.805793
0.787483
0.782235
0.796332
0.822952
0.838929
0.822369
0.776191
0.677121
0.480317
0.373766
0.441738
0.49415
0.612556
0.708925
0.803867
0.86959
0.880509
0.805429
0.625012
0.410146
0.301806
0.267827
0.215787
0.101504
-0.152063
-0.633703
-1.43799
-2.67979