/*--------------------------------*- C++ -*----------------------------------*\
| =========                 |                                                 |
| \\      /  F ield         | OpenFOAM: The Open Source CFD Toolbox           |
|  \\    /   O peration     | Version:  4.1                                   |
|   \\  /    A nd           | Web:      www.OpenFOAM.org                      |
|    \\/     M anipulation  |                                                 |
\*---------------------------------------------------------------------------*/
FoamFile
{
    version     2.0;
    format      ascii;
    class       volScalarField;
    location    "19";
    object      p;
}
// * * * * * * * * * * * * * * * * * * * * * * * * * * * * * * * * * * * * * //

dimensions      [0 2 -2 0 0 0 0];

internalField   nonuniform List<scalar> 
225
(
44442.1
44386.7
44332.1
44267
44203.4
44152.2
44115.6
44085
44052.5
44016.8
43982.3
43951.8
43921
43886.5
43862.9
43817.8
43747.9
43501.4
43462.2
43659.8
43892.5
43972.6
43889.8
43793
43796.6
43878.4
43914.6
43909.9
43957.3
44001.2
44096.2
44144.8
44190.7
44244.6
44126.4
43942.7
43898.1
43999
44092
44063.5
43990.4
43982.7
44097.3
44211.6
44172.9
43703.3
43727.2
43767.8
43867
43922.8
43823.3
43759.3
43770.6
43850.5
43894.5
43797.3
43603.7
43498.7
43504.5
43467.9
43808
43747.8
43702.1
43646.2
43652.4
43768.4
43777
43698.1
43671
43719.5
43807.6
43807.7
43815.8
43702.4
43647.9
43871.1
43862.3
43902.3
44040.9
43967.6
43902.7
44027.6
44164
44084.6
44001.5
43792.2
43580.2
44092.5
44409.8
44320.2
44059.7
44263.1
44174.6
43773
43501.4
43446.6
43453.7
43513.7
43627
43746.5
43995.6
44280.2
44334
44284.9
44200
43429.6
43414.3
43476.3
43579.5
43638.7
43565.4
43435
43323.4
43179.2
42968.7
42879.3
42835.8
42530.8
42020.5
41824.8
43264.1
43066
42757.9
42270.2
41739.4
41413.6
41236.4
40946.5
40472.8
39880.6
39403
39049.1
38802.7
38512.9
38289.3
37914.1
37995.1
37814.5
37218.1
36619.2
36265.2
36029.8
35658.4
35012.5
34259.7
33715.4
33388.1
33254
33305.2
33430.8
33374.4
33297.6
33242.8
33248.3
33207.7
33016.5
32650.5
32205.8
31838.8
31622
31348.7
30554.7
29436.2
29190.9
29555.9
31756.4
31180.9
30582.3
30032.1
29492
28967.7
28363.6
27650.1
26995.4
26586.6
26386.7
26079.9
25314.8
24810.7
25586.5
23076.4
22764.5
22469.4
22111.8
21718.8
21117.2
20263.7
19232
18210.6
17827.2
17719.7
17473
17193.7
17303.7
18772.8
15062.5
14504.1
14047.4
13468.4
12820.5
12114.3
11323.2
10560.5
9847.12
9213.35
8931.5
8938.22
8868.05
8831.69
10820.6
6567.82
5813.7
5247.52
4703.1
4196.06
3705.22
3198.55
1920.5
170.998
-685.406
1018.83
2222.99
1174.03
-1424.07
3057.65
)
;

boundaryField
{
    inletFace
    {
        type            zeroGradient;
    }
    inlet
    {
        type            zeroGradient;
    }
    inletWalls
    {
        type            zeroGradient;
    }
    outletInlet
    {
        type            fixedValue;
        value           uniform 0;
    }
}


// ************************************************************************* //
