/*--------------------------------*- C++ -*----------------------------------*\
| =========                 |                                                 |
| \\      /  F ield         | OpenFOAM: The Open Source CFD Toolbox           |
|  \\    /   O peration     | Version:  4.1                                   |
|   \\  /    A nd           | Web:      www.OpenFOAM.org                      |
|    \\/     M anipulation  |                                                 |
\*---------------------------------------------------------------------------*/
FoamFile
{
    version     2.0;
    format      ascii;
    class       surfaceScalarField;
    location    "19";
    object      phi;
}
// * * * * * * * * * * * * * * * * * * * * * * * * * * * * * * * * * * * * * //

dimensions      [0 3 -1 0 0 0 0];

internalField   nonuniform List<scalar> 
420
(
-1114.09
2413.88
-1650.95
1836.93
-2046.67
1695.51
-2586.8
1839.92
-3144.34
1857.64
-3598.73
1754.19
-3765.67
1466.75
-3506.28
1040.72
-2996.03
789.571
-2630
933.779
-2435.04
1105.18
-2179.63
1044.39
-1851.7
971.856
-1339.7
788.091
-39.8081
1073.69
1339.71
1578.26
1331.92
2389.14
884.301
3083.39
1145.37
2965.33
1975.45
2213.4
2505.81
1341.64
2338.14
1055.34
1326.52
1430.72
413.634
2057.85
306.174
2323.41
839.313
2233.8
1133.59
1445.67
1759.55
699.603
1533.52
659.776
-379.334
1718.56
-476.602
1428.79
-1034.68
1442.1
-1496.35
1606.79
-1055.34
1534.1
-245.664
1695.79
-145.371
2237.44
-532.9
1713.71
-852.652
732.898
-699.762
152.501
235.481
-96.7079
661.675
706.412
528.887
1891.45
665.51
1395.9
1325.29
1223.67
494.604
1453.34
1198.91
988.976
1906.19
26.1342
2569.35
-910.711
2470.71
-1337.04
2121.89
-1211.77
2112
-1221.01
1722.7
-1661.09
1172.76
-2745.62
1236.9
-4283.14
1440.67
-5098.55
1521.99
-4518.65
1311.71
-2804.46
-318.107
-1479.17
-1399.73
1894.34
-2099.57
1898.76
-1845.01
1651.66
-1242.37
1966.69
-637.636
1866
-308.236
1792.49
27.9968
1775.78
178.723
1572.04
-47.4594
1398.96
-39.9761
1229.42
668.126
732.72
741.294
1448.46
-48.7753
2101.39
-154.818
-212.529
-1633.97
1519.46
374.862
4213.17
-794.982
6897.63
-1032.78
9090.62
-226.287
10196.3
760.374
10548
1440.79
10359.2
1964.69
9680.58
2250.69
8825.95
2253.72
7992.26
2063.32
6936.96
1788.12
5804.55
2581.68
4970.28
2936.67
3556.86
1202.11
1922.88
-1500.37
1875.43
-4272.94
1977.74
-7484.73
2179.12
-10311.1
2600.22
-12689.1
3138.41
-14717.5
3469.26
-15759.6
3006.82
-14964.7
1455.93
-12317.1
-393.853
-9317.25
-936.472
-7004.51
-524.525
-4552.13
129.135
-1433.27
-182.318
1429.66
-1661
3352.56
-4138.34
6013.86
-7821.5
5660.94
-10314
4671.68
-11631.7
3917.99
-11872.3
3379.14
-11077.2
2674.33
-8927.71
857.589
-6179.15
-1292.39
-2721.4
-3851.31
990.48
-4648.09
4366.43
-3900.39
6410.07
-1913.96
6488.34
-260.114
3495.84
1332.08
6848.39
-3823.38
9837.36
-5478.02
7315.7
-5658.36
4852.13
-5175.18
3434.91
-3881.03
2085.06
-1364.78
158.195
1041.47
-1548.59
2763.75
-3014.52
4371.14
-5458.68
6038.15
-6315.1
8098.66
-5960.86
8956.05
-2771.57
6571.03
2124.75
1644.48
6258.46
8492.87
-731.404
10568.9
-1819.97
8404.43
-3153.52
6185.82
-4963.91
5245.41
-7013.64
4134.89
-9386.89
2531.51
-12751.3
1815.87
-16747.5
981.68
-18832.8
-3373.27
-16065.9
-9082.03
-10855.5
-11171.2
-3747.98
-9878.88
1694.12
-3316.97
1052.17
6900.86
9545.05
1376.59
9192.62
2060.96
7720.34
2159.26
6087.78
1853.95
5550.96
1042.37
4946.68
-486.253
4060.33
-1985.87
3315.75
-3527.42
2523.61
-4998
-1902.37
-6070
-8009.84
-5793.64
-11447.4
-1851.45
-13821
4767.27
-9935.57
5287.78
6380.48
14832.8
-5953.16
15145.9
-10566.6
12333.9
-14931.1
10452.4
-18260
8879.96
-20221.5
6908.3
-21152.7
4991.56
-21699.7
3862.91
-21140.5
1964.43
-20809.1
-2233.62
-23752.5
-5066.35
-28174.5
-7025.35
-30178.6
-11816.9
-24858.2
-15255.8
-9543.92
-8933.5
5288.91
-3405.85
18551.9
-6617.11
15545.4
-9596.23
13431.6
-11868
11151.9
-13685.2
8725.63
-15955.7
7262.21
-18260.2
6167.49
-19474
3178.31
-21467
-240.55
-22618.7
-3914.62
-24273.1
-5370.88
-34773.9
-1316.01
-33008.9
-17020.8
-18010.6
-23931.7
-12721.7
-3351.53
21903.6
-6396.03
18590
-9196.2
16231.9
-11592.2
13548
-13620.3
10753.8
-14452.7
8094.72
-12466.9
4181.71
-8592.55
-695.861
-4774.93
-4057.99
-2525.66
-6163.78
-3415.44
-4480.96
-12067
7335.73
-14212.4
-14875.3
-10209.5
-27934.5
-22931.2
-4688.8
-8807.24
-12510.4
-16027.6
-19604.3
-22316.4
-24313.7
-27521.3
-31478.7
-25992.5
-19932.5
-6337.97
-6533.44
-5205.64
)
;

boundaryField
{
    inletFace
    {
        type            calculated;
        value           nonuniform List<scalar> 
450
(
-1.25953e-10
-6.82902e-11
-1.01022e-10
-5.63797e-11
-1.14977e-11
-1.01275e-11
1.82869e-11
3.12392e-11
-2.90054e-12
2.33704e-11
6.6735e-11
3.38868e-11
6.97254e-11
6.2694e-11
-1.38048e-10
-1.01855e-10
-3.11818e-10
-9.13174e-11
8.11494e-11
2.59102e-11
2.04902e-11
-9.74541e-12
-4.63609e-11
-3.17334e-11
-1.12703e-10
-2.41373e-10
-2.04463e-10
-5.45163e-10
-4.68989e-10
2.31793e-09
-1.99853e-09
5.16058e-09
3.8907e-10
-3.07332e-10
-1.15135e-11
-8.00591e-11
-1.68767e-10
2.86085e-11
6.37127e-10
9.60477e-10
-3.45729e-10
-1.76199e-10
-7.93396e-10
-1.75471e-09
-1.2785e-09
-6.32378e-09
1.26646e-09
7.77318e-10
-1.81391e-10
-2.75911e-10
-4.46605e-11
5.9095e-11
4.7292e-10
2.07015e-09
4.23161e-09
4.01186e-09
3.44724e-09
4.52052e-09
6.66786e-09
6.84874e-09
-1.771e-08
7.40754e-10
2.78977e-09
1.85537e-09
1.78022e-09
1.59418e-09
1.17792e-09
9.2921e-10
8.76797e-10
6.49798e-10
7.38977e-09
5.89558e-09
-9.16572e-10
-3.16419e-09
2.04503e-08
-1.67918e-08
-1.42859e-08
-1.27845e-08
-9.62524e-09
-6.92939e-09
-5.10384e-09
-3.46643e-09
-1.25686e-09
1.932e-09
6.61268e-09
1.40987e-08
2.58673e-08
2.53507e-08
1.96804e-08
1.694e-08
-1.81412e-08
-1.30304e-08
-1.55839e-08
-1.49509e-08
-1.46611e-08
-1.4604e-08
-1.50979e-08
-1.64783e-08
-1.97179e-08
-2.23911e-08
-2.68063e-08
-3.70754e-08
-6.59134e-08
-1.2742e-07
9.03989e-09
1.49435e-08
1.73309e-08
5.59022e-09
-1.13651e-09
-1.02421e-08
-2.52151e-08
-6.32412e-08
-1.358e-07
-2.06739e-07
-2.19445e-07
-2.05366e-07
-1.84205e-07
-1.76176e-07
-1.85356e-07
-9.16282e-08
-3.73403e-09
-4.27969e-08
-9.61768e-08
-1.3925e-07
-1.76675e-07
-2.13283e-07
-2.42956e-07
-2.84478e-07
-2.9347e-07
-2.8802e-07
-2.72855e-07
-2.55042e-07
-2.46541e-07
-2.36822e-07
-1.63985e-07
-3.43385e-08
-1.13941e-07
-1.96629e-07
-2.52259e-07
-2.76576e-07
-2.83683e-07
-2.83228e-07
-2.81093e-07
-2.81037e-07
-2.79036e-07
-2.57526e-07
-2.11371e-07
-1.77457e-07
-2.12866e-07
-1.86804e-07
-2.17226e-08
-8.60348e-08
-1.43266e-07
-1.88187e-07
-2.28069e-07
-2.53514e-07
-2.62373e-07
-2.56798e-07
-3.03171e-07
-3.67447e-07
-3.53718e-07
-3.05096e-07
-2.22806e-07
-1.28381e-07
-1.52302e-07
-8.34759e-08
-1.98296e-07
-2.66452e-07
-2.94914e-07
-3.07586e-07
-3.18103e-07
-3.24306e-07
-3.28371e-07
-3.43592e-07
-3.51685e-07
-3.42093e-07
-3.20582e-07
-2.56752e-07
-1.26396e-07
-5.10287e-08
-1.09927e-07
-2.48322e-07
-3.16021e-07
-3.3326e-07
-3.39455e-07
-3.46235e-07
-3.51293e-07
-3.52067e-07
-3.49941e-07
-3.50142e-07
-3.62752e-07
-3.77917e-07
-3.67408e-07
-2.835e-07
-8.10156e-08
-1.20476e-07
-2.55076e-07
-3.14816e-07
-3.31951e-07
-3.40536e-07
-3.45793e-07
-3.48043e-07
-3.45427e-07
-3.32179e-07
-3.22176e-07
-3.20067e-07
-3.26134e-07
-4.00953e-07
-3.84745e-07
-2.02672e-07
-1.34751e-07
-2.6484e-07
-3.18681e-07
-3.37398e-07
-3.44175e-07
-3.4238e-07
-3.34308e-07
-3.26413e-07
-3.26446e-07
-3.27201e-07
-3.27615e-07
-3.46221e-07
-3.85909e-07
-3.89785e-07
-2.29006e-07
1.25953e-10
6.82902e-11
1.01022e-10
5.63797e-11
1.14977e-11
1.01275e-11
-1.82869e-11
-3.12392e-11
2.90054e-12
-2.33704e-11
-6.6735e-11
-3.38868e-11
-6.97254e-11
-6.2694e-11
1.38048e-10
1.01855e-10
3.11818e-10
9.13174e-11
-8.11494e-11
-2.59102e-11
-2.04902e-11
9.74541e-12
4.63609e-11
3.17334e-11
1.12703e-10
2.41373e-10
2.04463e-10
5.45163e-10
4.68989e-10
-2.31793e-09
1.99853e-09
-5.16058e-09
-3.8907e-10
3.07332e-10
1.15135e-11
8.00591e-11
1.68767e-10
-2.86085e-11
-6.37127e-10
-9.60477e-10
3.45729e-10
1.76199e-10
7.93396e-10
1.75471e-09
1.2785e-09
6.32378e-09
-1.26646e-09
-7.77318e-10
1.81391e-10
2.75911e-10
4.46605e-11
-5.9095e-11
-4.7292e-10
-2.07015e-09
-4.23161e-09
-4.01186e-09
-3.44724e-09
-4.52052e-09
-6.66786e-09
-6.84874e-09
1.771e-08
-7.40754e-10
-2.78977e-09
-1.85537e-09
-1.78022e-09
-1.59418e-09
-1.17792e-09
-9.2921e-10
-8.76797e-10
-6.49798e-10
-7.38977e-09
-5.89558e-09
9.16572e-10
3.16419e-09
-2.04503e-08
1.67918e-08
1.42859e-08
1.27845e-08
9.62524e-09
6.92939e-09
5.10384e-09
3.46643e-09
1.25686e-09
-1.932e-09
-6.61268e-09
-1.40987e-08
-2.58673e-08
-2.53507e-08
-1.96804e-08
-1.694e-08
1.81412e-08
1.30304e-08
1.55839e-08
1.49509e-08
1.46611e-08
1.4604e-08
1.50979e-08
1.64783e-08
1.97179e-08
2.23911e-08
2.68063e-08
3.70754e-08
6.59134e-08
1.2742e-07
-9.03989e-09
-1.49435e-08
-1.73309e-08
-5.59022e-09
1.13651e-09
1.02421e-08
2.52151e-08
6.32412e-08
1.358e-07
2.06739e-07
2.19445e-07
2.05366e-07
1.84205e-07
1.76176e-07
1.85356e-07
9.16282e-08
3.73403e-09
4.27969e-08
9.61768e-08
1.3925e-07
1.76675e-07
2.13283e-07
2.42956e-07
2.84478e-07
2.9347e-07
2.8802e-07
2.72855e-07
2.55042e-07
2.46541e-07
2.36822e-07
1.63985e-07
3.43385e-08
1.13941e-07
1.96629e-07
2.52259e-07
2.76576e-07
2.83683e-07
2.83228e-07
2.81093e-07
2.81037e-07
2.79036e-07
2.57526e-07
2.11371e-07
1.77457e-07
2.12866e-07
1.86804e-07
2.17226e-08
8.60348e-08
1.43266e-07
1.88187e-07
2.28069e-07
2.53514e-07
2.62373e-07
2.56798e-07
3.03171e-07
3.67447e-07
3.53718e-07
3.05096e-07
2.22806e-07
1.28381e-07
1.52302e-07
8.34759e-08
1.98296e-07
2.66452e-07
2.94914e-07
3.07586e-07
3.18103e-07
3.24306e-07
3.28371e-07
3.43592e-07
3.51685e-07
3.42093e-07
3.20582e-07
2.56752e-07
1.26396e-07
5.10287e-08
1.09927e-07
2.48322e-07
3.16021e-07
3.3326e-07
3.39455e-07
3.46235e-07
3.51293e-07
3.52067e-07
3.49941e-07
3.50142e-07
3.62752e-07
3.77917e-07
3.67408e-07
2.835e-07
8.10156e-08
1.20476e-07
2.55076e-07
3.14816e-07
3.31951e-07
3.40536e-07
3.45793e-07
3.48043e-07
3.45427e-07
3.32179e-07
3.22176e-07
3.20067e-07
3.26134e-07
4.00953e-07
3.84745e-07
2.02672e-07
1.34751e-07
2.6484e-07
3.18681e-07
3.37398e-07
3.44175e-07
3.4238e-07
3.34308e-07
3.26413e-07
3.26446e-07
3.27201e-07
3.27615e-07
3.46221e-07
3.85909e-07
3.89785e-07
2.29006e-07
)
;
    }
    inlet
    {
        type            calculated;
        value           nonuniform List<scalar> 
15
(
-1299.9
-1300.2
-1299.9
-1299.9
-1300.2
-1299.9
-1299.9
-1300.2
-1299.9
-1299.9
-1300.2
-1299.9
-1299.9
-1300.2
-1299.9
)
;
    }
    inletWalls
    {
        type            calculated;
        value           uniform 0;
    }
    outletInlet
    {
        type            calculated;
        value           nonuniform List<scalar> 
15
(
-28136.9
-29262.4
-14679.9
-6258.81
-10541
-11650
-100.682
2511.45
6178.87
10806.7
14330.3
17064.9
19934.9
22708.2
26592.2
)
;
    }
}


// ************************************************************************* //
