/*--------------------------------*- C++ -*----------------------------------*\
| =========                 |                                                 |
| \\      /  F ield         | OpenFOAM: The Open Source CFD Toolbox           |
|  \\    /   O peration     | Version:  4.1                                   |
|   \\  /    A nd           | Web:      www.OpenFOAM.org                      |
|    \\/     M anipulation  |                                                 |
\*---------------------------------------------------------------------------*/
FoamFile
{
    version     2.0;
    format      ascii;
    class       volVectorField;
    location    "19";
    object      U;
}
// * * * * * * * * * * * * * * * * * * * * * * * * * * * * * * * * * * * * * //

dimensions      [0 1 -1 0 0 0 0];

internalField   nonuniform List<vector> 
225
(
(2.06706e-12 0.46007 18.4583)
(1.84855e-12 -8.32606 15.5625)
(4.46978e-13 -7.30538 17.2164)
(6.19273e-13 -5.08863 14.6793)
(2.81839e-13 -3.36271 11.8681)
(-1.09878e-13 -2.07371 11.381)
(4.44113e-14 -1.98853 12.2533)
(-3.7655e-14 -2.25162 12.8167)
(-1.79292e-13 -2.40561 12.159)
(5.95819e-13 -2.07869 10.7981)
(-2.3054e-13 -1.88837 9.49944)
(-4.83898e-13 -2.02494 8.69538)
(-2.07328e-13 -1.56464 8.1161)
(-1.19058e-13 0.419648 7.33407)
(3.86333e-13 1.60566 4.2111)
(3.54004e-12 -6.28511 21.9914)
(2.15891e-12 -12.1919 33.108)
(6.32172e-13 -19.3838 31.5484)
(-4.05036e-13 -25.2821 23.9615)
(-1.79392e-13 -19.9403 18.8655)
(-1.41849e-13 -10.1046 17.2766)
(2.10124e-12 -5.94432 16.5566)
(3.20984e-13 -7.33 15.7524)
(2.19684e-13 -10.682 13.5027)
(1.16074e-12 -12.7301 8.67747)
(1.67117e-12 -8.24036 8.38285)
(1.41546e-12 -4.47511 8.2489)
(4.33553e-12 -3.20279 5.63142)
(3.24709e-12 -6.25462 -0.703138)
(-1.60466e-11 18.3633 -7.22084)
(8.85797e-12 -8.81029 20.1565)
(-3.57257e-11 -15.5256 25.6029)
(-2.69377e-12 -19.8038 23.1188)
(-1.54815e-13 -17.9554 24.1875)
(7.97059e-14 -6.6095 29.1399)
(5.54298e-13 -6.72046 24.4504)
(-2.021e-12 -6.34116 19.2008)
(-1.98052e-13 -11.1606 12.4778)
(-4.41123e-12 -10.2859 11.386)
(-7.8732e-12 -4.9695 13.9682)
(6.23115e-12 -1.9515 12.188)
(1.21993e-12 -14.5219 5.57719)
(4.5137e-12 -7.30465 12.8582)
(9.40308e-12 -8.18187 7.42345)
(8.85185e-12 18.5779 16.0276)
(4.52805e-11 -3.55431 15.7355)
(-1.19621e-11 -19.2843 12.4045)
(-2.71668e-12 -16.8707 15.4568)
(1.2559e-12 -22.638 19.7079)
(-1.92237e-12 -20.0346 24.2554)
(4.8937e-12 -13.7375 23.4083)
(-4.09155e-13 -6.78228 23.4857)
(-5.23361e-12 -8.32165 17.6615)
(-1.41377e-11 -13.1183 10.7838)
(-2.92983e-11 -10.6743 12.3205)
(-2.9524e-11 -1.99499 13.6645)
(-2.25988e-11 2.72647 12.6745)
(-3.12986e-11 5.99935 8.56165)
(-4.79423e-11 5.9815 -4.12911)
(-4.68942e-11 7.3879 -6.87981)
(1.21742e-10 -3.77678 19.8183)
(-6.05819e-12 -5.61405 40.0914)
(-2.15824e-11 -14.519 39.4302)
(-1.30226e-11 -16.7934 45.2448)
(-1.44946e-11 -23.1906 37.8686)
(-1.28944e-11 -17.8001 28.5411)
(-8.2945e-12 -10.1884 24.6428)
(-5.57454e-12 -10.3506 21.7052)
(-7.39525e-12 -12.7321 19.9189)
(-4.64157e-12 -14.0079 21.233)
(-5.14945e-11 -15.4525 23.2212)
(-3.96823e-11 -13.041 18.3879)
(6.18766e-12 -1.78023 13.8318)
(2.06253e-11 -0.358217 -5.82781)
(-1.45179e-10 19.5915 -26.4722)
(1.17077e-10 -8.36993 13.2256)
(9.90469e-11 -4.52261 10.8404)
(8.97018e-11 -9.89772 0.302089)
(6.66344e-11 -12.2786 3.86806)
(4.80406e-11 -17.5216 9.51356)
(3.61566e-11 -22.5391 10.0228)
(2.39977e-11 -23.4965 10.4497)
(8.77336e-12 -20.8632 12.7876)
(-1.31367e-11 -19.8275 14.9789)
(-4.47953e-11 -20.3694 16.3075)
(-9.7462e-11 -21.5121 18.8292)
(-1.78801e-10 -28.6201 19.6322)
(-1.755e-10 -12.7128 20.1149)
(-1.35968e-10 -11.8266 6.28884)
(-1.18434e-10 27.4748 10.6046)
(1.26524e-10 -25.3316 16.9317)
(9.03595e-11 -18.9446 14.5085)
(1.08202e-10 -4.24919 19.6434)
(1.03515e-10 2.93138 23.4699)
(1.00991e-10 2.75161 26.6492)
(1.01261e-10 3.67016 30.75)
(1.04533e-10 4.51106 34.3089)
(1.14172e-10 3.03779 35.9103)
(1.36613e-10 1.32748 34.9131)
(1.55029e-10 -1.75771 32.3009)
(1.86394e-10 -7.31865 28.0879)
(2.56836e-10 -5.07156 28.0048)
(4.56364e-10 0.376632 19.5567)
(8.81871e-10 -32.8085 -2.36566)
(-6.09724e-11 11.2273 47.6197)
(-1.0405e-10 -23.0517 53.1838)
(-1.1999e-10 -21.3615 63.1049)
(-3.87815e-11 -19.1884 63.1936)
(7.86771e-12 -18.2282 63.3052)
(7.0911e-11 -16.6174 64.8507)
(1.74475e-10 -15.1948 65.2954)
(4.36853e-10 -8.74892 50.613)
(9.40208e-10 8.73072 22.6278)
(1.43099e-09 23.3452 -8.46131)
(1.51777e-09 22.4915 -27.5119)
(1.42185e-09 12.256 -25.5424)
(1.27511e-09 2.49392 -6.24074)
(1.21961e-09 -8.8897 16.9864)
(1.28331e-09 -23.7613 23.0274)
(6.33968e-10 -26.888 63.4635)
(2.58502e-11 -37.2897 92.4176)
(2.96278e-10 -35.304 84.6263)
(6.64948e-10 -28.5959 68.5994)
(9.64008e-10 -15.0185 51.6573)
(1.2231e-09 -2.42974 30.0355)
(1.47654e-09 7.48109 6.1893)
(1.68196e-09 20.7403 -24.7681)
(1.96941e-09 40.3689 -47.7455)
(2.03172e-09 50.6305 -79.137)
(1.99393e-09 52.644 -86.4009)
(1.88894e-09 45.5418 -81.6813)
(1.76567e-09 33.7675 -57.9996)
(1.70677e-09 19.1507 -32.5021)
(1.63949e-09 2.65922 4.8265)
(1.13515e-09 -19.5017 73.1798)
(2.36747e-10 -44.7754 111.707)
(7.88801e-10 -48.4055 77.8079)
(1.36117e-09 -30.4814 54.1919)
(1.74574e-09 -9.7751 35.6211)
(1.9147e-09 12.6335 7.14989)
(1.96386e-09 32.0229 -29.3489)
(1.9609e-09 41.9683 -44.3756)
(1.94597e-09 55.0018 -55.4304)
(1.94556e-09 70.5266 -69.2499)
(1.93191e-09 78.563 -86.0528)
(1.78282e-09 76.8626 -91.2326)
(1.46327e-09 45.0008 -48.7535)
(1.22858e-09 -14.2036 36.9979)
(1.47365e-09 -53.9339 87.5909)
(1.29315e-09 -28.6799 84.8663)
(1.50118e-10 -45.2391 116.224)
(5.95735e-10 -69.3201 104.455)
(9.91483e-10 -65.7219 92.2832)
(1.30276e-09 -63.0726 89.6457)
(1.57964e-09 -55.9893 84.2007)
(1.75426e-09 -49.6098 81.1109)
(1.81632e-09 -50.7345 83.6617)
(1.77804e-09 -67.422 84.4511)
(2.09754e-09 -1.79874 4.52797)
(2.54415e-09 68.4309 -120.208)
(2.449e-09 112.667 -173.857)
(2.11178e-09 127.633 -190.102)
(1.54241e-09 86.2153 -123.859)
(8.87496e-10 -55.9449 49.3431)
(1.05394e-09 -50.6309 145.146)
(5.77894e-10 -56.2601 140.688)
(1.37282e-09 -58.8355 121.806)
(1.84476e-09 -38.1139 102.656)
(2.04166e-09 -21.9416 86.7843)
(2.12952e-09 -6.21763 66.7775)
(2.2024e-09 8.21793 43.8526)
(2.24513e-09 19.2952 25.7982)
(2.27331e-09 36.1988 1.99486)
(2.37878e-09 72.8146 -55.646)
(2.43467e-09 97.2893 -103.93)
(2.36827e-09 117.467 -127.536)
(2.21937e-09 146.34 -162.928)
(1.77757e-09 136.599 -142.292)
(8.74883e-10 33.5298 3.37931)
(3.53226e-10 -57.8336 151.285)
(7.60826e-10 -70.9778 192.766)
(1.71908e-09 -73.1715 158.366)
(2.1878e-09 -44.3095 133.803)
(2.30714e-09 -24.8352 106.829)
(2.35001e-09 -7.54903 76.9204)
(2.39695e-09 8.1548 51.073)
(2.43222e-09 20.3532 34.4207)
(2.43736e-09 46.5256 4.73982)
(2.42258e-09 72.7411 -47.3386)
(2.42427e-09 79.8756 -72.7307)
(2.5113e-09 97.7052 -89.7901)
(2.61626e-09 143.538 -153.282)
(2.54382e-09 201.526 -236.818)
(1.96264e-09 185.729 -240.861)
(5.60839e-10 27.6177 -63.1754)
(8.33856e-10 -77.9419 229.956)
(1.76599e-09 -87.0301 193.422)
(2.17934e-09 -58.6012 169.311)
(2.29788e-09 -41.6437 143.946)
(2.35758e-09 -31.7278 121.681)
(2.39381e-09 -25.9838 115.35)
(2.4094e-09 -19.0931 101.79)
(2.39154e-09 5.35266 59.6034)
(2.29957e-09 22.8743 29.9643)
(2.23034e-09 48.0844 -45.6006)
(2.21596e-09 61.6007 -54.2457)
(2.25772e-09 4.23466 132.178)
(2.77568e-09 127.379 -165.538)
(2.66377e-09 248.674 -327.997)
(1.40303e-09 61.3754 -236.941)
(9.32849e-10 -97.1456 283.551)
(1.83345e-09 -111.332 241.259)
(2.20645e-09 -77.799 216.282)
(2.33577e-09 -60.7562 188.491)
(2.38266e-09 -40.2968 161.706)
(2.37055e-09 -14.8861 120.892)
(2.31437e-09 23.6813 56.8822)
(2.25969e-09 81.5201 -2.99689)
(2.26022e-09 129.504 -36.4629)
(2.26517e-09 106.787 -125.28)
(2.26804e-09 91.051 -108.748)
(2.39712e-09 55.6676 -67.591)
(2.6716e-09 123.32 -182.422)
(2.69844e-09 260.48 -324.68)
(1.58557e-09 53.2835 -311.085)
)
;

boundaryField
{
    inletFace
    {
        type            zeroGradient;
    }
    inlet
    {
        type            fixedValue;
        value           uniform (0 8.7 15);
    }
    inletWalls
    {
        type            noSlip;
    }
    outletInlet
    {
        type            zeroGradient;
    }
}


// ************************************************************************* //
