/*--------------------------------*- C++ -*----------------------------------*\
| =========                 |                                                 |
| \\      /  F ield         | OpenFOAM: The Open Source CFD Toolbox           |
|  \\    /   O peration     | Version:  4.1                                   |
|   \\  /    A nd           | Web:      www.OpenFOAM.org                      |
|    \\/     M anipulation  |                                                 |
\*---------------------------------------------------------------------------*/
FoamFile
{
    version     2.0;
    format      ascii;
    class       volScalarField;
    location    "2";
    object      p;
}
// * * * * * * * * * * * * * * * * * * * * * * * * * * * * * * * * * * * * * //

dimensions      [0 2 -2 0 0 0 0];

internalField   nonuniform List<scalar> 
6785
(
704.24
650.182
598.373
549.639
504.423
462.062
422.366
385.048
349.667
315.945
284.474
255.92
227.055
192.159
161.66
233.148
211.661
205.745
201.35
195.704
189.865
184.507
179.934
176.323
173.791
172.548
172.996
175.116
177.241
177.242
128.048
120.894
125.815
129.84
132.902
136.235
139.935
143.85
147.823
151.632
155.139
158.583
162.148
164.751
165.267
165.942
165.351
171.044
173.11
173.967
174.831
175.5
175.843
175.813
175.322
174.349
173.213
172.513
172.488
172.815
187.822
189.842
193.605
193.096
191.66
190.445
189.074
187.506
185.869
184.236
182.615
181.122
180.132
179.936
180.169
184.288
185.875
187.562
186.444
185.187
184.494
183.866
183.241
182.77
182.534
182.5
182.564
182.707
183
183.135
178.014
178.482
179.072
178.472
178.092
178.271
178.513
178.764
179.147
179.707
180.388
181.032
181.447
181.661
181.403
176.934
176.877
177.171
177.063
177.11
177.533
177.911
178.234
178.61
179.058
179.533
179.915
180.013
179.965
179.409
178.078
177.883
178.116
178.296
178.474
178.832
179.048
179.175
179.314
179.469
179.612
179.67
179.478
179.315
178.666
177.723
177.573
177.921
178.399
178.738
179.107
179.277
179.351
179.413
179.455
179.472
179.426
179.143
179.017
178.374
175.928
175.873
176.385
177.171
177.735
178.21
178.453
178.607
178.737
178.822
178.876
178.893
178.649
178.597
177.971
173.762
173.909
174.649
175.695
176.438
177.014
177.362
177.642
177.888
178.066
178.208
178.323
178.148
178.157
177.488
172.946
173.124
173.949
175.032
175.735
176.247
176.569
176.865
177.147
177.379
177.589
177.807
177.688
177.734
177.152
165.109
166.347
168.467
170.822
172.648
174.252
175.725
177.185
178.559
179.748
180.724
181.306
181.227
181.179
180.263
168.492
166.062
165.545
165.385
164.782
164.392
164.328
164.745
165.453
166.471
167.88
169.912
172.364
175.25
177.528
219.544
219.763
219.091
218.395
218.248
218.184
217.006
215.807
215.348
215.563
214.646
213.207
212.564
211.711
210.595
210.237
211.416
210.958
209.56
209.868
209.569
208.63
208.557
210.897
210.849
209.688
209.455
211.917
212.433
210.782
211.802
212.654
211.68
211.604
214.92
216.572
214.925
216.293
217.966
216.94
216.694
220.254
222.528
221.501
221.166
224.494
227.163
225.648
227.038
229.381
228.481
228.239
231.395
234.119
233.465
233.417
236.286
239.01
238.169
239.153
241.446
240.975
240.986
242.848
245.157
244.821
245.31
247.019
246.837
247.371
248.205
248.782
248.921
249.917
249.906
249.693
251.513
250.045
244.865
248.045
249.29
249.049
248.415
255.926
245.3
246.997
247.644
247.461
246.666
246.052
245.779
244.808
248.657
233.876
232.988
233.687
234.132
233.268
232.103
230.01
227.185
222.966
212.537
211.035
209.838
209.722
210.298
209.929
208.184
205.027
200.572
189.52
182.935
181.164
179.727
178.947
179.142
178.345
174.244
167.501
146.868
147.369
147.121
146.713
145.617
144.253
141.751
137.354
130.638
107.088
107.971
105.885
105.684
105.33
103.738
100.174
94.0258
86.7367
61.6816
66.8554
64.1004
62.7674
60.8929
57.9972
54.3367
49.9467
44.5767
39.3018
12.7143
18.251
14.1527
11.5282
8.44831
4.62161
0.767073
-0.655773
-0.934353
-21.8486
-9.43073
-12.699
-17.4259
-17.5052
-20.1578
-19.3516
-18.6121
-17.1179
-15.5862
-16.4744
-15.1115
-14.1237
-14.9185
-14.4314
-14.1303
-13.4106
-12.6782
-13.3726
-12.9412
-12.6702
-12.0838
-11.5666
-12.1473
-11.5076
-11.0912
-11.5752
-11.2124
-10.9796
-10.5184
-10.0826
-10.4953
-10.1411
-9.88305
-9.43681
-9.02985
-9.32798
-8.80824
-8.44311
-8.70683
-8.37784
-8.10593
-7.69413
-7.30409
-7.49131
-7.14567
-6.85693
-6.45458
-6.0935
-6.19508
-5.76187
-5.45569
-5.53022
-5.21391
-4.94955
-4.61893
-4.33002
-4.33195
-4.04135
-3.80592
-3.51321
-3.26585
-3.13601
-2.80289
-2.60958
-2.38834
-2.12448
-1.93565
-1.68153
-1.50245
-1.17109
-1.01512
-0.962855
-0.820264
-0.774009
-0.383917
-0.316516
-0.529285
-0.100256
-0.163434
-0.29515
-0.219136
-0.121702
0.578405
1.02022
1.06899
1.07702
1.12647
1.41581
2.07498
1.93624
1.15403
1.28729
1.70227
1.5796
1.42558
1.61857
2.17427
1.12795
1.17074
1.54646
1.03432
-0.178765
-1.66945
-2.12692
-2.53044
-4.11385
-5.69683
-1.68308
-1.13233
-0.405264
0.825045
1.28198
2.13593
1.94621
1.97901
1.82145
0.868069
0.667836
1.35141
3.73037
10.7417
37.7945
40.1099
20.096
5.34158
3.06299
2.58616
1.29034
-0.86167
-2.75349
-4.00721
-3.92093
-2.78947
-0.294983
3.50296
3.42483
1.19947
0.30511
0.137477
-0.304961
-0.945103
-1.07896
-1.18809
-1.04282
-0.997564
-0.93494
-0.979029
-0.807821
-0.68447
-0.565426
-0.313751
-0.262498
0.424029
0.197273
-0.0883402
0.176088
-0.0720365
-0.670419
-1.26147
-1.00537
-0.711699
0.750815
1.31208
1.30088
1.22544
1.23157
1.71147
2.34692
2.18965
1.13769
1.23078
1.54297
1.09175
0.996252
1.31168
1.8992
0.407973
0.389441
0.884393
0.024439
-1.28731
-2.82807
-3.99442
-4.15377
-6.24629
-8.44428
-3.47701
-2.54355
-1.70997
0.0876363
0.857174
2.24563
2.32724
2.57926
2.55721
1.64272
1.07586
1.29013
3.9598
14.5659
49.6349
61.0971
39.6646
13.3694
7.04056
3.65677
0.571554
-3.41334
-6.70825
-8.72807
-8.72857
-7.01618
-2.95495
2.80846
3.46917
0.615647
-0.782381
-1.11995
-1.88941
-2.9594
-3.36857
-3.65344
-3.50338
-3.45301
-3.18224
-3.06264
-2.6029
-2.2437
-1.80857
-1.22615
-0.924274
0.16173
0.0156471
-0.196591
0.155237
-0.404414
-0.683952
-1.64685
-1.41397
-1.04056
0.797413
1.37601
1.31394
1.13786
1.1323
1.74268
2.36749
2.02694
0.955114
0.894125
1.13443
0.736647
0.367935
0.676849
1.19151
-0.251058
-0.450894
-0.112797
-0.907613
-2.36037
-3.98176
-5.26573
-5.53057
-7.69435
-9.26917
-4.62191
-3.52137
-2.313
-0.287058
0.678447
2.36371
2.61237
2.84699
2.78765
1.94215
1.17709
1.40733
4.3555
16.7762
55.1135
63.6438
45.9735
19.6721
11.0647
6.21096
2.56894
-1.65624
-5.10219
-7.33281
-7.72118
-6.28381
-2.39568
2.82041
2.69596
-0.261921
-1.69858
-2.39377
-3.69029
-5.14121
-5.87917
-6.34029
-6.25882
-6.14948
-5.72199
-5.37848
-4.62542
-3.96679
-3.19364
-2.27704
-1.66501
-0.340521
-0.312197
-0.336955
0.110841
-0.726084
-0.869562
-1.72121
-1.37086
-1.03092
0.82186
1.42552
1.34342
1.10155
1.13104
1.8463
2.32992
1.96892
0.767074
0.62925
0.749892
0.300008
-0.187471
0.0528936
0.416759
-0.950824
-1.29605
-1.08342
-1.92146
-3.37114
-4.93866
-6.38361
-6.74018
-8.80411
-9.22757
-5.32059
-4.03549
-2.50123
-0.247278
0.9059
2.81652
3.01502
3.1538
3.04148
2.19596
1.47708
2.08049
5.82386
20.3986
61.6102
64.5166
48.3595
25.2636
15.882
10.3174
6.53231
2.43464
-0.917578
-3.34303
-4.30234
-3.54931
-0.575166
3.21163
1.92894
-1.08308
-2.62342
-3.78568
-5.68608
-7.51958
-8.55779
-9.19441
-9.18212
-8.99338
-8.40193
-7.80424
-6.75548
-5.75073
-4.63739
-3.37881
-2.41573
-0.877946
-0.609277
-0.460778
0.0177875
-1.03935
-1.02671
-1.73035
-1.33824
-1.02849
0.814072
1.44016
1.36493
1.12649
1.19221
1.9339
2.24764
1.88746
0.60129
0.422377
0.435637
-0.0916702
-0.705691
-0.524116
-0.399365
-1.62744
-2.06008
-1.98116
-2.90979
-4.3336
-5.81871
-7.39266
-7.93571
-9.65166
-9.14137
-5.6762
-4.19131
-2.40194
-0.00709979
1.29885
3.25524
3.3274
3.4221
3.30029
2.46298
1.94367
2.98932
7.49455
24.3367
66.2125
65.2671
50.4497
30.1861
20.7918
14.5258
10.8239
6.90137
3.56199
0.916797
-0.613964
-0.673042
1.15501
3.38142
1.09076
-1.96269
-3.72786
-5.406
-7.89751
-10.1134
-11.449
-12.2603
-12.3037
-12.0111
-11.2442
-10.3678
-8.99952
-7.63874
-6.14917
-4.53188
-3.19342
-1.39937
-0.874199
-0.570269
-0.0870692
-1.31124
-1.10457
-1.73026
-1.40962
-1.09498
0.778322
1.41808
1.36632
1.17589
1.28399
1.98903
2.17891
1.77575
0.450372
0.2362
0.130191
-0.472873
-1.17038
-1.0593
-1.13986
-2.33098
-2.79764
-2.82813
-3.87743
-5.27335
-6.61602
-8.31843
-8.98557
-10.2003
-9.13097
-5.80787
-4.11515
-2.09578
0.387361
1.77355
3.57091
3.53826
3.62225
3.51243
2.70024
2.44161
3.90674
8.91145
27.4179
67.5831
65.2724
51.9152
33.5273
25.2414
18.3813
14.6741
10.9541
7.57166
4.71124
2.66631
1.78146
2.45024
3.23521
0.183544
-2.95117
-5.04592
-7.2574
-10.3161
-12.9323
-14.5608
-15.5435
-15.6246
-15.2268
-14.2603
-13.0704
-11.3623
-9.64204
-7.73382
-5.72411
-3.99111
-1.93681
-1.13489
-0.679517
-0.202754
-1.53859
-1.14263
-1.76146
-1.57316
-1.23652
0.728238
1.36523
1.34784
1.22015
1.36623
2.00668
2.11603
1.6408
0.311948
0.048079
-0.172363
-0.842106
-1.60647
-1.57831
-1.79174
-3.03844
-3.51832
-3.65778
-4.81513
-6.19182
-7.37892
-9.12918
-9.77996
-10.5668
-9.1278
-5.7946
-3.94045
-1.65947
0.885856
2.25836
3.81361
3.71659
3.79858
3.70012
2.91386
2.93371
4.81298
10.1077
29.3957
66.5476
64.5411
51.9591
35.5238
28.9898
21.9052
18.0249
14.3265
10.9323
7.85282
5.33776
3.66447
3.27235
2.81868
-0.759115
-4.06419
-6.58351
-9.33572
-12.9503
-15.9945
-17.909
-19.055
-19.1586
-18.6492
-17.4585
-15.9188
-13.8517
-11.768
-9.39416
-6.94775
-4.81541
-2.48766
-1.41608
-0.799168
-0.317401
-1.70989
-1.18281
-1.84437
-1.79872
-1.44037
0.673485
1.29299
1.31593
1.25415
1.42643
1.98276
2.02241
1.4897
0.180974
-0.146998
-0.477228
-1.20253
-2.02454
-2.09
-2.42436
-3.73093
-4.23638
-4.46914
-5.72629
-7.09089
-8.11633
-9.81109
-10.343
-10.8329
-9.09103
-5.68605
-3.76472
-1.1524
1.4402
2.72045
4.04112
3.91899
4.00522
3.9099
3.16087
3.43326
5.75502
11.2593
30.5097
64.4096
63.0705
51.3175
37.1467
31.9826
24.9129
20.9822
17.0296
13.6352
10.3237
7.3704
4.98741
3.67745
2.19929
-1.73051
-5.31639
-8.3426
-11.6435
-15.8169
-19.3158
-21.5104
-22.8107
-22.9258
-22.2843
-20.8396
-18.9196
-16.4705
-13.9912
-11.128
-8.21441
-5.6726
-3.03919
-1.70443
-0.926434
-0.428652
-1.81619
-1.24952
-1.99752
-2.06719
-1.69338
0.619742
1.21382
1.27595
1.2768
1.46604
1.93312
1.91221
1.32717
0.0496993
-0.3513
-0.78493
-1.55736
-2.42979
-2.59346
-3.05393
-4.40312
-4.9622
-5.27173
-6.62791
-7.97192
-8.81703
-10.3732
-10.7815
-11.0119
-9.01683
-5.50979
-3.55081
-0.605377
2.00549
3.14852
4.27692
4.17059
4.27247
4.17203
3.47733
3.95663
6.75703
12.5364
31.1173
62.0309
61.8459
51.2716
39.0124
34.1763
27.2979
23.4239
19.2049
15.7517
12.1911
8.83972
5.85246
3.7708
1.46275
-2.73376
-6.71801
-10.3198
-14.1906
-18.9363
-22.9142
-25.3842
-26.8284
-26.9471
-26.1484
-24.4145
-22.084
-19.2173
-16.2743
-12.9334
-9.53646
-6.56114
-3.60283
-1.97829
-1.05109
-0.543056
-1.86889
-1.34824
-2.2174
-2.37156
-1.98937
0.569646
1.1362
1.23177
1.28731
1.48397
1.86086
1.78537
1.15625
-0.0856817
-0.564571
-1.09427
-1.90804
-2.82649
-3.09395
-3.67628
-5.06354
-5.70219
-6.07106
-7.52681
-8.82558
-9.4797
-10.8436
-11.1487
-11.1196
-8.91623
-5.277
-3.16112
-0.0298693
2.54829
3.53731
4.52081
4.47098
4.60136
4.48996
3.86371
4.50447
7.80434
14.0587
31.9412
60.199
61.9392
52.1805
41.2918
35.5996
29.1376
25.3795
20.9972
17.4002
13.5735
9.87638
6.39439
3.67257
0.69584
-3.75965
-8.26222
-12.5112
-16.9903
-22.3294
-26.8078
-29.5471
-31.1214
-31.2301
-30.2541
-28.1954
-25.4235
-22.0923
-18.6262
-14.8123
-10.918
-7.48833
-4.19995
-2.24783
-1.17154
-0.667984
-1.90722
-1.48759
-2.48552
-2.70455
-2.32463
0.524309
1.06492
1.18656
1.28574
1.47963
1.77099
1.64601
0.979984
-0.227147
-0.785618
-1.40364
-2.2552
-3.21691
-3.59392
-4.29445
-5.7303
-6.45584
-6.86812
-8.3985
-9.62227
-10.1021
-11.2443
-11.4553
-11.1692
-8.78777
-4.99605
-2.6196
0.566397
3.05038
3.8835
4.76172
4.80355
4.97235
4.84758
4.29108
5.05941
8.86182
15.862
33.6657
59.7627
63.1286
53.7238
43.8997
36.8053
30.6408
27.0401
22.4923
18.7013
14.6027
10.6145
6.73561
3.48597
-0.0383817
-4.80149
-9.94204
-14.9149
-20.0568
-26.0178
-31.0139
-34.0112
-35.7007
-35.778
-34.5967
-32.1889
-28.9391
-25.1007
-21.0811
-16.7684
-12.3608
-8.46353
-4.82454
-2.53101
-1.29197
-0.801348
-1.97271
-1.69994
-2.78932
-3.04546
-2.67845
0.484412
1.00173
1.14251
1.2723
1.45279
1.66962
1.49786
0.800845
-0.37409
-1.01312
-1.71149
-2.59863
-3.60253
-4.09454
-4.90797
-6.40619
-7.20924
-7.65778
-9.21001
-10.3383
-10.6859
-11.5895
-11.7119
-11.1726
-8.61754
-4.67652
-2.04291
1.15712
3.49744
4.18552
4.99448
5.14747
5.35668
5.21983
4.73249
5.60451
9.8918
17.8885
36.3563
60.6902
64.4374
55.4781
46.6707
38.3199
32.0638
28.5486
23.7458
19.7633
15.395
11.1622
6.96366
3.27373
-0.722993
-5.87547
-11.7586
-17.529
-23.4038
-30.023
-35.5479
-38.7904
-40.5775
-40.6011
-39.1768
-36.3984
-32.6239
-28.2485
-23.6512
-18.8048
-13.8664
-9.48517
-5.46721
-2.8327
-1.41625
-0.937338
-2.07984
-1.98801
-3.12563
-3.37706
-3.02441
0.450435
0.946939
1.10066
1.24831
1.40688
1.56358
1.34299
0.620689
-0.52488
-1.24598
-2.01686
-2.93788
-3.98201
-4.59649
-5.51648
-7.07182
-7.93975
-8.43495
-9.9602
-10.9858
-11.2324
-11.8948
-11.9269
-11.1367
-8.40732
-4.33026
-1.46868
1.71699
3.87681
4.44578
5.21631
5.47366
5.72675
5.5819
5.16763
6.13082
10.8615
20.0047
39.5818
62.2457
65.0978
56.7433
49.4377
40.146
33.5239
29.8898
24.8131
20.6724
16.0382
11.5937
7.12657
3.05576
-1.37189
-7.00278
-13.7071
-20.3532
-27.045
-34.3648
-40.4254
-43.9027
-45.7617
-45.7114
-44.0139
-40.8264
-36.4818
-31.5383
-26.3356
-20.9239
-15.4374
-10.5508
-6.13034
-3.1559
-1.54871
-1.0721
-2.22847
-2.34519
-3.49186
-3.70142
-3.36046
0.422192
0.899983
1.06128
1.21618
1.34874
1.45501
1.18103
0.43938
-0.68135
-1.48301
-2.3194
-3.273
-4.3553
-5.10006
-6.11709
-7.71266
-8.63756
-9.1946
-10.6663
-11.5878
-11.7409
-12.1744
-12.1101
-11.0654
-8.17368
-3.9694
-0.911
2.22825
4.18782
4.66936
5.41829
5.75474
6.06198
5.91519
5.58388
6.63818
11.7514
22.0573
42.8027
63.7171
64.9761
56.6496
52.0878
42.1311
35.0083
31.1068
25.7447
21.4923
16.5908
11.9537
7.2475
2.84079
-1.98764
-8.17787
-15.7703
-23.3892
-30.9909
-39.0607
-45.6617
-49.3624
-51.2601
-51.1133
-49.1236
-45.477
-40.5246
-34.9715
-29.1339
-23.1274
-17.0763
-11.6637
-6.82788
-3.49956
-1.69066
-1.19995
-2.4122
-2.76494
-3.89355
-4.02955
-3.69013
0.39896
0.859794
1.02436
1.17864
1.28428
1.34154
1.01301
0.255519
-0.847702
-1.72239
-2.61892
-3.60539
-4.72973
-5.60401
-6.70481
-8.33073
-9.30833
-9.92931
-11.3328
-12.1526
-12.2131
-12.4386
-12.2685
-10.9627
-7.92342
-3.60065
-0.381293
2.68257
4.43935
4.86018
5.62866
5.99334
6.35229
6.20956
5.97649
7.13371
12.5598
23.9329
45.6392
64.7771
64.4043
55.7447
54.6077
44.3335
36.2874
32.5705
26.5884
22.2681
17.0879
12.2694
7.346
2.65013
-2.55922
-9.38144
-17.9322
-26.633
-35.2475
-44.1238
-51.2687
-55.1768
-57.0806
-56.8089
-54.5089
-50.3544
-44.7577
-38.5497
-32.0462
-25.4167
-18.7859
-12.8331
-7.57128
-3.8646
-1.83714
-1.32216
-2.62771
-3.22546
-4.33142
-4.3752
-4.02691
0.379816
0.825304
0.990158
1.13812
1.21612
1.22276
0.842014
0.0692991
-1.02406
-1.96204
-2.9146
-3.93664
-5.1123
-6.10545
-7.27581
-8.92799
-9.9537
-10.6332
-11.9573
-12.6795
-12.6533
-12.6927
-12.4012
-10.8312
-7.65564
-3.23022
0.111277
3.07589
4.64357
5.0276
5.87794
6.20749
6.59838
6.46358
6.34742
7.62956
13.2963
25.5773
47.9372
65.4755
63.6891
55.1116
56.6931
46.8973
37.0637
34.4327
27.3793
23.0269
17.5491
12.5599
7.4447
2.50831
-3.07896
-10.6004
-20.1801
-30.0738
-39.8154
-49.562
-57.2543
-61.3498
-63.2268
-62.8008
-60.1649
-55.4604
-49.1811
-42.2737
-35.0713
-27.7929
-20.5697
-14.0698
-8.36323
-4.2556
-1.98596
-1.44508
-2.86744
-3.71154
-4.79629
-4.75007
-4.3689
0.363924
0.79554
0.95911
1.09679
1.1456
1.10118
0.670552
-0.117548
-1.20716
-2.19974
-3.20499
-4.26715
-5.50208
-6.60138
-7.82796
-9.50204
-10.5663
-11.3028
-12.5377
-13.1623
-13.0661
-12.9376
-12.5056
-10.6745
-7.37315
-2.86612
0.560234
3.40841
4.81138
5.19543
6.11694
6.41059
6.80818
6.68334
6.70377
8.14141
13.9782
26.989
49.7142
66.0492
62.9374
54.8438
57.8255
49.8208
37.418
36.1706
28.1282
23.776
17.988
12.8417
7.56185
2.42422
-3.5544
-11.8352
-22.5076
-33.6958
-44.6892
-55.3771
-63.622
-67.8804
-69.6968
-69.0917
-66.0836
-60.7922
-53.7913
-46.1424
-38.2073
-30.2565
-22.4321
-15.378
-9.20649
-4.6738
-2.13918
-1.56541
-3.12115
-4.22336
-5.27675
-5.14855
-4.71126
0.350755
0.769304
0.931078
1.05564
1.07354
0.978391
0.500434
-0.302963
-1.39362
-2.43362
-3.48926
-4.59616
-5.8952
-7.08902
-8.36105
-10.0518
-11.1428
-11.9365
-13.0744
-13.6025
-13.4531
-13.1714
-12.5815
-10.499
-7.08199
-2.51705
0.961169
3.68443
4.95166
5.36775
6.31869
6.61596
6.9891
6.88005
7.05574
8.68633
14.6298
28.1979
51.0354
66.8087
62.196
54.2266
57.3903
52.8361
37.8757
37.5567
28.834
24.5129
18.4179
13.1267
7.70241
2.38493
-4.00639
-13.0895
-24.9057
-37.4812
-49.8569
-61.5633
-70.3688
-74.7585
-76.4783
-75.6682
-72.2548
-66.3433
-58.5831
-50.1518
-41.452
-32.8082
-24.3772
-16.7626
-10.1053
-5.12126
-2.29616
-1.67567
-3.38045
-4.75299
-5.76621
-5.56008
-5.06941
0.339917
0.745574
0.905323
1.0144
1.00029
0.856339
0.332785
-0.48513
-1.58048
-2.6627
-3.7678
-4.92259
-6.28795
-7.5648
-8.87586
-10.5787
-11.6918
-12.5335
-13.5708
-14.0123
-13.8128
-13.3902
-12.6255
-10.3108
-6.78922
-2.19059
1.31153
3.91076
5.07296
5.5364
6.49834
6.81235
7.14538
7.06779
7.41477
9.28083
15.2823
29.2621
52.0525
67.8742
61.6784
52.1918
54.701
54.7218
38.5415
38.956
29.509
25.2411
18.849
13.4192
7.8559
2.36292
-4.45638
-14.3571
-27.3567
-41.4161
-55.2977
-68.1055
-77.4828
-81.9642
-83.545
-82.5012
-78.661
-72.103
-63.5482
-54.2953
-44.8026
-35.4503
-26.4099
-18.2355
-11.0639
-5.6021
-2.45575
-1.77013
-3.63725
-5.28214
-6.25162
-5.98101
-5.43524
0.330779
0.72375
0.88106
0.972453
0.925746
0.735728
0.168242
-0.662767
-1.7651
-2.88589
-4.04139
-5.24566
-6.67607
-8.02366
-9.374
-11.0854
-12.2222
-13.0932
-14.0302
-14.3982
-14.1436
-13.5912
-12.6384
-10.1159
-6.50172
-1.89248
1.61104
4.09533
5.18037
5.69723
6.67624
6.97914
7.28374
7.26114
7.79287
9.93913
15.9738
30.2727
52.9281
69.6078
61.7498
50.2634
51.5084
55.2287
38.3975
40.4842
30.1663
25.9702
19.2865
13.7154
8.00263
2.32738
-4.92034
-15.6277
-29.841
-45.4784
-60.9791
-74.9768
-84.9389
-89.4669
-90.8621
-89.5572
-85.2773
-78.0543
-68.6742
-58.5637
-48.2565
-38.19
-28.535
-19.8066
-12.0861
-6.1184
-2.61745
-1.8446
-3.87844
-5.79952
-6.71689
-6.40415
-5.79575
0.322565
0.70328
0.857605
0.929232
0.849165
0.614793
0.00732957
-0.835432
-1.94558
-3.10204
-4.31094
-5.56479
-7.05491
-8.46034
-9.85694
-11.5726
-12.7337
-13.6156
-14.4549
-14.7588
-14.4449
-13.7732
-12.631
-9.91897
-6.22555
-1.62669
1.86133
4.24532
5.27695
5.85273
6.86706
7.12067
7.41861
7.46859
8.20197
10.6715
16.7411
31.2609
53.9437
71.5761
62.4326
50.7582
51.1474
56.393
37.3459
41.9741
30.7965
26.7081
19.7323
14.0066
8.12156
2.25072
-5.41228
-16.8962
-32.3367
-49.6289
-66.857
-82.1352
-92.6974
-97.2209
-98.3863
-96.7978
-92.0724
-84.1696
-73.9449
-62.9456
-51.8109
-41.0396
-30.7553
-21.4682
-13.1749
-6.67241
-2.78091
-1.89247
-4.09209
-6.29799
-7.15286
-6.82156
-6.161
0.314601
0.683604
0.834711
0.884668
0.77044
0.492243
-0.149261
-1.00352
-2.12219
-3.31319
-4.57702
-5.87919
-7.42167
-8.87479
-10.3245
-12.0397
-13.2225
-14.1011
-14.8463
-15.0919
-14.7168
-13.9354
-12.6122
-9.72388
-5.96578
-1.39539
2.06549
4.37034
5.36592
6.002
7.07643
7.31862
7.54663
7.67737
8.65841
11.4838
17.6048
32.1886
54.9493
71.9164
64.802
53.7365
53.5243
60.0624
35.6755
43.5595
31.409
27.4501
20.1871
14.284
8.1953
2.10978
-5.94841
-18.1653
-34.8223
-53.8211
-72.8737
-89.5214
-100.702
-105.166
-106.062
-104.176
-99.0077
-90.4145
-79.3408
-67.4284
-55.4602
-44.0082
-33.0681
-23.2023
-14.3319
-7.26724
-2.94521
-1.90621
-4.26683
-6.76524
-7.55274
-7.23343
-6.51907
0.306366
0.664076
0.811992
0.839008
0.690756
0.36973
-0.300804
-1.1676
-2.29687
-3.52403
-4.83903
-6.18752
-7.77652
-9.27384
-10.7749
-12.4852
-13.6849
-14.5497
-15.2054
-15.3959
-14.9595
-14.0764
-12.5833
-9.53401
-5.72628
-1.20008
2.22758
4.48426
5.45362
6.14657
7.28074
7.57507
7.67059
7.90874
9.1758
12.3805
18.5645
33.037
55.7899
70.2766
69.9718
57.0756
56.8328
66.2027
33.526
44.8458
32.1645
28.161
20.6507
14.5419
8.21248
1.88553
-6.54824
-19.4447
-37.2799
-58.0062
-78.9577
-97.057
-108.879
-113.227
-113.825
-111.634
-106.037
-96.7587
-84.8388
-71.9989
-59.1907
-47.0731
-35.4635
-25.0066
-15.5591
-7.90579
-3.1097
-1.87897
-4.38808
-7.17987
-7.91085
-7.64087
-6.88564
0.297724
0.644037
0.787978
0.792628
0.611559
0.249649
-0.446609
-1.32764
-2.47024
-3.73597
-5.09547
-6.48815
-8.11992
-9.66282
-11.2064
-12.9077
-14.1177
-14.9605
-15.533
-15.6695
-15.1734
-14.1954
-12.544
-9.3525
-5.50984
-1.03839
2.35258
4.59253
5.54729
6.29163
7.4527
7.82915
7.81804
8.19987
9.76378
13.3762
19.5963
33.8294
57.3268
69.23
76.9369
58.6285
58.7676
73.4428
32.1129
45.1042
33.0729
28.8205
21.1244
14.7807
8.16872
1.56345
-7.23352
-20.751
-39.6985
-62.1333
-85.0236
-104.643
-117.134
-121.321
-121.6
-119.11
-113.108
-103.174
-90.4129
-76.6382
-62.9781
-50.1652
-37.9277
-26.8899
-16.8589
-8.59028
-3.27415
-1.80386
-4.43872
-7.52041
-8.22963
-8.05341
-7.25383
0.288836
0.623534
0.761374
0.746035
0.533942
0.133718
-0.586167
-1.48317
-2.64104
-3.94648
-5.34462
-6.77972
-8.45145
-10.0408
-11.6174
-13.3061
-14.518
-15.3302
-15.8304
-15.9114
-15.3563
-14.2926
-12.4949
-9.18231
-5.31824
-0.9048
2.4462
4.68973
5.65455
6.44201
7.58696
8.05052
8.02007
8.56971
10.4316
14.465
20.8081
34.4056
59.5942
71.3018
81.5573
57.3877
57.5501
79.848
33.4081
44.8415
33.9111
29.4604
21.6107
15.007
8.06695
1.1348
-8.02621
-22.107
-42.0743
-66.1521
-90.9746
-112.159
-125.355
-129.35
-129.305
-126.533
-120.163
-109.621
-96.0317
-81.315
-66.7934
-53.2387
-40.4514
-28.8531
-18.2313
-9.32255
-3.43869
-1.67369
-4.40688
-7.77691
-8.51514
-8.46979
-7.6173
0.279537
0.602896
0.732468
0.699622
0.45854
0.0230177
-0.719001
-1.63371
-2.80759
-4.1523
-5.58494
-7.06133
-8.77039
-10.4043
-12.0067
-13.6805
-14.8857
-15.6599
-16.0995
-16.121
-15.5051
-14.3694
-12.4373
-9.0258
-5.1532
-0.800701
2.51716
4.77863
5.78099
6.60558
7.69955
8.24435
8.29502
9.02347
11.2002
15.6562
22.0623
35.4291
59.9325
76.3068
80.6895
57.1858
50.699
84.1135
37.1808
44.9189
34.6263
30.1051
22.1175
15.2327
7.91704
0.598378
-8.94531
-23.5392
-44.4117
-70.0154
-96.7062
-119.472
-133.415
-137.201
-136.846
-133.826
-127.142
-116.051
-101.657
-85.9931
-70.611
-56.3216
-43.0252
-30.8874
-19.6734
-10.1037
-3.60373
-1.48067
-4.28204
-7.94606
-8.75919
-8.88244
-7.99587
0.269307
0.582219
0.702306
0.653553
0.385546
-0.0819308
-0.844813
-1.77919
-2.96863
-4.35081
-5.81481
-7.33243
-9.0759
-10.7503
-12.3733
-14.0317
-15.2239
-15.9591
-16.3421
-16.3005
-15.625
-14.4277
-12.3726
-8.88447
-5.0156
-0.729793
2.57673
4.87201
5.93037
6.78943
7.81454
8.41912
8.64643
9.52466
12.037
16.9957
23.4281
36.9467
61.8329
84.3354
76.5934
61.1505
37.1488
84.5704
40.5238
45.2736
35.3971
30.7593
22.6594
15.4736
7.73498
-0.0380325
-10.0062
-25.0756
-46.7229
-73.6837
-102.113
-126.433
-141.173
-144.756
-144.123
-140.907
-133.981
-122.403
-107.243
-90.644
-74.4092
-59.4278
-45.6319
-32.9798
-21.1796
-10.9326
-3.77062
-1.21593
-4.04387
-8.03683
-8.9719
-9.28547
-8.3772
0.258004
0.562179
0.672017
0.607802
0.314864
-0.181609
-0.964971
-1.91986
-3.1237
-4.54018
-6.03288
-7.59285
-9.36734
-11.0765
-12.7151
-14.3604
-15.5358
-16.2348
-16.5591
-16.4544
-15.7272
-14.469
-12.3015
-8.75748
-4.90396
-0.686265
2.63495
4.98235
6.10166
6.98136
7.95116
8.58013
9.02682
10.0352
12.9374
18.511
25.0614
38.3022
66.1059
83.2435
89.0514
67.3065
21.1934
81.7164
41.5818
45.4762
36.3592
31.4353
23.2516
15.7479
7.54118
-0.760522
-11.2172
-26.7406
-49.0262
-77.1288
-107.096
-132.893
-148.488
-151.89
-151.034
-147.69
-140.604
-128.617
-112.747
-95.2416
-78.1646
-62.5271
-48.2477
-35.1137
-22.7418
-11.8045
-3.93744
-0.870941
-3.67172
-8.07051
-9.18862
-9.68962
-8.75137
0.245939
0.54388
0.642551
0.562543
0.246464
-0.277019
-1.08199
-2.05582
-3.27306
-4.7206
-6.24089
-7.84261
-9.64449
-11.3823
-13.0311
-14.6672
-15.8224
-16.4875
-16.7512
-16.5855
-15.8167
-14.4949
-12.2248
-8.64172
-4.81538
-0.660231
2.69882
5.11617
6.29077
7.16411
8.11548
8.73914
9.38118
10.5879
13.9338
20.1664
26.6951
38.4961
67.5423
76.0016
112.568
68.6604
5.43388
81.917
42.1377
45.0858
37.5695
32.1696
23.91
16.0737
7.35768
-1.55096
-12.5727
-28.5502
-51.3443
-80.338
-111.574
-138.713
-155.222
-158.488
-157.487
-154.094
-146.938
-134.633
-118.12
-99.7516
-81.8496
-65.584
-50.8459
-37.2664
-24.3493
-12.7101
-4.0901
-0.439264
-3.15632
-8.05275
-9.44062
-10.1248
-9.14233
0.233564
0.527935
0.614495
0.518305
0.180688
-0.368228
-1.19641
-2.18661
-3.41711
-4.8941
-6.44291
-8.08115
-9.90738
-11.6691
-13.3256
-14.9526
-16.0836
-16.7152
-16.9193
-16.6961
-15.894
-14.5071
-12.1453
-8.53797
-4.74659
-0.643763
2.77261
5.27394
6.49707
7.34731
8.29977
8.92178
9.70925
11.2169
15.0437
21.9139
28.1798
37.2015
63.4732
68.3258
115.167
70.9975
-8.37909
93.2795
45.8381
43.9231
39.0245
33.0416
24.6543
16.465
7.20532
-2.38515
-14.0531
-30.511
-53.7002
-83.3149
-115.492
-143.771
-161.259
-164.452
-163.402
-160.052
-152.921
-140.392
-123.313
-104.135
-85.4333
-68.5654
-53.3984
-39.4109
-25.9821
-13.6338
-4.2146
0.0834038
-2.48655
-7.95376
-9.73699
-10.6033
-9.53717
0.221345
0.514363
0.588207
0.475899
0.118037
-0.454439
-1.30666
-2.31137
-3.55559
-5.06149
-6.64004
-8.30724
-10.1559
-11.9385
-13.603
-15.2161
-16.3192
-16.9165
-17.0637
-16.7883
-15.9578
-14.5076
-12.067
-8.45148
-4.69349
-0.631066
2.85864
5.45399
6.72248
7.54865
8.49876
9.14063
10.0614
11.9148
16.2657
23.7463
29.6706
35.2173
57.0693
60.7578
103.822
79.8845
-26.4093
111.079
53.7996
44.2448
40.6918
34.1009
25.5043
16.9296
7.10426
-3.23435
-15.6305
-32.6188
-56.1137
-86.0791
-118.826
-147.98
-166.516
-169.719
-168.719
-165.512
-158.498
-145.836
-128.276
-108.35
-88.8828
-71.4377
-55.8729
-41.5145
-27.6014
-14.5567
-4.31495
0.703877
-1.64143
-7.73418
-10.0654
-11.0991
-9.94649
0.209654
0.50303
0.563763
0.435659
0.0588276
-0.534852
-1.41108
-2.42937
-3.68785
-5.22176
-6.82967
-8.51943
-10.3898
-12.1908
-13.8633
-15.4575
-16.53
-17.0908
-17.1831
-16.8641
-16.0075
-14.4983
-11.9915
-8.38296
-4.6514
-0.617514
2.95811
5.65375
6.96731
7.77115
8.71614
9.40028
10.4606
12.6962
17.6228
25.6988
31.4291
33.7491
51.3069
52.9821
94.639
118.753
-27.134
144.936
74.5889
51.3735
42.2769
35.3285
26.4699
17.4745
7.07253
-4.06812
-17.2715
-34.8573
-58.5962
-88.6624
-121.594
-151.298
-170.95
-174.271
-173.42
-170.449
-163.632
-150.923
-132.966
-112.358
-92.164
-74.165
-58.2281
-43.5353
-29.1579
-15.4591
-4.39388
1.43276
-0.597498
-7.36119
-10.4076
-11.5809
-10.3454
0.19871
0.493798
0.540576
0.396495
0.0031658
-0.609086
-1.50854
-2.5399
-3.81346
-5.37331
-7.00836
-8.71638
-10.6085
-12.4253
-14.1039
-15.6766
-16.7175
-17.2392
-17.2787
-16.9266
-16.0428
-14.4785
-11.9195
-8.32827
-4.61585
-0.599096
3.07055
5.86869
7.22845
8.00435
8.96302
9.71778
10.9356
13.5483
19.0435
27.8603
33.7429
33.7377
48.0178
45.8975
83.2408
198.91
-23.3043
127.841
102.673
66.3596
44.048
36.5418
27.538
18.1067
7.12175
-4.85716
-18.9375
-37.1977
-61.1466
-91.1023
-123.847
-153.735
-174.564
-178.143
-177.526
-174.857
-168.301
-155.622
-137.349
-116.125
-95.2416
-76.7093
-60.4164
-45.4258
-30.6193
-16.3268
-4.43953
2.28425
0.669233
-6.80133
-10.7385
-12.0127
-10.7222
0.188648
0.486713
0.518378
0.357484
-0.048788
-0.677262
-1.59862
-2.643
-3.9325
-5.51472
-7.17304
-8.89681
-10.8118
-12.6411
-14.3229
-15.8729
-16.884
-17.3658
-17.3589
-16.9789
-16.0649
-14.4489
-11.8522
-8.28287
-4.58321
-0.572634
3.19642
6.09197
7.50045
8.23734
9.24524
10.0897
11.5153
14.4972
20.552
30.274
36.8804
35.3638
48.4632
45.29
53.2483
221.061
569.937
-6.23864
95.3781
74.0773
45.6107
37.6111
28.6498
18.8292
7.25595
-5.57542
-20.5859
-39.5989
-63.749
-93.4331
-125.666
-155.365
-177.399
-181.392
-181.064
-178.745
-172.503
-159.913
-141.4
-119.621
-98.08
-79.0338
-62.3906
-47.1391
-31.9665
-17.154
-4.43267
3.27331
2.18226
-6.01887
-11.0285
-12.3572
-11.1021
0.17954
0.482095
0.497999
0.319583
-0.0967196
-0.739839
-1.68214
-2.7406
-4.04528
-5.64515
-7.32225
-9.06149
-10.9996
-12.8376
-14.5188
-16.0458
-17.0316
-17.4747
-17.4315
-17.0231
-16.0769
-14.4158
-11.7904
-8.24308
-4.55123
-0.53617
3.33325
6.31448
7.77977
8.46701
9.53859
10.4883
12.1985
15.5836
22.2814
32.9404
40.7825
38.0131
51.2858
55.9221
13.5785
137.112
-410.013
-112.864
57.8491
62.6392
45.8296
38.6353
29.7627
19.6358
7.47229
-6.20179
-22.1725
-42.0094
-66.3708
-95.678
-127.153
-156.327
-179.539
-184.048
-184.066
-182.123
-176.247
-163.789
-145.098
-122.819
-100.649
-81.1073
-64.1143
-48.6305
-33.1685
-17.9261
-4.35379
4.41459
3.9676
-4.96037
-11.2528
-12.5841
-11.463
0.171384
0.480229
0.480513
0.284473
-0.140158
-0.797075
-1.75978
-2.83435
-4.15157
-5.76467
-7.45782
-9.21427
-11.1719
-13.0153
-14.6925
-16.1977
-17.1619
-17.5679
-17.4976
-17.0599
-16.0817
-14.3852
-11.7337
-8.20593
-4.51611
-0.490673
3.4684
6.52848
8.05593
8.69647
9.80307
10.9074
12.9686
16.6684
24.2647
35.866
45.1478
41.3965
53.0729
73.8937
0.918053
-8.91509
-2.26561
-114.855
26.3211
45.9635
45.1704
39.7127
30.8806
20.5144
7.76254
-6.72131
-23.6552
-44.3703
-68.9641
-97.8433
-128.406
-156.781
-181.075
-186.143
-186.579
-184.993
-179.542
-167.252
-148.43
-125.695
-102.929
-82.906
-65.563
-49.8588
-34.1791
-18.5899
-4.17648
5.72763
6.05845
-3.54687
-11.39
-12.6477
-11.7927
0.164171
0.481274
0.466712
0.253507
-0.178581
-0.848657
-1.83085
-2.92319
-4.25014
-5.87344
-7.58194
-9.35732
-11.3282
-13.1747
-14.846
-16.3335
-17.2762
-17.6467
-17.5555
-17.0893
-16.0812
-14.3579
-11.681
-8.16971
-4.47467
-0.437925
3.58981
6.72528
8.30879
8.94095
10.0595
11.351
13.7581
17.7699
26.3387
39.1537
49.5484
45.455
50.6134
86.3043
28.8919
-111.793
276.454
-79.8975
22.9429
38.1387
45.9594
40.8174
32.0559
21.454
8.11541
-7.12585
-24.9983
-46.6212
-71.4695
-99.9146
-129.506
-156.872
-182.062
-187.718
-188.682
-187.348
-182.393
-170.307
-151.397
-128.237
-104.905
-84.4123
-66.7164
-50.7888
-34.9449
-19.0616
-3.84965
7.23713
8.4901
-1.69432
-11.3946
-12.5341
-12.1258
0.157916
0.485231
0.457037
0.22762
-0.211424
-0.894067
-1.89422
-3.00487
-4.33943
-5.97092
-7.6941
-9.48846
-11.4675
-13.3162
-14.9809
-16.4559
-17.3755
-17.7121
-17.6035
-17.1094
-16.077
-14.3319
-11.6311
-8.13511