/*--------------------------------*- C++ -*----------------------------------*\
| =========                 |                                                 |
| \\      /  F ield         | OpenFOAM: The Open Source CFD Toolbox           |
|  \\    /   O peration     | Version:  4.1                                   |
|   \\  /    A nd           | Web:      www.OpenFOAM.org                      |
|    \\/     M anipulation  |                                                 |
\*---------------------------------------------------------------------------*/
FoamFile
{
    version     2.0;
    format      ascii;
    class       volSymmTensorField;
    location    "2";
    object      R;
}
// * * * * * * * * * * * * * * * * * * * * * * * * * * * * * * * * * * * * * //

dimensions      [0 2 -2 0 0 0 0];

internalField   nonuniform List<symmTensor> 
6785
(
(0.905347 3.95879e-16 8.66736e-16 0.45676 0.233622 2.07591)
(0.000235266 9.61388e-21 2.23552e-20 0.00022283 5.18787e-06 0.0002663)
(0.000148705 -2.24339e-23 -1.13189e-24 0.000148691 6.0756e-09 0.000148727)
(0.000148576 9.82129e-24 7.85282e-24 0.000148582 1.18233e-08 0.000148574)
(0.000148597 -1.2999e-23 -7.24526e-24 0.000148603 1.1451e-08 0.000148595)
(0.000148561 7.32675e-24 2.95724e-24 0.000148565 1.04828e-08 0.00014856)
(0.000148573 2.15586e-24 -2.00755e-24 0.000148576 9.63833e-09 0.000148573)
(0.000148585 -1.1642e-23 -5.65675e-24 0.000148587 8.8918e-09 0.000148586)
(0.000148548 1.15896e-23 5.0679e-24 0.000148549 8.26527e-09 0.000148549)
(0.000148549 2.2522e-24 2.63608e-24 0.000148548 7.34421e-09 0.00014855)
(0.000148529 -1.37429e-23 -7.40386e-24 0.000148526 5.664e-09 0.000148531)
(0.000148469 2.76079e-24 1.36893e-26 0.000148464 4.85666e-09 0.000148472)
(0.000148735 8.25603e-25 1.34747e-24 0.000148736 2.36986e-09 0.000148729)
(0.000328687 2.72729e-21 1.92898e-21 0.000310228 -3.48362e-05 0.000264928)
(0.221429 1.91466e-17 2.12784e-17 0.151319 -0.206615 1e-15)
(2.2639 3.2304e-16 2.46877e-15 0.746674 -0.446855 4.75837)
(0.212462 -3.41653e-18 9.59318e-17 0.0780703 -0.0504256 0.368477)
(0.0126427 -1.47323e-18 1.83421e-18 0.00754584 -0.00166036 0.0180503)
(0.000110421 -6.58218e-21 1.08907e-20 8.53595e-05 -8.29048e-06 0.000136611)
(2.06838e-06 -5.8547e-24 6.17058e-24 2.04851e-06 -5.30507e-09 2.08702e-06)
(1.7547e-06 2.6967e-24 1.43063e-24 1.75618e-06 8.02262e-10 1.75114e-06)
(1.69594e-06 3.71443e-24 2.24509e-25 1.69518e-06 4.39124e-09 1.69225e-06)
(1.6283e-06 5.33757e-24 -3.74279e-24 1.62026e-06 1.17615e-08 1.6235e-06)
(1.5418e-06 -9.79491e-24 -1.41967e-24 1.52494e-06 1.93098e-08 1.53481e-06)
(1.44218e-06 -9.16295e-24 -1.28226e-23 1.42833e-06 1.85587e-08 1.43394e-06)
(1.3014e-06 -1.06244e-23 -9.01272e-24 1.29962e-06 1.93454e-08 1.29113e-06)
(1.04771e-06 -9.56792e-23 -3.72065e-23 1.051e-06 3.34502e-08 1.02758e-06)
(2.78837e-06 -3.81702e-23 -1.41823e-22 3.12356e-06 -2.41415e-07 2.46001e-06)
(0.00707499 -5.73516e-19 3.16283e-19 0.00965422 -0.00346294 0.00443366)
(0.390665 5.92277e-18 7.58029e-18 0.645592 -0.426421 1e-15)
(3.72343 2.11596e-16 3.0186e-15 1.29784 -1.21544 7.12963)
(0.434675 -4.13902e-17 9.18378e-17 0.176187 -0.149542 0.728552)
(0.0167067 -9.31261e-18 -4.27938e-18 0.0128026 -0.00260151 0.022197)
(0.000164142 -4.46552e-20 -2.79876e-20 0.000149843 -1.80567e-05 0.00019107)
(2.49959e-06 -5.79267e-22 -7.90411e-23 2.73196e-06 -6.45923e-07 2.60403e-06)
(1.8434e-05 -1.40408e-20 1.59502e-22 2.75177e-05 -3.56951e-05 2.36148e-05)
(0.00040426 -2.6608e-19 -9.22905e-21 0.00065563 -0.000638368 0.000546765)
(0.00274302 -2.20778e-18 6.77813e-19 0.0047332 -0.0034456 0.00373425)
(0.00901315 -2.86096e-18 -3.39357e-19 0.0159277 -0.0100916 0.0120736)
(0.0215794 3.81746e-18 -3.59049e-18 0.0371831 -0.0225962 0.0282573)
(0.044977 -1.91117e-17 5.41e-18 0.0735338 -0.0444558 0.0581483)
(0.0884688 -4.62722e-17 1.07942e-17 0.137127 -0.0830159 0.113024)
(0.168031 -2.79225e-17 6.04636e-20 0.251463 -0.149391 0.207344)
(0.300017 -1.07186e-17 6.94637e-17 0.427858 -0.264582 0.337921)
(0.479241 2.08917e-16 6.38436e-17 0.547876 -0.366166 0.418092)
(4.27931 1.01607e-16 3.18247e-15 1.5777 -1.57034 7.65659)
(0.902919 -6.74752e-17 -1.05514e-16 0.405824 -0.316573 1.59545)
(0.118072 -1.22159e-16 -3.75696e-17 0.111723 -0.0261514 0.170196)
(0.00398463 -3.05337e-18 -3.48379e-19 0.00434212 -0.000684728 0.00506862)
(0.000111879 -1.51367e-19 -3.85046e-20 0.000137591 -4.47726e-05 0.00013084)
(9.08446e-05 -3.15456e-20 6.85366e-21 0.000135322 -0.000120455 0.000121117)
(0.000655974 -2.34844e-19 4.83944e-21 0.00101078 -0.0010223 0.000887515)
(0.00386523 -1.47902e-18 4.58617e-19 0.00625181 -0.00518834 0.00529813)
(0.0130644 -1.05892e-17 6.23717e-18 0.0216637 -0.0152191 0.0178622)
(0.0305831 -2.95223e-17 1.37893e-17 0.0501079 -0.031821 0.0408936)
(0.0619341 -2.57676e-17 1.98062e-17 0.0986104 -0.0584679 0.0815227)
(0.122793 -1.50316e-16 1.19171e-16 0.191282 -0.109527 0.16084)
(0.240384 -4.99208e-16 4.01188e-16 0.36742 -0.214018 0.31371)
(0.398431 -5.96899e-16 4.727e-16 0.564488 -0.368864 0.520157)
(0.257051 2.58314e-15 -4.46057e-16 0.30953 -0.151832 0.238945)
(3.91686 1.73037e-16 2.52172e-15 1.53475 -1.47088 6.67274)
(1.56704 -4.95002e-17 -6.75098e-16 0.739682 -0.498706 3.03097)
(0.334432 -3.69672e-16 -3.50536e-16 0.272729 -0.073613 0.523286)
(0.0513328 -7.83488e-17 -4.13876e-17 0.050705 -0.0157469 0.0664348)
(0.00770818 -9.52205e-18 -3.75654e-18 0.0091468 -0.00334561 0.00876709)
(0.001338 -6.80358e-19 -6.82698e-19 0.00193566 -0.000839799 0.00144268)
(0.000611658 -4.97183e-19 1.49425e-19 0.000928131 -0.000784931 0.000736029)
(0.00218213 -6.62872e-19 4.50767e-20 0.0033683 -0.00342893 0.00285002)
(0.0085455 -2.10034e-18 1.52129e-18 0.0135341 -0.0118341 0.0115742)
(0.0214817 -2.43394e-17 1.3174e-17 0.0339599 -0.0255891 0.0285421)
(0.0431131 -1.15546e-17 6.99509e-18 0.0673452 -0.0451901 0.0558485)
(0.0824965 -8.2174e-17 6.31292e-17 0.129149 -0.0779672 0.104905)
(0.156883 -7.26737e-16 4.13366e-16 0.246869 -0.142398 0.195287)
(0.283947 -1.06343e-15 7.00893e-16 0.438078 -0.249073 0.338391)
(0.255157 2.08701e-15 -8.88555e-16 0.328808 -0.204111 0.251569)
(3.22464 3.99627e-16 2.20858e-15 1.37005 -1.17173 5.36196)
(2.5084 -5.40627e-16 -1.62812e-15 1.19806 -0.766183 5.26715)
(0.671173 -5.94917e-16 -6.94789e-16 0.455916 -0.159956 1.18105)
(0.15173 -2.44468e-16 -1.60131e-16 0.130997 -0.0517461 0.21389)
(0.0342774 -4.7851e-17 -2.09264e-17 0.037362 -0.0160123 0.0411009)
(0.00836903 -8.61856e-18 -6.81231e-19 0.0114039 -0.00503268 0.00915397)
(0.00237305 -4.26689e-18 9.18685e-19 0.00368528 -0.00191941 0.00264247)
(0.0019283 -2.53958e-19 -2.87277e-19 0.00295621 -0.00263621 0.00246864)
(0.00525534 -2.35167e-18 1.74415e-18 0.00803592 -0.00799371 0.00713891)
(0.0134896 -2.56179e-17 1.48257e-17 0.0207369 -0.0179035 0.0180339)
(0.0267972 -1.31063e-17 4.70828e-18 0.0412556 -0.03078 0.0346357)
(0.0513965 -2.63404e-17 2.58972e-17 0.0812728 -0.0518119 0.0643331)
(0.117774 -4.09172e-16 2.48058e-16 0.194853 -0.108766 0.141983)
(0.28328 -2.41665e-16 4.08284e-17 0.471198 -0.241461 0.317661)
(0.350863 1.55381e-15 -1.27993e-15 0.427708 -0.313934 0.409404)
(2.70199 1.59498e-16 2.04336e-15 0.978285 -1.06328 4.6967)
(3.2774 -3.4709e-16 -1.98527e-15 1.57616 -1.0294 7.10211)
(0.874571 -6.7102e-16 -1.0093e-15 0.553718 -0.215006 1.5835)
(0.213658 -3.26495e-16 -2.23316e-16 0.180481 -0.0730044 0.300122)
(0.0584647 -6.96156e-17 -2.22145e-17 0.065542 -0.0290042 0.0687535)
(0.0174245 -2.51939e-17 2.89054e-18 0.0248784 -0.0114074 0.0189502)
(0.00543469 -1.0079e-17 2.08179e-18 0.00897655 -0.00443846 0.00601142)
(0.00251749 -3.4173e-19 -1.30865e-19 0.00410407 -0.00281093 0.003087)
(0.00369831 -2.89626e-18 2.26719e-18 0.00563022 -0.00560239 0.00493727)
(0.00851623 -1.86489e-17 1.15017e-17 0.0128933 -0.0120468 0.0113124)
(0.016656 2.64153e-18 -2.74699e-18 0.0254526 -0.0200706 0.0213329)
(0.0347152 -2.21716e-17 1.48113e-17 0.0557707 -0.0351517 0.0426591)
(0.115646 -3.46673e-16 1.52443e-16 0.195773 -0.10573 0.137045)
(0.390232 1.24415e-15 -7.99773e-16 0.656192 -0.328074 0.428997)
(0.518994 6.40298e-16 -1.68114e-16 0.61423 -0.460126 0.590428)
(2.3476 -1.95739e-16 1.31591e-15 0.440535 -1.08767 4.48789)
(3.44361 5.17025e-17 -7.04562e-16 1.68408 -1.09037 7.50464)
(0.901931 -5.03355e-16 -1.0729e-15 0.556746 -0.224115 1.64993)
(0.229108 -3.67552e-16 -2.63674e-16 0.195938 -0.0772876 0.317323)
(0.0717381 -8.42836e-17 -2.19222e-17 0.0847058 -0.0376359 0.0825603)
(0.0254917 -2.61071e-17 4.27678e-18 0.0386212 -0.0185082 0.0279388)
(0.00898807 -1.62238e-17 5.65094e-18 0.0156295 -0.00799574 0.0102412)
(0.00356624 -2.69449e-18 1.09762e-18 0.00623126 -0.00368027 0.00432994)
(0.00306389 -3.29886e-18 2.18457e-18 0.00478497 -0.00424932 0.00397412)
(0.00575951 -1.18367e-17 7.52187e-18 0.00872502 -0.00795916 0.00750873)
(0.0110753 5.19012e-18 -3.85051e-18 0.0169932 -0.0129534 0.0139473)
(0.0276378 -7.24096e-18 8.94366e-18 0.0453714 -0.0266573 0.0333155)
(0.128203 -2.6534e-16 1.33178e-16 0.213975 -0.117889 0.153115)
(0.473115 1.08439e-15 -5.55717e-16 0.771589 -0.387002 0.52232)
(0.663503 -5.67003e-17 1.66473e-16 0.749219 -0.564564 0.76878)
(2.07588 -3.89841e-16 1.04254e-15 1e-15 -1.08205 4.35802)
(2.90975 5.3933e-17 -6.76402e-16 1.47735 -0.91032 6.30016)
(0.748454 -3.30046e-16 -9.73042e-16 0.466735 -0.185988 1.36071)
(0.203523 -3.37845e-16 -2.19421e-16 0.179416 -0.0684525 0.275439)
(0.0742317 -1.38114e-16 -1.15863e-17 0.0926314 -0.0418411 0.0839285)
(0.0310701 -3.38115e-17 6.03393e-18 0.0492306 -0.0244614 0.0346514)
(0.0124013 -1.63183e-17 9.11061e-18 0.0221716 -0.0119169 0.014731)
(0.0048101 -5.93715e-18 2.60021e-18 0.00875628 -0.00489764 0.00590774)
(0.00292596 -2.57969e-18 1.30933e-18 0.00477916 -0.00352986 0.00367869)
(0.00431855 -6.11016e-18 4.29302e-18 0.00666453 -0.00543381 0.00547659)
(0.00842863 -2.35589e-19 -1.83737e-18 0.0132235 -0.00898346 0.0103543)
(0.0257473 -9.65418e-18 8.63138e-18 0.0431803 -0.0235487 0.0305257)
(0.137748 -2.41292e-16 1.88207e-16 0.223413 -0.127445 0.166714)
(0.529814 -7.13455e-16 -1.94885e-16 0.846067 -0.429773 0.577504)
(0.807932 1.35208e-15 -2.67559e-16 0.981845 -0.704517 0.794374)
(1.8977 -3.15916e-16 8.49599e-16 1e-15 -1.02501 4.17922)
(2.27123 -4.53071e-17 3.79751e-16 1.18641 -0.672222 4.90543)
(0.565098 -2.94881e-16 -8.47316e-16 0.357713 -0.134855 1.02394)
(0.164895 -2.622e-16 -1.77663e-16 0.150084 -0.0544964 0.218062)
(0.0708166 -1.12132e-16 -3.23515e-18 0.0931421 -0.0425756 0.0790673)
(0.0346183 -5.84638e-17 1.02515e-17 0.0566629 -0.0296164 0.0395315)
(0.0154904 -1.79204e-17 1.01147e-17 0.0280605 -0.0159448 0.0191843)
(0.00615761 2.26326e-19 2.44218e-18 0.0114811 -0.0064345 0.0077166)
(0.00312091 -6.52475e-18 2.95093e-18 0.00537221 -0.00331273 0.00381771)
(0.00374612 -3.84011e-18 2.71745e-18 0.00601228 -0.00414973 0.00459841)
(0.00750286 1.68903e-17 -7.79265e-18 0.0121897 -0.00725817 0.00898723)
(0.0265387 -8.09932e-17 2.75223e-17 0.045171 -0.0234085 0.0311862)
(0.146045 -2.42427e-16 1.07265e-16 0.231489 -0.135884 0.178661)
(0.572842 -2.74628e-16 1.63391e-16 0.900031 -0.456589 0.626727)
(0.909215 1.65278e-15 -4.43507e-16 0.988011 -0.760235 0.955526)
(1.80553 -1.92342e-16 2.76108e-16 1e-15 -0.978232 4.0661)
(1.77091 2.26272e-16 1.0367e-15 0.93685 -0.494334 3.83937)
(0.414537 -2.25553e-16 -7.99874e-16 0.266095 -0.0931941 0.753585)
(0.128398 -2.05473e-16 -1.54021e-16 0.120479 -0.0411998 0.166228)
(0.0648469 -9.83436e-17 1.12262e-17 0.0894766 -0.0414563 0.071812)
(0.0355272 -3.08251e-17 3.52311e-18 0.0591729 -0.0320764 0.0413227)
(0.0178081 -4.58751e-18 5.45369e-18 0.032309 -0.0191248 0.0226771)
(0.00740155 -1.7239e-17 1.00089e-17 0.0139219 -0.00778642 0.00934612)
(0.00354268 -1.33901e-17 3.89463e-18 0.00637874 -0.00345254 0.00423828)
(0.00377343 8.76851e-18 -2.23588e-18 0.00638938 -0.00364551 0.00448046)
(0.00783485 6.7064e-18 1.22006e-18 0.0132191 -0.00697244 0.0092433)
(0.0295405 -9.39868e-17 3.77236e-17 0.0505815 -0.0263765 0.0350411)
(0.157452 -4.56987e-16 2.23156e-16 0.24702 -0.146543 0.193859)
(0.617973 -2.52951e-15 7.9644e-16 0.971296 -0.486984 0.671457)
(0.960571 3.53759e-15 -2.24857e-15 0.965512 -0.76332 1.04973)
(1.73985 -2.6747e-16 5.16827e-16 1e-15 -0.951171 3.99689)
(1.43401 -1.47695e-16 3.31688e-16 0.753134 -0.371733 3.13776)
(0.307675 -2.47403e-16 -7.84626e-16 0.199487 -0.0619439 0.564719)
(0.0985885 -8.05587e-17 -8.22613e-17 0.0962062 -0.0304861 0.124087)
(0.0576944 -1.94657e-16 3.29813e-17 0.0834544 -0.0398411 0.0635453)
(0.034908 -5.7031e-17 1.44044e-17 0.0591072 -0.0330116 0.0412038)
(0.0191814 3.17523e-17 -5.10509e-18 0.0348913 -0.0210745 0.0247523)
(0.00850297 -3.53095e-17 1.7688e-17 0.0161246 -0.00893348 0.0107875)
(0.00418465 -1.10843e-17 3.38297e-18 0.0077462 -0.00388461 0.0049795)
(0.00439796 1.08706e-17 -3.57966e-18 0.00773123 -0.00399988 0.00518856)
(0.00926942 -3.84526e-17 2.22202e-17 0.0156656 -0.00846885 0.0111022)
(0.0336574 -8.07756e-17 4.9756e-17 0.0557718 -0.0314297 0.0406897)
(0.173518 -6.02018e-16 3.08835e-16 0.268668 -0.163368 0.211913)
(0.666372 -3.51338e-15 6.48191e-16 1.04617 -0.51313 0.712468)
(1.03864 5.46175e-15 -4.02996e-15 1.01005 -0.810371 1.13003)
(1.76383 -1.70289e-16 5.32611e-16 1e-15 -0.98334 4.1299)
(1.225 -1.70821e-16 7.6585e-16 0.628133 -0.311206 2.70141)
(0.237613 -2.00157e-16 -5.61788e-16 0.155905 -0.0436578 0.441603)
(0.0762593 -2.98554e-17 -5.40381e-17 0.0766443 -0.0242539 0.0944293)
(0.0516448 -2.12975e-16 5.53816e-17 0.0773876 -0.0385131 0.0570828)
(0.0344117 -8.85635e-17 2.86429e-17 0.0589036 -0.033521 0.0410167)
(0.020583 6.07487e-17 -2.41665e-17 0.037371 -0.022715 0.0266285)
(0.00986755 -4.8758e-17 2.4828e-17 0.0187751 -0.0101244 0.012419)
(0.00517318 -1.40165e-17 5.25594e-18 0.009937 -0.00460658 0.00607356)
(0.00516491 1.76912e-17 -6.84899e-18 0.00947746 -0.00453683 0.00599331)
(0.0100054 -6.76164e-17 3.42062e-17 0.0172509 -0.00931025 0.011866)
(0.0345832 -1.07117e-16 6.45714e-17 0.0578633 -0.034092 0.0415454)
(0.184932 -4.20877e-16 2.6734e-16 0.289212 -0.177893 0.222104)
(0.695674 -2.60627e-15 5.914e-16 1.10533 -0.532037 0.708082)
(1.00776 5.64723e-15 -3.23054e-15 1.05653 -0.804426 0.996126)
(1.46305 1.95306e-17 1.06348e-16 1e-15 -0.875369 3.59005)
(1.02049 -9.53834e-18 9.07883e-16 0.510791 -0.196509 2.28688)
(0.180198 -1.40061e-16 -4.11262e-16 0.119452 -0.0252977 0.337671)
(0.0561077 -2.915e-17 -2.02019e-17 0.0610467 -0.0210855 0.0678461)
(0.0405863 -1.50681e-16 4.75633e-17 0.0629986 -0.0325579 0.0449949)
(0.0286464 -4.10741e-17 1.45358e-17 0.0495858 -0.0287427 0.0340789)
(0.018023 4.95708e-17 -1.90771e-17 0.0330015 -0.0198482 0.0230537)
(0.00982685 -4.89625e-17 2.26003e-17 0.0183041 -0.0100122 0.0125243)
(0.00780623 -1.7644e-17 8.09123e-18 0.013876 -0.0074034 0.0102431)
(0.0116008 -1.42229e-17 1.29264e-17 0.0189599 -0.0113317 0.0157917)
(0.025588 -1.3419e-16 6.70116e-17 0.0399355 -0.0251022 0.0350328)
(0.0742903 -1.2989e-16 8.57323e-17 0.113954 -0.0680286 0.099846)
(0.261072 -5.07506e-16 3.88333e-16 0.374398 -0.241066 0.344872)
(0.813862 -2.80845e-15 9.59539e-16 1.23923 -0.644555 0.885735)
(1.20878 4.94479e-15 -2.0551e-15 1.45139 -0.932787 1.1395)
(2.32823 6.92423e-17 -3.29288e-16 1e-15 -1.5133 5.6913)
(0.983257 -2.75555e-17 8.18848e-16 0.426704 -0.360381 2.16607)
(0.148693 -9.02064e-17 -1.75548e-16 0.111042 -0.0247316 0.253788)
(0.0508751 -4.21999e-17 1.14054e-18 0.0642811 -0.034517 0.058784)
(0.0428691 -1.08254e-16 4.55129e-17 0.0731797 -0.0437713 0.0501152)
(0.0339076 -1.20014e-17 6.66616e-18 0.0654977 -0.0381658 0.0406792)
(0.0226347 9.01294e-18 -3.61475e-18 0.045974 -0.0230243 0.0268062)
(0.0148142 -4.96891e-17 2.28939e-17 0.0296892 -0.0141351 0.0172116)
(0.012282 -2.437e-17 1.31005e-17 0.0222568 -0.011848 0.0148542)
(0.0150584 -3.56252e-17 2.08825e-17 0.0240461 -0.0156295 0.0189417)
(0.0288067 -8.33825e-17 4.24296e-17 0.0414258 -0.0279533 0.0367576)
(0.0744232 -1.16343e-16 4.58668e-17 0.0957446 -0.0612562 0.093679)
(0.2139 -3.56751e-16 9.85975e-17 0.22476 -0.142251 0.261128)
(0.472582 -2.16711e-16 -1.6417e-16 0.294917 -0.294823 0.631899)
(0.654459 3.2098e-15 -2.5014e-15 0.480204 -0.502446 0.689648)
(0.193144 4.50965e-20 6.76069e-18 0.241412 0.00204026 0.214642)
(0.0928186 1.26807e-19 5.63806e-18 0.097022 0.00893966 0.145128)
(0.107765 -1.28444e-19 5.93674e-18 0.105522 -0.00462272 0.177991)
(0.115813 -1.91952e-19 6.25208e-18 0.111502 -0.0122177 0.189687)
(0.11583 -2.01503e-19 6.04668e-18 0.10929 -0.0140733 0.191836)
(0.0880507 -3.99232e-19 5.75682e-18 0.0799586 -0.0122896 0.153661)
(0.103339 -1.18095e-18 6.26399e-18 0.0929396 -0.0168257 0.178505)
(0.115927 -2.03461e-18 7.05438e-18 0.103046 -0.0220996 0.196254)
(0.123289 -4.2888e-18 7.52993e-18 0.108442 -0.0227302 0.205647)
(0.110741 -9.1933e-18 9.26101e-18 0.0949141 -0.0196572 0.189663)
(0.128391 -1.0071e-17 6.57288e-18 0.114524 -0.0217921 0.20158)
(0.138544 -1.15129e-17 5.33146e-18 0.121227 -0.0235701 0.213967)
(0.129333 -1.35622e-17 9.90097e-18 0.102882 -0.0230883 0.221641)
(0.150821 -1.41171e-17 6.88829e-18 0.12954 -0.0286349 0.220911)
(0.168726 -1.58988e-17 5.8e-18 0.148619 -0.0358751 0.223961)
(0.179948 -1.69008e-17 3.65644e-18 0.158083 -0.0423849 0.22929)
(0.177048 -1.60204e-17 8.82478e-18 0.151383 -0.0404155 0.234128)
(0.19552 -1.06748e-17 3.86036e-18 0.176878 -0.0406998 0.226789)
(0.206693 -8.50357e-18 2.54921e-18 0.187945 -0.0409439 0.226138)
(0.205122 -9.68158e-18 9.12408e-18 0.182357 -0.0424363 0.22593)
(0.22475 -1.08465e-17 3.54408e-18 0.21186 -0.0459878 0.215041)
(0.239653 -1.27127e-17 1.41979e-18 0.231047 -0.0513781 0.21073)
(0.249007 -1.37441e-17 -2.47452e-18 0.240709 -0.0581533 0.210868)
(0.250535 -3.9722e-18 2.23919e-18 0.243593 -0.0541439 0.210822)
(0.26458 3.13789e-18 -6.42646e-18 0.262563 -0.0506581 0.203803)
(0.274102 9.02157e-18 -9.08921e-18 0.272828 -0.0534826 0.20195)
(0.280044 1.17959e-17 -1.0556e-17 0.277664 -0.0562658 0.20234)
(0.277661 1.158e-17 -1.12137e-18 0.274248 -0.0478015 0.200871)
(0.286522 8.76113e-18 -4.44083e-18 0.283291 -0.0407214 0.203366)
(0.290865 8.58292e-18 -2.46039e-18 0.286378 -0.039039 0.202885)
(0.285521 1.38659e-17 6.70724e-18 0.279316 -0.0353334 0.199886)
(0.294781 1.95491e-17 -5.64002e-19 0.290751 -0.0336409 0.200137)
(0.299155 2.39135e-17 -2.14373e-18 0.295676 -0.040424 0.19776)
(0.301486 2.32051e-17 -3.53414e-18 0.298231 -0.0471509 0.195209)
(0.296627 3.01235e-17 3.03977e-18 0.296948 -0.0488263 0.189379)
(0.301629 2.84335e-17 6.47109e-19 0.300812 -0.0480977 0.192586)
(0.302412 2.81874e-17 1.22368e-18 0.300121 -0.050941 0.191481)
(0.29416 3.60657e-17 5.42214e-18 0.291657 -0.0579079 0.186546)
(0.300754 2.99162e-17 3.94852e-18 0.299667 -0.0577427 0.18985)
(0.302849 2.68382e-17 4.57001e-18 0.301889 -0.0641444 0.189811)
(0.304016 2.46407e-17 4.23118e-18 0.303598 -0.0684009 0.188578)
(0.299006 2.36104e-17 7.57224e-18 0.302105 -0.0788657 0.187703)
(0.304922 1.61972e-17 8.73334e-18 0.30908 -0.0745981 0.190017)
(0.306944 1.02431e-17 1.13969e-17 0.310857 -0.0789197 0.190463)
(0.308425 7.24462e-18 1.27936e-17 0.312969 -0.0799081 0.189345)
(0.304671 4.58863e-18 1.68223e-17 0.312964 -0.0915284 0.188258)
(0.310358 2.32001e-18 1.61036e-17 0.32044 -0.0839734 0.1887)
(0.312261 2.66911e-18 1.58355e-17 0.322812 -0.0837524 0.187641)
(0.309751 6.16413e-18 1.87218e-17 0.324304 -0.0982858 0.186387)
(0.314922 8.05254e-18 1.61167e-17 0.330818 -0.0895552 0.187855)
(0.316802 9.09697e-18 1.62548e-17 0.332291 -0.0897845 0.18976)
(0.318351 8.21399e-18 1.65078e-17 0.334476 -0.0874291 0.189791)
(0.317346 7.87027e-18 2.0573e-17 0.338033 -0.0976316 0.189412)
(0.32097 4.52621e-18 1.93183e-17 0.343599 -0.086182 0.190342)
(0.322156 1.67189e-18 2.03649e-17 0.344894 -0.0839393 0.192638)
(0.323127 1.89314e-19 1.9766e-17 0.34668 -0.0801333 0.193088)
(0.322119 -1.34868e-19 2.41224e-17 0.351333 -0.0874088 0.190981)
(0.325196 -1.62814e-18 2.00647e-17 0.356726 -0.0743248 0.190606)
(0.326035 -2.96046e-18 1.84964e-17 0.358321 -0.0697436 0.190488)
(0.325246 -6.55765e-18 2.595e-17 0.364125 -0.0784051 0.186764)
(0.32663 -5.15048e-18 1.96054e-17 0.365195 -0.0635361 0.186265)
(0.325383 -6.50398e-18 1.87183e-17 0.362075 -0.0573109 0.185698)
(0.323304 -1.01351e-17 1.76984e-17 0.358969 -0.0521249 0.183421)
(0.318787 -2.19808e-17 2.41781e-17 0.361519 -0.0541778 0.179275)
(0.310572 -1.66156e-17 1.22619e-17 0.350844 -0.0410897 0.171609)
(0.301133 -1.49189e-17 8.70487e-18 0.339499 -0.035857 0.165014)
(0.289465 -1.27884e-17 1.28882e-17 0.336658 -0.0401292 0.158337)
(0.264516 -1.04832e-17 5.37174e-18 0.307719 -0.0267004 0.140905)
(0.243105 -1.1325e-17 3.20116e-18 0.284803 -0.0222035 0.128054)
(0.224998 -1.07206e-17 1.35448e-18 0.265873 -0.0195582 0.116563)
(0.206053 -1.30032e-17 2.58484e-18 0.254021 -0.0246102 0.110491)
(0.163276 -4.92441e-18 -8.33671e-19 0.205827 -0.0151646 0.085903)
(0.13562 -6.8676e-19 -1.79851e-18 0.176536 -0.0151597 0.072716)
(0.117406 4.57231e-18 -2.06979e-18 0.156498 -0.0150568 0.064794)
(0.103427 1.28865e-17 -3.28627e-18 0.144776 -0.0271398 0.0632498)
(0.0808869 1.46501e-17 4.1426e-18 0.116409 -0.0160791 0.0532223)
(0.0716875 2.20832e-17 8.87824e-18 0.105152 -0.0170261 0.0523835)
(0.066845 6.3486e-17 2.78366e-17 0.10006 -0.0271254 0.0532359)
(0.0602414 9.76571e-17 3.86931e-17 0.0910458 -0.0130903 0.0501213)
(0.0576909 1.4318e-16 5.43958e-17 0.0866968 -0.00952148 0.0485896)
(0.0510469 2.46249e-16 9.10597e-17 0.0659212 0.00322326 0.0386339)
(0.0620001 3.10848e-16 9.33721e-17 0.09879 0.011296 0.0471961)
(0.071647 3.09014e-16 1.84028e-17 0.125146 -0.00145393 0.0690543)
(0.0540579 1.7402e-16 -1.16484e-16 0.0510725 -0.0191971 0.0878431)
(0.0897111 6.89067e-16 -2.0455e-16 0.126841 -0.0662612 0.0984893)
(0.0827536 4.64215e-16 -8.86197e-17 0.125538 -0.0489351 0.0845358)
(0.0767556 1.99546e-16 -3.14041e-17 0.110709 -0.0375076 0.0775375)
(0.0776397 9.05207e-17 -8.58878e-18 0.117793 -0.0377899 0.0796485)
(0.0734147 3.64912e-17 6.49904e-19 0.115759 -0.0426344 0.0762214)
(0.0638839 1.06647e-18 4.20813e-18 0.103063 -0.043864 0.0669923)
(0.0531729 -9.05894e-18 6.35166e-18 0.0900723 -0.0413807 0.0568142)
(0.0439358 -2.46437e-17 8.69621e-18 0.0764806 -0.039041 0.0507012)
(0.0268517 -1.7589e-17 5.83332e-18 0.0415898 -0.0270754 0.033206)
(0.0267836 -3.74191e-17 2.97026e-18 0.0383118 -0.0375089 0.030357)
(0.024824 -2.87686e-17 1.82971e-18 0.0349155 -0.0332706 0.0295117)
(0.0229353 -2.32545e-17 1.18665e-18 0.0310273 -0.0280155 0.0284628)
(0.0218011 -1.58029e-17 7.94396e-19 0.0291999 -0.0244422 0.027752)
(0.0221738 -1.60536e-17 1.519e-18 0.0296807 -0.0245439 0.0286029)
(0.0230424 -1.92249e-17 3.70426e-18 0.0307462 -0.0263321 0.0306888)
(0.023737 -2.42703e-17 7.07258e-18 0.031248 -0.0288378 0.032672)
(0.0240794 -2.82412e-17 1.07532e-17 0.030569 -0.0302323 0.0345117)
(0.0237686 -3.04843e-17 1.75284e-17 0.0291525 -0.0244341 0.0347149)
(0.024105 -2.62164e-17 1.29651e-17 0.0268315 -0.0224876 0.035864)
(0.0250821 -2.38868e-17 1.18001e-17 0.0273642 -0.0228721 0.038115)
(0.0260571 -2.36989e-17 1.19863e-17 0.0280196 -0.0229767 0.0400756)
(0.0271965 -2.38008e-17 1.25998e-17 0.0289897 -0.023349 0.0423858)
(0.0282926 -2.26041e-17 1.23406e-17 0.0300574 -0.0233691 0.0444147)
(0.0292748 -1.96356e-17 1.06168e-17 0.0309421 -0.0230539 0.0459444)
(0.0308124 -1.87031e-17 9.66689e-18 0.0325501 -0.0238147 0.0483531)
(0.0327075 -1.92721e-17 9.98545e-18 0.034461 -0.0251671 0.0516361)
(0.0344244 -1.83931e-17 9.81884e-18 0.0353963 -0.0257853 0.0548352)
(0.0369419 -1.53957e-17 8.58032e-18 0.0376621 -0.0257495 0.0590166)
(0.039016 -1.61875e-17 7.91452e-18 0.0369839 -0.0235212 0.0645986)
(0.0408554 -1.70803e-17 8.68186e-18 0.0381317 -0.024466 0.0682243)
(0.0429301 -1.7775e-17 9.06821e-18 0.0399542 -0.025349 0.0718861)
(0.0451819 -1.87109e-17 9.70575e-18 0.0419241 -0.0263757 0.0759025)
(0.0477404 -1.96039e-17 1.02847e-17 0.0445325 -0.0275134 0.0802661)
(0.0504179 -1.95152e-17 1.0246e-17 0.0473417 -0.0282906 0.0845733)
(0.053069 -1.75378e-17 9.29066e-18 0.0495492 -0.0287955 0.0888568)
(0.0558102 -1.47995e-17 8.4646e-18 0.0507534 -0.0296115 0.0937639)
(0.0601168 -1.0555e-17 7.32134e-18 0.054171 -0.0311737 0.101028)
(0.0652008 -8.14702e-18 5.18311e-18 0.0556153 -0.031114 0.113654)
(0.0681674 -5.84933e-18 4.23511e-18 0.0574127 -0.0322306 0.119349)
(0.0712795 -2.91654e-18 2.49808e-18 0.0600168 -0.0328108 0.124517)
(0.0744964 -3.31959e-18 2.17973e-18 0.0623492 -0.0334664 0.130128)
(0.0782544 -5.5941e-18 2.77149e-18 0.0654552 -0.0345344 0.136608)
(0.0823121 -8.44229e-18 3.41386e-18 0.0686813 -0.0354744 0.14345)
(0.0866961 -1.25836e-17 4.33612e-18 0.0717885 -0.0361686 0.150747)
(0.0907761 -1.97743e-17 5.94182e-18 0.0727021 -0.0355216 0.157655)
(0.0967795 -2.64276e-17 7.38214e-18 0.0762125 -0.0341484 0.167428)
(0.105501 -3.09726e-17 1.70391e-17 0.0782725 -0.0334119 0.188585)
(0.109907 -3.36022e-17 1.84055e-17 0.0795259 -0.0333873 0.19731)
(0.115203 -3.76593e-17 1.99056e-17 0.0831898 -0.0332814 0.206329)
(0.120404 -4.19716e-17 2.13372e-17 0.0858624 -0.0323964 0.215016)
(0.126184 -4.31708e-17 2.13381e-17 0.0893782 -0.0311249 0.224286)
(0.13291 -4.21391e-17 2.06419e-17 0.0938102 -0.030155 0.235083)
(0.140303 -4.00082e-17 1.96754e-17 0.0975146 -0.0289161 0.24712)
(0.148446 -3.62852e-17 1.82853e-17 0.0995474 -0.0272176 0.260733)
(0.161957 -3.03307e-17 1.60372e-17 0.108394 -0.0252019 0.282381)
(0.184139 -3.10865e-17 2.81987e-17 0.111984 -0.0185541 0.334191)
(0.195089 -3.1859e-17 3.00081e-17 0.11662 -0.0168646 0.354697)
(0.209186 -3.36259e-17 3.17245e-17 0.126224 -0.0155051 0.379832)
(0.224838 -3.55285e-17 3.35411e-17 0.13515 -0.013492 0.408704)
(0.243894 -3.79591e-17 3.55553e-17 0.146664 -0.0113406 0.444364)
(0.266222 -4.16135e-17 3.77292e-17 0.158366 -0.00828136 0.487584)
(0.283656 -4.23308e-17 5.58943e-17 0.167148 -0.00658551 0.517641)
(0.305136 -4.00869e-17 8.07467e-17 0.17852 -0.00816686 0.554081)
(0.333199 -3.52346e-17 1.13561e-16 0.193753 -0.0132142 0.600933)
(0.379847 -2.52285e-17 1.63557e-16 0.230021 -0.0211085 0.674411)
(0.492866 9.83877e-18 2.52974e-16 0.260004 -0.0306201 0.936422)
(0.506865 1.95637e-17 2.40205e-16 0.261995 -0.0232114 0.963813)
(0.515424 2.42062e-17 1.95323e-16 0.270812 -0.0186312 0.977041)
(0.520422 2.17265e-17 1.38834e-16 0.271856 -0.0171038 0.98194)
(0.527488 1.60515e-17 6.84653e-17 0.275327 -0.0260633 0.984374)
(0.535914 -6.40055e-18 -2.19898e-17 0.279101 -0.0551387 0.976665)
(0.52305 -4.76094e-17 -9.72689e-17 0.279406 -0.0908275 0.922795)
(0.462282 -6.14395e-17 -9.82102e-17 0.260541 -0.10032 0.79399)
(0.350071 -4.11026e-17 -7.44136e-17 0.218628 -0.072675 0.560124)
(0.289805 -2.40357e-17 -3.62291e-17 0.160097 -0.0695557 0.484706)
(0.185991 -1.57585e-17 -2.01917e-17 0.103498 -0.0329971 0.294187)
(0.0603248 -1.30557e-18 -1.01655e-18 0.0491596 0.00972445 0.0542272)
(0.0553912 1.70207e-19 6.31807e-20 0.0492972 0.00903052 0.038362)
(0.0526335 -3.02896e-19 -2.70205e-19 0.0454379 0.0099457 0.0363416)
(0.0532223 -1.84792e-19 -5.5484e-19 0.0466976 0.010268 0.0372859)
(0.0516336 -4.00666e-19 -8.68762e-19 0.0449203 0.0100001 0.0362896)
(0.0553154 -1.45643e-19 -6.90127e-19 0.0500606 0.0126604 0.0363974)
(0.0542323 -1.51337e-19 -3.94276e-19 0.0501841 0.0133488 0.0334282)
(0.0572166 -5.50238e-19 -5.41682e-19 0.0518425 0.0146472 0.0345922)
(0.0607986 -1.03498e-18 -7.83523e-19 0.0559895 0.0160578 0.0365402)
(0.0590714 -1.17838e-18 -9.62099e-19 0.0541273 0.0168205 0.035419)
(0.0600735 -1.21059e-18 -1.1063e-18 0.0539417 0.0174714 0.0360393)
(0.0624615 -1.25604e-18 -1.26741e-18 0.057209 0.0184011 0.0375603)
(0.0602824 -1.1484e-18 -1.39001e-18 0.0548379 0.0194685 0.0368023)
(0.062271 -4.83038e-19 -7.8848e-19 0.0579794 0.017121 0.0363782)
(0.0602941 -2.32702e-19 -4.29484e-19 0.0565804 0.0164162 0.0348946)
(0.0603847 -2.23315e-19 -4.91106e-19 0.0557262 0.0166482 0.0351303)
(0.0623585 8.01876e-20 -4.85582e-19 0.0587008 0.0173612 0.0363027)
(0.0598329 8.07788e-19 -2.54038e-19 0.0559438 0.0185685 0.0354197)
(0.0616436 -1.33126e-18 -4.49149e-19 0.058903 0.0158217 0.0350086)
(0.0596351 -2.34519e-18 -6.66698e-19 0.0573693 0.0154683 0.033652)
(0.0594331 -2.09148e-18 -7.30525e-19 0.0562629 0.0153828 0.0337262)
(0.0605357 -1.85377e-18 -8.29085e-19 0.0582795 0.0156378 0.0344132)
(0.0580314 -1.60026e-18 -8.27769e-19 0.0554545 0.0167338 0.0333037)
(0.0571752 -1.48867e-18 -9.89773e-19 0.0535055 0.0168872 0.0332865)
(0.0578577 -1.76814e-18 -1.21348e-18 0.0550295 0.017088 0.0339319)
(0.0551877 -1.35065e-18 -1.19218e-18 0.052109 0.0182979 0.0329435)
(0.0553241 -2.91959e-19 -4.86686e-19 0.0526275 0.0155675 0.0330476)
(0.0527666 -7.10546e-19 -7.07419e-19 0.0500187 0.0154995 0.0319086)
(0.0515618 -5.95688e-19 -7.89182e-19 0.0478013 0.0154582 0.0319109)
(0.0519134 -1.77045e-19 -6.54015e-19 0.048857 0.0157218 0.0325731)
(0.0491746 7.50054e-20 -6.47004e-19 0.0457923 0.0168245 0.0316463)
(0.0491895 2.87449e-19 -3.65391e-19 0.0460698 0.0143398 0.0318283)
(0.0468419 4.60994e-19 -3.03568e-19 0.0436433 0.0142184 0.0308271)
(0.0459603 4.52108e-19 -3.50842e-19 0.0418098 0.0143081 0.0310059)
(0.04666 3.32139e-19 -3.98002e-19 0.0430888 0.0147463 0.031877)
(0.0446043 5.76574e-19 -3.97183e-19 0.0407563 0.0157878 0.0312024)
(0.0441272 8.30213e-19 -2.88896e-19 0.0392588 0.0161439 0.0317646)
(0.0451004 8.45551e-19 -9.79421e-20 0.0406326 0.0165297 0.0330489)
(0.0429488 8.82385e-19 -7.29189e-20 0.0380276 0.017644 0.0325497)
(0.0435275 6.6318e-19 1.05225e-20 0.0385052 0.0154978 0.033315)
(0.0417353 5.32362e-19 -3.94353e-20 0.0365872 0.015655 0.0326444)
(0.0418002 4.0463e-19 8.99786e-20 0.035653 0.0158011 0.0335702)
(0.0433341 7.53281e-19 4.23612e-19 0.0373806 0.0161194 0.0353794)
(0.0414327 9.38456e-19 6.81187e-19 0.0349486 0.0170991 0.0349984)
(0.0423503 -4.74203e-19 3.95992e-19 0.0355224 0.0148737 0.0360917)
(0.0404855 -1.00164e-18 2.21393e-19 0.0334146 0.014884 0.0354487)
(0.0409038 -9.45549e-19 4.06639e-19 0.0326475 0.0149487 0.0370331)
(0.0432689 -9.93536e-19 6.21094e-19 0.0352781 0.0152403 0.0391144)
(0.0419502 -1.1594e-18 6.76321e-19 0.0335628 0.0160688 0.0389499)
(0.0431021 -1.10364e-18 7.76265e-19 0.0333914 0.0162174 0.0414126)
(0.0462952 -1.02554e-18 8.65266e-19 0.0368409 0.0162363 0.04424)
(0.0455018 -1.17056e-18 8.914e-19 0.0360383 0.0170155 0.0440391)
(0.047754 -2.49788e-19 1.05442e-18 0.0382043 0.0144976 0.0446856)
(0.046407 3.57903e-19 1.53671e-18 0.0375812 0.0141685 0.0423563)