/*--------------------------------*- C++ -*----------------------------------*\
| =========                 |                                                 |
| \\      /  F ield         | OpenFOAM: The Open Source CFD Toolbox           |
|  \\    /   O peration     | Version:  4.1                                   |
|   \\  /    A nd           | Web:      www.OpenFOAM.org                      |
|    \\/     M anipulation  |                                                 |
\*---------------------------------------------------------------------------*/
FoamFile
{
    version     2.0;
    format      ascii;
    class       volVectorField;
    location    "2";
    object      U;
}
// * * * * * * * * * * * * * * * * * * * * * * * * * * * * * * * * * * * * * //

dimensions      [0 1 -1 0 0 0 0];

internalField   nonuniform List<vector> 
6785
(
(1.58017e-14 0.696457 15.704)
(1.25493e-14 -5.10948 12.032)
(-3.22687e-15 -4.28063 12.1706)
(3.76624e-15 -3.72139 12.0103)
(1.01413e-15 -3.12196 11.8911)
(-8.00645e-16 -2.66979 11.7109)
(3.52995e-15 -2.32241 11.4886)
(-1.13038e-16 -2.08091 11.2204)
(-7.25743e-16 -1.91837 10.9192)
(4.78387e-15 -1.82847 10.5914)
(3.98246e-16 -1.92916 10.1755)
(-8.89463e-16 -2.37171 9.5731)
(1.07197e-15 -2.68696 8.97513)
(-4.95567e-16 -1.33159 8.92133)
(-1.95893e-15 1.70973 7.62681)
(2.53743e-14 -5.58379 22.2438)
(2.31176e-14 -14.7831 21.3334)
(5.98333e-16 -13.3778 20.4931)
(7.50735e-16 -11.9704 19.6326)
(4.24914e-15 -11.3193 18.6371)
(-1.15416e-15 -10.7967 17.6545)
(1.20181e-14 -10.229 16.7024)
(2.57416e-15 -9.66292 15.7498)
(-7.05394e-16 -9.09806 14.7883)
(6.31169e-17 -8.4913 13.8198)
(4.23896e-15 -7.85876 12.8499)
(-5.3199e-16 -7.38527 11.8669)
(-2.3265e-15 -7.11215 10.7896)
(2.05439e-15 -5.77248 9.04841)
(-2.65428e-15 -1.77738 4.76419)
(2.00103e-14 -7.97669 22.3669)
(2.6489e-14 -17.0323 24.7761)
(1.99082e-15 -14.1682 24.0586)
(1.68368e-15 -12.6961 22.8024)
(4.85708e-15 -11.9721 21.4322)
(-2.12606e-15 -11.1445 20.1841)
(6.07704e-15 -10.2467 18.9621)
(6.79579e-15 -9.36428 17.7231)
(-1.55014e-15 -8.50136 16.4688)
(1.34978e-15 -7.62888 15.2299)
(4.31407e-15 -6.73812 14.011)
(-5.78206e-16 -5.86619 12.5705)
(-3.42641e-15 -4.85268 10.2826)
(-7.35091e-15 -3.06211 6.54579)
(-3.66115e-15 -0.552993 1.79045)
(2.32275e-14 -8.27873 18.0041)
(2.12036e-14 -16.6426 24.6042)
(6.50974e-15 -13.6319 24.1887)
(8.16313e-15 -12.447 22.4285)
(9.19855e-16 -11.7433 20.8674)
(-7.07382e-15 -10.8036 19.5041)
(1.0767e-15 -9.87155 18.1458)
(-9.8392e-16 -9.0079 16.7687)
(1.48882e-14 -8.21549 15.3881)
(-4.02248e-15 -7.46008 14.0402)
(2.40988e-16 -6.63623 12.6726)
(-5.81105e-15 -5.55765 10.8811)
(-5.55675e-15 -3.94016 7.85653)
(-2.12874e-14 -1.67134 3.08083)
(-2.67177e-14 0.225171 -1.84198)
(1.80747e-14 -7.35532 13.7733)
(2.34105e-14 -15.4291 23.8364)
(4.20913e-15 -13.6824 24.2752)
(-5.92941e-15 -12.7543 22.1792)
(-1.01365e-14 -12.1213 20.4511)
(-2.35301e-15 -11.2292 19.042)
(-9.73266e-16 -10.3755 17.6308)
(-1.80726e-14 -9.5933 16.1989)
(-4.93333e-15 -8.87367 14.7754)
(-4.8694e-15 -8.19945 13.3843)
(-1.22867e-14 -7.46458 11.9796)
(-2.89789e-15 -6.42662 10.2567)
(-8.33769e-15 -4.78291 7.61126)
(-4.93598e-14 -2.72787 3.81693)
(-4.06575e-14 -0.914755 0.76166)
(2.99243e-14 -6.13617 11.0172)
(1.61786e-14 -14.1906 22.9669)
(8.83754e-15 -13.9896 24.4849)
(1.78387e-15 -13.2549 22.4973)
(-9.4685e-15 -12.5519 20.6845)
(4.1055e-15 -11.647 19.2577)
(-3.9896e-15 -10.8063 17.8444)
(-7.65993e-15 -10.0315 16.4116)
(6.00452e-16 -9.28347 14.9983)
(-8.80501e-15 -8.56156 13.6208)
(-1.44167e-14 -7.80778 12.2364)
(-1.70773e-14 -6.81242 10.6226)
(-8.33529e-15 -5.23612 8.32689)
(-3.06886e-14 -3.3362 5.12254)
(-1.5515e-14 -1.1 2.34314)
(2.59902e-14 -5.18317 9.25232)
(1.99902e-14 -13.182 22.0212)
(1.50848e-14 -14.1889 24.3945)
(2.70602e-15 -13.5925 22.8414)
(1.30478e-15 -12.7583 21.0402)
(8.96265e-15 -11.7878 19.6008)
(-2.46075e-15 -10.9199 18.1959)
(1.54894e-16 -10.114 16.7749)
(6.19413e-15 -9.30715 15.3822)
(-4.15551e-15 -8.51126 14.0291)
(-5.78258e-15 -7.71355 12.6653)
(4.98186e-15 -6.7489 11.0843)
(-8.00751e-15 -5.21832 8.90003)
(-2.2642e-14 -3.58587 5.88195)
(1.18227e-14 -1.17012 3.43872)
(1.48212e-14 -4.55058 8.06018)
(2.15859e-14 -12.4109 21.1561)
(1.75744e-14 -14.2144 24.0191)
(4.51625e-15 -13.7248 23.0039)
(2.34579e-15 -12.8004 21.2836)
(7.8796e-15 -11.7767 19.8283)
(5.15768e-15 -10.8956 18.4163)
(2.78543e-15 -10.0734 16.9964)
(3.265e-15 -9.23282 15.6135)
(-2.79885e-15 -8.39708 14.2726)
(-2.92148e-15 -7.58045 12.912)
(-6.45057e-17 -6.64812 11.3073)
(1.98011e-15 -5.12517 9.11758)
(-1.65803e-14 -3.81905 6.12455)
(1.7393e-14 -1.29978 4.05294)
(1.52684e-14 -4.11872 7.23651)
(2.27418e-14 -11.8269 20.4408)
(1.24546e-14 -14.1472 23.5899)
(7.90517e-15 -13.7446 23.0608)
(1.01482e-15 -12.79 21.4414)
(-2.83103e-15 -11.7463 19.9693)
(1.59326e-15 -10.8746 18.5395)
(-4.97886e-16 -10.0532 17.114)
(-5.2347e-15 -9.20104 15.7318)
(-1.51498e-15 -8.3529 14.3919)
(-1.75537e-15 -7.53422 13.023)
(-1.6656e-14 -6.63204 11.3723)
(9.07056e-16 -5.07438 9.14611)
(-1.47601e-14 -3.96955 6.11598)
(-2.97435e-14 -1.34958 4.27273)
(4.90627e-16 -3.8805 6.7116)
(1.97044e-14 -11.3857 19.8581)
(3.9623e-15 -14.0258 23.2458)
(-2.23132e-15 -13.6995 23.1048)
(-7.5603e-16 -12.7529 21.5754)
(-2.30842e-15 -11.7128 20.0868)
(-1.36725e-14 -10.8608 18.6358)
(-9.71832e-16 -10.045 17.203)
(6.45605e-16 -9.19219 15.818)
(-1.70759e-14 -8.34556 14.4736)
(-2.97665e-16 -7.5305 13.091)
(1.64655e-14 -6.65313 11.3837)
(-3.6491e-14 -5.02678 9.11948)
(-3.11091e-15 -4.09125 6.08098)
(-3.59997e-14 -1.38303 4.46565)
(-2.426e-14 -3.75949 6.37)
(1.48842e-14 -11.0353 19.3878)
(-2.46773e-15 -13.8721 23.0217)
(-1.20432e-14 -13.6187 23.1935)
(-9.2265e-15 -12.7064 21.7321)
(-8.96928e-15 -11.6857 20.2206)
(-1.54327e-16 -10.8558 18.7407)
(-3.79265e-16 -10.0432 17.2925)
(-1.74719e-14 -9.18853 15.8924)
(-3.28601e-14 -8.34059 14.5296)
(1.85224e-14 -7.51712 13.1266)
(-2.35085e-14 -6.66446 11.3535)
(-1.28567e-15 -4.93337 9.05932)
(-4.37232e-14 -4.1759 6.01625)
(-4.30863e-14 -1.43365 4.65927)
(-3.75334e-15 -3.75196 6.23005)
(3.82004e-14 -10.7243 19.0805)
(-9.2944e-15 -13.6129 22.87)
(5.76446e-15 -13.3742 23.2388)
(8.16407e-15 -12.5015 21.8195)
(-2.79559e-14 -11.5158 20.3057)
(-1.37779e-15 -10.7101 18.8215)
(-3.27454e-16 -9.89955 17.3836)
(-2.51709e-14 -9.05985 16.001)
(-7.91722e-15 -8.23863 14.6529)
(-7.416e-15 -7.4335 13.227)
(-4.41777e-14 -6.53796 11.37)
(-5.24349e-15 -4.81629 9.01303)
(-5.99813e-14 -4.2102 6.09883)
(-5.71198e-14 -1.47687 4.94286)
(-2.32728e-15 -3.98249 6.78532)
(2.31347e-14 -10.6801 19.0761)
(3.84166e-16 -13.5867 22.9622)
(2.98467e-15 -13.3864 23.4714)
(9.43929e-15 -12.5613 21.9927)
(-1.77964e-14 -11.5833 20.3915)
(-6.80699e-15 -10.7682 18.805)
(1.30651e-15 -9.91368 17.2735)
(-2.86137e-14 -9.00708 15.7578)
(-7.36812e-15 -8.0951 14.2673)
(-4.43185e-15 -7.18138 12.7216)
(-5.00936e-14 -6.17516 10.6897)
(-2.08027e-14 -4.28378 8.12781)
(-4.59063e-14 -3.62114 5.15964)
(-4.93078e-14 -1.19067 4.27346)
(-2.41552e-14 -3.8418 6.38472)
(1.44064e-14 -9.92758 18.7801)
(-9.48932e-15 -12.4223 22.7362)
(-4.38184e-15 -12.1951 23.1819)
(-3.24274e-16 -11.5098 21.9468)
(-1.47375e-14 -10.7263 20.5597)
(4.47365e-16 -10.0435 19.2329)
(5.02712e-15 -9.34129 17.9436)
(-2.25904e-14 -8.69782 16.7819)
(-3.13978e-15 -8.1332 15.635)
(-1.33904e-14 -7.56759 14.2446)
(-3.85075e-14 -6.75529 12.2333)
(-1.76e-14 -5.09267 9.56657)
(-4.09843e-14 -4.67734 6.22874)
(-4.66724e-14 -1.65854 5.04665)
(-1.95901e-14 -7.52911 18.2879)
(9.22052e-15 -13.737 25.9666)
(-9.18427e-15 -14.8919 26.9707)
(-6.38424e-15 -13.754 25.583)
(-6.925e-15 -12.2722 22.4979)
(-8.94589e-15 -10.7213 20.1245)
(-1.33494e-15 -9.35932 17.6168)
(-9.85636e-15 -7.9967 15.5087)
(-1.78689e-14 -6.60423 13.0239)
(-1.77621e-14 -5.12054 10.2526)
(-3.07008e-14 -3.46855 7.23572)
(-3.36352e-14 -2.10494 4.86305)
(-3.35019e-14 -1.06236 4.10621)
(-5.00218e-14 -0.887384 3.6981)
(-3.1394e-14 0.0445174 1.75972)
(-3.95329e-16 0.124946 -0.427434)
(-6.45075e-16 0.263694 -4.91144)
(-4.65342e-16 0.799393 -3.78073)
(-4.44857e-16 1.17413 -2.70844)
(-4.26785e-16 1.09939 -1.44446)
(-6.31856e-16 1.70349 -2.26493)
(-4.66739e-16 1.68467 -1.80322)
(-3.25918e-16 2.03122 -1.48416)
(-5.34251e-16 1.96565 -0.827972)
(2.00322e-15 2.4309 -1.41699)
(2.33126e-15 2.41934 -1.0438)
(2.21835e-15 2.46119 -0.642077)
(2.53313e-15 3.29895 -0.986438)
(1.94723e-15 2.92265 -0.709096)
(1.91818e-15 3.13356 -0.45616)
(1.79623e-15 3.04246 0.0164792)
(3.27929e-15 3.58091 0.388089)
(2.57947e-15 3.2549 0.285122)
(2.284e-15 3.24387 0.624335)
(2.81808e-15 4.04683 1.29347)
(2.18139e-15 3.46708 0.977522)
(2.75391e-15 3.57882 1.19866)
(4.22372e-15 3.41911 1.56114)
(3.79422e-15 3.91498 2.54467)
(2.80757e-15 3.31598 1.83078)
(2.96356e-15 3.45287 1.9128)
(2.39622e-15 3.28138 2.12502)
(2.49548e-15 3.62603 3.01021)
(2.10356e-15 3.12527 1.97036)
(2.28993e-15 3.11707 2.02487)
(2.73e-15 3.66283 2.66807)
(2.35515e-15 3.01408 1.70888)
(2.09088e-15 3.1117 1.56162)
(1.88894e-15 2.97271 1.55203)
(2.39243e-15 3.20705 2.04195)
(1.88996e-15 2.609 1.07971)
(1.78791e-15 2.63118 1.04484)
(1.69589e-15 3.37755 1.41675)
(1.13091e-15 2.46897 0.674842)
(1.23057e-15 2.67583 0.527228)
(1.15645e-15 2.57044 0.491588)
(5.48354e-16 3.07887 0.805587)
(2.49131e-16 2.09872 0.212408)
(6.55946e-17 2.40789 0.110107)
(-6.88266e-17 2.30338 0.0997762)
(-8.91235e-16 3.05849 0.351535)
(-6.58687e-16 1.95938 -0.0748421)
(-5.35718e-16 2.00169 -0.0569982)
(-1.84789e-16 3.29256 0.179453)
(-2.29171e-16 1.92481 -0.0794673)
(-4.36231e-16 2.23708 -0.0947916)
(-4.90516e-16 2.16222 -0.0704043)
(-7.51148e-16 3.01511 0.210563)
(-5.04921e-16 1.76336 0.0330863)
(-5.3719e-16 2.08467 0.0834328)
(1.31739e-16 2.00024 0.132019)
(2.21188e-16 2.94945 0.540417)
(-4.14992e-16 1.64881 0.431436)
(-5.00969e-17 1.69803 0.480057)
(8.00279e-16 3.02105 1.04673)
(5.58932e-16 1.56206 0.887848)
(5.13862e-16 1.80234 1.01645)
(3.63866e-16 1.75396 1.1075)
(3.10194e-15 2.42362 1.77454)
(2.93707e-15 1.25409 1.55552)
(2.67049e-15 1.31999 1.62536)
(3.16722e-15 2.13736 2.30335)
(1.10756e-15 0.965727 1.94878)
(9.43283e-16 1.04091 2.05652)
(8.65945e-16 1.0064 2.15773)
(1.11751e-15 1.19407 2.5222)
(9.3875e-16 0.482699 2.10756)
(1.72003e-16 0.383394 2.17113)
(-8.76993e-16 0.261064 2.32921)
(-6.92524e-15 0.724868 2.23027)
(-6.82779e-15 -0.530522 2.42754)
(-6.89328e-15 0.964269 2.44275)
(-8.12222e-15 -0.250369 2.01801)
(-5.35536e-15 2.05896 2.73023)
(-5.5924e-15 -1.50063 1.43984)
(-8.83972e-15 -0.45517 -0.327152)
(-9.15717e-15 0.157393 -1.60264)
(-7.89491e-15 -0.663259 -2.25249)
(8.08838e-15 -3.10227 -3.03434)
(-1.52398e-14 1.72375 -0.714693)
(-1.97228e-14 0.153824 -0.657979)
(-2.29485e-14 0.684975 -0.578988)
(-2.44266e-14 1.38623 -0.614167)
(-2.46496e-14 1.86479 -0.621129)
(-2.40967e-14 1.99857 -0.57554)
(-2.30349e-14 2.38708 -0.39994)
(-2.22321e-14 1.1016 -0.1852)
(-1.65867e-14 -3.2969 5.04656)
(-1.81589e-14 0.495551 6.86878)
(-1.82425e-14 -0.479822 7.26862)
(-1.86755e-14 -0.306726 7.42172)
(-1.8791e-14 -0.20216 7.70631)
(-1.92859e-14 -0.0444422 7.834)
(-1.97097e-14 -0.0320791 8.07405)
(-2.01166e-14 -0.193339 8.35744)
(-2.00566e-14 -0.953768 8.75649)
(-2.4109e-14 -2.93276 13.2558)
(-1.35608e-14 -2.58441 12.5629)
(-1.29366e-14 -2.83478 12.9828)
(-1.26654e-14 -2.9152 13.202)
(-1.22827e-14 -2.93425 13.5194)
(-1.12815e-14 -2.91436 14.0184)
(-1.00022e-14 -2.9241 14.572)
(-9.94584e-15 -2.84227 14.7441)
(-9.5652e-15 -3.03502 15.069)
(-9.05105e-15 -3.5352 15.4208)
(-5.88564e-15 -3.41992 18.6343)
(-8.38352e-15 -4.76978 17.7003)
(-8.11747e-15 -4.73259 18.0622)
(-8.10579e-15 -4.82136 18.288)
(-7.98087e-15 -4.82691 18.5736)
(-7.77421e-15 -4.74268 18.9124)
(-7.00821e-15 -4.74161 19.4863)
(-6.6366e-15 -4.8581 19.8143)
(-6.39045e-15 -5.31123 20.0529)
(-4.40183e-15 -4.22484 21.8386)
(-5.34527e-15 -6.12886 20.8007)
(-4.64614e-15 -5.94519 21.3045)
(-4.08672e-15 -6.0265 21.6763)
(-4.4841e-15 -5.92187 21.839)
(-4.71657e-15 -5.8926 22.0885)
(-5.04825e-15 -5.85939 22.3546)
(-5.50016e-15 -5.98462 22.6966)
(-6.5711e-15 -6.47892 23.3052)
(-6.31544e-15 -4.31898 23.8536)
(-5.15284e-15 -6.89 23.1312)
(-5.17941e-15 -6.57501 23.3624)
(-5.1621e-15 -6.59416 23.5458)
(-5.06318e-15 -6.54647 23.916)
(-4.99979e-15 -6.43009 24.0343)
(-4.92529e-15 -6.35026 24.0604)
(-4.7908e-15 -6.46937 24.0881)
(-4.61918e-15 -6.70487 24.0733)
(-2.97417e-15 -4.22437 24.0954)
(-3.01724e-15 -6.99797 23.8264)
(-3.07585e-15 -6.49407 23.6344)
(-3.13459e-15 -6.49884 23.4479)
(-3.19268e-15 -6.30814 23.1859)
(-3.25033e-15 -6.18312 22.8881)
(-3.51103e-15 -6.1783 22.6373)
(-3.36316e-15 -5.99204 21.9302)
(-3.14085e-15 -5.91473 21.1355)
(-2.84334e-15 -5.68607 20.1579)
(-9.73806e-16 -3.57188 16.6778)
(-3.74845e-16 -5.86114 16.7855)
(-5.27803e-17 -5.19463 15.496)
(-7.13845e-16 -5.23615 14.3995)
(-1.28757e-15 -4.99846 13.0061)
(-2.1444e-15 -4.92394 11.3532)
(-4.0641e-15 -4.63578 9.14552)
(-5.79097e-15 -4.06384 6.89021)
(-4.54663e-15 -3.66473 5.64142)
(-1.19664e-15 -3.14863 1.42429)
(-2.68719e-15 -4.72075 2.25706)
(-1.56421e-15 -4.1432 0.27632)
(1.87998e-15 -2.51201 -4.38786)
(-7.20651e-16 -5.73874 -1.86327)
(4.40622e-16 -4.91088 -2.15017)
(4.30379e-16 -4.22254 -1.65302)
(7.70393e-16 -5.12763 -1.97535)
(6.8077e-16 -3.61734 -0.82348)
(7.65526e-16 -4.83277 -1.09825)
(6.17638e-16 -4.05594 -0.418575)
(4.74688e-16 -3.295 -0.411718)
(6.59174e-16 -4.3267 -0.47908)
(6.82067e-16 -3.7667 -0.28774)
(6.02966e-16 -3.12254 -0.225753)
(8.36265e-16 -4.09257 -0.258764)
(6.69776e-16 -2.82608 -0.149495)
(7.9608e-16 -3.92825 -0.207967)
(5.69358e-16 -3.36195 -0.136318)
(8.02073e-16 -2.79948 -0.0813206)
(1.04484e-15 -3.70275 -0.10638)
(2.97019e-16 -2.57843 -0.0662611)
(6.48136e-16 -3.62845 -0.076788)
(6.28862e-16 -3.21464 -0.0758387)
(5.14407e-16 -2.62848 -0.0740892)
(8.44936e-16 -3.53895 -0.0772072)
(-4.59845e-16 -3.20549 -0.0924747)
(1.55414e-16 -2.66684 -0.0741901)
(4.32188e-16 -3.55736 -0.0796995)
(2.38366e-16 -2.50987 -0.0762141)
(-2.01576e-16 -3.50476 -0.0726183)
(2.26974e-16 -3.12517 -0.102867)
(1.88945e-16 -2.60187 -0.0858319)
(2.43957e-16 -3.46834 -0.0924545)
(1.2327e-16 -2.43936 -0.0927047)
(1.99856e-16 -3.41402 -0.085203)
(-4.85817e-16 -3.02776 -0.12042)
(-3.62354e-17 -2.46078 -0.113162)
(-1.12014e-16 -3.30922 -0.121614)
(3.44822e-16 -2.97548 -0.15191)
(3.93782e-17 -2.46363 -0.134195)
(-2.72814e-17 -3.28222 -0.155469)
(-7.80172e-17 -2.30098 -0.151627)
(-1.23193e-16 -3.2056 -0.167678)
(1.81236e-17 -2.83748 -0.19734)
(1.95618e-16 -2.34142 -0.181779)
(1.21038e-16 -3.13197 -0.213682)
(-1.32294e-16 -2.16868 -0.201683)
(-1.55749e-16 -3.04169 -0.22941)
(5.11727e-16 -2.67636 -0.255136)
(8.99872e-17 -2.14835 -0.238913)
(2.354e-17 -2.89977 -0.291969)
(3.71843e-17 -2.57917 -0.302663)
(6.23916e-17 -2.09671 -0.267426)
(-2.22601e-16 -2.8211 -0.336648)
(2.09895e-16 -1.92424 -0.289852)
(2.84784e-16 -2.69408 -0.372015)
(5.69243e-17 -2.34957 -0.359987)
(1.84976e-17 -1.89893 -0.309747)
(1.31515e-16 -2.55919 -0.397741)
(-1.16352e-16 -1.72997 -0.323564)
(-8.69063e-17 -2.415 -0.432313)
(-7.96953e-17 -2.08358 -0.395983)
(-4.7829e-17 -1.62509 -0.340016)
(7.59081e-17 -2.18561 -0.460499)
(-1.48752e-16 -1.8833 -0.414438)
(6.35675e-17 -1.45693 -0.361431)
(-1.19814e-16 -2.0153 -0.467919)
(8.41576e-17 -1.27709 -0.35416)
(7.40778e-17 -1.79516 -0.481097)
(2.22688e-16 -1.48963 -0.378257)
(-1.22445e-17 -1.09647 -0.370514)
(4.22515e-17 -1.64559 -0.468429)
(1.37207e-17 -0.998831 -0.358652)
(-1.04773e-16 -1.43256 -0.475762)
(-1.56051e-16 -1.14039 -0.339623)
(4.33542e-17 -0.748516 -0.310141)
(-1.41177e-16 -1.23571 -0.405621)
(-2.03198e-17 -1.0537 -0.303638)
(-2.95029e-17 -0.671335 -0.330895)
(-5.03736e-17 -1.16368 -0.319326)
(-1.35989e-17 -0.999612 -0.406826)
(-7.08949e-18 -1.19459 -0.51814)
(-6.33646e-17 0.254963 2.13485)
(-8.05993e-17 2.79673 2.76781)
(-8.72314e-17 3.0617 3.04861)
(-9.07717e-17 2.9608 3.0536)
(-9.35645e-17 3.0033 2.70596)
(-9.75033e-17 3.36439 2.43591)
(-1.01954e-16 3.63206 2.32781)
(-1.04986e-16 3.61719 2.37985)
(-1.07445e-16 3.43852 2.50943)
(-1.0915e-16 3.36659 2.47924)
(-1.09848e-16 3.29738 2.32511)
(-1.09339e-16 3.12752 2.24025)
(-1.07172e-16 2.85231 2.19878)
(-1.02991e-16 2.63299 1.97767)
(-9.62019e-17 2.32922 1.61307)
(-8.64127e-17 1.50514 1.47845)
(-7.39225e-17 0.273477 1.31362)
(-5.97954e-17 -1.19511 0.855369)
(-4.56917e-17 -4.59423 -0.933343)
(-4.34003e-17 -1.30032 0.635348)
(-3.17498e-17 -3.94453 -1.25423)
(-2.88441e-17 -1.63071 0.085685)
(-1.59805e-17 -4.61486 -0.99544)
(-1.25155e-17 -2.87167 -0.355154)
(-9.29757e-18 -3.59583 -1.75875)
(-3.52232e-18 -3.48217 -0.939868)
(2.20332e-19 -2.82599 -1.02858)
(9.7069e-19 -2.77016 -1.31499)
(-1.65825e-19 -2.31105 -0.965509)
(-1.35066e-18 -2.22318 -0.530565)
(-1.63608e-18 -2.20818 -0.446031)
(-1.21382e-18 -0.669507 0.46436)
(-1.52319e-18 -1.698 0.708211)
(-1.96251e-18 -0.696495 0.727391)
(-3.56871e-18 1.1719 0.268463)
(-3.40267e-18 -1.63647 1.20105)
(-7.54585e-18 -4.74684 2.27415)
(-1.48731e-17 -8.87827 3.79614)
(2.19531e-17 -13.5822 5.04716)
(1.31758e-16 -15.7796 5.97167)
(-1.26629e-15 -4.45506 6.65402)
(-5.98867e-15 6.98595 5.5019)
(-5.21198e-15 -1.32019 9.89719)
(-5.48702e-15 -5.15539 9.72635)
(-5.74119e-15 -7.21546 9.84211)
(-5.77611e-15 -8.89212 10.2344)
(-5.55108e-15 -10.5259 10.1258)
(-4.91208e-15 -11.6129 9.6333)
(-3.93348e-15 -12.1305 8.68362)
(-2.84734e-15 -11.9836 7.4988)
(-1.85107e-15 -11.2673 6.30957)
(-7.92717e-16 -9.7448 5.00974)
(2.8257e-16 -6.54752 3.60396)
(2.19859e-16 -2.24233 3.56756)
(-4.84479e-16 -2.27561 5.25581)
(7.92562e-17 -2.75122 5.82981)
(8.83311e-16 -2.12695 6.38749)
(1.60988e-15 -1.22971 7.7601)
(2.09115e-15 -0.401574 9.18164)
(2.12797e-15 0.406579 9.40072)
(2.1682e-15 1.73002 9.36885)
(2.23056e-15 2.87718 9.18101)
(2.29726e-15 3.86858 8.82339)
(2.36852e-15 4.64451 8.34037)
(2.44041e-15 5.16905 7.77446)
(2.50834e-15 5.50785 7.1616)
(2.56464e-15 5.69717 6.52672)
(2.59552e-15 5.78087 5.88522)
(2.58081e-15 5.74483 5.21745)
(2.49855e-15 5.56312 4.50838)
(2.33754e-15 5.35191 3.6689)
(2.11179e-15 4.92913 2.83227)
(1.86691e-15 4.19355 2.07463)
(1.64051e-15 3.16741 1.1763)
(1.34536e-15 1.14913 0.35956)
(6.62863e-16 -0.947611 0.0444976)
(8.50837e-17 -2.08855 -0.819394)
(-1.68258e-17 -2.34642 -0.998075)
(1.94094e-17 -1.68425 -0.932856)
(-6.91744e-17 0.867282 2.57917)
(-8.47881e-17 2.60074 2.79682)
(-9.03174e-17 2.5615 3.14589)
(-9.4213e-17 2.4997 3.22249)
(-9.78534e-17 2.63737 2.89706)
(-1.01727e-16 2.87778 2.55226)
(-1.05021e-16 2.90537 2.45507)
(-1.07826e-16 3.11727 2.52565)
(-1.1027e-16 3.15149 2.55949)
(-1.11999e-16 3.03494 2.54884)
(-1.12498e-16 2.90995 2.38588)
(-1.11768e-16 2.80668 2.27623)
(-1.0931e-16 2.51959 2.22285)
(-1.04674e-16 2.20558 2.02998)
(-9.73235e-17 1.7915 1.68836)
(-8.69524e-17 1.19599 1.52719)
(-7.39013e-17 -0.152841 1.32207)
(-5.92855e-17 -2.11376 0.830234)
(-4.51972e-17 -5.85123 -0.896457)
(-4.27906e-17 -2.14599 -0.0610789)
(-3.18976e-17 -4.31934 -1.31738)
(-2.9123e-17 -3.05252 -0.149505)
(-1.65932e-17 -4.82043 -0.909138)
(-1.25675e-17 -3.49973 -0.15626)
(-9.40491e-18 -4.02814 -1.24689)
(-3.52029e-18 -3.66565 -0.686221)
(2.25792e-19 -2.89132 -0.829794)
(9.86017e-19 -2.68169 -1.1491)
(-8.48657e-20 -2.03193 -0.936086)
(-1.30115e-18 -1.85212 -0.567988)
(-1.63741e-18 -1.76378 -0.518511)
(-1.23464e-18 0.182547 0.352522)
(-1.52994e-18 -1.16884 0.704364)
(-1.94906e-18 0.160689 0.400432)
(-3.9644e-18 0.34956 0.105094)
(-3.92852e-18 -1.72859 1.38782)
(-9.05546e-18 -4.96907 2.50104)
(-1.23939e-17 -9.09158 4.15595)
(4.90544e-17 -13.5561 5.58622)
(9.78462e-17 -14.5948 6.17362)
(-1.70428e-15 -1.93973 5.62317)
(-5.9553e-15 2.72649 4.60446)
(-5.29379e-15 -1.39136 9.8425)
(-5.56268e-15 -5.15614 9.66412)
(-5.76463e-15 -7.23349 9.89611)
(-5.75907e-15 -8.94961 10.2179)
(-5.48249e-15 -10.5319 10.0749)
(-4.80559e-15 -11.5489 9.54808)
(-3.82091e-15 -11.9943 8.59191)
(-2.75417e-15 -11.7949 7.4334)
(-1.76344e-15 -11.0073 6.27134)
(-6.9653e-16 -9.31262 4.95414)
(3.03307e-16 -5.90998 3.47315)
(8.83495e-17 -1.83497 3.50688)
(-3.64467e-16 -2.30962 5.37394)
(3.54608e-16 -2.6788 6.05605)
(1.22944e-15 -2.07023 6.91649)
(1.89576e-15 -1.31369 8.45453)
(2.15901e-15 -0.54504 9.59678)
(2.18041e-15 0.420749 9.89278)
(2.23435e-15 1.76934 9.94568)
(2.29872e-15 2.94472 9.77164)
(2.37109e-15 3.98786 9.42184)
(2.44882e-15 4.79902 8.93189)
(2.52713e-15 5.35774 8.35058)
(2.60061e-15 5.6982 7.71976)
(2.66073e-15 5.8953 7.06599)
(2.69246e-15 5.98236 6.39944)
(2.67409e-15 5.94777 5.69578)
(2.58206e-15 5.78568 4.94045)
(2.40562e-15 5.51194 4.05929)
(2.16343e-15 5.1348 3.15919)
(1.90846e-15 4.44902 2.29843)
(1.68974e-15 3.41675 1.31354)
(1.43651e-15 1.62182 0.416991)
(6.95237e-16 -1.23013 -0.23367)
(1.08979e-16 -2.25974 -0.818733)
(-1.88316e-17 -2.53605 -0.963549)
(1.51474e-17 -1.9713 -0.771027)
(-7.55534e-17 1.15802 3.05861)
(-8.80213e-17 2.41167 2.97765)
(-9.22131e-17 2.51729 3.26318)
(-9.61224e-17 2.63158 3.26813)
(-1.00281e-16 2.73243 2.98934)
(-1.04408e-16 2.93714 2.71379)
(-1.07337e-16 3.12689 2.62698)
(-1.09481e-16 3.20332 2.5581)
(-1.12023e-16 3.22668 2.5824)
(-1.13643e-16 3.13389 2.57586)
(-1.14114e-16 3.0189 2.4097)
(-1.13204e-16 2.90413 2.29564)
(-1.10489e-16 2.64545 2.236)
(-1.05469e-16 2.33 2.03825)
(-9.77796e-17 1.90512 1.71266)
(-8.70521e-17 1.29092 1.55426)
(-7.36269e-17 -0.00235698 1.32231)
(-5.87447e-17 -1.95972 0.80401)
(-4.46995e-17 -5.71862 -0.791292)
(-4.20219e-17 -2.53657 -0.11449)
(-3.16797e-17 -4.77683 -1.31237)
(-2.88651e-17 -3.25874 -0.717561)
(-1.70521e-17 -4.80557 -0.974383)
(-1.2837e-17 -3.82109 -0.456207)
(-9.74932e-18 -3.8466 -1.07127)
(-3.5794e-18 -3.85508 -0.310537)
(2.57636e-19 -3.14852 -0.582467)
(9.88555e-19 -2.93357 -0.919137)
(-3.1982e-20 -2.36911 -0.784231)
(-1.26143e-18 -2.1512 -0.474287)
(-1.63822e-18 -1.98947 -0.464274)
(-1.24855e-18 -0.324864 0.338078)
(-1.53887e-18 -1.30797 0.663063)
(-1.91876e-18 -0.0117571 0.350784)
(-4.6132e-18 0.203457 0.243718)
(-4.87876e-18 -2.09285 1.48674)
(-1.0906e-17 -5.34404 2.72714)
(-6.24625e-18 -9.53051 4.48229)
(8.26427e-17 -13.8889 6.05374)
(3.55817e-17 -14.2483 6.45364)
(-2.18627e-15 -1.79618 5.16419)
(-6.01495e-15 2.01059 4.62721)
(-5.38003e-15 -1.84917 9.30245)
(-5.64354e-15 -5.28182 9.56813)
(-5.78437e-15 -7.36954 9.90582)
(-5.72845e-15 -9.07448 10.1562)
(-5.38984e-15 -10.5639 9.96208)
(-4.67033e-15 -11.4951 9.3955)
(-3.68207e-15 -11.8755 8.43844)
(-2.63866e-15 -11.6587 7.31676)
(-1.65199e-15 -10.8544 6.18798)
(-5.80568e-16 -9.09384 4.87973)
(3.15708e-16 -5.73924 3.45075)
(-1.80343e-17 -2.37877 3.67562)
(-1.84245e-16 -2.83025 5.5114)
(6.99941e-16 -2.94683 6.40486)
(1.56557e-15 -2.34576 7.60877)
(2.05901e-15 -1.56562 9.05002)
(2.17572e-15 -0.669355 9.84907)
(2.21161e-15 0.345972 10.174)
(2.26467e-15 1.76372 10.2909)
(2.33075e-15 2.97689 10.1317)
(2.40611e-15 4.05181 9.7929)
(2.48734e-15 4.88199 9.30498)
(2.56903e-15 5.45523 8.72052)
(2.64526e-15 5.80457 8.08372)
(2.70699e-15 6.0096 7.422)
(2.73823e-15 6.10677 6.74172)
(2.71615e-15 6.08891 6.01703)
(2.61711e-15 5.95101 5.23161)
(2.4323e-15 5.70355 4.31538)
(2.18373e-15 5.32875 3.36363)
(1.92804e-15 4.63951 2.43617)
(1.72063e-15 3.62587 1.39452)
(1.49705e-15 1.93653 0.491542)
(7.58739e-16 -1.02962 -0.357119)
(1.46672e-16 -2.11269 -0.820847)
(-1.8773e-17 -2.46582 -0.952292)
(8.66617e-18 -2.00548 -0.770579)
(-8.20228e-17 1.377 3.43563)
(-9.12538e-17 2.35548 3.14908)
(-9.4183e-17 2.46241 3.32832)
(-9.79515e-17 2.58369 3.3034)
(-1.02289e-16 2.71192 3.08602)
(-1.06487e-16 2.88963 2.86029)
(-1.09106e-16 3.00585 2.73157)
(-1.11536e-16 3.16815 2.59753)
(-1.14056e-16 3.21955 2.63091)
(-1.15611e-16 3.12936 2.60895)
(-1.15937e-16 3.0079 2.45564)
(-1.14849e-16 2.90589 2.33838)
(-1.11877e-16 2.67118 2.26124)
(-1.06476e-16 2.34886 2.06007)
(-9.83637e-17 1.91877 1.75279)
(-8.71854e-17 1.2978 1.60073)
(-7.33187e-17 0.0563224 1.34453)
(-5.80977e-17 -1.86868 0.795632)
(-4.40693e-17 -5.38084 -0.645378)
(-4.13199e-17 -2.79891 -0.135842)
(-3.14453e-17 -4.81581 -1.29175)
(-2.84545e-17 -3.5527 -0.925611)
(-1.73274e-17 -4.88379 -1.01926)
(-1.31405e-17 -4.00828 -0.782859)
(-1.00368e-17 -3.81869 -1.23148)
(-3.82374e-18 -3.92217 -0.103284)
(2.09235e-19 -3.19674 -0.398621)
(9.77705e-19 -2.93939 -0.700178)
(-1.55809e-20 -2.41082 -0.594494)
(-1.24356e-18 -2.18321 -0.337737)
(-1.63863e-18 -2.00578 -0.378372)
(-1.25607e-18 -0.459662 0.365277)
(-1.54745e-18 -1.3094 0.648784)
(-1.88034e-18 0.0705196 0.286108)
(-5.59718e-18 0.0580318 0.433952)
(-6.30546e-18 -2.37431 1.60557)
(-1.25138e-17 -5.65594 2.96448)
(4.41212e-18 -9.90304 4.81735)
(1.166e-16 -14.094 6.48543)
(-5.66464e-17 -13.747 6.68934)
(-2.65982e-15 -1.77963 4.85461)
(-6.04376e-15 1.03957 4.71208)
(-5.45963e-15 -2.1706 8.88714)
(-5.71168e-15 -5.32166 9.48002)
(-5.79371e-15 -7.37577 9.88632)
(-5.68461e-15 -9.03674 10.073)
(-5.28408e-15 -10.4192 9.82628)
(-4.52598e-15 -11.258 9.22105)
(-3.53866e-15 -11.5769 8.26616)
(-2.51798e-15 -11.3444 7.18217)
(-1.5323e-15 -10.5217 6.083)
(-4.65182e-16 -8.71471 4.78575)
(3.12389e-16 -5.48536 3.44089)
(-7.83604e-17 -2.77298 3.85933)
(4.09317e-17 -3.17523 5.68229)
(1.03713e-15 -3.12723 6.79898)
(1.79687e-15 -2.54129 8.17523)
(2.11986e-15 -1.74581 9.42582)
(2.19261e-15 -0.785355 10.1145)
(2.24853e-15 0.301697 10.5275)
(2.29819e-15 1.77224 10.6895)
(2.36671e-15 3.02848 10.549)
(2.44575e-15 4.13973 10.2204)
(2.53135e-15 4.99656 9.73253)
(2.61742e-15 5.58754 9.14178)
(2.69746e-15 5.94497 8.49567)
(2.76177e-15 6.15546 7.82324)
(2.79339e-15 6.26176 7.12657)
(2.76829e-15 6.25874 6.37783)
(2.66272e-15 6.14095 5.55846)
(2.46973e-15 5.90872 4.60549)
(2.21438e-15 5.54375 3.60041)
(1.95575e-15 4.85728 2.59758)
(1.75604e-15 3.8496 1.49328)
(1.55923e-15 2.25875 0.573137)
(8.31958e-16 -0.933381 -0.41229)
(1.9021e-16 -1.99962 -0.814739)
(-1.47175e-17 -2.42251 -0.939634)
(1.55893e-18 -2.05238 -0.753991)
(-8.53863e-17 1.4404 3.68764)
(-9.38453e-17 2.24248 3.34418)
(-9.62637e-17 2.39191 3.39936)
(-9.99107e-17 2.55868 3.32474)
(-1.03952e-16 2.67107 3.1331)
(-1.07677e-16 2.787 2.94305)
(-1.10588e-16 2.95452 2.78107)
(-1.13658e-16 3.16832 2.65369)
(-1.16099e-16 3.2358 2.67774)
(-1.17594e-16 3.14564 2.64844)
(-1.17745e-16 3.04311 2.50067)
(-1.1647e-16 2.94614 2.37552)
(-1.13232e-16 2.71767 2.29256)
(-1.07455e-16 2.39922 2.09316)
(-9.88936e-17 1.97632 1.79935)
(-8.72482e-17 1.32757 1.64822)
(-7.2931e-17 0.12401 1.37344)
(-5.73613e-17 -1.75219 0.795836)
(-4.33345e-17 -5.03098 -0.505848)
(-4.0489e-17 -3.04746 -0.151296)
(-3.10398e-17 -4.80287 -1.25053)
(-2.79899e-17 -3.80965 -1.0345)
(-1.7485e-17 -4.92517 -1.0454)
(-1.33967e-17 -4.17658 -0.967774)
(-1.02077e-17 -3.92116 -1.36293)
(-4.10916e-18 -3.99638 -0.0866496)
(9.22944e-20 -3.19103 -0.274213)
(9.65758e-19 -2.87396 -0.506883)
(-2.34151e-20 -2.35795 -0.393981)
(-1.24642e-18 -2.1277 -0.179423)
(-1.63791e-18 -1.97729 -0.285076)
(-1.25948e-18 -0.559609 0.397002)
(-1.55508e-18 -1.28302 0.631044)
(-1.8661e-18 0.259798 0.15231)
(-6.96141e-18 -0.126472 0.601842)
(-8.22627e-18 -2.62775 1.7717)
(-1.3269e-17 -5.96391 3.22774)
(2.01734e-17 -10.2654 5.17644)
(1.47955e-16 -14.2318 6.90073)
(-1.79442e-16 -13.2097 6.87125)
(-3.1204e-15 -1.64444 4.59043)
(-6.06859e-15 0.336407 4.91505)
(-5.52915e-15 -2.48562 8.63084)
(-5.76408e-15 -5.33351 9.40699)
(-5.79135e-15 -7.34651 9.8443)
(-5.62792e-15 -8.9463 9.97364)
(-5.16865e-15 -10.2277 9.6748)
(-4.37821e-15 -10.9863 9.03434)
(-3.39617e-15 -11.2545 8.08467)
(-2.39597e-15 -11.0083 7.03632)
(-1.40891e-15 -10.167 5.96025)
(-3.57644e-16 -8.32964 4.67258)
(2.94575e-16 -5.27472 3.42609)
(-8.68723e-17 -3.12387 4.0355)
(2.97135e-16 -3.47139 5.88579)
(1.32191e-15 -3.3234 7.17497)
(1.92665e-15 -2.73885 8.58244)
(2.13981e-15 -1.91798 9.69848)
(2.21564e-15 -0.914 10.4099)
(2.27845e-15 0.232451 10.8745)
(2.32621e-15 1.76721 11.0859)
(2.39702e-15 3.06975 10.9646)
(2.47985e-15 4.21827 10.6473)
(2.57001e-15 5.10298 10.1614)
(2.66062e-15 5.71224 9.56594)
(2.74467e-15 6.08011 8.91164)
(2.81182e-15 6.29734 8.22974)
(2.84404e-15 6.41454 7.51819)
(2.81616e-15 6.42999 6.74653)
(2.70447e-15 6.33435 5.89425)
(2.5042e-15 6.12489 4.90309)
(2.24335e-15 5.76918 3.84244)
(1.98224e-15 5.08693 2.76525)
(1.78806e-15 4.08259 1.59709)
(1.62055e-15 2.5548 0.648874)
(8.91239e-16 -0.799547 -0.399493)
(2.3063e-16 -1.89783 -0.806699)
(-7.6512e-18 -2.4092 -0.926233)
(9.27787e-19 -2.12043 -0.784365)
(-8.75815e-17 1.48108 3.86942)
(-9.57262e-17 2.17331 3.51784)
(-9.8506e-17 2.36329 3.47667)
(-1.0217e-16 2.56599 3.36604)
(-1.05994e-16 2.68004 3.177)
(-1.0948e-16 2.78838 2.9816)
(-1.12689e-16 2.99005 2.81252)
(-1.15778e-16 3.16947 2.71096)
(-1.18169e-16 3.23968 2.72723)
(-1.19581e-16 3.15186 2.69333)
(-1.19567e-16 3.04956 2.54421)
(-1.1809e-16 2.95814 2.41643)
(-1.14558e-16 2.74592 2.33098)
(-1.08379e-16 2.42279 2.13624)
(-9.93691e-17 2.01493 1.85445)
(-8.72503e-17 1.35416 1.69719)
(-7.24605e-17 0.170996 1.4114)
(-5.6515e-17 -1.65892 0.811407)
(-4.24601e-17 -4.71309 -0.369305)
(-3.95402e-17 -3.26297 -0.169177)
(-3.0507e-17 -4.75537 -1.19868)
(-2.74031e-17 -4.03511 -1.09709)
(-1.7483e-17 -4.95453 -1.05323)
(-1.35418e-17 -4.28348 -1.06439)
(-1.02729e-17 -3.99741 -1.40916)
(-4.39604e-18 -4.06805 -0.134465)
(-8.4153e-20 -3.17561 -0.179354)
(9.54583e-19 -2.77916 -0.332585)
(-4.50765e-20 -2.2739 -0.194965)
(-1.26442e-18 -2.05435 -0.0144664)
(-1.63322e-18 -1.96912 -0.187465)
(-1.26192e-18 -0.685989 0.432305)
(-1.56116e-18 -1.2569 0.608887)
(-1.92033e-18 0.473618 -0.0457005)
(-8.71109e-18 -0.329385 0.743432)
(-1.05123e-17 -2.89169 1.97763)
(-1.23916e-17 -6.2971 3.5141)
(4.12017e-17 -10.6507 5.55414)
(1.7364e-16 -14.3647 7.29359)
(-3.34252e-16 -12.7434 7.0027)
(-3.56972e-15 -1.59675 4.37671)
(-6.08035e-15 -0.530961 5.16233)
(-5.58838e-15 -2.8791 8.47651)
(-5.80116e-15 -5.37617 9.34405)
(-5.77643e-15 -7.33362 9.77998)
(-5.55837e-15 -8.8638 9.85801)
(-5.04493e-15 -10.0483 9.50826)
(-4.22895e-15 -10.735 8.83736)
(-3.25584e-15 -10.96 7.89654)
(-2.27332e-15 -10.7002 6.88084)
(-1.28427e-15 -9.83931 5.82081)
(-2.61429e-16 -7.98793 4.54188)
(2.68686e-16 -5.14762 3.40923)
(-4.22188e-17 -3.47817 4.21939)
(5.6071e-16 -3.76899 6.11316)
(1.53447e-15 -3.55032 7.5015)
(1.98907e-15 -2.95088 8.88036)
(2.1521e-15 -2.09484 9.95089)
(2.2401e-15 -1.04603 10.7303)
(2.30363e-15 0.157539 11.2257)
(2.34995e-15 1.75689 11.49)
(2.42305e-15 3.10895 11.3888)
(2.50986e-15 4.29775 11.0838)