/*--------------------------------*- C++ -*----------------------------------*\
| =========                 |                                                 |
| \\      /  F ield         | OpenFOAM: The Open Source CFD Toolbox           |
|  \\    /   O peration     | Version:  4.1                                   |
|   \\  /    A nd           | Web:      www.OpenFOAM.org                      |
|    \\/     M anipulation  |                                                 |
\*---------------------------------------------------------------------------*/
FoamFile
{
    version     2.0;
    format      ascii;
    class       surfaceScalarField;
    location    "22";
    object      phi;
}
// * * * * * * * * * * * * * * * * * * * * * * * * * * * * * * * * * * * * * //

dimensions      [0 3 -1 0 0 0 0];

internalField   nonuniform List<scalar> 
13220
(
-949.881
2249.78
-1573.96
1924.27
-2054
1779.95
-2424.23
1670.13
-2699.85
1575.82
-2888.37
1488.42
-2993.05
1404.58
-3013.85
1321
-2949.61
1235.66
-2797.23
1147.52
-2551.16
1054.13
-2192.99
941.733
-1687.15
794.062
-1012.66
625.707
287.241
373.347
1876.45
442.746
1854.86
437.324
1785.4
406.704
1700.74
380.616
1601.94
359.919
1509.1
345.339
1419.19
337.567
1328.76
333.533
1239.71
326.995
1154.06
309.658
1071.49
267.506
983.888
191.459
870.122
111.461
705.715
398.702
33.6086
1842.87
-97.3654
1985.83
-253.557
1941.62
-371.071
1818.24
-473.101
1704.01
-567.456
1603.45
-651.647
1503.4
-725.701
1402.8
-787.96
1301.99
-837.199
1203.28
-868.113
1102.4
-855.994
971.755
-740.278
754.388
-434.284
399.703
-35.5824
28.8343
1814.05
-100.623
2115.26
-225.479
2066.52
-304.442
1897.17
-368.048
1767.66
-416.878
1652.24
-446.101
1532.68
-456.923
1413.59
-451.728
1296.83
-430.048
1181.59
-387.109
1059.48
-311.775
896.421
-192.79
635.42
-48.375
255.306
-83.9576
169.811
1644.27
146.322
2138.71
123.958
2088.94
123.051
1898.02
127.214
1763.57
136.035
1643.36
149.411
1519.37
166.865
1396.1
187.271
1276.47
208.436
1160.4
229.449
1038.49
244.088
881.751
233.194
646.285
155.328
333.148
71.3711
223.658
1420.64
244.839
2117.44
235.481
2098.4
236.646
1896.76
241.132
1759.2
244.978
1639.42
247.341
1517.13
245.936
1397.41
241.913
1280.6
234.666
1167.63
222.05
1051.18
199.72
904.129
156.606
689.502
78.5601
411.292
149.931
204.946
1215.77
240.605
2081.69
215.907
2123.2
193.485
1919.1
179.416
1773.39
165.936
1652.83
152.276
1530.88
138.066
1411.6
123.228
1295.49
108.975
1181.88
94.776
1065.42
77.4254
921.434
53.2113
713.696
19.5866
444.903
169.519
175.597
1040.28
227.683
2029.43
205.359
2145.75
175.711
1948.58
157.462
1791.87
142.85
1667.3
128.006
1545.92
113.476
1426
100.373
1308.75
87.5626
1194.68
75.6194
1077.47
62.2145
934.969
43.0073
733.11
17.1458
470.953
186.665
153.704
886.742
222.986
1960
210.438
2158.48
182.326
1976.55
164.452
1809.96
151.245
1680.37
138.616
1558.72
124.859
1439.68
111.865
1321.89
99.2062
1207.29
85.9402
1090.82
70.6033
950.217
49.7196
753.927
21.8981
498.721
208.565
131.435
755.581
210.849
1880.27
207.858
2161.95
179.492
2004.6
161.009
1828.9
146.355
1694.7
133.043
1572.44
119.119
1453.32
105.206
1336.09
91.4153
1220.99
78.0976
1104.34
62.5431
965.876
42.6532
774.091
17.9989
523.629
226.566
109.213
646.839
193.139
1795.8
200.522
2155.16
174.306
2030.34
156.112
1847.71
143.136
1707.27
130.449
1585.62
116.752
1466.76
103.58
1349.55
89.2986
1235.2
75.2426
1118.5
60.0003
981.207
40.5636
793.696
17.4506
546.903
244.017
97.9721
549.623
183.175
1709.51
199.66
2139.89
172.748
2056.31
148.06
1873.52
129.662
1724.81
116.44
1599.7
101.94
1480.57
89.893
1362.23
77.9271
1246.9
66.33
1130.52
52.7724
994.67
34.484
812.068
12.2385
569.184
256.233
95.7475
456.062
231.009
1574.16
277.804
2094.68
271.975
2062.09
269.31
1877.21
269.158
1725.03
263.93
1605.29
252.406
1492.59
234.037
1380.29
212.195
1268.57
186.395
1155.49
154.036
1025.51
112.441
851.32
58.2956
621.019
314.476
152.876
306.474
271.28
1453.56
312.748
2055.52
253.662
2119.13
176.469
1956.05
116.99
1782.06
88.352
1634.64
73.3748
1504.26
71.3793
1381.55
72.3046
1265.22
74.6623
1151.29
71.2426
1026.67
48.7608
868.134
17.1963
646.849
331.377
-198.321
260.841
862.359
1312.87
1523.3
1609.38
1564.91
1481.07
1329.32
1168.23
980.457
773.224
546.392
276.635
1.64995
878
-871.878
880.232
884.831
884.306
1678.56
-792.947
1677.26
1676.91
1675.64
2306.03
-630.638
2304.91
2304.33
2793.47
-489.755
2792.19
2791.53
2790.66
3137.97
-347.439
3137.29
3137.42
3364.25
-227.293
3364.41
3363.93
3364.21
3449.19
-85.4121
3449.41
3448.88
3449.27
3420.64
28.4316
3421.07
3420.79
3301.65
119.706
3301.38
3302.12
3301.78
3089.4
213.174
3089.5
3090.37
2816.42
273.979
2817.42
2817.69
2818.46
2490.09
328.468
2490.98
2491.21
2491.87
2149.48
342.756
2150.23
2150.41
1878.12
272.867
1878.2
1878.75
1878.48
1557.06
321.994
1556.59
1557.14
1556.49
1124.27
432.789
1124.2
1124.93
580.237
544.922
581.403
581.788
582.596
1.27697
581.15
3.15382
2.76454
-994.447
998.28
-994.592
-994.483
-995.131
-2575.86
1580.72
-2577.24
-2577.86
-2580.38
-4556.47
1976.84
-4560.49
-4557.52
-6806.03
2245.64
-6802.65
-6805.59
-6694.73
-6578.59
-6452.12
-8763.48
2430.48
-8645.18
-8498.97
-8325.36
-8150.21
-7973.07
-7801.99
-7623.4
-7424.43
-9789.55
2563.57
-9576.66
-9368.16
-9162.06
-8932.71
-8701.06
-8467.08
-8232.88
-8001.12
-10356.3
2591.81
-10103.4
-9849.61
-9595.97
-9343.37
-9085.55
-8815.88
-8543.86
-8269.49
-7998.84
-10233.9
2495.23
-9949.16
-9661.72
-9374.22
-9087.06
-8803.13
-8503.49
-8196.08
-7891.58
-9809.6
2207.52
-9513.82
-9213.01
-8898.53
-8584.59
-8269.06
-7955.11
-7640.9
-7313.26
-8733
1735.97
-8414.25
-8096.86
-7781.6
-7453.14
-7120.28
-6787.9
-6458.45
-6139.57
-6844.44
1020.45
-6525.29
-6209.84
-5896.87
-5587.98
-5282.86
-4998.04
-4715.86
-4445.25
-4185.74
-3856.83
-66.2547
-3638.68
-3446.02
-3259.57
-3077.11
-2892.35
-2737.55
-2648.35
-2567.55
-1940.14
-527.943
-1857.74
-1768.9
-1767.12
-1388.86
-370.217
-1041.81
-347.74
-1036.32
-731.791
-305.981
-726.503
-476.61
-252.273
-261.927
-205.528
-269.121
-84.4273
-179.957
91.3716
-183.845
90.7932
199.485
-115.968
199.023
250.122
-58.508
326.434
-76.8066
321.708
395.392
-76.4101
390.901
464.096
-78.5533
535.471
-74.6436
532.145
615.342
-85.9188
693.717
-79.9898
692.586
775.196
-83.028
774.458
850.381
-77.0361
918.144
-68.4458
917.013
993.264
-76.8331
993.544
1060.15
-67.1546
1122.6
-60.8458
1121.99
1188.38
-65.8215
1251.97
-64.4677
1251.04
1313.91
-63.6266
1313.53
1363.54
-50.5243
1409.02
-44.6563
1409.07
1464.61
-54.9358
1464.56
1510.98
-46.4968
1551.2
-40.3221
1551.63
1603.28
-51.7756
1653.91
-48.9457
1653.84
1708.51
-52.8843
1708.22
1753.66
-44.7019
1788.07
-35.0904
1787.86
1837.58
-50.3049
1837.66
1884.43
-47.1234
1921.84
-36.4533
1921.51
1976.96
-54.5166
2023.39
-46.8887
2023.54
2079.31
-56.3075
2079.74
2132.95
-53.7971
2173.38
-39.5676
2173.06
2231.64
-58.1133
2231.16
2291.04
-60.0501
2335.82
-45.3117
2335.91
2403.52
-67.9949
2461.13
-56.9271
2461.03
2534.25
-73.0218
2534.31
-77.9607
-36.7417
282.636
-47.8255
427.939
-56.2862
631.764
-60.7474
856.724
-60.2877
1088.41
-54.0827
1290.73
-43.7582
1405.84
-30.0433
1369.35
-13.2608
997.171
62.5466
462.275
69.7466
-581.372
69.3978
-788.166
71.5191
-757.269
76.8335
-591.564
84.6707
-279.575
74.3177
113.201
77.2455
532.297
72.2523
1090.59
32.6358
833.496
28.1727
2430.82
13.5381
2116.99
-47.5554
-125.956
-51.7696
906.83
-41.7604
1253.07
-43.2209
1151.06
-36.1463
1120.63
-45.8093
881.503
-50.2457
952.709
-34.055
1051.73
-37.8642
971.623
-64.389
1126.41
-28.2205
1411.85
61.3517
622.659
59.4353
435.668
117.667
764.509
123.89
-91.1796
137.171
-495.681
156.558
-325.323
146.371
-12.7011
132.303
31.086
114.229
-92.6403
112.702
-24.9153
114.645
60.4019
127.788
423.836
153.385
565.076
168.598
430.453
173.067
272.266
177.684
205.473
183.178
105.728
191.612
-160.253
179.792
-469.661
147.853
-793.434
104.421
-958.41
35.723
-1128.18
8.0753
-1464.96
38.4088
4640.54
33.3538
5695.41
-3.32959
917.273
-70.3295
-496.41
-167.173
-369.494
-205.962
-84.4782
-210.504
-25.1418
-190.914
91.9661
-181.154
115.815
-144.01
-35.8237
-99.1544
284.821
-21.9926
777.238
-84.5802
348.351
-113.008
387.763
-115.498
745.872
-96.5974
1042.94
-49.5941
1053.37
-8.7113
-739.351
-26.8841
-932.939
-57.8971
-701.913
25.0062
153.711
86.2098
-903.202
90.4622
-1437.22
-1688.8
-37.1101
288.972
-47.0457
437.879
-54.9359
639.639
-58.6098
860.384
-57.4753
1086.95
-50.6044
1283.3
-39.5602
1394.1
-25.3983
1354
-13.1791
983.266
65.1227
382.201
72.5839
-589.509
75.1571
-791.221
78.0989
-760.544
83.5867
-597.244
88.0824
-283.276
83.3332
123.304
66.4665
552.344
61.2736
1098.15
25.2316
873.293
32.7277
2425.24
38.43
2113.59
-66.3716
-6.88979
-62.342
908.456
-47.8395
1243.55
-47.1043
1156.05
-43.0628
1122.82
-48.0505
894.287
-41.4025
953.672
-18.5194
1036.5
-18.8996
979.394
-47.2933
1161.29
-0.772408
1372.05
23.032
608.635
-14.8642
491.142
101.868
653.945
103.264
-89.1856
94.6985
-480.875
129.895
-348.985
146.352
-20.4432
140.306
45.5886
108.703
-52.646
99.748
-7.63619
100.862
67.4905
128.952
401.846
159.307
540.686
172.096
424.444
175.063
277.141
182.694
206.239
194.951
103.956
198.4
-149.263
170.074
-437.576
133.48
-753.584
92.34
-915.425
33.4893
-1067.8
5.17509
-1435.99
41.8006
4604.39
34.7326
5702.68
-7.38734
959.296
-79.7859
-422.108
-169.198
-277.684
-202.95
-47.9685
-221.295
-5.72958
-202.234
73.2878
-189.734
103.504
-160.638
-67.4216
-124.84
245.236
-34.329
680.419
-80.6771
385.987
-109.463
408.308
-115.514
746.397
-96.4221
1019.29
14.1653
939.693
-78.2439
-675.903
-52.696
-960.501
-72.1391
-686.911
46.3148
33.0065
90.996
-949.673
84.4523
-1431.95
-1678.56
-35.956
295.797
-45.886
447.883
-53.5742
647.366
-57.0471
863.967
-55.7031
1085.6
-48.6841
1276.23
-37.7621
1383.24
-25.2143
1341.59
-7.532
965.785
65.3075
313.318
75.1715
-597.887
79.0506
-794.319
82.2837
-763.576
87.7875
-603.429
92.8739
-290.32
90.6338
124.719
69.0936
574.686
58.774
1108.81
22.1554
910.409
31.0367
2416.76
30.4278
2114.8
-60.3684
83.2184
-61.7648
910.877
-47.3374
1230.28
-46.2625
1156.49
-42.0706
1120.29
-44.0622
898.312
-33.513
945.012
-16.8753
1022.5
-26.9917
991.939
-49.8449
1186.46
-0.0589652
1326.12
10.8482
601.32
-18.7622
525.919
93.7037
541.864
110.441
-107.112
99.1681
-471.468
128.638
-375.332
150.927
-40.1922
146.206
53.0614
114.824
-18.7093
100.479
9.48656
100.223
70.4405
128.788
375.256
157.199
514.157
169.133
414.378
173.422
274.851
182.186
199.261
193.606
94.502
188.931
-145.28
162.448
-415.055
126.26
-722.602
86.8335
-879.152
33.4458
-1016.48
5.66801
-1408.99
43.1109
4567
34.6321
5711.04
-15.8542
1009.08
-83.7853
-353.42
-174.821
-185.715
-207.364
-12.774
-225.125
13.7665
-212.036
61.709
-197.936
93.8633
-175.256
-86.0231
-138.209
215.285
-54.1624
607.31
-86.6801
417.992
-115.273
435.943
-121.055
750.783
-95.4009
992.734
28.018
815.117
-60.7293
-591.699
-58.5378
-962.9
-59.1598
-687.32
60.0879
-87.5742
95.2455
-984.709
89.1101
-1425.29
-1645.34
-35.4014
303.027
-45.4665
458.091
-53.0583
655.14
-56.4278
867.56
-54.9637
1084.11
-47.9117
1268.93
-37.0368
1371.97
-23.6192
1327.33
-2.47317
943.474
65.5693
245.004
77.9909
-610.512
83.2441
-799.861
86.7542
-767.509
92.0956
-609.356
97.2268
-295.426
95.8763
130.062
71.4464
601.329
59.0905
1122.95
22.1022
950.219
28.6996
2411.84
26.0795
2119.26
-55.243
173.337
-59.5207
920.013
-45.5358
1220.52
-44.3076
1160.01
-39.4649
1120.66
-39.5215
905.048
-29.5281
941.699
-19.8477
1019.5
-33.5983
1011.82
-50.0199
1209
0.0324371
1283.87
6.333
607.782
-9.99146
560.976
88.7974
450.483
113.384
-127.246
106.693
-457.732
130.367
-385.968
153.211
-54.5174
150.109
64.1904
120.659
18.7043
102.566
35.7402
100.502
80.5751
127.515
354.331
154.092
493.276
165.345
409.345
170.088
277.142
178.955
197.733
188.858
93.3555
180.127
-124.881
156.239
-388.078
119.547
-683.836
80.9441
-839.438
32.3738
-966.703
6.67593
-1382.94
43.9099
4530.2
34.6495
5720.65
-25.2272
1068.63
-86.1018
-289.125
-174.638
-94.6128
-210.164
26.7159
-227.488
33.7961
-221.956
57.1642
-206.633
80.5437
-190.776
-103.771
-154.595
176.721
-76.1851
526.103
-98.8424
431.926
-122.751
452.958
-124.378
747.019
-92.2883
955.903
9.63096
709.089
-30.7948
-570.868
-58.2466
-938.318
-57.7468
-694.088
75.5504
-228.167
98.6867
-1010.3
83.4923
-1411.68
-1631.15
-35.3061
310.737
-45.5111
468.38
-52.998
662.692
-56.2269
870.953
-54.5784
1082.57
-47.4141
1261.9
-36.3785
1361.3
-21.4725
1313.07
2.25551
920.839
66.4063
185.02
81.1286
-623.517
87.4882
-805.327
91.0873
-770.877
96.0073
-615.029
100.813
-302.295
99.4902
128.166
73.1532
627.705
59.2825
1136.47
22.0043
986.957
25.7985
2407.93
22.305
2122.63
-50.4312
242.815
-56.4281
925.645
-43.538
1207.64
-41.8501
1158.58
-36.6973
1115.8
-35.8773
904.511
-27.2861
933.207
-20.3987
1013.56
-36.6076
1028.89
-48.431
1222.14
0.358372
1238.74
8.67525
601.981
7.24917
561.083
89.3178
368.214
119.295
-158.566
117.096
-457.188
134.744
-402.343
155.251
-74.0809
153.134
67.427
125.927
46.6533
105.739
57.0061
101.302
86.1047
125.992
330.52
150.788
469.215
161.188
399.376
165.701
272.865
174.345
188.87
183.162
83.9016
172.26
-118.455
149.74
-369.88
112.781
-652.449
75.4355
-805.595
31.1545
-924.743
7.34928
-1360.07
44.6076
4492.87
34.2988
5730.72
-36.1997
1138.49
-94.29
-229.88
-170.977
-17.2518
-207.04
64.1586
-227.916
57.0647
-231.819
62.6763
-215.47
68.6319
-205.659
-109.679
-172.364
150.402
-99.8978
463.998
-113.151
446.895
-130.561
471.317
-126.703
742.913
-88.7019
917.824
1.94857
618.203
-21.5406
-543.78
-54.1876
-905.402
-64.1896
-683.215
94.2774
-388.071
101.229
-1016.78
89.3698
-1399.2
-1586.07
-35.5109
318.884
-45.8617
478.876
-53.2134
670.278
-56.2581
874.328
-54.3776
1080.86
-47.0614
1254.61
-35.775
1350.02
-19.2596
1296.33
7.56787
893.893
67.9914
125.748
84.4993
-639.665
91.7036
-812.574
95.1675
-774.829
99.4589
-620.245
103.68
-307.162
101.011
132.371
74.1365
656.097
59.1261
1152.72
21.4083
1026.61
22.4949
2408.15
18.9356
2127.5
-46.14
313.119
-52.9699
936.187
-41.373
1199.35
-39.0711
1159.96
-33.897
1114.66
-32.6457
908.433
-25.5935
931.353
-23.5409
1016.72
-40.8193
1051
-45.2462
1232.28
0.909584
1201.67
10.053
607.381
17.6305
566.531
91.6786
301.532
124.828
-186.698
127.814
-452.057
140.474
-401.657
157.529
-83.1161
155.799
76.3066
130.27
78.8766
108.733
85.4455
101.881
99.801
124.214
313.525
147.642
450.493
157.4
394.396
161.229
274.267
169.109
186.329
177.068
82.0729
165.261
-99.2541
143.345
-345.45
106.479
-614.508
70.5323
-769.172
30.1403
-883.493
7.6599
-1337.58
45.2963
4455.56
34.2299
5742.26
-48.6056
1220.95
-108.901
-164.242
-168.987
45.2627
-202.796
101.851
-228.24
86.1978
-241.235
76.842
-225.564
55.4595
-219.218
-117.829
-189.224
118.723
-123.712
397.813
-128.311
444.504
-138.054
475.995
-127.779
728.21
-84.7896
870.696
-3.20014
532.137
-13.8648
-543.637
-46.7282
-875.487
-41.2078
-693.735
95.6848
-531.404
101.374
-1025.16
86.5312
-1386.07
-1560.95
-35.9831
327.528
-46.4731
489.416
-53.6633
677.5
-56.492
877.295
-54.3447
1078.84
-46.8514
1247.33
-35.2336
1338.94
-16.8905
1278.99
12.8622
865.766
69.9817
72.4339
88.1029
-656.09
95.9208
-819.484
99.0344
-777.664
102.426
-624.318
105.436
-312.149
100.218
132.602
74.1147
681.793
58.4448
1167.59
20.3166
1063.58
18.8312
2409.11
15.5421
2130.11
-41.8808
366.24
-49.3344
942.278
-38.9397
1188.09
-36.0292
1156.42
-30.9235
1108.84
-29.7196
906.211
-25.5441
925.905
-31.2202
1022.11
-47.6312
1067.22
-43.3509
1228.61
0.0817337
1161.45
10.0814
597.63
27.2227
544.547
97.4944
229.997
132.42
-223.355
139.945
-461.808
147.343
-410.287
160.512
-96.9725
158.621
77.8162
134.38
102.227
111.799
107.457
102.656
108.448
122.28
293.654
144.47
427.976
153.791
384.302
156.759
270.092
163.306
177.959
169.984
72.8177
158.184
-94.0889
136.353
-328.197
100.165
-583.859
66.1536
-738.78
29.3557
-849.16
8.01504
-1317.25
46.0826
4417.31
34.7671
5753.21
-52.0848
1307.2
-119.229
-97.1219
-166.679
92.9752
-199.558
135.003
-229.445
117.778
-247.44
96.5863
-234.889
46.8702
-231.164
-117.959
-204.031
98.1449
-144.486
347.567
-142.202
445.921
-144.431
480.56
-127.566
712.098
-80.4063
824.225
-4.47047
457.008
-9.25968
-533.282
-37.0191
-846.783
-11.8713
-716.31
89.7955
-631.107
100.338
-1034.82
79.4183
-1364.36
-1538.59
-36.757
336.601
-47.3687
500.138
-54.3621
684.727
-56.9337
880.239
-54.4828
1076.68
-46.7858
1239.87
-34.7702
1327.29
-14.536
1259.16
18.2654
834.129
72.5629
20.4073
91.9559
-674.617
100.096
-827.418
102.606
-780.69
104.829
-627.732
106.143
-314.713
97.334
139.822
73.3372
706.814
57.2805
1184.32
18.7604
1103.18
14.8028
2413.95
12.2952
2133.4
-37.8653
419.317
-45.697
952.731
-36.3029
1181.17
-32.8537
1155.76
-27.9208
1106.89
-27.1316
909.189
-25.8907
928.393
-35.6165
1035.59
-51.2107
1086.46
-42.845
1225.51
0.826441
1128.66
9.78487
605.936
37.077
525.909
105.517
168.082
139.589
-252.608
151.192
-464.523
153.949
-400.951
163.731
-99.5408
161.647
86.1313
138.371
131.012
114.654
136.828
103.111
125.595
120.079
281.253
141.263
410.585
150.44
378.621
152.636
271.451
157.595
176.43
162.814
71.307
151.368
-78.8795
129.932
-304.903
94.861
-548.616
62.6613
-706.705
28.9018
-814.932
8.51635
-1297.22
46.9913
4379.01
36.4134
5764.35
-47.472
1391.16
-119.383
-20.7282
-166.659
142.509
-203.742
175.264
-234.546
151.574
-252.134
115.448
-244.204
41.2323
-241.858
-122.173
-216.74
71.6891
-162.285
293.806
-153.555
432.959
-149.11
472.78
-126.088
685.65
-75.5131
770.259
-4.23736
381.414
-2.20589
-540.298
-25.9882
-825.167
5.33872
-749.833
89.1801
-717.368
99.5286
-1047.55
86.0704
-1352.54
-1493.27
-37.864
346.17
-48.5572
510.844
-55.3151
691.476
-57.5868
882.605
-54.7955
1074
-46.871
1232.18
-34.3887
1315.46
-12.1255
1238.13
23.5375
800.45
75.5938
-28.335
95.98
-693.425
104.156
-834.698
105.817
-782.012
106.577
-629.075
105.115
-315.245
91.9287
146.344
71.2795
726.712
55.4659
1199
16.5985
1140.47
10.3955
2419.3
9.11711
2133.63
-34.0804
457.747
-42.0393
958.631
-33.4418
1171.07
-29.5155
1150.57
-24.738
1100.68
-24.4152
906.902
-24.8361
926.531
-34.991
1044.62
-51.5292
1102.1
-42.7605
1216.95
4.14444
1084.48
9.96545
596.31
49.87
479.64
117.188
98.5797
149.533
-286.983
163.307
-481.401
160.568
-402.057
167.082
-108.149
164.949
86.7833
142.779
151.195
117.959
159.927
103.78
138.095
117.689
266.235
137.782
389.425
146.948
367.906
148.544
267.676
151.817
170.179
155.359
63.7949
144.318
-75.8306
123.215
-288.971
89.7777
-520.806
59.6777
-680.399
28.6353
-786.561
9.23093
-1279
48.0673
4339.9
38.4043
5773.56
-42.9347
1471.93
-114.794
50.0954
-164.68
192.38
-205.003
215.142
-236.583
184.119
-254.697
135.683
-252.045
42.1093
-251.16
-119.857
-227.472
54.0111
-176.796
251.294
-161.979
424.118
-151.907
465.975
-123.368
658.492
-69.868
717.962
0.799253
312.604
5.3881
-538.084
-8.64397
-809.44
22.6503
-777.894
89.8377
-781.728
97.5291
-1053.92
81.7373
-1335.69
-1464.12
-39.3317
356.122
-50.0587
521.648
-56.5318
698.179
-58.4515
884.921
-55.2823
1071.2
-47.1085
1224.41
-34.1157
1303.14
-9.88618
1214.91
28.7295
764.469
79.1419
-75.7336
100.172
-713.219
108.08
-842.205
108.626
-783.106
107.669
-629.574
103.301
-312.788
85.5692
159.313
68.2776
744.633
52.814
1214.64
13.5947
1180.1
5.63413
2427.78
6.09271
2133.57
-30.7035
496.116
-38.4577
968.238
-30.4411
1164.93
-26.0547
1148.41
-21.3625
1098.28
-21.5532
909.863
-22.5754
930.219
-32.333
1057.14
-48.8996
1121.55
-39.9119
1212.98
13.2943
1044.05
12.6143
613.461
65.5829
433.206
129.913
40.1607
158.587
-310.904
174.454
-487.452
166.879
-384.101
170.266
-104.937
168.189
94.5129
147.358
176.824
121.576
190.57
104.454
159.99
115.081
259.723
134.08
373.711
143.451
361.271
144.75
268.818
146.48
170.482
148.334
63.8168
137.874
-64.2201
117.59
-267.507
86.0258
-489.781
57.5289
-652.477
28.6585
-757.574
10.0764
-1261.11
49.2692
4300.75
40.2373
5783.25
-43.126
1555.9
-112.594
123.392
-161.795
243.644
-204.389
260.188
-235.839
218.168
-256.002
157.248
-259.407
47.2391
-259.434
-122.014
-236.782
29.8746
-189.214
204.776
-167.391
400.394
-152.866
449.073
-119.67
622.315
-63.6468
658.83
9.30053
235.415
18.1335
-548.659
13.2542
-805.825
39.8301
-804.781
87.2824
-829.706
94.158
-1062.75
74.7474
-1317.76
-1446.59
-41.173
366.523
-51.8641
532.324
-57.9991
704.265
-59.5147
886.472
-55.9324
1067.68
-47.4882
1216.15
-33.9312
1290.22
-7.696
1189.93
33.8506
724.862
83.1277
-122.493
104.466
-733.28
111.767
-848.705
110.968
-781.924
108.013
-627.048
99.494
-306.049
77.0754
175.083
63.8138
756.993
49.3693
1227.82
9.8083
1217.97
0.525701
2436.07
3.20593
2129.67
-27.7184
522.395
-34.9389
973.11
-27.2835
1155.44
-22.4136
1141.94
-17.6159
1091.66
-18.3879
908.203
-19.6613
928.707
-28.704
1064.68
-43.1549
1134.78
-33.9029
1203.61
15.8086
995.698
22.7664
597.094
85.7305
363.138
145.094
-22.07
170.045
-338.178
186.077
-508.173
173.523
-377.401
173.296
-108.05
171.22
94.2738
152.192
193.153
125.979
214.33
105.867
177.624
112.564
251.25
130.07
354.628
139.613
349.778
140.825
264.975
141.19
166.606
141.391
59.0166
131.313
-62.3714
111.415
-253.357
82.1571
-465.951
55.6649
-629.788
28.8174
-733.474
11.0959
-1244.65
50.6543
4260.86
42.0916
5791.28
-44.6321
1641.95
-111.248
188.356
-158.662
290.679
-201.619
302.299
-232.893
249.992
-255.401
182.056
-265.043
60.4383
-266.388
-117.821
-244.817
13.7091
-200.423
167.403
-169.878
377.579
-152.222
435.378
-115.069
586.85
-56.9409
602.189
16.7071
164.826
25.112
-550.291
26.3848
-804.926
47.2154
-822.443
83.1231
-862.852
91.1335
-1069.21
78.2656
-1303.68
-1413.99
-43.4035
377.208
-53.986
542.951
-59.7217
710.214
-60.7757
887.917
-56.7459
1064.06
-48.0061
1207.91
-33.8491
1276.91
-5.7791
1163.27
38.9902
684.133
87.5531
-167.834
108.852
-753.216
115.186
-854.544
112.811
-780.112
107.669
-623.527
95.9616
-296.812
70.0455
194.29
58.7245
768.623
45.5058
1240.84
5.38736
1258.04
-4.89806
2446.59
0.523245
2124.35
-25.1704
548.88
-31.5503
980.763
-24.0501
1149.33
-18.6526
1138.31
-13.6325
1088.4
-14.9484
911.545
-15.9628
931.568
-23.9994
1074.76
-35.7387
1148.83
-24.8678
1197.4
22.2343
960.613
39.2572
589.3
105.156
302.472
159.35
-70.9905
180.206
-354.479
196.478
-514.556
180.13
-352.968
176.248
-98.4661
173.826
101.671
156.844
214.229
130.851
244.428
107.891
204.548
110.286
252.487
125.942
341.841
135.657
342.285
137.063
265.241
136.413
168.281
135.164
60.779
125.617
-53.5525
106.462
-233.91
79.5576
-440.167
54.5249
-605.737
29.2219
-708.4
12.1929
-1228.66
52.178
4220.77
44.0801
5800.07
-45.3971
1732.35
-109.089
255.522
-156.708
340.106
-200.69
348.162
-234.337
285.976
-257.719
206.737
-270.178
74.4796
-272.294
-118.225
-251.897
-8.49524
-210.904
127.217
-170.664
336.932
-149.996
412.855
-109.409
543.417
-49.6751
539.337
20.2609
90.4627
34.2318
-564.624
35.7565
-807.005
52.9579
-838.868
82.8264
-892.188
89.45
-1077.32
71.573
-1287.06
-1397.86
-46.0241
388.241
-56.4075
553.295
-61.6816
715.398
-62.2199
888.423
-57.7102
1059.53
-48.6431
1198.93
-33.8243
1262.64
-3.96613
1134.57
44.1631
637.579
92.2339
-214.356
113.221
-773.322
118.221
-858.857
114.055
-775.477
106.516
-616.183
90.3667
-282.094
61.5365
217.738
53.0138
776.201
41.728
1250.84
0.293077
1297.84
-10.6143
2456.45
-1.96195
2114.4
-22.9554
565.376
-28.2692
983.529
-20.7076
1139.63
-14.7276
1130.44
-9.30642
1080.85
-10.803
910.304
-11.2489
928.924
-18.3921
1080.21
-28.2751
1157.31
-15.2883
1183.93
31.3396
913.483
57.2371
552.868
123.736
228.651
174.847
-125.43
193.038
-375.115
207.111
-535.177
187.25
-340.392
179.293
-94.9411
176.003
101.943
161.211
225.798
136.267
266.439
111.054
226.743
108.72
252.499
121.824
326.751
131.402
330.512
133.067
260.714
131.665
165.917
129.137
58.3901
119.734
-52.4109
100.75
-221.592
76.4007
-421.122
53.4307
-586.661
29.7073
-687.552
13.3831
-1213.74
53.8858
4179.87
46.1647
5807.17
-45.558
1823.2
-106.608
314.487
-154.531
387.418
-199.02
391.72
-234.866
322.254
-259.032
233.05
-273.618
93.1356
-276.763
-112.557
-257.778
-22.5021
-218.88
94.4801
-170.892
296.215
-146.353
392.615
-102.576
501.552
-41.5051
480.139
26.0529
26.9154
42.1547
-575.116
45.4433
-807.966
59.3019
-849.776
83.8871
-914.232
88.9218
-1080.6
77.5682
-1274.31
-1355.44
-49.04
399.411
-59.1369
563.407
-63.8819
720.34
-63.8479
888.762
-58.8241
1054.93
-49.3845
1190.03
-33.8468
1248.02
-2.43343
1104.77
49.374
590.759
97.1103
-259.087
117.531
-792.464
120.84
-861.668
114.657
-769.853
104.669
-607.909
85.8686
-266.276
56.0901
240.455
47.9352
784.379
38.1779
1260.17
-5.75636
1341.49
-16.5816
2467.34
-4.34389
2102.11
-21.0194
582.41
-25.1348
988.521
-17.2986
1132.8
-10.6587
1125.22
-4.66543
1076.25
-6.39476
913.566
-6.28135
930.119
-11.8769
1087.42
-19.2787
1166.76
-3.09801
1172.49
43.9244
877.133
76.3193
525.223
141.918
167.705
189.894
-168.304
205.49
-385.761
216.728
-536.897
194.252
-311.639
182.552
-78.2725
177.817
111.183
164.991
242.271
141.765
293.293
115.068
256.85
108.047
262.787
118.055
319.358
127.201
323.329
129.238
259.92
127.476
168.092
123.992
61.4961
115.052
-45.4567
96.6155
-203.884
74.6468
-400.616
53.0134
-566.332
30.3899
-665.475
14.5457
-1199.29
55.7143
4138.44
48.5588
5815.02
-42.8473
1915.74
-100.904
375.837
-151.964
440.2
-197.348
438.753
-235.511
362.684
-261.504
260.393
-276.865
110.242
-280.242
-112.304
-262.59
-42.4202
-224.83
56.9281
-171.048
242.193
-141.161
361.272
-94.611
451.877
-32.8264
414.772
33.5943
-43.9119
52.6948
-593.951
55.1357
-810.507
65.9529
-859.315
85.6751
-932.896
88.2815
-1084.23
74.7439
-1261.77
-1328.76
-52.4432
410.778
-62.1512
573.058
-66.3018
724.367
-65.6426
888.009
-60.0704
1049.25
-50.2021
1180.13
-33.8532
1232.07
-0.986235
1072.84
54.696
536.086
102.197
-305.882
121.686
-811.447
122.916
-862.335
114.503
-760.916
101.978
-595.362
79.1373
-244.295
48.9406
267.267
41.9963
790.514
33.6814
1267.31
-12.8288
1386.56
-22.7614
2476.26
-6.6505
2084.71
-19.3049
590.922
-22.1287
988.816
-13.8111
1122.24
-6.42372
1115.83
0.32962
1067.26
-1.80673
912.942
-1.36231
926.568
-4.63151
1089.03
-9.34957
1170.07
10.7404
1151.44
58.1266
826.579
97.2556
475.973
161.47
96.1426
206.276
-216.717
220.326
-402.647
226.17
-551.536
201.298
-294.689
185.977
-68.1718
179.33
114.281
168.148
249.879
147.196
311.055
120.068
280.691
108.641
271.532
114.897
310.806
123.043
312.865
125.279
254.789
123.288
166.375
118.988
60.982
110.006
-44.2382
91.7251
-193.146
72.0989
-386.012
52.4605
-550.589
31.0911
-647.007
15.689
-1185.36
57.7074
4095.99
50.9999
5821.04
-38.6433
2004.29
-94.4288
429.234
-148.727
493.655
-193.666
482.741
-230.116
399.488
-258.335
290.603
-277.682
134.608
-282.585
-105.028
-266.021
-54.3902
-229.493
25.8804
-171.858
190.685
-135.035
329.455
-85.4069
404.669
-22.9045
354.88
42.7116
-103.998
62.0954
-609.283
64.3665
-810.618
72.7856
-865.208
87.7525
-945.731
87.6639
-1082.44
68.5712
-1241.27
-1309.15
-56.2317
422.087
-65.4556
582.27
-68.9431
728.025
-67.6048
887.001
-61.4442
1043.48
-51.0694
1170.28
-33.8089
1215.71
0.235816
1040.28
60.1047
480.863
107.611
-351.191
125.641
-828.514
124.387
-860.666
113.552
-750.586
98.5819
-582.014
73.6495
-222.564
44.1921
290.574
34.5949
800.044
26.9924
1274.42
-20.7887
1434.02
-29.0985
2484.56
-8.92055
2064.36
-17.8027
599.873
-19.2751
990.813
-10.2867
1113.85
-2.08255
1108.67
5.42123
1060.78
3.35158
916.129
4.34746
926.473
3.62042
1091.07
1.98493
1173.58
29.182
1129.31
75.9919
789.433
120.067
434.486
181.385
39.0382
221.874
-252.303
234.371
-409.667
234.309
-542.757
207.889
-263.621
189.558
-45.7803
180.671
127.067
170.595
263.084
152.167
332.609
125.579
310.129
110.486
289.432
112.722
310.852
119.402
307.898
121.691
253.42
119.688
168.389
114.919
64.798
106.361
-38.4907
88.6678
-177.37
70.6603
-369.655
52.1075
-533.695
31.944
-627.718
16.7232
-1171.89
59.7946
4052.48
53.2805
5828.19
-40.0602
2098.77
-94.8979
486.968
-146.323
546.74
-189.854
527.892
-224.997
436.932
-253.271
320.461
-275.834
159.697
-284.223
-100.289
-268.347
-72.6696
-232.001
-10.5329
-172.029
130.331
-126.949
282.994
-75.0816
349.3
-11.6604
287.321
53.352
-173.885
72.3809
-628.143
74.6791
-812.761
81.2949
-870.367
90.0549
-953.222
87.4022
-1080.43
76.2566
-1230.8
-1268.64
-60.3909
433.395
-69.0239
590.825
-71.7839
730.62
-69.7156
884.766
-62.9221
1036.48
-51.9514
1159.13
-33.65
1197.61
1.27549
1005.98
65.437
416.693
113.285
-399.034
129.229
-844.27
125.079
-856.002
111.682
-736.521
94.2718
-564.245
66.108
-194.403
37.0552
318.385
25.918
810.679
19.0591
1280.28
-29.3977
1481.26
-35.5213
2489.73
-11.1326
2038.69
-16.4797
601.23
-16.5671
988.33
-6.72281
1101.61
2.34873
1097.46
10.709
1050.03
9.71367
914.349
11.5703
921.548
12.9907
1088.09
14.2677
1170.97
48.3145
1093.84
94.5235
737.34
144.994
374.859
201.771
-24.98
237.676
-291.984
249.709
-425.008
241.744
-546.288
214.226
-244.385
193.123
-30.5157
181.816
134.34
172.363
268.641
156.535
345.041
131.439
331.758
113.626
304.301
111.716
310.203
116.334
300.864
118.293
248.576
116.219
166.908
111.01
65.4293
102.216
-36.9379
84.7679
-168.384
67.6157
-357.319
51.0802
-521.146
32.8559
-612.464
17.6896
-1158.3
62.0667
4007.64
55.8339
5833.69
-42.0128
2195.3
-96.547
538.803
-143.638
592.779
-185.574
568.904
-220.412
472.145
-246.529
348.573
-269.734
189.009
-283.85
-83.6154
-269.52
-82.4488
-232.723
-42.127
-171.849
74.9317
-115.235
233.633
-64.0025
301.037
2.87606
223.812
65.4357
-225.267
81.4113
-641.192
85.587
-815.082
90.5597
-873.247
92.0939
-953.007
87.0425
-1073.75
73.815
-1216.08
-1238.1
-64.913
444.42
-72.859
598.731
-74.8247
732.724
-71.9742
882.191
-64.4937
1029.33
-52.8098
1147.92
-33.3254
1178.94
1.82877
972.115
70.5434
352.143
119.236
-446.563
132.334
-856.794
124.895
-848.222
108.854
-720.835
89.2031
-545.948
59.7535
-168.027
31.3605
342.106
17.7455
824.344
10.9169
1286.69
-38.453
1530.42
-41.9512
2493.22
-13.3112
2009.8
-15.3355
603.072
-14.0083
987.218
-3.18102
1090.97
6.81621
1088.13
16.2613
1041.26
16.7995
914.625
19.5002
919.535
23.0881
1085.74
27.7615
1168.21
66.174
1060.92
113.873
696.8
170.267
320.959
220.591
-71.023
251.119
-317.414
264.189
-431.438
247.848
-522.409
219.832
-212.577
196.58
-3.83479
182.856
151.544
173.484
280.819
160.086
361.277
137.168
357.196
117.786
326.186
112.088
317.951
114.304
300.233
115.661
247.988
113.617
168.801
108.325
69.5095
99.9514
-31.7998
83.1495
-154.589
66.3199
-342.186
50.5049
-507.31
33.6015
-596.726
18.5313
-1145.31
64.4515
3961.12
59.0249
5839.7
-37.4782
2292.92
-88.0944
591.943
-137.351
643.696
-181.043
614.307
-217.659
511.14