/*--------------------------------*- C++ -*----------------------------------*\
| =========                 |                                                 |
| \\      /  F ield         | OpenFOAM: The Open Source CFD Toolbox           |
|  \\    /   O peration     | Version:  4.1                                   |
|   \\  /    A nd           | Web:      www.OpenFOAM.org                      |
|    \\/     M anipulation  |                                                 |
\*---------------------------------------------------------------------------*/
FoamFile
{
    version     2.0;
    format      ascii;
    class       volVectorField;
    location    "22";
    object      U;
}
// * * * * * * * * * * * * * * * * * * * * * * * * * * * * * * * * * * * * * //

dimensions      [0 1 -1 0 0 0 0];

internalField   nonuniform List<vector> 
6785
(
(9.51023e-15 0.852189 15.7946)
(1.33483e-14 -4.89458 12.1215)
(-1.4273e-15 -4.19551 12.1321)
(4.16997e-15 -3.60119 11.9966)
(5.55356e-16 -3.00468 11.8778)
(-7.02195e-18 -2.5532 11.6992)
(2.17926e-15 -2.20882 11.4769)
(4.55646e-16 -1.96604 11.2116)
(-6.83986e-16 -1.79856 10.916)
(1.27677e-15 -1.71239 10.5882)
(1.55267e-16 -1.83747 10.1561)
(-5.06086e-16 -2.28568 9.53761)
(6.72494e-16 -2.51302 8.96377)
(-7.78455e-17 -1.06553 8.91356)
(-1.26536e-16 1.76575 7.47094)
(1.30468e-14 -5.35017 22.493)
(9.4842e-15 -14.6049 21.3939)
(-1.10004e-17 -13.2708 20.3411)
(5.11721e-15 -11.7697 19.5066)
(1.8763e-15 -11.1561 18.5043)
(3.96502e-17 -10.6595 17.5174)
(2.58733e-15 -10.0901 16.5714)
(1.49477e-15 -9.52501 15.6235)
(-7.21595e-16 -8.96545 14.6638)
(1.34506e-15 -8.36732 13.6946)
(8.60305e-16 -7.75709 12.7179)
(-4.28426e-16 -7.30335 11.7194)
(8.73371e-16 -7.01704 10.6244)
(2.87031e-16 -5.73095 9.16127)
(-1.43868e-16 -2.30498 4.5833)
(1.52814e-14 -7.71567 23.9802)
(9.6938e-15 -16.7731 24.6729)
(1.13557e-15 -13.7366 23.9372)
(6.02565e-15 -12.3062 22.6249)
(1.7915e-15 -11.6448 21.2413)
(1.18072e-15 -10.8141 20.0012)
(2.983e-15 -9.94033 18.7737)
(2.18512e-15 -9.10021 17.5247)
(1.932e-17 -8.28349 16.2654)
(1.87721e-15 -7.47537 15.0263)
(1.26953e-15 -6.66777 13.8177)
(1.12959e-16 -5.84182 12.4302)
(6.95552e-16 -4.81408 10.2755)
(1.08885e-16 -3.12645 6.68476)
(-2.65563e-18 -0.832181 1.6902)
(1.62683e-14 -8.50254 22.0461)
(1.3476e-14 -16.6211 24.332)
(6.13881e-16 -12.93 23.797)
(5.10587e-15 -12.1537 21.9985)
(1.72395e-15 -11.4201 20.5027)
(2.68509e-15 -10.4937 19.1721)
(2.74747e-15 -9.63396 17.8166)
(-1.15258e-16 -8.82369 16.4589)
(1.56991e-15 -8.05374 15.1229)
(6.11716e-16 -7.32392 13.8164)
(5.07312e-16 -6.55263 12.4394)
(3.72733e-17 -5.49109 10.5832)
(8.43165e-17 -3.78564 7.5092)
(-9.98634e-16 -1.49438 2.76704)
(-1.21445e-15 0.153409 -1.77292)
(1.48716e-14 -8.47592 19.7471)
(1.37691e-14 -16.3602 24.3121)
(2.66735e-15 -13.0993 23.66)
(4.50825e-15 -12.6281 21.5364)
(3.27273e-15 -11.8567 20.0246)
(2.47672e-16 -10.9577 18.6636)
(2.13946e-15 -10.1701 17.2585)
(-2.50169e-17 -9.4031 15.871)
(2.81695e-16 -8.65295 14.5235)
(5.51321e-16 -7.93093 13.2136)
(8.79954e-17 -7.16636 11.8294)
(-3.23122e-15 -6.11673 9.99665)
(-3.31322e-18 -4.42473 7.15641)
(-3.63117e-15 -2.3061 3.28916)
(-2.5088e-15 -0.787427 0.318665)
(1.36692e-14 -8.02075 17.5497)
(1.46028e-14 -16.0193 24.5272)
(2.90071e-15 -13.6449 24.046)
(4.43249e-15 -12.9949 21.7648)
(1.48728e-15 -12.1271 20.2153)
(-1.20943e-16 -11.2255 18.8466)
(2.07016e-15 -10.4398 17.4338)
(1.27698e-16 -9.64976 16.0431)
(-5.35651e-16 -8.86127 14.6932)
(4.73996e-16 -8.09422 13.3818)
(-7.78487e-16 -7.29831 12.0174)
(1.93464e-15 -6.28574 10.2825)
(3.14717e-16 -4.7345 7.72266)
(-1.34884e-15 -2.75799 4.37546)
(7.64941e-16 -0.950705 1.30028)
(1.26405e-14 -7.33282 15.2399)
(1.52941e-14 -15.4896 24.3513)
(5.53531e-15 -14.0276 24.4221)
(4.1431e-15 -13.1304 22.0677)
(2.91293e-15 -12.1475 20.4394)
(1.1823e-15 -11.2387 19.0541)
(2.14187e-15 -10.4391 17.6436)
(-1.57397e-16 -9.62308 16.2577)
(1.15951e-15 -8.81354 14.9071)
(4.9318e-16 -8.03073 13.5928)
(-2.85189e-17 -7.22768 12.2385)
(2.23184e-15 -6.24446 10.5519)
(4.87945e-16 -4.79247 8.11302)
(-6.93385e-16 -2.91963 4.955)
(4.45865e-15 -1.01434 1.80451)
(1.26593e-14 -6.54074 12.9926)
(1.54463e-14 -14.8396 23.7994)
(6.62118e-15 -14.2762 24.6697)
(3.93772e-15 -13.2452 22.3237)
(2.0227e-15 -12.1749 20.5819)
(2.18112e-15 -11.273 19.1656)
(2.07619e-15 -10.4725 17.7585)
(1.331e-15 -9.65094 16.3772)
(1.21981e-15 -8.84285 15.026)
(3.52317e-15 -8.06335 13.7096)
(2.97288e-16 -7.26342 12.3614)
(1.56837e-15 -6.29644 10.7066)
(4.24839e-16 -4.90266 8.34362)
(-7.30279e-16 -3.0985 5.28541)
(1.65111e-15 -1.13082 2.0609)
(9.3185e-15 -5.73816 11.0283)
(1.55172e-14 -14.1515 23.0389)
(7.33487e-15 -14.468 24.8475)
(3.95204e-15 -13.4195 22.6271)
(2.08256e-15 -12.2736 20.7588)
(1.86186e-15 -11.3686 19.2981)
(2.28012e-15 -10.5673 17.8949)
(1.158e-15 -9.74582 16.5171)
(7.7377e-16 -8.93992 15.1639)
(7.79454e-16 -8.16073 13.8446)
(3.26112e-16 -7.36113 12.499)
(-4.52518e-16 -6.40368 10.8711)
(4.15525e-16 -5.0514 8.57875)
(-5.27088e-16 -3.29696 5.60146)
(-3.92249e-15 -1.2588 2.28968)
(8.17467e-15 -4.98625 9.3778)
(1.53655e-14 -13.4509 22.1534)
(7.78018e-15 -14.5787 24.9399)
(4.43676e-15 -13.6033 22.9612)
(1.98704e-15 -12.3861 20.9758)
(1.23663e-15 -11.46 19.4574)
(2.49013e-15 -10.6524 18.0552)
(1.11376e-15 -9.83075 16.6806)
(4.68594e-16 -9.02456 15.3258)
(1.10724e-15 -8.24266 14.0033)
(-3.24052e-16 -7.44256 12.6578)
(-1.09111e-15 -6.49375 11.0486)
(1.48291e-15 -5.17505 8.81156)
(-5.67026e-16 -3.46111 5.89377)
(-1.50713e-15 -1.35632 2.50454)
(4.54977e-15 -4.34927 8.06081)
(1.52618e-14 -12.7825 21.24)
(9.87951e-15 -14.6135 24.9445)
(4.11381e-15 -13.7873 23.305)
(2.53583e-15 -12.5238 21.2365)
(9.37471e-16 -11.5694 19.6494)
(1.10776e-15 -10.7538 18.2394)
(1.96742e-15 -9.93345 16.865)
(4.34275e-16 -9.12712 15.5071)
(-5.97712e-16 -8.34179 14.1798)
(-9.31738e-16 -7.54037 12.8325)
(-1.46348e-15 -6.59975 11.2402)
(-1.05383e-15 -5.31164 9.05557)
(-3.11981e-15 -3.63507 6.19217)
(-3.65946e-15 -1.46146 2.72764)
(3.80423e-15 -3.73421 6.7791)
(1.29088e-14 -12.0707 20.1762)
(9.7479e-15 -14.5389 24.7743)
(4.55102e-15 -13.9065 23.5232)
(1.84006e-15 -12.5992 21.3872)
(-2.8969e-17 -11.604 19.7334)
(1.43602e-15 -10.7822 18.3292)
(2.40141e-15 -9.97028 16.9707)
(2.2891e-16 -9.17277 15.6253)
(-2.86235e-16 -8.39505 14.3085)
(1.23982e-15 -7.6024 12.9705)
(-6.85742e-17 -6.67398 11.3948)
(-8.52797e-16 -5.40799 9.24723)
(-2.82335e-15 -3.75647 6.41669)
(-3.73206e-15 -1.5242 2.88027)
(2.91526e-15 -3.41162 6.19773)
(1.36838e-14 -11.5686 19.3589)
(9.90923e-15 -14.5944 24.6685)
(4.72679e-15 -14.298 23.9828)
(2.78012e-15 -13.0526 21.8897)
(6.94706e-16 -12.0234 20.1207)
(1.74843e-15 -11.1715 18.6353)
(2.04481e-15 -10.3431 17.2332)
(-5.44878e-16 -9.52192 15.8516)
(-4.76499e-16 -8.71298 14.504)
(6.80997e-16 -7.89208 13.1483)
(-1.46813e-15 -6.95139 11.5959)
(-1.34131e-15 -5.7024 9.53557)
(-1.94692e-15 -4.05387 6.77647)
(-3.55055e-15 -1.71041 3.14564)
(2.08551e-15 -1.97002 2.76913)
(1.16984e-14 -9.99872 16.4941)
(9.77319e-15 -13.9388 23.3461)
(4.3847e-15 -13.9277 23.3328)
(2.25072e-15 -12.5548 21.1839)
(5.07798e-16 -11.4544 19.4626)
(1.02508e-15 -10.6964 18.2385)
(2.2383e-15 -10.0019 17.0881)
(-2.61144e-16 -9.31575 15.9239)
(-1.19194e-16 -8.63984 14.7493)
(2.1023e-16 -7.94612 13.5429)
(-1.39671e-15 -7.13589 12.1358)
(-1.06987e-15 -6.0167 10.2319)
(-2.87398e-15 -4.56025 7.74523)
(-2.6641e-15 -2.25968 4.45888)
(2.18296e-15 -4.24995 8.6799)
(1.18935e-14 -11.02 18.3421)
(1.2771e-14 -15.2643 24.8815)
(8.06908e-15 -16.7976 26.0061)
(4.03459e-15 -16.2982 24.3209)
(1.34591e-15 -15.1326 21.8799)
(2.72687e-16 -13.8359 19.5812)
(8.66116e-16 -12.592 17.6382)
(2.64192e-16 -11.3884 15.8228)
(-3.06589e-16 -10.217 14.1982)
(-3.16525e-16 -9.07487 12.6419)
(-1.51352e-15 -7.86223 10.991)
(-1.44199e-15 -6.45748 9.04355)
(-2.86105e-15 -4.52246 6.06633)
(-3.43822e-15 -1.04603 1.79494)
(-1.26598e-16 0.700162 -3.67239)
(-2.02075e-16 0.518351 -5.63692)
(-1.55451e-16 0.690737 -4.13941)
(-1.34937e-16 1.12981 -4.09908)
(-1.12806e-16 1.60815 -3.91078)
(-2.13955e-16 1.90927 -5.29241)
(-1.76931e-16 1.92659 -3.76259)
(-1.27445e-16 2.28762 -3.70892)
(-1.23851e-16 2.599 -3.5648)
(-1.87512e-15 3.32007 -4.54603)
(-9.70122e-17 2.86096 -3.27751)
(-3.9551e-17 3.14945 -3.10096)
(-1.14175e-16 4.36646 -3.82148)
(-1.03033e-16 3.43458 -2.74483)
(-8.9243e-17 3.77642 -2.70025)
(-5.89323e-17 3.88154 -2.62212)
(-1.92935e-16 5.14215 -3.14641)
(-1.03149e-16 3.95279 -2.29174)
(-7.24797e-17 4.11118 -2.19492)
(-2.01273e-16 5.71082 -2.54155)
(-1.21631e-16 4.20187 -1.84024)
(-1.19737e-16 4.51324 -1.81187)
(-9.26424e-17 4.52884 -1.78274)
(-2.17047e-16 5.89308 -1.97751)
(-1.23449e-16 4.31667 -1.46218)
(-1.16754e-16 4.66805 -1.43423)
(-1.19203e-16 4.6761 -1.42136)
(-2.42597e-16 5.88169 -1.47994)
(-1.44241e-16 4.36266 -1.12015)
(-1.30697e-16 4.42156 -1.1103)
(-2.42096e-16 5.85474 -0.993978)
(-1.37832e-16 4.20647 -0.77794)
(-1.32386e-16 4.40331 -0.761909)
(-1.40198e-16 4.39332 -0.784358)
(-2.4937e-16 5.40541 -0.564721)
(-1.53329e-16 3.95068 -0.484039)
(-1.39985e-16 3.96216 -0.51881)
(-2.3224e-16 5.10324 -0.173323)
(-1.42181e-16 3.60873 -0.211389)
(-1.49138e-16 3.73737 -0.206075)
(-1.11551e-16 3.72148 -0.251252)
(-1.75589e-16 4.4678 0.160661)
(-1.09073e-16 3.16118 0.0145209)
(-1.08602e-16 3.30669 0.0183415)
(-1.0612e-16 3.30715 -0.0305192)
(-1.44025e-16 3.81446 0.430833)
(-1.51597e-16 2.74447 0.242528)
(-1.43975e-16 2.74777 0.174364)
(-2.38516e-16 3.31977 0.74239)
(-9.27556e-17 2.43978 0.524804)
(-8.88334e-17 2.46735 0.529088)
(-8.4021e-17 2.45374 0.459341)
(-1.4132e-16 2.7771 1.12442)
(-8.12812e-17 2.00058 0.739221)
(-6.75269e-17 2.04286 0.735616)
(7.18199e-17 2.01253 0.671479)
(5.78424e-17 2.18955 1.27643)
(1.15823e-16 1.44316 0.71306)
(4.48972e-17 1.37721 0.655504)
(2.18964e-16 1.51224 0.820435)
(1.88975e-16 0.728726 0.143826)
(-2.32803e-16 0.67697 0.109936)
(-1.27365e-15 0.722929 0.151485)
(1.44288e-15 1.47086 -1.23994)
(7.62247e-17 -0.368113 -0.269088)
(-3.60806e-16 0.0799287 0.160345)
(-1.48626e-15 0.211047 1.48909)
(-1.31419e-15 -1.34106 3.44726)
(-1.16932e-15 -1.31534 3.38258)
(-1.19994e-15 -1.31196 3.54806)
(-1.54836e-15 -2.79973 6.54342)
(-1.07867e-15 -3.2106 6.21505)
(-1.12015e-15 -3.48912 6.32284)
(-1.16964e-15 -3.63972 6.49788)
(-5.03516e-16 -6.36163 10.1933)
(-6.27882e-16 -5.72148 8.27215)
(-7.77917e-16 -6.02371 8.75651)
(-8.04394e-16 -9.41786 12.8752)
(-5.04218e-16 -8.41472 9.90988)
(-6.5358e-16 -8.79004 10.6112)
(-1.09214e-15 -9.64785 12.3237)
(-9.20841e-16 -9.52212 12.2436)
(-8.59171e-16 -9.69654 12.5258)
(3.99107e-16 -11.7831 15.3845)
(-2.42078e-16 -10.4035 13.5585)
(-8.73406e-17 -10.7657 14.2642)
(-1.101e-16 -10.7587 14.4208)
(-6.78197e-17 -10.8348 14.547)
(-2.03187e-17 -10.9317 14.6975)
(2.42463e-17 -11.0127 14.8742)
(1.48419e-16 -11.1067 15.1983)
(3.49466e-16 -11.2373 15.592)
(1.20698e-15 -12.0304 17.0282)
(7.66307e-16 -11.5719 16.0062)
(8.58315e-16 -11.7122 16.2394)
(9.04129e-16 -11.6965 16.3735)
(1.02269e-15 -11.8609 16.7533)
(1.05895e-15 -11.8355 16.7886)
(1.1241e-15 -11.9172 16.9365)
(1.19243e-15 -11.9744 17.0637)
(1.29103e-15 -12.0411 17.2177)
(2.3392e-15 -12.4509 18.3238)
(1.8181e-15 -12.0817 17.575)
(1.91655e-15 -12.1844 17.7533)
(1.95265e-15 -12.2162 17.8404)
(2.00264e-15 -12.2565 17.9709)
(2.06429e-15 -12.2984 18.1702)
(2.16964e-15 -12.3704 18.3916)
(2.26036e-15 -12.3716 18.4573)
(2.33491e-15 -12.4405 18.5742)
(2.43593e-15 -12.4964 18.6746)
(3.34359e-15 -12.2246 18.9229)
(2.79758e-15 -12.1482 18.6274)
(2.90856e-15 -12.1821 18.727)
(2.96217e-15 -12.2111 18.7842)
(3.04247e-15 -12.2437 18.86)
(3.12004e-15 -12.2309 18.9575)
(3.24884e-15 -12.2852 19.1956)
(3.35515e-15 -12.3116 19.2664)
(3.47002e-15 -12.3547 19.2531)
(4.18309e-15 -11.2697 18.2298)
(3.7154e-15 -11.5242 18.4966)
(3.81596e-15 -11.4852 18.6045)
(3.84814e-15 -11.5195 18.7367)
(3.98639e-15 -11.4612 18.6502)
(4.1032e-15 -11.456 18.6217)
(4.24689e-15 -11.4291 18.5746)
(4.42027e-15 -11.415 18.5576)
(4.72211e-15 -11.4959 18.7288)
(5.36546e-15 -9.25939 15.9333)
(4.97473e-15 -10.1545 17.31)
(5.14943e-15 -9.98431 17.0264)
(5.27759e-15 -9.94651 16.9208)
(5.62384e-15 -9.90454 16.9317)
(5.71382e-15 -9.79648 16.7003)
(5.75041e-15 -9.69394 16.3614)
(5.80135e-15 -9.6517 15.9966)
(5.83983e-15 -9.52908 15.5395)
(5.9485e-15 -6.69688 11.3792)
(6.25486e-15 -7.90331 14.0615)
(6.0903e-15 -7.55235 13.2801)
(5.98067e-15 -7.48758 12.8279)
(5.85377e-15 -7.33599 12.21)
(5.78671e-15 -7.25387 11.5388)
(6.25985e-15 -6.96317 10.6961)
(5.76826e-15 -6.91418 10.0898)
(5.4762e-15 -6.72286 9.32868)
(5.0798e-15 -6.42517 8.4963)
(2.48919e-15 -3.3879 2.75697)
(4.4076e-15 -4.87886 6.68329)
(3.81051e-15 -4.34108 5.3056)
(3.55255e-15 -4.34146 4.85685)
(3.17245e-15 -4.08978 4.10534)
(2.71553e-15 -4.02684 3.26203)
(1.79522e-15 -3.85023 1.9067)
(8.42904e-16 -3.45191 0.585205)
(9.46719e-16 -3.38573 0.472891)
(1.09958e-15 -2.05911 -1.93346)
(8.44639e-16 -2.75922 0.328087)
(7.32674e-16 -2.49398 -0.424846)
(2.15567e-16 -1.56838 -2.40815)
(4.6331e-16 -2.52141 -2.12441)
(2.69384e-16 -1.69673 -1.83136)
(2.33271e-16 -1.32962 -1.27015)
(3.74767e-16 -1.57856 -1.85513)
(4.99345e-17 -0.766328 -1.1689)
(-2.34307e-17 -0.977955 -1.72994)
(6.87426e-17 -0.708015 -1.12179)
(3.49249e-16 -0.41185 -0.905898)
(5.25826e-16 -0.498544 -1.27529)
(5.65092e-16 -0.196793 -1.34073)
(4.50562e-16 0.0752408 -1.00417)
(4.78006e-16 -0.036093 -1.08219)
(5.19454e-16 0.302309 -0.90153)
(-1.08852e-16 0.308918 -0.91837)
(-1.18773e-16 0.426584 -0.908528)
(2.40555e-16 0.268759 -0.702627)
(-2.16292e-16 0.654044 -0.753599)
(-3.0471e-16 0.50578 -0.620275)
(-6.9742e-17 0.720072 -0.676809)
(-4.99347e-18 0.91394 -0.68044)
(-6.1673e-17 0.455199 -0.447555)
(2.8733e-16 1.00687 -0.545283)
(1.74966e-15 1.26206 -0.571731)
(-3.88719e-16 0.61955 -0.298327)
(-2.37374e-16 1.3621 -0.471076)
(-4.87704e-17 0.973561 -0.26344)
(-3.40449e-16 1.22948 -0.40153)
(-4.54153e-16 1.53225 -0.457307)
(-2.58392e-16 0.862051 -0.172507)
(-1.76604e-16 1.70841 -0.365666)
(-1.52565e-16 1.2702 -0.158622)
(-1.52182e-16 1.49652 -0.299319)
(-1.23615e-16 1.78959 -0.376549)
(-1.03581e-16 1.15462 -0.111448)
(7.60156e-17 1.75756 -0.23296)
(-3.66325e-17 2.11412 -0.324225)
(-1.05357e-16 1.30803 -0.0709013)
(-9.12179e-17 2.05576 -0.240831)
(-6.53521e-17 1.67703 -0.0990246)
(-6.28728e-17 1.87385 -0.199946)
(3.5955e-17 2.23896 -0.275719)
(4.0033e-17 1.45991 -0.0895657)
(6.91497e-17 2.3824 -0.221018)
(1.18578e-17 1.8612 -0.109684)
(2.97532e-17 2.10386 -0.195962)
(-8.27989e-18 2.4324 -0.267145)
(-3.23483e-17 1.67156 -0.107059)
(-2.21008e-17 2.32899 -0.176683)
(3.76199e-18 2.75287 -0.249213)
(-1.43359e-17 1.77505 -0.0914332)
(1.66965e-17 2.70389 -0.201652)
(1.5018e-17 2.15102 -0.123906)
(2.80978e-17 2.42173 -0.191166)
(-2.58042e-17 2.85388 -0.237799)
(-3.56465e-17 1.89295 -0.124283)
(-9.80606e-17 3.02022 -0.21041)
(-3.31201e-17 2.30469 -0.141839)
(-3.39459e-17 2.63452 -0.209403)
(-3.96048e-17 3.0286 -0.249937)
(-3.60823e-17 2.10983 -0.139289)
(-4.48876e-17 2.85638 -0.194597)
(4.8477e-16 3.36529 -0.237077)
(1.63009e-17 2.19105 -0.122326)
(1.55679e-17 3.36042 -0.211755)
(3.20609e-17 2.58672 -0.146972)
(9.3663e-17 2.95674 -0.214916)
(3.01438e-16 3.48232 -0.236728)
(-8.95958e-17 2.33573 -0.148629)
(-5.4039e-18 3.69543 -0.225345)
(-3.00685e-17 2.76905 -0.162101)
(-5.80855e-17 3.20584 -0.236821)
(4.06771e-17 3.68092 -0.263741)
(3.43165e-17 2.60895 -0.16578)
(4.91213e-17 3.44929 -0.227985)
(3.96714e-17 4.06004 -0.26794)
(2.92253e-17 2.69512 -0.161743)
(2.68568e-17 4.14803 -0.26974)
(1.73756e-17 3.09347 -0.189599)
(1.18883e-17 3.74754 -0.306009)
(-9.11342e-16 -0.36588 0.203941)
(-9.11518e-16 -0.551624 0.284392)
(-9.11089e-16 -0.821213 0.354049)
(-9.10515e-16 -1.122 0.396413)
(-9.09358e-16 -1.43307 0.413751)
(-9.07528e-16 -1.70605 0.390248)
(-9.05169e-16 -1.8604 0.330996)
(-9.02911e-16 -1.81054 0.251976)
(-9.01532e-16 -1.29517 0.158451)
(-9.00056e-16 -0.718144 -0.176403)
(-8.97773e-16 0.771338 -0.47074)
(-8.95929e-16 1.05154 -0.461072)
(-8.95356e-16 1.00508 -0.464545)
(-8.96382e-16 0.778122 -0.489238)
(-8.98321e-16 0.358411 -0.54079)
(-9.0192e-16 -0.21552 -0.589904)
(-9.03495e-16 -0.711652 -0.387751)
(-9.02982e-16 -1.45413 -0.649729)
(-9.03119e-16 -1.05572 -0.301779)
(-9.07283e-16 -3.24905 -0.144613)
(-8.68394e-16 -2.82497 -0.23124)
(-8.1679e-16 0.10849 0.101551)
(-8.08803e-16 -1.24093 0.478952)
(-8.12998e-16 -1.69995 0.220014)
(-8.1525e-16 -1.56731 0.32803)
(-8.15074e-16 -1.51971 0.255846)
(-8.09047e-16 -1.19067 0.218705)
(-7.9617e-16 -1.26014 0.397521)
(-7.86398e-16 -1.39158 0.273642)
(-7.79898e-16 -1.24866 0.188475)
(-7.80109e-16 -1.50242 0.295119)
(-7.85474e-16 -1.92802 0.576146)
(-7.71195e-16 -0.921901 -0.199146)
(-7.56496e-16 -0.439969 -0.601869)
(-7.55873e-16 -1.01238 -0.457231)
(-7.42461e-16 0.175497 -0.85488)
(-7.4415e-16 0.662413 -0.789781)
(-7.83447e-16 0.180985 -1.05945)
(-7.88346e-16 -0.17741 -1.02657)
(-7.87536e-16 -0.227126 -0.921974)
(-7.87064e-16 -0.0994874 -0.834453)
(-7.87277e-16 -0.200813 -0.702009)
(-7.87553e-16 -0.302223 -0.791229)
(-7.87632e-16 -0.741752 -0.752051)
(-7.87631e-16 -0.879337 -0.937409)
(-7.87989e-16 -0.689795 -1.10744)
(-7.8848e-16 -0.503789 -1.14684)
(-7.88934e-16 -0.425694 -1.16321)
(-7.89102e-16 -0.291598 -1.20237)
(-7.8903e-16 0.0069958 -1.24286)
(-7.89062e-16 0.637887 -1.28132)
(-7.88806e-16 1.08607 -1.14541)
(-7.88969e-16 1.31807 -0.824178)
(-7.87706e-16 1.57821 -0.567776)
(-8.15285e-16 1.98747 0.113526)
(-5.25906e-16 -6.23317 -0.245717)
(-3.41836e-16 -7.59125 -0.262753)
(-2.25223e-16 -1.21483 -0.19031)
(7.7464e-17 0.744197 0.152561)
(1.31786e-16 0.548832 0.879655)
(3.20366e-16 0.267386 1.3185)
(3.95775e-16 0.123743 1.46522)
(3.6579e-16 -0.111806 1.31533)
(3.63927e-16 -0.0627239 1.24276)
(3.63847e-16 0.0805777 1.17965)
(3.65324e-16 -0.309907 0.767639)
(3.73464e-16 -1.16457 0.186271)
(3.75155e-16 -0.396834 0.442067)
(3.73524e-16 -0.341324 0.709233)
(3.6341e-16 -0.948846 0.775956)
(3.41875e-16 -1.40489 0.764189)
(3.09547e-16 -1.48862 0.521253)
(2.7721e-16 0.644775 0.151565)
(2.81661e-16 1.293 -0.10401)
(2.20255e-16 0.870623 0.508709)
(1.99704e-16 -0.47584 0.273084)
(2.18354e-16 1.15003 -0.569472)
(2.43694e-16 1.91454 -0.616118)
(3.09771e-16 2.26884 -0.652047)
(-9.11361e-16 -0.383737 0.205102)
(-9.11499e-16 -0.581945 0.283352)
(-9.11067e-16 -0.85613 0.346703)
(-9.10474e-16 -1.15626 0.384807)
(-9.09299e-16 -1.46494 0.397183)
(-9.07462e-16 -1.7343 0.369395)
(-9.05114e-16 -1.88967 0.305222)
(-9.02887e-16 -1.84593 0.221984)
(-9.01512e-16 -1.3787 0.195632)
(-8.99933e-16 -0.530596 -0.242993)
(-8.97476e-16 0.776383 -0.475415)
(-8.95534e-16 1.0507 -0.495082)
(-8.94935e-16 1.01289 -0.508366)
(-8.96058e-16 0.795243 -0.533228)
(-8.98189e-16 0.378237 -0.582528)
(-9.0117e-16 -0.0776253 -0.624583)
(-9.0328e-16 -0.706761 -0.381242)
(-9.03001e-16 -1.44493 -0.578289)
(-9.03099e-16 -1.13272 -0.228933)
(-9.07336e-16 -3.22767 -0.143488)
(-8.6892e-16 -2.80571 -0.267627)
(-8.18611e-16 0.231315 0.0589432)
(-8.08882e-16 -1.17237 0.538099)
(-8.13095e-16 -1.63964 0.273288)
(-8.15297e-16 -1.49933 0.361003)
(-8.14981e-16 -1.46515 0.287222)
(-8.0863e-16 -1.14183 0.257933)
(-7.9589e-16 -1.25075 0.374461)
(-7.86323e-16 -1.38448 0.186273)
(-7.79865e-16 -1.305 0.0587204)
(-7.8033e-16 -1.47967 0.201239)
(-7.85273e-16 -1.8389 0.442711)
(-7.72248e-16 -0.764199 -0.255986)
(-7.65713e-16 -0.656802 0.115612)
(-7.62238e-16 -0.963463 -0.404183)
(-7.43686e-16 0.0833489 -0.794301)
(-7.36793e-16 0.695157 -0.561812)
(-7.72362e-16 0.671818 -0.773276)
(-7.84876e-16 0.193107 -0.968534)
(-7.86809e-16 0.123347 -0.958014)
(-7.86826e-16 0.322214 -0.842513)
(-7.87126e-16 0.236991 -0.647403)
(-7.87475e-16 0.113748 -0.678149)
(-7.8762e-16 -0.409287 -0.730637)
(-7.87621e-16 -0.642581 -0.953705)
(-7.87899e-16 -0.465708 -1.1355)
(-7.8834e-16 -0.229436 -1.1682)
(-7.88804e-16 -0.13165 -1.18613)
(-7.89047e-16 0.00293898 -1.24661)
(-7.89071e-16 0.408356 -1.36002)
(-7.89089e-16 0.595724 -1.24437)
(-7.8885e-16 1.02017 -1.057)
(-7.89171e-16 1.24202 -0.715826)
(-7.87512e-16 1.44758 -0.511881)
(-8.16774e-16 1.92468 0.107855)
(-5.26959e-16 -6.15976 -0.24716)
(-3.4256e-16 -7.59984 -0.275288)
(-2.25514e-16 -1.23734 -0.184185)
(9.32263e-17 0.612896 0.198703)
(1.62113e-16 0.520041 0.963901)
(3.43454e-16 0.00614398 1.24767)
(3.94481e-16 -0.0589333 1.48954)
(3.68627e-16 -0.135567 1.42825)
(3.67522e-16 -0.230237 1.28101)
(3.58825e-16 0.0146532 1.2634)
(3.62397e-16 -0.439275 0.927492)
(3.71049e-16 -0.890537 0.416073)
(3.7572e-16 -0.527332 0.359253)
(3.72295e-16 -0.680264 0.672905)
(3.61187e-16 -1.04524 0.780568)
(3.39289e-16 -1.39269 0.76233)
(3.07475e-16 -1.33674 0.478163)
(2.7543e-16 1.209 0.279839)
(2.82926e-16 1.24148 -0.139332)
(2.19598e-16 0.989833 0.672856)
(1.99663e-16 0.0268489 0.248591)
(2.22433e-16 1.22971 -0.620262)
(2.46842e-16 1.91319 -0.638753)
(3.12488e-16 2.2437 -0.576252)
(-9.11379e-16 -0.391974 0.19534)
(-9.11478e-16 -0.594323 0.277035)
(-9.11039e-16 -0.863147 0.337852)
(-9.10424e-16 -1.1554 0.375186)
(-9.09227e-16 -1.45443 0.385833)
(-9.0738e-16 -1.71193 0.356773)
(-9.05047e-16 -1.85599 0.292109)
(-9.02856e-16 -1.79923 0.209891)
(-9.01494e-16 -1.29749 0.205418)
(-8.99872e-16 -0.465741 -0.281793)
(-8.97264e-16 0.792288 -0.484611)
(-8.95245e-16 1.0576 -0.51922)
(-8.94641e-16 1.0158 -0.536733)
(-8.95843e-16 0.799643 -0.560219)
(-8.98105e-16 0.38101 -0.614081)
(-9.00642e-16 -0.171936 -0.663233)
(-9.03062e-16 -0.750108 -0.427807)
(-9.03004e-16 -1.47212 -0.569768)
(-9.03063e-16 -1.20715 -0.205505)
(-9.07398e-16 -3.22924 -0.12434)
(-8.69543e-16 -2.81872 -0.265503)
(-8.19811e-16 -0.0430416 0.0803989)
(-8.08965e-16 -1.20504 0.524073)
(-8.13208e-16 -1.65276 0.274333)
(-8.15347e-16 -1.5424 0.356225)
(-8.14876e-16 -1.50389 0.28028)
(-8.08255e-16 -1.21241 0.25163)
(-7.95609e-16 -1.29353 0.324923)
(-7.86186e-16 -1.39552 0.125761)
(-7.79863e-16 -1.3342 0.106138)
(-7.80481e-16 -1.56689 0.265507)
(-7.85561e-16 -1.79494 0.407195)
(-7.7417e-16 -0.808317 -0.228755)
(-7.73483e-16 -0.72349 0.218213)
(-7.66714e-16 -0.816338 -0.349479)
(-7.48782e-16 0.122503 -0.817434)
(-7.35765e-16 0.59421 -0.656818)
(-7.62751e-16 0.509941 -0.719011)
(-7.80928e-16 0.0704125 -0.990326)
(-7.85694e-16 -0.0439757 -1.00633)
(-7.86431e-16 0.0654229 -0.883087)
(-7.86915e-16 0.0252726 -0.676893)
(-7.87363e-16 -0.0712498 -0.659781)
(-7.87599e-16 -0.500513 -0.738386)
(-7.87615e-16 -0.698534 -0.949277)
(-7.87815e-16 -0.558773 -1.1116)
(-7.882e-16 -0.361402 -1.14952)
(-7.88661e-16 -0.257957 -1.17982)
(-7.88965e-16 -0.122324 -1.24387)
(-7.89065e-16 0.198431 -1.33092)
(-7.89021e-16 0.56299 -1.184)
(-7.88769e-16 0.985149 -1.0031)
(-7.89274e-16 1.19861 -0.666883)
(-7.87483e-16 1.39123 -0.487354)
(-8.17766e-16 1.89785 0.0890514)
(-5.28354e-16 -6.10508 -0.246636)
(-3.43473e-16 -7.60268 -0.283948)
(-2.24138e-16 -1.28238 -0.187161)
(1.04843e-16 0.495871 0.282202)
(1.72794e-16 0.299839 0.991756)
(3.50239e-16 0.0320495 1.27816)
(3.87181e-16 -0.00789536 1.50438)
(3.64809e-16 -0.0932977 1.49291)
(3.63e-16 -0.154117 1.32349)
(3.52733e-16 0.0910295 1.34169)
(3.59608e-16 -0.335775 1.03549)
(3.70929e-16 -0.885819 0.555499)
(3.75266e-16 -0.514794 0.415904)
(3.70234e-16 -0.571183 0.699432)
(3.58215e-16 -0.995427 0.831473)
(3.36021e-16 -1.33549 0.777266)
(3.05131e-16 -1.14662 0.466656)
(2.79159e-16 0.895973 0.0816003)
(2.86761e-16 1.28164 -0.128613)
(2.27038e-16 0.872049 0.614258)
(2.00351e-16 0.0267297 0.164125)
(2.2782e-16 1.29001 -0.658252)
(2.49864e-16 1.90474 -0.649564)
(3.14138e-16 2.21818 -0.532083)
(-9.11396e-16 -0.399191 0.189336)
(-9.11456e-16 -0.604308 0.275131)
(-9.11009e-16 -0.868612 0.334301)
(-9.1037e-16 -1.15435 0.371503)
(-9.0915e-16 -1.44597 0.38106)
(-9.07292e-16 -1.69545 0.351368)
(-9.04974e-16 -1.83443 0.286876)
(-9.02823e-16 -1.77566 0.204959)
(-9.01482e-16 -1.26554 0.191827)
(-8.99799e-16 -0.365583 -0.305979)
(-8.97031e-16 0.805326 -0.495366)
(-8.94931e-16 1.06247 -0.545432)
(-8.94326e-16 1.02088 -0.566896)
(-8.95627e-16 0.809297 -0.588799)
(-8.98048e-16 0.391478 -0.643873)
(-9.00266e-16 -0.177212 -0.697217)
(-9.0289e-16 -0.787151 -0.456106)
(-9.03006e-16 -1.4877 -0.573275)
(-9.03019e-16 -1.24173 -0.213779)
(-9.07449e-16 -3.21751 -0.106196)
(-8.70143e-16 -2.82362 -0.256158)
(-8.20651e-16 -0.186555 0.086039)
(-8.09042e-16 -1.22628 0.49728)
(-8.13316e-16 -1.63829 0.266181)
(-8.1539e-16 -1.54897 0.344246)
(-8.14776e-16 -1.49747 0.265364)
(-8.07935e-16 -1.20742 0.232853)
(-7.95238e-16 -1.26241 0.279446)
(-7.85905e-16 -1.3667 0.111571)
(-7.80103e-16 -1.34369 0.166539)
(-7.80823e-16 -1.60578 0.299979)
(-7.85981e-16 -1.74677 0.372652)
(-7.76505e-16 -0.810225 -0.196495)
(-7.78017e-16 -0.748078 0.189885)
(-7.69801e-16 -0.673439 -0.336316)
(-7.52225e-16 0.148413 -0.812386)
(-7.35797e-16 0.61865 -0.730336)
(-7.53933e-16 0.506032 -0.718871)
(-7.76306e-16 0.0643822 -0.999871)
(-7.84175e-16 -0.0793112 -1.03667)
(-7.85891e-16 -0.00423713 -0.916333)
(-7.86649e-16 -0.0336838 -0.710315)
(-7.87218e-16 -0.104063 -0.65577)
(-7.87557e-16 -0.490676 -0.741427)
(-7.87603e-16 -0.676978 -0.937645)
(-7.87743e-16 -0.55746 -1.0832)
(-7.88065e-16 -0.378152 -1.12266)
(-7.88506e-16 -0.274799 -1.15835)
(-7.88844e-16 -0.134773 -1.22165)
(-7.88988e-16 0.172862 -1.28322)
(-7.88927e-16 0.539534 -1.13807)
(-7.88711e-16 0.939822 -0.958125)
(-7.89385e-16 1.14488 -0.616234)
(-7.87398e-16 1.31947 -0.458674)
(-8.18832e-16 1.86009 0.072897)
(-5.29925e-16 -6.0619 -0.245887)
(-3.44446e-16 -7.61949 -0.289983)
(-2.20674e-16 -1.38592 -0.192229)
(1.18878e-16 0.41406 0.373915)
(1.78264e-16 0.155796 0.968051)
(3.55597e-16 -0.0194758 1.30651)
(3.83656e-16 -0.0308516 1.5036)
(3.61523e-16 -0.0667981 1.5513)
(3.60137e-16 -0.109596 1.37302)
(3.51024e-16 0.132033 1.42164)
(3.57937e-16 -0.258464 1.15156)
(3.69508e-16 -0.753133 0.710606)
(3.7411e-16 -0.573478 0.509493)
(3.67583e-16 -0.591416 0.762052)
(3.54883e-16 -1.00061 0.871633)
(3.32555e-16 -1.30313 0.77478)
(3.0286e-16 -1.01111 0.445823)
(2.8378e-16 0.806876 0.00853262)
(2.90034e-16 1.26689 -0.113174)
(2.38177e-16 0.953385 0.550874)
(2.03627e-16 0.132477 0.114031)
(2.34169e-16 1.33036 -0.691877)
(2.53636e-16 1.89269 -0.658373)
(3.16808e-16 2.18322 -0.539785)
(-9.11411e-16 -0.408859 0.186189)
(-9.11432e-16 -0.617273 0.27632)
(-9.10977e-16 -0.877987 0.333889)
(-9.10312e-16 -1.15812 0.370822)
(-9.09068e-16 -1.44323 0.378936)
(-9.07201e-16 -1.68568 0.348097)
(-9.04899e-16 -1.82058 0.2831)
(-9.0279e-16 -1.75923 0.200018)
(-9.01477e-16 -1.24249 0.170565)
(-8.9972e-16 -0.282971 -0.326148)
(-8.96786e-16 0.823152 -0.510064)
(-8.94602e-16 1.07016 -0.572105)
(-8.94002e-16 1.02572 -0.596936)
(-8.95423e-16 0.81645 -0.615433)
(-8.98023e-16 0.398885 -0.669704)
(-9.00015e-16 -0.173551 -0.719412)
(-9.02756e-16 -0.821987 -0.482462)
(-9.03019e-16 -1.50712 -0.570612)
(-9.02977e-16 -1.29064 -0.223367)
(-9.07485e-16 -3.2124 -0.0865904)
(-8.70679e-16 -2.82842 -0.241234)
(-8.21222e-16 -0.287587 0.0876226)
(-8.09113e-16 -1.23504 0.466828)
(-8.13416e-16 -1.62014 0.255052)
(-8.15426e-16 -1.54819 0.329287)
(-8.14678e-16 -1.49147 0.248174)
(-8.07663e-16 -1.20621 0.214549)
(-7.94967e-16 -1.24883 0.247346)
(-7.85659e-16 -1.35645 0.10466)
(-7.79121e-16 -1.36335 0.187817)
(-7.81103e-16 -1.63185 0.321412)
(-7.86668e-16 -1.68358 0.333273)
(-7.79255e-16 -0.813936 -0.169711)
(-7.80813e-16 -0.755447 0.0762774)
(-7.72386e-16 -0.545976 -0.361707)
(-7.55463e-16 0.185414 -0.827076)
(-7.37315e-16 0.601541 -0.813771)
(-7.46418e-16 0.526367 -0.756126)
(-7.71196e-16 0.0914988 -1.00894)
(-7.82285e-16 -0.0816506 -1.05977)
(-7.85229e-16 -0.0386308 -0.945032)
(-7.86339e-16 -0.0587698 -0.745388)
(-7.87045e-16 -0.10747 -0.662005)
(-7.87495e-16 -0.454599 -0.741386)
(-7.87584e-16 -0.640607 -0.924408)
(-7.87678e-16 -0.53989 -1.05532)
(-7.87934e-16 -0.369401 -1.09122)
(-7.88339e-16 -0.261828 -1.12771)
(-7.88694e-16 -0.122846 -1.19062)
(-7.88873e-16 0.156924 -1.23612)
(-7.88819e-16 0.500952 -1.09384)
(-7.88658e-16 0.888868 -0.911279)
(-7.89525e-16 1.09609 -0.567709)
(-7.87349e-16 1.25993 -0.432409)
(-8.19844e-16 1.82859 0.0619081)
(-5.31592e-16 -6.01656 -0.246416)
(-3.45443e-16 -7.63553 -0.294689)
(-2.15378e-16 -1.4799 -0.194075)
(1.37439e-16 0.338157 0.509465)
(1.86323e-16 0.0596457 0.942227)
(3.60822e-16 -0.0692599 1.29901)
(3.79151e-16 -0.0516863 1.46803)
(3.59194e-16 -0.076516 1.61169)
(3.57947e-16 -0.102558 1.42392)
(3.49611e-16 0.147111 1.50007)
(3.55524e-16 -0.212059 1.26511)
(3.66841e-16 -0.65432 0.86857)
(3.71884e-16 -0.592141 0.633289)
(3.64589e-16 -0.618723 0.830315)
(3.51332e-16 -0.994325 0.906146)
(3.29049e-16 -1.24928 0.766605)
(3.00688e-16 -0.878482 0.423289)
(2.87388e-16 0.724326 0.00103516)
(2.92821e-16 1.22487 -0.102823)
(2.5003e-16 0.946692 0.491776)
(2.19653e-16 0.44005 0.0692622)
(2.41953e-16 1.36231 -0.718697)
(2.57535e-16 1.87555 -0.662192)
(3.19015e-16 2.14344 -0.466535)
(-9.11425e-16 -0.419517 0.184939)
(-9.11407e-16 -0.631191 0.279602)
(-9.10942e-16 -0.888275 0.335461)
(-9.10251e-16 -1.163 0.371898)
(-9.08983e-16 -1.44164 0.378216)
(-9.07106e-16 -1.67697 0.345857)
(-9.04821e-16 -1.80699 0.280125)
(-9.02757e-16 -1.73966 0.195557)
(-9.01477e-16 -1.21014 0.145304)
(-8.99638e-16 -0.20337 -0.350598)
(-8.96527e-16 0.842328 -0.527675)
(-8.94257e-16 1.07858 -0.599208)
(-8.93673e-16 1.03065 -0.625912)
(-8.95236e-16 0.823964 -0.639652)
(-8.98039e-16 0.406894 -0.692115)
(-8.99891e-16 -0.173571 -0.726905)
(-9.02679e-16 -0.857537 -0.504711)
(-9.03042e-16 -1.52751 -0.564043)
(-9.02946e-16 -1.34344 -0.229001)
(-9.07503e-16 -3.2108 -0.0652632)
(-8.71136e-16 -2.834 -0.222194)
(-8.216e-16 -0.375393 0.0875238)
(-8.09179e-16 -1.24211 0.435859)
(-8.13508e-16 -1.60421 0.241985)
(-8.15456e-16 -1.54644 0.311849)
(-8.14586e-16 -1.48732 0.22947)
(-8.07443e-16 -1.20889 0.197986)
(-7.94917e-16 -1.24308 0.219855)
(-7.85434e-16 -1.35452 0.0993145)
(-7.77073e-16 -1.38656 0.241887)
(-7.81081e-16 -1.64181 0.324869)
(-7.87361e-16 -1.62711 0.293775)
(-7.82491e-16 -0.809524 -0.146611)
(-7.83843e-16 -0.753116 0.0162183)
(-7.74881e-16 -0.448434 -0.396818)
(-7.58625e-16 0.227171 -0.847851)
(-7.39691e-16 0.604612 -0.883011)
(-7.40736e-16 0.537213 -0.81418)
(-7.6576e-16 0.107147 -1.01953)
(-7.7996e-16 -0.0914802 -1.07925)
(-7.84398e-16 -0.0791419 -0.970104)
(-7.85972e-16 -0.0907556 -0.775793)
(-7.86841e-16 -0.119355 -0.669717)
(-7.87418e-16 -0.425595 -0.737514)