/*--------------------------------*- C++ -*----------------------------------*\
| =========                 |                                                 |
| \\      /  F ield         | OpenFOAM: The Open Source CFD Toolbox           |
|  \\    /   O peration     | Version:  4.1                                   |
|   \\  /    A nd           | Web:      www.OpenFOAM.org                      |
|    \\/     M anipulation  |                                                 |
\*---------------------------------------------------------------------------*/
FoamFile
{
    version     2.0;
    format      ascii;
    class       surfaceScalarField;
    location    "8";
    object      phi;
}
// * * * * * * * * * * * * * * * * * * * * * * * * * * * * * * * * * * * * * //

dimensions      [0 3 -1 0 0 0 0];

internalField   nonuniform List<scalar> 
13220
(
-800.946
2100.85
-1256.52
1755.77
-1722.63
1766.01
-2067.32
1644.59
-2350.89
1583.77
-2556.7
1505.71
-2692.56
1435.76
-2757.61
1365.25
-2756.05
1298.33
-2686.67
1230.52
-2539.24
1152.77
-2277.39
1038.05
-1812.67
835.18
-1043.09
530.62
256.812
-212.355
2313.2
-472.877
2016.3
-758.659
2051.79
-983.623
1869.56
-1199.56
1799.7
-1369.51
1675.66
-1511.57
1577.82
-1616.9
1470.59
-1691.58
1373.01
-1732.58
1271.53
-1718.97
1139.16
-1595.53
914.617
-1272.08
511.729
-622.355
-119.102
-365.543
-114.174
2427.38
-296.829
2198.95
-416.756
2171.72
-479.485
1932.29
-528.362
1848.58
-535.119
1682.42
-518.682
1561.39
-473.926
1425.83
-404.649
1303.73
-313.891
1180.77
-210.312
1035.58
-113.829
818.138
-46.6579
444.575
-2.31359
-163.429
-367.857
103.238
2324.14
104.273
2197.92
158.6
2117.4
235.25
1855.64
315.849
1767.98
416.377
1581.89
525.043
1452.72
640.66
1310.22
756.529
1187.86
869.592
1067.71
964.573
940.599
989.791
792.92
842.68
591.685
311.045
368.203
-56.8119
94.5422
2229.6
141.052
2151.41
208.256
2050.19
277.133
1786.76
344.585
1700.53
423.529
1502.95
502.579
1373.67
605.625
1207.17
725.258
1068.23
839.402
953.565
907.034
872.967
888.009
811.945
725.274
754.421
423.802
669.677
366.99
-9.6393
2239.24
5.88218
2135.89
13.3508
2042.72
-8.98772
1809.1
-33.9058
1725.45
-73.7854
1542.83
-92.8059
1392.69
-34.4755
1148.84
122.086
911.668
344.243
731.407
557.348
659.861
669.426
699.863
598.206
825.638
357.462
910.416
724.451
-115.678
2354.92
-261.363
2281.57
-384.462
2165.82
-548.931
1973.57
-719.204
1895.72
-918.887
1742.51
-1107.74
1581.55
-1245.47
1286.56
-1294.91
961.116
-1235.14
671.632
-1048.96
473.682
-736.993
387.895
-371.215
459.861
-87.8131
627.016
636.638
44.1755
2310.74
-178.829
2504.58
-327.093
2314.08
-464.59
2111.07
-593.709
2024.84
-732.292
1881.09
-892.783
1742.04
-1098.57
1492.35
-1339.48
1202.03
-1568.81
900.957
-1704.02
608.894
-1631.94
315.805
-1255.38
83.3007
-609.304
-19.063
27.3344
320.75
1989.99
227.962
2597.37
156.772
2385.27
147.776
2120.06
181.569
1991.05
223.219
1839.44
256.684
1708.58
223.717
1525.32
112.975
1312.77
-59.639
1073.57
-260.737
809.991
-455.485
510.553
-542.263
170.079
-423.653
-137.673
-396.319
377.343
1612.65
443.375
2531.33
460.545
2368.1
529.129
2051.48
645.518
1874.66
771.318
1713.64
903.035
1576.86
1003.95
1424.4
1053.18
1263.55
1035.56
1091.19
939.482
906.065
743.151
706.881
441.45
471.777
104.155
199.618
-292.164
218.184
1394.46
299.7
2449.82
345.364
2322.44
407.901
1988.94
494.25
1788.31
582.602
1625.29
667.463
1492
737.446
1354.41
781.9
1219.09
788.845
1084.24
750.618
944.291
658.29
799.209
501.014
629.053
280.192
420.439
-11.9723
74.6704
1319.79
145.706
2378.78
204.28
2263.86
245.653
1947.57
290.121
1743.84
332.327
1583.08
370.626
1453.7
399.135
1325.91
416.995
1201.23
422.135
1079.1
410.226
956.199
374.278
835.156
298.696
704.633
164.112
555.018
152.14
39.7156
1280.07
123.139
2295.36
227.774
2159.23
338.812
1836.53
446.265
1636.39
534.362
1494.99
597.407
1390.65
635.883
1287.43
650.948
1186.17
648.594
1081.46
625.033
979.76
568.118
892.071
454.3
818.45
265.735
743.582
417.875
176.601
1103.47
295.207
2176.75
266.101
2188.33
183.175
1919.45
129.09
1690.47
115.169
1508.91
154.607
1351.21
247.165
1194.87
380.903
1052.43
522.443
939.918
624.275
877.929
620.512
895.834
483.983
954.979
255.89
971.675
673.765
497.376
1485.72
2168.25
2364.3
2229.86
1979.53
1630.03
1286.31
983.2
780.165
598.68
455.246
319.436
206.014
1.05976e-05
-19.5187
19.5187
-19.5187
-19.5187
-19.5187
141.357
-160.876
141.357
141.357
141.357
294.847
-153.489
294.847
294.847
428.791
-133.944
428.791
428.791
428.791
536.142
-107.351
536.142
536.142
613.056
-76.9144
613.056
613.056
613.056
647.586
-34.5299
647.586
647.586
647.586
638.506
9.08026
638.506
638.506
611.832
26.6745
611.832
611.832
611.832
549.61
62.2214
549.61
549.61
456.671
92.9395
456.671
456.671
456.671
358.932
97.7392
358.932
358.932
358.932
305.909
53.0221
305.909
305.909
272.373
33.5362
272.373
272.373
272.373
200.209
72.1646
200.209
200.209
200.209
63.5139
136.695
63.5139
63.5139
-105.316
168.83
-105.316
-105.316
-105.316
-402.255
296.939
-402.255
-402.255
-1205.55
803.297
-1205.55
-1205.55
-1205.55
-2527.4
1321.85
-2527.4
-2527.4
-2527.4
-4218.48
1691.08
-4218.48
-4218.48
-6137.62
1919.14
-6137.62
-6137.62
-5975.29
-5813.51
-5648.34
-7581.08
2101.39
-7416.44
-7227.13
-7025.2
-6822.46
-6617.96
-6411.5
-6207.18
-6006.41
-8109.88
2308.19
-7904.28
-7697.56
-7491.45
-7301.16
-7108.74
-6914.06
-6718.23
-6519.44
-8809.37
2482.69
-8612.51
-8413.42
-8212.3
-8009.59
-7804.32
-7595.01
-7383.04
-7167.98
-6949.04
-9469.97
2738.03
-9225.19
-8975.03
-8720.84
-8463.66
-8203.6
-7925.12
-7635.74
-7343.57
-9897.56
2832.53
-9603.68
-9298.8
-8978.26
-8658.5
-8339
-8021.35
-7703.94
-7363.31
-9382.09
2339.38
-9051.69
-8721.52
-8391.69
-8046.22
-7695.39
-7348.15
-7003.35
-6663.28
-7939.06
1604.66
-7598.08
-7267.41
-6945.58
-6634.68
-6335.41
-6029.19
-5736.24
-5455.34
-5186.37
-4944.55
33.1732
-4702.36
-4474.98
-4250.43
-4029.57
-3810.88
-3629.8
-3519.69
-3406.42
-3159.27
-123.074
-3052.49
-2948.84
-2948.84
-2856.38
-92.4626
-2743.02
-113.357
-2743.02
-2657.53
-85.4842
-2657.53
-2594.5
-63.0331
-2534.87
-59.6316
-2534.87
-2491.73
-43.1353
-2447.77
-43.9668
-2447.77
-2411.7
-36.0703
-2411.7
-2385.59
-26.1096
-2352.26
-33.3314
-2352.26
-2323.96
-28.2927
-2323.96
-2304.84
-19.1272
-2275.8
-29.0399
-2275.8
-2258.59
-17.2031
-2235.6
-22.9972
-2235.6
-2221.56
-14.0399
-2221.56
-2220.33
-1.2265
-2213.58
-6.74696
-2213.58
-2215.48
1.89593
-2215.48
-2229.99
14.5161
-2231.41
1.41126
-2231.41
-2246.87
15.4658
-2248.61
1.74015
-2248.61
-2257.75
9.13516
-2257.75
-2275.63
17.8885
-2274.95
-0.687486
-2274.95
-2277.63
2.68272
-2277.63
-2285.61
7.98107
-2272.87
-12.7391
-2272.87
-2269.78
-3.09447
-2250.05
-19.7244
-2250.05
-2233.79
-16.2597
-2233.79
-2221.55
-12.2422
-2191.2
-30.3509
-2191.2
-2158.93
-32.2686
-2158.93
-2125.6
-33.3307
-2073.75
-51.8529
-2073.75
-2021.34
-52.4049
-1955.43
-65.9083
-1955.43
-1883.78
-71.659
-1883.78
-1807.02
-76.7591
-1720.25
-86.7678
-1720.25
-1626.18
-94.0719
-1626.18
-1527.28
-98.8922
-1422.32
-104.965
-1422.32
-1308
-114.318
-1192.15
-115.853
-1192.15
-1067.46
-124.692
-1067.46
-132.773
-14.7139
-71.7216
-14.6248
-93.8498
-14.6838
-108.627
-14.771
-122.817
-14.9273
-136.834
-15.125
-150.2
-15.3755
-163.462
-15.6708
-176.464
-16.0141
-189.418
-16.403
-202.311
-16.8382
-215.238
-17.3189
-228.226
-17.8454
-241.33
-18.4174
-254.584
-19.035
-268.029
-19.6984
-281.696
-20.4079
-295.62
-21.1639
-309.832
-21.9669
-324.36
-22.8176
-339.232
-23.7168
-354.478
-24.6654
-370.122
-25.6645
-386.192
-26.7152
-402.712
-27.8187
-419.709
-28.9765
-437.206
-30.1899
-455.23
-31.4604
-473.803
-32.7896
-492.949
-34.179
-512.692
-35.6299
-533.051
-37.1434
-554.046
-38.7206
-575.691
-40.3617
-597.996
-42.0666
-620.963
-43.834
-644.586
-45.6617
-668.845
-47.5457
-693.705
-49.4804
-719.109
-51.458
-744.982
-53.4685
-771.223
-55.499
-797.706
-57.5347
-824.286
-59.5582
-850.804
-61.5505
-877.099
-63.4912
-903.021
-65.359
-928.445
-67.1317
-953.287
-68.7854
-977.503
-70.294
-1001.09
-71.6267
-1024.05
-72.7458
-1046.39
-73.6026
-1068.09
-74.1318
-1089.04
-74.2424
-1109.01
-73.8031
-1127.53
-72.6278
-1143.74
-70.4613
-1156.14
-66.9781
-1162.41
-61.7862
-1159.29
-54.4579
-1142.61
-44.5649
-1106.68
-31.791
-1044.54
-16.0668
-945.73
2.19602
-794.858
22.8445
-569.369
43.3246
-175.014
52.7085
426.988
56.8042
780.358
59.2653
1121.54
58.5155
1418.34
56.7781
1720.55
50.8946
1951.32
49.3995
2261.49
40.6195
2364.69
49.5273
2792.21
44.6184
2599.19
65.6076
3334.21
3870.63
-16.3496
-71.9433
-16.2012
-93.9981
-16.2405
-108.587
-16.3169
-122.741
-16.4748
-136.676
-16.6808
-149.994
-16.9466
-163.196
-17.2625
-176.148
-17.6319
-189.049
-18.0512
-201.891
-18.5215
-214.768
-19.0414
-227.706
-19.6111
-240.76
-20.2301
-253.965
-20.8986
-267.36
-21.6165
-280.978
-22.3842
-294.853
-23.202
-309.014
-24.0703
-323.491
-24.9899
-338.313
-25.9616
-353.506
-26.9862
-369.098
-28.0649
-385.113
-29.1987
-401.579
-30.3891
-418.519
-31.6374
-435.958
-32.945
-453.922
-34.3136
-472.434
-35.7444
-491.518
-37.239
-511.197
-38.7987
-531.491
-40.4243
-552.42
-42.1165
-573.998
-43.8751
-596.237
-45.6992
-619.139
-47.5866
-642.699
-49.5337
-666.898
-51.5352
-691.703
-53.5834
-717.061
-55.6685
-742.897
-57.778
-769.114
-59.897
-795.587
-62.0084
-822.175
-64.0936
-848.719
-66.133
-875.06
-68.1065
-901.047
-69.9938
-926.558
-71.7746
-951.506
-73.4267
-975.851
-74.9248
-999.588
-76.2377
-1022.73
-77.3254
-1045.31
-78.1344
-1067.29
-78.591
-1088.59
-78.5889
-1109.01
-77.9718
-1128.15
-76.5155
-1145.2
-73.9176
-1158.74
-69.8038
-1166.52
-63.7352
-1165.36
-55.2493
-1151.1
-43.8983
-1118.03
-29.3746
-1059.07
-11.6863
-963.419
8.7428
-815.287
31.3084
-591.935
53.5484
-197.254
60.0928
420.444
60.5664
779.884
61.3211
1120.78
59.6835
1419.98
57.1013
1723.14
50.8307
1957.59
48.8649
2263.45
40.1079
2373.45
48.5777
2783.74
43.7561
2604.01
64.9122
3313.05
3810.85
-17.2338
-72.1975
-17.0646
-94.1674
-17.0917
-108.56
-17.1634
-122.669
-17.3222
-136.517
-17.5332
-149.783
-17.8076
-162.921
-18.1352
-175.821
-18.5189
-188.665
-18.9553
-201.455
-19.445
-214.278
-19.9865
-227.164
-20.58
-240.167
-21.2249
-253.32
-21.9213
-266.664
-22.6692
-280.23
-23.4687
-294.053
-24.3203
-308.162
-25.2244
-322.587
-26.1816
-337.356
-27.1928
-352.495
-28.2589
-368.032
-29.381
-383.991
-30.5602
-400.399
-31.798
-417.281
-33.0956
-434.661
-34.4545
-452.563
-35.8764
-471.012
-37.3625
-490.032
-38.9144
-509.645
-40.5332
-529.872
-42.2197
-550.733
-43.9743
-572.244
-45.7965
-594.415
-47.685
-617.251
-49.637
-640.747
-51.6483
-664.887
-53.7124
-689.639
-55.8209
-714.953
-57.9626
-740.756
-60.1237
-766.952
-62.2884
-793.422
-64.4385
-820.025
-66.555
-846.603
-68.6181
-872.997
-70.6085
-899.057
-72.5069
-924.66
-74.2941
-949.719
-75.949
-974.196
-77.4467
-998.09
-78.7557
-1021.43
-79.8345
-1044.23
-80.6269
-1066.49
-81.0545
-1088.16
-81.0026
-1109.06
-80.2998
-1128.85
-78.6999
-1146.8
-75.8738
-1161.57
-71.4211
-1170.97
-64.8783
-1171.9
-55.7639
-1160.21
-43.6179
-1130.18
-28.129
-1074.56
-9.33269
-982.215
12.396
-837.015
35.7719
-615.311
61.475
-222.957
70.3778
411.541
67.4157
782.846
65.0222
1123.17
61.7253
1423.27
57.9507
1726.91
50.8794
1964.66
48.3062
2266.03
39.2897
2382.47
47.2994
2775.73
42.1746
2609.13
64.8697
3290.36
3759.87
-18.263
-72.4812
-18.0751
-94.3553
-18.0922
-108.543
-18.1607
-122.6
-18.3222
-136.356
-18.5406
-149.565
-18.8264
-162.636
-19.1688
-175.478
-19.5706
-188.263
-20.0279
-200.998
-20.5414
-213.765
-21.1094
-226.596
-21.7319
-239.544
-22.4083
-252.644
-23.1386
-265.933
-23.9227
-279.446
-24.7608
-293.215
-25.6533
-307.27
-26.6005
-321.64
-27.6032
-336.353
-28.6622
-351.436
-29.7783
-366.915
-30.9528
-382.817
-32.1867
-399.165
-33.4815
-415.986
-34.8386
-433.303
-36.2595
-451.142
-37.7456
-469.526
-39.2986
-488.479
-40.9196
-508.024
-42.6098
-528.182
-44.3699
-548.973
-46.2
-570.414
-48.0994
-592.515
-50.0662
-615.284
-52.0971
-638.716
-54.1869
-662.797
-56.3284
-687.497
-58.5116
-712.769
-60.7241
-738.543
-62.9507
-764.726
-65.174
-791.199
-67.3746
-817.824
-69.5328
-844.445
-71.6285
-870.901
-73.6428
-897.043
-75.5575
-922.745
-77.3546
-947.922
-79.0144
-972.536
-80.5128
-996.591
-81.818
-1020.12
-82.8874
-1043.16
-83.6624
-1065.72
-84.0601
-1087.76
-83.9572
-1109.16
-83.1665
-1129.64
-81.4173
-1148.55
-78.35
-1164.63
-73.5326
-1175.79
-66.4702
-1178.96
-56.655
-1170.03
-43.6057
-1143.23
-26.9969
-1091.17
-6.87293
-1002.34
16.4382
-860.327
41.3883
-640.261
69.9584
-251.527
82.0168
399.483
77.4899
787.373
70.814
1129.85
64.8049
1429.28
59.3319
1732.38
51.1396
1972.85
47.6845
2269.48
38.3367
2391.81
45.6837
2768.39
40.2418
2614.57
61.1806
3269.42
3706.73
-19.2408
-72.7845
-19.0425
-94.5536
-19.0517
-108.534
-19.1191
-122.533
-19.2844
-136.19
-19.5108
-149.338
-19.8083
-162.338
-20.1658
-175.121
-20.5857
-187.844
-21.0639
-200.519
-21.6009
-213.228
-22.195
-226.002
-22.8461
-238.893
-23.5534
-251.936
-24.3169
-265.17
-25.1364
-278.627
-26.0122
-292.339
-26.9446
-306.337
-27.9339
-320.651
-28.9809
-335.306
-30.0864
-350.331
-31.2512
-365.751
-32.4766
-381.591
-33.7638
-397.878
-35.1141
-414.636
-36.5291
-431.889
-38.0101
-449.661
-39.5588
-467.978
-41.1766
-486.861
-42.8648
-506.336
-44.6245
-526.423
-46.4562
-547.142
-48.3598
-568.51
-50.3343
-590.541
-52.3774
-613.241
-54.4852
-636.608
-56.6517
-660.63
-58.8687
-685.28
-61.1251
-710.513
-63.407
-736.261
-65.6979
-762.435
-67.9788
-788.918
-70.2295
-815.573
-72.429
-842.245
-74.5574
-868.773
-76.5962
-895.004
-78.5281
-920.813
-80.3368
-946.113
-82.0039
-970.869
-83.5061
-995.089
-84.8118
-1018.81
-85.8774
-1042.09
-86.6424
-1064.95
-87.0204
-1087.38
-86.8805
-1109.3
-86.0211
-1130.5
-84.148
-1150.42
-80.8717
-1167.91
-75.7294
-1180.93
-68.1954
-1186.5
-57.7348
-1180.49
-43.8414
-1157.12
-26.1683
-1108.84
-4.74664
-1023.76
20.1581
-885.231
46.8014
-666.904
78.0806
-282.806
94.6447
382.919
90.4912
791.526
79.2923
1141.05
69.2962
1439.28
61.4033
1740.28
51.6619
1982.6
47.0566
2274.09
37.1761
2401.69
43.797
2761.77
37.8523
2620.52
59.6054
3247.67
3661.37
-20.2127
-73.1015
-20.0089
-94.7574
-20.0128
-108.53
-20.081
-122.465
-20.2514
-136.02
-20.4871
-149.103
-20.7973
-162.028
-21.1708
-174.747
-21.6097
-187.405
-22.1097
-200.019
-22.6711
-212.667
-23.2922
-225.381
-23.9726
-238.213
-24.7116
-251.197
-25.5091
-264.372
-26.365
-277.771
-27.2794
-291.425
-28.2525
-305.364
-29.2849
-319.618
-30.3771
-334.214
-31.53
-349.178
-32.7445
-364.536
-34.0219
-380.314
-35.3633
-396.537
-36.7702
-413.229
-38.2441
-430.415
-39.7864
-448.119
-41.3989
-466.365
-43.0828
-485.178
-44.8395
-504.579
-46.67
-524.592
-48.5747
-545.237
-50.5534
-566.531
-52.6047
-588.49
-54.7259
-611.119
-56.9124
-634.422
-59.1578
-658.385
-61.4525
-682.986
-63.7844
-708.181
-66.1383
-733.907
-68.4961
-760.077
-70.8374
-786.577
-73.1407
-813.27
-75.3844
-840.001
-77.5481
-866.609
-79.6137
-892.938
-81.5654
-918.861
-83.388
-944.291
-85.065
-969.192
-86.574
-993.58
-87.8838
-1017.51
-88.9502
-1041.03
-89.7113
-1064.19
-90.078
-1087.02
-89.9131
-1109.47
-89.0015
-1131.41
-87.0257
-1152.4
-83.5662
-1171.37
-78.1287
-1186.37
-70.155
-1194.47
-59.0803
-1191.56
-44.3685
-1171.83
-25.6424
-1127.57
-2.89808
-1046.51
23.6655
-911.795
52.1434
-695.382
86.2408
-316.903
107.755
361.404
105.41
793.871
90.6556
1155.8
75.6621
1454.27
64.3621
1751.58
52.5688
1994.39
46.4979
2280.16
35.8736
2412.32
41.6488
2755.99
35.0121
2627.16
54.6675
3228.01
3617.15
-21.1704
-73.4262
-20.9657
-94.9622
-20.9665
-108.529
-21.0374
-122.394
-21.2141
-135.843
-21.4601
-148.857
-21.784
-161.704
-22.1743
-174.357
-22.6328
-186.946
-23.1554
-199.497
-23.7418
-212.08
-24.3904
-224.733
-25.1007
-237.503
-25.872
-250.426
-26.7041
-263.54
-27.5968
-276.878
-28.5503
-290.471
-29.5646
-304.35
-30.6405
-318.542
-31.7784
-333.076
-32.9792
-347.977
-34.2439
-363.271
-35.5737
-378.984
-36.9699
-395.141
-38.4339
-411.765
-39.9672
-428.881
-41.5714
-446.515
-43.248
-464.688
-44.9987
-483.427
-46.8245
-502.753
-48.7265
-522.69
-50.705
-543.258
-52.7595
-564.477
-54.8884
-586.361
-57.0887
-608.919
-59.3552
-632.155
-61.6805
-656.06
-64.0544
-680.612
-66.4634
-705.772
-68.891
-731.48
-71.3176
-757.65
-73.7214
-784.173
-76.0794
-810.912
-78.3691
-837.712
-80.57
-864.408
-82.6645
-890.844
-84.6378
-916.888
-86.4767
-942.452
-88.166
-967.503
-89.685
-992.061
-91.0028
-1016.19
-92.0749
-1039.95
-92.8388
-1063.43
-93.2035
-1086.65
-93.0269
-1109.65
-92.0815
-1132.36
-90.0266
-1154.45
-86.4126
-1174.98
-80.7132
-1192.07
-72.3368
-1202.85
-60.6865
-1203.21
-45.1915
-1187.33
-25.4377
-1147.32
-1.36517
-1070.58
26.8932
-940.053
57.3387
-725.828
94.4896
-354.054
120.949
334.945
121.293
793.526
104.695
1172.4
84.3846
1474.58
68.506
1767.45
54.0065
2008.89
46.1055
2288.06
34.5132
2423.91
39.2916
2751.21
31.9009
2634.55
50.0957
3209.82
3573.17
-22.1172
-73.7541
-21.9152
-95.1641
-21.9153
-108.529
-21.9907
-122.318
-22.1749
-135.659
-22.4323
-148.599
-22.7707
-161.366
-23.1787
-173.949
-23.6577
-186.467
-24.2035
-198.951
-24.8156
-211.468
-25.4924
-224.056
-26.2333
-236.762
-27.0376
-249.622
-27.9049
-262.673
-28.835
-275.948
-29.8281
-289.478
-30.8843
-303.294
-32.0042
-317.422
-33.1884
-331.892
-34.4378
-346.728
-35.7533
-361.956
-37.1362
-377.601
-38.5877
-393.689
-40.1094
-410.243
-41.7029
-427.288
-43.3696
-444.848
-45.1113
-462.947
-46.9294
-481.609
-48.8251
-500.858
-50.7995
-520.716
-52.8526
-541.205
-54.984
-562.346
-57.1918
-584.153
-59.4723
-606.639
-61.8202
-629.807
-64.2271
-653.653
-66.6819
-678.157
-69.17
-703.284
-71.6735
-728.976
-74.1711
-755.153
-76.6396
-781.705
-79.0546
-808.497
-81.3927
-835.374
-83.6331
-862.168
-85.7586
-888.718
-87.7558
-914.891
-89.6131
-940.595
-91.3175
-965.798
-92.8497
-990.529
-94.1795
-1014.86
-95.2626
-1038.87
-96.0361
-1062.65
-96.4086
-1086.28
-96.2344
-1109.82
-95.2747
-1133.32
-93.1659
-1156.56
-89.428
-1178.72
-83.5019
-1198
-74.7612
-1211.59
-62.575
-1215.4
-46.3337
-1203.57
-25.5787
-1168.07
-0.174371
-1095.98
29.8072
-970.035
62.3623
-758.383
102.724
-394.416
134.161
303.507
137.579
790.109
120.849
1189.13
95.7728
1499.66
74.2477
1788.98
56.1527
2026.98
45.9869
2298.22
33.1666
2436.73
36.8291
2747.55
28.547
2642.83
48.6406
3189.72
3535.04
-23.0538
-74.0815
-22.8577
-95.3603
-22.8591
-108.528
-22.9407
-122.237
-23.1337
-135.466
-23.4037
-148.329
-23.7575
-161.012
-24.184
-173.523
-24.6843
-185.967
-25.2539
-198.381
-25.8925
-210.829
-26.5982
-223.35
-27.3703
-235.99
-28.2081
-248.784
-29.1112
-261.77
-30.0794
-274.98
-31.1127
-288.445
-32.2114
-302.195
-33.376
-316.258
-34.6072
-330.66
-35.9057
-345.429
-37.2726
-360.589
-38.7092
-376.165
-40.2167
-392.181
-41.7968
-408.663
-43.451
-425.634
-45.181
-443.118
-46.9884
-461.139
-48.8748
-479.723
-50.8413
-498.891
-52.8889
-518.668
-55.0177
-539.076
-57.227
-560.136
-59.5147
-581.865
-61.8769
-604.276
-64.3076
-627.377
-66.7977
-651.163
-69.3353
-675.62
-71.9044
-700.715
-74.4859
-726.395
-77.0569
-752.582
-79.5925
-779.169
-82.067
-806.023
-84.4558
-832.985
-86.7379
-859.886
-88.8966
-886.56
-90.9198
-912.867
-92.798
-938.716
-94.5202
-964.076
-96.0688
-988.98
-97.4148
-1013.51
-98.5142
-1037.77
-99.3045
-1061.86
-99.695
-1085.89
-99.538
-1109.98
-98.5848
-1134.27
-96.4488
-1158.7
-92.6192
-1182.55
-86.5035
-1204.11
-77.4392
-1220.65
-64.7596
-1228.08
-47.812
-1220.52
-26.0873
-1189.8
0.643864
-1122.71
32.3633
-1001.75
67.1565
-793.176
110.812
-438.071
147.517
266.803
154.002
783.624
138.38
1204.75
109.809
1528.23
82.0399
1816.75
59.2491
2049.77
46.2577
2311.21
31.9129
2451.08
34.2834
2745.18
24.9304
2652.18
42.1685
3172.49
3500.45
-23.9814
-74.4049
-23.7936
-95.5481
-23.7984
-108.523
-23.8879
-122.147
-24.091
-135.263
-24.3745
-148.046
-24.7447
-160.641
-25.1906
-173.077
-25.7129
-185.445
-26.3072
-197.787
-26.973
-210.164
-27.7082
-222.615
-28.5123
-235.186
-29.3842
-247.912
-30.3238
-260.83
-31.3306
-273.973
-32.4049
-287.371
-33.5467
-301.053
-34.7566
-315.048
-36.0353
-329.382
-37.3836
-344.081
-38.8026
-359.17
-40.2935
-374.674
-41.8578
-390.617
-43.497
-407.024
-45.2127
-423.918
-47.0067
-441.324
-48.8806
-459.265
-50.836
-477.767
-52.8742
-496.853
-54.996
-516.546
-57.2015
-536.871
-59.4898
-557.848
-61.8587
-579.496
-64.3039
-601.831
-66.8189
-624.862
-69.394
-648.588
-72.0163
-672.997
-74.6687
-698.062
-77.3305
-723.733
-79.9773
-749.935
-82.5827
-776.564
-85.1192
-803.486
-87.5613
-830.543
-89.8875
-857.559
-92.0816
-884.366
-94.1331
-910.816
-96.0344
-936.815
-97.7772
-962.334
-99.3457
-987.412
-100.712
-1012.14
-101.833
-1036.65
-102.648
-1061.05
-103.067
-1085.47
-102.943
-1110.1
-102.018
-1135.19
-99.8832
-1160.83
-95.9962
-1186.44
-89.7301
-1210.38
-80.3855
-1230
-67.2577
-1241.21
-49.6478
-1238.13
-26.9892
-1212.46
1.05604
-1150.76
34.5173
-1035.22
71.6749
-830.333
118.648
-485.044
161.083
224.367
170.461
774.245
156.643
1218.57
126.15
1558.72
92.2469
1850.65
63.6226
2078.4
47.053
2327.78
30.8372
2467.29
31.7128
2744.3
21.252
2662.64
36.7227
3157.01
3465.52
-24.901
-74.7217
-24.7237
-95.7254
-24.7338
-108.513
-24.8326
-122.048
-25.047
-135.049
-25.3452
-147.748
-25.7328
-160.254
-26.1989
-172.611
-26.744
-184.899
-27.3638
-197.167
-28.0574
-209.47
-28.8229
-221.849
-29.6596
-234.349
-30.5664
-247.005
-31.5431
-259.854
-32.5893
-272.927
-33.7051
-286.255
-34.8907
-299.868
-36.1466
-313.792
-37.4734
-328.055
-38.8722
-342.682
-40.3439
-357.698
-41.8899
-373.128
-43.5116
-388.995
-45.2106
-405.325
-46.9886
-422.14
-48.8474
-439.465
-50.7886
-457.324
-52.814
-475.742
-54.9247
-494.742
-57.1217
-514.349
-59.4049
-534.588
-61.7735
-555.479
-64.2249
-577.045
-66.7546
-599.301
-69.3556
-622.261
-72.0175
-645.926
-74.7265
-670.288
-77.4645
-695.324
-80.2091
-720.989
-82.9345
-747.21
-85.6123
-773.886
-88.2136
-800.885
-90.7116
-828.045
-93.0843
-855.187
-95.3162
-882.134
-97.3981
-908.734
-99.3251
-934.888
-101.091
-960.567
-102.683
-985.82
-104.074
-1010.75
-105.223
-1035.5
-106.069
-1060.2
-106.528
-1085.01
-106.453
-1110.18
-105.58
-1136.07
-103.476
-1162.94
-99.5682
-1190.35
-93.1932
-1216.75
-83.614
-1239.58
-70.0865
-1254.74
-51.8622
-1256.35
-28.3112
-1236.01
1.02678
-1180.1
36.2258
-1070.41
75.8651
-869.973
126.03
-535.209
174.796
175.602
186.944
762.097
175.247
1230.27
144.251
1589.72
105.013
1889.89
69.6636
2113.75
48.5433
2348.9
30.0197
2485.82
29.2441
2745.08
17.5878
2674.3
35.5715
3139.03
3435.18
-25.8135
-75.0296
-25.6485
-95.8904
-25.6656
-108.496
-25.7754
-121.939
-26.0022
-134.822
-26.3161
-147.434
-26.722
-159.848
-27.2093
-172.123
-27.7781
-184.331
-28.424
-196.521
-29.1463
-208.748
-29.9428
-221.053
-30.8127
-233.479
-31.7551
-246.063
-32.7696
-258.839
-33.8559
-271.84
-35.0139
-285.097
-36.2439
-298.637
-37.5465
-312.489
-38.9222
-326.679
-40.3721
-341.232
-41.8973
-356.173
-43.4991
-371.526
-45.1789
-387.316
-46.9385
-403.565
-48.7796
-420.299
-50.704
-437.541
-52.7135
-455.315
-54.8097
-473.646
-56.9939
-492.558
-59.2671
-512.076
-61.6293
-532.226
-64.0793
-553.029
-66.6146
-574.51
-69.2304
-596.686
-71.9191
-619.572
-74.6698
-643.175
-77.4678
-667.49
-80.2937
-692.498
-83.1239
-718.158
-85.9307
-744.403
-88.6838
-771.133
-91.3528
-798.216
-93.9094
-825.488
-96.3312
-852.765
-98.6031
-879.862
-100.718
-906.619
-102.673
-932.933
-104.465
-958.775
-106.084
-984.201
-107.505
-1009.33
-108.687
-1034.32
-109.572
-1059.32
-110.081
-1084.5
-110.073
-1110.18
-109.276
-1136.86
-107.236
-1164.98
-103.345
-1194.24
-96.905
-1223.19
-87.1398
-1249.34
-73.2645
-1268.61
-54.4785
-1275.14
-30.0817
-1260.41
0.518359
-1210.7
37.4472
-1107.34
79.6621
-912.188
132.554
-588.101
188.508
119.647
203.449
747.156
194.032
1239.69
163.516
1620.23
120.198
1933.21
77.7476
2156.2
50.9475
2375.7
29.5284
2507.23
26.8446
2747.76
13.7797
2687.36
27.8627
3124.95
3410.64
-26.7196
-75.3265
-26.5685
-96.0415
-26.5944
-108.47
-26.7165
-121.816
-26.957
-134.581
-27.2877
-147.103
-27.7129
-159.423
-28.2221
-171.614
-28.8154
-183.737
-29.4884
-195.849
-30.2401
-207.996
-31.0683
-220.225
-31.9723
-232.575
-32.951
-245.084
-34.004
-257.786
-35.131
-270.713
-36.3319
-283.896
-37.6071
-297.362
-38.957
-311.14
-40.3824
-325.254
-41.8842
-339.73
-43.4636
-354.594
-45.1219
-369.868
-46.8607
-385.577
-48.6817
-401.744
-50.5867
-418.394
-52.5775
-435.55
-54.6561
-453.236
-56.8241
-471.478
-59.083
-490.299
-61.4335
-509.726
-63.8757
-529.783
-66.4086
-550.496
-69.0292
-571.889
-71.7327
-593.982
-74.5109
-616.794
-77.3526
-640.333
-80.2419
-664.601
-83.1584
-689.582
-86.0769
-715.24
-88.968
-741.512
-91.7997
-768.301
-94.5393
-795.476
-97.1575
-822.87
-99.631
-850.291
-101.945
-877.547
-104.095
-904.47
-106.081
-930.947
-107.902
-956.954
-109.552
-982.551
-111.007
-1007.88
-112.228
-1033.1
-113.161
-1058.39
-113.732
-1083.93
-113.807
-1110.11
-113.113
-1137.56
-111.169
-1166.92
-107.336
-1198.07
-100.878
-1229.65
-90.9785
-1259.24
-76.811
-1282.78
-57.5206
-1294.43
-32.3313
-1285.59
-0.509439
-1242.52
38.138
-1145.99
82.9836
-957.033
137.592
-642.709
201.853
55.3859
219.888
729.121
212.948
1246.63
183.44
1649.74
137.412
1979.24
88.1277
2205.48
54.5359
2409.3
29.4343
2532.34
24.5751
2752.62
10.1214
2701.82
25.7032
3109.37
3384.49
-27.6204
-75.6108
-27.4844
-96.1775
-27.5207
-108.434
-27.6564
-121.681
-27.9119
-134.326
-28.2604
-146.754
-28.7058
-158.978
-29.238
-171.082
-29.8566
-183.119
-30.5574
-195.148
-31.3393
-207.214
-32.2
-219.364
-33.1388
-231.636
-34.1545
-244.068
-35.2468
-256.694
-36.4152
-269.545
-37.6598
-282.651
-38.9809
-296.041
-40.379
-309.742
-41.8547
-323.778
-43.4092
-338.176
-45.0435
-352.959
-46.7592
-368.152
-48.5577
-383.778
-50.441
-399.861
-52.4107
-416.424
-54.469
-433.492
-56.6176
-451.088
-58.8585
-469.237
-61.1929
-487.965
-63.6219
-507.297
-66.1455
-527.26
-68.7626
-547.879
-71.4701
-569.181
-74.263
-591.189
-77.1328
-613.924
-80.0675
-637.399
-83.0506
-661.618
-86.0604
-686.572
-89.0703
-712.23
-92.049
-738.533
-94.9624
-765.388
-97.776
-792.663
-100.459
-820.187
-102.987
-847.763
-105.346
-875.188
-107.533
-902.282
-109.552
-928.929
-111.406
-955.1
-113.09
-980.867
-114.584
-1006.38
-115.85
-1031.83
-116.838
-1057.4
-117.482
-1083.29
-117.66
-1109.93
-117.096
-1138.12
-115.285
-1168.73
-111.553
-1201.8
-105.125
-1236.08
-95.1465
-1269.22
-80.7463
-1297.18
-61.0139
-1314.16
-35.092
-1311.52
-2.10192
-1275.51
38.2403
-1186.33
85.7388
-1004.53
141.792
-698.762
212.801
-15.6233
236.128
705.795
231.978
1250.78
203.698
1678.02
156.133
2026.8
100.85
2260.77
59.601
2450.55
29.8206
2562.12
22.4163
2760.03
6.39192
2717.84
18.5178
3097.24
3369.67
-28.5164
-75.881
-28.3968
-96.2971
-28.4451
-108.386
-28.5957
-121.53
-28.8672
-134.054
-29.2347
-146.387
-29.7012
-158.511
-30.2572
-170.526
-30.9021
-182.474
-31.6316
-194.418
-32.4444
-206.401
-33.3385
-218.47
-34.3128
-230.662
-35.3664
-243.015
-36.4986
-255.562
-37.7093
-268.334
-38.9983
-281.362
-40.3661
-294.673
-41.813
-308.295
-43.3399
-322.251
-44.9478
-336.568
-46.638
-351.269
-48.4118
-366.378
-50.271
-381.919
-52.2173
-397.915
-54.2528
-414.389
-56.3794
-431.365
-58.5991
-448.868
-60.9139
-466.922
-63.3251
-485.553
-65.8338
-504.788
-68.4401
-524.653
-71.1427
-545.177
-73.9388
-566.385
-76.8229
-588.305
-79.7863
-610.96
-82.8164
-634.368
-85.8959
-658.538
-89.002
-683.466
-92.1065
-709.125
-95.1762
-735.463
-98.1748
-762.389
-101.066
-789.772
-103.816
-817.436
-106.402
-845.178
-108.809
-872.781
-111.036
-900.055
-113.09
-926.875
-114.979
-953.211
-116.702
-979.144
-118.24
-1004.85
-119.557
-1030.52
-120.608
-1056.35
-121.337
-1082.56
-121.636
-1109.63
-121.231
-1138.53
-119.59
-1170.37
-116.005
-1205.39
-109.661
-1242.42
-99.6609
-1279.22
-85.0914
-1311.75
-64.9845
-1334.27
-38.3998
-1338.1
-4.31689
-1309.59
37.6613
-1228.31
87.791
-1054.66
145.992
-756.964
221.586
-91.2169
252.155
675.226
251.14
1251.79
224.147
1705.02
175.844
2075.1
115.733
2320.88
66.3962
2499.88
30.8001
2597.71
20.341
2770.49
2.73991
2735.44
12.8383
3087.14
3350.24
-29.4085
-76.1358
-29.3064
-96.3992
-29.368
-108.324
-29.5347
-121.363
-29.8235
-133.766
-30.211
-146
-30.6997
-158.022
-31.2805
-169.945
-31.9524
-181.802
-32.7114
-193.659
-33.5561
-205.557
-34.4843
-217.542
-35.4949
-229.651
-36.5871
-241.923
-37.7602
-254.389
-39.0138
-267.081
-40.3481
-280.028
-41.7633
-293.258
-43.26
-306.798
-44.8389
-320.672
-46.5011
-334.906
-48.2478
-349.522
-50.0807
-364.545
-52.0014
-379.998
-54.0118
-395.904
-56.114
-412.287
-58.3099
-429.169
-60.6018
-446.576
-62.9915
-464.532
-65.4807
-483.064
-68.0703
-502.198
-70.7607
-521.963
-73.5505
-542.387
-76.4369
-563.499
-79.4141
-585.328
-82.4732
-607.901
-85.6012
-631.24
-88.7799
-655.36
-91.9854
-680.261
-95.1878
-705.923
-98.3521
-732.299
-101.44
-759.302
-104.412
-786.8
-107.233
-814.615
-109.879
-842.532
-112.337
-870.324
-114.606
-897.786
-116.699
-924.782
-118.626
-951.283
-120.392
-977.378
-121.979
-1003.26
-123.353
-1029.14
-124.474
-1055.23
-125.3
-1081.73
-125.74
-1109.19
-125.524
-1138.74
-124.094
-1171.8
-120.705
-1208.78
-114.5
-1248.63
-104.54
-1289.18
-89.8676
-1326.42
-69.4604
-1354.67
-42.3001
-1365.26
-7.24365
-1344.65
36.2344
-1271.79
88.8648
-1107.29
149.578
-817.677
229.983
-171.622
267.987
637.222
270.442
1249.34
244.778
1730.68
196.145
2123.74
132.416
2384.61
75.0675
2557.23
32.5278
2640.25
18.3875
2784.63
-0.825145
2754.66
12.4721
3073.84
3332.37
-30.2975
-76.3742
-30.2137
-96.483
-30.2901
-108.248
-30.4741
-121.179
-30.7813
-133.458
-31.1898
-145.591
-31.7017
-157.51
-32.3081
-169.339
-33.0081
-181.102
-33.7975
-192.87
-34.6748
-204.679
-35.638
-216.579
-36.6858
-228.603
-37.8174
-240.791
-39.0321
-253.174
-40.3296
-265.783
-41.7099
-278.648
-43.1734
-291.795
-44.7206
-305.251
-46.3524
-319.04
-48.0697
-333.188
-49.8741
-347.718
-51.7669
-362.653
-53.7501
-378.015
-55.8255
-393.829
-57.9953
-410.117
-60.2617
-426.903
-62.6268
-444.211
-65.0927
-462.066
-67.661
-480.496
-70.333
-499.526
-73.1089
-519.187
-75.9876
-539.508
-78.9659
-560.521
-82.0383
-582.256
-85.1955
-604.744
-88.4239
-628.012
-91.7047
-652.079
-95.0128
-676.952
-98.3168
-702.619
-101.58
-729.036
-104.76
-756.121
-107.817
-783.743
-110.714
-811.718
-113.423
-839.822
-115.934
-867.813
-118.248
-895.471
-120.381
-922.649
-122.351
-949.314
-124.163
-975.566
-125.805
-1001.62
-127.242
-1027.71
-128.441
-1054.03
-129.376
-1080.8
-129.977
-1108.59
-129.983
-1138.74
-128.805
-1172.98
-125.664
-1211.92
-119.656
-1254.64