/*--------------------------------*- C++ -*----------------------------------*\
| =========                 |                                                 |
| \\      /  F ield         | OpenFOAM: The Open Source CFD Toolbox           |
|  \\    /   O peration     | Version:  4.1                                   |
|   \\  /    A nd           | Web:      www.OpenFOAM.org                      |
|    \\/     M anipulation  |                                                 |
\*---------------------------------------------------------------------------*/
FoamFile
{
    version     2.0;
    format      ascii;
    class       volVectorField;
    location    "8";
    object      U;
}
// * * * * * * * * * * * * * * * * * * * * * * * * * * * * * * * * * * * * * //

dimensions      [0 1 -1 0 0 0 0];

internalField   nonuniform List<vector> 
6785
(
(1.29425e-14 -2.33585 16.516)
(1.0978e-14 -7.91403 13.0276)
(-3.44731e-15 -5.12284 13.8271)
(3.57784e-15 -5.0442 13.3439)
(9.34571e-16 -4.23486 13.21)
(-2.55594e-16 -3.78939 12.9274)
(2.45532e-15 -3.34463 12.6493)
(6.99073e-16 -3.01921 12.3334)
(-5.8471e-16 -2.78249 12.0113)
(1.39023e-15 -2.67584 11.7076)
(2.50174e-16 -2.68005 11.4962)
(-4.3358e-16 -2.80867 11.3705)
(5.58548e-16 -3.39289 10.894)
(-1.08916e-16 -3.55963 9.75679)
(-1.25705e-16 -0.163274 7.59705)
(1.84084e-14 -10.3872 27.059)
(1.25799e-14 -16.3589 23.4835)
(-3.65903e-15 -11.2915 23.8263)
(2.93637e-15 -12.0467 22.0156)
(7.73364e-16 -10.3248 21.1709)
(2.90229e-16 -9.68418 19.9526)
(1.17237e-15 -8.69975 18.8822)
(1.36814e-16 -7.92851 17.7847)
(-3.15824e-16 -7.1741 16.7442)
(3.33561e-17 -6.47137 15.6622)
(-3.58591e-16 -5.61469 14.2417)
(-8.41068e-16 -4.2881 11.8606)
(-7.77058e-16 -2.28999 7.78247)
(-2.45961e-16 0.161027 2.18312)
(-4.00058e-16 1.20796 -1.73891)
(2.07043e-14 -12.9444 28.5841)
(1.11571e-14 -17.1539 25.2835)
(-2.84176e-15 -12.1938 25.3171)
(3.97749e-15 -13.4913 22.7114)
(4.44775e-16 -11.2532 21.7428)
(1.05927e-15 -10.9653 19.9383)
(1.86608e-15 -9.81703 18.5998)
(-3.31044e-16 -9.1747 17.0984)
(3.43252e-16 -8.40152 15.7567)
(1.67759e-15 -7.74317 14.3492)
(-6.79262e-16 -6.84297 12.5673)
(-5.44319e-16 -5.24633 9.58395)
(3.79685e-15 -2.08501 4.04913)
(2.30624e-15 4.0883 -6.07553)
(-6.73544e-16 2.10587 -6.68893)
(2.15658e-14 -13.3774 27.4982)
(1.23398e-14 -17.2377 25.4761)
(-2.11582e-15 -12.699 24.7933)
(3.98554e-15 -14.09 21.8533)
(1.33951e-15 -11.8264 20.8546)
(1.17407e-15 -11.7115 18.8109)
(2.39441e-15 -10.6094 17.3385)
(9.2822e-16 -9.98412 15.6925)
(2.01843e-16 -9.26437 14.219)
(1.49304e-15 -8.61518 12.7951)
(7.99548e-16 -7.90916 11.2412)
(-6.22403e-16 -6.8185 9.24829)
(5.32839e-16 -5.17231 6.27817)
(1.161e-15 -2.67498 3.04937)
(-6.58547e-16 -0.16267 -1.55559)
(2.18619e-14 -13.0345 26.1087)
(1.35202e-14 -16.771 25.2227)
(-1.80411e-15 -12.5329 24.0616)
(3.64089e-15 -13.6666 20.992)
(1.33826e-15 -11.3288 19.9938)
(9.69023e-16 -11.2238 17.7641)
(2.34441e-15 -9.96212 16.2947)
(4.84345e-16 -9.3823 14.6836)
(-7.1613e-16 -8.72078 13.3561)
(1.95595e-16 -8.15322 12.0405)
(-1.03606e-16 -7.55217 10.6855)
(-7.15118e-16 -6.76309 9.29723)
(-4.69626e-16 -5.79361 7.68316)
(-1.19119e-15 -4.25732 5.90377)
(-3.06413e-15 -1.66581 1.28743)
(2.25987e-14 -12.9243 25.3839)
(1.29175e-14 -15.8561 24.4937)
(-8.24194e-16 -12.074 23.3155)
(3.65751e-15 -12.8831 20.3052)
(1.53952e-15 -10.4038 19.3179)
(2.0447e-15 -10.2479 16.9914)
(1.71625e-15 -8.56795 15.4678)
(1.27516e-15 -7.70682 13.2534)
(2.05525e-15 -6.59848 11.3975)
(1.18686e-15 -6.24937 10.0796)
(8.68019e-16 -6.22129 9.53544)
(6.71287e-16 -6.46173 9.45483)
(-9.62516e-16 -6.58577 9.67925)
(-1.08882e-15 -6.34253 9.45486)
(-4.7535e-16 -4.22427 6.8148)
(2.23921e-14 -13.794 26.4686)
(9.68444e-15 -15.4424 24.9563)
(-9.88151e-17 -12.3786 23.9884)
(2.77979e-15 -12.5909 21.6049)
(8.25651e-16 -10.4859 20.6442)
(1.20142e-15 -9.97406 18.7531)
(5.3992e-16 -8.00091 16.8012)
(2.09058e-15 -6.06953 13.3698)
(2.92294e-15 -3.64433 9.74168)
(5.8817e-16 -2.08521 6.87782)
(-9.28659e-16 -1.55315 5.75048)
(-1.1834e-15 -2.53757 6.75865)
(-3.30326e-15 -4.70059 9.48132)
(-4.24905e-15 -6.76356 11.7293)
(-1.34772e-15 -5.24748 10.094)
(2.09932e-14 -14.7202 27.7639)
(8.67396e-15 -17.0569 27.5737)
(-9.38567e-16 -13.5856 25.844)
(2.17549e-15 -13.8709 23.7882)
(-2.78483e-16 -11.9653 22.9448)
(-1.35607e-16 -11.6573 21.2826)
(-2.8575e-16 -9.85529 19.5238)
(1.00511e-15 -7.99156 16.1374)
(2.38382e-15 -5.1823 12.2423)
(9.68005e-16 -2.71655 8.42599)
(8.38343e-16 -0.339201 4.98348)
(3.20498e-15 1.4362 1.98913)
(3.93268e-15 1.7523 0.918411)
(3.81821e-15 0.0779537 2.45783)
(2.31265e-15 -1.48956 4.13581)
(1.82968e-14 -13.8576 25.3752)
(1.14728e-14 -18.8037 30.0822)
(9.31646e-16 -15.2949 27.4113)
(1.32636e-15 -15.0697 24.7596)
(-3.69405e-16 -13.4505 23.6244)
(6.69353e-16 -13.2202 21.9663)
(-2.41259e-16 -12.0175 20.5048)
(-2.58459e-16 -10.8973 18.1216)
(2.31883e-15 -8.9962 15.2672)
(1.40822e-15 -6.92593 12.0179)
(8.19951e-16 -4.47383 8.4773)
(6.71049e-15 -1.78107 4.38326)
(4.21665e-15 1.26147 -0.205326)
(5.70503e-15 3.75438 -4.04527)
(6.79839e-15 2.08303 -4.61672)
(1.63662e-14 -11.6093 20.5232)
(1.43968e-14 -18.5177 29.8474)
(4.10928e-15 -16.1327 27.653)
(1.73838e-15 -15.029 24.1879)
(2.10109e-16 -13.5439 22.3411)
(1.35872e-15 -13.0171 20.5168)
(1.31785e-15 -12.1401 18.9635)
(2.87905e-16 -11.3411 17.1203)
(1.40893e-15 -10.2686 15.0986)
(2.13328e-15 -9.00725 12.872)
(1.35892e-15 -7.55369 10.4481)
(3.18398e-15 -5.77348 7.81299)
(4.05274e-15 -3.79707 4.75111)
(3.31145e-15 -0.989984 1.54694)
(7.27663e-16 1.03709 -3.81422)
(1.50976e-14 -9.70609 16.8517)
(1.58147e-14 -17.3608 28.6724)
(6.20805e-15 -15.8332 27.0963)
(1.94977e-15 -14.2459 23.2825)
(7.13965e-16 -12.7157 21.0579)
(1.82776e-15 -11.9715 19.1681)
(1.9412e-15 -11.092 17.5849)
(1.18213e-15 -10.2917 15.9274)
(1.43351e-15 -9.41838 14.255)
(2.01281e-15 -8.45828 12.5453)
(1.88951e-15 -7.43749 10.7468)
(1.71767e-15 -6.19583 8.8557)
(2.07987e-15 -4.85079 6.62028)
(1.33687e-15 -2.72662 3.86475)
(-2.12409e-15 -0.305211 -1.55581)
(1.4509e-14 -8.7967 15.2949)
(1.67366e-14 -16.4949 27.8471)
(6.89634e-15 -15.3648 26.4806)
(1.99252e-15 -13.5698 22.5809)
(1.17078e-15 -11.9588 20.1813)
(1.8055e-15 -11.1205 18.3037)
(2.18647e-15 -10.219 16.7973)
(1.79206e-15 -9.42953 15.2795)
(1.19307e-15 -8.61699 13.8186)
(1.2895e-15 -7.7963 12.3955)
(1.23538e-15 -6.98828 10.9487)
(1.61727e-16 -6.03847 9.45983)
(6.85928e-16 -5.048 7.70767)
(-2.38061e-16 -3.45406 5.5257)
(-2.99184e-15 -0.812292 0.409335)
(1.38879e-14 -8.74216 15.2029)
(1.71431e-14 -15.892 27.0565)
(7.45029e-15 -15.0074 25.7848)
(1.64405e-15 -13.4949 22.386)
(1.60278e-15 -12.1125 20.0749)
(1.66902e-15 -11.3352 18.2471)
(2.76575e-16 -10.5307 16.7615)
(1.6692e-15 -9.79015 15.3166)
(1.35891e-15 -9.01012 13.9001)
(3.36185e-16 -8.19614 12.4991)
(2.94421e-16 -7.39196 11.1006)
(-6.70738e-16 -6.54483 9.79889)
(-8.57882e-16 -5.77779 8.53913)
(-7.49659e-16 -4.66353 7.26135)
(-4.32373e-15 -2.26327 3.083)
(1.2684e-14 -8.48556 14.1321)
(1.79778e-14 -15.3634 25.8299)
(5.17818e-15 -14.2031 23.9617)
(-7.89815e-16 -11.9536 19.933)
(1.6488e-15 -10.3283 17.6305)
(7.56115e-16 -9.5988 16.201)
(-9.3663e-16 -8.99506 15.3074)
(3.66028e-16 -8.62549 14.3885)
(-6.94654e-17 -8.25253 13.4806)
(-9.81418e-16 -7.89637 12.4846)
(-1.5491e-15 -7.56914 11.5471)
(-1.69488e-15 -7.22872 10.8276)
(-1.72706e-15 -6.92684 10.4027)
(-3.02132e-15 -6.29363 9.96871)
(-6.36783e-15 -4.14606 6.6961)
(7.73925e-15 -7.06572 12.3498)
(1.68441e-14 -15.856 24.8162)
(1.1624e-14 -18.3006 26.8301)
(3.60827e-15 -17.8303 24.5653)
(8.40337e-16 -15.9689 21.5592)
(-6.48171e-16 -14.0564 18.7713)
(1.02987e-15 -11.9659 15.9956)
(5.89644e-15 -9.87794 13.2818)
(7.68224e-15 -7.94754 10.8858)
(4.71152e-15 -6.66037 9.24757)
(-2.43912e-16 -6.06384 8.76356)
(-1.22475e-15 -6.52251 9.88688)
(-2.66782e-15 -7.24827 11.6642)
(-6.53857e-15 -7.73069 12.4753)
(-8.28015e-15 -4.88271 8.84521)
(4.55217e-18 1.8207 8.07175)
(3.93266e-16 -0.790835 0.949177)
(8.12292e-16 -0.0293821 -0.99115)
(9.56686e-16 -0.0879141 -0.767822)
(1.08539e-15 0.0526816 -0.837648)
(1.57284e-15 0.153141 -1.12017)
(1.08958e-15 0.130968 -0.830186)
(1.04372e-15 0.205954 -0.852406)
(6.54833e-16 0.258228 -0.843049)
(2.38872e-15 0.37072 -1.12884)
(2.21107e-15 0.353965 -0.847049)
(1.96543e-15 0.432966 -0.804031)
(2.18853e-15 0.55828 -1.05367)
(1.41502e-15 0.499359 -0.76966)
(1.27445e-15 0.589783 -0.761361)
(1.08042e-15 0.612971 -0.72407)
(1.27987e-15 0.74426 -0.926748)
(1.02678e-15 0.662769 -0.681395)
(8.52349e-16 0.737804 -0.634268)
(1.11613e-15 0.874933 -0.794801)
(7.28512e-16 0.736123 -0.581312)
(6.64844e-16 0.83376 -0.566806)
(7.32264e-16 0.83414 -0.535451)
(1.0713e-15 0.970325 -0.653044)
(6.72808e-16 0.796854 -0.493122)
(6.73882e-16 0.888776 -0.483167)
(4.89785e-16 0.888023 -0.45879)
(7.84353e-16 0.999192 -0.540288)
(3.79676e-16 0.799947 -0.418603)
(3.92267e-16 0.869919 -0.384389)
(7.46461e-16 0.978001 -0.386947)
(4.45458e-16 0.752474 -0.281281)
(5.62088e-16 0.834694 -0.24913)
(5.24277e-16 0.820872 -0.211758)
(1.01792e-15 0.898002 -0.11691)
(9.59434e-16 0.692445 -0.0657398)
(1.08161e-15 0.740201 -0.0453114)
(1.85048e-15 0.791451 0.114339)
(1.49038e-15 0.576975 0.0845901)
(1.60762e-15 0.623113 0.103437)
(1.87165e-15 0.600207 0.0985587)
(2.70814e-15 0.635202 0.287636)
(1.85358e-15 0.456891 0.1961)
(1.79169e-15 0.488073 0.191986)
(1.62122e-15 0.463288 0.153705)
(2.16729e-15 0.509646 0.361166)
(9.79469e-16 0.394516 0.29768)
(7.17439e-16 0.403848 0.235257)
(6.72962e-16 0.450412 0.445903)
(6.0909e-16 0.366969 0.35846)
(3.78621e-16 0.371823 0.322337)
(1.00227e-16 0.347862 0.235801)
(-2.02566e-16 0.352801 0.452944)
(-2.84695e-16 0.267637 0.358421)
(-4.34122e-16 0.260785 0.330452)
(-9.85734e-18 0.248893 0.24146)
(3.69381e-16 0.234473 0.194861)
(7.37682e-16 0.05708 0.0567985)
(-5.63079e-16 0.0698621 0.148431)
(1.65317e-15 0.151047 -1.11662)
(1.73242e-15 -0.299251 -0.959324)
(2.66757e-15 -0.128161 -1.60283)
(3.13511e-15 0.071616 -2.07281)
(1.2424e-15 -0.36903 -1.98448)
(-2.5139e-15 -0.654253 -0.520498)
(-2.679e-15 -0.403418 -0.293382)
(-4.70132e-15 -1.09563 1.46011)
(-4.22935e-15 -1.48399 2.37038)
(-3.9939e-15 -1.6362 2.50896)
(-4.12879e-15 -1.60748 2.84161)
(-6.44251e-15 -2.75676 5.40641)
(-5.5268e-15 -3.11069 5.00696)
(-5.84131e-15 -3.55128 5.13761)
(-6.12853e-15 -3.50085 5.31233)
(-8.83149e-15 -5.36048 8.30154)
(-6.56265e-15 -5.52111 6.61616)
(-6.68055e-15 -5.57707 6.86237)
(-8.43764e-15 -7.80386 10.1332)
(-5.92233e-15 -7.72725 7.92283)
(-6.19273e-15 -7.98632 8.79813)
(-7.69765e-15 -8.64879 11.1551)
(-6.62761e-15 -8.44879 10.9239)
(-5.9551e-15 -8.51333 11.0658)
(-3.6574e-15 -9.53262 12.0865)
(-4.15407e-15 -9.06441 11.5313)
(-3.61298e-15 -9.16135 12.1307)
(-3.58218e-15 -9.09247 12.2858)
(-3.74633e-15 -9.10776 12.4219)
(-4.05683e-15 -9.08884 12.5945)
(-4.36718e-15 -9.10854 12.7429)
(-4.43021e-15 -9.11565 12.8074)
(-4.34579e-15 -9.07063 12.8055)
(-4.89808e-15 -9.76097 13.6901)
(-4.66044e-15 -9.58489 13.3583)
(-4.39709e-15 -9.60531 13.4446)
(-3.68008e-15 -9.64584 13.3181)
(-2.68269e-15 -9.63574 13.0485)
(-2.0297e-15 -9.69817 13.3066)
(-1.07951e-15 -9.72073 13.5143)
(-1.12819e-16 -9.78762 13.8024)
(8.67309e-16 -9.77565 14.0639)
(2.71458e-15 -10.6896 15.5108)
(2.67615e-15 -10.3238 14.5392)
(2.99493e-15 -10.4227 14.8748)
(2.96887e-15 -10.4369 15.0654)
(3.02649e-15 -10.5063 15.2738)
(3.19979e-15 -10.553 15.4244)
(3.21775e-15 -10.6257 15.5833)
(2.49916e-15 -10.678 15.804)
(1.96114e-15 -10.7875 16.1778)
(1.49225e-15 -10.8389 16.6856)
(2.44111e-16 -11.6059 19.149)
(1.28993e-15 -11.1648 18.1051)
(6.82442e-16 -11.2665 18.6953)
(3.08074e-17 -11.2897 19.0501)
(-1.00652e-15 -11.399 19.4726)
(-2.33366e-15 -11.4336 19.9068)
(-4.0613e-15 -11.5735 20.5554)
(-5.91139e-15 -11.6443 20.9797)
(-7.56237e-15 -11.7713 21.3911)
(-1.08044e-14 -11.57 22.576)
(-7.8839e-15 -11.3747 21.6409)
(-7.53352e-15 -11.4306 22.1741)
(-5.76851e-15 -11.5198 22.3958)
(-2.94057e-15 -11.5272 22.2702)
(1.48786e-16 -11.6157 22.1826)
(3.10926e-15 -11.6706 22.068)
(5.46711e-15 -11.6551 22.0829)
(6.85228e-15 -11.9042 22.4734)
(1.08057e-14 -10.1519 20.9613)
(8.8939e-15 -10.6472 21.3168)
(8.69288e-15 -10.6084 21.3237)
(7.89764e-15 -10.6269 21.3759)
(7.71103e-15 -10.6606 21.5451)
(7.63431e-15 -10.6576 21.3718)
(7.82608e-15 -10.6193 21.0373)
(8.18258e-15 -10.5846 20.6495)
(8.55989e-15 -10.6699 20.1694)
(9.62063e-15 -8.19252 16.7705)
(8.7907e-15 -8.95371 18.0922)
(8.57764e-15 -8.7784 16.8818)
(8.07271e-15 -8.84682 15.919)
(7.48227e-15 -8.74719 14.736)
(6.95178e-15 -8.67394 13.5511)
(7.328e-15 -8.5514 12.5406)
(6.2534e-15 -8.33965 11.0967)
(5.6523e-15 -8.08081 9.72813)
(5.09012e-15 -7.91636 8.45436)
(2.86965e-15 -4.7587 2.3621)
(4.71038e-15 -6.24611 6.63783)
(4.30164e-15 -5.71354 5.3873)
(3.98774e-15 -5.77088 5.22035)
(3.72153e-15 -5.4164 4.74838)
(3.44822e-15 -5.31444 4.28635)
(2.71102e-15 -5.12062 3.10613)
(1.97476e-15 -4.77984 1.93211)
(2.24585e-15 -4.7771 2.15767)
(9.15846e-16 -3.91582 -0.460034)
(1.94583e-15 -4.10106 1.50268)
(1.80139e-15 -4.05637 0.72497)
(1.29413e-16 -2.87145 -1.95474)
(1.18003e-15 -4.81145 -0.79504)
(8.51036e-16 -3.69606 -0.876262)
(7.49225e-16 -3.43281 -0.52997)
(9.94434e-16 -4.36895 -0.811027)
(7.00733e-16 -3.07726 -0.45536)
(1.01731e-15 -3.955 -0.694125)
(8.53013e-16 -3.67886 -0.494861)
(6.39807e-16 -3.06791 -0.325579)
(8.95577e-16 -3.69799 -0.503811)
(7.05002e-16 -3.49146 -0.362878)
(5.45626e-16 -3.00554 -0.231619)
(6.75235e-16 -3.99967 -0.361086)
(4.54236e-16 -2.79878 -0.201546)
(6.34595e-16 -3.64238 -0.31428)
(5.54627e-16 -3.2973 -0.261196)
(4.66789e-16 -2.89474 -0.171614)
(6.18908e-16 -3.84778 -0.276407)
(4.45751e-16 -2.68331 -0.159599)
(6.6425e-16 -3.51307 -0.238374)
(5.33541e-16 -3.30008 -0.22786)
(4.09101e-16 -2.74826 -0.150674)
(5.04709e-16 -3.3408 -0.246662)
(3.30166e-16 -3.18561 -0.227538)
(2.05114e-16 -2.7383 -0.152371)
(2.34426e-16 -3.68285 -0.232761)
(1.30647e-16 -2.57186 -0.14072)
(1.81469e-16 -3.37108 -0.193173)
(1.82027e-16 -3.10203 -0.185435)
(2.03209e-16 -2.71741 -0.120017)
(3.77623e-16 -3.65961 -0.166649)
(3.68926e-16 -2.55446 -0.0846737)
(6.62425e-16 -3.37437 -0.0747562)
(6.44632e-16 -3.23267 -0.074035)
(5.36372e-16 -2.68875 -0.0110001)
(8.5697e-16 -3.30682 0.0209857)
(7.43832e-16 -3.1801 0.0303884)
(5.62516e-16 -2.74505 0.0746599)
(7.27473e-16 -3.72181 0.118286)
(4.75629e-16 -2.62374 0.124206)
(6.23643e-16 -3.4616 0.214163)
(4.16718e-16 -3.16304 0.142037)
(2.88884e-16 -2.79075 0.135299)
(2.35282e-16 -3.76227 0.152821)
(5.77235e-17 -2.63781 0.119218)
(1.51628e-17 -3.49191 0.179248)
(-7.93056e-17 -3.27735 0.0787825)
(-9.45677e-17 -2.74511 0.0850845)
(-1.17555e-16 -3.36627 0.0931207)
(-7.41807e-17 -3.18521 0.0326842)
(-3.54572e-17 -2.74924 0.0538277)
(-1.61856e-17 -3.70705 0.0432722)
(2.44957e-17 -2.59099 0.0466851)
(3.8002e-17 -3.40931 0.0630857)
(6.72454e-17 -3.06566 -0.0149274)
(2.24164e-17 -2.68982 -0.00402332)
(1.3246e-17 -3.59971 -0.0655125)
(-2.97502e-17 -2.48962 -0.0539155)
(-6.60284e-17 -3.27761 -0.107983)
(-1.04881e-16 -3.021 -0.186179)
(-1.13288e-16 -2.50094 -0.147114)
(-1.86003e-16 -3.03633 -0.278296)
(-1.45854e-16 -2.82259 -0.312318)
(-9.46655e-17 -2.39302 -0.248892)
(-1.3346e-16 -3.20014 -0.40492)
(-9.0279e-17 -2.16359 -0.303886)
(-1.46757e-16 -2.82821 -0.49022)
(-1.34209e-16 -2.46975 -0.496262)
(-1.22101e-16 -2.10858 -0.401941)
(-1.59877e-16 -2.7997 -0.603504)
(-1.20874e-16 -1.83727 -0.442806)
(-1.53896e-16 -2.41694 -0.683021)
(-9.30431e-17 -2.14354 -0.654419)
(-6.49088e-17 -1.6923 -0.534325)
(-1.11421e-16 -2.04585 -0.828156)
(-1.32352e-16 -1.81828 -0.768871)
(-1.08374e-16 -1.44456 -0.622767)
(-1.48594e-16 -1.98911 -0.898772)
(-1.13294e-16 -1.18305 -0.665723)
(-1.76797e-16 -1.45944 -1.02883)
(1.19961e-59 0.0954182 0.0990576)
(1.84171e-58 0.124996 0.0971606)
(7.1505e-58 0.144883 0.0978246)
(6.50694e-58 0.16384 0.0979657)
(-9.53045e-57 0.182613 0.098977)
(-6.01842e-56 0.200485 0.100056)
(-1.10235e-55 0.21823 0.10161)
(6.71291e-55 0.235621 0.103397)
(5.38483e-54 0.25295 0.105546)
(1.073e-53 0.270194 0.107976)
(-6.52478e-53 0.287486 0.11073)
(-5.17194e-52 0.304857 0.11378)
(-8.49976e-52 0.322384 0.117139)
(7.51111e-51 0.340109 0.120799)
(5.01751e-50 0.35809 0.124765)
(4.77895e-50 0.376367 0.129034)
(-8.81331e-49 0.394988 0.13361)
(-4.62872e-48 0.413991 0.138494)
(-6.83538e-50 0.433417 0.14369)
(9.69103e-47 0.453305 0.149201)
(3.87143e-46 0.473689 0.155033)
(-4.5596e-46 0.494607 0.161191)
(-9.59495e-45 0.516093 0.167681)
(-2.82536e-44 0.538182 0.174512)
(7.79957e-44 0.560907 0.18169)
(8.39532e-43 0.584301 0.189226)
(1.73616e-42 0.608398 0.197127)
(-8.83331e-42 0.63323 0.205404)
(-6.44134e-41 0.658828 0.214068)
(-8.63484e-41 0.685223 0.223127)
(7.80166e-40 0.712442 0.232592)
(4.33286e-39 0.74051 0.242472)
(3.32675e-39 0.769445 0.252773)
(-5.62367e-38 0.799262 0.263501)
(-2.57225e-37 0.829961 0.274655)
(-1.00781e-37 0.861534 0.286232)
(3.35795e-36 0.893951 0.298221)
(1.3631e-35 0.927165 0.310601)
(3.80118e-36 0.961099 0.323341)
(-1.65919e-34 0.995649 0.336397)
(-6.50082e-34 1.03068 0.34971)
(-3.07349e-34 1.06601 0.363203)
(6.64967e-33 1.10146 0.376784)
(2.76438e-32 1.13681 0.390345)
(2.5964e-32 1.17183 0.403764)
(-2.03886e-31 1.20633 0.416909)
(-1.00794e-30 1.24015 0.429641)
(-1.59579e-30 1.27316 0.441814)
(3.99652e-30 1.3053 0.453276)
(2.92228e-29 1.33658 0.463864)
(6.88382e-29 1.36698 0.47339)
(-5.6191e-30 1.39653 0.481633)
(-5.84596e-28 1.42515 0.488311)
(-2.00804e-27 1.45269 0.493056)
(-2.64898e-27 1.47881 0.495367)
(4.9412e-27 1.50286 0.494528)
(3.42682e-26 1.5236 0.489509)
(8.53938e-26 1.53896 0.478857)
(9.14803e-26 1.54575 0.460624)
(-1.39424e-25 1.53957 0.432417)
(-8.9309e-25 1.51479 0.391401)
(-2.37774e-24 1.46382 0.334711)
(-4.59562e-24 1.37753 0.25951)
(-7.43453e-24 1.24221 0.164383)
(-9.71591e-24 1.03779 0.0498489)
(-2.81532e-24 0.73428 -0.0786276)
(1.50078e-23 0.204252 -0.23659)
(-2.70689e-23 -0.564013 -0.330506)
(-1.90129e-23 -1.02865 -0.372316)
(2.19797e-24 -1.48306 -0.385066)
(-2.83005e-23 -1.87619 -0.405298)
(7.88197e-23 -2.2791 -0.374597)
(-2.42253e-22 -2.5842 -0.383066)
(9.45999e-22 -3.00387 -0.294803)
(-4.0621e-21 -3.13579 -0.365178)
(3.20227e-20 -3.72564 -0.174744)
(-2.7196e-19 -3.45506 -0.487585)
(3.57341e-18 -4.46467 -0.107225)
(-4.01825e-18 -5.22684 -0.759747)
(-3.55967e-60 0.0958108 0.110401)
(6.24025e-58 0.125252 0.107686)
(3.1455e-57 0.144793 0.108296)
(6.04489e-57 0.163681 0.108261)
(-2.51345e-56 0.182298 0.109288)
(-2.37897e-55 0.200077 0.110381)
(-6.74347e-55 0.217706 0.112027)
(1.49343e-54 0.234998 0.113929)
(2.05487e-53 0.252222 0.116237)
(6.27435e-53 0.269367 0.118854)
(-1.48983e-52 0.286559 0.121828)
(-1.97956e-51 0.303831 0.125125)
(-5.39082e-51 0.321259 0.12876)
(1.93351e-50 0.338886 0.132721)
(1.96851e-49 0.356768 0.137013)
(4.05351e-49 0.374948 0.141634)
(-2.52792e-48 0.393469 0.146586)
(-1.88847e-47 0.412372 0.15187)
(-2.30388e-47 0.431698 0.157489)
(3.00958e-46 0.451483 0.163448)
(1.66695e-45 0.471764 0.169751)
(4.45756e-46 0.492576 0.176403)
(-3.15987e-44 0.513954 0.183412)
(-1.31188e-43 0.535932 0.190785)
(1.06155e-43 0.558544 0.198531)
(2.89432e-42 0.581822 0.206657)
(9.01738e-42 0.6058 0.215174)
(-1.86438e-41 0.63051 0.224092)
(-2.30446e-40 0.655983 0.233421)
(-5.35832e-40 0.68225 0.243171)
(1.91997e-39 0.709337 0.25335)
(1.59514e-38 0.737271 0.263966)
(2.77375e-38 0.766071 0.275025)
(-1.48263e-37 0.795752 0.286528)
(-9.62815e-37 0.826316 0.298473)
(-1.30856e-36 0.857756 0.310849)
(9.05521e-36 0.890046 0.323638)
(5.08926e-35 0.923141 0.336811)
(6.18079e-35 0.95697 0.350325)
(-4.39232e-34 0.991431 0.364121)
(-2.35647e-33 1.02639 0.378126)
(-3.13562e-33 1.06169 0.392248)
(1.63582e-32 1.09713 0.40638)
(9.42499e-32 1.13251 0.420401)
(1.60239e-31 1.1676 0.434183)
(-4.15817e-31 1.20222 0.447593)
(-3.12245e-30 1.23619 0.460496)
(-7.1705e-30 1.26941 0.472758)
(3.62992e-30 1.30181 0.484239)
(7.81905e-29 1.33339 0.494785)
(2.49399e-28 1.36418 0.504212)
(2.38085e-28 1.39417 0.51229)
(-1.15948e-27 1.42336 0.518714)
(-5.97907e-27 1.4516 0.523076)
(-1.27054e-26 1.47862 0.5248)
(-2.99117e-27 1.50385 0.523044)
(7.40563e-26 1.52619 0.516568)
(2.79128e-25 1.5437 0.503627)
(5.42088e-25 1.55334 0.481934)
(3.56875e-25 1.55086 0.448779)
(-1.57253e-24 1.53071 0.401022)
(-7.44592e-24 1.48529 0.335643)
(-1.99415e-23 1.40523 0.249715)
(-4.05259e-23 1.27631 0.141946)
(-6.19809e-23 1.07762 0.0139366)
(-4.37217e-23 0.779272 -0.129443)
(4.66647e-23 0.253662 -0.303413)
(-2.20763e-23 -0.582339 -0.395673)
(-2.02006e-23 -1.05623 -0.405061)
(1.85718e-24 -1.51023 -0.402287)
(-2.80849e-23 -1.90712 -0.415676)
(7.81649e-23 -2.30972 -0.379306)
(-2.4116e-22 -2.61818 -0.383531)
(9.45427e-22 -3.02725 -0.292873)
(-4.08672e-21 -3.16747 -0.36097)
(3.24095e-20 -3.72462 -0.171468)
(-2.7707e-19 -3.47481 -0.478535)
(3.56239e-18 -4.43554 -0.104543)
(-3.37963e-18 -5.12326 -0.758664)
(-1.39571e-58 0.0960586 0.116478)
(1.52576e-57 0.125419 0.113447)
(9.79947e-57 0.144758 0.114022)
(2.58346e-56 0.163604 0.113896)
(-4.14764e-56 0.182135 0.114932)
(-6.80364e-55 0.199863 0.116036)
(-2.49351e-54 0.217429 0.117734)
(1.54433e-54 0.23467 0.119702)
(5.6933e-53 0.251838 0.122098)
(2.25496e-52 0.268932 0.12482)
(-1.77521e-52 0.28607 0.127916)
(-5.48785e-51 0.303292 0.131349)
(-1.98243e-50 0.320668 0.135136)
(3.21987e-50 0.338245 0.139263)
(5.54991e-49 0.356076 0.143735)
(1.61238e-48 0.374205 0.148548)
(-5.11933e-48 0.392675 0.153706)
(-5.45667e-47 0.411527 0.159209)
(-1.12356e-46 0.430801 0.16506)
(6.78017e-46 0.450533 0.171264)
(4.96433e-45 0.470761 0.177824)
(5.79936e-45 0.491519 0.184746)
(-7.58207e-44 0.512842 0.192039)
(-4.05584e-43 0.534763 0.199707)
(-1.02125e-43 0.557317 0.207762)
(7.23384e-42 0.580537 0.21621)
(2.92509e-41 0.604455 0.225063)
(-2.04353e-41 0.629103 0.23433)
(-5.92184e-40 0.654512 0.244021)
(-1.85009e-39 0.680714 0.254146)
(3.10774e-39 0.707736 0.264713)
(4.17384e-38 0.735604 0.275729)
(1.03341e-37 0.764337 0.2872)
(-2.70371e-37 0.793952 0.299124)
(-2.53908e-36 0.824452 0.311496)
(-5.23633e-36 0.855831 0.324303)
(1.71034e-35 0.888065 0.337523)
(1.33431e-34 0.92111 0.35112)
(2.51737e-34 0.954899 0.365045)
(-8.11719e-34 0.989331 0.379233)
(-6.02843e-33 1.02428 0.393601)
(-1.18392e-32 1.05958 0.40805)
(2.73188e-32 1.09504 0.422464)
(2.29639e-31 1.13046 0.436719)
(5.28567e-31 1.16561 0.450684)
(-4.83923e-31 1.20031 0.464228)
(-7.01347e-30 1.23437 0.477223)
(-2.05469e-29 1.2677 0.489541)
(-8.85197e-30 1.30024 0.501051)
(1.52013e-28 1.33197 0.511605)
(6.24693e-28 1.36294 0.521019)
(9.89537e-28 1.39317 0.529057)
(-1.43489e-27 1.42263 0.535401)
(-1.27938e-26 1.45124 0.53962)
(-3.54119e-26 1.47874 0.541098)
(-3.65628e-26 1.50463 0.538921)
(1.08103e-25 1.52788 0.531723)
(6.20898e-25 1.54664 0.517589)
(1.56039e-24 1.55794 0.494048)
(2.00869e-24 1.55759 0.458226)
(-1.29967e-24 1.54004 0.406817)
(-1.52163e-23 1.49768 0.336716)
(-4.97163e-23 1.42095 0.244936)
(-1.12502e-22 1.29526 0.130106)
(-1.86833e-22 1.09933 -0.0054789)
(-1.67732e-22 0.802496 -0.15848)
(5.61749e-23 0.275605 -0.333156)
(-9.71946e-24 -0.554698 -0.473298)
(-2.17884e-23 -1.04074 -0.464329)
(1.18693e-24 -1.49495 -0.433869)
(-2.77521e-23 -1.89539 -0.433513)
(7.72677e-23 -2.30027 -0.388536)
(-2.39695e-22 -2.61553 -0.385827)
(9.4461e-22 -3.02006 -0.29116)
(-4.11733e-21 -3.17166 -0.355248)
(3.28932e-20 -3.70585 -0.166469)
(-2.83017e-19 -3.47609 -0.466393)
(3.54923e-18 -4.40088 -0.0946058)
(-2.76073e-18 -5.04029 -0.771164)
(-7.80801e-58 0.0964536 0.123505)
(3.20346e-57 0.125681 0.120185)
(2.84265e-56 0.144727 0.120736)
(9.49175e-56 0.163503 0.120532)
(-1.70385e-56 0.181902 0.121588)
(-1.80912e-54 0.199551 0.122717)
(-8.32799e-54 0.217021 0.124483)
(-3.92317e-54 0.234181 0.126536)
(1.46712e-52 0.251265 0.129044)
(7.35491e-52 0.268279 0.131896)
(2.31167e-52 0.285337 0.135141)
(-1.42176e-50 0.30248 0.138742)
(-6.53883e-50 0.319779 0.142714)
(2.31008e-50 0.337279 0.147043)
(1.46866e-48 0.355033 0.151733)
(5.54503e-48 0.373084 0.15678)
(-8.17034e-48 0.391477 0.162188)
(-1.48139e-46 0.410251 0.167955)
(-4.22403e-46 0.429446 0.174087)
(1.35463e-45 0.449098 0.180585)
(1.38443e-44 0.469245 0.187456)
(2.69407e-44 0.489921 0.194705)
(-1.67578e-43 0.511159 0.202338)
(-1.16412e-42 0.532995 0.210364)
(-1.26235e-42 0.555462 0.218791)
(1.68931e-41 0.578591 0.227628)
(8.67177e-41 0.602417 0.236886)
(2.30884e-41 0.626971 0.246573)
(-1.42915e-39 0.652284 0.256701)
(-5.69014e-39 0.678387 0.267279)
(2.81899e-39 0.705309 0.278315)
(1.02673e-37 0.733075 0.289815)
(3.3033e-37 0.761707 0.301783)
(-3.76425e-37 0.791219 0.314216)
(-6.29189e-36 0.82162 0.327108)
(-1.72453e-35 0.852904 0.34044)
(2.62988e-35 0.885049 0.354186)
(3.28641e-34 0.918015 0.368305)
(8.29903e-34 0.951737 0.38274)
(-1.21149e-33 0.98612 0.397415)
(-1.45012e-32 1.02104 0.41224)
(-3.73471e-32 1.05633 0.427104)
(3.2425e-32 1.09182 0.441885)
(5.26621e-31 1.12728 0.456448)
(1.53591e-30 1.16252 0.470661)
(1.06522e-31 1.19732 0.484392)
(-1.47587e-29 1.23152 0.497519)
(-5.39847e-29 1.26502 0.509921)
(-5.87938e-29 1.29775 0.521479)
(2.66176e-28 1.32972 0.53205)
(1.46415e-27 1.36097 0.541455)
(3.09649e-27 1.39154 0.549451)
(-4.68272e-28 1.42144 0.555711)
(-2.55004e-26 1.45059 0.559782)
(-8.86748e-26 1.47881 0.561009)
(-1.38576e-25 1.50566 0.5584)
(1.04438e-25 1.53025 0.550458)
(1.27299e-24 1.55085 0.535079)
(3.9169e-24 1.56459 0.50957)
(6.59344e-24 1.56736 0.470853)
(1.96101e-24 1.55366 0.415412)
(-2.7723e-23 1.51583 0.340005)
(-1.11015e-22 1.44412 0.241509)
(-2.7394e-22 1.32341 0.118411)
(-4.84228e-22 1.13198 -0.0264343)
(-4.98285e-22 0.837627 -0.191403)
(-9.29535e-24 0.316486 -0.374809)
(2.25524e-23 -0.538929 -0.545195)
(-2.06884e-23 -1.04394 -0.547642)
(-7.06732e-25 -1.4979 -0.484531)
(-2.73615e-23 -1.89808 -0.460187)
(7.62023e-23 -2.30316 -0.402667)
(-2.37978e-22 -2.62244 -0.390481)
(9.4351e-22 -3.02152 -0.289709)
(-4.14947e-21 -3.18115 -0.348831)
(3.33983e-20 -3.69472 -0.15981)
(-2.88738e-19 -3.48128 -0.452003)
(3.53564e-18 -4.37257 -0.0829318)
(-2.27482e-18 -4.9778 -0.724765)
(-3.22632e-57 0.0968323 0.130132)
(4.9018e-57 0.125931 0.126632)
(7.62609e-56 0.144711 0.127166)
(3.13735e-55 0.163417 0.126905)
(2.53957e-55 0.181693 0.127987)
(-4.40188e-54 0.199266 0.129148)
(-2.55573e-53 0.216648 0.130986)
(-3.40746e-53 0.233733 0.133126)
(3.45476e-52 0.250739 0.135747)
(2.21018e-51 0.26768 0.138728)
(2.63249e-51 0.284666 0.142122)
(-3.3964e-50 0.301737 0.145889)
(-1.97748e-49 0.318965 0.150043)
(-1.19647e-49 0.336394 0.154569)
(3.61737e-48 0.354077 0.159473)
(1.7222e-47 0.372058 0.16475)
(-5.42408e-48 0.390381 0.170401)
(-3.76265e-46 0.409084 0.176427)
(-1.38035e-45 0.428208 0.182832)
(2.18665e-45 0.447788 0.189618)
(3.61459e-44 0.467861 0.196792)
(9.68833e-44 0.488462 0.204358)
(-3.30336e-43 0.509626 0.212324)
(-3.11753e-42 0.531384 0.220697)
(-5.63185e-42 0.553771 0.229486)
(3.62724e-41 0.57682 0.238701)
(2.38059e-40 0.600563 0.248352)
(2.46333e-40 0.625032 0.258448)
(-3.20767e-39 0.650259 0.269001)
(-1.60115e-38 0.676273 0.280019)
(-5.90146e-39 0.703106 0.291511)
(2.35875e-37 0.730781 0.303481)
(9.50795e-37 0.759323 0.315933)
(-1.44531e-37 0.788747 0.328863)
(-1.45764e-35 0.819061 0.34226)
(-5.03446e-35 0.850263 0.356104)
(2.214e-35 0.882335 0.370364)
(7.56571e-34 0.915237 0.384992)
(2.41017e-33 0.948909 0.399924)
(-9.32059e-34 0.983259 0.415077)
(-3.25709e-32 1.01817 0.43035)
(-1.04849e-31 1.05347 0.445624)
(-4.90533e-33 1.08899 0.460764)
(1.12365e-30 1.12452 0.475634)
(4.05267e-30 1.15984 0.490094)
(3.09493e-30 1.19476 0.504014)
(-2.84489e-29 1.2291 0.517277)
(-1.31056e-28 1.26275 0.529773)
(-2.1245e-28 1.29566 0.541391)
(3.84878e-28 1.32784 0.551998)
(3.19167e-27 1.35934 0.561418)
(8.38319e-27 1.39021 0.569405)
(5.02389e-27 1.42048 0.575623)
(-4.60483e-26 1.45012 0.579602)
(-2.03495e-25 1.47899 0.580655)
(-4.06315e-25 1.50676 0.577724)
(-7.44049e-26 1.53262 0.569187)
(2.373e-24 1.55497 0.552751)
(8.92586e-24 1.57105 0.525514)
(1.78904e-23 1.57681 0.484196)
(1.42142e-23 1.56678 0.42507)
(-4.32636e-23 1.53324 0.344748)
(-2.25915e-22 1.46625 0.239931)
(-6.06392e-22 1.35019 0.108909)
(-1.13405e-21 1.16304 -0.0451065)
(-1.29304e-21 0.870741 -0.222529)
(-3.27319e-22 0.354571 -0.415016)
(8.80825e-23 -0.523201 -0.614145)
(-6.53466e-24 -1.05337 -0.646897)
(-5.41506e-24 -1.51292 -0.558334)
(-2.72174e-23 -1.91123 -0.499548)
(7.49615e-23 -2.31453 -0.42293)
(-2.35967e-22 -2.63668 -0.398176)
(9.41981e-22 -3.02892 -0.288786)
(-4.18179e-21 -3.19567 -0.341671)
(3.39016e-20 -3.68688 -0.151353)
(-2.93914e-19 -3.49009 -0.435589)
(3.52384e-18 -4.34513 -0.0666418)
(-1.98028e-18 -4.91107 -0.732512)
(-1.14266e-56 0.0972547 0.136683)
(6.19214e-58 0.126205 0.133069)
(1.87741e-55 0.144703 0.133596)
(9.52685e-55 0.163325 0.133299)
(1.5216e-54 0.181466 0.134414)
(-9.58152e-54 0.198953 0.135617)
(-7.28071e-53 0.216236 0.137532)
(-1.52259e-52 0.233238 0.139767)
(7.2498e-52 0.250158 0.142505)
(6.17832e-51 0.267018 0.145622)
(1.212e-50 0.283921 0.149171)
(-7.36692e-50 0.300914 0.153109)
(-5.55475e-49 0.318062 0.157451)
(-7.81004e-49 0.335414 0.162181)
(8.24072e-48 0.353019 0.167304)
(4.93438e-47 0.370923 0.172815)
(2.84512e-47 0.389167 0.178716)
(-8.93491e-46 0.407792 0.185007)
(-4.09137e-45 0.426837 0.191691)
(1.93711e-45 0.446338 0.198772)
(8.86173e-44 0.46633 0.206254)
(3.03438e-43 0.486849 0.214144)
(-5.47332e-43 0.507929 0.222448)
(-7.83894e-42 0.529602 0.231175)
(-1.94362e-41 0.551902 0.240334)
(7.03461e-41 0.574861 0.249934)
(6.11487e-40 0.598513 0.259986)
(1.03866e-39 0.622888 0.270499)
(-6.65386e-39 0.648019 0.281484)
(-4.18927e-38 0.673937 0.292951)
(-4.45644e-38 0.700671 0.304907)
(5.05203e-37 0.728247 0.317358)
(2.52387e-36 0.756689 0.330304)
(1.4974e-36 0.786016 0.34374)
(-3.15794e-35 0.816236 0.357654)
(-1.34496e-34 0.847349 0.372023)
(-4.58575e-35 0.87934 0.386809)
(1.62914e-33 0.912175 0.40196)
(6.38472e-33 0.945793 0.417405)
(2.38408e-33 0.98011 0.433053)
(-6.82755e-32 1.01501 0.448792)
(-2.69645e-31 1.05033 0.464492)
(-1.92886e-31 1.08589 0.480012)
(2.21995e-30 1.1215 0.495205)
(9.88765e-30 1.15692 0.509929)
(1.29733e-29 1.19196 0.524055)
(-4.9144e-29 1.22645 0.537471)
(-2.9655e-28 1.26027 0.550077)
(-6.21188e-28 1.29337 0.561772)
(3.45891e-28 1.32578 0.572433)
(6.4732e-27 1.35755 0.581889)
(2.05484e-26 1.38875 0.589894)
(2.32079e-26 1.41943 0.596105)
(-7.28041e-26 1.4496 0.600039)