/*--------------------------------*- C++ -*----------------------------------*\
| =========                 |                                                 |
| \\      /  F ield         | OpenFOAM: The Open Source CFD Toolbox           |
|  \\    /   O peration     | Version:  4.1                                   |
|   \\  /    A nd           | Web:      www.OpenFOAM.org                      |
|    \\/     M anipulation  |                                                 |
\*---------------------------------------------------------------------------*/
FoamFile
{
    version     2.0;
    format      ascii;
    class       volScalarField;
    location    "9";
    object      p;
}
// * * * * * * * * * * * * * * * * * * * * * * * * * * * * * * * * * * * * * //

dimensions      [0 2 -2 0 0 0 0];

internalField   nonuniform List<scalar> 
225
(
3.26401e+09
3.3057e+09
3.41559e+09
3.61927e+09
3.62573e+09
3.54004e+09
3.53328e+09
3.55164e+09
3.53095e+09
3.53185e+09
3.59165e+09
3.6045e+09
3.57521e+09
3.55295e+09
3.52405e+09
3.83007e+09
3.82016e+09
3.82596e+09
3.67813e+09
3.4241e+09
3.19342e+09
3.04849e+09
2.99225e+09
2.98488e+09
3.07947e+09
3.24194e+09
3.39065e+09
3.45424e+09
3.40632e+09
3.37053e+09
3.49351e+09
3.48312e+09
3.48542e+09
3.45262e+09
3.31926e+09
3.18952e+09
3.22895e+09
3.40006e+09
3.5282e+09
3.57467e+09
3.56688e+09
3.58802e+09
3.715e+09
3.88559e+09
4.02498e+09
3.94496e+09
3.95193e+09
3.93359e+09
3.87006e+09
3.78299e+09
3.70394e+09
3.65671e+09
3.64556e+09
3.67127e+09
3.69942e+09
3.70856e+09
3.72305e+09
3.69175e+09
3.56077e+09
3.46963e+09
3.73908e+09
3.70542e+09
3.64892e+09
3.58822e+09
3.54499e+09
3.54153e+09
3.57037e+09
3.58287e+09
3.61183e+09
3.68294e+09
3.73853e+09
3.76375e+09
3.75925e+09
3.72748e+09
3.7556e+09
3.69075e+09
3.68826e+09
3.68568e+09
3.69267e+09
3.68258e+09
3.64205e+09
3.61252e+09
3.60087e+09
3.58563e+09
3.59571e+09
3.61672e+09
3.61196e+09
3.63109e+09
3.63896e+09
3.61211e+09
3.81741e+09
3.82952e+09
3.80699e+09
3.78123e+09
3.80196e+09
3.81441e+09
3.78799e+09
3.77719e+09
3.78006e+09
3.76914e+09
3.75951e+09
3.7608e+09
3.77165e+09
3.77928e+09
3.74726e+09
3.9298e+09
3.93658e+09
3.92701e+09
3.90468e+09
3.89975e+09
3.92413e+09
3.94792e+09
3.93865e+09
3.90605e+09
3.87579e+09
3.84094e+09
3.8056e+09
3.78798e+09
3.7763e+09
3.75763e+09
3.89729e+09
3.85049e+09
3.797e+09
3.76608e+09
3.76074e+09
3.75654e+09
3.74654e+09
3.73199e+09
3.72367e+09
3.72262e+09
3.72893e+09
3.74042e+09
3.75105e+09
3.75263e+09
3.75049e+09
3.56243e+09
3.52686e+09
3.51363e+09
3.50209e+09
3.49606e+09
3.50606e+09
3.52279e+09
3.54438e+09
3.578e+09
3.62299e+09
3.66798e+09
3.71153e+09
3.75133e+09
3.77006e+09
3.77002e+09
3.44326e+09
3.40974e+09
3.42253e+09
3.45103e+09
3.47651e+09
3.49519e+09
3.50972e+09
3.5219e+09
3.53341e+09
3.5467e+09
3.58845e+09
3.65051e+09
3.68724e+09
3.6677e+09
3.62263e+09
3.48741e+09
3.44995e+09
3.43142e+09
3.41198e+09
3.38759e+09
3.36182e+09
3.33916e+09
3.31845e+09
3.30119e+09
3.29445e+09
3.31193e+09
3.34346e+09
3.35147e+09
3.30164e+09
3.22957e+09
3.55692e+09
3.4979e+09
3.43329e+09
3.35332e+09
3.26898e+09
3.19107e+09
3.12115e+09
3.05647e+09
3.00064e+09
2.95939e+09
2.93737e+09
2.92502e+09
2.90371e+09
2.84845e+09
2.80203e+09
3.36425e+09
3.28062e+09
3.15941e+09
3.01546e+09
2.87702e+09
2.74587e+09
2.61871e+09
2.50011e+09
2.39697e+09
2.31481e+09
2.26013e+09
2.2248e+09
2.20104e+09
2.14621e+09
2.10984e+09
2.38044e+09
2.17337e+09
1.97669e+09
1.79065e+09
1.62171e+09
1.45778e+09
1.29431e+09
1.12725e+09
9.57604e+08
7.99331e+08
6.53422e+08
5.62263e+08
5.23805e+08
4.03061e+08
2.84882e+08
)
;

boundaryField
{
    inletFace
    {
        type            zeroGradient;
    }
    inlet
    {
        type            zeroGradient;
    }
    inletWalls
    {
        type            zeroGradient;
    }
    outletInlet
    {
        type            fixedValue;
        value           uniform 0;
    }
}


// ************************************************************************* //
