/*--------------------------------*- C++ -*----------------------------------*\
| =========                 |                                                 |
| \\      /  F ield         | OpenFOAM: The Open Source CFD Toolbox           |
|  \\    /   O peration     | Version:  4.1                                   |
|   \\  /    A nd           | Web:      www.OpenFOAM.org                      |
|    \\/     M anipulation  |                                                 |
\*---------------------------------------------------------------------------*/
FoamFile
{
    version     2.0;
    format      ascii;
    class       surfaceScalarField;
    location    "9";
    object      phi;
}
// * * * * * * * * * * * * * * * * * * * * * * * * * * * * * * * * * * * * * //

dimensions      [0 3 -1 0 0 0 0];

internalField   nonuniform List<scalar> 
420
(
225658
-224220
-2.38044e+06
2.60751e+06
-4.64386e+06
2.26482e+06
-6.35856e+06
1.71608e+06
-7.34436e+06
987191
-7.94908e+06
606088
-8.58503e+06
637295
-9.16012e+06
576427
-9.03074e+06
-128052
-8.69426e+06
-335143
-8.65646e+06
-36462.1
-7.86028e+06
-794830
-6.64992e+06
-1.20891e+06
-5.41025e+06
-1.23735e+06
-5.40895e+06
79320.6
-303374
1.24462e+06
1.4424e+06
2.74261e+06
767010
4.17718e+06
281682
5.35736e+06
-192831
6.43105e+06
-467460
7.38411e+06
-315656
7.89581e+06
64795.4
7.43366e+06
334154
6.70139e+06
397150
6.65839e+06
6578.23
6.20408e+06
-340543
5.16153e+06
-166364
4.36118e+06
-436985
-1.04776e+06
1.88969e+06
-2.19299e+06
4.77146e+06
-1.43932e+06
6.56241e+06
-1.02391e+06
7.40257e+06
-558435
7.34605e+06
-136253
6.61305e+06
265583
5.70621e+06
591232
4.94927e+06
821781
4.46243e+06
821051
4.3154e+06
544290
3.967e+06
355050
3.24251e+06
384308
2.54064e+06
535970
1.25481e+06
849358
207045
-320443
-1.87239e+06
-143425
-1.61622e+06
-85898
-1.08133e+06
-146530
-497718
-207656
-75055.5
-174357
232369
-12326
429289
313993
495558
613140
522020
565398
592093
179991
740591
-483414
1.0476e+06
-1.19632e+06
1.24881e+06
-2.05137e+06
1.70434e+06
-1.84432e+06
1.77082e+06
-3.64303e+06
3.5599e+06
-3.40513e+06
5.46229e+06
-2.98355e+06
7.26041e+06
-2.29568e+06
8.73212e+06
-1.54661e+06
9.52417e+06
-559562
9.5823e+06
371265
9.08877e+06
989150
8.1279e+06
1.48295e+06
6.80402e+06
1.91605e+06
5.41084e+06
2.13375e+06
4.06792e+06
2.39077e+06
2.51762e+06
2.7993e+06
974287
3.24797e+06
-870044
-1.60525e+06
-2.0377e+06
-2.87516e+06
-2.13514e+06
-4.20615e+06
-1.6525e+06
-5.61739e+06
-884385
-6.9012e+06
-262769
-7.69954e+06
238805
-8.11138e+06
783114
-8.4037e+06
1.28149e+06
-8.41465e+06
1.4939e+06
-8.12095e+06
1.62231e+06
-8.04283e+06
2.05564e+06
-8.02671e+06
2.37444e+06
-6.92584e+06
1.6982e+06
-3.63178e+06
-46549.2
-4.50182e+06
-2.94857e+06
910818
-5.14025e+06
56489.4
-5.9762e+06
-816609
-6.24326e+06
-617372
-7.24721e+06
741130
-7.79654e+06
788102
-7.80122e+06
787759
-7.33609e+06
816318
-6.74039e+06
898173
-5.37351e+06
255415
-3.85687e+06
538958
-2.4927e+06
1.0104e+06
-676867
-117503
1.16751e+06
-1.8907e+06
-3.33431e+06
1.20798e+06
-297285
1.93997e+06
-675633
2.89808e+06
-1.77492e+06
4.24465e+06
-1.96417e+06
4.96494e+06
20678.9
5.23878e+06
514170
5.52307e+06
503337
5.57647e+06
762807
5.43964e+06
1.03481e+06
4.93971e+06
755109
4.76994e+06
708697
4.65117e+06
1.12887e+06
4.2533e+06
280116
2.93415e+06
-571907
-400157
-1.5742e+06
1.27677e+06
-3.54035e+06
1.29043e+06
-7.06945e+06
1.75411e+06
-1.10046e+07
1.97097e+06
-1.30015e+07
2.01748e+06
-1.37762e+07
1.28893e+06
-1.40941e+07
821152
-1.41605e+07
829161
-1.3914e+07
788307
-1.24677e+07
-691301
-6.03211e+06
-5.72694e+06
-4.73393e+06
-169284
-1.8555e+06
-2.59832e+06
-561912
-1.86551e+06
-962070
-1.90117e+06
3.17789e+06
-3.51849e+06
2.9077e+06
-3.94839e+06
2.18397e+06
-3.37169e+06
1.39422e+06
-1.93402e+06
579717
-120362
-524859
1.96579e+06
-1.26515e+06
4.18868e+06
-1.39383e+06
6.2212e+06
-1.24444e+06
7.41466e+06
-1.88535e+06
4.86016e+06
-3.17285e+06
3.96224e+06
728215
2.21513e+06
-851532
777521
-428100
-184548
-788771
3.9666e+06
276161
1.84273e+06
2.42929e+06
30811.4
4.62764e+06
-804149
6.43925e+06
-1.23191e+06
7.30468e+06
-1.39031e+06
7.44342e+06
-1.4039e+06
7.22918e+06
-1.17961e+06
6.9026e+06
-917872
5.61891e+06
-601673
2.58808e+06
-142042
2.95641e+06
359905
1.71766e+06
387228
747290
542276
562741
3.76093e+06
205628
7.08387e+06
-1.48024e+06
9.35941e+06
-2.24476e+06
1.08755e+07
-2.32023e+06
1.18023e+07
-2.15872e+06
1.22557e+07
-1.8438e+06
1.23463e+07
-1.49452e+06
1.23952e+07
-1.22855e+06
1.17308e+07
-253465
1.03356e+07
793431
8.71417e+06
1.47938e+06
6.48875e+06
2.58518e+06
4.26301e+06
2.61286e+06
2.20243e+06
2.60279e+06
2.76517e+06
1.63268e+06
-1.42712e+06
2.32115e+06
-2.16875e+06
2.5865e+06
-2.51017e+06
2.85655e+06
-2.59032e+06
3.18455e+06
-2.48678e+06
3.60678e+06
-2.26606e+06
4.05147e+06
-1.93926e+06
4.50136e+06
-1.67846e+06
4.66987e+06
-421996
4.53273e+06
930557
4.3549e+06
1.6572e+06
4.15555e+06
2.78451e+06
3.06167e+06
3.70672e+06
1.86114e+06
3.8033e+06
4.62631e+06
-1.16532e+06
-261826
-1.66992e+06
-1.66415e+06
-2.30009e+06
-1.88001e+06
-2.68813e+06
-2.20227e+06
-2.70775e+06
-2.46717e+06
-2.31056e+06
-2.66325e+06
-1.44487e+06
-2.80495e+06
-374844
-2.74848e+06
1.51625e+06
-2.31309e+06
3.51257e+06
-1.06576e+06
5.10114e+06
68644
5.91125e+06
1.97441e+06
3.6653e+06
5.95271e+06
1.20092e+06
6.26773e+06
5.82723e+06
-7.75279e+06
-1.20273e+07
-1.49055e+07
-1.68149e+07
-1.79412e+07
-1.81678e+07
-1.76504e+07
-1.6439e+07
-1.44558e+07
-1.12797e+07
-7.87441e+06
-5.6685e+06
-5.60094e+06
-4.77044e+06
)
;

boundaryField
{
    inletFace
    {
        type            calculated;
        value           nonuniform List<scalar> 
450
(
-2.39224e-06
-6.03864e-06
-6.56122e-06
-6.60859e-06
-6.25107e-06
-5.50584e-06
-4.6069e-06
-5.66848e-06
-8.14489e-06
-9.29322e-06
-9.84258e-06
-9.62386e-06
-8.80923e-06
-7.6274e-06
-3.15608e-06
-4.18068e-06
-9.07618e-06
-9.49369e-06
-9.57243e-06
-9.45921e-06
-9.32789e-06
-8.99398e-06
-7.64636e-06
-6.54415e-06
-7.12703e-06
-8.55984e-06
-9.21627e-06
-8.85032e-06
-8.78785e-06
-7.43765e-06
-3.9557e-06
-7.40387e-06
-8.30723e-06
-8.4883e-06
-8.46592e-06
-8.44943e-06
-8.42769e-06
-8.35635e-06
-8.3451e-06
-8.36599e-06
-8.26678e-06
-8.26477e-06
-8.32037e-06
-8.5296e-06
-9.45451e-06
-1.00671e-05
-1.02797e-05
-9.37585e-06
-8.88733e-06
-8.62085e-06
-8.48874e-06
-8.41604e-06
-8.42688e-06
-8.38712e-06
-8.39724e-06
-8.51309e-06
-8.62669e-06
-8.62434e-06
-8.11737e-06
-6.02514e-06
-8.76375e-06
-1.05188e-05
-1.05118e-05
-1.02522e-05
-1.02031e-05
-1.02192e-05
-1.02529e-05
-1.02873e-05
-1.03029e-05
-1.03038e-05
-1.0197e-05
-9.64225e-06
-8.90519e-06
-7.46854e-06
-4.85199e-06
-1.09544e-05
-9.9609e-06
-9.64181e-06
-9.51116e-06
-9.53638e-06
-9.56083e-06
-9.56292e-06
-9.51852e-06
-9.40033e-06
-9.24675e-06
-9.0542e-06
-8.87411e-06
-8.6403e-06
-7.98912e-06
-3.94675e-06
-1.02677e-05
-1.08046e-05
-1.0182e-05
-9.77032e-06
-9.61004e-06
-9.52556e-06
-9.50222e-06
-9.5328e-06
-9.52013e-06
-9.55065e-06
-9.6528e-06
-9.62367e-06
-9.56046e-06
-9.36811e-06
-2.0066e-06
-8.62354e-06
-1.2839e-05
-1.20767e-05
-1.1662e-05
-9.46801e-06
-9.6916e-06
-9.82614e-06
-9.83429e-06
-1.0054e-05
-9.79315e-06
-1.03241e-05
-1.06239e-05
-1.05705e-05
-1.05347e-05
-1.06533e-05
-1.32594e-05
-1.10348e-05
-1.09312e-05
-1.11181e-05
-1.09644e-05
-1.12263e-05
-1.15716e-05
-1.14581e-05
-1.1313e-05
-1.1145e-05
-1.10805e-05
-1.10395e-05
-1.10226e-05
-1.10725e-05
-5.89279e-06
-1.26771e-05
-1.08245e-05
-1.11061e-05
-1.12366e-05
-1.14465e-05
-1.17602e-05
-1.18881e-05
-1.17465e-05
-1.16377e-05
-1.15487e-05
-1.14912e-05
-1.12159e-05
-1.11488e-05
-1.11045e-05
-1.11149e-05
-8.93459e-06
-1.02812e-05
-1.10114e-05
-1.18912e-05
-1.22096e-05
-1.21341e-05
-1.19559e-05
-1.17711e-05
-1.1649e-05
-1.15797e-05
-1.14857e-05
-1.13839e-05
-1.13475e-05
-1.12963e-05
-1.11988e-05
-4.82005e-06
-1.21369e-05
-1.3481e-05
-1.29659e-05
-1.2554e-05
-1.22226e-05
-1.19128e-05
-1.16154e-05
-1.14648e-05
-1.14556e-05
-1.14401e-05
-1.1507e-05
-1.17619e-05
-1.23257e-05
-1.04159e-05
-1.21932e-05
-1.46243e-05
-1.33549e-05
-1.29658e-05
-1.26885e-05
-1.23576e-05
-1.19892e-05
-1.16517e-05
-1.11781e-05
-1.10285e-05
-1.11464e-05
-1.11786e-05
-1.12081e-05
-1.13072e-05
-1.02668e-05
-1.41551e-05
-1.41176e-05
-1.38612e-05
-1.35829e-05
-1.32925e-05
-1.29625e-05
-1.25652e-05
-1.20938e-05
-1.15843e-05
-1.12181e-05
-1.09634e-05
-1.08132e-05
-1.08228e-05
-1.11713e-05
-1.11312e-05
-1.48513e-05
-1.51007e-05
-1.49325e-05
-1.48119e-05
-1.46904e-05
-1.45538e-05
-1.43387e-05
-1.39615e-05
-1.33356e-05
-1.23941e-05
-1.11531e-05
-9.95792e-06
-1.05931e-05
-1.18281e-05
-8.6017e-06
2.39224e-06
6.03864e-06
6.56122e-06
6.60859e-06
6.25107e-06
5.50584e-06
4.6069e-06
5.66848e-06
8.14489e-06
9.29322e-06
9.84258e-06
9.62386e-06
8.80923e-06
7.6274e-06
3.15608e-06
4.18068e-06
9.07618e-06
9.49369e-06
9.57243e-06
9.45921e-06
9.32789e-06
8.99398e-06
7.64636e-06
6.54415e-06
7.12703e-06
8.55984e-06
9.21627e-06
8.85032e-06
8.78785e-06
7.43765e-06
3.9557e-06
7.40387e-06
8.30723e-06
8.4883e-06
8.46592e-06
8.44943e-06
8.42769e-06
8.35635e-06
8.3451e-06
8.36599e-06
8.26678e-06
8.26477e-06
8.32037e-06
8.5296e-06
9.45451e-06
1.00671e-05
1.02797e-05
9.37585e-06
8.88733e-06
8.62085e-06
8.48874e-06
8.41604e-06
8.42688e-06
8.38712e-06
8.39724e-06
8.51309e-06
8.62669e-06
8.62434e-06
8.11737e-06
6.02514e-06
8.76375e-06
1.05188e-05
1.05118e-05
1.02522e-05
1.02031e-05
1.02192e-05
1.02529e-05
1.02873e-05
1.03029e-05
1.03038e-05
1.0197e-05
9.64225e-06
8.90519e-06
7.46854e-06
4.85199e-06
1.09544e-05
9.9609e-06
9.64181e-06
9.51116e-06
9.53638e-06
9.56083e-06
9.56292e-06
9.51852e-06
9.40033e-06
9.24675e-06
9.0542e-06
8.87411e-06
8.6403e-06
7.98912e-06
3.94675e-06
1.02677e-05
1.08046e-05
1.0182e-05
9.77032e-06
9.61004e-06
9.52556e-06
9.50222e-06
9.5328e-06
9.52013e-06
9.55065e-06
9.6528e-06
9.62367e-06
9.56046e-06
9.36811e-06
2.0066e-06
8.62354e-06
1.2839e-05
1.20767e-05
1.1662e-05
9.46801e-06
9.6916e-06
9.82614e-06
9.83429e-06
1.0054e-05
9.79315e-06
1.03241e-05
1.06239e-05
1.05705e-05
1.05347e-05
1.06533e-05
1.32594e-05
1.10348e-05
1.09312e-05
1.11181e-05
1.09644e-05
1.12263e-05
1.15716e-05
1.14581e-05
1.1313e-05
1.1145e-05
1.10805e-05
1.10395e-05
1.10226e-05
1.10725e-05
5.89279e-06
1.26771e-05
1.08245e-05
1.11061e-05
1.12366e-05
1.14465e-05
1.17602e-05
1.18881e-05
1.17465e-05
1.16377e-05
1.15487e-05
1.14912e-05
1.12159e-05
1.11488e-05
1.11045e-05
1.11149e-05
8.93459e-06
1.02812e-05
1.10114e-05
1.18912e-05
1.22096e-05
1.21341e-05
1.19559e-05
1.17711e-05
1.1649e-05
1.15797e-05
1.14857e-05
1.13839e-05
1.13475e-05
1.12963e-05
1.11988e-05
4.82005e-06
1.21369e-05
1.3481e-05
1.29659e-05
1.2554e-05
1.22226e-05
1.19128e-05
1.16154e-05
1.14648e-05
1.14556e-05
1.14401e-05
1.1507e-05
1.17619e-05
1.23257e-05
1.04159e-05
1.21932e-05
1.46243e-05
1.33549e-05
1.29658e-05
1.26885e-05
1.23576e-05
1.19892e-05
1.16517e-05
1.11781e-05
1.10285e-05
1.11464e-05
1.11786e-05
1.12081e-05
1.13072e-05
1.02668e-05
1.41551e-05
1.41176e-05
1.38612e-05
1.35829e-05
1.32925e-05
1.29625e-05
1.25652e-05
1.20938e-05
1.15843e-05
1.12181e-05
1.09634e-05
1.08132e-05
1.08228e-05
1.11713e-05
1.11312e-05
1.48513e-05
1.51007e-05
1.49325e-05
1.48119e-05
1.46904e-05
1.45538e-05
1.43387e-05
1.39615e-05
1.33356e-05
1.23941e-05
1.11531e-05
9.95792e-06
1.05931e-05
1.18281e-05
8.6017e-06
)
;
    }
    inlet
    {
        type            calculated;
        value           nonuniform List<scalar> 
15
(
-1299.9
-1300.2
-1299.9
-1299.9
-1300.2
-1299.9
-1299.9
-1300.2
-1299.9
-1299.9
-1300.2
-1299.9
-1299.9
-1300.2
-1299.9
)
;
    }
    inletWalls
    {
        type            calculated;
        value           uniform 0;
    }
    outletInlet
    {
        type            calculated;
        value           nonuniform List<scalar> 
15
(
1.05679e+06
5.43741e+06
5.88525e+06
-231457
-3.33664e+06
-4.24186e+06
-4.29624e+06
-3.95995e+06
-3.32225e+06
-2.43663e+06
-1.34078e+06
-292869
998349
2.61052e+06
7.49117e+06
)
;
    }
}


// ************************************************************************* //
