/*--------------------------------*- C++ -*----------------------------------*\
| =========                 |                                                 |
| \\      /  F ield         | OpenFOAM: The Open Source CFD Toolbox           |
|  \\    /   O peration     | Version:  4.1                                   |
|   \\  /    A nd           | Web:      www.OpenFOAM.org                      |
|    \\/     M anipulation  |                                                 |
\*---------------------------------------------------------------------------*/
FoamFile
{
    version     2.0;
    format      ascii;
    class       volScalarField;
    location    "8";
    object      p;
}
// * * * * * * * * * * * * * * * * * * * * * * * * * * * * * * * * * * * * * //

dimensions      [0 2 -2 0 0 0 0];

internalField   nonuniform List<scalar> 
6785
(
596.844
521.416
473.767
421.768
375.455
331.235
289.889
250.776
213.748
178.577
144.451
111.426
82.6526
51.6879
11.8466
6.2455
-11.2386
-2.24543
-8.42419
-8.36938
-10.6049
-11.5158
-12.1922
-12.0484
-10.9826
-8.86003
-5.94428
-1.40335
4.5134
6.9928
17.9883
13.0743
22.2967
18.0771
21.6668
21.0626
21.9989
22.0456
22.188
22.1233
22.1875
22.5849
22.9474
22.853
22.3934
27.1366
22.8009
25.0641
19.0372
19.1272
15.099
13.2389
10.336
8.025
5.70274
3.98853
3.20683
2.47891
1.37715
1.48493
-4.78622
-8.45127
-6.54748
-10.4062
-8.80715
-11.2596
-11.1017
-12.2294
-12.6677
-13.2271
-13.4293
-13.1638
-12.6681
-12.4687
-11.3405
1.07131
-0.0227134
2.9858
1.23914
4.13242
3.40821
5.02406
5.42711
6.3292
7.03621
7.85166
8.62571
9.86264
10.9363
13.3825
23.9943
24.4538
27.2219
26.4391
29.1906
29.2215
30.9896
31.9223
33.2208
34.4514
35.7882
37.067
38.5572
39.7117
41.3409
40.4085
41.3002
43.463
42.9538
45.1573
45.2685
46.6664
47.4511
48.455
49.4043
50.3696
51.2812
52.3448
53.1566
54.3171
55.9126
56.9722
58.5242
58.2571
59.9591
59.9442
60.967
61.1597
61.5204
61.7569
62.1114
62.6907
63.4857
64.0989
64.856
65.4886
66.0667
66.9639
66.5922
67.7027
67.4712
68.0663
68.0415
68.2324
68.1687
67.9606
67.6123
67.1505
67.1528
66.8418
72.2314
70.5429
70.9046
69.4544
69.5889
68.2434
67.5899
65.9194
64.1048
61.6103
58.981
56.624
55.2371
54.8219
52.659
46.4492
42.0454
40.2433
36.878
34.8377
31.7971
29.8166
27.6547
26.2844
25.0812
24.3191
23.9518
23.972
23.3819
20.8542
18.3742
14.1206
11.6582
8.49801
6.44804
3.82381
2.13156
0.513444
-0.75753
-2.12672
-3.48837
-4.6553
-5.71169
-6.68758
-6.3195
4.22604
4.75683
4.73656
3.64762
2.95024
2.00789
1.5091
0.868065
0.281194
-0.311234
-0.578112
-0.388908
0.61091
1.67052
3.3333
45.4976
45.4131
44.6839
40.6989
35.4739
31.5537
29.1652
27.7098
26.5959
26.3757
25.9398
25.4926
25.2417
25.2439
25.1358
28.9042
28.9827
28.9964
28.9979
29.0037
29.0305
29.074
29.059
29.0514
29.045
29.0817
29.0393
29.0229
29.0455
28.9811
28.9565
28.9554
28.9698
28.8508
28.8597
28.8777
28.7477
28.7096
28.7519
28.7536
28.5931
28.5519
28.6044
28.6399
28.4234
28.4735
28.5359
28.3498
28.2902
28.3547
28.4205
28.1929
28.2328
28.304
28.1426
28.0749
28.1675
28.1437
28.0086
27.9696
28.0954
27.9494
27.7476
27.9342
27.7947
27.6462
27.6081
27.7552
27.7663
27.6737
27.6342
27.7165
27.9559
27.903
27.8747
28.269
28.2564
28.1925
28.1317
28.352
28.3905
28.8581
28.5927
27.8554
28.5102
29.3206
25.5548
23.5776
25.513
27.0119
13.4018
19.3664
22.418
-6.18761
1.87958
6.00517
4.90773
7.8886
-2.31223
4.05511
8.63476
9.36839
10.5201
11.3425
12.4681
14.855
17.8609
11.4823
13.771
15.9554
19.145
22.3262
23.8036
25.7301
27.7073
29.9009
25.9778
29.8512
33.3564
35.3663
38.2545
41.7765
44.3665
46.1174
48.1464
48.4304
52.7639
52.0847
54.8844
56.2245
57.5669
59.9504
63.1641
64.6242
62.0527
67.9563
66.891
70.0619
70.7906
70.2581
69.4764
68.7133
70.2879
66.5642
77.1267
72.3374
68.17
67.5638
66.5482
63.2276
60.7056
57.6212
49.9471
60.6285
60.428
53.6557
49.9223
44.8287
39.5305
34.5739
31.0543
26.5488
20.6051
21.2771
20.2489
14.7094
13.5078
11.7416
9.08134
2.4162
0.158706
2.52854
-4.88722
4.54928
2.51861
2.01272
7.86995
1.65254
4.28302
2.80429
4.91521
8.11751
2.54283
5.52571
7.74239
3.72358
5.03545
3.74635
5.06025
7.439
3.44725
4.69288
3.27889
4.74474
6.865
2.18455
4.5889
6.3913
2.66865
3.79733
2.48499
3.69901
6.11766
2.08208
3.24191
1.89006
3.23277
5.76784
0.715635
3.19382
5.44528
1.30179
2.50166
1.18829
2.4598
5.39129
0.83035
2.17797
0.756753
2.27035
5.15758
-0.34489
2.43497
4.85304
0.530696
1.87764
0.578582
1.95281
4.83144
0.416798
1.84331
0.504904
2.02838
4.50963
-0.259509
2.23889
4.06598
0.622248
1.78712
0.750509
1.86232
3.71145
0.652383
1.67799
0.740424
1.73239
2.98483
0.163853
1.55907
2.22585
0.325615
0.863966
0.109273
0.597558
1.75498
0.000244325
0.000452543
0.000757183
0.000998223
0.00128054
0.00155073
0.00184136
0.00213546
0.00244371
0.00276092
0.00309096
0.00343254
0.00378742
0.00415573
0.00453864
0.00493683
0.00535142
0.0057834
0.00623396
0.00670431
0.00719572
0.00770947
0.00824682
0.00880887
0.00939648
0.0100101
0.0106494
0.0113132
0.011999
0.0127025
0.0134174
0.0141348
0.0148435
0.01553
0.0161795
0.016777
0.0173105
0.0177727
0.018164
0.0184944
0.0187833
0.019057
0.0193451
0.0196748
0.0200674
0.0205383
0.0211016
0.0217751
0.0225721
0.0234722
0.0243743
0.0250642
0.0252376
0.024573
0.0227414
0.0194022
0.0142626
0.00701968
-0.00252196
-0.0144348
-0.0286453
-0.0431887
-0.0560233
-0.0700808
-0.0475258
-0.226325
-0.39576
-0.50898
-0.602205
-0.659475
-0.636211
-0.593781
-0.469187
-0.416839
-0.219912
-0.293714
-0.0700365
-0.12303
-0.764986
0.000709151
0.00131571
0.00219226
0.00290312
0.00371724
0.00450123
0.00533669
0.00618232
0.00706454
0.00797121
0.00891189
0.00988393
0.0108918
0.0119361
0.0130201
0.0141456
0.0153156
0.0165329
0.0178007
0.0191222
0.0205008
0.02194
0.023443
0.0250127
0.0266511
0.0283592
0.0301358
0.0319771
0.0338754
0.0358184
0.0377874
0.0397572
0.0416956
0.0435641
0.0453209
0.0469252
0.0483437
0.0495588
0.0505758
0.0514282
0.0521769
0.0529042
0.0537014
0.0546536
0.055829
0.0572799
0.0590576
0.0612278
0.0638517
0.0669014
0.0701267
0.0729631
0.0746039
0.0742147
0.0709495
0.0639182
0.0523284
0.0352597
0.0119232
-0.0184236
-0.0565368
-0.0982488
-0.140606
-0.187531
-0.149044
-0.457512
-0.76321
-0.98275
-1.16607
-1.28021
-1.25752
-1.18247
-0.982759
-0.830597
-0.533033
-0.454008
-0.152594
-0.0310171
-0.0994527
0.00110831
0.00212556
0.00361096
0.00480869
0.00618252
0.00750347
0.00891166
0.0103364
0.0118231
0.013351
0.0149365
0.0165749
0.018274
0.0200349
0.0218629
0.0237612
0.0257351
0.0277892
0.0299289
0.0321598
0.0344877
0.0369184
0.0394575
0.0421101
0.0448797
0.047768
0.0507733
0.0538894
0.0571036
0.0603951
0.063733
0.0670751
0.0703669
0.0735441
0.0765356
0.0792723
0.0816974
0.0837797
0.0855269
0.086993
0.088279
0.0895214
0.0908716
0.0924704
0.0944301
0.0968349
0.0997669
0.103333
0.107633
0.112614
0.117846
0.12236
0.124769
0.123635
0.117487
0.104782
0.0841324
0.0539502
0.0128878
-0.0403115
-0.106751
-0.179212
-0.253863
-0.331779
-0.282488
-0.619228
-0.957114
-1.22058
-1.4408
-1.57689
-1.54855
-1.45608
-1.21864
-1.01944
-0.673206
-0.523491
-0.170038
-0.0226283
0.256094
0.00149143
0.00291811
0.00499438
0.00667696
0.00859965
0.0104503
0.01242
0.0144129
0.0164911
0.0186265
0.0208415
0.0231301
0.0255029
0.0279615
0.0305133
0.0331631
0.035918
0.0387843
0.0417698
0.0448822
0.0481295
0.05152
0.0550614
0.0587607
0.062623
0.0666506
0.0708412
0.0751861
0.0796679
0.0842575
0.0889119
0.0935722
0.0981624
0.102592
0.106763
0.110577
0.113956
0.116854
0.119283
0.121319
0.123103
0.124829
0.126708
0.12894
0.13168
0.135048
0.139157
0.144162
0.15021
0.157244
0.16467
0.171134
0.174693
0.173339
0.165013
0.147543
0.118965
0.0769896
0.019604
-0.0552246
-0.149325
-0.253167
-0.364215
-0.477632
-0.435281
-0.8318
-1.21485
-1.52721
-1.79094
-1.95433
-1.91506
-1.79825
-1.50551
-1.25482
-0.832351
-0.636768
-0.19649
-0.0360497
0.314468
0.00184061
0.00368358
0.00635148
0.00852471
0.0110004
0.0133858
0.0159214
0.0184872
0.0211614
0.0239088
0.026758
0.0297016
0.0327531
0.0359146
0.0391956
0.0426024
0.046144
0.0498289
0.0536667
0.0576674
0.0618416
0.0661997
0.0707518
0.0755068
0.0804716
0.0856491
0.0910366
0.0966232
0.102386
0.10829
0.114278
0.120275
0.126183
0.131887
0.137259
0.142172
0.146524
0.150257
0.153383
0.156
0.15829
0.160503
0.162914
0.165778
0.169296
0.173619
0.178891
0.185314
0.193094
0.202172
0.211798
0.220217
0.22491
0.223285
0.212664
0.190227
0.1534
0.0991522
0.0247475
-0.0727429
-0.195923
-0.333238
-0.484815
-0.636591
-0.615275
-1.08118
-1.51532
-1.87938
-2.19004
-2.38402
-2.33318
-2.18852
-1.83497
-1.52231
-1.0181
-0.759405
-0.232625
-0.0482768
0.513606
0.00216912
0.00443248
0.00768205
0.0103478
0.0133734
0.0162928
0.0193916
0.0225282
0.0257951
0.0291513
0.0326307
0.0362249
0.0399501
0.0438093
0.047814
0.0519717
0.0562935
0.0607898
0.0654724
0.0703534
0.0754458
0.0807623
0.0863154
0.0921159
0.0981723
0.104488
0.111061
0.117877
0.12491
0.132115
0.139424
0.146747
0.153963
0.160931
0.167493
0.173496
0.17881
0.183364
0.187173
0.190356
0.193137
0.195822
0.198751
0.202238
0.20653
0.211804
0.218238
0.226085
0.235618
0.246797
0.258724
0.269244
0.275251
0.273575
0.260913
0.233802
0.189044
0.122834
0.0316305
-0.0885903
-0.241399
-0.413875
-0.610274
-0.804169
-0.819789
-1.34983
-1.82653
-2.23478
-2.58532
-2.80469
-2.73891
-2.56486
-2.15133
-1.77563
-1.19462
-0.869453
-0.263691
-0.0457411
0.639113
0.00247536
0.00516543
0.00898915
0.0121505
0.015725
0.0191801
0.022842
0.0265497
0.030409
0.0343737
0.0384827
0.0427268
0.047125
0.0516807
0.0564077
0.0613149
0.0664154
0.0717213
0.0772468
0.0830062
0.0890146
0.0952873
0.101839
0.108683
0.115828
0.123281
0.131037
0.139081
0.147383
0.155889
0.164521
0.173171
0.181699
0.189935
0.197693
0.204789
0.211069
0.216446
0.220935
0.224678
0.22794
0.231088
0.234526
0.238629
0.243686
0.249904
0.257491
0.266754
0.278045
0.291363
0.305674
0.318411
0.325863
0.324275
0.30971
0.278047
0.225453
0.147313
0.0392005
-0.10418
-0.287506
-0.497202
-0.742781
-0.982444
-1.05111
-1.64387
-2.16112
-2.60895
-2.99452
-3.23431
-3.1486
-2.94204
-2.46566
-2.025
-1.36657
-0.976312
-0.293183
-0.0528446
0.740325
0.00276377
0.00588635
0.0102743
0.0139335
0.0180543
0.0220451
0.0262687
0.0305464
0.0349964
0.0395677
0.0443041
0.0491957
0.0542639
0.0595132
0.0649591
0.0706122
0.0764874
0.0825989
0.0889627
0.0955956
0.102515
0.109738
0.117283
0.125164
0.133393
0.141975
0.150908
0.160175
0.16974
0.179543
0.189495
0.19947
0.209307
0.218811
0.227765
0.235954
0.243197
0.249391
0.254552
0.258842
0.262571
0.266165
0.270097
0.274805
0.28062
0.287776
0.296506
0.307177
0.320239
0.335751
0.352556
0.367668
0.376746
0.375455
0.359204
0.323215
0.263014
0.17314
0.0482045
-0.11856
-0.333103
-0.582087
-0.881162
-1.17068
-1.31003
-1.96525
-2.526
-3.01148
-3.42987
-3.68545
-3.57391
-3.33078
-2.78729
-2.27776
-1.53991
-1.08235
-0.32335
-0.0686831
0.856624
0.00303571
0.00659711
0.0115397
0.0156988
0.0203633
0.0248904
0.0296741
0.0345213
0.0395605
0.0447371
0.0500989
0.055636
0.061372
0.0673124
0.0734746
0.0798706
0.0865174
0.0934309
0.100629
0.108132
0.115958
0.124128
0.132661
0.141574
0.150881
0.160589
0.170695
0.18118
0.192005
0.203103
0.214374
0.225675
0.236824
0.247598
0.257752
0.267036
0.275243
0.282252
0.288077
0.292901
0.297081
0.301105
0.305516
0.310817
0.317381
0.325464
0.335324
0.347391
0.362232
0.379993
0.399413
0.417068
0.427964
0.427182
0.409461
0.369367
0.301775
0.20035
0.0586612
-0.131719
-0.378184
-0.668639
-1.02537
-1.36922
-1.59859
-2.31262
-2.92104
-3.44229
-3.89227
-4.1582
-4.01303
-3.72851
-3.11349
-2.53097
-1.71261
-1.18433
-0.352966
-0.0581258
0.923757
0.00329346
0.00729984
0.0127868
0.0174475
0.0226527
0.027716
0.0330581
0.0384736
0.0441002
0.0498802
0.0558653
0.0620455
0.0684466
0.0750751
0.0819503
0.0890859
0.0965004
0.104212
0.112241
0.120608
0.129336
0.138447
0.147963
0.157903
0.168284
0.179112
0.190386
0.202085
0.214166
0.226556
0.239143
0.25177
0.264233
0.276281
0.287637
0.29802
0.307191
0.31501
0.32149
0.326834
0.331446
0.335879
0.340751
0.34663
0.353933
0.362933
0.373907
0.387355
0.40398
0.424053
0.446226
0.466618
0.47955
0.479521
0.46058
0.416638
0.341918
0.229189
0.0708977
-0.14323
-0.422219
-0.756321
-1.17454
-1.57792
-1.91873
-2.68533
-3.34801
-3.90334
-4.38527
-4.65614
-4.46763
-4.13556
-3.44372
-2.78378
-1.88363
-1.28137
-0.381814
-0.0587251
0.978985
0.00353855
0.0079961
0.0140174
0.0191812
0.0249237
0.030523
0.0364215
0.0424043
0.0486162
0.0549978
0.0616038
0.0684246
0.075488
0.0828018
0.0903868
0.0982583
0.106437
0.114943
0.123798
0.133025
0.142651
0.152698
0.163191
0.174153
0.185601
0.197544
0.20998
0.222889
0.236223
0.249903
0.263806
0.277761
0.29154
0.304867
0.317431
0.328915
0.339052
0.347677
0.354802
0.360651
0.365673
0.370492
0.375805
0.382246
0.390276
0.40018
0.41225
0.427058
0.44547
0.467919
0.492997
0.516339
0.531546
0.532535
0.512639
0.465128
0.383567
0.259816
0.0851235
-0.152807
-0.464832
-0.844698
-1.32777
-1.79671
-2.27203
-3.08243
-3.80977
-4.39749
-4.91387
-5.18511
-4.94202
-4.55464
-3.77943
-3.03696
-2.0533
-1.37347
-0.409324
-0.0713279
1.07413
0.00377252
0.00868726
0.0152329
0.020901
0.0271772
0.0333121
0.0397649
0.0463133
0.0531085
0.0600895
0.067314
0.0747727
0.0824955
0.0904912
0.0987825
0.107386
0.116325
0.12562
0.135297
0.14538
0.155898
0.166875
0.178341
0.190319
0.202828
0.215881
0.229475
0.243588
0.258172
0.27314
0.288359
0.303643
0.318743
0.333354
0.347131
0.359722
0.370825
0.380254
0.388012
0.394346
0.399755
0.404935
0.410664
0.417651
0.426396
0.437191
0.450334
0.466475
0.486671
0.511566
0.539717
0.566244
0.583989
0.586285
0.565724
0.514945
0.426865
0.292425
0.101604
-0.160073
-0.505515
-0.933083
-1.48366
-2.02507
-2.65832
-3.49978
-4.30802
-4.92672
-5.48214
-5.75029
-5.44019
-4.98808
-4.12149
-3.29069
-2.22148
-1.45947
-0.434858
-0.0431674
1.14125
0.00399665
0.00937445
0.0164347
0.0226081
0.0294142
0.0360839
0.0430886
0.0502013
0.0575773
0.0651555
0.0729956
0.0810895
0.0894685
0.0981429
0.107137
0.116469
0.126164
0.136245
0.146738
0.157672
0.169076
0.180979
0.193411
0.206399
0.219964
0.23412
0.248866
0.26418
0.28001
0.296264
0.312801
0.329416
0.345841
0.361742
0.37674
0.390445
0.402516
0.412744
0.421124
0.427924
0.433693
0.439205
0.445324
0.452837
0.462283
0.473955
0.488145
0.505585
0.527556
0.554968
0.586377
0.616346
0.636913
0.640829
0.61991
0.566189
0.471942
0.327192
0.12059
-0.164655
-0.543739
-1.02064
-1.64049
-2.26178
-3.07334
-3.92796
-4.84226
-5.4926
-6.0939
-6.35675
-5.96629
-5.43847
-4.47068
-3.54493
-2.38793
-1.53863
-0.459038
-0.0410604
1.18212
0.00421207
0.0100586
0.017624
0.0243034
0.0316356
0.0388392
0.0463933
0.0540682
0.0620226
0.0701955
0.0786486
0.0873746
0.0964065
0.105756
0.115449
0.125506
0.135952
0.146813
0.158119
0.169898
0.182183
0.195006
0.208398
0.22239
0.237005
0.252259
0.268152
0.284662
0.301735
0.319274
0.337127
0.355077
0.372833
0.390033
0.40626
0.421084
0.434128
0.44515
0.454139
0.461383
0.467483
0.473294
0.479775
0.487793
0.497927
0.510459
0.525666
0.544363
0.568091
0.598094
0.632962
0.666654
0.690349
0.696221
0.675272
0.618958
0.518926
0.364294
0.142342
-0.166144
-0.578891
-1.1063
-1.796
-2.50421
-3.50532
-4.35117
-5.40815
-6.0961
-6.75309
-7.00978
-6.5249
-5.90914
-4.82822
-3.79982
-2.55191
-1.61044
-0.479897
-0.0160609
1.27268
0.00441976
0.0107406
0.018802
0.025988
0.033842
0.0415786
0.0496792
0.0579145
0.0664445
0.0752096
0.0842725
0.0936275
0.103309
0.11333
0.123718
0.134495
0.145688
0.157326
0.169438
0.182057
0.195218
0.208954
0.2233
0.23829
0.253949
0.270294
0.287329
0.30503
0.323342
0.342165
0.361337
0.380625
0.399719
0.418225
0.43569
0.451643
0.465663
0.477476
0.48706
0.494723
0.501122
0.507197
0.514008
0.522508
0.533316
0.546692
0.562883
0.582783
0.608241
0.640908
0.679455
0.717173
0.744328
0.752514
0.731882
0.673343
0.567934
0.403903
0.167123
-0.164108
-0.610287
-1.18874
-1.94745
-2.74811
-3.9337
-4.75419
-5.99922
-6.73739
-7.46374
-7.71466
-7.12072
-6.40382
-5.19574
-4.05571
-2.71235
-1.67622
-0.494495
0.00232604
1.28268
0.0046206
0.011421
0.0199697
0.0276626
0.0360344
0.0443025
0.0529467
0.0617403
0.0708431
0.0801975
0.0898671
0.0998478
0.110175
0.120864
0.131943
0.143435
0.155371
0.167779
0.180693
0.194147
0.208177
0.222821
0.238115
0.254096
0.270792
0.288223
0.306393
0.325281
0.34483
0.364934
0.385426
0.406058
0.426496
0.446319
0.465034
0.482124
0.497125
0.509725
0.519891
0.527947
0.534608
0.540907
0.548013
0.556972
0.56844
0.582644
0.599778
0.620818
0.647964
0.683369
0.725836
0.767905
0.798877
0.809758
0.789804
0.729427
0.619078
0.446179
0.195196
-0.158086
-0.637158
-1.26647
-2.09214
-2.98847
-4.3353
-5.14023
-6.61363
-7.41651
-8.23012
-8.47666
-7.75845
-6.92652
-5.57517
-4.31321
-2.8686
-1.73748
-0.499744
0.0115441
1.37125
0.00481532
0.0121005
0.0211281
0.0293279
0.0382133
0.0470115
0.0561963
0.0655457
0.0752183
0.0851591
0.095432
0.106035
0.117004
0.128357
0.140122
0.152326
0.164999
0.178174
0.191884
0.206166
0.221059
0.236604
0.25284
0.269805
0.287531
0.306041
0.325341
0.345411
0.366193
0.387579
0.409392
0.431371
0.453163
0.474313
0.494291
0.51253
0.528517
0.541902
0.552633
0.561053
0.567938
0.574418
0.58178
0.591172
0.603288
0.618302
0.636337
0.65844
0.687217
0.725431
0.772079
0.81885
0.854019
0.867999
0.849099
0.787288
0.672455
0.49127
0.226815
-0.147601
-0.658662
-1.3378
-2.22746
-3.22003
-4.6966
-5.52624
-7.24973
-8.13355
-9.0569
-9.30122
-8.44272
-7.48138
-5.96877
-4.57332
-3.02008
-1.79306
-0.49471
0.0673609
1.46865
0.00500457
0.0127794
0.022278
0.0309848
0.0403795
0.049706
0.0594282
0.0693309
0.0795701
0.0900941
0.100967
0.112188
0.123796
0.135808
0.148256
0.161166
0.174572
0.188507
0.203007
0.218112
0.233863
0.250301
0.267472
0.285414
0.304164
0.323746
0.34417
0.365417
0.387429
0.410095
0.433231
0.456564
0.479718
0.502209
0.523462
0.542863
0.559843
0.57401
0.585289
0.594043
0.601109
0.607722
0.615299
0.625097
0.637848
0.653658
0.672544
0.695618
0.725948
0.76704
0.818153
0.870004
0.909777
0.92728
0.909822
0.846988
0.72814
0.539291
0.262208
-0.132185
-0.673919
-1.40098
-2.35117
-3.44067
-5.0147
-5.92238
-7.88478
-8.88662
-9.94893
-10.1941
-9.17804
-8.0727
-6.37889
-4.83718
-3.16626
-1.84153
-0.480484
0.111781
1.47026
0.00518889
0.0134583
0.0234201
0.0326337
0.0425334
0.0523864
0.0626427
0.0730959
0.0838984
0.0950024
0.106471
0.118308
0.130549
0.143216
0.156342
0.169954
0.184087
0.198777
0.214062
0.229983
0.246584
0.263911
0.282008
0.30092
0.320686
0.341335
0.362876
0.385295
0.408533
0.432478
0.456939
0.481632
0.506159
0.530003
0.552548
0.573125
0.591107
0.606053
0.617864
0.626917
0.634117
0.640812
0.648558
0.658734
0.672109
0.688702
0.708384
0.732319
0.764104
0.808137
0.864024
0.921357
0.966171
0.987639
0.972017
0.908571
0.786175
0.590306
0.301539
-0.111437
-0.682095
-1.45431
-2.46184
-3.65035
-5.28852
-6.33317
-8.48816
-9.67294
-10.9114
-11.1615
-9.96876
-8.70477
-6.80788
-5.10574
-3.30673
-1.88203
-0.455403
0.146814
1.56437
0.00536876
0.0141375
0.0245552
0.0342752
0.0446756
0.0550531
0.0658399
0.0768409
0.0882031
0.0998836
0.111945
0.124392
0.137264
0.150581
0.16438
0.178688
0.193544
0.208983
0.225046
0.241777
0.259222
0.277429
0.296446
0.316321
0.337096
0.358802
0.381455
0.40504
0.429502
0.454725
0.480514
0.506573
0.532483
0.557696
0.58155
0.603318
0.622313
0.638036
0.650361
0.659678
0.66696
0.673679
0.681543
0.692068
0.706061
0.723425
0.743845
0.768511
0.801621
0.848654
0.909654
0.972898
1.02321
1.04911
1.03571
0.972046
0.846532
0.644277
0.344835
-0.0851195
-0.682552
-1.49647
-2.5584
-3.84517
-5.52545
-6.78738
-9.04953
-10.4968
-11.9494
-12.2099
-10.8192
-9.38183
-7.25803
-5.37994
-3.44118
-1.91319
-0.417581
0.243791
1.69375
0.00554458
0.0148172
0.0256839
0.0359099
0.0468066
0.0577062
0.0690201
0.0805657
0.0924841
0.104737
0.117387
0.130441
0.143938
0.157902
0.172368
0.187368
0.20294
0.219122
0.235958
0.253493
0.271774
0.290854
0.310783
0.331613
0.353389
0.376146
0.399903
0.424649
0.45033
0.47683
0.50395
0.531382
0.558687
0.585286
0.610468
0.633445
0.653463
0.669964
0.682783
0.692325
0.699635
0.706314
0.714243
0.725086
0.739691
0.757821
0.778915
0.804158
0.838433
0.888514
0.954996
1.02461
1.08092
1.11171
1.10091
1.03736
0.909071
0.700991
0.391891
-0.0533015
-0.67503
-1.52676
-2.64041
-4.02076
-5.74411
-7.3273
-9.55594
-11.3622
-13.0682
-13.3461
-11.7336
-10.1079
-7.73158
-5.66072
-3.56937
-1.93397
-0.36846
0.314798
1.69232
0.00571666
0.0154978
0.0268067
0.037538
0.0489268
0.0603461
0.0721833
0.0842703
0.0967411
0.109564
0.122798
0.136454
0.150572
0.165177
0.180306
0.195992
0.212274
0.229194
0.246796
0.265127
0.284238
0.304183
0.325017
0.346793
0.369562
0.393363
0.418217
0.444117
0.471013
0.49879
0.527243
0.556055
0.584769
0.612771
0.639301
0.663509
0.684564
0.70184
0.715135
0.72486
0.732138
0.738709
0.746642
0.757772
0.772989
0.791884
0.813583
0.839224
0.874462
0.92763
1
1.07646
1.1393
1.17543
1.16755
1.10433
0.973453
0.759948
0.442127
-0.0165128
-0.659841
-1.54533
-2.70807
-4.17625
-5.9657
-7.91841
-9.96203
-12.2606
-14.2762
-14.5775
-12.7161
-10.8869
-8.2307
-5.9489
-3.69119
-1.94331
-0.305183
0.421307
1.85127
0.00588529
0.0161795
0.027924
0.03916
0.0510364
0.062973
0.0753296
0.0879546
0.100974
0.114361
0.128176
0.14243
0.157164
0.172405
0.188192
0.204558
0.221546
0.239197
0.257557
0.276678
0.296611
0.317414
0.339144
0.361859
0.385612
0.410447
0.436391
0.46344
0.491548
0.520599
0.550388
0.580589
0.610725
0.640149
0.668051
0.69351
0.715618
0.733672
0.747421
0.757286
0.764465
0.770853
0.778725
0.790109
0.805944
0.825611
0.847843
0.873671
0.909624
0.965907
1.04461
1.12844
1.19833
1.24022
1.23545
1.17258
1.03903
0.820238
0.494462
0.0241459
-0.63797
-1.55323
-2.7625
-4.31401
-6.19797
-8.43248
-10.3025
-13.2097
-15.5787
-15.9111
-13.7711
-11.7225
-8.7574
-6.24515
-3.80657
-1.93989
-0.227383
0.527221
1.88181
0.00605067
0.0168625
0.0290364
0.0407762
0.0531358
0.0655869
0.078459
0.0916186
0.105182
0.119131
0.133521
0.148368
0.163714
0.179586
0.196025
0.213066
0.230752
0.249128
0.268241
0.288143
0.308891
0.330543
0.353161
0.376806
0.401535
0.427396
0.454422
0.482613
0.511927
0.542251
0.57338
0.604978
0.63655
0.667417
0.696715
0.723452
0.74663
0.765464
0.779648
0.789605
0.796613
0.802735
0.810474
0.822078
0.838544
0.859
0.88169
0.907462
0.943826
1.00323
1.08877
1.18048
1.25797
1.30594
1.30426
1.24142
1.10471
0.88042
0.547255
0.0670056
-0.611022
-1.55228
-2.80582
-4.43828
-6.43963
-8.84704
-10.6665
-14.2008
-16.9764
-17.3544
-14.9027
-12.618
-9.31341
-6.5501
-3.91537
-1.92257
-0.133399
0.634778
2.01872
0.00621297
0.017547
0.0301441
0.0423868
0.0552252
0.068188
0.0815716
0.0952619
0.109366
0.123871
0.138832
0.154268
0.17022
0.186718
0.203804
0.221514
0.239892
0.258986
0.278844
0.299521
0.321076
0.343569
0.367066
0.391631
0.417326
0.444206
0.472305
0.501631
0.532147
0.563743
0.596213
0.629217
0.662241
0.694572
0.725294
0.753335
0.777605
0.797223
0.81182
0.821818
0.828579
0.834343
0.841871
0.85366
0.870777
0.892055
0.915125
0.940558
0.976963
1.03949
1.13239
1.23252
1.3181
1.37226
1.37329
1.30968
1.16885
0.938489
0.598381
0.109994
-0.58101
-1.54475
-2.84084
-4.55479
-6.69288
-9.23494
-11.1767
-15.2209
-18.4954
-18.9145
-16.1141
-13.5764
-9.90008
-6.86438
-4.01703
-1.88989
-0.0209227
0.805657
2.20788
0.00637232
0.0182332
0.0312475
0.0439921
0.0573049
0.0707763
0.0846672
0.0988844
0.113524
0.128582
0.144109
0.160129
0.176682
0.193801
0.211527
0.229899
0.248964
0.268769
0.289365
0.310809
0.333162
0.356488
0.380855
0.406331
0.432984
0.460871
0.490035
0.520489
0.552201
0.585067
0.618882
0.653299
0.687792
0.721612
0.753787
0.783163
0.808547
0.828955
0.843944
0.853929
0.860359
0.865666
0.872894
0.884832
0.902633
0.924778
0.948153
0.972921
1.00892
1.07454
1.17538
1.28443
1.37844
1.43854
1.44139
1.37562
1.22923
0.992018
0.645485
0.150944
-0.550003
-1.53298
-2.87062
-4.66933
-6.96168
-9.64934
-11.927
-16.324
-20.1819
-20.5989
-17.4071
-14.6002
-10.5181
-7.18858
-4.1105
-1.84057
0.108854
0.964347
2.28092
0.00652878
0.0189213
0.0323468
0.0455922
0.0593748
0.0733517
0.0877457
0.102486
0.117657
0.133262
0.149351
0.16595
0.183098
0.200832
0.219193
0.238222
0.257967
0.278475
0.299802
0.322005
0.345148
0.369297
0.394525
0.420903
0.448503
0.477388
0.507608
0.539182
0.572084
0.606218
0.641379
0.67722
0.713197
0.748532
0.782192
0.812937
0.839462
0.860668
0.876027
0.885943
0.89195
0.896688
0.903521
0.915569
0.934098
0.957181
0.980788
1.00451
1.03956
1.10821
1.21761
1.33596
1.43847
1.50369
1.50676
1.43684
1.28318
1.03848
0.686375
0.187984
-0.519719
-1.51888
-2.89786
-4.78688
-7.24987
-10.1316
-12.9846
-17.5241
-22.0732
-22.4169
-18.7822
-15.6904
-11.1677
-7.52316
-4.19438
-1.77359
0.258224
1.12191
2.46588
0.0066824
0.0196113
0.0334422
0.0471873
0.0614352
0.0759143
0.0908069
0.106066
0.121763
0.137912
0.154557
0.171729
0.189468
0.207811
0.226801
0.24648
0.266897
0.288103
0.310152
0.333106
0.35703
0.381994
0.408073
0.435342
0.463879
0.493753
0.525019
0.557704
0.591791
0.627188
0.663698
0.700971
0.738451
0.775327
0.810507
0.842658
0.870354
0.892368
0.908077
0.917862
0.923348
0.927396
0.933726
0.945845
0.96516
0.989277
1.01305
1.0353
1.06874
1.14032
1.25887
1.38666
1.49722
1.56598
1.56692
1.49047
1.32805
1.07574
0.719427
0.219905
-0.491166
-1.5036
-2.92431
-4.91082
-7.56046
-10.7041
-14.3171
-18.7887
-24.1959
-24.3803
-20.2385
-16.8473
-11.8481
-7.8683
-4.26703
-1.68732
0.430271
1.35262
2.70659
0.00683318
0.0203035
0.0345338
0.0487773
0.063486
0.0784639
0.0938507
0.109624
0.125843
0.14253
0.159727
0.177467
0.19579
0.214736
0.234348
0.254671
0.275754
0.297649
0.320414
0.34411
0.368807
0.394576
0.421495
0.449646
0.479109
0.509961
0.542262
0.57605
0.611313
0.647971
0.685832
0.724547
0.763547
0.801992
0.83873
0.872328
0.901229
0.924065
0.940102
0.949692
0.954549
0.957773
0.96348
0.975628
0.995805
1.02109
1.04497
1.06524
1.09628
1.17062
1.29881
1.43573
1.55315
1.6229
1.61873
1.53361
1.36173
1.10245
0.743912
0.24643
-0.464402
-1.48727
-2.95046
-5.04244
-7.89476
-11.3717
-15.8109
-20.1224
-26.6064
-26.5081
-21.7744
-18.0691
-12.5577
-8.22379
-4.3265
-1.58005
0.622615
1.56363
2.8042
0.0069811
0.0209979
0.0356219
0.0503624
0.0655273
0.0810004
0.0968767
0.11316
0.129896
0.147116
0.164859
0.183161
0.202063
0.221607
0.241835
0.262795
0.284536
0.307113
0.330585
0.355015
0.380474
0.407038
0.434789
0.46381
0.494189
0.526006
0.559333
0.594212
0.630646
0.66856
0.707773
0.747938
0.788478
0.828522
0.866857
0.901947
0.932093
0.955767
0.972112
0.981439
0.985551
0.987802
0.992752
1.00488
1.02602
1.05263
1.07658
1.0943
1.12198
1.19875
1.33679
1.48187
1.60392
1.67113
1.6589
1.56402
1.38314
1.11836
0.760143
0.268298
-0.438503
-1.469
-2.97545
-5.18076
-8.25208
-12.1323
-17.3819
-21.6309
-29.4216
-28.8278
-23.3888
-19.3518
-13.2934
-8.58884
-4.37063
-1.45025
0.839253
1.81496
3.07738
0.00712609
0.0216947
0.0367064
0.0519426
0.0675589
0.0835235
0.0998846
0.116673
0.133921
0.151669
0.169952
0.188811
0.208286
0.228421
0.249259
0.270848
0.293241
0.316492
0.340662
0.365817
0.39203
0.41938
0.44795
0.477831
0.509113
0.541885
0.576225
0.612187
0.649781
0.688947
0.729513
0.771136
0.813235
0.85491
0.894886
0.931517
0.96295
0.987483
1.00412
1.01311
1.01635
1.01747
1.02151
1.03357
1.05579
1.08395
1.10796
1.12245
1.14557
1.2242
1.37185
1.5231
1.64628
1.70692
1.68482
1.58075
1.3925
1.12432
0.769434
0.287145
-0.411735
-1.447
-2.99717
-5.32266
-8.62922
-12.982
-19.0259
-23.4729
-32.749
-31.3739
-25.0812
-20.6894
-14.0509
-8.96201
-4.39707
-1.29547
1.0811
2.06976
3.24468
0.00726807
0.022394
0.0377875
0.0535178
0.0695807
0.086033
0.102874
0.120162
0.137918
0.156188
0.175006
0.194416
0.214458
0.235177
0.256618
0.27883
0.301866
0.325784
0.350644
0.376515
0.403472
0.431596
0.460976
0.491704
0.523877
0.557592
0.592933
0.629966
0.668712
0.709124
0.751042
0.794132
0.837809
0.881149
0.922811
0.961037
0.993806
1.01922
1.03613
1.04471
1.04695
1.04674
1.0497
1.06164
1.08509
1.11508
1.13916
1.14963
1.16667
1.24619
1.40253
1.5566
1.67615
1.72694
1.69535
1.58436
1.39118
1.12212
0.773852
0.305186
-0.38189
-1.41894
-3.01258
-5.46314
-9.01999
-13.9129
-20.7575
-25.7857
-36.6208
-34.179
-26.8532
-22.074
-14.8242
-9.34112
-4.40321
-1.11321
1.35061
2.33473
3.51923
0.00740691
0.0230959
0.0388651
0.055088
0.0715927
0.0885285
0.105844
0.123628
0.141885
0.160672
0.180019
0.199974
0.220577
0.241874
0.26391
0.286738
0.310411
0.334986
0.360528
0.387106
0.414797
0.443685
0.473862
0.505425
0.538478
0.573122
0.609452
0.647543
0.687431
0.729082
0.772351
0.816915
0.862191
0.90723
0.950629
0.990509
1.02467
1.051
1.06816
1.07625
1.07734
1.07561
1.0773
1.08905
1.1139
1.14608
1.17025
1.17574
1.18474
1.26364
1.42687
1.57846
1.68939
1.72951
1.69127
1.57677
1.38147
1.11414
0.775821
0.324806
-0.346642
-1.38218
-3.01788
-5.59571
-9.41547
-14.9115
-22.5686
-28.5902
-41.0476
-37.2728
-28.7071
-23.4979
-15.6062
-9.72316
-4.3861
-0.900551
1.6518
2.66664
3.83575
0.00754247
0.0238005
0.0399391
0.056653
0.0735945
0.0910098
0.108796
0.12707
0.145822
0.165121
0.184991
0.205485
0.226642
0.248509
0.271135
0.294571
0.318872
0.344097
0.370311
0.397586
0.426
0.455642
0.486605
0.518991
0.55291
0.58847
0.625775
0.664912
0.70593
0.748813
0.793431
0.839476
0.886369
0.933143
0.978331
1.01993
1.05554
1.08282
1.10022
1.10775
1.10752
1.10405
1.10424
1.11573
1.14219
1.17698
1.20132
1.20058
1.19903
1.27534
1.442
1.58397
1.6833
1.7153
1.67496
1.56077
1.36612
1.1029
0.777701
0.3482
-0.303804
-1.33398
-3.00877
-5.71269
-9.80442
-15.9573
-24.4331
-31.8855
-46.0168
-40.681
-30.6442
-24.9533
-16.3884
-10.1043
-4.34238
-0.654422
1.98453
2.99013
4.06838
0.00767457
0.0245079
0.0410096
0.0582127
0.0755859
0.0934763
0.111727
0.130486
0.149728
0.169533
0.18992
0.210947
0.232651
0.255083
0.27829
0.302327
0.327247
0.353113
0.379991
0.407953
0.437081
0.467464
0.499201
0.532398
0.567168
0.60363
0.641896
0.682065
0.724201
0.768306
0.81427
0.861802
0.910332
0.958878
1.00591
1.0493
1.08643
1.1147
1.13233
1.13921
1.1375
1.13203
1.13048
1.14161
1.16993
1.20783
1.23236
1.22374
1.2088
1.27983
1.44378
1.56892
1.65795
1.68706
1.64974
1.5395
1.3479
1.09069
0.781466
0.377185
-0.251378
-1.27149
-2.98046
-5.80537
-10.1735
-17.0225
-26.3121
-35.6594
-51.4806
-44.4167
-32.663
-26.4334
-17.1615
-10.4796
-4.26817
-0.372028
2.35266
3.31847
4.42088
0.00780302
0.0252183
0.0420764
0.059767
0.0775666
0.0959277
0.114637
0.133876
0.153603
0.173907
0.194805
0.216358
0.238602
0.261592
0.285374
0.310003
0.335535
0.362034
0.389565
0.418204
0.448035