/*--------------------------------*- C++ -*----------------------------------*\
| =========                 |                                                 |
| \\      /  F ield         | OpenFOAM: The Open Source CFD Toolbox           |
|  \\    /   O peration     | Version:  4.1                                   |
|   \\  /    A nd           | Web:      www.OpenFOAM.org                      |
|    \\/     M anipulation  |                                                 |
\*---------------------------------------------------------------------------*/
FoamFile
{
    version     2.0;
    format      ascii;
    class       volVectorField;
    location    "8";
    object      U;
}
// * * * * * * * * * * * * * * * * * * * * * * * * * * * * * * * * * * * * * //

dimensions      [0 1 -1 0 0 0 0];

internalField   nonuniform List<vector> 
6785
(
(1.43784e-14 -1.96828 16.3782)
(1.12434e-14 -7.71032 12.806)
(-3.14568e-15 -5.08336 13.5198)
(3.66316e-15 -4.94797 13.0673)
(9.78139e-16 -4.22189 12.8983)
(-1.27969e-16 -3.80341 12.6106)
(2.61256e-15 -3.41686 12.3174)
(6.42004e-16 -3.142 11.9899)
(-5.71209e-16 -2.95247 11.6342)
(1.86773e-15 -2.85246 11.2413)
(2.60898e-16 -2.79093 10.8471)
(-4.61519e-16 -2.80818 10.4538)
(8.79301e-16 -3.24653 9.81497)
(-7.652e-17 -3.17439 8.9685)
(-5.17612e-16 0.171841 7.35959)
(1.89619e-14 -9.6368 26.4474)
(1.41439e-14 -16.2524 22.6649)
(-3.04702e-15 -11.0831 23.058)
(4.78204e-15 -11.848 21.2533)
(9.03605e-16 -10.2336 20.3621)
(1.15298e-15 -9.57851 19.1409)
(2.31403e-15 -8.63662 18.0493)
(7.82433e-17 -7.87162 16.9587)
(1.10435e-16 -7.16383 15.9828)
(1.02089e-15 -6.62934 15.1167)
(-2.94994e-16 -6.23072 14.2292)
(-1.32923e-17 -5.82723 13.0291)
(7.05714e-16 -5.28623 11.0553)
(-4.01184e-16 -4.0387 7.3563)
(-5.10253e-16 -0.881877 1.18641)
(1.90205e-14 -12.3746 27.8468)
(1.19061e-14 -16.7168 24.8408)
(-1.8218e-15 -11.834 24.816)
(3.53377e-15 -12.7661 22.4217)
(7.35753e-16 -10.7052 21.4126)
(1.27925e-15 -10.1319 19.7979)
(6.36318e-16 -9.02034 18.5373)
(-1.65702e-16 -8.18285 17.185)
(1.05095e-16 -7.10429 15.5786)
(-1.58382e-16 -5.6076 13.0504)
(1.83504e-16 -3.65772 9.41132)
(-1.41743e-16 -2.11758 5.84907)
(-1.55775e-15 -1.80675 3.97299)
(-5.73457e-16 -1.9641 2.95945)
(-9.15851e-16 -1.98541 2.88829)
(1.95026e-14 -13.6393 28.4832)
(9.99732e-15 -17.0827 25.6311)
(-1.16835e-15 -12.687 25.4959)
(3.36245e-15 -13.9643 22.8338)
(2.55823e-16 -11.6046 21.9571)
(1.40398e-15 -11.4472 20.1212)
(2.47998e-16 -10.2199 18.9583)
(-4.42138e-16 -9.60756 17.5689)
(1.3797e-16 -8.52708 15.984)
(-6.35022e-17 -6.83785 13.101)
(9.43837e-16 -3.84345 8.16596)
(2.14355e-15 -0.452268 2.29873)
(4.71418e-15 1.86782 -1.33995)
(5.15001e-15 2.79691 -2.8048)
(3.49453e-15 1.2848 -1.80949)
(1.93377e-14 -13.9066 28.0065)
(1.12225e-14 -17.8356 26.9841)
(-7.95435e-16 -13.4013 25.974)
(3.43255e-15 -14.6973 23.2049)
(8.75468e-16 -12.3429 22.3279)
(1.37984e-15 -12.3579 20.348)
(8.74269e-16 -11.1535 19.1213)
(4.58544e-16 -10.6431 17.647)
(2.03627e-16 -9.81168 16.211)
(2.64825e-16 -8.7145 14.1371)
(1.35487e-15 -6.76621 10.8953)
(1.6969e-15 -3.95973 6.54305)
(3.33077e-15 -0.750278 2.06537)
(6.43738e-15 3.1189 -2.38546)
(1.03078e-14 1.90994 -5.49741)
(1.85774e-14 -13.2984 25.8336)
(1.32177e-14 -17.9274 27.5787)
(-3.95201e-18 -13.6693 25.5533)
(2.96993e-15 -14.4002 22.6069)
(1.59048e-15 -12.3436 21.5528)
(1.22274e-15 -12.1713 19.522)
(1.19818e-15 -11.0459 18.1089)
(1.0487e-15 -10.4151 16.4889)
(6.28141e-16 -9.64466 14.9651)
(3.11016e-16 -8.81069 13.2768)
(8.68763e-16 -7.72681 11.1945)
(1.55677e-15 -6.08452 8.58909)
(1.47606e-15 -4.14137 5.40516)
(1.10403e-15 -1.22019 1.82026)
(9.38732e-15 0.929173 -3.72485)
(1.90066e-14 -12.3993 23.4109)
(1.5144e-14 -17.4449 27.4739)
(2.13447e-15 -13.674 24.9425)
(2.53916e-15 -13.7321 21.814)
(2.44398e-15 -11.945 20.5789)
(2.58502e-15 -11.5588 18.6031)
(1.6081e-15 -10.4771 17.0908)
(2.00933e-15 -9.71611 15.4281)
(2.93412e-15 -8.89252 13.8744)
(1.42245e-15 -8.06665 12.343)
(1.38291e-15 -7.22731 10.7322)
(3.45714e-15 -6.11648 8.96066)
(2.91803e-15 -4.83294 6.69938)
(-6.77163e-16 -2.62624 3.77211)
(8.8224e-15 -0.316124 -1.54903)
(1.75019e-14 -11.7 21.7956)
(1.63981e-14 -16.7919 26.9887)
(3.62861e-15 -13.5926 24.4417)
(1.96282e-15 -13.1962 21.2151)
(2.79654e-15 -11.6053 19.8268)
(2.92261e-15 -11.113 17.9685)
(2.02685e-15 -10.1417 16.4945)
(2.50589e-15 -9.40145 14.9699)
(3.0358e-15 -8.63893 13.5364)
(2.85303e-15 -7.878 12.1495)
(2.00331e-15 -7.15139 10.7687)
(2.18099e-15 -6.31607 9.4197)
(3.53223e-15 -5.43186 7.88721)
(5.47388e-16 -3.8963 5.95695)
(1.32102e-15 -1.44453 1.21253)
(1.78059e-14 -11.361 21.1673)
(1.68896e-14 -16.0417 26.1335)
(2.29907e-15 -13.1663 23.7117)
(2.37224e-15 -12.6636 20.4428)
(3.34473e-15 -11.0515 19.0534)
(1.02864e-15 -10.6387 17.2181)
(2.45457e-15 -9.71684 15.8585)
(2.94389e-15 -9.14404 14.3677)
(2.38026e-16 -8.50418 12.9633)
(1.68725e-15 -7.93232 11.6499)
(2.38672e-15 -7.43296 10.5719)
(-4.19413e-16 -7.00425 9.86953)
(1.64676e-15 -6.58241 9.39301)
(1.03605e-15 -5.68706 8.62441)
(-3.40813e-15 -3.36038 4.89193)
(1.66946e-14 -11.68 21.583)
(1.43447e-14 -15.0286 25.0175)
(2.09458e-16 -12.5019 22.7199)
(1.0051e-15 -11.9269 19.789)
(2.65911e-15 -10.1971 18.3272)
(-2.2075e-16 -9.46932 16.0771)
(3.12704e-16 -8.07659 14.1341)
(2.0047e-15 -7.34427 12.1509)
(-1.37851e-15 -6.71252 10.7941)
(-1.30954e-15 -6.56385 10.0015)
(1.18262e-15 -6.80902 10.0928)
(-2.99346e-15 -7.44316 10.9382)
(-2.85731e-15 -7.91821 12.0757)
(8.67904e-18 -7.86077 12.2745)
(-4.88221e-15 -5.45383 9.19505)
(1.54148e-14 -12.9728 23.7222)
(1.10691e-14 -14.9834 25.3153)
(-3.46645e-15 -12.3509 23.0316)
(1.34014e-15 -11.8719 21.1075)
(1.19084e-15 -10.1262 19.589)
(-2.33757e-15 -8.66462 16.8354)
(1.56099e-15 -6.50715 13.8938)
(2.59636e-15 -4.86343 11.0506)
(1.55228e-15 -3.45371 8.86904)
(5.52916e-15 -2.72952 7.48276)
(4.56099e-15 -3.01785 7.69117)
(-8.91311e-16 -4.6222 9.79452)
(-1.66191e-15 -6.87298 12.8183)
(-5.19498e-15 -8.44618 14.4333)
(-6.48588e-15 -6.09026 11.34)
(1.49239e-14 -13.2265 23.7783)
(1.25583e-14 -17.5013 28.6576)
(-3.08352e-15 -14.1224 25.4344)
(9.17811e-16 -13.3486 23.2817)
(5.40128e-16 -11.7597 22.046)
(-1.47739e-15 -10.3639 19.4896)
(1.80178e-15 -8.03345 16.505)
(3.3896e-15 -6.02392 13.4417)
(5.09743e-15 -3.97574 10.7047)
(8.12878e-15 -2.10704 7.98666)
(8.60814e-15 -0.46021 5.54346)
(5.46362e-15 0.2539 4.1278)
(1.69314e-15 -0.826347 5.03155)
(-1.9968e-15 -3.33363 7.73915)
(-3.40491e-15 -3.54884 7.63015)
(1.20314e-14 -10.5752 18.4097)
(1.55559e-14 -18.5786 29.3105)
(5.14772e-15 -17.6078 28.8876)
(2.47426e-15 -16.1877 26.1367)
(9.74087e-16 -14.6587 24.2313)
(6.32468e-17 -13.5565 22.0723)
(1.29365e-15 -11.8801 19.665)
(1.62775e-15 -10.1434 16.9736)
(3.59774e-15 -8.1848 14.2396)
(5.74791e-15 -6.09018 11.265)
(7.17071e-15 -3.80265 8.03015)
(7.41603e-15 -1.62112 4.64938)
(4.12846e-15 0.615699 1.23667)
(1.61603e-15 2.05748 -1.24112)
(6.65355e-16 0.396665 -0.333374)
(8.07729e-15 -5.34223 8.42515)
(1.65778e-14 -15.5688 24.2616)
(1.06253e-14 -17.9503 28.5616)
(4.22401e-15 -16.4971 26.0662)
(8.23596e-16 -14.5658 23.1913)
(4.60894e-16 -13.4555 21.141)
(1.5738e-15 -12.5217 19.474)
(1.40765e-15 -11.5821 17.6708)
(1.65684e-15 -10.512 15.7175)
(2.26668e-15 -9.28816 13.5852)
(2.71148e-15 -7.88329 11.2673)
(3.43979e-15 -6.20988 8.79634)
(3.55838e-15 -4.32237 5.98197)
(3.03314e-15 -1.81666 2.9494)
(1.83447e-15 0.126171 -1.54173)
(4.18376e-15 -2.43034 5.06131)
(1.72894e-14 -14.1412 22.7225)
(1.68755e-14 -19.2703 29.7325)
(1.11518e-14 -20.0083 29.0284)
(5.1228e-15 -18.6292 25.528)
(1.86144e-15 -16.6943 21.7549)
(7.6449e-16 -14.7573 18.5118)
(7.71557e-16 -13.0555 15.9628)
(2.66591e-15 -11.5067 13.7699)
(3.60049e-15 -10.1245 12.0458)
(2.66706e-15 -8.95813 10.6787)
(1.96914e-15 -7.8735 9.41587)
(1.82801e-15 -6.65927 8.07418)
(1.61647e-15 -5.08711 6.36699)
(3.49971e-15 -2.00634 2.44224)
(2.21058e-17 2.4202 10.2587)
(1.01935e-15 -0.345194 1.4318)
(9.46757e-16 -0.0789856 -0.627773)
(8.90021e-16 -0.0934207 -0.405537)
(8.52507e-16 -0.0185429 -0.494232)
(1.06163e-15 0.135574 -0.700863)
(8.11113e-16 0.0691963 -0.45558)
(9.56677e-16 0.130839 -0.435448)
(6.12741e-16 0.152334 -0.416233)
(4.55877e-15 0.304776 -0.616345)
(4.28017e-15 0.248457 -0.446694)
(3.95714e-15 0.291975 -0.442199)
(3.93777e-15 0.460721 -0.606388)
(2.58279e-15 0.367605 -0.443472)
(2.37443e-15 0.436962 -0.46274)
(2.18507e-15 0.44366 -0.483882)
(2.31551e-15 0.605703 -0.637052)
(1.62528e-15 0.507324 -0.480474)
(1.55073e-15 0.561119 -0.488788)
(1.88606e-15 0.742823 -0.612897)
(1.41644e-15 0.586495 -0.457402)
(1.35957e-15 0.674858 -0.470207)
(1.27187e-15 0.668809 -0.480099)
(1.62019e-15 0.853001 -0.578273)
(1.23174e-15 0.675901 -0.434446)
(1.32642e-15 0.76847 -0.44012)
(9.33684e-16 0.758963 -0.44335)
(1.1566e-15 0.925418 -0.513166)
(8.55904e-16 0.747653 -0.388816)
(7.52084e-16 0.801728 -0.383298)
(1.00408e-15 0.983573 -0.426747)
(7.9238e-16 0.747084 -0.338484)
(7.88469e-16 0.837263 -0.341826)
(7.01196e-16 0.82153 -0.339733)
(8.53647e-16 0.969592 -0.369985)
(5.02599e-16 0.766063 -0.295388)
(3.76433e-16 0.811008 -0.280525)
(4.45393e-16 0.98275 -0.280872)
(2.52773e-16 0.733983 -0.206833)
(1.84039e-16 0.816619 -0.180801)
(1.37311e-16 0.78212 -0.138643)
(3.37795e-16 0.953535 -0.122149)
(2.83603e-16 0.747338 -0.0421246)
(3.23153e-16 0.817865 0.00110908)
(3.19861e-16 0.766176 0.0668962)
(5.77403e-16 0.948019 -0.0354574)
(4.39388e-16 0.848623 0.0409262)
(3.31338e-16 0.854787 0.0953344)
(1.55348e-16 1.03721 0.157459)
(-5.97238e-17 0.859982 0.190105)
(-2.146e-16 0.914083 0.225807)
(-3.89389e-16 0.850989 0.260562)
(-9.29187e-16 0.943714 0.375602)
(-8.15639e-16 0.744131 0.245024)
(-1.07903e-15 0.770772 0.239836)
(-8.64348e-16 0.729642 0.274752)
(-1.14636e-15 0.701705 0.149624)
(-4.73827e-16 0.493149 -0.210525)
(-4.42158e-16 0.489207 -0.12243)
(2.2493e-16 0.509891 -1.15341)
(9.03201e-16 0.0870934 -1.59114)
(1.08249e-15 0.156575 -1.72287)
(1.57226e-15 0.328224 -1.81341)
(1.55857e-15 0.6237 -2.11513)
(-3.71093e-15 -0.478836 0.555868)
(-3.37459e-15 -0.131467 0.290463)
(-5.42218e-15 -0.616363 1.94074)
(-4.72122e-15 -1.28341 2.82519)
(-4.40372e-15 -1.41163 2.68142)
(-4.28844e-15 -1.3996 2.78164)
(-5.50722e-15 -2.44338 5.01441)
(-3.94278e-15 -2.87825 4.64829)
(-3.70491e-15 -3.25467 4.76155)
(-3.42713e-15 -3.20399 4.9557)
(-4.19502e-15 -5.02253 8.01686)
(-2.77411e-15 -5.21179 6.64374)
(-2.70861e-15 -5.26495 7.08417)
(-3.41475e-15 -7.54481 10.6986)
(-2.51714e-15 -7.44469 8.48712)
(-2.6877e-15 -7.77158 9.21571)
(-2.82763e-15 -8.41891 10.8424)
(-3.06859e-15 -8.31745 10.6404)
(-3.38526e-15 -8.39035 10.8675)
(-4.75445e-15 -9.995 13.2901)
(-3.85849e-15 -9.24611 11.8426)
(-4.0718e-15 -9.46536 12.2298)
(-3.90733e-15 -9.45109 12.1832)
(-3.56569e-15 -9.52255 12.1053)
(-3.07365e-15 -9.57138 12.0648)
(-2.43177e-15 -9.63559 12.0753)
(-1.66424e-15 -9.68144 12.2144)
(-9.07258e-16 -9.71712 12.4576)
(1.64632e-16 -10.6521 14.1569)
(8.45806e-16 -10.4118 13.2722)
(1.71066e-15 -10.5301 13.4546)
(2.14315e-15 -10.506 13.5317)
(2.50052e-15 -10.6199 13.7912)
(2.61657e-15 -10.6077 13.8579)
(2.59644e-15 -10.6839 14.0137)
(2.47996e-15 -10.7128 14.1903)
(2.30549e-15 -10.7625 14.419)
(1.61392e-15 -11.5995 16.3337)
(1.54191e-15 -11.3038 15.5201)
(1.04455e-15 -11.3952 16.0181)
(6.12257e-16 -11.3983 16.3965)
(7.6992e-17 -11.455 16.8454)
(-5.50482e-16 -11.493 17.3265)
(-1.36616e-15 -11.585 17.8187)
(-2.48447e-15 -11.6245 18.1726)
(-3.67407e-15 -11.7055 18.5754)
(-4.84749e-15 -11.833 18.9729)
(-7.77262e-15 -12.1159 20.71)
(-7.03012e-15 -11.9294 19.7402)
(-7.73085e-15 -12.039 20.198)
(-7.44063e-15 -12.0569 20.4038)
(-6.77398e-15 -12.1507 20.6408)
(-5.5601e-15 -12.1846 20.8299)
(-4.14542e-15 -12.2828 21.1658)
(-2.42077e-15 -12.3002 21.3061)
(-7.95156e-16 -12.4619 21.3805)
(2.47125e-15 -11.8166 21.2713)
(2.71788e-15 -11.8748 20.5338)
(3.8973e-15 -11.924 20.8562)
(4.2124e-15 -11.9603 21.1518)
(4.57046e-15 -11.9482 21.2194)
(4.75109e-15 -12.0001 21.3464)
(4.93693e-15 -12.023 21.4362)
(5.1685e-15 -11.9842 21.558)
(5.5771e-15 -12.2549 21.9514)
(6.43941e-15 -10.0782 19.416)
(6.26267e-15 -10.845 19.8095)
(6.5309e-15 -10.7859 19.4559)
(6.58581e-15 -10.7662 19.2017)
(6.84238e-15 -10.765 19.1499)
(6.71735e-15 -10.6974 18.6749)
(6.47495e-15 -10.5827 18.0313)
(6.28232e-15 -10.4743 17.3674)
(6.14225e-15 -10.5171 16.6365)
(5.81663e-15 -7.47517 12.0403)
(6.72804e-15 -8.70572 14.6348)
(6.67399e-15 -8.36972 13.749)
(6.83138e-15 -8.35591 13.4948)
(6.98667e-15 -8.14325 13.1736)
(7.28516e-15 -8.05171 13.0101)
(8.19561e-15 -7.84391 12.9338)
(7.82202e-15 -7.67869 12.6061)
(7.85313e-15 -7.49705 12.3053)
(7.63361e-15 -7.38978 11.7449)
(4.81417e-15 -3.70726 5.87585)
(6.8862e-15 -5.64105 9.4106)
(6.28622e-15 -5.08973 7.96041)
(5.87002e-15 -5.25439 7.36454)
(5.29208e-15 -4.90508 6.24728)
(4.56675e-15 -4.85011 4.93093)
(3.17894e-15 -4.64911 2.63988)
(1.84014e-15 -4.2756 0.517683)
(1.97073e-15 -4.31395 0.620724)
(8.30259e-16 -4.00897 -1.18845)
(1.6584e-15 -3.90717 0.021449)
(1.26122e-15 -3.88066 -0.538708)
(7.74942e-17 -3.05068 -1.44349)
(9.38037e-16 -4.31502 -1.15372)
(4.32863e-16 -3.50221 -1.03353)
(3.88054e-16 -3.13694 -0.66978)
(4.38961e-16 -3.98085 -0.96408)
(3.18802e-16 -2.75381 -0.564997)
(4.30745e-16 -3.54966 -0.849033)
(4.09897e-16 -3.24426 -0.624192)
(3.26406e-16 -2.674 -0.441551)
(4.49223e-16 -3.23375 -0.660451)
(3.68885e-16 -3.01562 -0.497231)
(2.88627e-16 -2.58942 -0.347739)
(3.52674e-16 -3.44223 -0.495783)
(2.25098e-16 -2.37666 -0.298716)
(3.08048e-16 -3.11989 -0.441252)
(2.81101e-16 -2.83235 -0.345621)
(1.65907e-16 -2.48308 -0.241883)
(1.78435e-16 -3.32958 -0.339903)
(1.27995e-16 -2.29402 -0.200568)
(1.54889e-16 -3.06335 -0.274884)
(1.15556e-16 -2.92659 -0.22517)
(1.07036e-16 -2.40281 -0.142272)
(1.91158e-16 -2.98817 -0.189798)
(2.12224e-16 -2.87192 -0.140259)
(2.30795e-16 -2.47686 -0.0669704)
(3.67726e-16 -3.37084 -0.0694379)
(3.01797e-16 -2.35112 0.00106928)
(4.66198e-16 -3.13306 0.0521515)
(4.6485e-16 -2.88678 0.0621822)
(3.48595e-16 -2.54661 0.0951564)
(4.31327e-16 -3.46233 0.147181)
(2.65572e-16 -2.41673 0.147181)
(3.21856e-16 -3.25531 0.251027)
(1.76532e-16 -3.09722 0.183125)
(9.56307e-17 -2.57706 0.173672)
(5.08536e-17 -3.22413 0.234833)
(-4.77192e-17 -3.07108 0.1568)
(-5.8756e-17 -2.6708 0.145734)
(-1.13994e-16 -3.64027 0.170699)
(-9.45298e-17 -2.54402 0.133593)
(-1.33997e-16 -3.39538 0.20056)
(-9.8924e-17 -3.09025 0.119607)
(-7.6345e-17 -2.7277 0.117599)
(-9.23377e-17 -3.6952 0.135255)
(-5.04838e-17 -2.56251 0.111658)
(-6.41635e-17 -3.44511 0.167875)
(-5.04321e-17 -3.22885 0.0756141)
(-4.83167e-17 -2.67445 0.0746273)
(-7.87423e-17 -3.32835 0.060988)
(-9.18409e-17 -3.12756 -0.0183642)
(-9.54855e-17 -2.69855 -0.00723495)
(-1.6515e-16 -3.65392 -0.0654441)
(-1.54507e-16 -2.51458 -0.0547525)
(-2.6065e-16 -3.34128 -0.111709)
(-1.90493e-16 -2.98746 -0.176128)
(-1.71871e-16 -2.60619 -0.139604)
(-2.36363e-16 -3.5006 -0.24736)
(-1.69714e-16 -2.37184 -0.185647)
(-2.37479e-16 -3.16826 -0.301716)
(-1.85674e-16 -2.90976 -0.337802)
(-1.48846e-16 -2.36179 -0.269624)
(-1.96738e-16 -2.90943 -0.443079)
(-1.16902e-16 -2.68099 -0.438253)
(-1.1319e-16 -2.25788 -0.346109)
(-1.4732e-16 -3.04309 -0.515199)
(-1.20571e-16 -2.01057 -0.374416)
(-1.76122e-16 -2.67458 -0.579274)
(-1.5185e-16 -2.31708 -0.552458)
(-1.25831e-16 -1.96492 -0.444126)
(-1.70164e-16 -2.64257 -0.64606)
(-1.31373e-16 -1.6852 -0.472256)
(-1.62432e-16 -2.27954 -0.724056)
(-1.00719e-16 -2.0067 -0.682724)
(-1.00935e-16 -1.54692 -0.557771)
(-1.55982e-16 -1.9242 -0.853326)
(-1.83399e-16 -1.6827 -0.785155)
(-1.51664e-16 -1.32678 -0.633989)
(-2.1133e-16 -1.8777 -0.902167)
(-1.70182e-16 -1.05344 -0.669267)
(-2.60149e-16 -1.37187 -1.03277)
(8.72468e-54 0.144102 0.152613)
(4.59404e-53 0.183965 0.150335)
(9.62155e-53 0.209944 0.151398)
(-1.16357e-52 0.235083 0.151837)
(-1.75314e-51 0.259753 0.153437)
(-5.98621e-51 0.283229 0.155177)
(-9.35204e-52 0.306404 0.157559)
(7.75331e-50 0.329036 0.160286)
(2.89887e-49 0.351465 0.163507)
(-1.50293e-49 0.373679 0.167129)
(-4.9145e-48 0.395831 0.171195)
(-1.27291e-47 0.417966 0.175674)
(4.74181e-47 0.440173 0.180579)
(3.94229e-46 0.462508 0.1859)
(4.02151e-46 0.485036 0.191639)
(-6.58504e-45 0.507809 0.197794)
(-3.28165e-44 0.530881 0.204369)
(8.4849e-45 0.554301 0.211363)
(6.93782e-43 0.578116 0.218783)
(2.56663e-42 0.602371 0.226631)
(-3.26225e-42 0.627111 0.234914)
(-6.14123e-41 0.652378 0.243639)
(-1.8246e-40 0.678212 0.252814)
(3.85473e-40 0.704652 0.262446)
(4.70208e-39 0.731736 0.272545)
(1.17382e-38 0.759496 0.283119)
(-3.24813e-38 0.787961 0.294177)
(-3.13885e-37 0.817154 0.305724)
(-6.91125e-37 0.847089 0.317765)
(2.14117e-36 0.877768 0.330301)
(1.82578e-35 0.90918 0.343328)
(3.79571e-35 0.941296 0.356835)
(-1.10682e-34 0.974066 0.370805)
(-9.18897e-34 1.00742 0.38521)
(-1.96604e-33 1.04126 0.400015)
(4.24979e-33 1.07547 0.415172)
(3.93526e-32 1.10992 0.430625)
(9.44588e-32 1.14448 0.446309)
(-9.82804e-32 1.17903 0.462153)
(-1.38508e-30 1.21345 0.478083)
(-4.01068e-30 1.24769 0.494025)
(-5.56027e-31 1.28173 0.509902)
(3.72166e-29 1.3156 0.525637)
(1.40558e-28 1.34937 0.54115)
(1.70993e-28 1.38315 0.556349)
(-6.20695e-28 1.41705 0.57113)
(-3.72189e-27 1.45119 0.585367)
(-8.3975e-27 1.48568 0.598908)
(-6.54335e-28 1.52064 0.611559)
(6.29119e-26 1.55613 0.623048)
(2.32806e-25 1.592 0.63297)
(3.83281e-25 1.62777 0.640712)
(-2.52268e-25 1.6624 0.645387)
(-3.47758e-24 1.69427 0.64579)
(-1.07222e-23 1.72114 0.640359)
(-1.64473e-23 1.74006 0.627147)
(5.13308e-24 1.74733 0.603821)
(1.0961e-22 1.73818 0.567689)
(3.53814e-22 1.70653 0.515766)
(6.73901e-22 1.64411 0.445053)
(6.33827e-22 1.53984 0.352887)
(-8.90229e-22 1.37792 0.237774)
(-5.76662e-21 1.12998 0.10156)
(-1.53164e-20 0.750707 -0.0472038)
(-2.49636e-20 0.0235677 -0.268636)
(-4.43158e-21 -0.756647 -0.333424)
(-4.12047e-22 -1.27101 -0.362798)
(1.76776e-23 -1.7529 -0.380709)
(-6.19491e-24 -2.1876 -0.402058)
(-1.34611e-23 -2.58603 -0.403236)
(-2.54745e-23 -2.88833 -0.411266)
(2.53315e-23 -3.17224 -0.375534)
(-1.00848e-22 -3.32065 -0.375971)
(3.98551e-22 -3.61379 -0.289209)
(-1.20234e-21 -3.56209 -0.353625)
(1.51835e-20 -4.11067 -0.168417)
(-2.75365e-19 -3.66386 -0.464591)
(4.47139e-18 -4.69952 -0.134692)
(8.22451e-18 -5.72286 -0.654958)
(2.09264e-53 0.144589 0.167855)
(1.40054e-52 0.184236 0.164524)
(3.68808e-52 0.209759 0.165509)
(3.36405e-53 0.234796 0.16571)
(-4.46529e-51 0.259252 0.167314)
(-1.96286e-50 0.282595 0.169058)
(-2.24315e-50 0.305608 0.171539)
(1.68576e-49 0.328103 0.174396)
(8.92269e-49 0.350387 0.177799)
(6.66739e-49 0.372464 0.181637)
(-1.04309e-47 0.394477 0.185959)
(-3.91439e-47 0.416476 0.190727)
(6.51878e-47 0.438548 0.195953)
(8.9565e-46 0.460749 0.201625)
(1.44939e-45 0.483143 0.207747)
(-1.36657e-44 0.505782 0.214313)
(-7.94075e-44 0.52872 0.221327)
(-1.29294e-44 0.552005 0.22879)
(1.5822e-42 0.575683 0.236706)
(6.47612e-42 0.599801 0.245079)
(-5.37329e-42 0.624401 0.253914)
(-1.44806e-40 0.649525 0.263219)
(-4.73252e-40 0.675214 0.273002)
(7.46766e-40 0.701507 0.28327)
(1.12236e-38 0.728441 0.294032)
(3.10054e-38 0.756048 0.305296)
(-6.56922e-38 0.784358 0.317069)
(-7.50602e-37 0.813395 0.329355)
(-1.84237e-36 0.843173 0.342155)
(4.35783e-36 0.873695 0.355466)
(4.34247e-35 0.904954 0.369279)
(1.00884e-34 0.936921 0.383576)
(-2.20617e-34 0.96955 0.398331)
(-2.1587e-33 1.00277 0.413508)
(-5.13274e-33 1.03649 0.42906)
(7.92967e-33 1.0706 0.444931)
(9.05726e-32 1.10498 0.461056)
(2.38998e-31 1.13948 0.477365)
(-1.40885e-31 1.17399 0.493788)
(-3.08841e-30 1.2084 0.510252)
(-9.75016e-30 1.24265 0.526693)
(-4.36035e-30 1.27672 0.543045)
(7.87645e-29 1.31065 0.559245)
(3.26536e-28 1.34451 0.57522)
(4.70456e-28 1.3784 0.590887)
(-1.1577e-27 1.41245 0.606143)
(-8.19816e-27 1.44678 0.620862)
(-2.02141e-26 1.48153 0.634889)
(-7.87499e-27 1.51681 0.64802)
(1.27713e-25 1.55273 0.659951)
(5.19511e-25 1.5892 0.670198)
(9.43241e-25 1.62582 0.678008)
(-2.45237e-25 1.66164 0.68231)
(-7.16618e-24 1.69514 0.68169)
(-2.36506e-23 1.72421 0.674365)
(-3.89164e-23 1.74603 0.658161)
(2.23293e-24 1.757 0.630512)
(2.21699e-22 1.75246 0.588492)
(7.44832e-22 1.72638 0.52886)
(1.42842e-21 1.67046 0.448409)
(1.31858e-21 1.57336 0.344376)
(-1.93681e-21 1.41856 0.215134)
(-1.18782e-20 1.17654 0.0635327)
(-3.01059e-20 0.806022 -0.0999716)
(-4.82795e-20 0.0918864 -0.341669)
(-6.83843e-21 -0.782369 -0.394129)
(-3.21599e-22 -1.30397 -0.391455)
(4.40097e-23 -1.78326 -0.395775)
(-3.76317e-24 -2.21852 -0.411234)
(-1.34466e-23 -2.61651 -0.406505)
(-2.55077e-23 -2.91953 -0.409869)
(2.50372e-23 -3.20061 -0.371149)
(-1.00568e-22 -3.35014 -0.369726)
(3.97266e-22 -3.63153 -0.282307)
(-1.21794e-21 -3.58624 -0.346278)
(1.56327e-20 -4.10444 -0.163188)
(-2.82328e-19 -3.67113 -0.454741)
(4.42964e-18 -4.67388 -0.132158)
(8.91956e-18 -5.61955 -0.656019)
(3.71028e-53 0.144902 0.176011)
(3.30031e-52 0.184424 0.172269)
(1.02812e-51 0.209681 0.173204)
(9.0065e-52 0.234657 0.173284)
(-8.58296e-51 0.258994 0.174891)
(-4.84593e-50 0.282266 0.176641)
(-9.16184e-50 0.305193 0.179178)
(2.52134e-49 0.327615 0.182108)
(2.04848e-48 0.349823 0.185613)
(3.6041e-48 0.371829 0.189571)
(-1.51542e-47 0.39377 0.194034)
(-8.66226e-47 0.415699 0.198961)
(1.98627e-47 0.437701 0.204364)
(1.49061e-45 0.459833 0.21023)
(3.32486e-45 0.482158 0.21656)
(-2.16706e-44 0.504728 0.223352)
(-1.45452e-43 0.527596 0.230607)
(-6.22005e-44 0.550811 0.238326)
(2.85006e-42 0.57442 0.246513)
(1.24856e-41 0.598466 0.255172)
(-7.31409e-42 0.622994 0.264309)
(-2.7047e-40 0.648046 0.273931)
(-9.37887e-40 0.673661 0.284046)
(1.19661e-39 0.699879 0.294661)
(2.11972e-38 0.726736 0.305785)
(6.23562e-38 0.754266 0.317424)
(-1.08779e-37 0.782498 0.329586)
(-1.41805e-36 0.811457 0.342273)
(-3.72555e-36 0.841157 0.355485)
(7.2208e-36 0.871605 0.369216)
(8.15192e-35 0.90279 0.383452)
(2.03204e-34 0.934689 0.398174)
(-3.56918e-34 0.967256 0.413349)
(-4.00342e-33 1.00042 0.428937)
(-1.01928e-32 1.0341 0.444885)
(1.19376e-32 1.06817 0.461132)
(1.64854e-31 1.10252 0.477609)
(4.6358e-31 1.13701 0.494246)
(-1.41184e-31 1.17151 0.510973)
(-5.46703e-30 1.20593 0.527722)
(-1.8349e-29 1.24019 0.544435)
(-1.19689e-29 1.27428 0.561054)
(1.33216e-28 1.30824 0.577521)
(5.93252e-28 1.34213 0.593772)
(9.48315e-28 1.37608 0.609723)
(-1.73395e-27 1.4102 0.625273)
(-1.42753e-26 1.44462 0.640295)
(-3.74628e-26 1.47948 0.654636)
(-2.21994e-26 1.51492 0.668088)
(2.07692e-25 1.55106 0.680325)
(9.107e-25 1.58786 0.690817)
(1.76262e-24 1.62496 0.698727)
(-3.50228e-26 1.66148 0.702879)
(-1.17901e-23 1.69595 0.70175)
(-4.08739e-23 1.72631 0.693447)
(-7.01291e-23 1.74979 0.67568)
(-6.30181e-24 1.76285 0.64577)
(3.56963e-22 1.76091 0.600661)
(1.2228e-21 1.73792 0.536964)
(2.31478e-21 1.68556 0.451327)
(1.99614e-21 1.59234 0.340902)
(-3.43681e-21 1.44122 0.203814)
(-1.86225e-20 1.20206 0.0435114)
(-4.36426e-20 0.833796 -0.129982)
(-7.01691e-20 0.11784 -0.366869)
(-1.21352e-20 -0.763553 -0.474304)
(-4.52674e-22 -1.28868 -0.441655)
(1.19074e-22 -1.76597 -0.421768)
(5.75635e-24 -2.20263 -0.426651)
(-1.35973e-23 -2.60306 -0.413288)
(-2.56115e-23 -2.91101 -0.409323)
(2.46615e-23 -3.19463 -0.365731)
(-1.00212e-22 -3.35108 -0.361165)
(3.95724e-22 -3.62791 -0.272416)
(-1.23726e-21 -3.59425 -0.335084)
(1.61852e-20 -4.09003 -0.154591)
(-2.90345e-19 -3.67272 -0.44121)
(4.37825e-18 -4.65105 -0.121505)
(9.52776e-18 -5.5384 -0.66572)
(5.2574e-53 0.145398 0.18549)
(7.44815e-52 0.184716 0.181371)
(2.71822e-51 0.209595 0.182266)
(4.07053e-51 0.234471 0.182239)
(-1.45193e-50 0.258631 0.183862)
(-1.13895e-49 0.281791 0.185635)
(-2.96687e-49 0.304588 0.188248)
(2.2204e-49 0.3269 0.191275)
(4.40019e-48 0.348993 0.194909)
(1.23649e-47 0.370891 0.199019)
(-1.30099e-47 0.392723 0.203658)
(-1.74234e-46 0.414547 0.208781)
(-2.03217e-46 0.436445 0.214402)
(2.06299e-45 0.458473 0.220504)
(6.59633e-45 0.480694 0.227092)
(-3.07658e-44 0.503161 0.234158)
(-2.46106e-43 0.525925 0.241707)
(-1.50252e-43 0.549036 0.249738)
(4.9669e-42 0.57254 0.258254)
(2.29583e-41 0.59648 0.267261)
(-9.96373e-42 0.620901 0.276764)
(-4.93781e-40 0.645843 0.28677)
(-1.79311e-39 0.671347 0.297287)
(1.89585e-39 0.697452 0.308322)
(3.92343e-38 0.724195 0.319884)
(1.21519e-37 0.751609 0.33198)
(-1.76725e-37 0.779724 0.344614)
(-2.62845e-36 0.808566 0.357789)
(-7.31346e-36 0.83815 0.371502)
(1.16955e-35 0.868483 0.385744)
(1.50263e-34 0.899558 0.4005)
(3.97844e-34 0.931352 0.415743)
(-5.61609e-34 0.963822 0.431437)
(-7.29615e-33 0.996902 0.447534)
(-1.97111e-32 1.03051 0.463976)
(1.7115e-32 1.06452 0.480695)
(2.95166e-31 1.09883 0.497619)
(8.77994e-31 1.13329 0.514673)
(-6.08149e-32 1.16777 0.531787)
(-9.53162e-30 1.20219 0.548898)
(-3.38254e-29 1.23647 0.565954)
(-2.79472e-29 1.27059 0.582905)
(2.22069e-28 1.30458 0.599702)
(1.05943e-27 1.33854 0.616287)
(1.84063e-27 1.37256 0.63258)
(-2.51862e-27 1.40678 0.648482)
(-2.45191e-26 1.44134 0.663868)
(-6.79726e-26 1.47637 0.678584)
(-5.15777e-26 1.51204 0.692421)
(3.33766e-25 1.54851 0.705038)
(1.57396e-24 1.5858 0.715854)
(3.21261e-24 1.62361 0.723945)
(5.39755e-25 1.66113 0.728015)
(-1.91734e-23 1.69699 0.726416)
(-6.95271e-23 1.7292 0.717119)
(-1.23419e-22 1.75509 0.6977)
(-2.64021e-23 1.7712 0.665334)
(5.59483e-22 1.77302 0.616812)
(1.94069e-21 1.75455 0.548557)
(3.58596e-21 1.70741 0.457028)
(2.8278e-21 1.61993 0.339203)
(-5.49564e-21 1.47439 0.19284)
(-2.53661e-20 1.23994 0.0219735)
(-5.12544e-20 0.875038 -0.164822)
(-8.2213e-20 0.168771 -0.411335)
(-2.20014e-20 -0.753941 -0.556574)
(-1.50118e-21 -1.29208 -0.51536)
(2.71845e-22 -1.76481 -0.462388)
(3.8074e-23 -2.1999 -0.448853)
(-1.36853e-23 -2.6013 -0.424001)
(-2.59252e-23 -2.91197 -0.410219)
(2.4244e-23 -3.19627 -0.359643)
(-9.98226e-23 -3.35693 -0.35084)
(3.94154e-22 -3.62855 -0.259832)
(-1.25727e-21 -3.60318 -0.320961)
(1.67502e-20 -4.07959 -0.142952)
(-2.97927e-19 -3.67474 -0.424899)
(4.32699e-18 -4.63076 -0.108193)
(1.00728e-17 -5.47588 -0.629365)
(3.02016e-53 0.145882 0.19445)
(1.58686e-51 0.185004 0.190093)
(6.81956e-51 0.209537 0.190956)
(1.38948e-50 0.234312 0.190851)
(-1.84526e-50 0.258307 0.192497)
(-2.5236e-49 0.281362 0.194303)
(-8.4857e-49 0.304039 0.196996)
(-3.81761e-49 0.326248 0.200124)
(8.63639e-48 0.348235 0.20389)
(3.5422e-47 0.370033 0.208152)
(2.12574e-47 0.391767 0.212965)
(-3.03898e-46 0.413494 0.218284)
(-8.90916e-46 0.435295 0.22412)
(1.61821e-45 0.457229 0.230456)
(1.05554e-44 0.479355 0.237295)
(-3.57205e-44 0.501728 0.244632)
(-3.62888e-43 0.524399 0.252468)
(-2.24946e-43 0.547415 0.260804)
(8.29798e-42 0.570823 0.269643)
(3.9364e-41 0.594667 0.27899)
(-1.6466e-41 0.618989 0.28885)
(-8.73252e-40 0.643833 0.299231)
(-3.25875e-39 0.669236 0.310141)
(3.04471e-39 0.695239 0.321586)
(7.04564e-38 0.721878 0.333576)
(2.2667e-37 0.749188 0.346117)
(-2.82037e-37 0.777199 0.359212)
(-4.72838e-36 0.805935 0.372863)
(-1.37803e-35 0.835416 0.387065)
(1.8401e-35 0.865648 0.401808)
(2.68874e-34 0.896628 0.417071)
(7.48818e-34 0.928333 0.432824)
(-8.50716e-34 0.960722 0.449025)
(-1.29136e-32 0.993734 0.465622)
(-3.6705e-32 1.02728 0.482548)
(2.28466e-32 1.06125 0.499731)
(5.13648e-31 1.09553 0.517092)
(1.60478e-30 1.12998 0.534556)
(2.00379e-31 1.16447 0.552052)
(-1.61723e-29 1.19889 0.569521)
(-6.03438e-29 1.23318 0.586916)
(-5.86966e-29 1.26733 0.604198)
(3.60753e-28 1.30136 0.621326)
(1.83698e-27 1.33536 0.638248)
(3.41293e-27 1.36945 0.65489)
(-3.50246e-27 1.40376 0.671152)
(-4.10528e-26 1.43842 0.686911)
(-1.19355e-25 1.4736 0.702016)
(-1.0671e-25 1.50947 0.716261)
(5.24563e-25 1.54623 0.729293)
(2.65063e-24 1.58396 0.740487)
(5.65531e-24 1.62245 0.748833)
(1.80463e-24 1.66094 0.752922)
(-3.04039e-23 1.69814 0.750985)
(-1.14992e-22 1.73214 0.740868)
(-2.10693e-22 1.76033 0.72002)
(-7.25502e-23 1.77935 0.685483)
(8.23031e-22 1.78474 0.633898)
(2.89666e-21 1.77055 0.5615)
(5.21124e-21 1.72837 0.464542)
(3.9571e-21 1.64634 0.339765)
(-5.97443e-21 1.50608 0.184475)
(-2.12191e-20 1.27626 0.0031397)
(-2.1168e-20 0.914103 -0.1981)
(-3.31378e-20 0.215952 -0.455376)
(-3.62761e-20 -0.748062 -0.634433)
(-5.11217e-21 -1.30697 -0.609647)
(4.92785e-22 -1.77781 -0.522861)
(1.29914e-22 -2.20887 -0.480245)
(-1.2259e-23 -2.60971 -0.439497)
(-2.67543e-23 -2.92194 -0.413211)
(2.37696e-23 -3.20549 -0.353146)
(-9.94011e-23 -3.36888 -0.33871)
(3.92592e-22 -3.63369 -0.244383)
(-1.27678e-21 -3.61525 -0.303638)
(1.72975e-20 -4.0708 -0.127975)
(-3.04632e-19 -3.67811 -0.405817)
(4.27923e-18 -4.6098 -0.0898482)
(1.01454e-17 -5.40837 -0.634359)
(-1.6033e-52 0.146421 0.203333)
(3.15334e-51 0.185319 0.198821)
(1.62877e-50 0.209487 0.199665)
(4.13972e-50 0.234146 0.199509)
(-3.71285e-51 0.257959 0.201187)
(-5.23429e-49 0.280896 0.203039)
(-2.22703e-48 0.30344 0.205821)
(-2.92575e-48 0.325535 0.20906)
(1.49255e-47 0.347406 0.212964)
(9.06005e-47 0.369095 0.217386)
(1.58692e-46 0.390719 0.222383)
(-4.06654e-46 0.41234 0.227904)
(-2.6096e-45 0.434036 0.233963)
(-2.81377e-45 0.455866 0.24054)
(9.97787e-45 0.477889 0.247639)
(-2.64713e-44 0.500159 0.255254)
(-4.07952e-43 0.522726 0.263386)
(-3.51113e-45 0.545638 0.272035)
(1.34579e-41 0.568942 0.281205)
(6.17851e-41 0.59268 0.2909)
(-4.03517e-41 0.616896 0.301127)
(-1.50674e-39 0.641631 0.311892)
(-5.60775e-39 0.666925 0.323203)
(5.27488e-39 0.692816 0.335069)
(1.23277e-37 0.719342 0.347496)
(4.04535e-37 0.746538 0.360492)
(-4.54079e-37 0.774434 0.374059)
(-8.27876e-36 0.803056 0.388198)
(-2.49425e-35 0.832425 0.402902)
(2.85404e-35 0.862548 0.418157)
(4.68074e-34 0.893424 0.433941)
(1.35665e-33 0.925033 0.45022)
(-1.25333e-33 0.957337 0.466945)
(-2.22428e-32 0.990275 0.484057)
(-6.59084e-32 1.02376 0.501485)
(2.82554e-32 1.05769 0.519149)
(8.70812e-31 1.09194 0.536966)
(2.83478e-30 1.12638 0.554857)
(7.92353e-31 1.16087 0.572752)
(-2.67933e-29 1.1953 0.590595)
(-1.0436e-28 1.22962 0.608347)
(-1.13786e-28 1.26379 0.625976)
(5.7466e-28 1.29786 0.643451)
(3.10102e-27 1.33191 0.660728)
(6.06594e-27 1.36606 0.677736)
(-4.73745e-27 1.40046 0.694378)
(-6.73375e-26 1.43524 0.710531)
(-2.03468e-25 1.47057 0.726052)
(-2.02859e-25 1.50665 0.740739)
(8.14916e-25 1.54372 0.754234)
(4.37381e-24 1.58194 0.765871)
(9.66857e-24 1.62116 0.774557)
(4.25073e-24 1.66072 0.77877)
(-4.73137e-23 1.6994 0.776624)
(-1.8636e-22 1.73536 0.76584)
(-3.54106e-22 1.76609 0.743741)