/*--------------------------------*- C++ -*----------------------------------*\
| =========                 |                                                 |
| \\      /  F ield         | OpenFOAM: The Open Source CFD Toolbox           |
|  \\    /   O peration     | Version:  4.1                                   |
|   \\  /    A nd           | Web:      www.OpenFOAM.org                      |
|    \\/     M anipulation  |                                                 |
\*---------------------------------------------------------------------------*/
FoamFile
{
    version     2.0;
    format      ascii;
    class       volScalarField;
    location    "20";
    object      p;
}
// * * * * * * * * * * * * * * * * * * * * * * * * * * * * * * * * * * * * * //

dimensions      [0 2 -2 0 0 0 0];

internalField   nonuniform List<scalar> 
225
(
523.378
469.981
418.15
369.738
324.847
282.83
243.476
206.472
171.377
138.014
107.072
78.9329
49.904
14.9852
-14.1669
56.9438
34.6828
28.9242
25.2139
19.7398
14.0324
8.87946
4.4907
1.00677
-1.45198
-2.64328
-2.14164
-0.0451999
1.82632
2.08649
-45.8387
-52.4817
-46.7147
-42.5678
-39.4773
-35.8819
-31.9956
-28.0583
-24.1539
-20.438
-17.0925
-14.0254
-10.9486
-8.29575
-7.0615
0.295012
-2.12304
2.46976
2.7939
2.84749
3.06268
2.97355
2.59624
2.01468
1.2555
0.298756
-0.810587
-1.72089
-1.87312
-1.56266
16.7229
14.3901
15.9438
13.8458
12.4269
11.1834
9.77346
8.3916
7.13417
6.04312
5.14212
4.42958
3.95199
3.91928
4.16414
7.49476
5.4717
6.44569
5.22635
5.02335
5.00758
4.9198
4.95312
5.10871
5.35221
5.67151
6.03438
6.35405
6.61076
6.7855
4.02333
2.86787
3.95346
3.63036
4.01717
4.41129
4.71027
5.06092
5.41748
5.74225
6.03194
6.28585
6.46408
6.54511
6.56082
5.70111
5.14329
5.99764
5.76862
5.96713
6.07963
6.10353
6.14883
6.17342
6.16859
6.14489
6.11708
6.08343
6.03758
5.9891
6.00831
5.6829
6.19372
5.91783
5.96066
5.92984
5.85476
5.80767
5.75204
5.69147
5.63221
5.57909
5.53237
5.48628
5.43507
4.6885
4.48081
4.82649
4.6501
4.72287
4.73183
4.71894
4.72714
4.72455
4.71779
4.7082
4.69348
4.67127
4.636
4.57826
3.31843
3.20227
3.49996
3.44608
3.56571
3.61241
3.64105
3.67603
3.69266
3.69954
3.69755
3.68502
3.66096
3.6227
3.55715
2.34442
2.28425
2.53856
2.5399
2.65826
2.69967
2.72877
2.75586
2.76342
2.76133
2.7499
2.72898
2.6991
2.6603
2.59565
1.56521
1.53023
1.73261
1.74645
1.84567
1.8721
1.89447
1.91162
1.91195
1.9051
1.89052
1.86827
1.8387
1.80398
1.74612
0.88049
0.868391
1.02936
1.0341
1.11117
1.12481
1.14267
1.15479
1.15426
1.14934
1.13846
1.12146
1.09649
1.06536
1.01115
0.438695
0.399416
0.45528
0.423163
0.459302
0.440609
0.434263
0.42021
0.399311
0.376631
0.350028
0.321354
0.290934
0.260986
0.21795
)
;

boundaryField
{
    inletFace
    {
        type            zeroGradient;
    }
    inlet
    {
        type            zeroGradient;
    }
    inletWalls
    {
        type            zeroGradient;
    }
    outletInlet
    {
        type            fixedValue;
        value           uniform 0;
    }
}


// ************************************************************************* //
