/*--------------------------------*- C++ -*----------------------------------*\
| =========                 |                                                 |
| \\      /  F ield         | OpenFOAM: The Open Source CFD Toolbox           |
|  \\    /   O peration     | Version:  4.1                                   |
|   \\  /    A nd           | Web:      www.OpenFOAM.org                      |
|    \\/     M anipulation  |                                                 |
\*---------------------------------------------------------------------------*/
FoamFile
{
    version     2.0;
    format      ascii;
    class       surfaceScalarField;
    location    "20";
    object      phi;
}
// * * * * * * * * * * * * * * * * * * * * * * * * * * * * * * * * * * * * * //

dimensions      [0 3 -1 0 0 0 0];

internalField   nonuniform List<scalar> 
420
(
-949.878
2249.78
-1573.96
1924.28
-2054
1779.95
-2424.23
1670.13
-2699.86
1575.82
-2888.38
1488.42
-2993.06
1404.58
-3013.86
1321
-2949.61
1235.66
-2797.23
1147.52
-2551.17
1054.13
-2193
941.734
-1687.16
794.063
-1012.67
625.701
287.227
373.332
1876.44
442.746
1854.86
437.3
1785.39
406.697
1700.74
380.579
1601.94
359.9
1509.1
345.291
1419.19
337.533
1328.76
333.481
1239.71
326.95
1154.05
309.606
1071.48
267.459
983.877
191.419
870.102
111.451
705.682
398.676
33.5751
1842.87
-97.3899
1985.83
-253.615
1941.62
-371.121
1818.24
-473.185
1704.01
-567.534
1603.45
-651.75
1503.4
-725.796
1402.81
-788.075
1301.99
-837.309
1203.28
-868.228
1102.4
-856.09
971.741
-740.339
754.35
-434.288
399.63
-35.6093
28.7751
1814.09
-100.657
2115.26
-225.558
2066.53
-304.495
1897.18
-368.154
1767.67
-416.951
1652.25
-446.226
1532.68
-457.013
1413.59
-451.85
1296.83
-430.152
1181.59
-387.225
1059.47
-311.872
896.388
-192.861
635.344
-48.4054
255.174
-84.0167
169.629
1644.46
146.164
2138.73
123.739
2088.95
122.875
1898.04
126.948
1763.6
135.812
1643.38
149.109
1519.38
166.597
1396.11
186.948
1276.48
208.137
1160.4
229.135
1038.47
243.824
881.696
233.004
646.161
155.229
332.949
71.2122
223.079
1421.39
244.184
2117.62
234.746
2098.39
236.025
1896.76
240.373
1759.25
244.306
1639.45
246.548
1517.14
245.251
1397.4
241.16
1280.56
233.985
1167.57
221.379
1051.07
199.134
903.936
156.135
689.157
78.2962
410.786
149.512
203.324
1218.07
238.368
2082.57
213.611
2123.14
191.406
1918.97
177.196
1773.45
163.764
1652.88
150.03
1530.87
135.888
1411.54
121.061
1295.39
106.909
1181.72
92.8116
1065.17
75.7616
920.988
52.0167
712.904
19.0153
443.789
168.535
171.856
1046.21
221.981
2032.43
199.423
2145.7
170.407
1947.99
152.054
1791.81
137.674
1667.26
122.784
1545.76
108.585
1425.74
95.5913
1308.39
83.1133
1194.2
71.4915
1076.79
58.6398
933.843
40.3274
731.22
15.7494
468.369
184.286
146.095
900.112
210.065
1968.47
196.887
2158.89
170.061
1974.81
152.416
1809.46
139.548
1680.13
127.086
1558.23
113.883
1438.95
101.339
1320.93
89.4394
1206.11
77.0037
1089.23
63.104
947.741
44.316
750.004
19.1738
493.508
203.452
116.762
783.354
184.857
1900.38
179.634
2164.11
154.316
2000.13
137.23
1826.54
124.009
1693.35
111.38
1570.86
98.9723
1451.36
86.1182
1333.78
73.8752
1218.34
62.1105
1100.99
49.028
960.816
32.8549
766.167
13.1876
513.168
216.629
83.1618
700.201
143.125
1840.42
144.673
2162.56
122.749
2022.05
106.138
1843.15
94.4483
1705.03
82.5648
1582.73
71.1516
1462.76
60.3687
1344.56
49.4396
1229.26
39.41
1111.02
29.7295
970.491
18.0733
777.815
5.23572
525.996
221.865
51.2365
648.963
97.9041
1793.74
102.684
2157.77
87.3557
2037.38
73.1235
1857.38
63.1129
1715.04
54.2119
1591.63
44.8269
1472.14
36.114
1353.27
28.1379
1237.24
20.3919
1118.76
13.6551
977.22
6.72094
784.744
-0.419891
533.138
221.468
25.1108
623.832
57.6897
1761.15
63.4799
2151.97
53.4407
2047.42
43.8613
1866.96
36.1497
1722.76
29.5206
1598.26
23.4754
1478.19
17.0293
1359.72
11.2866
1242.99
6.58401
1123.47
2.45176
981.357
-1.09058
788.305
-3.70115
535.771
217.795
1.39389
622.428
24.0317
1738.52
33.3406
2142.68
27.7133
2053.05
20.3588
1874.31
15.0629
1728.06
9.53427
1603.8
4.5894
1483.14
0.0478021
1364.27
-4.81735
1247.86
-8.33362
1126.99
-9.64918
982.686
-9.72461
788.397
-7.1485
533.204
210.649
-11.7503
-3.14852
1.44623
-0.402864
-5.09326
-8.83986
-11.784
-15.2187
-18.0774
-20.2083
-21.7734
-21.1083
-18.1306
-12.3894
)
;

boundaryField
{
    inletFace
    {
        type            calculated;
        value           nonuniform List<scalar> 
450
(
-3.74455e-14
5.96189e-13
-2.27771e-13
-8.81122e-14
1.57441e-13
-2.13161e-13
-9.07839e-14
4.21533e-15
-2.02044e-13
-4.64169e-15
6.7642e-14
-6.59352e-14
1.65745e-15
1.85495e-14
-2.81332e-16
-2.2124e-12
-2.29028e-12
-7.23428e-14
-6.74626e-13
-2.83788e-13
1.15072e-14
-3.15023e-13
-1.83835e-13
-1.16994e-13
-3.14981e-13
-8.72035e-14
8.61569e-15
-8.77882e-14
-2.84975e-14
8.42889e-16
-2.13816e-12
-2.42772e-12
-3.08838e-13
-7.55147e-13
-2.69474e-13
-1.05231e-13
-3.23171e-13
-1.85774e-13
-2.42944e-13
-2.37944e-13
-5.5253e-14
-6.65811e-14
-4.49465e-14
-1.89441e-14
-7.7003e-15
-2.41503e-12
-2.17208e-12
-4.45975e-13
-8.93594e-13
-2.87241e-13
-2.37455e-13
-4.64569e-13
-2.35222e-13
-3.04658e-13
-2.9204e-13
-3.36751e-14
-7.92885e-14
-7.55038e-14
6.51235e-14
9.09866e-14
-2.28887e-12
-2.18794e-12
-5.28286e-13
-8.18511e-13
-2.98764e-13
-2.63412e-13
-4.26304e-13
-2.27251e-13
-3.07904e-13
-2.7229e-13
-5.29063e-14
-5.27683e-14
-4.51291e-14
3.23606e-14
7.59503e-14
-2.01555e-12
-2.24523e-12
-6.578e-13
-7.06861e-13
-3.24605e-13
-1.97757e-13
-3.67851e-13
-1.79789e-13
-2.47795e-13
-2.36575e-13
-5.37242e-14
-3.80609e-14
-3.1946e-14
-3.15112e-14
2.69412e-14
-1.80922e-12
-2.31383e-12
-8.72592e-13
-6.47716e-13
-3.60348e-13
-2.45472e-13
-3.61576e-13
-2.06836e-13
-2.30297e-13
-2.35917e-13
-9.58387e-14
-7.65778e-14
-1.40611e-14
-9.37506e-14
-1.65721e-13
-1.58639e-12
-2.34058e-12
-1.06216e-12
-6.32164e-13
-3.75382e-13
-2.88555e-13
-3.48525e-13
-2.3944e-13
-2.41408e-13
-2.2355e-13
-1.33603e-13
-1.63798e-13
-2.78781e-14
-2.77013e-14
-2.60061e-13
-1.3499e-12
-2.32026e-12
-1.20997e-12
-6.43174e-13
-3.84e-13
-2.72023e-13
-3.40342e-13
-2.48283e-13
-2.22424e-13
-2.1182e-13
-1.37135e-13
-1.28948e-13
-9.91478e-14
-3.58915e-14
-7.14239e-14
-1.15453e-12
-2.26989e-12
-1.33847e-12
-6.70392e-13
-3.85934e-13
-2.44495e-13
-3.31278e-13
-2.50297e-13
-1.9081e-13
-1.97324e-13
-1.47354e-13
-8.20878e-14
-7.73569e-14
-4.93363e-14
9.21407e-14
-9.58738e-13
-2.20477e-12
-1.42713e-12
-7.00461e-13
-3.89599e-13
-2.35063e-13
-2.98818e-13
-2.5412e-13
-1.42711e-13
-1.3054e-13
-1.44885e-13
-8.17221e-14
-1.27041e-14
-2.37192e-14
1.05312e-13
-8.39996e-13
-2.13935e-12
-1.45815e-12
-7.28771e-13
-4.01603e-13
-2.22554e-13
-2.75388e-13
-2.59862e-13
-9.14906e-14
-1.16008e-13
-1.16697e-13
-5.37694e-14
-5.71255e-14
9.9196e-14
1.00932e-13
-7.76004e-13
-2.08127e-12
-1.49462e-12
-7.45661e-13
-4.12633e-13
-2.12199e-13
-2.64005e-13
-2.59946e-13
-9.04017e-14
-1.1302e-13
-1.12421e-13
-2.3335e-14
-6.1488e-14
1.03533e-13
1.3332e-13
-7.23213e-13
-2.0353e-12
-1.51385e-12
-7.56771e-13
-4.1343e-13
-2.08037e-13
-2.59434e-13
-2.70841e-13
-8.47121e-14
-1.08341e-13
-1.21084e-13
-6.81514e-15
-4.20064e-14
8.94298e-14
1.21216e-13
-7.18429e-13
-1.96622e-12
-1.5032e-12
-7.63837e-13
-4.05791e-13
-2.12428e-13
-2.56755e-13
-2.56857e-13
-9.17679e-14
-1.0942e-13
-1.03076e-13
-1.12145e-14
-2.7922e-14
9.12508e-14
6.13975e-14
3.74455e-14
-5.96189e-13
2.27771e-13
8.81122e-14
-1.57441e-13
2.13161e-13
9.07839e-14
-4.21533e-15
2.02044e-13
4.64169e-15
-6.7642e-14
6.59352e-14
-1.65745e-15
-1.85495e-14
2.81332e-16
2.2124e-12
2.29028e-12
7.23428e-14
6.74626e-13
2.83788e-13
-1.15072e-14
3.15023e-13
1.83835e-13
1.16994e-13
3.14981e-13
8.72035e-14
-8.61569e-15
8.77882e-14
2.84975e-14
-8.42889e-16
2.13816e-12
2.42772e-12
3.08838e-13
7.55147e-13
2.69474e-13
1.05231e-13
3.23171e-13
1.85774e-13
2.42944e-13
2.37944e-13
5.5253e-14
6.65811e-14
4.49465e-14
1.89441e-14
7.7003e-15
2.41503e-12
2.17208e-12
4.45975e-13
8.93594e-13
2.87241e-13
2.37455e-13
4.64569e-13
2.35222e-13
3.04658e-13
2.9204e-13
3.36751e-14
7.92885e-14
7.55038e-14
-6.51235e-14
-9.09866e-14
2.28887e-12
2.18794e-12
5.28286e-13
8.18511e-13
2.98764e-13
2.63412e-13
4.26304e-13
2.27251e-13
3.07904e-13
2.7229e-13
5.29063e-14
5.27683e-14
4.51291e-14
-3.23606e-14
-7.59503e-14
2.01555e-12
2.24523e-12
6.578e-13
7.06861e-13
3.24605e-13
1.97757e-13
3.67851e-13
1.79789e-13
2.47795e-13
2.36575e-13
5.37242e-14
3.80609e-14
3.1946e-14
3.15112e-14
-2.69412e-14
1.80922e-12
2.31383e-12
8.72592e-13
6.47716e-13
3.60348e-13
2.45472e-13
3.61576e-13
2.06836e-13
2.30297e-13
2.35917e-13
9.58387e-14
7.65778e-14
1.40611e-14
9.37506e-14
1.65721e-13
1.58639e-12
2.34058e-12
1.06216e-12
6.32164e-13
3.75382e-13
2.88555e-13
3.48525e-13
2.3944e-13
2.41408e-13
2.2355e-13
1.33603e-13
1.63798e-13
2.78781e-14
2.77013e-14
2.60061e-13
1.3499e-12
2.32026e-12
1.20997e-12
6.43174e-13
3.84e-13
2.72023e-13
3.40342e-13
2.48283e-13
2.22424e-13
2.1182e-13
1.37135e-13
1.28948e-13
9.91478e-14
3.58915e-14
7.14239e-14
1.15453e-12
2.26989e-12
1.33847e-12
6.70392e-13
3.85934e-13
2.44495e-13
3.31278e-13
2.50297e-13
1.9081e-13
1.97324e-13
1.47354e-13
8.20878e-14
7.73569e-14
4.93363e-14
-9.21407e-14
9.58738e-13
2.20477e-12
1.42713e-12
7.00461e-13
3.89599e-13
2.35063e-13
2.98818e-13
2.5412e-13
1.42711e-13
1.3054e-13
1.44885e-13
8.17221e-14
1.27041e-14
2.37192e-14
-1.05312e-13
8.39996e-13
2.13935e-12
1.45815e-12
7.28771e-13
4.01603e-13
2.22554e-13
2.75388e-13
2.59862e-13
9.14906e-14
1.16008e-13
1.16697e-13
5.37694e-14
5.71255e-14
-9.9196e-14
-1.00932e-13
7.76004e-13
2.08127e-12
1.49462e-12
7.45661e-13
4.12633e-13
2.12199e-13
2.64005e-13
2.59946e-13
9.04017e-14
1.1302e-13
1.12421e-13
2.3335e-14
6.1488e-14
-1.03533e-13
-1.3332e-13
7.23213e-13
2.0353e-12
1.51385e-12
7.56771e-13
4.1343e-13
2.08037e-13
2.59434e-13
2.70841e-13
8.47121e-14
1.08341e-13
1.21084e-13
6.81514e-15
4.20064e-14
-8.94298e-14
-1.21216e-13
7.18429e-13
1.96622e-12
1.5032e-12
7.63837e-13
4.05791e-13
2.12428e-13
2.56755e-13
2.56857e-13
9.17679e-14
1.0942e-13
1.03076e-13
1.12145e-14
2.7922e-14
-9.12508e-14
-6.13975e-14
)
;
    }
    inlet
    {
        type            calculated;
        value           nonuniform List<scalar> 
15
(
-1299.9
-1300.2
-1299.9
-1299.9
-1300.2
-1299.9
-1299.9
-1300.2
-1299.9
-1299.9
-1300.2
-1299.9
-1299.9
-1300.2
-1299.9
)
;
    }
    inletWalls
    {
        type            calculated;
        value           uniform 0;
    }
    outletInlet
    {
        type            calculated;
        value           nonuniform List<scalar> 
15
(
198.247
527.464
785.412
982.026
1128.55
1250
1367.13
1486.58
1606.75
1731.81
1879.01
2054.9
2138.09
1729.93
634.18
)
;
    }
}


// ************************************************************************* //
