/*--------------------------------*- C++ -*----------------------------------*\
| =========                 |                                                 |
| \\      /  F ield         | OpenFOAM: The Open Source CFD Toolbox           |
|  \\    /   O peration     | Version:  4.1                                   |
|   \\  /    A nd           | Web:      www.OpenFOAM.org                      |
|    \\/     M anipulation  |                                                 |
\*---------------------------------------------------------------------------*/
FoamFile
{
    version     2.0;
    format      ascii;
    class       volVectorField;
    location    "20";
    object      U;
}
// * * * * * * * * * * * * * * * * * * * * * * * * * * * * * * * * * * * * * //

dimensions      [0 1 -1 0 0 0 0];

internalField   nonuniform List<vector> 
225
(
(1.12904e-14 0.852195 15.7946)
(9.15618e-15 -4.89458 12.1215)
(-2.23307e-15 -4.19551 12.1321)
(4.0495e-15 -3.60118 11.9966)
(5.13596e-16 -3.00468 11.8778)
(-5.72024e-17 -2.55319 11.6992)
(2.12477e-15 -2.20881 11.4769)
(7.15336e-16 -1.96603 11.2116)
(6.43107e-16 -1.79855 10.916)
(1.59843e-15 -1.71238 10.5882)
(-5.22438e-17 -1.83746 10.1561)
(-1.26881e-18 -2.28567 9.53762)
(5.21651e-16 -2.51301 8.96377)
(-1.28415e-16 -1.06553 8.91355)
(1.94761e-18 1.76575 7.47092)
(1.5316e-14 -5.35014 22.493)
(1.58569e-14 -14.6049 21.394)
(5.00815e-16 -13.2708 20.3412)
(5.04397e-15 -11.7697 19.5066)
(1.96484e-15 -11.1561 18.5043)
(-7.96622e-17 -10.6594 17.5174)
(2.2916e-15 -10.0901 16.5714)
(1.2728e-15 -9.52499 15.6236)
(8.09923e-16 -8.96543 14.6638)
(2.1642e-15 -8.3673 13.6946)
(6.03762e-16 -7.75708 12.7179)
(-5.96447e-17 -7.30334 11.7194)
(6.07041e-16 -7.01704 10.6244)
(1.97305e-16 -5.73094 9.16115)
(-5.83515e-18 -2.305 4.58317)
(1.68478e-14 -7.71562 23.9801)
(1.6411e-14 -16.7731 24.6729)
(2.13828e-15 -13.7365 23.9372)
(6.74709e-15 -12.3062 22.6249)
(2.24478e-15 -11.6447 21.2414)
(7.28581e-16 -10.814 20.0013)
(3.37724e-15 -9.94025 18.7738)
(1.28608e-15 -9.10011 17.5247)
(1.68205e-15 -8.28338 16.2654)
(2.43639e-15 -7.47524 15.0263)
(3.82507e-16 -6.66761 13.8176)
(4.60982e-16 -5.84165 12.4301)
(7.94478e-16 -4.81388 10.2752)
(1.31146e-16 -3.12622 6.68438)
(5.33139e-17 -0.832093 1.68985)
(1.67117e-14 -8.50254 22.0462)
(1.5037e-14 -16.6211 24.332)
(3.08743e-15 -12.93 23.7971)
(6.18696e-15 -12.1536 21.9985)
(1.91732e-15 -11.4201 20.5028)
(1.69252e-15 -10.4936 19.1722)
(3.21652e-15 -9.63389 17.8167)
(1.54942e-15 -8.8236 16.459)
(2.13696e-15 -8.05364 15.123)
(2.00709e-15 -7.3238 13.8165)
(2.24997e-16 -6.55249 12.4394)
(5.39547e-16 -5.49089 10.5831)
(4.97938e-16 -3.78525 7.50867)
(-2.58219e-16 -1.49361 2.76595)
(-8.21876e-16 0.153306 -1.77305)
(1.5634e-14 -8.47609 19.748)
(1.48025e-14 -16.3601 24.312)
(3.47888e-15 -13.099 23.6602)
(5.47177e-15 -12.628 21.5365)
(1.75744e-15 -11.8565 20.0248)
(1.60375e-15 -10.9574 18.6637)
(2.83433e-15 -10.1698 17.2587)
(1.32469e-15 -9.40279 15.8711)
(1.9992e-15 -8.6526 14.5236)
(1.81449e-15 -7.93053 13.2136)
(1.39048e-16 -7.1659 11.8292)
(2.80644e-16 -6.11617 9.99629)
(2.06089e-16 -4.42403 7.15555)
(-4.03137e-16 -2.30527 3.28786)
(-1.25815e-15 -0.787174 0.317701)
(1.41775e-14 -8.02185 17.5536)
(1.55853e-14 -16.0195 24.5278)
(4.68143e-15 -13.6434 24.0462)
(4.89351e-15 -12.9943 21.7651)
(2.29633e-15 -12.1264 20.2158)
(1.52527e-15 -11.2247 18.847)
(2.60199e-15 -10.439 17.4341)
(1.30394e-15 -9.64889 16.0434)
(1.84316e-15 -8.86035 14.6933)
(1.63778e-15 -8.09324 13.3817)
(4.47405e-16 -7.29729 12.0171)
(5.22289e-16 -6.28457 10.2818)
(1.10953e-16 -4.73299 7.72087)
(5.75761e-16 -2.75609 4.3724)
(8.21433e-16 -0.949336 1.29727)
(1.26593e-14 -7.33735 15.2534)
(1.60396e-14 -15.491 24.3551)
(6.12541e-15 -14.0225 24.4218)
(4.48458e-15 -13.1278 22.0675)
(2.54496e-15 -12.1447 20.4401)
(1.80709e-15 -11.2358 19.0547)
(2.50344e-15 -10.4361 17.6437)
(1.5574e-15 -9.61982 16.2576)
(1.73078e-15 -8.81014 14.9066)
(1.63341e-15 -8.02721 13.5919)
(8.28358e-16 -7.22392 12.2368)
(9.0913e-16 -6.24022 10.5488)
(9.73543e-17 -4.78747 8.10743)
(2.74199e-16 -2.91405 4.94704)
(2.41968e-15 -1.01081 1.7973)
(1.07972e-14 -6.55612 13.0328)
(1.62049e-14 -14.847 23.8163)
(7.31085e-15 -14.2638 24.6691)
(4.37626e-15 -13.2372 22.3215)
(2.59894e-15 -12.1674 20.5832)
(1.88919e-15 -11.2657 19.1667)
(2.47113e-15 -10.4651 17.7586)
(1.65776e-15 -9.64316 16.3766)
(1.53359e-15 -8.83496 15.0246)
(1.54756e-15 -8.05532 13.7074)
(9.24993e-16 -7.25502 12.3576)
(9.4367e-16 -6.28691 10.6996)
(3.12703e-16 -4.89101 8.33096)
(1.91789e-16 -3.0852 5.26762)
(1.30368e-15 -1.12215 2.04385)
(9.3452e-15 -5.77818 11.1235)
(1.60629e-14 -14.1745 23.0905)
(8.25157e-15 -14.4413 24.8463)
(4.45262e-15 -13.3964 22.6149)
(2.65839e-15 -12.2528 20.7554)
(1.72209e-15 -11.3493 19.2955)
(2.35615e-15 -10.5477 17.8905)
(1.71883e-15 -9.72549 16.511)
(1.33609e-15 -8.9195 15.1562)
(1.4664e-15 -8.1403 13.8352)
(9.49368e-16 -7.34003 12.4865)
(7.05738e-16 -6.38023 10.8514)
(6.86388e-16 -5.02358 8.5468)
(2.48472e-16 -3.26578 5.55832)
(-4.42328e-16 -1.23747 2.24754)
(7.79385e-15 -5.08476 9.59892)
(1.57142e-14 -13.5191 22.3)
(9.22393e-15 -14.535 24.9523)
(4.55012e-15 -13.5531 22.9353)
(2.67178e-15 -12.3448 20.9699)
(1.63877e-15 -11.4251 19.4566)
(2.17774e-15 -10.6174 18.0506)
(1.73278e-15 -9.79448 16.6721)
(1.18481e-15 -8.98829 15.3136)
(1.14303e-15 -8.20624 13.9874)
(1.02011e-15 -7.40475 12.6356)
(4.74669e-16 -6.4515 11.0133)
(3.03622e-16 -5.12524 8.75511)
(3.41549e-16 -3.40647 5.81942)
(-9.38099e-16 -1.31892 2.43071)
(6.48712e-15 -4.53851 8.4619)
(1.52894e-14 -12.9255 21.5503)
(9.72975e-15 -14.5349 24.9758)
(4.8261e-15 -13.6653 23.221)
(2.74772e-15 -12.4128 21.1811)
(1.46422e-15 -11.4735 19.612)
(2.06862e-15 -10.659 18.2003)
(1.82266e-15 -9.83691 16.8209)
(7.12905e-16 -9.03201 15.4585)
(9.03689e-16 -8.24851 14.1269)
(1.00311e-15 -7.44642 12.7691)
(2.824e-16 -6.49766 11.1497)
(2.04346e-16 -5.19246 8.91829)
(-5.01944e-16 -3.50164 6.01018)
(-9.91985e-16 -1.36355 2.54216)
(5.81519e-15 -4.17027 7.70246)
(1.48363e-14 -12.4378 20.9278)
(1.00521e-14 -14.4733 24.9366)
(5.0452e-15 -13.7315 23.4378)
(2.83106e-15 -12.4591 21.3593)
(1.45844e-15 -11.5038 19.7404)
(1.90648e-15 -10.6832 18.3206)
(1.86294e-15 -9.86349 16.9391)
(5.98709e-16 -9.06109 15.5728)
(8.03111e-16 -8.27753 14.2363)
(8.07879e-16 -7.47482 12.8709)
(2.29385e-16 -6.52669 11.2464)
(4.53966e-16 -5.23281 9.02615)
(-7.69736e-16 -3.55768 6.12564)
(-1.03851e-15 -1.3771 2.57231)
(5.27355e-15 -3.9732 7.27941)
(1.43815e-14 -12.0682 20.4612)
(1.03693e-14 -14.3843 24.8627)
(5.12758e-15 -13.7599 23.5828)
(2.85661e-15 -12.4875 21.4969)
(1.46903e-15 -11.5229 19.8406)
(1.79799e-15 -10.6965 18.412)
(1.89642e-15 -9.87989 17.0279)
(5.90798e-16 -9.08047 15.6584)
(7.82514e-16 -8.29714 14.3169)
(8.20445e-16 -7.49304 12.942)
(1.13598e-16 -6.54196 11.3059)
(4.25723e-16 -5.25067 9.08395)
(-6.34229e-16 -3.57851 6.17495)
(-1.07096e-15 -1.36502 2.53857)
(4.95936e-15 -3.9035 7.11)
(1.40774e-14 -11.8312 20.1816)
(1.04573e-14 -14.2998 24.7901)
(5.22706e-15 -13.7667 23.6686)
(2.84944e-15 -12.5019 21.5899)
(1.44018e-15 -11.532 19.9096)
(1.81106e-15 -10.7003 18.4746)
(1.85887e-15 -9.88548 17.0884)
(5.86434e-16 -9.08792 15.7173)
(7.69226e-16 -8.30408 14.373)
(8.17265e-16 -7.49784 12.9907)
(4.7179e-17 -6.54315 11.3434)
(3.19826e-16 -5.25336 9.11719)
(-6.60021e-16 -3.58356 6.20145)
(-8.3914e-16 -1.35001 2.50626)
(4.95879e-15 -4.03934 7.28662)
(1.36049e-14 -11.6271 19.9522)
(1.04134e-14 -14.1917 24.6681)
(5.28795e-15 -13.7464 23.7083)
(2.80273e-15 -12.5065 21.6737)
(1.47781e-15 -11.5393 19.9773)
(1.77749e-15 -10.6995 18.535)
(1.7701e-15 -9.88696 17.1438)
(6.44102e-16 -9.09052 15.7695)
(7.57504e-16 -8.30498 14.4184)
(7.0839e-16 -7.48996 13.0148)
(8.35316e-17 -6.51534 11.3282)
(1.93301e-16 -5.20595 9.06118)
(-6.41897e-16 -3.50147 6.08257)
(-4.05968e-16 -1.2523 2.30699)
)
;

boundaryField
{
    inletFace
    {
        type            zeroGradient;
    }
    inlet
    {
        type            fixedValue;
        value           uniform (0 8.7 15);
    }
    inletWalls
    {
        type            noSlip;
    }
    outletInlet
    {
        type            zeroGradient;
    }
}


// ************************************************************************* //
