/*--------------------------------*- C++ -*----------------------------------*\
| =========                 |                                                 |
| \\      /  F ield         | OpenFOAM: The Open Source CFD Toolbox           |
|  \\    /   O peration     | Version:  4.1                                   |
|   \\  /    A nd           | Web:      www.OpenFOAM.org                      |
|    \\/     M anipulation  |                                                 |
\*---------------------------------------------------------------------------*/
FoamFile
{
    version     2.0;
    format      ascii;
    class       volScalarField;
    location    "8";
    object      p;
}
// * * * * * * * * * * * * * * * * * * * * * * * * * * * * * * * * * * * * * //

dimensions      [0 2 -2 0 0 0 0];

internalField   nonuniform List<scalar> 
225
(
523.379
469.983
418.151
369.74
324.849
282.832
243.477
206.473
171.379
138.015
107.073
78.9343
49.9054
14.9866
-14.1656
56.9451
34.6841
28.9255
25.2152
19.7412
14.0337
8.88081
4.49205
1.00813
-1.45062
-2.64192
-2.14026
-0.0438232
1.8277
2.08788
-45.8372
-52.4802
-46.7132
-42.5664
-39.4758
-35.8805
-31.9942
-28.0568
-24.1524
-20.4365
-17.091
-14.0239
-10.9471
-8.29426
-7.06002
0.296498
-2.12157
2.47119
2.79526
2.84882
3.06403
2.97492
2.59763
2.01607
1.2569
0.300148
-0.809198
-1.71949
-1.87171
-1.56125
16.724
14.3911
15.9449
13.847
12.4283
11.1848
9.77486
8.393
7.13557
6.0445
5.14348
4.43091
3.95331
3.9206
4.16546
7.49635
5.47342
6.44763
5.22847
5.02545
5.00953
4.9216
4.95482
5.11034
5.35378
5.67302
6.03587
6.35553
6.61224
6.78698
4.02573
2.87032
3.9558
3.63233
4.01872
4.41257
4.71145
5.0621
5.41866
5.74346
6.03323
6.28723
6.46552
6.54657
6.56228
5.70213
5.14405
5.99788
5.76845
5.96693
6.07973
6.10401
6.14959
6.1744
6.16975
6.1462
6.11847
6.08482
6.03895
5.99045
6.00805
5.68256
6.19346
5.91809
5.96171
5.9315
5.85671
5.80965
5.75399
5.69331
5.63388
5.58055
5.53367
5.48752
5.43632
4.69063
4.48329
4.82977
4.65423
4.72732
4.73599
4.7225
4.73014
4.72711
4.71999
4.7101
4.6952
4.6729
4.63759
4.57985
3.32252
3.20652
3.50438
3.45011
3.56871
3.61432
3.64217
3.67677
3.69322
3.70004
3.69807
3.68567
3.66173
3.62351
3.55792
2.34546
2.28489
2.5382
2.53823
2.65554
2.69664
2.72603
2.75366
2.76172
2.76005
2.749
2.72839
2.69867
2.65987
2.59514
1.56206
1.52668
1.72819
1.74162
1.8413
1.86879
1.89225
1.91017
1.91098
1.90439
1.88992
1.86769
1.83805
1.80324
1.74531
0.877182
0.865156
1.02647
1.03225
1.11067
1.12528
1.14349
1.15543
1.15454
1.14924
1.138
1.1206
1.09541
1.06425
1.01008
0.438076
0.399196
0.45623
0.425208
0.461683
0.442552
0.435385
0.42058
0.399186
0.376256
0.349546
0.320848
0.290477
0.260632
0.217677
)
;

boundaryField
{
    inletFace
    {
        type            zeroGradient;
    }
    inlet
    {
        type            zeroGradient;
    }
    inletWalls
    {
        type            zeroGradient;
    }
    outletInlet
    {
        type            fixedValue;
        value           uniform 0;
    }
}


// ************************************************************************* //
