/*--------------------------------*- C++ -*----------------------------------*\
| =========                 |                                                 |
| \\      /  F ield         | OpenFOAM: The Open Source CFD Toolbox           |
|  \\    /   O peration     | Version:  4.1                                   |
|   \\  /    A nd           | Web:      www.OpenFOAM.org                      |
|    \\/     M anipulation  |                                                 |
\*---------------------------------------------------------------------------*/
FoamFile
{
    version     2.0;
    format      ascii;
    class       surfaceScalarField;
    location    "8";
    object      phi;
}
// * * * * * * * * * * * * * * * * * * * * * * * * * * * * * * * * * * * * * //

dimensions      [0 3 -1 0 0 0 0];

internalField   nonuniform List<scalar> 
420
(
-949.879
2249.78
-1573.96
1924.28
-2054
1779.95
-2424.23
1670.13
-2699.86
1575.83
-2888.38
1488.42
-2993.06
1404.58
-3013.86
1321
-2949.61
1235.66
-2797.23
1147.52
-2551.17
1054.13
-2193
941.735
-1687.17
794.065
-1012.67
625.704
287.228
373.335
1876.44
442.748
1854.86
437.3
1785.39
406.696
1700.74
380.579
1601.94
359.899
1509.1
345.29
1419.19
337.533
1328.76
333.481
1239.71
326.951
1154.05
309.607
1071.48
267.464
983.877
191.426
870.103
111.447
705.683
398.675
33.5749
1842.87
-97.3897
1985.83
-253.614
1941.62
-371.121
1818.24
-473.185
1704.01
-567.535
1603.45
-651.751
1503.4
-725.799
1402.8
-788.078
1301.99
-837.311
1203.28
-868.231
1102.4
-856.092
971.738
-740.338
754.348
-434.284
399.628
-35.6094
28.7746
1814.09
-100.655
2115.26
-225.563
2066.53
-304.499
1897.18
-368.161
1767.67
-416.959
1652.24
-446.234
1532.68
-457.022
1413.59
-451.86
1296.83
-430.161
1181.58
-387.232
1059.47
-311.878
896.383
-192.868
635.337
-48.4094
255.168
-84.0188
169.629
1644.46
146.16
2138.72
123.734
2088.95
122.869
1898.04
126.941
1763.6
135.805
1643.38
149.103
1519.38
166.592
1396.1
186.944
1276.47
208.133
1160.39
229.134
1038.47
243.824
881.691
233.004
646.156
155.226
332.944
71.2073
223.08
1421.39
244.184
2117.62
234.747
2098.39
236.027
1896.76
240.377
1759.25
244.314
1639.45
246.556
1517.14
245.261
1397.4
241.171
1280.56
233.998
1167.57
221.389
1051.07
199.147
903.938
156.148
689.159
78.3071
410.789
149.514
203.311
1218.08
238.37
2082.57
213.617
2123.14
191.414
1918.97
177.206
1773.45
163.777
1652.88
150.042
1530.88
135.899
1411.54
121.073
1295.39
106.92
1181.72
92.823
1065.17
75.7717
920.99
52.025
712.906
19.0228
443.792
168.537
171.857
1046.21
221.993
2032.43
199.433
2145.7
170.411
1947.99
152.058
1791.81
137.669
1667.26
122.781
1545.77
108.577
1425.74
95.5838
1308.39
83.1026
1194.2
71.4847
1076.79
58.6352
933.838
40.3249
731.215
15.7499
468.366
184.287
146.128
900.085
210.09
1968.46
196.906
2158.89
170.067
1974.82
152.417
1809.46
139.541
1680.13
127.081
1558.22
113.876
1438.94
101.335
1320.93
89.4358
1206.1
77.0085
1089.22
63.1049
947.733
44.316
749.998
19.1671
493.51
203.454
116.774
783.324
184.858
1900.37
179.635
2164.12
154.319
2000.14
137.234
1826.55
124.025
1693.35
111.399
1570.85
98.9992
1451.35
86.1452
1333.78
73.91
1218.34
62.1367
1100.99
49.066
960.823
32.8974
766.184
13.2189
513.204
216.673
83.1231
700.214
143.097
1840.42
144.656
2162.56
122.756
2022.06
106.153
1843.15
94.4825
1705.04
82.5986
1582.74
71.1934
1462.77
60.4062
1344.57
49.48
1229.28
39.4376
1111.03
29.7595
970.517
18.1011
777.858
5.2582
526.062
221.931
51.2061
649
97.9019
1793.74
102.699
2157.76
87.3875
2037.38
73.16
1857.38
63.1486
1715.05
54.2476
1591.65
44.8585
1472.16
36.1484
1353.29
28.1669
1237.26
20.4233
1118.78
13.6751
977.253
6.72949
784.793
-0.419639
533.201
221.512
25.1423
623.841
57.7395
1761.13
63.5302
2151.96
53.4755
2047.42
43.8894
1866.97
36.1558
1722.77
29.5262
1598.28
23.4711
1478.2
17.027
1359.73
11.2806
1243
6.5782
1123.48
2.45969
981.378
-1.08101
788.338
-3.68986
535.813
217.822
1.45357
622.388
24.0765
1738.49
33.3652
2142.68
27.7036
2053.07
20.3401
1874.33
15.0299
1728.07
9.49706
1603.8
4.55007
1483.14
0.00708637
1364.27
-4.85974
1247.86
-8.36377
1126.98
-9.68336
982.683
-9.75975
788.402
-7.17609
533.219
210.646
-11.7353
-3.15374
1.43054
-0.433384
-5.13395
-8.88166
-11.8326
-15.2636
-18.1207
-20.2455
-21.8044
-21.1353
-18.1407
-12.3969
)
;

boundaryField
{
    inletFace
    {
        type            calculated;
        value           nonuniform List<scalar> 
450
(
-2.16106e-14
5.72768e-13
-2.47518e-13
-1.1381e-13
1.96904e-13
-2.74593e-13
-1.72063e-13
8.62896e-14
-4.98502e-14
2.58178e-14
2.43823e-14
-6.12508e-14
-2.23451e-15
1.28928e-14
1.64715e-16
-2.20306e-12
-2.25917e-12
-6.49164e-14
-7.23982e-13
-2.37647e-13
1.08423e-13
-4.20789e-13
-2.01844e-13
-5.69291e-14
-1.69107e-13
-7.57326e-14
1.88272e-14
-7.01996e-14
-1.09168e-14
1.85431e-16
-2.19918e-12
-2.3894e-12
-2.34651e-13
-5.65572e-13
-1.20173e-13
-8.07646e-14
-3.11047e-13
-2.07931e-13
-8.1372e-14
-1.04519e-13
-7.83839e-14
-5.68589e-14
-4.56101e-14
8.46935e-15
5.1147e-15
-2.376e-12
-2.35186e-12
-3.35895e-13
-6.50129e-13
-1.65246e-13
-1.46004e-13
-4.58928e-13
-2.09435e-13
-1.60706e-13
-1.13774e-13
-7.28047e-14
-9.31602e-14
-1.01397e-13
4.13754e-14
6.71313e-14
-2.32848e-12
-2.37996e-12
-4.16765e-13
-7.08491e-13
-1.87768e-13
-1.85634e-13
-4.24329e-13
-1.57714e-13
-1.30608e-13
-1.9145e-13
-8.22506e-14
-7.69521e-14
-1.14726e-13
-3.65483e-15
7.26562e-14
-2.05127e-12
-2.36584e-12
-5.99577e-13
-5.76666e-13
-1.80923e-13
-1.92708e-13
-3.11055e-13
-1.12939e-13
-1.24591e-13
-1.68791e-13
-4.20634e-14
-3.89429e-14
-3.54512e-14
2.3132e-14
3.11532e-14
-1.84915e-12
-2.44515e-12
-8.55085e-13
-5.5568e-13
-2.338e-13
-1.71817e-13
-2.60354e-13
-1.81409e-13
-1.65995e-13
-1.26406e-13
-6.52827e-14
-1.29749e-13
-2.93521e-14
-5.09538e-14
-1.44574e-13
-1.60633e-12
-2.46933e-12
-1.07799e-12
-5.81243e-13
-2.76629e-13
-1.77156e-13
-2.96091e-13
-2.06454e-13
-1.95925e-13
-1.75526e-13
-1.20593e-13
-2.11103e-13
-4.13853e-14
-1.35836e-14
-2.13943e-13
-1.34592e-12
-2.4356e-12
-1.25029e-12
-6.34419e-13
-3.03595e-13
-1.61218e-13
-2.92734e-13
-2.17448e-13
-1.78666e-13
-2.14062e-13
-1.42697e-13
-1.31274e-13
-3.69756e-14
-1.97638e-14
-1.38848e-14
-1.17226e-12
-2.37949e-12
-1.38841e-12
-6.4331e-13
-3.16473e-13
-1.84843e-13
-2.44273e-13
-2.13559e-13
-1.35723e-13
-2.13355e-13
-1.47595e-13
-7.91814e-14
-1.2559e-13
-4.31891e-14
1.08883e-13
-9.67623e-13
-2.30242e-12
-1.48077e-12
-6.64752e-13
-3.25022e-13
-1.65926e-13
-2.10977e-13
-2.05995e-13
-1.71013e-13
-1.74276e-13
-1.43166e-13
-8.01771e-14
-6.06463e-14
-2.36216e-14
7.64113e-14
-8.37588e-13
-2.2326e-12
-1.52717e-12
-7.31132e-13
-3.61752e-13
-1.19685e-13
-2.09001e-13
-2.16009e-13
-1.29297e-13
-1.38193e-13
-1.46064e-13
5.67356e-15
2.03562e-15
9.72855e-14
8.46467e-14
-7.86977e-13
-2.17531e-12
-1.57319e-12
-7.62746e-13
-3.87646e-13
-1.349e-13
-2.01585e-13
-2.39724e-13
-8.10836e-14
-1.39581e-13
-1.43826e-13
4.31512e-14
-1.07278e-14
1.05767e-13
1.23754e-13
-7.35909e-13
-2.12656e-12
-1.58604e-12
-7.79454e-13
-3.85378e-13
-1.357e-13
-1.93716e-13
-2.50421e-13
-9.62205e-14
-1.38249e-13
-1.46223e-13
2.51144e-14
-1.02444e-14
9.71409e-14
1.20238e-13
-7.35646e-13
-2.0541e-12
-1.57607e-12
-7.87029e-13
-3.84875e-13
-1.49775e-13
-1.98592e-13
-2.36121e-13
-1.05248e-13
-1.39418e-13
-1.27587e-13
1.19848e-14
-6.72796e-16
9.98504e-14
6.11056e-14
2.16106e-14
-5.72768e-13
2.47518e-13
1.1381e-13
-1.96904e-13
2.74593e-13
1.72063e-13
-8.62896e-14
4.98502e-14
-2.58178e-14
-2.43823e-14
6.12508e-14
2.23451e-15
-1.28928e-14
-1.64715e-16
2.20306e-12
2.25917e-12
6.49164e-14
7.23982e-13
2.37647e-13
-1.08423e-13
4.20789e-13
2.01844e-13
5.69291e-14
1.69107e-13
7.57326e-14
-1.88272e-14
7.01996e-14
1.09168e-14
-1.85431e-16
2.19918e-12
2.3894e-12
2.34651e-13
5.65572e-13
1.20173e-13
8.07646e-14
3.11047e-13
2.07931e-13
8.1372e-14
1.04519e-13
7.83839e-14
5.68589e-14
4.56101e-14
-8.46935e-15
-5.1147e-15
2.376e-12
2.35186e-12
3.35895e-13
6.50129e-13
1.65246e-13
1.46004e-13
4.58928e-13
2.09435e-13
1.60706e-13
1.13774e-13
7.28047e-14
9.31602e-14
1.01397e-13
-4.13754e-14
-6.71313e-14
2.32848e-12
2.37996e-12
4.16765e-13
7.08491e-13
1.87768e-13
1.85634e-13
4.24329e-13
1.57714e-13
1.30608e-13
1.9145e-13
8.22506e-14
7.69521e-14
1.14726e-13
3.65483e-15
-7.26562e-14
2.05127e-12
2.36584e-12
5.99577e-13
5.76666e-13
1.80923e-13
1.92708e-13
3.11055e-13
1.12939e-13
1.24591e-13
1.68791e-13
4.20634e-14
3.89429e-14
3.54512e-14
-2.3132e-14
-3.11532e-14
1.84915e-12
2.44515e-12
8.55085e-13
5.5568e-13
2.338e-13
1.71817e-13
2.60354e-13
1.81409e-13
1.65995e-13
1.26406e-13
6.52827e-14
1.29749e-13
2.93521e-14
5.09538e-14
1.44574e-13
1.60633e-12
2.46933e-12
1.07799e-12
5.81243e-13
2.76629e-13
1.77156e-13
2.96091e-13
2.06454e-13
1.95925e-13
1.75526e-13
1.20593e-13
2.11103e-13
4.13853e-14
1.35836e-14
2.13943e-13
1.34592e-12
2.4356e-12
1.25029e-12
6.34419e-13
3.03595e-13
1.61218e-13
2.92734e-13
2.17448e-13
1.78666e-13
2.14062e-13
1.42697e-13
1.31274e-13
3.69756e-14
1.97638e-14
1.38848e-14
1.17226e-12
2.37949e-12
1.38841e-12
6.4331e-13
3.16473e-13
1.84843e-13
2.44273e-13
2.13559e-13
1.35723e-13
2.13355e-13
1.47595e-13
7.91814e-14
1.2559e-13
4.31891e-14
-1.08883e-13
9.67623e-13
2.30242e-12
1.48077e-12
6.64752e-13
3.25022e-13
1.65926e-13
2.10977e-13
2.05995e-13
1.71013e-13
1.74276e-13
1.43166e-13
8.01771e-14
6.06463e-14
2.36216e-14
-7.64113e-14
8.37588e-13
2.2326e-12
1.52717e-12
7.31132e-13
3.61752e-13
1.19685e-13
2.09001e-13
2.16009e-13
1.29297e-13
1.38193e-13
1.46064e-13
-5.67356e-15
-2.03562e-15
-9.72855e-14
-8.46467e-14
7.86977e-13
2.17531e-12
1.57319e-12
7.62746e-13
3.87646e-13
1.349e-13
2.01585e-13
2.39724e-13
8.10836e-14
1.39581e-13
1.43826e-13
-4.31512e-14
1.07278e-14
-1.05767e-13
-1.23754e-13
7.35909e-13
2.12656e-12
1.58604e-12
7.79454e-13
3.85378e-13
1.357e-13
1.93716e-13
2.50421e-13
9.62205e-14
1.38249e-13
1.46223e-13
-2.51144e-14
1.02444e-14
-9.71409e-14
-1.20238e-13
7.35646e-13
2.0541e-12
1.57607e-12
7.87029e-13
3.84875e-13
1.49775e-13
1.98592e-13
2.36121e-13
1.05248e-13
1.39418e-13
1.27587e-13
-1.19848e-14
6.72796e-16
-9.98504e-14
-6.11056e-14
)
;
    }
    inlet
    {
        type            calculated;
        value           nonuniform List<scalar> 
15
(
-1299.9
-1300.2
-1299.9
-1299.9
-1300.2
-1299.9
-1299.9
-1300.2
-1299.9
-1299.9
-1300.2
-1299.9
-1299.9
-1300.2
-1299.9
)
;
    }
    inletWalls
    {
        type            calculated;
        value           uniform 0;
    }
    outletInlet
    {
        type            calculated;
        value           nonuniform List<scalar> 
15
(
198.249
527.48
785.414
982.018
1128.55
1249.99
1367.12
1486.58
1606.75
1731.82
1879.03
2054.93
2138.1
1729.9
634.136
)
;
    }
}


// ************************************************************************* //
