/*--------------------------------*- C++ -*----------------------------------*\
| =========                 |                                                 |
| \\      /  F ield         | OpenFOAM: The Open Source CFD Toolbox           |
|  \\    /   O peration     | Version:  4.1                                   |
|   \\  /    A nd           | Web:      www.OpenFOAM.org                      |
|    \\/     M anipulation  |                                                 |
\*---------------------------------------------------------------------------*/
FoamFile
{
    version     2.0;
    format      ascii;
    class       volVectorField;
    location    "8";
    object      U;
}
// * * * * * * * * * * * * * * * * * * * * * * * * * * * * * * * * * * * * * //

dimensions      [0 1 -1 0 0 0 0];

internalField   nonuniform List<vector> 
225
(
(1.11808e-14 0.852193 15.7946)
(9.31832e-15 -4.89458 12.1215)
(-2.09636e-15 -4.19551 12.1321)
(4.22742e-15 -3.60118 11.9966)
(2.40397e-16 -3.00468 11.8778)
(3.68079e-16 -2.55319 11.6992)
(2.68751e-15 -2.20881 11.4769)
(1.47151e-16 -1.96603 11.2116)
(-4.10503e-16 -1.79855 10.916)
(6.04394e-16 -1.71238 10.5882)
(2.47236e-16 -1.83746 10.1561)
(-3.36986e-17 -2.28567 9.53762)
(5.48597e-16 -2.51301 8.96378)
(-8.92544e-17 -1.06551 8.91356)
(-1.14029e-18 1.76574 7.4709)
(1.59409e-14 -5.35014 22.493)
(1.56416e-14 -14.6049 21.394)
(4.49403e-16 -13.2708 20.3412)
(3.51731e-15 -11.7697 19.5066)
(1.64537e-15 -11.1561 18.5044)
(-7.50594e-16 -10.6594 17.5174)
(3.13455e-15 -10.0901 16.5714)
(1.39749e-15 -9.525 15.6236)
(3.94109e-16 -8.96543 14.6638)
(1.15434e-15 -8.36731 13.6946)
(5.24342e-16 -7.75709 12.7179)
(-1.30337e-16 -7.30335 11.7194)
(4.8528e-16 -7.01705 10.6244)
(7.55835e-17 -5.73094 9.16116)
(-1.2837e-18 -2.30499 4.58317)
(1.98491e-14 -7.71562 23.9801)
(1.65414e-14 -16.7731 24.6729)
(1.62463e-15 -13.7365 23.9372)
(5.05486e-15 -12.3062 22.6249)
(-2.5814e-15 -11.6447 21.2414)
(5.59183e-16 -10.814 20.0013)
(3.29331e-15 -9.94024 18.7738)
(1.43947e-15 -9.1001 17.5247)
(5.63389e-16 -8.28337 16.2654)
(3.2883e-15 -7.47523 15.0263)
(5.42637e-16 -6.66761 13.8176)
(3.93669e-16 -5.84164 12.4301)
(-4.09231e-16 -4.81388 10.2752)
(-5.86318e-17 -3.12623 6.68439)
(-3.54123e-17 -0.832093 1.68984)
(1.64415e-14 -8.50255 22.0462)
(1.62817e-14 -16.6211 24.332)
(2.32536e-15 -12.93 23.7971)
(4.50128e-15 -12.1536 21.9985)
(1.07277e-15 -11.4201 20.5028)
(1.03509e-15 -10.4936 19.1722)
(3.17747e-15 -9.63386 17.8167)
(1.3709e-15 -8.82358 16.459)
(1.1404e-15 -8.05362 15.123)
(7.72837e-16 -7.32376 13.8164)
(4.95886e-16 -6.55245 12.4394)
(6.35579e-16 -5.49085 10.583)
(6.77218e-16 -3.7852 7.50859)
(-9.38134e-17 -1.49358 2.7659)
(-5.09317e-16 0.153326 -1.77305)
(1.59082e-14 -8.4761 19.748)
(1.61319e-14 -16.3601 24.312)
(2.70686e-15 -13.099 23.6602)
(4.71014e-15 -12.628 21.5365)
(9.88956e-16 -11.8565 20.0248)
(7.63849e-17 -10.9574 18.6637)
(2.82066e-15 -10.1698 17.2587)
(1.96227e-15 -9.40276 15.8711)
(7.71843e-16 -8.65257 14.5236)
(1.25486e-15 -7.9305 13.2135)
(1.0997e-15 -7.16587 11.8292)
(4.4806e-16 -6.11612 9.99622)
(6.87885e-16 -4.42397 7.15545)
(-3.32878e-16 -2.30521 3.28776)
(-8.69164e-16 -0.787128 0.317625)
(1.44248e-14 -8.02184 17.5536)
(1.64203e-14 -16.0195 24.5277)
(4.27832e-15 -13.6434 24.0462)
(3.99219e-15 -12.9943 21.7651)
(1.30164e-15 -12.1264 20.2157)
(9.70106e-16 -11.2247 18.847)
(2.70742e-15 -10.439 17.4341)
(8.4115e-16 -9.64889 16.0434)
(4.16347e-16 -8.86036 14.6933)
(1.16852e-15 -8.09326 13.3817)
(3.66677e-16 -7.29731 12.0171)
(5.28393e-16 -6.28458 10.2818)
(1.35221e-16 -4.73299 7.72085)
(1.97468e-16 -2.7561 4.37239)
(7.92393e-16 -0.949348 1.29728)
(1.29357e-14 -7.33734 15.2534)
(1.6736e-14 -15.491 24.3551)
(6.00421e-15 -14.0225 24.4218)
(3.84735e-15 -13.1278 22.0675)
(1.66888e-15 -12.1448 20.4401)
(1.29718e-15 -11.2358 19.0547)
(1.8026e-15 -10.4361 17.6437)
(1.31862e-15 -9.61986 16.2576)
(1.28562e-15 -8.81017 14.9066)
(8.75197e-16 -8.02724 13.5919)
(6.16822e-16 -7.22396 12.2368)
(1.27723e-15 -6.24026 10.5488)
(2.03225e-16 -4.7875 8.10747)
(-2.20731e-17 -2.91408 4.9471)
(1.92385e-15 -1.01082 1.79733)
(1.0859e-14 -6.55617 13.0329)
(1.70963e-14 -14.847 23.8164)
(7.42044e-15 -14.2639 24.6691)
(3.559e-15 -13.2372 22.3215)
(1.91523e-15 -12.1675 20.5832)
(1.11801e-15 -11.2657 19.1667)
(1.52404e-15 -10.4651 17.7587)
(1.42938e-15 -9.64315 16.3766)
(1.21872e-15 -8.83494 15.0246)
(5.38227e-16 -8.05529 13.7073)
(8.3492e-16 -7.25499 12.3576)
(1.27115e-15 -6.28688 10.6996)
(2.86497e-16 -4.89098 8.33094)
(9.40454e-17 -3.08519 5.26762)
(9.84315e-16 -1.12216 2.04388)
(9.31762e-15 -5.77816 11.1234)
(1.68614e-14 -14.1745 23.0905)
(8.53074e-15 -14.4413 24.8463)
(4.392e-15 -13.3964 22.6149)
(2.10175e-15 -12.2528 20.7553)
(9.54907e-16 -11.3493 19.2955)
(2.02657e-15 -10.5477 17.8904)
(1.50536e-15 -9.72541 16.5109)
(1.03312e-15 -8.91943 15.1561)
(1.48193e-15 -8.14023 13.8351)
(9.87875e-16 -7.33996 12.4864)
(6.28314e-16 -6.38017 10.8513)
(2.55977e-16 -5.0235 8.54669)
(1.36822e-16 -3.26573 5.55824)
(-8.40702e-16 -1.23744 2.2475)
(7.33627e-15 -5.08456 9.59851)
(1.6473e-14 -13.519 22.2998)
(9.56963e-15 -14.535 24.9523)
(4.31689e-15 -13.5531 22.9353)
(2.1909e-15 -12.3447 20.9698)
(6.87437e-16 -11.425 19.4566)
(9.95777e-16 -10.6174 18.0506)
(1.47844e-15 -9.79448 16.6721)
(8.71522e-16 -8.9883 15.3136)
(5.84501e-16 -8.20627 13.9874)
(1.02178e-15 -7.4048 12.6356)
(4.54553e-16 -6.45156 11.0133)
(6.37588e-16 -5.12534 8.75517)
(2.98993e-16 -3.40663 5.81961)
(-1.05396e-15 -1.31909 2.43096)
(6.49217e-15 -4.53832 8.46169)
(1.59655e-14 -12.9253 21.5501)
(9.90843e-15 -14.5349 24.9758)
(4.37224e-15 -13.6654 23.2211)
(2.30062e-15 -12.4128 21.1812)
(9.31261e-16 -11.4736 19.6121)
(1.46053e-15 -10.6591 18.2004)
(1.48947e-15 -9.83706 16.8209)
(2.90042e-16 -9.03215 15.4586)
(1.20646e-15 -8.24866 14.127)
(1.07415e-15 -7.44657 12.7692)
(1.77279e-16 -6.49783 11.1499)
(4.19834e-16 -5.19272 8.91862)
(-5.02527e-16 -3.50205 6.0108)
(-1.73496e-15 -1.36392 2.54286)
(5.79852e-15 -4.17035 7.70275)
(1.54819e-14 -12.4377 20.9278)
(1.053e-14 -14.4734 24.9366)
(5.06154e-15 -13.7317 23.4379)
(2.55518e-15 -12.4594 21.3594)
(7.46206e-16 -11.5041 19.7406)
(1.44689e-15 -10.6834 18.3208)
(1.59132e-15 -9.86371 16.9393)
(8.2573e-16 -9.06129 15.573)
(9.56695e-16 -8.27773 14.2365)
(1.01119e-15 -7.47502 12.8711)
(2.94131e-16 -6.52693 11.2467)
(4.43969e-17 -5.23317 9.02671)
(-7.56499e-16 -3.55817 6.12645)
(-1.24933e-15 -1.37745 2.57299)
(5.34953e-15 -3.97346 7.27984)
(1.50325e-14 -12.0683 20.4612)
(1.09133e-14 -14.3844 24.8627)
(5.24588e-15 -13.7601 23.5829)
(2.68363e-15 -12.4877 21.4971)
(9.33897e-16 -11.5231 19.8408)
(1.36581e-15 -10.6966 18.4122)
(1.75642e-15 -9.87997 17.028)
(5.26289e-16 -9.08056 15.6586)
(9.66412e-16 -8.29725 14.3171)
(1.03786e-15 -7.49317 12.9423)
(-3.46679e-16 -6.54217 11.3063)
(7.42756e-17 -5.25106 9.08454)
(-6.49699e-16 -3.57898 6.17569)
(-1.00472e-15 -1.36529 2.53904)
(5.03023e-15 -3.9036 7.10996)
(1.47093e-14 -11.8312 20.1815)
(1.10589e-14 -14.2999 24.7901)
(5.38409e-15 -13.7668 23.6687)
(2.65522e-15 -12.5019 21.5899)
(9.39409e-16 -11.5319 19.9096)
(1.35611e-15 -10.7002 18.4747)
(1.7175e-15 -9.88538 17.0884)
(6.66103e-16 -9.08785 15.7173)
(9.76271e-16 -8.30403 14.373)
(9.91317e-16 -7.4978 12.9907)
(-1.73859e-16 -6.54314 11.3435)
(9.99449e-17 -5.25342 9.11735)
(-7.13404e-16 -3.58368 6.20168)
(-8.3237e-16 -1.35003 2.50632)
(5.07797e-15 -4.03896 7.28601)
(1.42133e-14 -11.6269 19.9518)
(1.0918e-14 -14.1917 24.6682)
(5.44851e-15 -13.7464 23.7085)
(2.65793e-15 -12.5065 21.6738)
(1.04402e-15 -11.5391 19.9773)
(1.37483e-15 -10.6994 18.535)
(1.62655e-15 -9.88687 17.1437)
(7.3743e-16 -9.09044 15.7694)
(9.65177e-16 -8.3049 14.4183)
(8.78074e-16 -7.48987 13.0147)
(-7.70931e-17 -6.51525 11.3281)
(4.65769e-18 -5.2059 9.06122)
(-7.01431e-16 -3.50154 6.08275)
(-4.03947e-16 -1.25229 2.30701)
)
;

boundaryField
{
    inletFace
    {
        type            zeroGradient;
    }
    inlet
    {
        type            fixedValue;
        value           uniform (0 8.7 15);
    }
    inletWalls
    {
        type            noSlip;
    }
    outletInlet
    {
        type            zeroGradient;
    }
}


// ************************************************************************* //
