/*--------------------------------*- C++ -*----------------------------------*\
| =========                 |                                                 |
| \\      /  F ield         | OpenFOAM: The Open Source CFD Toolbox           |
|  \\    /   O peration     | Version:  4.1                                   |
|   \\  /    A nd           | Web:      www.OpenFOAM.org                      |
|    \\/     M anipulation  |                                                 |
\*---------------------------------------------------------------------------*/
FoamFile
{
    version     2.0;
    format      ascii;
    class       volSymmTensorField;
    location    "8";
    object      R;
}
// * * * * * * * * * * * * * * * * * * * * * * * * * * * * * * * * * * * * * //

dimensions      [0 2 -2 0 0 0 0];

internalField   nonuniform List<symmTensor> 
6785
(
(0.908979 2.47674e-16 6.42728e-16 0.457905 0.233409 2.08322)
(0.000209684 6.23084e-21 1.68432e-20 0.000198078 4.92988e-06 0.000238526)
(0.000128384 -9.30545e-24 5.34352e-24 0.000128351 3.65853e-09 0.000128406)
(0.000128277 5.2843e-24 3.55918e-24 0.000128262 9.47797e-09 0.000128276)
(0.000128289 -9.58259e-24 -3.51063e-24 0.000128274 9.23379e-09 0.000128288)
(0.000128258 3.68968e-24 -2.24144e-24 0.000128242 8.44514e-09 0.000128257)
(0.000128271 1.42131e-24 -1.7377e-24 0.000128255 7.76607e-09 0.000128271)
(0.000128285 -5.25958e-24 -1.27071e-24 0.000128267 7.16892e-09 0.000128285)
(0.000128254 3.08324e-24 1.8539e-24 0.000128236 6.6616e-09 0.000128255)
(0.000128264 1.79069e-25 1.2491e-24 0.000128244 5.90281e-09 0.000128265)
(0.000128264 -5.04063e-24 -2.36084e-24 0.000128242 4.53397e-09 0.000128265)
(0.000128226 2.36573e-24 -4.53135e-25 0.000128203 3.90483e-09 0.000128227)
(0.0001284 7.02929e-26 4.73265e-25 0.000128377 2.47561e-09 0.000128407)
(0.000303551 1.29987e-21 1.35229e-22 0.000265275 -2.70435e-05 0.000326937)
(0.420987 6.89928e-18 5.07864e-19 0.198345 -0.14122 0.589396)
(2.26923 2.53988e-16 1.98405e-15 0.749326 -0.450203 4.76475)
(0.21943 -5.89539e-18 7.43918e-17 0.0802025 -0.0520871 0.379579)
(0.0143146 -8.57889e-19 2.22383e-18 0.00872866 -0.00179812 0.0201444)
(0.000146592 -5.57467e-21 1.4044e-20 0.000113929 -1.09338e-05 0.000180141)
(6.6037e-07 -3.27673e-24 5.40709e-24 6.43457e-07 -4.13731e-09 6.75799e-07)
(4.60736e-07 1.83249e-25 4.83884e-25 4.58347e-07 1.56221e-09 4.60017e-07)
(4.33152e-07 1.08002e-24 -1.77559e-25 4.28121e-07 4.36156e-09 4.31579e-07)
(3.99212e-07 -2.64676e-24 1.05511e-24 3.90923e-07 7.84673e-09 3.96422e-07)
(3.67814e-07 1.99871e-24 2.49194e-24 3.61047e-07 5.3763e-09 3.64802e-07)
(3.59265e-07 7.29691e-24 -8.62112e-24 3.65568e-07 -5.19457e-09 3.58428e-07)
(3.44701e-07 -3.13111e-23 -6.65953e-25 3.65559e-07 -1.18372e-08 3.45043e-07)
(2.91092e-07 -2.17604e-23 7.66496e-24 3.22403e-07 -1.43981e-08 2.90124e-07)
(2.11913e-06 1.62009e-22 -7.7115e-23 2.45374e-06 -6.02558e-07 2.11829e-06)
(0.00941917 -4.82615e-19 -1.26201e-19 0.0111803 -0.0053513 0.00934605)
(0.644107 1.04676e-17 -1.87933e-17 0.743304 -0.556144 0.627178)
(3.70001 1.8858e-16 2.46002e-15 1.28932 -1.20558 7.08615)
(0.4528 -3.62827e-17 1.53205e-17 0.180707 -0.157017 0.762277)
(0.0226303 -7.42477e-18 -4.68112e-18 0.0181189 -0.00373176 0.0302286)
(0.000244189 -2.89398e-20 -3.12941e-20 0.000225189 -3.89659e-05 0.000285983)
(1.50648e-05 -1.68726e-23 -2.35451e-21 2.48388e-05 -2.13223e-05 1.73279e-05)
(0.000281631 3.18127e-20 -5.25404e-20 0.000531789 -0.000343417 0.000338632)
(0.00155548 1.62959e-19 -3.71207e-19 0.00310887 -0.00191057 0.00195187)
(0.00505248 -5.98432e-19 1.29662e-19 0.0100525 -0.00610336 0.00643943)
(0.0128117 2.1895e-18 -2.23049e-18 0.0245363 -0.0148375 0.0161466)
(0.0280197 -4.17313e-18 -6.03241e-18 0.0510577 -0.0304809 0.0348653)
(0.0562388 -2.52107e-17 2.73753e-18 0.0966952 -0.0575106 0.0697357)
(0.108167 -1.85748e-18 -1.12967e-17 0.17521 -0.10521 0.133419)
(0.199509 4.88283e-17 -2.59943e-17 0.307187 -0.184111 0.240733)
(0.340308 -5.65687e-18 -1.79637e-18 0.480303 -0.295036 0.387989)
(0.573913 -2.48557e-17 -6.10235e-17 0.598172 -0.456297 0.575017)
(4.23226 4.04926e-17 2.83161e-15 1.53857 -1.55381 7.59738)
(0.870633 -4.43728e-17 -2.42619e-16 0.395216 -0.298495 1.53381)
(0.0945375 -9.92675e-17 -4.61365e-17 0.0871933 -0.0193935 0.129713)
(0.00216042 -1.21816e-18 -4.86905e-19 0.0022885 -0.0004812 0.00254632)
(0.000130933 -4.23023e-20 -2.81193e-20 0.000194197 -8.78043e-05 0.000152196)
(0.000607052 -1.23143e-19 8.53361e-21 0.0011491 -0.000753407 0.000759041)
(0.0030999 -8.83705e-19 1.9309e-19 0.00608486 -0.00400874 0.00406364)
(0.00975468 -1.00268e-18 3.18701e-19 0.0189746 -0.0122789 0.0130884)
(0.0229159 -9.20204e-20 4.39501e-18 0.0428798 -0.0268533 0.0304522)
(0.0457832 -2.02881e-17 3.56318e-19 0.0816772 -0.0484724 0.0592791)
(0.0865556 -1.83716e-17 -1.12085e-17 0.148216 -0.0830094 0.108997)
(0.163664 -2.5869e-17 1.7174e-17 0.272159 -0.147233 0.201453)
(0.311318 -8.31017e-17 2.02715e-17 0.501277 -0.275217 0.379028)
(0.556491 4.17576e-16 -2.96674e-16 0.824693 -0.516418 0.683426)
(0.353353 -3.26878e-16 2.0891e-16 0.416811 -0.248943 0.347221)
(3.95021 -9.66342e-18 2.25716e-15 1.42822 -1.51836 6.81623)
(1.50189 -2.99376e-18 -6.1297e-16 0.690819 -0.494622 2.88795)
(0.304599 -1.63845e-16 -2.30395e-16 0.222369 -0.0769485 0.487791)
(0.0473824 -2.96524e-17 -3.33405e-17 0.0396331 -0.0160914 0.0664606)
(0.00777412 -5.28901e-18 -4.59163e-18 0.00771943 -0.00367715 0.00983165)
(0.00183611 -4.82917e-19 -6.81856e-19 0.00256165 -0.00150485 0.00220172)
(0.00291746 -1.2152e-18 1.3301e-19 0.00555037 -0.00392961 0.00376335)
(0.00945102 -1.5523e-19 -3.62206e-20 0.0184162 -0.0126614 0.0127493)
(0.0230023 8.92199e-18 2.10386e-18 0.0434553 -0.0287409 0.0308993)
(0.0457673 -4.90352e-17 1.64481e-18 0.0830007 -0.051364 0.0596205)
(0.0836405 -5.50839e-17 -3.37815e-18 0.146597 -0.0837248 0.104226)
(0.153689 2.76477e-17 7.52294e-18 0.266056 -0.142186 0.183094)
(0.273423 -2.57998e-16 4.15762e-17 0.461703 -0.243648 0.316528)
(0.438617 -2.36257e-16 1.44421e-17 0.702871 -0.384064 0.492663)
(0.415653 8.09307e-16 -1.93029e-16 0.51375 -0.328518 0.413202)
(3.38367 -2.66345e-17 1.7927e-15 1.13496 -1.34095 5.79846)
(2.47443 -1.38529e-16 -8.01649e-16 1.09808 -0.845665 5.16524)
(0.628181 -3.64708e-16 -4.72344e-16 0.387139 -0.1652 1.10352)
(0.131246 -1.2153e-16 -9.23389e-17 0.100656 -0.0424846 0.188812)
(0.028584 -3.34847e-17 -1.28443e-17 0.02778 -0.0120301 0.0355456)
(0.00703951 -6.62472e-18 -5.14442e-19 0.00878705 -0.00415936 0.00806523)
(0.00390104 -2.58646e-18 6.06245e-19 0.00677746 -0.00438538 0.0047303)
(0.00901756 8.08905e-19 1.29026e-18 0.0176282 -0.0124219 0.0119217)
(0.0223245 5.7694e-18 5.13666e-18 0.0431306 -0.0288653 0.0295258)
(0.0446983 -4.22619e-17 1.41025e-17 0.0835633 -0.0520796 0.0571087)
(0.0804115 -8.75494e-18 1.04146e-17 0.146108 -0.0842133 0.0977684)
(0.141489 7.75638e-17 7.98235e-18 0.253475 -0.135755 0.163227)
(0.251775 -2.26543e-16 5.89836e-17 0.436836 -0.230963 0.283276)
(0.454164 -4.38487e-16 -5.59622e-17 0.754749 -0.384961 0.494259)
(0.589186 5.77539e-16 -2.61026e-16 0.597426 -0.502645 0.699879)
(2.98346 5.53786e-18 1.64152e-15 1.01853 -1.17618 5.10984)
(3.70145 -1.77089e-16 -1.0647e-15 1.61068 -1.30102 8.01987)
(0.978139 -5.14264e-16 -7.5775e-16 0.558698 -0.270013 1.80383)
(0.219309 -2.14656e-16 -1.53163e-16 0.168737 -0.070194 0.319882)
(0.0536588 -5.19847e-17 -9.21491e-18 0.0568267 -0.0232779 0.0650301)
(0.014506 -1.47351e-17 3.09309e-18 0.0198603 -0.00875606 0.0161982)
(0.00594832 -6.48128e-18 1.77881e-18 0.0103162 -0.00594855 0.00698724)
(0.00933692 -1.17026e-18 1.4267e-18 0.0183623 -0.0129835 0.0120937)
(0.0227221 1.92049e-18 1.03362e-17 0.0447832 -0.0304302 0.0295306)
(0.0442415 -4.91147e-18 2.29952e-17 0.08417 -0.053951 0.0553771)
(0.0742896 4.91267e-18 -7.93065e-18 0.13593 -0.0801998 0.0884372)
(0.124767 -6.18088e-17 1.61532e-17 0.223586 -0.122328 0.141091)
(0.254617 -2.89346e-16 1.23869e-16 0.43316 -0.237021 0.285415)
(0.59883 1.91935e-16 -2.14807e-16 0.992151 -0.4994 0.631023)
(0.782478 4.44122e-16 -1.26165e-16 0.884462 -0.661259 0.801489)
(2.75312 1.67382e-16 1.61847e-15 1.30914 -0.892397 4.43024)
(4.48318 1.38937e-17 -3.38419e-16 2.06135 -1.4846 9.66931)
(1.15077 -4.11915e-16 -9.45882e-16 0.664114 -0.306846 2.11945)
(0.265486 -2.84097e-16 -2.08733e-16 0.219662 -0.0828428 0.375988)
(0.0712986 -8.35769e-17 -9.71416e-18 0.085411 -0.0338808 0.0824502)
(0.021706 -2.48749e-17 3.23339e-18 0.0332631 -0.0146368 0.0240264)
(0.00845308 -9.07674e-18 2.80737e-18 0.0153357 -0.00834597 0.0100291)
(0.00986322 2.10074e-19 1.06804e-18 0.0195038 -0.0136454 0.0126167)
(0.0217333 3.53541e-18 7.84835e-18 0.0427111 -0.0296738 0.0277476)
(0.040632 -1.90294e-17 2.26564e-17 0.0771206 -0.0495851 0.0499611)
(0.0628429 -1.04786e-18 -1.33009e-17 0.113896 -0.0683783 0.0735848)
(0.104448 -2.05636e-17 1.50881e-17 0.184372 -0.101766 0.116653)
(0.273875 -2.03619e-16 1.42958e-16 0.451197 -0.255194 0.308098)
(0.709573 9.02603e-16 -1.28425e-16 1.15947 -0.572468 0.718379)
(0.853511 8.7295e-17 -9.3451e-17 1.06618 -0.708658 0.704523)
(2.63598 2.60243e-16 1.71589e-15 1.30284 -0.786342 4.26033)
(4.55582 1.70423e-16 -3.32347e-16 2.15026 -1.45645 9.74799)
(1.16945 -2.92672e-16 -1.14919e-15 0.685006 -0.300616 2.13586)
(0.281129 -3.26015e-16 -2.22141e-16 0.251335 -0.0855051 0.384621)
(0.0835704 -1.08342e-16 -6.50898e-18 0.110633 -0.0441111 0.0931692)
(0.0287959 -2.54542e-17 1.46865e-18 0.0475557 -0.0216475 0.032266)
(0.0115248 -1.27391e-17 3.97645e-18 0.0216491 -0.0115655 0.0140409)
(0.0104928 -7.38996e-18 2.6728e-18 0.0208071 -0.0139959 0.0133354)
(0.019457 -2.55378e-18 3.15542e-18 0.0378949 -0.0260406 0.0244349)
(0.0337035 -6.94122e-18 1.65321e-17 0.0632242 -0.0408835 0.0407274)
(0.0487636 1.54461e-17 -4.22307e-18 0.0870916 -0.0524254 0.056227)
(0.0878611 -6.27465e-18 5.537e-18 0.153036 -0.0833496 0.0973646)
(0.294937 -1.83263e-16 1.51241e-16 0.472391 -0.273599 0.335316)
(0.791917 2.84659e-16 9.68657e-17 1.26138 -0.624579 0.817605)
(0.973334 2.35599e-16 -2.71934e-16 1.01584 -0.782817 1.04661)
(2.50586 1.21802e-16 1.41603e-15 1.0926 -0.82053 4.22913)
(3.98901 1.59141e-16 5.61119e-16 1.9506 -1.21778 8.44971)
(1.07513 -2.49897e-16 -1.18842e-15 0.641937 -0.2612 1.94353)
(0.280032 -3.00164e-16 -2.99672e-16 0.26474 -0.0805131 0.373473)
(0.0942091 -1.53828e-16 -7.30854e-18 0.132507 -0.0537115 0.10328)
(0.0374191 -4.24411e-17 6.29668e-18 0.0644894 -0.0306526 0.0427823)
(0.0158771 -9.19453e-18 1.93321e-18 0.0303941 -0.0163164 0.0198514)
(0.0114093 -3.2099e-18 2.9146e-18 0.0226229 -0.0144737 0.0144622)
(0.0166113 -4.67017e-18 4.27257e-18 0.0320216 -0.021406 0.0205393)
(0.0259589 -9.30641e-18 7.49164e-18 0.0480496 -0.0305294 0.0308288)
(0.0360867 6.94322e-18 -1.97622e-18 0.0634936 -0.0377452 0.0409813)
(0.0785813 -2.64579e-17 2.01018e-17 0.135958 -0.0729945 0.0867501)
(0.318551 -1.29798e-16 6.48244e-17 0.501626 -0.295348 0.365244)
(0.849534 -2.71529e-16 3.96442e-17 1.33028 -0.661211 0.889289)
(1.03498 5.6473e-16 -3.53503e-16 0.980648 -0.823435 1.21175)
(2.36239 -3.97435e-17 9.25166e-16 0.822418 -0.883934 4.21201)
(3.33124 -2.52133e-16 1.26637e-15 1.67381 -0.965016 7.04197)
(0.931168 -1.06298e-16 -1.1085e-15 0.569363 -0.210338 1.67187)
(0.266861 -2.20332e-16 -2.99835e-16 0.259154 -0.0705122 0.351581)
(0.1021 -1.92077e-16 -3.23198e-18 0.147142 -0.0603772 0.111567)
(0.0467796 -5.61195e-17 -3.43153e-18 0.0818441 -0.0398633 0.0543243)
(0.0217325 -8.7628e-18 1.55701e-18 0.0419284 -0.0226041 0.0275347)
(0.0130177 -7.72693e-18 5.31905e-18 0.0258648 -0.0156734 0.0165071)
(0.0141534 -8.09217e-18 1.96792e-18 0.0271197 -0.017155 0.0172731)
(0.0194476 2.35723e-18 1.68731e-18 0.0356024 -0.0219925 0.0227178)
(0.0279735 3.20855e-18 5.58397e-18 0.0489871 -0.0281305 0.0314079)
(0.0789427 -2.72946e-17 2.44357e-17 0.137881 -0.0712954 0.0870826)
(0.346903 -3.88709e-16 1.57487e-16 0.541078 -0.322623 0.399822)
(0.894838 -1.26137e-15 2.97924e-16 1.38248 -0.690791 0.941787)
(1.08264 1.26662e-15 -9.98644e-16 0.984324 -0.870142 1.3009)
(2.22393 -2.56252e-17 7.09536e-16 0.635264 -0.896446 4.10744)
(2.75724 -1.58427e-16 1.07912e-15 1.41963 -0.745593 5.85051)
(0.793265 -1.07333e-16 -9.03612e-16 0.490006 -0.16902 1.43541)
(0.243695 -2.10977e-16 -2.49102e-16 0.237494 -0.0582151 0.320458)
(0.106114 -2.14783e-16 1.63586e-17 0.154264 -0.0641547 0.115955)
(0.0562596 -7.4585e-17 2.62646e-18 0.0994661 -0.0495234 0.0658229)
(0.0286495 -1.07568e-17 -4.17438e-18 0.0554691 -0.0300632 0.0364614)
(0.0152304 -1.37485e-17 1.00806e-17 0.0302438 -0.0175302 0.0193265)
(0.0121542 -4.88273e-18 3.7891e-18 0.023069 -0.0139704 0.0146629)
(0.0152041 7.62447e-18 -1.4792e-18 0.02772 -0.0161102 0.0175259)
(0.0232521 -1.55518e-17 9.69496e-18 0.0405469 -0.0224413 0.0259215)
(0.0849086 -5.78888e-17 3.78284e-17 0.14861 -0.0763161 0.0938214)
(0.378948 -4.6522e-16 2.63953e-16 0.583136 -0.35272 0.439197)
(0.931613 -1.50471e-15 3.13635e-16 1.41366 -0.711132 0.987066)
(1.08914 1.70572e-15 -1.21943e-15 0.956778 -0.869613 1.3422)
(2.0952 -1.28389e-17 6.78972e-16 0.60111 -0.85342 3.85248)
(2.30286 -3.96531e-17 8.72667e-16 1.22265 -0.575093 4.90862)
(0.637082 -1.48291e-16 -6.84491e-16 0.404481 -0.125633 1.15756)
(0.216351 -1.42827e-16 -2.55704e-16 0.205497 -0.0470957 0.290265)
(0.107848 -2.01299e-16 1.63404e-17 0.154251 -0.0655877 0.119159)
(0.0648173 -1.25865e-16 2.35792e-17 0.113514 -0.0571451 0.0754513)
(0.0369239 8.44382e-18 -1.60208e-17 0.0711871 -0.0392899 0.0462604)
(0.0189305 -1.43005e-17 1.37301e-17 0.03758 -0.0214391 0.0238138)
(0.0115975 -1.26714e-17 6.5631e-18 0.0220581 -0.0126574 0.0138935)
(0.0125325 8.74611e-18 -3.54113e-18 0.0228969 -0.0127653 0.014289)
(0.0219428 -2.84257e-17 1.49252e-17 0.0387146 -0.0203596 0.0244506)
(0.0976716 -1.27102e-16 5.40237e-17 0.17413 -0.0888723 0.108189)
(0.414243 -2.34677e-16 2.32265e-16 0.636128 -0.390037 0.483326)
(0.938793 -1.22103e-15 3.55957e-16 1.40883 -0.723393 0.994281)
(1.07144 1.76187e-15 -1.17611e-15 0.933215 -0.856286 1.32809)
(1.86763 -8.18475e-17 4.7224e-16 0.590003 -0.701273 3.33881)
(1.92945 8.69809e-17 1.28247e-15 1.04492 -0.392526 4.163)
(0.475861 -8.35763e-17 -5.84886e-16 0.302113 -0.080512 0.872081)
(0.158802 -9.03496e-17 -1.76077e-16 0.153392 -0.0322249 0.205643)
(0.0937374 -1.91705e-16 2.22063e-17 0.137748 -0.0583235 0.101315)
(0.062841 -1.13867e-16 2.68616e-17 0.111213 -0.0561774 0.0730002)
(0.0379479 2.84458e-17 -1.5242e-17 0.0729185 -0.0390902 0.0473971)
(0.0197179 -1.70873e-17 1.23864e-17 0.0388841 -0.0209061 0.024741)
(0.0128931 -1.55092e-17 7.32134e-18 0.0244103 -0.013075 0.0155609)
(0.0198641 -4.10086e-18 4.05341e-18 0.0366317 -0.0197943 0.0235082)
(0.0548365 -1.02468e-16 4.72548e-17 0.0978797 -0.0548382 0.0649805)
(0.189632 -2.11309e-16 1.0779e-16 0.325736 -0.180232 0.221226)
(0.515428 -2.85651e-16 2.58927e-16 0.759554 -0.470919 0.608361)
(1.02398 -1.01266e-15 2.34601e-16 1.48728 -0.771499 1.10366)
(1.16692 1.8459e-15 -1.29405e-15 1.03358 -0.953829 1.41705)
(2.40152 -1.37624e-16 7.51479e-16 0.9756 -0.9208 4.18466)
(1.70712 1.20231e-16 1.4243e-15 0.989558 -0.486657 3.63966)
(0.466313 -7.96326e-17 -3.82645e-16 0.3077 -0.129492 0.887513)
(0.249 -9.50686e-17 -1.86554e-16 0.209868 -0.0821978 0.3832)
(0.15205 -2.09968e-16 -1.16007e-18 0.187918 -0.0949148 0.196464)
(0.100129 -1.71055e-16 5.43549e-17 0.173028 -0.0986236 0.117913)
(0.0651404 3.47347e-18 -5.22331e-18 0.130219 -0.0781784 0.0766762)
(0.034773 -1.48762e-17 1.55571e-17 0.0731566 -0.0425876 0.041005)
(0.0181575 -2.18637e-17 1.04275e-17 0.0370068 -0.0179471 0.0209642)
(0.0241374 -9.85825e-18 4.81505e-18 0.0472125 -0.0227995 0.027663)
(0.0613915 -9.76741e-17 3.7804e-17 0.113559 -0.0565744 0.0693593)
(0.172466 -1.73927e-16 8.11762e-17 0.301995 -0.154985 0.189532)
(0.409734 -3.08549e-16 1.99597e-16 0.619666 -0.372282 0.461551)
(0.662002 -1.33559e-16 4.9596e-17 0.933408 -0.520464 0.687691)
(0.698077 1.57111e-15 -6.60929e-16 0.569883 -0.498288 0.805418)
(0.165421 -3.19711e-18 1.1333e-16 0.212741 0.00327132 0.190552)
(0.129934 -1.75017e-17 1.23855e-16 0.15745 0.00998558 0.15234)
(0.124886 -1.0779e-17 1.18156e-16 0.141587 0.00979912 0.162033)
(0.117135 -7.21457e-18 1.27551e-16 0.126441 0.00654386 0.161584)
(0.107671 -4.74334e-18 1.20826e-16 0.11186 0.00162683 0.152113)
(0.0818871 -5.16747e-18 1.30381e-16 0.0829428 -0.00795665 0.111369)
(0.0898324 -8.62906e-18 1.22372e-16 0.0848812 -0.0110068 0.123172)
(0.0936338 -1.4909e-17 1.30097e-16 0.08543 -0.0136402 0.128814)
(0.0948737 -2.85134e-17 1.22504e-16 0.084817 -0.0131047 0.130393)
(0.0866846 -4.02441e-17 1.25967e-16 0.0764132 -0.0156306 0.118227)
(0.0970195 -2.96425e-17 1.11844e-16 0.0831994 -0.016604 0.128179)
(0.102998 -2.54452e-17 1.08219e-16 0.0875327 -0.0181478 0.132992)
(0.105422 -2.52102e-17 1.21936e-16 0.0903546 -0.0232651 0.128544)
(0.118858 -2.02536e-17 1.11096e-16 0.100179 -0.0238323 0.142978)
(0.127468 -2.04726e-17 1.09604e-16 0.106811 -0.0266572 0.151595)
(0.133034 -1.96645e-17 1.02333e-16 0.111579 -0.0265081 0.155212)
(0.130831 -1.99479e-17 1.0953e-16 0.109466 -0.028824 0.144914)
(0.143795 -1.51125e-17 9.44665e-17 0.118003 -0.026028 0.163263)
(0.152318 -1.42519e-17 8.70294e-17 0.12635 -0.024094 0.167998)
(0.156764 -1.45543e-17 9.63686e-17 0.133597 -0.0279168 0.160896)
(0.175377 -1.03278e-17 8.13643e-17 0.151336 -0.0275844 0.172843)
(0.187228 -8.88173e-18 7.53076e-17 0.163233 -0.0299297 0.178598)
(0.195855 -7.1e-18 6.79453e-17 0.172249 -0.0313021 0.181897)
(0.19868 -3.44174e-18 7.49311e-17 0.174647 -0.0384508 0.178737)
(0.216379 5.56362e-19 6.21552e-17 0.194155 -0.0377282 0.183124)
(0.226813 4.31021e-18 5.68169e-17 0.206915 -0.0413079 0.183217)
(0.233465 7.57932e-18 5.18515e-17 0.215146 -0.0418565 0.181688)
(0.232868 8.28872e-18 5.92303e-17 0.216212 -0.0519867 0.170526)
(0.245897 6.27138e-18 5.01804e-17 0.230661 -0.0447509 0.173952)
(0.251938 5.3965e-18 4.67973e-17 0.238245 -0.0440529 0.174093)
(0.25083 5.56962e-18 5.45877e-17 0.238979 -0.0541761 0.166266)
(0.263783 5.40122e-18 4.74122e-17 0.253335 -0.0467559 0.169923)
(0.269574 6.09686e-18 4.67084e-17 0.26034 -0.0478547 0.170407)
(0.272523 6.33929e-18 4.45862e-17 0.264117 -0.0453557 0.169143)
(0.266783 8.43758e-18 5.34184e-17 0.258881 -0.0539752 0.159176)
(0.27617 8.88491e-18 4.74239e-17 0.269068 -0.0408207 0.163761)
(0.278645 9.42734e-18 4.78003e-17 0.27226 -0.039264 0.164256)
(0.271833 1.08742e-17 6.19659e-17 0.265621 -0.0473684 0.157406)
(0.28198 8.85433e-18 5.70877e-17 0.277371 -0.0381627 0.162535)
(0.284346 7.30523e-18 6.05525e-17 0.280396 -0.0381671 0.163383)
(0.284757 4.39377e-18 5.9837e-17 0.281459 -0.0373423 0.162317)
(0.275293 9.59548e-19 7.35033e-17 0.271768 -0.0469665 0.154075)
(0.286017 -2.30508e-19 6.20835e-17 0.285071 -0.0392109 0.159966)
(0.288003 -2.33293e-18 5.97068e-17 0.288036 -0.0402015 0.160917)
(0.287942 -3.98854e-18 5.4509e-17 0.28872 -0.0398477 0.160211)
(0.276777 -6.22966e-18 6.01719e-17 0.276454 -0.0516197 0.154152)
(0.287586 -2.94138e-18 4.5308e-17 0.289875 -0.043884 0.1615)
(0.28948 -1.3651e-18 3.86376e-17 0.294107 -0.0426137 0.159795)
(0.28098 2.9585e-18 3.85909e-17 0.28782 -0.0495573 0.152574)
(0.293302 8.7542e-18 2.72579e-17 0.305198 -0.0377146 0.155358)
(0.295283 1.25731e-17 2.12467e-17 0.31007 -0.0355272 0.154259)
(0.292429 1.29132e-17 1.58083e-17 0.307056 -0.0298324 0.155731)
(0.273402 1.24156e-17 8.30588e-18 0.28625 -0.0285686 0.153959)
(0.29022 7.6799e-19 3.21388e-18 0.304998 -0.0246279 0.159852)
(0.293761 -1.29019e-17 -1.50784e-18 0.310002 -0.0251306 0.161806)
(0.292769 -3.77292e-18 -4.60166e-18 0.310444 -0.0237031 0.162)
(0.279199 1.21118e-17 -1.25865e-17 0.301817 -0.0304079 0.160959)
(0.291073 2.06076e-17 -1.1919e-17 0.312884 -0.0229235 0.159029)
(0.293559 1.86287e-17 -1.33725e-17 0.316563 -0.0222507 0.157829)
(0.287631 -8.37961e-19 -1.76603e-17 0.317638 -0.0349233 0.154467)
(0.293745 -8.17854e-18 -1.25956e-17 0.318507 -0.0239016 0.153723)
(0.293951 -3.39553e-18 -1.02929e-17 0.317994 -0.0241473 0.153278)
(0.290474 2.87375e-17 -7.82838e-18 0.314271 -0.0236824 0.149958)
(0.2752 1.96036e-16 -9.16654e-18 0.302363 -0.0393445 0.141893)
(0.267658 3.64964e-16 -1.72068e-17 0.291626 -0.0267705 0.134154)
(0.259528 3.59999e-16 -2.07891e-17 0.284158 -0.0280948 0.12929)
(0.234391 3.47035e-16 -2.85646e-17 0.262541 -0.0469598 0.118671)
(0.213905 1.3916e-16 -1.44696e-17 0.24096 -0.032678 0.105127)
(0.200039 9.05647e-17 -1.38715e-17 0.228748 -0.0346737 0.0984005)
(0.182638 7.01822e-17 -1.56544e-17 0.212847 -0.0359759 0.09114)
(0.147257 7.3307e-17 -3.42215e-17 0.180886 -0.0610573 0.0808499)
(0.124898 4.63744e-17 -2.54295e-17 0.158889 -0.0497553 0.0739485)
(0.113991 4.67284e-17 -3.03911e-17 0.148293 -0.0578899 0.0744892)
(0.106079 4.91295e-17 -3.17286e-17 0.141227 -0.0686236 0.0795334)
(0.101229 6.42468e-17 -4.46389e-17 0.138479 -0.109671 0.0938319)
(0.102005 6.09594e-17 -3.31459e-17 0.139652 -0.101689 0.104675)
(0.107503 7.09859e-17 -3.64142e-17 0.146073 -0.118401 0.117436)
(0.121636 8.94311e-17 -4.3262e-17 0.161936 -0.157327 0.139513)
(0.130662 8.48949e-17 -3.3377e-17 0.170201 -0.144041 0.155434)
(0.141106 9.27772e-17 -3.74069e-17 0.181386 -0.161339 0.171439)
(0.157347 8.92433e-17 -3.36707e-17 0.199117 -0.171075 0.19364)
(0.161807 5.62701e-17 -1.80125e-17 0.207763 -0.17126 0.198007)
(0.159346 1.63224e-17 -2.69449e-18 0.20993 -0.169596 0.195877)
(0.14761 -4.69297e-17 1.65748e-17 0.202504 -0.159356 0.182286)
(0.163653 -6.34035e-17 1.51521e-17 0.228238 -0.171434 0.200736)
(0.15444 -1.14606e-16 4.42496e-17 0.224394 -0.164827 0.190659)
(0.146283 -1.38801e-16 5.74565e-17 0.215591 -0.156873 0.179583)
(0.13992 -1.41376e-16 5.90013e-17 0.208709 -0.150794 0.172396)
(0.132491 -1.39272e-16 5.82082e-17 0.199775 -0.143824 0.164615)
(0.1237 -1.36452e-16 5.73163e-17 0.188905 -0.13548 0.155497)
(0.112527 -1.30418e-16 5.428e-17 0.174251 -0.124468 0.14319)
(0.0989303 -1.18568e-16 4.71836e-17 0.154669 -0.110235 0.126915)
(0.0848362 -9.94531e-17 3.58859e-17 0.133239 -0.0938079 0.109033)
(0.08623 -9.91857e-17 3.39711e-17 0.137269 -0.0905084 0.111685)
(0.0782026 -9.2085e-17 3.08764e-17 0.124787 -0.0822668 0.103308)
(0.0701929 -8.42857e-17 2.69312e-17 0.112661 -0.0735685 0.0936039)
(0.0609387 -7.73086e-17 2.2652e-17 0.0990955 -0.0636038 0.0815724)
(0.0574946 -7.31164e-17 2.10382e-17 0.0929979 -0.0592011 0.076639)
(0.0551557 -6.82496e-17 1.99553e-17 0.0888803 -0.0563575 0.0741161)
(0.0517547 -6.24681e-17 1.86301e-17 0.0826726 -0.0526708 0.0703187)
(0.0469103 -5.52274e-17 1.7028e-17 0.073441 -0.0480343 0.0650757)
(0.0398109 -4.50803e-17 1.40098e-17 0.0604073 -0.0414754 0.0572162)
(0.0392999 -3.95568e-17 1.20472e-17 0.0594666 -0.0392451 0.0571428)
(0.0390924 -3.73562e-17 1.1872e-17 0.058354 -0.0390445 0.0574457)
(0.0387218 -3.49623e-17 1.14171e-17 0.0570892 -0.0385929 0.0571531)
(0.038337 -3.24732e-17 1.09348e-17 0.0558621 -0.0381822 0.0568858)
(0.0376726 -2.95812e-17 1.00951e-17 0.0541502 -0.037474 0.056118)
(0.0372929 -2.74141e-17 9.09099e-18 0.052972 -0.0368969 0.0554933)
(0.0384163 -2.81101e-17 8.98014e-18 0.0545148 -0.0375474 0.0568293)
(0.0399892 -2.93164e-17 9.31802e-18 0.0567757 -0.038535 0.0589744)
(0.0413679 -3.03613e-17 9.5548e-18 0.0581488 -0.0392707 0.0609505)
(0.043154 -3.1556e-17 9.74444e-18 0.0599718 -0.0400251 0.063411)
(0.0453262 -3.5241e-17 8.97084e-18 0.0625198 -0.0414789 0.0676996)
(0.0472991 -3.59417e-17 9.42482e-18 0.065018 -0.0428387 0.0706614)
(0.049432 -3.6198e-17 9.50228e-18 0.0678457 -0.0439605 0.0734723)
(0.0518626 -3.65186e-17 9.71199e-18 0.0709868 -0.0451311 0.0767115)
(0.0546756 -3.67381e-17 9.79381e-18 0.0747596 -0.0462237 0.0803425)
(0.0579083 -3.60558e-17 9.04843e-18 0.0793991 -0.0469904 0.0841987)
(0.0611957 -3.5709e-17 8.09539e-18 0.0837267 -0.0468802 0.088105)
(0.0646179 -3.70792e-17 8.16616e-18 0.0871501 -0.0464297 0.0926989)
(0.0690306 -3.95907e-17 8.71938e-18 0.0911698 -0.0460796 0.098841)
(0.0752368 -4.51021e-17 7.96819e-18 0.0978383 -0.0492883 0.110233)
(0.0789206 -4.75547e-17 8.30958e-18 0.101417 -0.0497176 0.115465)
(0.082422 -5.15033e-17 8.7542e-18 0.104212 -0.0486753 0.119869)
(0.0856503 -5.57654e-17 9.50987e-18 0.105513 -0.0467855 0.124541)
(0.0896501 -5.97148e-17 1.03317e-17 0.107453 -0.0449263 0.130663)
(0.0944933 -6.43003e-17 1.13084e-17 0.110245 -0.0427852 0.138083)
(0.100501 -6.95539e-17 1.24626e-17 0.114351 -0.0403811 0.147307)
(0.106725 -7.56719e-17 1.37614e-17 0.116481 -0.0367077 0.157347)
(0.112415 -6.96974e-17 1.34305e-17 0.115847 -0.0316175 0.168439)
(0.127129 -7.89986e-17 2.34742e-17 0.126039 -0.0374299 0.196702)
(0.13372 -7.63278e-17 2.41223e-17 0.127545 -0.035551 0.209765)
(0.142299 -7.24724e-17 2.45087e-17 0.130548 -0.033407 0.2263)
(0.152036 -6.66187e-17 2.44201e-17 0.132616 -0.0303881 0.245758)
(0.162221 -5.85326e-17 2.68119e-17 0.135249 -0.0269339 0.267181)
(0.174222 -5.06316e-17 3.15124e-17 0.140198 -0.0240658 0.292903)
(0.189166 -4.19544e-17 3.69105e-17 0.147363 -0.0212845 0.32497)
(0.207776 -3.18664e-17 4.2904e-17 0.156772 -0.0184352 0.36512)
(0.232843 -1.85386e-17 5.03407e-17 0.170736 -0.0169771 0.419064)
(0.283881 -1.66877e-17 7.42134e-17 0.197758 -0.0234694 0.52087)
(0.305184 -1.3218e-17 9.04446e-17 0.208966 -0.0228094 0.567921)
(0.332609 -8.97639e-18 1.08215e-16 0.224398 -0.0249174 0.628027)
(0.363574 -3.41741e-18 1.28262e-16 0.238641 -0.0271533 0.697657)
(0.400342 4.23949e-18 1.5089e-16 0.255998 -0.0308653 0.780218)
(0.443548 1.77208e-17 1.76006e-16 0.276294 -0.0368847 0.877197)
(0.478246 2.98316e-17 2.0838e-16 0.2933 -0.0404004 0.95401)
(0.518514 3.78278e-17 2.47895e-16 0.316037 -0.0438498 1.04113)
(0.569245 4.77491e-17 2.95648e-16 0.354374 -0.0496738 1.14483)
(0.632989 6.16562e-17 3.62989e-16 0.40548 -0.0647021 1.27024)
(0.801524 1.30337e-16 5.28888e-16 0.454488 -0.097814 1.60482)
(0.826468 1.44183e-16 5.19636e-16 0.473285 -0.085588 1.65327)
(0.836998 1.42732e-16 4.68314e-16 0.490264 -0.0827689 1.66798)
(0.83001 1.31413e-16 4.00078e-16 0.477294 -0.0703104 1.64904)
(0.805647 1.11805e-16 3.1281e-16 0.441422 -0.0640421 1.58849)
(0.753186 6.34601e-17 2.0029e-16 0.37138 -0.0760606 1.45647)
(0.679553 -2.74235e-18 1.06661e-16 0.317944 -0.0997846 1.27598)
(0.616954 -2.89844e-17 8.22417e-17 0.30809 -0.104989 1.14942)
(0.486369 -1.03249e-17 5.6398e-17 0.279698 -0.0620545 0.922222)
(0.413634 -2.19649e-17 7.30012e-17 0.15284 -0.0681053 0.699501)
(0.277802 -1.52004e-17 4.7528e-17 0.100918 -0.0335284 0.45561)
(0.0679138 4.12677e-18 1.34382e-17 0.0416843 0.0134356 0.0832615)
(0.0476988 6.42293e-18 1.1274e-17 0.036556 0.0106576 0.0462401)
(0.0417143 5.86593e-18 1.15546e-17 0.036614 0.0144962 0.0284462)
(0.0456639 5.50396e-18 1.3774e-17 0.0422114 0.0148362 0.0268159)
(0.0450796 4.68109e-18 1.55573e-17 0.0416601 0.0168588 0.026257)
(0.047272 3.45282e-18 1.47991e-17 0.0431426 0.0154132 0.0269303)
(0.0466293 3.5648e-18 1.40799e-17 0.042372 0.01675 0.0281858)
(0.0480528 2.86055e-18 1.4461e-17 0.0424461 0.015804 0.0303925)
(0.0503034 2.03659e-18 1.51327e-17 0.0465977 0.0153035 0.0258547)
(0.0495634 7.08788e-19 1.54783e-17 0.04699 0.0169632 0.0243279)
(0.049902 -6.8289e-19 1.50646e-17 0.0469981 0.0162564 0.0242406)
(0.0499703 -8.68339e-19 1.42339e-17 0.0466024 0.0155456 0.0238933)
(0.0476211 -1.51998e-18 1.26749e-17 0.0437509 0.0175924 0.0230162)
(0.0479973 -9.12494e-19 7.59388e-18 0.0442091 0.0149531 0.0233759)
(0.0462589 -1.49818e-18 5.13929e-18 0.0432104 0.0158325 0.022902)
(0.0455369 -2.27305e-18 2.78079e-18 0.0419753 0.015019 0.0231554)
(0.0446366 -1.91278e-18 4.05123e-18 0.040559 0.0136948 0.0229371)
(0.041618 -1.44866e-18 3.90839e-18 0.03716 0.0151064 0.022111)
(0.0415811 2.16757e-19 4.50357e-18 0.037376 0.0124819 0.0218443)
(0.0391604 -9.31341e-19 5.34068e-18 0.0355996 0.0128669 0.0206427)
(0.03835 -1.27424e-18 6.8424e-18 0.0341495 0.0122296 0.0206422)
(0.0387879 -1.1743e-18 8.6171e-18 0.0351415 0.0117348 0.0206283)
(0.0365615 -1.65797e-18 9.41516e-18 0.0339403 0.0125126 0.0195867)
(0.035923 -2.1916e-18 9.62553e-18 0.0330717 0.0120468 0.0195529)
(0.0355909 -1.99042e-18 9.19407e-18 0.032227 0.0109839 0.0195437)
(0.032338 -2.09966e-18 8.98818e-18 0.0287142 0.0120509 0.0183122)
(0.0328918 -2.24864e-18 7.95613e-18 0.0295913 0.0102851 0.0185263)
(0.0304277 -1.2054e-18 6.06681e-18 0.0280467 0.0106368 0.0174757)
(0.0298871 -5.6223e-19 4.45426e-18 0.0272886 0.0102733 0.0175132)
(0.0297066 -6.84751e-19 5.54258e-18 0.026509 0.00909704 0.0179053)
(0.0262427 -6.85711e-19 6.04654e-18 0.022812 0.00975856 0.0166906)
(0.0267544 -4.32865e-19 6.38159e-18 0.0234095 0.00777165 0.0169373)
(0.0240273 -9.02389e-20 5.98208e-18 0.0217734 0.00751347 0.0155842)
(0.0237174 2.33648e-19 6.49569e-18 0.0207433 0.00703462 0.0160697)
(0.0248818 5.08426e-20 7.54111e-18 0.020859 0.00693822 0.0182043)
(0.0217895 -8.82924e-20 8.03105e-18 0.0177543 0.00718622 0.0186371)
(0.0229062 2.40587e-19 8.6996e-18 0.0207043 0.00709331 0.0158673)
(0.0247492 3.75135e-19 9.36055e-18 0.0221198 0.0057055 0.0159979)
(0.0211941 -4.31293e-20 9.82012e-18 0.0186708 0.00603003 0.0140286)
(0.0231123 -8.51617e-19 8.75862e-18 0.0196789 0.00523929 0.0151904)
(0.0203133 -2.17641e-18 7.46346e-18 0.0181392 0.00582109 0.0139663)
(0.0216625 -2.63697e-18 6.73544e-18 0.0205037 0.0055904 0.0151354)
(0.0246918 -2.05025e-18 6.78959e-18 0.0231359 0.00488364 0.0164624)
(0.0229403 -9.93012e-19 7.33548e-18 0.0214443 0.00542683 0.015314)
(0.0238779 3.34421e-19 7.15514e-18 0.0207191 0.00488281 0.0164492)
(0.0208754 7.17102e-19 6.72212e-18 0.0179119 0.00583967 0.0156631)
(0.0205284 1.41954e-18 6.33102e-18 0.0182059 0.00645411 0.0150381)
(0.0220234 1.79828e-18 6.47275e-18 0.0181807 0.00429239 0.0163794)
(0.0199328 2.57487e-18 4.89017e-18 0.0159125 0.00458456 0.0160486)
(0.0198571 3.4385e-18 4.7505e-18 0.0155206 0.00396533 0.0164798)
(0.0229731 3.09491e-18 5.50399e-18 0.0181764 0.00304723 0.0194187)
(0.0236087 2.42145e-18 6.27414e-18 0.0195969 0.00345887 0.0188902)
(0.0256245 7.82715e-20 5.01998e-18 0.0200521 0.00255394 0.0204173)
(0.0245736 -3.18926e-18 5.43011e-18 0.0186296 0.00290422 0.0201162)
(0.0243449 -6.71057e-18 8.08959e-18 0.0173576 0.00238559 0.0214733)
(0.0266822 -1.08388e-17 6.2723e-18 0.0185037 0.00167182 0.0237525)
(0.0275024 -3.8798e-18 6.04502e-18 0.0204972 0.00224119 0.0232908)
(0.0294594 -2.13589e-18 7.06787e-18 0.0210065 0.000926016 0.0249397)