/*--------------------------------*- C++ -*----------------------------------*\
| =========                 |                                                 |
| \\      /  F ield         | OpenFOAM: The Open Source CFD Toolbox           |
|  \\    /   O peration     | Version:  4.1                                   |
|   \\  /    A nd           | Web:      www.OpenFOAM.org                      |
|    \\/     M anipulation  |                                                 |
\*---------------------------------------------------------------------------*/
FoamFile
{
    version     2.0;
    format      ascii;
    class       volScalarField;
    location    "30";
    object      nut;
}
// * * * * * * * * * * * * * * * * * * * * * * * * * * * * * * * * * * * * * //

dimensions      [0 2 -1 0 0 0 0];

internalField   nonuniform List<scalar> 
6785
(
0.270463
1.04936e-08
9.79646e-09
9.79652e-09
9.79783e-09
9.79562e-09
9.79682e-09
9.79786e-09
9.79567e-09
9.7969e-09
9.79783e-09
9.79487e-09
9.82026e-09
4.6837e-08
0.303875
0.305805
1.01506e-05
6.07901e-11
5.68169e-11
5.41774e-11
5.14488e-11
4.88233e-11
4.61945e-11
4.34874e-11
4.06426e-11
3.77345e-11
5.49795e-11
3.25411e-07
0.000334818
0.159087
0.340644
0.00106546
3.70428e-11
1.04367e-11
1.26947e-09
1.1328e-08
3.81472e-08
1.06125e-07
4.47098e-07
2.22031e-06
1.35118e-05
7.62484e-05
0.000492737
0.0069405
0.0500273
0.379022
0.00957296
5.57013e-05
1.48571e-07
4.31346e-08
2.90761e-07
1.62075e-06
5.5075e-06
1.19182e-05
2.74002e-05
2.11808e-05
9.1906e-05
0.000524666
0.00510822
0.0358861
0.413766
0.0113555
0.000121878
1.11291e-06
2.28121e-06
9.48876e-05
0.328638
0.011304
0.02422
0.0696258
0.00908609
0.00502203
0.00221673
0.00335056
0.0426167
0.446113
0.00850167
1.53454e-05
0.000486941
0.0398442
0.37607
1.42988
2.90345
4.93483
2.6222
0.13841
0.00387641
0.00251244
0.00159005
0.0613413
0.477613
0.00732669
1.61546e-05
0.00164909
0.364417
2.64395
2.79627
2.01741
2.04362
3.12341
0.377131
0.0207515
0.0230751
0.0233283
0.079246
0.5022
0.0608807
0.000478301
0.00228557
0.235272
0.39015
0.606898
0.738937
0.650686
0.50802
0.343848
0.198152
0.119942
0.0617976
0.0773171
0.515104
0.216201
0.0874574
0.00578294
0.0616757
0.148001
0.150921
0.0744305
0.0849774
0.159998
0.209044
0.0616747
0.061552
0.00751506
0.057019
0.516206
0.347512
0.109938
0.041287
0.0116115
0.0161761
0.0309005
0.0443779
0.0600551
0.102836
0.144081
0.0477632
0.016482
0.00772047
0.0479729
0.509801
0.411656
0.651829
0.0481731
0.0100745
0.0114603
0.0264213
0.0442352
0.0533237
0.0750726
0.0708629
0.0319483
0.0133166
0.0133266
0.04821
0.500673
0.506219
0.494121
0.140826
0.0164147
0.0113294
0.020063
0.0364109
0.0535523
0.0652314
0.0379073
0.011477
0.00367708
0.00443884
0.0460724
0.493737
0.325718
0.222544
0.133855
0.0381659
0.0172616
0.0194758
0.0400581
0.0517792
0.0555073
0.0387692
0.0124166
0.00322205
0.00290044
0.0506874
0.474638
0.281675
0.131861
0.121936
0.0430775
0.017213
0.0194268
0.0281161
0.0530035
0.0842833
0.0363222
0.0149509
0.00374245
0.00279914
0.0742076
0.50331
3.07606
1.22717
0.567431
0.0522305
6.76444e-27
0.013072
0.169115
0.415468
0.350666
0.0134235
0.00217
0.000368168
0.00486575
0.0732611
2.87937
5.07994
2.75183
2.72561
2.70367
4.84449
2.64121
2.62681
2.61358
4.70467
2.57126
2.56093
4.616
2.52494
2.51621
2.50696
4.52456
2.47463
2.4677
4.4632
2.44647
2.44338
2.44169
4.43754
2.42896
2.42621
2.42697
4.42548
2.41568
2.41129
4.39147
2.38121
2.36891
2.36362
4.31534
2.33541
2.32387
4.23507
2.27636
2.256
2.2441
4.10206
2.21108
2.19904
2.19772
4.06622
2.192
2.18312
4.02914
2.14498
2.12041
2.10646
3.89584
2.06115
2.03609
2.02143
3.7693
1.98252
1.96277
3.67427
1.89687
1.86671
1.84982
3.50546
1.78971
1.76818
3.36537
1.71379
1.69548
1.69236
3.21868
1.73283
1.74913
1.77073
3.30074
1.81605
1.8329
3.34552
1.84442
1.85478
1.87412
1.62204
1.56614
1.40807
1.06186
0.923343
0.709806
0.535331
0.437616
0.385581
0.405933
0.386787
0.409205
0.317745
0.291763
0.273857
0.280374
0.304618
0.325203
0.329126
0.327961
0.314214
0.253739
0.255555
0.252899
0.252888
0.235163
0.219874
0.207109
0.184056
0.178448
0.169068
0.148149
0.145709
0.138474
0.127279
0.120599
0.114836
0.111823
0.108046
0.107886
0.101616
0.100003
0.0952262
0.0918319
0.0938306
0.0966341
0.0949424
0.0959199
0.113147
0.139186
0.163733
0.217257
0.231808
0.280986
0.285873
0.34038
0.364996
0.280203
0.327332
0.342556
0.411022
0.438287
0.435294
0.390214
0.332569
0.44525
0.444068
0.443058
0.520608
0.534889
0.351315
0.473452
0.45272
0.371207
0.279571
0.232989
0.224057
0.155739
0.10863
2.04442
3.37424
3.45309
2.1909
3.62172
2.2999
3.80849
3.89836
2.4727
4.08417
4.17856
2.65225
4.38153
2.79149
4.62448
4.75711
3.03873
5.03286
3.20368
5.32199
5.48702
3.48811
5.80932
5.93806
3.68224
6.17394
3.78841
6.40557
6.49132
3.89456
6.40933
3.87009
6.40274
6.4837
3.91257
6.39991
6.40578
3.85706
6.20341
3.74317
6.00577
5.93682
3.57587
5.73178
3.46316
5.71037
6.19018
3.77535
7.39219
7.6723
4.59298
7.03768
4.23123
6.54396
6.36223
3.82455
6.00913
3.62073
5.714
5.57163
3.35529
5.29295
5.13114
2.85914
2.268
0.89739
1.41317
1.41153
0.868993
1.4041
0.870049
1.40593
1.40046
0.868561
1.40356
1.39819
0.866874
1.40089
0.861737
1.39862
16.3741
18.3187
18.7087
18.9844
19.6979
19.9503
19.8039
21.3509
22.7255
24.368
25.8858
28.81
31.6316
34.4111
37.0819
39.6407
41.6902
42.4022
40.6325
38.7009
36.1729
34.6317
37.4295
45.023
53.9287
64.379
72.4032
77.4155
81.7868
83.4254
83.3228
74.5068
69.384
64.7423
62.1257
64.7669
70.4199
73.8437
82.9311
89.6417
97.6726
103.441
99.2799
84.5202
68.4719
59.6119
54.9758
48.7036
42.044
33.7744
27.6171
23.594
20.2298
18.219
17.4197
18.5946
20.2845
19.9551
19.2425
19.4387
20.7564
23.7906
28.0694
31.882
37.4971
41.0248
44.9229
47.742
47.8417
44.2772
38.3082
28.3571
19.2428
12.6261
8.73403
8.25421
8.73486
3.36499
1.9052
17.2739
19.3946
19.5813
19.9709
20.9773
21.9348
20.8018
22.5336
24.5146
25.9423
27.0221
30.0823
33.5899
36.3284
39.1439
41.8965
44.3419
45.8349
42.7094
41.8351
40.3788
37.3732
38.7191
46.1102
55.8064
66.798
75.9544
80.3217
86.3318
85.8663
87.9138
82.1322
75.547
70.5641
66.825
68.4558
74.1309
75.5104
85.0049
92.0023
99.8463
108.697
106.084
91.4374
71.9114
62.4193
58.5158
50.031
43.3631
35.0166
27.6603
23.0845
19.3068
17.098
16.2973
16.5096
17.5484
18.3141
18.2915
18.1056
18.6771
19.7787
22.1142
24.7765
28.1787
31.4023
35.0091
37.0026
38.0611
36.4247
31.9538
24.5495
16.8573
11.2027
7.81624
7.15252
7.28317
2.95811
1.90798
18.3664
20.4297
20.546
20.9983
22.9744
22.0526
22.2057
24.2575
24.7154
26.4707
28.7915
31.9808
33.743
36.5412
39.306
42.0421
44.5285
46.2286
44.9444
45.1914
40.3931
36.8782
41.5608
47.4314
57.9741
70.4406
81.4897
84.1907
89.5928
89.9703
94.3899
81.7191
74.4325
69.6916
66.2234
67.5292
73.7308
80.2031
88.7222
97.3025
104.589
112.008
109.492
94.3943
77.1835
65.8151
59.2172
51.7099
45.4849
34.9355
27.0784
22.1642
18.7363
16.2068
15.0237
15.254
16.3285
17.1722
17.0786
16.9936
17.3143
18.0327
19.2067
21.1878
23.4899
25.7914
29.1406
31.6553
31.9285
31.1041
28.186
21.0707
15.0519
10.0488
7.08305
6.56556
6.46376
2.74439
1.90795
19.6718
21.8573
21.9263
22.3228
23.8165
23.7862
24.3441
24.9683
26.1742
28.1631
30.541
32.7402
35.3814
38.2539
41.0524
43.8003
46.5304
49.2105
47.7474
46.2836
40.8856
38.2699
42.6094
49.7827
60.467
73.0977
85.1529
88.7864
91.3939
93.1237
91.5104
81.8884
80.316
75.3376
65.4663
66.6241
77.3958
79.4693
93.5586
104.649
109.223
112.607
110.948
101.749
83.2086
70.3859
63.4052
53.3422
46.0416
36.2407
26.9707
21.5219
17.8409
15.503
14.5423
15.2167
15.3778
15.9957
15.9704
15.715
15.7368
16.098
16.878
18.3743
20.7079
22.8626
25.7587
26.8285
28.7256
28.1043
24.9369
18.8489
13.4108
9.10485
6.41262
6.13435
5.76968
2.59697
1.90083
21.6128
23.5443
23.5797
23.7571
23.6795
23.8697
24.0408
25.1979
26.5289
28.275
30.4197
32.9659
35.6693
38.4049
41.1317
43.7572
46.4572
49.4832
51.5352
46.8525
43.4578
42.1948
43.0523
51.1965
62.0722
75.8343
88.1598
95.6861
94.6463
96.2475
89.9326
85.0667
78.208
73.5766
68.1797
68.6039
78.2578
83.2784
98.1765
105.05
111.909
115.525
113.997
104.287
89.4998
74.6693
62.8482
55.0341
46.2563
35.8417
26.9568
20.8712
16.9977
14.8892
13.9797
14.8631
15.2637
15.2161
15.1289
14.7084
14.4637
14.7066
15.2817
16.3353
17.9433
19.688
22.0532
23.8911
25.2253
25.8837
21.894
16.7549
12.1019
8.15259
5.72937
5.81263
5.23875
2.53349
1.92305
21.4405
23.5525
23.4103
23.6839
23.8819
24.0008
24.4001
25.3735
26.648
28.5372
30.7923
33.2061
35.8076
38.5171
41.1743
43.6707
46.2205
49.3901
51.7631
51.2879
46.3873
42.3906
43.2072
50.4576
62.7813
77.4345
90.6716
97.6203
99.2998
100.773
93.9486
90.3355
83.1712
78.5845
72.0443
71.7919
85.8349
87.386
99.4902
107.435
113.771
117.866
116.311
106.819
91.6358
76.2237
63.9951
54.4619
45.029
35.2189
26.3432
20.117
16.236
14.2641
13.438
13.5601
14.3691
14.2901
14.5004
13.8408
13.5943
13.679
14.0956
14.7456
16.3234
17.9934
20.9255
22.1797
24.1537
23.5939
19.7295
15.1695
10.813
7.25544
5.20726
5.63541
4.81914
2.48031
1.93024
21.5486
23.7249
23.5343
23.8626
24.0576
24.2994
24.634
25.6881
27.0273
28.8781
31.092
33.5311
36.1238
38.8118
41.4465
43.8342
46.1308
49.2664
52.316
51.3233
51.0802
44.9945
46.446
50.2101
63.6586
78.7222
92.0618
99.9062
107.043
106.203
98.1946
97.3029
89.7874
85.6824
76.3075
74.0938
86.6516
93.4606
100.623
109.493
116.455
120.508
119.124
109.505
93.9051
77.9799
64.5689
54.3601
44.5758
34.2253
25.2875
19.1013
15.6249
13.7516
13.1593
13.8582
14.7717
14.1301
13.862
13.0725
13.1626
13.078
13.4671
14.0981
15.4678
17.3844
19.6074
21.3503
22.4655
21.3837
17.7248
13.5318
9.68054
6.49318
4.77792
5.43036
4.43206
2.45952
1.9883
21.4846
23.7892
23.5751
23.9982
24.2538
24.5275
24.922
25.9413
27.288
29.1806
31.4194
33.8649
36.4503
39.1366
41.795
44.1208
46.0606
48.9332
52.5411
51.9435
51.6405
48.021
47.904
51.0686
63.5773
80.1776
93.1175
100.827
106.673
103.957
92.7035
95.675
87.5047
84.3736
76.7194
73.3572
91.4331
93.8314
102.292
111.494
118.876
123.159
121.768
112.074
96.2927
79.7571
65.5669
54.413
44.0768
33.7599
24.8521
18.5361
15.0183
13.2381
13.0263
14.1127
13.3154
13.8804
13.1815
12.4305
12.6094
12.7678
12.9956
13.7621
15.0464
16.8663
18.7743
20.378
21.2754
19.2458
15.6502
12.0311
8.29069
5.84621
4.49376
5.29979
4.18199
2.45956
2.01424
21.4131
23.7995
23.6421
24.1734
24.494
24.8283
25.2273
26.2495
27.6231
29.5157
31.7512
34.1987
36.7929
39.5113
42.2395
44.6231
46.2604
48.6804
52.6719
52.1999
52.4147
52.1492
48.1253
53.4
65.3639
81.7255
93.5769
100.95
106.756
101.54
85.9898
94.4656
85.7729
83.597
86.1077
78.3293
91.0607
95.4498
103.679
113.6
121.462
125.853
124.537
114.729
98.594
81.5289
66.5129
54.5508
43.7657
33.1427
24.1233
17.8612
14.6008
12.8795
13.1357
13.1867
13.1207
12.9829
12.7668
12.1778
12.6126
13.3275
13.8285
15.0228
16.9828
18.7052
20.0353
20.7973
19.8897
17.8201
14.3998
10.874
7.51045
5.34273
4.29296
5.14146
3.90116
2.46244
2.14123
21.3108
23.7661
23.6756
24.3616
24.7594
25.1408
25.5598
26.5583
27.945
29.8529
32.0892
34.5453
37.1487
39.8983
42.7398
45.3531
47.3527
49.8932
52.7681
52.5743
52.907
52.2941
51.4231
55.8063
67.6193
83.6367
93.3648
100.264
105.517
100.25
81.7247
91.9985
83.1281
79.9982
85.8066
78.6567
91.9543
96.5584
105.202
115.561
124.011
128.549
127.236
117.295
100.897
83.2958
67.5485
54.8181
43.5673
32.8617
23.8226
17.4675
14.106
12.4853
12.2866
12.946
12.499
12.3553
11.9716
11.9333
11.793
12.8791
13.1096
14.843
15.9815
17.1999
18.4996
19.5526
18.6272
16.3362
13.1279
9.55062
6.83709
4.97799
4.19363
5.06942
3.80756
2.55688
2.40158
21.2009
23.7126
23.6984
24.5562
25.0582
25.4864
25.9158
26.8919
28.2895
30.2004
32.4307
34.8866
37.5
40.2806
43.216
46.0296
48.2183
50.5558
53.4718
52.8437
53.6264
53.6525
52.2352
59.5757
69.7128
85.0917
92.5177
98.7711
101.707
101.157
83.8771
89.1459
80.2332
76.0796
88.1345
85.2235
91.7455
97.845
106.614
117.497
126.519
131.22
129.898
119.797
103.099
85.0189
68.5751
55.1533
43.4634
32.5476
23.4211
17.1784
13.8376
12.2338
12.9156
13.7698
12.4188
11.4647
11.4268
11.1511
11.4419
12.6665
12.6895
14.7032
15.4218
17.0874
17.9938
18.6813
17.3653
14.8941
11.8376
8.58876
6.28404
4.6791
4.13394
4.96867
3.6888
2.79783
2.41488
21.0886
23.6383
23.707
24.7566
25.3807
25.8567
26.2988
27.2442
28.6463
30.5606
32.7831
35.2368
37.8539
40.6528
43.6634
46.6698
49.1705
51.4042
53.5994
53.2981
54.1917
54.4186
52.9504
61.6762
72.786
86.5606
92.6972
97.4901
100.029
99.2443
85.2997
86.2421
78.5964
74.166
85.8791
85.5651
92.6188
98.7827
108.006
119.296
128.933
133.816
132.441
122.157
105.168
86.6398
69.5777
55.5328
43.4526
32.4032
23.1256
17.0977
13.604
11.7851
11.5059
13.4039
11.8331
10.7485
10.4929
10.3043
10.3725
10.9301
11.2303
12.2577
13.3884
15.4419
17.3041
17.5164
16.018
13.7526
10.9323
8.02683
5.89574
4.46437
4.25979
4.98718
3.65455
2.97942
2.42836
20.9932
23.58
23.7104
24.958
25.7231
26.2474
26.7027
27.6163
29.018
30.9311
33.1461
35.5913
38.2037
41.0046
44.0531
47.2085
50.0377
52.1777
53.5319
53.7272
54.8966
56.6589
55.8898
64.0384
75.1934
91.2295
96.898
100.127
105.318
104.525
85.8717
82.6495
78.1928
76.6488
83.5626
91.2237
92.8741
99.7043
109.245
120.961
131.189
136.292
134.828
124.339
107.054
88.1197
70.5038
55.9189
43.5131
32.4288
23.164
16.9737
13.5457
11.6059
11.1104
12.179
11.9336
10.4478
10.0153
9.70872
9.96978
10.4992
10.7358
11.806
12.2503
14.1917
16.3353
16.2646
14.8515
12.7957
10.205
7.51379
5.52201
4.24895
4.34527
4.77542
3.70416
3.13927
2.39938
20.91
23.5249
23.7237
25.1586
26.0788
26.6532
27.1268
28.0019
29.4007
31.3151
33.5246
35.9577
38.5533
41.3313
44.3581
47.5266
50.4461
52.6185
53.8116
54.022
55.2782
56.9765
58.1747
65.8201
77.4442
94.036
102.953
103.537
103.03
102.243
91.3381
77.2404
74.4817
75.651
80.2296
90.1679
93.4836
100.402
110.337
122.425
133.233
138.585
136.993
126.276
108.691
89.3929
71.3047
56.2543
43.5613
32.5065
23.3299
17.0905
13.485
11.5619
10.7955
11.841
10.9156
9.98549
9.15637
9.0465
9.12807
9.3693
9.80542
11.1547
12.1421
14.8399
15.5566
15.3383
13.864
11.9231
9.47769
7.04792
5.21721
4.12502
4.60189
4.9559
3.75831
3.07627
2.24244
20.8593
23.4924
23.7434
25.3581
26.439
27.0624
27.5637
28.4006
29.7938
31.7125
33.9202
36.3379
38.9043
41.6364
44.5972
47.7085
50.6401
52.8826
54.0157
54.4241
55.9716
58.5016
60.9792
67.6212
79.5025
95.4715
104.475
106.608
104.357
98.0379
82.0328
72.8011
72.6561
77.7292
79.1708
89.6635
93.7356
100.977
111.213
123.649
134.997
140.634
138.88
127.914
110.02
90.3961
71.9231
56.5139
43.6261
32.6654
23.6151
17.3129
13.611
11.5844
10.7161
10.8176
10.8111
9.74916
8.83724
8.37704
8.7421
8.95105
9.60898
10.8491
11.8608
13.6164
14.6797
14.2178
12.8476
11.1845
8.87226
6.58906
4.96336
4.06573
4.77509
4.80483
3.86185
2.90122
2.04125
20.8357
23.4816
23.779
25.5541
26.7982
27.4634
28.0079
28.8109
30.199
32.1253
34.3354
36.736
39.2607
41.9214
44.773
47.7663
50.6434
52.9852
54.2816
54.7364
56.4903
59.4308
64.5857
70.6452
81.6005
94.9195
103.756
109.606
105.227
94.4182
79.0324
71.0993
70.753
80.166
84.4861
88.4391
93.7973
101.361
111.849
124.578
136.421
142.364
140.424
129.19
110.977
91.0707
72.3039
56.6483
43.6779
32.9062
24.0445
17.6958
13.8476
11.7336
10.7636
10.672
10.0741
9.438
8.76151
7.96985
7.91742
8.03206
8.35571
9.2802
10.838
12.1037
14.2161
13.3508
12.1744
10.4548
8.09838
6.22244
4.70403
4.00961
5.00961
4.52601
3.64747
2.53886
1.82293
20.8476
23.5005
23.8257
25.7554
27.1612
27.8449
28.4497
29.2325
30.6179
32.5545
34.7715
37.1547
39.6254
42.1856
44.8748
47.6803
50.4533
52.9174
54.482
55.1047
57.0146
60.258
65.7328
74.0093
85.1645
94.2228
102.202
108.811
115.084
103.564
82.8231
77.1406
67.1483
74.9469
83.6873
88.1951
93.4758
101.53
112.205
125.166
137.442
143.706
141.565
130.041
111.503
91.355
72.3916
56.6171
43.6992
33.2337
24.6166
18.2126
14.2115
12.038
11.0135
10.4512
10.1368
9.00394
8.52953
7.9199
7.62361
7.73746
8.32557
9.33697
10.8856
12.3003
13.3727
12.7523
11.46
9.74889
7.61539
5.86824
4.47468
4.06933
4.76869
4.47904
3.34828
2.46303
1.70418
20.8876
23.5539
23.8743
25.9437
27.5389
28.1908
28.8786
29.6629
31.0534
33.0019
35.2298
37.5969
40.0045
42.4353
44.8963
47.3996
49.9375
52.5275
54.5894
55.4684
57.4903
61.0422
67.014
75.7294
88.4326
98.9439
103.974
111.668
115.903
102.625
87.2044
80.4793
68.3115
73.5447
86.6124
87.3406
93.0115
101.417
112.242
125.361
138.001
144.588
142.244
130.414
111.545
91.1952
72.1316
56.3702
43.6468
33.6209
25.3555
18.9774
14.7878
12.5315
11.4937
10.9328
9.97611
9.03644
8.10413
7.57969
7.47215
7.67241
8.07882
8.95995
9.76191
12.1778
12.5805
11.8196
10.8067
9.12969
7.19257
5.54674
4.3348
4.07733
5.45008
4.51306
3.26721
1.93086
3.80644
20.9551
23.6362
23.9039
26.0789
27.9191
28.4776
29.2857
30.0987
31.5081
33.4701
35.7118
38.0654
40.4068
42.6904
44.8704
46.948
49.0353
51.6163
54.4368
55.8993
57.9115
61.8182
68.075
78.0073
91.0744
99.6867
107.219
118.121
116.034
111.609
92.0353
81.9435
68.1619
76.8637
84.3086
86.6925
92.2294
101.006
111.919
125.104
138.026
144.943
142.415
130.266
111.065
90.546
71.4765
55.8679
43.5197
34.0912
26.2925
20.097
15.7454
13.3652
12.2267
11.6988
10.8523
9.05864
8.24099
7.40062
7.07635
7.15715
7.59397
8.5998
9.1874
10.9695
11.919
11.1106
10.3913
8.62979
6.82024
5.30393
4.21216
4.54303
5.54645
6.06535
6.53008
2.8613
9.83628
21.0425
23.7359
23.8949
26.1276
28.2987
28.7223
29.6657
30.537
31.9843
33.9615
36.218
38.5612
40.8401
42.9774
44.8602
46.4275
47.7802
49.9629
53.6706
56.4017
58.2807
62.7439
69.247
80.6765
94.2911
105.687
109.673
113.881
118.087
109.79
98.6778
81.4756
71.4116
76.412
83.2602
85.7462
91.2613
100.216
111.2
124.331
137.435
144.702
142.041
129.565
110.041
89.3759
70.3792
55.0422
43.2237
34.7146
27.6382
21.8219
17.5745
14.9606
13.3865
12.6674
11.6749
9.82207
8.6423
8.04131
7.44551
7.03452
7.68235
8.41574
8.73986
10.4116
11.8766
10.8396
10.0284
8.14303
6.50079
5.06182
4.19706
4.67304
4.49176
2.04944
0.923382
0.436017
0.855252
21.1367
23.8329
23.8196
26.0131
28.6728
28.9652
30.0059
30.9739
32.483
34.4782
36.7482
39.0829
41.3072
43.3187
44.9487
46.0575
46.5051
47.8714
51.7233
56.8741
58.6541
63.7277
70.7549
83.216
96.4827
106.544
112.016
110.617
111.039
104.629
93.2029
89.2429
77.8498
80.4257
81.8608
84.7935
90.0747
99.027
110.033
122.976
136.119
143.781
141.099
128.303
108.477
87.6762
68.8094
53.8185
42.5966
35.0385
28.7445
22.4892
18.3288
17.2876
15.7134
13.7362
12.5861
10.265
8.99624
7.95622
7.31493
7.15282
7.50691
8.2045
9.10677
10.7493
11.6527
10.5085
9.59105
7.73221
6.17198
4.91014
4.26203
5.30051
4.27401
1.69515
0.546956
0.0851352
0.130397
21.244
23.933
23.6293
25.6121
28.9903
29.2345
30.3151
31.4086
33.0027
35.0206
37.3014
39.6259
41.8004
43.7111
45.1765
46.0946
46.4123
48.0068
51.9304
56.5123
59.1471
64.6978
72.3307
86.2338
99.1214
106.351
115.043
111.851
107.919
98.6076
87.9171
84.3552
77.2591
79.1573
81.4333
83.6134
88.7377
97.4334
108.362
120.957
133.934
142.052
139.569
126.489
106.404
85.4696
66.7748
52.1762
41.5399
34.6895
29.1387
24.3378
20.6444
18.8639
17.5466
15.8694
13.3615
11.0984
9.35322
8.18962
7.58228
7.37271
7.56494
8.38953
9.39091
10.8728
11.4218
10.1894
9.20006
7.39363
5.97247
4.80667
4.81972
6.04169
4.12437
0.407338
0.117277
0.151546
0.789628
21.3897
24.0861
23.7445
25.0271
29.1228
29.5431
30.616
31.8472
33.5392
35.5866
37.8752
40.1838
42.3041
44.1159
45.4453
46.2614
46.5594
48.0914
52.0084
55.8524
59.6223
65.3921
74.4329
89.1447
101.578
106.955
114.193
111.927
102.373
93.9897
87.0594
78.6684
75.2005
82.5321
80.7519
82.3713
87.2669
95.4855
106.133
118.176
130.683
139.3
137.407
124.153
103.878
82.8083
64.3152
50.1542
40.1914
34.1417
28.8393
25.1444
21.1295
18.9232
19.0782
17.4221
13.9425
11.2796
9.52986
8.3853
7.5546
7.28679
7.32492
7.72308
8.60225
10.203
11.2549
9.89028
8.75932
7.0897
5.70811
4.76102
4.56823
3.12459
1.09545
0.363936
0.128546
0.138917
1.11541
21.6295
24.3933
25.5294
25.3734
29.0595
29.8531
30.9317
32.2906
34.084
36.1706
38.4671
40.7522
42.8066
44.4995
45.6581
46.3168
46.5332
48.0353
51.9027
56.0673
59.5319
66.0573
77.0027
92.0449
105.695
111.021
120.692
116.586
95.5847
85.8206
77.6325
71.3276
67.4075
78.9004
80.5333
81.022
85.6993
93.2667
103.34
114.545
126.108
135.162
134.473
121.331
100.988
79.7741
61.4933
47.7817
38.5711
33.4377
28.6586
24.4742
23.3824
21.5754
19.5335
19.1001
14.8749
12.1853
10.0589
8.85506
7.85969
7.69986
7.88605
8.13014
9.22968
10.9463
11.0026
9.63369
8.50558
6.97337
5.60653
4.63857
4.5343
3.30236
1.19527
0.371214
0.150344
0.16293
0.758732
21.9919
24.8189
27.5101
26.885
29.1851
30.0887
31.286
32.7397
34.6307
36.7646
39.0728
41.3297
43.3093
44.8729
45.8469
46.337
46.4595
47.9516
51.8327
56.0265
59.941
67.3555
79.5585
94.6483
108.816
117.13
119.732
115.294
96.8094
83.5038
69.6699
66.6472
64.5712
73.8827
80.0873
79.7195
84.0349
90.8959
100.072
110.049
119.945
129.075
130.38
118.041
97.8414
76.4753
58.3916
45.0551
36.532
31.9335
27.8512
24.6388
23.0505
23.1011
23.0802
20.638
16.5756
13.2457
10.8502
9.57478
8.43587
7.78686
7.78724
8.10465
9.72553
10.9483
10.7696
9.21232
8.17152
6.76587
5.46404
4.7098
5.05838
4.14307
1.81416
0.436135
0.189058
0.21488
0.649999
22.1636
25.0767
28.0682
28.6234
29.3353
30.3201
31.6473
33.1973
35.1736
37.3596
39.6839
41.9116
43.8122
45.2469
46.0378
46.3573
46.404
47.8921
51.7449
56.1338
60.3004
69.0994
82.2926
96.9494
109.952
117.096
125.354
120.416
97.4433
79.7517
66.4417
63.378
65.1972
68.5833
78.6621
78.6012
82.2762
88.5073
96.5615
104.917
112.192
120.386
124.171
114.187
94.568
73.0482
55.1468
42.1288
34.1589
29.7173
26.3347
23.7118
22.4505
21.5653
22.92
20.6478
18.0902
14.2247
11.7726
10.3811
9.10319
8.19257
8.29957
8.13131
9.43047
9.91895
10.4301
9.02274
8.00205
6.66069
5.42234
4.7809
4.89882
3.01827
1.08634
0.461211
0.224189
0.349019
0.485347
22.3394
25.6124
28.6961
28.7389
29.6198
30.5536
32.0219
33.6636
35.7139
37.945
40.2866
42.4856
44.308
45.6263
46.2596
46.4236
46.3988
47.9049
51.7371
56.2096
61.4545
70.6881
85.3589
99.4336
110.794
123.189
123.799
116.415
101.705
87.0296
67.3352
64.3477
62.9547
64.9191
75.8528
77.5909
80.4706
86.2111
93.1809
100.393
105.229
108.906
113.913
109.33
91.2996
69.6348
51.8982
39.1873
31.8368
27.809
24.6315
22.1706
21.3827
21.0555
22.6673
20.7936
18.2322
14.9047
12.2021
10.3418
9.27798
8.54474
8.4398
8.32524
9.54898
9.85993
9.78973
8.98616
7.82401
6.49783
5.46051
4.93062
4.88315
3.6777
2.43302
0.814061
0.298108
0.627556
0.443395
22.5916
25.1802
28.9337
29.4261
29.7823
30.8134
32.4261
34.1446
36.2482
38.509
40.862
43.0292
44.7766
45.9951
46.5122
46.5523
46.4446
47.9483
51.721
55.6313
62.9156
72.7429
88.4752
102.399
111.901
122.846
127.023
117.932
103.322
81.8813
68.7327
64.1491
60.6287
62.137
72.2191
76.5052
78.6076
84.0588
90.0516
96.3928
99.554
102.163
106.416
101.037
88.2994
66.3616
48.7581
36.2906
29.243
25.4068
22.5623
20.4656
20.4126
19.8026
21.1944
21.616
18.3777
15.3131
12.6033
10.957
9.62004
8.87032
8.63694
8.29641
8.8844
9.65746
10.1386
8.83072
8.06112
6.64635
5.45252
5.17126
5.2177
3.70972
1.24726
0.565532
0.346469
0.718047
0.414941
22.7855
25.5343
28.719
30.0165
30.0225
31.0852
32.8595
34.643
36.7722
39.0398
41.3882
43.5132
45.1872
46.3235
46.7819
46.7693
46.6187
48.1167
51.9499
56.2815
63.5958
75.121
91.0682
106.386
115.666
123.903
126.39
118.955
105.958
83.3956
70.1815
65.8765
63.3339
58.9624
67.6354
75.2001
76.6027
82.0374
87.1428
92.6442
94.8395
96.6878
100.671
94.6195
84.6978
63.4929
45.8371
33.5783
26.7979
23.1936
20.4514
19.0896
17.7278
19.2535
18.9747
21.8248
18.4903
15.5882
13.0062
11.3505
9.89364
9.10496
8.44408
8.15313
8.5281
9.37356
9.40167
8.39738
7.81515
6.68643
5.69607
5.62938
5.46245
5.2804
3.03218
1.2025
0.416376
0.550413
0.403357
23.0088
25.9253
28.9326
30.4391
30.3871
31.3539
33.3342
35.1536
37.2861
39.5267
41.8455
43.9065
45.4985
46.5607
47.0138
47.035
46.8657
48.1999
52.3461
57.1634
65.4225
77.8506
94.586
110.902
122.384
127.35
122.613
109.788
97.4284
77.3319
71.188
66.7798
71.2835
58.3747
61.1993
73.3682
74.3236
80.1201
84.5374
89.5091
90.8642
91.6584
95.875
88.9441
79.7088
61.207
43.2027
31.0757
24.2693
20.5558
18.5157
17.0911
16.5457
17.0963
18.7971
21.3859
18.0844
15.405
13.3575
11.5765
10.0861
9.15542
8.56919
8.16191
7.83422
9.02977
9.34354
8.14135
7.34152
6.7083
5.86063
5.70295
5.34491
4.14447
1.76737
0.672715
0.393792
0.273517
0.568232
23.1111
26.1015
28.3335
30.7172
30.9129
31.6353
33.8422
35.6809
37.7849
39.9636
42.2193
44.1834
45.6668
46.6436
47.1274
47.3165
47.3818
48.6832
51.7706
56.3151
67.7746
80.3488
99.1052
116.26
128.348
130.947
130.136
109.313
92.42
78.5814
75.8594
67.4684
69.1977
56.5472
57.622
70.3405
71.5181
78.2031
82.1299
87.0961
88.2168
87.856
88.6206
82.6885
72.8937
59.2673
41.0113
28.8973
22.026
18.3762
16.2156
14.7641
14.7662
15.1186
16.2931
18.2775
18.7981
15.3043
13.6737
11.846
10.362
9.25839
8.39739
7.90118
7.98871
8.47302
9.1816
7.96686
7.27665
6.77741
6.33448
5.75473
5.6395
5.34823
3.25802
1.24394
0.577765
0.280193
0.890659
23.5734
25.9844
28.7498
30.4562
31.5856
31.9689
34.3773
36.2226
38.2677
40.3483
42.5026
44.3301
45.6627
46.5093
46.9812
47.356
47.9036
49.2762
52.1977
57.5459
69.9523
84.151
102.358
121.753
133.102
134.82
128.94
119.121
92.2059
76.7897
68.6538
69.2982
70.4746
63.754
58.0669
67.2131
67.4921
76.1618
79.6251
85.1322
87.4316
85.956
82.2439
79.4311
71.1895
56.2773
39.5083
26.9486
20.0749
16.1791
14.4201
13.1825
12.4155
13.0445
12.961
14.7716
18.7034
16.2516
13.7501
12.0206
10.565
9.51356
8.53502
7.72732
7.49244
8.05228
8.78857
8.48731
7.81157
7.27804
6.41595
5.79189
5.7404
5.05252
2.29271
1.05258
0.979169
0.703125
1.46702
23.7491
26.539
28.0837
30.5922
32.0566
32.4647
34.9126
36.7829
38.7345
40.6828
42.6969
44.3523
45.4945
46.1557
46.5163
46.903
47.5702
48.9488
51.6471
58.6373
71.5278
89.4091
108.577
126.826
138.056
142.716
129.85
118.768
102.25
81.7569
62.4154
62.285
67.0733
62.0097
58.8076
64.5913
61.8002
73.6738
76.7037
82.7388
85.7388
84.5898
79.5194
75.8007
65.8877
53.2756
38.4255
25.3266
18.2469
14.244
12.3074
11.4235
10.7102
10.7602
11.0677
11.1754
15.1616
15.55
13.5688
12.3463
11.0368
9.77858
8.65089
7.59736
6.87555
7.07304
8.7278
7.77582
7.72221
7.34988
6.51049
5.995
5.99266
5.44757
3.42027
1.32838
1.23641
0.7788
1.40422
23.9483
26.4705
28.1861
30.451
32.4642
33.073
35.4661
37.3518
39.1884
40.9722
42.8097
44.2687
45.2042
45.6602
45.8549
46.1326
46.8142
48.5047
51.9239
59.7034
74.1282
94.3025
115.757
133.263
143.064
144.627
132.971
114.246
99.2042
78.2729
64.6024
59.372
62.2276
67.5609
61.1072
63.3664
58.1259
70.3877
73.1865
79.6824
82.4752
83.6443
78.711
70.4452
63.7021
51.3042
37.2705
24.1629
16.8262
12.9705
11.0899
10.3165
9.16722
9.0372
9.17898
9.92353
11.6571
13.8529
12.5509
11.6945
10.9133
9.67683
8.56385
7.43046
6.72457
7.11958
7.47988
8.11707
7.48108
7.39176
6.50848
6.21642
6.35759
6.30067
4.70936
1.72823
2.03146
0.829325
1.94195
23.981
25.6475
28.2676
30.1103
32.579
33.8014
36.0393
37.9234
39.6305
41.2244
42.8489
44.0952
44.8338
45.1267
45.2336
45.5027
46.2836
48.2773
52.3011
61.1716
77.0865
99.2475
122.661
138.547
148.483
152.528
135.643
115.023
95.6106
86.5566
68.2588
61.0997
58.7618
62.8359
65.8045
64.821
58.7147
67.1963
68.6752
76.7734
79.2098
80.0149
75.8509
68.518
62.8316
48.2289
36.3323
23.4725
15.6695
11.7104
10.0137
9.7723
8.72144
8.21483
8.16465
8.00374
9.56442
11.2904
11.6591
11.1174
10.7838
9.61677
8.55586
7.38474
6.56277
6.36597
7.75001
8.13779
7.98857
7.39156
6.67962
6.56136
6.37177
5.48958
3.65365
2.38803
3.21407
0.897402
1.50778
24.1281
25.7805
27.4575
28.9432
32.0588
34.6343
36.6381
38.4897
40.0586
41.4456
42.8244
43.8369
44.3844
44.5455
44.612
44.9336
45.8796
48.1752
52.7796
62.8927
80.8774
105.57
128.282
143.649
153.666
159.152
147.071
115.42
94.1238
80.715
74.8567
63.5269
64.1673
55.2134
60.8889
63.6684
60.9884
65.616
66.1445
73.7012
76.2275
76.8256
72.6886
66.2408
60.7989
47.4336
34.8045
23.4835
14.9703
10.5815
8.51985
7.96654
8.38361
7.867
7.69922
7.34053
7.88397
9.80214
10.5926
10.7937
10.3987
9.32949
8.37376
7.24932
6.40172
6.32682
7.55373
7.65651
7.75894
7.42917
6.92077
6.89393
7.00388
6.93259
5.47226
3.16897
3.50971
0.643289
1.35674
24.2668
25.82
26.7194
28.7836
32.147
35.5443
37.2459
39.052
40.4604
41.6389
42.7494
43.5074
43.8678
43.9172
43.9566
44.3457
45.4889
47.9284
53.8493
64.8278
81.783
110.129
132.729
147.799
157.511
162.07
147.584
120.921
97.0099
80.0578
71.6303
71.7908
63.5372
50.9
54.0865
60.7756
64.5699
65.2703
68.1271
71.3984
73.6818
74.5574
70.5741
64.2198
59.5114
46.7835
34.0189
23.9294
15.059
10.1154
7.68752
6.54973
6.25638
6.79793
7.5079
7.63549
7.53362
8.98613
9.64665
10.5441
10.1456
9.238
8.31985
7.26683
6.49729
6.44057
6.99558
7.50357
7.66115
7.63675
7.38032
7.42438
7.15804
5.69001
4.44687
2.97823
2.07963
0.456204
0.992128
24.4059
26.3292
26.7541
28.4977
31.8343
36.2385
37.9792
39.5832
40.8507
41.8054
42.6353
43.1289
43.3177
43.2994
43.3685
43.8769
45.3383
48.2989
54.8195
68.1933
87.195
116.268
137.451
150.136
160.082
163.11
152.073
129.612
99.4846
88.1993
75.6053
71.495
66.1314
53.1274
49.0585
53.7074
60.7259
65.5712
70.1281
69.946
71.0614
72.492
69.3771
63.1012
57.3398
46.4499
34.3132
23.6803
15.198
10.3234
7.5946
6.19532
5.57546
5.73238
6.65704
7.01499
6.77724
7.8751
9.62515
10.4768
10.0383
9.21337
8.23723
7.22708
6.41474
6.26247
6.7473
7.04996
7.82202
7.78596
7.61281
7.61357
7.68426
6.85663
5.68086
2.00838
0.557198
0.325313
0.959388
24.6829
25.7704
27.0104
28.6384
32.0399
35.7857
39.0057
40.0903
41.2357
41.9406
42.4857
42.7119
42.7323
42.6652
42.7887
43.4341
45.195
48.6289
55.8353
70.3379
92.4975
120.143
144.133
153.427
167.126
164.229
146.752
125.267
101.744
83.1557
71.3541
69.279
64.9715
60.5795
50.2463
48.9622
53.1133
63.7483
68.1086
68.2836
68.9972
70.1947
69.3104
64.3939
54.7791
46.7269
34.7915
24.5366
15.8036
10.4399
7.59014
6.15764
5.38097
5.30729
6.35228
7.57215
7.50079
8.1968
9.55333
10.5173
9.77057
8.91841
8.0018
7.09515
6.37883
6.27187
6.79257
7.7072
8.22963
8.11575
8.08207
8.23238
7.75836
5.18219
2.69673
1.38425
0.327773
0.290324
0.987365
25.2153
27.0008
27.1752
29.0182
32.3061
36.5352
39.7805
40.7259
41.5912
42.04
42.3034
42.2766
42.1414
42.0533
42.2705
43.1152
45.1792
49.0552
56.9144
70.589
92.9618
123.582
147.752
156.289
169.778
166.744
150.216
130.784
106.202
87.5701
72.9256
70.7531
70.9155
56.0747
51.9197
52.9448
46.8548
55.5198
66.5749
66.567
67.0148
66.8218
66.1833
62.9664
54.9287
47.1859
35.5215
25.8752
16.9961
10.9112
7.72087
6.02812
5.21651
4.72288
5.03213
5.60987
6.26373
6.67548
7.76445