/*--------------------------------*- C++ -*----------------------------------*\
| =========                 |                                                 |
| \\      /  F ield         | OpenFOAM: The Open Source CFD Toolbox           |
|  \\    /   O peration     | Version:  4.1                                   |
|   \\  /    A nd           | Web:      www.OpenFOAM.org                      |
|    \\/     M anipulation  |                                                 |
\*---------------------------------------------------------------------------*/
FoamFile
{
    version     2.0;
    format      ascii;
    class       volScalarField;
    location    "30";
    object      p;
}
// * * * * * * * * * * * * * * * * * * * * * * * * * * * * * * * * * * * * * //

dimensions      [0 2 -2 0 0 0 0];

internalField   nonuniform List<scalar> 
6785
(
535502
535436
535385
535335
535289
535245
535204
535166
535130
535095
535062
535032
535004
534970
534936
534954
534936
534940
534935
534932
534929
534926
534924
534922
534922
534922
534924
534927
534931
534932
534912
534906
534916
534915
534918
534920
534923
534925
534927
534929
534930
534932
534933
534934
534935
534966
534964
534969
534965
534966
534965
534964
534963
534962
534962
534961
534961
534960
534960
534961
534968
534966
534969
534966
534968
534967
534967
534968
534968
534969
534969
534970
534970
534970
534971
534959
534957
534959
534957
534959
534958
534958
534958
534959
534960
534960
534960
534960
534959
534959
534951
534949
534950
534948
534950
534948
534948
534948
534948
534948
534947
534947
534947
534946
534947
534948
534947
534948
534947
534948
534947
534947
534947
534947
534947
534947
534947
534947
534948
534949
534954
534955
534956
534955
534957
534956
534957
534958
534958
534959
534959
534960
534960
534961
534962
534963
534964
534965
534965
534966
534967
534967
534968
534969
534969
534970
534970
534971
534972
534972
534974
534975
534976
534975
534976
534976
534977
534977
534977
534978
534978
534978
534979
534979
534980
534973
534975
534977
534977
534979
534979
534980
534981
534982
534983
534983
534983
534984
534984
534985
535011
535011
535010
535009
535010
535010
535010
535009
535008
535006
535004
535001
534999
534997
534994
534910
534905
534907
534908
534911
534913
534915
534918
534920
534921
534920
534917
534915
534913
534907
534820
534829
534833
534833
534833
534830
534827
534822
534817
534812
534808
534804
534802
534798
534791
537083
537077
537073
537060
537053
537046
537021
536994
536979
536975
536942
536889
536881
536846
536789
536756
536769
536730
536639
536636
536607
536527
536478
536511
536466
536369
536317
536355
536329
536198
536203
536195
536093
536034
536086
536068
535925
535941
535941
535835
535776
535847
535817
535699
535646
535721
535708
535563
535595
535602
535500
535449
535534
535507
535396
535353
535438
535426
535294
535334
535344
535254
535214
535294
535286
535168
535209
535219
535140
535106
535185
535168
535084
535056
535131
535126
535031
535062
535095
535003
535048
535103
535074
535055
535035
535025
535009
534996
534986
534971
534958
534938
534938
534916
534905
534895
534883
534870
534860
534853
534841
534854
534828
534815
534808
534803
534796
534783
534770
534764
534755
534767
534746
534724
534715
534710
534703
534692
534681
534666
534654
534654
534625
534607
534594
534581
534565
534553
534532
534468
534487
534444
534418
534400
534373
534344
534322
534290
534189
534208
534135
534092
534064
534027
533984
533934
533895
533843
533641
533695
533572
533494
533444
533382
533308
533231
533130
532742
532880
532692
532362
532913
533158
532808
532845
532805
532850
532960
532793
532749
532883
532725
532699
532670
532634
532802
532620
532531
532530
532451
532713
532512
532229
532670
532392
532151
532222
532045
532689
532195
531865
531995
531757
532837
532216
531255
532951
532082
531323
531671
531294
533302
531640
531115
531045
530571
533144
529000
523676
527742
522425
515151
515865
511550
520471
520517
513495
521704
520651
537599
547688
546309
571181
590565
584744
632535
647993
649634
667955
574981
750147
830106
263472
627945
1.00677e+06
-190640
-315119
-1.10293e+06
-856399
1.15014e+06
4.78858
36.7824
38.4535
51.8564
61.494
73.6245
85.0302
97.739
111.499
126.46
142.655
160.672
180.492
201.697
224.444
249.024
275.662
304.518
334.549
364.987
394.75
422.183
449.306
480.708
516.992
559.709
607.659
654.522
697.892
738.19
772.928
795.671
805.744
799.505
779.864
744.59
698.659
643.695
581.488
524.551
480.498
460
463.369
479.68
495.999
506.908
511.688
508.239
498.449
485.453
470.665
456.319
442.991
430.871
420.502
412.739
408.047
405.58
403.133
397.196
383.738
357.691
322.109
327.731
383.267
474.026
611.08
814.591
1121.38
1596.45
2359.04
3636.87
5909.31
10218.3
18774.3
37290.8
75011.5
111986
137057
-2.47225
70.8033
82.2513
118.349
145.744
179.328
211.127
246.22
283.129
322.381
364.082
409.904
459.717
513.215
570.72
632.044
696.744
765.56
838.07
915.808
995.518
1072.19
1147.45
1228.74
1319.09
1425.51
1549.81
1679.35
1807.68
1927.82
2034.77
2112.57
2172.48
2205.61
2219.59
2198.35
2151.92
2081.9
1980.35
1868.7
1756.41
1664.17
1602.33
1566.58
1545.27
1534.95
1534.94
1535.64
1531.55
1516.73
1488.44
1453.03
1415.87
1379.2
1343.49
1308.9
1274.01
1237
1199.16
1160.99
1115.94
1047.02
956.03
930.716
990.06
1095.01
1244.04
1439.71
1689.32
2003.13
2386.76
2827.18
3280.88
3554.28
2601.13
-13.8962
-10498.5
-65028.1
366207
6.56409
126.324
148.652
210.257
257.679
314.593
369.02
429.417
492.684
560.517
633.212
713.347
800.052
893.461
993.864
1101.09
1214.46
1334.62
1460.04
1594.86
1728.65
1858.04
1990.4
2134.19
2297.08
2488.45
2708.2
2930.5
3150.25
3353.07
3533.88
3653.22
3744.2
3784.91
3787.36
3730.82
3631.69
3491.8
3302.67
3102.04
2908.72
2759.57
2668.85
2625.76
2606.57
2601.83
2606.29
2604.51
2592.64
2562.75
2514.01
2456.23
2397.03
2339.96
2286.2
2236.54
2188.02
2135.55
2077.67
2012.7
1930.59
1812.27
1680.93
1662.68
1776.9
1970.84
2245.48
2608.1
3076.07
3675.85
4434.81
5368.94
6488.13
7680.12
7856.57
8414.68
8797.01
-25799.8
719947
10.9492
168.518
204.248
289.815
356.801
435.988
512.645
596.97
685.039
779.714
881.305
992.511
1112.54
1242.21
1381.53
1530.22
1687.19
1853.09
2026.87
2213.2
2397.08
2579.4
2767.56
2969.25
3198.03
3466.65
3774.63
4085.25
4392.38
4679.39
4930.81
5095.51
5230.96
5295.26
5306.43
5241.01
5118.52
4938.33
4690.81
4421.17
4154.33
3940.68
3802.06
3729.19
3693.05
3681.08
3684.12
3682.35
3669.96
3633.11
3570.86
3495.47
3417.3
3341.45
3269.53
3202.35
3134.93
3060.58
2977.98
2885.14
2765.92
2597.66
2436.09
2442.57
2629.88
2943.47
3391.77
3998.18
4809.74
5904.95
7400.77
9478.45
12482.3
17039.8
23688.7
39256.5
80105.6
118708
852409
18.8011
211.266
262.015
371.395
458.07
559.689
658.803
767.105
880.326
1002.11
1132.85
1275.31
1429.12
1595.27
1773.78
1964.35
2165.55
2377.87
2601.11
2837.35
3071.39
3308.27
3552.57
3815.22
4112.55
4461.57
4859.82
5260.79
5653.41
6027.09
6344.51
6557.37
6736.73
6822.29
6840.31
6765.34
6618.8
6396.37
6092.28
5752.29
5413.54
5137.73
4954.5
4855.01
4804.43
4785.59
4785.04
4781.42
4766.79
4723.64
4650.63
4561.03
4467.24
4376.06
4289.84
4209.78
4128.78
4037.82
3934.72
3816.4
3660.52
3442.08
3254.08
3287.04
3543.97
3971.42
4582.99
5414.9
6537.28
8068.89
10193.9
13211.5
17696.3
24819.8
36436.3
63153.6
131860
209488
760461
26.3254
249.524
316.617
449.017
555.261
679.055
800.375
932.299
1070.26
1218.51
1377.59
1550.34
1736.77
1938.03
2154.22
2385.05
2628.81
2885.82
3157.28
3441.84
3725.67
4015.86
4315.56
4638.29
5003.74
5432.31
5919.43
6409.85
6888.49
7349.91
7731.94
7997.73
8222.58
8334.58
8367.02
8292.06
8132.09
7877.88
7526.03
7122.15
6716.7
6378.91
6146.66
6013.51
5942.03
5910.79
5903.11
5897.24
5881.49
5835.46
5756.12
5656.57
5550.94
5447.5
5349.18
5257.54
5163.66
5056.25
4933.16
4789.78
4597.94
4334.84
4135.49
4211.05
4549.5
5103.42
5891.75
6963.34
8409.71
10385.1
13131
17042
22883.8
32319.5
48483
84626
172624
281175
732117
34.6488
285.687
370.108
524.994
650.966
796.75
940.171
1095.52
1257.96
1432.39
1619.39
1821.93
2040.32
2275.88
2528.85
2799.06
3084.46
3385.25
3704.02
4036.47
4370.18
4712.08
5068.17
5449.74
5884.73
6393.68
6969.72
7549.04
8117.5
8666.46
9113.64
9435.36
9706.76
9847.34
9895.09
9825.55
9659.08
9378.62
8982.13
8519.99
8052.5
7655.08
7373.2
7203.55
7107.45
7060.13
7042.32
7032.11
7014.78
6967.76
6885.75
6780.63
6667.51
6555.63
6448.68
6348.85
6245.2
6124.22
5983.87
5816.78
5588.27
5281.97
5080.96
5212.39
5645.92
6343.87
7332.11
8674.84
10488.4
12967
16417.6
21350.6
28784.6
41039
62935.1
110465
217980
350325
639999
43.0503
319.315
421.768
598.535
744.307
911.835
1077.16
1255.62
1442.2
1642.34
1856.69
2088.33
2337.83
2606.68
2895.29
3203.61
3529.29
3872.56
4237.4
4616.46
4999.79
5393.46
5805.26
6244.74
6749.67
7339.4
8003.45
8670.95
9330.53
9964.53
10476.5
10859.4
11179.2
11351.9
11419.8
11362.4
11198.4
10897.6
10463
9950.09
9425.92
8971.21
8638.49
8428.46
8302.75
8234.82
8203.47
8186.64
8167.32
8120.99
8039.84
7933.65
7817.67
7701.41
7589.38
7484.13
7372.6
7239.93
7084.06
6894.88
6631.32
6287.48
6096.58
6295.8
6836.01
7692.22
8898.78
10536.8
12749.3
15772.4
19984.2
26033.9
35264.8
50811.3
79461.2
139399
263570
412898
576758
51.662
351.106
472.076
670.179
835.779
1024.8
1211.81
1413.09
1623.45
1848.86
2090.04
2350.17
2630.03
2931.24
3254.45
3599.71
3964.44
4349.07
4758.71
5183.05
5615.06
6061.44
6527.27
7025.76
7601.03
8271.99
9022.61
9777.41
10526.8
11242.4
11818.2
12269.2
12638.2
12847
12944
12903.3
12748.3
12432
11967
11410.6
10835.5
10326.7
9943.22
9690.07
9530.54
9437.59
9388.96
9362.68
9340.13
9295.43
9218.11
9115.22
9001.23
8885.22
8772.27
8664.98
8548.54
8406.92
8237.8
8027.62
7729.26
7354.13
7187
7467.16
8127.56
9157.53
10601.3
12557.4
15195.5
18794
23807.1
31049.8
42260.9
61507.1
97569.5
169638
306135
469572
509519
60.2802
381.236
521.004
739.915
925.315
1135.54
1344.01
1567.75
1801.5
2051.72
2319.16
2607.12
2916.55
3249.22
3605.96
3986.99
4389.62
4814.53
5267.3
5735.61
6215.2
6714.04
7233.58
7792.63
8438.44
9190.21
10025.1
10866.3
11703
12498.5
13138.9
13663.2
14081.6
14330.2
14466.5
14447.6
14306.8
13981.4
13494
12901.7
12282.1
11723.1
11289.4
10990.8
10793.4
10670.9
10601
10562
10534.6
10491.8
10420.7
10325.2
10218.1
10107.2
9997.73
9892.08
9773.96
9626.04
9446.24
9216.61
8884.15
8485.69
8357.3
8731.32
9526.9
10747.9
12450.1
14749.2
17841.9
22051.1
27920.3
36470.5
49921.4
73376.6
117455
201089
345555
515183
453481
68.8547
410.037
568.713
807.941
1013.06
1244.2
1473.84
1719.69
1976.43
2250.96
2544.09
2859.23
3197.49
3560.71
3949.95
4365.62
4805.08
5269.15
5763.33
6274.19
6800.36
7350.55
7924.24
8545.74
9262.05
10093.5
11009.9
11936.5
12858.2
13734.8
14443.5
15041.5
15509.2
15801
15985.2
15995
15872.6
15545.3
15043.3
14422.9
13765.3
13160.7
12678.3
12332.7
12093.9
11937.5
11842.1
11787
11752.4
11711.1
11648
11563.4
11467.8
11367.2
11266.2
11166.6
11050.4
10899.3
10711.5
10463.2
10097.4
9686.8
9613.95
10093.8
11040.1
12470
14451.9
17118.5
20695
25555.3
32353.7
42371.6
58402.2
86656.9
139229
233539
380995
545075
457684
77.2877
437.723
615.269
874.352
1099.07
1350.8
1601.32
1868.89
2148.19
2446.51
2764.75
3106.41
3472.72
3865.62
4286.34
4735.5
5210.63
5712.58
6246.42
6798.61
7370.4
7970.89
8598.73
9284.67
10071.5
10981.4
11977.1
12988.2
13994.3
14953.4
15734.1
16403.4
16921.8
17261.1
17498.7
17545
17444.9
17122.8
16614
15973.5
15285.1
14640.1
14111.4
13718.1
13434.7
13240.3
13115.1
13040.1
12995.6
12954.9
12900.6
12830
12750.3
12665
12577.4
12488.6
12378.5
12228.1
12035.2
11769.1
11371.2
10962.3
10962.4
11560.6
12673.7
14330.4
16612.5
19670.2
23760
29318.3
37140.8
48829.9
67838.5
101478
162714
266256
412231
560662
500655
85.5174
464.506
660.764
939.268
1183.4
1455.4
1726.48
2015.38
2316.79
2638.38
2981.11
3348.61
3742.21
4163.92
4615.12
5096.62
5606.2
6144.56
6716.21
7308.8
7925.31
8575.32
9257.61
10008.9
10866.8
11855.3
12929.8
14024.2
15115.9
16157.5
17011.8
17747.9
18320.2
18712.3
19004.9
19097.1
19022.7
18713
18205.2
17552.7
16840.9
16161.3
15589.7
15148.8
14818.7
14582.3
14423.2
14324.3
14266.9
14225
14179.8
14125.3
14065.1
13999.9
13931.1
13858
13758.5
13613.1
13418.6
13136
12708.8
12316.2
12406.4
13136.7
14433
16334.5
18937.1
22409.9
27046.4
33363.1
42334.4
55947
78377.1
117923
187644
298530
439585
561816
536939
93.4857
490.554
705.264
1002.78
1266.12
1558.04
1849.34
2159.15
2482.21
2826.53
3193.13
3585.78
4005.89
4455.55
4936.22
5448.88
5991.56
6564.74
7172.54
7804.63
8464.98
9163.7
9901.21
10717.7
11647.7
12716.3
13870.2
15046.5
16222.5
17345.8
18274.7
19072.3
19703.7
20154.4
20502.7
20649.3
20604.6
20314.8
19815.7
19159.3
18431.9
17724.3
17113.8
16626.7
16248.3
15966.7
15769.5
15642.7
15569.2
15524.1
15487.6
15450.4
15412.4
15371.5
15326.6
15274.2
15190.2
15054.7
14862.1
14564.6
14112.6
13751.6
13949.2
14825.9
16321.9
18486.4
21430
25344.2
30569.5
37725
48006.8
63845.8
90166.5
136026
213725
329664
462672
552372
553325
101.153
516.006
748.835
1064.98
1347.27
1658.76
1969.9
2300.22
2644.46
3010.95
3400.79
3817.87
4263.71
4740.43
5249.57
5792.2
6366.53
6972.9
7615.38
8285.98
8989.36
9736.09
10529.7
11410.8
12414.1
13563.1
14797.1
16054.6
17311.6
18513.5
19516.2
20375.5
21073
21587.8
21993.5
22199.2
22189.7
21927
21444.3
20792.2
20057.1
19328.4
18684.3
18153.2
17726
17396.6
17157.5
16999
16905.8
16855.2
16826.3
16806.8
16793
16779.8
16763.5
16736.8
16673.3
16552.4
16365.3
16055
15584.4
15270.9
15592.8
16630.8
18343.3
20789.1
24096.2
28483.5
34352.6
42453.1
54247.6
72659.3
103332
155743
240587
359023
481744
540767
551677
108.496
540.973
791.53
1125.94
1426.89
1757.59
2088.19
2438.57
2803.54
3191.64
3604.08
4044.87
4515.62
5018.51
5555.1
6126.51
6731.01
7368.93
8044.69
8752.8
9498.49
10292.8
11143.2
12088.5
13165.6
14393.7
15707.3
17047.4
18385.2
19661.2
20735
21661.8
22428.9
23012.4
23479.3
23745.5
23777.1
23548.1
23089.4
22449.8
21715.2
20973
20301.1
19729.4
19254
18875
18590.9
18396.9
18280.7
18221.9
18199.3
18197.1
18208.3
18225.4
18241.5
18245.3
18207.4
18106
17927.5
17606.5
17125.4
16876
17339
18553.8
20500
23246.9
26943.4
31844.6
38430.4
47611.8
61161.2
82521.6
117961
176945
267805
386158
496964
531584
549728
115.51
565.537
833.396
1185.72
1505.01
1854.54
2204.21
2574.23
2959.44
3368.6
3803
4266.75
4761.58
5289.71
5852.73
6451.72
7084.99
7752.83
8460.47
9205.05
9992.33
10833.8
11741.2
12750.9
13902.1
15207.3
16599.9
18025.1
19447.7
20794.2
21937.5
22936.8
23770.7
24424.6
24959.5
25286.8
25365.2
25176.6
24749.5
24130.4
23404.5
22656.5
21963.5
21355.8
20834.1
20405
20073.4
19840.5
19698
19628.4
19610.2
19624.5
19660.9
19709.7
19761.3
19799.6
19792.2
19714.8
19548
19218.4
18736.6
18569.4
19189.4
20597.6
22795.7
25866.7
29984.8
35452.9
42850
53281.1
68863.4
93557.9
134090
199426
294933
410812
508599
524739
548554
122.207
589.755
874.466
1244.38
1581.67
1949.63
2317.96
2707.18
3112.17
3541.84
3997.55
4483.53
5001.58
5553.99
6142.37
6767.76
7428.4
8124.65
8862.82
9642.76
10470.9
11359
12322.8
13397.7
14623.8
16005.2
17477.1
18990.6
20499
21914.8
23128.5
24201.4
25097.9
25824
26432.5
26822
26952.7
26810.7
26422.5
25832.2
25123.1
24377.4
23670.6
23032.5
22467.8
21989.1
21608.5
21334.2
21162.3
21079.4
21063.7
21093.2
21154.4
21235.4
21324.3
21400.4
21427.7
21379
21226.2
20889.6
20419.1
20353.8
21146.1
22765.6
25236.4
28658.9
33240.5
39344.5
47672.7
59554.2
77474.7
105872
151697
222914
321526
432844
517417
520870
544442
128.62
613.659
914.766
1301.97
1656.89
2042.88
2429.46
2837.45
3261.75
3711.38
4187.75
4695.21
5235.62
5811.33
6423.96
7074.52
7761.15
8484.31
9251.8
10066.1
10934.1
11868.3
12888.1
14028.7
15330.6
16788.7
18341.6
19946
21537
23024.8
24309.4
25451.7
26411.2
27213.2
27895.8
28349.3
28537.5
28448.5
28106.5
27552.9
26868.9
26133.4
25420.7
24759.1
24155.9
23629.7
23199.8
22882.3
22678.7
22580.1
22565.1
22608.3
22693.4
22806.6
22933.9
23050
23115.1
23098.5
22961.2
22619
22175.5
22234.4
23213
25064
27832.2
31640.8
36739.3
43567.4
52972.4
66534.2
87111.3
119533
170693
247084
347170
452145
523821
521003
541104
134.792
637.261
954.309
1358.51
1730.68
2134.27
2538.73
2965.04
3408.19
3877.24
4373.64
4901.83
5463.72
6061.72
6697.45
7371.88
8083.01
8831.59
9627.33
10475.2
11382
12362
13437.3
14644.6
16022.7
17558.7
19193.3
20887.4
22560.9
24122.1
25478.8
26686.7
27712.8
28592.1
29346.6
29867.1
30117.7
30087.7
29799.1
29290.1
28639.2
27922.1
27211.8
26534.2
25898.5
25328.6
24850.7
24489.2
24252.3
24136.3
24120.2
24175.7
24283.7
24428.9
24595
24752.5
24857.7
24875.5
24754
24407.4
24010.5
24216.5
25397
27502.7
30598.7
34837.1
40520.2
48181.3
58834.6
74329.2
97876.2
134568
190930
271579
371512
468802
528038
523650
538211
140.759
660.547
993.069
1414.03
1803.09
2223.82
2645.77
3089.98
3551.53
4039.45
4555.24
5103.42
5685.93
6305.21
6962.86
7659.83
8393.94
9166.56
9989.64
10870.6
11814.9
12840.2
13970.6
15245.6
16700.2
18314.4
20031
21810.9
23567.8
25200.9
26631.2
27908.7
29004.2
29958.8
30783.4
31374.1
31691.1
31725.7
31497.7
31041.1
30431.5
29740.6
29041
28356.1
27695.4
27087
26563.9
26159.3
25888.6
25754.1
25735.5
25802
25932.2
26109.2
26314
26513.9
26661.2
26715
26609.1
26260.8
25930.6
26307
27708.9
30096.7
33557.9
38281.1
44632.4
53256.6
65352.8
83044.8
109849
150955
212199
296031
394267
482918
530322
529480
536295
146.539
683.473
1030.98
1468.51
1874.13
2311.55
2750.6
3212.29
3691.8
4198.05
4732.61
5300.04
5902.3
6541.87
7220.3
7938.53
8694.35
9490.02
10339.6
11252.4
12233.1
13303.1
14488.6
15832.2
17362.4
19053.3
20853.7
22717.6
24555.7
26259
27764
29115
30282.1
31311.5
32205
32868.2
33255.5
33359.8
33199.1
32802.9
32242.4
31585.6
30905.3
30222.3
29545.2
28905.5
28341.7
27896.5
27592.7
27439.5
27417.6
27494.3
27646.5
27855.2
28098.9
28342.2
28532.9
28624.1
28533.7
28188.4
27945.4
28517
30164.1
32867.2
36739.3
42014.8
49135.3
58872.9
72624.3
92777.3
123077
168616
234245
320084
415207
494574
530810
537822
534199
152.125
706.009
1068.08
1521.97
1943.84
2397.48
2853.25
3332.02
3829.05
4353.1
4905.8
5491.75
6112.93
6771.8
7469.92
8208.26
8984.78
9802.69
10677.8
11620.7
12636.9
13750.9
14991.9
16404.6
18009.5
19775.6
21661.5
23609.3
25523.3
27296.8
28877.6
30299.9
31541.8
32648.7
33609.7
34347.5
34808.3
34986.8
34900.1
34571.9
34068.7
33453.6
32801
32129.6
31446
30783.8
30185.8
29704.2
29369.7
29198.6
29173.4
29260.3
29434.8
29675.6
29958.7
30246.6
30482.5
30612.1
30537.4
30202.3
30068.8
30862.2
32783.5
35842
40180.7
46089.3
54097
65116
80744.4
103605
137570
187421
256783
343415
434196
504069
529727
541872
531059
157.513
728.221
1104.58
1574.56
2012.29
2481.63
2953.74
3449.21
3963.31
4504.64
5074.86
5678.61
6317.87
6995.11
7711.87
8469.23
9265.48
10104.8
11004.5
11976
13026.6
14183.8
15481.2
16963.1
18642.3
20484.1
22455.9
24486.3
26469.5
28313.7
29968.9
31460.8
32780.5
33968.2
34996.3
35810
36347
36603.5
36596.9
36344.2
35906.3
35340.7
34724.3
34074.2
33395.1
32720.7
32097
31585
31224
31037.6
31010
31107.9
31305.8
31579.9
31903.9
32238.1
32521.4
32690.9
32632.4
32318
32319
33363.7
35594.1
39055.7
43927.7
50563.9
59592.4
72073.3
89799.6
115580
153290
207197
279510
365743
451157
511664
527867
540471
528238
162.714
750.24
1140.64
1626.46
2079.47
2564.05
3052.11
3563.91
4094.64
4652.74
5239.86
5860.71
6517.23
7211.9
7946.29
8721.62
9536.64
10396.6
11319.9
12318.8
13402.5
14602.8
15957.1
17508.1
19261.4
21180.2
23237.1
25348.1
27396.6
29310
31035.5
32598.9
33999.4
35267.4
36363.7
37253.6
37869.2
38206.6
38285.3
38114.9
37750.5
37242.6
36670.9
36052.1
35389.1
34714.4
34075.1
33541
33159.7
32961.8
32934.4
33045.4
33269
33578.5
33945.9
34328.9
34663.1
34874.7
34833.5
34553.8
34718.4
36047.1
38628
42549.2
48032.2
55503.8
65699.3
79829.3
99861
128723
170157
227728
302121
386821
466063
517561
526411
538022
526407
167.728
772.158
1176.21
1677.61
2145.33
2644.73
3148.37
3676.15
4223.1
4797.45
5400.88
6038.12
6711.11
7422.31
8173.34
8965.65
9798.54
10678.4
11624.4
12649.4
13765.2
15008.7
16420.2
18039.4
19866
21863.1
24004.9
26194.4
28307.7
30288.7
32080.6
33717.3
35200.9
36545.5
37711
38676.4
39372.4
39792.8
39961.1
39878.9
39595.9
39154.2
38636
38058.7
37424
36761.9
36119
35572.9
35179.5
34976.1
34953.1
35081
35333.7
35682.1
36096.4
36532
36922.5
37179.1
37157.2
36931.1
37294.5
38942.8
41923.1
46369.1
52551.9
60978
72495.3
88459.1
110978
143019
188049
248773
324322
406457
478973
522042
525751
536046
525664
172.559
793.985
1211.17
1727.8
2209.79
2723.71
3242.57
3785.98
4348.72
4938.83
5558
6210.95
6899.61
7626.47
8393.22
9201.57
10051.5
10950.5
11918.3
12968.3
14115.6
15402.1
16870.9
18557.1
20455.4
22533.2
24758.6
27024.2
29205.4
31253.2
33108.7
34818.6
36383.8
37802.6
39036.9
40076.8
40853.9
41359
41620.2
41631.3
41436.7
41069.5
40614.8
40089.5
39495.3
38859.7
38226.5
37680.5
37285.3
37084.1
37071.7
37222
37508.9
37901.3
38367.4
38860.8
39314.5
39619.3
39620
39474.5
40079.1
42085.4
45521.5
50566.7
57547.9
67056.4
80053.1
98023.6
123173
158414
206804
270075
345847
424519
490005
525397
525822
534488
525853
177.205
815.672
1245.47
1776.92
2272.85
2801
3334.74
3893.45
4471.57
5076.94
5711.27
6379.28
7082.86
7824.55
8606.14
9429.66
10295.9
11213.2
12201.9
13275.7
14454.1
15783.5
17309.7
19061.4
21030
23189.9
25497.9
27838.7
30090.8
32202
34120.8
35902.6
37545.9
39039.1
40340
41453.4
42311.6
42902.1
43258.9
43367.2
43267.3
42983.8
42603.3
42139.9
41598.5
41003.4
40394.7
39862.4
39477.4
39288.6
39295.2
39475.3
39803.3
40246.7
40771.2
41330
41854.4
42211.6
42240.5
42210.9
43104.9
45512.9
49468.5
55195.5
63081.6
73805.1
88435.4
108563
136436
174816
226231
291370
366459
440927
499303
527859
526537
533314
526634
181.646
837.235
1279.12
1824.98
2334.47
2876.63
3424.91
3998.59
4591.68
5211.84
5860.76
6543.19
7260.98
8016.7
8812.32
9650.23
10532
11467.1
12475.7
13572.3
14781.4
16153.7
17736.7
19553.2
21591.7
23832.5
26222.1
28637.8
30961.4
33131.6
35116.7
36968.7
38689
40254
41618.5
42804.9
43743
44419.5
44873.6
45082.5
45083.1
44892.9
44597.2
44205.3
43728.8
43187.7
42619.4
42115.7
41754.9
41590.4
41626.7
41846.5
42224.6
42728.4
43320.3
43954.6
44558.8
44975
45041.8
45168.2
46403.5
49265.2
53810.8
60309.1
69212.2
81283.4
97689.5
120095
150725
192098
246116
312405
385961
455645
507023
529603
527813
532533
527789
185.85
858.725
1312.13
1872.02
2394.66
2950.61
3513.12
4101.44
4709.1
5343.57
6006.53
6702.75
7434.06
8203.09
9011.99
9863.54
10760.2
11712.3
12740.2
13858.5
15097.9
16513.2
18152.8
20033.9
22142.7
24461.4
26929.5
29416.9
31811
34040.9
36097.2
38017.1
39813.9
41444.5
42870.8
44130.1
45145.9
45908.5
46461.3
46773.1
46879.4
46792.2
46591
46280
45880.4
45407.4
44895.7
44436.8
44115
43988.8
44067.9
44339.5
44779.3
45355
46026.3
46748.1
47442.7
47927.3
48048.1
48374.8
50008.2
53382.4
58594.5
65958.8
75993
89538.9
107844
132609
165968
210106
266235
332942
404201
468692
513344
530785
529431
532081
529040
189.777
880.124
1344.51
1918.01
2453.44
3022.96
3599.43
4202.04
4823.87
5472.17
6148.63
6858.02
7602.19
8383.84
9205.35
10069.9
10980.9
11949.5
12995.4
14134.6
15404.4
16862.4
18559
20504.7
22683.9
25077.7
27622.5
30177
32637.6
34932.1
37062.4
39047.4
40916.8
42608.8
44096.4
45427.6
46518.2
47366.9
48018.8
48435.5
48652.1
48676.3
48577.6
48358
48047.1
47656.8
47217.5
46820.5
46553.9
46481.4
46618.3
46956.2
47472.2
48133.7
48898.9
49721.9
50520
51084.4
51282.4
51859.5
53951.6
57903.2
63862.8
72190.3
83467.5
98604.5
118906
146066
182059
228664
286360
352769
421071
480125
518437
531472
531365
531999
530266
193.364
901.425
1376.29
1962.98
2510.83
3093.7
3683.88
4300.43
4936.03
5597.67
6287.08
7009.03
7765.42
8559.05
9392.55
10269.6
11194.4
12178.7
13241.5
14401.3
15701.5
17202
18956
20966.5
23214.5
25682.3
28302.3
30925
33446.6
35807
38007.1
40057.4
41994.7
43746.6
45294.9
46695.5
47857.6
48792.5
49543.7
50066.9
50397.3
50539.2
50550.6
50433.5
50223.1
49929.1
49578.4
49260.9
49066.4
49064
49275.1
49695.9
50304.7
51068.6
51944.9
52886.2
53802.7
54459.9
54765.7
55649.9
58263.9
62862.6
69653.4
79041
91666.6
108495
130858
160397
198867
247578
306271
371703
436507
490025
522459
531785
533271
531841
531000
196.528
922.667
1407.46
2007.02
2566.89
3162.85
3766.51
4396.62
5045.59
5720.1
6421.91
7155.82
7923.79
8728.77
9573.69
10462.6
11400.7
12400
13478.9
14659.3
15989.5
17533.2
19344.8
21419.6
23734.3
26275.5
28967.2
31660.8
34242.6
36663.9
38926.9
41043.9
43045.6
44856.8
46464.5
47931.2
49161.8
50183.6
51033.3
51664.7
52111.1
52375.3
52504.6
52500.6
52401.2
52216.9
51970.9
51750.6
51646
51731
52033.8
52555.4
53275.4
54160.5
55168.2
56249.3
57300.4
58064
58516.2
59771.9
62971.6
68290.4
75996.2
86537.4
100606
119204
143658
175510
216240
266649
325760
389597
450484
498500
525611
531822
534003
531508
531422
199.189
943.824
1438.05
2050.22
2621.62
3230.43
3847.35
4490.67
5152.59
5839.51
6553.16
7298.42
8077.35
8893.05
9748.81
10649.1
11599.9
12613.3
13707.9
14909.1
16269.1
17856.9
19727.1
21864.4
24243.2
26856.1
29617
32379.5
35022.8
37501
39823
42004.9
44068.4
45939
47603.6
49132.2
50429.5
51538.3
52485
53225.9
53789.5
54179.6
54434
54551.4
54574.1
54512.7
54386.8
54281.5
54285.1
54475.6
54888.3
55529.4
56380.1
57406.8
58568
59813.2
61017
61901.7
62549.5
64249.7
68096
74208.9
82911.6
94692.9
110285
130705
157242
191291
234013
285680
344644
406338
463014
505670
528033
531773
534018
531299
531742
201.298
964.871
1468.12
2092.59
2675.06
3296.49
3926.45
4582.6
5257.06
5955.9
6680.87
7436.86
8226.12
9051.97
9918.01
10829.2
11792.1
12819.2
13929.1
15151.1
16541.2
18174
20103.3
22300.7
24741.4
27424.7
30253.2
33079.9
35783.1
38318.4
40697.5
42940.3
45064.3
46991.7
48710.4
50296.2
51660
52854.5
53896
54748.1
55429
55947.3
56331.9
56579.2
56735.1
56808
56817.3
56844.2
56975
57289.7
57831.2
58610.9
59612.5
60802.3
62140.3
63574.3
64949.6
65973
66878.2
69101.1
73651.6
80631.9
90408.4
103506
120683
142950
171520
207605
252013
304482
362762
421850
474138
511666
529858
531820
533954
531281
532005
202.857
985.848
1497.63
2134.1
2727.29
3361.15
4003.81
4672.45
5359.03
6069.32
6805.05
7571.19
8370.2
9205.61
10081.4
11003
11977.5
13017.7
14142.8
15385.9
16806.4
18484.9
20472.7
22727.9
25229.2
27982.6
30877.2
33763.2
36524.2
39114.8
41549.9
43850.3
46033.1
48011.3
49782.5
51421.4
52852.4
54129.3
55265.2
56229.2
57026.4
57673.9
58192.7
58578.2
58876.4
59093.9
59252.8
59428.9
59705.6
60163.5
60853.3
61791.2
62964.3
64339.4
65878.5
67526.6
69093.6
70278.2
71508.9
74331.9
79645.7
87562.8
98483
112960
131763
155870
186389
224308
270063
322879
379982
436091
483919
516625
531214
532002
533915
531464
532229
203.916
1006.76
1526.51
2174.88
2778.54
3424.52
4079.47
4760.27
5458.52
6179.8
6925.76
7701.48
8509.65
9354.11
10239.3
11170.8
12156.5
13209.4
14349.7
15613.8
17064.8
18790
20834.3
23145.1
25705.3
28527.9
31487.1
34431.2
37247.8
39890.2
42379.1
44734.7
46970.1
48994.8
50818.1
52507.9
54005.7
55360.8
56592.1
57666.7
58578.8
59355.7
60011.9
60542.9
60990.4
61361.9
61683.7
62024.9
62465.2
63085.7
63943.4
65059.8
66425.2
68007.9
69772.9
71660.1
73440.5
74816.5
76442.5
79940.1
86076
94994.2
107119
123022
143469
169380
201726
241246
287994
340713
396200
449048
492439
520682
532205
532294
533880
531781
532434
204.55
1027.57
1554.83
2215.08
2829
3486.67
4153.43
4846.1
5555.57
6287.37
7043.03
7827.78
8644.59
9497.58
10391.6
11332.7
12329.3
13394.6
14550.1
15835.6
17317.4
19089.3
21187.8
23551
26169
29057.8
32080
35084.4
37954.2
40646.8
43184.1
45590.5
47870.9
49941.4
51815.8
53555.8
55118.4
56548.3
57874.8
59057.6
60083.7
60989.8
61785.4
62467.7
63070.1
63603.6
64100.5
64621.1
65241.7
66043.5
67088.5
68403.6
69982.5
71795.4
73810.7
75960.7
77976.8
79582.4
81674.8
85916.5
92930.7
102907
116285
133646
155730
183381
217402
258266
305646
357849
411345
460736
499794
523963
532912
532681
533876
532147
532620
204.845
1048.25
1582.66
2254.77
2878.78
3547.69
4225.81
4929.94
5650.23
6392.06
7156.9
7950.16
8775.11
9636.2
10538.7
11489
12496.1
13573.6
14744.5
16051.5
17564.9
19382.2
21533.4
23945.5
26621.3
29571.3
32653.6
35720.3
38643.3
41382.4
43962.5
46415.3
48735.6
50849.7
52773.3
54564.7
56189.4
57691.9
59110.6
60398.8
61538.6
62573.4
63509.8
64346.9
65108.3
65811.3
66493.4
67206.3
68022.5
69022.9
70274.1
71808.1
73621.6
75687.2
77976.9
80411.7
82685.1
84565.7
87196.5
92244.6
100189
111273
125940
144771
168464
197761
233282
275216
322872
374176
425371
471194
506085
526587
533405
533130
533902
532527
532798
204.87
1068.84
1610.04
2294.01
2927.98
3607.73
4296.72
5011.84
5742.55
6493.93
7267.44
8068.7
8901.34
9770.1
10680.7
11639.9
12657.2
13746.8
14932.8
16261.2
17806.2
19668.8
21870.9
24329.4
27061.9
30067.9
33208.2
36337.1
39312.9
42093.8
44714.9
47211
49565.8
51717.1
53688.6
55532.4
57217.7
58791.4
60298.4
61688.8
62941.3
64104
65181.5
66174.9
67099
67978.1
68853.3
69769.8
70794.7
72009.4
73484.3
75256.3
77325.1
79666.1
82254.1
84993.9
87545.1
89752.4
92993.9
98900.8
107821
120051
136030
156325
181577
212406
249229
291952
339542
389607
438260
480476
511422
528660
533733
533611
533975
532920
532975
204.648
1089.3
1636.99
2332.85
2976.66
3666.9
4366.23
5091.84
5832.57
6593.02
7374.68
8183.48
9023.4
9899.46
10817.9
11785.7
12812.9
13914.2
15115.4
16465.1
18042.1
19950.2
22199.7
24703.3
27489.6
30547.7
33744.1
36932.2
39959.6
42780.6
45443.1
47977.7
50359.1
52541.8
54560.4
56455.5
58201.7
59847.1
61438.7
62926.7
64289.4
65578.6
66797.8
67947.6
69037.2
70097.2
71171.5
72301.1
73545.9
74988.4
76702.6
78729.8
81072.8
83710.7
86620.5
89683.9
92531.2
95124.6
99050.2
105856
115790
129193
146492
168228
194967
227193
265111
308343
355548
404080
450014
488653
515909
530272
533926
534123
534066
533264
533130
204.167
1109.63
1663.61
2371.35
3024.81
3725.26
4434.42
5170.05
5920.34
6689.38
7478.7
8294.58
9141.39
10024.4
10950.3
11926.5
12963.3
14076.3
15292.7
16663.9
18272.8
20225.3
22518.9
25066.6
27903.7
31010.7
34261.4
37506.9
40584
43443.9
46146.2
48712.6
51113.9
53324.5
55388
57333.2
59140.8
60858.4
62531.8
64112.6
65581.6
66995.3
68356.6
69662.4
70918.8
72161.9
73439.6
74789.7
76263.9
77946.1
79913
82210.2
84843.8
87797.2
91049
94451.6
97612.6
100661
105343
113074
124052
138642
157256
180391
208530
242004
280801
324272
370799
417555
460658
495802
519648
531506
534026
534514
534100
533471
533273
203.455
1129.94
1689.98
2409.53
3072.41
3782.84
4501.41
5246.58
6005.92
6783.04
7579.56
8402.1
9255.46
10145.1
11078.3
12062.5
13108.7
14233.3
15464.7
16857.4
18497.9
20492.1
22827.8
25418.5
28303.9
31457.7