/*--------------------------------*- C++ -*----------------------------------*\
| =========                 |                                                 |
| \\      /  F ield         | OpenFOAM: The Open Source CFD Toolbox           |
|  \\    /   O peration     | Version:  4.1                                   |
|   \\  /    A nd           | Web:      www.OpenFOAM.org                      |
|    \\/     M anipulation  |                                                 |
\*---------------------------------------------------------------------------*/
FoamFile
{
    version     2.0;
    format      ascii;
    class       surfaceScalarField;
    location    "30";
    object      phi;
}
// * * * * * * * * * * * * * * * * * * * * * * * * * * * * * * * * * * * * * //

dimensions      [0 3 -1 0 0 0 0];

internalField   nonuniform List<scalar> 
13220
(
-893.059
2193.24
-1384.61
1792
-1852.29
1767.79
-2208.27
1656.09
-2483.79
1575.92
-2680.46
1496.75
-2800.05
1419.66
-2842.51
1342.82
-2806.94
1264.47
-2690.62
1183.73
-2495.88
1105.58
-2221.62
1025.83
-1821.28
899.791
-1158.8
638.033
141.111
-16.0417
2209.71
-62.7338
1839.18
-195.788
1901.32
-291.536
1752.31
-388.874
1673.73
-464.846
1573.16
-520.821
1476.09
-553.904
1376.28
-568.13
1279.08
-571.558
1187.5
-569.718
1104
-564.224
1020.71
-519.072
855.084
-294.37
414.472
-153.175
-108.075
2318.13
-274.709
2006.17
-428.262
2055.21
-507.751
1832.17
-578.288
1744.68
-608.393
1603.65
-611.213
1479.31
-585.865
1351.38
-536.739
1230.39
-472.371
1123.83
-400.782
1033.11
-313.562
934.591
-209.021
752.923
-93.357
304.462
-246.533
6.69639
2311.72
-26.6639
2039.84
-45.9803
2074.85
-33.3215
1819.87
-24.5194
1736.24
6.91293
1572.65
45.1553
1441.57
97.6055
1299.43
175.348
1153.28
307.929
991.603
497.422
844.085
689.175
742.68
781.45
660.576
574.155
511.714
327.63
11.5023
2300.41
-26.917
2078.44
-42.7788
2090.9
-60.4785
1837.75
-88.702
1764.65
-113.908
1598.02
-157.127
1484.93
-208.543
1350.96
-247.586
1192.44
-208.292
952.508
-10.454
646.144
240.431
492.711
371.164
530.44
269.572
613.885
597.18
18.1107
2282.44
-106.487
2203.2
-170.183
2154.79
-242.168
1909.88
-322.784
1845.39
-402.971
1678.27
-494.041
1576.04
-592.906
1449.82
-701.63
1301.12
-815.332
1065.98
-854.73
685.477
-713.752
350.659
-441.08
256.617
-165.815
337.158
431.386
110.574
2172
-10.2769
2324.17
-54.9795
2199.58
-96.9666
1951.99
-131.132
1879.62
-166.202
1713.42
-193.116
1602.99
-216.627
1473.39
-251.896
1336.39
-350.119
1164.45
-561.695
897.002
-745.113
535.311
-723.301
236.07
-431.507
46.9949
-0.139323
185.746
1986.39
144.049
2366.03
147.751
2196.05
162.983
1936.9
198.614
1844.09
230.926
1681.2
277.018
1556.94
329.77
1420.69
382.307
1283.89
402.09
1144.59
317.424
981.738
95.2417
756.762
-144.028
474.011
-211.711
112.887
-211.782
166.232
1820.37
182.803
2349.66
207.708
2171.31
243.346
1901.5
294.716
1792.96
343.754
1632.39
401.062
1499.84
461.927
1360.04
523.942
1222.02
576.345
1092.62
588.643
969.538
519.087
827.676
360.243
634.619
103.608
373.267
-108.253
97.471
1723
137.664
2309.61
163.445
2145.66
189.519
1875.58
226.535
1756.03
257.636
1601.42
287.347
1470.21
313.606
1333.82
335.451
1200.2
354.492
1073.27
367.771
956.193
353.669
840.527
291.105
695.642
157.982
501.828
49.748
51.5033
1671.43
114.99
2246.03
155.246
2105.23
187.515
1843.14
226.443
1716.87
261.193
1566.43
291.839
1439.31
319.904
1305.46
342.457
1177.37
354.601
1060.98
352.935
957.354
329.124
865.052
264.074
761.064
149.397
617.197
199.045
27.9333
1642.99
128.552
2145
241.655
1991.64
336.517
1747.72
436.147
1616.54
543.298
1458.64
656.439
1325.4
772.085
1189.19
881.642
1067.19
962.187
979.493
969.252
949.93
881.853
950.347
685.383
955.396
372.643
926.538
571.691
-137.392
1779.63
-170.294
2177.29
-247.933
2068.59
-404.923
1904.14
-566.414
1777.45
-716.591
1608.36
-818.837
1427.24
-820.75
1190.73
-657.949
904.059
-315.699
637.065
128.898
504.749
536.658
543.191
779.92
712.378
665.864
1040.75
1237.53
-1028.83
2807.92
-1797.35
2945.52
-2437.18
2708.06
-3037.28
2504.03
-3531.98
2271.88
-3944.96
2021.21
-4250.12
1732.19
-4391.75
1332.31
-4301.2
813.368
-3911.73
247.41
-3259.81
-147.209
-2397.64
-319.818
-1352.9
-333.336
-317.123
3.55387
920.425
-1632.31
-2385.88
-2773.25
-2908.91
-2841.66
-2652.16
-2322.64
-2041.57
-1900.04
-1913.78
-2000.65
-2099.53
-1970.68
-1419.14
-0.0249704
3609.49
-3609.54
3609.46
3609.43
3609.41
6647.87
-3038.48
6647.84
6647.83
6647.81
9180.38
-2532.58
9180.35
9180.35
11238.4
-2058.09
11238.4
11238.4
11238.4
12852.9
-1614.49
12852.9
12852.8
14117.6
-1264.73
14117.5
14117.5
14117.5
15111.9
-994.358
15111.9
15111.9
15111.8
15897.9
-786.087
15897.9
15897.9
16465.8
-567.897
16465.8
16465.8
16465.8
16858.2
-392.481
16858.2
16858.2
17083.1
-224.902
17083.1
17083.1
17083.1
17163.8
-80.7592
17163.8
17163.8
17163.8
17123
40.7905
17123
17123
16966.6
156.345
16966.6
16966.6
16966.6
16704
262.578
16704
16704
16704
16367.7
336.215
16367.8
16367.7
15966.3
401.405
15966.3
15966.3
15966.3
15504.1
462.187
15504.1
15504.1
14998.2
505.826
14998.3
14998.2
14998.2
14444.6
553.543
14444.7
14444.6
14444.7
13860.3
584.299
13860.4
13860.2
13232.9
627.38
13232.7
13232.7
13041
12904.9
12859.5
12134.2
663.624
12079.6
11991.3
11885.2
11775.8
11671.6
11574.5
11491.1
11408.4
10512.7
780.775
10432.5
10357.4
10284.3
10248.8
10216.1
10176.1
10138.8
10090.3
9398.43
640.487
9393.21
9389.8
9375.51
9363.7
9379.12
9436.29
9491.23
9544.4
9590.96
9070.14
555.33
9195.7
9328.07
9449.54
9570.56
9696.04
9861.31
10049.5
10237.8
9839.83
598.164
10038.8
10265.8
10517.1
10772.9
11036.7
11307.7
11585.3
11905.9
11313.4
933.561
11647.5
12000.9
12350
12726.1
13124.8
13531.3
13946.1
14373.6
13510.9
1309.84
13982.4
14479.7
14972.8
15473.7
15987.2
16540.4
17105.9
17681.7
18273.8
17052.2
1810.78
17686.5
18377.6
19060.8
19752.1
20465
21212.9
22017.7
22848.4
21389.2
2252.01
22218.6
23126.4
23126.4
21146.4
1979.94
19193.5
1952.93
19193.4
17904.1
1289.37
17904
17085.1
818.937
16415.4
669.656
16415.4
16266.2
149.249
16305.1
-38.9544
16305.1
16762.9
-457.747
16762.8
17512.7
-749.82
18458.3
-945.648
18458.3
19686.5
-1228.26
19686.5
21097.6
-1411.13
22638.6
-1540.92
22638.5
24379
-1740.49
26203.8
-1824.75
26203.8
28260.1
-2056.37
28260.1
30540.6
-2280.45
33030.7
-2490.17
33030.7
36156.4
-3125.63
36156.4
39709.7
-3553.28
43154.5
-3444.88
43154.5
46747.7
-3593.18
49641.6
-2893.87
49641.6
52508.9
-2867.35
52508.9
55636.1
-3127.18
59366.7
-3730.55
59366.7
65958.8
-6592.14
65958.8
77798.9
-11840.1
94628.1
-16829.2
94628.1
108223
-13595.3
119315
-11091.2
119315
125479
-6164.65
125479
124439
1040.12
118539
5899.66
118539
104736
13803.4
104736
81867.2
22868.9
54206.4
27660.7
54206.4
16091.1
38115.3
-41072.3
57163.4
-41072.3
-128017
86944.3
-128017
-247268
119251
-395914
148646
-395914
-575349
179435
-575349
-794389
219040
-1.02929e+06
234905
-1.02929e+06
-1.31144e+06
282151
-1.59809e+06
286645
-1.59809e+06
-1.92247e+06
324380
-1.92247e+06
375623
-13812.9
-37348.1
-14392.1
-43178.7
-14893.2
-45837.5
-15429.2
-49186.5
-15970
-52182.8
-16529.8
-55221.5
-17105.1
-58180.3
-17705.3
-61159.2
-18339.9
-64178.9
-19019.9
-67287.9
-19756.2
-70525.4
-20558.7
-73937.4
-21432.2
-77564.8
-22373.6
-81428.4
-23378.1
-85536.5
-24447
-89898.2
-25590.1
-94546.9
-26815
-99540.3
-28110.6
-104900
-29449.6
-110558
-30794.4
-116425
-32114.6
-122394
-33418.1
-128470
-34738
-134826
-36104.5
-141578
-37533.2
-148705
-39012
-156044
-40493.4
-163328
-41932.7
-170299
-43313.3
-176801
-44633.1
-182783
-45861.2
-188359
-46939.1
-193462
-47805.8
-197832
-48398
-201210
-48687.7
-203219
-48663.8
-203658
-48306.6
-202148
-47635.6
-198247
-46714.6
-191962
-45658.1
-183624
-44645.2
-174187
-43850.4
-164824
-43367.1
-156339
-43185.5
-148911
-43225.9
-142302
-43374.6
-136144
-43506.6
-130005
-43533
-123479
-43426
-116314
-43207.7
-108462
-42921.9
-100048
-42603
-91236.5
-42277.4
-82173.5
-41976.3
-72983.4
-41743.8
-63749.7
-41643.2
-54498.7
-41749.4
-45240
-42113.6
-36010.3
-42722.4
-26862.7
-43499
-17854.3
-44358.6
-9079.22
-45302.5
-654.884
-46567.9
7580.15
-48390.7
16276.8
-50853.3
26277.5
-54088.1
38235.5
-58275.8
53028.2
-63673.3
71813.9
-70646.2
96270.3
-79727.9
128938
-91718.7
173833
-107858
237604
-130124
331770
-161731
476425
-207776
705366
-274338
1.07046e+06
-354706
1.60433e+06
2.17382e+06
-14464.3
-36999.3
-15000.7
-42642.3
-15479.4
-45358.8
-15996.6
-48669.3
-16522.6
-51656.7
-17074.5
-54669.6
-17648.5
-57606.3
-18253.3
-60554.5
-18896.8
-63535.4
-19589.5
-66595.1
-20342.7
-69772.2
-21167.3
-73112.8
-22069.8
-76662.3
-23048.1
-80450.1
-24094.9
-84489.7
-25205.9
-88787.2
-26387.5
-93365.2
-27650.9
-98276.9
-28990.8
-103560
-30384.7
-109164
-31796.1
-115013
-33185.8
-121004
-34551.7
-127104
-35921.9
-133455
-37327.9
-140172
-38792.3
-147241
-40314.7
-154522
-41852.1
-161790
-43346.8
-168804
-44768.1
-175380
-46114.9
-181436
-47368.3
-187106
-48478.3
-192352
-49393.6
-196917
-50048.2
-200556
-50408.9
-202858
-50468.6
-203598
-50198.9
-202418
-49604.2
-198841
-48733.5
-192832
-47681.9
-184676
-46619
-175250
-45731.8
-165711
-45143.5
-156928
-44871.9
-149182
-44857.1
-142317
-45000.1
-136001
-45179
-129826
-45289
-123369
-45275.3
-116328
-45139.1
-108598
-44921.9
-100265
-44667.3
-91491.1
-44408.3
-82432.6
-44173.3
-73218.4
-43988.3
-63934.7
-43878
-54609
-43874.3
-45243.7
-44020.9
-35863.7
-44360.3
-26523.3
-44911.2
-17303.4
-45667.8
-8322.55
-46657.2
334.491
-48033.4
8956.39
-49959
18202.4
-52528.5
28847
-55887.2
41594.2
-60226
57367
-65811.4
77399.2
-73020.7
103480
-82403
138320
-94776.3
186206
-111400
254228
-134301
354671
-166993
509117
-215528
753901
-285483
1.14042e+06
-360056
1.6789e+06
2.13814e+06
-14808.7
-36662.3
-15314.5
-42136.6
-15781.4
-44891.9
-16288.3
-48162.5
-16807.8
-51137.2
-17356.7
-54120.7
-17932.8
-57030.2
-18544.1
-59943.1
-19197.1
-62882.4
-19901
-65891.3
-20666.9
-69006.3
-21506
-72273.7
-22425.6
-75742.7
-23425.5
-79450.2
-24498.7
-83416.5
-25637.7
-87648.1
-26844.4
-92158.6
-28128.6
-96992.6
-29490.3
-102199
-30910.2
-107744
-32354.1
-113569
-33782.2
-119576
-35186.8
-125699
-36591.4
-132051
-38024.8
-138738
-39509.4
-145756
-41049.8
-152981
-42613.4
-160227
-44138.5
-167279
-45584.1
-173934
-46943.6
-180077
-48205.9
-185843
-49328.2
-191229
-50267.8
-195977
-50960.8
-199863
-51367.6
-202451
-51482.7
-203483
-51275.5
-202625
-50740.3
-199377
-49917.2
-193655
-48890.3
-185703
-47816.9
-176323
-46883.6
-166645
-46229
-157582
-45893
-149518
-45829.8
-142380
-45948.8
-135882
-46135.7
-129640
-46282.7
-123222
-46322.2
-116289
-46239.9
-108681
-46067.9
-100437
-45851.4
-91707.6
-45629.6
-82654.4
-45437.5
-73410.5
-45309.3
-64063
-45275.3
-54642.9
-45361.6
-45157.4
-45591.7
-35633.7
-45989.3
-26125.7
-46577
-16715.8
-47373.9
-7525.66
-48435.1
1395.69
-49906.7
10428
-51938.2
20233.9
-54630.5
31539.3
-58137.2
45100.9
-62658
61887.8
-68469.8
83211.1
-75963.9
110974
-85703.2
148059
-98511.9
199015
-115665
271381
-139357
378363
-173865
543625
-226530
806566
-299558
1.21344e+06
-358247
1.73759e+06
2.06654e+06
-15207
-36337.2
-15683.4
-41660.1
-16136.3
-44439
-16631.6
-47667.1
-17144.1
-50624.7
-17689.8
-53575
-18268.1
-56451.8
-18886.3
-59325
-19549.7
-62218.9
-20266.6
-65174.4
-21047.1
-68225.9
-21901.9
-71418.9
-22840.3
-74804.4
-23864.1
-78426.4
-24967
-82313.6
-26139.1
-86476
-27377.2
-90920.5
-28688.4
-95681.4
-30077
-100810
-31527.7
-106293
-33009.5
-112088
-34482.9
-118102
-35932.5
-124250
-37376.4
-130607
-38842.5
-137272
-40352.8
-144246
-41914.7
-151419
-43506.4
-158635
-45067
-165719
-46544.4
-172456
-47923.2
-178698
-49200.9
-184566
-50342.6
-190088
-51313
-195007
-52054
-199122
-52518.8
-201987
-52702
-203300
-52571.4
-202756
-52109
-199839
-51342.9
-194422
-50344.8
-186701
-49261.5
-177407
-48278.6
-167628
-47549.3
-158312
-47136.6
-149931
-47013.4
-142503
-47100.6
-135795
-47292.5
-129448
-47479.4
-123035
-47580
-116188
-47563.4
-108697
-47449.4
-100551
-47282.1
-91874.9
-47105.2
-82831.3
-46956.6
-73559.1
-46870.7
-64148.9
-46877.5
-54636.1
-47003.8
-45031.1
-47276.4
-35361
-47721.4
-25680.6
-48361.7
-16075.5
-49220.7
-6666.66
-50365.7
2540.74
-51934.6
11996.9
-54074.2
22373.5
-56896.6
34361.7
-60561.9
48766.2
-65279
66604.9
-71337.1
89269.1
-79139.8
118776
-89253.9
158173
-102502
212263
-120231
289111
-145068
403200
-182365
580923
-239661
863862
-313057
1.28684e+06
-356665
1.7812e+06
1.99202e+06
-15575.8
-36025.8
-16024.1
-41211.8
-16463.4
-43999.7
-16947.9
-47182.6
-17454.7
-50117.9
-17998.8
-53030.9
-18580.7
-55869.9
-19206.8
-58698.9
-19882
-61543.7
-20613.3
-64443.1
-21409.2
-67430
-22280.1
-70548
-23236.2
-73848.3
-24282.1
-77380.5
-25413.2
-81182.5
-26618.5
-85270.7
-27890
-89649
-29230.1
-94341.2
-30644.1
-99396.1
-32121.4
-104816
-33636.9
-110572
-35152.6
-116587
-36646.6
-122756
-38130.4
-129123
-39629.9
-135773
-41166.6
-142709
-42748.2
-149838
-44361.8
-157021
-45953.7
-164127
-47462.4
-170948
-48861.6
-177299
-50157
-183270
-51319.6
-188925
-52320
-194006
-53110
-198332
-53636.6
-201460
-53891.6
-203045
-53844
-202803
-53463.5
-200220
-52764.3
-195121
-51806
-187659
-50724.2
-178488
-49702.4
-168649
-48903.6
-159111
-48411
-150424
-48218.2
-142696
-48260.1
-135753
-48442.3
-129265
-48657.5
-122819
-48814.2
-116032
-48864.8
-108647
-48814.1
-100601
-48700.6
-91988.5
-48571.3
-82960.5
-48469.7
-73660.7
-48433.9
-64184.6
-48495.3
-54574.7
-48678.3
-44848.1
-49007.5
-35031.8
-49509.8
-25178.4
-50209.8
-15375.5
-51137.1
-5739.35
-52370
3773.59
-54040.3
13667.2
-56292.7
24626
-59250.9
37319.9
-63082.4
52597.7
-68006.3
71528.8
-74322.2
95585
-82438.2
126893
-92913
168648
-106586
225936
-125014
307539
-151542
429728
-192506
621887
-254002
925357
-324239
1.35708e+06
-347819
1.80478e+06
1.87911e+06
-15933.7
-35728.1
-16356.1
-40789.4
-16782.4
-43573.4
-17256.4
-46708.7
-17758.4
-49615.9
-18302.1
-52487.2
-18888.3
-55283.8
-19523.2
-58064
-20211.1
-60855.8
-20957.6
-63696.6
-21769.8
-66617.7
-22657.5
-69660.3
-23631.4
-72874.5
-24698.1
-76313.7
-25856.1
-80024.6
-27094.4
-84032.3
-28401.5
-88341.9
-29774.4
-92968.4
-31216
-97954.5
-32718.9
-103313
-34265.5
-109026
-35820.1
-115032
-37357.1
-121219
-38881.9
-127598
-40416.3
-134238
-41981.6
-141144
-43584.7
-148234
-45217.6
-155388
-46837.6
-162507
-48378.3
-169407
-49801.4
-175876
-51118
-181954
-52305
-187738
-53337.7
-192974
-54179.9
-197489
-54773.9
-200866
-55105.8
-202713
-55147.5
-202762
-54857.1
-200510
-54234.6
-195743
-53326.8
-188567
-52256.8
-179558
-51204.1
-169702
-50339.8
-159975
-49765.1
-150998
-49494.2
-142967
-49479.3
-135768
-49638.7
-129106
-49870.5
-122588
-50077.5
-115825
-50196.6
-108528
-50215.2
-100583
-50162.8
-92041
-50085.9
-83037.4
-50032.3
-73714.3
-50044.4
-64172.5
-50157.3
-54461.8
-50396.5
-44608.8
-50785.2
-34643.2
-51349.2
-24614.4
-52113
-14611.6
-53110.2
-4742.16
-54430.2
5093.62
-56203.3
15440.2
-58572.4
26995.1
-61671.4
40418.9
-65676
56602.3
-70813.9
76666.7
-77388.8
102160
-85801.2
135305
-96602.8
179449
-110717
240050
-130103
326924
-158978
458603
-204073
666983
-268242
989526
-331547
1.42038e+06
-335571
1.8088e+06
1.76258e+06
-16275.6
-35443.8
-16674.3
-40390.7
-17088.7
-43159
-17553.5
-46244
-18051.9
-49117.4
-18596.3
-51942.8
-19187.6
-54692.5
-19831.8
-57419.7
-20533
-60154.6
-21295.5
-62934.1
-22125.2
-65788.1
-23030.4
-68755
-24022
-71882.9
-25108.6
-75227.1
-26291.4
-78841.8
-27561.6
-82762.1
-28904.8
-86998.6
-30313
-91560.3
-31785.6
-96481.9
-33315.2
-101784
-34889.2
-107452
-36478.4
-113443
-38054.9
-119642
-39619.7
-126034
-41190
-132668
-42785.3
-139548
-44411
-146609
-46062.2
-153737
-47707.3
-160862
-49280.4
-167834
-50730.9
-174425
-52072.2
-180612
-53287.9
-186522
-54354.7
-191907
-55250.6
-196594
-55917.2
-200199
-56331.6
-202299
-56467.3
-202626
-56274.5
-200703
-55739.1
-196279
-54894.3
-189412
-53848.3
-180604
-52774.6
-170776
-51850.3
-160899
-51193
-151656
-50837.4
-143322
-50754.3
-135851
-50876.3
-128984
-51110.4
-122353
-51358.1
-115577
-51543.1
-108343
-51635.5
-100490
-51651.5
-92024.9
-51634.2
-83054.8
-51633.1
-73715.5
-51695.3
-64110.3
-51860.3
-54296.9
-52156.1
-44313
-52605.1
-34194.1
-53232.3
-23987.2
-54062.2
-13781.8
-55131.4
-3672.98
-56539.8
6502.01
-58418.8
17319.2
-60909.4
29485.7
-64155.8
43665.3
-68339.8
60786.2
-73693.4
82020.4
-80515.3
108982
-89192.6
143982
-100301
190558
-114964
254713
-135718
347678
-167578
490463
-216743
716148
-281555
1.05434e+06
-335123
1.47395e+06
-318952
1.79263e+06
1.62306e+06
-16603
-35172.3
-16980.6
-40013.1
-17384.4
-42755.2
-17841.3
-45787.1
-18337.5
-48621.2
-18883.6
-51396.8
-19480.8
-54095.3
-20134.8
-56765.7
-20849.4
-59440
-21628.4
-62155.1
-22476.2
-64940.3
-23399.9
-67831.3
-24409.5
-70873.2
-25515.2
-74121.5
-26721.1
-77635.8
-28021
-81462.2
-29399.9
-85619.7
-30844.6
-90115.6
-32350.7
-94975.8
-33909.7
-100225
-35510
-105851
-37129.8
-111823
-38741.5
-118030
-40343.1
-124432
-41948.7
-131063
-43574.7
-137922
-45223.9
-144959
-46892.9
-152068
-48559.6
-159195
-50164
-166230
-51646.1
-172943
-53016.8
-179242
-54267.5
-185272
-55372.4
-190802
-56322.7
-195643
-57066.6
-199455
-57569.9
-201796
-57804.9
-202391
-57716.9
-200791
-57279.2
-196716
-56509.6
-190181
-55501
-181613
-54417.7
-171859
-53440.3
-161876
-52701.8
-152394
-52257.2
-143767
-52096
-136012
-52166.2
-128914
-52386.5
-122133
-52661.4
-115302
-52906.1
-108098
-53073.6
-100323
-53164.8
-91933.8
-53214.8
-83004.7
-53272.8
-73657.4
-53388.6
-63994.5
-53605.9
-54079.6
-53957.8
-43961
-54467.8
-33684.2
-55158.7
-23296.3
-56054.7
-12885.8
-57196.3
-2531.39
-58694.6
8000.27
-60684.1
19308.7
-63302.6
32104.3
-66702.5
47065.2
-71068.1
65151.8
-76629.1
87581.4
-83672.6
116025
-92584.5
152894
-104029
202003
-119467
270151
-142102
370313
-177412
525773
-230031
768767
-293170
1.11748e+06
-334647
1.51543e+06
-298646
1.75663e+06
1.47306e+06
-16916.9
-34912.6
-17275.8
-39654.2
-17670.5
-42360.6
-18121
-45336.6
-18616.2
-48126
-19165
-50848
-19768.6
-53491.7
-20432.6
-56101.8
-21160.6
-58711.9
-21956.2
-61359.5
-22822.7
-64073.9
-23765.6
-66888.4
-24794
-69844.8
-25918.3
-72997.2
-27145.5
-76408.7
-28472.7
-80134.9
-29885.7
-84206.8
-31367.5
-88633.8
-32908.3
-93435
-34498.4
-98634.5
-36126.3
-104223
-37774.3
-110175
-39416.9
-116388
-41051.2
-122798
-42689.5
-129424
-44345.4
-136267
-46018.5
-143286
-47704.1
-150383
-49387.7
-157511
-51020.2
-164597
-52537.7
-171426
-53943
-177836
-55235.7
-183979
-56386.7
-189651
-57394.3
-194636
-58219.5
-198630
-58817.5
-201198
-59157.4
-202051
-59181.9
-200766
-58851.9
-197046
-58170.6
-190862
-57213.6
-182570
-56133.9
-172939
-55112.6
-162898
-54296.3
-153211
-53759.9
-144303
-53512.2
-136260
-53517.2
-128909
-53706.7
-121944
-53992.4
-115016
-54285.8
-107804
-54525.8
-100083
-54696.1
-91763.5
-54821.1
-82879.7
-54946.6
-73532
-55122.2
-63818.9
-55394.4
-53807.4
-55802.6
-43552.9
-56373.6
-33113.1
-57129.3
-22540.6
-58091.3
-11923.8
-59304.5
-1318.19
-60893.6
9589.31
-62998.1
21413.3
-65749.5
34855.6
-69304.6
50620.4
-73845.5
69692.6
-79593.9
93329.8
-86828.5
123260
-95969.1
162035
-107859
213893
-124409
286701
-149447
395351
-188366
564692
-243336
823737
-302457
1.1766e+06
-330221
1.54319e+06
-275855
1.70227e+06
1.31646e+06
-17218.5
-34663.3
-17561.5
-39311.1
-17948.4
-41973.7
-18394
-44891
-18889.4
-47630.6
-19441.7
-50295.7
-20052.3
-52881.1
-20726.2
-55427.9
-21467.4
-57970.7
-22279.2
-60547.7
-23164.5
-63188.6
-24127.4
-65925.5
-25175.2
-68797
-26318.2
-71854.2
-27565.3
-75161.6
-28917.2
-78783
-30361.9
-82762.1
-31880.1
-87115.6
-33456.3
-91858.8
-35078.2
-97012.6
-36734.8
-102567
-38410.6
-108499
-40081.6
-114717
-41744.9
-121134
-43411.5
-127758
-45094.1
-134584
-46790.2
-141590
-48492.2
-148681
-50189.3
-155814
-51845.7
-162941
-53401.4
-169870
-54846.4
-176391
-56187
-182638
-57394.7
-188444
-58465.5
-193565
-59374.8
-197721
-60073
-200499
-60523.5
-201601
-60667.5
-200622
-60455.3
-197259
-59874.9
-191443
-58984.7
-183460
-57923.3
-174000
-56869.6
-163951
-55981.2
-154099
-55352.5
-144932
-55012
-136600
-54939.6
-128981
-55081.3
-121802
-55358.9
-114739
-55685.7
-107478
-55990.6
-99778
-56240.6
-91513.5
-56445.9
-82674.4
-56646.4
-73331.5
-56890.3
-63575
-57223.8
-53473.8
-57690.3
-43086.5
-58323.2
-32480.1
-59146.2
-21717.6
-60177.6
-10892.4
-61463.6
-32.2117
-63142.8
11268.6
-65364.1
23634.6
-68247.7
37739.2
-71951
54323.7
-76649.7
74391.4
-82558
99238.2
-89964.3
130666
-99377.5
171448
-111914
226429
-129988
304775
-157850
423213
-200173
607014
-256037
879601
-308987
1.22955e+06
-322134
1.55634e+06
-251093
1.63122e+06
1.15231e+06
-17509.1
-34423.1
-17839
-38981.3
-18219.8
-41592.9
-18661.8
-44449
-19158.3
-47134
-19715
-49739
-20332.9
-52263.1
-21016.7
-54744.1
-21770.5
-57216.9
-22597.9
-59720.2
-23501.6
-62284.9
-24484.7
-64942.4
-25552.8
-67728.9
-26714.8
-70692.2
-27980.8
-73895.6
-29354.9
-77408.8
-30828.6
-81288.5
-32381.3
-85562.9
-33992.4
-90247.7
-35646.3
-95358.7
-37331.8
-100881
-39035.8
-106795
-40735.3
-113017
-42425.1
-119445
-44115.3
-126067
-45819
-132880
-47535.5
-139874
-49253.8
-146962
-50964
-154104
-52641.4
-161263
-54235.7
-168276
-55724.2
-174903
-57117
-181246
-58391.2
-187169
-59533.8
-192422
-60531.2
-196724
-61334.7
-199696
-61901.7
-201034
-62171.9
-200352
-62086.7
-197344
-61620.1
-191909
-60812.1
-184268
-59785.3
-175027
-58712.8
-165024
-57760.5
-155051
-57041.4
-145651
-56603.7
-137038
-56443.7
-129141
-56521.6
-121724
-56771.4
-114489
-57112.2
-107137
-57469
-99421.2
-57794.5
-91188.1
-58082.7
-82386.2
-58363.9
-73050.3
-58684
-63254.8
-59087.4
-53070.4
-59617
-42556.9
-60312.1
-31785.1
-61200.4
-20829.2
-62302
-9790.89
-63669.3
1335.07
-65443.3
13042.5
-67776.7
25967.9
-70784.3
40746.8
-74619.9
58159.3
-79453
79224.4
-85499
105284
-93088.7
138256
-102886
181245
-116352
239895
-136374
324797
-167295
454134
-212444
652164
-267544
934701
-312529
1.27453e+06
-310905
1.55471e+06
-225541
1.54586e+06
983931
-17790.5
-34190.3
-18109.8
-38661.9
-18486
-41216.7
-18925.8
-44009.3
-19424.4
-46635.4
-19986
-49177.4
-20611.5
-51637.5
-21305
-54050.7
-22070.7
-56451.2
-22912.7
-58878.1
-23834.1
-61363.6
-24837.1
-63939.4
-25925.8
-66640.2
-27107.4
-69510.6
-28391.7
-72611.3
-29785.7
-76014.8
-31284.8
-79789.4
-32869.4
-83978.3
-34514.3
-88602.8
-36199.9
-93673.1
-37913.9
-99167.2
-39645.8
-105064
-41375.1
-111288
-43091.9
-117728
-44802.4
-124357
-46521
-131162
-48252.9
-138142
-49986.7
-145229
-51710.7
-152380
-53408.1
-159566
-55040.3
-166644
-56575
-173368
-58023.1
-179797
-59371.8
-185821
-60596.8
-191197
-61687.8
-195633
-62601.6
-198782
-63290.5
-200345
-63693.1
-199949
-63743.6
-197293
-63403
-192250
-62693.1
-184978
-61718.3
-176002
-60643
-166099
-59637.8
-156056
-58832.7
-146456
-58295.7
-137575
-58040.2
-129397
-58040.2
-121724
-58242.3
-114287
-58575.5
-106804
-58965.9
-99030.8
-59356.8
-90797.2
-59726.2
-82016.8
-60091.1
-72685.4
-60492.4
-62853.5
-60973
-52589.8
-61573.8
-41956.1
-62335.2
-31023.6
-63288.3
-19876.1
-64458.6
-8620.66
-65912.3
2788.87
-67783.4
14913.6
-70219.3
28403.8
-73336.8
43864.2
-77284.6
62107.1
-82231.8
84171.6
-88413.7
111466
-96246.3
146089
-106611
191610
-121344
254627
-143678
347132
-177641
488097
-224723
699245
-277358
987335
-312975
1.31015e+06
-296856
1.5386e+06
-200325
1.44933e+06
821721
-18064
-33963.1
-18375.5
-38350.3
-18748.7
-40843.6
-19187.5
-43570.4
-19689
-46134
-20255.8
-48610.6
-20889.1
-51004.2
-21592
-53347.8
-22368.8
-55674.4
-23224.4
-58022.6
-24162
-60426
-25184.1
-62917.3
-26293.4
-65530.9
-27494.9
-68309.1
-28797.3
-71308.8
-30209.2
-74603
-31729.8
-78268.8
-33342.3
-82365.8
-35019
-86926.1
-36736
-91956.1
-38478.5
-97424.6
-40237.3
-103305
-41996.8
-109529
-43742.6
-115982
-45474.1
-122625
-47204
-129432
-48945.4
-136400
-50692.3
-143482
-52430.7
-150642
-54146.6
-157850
-55814.1
-164976
-57398
-171784
-58905
-178290
-60333.4
-184392
-61651.1
-189879
-62843.1
-194441
-63872.4
-197753
-64688.5
-199529
-65228.9
-199409
-65423.2
-197099
-65220.2
-192453
-64624
-185574
-63719.8
-176906
-62659.6
-167159
-61615.4
-157101
-60731.6
-147340
-60095.9
-138211
-59739.4
-129753
-59649.9
-121813
-59786.3
-114151
-60089
-106501
-60490.5
-98629.3
-60930.1
-90357.5
-61373.1
-81573.9
-61820.9
-72237.5
-62305.2
-62369.2
-62866.7
-52028.3
-63545.1
-41277.8
-64379.1
-30189.6
-65400.6
-18854.6
-66640.3
-7381.06
-68176.8
4325.38
-70138.3
16875.2
-72666.3
30931.8
-75878.8
47076.7
-79922.7
66151
-84978.4
89227.3
-91328.2
117816
-99519.7
154280
-110696
202786
-127041
270973
-151925
372016
-188643
524815
-236532
747134
-285085
1.03589e+06
-310326
1.33539e+06
-280391
1.50866e+06
-175809
1.34475e+06
673573
-18331.4
-33739.6
-18637.6
-38044.1
-19009.1
-40472.1
-19448.3
-43131.3
-19953.2
-45629.1
-20525.6
-48038.2
-21166.5
-50363.3
-21878.5
-52635.8
-22665.9
-54887
-23533.6
-57154.9
-24485.8
-59473.9
-25525.3
-61877.7
-26654.3
-64401.9
-27875.9
-67087.6
-29196.4
-69988.3
-30624.5
-73174.9
-32162.7
-76730.5
-33798.3
-80730.2
-35503.4
-85221
-37250.8
-90208.7
-39022.3
-95653.1
-40807.8
-101519
-42596.3
-107740
-44372.2
-114206
-46128.6
-120869
-47871.6
-127689
-49617.9
-134654
-51373
-141727
-53125
-148890
-54858.2
-156117
-56557.1
-163277
-58191.7
-170150
-59762.2
-176720
-61273.7
-182881
-62693
-188460
-63995.1
-193139
-65145.5
-196602
-66094.1
-198580
-66777.6
-198725
-67122.4
-196754
-67068
-192507
-66600.9
-186041
-65786.1
-177721
-64760.9
-168185
-63694.7
-158167
-62742.8
-148292
-62011.9
-138942
-61551.4
-130214
-61363.5
-122001
-61418.9
-114095
-61669.4
-106250
-62056.9
-98241.8
-62523.1
-89891.3
-63025.1
-81071.9
-63549.9
-71712.7
-64116
-61803.1
-64758.8
-51385.5
-65516.3
-40520.3
-66425.2
-29280.7
-67515.9
-17763.9
-68823.1
-6073.81
-70437
5939.22
-72481.6
18919.8
-75091.9
33542.1
-78389.2
50374
-82525.8
70287.6
-87709.5
94411
-94302
124408
-103023
163001
-115289
215052
-133550
289234
-161045
399511
-199974
563744
-247417
794577
-290445
1.07892e+06
-304672
1.34962e+06
-261934
1.46592e+06
-152245
1.23506e+06
544197
-18594
-33517.9
-18897.6
-37740.4
-19268.8
-40100.9
-19709.3
-42690.8
-20218.2
-45120.2
-20796.2
-47460.2
-21444.7
-49714.9
-22165.5
-51915
-22962.6
-54089.9
-23841.2
-56276.3
-24806.1
-58509
-25861
-60822.8
-27007.9
-63254.9
-28248.7
-65846.8
-29587.2
-68649.8
-31030.2
-71731.9
-32582.5
-75178.3
-34235.7
-79077
-35964.7
-83492
-37740.3
-88433.1
-39540.7
-93852.7
-41353.4
-99706.4
-43169.4
-105924
-44974.8
-112401
-46759.2
-119085
-48520.8
-125927
-50272.3
-132903
-52029.2
-139970
-53790.8
-147128
-55541.2
-154366
-57268.7
-161550
-58954.4
-168464
-60593.8
-175080
-62191.2
-181283
-63718.8
-186933
-65140.7
-191717
-66419.2
-195324
-67505.8
-197493
-68336.9
-197894
-68838.5
-196253
-68942.2
-192404
-68618.8
-186365
-67912.6
-178427
-66943.8
-169153
-65875.4
-159235
-64869.7
-149298
-64050.5
-139761
-63485.9
-130778
-63193.6
-122294
-63155.9
-114133
-63335.2
-106071
-63683.8
-97893.3
-64150.4
-89424.7
-64690.5
-80531.8
-65279.9
-71123.3
-65922.3
-61160.7
-66643.7
-50664.1
-67478.6
-39685.4
-68461.3
-28297.9
-69619.3
-16605.9
-70990.2
-4702.91
-72675.3
7624.35
-74797.1
21041.6
-77484
36228.9
-80864.9
53754.9
-85108.3
74531
-90471.2
99773.9
-97425.4
131362
-106886
172462
-120524
228690
-140909
309618
-170875
429477
-211264
604133
-256974
840287
-293265
1.11521e+06
-296243
1.3526e+06
-242165
1.41184e+06
-129766
1.12266e+06
428235
-18853.3
-33295.9
-19156.8
-37437
-19528.9
-39728.8
-19971.7
-42248
-20485.1
-44606.7
-21068.8
-46876.6
-21724.3
-49059.3
-22453.5
-51185.9
-23259.7
-53283.7
-24148.1
-55387.8
-25123.9
-57533.2
-26191.5
-59755.2
-27353.8
-62092.6
-28612
-64588.6
-29967.7
-67294.2
-31424.8
-70274.8
-32987.9
-73615.1
-34653.3
-77411.7
-36400.7
-81744.6
-38201
-86632.8
-40029.4
-92024.3
-41870.3
-97865.6
-43713
-104081
-45545.6
-110568
-47358.5
-117272
-49143.6
-124142
-50905.4
-131141
-52662.6
-138213
-54428.1
-145363
-56193.4
-152601
-57948.7
-159794
-59686.3
-166726
-61399.6
-173367
-63087
-179596
-64726.8
-185293
-66276.6
-190167
-67691.4
-193909
-68921.8
-196263
-69905
-196911
-70568.3
-195589
-70838.5
-192134
-70672.5
-186531
-70093.7
-179006
-69203.8
-170043
-68155.6
-160283
-67114.1
-150339
-66217.4
-140657
-65552.1
-131444
-65152.5
-122693
-65013.1
-114272
-65106.2
-105978
-65393.5
-97605.9
-65833.2
-88985
-66384.6
-79980.4
-67018.6
-70489.3
-67726.3
-60452.9
-68520.8
-49869.7
-69429.1
-38777
-70482.1
-27244.9
-71704
-15384
-73134
-3272.9
-74885.1
9375.38
-77081.2
23237.7
-79845.5
38993.3
-83322.4
57231.7
-87710.2
78918.9
-93337.6
105401
-100811
138835
-111243
182894
-126492
243939
-149080
332206
-181180
461577
-222128
645081
-264866
883025
-293484
1.14382e+06
-285376
1.34449e+06
-221689
1.34816e+06
-108815
1.00979e+06
325319
-19110.2
-33071.7
-19416.2
-37131
-19790.5
-39354.5
-20236.2
-41802.3
-20754.6
-44088.3
-21343.9
-46287.3
-22006.2
-48397.1
-22743
-50449
-23557.7
-52469
-24455
-54490.5
-25440
-56548.1
-26517.8
-58677.4
-27692.3
-60918.2
-28965
-63315.9
-30336
-65923.2
-31806.1
-68804.7
-33377.8
-72043.3
-35050.3
-75739.2
-36809.7
-79985.3
-38629.7
-84812.8
-40483.9
-90170.1
-42353.4
-95996.1
-44223.8
-102211
-46082.2
-108710
-47921.2
-115433
-49731.7
-122332
-51510.9
-129362
-53273.7
-136450
-55042.3
-143594
-56819.8
-150823
-58602
-158012
-60389.2
-164939
-62178
-171578
-63960.5
-177814
-65716.2
-183537
-67400.2
-188483
-68959.3
-192350
-70340
-194882
-71479.9
-195771
-72309
-194760
-72752.6
-191690
-72756
-186527
-72322.7
-179439
-71534.4
-170832
-70531
-161287
-69475.8
-151395
-68517
-141616
-67758.3
-132202
-67251.8
-123200
-67005.7
-114518
-67001.7
-105982
-67210.1
-97397.5
-67598.1
-88597.1
-68132.1
-79446.4
-68783.9
-69837.5
-69537.7
-59699.1
-70394.6
-49012.8
-71370.6
-37801.1
-72488.9
-26126.5
-73769.5
-14103.4
-75253.7
-1788.7
-77067.7
11189.4
-79341.5
25511.6
-82195.7
41847.5
-85799.1
60835.1
-90396.2
83515.9
-96405.7
111411
-104578
147008
-116203
194519
-133232
260968
-157951
356925
-191672
495298
-232197
685606
-270837
921665
-291150
1.16414e+06
-272466
1.32581e+06
-200932
1.27662e+06
-89430.9
898286
236929
-19365.6
-32843.3
-19676.6
-36820
-20054.5
-38976.6
-20503.7
-41353
-21027.4
-43564.6
-21622.4
-45692.3
-22290.8
-47728.6
-23034.7
-49705.1
-23857
-51646.7
-24762.2
-53585.4
-25755.1
-55555.2
-26840.9
-57591.6
-28024.1
-59734.9
-29307.5
-62032.5
-30690.7
-64540
-32171.9
-67323.5
-33750.4
-70464.8
-35425.8
-74063.8
-37190.6
-78220.5
-39024.3