/*--------------------------------*- C++ -*----------------------------------*\
| =========                 |                                                 |
| \\      /  F ield         | OpenFOAM: The Open Source CFD Toolbox           |
|  \\    /   O peration     | Version:  4.1                                   |
|   \\  /    A nd           | Web:      www.OpenFOAM.org                      |
|    \\/     M anipulation  |                                                 |
\*---------------------------------------------------------------------------*/
FoamFile
{
    version     2.0;
    format      ascii;
    class       volVectorField;
    location    "30";
    object      U;
}
// * * * * * * * * * * * * * * * * * * * * * * * * * * * * * * * * * * * * * //

dimensions      [0 1 -1 0 0 0 0];

internalField   nonuniform List<vector> 
6785
(
(1.01891e-11 -0.834701 16.1441)
(1.06365e-11 -6.69411 12.5188)
(-2.83234e-12 -4.77823 12.9118)
(4.24472e-12 -4.2841 12.6574)
(1.59026e-12 -3.66059 12.4859)
(-1.36525e-12 -3.18466 12.2569)
(3.83202e-12 -2.78878 11.9947)
(8.26584e-13 -2.48849 11.6851)
(-2.03834e-12 -2.28786 11.33)
(3.6475e-12 -2.17175 10.9581)
(1.10942e-12 -2.13864 10.6045)
(-1.68159e-12 -2.3657 10.1848)
(4.4289e-12 -2.86186 9.59436)
(-8.31815e-13 -2.19709 9.09045)
(-8.74937e-12 0.765235 7.19718)
(2.66497e-11 -7.68841 26.258)
(1.53231e-11 -16.6113 21.9077)
(-1.89319e-12 -11.5412 22.3903)
(1.82504e-11 -11.9271 20.9229)
(1.18872e-12 -10.9183 19.9428)
(3.93792e-12 -10.2334 18.8852)
(1.74324e-11 -9.52252 17.835)
(2.67034e-13 -8.84164 16.7719)
(5.22643e-12 -8.18895 15.6866)
(1.72129e-11 -7.55086 14.5807)
(6.29378e-13 -6.8882 13.5136)
(8.79498e-12 -6.26209 12.4703)
(2.08215e-11 -5.52383 10.7039)
(-9.73018e-12 -3.26318 6.32961)
(-8.1073e-12 0.724375 -1.19808)
(7.86157e-12 -10.3031 27.8535)
(1.61968e-11 -17.6541 24.0496)
(-4.83829e-12 -11.7419 24.5695)
(-2.37017e-12 -12.8406 22.2863)
(3.08425e-12 -11.2246 21.1824)
(-3.07837e-13 -10.5315 19.6896)
(-5.05512e-12 -9.64542 18.2942)
(2.82279e-12 -8.86707 16.8876)
(-1.60693e-13 -8.16021 15.5587)
(-7.6483e-12 -7.56787 14.3494)
(7.37335e-12 -7.04512 13.249)
(2.0189e-12 -6.42631 12.0466)
(-1.82112e-11 -5.03206 9.55085)
(1.57645e-12 -1.54617 3.01117)
(-9.89821e-12 -0.113781 -4.11462)
(1.67986e-11 -11.2459 26.7486)
(4.88312e-12 -17.1843 23.4384)
(2.95216e-12 -11.5529 23.8838)
(-6.34139e-12 -13.2441 21.0136)
(-7.43992e-12 -11.189 20.0127)
(8.75177e-12 -10.7338 18.2083)
(-8.5177e-12 -9.75908 16.6876)
(-1.15717e-11 -8.97634 15.1066)
(1.11539e-11 -8.2386 13.6416)
(-7.80211e-12 -7.68875 12.3838)
(-1.57539e-11 -7.32422 11.3497)
(1.79724e-11 -6.96784 10.2565)
(-1.32364e-13 -6.21925 8.66389)
(-4.28352e-11 -4.4901 5.63366)
(-1.55914e-11 -3.35488 2.22565)
(1.05293e-11 -11.946 26.4911)
(-1.74709e-11 -16.7356 23.5157)
(-4.41999e-12 -11.6739 23.8725)
(-1.47893e-11 -13.3737 20.8869)
(-2.42654e-11 -10.9825 19.991)
(-2.98532e-12 -10.6366 18.043)
(-2.14195e-11 -9.42902 16.5791)
(-2.92306e-11 -8.51695 14.93)
(-1.27559e-11 -7.33464 13.0687)
(-4.729e-11 -5.95336 10.689)
(-7.24641e-11 -4.90143 8.51967)
(-4.20224e-11 -4.91609 7.68922)
(-5.9705e-11 -5.27987 7.58827)
(-1.3435e-10 -5.10119 7.16044)
(-6.35258e-11 -4.83346 6.43185)
(1.72772e-11 -12.5381 26.6849)
(-1.04908e-11 -16.831 24.5735)
(3.45199e-12 -11.9841 24.4976)
(-1.74236e-11 -13.5622 21.6394)
(-1.83188e-11 -10.967 20.8574)
(7.52517e-12 -10.7978 18.9454)
(-2.41534e-11 -9.47734 17.7618)
(-1.85152e-11 -8.67055 16.2862)
(-7.66032e-12 -7.40438 14.4625)
(-4.99766e-11 -5.41229 11.2971)
(-4.64719e-11 -2.39752 6.39729)
(4.32072e-11 -0.895058 3.65158)
(8.95949e-11 -1.77922 4.61513)
(5.31419e-11 -3.52609 6.9489)
(7.90955e-12 -3.73963 7.06701)
(3.31253e-11 -12.5939 25.9403)
(1.34595e-13 -17.4648 26.2048)
(1.9449e-11 -12.5587 25.149)
(-1.71954e-11 -14.0357 22.3342)
(-1.00495e-11 -11.4971 21.6067)
(2.03364e-11 -11.4774 19.6671)
(-1.62781e-11 -10.208 18.4828)
(-1.21295e-11 -9.49867 17.0062)
(1.43969e-11 -8.45351 15.3769)
(-2.40949e-11 -7.07024 13.0699)
(-2.51049e-11 -4.45548 9.05257)
(6.04933e-11 -0.986094 3.85324)
(4.29102e-11 1.37433 0.540349)
(-1.62031e-13 1.50437 -0.220359)
(2.05257e-11 -0.308841 1.49022)
(2.11569e-11 -12.0779 23.9798)
(4.33622e-12 -17.7131 27.2295)
(1.93948e-11 -13.3497 25.3898)
(-1.1976e-11 -14.1321 22.4803)
(-1.07674e-11 -12.0689 21.5345)
(1.56443e-11 -11.8368 19.6379)
(-4.15498e-12 -10.7648 18.271)
(-1.39953e-11 -10.0438 16.7368)
(4.09779e-12 -9.20877 15.1845)
(-3.15648e-12 -8.31382 13.5105)
(-1.37785e-11 -7.01554 11.3093)
(8.50552e-12 -4.87199 8.03903)
(1.83509e-11 -2.14132 4.19533)
(-6.07495e-11 1.2734 -0.317016)
(-2.43308e-10 0.80913 -2.97659)
(2.02031e-11 -11.3802 21.7941)
(5.79395e-12 -17.372 27.3216)
(5.06589e-12 -13.7458 25.2489)
(-4.49494e-12 -13.842 22.1739)
(-1.04589e-11 -12.1029 20.9874)
(-5.92149e-12 -11.6586 19.132)
(4.26519e-12 -10.6662 17.6324)
(-7.95682e-12 -9.87505 16.0354)
(-2.06756e-11 -9.05561 14.4462)
(-1.81921e-13 -8.25557 12.9184)
(1.42658e-12 -7.45764 11.3963)
(-3.24789e-11 -6.31713 9.52144)
(-9.65914e-13 -4.74617 6.95751)
(-1.0602e-12 -2.23626 3.59788)
(-1.82595e-10 -0.499929 -1.30769)
(8.25359e-12 -10.8609 20.1876)
(4.23943e-12 -16.7291 26.8747)
(9.9421e-13 -13.7301 24.8522)
(-1.56612e-11 -13.3982 21.7083)
(-1.38112e-11 -11.7822 20.3831)
(-1.39397e-11 -11.2271 18.5503)
(-1.0928e-11 -10.2108 17.0009)
(-8.45439e-12 -9.35008 15.3716)
(-2.87906e-11 -8.48158 13.7941)
(-2.30709e-11 -7.66792 12.348)
(-9.83428e-13 -6.96584 11.0393)
(-3.14811e-11 -6.14297 9.66747)
(-4.18871e-11 -5.12103 7.80943)
(4.56001e-12 -3.31837 5.23818)
(-1.30692e-10 -1.0228 -0.428362)
(-1.03757e-11 -10.7165 19.7428)
(8.33266e-12 -16.2688 26.5338)
(-1.88762e-11 -13.8039 24.7613)
(-1.97297e-11 -13.2638 21.6828)
(-6.83576e-12 -11.7448 20.2411)
(-4.1794e-11 -11.1494 18.4885)
(-2.48385e-11 -10.2181 17.0081)
(-7.29667e-13 -9.40803 15.4825)
(-5.25596e-11 -8.57646 13.9599)
(-3.61466e-11 -7.73276 12.4735)
(7.80801e-12 -6.94774 11.0681)
(-4.95838e-11 -6.13173 9.75527)
(-4.89968e-11 -5.30879 8.26664)
(-6.78556e-11 -3.88164 6.35641)
(-1.82442e-10 -1.6211 1.49589)
(-1.02803e-11 -10.1801 18.2522)
(1.66061e-11 -15.1971 24.9269)
(-4.02691e-11 -13.2169 23.4616)
(-1.92207e-11 -12.7464 20.459)
(9.2378e-12 -11.3306 19.0039)
(-5.85985e-11 -10.8628 17.289)
(-3.44022e-11 -10.0589 15.848)
(2.87442e-11 -9.38827 14.3156)
(-3.3579e-11 -8.75162 12.9096)
(-5.11206e-11 -8.24227 11.7462)
(-1.25244e-11 -7.81647 10.8121)
(-5.26306e-11 -7.32099 10.0379)
(-4.13125e-11 -6.63633 9.14353)
(-6.01177e-11 -5.30194 7.75254)
(-1.34316e-10 -2.6621 2.91734)
(-1.9194e-11 -11.9875 21.2946)
(5.15849e-12 -15.3043 25.8196)
(-3.51909e-11 -13.2318 23.7267)
(-2.09125e-11 -12.2628 21.1279)
(-1.18427e-11 -10.5573 19.5101)
(-5.26508e-11 -9.51024 17.567)
(-3.89131e-11 -8.20305 15.9114)
(-3.7251e-11 -7.25528 14.2928)
(-7.55921e-11 -6.5453 12.9175)
(-4.44304e-11 -6.55436 12.1546)
(-3.06136e-11 -7.53875 12.6306)
(-6.04402e-11 -9.15216 13.9072)
(-4.17264e-11 -10.1673 14.9018)
(-4.80269e-11 -10.8127 15.3452)
(-1.33148e-10 -8.18738 12.5378)
(-2.57754e-11 -9.56626 19.3779)
(-1.64482e-11 -12.4251 24.0802)
(-3.90723e-11 -10.3697 23.6345)
(-3.07369e-11 -9.13312 22.4806)
(-4.37561e-11 -7.34632 21.2322)
(-6.78069e-11 -5.68226 19.3317)
(-9.23085e-11 -3.6377 16.8887)
(-1.07715e-10 -1.1283 13.1191)
(-8.54528e-11 1.93368 7.93889)
(-6.11152e-11 4.66079 2.61202)
(-5.83362e-11 6.02741 -0.895907)
(-4.80822e-11 5.36929 -1.50509)
(-4.11825e-11 2.2012 1.40153)
(-5.38937e-11 -3.70537 9.09825)
(-8.31753e-11 -8.12882 16.7516)
(-3.21118e-11 -28.5157 52.5535)
(-2.78448e-11 -24.443 48.3062)
(-3.46331e-11 -19.6667 41.8391)
(-3.6278e-11 -17.1686 37.6926)
(-5.28812e-11 -14.1278 32.8526)
(-7.92323e-11 -11.8171 28.3833)
(-1.28612e-10 -9.30818 23.6873)
(-1.41699e-10 -6.27242 17.5875)
(-1.08754e-10 -2.14126 10.2226)
(-1.02468e-10 3.14765 1.39471)
(-7.14322e-11 7.89361 -5.58932)
(-2.1821e-11 10.1444 -9.53516)
(-2.64474e-11 11.4548 -13.3114)
(-4.57963e-12 11.9314 -14.748)
(8.35629e-12 4.9831 -4.32729)
(6.95273e-14 0.305951 -1.755)
(2.84558e-14 2.7051 -14.5932)
(-1.32277e-14 3.62807 -10.8358)
(-2.56353e-14 5.07766 -8.22106)
(-1.05699e-14 5.05641 -5.09888)
(4.18941e-14 8.84595 -9.00011)
(1.09492e-14 8.05388 -5.02106)
(9.10911e-14 9.34412 -4.0993)
(-7.47394e-14 8.88339 -2.85137)
(1.35288e-12 13.2219 -5.63262)
(1.58372e-12 11.7396 -2.56413)
(1.71613e-12 12.0031 -1.65929)
(2.21749e-12 17.7186 -3.23773)
(1.90651e-12 14.0917 -1.05442)
(2.25121e-12 15.5191 -0.764188)
(2.80766e-12 14.6181 -0.490186)
(4.39489e-12 20.0177 -1.41348)
(4.46036e-12 16.5179 -0.040346)
(4.71547e-12 16.6425 -0.0355007)
(6.74487e-12 23.4518 -0.471224)
(5.62445e-12 17.8194 0.347054)
(5.86199e-12 19.4339 0.135493)
(5.97052e-12 18.2824 -0.139476)
(7.51512e-12 24.8765 -0.463741)
(5.59762e-12 18.9819 0.10094)
(5.42158e-12 20.8134 -0.143522)
(4.75932e-12 19.6863 -0.456508)
(5.67478e-12 25.7929 -0.698387)
(3.78418e-12 20.3903 -0.149585)
(3.32646e-12 20.5811 -0.401074)
(3.68476e-12 28.155 -0.32022)
(2.22937e-12 20.7762 -0.00759704)
(2.00242e-12 22.5655 -0.243758)
(1.50925e-12 21.4342 -0.51693)
(1.79156e-12 27.7346 -0.385088)
(1.15432e-12 21.6062 -0.0807693)
(8.95924e-13 21.8213 -0.312196)
(8.32742e-13 29.5255 0.095441)
(4.33256e-13 21.5467 0.184725)
(2.57247e-13 23.4228 0.00524623)
(2.52658e-13 22.1607 -0.199435)
(-6.35561e-14 29.0821 0.249244)
(-1.11352e-13 21.5366 0.268033)
(-1.3892e-13 23.5901 0.202395)
(-1.11131e-13 22.3441 0.0637238)
(-1.30923e-13 28.4503 0.588458)
(-1.28381e-13 21.9199 0.589818)
(6.52885e-14 22.1832 0.452184)
(1.25963e-13 29.6423 1.25913)
(2.45457e-13 21.421 0.98976)
(3.35716e-14 23.2666 0.930086)
(-8.99221e-14 21.9747 0.774857)
(-3.80644e-13 28.5349 1.58547)
(-4.53786e-13 20.9641 1.17751)
(-6.84892e-13 22.9522 1.17363)
(-6.54186e-13 21.6871 1.02637)
(-1.14385e-12 27.3788 1.82628)
(-1.07421e-12 20.9268 1.4164)
(-1.27222e-12 21.2087 1.25188)
(-1.70065e-12 28.1097 2.27153)
(-1.36713e-12 20.1672 1.62836)
(-1.37558e-12 21.8693 1.57933)
(-1.4309e-12 20.7047 1.39293)
(-1.13487e-12 26.1153 2.35333)
(-6.05897e-13 19.8385 1.71006)
(-5.76473e-13 20.109 1.47906)
(-7.4866e-13 26.5923 2.6164)
(-7.50182e-13 18.958 1.80217)
(-6.92707e-13 20.5923 1.71469)
(-5.59151e-13 19.4177 1.50346)
(-5.98533e-13 24.9766 2.58608)
(-2.04297e-13 18.117 1.71783)
(6.6829e-16 19.8716 1.67032)
(3.47312e-13 18.7434 1.4726)
(-2.12137e-14 23.4983 2.51165)
(1.49649e-14 17.6601 1.73337)
(1.15569e-13 18.088 1.5036)
(3.09699e-13 22.7924 2.8924)
(1.35092e-13 17.3348 1.69038)
(1.01158e-14 16.2206 2.36609)
(2.0605e-12 18.3183 0.521064)
(9.97154e-13 16.9572 0.0664724)
(8.50505e-14 16.6191 -0.319417)
(-2.19812e-12 20.4107 2.92622)
(4.20498e-12 16.196 0.280807)
(9.07534e-13 16.0403 -0.421434)
(-2.7591e-12 16.0058 -0.446664)
(-4.17966e-12 15.8173 -0.0664323)
(-4.79574e-12 15.6756 0.285053)
(-5.01151e-12 15.4129 0.486873)
(-5.39918e-12 15.5443 0.739655)
(-8.68494e-12 14.7454 1.29874)
(2.21459e-13 17.7922 4.25277)
(-5.03975e-12 14.1093 1.46189)
(-6.01813e-12 13.8911 1.50209)
(-4.85516e-12 13.8878 1.36458)
(-5.11093e-12 13.6898 1.87606)
(-5.34212e-12 13.7332 1.95037)
(-4.32266e-12 13.5189 1.84676)
(-2.4399e-12 13.633 1.6254)
(-2.1289e-12 13.0457 1.23269)
(1.07911e-11 16.3125 2.62763)
(-7.52293e-12 12.5217 1.0973)
(-8.40676e-12 12.6605 0.98517)
(-8.93068e-12 12.6191 0.992905)
(-9.26732e-12 12.5454 0.99117)
(-1.00075e-11 12.543 1.16449)
(-1.01706e-11 12.4817 1.88522)
(-9.39697e-12 12.5571 1.99969)
(-7.99778e-12 12.778 2.03084)
(-8.20311e-12 12.2889 2.16482)
(1.50165e-11 16.7781 1.63658)
(-5.26159e-12 12.056 3.01934)
(-7.01669e-12 12.622 3.07899)
(-8.04118e-12 12.7634 3.08101)
(-8.69289e-12 12.6991 3.11201)
(-9.33085e-12 12.9338 2.97611)
(-1.27074e-11 12.8582 3.57903)
(-1.44666e-11 13.2401 4.03674)
(-1.67085e-11 12.9526 4.6019)
(7.71334e-12 18.4888 2.40499)
(-2.04074e-11 13.2328 4.9869)
(-2.27293e-11 13.9867 5.43239)
(-1.95305e-11 14.2085 6.37149)
(-1.7986e-11 14.3427 6.93044)
(-1.7481e-11 14.5874 7.45842)
(-1.74811e-11 14.6155 8.16108)
(-1.96269e-11 15.1316 8.44964)
(-1.33364e-11 14.585 10.2345)
(-7.21423e-12 21.8829 6.96971)
(-2.01391e-11 15.7048 11.2719)
(-2.10851e-11 16.5714 11.8207)
(-2.1748e-11 16.9804 12.208)
(-2.11454e-11 16.9727 13.1551)
(-2.17123e-11 17.2672 14.1276)
(-2.29926e-11 17.4134 14.9727)
(-2.38577e-11 17.8414 15.5853)
(-2.44095e-11 17.4733 16.8298)
(-2.08219e-11 26.2165 12.3711)
(-2.51566e-11 19.1681 18.1769)
(-2.52346e-11 20.3746 18.9075)
(-2.48945e-11 20.7882 19.6319)
(-2.4549e-11 20.8034 20.4721)
(-2.3811e-11 21.1163 21.061)
(-2.3409e-11 21.2849 22.5087)
(-2.30678e-11 21.4666 23.5912)
(-2.26539e-11 21.9304 24.3296)
(-2.2483e-11 21.5044 25.878)
(-1.8485e-11 32.2973 20.1546)
(-2.15356e-11 24.1742 26.971)
(-2.0994e-11 25.563 28.2883)
(-2.05902e-11 26.158 29.3831)
(-2.02014e-11 26.135 30.4689)
(-1.97469e-11 26.4463 31.4844)
(-1.93288e-11 26.6354 32.7397)
(-1.9399e-11 27.0968 34.1693)
(-1.93905e-11 26.7598 36.2477)
(-1.68145e-11 40.4436 29.2229)
(-2.07908e-11 30.7298 36.2356)
(-2.13095e-11 32.2139 38.4489)
(-1.52369e-11 33.5733 28.0952)
(-1.69889e-11 27.7052 29.1464)
(-1.88707e-11 30.3841 28.3763)
(-1.22371e-11 22.5975 18.7987)
(-1.66802e-11 30.3334 21.4194)
(-1.16906e-11 21.5148 15.604)
(-1.4646e-11 22.5599 16.4425)
(-1.75522e-11 25.9004 14.9166)
(-1.17355e-11 19.6571 10.1224)
(-1.3845e-11 22.2495 9.99502)
(-1.58304e-11 26.5413 7.93739)
(-1.03447e-11 18.5805 5.25933)
(-1.38025e-11 27.7137 4.01838)
(-9.76301e-12 20.3904 2.83561)
(-1.23322e-11 23.1275 1.4715)
(-1.39618e-11 28.919 -0.770169)
(-9.02299e-12 20.613 -0.612609)
(-1.25293e-11 32.4077 -2.66292)
(-9.10166e-12 23.951 -1.93618)
(-1.07797e-11 28.4817 -3.49429)
(-1.19716e-11 34.1129 -4.7393)
(-8.06322e-12 26.3761 -3.12803)
(-9.20975e-12 33.6837 -4.52143)
(-1.07549e-11 40.8646 -5.20183)
(-7.15976e-12 28.8979 -3.38534)
(-9.41357e-12 46.2976 -5.14787)
(-6.71214e-12 34.5002 -3.45454)
(-8.30587e-12 40.5661 -4.64593)
(-9.55091e-12 51.1135 -3.99021)
(-6.44316e-12 36.5332 -2.0993)
(-8.53329e-12 59.3016 -2.721)
(-6.27664e-12 43.871 -1.03851)
(-7.36971e-12 53.0512 -1.52161)
(-8.95939e-12 64.8911 1.7509)
(-6.09276e-12 50.0623 2.8721)
(-7.12654e-12 65.1387 3.91398)
(-8.59107e-12 78.1548 10.2783)
(-5.86082e-12 55.3572 8.443)
(-7.87929e-12 86.5611 13.1683)
(-5.71545e-12 63.9608 11.4115)
(-6.81551e-12 73.5218 14.2978)
(-7.39491e-12 92.6908 12.0756)
(-4.78142e-12 66.3123 12.0705)
(-6.41228e-12 105.556 -2.53698)
(-4.64004e-12 80.1503 0.75346)
(-5.43701e-12 97.5435 -22.2257)
(-6.14579e-12 131.132 -82.914)
(-4.12844e-12 113.156 -60.4407)
(-4.74253e-12 146.717 -93.6205)
(-5.12085e-12 169.112 -135.218)
(-3.33463e-12 136.14 -92.546)
(-4.18886e-12 195.866 -140.239)
(-2.91404e-12 157.507 -104.033)
(-3.50218e-12 183.825 -135.322)
(-4.02759e-12 177.778 -177.109)
(-2.65993e-12 135.244 -122.281)
(-3.5077e-12 183.234 -185.169)
(-2.48023e-12 133.815 -139.926)
(-2.95301e-12 149.857 -199.626)
(-3.34365e-12 111.298 -290.5)
(-2.13535e-12 42.4214 -203.298)
(-3.4081e-12 104.522 -339.616)
(-1.71712e-12 3.34706 -295.689)
(-2.98836e-13 -93.4532 -70.8967)
(-4.15174e-13 -86.6852 -84.134)
(3.17796e-13 -170.359 53.4043)
(7.46492e-13 -202.979 146.906)
(1.67403e-12 -478.546 348.511)
(1.77319e-12 -489.623 369.369)
(2.70533e-12 -796.016 574.588)
(2.47624e-12 -671.608 544.247)
(4.03807e-12 -1048.08 899.857)
(4.39678e-12 -1395.07 995.667)
(3.83154e-12 -1199.08 895.93)
(6.01363e-12 -1736.95 1419.16)
(5.94439e-12 -2023.87 1442.06)
(5.03562e-12 -1916.66 1258.64)
(7.26023e-12 -2873.3 1820.55)
(5.71317e-12 -2304.06 1469.63)
(9.08246e-12 -3228.71 2355.35)
(-2.81348e-15 50.2295 89.6857)
(-4.15485e-15 58.2357 94.4572)
(-4.83581e-15 61.696 97.4579)
(-5.3821e-15 66.2 101.11)
(-5.58577e-15 70.1994 104.615)
(-5.37543e-15 74.2716 108.316)
(-4.65166e-15 78.2333 112.082)
(-3.29092e-15 82.2335 115.986)
(-1.10513e-15 86.2986 120.084)
(2.16081e-15 90.4957 124.447)
(6.84139e-15 94.8774 129.151)
(1.33345e-14 99.504 134.264)
(2.20872e-14 104.423 139.851)
(3.35121e-14 109.654 145.911)
(4.79556e-14 115.206 152.404)
(6.56883e-14 121.096 159.304)
(8.69174e-14 127.379 166.655)
(1.11699e-13 134.132 174.545)
(1.39673e-13 141.36 182.989)
(1.69846e-13 148.956 191.818)
(2.01067e-13 156.785 200.841)
(2.32217e-13 164.714 209.751)
(2.63153e-13 172.797 218.444)
(2.94862e-13 181.291 227.13)
(3.28541e-13 190.35 236.043)
(3.65069e-13 199.928 245.349)
(4.04675e-13 209.775 255.092)
(4.46675e-13 219.492 265.066)
(4.89744e-13 228.739 274.845)
(5.33001e-13 237.338 284.257)
(5.7587e-13 245.242 293.253)
(6.18294e-13 252.568 301.855)
(6.59316e-13 259.196 309.628)
(6.97995e-13 264.779 316.228)
(7.32923e-13 268.965 321.183)
(7.62831e-13 271.294 324.124)
(7.87008e-13 271.519 325.046)
(8.03847e-13 269.121 323.806)
(8.11378e-13 263.556 320.284)
(8.09567e-13 254.884 314.859)
(7.99911e-13 243.604 308.004)
(7.87028e-13 231.063 300.77)
(7.76789e-13 218.824 294.497)
(7.72963e-13 207.868 290.172)
(7.75804e-13 198.312 288.055)
(7.83364e-13 189.762 287.751)
(7.93476e-13 181.684 288.595)
(8.0387e-13 173.485 289.734)
(8.12385e-13 164.663 290.354)
(8.17945e-13 154.956 290.087)
(8.20364e-13 144.356 288.927)
(8.20288e-13 133.057 287.176)
(8.18355e-13 121.271 285.117)
(8.14974e-13 109.181 282.924)
(8.10704e-13 96.9586 280.775)
(8.06356e-13 84.7268 278.909)
(8.03114e-13 72.5393 277.675)
(8.02638e-13 60.4204 277.568)
(8.0667e-13 48.3962 279.09)
(8.15995e-13 36.4718 282.423)
(8.29704e-13 24.656 287.207)
(8.4587e-13 13.0726 292.781)
(8.6322e-13 1.98875 298.7)
(8.83073e-13 -8.61955 305.333)
(9.14115e-13 -19.6293 315.559)
(9.57068e-13 -32.2914 329.649)
(1.01434e-12 -47.4169 348.395)
(1.08906e-12 -66.125 372.781)
(1.18581e-12 -89.8786 404.232)
(1.31115e-12 -120.798 444.75)
(1.47474e-12 -162.087 497.207)
(1.69126e-12 -218.815 565.848)
(1.98392e-12 -299.369 657.098)
(2.39085e-12 -418.303 781.052)
(2.97599e-12 -601.039 954.024)
(3.84543e-12 -890.496 1202.45)
(5.15849e-12 -1354.59 1567.45)
(7.06377e-12 -2050.24 2090.25)
(9.24295e-12 -2872.32 2645.95)
(-3.38627e-15 49.4587 94.1462)
(-4.69634e-15 57.0541 98.6352)
(-5.22506e-15 60.6559 101.414)
(-5.58036e-15 65.0849 104.96)
(-5.55101e-15 69.0713 108.332)
(-5.08901e-15 73.1006 111.965)
(-4.10528e-15 77.0279 115.696)
(-2.4802e-15 80.9724 119.615)
(-2.3129e-17 84.9634 123.76)
(3.52325e-15 89.064 128.195)
(8.5108e-15 93.3262 132.997)
(1.53721e-14 97.8105 138.238)
(2.46074e-14 102.577 143.992)
(3.66831e-14 107.662 150.271)
(5.19651e-14 113.078 157.035)
(7.06574e-14 118.834 164.228)
(9.28289e-14 124.964 171.849)
(1.18422e-13 131.547 179.983)
(1.47077e-13 138.628 188.695)
(1.77818e-13 146.128 197.847)
(2.0958e-13 153.941 207.281)
(2.41263e-13 161.923 216.666)
(2.72663e-13 170.042 225.811)
(3.04791e-13 178.503 234.877)
(3.38921e-13 187.463 244.081)
(3.76069e-13 196.907 253.623)
(4.16581e-13 206.641 263.604)
(4.5991e-13 216.345 273.922)
(5.04515e-13 225.676 284.104)
(5.49141e-13 234.403 293.852)
(5.92978e-13 242.437 303.053)
(6.36169e-13 249.956 311.813)
(6.78062e-13 256.896 319.764)
(7.17953e-13 262.911 326.615)
(7.54611e-13 267.661 331.965)
(7.86444e-13 270.611 335.346)
(8.12669e-13 271.478 336.774)
(8.31683e-13 269.767 336.142)
(8.41059e-13 264.854 333.181)
(8.40641e-13 256.709 328.211)
(8.31652e-13 245.73 321.573)
(8.18377e-13 233.124 314.188)
(8.06692e-13 220.457 307.397)
(8.00853e-13 208.867 302.358)
(8.0183e-13 198.683 299.553)
(8.08218e-13 189.656 298.738)
(8.18181e-13 181.327 299.355)
(8.29609e-13 173.137 300.645)
(8.40089e-13 164.516 301.741)
(8.4803e-13 155.079 302.113)
(8.52695e-13 144.71 301.559)
(8.54573e-13 133.55 300.297)
(8.54527e-13 121.826 298.663)
(8.53194e-13 109.738 296.902)
(8.51155e-13 97.4541 295.209)
(8.4903e-13 85.0796 293.768)
(8.47376e-13 72.6415 292.742)
(8.46758e-13 60.1438 292.299)
(8.48052e-13 47.6408 292.693)
(8.52413e-13 35.2356 294.251)
(8.60733e-13 23.0456 297.214)
(8.7316e-13 11.2098 301.604)
(8.89631e-13 -0.146675 307.357)
(9.11414e-13 -11.2887 314.746)
(9.44503e-13 -23.2089 325.674)
(9.89582e-13 -36.9344 340.439)
(1.04929e-12 -53.37 359.935)
(1.12701e-12 -73.7105 385.222)
(1.22753e-12 -99.5471 417.785)
(1.35769e-12 -133.186 459.692)
(1.52758e-12 -178.124 513.906)
(1.75252e-12 -239.891 584.787)
(2.05664e-12 -327.643 678.874)
(2.47954e-12 -457.222 806.396)
(3.08809e-12 -656.255 984.292)
(3.99764e-12 -971.21 1242.11)
(5.39057e-12 -1471.6 1630.9)
(7.39783e-12 -2191.91 2184.31)
(9.27677e-12 -2916.37 2583.81)
(-3.69709e-15 49.1428 96.5358)
(-4.91734e-15 56.5612 100.803)
(-5.32644e-15 60.2057 103.454)
(-5.55612e-15 64.5936 106.937)
(-5.39749e-15 68.5667 110.247)
(-4.8107e-15 72.5645 113.849)
(-3.70623e-15 76.4617 117.573)
(-1.95482e-15 80.3702 121.526)
(6.38607e-16 84.3192 125.726)
(4.33651e-15 88.3673 130.232)
(9.49925e-15 92.565 135.112)
(1.65801e-14 96.9749 140.443)
(2.61029e-14 101.66 146.299)
(3.85671e-14 106.663 152.705)
(5.43577e-14 112.006 159.632)
(7.36443e-14 117.698 167.014)
(9.63931e-14 123.762 174.819)
(1.22426e-13 130.264 183.102)
(1.51354e-13 137.262 191.945)
(1.82284e-13 144.696 201.255)
(2.14188e-13 152.481 210.879)
(2.46082e-13 160.479 220.508)
(2.7779e-13 168.627 229.92)
(3.10299e-13 177.098 239.237)
(3.44864e-13 186.038 248.648)
(3.82487e-13 195.433 258.347)
(4.23488e-13 205.107 268.438)
(4.67415e-13 214.787 278.89)
(5.12794e-13 224.163 289.285)
(5.58113e-13 232.977 299.226)
(6.02458e-13 241.099 308.556)
(6.45922e-13 248.715 317.362)
(6.88198e-13 255.79 325.38)
(7.28645e-13 261.984 332.331)
(7.66243e-13 266.982 337.905)
(7.99213e-13 270.221 341.576)
(8.26626e-13 271.38 343.329)
(8.46982e-13 269.997 343.11)
(8.57639e-13 265.424 340.57)
(8.58327e-13 257.58 335.971)
(8.50131e-13 246.824 329.596)
(8.37072e-13 234.28 322.275)
(8.24818e-13 221.474 315.281)
(8.17808e-13 209.593 309.829)
(8.17504e-13 199.075 306.555)
(8.22953e-13 189.759 305.349)
(8.32478e-13 181.229 305.711)
(8.44068e-13 172.956 306.939)
(8.55348e-13 164.369 308.202)
(8.64499e-13 155.047 308.9)
(8.70492e-13 144.812 308.73)
(8.73554e-13 133.751 307.803)
(8.74541e-13 122.076 306.436)
(8.74237e-13 109.998 304.916)
(8.73329e-13 97.6954 303.479)
(8.72545e-13 85.286 302.354)
(8.72624e-13 72.8123 301.769)
(8.74162e-13 60.2791 301.903)
(8.77744e-13 47.7109 302.92)
(8.83927e-13 35.166 304.967)
(8.93284e-13 22.7478 308.217)
(9.063e-13 10.6154 312.824)
(9.23557e-13 -1.15579 318.91)
(9.47009e-13 -12.9895 326.895)
(9.82182e-13 -25.7451 338.491)
(1.02972e-12 -40.4379 354.006)
(1.09241e-12 -58.0453 374.39)
(1.17382e-12 -79.835 400.763)
(1.279e-12 -107.511 434.666)
(1.41515e-12 -143.544 478.252)
(1.59287e-12 -191.684 534.585)
(1.82818e-12 -257.852 608.108)
(2.14609e-12 -351.84 705.359)
(2.58796e-12 -490.631 836.762)
(3.22742e-12 -704.259 1021.41)
(4.20098e-12 -1043.47 1296.77)
(5.71182e-12 -1576.1 1722.89)
(7.75163e-12 -2294.51 2283.89)
(9.03144e-12 -2809.73 2458.08)
(-4.04101e-15 48.6424 99.2844)
(-5.15715e-15 55.8277 103.336)
(-5.43696e-15 59.5204 105.855)
(-5.53044e-15 63.8499 109.259)
(-5.23016e-15 67.8036 112.505)
(-4.50448e-15 71.7582 116.072)
(-3.26081e-15 75.6145 119.791)
(-1.36136e-15 79.4708 123.778)
(1.39389e-15 83.3578 128.036)
(5.27574e-15 87.3314 132.623)
(1.06511e-14 91.439 137.595)
(1.79898e-14 95.7425 143.028)
(2.78382e-14 100.309 148.994)
(4.07379e-14 105.193 155.538)
(5.70963e-14 110.427 162.645)
(7.70564e-14 116.021 170.244)
(1.00481e-13 121.987 178.274)
(1.2705e-13 128.378 186.751)
(1.56312e-13 135.265 195.759)
(1.87469e-13 142.618 205.262)
(2.19522e-13 150.367 215.105)
(2.51666e-13 158.384 225.02)
(2.83747e-13 166.564 234.75)
(3.16685e-13 175.032 244.35)
(3.5175e-13 183.929 254.001)
(3.89936e-13 193.252 263.895)
(4.3152e-13 202.847 274.133)
(4.76074e-13 212.489 284.726)
(5.22284e-13 221.918 295.355)
(5.68418e-13 230.846 305.535)
(6.13404e-13 239.101 315.049)
(6.57228e-13 246.86 323.933)
(7.0005e-13 254.137 332.074)
(7.4119e-13 260.595 339.163)
(7.79905e-13 265.947 345.009)
(8.14276e-13 269.599 349.049)
(8.43142e-13 271.179 351.205)
(8.65139e-13 270.262 351.492)
(8.7739e-13 266.162 349.47)
(8.79464e-13 258.739 345.324)
(8.72246e-13 248.285 339.255)
(8.59502e-13 235.82 332.012)
(8.46688e-13 222.825 324.805)
(8.38398e-13 210.55 318.903)
(8.36597e-13 199.572 315.084)
(8.40865e-13 189.856 313.401)
(8.49785e-13 181.056 313.44)
(8.61464e-13 172.675 314.566)
(8.73603e-13 164.135 315.999)
(8.84122e-13 154.959 317.06)
(8.91693e-13 144.896 317.342)
(8.96243e-13 133.965 316.839)
(8.98551e-13 122.355 315.822)
(8.99519e-13 110.284 314.607)
(8.99927e-13 97.9317 313.463)
(9.00478e-13 85.4139 312.624)
(9.01852e-13 72.773 312.317)
(9.04578e-13 60.021 312.717)
(9.09256e-13 47.2001 314.002)
(9.16491e-13 34.3894 316.347)
(9.26831e-13 21.7088 319.932)
(9.40788e-13 9.33193 324.924)
(9.59139e-13 -2.70571 331.454)
(9.84467e-13 -14.9751 340.084)
(1.02171e-12 -28.4016 352.336)
(1.07182e-12 -43.9093 368.637)
(1.13764e-12 -62.5361 389.969)
(1.22297e-12 -85.6042 417.51)
(1.33308e-12 -114.914 452.866)
(1.4756e-12 -153.08 498.284)
(1.66159e-12 -204.062 556.902)
(1.90752e-12 -274.097 633.144)
(2.23919e-12 -373.55 733.546)
(2.70145e-12 -520.726 869.5)
(3.38091e-12 -748.817 1064.96)
(4.4381e-12 -1112.44 1366.88)
(6.05293e-12 -1668.14 1827.7)
(8.00187e-12 -2352.25 2356.64)
(8.81435e-12 -2702.75 2379.9)
(-4.34539e-15 48.2418 101.845)
(-5.32897e-15 55.243 105.673)
(-5.47832e-15 58.9546 108.073)
(-5.44113e-15 63.2272 111.395)
(-5.01281e-15 67.1555 114.587)
(-4.16673e-15 71.0632 118.129)
(-2.80257e-15 74.8732 121.854)
(-7.73515e-16 78.6742 125.881)
(2.13026e-15 82.4996 130.205)
(6.18855e-15 86.4023 134.883)
(1.17742e-14 90.4272 139.956)
(1.93662e-14 94.6338 145.494)
(2.95306e-14 99.0906 151.569)
(4.28423e-14 103.861 158.242)
(5.97327e-14 108.988 165.514)
(8.03316e-14 114.49 173.323)
(1.04412e-13 120.373 181.585)
(1.31509e-13 126.674 190.276)
(1.6107e-13 133.461 199.454)
(1.92359e-13 140.73 209.126)
(2.24469e-13 148.432 219.156)
(2.56813e-13 156.452 229.333)
(2.89255e-13 164.665 239.366)
(3.22668e-13 173.147 249.255)
(3.58278e-13 182.022 259.149)
(3.97056e-13 191.294 269.244)
(4.39213e-13 200.827 279.632)
(4.84281e-13 210.426 290.339)
(5.31124e-13 219.889 301.147)
(5.77986e-13 228.928 311.561)
(6.23553e-13 237.32 321.262)
(6.67735e-13 245.21 330.234)
(7.11136e-13 252.66 338.519)
(7.52946e-13 259.328 345.746)
(7.92714e-13 264.957 351.852)
(8.28513e-13 268.955 356.287)
(8.58856e-13 270.889 358.872)
(8.82517e-13 270.367 359.687)
(8.96509e-13 266.698 358.243)
(9.00142e-13 259.682 354.612)
(8.94124e-13 249.551 348.921)
(8.81927e-13 237.229 341.829)
(8.68785e-13 224.138 334.492)
(8.59382e-13 211.558 328.2)
(8.56089e-13 200.175 323.843)
(8.59034e-13 190.074 321.634)
(8.6711e-13 180.978 321.271)
(8.78578e-13 172.43 322.194)
(8.9128e-13 163.866 323.7)
(9.0298e-13 154.782 325.067)
(9.12079e-13 144.866 325.792)
(9.18167e-13 134.067 325.742)
(9.21846e-13 122.535 325.114)
(9.24069e-13 110.481 324.227)
(9.25742e-13 98.0965 323.391)
(9.2764e-13 85.5055 322.871)
(9.30451e-13 72.7603 322.914)
(9.34658e-13 59.8768 323.692)
(9.40732e-13 46.8876 325.354)
(9.49241e-13 33.8594 328.075)
(9.60714e-13 20.9034 332.048)
(9.75725e-13 8.18187 337.469)
(9.95239e-13 -4.31001 344.475)
(1.0225e-12 -17.1882 353.778)
(1.06187e-12 -31.3892 366.714)
(1.1146e-12 -47.8188 383.836)
(1.18365e-12 -67.5788 406.159)
(1.27302e-12 -92.0585 434.925)
(1.38824e-12 -123.165 471.812)
(1.5373e-12 -163.664 519.138)
(1.73154e-12 -217.716 580.028)
(1.98763e-12 -291.891 658.81)
(2.3329e-12 -397.325 762.349)
(2.81908e-12 -554.325 904.51)
(3.55094e-12 -800.077 1116.35)
(4.70446e-12 -1190.88 1450.86)
(6.3945e-12 -1763.08 1934.66)
(8.17407e-12 -2395.79 2395.1)
(8.35775e-12 -2589.43 2219.85)
(-4.61565e-15 47.8262 104.328)
(-5.44958e-15 54.6508 107.944)
(-5.47296e-15 58.3665 110.238)
(-5.31275e-15 62.5766 113.478)
(-4.76778e-15 66.4711 116.619)
(-3.81242e-15 70.3263 120.145)
(-2.33761e-15 74.0827 123.882)
(-1.85766e-16 77.8214 127.953)
(2.86443e-15 81.5783 132.35)
(7.10145e-15 85.404 137.124)
(1.29054e-14 89.341 142.304)
(2.07611e-14 93.4461 147.953)
(3.12486e-14 97.7874 154.141)
(4.49643e-14 102.434 160.937)
(6.23639e-14 107.443 168.364)
(8.35731e-14 112.841 176.376)
(1.08294e-13 118.633 184.877)
(1.35926e-13 124.843 193.804)
(1.65801e-13 131.535 203.181)
(1.97189e-13 138.718 213.024)
(2.29305e-13 146.365 223.226)
(2.61797e-13 154.382 233.644)
(2.94563e-13 162.62 243.956)
(3.28478e-13 171.117 254.138)
(3.64672e-13 179.974 264.286)
(4.04075e-13 189.199 274.592)
(4.4682e-13 198.675 285.149)
(4.92364e-13 208.232 295.974)
(5.39689e-13 217.717 306.923)
(5.87211e-13 226.866 317.567)
(6.3335e-13 235.41 327.469)
(6.77948e-13 243.442 336.557)
(7.21982e-13 251.071 345.007)
(7.64517e-13 257.954 352.397)
(8.05357e-13 263.856 358.771)
(8.42658e-13 268.202 363.635)
(8.74569e-13 270.498 366.689)
(8.9996e-13 270.377 368.062)
(9.15835e-13 267.158 367.25)
(9.21195e-13 260.58 364.189)
(9.16605e-13 250.814 358.949)
(9.05181e-13 238.681 352.08)
(8.919e-13 225.533 344.675)
(8.81503e-13 212.673 338.039)
(8.76735e-13 200.886 333.153)
(8.7823e-13 190.376 330.377)
(8.8525e-13 180.952 329.541)
(8.9627e-13 172.194 330.18)
(9.09271e-13 163.563 331.665)
(9.21983e-13 154.538 333.275)
(9.32573e-13 144.755 334.428)
(9.40282e-13 134.093 334.863)
(9.45459e-13 122.65 334.676)
(9.4903e-13 110.622 334.162)
(9.51972e-13 98.1987 333.651)
(9.55145e-13 85.5123 333.444)
(9.59267e-13 72.6228 333.812)
(9.64843e-13 59.5601 334.954)
(9.72268e-13 46.3624 337.002)
(9.82052e-13 33.1008 340.127)
(9.94696e-13 19.8956 344.524)
(1.01081e-12 6.89397 350.393)
(1.03152e-12 -5.99733 357.865)
(1.06078e-12 -19.4766 367.846)
(1.10233e-12 -34.477 381.485)
(1.15776e-12 -51.8801 399.456)
(1.23014e-12 -72.8442 422.809)
(1.32367e-12 -98.83 452.853)
(1.44414e-12 -131.853 491.316)
(1.59972e-12 -174.816 540.519)
(1.80178e-12 -232.078 603.484)
(2.06747e-12 -310.62 684.552)
(2.42739e-12 -422.716 791.708)
(2.94433e-12 -591.436 943.033)
(3.74235e-12 -857.95 1176.98)
(4.99328e-12 -1276.15 1544.46)
(6.70545e-12 -1854.75 2030.91)
(8.22133e-12 -2416.34 2394.1)
(7.86115e-12 -2430.45 2069.3)
(-4.8425e-15 47.4427 106.703)
(-5.51535e-15 54.1092 110.115)
(-5.42066e-15 57.8114 112.316)
(-5.14689e-15 61.9564 115.48)
(-4.49705e-15 65.8096 118.579)
(-3.44347e-15 69.6064 122.096)
(-1.86772e-15 73.3031 125.852)
(3.99063e-16 76.9741 129.972)
(3.59072e-15 80.6579 134.446)
(8.00641e-15 84.4041 139.319)
(1.40346e-14 88.253 144.614)
(2.21636e-14 92.2579 150.38)
(3.29792e-14 96.4845 156.684)