/*--------------------------------*- C++ -*----------------------------------*\
| =========                 |                                                 |
| \\      /  F ield         | OpenFOAM: The Open Source CFD Toolbox           |
|  \\    /   O peration     | Version:  4.1                                   |
|   \\  /    A nd           | Web:      www.OpenFOAM.org                      |
|    \\/     M anipulation  |                                                 |
\*---------------------------------------------------------------------------*/
FoamFile
{
    version     2.0;
    format      ascii;
    class       volScalarField;
    location    "13";
    object      p;
}
// * * * * * * * * * * * * * * * * * * * * * * * * * * * * * * * * * * * * * //

dimensions      [0 2 -2 0 0 0 0];

internalField   nonuniform List<scalar> 
6785
(
702.701
648.505
596.638
547.93
502.764
460.455
420.816
383.556
348.237
314.595
283.248
254.822
225.967
191.024
160.529
229.559
207.686
202.999
199.474
194.108
188.592
183.638
179.437
176.147
173.879
172.841
173.464
175.753
177.901
177.853
131.437
125.795
131.734
135.455
138.225
141.544
145.145
148.793
152.423
155.887
158.972
161.764
164.629
166.952
167.537
175.94
175.85
180.244
180.362
180.204
180.256
180.032
179.546
178.876
178.048
177.032
175.853
174.821
174.469
174.703
189.263
190.171
191.911
190.171
188.872
187.802
186.526
185.257
184.112
183.133
182.334
181.688
181.188
181.096
181.22
178.786
179.558
180.666
180.193
180.295
180.52
180.635
180.836
181.134
181.483
181.865
182.247
182.507
182.758
182.684
174.719
175.51
176.968
177.849
178.678
179.298
179.776
180.255
180.695
181.063
181.357
181.577
181.593
181.621
181.181
176.862
177.402
178.852
180.037
180.603
180.869
181.043
181.197
181.294
181.337
181.343
181.325
181.102
181.036
180.491
179.174
179.287
180.348
181.339
181.46
181.415
181.373
181.33
181.263
181.188
181.11
181.045
180.726
180.659
180.101
179.64
179.499
180.191
181.023
180.93
180.818
180.742
180.663
180.577
180.501
180.422
180.373
180.007
179.945
179.377
178.609
178.438
178.942
179.767
179.683
179.653
179.638
179.602
179.559
179.521
179.464
179.443
179.058
179.013
178.432
176.652
176.588
177.065
177.961
177.999
178.129
178.238
178.313
178.374
178.429
178.442
178.484
178.121
178.131
177.58
174.685
174.646
175.142
176.158
176.32
176.605
176.846
177.06
177.264
177.471
177.615
177.804
177.522
177.643
177.228
169.303
169.901
171.007
172.513
173.29
174.324
175.323
176.305
177.259
178.13
178.893
179.502
179.604
180
179.452
174.741
171.657
169.479
168.452
167.471
167.7
168.54
169.898
171.479
173.258
174.962
176.52
177.899
179.735
180.975
240.435
240.207
239.923
239.315
238.855
238.095
237.929
237.161
236.459
235.733
236.346
235.973
235.534
236.379
236.138
235.669
235.222
235.931
235.653
235.38
235.932
235.666
235.284
234.998
235.395
235.151
234.868
234.685
234.972
234.71
234.688
234.821
234.577
234.36
234.255
234.376
234.133
234.167
234.168
233.949
233.779
233.705
233.69
233.488
233.355
233.272
233.269
233.033
233.066
232.997
232.803
232.679
232.638
232.605
232.429
232.339
232.287
232.299
232.116
232.136
232.137
232.011
231.965
231.962
231.981
231.908
231.986
231.984
231.946
231.994
232.055
231.899
231.815
231.778
231.407
230.592
230.642
229.665
226.999
227.126
227.398
226.79
225.539
231.033
222.623
223.043
222.904
222.672
222.503
222.574
222.2
221.023
225.748
215.903
215.958
216.755
217.311
217.241
217.503
217.051
215.427
217.148
208.746
208.523
208.294
208.511
208.949
208.975
208.779
207.78
205.04
200.551
193.989
193.506
192.909
192.17
192.065
192.183
190.639
186.36
171.878
171.049
171.494
171.396
170.245
168.832
167.512
165.779
161.296
140.492
140.463
138.845
138.937
138.583
136.887
134.221
130.168
124.703
100.579
106.32
103.348
101.469
99.5766
97.8232
95.2693
91.4086
86.884
82.854
58.7366
71.7692
69.098
67.9895
66.3644
63.1806
58.8948
57.9088
59.7136
41.2913
58.8498
56.9652
55.596
57.4976
57.4899
58.1654
58.3616
58.368
58.0673
57.6106
57.4473
57.1601
56.9609
56.8267
56.6124
56.556
56.4379
56.4309
56.4022
56.2632
56.2875
56.2312
56.2564
56.3383
56.2945
56.3068
56.3533
56.2029
56.3973
56.52
56.389
56.4697
56.2791
56.7621
56.8288
55.7733
56.5354
57.5245
56.9815
56.4993
55.3966
56.588
57.9955
56.3867
56.009
55.1306
56.7503
57.064
53.6415
56.4626
58.5399
55.6893
54.9738
53.591
55.9775
57.9452
54.9443
54.9855
54.1944
56.175
56.8022
54.1322
56.681
57.5561
55.6478
55.9581
55.0933
56.2454
55.7329
53.9818
54.1423
52.3601
51.7529
50.1545
46.5173
43.1246
38.8363
33.776
26.5745
18.1604
10.3038
3.12458
-0.00378736
0.00603632
0.00761115
0.0127066
0.0177585
0.0232051
0.0288978
0.0348479
0.0409989
0.04724
0.0533091
0.0592412
0.0651398
0.0700822
0.0737839
0.0755251
0.0744422
0.069203
0.0581043
0.0388245
0.00852947
-0.0367458
-0.101666
-0.191415
-0.311223
-0.465054
-0.653546
-0.871034
-1.10142
-1.31264
-1.44998
-1.42985
-1.13898
-0.448868
0.739485
2.40019
4.24332
5.63884
5.85794
4.53128
2.61257
1.62281
0.82249
-1.11816
-2.72581
-5.71908
-1.3532
1.20989
0.751729
-0.570781
-0.360386
3.28804
8.33405
10.1037
6.30939
0.70413
0.121888
3.50168
2.73544
-1.49521
-3.94742
-4.49477
-4.51024
-4.28056
-3.85104
-3.27243
-2.65297
-2.07889
-1.50835
-0.928148
-0.434711
-0.202325
-0.0200233
-0.0342699
-0.168313
-0.920585
-0.483773
1.20089
5.57481
-0.00721862
0.0182506
0.0257141
0.0405912
0.055868
0.0725306
0.0901967
0.109053
0.129062
0.150207
0.172238
0.19584
0.221212
0.246573
0.272146
0.29717
0.320333
0.339631
0.352555
0.355278
0.34323
0.309282
0.2452
0.141528
-0.0117493
-0.222748
-0.494803
-0.821824
-1.18286
-1.53415
-1.79977
-1.86186
-1.55778
-0.701409
0.852777
3.08288
5.64025
7.74044
8.37207
7.27879
5.12319
3.88657
2.1217
-0.158784
-2.04864
-7.53225
-3.96144
-1.39192
-2.61819
-5.25289
-5.49049
-0.290155
7.48209
11.2228
7.87459
1.26428
-1.60108
-0.0632231
-2.05418
-8.24416
-12.1972
-13.3323
-13.4372
-12.9318
-11.7348
-9.71352
-6.94531
-3.95409
-1.5487
-0.278584
0.0747364
-0.0425611
0.0573878
-0.024602
-0.28148
-0.0729534
2.49365
7.00654
15.8366
-0.000621483
0.0387703
0.0535468
0.0786151
0.104545
0.133217
0.163829
0.196819
0.232199
0.270294
0.31158
0.357015
0.405843
0.457362
0.51206
0.569722
0.628814
0.687528
0.743281
0.792025
0.828597
0.844664
0.830281
0.773909
0.662837
0.486078
0.237838
-0.077484
-0.439595
-0.803694
-1.09104
-1.17799
-0.893242
-0.0422778
1.52475
3.78386
6.36804
8.38101
8.69462
7.291
5.68359
4.60208
2.63599
0.607027
-1.78883
-7.13066
-3.83728
-1.69122
-3.37528
-6.2498
-6.26561
-0.761728
6.43859
8.61741
3.72222
-3.53817
-6.80402
-6.19492
-9.34988
-16.2238
-20.4524
-21.8601
-22.0052
-21.1837
-19.2949
-16.2018
-12.0753
-7.61166
-3.80079
-1.38075
-0.357448
-0.203685
0.0771799
0.0456542
-0.378956
0.510535
4.99013
12.4303
24.5538
0.00219356
0.0546165
0.0777455
0.113734
0.151127
0.192721
0.237499
0.286075
0.338602
0.395821
0.459211
0.52911
0.604032
0.685818
0.774462
0.870199
0.97181
1.07794
1.1859
1.29176
1.38969
1.47054
1.5226
1.53213
1.48353
1.36246
1.15984
0.87706
0.531835
0.166514
-0.142453
-0.273054
-0.0545158
0.708409
2.17164
4.32733
6.79877
8.51705
8.30208
6.67528
6.00169
4.82406
2.6131
0.560207
-1.68856
-5.99107
-2.47727
-0.808364
-2.67535
-5.25951
-4.99963
-0.164849
4.85334
4.1202
-2.80975
-10.571
-13.6416
-13.41
-17.2297
-24.2702
-28.5893
-30.2224
-30.4051
-29.326
-26.8188
-22.6942
-17.1475
-11.0623
-5.74526
-2.21898
-0.66226
-0.320124
0.0590909
0.113254
-0.568378
0.343778
6.05657
16.3026
31.2178
-0.00017273
0.0637208
0.0953493
0.142104
0.190893
0.245313
0.304394
0.368916
0.439326
0.516641
0.602558
0.697106
0.799865
0.913698
1.03842
1.17436
1.32129
1.47806
1.64197
1.80936
1.97338
2.12412
2.24801
2.32876
2.34756
2.28638
2.1324
1.88341
1.55389
1.1826
0.84227
0.651658
0.780553
1.4306
2.77874
4.8541
7.25868
8.7064
8.13897
6.81404
6.32423
5.04837
2.69461
0.282642
-1.28269
-4.43651
-1.00267
-0.131721
-2.35145
-4.80638
-4.74985
-1.3195
1.07007
-2.33163
-10.412
-17.7496
-20.2383
-20.5373
-25.0739
-32.1754
-36.5715
-38.3895
-38.5917
-37.2662
-34.2007
-29.1747
-22.3882
-14.839
-8.05269
-3.3306
-1.10936
-0.470939
0.0513277
0.151399
-0.707928
0.0992643
6.45158
18.9714
35.6966
-0.00249157
0.0716119
0.111376
0.168066
0.227454
0.293872
0.366393
0.446064
0.533713
0.630583
0.737954
0.856511
0.987602
1.13353
1.29471
1.47164
1.66494
1.87361
2.09524
2.32637
2.55905
2.7826
2.98162
3.13714
3.22702
3.22941
3.12755
2.91545
2.60395
2.22761
1.85455
1.59963
1.63286
2.16918
3.41898
5.45521
7.83182
9.09638
8.4033
7.39645
6.52811
5.1675
3.01314
0.431435
-0.616202
-2.99684
0.0142823
-0.0250367
-2.65832
-5.17586
-5.61214
-3.77535
-3.77691
-9.00385
-17.2549
-23.6313
-25.7925
-27.1949
-32.7278
-39.9112
-44.4081
-46.3954
-46.5939
-45.0258
-41.4406
-35.5951
-27.6716
-18.7341
-10.4854
-4.53672
-1.60009
-0.599952
0.153343
0.182637
-0.76824
0.118795
6.93058
21.1831
39.1922
-0.000490727
0.0835986
0.131468
0.197541
0.266953
0.344556
0.42947
0.523018
0.626385
0.741151
0.868583
1.01015
1.16819
1.34475
1.54105
1.7581
1.9969
2.25683
2.53592
2.83075
3.13249
3.42958
3.70486
3.93655
4.09903
4.16637
4.11762
3.94271
3.64818
3.26346
2.85071
2.51985
2.44202
2.84861
3.98834
5.96923
8.27686
9.39843
8.6795
7.74124
6.58681
5.27363
3.50639
1.14202
-0.072815
-2.00858
0.453411
-0.310259
-3.09338
-5.59813
-6.48754
-6.12453
-8.12941
-14.5111
-22.4697
-28.1011
-30.7248
-33.7834
-40.3063
-47.4969
-52.1057
-54.2456
-54.412
-52.59
-48.5117
-41.9278
-32.9937
-22.7803
-13.1025
-5.89013
-2.15149
-0.703336
0.368586
0.20129
-0.796406
0.327325
7.64989
23.2692
41.4342
0.00650982
0.101243
0.157894
0.233659
0.313373
0.402186
0.499299
0.606256
0.724502
0.855972
1.00238
1.16576
1.34885
1.55402
1.78325
2.03821
2.32012
2.62883
2.96284
3.31874
3.68697
4.05498
4.40384
4.70882
4.94053
5.06855
5.06716
4.92152
4.63298
4.22445
3.75048
3.31473
3.08907
3.32064
4.29406
6.14082
8.29842
9.29863
8.71282
7.79052
6.48565
5.37939
4.07301
1.97307
0.0805576
-1.419
0.502539
-0.617076
-3.14443
-5.42088
-6.69412
-7.7452
-11.5044
-18.7613
-26.455
-31.9617
-35.8382
-40.7245
-47.8996
-54.9588
-59.677
-61.9485
-62.0533
-59.9601
-55.4055
-48.1491
-38.3177
-26.9336
-15.8691
-7.36871
-2.74635
-0.7788
0.623085
0.155333
-0.789745
0.613356
8.46908
25.2346
43.3884
0.0164571
0.12274
0.189272
0.275608
0.366534
0.4674
0.577518
0.69861
0.832296
0.980737
1.14609
1.33088
1.53815
1.77083
2.03152
2.32252
2.64536
3.00032
3.38635
3.79996
4.23084
4.66541
5.08285
5.45537
5.74946
5.9297
5.96487
5.8345
5.53371
5.07765
4.51184
3.93245
3.51044
3.5069
4.24164
5.8817
7.87614
8.77502
8.60205
7.6937
6.47295
5.49434
4.59083
2.6102
0.0185381
-0.934943
0.553554
-0.539375
-2.53025
-4.48042
-6.28728
-8.85987
-14.2329
-22.2589
-29.948
-35.9543
-41.5146
-48.0107
-55.4486
-62.3017
-67.1321
-69.5073
-69.5224
-67.1398
-62.1215
-54.2506
-43.6256
-31.1739
-18.7742
-8.96942
-3.38436
-0.832804
0.85368
0.0973588
-0.688402
0.974605
9.32487
27.0267
45.184
0.0265629
0.144994
0.222466
0.320284
0.423399
0.537373
0.661659
0.798157
0.948641
1.11542
1.30094
1.50811
1.74032
2.00099
2.29327
2.62006
2.98329
3.38361
3.82039
4.28994
4.78106
5.27912
5.76121
6.19629
6.54642
6.77072
6.83178
6.70275
6.37184
5.84575
5.1603
4.40302
3.74207
3.45278
3.90225
5.33207
7.20669
8.05973
8.42902
7.52655
6.66729
5.60191
4.95712
3.07561
0.169404
-0.228405
0.994487
0.170782
-1.25965
-3.06468
-5.75458
-9.99079
-16.8043
-25.46
-33.4238
-40.3556
-47.6194
-55.3476
-62.8345
-69.5214
-74.4757
-76.9241
-76.8266
-74.1405
-68.6699
-60.2318
-48.8973
-35.4696
-21.7925
-10.6776
-4.06113
-0.866412
1.06425
0.178416
-0.404479
1.42641
10.3077
28.6315
46.8588
0.0349633
0.165581
0.254731
0.364677
0.48069
0.608565
0.747945
0.900951
1.06955
1.25621
1.46362
1.69494
1.95389
2.24425
2.56971
2.93366
3.3385
3.78527
4.27383
4.79982
5.3515
5.91296
6.459
6.95511
7.35858
7.6226
7.70307
7.56643
7.19385
6.58367
5.76188
4.80612
3.88009
3.27855
3.44167
4.71082
6.45595
7.47433
8.23581
7.47817
7.09929
5.78965
5.13229
3.38092
0.74558
0.864651
1.9802
1.47185
0.386726
-1.67892
-5.60121
-11.5103
-19.5028
-28.6107
-37.0543
-45.0951
-53.803
-62.4484
-69.9847
-76.619
-81.7076
-84.2008
-83.977
-80.9795
-75.0649
-66.0926
-54.1091
-39.7849
-24.8969
-12.4769
-4.7724
-0.872157
1.30592
0.505827
0.113929
2.03629
11.5457
30.0786
48.0762
0.0412872
0.183641
0.284818
0.407218
0.536508
0.678689
0.833644
1.00376
1.19126
1.39885
1.62947
1.88657
2.1741
2.49623
2.85708
3.26047
3.70923
4.20494
4.74782
5.33254
5.94732
6.57475
7.1872
7.74648
8.20474
8.50882
8.60762
8.46085
8.04318
7.34527
6.38312
5.22253
4.02203
3.10701
3.01936
4.16471
5.75606
7.11623
8.03708
7.66833
7.68198
6.1714
5.28267
3.64795
1.75419
2.3168
3.39458
3.09032
2.00874
-0.743895
-6.05728
-13.4569
-22.339
-31.7777
-40.8226
-49.9583
-59.7609
-69.1538
-76.8921
-83.602
-88.825
-91.3405
-90.9864
-87.674
-81.3175
-71.8226
-59.2265
-44.077
-28.0561
-14.3507
-5.51487
-0.840645
1.64161
1.1253
0.900889
2.9039
13.0799
31.4413
48.8201
0.046207
0.199593
0.312865
0.447802
0.590497
0.747103
0.917757
1.10514
1.31177
1.54066
1.79511
2.07888
2.39624
2.75175
3.14995
3.59505
4.09028
4.63781
5.23798
5.88453
6.56605
7.2634
7.9465
8.57331
9.09058
9.4384
9.55855
9.4044
8.94507
8.16427
7.06691
5.70413
4.23008
3.0188
2.73818
3.77562
5.28509
6.92013
7.87698
8.02877
8.26119
6.72367
5.60288
4.06807
3.13959
4.01089
5.00332
4.71168
3.30364
-0.394461
-7.00465
-15.586
-25.1409
-34.907
-44.6117
-54.7174
-65.3339
-75.4193
-83.5797
-90.4775
-95.8261
-98.3465
-97.8642
-94.2328
-87.4256
-77.3981
-64.2085
-48.3036
-31.2411
-16.2833
-6.28441
-0.76021
2.1241
2.05434
1.97877
4.11692
14.84
32.7464
49.3868
0.0506848
0.214407
0.33972
0.487147
0.643251
0.814268
1.00059
1.20517
1.43084
1.68098
1.95927
2.26988
2.61752
3.00717
3.44386
3.93226
4.47601
5.0778
5.73784
6.44939
7.20129
7.97266
8.73098
9.43021
10.0115
10.4081
10.5547
10.3989
9.90554
9.05126
7.82739
6.26652
4.52222
3.03922
2.61365
3.50501
4.97562
6.82457
7.8681
8.48475
8.80755
7.39242
6.10401
4.74254
4.77785
5.79679
6.60609
6.13692
4.18985
-0.47045
-8.10104
-17.5514
-27.6982
-37.8979
-48.2807
-59.2018
-70.489
-81.2857
-90.067
-97.2454
-102.709
-105.219
-104.61
-100.65
-93.3721
-82.7896
-69.0201
-52.4325
-34.4278
-18.2603
-7.07446
-0.62113
2.78694
3.27721
3.3498
5.70176
16.713
33.9884
49.9181
0.0554574
0.228979
0.366306
0.526155
0.695642
0.881035
1.08297
1.30466
1.54923
1.82042
2.1223
2.45954
2.83728
3.26109
3.73658
4.26892
4.86231
5.51981
6.24145
7.02069
7.84592
8.6948
9.53227
10.3083
10.9583
11.4086
11.5871
11.4366
10.9181
10.0003
8.65628
6.89597
4.87967
3.14499
2.60641
3.3647
4.78851
6.78469
8.09683
9.02578
9.26213
8.10207
6.89856
5.72061
6.50447
7.54037
8.09787
7.32948
4.78857
-0.657216
-8.98413
-19.0899
-29.8822
-40.6777
-51.7281
-63.3262
-75.2594
-86.8359
-96.3631
-103.894
-109.469
-111.953
-111.214
-106.91
-99.1354
-87.9788
-73.6475
-56.4473
-37.5968
-20.2691
-7.88096
-0.4248
3.64121
4.76845
5.00876
7.62886
18.6189
35.222
50.407
0.0608684
0.24385
0.393273
0.565529
0.748408
0.948165
1.16569
1.40445
1.66785
1.95995
2.28523
2.64878
3.05628
3.51388
4.02784
4.60401
5.2472
5.96084
6.74494
7.59348
8.49399
9.42285
10.3424
11.1987
11.9213
12.4298
12.6457
12.5074
11.9721
10.9976
9.53289
7.56216
5.26357
3.28392
2.62709
3.2735
4.70923
6.84874
8.5762
9.64707
9.62114
8.74849
7.92352
6.94534
8.19724
9.158
9.46552
8.37705
5.32182
-0.659609
-9.43022
-20.1159
-31.6881
-43.2352
-54.9219
-67.0902
-79.7012
-92.1367
-102.469
-110.406
-116.096
-118.534
-117.655
-112.993
-104.706
-92.9724
-78.1003
-60.3407
-40.7268
-22.2969
-8.70107
-0.183028
4.6793
6.5028
6.95223
9.84304
20.5496
36.475
50.9538
0.0669311
0.259172
0.420904
0.605648
0.801998
1.01616
1.2493
1.50513
1.78736
2.10035
2.44895
2.83865
3.27563
3.76661
4.31855
4.93803
5.63056
6.4
7.24659
8.16483
9.14147
10.1517
11.1554
12.0946
12.8934
13.4646
13.7233
13.6037
13.0577
12.0276
10.4322
8.2305
5.63778
3.43749
2.694
3.1867
4.71555
7.03757
9.22241
10.2792
9.95471
9.23054
9.01038
8.26393
9.78776
10.6361
10.7569
9.41869
5.99487
-0.31269
-9.40614
-20.7099
-33.203
-45.6057
-57.8881
-70.5564
-83.8799
-97.2203
-108.376
-116.762
-122.575
-124.942
-123.913
-118.887
-110.093
-97.7979
-82.3945
-64.0987
-43.7893
-24.3274
-9.5305
0.0884158
5.88401
8.45935
9.18763
12.3045
22.5608
37.8277
51.5488
0.0734703
0.274816
0.449178
0.646588
0.856575
1.08523
1.33405
1.60698
1.90806
2.24198
2.61392
3.02976
3.4961
4.02024
4.60976
5.27198
6.01315
6.83765
7.74616
8.7336
9.78633
10.8785
11.9677
12.9921
13.8707
14.5096
14.8171
14.7218
14.1678
13.076
11.3296
8.86926
5.97027
3.58604
2.77749
3.11403
4.81419
7.36837
9.94284
10.8924
10.357
9.56761
9.95588
9.5585
11.2475
12.0151
12.0493
10.5808
6.92283
0.398768
-9.02635
-21.0399
-34.539
-47.8325
-60.6782
-73.8168
-87.8653
-102.099
-114.067
-122.941
-128.88
-131.158
-129.971
-124.59
-115.319
-102.478
-86.5295
-67.6938
-46.7508
-26.3392
-10.3615
0.375707
7.23435
10.6208
11.7322
15.0102
24.729
39.2978
52.1044
0.0802546
0.290508
0.477876
0.688198
0.912063
1.15537
1.41996
1.71005
2.03
2.38485
2.78017
3.22216
3.71788
4.27509
4.90198
5.60653
6.39572
7.27453
8.24421
9.30009
10.4284
11.6026
12.7783
13.8906
14.8533
15.5655
15.928
15.8609
15.2961
14.1278
12.2023
9.45423
6.2546
3.76596
2.84349
3.08757
5.02166
7.89662
10.6772
11.4824
10.8124
9.92442
10.6407
10.7979
12.5931
13.3641
13.4229
11.9387
8.1261
1.38693
-8.466
-21.2734
-35.7768
-49.9352
-63.3362
-76.9543
-91.7138
-106.785
-119.529
-128.92
-134.984
-137.164
-135.82
-130.108
-120.396
-107.012
-90.4849
-71.0989
-49.5833
-28.3089
-11.1824
0.669914
8.70496
12.9699
14.5968
17.9802
27.1133
40.8545
52.8005
0.0870824
0.305942
0.506688
0.730185
0.968212
1.22638
1.50687
1.81418
2.15301
2.5288
2.94744
3.41558
3.94063
4.53088
5.19504
5.94171
6.77856
7.71121
8.74155
9.86536
11.0691
12.3256
13.5895
14.7928
15.8446
16.6365
17.059
17.0201
16.4347
15.1662
13.0266
9.96225
6.48937
3.96787
2.90486
3.13667
5.33318
8.64183
11.4208
11.993
11.3062
10.4313
11.2153
11.9932
13.8871
14.7577
14.9413
13.5115
9.56563
2.52981
-7.8803
-21.5185
-36.9413
-51.9002
-65.8797
-80.017
-95.4523
-111.28
-124.753
-134.678
-140.86
-142.943
-141.448
-135.434
-125.311
-111.373
-94.2443
-74.3063
-52.2671
-30.2132
-11.9779
0.969029
10.2666
15.4877
17.7668
21.2241
29.7323
42.5385
53.5099
0.0938256
0.320857
0.535306
0.772206
1.02468
1.29792
1.59448
1.9191
2.27683
2.6735
3.11541
3.60956
4.16385
4.78701
5.48835
6.27705
7.16145
8.14786
9.23887
10.4308
11.7105
13.0508
14.4054
15.704
16.8506
17.7281
18.2131
18.1963
17.5713
16.1702
13.7801
10.3914
6.73875
4.17651
2.99292
3.2537
5.73307
9.52921
12.0946
12.4077
11.8413
11.1355
11.8788
13.1744
15.2097
16.2634
16.6451
15.2901
11.1818
3.72707
-7.35865
-21.8081
-38.0094
-53.6903
-68.2984
-83.0124
-99.079
-115.578
-129.736
-140.189
-146.486
-148.477
-146.837
-140.543
-130.029
-115.544
-97.8152
-77.3234
-54.7802
-32.0263
-12.7303
1.27755
11.8844
18.1556
21.1968
24.716
32.5514
44.2768
54.0709
0.100439
0.335074
0.563494
0.813955
1.0811
1.36961
1.6824
2.02442
2.40111
2.81863
3.2837
3.80372
4.38704
5.04293
5.78127
6.61192
7.54395
8.58445
9.73673
10.9978
12.3553
13.7821
15.2315
16.631
17.8787
18.8461
19.3912
19.3817
18.6879
17.1146
14.4376
10.7494
7.02785
4.4101
3.09649
3.43098
6.29237
10.4173
12.6208
12.7566
12.2987
11.9848
12.668
14.3871
16.6202
17.9299
18.5517
17.2563
12.9221
4.92715
-6.91719
-22.1154
-38.9339
-55.2611
-70.563
-85.9182
-102.573
-119.668
-134.47
-145.432
-151.843
-153.745
-151.964
-145.401
-134.516
-119.521
-101.214
-80.1534
-57.0996
-33.7189
-13.4212
1.60427
13.516
20.9556
24.8188
28.3951
35.5077
45.9573
54.7902
0.10695
0.348503
0.591124
0.855222
1.1372
1.4411
1.77025
2.12977
2.52546
2.96384
3.452
3.99777
4.60995
5.29836
6.07353
6.94611
7.92598
9.02116
10.2359
11.5681
13.0062
14.5238
16.0736
17.5802
18.9345
19.9928
20.5888
20.5617
19.7601
17.9696
14.9886
11.0897
7.33959
4.65458
3.22963
3.67171
7.04036
11.2418
13.0284
13.0422
12.65
12.8663
13.5629
15.688
18.1554
19.7798
20.6559
19.3839
14.755
6.12803
-6.51711
-22.3827
-39.6681
-56.5759
-72.6374
-88.6981
-105.906
-123.542
-138.949
-150.389
-156.912
-158.725
-156.806
-149.978
-138.753
-123.302
-104.443
-82.7954
-59.2132
-35.2616
-14.0331
1.95863
15.113
23.8648
28.5576
32.1864
38.5271
47.5637
55.4165
0.113448
0.361122
0.618189
0.895935
1.19284
1.51219
1.85775
2.23485
2.6496
3.10886
3.62011
4.19159
4.83256
5.55341
6.36538
7.27996
8.30807
9.45878
10.7375
12.1434
13.666
15.2794
16.9356
18.5553
20.0195
21.1642
21.7931
21.7137
20.7574
18.7075
15.4481
11.4296
7.68522
4.92345
3.38592
3.97462
7.92273
12.0003
13.2975
13.32
13.0431
13.6087
14.5727
17.1086
19.8348
21.812
22.9352
21.6453
16.6719
7.36277
-6.0913
-22.5481
-40.181
-57.6124
-74.4868
-91.3147
-109.051
-127.198
-143.17
-155.049
-161.671
-163.404
-161.351
-154.259
-142.726
-126.873
-107.496
-85.2578
-61.1183
-36.6281
-14.5521
2.34673
16.626
26.8485
32.3416
36.0186
41.5419
49.0873
55.9157
0.120074
0.372942
0.644788
0.936161
1.24805
1.58284
1.94484
2.33953
2.77339
3.2536
3.78801
4.38528
5.05514
5.80855
6.6575
7.61444
8.6914
9.89875
11.2433
12.7257
14.3367
16.0509
17.8187
19.5553
21.1278
22.3472
22.9815
22.8049
21.6421
19.3205
15.8717
11.7843
8.03839
5.1769
3.5825
4.42756
8.83297
12.5966
13.4658
13.6886
13.579
14.228
15.7267
18.6503
21.6677
24.0129
25.3605
24.0221
18.6829
8.68188
-5.56683
-22.5602
-40.4606
-58.3625
-76.0799
-93.7338
-111.99
-130.628
-147.136
-159.407
-166.108
-167.774
-165.594
-158.236
-146.417
-130.21
-110.375
-87.5534
-62.8212
-37.798
-14.9688
2.76962
18.0141
29.8535
36.1104
39.8323
44.5035
50.5535
56.1569
0.127024
0.383974
0.671105
0.976089
1.30301
1.65322
2.03164
2.44394
2.89693
3.39817
3.95588
4.57914
5.27816
6.06449
6.95088
7.95079
9.07749
10.3428
11.755
13.3165
15.0191
16.8376
18.7197
20.5722
22.2445
23.5175
24.119
23.7927
22.3878
19.8429
16.2728
12.1675
8.41087
5.43021
3.83298
5.02009
9.60724
12.9363
13.6597
14.1273
14.2758
14.9188
17.022
20.3118
23.658
26.3687
27.9109
26.5108
20.8105
10.1395
-4.8782
-22.3813
-40.5091
-58.8288
-77.3886
-95.9215
-114.707
-133.823
-150.847
-163.455
-170.22
-171.828
-169.533
-161.913
-149.81
-133.295
-113.072
-89.692
-64.3336
-38.7583
-15.2747
3.22586
19.2549
32.8016
39.8156
43.5735
47.3632
51.8912
56.2887
0.134563
0.394202
0.697373
1.016
1.35803
1.72365
2.11847
2.54838
3.02055
3.54291
4.12407
4.77357
5.50212
6.32186
7.24635
8.29006
9.46753
10.792
12.2735
13.9158
15.7117
17.6352
19.6296
21.5903
23.3445
24.6381
25.1579
24.6354
23.0061
20.3125
16.6662
12.5623
8.76143
5.67119
4.13715
5.68035
10.1571
13.0891
13.8993
14.5625
15.0552
15.756
18.4318
22.1015
25.8075
28.8758
30.5859
29.123
23.0845
11.7844
-3.97302
-21.9853
-40.3356
-59.0212
-78.3895
-97.8406
-117.187
-136.77
-154.293
-167.194
-174.011
-175.564
-173.171
-165.293
-152.904
-136.11
-115.569
-91.6771
-65.6689
-39.5028
-15.4568
3.71757
20.3528
35.5897
43.4169
47.1903
50.1012
53.103
56.4725
0.143031
0.403542
0.723813
1.05615
1.41343
1.79445
2.2057
2.65322
3.1446
3.68813
4.29287
4.96883
5.72724
6.58088
7.5441
8.6324
9.86153
11.2461
12.7977
14.5211
16.4094
18.4345
20.5327
22.5845
24.3902
25.6584
26.0491
25.328
23.5359
20.7319
17.042
12.9563
9.07869
5.93288
4.53917
6.35995
10.4511
13.1219
14.1061
14.9819
15.8406
16.7332
19.9601
24.0361
28.124
31.5434
33.4031
31.8815
25.5354
13.6549
-2.81374
-21.3535
-39.9497
-58.9549
-79.0687
-99.4544
-119.411
-139.463
-157.46
-170.625
-177.482
-178.981
-176.515
-168.391
-155.71
-138.64
-117.841
-93.5043
-66.838
-40.0313
-15.4943
4.25636
21.3464
38.1091
46.8817
50.6384
52.7233
54.2628
56.3793
0.152803
0.411788
0.750525
1.09668
1.46933
1.86578
2.29345
2.75857
3.26914
3.83383
4.46218
5.16467
5.9531
6.8409
7.84321
8.97652
10.2577
11.7026
13.3236
15.1262
17.1024
19.2198
21.4045
23.5177
25.3311
26.5288
26.7797
25.9056
23.9922
21.1124
17.4056
13.3498
9.38606
6.25849
5.04836
6.98124
10.5213
13.0495
14.2117
15.3835
16.5703
17.8558
21.6415
26.1368
30.6244
34.3895
36.3886
34.8134
28.189
15.7744
-1.37835
-20.4732
-39.3587
-58.6503
-79.4287
-100.736
-121.363
-141.896
-160.344
-173.747
-180.635
-182.081
-179.569
-171.224
-158.251
-140.881
-119.862
-95.163
-67.8508
-40.3506
-15.3601
4.86641
22.3125
40.288
50.1856
53.8686
55.1943
55.2901
56.2562
0.164174
0.418519
0.777327
1.13734
1.52546
1.93728
2.38131
2.86395
3.39359
3.97931
4.6311
5.35996
6.17827
7.10011
8.14142
9.31957
10.6524
12.1564
13.8444
15.721
17.775
19.9665
22.208
24.3416
26.1226
27.237
27.3779
26.3877
24.3762
21.4495
17.7525
13.6932
9.69617
6.66167
5.60941
7.40695
10.4763
12.9501
14.3205
15.7788
17.2203
19.1556
23.5022
28.4251
33.3303
37.436
39.5689
37.9433
31.0609
18.1498
0.339039
-19.338
-38.5678
-58.1309
-79.4893
-101.679
-123.025
-144.068
-162.945
-176.556
-183.47
-184.865
-182.337
-173.802
-160.549
-142.843
-121.615
-96.6391
-68.7177
-40.4773
-15.0258
5.5853
23.3621
42.1385
53.3129
56.8326
57.4792
56.1529
56.2915
0.177083
0.422965
0.803524
1.17729
1.58083
2.00785
2.46807
2.96805
3.51656
4.12307
4.79802
5.55294
6.40077
7.35623
8.43593
9.6579
11.0405
12.6001
14.3486
16.2874
18.3994
20.6356
22.8975
25.0196
26.7592
27.8103
27.8703
26.7863
24.6969
21.7428
18.0736
13.9972
10.0546
7.16106
6.19029
7.61513
10.3886
12.8598
14.44
16.2316
17.9471
20.6642
25.5526
30.9208
36.2628
40.7041
42.9663
41.2874
34.1537
20.771
2.32828
-17.9489
-37.581
-57.4212
-79.283
-102.296
-124.386
-145.969
-165.261
-179.053
-185.987
-187.332
-184.815
-176.121
-162.614
-144.547
-123.101
-97.9177
-69.4457
-40.4343
-14.4681
6.46187
24.6241
43.785
56.2447
59.4937
59.544
56.873
56.2707
0.191026
0.424354
0.828204
1.21549
1.6343
2.07633
2.5526
3.06979
3.63706
4.26421
4.96211
5.74273
6.61947
7.60745
8.72361
9.98607
11.4127
13.0187
14.8131
16.7932
18.9366
21.1896
23.4523
25.5608
27.2731
28.2801
28.2761
27.1065
24.9543
21.997
18.3575
14.2977
10.5007
7.74505
6.71211
7.67599
10.26
12.8061
14.5494
16.6876
18.8624
22.3876
27.7978
33.6403
39.4379
44.2078
46.5942
44.8508
37.4575
23.6141
4.56548
-16.315
-36.4014
-56.5439
-78.8472
-102.616
-125.443
-147.586
-167.297
-181.245
-188.189
-189.479
-186.998
-178.169
-164.444
-146.014
-124.325
-98.9821
-70.0322
-40.2454
-13.6737
7.55008
26.2153
45.4436
58.9481
61.8286
61.3342
57.4577
56.2468
0.206386
0.424021
0.852248
1.25282
1.68677
2.14371
2.63596
3.17027
3.75607
4.40341
5.12337
5.92816
6.83128
7.84782
8.99443
10.2886
11.7472
13.3838
15.2053
17.2073
19.366
21.6281
23.8932
25.9959
27.6909
28.6638
28.5992
27.3517
25.1701
22.2305
18.6126
14.6357
11.0279
8.32942
7.08892
7.66001
10.0418
12.752
14.703
17.2051
20.0132
24.3089
30.2428
36.593
42.8608
47.9523
50.4566
48.6291
40.9537
26.6472
7.01774
-14.4529
-35.0319
-55.5163
-78.219
-102.671
-126.215
-148.911
-169.054
-183.145
-190.077
-191.305
-188.875
-179.935
-166.025
-147.26
-125.302
-99.8179
-70.4677
-39.9305
-12.6432
8.89906
28.202
47.3452
61.3913
63.8435
62.7956
57.9335
56.1736
0.225802
0.426732
0.87889
1.29207
1.74042
2.21146
2.71869
3.26879
3.8713
4.53627
5.27482
6.09909
7.02244
8.05968
9.2271
10.5418
12.0201
13.6754
15.5142
17.5319
19.7044
21.977
24.2482
26.3502
28.0318
28.969
28.8433
27.5318
25.3398
22.4261
18.858
15.0661
11.5883
8.80226
7.28035
7.64147
9.83048
12.6985
14.9454
17.8551
21.3864
26.4165
32.8929
39.7788
46.5252
51.9372
54.5501
52.6122
44.6209
29.8369
9.64942
-12.3836
-33.4745
-54.3469
-77.4283
-102.493
-126.731
-149.947
-170.529
-184.767
-191.649
-192.811
-190.439
-181.42
-167.353
-148.291
-126.048
-100.418
-70.7414
-39.5042
-11.3911
10.5434
30.5694
49.631
63.567
65.5754
63.8789
58.2744
56.1516
0.248784
0.433826
0.906716
1.33057
1.79106
2.27378
2.79321
3.35589
3.97134
4.64956
5.40161
6.23962
7.17689
8.22821
9.40983
10.7389
12.2319
13.9022
15.7562
17.7889
19.9754
22.2598
24.5381
26.638
28.3016
29.1997
29.0193
27.6638
25.4758
22.5879
19.1188
15.5321
12.0612
9.09129
7.34751
7.62532
9.72307
12.6655
15.2794
18.6897
22.9754
28.7145
35.7524
43.1945
50.4241
56.1592
58.8682
56.79
48.4414
33.1557
12.4281
-10.1292
-31.7314
-53.0345
-76.4927
-102.105
-127.017
-150.704
-171.714
-186.124
-192.908
-194.01
-191.69
-182.633
-168.433
-149.105
-126.582
-100.783
-70.8426
-38.9748
-9.94371
12.4972
33.214
52.2751
65.4857
67.0792
64.5807
58.4819
56.1726
0.27046
0.441125
0.930229
1.36207
1.83168
2.32309
2.85161
3.42356
4.04852
4.73649
5.49852
6.34675
7.29462
8.35699
9.55016
10.8913
12.3972
14.0811
15.9493
17.9962
20.1954
22.4891
24.7707
26.8634
28.5045
29.3602
29.1294
27.7463
25.5742
22.7367
19.3839
15.894
12.3261
9.19391
7.41292
7.59705
9.686
12.7028
15.7585
19.7586
24.7966
31.2171
38.8287
46.8405
54.5574
60.6146
63.4051
61.1558
52.405
36.586
15.3293
-7.70998
-29.8051
-51.5713
-75.4143
-101.513
-127.075
-151.2
-172.597
-187.229
-193.874
-194.925
-192.655
-183.583
-169.273
-149.69
-126.912
-100.923
-70.7621
-38.3427
-8.33308
14.7517
35.9693
55.0806
67.1322
68.4091
64.9613
58.5869
56.1322
0.288086
0.44561
0.947289
1.38462
1.86078
2.35848
2.89366
3.47253
4.10477
4.80026
5.57013
6.42662
7.38335
8.4552
9.65848
11.0103
12.5275
14.2232
16.1032
18.1613
20.37
22.67
24.9513
27.0329
28.6469
29.4555
29.1719
27.7806
25.6276
22.8516
19.5119
15.9837
12.385
9.21971
7.50788
7.61627
9.71182
12.8891
16.4678
21.0982
26.856
33.932
42.1289
50.7214
58.9281
65.2997
68.1579
65.7087
56.511
40.122
18.3385
-5.1428
-27.6999
-49.9476
-74.186
-100.712
-126.889
-151.449
-173.166
-188.079
-194.586
-195.599
-193.398
-184.275
-169.88
-150.039
-127.039
-100.852
-70.4955
-37.6033
-6.59096
17.2753
38.6555
57.7483
68.4532
69.6009
65.1295
58.5921
56.0922
0.299927
0.445182
0.956125
1.39694
1.87764
2.37979
2.91987
3.50412
4.14225
4.84401
5.62052
6.484
7.44824
8.52811
9.73996
11.1009
12.6275
14.3329
16.2229
18.2907
20.5079
22.8124
25.0906
27.1559
28.7355
29.4928
29.1563
27.7517
25.6048
22.8445
19.4877
15.9439
12.3825
9.29172
7.64757
7.74532
9.88711
13.3208
17.4576
22.7154
29.1478
36.8608
45.6571
54.8414
63.535
70.2106
73.1271
70.4532
60.7673
43.7691
21.4508
-2.44026
-25.4216
-48.1566
-72.8002
-99.6951
-126.443
-151.458
-173.413
-188.654
-195.095
-196.084
-194.009
-184.717
-170.252
-150.151
-126.949
-100.584
-70.0431
-36.7494
-4.74398
20.0147
41.138
59.9838
69.369
70.6718
65.2308
58.5193
56.077
0.305821
0.439729
0.956592
1.3993
1.88294
2.38823
2.93194
3.52038
4.16316
4.87
5.65201
6.52153
7.49239
8.5795
9.79907
11.1683
12.7039
14.419
16.3195
18.3971
20.6216
22.9276
25.1961
27.2352
28.7706
29.4719
29.0906
27.6711
25.5163
22.7562
19.4143
15.892
12.4179
9.46078
7.87321
8.05737
10.3221
14.0575
18.7387
24.5956
31.6631
40.0045
49.4144
59.1988
68.3718
75.3467
78.3155
75.3974