/*--------------------------------*- C++ -*----------------------------------*\
| =========                 |                                                 |
| \\      /  F ield         | OpenFOAM: The Open Source CFD Toolbox           |
|  \\    /   O peration     | Version:  4.1                                   |
|   \\  /    A nd           | Web:      www.OpenFOAM.org                      |
|    \\/     M anipulation  |                                                 |
\*---------------------------------------------------------------------------*/
FoamFile
{
    version     2.0;
    format      ascii;
    class       surfaceScalarField;
    location    "12";
    object      phi;
}
// * * * * * * * * * * * * * * * * * * * * * * * * * * * * * * * * * * * * * //

dimensions      [0 3 -1 0 0 0 0];

internalField   nonuniform List<scalar> 
13220
(
-949.876
2249.78
-1573.95
1924.27
-2053.99
1779.94
-2424.22
1670.13
-2699.84
1575.82
-2888.36
1488.42
-2993.03
1404.58
-3013.83
1321
-2949.58
1235.66
-2797.2
1147.52
-2551.13
1054.13
-2192.97
941.734
-1687.13
794.065
-1012.64
625.711
287.26
373.358
1876.44
442.77
1854.87
437.341
1785.4
406.737
1700.74
380.637
1601.95
359.954
1509.1
345.361
1419.19
337.598
1328.76
333.555
1239.72
327.02
1154.06
309.675
1071.49
267.526
983.896
191.473
870.135
111.468
705.732
398.728
33.6243
1842.84
-97.3403
1985.85
-253.532
1941.62
-371.025
1818.24
-473.058
1704.01
-567.394
1603.45
-651.587
1503.41
-725.625
1402.81
-787.886
1302
-837.11
1203.3
-868.026
1102.42
-855.912
971.794
-740.225
754.466
-434.272
399.801
-35.5446
28.8662
1814
-100.557
2115.29
-225.421
2066.52
-304.349
1897.18
-367.969
1767.67
-416.765
1652.25
-446.006
1532.69
-456.8
1413.61
-451.616
1296.85
-429.923
1181.61
-387.003
1059.52
-311.683
896.492
-192.737
635.553
-48.3601
255.457
-83.9046
169.827
1644.21
146.388
2138.73
124.007
2088.95
123.145
1898.04
127.282
1763.59
136.145
1643.38
149.491
1519.39
166.969
1396.13
187.344
1276.51
208.515
1160.44
229.501
1038.55
244.151
881.845
233.272
646.441
155.417
333.321
71.5123
223.64
1420.62
244.895
2117.47
235.509
2098.42
236.746
1896.79
241.189
1759.23
245.102
1639.45
247.413
1517.17
246.065
1397.45
241.998
1280.63
234.768
1167.67
222.125
1051.22
199.778
904.201
156.621
689.621
78.551
411.414
150.064
204.798
1215.91
240.484
2081.78
215.761
2123.23
193.411
1919.13
179.293
1773.44
165.851
1652.88
152.145
1530.93
137.942
1411.65
123.064
1295.54
108.808
1181.93
94.5601
1065.47
77.2685
921.515
53.1177
713.805
19.556
445.006
169.619
175.206
1040.84
227.222
2029.74
204.852
2145.78
175.381
1948.57
157.067
1791.91
142.56
1667.33
127.652
1545.95
113.212
1426.02
100.068
1308.76
87.2913
1194.67
75.3584
1077.44
61.9215
934.923
42.6826
733.023
16.8899
470.781
186.51
152.856
888.141
221.65
1960.92
208.996
2158.57
181.105
1976.42
163.21
1809.95
150.099
1680.4
137.423
1558.73
123.739
1439.68
110.699
1321.87
98.1169
1207.26
84.8152
1090.76
69.7452
950.094
49.178
753.691
21.7004
498.349
208.209
129.999
758.371
208.459
1882.36
205.128
2162.21
177.21
2004.22
158.706
1828.74
144.308
1694.64
130.94
1572.35
117.273
1453.18
103.386
1335.9
89.7685
1220.75
76.5991
1104.01
61.1152
965.372
41.3741
773.272
17.1488
522.428
225.359
106.858
651.854
188.6
1800.35
195.172
2155.96
169.72
2029.39
151.66
1847.08
139.007
1706.99
126.157
1585.35
112.653
1466.41
99.4346
1349.11
85.3518
1234.67
71.3254
1117.81
56.7417
980.16
38.085
792.022
16.0833
544.504
241.433
93.4929
558.986
175.869
1717.54
190.481
2142.09
164.204
2055.18
139.436
1872.4
121.866
1723.99
108.634
1598.86
94.9077
1479.56
83.0429
1361.04
71.7119
1245.5
60.7449
1128.79
47.7252
992.268
30.3353
808.419
9.76258
564.143
251.18
91.1402
469.18
215.825
1592.92
257.272
2101.44
252.601
2059.8
250.295
1875.05
249.524
1724.69
243.277
1604.97
231.377
1491.59
213.221
1378.68
191.973
1266.45
167.264
1152.77
137.104
1021.34
99.2385
844.607
51.1762
610.535
302.308
130.956
339.23
229.039
1492.96
257.401
2073.7
198.833
2116.45
127.125
1946.83
75.5565
1773.76
52.3698
1627.55
43.083
1497.68
45.2349
1375
50.2429
1258.64
56.6779
1144.09
57.0379
1018.05
39.6022
856.652
12.2452
632.653
314.374
-194.785
258.346
835.886
1263.65
1466.87
1552.16
1518.64
1442.02
1304.91
1152.12
974.361
774.749
552.592
282.706
-0.0186874
928.009
-927.176
927.558
928.217
927.581
1754.04
-825.952
1753.21
1753.47
1752.53
2402.88
-650.619
2401.84
2401.75
2892.31
-491.232
2892.19
2891.5
2891.6
3219.17
-328.014
3219.08
3218.62
3410.13
-191.532
3409.63
3409.39
3409.08
3444.89
-36.0212
3444.48
3444.24
3443.97
3365.56
77.9031
3365.03
3364.71
3206.23
158.313
3205.81
3205.58
3205.39
2966.36
239.016
2966.31
2966.24
2681.36
285.078
2681.21
2681.52
2681.38
2353.53
328.398
2353.5
2353.79
2353.79
2034.32
318.924
2034.11
2033.65
1785.44
248.749
1785.47
1786.08
1786.23
1468.09
318.906
1468.7
1469.88
1470.23
1037.2
434.369
1038.38
1039.91
499.103
541.712
502.081
503.923
506.066
-63.7848
571.228
-58.0768
-57.638
-1054.86
999.791
-1055.03
-1052.51
-1053.23
-2603.64
1552.33
-2604.23
-2602.24
-2603.45
-4535.4
1934.07
-4535.77
-4532.78
-6733.69
2200.4
-6730.44
-6730.88
-6622.85
-6508.63
-6386.41
-8660.56
2391.47
-8544.96
-8400.43
-8229.48
-8055.94
-7881.47
-7712.24
-7535.74
-7338.58
-9672.14
2530.4
-9461.22
-9255.13
-9051.05
-8824.54
-8595.05
-8364.13
-8132.7
-7903.56
-10237.2
2567.26
-9987.54
-9737.57
-9487.27
-9238.14
-8983.61
-8717.47
-8448.86
-8178.11
-7910.3
-10134.6
2480.92
-9852.92
-9569.49
-9285.12
-9001.97
-8720.8
-8425.47
-8121.45
-7820.45
-9748.76
2214.78
-9456.2
-9157.89
-8846.46
-8535.11
-8222.33
-7910.93
-7599.28
-7273.84
-8744.55
1784.04
-8428.11
-8113.11
-7799.81
-7473.39
-7141.1
-6809.96
-6480.38
-6160.76
-6988.68
1144.88
-6667.18
-6348.03
-6031.72
-5718.37
-5409.77
-5116.3
-4827.26
-4546.31
-4276.97
-4198.97
193.883
-3975.07
-3774.35
-3579.52
-3387.53
-3191.41
-3027.62
-2931.28
-2840.42
-2548.78
-188.77
-2463.58
-2370.44
-2370.88
-2248.85
-121.455
-2128.22
-121.969
-2128.74
-2033.54
-96.4304
-2033.81
-1962.06
-72.9052
-1898.5
-63.415
-1899.44
-1847.88
-51.3987
-1798.97
-49.7181
-1798.6
-1755.03
-44.075
-1754.12
-1717.48
-36.9106
-1674.31
-40.8023
-1674.15
-1632.52
-39.0183
-1632.48
-1593.62
-36.2768
-1551.61
-41.8281
-1548.49
-1504.85
-42.8016
-1451.08
-48.3261
-1449.88
-1392
-51.1246
-1391.16
-1327.54
-54.6735
-1269.11
-58.5091
-1260.73
-1200.48
-61.6008
-1190.08
-1124.76
-64.8164
-1043.72
-67.0322
-1046.34
-959.917
-71.5621
-888.591
-76.1917
-878.532
-808.351
-76.1862
-795.737
-726.593
-74.8788
-617.902
-90.4546
-619.875
-514.826
-88.136
-518.289
-417.565
-87.6139
-345.821
-78.5098
-337.78
-276.193
-71.5325
-145.845
-116.508
-154.848
-7.91351
-134.782
-16.4452
133.969
-146.573
324.45
-199.832
324.58
520.35
-203.511
521.768
686.008
-170.053
882.108
-191.563
877.034
1071.08
-191.868
1274.94
-208.794
1274.78
1484.4
-214.54
1486.13
1698.33
-217.249
1941.52
-240.2
1938.3
2206.01
-265.614
2202.6
2472.94
-270.305
2757.9
-288.446
2757.85
3071.56
-316.183
3410.88
-338.148
3409.87
3781.76
-371.819
3781.81
-413.412
-148.322
62.612
-146.868
82.1503
-145.368
87.7519
-143.968
94.253
-142.746
96.9683
-141.587
96.2628
-140.135
97.618
-138.578
98.5842
-137.066
98.2204
-135.788
97.8015
-134.659
95.2815
-133.768
93.1228
-133.043
88.9761
-132.308
85.7387
-131.615
85.2037
-131.068
84.5589
-130.665
82.3326
-130.353
80.9419
-130.165
83.8334
-130.195
87.9067
-130.603
92.6936
-131.338
101.482
-132.22
114.882
-133.282
131.127
-134.709
151.224
-136.491
176.998
-138.665
210.766
-141.191
254.339
-143.995
310.687
-146.946
383.541
-149.851
476.425
-152.595
594.64
-155.267
742.578
-158.602
926.79
-163.988
1157.45
-172.741
1445.93
-185.231
1798.37
-200.775
2197.55
-216.569
2586.17
-223.541
2832.33
-198.346
2683.72
-129.719
1937.82
-99.9691
1218.9
-82.5867
1380.05
-74.3346
1023.31
-89.9324
959.52
-37.5669
705.099
-63.7175
320.267
-43.6162
580.945
-31.922
149.23
-48.7537
-587.71
-47.4236
-874.508
-42.6271
-1306.44
-3.07534
440.827
36.7608
4248.89
51.5217
7594.18
50.7466
5285.61
50.2224
2667.24
12.4364
647.905
-20.3524
278.487
-42.7752
258.057
-59.7976
360.994
-44.8418
31.9446
138.567
23.1769
316.956
-640.717
440.823
-869.394
509.464
-766.496
550.201
-382.908
551.591
-36.7426
645.814
167.693
614.992
-198.823
585.267
704.687
597.667
605.326
645.598
1069.21
631.61
1922.02
611.862
1624.1
603.915
762.677
577.782
-429.193
-2178.38
-145.777
61.9458
-144.697
81.111
-143.523
86.5741
-142.029
92.7731
-140.702
95.5624
-139.769
95.2489
-138.605
96.3563
-137.371
97.2352
-136.266
96.9959
-135.122
96.5111
-134.22
94.2346
-133.21
91.9419
-132.469
88.0672
-132.048
85.1243
-131.485
84.4665
-130.781
83.6698
-130.35
81.6956
-130.354
80.7355
-130.342
83.5582
-130.447
87.7462
-131.189
92.9821
-132.196
102.025
-133.256
115.227
-134.24
131.387
-135.618
151.534
-137.195
177.563
-139.194
211.614
-141.431
255.598
-143.977
312.466
-146.705
385.792
-149.487
479.236
-152.338
597.887
-155.228
746.514
-159.188
932.13
-165.475
1165.47
-175.277
1457.8
-189.042
1814.16
-205.476
2216.21
-221.907
2604.24
-226.986
2839.08
-195.787
2655.31
-129.392
1874.77
-98.9727
1196.15
-74.9156
1361.63
-68.488
1021.82
-72.9464
968.18
-53.0716
685.376
-84.2039
351.438
-45.4135
542.978
-31.0542
135.603
-56.6482
-561.884
-57.7384
-872.66
-59.6776
-1305.49
21.6775
352.7
38.4082
4232.2
53.7792
7578.87
48.6216
5289.86
39.8751
2674.56
9.63666
678.131
-6.19174
294.448
-27.2559
279.021
-12.4551
346.605
-67.6562
83.8563
218.384
-262.035
414.634
-836.129
550.406
-1004.03
638.377
-853.695
716.825
-460.275
730.075
-48.2183
732.496
169.099
604.595
-84.4025
590.286
710.107
538.881
656.067
602.907
1001.8
656.913
1868.68
654.441
1626.14
614.855
794.919
545.51
-368.96
-2010.1
-146.096
60.9868
-144.556
79.5806
-142.996
84.9907
-141.175
90.9444
-139.572
93.8928
-138.452
94.0812
-137.334
95.1876
-136.227
96.0739
-135.217
95.9377
-134.176
95.4148
-133.32
93.3393
-132.433
91.0089
-131.872
87.4748
-131.614
84.8353
-131.185
84.0259
-130.66
83.1291
-130.451
81.4684
-130.668
80.9513
-130.914
83.7867
-131.335
88.1814
-132.298
93.8942
-133.392
103.134
-134.506
116.238
-135.511
132.364
-136.882
152.679
-138.391
178.938
-140.28
213.226
-142.374
257.476
-144.758
314.626
-147.331
388.16
-149.984
481.792
-152.77
600.555
-155.726
749.535
-159.935
936.372
-166.593
1172.17
-176.746
1468.06
-190.739
1828.03
-207.249
2232.73
-223.249
2619.85
-225.641
2841
-189.164
2619.09
-122.738
1808
-95.2329
1170.14
-73.1489
1340.61
-71.5679
1021
-75.0099
973.757
-64.8693
673.371
-102.021
386.841
-52.3037
494.664
-31.9635
118.772
-58.0333
-537.944
-64.5602
-866.851
-72.1436
-1297.12
14.8
272.39
38.6487
4208.6
54.6599
7563.22
47.4829
5296.26
35.3874
2685.31
4.71506
708.838
-9.96668
309.051
-24.7894
293.289
-24.593
347.083
16.1351
40.2394
289.64
-535.165
496.649
-1043.28
644.935
-1152.36
736.481
-944.496
813.245
-535.599
843.164
-75.3927
803.403
217.07
619.857
90.6942
590.086
732.81
526.678
728.308
583.653
943.797
662.939
1791.67
669.007
1621.92
627.09
835.31
541.009
-276.753
-1804.07
-147.718
59.5068
-145.723
77.6365
-143.824
83.121
-141.753
88.9409
-139.978
92.1221
-138.666
92.7921
-137.412
93.954
-136.184
94.8598
-135.07
94.8403
-133.974
94.3188
-133.103
92.4744
-132.283
90.1787
-131.79
86.9815
-131.586
84.6152
-131.253
83.7008
-130.927
82.8084
-130.953
81.4967
-131.402
81.4223
-131.919
84.3074
-132.587
88.8967
-133.683
94.9291
-134.795
104.252
-135.936
117.226
-136.978
133.327
-138.371
153.731
-139.866
180.173
-141.701
214.638
-143.715
259.136
-145.985
316.59
-148.434
390.384
-150.952
484.366
-153.643
603.444
-156.606
753.164
-160.957
941.595
-167.817
1180.21
-178.1
1479.89
-192.088
1843.67
-208.462
2251.12
-223.725
2636.7
-222.976
2841.93
-181.652
2580.54
-116.406
1746.09
-93.3236
1154.21
-76.6674
1328.99
-79.4915
1027.8
-78.6867
976.632
-63.7851
658.454
-94.4229
416.549
-48.1019
448.542
-31.7391
102.134
-57.4778
-512.355
-68.9642
-854.823
-79.9254
-1287.16
14.548
173.771
38.4384
4184.81
54.9548
7546.78
47.1728
5303.33
32.9211
2698.4
4.54731
737.311
-13.7027
326.838
-26.1391
304.511
-10.062
331.399
113.004
-83.351
372.186
-793.35
586.479
-1256.22
742.475
-1306.53
840.551
-1040.96
908.343
-600.955
928.558
-91.7854
856.198
295.154
631.646
307.905
553.954
804.632
499.823
784.987
556.971
883.139
657.542
1690.92
674.085
1603.74
632.831
869.446
520.1
-174.901
-1607.43
-150.52
57.6192
-148.17
75.2924
-145.96
80.8772
-143.645
86.6161
-141.64
90.0509
-140.069
91.1781
-138.595
92.438
-137.165
93.3884
-135.874
93.5156
-134.68
93.088
-133.733
91.5091
-132.925
89.3451
-132.436
86.4854
-132.232
84.404
-131.983
83.466
-131.827
82.6645
-132.051
81.7339
-132.677
82.0833
-133.391
85.0496
-134.194
89.7773
-135.325
96.0951
-136.43
105.486
-137.576
118.421
-138.648
134.566
-140.051
155.145
-141.544
181.797
-143.341
216.426
-145.3
261.128
-147.484
318.737
-149.828
392.638
-152.224
486.665
-154.828
605.829
-157.796
755.976
-162.251
945.778
-169.229
1186.86
-179.516
1489.86
-193.35
1856.96
-209.401
2266.76
-223.542
2650.08
-219.397
2836.89
-174.211
2535.07
-111.063
1681.67
-93.4365
1136.6
-79.8924
1315.3
-86.9093
1034.56
-81.3692
972.806
-59.4908
634.262
-82.7194
438.918
-43.6846
411.423
-32.8727
96.4804
-57.4462
-488.851
-74.1059
-837.977
-87.529
-1272.64
10.9234
81.8953
37.7238
4158.46
55.3116
7529.66
47.0474
5310.89
31.1388
2713.03
8.90596
759.447
-11.6971
346.854
-27.1102
319.262
11.977
293.081
194.172
-266.928
458.859
-1058.05
676.618
-1474.35
833.146
-1463.41
931.637
-1139.22
987.916
-656.605
998.446
-100.492
912.662
386.38
673.262
541.651
532.801
939.764
465.036
860.739
517.636
829.515
640.15
1571.04
671.305
1574.84
634.12
906.429
516.694
-49.7225
-1375.99
-154.246
55.426
-151.656
72.7264
-149.202
78.4206
-146.68
84.1291
-144.445
87.7926
-142.604
89.3375
-140.894
90.7283
-139.245
91.7392
-137.748
92.0271
-136.415
91.7536
-135.335
90.4441
-134.472
88.4891
-133.943
85.982
-133.706
84.1847
-133.515
83.328
-133.486
82.695
-133.838
82.1562
-134.55
82.896
-135.359
85.9569
-136.212
90.7893
-137.318
97.2827
-138.398
106.735
-139.541
119.604
-140.635
135.795
-142.04
156.446
-143.519
183.246
-145.289
217.977
-147.195
262.83
-149.296
320.603
-151.537
394.628
-153.81
488.861
-156.327
608.306
-159.291
759.284
-163.809
950.77
-170.822
1194.6
-180.999
1501.12
-194.546
1871.75
-210.074
2283.93
-222.771
2664.02
-215.179
2830.68
-166.936
2489.29
-105.317
1622.99
-91.6839
1129.26
-79.743
1307.72
-88.5417
1046.54
-79.3187
967.099
-55.582
610.092
-73.2023
455.348
-41.3204
380.107
-33.7247
89.9075
-55.8752
-466.295
-78.0824
-814.868
-95.5274
-1255.82
5.07757
-20.4848
36.8036
4126.96
55.9091
7510.62
47.0614
5319.03
29.879
2729
11.7211
777.031
-9.81232
366.85
-32.7869
340.175
33.7864
227.063
273.131
-506.381
546.281
-1330.21
762.912
-1689.43
914.86
-1613.32
1009.62
-1232.21
1057.03
-701.436
1062.29
-102.308
986.866
465.781
762.011
762.589
571.511
1126.5
451.674
982.609
471.33
806.193
608.423
1433.65
657.646
1523.57
625.67
931.772
503.621
59.3578
-1152.03
-158.692
53.0749
-155.947
69.9848
-153.325
75.7568
-150.648
81.4357
-148.226
85.2951
-146.154
87.2127
-144.238
88.7624
-142.397
89.8472
-140.708
90.2981
-139.223
90.2228
-137.995
89.1899
-137.041
87.4993
-136.444
85.3673
-136.146
83.8646
-135.964
83.146
-135.992
82.7162
-136.383
82.5397
-137.092
83.6145
-137.899
86.7655
-138.732
91.672
-139.778
98.3356
-140.813
107.875
-141.939
120.766
-143.033
137.056
-144.434
157.877
-145.878
184.858
-147.608
219.753
-149.443
264.765
-151.447
322.634
-153.565
396.713
-155.706
490.928
-158.126
610.501
-161.066
762.005
-165.594
954.92
-172.551
1201.08
-182.504
1510.56
-195.63
1884.1
-210.447
2298.05
-221.387
2673.93
-210.298
2818.37
-159.335
2437.61
-99.3637
1560.96
-90.3679
1119.3
-81.3769
1297.8
-87.5483
1051.89
-73.247
954.112
-51.3998
585.367
-64.8304
468.31
-36.0725
353.108
-30.8767
91.0906
-53.3913
-444.286
-80.3262
-787.283
-101.325
-1233.84
-0.43119
-116.344
35.8364
4091.23
56.6817
7490.28
47.4528
5327.61
29.3516
2745.96
13.8383
792.719
-5.89373
386.339
-46.0723
379.928
58.445
123.494
355.221
-804.147
631.707
-1606.99
841.683
-1899.97
984.761
-1757.02
1072.29
-1320
1113.09
-742.345
1113.87
-102.178
1053.98
529.639
866.036
945.974
659.459
1329.38
477.537
1170.28
433.961
849.023
565.177
1305.96
631.397
1460.43
607.028
957.129
482.944
192.54
-930.66
-163.71
50.6148
-160.887
67.1602
-158.175
73.004
-155.407
78.6592
-152.864
82.6815
-150.621
84.9232
-148.543
86.6368
-146.551
87.8081
-144.711
88.4225
-143.087
88.5582
-141.725
87.8097
-140.667
86.4197
-139.979
84.6803
-139.595
83.481
-139.371
82.963
-139.382
82.7819
-139.729
82.9618
-140.359
84.3547
-141.092
87.6164
-141.848
92.6139
-142.806
99.4164
-143.769
109.056
-144.853
121.95
-145.913
138.315
-147.284
159.21
-148.672
186.277
-150.337
221.242
-152.077
266.316
-153.961
324.258
-155.933
398.363
-157.932
492.731
-160.25
612.606
-163.141
765.03
-167.631
959.626
-174.446
1208.33
-184.067
1520.93
-196.637
1897.57
-210.512
2313.23
-219.377
2683.68
-204.717
2804.7
-151.601
2386.51
-95.1903
1506.82
-92.6363
1121.88
-88.7074
1297.38
-95.7535
1061.31
-72.5269
934.229
-49.6235
561.505
-60.4606
478.071
-24.5187
318.536
-20.6487
91.162
-49.4909
-414.204
-80.6812
-754.282
-106.539
-1208.07
-4.64216
-217.848
34.924
4052.08
57.5447
7467.74
48.3189
5336.07
29.5932
2763.31
12.247
808.656
-5.74129
401.328
-26.229
398.292
135.302
-38.1277
442.741
-1111.56
712.195
-1875.66
909.87
-2096.25
1040.62
-1885.9
1118.54
-1396.47
1153.63
-775.331
1151.76
-97.9203
1103.66
580.444
955.025
1091.66
760.688
1520.99
537.587
1394.03
420.236
962.779
518.169
1207.7
593.854
1382.63
577.676
967.028
476.557
282.589
-704.062
-169.188
48.1542
-166.355
64.3301
-163.618
70.2186
-160.823
75.8407
-158.219
79.9929
-155.865
82.5057
-153.675
84.3852
-151.587
85.6568
-149.644
86.4252
-147.912
86.766
-146.436
86.2904
-145.279
85.2077
-144.487
83.8504
-144
82.9465
-143.692
82.6282
-143.624
82.6775
-143.866
83.1629
-144.365
84.8248
-144.975
88.1887
-145.614
93.2608
-146.455
100.222
-147.32
109.982
-148.329
122.96
-149.319
139.444
-150.622
160.53
-151.926
187.752
-153.492
222.872
-155.107
268.068
-156.843
326.062
-158.648
400.185
-160.492
494.531
-162.693
614.6
-165.508
767.615
-169.899
963.593
-176.481
1214.36
-185.653
1529.46
-197.513
1908.51
-210.204
2325.03
-216.665
2688.87
-198.488
2785
-144.258
2331.17
-93.4906
1453.28
-97.2887
1124.01
-98.4562
1297.13
-108.982
1070.86
-80.8623
907.426
-70.9643
549.276
-74.4653
481.814
-12.2819
259.254
-5.12931
94.7063
-46.4945
-372.116
-79.6399
-719.425
-109.765
-1176.76
-7.92844
-315.396
34.12
4010.71
58.5293
7443.89
49.7129
5344.27
30.6757
2781.28
6.6892
832.721
-11.8374
420.108
2.09032
384.685
218.305
-253.907
526.43
-1420.51
783.528
-2133.26
965.256
-2278.74
1081.63
-2003.17
1149.1
-1464.68
1178.71
-805.694
1176.04
-95.0496
1136.74
622.902
1020.29
1203.79
850.724
1687.73
615.178
1633.74
433.71
1143.99
476.48
1169.31
549.347
1313.72
539.755
978.528
454.732
377.229
-461.294
-175.053
45.6858
-172.256
61.5099
-169.545
67.4366
-166.77
73.017
-164.158
77.2686
-161.75
80.0055
-159.501
82.0414
-157.366
83.4269
-155.365
84.3421
-153.558
84.8739
-151.994
84.6656
-150.748
83.9011
-149.851
82.9182
-149.248
82.3102
-148.829
82.2216
-148.644
82.5227
-148.742
83.321
-149.08
85.2625
-149.538
88.7652
-150.036
93.9514
-150.739
101.068
-151.477
110.964
-152.378
123.999
-153.263
140.569
-154.457
161.731
-155.645
189.008
-157.078
224.154
-158.539
269.34
-160.101
327.334
-161.725
401.422
-163.401
495.914
-165.478
616.331
-168.184
770.307
-172.417
967.863
-178.679
1220.85
-187.289
1538.59
-198.274
1920.17
-209.506
2337.32
-213.296
2693.26
-191.832
2764.22
-137.668
2278.65
-93.4816
1410.7
-101.987
1136.69
-106.152
1304.2
-116.619
1083.31
-86.6259
880.986
-92.2536
554.544
-89.1897
479.028
-17.6147
191.102
3.39044
83.2804
-42.5363
-322.53
-76.6146
-681.503
-112.184
-1140.07
-10.412
-414.609
33.4888
3967.53
59.6475
7417.91
51.6967
5351.38
32.8967
2798.35
1.94532
861.379
-23.1094
439.545
27.8473
329.331
295.84
-522.461
602.687
-1727.37
843.524
-2373.59
1007.13
-2441.24
1108.59
-2103.07
1165.9
-1520.97
1190.41
-828.764
1187.76
-91.1897
1155.53
656.912
1063.63
1293.01
921.001
1828.1
694.015
1860.57
469.005
1365.65
447.558
1190.18
503.431
1255.59
497.668
978.223
424.613
442.615
-261.062
-181.235
43.2829
-178.501
58.788
-175.849
64.745
-173.126
70.2837
-170.544
74.613
-168.128
77.5373
-165.866
79.729
-163.726
81.2341
-161.706
82.2778
-159.858
82.9723
-158.231
82.9983
-156.912
82.5275
-155.915
81.88
-155.196
81.5356
-154.655
81.642
-154.335
82.148
-154.276
83.1975
-154.443
85.3689
-154.738
88.9868
-155.082
94.2602
-155.631
101.533
-156.221
111.561
-156.983
124.714
-157.736
141.414
-158.786
162.764
-159.823
190.195
-161.092
225.487
-162.369
270.781
-163.735
328.812
-165.161
402.935
-166.661
497.446
-168.595
618.139
-171.158
772.715
-175.165
971.501
-181.011
1226.18
-188.931
1545.87
-198.865
1929.18
-208.374
2345.89
-209.283
2692.83
-184.888
2738.19
-131.661
2224.13
-93.8547
1369.75
-105.846
1146.79
-111.448
1308.2
-119.64
1090.41
-93.5847
856.082
-104.635
563.437
-90.4098
464.307
-49.2795
153.42
-19.7633
60.4701
-39.9792
-301.696
-71.9746
-647.526
-112.172
-1099.3
-12.1476
-511.992
33.0181
3922.99
60.918
7390.56
54.3044
5357.45
36.483
2815.33
2.29534
896.011
-35.074
478.697
53.3614
242.004
370.017
-838.754
669.801
-2027.84
891.488
-2595.87
1036.1
-2586.67
1123.05
-2191.02
1171.03
-1569.95
1190.9
-849.666
1188.25
-88.4629
1162.12
685.864
1088.81
1362.1
970.804
1943.81
763.845
2070.86
517.244
1612.47
434.722
1277.64
461.561
1233.57
454.596
987.823
401.374
504.709
-60.0136
-187.692
40.9101
-185.039
56.1025
-182.466
62.0821
-179.818
67.5631
-177.292
71.9484
-174.904
75.0296
-172.661
77.3604
-170.538
78.9868
-168.527
80.152
-166.665
80.9917
-164.999
81.2398
-163.621
81.0569
-162.534
80.7266
-161.706
80.6422
-161.046
80.9637
-160.592
81.6956
-160.378
83.0182
-160.376
85.4437
-160.508
89.2211
-160.696
94.6295
-161.085
102.064
-161.512
112.237
-162.116
125.475
-162.711
142.275
-163.59
163.686
-164.448
191.159
-165.524
226.447
-166.596
271.69
-167.748
329.68
-168.969
403.752
-170.285
498.428
-172.063
619.501
-174.445
775.003
-178.161
975.147
-183.497
1231.62
-190.607
1553.34
-199.306
1938.39
-206.819
2354.27
-204.697
2691.08
-177.719
2711.63
-126.059
2173.81
-94.0219
1338.7
-108.216
1164.44
-114.356
1316.81
-120.884
1098.79
-104.284
843.347
-117.058
577.188
-86.009
435.542
-59.1636
133.509
-28.4099
39.0833
-35.4669
-287.713
-65.2593
-611.325
-111.136
-1050.6
-13.1248
-605.871
32.6958
3878.19
62.3171
7361.26
57.5596
5361.34
41.5639
2829.25
8.4978
926.324
-37.035
516.697
104.939
94.9922
442.304
-1176.84
727.581
-2313.2
927.728
-2795.78
1053.39
-2711.53
1126.94
-2263.33
1166.69
-1609.16
1182.55
-864.735
1179.57
-85.287
1158.25
708.31
1099.33
1418.49
1002.47
2038.78
819.882
2253
570.043
1859.44
437.33
1409.77
427.808
1241.04
413.457
996.654
358.262
554.923
93.2638
-194.392
38.6204
-191.826
53.5569
-189.343
59.5687
-186.78
65.002
-184.326
69.4342
-181.984
72.6482
-179.773
75.1095
-177.683
76.856
-175.7
78.1342
-173.844
79.0894
-172.159
79.5187
-170.738
79.5824
-169.576
79.5219
-168.653
79.6556
-167.885
80.1463
-167.308
81.048
-166.955
82.58
-166.798
85.1988
-166.775
89.0938
-166.812
94.594
-167.042
102.171
-167.302
112.463
-167.734
125.823
-168.157
142.758
-168.846
164.342
-169.503
191.966
-170.367
227.393
-171.215
272.745
-172.144
330.779
-173.15
404.923
-174.276
499.663
-175.874
621.05
-178.035
777.073
-181.389
978.177
-186.115
1235.86
-192.283
1558.86
-199.554
1944.72
-204.818
2358.54
-199.525
2684.35
-170.275
2680.59
-120.695
2122.72
-94.0444
1308.57
-108.738
1177.19
-114.604
1321.13
-121.935
1105.26
-121.633
844.553
-131.086
585.314
-74.3263
378.909
-57.9709
124.119
-36.3966
22.1948
-33.906
-289.24
-57.4934
-585.544
-106.88
-1000.98
-13.4093
-697.798
32.4421
3832.93
63.8096
7330.44
61.4608
5363.22
48.1569
2842.04
17.9719
957.261
1.42971
536.183
194.128
-95.2118
512.174
-1494.48
775.767
-2577.38
952.947
-2973.61
1060.47
-2819.92
1122.04
-2326
1154.72
-1643.08
1167.09
-878.314
1163.5
-81.7166
1145.91
728.515
1097.96
1462.35
1018.61
2116.21
860.964
2413.55
620.533
2100.47
451.8
1583.64
404.157
1294.21
377.234
1026.9
333.092
607.287
248.23
-201.332
36.3626
-198.848
51.0334
-196.453
57.0688
-193.977
62.4345
-191.598
66.896
-189.311
70.2186
-187.141
72.7893
-185.092
74.6559
-183.146
76.0453
-181.308
77.1048
-179.618
77.7072
-178.167
78.0081
-176.947
78.2053
-175.945
78.5596
-175.086
79.2398
-174.404
80.3383
-173.93
82.1138
-173.634
84.9549
-173.468
89.0143
-173.365
94.66
-173.443
102.391
-173.538
112.814
-173.796
126.262
-174.036
143.297
-174.525
164.925
-174.97
192.573
-175.61
227.973
-176.226
273.248
-176.926
331.225
-177.718
405.316
-178.647
500.236
-180.047
621.981
-181.94
778.805
-184.864
980.938
-188.888
1239.87
-193.987
1564.18
-199.637
1950.75
-202.382
2362.01
-193.814
2675.93
-162.596
2649.55
-115.446
2076.69
-93.7779
1287.4
-108.367
1194.86
-113.888
1329.11
-122.086
1115.85
-126.032
853.643
-127.383
590.382
-48.7536
306.795
-41.7486
140.143
-36.3708
28.5168
-30.3313
-284.746
-46.6795
-558.567
-99.8863
-942.213
-13.2929
-778.82
32.1962
3788.82
65.3349
7297.82
66.0371
5361.66
56.239
2849.32
30.6336
979.353
39.8246
519.752
267.224
-325.148
573.115
-1801.06
813.447
-2817.82
967.827
-3127.96
1058.76
-2910.33
1110.01
-2376.29
1136.64
-1669.61
1145.99
-887.504
1141.6
-78.0312
1126.63
744.114
1087.11
1499.45
1022.02
2179.7
887.672
2547.38
664.282
2321.38
473.578
1773.81
390.584
1375.48
346.561
1066.06
288.905
660.852
355.548
-208.517
34.1823
-206.096
48.6428
-203.771
54.7328
-201.375
60.0619
-199.067
64.5527
-196.836
67.9716
-194.711
70.6511
-192.708
72.6363
-190.803
74.1306
-188.991
75.2699
-187.308
76.0078
-185.839
76.5037
-184.576
76.9127
-183.513
77.4421
-182.579
78.261
-181.812
79.4991
-181.237
81.4486
-180.822
84.4368
-180.528
88.5986
-180.299
94.329
-180.234
102.17
-180.174
112.676
-180.261
126.224
-180.32
143.374
-180.608
165.145
-180.837
192.926
-181.248
228.459
-181.63
273.855
-182.102
331.905
-182.675
406.124
-183.4
501.151
-184.573
623.206
-186.153
780.398
-188.573
983.134
-191.795
1242.7
-195.689
1567.5
-199.512
1953.71
-199.493
2361.05
-187.547
2662.59
-154.641
2614.86
-110.057
2030.59
-92.7407
1266.59
-108.638
1209
-116.558
1335.57
-124.818
1123.18
-124.327
854.484
-113.811
577.61
-57.9129
250.116
-56.9406
146.31
-42.0377
14.762
-29.9923
-297.4
-34.7201
-552.493
-87.3495
-890.436
-13.1518
-852.748
31.8425
3744.27
66.7843
7263.39
71.2233
5356.83
65.7572
2854.55
45.0905
1001.64
78.5375
490.889
331.871
-576.314
625.382
-2094.14
840.957
-3033.88
973.539
-3261.19
1049.73
-2987.32
1092.11
-2419.69
1113.49
-1692.26
1120.15
-895.23
1114.9
-72.488
1101.92
759.674
1068.67
1528.82
1014.91
2231.83
901.449
2663.44
698.741
2524.95
498.176
1979.43
385.632
1493.81
321.771
1133.46
262.036
727.942
428.679
-215.959
32.0191
-213.579
46.2214
-211.312
52.3562
-208.986
57.6368
-206.743
62.1426
-204.564
65.6397
-202.485
68.4112
-200.523
70.5112
-198.655
72.1053
-196.872
73.326
-195.202
74.1993
-193.726
74.8856
-192.431
75.5016
-191.319
76.2156
-190.324
77.1967
-189.49
78.6116
-188.833
80.7737
-188.315
83.9444
-187.911
88.2594
-187.571
94.1356
-187.377
102.107
-187.173
112.72
-187.1
126.341
-186.982
143.573
-187.074
165.368
-187.091
193.153
-187.277
228.644
-187.43
273.956
-187.677
331.951
-188.036
406.122
-188.545
501.319
-189.469
623.646
-190.684
781.422
-192.531
984.76
-194.861
1244.94
-197.418
1570.16
-199.21
1955.76
-196.165
2358.6
-180.759
2647.11
-146.4
2580.41
-104.575
1989.66
-91.4873
1253.54
-108.612
1228.95
-119.354
1348.9
-127.555
1134.53
-122.624
856.259
-99.2336
561.365
-64.8864
228.709
-61.5703
168.421
-41.2542
8.23503
-27.5887
-298.799
-25.2941
-540.373
-74.9171
-832.407
-12.9953
-907.797
31.2897
3701.63
68.048
7227.34
76.9881
5347.1
76.664
2852.15
57.7753
1015.9
116.421
424.49
391.522
-852.499
668.917
-2372.05
858.874
-3223.94
971.256
-3373.71
1034.6
-3050.37
1069.36
-2453.72
1086.01
-1709.2
1090.16
-899.668
1084.05
-67.7611
1072.59
771.4
1044.2
1554.93
999.407
2275.31
903.973
2758.41
723.091
2703.76
521.973
2180.23
386.918
1627.66
304.378
1212.05
245.663
783.361
467.764
-223.652
29.9136
-221.305
43.9139
-219.083
50.138
-216.817
55.4134
-214.631
59.9409
-212.498
63.5126
-210.458
66.378
-208.528
68.5864
-206.69
70.2778
-204.938
71.5687
-203.286
72.5476
-201.807
73.3849
-200.489
74.165
-199.339
75.0176
-198.297
76.1136
-197.412
77.6525
-196.687
79.9527
-196.084
83.2266
-195.586
87.6238
-195.15
93.5739
-194.842
101.619
-194.509
112.277
-194.289
125.969
-194.009
143.282
-193.915
165.19
-193.731
193.087
-193.702
228.7
-193.633
274.145
-193.663
332.237
-193.804
406.568
-194.087
501.867
-194.726
624.418
-195.53
782.312
-196.73
985.796
-198.069
1245.93
-199.148
1570.69
-198.698
1954.46
-192.391
2351.35
-173.422
2626.72
-137.805
2542.95
-98.8856
1949.17
-89.9166
1241.05
-106.426
1243.95
-117.064
1358.26
-127.398
1144.1
-121.429
851.791
-91.64
528.591
-78.7754
211.767
-62.5238
149.725
-31.9224
-23.6481
-22.8805
-310.17
-25.1857
-537.979
-64.2346
-795.839
-11.2388
-961.701
30.3696
3660.24
68.9574
7189.18
83.1722
5332.6
88.8446
2846.66
67.1482
1040.6
155.504
344.435
447.006
-1141.94
703.429
-2627.94
867.953
-3388.84
962.172
-3468.53
1014.39
-3103.3
1042.38
-2482.69
1054.65
-1722.76
1056.38
-902.305
1049.5
-60.3876
1039.52
783.941
1014.84
1575.96
977.006
2311.77
896.932
2840.9
737.35
2864.43
542.361
2380.14
392.089
1783.77
293.399
1314.47
211.464
872.271
546.516
-231.626
27.807
-229.304
41.5494
-227.116
47.8352
-224.899
53.0885
-222.756
57.6234
-220.66
61.2536
-218.65
64.1957
-216.745
66.5057
-214.931
68.2929
-213.204
69.6654
-211.569
70.7568
-210.09
71.7459
-208.754
72.6939
-207.573
73.7032
-206.495
74.9453
-205.571
76.6513
-204.789
79.1309
-204.116
82.5553
-203.54
87.0937
-203.023
93.1856
-202.616
101.338
-202.17
112.08
-201.82
125.826
-201.391
143.197
-201.128
165.108
-200.758
192.989
-200.528
228.542
-200.25
273.892
-200.069
331.919
-199.994
406.178
-200.035
501.579
-200.363
624.238
-200.701
782.405
-201.189
985.977
-201.446
1245.98
-200.909
1570.11
-198.007
1951.67
-188.185
2341.94
-165.564
2603.76
-128.875
2505.79
-92.7415
1913.61
-87.1917
1235.19
-101.699
1261.29
-111.336
1371.01
-123.12
1160.34
-116.083
854.074
-84.4026
508.668
-85.3457
233.193
-55.3432
139.199
-15.2272
-46.6958
-11.4581
-299.037