/*--------------------------------*- C++ -*----------------------------------*\
| =========                 |                                                 |
| \\      /  F ield         | OpenFOAM: The Open Source CFD Toolbox           |
|  \\    /   O peration     | Version:  4.1                                   |
|   \\  /    A nd           | Web:      www.OpenFOAM.org                      |
|    \\/     M anipulation  |                                                 |
\*---------------------------------------------------------------------------*/
FoamFile
{
    version     2.0;
    format      ascii;
    class       volVectorField;
    location    "12";
    object      U;
}
// * * * * * * * * * * * * * * * * * * * * * * * * * * * * * * * * * * * * * //

dimensions      [0 1 -1 0 0 0 0];

internalField   nonuniform List<vector> 
6785
(
(1.00285e-14 0.852197 15.7946)
(1.32296e-14 -4.89458 12.1215)
(-2.79736e-15 -4.19551 12.1321)
(2.15607e-15 -3.60119 11.9966)
(1.04136e-15 -3.00469 11.8778)
(2.3715e-17 -2.55321 11.6992)
(2.24278e-15 -2.20883 11.4768)
(2.68696e-16 -1.96606 11.2116)
(-9.04806e-16 -1.79858 10.916)
(1.24852e-15 -1.71241 10.5882)
(2.35155e-16 -1.83749 10.156)
(-5.17755e-16 -2.28571 9.5376)
(7.17737e-16 -2.51307 8.96376)
(-3.20118e-17 -1.06557 8.91357)
(-3.18174e-16 1.76577 7.47098)
(1.27322e-14 -5.35015 22.4929)
(8.20402e-15 -14.6049 21.3939)
(-1.10637e-15 -13.2708 20.3411)
(2.18725e-15 -11.7697 19.5066)
(1.78239e-15 -11.1561 18.5043)
(-5.12856e-17 -10.6595 17.5174)
(2.7184e-15 -10.0902 16.5714)
(1.27285e-15 -9.52505 15.6235)
(-1.03133e-15 -8.9655 14.6638)
(-6.54875e-16 -8.36737 13.6946)
(1.2041e-15 -7.75715 12.7179)
(-2.96163e-16 -7.30339 11.7194)
(1.1908e-15 -7.01707 10.6244)
(3.16167e-16 -5.73099 9.16117)
(-3.31724e-16 -2.30501 4.58344)
(1.47578e-14 -7.71562 23.98)
(1.27198e-14 -16.7731 24.673)
(-2.67634e-16 -13.7367 23.9372)
(3.73551e-15 -12.3063 22.6249)
(3.52164e-15 -11.6449 21.2414)
(7.33848e-16 -10.8142 20.0013)
(3.30989e-15 -9.94047 18.7738)
(1.14065e-15 -9.10036 17.5248)
(-2.19301e-16 -8.28367 16.2655)
(2.56079e-15 -7.47556 15.0263)
(5.83479e-16 -6.66797 13.8178)
(1.06516e-16 -5.84206 12.4303)
(2.74939e-15 -4.81441 10.2758)
(3.71507e-16 -3.12683 6.6853)
(-1.22992e-16 -0.832442 1.69063)
(1.53793e-14 -8.50242 22.0456)
(1.39432e-14 -16.6213 24.3323)
(3.99761e-16 -12.9302 23.7971)
(3.37356e-15 -12.1539 21.9986)
(1.88394e-15 -11.4203 20.5028)
(1.68564e-15 -10.4939 19.1723)
(2.30453e-15 -9.63424 17.8168)
(-1.50338e-16 -8.82399 16.4591)
(1.04174e-15 -8.05407 15.1231)
(8.54311e-16 -7.32426 13.8167)
(-6.14497e-16 -6.55307 12.4398)
(-1.89124e-16 -5.49179 10.584)
(-5.9369e-16 -3.78668 7.51077)
(4.72549e-15 -1.49536 2.76897)
(-1.00191e-15 0.152777 -1.77261)
(1.38593e-14 -8.47571 19.7465)
(1.18986e-14 -16.3603 24.3123)
(8.88552e-16 -13.0996 23.6601)
(2.74802e-15 -12.6283 21.5365)
(3.36499e-15 -11.857 20.0247)
(1.09414e-15 -10.958 18.6637)
(1.98918e-15 -10.1704 17.2588)
(1.62157e-15 -9.40344 15.8712)
(3.86292e-15 -8.6533 14.5238)
(2.21386e-18 -7.93129 13.2139)
(-3.92982e-16 -7.16681 11.8299)
(4.01373e-16 -6.11749 9.99767)
(1.76099e-15 -4.42597 7.15822)
(-4.13083e-15 -2.30739 3.29131)
(-9.09306e-15 -0.788587 0.320087)
(1.28029e-14 -8.02049 17.549)
(1.36609e-14 -16.0194 24.5274)
(3.37191e-15 -13.6452 24.0462)
(2.21261e-15 -12.9951 21.765)
(-9.99139e-16 -12.1274 20.2155)
(1.25609e-15 -11.2258 18.8469)
(1.97459e-15 -10.4402 17.4341)
(6.95534e-16 -9.65021 16.0435)
(1.17056e-15 -8.86175 14.6936)
(-1.7353e-16 -8.09472 13.3823)
(-3.10912e-15 -7.29892 12.018)
(-4.28522e-15 -6.28664 10.2837)
(-1.815e-15 -4.73585 7.72452)
(-1.25215e-15 -2.75936 4.37745)
(3.11549e-15 -0.951844 1.3019)
(1.09966e-14 -7.33279 15.24)
(1.62656e-14 -15.4897 24.3517)
(3.19263e-15 -14.0276 24.4224)
(2.20147e-15 -13.1305 22.0681)
(2.62228e-15 -12.1477 20.4398)
(3.51182e-15 -11.2389 19.0546)
(2.41205e-15 -10.4393 17.644)
(-3.55924e-16 -9.6233 16.2583)
(4.60721e-15 -8.81375 14.9077)
(1.05504e-16 -8.03093 13.5933)
(-1.68782e-15 -7.22791 12.2391)
(2.43921e-15 -6.24494 10.5529)
(-2.77899e-15 -4.79347 8.11458)
(-3.57969e-15 -2.92087 4.9568)
(7.51124e-15 -1.01541 1.80624)
(1.07929e-14 -6.54188 12.9956)
(1.48398e-14 -14.8403 23.8009)
(6.60409e-15 -14.2756 24.67)
(2.43323e-15 -13.245 22.324)
(5.79904e-16 -12.1748 20.5824)
(1.3461e-15 -11.273 19.1661)
(8.07265e-16 -10.4726 17.759)
(1.66458e-15 -9.651 16.3777)
(1.77784e-15 -8.84294 15.0265)
(3.44202e-15 -8.06344 13.7101)
(1.64981e-15 -7.26358 12.3619)
(1.26051e-15 -6.29673 10.7073)
(-7.69009e-15 -4.90311 8.34438)
(-2.72066e-15 -3.09861 5.28574)
(2.98025e-15 -1.13102 2.06073)
(8.909e-15 -5.74234 11.0378)
(1.53434e-14 -14.1541 23.0442)
(7.79298e-15 -14.4656 24.8476)
(3.03601e-15 -13.4176 22.6262)
(7.16403e-16 -12.272 20.7589)
(2.64151e-15 -11.3672 19.2983)
(1.19598e-15 -10.566 17.8951)
(1.0096e-15 -9.74444 16.5172)
(3.02853e-15 -8.9385 15.1639)
(1.35525e-15 -8.15928 13.8444)
(-1.14684e-16 -7.35959 12.4986)
(-3.07359e-15 -6.40215 10.8704)
(3.50406e-15 -5.0501 8.57736)
(-2.01316e-15 -3.29571 5.59931)
(-3.80872e-15 -1.2583 2.2875)
(6.37676e-15 -4.99705 9.40103)
(1.48423e-14 -13.459 22.1691)
(5.79989e-15 -14.5749 24.9413)
(4.40025e-15 -13.5988 22.9585)
(8.30708e-16 -12.3825 20.9751)
(2.67899e-16 -11.4571 19.4573)
(2.65632e-15 -10.6495 18.0548)
(8.60664e-16 -9.82782 16.68)
(2.09488e-16 -9.02168 15.3248)
(2.63785e-15 -8.23979 14.002)
(6.18033e-16 -7.43963 12.656)
(1.537e-15 -6.49044 11.0458)
(4.88546e-15 -5.17102 8.80676)
(3.01982e-16 -3.45604 5.8866)
(-7.45686e-15 -1.35289 2.49663)
(1.70855e-15 -4.36835 8.1)
(1.44826e-14 -12.7978 21.2715)
(8.36125e-15 -14.6063 24.948)
(2.83292e-15 -13.7761 23.2974)
(4.62764e-17 -12.5145 21.2323)
(1.42922e-15 -11.5618 19.647)
(7.61973e-16 -10.7461 18.2365)
(2.5524e-15 -9.92533 16.8614)
(-1.96981e-15 -9.11884 15.5029)
(-1.79089e-15 -8.33333 14.1751)
(2.80415e-15 -7.53153 12.8268)
(-1.03516e-15 -6.59011 11.2321)
(2.49946e-15 -5.30065 9.04276)
(-1.30918e-15 -3.62224 6.17394)
(-5.97046e-15 -1.45199 2.70742)
(3.95505e-15 -3.77747 6.86733)
(1.3504e-14 -12.1093 20.2538)
(9.31422e-15 -14.5337 24.791)
(3.16071e-15 -13.8864 23.5095)
(2.17189e-15 -12.5804 21.3772)
(8.18915e-16 -11.5899 19.7294)
(1.36518e-15 -10.7691 18.3252)
(3.3867e-15 -9.95675 16.9648)
(-1.74588e-15 -9.15912 15.6175)
(-1.60365e-15 -8.38122 14.2988)
(-6.78592e-16 -7.58783 12.9577)
(3.96868e-15 -6.65711 11.3758)
(-7.45497e-15 -5.38739 9.21832)
(-3.94187e-15 -3.73086 6.37601)
(-1.01545e-14 -1.50546 2.83658)
(6.85986e-15 -3.45984 6.29263)
(1.63054e-14 -11.6129 19.456)
(9.05697e-15 -14.5825 24.6956)
(3.73602e-15 -14.2602 23.9649)
(2.16388e-15 -13.0131 21.8685)
(-1.07705e-15 -11.9854 20.1008)
(2.00255e-15 -11.1322 18.6149)
(2.0616e-15 -10.3021 17.2116)
(9.42391e-16 -9.4802 15.8289)
(-1.13333e-15 -8.671 14.4795)
(2.10426e-16 -7.84961 13.1211)
(-4.2908e-15 -6.90676 11.5608)
(-3.15258e-15 -5.65237 9.48331)
(-6.37891e-15 -4.00084 6.70463)
(-6.84686e-15 -1.66579 3.06631)
(-4.91969e-15 -2.13037 3.10669)
(1.31013e-14 -10.168 16.8675)
(1.12456e-14 -13.948 23.5004)
(4.04074e-15 -13.8424 23.321)
(3.79564e-15 -12.4759 21.1764)
(-1.21284e-15 -11.4117 19.4931)
(8.82641e-17 -10.6627 18.2653)
(2.16468e-15 -9.9647 17.0956)
(-1.94924e-15 -9.27575 15.9125)
(-9.16161e-16 -8.59672 14.7226)
(-5.26385e-16 -7.89819 13.4993)
(-4.19166e-15 -7.07477 12.0616)
(-2.431e-15 -5.93395 10.1108)
(-7.2537e-15 -4.4392 7.55418)
(-5.42895e-15 -2.17265 4.24029)
(5.68556e-16 -4.22755 8.52631)
(1.14139e-14 -11.2237 18.7588)
(1.26729e-14 -15.3554 25.0369)
(7.86518e-15 -16.6795 25.8974)
(3.90295e-15 -16.067 24.042)
(9.42349e-16 -14.8809 21.5841)
(-8.63611e-16 -13.6075 19.3243)
(7.92316e-16 -12.3915 17.4154)
(-2.60682e-16 -11.2148 15.6358)
(-1.73509e-15 -10.0653 14.0433)
(-1.443e-15 -8.93908 12.5115)
(-2.73029e-15 -7.73862 10.9109)
(-3.07371e-15 -6.33177 8.9966)
(-5.679e-15 -4.41234 6.11337)
(-7.63576e-15 -0.90354 1.75966)
(-1.13965e-15 0.693421 -3.64602)
(-1.52178e-15 0.779669 -5.91716)
(-1.03902e-15 0.767056 -4.14493)
(-9.99016e-16 1.2476 -4.09161)
(-9.66603e-16 1.67934 -3.88819)
(-1.56572e-15 2.34069 -5.39576)
(-1.14493e-15 2.03039 -3.68049)
(-1.09359e-15 2.44009 -3.61779)
(-1.06166e-15 2.70852 -3.45752)
(-1.35814e-15 3.58756 -4.5609)
(-9.22713e-16 2.99925 -3.14279)
(-8.17069e-16 3.2718 -2.95077)
(-1.366e-15 4.5114 -3.76728)
(-9.8876e-16 3.57498 -2.58335)
(-9.7097e-16 3.89612 -2.53791)
(-9.04817e-16 4.00763 -2.45361)
(-1.47707e-15 5.13201 -3.03599)
(-1.08485e-15 4.05903 -2.12602)
(-9.90796e-16 4.21858 -2.02506)
(-1.53245e-15 5.64121 -2.3868)
(-1.08973e-15 4.27395 -1.67723)
(-1.08786e-15 4.55278 -1.64886)
(-1.00122e-15 4.57684 -1.61988)
(-1.56163e-15 5.80568 -1.81311)
(-1.09636e-15 4.31385 -1.3202)
(-1.06606e-15 4.64195 -1.29261)
(-1.03737e-15 4.66018 -1.28137)
(-4.71428e-16 5.77519 -1.3208)
(-1.44585e-15 4.28385 -0.994953)
(-1.07344e-15 4.34793 -0.984236)
(-1.61317e-15 5.70389 -0.857701)
(-1.46114e-15 4.08639 -0.661212)
(-1.13213e-15 4.26653 -0.645281)
(-1.05798e-15 4.26243 -0.665993)
(-1.59544e-15 5.22415 -0.453341)
(-1.16038e-15 3.78169 -0.377432)
(-1.07878e-15 3.80496 -0.407783)
(-1.57358e-15 4.87819 -0.0848321)
(-1.11221e-15 3.43744 -0.105037)
(-1.1464e-15 3.54876 -0.0987708)
(-1.08902e-15 3.5427 -0.140898)
(-1.4849e-15 4.25865 0.237661)
(-1.04692e-15 2.98153 0.122515)
(-1.03853e-15 3.12155 0.127107)
(-9.92569e-16 3.12742 0.0816105)
(-1.39602e-15 3.66153 0.49899)
(-1.50945e-16 2.59651 0.361144)
(-1.02077e-15 2.59417 0.303565)
(-1.49789e-15 3.25416 0.802322)
(-1.98942e-15 2.32965 0.652689)
(-9.19363e-16 2.35274 0.657348)
(-8.82593e-16 2.33434 0.595786)
(-1.23821e-15 2.63197 1.15588)
(-8.46795e-16 1.88621 0.858403)
(-8.62956e-16 1.91181 0.854407)
(-7.15199e-16 1.89827 0.794142)
(-9.34999e-16 1.97955 1.28063)
(-5.64423e-16 1.31959 0.816281)
(-6.94362e-16 1.26556 0.765159)
(-7.86188e-16 1.34546 0.796742)
(-4.59818e-16 0.62006 0.222114)
(-5.72987e-16 0.555398 0.1992)
(-7.19798e-16 0.636237 0.223463)
(9.28268e-16 1.10152 -1.24311)
(-6.53302e-16 -0.480529 -0.137776)
(-1.10388e-15 -0.0263019 0.10564)
(-2.05063e-15 -0.144865 1.59666)
(-1.80781e-15 -1.39451 3.35727)
(-1.66603e-15 -1.37753 3.31575)
(-1.70708e-15 -1.37798 3.49036)
(-2.31415e-15 -2.73157 6.36135)
(-1.7178e-15 -3.24504 6.02986)
(-1.77727e-15 -3.48514 6.14859)
(-1.77773e-15 -3.6536 6.33079)
(-2.23635e-15 -6.15728 9.88356)
(-1.46233e-15 -5.70372 8.06514)
(-1.56761e-15 -5.97601 8.53792)
(-1.87824e-15 -9.24711 12.5205)
(-1.34294e-15 -8.33267 9.69937)
(-1.59771e-15 -8.69031 10.3888)
(-2.51379e-15 -9.5325 12.0718)
(-2.26978e-15 -9.41224 12.0041)
(-2.21353e-15 -9.58442 12.2857)
(-6.38684e-16 -11.5933 15.0905)
(-1.60986e-15 -10.2807 13.3464)
(-1.51125e-15 -10.6459 14.0525)
(-1.50317e-15 -10.6345 14.2125)
(-1.42392e-15 -10.713 14.3415)
(-1.3491e-15 -10.8086 14.494)
(-1.25536e-15 -10.89 14.6716)
(-9.81102e-16 -10.9832 14.9904)
(-6.08462e-16 -11.1118 15.3782)
(7.32537e-16 -11.9549 16.7814)
(-8.89781e-17 -11.4253 15.8174)
(1.48665e-17 -11.5764 16.0517)
(1.00784e-16 -11.5569 16.1844)
(2.61776e-16 -11.7241 16.5611)
(2.91921e-16 -11.6988 16.6009)
(3.75116e-16 -11.7816 16.7506)
(4.63629e-16 -11.8405 16.8807)
(5.80183e-16 -11.9044 17.0378)
(1.84201e-15 -12.4012 18.1202)
(1.47072e-15 -11.9308 17.4048)
(1.57311e-15 -12.0441 17.5869)
(1.62068e-15 -12.0743 17.6746)
(1.67932e-15 -12.1181 17.8085)
(1.66323e-15 -12.1625 18.0092)
(1.59269e-15 -12.2373 18.233)
(1.65865e-15 -12.2425 18.3032)
(1.73047e-15 -12.3156 18.4245)
(1.79648e-15 -12.3711 18.5304)
(2.62266e-15 -12.1979 18.7738)
(2.26293e-15 -12.0162 18.4976)
(2.38786e-15 -12.0626 18.6064)
(2.45918e-15 -12.0908 18.6683)
(2.56633e-15 -12.1285 18.7525)
(2.72565e-15 -12.1204 18.8573)
(3.0411e-15 -12.1796 19.1015)
(3.13199e-15 -12.2127 19.1818)
(3.16717e-15 -12.2576 19.1805)
(3.537e-15 -11.306 18.1896)
(3.22375e-15 -11.436 18.4558)
(3.18186e-15 -11.4126 18.5821)
(3.07224e-15 -11.4456 18.7252)
(3.24262e-15 -11.3942 18.6578)
(3.35333e-15 -11.3938 18.6482)
(3.49294e-15 -11.3738 18.622)
(3.67568e-15 -11.3682 18.627)
(4.11182e-15 -11.4541 18.8185)
(4.46829e-15 -9.3713 16.1338)
(4.3249e-15 -10.1439 17.4579)
(4.46434e-15 -9.99656 17.2173)
(4.59454e-15 -9.96044 17.1413)
(4.98386e-15 -9.92901 17.1909)
(5.05865e-15 -9.82809 16.9971)
(5.04422e-15 -9.73288 16.6988)
(5.06136e-15 -9.70228 16.3787)
(5.0575e-15 -9.59874 15.9679)
(4.82141e-15 -6.81594 12.0362)
(5.3621e-15 -8.03535 14.5537)
(5.17817e-15 -7.7034 13.8457)
(5.03151e-15 -7.64935 13.4415)
(4.8574e-15 -7.51197 12.8843)
(4.74079e-15 -7.43644 12.2803)
(5.15932e-15 -7.17069 11.5324)
(4.66275e-15 -7.10661 10.9563)
(4.32256e-15 -6.92729 10.2433)
(3.86159e-15 -6.66669 9.44903)
(1.067e-15 -3.59718 3.89537)
(2.66569e-15 -5.26521 7.26858)
(1.95561e-15 -4.74445 6.02931)
(1.57798e-15 -4.75629 5.64596)
(1.07854e-15 -4.52057 4.97896)
(4.70262e-16 -4.47605 4.2242)
(-6.63414e-16 -4.30846 2.93602)
(-1.75856e-15 -3.92277 1.66361)
(-1.64134e-15 -3.88433 1.61488)
(-1.91274e-15 -3.42279 -0.526681)
(-2.01788e-15 -3.41162 1.09418)
(-2.17683e-15 -3.26752 0.551676)
(-2.15652e-15 -2.26993 -1.31423)
(-3.06558e-15 -3.80846 -0.652556)
(-3.08154e-15 -2.98766 -0.64789)
(-2.55907e-15 -2.60707 -0.360139)
(-3.4266e-15 -3.40448 -0.558452)
(-2.47186e-15 -2.30893 -0.271008)
(-3.55355e-15 -3.18955 -0.465808)
(-9.31174e-16 -2.73285 -0.29419)
(-2.31006e-15 -2.22577 -0.175529)
(-3.36862e-15 -2.92943 -0.310797)
(-2.92159e-15 -2.56439 -0.209153)
(-2.34831e-15 -2.18122 -0.101925)
(-3.23383e-15 -2.93038 -0.196447)
(-2.35923e-15 -2.00066 -0.0741918)
(-1.22699e-15 -2.74988 -0.17614)
(-2.72171e-15 -2.37177 -0.126949)
(-2.09059e-15 -2.0297 -0.0490356)
(-2.84494e-15 -2.71907 -0.128312)
(-1.22833e-15 -1.86737 -0.035784)
(-2.43386e-15 -2.56017 -0.124877)
(-1.77021e-15 -2.2193 -0.0948241)
(-1.01137e-15 -1.83377 -0.0354911)
(-1.07037e-15 -2.37214 -0.144141)
(2.09346e-15 -2.05935 -0.114108)
(-1.11303e-15 -1.76228 -0.0301958)
(-9.97933e-16 -2.32009 -0.137756)
(1.2579e-16 -1.60673 -0.0238942)
(-5.22269e-16 -2.13142 -0.175688)
(-1.04906e-15 -1.80334 -0.127188)
(-1.64779e-16 -1.54358 -0.0219847)
(-3.42259e-16 -2.0533 -0.165357)
(5.40633e-17 -1.37051 -0.014188)
(-6.48768e-16 -1.84315 -0.209585)
(-6.16149e-16 -1.53993 -0.137054)
(1.00332e-15 -1.25273 -0.022446)
(2.0204e-15 -1.66153 -0.247513)
(1.53041e-15 -1.31736 -0.179427)
(-4.34632e-17 -1.06116 -0.0408442)
(1.49493e-15 -1.64646 -0.251227)
(9.39565e-16 -0.881318 -0.0743367)
(-1.5747e-15 -1.28435 -0.305916)
(3.77609e-15 -1.08395 -0.326228)
(-9.2444e-17 -0.745756 -0.167316)
(-3.65082e-15 -1.3614 -0.393162)
(1.47218e-15 -0.561064 -0.178711)
(7.92865e-15 -0.651787 -0.429149)
(-9.37783e-15 -0.915534 -0.152277)
(-2.46574e-15 -0.676184 0.0461402)
(-7.13382e-16 -0.906428 -0.293617)
(-8.90872e-16 -0.124308 -0.508129)
(4.87136e-17 -0.530204 -0.0367343)
(9.01316e-16 -0.142108 -0.477791)
(-1.48363e-16 0.120051 -0.13574)
(-6.44188e-16 0.0825552 -0.474966)
(-5.41594e-15 0.0850165 -0.655072)
(1.08912e-16 0.216874 -0.181153)
(-3.75742e-16 0.504404 -0.596597)
(-5.19686e-16 0.808555 -0.332608)
(-7.94215e-16 0.792301 -0.525021)
(-1.16199e-15 1.01307 -0.604985)
(-6.02453e-16 0.881667 -0.281333)
(-1.70263e-15 1.41126 -0.471218)
(-2.56068e-15 1.94914 -0.650445)
(2.00101e-16 1.34014 -0.368037)
(-2.34246e-16 2.11189 -0.638817)
(1.98019e-16 1.90551 -0.466977)
(1.92609e-16 2.22357 -0.635348)
(-3.89596e-16 2.7789 -0.87746)
(-1.50811e-16 2.07897 -0.54565)
(-3.60613e-16 3.35681 -0.884496)
(-2.59194e-16 2.82584 -0.656809)
(-2.17159e-15 3.29783 -0.882602)
(-2.27438e-16 4.01574 -1.1793)
(1.92495e-17 3.10147 -0.78206)
(-2.49367e-16 4.20437 -1.04606)
(-1.33946e-16 5.32726 -1.43261)
(-1.7878e-17 3.75075 -0.934971)
(-5.13556e-17 5.94208 -1.50519)
(-6.10341e-17 4.62574 -1.06516)
(-1.60783e-16 5.9227 -1.67387)
(-9.80812e-16 -0.0764749 0.994841)
(-9.80884e-16 -0.0995494 0.983639)
(-9.80943e-16 -0.107329 0.973978)
(-9.8099e-16 -0.117053 0.964258)
(-9.81032e-16 -0.121266 0.95511)
(-9.81073e-16 -0.119981 0.948314)
(-9.81122e-16 -0.122428 0.939535)
(-9.81175e-16 -0.124371 0.929001)
(-9.81228e-16 -0.125019 0.918517)
(-9.81276e-16 -0.126123 0.909195)
(-9.81317e-16 -0.123914 0.901051)
(-9.81351e-16 -0.123224 0.894364)
(-9.81384e-16 -0.118048 0.889407)
(-9.81416e-16 -0.113534 0.884506)
(-9.81446e-16 -0.113864 0.879448)
(-9.8147e-16 -0.11402 0.875429)
(-9.81485e-16 -0.110843 0.872294)
(-9.81494e-16 -0.108164 0.869793)
(-9.81497e-16 -0.112267 0.868189)
(-9.81493e-16 -0.117404 0.867432)
(-9.8148e-16 -0.122084 0.86852)
(-9.81453e-16 -0.132587 0.872821)
(-9.81408e-16 -0.149571 0.878399)
(-9.81335e-16 -0.170761 0.884413)
(-9.81219e-16 -0.196171 0.892714)
(-9.81039e-16 -0.228604 0.903342)
(-9.80767e-16 -0.271158 0.916552)
(-9.80362e-16 -0.326376 0.932302)
(-9.7977e-16 -0.39854 0.950262)
(-9.78928e-16 -0.493014 0.969726)
(-9.77765e-16 -0.614988 0.989572)
(-9.76233e-16 -0.771726 1.00852)
(-9.74345e-16 -0.969131 1.02606)
(-9.72234e-16 -1.21501 1.04425)
(-9.70223e-16 -1.52251 1.07048)
(-9.68763e-16 -1.9067 1.11599)
(-9.68146e-16 -2.37642 1.18725)
(-9.68028e-16 -2.90942 1.28228)
(-9.66969e-16 -3.43064 1.39464)
(-9.61907e-16 -3.77103 1.49258)
(-9.44931e-16 -3.60827 1.48514)
(-8.92539e-16 -2.62184 1.1647)
(-7.92044e-16 -1.55664 0.575894)
(-7.74699e-16 -1.83424 0.736805)
(-7.87373e-16 -1.31706 0.379008)
(-7.97167e-16 -1.25346 0.599185)
(-8.02088e-16 -1.00278 0.605375)
(-7.86396e-16 -0.347028 0.135182)
(-7.8548e-16 -0.813922 0.478796)
(-7.84783e-16 -0.309894 0.0920008)
(-7.94355e-16 0.77536 0.301076)
(-7.9191e-16 1.16838 0.389577)
(-7.82221e-16 1.75172 0.256933)
(-6.70904e-16 -0.741551 0.223413)
(-5.88452e-16 -5.67812 -0.107154)
(-4.43626e-16 -10.1269 -0.38812)
(-2.59098e-16 -7.00742 -0.290648)
(-1.89242e-16 -3.50911 -0.391453)
(-1.70185e-16 -0.787413 -0.295368)
(-1.67209e-16 -0.379257 0.134968)
(-1.59173e-16 -0.34894 0.140938)
(-1.62043e-16 -0.399181 0.443371)
(-1.69387e-16 0.148632 0.380747)
(-1.82129e-16 -0.257025 -0.0399767)
(-1.95521e-16 0.674877 -1.58313)
(-2.01201e-16 1.0357 -2.64534)
(-2.02103e-16 0.952013 -3.2376)
(-2.03315e-16 0.472391 -3.55426)
(-2.14596e-16 0.103319 -3.7896)
(-2.07451e-16 -0.17378 -4.04177)
(-1.44587e-16 0.173602 -4.088)
(-1.54027e-16 -1.03222 -4.10432)
(-1.537e-16 -0.692665 -3.68083)
(-4.47524e-17 -1.74172 -4.3233)
(-2.55585e-17 -2.73016 -4.27605)
(-2.58361e-17 -2.2088 -4.12476)
(-1.74546e-17 -0.992798 -4.02256)
(-4.55855e-17 0.595812 -4.01669)
(4.9849e-17 3.07961 -3.80329)
(-9.80766e-16 -0.0884555 0.97894)
(-9.80879e-16 -0.117103 0.96614)
(-9.80953e-16 -0.124213 0.960696)
(-9.81011e-16 -0.131447 0.951782)
(-9.81066e-16 -0.13461 0.941843)
(-9.81119e-16 -0.134121 0.934887)
(-9.81174e-16 -0.135411 0.928136)
(-9.81229e-16 -0.136271 0.919751)
(-9.81279e-16 -0.135106 0.911959)
(-9.81322e-16 -0.132923 0.904413)
(-9.81359e-16 -0.128985 0.897384)
(-9.81391e-16 -0.123905 0.891136)
(-9.81422e-16 -0.118115 0.885537)
(-9.8145e-16 -0.114414 0.881698)
(-9.81473e-16 -0.112785 0.878291)
(-9.81488e-16 -0.110848 0.874079)
(-9.81496e-16 -0.108125 0.870182)
(-9.81497e-16 -0.107418 0.868718)
(-9.81492e-16 -0.110758 0.868735)
(-9.81478e-16 -0.115982 0.868701)
(-9.81452e-16 -0.123902 0.87153)
(-9.81411e-16 -0.13657 0.877855)
(-9.8135e-16 -0.155022 0.884679)
(-9.81255e-16 -0.176719 0.891105)
(-9.81112e-16 -0.204462 0.898977)
(-9.80901e-16 -0.240226 0.908745)
(-9.80594e-16 -0.287124 0.920696)
(-9.8015e-16 -0.347577 0.93488)
(-9.79519e-16 -0.425354 0.950995)
(-9.7864e-16 -0.525031 0.968849)
(-9.77448e-16 -0.650933 0.987517)
(-9.75905e-16 -0.809882 1.00641)
(-9.74032e-16 -1.00747 1.02489)
(-9.71971e-16 -1.25305 1.04593)
(-9.70047e-16 -1.56017 1.0775)
(-9.68688e-16 -1.94405 1.12977)
(-9.68149e-16 -2.4127 1.20882)
(-9.68039e-16 -2.9427 1.31096)
(-9.66901e-16 -3.45754 1.42891)
(-9.6154e-16 -3.77712 1.52481)
(-9.42853e-16 -3.55618 1.48902)
(-8.86375e-16 -2.56298 1.1352)
(-7.89037e-16 -1.66394 0.592294)
(-7.74899e-16 -1.82117 0.701493)
(-7.87872e-16 -1.38253 0.334582)
(-7.97685e-16 -1.27883 0.528504)
(-8.01692e-16 -0.909591 0.470008)
(-7.86285e-16 -0.51735 0.444845)
(-7.84971e-16 -0.74026 0.486359)
(-7.85359e-16 -0.116447 0.0925482)
(-7.96795e-16 0.783008 0.314788)
(-7.9409e-16 1.156 0.472827)
(-7.84361e-16 1.73186 0.332507)
(-6.92204e-16 -0.459319 0.12043)
(-5.89033e-16 -5.68391 -0.112782)
(-4.4431e-16 -10.1303 -0.397876)
(-2.6031e-16 -7.07592 -0.296607)
(-1.89625e-16 -3.59501 -0.365011)
(-1.70133e-16 -0.918015 -0.230811)
(-1.66899e-16 -0.345772 0.100676)
(-1.59177e-16 -0.327359 0.0274596)
(-1.61647e-16 -0.541503 0.328891)
(-1.70331e-16 -0.200381 0.654811)
(-1.89726e-16 0.1963 -0.64364)
(-1.98376e-16 0.985663 -2.17885)
(-1.98627e-16 1.24649 -3.34948)
(-1.9517e-16 1.07665 -3.99607)
(-1.95446e-16 0.554861 -4.50802)
(-2.06762e-16 0.0308034 -5.06666)
(-2.05044e-16 -0.22374 -4.9552)
(-1.58418e-16 0.34437 -4.2111)
(-1.55688e-16 -0.871554 -4.12309)
(-1.59812e-16 -0.947758 -3.49422)
(-6.42311e-17 -1.19407 -3.96454)
(-2.96073e-17 -2.43892 -4.24284)
(-2.63032e-17 -2.14496 -4.34648)
(-1.80913e-17 -1.07131 -4.2501)
(-4.72385e-17 0.538686 -4.01258)
(5.16589e-17 2.7651 -3.40975)
(-9.80606e-16 -0.0842337 0.982972)
(-9.8075e-16 -0.109814 0.966506)
(-9.8085e-16 -0.11691 0.958498)
(-9.80932e-16 -0.125259 0.947124)
(-9.8101e-16 -0.129027 0.935058)
(-9.81083e-16 -0.129446 0.92626)
(-9.81153e-16 -0.131135 0.919313)
(-9.8122e-16 -0.132212 0.911701)
(-9.8128e-16 -0.131581 0.904708)
(-9.81331e-16 -0.130708 0.897824)
(-9.81375e-16 -0.12724 0.891171)
(-9.81412e-16 -0.124173 0.885417)
(-9.81445e-16 -0.119154 0.880972)
(-9.81472e-16 -0.115139 0.878254)
(-9.81491e-16 -0.114149 0.875789)
(-9.815e-16 -0.112872 0.872696)
(-9.81501e-16 -0.110221 0.870181)
(-9.81492e-16 -0.108989 0.869974)
(-9.81475e-16 -0.113093 0.871489)
(-9.81446e-16 -0.118993 0.873689)
(-9.81403e-16 -0.126254 0.878484)
(-9.81344e-16 -0.138744 0.885625)
(-9.81262e-16 -0.156549 0.892802)
(-9.81142e-16 -0.178289 0.899613)
(-9.80968e-16 -0.205394 0.907504)
(-9.80721e-16 -0.240657 0.91701)
(-9.80373e-16 -0.286605 0.928373)
(-9.79886e-16 -0.345794 0.941698)
(-9.7921e-16 -0.422105 0.956759)
(-9.78289e-16 -0.520205 0.973535)
(-9.77066e-16 -0.644916 0.991204)
(-9.75512e-16 -0.803016 1.00938)
(-9.73659e-16 -1.00109 1.0277)
(-9.71662e-16 -1.24908 1.04976)
(-9.69843e-16 -1.5617 1.08364)
(-9.68606e-16 -1.95389 1.13855)
(-9.68155e-16 -2.43162 1.21959)
(-9.68053e-16 -2.96951 1.32269)
(-9.66823e-16 -3.48609 1.44064)
(-9.61038e-16 -3.78932 1.53166)
(-9.40157e-16 -3.51566 1.46564)
(-8.79373e-16 -2.45885 1.0654)
(-7.85916e-16 -1.61803 0.572861)
(-7.75221e-16 -1.82244 0.67208)
(-7.88683e-16 -1.3867 0.343272)
(-7.98249e-16 -1.30983 0.563433)
(-8.01093e-16 -0.903606 0.45699)
(-7.85812e-16 -0.480489 0.606593)
(-7.85182e-16 -0.706331 0.565773)
(-7.86661e-16 -0.16206 0.113332)
(-7.9905e-16 0.727829 0.299192)
(-7.95836e-16 1.16562 0.519271)
(-7.86114e-16 1.73766 0.387491)
(-7.01077e-16 -0.410447 0.213579)
(-5.89838e-16 -5.62234 -0.110593)
(-4.45145e-16 -10.0938 -0.405276)
(-2.61794e-16 -7.07418 -0.304367)
(-1.90079e-16 -3.58873 -0.338297)
(-1.70053e-16 -0.935329 -0.189006)
(-1.66449e-16 -0.394071 0.123292)
(-1.58073e-16 -0.381663 0.039836)
(-1.61611e-16 -0.463543 0.308111)
(-1.75229e-16 -0.18826 0.448571)
(-1.91933e-16 0.523503 -1.13146)
(-1.9482e-16 1.24649 -2.6985)
(-1.90698e-16 1.43265 -3.92076)
(-1.8474e-16 1.1962 -4.68461)
(-1.80247e-16 0.662617 -5.11752)
(-1.85525e-16 0.0438639 -5.75509)
(-1.90151e-16 -0.327497 -5.75933)
(-1.63213e-16 0.0966521 -4.35386)
(-1.55427e-16 -0.851102 -4.18146)
(-1.63256e-16 -0.82733 -3.48119)
(-8.22265e-17 -1.1958 -3.74778)
(-3.55306e-17 -2.40453 -4.23506)
(-2.73019e-17 -2.16264 -4.44729)
(-1.86072e-17 -1.08787 -4.34411)
(-4.81254e-17 0.432778 -4.03033)
(4.98785e-17 2.55363 -3.24674)
(-9.80388e-16 -0.0810904 0.996215)
(-9.80547e-16 -0.105804 0.975674)
(-9.80666e-16 -0.113122 0.965088)
(-9.80767e-16 -0.120934 0.951652)
(-9.80864e-16 -0.124892 0.93823)
(-9.80953e-16 -0.125039 0.928272)
(-9.8104e-16 -0.126321 0.920236)
(-9.81123e-16 -0.127446 0.91184)
(-9.812e-16 -0.127298 0.904025)
(-9.81267e-16 -0.126598 0.896557)
(-9.81324e-16 -0.123926 0.88967)
(-9.81372e-16 -0.120642 0.884123)
(-9.81413e-16 -0.11606 0.880261)
(-9.81445e-16 -0.112602 0.877835)
(-9.81467e-16 -0.111382 0.87574)
(-9.81476e-16 -0.110256 0.873747)
(-9.81472e-16 -0.108349 0.872815)
(-9.81455e-16 -0.107902 0.874037)
(-9.81425e-16 -0.111708 0.87713)
(-9.81379e-16 -0.118056 0.881386)
(-9.81318e-16 -0.125976 0.887596)
(-9.81241e-16 -0.138252 0.894978)
(-9.81138e-16 -0.155647 0.90216)
(-9.80992e-16 -0.177298 0.909273)
(-9.80786e-16 -0.204492 0.917444)
(-9.80505e-16 -0.239465 0.926935)
(-9.80119e-16 -0.285376 0.938054)
(-9.79591e-16 -0.344434 0.950976)
(-9.78874e-16 -0.420727 0.965361)
(-9.77916e-16 -0.518847 0.981334)
(-9.76669e-16 -0.643865 0.998107)
(-9.7511e-16 -0.80235 1.01543)
(-9.73283e-16 -1.00143 1.03334)
(-9.71356e-16 -1.2516 1.05592)
(-9.69647e-16 -1.56804 1.09117)
(-9.68532e-16 -1.96543 1.14737)
(-9.68166e-16 -2.44832 1.22874)
(-9.68068e-16 -2.98997 1.33131)
(-9.6675e-16 -3.50517 1.44779)
(-9.60484e-16 -3.78937 1.53151)
(-9.37251e-16 -3.46593 1.43335)
(-8.72491e-16 -2.36561 0.992475)
(-7.83085e-16 -1.54728 0.555252)
(-7.75836e-16 -1.78458 0.668244)
(-7.89846e-16 -1.36821 0.396056)
(-7.988e-16 -1.3015 0.618988)
(-8.00813e-16 -0.889539 0.455836)
(-7.87469e-16 -0.538849 0.555117)
(-7.86564e-16 -0.624532 0.537402)
(-7.88259e-16 -0.147921 0.103935)
(-8.01616e-16 0.706184 0.289799)
(-7.97713e-16 1.15063 0.537384)
(-7.88129e-16 1.72038 0.433112)
(-7.07021e-16 -0.282851 0.239807)
(-5.90656e-16 -5.5894 -0.108887)
(-4.45998e-16 -10.0712 -0.409404)
(-2.63315e-16 -7.06612 -0.310997)
(-1.90537e-16 -3.58699 -0.319442)
(-1.7006e-16 -0.963916 -0.165188)
(-1.66233e-16 -0.4289 0.0953971)
(-1.56843e-16 -0.406749 0.102649)
(-1.63468e-16 -0.456819 0.303412)
(-1.81299e-16 -0.00119937 -0.0266321)
(-1.92306e-16 0.885319 -1.67171)
(-1.90909e-16 1.53237 -3.28223)
(-1.83418e-16 1.63461 -4.53457)
(-1.75468e-16 1.31593 -5.36833)
(-1.6931e-16 0.751669 -5.81464)
(-1.6915e-16 0.106635 -6.33066)
(-1.75475e-16 -0.351029 -6.27246)
(-1.65222e-16 -0.294609 -4.62458)
(-1.56895e-16 -1.00856 -4.01769)
(-1.65897e-16 -1.01312 -3.26242)
(-9.85241e-17 -1.18817 -3.49162)
(-4.31953e-17 -2.29945 -4.16246)
(-2.9159e-17 -2.13863 -4.47744)
(-1.9025e-17 -1.126 -4.38566)
(-4.92494e-17 0.311638 -4.02694)
(5.06451e-17 2.27845 -3.11948)
(-9.8013e-16 -0.0782953 1.0168)
(-9.80298e-16 -0.102204 0.993181)
(-9.80429e-16 -0.109595 0.980355)
(-9.80542e-16 -0.11723 0.96498)
(-9.80653e-16 -0.12165 0.950063)
(-9.80755e-16 -0.122778 0.938499)
(-9.80855e-16 -0.124294 0.928791)
(-9.80953e-16 -0.125475 0.919049)
(-9.81044e-16 -0.125496 0.909907)
(-9.81126e-16 -0.124773 0.901428)
(-9.81198e-16 -0.12255 0.89404)
(-9.81258e-16 -0.119364 0.888382)
(-9.81309e-16 -0.115266 0.884512)
(-9.81349e-16 -0.112282 0.88204)
(-9.81377e-16 -0.110815 0.880196)
(-9.81389e-16 -0.109633 0.879103)
(-9.81383e-16 -0.108187 0.879492)
(-9.81359e-16 -0.108421 0.881954)
(-9.81317e-16 -0.112169 0.886286)
(-9.81258e-16 -0.118433 0.891771)
(-9.81182e-16 -0.126909 0.898612)
(-9.81088e-16 -0.139366 0.905938)
(-9.80967e-16 -0.156556 0.913028)
(-9.80797e-16 -0.178047 0.92028)
(-9.80564e-16 -0.205605 0.928655)
(-9.8025e-16 -0.241063 0.938175)
(-9.79829e-16 -0.287171 0.949128)
(-9.79264e-16 -0.346714 0.961768)
(-9.78512e-16 -0.423459 0.975688)
(-9.77524e-16 -0.521882 0.991031)
(-9.76258e-16 -0.647216 1.00701)
(-9.74702e-16 -0.806018 1.02353)
(-9.72912e-16 -1.00592 1.04109)
(-9.71062e-16 -1.25808 1.06409)
(-9.69464e-16 -1.57787 1.10031)
(-9.68468e-16 -1.9797 1.15708)
(-9.6818e-16 -2.46702 1.23787)
(-9.68087e-16 -3.01199 1.33888)
(-9.6669e-16 -3.52519 1.45233)
(-9.59869e-16 -3.78802 1.52532)
(-9.34101e-16 -3.4143 1.39389)
(-8.65624e-16 -2.29071 0.925882)
(-7.80458e-16 -1.52828 0.552247)
(-7.76596e-16 -1.76556 0.669843)
(-7.90799e-16 -1.37703 0.440756)
(-7.99801e-16 -1.30383 0.673977)
(-8.00935e-16 -0.865047 0.449972)
(-7.90419e-16 -0.576964 0.474613)
(-7.88838e-16 -0.56481 0.473917)
(-7.90527e-16 -0.126135 0.120572)
(-8.04588e-16 0.669697 0.277242)
(-7.99731e-16 1.1302 0.561212)
(-7.90485e-16 1.70704 0.481118)
(-7.124e-16 -0.161024 0.287345)
(-5.91406e-16 -5.56355 -0.106711)
(-4.46838e-16 -10.0521 -0.410079)
(-2.64823e-16 -7.07217 -0.316479)
(-1.90979e-16 -3.60278 -0.307392)
(-1.70062e-16 -0.994877 -0.148728)
(-1.66534e-16 -0.452097 0.0130268)
(-1.58544e-16 -0.419648 0.152044)
(-1.66036e-16 -0.39149 0.313818)
(-1.84618e-16 0.226755 -0.452587)
(-1.91819e-16 1.23017 -2.23755)
(-1.86379e-16 1.81717 -3.88266)
(-1.75741e-16 1.84555 -5.1353)
(-1.66375e-16 1.45167 -5.97308)
(-1.60147e-16 0.83433 -6.4221)
(-1.57902e-16 0.118271 -6.77713)
(-1.6541e-16 -0.474331 -6.68766)
(-1.65869e-16 -0.60938 -5.11106)
(-1.60055e-16 -1.17945 -4.00745)
(-1.68695e-16 -1.12175 -3.06424)
(-1.13953e-16 -1.13881 -3.13785)
(-5.24261e-17 -2.16202 -3.99383)
(-3.21156e-17 -2.10998 -4.44686)
(-1.94783e-17 -1.1776 -4.39011)
(-5.15595e-17 0.149992 -4.01082)
(5.51331e-17 1.98208 -2.9212)
(-9.79838e-16 -0.0753965 1.04288)
(-9.80012e-16 -0.0987363 1.01727)
(-9.80152e-16 -0.106294 1.00281)
(-9.80274e-16 -0.113885 0.985887)
(-9.80394e-16 -0.118601 0.969562)
(-9.80505e-16 -0.120394 0.95631)
(-9.80615e-16 -0.12213 0.944845)
(-9.80722e-16 -0.123406 0.933647)
(-9.80825e-16 -0.123649 0.923036)
(-9.80919e-16 -0.123128 0.913339)
(-9.81002e-16 -0.121203 0.905108)
(-9.81072e-16 -0.118464 0.898897)
(-9.81131e-16 -0.114893 0.894583)
(-9.81178e-16 -0.11236 0.891836)
(-9.81211e-16 -0.11107 0.890157)
(-9.81226e-16 -0.109993 0.889711)
(-9.81218e-16 -0.109013 0.890974)
(-9.8119e-16 -0.109772 0.894174)
(-9.8114e-16 -0.113718 0.899156)
(-9.8107e-16 -0.119975 0.905148)
(-9.80983e-16 -0.128591 0.912038)
(-9.80878e-16 -0.141254 0.919113)
(-9.80741e-16 -0.15845 0.926122)
(-9.80552e-16 -0.1799 0.933463)
(-9.80295e-16 -0.207417 0.941912)
(-9.79954e-16 -0.243217 0.95142)
(-9.79502e-16 -0.289484 0.962238)
(-9.78906e-16 -0.349297 0.9746)
(-9.78124e-16 -0.426314 0.98809)
(-9.77112e-16 -0.52497 1.00283)
(-9.75837e-16 -0.650481 1.01801)
(-9.74293e-16 -0.809528 1.03374)
(-9.72547e-16 -1.01026 1.05092)
(-9.70781e-16 -1.26448 1.07421)
(-9.69297e-16 -1.58778 1.11101)
(-9.68415e-16 -1.99418 1.16769)
(-9.68198e-16 -2.48609 1.24709)
(-9.68115e-16 -3.03434 1.34556)
(-9.66646e-16 -3.54407 1.45435)
(-9.59158e-16 -3.78123 1.5138)
(-9.30628e-16 -3.354 1.35001)