/*--------------------------------*- C++ -*----------------------------------*\
| =========                 |                                                 |
| \\      /  F ield         | OpenFOAM: The Open Source CFD Toolbox           |
|  \\    /   O peration     | Version:  4.1                                   |
|   \\  /    A nd           | Web:      www.OpenFOAM.org                      |
|    \\/     M anipulation  |                                                 |
\*---------------------------------------------------------------------------*/
FoamFile
{
    version     2.0;
    format      ascii;
    class       volScalarField;
    location    "3";
    object      p;
}
// * * * * * * * * * * * * * * * * * * * * * * * * * * * * * * * * * * * * * //

dimensions      [0 2 -2 0 0 0 0];

internalField   nonuniform List<scalar> 
225
(
523.53
470.135
418.303
369.887
324.989
282.966
243.605
206.594
171.494
138.124
107.177
79.0348
50.0022
15.0812
-14.0707
57.1362
34.8791
29.0358
25.266
19.796
14.0885
8.92112
4.52095
1.03211
-1.42824
-2.61948
-2.1177
-0.020476
1.86068
2.11486
-46.2297
-52.9494
-47.1575
-42.8949
-39.7285
-36.1104
-32.1929
-28.212
-24.2615
-20.5203
-17.163
-14.0606
-10.9346
-8.26818
-7.0362
0.0597558
-2.29166
2.49058
2.91775
2.97839
3.19998
3.13107
2.76262
2.18229
1.41192
0.407623
-0.78057
-1.71584
-1.83859
-1.52381
17.4701
15.2307
16.7945
14.538
12.9584
11.6187
10.1181
8.63331
7.28188
6.1343
5.20461
4.45806
3.9681
3.958
4.21373
8.19253
6.0949
6.84515
5.35127
5.03347
5.00493
4.89999
4.91339
5.07592
5.36599
5.76613
6.22567
6.59309
6.86408
7.03523
3.54941
2.26056
3.21483
2.89172
3.4424
4.01321
4.43748
4.90309
5.37671
5.79954
6.16809
6.4779
6.68556
6.77409
6.78476
5.11382
4.56216
5.54697
5.57733
6.03576
6.29936
6.39857
6.50671
6.58323
6.58474
6.53106
6.46297
6.3787
6.28947
6.2239
6.33589
6.1108
6.80967
6.72391
6.8309
6.73711
6.56477
6.43814
6.30384
6.13893
5.96619
5.81264
5.69799
5.61839
5.56703
5.47559
5.32566
5.7254
5.53335
5.4708
5.29618
5.13369
5.04406
4.95958
4.87972
4.81447
4.77393
4.74328
4.70595
4.65204
3.75633
3.6165
3.84012
3.65699
3.60505
3.51597
3.4791
3.49676
3.50292
3.51317
3.53064
3.55346
3.56427
3.54589
3.48133
2.21888
2.09881
2.24651
2.12686
2.14494
2.15615
2.21816
2.29609
2.34235
2.38235
2.42056
2.44543
2.45581
2.43735
2.36941
1.20023
1.12334
1.2526
1.2046
1.28797
1.36203
1.463
1.54459
1.58545
1.62034
1.64879
1.66399
1.66123
1.64014
1.57937
0.61401
0.584976
0.707552
0.69157
0.795107
0.873379
0.956523
1.0013
1.01124
1.01834
1.0192
1.00311
0.982928
0.959513
0.906739
0.207364
0.188472
0.258646
0.262846
0.363171
0.414796
0.449273
0.441348
0.414629
0.392531
0.361647
0.318406
0.272773
0.236525
0.194552
)
;

boundaryField
{
    inletFace
    {
        type            zeroGradient;
    }
    inlet
    {
        type            zeroGradient;
    }
    inletWalls
    {
        type            zeroGradient;
    }
    outletInlet
    {
        type            fixedValue;
        value           uniform 0;
    }
}


// ************************************************************************* //
