/*--------------------------------*- C++ -*----------------------------------*\
| =========                 |                                                 |
| \\      /  F ield         | OpenFOAM: The Open Source CFD Toolbox           |
|  \\    /   O peration     | Version:  4.1                                   |
|   \\  /    A nd           | Web:      www.OpenFOAM.org                      |
|    \\/     M anipulation  |                                                 |
\*---------------------------------------------------------------------------*/
FoamFile
{
    version     2.0;
    format      ascii;
    class       surfaceScalarField;
    location    "3";
    object      phi;
}
// * * * * * * * * * * * * * * * * * * * * * * * * * * * * * * * * * * * * * //

dimensions      [0 3 -1 0 0 0 0];

internalField   nonuniform List<scalar> 
420
(
-949.833
2249.78
-1573.63
1924.08
-2053.47
1779.76
-2423.65
1670.15
-2699.39
1575.96
-2888
1488.55
-2992.78
1404.69
-3013.67
1321.12
-2949.58
1235.79
-2797.32
1147.65
-2551.43
1054.24
-2193.28
941.843
-1687.53
794.179
-1012.93
625.617
286.969
372.608
1877.19
442.128
1854.65
436.513
1785.41
405.619
1701.13
379.287
1602.29
358.669
1509.22
344.027
1419.29
336.28
1328.88
332.211
1239.78
325.719
1154.09
308.215
1071.64
265.863
984.052
189.949
869.869
110.616
704.719
397.571
34.6994
1842.46
-98.0778
1986.4
-255.192
1942.71
-374.483
1819.35
-476.493
1704.45
-572.004
1603.68
-656.288
1503.7
-731.533
1403.11
-793.838
1302.02
-843.544
1202.92
-874.116
1101.75
-861.407
970.669
-744.346
751.801
-435.764
395.039
-38.2017
29.2565
1813.3
-101.836
2116.86
-227.284
2068.09
-306.339
1897.61
-369.527
1767.39
-418.605
1652.02
-448.024
1532.53
-458.789
1413.3
-453.918
1296.37
-432.275
1180.71
-388.188
1057.89
-312.947
893.942
-193.505
631.243
-48.9319
249.368
-87.1446
166.981
1645.95
144.533
2140.02
122.741
2089.09
124.425
1896.82
128.291
1762.42
138.751
1642.69
151.542
1518.56
171.222
1395.07
191.568
1275.6
213.321
1159.79
236.259
1037.64
247.012
879.928
233.908
643.225
152.461
329.698
65.3469
221.881
1423.63
245.472
2117.03
237.694
2096.61
240.795
1894.7
245.163
1758.38
249.478
1639.42
251.781
1516.94
250.343
1397.11
245.272
1280.8
237.247
1168.55
219.923
1052.18
201.231
904.148
159.973
687.996
83.4244
409.578
148.762
208.724
1214.95
245.463
2079.73
220.935
2121.71
196.248
1918.83
180.868
1774.63
165.268
1654.36
151.23
1531.81
135.226
1412.36
120.1
1296.47
104.942
1183
91.6176
1066.06
73.8347
920.376
50.1817
710.464
17.5792
441.132
166.347
178.608
1037.25
228.762
2028.96
204.58
2146.78
171.495
1950.98
152.177
1794.92
136.008
1669.44
121.703
1546.95
106.318
1426.68
94.0157
1309.1
82.0371
1194.39
71.4763
1076.19
60.6636
931.898
43.7118
728.078
19.2327
466.2
185.577
146.707
891.836
209.545
1966.35
195.537
2161.82
167.435
1978.94
150.877
1812.28
138.816
1681.13
128.205
1558.27
115.554
1438.93
104.801
1320.56
94.0318
1205.01
83.08
1087.54
69.1889
945.518
49.0567
747.956
21.076
493.946
206.664
112.24
780.502
179.692
1899.9
175.347
2166.6
152.651
2002.66
137.91
1827.23
127.799
1692.39
116.552
1569.68
106.029
1450.67
93.8095
1333.07
82.6217
1217.29
69.7861
1099.97
57.0583
960.182
39.4876
766.843
17.4643
517.173
224.155
78.0956
702.396
138.317
1840.71
141.017
2163.49
122.388
2022.5
106.93
1842.22
97.2853
1703.44
84.599
1581.86
73.7952
1462.87
61.4005
1344.95
50.2957
1229.77
36.8211
1112
28.6659
972.276
17.7162
781.011
5.75816
532.039
229.89
49.8717
652.06
97.416
1793.41
103.55
2157.22
89.7441
2036.67
75.5251
1856.12
65.2123
1714.02
54.9548
1591.78
44.7934
1473.16
35.5194
1354.45
26.4238
1238.56
19.5375
1120.46
9.12955
979.241
0.230787
787.121
-6.50529
536.303
223.392
27.1519
623.902
61.5675
1758.48
67.6233
2150.45
57.113
2046.91
46.1361
1866.58
36.901
1723.11
28.5563
1599.77
21.4605
1480.2
13.9504
1361.69
7.38546
1245.14
1.67343
1125.92
-2.36015
983.963
-5.2987
790.86
-6.40373
538.091
216.972
8.81933
614.71
35.6253
1731.01
45.4438
2140.66
37.0112
2054.73
27.3956
1876.31
19.2912
1730.47
12.3233
1606.77
5.68825
1485.94
0.465526
1366.72
-5.69779
1250.34
-9.21808
1129.38
-11.825
984.713
-12.7655
789.871
-10.0108
533.588
206.959
-2.45615
9.69742
14.1476
9.91952
2.75335
-3.37077
-8.36933
-13.6119
-17.976
-21.2786
-23.6859
-23.3327
-19.9882
-13.0176
)
;

boundaryField
{
    inletFace
    {
        type            calculated;
        value           nonuniform List<scalar> 
450
(
-2.27024e-14
5.74857e-13
-2.547e-13
-1.16104e-13
1.62299e-13
-1.95728e-13
-6.51132e-14
6.92307e-14
-1.03062e-13
-2.82302e-14
5.19781e-14
-2.28315e-14
5.00621e-15
3.92697e-15
-1.93624e-15
-2.09425e-12
-2.36488e-12
-1.1077e-13
-7.91337e-13
-3.40425e-13
1.88805e-14
-2.89206e-13
-1.40557e-13
2.43476e-15
-1.31203e-13
-5.62539e-14
3.88832e-14
6.65973e-16
-8.78745e-16
-1.18519e-16
-2.26194e-12
-2.30044e-12
-2.89933e-13
-5.15357e-13
-1.32908e-13
-1.25998e-13
-2.98056e-13
-1.11636e-13
-9.63716e-14
-1.11266e-13
-3.58645e-14
-4.08023e-14
-1.24562e-14
2.738e-14
3.83478e-15
-2.62267e-12
-2.06202e-12
-3.10472e-13
-5.39039e-13
-1.29229e-13
-1.99816e-13
-4.13008e-13
-1.08213e-13
-1.59642e-13
-1.96153e-13
-3.42855e-14
-9.45332e-14
-9.69256e-14
6.00114e-14
9.43125e-14
-2.41917e-12
-2.2687e-12
-3.91108e-13
-6.26188e-13
-2.80492e-13
-2.05118e-13
-3.80961e-13
-1.11465e-13
-1.46486e-13
-1.69806e-13
-8.65456e-14
-9.87048e-14
-8.30949e-14
9.57565e-15
6.1e-14
-2.10642e-12
-2.31008e-12
-6.25363e-13
-6.14962e-13
-2.45933e-13
-2.17721e-13
-3.43671e-13
-1.11091e-13
-1.21029e-13
-1.52686e-13
-7.80146e-14
-6.91278e-14
-6.33985e-14
8.76078e-15
-8.11917e-15
-1.89141e-12
-2.40212e-12
-8.62571e-13
-5.91428e-13
-2.82498e-13
-2.54661e-13
-3.24603e-13
-1.57848e-13
-1.35676e-13
-1.44222e-13
-8.95648e-14
-1.11011e-13
-9.95838e-14
-8.28163e-14
-1.97343e-13
-1.64892e-12
-2.43378e-12
-1.07787e-12
-5.7986e-13
-3.13955e-13
-2.58438e-13
-3.09073e-13
-1.84807e-13
-1.53611e-13
-1.916e-13
-1.33727e-13
-1.75954e-13
-5.57762e-14
-3.67724e-14
-2.15578e-13
-1.39784e-12
-2.41105e-12
-1.24766e-12
-5.98422e-13
-3.39131e-13
-2.47863e-13
-2.95443e-13
-1.95292e-13
-1.79761e-13
-2.08552e-13
-1.43585e-13
-1.60945e-13
-6.09052e-14
-3.36848e-14
-5.06431e-14
-1.20313e-12
-2.34995e-12
-1.37969e-12
-6.47939e-13
-3.4842e-13
-2.35536e-13
-2.81686e-13
-2.07721e-13
-1.73222e-13
-2.0639e-13
-1.48725e-13
-7.21905e-14
-5.58414e-14
-6.81121e-14
6.82279e-14
-9.85574e-13
-2.27508e-12
-1.46908e-12
-6.91561e-13
-3.60704e-13
-1.99409e-13
-2.6172e-13
-2.15246e-13
-1.55548e-13
-1.85536e-13
-1.48556e-13
-2.60688e-14
-3.90916e-14
1.56676e-14
1.00939e-13
-8.50683e-13
-2.21379e-12
-1.50315e-12
-7.27463e-13
-3.77814e-13
-1.71051e-13
-2.55428e-13
-2.22005e-13
-1.14891e-13
-1.50788e-13
-1.53012e-13
-3.86768e-15
-7.2939e-14
1.37543e-13
1.49824e-13
-7.91944e-13
-2.15282e-12
-1.54323e-12
-7.54417e-13
-3.92004e-13
-1.91189e-13
-2.44445e-13
-2.4094e-13
-1.05151e-13
-1.4395e-13
-1.47054e-13
6.32078e-15
-2.2037e-14
9.8903e-14
1.25168e-13
-7.43932e-13
-2.10269e-12
-1.5697e-12
-7.79392e-13
-4.01568e-13
-1.92157e-13
-2.38569e-13
-2.54557e-13
-9.48523e-14
-1.39301e-13
-1.4958e-13
9.82936e-15
-1.4739e-14
9.16453e-14
1.04736e-13
-7.25478e-13
-2.02823e-12
-1.56968e-12
-8.02749e-13
-4.06351e-13
-2.00139e-13
-2.39303e-13
-2.38575e-13
-1.03662e-13
-1.39948e-13
-1.34232e-13
9.28542e-16
-7.68273e-15
8.44508e-14
6.08815e-14
2.27024e-14
-5.74857e-13
2.547e-13
1.16104e-13
-1.62299e-13
1.95728e-13
6.51132e-14
-6.92307e-14
1.03062e-13
2.82302e-14
-5.19781e-14
2.28315e-14
-5.00621e-15
-3.92697e-15
1.93624e-15
2.09425e-12
2.36488e-12
1.1077e-13
7.91337e-13
3.40425e-13
-1.88805e-14
2.89206e-13
1.40557e-13
-2.43476e-15
1.31203e-13
5.62539e-14
-3.88832e-14
-6.65973e-16
8.78745e-16
1.18519e-16
2.26194e-12
2.30044e-12
2.89933e-13
5.15357e-13
1.32908e-13
1.25998e-13
2.98056e-13
1.11636e-13
9.63716e-14
1.11266e-13
3.58645e-14
4.08023e-14
1.24562e-14
-2.738e-14
-3.83478e-15
2.62267e-12
2.06202e-12
3.10472e-13
5.39039e-13
1.29229e-13
1.99816e-13
4.13008e-13
1.08213e-13
1.59642e-13
1.96153e-13
3.42855e-14
9.45332e-14
9.69256e-14
-6.00114e-14
-9.43125e-14
2.41917e-12
2.2687e-12
3.91108e-13
6.26188e-13
2.80492e-13
2.05118e-13
3.80961e-13
1.11465e-13
1.46486e-13
1.69806e-13
8.65456e-14
9.87048e-14
8.30949e-14
-9.57565e-15
-6.1e-14
2.10642e-12
2.31008e-12
6.25363e-13
6.14962e-13
2.45933e-13
2.17721e-13
3.43671e-13
1.11091e-13
1.21029e-13
1.52686e-13
7.80146e-14
6.91278e-14
6.33985e-14
-8.76078e-15
8.11917e-15
1.89141e-12
2.40212e-12
8.62571e-13
5.91428e-13
2.82498e-13
2.54661e-13
3.24603e-13
1.57848e-13
1.35676e-13
1.44222e-13
8.95648e-14
1.11011e-13
9.95838e-14
8.28163e-14
1.97343e-13
1.64892e-12
2.43378e-12
1.07787e-12
5.7986e-13
3.13955e-13
2.58438e-13
3.09073e-13
1.84807e-13
1.53611e-13
1.916e-13
1.33727e-13
1.75954e-13
5.57762e-14
3.67724e-14
2.15578e-13
1.39784e-12
2.41105e-12
1.24766e-12
5.98422e-13
3.39131e-13
2.47863e-13
2.95443e-13
1.95292e-13
1.79761e-13
2.08552e-13
1.43585e-13
1.60945e-13
6.09052e-14
3.36848e-14
5.06431e-14
1.20313e-12
2.34995e-12
1.37969e-12
6.47939e-13
3.4842e-13
2.35536e-13
2.81686e-13
2.07721e-13
1.73222e-13
2.0639e-13
1.48725e-13
7.21905e-14
5.58414e-14
6.81121e-14
-6.82279e-14
9.85574e-13
2.27508e-12
1.46908e-12
6.91561e-13
3.60704e-13
1.99409e-13
2.6172e-13
2.15246e-13
1.55548e-13
1.85536e-13
1.48556e-13
2.60688e-14
3.90916e-14
-1.56676e-14
-1.00939e-13
8.50683e-13
2.21379e-12
1.50315e-12
7.27463e-13
3.77814e-13
1.71051e-13
2.55428e-13
2.22005e-13
1.14891e-13
1.50788e-13
1.53012e-13
3.86768e-15
7.2939e-14
-1.37543e-13
-1.49824e-13
7.91944e-13
2.15282e-12
1.54323e-12
7.54417e-13
3.92004e-13
1.91189e-13
2.44445e-13
2.4094e-13
1.05151e-13
1.4395e-13
1.47054e-13
-6.32078e-15
2.2037e-14
-9.8903e-14
-1.25168e-13
7.43932e-13
2.10269e-12
1.5697e-12
7.79392e-13
4.01568e-13
1.92157e-13
2.38569e-13
2.54557e-13
9.48523e-14
1.39301e-13
1.4958e-13
-9.82936e-15
1.4739e-14
-9.16453e-14
-1.04736e-13
7.25478e-13
2.02823e-12
1.56968e-12
8.02749e-13
4.06351e-13
2.00139e-13
2.39303e-13
2.38575e-13
1.03662e-13
1.39948e-13
1.34232e-13
-9.28542e-16
7.68273e-15
-8.44508e-14
-6.08815e-14
)
;
    }
    inlet
    {
        type            calculated;
        value           nonuniform List<scalar> 
15
(
-1299.9
-1300.2
-1299.9
-1299.9
-1300.2
-1299.9
-1299.9
-1300.2
-1299.9
-1299.9
-1300.2
-1299.9
-1299.9
-1300.2
-1299.9
)
;
    }
    inletWalls
    {
        type            calculated;
        value           uniform 0;
    }
    outletInlet
    {
        type            calculated;
        value           nonuniform List<scalar> 
15
(
193.942
526.453
786.363
984.218
1131.55
1253.39
1370.8
1490.91
1611.57
1736.33
1883.29
2058.69
2135.93
1718.52
616.586
)
;
    }
}


// ************************************************************************* //
