/*--------------------------------*- C++ -*----------------------------------*\
| =========                 |                                                 |
| \\      /  F ield         | OpenFOAM: The Open Source CFD Toolbox           |
|  \\    /   O peration     | Version:  4.1                                   |
|   \\  /    A nd           | Web:      www.OpenFOAM.org                      |
|    \\/     M anipulation  |                                                 |
\*---------------------------------------------------------------------------*/
FoamFile
{
    version     2.0;
    format      ascii;
    class       volVectorField;
    location    "3";
    object      U;
}
// * * * * * * * * * * * * * * * * * * * * * * * * * * * * * * * * * * * * * //

dimensions      [0 1 -1 0 0 0 0];

internalField   nonuniform List<vector> 
225
(
(1.11886e-14 0.852743 15.7933)
(9.30551e-15 -4.89482 12.1217)
(-2.04731e-15 -4.19668 12.1326)
(4.24391e-15 -3.6023 11.9973)
(4.8018e-16 -3.00589 11.8784)
(-1.78055e-16 -2.55438 11.6999)
(1.94716e-15 -2.20992 11.4778)
(2.6529e-16 -1.96705 11.2126)
(-4.21493e-17 -1.79943 10.917)
(9.78598e-16 -1.71309 10.5893)
(5.61717e-17 -1.83796 10.1572)
(-2.99638e-16 -2.28595 9.53868)
(2.31873e-16 -2.51305 8.96482)
(-2.71857e-17 -1.06564 8.91448)
(1.34042e-17 1.76532 7.47126)
(1.51877e-14 -5.35094 22.4971)
(1.63735e-14 -14.6101 21.3923)
(7.66837e-16 -13.2752 20.343)
(7.53417e-15 -11.7755 19.5074)
(2.35697e-15 -11.1603 18.5048)
(-1.30706e-16 -10.6623 17.5185)
(2.11294e-15 -10.0935 16.5725)
(9.73161e-16 -9.52864 15.6246)
(-1.68553e-17 -8.96857 14.6648)
(8.75563e-16 -8.37002 13.6954)
(3.89479e-16 -7.7595 12.7185)
(-2.69181e-16 -7.3055 11.7212)
(-5.3097e-18 -7.02097 10.628)
(6.08407e-18 -5.73348 9.16628)
(8.20483e-19 -2.30743 4.5849)
(1.47168e-14 -7.71771 23.9844)
(1.55302e-14 -16.7814 24.6759)
(2.00739e-15 -13.7455 23.9376)
(8.49582e-15 -12.3084 22.6273)
(4.70527e-15 -11.642 21.2445)
(8.72362e-16 -10.8113 20.0036)
(3.20053e-15 -9.93669 18.7755)
(7.72838e-16 -9.09466 17.5259)
(6.6724e-16 -8.27673 16.2661)
(1.55667e-15 -7.46732 15.0275)
(2.48283e-16 -6.65871 13.8187)
(2.82499e-16 -5.83244 12.4258)
(-6.36866e-16 -4.80042 10.2607)
(-1.89547e-16 -3.10802 6.65878)
(-2.65505e-17 -0.823322 1.66798)
(1.81535e-14 -8.50212 22.0414)
(1.42984e-14 -16.6246 24.3439)
(1.92235e-15 -12.9237 23.8053)
(3.73213e-15 -12.1405 22.0059)
(8.23505e-16 -11.4111 20.5053)
(1.65051e-15 -10.4867 19.172)
(2.85953e-15 -9.62438 17.816)
(6.70266e-16 -8.81279 16.4572)
(1.13299e-15 -8.04447 15.119)
(1.34322e-15 -7.31672 13.8099)
(2.25162e-16 -6.54118 12.4287)
(6.45087e-16 -5.4678 10.5583)
(6.46214e-16 -3.74879 7.45087)
(-2.21247e-16 -1.45307 2.67618)
(-9.5546e-16 0.183465 -1.80187)
(1.65359e-14 -8.47384 19.7469)
(1.53615e-14 -16.3528 24.318)
(2.52924e-15 -13.0771 23.6677)
(4.14033e-15 -12.6176 21.5385)
(1.63115e-15 -11.8554 20.0219)
(1.31016e-15 -10.9561 18.6605)
(2.52065e-15 -10.1663 17.2558)
(5.23418e-16 -9.40052 15.8674)
(8.82147e-16 -8.65326 14.5194)
(1.10523e-15 -7.93388 13.208)
(4.48147e-16 -7.17146 11.8202)
(5.9901e-16 -6.11 9.97745)
(4.68797e-16 -4.38978 7.11063)
(-4.28095e-16 -2.25754 3.21491)
(-7.92627e-16 -0.733358 0.248851)
(1.48093e-14 -8.02876 17.5723)
(1.60761e-14 -16.0175 24.5286)
(4.87995e-15 -13.6387 24.0441)
(3.79596e-15 -13.0096 21.758)
(1.7516e-15 -12.1457 20.2087)
(1.14413e-15 -11.2368 18.8442)
(2.37919e-15 -10.4491 17.4322)
(8.28191e-16 -9.66078 16.0408)
(3.93037e-16 -8.87058 14.6922)
(4.38488e-16 -8.09863 13.3822)
(-6.24331e-17 -7.29865 12.0137)
(7.38096e-16 -6.27763 10.2675)
(4.389e-16 -4.70927 7.69409)
(2.96585e-16 -2.73097 4.35096)
(4.52413e-16 -0.933114 1.27192)
(1.32193e-14 -7.34688 15.261)
(1.64597e-14 -15.4984 24.3535)
(6.05585e-15 -14.0503 24.4205)
(4.09486e-15 -13.1588 22.0658)
(1.9808e-15 -12.1633 20.4412)
(1.87047e-15 -11.2416 19.0598)
(2.24745e-15 -10.4413 17.6469)
(1.15547e-15 -9.62578 16.2583)
(1.07574e-15 -8.811 14.9078)
(9.98544e-16 -8.02103 13.5936)
(7.85021e-16 -7.21288 12.2335)
(1.99538e-16 -6.22376 10.5315)
(6.89486e-16 -4.75759 8.07338)
(1.962e-16 -2.88269 4.912)
(3.30744e-15 -0.993181 1.769)
(1.07432e-14 -6.54036 12.9767)
(1.68502e-14 -14.84 23.7951)
(7.41973e-15 -14.2955 24.6767)
(3.96782e-15 -13.2531 22.3349)
(2.17366e-15 -12.162 20.5949)
(1.6808e-15 -11.2532 19.1762)
(2.72399e-15 -10.4572 17.762)
(1.27951e-15 -9.63581 16.3763)
(9.25661e-16 -8.82356 15.0231)
(1.40162e-15 -8.04073 13.7045)
(9.25854e-16 -7.2387 12.349)
(1.02763e-15 -6.27032 10.6774)
(3.8612e-16 -4.87086 8.2966)
(2.54593e-16 -3.07143 5.24456)
(9.8256e-16 -1.13674 2.04091)
(9.67706e-15 -5.73156 11.0158)
(1.66914e-14 -14.1425 23.0489)
(8.09317e-15 -14.4497 24.8567)
(4.1428e-15 -13.3892 22.6342)
(2.34777e-15 -12.2319 20.7674)
(1.01733e-15 -11.3333 19.2994)
(2.04532e-15 -10.5408 17.8876)
(1.35199e-15 -9.71891 16.5065)
(1.04099e-15 -8.91222 15.1509)
(1.44378e-15 -8.13626 13.828)
(9.94021e-16 -7.33722 12.4762)
(1.76656e-15 -6.37912 10.8339)
(4.21639e-16 -5.02405 8.52513)
(2.33196e-16 -3.2727 5.55413)
(-5.77716e-16 -1.25974 2.26945)
(8.0278e-15 -5.03518 9.51013)
(1.62684e-14 -13.4814 22.2616)
(9.88902e-15 -14.5271 24.9609)
(4.39467e-15 -13.542 22.952)
(2.41207e-15 -12.334 20.9782)
(1.5768e-15 -11.4269 19.456)
(1.25633e-15 -10.6276 18.0471)
(1.43802e-15 -9.80338 16.6712)
(1.13143e-15 -8.99857 15.3139)
(5.40683e-16 -8.22241 13.9873)
(1.02961e-15 -7.42253 12.6363)
(3.13507e-16 -6.47119 11.0148)
(4.10895e-17 -5.1514 8.76481)
(4.71532e-16 -3.44278 5.8575)
(-7.65864e-16 -1.35422 2.49602)
(6.61114e-15 -4.51951 8.44762)
(1.58011e-14 -12.906 21.5375)
(9.99856e-15 -14.5284 24.9837)
(5.24693e-15 -13.664 23.2332)
(2.54766e-15 -12.42 21.1882)
(1.16304e-15 -11.4919 19.6138)
(1.8118e-15 -10.6791 18.2041)
(1.55346e-15 -9.8519 16.8304)
(8.3653e-16 -9.04743 15.4702)
(1.28441e-15 -8.26818 14.139)
(1.11145e-15 -7.46324 12.783)
(-1.9833e-16 -6.5136 11.1675)
(-7.77092e-16 -5.22171 8.95071)
(-7.7028e-16 -3.55222 6.07783)
(-7.68721e-16 -1.40384 2.64321)
(5.88918e-15 -4.18491 7.743)
(1.53517e-14 -12.4386 20.9326)
(1.01454e-14 -14.4777 24.9432)
(5.03614e-15 -13.7445 23.4485)
(2.64095e-15 -12.4813 21.368)
(1.12935e-15 -11.5305 19.747)
(1.76829e-15 -10.7053 18.3318)
(1.92032e-15 -9.87929 16.9561)
(7.60741e-16 -9.0783 15.5913)
(1.04388e-15 -8.29821 14.2549)
(1.05929e-15 -7.49328 12.891)
(-5.44186e-16 -6.54173 11.2698)
(5.63513e-16 -5.25231 9.05902)
(-1.03441e-15 -3.58934 6.1804)
(-1.20814e-15 -1.39267 2.63165)
(5.38433e-15 -3.9996 7.31833)
(1.48903e-14 -12.0759 20.4641)
(1.06947e-14 -14.3954 24.8662)
(5.3052e-15 -13.7799 23.5947)
(2.7138e-15 -12.5129 21.509)
(1.32358e-15 -11.5456 19.8523)
(1.52807e-15 -10.711 18.4283)
(1.58729e-15 -9.88911 17.0475)
(6.92877e-16 -9.09175 15.6775)
(9.96661e-16 -8.3096 14.3354)
(1.0603e-15 -7.50126 12.9603)
(-9.17368e-17 -6.54533 11.3232)
(1.52577e-16 -5.2576 9.10322)
(-6.03031e-16 -3.59565 6.20339)
(-1.01341e-15 -1.36801 2.5486)
(5.02462e-15 -3.91655 7.10482)
(1.4551e-14 -11.8261 20.1481)
(1.08496e-14 -14.3186 24.785)
(5.4425e-15 -13.7973 23.6848)
(2.77381e-15 -12.5313 21.6048)
(1.33024e-15 -11.5515 19.9231)
(1.66656e-15 -10.7106 18.4917)
(1.74619e-15 -9.89324 17.1071)
(6.56631e-16 -9.09833 15.7349)
(9.83501e-16 -8.31397 14.3905)
(1.01462e-15 -7.50313 13.008)
(-6.80454e-17 -6.5429 11.3588)
(1.30852e-16 -5.25196 9.13045)
(-6.74963e-16 -3.58322 6.21137)
(-7.2505e-16 -1.33508 2.47502)
(5.01272e-15 -3.9488 7.10307)
(1.40376e-14 -11.569 19.8302)
(1.08709e-14 -14.2022 24.6519)
(5.55734e-15 -13.7879 23.7576)
(2.7774e-15 -12.5433 21.7208)
(1.42437e-15 -11.5602 20.0164)
(1.65667e-15 -10.7123 18.5711)
(1.64354e-15 -9.89884 17.1748)
(7.26442e-16 -9.10218 15.7959)
(9.68846e-16 -8.31183 14.4424)
(9.241e-16 -7.49129 13.0334)
(-5.67487e-19 -6.50928 11.3379)
(5.31866e-17 -5.19299 9.06014)
(-5.94803e-16 -3.48288 6.06563)
(-4.02173e-16 -1.23047 2.25463)
)
;

boundaryField
{
    inletFace
    {
        type            zeroGradient;
    }
    inlet
    {
        type            fixedValue;
        value           uniform (0 8.7 15);
    }
    inletWalls
    {
        type            noSlip;
    }
    outletInlet
    {
        type            zeroGradient;
    }
}


// ************************************************************************* //
