/*--------------------------------*- C++ -*----------------------------------*\
| =========                 |                                                 |
| \\      /  F ield         | OpenFOAM: The Open Source CFD Toolbox           |
|  \\    /   O peration     | Version:  4.1                                   |
|   \\  /    A nd           | Web:      www.OpenFOAM.org                      |
|    \\/     M anipulation  |                                                 |
\*---------------------------------------------------------------------------*/
FoamFile
{
    version     2.0;
    format      ascii;
    class       volVectorField;
    location    "5";
    object      U;
}
// * * * * * * * * * * * * * * * * * * * * * * * * * * * * * * * * * * * * * //

dimensions      [0 1 -1 0 0 0 0];

internalField   nonuniform List<vector> 
6785
(
(2.10824e-14 0.684643 15.7416)
(6.61845e-15 -5.1304 12.0539)
(-3.27861e-15 -4.29273 12.1844)
(3.85686e-15 -3.72401 12.0223)
(6.19231e-16 -3.11949 11.9012)
(-8.64966e-17 -2.66655 11.7155)
(2.19718e-15 -2.31765 11.4883)
(7.11285e-16 -2.07345 11.217)
(-2.76298e-16 -1.90791 10.914)
(1.8875e-15 -1.81713 10.5845)
(3.62823e-17 -1.92234 10.1651)
(-8.95003e-17 -2.37169 9.56021)
(1.4578e-15 -2.68959 8.96988)
(-1.07104e-16 -1.33537 8.92612)
(-9.96874e-16 1.73292 7.64113)
(1.73169e-14 -5.63888 22.183)
(2.15534e-14 -14.7699 21.3403)
(7.01025e-16 -13.2456 20.4984)
(1.93616e-15 -11.8224 19.6222)
(2.60079e-15 -11.2262 18.5977)
(1.15552e-16 -10.7088 17.6051)
(3.82348e-15 -10.1207 16.6522)
(1.93991e-15 -9.54414 15.6955)
(-1.43226e-16 -8.97809 14.7276)
(1.06812e-14 -8.37533 13.7516)
(1.22374e-15 -7.75039 12.7737)
(-3.17379e-16 -7.27608 11.7829)
(3.94676e-15 -7.01164 10.6936)
(6.29125e-16 -5.78366 8.97381)
(-8.81755e-16 -1.73272 4.85192)
(1.38153e-14 -7.89667 22.182)
(2.0175e-14 -16.7507 24.7041)
(1.53279e-15 -13.8084 23.9926)
(5.9162e-15 -12.4899 22.6571)
(2.576e-15 -11.8276 21.2614)
(2.91705e-16 -10.9856 20.0198)
(7.21649e-16 -10.104 18.7894)
(1.43823e-15 -9.25767 17.538)
(-4.63885e-16 -8.43449 16.2742)
(4.50452e-16 -7.61912 15.0211)
(5.87848e-15 -6.79683 13.8018)
(-1.39601e-15 -5.96837 12.431)
(-1.14379e-15 -4.99047 10.3254)
(1.47806e-16 -3.27409 6.88909)
(-9.55076e-16 -0.661065 2.39779)
(1.82071e-14 -8.13639 17.9759)
(1.95228e-14 -16.3282 24.455)
(-1.25803e-15 -13.4228 23.9553)
(5.01811e-15 -12.5238 22.1172)
(1.87398e-15 -11.7979 20.6097)
(1.94522e-15 -10.8486 19.278)
(2.13549e-15 -9.97033 17.9183)
(-3.53097e-16 -9.14216 16.5537)
(2.39434e-15 -8.34987 15.2011)
(-9.99818e-17 -7.60102 13.8731)
(4.46677e-16 -6.84111 12.5298)
(1.91693e-15 -5.8801 10.8616)
(-2.16358e-15 -4.39151 8.19808)
(-3.16975e-15 -2.24851 3.98055)
(1.4278e-14 0.0114258 -1.35119)
(1.47277e-14 -7.32126 13.9186)
(1.47407e-14 -15.3593 23.7139)
(2.06454e-15 -13.9099 24.0405)
(3.62124e-15 -13.1078 21.9428)
(-9.04053e-16 -12.317 20.3271)
(4.8573e-15 -11.3914 18.9581)
(1.8203e-16 -10.5733 17.55)
(-5.46342e-15 -9.78071 16.1476)
(-1.95841e-15 -8.99246 14.7763)
(-1.31141e-15 -8.23005 13.4397)
(3.36438e-16 -7.461 12.0874)
(4.25312e-16 -6.5158 10.454)
(-4.69169e-15 -5.04649 8.05044)
(-9.62761e-15 -3.17413 4.57642)
(-2.31837e-14 -1.17999 1.48599)
(1.50496e-14 -6.12685 10.8655)
(1.95196e-14 -14.1813 22.6695)
(1.24281e-14 -14.3692 24.3301)
(3.61022e-15 -13.5523 22.4683)
(-1.1091e-15 -12.5834 20.7531)
(1.77582e-17 -11.6382 19.3304)
(3.01117e-16 -10.816 17.9069)
(-3.27057e-16 -9.9961 16.4944)
(4.16786e-15 -9.16602 15.1119)
(-1.52837e-15 -8.3566 13.762)
(-6.66013e-15 -7.5488 12.406)
(-3.8868e-15 -6.62592 10.8229)
(4.88242e-15 -5.23617 8.63994)
(-7.07e-15 -3.66926 5.60191)
(1.8294e-15 -1.4506 3.03414)
(1.87781e-14 -5.10009 8.78251)
(2.06017e-14 -12.9955 21.5446)
(1.17922e-14 -14.3126 24.2378)
(4.22242e-15 -13.5812 22.8953)
(6.59376e-17 -12.5238 21.1517)
(1.76388e-15 -11.5848 19.6565)
(3.00816e-16 -10.7597 18.2156)
(-1.11062e-16 -9.92184 16.7987)
(2.2309e-15 -9.08298 15.4048)
(-1.08226e-15 -8.27439 14.0392)
(-3.12527e-15 -7.47027 12.6739)
(3.25017e-15 -6.5829 11.0942)
(-2.52429e-15 -5.19666 8.98817)
(-8.07386e-15 -3.9396 6.09546)
(1.9973e-14 -1.52947 3.98234)
(1.19908e-14 -4.59235 7.93891)
(2.06602e-14 -12.1652 20.7901)
(1.30076e-14 -14.0251 23.8102)
(4.58505e-15 -13.443 23.0395)
(7.57281e-16 -12.4468 21.3318)
(1.70389e-15 -11.5503 19.7843)
(3.95225e-16 -10.7307 18.3343)
(1.43103e-15 -9.89394 16.9175)
(3.06437e-15 -9.06779 15.5179)
(-8.42647e-16 -8.27305 14.1461)
(-2.09885e-15 -7.4728 12.7763)
(2.61788e-15 -6.59876 11.1708)
(-1.53059e-15 -5.12333 9.07243)
(-6.22905e-15 -4.08133 6.17336)
(2.40415e-15 -1.5435 4.36527)
(1.22327e-14 -4.46367 7.78444)
(2.04551e-14 -11.682 20.3047)
(8.26639e-15 -13.7868 23.2547)
(5.20041e-15 -13.3743 23.0399)
(1.16464e-15 -12.5064 21.4162)
(-5.44297e-15 -11.629 19.8513)
(1.43653e-15 -10.7959 18.4053)
(1.84133e-15 -9.95669 16.9927)
(-6.87495e-15 -9.13418 15.5938)
(1.03542e-16 -8.3373 14.2244)
(-1.19431e-15 -7.52253 12.8551)
(-9.42724e-15 -6.64997 11.2074)
(1.10028e-15 -5.06063 9.10181)
(-5.05979e-15 -4.2335 6.24572)
(-6.5116e-15 -1.62343 4.67988)
(1.02849e-14 -4.39163 7.54542)
(1.97594e-14 -11.3275 19.8039)
(1.63279e-14 -13.638 22.7326)
(2.33915e-15 -13.3943 23.0067)
(1.53514e-15 -12.6506 21.5128)
(-5.73306e-15 -11.7537 19.9507)
(-9.37348e-16 -10.8903 18.5076)
(1.05095e-15 -10.0442 17.0966)
(-1.87785e-15 -9.21701 15.699)
(-2.27424e-15 -8.41082 14.3322)
(-1.2327e-15 -7.57613 12.9628)
(-1.97027e-15 -6.70919 11.2622)
(7.09367e-16 -5.02316 9.14706)
(-2.15315e-15 -4.41639 6.39422)
(-7.62208e-15 -1.76788 5.03937)
(-3.1867e-15 -4.18409 6.95655)
(1.89202e-14 -10.9256 19.1445)
(1.08573e-14 -13.5029 22.2974)
(3.31936e-15 -13.4404 23.0007)
(2.38818e-15 -12.81 21.6856)
(-2.1596e-15 -11.8909 20.135)
(-2.3832e-15 -11.002 18.68)
(1.13756e-15 -10.1535 17.2596)
(-1.18282e-14 -9.32271 15.8567)
(-3.58383e-15 -8.51181 14.484)
(-1.24197e-16 -7.65912 13.1098)
(-1.75786e-14 -6.80461 11.3596)
(-1.13992e-14 -5.05029 9.24197)
(-1.25207e-14 -4.61941 6.60209)
(-1.21649e-14 -1.93624 5.41323)
(-2.74724e-16 -3.80787 6.04755)
(2.35509e-14 -10.4019 18.3166)
(4.19744e-15 -13.2848 21.872)
(1.91624e-15 -13.3937 22.9547)
(3.2682e-15 -12.8619 21.8173)
(-2.5681e-15 -11.9256 20.2856)
(-2.2659e-15 -11.0276 18.8225)
(8.2692e-15 -10.1872 17.4007)
(-6.37212e-15 -9.36232 16.0031)
(-3.72975e-15 -8.56092 14.6316)
(-5.6282e-16 -7.70084 13.2508)
(-2.09707e-14 -6.85184 11.4415)
(-7.38844e-15 -5.03506 9.33413)
(-1.90015e-14 -4.82062 6.85694)
(-2.26021e-14 -2.08685 5.80135)
(-3.35988e-15 -3.56977 5.63636)
(1.61726e-14 -9.98703 17.6581)
(7.57892e-15 -13.1552 21.6761)
(2.05154e-15 -13.5073 23.1189)
(3.33718e-15 -13.1142 22.2027)
(-8.08188e-15 -12.2162 20.6696)
(-4.17702e-15 -11.3003 19.1275)
(5.24989e-15 -10.4405 17.6412)
(-6.73687e-15 -9.58545 16.1896)
(-4.5088e-15 -8.76257 14.7669)
(7.05521e-16 -7.85763 13.357)
(-1.27059e-14 -7.01052 11.4862)
(-8.53293e-15 -5.10391 9.34691)
(-1.54984e-14 -4.88953 6.87021)
(-2.02729e-14 -2.18422 5.88874)
(-1.0038e-14 -2.63721 3.37702)
(1.36778e-14 -8.98953 16.2257)
(5.45799e-15 -12.3436 20.6754)
(1.91368e-16 -12.6945 22.4687)
(2.05364e-15 -12.3835 21.681)
(-6.18665e-15 -11.5113 20.3492)
(-1.97327e-15 -10.7194 19.0402)
(4.34455e-15 -9.98112 17.7452)
(-6.93179e-15 -9.24928 16.4743)
(-2.75721e-15 -8.52596 15.1764)
(-1.68294e-15 -7.71936 13.7876)
(-1.23146e-14 -6.84436 11.9521)
(-7.70869e-15 -5.27146 9.9576)
(-1.53535e-14 -5.32456 8.02996)
(-1.75434e-14 -2.43915 6.72711)
(-6.21128e-15 -5.552 11.2022)
(1.37581e-14 -11.0251 20.3601)
(8.24831e-15 -14.2081 23.6618)
(1.8326e-15 -15.0494 25.1014)
(9.33923e-16 -14.8949 24.0001)
(-3.91117e-15 -13.9048 22.0011)
(-3.62405e-15 -12.5846 19.728)
(1.09589e-15 -11.2388 17.6839)
(-4.27088e-15 -9.90856 15.6962)
(-4.00974e-15 -8.71002 13.8345)
(-4.64549e-15 -7.39893 11.9982)
(-1.11817e-14 -6.08853 9.45311)
(-9.11858e-15 -3.92306 6.88664)
(-1.97359e-14 -3.47872 3.85603)
(-1.2685e-14 -0.886377 2.1483)
(-2.51117e-15 0.0630114 -1.99953)
(-3.02617e-15 0.501983 -4.48509)
(-2.12866e-15 0.641778 -3.59504)
(-2.13578e-15 0.97245 -3.5974)
(-2.06173e-15 1.19124 -3.48681)
(-2.7067e-15 1.49598 -4.06789)
(-1.94612e-15 1.32061 -2.86982)
(-1.56188e-15 1.57911 -2.82712)
(-7.35523e-16 1.75069 -2.75462)
(3.28562e-15 2.02286 -3.20907)
(-3.34109e-15 1.69809 -2.37255)
(-2.29665e-15 1.81969 -2.27744)
(-1.91464e-15 2.20029 -2.70851)
(-1.28282e-15 1.74113 -2.06264)
(-9.26971e-16 1.88429 -2.03133)
(-6.33197e-16 1.9744 -1.98289)
(-1.85484e-16 2.34786 -2.34659)
(-3.6314e-16 1.82801 -1.8276)
(-2.70773e-16 1.88246 -1.77836)
(-1.6272e-16 2.35812 -2.0443)
(1.00964e-16 1.77164 -1.60958)
(3.78179e-16 1.90699 -1.58247)
(2.06662e-16 1.96074 -1.5564)
(-1.20333e-16 2.4179 -1.73604)
(-9.24513e-17 1.84373 -1.38394)
(1.40567e-16 1.96333 -1.35112)
(-1.69113e-16 1.99996 -1.32715)
(-5.86591e-16 2.43381 -1.41837)
(-1.50184e-16 1.88357 -1.14216)
(-2.69089e-16 1.9021 -1.12661)
(-1.07145e-15 2.37544 -1.12686)
(-4.32667e-16 1.78417 -0.930746)
(-7.42526e-16 1.88105 -0.896146)
(-5.0608e-16 1.88097 -0.883513)
(-7.13399e-16 2.28435 -0.825306)
(-6.60701e-16 1.74086 -0.692027)
(-6.2235e-16 1.74391 -0.694382)
(-1.2556e-15 2.14833 -0.572032)
(-8.98334e-16 1.59572 -0.504708)
(-9.05041e-16 1.66877 -0.481363)
(-1.32594e-15 1.64898 -0.486467)
(-2.50981e-15 1.98233 -0.328361)
(-1.8185e-15 1.47003 -0.316723)
(-1.85514e-15 1.53214 -0.299383)
(-1.84411e-15 1.51188 -0.312779)
(-2.70158e-15 1.77608 -0.120651)
(-1.32134e-15 1.33836 -0.147454)
(-1.29718e-15 1.33583 -0.174668)
(-1.99204e-15 1.57317 0.0654274)
(-2.09147e-15 1.16027 -0.0137388)
(-1.83017e-15 1.20745 -0.0220392)
(-1.63281e-15 1.18819 -0.0505801)
(-2.30369e-15 1.31342 0.207169)
(-1.82727e-15 0.988665 0.0811174)
(-2.32767e-15 1.02964 0.0460056)
(-1.21177e-15 1.02276 0.00667118)
(-1.39547e-15 1.02428 0.255473)
(-9.35545e-16 0.845606 0.0869269)
(-5.21646e-16 0.863538 0.0306163)
(-1.00992e-15 0.818769 0.2709)
(-1.2781e-15 0.693226 0.0520307)
(-1.26389e-15 0.741614 -0.0259799)
(-2.01937e-15 0.749157 -0.0581301)
(5.15473e-15 0.55506 0.19334)
(6.27566e-15 0.526365 -0.123789)
(6.92808e-15 0.571858 -0.201529)
(9.42362e-15 0.294389 -0.608619)
(-1.0701e-15 0.22158 -0.205069)
(-1.07362e-15 0.22906 0.182254)
(-1.25706e-15 0.223387 0.349469)
(-2.40685e-15 -0.0146942 1.67735)
(-3.0133e-15 -0.633644 2.8624)
(-3.28069e-15 -0.76853 2.90922)
(-3.53307e-15 -0.86787 2.96397)
(-4.71498e-15 -2.05704 5.40318)
(-2.73906e-15 -2.19058 5.09629)
(-3.06872e-15 -2.26793 5.35188)
(-3.89197e-15 -4.12472 8.55583)
(-3.0609e-15 -4.40797 7.05841)
(-3.50735e-15 -4.60543 7.53976)
(-5.31524e-15 -5.13387 8.83239)
(-5.25955e-15 -5.08557 8.84557)
(-5.35335e-15 -5.35323 9.11131)
(-2.25256e-15 -6.5142 12.0513)
(-5.79004e-15 -6.16006 10.8772)
(-6.555e-15 -6.47435 11.3104)
(-6.4822e-15 -6.4835 11.4593)
(-6.13759e-15 -6.58798 11.6351)
(-5.90676e-15 -6.70124 11.8225)
(-5.51382e-15 -6.80216 12.0411)
(-4.54991e-15 -6.91309 12.415)
(-3.4861e-15 -7.08897 12.8856)
(-2.5621e-15 -7.87721 15.2356)
(-3.27881e-15 -7.92581 14.162)
(-3.20248e-15 -8.08674 14.4637)
(-3.24034e-15 -8.05201 14.643)
(-3.63583e-15 -8.28396 15.1497)
(-3.50255e-15 -8.24663 15.2111)
(-3.44671e-15 -8.34851 15.4138)
(-3.37498e-15 -8.42614 15.5979)
(-3.28822e-15 -8.57772 15.8338)
(-9.27556e-16 -8.98108 18.0833)
(-8.32291e-16 -9.18081 17.0918)
(-7.24693e-16 -9.27479 17.3429)
(-6.17078e-16 -9.3167 17.4693)
(-4.44823e-16 -9.35121 17.6548)
(-2.34725e-16 -9.40276 17.9243)
(-1.28815e-16 -9.50004 18.2252)
(-1.63771e-16 -9.51348 18.3399)
(-8.22283e-17 -9.60775 18.5222)
(-5.29298e-18 -9.73538 18.7075)
(2.10592e-15 -9.59379 20.0466)
(6.84749e-17 -9.9862 19.286)
(1.70288e-16 -10.0052 19.4849)
(2.10207e-16 -10.0422 19.5907)
(2.8857e-16 -10.0822 19.7362)
(4.32831e-16 -10.0891 19.9061)
(1.05121e-15 -10.1695 20.2367)
(1.26532e-15 -10.2172 20.3862)
(1.26374e-15 -10.3269 20.4594)
(1.47176e-15 -9.47121 20.429)
(1.22422e-15 -10.0786 19.9646)
(1.04126e-15 -10.0171 20.1973)
(7.05903e-16 -10.0505 20.3777)
(8.45881e-16 -9.98529 20.3532)
(9.34926e-16 -10.004 20.386)
(1.04571e-15 -10.0121 20.4041)
(1.15956e-15 -10.0286 20.4546)
(1.34777e-15 -10.1625 20.6993)
(1.55444e-15 -8.15504 18.6686)
(1.88349e-15 -9.29211 19.1254)
(2.11657e-15 -9.10781 18.9499)
(2.32514e-15 -9.08689 18.8584)
(2.92079e-15 -9.04118 18.8742)
(3.06491e-15 -8.95524 18.6856)
(3.06664e-15 -8.87757 18.4029)
(3.12813e-15 -8.84886 18.0913)
(3.21769e-15 -8.75816 17.6907)
(3.62623e-15 -6.27438 14.0152)
(3.45099e-15 -7.48434 15.6757)
(3.41377e-15 -7.13673 15.0419)
(3.40801e-15 -7.10393 14.6401)
(3.39638e-15 -6.98004 14.109)
(3.45177e-15 -6.91473 13.5152)
(4.09706e-15 -6.71836 12.714)
(3.66092e-15 -6.65999 12.2192)
(3.4357e-15 -6.48718 11.559)
(3.11137e-15 -6.18483 10.838)
(1.26575e-15 -3.46763 5.64392)
(2.60549e-15 -4.79662 8.50928)
(2.17411e-15 -4.25856 7.33719)
(1.65481e-15 -4.27202 6.81783)
(1.02733e-15 -4.03093 6.05732)
(2.22767e-16 -3.9394 5.18691)
(-1.46994e-15 -3.76644 3.81429)
(-3.32212e-15 -3.39645 2.47292)
(-3.17741e-15 -3.20661 2.28022)
(-4.48869e-15 -1.93944 -0.585005)
(-3.70517e-15 -2.8044 1.37522)
(-3.83907e-15 -2.37327 0.51116)
(-3.04897e-15 -1.10333 -1.99126)
(-5.10946e-15 -2.79272 -1.27361)
(-4.03682e-15 -1.89207 -1.2143)
(-3.4268e-15 -1.70872 -0.735652)
(-1.21572e-15 -1.96182 -1.09389)
(-2.61461e-15 -1.35975 -0.567255)
(-3.25924e-15 -1.66495 -1.01945)
(-5.79532e-15 -1.40001 -0.775641)
(-3.94492e-15 -1.07593 -0.49898)
(-4.9632e-15 -1.15062 -0.879835)
(-4.90336e-15 -0.936698 -0.686845)
(-4.67136e-15 -0.769344 -0.386073)
(-6.3897e-15 -0.838614 -0.535048)
(-6.12768e-15 -0.639816 -0.19324)
(-1.01155e-14 -0.526953 -0.195014)
(-5.63574e-15 -0.618665 -0.337555)
(-6.8748e-15 -0.513451 -0.443486)
(-1.04895e-14 -0.643697 -0.37604)
(-1.77121e-15 -0.356429 -0.639104)
(-2.95558e-15 -0.251025 -0.633021)
(-2.85898e-15 -0.370785 -1.00869)
(-1.82063e-15 -0.314137 -1.05489)
(-2.23183e-15 -0.0438749 -1.17248)
(-5.01745e-15 0.192672 -1.33478)
(-3.88393e-15 0.236005 -1.03591)
(-4.61577e-15 0.564896 -1.31294)
(-3.39915e-15 0.527798 -1.02757)
(-7.2657e-15 0.775515 -1.24832)
(-3.52579e-15 1.15347 -1.32908)
(-2.70475e-15 0.889018 -0.967598)
(-3.66872e-15 1.50036 -1.22267)
(-2.64072e-15 1.23204 -0.930704)
(-2.73889e-15 1.61224 -1.1199)
(-4.17511e-15 2.04597 -1.16781)
(-3.23909e-15 1.56769 -0.852552)
(-3.49309e-15 2.05475 -1.00989)
(-4.39869e-15 2.61066 -1.03035)
(-3.16836e-15 1.87777 -0.759992)
(-4.28821e-15 2.91008 -0.929136)
(-3.14458e-15 2.2547 -0.712038)
(-4.00638e-15 2.80779 -0.845243)
(-3.16649e-15 3.42301 -0.839405)
(-1.83509e-15 2.42664 -0.62921)
(-4.3301e-15 3.67227 -0.745875)
(-3.16994e-15 2.78774 -0.574133)
(-3.32224e-15 3.45645 -0.676621)
(-4.57307e-15 4.06135 -0.656506)
(-3.21011e-15 2.99152 -0.494003)
(-3.62678e-15 3.77222 -0.563878)
(-4.14915e-15 4.49301 -0.526707)
(-2.92548e-15 3.14661 -0.412525)
(-2.90498e-15 4.70402 -0.475716)
(-2.50505e-15 3.51805 -0.367097)
(-2.18911e-15 4.29339 -0.438932)
(-4.82028e-15 5.03474 -0.39917)
(-2.78622e-15 3.5268 -0.307613)
(-3.8174e-15 5.24213 -0.354831)
(-2.79781e-15 3.90989 -0.265137)
(-3.4109e-15 4.7636 -0.331383)
(-3.93937e-15 5.44776 -0.296214)
(-2.62538e-15 3.98275 -0.215083)
(-3.22776e-15 4.98706 -0.250895)
(-3.37069e-15 5.80192 -0.20833)
(-2.74694e-15 4.05951 -0.161036)
(-3.31606e-15 5.98437 -0.197263)
(-2.39489e-15 4.46412 -0.136364)
(-2.66018e-15 5.37363 -0.189563)
(-3.5493e-15 6.17671 -0.158095)
(-2.45912e-15 4.33879 -0.105558)
(-3.05787e-15 6.38462 -0.14569)
(-2.21591e-15 4.77351 -0.0844276)
(-2.55863e-15 5.75012 -0.143859)
(-2.94294e-15 6.48061 -0.13463)
(-2.00055e-15 4.75771 -0.0725438)
(-2.40422e-15 5.93542 -0.104526)
(-2.72918e-15 6.83334 -0.106788)
(-1.86076e-15 4.81641 -0.0592197)
(-2.46223e-15 7.04396 -0.132316)
(-1.77224e-15 5.21354 -0.0713394)
(-2.31282e-15 6.60639 -0.163566)
(-3.37592e-15 -0.181143 4.00654)
(-3.44322e-15 -0.171758 4.05027)
(-3.48813e-15 -0.178323 4.07973)
(-3.54143e-15 -0.188419 4.11548)
(-3.59718e-15 -0.199662 4.1539)
(-3.65592e-15 -0.201272 4.19522)
(-3.71713e-15 -0.20103 4.23805)
(-3.78172e-15 -0.205885 4.28355)
(-3.85059e-15 -0.211272 4.33256)
(-3.92343e-15 -0.223343 4.3847)
(-4.00011e-15 -0.242008 4.44002)
(-4.08011e-15 -0.276785 4.49945)
(-4.16356e-15 -0.311077 4.56523)
(-4.24834e-15 -0.331993 4.63553)
(-4.3323e-15 -0.352574 4.70726)
(-4.4149e-15 -0.389702 4.78052)
(-4.49476e-15 -0.440541 4.85725)
(-4.56901e-15 -0.480937 4.93572)
(-4.63575e-15 -0.535834 5.01282)
(-4.6963e-15 -0.598468 5.08972)
(-4.75284e-15 -0.663443 5.16546)
(-4.8117e-15 -0.743451 5.24054)
(-4.88287e-15 -0.831263 5.31883)
(-4.97815e-15 -0.933722 5.40566)
(-5.10809e-15 -1.05169 5.50909)
(-5.27624e-15 -1.19045 5.63923)
(-5.4741e-15 -1.3555 5.80617)
(-5.67766e-15 -1.55164 6.01775)
(-5.84956e-15 -1.78448 6.27698)
(-5.94819e-15 -2.0571 6.57994)
(-5.94309e-15 -2.36973 6.916)
(-5.83243e-15 -2.71984 7.27037)
(-5.65211e-15 -3.10536 7.62856)
(-5.46684e-15 -3.52578 7.98084)
(-5.34427e-15 -3.98663 8.32728)
(-5.32902e-15 -4.50368 8.68871)
(-5.43591e-15 -5.11232 9.11779)
(-5.6513e-15 -5.86918 9.66345)
(-5.89538e-15 -6.78554 10.2198)
(-5.94675e-15 -7.67179 10.3287)
(-5.46303e-15 -7.94882 9.23435)
(-4.08754e-15 -5.87884 6.37849)
(-4.73327e-16 5.67246 1.81017)
(4.08818e-16 2.71131 2.67753)
(2.31932e-16 0.48877 4.21756)
(2.63955e-16 -1.05187 4.40865)
(2.42247e-16 -2.03716 4.57352)
(2.49639e-16 -3.4261 4.66829)
(3.53959e-16 -4.01761 5.05261)
(6.76623e-16 -4.51441 5.99224)
(1.26772e-15 -4.84278 7.12894)
(1.89243e-15 -4.06839 8.88888)
(1.48638e-15 -3.15664 11.8305)
(4.79196e-17 -3.15109 15.3404)
(-3.12407e-16 -3.59545 17.1781)
(5.89906e-16 -3.14284 16.8109)
(4.19146e-16 -0.347668 15.757)
(-2.7976e-16 2.28118 15.6086)
(9.86314e-18 2.90136 15.4307)
(1.01101e-16 3.81168 14.431)
(1.98757e-16 3.91655 12.8462)
(2.80673e-16 2.5694 10.1397)
(2.80411e-16 -1.1068 5.75736)
(2.57548e-16 -2.98265 3.4382)
(2.31413e-16 -3.95813 1.79269)
(2.46015e-16 -4.33205 0.664907)
(2.24217e-16 -4.44795 -0.0365554)
(9.5403e-17 -5.08794 0.252159)
(-2.38451e-16 -4.97282 -0.714814)
(-2.83799e-16 -5.43007 -0.201255)
(-1.43299e-15 -4.12216 -0.693744)
(-1.86501e-15 -3.78206 -0.985565)
(-2.55253e-15 -4.53688 -1.1409)
(-2.95304e-15 -5.79036 -1.92629)
(-1.71906e-15 -4.59025 -1.94729)
(-5.71538e-16 -2.21217 -1.53048)
(-5.23798e-16 0.754285 -1.89017)
(-8.35659e-16 3.19335 -1.64042)
(-1.16773e-15 5.63936 -0.891286)
(-3.48981e-15 -0.181315 4.08538)
(-3.56887e-15 -0.177856 4.13736)
(-3.61839e-15 -0.186136 4.17076)
(-3.67684e-15 -0.193422 4.21118)
(-3.73647e-15 -0.198393 4.25352)
(-3.79829e-15 -0.198259 4.29856)
(-3.86175e-15 -0.199857 4.34468)
(-3.92753e-15 -0.209038 4.39298)
(-3.99635e-15 -0.223435 4.44461)
(-4.06774e-15 -0.242797 4.4991)
(-4.14141e-15 -0.265724 4.55574)
(-4.21664e-15 -0.293242 4.61509)
(-4.29328e-15 -0.318325 4.67966)
(-4.36941e-15 -0.336877 4.74768)
(-4.44315e-15 -0.361773 4.8155)
(-4.5141e-15 -0.404854 4.88389)
(-4.58144e-15 -0.453237 4.95505)
(-4.64374e-15 -0.495484 5.02652)
(-4.70084e-15 -0.549598 5.09614)
(-4.75572e-15 -0.611529 5.16586)
(-4.81255e-15 -0.681446 5.23585)
(-4.87855e-15 -0.763894 5.30807)
(-4.96297e-15 -0.856877 5.38731)
(-5.0747e-15 -0.967741 5.47966)
(-5.21917e-15 -1.09527 5.59336)
(-5.39366e-15 -1.24603 5.73732)
(-5.58409e-15 -1.42449 5.91959)
(-5.7638e-15 -1.63363 6.14529)
(-5.89748e-15 -1.87743 6.41455)
(-5.95096e-15 -2.15785 6.72154)
(-5.90535e-15 -2.47381 7.05527)
(-5.7706e-15 -2.82351 7.40216)
(-5.58919e-15 -3.20602 7.75001)
(-5.42357e-15 -3.62322 8.09227)
(-5.33218e-15 -4.08454 8.43427)
(-5.35021e-15 -4.61267 8.80493)
(-5.48606e-15 -5.24693 9.25911)
(-5.71441e-15 -6.02498 9.82122)
(-5.93064e-15 -6.8936 10.3311)
(-5.8953e-15 -7.56387 10.2837)
(-5.2673e-15 -7.33389 8.86849)
(-3.57509e-15 -4.20881 5.44719)
(7.75468e-16 5.67038 -0.432467)
(2.99924e-16 1.70546 2.44267)
(2.24365e-16 0.0934634 3.96858)
(2.53619e-16 -1.24487 4.34338)
(2.38241e-16 -2.28397 4.64481)
(2.60794e-16 -3.51736 4.85601)
(4.02256e-16 -4.01472 5.36306)
(7.85754e-16 -4.45755 6.37437)
(1.40559e-15 -4.57332 7.54462)
(1.80389e-15 -3.84651 9.48664)
(1.02479e-15 -3.43509 12.8009)
(-1.31642e-16 -3.70882 16.1707)
(-2.41648e-17 -3.64316 17.3485)
(4.48227e-16 -2.32477 16.5125)
(-1.45188e-16 0.558992 15.7649)
(-3.71659e-16 1.97284 16.4122)
(-1.41781e-16 2.96816 16.2506)
(-5.81014e-17 4.09822 15.3794)
(8.92951e-17 4.51789 13.9715)
(2.13396e-16 3.4819 11.3767)
(2.52849e-16 -0.205723 6.72769)
(2.22939e-16 -4.99758 0.191895)
(2.38354e-16 -4.49373 1.77425)
(2.4958e-16 -4.85486 1.09538)
(2.20429e-16 -4.86508 0.487033)
(8.82891e-17 -5.17225 0.595522)
(-2.39878e-16 -4.73539 -0.462834)
(-2.80801e-16 -4.99355 -0.0958718)
(-1.40796e-15 -3.36542 -0.670888)
(-1.84898e-15 -2.93881 -1.04348)
(-2.51955e-15 -3.81355 -1.25671)
(-2.95685e-15 -5.30442 -2.06631)
(-1.82996e-15 -4.3656 -2.19361)
(-6.93888e-16 -2.09048 -1.83035)
(-6.78258e-16 0.427052 -2.01291)
(-9.43897e-16 2.96487 -1.67579)
(-1.24357e-15 5.38191 -0.846676)
(-3.62709e-15 -0.184686 4.18218)
(-3.7168e-15 -0.186559 4.24278)
(-3.77021e-15 -0.196552 4.28011)
(-3.8329e-15 -0.203081 4.32612)
(-3.89532e-15 -0.203813 4.37381)
(-3.9589e-15 -0.200584 4.42306)
(-4.02314e-15 -0.201206 4.47147)
(-4.08849e-15 -0.213658 4.52104)
(-4.15543e-15 -0.237062 4.57364)
(-4.22347e-15 -0.263477 4.62877)
(-4.29216e-15 -0.288846 4.68555)
(-4.36067e-15 -0.308804 4.74486)
(-4.4285e-15 -0.325642 4.80927)
(-4.49414e-15 -0.342457 4.8749)
(-4.55639e-15 -0.369873 4.93652)
(-4.61525e-15 -0.418567 4.99814)
(-4.67077e-15 -0.46875 5.06479)
(-4.72321e-15 -0.510574 5.13061)
(-4.77436e-15 -0.5612 5.193)
(-4.82873e-15 -0.623546 5.25704)
(-4.89188e-15 -0.694558 5.32378)
(-4.97086e-15 -0.778294 5.39648)
(-5.07282e-15 -0.873725 5.48033)
(-5.20233e-15 -0.989814 5.58226)
(-5.35866e-15 -1.12289 5.71018)
(-5.53262e-15 -1.28253 5.8706)
(-5.70539e-15 -1.47078 6.06976)
(-5.84944e-15 -1.68995 6.30973)
(-5.93405e-15 -1.94269 6.58763)
(-5.93517e-15 -2.2307 6.8962)
(-5.84733e-15 -2.55172 7.2245)
(-5.69237e-15 -2.90417 7.56035)
(-5.5175e-15 -3.28805 7.89431)
(-5.38024e-15 -3.70756 8.22418)
(-5.32805e-15 -4.17662 8.56296)
(-5.38603e-15 -4.72331 8.9492)
(-5.55404e-15 -5.38502 9.43473)
(-5.78931e-15 -6.17407 10.006)
(-5.95805e-15 -6.97708 10.4363)
(-5.80515e-15 -7.41742 10.1714)
(-4.99611e-15 -6.68929 8.41585)
(-3.05327e-15 -2.91974 4.62042)
(7.58916e-16 3.75895 -0.541285)
(2.69725e-16 1.49213 2.50269)
(2.18076e-16 -0.0917322 3.86679)
(2.40646e-16 -1.2507 4.29322)
(2.37193e-16 -2.28481 4.68689)
(2.8187e-16 -3.52366 5.00153)
(4.74507e-16 -4.1733 5.65082)
(9.27455e-16 -4.69502 6.76036)
(1.5292e-15 -4.8265 8.11117)
(1.62219e-15 -4.36119 10.388)
(6.02577e-16 -4.29689 13.841)
(-1.73191e-16 -4.50498 16.67)
(1.70406e-16 -3.97895 17.1988)
(1.68967e-16 -2.31082 16.4036)
(-4.56976e-16 0.282508 16.2246)
(-3.82865e-16 1.98683 16.8269)
(-2.45197e-16 3.13169 16.636)
(-1.39325e-16 4.31777 15.9142)
(2.49558e-17 4.90413 14.6483)
(1.7228e-16 4.17624 12.28)
(2.33717e-16 0.965371 7.9453)
(1.7346e-16 -5.11346 -0.0505101)
(2.30546e-16 -4.98519 0.475909)
(2.47337e-16 -4.94428 1.05901)
(2.13629e-16 -5.02262 0.789274)
(7.31324e-17 -5.28319 0.838695)
(-2.41634e-16 -4.9383 -0.186014)
(-2.81098e-16 -5.19842 0.0843016)
(-1.38772e-15 -3.52456 -0.540661)
(-1.8305e-15 -3.08465 -1.00646)
(-2.47982e-15 -3.81886 -1.28973)
(-2.95789e-15 -5.25044 -2.10837)
(-1.9593e-15 -4.45333 -2.32223)
(-8.44732e-16 -2.27775 -2.02353)
(-7.96264e-16 0.40765 -2.10027)
(-1.01087e-15 2.85723 -1.71323)
(-1.27109e-15 5.2528 -0.847827)
(-3.77221e-15 -0.195088 4.28835)
(-3.86916e-15 -0.195768 4.35716)
(-3.92426e-15 -0.205137 4.3972)
(-3.98865e-15 -0.210948 4.44811)
(-4.05126e-15 -0.211256 4.49967)
(-4.11405e-15 -0.208946 4.55113)
(-4.17648e-15 -0.209869 4.5995)
(-4.23881e-15 -0.224326 4.64743)
(-4.30146e-15 -0.255929 4.69907)
(-4.36397e-15 -0.288755 4.75463)
(-4.42577e-15 -0.313668 4.8126)
(-4.48602e-15 -0.32415 4.87217)
(-4.54426e-15 -0.333041 4.93411)
(-4.5997e-15 -0.35097 4.99497)
(-4.6519e-15 -0.381358 5.0497)
(-4.70144e-15 -0.429911 5.10513)
(-4.74944e-15 -0.479945 5.16802)
(-4.79771e-15 -0.525819 5.22999)
(-4.84944e-15 -0.57534 5.28781)
(-4.90992e-15 -0.639572 5.34925)
(-4.9848e-15 -0.711556 5.41666)
(-5.07961e-15 -0.797091 5.49393)
(-5.19831e-15 -0.896975 5.58633)
(-5.34069e-15 -1.01765 5.70098)
(-5.50048e-15 -1.15638 5.8445)
(-5.66365e-15 -1.32336 6.02126)
(-5.80901e-15 -1.5179 6.23573)
(-5.91069e-15 -1.74377 6.48704)
(-5.94459e-15 -2.00153 6.77009)
(-5.89752e-15 -2.29279 7.07686)
(-5.77631e-15 -2.6154 7.3971)
(-5.61175e-15 -2.96809 7.72033)
(-5.45228e-15 -3.35169 8.04026)
(-5.34852e-15 -3.77297 8.36016)
(-5.33744e-15 -4.25056 8.70219)
(-5.43516e-15 -4.81547 9.11265)
(-5.63101e-15 -5.49637 9.63113)
(-5.86102e-15 -6.27053 10.1945)
(-5.96419e-15 -6.96752 10.5084)
(-5.67776e-15 -7.14673 9.98058)
(-4.6801e-15 -5.96862 7.87604)
(-2.53704e-15 -1.87866 3.82668)
(8.1095e-16 2.84958 -0.567015)
(2.41403e-16 1.10504 2.59262)
(2.10934e-16 -0.226851 3.81942)
(2.29923e-16 -1.27424 4.29471)
(2.41337e-16 -2.36417 4.74528)
(3.14169e-16 -3.57936 5.14261)
(5.65534e-16 -4.34647 5.92439)
(1.07726e-15 -4.91899 7.13907)
(1.60028e-15 -5.13135 8.71265)
(1.3835e-15 -4.99255 11.3003)
(3.02425e-16 -5.16375 14.6747)
(-1.13274e-16 -5.10107 16.8712)
(2.06667e-16 -4.03676 17.0068)
(-1.56305e-16 -2.09411 16.5371)
(-6.06829e-16 0.334353 16.734)
(-4.58113e-16 1.9851 17.1928)
(-3.71114e-16 3.24198 17.0565)
(-2.4054e-16 4.55536 16.4525)
(-6.04049e-17 5.31508 15.322)
(1.16911e-16 4.90574 13.1937)
(2.15737e-16 2.38447 9.39561)
(1.77129e-16 -3.03591 2.79019)
(1.95255e-16 -5.688 -0.747924)
(2.53757e-16 -5.03276 0.954503)
(2.1288e-16 -5.02736 0.993423)
(5.54291e-17 -5.14569 1.09715)
(-2.42509e-16 -4.86901 0.090544)
(-2.85502e-16 -5.14962 0.272708)
(-1.37693e-15 -3.40544 -0.388427)
(-1.81286e-15 -2.99595 -0.944007)
(-2.43963e-15 -3.70065 -1.29433)
(-2.95459e-15 -5.11436 -2.11857)
(-2.08361e-15 -4.44768 -2.40963)
(-9.98639e-16 -2.38306 -2.16546)
(-9.20393e-16 0.303956 -2.19254)
(-1.08521e-15 2.70882 -1.75828)
(-1.30838e-15 5.0912 -0.93364)
(-3.92027e-15 -0.208891 4.40211)
(-4.02094e-15 -0.205293 4.47838)
(-4.07546e-15 -0.210498 4.51924)
(-4.13898e-15 -0.213863 4.57311)
(-4.19937e-15 -0.214932 4.6265)
(-4.25899e-15 -0.215432 4.67876)
(-4.31731e-15 -0.218611 4.72605)
(-4.37453e-15 -0.234522 4.77079)
(-4.43101e-15 -0.27034 4.81994)
(-4.48639e-15 -0.309573 4.87567)
(-4.54018e-15 -0.335151 4.93507)
(-4.59173e-15 -0.342283 4.99425)
(-4.64099e-15 -0.347572 5.05204)
(-4.688e-15 -0.365049 5.10695)
(-4.73304e-15 -0.395614 5.1553)
(-4.77742e-15 -0.440822 5.2055)
(-4.82329e-15 -0.491044 5.2653)
(-4.87356e-15 -0.541832 5.32561)
(-4.93193e-15 -0.593493 5.38226)
(-5.00349e-15 -0.659645 5.44469)
(-5.09272e-15 -0.733361 5.51678)
(-5.20257e-15 -0.821849 5.60202)
(-5.33329e-15 -0.926459 5.70571)
(-5.48027e-15 -1.05268 5.83468)
(-5.6331e-15 -1.19866 5.99377)
(-5.77514e-15 -1.37079 6.18526)
(-5.88535e-15 -1.57027 6.41188)
(-5.9417e-15 -1.80039 6.67056)
(-5.92791e-15 -2.06115 6.95491)
(-5.84118e-15 -2.35329 7.25663)
(-5.69827e-15 -2.67555 7.5666)
(-5.53533e-15 -3.02694 7.87646)
(-5.39888e-15 -3.4101 8.18371)
(-5.33168e-15 -3.83475 8.49846)
(-5.36151e-15 -4.32326 8.8524)
(-5.49615e-15 -4.90688 9.29505)
(-5.71195e-15 -5.59943 9.84318)
(-5.92157e-15 -6.33752 10.3753)
(-5.94183e-15 -6.8966 10.5328)
(-5.51137e-15 -6.79585 9.70837)
(-4.32841e-15 -5.20497 7.27382)
(-2.01518e-15 -0.936422 3.04499)
(8.20756e-16 2.15509 -0.491375)
(2.19984e-16 0.826485 2.70024)
(2.0845e-16 -0.361932 3.79904)
(2.23025e-16 -1.33772 4.33236)
(2.51828e-16 -2.52278 4.8148)
(3.58864e-16 -3.69745 5.28839)
(6.71697e-16 -4.5502 6.18768)
(1.21984e-15 -5.17312 7.51178)
(1.61232e-15 -5.51365 9.31639)
(1.1297e-15 -5.65937 12.1314)
(1.17607e-16 -5.88539 15.273)
(-3.35246e-17 -5.43181 16.8964)
(1.06675e-16 -3.89328 16.8956)
(-4.47396e-16 -1.8397 16.7913)
(-6.84662e-16 0.360982 17.1235)
(-5.51785e-16 1.97563 17.4883)
(-4.85403e-16 3.35603 17.4158)
(-3.41399e-16 4.75986 16.913)
(-1.49695e-16 5.66256 15.9009)
(5.34687e-17 5.49469 13.9521)
(1.87585e-16 3.36164 10.4567)
(1.79445e-16 -1.80134 4.51024)
(1.65544e-16 -5.8619 -0.889174)
(2.59037e-16 -5.21706 0.600104)
(2.12111e-16 -5.09353 1.00969)
(3.91614e-17 -4.98981 1.33793)
(-2.399e-16 -4.71074 0.378293)
(-2.96194e-16 -5.01027 0.462094)
(-1.37219e-15 -3.19743 -0.229044)
(-1.79682e-15 -2.84575 -0.877202)
(-2.40066e-15 -3.56512 -1.28913)
(-2.94696e-15 -4.9649 -2.11362)
(-2.19714e-15 -4.40673 -2.47429)
(-1.14805e-15 -2.44541 -2.2827)
(-1.04215e-15 0.213098 -2.27168)
(-1.1572e-15 2.56681 -1.80334)
(-1.3415e-15 4.94081 -0.9091)
(-4.06645e-15 -0.22505 4.52079)
(-4.16742e-15 -0.218138 4.60365)
(-4.21931e-15 -0.218273 4.6441)
(-4.27972e-15 -0.217754 4.69931)
(-4.3359e-15 -0.217955 4.75295)
(-4.39054e-15 -0.21986 4.80488)
(-4.44317e-15 -0.225626 4.85039)
(-4.49402e-15 -0.242983 4.8913)
(-4.54341e-15 -0.278035 4.93656)
(-4.59119e-15 -0.319548 4.99112)
(-4.63712e-15 -0.347485 5.05118)
(-4.68108e-15 -0.357546 5.10953)
(-4.72352e-15 -0.36402 5.16328)
(-4.76516e-15 -0.380838 5.21268)
(-4.80704e-15 -0.409007 5.25593)
(-4.85112e-15 -0.449056 5.30226)
(-4.90024e-15 -0.499262 5.3603)
(-4.95772e-15 -0.554372 5.42144)
(-5.02695e-15 -0.610242 5.48058)
(-5.11184e-15 -0.678975 5.54777)
(-5.2148e-15 -0.755895 5.62797)
(-5.33567e-15 -0.848043 5.72387)
(-5.47115e-15 -0.956704 5.84038)
(-5.61315e-15 -1.08811 5.98357)
(-5.74885e-15 -1.24213 6.15706)
(-5.86118e-15 -1.41999 6.36087)
(-5.93134e-15 -1.62483 6.59597)
(-5.94275e-15 -1.85811 6.85795)
(-5.88727e-15 -2.12106 7.13987)
(-5.77125e-15 -2.41348 7.43367)
(-5.61853e-15 -2.73479 7.73168)
(-5.46721e-15 -3.0848 8.02811)
(-5.35963e-15 -3.46857 8.3254)
(-5.33065e-15 -3.899 8.64174)
(-5.40011e-15 -4.40099 9.01686)
(-5.567e-15 -5.00251 9.49615)
(-5.79189e-15 -5.69699 10.0626)
(-5.96364e-15 -6.37892 10.5316)
(-5.88318e-15 -6.77348 10.49)
(-5.29681e-15 -6.3775 9.34265)
(-3.92347e-15 -4.40304 6.59603)
(-1.4594e-15 -0.1009 2.2226)
(6.68621e-16 1.53247 -0.065848)
(2.06961e-16 0.595093 2.81113)
(2.08704e-16 -0.497967 3.7913)
(2.21239e-16 -1.45605 4.38558)
(2.69893e-16 -2.70712 4.88869)
(4.16707e-16 -3.85706 5.43907)
(7.88448e-16 -4.77686 6.4438)
(1.343e-15 -5.46953 7.88246)
(1.57034e-15 -5.96801 9.9047)
(8.90421e-16 -6.32246 12.8419)
(1.75949e-17 -6.45364 15.6643)
(1.03768e-17 -5.58011 16.8449)
(-8.12622e-17 -3.71553 16.8828)
(-6.71105e-16 -1.68935 17.0601)
(-7.4462e-16 0.344145 17.4211)