/*--------------------------------*- C++ -*----------------------------------*\
| =========                 |                                                 |
| \\      /  F ield         | OpenFOAM: The Open Source CFD Toolbox           |
|  \\    /   O peration     | Version:  4.1                                   |
|   \\  /    A nd           | Web:      www.OpenFOAM.org                      |
|    \\/     M anipulation  |                                                 |
\*---------------------------------------------------------------------------*/
FoamFile
{
    version     2.0;
    format      ascii;
    class       surfaceScalarField;
    location    "7";
    object      phi;
}
// * * * * * * * * * * * * * * * * * * * * * * * * * * * * * * * * * * * * * //

dimensions      [0 3 -1 0 0 0 0];

internalField   nonuniform List<scalar> 
13220
(
-906.842
2206.74
-1504.66
1898.02
-1985.12
1780.36
-2354.93
1669.72
-2630.27
1575.53
-2818.7
1488.33
-2923.49
1404.7
-2944.46
1321.17
-2880.28
1235.72
-2727.83
1147.45
-2482.45
1054.82
-2127.44
944.893
-1626.88
799.34
-956.018
629.342
343.882
423.595
1783.15
466.685
1854.94
450.486
1796.56
411.044
1709.17
378.613
1607.97
352.508
1514.44
333.256
1423.96
321.558
1332.88
314.131
1243.15
304.817
1156.77
285.474
1074.17
242.362
988.015
165.862
875.852
88.5485
706.667
432.431
181.161
1602
21.0196
2015.08
-139.941
1957.53
-258.48
1827.71
-362.687
1712.19
-459.707
1611.47
-546.781
1511.04
-624.3
1410.4
-690.447
1309.31
-742.778
1209.11
-777.004
1108.4
-774.402
985.427
-684.571
786.04
-432.66
454.78
-0.228462
215.873
1386.13
135.988
2094.98
2.02668
2091.5
-93.3326
1923.08
-169.461
1788.32
-229.521
1671.54
-269.418
1550.95
-289.369
1430.36
-291.37
1311.32
-275.902
1193.66
-241.745
1074.25
-184.126
927.821
-101.191
703.122
-9.8111
363.422
-10.0392
282.901
1103.24
349.676
2028.21
326.722
2114.46
306.09
1943.72
296.527
1797.9
292.91
1675.17
292.923
1550.94
296.846
1426.45
303.474
1304.7
310.894
1186.25
318.477
1066.68
320.471
925.844
297.162
726.451
215.955
444.652
205.916
249.549
853.698
360.171
1917.59
370.957
2103.68
351.42
1963.27
336.208
1813.11
325.26
1686.12
313.921
1562.29
299.881
1440.5
284.049
1320.53
266.424
1203.87
245.584
1087.52
219.602
951.821
178.174
767.874
109.301
513.521
315.217
131.459
722.248
214.88
1834.18
239.673
2078.9
217.408
1985.54
194.236
1836.29
174.717
1705.65
156.232
1580.78
138.168
1458.56
120.261
1338.44
103.865
1220.28
89.0133
1102.37
76.0634
964.796
61.7892
782.173
44.7823
530.552
359.999
36.8113
685.444
87.8783
1783.12
128.405
2038.38
118.601
1995.35
103.45
1851.45
91.6198
1717.48
79.7118
1592.69
68.6948
1469.58
58.9073
1348.23
49.4301
1229.75
41.2292
1110.58
37.0938
968.91
33.3717
785.875
28.7397
535.165
388.739
15.7663
669.685
57.1976
1741.69
102.315
1993.26
102.433
1995.24
92.5273
1861.36
84.0972
1725.92
76.3269
1600.47
67.9821
1477.93
60.1524
1356.07
52.7144
1237.2
44.9904
1118.3
41.8142
972.127
39.4081
788.321
29.8171
544.793
418.556
36.5411
633.144
85.1421
1693.09
125.039
1953.37
126.015
1994.26
115.17
1872.21
103.531
1737.56
93.1221
1610.88
83.4724
1487.59
73.3391
1366.2
63.7859
1246.75
54.8059
1127.29
49.7307
977.165
45.1979
792.818
31.0832
558.875
449.639
56.7593
576.377
112.986
1636.86
147.907
1918.44
148.651
1993.51
136.403
1884.44
123.552
1750.4
110.695
1623.72
98.4744
1499.79
86.4837
1378.18
74.1648
1259.06
62.7383
1138.69
56.3762
983.545
49.4572
799.746
31.1157
577.223
480.754
54.1054
522.254
107.444
1583.51
133.533
1892.34
130.862
1996.17
113.25
1902.04
95.5209
1768.11
81.1088
1638.11
67.7965
1513.09
56.0253
1389.93
45.8166
1269.24
35.9231
1148.57
32.1143
987.292
30.0091
801.792
20.55
586.628
501.304
45.5241
476.709
105.225
1523.79
141.482
1856.07
155.135
1982.5
156.619
1900.54
148.909
1775.81
135.766
1651.24
119.718
1529.12
100.561
1409.08
81.8271
1287.97
66.9435
1163.45
57.0485
997.185
47.337
811.497
18.1104
615.848
519.415
-33.5473
510.24
-64.9962
1555.23
-93.32
1884.38
-135.666
2024.84
-177.207
1942.07
-207.377
1805.97
-217.905
1661.76
-215.363
1526.58
-203.092
1396.8
-190.47
1275.33
-167.671
1140.64
-135.46
964.957
-94.2937
770.316
-62.828
584.368
456.587
-117.438
216.083
494.32
704.755
746.968
708.03
590.085
462.128
329.521
232.66
147.321
92.1819
40.0658
-6.51782
0.00156097
135.12
-135.117
135.123
135.125
135.127
160.403
-25.2729
160.406
160.408
160.41
206.257
-45.8441
206.26
206.262
262.979
-56.715
262.981
262.983
262.985
320.979
-57.9912
320.981
320.983
379.924
-58.9391
379.926
379.927
379.929
430.443
-50.5125
430.445
430.447
430.448
479.282
-48.832
479.284
479.285
520.628
-41.3415
520.63
520.631
520.633
550.565
-29.9305
550.567
550.568
568.667
-18.0968
568.669
568.67
568.672
571.75
-3.07686
571.752
571.754
571.755
563.861
7.89549
563.863
563.865
531.221
32.6456
531.223
531.224
531.226
464.717
66.5111
464.719
464.72
464.723
366.774
97.95
366.777
366.779
239.098
127.683
239.1
239.103
239.104
71.5349
167.573
71.537
71.541
-156.146
227.688
-156.141
-156.14
-156.135
-700.999
544.864
-700.994
-700.994
-700.99
-1632
931.005
-1631.99
-1632
-2967.75
1335.76
-2967.76
-2967.75
-2894.79
-2810.44
-2728.32
-4491.46
1849.38
-4396.22
-4292
-4175.84
-4058.78
-3941.41
-3820.87
-3685.63
-3537.96
-5789.73
2402.5
-5623.46
-5466.02
-5311.06
-5127.78
-4941.69
-4752.82
-4555.82
-4356.87
-7006.97
2863.5
-6775.38
-6544.4
-6312.74
-6081.25
-5842.97
-5591.83
-5337.53
-5075.78
-4811.39
-7700.35
3148.13
-7416.87
-7131.11
-6843.04
-6555.29
-6268.7
-5967.57
-5653.28
-5335.98
-8167.5
3136.98
-7858.51
-7541.07
-7209.32
-6875.25
-6540.72
-6206.77
-5870.18
-5513.71
-7923.74
2752.63
-7580.49
-7236.42
-6893.23
-6537.38
-6176.01
-5815.33
-5455.83
-5100.65
-6645.94
1888.22
-6303.79
-5960.92
-5620.59
-5283.43
-4951.42
-4633.41
-4319.59
-4014.21
-3717.71
-3907.32
474.568
-3653.84
-3411.94
-3179.55
-2952.94
-2731.29
-2545.04
-2429.75
-2311.39
-1591.52
-598.006
-1485.29
-1376.17
-1376.17
-1062.79
-313.374
-889.827
-172.967
-889.826
-784.959
-104.866
-784.959
-745.958
-38.9998
-802.183
56.2258
-802.183
-908.291
106.11
-981.594
73.3025
-981.593
-1042.81
61.2211
-1042.81
-1114.72
71.9093
-1177.93
63.2065
-1177.93
-1241.32
63.3881
-1241.32
-1307.84
66.5185
-1361.15
53.306
-1361.15
-1422.29
61.1437
-1465.16
42.8653
-1465.16
-1500.51
35.3487
-1500.51
-1537.82
37.3157
-1554.16
16.3395
-1554.16
-1565.43
11.2619
-1565.43
-1578.86
13.4374
-1573.19
-5.67597
-1573.19
-1576.79
3.59565
-1560.4
-16.3821
-1560.41
-1544.74
-15.662
-1544.74
-1537.05
-7.69545
-1510.83
-26.2247
-1510.83
-1486.57
-24.2608
-1486.57
-1468.23
-18.3413
-1434.84
-33.3849
-1434.84
-1406.5
-28.3432
-1363.45
-43.0477
-1363.45
-1316.74
-46.7091
-1316.74
-1263.78
-52.9612
-1198.68
-65.1028
-1198.68
-1122.41
-76.2746
-1122.41
-1028.8
-93.6044
-925.628
-103.175
-925.628
-802.929
-122.7
-669.28
-133.649
-669.28
-515.102
-154.178
-515.103
-326.671
-188.433
-118.439
-208.232
-118.439
108.411
-226.851
108.411
348.723
-240.312
636.712
-287.989
636.712
924.007
-287.296
1247.27
-323.26
1247.27
1580.43
-333.16
1580.43
-350.77
-1235.35
145.599
-1231.07
137.833
-1224.62
120.612
-1217.35
108.314
-1208.76
96.8561
-1199.1
87.1377
-1188.31
78.5138
-1176.36
71.117
-1163.19
65.1824
-1148.74
60.9125
-1132.95
58.2649
-1115.74
57.7405
-1096.97
59.5748
-1076.59
63.3193
-1054.52
68.9624
-1030.64
77.2473
-1004.77
88.1004
-976.789
101.297
-946.568
117.108
-914.059
135.149
-879.398
155.617
-843.038
178.399
-806
203.541
-770.073
231.104
-737.956
261.829
-713.103
297.56
-698.954
340.567
-697.498
392.77
-707.827
455.487
-726.183
530.111
-747.421
616.415
-766.44
712.542
-778.944
815.893
-781.915
924.028
-774.592
1035.26
-760.57
1147.67
-749.809
1262.7
-758.294
1404.46
-801.869
1606.67
-886.259
1908.29
-1004.28
2331.26
-1143.37
2876.83
-1295.06
3540.93
-1457.56
4315.33
-1631.9
5206.59
-1815.35
6209.69
-1994.37
7283.7
-2140.45
8316.04
-2213.57
9083.18
-2174.95
9273.39
-2013.05
8637.5
-1777.87
7327.21
-1556.37
6133.3
-1353.39
5779.38
-1065.81
6006.19
-627.541
6283.93
-90.0624
6247.9
232.218
5061.06
258.341
3040.11
195.688
1294.47
254.372
825.198
159.719
-246.261
234.895
-337.287
144.302
-1566.46
76.4587
-222.008
118.524
410.339
139.659
-9.42404
114.644
-1106.5
228.828
-322.21
358.521
862.966
413.259
914.469
427.354
663.033
438.192
332.95
434.253
-125.886
438.619
-302.497
443.693
-399.139
433.773
-429.725
418.302
-507.98
-767.312
-1206.42
137.706
-1196.29
127.706
-1184.49
108.803
-1171.78
95.6109
-1157.69
82.762
-1142.39
71.8382
-1125.82
61.9478
-1108.01
53.3084
-1088.94
46.1081
-1068.62
40.595
-1047.17
36.8082
-1024.64
35.2139
-1001.11
36.0485
-976.72
38.928
-951.59
43.8326
-925.829
51.4863
-899.545
61.8164
-872.835
74.587
-845.886
90.1596
-818.96
108.223
-792.488
129.146
-767.117
153.028
-743.87
180.294
-724.161
211.396
-709.693
247.362
-702.062
289.929
-702.259
340.765
-710.243
400.754
-724.546
469.791
-742.168
547.733
-759.368
633.615
-772.59
725.765
-779.095
822.397
-777.377
922.31
-767.864
1025.75
-755.495
1135.3
-752.124
1259.33
-771.932
1424.27
-826.72
1661.45
-918.437
2000.01
-1039.8
2452.62
-1180.59
3017.62
-1334.1
3694.45
-1499.64
4480.87
-1677.64
5384.58
-1863.54
6395.59
-2041.25
7461.41
-2178.33
8453.12
-2230.01
9134.86
-2155.85
9199.23
-1955.43
8437.08
-1703.9
7075.68
-1492.68
5922.07
-1295.04
5581.74
-1010.23
5721.37
-593.695
5867.39
-101.764
5755.96
216.73
4742.57
278.268
2978.57
203.651
1369.08
297.013
731.837
168.609
-117.857
257.01
-425.688
114.298
-1423.75
105.846
-213.556
168.252
347.933
170.322
-11.4943
48.4281
-984.608
135.865
-409.649
334.593
664.239
419.45
829.611
445.118
637.364
452.419
325.648
442.635
-116.103
444.456
-304.319
452.56
-407.243
450.101
-427.267
414.297
-472.176
-686.176
-1158.69
124.892
-1141.81
110.825
-1124.1
91.0937
-1105.25
76.7605
-1085.03
62.5381
-1063.59
50.4017
-1040.97
39.3215
-1017.28
29.6173
-992.64
21.4715
-967.276
15.2307
-941.497
11.0293
-915.545
9.26213
-889.726
10.23
-864.41
13.6118
-839.917
19.3389
-816.465
28.0351
-794.376
39.7274
-773.853
54.0635
-755.135
71.4418
-738.539
91.6274
-724.408
115.015
-713.157
141.776
-705.298
172.435
-701.443
207.54
-702.124
248.044
-707.525
295.329
-717.257
350.498
-730.335
413.832
-745.161
484.618
-759.501
562.073
-770.864
644.978
-777.029
731.93
-776.606
821.974
-769.721
915.426
-758.923
1014.95
-751.054
1127.43
-758.293
1266.57
-792.125
1458.1
-859.675
1729
-959.472
2099.8
-1084.13
2577.28
-1225.61
3159.1
-1379.53
3848.36
-1546.33
4647.67
-1725.84
5564.09
-1911.52
6581.27
-2084.31
7634.21
-2208.45
8577.26
-2236.86
9163.27
-2131.24
9093.61
-1903.2
8209.04
-1642.53
6815.01
-1434.3
5713.85
-1233.7
5381.14
-946.948
5434.62
-548.691
5469.14
-91.5201
5298.79
214.127
4436.92
290.534
2902.16
237.997
1421.62
295.086
674.748
230.02
-52.7908
283.726
-479.394
127.669
-1267.69
141.152
-227.038
215.767
273.319
198.204
6.06849
2.34511
-788.749
22.9486
-430.253
289.68
397.507
405.61
713.68
444.145
598.829
454.495
315.298
449.881
-111.489
451.704
-306.141
456.024
-411.563
452.737
-423.981
418.793
-438.232
-590.644
-1095.08
107.621
-1071.95
87.6961
-1048.81
67.9601
-1024.55
52.4987
-999.286
37.2733
-973.238
24.3538
-946.633
12.7162
-919.77
2.75517
-892.981
-5.31813
-866.665
-11.085
-841.284
-14.3519
-817.208
-14.8129
-794.823
-12.1554
-774.502
-6.7093
-756.531
1.36816
-740.919
12.4232
-727.822
26.6314
-717.247
43.4885
-709.154
63.3494
-703.601
86.0747
-700.641
112.055
-700.36
141.496
-702.844
174.919
-708.214
212.911
-716.405
256.235
-727.016
305.941
-739.2
362.683
-751.779
426.411
-763.342
496.182
-772.252
570.983
-776.911
649.637
-776.203
731.222
-770.089
815.861
-760.409
905.746
-751.648
1006.19
-751.698
1127.48
-771.542
1286.41
-819.542
1506.1
-898.49
1807.95
-1004.9
2206.21
-1131.77
2704.16
-1273.58
3300.91
-1427.84
4002.62
-1595.77
4815.61
-1776.23
5744.55
-1960.3
6765.34
-2125.76
7799.67
-2233.65
8685.15
-2235.71
9165.33
-2098.62
8956.52
-1848.1
7958.52
-1584.07
6550.98
-1378.5
5508.28
-1172.07
5174.72
-882.69
5145.24
-501.278
5087.72
-77.4332
4874.95
217.362
4142.13
306.364
2813.16
278.017
1449.97
315.189
637.577
300.814
-38.4152
319.275
-497.855
159.59
-1108.01
168.865
-236.313
258.884
183.299
233.543
31.4098
44.6969
-599.903
3.20448
-388.762
238.721
161.99
382.117
570.284
436.123
544.822
452.056
299.363
450.747
-110.181
453.332
-308.727
455.385
-413.616
447.076
-415.673
406.623
-397.779
-471.317
-1018.9
86.6292
-991.054
59.8539
-964.495
41.4013
-937.398
25.4017
-910.32
10.1953
-883.555
-2.41072
-857.529
-13.3103
-832.673
-22.1006
-809.416
-28.5751
-788.161
-32.3404
-769.256
-33.2568
-752.88
-31.1892
-739.049
-25.9861
-727.782
-17.9761
-719.039
-7.37474
-712.577
5.96079
-708.287
22.3413
-705.994
41.1954
-705.534
62.8901
-706.869
87.4091
-710.016
115.202
-714.985
146.465
-721.683
181.618
-730.005
221.233
-739.63
265.86
-749.962
316.273
-760.081
372.803
-768.88
435.21
-775.224
502.525
-777.991
573.75
-776.36
648.006
-770.271
725.133
-761.042
806.632
-752.003
896.707
-748.883
1003.07
-759.569
1138.17
-792.686
1319.53
-853.537
1566.95
-941.731
1896.15
-1052.87
2317.35
-1181.06
2832.35
-1323
3442.85
-1477.81
4157.43
-1646.81
4984.61
-1827.58
5925.31
-2008.58
6946.34
-2164.3
7955.39
-2253.02
8773.86
-2226.63
9138.95
-2059.41
8789.29
-1791.64
7690.75
-1528.15
6287.49
-1323.89
5304.03
-1110.03
4960.86
-818.829
4854.03
-453.92
4722.81
-62.2995
4483.33
223.55
3856.28
325.822
2710.89
321.995
1453.79
355.787
603.785
361.595
-44.2243
357.391
-493.651
207.627
-958.244
200.532
-229.219
290.409
93.4222
275.262
46.5575
117.392
-442.033
20.0929
-291.463
176.014
6.06809
345.954
400.344
419.257
471.519
441.65
276.97
441.433
-109.963
443.556
-310.849
442.831
-412.891
431.736
-404.578
390.032
-356.075
-369.275
-937.2
63.6084
-908.071
30.7247
-882.156
15.4865
-856.873
0.119018
-833.171
-13.5068
-811.242
-24.3392
-791.498
-33.055
-774.234
-39.3637
-759.656
-43.1536
-747.729
-44.2669
-738.181
-42.805
-730.714
-38.656
-725.153
-31.5472
-721.515
-21.6134
-719.585
-9.30435
-718.961
5.33687
-719.54
22.9205
-721.326
42.9815
-724.224
65.7884
-728.172
91.3573
-733.176
120.207
-739.218
152.507
-746.105
188.505
-753.592
228.72
-761.284
273.553
-768.551
323.54
-774.567
378.819
-778.397
439.04
-779.22
503.348
-776.458
570.989
-770.107
641.656
-761.172
716.199
-752.154
797.614
-747.365
891.918
-752.89
1008.6
-775.662
1160.94
-821.589
1365.45
-893.202
1638.57
-988.449
1991.39
-1102.64
2431.54
-1231.46
2961.16
-1373.44
3584.84
-1528.95
4312.93
-1698.85
5154.51
-1879.04
6105.51
-2055.32
7122.63
-2198.81
8098.88
-2265.79
8840.84
-2209.92
9083.08
-2015.12
8594.5
-1735.17
7410.79
-1474.48
6026.8
-1269.49
5099.04
-1047.26
4738.62
-755.767
4562.54
-407.89
4374.94
-46.7475
4122.19
231.358
3578.17
346.884
2595.36
364.882
1435.8
401.991
566.677
414.958
-57.1911
397.238
-475.93
266.561
-827.568
243.426
-206.084
311.271
25.5774
315.558
42.2704
188.346
-314.82
36.1567
-139.275
100.45
-58.2265
293.545
207.247
389.862
375.202
419.739
247.092
419.779
-110.004
420.99
-312.061
417.275
-409.177
400.604
-387.908
366.002
-321.475
-243.586
-860.428
41.5102
-835.009
5.30565
-814.587
-4.93473
-795.896
-18.5722
-780.01
-29.3933
-766.689
-37.6604
-756.017
-43.7265
-747.834
-47.5472
-741.763
-49.224
-737.476
-48.5539
-734.846
-45.4353
-733.694
-39.808
-733.697
-31.5445
-734.686
-20.6241
-736.423
-7.56742
-738.628
7.54222
-741.223
25.5149
-744.332
46.0904
-748.029
69.486
-752.184
95.5118
-756.746
124.768
-761.674
157.435
-766.737
193.568
-771.624
233.607
-775.957
277.886
-779.183
326.766
-780.65
380.286
-779.7
438.09
-775.897
499.546
-769.278
564.369
-760.675
633.053
-752.039
707.564
-746.656
792.231
-749.18
894.442
-765.244
1024.66
-800.245
1195.94
-857.603
1422.81
-937.687
1718.65
-1037.87
2091.57
-1153.82
2547.49
-1282.81
3090.16
-1424.86
3726.88
-1581.05
4469.13
-1751.49
5324.95
-1930.04
6284.06
-2099.72
7292.31
-2228.54
8227.69
-2271.61
8883.91
-2186.15
8997.62
-1967.02
8375.37
-1679.38
7123.15
-1422.38
5769.81
-1214.44
4891.09
-983.545
4507.73
-693.575
4272.57
-363.914
4045.28
-30.8993
3789.17
240.254
3307.02
368.219
2467.4
403.725
1400.29
447.62
522.781
462.355
-71.926
437.345
-450.921
328.425
-718.648
298.198
-175.856
336.912
-13.1364
340.896
38.2863
217.994
-191.918
77.4601
1.25913
90.0453
-70.812
242.086
55.2061
350.963
266.325
387.698
210.356
387.899
-110.205
388.512
-312.673
380.429
-401.094
359.915
-367.394
331.392
-292.952
-139.046
-800.059
23.8584
-782.959
-11.7941
-771.035
-16.8585
-761.112
-28.4954
-754.028
-36.4772
-749.041
-42.647
-745.877
-46.8909
-744.177
-49.2474
-743.8
-49.6011
-744.538
-47.8149
-746.107
-43.8665
-748.271
-37.6442
-750.779
-29.0363
-753.508
-17.8947
-756.357
-4.71794
-759.22
10.4053
-762.089
28.3841
-765.047
49.0487
-768.147
72.5859
-771.24
98.6054
-774.239
127.767
-777.069
160.265
-779.512
196.011
-781.261
235.356
-782.005
278.631
-781.35
326.111
-778.888
377.824
-774.317
433.519
-767.664
492.894
-759.592
556.298
-751.674
625.134
-746.506
702.397
-747.66
793.385
-759.519
906.301
-786.727
1051.87
-832.989
1242.21
-899.783
1489.61
-986.096
1804.96
-1089.34
2194.82
-1206.12
2664.26
-1335.05
3219.09
-1477.27
3869.1
-1634.07
4625.93
-1804.48
5495.36
-1980.11
6459.69
-2141.14
7453.34
-2252.96
8339.51
-2270.39
8901.34
-2156
8883.24
-1916.12
8135.48
-1624.46
6831.5
-1370.95
5516.3
-1157.9
4678.05
-918.686
4268.51
-632.27
3986.16
-322.227
3735.23
-14.699
3481.64
249.662
3042.66
388.63
2328.43
438.715
1350.2
490.73
470.767
504.708
-85.9045
476.54
-422.752
386.401
-628.509
357.06
-146.516
370.107
-26.1827
356.032
52.3605
224.779
-60.6641
152.229
73.8084
130.852
-49.4367
203.86
-17.8027
307.576
162.608
348.871
169.06
349.75
-111.086
352.28
-315.204
341.343
-390.157
316.068
-342.121
293.554
-270.44
-53.7263
-763.793
13.0724
-756.545
-19.0425
-752.521
-20.882
-750.062
-30.9547
-749.475
-37.0645
-749.919
-42.203
-751.244
-45.5651
-753.296
-47.196
-755.943
-46.9542
-758.932
-44.8259
-762.042
-40.7566
-765.127
-34.559
-768.081
-26.0827
-770.827
-15.1482
-773.35
-2.1953
-775.676
12.7308
-777.772
30.4804
-779.658
50.9342
-781.327
74.2553
-782.677
99.9547
-783.616
128.707
-784.042
160.691
-783.785
195.755
-782.618
234.188
-780.334
276.347
-776.743
322.52
-771.729
372.81
-765.379
427.168
-758.198
485.712
-751.381
549.481
-746.997
620.75
-747.899
703.299
-757.49
802.976
-779.458
928.269
-817.252
1089.67
-873.065
1298.02
-947.063
1563.61
-1037.59
1895.49
-1142.42
2299.66
-1259.37
2781.21
-1388.21
3347.93
-1530.71
4011.6
-1687.93
4783.16
-1857.52
5664.94
-2028.76
6630.93
-2179.01
7603.59
-2271.62
8432.12
-2262.18
8891.91
-2120.14
8741.19
-1863.19
7878.53
-1570.36
6538.66
-1319.24
5265.18
-1099.13
4457.94
-852.495
4021.88
-572.014
3705.68
-282.651
3445.87
1.88599
3197.11
258.633
2785.91
407.13
2179.93
470.941
1286.39
530.62
411.087
542.455
-97.7391
513.859
-394.157
437.223
-551.873
411.163
-120.456
405.752
-20.7717
379.637
78.4761
268.488
50.4849
216.25
126.046
167.389
-0.575155
186.757
-37.1708
268.222
81.1436
309.044
128.238
310.968
-113.009
321.201
-325.437
313.439
-382.396
285.427
-314.11
252.747
-237.761
10.5875
-751.173
9.06891
-751.666
-18.5497
-752.733
-19.8148
-754.886
-28.8015
-757.78
-34.1707
-760.917
-39.0661
-764.275
-42.2064
-767.737
-43.7346
-771.187
-43.5032
-774.47
-41.5435
-777.454
-37.7724
-780.071
-31.9412
-782.301
-23.8527
-784.086
-13.3638
-785.457
-0.824036
-786.518
13.7924
-787.197
31.1596
-787.477
51.2144
-787.308
74.0863
-786.672
99.3193
-785.516
127.55
-783.733
158.908
-781.236
193.259
-777.921
230.873
-773.722
272.149
-768.668
317.467
-762.94
367.082
-756.984
421.213
-751.703
480.431
-748.633
546.412
-750.019
622.137
-758.613
711.893
-777.35
821.713
-809.056
959.976
-856.04
1136.65
-919.351
1361.33
-998.404
1642.66
-1091.46
1988.54
-1196.83
2405.04
-1313.58
2897.95
-1442.37
3476.72
-1585.17
4154.4
-1742.51
4940.5
-1910.28
5832.72
-2075.46
6796.11
-2212.73
7740.86
-2284.06
8503.45
-2247.09
8854.93
-2079.23
8573.34
-1808.89
7608.19
-1516.81
6246.57
-1266.32
5014.7
-1037.53
4229.14
-784.953
3769.3
-513.072
3433.8
-244.952
3177.75
18.6716
2933.48
266.295
2538.29
423.017
2023.21
501.052
1208.36
566.777
345.363
575.742
-106.704
548.674
-367.089
481.189
-484.388
457.225
-96.4926
439.243
-2.78933
410.526
107.193
324.489
136.521
266.87
183.665
196.348
69.946
184.4
-25.2246
239.479
26.0637
274.943
92.7725
277.275
-115.342
298.622
-346.784
299.337
-383.112
272.608
-287.383
234.109
-199.265
90.5164
-755.582
9.7927
-760.365
-13.767
-763.922
-16.2578
-768.133
-24.591
-772.249
-30.0543
-776.158
-35.1566
-779.789
-38.5764
-783.07
-40.453
-785.965
-40.609
-788.393
-39.1155
-790.302
-35.8635
-791.671
-30.5715
-792.521
-23.0029
-792.816
-13.0693
-792.626
-1.01429
-792.064
13.2305
-791.062
30.1574
-789.607
49.7596
-787.64
72.1187
-785.236
96.916
-782.393
124.707
-779.05
155.564
-775.214
189.423
-770.916
226.575
-766.247
267.479
-761.441
312.66
-756.934
362.575
-753.449
417.728
-752.127
479.109
-754.614
548.898
-763.047
630.57
-779.849
728.695
-807.365
849.229
-847.602
1000.21
-901.928
1190.97
-970.653
1430.06
-1052.88
1724.89
-1147.13
2082.79
-1252.4
2510.3
-1368.77
3014.32
-1497.59
3605.55
-1640.64
4297.45
-1797.57
5097.43
-1962.34
5997.49
-2119.61
6953.37
-2241.7
7862.95
-2289.92
8551.68
-2225.28
8790.29
-2033.96
8382.02
-1753.72
7327.95
-1463.4
5956.26
-1211.32
4762.61
-972.651
3990.47
-716.229
3512.88
-455.7
3173.27
-208.907
2930.96
35.2815
2689.3
272.203
2301.37
435.712
1859.7
529.372
1114.7
598.561
276.174
604.777
-112.92
580.741
-343.053
520.44
-424.087
496.874
-72.9265
469.295
24.7898
438.857
137.631
367.392
207.987
305.529
245.529
229.114
146.362
194.912
8.97733
222.131
-1.156
248.998
65.9062
251.131
-117.475
279.711
-375.364
286.667
-390.068
266.697
-267.414
226.286
-158.855
183.153
-770.003
12.8373
-776.222
-7.54831
-780.44
-12.0393
-784.829
-20.2023
-788.662
-26.2211
-792.044
-31.775
-794.859
-35.761
-797.073
-38.2388
-798.675
-39.0073
-799.66
-38.1296
-800.044
-35.4801
-799.843
-30.7721
-799.096
-23.7503
-797.797
-14.3682
-796.039
-2.77202
-793.934
11.1258
-791.44
27.6637
-788.57
46.8901
-785.302
68.8511
-781.782
93.3956
-778.053
120.978
-774.136
151.648
-770.134
185.421
-766.198
222.639
-762.555
263.837
-759.603
309.708
-757.962
360.934
-758.51
418.277
-762.458
483.057
-771.362
557.802
-787.086
646.294
-811.628
753.238
-846.781
884.382
-893.877
1047.31
-953.604
1250.7
-1025.85
1502.3
-1109.75
1808.79
-1204.25
2177.29
-1309.06
2615.12
-1425.04
3130.3
-1553.94
3734.45
-1697.04
4440.54
-1852.8
5253.2
-2013.19
6157.88
-2160.54
7100.72
-2265.28
7967.69
-2288.92
8575.31
-2197.08
8698.46
-1985.06
8169.99
-1698.06
7040.95
-1409.61
5667.81
-1153.38
4506.39
-904.277
3741.37
-646.584
3255.19
-400.079
2926.76
-174.278
2705.16
51.1976
2463.82
276.257
2076.31
444.878
1691.08
556.286
1003.29
625.467
206.992
630.019
-117.472
609.999
-323.034
556.766
-370.853
532.779
-48.9399
496.731
60.8384
463.4
170.961
400.933
270.454
331.57
314.893
259.493
218.438
212.133
56.3363
213.695
-2.71922
229.531
50.0696
230.782
-118.729
260.306
-404.889
268.82
-398.583
259.553
-258.149
218.46
-117.766
278.912
-789.057
16.3531
-794.788
-1.81706
-798.417
-8.41073
-801.819
-16.8
-804.492
-23.5478
-806.59
-29.677
-808.024
-34.3279
-808.805
-37.4578
-808.923
-38.8888
-808.406
-38.6472
-807.316
-36.57
-805.705
-32.3827
-803.616
-25.8402
-801.068
-16.9157
-798.167
-5.67286
-795.039
7.99699
-791.67
24.2951
-788.103
43.323
-784.375
65.1229
-780.668
89.6886
-777.062
117.372
-773.67
148.256
-770.675
182.426
-768.319
220.283
-766.932
262.45
-767.01
309.787
-769.27
363.194
-774.64
423.647
-784.272
492.689
-799.519
573.049
-821.925
668.7
-853.067
784.38
-894.295
925.61
-946.447
1099.46
-1009.77
1314.03
-1083.98
1576.51
-1168.43
1893.24
-1262.59
2271.45
-1366.8
2719.33
-1482.49
3245.99
-1611.42
3863.38
-1754.18
4583.3
-1907.82
5406.83
-2062.24
6312.3
-2197.58
7236.06
-2282.9
8053.01
-2280.9
8573.32
-2162.95
8580.5
-1933.27
7940.31
-1642.15
6749.84
-1354.71
5380.37
-1091.67
4243.34
-832.38
3482.08
-576.364
2999.17
-346.354
2696.75
-140.971
2499.77
65.9316
2256.92
278.561
1863.68
450.523
1519.12
579.673
874.142
645.931
140.734
651.547
-123.088
636.189
-307.676
590.511
-325.176
566.222
-24.6511
523.008
104.053
485.156
208.813
427.407
328.203
356.333
385.967
287.828
286.942
230.011
114.154
210.119
17.1725
213.736
46.4527
211.461
-116.453
238.483
-431.911
247.763
-407.863
244.442
-254.83
202.779
-76.1047
378.515
-808.444
19.2551
-812.627
2.36564
-815.017
-6.02125
-816.987
-14.8295
-818.247
-22.288
-818.941
-28.983
-819.033
-34.2358
-818.557
-37.934
-817.512
-39.9328
-815.947
-40.2127
-813.937
-38.5799
-811.546
-34.7733
-808.809
-28.5775
-805.758
-19.966
-802.509
-8.92232
-799.199
4.68732
-795.84
20.9365
-792.497
39.9804
-789.256
61.882
-786.309
86.741
-783.768
114.831
-781.826
146.314
-780.728
181.328
-780.778
220.333
-782.363
264.035
-786.025
313.449
-792.503
369.672
-802.7
433.844
-817.65
507.639
-838.483
593.883
-866.441
696.657
-902.739
820.679
-948.39
971.261
-1003.91
1154.98
-1069.3
1379.42
-1144.28
1651.49
-1228.53
1977.49
-1322.06
2364.97
-1425.69
2822.96
-1541.16
3361.46
-1669.99
3992.21
-1811.83
4725.14
-1962.13
5557.13
-2108.84
6459.01
-2230.03
7357.25
-2294.07
8117.04
-2265.89
8545.14
-2123.43
8438.04
-1879.3
7696.18
-1586.01
6456.54
-1297.85
5092.21
-1025.38
3970.88
-757.088
3213.78
-506.111
2748.2
-294.61
2485.25
-109.078
2314.24
79.2552
2068.58
279.31
1663.62
453.082
1345.34
595.319
731.905
658.341
77.7111
668.686
-133.433
658.897
-297.887
621.167
-287.446
597.174
-0.658744
549.247
151.981
505.23
252.83
449.26
384.173
379.142
456.085
306.833
359.251
241.261
179.726
205.702
52.7307
199.113
53.04
188.892
-106.234
211.794
-454.814
222.815
-418.885
222.433
-254.452
181.354
-35.0289
466.264
-825.094
21.1827
-827.493
4.7653
-828.653
-4.86182
-829.407
-14.0756
-829.602
-22.0926
-829.374
-29.2115
-828.728
-34.8814
-827.703
-38.9597
-826.294
-41.3417
-824.545
-41.9618
-822.533
-40.5913
-820.313
-36.9935
-817.898
-30.9928
-815.317
-22.5476
-812.674
-11.5655
-810.104
2.1176
-807.648
18.4806
-805.381
37.7131
-803.415
59.9162
-801.94
85.2657
-801.119
114.01
-801.191
146.387
-802.446
182.583
-805.231
223.118
-809.96
268.764
-817.178
320.667
-827.603
380.096
-842.073
448.314
-861.495
527.061
-886.812
619.199
-918.997
728.843
-958.992
860.674
-1007.55
1019.82
-1065.01
1212.44
-1131.29
1445.7
-1206.23
1726.43
-1289.86
2061.12
-1382.67
2457.78
-1485.82
2926.11
-1601.09
3476.73
-1729.53
4120.65
-1869.66
4865.27
-2015.23
5702.7
-2152.3
6596.07
-2257.24
7462.2
-2298.42
8158.22
-2244.04
8490.76
-2079.19
8273.2
-1823.8
7440.79
-1529.37
6162.1
-1237.98
4800.82
-953.853
3686.75
-678.658
2938.59
-436.572
2506.11
-244.784
2293.46
-78.774
2148.23
91.3384
1898.47
278.808
1476.15
453.499
1170.65
604.854
580.55
665.328
17.2367
681.969
-150.075
679.179
-295.097
648.802
-257.069
625.518
22.6251
575.557
201.941
524.397
303.99
467.935
440.634
397.309
526.712
314.618
441.943
241.064
253.28
195.539
98.2556
181.114
67.466
159.528
-84.6485
179.492
-474.777
193.818
-433.212
197.507
-258.142
158.664
3.81232
548.653
-837.795
22.3524
-838.879
5.8491
-839.38
-4.36099
-839.634
-13.8211
-839.571
-22.1556
-839.312
-29.4701
-838.877
-35.3162
-838.289
-39.5475
-837.531
-42.1001
-836.62
-42.8729
-835.617
-41.5936
-834.558
-38.0526
-833.425
-32.1258
-832.228
-23.7445
-831.054
-12.7398
-830.001
1.06533
-829.129
17.608
-828.534
37.1192
-828.35
59.7316
-828.753
85.6696
-829.964
115.22
-832.254
148.677
-835.942
186.271
-841.401
228.577
-849.058
276.421
-859.437
331.046
-873.21
393.87
-891.145
466.248
-914.037
549.953
-942.682
647.845
-977.838
763.999
-1020.24
903.072
-1070.46
1070.04
-1128.76
1270.74
-1195.09
1512.03
-1269.5
1800.84
-1352.36
2143.98
-1444.49
2549.92
-1547.28
3028.89
-1662.26
3591.71
-1789.84
4248.24
-1927.26
5002.69
-2066.51
5841.96
-2191.89
6721.45
-2278.58
7548.88
-2295.68
8175.32
-2215.64
8410.72
-2030.97
8088.53
-1767.24
7177.07
-1471.7
5866.56
-1173.94
4503.06
-876.523
3389.34
-597.438
2659.5
-368.565
2277.24
-196.855
2121.75
-50.3241
2001.7
102.633
1745.51
277.432
1301.35
452.888
995.198
610.958
422.48
669.702
-41.5081
694.112
-174.485
699.147
-300.132
673.69
-231.612
650.912
45.4028
600.855
251.999
543.273
361.572
484.487
499.42
413.046
598.153
317.705
537.284
232.094
338.891
178.237
152.112
153.436
92.2657
121.818
-53.0341
145.923
-498.882
165.458
-452.749
171.72
-264.408
138.795
36.7335
622.344
-847.242
23.3628
-847.927
6.53383
-848.662
-3.62585
-849.38
-13.1034
-850.049
-21.4865
-850.766
-28.7537
-851.533
-34.5489
-852.343
-38.7373
-853.154
-41.2897
-853.955
-42.0718
-854.789
-40.7601
-855.658
-37.1831
-856.511
-31.2728
-857.336
-22.9205
-858.199
-11.8768
-859.157
2.02377
-860.269
18.7191
-861.671
38.521
-863.511
61.5721
-865.963
88.1215
-869.284
118.541
-873.771
153.164
-879.767
192.266
-887.65
236.46
-897.851
286.621
-910.87
344.065
-927.319
410.319
-947.899
486.828
-973.324
575.378
-1004.27
678.789
-1041.34
801.071
-1085.11
946.845
-1136.05
1120.98
-1194.43
1329.11
-1260.31
1577.92
-1333.97
1874.5
-1416.07
2226.07
-1507.65
2641.5
-1610.12
3131.37
-1724.59
3706.17
-1850.63
4374.29
-1984.13
5136.19
-2115.32
5973.15
-2226.91
6833.04
-2293.48
7615.45
-2285.73
8167.57
-2181.15
8306.14
-1979.48
7886.85
-1709.83
6907.42
-1412.21
5568.94
-1104.5
4195.36
-793.138
3077.97
-514.367
2380.73
-302.877
2065.75
-150.497
1969.37
-23.5626
1874.77
113.472
1608.48
275.525
1139.3
452.87
817.853
614.513
260.837
673.235
-100.231
708.365
-209.615
718.56
-310.327
693.467
-206.519
671.154
67.7156
623.5
299.653
562.009
423.064
499.819
561.609
427.685
670.288
323.625
641.344
222.357
440.16
156.415
218.054
113.616
135.066
77.9574
-17.3755
116.151
-537.077
142.195
-478.793
148.684
-270.898
121.082
64.334
690.464
-855.376
24.9925
-856.732
7.88913
-858.631
-1.7265
-860.743
-10.9913
-863.039
-19.1907
-865.578
-26.2149
-868.328
-31.798
-871.245
-35.8203
-874.257
-38.2781
-877.336
-38.9926
-880.501
-37.5945
-883.725
-33.9594
-886.926
-28.0719
-890.074
-19.7721
-893.226
-8.72447
-896.412
5.20951
-899.687
21.9941
-903.216
42.0506
-907.16
65.5158
-911.695
92.6574
-917.094
123.939
-923.669
159.74
-931.78
200.378
-941.802
246.482
-954.16
298.979
-969.327
359.233
-987.855
428.847
-1010.38
509.357
-1037.57
602.56
-1069.98
711.205
-1108.15
839.241
-1152.55
991.241
-1203.58
1172.02
-1261.56
1387.09
-1326.76
1643.12
-1399.65
1947.38
-1481.1
2307.53
-1572.26
2732.66
-1674.35
3233.46
-1787.92
3819.74