/*--------------------------------*- C++ -*----------------------------------*\
| =========                 |                                                 |
| \\      /  F ield         | OpenFOAM: The Open Source CFD Toolbox           |
|  \\    /   O peration     | Version:  4.1                                   |
|   \\  /    A nd           | Web:      www.OpenFOAM.org                      |
|    \\/     M anipulation  |                                                 |
\*---------------------------------------------------------------------------*/
FoamFile
{
    version     2.0;
    format      ascii;
    class       volVectorField;
    location    "5";
    object      U;
}
// * * * * * * * * * * * * * * * * * * * * * * * * * * * * * * * * * * * * * //

dimensions      [0 1 -1 0 0 0 0];

internalField   nonuniform List<vector> 
6785
(
(-1.86895e+55 -1.81334e+53 1.22911e+54)
(-2.2605e+55 3.49972e+53 -3.61967e+53)
(-1.24727e+55 1.95584e+53 6.38778e+53)
(-9.55257e+54 8.31385e+53 -1.08131e+54)
(-9.4457e+54 1.25902e+54 -2.19523e+54)
(-1.01071e+55 1.01397e+54 -2.65994e+54)
(-1.06028e+55 6.1588e+53 -2.65513e+54)
(-1.09398e+55 1.14646e+53 -2.26322e+54)
(-1.07047e+55 -2.31805e+53 -1.82325e+54)
(-1.00696e+55 -3.28719e+53 -1.36844e+54)
(-9.25162e+54 -4.08622e+53 -9.22443e+53)
(-7.41849e+54 -5.65968e+53 -4.53752e+53)
(-7.93598e+54 -4.04928e+53 -2.6623e+53)
(-1.3111e+55 -3.98872e+53 -1.58352e+53)
(-1.0072e+55 -8.96075e+53 1.58156e+54)
(-2.78677e+55 -1.54277e+54 3.13109e+54)
(-1.75723e+55 -7.45746e+53 1.21085e+54)
(-7.3192e+54 1.1147e+54 -1.27308e+54)
(-7.74773e+54 1.72885e+54 -3.18139e+54)
(-8.93771e+54 2.52032e+54 -4.72197e+54)
(-1.1445e+55 2.34358e+54 -4.70958e+54)
(-1.31278e+55 1.32754e+54 -3.05191e+54)
(-1.36083e+55 6.31169e+53 -1.17295e+54)
(-2.47223e+55 -1.60284e+54 2.76487e+54)
(-2.23021e+55 -1.79548e+54 3.21812e+54)
(-1.98477e+55 -1.60838e+54 2.8727e+54)
(-1.95486e+55 -1.52492e+54 2.80446e+54)
(-2.12382e+55 -1.73249e+54 3.11573e+54)
(-2.06663e+55 -1.82085e+54 3.24683e+54)
(-1.22072e+55 -1.24992e+54 2.25534e+54)
(-2.01074e+55 -1.71906e+54 2.80983e+54)
(-1.68141e+55 -1.51737e+54 2.44447e+54)
(-1.11533e+55 -1.00199e+53 -2.21095e+53)
(-8.97067e+54 1.44031e+54 -2.96156e+54)
(-1.07469e+55 2.14824e+54 -4.1243e+54)
(-1.3974e+55 1.8419e+54 -3.16468e+54)
(-1.76553e+55 -6.58746e+53 1.42359e+54)
(-1.96327e+55 -2.01745e+53 1.44575e+54)
(-1.69595e+55 9.04427e+53 -2.29311e+52)
(-1.38988e+55 1.14586e+54 -3.68496e+53)
(-1.47144e+55 7.39046e+53 3.27074e+53)
(-1.42342e+55 6.85462e+53 2.55138e+53)
(-1.31966e+55 4.69783e+53 1.56119e+53)
(-1.08965e+55 -2.9887e+53 9.36438e+53)
(-6.51897e+54 -1.09567e+54 1.70746e+54)
(-6.0547e+54 -9.81669e+53 1.75237e+54)
(-6.99073e+54 -2.44599e+53 -6.17582e+53)
(-7.89382e+54 6.14641e+53 -2.91851e+54)
(-1.01726e+55 9.84419e+53 -3.82039e+54)
(-1.29678e+55 7.55403e+53 -3.33533e+54)
(-1.49734e+55 3.78271e+53 -2.14586e+54)
(-1.59761e+55 -9.73114e+53 6.21851e+53)
(-2.02297e+55 -2.86821e+54 4.27696e+54)
(-2.0882e+55 -2.6287e+54 4.56166e+54)
(-1.54875e+55 -1.21718e+54 2.87559e+54)
(-1.52285e+55 -1.77766e+53 1.49338e+54)
(-1.64022e+55 1.15238e+54 -6.76424e+53)
(-1.43773e+55 2.11548e+54 -2.33794e+54)
(-8.64155e+54 1.9969e+54 -2.16207e+54)
(-2.94021e+54 9.60623e+53 -1.10413e+54)
(-2.61081e+54 1.45676e+54 -3.24728e+54)
(-7.20371e+54 2.60226e+54 -5.36421e+54)
(-1.2062e+55 2.31358e+54 -5.27594e+54)
(-1.64267e+55 1.6549e+54 -3.86334e+54)
(-1.93835e+55 4.92501e+53 -1.63126e+54)
(-2.04826e+55 -1.0066e+54 1.48429e+54)
(-2.0716e+55 -2.24389e+54 4.03449e+54)
(-2.37469e+55 -3.68726e+54 6.61435e+54)
(-2.51989e+55 -3.75191e+54 6.54082e+54)
(-2.21895e+55 -2.69588e+54 4.70508e+54)
(-2.04033e+55 -1.76999e+54 2.88262e+54)
(-1.99718e+55 -6.87058e+53 1.28969e+54)
(-1.99862e+55 4.26932e+52 -2.6101e+53)
(-1.61895e+55 2.04097e+54 -2.73374e+54)
(-7.32071e+54 2.41707e+54 -4.90522e+54)
(-4.66559e+54 2.01413e+54 -4.17427e+54)
(-9.16585e+54 2.17904e+54 -3.0447e+54)
(-1.35497e+55 1.86094e+54 -2.41373e+54)
(-1.73206e+55 1.48591e+54 -1.17639e+54)
(-2.01468e+55 7.02004e+53 4.01428e+53)
(-2.18498e+55 -2.61379e+53 2.08489e+54)
(-2.29322e+55 -1.18548e+54 3.44387e+54)
(-2.39783e+55 -1.8871e+54 4.15575e+54)
(-2.41212e+55 -1.97923e+54 3.5682e+54)
(-2.30561e+55 -1.66008e+54 2.50763e+54)
(-2.17818e+55 -1.29956e+54 1.48023e+54)
(-2.05435e+55 -8.64917e+53 6.53825e+53)
(-1.87549e+55 -3.28248e+53 -4.2728e+53)
(-1.38289e+55 6.16941e+53 -1.70929e+54)
(-6.64664e+54 8.79252e+53 -2.39701e+54)
(-3.17276e+54 9.5131e+53 -1.76611e+54)
(-5.4003e+54 1.33961e+54 -1.51561e+54)
(-7.89473e+54 1.25777e+54 -1.22535e+54)
(-1.04309e+55 1.1839e+54 -7.95922e+53)
(-1.27469e+55 9.0094e+53 -2.79803e+53)
(-1.46408e+55 4.9811e+53 3.26078e+53)
(-1.5701e+55 7.20315e+52 7.48594e+53)
(-1.59627e+55 -2.37377e+53 8.60246e+53)
(-1.55558e+55 -4.04778e+53 6.93262e+53)
(-1.51759e+55 -5.44468e+53 6.11858e+53)
(-1.43563e+55 -5.96139e+53 5.00949e+53)
(-1.30599e+55 -5.47132e+53 2.9452e+53)
(-9.99801e+54 -3.07653e+53 -1.10535e+53)
(-5.89021e+54 -4.63114e+52 -4.36917e+53)
(-2.85186e+54 -2.35533e+51 -2.80631e+53)
(-2.42514e+54 1.62243e+53 -2.89373e+53)
(-2.48458e+54 3.01559e+53 -1.49919e+53)
(-3.07169e+54 3.24239e+53 -8.57191e+52)
(-3.68809e+54 3.64277e+53 -2.72662e+51)
(-4.25521e+54 3.60817e+53 5.06715e+52)
(-4.74394e+54 3.36497e+53 8.04542e+52)
(-4.94502e+54 2.74837e+53 8.64802e+52)
(-4.82885e+54 2.00754e+53 7.76368e+52)
(-4.55861e+54 1.24097e+53 6.89799e+52)
(-4.32717e+54 4.82871e+52 6.5307e+52)
(-3.86771e+54 -9.5687e+51 5.34173e+52)
(-3.14101e+54 -8.55956e+52 3.92322e+52)
(-2.04276e+54 -1.36857e+53 1.57077e+53)
(-2.24543e+54 -2.07638e+53 1.76518e+53)
(-2.88436e+54 -2.04525e+53 4.86587e+53)
(-2.20459e+54 -1.63811e+53 3.52608e+53)
(-1.46377e+54 -4.53013e+52 2.52306e+53)
(-1.34085e+54 3.80652e+52 1.87218e+53)
(-1.23629e+54 1.20203e+53 1.07025e+53)
(-1.17057e+54 1.96631e+53 6.91819e+51)
(-1.1791e+54 2.63244e+53 -9.78581e+52)
(-1.26122e+54 3.21574e+53 -2.06678e+53)
(-1.36417e+54 3.67924e+53 -3.16305e+53)
(-1.49221e+54 3.94361e+53 -4.06438e+53)
(-1.63923e+54 3.89424e+53 -4.52639e+53)
(-1.80674e+54 3.34549e+53 -4.23947e+53)
(-1.98334e+54 2.04679e+53 -2.78691e+53)
(-2.1072e+54 3.76902e+52 3.11121e+52)
(-2.2597e+54 -2.56273e+53 3.19377e+53)
(-3.17655e+54 -1.41385e+53 4.36979e+53)
(-1.93274e+54 -4.11825e+53 8.74363e+53)
(-1.00449e+54 -3.1912e+53 6.96217e+53)
(-9.45748e+53 -1.77266e+53 5.85581e+53)
(-9.94734e+53 -5.21148e+52 4.24673e+53)
(-1.13641e+54 8.23203e+52 2.53067e+53)
(-1.26424e+54 2.13533e+53 6.82315e+52)
(-1.33551e+54 3.3929e+53 -1.16214e+53)
(-1.40941e+54 4.53584e+53 -2.81395e+53)
(-1.48183e+54 5.47515e+53 -4.1783e+53)
(-1.5355e+54 6.12394e+53 -5.17324e+53)
(-1.59399e+54 6.29711e+53 -5.56349e+53)
(-1.70775e+54 5.73537e+53 -5.00812e+53)
(-1.87956e+54 4.04832e+53 -3.15273e+53)
(-1.95448e+54 1.20095e+53 3.29131e+51)
(-1.4559e+54 -9.0403e+52 3.03187e+53)
(-2.2544e+54 -7.32901e+53 1.42455e+54)
(-8.15326e+53 -6.82195e+53 1.01448e+54)
(-5.04262e+53 -4.05767e+53 7.16838e+53)
(-7.42771e+53 -3.15319e+53 5.27177e+53)
(-9.02113e+53 -1.64054e+53 3.33477e+53)
(-8.96827e+53 -3.10751e+52 1.31648e+53)
(-8.67242e+53 9.22288e+52 -3.09124e+52)
(-8.84142e+53 2.0915e+53 -1.74093e+53)
(-8.81605e+53 3.28312e+53 -3.28811e+53)
(-8.6277e+53 4.61991e+53 -5.13689e+53)
(-8.70146e+53 5.98518e+53 -7.23938e+53)
(-9.6219e+53 7.32575e+53 -9.42712e+53)
(-1.07996e+54 8.36818e+53 -1.13756e+54)
(-1.08743e+54 8.67515e+53 -1.23404e+54)
(-7.26483e+53 5.36461e+53 -9.55668e+53)
(-1.35816e+54 -4.57529e+53 6.70974e+53)
(-1.68723e+54 -8.40096e+53 1.03536e+54)
(-1.52557e+54 -9.46984e+53 1.06101e+54)
(-1.36491e+54 -9.71326e+53 9.71239e+53)
(-1.24866e+54 -9.40012e+53 8.37268e+53)
(-1.14769e+54 -8.66138e+53 6.833e+53)
(-1.05449e+54 -7.5836e+53 5.22334e+53)
(-9.75609e+53 -6.31239e+53 3.58126e+53)
(-9.11754e+53 -4.8656e+53 1.84967e+53)
(-8.28056e+53 -3.3335e+53 1.38299e+52)
(-7.55732e+53 -1.74754e+53 -1.69993e+53)
(-9.31069e+53 2.41986e+52 -3.71731e+53)
(-1.24679e+54 1.82626e+53 -5.72774e+53)
(-1.41414e+54 4.64931e+53 -8.15485e+53)
(-1.18974e+54 5.5808e+53 -1.16575e+54)
(-3.83107e+53 3.57126e+53 -7.38208e+53)
(-8.49458e+53 4.65675e+53 -9.11894e+53)
(-1.11302e+54 2.74588e+53 -7.53982e+53)
(-1.26195e+54 2.59458e+52 -4.85044e+53)
(-1.35747e+54 -2.20735e+53 -1.82284e+53)
(-1.4025e+54 -4.13696e+53 8.94645e+52)
(-1.39974e+54 -5.24505e+53 2.74275e+53)
(-1.36314e+54 -5.55452e+53 3.61426e+53)
(-1.30629e+54 -5.23255e+53 3.66905e+53)
(-1.2535e+54 -4.49621e+53 3.1588e+53)
(-1.26031e+54 -3.53186e+53 2.27313e+53)
(-1.33201e+54 -2.33958e+53 1.0305e+53)
(-1.38856e+54 -8.77362e+52 -8.97312e+52)
(-1.35516e+54 1.1046e+53 -3.3509e+53)
(-9.9348e+53 2.19746e+53 -4.77216e+53)
(-6.04253e+53 2.64079e+53 -5.7276e+53)
(-1.1828e+54 3.41278e+53 -4.99276e+53)
(-1.34677e+54 3.33302e+53 -5.06165e+53)
(-1.37134e+54 3.27548e+53 -3.67449e+53)
(-1.41535e+54 1.75631e+53 -7.79462e+52)
(-1.5064e+54 -1.74504e+52 2.53733e+53)
(-1.5338e+54 -1.44192e+53 4.76384e+53)
(-1.5296e+54 -2.14544e+53 5.89501e+53)
(-1.51167e+54 -2.25053e+53 5.96787e+53)
(-1.48742e+54 -1.83206e+53 5.05615e+53)
(-1.44789e+54 -1.03073e+53 3.29868e+53)
(-1.38402e+54 1.09766e+52 1.07934e+53)
(-1.29737e+54 9.7273e+52 -1.18103e+53)
(-1.05516e+54 1.73216e+53 -2.4641e+53)
(-6.47077e+53 1.48986e+53 -2.60285e+53)
(-3.00719e+53 2.21363e+53 -4.15015e+53)
(-9.74638e+53 1.29085e+53 -1.11273e+53)
(-1.41995e+54 3.89975e+52 6.24566e+52)
(-1.62038e+54 2.14962e+52 1.81796e+53)
(-1.64196e+54 2.92611e+51 2.36189e+53)
(-1.65338e+54 -3.51103e+52 3.2475e+53)
(-1.65881e+54 -1.0598e+53 4.14487e+53)
(-1.64246e+54 -1.46944e+53 4.45797e+53)
(-1.60207e+54 -1.483e+53 3.91566e+53)
(-1.54056e+54 -1.07102e+53 2.61417e+53)
(-1.44804e+54 -4.79962e+52 8.38766e+52)
(-1.26258e+54 3.836e+52 -9.98982e+52)
(-9.90797e+53 8.96735e+52 -2.37256e+53)
(-7.13168e+53 1.5926e+53 -3.09508e+53)
(-5.44959e+53 1.71747e+53 -3.88646e+53)
(9.20545e+51 1.38081e+53 -4.93966e+53)
(-1.49527e+53 3.94013e+52 -2.84857e+53)
(-1.41235e+53 2.28076e+52 -1.18894e+53)
(-1.40236e+53 3.89932e+52 -1.11295e+53)
(-1.30502e+53 4.93951e+52 -1.0936e+53)
(-1.9254e+53 6.23525e+52 -1.15847e+53)
(-1.35519e+53 5.19193e+52 -7.81428e+52)
(-1.31368e+53 5.8303e+52 -7.5238e+52)
(-1.22491e+53 6.22293e+52 -7.44563e+52)
(-1.76311e+53 8.1941e+52 -6.49163e+52)
(-1.22124e+53 6.65753e+52 -4.03833e+52)
(-1.1046e+53 6.84745e+52 -3.98505e+52)
(-1.54831e+53 9.27014e+52 -2.05336e+52)
(-1.02579e+53 7.28433e+52 -1.04599e+52)
(-1.01327e+53 7.65034e+52 -9.41932e+51)
(-8.92372e+52 7.61071e+52 -9.78742e+51)
(-1.56931e+53 9.88455e+52 1.01675e+52)
(-1.23269e+53 7.66624e+52 1.00202e+52)
(-1.12343e+53 7.72444e+52 7.97268e+51)
(-2.22607e+53 1.0262e+53 1.95946e+52)
(-1.71855e+53 7.96638e+52 1.55494e+52)
(-1.78324e+53 8.33419e+52 1.31139e+52)
(-1.69538e+53 8.21536e+52 9.69018e+51)
(-2.96592e+53 1.05193e+53 1.9413e+52)
(-2.29179e+53 8.07961e+52 1.68645e+52)
(-2.34145e+53 8.50145e+52 1.50772e+52)
(-2.22656e+53 8.37016e+52 1.18773e+52)
(-3.53344e+53 1.09599e+53 2.33537e+52)
(-2.78013e+53 8.34262e+52 2.17213e+52)
(-2.60413e+53 8.54059e+52 1.84956e+52)
(-3.93673e+53 1.13823e+53 2.69983e+52)
(-3.00934e+53 8.66412e+52 2.26119e+52)
(-3.03229e+53 9.15436e+52 1.98438e+52)
(-2.88223e+53 9.04195e+52 1.5161e+52)
(-4.25023e+53 1.19461e+53 2.02946e+52)
(-3.32173e+53 8.94707e+52 1.96318e+52)
(-3.11993e+53 9.2325e+52 1.59145e+52)
(-4.47757e+53 1.24353e+53 2.05096e+52)
(-3.4081e+53 9.45821e+52 1.78596e+52)
(-3.41617e+53 1.00511e+53 1.51393e+52)
(-3.25143e+53 1.00364e+53 1.01518e+52)
(-4.62635e+53 1.31765e+53 1.44568e+52)
(-3.53477e+53 9.83709e+52 1.59209e+52)
(-3.54088e+53 1.04166e+53 1.44823e+52)
(-3.37551e+53 1.03107e+53 1.06695e+52)
(-4.72824e+53 1.37573e+53 1.29472e+52)
(-3.67144e+53 1.00879e+53 1.36992e+52)
(-3.45934e+53 1.03446e+53 1.09364e+52)
(-4.78906e+53 1.39908e+53 1.00343e+52)
(-3.63484e+53 1.04462e+53 8.17023e+51)
(-3.63163e+53 1.10891e+53 4.59586e+51)
(-3.46608e+53 1.11362e+53 2.60439e+50)
(-4.80171e+53 1.49138e+53 -2.74843e+51)
(-3.67013e+53 1.10036e+53 1.40066e+51)
(-3.6734e+53 1.16345e+53 -1.02644e+51)
(-3.5143e+53 1.15552e+53 -4.18772e+51)
(-4.84961e+53 1.56878e+53 -5.90323e+51)
(-3.77457e+53 1.15345e+53 -1.71052e+51)
(-3.56701e+53 1.16163e+53 -3.74395e+51)
(-4.89497e+53 1.59005e+53 -1.13209e+52)
(-3.72242e+53 1.17244e+53 -9.07043e+51)
(-3.71667e+53 1.23968e+53 -1.33276e+52)
(-3.56059e+53 1.23216e+53 -1.64988e+52)
(-4.87862e+53 1.70867e+53 -2.87042e+52)
(-3.7936e+53 1.25214e+53 -2.21589e+52)
(-3.59316e+53 1.24577e+53 -2.29004e+52)
(-4.91814e+53 1.71595e+53 -4.17773e+52)
(-3.73425e+53 1.28284e+53 -3.45103e+52)
(-3.72475e+53 1.3547e+53 -3.93037e+52)
(-3.57332e+53 1.35167e+53 -4.12306e+52)
(-4.88982e+53 1.88315e+53 -6.7208e+52)
(-3.72855e+53 1.41796e+53 -5.18144e+52)
(-3.72646e+53 1.48831e+53 -5.53437e+52)
(-3.58858e+53 1.47826e+53 -5.6024e+52)
(-4.92023e+53 2.00786e+53 -8.36578e+52)
(-3.80143e+53 1.53771e+53 -6.68604e+52)
(-3.6076e+53 1.52019e+53 -6.5842e+52)
(-4.87074e+53 2.02189e+53 -9.57163e+52)
(-3.89832e+53 1.61582e+53 -8.89546e+52)
(-3.19924e+53 1.43295e+53 -6.05216e+52)
(-4.85365e+53 1.83042e+53 -1.47009e+53)
(-4.97558e+53 1.74864e+53 -1.57006e+53)
(-5.01222e+53 1.62973e+53 -1.65607e+53)
(-4.50207e+53 1.39082e+53 -1.03419e+53)
(-4.78634e+53 1.39617e+53 -1.74297e+53)
(-4.90112e+53 1.33177e+53 -1.75523e+53)
(-4.95464e+53 1.30843e+53 -1.77414e+53)
(-4.90952e+53 1.31488e+53 -1.82254e+53)
(-4.85025e+53 1.30711e+53 -1.86899e+53)
(-4.77486e+53 1.26633e+53 -1.92467e+53)
(-4.72349e+53 1.23872e+53 -1.95028e+53)
(-4.9386e+53 1.11137e+53 -2.02325e+53)
(-3.38674e+53 1.20677e+53 -1.59702e+53)
(-4.32075e+53 1.08418e+53 -2.02147e+53)
(-4.29651e+53 9.62994e+52 -2.06137e+53)
(-4.09442e+53 9.33599e+52 -2.16268e+53)
(-4.33208e+53 8.93228e+52 -2.06005e+53)
(-4.25388e+53 9.43659e+52 -2.1178e+53)
(-4.13581e+53 9.75441e+52 -2.20636e+53)
(-3.97613e+53 1.0033e+53 -2.29345e+53)
(-3.93303e+53 8.64015e+52 -2.45149e+53)
(-2.38439e+53 1.02856e+53 -2.06423e+53)
(-5.12434e+53 9.10383e+52 -1.53991e+53)
(-5.44496e+53 8.61422e+52 -1.49267e+53)
(-5.73425e+53 8.62217e+52 -1.471e+53)
(-5.98984e+53 8.6117e+52 -1.47748e+53)
(-6.17375e+53 8.6512e+52 -1.4954e+53)
(-6.54874e+53 8.71544e+52 -1.32326e+53)
(-6.98065e+53 9.23827e+52 -1.20092e+53)
(-7.40694e+53 9.82398e+52 -1.03894e+53)
(-8.12745e+53 8.65429e+52 -7.91869e+52)
(-6.48276e+53 1.17803e+53 -7.21685e+52)
(-8.85883e+53 1.00056e+53 2.09153e+52)
(-9.23842e+53 1.00282e+53 3.63644e+52)
(-9.65153e+53 1.06184e+53 5.32131e+52)
(-1.00685e+54 1.0996e+53 7.15812e+52)
(-1.04099e+54 1.12126e+53 8.67552e+52)
(-1.07748e+54 1.13777e+53 1.06981e+53)
(-1.0975e+54 1.19262e+53 1.21102e+53)
(-1.13803e+54 1.12868e+53 1.41419e+53)
(-9.18511e+53 1.55994e+53 9.69016e+52)
(-1.0758e+54 1.38786e+53 1.45911e+53)
(-1.07761e+54 1.37227e+53 1.45266e+53)
(-1.07326e+54 1.43976e+53 1.38339e+53)
(-1.06906e+54 1.48798e+53 1.34599e+53)
(-1.06894e+54 1.53045e+53 1.34386e+53)
(-1.07525e+54 1.58232e+53 1.35495e+53)
(-1.07839e+54 1.58523e+53 1.42455e+53)
(-1.10022e+54 1.57944e+53 1.35047e+53)
(-8.74008e+53 1.61007e+53 9.20515e+52)
(-1.06838e+54 1.79689e+53 1.23458e+53)
(-1.07415e+54 1.80257e+53 1.22284e+53)
(-1.07413e+54 1.79008e+53 1.22722e+53)
(-1.06837e+54 1.80341e+53 1.13506e+53)
(-1.05781e+54 1.82945e+53 1.04119e+53)
(-1.04691e+54 1.90367e+53 9.80597e+52)
(-1.03157e+54 2.00954e+53 9.40607e+52)
(-1.03739e+54 2.01677e+53 9.2816e+52)
(-7.28897e+53 1.87796e+53 4.11868e+52)
(-8.91175e+53 2.20418e+53 3.85519e+52)
(-8.88514e+53 2.18747e+53 3.33807e+52)
(-8.79881e+53 2.20044e+53 2.73413e+52)
(-8.63335e+53 2.23112e+53 1.77203e+52)
(-8.62342e+53 2.1642e+53 1.77452e+52)
(-8.22926e+53 2.11223e+53 -5.05773e+51)
(-8.10145e+53 2.21284e+53 -1.29406e+52)
(-7.846e+53 2.44464e+53 -2.25104e+52)
(-7.68472e+53 2.64756e+53 -3.46431e+52)
(-5.70126e+53 1.9638e+53 -2.12455e+52)
(-6.87266e+53 2.54667e+53 -2.60832e+52)
(-6.55025e+53 2.36434e+53 -3.58008e+52)
(-6.34159e+53 2.08869e+53 -4.15673e+52)
(-6.12573e+53 1.86808e+53 -4.91851e+52)
(-5.93899e+53 1.78302e+53 -5.55357e+52)
(-5.54647e+53 1.89332e+53 -7.05319e+52)
(-4.71127e+53 2.15738e+53 -1.03677e+53)
(-4.41072e+53 2.24665e+53 -1.22898e+53)
(-3.84427e+53 1.5122e+53 -5.73007e+52)
(-2.69311e+53 2.23728e+53 -1.53758e+53)
(-2.17649e+53 2.14865e+53 -1.81038e+53)
(-1.41903e+53 1.41711e+53 -1.18285e+53)
(1.13353e+53 2.07857e+53 -2.07238e+53)
(2.32556e+53 2.16167e+53 -2.59947e+53)
(1.50964e+53 1.88895e+53 -1.79064e+53)
(2.11655e+53 2.16224e+53 -2.2932e+53)
(1.51459e+53 1.84393e+53 -1.71144e+53)
(1.81322e+53 2.1387e+53 -1.91049e+53)
(1.81884e+53 1.81271e+53 -1.91805e+53)
(1.23748e+53 1.566e+53 -1.41705e+53)
(1.40683e+53 1.49804e+53 -1.51938e+53)
(1.31683e+53 2.25824e+53 -1.45058e+53)
(9.02614e+52 -3.82837e+52 -1.2407e+53)
(9.56559e+52 6.47252e+53 -1.32323e+53)
(6.66408e+52 1.91722e+53 -1.15099e+53)
(6.95982e+52 -1.35482e+54 -6.74363e+52)
(1.38668e+52 5.2462e+53 -7.93597e+52)
(-2.37702e+51 -5.97521e+52 -1.59188e+52)
(1.23812e+50 8.23887e+52 -2.82846e+52)
(2.31083e+49 6.78936e+52 7.53549e+51)
(-4.42162e+48 1.11156e+53 1.6433e+52)
(-8.50646e+49 -2.22731e+52 5.03583e+52)
(-9.30094e+49 1.27492e+52 4.61922e+52)
(-1.72577e+50 -3.61976e+52 7.71208e+52)
(-1.99809e+50 -1.36029e+53 8.61991e+52)
(-1.74064e+50 -1.38324e+53 7.25044e+52)
(-2.62354e+50 -2.37843e+53 1.09616e+53)
(-2.07216e+50 -1.4581e+53 8.18282e+52)
(-3.38575e+50 -2.84085e+53 1.36568e+53)
(-3.23574e+50 -3.36281e+53 1.23949e+53)
(-2.68741e+50 -2.98967e+53 9.95449e+52)
(-3.8842e+50 -4.57999e+53 1.48888e+53)
(-2.93723e+50 -3.15972e+53 1.06294e+53)
(-4.62843e+50 -5.29082e+53 1.75682e+53)
(-4.21632e+50 -5.359e+53 1.51044e+53)
(-3.48593e+50 -4.34916e+53 1.18486e+53)
(-5.29682e+50 -6.73669e+53 1.89216e+53)
(-4.75962e+50 -6.80942e+53 1.61756e+53)
(-3.88751e+50 -5.84277e+53 1.30234e+53)
(-5.48263e+50 -8.39046e+53 1.91704e+53)
(-4.06274e+50 -5.98291e+53 1.35339e+53)
(-6.24222e+50 -9.25539e+53 2.18864e+53)
(-5.50556e+50 -8.91973e+53 1.8424e+53)
(-4.491e+50 -7.62569e+53 1.50207e+53)
(-6.28488e+50 -1.07641e+54 2.17194e+53)
(-4.63909e+50 -7.70953e+53 1.56228e+53)
(-7.07335e+50 -1.17017e+54 2.48608e+53)
(-6.19947e+50 -1.0938e+54 2.10267e+53)
(-5.08794e+50 -9.056e+53 1.71423e+53)
(-7.53912e+50 -1.3141e+54 2.60178e+53)
(-6.60329e+50 -1.24567e+54 2.24587e+53)
(-5.37512e+50 -1.05845e+54 1.89839e+53)
(-7.46216e+50 -1.47063e+54 2.65793e+53)
(-5.49303e+50 -1.06021e+54 1.98954e+53)
(-8.296e+50 -1.57591e+54 3.03547e+53)
(-7.20425e+50 -1.46068e+54 2.63155e+53)
(-5.87328e+50 -1.24374e+54 2.25599e+53)
(-8.12226e+50 -1.71785e+54 3.10326e+53)
(-5.98022e+50 -1.23829e+54 2.37647e+53)
(-8.99781e+50 -1.82965e+54 3.57407e+53)
(-7.81129e+50 -1.67194e+54 3.13464e+53)
(-6.41363e+50 -1.39386e+54 2.67921e+53)
(-9.39343e+50 -1.97954e+54 3.85883e+53)
(-8.17176e+50 -1.83989e+54 3.45355e+53)
(-6.66145e+50 -1.56501e+54 3.03752e+53)
(-9.16804e+50 -2.14679e+54 4.07731e+53)
(-6.75663e+50 -1.55876e+54 3.21795e+53)
(-1.01018e+51 -2.27987e+54 4.68406e+53)
(-8.73695e+50 -2.08765e+54 4.19601e+53)
(-7.13798e+50 -1.78351e+54 3.69952e+53)
(-9.79431e+50 -2.43919e+54 4.93049e+53)
(-7.22997e+50 -1.7734e+54 3.92304e+53)
(-1.07761e+51 -2.58735e+54 5.69474e+53)
(-9.33413e+50 -2.35037e+54 5.1227e+53)
(-7.68302e+50 -1.9718e+54 4.46715e+53)
(-1.11515e+51 -2.77303e+54 6.2841e+53)
(-9.68934e+50 -2.56185e+54 5.73006e+53)
(-7.92395e+50 -2.17702e+54 5.05895e+53)
(-1.08339e+51 -3.00478e+54 6.73848e+53)
(-8.059e+50 -2.11385e+54 5.28927e+53)
(-1.2403e+51 -2.88627e+54 8.26701e+53)
(-3.16683e+52 2.71136e+52 1.58988e+53)
(-3.24066e+52 2.61659e+52 1.57784e+53)
(-3.26393e+52 2.49681e+52 1.56169e+53)
(-3.28575e+52 2.35177e+52 1.54019e+53)
(-3.28834e+52 2.15084e+52 1.51069e+53)
(-3.26974e+52 1.89287e+52 1.47227e+53)
(-3.22374e+52 1.55969e+52 1.42334e+53)
(-3.14743e+52 1.14441e+52 1.36413e+53)
(-3.04448e+52 6.51453e+51 1.29793e+53)
(-2.93112e+52 1.15075e+51 1.23321e+53)
(-2.83621e+52 -3.94104e+51 1.18256e+53)
(-2.77907e+52 -8.11085e+51 1.15276e+53)
(-2.73914e+52 -1.20902e+52 1.1316e+53)
(-2.70604e+52 -1.61155e+52 1.11358e+53)
(-2.67515e+52 -2.01978e+52 1.0964e+53)
(-2.64462e+52 -2.4301e+52 1.07924e+53)
(-2.61373e+52 -2.83828e+52 1.06182e+53)
(-2.58214e+52 -3.23864e+52 1.04401e+53)
(-2.54972e+52 -3.62309e+52 1.02572e+53)
(-2.51649e+52 -3.98209e+52 1.00698e+53)
(-2.48247e+52 -4.30464e+52 9.87842e+52)
(-2.44779e+52 -4.5776e+52 9.68413e+52)
(-2.41264e+52 -4.78559e+52 9.48853e+52)
(-2.37718e+52 -4.91041e+52 9.29311e+52)
(-2.34142e+52 -4.92932e+52 9.09832e+52)
(-2.30518e+52 -4.81197e+52 8.90301e+52)
(-2.26823e+52 -4.51643e+52 8.70524e+52)
(-2.23043e+52 -3.98136e+52 8.50297e+52)
(-2.19151e+52 -3.10049e+52 8.29232e+52)
(-2.15055e+52 -1.63114e+52 8.06345e+52)
(-2.10419e+52 1.09234e+52 7.80331e+52)
(-2.04024e+52 6.42121e+52 7.55566e+52)
(-1.93944e+52 1.1969e+53 7.45464e+52)
(-1.82172e+52 1.25035e+53 7.36731e+52)
(-1.63942e+52 1.45964e+53 7.43654e+52)
(-1.39968e+52 1.65719e+53 7.51826e+52)
(-1.08128e+52 1.80287e+53 7.5732e+52)
(-6.81989e+51 1.96045e+53 7.77275e+52)
(-2.39938e+51 2.09188e+53 7.78661e+52)
(2.12976e+51 2.19232e+53 7.78376e+52)
(5.96511e+51 2.25343e+53 7.66503e+52)
(8.79873e+51 2.28581e+53 7.4128e+52)
(1.09938e+52 2.30312e+53 7.1617e+52)
(1.27302e+52 2.29691e+53 6.93241e+52)
(1.41171e+52 2.26458e+53 6.67032e+52)
(1.52415e+52 2.19833e+53 6.38921e+52)
(1.6169e+52 2.08955e+53 5.98833e+52)
(1.69119e+52 1.94299e+53 5.23791e+52)
(1.74838e+52 1.74139e+53 4.47206e+52)
(1.7918e+52 1.46436e+53 3.65959e+52)
(1.82645e+52 1.12274e+53 2.45443e+52)
(1.85292e+52 7.2279e+52 1.03604e+52)
(1.85833e+52 2.38643e+52 -3.74869e+51)
(1.82529e+52 -4.67058e+52 -2.33596e+52)
(1.71607e+52 -5.84073e+52 -2.02631e+52)
(1.46234e+52 -1.00664e+53 -3.87304e+52)
(1.06773e+52 -1.0011e+53 -4.48535e+52)
(6.24783e+51 -1.16259e+53 -5.33846e+52)
(2.4437e+51 -1.46576e+53 -5.62194e+52)
(1.46096e+51 -1.77282e+53 -8.85659e+52)
(3.53174e+50 -1.714e+53 -7.38999e+52)
(-3.48283e+50 -1.69133e+53 -6.70677e+52)
(-3.38211e+50 -1.77176e+53 -7.34483e+52)
(1.34893e+49 -1.76504e+53 -7.59891e+52)
(3.68843e+50 -1.71404e+53 -7.76458e+52)
(5.45541e+50 -1.67149e+53 -8.25124e+52)
(5.31459e+50 -1.66169e+53 -9.6812e+52)
(1.54066e+50 -1.56072e+53 -1.09629e+53)
(-4.98582e+50 -1.44253e+53 -1.16351e+53)
(-1.1274e+51 -1.26743e+53 -1.23732e+53)
(-1.4654e+51 -1.14237e+53 -1.33275e+53)
(-1.4648e+51 -8.93907e+52 -1.4106e+53)
(-1.31575e+51 -4.72747e+52 -1.46025e+53)
(-1.28229e+51 3.58447e+52 -1.50353e+53)
(-1.26397e+51 8.92791e+52 -1.43197e+53)
(-1.45349e+51 1.76552e+53 -1.10955e+53)
(-9.93632e+50 9.40336e+52 -3.98982e+52)
(-1.72466e+50 -6.94814e+53 2.03952e+53)
(-6.12871e+50 -1.95724e+54 6.55422e+53)
(-3.23837e+52 2.72977e+52 1.62291e+53)
(-3.31943e+52 2.65287e+52 1.61311e+53)
(-3.34856e+52 2.54965e+52 1.59877e+53)
(-3.37804e+52 2.42385e+52 1.57975e+53)
(-3.38971e+52 2.24802e+52 1.553e+53)
(-3.38146e+52 2.01955e+52 1.51758e+53)
(-3.34576e+52 1.71927e+52 1.4711e+53)
(-3.27628e+52 1.33369e+52 1.41224e+53)
(-3.16999e+52 8.52899e+51 1.3414e+53)
(-3.03381e+52 2.87167e+51 1.26357e+53)
(-2.89158e+52 -3.15781e+51 1.19056e+53)
(-2.78023e+52 -8.6414e+51 1.13858e+53)
(-2.71421e+52 -1.32064e+52 1.11051e+53)
(-2.67879e+52 -1.72299e+52 1.09616e+53)
(-2.65428e+52 -2.10715e+52 1.08508e+53)
(-2.62926e+52 -2.48646e+52 1.07226e+53)
(-2.60093e+52 -2.85874e+52 1.05727e+53)
(-2.57025e+52 -3.215e+52 1.04121e+53)
(-2.53844e+52 -3.54386e+52 1.02487e+53)
(-2.50593e+52 -3.83311e+52 1.0084e+53)
(-2.47262e+52 -4.06919e+52 9.91731e+52)
(-2.43851e+52 -4.23623e+52 9.7486e+52)
(-2.40379e+52 -4.31581e+52 9.57904e+52)
(-2.36864e+52 -4.28617e+52 9.40924e+52)
(-2.33303e+52 -4.12026e+52 9.23783e+52)
(-2.29674e+52 -3.78249e+52 9.06076e+52)
(-2.25952e+52 -3.22395e+52 8.87151e+52)
(-2.22108e+52 -2.37211e+52 8.65963e+52)
(-2.18074e+52 -1.10291e+52 8.40492e+52)
(-2.13652e+52 8.15138e+51 8.07325e+52)
(-2.08333e+52 3.71486e+52 7.66796e+52)
(-2.01151e+52 7.34108e+52 7.42917e+52)
(-1.91472e+52 9.07789e+52 7.47006e+52)
(-1.78052e+52 1.09443e+53 7.4601e+52)
(-1.57929e+52 1.25849e+53 7.64014e+52)
(-1.3216e+52 1.38385e+53 7.8383e+52)
(-9.72735e+51 1.59492e+53 7.98201e+52)
(-5.48206e+51 1.74663e+53 8.17676e+52)
(-8.06506e+50 1.92373e+53 8.17744e+52)
(3.77404e+51 2.05401e+53 8.15218e+52)
(7.4882e+51 2.11881e+53 7.987e+52)
(1.01051e+52 2.17121e+53 7.71995e+52)
(1.2088e+52 2.19091e+53 7.45757e+52)
(1.36526e+52 2.19876e+53 7.23503e+52)
(1.48929e+52 2.16853e+53 6.97442e+52)
(1.59011e+52 2.11743e+53 6.66504e+52)
(1.67352e+52 2.00433e+53 6.22509e+52)
(1.73963e+52 1.86792e+53 5.45811e+52)
(1.78831e+52 1.68215e+53 4.59588e+52)
(1.82203e+52 1.40731e+53 3.65602e+52)
(1.84521e+52 1.06064e+53 2.35494e+52)
(1.85784e+52 6.63562e+52 8.15733e+51)
(1.84768e+52 1.75883e+52 -7.76253e+51)
(1.80185e+52 -5.21208e+52 -3.13993e+52)
(1.72496e+52 -1.22363e+53 -3.88951e+52)
(1.48387e+52 -1.20895e+53 -4.35158e+52)
(1.11655e+52 -1.40545e+53 -4.60459e+52)
(6.48023e+51 -1.48016e+53 -4.51146e+52)
(2.52626e+51 -1.70996e+53 -4.12225e+52)
(1.46483e+51 -1.92546e+53 -7.37809e+52)
(3.91853e+50 -1.82995e+53 -6.36302e+52)
(-3.24895e+50 -1.74012e+53 -6.10878e+52)
(-3.50437e+50 -1.76054e+53 -6.97761e+52)
(-1.34446e+49 -1.71678e+53 -7.42028e+52)
(3.45983e+50 -1.63245e+53 -7.72075e+52)
(5.37264e+50 -1.56081e+53 -8.26811e+52)
(5.44218e+50 -1.53286e+53 -9.67157e+52)
(2.10213e+50 -1.42559e+53 -1.09944e+53)
(-4.07904e+50 -1.29605e+53 -1.17493e+53)
(-1.03786e+51 -1.10995e+53 -1.24848e+53)
(-1.42197e+51 -9.72317e+52 -1.346e+53)
(-1.48157e+51 -7.38085e+52 -1.44186e+53)
(-1.37995e+51 -3.47802e+52 -1.50651e+53)
(-1.37955e+51 1.30294e+52 -1.52319e+53)
(-1.37648e+51 6.47764e+52 -1.3451e+53)
(-1.51038e+51 1.56307e+53 -1.03571e+53)
(-1.11362e+51 5.07757e+52 -8.0293e+52)
(-1.87013e+50 -7.66261e+53 1.83331e+53)
(-6.48603e+50 -2.08357e+54 6.03801e+53)
(-3.27828e+52 2.73952e+52 1.64129e+53)
(-3.36362e+52 2.67165e+52 1.63285e+53)
(-3.39632e+52 2.57632e+52 1.61965e+53)
(-3.43058e+52 2.46023e+52 1.60224e+53)
(-3.44826e+52 2.29724e+52 1.57742e+53)
(-3.44749e+52 2.08472e+52 1.54438e+53)
(-3.42061e+52 1.80425e+52 1.50056e+53)
(-3.36026e+52 1.44144e+52 1.44404e+53)
(-3.26044e+52 9.833e+51 1.3738e+53)
(-3.12224e+52 4.32876e+51 1.29226e+53)
(-2.96195e+52 -1.73526e+51 1.20827e+53)
(-2.81519e+52 -7.57539e+51 1.13857e+53)
(-2.71181e+52 -1.26345e+52 1.09505e+53)
(-2.65442e+52 -1.69519e+52 1.07487e+53)
(-2.62598e+52 -2.08421e+52 1.06654e+53)
(-2.60625e+52 -2.45803e+52 1.05944e+53)
(-2.58359e+52 -2.82641e+52 1.04898e+53)
(-2.55582e+52 -3.18362e+52 1.03555e+53)
(-2.52505e+52 -3.51684e+52 1.02103e+53)
(-2.49313e+52 -3.81213e+52 1.00652e+53)
(-2.46058e+52 -4.05538e+52 9.92188e+52)
(-2.42728e+52 -4.2309e+52 9.779e+52)
(-2.39322e+52 -4.32023e+52 9.63658e+52)
(-2.35851e+52 -4.30096e+52 9.49494e+52)
(-2.32313e+52 -4.14474e+52 9.35241e+52)
(-2.28686e+52 -3.81409e+52 9.20422e+52)
(-2.24943e+52 -3.25743e+52 9.04246e+52)
(-2.21042e+52 -2.39996e+52 8.85418e+52)
(-2.16878e+52 -1.12914e+52 8.61661e+52)
(-2.12194e+52 7.00644e+51 8.30154e+52)
(-2.06462e+52 3.14373e+52 7.94074e+52)
(-1.98907e+52 5.80588e+52 7.75829e+52)
(-1.88701e+52 7.71531e+52 7.84448e+52)
(-1.74095e+52 9.66434e+52 7.93554e+52)
(-1.52609e+52 1.1758e+53 8.15967e+52)
(-1.24625e+52 1.38874e+53 8.33383e+52)
(-8.76513e+51 1.60861e+53 8.44314e+52)
(-4.34881e+51 1.82672e+53 8.50673e+52)
(3.69436e+50 1.96528e+53 8.42826e+52)
(4.80597e+51 2.08976e+53 8.34763e+52)
(8.21761e+51 2.14547e+53 8.13831e+52)
(1.06414e+52 2.18854e+53 7.88815e+52)
(1.24648e+52 2.20544e+53 7.64295e+52)
(1.39679e+52 2.21292e+53 7.4465e+52)
(1.51794e+52 2.18366e+53 7.19822e+52)
(1.61547e+52 2.13278e+53 6.85053e+52)
(1.69545e+52 2.02631e+53 6.36596e+52)
(1.75722e+52 1.89065e+53 5.574e+52)
(1.80038e+52 1.70548e+53 4.65048e+52)
(1.8272e+52 1.43906e+53 3.63808e+52)
(1.84189e+52 1.09497e+53 2.2867e+52)
(1.84433e+52 6.998e+52 6.88524e+51)
(1.82274e+52 2.14721e+52 -1.00131e+52)
(1.7667e+52 -4.61503e+52 -3.41062e+52)
(1.7104e+52 -1.24884e+53 -4.64669e+52)
(1.4886e+52 -1.23466e+53 -4.789e+52)
(1.16035e+52 -1.45982e+53 -5.31582e+52)
(6.93457e+51 -1.58018e+53 -4.87529e+52)
(2.70792e+51 -1.76102e+53 -3.74744e+52)
(1.46785e+51 -1.98015e+53 -6.53103e+52)
(4.15211e+50 -1.90861e+53 -5.67295e+52)
(-3.04425e+50 -1.81509e+53 -5.53773e+52)
(-3.61107e+50 -1.83e+53 -6.4911e+52)
(-4.24206e+49 -1.78923e+53 -7.05719e+52)
(3.18772e+50 -1.70145e+53 -7.44926e+52)
(5.25731e+50 -1.61718e+53 -8.03e+52)
(5.56705e+50 -1.57647e+53 -9.3819e+52)
(2.72318e+50 -1.47824e+53 -1.07347e+53)
(-3.02274e+50 -1.34716e+53 -1.15795e+53)
(-9.27521e+50 -1.16207e+53 -1.23134e+53)
(-1.35845e+51 -1.00748e+53 -1.32644e+53)
(-1.48581e+51 -7.80815e+52 -1.43056e+53)
(-1.43733e+51 -4.39079e+52 -1.49815e+53)
(-1.43726e+51 7.90982e+51 -1.47938e+53)
(-1.41223e+51 6.49334e+52 -1.27375e+53)
(-1.51263e+51 1.52934e+53 -1.0392e+53)
(-1.14284e+51 3.9964e+52 -9.262e+52)
(-2.05954e+50 -8.33544e+53 1.73911e+53)
(-6.72475e+50 -2.1187e+54 5.41293e+53)
(-3.32541e+52 2.74792e+52 1.6632e+53)
(-3.41543e+52 2.6916e+52 1.65623e+53)
(-3.45192e+52 2.60652e+52 1.64421e+53)
(-3.49126e+52 2.50257e+52 1.6285e+53)
(-3.51527e+52 2.35566e+52 1.60571e+53)
(-3.52244e+52 2.16309e+52 1.57523e+53)
(-3.50519e+52 1.90754e+52 1.53439e+53)
(-3.45553e+52 1.57381e+52 1.48093e+53)
(-3.36526e+52 1.14549e+52 1.41279e+53)
(-3.23045e+52 6.16856e+51 1.33024e+53)
(-3.05947e+52 9.90413e+49 1.23902e+53)
(-2.88203e+52 -6.07321e+51 1.15397e+53)
(-2.73886e+52 -1.15987e+52 1.09269e+53)
(-2.64811e+52 -1.62785e+52 1.0599e+53)
(-2.60239e+52 -2.03082e+52 1.04776e+53)
(-2.58032e+52 -2.40032e+52 1.04358e+53)
(-2.56244e+52 -2.75744e+52 1.03822e+53)
(-2.53961e+52 -3.10516e+52 1.02888e+53)
(-2.51137e+52 -3.43293e+52 1.01693e+53)
(-2.48035e+52 -3.72503e+52 1.00437e+53)
(-2.44834e+52 -3.96552e+52 9.92183e+52)
(-2.41576e+52 -4.13828e+52 9.80414e+52)
(-2.38243e+52 -4.22505e+52 9.68921e+52)
(-2.34826e+52 -4.20348e+52 9.57604e+52)
(-2.31315e+52 -4.04502e+52 9.46252e+52)
(-2.27695e+52 -3.71225e+52 9.34364e+52)
(-2.23937e+52 -3.15505e+52 9.21074e+52)
(-2.19988e+52 -2.30525e+52 9.04992e+52)
(-2.15718e+52 -1.07456e+52 8.84025e+52)
(-2.1083e+52 6.22667e+51 8.56579e+52)
(-2.04778e+52 2.79698e+52 8.27555e+52)
(-1.96758e+52 5.30134e+52 8.14622e+52)
(-1.85732e+52 7.47457e+52 8.25033e+52)
(-1.69805e+52 9.57892e+52 8.38452e+52)
(-1.46681e+52 1.18858e+53 8.58755e+52)
(-1.16529e+52 1.40003e+53 8.70471e+52)
(-7.74229e+51 1.61807e+53 8.74332e+52)