/*--------------------------------*- C++ -*----------------------------------*\
| =========                 |                                                 |
| \\      /  F ield         | OpenFOAM: The Open Source CFD Toolbox           |
|  \\    /   O peration     | Version:  4.1                                   |
|   \\  /    A nd           | Web:      www.OpenFOAM.org                      |
|    \\/     M anipulation  |                                                 |
\*---------------------------------------------------------------------------*/
FoamFile
{
    version     2.0;
    format      ascii;
    class       volScalarField;
    location    "14";
    object      p;
}
// * * * * * * * * * * * * * * * * * * * * * * * * * * * * * * * * * * * * * //

dimensions      [0 2 -2 0 0 0 0];

internalField   nonuniform List<scalar> 
6785
(
4734.96
4670.52
4619.19
4569.49
4523.39
4480.13
4439.53
4401.34
4365.33
4331
4298.1
4267.98
4239.88
4205.67
4173.34
4196.82
4178.85
4181.26
4176.66
4172.93
4169.15
4165.77
4163.03
4161.14
4160.19
4160.13
4161.32
4164.55
4167.89
4168.06
4140
4134.23
4143.78
4143.23
4146.47
4148.87
4151.45
4153.93
4156.29
4158.51
4160.46
4161.93
4163.17
4164.95
4166.77
4194.6
4192.79
4198.1
4194.87
4195.79
4194.82
4194.16
4193.38
4192.61
4191.91
4191.3
4190.76
4190.33
4190.67
4192.63
4206.43
4205.47
4208.9
4206.15
4208.12
4207.87
4208.47
4209.01
4209.68
4210.39
4211.13
4211.97
4213.06
4214.21
4215.77
4210.38
4210.02
4212.75
4211.07
4213.4
4213.35
4214.37
4214.96
4215.55
4215.9
4216.06
4216.19
4216.47
4216.73
4217.13
4214.24
4213.48
4215.36
4213.48
4214.94
4214.03
4214.31
4213.94
4213.68
4213.17
4212.58
4212.01
4211.47
4210.9
4210.28
4207.04
4205.61
4206.39
4204.22
4204.79
4203.31
4203.06
4202.17
4201.56
4200.84
4200.19
4199.49
4198.61
4197.64
4196.77
4192.06
4190.57
4190.76
4188.77
4188.93
4187.36
4186.88
4185.84
4185.09
4184.39
4183.87
4183.36
4182.72
4182.32
4182.42
4182.57
4181.95
4182.41
4181.02
4181.43
4180.41
4180.26
4179.7
4179.32
4179.06
4179.02
4179.1
4179.28
4179.7
4180.57
4185.21
4185.78
4186.61
4186
4186.83
4186.51
4186.84
4186.76
4186.96
4187.25
4187.62
4188.01
4188.45
4188.89
4189.41
4195.64
4196.56
4197.1
4196.51
4197
4196.49
4196.36
4195.9
4195.52
4195.17
4194.81
4194.47
4194.08
4193.5
4192.89
4203.07
4204.86
4204.21
4202.13
4200.58
4197.97
4195.47
4192.47
4189.7
4187.04
4184.73
4182.77
4181.34
4179.62
4179.13
4236.55
4235.92
4231.16
4221.07
4209.9
4198.07
4187.03
4177.46
4170.44
4166.09
4164.68
4164.59
4166.13
4165.61
4164.67
4201.95
4237.37
4252.47
4246.92
4242.17
4239.82
4235.09
4227.7
4217.75
4203.45
4183.27
4157.72
4125.6
4095.96
4045.88
7704.84
7708.81
7702.08
7696.72
7692.32
7690.35
7682.43
7672.78
7663.05
7657.56
7652.45
7639.28
7625.88
7624.29
7610.6
7594.32
7585.43
7579.76
7570.28
7561.95
7561.67
7547.48
7543.12
7539.85
7525.64
7506.28
7510.83
7502.1
7453.56
7462.15
7456.88
7391.08
7348.12
7363.63
7329.46
7220.96
7250.72
7232.68
7088.14
7013.72
7050.26
7026.99
6836.11
6761.54
6804.58
6724.63
6502.84
6590.25
6561.69
6265.51
6161.34
6247.84
6225.7
5880.47
5788.59
5877.05
5762.82
5434.06
5602.09
5552.23
5141.69
5055.41
5180.54
5044.49
4682.78
4902.84
4860.72
4402.41
4315.06
4494.4
4479.48
4016.89
3956.78
4107.78
3993.81
3638.11
3869.38
3771.69
3375.78
3594.74
3615.48
3560.24
3604.32
3390.62
3522.16
3532.44
3514.44
3497.04
3482.31
3449.48
3424.38
3462.23
3310.9
3425.13
3421.15
3421.28
3420.97
3421.85
3411.94
3390.33
3430.61
3301.44
3437.32
3442.55
3449.62
3453.39
3458.36
3465.84
3464.44
3465.84
3506.86
3403.31
3553.68
3573.31
3593.35
3614.72
3630.96
3638.99
3656.74
3702.64
3658.3
3780.72
3804.19
3827.33
3855.45
3882.32
3908.96
3935.85
3977.4
3968.03
4040.54
4073.16
4095.02
4120.66
4145.61
4168.69
4198.75
4235.82
4245.5
4275.44
4309.37
4335
4365.91
4383.68
4403.7
4429
4457.15
4497.03
4584.87
4537.03
4574.57
4597.13
4627.9
4656.47
4690
4722.45
4749.42
4909.56
4801.64
4779.28
4802.84
4990.26
4816.85
4909.3
4913.49
5044.42
5180.1
5095.68
5238.27
5329.64
5327.45
5413.95
5458.09
5550.3
5615.73
5741.56
5794.1
5803.87
5916.36
5900.16
6079.8
6106.85
5986.97
6374.46
6180.32
6020.97
6213.19
5964.99
6737.44
6027.89
5585.46
5872.82
5463.86
6864.54
5730.9
4238.4
6776.11
5209.67
3941.8
4483.51
3897.43
6807.63
4387.53
2879.82
3539.27
2977.89
6392.67
4015.22
1230.57
5759.72
3393
1568.5
2241.61
1756.39
5718.87
2760.3
966.135
1650.32
1220.9
4877.86
2469.99
-274.873
3948.14
1842.14
48.8759
640.078
128.548
3531.96
1106.99
-608.923
13.044
-483.716
2620.16
693.048
-1817.02
1851.69
122.201
-1579.12
-1057.07
-1424.82
-0.174559
3.57575
2.46808
4.20228
4.97774
6.63608
7.74852
9.09714
10.0984
11.1878
12.1725
13.2112
14.254
15.2884
15.828
15.4305
13.9167
11.4691
8.50755
5.36606
2.229
-0.83691
-3.86289
-7.04367
-10.8393
-15.8788
-22.4751
-30.1746
-41.8445
-70.1058
-147.289
-191.095
-23.5978
-64.8343
42.4071
-60.879
-93.7898
-106.071
-117.409
-77.0988
-13.4259
23.3858
53.7885
58.6289
42.5724
41.5305
66.5741
82.5382
94.7807
144.948
157.647
130.66
117.473
120.404
116.171
72.2599
7.27257
-37.0883
-47.136
-41.3174
-32.8236
1.11412
25.4049
15.4713
6.5244
5.35646
6.68336
9.63305
12.8853
16.9971
17.2772
15.9743
14.1109
13.8647
19.9276
36.2888
56.3701
85.5805
38.7664
-4.3517
4.00809
6.35729
12.0733
14.1351
17.8975
20.1991
22.9954
24.7243
26.2476
26.9917
27.1319
26.2919
24.3735
20.5488
14.7672
7.76219
0.421801
-6.65338
-13.4093
-20.0681
-27.1299
-35.4314
-46.0004
-60.063
-79.1113
-104.061
-132.382
-158.525
-165.901
-151.16
-116.68
189.765
-62.9625
96.9445
-101.573
-170.161
-178.527
-175.02
-106.522
-0.685521
70.4227
130.844
167.689
173.643
168.304
163.886
168.618
193.827
277.231
306.769
272.036
258.018
283.24
317.364
269.258
131.453
-9.40316
-76.632
-75.2369
-46.2503
5.38272
40.5015
17.059
10.4072
14.3387
18.1872
27.9623
36.9836
43.6553
42.2251
46.963
54.5151
66.5074
83.9404
110.045
127.223
168.507
126.16
-4.12006
9.06768
11.2459
20.4981
24.1555
30.7948
34.9897
39.9606
43.1221
45.9759
47.5685
48.2114
47.3465
44.9203
39.6175
31.2084
20.5439
8.81163
-2.97209
-14.5482
-26.1423
-38.4009
-52.4029
-69.5437
-91.7219
-121.391
-160.035
-204.867
-253.6
-288.567
-276.533
-165.73
291.176
7.93892
122.852
-121.458
-198.57
-194.887
-174.772
-95.6204
21.2286
101.937
172.11
223.9
249.186
256.188
242.953
232.06
239.654
296.649
323.174
305.24
309.216
343.314
381.199
342.302
211.424
66.169
-12.7055
-24.7269
-10.2037
13.7991
38.0707
28.0769
28.0796
30.6752
30.8765
46.5154
63.1531
76.8856
75.8127
82.4158
91.9887
108.172
132.527
179.141
226.933
317.244
310.178
-4.41716
12.553
15.9997
28.7278
33.9244
43.0642
48.8502
55.5852
59.7974
63.4832
65.3336
65.6956
63.7828
59.576
51.3829
39.0469
23.8633
7.49744
-8.67649
-24.4115
-40.1692
-56.9608
-76.3403
-100.21
-131.059
-172.115
-225.38
-287.96
-357.576
-406.542
-360.621
-215.524
210.47
73.2405
127.075
-146.448
-236.549
-221.808
-189.411
-95.7789
37.6647
128.413
208.429
268.021
304.113
327.781
322.552
303.961
294.398
322.672
338.514
330.941
348.655
390.713
425.419
388.768
268.087
127.473
41.0266
11.8261
7.51136
23.3654
41.1558
31.3187
35.2359
42.2368
43.5762
65.8464
88.8504
106.976
105.116
115.688
130.901
154.512
185.572
245.969
314.531
444.327
411.534
-3.86127
16.2825
20.7903
36.8934
43.7192
55.3589
62.746
71.1817
76.3988
80.8559
82.9035
82.8867
79.8135
73.7866
62.8308
46.8958
27.672
7.14736
-13.0527
-32.73
-52.5595
-73.8365
-98.4605
-128.729
-167.673
-219.329
-286.27
-366.145
-459.301
-535.476
-490.051
-381.02
-85.4239
135.245
123.045
-177.066
-292.392
-265.084
-221.095
-108.093
50.2126
156.529
251.207
321.558
367.94
405.17
405.809
381.537
361.44
374.573
383.685
378.438
400.779
455.869
495.322
458.833
332.643
178.352
75.4077
31.9143
17.2465
26.3465
41.5135
38.5206
47.3862
55.8567
57.0695
86.1704
115.372
137.833
135.317
149.234
168.678
198.009
234.677
311.075
407.04
579.265
628.246
-3.1479
19.7286
25.6103
44.9622
53.4385
67.4357
76.3171
86.262
92.3143
97.316
99.2885
98.5237
93.8359
85.5198
71.4026
51.6044
28.2848
3.72675
-20.2477
-43.5459
-67.1081
-92.5523
-122.157
-158.628
-205.471
-267.443
-347.594
-444.095
-560.518
-668.155
-639.738
-569.284
-386.554
267.894
115.584
-212.165
-354.327
-308.71
-252.349
-119.423
64.6631
186.69
296.678
379.621
437.66
486.857
489.381
457.48
427.46
428.301
433.892
429.936
452.232
522.004
569.652
535.235
402.367
231.386
109.904
51.2123
25.1939
27.073
40.6041
41.307
54.7545
67.8078
70.839
107.154
141.92
167.594
163.999
182.063
206.612
242.159
283.837
374.8
497.886
704.974
721.624
-2.20522
23.0924
30.4416
52.9245
63.0893
79.3472
89.6478
100.947
107.698
113.06
114.732
112.919
106.268
95.3581
77.9128
54.2721
27.0955
-1.13872
-28.5203
-55.1038
-82.1085
-111.455
-145.759
-188.098
-242.393
-314.112
-406.76
-518.888
-658.373
-803.27
-807.206
-731.375
-459.174
511.247
96.7834
-255.901
-420.279
-350.572
-281.795
-128.745
80.9522
217.22
341.816
436.812
506.282
567.793
572.569
533.176
492.976
480.609
482.78
480.028
498.024
580.825
637.207
606.674
470.627
284.735
143.394
66.2937
27.6365
24.4214
39.4552
46.2691
64.1854
80.4768
85.1993
128.906
168.749
196.966
191.983
214.409
244.002
285.479
331.802
438.02
591.329
851.913
865.937
-1.17443
26.3549
35.2943
60.7763
72.6447
91.0425
102.666
115.145
122.442
127.947
129.044
125.831
116.822
102.973
81.9997
54.4968
23.6551
-7.93989
-38.3939
-67.9249
-98.0374
-130.955
-169.617
-217.463
-278.765
-359.653
-464.042
-590.45
-751.087
-934.558
-975.689
-852.154
-347.321
737.77
83.2202
-310.125
-494.633
-395.211
-314.051
-139.328
97.4643
247.594
387.043
493.611
573.865
648.031
656.429
611.298
561.84
537.792
536.829
534.622
544.2
634.633
700.91
675.976
537.941
336.151
172.215
74.8238
24.3144
17.8846
35.6333
48.5964
71.6204
92.6464
99.9347
151.23
195.527
225.434
218.673
246.12
281.149
328.734
379.62
501.186
685.626
985.346
1095.26
-0.0887627
29.5498
40.1575
68.5074
82.0834
102.501
115.347
128.834
136.52
141.939
142.17
137.201
125.46
108.358
83.7323
52.4466
18.2299
-16.3285
-49.4675
-81.5806
-114.442
-150.569
-193.197
-246.099
-313.846
-403.176
-518.449
-657.718
-836.614
-1057.54
-1140.38
-969.241
-315.822
750.73
121.826
-377.221
-581.016
-443.615
-349.802
-151.414
114.335
278.314
433.264
551.424
642.212
728.971
741.494
692.073
634.33
601.036
598.331
596.584
596.504
684.322
762.153
745.211
605.646
386.733
197.645
78.5008
16.3324
8.91954
32.208
52.1336
79.7192
105.107
115.146
174.114
222.2
253.016
244.025
277.102
317.892
371.743
427.451
565.189
781.823
1115.74
1206.84
1.0142
32.6879
45.0274
76.1104
91.3794
113.687
127.645
141.962
149.873
154.955
153.993
146.9
132.063
111.406
83.0497
48.1226
10.8637
-26.238
-61.6592
-95.9752
-131.192
-170.117
-216.258
-273.691
-347.232
-444.148
-569.326
-720.078
-913.548
-1167.91
-1297.84
-1112.25
-461.029
414.676
186.609
-470.408
-682.472
-494.668
-387.995
-163.987
132.203
309.725
480.637
610.388
711.635
810.887
827.708
775.163
710.01
669.177
666.387
665.43
657.713
726.732
818.445
813.248
673.364
437.507
221.259
78.5162
4.41968
-2.45868
26.8786
54.5397
87.2687
117.577
130.77
197.449
248.553
279.431
267.745
307.262
354.3
414.755
475.879
630.673
880.929
1265.51
1361.36
2.11539
35.7785
49.8934
83.5744
100.505
124.567
139.517
154.487
162.447
166.916
164.405
154.817
136.55
112.081
79.9783
41.6405
1.73489
-37.449
-74.7163
-110.83
-147.978
-189.241
-238.379
-299.723
-378.303
-481.798
-615.737
-776.772
-981.123
-1262.34
-1444.01
-1288.13
-729.933
-104.786
256.195
-616.622
-804.461
-548.117
-428.542
-176.765
151.18
341.805
529.041
670.225
781.834
893.583
915.053
860.684
789.284
742.102
740.845
741.003
728.982
762.765
867.643
878.615
740.321
488.829
244.019
75.8732
-10.3628
-15.0617
22.1666
57.5418
95.0378
130.283
146.822
221.178
274.443
304.467
289.601
336.463
390.359
457.879
525.388
698.32
982.948
1406.91
1563.87
3.20151
38.8261
54.7441
90.8867
109.428
135.102
150.914
166.358
174.182
177.73
173.283
160.833
138.842
110.361
74.574
33.1439
-8.96476
-49.7462
-88.3985
-125.881
-164.503
-207.597
-259.155
-323.715
-406.482
-515.421
-656.776
-827.005
-1039.15
-1338.67
-1572.81
-1482.69
-1017.18
-419.001
424.064
-826.983
-954.514
-604.351
-471.76
-189.777
171.193
374.539
578.489
730.9
852.789
977.06
1003.66
948.848
872.613
820.161
822.022
823.601
809.989
805.587
911.022
940.009
805.894
540.96
267.059
72.0154
-26.8162
-28.4089
16.9354
60.316
102.82
143.211
163.274
245.212
299.684
327.801
309.306
364.583
426.104
501.324
576.549
768.819
1088.56
1549.84
1675.35
4.26659
41.8328
59.5653
98.0308
118.115
145.252
161.786
177.526
185.011
187.299
180.505
164.84
138.882
106.268
66.9613
22.8513
-20.9685
-62.8425
-102.394
-140.787
-180.395
-224.77
-278.128
-345.154
-431.185
-544.337
-691.587
-869.835
-1087.68
-1396.69
-1678.19
-1670.36
-1254.85
-372.467
670.543
-1063.38
-1131.6
-663.89
-517.494
-202.79
192.295
408.046
629.08
792.501
924.637
1061.4
1093.58
1039.73
960.134
903.526
909.749
913.14
899.704
867.942
952.409
996.781
869.525
593.951
291.47
68.5177
-43.7231
-41.5804
12.2923
63.3602
110.8
156.433
180.118
269.448
324.101
349.072
326.559
391.492
461.569
545.309
629.91
842.791
1197.65
1692.31
1935.42
5.30708
44.799
64.3412
104.986
126.529
154.971
172.082
187.937
194.863
195.518
185.945
166.735
136.644
99.884
57.3368
11.0507
-33.9455
-76.3908
-116.335
-155.148
-195.225
-240.298
-294.794
-363.509
-451.858
-567.973
-719.511
-904.353
-1126.8
-1438.29
-1756.98
-1831.82
-1446.48
-261.276
787.21
-1263.16
-1333.07
-728.007
-565.312
-215.442
214.583
442.482
680.875
855.055
997.447
1146.62
1184.72
1133.19
1051.73
992.316
1003.41
1009.09
997.331
950.121
996.154
1049.76
930.956
647.654
318.134
66.8069
-59.8899
-54.1128
7.87783
66.4565
118.996
169.96
197.327
293.741
347.483
367.866
341.041
417.09
496.818
590.096
685.988
920.832
1310.29
1824.83
2045.12
6.32121
47.7233
69.0535
111.728
134.632
164.213
181.748
197.537
203.658
202.28
189.489
166.44
132.14
91.3603
45.9839
-1.89029
-47.4908
-89.9691
-129.777
-168.49
-208.486
-253.646
-308.586
-378.197
-467.929
-585.809
-740.085
-929.926
-1156.64
-1466.36
-1809.89
-1958.93
-1618.61
-338.521
517.329
-1436.4
-1566.76
-798.754
-614.892
-227.53
238.206
477.986
733.888
918.542
1071.23
1232.69
1277.04
1228.99
1147.06
1086.53
1102.11
1110.61
1102
1047.94
1048.02
1101.52
990.57
702.242
347.983
68.1692
-74.0964
-65.5578
4.00113
69.7704
127.482
183.806
214.861
317.89
369.571
383.749
352.452
441.329
531.949
635.957
745.22
1003.28
1427.79
1984.75
2220.85
7.30862
50.6023
73.6819
118.228
142.379
172.928
190.73
206.269
211.315
207.48
191.041
163.904
125.441
80.9343
33.2739
-15.5296
-61.134
-103.093
-142.221
-180.283
-219.618
-264.233
-318.898
-388.602
-478.806
-597.344
-752.952
-946.261
-1177.4
-1483.62
-1841.02
-2051.3
-1785.63
-657.717
-206.216
-1638.3
-1849.87
-877.382
-666.133
-238.846
263.328
514.729
788.105
982.942
1145.99
1319.53
1370.43
1326.89
1245.7
1185.76
1204.7
1216.73
1212.29
1158.35
1115.87
1156.73
1050.12
758.677
382.256
73.9912
-85.0509
-75.49
0.689867
73.3712
136.292
197.941
232.622
341.634
390.05
396.316
360.556
464.247
567.125
683.164
807.933
1090.25
1549
2125.66
2458.79
8.26981
53.4313
78.2039
124.451
149.728
181.062
198.973
214.074
217.748
211.027
190.534
159.124
116.69
68.9354
19.6594
-29.3644
-74.36
-115.241
-153.138
-189.987
-228.069
-271.504
-325.155
-394.139
-483.937
-602.124
-757.799
-953.261
-1189.04
-1492.19
-1856.08
-2114.57
-1948.48
-1146.15
-1172.01
-1912
-2207.42
-964.865
-719.163
-248.995
290.027
552.865
843.55
1048.25
1221.73
1407.04
1464.69
1426.61
1347.28
1289.09
1309.81
1326.44
1326.62
1278.01
1206.66
1221.18
1112.88
818.714
422.678
86.0755
-91.38
-83.2671
-1.75161
77.4505
145.494
212.306
250.456
364.675
408.562
405.263
365.239
486.008
602.571
731.959
874.323
1181.89
1673.72
2258.76
2615.07
9.20468
56.2047
82.5949
130.36
156.629
188.56
206.421
220.887
222.872
212.848
187.94
152.155
106.107
55.7791
5.65351
-42.8615
-86.6464
-125.905
-162.04
-197.124
-233.378
-275.041
-326.951
-394.395
-482.922
-599.846
-754.466
-950.922
-1191.22
-1493.44
-1860.41
-2156.97
-2100.42
-1682.05
-2010.06
-2192.73
-2628.09
-1064
-773.945
-257.469
318.342
592.463
900.357
1114.44
1298.45
1495.16
1559.58
1527.77
1451.27
1395.25
1415.93
1438.71
1443.73
1404.08
1320.76
1299.22
1181.95
884.089
471.155
106.635
-91.4746
-87.83
-2.77772
82.2304
155.176
226.826
268.185
386.711
424.742
410.474
366.577
506.918
638.573
782.545
944.422
1277.92
1801.87
2420.04
2835.91
10.1124
58.9155
86.8288
135.914
163.035
195.362
213.017
226.643
226.613
212.904
183.278
143.112
93.9826
41.944
-8.20741
-55.4993
-97.509
-134.639
-168.532
-201.351
-235.245
-274.609
-324.138
-389.256
-475.662
-590.478
-743.1
-939.459
-1183.67
-1487.84
-1857.58
-2186.11
-2234.91
-2172.32
-2504.28
-2369.05
-3032.23
-1174.59
-829.882
-263.691
348.297
633.627
958.627
1181.48
1376.15
1583.78
1654.8
1629.93
1556.95
1503.09
1521.65
1552.37
1562.95
1534.82
1450.17
1393.26
1259.32
955.59
528.556
137.717
-83.4197
-87.6564
-1.52976
88.0782
165.429
241.425
285.646
407.479
438.278
412.115
364.896
527.407
675.438
835.051
1018.07
1377.7
1931.96
2570.93
3085.79
10.9911
61.5539
90.878
141.07
168.893
201.409
218.708
231.277
228.911
211.207
176.636
132.19
80.688
27.9386
-21.4056
-66.8135
-106.545
-141.097
-172.341
-202.47
-233.56
-270.156
-316.805
-378.917
-462.407
-574.32
-724.176
-919.476
-1166.72
-1475.29
-1849.46
-2207.4
-2351.78
-2579.9
-2716.59
-2460.79
-3363.07
-1293.84
-886.469
-267.061
379.912
676.545
1018.38
1249.38
1454.83
1672.76
1750.06
1732.57
1663.41
1611.56
1625.91
1666.17
1683.97
1668.52
1586.56
1505.34
1347.83
1033.92
594.562
180.386
-65.1879
-80.9141
3.10746
95.4923
176.341
256.009
302.686
426.802
448.978
410.699
360.81
547.985
713.446
889.509
1094.89
1480.44
2063.24
2723.4
3245.44
11.8375
64.1081
94.7122
145.782
174.152
206.641
223.439
234.726
229.722
207.805
168.193
119.703
66.6803
14.2769
-33.4778
-76.4332
-113.46
-145.061
-173.307
-200.398
-228.333
-261.758
-305.152
-363.747
-443.652
-551.941
-698.388
-891.87
-1141.26
-1455.69
-1836.99
-2224.15
-2455.74
-2908.36
-2841.46
-2635.79
-3646.32
-1421.45
-944.045
-267.085
413.217
721.419
1079.59
1318.14
1534.41
1761.93
1845.08
1835.18
1769.54
1719.12
1728.14
1778.84
1806.44
1803.58
1726.71
1634.51
1451.55
1122.23
669.902
235.338
-34.5166
-65.7706
12.3898
105.008
187.994
270.42
319.167
444.641
456.832
407.13
355.212
569.162
752.796
945.806
1174.26
1585.05
2194.11
2875.89
3500.48
12.6476
66.5635
98.2974
150.006
178.761
211
227.16
236.936
229.027
202.75
158.16
106.087
52.4831
1.44917
-44.0417
-84.1006
-118.079
-146.437
-171.383
-195.152
-219.639
-249.547
-289.377
-344.118
-419.964
-524.073
-666.548
-857.616
-1108.4
-1429.26
-1820.74
-2237.96
-2552.01
-3177.53
-3019.28
-3020.31
-3930.35
-1560.33
-1003.4
-263.479
448.276
768.43
1142.23
1387.73
1614.79
1851.14
1939.55
1937.12
1874.08
1824.1
1828.27
1889.4
1929.76
1938.97
1869.18
1773.64
1571.63
1225.56
757.965
304.575
11.2541
-40.3455
27.5485
117.203
200.432
284.452
334.99
461.124
462.02
402.675
349.202
591.377
793.568
1003.66
1255.37
1690.42
2323.18
3010.67
3663.72
13.4171
68.9028
101.597
153.696
182.666
214.43
229.827
237.88
226.858
196.126
146.757
91.8352
38.6781
-10.1092
-52.8153
-89.6769
-120.351
-145.256
-166.651
-186.859
-207.631
-233.717
-269.672
-320.313
-391.816
-491.455
-629.592
-817.736
-1069.13
-1396.5
-1800.88
-2249.07
-2644.9
-3407.56
-3294.94
-3617.35
-4250.95
-1716.28
-1064.76
-256.208
485.222
817.736
1206.22
1458.33
1695.85
1940.26
2033.16
2037.79
1975.78
1925.17
1926.57
1997.57
2053.07
2073.99
2012.3
1914.65
1703.48
1345.34
862.208
390.254
73.8424
-2.77788
49.5442
132.485
213.669
297.947
350.137
476.566
464.83
398.886
343.961
614.911
835.681
1062.59
1337.14
1795.15
2449.8
3175.7
3847.87
14.1416
71.1059
104.572
156.811
185.817
216.881
231.402
237.562
223.318
188.1
134.182
77.445
25.8233
-20.0418
-59.6273
-93.1273
-120.351
-141.661
-159.298
-175.745
-192.558
-214.554
-246.303
-292.597
-359.557
-454.634
-588.425
-773.379
-1024.6
-1358.02
-1777.22
-2257.21
-2736.92
-3612.86
-3663.84
-4365.53
-4638.73
-1895.53
-1126.93
-245.422
524.281
869.461
1271.49
1530.17
1777.53
2029.27
2125.66
2136.64
2073.5
2021.36
2023.51
2103.65
2175.4
2208.4
2155.22
2054.26
1840.31
1476.87
981.715
491.919
152.15
47.061
78.676
150.933
227.773
310.903
364.71
491.45
465.481
397.453
340.568
639.833
878.856
1121.95
1418.4
1897.63
2572.06
3318.89
4074.49
14.8162
73.1511
107.184
159.312
188.164
218.312
231.854
236.031
218.569
178.893
120.545
63.3597
14.336
-28.1212
-64.4263
-94.4946
-118.217
-135.865
-149.567
-162.075
-174.74
-192.411
-219.647
-261.317
-323.547
-414.003
-543.652
-725.585
-976.166
-1314.71
-1749.65
-2262.47
-2827.97
-3801.98
-4084.98
-5165.96
-5075.83
-2098.39
-1186.9
-231.271
565.791
923.683
1337.95
1603.29
1859.76
2118.07
2216.8
2233.22
2166.31
2112.17
2118.9
2208.3
2296.15
2342.18
2297.79
2193.1
1976.93
1612.97
1111.21
605.956
242.735
107.013
114.392
172.554
243.074
323.57
378.914
506.375
463.881
399.834
339.806
665.967
922.616
1180.93
1497.87
1996.67
2688.55
3445.74
4245.01
15.4357
75.0156
109.393
161.166
189.666
218.691
231.149
233.37
212.818
168.596
106.159
50.0503
4.46917
-34.2835
-67.2874
-93.8954
-114.072
-128.042
-137.707
-146.101
-154.486
-167.662
-190.146
-226.922
-284.222
-369.967
-495.633
-674.917
-925.01
-1267.99
-1718.52
-2264.96
-2916
-3978.19
-4519.64
-5915.7
-5518.29
-2318.45
-1240.26
-213.717
610.19
980.433
1405.52
1677.63
1942.41
2206.52
2306.38
2327.21
2253.67
2197.65
2211.5
2312.33
2415.54
2475.02
2439.19
2331.81
2110.56
1748.46
1244.73
727.561
341.828
174.35
155.618
197.261
259.959
336.424
393.06
521.773
459.553
406.242
341.979
692.863
966.307
1238.66
1574.3
2090.97
2798.22
3591.79
4410.45
15.9937
76.6761
111.161
162.347
190.293
218.003
229.276
229.664
206.264
157.103
91.7581
38.0409
-3.61975
-38.5994
-68.3581
-91.4959
-108.044
-118.286
-123.894
-128.048
-132.064
-140.646
-158.235
-189.907
-242.076
-322.984
-444.668
-621.532
-871.635
-1219.03
-1684.51
-2264.48
-2998.47
-4140.19
-4944.69
-6549.98
-5939.85
-2539.52
-1282.45
-192.491
657.963
1039.69
1474.12
1753.11
2025.44
2294.37
2394.24
2418.49
2335.25
2278.4
2301.16
2416.44
2534.07
2606.38
2578.43
2470.01
2242.14
1881.29
1378.27
852.667
446.383
247.113
201.467
225.065
278.808
350.007
407.58
537.16
451.973
415.382
346.924
719.825
1009.16
1294.26
1646.54
2179.23
2899.9
3719.83
4595.86
16.4843
78.1089
112.457
162.834
190.032
216.235
226.271
224.959
198.868
144.527
78.2279
27.7316
-9.89044
-41.2041
-67.7673
-87.4268
-100.273
-106.685
-108.229
-108.095
-107.702
-111.66
-124.317
-150.77
-197.639
-273.554
-391.118
-565.546
-816.011
-1168.13
-1647.94
-2260.6
-3073.03
-4285.39
-5346.77
-7049.31
-6315.98
-2743.62
-1309.27
-167.296
709.568
1101.39
1543.67
1829.63
2108.88
2381.42
2480.31
2507.13
2410.65
2355.43
2389.03
2520.96
2651.95
2735.59
2715.92
2607.43
2374.09
2011.27
1510.32
978.55
554.232
324.19
251.519
256.182
300.072
364.829
422.891
551.569
440.917
425.417
354.219
745.981
1050.34
1346.93
1713.57
2260.47
2992.51
3837.09
4738.25
16.9014
79.2925
113.259
162.614
188.901
213.417
222.209
219.364
190.384
131.426
66.2507
19.2502
-14.3862
-42.2246
-65.6009
-81.7556
-90.8603
-93.3534
-90.8033
-86.3958
-81.6167
-80.9851
-88.7531
-109.979
-151.437
-222.198
-335.446
-507.219
-757.979
-1114.95
-1608.59
-2252.76
-3137.52
-4411.34
-5718.44
-7435.57
-6630.74
-2923.69
-1316.39
-138.136
765.368
1165.4
1614.12
1907.07
2192.6
2467.56
2564.6
2593.33
2479.4
2430.08
2475.66
2625.82
2769.44
2862.63
2852.15
2744.03
2506.91
2138.85
1640.87
1103.93
664.049
404.853
305.581
290.774
324.072
381.277
439.263
563.938
426.188
434.303
363.302
770.363
1089.08
1395.96
1774.46
2333.68
3074.94
3948.15
4869.08
17.2373
80.208
113.561
161.688
186.936
209.729
217.282
213.111
180.762
118.606
56.2087
12.5219
-17.2067
-41.7639
-61.9205
-74.5211
-79.8585
-78.417
-71.757
-63.1312
-54.05
-48.9135
-51.8793
-67.9308
-103.939
-169.401
-278.11
-446.897
-697.506
-1058.97
-1565.8
-2240.15
-3189.92
-4516.67
-6056.19
-7738.05
-6880.66
-3077.21
-1301.13
-105.33
825.561
1231.59
1685.4
1985.37
2276.45
2552.67
2647.19
2677.19
2541.17
2503.65
2561.62
2731.17
2887.16
2988.46
2986.25
2879.87
2639.78
2264.67
1770.16
1228.68
775.12
488.609
363.617
328.979
350.992
399.603
456.901
573.163
407.432
439.636
373.475
791.991
1124.7
1440.7
1828.45
2398.17
3146.58
4030.37
4994.79
17.4831
80.84
113.371
160.078
184.143
205.38
211.755
206.302
170.266
106.751
48.1276
7.49639
-18.4499
-39.8971
-56.7696
-65.7611
-67.3161
-61.9874
-51.2715
-38.5295
-25.2767
-15.753
-14.007
-24.9391
-55.5044
-115.556
-219.473
-384.854
-634.657
-999.734
-1518.65
-2221.8
-3228.87
-4602.83
-6358.78
-7957.33
-7051.94
-3198.49
-1265.56
-68.5784
890.119
1299.81
1757.45
2064.39
2360.29
2636.64
2728.12
2758.57
2596.16
2576.42
2648.08
2837.39
3005.44
3113.79
3117.4
3014.81
2771.59
2389.37
1898.12
1353.05
887.083
575.3
425.582
370.829
380.86
419.949
475.972
578.895
384.293
438.646
383.922
809.954
1156.63
1480.67
1874.99
2453.44
3206.24
4117.87
5078.4
17.6291
81.1786
112.718
157.849
180.549
200.419
205.805
198.782
159.367
96.3025
41.7408
4.12362
-18.2175
-36.6605
-50.1825
-55.5292
-53.3192
-44.1912
-29.5768
-12.8685
4.40136
18.1869
24.5845
18.7515
-6.3582
-60.9084
-159.774
-321.247
-569.422
-936.958
-1466.44
-2196.71
-3253.43
-4672.03
-6617.85
-8079.83
-7125.29
-3283.79
-1213.51
-26.0853
958.778
1369.91
1830.17
2143.97
2443.95
2719.24
2807.56
2836.99
2645.45
2647.85
2736.45
2944.76
3124.1
3238.43
3245.55
3148.67
2901.61
2513.49
2024.66
1477.17
999.712
664.881
491.343
416.306
413.599
442.352
496.549
581.558
356.246
428.547
393.762
823.45
1184.37
1515.64
1913.84
2499.08
3254.16
4182.36
5145.28
17.6633
81.2198
111.639
155.105
176.318
194.885
199.534
190.505
148.676
87.5234
36.7677
2.39794
-16.6171
-32.1022
-42.2184
-43.92
-38.0194
-25.2415
-6.97617
13.5193
34.6595
52.6214
63.6687
62.9814
43.3979
-5.54234
-99.1161
-256.14
-501.752
-870.408
-1408.81
-2164
-3262.39
-4724.17
-6821.27
-8103.7
-7095.84
-3335.71
-1146.56
24.3163
1031.12
1441.82
1903.5
2223.96
2527.17
2800.21
2885.7
2911.57
2691.34
2717.97
2827.98
3053.68
3243.09
3362.1
3371.17
3281.11
3030.18
2637.38
2149.92
1601.02
1112.83
757.225
560.741
465.373
449.114
466.842
518.629
581.782
322.941
406.879
402.064
831.721
1207.58
1545.67
1945.01
2535.26
3290.2
4225.15
5202.47
17.5727
80.9654
110.172
151.929
171.675
188.938
192.928
181.681
138.773
80.4816
33.0689
2.2493
-13.7074
-26.2947
-32.9983
-31.1156
-21.6676
-5.45749
16.1685
40.2702
65.1831
87.3233
103.102
107.687
93.7609
50.5791
-37.4578
-189.503
-431.584
-799.88
-1345.48
-2122.93
-3254.85
-4757.95
-6958.91
-8035.32
-6977.74
-3356.81
-1064.11
84.9589
1106.78
1515.47
1977.3
2304.22
2609.8
2879.24
2962.61
2980.78
2737.28
2788.18
2923.52
3164.51
3362.42
3485.09
3495.21
3411.41
3158.27
2761.3
2274.12
1724.51
1226.28
852.098
633.594
517.832
487.244
493.406
541.927
579.548
284.272
371.155
407.679
834.001
1226.22
1571.08
1968.82
2562.43
3314.61
4262.62
5213.52
17.3442
80.4288
108.362
148.369
166.787
182.805
185.963
172.657
130.02
75.104
30.7137
3.52279
-9.60934
-19.354
-22.724
-17.4118
-4.63472
14.7493
39.4873
67.0599
95.7363
122.164
142.843
152.892
144.808
107.57
25.3362
-121.215
-358.794
-725.234
-1276.23
-2072.84
-3230.48
-4772.32
-7026.59
-7883.27
-6786.84
-3345.19
-965.866
158.535
1185.55
1590.87
2051.49
2384.57
2691.64
2956.07
3038.08
3041.91
2786.98
2861.09
3023.96
3277.68
3482.02
3608.75
3619.19
3538.12
3286.21
2885.33
2397.5
1847.51
1339.98
949.177
709.633
573.402
527.884
522.091
565.513
574.064
239.873
317.986
408.897
829.655
1240.53
1592.43
1985.83
2581.19
3328.72
4283.01
5204.59
16.9654
79.632
106.272
144.506
161.768
176.645
178.743
163.94
122.623
71.2508
29.732
6.1188
-4.47939
-11.4739
-11.6788
-3.19655
12.6313
34.9432
62.6576
93.6793
126.226
157.143
182.944
198.687
196.663
165.581
89.4353
-51.1005
-283.209
-646.383
-1200.99
-2013.32
-3189.53
-4766.15
-7029.16
-7666.31
-6536.02
-3299.29
-853.823
246.592
1267.35
1668.05
2125.96
2464.81
2772.42
3030.51
3111.49
3090.87
2842.84
2940.18
3129.9
3393.64
3602.59
3735.34
3744.34
3659.51
3413.01
3009.31
2520.33
1969.89
1453.81
1048.06
788.513
631.919
571.02
552.972
587.92
564.254
189.066
242.659
403.171
818.356
1250.93
1610.4
1996.71
2592.35
3333.41
4290.06
5194.31
16.4285
78.6046
103.962
140.453
156.707
170.528
171.431
155.892
116.596
68.7847
30.0578
9.83226
1.50272
-2.91984
-0.222982
11.1026
29.7006
54.7854
85.4925
120.095
156.725
192.372
223.525
245.19
249.456
224.763
155.004
21.0088
-204.688
-563.314
-1119.78
-1944.27
-3132.61
-4738.02
-6973.46
-7409.14
-6242.81
-3220.68
-731.6
350.225
1352.72
1747.19
2200.63
2544.79
2852.02
3102.33
3181.92
3122.84
2905.31
3028.47
3241.43
3511.97
3725.73
3864.83
3869.04
3776.02
3537.63
3132.89
2642.73
2091.51
1567.59
1148.3
869.846
693.244
616.672
585.989
607.703
549.035
130.386
139.912
387.199
800.083
1257.97
1625.67
2002.01
2596.46
3329.54
4290.28
5137.91
15.7328
77.3819
101.468
136.298
151.669
164.483
164.289
148.709
111.791
67.539
31.6542
14.4202
8.05901
5.97031
11.2365
25.0863
46.2697
74.1428
108.023
146.467
187.439
228.035
264.724
292.51
303.29
285.237
222.172
95.2331
-123.183
-476.149
-1032.88
-1866.06
-3060.66
-4685.99
-6861.88
-7124.87
-5924.87
-3111.82
-602.601
467.612
1442.28
1828.6
2275.5
2624.35
2930.36
3171.27
3247.76
3134.07
2975.02
3126.98
3358.3
3632.57
3852.02
3993.29
3990.82
3893.06
3660.17
3255.83
2764.65
2212.18
1681.06
1249.42
953.215
757.141
664.818
620.906
624.072
527.565
61.9466
5.46063
357.381
775.057
1262.24
1638.81
2002
2593.67
3317.85
4278.96
5106.04
14.892
76.0176
98.8658
132.138
146.73
158.574
157.578
142.483
108.044
67.2836
34.3302
19.6483
14.8751
14.8027
22.3186
38.4839
62.2559
93.1321
130.493
173.084
218.63
264.319
306.656
340.715
358.222
347.066
291.011
171.611
-38.7735
-385.182
-940.808
-1779.47
-2974.89
-4608.08
-6696.27
-6816.95
-5593.33
-2975.2
-468.777
590.1
1534.93
1912.55
2350.69
2703.24
3007.19
3237.16
3306.53
3125.31
3054.43
3235.09
3479.79
3756.8
3979.26
4117.41
4110.53
4016.03
3781.07
3378.04
2886.04
2331.67
1793.83
1350.91
1038.15
823.271
715.325
657.336
637.425
499.472
-17.7978
-162.453
310.494
743.695
1264.21
1650.17
1996.55
2583.56
3297.39
4262.72
5049.28
13.9287
74.5521
96.2428
128.073
141.957
152.903
151.44
137.096
105.145
67.7309
37.7499
25.1349
21.5971
23.2316
32.7878
51.264
77.8365
112.069
153.263
200.259
250.524
301.352
349.376
389.821
414.255
410.261
361.518
250.07
48.3022