/*--------------------------------*- C++ -*----------------------------------*\
| =========                 |                                                 |
| \\      /  F ield         | OpenFOAM: The Open Source CFD Toolbox           |
|  \\    /   O peration     | Version:  4.1                                   |
|   \\  /    A nd           | Web:      www.OpenFOAM.org                      |
|    \\/     M anipulation  |                                                 |
\*---------------------------------------------------------------------------*/
FoamFile
{
    version     2.0;
    format      ascii;
    class       surfaceScalarField;
    location    "14";
    object      phi;
}
// * * * * * * * * * * * * * * * * * * * * * * * * * * * * * * * * * * * * * //

dimensions      [0 3 -1 0 0 0 0];

internalField   nonuniform List<scalar> 
13220
(
-910.02
2209.94
-1416.26
1806.46
-1890.01
1773.67
-2253.13
1663.03
-2532.74
1579.83
-2732.33
1499.51
-2854.2
1421.79
-2899.4
1345.41
-2868.01
1268.52
-2758.09
1189.99
-2572.14
1114.25
-2309.11
1036.88
-1927.93
918.739
-1293.45
665.74
6.45202
8.16905
2201.81
-23.4974
1838.17
-143.281
1893.5
-235.537
1755.33
-330.981
1675.31
-411.287
1579.85
-475.993
1486.53
-521.881
1391.33
-549.124
1295.79
-560.949
1201.84
-561.554
1114.87
-544.601
1019.96
-443.797
817.968
-147.83
369.893
-141.367
-107.357
2309.19
-291.45
2022.28
-465.704
2067.77
-564.146
1853.79
-654.212
1765.41
-710.298
1635.96
-742.344
1518.61
-751.51
1400.52
-739.003
1283.31
-707.19
1170.09
-656.264
1063.97
-571.151
935.023
-415.793
662.869
-178.727
133.31
-320.098
50.4153
2258.77
10.1401
2062.55
-0.902
2078.81
26.8586
1826.03
52.41
1739.85
98.4997
1589.88
158.356
1458.75
231.826
1327.06
312.251
1202.9
394.905
1087.43
480.552
978.354
555.05
860.416
538.78
679.026
285.195
386.681
-34.9047
90.9286
2167.81
127.512
2025.94
176.743
2029.55
240.927
1761.81
293.569
1687.17
358.964
1524.44
421.837
1395.84
487.456
1261.4
552.355
1137.97
611.142
1028.6
656.043
933.392
666.59
849.87
587.506
758.063
351.572
622.522
316.663
23.7887
2143.97
40.9849
2008.69
59.0317
2011.45
71.2237
1749.56
78.4627
1679.87
95.4233
1507.41
110.886
1380.3
153.893
1218.31
253.011
1038.76
399.272
882.232
520.224
812.402
554.877
815.045
480.473
832.321
290.44
812.358
607.101
-33.1625
2177.09
-101.548
2077.03
-140.715
2050.57
-202.922
1811.72
-259.803
1736.71
-316.847
1564.41
-371.457
1434.87
-381.683
1228.5
-303.57
960.607
-136.098
714.702
57.3098
618.963
208.686
663.532
254.055
786.829
165.765
900.522
772.867
0.0614057
2177
-164.022
2241.09
-256.241
2142.76
-362.344
1917.8
-469.692
1844.03
-578.498
1673.2
-695.32
1551.68
-806.154
1339.32
-895.158
1049.59
-925.764
745.299
-846.191
539.364
-625.775
443.156
-328.105
489.189
-87.2618
659.715
685.603
127.092
2049.9
-19.5343
2387.71
-106.051
2229.27
-181.983
1993.71
-250.08
1912.12
-325.379
1748.48
-405.914
1632.2
-520.118
1453.51
-687.349
1216.81
-880.488
938.405
-1019.17
678.058
-1010.66
434.518
-775.421
253.831
-343.67
227.809
341.935
227.854
1822.06
193.695
2421.87
161.797
2261.18
154.566
2000.95
174.49
1892.2
187.076
1735.9
209.366
1609.91
198.873
1464
121.349
1294.34
-27.1525
1086.93
-206.5
857.392
-367.996
596.164
-423.811
309.804
-262.904
67.1099
79.0295
232.086
1589.99
274.731
2379.24
285.133
2250.79
307.575
1978.52
354.526
1845.27
397.509
1692.93
446.878
1560.55
484.233
1426.66
492.186
1286.4
451.027
1128.09
360.298
948.151
217.402
739.008
37.8382
489.329
-116.294
221.148
-37.2559
202.473
1387.54
273.056
2308.67
314.224
2209.64
378.82
1913.95
454.598
1769.51
520.408
1627.13
572.25
1508.73
602.674
1396.25
602.195
1286.9
564.754
1165.56
483.658
1029.25
359.739
863.024
219.332
629.861
95.4059
345.523
58.1518
237.554
1150
359.429
2186.81
344.572
2224.51
272.274
1986.26
220.084
1821.71
166.357
1680.87
107.194
1567.9
44.7284
1458.72
-15.5463
1347.18
-62.7487
1212.77
-93.9183
1060.43
-128.454
897.567
-174.787
676.217
-190.603
361.399
-132.45
394.707
755.303
1542.66
1038.86
2601.23
1165.95
3388.63
1198.86
3984.15
1226.19
4448.54
1216.48
4792.44
1224
4906.44
1344.73
4721.09
1532.53
4269.26
1664.6
3658.82
1670.86
2951.67
1604.73
2123.79
1504.1
1198.1
1287.1
1065.65
1159.02
2085.02
2942.82
3618.34
4065.27
4170.25
3926.36
3515.25
2968.19
2427.58
1984.08
1486.14
1038.25
490.75
-0.000425929
2098.05
-2098.05
2098.05
2098.05
2098.05
3449.42
-1351.37
3449.42
3449.42
3449.42
4107.07
-657.654
4107.07
4107.07
4309.71
-202.641
4309.71
4309.71
4309.71
3844.49
465.218
3844.49
3844.49
2942.88
901.609
2942.88
2942.88
2942.88
1625.7
1317.18
1625.7
1625.7
1625.7
-91.749
1717.45
-91.7494
-91.7498
-2128.47
2036.72
-2128.47
-2128.47
-2128.47
-4376.53
2248.05
-4376.53
-4376.53
-6749.92
2373.39
-6749.92
-6749.92
-6749.92
-9255.21
2505.29
-9255.21
-9255.21
-9255.21
-11819.4
2564.22
-11819.4
-11819.4
-14309.8
2490.4
-14309.8
-14309.8
-14309.8
-16562.8
2252.97
-16562.8
-16562.8
-16562.8
-18393.6
1830.78
-18393.6
-18393.6
-19895.6
1502.03
-19895.6
-19895.6
-19895.6
-21060.3
1164.67
-21060.3
-21060.3
-22019.6
959.347
-22019.6
-22019.6
-22019.6
-22927.6
908.017
-22927.6
-22927.6
-22927.6
-24023.5
1095.91
-24023.5
-24023.5
-25343.2
1319.7
-25343.2
-25343.2
-25022.2
-24741.3
-24470.1
-25298.9
1157.76
-25046
-24739.9
-24401.4
-24061.5
-23702.2
-23325.3
-23000.6
-22661.6
-23636.3
1362.46
-23282.6
-22909.5
-22532.4
-22152.9
-21761.8
-21351.8
-20967
-20576.2
-21970.9
1808.86
-21589.7
-21200.8
-20806.8
-20405.1
-20005.2
-19609.9
-19199.9
-18794.9
-18371.9
-20570.3
2631.61
-20190
-19800.1
-19408
-19015.2
-18619.5
-18259.6
-17929.3
-17591.2
-20028.2
2757.45
-19700.7
-19389.3
-19105.3
-18823.6
-18546.8
-18276.2
-18018.9
-17775.3
-19811.8
2253.91
-19599.4
-19403.4
-19216.9
-19050.7
-18895.5
-18747.6
-18608.6
-18461.2
-19681.9
1344.15
-19577
-19483.3
-19388.8
-19291.2
-19190.6
-19128.5
-19073.2
-19023.8
-18962.2
-20126.6
1222.96
-20076.6
-20060.7
-20037.6
-20016.2
-19996
-20012.6
-20092.6
-20198
-20356.2
52.3651
-20379.1
-20452.6
-20452.6
-19862
-590.61
-18711.9
-1150.05
-18711.9
-17422
-1289.99
-17422
-16065.8
-1356.13
-14360.1
-1705.69
-14360.1
-12605.2
-1754.95
-10656.3
-1948.87
-10656.3
-8455.73
-2200.57
-8455.73
-5825.58
-2630.15
-3000.2
-2825.38
-3000.2
388.914
-3389.12
388.914
4152.65
-3763.74
8733.25
-4580.59
8733.25
13490.3
-4757.08
18931.8
-5441.46
18931.8
24527.4
-5595.66
24527.4
30103.7
-5576.21
35991.2
-5887.54
35991.2
41721.5
-5730.3
41721.5
47189.8
-5468.29
52531.3
-5341.49
52531.3
57547.3
-5016.02
62192.4
-4645.12
62192.4
66559.3
-4366.86
66559.3
70568.9
-4009.63
73937.6
-3368.71
73937.6
77075.1
-3137.47
77075.1
79898.9
-2823.84
81841.4
-1942.47
81841.4
83827.4
-1986.04
84750.9
-923.469
84750.9
85547.6
-796.686
85547.6
86164.5
-616.874
85654.9
509.559
85654.9
85259
395.863
85259
84893.8
365.206
83596.4
1297.43
83596.4
82889.5
706.874
81352.8
1536.78
81352.8
80260.7
1092.04
80260.7
79448
812.75
78052.4
1395.6
78052.4
77182.5
869.827
77182.5
76615.4
567.093
75656.5
958.972
75656.5
75317.6
338.902
74627
690.611
74627
74436.9
190.007
74436.9
-157.84
-953.253
-12123.8
-1426.07
-16508.5
-1566.68
-18570.3
-1637.45
-19203.1
-1715.44
-19123
-1854.59
-19326.3
-2048.98
-19646.4
-2301.21
-20281.8
-2604.01
-21024.1
-2969.92
-21797.9
-3413.35
-22456.2
-3963.2
-22926.7
-4656.4
-23140.4
-5523.57
-23027.3
-6560.01
-22511.4
-7706.07
-21677.3
-8864.28
-20766.8
-9947.26
-20064.7
-10911
-19743
-11749.5
-19805.2
-12475.9
-20183.1
-13115.3
-20853.3
-13705.6
-21884
-14288.7
-23402.6
-14900.5
-25566.5
-15573.2
-28608.3
-16343.2
-32922.6
-17206.2
-39041.1
-17890.3
-47108.4
-17337.9
-54996.5
-13355
-54497.3
-5399.27
-31021.5
-375.662
8657.28
-147.08
26662.8
25.1127
30438.8
139.064
37121.8
207.933
45626.1
353.961
53784.5
603.426
60929.5
796.23
62156.7
912.69
59928.7
1036.27
58107.9
1178.51
55881.8
1480.42
59195.4
1917.67
65867
2259.06
66012.8
2250.91
52808.4
1992.22
32796.4
1858.49
18563.1
2009.2
24240.8
2257.84
41629
2466.86
52874.2
2634.8
54772.6
2939.03
56213
3469.25
67406
4035.23
82837.6
4405.23
90504.9
4478.76
84877.2
4311.6
68712.3
4083.79
49073.5
3989.45
30418.7
3904.74
13409.8
3445.3
-722.197
2669.97
-7920.99
2070.06
-7492.05
1829.12
-5924.15
1799.74
-7768.57
1832.83
-14661.1
1778.5
-22931.6
1538.65
-27874.7
1285.01
-29752.8
1226.9
-30565.7
1366.4
-30872.7
1707.42
-30735.1
2081.11
-36498.3
2214.18
-50944.4
1873.21
-65023.7
701.721
-79199.2
-108501
-785.803
-11704.3
-1319.18
-15975.1
-1524.27
-18365.2
-1623.71
-19103.7
-1720.89
-19025.8
-1883.24
-19163.9
-2107.2
-19422.5
-2394.72
-19994.3
-2736.16
-20682.6
-3145.1
-21388.9
-3639.89
-21961.4
-4256.14
-22310.4
-5035.19
-22361.3
-6001.42
-22061.1
-7129.64
-21383.2
-8334.37
-20472.5
-9505.65
-19595.5
-10565.6
-19004.8
-11490.1
-18818.4
-12287.8
-19007.6
-12973.4
-19497.4
-13565.3
-20261.4
-14092.4
-21356.9
-14595.2
-22899.8
-15118.3
-25043.4
-15710.8
-28015.8
-16433.5
-32199.9
-17332.2
-38142.4
-18255.5
-46185.1
-18348.1
-54903.9
-15344.5
-57500.9
-6782.82
-39583.1
-228.446
2102.9
-110.923
26545.3
93.3169
30234.6
162.447
37052.7
208.519
45580
347.329
53645.6
583.092
60693.8
769.628
61970.1
892.561
59805.8
1018.95
57981.5
1166.13
55734.6
1472.71
58888.9
1912.29
65427.4
2257.36
65667.8
2251.98
52813.7
1980.74
33067.6
1817.82
18726
1985.07
24073.5
2262.28
41351.8
2472.51
52663.9
2627.36
54617.8
2921.35
55919
3461.49
66865.8
4043.16
82256
4421.55
90126.5
4494.28
84804.5
4319.98
68886.6
4078.01
49315.4
3942.51
30554.2
3752.74
13599.6
3239.94
-209.394
2516.92
-7197.96
2010.65
-6985.78
1851.34
-5764.84
1852.1
-7769.33
1896.01
-14705
1818.06
-22853.7
1538.28
-27594.9
1293.96
-29508.5
1278.35
-30550
1398.9
-30993.3
1639.75
-30976
1943.36
-36801.9
2110.77
-51111.8
1890.89
-64803.8
637.852
-77946.2
-107674
-714.632
-11298.7
-1248.66
-15441.1
-1490.46
-18123.4
-1610.21
-18983.9
-1722.47
-18913.6
-1902.58
-18983.8
-2147.95
-19177.1
-2458.56
-19683.6
-2824.31
-20316.9
-3260.77
-20952.5
-3791.43
-21430.7
-4457.06
-21644.8
-5298.75
-21519.6
-6329.46
-21030.4
-7504.44
-20208.2
-8723.38
-19253.6
-9878.32
-18440.6
-10906.3
-17976.9
-11796.6
-17928.1
-12562.4
-18241.8
-13217.1
-18842.7
-13775.1
-19703.4
-14262
-20870
-14716.6
-22445.2
-15185.6
-24574.4
-15723.7
-27477.6
-16399.5
-31524.2
-17277.6
-37264.3
-18272.5
-45190.2
-18701
-54475.4
-16626
-59576
-9549.51
-46659.6
-1692.91
-5753.7
-8.71492
24861.1
119.731
30106.2
209.745
36962.6
218.758
45571
341.197
53523.2
563.789
60471.2
742.001
61791.9
866.151
59681.6
995.918
57851.7
1146.89
55583.6
1456.96
58578.8
1900.96
64983.4
2253.29
65315.4
2254.93
52812.1
1974.46
33348.1
1795.5
18905
1963.01
23906
2259.64
41055.2
2475.23
52448.3
2618.7
54474.3
2902.24
55635.4
3450.55
66317.5
4049.83
81656.7
4440.47
89735.9
4515.08
84729.9
4334.23
69067.5
4081.01
49568.6
3910.25
30725
3731.58
13778.3
3284.63
237.552
2597.44
-6510.77
2099.23
-6487.57
1926.81
-5592.41
1904.13
-7746.66
1928.11
-14728.9
1808.53
-22734.1
1492.96
-27279.3
1244.73
-29260.3
1241.29
-30546.6
1356.11
-31108.1
1572.35
-31192.2
1875.9
-37105.5
2065.42
-51301.3
1897.48
-64635.9
702.908
-76751.6
-106280
-632.723
-10907.2
-1168.39
-14905.5
-1448.98
-17842.8
-1592.49
-18840.4
-1722.72
-18783.3
-1924.44
-18782.1
-2195.32
-18906.2
-2533.07
-19345.9
-2927.53
-19922.4
-3397.47
-20482.5
-3972.5
-20855.7
-4698.36
-20918.9
-5613.89
-20604.1
-6717.36
-19926.9
-7942.15
-18983.4
-9174.03
-18021.7
-10309.4
-17305.2
-11301
-16985.3
-12151.4
-17077.6
-12879
-17514.2
-13496.9
-18224.8
-14016.1
-19184.2
-14457.6
-20428.4
-14857.2
-22045.7
-15262.2
-24169.3
-15732.9
-27006.9
-16347.9
-30909.2
-17194.8
-36417.4
-18257.9
-44127.1
-19013.1
-53720.2
-17749.6
-60839.4
-11736.1
-52673.1
-2845.23
-14644.6
271.006
21744.8
171.859
30205.3
267.507
36867
230.859
45607.7
332.402
53421.7
540.268
60263.3
709.739
61622.5
835.162
59556.2
968
57718.9
1123.19
55428.4
1436.13
58265.8
1884.1
64535.4
2245.29
64954.2
2260.74
52796.6
1983.96
33624.9
1793.15
19095.8
1949.37
23749.8
2253.86
40750.7
2475.13
52227.1
2609.61
54339.8
2883.32
55361.7
3438.43
65762.4
4054.21
81040.9
4458.48
89331.6
4538.16
84650.2
4354.64
69251
4094.71
49828.6
3907.68
30912
3734.94
13951
3314.6
657.888
2650.08
-5846.25
2171.98
-6009.47
1996.47
-5416.9
1959.2
-7709.39
1965.05
-14734.8
1792.76
-22561.8
1440.85
-26927.4
1205.75
-29025.2
1217.36
-30558.2
1314.82
-31205.6
1508.61
-31386
1820.84
-37417.7
2034.29
-51514.7
1918.89
-64520.5
747.384
-75580.1
-105194
-567.867
-10540.2
-1090.15
-14383.2
-1403.74
-17529.2
-1572.04
-18672.1
-1722.09
-18633.3
-1947.68
-18556.5
-2245.7
-18608.2
-2611.03
-18980.6
-3034.56
-19498.9
-3539.72
-19977.4
-4163.28
-20232.1
-4954.99
-20127.2
-5947.81
-19611.3
-7120.79
-18753.9
-8384.3
-17719.9
-9614.55
-16791.5
-10718
-16201.8
-11665.2
-16038.1
-12470.5
-16272.4
-13155.5
-16829.3
-13732.8
-17647.5
-14211.3
-18705.7
-14608.1
-20031.6
-14954.7
-21699
-15296.5
-23827.6
-15695.2
-26608.3
-16235.5
-30368.9
-17022.7
-35630.2
-18104.1
-43045.7
-19114.1
-52710.1
-18574
-61379.6
-13531.8
-57715.3
-3728.61
-24447.8
773.478
17242.7
290.299
30688.5
331.413
36825.9
244.632
45694.5
319.63
53346.7
510.624
60072.3
670.464
61462.6
797.596
59429.1
934.265
57582.2
1094.44
55268.3
1410.33
57950
1862.31
64083.4
2234.02
64582.5
2267.65
52763
2003.55
33889
1803
19296.3
1941.97
23610.8
2247.28
40445.4
2473.84
52000.5
2600
54213.7
2864.07
55097.6
3425.93
65200.5
4059.01
80407.8
4478.35
88912.3
4564.8
84563.7
4380.19
69435.6
4112.2
50096.6
3918.1
31106.1
3744.45
14124.7
3333.94
1068.4
2702.85
-5215.16
2254.98
-5561.61
2075.37
-5237.3
2019.39
-7653.41
1996.75
-14712.2
1756.3
-22321.3
1363.99
-26535.1
1148.69
-28809.9
1179.23
-30588.7
1264.72
-31291.1
1456.04
-31577.3
1794.36
-37756
2026.87
-51747.3
1949.53
-64443.2
787.017
-74417.6
-103448
-513.776
-10200.9
-1014.86
-13882.1
-1355.64
-17188.4
-1549.58
-18478.2
-1721.65
-18461.2
-1973.76
-18304.4
-2300.9
-18281.1
-2694.76
-18586.7
-3148.77
-19044.9
-3692.64
-19433.5
-4370.89
-19553.9
-5235.44
-19262.7
-6308.89
-18537.8
-7546.97
-17515.9
-8837.7
-16429.1
-10053.3
-15575.8
-11115.2
-15139.9
-12011.8
-15141.5
-12766.7
-15517.5
-13403.7
-16192.2
-13935.4
-17115.8
-14369.4
-18271.7
-14719.6
-19681.3
-15012.9
-21405.8
-15290.4
-23550.1
-15612.6
-26286.1
-16066.7
-29914.7
-16771.4
-34925.5
-17828.3
-41988.8
-19023.5
-51514.9
-19114.2
-61288.9
-15088.8
-61740.7
-4666.33
-34870.3
1330.92
11245.5
442.052
31577.3
390.492
36877.4
260.001
45824.9
302.528
53304.1
474.708
59900.1
624.086
61313.2
753.024
59300.1
894.277
57441
1060.12
55102.4
1379.23
57630.8
1835.9
63626.8
2220.09
64198.3
2275.37
52707.7
2029.84
34134.5
1822.1
19504.1
1938.78
23494.1
2239.66
40144.5
2471.05
51769.1
2590.75
54094
2845.61
54842.8
3413.12
64633
4064.78
79756.2
4500.94
88476.1
4595.49
84469.2
4410.9
69620.2
4132.18
50375.3
3933.68
31304.6
3765.84
14292.5
3363.84
1470.4
2756.43
-4607.75
2330.95
-5136.13
2151.14
-5057.49
2082.52
-7584.78
2024.62
-14654.3
1704.94
-22001.6
1275.35
-26105.5
1085.26
-28619.8
1132.72
-30636.2
1212.61
-31371
1421.06
-31785.8
1798.7
-38133.7
2046.33
-51994.9
1995.54
-64392.4
914.807
-73336.9
-101966
-471.189
-9890.72
-944.704
-13408.6
-1306.23
-16826.9
-1526.17
-18258.2
-1722.57
-18264.8
-2003.76
-18023.2
-2361.66
-17923.2
-2784.66
-18163.7
-3270.66
-18558.9
-3857.29
-18846.9
-4596.89
-18814.3
-5540.65
-18318.9
-6695.47
-17383
-7990.28
-16221
-9293.43
-15126
-10480.1
-14389.2
-11490.6
-14129.3
-12330.1
-14302.1
-13029.1
-14818.5
-13612.4
-15608.9
-14092.5
-16635.7
-14476.9
-17887.4
-14776.8
-19381.4
-15014.6
-21168
-15226.2
-23338.4
-15468.1
-26044.2
-15826.5
-29556.4
-16426.8
-34325.2
-17413
-41002.7
-18715.3
-50212.6
-19337.1
-60667.2
-16457.2
-64620.6
-6610.27
-44717.2
1261.82
3373.4
586.134
32253
444.367
37019.2
276.345
45993
281.058
53299.4
432.579
59748.6
570.923
61174.9
701.765
59169.3
848.123
57294.6
1020.23
54930.3
1342.8
57308.3
1804.73
63164.8
2203.24
63799.8
2283.61
52627.4
2061.82
34356.3
1849.56
19716.3
1939.75
23403.9
2231.06
39853.2
2466.34
51533.8
2582.4
53977.9
2828.81
54596.4
3399.79
64062.1
4070.94
79085
4525.96
88021.1
4630.48
84364.7
4447.47
69803.2
4157.66
50665.1
3954.91
31507.3
3792.63
14454.8
3400.49
1862.54
2820.47
-4027.74
2415.36
-4731.02
2232.61
-4874.73
2150.62
-7502.79
2047.6
-14551.2
1638.63
-21592.7
1176.79
-25643.7
1015.26
-28458.3
1077.9
-30698.8
1162.89
-31455.9
1408.42
-32031.3
1836.48
-38561.7
2095.6
-52254
2052.22
-64349
893.794
-72178.4
-100202
-438.728
-9608.38
-881.26
-12966
-1257.14
-16451
-1502.97
-18012.4
-1726.12
-18041.7
-2038.83
-17710.5
-2428.79
-17533.2
-2881.46
-17711
-3401.42
-18038.9
-4035.77
-18212.5
-4844.02
-18006
-5872.43
-17290.5
-7106.21
-16149.2
-8445.4
-14881.9
-9743.81
-13827.6
-10887
-13245.9
-11837.3
-13179.1
-12613.9
-13525.4
-13251.8
-14180.7
-13775.4
-15085.3
-14197.3
-16213.8
-14524.9
-17559.8
-14768.1
-19138.2
-14944.9
-20991.2
-15086.3
-23197
-15243.5
-25887
-15498.8
-29301
-15978.6
-33845.4
-16852
-40129.3
-18181.6
-48883
-19245.4
-59603.3
-17598.8
-66267.2
-9934.71
-52381.3
-627.013
-5934.29
901.275
30724.7
529.444
37391
293.605
46228.8
254.935
53338.1
383.782
59619.8
510.639
61048
643.651
59036.3
795.687
57142.6
974.736
54751.3
1300.99
56982
1768.58
62697.2
2182.96
63385.5
2291.52
52518.8
2098.04
34549.8
1883.24
19931.1
1944.33
23342.8
2222.06
39575.4
2459.8
51296.1
2576.23
53861.5
2814.8
54357.8
3386.04
63490.8
4077.25
78393.8
4553.49
87544.8
4670.29
84247.9
4490.17
69983.3
4192.4
50962.9
3986.62
31713.1
3826.78
14614.6
3442.7
2246.61
2887.96
-3472.99
2500.5
-4343.57
2317.17
-4691.4
2223.86
-7409.48
2066.01
-14393.4
1560.7
-21087.4
1072.98
-25155.9
938.969
-28324.2
1012.95
-30772.8
1116.99
-31560
1421.53
-32335.8
1910.74
-39051
2178.88
-52522.1
2134.75
-64304.9
1056.84
-71100.5
-97749.8
-415.174
-9351.41
-825.539
-12555.7
-1209.95
-16066.6
-1481.22
-17741.1
-1733.64
-17789.3
-2080.08
-17364
-2502.99
-17110.3
-2985.78
-17228.2
-3542.24
-17482.5
-4230.2
-17524.6
-5114.61
-17121.6
-6231.26
-16173.9
-7537.45
-14843
-8904.42
-13514.9
-10178.9
-12553
-11264.6
-12160.3
-12146.5
-12297.2
-12855.2
-12816.7
-13426.7
-13609.2
-13884.5
-14627.5
-14240.9
-15857.4
-14503.5
-17297.1
-14680.9
-18960.9
-14787.8
-20884.3
-14850.6
-23134.2
-14915.8
-25821.9
-15061.2
-29155.6
-15409.3
-33497.2
-16136.4
-39402.1
-17408.4
-47611
-18800.3
-58211.5
-18230.3
-66837.2
-12120.9
-58490.7
-1985.89
-16069.3
1454.33
27284.5
707.4
38138
310.942
46625.3
223.335
53425.7
327.546
59515.6
442.553
60933
578.144
58900.7
736.629
56984.1
923.393
54564.5
1253.65
56651.8
1727.26
62223.6
2158.84
62953.9
2298.21
52379.4
2136.52
34711.5
1920.42
20147.2
1950.98
23312.3
2212.67
39313.7
2451.64
51057.1
2574.82
53738.3
2805.7
54126.9
3372.55
62924
4083.78
77682.6
4583.78
87044.8
4715.46
84116.2
4539.18
70159.6
4237.65
51264.4
4029.08
31921.7
3868.17
14775.6
3494.24
2620.55
2964.71
-2943.46
2591.9
-3970.76
2408.1
-4507.6
2303.21
-7304.58
2080.52
-14170.7
1474.74
-20481.6
966.542
-24647.7
855.523
-28213.2
938.265
-30855.6
1078.57
-31700.3
1464.47
-32721.7
2023.94
-39610.4
2297.82
-52796
2240.6
-64247.6
1244.27
-70104.2
-95692.8
-399.197
-9116.49
-778.082
-12176.8
-1166.14
-15678.5
-1462.21
-17445.1
-1746.42
-17505.1
-2128.49
-16982
-2584.76
-16654
-3098.22
-16714.8
-3694.47
-16886.2
-4442.79
-16776.2
-5410.55
-16153.8
-6616.1
-14968.3
-7983.23
-13475.9
-9357.24
-12140.9
-10587.5
-11322.8
-11602.3
-11145.5
-12408.6
-11490.9
-13044.5
-12180.9
-13544.7
-13108.9
-13930.8
-14241.3
-14214.4
-15573.8
-14403.1
-17108.4
-14504.3
-18859.7
-14529.8
-20858.7
-14502.4
-23161.7
-14464.2
-25860
-14489.9
-29129.9
-14698.1
-33289.1
-15257.6
-38842.6
-16395.1
-46473.5
-17977.3
-56629.3
-18322.9
-66491.6
-13594
-63219.6
-2869.14
-26794.2
2235.55
22179.8
1024.48
39349
324.133
47325.6
184.917
53564.9
263.086
59437.4
366.025
60830.1
504.717
58762
670.614
56818.2
865.926
54369.2
1200.58
56317.1
1680.59
61743.6
2130.57
62503.9
2302.94
52207
2175.32
34839.1
1958.7
20363.9
1957.96
23313
2202.32
39069.4
2442
50817.4
2577.63
53602.7
2799.85
53904.7
3359.65
62364.2
4090.58
76951.7
4616.96
86518.5
4766.52
83966.6
4595.06
70331.1
4292.26
51567.2
4081.36
32132.6
3917.09
14939.8
3551.47
2986.17
3044.67
-2436.66
2686.38
-3612.46
2505.6
-4326.83
2389.24
-7188.22
2092.71
-13874.2
1385.06
-19773.9
858.778
-24121.5
763.343
-28117.8
856.852
-30949.1
1054.88
-31898.3
1543.05
-33209.9
2178.85
-40246.2
2455.95
-53073.1
2367.26
-64159
1287.11
-69024
-93313.6
-389.496
-8900.07
-738.987
-11827.3
-1126.97
-15290.6
-1447.15
-17124.9
-1765.67
-17186.5
-2184.86
-16562.8
-2674.44
-16164.5
-3219.38
-16169.8
-3859.61
-16246
-4675.72
-15960.1
-5732.85
-15096.7
-7023.81
-13677.4
-8434.8
-12064.9
-9791.52
-10784.2
-10957
-10157.3
-11888.6
-10213.9
-12612.7
-10766.8
-13170.8
-11622.8
-13594.7
-12685.1
-13903.2
-13932.8
-14107
-15370
-14213.4
-17002
-14228.5
-18844.6
-14161.4
-20925.9
-14030.8
-23292.2
-13875.7
-26015.2
-13768.4
-29237.2
-13826.4
-33231.2
-14207.9
-38461.1
-15156.4
-45524.9
-16783.1
-55002.6
-17864
-65410.7
-14534
-66549.6
-3588.69
-37739.4
3182.27
15408.9
1429.22
41102.1
325.225
48429.6
137.668
53752.5
189.673
59385.4
280.483
60739.3
422.895
58619.6
597.361
56643.7
802.109
54164.4
1141.59
55977.6
1628.38
61256.8
2097.8
62034.5
2304.89
52000
2212.69
34931.3
1996.01
20580.5
1963.82
23345.2
2190.19
38843
2430.65
50577
2580.02
53453.3
2794.62
53690.1
3348.89
61809.9
4097.88
76202.7
4653.1
85963.2
4823.92
83795.8
4658.66
70496.3
4355.05
51870.8
4142.11
32345.5
3973.14
15108.8
3613.31
3346
3127.23
-1950.58
2784.68
-3269.91
2611.03
-4153.18
2482.54
-7059.73
2104.81
-13496.4
1295.81
-18964.9
749.812
-23575.5
662.066
-28030
775.631
-31062.6
1056.45
-32179.1
1663.76
-33817.2
2377.68
-40960.2
2655.75
-53351.2
2526.47
-64029.7
1529.32
-68026.9
-90247.5
-384.877
-8698.63
-708.042
-11504.1
-1093.46
-14905.1
-1437.19
-16781.2
-1792.43
-16831.3
-2249.76
-16105.4
-2772.21
-15642
-3349.88
-15592.2
-4039.25
-15556.6
-4930.88
-15068.5
-6081.13
-13946.5
-7448.54
-12310
-8880.41
-10633
-10192.9
-9471.66
-11273.5
-9076.77
-12110.8
-9376.57
-12746.2
-10131.4
-13221
-11147.9
-13562.9
-12343.2
-13787.7
-13708
-13905.3
-15252.4
-13922.5
-16984.8
-13843.9
-18923.1
-13675.8
-21094
-13433.2
-23534.9
-13149.9
-26298.4
-12895.9
-29491.2
-12790.2
-33336.8
-12988.3
-38263
-13720.4
-44792.8
-15255.3
-53467.7
-16850.9
-63815.1
-14975.3
-68425.2
-4803.89
-47910.9
3647.07
6957.91
1713.93
43035.2
315.377
49828.2
78.9338
53988.9
106.59
59357.7
185.342
60660.5
332.194
58472.7
516.596
56459.3
731.714
53949.3
1076.51
55632.8
1570.44
60762.9
2060.13
61544.8
2303.19
51756.9
2247.07
34987.4
2030.68
20796.9
1967.46
23408.4
2175.61
38634.9
2417.83
50334.8
2578.84
53292.3
2790.66
53478.3
3341.07
61259.5
4106.16
75437.6
4692.32
85377.1
4888.06
83600.1
4730.8
70653.6
4426.37
52175.2
4211.45
32560.5
4033.98
15286.3
3673.35
3706.62
3206.97
-1484.2
2885.37
-2948.31
2724.96
-3992.78
2583.37
-6918.14
2119.65
-13032.7
1210.53
-18055.8
639.236
-23004.2
554.336
-27945.1
705.587
-31213.9
1095.2
-32568.7
1832.46
-34554.5
2621.96
-41749.7
2897.77
-53627
2714.76
-63846.7
1773.84
-67086
-87766.8
-384.369
-8508.94
-684.844
-11203.7
-1066.38
-14523.6
-1433.34
-16414.2
-1827.55
-16437.1
-2323.49
-15609.5
-2878.12
-15087.4
-3490.43
-14979.9
-4235.04
-14812
-5209.53
-14094
-6453.06
-12702.9
-7881.35
-10881.7
-9305.55
-9208.83
-10545.5
-8231.67
-11522.6
-8099.76
-12255.2
-8643.91
-12794.7
-9591.83
-13179.7
-10763
-13432.8
-12090.1
-13567.5
-13573.3
-13592.9
-15227
-13515.5
-17062.2
-13339.1
-19099.6
-13067.6
-21365.5
-12711.5
-23891
-12297.9
-26712
-11890.8
-29898.3
-11610
-33617.6
-11618.8
-38254.3
-12124.7
-44286.8
-13460.8
-52131.7
-15342.4
-61933.5
-14937.9
-68829.7
-7622.69
-55226
2248.43
-2913.21
1896.4
43387.2
325.86
51398.7
6.81799
54308
13.2058
59351.3
80.0553
60593.7
232.091
58320.7
428.037
56263.4
654.502
53722.9
1005.12
55282.2
1506.55
60261.5
2017.18
61034.2
2297.02
51477.1
2277.18
35007.3
2061.44
21012.7
1968.21
23501.7
2158.19
38444.9
2403.23
50089.7
2573.8
53121.7
2789.62
53262.5
3336.03
60713.1
4115.73
74657.9
4734.61
84758.2
4959.17
83375.5
4812.14
70800.6
4507.66
52479.7
4289.02
32779.1
4094.8
15480.5
3726.44
4074.98
3281.71
-1039.46
2988.57
-2655.18
2847.64
-3851.84
2691.53
-6762.03
2140.33
-12481.5
1131.97
-17047.5
527.39
-22399.6
447.481
-27865.2
661.383
-31427.8
1182.85
-33090.2
2053.66
-35425.3
2912.4
-42608.4
3182.61
-53897.2
2935.72
-63599.8
2006.05
-66156.3
-84463.3
-387.311
-8328.18
-668.906
-10922.1
-1046.27
-14146.2
-1436.52
-16024
-1871.61
-16002
-2406.08
-15075
-2992.14
-14501.3
-3641.83
-14330.2
-4448.5
-14005.3
-5511.9
-13030.6
-6843.64
-11371.2
-8309.92
-9415.4
-9693.4
-7825.35
-10832.8
-7092.3
-11689.4
-7243.16
-12307.7
-8025.62
-12743.3
-9156.19
-13030.2
-10476
-13186.7
-11933.6
-13224.3
-13535.7
-13151.8
-15299.5
-12976.1
-17238
-12700.8
-19374.8
-12329.2
-21737.2
-11867.7
-24352.5
-11335
-27244.7
-10784.1
-30449.2
-10329
-34072.7
-10143.9
-38439.4
-10419.9
-44010.8
-11486.1
-51065.5
-13438.4
-59981.3
-14234.6
-68033.5
-9492.08
-59968.6
550.841
-12956.1
2272.18
41665.9
410.57
53260.3
-78.1925
54796.7
-91.2119
59364.4
-35.8905
60538.4
122.06
58162.8
331.421
56054
570.221
53484.1
927.216
54925.2
1436.51
59752.2
1968.54
60502.1
2285.58
51160
2301.96
34990.9
2087.37
21227.3
1965.74
23623.3
2137.89
38272.7
2386.17
49841.4
2565.97
52941.9
2790.89
53037.6
3333.17
60170.8
4126.51
73864.5
4779.55
84105.2
5037.11
83118
4903.12
70934.6
4600.18
52782.6
4373.3
33006
4150.86
15702.9
3769.25
4456.59
3350.41
-620.624
3094.25
-2399.02
2978.08
-3735.67
2805.98
-6589.93
2169.79
-11845.3
1062.38
-15940.1
416.85
-21754.1
353.957
-27802.3
659.845
-31733.7
1329.7
-33760.1
2330.33
-36425.9
3248.83
-43526.9
3509
-54157.4
3190.16
-63280.9
2387.17
-65353.3
-81711
-393.308
-8153.94
-659.746
-10655.6
-1033.53
-13772.5
-1447.48
-15610
-1924.97
-15524.5
-2497.34
-14502.7
-3114.21
-13884.5
-3804.98
-13639.4
-4680.86
-13129.5
-5836.56
-11874.9
-7244.71
-9963.06
-8718.72
-7941.39
-10025.7
-6518.41
-11038.1
-6079.86
-11759.7
-6521.55
-12254.3
-7531.01
-12577.3
-8833.23
-12757.2
-10296.1
-12808.7
-11882.1
-12742
-13602.4
-12566.6
-15474.9
-12290.2
-17514.4
-11917.6
-19747.5
-11452.8
-22201.9
-10900.9
-24904.4
-10272.5
-27873.1
-9605.45
-31116.2
-8997.41
-34680.8
-8625.1
-38811.7
-8674.66
-43961.2
-9436.81
-50303.3
-11251.5
-58166.6
-12851.8
-66433.2
-9927.03
-62893.4
-101.732
-22781.4
2840.6
38723.6
617.058
55483.9
-173.431
55587.2
-207.942
59398.9
-163.102
60493.5
1.68929
57998
226.522
55829.2
478.623
53232
842.571
54561.3
1360.12
59234.6
1913.86
59948.4
2268.17
50805.7
2320.5
34938.6
2107.73
21440
1959.75
23771.3
2114.68
38117.8
2366.35
49589.8
2556.29
52752
2790.84
52803
3329.38
59632.2
4137.12
73056.8
4826.06
83416.2
5121.12
82822.9
5004.02
71051.7
4704.34
53082.3
4461.76
33248.6
4198.93
15965.8
3801.51
4854.02
3413.69
-232.809
3201.67
-2187
3113.41
-3647.42
2924.67
-6401.19
2210.53
-11131.2
1004.07
-14733.6
313.697
-21063.7
290.241
-27778.9
717.311
-32160.7
1543.45
-34586.2
2663.85
-37546.3
3630.17
-44493.2
3875.61
-54402.8
3468.02
-62873.3
2538.53
-64423.8
-78776.6
-402.124
-7984.19
-656.939
-10400.8
-1028.42
-13401
-1466.93
-15171.5
-1987.78
-15003.7
-2596.86
-13893.6
-3244.31
-13237
-3980.76
-12902.9
-4932.62
-12177.6
-6179.75
-10627.8
-7644.51
-8498.31
-9089.6
-6496.29
-10283.9
-5324.09
-11146.7
-5217.13
-11721.5
-5946.73
-12084.1
-7168.35
-12286
-8631.35
-12350.6
-10231.6
-12289.9
-11942.8
-12113.7
-13778.6
-11832.4
-15756.1
-11455.1
-17891.7
-10988.4
-20214.2
-10438.8
-22751.4
-9812.88
-25530.4
-9117.18
-28568.7
-8373.95
-31859.5
-7655.06
-35399.6
-7121.78
-39345
-6967.14
-44115.9
-7430.62
-49839.8
-8948.11
-56649.1
-10964
-64417.3
-9550.47
-64306.9
-378.25
-31953.7
3464.05
34881.3
942.17
58005.7
-278.529
56807.9
-338.697
59459
-302.209
60457
-129.504
57825.3
112.992
55586.7
379.456
52965.5
750.969
54189.8
1277.19
58708.4
1852.81
59372.8
2244.12
50414.4
2331.88
34850.8
2121.88
21650
1949.92
23943.3
2088.33
37979.4
2343.8
49334.3
2544.81
52551
2786.36
52561.4
3322.15
59096.5
4145.46
72233.5
4872.16
82689.5
5209.47
82485.6
5114.57
71146.6
4819.62
53377.3
4552.2
33516
4238.44
16279.5
3824.63
5267.83
3471.7
120.114
3308.14
-2023.43
3248.62
-3587.9
3044.56
-6197.12
2264.29
-10350.9
960.248
-13429.6
227.84
-20331.3
274.108
-27825.2
846.601
-32733.2
1828.13
-35567.7
3053.81
-38772
4054.21
-45493.6
4279.94
-54628.5
3781.25
-62374.7
2941.68
-63584.2
-75325.3
-413.638
-7817.18
-660.137
-10154.3
-1031.16
-13030
-1495.42
-14707.2
-2059.97
-14439.1
-2704.12
-13249.4
-3382.48
-12558.7
-4169.93
-12115.5
-5203.07
-11144.4
-6534.76
-9296.09
-8027.67
-7005.39
-9402.84
-5121.13
-10451.2
-4275.74
-11146.7
-4521.65
-11566.7
-5526.74
-11791.5
-6943.52
-11866.5
-8556.31
-11810.8
-10287.3
-11635
-12118.6
-11348.7
-14064.9
-10963
-16141.8
-10488.5
-18366.2
-9934.01
-20768.7
-9308.62
-23376.8
-8622.19
-26216.8
-7882.83
-29308.1
-7102.56
-32639.7
-6324.85
-36177.4
-5676.75
-39993
-5360.2
-44432.4
-5567.58
-49632.5
-6704.66
-55512
-8778.56
-62343.4
-8550.47
-64535
-475.77
-40028.4
3967.72
30437.8
1289.81
60683.6
-402.279
58500
-486.262
59543
-453.932
60424.7
-272.011
57643.3
-9.40184
55324.1
272.49
52683.6
652.198
53810.1
1187.59
58173
1785.07
58775.3
2212.78
49986.7
2335.12
34728.5
2129.27
21855.9
1935.94
24136.6
2058.5
37856.8
2318.39
49074.4
2530.99
52338.4
2776.86
52315.6
3312
58561.3
4150.51
71395
4915.64
81924.4
5299.32
82101.9
5233.42
71212.5
4944.66
53666
4643.56
33817.1
4271.79
16651.3
3841.83
5697.79
3524.55
437.393
3409.49
-1908.37
3377.14
-3555.56
3161.81
-5981.79
2331.98
-9521.08
935.686
-12033.3
171.976
-19567.6
321.005
-27974.2
1054.77
-33467
2183.78
-36696.7
3497.85
-40086
4517.29
-46513.1
4715.7
-54826.9
4122.6
-61781.6
3358.7
-62820.3
-72583.5
-427.849
-7651.36
-669.09
-9913.07
-1041.96
-12657.1
-1533.44
-14215.7
-2141.3
-13831.3
-2818.52
-12572.2
-3528.8
-11848.4
-4372.82
-11271.5
-5489.72
-10027.5
-6891.4
-7894.42
-8375.73
-5521.06
-9638.6
-3858.27
-10513.4
-3400.95
-11030.7
-4004.28
-11292.7
-5264.76
-11378.2
-6858.01
-11325.9
-8608.67
-11151.5
-10461.7
-10864.7
-12405.4
-10475.2
-14454.4
-9993.92
-16623.1
-9432.67
-18927.4
-8801.77
-21399.6
-8111.98
-24066.6
-7376.27
-26952.5
-6607.43
-30076.9
-5816.22
-33430.9
-5024.62
-36969
-4316.67
-40701
-3886.8
-44862.3
-3903.63
-49615.6
-4666.3
-54749.3
-6522.89
-60486.8
-7124.67
-63933.2
-576.949
-46576.1
3978.55
25882.3
1497.23
63165
-553.065
60550.3
-654.799
59644.8
-618.911
60388.8
-426.36