/*--------------------------------*- C++ -*----------------------------------*\
| =========                 |                                                 |
| \\      /  F ield         | OpenFOAM: The Open Source CFD Toolbox           |
|  \\    /   O peration     | Version:  4.1                                   |
|   \\  /    A nd           | Web:      www.OpenFOAM.org                      |
|    \\/     M anipulation  |                                                 |
\*---------------------------------------------------------------------------*/
FoamFile
{
    version     2.0;
    format      ascii;
    class       volVectorField;
    location    "14";
    object      U;
}
// * * * * * * * * * * * * * * * * * * * * * * * * * * * * * * * * * * * * * //

dimensions      [0 1 -1 0 0 0 0];

internalField   nonuniform List<vector> 
6785
(
(9.09931e-14 -0.588812 16.1008)
(8.75325e-14 -6.46249 12.4525)
(-2.50785e-14 -4.70273 12.801)
(5.12168e-14 -4.16348 12.5726)
(1.23869e-14 -3.54604 12.4086)
(-1.05233e-14 -3.07079 12.1907)
(3.03205e-14 -2.68241 11.9442)
(1.15189e-14 -2.39765 11.6609)
(3.03003e-16 -2.2131 11.3443)
(3.71874e-14 -2.10028 11.0112)
(7.14334e-15 -2.06601 10.6637)
(-1.43314e-14 -2.28839 10.1967)
(3.10263e-14 -2.65944 9.56515)
(-1.05687e-14 -1.75696 9.03912)
(-6.91493e-14 0.870566 6.84775)
(2.44143e-13 -7.32463 26.0449)
(1.51603e-13 -16.5324 21.7804)
(-1.84014e-14 -11.6559 22.1928)
(1.48085e-13 -11.8453 20.8123)
(9.23214e-15 -10.9411 19.815)
(2.6842e-14 -10.2349 18.774)
(1.38756e-13 -9.52972 17.7408)
(3.93031e-15 -8.85083 16.7073)
(5.43739e-14 -8.20301 15.6596)
(1.55557e-13 -7.56793 14.6022)
(-6.04806e-16 -6.92891 13.6153)
(7.12156e-14 -6.43502 12.7279)
(1.67173e-13 -6.07787 11.3304)
(-5.39139e-14 -4.17064 7.58886)
(2.07343e-14 1.59943 -0.730775)
(1.03802e-13 -10.0286 27.9057)
(1.58016e-13 -17.7487 24.2092)
(-3.91783e-14 -11.895 24.7062)
(-1.57917e-15 -12.7579 22.5528)
(2.78944e-14 -11.3002 21.4089)
(-5.99291e-15 -10.5178 19.9902)
(-3.28699e-14 -9.64061 18.6366)
(2.7568e-14 -8.82825 17.2778)
(-7.86585e-15 -8.04934 15.9234)
(-6.41902e-14 -7.32539 14.5939)
(4.26419e-14 -6.65446 13.3334)
(-1.16613e-14 -5.76652 11.7285)
(-1.64001e-13 -3.71331 8.02987)
(3.26529e-14 0.148049 0.591535)
(1.21942e-13 1.27156 -4.43146)
(1.81667e-13 -10.7982 26.5838)
(8.78886e-14 -17.5492 23.7207)
(2.79473e-14 -11.609 24.093)
(-3.73588e-14 -13.3163 21.2719)
(-7.20434e-14 -11.4408 20.2582)
(7.67707e-14 -10.9119 18.5882)
(-4.3435e-14 -10.0675 17.1259)
(-9.69955e-14 -9.32444 15.6485)
(7.55982e-14 -8.61124 14.2106)
(-2.6602e-14 -7.95065 12.847)
(-8.29574e-14 -7.36586 11.5948)
(1.01007e-13 -6.70491 10.2124)
(1.53599e-14 -5.32443 7.71316)
(-2.3234e-13 -2.70929 3.42547)
(-3.97105e-15 -1.42858 -1.26285)
(1.36361e-13 -10.9607 25.2972)
(-8.39754e-14 -17.1405 23.5846)
(-6.48803e-14 -11.635 23.5942)
(-9.24122e-14 -13.4203 20.5779)
(-2.4297e-13 -11.3987 19.6477)
(-7.13266e-15 -10.9613 17.879)
(-8.91379e-14 -10.0909 16.3744)
(-3.01214e-13 -9.32647 14.8828)
(-5.11349e-14 -8.65228 13.5266)
(-4.37228e-14 -8.06488 12.3247)
(-3.64585e-13 -7.50226 11.1617)
(-2.94755e-13 -6.87399 9.9299)
(-1.67664e-13 -6.03152 8.374)
(-4.97274e-13 -4.3127 6.12109)
(-8.88979e-13 -2.50923 1.80936)
(2.02557e-13 -11.2942 24.7841)
(-3.50211e-14 -16.5315 23.2807)
(4.50685e-14 -11.4175 23.346)
(-1.17913e-13 -13.2491 20.2172)
(-2.15431e-13 -10.8212 19.4503)
(1.39516e-13 -10.5878 17.48)
(-1.39976e-13 -9.47168 16.03)
(-2.38731e-13 -8.70495 14.4577)
(6.59398e-14 -7.97359 13.0068)
(-1.76871e-13 -7.45116 11.711)
(-3.61557e-13 -7.07756 10.6698)
(-3.537e-14 -6.7971 9.94977)
(1.80529e-14 -6.52317 9.34572)
(-3.17629e-13 -5.58782 8.441)
(-4.55273e-13 -4.11187 5.62674)
(3.40953e-13 -11.988 25.0091)
(1.17146e-14 -15.9319 23.4085)
(1.32152e-13 -11.5711 23.394)
(-1.25952e-13 -12.9123 20.5041)
(-5.21486e-14 -10.4696 19.6542)
(1.25395e-13 -10.1844 17.6543)
(-1.66513e-13 -8.81099 16.1708)
(-7.5431e-14 -7.67504 14.0123)
(8.60752e-15 -6.12112 11.3563)
(-1.93788e-13 -5.03447 9.0851)
(7.96085e-15 -5.04661 8.55501)
(1.39299e-13 -5.90542 9.40606)
(7.14618e-15 -6.77208 10.4242)
(-1.29904e-13 -6.8583 10.8151)
(1.68412e-13 -5.37509 8.94756)
(2.66399e-13 -12.5408 25.444)
(2.46442e-14 -16.2688 24.7335)
(1.04179e-13 -12.0281 24.106)
(-1.22327e-13 -13.1259 21.5008)
(2.26258e-14 -10.6863 20.6201)
(6.60645e-14 -10.4061 18.6401)
(-1.86195e-13 -8.83861 17.1471)
(-8.76268e-14 -7.42088 14.5522)
(-2.13496e-13 -5.10082 11.031)
(-3.37901e-13 -3.02986 7.63691)
(-6.36088e-13 -2.05043 5.96885)
(-1.18029e-12 -2.42749 6.19041)
(-9.30859e-13 -3.95256 8.05814)
(-1.66536e-13 -5.50988 10.2174)
(3.76897e-13 -4.56434 9.09694)
(2.6368e-13 -12.3791 24.6306)
(6.18828e-14 -17.2817 26.8254)
(1.59511e-14 -12.8763 25.1593)
(-9.00916e-14 -13.8364 22.5419)
(-5.06539e-16 -11.4213 21.7166)
(-3.32624e-14 -11.3039 19.7305)
(-1.62077e-13 -9.76602 18.3866)
(-9.91669e-14 -8.58305 16.0515)
(-3.5619e-13 -6.37025 12.8348)
(-3.49536e-13 -3.95505 9.13335)
(-8.68174e-13 -1.86088 6.00373)
(-1.77178e-12 -0.21264 3.49999)
(-1.70586e-12 0.366036 2.54075)
(-1.37499e-12 -0.916154 4.02218)
(-4.51001e-13 -2.01745 5.38997)
(1.76268e-13 -11.5407 22.3235)
(9.39103e-14 -17.6905 27.9513)
(1.18801e-14 -14.0499 25.9638)
(-1.55158e-13 -14.2457 23.1056)
(-7.44568e-14 -12.3365 22.0184)
(-5.65846e-14 -12.0645 20.2135)
(-2.13051e-13 -10.9386 18.8591)
(-1.17587e-13 -10.0411 17.0329)
(-2.52793e-13 -8.60728 14.7401)
(-3.92713e-13 -6.78339 11.9164)
(-5.15823e-13 -4.70726 8.86532)
(-1.23269e-12 -2.25811 5.3977)
(-2.13946e-12 0.485274 1.73386)
(-2.42116e-12 1.92152 -0.883973)
(-2.36299e-12 0.148895 -0.0419089)
(1.23969e-14 -10.47 19.475)
(1.36984e-13 -17.3054 27.754)
(-1.26652e-13 -14.6175 26.0352)
(-1.64917e-13 -14.1137 22.8912)
(-6.65504e-14 -12.5271 21.4683)
(-2.91648e-13 -12.0088 19.6944)
(-2.04425e-13 -11.0347 18.1844)
(-5.98518e-14 -10.2661 16.6334)
(-4.60092e-13 -9.3319 14.9829)
(-4.18302e-13 -8.15437 13.0208)
(-1.82597e-13 -6.75932 10.769)
(-9.12773e-13 -5.05413 8.17628)
(-1.18372e-12 -3.05268 5.19695)
(-2.00683e-12 -0.864574 2.02311)
(-3.77249e-12 -0.78695 0.642302)
(-1.51517e-14 -9.64173 17.2947)
(1.92825e-13 -16.7466 27.198)
(-2.45989e-13 -14.8658 25.9719)
(-1.50781e-13 -14.0834 22.8404)
(-1.76183e-14 -12.6973 21.2164)
(-4.57603e-13 -12.0779 19.48)
(-2.8479e-13 -11.1762 17.927)
(1.67159e-14 -10.3968 16.4245)
(-4.60107e-13 -9.55424 14.8889)
(-4.77377e-13 -8.57755 13.2472)
(-1.29948e-13 -7.45825 11.4142)
(-7.61661e-13 -6.09374 9.27886)
(-7.43229e-13 -4.58679 6.73428)
(-1.79207e-12 -3.26124 4.40699)
(-2.51929e-12 -2.3444 3.66571)
(-1.5243e-13 -8.61767 14.3651)
(1.76385e-13 -15.9822 25.9137)
(-2.12514e-13 -14.5106 24.8901)
(-3.38122e-13 -13.1338 21.227)
(3.47379e-14 -11.5625 19.573)
(-5.31367e-13 -10.985 18.109)
(-3.57955e-13 -10.0603 16.9769)
(4.25581e-13 -9.47197 15.9195)
(-6.83346e-13 -8.82299 14.9924)
(-3.74611e-13 -8.16141 13.8749)
(1.51097e-14 -7.4034 12.5805)
(-1.21713e-12 -6.43976 10.9128)
(-1.12795e-12 -5.08201 8.17156)
(-2.04714e-12 -2.24991 4.01226)
(-1.04129e-12 0.896608 -1.87725)
(-3.84312e-13 -7.69245 13.7094)
(-3.46047e-15 -16.1747 25.086)
(-9.2757e-14 -18.5575 26.8445)
(-2.55604e-13 -19.1087 25.054)
(-2.0338e-13 -18.8196 22.8889)
(-3.03515e-13 -18.5323 20.9424)
(-3.67439e-13 -18.2143 19.3339)
(-1.74514e-13 -17.7168 17.8204)
(-2.59707e-13 -16.6805 16.1225)
(-3.09437e-13 -15.0159 14.1112)
(-2.21004e-13 -12.9708 11.9228)
(-4.70393e-13 -10.6795 9.88857)
(-6.31796e-13 -8.50729 7.74767)
(-1.08005e-12 -5.29678 5.1094)
(-1.17172e-12 -1.56963 1.1637)
(-2.50197e-13 -2.36439 -5.52926)
(-3.24476e-13 0.354313 -4.36127)
(-2.38864e-13 -1.96696 -1.21095)
(-2.24925e-13 -6.1158 2.25428)
(-2.70432e-13 -9.31516 5.67777)
(-2.56412e-13 -10.9926 7.91815)
(-2.77356e-13 -12.1765 10.2694)
(-3.38713e-13 -14.4251 14.9926)
(-2.75111e-13 -17.5799 21.502)
(-3.06976e-13 -19.9519 27.0688)
(-4.13895e-13 -21.0463 30.0152)
(-4.22203e-13 -21.1728 30.9543)
(-5.85232e-13 -19.9369 30.6941)
(-1.0199e-12 -21.2406 28.5491)
(-1.46904e-12 -10.4618 26.5715)
(1.73942e-15 0.0899462 -1.08381)
(2.59694e-14 0.881683 -14.0658)
(2.2983e-14 1.94475 -12.2514)
(2.3184e-14 2.87927 -8.66513)
(2.34043e-14 3.01942 -5.42797)
(3.76697e-14 4.62095 -9.16654)
(2.84684e-14 4.04675 -7.92034)
(2.97328e-14 4.83691 -6.34372)
(2.00163e-14 4.70396 -4.333)
(1.34988e-13 6.53291 -7.31228)
(1.41485e-13 5.21785 -6.41714)
(1.21338e-13 5.215 -4.79562)
(1.18901e-13 7.18789 -7.41631)
(5.32966e-14 5.37311 -4.93806)
(3.19301e-14 5.73696 -2.54945)
(2.08176e-14 5.2297 -1.06843)
(1.88438e-14 8.25495 -3.70341)
(8.6649e-15 5.0063 -1.67996)
(5.99682e-15 4.44608 -0.333165)
(5.26812e-15 6.2091 -2.07835)
(-6.3628e-16 4.55815 0.675614)
(-4.59913e-15 3.57322 1.66915)
(-8.38409e-15 3.48878 1.48323)
(-1.73535e-14 6.03418 -0.0687048)
(-1.97226e-14 3.35431 2.09016)
(-2.60606e-14 1.86028 2.11781)
(-4.1955e-14 2.8283 1.61736)
(-1.28372e-14 4.61696 1.52871)
(-7.39346e-15 -1.22187 1.80476)
(-5.96703e-15 0.924923 1.89658)
(-3.73324e-15 0.0395445 3.33642)
(-7.7362e-17 -2.57109 1.9526)
(1.95078e-15 -3.22191 2.32347)
(4.13849e-15 -1.49557 2.35475)
(6.01719e-15 -4.35408 4.50886)
(4.78813e-15 -6.83236 2.26345)
(4.96709e-15 -4.51813 2.94001)
(3.40012e-15 -7.70239 5.46538)
(-7.2565e-16 -8.71917 2.78252)
(-4.99131e-15 -9.59605 3.70983)
(-1.15299e-14 -7.6765 4.12912)
(-2.63743e-14 -12.094 7.35162)
(-2.90235e-14 -12.081 4.08105)
(-3.99347e-14 -12.9327 5.12544)
(-5.13293e-14 -11.0137 5.59297)
(-8.72542e-14 -17.4006 9.09422)
(-7.98782e-14 -16.356 5.19936)
(-9.62888e-14 -14.3763 6.26522)
(-1.48471e-13 -20.1669 9.45599)
(-1.25612e-13 -18.5647 5.32574)
(-1.46217e-13 -19.9316 6.10046)
(-1.59635e-13 -17.5492 6.10259)
(-2.26394e-13 -24.7525 8.7611)
(-1.77772e-13 -21.6225 4.34682)
(-1.94299e-13 -22.9261 4.66044)
(-2.02926e-13 -20.4707 4.38281)
(-2.75316e-13 -29.4144 6.00166)
(-2.08691e-13 -24.8097 2.25804)
(-2.25719e-13 -22.9103 2.51633)
(-2.92816e-13 -30.4765 3.48657)
(-2.2068e-13 -26.1493 0.79129)
(-2.32751e-13 -27.3744 1.00665)
(-2.36005e-13 -24.505 0.849973)
(-3.0835e-13 -34.5184 1.51794)
(-2.30991e-13 -28.2718 -0.529176)
(-2.43994e-13 -26.283 -0.388123)
(-3.10383e-13 -34.4285 -0.00376574)
(-2.31222e-13 -29.0231 -1.08275)
(-2.42236e-13 -30.4875 -0.664532)
(-2.48032e-13 -27.1142 -0.372845)
(-3.29496e-13 -36.7474 0.858577)
(-2.52552e-13 -29.9854 0.327307)
(-2.71854e-13 -31.5358 1.23514)
(-2.81792e-13 -28.6165 2.03049)
(-3.71242e-13 -39.7313 4.48031)
(-2.80514e-13 -31.6333 3.4478)
(-3.01369e-13 -30.6008 4.50975)
(-3.89425e-13 -40.5443 7.56676)
(-2.93066e-13 -33.1986 6.00272)
(-3.48738e-13 -32.4124 7.6256)
(-5.58902e-13 -35.0125 11.9807)
(-4.94426e-13 -33.663 10.7934)
(-4.95487e-13 -33.207 10.8241)
(-2.54438e-13 -37.0746 6.99855)
(-5.00187e-13 -32.7812 10.7444)
(-4.31959e-13 -32.7678 10.2959)
(-4.30941e-13 -32.4651 10.5398)
(-4.31391e-13 -32.1481 10.577)
(-4.33376e-13 -31.8678 10.7669)
(-4.31171e-13 -31.8194 11.0204)
(-4.07546e-13 -31.6472 11.4464)
(-3.75274e-13 -30.7203 11.9557)
(-3.2051e-13 -33.6289 9.18257)
(-4.10113e-13 -30.4675 13.4471)
(-3.94616e-13 -29.962 13.9088)
(-3.83848e-13 -29.7737 14.5632)
(-3.49583e-13 -29.5916 15.0598)
(-3.52281e-13 -29.3066 15.5951)
(-3.40183e-13 -29.2231 16.0607)
(-3.32415e-13 -29.2355 16.6616)
(-3.23697e-13 -28.4232 17.2456)
(-2.79226e-13 -30.7382 14.015)
(-3.48873e-13 -27.7437 17.3792)
(-3.46719e-13 -27.399 17.3854)
(-3.48642e-13 -27.2775 17.9308)
(-3.41142e-13 -27.1123 18.6483)
(-3.31829e-13 -26.9828 19.4985)
(-3.28969e-13 -26.8269 20.4445)
(-3.43008e-13 -26.9303 21.7759)
(-3.48102e-13 -26.9785 23.1117)
(-3.53542e-13 -26.4429 24.3149)
(-3.26304e-13 -28.9687 23.3244)
(-3.57243e-13 -25.5865 24.8332)
(-3.5353e-13 -25.5129 25.6192)
(-3.45136e-13 -25.5388 26.0309)
(-3.3421e-13 -25.5269 26.1709)
(-3.26059e-13 -25.6217 26.1038)
(-3.25827e-13 -25.655 25.3406)
(-3.25679e-13 -25.7929 25.2624)
(-3.26097e-13 -25.4358 25.4273)
(-3.00969e-13 -28.5648 25.2528)
(-3.40502e-13 -24.6246 24.5694)
(-3.48038e-13 -24.9684 24.06)
(-3.58596e-13 -24.9557 23.6682)
(-3.67724e-13 -25.2151 23.7764)
(-3.69223e-13 -25.296 23.3635)
(-3.65303e-13 -25.4838 22.8154)
(-3.56371e-13 -25.5614 22.0902)
(-3.42233e-13 -25.2429 21.1633)
(-2.96133e-13 -28.8848 20.975)
(-2.99553e-13 -24.6876 18.0893)
(-2.84351e-13 -25.2724 16.8501)
(-2.74125e-13 -25.2608 15.7107)
(-2.67893e-13 -25.4226 14.7485)
(-2.63304e-13 -25.497 14.1104)
(-2.59153e-13 -25.6605 13.7141)
(-2.5371e-13 -25.6827 13.5375)
(-2.46272e-13 -25.5898 13.3944)
(-1.99486e-13 -28.8648 12.8557)
(-2.21944e-13 -24.9776 11.1201)
(-2.15605e-13 -25.6168 11.0647)
(-2.14961e-13 -25.4679 11.2298)
(-2.16359e-13 -25.6562 11.491)
(-2.21525e-13 -25.8593 11.5017)
(-2.29823e-13 -25.7875 10.8375)
(-2.34995e-13 -26.1498 10.9671)
(-2.35972e-13 -26.2749 11.5004)
(-2.30866e-13 -26.3624 12.3363)
(-2.00848e-13 -30.0428 14.0039)
(-2.35676e-13 -25.6087 11.6238)
(-2.3287e-13 -26.4794 12.3344)
(-2.27555e-13 -26.4247 13.0089)
(-2.18365e-13 -26.8296 13.7208)
(-2.00657e-13 -27.0063 14.1514)
(-1.67321e-13 -27.3215 13.7046)
(-1.22596e-13 -27.589 11.8396)
(-9.09172e-14 -27.7259 8.86282)
(-4.11775e-14 -30.1359 4.53637)
(-8.12834e-14 -26.2573 2.69491)
(-7.03535e-14 -28.0555 0.644238)
(-1.48469e-14 -22.7983 1.72792)
(-4.33177e-14 -31.8041 2.93426)
(-3.21858e-14 -26.7764 -0.317499)
(-2.17729e-14 -23.2186 -0.598633)
(-2.83656e-14 -29.5589 -1.57259)
(-9.6527e-15 -20.0214 -2.0566)
(-8.42208e-15 -25.7467 -3.43088)
(-7.80554e-15 -21.6862 -4.42643)
(-1.28227e-15 -17.3629 -3.67483)
(-5.67062e-15 -19.8876 -5.67703)
(-1.16834e-14 -16.8211 -6.27232)
(-1.85191e-14 -13.7303 -5.55299)
(-3.61988e-14 -14.7996 -7.83901)
(-3.55283e-14 -10.5723 -6.97831)
(-3.20906e-14 -8.89673 -11.5452)
(1.04604e-14 -6.5714 -11.3186)
(4.41838e-15 -5.37703 -9.88776)
(-1.7437e-14 2.45167 -15.6252)
(-9.45238e-15 -0.680414 -12.5471)
(-6.09849e-15 4.66617 -16.5019)
(-1.55574e-15 9.99884 -23.7136)
(-2.45171e-15 10.5034 -16.6776)
(6.99249e-16 15.6923 -22.2261)
(-2.03656e-15 25.0786 -29.3307)
(-9.39694e-15 21.023 -19.4257)
(-1.13392e-14 36.3324 -29.2436)
(-9.96529e-15 30.6992 -20.9499)
(-1.58065e-14 37.8141 -26.946)
(-1.73694e-14 51.2926 -32.4088)
(-1.50553e-14 41.1754 -20.797)
(-2.2359e-14 64.8972 -29.6403)
(-1.91618e-14 52.088 -20.4189)
(-2.32315e-14 62.7376 -25.7184)
(-3.52411e-14 75.5152 -28.7478)
(-2.86172e-14 62.8246 -17.93)
(-3.54124e-14 78.9851 -22.1645)
(-5.20617e-14 93.6424 -23.6188)
(-3.89947e-14 70.3269 -14.3473)
(-5.915e-14 106.508 -19.2712)
(-4.88281e-14 82.5478 -12.163)
(-6.3472e-14 94.7711 -14.9542)
(-8.49643e-14 112.369 -14.0408)
(-6.18308e-14 84.3055 -7.74882)
(-9.83014e-14 125.317 -9.52125)
(-8.16678e-14 95.1257 -4.77167)
(-1.07047e-13 109.463 -5.73124)
(-1.48013e-13 123.452 -2.36632)
(-1.14387e-13 96.5866 0.874228)
(-1.49778e-13 119.128 1.64126)
(-2.07023e-13 133.955 6.99429)
(-1.49385e-13 96.1973 6.38962)
(-2.25467e-13 141.093 10.4196)
(-1.77323e-13 105.308 9.54536)
(-2.28377e-13 118.774 12.0233)
(-2.98485e-13 134.458 18.0145)
(-2.08734e-13 97.5798 13.0991)
(-3.01306e-13 141.75 18.2147)
(-2.28204e-13 104.409 14.2142)
(-2.86308e-13 118.377 16.6432)
(-3.50736e-13 129.017 20.8801)
(-2.46921e-13 98.0163 14.8752)
(-3.05924e-13 120.367 17.1724)
(-3.70085e-13 131.018 20.6728)
(-2.5062e-13 92.2767 13.6737)
(-3.49397e-13 134.179 16.9739)
(-2.58206e-13 98.5575 12.2062)
(-3.18464e-13 110.997 13.3321)
(-3.84144e-13 123.249 15.2506)
(-2.58135e-13 88.3917 9.81735)
(-3.5719e-13 129.273 11.4011)
(-2.60975e-13 94.468 7.98236)
(-3.2056e-13 107.715 7.90506)
(-3.75559e-13 116.709 8.39472)
(-2.56011e-13 88.2365 5.53941)
(-3.10621e-13 109.688 5.17347)
(-3.64554e-13 119.65 5.22396)
(-2.40467e-13 83.7161 3.05073)
(-3.30117e-13 124.779 1.87918)
(-2.33453e-13 90.7401 1.1601)
(-3.09031e-13 107.031 -1.39488)
(4.27616e-20 16.6296 3.73938)
(2.53859e-20 22.5689 8.95312)
(8.70612e-21 24.9249 10.0735)
(5.63913e-22 25.6817 10.8098)
(-6.29063e-22 25.5804 11.0252)
(3.51943e-21 25.9214 11.8446)
(1.4237e-20 26.4121 12.884)
(-1.46462e-20 27.3273 14.4346)
(-5.03947e-19 28.3767 16.2485)
(-3.46337e-18 29.4825 18.4712)
(-1.57061e-17 30.4506 21.1277)
(-5.50041e-17 31.2022 24.3832)
(-1.57692e-16 31.6556 28.4591)
(-3.80139e-16 31.7118 33.6259)
(-7.79172e-16 31.2277 40.0224)
(-1.36395e-15 30.2498 47.4462)
(-2.05339e-15 29.0535 55.3037)
(-2.69565e-15 28.0303 62.8887)
(-3.15016e-15 27.4613 69.7426)
(-3.35336e-15 27.3966 75.7375)
(-3.31757e-15 27.7667 80.9227)
(-3.09199e-15 28.555 85.4216)
(-2.72981e-15 29.8687 89.4483)
(-2.27638e-15 31.8846 93.2924)
(-1.77335e-15 34.8071 97.224)
(-1.26376e-15 38.9429 101.45)
(-7.84564e-16 44.8228 106.194)
(-3.51907e-16 53.1081 111.715)
(2.80437e-17 63.6844 117.698)
(2.62935e-16 72.8323 120.836)
(-3.01567e-17 68.505 110.43)
(-1.54429e-15 33.5767 67.8253)
(-3.7041e-15 -14.4477 3.84463)
(-3.84176e-15 -35.9313 1.15946)
(-4.2731e-15 -40.7531 0.715352)
(-4.96553e-15 -49.2504 -0.88242)
(-5.5109e-15 -60.5949 -1.0069)
(-5.57753e-15 -71.615 -1.78008)
(-5.05079e-15 -81.2932 -2.93184)
(-4.05439e-15 -82.9655 -5.12879)
(-2.64583e-15 -80.0295 -5.50597)
(-1.45074e-15 -77.6734 -6.65886)
(-4.51898e-16 -74.7848 -7.1654)
(-2.52987e-17 -79.3822 -8.54689)
(3.30633e-17 -88.3838 -11.1822)
(-1.09746e-17 -88.4477 -14.3829)
(-8.31308e-17 -70.4793 -15.7446)
(-1.03161e-16 -43.5929 -14.2634)
(-6.08035e-17 -24.934 -12.2636)
(-1.22629e-17 -33.0124 -12.5702)
(6.84285e-19 -56.1747 -14.2163)
(-3.21728e-19 -70.979 -15.8688)
(-1.41185e-18 -73.4094 -17.0216)
(-1.40006e-18 -75.4827 -18.1158)
(-8.73958e-19 -90.6329 -21.0791)
(-3.6947e-19 -111.171 -25.1729)
(-8.22667e-20 -121.087 -28.6226)
(3.72603e-20 -113.188 -30.1105)
(7.25714e-20 -91.3331 -29.6081)
(7.57335e-20 -65.0664 -27.8817)
(7.60696e-20 -40.3336 -26.5589)
(8.39975e-20 -17.7293 -26.644)
(7.18298e-20 1.35321 -25.4682)
(3.54352e-20 11.4171 -20.4277)
(7.46759e-21 10.7107 -15.1617)
(-7.82232e-21 8.20292 -12.4411)
(-2.26357e-19 10.3896 -11.9465)
(1.90464e-18 19.5033 -12.0528)
(-5.84769e-18 30.6394 -12.3854)
(1.53461e-17 37.4522 -11.3325)
(7.98313e-19 39.9756 -9.1784)
(-1.95024e-16 40.8286 -7.95619)
(2.31913e-16 41.0224 -8.40129)
(9.82851e-16 40.6115 -9.81625)
(-2.43704e-15 48.2531 -12.9438)
(-6.47934e-15 67.7763 -14.8048)
(-7.52462e-15 87.0883 -14.7141)
(-7.15971e-15 106.993 -10.2994)
(-1.72817e-13 145.362 0.521193)
(4.3603e-20 15.7806 2.47278)
(2.59896e-20 21.5577 7.96065)
(8.4352e-21 24.6092 9.6413)
(4.91796e-22 25.5241 10.6707)
(-3.42771e-22 25.4113 10.9852)
(5.92364e-21 25.625 11.9544)
(2.10075e-20 25.9996 13.1575)
(-4.62812e-20 26.7937 14.9364)
(-9.19678e-19 27.7389 16.9947)
(-5.82858e-18 28.7156 19.4874)
(-2.50776e-17 29.5255 22.4481)
(-8.37902e-17 30.0589 26.0841)
(-2.28986e-16 30.2168 30.666)
(-5.24223e-16 29.9134 36.4723)
(-1.01551e-15 29.0793 43.551)
(-1.67226e-15 27.8761 51.5155)
(-2.36056e-15 26.6581 59.6119)
(-2.90281e-15 25.7931 67.13)
(-3.18249e-15 25.4703 73.7426)
(-3.19061e-15 25.662 79.4569)
(-2.99074e-15 26.2638 84.3774)
(-2.66203e-15 27.2366 88.5997)
(-2.26626e-15 28.6605 92.2691)
(-1.84207e-15 30.6985 95.6295)
(-1.41468e-15 33.563 98.9747)
(-1.00539e-15 37.5656 102.606)
(-6.28776e-16 43.2258 106.879)
(-2.83758e-16 51.2806 112.245)
(3.88324e-17 62.145 118.866)
(2.85117e-16 73.6399 124.538)
(1.48746e-16 75.8539 120.159)
(-1.14485e-15 48.2195 84.8581)
(-3.88452e-15 -12.7587 2.79738)
(-3.8421e-15 -35.6289 0.809823)
(-4.27332e-15 -40.2338 0.632476)
(-4.96413e-15 -49.3931 -1.25331)
(-5.50998e-15 -60.8445 -1.08552)
(-5.57818e-15 -71.7062 -1.77927)
(-5.05439e-15 -81.2031 -2.86498)
(-4.06224e-15 -82.854 -4.97612)
(-2.65763e-15 -79.8715 -5.35738)
(-1.46127e-15 -77.401 -6.53511)
(-4.61021e-16 -74.3869 -7.07)
(-2.79269e-17 -78.6963 -8.4832)
(3.37902e-17 -87.5296 -11.1381)
(-9.60651e-18 -87.7992 -14.3468)
(-8.184e-17 -70.3962 -15.7302)
(-1.034e-16 -43.8159 -14.266)
(-6.37425e-17 -24.5876 -12.0647)
(-1.39638e-17 -31.7709 -12.3038)
(6.2246e-19 -55.0247 -14.182)
(-2.09852e-19 -70.1812 -15.9216)
(-1.38717e-18 -72.7944 -17.032)
(-1.41096e-18 -74.6158 -18.016)
(-8.90668e-19 -89.3919 -20.979)
(-3.80499e-19 -110.004 -25.1733)
(-8.71576e-20 -120.437 -28.7072)
(3.56738e-20 -113.195 -30.2231)
(7.23597e-20 -91.845 -29.6958)
(7.5942e-20 -65.7243 -27.9104)
(7.61333e-20 -40.7794 -26.4602)
(8.14155e-20 -18.0202 -26.1144)
(5.94825e-20 0.683415 -23.9731)
(2.66829e-20 9.89277 -19.1686)
(3.95291e-21 9.395 -14.3907)
(-8.99883e-21 7.65207 -12.4256)
(-2.62428e-19 10.3535 -12.2505)
(1.74523e-18 19.5952 -12.4534)
(-5.60983e-18 30.5228 -12.8293)
(1.7491e-17 36.9368 -11.4154)
(-1.31339e-17 39.4436 -9.07999)
(-1.79024e-16 40.6978 -8.17972)
(3.19647e-16 41.2655 -8.85947)
(9.07157e-16 41.2352 -9.79383)
(-3.31805e-15 48.9725 -12.0622)
(-7.60042e-15 68.0582 -13.8591)
(-7.25976e-15 86.4194 -14.2774)
(-3.10851e-15 104.474 -10.9765)
(-1.66333e-13 144.116 1.9997)
(4.39624e-20 15.3579 2.0983)
(2.56622e-20 20.971 7.36563)
(7.05494e-21 24.3356 9.30964)
(-2.58237e-22 25.3933 10.5428)
(1.40365e-22 25.2922 10.9371)
(9.28907e-21 25.4353 12.0196)
(2.66727e-20 25.7408 13.3513)
(-1.13132e-19 26.4648 15.2844)
(-1.55605e-18 27.351 17.4989)
(-9.02506e-18 28.2527 20.1583)
(-3.65537e-17 28.963 23.3199)
(-1.158e-16 29.3521 27.2331)
(-3.00412e-16 29.3195 32.1969)
(-6.52016e-16 28.811 38.4567)
(-1.19543e-15 27.8258 45.9426)
(-1.86295e-15 26.5915 54.1237)
(-2.49543e-15 25.4674 62.1926)
(-2.92794e-15 24.7609 69.5195)
(-3.08456e-15 24.5955 75.8959)
(-2.99252e-15 24.9188 81.3892)
(-2.73128e-15 25.6329 86.1056)
(-2.38046e-15 26.7044 90.1191)
(-1.99659e-15 28.2047 93.5471)
(-1.61092e-15 30.2812 96.6125)
(-1.23921e-15 33.1328 99.6101)
(-8.91892e-16 37.0581 102.87)
(-5.74678e-16 42.5578 106.791)
(-2.81831e-16 50.3614 111.882)
(1.02389e-18 61.0197 118.51)
(2.41182e-16 72.995 125.15)
(1.93605e-16 77.9828 124.286)
(-8.47205e-16 56.7638 97.6105)
(-3.32899e-15 -3.74665 26.4271)
(-3.87623e-15 -34.2551 -1.05361)
(-4.27024e-15 -39.8947 0.867523)
(-4.96219e-15 -49.1431 -1.7689)
(-5.50859e-15 -60.6642 -1.24046)
(-5.579e-15 -71.4004 -1.78697)
(-5.0588e-15 -80.7629 -2.79367)
(-4.07174e-15 -82.5242 -4.80332)
(-2.67183e-15 -79.6777 -5.17184)
(-1.47403e-15 -77.2269 -6.36941)
(-4.72121e-16 -74.2066 -6.92988)
(-3.1238e-17 -78.2796 -8.36646)
(3.46489e-17 -86.8971 -11.0491)
(-7.90831e-18 -87.2979 -14.2913)
(-8.03434e-17 -70.4307 -15.7243)
(-1.03623e-16 -44.2969 -14.3082)
(-6.70318e-17 -25.06 -11.953)
(-1.60252e-17 -31.8356 -12.0697)
(5.0757e-19 -54.7937 -14.1276)
(-6.83331e-20 -69.9722 -15.9553)
(-1.35263e-18 -72.6483 -17.042)
(-1.42375e-18 -74.2725 -17.8886)
(-9.11425e-19 -88.6827 -20.8465)
(-3.94434e-19 -109.194 -25.1621)
(-9.34138e-20 -119.876 -28.8093)
(3.36292e-20 -113.037 -30.3722)
(7.20741e-20 -92.0078 -29.8228)
(7.61877e-20 -65.9541 -27.9725)
(7.64829e-20 -40.848 -26.4438)
(7.82718e-20 -18.2792 -25.6888)
(5.89753e-20 -0.043953 -24.1033)
(2.771e-20 9.2653 -19.651)
(6.02594e-21 9.14827 -14.9862)
(-6.2906e-21 7.65643 -13.0106)
(-2.97311e-19 10.3597 -12.657)
(1.50039e-18 19.6307 -12.7484)
(-5.5647e-18 30.4167 -12.9652)
(1.9093e-17 36.6199 -11.1571)
(-2.31043e-17 39.215 -8.72455)
(-1.78222e-16 40.7462 -7.88387)
(3.8083e-16 41.3999 -8.6587)
(7.76525e-16 41.4164 -9.42592)
(-3.92875e-15 49.2358 -11.5217)
(-8.25947e-15 68.2696 -13.5001)
(-7.46534e-15 86.3239 -14.03)
(-1.5478e-15 103.212 -11.3295)
(-1.6102e-13 142.699 2.44311)
(4.45225e-20 14.7801 1.6563)
(2.57112e-20 20.2133 6.69793)
(5.44126e-21 23.9812 8.91427)
(-1.45091e-21 25.2152 10.378)
(8.19402e-22 25.1258 10.8691)
(1.41407e-20 25.1701 12.0875)
(3.11419e-20 25.3809 13.576)
(-2.35528e-19 26.0115 15.6903)
(-2.56641e-18 26.8186 18.0876)
(-1.37751e-17 27.6177 20.946)
(-5.2724e-17 28.1895 24.3556)
(-1.58641e-16 28.3803 28.6124)
(-3.90978e-16 28.092 34.0366)
(-8.04942e-16 27.3142 40.8209)
(-1.39771e-15 26.1282 48.7534)
(-2.06308e-15 24.8358 57.1519)
(-2.62434e-15 23.8018 65.1745)
(-2.93774e-15 23.2706 72.2846)
(-2.96857e-15 23.2965 78.3919)
(-2.7757e-15 23.7968 83.6226)
(-2.45134e-15 24.6723 88.0924)
(-2.07571e-15 25.8861 91.861)
(-1.70113e-15 27.4916 95.0166)
(-1.35259e-15 29.6165 97.7508)
(-1.03745e-15 32.449 100.347)
(-7.55944e-16 36.2771 103.157)
(-5.04372e-16 41.5821 106.63)
(-2.71638e-16 49.0987 111.359)
(-3.90731e-17 59.581 117.942)
(1.81822e-16 72.2915 125.547)
(2.11334e-16 80.5609 127.999)
(-5.89604e-16 66.386 108.68)
(-2.87107e-15 12.0241 45.5278)
(-4.03814e-15 -31.1944 -4.68117)
(-4.27373e-15 -39.9661 0.798218)
(-4.95937e-15 -48.9689 -2.35575)
(-5.50676e-15 -60.6004 -1.44725)
(-5.57984e-15 -71.1792 -1.77629)
(-5.06324e-15 -80.4087 -2.6975)
(-4.08125e-15 -82.248 -4.60407)
(-2.68606e-15 -79.5014 -4.954)
(-1.48693e-15 -77.0716 -6.17199)
(-4.83439e-16 -74.0496 -6.76066)
(-3.47607e-17 -77.9313 -8.21568)
(3.54908e-17 -86.368 -10.9198)
(-6.14111e-18 -86.8679 -14.2024)
(-7.82847e-17 -70.4423 -15.7104)
(-1.03738e-16 -44.7056 -14.3969)
(-7.01332e-17 -25.4363 -12.0022)
(-1.81454e-17 -31.8809 -11.9486)
(3.41497e-19 -54.6038 -14.0652)
(8.17965e-20 -69.823 -15.9538)
(-1.3113e-18 -72.5692 -17.0488)
(-1.43613e-18 -74.0289 -17.7641)
(-9.33298e-19 -88.0853 -20.7107)
(-4.09396e-19 -108.487 -25.1352)
(-1.00225e-19 -119.385 -28.8983)
(3.13839e-20 -112.912 -30.5252)
(7.17436e-20 -92.1925 -29.9772)
(7.64208e-20 -66.2401 -28.0877)
(7.70659e-20 -41.0721 -26.5067)
(7.64506e-20 -18.4792 -25.5927)
(5.75171e-20 -0.634732 -24.2437)
(2.72664e-20 8.13643 -19.9074)
(7.75459e-21 8.21768 -15.4342)
(-1.93624e-21 7.29511 -13.5374)
(-2.98912e-19 10.3084 -13.0483)
(1.28054e-18 19.6537 -13.098)
(-5.31131e-18 30.2169 -13.1102)
(1.95873e-17 36.145 -10.804)
(-3.2513e-17 38.8441 -8.37257)
(-1.71055e-16 40.724 -7.72137)
(4.12525e-16 41.5578 -8.49981)
(5.38805e-16 41.7446 -9.03736)
(-4.64338e-15 49.7009 -11.0531)
(-8.97387e-15 68.5439 -13.2357)
(-7.64215e-15 86.0679 -13.8782)
(2.43094e-16 101.5 -11.8013)
(-1.53593e-13 140.992 1.21278)
(4.49416e-20 14.2907 1.39316)
(2.57952e-20 19.5173 6.0829)
(3.43839e-21 23.584 8.49341)
(-3.2413e-21 25.0085 10.1887)
(1.79496e-21 24.9416 10.7889)
(2.09019e-20 24.8904 12.1561)
(3.09514e-20 25.0086 13.8183)
(-4.51527e-19 25.5513 16.1188)
(-4.1405e-18 26.2837 18.6997)
(-2.06906e-17 26.981 21.7612)
(-7.49282e-17 27.4076 25.438)
(-2.14033e-16 27.39 30.0747)
(-5.00419e-16 26.8452 35.998)
(-9.75517e-16 25.8259 43.314)
(-1.60161e-15 24.504 51.6422)
(-2.23657e-15 23.2365 60.1609)
(-2.70111e-15 22.359 68.04)
(-2.88689e-15 22.0316 74.867)
(-2.80248e-15 22.2453 80.6648)
(-2.53069e-15 22.9034 85.6021)
(-2.16717e-15 23.9183 89.7971)
(-1.78613e-15 25.2595 93.3002)
(-1.43261e-15 26.9695 96.1791)
(-1.1252e-15 29.1566 98.5945)
(-8.64844e-16 31.9896 100.804)
(-6.44595e-16 35.7353 103.158)
(-4.54267e-16 40.8464 106.128)
(-2.79658e-16 48.0333 110.364)
(-1.00144e-16 58.1444 116.652)
(8.86097e-17 71.0424 124.808)
(1.69396e-16 81.6316 130.022)
(-4.02715e-16 73.9746 117.563)
(-2.4935e-15 27.5772 61.6916)
(-4.45457e-15 -24.8703 -10.0597)
(-4.30364e-15 -40.4015 -0.122838)
(-4.95441e-15 -48.8645 -2.94865)
(-5.50455e-15 -60.6984 -1.71612)
(-5.58068e-15 -71.0874 -1.7416)
(-5.06747e-15 -80.1693 -2.56539)
(-4.09029e-15 -82.0509 -4.36148)
(-2.69963e-15 -79.3456 -4.68853)
(-1.49941e-15 -76.9002 -5.93244)
(-4.94501e-16 -73.8456 -6.5565)
(-3.83637e-17 -77.525 -8.03322)
(3.62776e-17 -85.7892 -10.7551)
(-4.39717e-18 -86.3962 -14.0811)
(-7.60952e-17 -70.4072 -15.6823)
(-1.03723e-16 -45.0418 -14.5118)
(-7.29577e-17 -25.6386 -12.1526)
(-2.02454e-17 -31.623 -11.9105)
(1.28025e-19 -54.1752 -14.0049)
(2.33491e-19 -69.5188 -15.9312)
(-1.26392e-18 -72.3961 -17.0512)
(-1.44738e-18 -73.6728 -17.6434)
(-9.55593e-19 -87.3467 -20.5731)
(-4.24971e-19 -107.666 -25.1057)
(-1.07415e-19 -118.849 -28.9915)
(2.89928e-20 -112.816 -30.6953)
(7.13736e-20 -92.4582 -30.1609)
(7.66399e-20 -66.6174 -28.2435)
(7.75977e-20 -41.3524 -26.5834)
(7.53278e-20 -18.7198 -25.6545)
(5.62009e-20 -1.11691 -24.3029)
(2.66887e-20 7.43866 -20.1102)
(9.21361e-21 7.77828 -15.9378)
(1.88258e-21 7.13238 -14.1418)
(-2.74508e-19 10.2537 -13.4841)
(1.02137e-18 19.6481 -13.4729)
(-4.86589e-18 29.9528 -13.1594)
(1.93006e-17 35.6652 -10.2704)
(-4.44775e-17 38.5633 -7.8722)
(-1.59794e-16 40.7634 -7.46695)
(4.14628e-16 41.6684 -8.24384)
(2.10919e-16 41.9657 -8.62815)
(-5.34412e-15 50.1012 -10.7529)
(-9.61618e-15 68.8403 -13.1826)
(-7.95435e-15 85.9742 -13.8336)
(1.53488e-15 100 -12.2489)
(-1.46475e-13 139.121 2.36982)
(4.52354e-20 13.815 1.22127)
(2.60761e-20 18.8285 5.52231)
(1.30129e-21 23.1459 8.05579)
(-5.60203e-21 24.7673 9.97855)
(3.19734e-21 24.7273 10.7023)
(2.99341e-20 24.5719 12.2339)
(1.96454e-20 24.5911 14.0893)
(-8.19771e-19 25.0437 16.5831)
(-6.54906e-18 25.6971 19.3528)
(-3.0603e-17 26.2804 22.6313)
(-1.04945e-16 26.539 26.6079)
(-2.84441e-16 26.2846 31.6743)
(-6.30072e-16 25.464 38.1401)
(-1.16123e-15 24.2099 45.9887)
(-1.8006e-15 22.7867 54.6528)
(-2.37814e-15 21.5865 63.1979)
(-2.7286e-15 20.8925 70.8539)
(-2.78826e-15 20.7774 77.3485)
(-2.60467e-15 21.1796 82.8021)
(-2.27496e-15 21.9974 87.4115)
(-1.89103e-15 23.1563 91.2954)
(-1.51776e-15 24.6306 94.5016)
(-1.19187e-15 26.4521 97.0845)
(-9.26035e-16 28.7106 99.1752)
(-7.16506e-16 31.5559 100.999)
(-5.51846e-16 35.2316 102.884)
(-4.17917e-16 40.1578 105.303)
(-2.99259e-16 47.0105 108.94)
(-1.75637e-16 56.6921 114.732)
(-3.19793e-17 69.5703 123.068)
(7.16188e-17 82.0169 130.509)
(-2.98205e-16 80.282 124.278)
(-2.10925e-15 41.85 76.8582)
(-4.98868e-15 -16.3333 -14.9667)
(-4.33424e-15 -41.3445 -1.64654)
(-4.94581e-15 -48.8313 -3.42488)
(-5.50224e-15 -60.8623 -2.04313)
(-5.58153e-15 -71.0315 -1.68139)
(-5.07143e-15 -79.9467 -2.39618)
(-4.09871e-15 -81.8626 -4.07376)
(-2.71231e-15 -79.1822 -4.37296)
(-1.51124e-15 -76.7136 -5.64817)
(-5.0513e-16 -73.6203 -6.3133)
(-4.19899e-17 -77.0884 -7.81574)
(3.69936e-17 -85.1711 -10.556)
(-2.65298e-18 -85.8843 -13.9325)
(-7.38779e-17 -70.344 -15.6438)
(-1.03579e-16 -45.374 -14.6475)
(-7.55073e-17 -25.8839 -12.3705)
(-2.22927e-17 -31.3954 -11.9309)
(-1.27044e-19 -53.7241 -13.9458)
(3.82945e-19 -69.1815 -15.8924)
(-1.21095e-18 -72.2063 -17.0443)
(-1.45718e-18 -73.2984 -17.5386)
(-9.78128e-19 -86.5637 -20.4318)
(-4.41104e-19 -106.788 -25.0767)
(-1.14962e-19 -118.271 -29.0967)
(2.64629e-20 -112.699 -30.8892)
(7.09632e-20 -92.7132 -30.3749)
(7.68695e-20 -66.9858 -28.4384)
(7.78265e-20 -41.6107 -26.6543)
(7.42637e-20 -18.9543 -25.7898)
(5.50323e-20 -1.73226 -24.45)
(2.62066e-20 6.4941 -20.3633)
(1.06055e-20 7.08654 -16.3998)
(3.28493e-21 6.85093 -14.6969)
(-2.25479e-19 10.1657 -13.9282)