/*--------------------------------*- C++ -*----------------------------------*\
| =========                 |                                                 |
| \\      /  F ield         | OpenFOAM: The Open Source CFD Toolbox           |
|  \\    /   O peration     | Version:  4.1                                   |
|   \\  /    A nd           | Web:      www.OpenFOAM.org                      |
|    \\/     M anipulation  |                                                 |
\*---------------------------------------------------------------------------*/
FoamFile
{
    version     2.0;
    format      ascii;
    class       surfaceScalarField;
    location    "13";
    object      phi;
}
// * * * * * * * * * * * * * * * * * * * * * * * * * * * * * * * * * * * * * //

dimensions      [0 3 -1 0 0 0 0];

internalField   nonuniform List<scalar> 
13220
(
-906.845
2206.74
-1504.66
1898.02
-1985.12
1780.36
-2354.94
1669.71
-2630.27
1575.53
-2818.7
1488.33
-2923.51
1404.7
-2944.48
1321.17
-2880.3
1235.72
-2727.85
1147.45
-2482.47
1054.82
-2127.47
944.892
-1626.9
799.336
-956.038
629.331
343.862
423.563
1783.17
466.649
1854.92
450.457
1796.54
411.011
1709.15
378.564
1607.97
352.442
1514.44
333.178
1423.95
321.472
1332.87
314.04
1243.14
304.724
1156.76
285.385
1074.15
242.273
987.989
165.782
875.811
88.4932
706.602
432.355
181.151
1602.01
20.9998
2015.06
-139.995
1957.52
-258.59
1827.73
-362.841
1712.2
-459.875
1611.46
-546.956
1511.02
-624.482
1410.38
-690.63
1309.27
-742.959
1209.07
-777.169
1108.35
-774.553
985.349
-684.698
785.924
-432.748
454.612
-0.393328
215.924
1386.08
135.993
2094.98
1.9637
2091.54
-93.4342
1923.12
-169.547
1788.31
-229.578
1671.48
-269.456
1550.88
-289.39
1430.3
-291.375
1311.24
-275.892
1193.57
-241.716
1074.16
-184.087
927.702
-101.152
702.965
-9.78812
363.218
-10.1819
282.565
1103.5
349.127
2028.41
326.198
2114.46
305.703
1943.6
296.27
1797.73
292.73
1675.01
292.789
1550.82
296.759
1426.32
303.429
1304.56
310.863
1186.13
318.45
1066.56
320.419
925.708
297.098
726.257
215.894
444.39
205.712
248.958
854.537
359.412
1917.95
370.377
2103.49
351.066
1962.9
335.941
1812.85
324.961
1685.98
313.574
1562.2
299.496
1440.39
283.627
1320.43
265.963
1203.79
245.098
1087.43
219.168
951.654
177.864
767.579
109.174
513.097
314.886
131.333
723.195
214.626
1834.65
239.388
2078.72
217.005
1985.28
193.606
1836.24
173.882
1705.7
155.286
1580.79
137.173
1458.5
119.26
1338.34
102.924
1220.12
88.2394
1102.11
75.4768
964.386
61.4225
781.603
44.6163
529.875
359.502
36.3317
686.859
86.5109
1784.46
126.55
2038.68
116.386
1995.44
101.057
1851.57
89.2177
1717.54
77.4412
1592.57
66.6046
1469.34
57.0514
1347.89
47.8857
1229.29
40.0269
1109.97
36.2964
968.151
32.9452
784.988
28.6273
534.224
388.129
13.0316
673.822
52.0213
1745.47
96.5195
1994.18
96.6129
1995.34
87.1684
1861.01
79.2724
1725.43
72.0312
1599.8
64.2113
1477.15
56.9085
1355.19
49.9722
1236.21
42.7458
1117.2
40.0259
970.827
38.1768
786.795
29.2809
543.081
417.411
30.2984
643.528
74.2167
1701.55
113.3
1955.1
114.482
1994.16
104.629
1870.86
93.8597
1736.2
84.1747
1609.49
75.2005
1486.13
65.7659
1364.63
56.93
1245.06
48.7108
1125.41
44.8165
974.768
41.9132
789.744
29.7929
555.244
447.203
45.8532
597.689
93.0478
1654.37
126.316
1921.84
127.103
1993.39
116.178
1881.8
104.296
1748.1
92.2113
1621.59
81.002
1497.35
70.2857
1375.36
59.462
1255.9
49.9919
1134.91
46.3775
978.373
42.8494
793.272
28.1483
569.945
475.352
29.6109
568.099
61.0022
1623
81.5642
1901.29
75.9404
1999.03
60.4134
1897.35
45.2215
1763.31
33.5189
1633.32
23.0617
1507.83
14.6991
1383.75
8.64537
1261.98
3.84741
1139.72
7.64662
974.635
14.6692
786.309
15.0723
569.597
490.425
-0.380734
568.502
31.5127
1591.12
53.8415
1878.98
64.1311
1988.75
63.0186
1898.48
53.9711
1772.37
41.0281
1646.27
28.5053
1520.37
15.3714
1396.9
4.68432
1272.68
1.94331
1142.48
8.57197
968.019
16.0162
778.881
0.587828
585.041
491.013
-181.158
749.673
-302.52
1712.49
-380.084
1956.55
-445.409
2054.08
-483.378
1936.45
-503.998
1793
-507.293
1649.58
-500.074
1513.15
-481.467
1378.3
-452.165
1243.39
-386.964
1077.28
-294.121
875.184
-185.767
670.532
-93.6559
492.934
397.357
-260.183
-85.3543
-31.7748
7.51925
-65.7573
-167.004
-279.841
-383.131
-455.249
-475.253
-467.604
-417.326
-336.81
-222.315
-0.000982459
767.177
-767.179
767.175
767.173
767.172
1375.08
-607.909
1375.08
1375.08
1375.08
1598.32
-223.247
1598.32
1598.32
1612.44
-14.1234
1612.44
1612.44
1612.44
1594.19
18.2413
1594.19
1594.19
1541.41
52.7833
1541.4
1541.4
1541.4
1492.02
49.3772
1492.02
1492.02
1492.02
1452.33
39.6895
1452.32
1452.32
1380.29
72.0328
1380.29
1380.29
1380.28
1247.82
132.46
1247.82
1247.82
1083.19
164.625
1083.19
1083.19
1083.19
921.213
161.971
921.211
921.209
921.208
779.09
142.116
779.088
779.086
654.396
124.688
654.394
654.392
654.39
558.056
96.3322
558.053
558.052
558.049
480.304
77.7437
480.301
480.3
410.119
70.1778
410.117
410.115
410.113
340.221
69.8885
340.219
340.215
218.039
122.175
218.035
218.033
218.029
-149.007
367.034
-149.012
-149.014
-149.019
-797.657
648.64
-797.662
-797.658
-1727.67
930.004
-1727.66
-1727.66
-1704.1
-1668.29
-1640.38
-2961.39
1348.01
-2909.92
-2852.74
-2785.5
-2716.02
-2645.49
-2571.5
-2481.83
-2379.6
-4117.67
1839.23
-3994.85
-3877.15
-3759.22
-3612.48
-3463.42
-3310.81
-3149.76
-2987.17
-5230.34
2421.87
-5028.14
-4826.45
-4623.86
-4420.36
-4207.61
-3978.88
-3746.22
-3504.27
-3258.92
-5956.2
2938.62
-5687.84
-5417.9
-5145.62
-4872.61
-4599.41
-4311.12
-4006.67
-3696.57
-6657.27
3261.66
-6352.57
-6040.75
-5715.68
-5387.16
-5056.61
-4724.35
-4384.12
-4020.12
-7017.92
3351.72
-6665.06
-6311.87
-5960.5
-5594.24
-5219.6
-4842.48
-4461.36
-4079.39
-6742.2
3042.89
-6364.11
-5983.8
-5606.76
-5233.01
-4862.6
-4496.1
-4130.05
-3769.74
-3415.9
-4852.93
1787.84
-4546.07
-4245.42
-3953.89
-3667.33
-3385.18
-3134.16
-2943.28
-2750.13
-2562.31
23.6462
-2400.83
-2241.39
-2241.39
-1793.2
-448.196
-1393.24
-399.961
-1393.24
-988.753
-404.488
-988.756
-597.282
-391.476
-308.24
-289.046
-308.24
-84.4953
-223.75
72.6076
-157.103
72.6042
175.689
-103.084
175.686
232.408
-56.7202
260.996
-28.5915
260.998
274.702
-13.7067
274.705
271.804
2.89969
255.964
15.8443
255.963
226.586
29.3809
184.726
41.8585
184.73
125.642
59.0876
125.647
55.9763
69.6724
-22.7809
78.7638
-22.7789
-112.858
90.0851
-112.856
-227.038
114.187
-367.075
140.038
-367.07
-522.335
155.266
-691.506
169.175
-691.504
-869.842
178.341
-869.841
-1058.63
188.794
-1233.6
174.965
-1233.59
-1403.79
170.196
-1403.79
-1569.13
165.342
-1697.43
128.305
-1697.43
-1821.56
124.125
-1904.03
82.4779
-1904.03
-1960.09
56.0559
-1960.09
-1992.33
32.2401
-1974.56
-17.7632
-1974.56
-1919.96
-54.5977
-1919.96
-1825.37
-94.5893
-1679.62
-145.751
-1679.62
-1486.05
-193.569
-1245.42
-240.629
-1245.42
-944.103
-301.319
-944.102
-572.004
-372.096
-167.409
-404.593
-167.407
319.87
-487.275
319.872
836.492
-516.619
1491.49
-655.001
1491.49
2172.56
-681.069
2992.74
-820.173
2992.74
3875.73
-882.993
3875.73
-922.309
-1863.14
231.544
-1865.85
238.802
-1868.11
246.335
-1870.56
255.932
-1873.07
268.815
-1875.71
285.272
-1878.47
305.86
-1881.39
331.079
-1884.5
361.514
-1887.81
397.807
-1891.36
440.69
-1895.18
491.007
-1899.32
549.701
-1903.81
617.948
-1908.71
696.954
-1914.06
788.157
-1919.93
893.14
-1926.37
1013.66
-1933.47
1151.65
-1941.29
1309.1
-1949.92
1488.12
-1959.44
1690.77
-1969.94
1918.73
-1981.49
2173.25
-1994.16
2454.69
-2007.99
2762.28
-2022.97
3093.65
-2039.02
3444.47
-2055.96
3807.94
-2073.47
4173.88
-2091.01
4527.57
-2107.71
4848.26
-2122.35
5108.02
-2134.43
5272.34
-2146.27
5306.02
-2158.47
5182.6
-2140.4
4872.09
-1979.5
4240.97
-1431.31
2714
-444.114
-1122.97
-147.344
-1953.31
-403.558
-284.581
-675.647
-296.131
-788.612
2234.29
-900.541
3024.09
-1067.33
5947.29
-1305.82
8000.86
-1570.38
9559.15
-1842.6
11521.3
-2095.99
13725.2
-2288.4
15698.6
-2409.19
16738.1
-2477.36
16510.2
-2484.36
15225
-2373.17
13245.4
-2181.75
10913
-2089.3
8704.57
-2129.22
6506.71
-2230.35
4032.29
-2399
1985.73
-2511.8
397.909
-2545.95
-1643.15
-2612.16
-3924.13
-2684.89
-6129.33
-2713.19
-8123.09
-2621.01
-9569.79
-2336.11
-10005.9
-1858.48
-9087.8
-1308.18
-7044.02
-848.953
-4819.77
-513.87
-3245.56
-219.142
-2024.94
-9.40013
-609.262
75.8722
647.099
207.665
589.125
480.624
3682.03
752.709
6472.55
960.916
6992.42
3333.45
-1873.05
234.058
-1875.77
241.531
-1878.12
248.677
-1880.57
258.386
-1883.06
271.306
-1885.65
287.858
-1888.34
308.55
-1891.16
333.897
-1894.12
364.481
-1897.26
400.948
-1900.61
444.04
-1904.21
494.602
-1908.08
553.569
-1912.27
622.142
-1916.83
701.51
-1921.8
793.128
-1927.24
898.582
-1933.22
1019.64
-1939.81
1158.24
-1947.1
1316.39
-1955.18
1496.19
-1964.12
1699.72
-1974.06
1928.67
-1985.09
2184.28
-1997.36
2466.96
-2010.99
2775.92
-2026.15
3108.8
-2042.97
3461.29
-2061.54
3826.51
-2081.85
4194.18
-2103.53
4549.25
-2125.62
4870.36
-2146.58
5128.98
-2165.3
5291.06
-2181.37
5322.08
-2182.64
5183.88
-2101.5
4790.95
-1740.87
3880.35
-654.606
1627.74
46.9907
-1824.56
-208.34
-1697.98
-420.723
-72.1985
-686.193
-30.6603
-640.098
2188.19
-967.424
3351.42
-1136.69
6116.55
-1331.18
8195.34
-1590.79
9818.77
-1872.28
11802.8
-2133.25
13986.2
-2322.39
15887.8
-2427.07
16842.8
-2471.57
16554.7
-2456.14
15209.6
-2345.17
13134.4
-2187.56
10755.3
-2102.69
8619.7
-2112.54
6516.56
-2228.1
4147.85
-2395.06
2152.68
-2464.28
467.136
-2498.56
-1608.87
-2575.04
-3847.65
-2664.79
-6039.57
-2727.41
-8060.47
-2688.45
-9608.75
-2463.95
-10230.4
-2027.33
-9524.42
-1475.97
-7595.39
-985.193
-5310.55
-621.814
-3608.94
-299.615
-2347.14
-45.7263
-863.15
72.2352
529.14
181.775
479.591
452.967
3410.84
727.558
6197.96
933.685
6786.29
3384.14
-1885.88
236.885
-1888.62
244.271
-1891.02
251.075
-1893.47
260.837
-1895.95
273.781
-1898.5
290.407
-1901.13
311.185
-1903.87
336.636
-1906.73
367.346
-1909.75
403.965
-1912.96
447.245
-1916.38
498.025
-1920.05
557.245
-1924.02
626.111
-1928.33
705.812
-1933.01
797.807
-1938.12
903.698
-1943.74
1025.26
-1949.92
1164.42
-1956.76
1323.24
-1964.34
1503.77
-1972.76
1708.14
-1982.14
1938.04
-1992.61
2194.76
-2004.33
2478.68
-2017.49
2789.07
-2032.28
3123.59
-2048.92
3477.93
-2067.59
3845.19
-2088.34
4214.93
-2110.86
4571.76
-2134.28
4893.78
-2157.53
5152.23
-2180.1
5313.63
-2198.13
5340.11
-2180.7
5166.45
-2015.4
4625.65
-1451.77
3316.71
-239.935
415.904
146.673
-2211.17
-256.923
-1294.38
-425.35
96.2282
-653.156
197.146
-661.936
2196.97
-987.315
3676.8
-1174.76
6304
-1368.58
8389.16
-1624.51
10074.7
-1905.2
12083.5
-2163.72
14244.7
-2347.36
16071.4
-2443.78
16939.2
-2474.19
16585.1
-2435.06
15170.4
-2307.63
13007
-2166.47
10614.2
-2108.4
8561.64
-2130.51
6538.67
-2242.09
4259.43
-2372.7
2283.28
-2425.12
519.561
-2471.06
-1562.93
-2549.45
-3769.26
-2645.18
-5943.84
-2722.62
-7983.03
-2711.23
-9620.14
-2523.7
-10417.9
-2118.88
-9929.24
-1575.94
-8138.32
-1070.82
-5815.67
-694.89
-3984.87
-365.738
-2676.29
-74.8087
-1154.08
72.9501
381.382
150.718
401.825
414.583
3146.98
684.44
5928.1
880.78
6589.95
3444.75
-1900.03
240.146
-1902.75
246.988
-1905.15
253.472
-1907.56
263.252
-1909.99
276.21
-1912.48
292.891
-1915.04
313.745
-1917.69
339.29
-1920.46
370.116
-1923.37
406.877
-1926.45
450.323
-1929.72
501.289
-1933.22
560.744
-1936.97
629.868
-1941.03
709.871
-1945.43
802.207
-1950.23
908.494
-1955.47
1030.51
-1961.24
1170.19
-1967.61
1329.6
-1974.66
1510.83
-1982.5
1715.98
-1991.26
1946.8
-2001.09
2204.58
-2012.17
2489.76
-2024.72
2801.62
-2038.97
3137.85
-2055.21
3494.17
-2073.65
3863.63
-2094.39
4235.67
-2117.18
4594.55
-2141.47
4918.07
-2166.94
5177.7
-2192.82
5339.51
-2207.44
5354.74
-2153.75
5112.76
-1875.34
4347.24
-1102.21
2543.58
-85.3087
-600.993
52.4476
-2348.93
-257.125
-984.808
-383.839
222.943
-601.162
414.469
-692.23
2288.04
-1010.51
3995.08
-1208.37
6501.86
-1405.45
8586.23
-1660.35
10329.6
-1939.23
12362.3
-2192.76
14498.3
-2368.93
16247.6
-2456.56
17026.9
-2472.55
16601.1
-2410.19
15108.1
-2269.87
12866.7
-2146.56
10490.9
-2112.53
8527.61
-2143.22
6569.37
-2240.54
4356.75
-2338.91
2381.65
-2384.03
564.686
-2436.4
-1510.56
-2516.51
-3689.15
-2617.76
-5842.6
-2710.86
-7889.93
-2730.07
-9600.93
-2584.71
-10563.3
-2217.46
-10296.5
-1686.52
-8669.26
-1165.88
-6336.31
-773.959
-4376.79
-437.497
-3012.75
-107.67
-1483.91
85.7182
187.997
127.525
360.024
370.839
2903.66
631.188
5667.75
814.094
6407.04
3577.77
-1915.36
243.676
-1918.04
249.664
-1920.4
255.831
-1922.76
265.615
-1925.12
278.573
-1927.53
295.296
-1929.99
316.21
-1932.54
341.838
-1935.19
372.767
-1937.97
409.655
-1940.88
453.238
-1943.96
504.362
-1947.24
564.028
-1950.75
633.376
-1954.53
713.649
-1958.61
806.29
-1963.04
912.928
-1967.88
1035.34
-1973.18
1175.49
-1979.02
1335.44
-1985.49
1517.29
-1992.69
1723.18
-2000.76
1954.87
-2009.87
2213.69
-2020.21
2500.11
-2032.04
2813.45
-2045.64
3151.45
-2061.31
3509.83
-2079.31
3881.63
-2099.77
4256.13
-2122.63
4617.41
-2147.89
4943.33
-2175.88
5205.69
-2203.36
5366.98
-2204.49
5355.86
-2087.52
4995.78
-1646.29
3906.01
-588.48
1485.77
171.912
-1361.38
-72.0906
-2104.92
-290.043
-766.855
-338.954
271.854
-564.093
639.607
-733.166
2457.11
-1036.57
4298.48
-1240.77
6706.07
-1442.16
8787.62
-1696.79
10584.2
-1972.88
12638.4
-2219.71
14745.1
-2387.21
16415.1
-2465.35
17105
-2466.02
16601.7
-2381.54
15023.6
-2233.07
12718.2
-2128.58
10386.4
-2113.76
8512.79
-2146.49
6602.1
-2225.41
4435.67
-2301.41
2457.65
-2346.06
609.338
-2401.69
-1454.93
-2481.88
-3608.96
-2585.69
-5738.79
-2690.29
-7785.33
-2736.09
-9555.13
-2631.48
-10667.9
-2304.76
-10623.2
-1791.84
-9182.19
-1259.49
-6868.65
-851.448
-4784.83
-512.875
-3351.32
-149.978
-1846.81
115.3
-77.2811
124.883
350.442
324.642
2703.9
570.705
5421.69
742.914
6234.83
3665.69
-1931.73
247.078
-1934.36
252.289
-1936.68
258.152
-1939
267.932
-1941.3
280.874
-1943.62
297.621
-1945.99
318.577
-1948.41
344.265
-1950.92
375.272
-1953.52
412.257
-1956.24
455.953
-1959.09
507.217
-1962.12
567.058
-1965.35
636.6
-1968.8
717.099
-1972.51
810.005
-1976.53
916.945
-1980.89
1039.71
-1985.66
1180.26
-1990.9
1340.68
-1996.71
1523.1
-2003.19
1729.66
-2010.49
1962.17
-2018.77
2221.97
-2028.28
2509.61
-2039.27
2824.45
-2052.08
3164.26
-2067.02
3524.77
-2084.38
3898.99
-2104.37
4276.12
-2127.29
4640.32
-2153.92
4969.96
-2184.66
5236.43
-2210.8
5393.13
-2187.09
5332.15
-1986.71
4795.41
-1382.3
3301.6
-240.394
343.864
271.84
-1873.62
-117.314
-1715.77
-298.866
-585.303
-333.961
306.949
-571.879
877.526
-776.244
2661.48
-1063.62
4585.86
-1272.39
6914.83
-1478.45
8993.69
-1732.93
10838.7
-2005.22
12910.7
-2244.14
14984
-2402.29
16573.2
-2470.35
17173.1
-2454.95
16586.3
-2350.03
14918.7
-2197.92
12566.1
-2111.91
10300.4
-2110.46
8511.34
-2139.9
6631.54
-2201.56
4497.32
-2263.81
2519.91
-2309.42
654.944
-2366.16
-1398.19
-2445.32
-3529.79
-2549.57
-5634.54
-2662.61
-7672.29
-2732
-9485.73
-2667.19
-10732.7
-2383.75
-10906.7
-1894.23
-9671.71
-1353.65
-7409.23
-927.921
-5210.56
-591.323
-3687.92
-236.108
-2202.02
66.7733
-380.161
104.837
312.384
276.217
2532.53
505.375
5192.53
665.963
6074.25
3815.03
-1948.96
250.024
-1951.5
254.837
-1953.79
260.436
-1956.05
270.198
-1958.29
283.107
-1960.53
299.86
-1962.78
320.835
-1965.08
346.56
-1967.43
377.62
-1969.84
414.674
-1972.35
458.459
-1974.97
509.84
-1977.73
569.817
-1980.64
639.514
-1983.74
720.195
-1987.05
813.317
-1990.61
920.501
-1994.45
1043.55
-1998.63
1184.45
-2003.22
1345.26
-2008.29
1528.18
-2013.97
1735.34
-2020.39
1968.59
-2027.75
2229.33
-2036.29
2518.16
-2046.33
2834.48
-2058.19
3176.12
-2072.21
3538.8
-2088.72
3915.5
-2108.11
4295.51
-2131.23
4663.44
-2159.66
4998.39
-2192.62
5269.39
-2212.32
5412.83
-2150.01
5269.84
-1848.23
4493.63
-1087.85
2541.22
-131.796
-612.19
118.391
-2123.81
-134.749
-1462.63
-293.655
-426.397
-362.918
376.213
-597.888
1112.5
-813.998
2877.59
-1090.94
4862.8
-1303.3
7127.19
-1514.12
9204.51
-1768.29
11092.9
-2035.82
13178.3
-2265.98
15214.2
-2414.37
16721.6
-2471.76
17230.5
-2439.58
16554.1
-2316.28
14795.4
-2164.46
12414.3
-2095.56
10231.5
-2101.81
8517.59
-2124.77
6654.5
-2172.77
4545.32
-2227.56
2574.7
-2274
701.386
-2330.66
-1341.54
-2407.8
-3452.66
-2510.49
-5531.85
-2628.65
-7554.13
-2717.93
-9396.46
-2691.01
-10759.6
-2452.93
-11144.7
-1992.35
-10132.3
-1448.1
-7953.48
-1004.58
-5654.09
-668.244
-4024.25
-319.96
-2550.31
6.89033
-707.011
64.6621
254.613
224.267
2372.92
436.705
4980.09
586.776
5924.18
3914.53
-1966.84
252.421
-1969.28
257.28
-1971.52
262.672
-1973.72
272.4
-1975.88
285.262
-1978.02
302.002
-1980.16
322.977
-1982.32
348.718
-1984.51
379.809
-1986.74
416.906
-1989.04
460.754
-1991.42
512.219
-1993.89
572.293
-1996.48
642.102
-1999.2
722.918
-2002.09
816.198
-2005.15
923.566
-2008.43
1046.83
-2011.99
1188
-2015.85
1349.13
-2020.13
1532.45
-2024.92
1740.13
-2030.37
1974.04
-2036.7
2235.66
-2044.17
2525.63
-2053.11
2843.42
-2063.86
3186.87
-2076.77
3551.71
-2092.22
3930.96
-2110.94
4314.23
-2134.52
4687.03
-2164.97
5028.83
-2198.12
5302.55
-2202.27
5416.97
-2080.26
5147.84
-1644.37
4057.74
-712.187
1609.04
34.6103
-1358.99
-0.470124
-2088.72
-164.405
-1298.69
-293.013
-297.789
-395.179
478.379
-619.053
1336.37
-846.467
3105
-1118.63
5134.97
-1333.79
7342.35
-1549.22
9419.94
-1802.65
11346.3
-2064.61
13440.2
-2285.34
15434.9
-2423.66
16859.9
-2469.62
17276.4
-2420.04
16504.6
-2280.65
14656
-2132.36
12266
-2078.51
10177.6
-2087.61
8526.69
-2102.96
6669.86
-2141.56
4583.92
-2192.79
2625.93
-2239.45
748.05
-2295.35
-1285.64
-2369.77
-3378.23
-2469.32
-5432.3
-2589.58
-7433.87
-2694.8
-9291.24
-2703.18
-10751.2
-2511.79
-11336.1
-2085.46
-10558.6
-1542.48
-8496.45
-1081.12
-6115.45
-742.513
-4362.86
-399.763
-2893.06
-43.9744
-1062.8
20.9497
189.696
167.819
2226.05
366.057
4781.86
508.119
5782.11
4018.06
-1985.24
254.394
-1987.57
259.61
-1989.75
264.851
-1991.88
274.528
-1993.94
287.331
-1995.98
304.043
-1998.01
325
-2000.03
350.737
-2002.05
381.835
-2004.1
418.951
-2006.17
462.831
-2008.3
514.341
-2010.47
574.471
-2012.72
644.347
-2015.05
725.245
-2017.47
818.624
-2020.02
926.11
-2022.7
1049.52
-2025.58
1190.87
-2028.67
1352.23
-2032.09
1535.86
-2035.92
1743.96
-2040.32
1978.45
-2045.53
2240.87
-2051.81
2531.91
-2059.51
2851.12
-2068.97
3196.32
-2080.54
3563.28
-2094.76
3945.18
-2112.88
4332.36
-2137.35
4711.5
-2169.74
5061.21
-2199.56
5332.37
-2176.89
5394.3
-1976.32
4947.27
-1400.62
3482.04
-398.485
606.908
138.749
-1896.22
-70.2917
-1879.68
-196.74
-1172.25
-292.565
-201.964
-407.913
593.727
-639.777
1568.23
-878.373
3343.6
-1146.55
5403.15
-1364.2
7560
-1583.73
9639.46
-1835.89
11598.5
-2091.56
13695.9
-2302.34
15645.7
-2430.26
16987.8
-2463.85
17310
-2396.43
16437.1
-2243.45
14503
-2101.3
12123.8
-2060.01
10136.3
-2068.14
8534.82
-2076.24
6677.95
-2109.4
4617.08
-2159.2
2675.74
-2205.51
794.358
-2260.27
-1230.88
-2331.59
-3306.91
-2426.84
-5337.05
-2546.44
-7314.27
-2663.52
-9174.15
-2703.89
-10710.8
-2559.67
-11480.4
-2172.67
-10945.6
-1636.52
-9032.6
-1157.72
-6594.25
-814.32
-4706.26
-479.909
-3227.47
-106.614
-1436.09
-26.589
109.669
106.854
2092.61
294.257
4594.45
429.435
5646.94
4075.4
-2004.07
256.155
-2006.29
261.83
-2008.4
266.959
-2010.44
276.571
-2012.42
289.306
-2014.35
305.973
-2016.24
326.893
-2018.11
352.606
-2019.96
383.687
-2021.81
420.793
-2023.65
464.672
-2025.49
516.189
-2027.35
576.331
-2029.23
646.226
-2031.14
727.151
-2033.08
820.565
-2035.07
928.097
-2037.12
1051.57
-2039.27
1193.02
-2041.54
1354.5
-2044.03
1538.35
-2046.83
1746.76
-2050.12
1981.74
-2054.11
2244.86
-2059.09
2536.9
-2065.39
2857.42
-2073.34
3204.27
-2083.33
3573.27
-2096.23
3958.08
-2114.07
4350.19
-2139.98
4737.41
-2173.52
5094.76
-2194.55
5353.4
-2132.46
5332.21
-1840.25
4655.05
-1147.44
2789.23
-251.992
-288.54
57.2875
-2205.5
-97.6156
-1724.78
-228.718
-1041.14
-301.088
-129.593
-415.516
708.154
-661.667
1814.39
-913.164
3595.09
-1174.51
5664.49
-1394.84
7780.34
-1617.62
9862.24
-1867.89
11848.7
-2116.62
13944.6
-2317.04
15846.1
-2434.13
17104.9
-2454.3
17330.2
-2368.93
16351.8
-2205.05
14339.1
-2071.01
11989.8
-2039.57
10104.9
-2043.92
8539.16
-2045.99
6680.02
-2076.92
4648.01
-2126.25
2725.06
-2171.77
839.884
-2225.18
-1177.47
-2293.33
-3238.76
-2383.62
-5246.76
-2500.28
-7197.62
-2625.15
-9049.28
-2693.56
-10642.4
-2596.06
-11577.9
-2253.01
-11288.7
-1729.85
-9555.76
-1234.68
-7089.42
-883.643
-5057.3
-561.846
-3549.26
-199.614
-1798.33
-90.7463
0.807925
42.1434
1959.72
221.99
4414.61
350.534
5518.39
4124.62
-2023.3
257.876
-2025.42
263.946
-2027.43
268.976
-2029.38
278.516
-2031.24
291.171
-2033.05
307.777
-2034.8
328.643
-2036.5
354.308
-2038.16
385.346
-2039.78
422.414
-2041.37
466.258
-2042.92
517.743
-2044.44
577.853
-2045.93
647.715
-2047.39
728.607
-2048.81
821.989
-2050.21
929.491
-2051.58
1052.95
-2052.96
1194.4
-2054.36
1355.91
-2055.87
1539.86
-2057.59
1748.48
-2059.68
1983.82
-2062.36
2247.54
-2065.9
2540.44
-2070.6
2862.11
-2076.77
3210.45
-2085.01
3581.51
-2096.73
3969.8
-2114.87
4368.33
-2142.53
4765.07
-2174.88
5127.11
-2178.37
5356.89
-2060.33
5214.17
-1660.12
4254.83
-871.612
2000.73
-140.075
-1020.08
-12.5751
-2333
-110.314
-1627.04
-255.668
-895.79
-323.226
-62.0358
-436.248
821.176
-686.832
2064.97
-950.021
3858.28
-1202.71
5917.18
-1425.79
8003.42
-1650.83
10087.3
-1898.55
12096.5
-2139.69
14185.8
-2329.48
16035.9
-2435.2
17210.6
-2440.87
17335.9
-2337.81
16248.7
-2165.88
14167.2
-2041.22
11865.1
-2016.74
10080.4
-2015.44
8537.87
-2013.2
6677.78
-2044.2
4679.01
-2093.26
2774.12
-2137.71
884.34
-2189.64
-1125.54
-2254.87
-3173.53
-2340.04
-5161.58
-2452.03
-7085.63
-2580.82
-8920.49
-2672.77
-10550.5
-2620.53
-11630.1
-2325.45
-11583.8
-1821.91
-10059.3
-1312.28
-7599.05
-950.558
-5419.02
-643.516
-3856.31
-311.478
-2130.36
-154.122
-156.551
-25.3389
1830.94
149.464
4239.81
275.902
5391.96
4159.89
-2042.9
259.627
-2044.91
265.954
-2046.81
270.88
-2048.64
280.342
-2050.38
292.907
-2052.03
309.436
-2053.62
330.229
-2055.14
355.825
-2056.59
386.795
-2057.97
423.794
-2059.28
467.568
-2060.51
518.98
-2061.67
579.012
-2062.75
648.787
-2063.73
729.586
-2064.6
822.867
-2065.38
930.264
-2066.04
1053.61
-2066.61
1194.96
-2067.11
1356.4
-2067.6
1540.35
-2068.17
1749.05
-2068.97
1984.63
-2070.21
2248.77
-2072.1
2542.34
-2074.93
2864.94
-2079.1
3214.62
-2085.58
3587.99
-2096.59
3980.81
-2115.78
4387.51
-2144.85
4794.13
-2171.53
5153.79
-2145.73
5331.09
-1953.44
5021.88
-1429.84
3731.24
-578.224
1149.11
-26.1219
-1572.18
-62.6375
-2296.48
-135.784
-1553.9
-275.471
-756.103
-341.944
4.43729
-467.198
946.43
-720.222
2317.99
-986.97
4125.03
-1231.67
6161.89
-1456.99
8228.73
-1683.28
10313.6
-1927.75
12340.9
-2160.73
14418.8
-2339.66
16214.8
-2433.36
17304.3
-2423.54
17326
-2303.47
16128.7
-2126.34
13990
-2011.59
11750.4
-1991.1
10059.9
-1983.28
8530.05
-1978.59
6673.08
-2010.97
4711.39
-2059.52
2822.67
-2102.68
927.5
-2153.09
-1075.14
-2215.86
-3110.75
-2296.24
-5081.2
-2402.49
-6979.38
-2531.7
-8791.28
-2642.32
-10439.9
-2632.81
-11639.6
-2388.92
-11827.6
-1911.98
-10536.2
-1390.76
-8120.26
-1014.91
-5794.88
-721.436
-4149.78
-412.167
-2439.63
-217.688
-351.027
-94.0363
1707.29
76.7608
4069.01
202.486
5266.23
4168.81
-2062.86
261.393
-2064.75
267.843
-2066.51
272.648
-2068.2
282.029
-2069.79
294.493
-2071.28
310.93
-2072.68
331.632
-2074
357.138
-2075.22
388.014
-2076.34
424.914
-2077.35
468.583
-2078.25
519.881
-2079.03
579.788
-2079.66
649.424
-2080.15
730.069
-2080.46
823.179
-2080.58
930.389
-2080.52
1053.55
-2080.24
1194.69
-2079.79
1355.95
-2079.2
1539.76
-2078.53
1748.39
-2077.92
1984.01
-2077.49
2248.35
-2077.47
2542.31
-2078.15
2865.62
-2080.21
3216.68
-2085.26
3593.03
-2096.37
3991.93
-2117.25
4408.39
-2146.15
4823.03
-2160.42
5168.07
-2092.68
5263.35
-1814.86
4744.06
-1186.98
3103.35
-387.477
349.614
-28.3237
-1931.33
-83.246
-2241.56
-167.094
-1470.05
-289.849
-633.348
-352.591
67.1793
-502.064
1095.9
-758.856
2574.78
-1023.01
4389.19
-1261.66
6400.54
-1488.33
8455.4
-1714.93
10540.2
-1955.4
12581.4
-2179.73
14643.1
-2347.53
16382.6
-2428.51
17385.3
-2402.39
17299.9
-2266.36
15992.6
-2086.73
13810.4
-1981.65
11645.3
-1962.36
10040.6
-1947.99
8515.68
-1942.56
6667.66
-1976.77
4745.61
-2024.35
2870.24
-2065.96
969.114
-2114.81
-1026.29
-2175.8
-3049.77
-2252.13
-5004.86
-2352.25
-6879.27
-2478.96
-8664.57
-2603.19
-10315.6
-2632.82
-11610
-2442.35
-12018.1
-1999.19
-10979.4
-1470.44
-8649.01
-1076.87
-6188.46
-794.595
-4432.05
-504.714
-2729.52
-289.428
-566.316
-162.821
1580.68
4.08645
3902.1
130.256
5140.06
4153.31
-2083.15
263.105
-2084.9
269.595
-2086.52
274.262
-2088.04
283.556
-2089.46
295.908
-2090.77
312.24
-2091.97
332.834
-2093.06
358.228
-2094.03
388.986
-2094.88
425.758
-2095.58
469.288
-2096.13
520.431
-2096.51
580.165
-2096.69
649.608
-2096.66
730.035
-2096.38
822.901
-2095.83
929.842
-2094.99
1052.71
-2093.83
1193.53
-2092.36
1354.48
-2090.58
1537.98
-2088.52
1746.33
-2086.26
1981.74
-2083.89
2245.99
-2081.65
2540.07
-2080.03
2864
-2080.19
3216.85
-2084.55
3597.39
-2096.8
4004.17
-2119.37
4430.97
-2144.56
4848.22
-2137.15
5160.66
-2014.24
5140.44
-1643.67
4373.5
-934.594
2394.27
-221.1
-363.88
-35.3478
-2117.09
-83.4831
-2193.43
-197.573
-1355.96
-307.808
-523.113
-371.178
130.55
-542.878
1267.6
-797.654
2829.56
-1058.35
4649.88
-1292.68
6634.87
-1519.71
8682.43
-1745.7
10766.2
-1981.48
12817.2
-2196.69
14858.3
-2353.03
16539
-2420.55
17452.8
-2377.55
17256.9
-2226.92
15842
-2047.18
13630.7
-1950.92
11549
-1930.39
10020.1
-1910.1
8495.39
-1905.34
6662.9
-1941.07
4781.34
-1987.05
2916.22
-2026.81
1008.88
-2074.07
-979.04
-2134.02
-2989.81
-2207.4
-4931.48
-2301.69
-6784.98
-2423.69
-8542.57
-2556.49
-10182.8
-2620.74
-11545.7
-2484.7
-12154.1
-2082.45
-11381.7
-1551.57
-9179.89
-1136.95
-6603.08
-862.014
-4706.98
-590.852
-3000.68
-364.106
-793.06
-231.119
1447.7
-68.5115
3739.5
64.257
5007.29
4122.98
-2103.74
264.689
-2105.33
271.186
-2106.77
275.7
-2108.11
284.902
-2109.34
297.132
-2110.44
313.345
-2111.42
333.815
-2112.27
359.078
-2112.98
389.693
-2113.53
426.309
-2113.91
469.665
-2114.09
520.613
-2114.05
580.126
-2113.76
649.317
-2113.18
729.458
-2112.28
821.999
-2111.01
928.574
-2109.34
1051.03
-2107.2
1191.39
-2104.58
1351.86
-2101.44
1534.83
-2097.75
1742.65
-2093.56
1977.55
-2088.97
2241.4
-2084.36
2535.45
-2080.59
2860.23
-2079.53
3215.79
-2084.35
3602.2
-2098.57
4018.39
-2121.48
4453.88
-2136.89
4863.63
-2096.09
5119.86
-1904.24
4948.59
-1435.09
3904.35
-679.837
1639.02
-116.226
-927.491
-41.5843
-2191.73
-85.1584
-2149.85
-230.117
-1211
-331.495
-421.735
-404.703
203.758
-591.816
1454.72
-836.909
3074.65
-1093.51
4906.48
-1324.58
6865.94
-1551.01
8908.86
-1775.56
10990.7
-2005.95
13047.6
-2211.61
15064
-2356.09
16683.4
-2409.42
17506.2
-2349.25
17196.8
-2185.61
15678.4
-2007.62
13452.7
-1918.86
11460.3
-1895.23
9996.49
-1870.06
8470.21
-1866.9
6659.74
-1903.31
4817.75
-1946.99
2959.9
-1984.56
1046.44
-2030.16
-933.435
-2089.82
-2930.16
-2161.56
-4859.73
-2250.94
-6695.6
-2366.86
-8426.65
-2503.52
-10046.2
-2596.97
-11452.3
-2515
-12236.1
-2160.45
-11736.2
-1634.18
-9706.16
-1195.88
-7041.38
-923.036
-4979.83
-670.603
-3253.11
-439.015
-1024.65
-298.651
1307.33
-140.349
3581.19
-1.61486
4868.56
4066.77
-2124.52
266.079
-2125.92
272.586
-2127.16
276.94
-2128.3
286.042
-2129.3
298.139
-2130.18
314.222
-2130.91
334.551
-2131.5
359.664
-2131.92
390.112
-2132.15
426.541
-2132.17
469.687
-2131.96
520.396
-2131.46
579.635
-2130.66
648.511
-2129.49
728.289
-2127.9
820.411
-2125.83
926.504
-2123.21
1048.4
-2119.95
1188.14
-2116
1347.91
-2111.26
1530.09
-2105.7
1737.08
-2099.34
1971.19
-2092.42
2234.48
-2085.6
2528.63
-2080.33
2854.96
-2079.21
3214.67
-2085.73
3608.73
-2101.94
4034.61
-2121.77
4473.71
-2118.71
4860.57
-2031.61
5032.77
-1759.12
4676.09
-1189.48
3334.7
-439.723
889.265
-62.1847
-1305.03
-37.2808
-2216.63
-100.879
-2086.25
-267.032
-1044.85
-351.814
-336.952
-438.203
290.147
-639.529
1656.04
-878.294
3313.42
-1128.7
5156.89
-1357.18
7094.42
-1582.15
9133.82
-1804.46
11213
-2028.79
13271.9
-2224.46
15259.6
-2356.6
16815.6
-2395.08
17544.6
-2317.75
17119.4
-2142.8
15503.4
-1967.91
13277.8
-1885.05
11377.4
-1857.09
9968.54
-1828.2
8441.32
-1827.04
6658.57
-1862.99
4853.7
-1903.63
3000.55
-1938.59
1081.4
-1982.47
-889.548
-2042.5
-2870.13
-2114
-4788.24
-2199.87
-6609.72
-2309.25
-8317.27
-2445.61
-9909.82
-2562.23
-11335.7
-2532.47
-12265.9
-2231.74
-12036.9
-1718.09
-10219.8
-1254.68
-7504.79
-977.359
-5257.15
-743.547
-3486.92
-512.347
-1255.85
-365.418
1160.41
-210.07
3425.85
-59.4058
4717.9
3989.6
-2145.34
267.223
-2146.5
273.753
-2147.51
277.947
-2148.41
286.939
-2149.16
298.893
-2149.77
314.832
-2150.22
335.004
-2150.5
359.944
-2150.59
390.199
-2150.46
426.41
-2150.08
469.307
-2149.41
519.728
-2148.41
578.633
-2147.02
647.12
-2145.18
726.445
-2142.8
818.035
-2139.8
923.509
-2136.09
1044.69
-2131.54
1183.59
-2126.05
1342.42
-2119.52
1523.56
-2111.92
1729.48
-2103.37
1962.64
-2094.34
2225.46
-2085.97
2520.26
-2080.34
2849.32
-2080.55
3214.88
-2089.56
3617.73
-2106.15
4051.2
-2116.92
4484.48
-2084.7
4828.35
-1939.8
4887.87
-1583.94
4320.23
-940.916
2691.68
-274.182
222.53
-75.0219
-1504.19
-31.8438
-2259.81
-129.704
-1988.39
-303.414
-871.135
-363.726
-276.641
-465.234
391.656
-681.807
1872.61
-921.64
3553.25
-1164.01
5399.26
-1390.28
7320.69
-1613.06
9356.6
-1832.39
11432.3
-2049.96
13489.5
-2235.18
15444.8
-2354.51
16934.9
-2377.57
17567.7
-2283.31
17025.2
-2098.76
15318.9
-1927.79
13106.8
-1849.16
11298.8
-1816.24
9935.62
-1784.74
8409.82
-1785.44
6659.27
-1819.7
4887.96
-1856.53
3037.37
-1888.45
1113.33
-1930.52
-847.482
-1991.45
-2809.2
-2064.03
-4715.66
-2148.15
-6525.61
-2251.41
-8214.01
-2384.14
-9777.09
-2517.5
-11202.3
-2536.49
-12246.9
-2294.69
-12278.7
-1802.87
-10711.6
-1314.55
-7993.11
-1025.08
-5546.62
-809.128
-3702.88
-582.772
-1482.21
-430.932
1008.57
-276.447
3271.36
-115.155
4556.61
3906.69
-2166.01
268.079
-2166.89
274.637
-2167.62
278.674
-2168.22
287.543
-2168.67
299.343
-2168.96
315.122
-2169.08
335.117
-2168.99
359.862
-2168.69
389.895
-2168.13
425.851
-2167.27
468.452
-2166.08
518.53
-2164.48
577.032
-2162.4
645.046
-2159.77
723.814
-2156.48
814.747
-2152.42
919.45
-2147.47
1039.73
-2141.48
1177.6
-2134.33
1335.28
-2125.95
1515.18
-2116.39
1719.91
-2105.97
1952.22
-2095.53
2215.02
-2086.72
2511.45
-2082.14
2844.75
-2084.81