/*--------------------------------*- C++ -*----------------------------------*\
| =========                 |                                                 |
| \\      /  F ield         | OpenFOAM: The Open Source CFD Toolbox           |
|  \\    /   O peration     | Version:  4.1                                   |
|   \\  /    A nd           | Web:      www.OpenFOAM.org                      |
|    \\/     M anipulation  |                                                 |
\*---------------------------------------------------------------------------*/
FoamFile
{
    version     2.0;
    format      ascii;
    class       volSymmTensorField;
    location    "13";
    object      R;
}
// * * * * * * * * * * * * * * * * * * * * * * * * * * * * * * * * * * * * * //

dimensions      [0 2 -2 0 0 0 0];

internalField   nonuniform List<symmTensor> 
6785
(
(0.908979 4.39997e-16 6.49044e-16 0.457905 0.233409 2.08322)
(0.000209684 9.85596e-21 1.60851e-20 0.000198078 4.92988e-06 0.000238526)
(0.000128384 -2.17794e-23 1.88844e-24 0.000128351 3.65853e-09 0.000128406)
(0.000128277 4.81021e-24 6.31626e-24 0.000128262 9.47797e-09 0.000128276)
(0.000128289 -1.43863e-23 -6.1428e-24 0.000128274 9.23379e-09 0.000128288)
(0.000128258 1.06405e-23 1.52853e-24 0.000128242 8.44514e-09 0.000128257)
(0.000128271 4.57502e-24 1.35432e-24 0.000128255 7.76607e-09 0.000128271)
(0.000128285 -1.28527e-23 -4.79834e-24 0.000128267 7.16892e-09 0.000128285)
(0.000128254 3.21801e-24 1.99864e-25 0.000128236 6.6616e-09 0.000128255)
(0.000128264 7.17967e-25 8.16343e-25 0.000128244 5.90281e-09 0.000128265)
(0.000128264 -6.30489e-24 -2.92694e-24 0.000128242 4.53397e-09 0.000128265)
(0.000128226 2.16479e-24 1.92063e-24 0.000128203 3.90483e-09 0.000128227)
(0.0001284 9.71358e-25 1.97991e-24 0.000128377 2.47561e-09 0.000128407)
(0.000303551 2.99607e-21 1.61762e-21 0.000265275 -2.70435e-05 0.000326937)
(0.420987 1.54466e-17 7.62972e-18 0.198345 -0.14122 0.589396)
(2.26923 3.85459e-16 1.90966e-15 0.749326 -0.450203 4.76475)
(0.21943 -2.91934e-19 7.61383e-17 0.0802025 -0.0520871 0.379579)
(0.0143146 -1.05273e-18 1.53873e-18 0.00872866 -0.00179812 0.0201444)
(0.000146592 -6.86061e-21 1.19159e-20 0.000113929 -1.09338e-05 0.000180141)
(6.6037e-07 -3.50906e-24 5.56019e-24 6.43457e-07 -4.13731e-09 6.75799e-07)
(4.60736e-07 -1.69561e-25 3.921e-25 4.58347e-07 1.56221e-09 4.60017e-07)
(4.33152e-07 1.61049e-24 -1.19106e-24 4.28121e-07 4.36156e-09 4.31579e-07)
(3.99212e-07 4.69035e-25 -2.67428e-25 3.90923e-07 7.84673e-09 3.96422e-07)
(3.67814e-07 -5.20603e-24 4.06673e-24 3.61047e-07 5.3763e-09 3.64802e-07)
(3.59265e-07 -8.27535e-27 -2.29609e-24 3.65568e-07 -5.19457e-09 3.58428e-07)
(3.44701e-07 -5.42843e-23 1.63071e-24 3.65559e-07 -1.18372e-08 3.45043e-07)
(2.91092e-07 -5.96823e-23 9.87078e-24 3.22403e-07 -1.43981e-08 2.90124e-07)
(2.11913e-06 3.76124e-22 -6.44756e-23 2.45374e-06 -6.02558e-07 2.11829e-06)
(0.00941917 -2.3707e-18 -2.31224e-19 0.0111803 -0.0053513 0.00934605)
(0.644107 -5.28433e-17 -4.10327e-17 0.743304 -0.556144 0.627178)
(3.70001 1.57131e-16 2.07925e-15 1.28932 -1.20558 7.08615)
(0.4528 -1.93693e-17 5.95841e-17 0.180707 -0.157017 0.762277)
(0.0226303 -9.99276e-18 5.67124e-19 0.0181189 -0.00373176 0.0302286)
(0.000244189 -3.21112e-20 -2.11457e-20 0.000225189 -3.89659e-05 0.000285983)
(1.50648e-05 1.36327e-21 -3.08212e-21 2.48388e-05 -2.13223e-05 1.73279e-05)
(0.000281631 4.01979e-20 -1.0777e-19 0.000531789 -0.000343417 0.000338632)
(0.00155548 4.0342e-19 -4.99967e-19 0.00310887 -0.00191057 0.00195187)
(0.00505248 -7.40251e-19 7.10555e-19 0.0100525 -0.00610336 0.00643943)
(0.0128117 9.79961e-19 7.0498e-19 0.0245363 -0.0148375 0.0161466)
(0.0280197 9.28158e-18 -1.55838e-18 0.0510577 -0.0304809 0.0348653)
(0.0562388 -3.80304e-18 9.09453e-18 0.0966952 -0.0575106 0.0697357)
(0.108167 -1.20302e-18 -6.80937e-18 0.17521 -0.10521 0.133419)
(0.199509 -4.22966e-17 -2.33724e-17 0.307187 -0.184111 0.240733)
(0.340308 -1.63695e-16 1.89931e-17 0.480303 -0.295036 0.387989)
(0.573913 3.48263e-17 -1.17831e-16 0.598172 -0.456297 0.575017)
(4.23226 1.44309e-16 2.41794e-15 1.53857 -1.55381 7.59738)
(0.870633 -1.24204e-16 -1.76788e-16 0.395216 -0.298495 1.53381)
(0.0945375 -9.73381e-17 -1.51059e-17 0.0871933 -0.0193935 0.129713)
(0.00216042 -9.56952e-19 -6.93791e-20 0.0022885 -0.0004812 0.00254632)
(0.000130933 -1.84992e-20 -1.95478e-20 0.000194197 -8.78043e-05 0.000152196)
(0.000607052 -1.02091e-19 7.35097e-20 0.0011491 -0.000753407 0.000759041)
(0.0030999 -1.43979e-18 -9.7978e-20 0.00608486 -0.00400874 0.00406364)
(0.00975468 -8.64062e-19 2.38899e-18 0.0189746 -0.0122789 0.0130884)
(0.0229159 -9.27677e-18 6.31547e-18 0.0428798 -0.0268533 0.0304522)
(0.0457832 -3.89279e-17 1.57023e-18 0.0816772 -0.0484724 0.0592791)
(0.0865556 -1.75841e-18 1.89218e-17 0.148216 -0.0830094 0.108997)
(0.163664 -2.03504e-18 1.87673e-17 0.272159 -0.147233 0.201453)
(0.311318 -6.56788e-16 -1.51296e-16 0.501277 -0.275217 0.379028)
(0.556491 3.41143e-16 -6.38768e-16 0.824693 -0.516418 0.683426)
(0.353353 1.43075e-15 5.46284e-16 0.416811 -0.248943 0.347221)
(3.95021 1.78085e-16 1.91809e-15 1.42822 -1.51836 6.81623)
(1.50189 -6.14007e-18 -6.81576e-16 0.690819 -0.494622 2.88795)
(0.304599 -1.9071e-16 -2.00676e-16 0.222369 -0.0769485 0.487791)
(0.0473824 -2.8739e-17 -9.9263e-18 0.0396331 -0.0160914 0.0664606)
(0.00777412 -4.558e-18 -1.63229e-18 0.00771943 -0.00367715 0.00983165)
(0.00183611 -1.25445e-18 1.31706e-19 0.00256165 -0.00150485 0.00220172)
(0.00291746 -2.83806e-18 -1.59081e-20 0.00555037 -0.00392961 0.00376335)
(0.00945102 7.64618e-18 1.16999e-18 0.0184162 -0.0126614 0.0127493)
(0.0230023 5.19727e-18 8.67653e-19 0.0434553 -0.0287409 0.0308993)
(0.0457673 -1.29289e-16 2.87561e-18 0.0830007 -0.051364 0.0596205)
(0.0836405 7.52542e-17 1.18717e-17 0.146597 -0.0837248 0.104226)
(0.153689 2.11955e-16 4.20429e-17 0.266056 -0.142186 0.183094)
(0.273423 -6.04057e-16 3.80516e-17 0.461703 -0.243648 0.316528)
(0.438617 -1.54495e-15 2.65542e-16 0.702871 -0.384064 0.492663)
(0.415653 1.61088e-15 -3.3964e-16 0.51375 -0.328518 0.413202)
(3.38367 1.09432e-16 1.51913e-15 1.13496 -1.34095 5.79846)
(2.47443 -3.0893e-17 -8.18498e-16 1.09808 -0.845665 5.16524)
(0.628181 -4.03205e-16 -5.0243e-16 0.387139 -0.1652 1.10352)
(0.131246 -1.55029e-16 -8.7355e-17 0.100656 -0.0424846 0.188812)
(0.028584 -4.02646e-17 -8.72969e-18 0.02778 -0.0120301 0.0355456)
(0.00703951 -5.50275e-18 5.09993e-19 0.00878705 -0.00415936 0.00806523)
(0.00390104 -2.04731e-18 3.18299e-19 0.00677746 -0.00438538 0.0047303)
(0.00901756 -4.75326e-18 -8.39424e-19 0.0176282 -0.0124219 0.0119217)
(0.0223245 -1.98283e-18 -4.36767e-18 0.0431306 -0.0288653 0.0295258)
(0.0446983 -5.53099e-17 1.23619e-17 0.0835633 -0.0520796 0.0571087)
(0.0804115 3.78644e-17 2.36632e-17 0.146108 -0.0842133 0.0977684)
(0.141489 -8.28648e-17 -1.23207e-17 0.253475 -0.135755 0.163227)
(0.251775 -5.86515e-16 1.93043e-16 0.436836 -0.230963 0.283276)
(0.454164 -5.07195e-16 5.39435e-16 0.754749 -0.384961 0.494259)
(0.589186 2.26196e-15 -1.4239e-15 0.597426 -0.502645 0.699879)
(2.98346 2.20042e-16 1.51341e-15 1.01853 -1.17618 5.10984)
(3.70145 5.57149e-17 -1.12165e-15 1.61068 -1.30102 8.01987)
(0.978139 -5.4618e-16 -6.69895e-16 0.558698 -0.270013 1.80383)
(0.219309 -3.12881e-16 -2.06839e-16 0.168737 -0.070194 0.319882)
(0.0536588 -7.09286e-17 -1.63553e-17 0.0568267 -0.0232779 0.0650301)
(0.014506 -1.03766e-17 3.45912e-18 0.0198603 -0.00875606 0.0161982)
(0.00594832 -1.2699e-17 1.80752e-18 0.0103162 -0.00594855 0.00698724)
(0.00933692 -1.51135e-18 -3.14231e-18 0.0183623 -0.0129835 0.0120937)
(0.0227221 1.54543e-17 -1.04361e-17 0.0447832 -0.0304302 0.0295306)
(0.0442415 -5.36767e-17 4.30623e-17 0.08417 -0.053951 0.0553771)
(0.0742896 2.52798e-17 2.62952e-19 0.13593 -0.0801998 0.0884372)
(0.124767 -1.75103e-16 -2.31481e-17 0.223586 -0.122328 0.141091)
(0.254617 -4.10493e-16 3.12081e-16 0.43316 -0.237021 0.285415)
(0.59883 2.21572e-15 -3.40862e-16 0.992151 -0.4994 0.631023)
(0.782478 5.39057e-17 -5.6463e-16 0.884462 -0.661259 0.801489)
(2.75312 4.89511e-16 1.64836e-15 1.30914 -0.892397 4.43024)
(4.48318 -5.86524e-17 -4.90943e-16 2.06135 -1.4846 9.66931)
(1.15077 -5.97861e-16 -8.7204e-16 0.664114 -0.306846 2.11945)
(0.265486 -3.83938e-16 -2.3805e-16 0.219662 -0.0828428 0.375988)
(0.0712986 -7.57695e-17 -2.37064e-17 0.085411 -0.0338808 0.0824502)
(0.021706 -3.33769e-17 4.21866e-18 0.0332631 -0.0146368 0.0240264)
(0.00845308 -1.65696e-17 5.05317e-18 0.0153357 -0.00834597 0.0100291)
(0.00986322 1.02941e-17 -2.24073e-18 0.0195038 -0.0136454 0.0126167)
(0.0217333 5.13783e-18 -1.206e-17 0.0427111 -0.0296738 0.0277476)
(0.040632 -7.70509e-17 4.79417e-17 0.0771206 -0.0495851 0.0499611)
(0.0628429 4.61492e-17 6.47365e-18 0.113896 -0.0683783 0.0735848)
(0.104448 8.43509e-18 -5.00461e-19 0.184372 -0.101766 0.116653)
(0.273875 -5.2727e-16 2.28018e-16 0.451197 -0.255194 0.308098)
(0.709573 6.91611e-16 -4.2635e-16 1.15947 -0.572468 0.718379)
(0.853511 1.61028e-16 -1.80739e-16 1.06618 -0.708658 0.704523)
(2.63598 5.12024e-16 1.73493e-15 1.30284 -0.786342 4.26033)
(4.55582 -4.59014e-17 6.00331e-17 2.15026 -1.45645 9.74799)
(1.16945 -4.51432e-16 -9.55939e-16 0.685006 -0.300616 2.13586)
(0.281129 -4.15389e-16 -2.4673e-16 0.251335 -0.0855051 0.384621)
(0.0835704 -1.14826e-16 -2.63226e-17 0.110633 -0.0441111 0.0931692)
(0.0287959 -3.0251e-17 9.04947e-19 0.0475557 -0.0216475 0.032266)
(0.0115248 -1.57469e-17 7.55314e-18 0.0216491 -0.0115655 0.0140409)
(0.0104928 7.3295e-18 3.73315e-18 0.0208071 -0.0139959 0.0133354)
(0.019457 8.11547e-18 -1.64448e-17 0.0378949 -0.0260406 0.0244349)
(0.0337035 -6.65223e-17 3.16382e-17 0.0632242 -0.0408835 0.0407274)
(0.0487636 5.23859e-18 2.04247e-17 0.0870916 -0.0524254 0.056227)
(0.0878611 4.16613e-17 5.26732e-19 0.153036 -0.0833496 0.0973646)
(0.294937 -5.34143e-16 2.16844e-16 0.472391 -0.273599 0.335316)
(0.791917 -1.52086e-15 2.94857e-16 1.26138 -0.624579 0.817605)
(0.973334 1.04264e-15 -5.45647e-16 1.01584 -0.782817 1.04661)
(2.50586 2.57791e-16 1.43271e-15 1.0926 -0.82053 4.22913)
(3.98901 1.73544e-16 -4.30758e-16 1.9506 -1.21778 8.44971)
(1.07513 -4.69138e-16 -8.6427e-16 0.641937 -0.2612 1.94353)
(0.280032 -3.87334e-16 -2.41862e-16 0.26474 -0.0805131 0.373473)
(0.0942091 -1.55448e-16 -2.19036e-17 0.132507 -0.0537115 0.10328)
(0.0374191 -5.47262e-17 -1.87612e-19 0.0644894 -0.0306526 0.0427823)
(0.0158771 -6.39909e-18 1.09452e-17 0.0303941 -0.0163164 0.0198514)
(0.0114093 1.51606e-17 2.79362e-18 0.0226229 -0.0144737 0.0144622)
(0.0166113 -4.38826e-18 -3.50065e-18 0.0320216 -0.021406 0.0205393)
(0.0259589 -5.80765e-17 2.47855e-17 0.0480496 -0.0305294 0.0308288)
(0.0360867 2.48228e-17 5.93122e-18 0.0634936 -0.0377452 0.0409813)
(0.0785813 -9.88564e-17 -7.84701e-18 0.135958 -0.0729945 0.0867501)
(0.318551 -4.60533e-16 2.11891e-16 0.501626 -0.295348 0.365244)
(0.849534 -7.7485e-16 5.09871e-16 1.33028 -0.661211 0.889289)
(1.03498 9.12684e-16 -5.92435e-16 0.980648 -0.823435 1.21175)
(2.36239 -1.20645e-16 1.20626e-15 0.822418 -0.883934 4.21201)
(3.33124 4.41824e-16 1.07487e-15 1.67381 -0.965016 7.04197)
(0.931168 -5.27449e-16 -1.06313e-15 0.569363 -0.210338 1.67187)
(0.266861 -2.80429e-16 -2.73921e-16 0.259154 -0.0705122 0.351581)
(0.1021 -1.81004e-16 -1.59242e-17 0.147142 -0.0603772 0.111567)
(0.0467796 -6.99395e-17 -1.54994e-18 0.0818441 -0.0398633 0.0543243)
(0.0217325 1.33214e-17 1.56965e-17 0.0419284 -0.0226041 0.0275347)
(0.0130177 8.9777e-19 3.98476e-18 0.0258648 -0.0156734 0.0165071)
(0.0141534 -1.27093e-17 -3.85951e-18 0.0271197 -0.017155 0.0172731)
(0.0194476 -2.38358e-17 1.2684e-17 0.0356024 -0.0219925 0.0227178)
(0.0279735 -3.36317e-17 7.85917e-18 0.0489871 -0.0281305 0.0314079)
(0.0789427 -1.71195e-16 4.55779e-17 0.137881 -0.0712954 0.0870826)
(0.346903 -8.7885e-16 2.67678e-16 0.541078 -0.322623 0.399822)
(0.894838 -3.0372e-15 1.89488e-16 1.38248 -0.690791 0.941787)
(1.08264 4.03678e-15 -1.31789e-15 0.984324 -0.870142 1.3009)
(2.22393 -6.55966e-17 8.37414e-16 0.635264 -0.896446 4.10744)
(2.75724 -1.24514e-16 2.73218e-15 1.41963 -0.745593 5.85051)
(0.793265 -4.39772e-16 -7.06526e-16 0.490006 -0.16902 1.43541)
(0.243695 -1.7957e-16 -2.37097e-16 0.237494 -0.0582151 0.320458)
(0.106114 -3.24826e-16 3.5938e-18 0.154264 -0.0641547 0.115955)
(0.0562596 -1.06537e-16 1.58276e-17 0.0994661 -0.0495234 0.0658229)
(0.0286495 8.12423e-17 1.12514e-17 0.0554691 -0.0300632 0.0364614)
(0.0152304 -1.28544e-17 1.24071e-17 0.0302438 -0.0175302 0.0193265)
(0.0121542 -2.24044e-17 3.66375e-18 0.023069 -0.0139704 0.0146629)
(0.0152041 -1.55133e-18 5.36525e-18 0.02772 -0.0161102 0.0175259)
(0.0232521 -6.82439e-17 2.92645e-17 0.0405469 -0.0224413 0.0259215)
(0.0849086 -1.74312e-16 1.12225e-16 0.14861 -0.0763161 0.0938214)
(0.378948 -1.31759e-15 3.32556e-16 0.583136 -0.35272 0.439197)
(0.931613 -5.23132e-15 5.05826e-16 1.41366 -0.711132 0.987066)
(1.08914 5.63531e-15 -2.2583e-15 0.956778 -0.869613 1.3422)
(2.0952 -6.64083e-17 4.956e-17 0.60111 -0.85342 3.85248)
(2.30286 2.4807e-16 3.43565e-15 1.22265 -0.575093 4.90862)
(0.637082 -4.01865e-16 -3.08432e-16 0.404481 -0.125633 1.15756)
(0.216351 -9.18398e-17 -1.8036e-16 0.205497 -0.0470957 0.290265)
(0.107848 -3.59062e-16 2.18174e-17 0.154251 -0.0655877 0.119159)
(0.0648173 -1.70601e-16 4.4821e-17 0.113514 -0.0571451 0.0754513)
(0.0369239 1.66476e-16 -1.08151e-17 0.0711871 -0.0392899 0.0462604)
(0.0189305 -3.70212e-17 2.74968e-17 0.03758 -0.0214391 0.0238138)
(0.0115975 -4.16855e-17 1.26825e-17 0.0220581 -0.0126574 0.0138935)
(0.0125325 2.57858e-17 -6.09042e-18 0.0228969 -0.0127653 0.014289)
(0.0219428 -9.61726e-17 4.00226e-17 0.0387146 -0.0203596 0.0244506)
(0.0976716 -2.77719e-16 1.47559e-16 0.17413 -0.0888723 0.108189)
(0.414243 -7.41006e-16 3.61537e-16 0.636128 -0.390037 0.483326)
(0.938793 -4.14638e-15 8.05885e-16 1.40883 -0.723393 0.994281)
(1.07144 4.78688e-15 -2.46116e-15 0.933215 -0.856286 1.32809)
(1.86763 -9.1703e-17 -8.7597e-18 0.590003 -0.701273 3.33881)
(1.92945 3.48631e-16 2.66591e-15 1.04492 -0.392526 4.163)
(0.475861 -3.00636e-16 -4.78066e-16 0.302113 -0.080512 0.872081)
(0.158802 -8.99818e-17 -1.0362e-16 0.153392 -0.0322249 0.205643)
(0.0937374 -2.98286e-16 4.17004e-17 0.137748 -0.0583235 0.101315)
(0.062841 -1.07557e-16 4.46038e-17 0.111213 -0.0561774 0.0730002)
(0.0379479 1.49393e-16 -2.11912e-17 0.0729185 -0.0390902 0.0473971)
(0.0197179 -5.40702e-17 3.16171e-17 0.0388841 -0.0209061 0.024741)
(0.0128931 -3.52875e-17 1.38444e-17 0.0244103 -0.013075 0.0155609)
(0.0198641 -1.86055e-17 7.76503e-18 0.0366317 -0.0197943 0.0235082)
(0.0548365 -2.84439e-16 1.3155e-16 0.0978797 -0.0548382 0.0649805)
(0.189632 -4.85142e-16 2.9407e-16 0.325736 -0.180232 0.221226)
(0.515428 -1.00674e-15 5.944e-16 0.759554 -0.470919 0.608361)
(1.02398 -2.81729e-15 6.30307e-16 1.48728 -0.771499 1.10366)
(1.16692 4.3796e-15 -3.10438e-15 1.03358 -0.953829 1.41705)
(2.40152 9.14656e-17 -4.14734e-16 0.9756 -0.9208 4.18466)
(1.70712 -4.63698e-17 3.13791e-15 0.989558 -0.486657 3.63966)
(0.466313 -2.65017e-16 -1.14233e-16 0.3077 -0.129492 0.887513)
(0.249 -1.23707e-16 -9.7151e-17 0.209868 -0.0821978 0.3832)
(0.15205 -3.90876e-16 3.58263e-17 0.187918 -0.0949148 0.196464)
(0.100129 -1.3631e-16 6.99345e-17 0.173028 -0.0986236 0.117913)
(0.0651404 1.5638e-16 -2.38357e-17 0.130219 -0.0781784 0.0766762)
(0.034773 -8.29498e-17 3.74125e-17 0.0731566 -0.0425876 0.041005)
(0.0181575 -3.97894e-17 2.32932e-17 0.0370068 -0.0179471 0.0209642)
(0.0241374 -4.73623e-17 1.01124e-17 0.0472125 -0.0227995 0.027663)
(0.0613915 -2.57439e-16 1.13082e-16 0.113559 -0.0565744 0.0693593)
(0.172466 -3.44308e-16 2.22793e-16 0.301995 -0.154985 0.189532)
(0.409734 -5.84057e-16 5.75148e-16 0.619666 -0.372282 0.461551)
(0.662002 1.77491e-16 2.59756e-16 0.933408 -0.520464 0.687691)
(0.698077 3.12346e-15 -2.32455e-15 0.569883 -0.498288 0.805418)
(0.165421 2.03389e-18 6.63642e-17 0.212741 0.00327132 0.190552)
(0.129934 1.56654e-18 8.03145e-17 0.15745 0.00998558 0.15234)
(0.124886 -1.21481e-18 6.0579e-17 0.141587 0.00979912 0.162033)
(0.117135 -4.42008e-18 5.86864e-17 0.126441 0.00654386 0.161584)
(0.107671 -7.90632e-18 5.73451e-17 0.11186 0.00162683 0.152113)
(0.0818871 -2.38584e-17 7.78742e-17 0.0829428 -0.00795665 0.111369)
(0.0898324 -1.6838e-17 5.77995e-17 0.0848812 -0.0110068 0.123172)
(0.0936338 -2.04857e-17 5.57598e-17 0.08543 -0.0136402 0.128814)
(0.0948737 -1.94201e-17 5.26866e-17 0.084817 -0.0131047 0.130393)
(0.0866846 -4.79312e-17 7.629e-17 0.0764132 -0.0156306 0.118227)
(0.0970195 -4.20999e-17 4.37303e-17 0.0831994 -0.016604 0.128179)
(0.102998 -3.59967e-17 3.45033e-17 0.0875327 -0.0181478 0.132992)
(0.105422 -3.19644e-17 4.67381e-17 0.0903546 -0.0232651 0.128544)
(0.118858 -1.76119e-17 2.63465e-17 0.100179 -0.0238323 0.142978)
(0.127468 -9.30991e-18 2.48953e-17 0.106811 -0.0266572 0.151595)
(0.133034 -6.00224e-18 2.44532e-17 0.111579 -0.0265081 0.155212)
(0.130831 9.8456e-20 4.42979e-17 0.109466 -0.028824 0.144914)
(0.143795 -8.66212e-19 2.62315e-17 0.118003 -0.026028 0.163263)
(0.152318 -4.17403e-18 2.50751e-17 0.12635 -0.024094 0.167998)
(0.156764 -2.15204e-17 4.21586e-17 0.133597 -0.0279168 0.160896)
(0.175377 -1.20622e-17 2.80259e-17 0.151336 -0.0275844 0.172843)
(0.187228 -8.15673e-18 2.81361e-17 0.163233 -0.0299297 0.178598)
(0.195855 -5.21179e-18 2.56665e-17 0.172249 -0.0313021 0.181897)
(0.19868 4.76957e-18 4.56492e-17 0.174647 -0.0384508 0.178737)
(0.216379 1.38199e-17 2.65504e-17 0.194155 -0.0377282 0.183124)
(0.226813 2.42804e-17 2.38222e-17 0.206915 -0.0413079 0.183217)
(0.233465 3.654e-17 2.74716e-17 0.215146 -0.0418565 0.181688)
(0.232868 6.49618e-17 6.29785e-17 0.216212 -0.0519867 0.170526)
(0.245897 6.13776e-17 3.86903e-17 0.230661 -0.0447509 0.173952)
(0.251938 7.56917e-17 3.42762e-17 0.238245 -0.0440529 0.174093)
(0.25083 7.73466e-17 4.50299e-17 0.238979 -0.0541761 0.166266)
(0.263783 4.90283e-17 3.65231e-17 0.253335 -0.0467559 0.169923)
(0.269574 3.83253e-17 3.88002e-17 0.26034 -0.0478547 0.170407)
(0.272523 3.01439e-17 4.04752e-17 0.264117 -0.0453557 0.169143)
(0.266783 2.64202e-17 5.68277e-17 0.258881 -0.0539752 0.159176)
(0.27617 4.85994e-18 4.3457e-17 0.269068 -0.0408207 0.163761)
(0.278645 -3.83998e-18 4.19003e-17 0.27226 -0.039264 0.164256)
(0.271833 -1.104e-17 5.5e-17 0.265621 -0.0473684 0.157406)
(0.28198 -1.98806e-17 4.23132e-17 0.277371 -0.0381627 0.162535)
(0.284346 -1.66177e-17 4.14283e-17 0.280396 -0.0381671 0.163383)
(0.284757 -1.44265e-17 3.78677e-17 0.281459 -0.0373423 0.162317)
(0.275293 -1.12161e-17 4.97913e-17 0.271768 -0.0469665 0.154075)
(0.286017 -1.13176e-18 3.78396e-17 0.285071 -0.0392109 0.159966)
(0.288003 4.73827e-18 3.67615e-17 0.288036 -0.0402015 0.160917)
(0.287942 6.94051e-18 3.46642e-17 0.28872 -0.0398477 0.160211)
(0.276777 2.30762e-17 4.03345e-17 0.276454 -0.0516197 0.154152)
(0.287586 6.13144e-18 3.56488e-17 0.289875 -0.043884 0.1615)
(0.28948 -1.80458e-19 3.55366e-17 0.294107 -0.0426137 0.159795)
(0.28098 -5.46826e-19 4.77245e-17 0.28782 -0.0495573 0.152574)
(0.293302 -1.65985e-17 3.22333e-17 0.305198 -0.0377146 0.155358)
(0.295283 -1.19067e-17 3.00932e-17 0.31007 -0.0355272 0.154259)
(0.292429 -1.3559e-17 3.0034e-17 0.307056 -0.0298324 0.155731)
(0.273402 -9.19344e-18 4.08588e-17 0.28625 -0.0285686 0.153959)
(0.29022 -2.35172e-17 2.74421e-17 0.304998 -0.0246279 0.159852)
(0.293761 -2.59841e-17 2.31279e-17 0.310002 -0.0251306 0.161806)
(0.292769 -2.0229e-17 2.08838e-17 0.310444 -0.0237031 0.162)
(0.279199 4.57031e-17 2.69757e-17 0.301817 -0.0304079 0.160959)
(0.291073 1.89865e-17 1.31542e-17 0.312884 -0.0229235 0.159029)
(0.293559 2.08308e-17 9.19068e-18 0.316563 -0.0222507 0.157829)
(0.287631 6.03074e-17 -9.12993e-18 0.317638 -0.0349233 0.154467)
(0.293745 1.07773e-17 -8.89796e-18 0.318507 -0.0239016 0.153723)
(0.293951 3.44896e-17 -1.64485e-17 0.317994 -0.0241473 0.153278)
(0.290474 4.21504e-17 -2.53145e-17 0.314271 -0.0236824 0.149958)
(0.2752 3.79194e-16 -5.88621e-17 0.302363 -0.0393445 0.141893)
(0.267658 3.70919e-16 -1.62786e-17 0.291626 -0.0267705 0.134154)
(0.259528 3.63986e-16 -1.04852e-17 0.284158 -0.0280948 0.12929)
(0.234391 4.49572e-16 -5.93737e-17 0.262541 -0.0469598 0.118671)
(0.213905 2.41539e-16 -9.66235e-18 0.24096 -0.032678 0.105127)
(0.200039 2.28166e-16 -1.74708e-17 0.228748 -0.0346737 0.0984005)
(0.182638 2.3288e-16 -3.06584e-17 0.212847 -0.0359759 0.09114)
(0.147257 3.49085e-16 -9.3755e-17 0.180886 -0.0610573 0.0808499)
(0.124898 2.88289e-16 -8.20066e-17 0.158889 -0.0497553 0.0739485)
(0.113991 3.24406e-16 -1.22284e-16 0.148293 -0.0578899 0.0744892)
(0.106079 3.50304e-16 -1.77851e-16 0.141227 -0.0686236 0.0795334)
(0.101229 4.60603e-16 -2.88507e-16 0.138479 -0.109671 0.0938319)
(0.102005 3.82493e-16 -2.78712e-16 0.139652 -0.101689 0.104675)
(0.107503 4.04686e-16 -3.37182e-16 0.146073 -0.118401 0.117436)
(0.121636 4.45581e-16 -4.31339e-16 0.161936 -0.157327 0.139513)
(0.130662 3.43318e-16 -3.78658e-16 0.170201 -0.144041 0.155434)
(0.141106 3.33765e-16 -4.1282e-16 0.181386 -0.161339 0.171439)
(0.157347 2.42172e-16 -3.77198e-16 0.199117 -0.171075 0.19364)
(0.161807 1.31291e-16 -2.67822e-16 0.207763 -0.17126 0.198007)
(0.159346 3.84826e-17 -1.67643e-16 0.20993 -0.169596 0.195877)
(0.14761 -9.68536e-17 -2.80895e-17 0.202504 -0.159356 0.182286)
(0.163653 -2.06337e-16 1.01403e-17 0.228238 -0.171434 0.200736)
(0.15444 -3.24562e-16 1.13091e-16 0.224394 -0.164827 0.190659)
(0.146283 -3.89295e-16 1.7757e-16 0.215591 -0.156873 0.179583)
(0.13992 -4.02294e-16 2.05397e-16 0.208709 -0.150794 0.172396)
(0.132491 -3.97723e-16 2.23069e-16 0.199775 -0.143824 0.164615)
(0.1237 -3.87459e-16 2.37714e-16 0.188905 -0.13548 0.155497)
(0.112527 -3.65679e-16 2.44072e-16 0.174251 -0.124468 0.14319)
(0.0989303 -3.23584e-16 2.32792e-16 0.154669 -0.110235 0.126915)
(0.0848362 -2.67974e-16 2.06679e-16 0.133239 -0.0938079 0.109033)
(0.08623 -2.82942e-16 2.05736e-16 0.137269 -0.0905084 0.111685)
(0.0782026 -2.59649e-16 1.9708e-16 0.124787 -0.0822668 0.103308)
(0.0701929 -2.27207e-16 1.86519e-16 0.112661 -0.0735685 0.0936039)
(0.0609387 -1.95066e-16 1.72725e-16 0.0990955 -0.0636038 0.0815724)
(0.0574946 -1.74854e-16 1.61115e-16 0.0929979 -0.0592011 0.076639)
(0.0551557 -1.56328e-16 1.48831e-16 0.0888803 -0.0563575 0.0741161)
(0.0517547 -1.36622e-16 1.32873e-16 0.0826726 -0.0526708 0.0703187)
(0.0469103 -1.14735e-16 1.12663e-16 0.073441 -0.0480343 0.0650757)
(0.0398109 -8.88112e-17 8.31998e-17 0.0604073 -0.0414754 0.0572162)
(0.0392999 -6.98409e-17 6.54032e-17 0.0594666 -0.0392451 0.0571428)
(0.0390924 -6.17883e-17 5.94151e-17 0.058354 -0.0390445 0.0574457)
(0.0387218 -5.27332e-17 5.10922e-17 0.0570892 -0.0385929 0.0571531)
(0.038337 -4.37666e-17 4.26351e-17 0.0558621 -0.0381822 0.0568858)
(0.0376726 -3.33333e-17 3.35376e-17 0.0541502 -0.037474 0.056118)
(0.0372929 -2.34922e-17 2.60569e-17 0.052972 -0.0368969 0.0554933)
(0.0384163 -2.12655e-17 2.42082e-17 0.0545148 -0.0375474 0.0568293)
(0.0399892 -2.14176e-17 2.35285e-17 0.0567757 -0.038535 0.0589744)
(0.0413679 -2.11758e-17 2.29814e-17 0.0581488 -0.0392707 0.0609505)
(0.043154 -2.16632e-17 2.29634e-17 0.0599718 -0.0400251 0.063411)
(0.0453262 -2.95752e-17 2.39243e-17 0.0625198 -0.0414789 0.0676996)
(0.0472991 -2.92588e-17 2.22433e-17 0.065018 -0.0428387 0.0706614)
(0.049432 -2.84817e-17 1.86003e-17 0.0678457 -0.0439605 0.0734723)
(0.0518626 -2.85391e-17 1.41267e-17 0.0709868 -0.0451311 0.0767115)
(0.0546756 -2.91873e-17 8.3816e-18 0.0747596 -0.0462237 0.0803425)
(0.0579083 -2.82667e-17 1.05965e-19 0.0793991 -0.0469904 0.0841987)
(0.0611957 -2.69582e-17 -7.70009e-18 0.0837267 -0.0468802 0.088105)
(0.0646179 -2.98957e-17 -1.12539e-17 0.0871501 -0.0464297 0.0926989)
(0.0690306 -3.53268e-17 -1.30719e-17 0.0911698 -0.0460796 0.098841)
(0.0752368 -4.56507e-17 -1.60445e-17 0.0978383 -0.0492883 0.110233)
(0.0789206 -4.89558e-17 -1.6072e-17 0.101417 -0.0497176 0.115465)
(0.082422 -5.58344e-17 -1.21035e-17 0.104212 -0.0486753 0.119869)
(0.0856503 -6.49938e-17 -5.43449e-18 0.105513 -0.0467855 0.124541)
(0.0896501 -7.3853e-17 1.23095e-18 0.107453 -0.0449263 0.130663)
(0.0944933 -8.30209e-17 8.43459e-18 0.110245 -0.0427852 0.138083)
(0.100501 -9.33251e-17 1.555e-17 0.114351 -0.0403811 0.147307)
(0.106725 -1.10217e-16 2.2199e-17 0.116481 -0.0367077 0.157347)
(0.112415 -1.10307e-16 1.67841e-17 0.115847 -0.0316175 0.168439)
(0.127129 -1.18285e-16 2.80946e-17 0.126039 -0.0374299 0.196702)
(0.13372 -1.14374e-16 2.58482e-17 0.127545 -0.035551 0.209765)
(0.142299 -1.09335e-16 2.24653e-17 0.130548 -0.033407 0.2263)
(0.152036 -9.98098e-17 1.80358e-17 0.132616 -0.0303881 0.245758)
(0.162221 -8.64544e-17 1.42532e-17 0.135249 -0.0269339 0.267181)
(0.174222 -7.51094e-17 1.2456e-17 0.140198 -0.0240658 0.292903)
(0.189166 -6.30969e-17 1.12868e-17 0.147363 -0.0212845 0.32497)
(0.207776 -4.81052e-17 1.06279e-17 0.156772 -0.0184352 0.36512)
(0.232843 -2.98748e-17 1.0706e-17 0.170736 -0.0169771 0.419064)
(0.283881 -2.57955e-17 2.91687e-17 0.197758 -0.0234694 0.52087)
(0.305184 -1.7768e-17 4.21586e-17 0.208966 -0.0228094 0.567921)
(0.332609 -9.02106e-18 6.04905e-17 0.224398 -0.0249174 0.628027)
(0.363574 1.40422e-18 8.31128e-17 0.238641 -0.0271533 0.697657)
(0.400342 1.25319e-17 1.11329e-16 0.255998 -0.0308653 0.780218)
(0.443548 2.43541e-17 1.46824e-16 0.276294 -0.0368847 0.877197)
(0.478246 3.94616e-17 2.01116e-16 0.2933 -0.0404004 0.95401)
(0.518514 5.81381e-17 2.6612e-16 0.316037 -0.0438498 1.04113)
(0.569245 8.01382e-17 3.41434e-16 0.354374 -0.0496738 1.14483)
(0.632989 1.11434e-16 4.40549e-16 0.40548 -0.0647021 1.27024)
(0.801524 2.20173e-16 7.36777e-16 0.454488 -0.097814 1.60482)
(0.826468 2.46749e-16 7.02626e-16 0.473285 -0.085588 1.65327)
(0.836998 2.51668e-16 5.83675e-16 0.490264 -0.0827689 1.66798)
(0.83001 2.31822e-16 4.24346e-16 0.477294 -0.0703104 1.64904)
(0.805647 1.92446e-16 2.13967e-16 0.441422 -0.0640421 1.58849)
(0.753186 1.05601e-16 -6.4932e-17 0.37138 -0.0760606 1.45647)
(0.679553 -3.16899e-18 -2.76593e-16 0.317944 -0.0997846 1.27598)
(0.616954 -4.44228e-17 -2.88093e-16 0.30809 -0.104989 1.14942)
(0.486369 -1.47249e-17 -2.48068e-16 0.279698 -0.0620545 0.922222)
(0.413634 -2.49591e-17 -1.03324e-16 0.15284 -0.0681053 0.699501)
(0.277802 -1.80807e-17 -5.98207e-17 0.100918 -0.0335284 0.45561)
(0.0679138 9.01254e-18 -5.79192e-18 0.0416843 0.0134356 0.0832615)
(0.0476988 1.25316e-17 -7.26541e-19 0.036556 0.0106576 0.0462401)
(0.0417143 8.31856e-18 4.73881e-18 0.036614 0.0144962 0.0284462)
(0.0456639 1.45374e-17 1.21258e-17 0.0422114 0.0148362 0.0268159)
(0.0450796 9.65375e-18 1.40429e-17 0.0416601 0.0168588 0.026257)
(0.047272 1.42242e-17 1.13453e-17 0.0431426 0.0154132 0.0269303)
(0.0466293 4.16391e-18 8.36739e-18 0.042372 0.01675 0.0281858)
(0.0480528 -2.09125e-18 6.23839e-18 0.0424461 0.015804 0.0303925)
(0.0503034 2.51677e-17 8.22959e-18 0.0465977 0.0153035 0.0258547)
(0.0495634 6.39891e-17 7.04783e-18 0.04699 0.0169632 0.0243279)
(0.049902 6.17642e-18 4.11501e-18 0.0469981 0.0162564 0.0242406)
(0.0499703 2.8738e-18 6.70617e-18 0.0466024 0.0155456 0.0238933)
(0.0476211 3.07726e-18 7.04346e-18 0.0437509 0.0175924 0.0230162)
(0.0479973 1.67208e-17 5.87749e-18 0.0442091 0.0149531 0.0233759)
(0.0462589 3.65094e-17 4.77828e-18 0.0432104 0.0158325 0.022902)
(0.0455369 1.32734e-17 3.89257e-18 0.0419753 0.015019 0.0231554)
(0.0446366 1.55174e-17 4.57124e-18 0.040559 0.0136948 0.0229371)
(0.041618 2.59414e-17 4.84673e-18 0.03716 0.0151064 0.022111)
(0.0415811 2.03556e-17 5.64752e-18 0.037376 0.0124819 0.0218443)
(0.0391604 2.99217e-17 3.94353e-18 0.0355996 0.0128669 0.0206427)
(0.03835 1.16548e-17 3.20494e-18 0.0341495 0.0122296 0.0206422)
(0.0387879 1.961e-18 3.35322e-18 0.0351415 0.0117348 0.0206283)
(0.0365615 1.67822e-17 3.01549e-18 0.0339403 0.0125126 0.0195867)
(0.035923 5.28405e-18 3.28178e-18 0.0330717 0.0120468 0.0195529)
(0.0355909 5.17968e-18 4.35197e-18 0.032227 0.0109839 0.0195437)
(0.032338 9.25555e-18 3.98033e-18 0.0287142 0.0120509 0.0183122)
(0.0328918 3.06079e-17 3.74693e-18 0.0295913 0.0102851 0.0185263)
(0.0304277 9.26939e-17 3.15926e-18 0.0280467 0.0106368 0.0174757)
(0.0298871 -3.74387e-18 2.66484e-18 0.0272886 0.0102733 0.0175132)
(0.0297066 -6.23427e-18 2.93676e-18 0.026509 0.00909704 0.0179053)
(0.0262427 -1.226e-17 2.84428e-18 0.022812 0.00975856 0.0166906)
(0.0267544 -1.15168e-17 2.38493e-18 0.0234095 0.00777165 0.0169373)
(0.0240273 -1.58637e-17 1.93198e-18 0.0217734 0.00751347 0.0155842)
(0.0237174 -6.69271e-18 1.82762e-18 0.0207433 0.00703462 0.0160697)
(0.0248818 -3.09891e-18 1.71992e-18 0.020859 0.00693822 0.0182043)
(0.0217895 -1.91734e-18 1.17144e-18 0.0177543 0.00718622 0.0186371)
(0.0229062 -2.28375e-18 1.04315e-18 0.0207043 0.00709331 0.0158673)
(0.0247492 -1.92312e-18 1.00203e-18 0.0221198 0.0057055 0.0159979)
(0.0211941 -1.81453e-18 6.55519e-19 0.0186708 0.00603003 0.0140286)
(0.0231123 -2.5771e-18 1.94013e-19 0.0196789 0.00523929 0.0151904)
(0.0203133 -3.33159e-18 -2.38072e-19 0.0181392 0.00582109 0.0139663)
(0.0216625 -4.18812e-18 -8.99749e-19 0.0205037 0.0055904 0.0151354)
(0.0246918 -5.13624e-18 -1.52533e-18 0.0231359 0.00488364 0.0164624)
(0.0229403 -6.54941e-18 -2.00427e-18 0.0214443 0.00542683 0.015314)
(0.0238779 -4.88254e-18 -2.37393e-18 0.0207191 0.00488281 0.0164492)
(0.0208754 -4.74318e-18 -2.86039e-18 0.0179119 0.00583967 0.0156631)
(0.0205284 -4.93699e-18 -3.49475e-18 0.0182059 0.00645411 0.0150381)
(0.0220234 -4.09628e-18 -4.08732e-18 0.0181807 0.00429239 0.0163794)
(0.0199328 -3.67141e-18 -4.58351e-18 0.0159125 0.00458456 0.0160486)
(0.0198571 -3.61757e-18 -5.29516e-18 0.0155206 0.00396533 0.0164798)
(0.0229731 -1.16078e-18 -6.0445e-18 0.0181764 0.00304723 0.0194187)
(0.0236087 1.99216e-20 -6.54367e-18 0.0195969 0.00345887 0.0188902)
(0.0256245 -1.0606e-18 -7.33765e-18 0.0200521 0.00255394 0.0204173)
(0.0245736 -2.12943e-18 -7.97581e-18 0.0186296 0.00290422 0.0201162)
(0.0243449 -1.85708e-18 -9.02323e-18 0.0173576 0.00238559 0.0214733)
(0.0266822 -7.7899e-19 -1.00909e-17 0.0185037 0.00167182 0.0237525)
(0.0275024 -2.69954e-19 -1.00712e-17 0.0204972 0.00224119 0.0232908)
(0.0294594 1.57746e-18 -1.10692e-17 0.0210065 0.000926016 0.0249397)