/*--------------------------------*- C++ -*----------------------------------*\
| =========                 |                                                 |
| \\      /  F ield         | OpenFOAM: The Open Source CFD Toolbox           |
|  \\    /   O peration     | Version:  4.1                                   |
|   \\  /    A nd           | Web:      www.OpenFOAM.org                      |
|    \\/     M anipulation  |                                                 |
\*---------------------------------------------------------------------------*/
FoamFile
{
    version     2.0;
    format      ascii;
    class       volVectorField;
    location    "28";
    object      U;
}
// * * * * * * * * * * * * * * * * * * * * * * * * * * * * * * * * * * * * * //

dimensions      [0 1 -1 0 0 0 0];

internalField   nonuniform List<vector> 
6785
(
(-3.1723e+58 1.33742e+60 -1.28456e+59)
(-6.30308e+58 2.19128e+60 -1.07314e+60)
(-7.71316e+58 2.72286e+60 -1.67693e+60)
(-8.67278e+58 3.18616e+60 -2.18651e+60)
(-9.29522e+58 3.57131e+60 -2.64572e+60)
(-9.68794e+58 3.89206e+60 -3.07149e+60)
(-9.89471e+58 4.15263e+60 -3.47781e+60)
(-9.92855e+58 4.35494e+60 -3.86982e+60)
(-9.91736e+58 4.56371e+60 -4.31946e+60)
(-9.84097e+58 4.76644e+60 -4.82083e+60)
(-9.65708e+58 4.89729e+60 -5.31124e+60)
(-9.23623e+58 4.91234e+60 -5.64017e+60)
(-8.625e+58 4.58204e+60 -5.7797e+60)
(-7.11478e+58 3.86692e+60 -4.77209e+60)
(-4.24586e+58 1.53315e+60 1.2356e+60)
(-4.4893e+58 1.34464e+60 1.59942e+60)
(-9.1275e+58 1.48203e+60 8.81467e+59)
(-1.11883e+59 1.7205e+60 4.87472e+59)
(-1.19225e+59 1.69156e+60 4.67162e+59)
(-1.17846e+59 1.52738e+60 5.1704e+59)
(-1.14815e+59 1.52738e+60 3.36063e+59)
(-1.13837e+59 1.88063e+60 -2.41595e+59)
(-1.15762e+59 2.6217e+60 -1.21975e+60)
(-1.16635e+59 3.37473e+60 -2.16563e+60)
(-1.16851e+59 4.13862e+60 -3.14215e+60)
(-1.16733e+59 4.77678e+60 -4.06187e+60)
(-1.14848e+59 5.42801e+60 -5.23826e+60)
(-1.07605e+59 5.78422e+60 -6.31532e+60)
(-8.53536e+58 5.40777e+60 -6.36641e+60)
(-4.0159e+58 3.12508e+60 -3.36338e+60)
(-4.35666e+58 7.81244e+59 2.24109e+60)
(-9.27627e+58 3.24651e+59 1.94574e+60)
(-1.1503e+59 2.55205e+59 1.45648e+60)
(-1.21867e+59 1.86294e+59 1.3826e+60)
(-1.21085e+59 2.71098e+58 1.41412e+60)
(-1.18323e+59 -1.0058e+59 1.39458e+60)
(-1.16359e+59 -1.28399e+59 1.28854e+60)
(-1.15652e+59 -9.2809e+58 1.16807e+60)
(-1.15238e+59 -2.99103e+58 1.10503e+60)
(-1.14676e+59 6.25931e+58 1.07003e+60)
(-1.14223e+59 -4.43415e+59 2.03305e+60)
(-1.28929e+59 -1.78657e+59 1.71826e+60)
(-1.37217e+59 2.78746e+60 -3.64411e+60)
(-1.32607e+59 5.89852e+60 -8.82922e+60)
(-8.72147e+58 6.18825e+60 -1.11502e+61)
(-3.52953e+58 3.07714e+59 2.02334e+60)
(-8.35727e+58 -4.52571e+59 2.39455e+60)
(-1.09338e+59 -7.34971e+59 1.95355e+60)
(-1.18969e+59 -7.42722e+59 1.74093e+60)
(-1.20188e+59 -7.91496e+59 1.65968e+60)
(-1.183e+59 -8.79489e+59 1.60139e+60)
(-1.16008e+59 -9.52917e+59 1.52604e+60)
(-1.14279e+59 -9.93087e+59 1.44126e+60)
(-1.13062e+59 -1.01788e+60 1.40078e+60)
(-1.11704e+59 -1.1387e+60 1.45189e+60)
(-1.11118e+59 -1.18457e+60 1.40559e+60)
(-1.13728e+59 -1.09876e+60 1.33071e+60)
(-1.10444e+59 -1.43264e+60 1.48316e+60)
(-1.20598e+59 1.91774e+60 -2.34714e+60)
(-1.0811e+59 6.94474e+60 -1.34386e+61)
(-2.47197e+58 7.58094e+58 1.3705e+60)
(-6.90478e+58 -7.24032e+59 2.30204e+60)
(-9.87506e+58 -1.13324e+60 2.15059e+60)
(-1.13266e+59 -1.10916e+60 1.91242e+60)
(-1.17772e+59 -1.02181e+60 1.72664e+60)
(-1.1737e+59 -9.82285e+59 1.58009e+60)
(-1.15301e+59 -9.64742e+59 1.44771e+60)
(-1.13092e+59 -9.34789e+59 1.31528e+60)
(-1.11258e+59 -9.00352e+59 1.19455e+60)
(-1.09642e+59 -8.43012e+59 1.07745e+60)
(-1.08246e+59 -1.02527e+60 1.11078e+60)
(-1.08669e+59 -2.59335e+59 2.65271e+59)
(-1.02606e+59 -1.66607e+60 1.84813e+60)
(-1.11701e+59 8.21847e+59 -3.8104e+59)
(-1.09896e+59 6.97205e+60 -1.35217e+61)
(-1.60661e+58 3.62464e+57 9.75922e+59)
(-5.55542e+58 -7.65568e+59 2.16914e+60)
(-8.78975e+58 -1.26056e+60 2.34963e+60)
(-1.0701e+59 -1.273e+60 2.21423e+60)
(-1.14961e+59 -1.12481e+60 1.99727e+60)
(-1.16104e+59 -1.00221e+60 1.80041e+60)
(-1.14301e+59 -9.2156e+59 1.64121e+60)
(-1.11756e+59 -8.43424e+59 1.49979e+60)
(-1.09536e+59 -7.7115e+59 1.3754e+60)
(-1.07695e+59 -6.80158e+59 1.26996e+60)
(-1.06012e+59 -7.0854e+59 1.18599e+60)
(-1.04094e+59 -1.49109e+59 7.92813e+59)
(-9.71842e+58 -2.00354e+60 2.60784e+60)
(-1.11745e+59 7.75769e+59 3.54293e+58)
(-1.10812e+59 7.04125e+60 -1.36935e+61)
(-9.31443e+57 -3.12509e+58 1.01477e+60)
(-4.29203e+58 -7.84468e+59 2.19189e+60)
(-7.64789e+58 -1.35806e+60 2.61477e+60)
(-9.9948e+58 -1.46969e+60 2.64851e+60)
(-1.11954e+59 -1.33672e+60 2.46418e+60)
(-1.15179e+59 -1.1745e+60 2.24092e+60)
(-1.13669e+59 -1.05512e+60 2.06288e+60)
(-1.10586e+59 -9.57735e+59 1.92866e+60)
(-1.0778e+59 -8.74485e+59 1.82391e+60)
(-1.05552e+59 -7.89942e+59 1.73683e+60)
(-1.03289e+59 -7.65781e+59 1.6726e+60)
(-1.00158e+59 -5.56498e+59 1.72878e+60)
(-9.50925e+58 -2.14121e+60 3.07617e+60)
(-1.10298e+59 5.37002e+59 4.85817e+59)
(-1.1191e+59 7.08575e+60 -1.39567e+61)
(-2.88147e+57 -4.85146e+58 1.18085e+60)
(-2.68432e+58 -7.47988e+59 2.22165e+60)
(-5.75271e+58 -1.39221e+60 2.77017e+60)
(-8.42832e+58 -1.67339e+60 3.02045e+60)
(-1.0229e+59 -1.66996e+60 2.98734e+60)
(-1.10944e+59 -1.53945e+60 2.80474e+60)
(-1.12762e+59 -1.39595e+60 2.60473e+60)
(-1.10886e+59 -1.27059e+60 2.44312e+60)
(-1.07952e+59 -1.17058e+60 2.32755e+60)
(-1.05195e+59 -1.08647e+60 2.2384e+60)
(-1.026e+59 -1.01784e+60 2.13862e+60)
(-9.92825e+58 -8.69507e+59 2.20122e+60)
(-9.4553e+58 -2.06707e+60 3.28578e+60)
(-1.07314e+59 -1.57654e+58 1.24545e+60)
(-1.12986e+59 7.13204e+60 -1.42748e+61)
(1.18641e+57 -9.79227e+58 1.70729e+60)
(-1.37455e+58 -7.48072e+59 2.48648e+60)
(-3.96836e+58 -1.40321e+60 3.03565e+60)
(-6.79291e+58 -1.80121e+60 3.45026e+60)
(-9.10252e+58 -1.93587e+60 3.60521e+60)
(-1.05174e+59 -1.88959e+60 3.53299e+60)
(-1.10908e+59 -1.76501e+60 3.36055e+60)
(-1.10829e+59 -1.6282e+60 3.1854e+60)
(-1.07995e+59 -1.50205e+60 3.04802e+60)
(-1.04752e+59 -1.40581e+60 2.94416e+60)
(-1.01816e+59 -1.30795e+60 2.82235e+60)
(-9.8904e+58 -1.11071e+60 2.75639e+60)
(-9.38588e+58 -2.0411e+60 3.57233e+60)
(-1.02926e+59 -5.02444e+59 2.26165e+60)
(-1.14164e+59 7.15472e+60 -1.46573e+61)
(4.0703e+57 -2.87949e+59 3.02045e+60)
(-5.49423e+57 -8.96812e+59 3.30599e+60)
(-2.39197e+58 -1.46751e+60 3.62106e+60)
(-4.66871e+58 -1.8438e+60 3.89224e+60)
(-6.99152e+58 -2.06187e+60 4.0426e+60)
(-8.8854e+58 -2.12469e+60 4.02516e+60)
(-1.01316e+59 -2.08206e+60 3.87624e+60)
(-1.07355e+59 -1.99231e+60 3.67483e+60)
(-1.08563e+59 -1.89638e+60 3.4824e+60)
(-1.07017e+59 -1.81654e+60 3.32529e+60)
(-1.04386e+59 -1.72993e+60 3.11093e+60)
(-1.00385e+59 -1.45837e+60 2.91879e+60)
(-9.28688e+58 -2.3243e+60 3.66909e+60)
(-9.95165e+58 -1.19209e+60 3.33993e+60)
(-1.14451e+59 7.12202e+60 -1.51565e+61)
(-1.59921e+57 -9.26412e+59 5.94354e+60)
(2.76852e+57 -9.4864e+59 4.52189e+60)
(-2.76935e+57 -1.35183e+60 4.67669e+60)
(-2.79464e+58 -1.86741e+60 5.11654e+60)
(-6.61969e+58 -2.26222e+60 5.59133e+60)
(-9.20534e+58 -2.36625e+60 5.68865e+60)
(-1.03816e+59 -2.26713e+60 5.531e+60)
(-1.06148e+59 -2.11236e+60 5.23895e+60)
(-1.03758e+59 -1.97552e+60 4.91849e+60)
(-9.98175e+58 -1.91564e+60 4.65514e+60)
(-9.59765e+58 -1.9573e+60 4.54664e+60)
(-9.35465e+58 -2.15133e+60 4.41541e+60)
(-9.37007e+58 -2.47413e+60 5.02635e+60)
(-9.9597e+58 -8.06603e+59 3.34054e+60)
(-1.15209e+59 6.83686e+60 -1.56965e+61)
(-2.50223e+58 -2.31137e+60 1.00591e+61)
(-4.46303e+58 -1.48169e+60 8.96123e+60)
(-6.70446e+58 -1.12937e+60 8.51255e+60)
(-8.39751e+58 -5.00397e+59 7.93309e+60)
(-9.49058e+58 -2.90895e+59 6.9339e+60)
(-1.00101e+59 -1.12656e+59 5.77926e+60)
(-1.02163e+59 -1.35338e+59 4.5816e+60)
(-1.03077e+59 -3.73824e+59 3.45123e+60)
(-1.03926e+59 -9.42622e+59 2.41651e+60)
(-1.04765e+59 -1.52571e+60 1.45624e+60)
(-1.05323e+59 -2.03334e+60 6.4867e+59)
(-1.03659e+59 -1.60265e+60 -2.05337e+59)
(-1.01178e+59 -1.89641e+59 -1.21357e+60)
(-1.01868e+59 2.34535e+59 -1.25862e+60)
(-1.18479e+59 5.71035e+60 -1.47819e+61)
(-3.40252e+58 1.64224e+60 1.61035e+61)
(-7.85097e+58 -4.71085e+60 1.17363e+61)
(-1.00886e+59 -5.12024e+60 8.46094e+60)
(-1.1552e+59 -9.67331e+60 3.54446e+60)
(-1.24914e+59 -9.98735e+60 3.51426e+59)
(-1.31757e+59 -1.00458e+61 -1.21789e+60)
(-1.36952e+59 -1.02349e+61 -2.05915e+60)
(-1.41002e+59 -1.0659e+61 -2.32187e+60)
(-1.43902e+59 -1.11458e+61 -1.90271e+60)
(-1.45708e+59 -1.16562e+61 -8.78495e+59)
(-1.46234e+59 -1.18003e+61 7.85649e+59)
(-1.4478e+59 -1.1741e+61 2.9056e+60)
(-1.41229e+59 -1.11932e+61 5.11301e+60)
(-1.35136e+59 -1.02393e+61 7.18245e+60)
(-1.27869e+59 -2.41545e+60 1.67819e+60)
(-7.08479e+58 -3.01766e+61 8.28887e+60)
(-1.36685e+59 -2.11422e+61 -4.25122e+60)
(-1.62266e+59 -1.38286e+61 -1.07746e+61)
(-1.779e+59 -9.48708e+60 -1.57192e+61)
(-1.87677e+59 -7.14806e+60 -1.86105e+61)
(-1.94366e+59 -5.57698e+60 -2.013e+61)
(-1.9868e+59 -5.45448e+60 -1.99235e+61)
(-2.01413e+59 -5.75833e+60 -1.83125e+61)
(-2.02654e+59 -6.91142e+60 -1.52441e+61)
(-2.02882e+59 -8.40941e+60 -1.06479e+61)
(-2.01739e+59 -1.08177e+61 -4.34046e+60)
(-1.98213e+59 -1.41262e+61 4.05689e+60)
(-1.91353e+59 -1.86224e+61 1.57378e+61)
(-1.75889e+59 -2.47296e+61 3.48578e+61)
(-1.50584e+59 -4.12479e+61 6.61136e+61)
(-2.23213e+59 -2.54936e+60 5.79183e+61)
(-2.73097e+59 6.67361e+61 -2.03657e+61)
(-2.65177e+59 6.26536e+61 -2.09745e+61)
(-2.6685e+59 7.17223e+61 -2.90825e+61)
(-2.64913e+59 7.3675e+61 -2.78518e+61)
(-2.63978e+59 7.69563e+61 -2.99011e+61)
(-2.61835e+59 7.67286e+61 -2.91052e+61)
(-2.60008e+59 7.73367e+61 -2.79116e+61)
(-2.57187e+59 7.51771e+61 -2.79927e+61)
(-2.53878e+59 7.23345e+61 -2.43454e+61)
(-2.50615e+59 6.96377e+61 -2.51108e+61)
(-2.4456e+59 6.3697e+61 -1.98166e+61)
(-2.37222e+59 6.33245e+61 -1.65499e+61)
(-2.16276e+59 6.43108e+61 -5.63311e+60)
(-1.50797e+59 6.85747e+61 1.99156e+61)
(-4.27124e+59 2.29824e+63 2.51108e+62)
(-5.11666e+59 1.15856e+62 4.93087e+62)
(-5.14109e+59 -1.0717e+62 -1.69596e+62)
(-5.28027e+59 -3.22574e+61 -1.54845e+62)
(-5.41324e+59 -1.38625e+61 -1.61846e+62)
(-6.94673e+59 -9.74931e+60 -2.05391e+62)
(-4.92711e+59 -1.84664e+61 -1.59616e+62)
(-4.56606e+59 -1.92754e+61 -1.57466e+62)
(-4.30371e+59 -2.81722e+60 -1.59089e+62)
(-6.30547e+59 3.82593e+61 -2.11178e+62)
(-4.73195e+59 2.46499e+61 -1.66172e+62)
(-4.42738e+59 3.0096e+61 -1.64046e+62)
(-6.32223e+59 8.02619e+61 -2.23289e+62)
(-4.64862e+59 6.09678e+61 -1.74984e+62)
(-4.60263e+59 7.18602e+61 -1.76294e+62)
(-4.37302e+59 7.68626e+61 -1.70015e+62)
(-6.18972e+59 1.39844e+62 -2.2076e+62)
(-4.63711e+59 1.09009e+62 -1.73878e+62)
(-4.32723e+59 1.11232e+62 -1.66965e+62)
(-6.12657e+59 1.86629e+62 -2.11081e+62)
(-4.51444e+59 1.39694e+62 -1.63257e+62)
(-4.46611e+59 1.5395e+62 -1.62326e+62)
(-4.24076e+59 1.55073e+62 -1.56613e+62)
(-6.0088e+59 2.38825e+62 -1.95441e+62)
(-4.43298e+59 1.78761e+62 -1.50587e+62)
(-4.38474e+59 1.92954e+62 -1.4903e+62)
(-4.16652e+59 1.92472e+62 -1.4369e+62)
(-5.87311e+59 2.80206e+62 -1.77114e+62)
(-4.40793e+59 2.16332e+62 -1.37365e+62)
(-4.11403e+59 2.12897e+62 -1.31395e+62)
(-5.81233e+59 3.13393e+62 -1.59551e+62)
(-4.29045e+59 2.34463e+62 -1.23033e+62)
(-4.24368e+59 2.48504e+62 -1.21671e+62)
(-4.03265e+59 2.44899e+62 -1.17625e+62)
(-5.68106e+59 3.42346e+62 -1.42218e+62)
(-4.26782e+59 2.64275e+62 -1.10485e+62)
(-3.9836e+59 2.57829e+62 -1.05985e+62)
(-5.62655e+59 3.67336e+62 -1.26282e+62)
(-4.15627e+59 2.7546e+62 -9.79436e+61)
(-4.1119e+59 2.88907e+62 -9.69863e+61)
(-3.90475e+59 2.82351e+62 -9.39776e+61)
(-5.52583e+59 3.90569e+62 -1.12007e+62)
(-4.08491e+59 2.94161e+62 -8.69379e+61)
(-4.04084e+59 3.06811e+62 -8.57485e+61)
(-3.83975e+59 2.99637e+62 -8.29787e+61)
(-5.41006e+59 4.05833e+62 -9.84871e+61)
(-4.06689e+59 3.14082e+62 -7.70425e+61)
(-3.79599e+59 3.04228e+62 -7.40535e+61)
(-5.36367e+59 4.22072e+62 -8.61484e+61)
(-3.96348e+59 3.1765e+62 -6.76846e+61)
(-3.92133e+59 3.29856e+62 -6.69217e+61)
(-3.72343e+59 3.20575e+62 -6.49061e+61)
(-5.27243e+59 4.34875e+62 -7.59574e+61)
(-3.89783e+59 3.28567e+62 -5.97014e+61)
(-3.85589e+59 3.40024e+62 -5.87246e+61)
(-3.66357e+59 3.30554e+62 -5.68412e+61)
(-5.166e+59 4.41101e+62 -6.6581e+61)
(-3.88282e+59 3.42042e+62 -5.26253e+61)
(-3.62358e+59 3.30029e+62 -5.06877e+61)
(-5.12511e+59 4.51832e+62 -5.77692e+61)
(-3.78549e+59 3.40987e+62 -4.61532e+61)
(-3.74467e+59 3.52006e+62 -4.55524e+61)
(-3.55747e+59 3.41592e+62 -4.4177e+61)
(-5.02011e+59 4.53486e+62 -5.11164e+61)
(-3.77141e+59 3.51936e+62 -4.08616e+61)
(-3.51906e+59 3.39025e+62 -3.95609e+61)
(-4.98154e+59 4.61905e+62 -4.45362e+61)
(-3.67702e+59 3.48969e+62 -3.60712e+61)
(-3.63794e+59 3.59723e+62 -3.58037e+61)
(-3.45324e+59 3.48056e+62 -3.47453e+61)
(-4.90037e+59 4.65739e+62 -4.0314e+61)
(-3.61747e+59 3.53218e+62 -3.24294e+61)
(-3.57852e+59 3.63477e+62 -3.19216e+61)
(-3.39876e+59 3.52007e+62 -3.07997e+61)
(-4.80474e+59 4.65132e+62 -3.67211e+61)
(-3.60405e+59 3.61413e+62 -2.94799e+61)
(-3.36609e+59 3.48693e+62 -2.8351e+61)
(-4.73134e+59 4.63901e+62 -3.32435e+61)
(-3.60217e+59 3.6654e+62 -2.69232e+61)
(-3.17662e+59 3.31942e+62 -2.6143e+61)
(-4.05507e+59 3.91807e+62 -2.82863e+61)
(-4.13406e+59 3.79828e+62 -2.93928e+61)
(-4.10436e+59 3.72139e+62 -3.04555e+61)
(-4.57305e+59 3.75215e+62 -2.62883e+61)
(-4.09522e+59 3.54079e+62 -2.5641e+61)
(-4.1169e+59 3.54833e+62 -2.77439e+61)
(-4.13544e+59 3.55347e+62 -2.9222e+61)
(-4.12368e+59 3.55605e+62 -2.94377e+61)
(-4.10851e+59 3.55972e+62 -2.94009e+61)
(-4.08841e+59 3.55819e+62 -2.93333e+61)
(-4.08158e+59 3.57143e+62 -2.90284e+61)
(-4.06136e+59 3.54176e+62 -3.06842e+61)
(-4.36973e+59 3.86519e+62 -1.63174e+61)
(-4.05078e+59 3.47296e+62 -2.40412e+61)
(-4.02837e+59 3.46164e+62 -2.43922e+61)
(-4.00789e+59 3.46239e+62 -2.43344e+61)
(-4.00066e+59 3.46359e+62 -2.47369e+61)
(-3.98614e+59 3.46568e+62 -2.46827e+61)
(-3.9677e+59 3.46303e+62 -2.46508e+61)
(-3.95766e+59 3.47419e+62 -2.41395e+61)
(-3.91955e+59 3.44607e+62 -2.4905e+61)
(-4.19692e+59 3.74439e+62 -8.14735e+60)
(-3.91076e+59 3.37051e+62 -1.86728e+61)
(-3.88868e+59 3.35792e+62 -1.90373e+61)
(-3.87166e+59 3.35752e+62 -1.91013e+61)
(-3.85526e+59 3.35792e+62 -1.90662e+61)
(-3.83954e+59 3.35767e+62 -1.89774e+61)
(-3.82709e+59 3.36066e+62 -1.8725e+61)
(-3.80949e+59 3.35721e+62 -1.86286e+61)
(-3.79948e+59 3.36706e+62 -1.80367e+61)
(-3.76351e+59 3.34023e+62 -1.88528e+61)
(-4.01451e+59 3.62144e+62 -4.77971e+59)
(-3.74815e+59 3.25848e+62 -1.25829e+61)
(-3.72698e+59 3.24628e+62 -1.29585e+61)
(-3.71041e+59 3.24616e+62 -1.29832e+61)
(-3.69455e+59 3.24626e+62 -1.29141e+61)
(-3.67877e+59 3.24722e+62 -1.27542e+61)
(-3.66334e+59 3.24508e+62 -1.26798e+61)
(-3.65486e+59 3.25462e+62 -1.20636e+61)
(-3.62092e+59 3.22841e+62 -1.29816e+61)
(-3.85099e+59 3.49799e+62 7.00333e+60)
(-3.59861e+59 3.14185e+62 -6.28571e+60)
(-3.57857e+59 3.12974e+62 -6.72954e+60)
(-3.56416e+59 3.1291e+62 -6.86364e+60)
(-3.54885e+59 3.12905e+62 -6.82808e+60)
(-3.53403e+59 3.13047e+62 -6.6717e+60)
(-3.51741e+59 3.1276e+62 -6.64178e+60)
(-3.5067e+59 3.13678e+62 -6.01791e+60)
(-3.4771e+59 3.11195e+62 -7.12528e+60)
(-3.68721e+59 3.37803e+62 1.43212e+61)
(-3.45202e+59 3.0236e+62 -4.57037e+59)
(-3.43256e+59 3.01121e+62 -9.21837e+59)
(-3.41696e+59 3.0118e+62 -1.04848e+60)
(-3.40255e+59 3.01023e+62 -8.63794e+59)
(-3.38864e+59 3.01139e+62 -6.01999e+59)
(-3.37236e+59 3.00945e+62 -5.66692e+59)
(-3.3625e+59 3.0193e+62 3.24718e+58)
(-3.33175e+59 2.99468e+62 -1.05584e+60)
(-3.52444e+59 3.26802e+62 2.10646e+61)
(-3.30539e+59 2.90612e+62 5.35088e+60)
(-3.28672e+59 2.89561e+62 4.83057e+60)
(-3.27179e+59 2.89692e+62 4.69289e+60)
(-3.2572e+59 2.89697e+62 4.80701e+60)
(-3.24351e+59 2.90196e+62 4.53221e+60)
(-3.22727e+59 2.89704e+62 5.73917e+60)
(-3.21114e+59 2.89902e+62 5.97207e+60)
(-3.20137e+59 2.91347e+62 6.63276e+60)
(-3.1723e+59 2.89001e+62 5.68287e+60)
(-3.34759e+59 3.19671e+62 2.6663e+61)
(-3.14633e+59 2.8158e+62 1.16288e+61)
(-3.13195e+59 2.809e+62 1.11547e+61)
(-3.11857e+59 2.81416e+62 1.10278e+61)
(-3.10422e+59 2.8182e+62 1.11696e+61)
(-3.09396e+59 2.8312e+62 1.08845e+61)
(-3.07013e+59 2.83578e+62 1.22929e+61)
(-3.01336e+59 2.83219e+62 2.03e+61)
(-2.97103e+59 2.80777e+62 2.23018e+61)
(-3.21491e+59 3.47834e+62 2.8881e+61)
(-2.9267e+59 2.86666e+62 2.66485e+61)
(-2.9623e+59 2.89299e+62 2.77335e+61)
(-2.32713e+59 2.67197e+62 1.82649e+61)
(-2.80644e+59 3.17119e+62 2.05947e+61)
(-3.24557e+59 3.43336e+62 2.49473e+61)
(-2.13315e+59 2.34781e+62 1.56301e+61)
(-2.93114e+59 3.26567e+62 2.15514e+61)
(-2.10337e+59 2.39238e+62 1.53011e+61)
(-2.60015e+59 2.84139e+62 1.72441e+61)
(-3.00634e+59 3.07285e+62 2.03163e+61)
(-2.02476e+59 2.17995e+62 1.33401e+61)
(-2.48312e+59 2.63213e+62 1.57465e+61)
(-2.8762e+59 2.89605e+62 1.88865e+61)
(-1.88416e+59 1.97893e+62 1.15713e+61)
(-2.59022e+59 2.7653e+62 1.56088e+61)
(-1.85187e+59 2.01858e+62 1.10705e+61)
(-2.29159e+59 2.39668e+62 1.18382e+61)
(-2.70774e+59 2.70736e+62 1.80268e+61)
(-1.78075e+59 1.84578e+62 1.11013e+61)
(-2.48178e+59 2.66632e+62 2.13305e+61)
(-1.7851e+59 1.94384e+62 1.47651e+61)
(-2.22085e+59 2.36134e+62 2.25517e+61)
(-2.59905e+59 2.61451e+62 4.22199e+61)
(-1.75608e+59 1.84308e+62 2.62165e+61)
(-2.16114e+59 2.27144e+62 4.20999e+61)
(-2.55203e+59 2.61349e+62 6.06857e+61)
(-1.68198e+59 1.74389e+62 4.18252e+61)
(-2.3308e+59 2.64515e+62 4.73146e+61)
(-1.68017e+59 1.93249e+62 3.72466e+61)
(-2.0701e+59 2.30821e+62 2.94196e+61)
(-2.21287e+59 3.41648e+62 -7.39588e+61)
(-1.49891e+59 2.32369e+62 -3.58279e+61)
(-1.66147e+59 3.88772e+62 -1.75877e+62)
(-1.14995e+59 3.08469e+62 -1.33282e+62)
(-1.27966e+59 3.87857e+62 -2.09351e+62)
(-1.50907e+59 4.60528e+62 -2.8546e+62)
(-9.73949e+58 3.55952e+62 -1.94315e+62)
(-1.25353e+59 4.42774e+62 -2.53557e+62)
(-1.5908e+59 5.02981e+62 -3.22321e+62)
(-9.73947e+58 3.73371e+62 -2.13926e+62)
(-1.47007e+59 5.22171e+62 -3.1537e+62)
(-9.79865e+58 4.09392e+62 -2.3067e+62)
(-1.26873e+59 4.85684e+62 -3.00386e+62)
(-1.38368e+59 4.98313e+62 -3.62562e+62)
(-7.87339e+58 3.7218e+62 -2.5848e+62)
(-9.66019e+58 4.64359e+62 -3.48849e+62)
(-5.4101e+58 3.61571e+62 -2.76446e+62)
(-5.13002e+58 4.17297e+62 -3.46952e+62)
(4.1669e+58 4.04677e+62 -4.08187e+62)
(4.93221e+58 2.63015e+62 -3.29898e+62)
(1.69968e+59 3.29675e+62 -4.30895e+62)
(6.46853e+59 7.36319e+62 -6.42624e+62)
(3.62885e+59 -2.55284e+62 -3.67728e+62)
(3.86228e+59 4.17981e+62 -4.01972e+62)
(-1.83336e+58 -9.2719e+61 -1.1237e+62)
(-6.24919e+58 -1.29974e+60 -6.57155e+61)
(-3.7849e+59 -4.38879e+62 2.1284e+62)
(-4.08418e+59 -4.63679e+62 2.55958e+62)
(-6.14901e+59 -7.23473e+62 4.17307e+62)
(-5.72203e+59 -6.70411e+62 4.09983e+62)
(-9.09319e+59 -1.0697e+63 6.8175e+62)
(-9.79252e+59 -1.33573e+63 7.68876e+62)
(-8.49248e+59 -1.1899e+63 6.83121e+62)
(-1.30272e+60 -1.82204e+63 1.05844e+63)
(-1.27525e+60 -2.03823e+63 1.06425e+63)
(-1.06851e+60 -1.82696e+63 9.2244e+62)
(-1.50965e+60 -2.62844e+63 1.30158e+63)
(-1.16977e+60 -2.09276e+63 1.03844e+63)
(-1.78549e+60 -3.15904e+63 1.57613e+63)
(-1.64543e+60 -3.23654e+63 1.47574e+63)
(-1.35839e+60 -2.85859e+63 1.26275e+63)
(-1.89642e+60 -4.02671e+63 1.74706e+63)
(-1.43666e+60 -3.11243e+63 1.36678e+63)
(-2.1724e+60 -4.62945e+63 2.04603e+63)
(-1.95031e+60 -4.50621e+63 1.86229e+63)
(-1.61168e+60 -3.86828e+63 1.58638e+63)
(-2.3734e+60 -5.55766e+63 2.30168e+63)
(-2.11082e+60 -5.39567e+63 2.09364e+63)
(-1.72839e+60 -4.6798e+63 1.7978e+63)
(-2.38511e+60 -6.54004e+63 2.44453e+63)
(-1.78745e+60 -4.73901e+63 1.89734e+63)
(-2.76644e+60 -6.54014e+63 2.96016e+63)
(-6.52826e+57 -4.23233e+59 1.65212e+61)
(-6.34327e+57 -2.18991e+60 1.60426e+61)
(-6.11157e+57 -3.37297e+60 1.54611e+61)
(-6.00766e+57 -3.64221e+60 1.4393e+61)
(-5.9629e+57 -2.2406e+60 1.47122e+61)
(-5.68325e+57 -4.27181e+60 1.44243e+61)
(-5.32889e+57 -9.51317e+60 1.38918e+61)
(-5.297e+57 -5.47193e+60 1.58152e+61)
(-5.18197e+57 -8.7325e+60 1.55089e+61)
(-5.10684e+57 -1.00719e+61 1.51595e+61)
(-5.10254e+57 -6.62124e+60 1.38135e+61)
(-4.87893e+57 -2.49481e+60 8.55932e+60)
(-4.59778e+57 8.9326e+59 4.77511e+60)
(-7.53815e+57 2.45601e+61 8.51686e+60)
(-8.13971e+57 1.47082e+61 1.5003e+61)
(-7.49429e+57 1.07519e+61 1.60565e+61)
(-7.23831e+57 7.75977e+60 1.49181e+61)
(-7.27392e+57 4.6381e+60 1.32507e+61)
(-7.5685e+57 7.9476e+59 1.47777e+61)
(-6.83167e+57 -7.90387e+60 1.38801e+61)
(-6.59854e+57 -1.1089e+61 1.17374e+61)
(-6.54866e+57 -3.63201e+60 1.40701e+61)
(-6.2667e+57 -6.71861e+60 1.24104e+61)
(-6.19565e+57 -1.75028e+61 8.40853e+60)
(-6.15272e+57 -6.41002e+59 1.35093e+61)
(-5.70706e+57 -3.06728e+60 9.44424e+60)
(-4.84498e+57 -1.07471e+61 -9.7674e+59)
(-4.46032e+57 -1.05013e+60 1.02895e+60)
(-6.89835e+57 7.00094e+60 6.28663e+60)
(-6.15872e+57 -7.62437e+60 4.38039e+60)
(-5.68425e+57 1.029e+61 6.16737e+60)
(-5.68749e+57 1.94255e+60 1.05935e+61)
(-5.72459e+57 -6.55369e+60 6.72567e+60)
(-5.36451e+57 -1.42696e+61 4.41957e+60)
(-4.82681e+57 9.3067e+60 7.47791e+60)
(-4.57984e+57 2.69608e+60 7.09043e+60)
(-4.23054e+57 -2.40285e+61 6.33064e+60)
(-4.09671e+57 -2.64009e+61 6.3855e+60)
(-3.88178e+57 -2.36878e+60 3.96058e+60)
(-3.4838e+57 -3.45111e+61 -4.35493e+60)
(-3.219e+57 -1.84566e+61 -3.4121e+60)
(-3.39678e+57 -7.2571e+60 1.87465e+59)
(-3.76189e+57 1.28212e+61 -1.21232e+60)
(-4.96206e+57 1.13642e+61 -6.45426e+60)
(-5.76837e+57 6.60412e+60 -6.86318e+60)
(-5.53665e+57 1.69362e+60 -8.64418e+60)
(-4.97255e+57 7.05619e+60 -5.02264e+60)
(-1.78612e+57 -1.26665e+61 -9.61531e+59)
(-2.06881e+57 -1.73143e+61 -4.46592e+60)
(-2.9917e+57 -5.10852e+60 -4.9764e+60)
(-2.72219e+57 -6.56471e+60 -2.73386e+60)
(-1.525e+57 -8.68471e+60 -1.71893e+60)
(-4.43374e+56 -1.08108e+61 -1.76876e+60)
(-3.9946e+56 -1.06829e+61 -1.66953e+60)
(-5.95276e+56 -1.01222e+61 -3.89018e+59)
(-1.72019e+56 -1.09417e+61 -2.988e+59)
(-5.60498e+55 -1.22018e+61 -2.78691e+59)
(-2.50266e+55 -1.30756e+61 -2.57958e+59)
(-8.71013e+54 -1.36305e+61 -2.03826e+59)
(-3.08394e+53 -1.41472e+61 -1.76744e+59)
(1.60055e+53 -1.47828e+61 -1.82295e+59)
(1.57605e+52 -1.56447e+61 -2.10579e+59)
(3.93954e+51 -1.6919e+61 -2.70335e+59)
(2.39166e+51 -1.87139e+61 -3.62859e+59)
(7.74607e+50 -2.12046e+61 -4.9225e+59)
(-1.62104e+49 -2.45556e+61 -6.63477e+59)
(-2.21372e+50 -2.90132e+61 -8.80501e+59)
(-2.23096e+50 -3.48292e+61 -1.14049e+60)
(-2.28052e+50 -4.22639e+61 -1.4372e+60)
(-3.27988e+50 -5.15487e+61 -1.68309e+60)
(7.2303e+51 -6.22694e+61 -1.79247e+60)
(-1.18943e+54 -7.37509e+61 -9.23277e+59)
(7.92172e+56 -7.65048e+61 1.59822e+60)
(4.16951e+57 -5.56756e+61 1.21991e+61)
(-9.24153e+57 -9.07862e+61 4.58709e+61)
(-7.5946e+58 -3.3079e+62 1.3758e+62)
(-2.9071e+59 -1.00892e+63 4.19187e+62)
(-8.41639e+59 -2.4798e+63 1.13206e+63)
(-1.8902e+60 -4.92055e+63 2.42023e+63)
(-6.70644e+57 -4.56745e+59 1.6844e+61)
(-6.47973e+57 -2.79752e+60 1.61795e+61)
(-6.16014e+57 -5.31976e+60 1.55403e+61)
(-5.93467e+57 -6.41223e+60 1.43026e+61)
(-5.77346e+57 -5.68974e+60 1.37457e+61)
(-5.55327e+57 -6.23012e+60 1.50047e+61)
(-5.29865e+57 -9.67972e+60 1.46824e+61)
(-5.27088e+57 -6.23212e+60 1.67453e+61)
(-5.17063e+57 -8.85346e+60 1.69623e+61)
(-5.11706e+57 -7.80555e+60 1.64572e+61)
(-5.08372e+57 -2.41504e+60 1.35259e+61)
(-4.89468e+57 3.95274e+60 7.51388e+60)
(-5.23466e+57 9.89578e+60 2.40031e+60)
(-7.90265e+57 1.9787e+61 9.78527e+60)
(-8.31504e+57 1.29944e+61 1.58504e+61)
(-7.6871e+57 8.78942e+60 1.68455e+61)
(-7.69075e+57 7.94931e+60 1.67924e+61)
(-8.21756e+57 6.62641e+60 1.64382e+61)
(-7.67769e+57 -1.55222e+60 1.49425e+61)
(-6.97427e+57 -8.87477e+60 1.35485e+61)
(-6.63916e+57 -1.25725e+61 1.11546e+61)
(-6.4227e+57 -1.13625e+61 9.0686e+60)
(-6.22983e+57 -9.86289e+60 1.14758e+61)
(-6.1867e+57 -1.81358e+61 8.59855e+60)
(-6.14074e+57 -3.71194e+60 1.33476e+61)
(-5.62364e+57 -4.41863e+60 1.37906e+61)
(-4.76015e+57 -9.46352e+60 1.37132e+60)
(-4.76606e+57 2.17688e+60 2.83317e+60)
(-6.78558e+57 1.08886e+61 5.63379e+60)
(-6.04556e+57 -4.96933e+60 4.02571e+60)
(-5.62171e+57 8.59904e+60 6.41503e+60)
(-5.59371e+57 -1.4215e+60 1.16976e+61)
(-5.54747e+57 -3.37743e+60 8.08391e+60)
(-5.2904e+57 -1.06874e+61 4.47078e+60)
(-4.71135e+57 1.63071e+61 2.53161e+60)
(-4.60801e+57 3.33252e+60 6.99582e+60)
(-4.21695e+57 -2.35452e+61 5.89059e+60)
(-4.09658e+57 -2.54332e+61 6.33765e+60)
(-4.11194e+57 1.35603e+59 4.35139e+60)
(-3.49823e+57 -3.34111e+61 -4.64258e+60)
(-3.22519e+57 -1.97279e+61 -3.94205e+60)
(-3.40661e+57 -1.38188e+61 -5.35952e+59)
(-3.88917e+57 9.98048e+60 -1.02651e+60)
(-5.27803e+57 9.36988e+60 -5.88316e+60)
(-6.07179e+57 4.52797e+60 -6.45507e+60)
(-5.58846e+57 1.89004e+60 -8.74511e+60)
(-4.29832e+57 4.87502e+60 -3.18138e+60)
(-1.77204e+57 -1.17444e+61 -5.70302e+59)
(-2.05377e+57 -1.6722e+61 -4.38926e+60)
(-2.85344e+57 -2.9874e+60 -6.65342e+60)
(-2.78347e+57 -5.64241e+60 -4.58677e+60)
(-1.6566e+57 -8.991e+60 -3.6562e+60)
(-5.12127e+56 -1.16087e+61 -2.79877e+60)
(-3.8566e+56 -1.18489e+61 -2.01701e+60)
(-5.87277e+56 -1.12941e+61 -1.96326e+59)
(-1.8406e+56 -1.18121e+61 2.81442e+59)
(-5.58754e+55 -1.27594e+61 3.67925e+59)
(-2.49119e+55 -1.3385e+61 3.01777e+59)
(-8.6199e+54 -1.37485e+61 1.82765e+59)
(-2.81756e+53 -1.41585e+61 3.55164e+57)
(1.57006e+53 -1.4779e+61 -1.86488e+59)
(1.52219e+52 -1.57038e+61 -3.50811e+59)
(3.97572e+51 -1.70966e+61 -4.9403e+59)
(2.39436e+51 -1.90418e+61 -6.35584e+59)
(7.80916e+50 -2.17019e+61 -8.05041e+59)
(-1.3424e+49 -2.52409e+61 -1.02895e+60)
(-2.21193e+50 -2.99139e+61 -1.32353e+60)
(-2.23424e+50 -3.59878e+61 -1.68838e+60)
(-2.27775e+50 -4.37413e+61 -2.11508e+60)
(-3.45075e+50 -5.3433e+61 -2.48546e+60)
(9.0914e+51 -6.46909e+61 -2.68443e+60)
(-1.33126e+54 -7.6924e+61 -1.60889e+60)
(8.83785e+56 -8.06839e+61 1.59405e+60)
(4.55751e+57 -6.16033e+61 1.31633e+61)
(-9.98013e+57 -1.04702e+62 4.33697e+61)
(-8.20032e+58 -3.74273e+62 1.30196e+62)
(-3.18017e+59 -1.13323e+63 4.30853e+62)
(-9.26713e+59 -2.74207e+63 1.2023e+63)
(-1.98944e+60 -5.23614e+63 2.38055e+63)
(-6.83979e+57 -2.21517e+59 1.67572e+61)
(-6.59794e+57 -2.46066e+60 1.59689e+61)
(-6.23273e+57 -5.31368e+60 1.52168e+61)
(-5.95784e+57 -6.90363e+60 1.44167e+61)
(-5.73116e+57 -6.16606e+60 1.41034e+61)
(-5.4997e+57 -7.22407e+60 1.50755e+61)
(-5.265e+57 -9.78746e+60 1.48261e+61)
(-5.20897e+57 -7.93553e+60 1.65202e+61)
(-5.14453e+57 -1.05304e+61 1.72381e+61)
(-5.12144e+57 -8.04681e+60 1.67267e+61)
(-5.07116e+57 -2.80233e+60 1.32139e+61)
(-4.98512e+57 2.92961e+60 7.7365e+60)
(-5.71178e+57 8.22789e+60 4.34858e+60)
(-8.07875e+57 1.68495e+61 1.13749e+61)
(-8.42087e+57 1.30204e+61 1.64393e+61)
(-7.81961e+57 9.32864e+60 1.64301e+61)
(-7.99811e+57 7.56188e+60 1.67834e+61)
(-8.4714e+57 5.18603e+60 1.71067e+61)
(-7.8412e+57 -1.29245e+60 1.47611e+61)
(-7.06396e+57 -9.34462e+60 1.2811e+61)
(-6.69151e+57 -1.27061e+61 1.08522e+61)
(-6.40473e+57 -1.09259e+61 8.83872e+60)
(-6.21813e+57 -1.10917e+61 1.08086e+61)
(-6.14041e+57 -1.87375e+61 8.13995e+60)
(-6.06779e+57 -6.88213e+60 1.03247e+61)
(-5.49102e+57 -5.34036e+60 1.18249e+61)
(-4.70991e+57 -9.36258e+60 2.34035e+60)
(-5.08764e+57 6.71927e+59 4.26506e+60)
(-6.73157e+57 4.35658e+60 6.08317e+60)
(-5.96599e+57 -5.84165e+60 4.33255e+60)
(-5.5524e+57 1.06735e+61 6.82519e+60)
(-5.52693e+57 -1.13928e+60 1.16683e+61)
(-5.42959e+57 -6.31664e+60 7.97132e+60)
(-5.21631e+57 -9.41347e+60 5.50624e+60)
(-4.69225e+57 1.22224e+61 3.35046e+60)
(-4.63647e+57 2.37827e+60 7.70155e+60)
(-4.21351e+57 -2.5881e+61 4.76655e+60)
(-4.09216e+57 -2.48399e+61 6.38716e+60)
(-4.11954e+57 2.69793e+60 5.21589e+60)
(-3.51035e+57 -3.25116e+61 -4.41045e+60)
(-3.23249e+57 -2.07199e+61 -4.89642e+60)
(-3.43023e+57 -1.28371e+61 -1.46043e+60)
(-3.94678e+57 8.81027e+60 -4.22435e+58)
(-5.49943e+57 9.00267e+60 -6.25285e+60)
(-6.17702e+57 4.13978e+60 -6.41871e+60)
(-5.6904e+57 1.0739e+60 -8.76237e+60)
(-4.00887e+57 2.30737e+60 -2.72249e+60)
(-1.76296e+57 -1.16845e+61 -1.80644e+59)
(-2.05036e+57 -1.707e+61 -4.13958e+60)
(-2.71406e+57 -7.00864e+60 -6.8055e+60)
(-2.82165e+57 -6.65662e+60 -5.05563e+60)
(-1.76846e+57 -9.00042e+60 -4.25114e+60)
(-5.77592e+56 -1.13373e+61 -3.21591e+60)
(-3.76528e+56 -1.16155e+61 -2.41354e+60)
(-5.79329e+56 -1.10804e+61 -6.47038e+59)
(-2.02826e+56 -1.16308e+61 6.85849e+58)
(-5.65068e+55 -1.27034e+61 3.2016e+59)
(-2.48191e+55 -1.34417e+61 3.49859e+59)
(-8.5948e+54 -1.38689e+61 2.8204e+59)
(-2.66211e+53 -1.43045e+61 1.04406e+59)
(1.55923e+53 -1.49202e+61 -1.18914e+59)
(1.4484e+52 -1.58177e+61 -3.36145e+59)
(4.02606e+51 -1.71678e+61 -5.39574e+59)
(2.39958e+51 -1.90638e+61 -7.43156e+59)
(7.89472e+50 -2.16744e+61 -9.77529e+59)
(-9.48582e+48 -2.51674e+61 -1.27378e+60)
(-2.20907e+50 -2.97972e+61 -1.65331e+60)
(-2.23904e+50 -3.58316e+61 -2.1184e+60)
(-2.27297e+50 -4.35522e+61 -2.66253e+60)
(-3.78209e+50 -5.32378e+61 -3.1488e+60)
(1.26414e+52 -6.45704e+61 -3.45142e+60)
(-1.81407e+54 -7.71128e+61 -2.31298e+60)
(9.96515e+56 -8.16051e+61 1.27041e+60)
(5.03107e+57 -6.40312e+61 1.32315e+61)
(-1.05849e+58 -1.15671e+62 3.80272e+61)
(-8.96471e+58 -4.1435e+62 1.22708e+62)
(-3.58112e+59 -1.25535e+63 4.63231e+62)
(-1.03477e+60 -2.98416e+63 1.30731e+63)
(-2.05403e+60 -5.32129e+63 2.32401e+63)
(-6.98826e+57 -1.40268e+59 1.69909e+61)
(-6.73219e+57 -2.44026e+60 1.61548e+61)
(-6.32253e+57 -5.31477e+60 1.53161e+61)
(-5.99522e+57 -6.94946e+60 1.47138e+61)
(-5.7204e+57 -6.82706e+60 1.4447e+61)
(-5.46683e+57 -7.87813e+60 1.50638e+61)
(-5.23481e+57 -9.75629e+60 1.48474e+61)
(-5.16405e+57 -8.28184e+60 1.65456e+61)
(-5.12848e+57 -1.01284e+61 1.73204e+61)
(-5.12074e+57 -7.15285e+60 1.66891e+61)
(-5.08231e+57 -1.79553e+60 1.28173e+61)
(-5.156e+57 3.77065e+60 8.1261e+60)
(-6.09683e+57 9.05387e+60 5.79367e+60)
(-8.25671e+57 1.60506e+61 1.25314e+61)
(-8.57819e+57 1.23604e+61 1.70494e+61)
(-8.01016e+57 8.93893e+60 1.67469e+61)
(-8.0538e+57 7.15955e+60 1.65029e+61)
(-8.31802e+57 4.10646e+60 1.60114e+61)
(-7.96189e+57 -2.00493e+60 1.45154e+61)
(-7.19126e+57 -9.46536e+60 1.23791e+61)
(-6.7597e+57 -1.26916e+61 1.08384e+61)
(-6.42057e+57 -1.20799e+61 8.79702e+60)
(-6.21404e+57 -1.23002e+61 1.03082e+61)
(-6.11121e+57 -1.90249e+61 7.75679e+60)
(-6.0306e+57 -7.26226e+60 9.40035e+60)
(-5.42301e+57 -5.53944e+60 1.06848e+61)
(-4.70937e+57 -8.75526e+60 3.29562e+60)
(-5.31083e+57 5.48444e+59 4.77868e+60)
(-6.69585e+57 3.18574e+60 6.26847e+60)
(-5.90932e+57 -4.95898e+60 4.43113e+60)
(-5.52221e+57 6.62931e+60 8.02253e+60)
(-5.47463e+57 1.69782e+58 1.22518e+61)
(-5.3482e+57 -5.38165e+60 7.83297e+60)
(-5.1473e+57 -8.1076e+60 5.98863e+60)