/*--------------------------------*- C++ -*----------------------------------*\
| =========                 |                                                 |
| \\      /  F ield         | OpenFOAM: The Open Source CFD Toolbox           |
|  \\    /   O peration     | Version:  4.1                                   |
|   \\  /    A nd           | Web:      www.OpenFOAM.org                      |
|    \\/     M anipulation  |                                                 |
\*---------------------------------------------------------------------------*/
FoamFile
{
    version     2.0;
    format      ascii;
    class       volScalarField;
    location    "1";
    object      k;
}
// * * * * * * * * * * * * * * * * * * * * * * * * * * * * * * * * * * * * * //

dimensions      [0 2 -2 0 0 0 0];

internalField   nonuniform List<scalar> 
6785
(
0.413166
0.000817066
0.00082044
0.000817909
0.000818561
0.000818216
0.000818157
0.000818052
0.000817734
0.000817476
0.000817088
0.00081664
0.000819809
0.00136268
0.42017
0.527724
0.0014228
0.000293929
0.000212982
0.000202488
0.000198481
0.000198363
0.000196123
0.000194376
0.000192858
0.000187078
0.000204778
0.000782204
0.0139904
0.17611
0.667959
0.00601563
0.00140485
0.000189644
0.000236002
0.000230473
0.000240398
0.000245528
0.000256823
0.000280527
0.000382428
0.00122784
0.00800756
0.0566109
0.0618673
0.825297
0.0369922
0.00511664
0.000378484
0.000434313
0.000341631
0.000373697
0.000391398
0.000421265
0.000460557
0.000527404
0.00100437
0.00341862
0.0198729
0.0274262
0.950051
0.0704299
0.0161488
0.00222871
0.000954515
0.000574434
0.000569458
0.000602315
0.000662088
0.000758437
0.00084282
0.00128674
0.00300738
0.0194809
0.0257526
1.05384
0.0823534
0.0351054
0.0047755
0.00175129
0.000926827
0.000805798
0.000837478
0.000908742
0.00103881
0.00110394
0.00156044
0.0029462
0.0182203
0.0471198
1.17333
0.0815463
0.0607653
0.00634923
0.00261075
0.00130065
0.00103018
0.00101748
0.0010762
0.00121436
0.00122592
0.00184715
0.00285479
0.0166222
0.0797346
1.28413
0.0989021
0.0819146
0.0103657
0.00371863
0.00172328
0.00124058
0.00116111
0.00117982
0.00131712
0.00125157
0.002222
0.00288151
0.0160829
0.124957
1.38957
0.120838
0.0976604
0.0141106
0.00502721
0.00219876
0.00146614
0.00127695
0.00124398
0.00138437
0.00123472
0.00274586
0.00307871
0.0174014
0.183103
1.4865
0.135676
0.105597
0.0163987
0.00609681
0.00254539
0.00170284
0.00137425
0.00128768
0.00144845
0.00122305
0.00353023
0.00352124
0.0215557
0.251323
1.54056
0.158754
0.102565
0.0191729
0.0068525
0.00272403
0.00191016
0.00146364
0.00131426
0.00151812
0.00133471
0.0046979
0.00420929
0.0273456
0.326367
1.55563
0.173778
0.0959048
0.0198289
0.00724391
0.00298729
0.00206123
0.00155945
0.00132707
0.00159812
0.00194577
0.00682291
0.00625506
0.0479111
0.404746
1.54456
0.176609
0.0924217
0.0169411
0.00716603
0.00337594
0.00218857
0.00166787
0.00133897
0.00175453
0.00381979
0.0107568
0.00949171
0.0873643
0.495876
1.51707
0.178364
0.0816676
0.010465
0.00632111
0.00354598
0.00228286
0.00177575
0.00134703
0.00188834
0.00624925
0.0132981
0.0148131
0.132693
0.581156
1.44957
0.3824
0.215205
0.0966431
0.040426
0.0178553
0.00815753
0.00414457
0.0022824
0.00241286
0.00780124
0.0171803
0.0244664
0.180356
0.696096
0.521854
0.448861
0.441185
0.427883
0.413103
0.37221
0.37481
0.36938
0.361942
0.33513
0.342508
0.340432
0.321618
0.334529
0.335636
0.333643
0.316226
0.328968
0.329972
0.316559
0.332195
0.33498
0.334297
0.320453
0.333929
0.335784
0.334173
0.320218
0.33092
0.331936
0.322599
0.334827
0.337248
0.336569
0.327822
0.337608
0.339515
0.335109
0.345705
0.348452
0.348176
0.342819
0.349537
0.350589
0.348143
0.339927
0.3408
0.339063
0.329669
0.326489
0.32249
0.313326
0.29645
0.28436
0.2767
0.264835
0.247793
0.233917
0.227731
0.220301
0.212622
0.210843
0.209752
0.213007
0.212733
0.216243
0.225684
0.229743
0.235332
0.243243
0.255828
0.261902
0.268201
0.276625
0.287781
0.293287
0.298358
0.305172
0.309594
0.314083
0.319046
0.26634
0.226853
0.170438
0.142211
0.103552
0.0838272
0.0726003
0.0608944
0.0478734
0.0329122
0.0209212
0.0192518
0.0186342
0.0173514
0.0160554
0.0144531
0.0130677
0.0115672
0.00978642
0.00762127
0.00507992
0.00449269
0.00435834
0.00428256
0.00420955
0.00414933
0.0041161
0.00416871
0.00423038
0.00425663
0.00436327
0.00454457
0.00476777
0.00509583
0.00544073
0.00582518
0.00626863
0.0067836
0.00735291
0.00814372
0.00952141
0.0105884
0.0118993
0.0133101
0.0149308
0.0168336
0.0191169
0.0218172
0.0251629
0.0340725
0.0388453
0.0443943
0.0506222
0.0577278
0.0660768
0.0760807
0.0873343
0.100834
0.140257
0.156338
0.175035
0.196092
0.218964
0.24129
0.261418
0.28766
0.314876
0.354109
0.434461
0.458423
0.488422
0.523791
0.559366
0.59054
0.582654
0.496317
0.386377
0.242119
0.158477
0.0717584
0.0669546
0.0626857
0.0631676
0.062217
0.0636354
0.0634489
0.0642116
0.0663602
0.0655519
0.0666528
0.0692083
0.0679984
0.0706685
0.0698011
0.0711065
0.0738347
0.0720291
0.0747498
0.0732862
0.0744205
0.0771827
0.0748713
0.0759321
0.078862
0.0763512
0.079272
0.0771962
0.0784193
0.0815501
0.0788288
0.0818539
0.0794854
0.0805209
0.0835628
0.080402
0.0811261
0.0842386
0.0811806
0.0843274
0.0817756
0.0829303
0.0863664
0.0833654
0.08667
0.0840892
0.0852104
0.0886712
0.0855224
0.086424
0.0899366
0.0867583
0.0901435
0.0874182
0.0885432
0.0923013
0.0892606
0.0928871
0.0902794
0.0914931
0.0954111
0.0924187
0.0935712
0.0977605
0.0949428
0.0992423
0.097076
0.0990944
0.104353
0.102486
0.108246
0.10734
0.110992
0.118238
0.117925
0.122762
0.131413
0.131782
0.140844
0.141296
0.00160891
0.00164474
0.00164887
0.00166779
0.00167902
0.00168794
0.00168512
0.00169142
0.00169641
0.00170344
0.00173256
0.0017495
0.00175503
0.00173906
0.00177599
0.0018131
0.00190136
0.00190406
0.00190858
0.00193245
0.00196794
0.00200011
0.00199735
0.00197039
0.00194429
0.00209754
0.00212356
0.00207912
0.00204903
0.00203541
0.00199057
0.00189298
0.00182954
0.00179298
0.00178324
0.00182046
0.00180654
0.00178162
0.00175702
0.0016916
0.00166997
0.00161346
0.00173248
0.00232975
0.00192896
0.00175794
0.00176931
0.00185602
0.00189309
0.00188298
0.00190445
0.00196374
0.00200661
0.00197712
0.00205076
0.00223831
0.00228034
0.00217525
0.00229995
0.00221685
0.00217738
0.00218176
0.00216869
0.00217186
0.00217671
0.00218087
0.00216523
0.00212896
0.00209053
0.00208197
0.00212777
0.00207391
0.00211872
0.00215647
0.00226057
0.00272382
0.00219449
0.00240466
0.0184656
0.00162449
0.00165762
0.00166192
0.00168062
0.00169068
0.0016996
0.00169661
0.00170264
0.00170734
0.00171481
0.00174293
0.00176121
0.00176763
0.00175199
0.00178707
0.00182219
0.00191063
0.00191745
0.00192253
0.00194656
0.00198301
0.00201492
0.00200955
0.00199181
0.00198677
0.00213985
0.00222771
0.00210672
0.00202514
0.00200088
0.00195036
0.00185554
0.00179463
0.00176049
0.00175295
0.00179046
0.00177613
0.00175072
0.00171945
0.0015324
0.00165209
0.00151026
0.00182969
0.00233577
0.00191889
0.00175962
0.00177703
0.00186274
0.0019041
0.00189794
0.00191911
0.00198436
0.00203075
0.00199269
0.00205701
0.00223282
0.00228961
0.00218431
0.00230976
0.00223473
0.00218546
0.00218753
0.00218059
0.00218338
0.00218915
0.00219194
0.00217768
0.00214071
0.00209901
0.00209152
0.00213962
0.00209254
0.00213786
0.00218148
0.00227928
0.00275946
0.00212359
0.00241022
0.0174319
0.00164208
0.00167132
0.00167383
0.0016902
0.00169657
0.00170577
0.00170459
0.00171083
0.00171509
0.00172435
0.00174816
0.00177043
0.00177811
0.00176452
0.0017927
0.0018229
0.00190692
0.00192479
0.00193049
0.00195411
0.00199418
0.00202505
0.00201582
0.00199282
0.0020033
0.00214701
0.00236838
0.00219184
0.00209297
0.00205069
0.00198423
0.00188063
0.00181702
0.00178219
0.0017768
0.00181826
0.00180951
0.00179765
0.00179181
0.00167002
0.00184221
0.00169586
0.00208228
0.00229228
0.00190319
0.00176117
0.00178387
0.00186329
0.00191194
0.00191241
0.00193297
0.00200509
0.00205653
0.0020092
0.00205866
0.00221706
0.00229132
0.00219012
0.00231224
0.00225037
0.00219163
0.00219054
0.00219152
0.00219231
0.00219907
0.0022005
0.00218871
0.00215193
0.00210721
0.00209948
0.00214821
0.0021088
0.002152
0.00219715
0.0022891
0.00274474
0.00224626
0.0024139
0.0160762
0.00165109
0.00167743
0.00167994
0.00169449
0.00169745
0.00170755
0.0017096
0.00171691
0.00172065
0.00173283
0.00175191
0.00177782
0.0017859
0.00177584
0.00179537
0.00182177
0.00190009
0.00192765
0.00193436
0.00195755
0.00200238
0.00203337
0.00202094
0.00199798
0.00200208
0.00210147
0.00249099
0.00227629
0.00215678
0.00209931
0.00201698
0.00190464
0.00183659
0.00180073
0.0017967
0.0018388
0.00183381
0.00183313
0.00184981
0.00177835
0.00189889
0.00180822
0.00216079
0.002204
0.00188329
0.00176918
0.0017912
0.00186643
0.00192134
0.00192825
0.00194769
0.00202428
0.00208363
0.00202913
0.00206076
0.00220167
0.00228844
0.00219687
0.00231331
0.00226682
0.00220092
0.00219622
0.00220534
0.00220259
0.0022097
0.00221135
0.0022022
0.00216719
0.00212041
0.00211135
0.00216023
0.00212894
0.00216991
0.00221737
0.00231054
0.00276187
0.00233294
0.00240346
0.0148018
0.00165981
0.00168553
0.00168834
0.00170128
0.00170063
0.00171036
0.0017152
0.00172375
0.00172655
0.00174207
0.00175623
0.00178436
0.0017929
0.00178682
0.00179747
0.0018212
0.0018939
0.00192876
0.00193713
0.00195979
0.00201098
0.00204442
0.00202865
0.00201187
0.00200969
0.00203622
0.0025514
0.00236044
0.00221837
0.00214426
0.002045
0.00192256
0.00184863
0.00181175
0.00180885
0.00185007
0.0018495
0.00185901
0.00189316
0.0018325
0.00188447
0.00185326
0.00215693
0.00214715
0.00187483
0.00177473
0.00179625
0.00186896
0.00193039
0.00194437
0.00196278
0.00204263
0.0021087
0.0020499
0.00206354
0.00218703
0.00228181
0.00220204
0.00230936
0.00227907
0.00221112
0.00220232
0.00222107
0.00221419
0.00222092
0.00222118
0.0022179
0.00218509
0.00213628
0.00212435
0.00217319
0.00215023
0.00218613
0.00223936
0.00233227
0.0027596
0.00241069
0.00239364
0.0137234
0.001665
0.00168934
0.00169243
0.00170408
0.00170114
0.0017093
0.00171648
0.00172673
0.00172944
0.00174888
0.00175717
0.00178654
0.00179599
0.0017938
0.00179709
0.00181966
0.00188659
0.00192505
0.00193563
0.00195693
0.00201453
0.00205167
0.00202958
0.00200892
0.0020122
0.00195838
0.00256183
0.0024436
0.00228828
0.00219583
0.00207795
0.00194245
0.00186035
0.00182127
0.00181916
0.0018585
0.00186262
0.00188057
0.0019258
0.00186165
0.00186025
0.00189849
0.0022146
0.0021129
0.00187103
0.00177523
0.00179947
0.00187
0.00193713
0.00196002
0.00197794
0.00205841
0.00213432
0.00207291
0.00206788
0.00217369
0.00227116
0.00220869
0.00230494
0.00229
0.00222442
0.00221065
0.00223773
0.00222883
0.00223285
0.00223154
0.00223555
0.00220582
0.00215664
0.002142
0.00218986
0.00217105
0.00220472
0.00226243
0.00235831
0.00276023
0.00245307
0.00239591
0.0128598
0.0016687
0.00169247
0.00169652
0.0017072
0.00170319
0.00170891
0.00171774
0.00172923
0.00173343
0.00175697
0.00175903
0.00178744
0.00179839
0.00179934
0.00179908
0.00182192
0.00188439
0.00192346
0.00193709
0.00195668
0.00202066
0.00206365
0.0020364
0.00201242
0.00201916
0.00187664
0.00254462
0.00252316
0.00236608
0.00225461
0.00211619
0.00196521
0.00187223
0.00182986
0.0018283
0.00186555
0.00187486
0.00189925
0.00195213
0.00188318
0.00185341
0.00194717
0.00226
0.00207027
0.00186091
0.00177693
0.00180074
0.0018713
0.00194274
0.00197311
0.00199145
0.0020747
0.00215936
0.00209643
0.00207396
0.00216369
0.00226101
0.00221427
0.00230065
0.00230111
0.00224066
0.00222104
0.00225606
0.00224529
0.0022465
0.00224158
0.00225305
0.00222743
0.0021792
0.0021633
0.00220923
0.00219211
0.00222617
0.002289
0.00238632
0.00275278
0.00251347
0.00241449
0.0122991
0.00167122
0.00169435
0.0016996
0.00170924
0.00170463
0.00170769
0.00171749
0.00172953
0.00173684
0.00176419
0.00176083
0.00178545
0.00179951
0.0018024
0.00180311
0.0018263
0.00188645
0.00192454
0.0019409
0.00195803
0.00202719
0.00207708
0.00204828
0.00202331
0.00203426
0.0018212
0.00250501
0.00259176
0.00244669
0.00231833
0.00215851
0.00199016
0.00188395
0.00183761
0.00183653
0.00187256
0.00188698
0.00191638
0.00197361
0.00190397
0.00186317
0.00198457
0.00225054
0.00203878
0.00185297
0.00177599
0.00180003
0.00187248
0.00194779
0.00198462
0.00200411
0.00209144
0.00218392
0.00212009
0.0020826
0.00215911
0.00225228
0.0022212
0.00229837
0.00231329
0.00225966
0.00223345
0.00227556
0.00226262
0.00226112
0.00225206
0.00227198
0.00225118
0.00220342
0.00218828
0.00223156
0.00221668
0.00225059
0.00232005
0.00242006
0.00275029
0.00263598
0.00243738
0.0117714
0.0016731
0.00169545
0.00170235
0.00171036
0.00170587
0.00170683
0.0017172
0.00172897
0.00174067
0.00177086
0.00176346
0.00178235
0.00180049
0.0018036
0.00180966
0.00183294
0.00189297
0.00193025
0.00194713
0.00196045
0.00203287
0.00209034
0.00206595
0.00204282
0.00205937
0.00182212
0.00244377
0.00264626
0.00252791
0.0023853
0.00220413
0.00201702
0.00189614
0.00184483
0.00184397
0.00187968
0.00189899
0.00193305
0.00199189
0.00191715
0.00187483
0.00201617
0.00222521
0.00201461
0.00184685
0.00177627
0.00179908
0.00187375
0.00195243
0.0019963
0.00201765
0.00210781
0.00220864
0.00214423
0.0020947
0.00215977
0.00224554
0.00222714
0.00229917
0.00232619
0.00228206
0.00224866
0.00229569
0.00228214
0.00227713
0.00226502
0.00229061
0.00227711
0.00223068
0.00221543
0.00225853
0.00224476
0.00227803
0.00235496
0.00245773
0.00276245
0.00277056
0.00248293
0.0113097
0.00167502
0.0016966
0.00170527
0.00171127
0.00170737
0.00170719
0.00171835
0.00172914
0.00174526
0.00177732
0.0017669
0.00177962
0.00180171
0.00180303
0.00181756
0.00184139
0.00190396
0.00194144
0.00195449
0.00196216
0.00203544
0.00210086
0.00208834
0.00207059
0.00209515
0.00188273
0.00234341
0.00268602
0.00260862
0.00245504
0.00225279
0.00204592
0.00190903
0.00185218
0.00185146
0.00188697
0.00191108
0.00194925
0.00200593
0.00192835
0.00189105
0.00203618
0.00222374
0.00199603
0.00184202
0.00177656
0.00179699
0.00187412
0.00195558
0.00200708
0.00203119
0.00212206
0.00223132
0.00216902
0.00210846
0.00216611
0.00224286
0.00223541
0.00230253
0.00234112
0.00230623
0.00226567
0.00231436
0.00230253
0.00229246
0.00228062
0.00231044
0.00230473
0.0022596
0.00224719
0.00228871
0.0022766
0.002308
0.00239376
0.00249609
0.00278108
0.00286686
0.00253293
0.0110377
0.00167718
0.00169821
0.0017084
0.0017128
0.0017095
0.00170911
0.00172138
0.00173151
0.00175003
0.00178353
0.00177088
0.00177819
0.00180343
0.00180148
0.00182631
0.00185108
0.00191948
0.001958
0.0019636
0.00196359
0.00203526
0.00210848
0.00211335
0.00210591
0.0021425
0.00198713
0.00220049
0.00271732
0.00268841
0.00252708
0.00230467
0.00207674
0.00192221
0.00185931
0.00185942
0.00189567
0.00192243
0.00196415
0.00201774
0.00193829
0.00190418
0.00205558
0.00221884
0.00198182
0.00183897
0.00177728
0.00179562
0.00187509
0.00195858
0.0020172
0.00204501
0.0021351
0.00224818
0.00219455
0.00212769
0.00217658
0.00224394
0.00224557
0.00230936
0.00235782
0.00233271
0.00228567
0.00233133
0.00232474
0.0023094
0.00229764
0.00233287
0.00233258
0.00229225
0.00228225
0.0023239
0.00230922
0.00233979
0.00243388
0.00253514
0.00280912
0.0029291
0.00258717
0.0107284
0.00167935
0.00169966
0.00171112
0.00171483
0.00171261
0.00171236
0.00172623
0.00173658
0.0017551
0.00178827
0.0017748
0.0017781
0.00180443
0.00180029
0.00183508
0.00186127
0.00193804
0.00197824
0.0019759
0.00196603
0.00203388
0.00211436
0.00214027
0.00214614
0.00220045
0.00212636
0.0022058
0.00274659
0.00276581
0.00260007
0.00235956
0.00210923
0.00193572
0.00186622
0.0018681
0.00190549
0.00193441
0.00198023
0.00202921
0.00194858
0.00191793
0.0020678
0.00219075
0.00196857
0.00183777
0.00177978
0.00179612
0.00187689
0.00196163
0.00202703
0.00205905
0.00214812
0.00226008
0.00221889
0.00215116
0.00219078
0.00225088
0.00225645
0.00232011
0.00237616
0.00236118
0.00230956
0.00234947
0.00234686
0.00232776
0.00231644
0.002356
0.0023625
0.00232793
0.00232242
0.0023625
0.0023454
0.00237368
0.00247684
0.00257208
0.00283317
0.00297662
0.00265075
0.0104669
0.00168138
0.00170066
0.0017132
0.0017172
0.00171651
0.00171687
0.00173237
0.00174325
0.00176029
0.00179095
0.00177872
0.00177841
0.00180442
0.00180051
0.001843
0.00187183
0.00195854
0.00200055
0.00199189
0.00197017
0.00203288
0.00212025
0.00216939
0.00218658
0.00226175
0.00228009
0.00235517
0.00276913
0.00283847
0.0026709
0.00241628
0.00214315
0.00194922
0.00187307
0.00187708
0.00191603
0.00194745
0.00199387
0.00203943
0.00195765
0.00192633
0.00207636
0.00216145
0.00195729
0.00183787
0.0017835
0.00179693
0.0018785
0.00196371
0.00203482
0.00207125
0.00215916
0.00227008
0.00224054
0.00217749
0.00220759
0.00226215
0.00227118
0.00233242
0.00239399
0.00238867
0.00233539
0.00236885
0.00237076
0.0023466
0.00233791
0.00238038
0.00239194
0.00236797
0.00236796
0.0024056
0.00238538
0.0024066
0.00252029
0.00261016
0.0028624
0.00301446
0.00271322
0.0102192
0.00168354
0.0017019
0.00171478
0.0017195
0.00172036
0.00172221
0.00173909
0.00175034
0.00176518
0.00179186
0.00178262
0.00177911
0.00180314
0.00180248
0.00184955
0.00188305
0.00198009
0.00202384
0.00201081
0.00197616
0.00203392
0.00212875
0.00220199
0.00222556
0.00231711
0.00243266
0.00262134
0.00277246
0.00290401
0.00273692
0.00247322
0.00217773
0.00196227
0.00187981
0.00188638
0.00192737
0.00196003
0.00200635
0.0020495
0.00196707
0.00193841
0.00208356
0.00213761
0.00194855
0.00184029
0.0017891
0.00179932
0.00188129
0.0019663
0.00204178
0.00208228
0.00216945
0.00227796
0.00226121
0.00220426
0.00222724
0.00227659
0.00229001
0.00234879
0.00241142
0.00241542
0.00236335
0.00239079
0.00239429
0.00236745
0.00236227
0.00240602
0.00242127
0.00241181
0.00241768
0.00245316
0.00242911
0.00244266
0.00256757
0.00265173
0.0028889
0.00305122
0.00278011
0.00997453
0.00168624
0.00170401
0.00171614
0.0017211
0.00172366
0.00172776
0.00174527
0.00175655
0.00176974
0.00179233
0.00178639
0.00178076
0.00180107
0.00180577
0.00185551
0.00189484
0.00200187
0.00204853
0.0020317
0.00198504
0.00203789
0.00214153
0.00223977
0.00226263
0.00236051
0.00257837
0.00296032
0.00271852
0.00295377
0.00279753
0.00252924
0.00221261
0.0019747
0.00188583
0.00189538
0.00193905
0.00197296
0.00201767
0.00205676
0.00197149
0.00195454
0.00208984
0.00211502
0.00194206
0.00184466
0.00179664
0.00180414
0.00188537
0.00196984
0.00204756
0.00209103
0.00217942
0.00228498
0.00228028
0.00223177
0.00224672
0.00229407
0.00231083
0.00236743
0.00242847
0.00243844
0.00239032
0.00241431
0.00241853
0.00238968
0.00238707
0.00243139
0.00245125
0.00245761
0.00246916
0.00250195
0.00247595
0.002482
0.00261554
0.00269721
0.00292267
0.00308789
0.00285078
0.00983794
0.00168989
0.00170738
0.00171733
0.00172191
0.00172652
0.00173324
0.0017504
0.00176159
0.00177382
0.00179384
0.00179074
0.00178353
0.00179963
0.00181021
0.00186122
0.00190655
0.00202311
0.00207471
0.00205517
0.00199813
0.00204599
0.00215764
0.00228114
0.00229818
0.00238381
0.00270596
0.00331897
0.00254295
0.00296447
0.0028494
0.00258345
0.00224788
0.00198617
0.00189108
0.00190339
0.00195065
0.00198707
0.00202926
0.00206189
0.00197379
0.00196912
0.00209509
0.00209262
0.00193647
0.00184955
0.00180588
0.0018097
0.00189069
0.00197325
0.0020527
0.0020977
0.00218738
0.00229154
0.00229801
0.00225763
0.00226775
0.00231482
0.00233501
0.00239151
0.00244651
0.00246015
0.00241742
0.00243968
0.00244152
0.00241214
0.00241379
0.00245791
0.00248281
0.00250532
0.00252452
0.00255311
0.00252362
0.00252605
0.00266496
0.00275131
0.00296731
0.00312891
0.00292623
0.00963999
0.00169459
0.00171244
0.00171923
0.00172301
0.00172962
0.00173887
0.00175439
0.00176584
0.00177771
0.00179726
0.00179663
0.00178766
0.00180004
0.00181575
0.00186703
0.00191847
0.00204393
0.0021024
0.0020818
0.00201607
0.00205872
0.002174
0.00232135
0.00233406
0.00237992
0.00281137
0.00368079
0.00218922
0.00290087
0.00288633
0.00263583
0.00228394
0.0019968
0.00189572
0.00191
0.00196192
0.0020021
0.00204116
0.00206566
0.00197904
0.00198633
0.00209778
0.00206999
0.00193083
0.00185595
0.001815
0.0018153
0.00189557
0.00197676
0.00205674
0.00210438
0.00219501
0.00229827
0.00231482
0.00228172
0.00228914
0.00233804
0.00236083
0.00241883
0.00246608
0.00248015
0.00244565
0.00246574
0.00246543
0.00243605
0.0024416
0.00248732
0.00251566
0.00255477
0.00257968
0.00260359
0.00257265
0.00257546
0.00271972
0.00281153
0.00302267
0.00317168
0.00301033
0.00943358
0.00170041
0.00171914
0.00172326
0.00172574
0.00173389
0.0017447
0.00175722
0.00176964
0.00178162
0.00180296
0.00180408
0.00179298
0.00180316
0.00182271
0.00187375
0.00193049
0.00206417
0.00213072
0.00211108
0.00203808
0.00207443
0.00218887
0.00235705
0.00237244
0.0023414
0.00290796
0.00404277
0.00168557
0.00275014
0.00289901
0.00268591
0.00232156
0.00200742
0.00190043
0.00191543
0.00197259
0.00201633
0.00205223
0.00206818
0.00198473
0.0020016
0.00209392
0.00204837
0.00192777
0.0018648
0.00182444
0.00182076
0.00189954
0.00197885
0.00205929
0.00211207
0.00220378
0.00230512
0.00233171
0.00230627
0.00231179
0.00236354
0.00238804
0.00244793
0.00248548
0.00249649
0.00247259
0.00249299
0.00248941
0.00246091
0.00246893
0.00251745
0.0025496
0.00260224
0.00263473
0.00265717
0.002626
0.00263114
0.00278015
0.00287866
0.00308526
0.00321692
0.00309742
0.0093093
0.00170755
0.00172694
0.00172952
0.00173012
0.00173894
0.00175027
0.00175947
0.00177274
0.00178589
0.0018106
0.00181293
0.00179945
0.00180909
0.00183077
0.00188096
0.00194213
0.00208284
0.00215756
0.00214163
0.00206188
0.0020918
0.00220117
0.00238585
0.00242366
0.00226741
0.00302015
0.0044103
0.00114983
0.00251432
0.00288065
0.00273208
0.00236134
0.00201903
0.00190483
0.00192013
0.00198189
0.00202893
0.00206321
0.00207164
0.00199533
0.0020178
0.00209473
0.00202931
0.00192737
0.00187576
0.00183512
0.00182663
0.00190338
0.00198127
0.00206075
0.00212102
0.00221429
0.00231174
0.00234603
0.00233149
0.0023348
0.00238915
0.00241725
0.00247771
0.00250596
0.00251183
0.00249798
0.00252013
0.0025128
0.00248768
0.00249732
0.00254832
0.00258384
0.00264885
0.0026908
0.00271426
0.00268475
0.00269107
0.00284512
0.0029557
0.00316778
0.00327138
0.00318623
0.00911524
0.00171554
0.0017352
0.00173678
0.00173508
0.00174329
0.00175457
0.00176163
0.0017752
0.00179133
0.00181976
0.00182261
0.00180666
0.00181667
0.00183897
0.00188725
0.00195238
0.00209789
0.00218029
0.00217106
0.00208561
0.00211038
0.00221004
0.00240913
0.00247766
0.0021191
0.00317276
0.00480232
0.000757405
0.00224352
0.00283726
0.00277161
0.00240224
0.00203128
0.00190909
0.0019242
0.00199111
0.00204071
0.00207459
0.00207638
0.00200743
0.00203747
0.0020972
0.00201363
0.00193039
0.00188753
0.0018478
0.00183447
0.00190589
0.00198292
0.00206179
0.00213025
0.00222499
0.00231755
0.00235747
0.0023554
0.00235829
0.00241279
0.00244702
0.00250871
0.00252845
0.002528
0.00252195
0.00254619
0.00253707
0.00251673
0.00252733
0.00257935
0.00261911
0.00269571
0.00274856
0.00277561
0.00274988
0.00275817
0.00291726
0.00304198
0.00326076
0.00333709
0.00328694
0.00897437
0.00172328
0.00174324
0.00174387
0.00174035
0.00174645
0.00175727
0.00176307
0.00177743
0.00179798
0.0018291
0.00183198
0.00181369
0.00182474
0.00184683
0.00189283
0.00196064
0.00210755
0.00219801
0.00219693
0.0021082
0.00212985
0.00221782
0.00243174
0.00249244
0.00180161
0.00335712
0.00521095
0.000506638
0.00195358
0.00277946
0.00280364
0.00244266
0.00204357
0.0019138
0.0019294
0.00199982
0.00205114
0.00208592
0.00208241
0.00202504
0.00206215
0.00210273
0.00200215
0.00193626
0.0019014
0.00186265
0.00184582
0.00190962
0.00198487
0.00206339
0.00213915
0.00223514
0.00232176
0.00236711
0.00237732
0.0023817
0.00243474
0.00247719
0.00253924
0.00255183
0.0025453
0.00254228
0.00257086
0.00256192
0.00254617
0.00255757
0.00261192
0.00265685
0.00274173
0.00280642
0.00283891
0.00282104
0.00283352
0.00299572
0.00313137
0.00335512
0.00341051
0.00338656
0.00884514
0.00172953
0.00174994
0.00175004
0.00174575
0.00174914
0.00175886
0.00176276
0.00177933
0.00180454
0.00183713
0.00184012
0.00182011
0.00183247
0.00185433
0.00189828
0.00196711
0.00211176
0.00221013
0.00221898
0.00213062
0.00215184
0.00222805
0.00245754
0.00249519
0.0021819
0.00357966
0.00563684
0.000427769
0.00169852
0.002699
0.00282683
0.00248093
0.00205581
0.00191963
0.00193632
0.00200876
0.0020608
0.00209444
0.00209026
0.00204751
0.00209082
0.00210906
0.00199485
0.00194511
0.00191802
0.0018794
0.00185956
0.00191533
0.00198605
0.002065
0.00214623
0.00224485
0.00232528
0.00237601
0.00239476
0.00240486
0.00245264
0.0025036
0.00256755
0.00257575
0.00256506
0.00256162
0.00259476
0.00258749
0.00257669
0.0025897
0.002644
0.00269797
0.00278994
0.00286322
0.00290407
0.00289899
0.00291529
0.00307948
0.00322588
0.00345623
0.00349487
0.00348431
0.00869753
0.00173353
0.00175403
0.00175446
0.00175052
0.001752
0.00175971
0.0017607
0.00178068
0.00181007
0.00184205
0.00184589
0.0018257
0.00183992
0.00186278
0.00190444
0.00197285
0.00211187
0.00221766
0.00223741
0.00215333
0.00217688
0.00224344
0.00248466
0.00253821
0.00297732
0.00389282
0.00609563
0.000464493
0.00154493
0.00261739
0.00283868
0.00251503
0.00206731
0.00192649
0.00194409
0.00201738
0.00207092
0.00210479
0.00210081
0.00207594
0.0021261
0.00213194
0.00199336
0.00195653
0.00193577
0.00189682
0.00187615
0.0019247
0.00198893
0.00206611
0.00215137
0.00225039
0.00232865
0.00238422
0.00241042
0.00242636
0.00246907
0.00252594
0.00258963
0.00259713
0.00258649
0.00258158
0.00261834
0.0026142
0.00260647
0.00262181
0.00267784
0.00274143
0.002841
0.00292331
0.00297082
0.00298299
0.00300605
0.00317458
0.0033288
0.00357663
0.00359043
0.00358368
0.0086167
0.00173504
0.00175479
0.00175618
0.0017538
0.00175459
0.00175956
0.00175743
0.00178045
0.00181347
0.00184325
0.00184874
0.00183021
0.00184723
0.00187318
0.00191247
0.00197937
0.00211028
0.00222286
0.00225414
0.0021774
0.00220555
0.00226561
0.00252759
0.00253817
0.00310756
0.00428557
0.00656412
0.000501445
0.00145956
0.00255401
0.00284081
0.00254287
0.00207812
0.00193522
0.00195176
0.00202439
0.00208065
0.00211473
0.00211472
0.0021079
0.00216337
0.0021635
0.00199927
0.00197004
0.00195371
0.0019158
0.00189551
0.00193677
0.00199438
0.00206784
0.00215422
0.00225305
0.0023324
0.00239225
0.00242371
0.00244523
0.00248302
0.00254586
0.00260871
0.00261737
0.00260797
0.00260068
0.0026405
0.00264222
0.00263777
0.0026548
0.00271243
0.00278604
0.00289466
0.00298433
0.00304177
0.00307402
0.0031068
0.00328176
0.00344499
0.00370806
0.00369913
0.00369196
0.00845249
0.00173382
0.00175212
0.00175474
0.00175465
0.00175546
0.0017577
0.00175371
0.00177822
0.00181362
0.00184084
0.00184864
0.00183371
0.00185444
0.00188637
0.00192376
0.00198869
0.00211011
0.00222921
0.00227242
0.00220425
0.00223907
0.00229509
0.00259878
0.00251259
0.00302621
0.00479618
0.00707842
0.000802824
0.00146569
0.00252162
0.00283541
0.00256168
0.00208774
0.00194603
0.00195963
0.00203161
0.0020917
0.00212642
0.00212938
0.00213493
0.00218272
0.00214751
0.00200948
0.00198567
0.0019727
0.0019365
0.00191644
0.00195195
0.00200346
0.00207171
0.00215703
0.00225466
0.00233509
0.00239958
0.00243572
0.0024632
0.00249596
0.00256157
0.00262597
0.00263566
0.00262931
0.00262061
0.00265815
0.00266931
0.00266864
0.00268656
0.00274596
0.00283072
0.00294942
0.00304868
0.00311831
0.00316704
0.00321697
0.00340181
0.00357435
0.00384872
0.00382018
0.00381333
0.00830684
0.00172912
0.0017457
0.00175045
0.00175292
0.00175398
0.00175391
0.00174971
0.00177443
0.00181024
0.00183502
0.00184593
0.00183656
0.00186181
0.0019025
0.00193975
0.0020023
0.0021147
0.00224028
0.00229513
0.00223576
0.0022791
0.00233293
0.00268357
0.00253108
0.00274284
0.00536313
0.00759087
0.00151889
0.00160082
0.0025066
0.00282226
0.00257018
0.00209536
0.00195849
0.00196945
0.002039
0.00210312
0.00213781
0.00214434
0.00215525
0.00217972
0.00210705
0.00201864
0.00200428
0.00199326
0.00195817
0.00194065
0.00197033
0.00201519
0.00207843
0.00216062
0.00225581
0.00233748
0.00240483
0.00244633
0.0024793
0.00250976
0.00257618
0.00264171
0.00265303
0.00265039
0.00264243
0.00267484
0.00269598
0.00270025
0.00271969
0.00278076
0.00287623
0.00300459
0.00311646
0.00319858
0.00326739
0.00333879
0.00353232
0.00371288
0.00398912
0.00395569
0.00394124
0.00824949
0.00172079
0.00173584
0.00174354
0.00174863
0.00175025
0.0017485
0.00174574
0.00176963
0.00180398
0.00182641
0.0018409
0.00183858
0.00186946
0.00192022
0.00195997
0.00202042
0.00212652
0.0022583
0.00232374
0.0022732
0.00232672
0.00238016
0.00277198
0.00255637
0.00206615
0.00552162
0.00795793
0.00263361
0.00188727
0.00253454
0.00280546
0.0025663
0.00210002
0.00197093
0.00198084
0.00204759
0.00211355
0.0021486
0.00215722
0.00216493
0.002163
0.00207902
0.00202601
0.00202528
0.00201589
0.00198126
0.00196635
0.00199173
0.00202953
0.00208729
0.00216573
0.0022577
0.00233975
0.00240759
0.00245522
0.00249543
0.00252356
0.0025906
0.0026567
0.00267012
0.00267173
0.00266432
0.00269164
0.00272045
0.00273278
0.00275304
0.00281709
0.00292079
0.00306048
0.00318765
0.00328277
0.00336948
0.00346624
0.00367513
0.00386247
0.00414126
0.00410187
0.00407856
0.0080591
0.00171045
0.00172452
0.0017343
0.00174193
0.00174476
0.00174244
0.00174206
0.00176375
0.00179613
0.0018162
0.00183397
0.00183961
0.00187665
0.00193752
0.00198192
0.00204229
0.00214595
0.00228313
0.00235782
0.00231669
0.00238114
0.00243594
0.00286396
0.00257495
0.00192268
0.00596942
0.0080918
0.00376681
0.00227861
0.00260092
0.00278202
0.00255194
0.00210224
0.0019821
0.00199107
0.00205468
0.00212089
0.00215731
0.002166
0.00216381
0.00213807
0.00206012
0.0020327
0.00204747
0.0020388
0.00200653
0.00199384
0.00201572
0.00204601
0.00209867
0.00217257
0.00226092
0.00234278
0.0024098
0.00246284
0.00251005
0.00253893
0.0026055
0.00267085
0.00268702
0.00269332
0.00268763
0.00270941
0.00274369
0.00276381
0.00278834
0.00285381
0.00296701
0.00311674
0.00325915
0.00336946
0.00347569
0.00360124
0.0038248
0.00402533
0.00429597
0.00425727
0.00423645
0.00797801
0.0017005
0.00171496
0.00172477
0.00173374
0.00173838
0.00173733
0.00173959
0.00175754
0.00178828
0.00180646
0.0018263
0.00183968
0.00188308
0.00195267
0.00200317
0.00206647
0.00217092
0.00231218
0.00239461
0.00236439
0.0024398
0.00249693
0.00295566
0.00259927
0.00186346
0.00631381
0.00796512
0.00442701
0.0026436
0.00269334
0.00275419
0.00253714
0.00210274
0.00199109
0.00199884
0.00205957
0.00212551
0.00216367
0.00216996