/*--------------------------------*- C++ -*----------------------------------*\
| =========                 |                                                 |
| \\      /  F ield         | OpenFOAM: The Open Source CFD Toolbox           |
|  \\    /   O peration     | Version:  4.1                                   |
|   \\  /    A nd           | Web:      www.OpenFOAM.org                      |
|    \\/     M anipulation  |                                                 |
\*---------------------------------------------------------------------------*/
FoamFile
{
    version     2.0;
    format      ascii;
    class       volScalarField;
    location    "1";
    object      nut;
}
// * * * * * * * * * * * * * * * * * * * * * * * * * * * * * * * * * * * * * //

dimensions      [0 2 -1 0 0 0 0];

internalField   nonuniform List<scalar> 
6785
(
0.270752
8.66402e-08
8.69113e-08
8.65153e-08
8.66107e-08
8.65683e-08
8.65566e-08
8.65352e-08
8.64964e-08
8.64543e-08
8.63902e-08
8.6329e-08
8.68177e-08
1.89469e-07
0.273069
0.306033
1.09922e-05
9.64751e-07
6.1335e-07
5.83157e-07
5.80756e-07
5.95568e-07
6.0136e-07
6.10343e-07
6.21048e-07
6.11428e-07
7.34804e-07
6.23915e-06
0.000585727
0.17679
0.344298
0.000648901
9.87951e-05
3.99814e-06
5.94507e-06
5.88581e-06
6.55023e-06
7.12261e-06
8.02093e-06
9.54823e-06
1.55774e-05
6.9079e-05
0.000993462
0.0643437
0.104771
0.382661
0.0163745
0.00153883
4.22127e-05
5.07779e-05
3.46855e-05
4.09665e-05
5.18096e-05
5.86678e-05
6.94176e-05
8.83122e-05
0.000212131
0.000741992
0.00574442
0.0697657
0.410621
0.0260409
0.0109793
0.0018828
0.000350431
0.000138619
0.000143924
0.00017994
0.000208376
0.000271214
0.000343352
0.000624379
0.00115033
0.00714755
0.0676049
0.43246
0.0275109
0.0292705
0.00565889
0.00125053
0.000490945
0.00039554
0.000439259
0.00047965
0.000634856
0.000689541
0.00103632
0.00147149
0.0061279
0.0914345
0.456266
0.0255212
0.0447447
0.00414151
0.00216477
0.00105917
0.000734784
0.000744475
0.000773433
0.000910695
0.000909338
0.00160121
0.00190253
0.00672753
0.118955
0.477389
0.0422284
0.0571411
0.00683791
0.00260889
0.00149598
0.00113796
0.000995888
0.00100516
0.00116531
0.00102453
0.00249663
0.00249305
0.00861727
0.148918
0.496592
0.0786914
0.0716127
0.0071701
0.00360181
0.00169363
0.00124968
0.0012748
0.00123201
0.00141933
0.00113497
0.00414763
0.00350395
0.0110408
0.180242
0.513561
0.0943021
0.0790226
0.0101722
0.00402362
0.00228947
0.00161008
0.00159218
0.00149139
0.00180399
0.0013247
0.00776574
0.00537874
0.016197
0.211191
0.522885
0.124562
0.0564177
0.0178141
0.00551243
0.00257391
0.00232231
0.00201729
0.00181485
0.00230786
0.00185342
0.0162019
0.00821676
0.0223556
0.240669
0.525427
0.102791
0.0379859
0.0174941
0.0064694
0.00378964
0.00278742
0.00271522
0.00218568
0.00299949
0.00473876
0.0408039
0.0176687
0.0509783
0.267978
0.523493
0.0912418
0.0277413
0.00921525
0.00619865
0.00528488
0.00327823
0.0032129
0.00276546
0.00425755
0.019653
0.111708
0.0332441
0.137405
0.296651
0.518884
0.0874868
0.0233577
0.00425317
0.00463355
0.00633938
0.0040222
0.00389543
0.00345617
0.00598701
0.0550102
0.179846
0.0795314
0.260326
0.321154
0.507198
0.13139
0.28443
0.196837
0.290812
0.178275
0.133329
0.254786
0.0136355
0.0121084
0.111366
0.324231
0.128639
0.309225
0.351434
2.02782
3.35376
1.86451
1.83619
1.8042
3.05401
1.71854
1.70605
1.68878
2.8979
1.64282
1.63783
2.83887
1.62357
1.62626
1.62142
2.81498
1.61002
1.61248
2.81646
1.6179
1.62467
1.62301
2.83373
1.62211
1.62661
1.62271
2.83269
1.61479
1.61727
2.8432
1.6243
1.63016
1.62852
2.86613
1.63103
1.63563
2.89781
1.65047
1.65701
1.65636
2.93096
1.65959
1.66209
1.65628
2.91856
1.63872
1.63454
2.87419
1.60394
1.59409
1.57128
2.72554
1.49689
1.47659
1.44458
2.49184
1.35764
1.33957
2.34955
1.29437
1.28894
1.2856
2.31032
1.29471
1.30535
2.37808
1.34548
1.36174
1.38444
2.53192
1.43656
1.45373
1.47639
2.68539
1.5202
1.53329
2.76534
1.56189
1.57317
0.294748
0.241854
0.204034
2.16715
0.21078
0.234231
0.182886
0.169408
0.137864
0.148281
0.0770247
0.0551115
0.0430598
0.0393967
0.0345947
0.0300868
0.0376835
0.045082
0.0521346
0.0679719
0.049498
0.0256715
0.0163464
0.0154376
0.0149958
0.014267
0.0147356
0.0145271
0.0144076
0.0154167
0.0153861
0.0113353
0.00762861
0.00777308
0.00827434
0.0089073
0.00992384
0.0107146
0.0118534
0.0133123
0.0098546
0.00859977
0.00974284
0.0100048
0.0114232
0.0122084
0.0133153
0.0141951
0.0152591
0.0114324
0.015083
0.017417
0.0179739
0.0194821
0.0212738
0.022869
0.0250978
0.0272741
0.0240015
0.0365265
0.0422565
0.0464024
0.0533915
0.0597433
0.0686024
0.0765106
0.082857
0.0933503
0.109135
0.133629
0.142735
0.150545
0.16167
0.176814
0.200867
0.234828
0.265115
0.802656
0.097868
0.148842
0.751953
1.17612
1.13797
0.705507
1.13371
0.708115
1.14488
1.15177
0.723117
1.16373
1.17343
0.738471
1.18521
0.746221
1.20082
1.21203
0.762754
1.21987
0.767467
1.23047
1.23992
0.779856
1.24367
1.25249
0.788294
1.25594
0.790341
1.26287
1.27279
0.801617
1.27611
0.803109
1.28142
1.28978
0.811449
1.28882
1.29458
0.814723
1.29501
0.815153
1.29975
1.30893
0.824948
1.31236
0.826397
1.31805
1.32676
0.835884
1.32919
1.33622
0.841827
1.3388
0.842795
1.34388
1.35246
0.852822
1.35793
0.855524
1.36566
1.37485
0.867069
1.38179
1.39033
0.87768
1.40048
0.884307
1.41613
1.43082
0.906792
1.4551
0.92355
1.48916
1.51423
0.965237
1.56081
1.59255
1.01759
1.64997
1.05347
1.70849
0.401033
0.384558
0.400546
0.418702
0.419126
0.415636
0.406432
0.401225
0.393128
0.379842
0.380505
0.385362
0.387595
0.380776
0.388292
0.401346
0.438335
0.433207
0.435598
0.447246
0.454265
0.433657
0.398146
0.417685
0.360855
0.356211
0.357558
0.358143
0.278162
0.285898
0.259131
0.249978
0.268175
0.239044
0.211999
0.225643
0.210523
0.189375
0.159385
0.104198
0.0644616
0.0931577
0.0452846
0.129969
0.16634
0.177448
0.173788
0.178537
0.165651
0.152525
0.146345
0.147324
0.143272
0.130377
0.135698
0.149093
0.144901
0.127815
0.130858
0.115127
0.107855
0.102549
0.096277
0.0919919
0.0859509
0.08307
0.0769864
0.0691252
0.0658025
0.0647675
0.0651603
0.060936
0.0659168
0.0669845
0.0595813
0.0736116
0.0450568
0.0431499
0.253976
0.402217
0.387038
0.403509
0.422181
0.422526
0.418722
0.409516
0.404244
0.395374
0.381953
0.381291
0.386942
0.388026
0.38167
0.387293
0.399983
0.436586
0.433684
0.436569
0.450553
0.46006
0.444319
0.420681
0.42593
0.363836
0.372629
0.38375
0.36822
0.271654
0.275254
0.245971
0.237594
0.255391
0.228747
0.204724
0.218786
0.204751
0.184798
0.153046
0.0861018
0.0661795
0.0664203
0.052393
0.150663
0.171278
0.17576
0.172763
0.1759
0.163854
0.152581
0.146061
0.146399
0.142713
0.12834
0.134727
0.144191
0.14178
0.124943
0.129945
0.114701
0.104712
0.0992742
0.0935133
0.0903355
0.0842117
0.0817871
0.0745919
0.0659466
0.0624734
0.0633321
0.0621973
0.0574889
0.0613599
0.0644651
0.0603119
0.0712755
0.0458271
0.0445207
0.230836
0.403573
0.38987
0.406594
0.426053
0.424557
0.421218
0.412603
0.407306
0.398091
0.384953
0.3824
0.389111
0.39121
0.385008
0.387858
0.397996
0.432409
0.431254
0.434597
0.449242
0.462705
0.446483
0.42937
0.445191
0.400861
0.340801
0.369223
0.37842
0.287304
0.285499
0.25433
0.243931
0.261615
0.234302
0.2073
0.222566
0.208952
0.190054
0.161787
0.096592
0.079095
0.0695323
0.0659504
0.167944
0.172477
0.17374
0.170473
0.176842
0.164185
0.153133
0.146421
0.149298
0.146391
0.129713
0.133741
0.142552
0.142777
0.125154
0.128671
0.112965
0.104336
0.0985258
0.0936716
0.088904
0.0829336
0.080619
0.0735306
0.0654521
0.0616868
0.0598598
0.0604908
0.0564407
0.060892
0.0632675
0.0630118
0.0650572
0.050632
0.0440495
0.211886
0.405817
0.392513
0.409154
0.426522
0.422572
0.418756
0.412338
0.407483
0.39762
0.385533
0.380545
0.389718
0.391735
0.385591
0.384265
0.395865
0.426471
0.429716
0.432953
0.445571
0.459401
0.439594
0.410992
0.453419
0.399846
0.31935
0.35365
0.374505
0.295875
0.296
0.262907
0.25055
0.266615
0.23684
0.211849
0.224231
0.208719
0.19084
0.161053
0.094178
0.0776181
0.0695326
0.0769652
0.1634
0.172894
0.17303
0.171442
0.175905
0.164863
0.155472
0.148316
0.150135
0.149795
0.130474
0.130479
0.140358
0.142754
0.123817
0.125075
0.112605
0.103176
0.0968137
0.0926801
0.0872966
0.0817289
0.0773621
0.071872
0.0639245
0.0601699
0.0622993
0.058578
0.054586
0.058026
0.0606836
0.0607903
0.067464
0.0538568
0.0475633
0.208935
0.408373
0.39768
0.41111
0.427527
0.422202
0.417445
0.412528
0.407809
0.398031
0.387719
0.380846
0.390615
0.392461
0.387823
0.38251
0.391611
0.419929
0.425506
0.429692
0.443439
0.460476
0.440558
0.408577
0.462749
0.414568
0.316572
0.29433
0.368578
0.310669
0.309436
0.272483
0.258541
0.274159
0.24294
0.216496
0.224531
0.207014
0.191097
0.154391
0.0895063
0.0772921
0.0615352
0.0835902
0.166199
0.17191
0.17263
0.169763
0.17581
0.166558
0.158971
0.151599
0.151848
0.1521
0.131639
0.131755
0.135255
0.138538
0.122767
0.123483
0.112067
0.102144
0.0955384
0.0921797
0.0861615
0.0805589
0.0764477
0.0714135
0.0634094
0.0596179
0.0612013
0.057412
0.0533708
0.0567985
0.0603008
0.0610928
0.062867
0.056619
0.0477242
0.207795
0.410999
0.40217
0.41383
0.428774
0.421616
0.417264
0.412067
0.407522
0.397184
0.388732
0.379462
0.389726
0.391041
0.387571
0.378993
0.388671
0.413633
0.419874
0.42499
0.438594
0.458368
0.439976
0.404906
0.465374
0.422174
0.292538
0.27127
0.335556
0.329725
0.323521
0.283539
0.270749
0.282821
0.248737
0.223398
0.2241
0.206724
0.193385
0.147401
0.0926065
0.07969
0.0596511
0.0891511
0.165122
0.173256
0.171785
0.168234
0.174463
0.167749
0.160498
0.151132
0.153728
0.152289
0.134937
0.131106
0.134694
0.139111
0.121773
0.12069
0.111048
0.101883
0.0944459
0.0914955
0.0850876
0.0796644
0.074871
0.0700768
0.0624546
0.0588676
0.0578219
0.0559912
0.0521114
0.054652
0.0585699
0.0602648
0.0627461
0.0568458
0.0486814
0.20386
0.413232
0.403276
0.416315
0.428169
0.420605
0.413902
0.410159
0.405584
0.395987
0.389764
0.377745
0.387341
0.389517
0.386435
0.376115
0.387922
0.407649
0.415014
0.421686
0.43415
0.456188
0.439394
0.399196
0.465711
0.424363
0.263565
0.221693
0.297823
0.318908
0.329743
0.297965
0.276624
0.291851
0.255863
0.223203
0.226284
0.206791
0.186074
0.139453
0.0920533
0.0750589
0.0646792
0.100537
0.162946
0.172024
0.169747
0.165591
0.173368
0.167573
0.161393
0.154742
0.154738
0.156351
0.138528
0.130443
0.13194
0.136375
0.120599
0.118802
0.110713
0.100774
0.0930798
0.0913707
0.084058
0.0780785
0.0733791
0.0689399
0.0617983
0.0583973
0.0571623
0.0550696
0.0504597
0.0534791
0.0576721
0.0600693
0.0656245
0.059916
0.0508643
0.210109
0.415575
0.408121
0.416923
0.428075
0.419844
0.411651
0.408664
0.404079
0.395636
0.39104
0.376335
0.38407
0.387308
0.384186
0.37418
0.386802
0.405289
0.411268
0.418909
0.431123
0.455054
0.441843
0.394068
0.465226
0.433086
0.215942
0.210459
0.28712
0.330131
0.342387
0.306368
0.285495
0.299305
0.26041
0.225405
0.222428
0.207326
0.18196
0.132973
0.0938954
0.0788191
0.074324
0.109988
0.15946
0.170972
0.167598
0.163473
0.170437
0.165806
0.162413
0.155931
0.153558
0.158622
0.140222
0.130054
0.127721
0.134079
0.120847
0.116388
0.10997
0.100275
0.0923363
0.0916208
0.0833597
0.0772819
0.0723396
0.0677062
0.0608816
0.0573231
0.0555645
0.0536913
0.0494224
0.0519771
0.056381
0.0593555
0.0636103
0.0626665
0.052294
0.215792
0.416999
0.411481
0.417464
0.427389
0.418526
0.408932
0.406161
0.401606
0.394971
0.391606
0.375047
0.379977
0.384547
0.381766
0.373264
0.382702
0.404407
0.409766
0.417595
0.427828
0.452831
0.445568
0.386596
0.462883
0.405568
0.283506
0.168538
0.292904
0.355631
0.352008
0.317901
0.29815
0.308665
0.26158
0.227103
0.222097
0.203209
0.175935
0.131487
0.0997197
0.0851293
0.0709388
0.116231
0.159281
0.169692
0.164163
0.161538
0.169994
0.166134
0.163233
0.157091
0.155299
0.160631
0.141687
0.12784
0.127815
0.129499
0.120057
0.115357
0.110167
0.100284
0.0912933
0.0916313
0.0824027
0.0760367
0.0709776
0.0668393
0.0600723
0.0564454
0.0544111
0.0527792
0.0484325
0.0510861
0.0552266
0.0587275
0.0636967
0.0675573
0.0564637
0.217944
0.418694
0.411389
0.41925
0.426254
0.417463
0.407302
0.404527
0.399816
0.394928
0.392137
0.373947
0.3759
0.381415
0.378016
0.372856
0.382432
0.405193
0.410543
0.416397
0.424358
0.449351
0.44546
0.382751
0.459183
0.389741
0.257151
0.142656
0.230917
0.383752
0.372934
0.330904
0.30464
0.311066
0.263906
0.230344
0.22169
0.206816
0.163885
0.120423
0.105904
0.0876926
0.0708027
0.135846
0.162397
0.168555
0.162078
0.158595
0.1687
0.164117
0.162106
0.158049
0.155241
0.162704
0.143382
0.128886
0.126939
0.128214
0.117473
0.115472
0.109971
0.100217
0.0907574
0.0906633
0.0819504
0.0746403
0.069705
0.0657859
0.0591076
0.0552751
0.052971
0.0516778
0.0477385
0.050004
0.0538821
0.0580948
0.064073
0.0681129
0.0585867
0.232556
0.420886
0.41006
0.421278
0.425677
0.416882
0.406875
0.403937
0.398766
0.394883
0.392384
0.3731
0.37265
0.378787
0.373971
0.37278
0.382288
0.407572
0.41356
0.416035
0.420911
0.444551
0.444581
0.379511
0.454531
0.377912
0.205727
0.0910377
0.215212
0.340865
0.373829
0.349668
0.313055
0.31586
0.266496
0.234858
0.221181
0.190205
0.152495
0.121407
0.117805
0.088196
0.0774551
0.150148
0.162542
0.167703
0.15885
0.156296
0.165742
0.163675
0.164923
0.159259
0.157313
0.16129
0.142926
0.129545
0.125635
0.125914
0.117317
0.113546
0.110123
0.100549
0.0900672
0.0892411
0.0812245
0.0733094
0.0683816
0.065111
0.0583065
0.0542144
0.0519183
0.0507536
0.0469034
0.048975
0.0527498
0.0578211
0.0657468
0.0681855
0.0612226
0.237446
0.423075
0.413313
0.423494
0.425488
0.417072
0.407492
0.404641
0.399202
0.394933
0.392133
0.372146
0.369493
0.375187
0.369691
0.372588
0.381865
0.410917
0.417778
0.416861
0.417327
0.439143
0.443617
0.377251
0.449281
0.36006
0.16184
0.05733
0.221786
0.346139
0.403726
0.353639
0.32261
0.320484
0.267466
0.231472
0.225023
0.188069
0.146646
0.125665
0.106288
0.0950314
0.0814711
0.155999
0.164943
0.167158
0.157094
0.15404
0.165015
0.162835
0.163956
0.158355
0.159751
0.161981
0.14566
0.131068
0.126855
0.124794
0.116294
0.113274
0.110231
0.100992
0.0906203
0.0888552
0.0804586
0.0719485
0.0670818
0.0640364
0.0577254
0.0535937
0.0507191
0.0498843
0.0463666
0.0479741
0.0515435
0.0562655
0.0661606
0.0689395
0.0612435
0.247044
0.422971
0.416124
0.424333
0.425323
0.417804
0.408783
0.406048
0.400273
0.395483
0.391174
0.371268
0.366709
0.37164
0.365738
0.371996
0.382104
0.414941
0.422761
0.41926
0.414437
0.434165
0.443003
0.376623
0.44212
0.32649
0.12508
0.047149
0.187472
0.361584
0.391032
0.374992
0.331471
0.326985
0.27164
0.231933
0.21541
0.188334
0.142289
0.119988
0.115389
0.0948709
0.0836381
0.165638
0.163674
0.166458
0.154199
0.152159
0.162755
0.161386
0.16706
0.160535
0.160167
0.161454
0.145227
0.133138
0.127039
0.123888
0.116009
0.112425
0.110019
0.101201
0.0909973
0.0877006
0.0798557
0.0708542
0.0660044
0.0634044
0.057052
0.0531288
0.0508775
0.0490045
0.0456649
0.0466541
0.0501623
0.0545378
0.0652043
0.0695886
0.0656393
0.252513
0.425001
0.415878
0.424973
0.425024
0.418637
0.410558
0.407779
0.401505
0.395678
0.389666
0.37042
0.363987
0.367664
0.362371
0.37038
0.382149
0.419319
0.428002
0.422868
0.411963
0.43016
0.442937
0.378633
0.43199
0.285241
0.109311
0.0508341
0.185449
0.385135
0.427466
0.411674
0.34125
0.330657
0.269043
0.235544
0.214324
0.184574
0.138839
0.123093
0.123576
0.0911326
0.0819522
0.170981
0.164108
0.165798
0.152397
0.150343
0.161311
0.160428
0.166932
0.159482
0.158391
0.161269
0.147687
0.135926
0.125472
0.123817
0.116267
0.112342
0.110915
0.101264
0.0917769
0.0877736
0.0789966
0.0698337
0.0650232
0.0624023
0.0564019
0.0526117
0.0500846
0.0483204
0.0451108
0.0453867
0.0487648
0.0526557
0.0634338
0.0700513
0.0684112
0.254494
0.427261
0.415282
0.42567
0.424659
0.419395
0.412532
0.409177
0.402389
0.395611
0.387918
0.369507
0.361662
0.363757
0.359524
0.368363
0.382236
0.423496
0.434343
0.427309
0.410651
0.427596
0.442907
0.386018
0.420679
0.22992
0.0706043
0.0510565
0.120278
0.28703
0.403813
0.402034
0.3502
0.334635
0.26985
0.238179
0.213478
0.183467
0.139264
0.121196
0.109917
0.0943984
0.0841793
0.168893
0.164732
0.165354
0.150401
0.148609
0.158882
0.160034
0.166765
0.161342
0.159288
0.159824
0.150407
0.137908
0.126732
0.123313
0.116479
0.111901
0.112519
0.100838
0.0921208
0.0870956
0.0786248
0.069088
0.0639347
0.061814
0.0556619
0.0524599
0.050081
0.0475072
0.044212
0.0440584
0.0473165
0.0510819
0.0611675
0.0700841
0.0697496
0.266363
0.426464
0.41674
0.42636
0.424044
0.419845
0.414439
0.409885
0.402821
0.395182
0.38633
0.368694
0.359762
0.359883
0.357216
0.366136
0.381934
0.426976
0.441156
0.432757
0.411271
0.427247
0.445862
0.399186
0.414595
0.261353
0.0429823
0.0514704
0.0987015
0.265265
0.420031
0.418548
0.360104
0.337059
0.269797
0.231819
0.216253
0.173758
0.127593
0.130127
0.117867
0.10023
0.0910179
0.164256
0.165514
0.164394
0.149206
0.147253
0.158313
0.159629
0.164196
0.159186
0.159059
0.159606
0.153968
0.137411
0.127081
0.123575
0.11632
0.11312
0.111166
0.101014
0.0921636
0.086587
0.0780678
0.0686049
0.0633133
0.0608114
0.0549434
0.0518081
0.0499504
0.0468015
0.043335
0.0427791
0.0457612
0.0497321
0.0591704
0.0696941
0.0706515
0.268312
0.427564
0.414239
0.426703
0.423341
0.419882
0.416227
0.410088
0.402582
0.394645
0.385025
0.368453
0.358489
0.356933
0.35472
0.363494
0.382258
0.430914
0.449305
0.439634
0.41397
0.429435
0.451388
0.412143
0.411353
0.190421
0.0301221
0.0494943
0.0445867
0.232082
0.425063
0.428128
0.369231
0.339754
0.273744
0.229908
0.20038
0.174975
0.127426
0.125712
0.128577
0.112996
0.0945979
0.163918
0.165024
0.1633
0.147748
0.146029
0.156701
0.160076
0.164925
0.15899
0.158615
0.15954
0.154886
0.140316
0.127804
0.123939
0.117592
0.11451
0.111976
0.101138
0.0922855
0.0859869
0.0777452
0.0678988
0.0627022
0.0602929
0.0541089
0.0514623
0.0498114
0.0459238
0.0420123
0.0415113
0.0445433
0.0483637
0.0575712
0.0694902
0.0734503
0.273168
0.430022
0.417123
0.427314
0.423054
0.420003
0.417936
0.410121
0.402377
0.393998
0.384681
0.368374
0.357193
0.354568
0.352814
0.361018
0.381831
0.433729
0.457155
0.447597
0.419095
0.434169
0.458474
0.426734
0.409195
0.122127
0.0236499
0.0466027
0.0186388
0.180802
0.362461
0.439983
0.389428
0.339122
0.27419
0.232039
0.197952
0.155683
0.132705
0.126931
0.113208
0.0983012
0.0985936
0.16593
0.163863
0.162403
0.146719
0.144467
0.155167
0.158802
0.164053
0.157842
0.158161
0.159212
0.155469
0.141873
0.129087
0.124377
0.118313
0.116571
0.111177
0.101328
0.0922277
0.086504
0.0771465
0.0678354
0.0623984
0.0593866
0.0532752
0.0506553
0.0494269
0.0451063
0.0409673
0.0403136
0.0432123
0.0469786
0.0559455
0.067821
0.074418
0.280236
0.432777
0.420665
0.428813
0.423512
0.42064
0.419412
0.411421
0.401886
0.393486
0.385253
0.369003
0.356384
0.353175
0.351056
0.358981
0.381508
0.43646
0.464247
0.456225
0.425197
0.439965
0.467405
0.439538
0.381949
0.0645763
0.0191429
0.0425803
0.00444647
0.0852993
0.329542
0.44538
0.389516
0.341311
0.27298
0.219958
0.201268
0.156013
0.123823
0.127913
0.124342
0.104758
0.104491
0.164163
0.163685
0.161619
0.145483
0.143008
0.153401
0.156162
0.162589
0.157337
0.157906
0.158155
0.156027
0.141334
0.129888
0.125168
0.119944
0.117549
0.110155
0.101386
0.0921204
0.0862815
0.0768339
0.0672606
0.0617885
0.0587291
0.0523323
0.0500829
0.0489538
0.0443571
0.0398975
0.0390793
0.0417563
0.0458084
0.0552679
0.0658693
0.0762884
0.277124
0.435387
0.424193
0.431029
0.424404
0.421566
0.420254
0.410927
0.400891
0.393201
0.386615
0.369771
0.355546
0.351823
0.349343
0.3567
0.380305
0.437065
0.468714
0.464027
0.430675
0.446097
0.473242
0.452574
0.358675
0.0388916
0.0164996
0.0403525
0.00131895
0.0375802
0.215683
0.44485
0.40985
0.338454
0.268529
0.215991
0.180314
0.139378
0.127414
0.131506
0.130833
0.106654
0.110853
0.16378
0.163866
0.160768
0.145382
0.141955
0.151208
0.154584
0.161302
0.157039
0.157581
0.157589
0.155733
0.14355
0.131436
0.124989
0.120687
0.1188
0.110774
0.101091
0.0916688
0.0862011
0.0761991
0.0671863
0.0619048
0.0576078
0.0514518
0.0491211
0.048453
0.0436801
0.0392278
0.0379522
0.0404779
0.0449267
0.0540951
0.0642468
0.0772438
0.284121
0.437725
0.427552
0.433136
0.425074
0.421936
0.420356
0.410452
0.39981
0.393279
0.387899
0.370181
0.354465
0.350374
0.347159
0.353826
0.378236
0.435588
0.468851
0.469461
0.436008
0.45287
0.477421
0.468413
0.358485
0.0280912
0.0164558
0.037723
0.000630937
0.0197919
0.16598
0.438237
0.408075
0.341892
0.26671
0.217522
0.178754
0.141763
0.13311
0.140309
0.120146
0.113022
0.121831
0.161908
0.164804
0.160126
0.145331
0.141287
0.149651
0.151865
0.157959
0.156534
0.157777
0.155695
0.155499
0.143478
0.133813
0.125612
0.120945
0.11941
0.111336
0.100583
0.0917843
0.0856914
0.0759206
0.0667601
0.0617077
0.0568727
0.0507145
0.0483524
0.0475609
0.0430281
0.0384173
0.0368798
0.0390882
0.0436865
0.0531637
0.0622273
0.0787627
0.276294
0.439598
0.430636
0.434612
0.425308
0.421311
0.419652
0.409155
0.398747
0.39328
0.388788
0.370094
0.353178
0.34864
0.344799
0.35119
0.375234
0.431392
0.467671
0.472429
0.440629
0.460836
0.484854
0.489751
0.372142
0.0251396
0.0174739
0.0354146
0.000449853
0.0100622
0.0915527
0.339496
0.416743
0.344146
0.264635
0.207081
0.178958
0.144373
0.132097
0.130003
0.12664
0.124523
0.136293
0.160429
0.164753
0.159637
0.145842
0.140857
0.147495
0.149519
0.156622
0.154654
0.158109
0.155676
0.152733
0.144706
0.134185
0.125524
0.121826
0.11915
0.112666
0.100302
0.0917832
0.0849446
0.0751946
0.0664724
0.0618537
0.0558955
0.0502641
0.0475018
0.0466822
0.042288
0.0379442
0.0359548
0.0378134
0.0427541
0.0519625
0.0600649
0.0785096
0.288099
0.440586
0.433237
0.435278
0.425056
0.420034
0.417896
0.406729
0.39755
0.392749
0.388495
0.369173
0.351468
0.346627
0.342559
0.348377
0.37167
0.42549
0.463395
0.471866
0.445374
0.469571
0.495561
0.505378
0.408076
0.0516725
0.017904
0.033315
0.000479847
0.00833706
0.0766847
0.315538
0.429219
0.342711
0.26219
0.200123
0.174979
0.142997
0.136382
0.131767
0.128602
0.139002
0.154824
0.162256
0.165816
0.159186
0.145807
0.140445
0.146705
0.148448
0.154767
0.153932
0.156815
0.155572
0.153544
0.144104
0.135064
0.126166
0.121879
0.1196
0.112487
0.100085
0.0912784
0.0846338
0.0749518
0.0660562
0.0617109
0.0553168
0.0498505
0.0469372
0.045855
0.0414253
0.0372032
0.035087
0.0367025
0.0414055
0.0510848
0.0583508
0.0784589
0.285744
0.440413
0.434948
0.435086
0.424248
0.418803
0.415678
0.403398
0.395696
0.391431
0.386627
0.367035
0.34921
0.344531
0.340738
0.346112
0.368029
0.418299
0.457357
0.469831
0.450611
0.479341
0.505918
0.507698
0.3673
0.0241962
0.0194396
0.0315594
0.000524238
0.00501858
0.0541335
0.280211
0.430006
0.342348
0.261404
0.19651
0.17083
0.144961
0.128284
0.13516
0.13699
0.126054
0.175745
0.162783
0.166827
0.158654
0.145722
0.139927
0.145213
0.147169
0.153081
0.151802
0.15554
0.155978
0.152971
0.144247
0.13528
0.127143
0.121881
0.118948
0.111932
0.0997795
0.0903499
0.0838416
0.074603
0.0657345
0.0612487
0.0545682
0.0495814
0.0462689
0.0448813
0.0406064
0.0368312
0.034355
0.0356972
0.04012
0.0506226
0.0570556
0.0807047
0.270434
0.43913
0.434308
0.433756
0.422371
0.417027
0.412732
0.399414
0.392496
0.388394
0.383134
0.364089
0.346727
0.342674
0.339702
0.344648
0.36514
0.41077
0.451559
0.467413
0.455936
0.489955
0.521086
0.508088
0.299362
0.0240769
0.0291567
0.0302563
0.00114118
0.00595358
0.0412683
0.252111
0.440548
0.340266
0.259273
0.194104
0.164905
0.130063
0.132163
0.142975
0.139814
0.124237
0.178391
0.165069
0.167645
0.158198
0.146069
0.1399
0.144627
0.146127
0.152008
0.150275
0.153722
0.154634
0.150004
0.143018
0.135635
0.126198
0.121578
0.11861
0.111292
0.0994454
0.0895133
0.0827263
0.074378
0.0652166
0.0602803
0.0538943
0.0491951
0.0458296
0.0439766
0.0398042
0.0359898
0.0335708
0.0346465
0.0388555
0.0494317
0.0557093
0.081412
0.269773
0.435266
0.43014
0.431494
0.419476
0.413675
0.408708
0.395209
0.387931
0.383451
0.377969
0.360319
0.344347
0.340607
0.340027
0.344775
0.363502
0.404543
0.44686
0.466329
0.462607
0.500955
0.535143
0.521795
0.241464
0.0227441
0.0423423
0.0294328
0.00279255
0.00665399
0.0366041
0.22911
0.410672
0.340437
0.259677
0.198339
0.158811
0.131658
0.133086
0.151691
0.140317
0.124806
0.172762
0.165871
0.169192
0.157712
0.146931
0.140612
0.143907
0.145461
0.151621
0.148334
0.151493
0.150923
0.149393
0.142779
0.136021
0.125149
0.121116
0.118284
0.110057
0.098705
0.0890145
0.0818184
0.0739588
0.0648645
0.0591056
0.053074
0.0487962
0.0451287
0.0429871
0.0389824
0.0355539
0.0329952
0.0337121
0.0374564
0.0461887
0.0540653
0.0807843
0.264186
0.432017
0.424166
0.426992
0.416355
0.408389
0.403238
0.391055
0.383137
0.376817
0.371628
0.355734
0.341733
0.339184
0.340693
0.346308
0.363162
0.40064
0.444124
0.467159
0.470627
0.512098
0.551314
0.545989
0.258002
0.0132595
0.0233843
0.027811
0.00643481
0.00857346
0.0304128
0.167272
0.39941
0.338081
0.25548
0.178642
0.163839
0.139089
0.137325
0.130833
0.129558
0.141358
0.166005
0.167621
0.170201
0.157773
0.147758
0.141214
0.143697
0.145253
0.150512
0.146682
0.1493
0.149621
0.147333
0.14226
0.135367
0.125075
0.120858
0.118062
0.109835
0.0986116
0.0884071
0.0807777
0.0735707
0.0647074
0.0582031
0.0523388
0.0481869
0.0446899
0.0421737
0.0381716
0.0346116
0.0321299
0.0326992
0.035899
0.043636
0.0523258
0.0781597
0.250604
0.426774
0.417708
0.421069
0.411022
0.401815
0.396106
0.386331
0.380106
0.369846
0.364531
0.350091
0.338886
0.337321
0.341529
0.348324
0.363993
0.399529
0.44387
0.469182
0.479082
0.523305
0.569588
0.578941
0.290238
0.012891
0.0446839
0.0250786
0.0106653
0.0117547
0.0305659
0.151889
0.388706
0.332894
0.256556
0.175969
0.143634
0.129611
0.126857
0.137903
0.139458
0.1491
0.164384
0.169128
0.17155
0.158168
0.149153
0.142545
0.143838
0.144568
0.149337
0.146134
0.14696
0.147472
0.145916
0.140996
0.134193
0.124274
0.120172
0.117291
0.108592
0.0979546
0.0883052
0.0800875
0.072753
0.0644387
0.0575805
0.0514164
0.0474694
0.0438474
0.0410864
0.037264
0.0338451
0.0314021
0.0315805
0.0342899
0.0422539
0.0506151
0.0775702
0.240263
0.423128
0.413388
0.415137
0.405869
0.394968
0.388626
0.380792
0.377553
0.366758
0.357479
0.343326
0.335955
0.335466
0.341372
0.349604
0.36531
0.39986
0.444468
0.471804
0.487229
0.533725
0.587893
0.602462
0.33608
0.0162747
0.0263146
0.0214113
0.016982
0.0148373
0.0310633
0.1379
0.383017
0.326851
0.238166
0.177992
0.13919
0.134223
0.126102
0.144462
0.154578
0.149789
0.165152
0.170075
0.172349
0.159444
0.15061
0.144121
0.144501
0.144161
0.146873
0.145942
0.144809
0.145179
0.14473
0.140279
0.133917
0.124116
0.120525
0.116781
0.108288
0.09726
0.0878531
0.0789321
0.0719201
0.063948
0.0567719
0.0506336
0.0467226
0.0432956
0.0402044
0.0363058
0.0327439
0.0302663
0.0303342
0.032534
0.0404975
0.0492432
0.0733331
0.228432
0.416233
0.405446
0.408447
0.400669
0.388651
0.382311
0.375161
0.371138
0.363784
0.351464
0.335594
0.332441
0.332961
0.340254
0.349821
0.366268
0.40052
0.444904
0.473424
0.49409
0.542096
0.605891
0.638667
0.391813
0.00905465
0.042932
0.0179859
0.009434
0.0130441
0.0290684
0.116145
0.374848
0.32246
0.23487
0.177242
0.133909
0.129885
0.124845
0.148539
0.132842
0.132167
0.163508
0.169214
0.172911
0.160931
0.152221
0.146064
0.145959
0.144249
0.145895
0.14554
0.143526
0.143148
0.144332
0.138842
0.132742
0.123777
0.121753
0.115843
0.107975
0.0967072
0.0878932
0.0782117
0.0707835
0.0631181
0.0563383
0.0499168
0.0458176
0.0424316
0.039216
0.035282
0.0317611
0.0292494
0.0289406
0.0307387
0.0383827
0.0472738
0.0731806
0.213363
0.413518
0.402847
0.40616
0.396066
0.383339
0.377938
0.370704
0.365871
0.362705
0.346699
0.327577
0.328743
0.329905
0.337796
0.348925
0.36659
0.400702
0.444112
0.473533
0.49965
0.548731
0.623152
0.718499
0.414955
0.00613103
0.0150902
0.0134744
0.0160197
0.00878795
0.0312412
0.115103
0.349713
0.316164
0.233592
0.169961
0.127433
0.120143
0.122583
0.135608
0.134114
0.15054
0.155071
0.168281
0.173416
0.162991
0.15435
0.148267
0.147051
0.145164
0.14456
0.144528
0.141796
0.141899
0.142083
0.13792
0.131841
0.124274
0.122126
0.114934
0.10731
0.096288
0.0876156
0.0772096
0.0698606
0.0620639
0.0558385
0.0491085
0.0449856
0.0415853
0.0382481
0.0342305
0.0306016
0.027922
0.0274863
0.0288398
0.0353101
0.0458277
0.0671179
0.215104
0.406615
0.398549
0.40351
0.392499
0.379117
0.374633
0.367241
0.361806
0.358683
0.342928
0.318988
0.324585
0.32554
0.334061
0.347048
0.36633
0.399847
0.441107
0.471541
0.503307
0.553286
0.638092
0.814569
0.436532
0.00561297
0.0160521
0.00800414
0.0139567
0.00875813
0.0305433
0.108667
0.34206
0.307742
0.229409
0.175267
0.122723
0.117315
0.1269
0.135495
0.133611
0.147751
0.153491
0.167803
0.173703
0.165014
0.156926
0.151822
0.149747
0.146735
0.143295
0.14408
0.140966
0.140201
0.140981
0.136433
0.131417
0.124044
0.122774
0.114835
0.106866
0.0959738
0.0873492
0.07647
0.0688276
0.0611644
0.0549821
0.0485541
0.0440266
0.0405695
0.0372401
0.0331008
0.0294485
0.0266365
0.0259586
0.0268499
0.0317777
0.0441883
0.0670347
0.192857
0.403198
0.396531
0.40171
0.390634
0.37936
0.371149
0.364557
0.35894
0.355722
0.340321
0.312434
0.319498
0.320122
0.329006
0.344162
0.364985
0.397794
0.436308
0.467148
0.504195
0.55579
0.651355
0.921476
0.508722
0.0139229
0.625866
0.00306613
0.00765068
0.00590714
0.0275192
0.0925572
0.337018
0.302374
0.225068
0.148705
0.120285
0.115096
0.131283
0.136926
0.135052
0.145968
0.152177
0.166468
0.173795
0.166098
0.159454
0.155649
0.153446
0.149722
0.143844
0.143259
0.140377
0.139502
0.138598
0.13474
0.130511
0.124619
0.121847
0.115023
0.106274
0.0952486
0.0869924
0.0758593
0.067968
0.0601823
0.0543234
0.0477829
0.0431296
0.039419
0.0359949
0.0319058
0.0281627
0.0251982
0.0243347
0.0247958
0.0293564
0.042755
0.0628173
0.196321
0.400008
0.394633
0.400452
0.38918
0.376516
0.367225
0.361632
0.356118
0.352557
0.338797
0.311605
0.314169
0.313778
0.323031
0.340141
0.362815
0.394368
0.429596
0.460348
0.502524
0.555666
0.669039
1.05478
0.802852
0.121819
0.0144421
0.00164507
0.000765585
0.00574826
0.0319026
0.0798434
0.315733
0.298723
0.214288
0.143275
0.112121
0.10923
0.125723
0.140393
0.132552
0.13425
0.151604
0.16485
0.173056
0.166786
0.162295
0.159977
0.15825
0.152778
0.144146
0.143086
0.140805
0.139097
0.136876
0.133923
0.130171
0.124499
0.120071
0.115012
0.105625
0.0949585
0.0860629
0.0754134
0.0672299
0.059288
0.0530437
0.0470476
0.0420601
0.0383041
0.0346923
0.0305448
0.0267914
0.0236823
0.0226641
0.0228706
0.0278105
0.0397909
0.0615135
0.182536
0.396077
0.391936
0.399335