/*--------------------------------*- C++ -*----------------------------------*\
| =========                 |                                                 |
| \\      /  F ield         | OpenFOAM: The Open Source CFD Toolbox           |
|  \\    /   O peration     | Version:  4.1                                   |
|   \\  /    A nd           | Web:      www.OpenFOAM.org                      |
|    \\/     M anipulation  |                                                 |
\*---------------------------------------------------------------------------*/
FoamFile
{
    version     2.0;
    format      ascii;
    class       volScalarField;
    location    "1";
    object      p;
}
// * * * * * * * * * * * * * * * * * * * * * * * * * * * * * * * * * * * * * //

dimensions      [0 2 -2 0 0 0 0];

internalField   nonuniform List<scalar> 
6785
(
483.59
416.97
365.922
315.776
269.374
225.728
184.706
146.019
109.496
74.6441
40.9822
10.1352
-17.0538
-49.6663
-84.6137
-66.9183
-85.198
-81.5952
-86.5852
-89.8646
-93.3345
-96.3007
-98.605
-100.038
-100.476
-99.8513
-97.5035
-93.2115
-90.5867
-90.7043
-118.407
-124.986
-115.593
-117.414
-114.543
-113.106
-111.407
-109.97
-108.743
-107.794
-106.909
-105.88
-105.326
-104.761
-103.568
-77.6581
-81.1576
-76.9046
-81.2308
-80.7339
-82.7343
-84.1128
-85.6582
-87.1117
-88.536
-89.8891
-90.7762
-90.673
-89.5946
-87.3897
-73.3253
-75.9688
-72.362
-75.1443
-72.882
-73.126
-72.3927
-71.4391
-70.3213
-69.0697
-67.7389
-66.3457
-64.6863
-63.1539
-61.6728
-66.4149
-67.4136
-63.4754
-64.4351
-61.7371
-60.9183
-59.4523
-57.838
-56.3738
-54.9885
-53.6516
-52.4916
-51.3414
-50.3086
-49.6641
-52.5179
-52.0849
-48.5497
-49.0493
-47.0733
-46.5234
-45.5537
-44.5338
-43.7434
-42.9916
-42.1839
-41.4487
-40.6568
-39.7139
-38.9578
-38.3604
-37.2017
-34.6847
-35.1396
-33.6701
-33.3992
-32.5895
-31.8014
-31.1803
-30.4822
-29.6875
-28.9143
-28.0921
-27.0563
-26.1735
-27.0598
-25.8401
-24.2954
-24.6696
-23.383
-23.3421
-22.4986
-21.8412
-21.3015
-20.6239
-19.9092
-19.2329
-18.5534
-17.6662
-17.015
-19.4966
-18.5067
-17.4819
-17.6754
-16.4708
-16.603
-15.7033
-15.1666
-14.7154
-14.0917
-13.5089
-12.959
-12.435
-11.6759
-11.2796
-14.175
-13.3258
-12.4619
-12.5107
-11.3665
-11.5231
-10.6069
-10.1105
-9.70481
-9.08891
-8.5925
-8.08167
-7.6399
-6.90344
-6.63463
-10.2245
-9.34544
-8.42321
-8.40136
-7.2523
-7.29444
-6.42927
-5.86573
-5.4644
-4.80189
-4.34481
-3.78298
-3.37346
-2.60581
-2.36966
-4.76996
-3.88616
-2.76197
-2.81838
-1.75429
-1.66727
-0.967086
-0.375891
-0.0491861
0.605485
0.911776
1.48831
1.73862
2.45352
2.56534
-0.50921
-0.212285
0.356924
-0.0383496
0.807484
0.796761
1.24002
1.68829
1.77328
2.32653
2.43156
2.95722
3.14235
3.86146
4.07095
8.07478
7.0358
9.32899
9.52471
10.7464
11.0397
11.6209
12.4406
12.6465
13.4171
13.4392
14.0421
13.8423
14.3519
14.1156
2.56948
2.63834
2.6266
2.64432
2.65523
2.69581
2.68691
2.6981
2.71423
2.73459
2.73018
2.73706
2.75703
2.74436
2.73889
2.75392
2.74872
2.73885
2.74338
2.73388
2.72119
2.70054
2.70635
2.67784
2.66624
2.62826
2.6289
2.60458
2.53597
2.52465
2.46654
2.39983
2.29026
2.25332
2.21037
2.01588
1.9518
1.8554
1.6631
1.38129
1.26271
1.19015
0.857401
0.441956
0.292397
0.266489
-0.465087
-0.697701
-0.749098
-1.45833
-2.27033
-2.57631
-2.52989
-3.55234
-4.52482
-4.81543
-4.63704
-6.41761
-6.83364
-6.5993
-8.13013
-9.41259
-9.71542
-9.37509
-11.8805
-12.3265
-12.1732
-14.0409
-15.5275
-15.971
-15.9008
-18.6786
-20.3105
-20.4098
-19.8077
-26.9455
-25.9756
-24.5134
-39.2481
-32.7695
-28.0385
-28.3557
-28.5042
-38.393
-27.2892
-26.4964
-25.6793
-25.2121
-24.3637
-23.556
-23.2871
-23.7151
-31.8152
-22.4894
-21.7454
-19.7759
-18.6634
-18.1849
-17.1474
-16.2274
-16.9474
-27.5333
-16.6154
-15.5324
-14.2137
-12.8367
-11.3726
-10.4237
-9.40643
-8.38581
-9.16608
-19.375
-8.56352
-6.99138
-5.3794
-4.10182
-2.79846
-1.20414
0.19885
-0.50178
-10.2325
0.579882
2.64739
4.67986
6.35576
7.92205
9.97428
11.9828
11.2998
1.80014
12.1893
14.7715
17.3114
19.4363
21.1251
23.3199
25.5447
25.1751
20.3925
25.1524
26.0007
26.8561
27.9117
29.2327
29.4455
28.7357
28.1312
26.1558
25.8573
21.2052
17.2301
13.3667
9.53313
3.84115
-2.71698
-5.49187
-4.83484
-0.290118
-2.25484
-7.42555
-13.7633
-8.00732
-15.393
-14.1593
-16.4637
-14.5844
-12.9079
-18.0461
-15.2572
-13.4108
-16.987
-16.1872
-16.9587
-15.403
-13.2499
-16.0654
-15.1664
-15.4831
-14.0965
-12.4037
-14.7967
-12.9002
-11.4185
-13.0118
-12.2731
-12.2461
-11.2164
-9.764
-11.0099
-10.336
-10.2332
-9.39477
-8.30095
-9.36684
-8.29973
-7.3935
-8.08684
-7.60497
-7.46626
-6.88176
-6.03447
-6.60155
-6.18449
-6.05633
-5.57884
-4.92996
-5.4498
-4.84791
-4.30565
-4.64999
-4.34777
-4.23879
-3.89346
-3.38056
-3.68553
-3.41832
-3.32897
-3.03255
-2.62103
-2.92933
-2.55105
-2.19781
-2.40761
-2.19936
-2.12731
-1.89729
-1.54891
-1.74838
-1.55262
-1.49409
-1.2808
-0.980382
-1.20328
-0.921566
-0.657057
-0.820014
-0.631011
-0.587803
-0.38599
0.0711392
0.000315436
0.00105549
0.00178524
0.00252751
0.00328009
0.00397819
0.00466229
0.00524357
0.00581897
0.00612366
0.00610582
0.00599737
0.00573947
0.00486073
0.00363817
0.00200543
-0.000125446
-0.00227539
-0.00512079
-0.00819038
-0.011561
-0.0149839
-0.0182491
-0.0183282
-0.0188757
-0.0580479
-0.0846056
-0.136812
-0.233886
-0.302889
-0.360065
-0.385798
-0.381023
-0.350938
-0.302022
-0.241825
-0.182157
-0.129243
-0.0825494
-0.059625
-0.00286636
-0.0273924
-0.0020569
0.0129307
0.0193603
0.0159779
0.0226586
0.0247731
0.0285982
0.0306788
0.032695
0.0342985
0.0356661
0.0367812
0.0375944
0.038116
0.0386801
0.0388964
0.0389596
0.0387969
0.0384059
0.0376387
0.0364182
0.0346573
0.0320772
0.0285598
0.0238447
0.0178057
0.0102407
0.00123162
-0.00897389
-0.019861
-0.030074
-0.0387434
-0.049018
-0.0631274
-0.213347
-0.178067
-0.309497
0.00131358
0.00389976
0.00635804
0.00882432
0.0112639
0.0135067
0.015571
0.0173921
0.0191152
0.0200521
0.0202737
0.0197621
0.0188204
0.016221
0.0124126
0.00759521
0.00113718
-0.00597985
-0.0149545
-0.0247531
-0.0358526
-0.0473534
-0.0589204
-0.0612128
-0.0638806
-0.141085
-0.186793
-0.281915
-0.464854
-0.593637
-0.699451
-0.746313
-0.73511
-0.674703
-0.579123
-0.462849
-0.347231
-0.24452
-0.153892
-0.106991
0.00266327
-0.0438608
-0.00352701
0.0319845
0.0480739
0.0532232
0.069036
0.076225
0.0869514
0.0931098
0.0990684
0.103832
0.107833
0.111078
0.11351
0.115126
0.116564
0.117124
0.117308
0.116674
0.11551
0.113185
0.109535
0.104355
0.0967726
0.0864634
0.0726311
0.05489
0.0326305
0.00598604
-0.0243875
-0.0571289
-0.088552
-0.11647
-0.147626
-0.1694
-0.422768
-0.350191
-0.633307
0.0025165
0.00700045
0.0112818
0.0155359
0.0196857
0.0234817
0.0268756
0.0299896
0.0327447
0.0342262
0.0347362
0.0337511
0.0320284
0.0275688
0.0208086
0.0125827
0.00146771
-0.0110606
-0.0265989
-0.0438423
-0.0637471
-0.0848033
-0.106884
-0.116246
-0.125333
-0.2084
-0.256706
-0.368235
-0.580437
-0.72367
-0.836326
-0.878618
-0.852819
-0.772734
-0.65579
-0.515767
-0.379958
-0.260248
-0.154059
-0.0892665
0.0478728
-0.0139543
0.00930151
0.0503551
0.0767325
0.0937153
0.118027
0.128978
0.146325
0.156716
0.166596
0.174597
0.181206
0.186515
0.190491
0.193325
0.195645
0.196476
0.196789
0.195625
0.193603
0.189688
0.183521
0.174817
0.162081
0.144768
0.121539
0.0916892
0.0542526
0.00935142
-0.0419195
-0.0973284
-0.151069
-0.199647
-0.251058
-0.267802
-0.530393
-0.502079
-0.781409
0.00344674
0.00965389
0.0157352
0.0217308
0.0275717
0.0329142
0.037618
0.0420931
0.0458404
0.0479234
0.0486817
0.0473777
0.0448312
0.0384457
0.0288678
0.0171284
0.00135879
-0.0166853
-0.0388172
-0.0635314
-0.0923536
-0.123049
-0.155785
-0.172813
-0.190329
-0.27719
-0.325266
-0.460557
-0.705611
-0.860484
-0.973968
-1.00438
-0.958159
-0.855193
-0.716999
-0.554718
-0.400692
-0.265679
-0.145995
-0.0642788
0.083172
0.026557
0.0318037
0.0702758
0.108787
0.132243
0.166828
0.18221
0.205706
0.220445
0.234199
0.245374
0.254569
0.261879
0.267356
0.271308
0.274386
0.275618
0.276074
0.274417
0.271549
0.266096
0.257491
0.245334
0.227576
0.203385
0.170899
0.12905
0.076523
0.0133499
-0.0589981
-0.137532
-0.21453
-0.284964
-0.35572
-0.367681
-0.63141
-0.65738
-0.914225
0.00442402
0.0124517
0.0204356
0.0282504
0.0358173
0.0427593
0.0487962
0.0546636
0.0594046
0.0621758
0.063186
0.0616202
0.0582652
0.0498656
0.0377399
0.022411
0.00218182
-0.0215709
-0.050211
-0.0824393
-0.12029
-0.16064
-0.204369
-0.229067
-0.255911
-0.345506
-0.396865
-0.566768
-0.859436
-1.03526
-1.15637
-1.17804
-1.11059
-0.981822
-0.817967
-0.627594
-0.448557
-0.292032
-0.154406
-0.0598032
0.0863837
0.0538199
0.055507
0.0905917
0.138928
0.174132
0.216322
0.236154
0.265494
0.284542
0.302141
0.316488
0.328268
0.337474
0.344433
0.349433
0.353221
0.354909
0.355542
0.3534
0.349677
0.34274
0.331767
0.316201
0.293508
0.262506
0.220819
0.16698
0.0992925
0.0176515
-0.0761708
-0.178515
-0.279906
-0.373426
-0.463088
-0.473583
-0.741316
-0.79999
-1.07617
0.00530116
0.015008
0.0248405
0.0344267
0.0436505
0.0521588
0.0595851
0.0667953
0.0725764
0.0760717
0.077359
0.0754578
0.071367
0.0609503
0.0464064
0.0272961
0.00256325
-0.0269943
-0.0620305
-0.101773
-0.14879
-0.19887
-0.253949
-0.286799
-0.321438
-0.411774
-0.469404
-0.682806
-1.02974
-1.23052
-1.36178
-1.37729
-1.28908
-1.13344
-0.94123
-0.719476
-0.512197
-0.331306
-0.173623
-0.0669005
0.0790304
0.0774846
0.0833232
0.1142
0.172463
0.213962
0.265722
0.29023
0.325494
0.348937
0.370355
0.387802
0.402155
0.4132
0.421619
0.427591
0.432149
0.434216
0.43503
0.432444
0.427883
0.41953
0.406285
0.387387
0.359877
0.322179
0.271406
0.205654
0.122793
0.0225306
-0.0931438
-0.22002
-0.346994
-0.464909
-0.573519
-0.58723
-0.855509
-0.939156
-1.24313
0.00614239
0.017518
0.0292381
0.040631
0.0515398
0.0616399
0.0705799
0.0790525
0.0860394
0.0902588
0.0918565
0.0895979
0.0848565
0.072548
0.0556179
0.0326072
0.00340185
-0.0319093
-0.0734678
-0.120737
-0.177008
-0.236899
-0.303287
-0.344159
-0.385869
-0.473593
-0.539695
-0.80725
-1.21251
-1.43796
-1.57769
-1.58638
-1.47698
-1.29339
-1.0711
-0.817241
-0.581219
-0.375093
-0.196725
-0.0760743
0.0746071
0.102706
0.112163
0.139415
0.204948
0.255479
0.31575
0.344926
0.386023
0.41383
0.439
0.459433
0.476277
0.489158
0.499004
0.505939
0.51135
0.513616
0.51458
0.511627
0.506254
0.496557
0.481133
0.459002
0.426802
0.38254
0.322805
0.24522
0.147176
0.0281073
-0.10985
-0.262085
-0.415935
-0.559703
-0.687687
-0.708898
-0.969645
-1.08903
-1.41985
0.00694685
0.0199593
0.0335601
0.0467684
0.0593851
0.0710709
0.0816018
0.0912474
0.0994816
0.104473
0.106322
0.103806
0.0984184
0.0843288
0.0649867
0.0380824
0.00440269
-0.0365225
-0.0850151
-0.139861
-0.205402
-0.27518
-0.352381
-0.400756
-0.449042
-0.529095
-0.60526
-0.9425
-1.41048
-1.6585
-1.80395
-1.80236
-1.66837
-1.45534
-1.20206
-0.916239
-0.651588
-0.419667
-0.220317
-0.0845519
0.074624
0.129421
0.139351
0.166865
0.23834
0.298076
0.36573
0.400102
0.446969
0.479096
0.507986
0.531375
0.550606
0.565345
0.576556
0.584466
0.590701
0.593105
0.594144
0.590945
0.584801
0.573839
0.556342
0.531091
0.49436
0.443683
0.375142
0.285827
0.172607
0.0345463
-0.126154
-0.304647
-0.486779
-0.658054
-0.806333
-0.838312
-1.08043
-1.25504
-1.59435
0.00771577
0.022343
0.0378287
0.0528462
0.0672157
0.0804865
0.0926716
0.103533
0.112941
0.118819
0.120946
0.118306
0.112096
0.0963824
0.0745966
0.0438779
0.00570933
-0.0407353
-0.0965005
-0.158979
-0.233831
-0.313622
-0.401076
-0.456635
-0.511389
-0.580171
-0.663814
-1.09331
-1.62744
-1.8947
-2.04326
-2.02743
-1.86357
-1.61932
-1.33434
-1.0163
-0.72294
-0.464754
-0.244083
-0.0927896
0.0769139
0.157144
0.165076
0.195352
0.272799
0.341778
0.415908
0.4558
0.508358
0.544787
0.577352
0.603666
0.625208
0.641763
0.65428
0.66315
0.670047
0.672703
0.673717
0.670395
0.663556
0.651407
0.631968
0.603722
0.562638
0.505715
0.428552
0.327628
0.199251
0.0420115
-0.141924
-0.34765
-0.559598
-0.760291
-0.930544
-0.975601
-1.19831
-1.43155
-1.76875
0.00845726
0.0246811
0.042053
0.0588534
0.0750039
0.0898467
0.103718
0.115885
0.1265
0.133336
0.135809
0.133098
0.125896
0.108769
0.0844358
0.0500018
0.00733859
-0.0446654
-0.107672
-0.177875
-0.262136
-0.352145
-0.449238
-0.512004
-0.573654
-0.631496
-0.715485
-1.26747
-1.86701
-2.14903
-2.29785
-2.2644
-2.06522
-1.78796
-1.46979
-1.11863
-0.796072
-0.511035
-0.268446
-0.101205
0.0801643
0.185785
0.189951
0.224264
0.307841
0.38619
0.466615
0.512222
0.570318
0.611015
0.647218
0.676368
0.700166
0.71841
0.732183
0.741966
0.749398
0.752383
0.753297
0.749964
0.742552
0.72929
0.708056
0.676953
0.63171
0.568741
0.483158
0.370776
0.227276
0.0506776
-0.157009
-0.391013
-0.634459
-0.866766
-1.06159
-1.12164
-1.33712
-1.61786
-1.95639
0.00917871
0.0269872
0.0462405
0.0648348
0.0827473
0.0991658
0.114703
0.128286
0.140219
0.148021
0.150899
0.14814
0.139974
0.121556
0.0945343
0.056566
0.00939979
-0.0483535
-0.118348
-0.196543
-0.290256
-0.390667
-0.496688
-0.566838
-0.636373
-0.686768
-0.766589
-1.47867
-2.13338
-2.42366
-2.56958
-2.51513
-2.27579
-1.96302
-1.60942
-1.22423
-0.871443
-0.55868
-0.293445
-0.109666
0.0842913
0.214993
0.214497
0.253294
0.343153
0.431436
0.517788
0.569502
0.632894
0.677854
0.717648
0.749511
0.775528
0.79533
0.810281
0.820917
0.828802
0.832131
0.832957
0.82967
0.821806
0.807513
0.784632
0.750844
0.701643
0.632866
0.539094
0.415423
0.256862
0.0607312
-0.171244
-0.434629
-0.711418
-0.97785
-1.20062
-1.27758
-1.49666
-1.81612
-2.14811
0.00988087
0.0292623
0.0503955
0.0708009
0.0904444
0.108489
0.125674
0.140791
0.154042
0.162741
0.166162
0.163417
0.154393
0.134726
0.104971
0.0636828
0.0119429
-0.051785
-0.128621
-0.215162
-0.318233
-0.428991
-0.543237
-0.620945
-0.699308
-0.746651
-0.82515
-1.73507
-2.43105
-2.7202
-2.86036
-2.78104
-2.49747
-2.14473
-1.75339
-1.33336
-0.949272
-0.607778
-0.319085
-0.118034
0.088994
0.242372
0.238976
0.282299
0.379131
0.477712
0.569337
0.627609
0.696058
0.745337
0.788588
0.823079
0.851273
0.872548
0.888604
0.900014
0.908289
0.911991
0.912855
0.909537
0.901319
0.886091
0.861721
0.825448
0.772509
0.698187
0.596487
0.461733
0.288197
0.0723717
-0.184444
-0.478378
-0.790504
-1.09391
-1.34857
-1.44457
-1.67201
-2.02129
-2.34562
0.0105651
0.0315128
0.0545288
0.0767432
0.0981188
0.117871
0.136691
0.153401
0.167895
0.177433
0.181599
0.1789
0.169091
0.148222
0.115842
0.0713138
0.0148836
-0.054914
-0.138706
-0.233745
-0.346057
-0.466995
-0.588689
-0.674035
-0.761583
-0.811049
-0.894857
-2.03522
-2.76334
-3.04019
-3.17262
-3.0634
-2.73129
-2.33315
-1.90201
-1.44583
-1.02989
-0.658561
-0.34549
-0.126329
0.0939381
0.266085
0.262893
0.311363
0.416139
0.525178
0.621498
0.686565
0.759873
0.813474
0.860031
0.897124
0.927403
0.950075
0.967171
0.979288
0.987979
0.992023
0.993068
0.989581
0.981086
0.96505
0.939359
0.900816
0.844384
0.764799
0.655465
0.509879
0.321479
0.0858156
-0.196407
-0.522113
-0.871724
-1.21532
-1.50623
-1.62386
-1.86188
-2.23693
-2.5639
0.0112347
0.0337472
0.0586473
0.0826594
0.105787
0.127314
0.147799
0.166131
0.181798
0.192242
0.197289
0.194605
0.184074
0.162059
0.127216
0.0794141
0.0181535
-0.0576464
-0.148635
-0.252057
-0.373586
-0.504684
-0.632815
-0.72545
-0.821899
-0.880053
-0.97363
-2.37908
-3.13412
-3.38529
-3.50881
-3.36363
-2.97699
-2.52927
-2.05613
-1.56186
-1.11349
-0.711136
-0.372861
-0.134611
0.0992801
0.286717
0.285862
0.340494
0.454081
0.573692
0.674395
0.746318
0.824388
0.882263
0.932081
0.971715
1.00393
1.02792
1.04597
1.05877
1.06793
1.07224
1.07346
1.06982
1.0611
1.04442
1.01758
0.976989
0.917337
0.832801
0.716161
0.560027
0.35691
0.101295
-0.206913
-0.565665
-0.955067
-1.34239
-1.67436
-1.81686
-2.06736
-2.46371
-2.79048
0.0118939
0.0359687
0.0627568
0.088552
0.113447
0.136784
0.159005
0.179006
0.195829
0.207357
0.213257
0.210609
0.199473
0.176325
0.139202
0.0880782
0.0218614
-0.0598499
-0.158229
-0.269892
-0.400708
-0.542037
-0.675341
-0.774012
-0.878488
-0.953645
-1.06135
-2.76894
-3.55045
-3.75666
-3.87093
-3.68328
-3.23509
-2.73462
-2.21643
-1.68177
-1.20019
-0.765656
-0.401258
-0.14267
0.10509
0.304674
0.307724
0.369713
0.492678
0.62286
0.727968
0.806928
0.889678
0.951783
1.00484
1.0469
1.08084
1.10609
1.12502
1.13846
1.14803
1.1526
1.15388
1.15024
1.14136
1.12422
1.0964
1.05401
0.991436
0.90229
0.77871
0.612345
0.394705
0.119056
-0.21571
-0.608827
-1.04048
-1.47545
-1.85377
-2.02504
-2.2903
-2.70368
-3.03905
0.0125503
0.0381815
0.0668641
0.0944532
0.121146
0.146327
0.170264
0.191985
0.21005
0.222866
0.229499
0.226993
0.215441
0.191114
0.151913
0.0974222
0.0262437
-0.0614093
-0.167228
-0.287275
-0.427345
-0.5791
-0.71616
-0.81813
-0.928991
-1.03226
-1.16125
-3.20972
-4.02149
-4.15465
-4.26115
-4.02423
-3.50677
-2.94969
-2.38308
-1.80569
-1.29023
-0.82223
-0.430493
-0.150025
0.110884
0.319469
0.328241
0.399088
0.53211
0.67268
0.782191
0.868568
0.955869
1.02214
1.07833
1.12266
1.15817
1.18456
1.20434
1.21831
1.22817
1.23307
1.23436
1.23085
1.22184
1.20444
1.17586
1.13193
1.06674
0.973357
0.84323
0.667002
0.435079
0.139362
-0.222522
-0.651354
-1.12789
-1.61476
-2.04534
-2.24998
-2.53295
-2.96164
-3.2939
0.0132081
0.0404027
0.0709864
0.100386
0.128923
0.15598
0.181603
0.205064
0.224449
0.238703
0.246047
0.24383
0.231988
0.206452
0.165297
0.107476
0.0314778
-0.062318
-0.175463
-0.304371
-0.453473
-0.61618
-0.755528
-0.85639
-0.970897
-1.11839
-1.27677
-3.7104
-4.55885
-4.58046
-4.68224
-4.38837
-3.79294
-3.17401
-2.55628
-1.93406
-1.38367
-0.880971
-0.460733
-0.156627
0.116186
0.330614
0.34712
0.428618
0.572728
0.723479
0.837233
0.931389
1.02302
1.09339
1.15254
1.19898
1.23594
1.26335
1.28393
1.29832
1.30841
1.31366
1.315
1.31165
1.30259
1.28509
1.25596
1.21078
1.14332
1.04609
0.909846
0.724169
0.478264
0.162502
-0.227042
-0.692968
-1.21715
-1.76059
-2.25004
-2.49331
-2.79782
-3.2361
-3.5569
0.013869
0.0426502
0.0751282
0.106355
0.136758
0.165701
0.193072
0.218293
0.239059
0.254705
0.262893
0.261146
0.249056
0.222344
0.179255
0.118208
0.0375834
-0.0625756
-0.183074
-0.321373
-0.47937
-0.653801
-0.793781
-0.888365
-1.00422
-1.21895
-1.4113
-4.27671
-5.1728
-5.03683
-5.13769
-4.77711
-4.0941
-3.40836
-2.73643
-2.06785
-1.48054
-0.942008
-0.492371
-0.16304
0.120729
0.337657
0.364123
0.45838
0.614221
0.7753
0.893275
0.995479
1.09113
1.16553
1.22745
1.27588
1.31416
1.34249
1.36374
1.3785
1.3888
1.39433
1.3958
1.39265
1.3837
1.36618
1.33673
1.2906
1.22123
1.12058
0.978687
0.78402
0.524496
0.188773
-0.22893
-0.733353
-1.3081
-1.91319
-2.46882
-2.75663
-3.08769
-3.5312
-3.84426
0.0145393
0.0449271
0.0792817
0.112365
0.14461
0.175459
0.204649
0.231694
0.253937
0.270854
0.280038
0.278911
0.266687
0.23881
0.193838
0.129626
0.0444868
-0.062139
-0.190244
-0.338373
-0.505398
-0.692623
-0.831392
-0.917396
-1.03525
-1.34855
-1.57088
-4.91335
-5.86484
-5.52417
-5.63186
-5.19219
-4.41134
-3.65495
-2.92393
-2.20811
-1.58118
-1.00539
-0.525584
-0.169798
0.124224
0.339994
0.379142
0.488434
0.656004
0.827922
0.950346
1.06081
1.16021
1.23854
1.30308
1.3534
1.39286
1.422
1.44378
1.45882
1.46932
1.47506
1.47674
1.47385
1.46517
1.44771
1.41818
1.37142
1.30053
1.19692
1.04988
0.846732
0.57401
0.218489
-0.227805
-0.772136
-1.40047
-2.07275
-2.70269
-3.04161
-3.40552
-3.85394
-4.14474
0.0152288
0.0472354
0.0834595
0.118417
0.15249
0.185281
0.216338
0.245261
0.269102
0.28732
0.297587
0.297115
0.284909
0.255856
0.209164
0.141812
0.0521838
-0.0610302
-0.196949
-0.355324
-0.531722
-0.733424
-0.869855
-0.951986
-1.07456
-1.52058
-1.76287
-5.65565
-6.6485
-6.03603
-6.16869
-5.6351
-4.74601
-3.91406
-3.11853
-2.35526
-1.6858
-1.07136
-0.560685
-0.177264
0.12658
0.336722
0.392157
0.518991
0.698471
0.881178
1.00852
1.12738
1.23038
1.31248
1.37951
1.43153
1.47205
1.50188
1.52403
1.53926
1.54996
1.55583
1.55779
1.55523
1.54691
1.52968
1.50032
1.45325
1.38126
1.27517
1.12355
0.912475
0.627053
0.251988
-0.223252
-0.80889
-1.49397
-2.23941
-2.95265
-3.34995
-3.75471
-4.20105
-4.46303
0.015938
0.049576
0.0876831
0.124521
0.160466
0.19522
0.228172
0.258971
0.284556
0.304138
0.315581
0.315803
0.30367
0.27354
0.225291
0.154841
0.0607516
-0.0592449
-0.203218
-0.372289
-0.558484
-0.776915
-0.911034
-1.0002
-1.13059
-1.74049
-1.99036
-6.52518
-7.57493
-6.57132
-6.7507
-6.106
-5.09821
-4.18386
-3.32085
-2.509
-1.79455
-1.14043
-0.598206
-0.185967
0.127917
0.326954
0.403178
0.550415
0.742841
0.935333
1.06792
1.19524
1.30174
1.38743
1.45673
1.51029
1.55172
1.5821
1.6045
1.61983
1.63066
1.63665
1.63891
1.63674
1.62886
1.6121
1.58315
1.53612
1.46345
1.35541
1.1998
0.981418
0.683878
0.289632
-0.21482
-0.843126
-1.58821
-2.41326
-3.21971
-3.6834
-4.13881
-4.58021
-4.81736
0.0166628
0.0519552
0.0919583
0.130677
0.168547
0.205266
0.24016
0.272809
0.300228
0.321244
0.334006
0.335056
0.322941
0.291988
0.24222
0.168732
0.070189
-0.0567556
-0.209236
-0.389455
-0.585966
-0.823624
-0.955237
-1.06331
-1.20785
-2.01116
-2.24152
-7.50579
-8.64806
-7.13683
-7.38263
-6.60519
-5.46807
-4.46295
-3.5322
-2.66882
-1.90788
-1.21321
-0.638392
-0.196442
0.128859
0.313868
0.412576
0.58289
0.789553
0.990841
1.12871
1.26438
1.37433
1.46343
1.53481
1.58976
1.63189
1.66267
1.68521
1.70054
1.71142
1.7175
1.72009
1.71836
1.71102
1.69494
1.66664
1.62001
1.54715
1.43772
1.27873
1.05374
0.744738
0.331789
-0.202008
-0.874282
-1.68269
-2.5943
-3.50484
-4.04372
-4.56174
-4.99515
-5.19234
0.0174017
0.0543731
0.0962767
0.136874
0.176674
0.215367
0.252313
0.286814
0.316071
0.338669
0.352872
0.354934
0.34282
0.31133
0.260044
0.183496
0.0804143
-0.0536217
-0.215118
-0.406919
-0.614524
-0.873983
-1.00376
-1.13716
-1.31849
-2.36999
-2.50229
-8.75103
-9.86215
-7.72981
-8.07182
-7.13348
-5.85569
-4.75205
-3.75367
-2.83569
-2.0261
-1.28998
-0.681156
-0.209086
0.130553
0.303262
0.421939
0.616394
0.837291
1.0478
1.19106
1.33482
1.44817
1.54053
1.6138
1.66996
1.71256
1.74357
1.76615
1.7814
1.79222
1.79836
1.80131
1.80006
1.79339
1.77817
1.75079
1.70494
1.63237
1.52215
1.36045
1.1296
0.809894
0.378845
-0.184248
-0.901714
-1.77685
-2.78248
-3.80901
-4.4326
-5.02819
-5.45048
-5.60686
0.0181547
0.0568175
0.100623
0.143104
0.184822
0.225512
0.264595
0.301015
0.332128
0.356487
0.372173
0.375369
0.36343
0.331618
0.278933
0.199187
0.0914763
-0.0498015
-0.220778
-0.424635
-0.644364
-0.928526
-1.05781
-1.22319
-1.47543
-2.89753
-2.80358
-10.2463
-11.2749
-8.34236
-8.82242
-7.69082
-6.26003
-5.05475
-3.98791
-3.01073
-2.14887
-1.37057
-0.726742
-0.224767
0.131961
0.296238
0.43336
0.651024
0.885418
1.10606
1.25519
1.40667
1.52334
1.61877
1.6937
1.75086
1.79373
1.82481
1.84729
1.86237
1.87306
1.8792
1.88251
1.88182
1.87593
1.86177
1.8356
1.7909
1.71913
1.60875
1.44507
1.20919
0.87961
0.431198
-0.16095
-0.924673
-1.86997
-2.97767
-4.13319
-4.85191
-5.54343
-5.95664
-6.03566
0.0189144
0.0592699
0.104972
0.149342
0.193009
0.235726
0.276927
0.315404
0.348444
0.374738
0.391866
0.396263
0.384794
0.35282
0.298926
0.215961
0.103627
-0.0450702
-0.225987
-0.442466
-0.675466
-0.987712
-1.11623
-1.33175
-1.68468
-3.66625
-3.24962
-12.1208
-12.886
-8.97246
-9.63936
-8.27603
-6.67904
-5.37299
-4.23628
-3.19427
-2.27609
-1.45511
-0.775872
-0.245346
0.129554
0.289644
0.44753
0.6871
0.935138
1.16573
1.32125
1.48007
1.59994
1.69822
1.77454
1.83245
1.87543
1.90638
1.92858
1.9434
1.9539
1.96001
1.96368
1.9636
1.95864
1.94573
1.92108
1.8779
1.80744
1.69757
1.53268
1.29264
0.95415
0.489258
-0.131499
-0.942337
-1.96124
-3.17962
-4.47837
-5.30416
-6.11443
-6.51447
-6.48288
0.0196619
0.0617146
0.10932
0.155585
0.201264
0.246038
0.289291
0.32993
0.365013
0.393326
0.4119
0.41766
0.406959
0.374979
0.319979
0.233979
0.117083
-0.0392235
-0.230635
-0.460365
-0.707873
-1.05226
-1.17857
-1.47809
-1.92991
-4.67025
-3.96355
-14.4174
-14.6874
-9.61081
-10.5283
-8.88718
-7.11042
-5.70364
-4.49642
-3.38754
-2.40873
-1.54404
-0.828919
-0.271956
0.122501
0.282232
0.464111
0.7248
0.986772
1.22708
1.38934
1.55508
1.67806
1.7789
1.85634
1.91475
1.95763
1.98827
2.01003
2.02446
2.03468
2.04076
2.04476
2.04536
2.04146
2.03001
2.00719
1.96592
1.89731
1.78862
1.62334
1.38013
1.03377
0.553446
-0.0952238
-0.953771
-2.04966
-3.38797
-4.84583
-5.79762
-6.75405
-7.12918
-6.97012
0.0203894
0.0641446
0.113664
0.161839
0.209584
0.256457
0.301755
0.344565
0.381774
0.412199
0.432361
0.439716
0.430015
0.398201
0.342087
0.253245
0.131808
-0.0322038
-0.234825
-0.478396
-0.741897
-1.123
-1.24568
-1.67812
-2.14042
-5.79376
-5.10985
-17.2197
-16.7027
-10.2415
-11.4971
-9.52214
-7.5523
-6.04348
-4.76668
-3.59185
-2.54814
-1.6374
-0.885871
-0.305296
0.110125
0.274136
0.482439
0.764383
1.03981
1.2901
1.45959
1.63169
1.75781
1.8608
1.93912
1.99774
2.04034
2.07047
2.09161
2.10553
2.11538
2.1214
2.12573
2.12705
2.12435
2.11458
2.09385
2.05495
1.98872
1.88192
1.71712
1.47177
1.11872
0.624191
-0.0514099
-0.957904
-2.13409
-3.60222
-5.23796
-6.34782
-7.4803
-7.81145
-7.47342
0.0211094
0.066552
0.11798
0.168099
0.217943
0.266979
0.314371
0.359375
0.398787
0.431435
0.453359
0.462527
0.453974
0.422514
0.365336
0.273774
0.14773
-0.0239889
-0.238568
-0.496442
-0.777771
-1.20004
-1.31735
-1.92971
-2.24633
-7.02369
-6.76018
-20.5542
-18.9243
-10.8507
-12.5583
-10.1789
-8.00279
-6.39256
-5.04814
-3.80758
-2.69513
-1.73492
-0.946453
-0.344781
0.0877521
0.266204
0.50216
0.806017
1.09426
1.35473
1.53221
1.70994
1.83926
1.94402
2.02294
2.08143
2.12352
2.15292
2.17328
2.18659
2.19596
2.20189
2.20656
2.20863
2.20727
2.19937
2.18102
2.14494
2.08167
1.97748
1.81409
1.56771
1.20922
0.701919
0.000697255
-0.95357
-2.21315
-3.82159
-5.65805
-6.97046
-8.31038
-8.56116
-8.0013
0.0218355
0.0689429
0.12228
0.174382
0.226353
0.277563
0.327133
0.37448
0.416178
0.451002
0.474949
0.486079
0.478782
0.447843
0.389841
0.295735
0.165006
-0.0144907
-0.241629
-0.514091
-0.815257
-1.28272
-1.39147
-2.21512
-2.29866
-8.47054
-8.82962
-24.3561
-21.31
-11.4294
-13.7245
-10.8559
-8.45909
-6.75164
-5.34451
-4.03535
-2.84988
-1.83686
-1.01033
-0.386977
0.0542176
0.258193
0.523478
0.849475
1.15066
1.42115
1.60735
1.79002
1.9224
2.02863
2.1078
2.16586
2.20716
2.23561
2.25501
2.26759
2.27641
2.28217
2.28719
2.29006
2.29015
2.28433
2.26868
2.23586
2.17612
2.0753
1.91428
1.66803
1.30551
0.787051
0.0618884
-0.939437
-2.28517
-4.04498
-6.10867
-7.67673
-9.26039
-9.39621
-8.57979
0.0225608
0.0713288
0.12659
0.180709
0.234825
0.28816
0.340041
0.389886
0.433898
0.470819
0.497085
0.510305
0.504388
0.47413
0.415586
0.319267
0.183857
-0.00366807
-0.243785
-0.531111
-0.854101
-1.37076
-1.46561
-2.5209
-2.3745
-10.2211
-11.7539
-28.3225
-23.6591
-11.9779
-15.006
-11.5517
-8.9177
-7.12124
-5.65989
-4.27707
-3.01236
-1.94366
-1.07738
-0.430298
0.0114676
0.248756
0.546354
0.894679
1.2094
1.48974
1.68512
1.87212
2.00731
2.11466
2.19371
2.25102
2.29125
2.31851
2.33678
2.34849
2.35665
2.36221
2.36757
2.3713
2.37294
2.3694
2.35676
2.32765
2.27205
2.17538
2.01774
1.77285
1.40778
0.879996
0.132973
-0.914002
-2.34817
-4.27074
-6.59191
-8.47985
-10.3486
-10.3249
-9.17892
0.0232717
0.0737168
0.130919
0.187066
0.243332
0.298798
0.353085
0.405439
0.451802
0.490943
0.519636
0.535158
0.53083
0.501447
0.442558
0.344444
0.20447
0.00860458
-0.244811
-0.547737
-0.894636
-1.46374
-1.53808
-2.82895
-2.5053
-11.82
-18.4781
-32.2899
-25.5131
-12.4975
-16.4034
-12.2624
-9.37568
-7.5008
-5.99525
-4.53501
-3.18299
-2.05582
-1.14759
-0.473847
-0.0368553
0.237433
0.570794
0.942303
1.27057
1.56077
1.7656
1.95635
2.09404
2.20211
2.2807
2.33693
2.37581
2.40166
2.41858
2.42928
2.43664
2.44199
2.44764
2.4523
2.45559
2.45454
2.44521
2.42022
2.36939
2.2777
2.12446
1.88222
1.51622
0.981141
0.214777
-0.875619
-2.39976
-4.49667
-7.10958
-9.39555
-11.5936
-11.3592
-9.82837
0.0239761
0.0761253
0.135274
0.193432
0.25185
0.30955
0.366265
0.420996
0.469828
0.511497
0.542656
0.56064
0.558215
0.529961
0.470934
0.371388
0.226949
0.0226096
-0.244505
-0.564291
-0.93747
-1.55977
-1.60678
-3.10309
-2.70482
-12.3603
-31.9494
-37.2173
-26.5303
-12.9788
-17.8965
-12.9833
-9.82874
-7.88829
-6.35225
-4.81037
-3.36261
-2.17381
-1.22169
-0.517189
-0.08578
0.226288
0.597158
0.992991
1.33446
1.63441
1.84889
2.0428
2.18268
2.291
2.36881
2.42362
2.46081
2.48505
2.50041
2.50988
2.51635
2.52145
2.52734
2.53301
2.53804
2.53966
2.53394
2.51352
2.4681
2.38223
2.23445
1.9962
1.63096
1.09084
0.308109
-0.822535
-2.43711
-4.71984
-7.66326
-10.4414
-13.0139
-12.515
-10.476
0.0246945
0.0785689
0.139662
0.199825
0.260404
0.320466
0.379609
0.436601
0.488092
0.532573
0.566293
0.5868
0.58658
0.559771
0.500918
0.400206
0.251305
0.0385058
-0.242906
-0.580743
-0.982754
-1.65709
-1.6707
-3.30019
-2.89831
-11.2578
-42.9341
-43.8019
-27.3768
-13.5257
-19.4318
-13.7118
-10.2702
-8.28293
-6.7334
-5.10509
-3.55266
-2.29768
-1.30124
-0.564265
-0.133591
0.218155
0.625665
1.04615
1.40155
1.71104
1.93507
2.13163
2.27337
2.38142
2.45807
2.51107
2.54626
2.56863
2.58221
2.59027
2.59577
2.60055
2.60664
2.61335
2.62022
2.62469
2.62287
2.60749
2.5681
2.48891
2.3477
2.11482
1.75212
1.20939
0.413742
-0.752951
-2.45686
-4.93642
-8.25403
-11.6359
-14.6429
-13.7953
-11.1287
0.0254354
0.0810362
0.144078
0.206274
0.269036
0.331515
0.393091
0.452399
0.50672
0.554123
0.590531
0.613691
0.61587
0.590843
0.532556
0.430911
0.2776
0.0562374
-0.240003
-0.596887
-1.03069
-1.75609
-1.73343
-3.40032
-2.98285
-9.41553
-29.9742
-48.5985
-30.0148
-14.292
-20.8941
-14.4457
-10.6936
-8.68763
-7.13865
-5.42316
-3.75556
-2.42927
-1.38983
-0.620282
-0.181975
0.213634
0.656353
1.10124
1.47224
1.79098
2.02425
2.22303
2.36615
2.47346
2.54849
2.59927
2.63211
2.65234
2.66394
2.67043
2.67485
2.67922
2.68548
2.69327
2.70205
2.70957
2.71195
2.70206
2.66931
2.59769
2.46418
2.23808
1.87976
1.33703
0.532402
-0.664998
-2.45514
-5.14153
-8.88187
-13.0022
-16.5239
-15.2215
-11.8322
0.0261938
0.0835241
0.148533
0.212783
0.277758
0.342626
0.40668
0.468471
0.525705
0.575965
0.615276
0.641338
0.646069
0.623134
0.565819
0.463442
0.305878
0.0757867
-0.235493
-0.61241
-1.08207
-1.8597
-1.80541
-3.42123
-2.79254
-8.68368
-4.52185
-47.3783
-31.8539
-15.3626
-22.1073
-15.1965
-11.0947
-9.10856
-7.5686
-5.76936
-3.97364
-2.57232
-1.49199
-0.687641
-0.233213
0.212305
0.689399
1.1584
1.54657
1.87438
2.11648
2.31717
2.46108
2.56709
2.64002
2.68823
2.71838
2.73615
2.74557
2.75032
2.75353
2.75739
2.76381
2.77268
2.78346
2.79422
2.8011
2.79714
2.77163
2.70846
2.58381
2.36595
2.0139
1.47393
0.664739
-0.556751
-2.42743
-5.32886
-9.54533
-14.5692
-18.6881
-16.8102
-12.5176
0.0269622