/*--------------------------------*- C++ -*----------------------------------*\
| =========                 |                                                 |
| \\      /  F ield         | OpenFOAM: The Open Source CFD Toolbox           |
|  \\    /   O peration     | Version:  4.1                                   |
|   \\  /    A nd           | Web:      www.OpenFOAM.org                      |
|    \\/     M anipulation  |                                                 |
\*---------------------------------------------------------------------------*/
FoamFile
{
    version     2.0;
    format      ascii;
    class       surfaceScalarField;
    location    "1";
    object      phi;
}
// * * * * * * * * * * * * * * * * * * * * * * * * * * * * * * * * * * * * * //

dimensions      [0 3 -1 0 0 0 0];

internalField   nonuniform List<scalar> 
13220
(
-888.067
2187.98
-1378.58
1790.73
-1843.94
1765.27
-2197.21
1653.18
-2470.62
1573.62
-2665.56
1494.85
-2784.44
1418.79
-2828.68
1344.44
-2800.11
1271.34
-2700.7
1200.5
-2531.27
1130.78
-2264.71
1033.34
-1822.09
857.29
-1107.1
585.229
192.801
-46.0909
2234.1
-129.075
1873.74
-301.837
1938.06
-445.388
1796.75
-593.612
1721.87
-725.594
1626.85
-842.949
1536.17
-943.646
1445.15
-1032.65
1360.35
-1113.58
1281.45
-1155.4
1172.61
-1048.02
925.979
-655.845
465.135
-131.28
60.7345
61.526
-156.164
2390.28
-379.839
2097.43
-575.955
2134.19
-699.078
1919.9
-816.134
1838.95
-892.934
1703.67
-946.412
1589.67
-975.979
1474.74
-984.368
1368.77
-972.492
1269.61
-932.712
1132.86
-832.626
825.987
-633.364
266.045
-409.844
-162.517
-348.318
71.2373
2319.06
-25.8535
2194.54
-50.5316
2158.89
-35.8581
1905.25
-20.8777
1823.99
19.7542
1663.07
77.4582
1531.99
154.645
1397.59
253.834
1269.61
376.368
1147.1
495.076
1014.17
511.54
809.524
305.575
472.02
-6.14197
149.22
-354.458
194.996
2124.07
153.438
2236.11
176.495
2135.84
211.328
1870.43
258.619
1776.71
305.933
1615.77
355.789
1482.14
404.643
1348.74
456.757
1217.5
514.259
1089.61
567.959
960.463
562.488
815.057
420.317
614.258
200.487
369.168
-153.974
167.688
1956.39
185.005
2218.8
208.329
2112.53
225.684
1853.08
266.41
1735.99
297.287
1584.9
323.5
1455.93
340.006
1332.24
349.237
1208.27
353.175
1085.66
351.221
962.412
328.313
837.901
250.724
691.768
126.534
493.114
-27.438
88.5178
1867.88
187.461
2119.86
253.723
2046.27
300.438
1806.37
363.724
1672.7
412.988
1535.63
449.805
1419.11
472.017
1310.02
477.22
1203.06
466.227
1096.66
439.183
989.451
393.339
883.792
315.988
769.164
193.209
615.989
165.768
7.34466
1860.53
142.93
1984.28
254.866
1934.33
341.875
1719.35
418.544
1596.03
480.063
1474.11
521.938
1377.23
546.14
1285.81
550.284
1198.91
533.081
1113.84
493.729
1028.8
432.105
945.342
341.531
859.664
213.514
743.889
379.283
-43.2966
1903.83
51.1519
1889.83
178.951
1806.53
289.302
1609
362.028
1523.3
422.721
1413.41
461.643
1338.31
483.382
1264.07
486.362
1195.93
471.322
1128.88
434.693
1065.43
377.904
1002.17
294.496
943.11
185.967
852.467
565.248
-33.5188
1937.34
-37.6967
1893.99
67.0149
1701.81
176.766
1499.24
243.367
1456.69
303.764
1353.01
340.798
1301.26
364.143
1240.72
370.021
1190.05
362.127
1136.76
336.352
1091.2
294.706
1043.76
228.77
1008.99
153.137
928.031
718.385
16.841
1920.48
-67.4904
1978.31
-27.4474
1661.74
54.8814
1416.89
118.598
1392.95
178.682
1292.9
217.483
1262.44
243.436
1214.74
254.455
1179.01
254.68
1136.52
239.14
1106.71
214.172
1068.73
166.326
1056.83
125.018
969.328
843.402
59.6243
1860.84
-20.9597
2058.87
-49.7217
1690.48
-12.4321
1379.57
52.1501
1328.33
108.64
1236.38
151.652
1219.4
179.072
1187.3
192.12
1165.93
197.473
1131.13
186.489
1117.68
170.639
1084.52
133.024
1094.39
110.026
992.271
953.428
70.4896
1790.33
62.2472
2067.1
26.0513
1726.65
20.9145
1384.68
61.9465
1287.28
94.0458
1204.25
122.092
1191.33
139.179
1170.19
144.78
1160.31
146.286
1129.61
134.639
1129.31
122.365
1096.79
89.504
1127.24
92.3011
989.46
1045.73
145.481
1644.83
128.503
2084.06
67.1615
1787.98
30.0386
1421.79
68.3045
1249
114.352
1158.19
159.881
1145.79
190.792
1139.27
202.715
1148.38
205.708
1126.61
191.148
1143.86
173.684
1114.23
130.337
1170.57
127.38
992.404
1173.11
655.629
998.773
1081.11
1084.01
1048
981.769
911.221
820.393
743.259
634.525
544.241
438.65
358.267
177.509
2.83805e-05
27.1994
-27.1993
27.1994
27.1995
27.1995
41.5849
-14.3853
41.5849
41.5849
41.585
42.8261
-1.24111
42.8262
42.8262
31.3821
11.4442
31.3821
31.3821
31.3822
9.86454
21.5177
9.86458
9.86461
-18.6185
28.4831
-18.6185
-18.6184
-18.6184
-51.8057
33.1873
-51.8056
-51.8056
-51.8056
-90.1535
38.348
-90.1535
-90.1534
-131.821
41.6672
-131.821
-131.821
-131.82
-177.581
45.7603
-177.581
-177.581
-222.284
44.7032
-222.284
-222.284
-222.284
-262.763
40.4795
-262.763
-262.763
-262.763
-300.617
37.8541
-300.617
-300.617
-318.802
18.1853
-318.802
-318.802
-318.802
-323.066
4.26343
-323.065
-323.065
-323.065
-325.281
2.21545
-325.281
-325.281
-363.036
37.7558
-363.036
-363.036
-363.036
-455.682
92.6461
-455.682
-455.682
-707.933
252.251
-707.933
-707.933
-707.932
-1270.4
562.47
-1270.4
-1270.4
-1270.4
-2438.58
1168.17
-2438.57
-2438.58
-4176.63
1738.06
-4176.63
-4176.63
-3919.84
-3662.35
-3401.74
-5080.18
1930.68
-4835.77
-4609.78
-4390.92
-4172.43
-3954.11
-3732.97
-3503.1
-3260.69
-4985.77
1964.26
-4753.24
-4523.72
-4296.71
-4074.82
-3850.04
-3623.25
-3391.92
-3155.56
-5026.87
2107.46
-4795.67
-4564.76
-4334.58
-4104.5
-3875.08
-3646.76
-3417.23
-3184.6
-2948.23
-4926.11
2210.51
-4697.62
-4468.8
-4239.14
-4008.71
-3777.76
-3547.45
-3315.12
-3079.56
-5201.52
2353.47
-4973.75
-4746.91
-4520.23
-4292.69
-4064.69
-3836.49
-3605.88
-3370.77
-5607.59
2468.6
-5379.45
-5152.43
-4924.47
-4689.35
-4451.01
-4212.69
-3971.25
-3725.31
-5969.22
2496.29
-5706.93
-5444.15
-5179.44
-4911.97
-4639.72
-4325.63
-4008.81
-3686.35
-3361
-5251.8
2212.26
-4922.99
-4585.63
-4251.97
-3922.91
-3603.09
-3320.81
-3103.09
-2913.09
-2621.5
-118.724
-2456.71
-2297.64
-2297.64
-2355.38
57.7435
-2350.33
-5.05515
-2350.33
-2354.62
4.29795
-2354.62
-2358.79
4.16098
-2330.37
-28.4136
-2330.37
-2302.09
-28.2859
-2250.04
-52.0483
-2250.04
-2200.68
-49.3545
-2200.68
-2153.65
-47.0328
-2089.94
-63.7099
-2089.94
-2028.86
-61.0776
-2028.86
-1972.66
-56.203
-1902.76
-69.8954
-1902.76
-1840.14
-62.6207
-1769.21
-70.9315
-1769.21
-1701.9
-67.3081
-1701.9
-1640.72
-61.179
-1574.22
-66.4989
-1574.22
-1511.12
-63.1012
-1511.12
-1454.42
-56.7033
-1393.61
-60.8113
-1393.61
-1339.32
-54.288
-1283.63
-55.6867
-1283.63
-1232.12
-51.5087
-1232.12
-1185.53
-46.5888
-1137.76
-47.7727
-1137.76
-1094.4
-43.361
-1094.4
-1056.45
-37.9541
-1016.31
-40.136
-1016.31
-981.254
-35.0556
-944.828
-36.4266
-944.828
-912.457
-32.3707
-912.457
-883.826
-28.6307
-853.515
-30.3111
-853.515
-827.26
-26.2549
-827.26
-805.434
-21.8264
-780.443
-24.9911
-780.443
-760.224
-20.2189
-737.306
-22.9182
-737.306
-718.45
-18.8559
-718.45
-703.083
-15.3662
-684.768
-18.3152
-684.768
-670.648
-14.1205
-670.648
-661.28
-9.36714
-648.354
-12.9267
-648.354
-644.022
-4.33138
-640.57
-3.45251
-640.57
-647.866
7.2964
-647.866
13.5276
-3.66592
-38.355
-4.06391
-84.5659
-4.32053
-121.648
-4.50548
-154.783
-4.62149
-187.311
-4.66233
-217.089
-4.76513
-245.087
-4.87114
-272.429
-4.91243
-298.549
-4.74685
-320.936
-4.24025
-341.192
-3.88112
-359.837
-3.75085
-375.124
-3.31669
-384.773
-2.5083
-389.429
-1.54881
-389.935
-0.444617
-374.71
0.432776
-353.62
1.14477
-325.944
1.91956
-289.705
2.37812
-236.261
2.48947
-165.91
2.0179
-72.8964
2.7165
70.2461
12.0549
236.587
5.48552
247.774
6.59336
300.483
5.75897
448.068
3.45245
590.259
1.91399
716.91
0.462997
837.154
-0.989244
930.321
-2.22664
961.821
-3.20373
964.926
-4.05456
921.357
-4.79097
820.396
-5.4196
705.272
-5.82484
577.199
-6.07944
429.848
-9.13548
270.905
-10.7306
271.794
-3.81455
152.558
-19.1993
-258.642
-9.23278
-261.498
-7.98606
-526.442
-12.5507
-615.159
-14.327
-557.849
-14.0758
-548.47
-14.2698
-564.127
-14.4255
-583.516
-14.6576
-602.611
-15.1057
-619.614
-15.6808
-636.195
-16.2727
-653.528
-16.8129
-668.616
-17.4646
-682.166
-18.4142
-698.328
-19.3113
-716.523
-20.1655
-732.357
-21.0384
-750.835
-21.75
-768.629
-22.3482
-786.269
-22.7559
-803.078
-22.8763
-818.442
-22.6015
-831.189
-21.8179
-839.802
-20.4111
-842.309
-18.2366
-836.369
-15.1647
-818.775
-11.1249
-785.875
-6.12021
-732.87
-0.329977
-653.921
5.77797
-542.034
11.2081
-381.2
20.3277
-116.249
10.227
284.043
2.60871
458.762
3.63813
922.245
687.359
-5.63534
-38.0258
-6.12442
-84.0768
-6.41449
-121.358
-6.60654
-154.591
-6.73273
-187.185
-6.7334
-217.089
-6.80336
-245.018
-6.91149
-272.321
-6.9149
-298.546
-6.65343
-321.197
-5.94913
-341.896
-5.37908
-360.408
-5.05931
-375.444
-4.31029
-385.522
-3.04949
-390.69
-1.72787
-391.256
-0.154872
-376.283
1.3612
-355.136
2.63695
-327.22
3.92945
-290.997
4.78438
-237.116
5.14904
-166.274
4.4468
-72.1941
5.52917
69.1638
19.5104
222.606
12.2053
255.08
13.8663
298.822
12.7948
449.139
7.91694
595.137
4.43014
720.397
1.30517
840.279
-1.39741
933.023
-3.47617
963.9
-5.06544
966.515
-6.43355
922.726
-7.4167
821.379
-8.21483
706.071
-8.66664
577.651
-8.63167
429.813
-14.3933
276.667
-12.3775
269.778
-9.75765
149.938
-29.2368
-239.163
-15.8226
-274.912
-13.2498
-529.015
-16.4288
-611.981
-17.5133
-556.764
-17.2445
-548.739
-17.2744
-564.097
-17.2865
-583.504
-17.4092
-602.488
-17.8094
-619.214
-18.4005
-635.604
-19.0233
-652.906
-19.587
-668.052
-20.2435
-681.51
-21.2629
-697.309
-22.2785
-715.508
-23.1987
-731.437
-24.1437
-749.89
-24.8872
-767.885
-25.4535
-785.703
-25.7652
-802.766
-25.6952
-818.512
-25.1132
-831.771
-23.8791
-841.036
-21.8555
-844.332
-18.8731
-839.351
-14.7841
-822.864
-9.52916
-791.13
-3.15028
-739.249
4.06508
-661.136
11.4916
-549.461
18.0441
-387.752
28.4278
-126.633
22.2978
290.173
6.11734
474.943
6.97964
921.383
701.635
-7.83395
-37.9229
-8.06915
-83.8416
-8.23326
-121.194
-8.33179
-154.493
-8.41969
-187.097
-8.34284
-217.166
-8.3014
-245.059
-8.357
-272.265
-8.31338
-298.59
-7.9817
-321.529
-7.14914
-342.729
-6.40719
-361.149
-5.85576
-375.995
-4.80912
-386.569
-3.24827
-392.251
-1.69296
-392.812
0.179692
-378.155
2.21143
-357.168
3.98181
-328.99
5.73056
-292.746
6.99918
-238.385
7.71369
-166.989
6.87895
-71.3594
8.76683
67.2759
23.23
208.143
18.8629
259.447
22.5321
295.152
21.6971
449.975
15.2114
601.622
9.31144
726.297
4.01781
845.572
-0.582494
937.624
-4.13426
967.452
-6.88901
969.27
-9.27054
925.107
-11.054
823.163
-12.4333
707.45
-12.9387
578.156
-12.6748
429.549
-20.5102
284.502
-20.0223
269.29
-18.5037
148.419
-34.0462
-223.62
-19.9452
-289.013
-16.2122
-532.748
-18.655
-609.538
-19.6285
-555.791
-19.2871
-549.081
-19.1181
-564.266
-18.9946
-583.628
-19.0361
-602.447
-19.374
-618.876
-19.9461
-635.032
-20.5738
-652.278
-21.1601
-667.466
-21.7948
-680.875
-22.8105
-696.293
-23.9062
-714.412
-24.8575
-730.486
-25.8198
-748.928
-26.5734
-767.132
-27.1059
-785.171
-27.3456
-802.526
-27.145
-818.713
-26.3638
-832.552
-24.8473
-842.553
-22.4436
-846.736
-18.9706
-842.824
-14.2717
-827.563
-8.2926
-797.11
-1.10135
-746.44
6.95193
-669.19
15.177
-557.686
22.4984
-395.074
33.2123
-137.347
25.1847
298.201
8.1759
491.952
16.7786
912.78
714.961
-9.83509
-37.9643
-9.916
-83.7607
-10.0055
-121.104
-10.0402
-154.458
-10.1198
-187.018
-10.0129
-217.273
-9.86383
-245.208
-9.84522
-272.284
-9.79876
-298.636
-9.43347
-321.894
-8.44622
-343.716
-7.50548
-362.09
-6.70512
-376.796
-5.34531
-387.929
-3.50157
-394.095
-1.66667
-394.646
0.532247
-380.354
3.05726
-359.693
5.33784
-331.27
7.56748
-294.976
9.2582
-240.076
10.2846
-168.015
9.31056
-70.3854
11.9598
64.6267
26.4217
193.681
25.0132
260.855
32.1099
288.056
31.7336
450.351
23.7335
609.623
15.1497
734.881
7.27743
853.445
0.290087
944.611
-5.19913
972.941
-9.35383
973.425
-12.8512
928.604
-15.5652
825.877
-17.6255
709.51
-18.4424
578.973
-18.955
430.062
-27.8762
293.423
-27.5961
269.01
-24.9502
145.773
-36.9663
-211.604
-23.4386
-302.541
-19.2198
-536.967
-21.1063
-607.651
-21.921
-554.976
-21.5213
-549.48
-21.1737
-564.614
-20.928
-583.873
-20.8974
-602.477
-21.1796
-618.594
-21.7437
-634.468
-22.386
-651.636
-23.0212
-666.83
-23.6569
-680.239
-24.6618
-695.288
-25.8476
-713.226
-26.8593
-729.474
-27.8502
-747.937
-28.6239
-766.358
-29.1316
-784.663
-29.305
-802.353
-28.9759
-819.042
-27.9888
-833.539
-26.1732
-844.368
-23.3595
-849.55
-19.3497
-846.834
-13.9745
-832.938
-7.18019
-803.904
0.942034
-754.562
9.98136
-678.229
19.1675
-566.872
27.3327
-403.239
37.1471
-147.161
27.3353
308.013
11.1187
508.168
23.7222
900.177
734.352
-11.849
-38.1431
-11.793
-83.8167
-11.8152
-121.082
-11.7828
-154.49
-11.8245
-186.976
-11.7051
-217.392
-11.4608
-245.452
-11.3205
-272.424
-11.2781
-298.678
-10.917
-322.256
-9.78359
-344.85
-8.60933
-363.264
-7.54227
-377.863
-5.87796
-389.593
-3.76128
-396.211
-1.60164
-396.806
0.932925
-382.889
3.89886
-362.659
6.6986
-334.07
9.42361
-297.701
11.539
-242.191
12.8605
-169.337
11.8284
-69.3533
15.2234
61.2317
29.7675
179.137
31.2028
259.42
42.4548
276.804
42.3219
450.484
32.827
619.117
21.6438
746.064
11.1819
863.907
1.58151
954.212
-6.38635
980.909
-12.2748
979.313
-16.928
933.258
-20.6252
829.574
-23.456
712.341
-24.8399
580.357
-26.4566
431.679
-34.9674
301.934
-34.2677
268.31
-31.6872
143.193
-40.1834
-203.108
-27.0125
-315.712
-22.2456
-541.734
-23.5712
-606.326
-24.1668
-554.38
-23.6701
-549.977
-23.1588
-565.125
-22.8012
-584.231
-22.6956
-602.583
-22.9209
-618.368
-23.4747
-633.914
-24.1375
-650.973
-24.8329
-666.135
-25.4944
-679.578
-26.4696
-694.313
-27.7166
-711.979
-28.8027
-728.388
-29.8234
-746.916
-30.6176
-765.564
-31.1033
-784.177
-31.2148
-802.241
-30.7668
-819.49
-29.585
-834.721
-27.4858
-846.468
-24.2802
-852.755
-19.7555
-851.359
-13.7288
-838.965
-6.14253
-811.49
2.89261
-763.597
12.9144
-688.251
23.0704
-577.028
32.0581
-412.227
41.1922
-156.296
31.2471
317.958
14.6519
524.763
29.4186
885.41
750.844
-13.8126
-38.4428
-13.6348
-83.9946
-13.6005
-121.116
-13.5257
-154.565
-13.5138
-186.988
-13.3853
-217.52
-13.0751
-245.763
-12.789
-272.71
-12.72
-298.747
-12.3753
-322.6
-11.1472
-346.078
-9.73516
-364.676
-8.38305
-379.215
-6.43677
-391.539
-4.0371
-398.611
-1.5026
-399.341
1.37115
-385.763
4.71016
-365.998
8.03495
-337.395
11.2688
-300.934
13.8128
-244.735
15.4314
-170.955
14.3178
-68.2397
18.1458
57.4037
33.1161
164.167
37.4742
255.062
53.4206
260.857
53.2169
450.687
42.2402
630.094
28.6342
759.67
15.6411
876.9
3.40327
966.449
-7.43231
991.744
-15.3947
987.276
-21.2581
939.121
-25.9955
834.311
-29.6665
716.012
-31.6182
582.309
-33.8519
433.912
-41.2721
309.354
-40.5794
267.617
-38.17
140.784
-43.0969
-198.181
-30.2842
-328.525
-24.9563
-547.062
-26.0529
-605.229
-26.489
-553.944
-25.8162
-550.65
-25.1391
-565.802
-24.6788
-584.691
-24.496
-602.765
-24.663
-618.202
-25.2051
-633.372
-25.9034
-650.274
-26.6635
-665.375
-27.3899
-678.852
-28.3397
-693.363
-29.6051
-710.714
-30.773
-727.22
-31.8366
-745.853
-32.6567
-764.744
-33.1277
-783.706
-33.183
-802.186
-32.6257
-820.047
-31.2598
-836.087
-28.8893
-848.838
-25.3038
-856.341
-20.2752
-856.387
-13.6067
-845.633
-5.23157
-819.865
4.72451
-773.553
15.7589
-699.285
26.9334
-588.202
36.7815
-422.075
45.5113
-165.025
35.8024
327.666
18.1425
542.423
31.6415
871.911
773.119
-15.7562
-38.8403
-15.4677
-84.2831
-15.363
-121.221
-15.262
-154.666
-15.2058
-187.044
-15.058
-217.668
-14.7075
-246.113
-14.2825
-273.135
-14.1412
-298.889
-13.7925
-322.949
-12.5102
-347.36
-10.8911
-366.296
-9.24419
-380.862
-7.0393
-393.744
-4.34021
-401.31
-1.39859
-402.282
1.82297
-388.984
5.49076
-369.665
9.35221
-341.256
13.1227
-304.705
16.1165
-247.729
18.0007
-172.839
16.699
-66.938
20.6615
53.4412
35.8546
148.974
44.0756
246.841
65.5932
239.34
64.4716
451.809
51.7941
642.772
35.9153
775.549
20.3268
892.488
5.43623
981.34
-8.32787
1005.51
-18.5251
997.473
-25.6853
946.281
-31.5188
840.145
-36.0324
720.526
-38.4547
584.731
-40.9511
436.409
-47.3403
315.744
-46.8087
267.086
-43.1833
137.158
-45.1801
-196.184
-33.3567
-340.348
-27.602
-552.816
-28.5342
-604.297
-28.8187
-553.66
-27.9451
-551.523
-27.1012
-566.646
-26.5411
-585.251
-26.2819
-603.025
-26.3847
-618.099
-26.9104
-632.846
-27.6552
-649.53
-28.4777
-664.553
-29.3011
-678.028
-30.2524
-692.412
-31.5012
-709.465
-32.7414
-725.98
-33.8653
-744.729
-34.7194
-763.89
-35.1853
-783.241
-35.1901
-802.181
-34.5326
-820.705
-32.9944
-837.625
-30.3662
-851.466
-26.4155
-860.291
-20.8969
-861.906
-13.5989
-852.931
-4.4419
-829.022
6.44092
-784.436
18.5134
-711.358
30.7532
-600.442
41.5109
-432.832
49.9494
-173.464
40.1793
337.437
21.7171
560.885
32.228
861.4
791.226
-17.6876
-39.3055
-17.3096
-84.6611
-17.116
-121.415
-16.9747
-154.808
-16.8786
-187.14
-16.7003
-217.846
-16.3392
-246.474
-15.814
-273.66
-15.5559
-299.147
-15.1719
-323.333
-13.8646
-348.667
-12.0774
-368.083
-10.1417
-382.797
-7.6907
-396.195
-4.67355
-404.327
-1.31828
-405.637
2.26104
-392.563
6.27137
-373.676
10.6833
-345.668
15.0236
-309.045
18.5015
-251.207
20.5845
-174.922
18.9485
-65.3021
22.7003
49.6894
37.0768
134.597
51.5625
232.355
80.2532
210.649
76.2545
455.808
61.4088
657.617
43.3639
793.594
25.0752
910.777
7.41343
999.002
-9.1704
1022.09
-21.6137
1009.92
-30.189
954.857
-37.1382
847.094
-42.4436
725.831
-45.2907
587.578
-47.9614
439.079
-53.5271
321.309
-53.0209
266.58
-47.4637
131.601
-47.2729
-196.375
-36.2362
-351.385
-30.1166
-558.936
-31.0716
-603.342
-31.1886
-553.543
-30.0611
-552.651
-29.0527
-567.654
-28.3831
-585.921
-28.049
-603.359
-28.0858
-618.062
-28.5904
-632.341
-29.3799
-648.74
-30.2556
-663.677
-31.1836
-677.1
-32.1814
-691.414
-33.4144
-708.232
-34.7097
-724.684
-35.9126
-743.526
-36.8107
-762.991
-37.2829
-782.768
-37.2459
-802.218
-36.4985
-821.452
-34.8008
-839.323
-31.9295
-854.338
-27.63
-864.591
-21.6363
-867.9
-13.7217
-860.846
-3.78986
-838.954
8.02698
-796.253
21.1662
-724.497
34.5255
-613.801
46.2595
-444.566
54.3114
-181.516
44.6206
347.127
26.4442
579.062
36.0744
851.77
808.985
-19.5792
-39.8091
-19.1425
-85.0978
-18.8711
-121.686
-18.6741
-155.005
-18.5231
-187.291
-18.2955
-218.074
-17.9366
-246.833
-17.377
-274.22
-16.9735
-299.55
-16.5109
-323.796
-15.2075
-349.971
-13.2813
-370.009
-11.0835
-384.995
-8.40116
-398.877
-5.05237
-407.676
-1.29442
-409.395
2.67242
-396.53
7.09931
-378.103
12.0668
-350.636
16.9989
-313.977
21.0055
-255.213
23.24
-177.157
21.169
-63.2311
24.4233
46.4351
35.6839
123.337
58.1445
209.894
99.0251
169.768
88.4169
466.416
70.9403
675.094
50.8647
813.67
29.8772
931.764
9.2831
1019.6
-10.0575
1041.43
-24.7078
1024.57
-34.8129
964.962
-42.869
855.15
-48.8931
731.855
-52.1478
590.833
-54.9568
441.888
-59.8203
326.173
-59.2734
266.033
-51.6122
123.94
-49.5514
-198.436
-38.9498
-361.987
-32.6193
-565.266
-33.6508
-602.31
-33.5669
-553.626
-32.1601
-554.058
-30.9858
-568.829
-30.1998
-586.707
-29.7968
-603.762
-29.7723
-618.086
-30.2512
-631.863
-31.0755
-647.916
-31.9955
-662.757
-33.0078
-676.088
-34.0928
-690.329
-35.3425
-706.982
-36.6801
-723.347
-37.9751
-742.231
-38.929
-762.037
-39.4194
-782.278
-39.352
-802.285
-38.5264
-822.278
-36.6835
-841.166
-33.5849
-857.436
-28.9537
-869.222
-22.5015
-874.352
-13.9845
-869.363
-3.28584
-849.653
9.47229
-809.011
23.7095
-738.734
38.2489
-628.341
51.0463
-457.364
58.8001
-189.27
50.1074
355.82
33.0801
596.089
38.5608
846.289
832.18
-21.4103
-40.3398
-20.9358
-85.5723
-20.6272
-121.995
-20.3874
-155.244
-20.1832
-187.495
-19.8975
-218.36
-19.501
-247.23
-18.9476
-274.773
-18.4128
-300.085
-17.8241
-324.384
-16.5291
-351.266
-14.4817
-372.056
-12.0587
-387.418
-9.17322
-401.763
-5.49534
-411.354
-1.35094
-413.54
3.04396
-400.925
7.97455
-383.033
13.5005
-356.162
19.0355
-319.512
23.6199
-259.798
25.9943
-179.531
23.4656
-60.7024
26.104
43.7968
32.7516
116.689
61.1668
181.479
122.523
108.413
100.43
488.508
80.1319
695.393
58.1778
835.624
34.6799
955.262
11.0949
1043.18
-11.0903
1063.62
-27.9108
1041.39
-39.5838
976.635
-48.7282
864.295
-55.3975
738.524
-59.0334
594.469
-61.9363
444.791
-66.2277
330.464
-65.6708
265.476
-55.7041
113.973
-51.8775
-202.262
-41.562
-372.302
-35.1144
-571.714
-36.2094
-601.215
-35.9281
-553.908
-34.2501
-555.736
-32.8993
-570.18
-31.9964
-587.61
-31.5324
-604.226
-31.4561
-618.163
-31.9048
-631.414
-32.7571
-647.064
-33.7261
-661.788
-34.7994
-675.014
-35.991
-689.137
-37.294
-705.679
-38.6667
-721.974
-40.0527
-740.845
-41.0751
-761.015
-41.5958
-781.757
-41.5109
-802.37
-40.6203
-823.168
-38.6485
-843.138
-35.3401
-860.745
-30.3952
-874.167
-23.5027
-881.244
-14.3991
-878.466
-2.94165
-861.11
10.7659
-822.719
26.1339
-754.102
41.9192
-644.126
55.8919
-471.336
63.8833
-197.261
57.0126
362.691
41.0658
612.036
40.7921
846.563
854.116
-23.2264
-40.8961
-22.717
-86.0817
-22.4
-122.312
-22.1376
-155.507
-21.905
-187.728
-21.5803
-218.684
-21.0972
-247.713
-20.5249
-275.345
-19.8912
-300.719
-19.1671
-325.109
-17.8516
-352.581
-15.6799
-374.228
-13.0532
-390.045
-9.98888
-404.827
-6.00741
-415.335
-1.49053
-418.057
3.36167
-405.777
8.84582
-388.517
14.9536
-362.27
21.1126
-325.671
26.3274
-265.012
28.8337
-182.038
25.8995
-57.7682
27.9134
41.7828
30.2297
114.373
61.387
150.322
137.314
32.4853
111.734
514.088
88.833
718.294
65.0503
859.406
39.3135
980.999
12.8895
1069.6
-12.2951
1088.8
-31.3048
1060.4
-44.4926
989.822
-54.6853
874.487
-61.944
745.783
-65.9373
598.462
-68.9311
447.785
-72.8021
334.335
-72.1009
264.774
-59.7041
101.576
-54.3114
-207.655
-44.0716
-382.542
-37.5701
-578.216
-38.7422
-600.043
-38.2694
-554.381
-36.3255
-557.68
-34.7969
-571.708
-33.7776
-588.629
-33.2571
-604.746
-33.1433
-618.276
-33.5599
-630.997
-34.4393
-646.184
-35.4747
-660.752
-36.608
-673.881
-37.9106
-687.835
-39.2944
-704.295
-40.6954
-720.573
-42.1495
-739.391
-43.2512
-759.913
-43.8148
-781.194
-43.726
-802.459
-42.7839
-824.111
-40.7007
-845.221
-37.2019
-864.244
-31.9628
-879.406
-24.6498
-888.557
-14.977
-888.139
-2.77006
-873.317
11.894
-837.383
28.4276
-770.636
45.5307
-661.229
60.8139
-486.62
69.6847
-206.132
64.8615
367.514
49.5129
627.384
46.4682
849.608
877.666
-25.0645
-41.4729
-24.5154
-86.6308
-24.1709
-122.656
-23.8849
-155.793
-23.6484
-187.964
-23.3078
-219.025
-22.7512
-248.269
-22.1385
-275.958
-21.4315
-301.426
-20.5938
-325.946
-19.2234
-353.952
-16.915
-376.536
-14.0773
-392.883
-10.8309
-408.073
-6.58491
-419.582
-1.7041
-422.938
3.62532
-411.107
9.67267
-394.565
16.4072
-369.004
23.2285
-332.493
29.1216
-270.905
31.7407
-184.657
28.5268
-54.5542
29.8607
40.449
27.9704
116.263
59.6328
118.659
143.022
-50.9038
122.29
534.82
97.1237
743.46
71.4779
885.052
43.6305
1008.85
14.6336
1098.6
-13.5803
1117.02
-34.8786
1081.7
-49.5381
1004.48
-60.7083
885.658
-68.4917
753.566
-72.83
602.801
-75.9628
450.918
-79.4131
337.786
-78.1478
263.509
-63.53
86.9586
-56.9697
-214.215
-46.467
-393.044
-40.0284
-584.654
-41.2862
-598.785
-40.5802
-555.087
-38.3661
-559.894
-36.674
-573.4
-35.5427
-589.76
-34.9697
-605.319
-34.8353
-618.411
-35.2217
-630.611
-36.1251
-645.281
-37.2456
-659.632
-38.4582
-672.669
-39.8708
-686.422
-41.3628
-702.804
-42.7905
-719.145
-44.2744
-737.907
-45.4596
-758.728
-46.0803
-780.573
-46.0019
-802.537
-45.0225
-825.09
-42.8457
-847.398
-39.1768
-867.912
-33.6652
-884.918
-25.9539
-896.269
-15.7304
-898.363
-2.78479
-886.263
12.8417
-853.009
30.5767
-788.371
49.0743
-679.727
65.8153
-503.361
76.0179
-216.334
73.057
370.475
57.9739
642.467
49.9909
857.591
907.438
-26.8957
-42.056
-26.3162
-87.2104
-25.9074
-123.065
-25.5835
-156.117
-25.3495
-188.199
-24.9896
-219.385
-24.4045
-248.854
-23.7828
-276.58
-23.0478
-302.161
-22.1143
-326.88
-20.6591
-355.407
-18.2236
-378.972
-15.1675
-395.939
-11.7062
-411.535
-7.22383
-424.064
-1.98381
-428.178
3.84271
-416.933
10.4488
-401.171
17.8419
-376.397
25.3579
-340.009
31.9556
-277.503
34.688
-187.389
31.3787
-51.245
31.9229
39.9048
25.7859
122.4
57.4485
86.997
149.574
-143.029
132.831
551.563
105.184
771.107
77.6016
912.634
47.5463
1038.9
16.1981
1129.95
-14.8575
1148.07
-38.5869
1105.42
-54.755
1020.65
-66.7862
897.689
-75.0072
761.788
-79.7061
607.499
-83.042
454.254
-85.9246
340.668
-83.7155
261.3
-67.2098
70.4529
-59.7864
-221.639
-48.8082
-404.023
-42.5422
-590.92
-43.8295
-597.498
-42.8355
-556.081
-40.3624
-562.367
-38.5231
-575.24
-37.2886
-590.995
-36.6698
-605.938
-36.5284
-618.552
-36.8899
-630.249
-37.811
-644.36
-39.029
-658.414
-40.3458
-671.352
-41.857
-684.911
-43.4754
-701.185
-44.9491
-717.672
-46.4368
-736.42
-47.7014
-757.464
-48.3955
-779.879
-48.3435
-802.589
-47.3421
-826.091
-45.0898
-849.65
-41.2716
-871.731
-35.511
-890.678
-27.4256
-904.354
-16.672
-909.116
-3.00006
-899.935
13.594
-869.603
32.5662
-807.343
52.5382
-699.699
70.8864
-521.709
82.7013
-228.149
81.3466
371.83
66.2551
657.559
54.4926
869.353
936.94
-28.6874
-42.6314
-28.1074
-87.7903
-27.6455
-123.527
-27.2775
-156.485
-27.0212
-188.455
-26.6204
-219.786
-26.0266
-249.448
-25.4136
-277.193
-24.6849
-302.89
-23.6785
-327.886
-22.1245
-356.961
-19.5997
-381.497
-16.3498
-399.189
-12.6313
-415.253
-7.91383
-428.781
-2.32516
-433.766
4.00857
-423.267
11.1688
-408.331
19.2059
-384.434
27.4351
-348.238
34.7728
-284.841
37.6559
-190.272
34.4644
-48.0534
34.1177
40.2514
23.6801
132.837
54.1672
56.5099
157.095
-245.957
143.881
564.776
113.145
801.844
83.4378
942.341
50.9896
1071.35
17.4003
1163.54
-16.1637
1181.64
-42.401
1131.66
-60.1499
1038.4
-72.9128
910.452
-81.4992
770.374
-86.5909
612.591
-90.1944
457.857
-92.4011
342.875
-89.0819
257.981
-70.8949
52.266
-62.6787
-229.855
-51.1543
-415.547
-45.1003
-596.974
-46.3342
-596.264
-45.0166
-557.398
-42.3157
-565.068
-40.3384
-577.217
-39.0109
-592.322
-38.3517
-606.597
-38.2065
-618.697
-38.5514
-629.905
-39.4903
-643.421
-40.8099
-657.094
-42.2499
-669.912
-43.841
-683.32
-45.5765
-699.45
-47.1358
-716.112
-48.6397
-734.916
-49.9777
-756.126
-50.7621
-779.095
-50.754
-802.597
-49.7479
-827.098
-47.439
-851.959
-43.493
-875.677
-37.5085
-896.663
-29.0749
-912.788
-17.8139
-920.377
-3.4298
-914.319
14.1354
-887.168
34.3798
-827.587
55.9066
-721.225
76.0099
-541.812
89.6491
-241.788
89.722
371.757
74.2099
673.071
57.4699
886.093
972.583
-30.4149
-43.1893
-29.8789
-88.3263
-29.425
-123.981
-29.0148
-156.895
-28.6975
-188.772
-28.2415
-220.242
-27.6395
-250.05
-27.0051
-277.827
-26.2429
-303.652
-25.1895
-328.94
-23.5654
-358.585
-20.9943
-384.068
-17.6047
-402.578
-13.6105
-419.247
-8.64131
-433.751
-2.72783
-439.68
4.1018
-430.097
11.8116
-416.041
20.4437
-393.066
29.4264
-357.221
37.6072
-293.022
40.7271
-193.392
37.897
-45.2233
36.5653
41.5831
21.7531
147.65
49.3468
28.9162
165.862
-362.472
156.261
574.378
121.216
836.889
88.9187
974.638
53.9685
1106.3
18.1365
1199.37
-17.6407
1217.41
-46.286
1160.31
-65.6583
1057.77
-79.1135
923.907
-88.0071
779.268
-93.4653
618.049
-97.3576
461.749
-98.9181
344.435
-94.4544
253.517
-74.6455
32.4571
-65.6034
-238.897
-53.4851
-427.665
-47.6585
-602.801
-48.7858
-595.137
-47.1146
-559.069
-44.2271
-567.955
-42.1184
-579.325
-40.7046
-593.736
-40.0056
-607.297
-39.8509
-618.852
-40.1881
-629.567
-41.1541
-642.455
-42.5683
-655.68
-44.1339
-668.346
-45.8039
-681.65
-47.6382
-697.615
-49.3205
-714.43
-50.8822
-733.354
-52.293
-754.715
-53.1816
-778.206
-53.236
-802.543
-52.2441
-828.089
-49.8994
-854.303
-45.8485
-879.728
-39.6662
-902.845
-30.9124
-921.542
-19.1686
-932.121
-4.08895
-929.398
14.4488
-905.706
35.9992
-849.138
59.1617
-744.388
81.1657
-563.816
96.8307
-257.453
98.1986
370.389
81.7901
689.48
59.3298
908.554
1005.66
-32.072
-43.7357
-31.588
-88.8104
-31.1856
-124.383
-30.7402
-157.34
-30.3548
-189.157
-29.8671
-220.729
-29.2542
-250.663
-28.5684
-278.513
-27.7008
-304.519
-26.5972
-330.043
-24.9565
-360.226
-22.3667
-386.657
-18.8943
-406.051
-14.6457
-423.496
-9.4123
-438.984
-3.19985
-445.892
4.10333
-437.4
12.3583
-424.296
21.5594
-402.268
31.3845
-367.046
40.5593
-302.196
44.082
-196.915
41.9111
-43.0523
39.3169
44.1773
20.6424
166.324
43.1836
6.3749
176.852
-496.14
171.262
579.968
129.98
878.171
94.1089
1010.51
56.5269
1143.88
18.415
1237.48
-19.4214
1255.25
-50.2317
1191.12
-71.2229
1078.76
-85.437
938.121
-94.5811
788.412
-100.286
623.755
-104.387
465.85
-105.42
345.468
-99.8551
247.952
-78.451
11.0531
-68.5008
-248.847
-55.7493
-440.417
-50.1919
-608.358
-51.1942
-594.135
-49.1443
-561.119
-46.1091
-570.99
-43.8712
-581.563
-42.3665
-595.241
-41.6245
-608.039
-41.4597
-619.017
-41.7989
-629.228
-42.7997
-641.454
-44.2945
-654.185
-45.9719
-666.669
-47.746
-679.876
-49.6879
-695.673
-51.5133
-712.605
-53.1698
-731.697
-54.6575
-753.227
-55.6569
-777.207
-55.7923
-802.408
-54.8348
-829.047
-52.4767
-856.661
-48.3458
-883.859
-41.993
-909.198
-32.9486
-930.586
-20.7498
-944.32
-4.99425
-945.154
14.5142
-925.215
37.4031
-872.027
62.2839
-769.269
86.3355
-587.868
104.232
-275.35
106.822
367.798
89.2162
707.086
64.306
933.464
1039.65
-33.681
-44.2841
-33.1968
-89.2946
-32.8237
-124.756
-32.35
-157.814
-31.9281
-189.579
-31.4937
-221.164
-30.8907
-251.266
-30.1488
-279.255
-29.1412
-305.527
-27.9509
-331.233
-26.3215
-361.855
-23.7288
-389.25
-20.2186
-409.561
-15.7629
-427.952
-10.2718
-444.475
-3.76853
-452.395
4.00401
-445.172
12.8128
-433.105
22.6225
-412.077
33.403
-377.826
43.7027
-312.496
47.8663
-201.078
46.7501
-41.9361
41.4443
49.4831
22.5174
185.251
36.1278
-7.23555
189.792
-649.805
187.839
581.921
139.529
926.482
99.2682
1050.77
58.716
1184.43
18.2682
1277.93
-21.5834
1295.1
-54.2955
1223.83
-76.8486
1101.32
-91.9314
953.204
-101.303
797.783
-107.083
629.534
-111.243
470.01
-111.86
346.086
-105.194
241.286
-82.3028
-11.8385
-71.3094
-259.841
-57.928
-453.798
-52.7116
-613.575
-53.5832
-593.263
-51.142
-563.561
-47.9801
-574.152
-45.6017
-583.942
-43.9941
-596.849
-43.2062
-608.826
-43.0426
-619.18
-43.3985
-628.872
-44.4369
-640.416
-46.0013
-652.621
-47.7794
-664.891
-49.6841
-677.971
-51.7641
-693.593
-53.7463
-710.622
-55.5201
-729.924
-57.0871
-751.66
-58.1926
-776.101
-58.4267
-802.174
-57.5241
-829.95
-55.1768
-859.009
-50.9924
-888.043
-44.4978
-915.692
-35.1945
-939.889
-22.5715
-956.943
-6.16332
-961.562
14.3101
-945.688
38.567
-896.283
65.2501
-795.952
91.5025
-614.12
111.857
-295.704
115.638
364.017
96.7958
725.928
67.8575
962.402
1078.88
-35.2588
-44.822
-34.7481
-89.8053