/*--------------------------------*- C++ -*----------------------------------*\
| =========                 |                                                 |
| \\      /  F ield         | OpenFOAM: The Open Source CFD Toolbox           |
|  \\    /   O peration     | Version:  4.1                                   |
|   \\  /    A nd           | Web:      www.OpenFOAM.org                      |
|    \\/     M anipulation  |                                                 |
\*---------------------------------------------------------------------------*/
FoamFile
{
    version     2.0;
    format      ascii;
    class       volSymmTensorField;
    location    "1";
    object      R;
}
// * * * * * * * * * * * * * * * * * * * * * * * * * * * * * * * * * * * * * //

dimensions      [0 2 -2 0 0 0 0];

internalField   nonuniform List<symmTensor> 
6785
(
(0.264583 5.03594e-17 5.61296e-17 0.191338 0.0371071 0.370412)
(0.000544678 2.89979e-22 5.79215e-22 0.000543143 4.3707e-07 0.00054631)
(0.000546918 -1.79224e-22 -1.28158e-22 0.00054709 1.01229e-07 0.000546873)
(0.000545264 9.10591e-23 6.80966e-23 0.000545343 7.77808e-08 0.000545212)
(0.000545695 -1.47992e-22 -3.9244e-23 0.000545773 7.45416e-08 0.000545654)
(0.000545468 6.66154e-23 -2.40769e-24 0.000545529 6.806e-08 0.000545435)
(0.00054543 -3.85813e-24 1.32946e-23 0.000545479 6.26192e-08 0.000545406)
(0.000545362 -7.3783e-23 -1.0822e-23 0.000545396 5.71538e-08 0.000545347)
(0.00054515 5.06974e-23 1.89925e-23 0.000545172 5.2802e-08 0.000545146)
(0.000544977 -1.64085e-23 1.67222e-23 0.000544988 5.05075e-08 0.000544987)
(0.000544723 -4.06001e-23 1.24442e-23 0.000544708 4.55881e-08 0.000544745)
(0.000544438 3.19672e-23 -1.20134e-24 0.000544376 3.27082e-08 0.000544466)
(0.000546553 -4.71976e-23 -4.98518e-23 0.000546522 -2.03836e-08 0.000546543)
(0.000957081 1.77072e-20 -3.64023e-20 0.000915278 -0.00014206 0.000852994)
(0.395014 4.40731e-17 -1.04649e-16 0.299049 -0.454052 0.146278)
(0.332267 6.9436e-17 1.52294e-16 0.133166 -0.00462709 0.590014)
(0.000950964 -5.20965e-21 6.83599e-20 0.000706387 -1.34494e-05 0.00118825)
(0.000194293 -7.73272e-21 -3.63495e-21 0.000202749 5.13783e-07 0.000190816)
(0.000142675 1.12329e-21 1.91196e-21 0.000143558 -1.14296e-07 0.000139731)
(0.000135164 -2.59677e-21 -1.11081e-21 0.000137035 -1.52615e-09 0.000132777)
(0.000132543 -1.37489e-22 3.09227e-22 0.000134131 -3.35143e-08 0.000130287)
(0.000132421 -8.59446e-23 1.10534e-21 0.000134039 -4.03588e-08 0.000130267)
(0.000130907 -1.60836e-21 -4.05949e-22 0.000132458 -5.05847e-08 0.00012888)
(0.000129717 1.10197e-22 5.26819e-22 0.000131226 -5.6246e-08 0.000127809)
(0.000128661 3.02205e-22 1.30147e-21 0.000130207 -6.55277e-08 0.000126847)
(0.000124805 -2.0071e-25 5.19932e-22 0.000126492 -1.64557e-07 0.000122859)
(0.00013692 3.48742e-21 3.36894e-22 0.000139728 -9.24096e-07 0.000132908)
(0.000535832 -7.70627e-20 -1.6952e-19 0.000561313 -4.1029e-05 0.000467263)
(0.0101842 -6.54037e-18 -1.0426e-17 0.0107437 -0.00291062 0.0070528)
(0.157823 -2.71825e-16 -3.76043e-16 0.143099 -0.165974 0.0512989)
(0.415067 6.06874e-17 1.73853e-16 0.128656 -0.0721523 0.792194)
(0.00407984 -6.23429e-19 -1.38948e-19 0.00196472 -0.000574033 0.00598671)
(0.000783043 -5.4909e-19 -1.85216e-19 0.00131624 -3.64226e-06 0.000710419)
(0.000128868 1.68142e-20 -1.14618e-20 0.000136376 -2.47302e-06 0.000114043)
(0.000152429 -3.68455e-20 1.88912e-21 0.000181769 -2.12492e-06 0.000137806)
(0.000150861 -3.12418e-22 -5.53868e-21 0.000174926 -2.74088e-06 0.000135159)
(0.000156552 2.65142e-21 -2.13979e-20 0.000183416 -2.87931e-06 0.000140828)
(0.000159868 -2.01946e-20 8.9268e-21 0.000186952 -3.08762e-06 0.000144237)
(0.000166738 2.4897e-20 -3.84554e-21 0.000195382 -3.77603e-06 0.000151526)
(0.000180423 1.34454e-20 -3.09186e-20 0.000215011 -9.95047e-06 0.00016562)
(0.000232893 7.2745e-20 -3.75916e-20 0.000300633 -6.32316e-05 0.00023133)
(0.000672376 6.97228e-19 -6.0141e-19 0.000918285 -0.0005572 0.000865013)
(0.00419276 3.85739e-18 -5.35158e-18 0.0054768 -0.00475549 0.00634555)
(0.0298303 2.3954e-17 -5.02014e-17 0.0361293 -0.0241544 0.0472622)
(0.0388181 -5.88372e-17 -1.13006e-16 0.0321956 -0.0115562 0.0527208)
(0.511261 2.5832e-17 1.64437e-16 0.152858 -0.147982 0.986476)
(0.0243094 -1.90585e-19 -1.47058e-18 0.00894762 -0.00594387 0.0407273)
(0.00263641 -4.34983e-18 -5.22786e-19 0.00540973 -0.000390722 0.00218715)
(0.000258456 -1.55502e-19 -8.34588e-20 0.000323516 -2.6859e-05 0.000174996)
(0.000255617 -1.41858e-19 -3.76149e-20 0.000399081 -2.0827e-05 0.000213928)
(0.000213113 1.18061e-21 9.96097e-21 0.000299418 -2.03299e-05 0.00017073)
(0.000228041 4.01124e-20 -4.92992e-20 0.000331089 -2.0954e-05 0.000188264)
(0.000238416 -1.80797e-20 -1.91748e-20 0.000346155 -2.52294e-05 0.000198225)
(0.000254951 1.47924e-19 -1.22771e-21 0.000371575 -2.72772e-05 0.000216005)
(0.000276636 2.42313e-19 -8.82884e-20 0.000405482 -3.60946e-05 0.000238996)
(0.000309427 1.54498e-19 -6.54054e-20 0.000476517 -8.41027e-05 0.000268865)
(0.000545786 7.44639e-19 -2.53661e-19 0.00092762 -0.000380237 0.00053533)
(0.00176208 3.39942e-18 -1.68417e-18 0.00297333 -0.00132482 0.00210184)
(0.00993919 4.35585e-17 -2.38084e-17 0.0197133 -0.00935811 0.0100932)
(0.0154824 -1.53567e-16 -5.27096e-17 0.0250347 0.00853723 0.0143354)
(0.589753 3.72397e-19 1.46102e-16 0.184973 -0.21231 1.12538)
(0.0448403 -1.31886e-18 -3.95251e-18 0.0177175 -0.0180122 0.0783019)
(0.00850877 -1.07505e-17 2.99392e-18 0.0143127 -0.00303531 0.00947614)
(0.00123692 -4.80385e-19 2.63429e-19 0.00196161 -0.000559173 0.00125889)
(0.000522326 -3.90793e-19 -2.17835e-19 0.00091866 -0.000137686 0.000468044)
(0.000334171 5.60639e-20 -1.75556e-19 0.000544114 -7.86778e-05 0.000270583)
(0.000328066 4.87218e-19 -1.56854e-19 0.000544244 -7.27482e-05 0.000266607)
(0.000344123 3.8506e-19 -1.03662e-19 0.000582871 -8.63638e-05 0.000277636)
(0.000374494 5.27769e-19 -2.00794e-19 0.000639577 -9.79179e-05 0.000310106)
(0.000421887 1.00404e-18 -3.36272e-19 0.000734811 -0.000123376 0.000360176)
(0.000462524 8.02657e-19 -2.59628e-19 0.000815892 -0.00017952 0.000407224)
(0.000675739 9.67103e-19 -4.90923e-19 0.00123857 -0.0004458 0.00065917)
(0.00151807 3.46111e-18 -1.89833e-18 0.00280319 -0.00115569 0.00169351)
(0.00969788 3.67064e-17 -1.88509e-17 0.0181409 -0.00931607 0.011123)
(0.0173249 -2.09179e-17 -1.57929e-17 0.0187726 -0.0084626 0.0154078)
(0.657519 2.50119e-18 3.03127e-16 0.220034 -0.258531 1.23013)
(0.0525832 -2.80453e-17 -7.93124e-18 0.0213505 -0.0262399 0.0907731)
(0.0180561 -4.47406e-17 2.37589e-17 0.0316899 -0.0090322 0.0204648)
(0.00251903 -4.28973e-18 3.20148e-18 0.0040673 -0.00193614 0.00296468)
(0.000922351 -1.30043e-19 -1.20155e-20 0.00162503 -0.000468664 0.000955198)
(0.000510549 2.97359e-19 -4.32319e-19 0.000874317 -0.000217686 0.000468787)
(0.000447622 8.62567e-19 -1.0809e-19 0.000777309 -0.000168887 0.000386665)
(0.00046161 4.49926e-19 3.39568e-19 0.000827708 -0.000185051 0.000385639)
(0.00049703 3.23132e-19 -1.92513e-20 0.000902936 -0.000207371 0.000417518)
(0.000560242 1.08519e-18 -2.23422e-19 0.0010369 -0.000260453 0.000480479)
(0.000591582 8.78792e-19 1.50191e-19 0.00109485 -0.000315299 0.000521448)
(0.00081029 6.87923e-19 -5.32108e-19 0.00153748 -0.00056616 0.000773109)
(0.00148736 2.76852e-18 -1.55661e-18 0.0027995 -0.00118339 0.00160553)
(0.00923488 3.00054e-17 -1.69548e-17 0.016667 -0.00901513 0.0105387)
(0.0333368 -1.17563e-16 -1.13437e-19 0.0328896 -0.0114919 0.0280131)
(0.738381 4.38806e-17 7.19445e-16 0.25758 -0.29104 1.3507)
(0.0532301 -6.68016e-17 -1.55465e-17 0.0208134 -0.0273439 0.0890491)
(0.0305503 -1.82227e-16 6.13175e-17 0.0564556 -0.0168887 0.0345247)
(0.0032758 -1.57362e-17 7.64027e-18 0.00544767 -0.00367134 0.00397499)
(0.00134927 -5.04101e-19 1.33693e-18 0.00237292 -0.00106652 0.0014993)
(0.0006996 8.13107e-19 -3.92473e-19 0.00118783 -0.000457484 0.000713859)
(0.000563426 3.14939e-19 3.0462e-19 0.00097091 -0.000298237 0.00052602)
(0.000556049 -1.59267e-18 1.64429e-18 0.000989081 -0.000286029 0.000489835)
(0.000585453 -1.59123e-18 9.60389e-19 0.00106023 -0.000305322 0.000506722)
(0.000652754 -2.72573e-19 7.05434e-19 0.00121067 -0.000364101 0.000565299)
(0.000658916 -5.06023e-19 1.44808e-18 0.00121412 -0.000404378 0.000578802)
(0.000953863 5.12189e-19 -6.43189e-19 0.00187837 -0.000672736 0.000862063)
(0.00145148 2.28727e-18 -1.15799e-18 0.00277045 -0.00115911 0.00148766)
(0.00858697 3.47474e-17 -2.02322e-17 0.0152516 -0.00806245 0.00940592)
(0.0542473 -2.06726e-16 -2.19946e-18 0.0617541 -0.0214282 0.043468)
(0.813879 8.48873e-17 1.05471e-15 0.287103 -0.316812 1.46728)
(0.0646089 -1.91926e-17 3.12479e-17 0.0322876 -0.025497 0.100908)
(0.0409456 -4.21188e-16 1.42314e-16 0.0750509 -0.0236061 0.0478327)
(0.00534262 -4.19122e-17 2.3217e-17 0.00893081 -0.00600182 0.006458)
(0.00191689 -5.38581e-18 6.4427e-18 0.00335749 -0.00186059 0.00216289)
(0.000918968 7.42023e-19 5.86502e-19 0.00154289 -0.000782684 0.000984693)
(0.000675352 -1.1949e-18 1.38628e-18 0.00114046 -0.000461044 0.000665354)
(0.000634856 -6.80629e-18 3.86655e-18 0.00110325 -0.000379138 0.000584109)
(0.000645676 -5.6685e-18 2.67883e-18 0.0011388 -0.000373797 0.000575163)
(0.000713113 -2.32234e-18 2.538e-18 0.0012967 -0.000424164 0.000624429)
(0.000682325 -3.16205e-18 3.3583e-18 0.00122192 -0.000437773 0.00059889)
(0.00114113 1.09822e-18 -2.56726e-19 0.00236554 -0.00078054 0.000937331)
(0.00147606 3.98701e-18 -8.69135e-19 0.00286445 -0.0011597 0.00142251)
(0.00858019 4.82333e-17 -2.63252e-17 0.0147005 -0.00806694 0.00888512)
(0.0836335 -4.6985e-17 -5.62724e-17 0.0988239 -0.0397832 0.067457)
(0.883472 4.22338e-17 6.97862e-16 0.311639 -0.33828 1.58403)
(0.0792151 6.62916e-17 2.04261e-16 0.054617 -0.0269122 0.107844)
(0.0486177 -6.15886e-16 2.67178e-16 0.0871111 -0.0301431 0.059592)
(0.00733619 -8.26172e-17 4.99503e-17 0.0120981 -0.00730814 0.00878694)
(0.00259975 -1.8536e-17 1.54868e-17 0.00462639 -0.00254048 0.00282829)
(0.00117413 4.15954e-19 2.8716e-18 0.00195987 -0.00105254 0.00126351)
(0.000796779 -3.26558e-18 3.2504e-18 0.00133423 -0.000587538 0.000801274)
(0.00070192 -1.50967e-17 6.5426e-18 0.00119076 -0.000454661 0.00066121)
(0.000688216 -1.06335e-17 4.56371e-18 0.00117555 -0.000418253 0.000624191)
(0.000757611 -3.62626e-18 4.81428e-18 0.00134402 -0.000454011 0.000667106)
(0.000685329 -6.46907e-18 5.20872e-18 0.00118378 -0.000438379 0.000600345)
(0.00140293 4.78959e-18 3.2145e-18 0.00307486 -0.000903327 0.00101394)
(0.00159041 1.10838e-17 1.38323e-19 0.00313418 -0.00121337 0.00143283)
(0.00975211 8.50168e-17 -3.69345e-17 0.0159115 -0.00880352 0.00913914)
(0.121642 5.26362e-16 -2.31594e-16 0.143052 -0.0676116 0.101512)
(0.946816 -5.9658e-17 -4.14933e-16 0.333506 -0.363828 1.69269)
(0.0901186 3.30428e-17 2.87211e-16 0.07327 -0.0317328 0.107964)
(0.052496 -6.03666e-16 3.08649e-16 0.0923334 -0.0389935 0.0663643)
(0.00855291 -1.48295e-16 8.4782e-17 0.0137236 -0.007833 0.0105208)
(0.00315472 -4.50954e-17 2.20232e-17 0.0057488 -0.00272843 0.00329011)
(0.00137816 4.49773e-18 4.36256e-18 0.00224008 -0.00120822 0.00147255)
(0.000924881 -4.59698e-18 4.69945e-18 0.00154915 -0.000669634 0.000931639)
(0.000761813 -2.51797e-17 8.25122e-18 0.00126419 -0.000504669 0.000722483)
(0.000722294 -1.42824e-17 5.3482e-18 0.00119382 -0.000442696 0.00065925)
(0.000801135 -4.07121e-18 6.33878e-18 0.00139134 -0.000470087 0.000704424)
(0.000690199 -9.14549e-18 6.09401e-18 0.00115445 -0.000428053 0.000601453)
(0.00179911 2.54584e-17 1.19963e-17 0.0040903 -0.00105004 0.00117105)
(0.00184142 2.41139e-17 1.79486e-18 0.00366016 -0.00133328 0.0015409)
(0.0130472 1.93851e-16 -1.32274e-17 0.0209228 -0.0111336 0.00914144)
(0.166486 1.48434e-15 -5.38423e-16 0.192157 -0.103588 0.144003)
(0.98367 -1.27908e-16 -1.3742e-15 0.347176 -0.387745 1.75027)
(0.105837 -7.2554e-17 1.42772e-16 0.0814308 -0.0399057 0.130241)
(0.0512056 -4.0745e-16 2.09376e-16 0.089324 -0.0466847 0.0645996)
(0.00983555 -2.01668e-16 1.28519e-16 0.0155713 -0.00833271 0.0129388)
(0.00354874 -8.2219e-17 2.17483e-17 0.00654029 -0.00266622 0.00361596)
(0.00150957 1.73292e-17 8.90628e-19 0.00233152 -0.00121239 0.00160698)
(0.00104154 -3.94528e-18 4.39336e-18 0.00172754 -0.000707146 0.00105123)
(0.000819438 -3.50453e-17 7.2397e-18 0.00132978 -0.000530022 0.000778064)
(0.000750086 -1.4804e-17 3.8047e-18 0.00119423 -0.000450629 0.000684193)
(0.000847951 -5.91401e-18 5.85937e-18 0.00144451 -0.000475965 0.00074379)
(0.000754875 -7.34522e-18 5.89338e-18 0.0012541 -0.000426693 0.000660444)
(0.00240033 9.74795e-17 2.45283e-17 0.00533644 -0.00119275 0.00165903)
(0.00227631 3.47654e-17 2.55308e-18 0.00435881 -0.00151507 0.00178347)
(0.018324 3.95839e-16 1.15634e-16 0.0280798 -0.0142817 0.00828741)
(0.216069 2.54919e-15 -8.89878e-16 0.244269 -0.144566 0.192396)
(0.996531 -6.36767e-17 -1.36852e-15 0.352564 -0.401129 1.76217)
(0.115126 -1.20354e-16 -4.07857e-17 0.0803186 -0.0449509 0.152111)
(0.0487173 -1.76304e-16 7.32246e-17 0.0827608 -0.0486941 0.0603316)
(0.0101043 -1.8257e-16 1.18642e-16 0.0159927 -0.00908483 0.0135607)
(0.00374905 -1.11318e-16 2.44685e-17 0.00685735 -0.00254666 0.00388143)
(0.00167376 2.45797e-17 -4.87632e-18 0.00252131 -0.00122565 0.0017795)
(0.00113942 -8.69147e-19 1.43389e-18 0.0018283 -0.000695498 0.00115474)
(0.000882053 -4.07682e-17 3.31359e-18 0.0013972 -0.000536987 0.000839649)
(0.000773727 -1.3869e-17 1.03238e-18 0.00118 -0.000445059 0.000700408)
(0.000899841 -1.18131e-17 2.20321e-18 0.00150919 -0.000471179 0.000787198)
(0.00105525 1.69816e-17 8.94592e-18 0.00182544 -0.000470916 0.00101085)
(0.00340542 2.62681e-16 6.71523e-17 0.00721436 -0.00128746 0.00302604)
(0.00352687 6.67727e-17 -4.91387e-19 0.00615132 -0.00197358 0.00283194)
(0.0318669 6.27439e-16 1.17743e-16 0.0456393 -0.0197831 0.0183159)
(0.268118 3.26009e-15 -1.12459e-15 0.299252 -0.186646 0.242123)
(0.993031 7.40745e-17 -4.57772e-16 0.351139 -0.403936 1.74495)
(0.116186 -1.04805e-16 -1.33213e-16 0.0756766 -0.0468488 0.161354)
(0.0478978 -1.06693e-17 -6.18557e-20 0.0787036 -0.0455223 0.0582419)
(0.0088291 -9.23755e-17 6.07597e-17 0.0135311 -0.00899806 0.011522)
(0.00375407 -1.05719e-16 2.52736e-17 0.00653228 -0.00265482 0.0040457)
(0.00188845 1.94338e-17 -7.60784e-18 0.00287075 -0.00129186 0.00199268)
(0.00123125 1.32804e-18 -2.76995e-18 0.00189497 -0.000667701 0.00125091)
(0.000951251 -4.23885e-17 -1.72036e-18 0.00146727 -0.000513059 0.000917208)
(0.000798057 -1.16089e-17 -1.9882e-18 0.00115789 -0.000430545 0.000721994)
(0.000984333 -2.32009e-17 -5.00932e-18 0.00164181 -0.000457668 0.000882922)
(0.00190956 8.72562e-17 3.07446e-17 0.00333504 -0.000565364 0.00239498)
(0.00508223 5.12706e-16 1.70156e-16 0.00950356 -0.00120651 0.00692781)
(0.00522271 1.38419e-16 -4.49535e-18 0.00738075 -0.0026764 0.00637995)
(0.0549671 5.15127e-16 -5.77759e-16 0.0656501 -0.027912 0.0541113)
(0.32836 3.28834e-15 -1.24418e-15 0.361748 -0.23451 0.301645)
(0.978936 1.42524e-16 7.87491e-16 0.345703 -0.401256 1.7095)
(0.117184 -4.98221e-17 -9.79942e-17 0.0693025 -0.0523645 0.170241)
(0.0431245 7.63396e-17 -9.15803e-18 0.0679538 -0.0386409 0.0522568)
(0.00562025 -3.43521e-17 2.42242e-17 0.00827684 -0.00713031 0.0070329)
(0.00335109 -8.48724e-17 2.0143e-17 0.00565475 -0.0024456 0.00363637)
(0.00198699 1.36061e-17 -5.85987e-18 0.00301716 -0.00133372 0.00208782)
(0.00130748 -4.75004e-19 -3.6811e-18 0.00193862 -0.00064974 0.00131962)
(0.00102401 -4.06213e-17 -4.8992e-18 0.00154412 -0.000477153 0.000983362)
(0.000824171 -9.60694e-18 -2.23117e-18 0.00114114 -0.000408973 0.000728751)
(0.00106057 -3.36483e-17 -9.10636e-18 0.0017725 -0.000423584 0.00094361)
(0.00302705 1.61664e-16 6.11e-17 0.00532014 -0.00060031 0.0041513)
(0.0060184 7.47339e-16 2.89592e-16 0.0116344 -0.000760248 0.00894333)
(0.00804158 2.40724e-16 -2.6025e-17 0.0107096 -0.00403731 0.010875)
(0.0812434 -1.66033e-16 -1.80452e-15 0.085507 -0.0337934 0.098635)
(0.384687 2.54613e-15 -1.23789e-15 0.424763 -0.272754 0.352862)
(0.941337 1.30736e-16 1.76325e-15 0.342529 -0.392616 1.61527)
(0.246257 -5.45006e-17 5.50793e-16 0.125482 -0.123853 0.39306)
(0.119351 -3.0733e-16 4.52199e-16 0.125944 -0.0932775 0.185116)
(0.0516548 -2.3342e-16 3.0575e-16 0.0557598 -0.0533588 0.0858716)
(0.0213033 -1.61702e-16 1.68387e-16 0.0245439 -0.0287832 0.0350048)
(0.00945451 -7.41477e-17 7.70785e-17 0.0115064 -0.0145771 0.0147496)
(0.0043919 -3.77361e-17 3.49991e-17 0.00563856 -0.00692008 0.00628459)
(0.00227998 -4.379e-17 9.36888e-18 0.00313135 -0.00324132 0.00287782)
(0.00132667 -2.15884e-17 2.24411e-18 0.00180383 -0.00150278 0.0014343)
(0.00133474 -2.61059e-17 -8.25777e-19 0.00215864 -0.000774793 0.00133235)
(0.00390547 1.3166e-16 5.57476e-17 0.00644496 -0.000657191 0.00525206)
(0.00819964 5.30823e-16 2.52513e-16 0.0130281 -0.00039273 0.0131328)
(0.0140733 1.05372e-16 -8.82176e-17 0.0155211 -0.00512448 0.0193384)
(0.108977 -3.25155e-16 -1.28069e-15 0.102821 -0.0304219 0.148915)
(0.454807 2.07911e-15 -1.22067e-15 0.503181 -0.331736 0.434205)
(0.36521 -7.84398e-19 -2.47312e-18 0.390346 -9.28846e-05 0.288153)
(0.322946 -4.23179e-18 -4.13893e-18 0.338805 -0.000691291 0.235971)
(0.323334 -6.41717e-18 -4.41436e-18 0.335071 -0.000630884 0.223964)
(0.316677 -9.28652e-18 -5.52097e-18 0.326039 -0.000801033 0.213051)
(0.308548 -1.39823e-17 -6.85518e-18 0.316092 -0.00104463 0.201565)
(0.282211 -3.09509e-17 -1.18241e-17 0.286713 -0.0023539 0.175497)
(0.287455 -3.907e-17 -1.27869e-17 0.290611 -0.00163327 0.171555)
(0.284849 -5.34808e-17 -1.61711e-17 0.287153 -0.00183553 0.166759)
(0.280571 -7.73474e-17 -2.06879e-17 0.282265 -0.00205634 0.161049)
(0.261967 -7.76576e-17 -2.87027e-17 0.262579 -0.00297238 0.145714)
(0.269273 -2.81089e-17 -2.16138e-17 0.269507 -0.00153356 0.146235)
(0.268328 -1.33289e-17 -1.72125e-17 0.268279 -0.00137141 0.144258)
(0.254661 -4.45448e-18 -1.52295e-17 0.254179 -0.00207224 0.134395)
(0.265398 1.66959e-18 -8.99397e-18 0.264792 -0.000918484 0.138867)
(0.266454 4.9379e-18 -7.09491e-18 0.265716 -0.00103679 0.139103)
(0.265241 6.97088e-18 -5.59427e-18 0.264467 -0.00149184 0.137579)
(0.252117 1.3523e-17 -5.00748e-18 0.251268 -0.0019519 0.129067)
(0.262415 1.17781e-17 -2.93906e-18 0.261596 -0.000718144 0.133925)
(0.263236 1.36953e-17 -2.10245e-18 0.262401 -0.000692901 0.134307)
(0.252823 2.3085e-17 -1.33335e-18 0.252084 -0.00137118 0.128211)
(0.265053 1.86798e-17 -2.52416e-19 0.264285 -0.000137721 0.135051)
(0.26709 2.09485e-17 3.35664e-19 0.266316 -4.02121e-05 0.136554)
(0.266649 2.25505e-17 8.74514e-19 0.265941 -6.37337e-05 0.136003)
(0.255886 3.48918e-17 2.44614e-18 0.255494 -0.00103319 0.129526)
(0.266509 2.6861e-17 2.55991e-18 0.266024 0.000194894 0.135323)
(0.267857 2.88564e-17 3.21741e-18 0.2674 0.000197008 0.13631)
(0.266737 2.90224e-17 4.0164e-18 0.266412 0.000237728 0.135198)
(0.255855 2.82986e-17 -3.66967e-18 0.256046 -0.000751121 0.128535)
(0.264512 1.62286e-17 -1.94124e-18 0.264543 0.00137738 0.132786)
(0.265242 1.38223e-17 -1.79607e-18 0.265398 0.000969802 0.133232)
(0.257602 1.52811e-17 -2.28405e-18 0.258517 -0.000692932 0.129078)
(0.267356 7.95418e-18 -1.2598e-18 0.267943 0.00111436 0.134356)
(0.269079 6.09073e-18 -1.22972e-18 0.269754 0.00109648 0.135661)
(0.268591 4.30294e-18 -1.18825e-18 0.269542 0.00107987 0.135005)
(0.2613 3.24219e-18 -1.98579e-18 0.263393 -0.000684242 0.130951)
(0.26938 5.22741e-19 -1.36512e-18 0.271204 0.00183725 0.134632)
(0.270698 -5.66616e-19 -1.47736e-18 0.272833 0.00161264 0.135499)
(0.266366 -1.85788e-18 -2.62879e-18 0.269987 -0.000757067 0.133865)
(0.275044 -2.56516e-18 -2.06061e-18 0.278208 0.00154476 0.138156)
(0.276917 -3.13291e-18 -2.47884e-18 0.280369 0.00125015 0.139618)
(0.276611 -3.2073e-18 -3.11549e-18 0.28067 0.00083856 0.139072)
(0.27135 -3.0557e-18 -6.04773e-18 0.277499 -0.00272215 0.13679)
(0.277245 -1.95755e-18 -5.28457e-18 0.283011 -0.000245333 0.138817)
(0.277761 -1.1058e-18 -6.68921e-18 0.284025 -0.00111758 0.139392)
(0.275659 1.38555e-18 -8.75252e-18 0.282778 -0.00214305 0.137849)
(0.267763 8.75024e-18 -1.69996e-17 0.277482 -0.0080978 0.134609)
(0.26915 1.28019e-17 -1.57311e-17 0.278509 -0.00453164 0.133942)
(0.267275 1.89405e-17 -1.9777e-17 0.277431 -0.00615533 0.133421)
(0.257794 4.12294e-17 -3.64584e-17 0.270823 -0.0151265 0.130721)
(0.25571 4.65203e-17 -3.4201e-17 0.267871 -0.0112669 0.129398)
(0.25178 6.12951e-17 -4.24357e-17 0.264611 -0.0143843 0.128589)
(0.243653 8.44871e-17 -5.40169e-17 0.257551 -0.0181702 0.125447)
(0.227397 1.51589e-16 -9.24023e-17 0.244685 -0.0353501 0.120817)
(0.21771 1.56342e-16 -8.91528e-17 0.233953 -0.0254038 0.117056)
(0.210396 1.93552e-16 -1.08376e-16 0.227426 -0.0292038 0.115578)
(0.199436 2.42666e-16 -1.33642e-16 0.217501 -0.0332328 0.112733)
(0.182117 3.84314e-16 -2.14985e-16 0.20329 -0.0550549 0.110179)
(0.170061 3.68368e-16 -2.02467e-16 0.189808 -0.041058 0.107965)
(0.163379 4.3753e-16 -2.41505e-16 0.183793 -0.0466043 0.108289)
(0.153448 6.48954e-16 -3.66907e-16 0.176399 -0.0743631 0.110755)
(0.146071 5.91357e-16 -3.3226e-16 0.167088 -0.0553774 0.112086)
(0.142836 6.81723e-16 -3.86585e-16 0.164248 -0.0618031 0.114602)
(0.1399 7.77305e-16 -4.4532e-16 0.161577 -0.0667901 0.118027)
(0.138576 1.06696e-15 -6.31128e-16 0.161772 -0.0984716 0.125665)
(0.136578 9.34578e-16 -5.54373e-16 0.156693 -0.0733557 0.132194)
(0.137371 1.05079e-15 -6.32617e-16 0.157125 -0.0808426 0.13799)
(0.141027 1.39921e-15 -8.68122e-16 0.160917 -0.115502 0.149423)
(0.142308 1.21761e-15 -7.53889e-16 0.158741 -0.0897301 0.158437)
(0.144809 1.35326e-15 -8.4732e-16 0.160604 -0.0985899 0.165252)
(0.148898 1.47106e-15 -9.32296e-16 0.163904 -0.104258 0.173685)
(0.155351 1.8458e-15 -1.19808e-15 0.1705 -0.134692 0.185805)
(0.158345 1.61992e-15 -1.07504e-15 0.170787 -0.108549 0.194673)
(0.161564 1.76679e-15 -1.18467e-15 0.173826 -0.117535 0.201012)
(0.166343 1.84811e-15 -1.27201e-15 0.178784 -0.12061 0.208122)
(0.172383 2.11037e-15 -1.48845e-15 0.185898 -0.140468 0.21728)
(0.175415 1.81816e-15 -1.35663e-15 0.187958 -0.116239 0.223201)
(0.178174 1.69088e-15 -1.10808e-15 0.191513 -0.120673 0.227029)
(0.182218 1.66566e-15 -1.00882e-15 0.197737 -0.131545 0.230389)
(0.184793 1.28569e-15 -7.10934e-16 0.20069 -0.109648 0.233705)
(0.187232 1.2176e-15 -6.74803e-16 0.205139 -0.11387 0.235794)
(0.190171 9.6303e-16 -4.98101e-16 0.210876 -0.10528 0.237046)
(0.163765 6.88616e-16 -1.52134e-16 0.179053 -0.0740282 0.189862)
(0.139808 5.7264e-16 -3.59379e-17 0.151114 -0.0549443 0.162785)
(0.105098 4.08377e-16 1.0657e-16 0.107547 -0.0306944 0.12823)
(0.0883716 3.83619e-16 9.44844e-17 0.0904627 -0.0258041 0.105588)
(0.0637182 2.1152e-16 1.72623e-16 0.0591685 -0.0128854 0.084217)
(0.0509469 1.11856e-16 1.45068e-16 0.0446415 -0.00864798 0.0720661)
(0.043902 6.77372e-17 8.9535e-17 0.03831 -0.00754123 0.0629885)
(0.0366128 2.91672e-17 4.14978e-17 0.032097 -0.00646003 0.0530791)
(0.0285502 5.24692e-18 -1.07328e-18 0.0251999 -0.00515718 0.0419966)
(0.0193457 8.08708e-18 -3.51339e-17 0.0173009 -0.00347752 0.0291777)
(0.0119557 2.50414e-17 -5.62791e-17 0.0111174 -0.00206474 0.0187693)
(0.0108422 2.83969e-17 -6.43236e-17 0.0107542 -0.00173564 0.0169073)
(0.0103854 5.70887e-18 -6.11423e-17 0.0109332 -0.00175843 0.0159497)
(0.00955608 -6.09433e-20 -5.95869e-17 0.0106104 -0.00173234 0.0145363)
(0.00868922 -5.7058e-18 -5.32724e-17 0.0103798 -0.001787 0.0130417)
(0.00766871 5.68202e-18 -4.1075e-17 0.00992038 -0.00177715 0.0113172)
(0.00696206 9.086e-18 -2.73102e-17 0.00896499 -0.00187453 0.0102083)
(0.00619476 1.61056e-17 -1.85227e-17 0.00796756 -0.00184243 0.008972)
(0.00529468 2.77932e-17 -1.36592e-17 0.00676356 -0.00181436 0.00751459)
(0.0042129 3.52394e-17 -1.1743e-17 0.00525015 -0.00185202 0.00577949)
(0.00293947 2.21468e-17 -1.0844e-17 0.00349275 -0.00202328 0.00372762)
(0.00264909 2.10745e-17 -9.54805e-18 0.00315284 -0.00214794 0.00318345)
(0.0025778 1.83362e-17 -7.53531e-18 0.0030975 -0.00231437 0.00304137)
(0.00253027 1.30748e-17 -5.24146e-18 0.00309254 -0.00250981 0.00294231)
(0.00248427 5.76318e-18 -3.2074e-18 0.00308077 -0.00271746 0.00285405)
(0.00244379 -3.41093e-18 -1.80452e-18 0.00308451 -0.00295105 0.00277036)
(0.00242276 -1.13401e-17 -1.67283e-18 0.0030851 -0.00319933 0.00272435)
(0.00245472 -1.34847e-17 -2.92722e-18 0.00312742 -0.00345945 0.00275528)
(0.00249558 -1.57968e-17 -3.86924e-18 0.00319162 -0.00375807 0.00277357)
(0.00252862 -1.85297e-17 -4.40124e-18 0.00321075 -0.00410706 0.00277388)
(0.00260246 -2.01377e-17 -4.98278e-18 0.00330619 -0.00454689 0.00281789)
(0.00271892 -2.20316e-17 -4.51964e-18 0.00343214 -0.0050393 0.00293808)
(0.00284355 -1.80001e-17 -5.60577e-18 0.00357948 -0.00541733 0.0031125)
(0.00302058 -1.06089e-17 -9.90769e-18 0.00380908 -0.00584109 0.00336199)
(0.00321559 -1.4744e-18 -1.6759e-17 0.00405328 -0.00628963 0.00361258)
(0.00344012 6.57197e-18 -2.37547e-17 0.00433523 -0.00679237 0.00387503)
(0.00370535 1.10653e-17 -2.85743e-17 0.00466734 -0.00736886 0.00416457)
(0.00402046 1.08117e-17 -2.9098e-17 0.00506207 -0.00799022 0.00448467)
(0.0043854 7.18053e-18 -2.70171e-17 0.00547358 -0.00865288 0.00484684)
(0.00487679 2.82576e-18 -2.52111e-17 0.00605791 -0.00943488 0.00535273)
(0.00570747 -1.41283e-17 -1.475e-17 0.00695472 -0.0107469 0.00638063)
(0.00633175 -2.7636e-17 -9.46218e-18 0.00761757 -0.0115457 0.00722752)
(0.00709384 -4.48435e-17 -1.08358e-18 0.00844567 -0.0123785 0.00825912)
(0.00794164 -6.31644e-17 6.905e-18 0.00934805 -0.0131562 0.0093306)
(0.00893396 -8.54441e-17 2.09042e-17 0.0103924 -0.0139962 0.0105353)
(0.0101122 -1.08816e-16 3.6445e-17 0.0116317 -0.0149504 0.0119232)
(0.0115369 -1.27135e-16 4.45272e-17 0.0131448 -0.016078 0.0135521)
(0.0132471 -1.35806e-16 3.9745e-17 0.0148373 -0.0173264 0.01555)
(0.0153643 -1.41907e-16 3.37483e-17 0.0169248 -0.0182689 0.0180368)
(0.0207897 -1.79928e-16 3.71045e-17 0.0223262 -0.0223788 0.025029)
(0.0236653 -1.82537e-16 2.77956e-17 0.0250344 -0.0236905 0.028991)
(0.0270231 -1.81505e-16 1.09546e-17 0.0282373 -0.0250561 0.0335282)
(0.0308763 -1.97319e-16 9.883e-18 0.0318803 -0.0264586 0.0384877)
(0.0353277 -2.36826e-16 3.23206e-17 0.0359381 -0.0275506 0.0441899)
(0.0405551 -2.94443e-16 6.86423e-17 0.0406843 -0.0286159 0.0509142)
(0.0468045 -3.66307e-16 1.11573e-16 0.0464 -0.0298503 0.0589569)
(0.0539702 -4.65425e-16 1.7162e-16 0.052384 -0.0310324 0.0683144)
(0.0625552 -6.00735e-16 2.49352e-16 0.059534 -0.0323722 0.0795792)
(0.0866959 -1.04998e-15 4.64216e-16 0.0794109 -0.0423547 0.114407)
(0.0965896 -1.15545e-15 5.2414e-16 0.0866043 -0.0433241 0.129482)
(0.108035 -1.30041e-15 6.10017e-16 0.0951656 -0.0438382 0.14687)
(0.121014 -1.45209e-15 6.91762e-16 0.104763 -0.0435898 0.166406)
(0.135355 -1.5706e-15 7.38034e-16 0.114957 -0.0420513 0.187617)
(0.150252 -1.58145e-15 6.85218e-16 0.124013 -0.0368895 0.208314)
(0.164564 -1.50256e-15 5.35779e-16 0.128226 -0.0279581 0.230046)
(0.182257 -1.36459e-15 3.72353e-16 0.134432 -0.0197279 0.25863)
(0.201573 -1.09658e-15 1.50285e-16 0.136781 -0.00867073 0.291398)
(0.227363 -9.69398e-16 -5.59817e-17 0.144693 0.00245842 0.336163)
(0.278589 -1.00837e-15 -2.36175e-16 0.164581 0.00823314 0.425751)
(0.293102 -9.68178e-16 -3.87307e-16 0.165881 0.0182058 0.457864)
(0.309195 -9.91955e-16 -5.40676e-16 0.171609 0.0290517 0.496039)
(0.32762 -1.09182e-15 -7.07766e-16 0.178749 0.038776 0.541213)
(0.345924 -1.23883e-15 -9.05775e-16 0.182411 0.0441855 0.590397)
(0.361787 -1.41882e-15 -1.11272e-15 0.181237 0.0368296 0.638057)
(0.353333 -1.42972e-15 -1.23322e-15 0.174047 0.0168871 0.637928)
(0.297594 -1.05129e-15 -1.1166e-15 0.148775 -0.00385827 0.546265)
(0.227405 -7.49149e-16 -9.62117e-16 0.120223 -0.0109467 0.425127)
(0.161507 -2.97908e-16 1.03218e-17 0.0935904 -0.0363622 0.229141)
(0.110425 -1.27293e-16 1.06187e-18 0.0690714 -0.0143861 0.137459)
(0.0559907 -3.15199e-17 3.93225e-19 0.0512381 0.00364671 0.0362879)
(0.0525347 -3.3586e-17 -3.13924e-18 0.0495739 0.00367744 0.0318006)
(0.0498773 -2.27893e-17 4.46631e-19 0.0468728 0.00434142 0.0286213)
(0.0505267 -1.61676e-17 2.0108e-18 0.0476629 0.00482523 0.0281455)
(0.049975 -1.66076e-17 1.34314e-18 0.0470795 0.00436757 0.0273795)
(0.051333 -1.15776e-17 1.44572e-18 0.0485548 0.00466951 0.0273829)
(0.0512437 -1.12986e-17 1.01009e-18 0.0487024 0.00367104 0.0269517)
(0.0522093 -9.20167e-18 1.36398e-18 0.0491771 0.00382875 0.0270369)
(0.0540736 -7.93326e-18 1.64074e-18 0.0512079 0.0042577 0.027439)
(0.0535906 -8.76989e-18 1.50829e-18 0.0507008 0.00325487 0.0268124)
(0.0548425 -8.43202e-18 1.70919e-18 0.0515867 0.00340448 0.0268764)
(0.0570531 -8.24133e-18 2.05259e-18 0.0540969 0.00391007 0.0272665)
(0.0562166 -8.92618e-18 1.85183e-18 0.0533187 0.00322525 0.0264614)
(0.0585311 -8.27352e-18 2.12509e-18 0.0561574 0.00351669 0.0266485)
(0.0577764 -8.7262e-18 1.94776e-18 0.0557518 0.00265489 0.026074)
(0.0591361 -8.44505e-18 2.16804e-18 0.0567585 0.00290446 0.0263184)
(0.0614327 -7.80112e-18 2.33278e-18 0.0592987 0.00349623 0.026938)
(0.0600148 -8.13353e-18 2.39455e-18 0.0577918 0.00274777 0.0262516)
(0.0623068 -7.52199e-18 2.39796e-18 0.0605029 0.00321389 0.0266899)
(0.0609955 -8.21046e-18 2.41226e-18 0.0594826 0.0023153 0.0260944)
(0.0621865 -7.66908e-18 2.4741e-18 0.0602522 0.00260196 0.0264023)
(0.0644899 -6.73486e-18 2.64753e-18 0.0627525 0.0032224 0.0271229)
(0.0626335 -6.65568e-18 2.42983e-18 0.0607916 0.00207201 0.0263175)
(0.0638058 -5.37893e-18 2.5088e-18 0.0614688 0.00227727 0.0265897)
(0.0662792 -4.10683e-18 2.62035e-18 0.0641032 0.00291591 0.0273416)
(0.0642267 -4.16922e-18 2.47641e-18 0.0619314 0.00212044 0.0265443)
(0.066688 -2.23125e-18 2.51664e-18 0.0647828 0.00260536 0.0270733)
(0.0648212 -1.71025e-18 2.42249e-18 0.0632562 0.00173249 0.0263151)
(0.0660725 -5.6274e-19 2.44896e-18 0.064123 0.00200593 0.0266431)
(0.0686909 2.48834e-19 2.5342e-18 0.0669387 0.00267941 0.0274706)
(0.0664431 2.6856e-19 2.40109e-18 0.0645621 0.00190099 0.0266525)
(0.0689712 3.68606e-19 2.52399e-18 0.0674921 0.00246302 0.0272445)
(0.0668423 3.6287e-19 2.03869e-18 0.0656917 0.00161767 0.0264369)
(0.0679112 2.64419e-19 2.07225e-18 0.0663885 0.00190987 0.026742)
(0.0704351 -1.87789e-19 2.26362e-18 0.0691116 0.00258394 0.0275789)
(0.0678114 -1.87477e-19 1.72498e-18 0.0663758 0.00144234 0.0266168)
(0.0686614 -5.44965e-19 1.79889e-18 0.0667605 0.00159963 0.0268304)