/*--------------------------------*- C++ -*----------------------------------*\
| =========                 |                                                 |
| \\      /  F ield         | OpenFOAM: The Open Source CFD Toolbox           |
|  \\    /   O peration     | Version:  4.1                                   |
|   \\  /    A nd           | Web:      www.OpenFOAM.org                      |
|    \\/     M anipulation  |                                                 |
\*---------------------------------------------------------------------------*/
FoamFile
{
    version     2.0;
    format      ascii;
    class       volVectorField;
    location    "1";
    object      U;
}
// * * * * * * * * * * * * * * * * * * * * * * * * * * * * * * * * * * * * * //

dimensions      [0 1 -1 0 0 0 0];

internalField   nonuniform List<vector> 
6785
(
(1.11933e-14 -0.841964 16.1788)
(8.52151e-15 -6.75444 12.5375)
(-2.6564e-15 -4.82234 12.9509)
(3.14546e-15 -4.34423 12.6996)
(9.4973e-16 -3.72195 12.5335)
(1.25359e-16 -3.25304 12.3081)
(2.32479e-15 -2.86448 12.0548)
(5.44429e-16 -2.57394 11.7626)
(4.81823e-16 -2.38363 11.4369)
(1.11197e-15 -2.27419 11.1141)
(1.68146e-16 -2.24242 10.8532)
(1.12384e-16 -2.49871 10.5556)
(-7.23861e-16 -3.09973 9.97315)
(-1.36753e-15 -2.47859 9.30077)
(6.51668e-16 0.838555 7.4556)
(1.84486e-14 -7.87284 26.2628)
(1.40824e-14 -16.59 22.0951)
(-2.51584e-15 -11.5898 22.5399)
(5.01991e-15 -11.8946 21.0968)
(1.27678e-15 -10.8305 20.1445)
(4.28735e-16 -10.0805 19.1083)
(1.36396e-15 -9.30122 18.0861)
(-7.79357e-18 -8.55263 17.0701)
(-6.21928e-16 -7.84007 16.0702)
(-1.02485e-16 -7.1451 15.1174)
(-3.88502e-16 -6.40088 14.1211)
(1.23736e-15 -5.61048 12.5395)
(5.30646e-15 -4.7204 9.66114)
(8.18982e-15 -3.34019 5.96668)
(3.79959e-15 -1.51817 2.76053)
(2.39722e-14 -10.8565 28.4304)
(1.28874e-14 -17.6272 24.5954)
(-2.73371e-15 -12.0463 25.1529)
(5.92408e-15 -12.9583 22.974)
(-1.03479e-15 -11.3451 21.8829)
(-1.92622e-15 -10.5991 20.4562)
(1.17154e-15 -9.68828 19.1409)
(-3.97929e-15 -8.90024 17.8463)
(-3.71047e-15 -8.1762 16.6651)
(-1.51019e-15 -7.4963 15.5444)
(-4.51415e-15 -6.50905 13.7961)
(5.31618e-15 -4.22304 9.49115)
(2.85464e-14 0.189886 1.47834)
(3.13592e-14 3.36811 -4.59646)
(1.86156e-14 1.36869 -3.03624)
(1.29288e-14 -11.8167 27.6256)
(1.02586e-14 -17.8964 24.726)
(-5.9871e-15 -12.0164 24.8517)
(-2.52488e-15 -13.8676 22.0452)
(-5.10747e-15 -11.6935 21.1437)
(-8.64636e-15 -11.3482 19.354)
(-7.06147e-15 -10.404 17.9416)
(-8.23698e-15 -9.70336 16.47)
(-1.23796e-14 -9.03416 15.1134)
(-9.12376e-15 -8.44626 13.8502)
(-7.77457e-15 -7.73146 12.3699)
(-8.25077e-15 -6.30674 9.61542)
(2.63699e-15 -3.61127 4.82649)
(1.68295e-14 -0.761373 1.08957)
(2.89939e-14 0.945746 -4.60563)
(7.47565e-15 -11.6822 25.6583)
(4.01558e-15 -18.0579 25.6558)
(-9.34742e-15 -12.5346 24.7072)
(-8.29714e-15 -13.9985 21.6708)
(-1.07463e-14 -11.8859 20.7186)
(-1.46795e-14 -11.4878 18.8316)
(-1.30037e-14 -10.536 17.296)
(-9.84281e-15 -9.70085 15.7269)
(-1.10322e-14 -8.89199 14.2041)
(-7.52385e-15 -8.13092 12.7353)
(-2.38102e-15 -7.36233 11.2492)
(-1.09755e-15 -6.35091 9.4133)
(3.25719e-15 -4.78485 6.6622)
(1.3373e-14 -2.59208 3.62046)
(3.57333e-14 -0.730872 -1.88802)
(1.42764e-14 -11.1483 23.4149)
(1.14048e-15 -17.6431 26.0396)
(-1.52828e-14 -13.0979 24.6787)
(-6.27134e-15 -13.6564 21.5913)
(-4.09632e-15 -11.8623 20.3795)
(-9.10319e-15 -11.2786 18.569)
(-5.04584e-15 -10.3747 17.0176)
(2.07242e-15 -9.48648 15.4919)
(4.63492e-15 -8.63451 13.9757)
(8.5209e-15 -7.79499 12.4793)
(1.4325e-14 -6.97457 10.9829)
(1.67322e-14 -6.0468 9.44644)
(1.94833e-14 -4.95647 7.54748)
(2.37211e-14 -3.41835 4.99615)
(2.91319e-14 -1.3328 -1.2863)
(3.17839e-14 -10.829 21.8653)
(1.90375e-14 -16.6215 25.3029)
(-4.8426e-15 -13.2938 24.204)
(5.87806e-15 -13.2341 21.2787)
(1.77137e-14 -11.7942 19.7743)
(1.90124e-14 -11.1279 18.1109)
(2.32911e-14 -10.3608 16.6717)
(2.9875e-14 -9.58387 15.312)
(3.04572e-14 -8.84029 13.9692)
(2.94443e-14 -8.0841 12.6405)
(3.34319e-14 -7.33644 11.3002)
(3.62605e-14 -6.47756 9.97126)
(3.48996e-14 -5.56921 8.51315)
(4.04854e-14 -4.43579 6.58132)
(4.83915e-14 -2.342 1.31482)
(4.1012e-14 -11.0194 21.3581)
(5.46046e-14 -15.2519 23.7682)
(1.96871e-14 -12.8733 23.1202)
(1.88524e-14 -12.6902 20.4861)
(3.37279e-14 -11.4792 18.9386)
(4.26213e-14 -10.8679 17.4552)
(4.61488e-14 -10.223 16.21)
(4.49525e-14 -9.58998 15.0645)
(3.1829e-14 -8.98447 13.9559)
(2.20883e-14 -8.36087 12.8676)
(2.55061e-14 -7.73847 11.7753)
(2.4321e-14 -6.99388 10.6886)
(2.24281e-14 -6.21258 9.54622)
(2.68676e-14 -5.33261 8.09114)
(5.03993e-14 -3.27147 3.57745)
(1.49103e-14 -11.5956 21.7161)
(7.07927e-14 -14.0258 22.2151)
(2.42724e-14 -11.9138 21.6619)
(1.10313e-14 -12.0302 19.3036)
(1.74587e-14 -10.8645 18.0693)
(2.2432e-14 -10.462 16.7633)
(3.03074e-14 -9.87914 15.7521)
(1.77071e-14 -9.38016 14.812)
(-2.06847e-14 -8.89549 13.9296)
(-3.20827e-14 -8.40875 13.0689)
(-2.58822e-14 -7.91789 12.2289)
(-3.98531e-14 -7.32024 11.3914)
(-3.29185e-14 -6.71149 10.5615)
(-2.72372e-14 -6.06396 9.45659)
(1.02593e-14 -4.15428 5.74768)
(-3.45093e-14 -12.1624 22.3691)
(3.40861e-14 -13.5253 21.5689)
(-1.03411e-14 -10.7638 20.1705)
(-3.15749e-14 -11.3505 17.979)
(-4.4577e-14 -10.0482 17.2764)
(-4.83893e-14 -10.0058 16.0663)
(-2.7859e-14 -9.40742 15.3206)
(-5.32311e-14 -9.05622 14.5487)
(-1.15601e-13 -8.66514 13.8681)
(-1.16609e-13 -8.31547 13.1913)
(-1.10832e-13 -7.9312 12.5719)
(-1.40979e-13 -7.48435 11.94)
(-1.1668e-13 -7.04864 11.4035)
(-1.13286e-13 -6.59198 10.4959)
(-6.11007e-14 -4.94927 7.64008)
(-6.95185e-14 -12.3141 22.4811)
(-3.19527e-14 -13.9708 22.2966)
(-6.1607e-14 -10.0101 19.232)
(-9.14825e-14 -10.6867 16.7899)
(-1.31577e-13 -9.2034 16.5339)
(-1.3628e-13 -9.53291 15.354)
(-9.89527e-14 -8.89923 14.8874)
(-1.36583e-13 -8.708 14.2575)
(-2.07718e-13 -8.38235 13.7621)
(-1.92604e-13 -8.17543 13.2242)
(-1.98008e-13 -7.85299 12.7977)
(-2.3468e-13 -7.56077 12.3076)
(-1.9409e-13 -7.25099 12.0443)
(-2.10435e-13 -6.92579 11.158)
(-1.31323e-13 -5.63388 9.18904)
(-6.08196e-14 -12.092 21.9288)
(-6.63286e-14 -14.6723 23.4624)
(-8.43229e-14 -10.0343 19.2068)
(-1.10368e-13 -10.1674 16.0261)
(-1.81056e-13 -8.56752 15.7362)
(-1.88092e-13 -9.01992 14.6283)
(-1.34517e-13 -8.46622 14.3654)
(-1.77552e-13 -8.39197 13.887)
(-2.42648e-13 -8.11625 13.5593)
(-2.1525e-13 -8.04961 13.1228)
(-2.39836e-13 -7.74079 12.8706)
(-2.68527e-13 -7.60088 12.4597)
(-2.19164e-13 -7.34804 12.4435)
(-2.81428e-13 -7.05276 11.3817)
(-1.6682e-13 -6.21218 10.4398)
(-9.97533e-15 -11.7413 21.1521)
(-4.4018e-14 -14.9908 24.1656)
(-5.07755e-14 -10.7857 19.9347)
(-5.83431e-14 -9.99867 15.9928)
(-1.44765e-13 -8.35554 15.0779)
(-1.6767e-13 -8.58462 14.1046)
(-1.11312e-13 -8.2181 13.9594)
(-1.50995e-13 -8.20668 13.6728)
(-2.02217e-13 -7.97182 13.5151)
(-1.70392e-13 -8.04594 13.167)
(-2.19524e-13 -7.69295 13.0977)
(-2.26972e-13 -7.76554 12.7261)
(-1.8138e-13 -7.4546 12.9713)
(-2.9466e-13 -7.32193 11.7345)
(-1.56332e-13 -6.77154 11.7644)
(5.44701e-14 -11.4595 20.2097)
(-3.6833e-15 -14.5447 23.5661)
(9.52365e-15 -10.9811 19.8696)
(2.48083e-14 -9.81961 15.9293)
(-7.05764e-14 -8.2188 14.5675)
(-9.20046e-14 -8.24533 13.6387)
(-3.32718e-14 -8.00676 13.4762)
(-7.76969e-14 -8.04272 13.2508)
(-1.03543e-13 -7.80818 13.1653)
(-6.8048e-14 -7.97978 12.8219)
(-1.4224e-13 -7.58041 12.8794)
(-1.25713e-13 -7.76011 12.4642)
(-8.26042e-14 -7.42985 12.9465)
(-2.06568e-13 -7.03313 11.0458)
(-1.18318e-13 -7.09833 12.3099)
(8.31563e-14 -10.2768 18.1651)
(9.97121e-14 -16.1578 24.6671)
(1.26053e-13 -13.7289 21.4342)
(1.41397e-13 -11.6113 16.968)
(8.06918e-14 -9.90185 14.391)
(3.47793e-14 -9.30037 13.3552)
(4.50079e-14 -9.13445 13.263)
(3.36342e-15 -9.19459 13.4431)
(-2.53951e-14 -8.98305 13.7958)
(-4.3641e-16 -9.30701 13.7333)
(-4.50712e-14 -8.7155 14.1385)
(-1.94671e-14 -9.25863 13.9181)
(5.83675e-15 -8.54766 14.7809)
(-1.21443e-13 -8.59177 12.7894)
(-6.1266e-14 -8.43555 15.675)
(3.26694e-18 -0.00139695 0.00279363)
(3.65944e-17 0.0174462 0.0383805)
(1.14909e-17 0.0377583 0.00719335)
(1.00148e-17 0.0368774 0.0027561)
(1.77302e-17 0.033117 0.00699568)
(7.24031e-17 0.0522901 0.0576808)
(1.07061e-17 0.0541974 0.0122909)
(-4.65744e-17 0.0572649 0.00484321)
(-3.02921e-16 0.0522363 0.00913314)
(9.90093e-15 0.0626345 0.0679961)
(1.86655e-15 0.0536697 0.0136177)
(5.11858e-16 0.0599429 0.0101885)
(1.38507e-16 0.0485367 0.0704326)
(1.71769e-17 0.0388257 0.00885668)
(-3.09124e-19 0.0420052 0.00268733)
(-1.10484e-17 0.0412432 0.00855907)
(-3.41241e-17 0.0393995 0.0739152)
(8.83977e-17 0.00468589 0.00958215)
(1.54077e-17 0.0188567 0.0104785)
(-4.03908e-17 -0.0105765 0.0807296)
(-1.07836e-17 -0.02601 0.00764855)
(2.55671e-19 -0.0306422 0.00359869)
(7.39011e-17 -0.0214752 0.0131214)
(-3.66665e-17 -0.0455653 0.0981154)
(-3.14239e-17 -0.0704549 0.00877752)
(-2.13204e-16 -0.0785953 0.00448104)
(-2.5023e-15 -0.0641147 0.0198345)
(-6.64838e-17 -0.0772245 0.117547)
(-5.1995e-17 -0.135943 0.0179819)
(-2.59437e-18 -0.113339 0.0350045)
(-2.82545e-17 -0.144797 0.127159)
(-8.74063e-17 -0.174748 0.0118827)
(-3.61645e-17 -0.193259 0.0165004)
(-8.16794e-17 -0.165126 0.0538144)
(9.04197e-18 -0.173934 0.140662)
(3.15581e-18 -0.260591 0.0345758)
(1.43722e-18 -0.226269 0.0747938)
(1.25318e-17 -0.240387 0.108632)
(2.10769e-17 -0.294788 0.0116703)
(3.54492e-17 -0.319246 0.0473479)
(4.24953e-17 -0.27858 0.0956166)
(-1.84073e-17 -0.300871 0.0627634)
(-7.75391e-18 -0.347533 0.0184456)
(-1.70031e-17 -0.378899 0.0867056)
(-3.16553e-17 -0.329075 0.139314)
(-3.67235e-17 -0.290579 0.0646588)
(-6.66777e-19 -0.450728 0.0829253)
(3.72893e-17 -0.376858 0.105855)
(1.23971e-16 -0.340762 -0.0659126)
(1.66449e-16 -0.411187 0.0791843)
(3.06293e-16 -0.461033 0.162432)
(5.56571e-16 -0.396546 0.101909)
(9.75673e-16 -0.341706 -0.0891745)
(5.57987e-16 -0.403226 0.213001)
(2.87153e-16 -0.482044 0.294982)
(1.78216e-17 -0.390013 0.153296)
(7.16197e-16 -0.235268 -0.12756)
(8.32336e-16 -0.507717 0.189496)
(8.20049e-16 -0.396715 0.0996953)
(4.21415e-16 -0.342216 -0.0310636)
(-5.65748e-16 -0.405554 0.414487)
(-1.44966e-15 -0.543957 0.33944)
(-2.13956e-15 -0.414913 0.000203584)
(-2.346e-15 -0.34753 -0.266243)
(-1.70376e-15 -0.657169 0.196791)
(-2.04573e-15 -0.564383 0.0293789)
(-1.94998e-15 -0.75481 0.159879)
(-4.86221e-16 -0.803859 0.689826)
(1.32102e-15 -0.988898 0.68358)
(5.2866e-15 -0.905375 0.652989)
(1.48619e-14 -1.37099 1.72181)
(1.5247e-14 -1.50395 2.24332)
(1.88531e-14 -1.7965 2.70139)
(1.80013e-14 -1.79677 3.31956)
(5.00475e-15 -2.78485 6.41471)
(-1.94798e-14 -3.11136 6.27572)
(-4.50055e-14 -3.35807 7.251)
(-1.07249e-13 -4.82739 11.4965)
(-9.75569e-14 -5.03775 10.0179)
(-1.05152e-13 -5.31212 11.7154)
(-1.14086e-13 -6.18282 15.6197)
(-1.02716e-13 -5.83639 15.2209)
(-9.735e-14 -5.96584 15.3338)
(-9.63822e-14 -5.19458 14.0845)
(-9.08111e-14 -5.61085 14.3599)
(-9.93619e-14 -5.52645 13.5857)
(-1.02543e-13 -5.57421 13.497)
(-1.05172e-13 -5.56517 13.5368)
(-1.05954e-13 -5.56743 13.5924)
(-1.04718e-13 -5.55675 13.7616)
(-1.00633e-13 -5.5474 14.0558)
(-1.00291e-13 -5.57047 14.2969)
(-1.5525e-13 -5.0861 13.7083)
(-1.52679e-13 -5.46276 13.8046)
(-1.6747e-13 -5.39589 13.5371)
(-1.62533e-13 -5.37217 13.3823)
(-1.50424e-13 -5.42072 13.2691)
(-1.32263e-13 -5.36322 13.547)
(-1.07372e-13 -5.37105 13.8249)
(-8.42875e-14 -5.30916 14.1192)
(-7.12531e-14 -5.38361 14.2747)
(-7.774e-14 -4.83633 14.3792)
(-8.35233e-14 -5.39725 14.3053)
(-9.32451e-14 -5.32634 14.2453)
(-1.0072e-13 -5.36759 14.2288)
(-1.05149e-13 -5.34165 14.2283)
(-1.05609e-13 -5.34621 14.2225)
(-1.02455e-13 -5.37647 14.273)
(-1.04178e-13 -5.33244 14.414)
(-1.07489e-13 -5.29956 14.516)
(-1.0717e-13 -5.38701 14.5526)
(-1.23824e-13 -4.92653 14.6368)
(-9.48521e-14 -5.4787 14.4341)
(-6.80195e-14 -5.43161 14.4131)
(-4.48554e-14 -5.45706 14.5032)
(-3.31856e-14 -5.46213 14.6136)
(-3.36856e-14 -5.47755 14.7288)
(-4.28317e-14 -5.4675 14.8076)
(-5.54995e-14 -5.41864 14.8754)
(-6.6566e-14 -5.54505 14.8905)
(-1.29139e-13 -5.19659 15.1633)
(-1.35379e-13 -5.73199 14.7586)
(-1.56167e-13 -5.72783 14.7048)
(-1.64886e-13 -5.74679 14.7627)
(-1.79879e-13 -5.76866 14.8477)
(-1.86414e-13 -5.80149 14.9332)
(-1.77387e-13 -5.78501 15.0206)
(-1.58209e-13 -5.7346 15.0635)
(-1.40064e-13 -5.90854 15.0602)
(-1.73293e-13 -5.62917 15.5591)
(-1.39281e-13 -6.16358 14.9823)
(-1.25928e-13 -6.20114 14.9637)
(-1.32663e-13 -6.19616 15.0619)
(-1.46375e-13 -6.24153 15.2087)
(-1.62937e-13 -6.26426 15.3139)
(-1.78229e-13 -6.24314 15.4056)
(-1.98028e-13 -6.20303 15.5097)
(-2.20051e-13 -6.34921 15.6267)
(-3.26421e-13 -5.81313 16.2727)
(-2.722e-13 -6.49232 15.8659)
(-2.77909e-13 -6.47721 15.9355)
(-2.73738e-13 -6.46861 16.1178)
(-2.59972e-13 -6.45315 16.4201)
(-2.34471e-13 -6.37471 16.9107)
(-2.0302e-13 -6.51953 17.955)
(-1.77833e-13 -6.37178 18.1241)
(-1.48536e-13 -6.3844 18.5511)
(-1.29908e-13 -6.44615 18.8216)
(-1.56746e-13 -4.46013 17.6743)
(-1.16522e-13 -5.70204 17.5037)
(-1.11336e-13 -5.51766 17.356)
(-1.10214e-13 -5.4323 16.9089)
(-1.0573e-13 -5.32466 16.2101)
(-9.83867e-14 -5.27989 14.8972)
(-7.94433e-14 -5.17355 12.5005)
(-4.82468e-14 -4.80472 9.32701)
(-1.53298e-14 -4.5905 6.71592)
(9.08287e-15 -2.52067 -0.682997)
(1.78311e-14 -3.17572 3.0411)
(2.20787e-14 -3.1188 2.19175)
(-1.60267e-14 -1.43442 -0.766569)
(-7.27059e-15 -4.38302 0.494526)
(-2.20966e-16 -2.99296 -0.437381)
(-2.30506e-15 -2.92264 0.0594552)
(-1.46418e-15 -3.88378 -0.000402175)
(-5.67412e-16 -2.64677 0.0803505)
(-5.81206e-16 -3.68658 0.0561395)
(-4.23219e-16 -3.42298 -0.0449325)
(-5.93443e-16 -2.72985 0.0205158)
(-9.72473e-16 -3.50627 -0.0672535)
(-9.58253e-16 -3.20103 -0.138141)
(-7.02458e-16 -2.75143 -0.0322626)
(-7.15305e-16 -3.7073 -0.0821504)
(-2.99866e-16 -2.49392 -0.0314587)
(-2.81838e-16 -3.38434 -0.101848)
(-1.10252e-16 -2.95003 -0.138728)
(-2.37691e-17 -2.5641 -0.0599567)
(-1.91099e-16 -3.41424 -0.109678)
(-4.64426e-16 -2.29644 -0.0506188)
(-7.50478e-16 -3.14609 -0.106655)
(-5.74993e-16 -2.78631 -0.139542)
(-2.86469e-16 -2.24495 -0.0964401)
(-3.2643e-16 -2.84706 -0.18107)
(-5.48138e-16 -2.5309 -0.176579)
(-5.4248e-16 -2.17073 -0.112217)
(-4.79254e-16 -2.88025 -0.186654)
(-2.27474e-16 -1.93629 -0.12127)
(-4.63068e-16 -2.60161 -0.199409)
(-7.41869e-16 -2.23128 -0.167944)
(-7.9628e-16 -1.93522 -0.107977)
(-1.07788e-15 -2.55092 -0.166156)
(-6.93693e-16 -1.71748 -0.0959597)
(-8.1232e-16 -2.32828 -0.154662)
(-3.99819e-16 -2.03654 -0.128521)
(-3.08606e-16 -1.65265 -0.0984095)
(4.2337e-17 -2.08278 -0.180557)
(4.10138e-16 -1.83656 -0.143244)
(8.79792e-17 -1.578 -0.0907916)
(-1.6159e-16 -2.0858 -0.152412)
(-5.42507e-16 -1.40735 -0.0969383)
(-1.15364e-15 -1.88325 -0.168183)
(-1.11643e-15 -1.61241 -0.127762)
(-5.01692e-16 -1.40008 -0.0772601)
(-5.46281e-16 -1.84595 -0.119478)
(-1.84477e-16 -1.2484 -0.0620845)
(1.5649e-16 -1.68675 -0.10573)
(3.85308e-16 -1.48245 -0.0742045)
(5.25022e-17 -1.20834 -0.0499686)
(-4.48717e-16 -1.52308 -0.111043)
(-1.59173e-15 -1.34875 -0.0879766)
(-2.07693e-15 -1.16064 -0.0486186)
(-2.99611e-15 -1.54027 -0.0881249)
(-1.61974e-15 -1.04514 -0.0504996)
(-1.37766e-15 -1.39619 -0.0976224)
(-3.56087e-16 -1.20778 -0.0757156)
(-8.10569e-17 -1.04894 -0.039559)
(2.94574e-16 -1.39111 -0.0629845)
(4.90919e-16 -0.946063 -0.0245099)
(1.27902e-15 -1.27485 -0.0433412)
(2.1902e-15 -1.13737 -0.0266802)
(1.96536e-15 -0.92869 -0.0098961)
(2.03154e-15 -1.17031 -0.0405431)
(-5.02576e-17 -1.04968 -0.0366475)
(-6.41453e-16 -0.903052 -0.0127997)
(-1.21145e-15 -1.20673 -0.0286782)
(-7.50976e-16 -0.825106 -0.0105841)
(-2.41052e-16 -1.09899 -0.0265779)
(7.50132e-16 -0.966937 -0.0255179)
(1.04634e-15 -0.839256 -0.00651078)
(2.2476e-15 -1.12225 -0.0101114)
(2.39355e-15 -0.769125 0.00715676)
(3.25752e-15 -1.03175 0.017733)
(1.85078e-15 -0.942181 0.0181749)
(1.2039e-15 -0.771894 0.0256934)
(1.81768e-15 -0.972588 0.0357693)
(1.39503e-15 -0.903138 0.030265)
(9.4659e-16 -0.77746 0.034306)
(7.79186e-16 -1.06669 0.0548737)
(5.2036e-16 -0.758456 0.043306)
(1.06762e-15 -0.958689 0.0849312)
(-5.08013e-70 0.0520802 0.0226212)
(-4.93943e-69 0.114127 0.0262295)
(-3.29126e-68 0.163961 0.0281006)
(-1.85345e-67 0.20866 0.0296654)
(-9.53631e-67 0.252579 0.0305857)
(-4.38278e-66 0.29279 0.0312163)
(-1.8707e-65 0.330896 0.0311574)
(-7.58061e-65 0.367956 0.0325763)
(-3.0082e-64 0.403454 0.0325895)
(-1.15677e-63 0.433715 0.0331055)
(-4.10127e-63 0.461161 0.0304391)
(-1.27687e-62 0.487042 0.0263524)
(-3.77001e-62 0.508612 0.0256173)
(-1.08637e-61 0.522246 0.0247)
(-2.87258e-61 0.528883 0.0197325)
(-6.66693e-61 0.530685 0.0140049)
(-1.26557e-60 0.511584 0.00689679)
(-2.54043e-60 0.485692 -0.000701085)
(-4.5891e-60 0.450986 -0.00478757)
(-7.1106e-60 0.404888 -0.0102486)
(-1.70052e-59 0.337647 -0.0150049)
(-7.13634e-58 0.250208 -0.0162983)
(-2.53588e-56 0.137721 -0.0155834)
(-4.70981e-55 -0.0336637 -0.0124882)
(-4.62937e-54 -0.235909 -0.0551182)
(-7.00528e-56 -0.216379 -0.0319672)
(-1.16394e-57 -0.301613 -0.0415008)
(-2.50302e-60 -0.529369 -0.0432595)
(-3.0039e-59 -0.710594 -0.0291606)
(-7.175e-59 -0.885377 -0.0171839)
(-1.47201e-58 -1.05381 -0.00863499)
(6.95271e-60 -1.18834 0.00118036)
(4.51106e-57 -1.24027 0.0104796)
(6.94724e-56 -1.25443 0.0177776)
(8.48454e-55 -1.20535 0.023721)
(6.15509e-54 -1.0793 0.0292352)
(-2.67927e-53 -0.93387 0.033941)
(4.65448e-51 -0.771446 0.0379826)
(1.21882e-49 -0.585588 0.0388544)
(-3.80141e-48 -0.386572 0.044517)
(-1.46821e-46 -0.407021 0.0703061)
(1.24848e-44 -0.269051 0.0840212)
(1.11782e-42 0.11282 0.138624)
(4.86913e-42 0.308354 0.0844429)
(2.13259e-41 0.68036 0.0373964)
(9.53324e-41 0.80611 0.0687285)
(4.51714e-40 0.725643 0.0986285)
(2.45313e-39 0.711009 0.0928568)
(1.49077e-38 0.733596 0.0948093)
(9.1298e-38 0.760784 0.0957263)
(5.28516e-37 0.78747 0.0967174)
(2.86768e-36 0.811527 0.0988606)
(1.45684e-35 0.834767 0.102668)
(6.6995e-35 0.858818 0.106523)
(2.68043e-34 0.879794 0.11057)
(9.78129e-34 0.898874 0.113728)
(3.68713e-33 0.921627 0.119233)
(1.69148e-32 0.946651 0.126414)
(1.00715e-31 0.968563 0.131194)
(6.97004e-31 0.994022 0.137798)
(4.72048e-30 1.01837 0.142836)
(2.87264e-29 1.04256 0.147292)
(1.5094e-28 1.06553 0.150814)
(6.66085e-28 1.08647 0.152729)
(2.38057e-27 1.10378 0.152431)
(6.44662e-27 1.11548 0.149074)
(1.19621e-26 1.11889 0.141992)
(-5.44828e-27 1.11089 0.130325)
(-2.48038e-25 1.08721 0.113015)
(-5.97316e-25 1.04305 0.0893754)
(5.47701e-24 0.972087 0.0591519)
(3.69317e-23 0.866803 0.022683)
(1.82507e-23 0.718098 -0.0180901)
(-8.85718e-22 0.504863 -0.059244)
(-3.61567e-21 0.15514 -0.0907472)
(2.55029e-20 -0.33717 -0.182031)
(-2.52859e-19 -0.5265 0.0675029)
(6.43366e-18 -1.1871 -0.107125)
(8.19233e-17 -0.838487 0.0705448)
(-1.13166e-69 0.0496576 0.0353081)
(-1.18089e-68 0.111287 0.0399426)
(-7.95316e-68 0.161588 0.0421215)
(-4.49546e-67 0.206608 0.0438461)
(-2.3245e-66 0.250945 0.0447498)
(-1.07019e-65 0.291517 0.045518)
(-4.56653e-65 0.329644 0.0448369)
(-1.84932e-64 0.366947 0.0464322)
(-7.33718e-64 0.402732 0.0463243)
(-2.82355e-63 0.433634 0.0464355)
(-1.00398e-62 0.461979 0.0429647)
(-3.12701e-62 0.487682 0.0370854)
(-9.22805e-62 0.508891 0.035275)
(-2.65894e-61 0.523246 0.0329953)
(-7.04054e-61 0.531075 0.0251159)
(-1.63579e-60 0.533384 0.0163769)
(-3.10871e-60 0.51489 0.00739115)
(-6.23912e-60 0.488795 -0.00457538)
(-1.12369e-59 0.45425 -0.0127791)
(-1.72762e-59 0.409054 -0.0217302)
(-3.782e-59 0.34243 -0.0296607)
(-1.63024e-57 0.256751 -0.0329482)
(-6.06916e-56 0.148349 -0.0321793)
(-1.16204e-54 -0.00414859 -0.0283837)
(-1.2574e-53 -0.154963 -0.078773)
(-4.66693e-55 -0.281667 -0.0780964)
(-1.90845e-56 -0.36652 -0.0882277)
(-1.25937e-58 -0.586988 -0.0853273)
(-1.03453e-59 -0.78897 -0.0662314)
(-6.85723e-59 -0.963282 -0.0401358)
(-1.43535e-58 -1.13001 -0.0220139)
(7.41553e-60 -1.25946 -0.00334163)
(4.84792e-57 -1.30625 0.0124765)
(8.19863e-56 -1.31374 0.0250282)
(-1.00932e-54 -1.25823 0.0351649)
(-9.52628e-53 -1.12623 0.0440933)
(-2.0416e-51 -0.974687 0.0508409)
(1.29629e-49 -0.806407 0.0566275)
(3.25331e-48 -0.614678 0.0558504)
(-5.55471e-48 -0.419175 0.0682104)
(-4.37396e-46 -0.408906 0.0918856)
(6.88527e-44 -0.263901 0.11237)
(2.35587e-42 0.0996906 0.206499)
(1.12869e-41 0.320917 0.129377)
(4.9281e-41 0.68049 0.0787748)
(2.17715e-40 0.798525 0.0983317)
(1.02158e-39 0.721858 0.12038)
(5.54609e-39 0.711124 0.114181)
(3.39048e-38 0.732525 0.115757)
(2.09551e-37 0.759795 0.115325)
(1.22455e-36 0.78635 0.115478)
(6.6929e-36 0.809901 0.117063)
(3.42478e-35 0.832913 0.120756)
(1.58894e-34 0.856976 0.124929)
(6.40772e-34 0.878055 0.129074)
(2.34879e-33 0.896901 0.132451)
(8.84205e-33 0.919044 0.137776)
(4.03343e-32 0.944262 0.146099)
(2.38841e-31 0.966303 0.151306)
(1.65344e-30 0.991776 0.158374)
(1.12406e-29 1.01651 0.163895)
(6.88379e-29 1.04099 0.168313)
(3.65208e-28 1.06442 0.171451)
(1.63029e-27 1.08601 0.172466)
(5.83634e-27 1.10422 0.170554)
(1.522e-26 1.11705 0.164728)
(2.6405e-26 1.12184 0.154129)
(9.3639e-27 1.11554 0.137772)
(-3.84484e-25 1.09384 0.114406)
(-1.43185e-24 1.05183 0.0832837)
(6.51217e-24 0.983039 0.0443466)
(6.74419e-23 0.879596 -0.00165682)
(1.39849e-22 0.732002 -0.0519546)
(-1.32491e-21 0.518873 -0.101754)
(-1.0223e-20 0.177335 -0.136533)
(2.87463e-20 -0.382549 -0.260403)
(-2.97196e-19 -0.64541 0.0410886)
(6.61351e-18 -1.22907 -0.120267)
(7.69247e-17 -0.949401 0.0267872)
(-3.51956e-69 0.0513365 0.0513582)
(-3.39697e-68 0.113292 0.0534999)
(-2.19666e-67 0.163611 0.054791)
(-1.21368e-66 0.208607 0.0557745)
(-6.16831e-66 0.252776 0.0562253)
(-2.80065e-65 0.29331 0.0568913)
(-1.17817e-64 0.33104 0.055306)
(-4.72272e-64 0.368083 0.0563389)
(-1.85724e-63 0.40382 0.0561112)
(-7.09384e-63 0.434884 0.0557036)
(-2.51799e-62 0.463628 0.0518776)
(-7.82526e-62 0.489082 0.0446747)
(-2.30256e-61 0.50992 0.0418425)
(-6.60981e-61 0.52464 0.0375476)
(-1.75245e-60 0.533053 0.027748)
(-4.07809e-60 0.53523 0.016973)
(-7.82728e-60 0.517025 0.00689029)
(-1.57254e-59 0.490662 -0.00806598)
(-2.82126e-59 0.455484 -0.0200472)
(-4.29195e-59 0.409805 -0.0318691)
(-9.15364e-59 0.341834 -0.0427346)
(-4.37138e-57 0.254237 -0.0483815)
(-1.7844e-55 0.141259 -0.0483475)
(-3.91634e-54 -0.0161777 -0.042594)
(-5.14897e-53 -0.163576 -0.0976494)
(-2.78589e-54 -0.257857 -0.114859)
(-1.93503e-55 -0.337759 -0.142742)
(-4.79781e-57 -0.565951 -0.142638)
(9.36657e-59 -0.770166 -0.123625)
(-5.53649e-59 -0.944205 -0.0802946)
(-1.32386e-58 -1.11283 -0.0483957)
(3.63926e-60 -1.24515 -0.0158251)
(6.46926e-57 -1.29414 0.0108578)
(-1.90242e-55 -1.30436 0.0324333)
(-2.51629e-53 -1.2518 0.0497077)
(-5.83997e-52 -1.12184 0.0653438)
(5.39329e-51 -0.972727 0.0769999)
(1.04381e-48 -0.806506 0.0861706)
(1.36359e-47 -0.616571 0.0835404)
(-2.13652e-46 -0.430331 0.0976435)
(-1.59029e-45 -0.412805 0.138924)
(2.19267e-43 -0.262677 0.173417)
(5.39845e-42 0.136877 0.237882)
(2.44887e-41 0.345798 0.157648)
(1.04587e-40 0.68817 0.103194)
(4.52979e-40 0.794636 0.113097)
(2.10881e-39 0.72111 0.135435)
(1.15445e-38 0.711621 0.12806)
(7.16276e-38 0.73299 0.129057)
(4.50203e-37 0.760275 0.127106)
(2.67551e-36 0.786712 0.126722)
(1.48281e-35 0.809948 0.127774)
(7.67758e-35 0.832701 0.131169)
(3.6036e-34 0.856681 0.135372)
(1.47161e-33 0.877836 0.139549)
(5.45443e-33 0.896649 0.14319)
(2.06063e-32 0.918342 0.147942)
(9.38796e-32 0.943446 0.156833)
(5.55767e-31 0.965643 0.162509)
(3.85138e-30 0.991041 0.169541)
(2.6273e-29 1.01598 0.175317)
(1.61696e-28 1.04068 0.179626)
(8.64295e-28 1.0644 0.182429)
(3.89937e-27 1.08647 0.182818)
(1.40168e-26 1.1053 0.179817)
(3.53295e-26 1.11891 0.172435)
(5.43758e-26 1.12466 0.159649)
(4.36411e-26 1.11951 0.140428)
(-4.69927e-25 1.09913 0.11341)
(-2.31499e-24 1.05849 0.0778343)
(5.84138e-24 0.990968 0.0336998)
(9.3028e-23 0.888382 -0.0178798)
(3.01507e-22 0.740815 -0.073807)
(-1.37732e-21 0.526201 -0.128978)
(-1.74062e-20 0.187104 -0.164146)
(1.07119e-20 -0.390872 -0.305947)
(-9.41972e-20 -0.654229 0.047257)
(7.57612e-18 -1.22067 -0.144788)
(4.63534e-17 -0.947949 -0.0871806)
(-1.09179e-68 0.0503501 0.0656549)
(-9.74489e-68 0.111567 0.0660704)
(-6.05957e-67 0.161844 0.0670733)
(-3.27282e-66 0.206907 0.0674516)
(-1.63431e-65 0.251085 0.0676961)
(-7.32071e-65 0.291957 0.0684238)
(-3.03818e-64 0.329825 0.0664036)
(-1.20564e-63 0.366804 0.0664571)
(-4.69855e-63 0.402782 0.0662617)
(-1.78094e-62 0.434393 0.0657607)
(-6.31178e-62 0.463835 0.0616095)
(-1.95857e-61 0.489253 0.0527248)
(-5.74872e-61 0.509964 0.0488985)
(-1.64491e-60 0.525397 0.0422828)
(-4.36491e-60 0.534606 0.0307083)
(-1.01736e-59 0.536649 0.0179389)
(-1.97206e-59 0.518786 0.00610858)
(-3.96824e-59 0.4927 -0.0115336)
(-7.10411e-59 0.45712 -0.0272998)
(-1.07072e-58 0.41137 -0.0421697)
(-2.20341e-58 0.342568 -0.0561376)
(-1.17326e-56 0.253942 -0.0640885)
(-5.27954e-55 0.138127 -0.0644969)
(-1.33769e-53 -0.0180169 -0.0569417)
(-2.15307e-52 -0.152981 -0.114529)
(-1.77552e-53 -0.257485 -0.14432)
(-2.02412e-54 -0.3259 -0.199972)
(-9.44236e-56 -0.559303 -0.205762)
(-1.15526e-57 -0.765344 -0.189711)
(-4.66024e-60 -0.93666 -0.128036)
(-1.35194e-58 -1.10227 -0.0796695)
(3.27217e-59 -1.23254 -0.0304553)
(-5.42662e-57 -1.27918 0.0107872)
(-4.1096e-54 -1.28846 0.0437049)
(-1.63105e-52 -1.23624 0.0687669)
(-3.43737e-52 -1.10597 0.0918592)
(1.30003e-49 -0.957125 0.109288)
(4.99224e-48 -0.790005 0.122258)
(2.45917e-47 -0.598142 0.121117)
(-1.31692e-45 -0.416686 0.144934)
(-4.95935e-45 -0.38465 0.191801)
(5.67136e-43 -0.233049 0.220205)
(1.1913e-41 0.158049 0.257292)
(5.23666e-41 0.36184 0.180051)
(2.19562e-40 0.69284 0.124985)
(9.31767e-40 0.790865 0.130245)
(4.29555e-39 0.719595 0.151451)
(2.37061e-38 0.712046 0.143315)
(1.49625e-37 0.733298 0.143664)
(9.58955e-37 0.760421 0.14036)
(5.80783e-36 0.786588 0.139521)
(3.26967e-35 0.809391 0.140058)
(1.71464e-34 0.831796 0.143224)
(8.14778e-34 0.855687 0.14754)
(3.37117e-33 0.876885 0.151789)
(1.2635e-32 0.895635 0.156005)
(4.78726e-32 0.916829 0.160194)
(2.1738e-31 0.941758 0.169513)
(1.28487e-30 0.964168 0.175953)
(8.91788e-30 0.989585 0.183042)
(6.11199e-29 1.01481 0.189124)
(3.78387e-28 1.03985 0.193408)
(2.03771e-27 1.064 0.195911)
(9.29069e-27 1.08672 0.195719)
(3.36819e-26 1.1064 0.191608)
(8.35154e-26 1.12109 0.182599)
(1.15376e-25 1.12815 0.167477)
(1.11551e-25 1.12456 0.145143)
(-5.17872e-25 1.10598 0.114102)
(-3.22035e-24 1.06723 0.0735616)
(4.5498e-24 1.00152 0.0235304)
(1.17314e-22 0.90024 -0.03451)
(4.91816e-22 0.753074 -0.0971119)
(-1.15297e-21 0.537437 -0.158575)
(-2.4511e-20 0.200839 -0.195391)
(-3.63319e-20 -0.402433 -0.335046)
(1.73179e-19 -0.661267 0.043365)
(8.49526e-18 -1.2104 -0.174281)
(1.66245e-17 -0.953514 -0.136947)
(-3.33391e-68 0.0509668 0.0800008)
(-2.77737e-67 0.112534 0.078809)
(-1.665e-66 0.162914 0.07961)
(-8.79514e-66 0.208131 0.0793964)
(-4.31409e-65 0.25221 0.079364)
(-1.90805e-64 0.293322 0.0798324)
(-7.82308e-64 0.33128 0.0779406)
(-3.07507e-63 0.367983 0.0765856)
(-1.18715e-62 0.403917 0.0762575)
(-4.46538e-62 0.435906 0.0758999)
(-1.58023e-61 0.466309 0.071684)
(-4.90103e-61 0.491567 0.060944)
(-1.43548e-60 0.512151 0.0558782)
(-4.09603e-60 0.528368 0.0469453)
(-1.08697e-59 0.53828 0.0337073)
(-2.53734e-59 0.540267 0.0189391)
(-4.96654e-59 0.523155 0.00478003)
(-1.00173e-58 0.497682 -0.0150516)
(-1.79255e-58 0.461836 -0.0344769)
(-2.67991e-58 0.416112 -0.0525865)
(-5.24869e-58 0.346726 -0.0696707)
(-3.13486e-56 0.257514 -0.0799793)
(-1.55674e-54 0.139429 -0.0806126)
(-4.55834e-53 -0.00993623 -0.0722608)
(-9.022e-52 -0.137838 -0.132936)
(-1.3722e-52 -0.251856 -0.172695)
(-2.50562e-53 -0.313276 -0.260625)
(-1.67664e-54 -0.55938 -0.271591)
(-5.58065e-56 -0.776161 -0.258846)
(-6.31285e-58 -0.94868 -0.180322)
(-1.99071e-58 -1.11267 -0.114729)
(1.00591e-58 -1.24091 -0.0494666)
(-1.98654e-55 -1.28475 0.0097997)
(-3.14359e-53 -1.29158 0.0576219)
(-6.13031e-52 -1.23843 0.0910873)
(1.44403e-50 -1.10719 0.121523)
(8.87493e-49 -0.957382 0.145418)
(1.77163e-47 -0.788345 0.162659)
(-3.38649e-47 -0.596261 0.165624)
(-5.65859e-45 -0.425997 0.199941)
(-1.57792e-44 -0.384273 0.23681)
(1.41616e-42 -0.230097 0.258266)
(2.61375e-41 0.147776 0.285896)
(1.10752e-40 0.375392 0.202864)
(4.55464e-40 0.695829 0.147926)
(1.89019e-39 0.790749 0.147625)
(8.60906e-39 0.719207 0.167185)
(4.78947e-38 0.712924 0.158076)
(3.08335e-37 0.734103 0.157659)
(2.02159e-36 0.760991 0.153234)
(1.2508e-35 0.786808 0.151898)
(7.16754e-35 0.809165 0.151923)
(3.81106e-34 0.831132 0.154829)
(1.83509e-33 0.85491 0.15928)
(7.69918e-33 0.876097 0.163649)
(2.91779e-32 0.894888 0.168544)
(1.10817e-31 0.915639 0.172409)
(5.00522e-31 0.940215 0.181634)
(2.94914e-30 0.962853 0.188986)
(2.05069e-29 0.98832 0.196175)
(1.41364e-28 1.01383 0.202533)
(8.81407e-28 1.03924 0.206829)
(4.7851e-27 1.06386 0.20903)
(2.20518e-26 1.08727 0.208321)
(8.08612e-26 1.10787 0.203159)
(1.99695e-25 1.12371 0.192616)
(2.53383e-25 1.13215 0.17527)
(2.46367e-25 1.13023 0.149956)
(-4.86293e-25 1.11355 0.115051)
(-3.85698e-24 1.07676 0.0697179)
(3.47257e-24 1.01289 0.0139305)
(1.349e-22 0.912876 -0.0504745)
(6.56301e-22 0.76593 -0.119758)
(-7.48204e-22 0.548902 -0.187489)
(-2.90395e-20 0.212607 -0.227053)
(-1.112e-19 -0.411705 -0.363413)
(3.63669e-19 -0.681218 0.018972)
(7.97945e-18 -1.19194 -0.197632)
(-1.52733e-17 -0.978441 -0.20167)
(-1.00231e-67 0.051192 0.0939406)
(-7.85586e-67 0.112375 0.0912944)
(-4.55067e-66 0.162459 0.0919066)
(-2.35266e-65 0.207673 0.0912499)
(-1.13347e-64 0.251583 0.0911058)
(-4.95427e-64 0.292875 0.0909641)
(-2.00981e-63 0.331066 0.0895868)
(-7.83149e-63 0.36762 0.0868203)
(-2.99474e-62 0.403359 0.0860561)
(-1.11788e-61 0.435753 0.0857306)
(-3.94999e-61 0.467215 0.081721)
(-1.22573e-60 0.492667 0.0695373)
(-3.58387e-60 0.51317 0.0627778)
(-1.02019e-59 0.530248 0.0517645)
(-2.70502e-59 0.540683 0.0368672)
(-6.32428e-59 0.542696 0.0199684)
(-1.24975e-58 0.526019 0.00296584)
(-2.52789e-58 0.501248 -0.0185216)
(-4.5292e-58 0.465036 -0.041357)
(-6.72457e-58 0.419143 -0.06296)
(-1.23108e-57 0.348792 -0.0830893)
(-8.31087e-56 0.258349 -0.095907)
(-4.56048e-54 0.137038 -0.0967321)
(-1.54018e-52 -0.00721156 -0.0865536)
(-3.74646e-51 -0.124119 -0.149798)
(-1.33333e-51 -0.24336 -0.201989)
(-3.57918e-52 -0.297272 -0.32258)
(-2.87167e-53 -0.560328 -0.340048)
(-1.33923e-54 -0.791036 -0.328754)
(-3.41271e-56 -0.967536 -0.23641)
(-8.45984e-58 -1.13113 -0.152683)