/*--------------------------------*- C++ -*----------------------------------*\
| =========                 |                                                 |
| \\      /  F ield         | OpenFOAM: The Open Source CFD Toolbox           |
|  \\    /   O peration     | Version:  4.1                                   |
|   \\  /    A nd           | Web:      www.OpenFOAM.org                      |
|    \\/     M anipulation  |                                                 |
\*---------------------------------------------------------------------------*/
FoamFile
{
    version     2.0;
    format      ascii;
    class       surfaceScalarField;
    location    "24";
    object      phi;
}
// * * * * * * * * * * * * * * * * * * * * * * * * * * * * * * * * * * * * * //

dimensions      [0 3 -1 0 0 0 0];

internalField   nonuniform List<scalar> 
13220
(
-807.884
2107.79
-1262.82
1755.14
-1729.22
1766.3
-2074.04
1644.72
-2357.92
1584.08
-2564.05
1506.04
-2700.39
1436.24
-2766.09
1365.9
-2765.4
1299.21
-2697.1
1231.6
-2550.66
1153.77
-2288.83
1038.07
-1821.99
833.055
-1048.32
526.537
251.58
-222.31
2330.1
-483.875
2016.7
-769.936
2052.37
-995.028
1869.81
-1210.9
1799.95
-1380.61
1675.75
-1522.24
1577.87
-1626.91
1470.57
-1700.86
1373.16
-1741.17
1271.92
-1726.6
1139.2
-1601.33
912.801
-1276.49
508.209
-634.64
-115.307
-383.06
-128.188
2458.29
-306.897
2195.41
-424.939
2170.41
-485.953
1930.83
-533.155
1847.16
-538.154
1680.75
-519.7
1559.42
-472.663
1423.53
-400.815
1301.31
-307.262
1178.37
-200.945
1032.88
-103.048
814.912
-37.0709
442.257
7.59679
-159.948
-375.463
85.6873
2372.6
93.2722
2187.83
150.832
2112.85
230.648
1851.01
314.14
1763.67
417.766
1577.12
529.072
1448.11
646.539
1306.07
764.361
1183.49
879.899
1062.83
977.336
935.448
1003.5
788.742
855.531
590.228
326.064
369.514
-49.3991
84.393
2288.21
132.998
2139.23
204.138
2041.71
276.654
1778.5
347.784
1692.54
430.658
1494.25
515.098
1363.67
625.111
1196.06
750.913
1057.69
868.486
945.258
936.993
866.939
915.809
809.928
747.468
758.57
438.398
678.585
388.999
-10.626
2298.83
1.79869
2126.8
8.88892
2034.62
-15.6186
1803
-42.9717
1719.89
-84.7525
1536.03
-98.0555
1376.98
-28.322
1126.32
138.221
891.143
366.375
717.101
583.449
649.864
696.723
696.648
622.512
832.775
371.086
930.004
760.085
-149.16
2447.99
-289.067
2266.71
-424.593
2170.15
-604.321
1982.73
-789.403
1904.97
-1003.7
1750.33
-1200.27
1573.54
-1340.35
1266.4
-1390.28
941.074
-1329.09
655.91
-1136.86
457.634
-813.29
373.075
-428.459
447.946
-117.272
618.818
642.813
-25.1123
2473.11
-245.941
2487.53
-390.284
2314.49
-531.633
2124.08
-667.528
2040.87
-813.512
1896.31
-984.278
1744.31
-1199.22
1481.34
-1443.88
1185.73
-1671.32
883.357
-1800.83
587.143
-1717.96
290.198
-1328.23
58.2112
-660.708
-48.7097
-17.895
255.379
2217.73
127.863
2615.05
78.1085
2364.24
86.8947
2115.29
130.231
1997.53
180.124
1846.42
214.983
1709.45
180.004
1516.32
70.5057
1295.23
-95.3424
1049.2
-287.01
778.809
-470.796
473.984
-542.987
130.402
-425.953
-165.745
-443.848
341.455
1876.27
372.344
2584.16
404.502
2332.08
495.712
2024.08
628.912
1864.33
769.264
1706.07
911.221
1567.49
1017.1
1410.44
1067.96
1244.37
1050.04
1067.12
951.376
877.477
750.755
674.602
444.062
437.091
116.739
161.573
-327.109
215.16
1661.11
286.722
2512.6
334.825
2283.98
408.353
1950.55
505.661
1767.02
603.426
1608.3
696.16
1474.76
771.181
1335.42
817.266
1198.28
822.553
1061.83
779.9
920.129
681.041
773.461
516.547
601.584
286.55
391.569
-40.5596
91.6377
1569.47
171.159
2433.08
219.844
2235.29
259.212
1911.18
308.398
1717.83
354.339
1562.36
393.921
1435.17
420.993
1308.35
435.9
1183.37
438.576
1059.15
425.887
932.817
390.038
809.308
312.297
679.323
170.741
533.119
130.181
51.1191
1518.35
153.957
2330.24
270.432
2118.82
391.292
1790.32
513.087
1596.04
621.623
1453.82
710.989
1345.81
777.227
1242.11
813.782
1146.82
818.716
1054.22
784.681
966.852
700.972
893.018
550.764
829.53
324.583
759.3
454.764
201.701
1316.65
292.824
2239.11
253.318
2158.33
176.567
1867.07
124.176
1648.43
100.653
1477.35
116.846
1329.61
176.549
1182.41
277.744
1045.62
409.832
922.128
542.515
834.169
591.781
843.751
482.811
938.5
260.976
981.134
715.741
598.831
1570.93
2206.4
2405.76
2388.97
2288.4
2045.01
1759.12
1455.29
1168.98
871.322
620.069
407.505
224.94
6.20627e-06
435.003
-435.003
435.003
435.003
435.003
1017.76
-582.757
1017.76
1017.76
1017.76
1465.05
-447.286
1465.05
1465.05
1772.5
-307.456
1772.5
1772.5
1772.5
1975.71
-203.209
1975.71
1975.71
2090.96
-115.248
2090.96
2090.96
2090.96
2124.27
-33.315
2124.27
2124.27
2124.27
2081.36
42.9146
2081.36
2081.36
1965.89
115.471
1965.89
1965.89
1965.89
1785.49
180.398
1785.49
1785.49
1555.36
230.127
1555.36
1555.36
1555.36
1309.92
245.447
1309.92
1309.92
1309.92
1147.64
162.271
1147.64
1147.64
965.923
181.722
965.923
965.923
965.923
681.403
284.52
681.403
681.403
681.403
303.182
378.22
303.182
303.182
-86.9032
390.086
-86.9033
-86.9032
-86.9033
-745.512
658.608
-745.512
-745.512
-1990.8
1245.29
-1990.8
-1990.8
-1990.8
-3728.32
1737.52
-3728.32
-3728.32
-3728.32
-5802.87
2074.55
-5802.87
-5802.87
-8014.4
2211.53
-8014.4
-8014.4
-7842.09
-7669.36
-7493.51
-9628.85
2314.85
-9450.5
-9248.05
-9032.33
-8815.26
-8595.67
-8372.95
-8153.74
-7942.06
-10187.5
2455.35
-9969.47
-9748.94
-9527.3
-9326.41
-9122.96
-8916.26
-8708.36
-8499.12
-10826.7
2525.49
-10614.4
-10400.1
-10183.8
-9967.13
-9745.83
-9515.94
-9285.81
-9055.65
-8826.23
-11013.2
2403.09
-10762.8
-10511
-10257.7
-10004.2
-9750.18
-9479.79
-9200.46
-8920.92
-10845.3
2189
-10567.7
-10281.5
-9981.85
-9684.3
-9388.74
-9096.92
-8807.8
-8500.65
-9845.72
1636.11
-9549.81
-9256.34
-8963.2
-8655.65
-8341.66
-8028.3
-7713.73
-7400.06
-8351.69
1264.44
-8026.83
-7708.02
-7395.33
-7091.29
-6797.1
-6490.19
-6195.61
-5911.58
-5638.41
-5284.56
-74.4074
-5029.86
-4786.73
-4547.32
-4312.13
-4079.5
-3881.72
-3748.96
-3614.2
-3126.23
-342.509
-2999.12
-2877.33
-2877.33
-2584.69
-292.646
-2227.78
-356.906
-2227.78
-1889.05
-338.734
-1889.05
-1544.79
-344.258
-1208.2
-336.585
-1208.2
-864.145
-344.059
-549.475
-314.67
-549.475
-247.912
-301.562
-247.912
24.5606
-272.473
241.8
-217.239
241.8
423.241
-181.441
423.241
588.934
-165.694
732.257
-143.322
732.257
857.009
-124.752
960.945
-103.937
960.945
1046.59
-85.6482
1046.59
1119.93
-73.34
1171.5
-51.5633
1171.5
1207.83
-36.3349
1207.83
1228.13
-20.3023
1219.24
8.89778
1219.24
1201.84
17.3969
1175.46
26.3764
1175.46
1160.54
14.9277
1160.54
1157.16
3.37554
1161.32
-4.16055
1161.32
1197.79
-36.4649
1197.79
1251.41
-53.6254
1298.36
-46.946
1298.36
1347.51
-49.1528
1389.67
-42.1644
1389.67
1433.71
-44.0388
1433.71
1457.35
-23.6412
1478.26
-20.9033
1478.26
1496.47
-18.2109
1496.47
1499.64
-3.17133
1499.92
-0.279722
1499.92
1500.31
-0.390253
1494.19
6.12091
1494.19
1495.06
-0.873396
1495.06
1492.49
2.56803
1487.45
5.04569
1487.45
1492.89
-5.43894
1492.89
1500.13
-7.23998
1506.35
-6.21823
1506.35
1525.42
-19.0773
1542.62
-17.1981
1542.62
1578.12
-35.5029
1578.12
-42.1414
-255.563
-866.591
-258.807
-999.702
-262.929
-1026.98
-267.832
-1095.59
-273.463
-1137.35
-280.386
-1189.69
-289.628
-1232.37
-303.768
-1272.36
-326.657
-1299.8
-362.894
-1311.45
-415.52
-1303.27
-483.641
-1278.72
-561.432
-1246.92
-639.852
-1220.08
-709.944
-1207.68
-765.645
-1213.24
-804.723
-1234.37
-828.041
-1265.03
-838.148
-1298.2
-838.068
-1327.72
-830.628
-1349.5
-818.196
-1362.04
-802.641
-1366.65
-785.348
-1366.75
-767.301
-1366.07
-749.284
-1366.45
-732.141
-1366.42
-716.974
-1361.08
-705.219
-1342.94
-698.794
-1305.08
-699.162
-1249.73
-699.325
-1175.16
-670.947
-959.768
-603.753
-316.465
-551.711
514.641
-525.611
912.25
-503.004
1130.46
-480.86
1347
-459.501
1585
-438.69
1835.63
-418.048
2092.19
-397.39
2347.38
-376.631
2594.12
-355.793
2826.76
-334.932
3041.94
-314.119
3237.93
-293.264
3415
-272.193
3573.95
-250.67
3715.32
-228.412
3837.9
-205.378
3938.1
-181.686
4014.54
-157.389
4069.91
-132.244
4105.93
-106.347
4112.72
-80.1658
4083.31
-54.1365
4017.04
-28.9795
3898.51
-5.90059
3691.26
13.4266
3347.11
27.6768
2871.49
37.5552
2390.54
44.1717
1955.16
48.6584
1583.35
52.0019
1286.03
54.7331
1059.5
57.0234
871.313
59.3904
766.943
61.2812
649.685
64.019
610.388
64.363
368.644
69.9337
204.949
79.2675
35.4887
70.7767
-762.15
32.7897
-1860.83
23.6446
-2376.26
10.5026
-2889.87
19.1471
-2729.64
1797.47
-269.087
-864.442
-271.973
-996.817
-276.356
-1022.6
-281.628
-1090.32
-288.093
-1130.89
-297.109
-1180.67
-311.103
-1218.38
-334.716
-1248.74
-373.366
-1261.15
-431.112
-1253.71
-506.996
-1227.39
-593.615
-1192.1
-679.303
-1161.23
-753.007
-1146.38
-808.195
-1152.49
-843.683
-1177.76
-861.949
-1216.11
-866.849
-1260.13
-862.053
-1302.99
-850.456
-1339.32
-834.228
-1365.73
-815.067
-1381.2
-794.405
-1387.31
-773.478
-1387.67
-753.376
-1386.17
-735.179
-1384.65
-720.157
-1381.44
-709.82
-1371.41
-705.749
-1347.01
-709.486
-1301.34
-721.758
-1237.46
-734.234
-1162.68
-709.841
-984.162
-616.968
-409.338
-541.759
439.432
-516.441
886.933
-497.078
1111.1
-475.332
1325.25
-454.602
1564.27
-434.751
1815.77
-415.011
2072.45
-395.159
2327.52
-375.081
2574.04
-354.796
2806.48
-334.384
3021.52
-313.918
3217.46
-293.323
3394.41
-272.442
3553.07
-251.051
3693.93
-228.883
3815.74
-205.91
3915.13
-182.26
3990.89
-157.997
4045.65
-132.877
4080.81
-107.002
4086.85
-80.8408
4057.15
-54.8199
3991.02
-29.6278
3873.32
-6.42428
3668.06
13.156
3327.53
27.7906
2856.86
38.1861
2380.14
45.4582
1947.89
50.6982
1578.11
54.8078
1281.92
58.1763
1056.13
60.7802
868.709
63.4103
764.313
65.1291
647.967
68.2962
607.221
67.1512
369.789
75.3781
196.722
89.2812
21.5857
77.3812
-750.25
34.7334
-1818.18
24.4781
-2366.01
13.6198
-2879.01
19.4819
-2735.5
1781.45
-276.763
-862.014
-279.34
-994.24
-283.948
-1017.99
-289.653
-1084.62
-297.386
-1123.15
-309.531
-1168.53
-329.954
-1197.96
-364.441
-1214.26
-417.741
-1207.85
-490.423
-1181.02
-576.196
-1141.62
-663.62
-1104.67
-740.944
-1083.91
-800.692
-1086.63
-840.961
-1112.22
-863.833
-1154.88
-872.962
-1206.98
-871.874
-1261.22
-863.302
-1311.56
-849.22
-1353.4
-831.152
-1383.79
-810.484
-1401.86
-788.63
-1409.16
-767.056
-1409.25
-747.247
-1405.98
-730.76
-1401.14
-719.281
-1392.92
-714.468
-1376.23
-717.534
-1343.95
-728.99
-1289.89
-748.295
-1218.15
-767.214
-1143.76
-748.46
-1002.92
-644.155
-513.643
-539.295
334.572
-503.537
851.174
-487.759
1095.32
-468.031
1305.52
-447.9
1544.14
-429.05
1796.92
-410.54
2053.94
-391.856
2308.84
-372.796
2554.98
-353.358
2787.04
-333.636
3001.8
-313.714
3197.54
-293.532
3374.23
-272.955
3532.5
-251.775
3672.75
-229.748
3793.71
-206.87
3892.25
-183.284
3967.31
-159.061
4021.42
-133.963
4055.71
-108.102
4060.99
-81.9442
4030.99
-55.9041
3964.98
-30.63
3848.04
-7.22967
3644.66
12.7032
3307.6
27.8566
2841.7
38.947
2369.05
47.1113
1939.73
53.4072
1571.82
58.6309
1276.7
62.9708
1051.79
66.2353
865.445
69.2237
761.324
70.9512
646.239
74.1292
604.043
71.7394
372.179
79.1826
189.278
95.0579
5.71039
81.3885
-736.581
37.057
-1773.85
24.8602
-2353.81
15.2275
-2869.38
12.5926
-2732.87
1776.85
-285.92
-859.259
-288.244
-991.917
-293.252
-1012.98
-299.933
-1077.94
-310.223
-1112.86
-328.014
-1150.74
-358.665
-1167.31
-408.145
-1164.78
-478.482
-1137.51
-564.934
-1094.57
-656.134
-1050.42
-739.086
-1021.72
-804.608
-1018.39
-849.666
-1041.57
-876.045
-1085.84
-887.645
-1143.28
-888.377
-1206.25
-881.234
-1268.36
-868.23
-1324.57
-850.727
-1370.91
-829.859
-1404.66
-806.871
-1424.85
-783.301
-1432.74
-760.976
-1431.57
-741.917
-1425.04
-728.23
-1414.82
-721.928
-1399.22
-724.5
-1373.65
-736.271
-1332.17
-756.21
-1269.95
-782.36
-1192
-807.037
-1119.09
-794.593
-1015.36
-684.039
-624.196
-547.063
197.595
-492.311
796.423
-475.531
1078.54
-458.772
1288.76
-439.991
1525.36
-422.054
1778.99
-404.839
2036.72
-387.609
2291.61
-369.876
2537.25
-351.562
2768.73
-332.767
2983.01
-313.58
3178.35
-293.961
3354.61
-273.799
3512.33
-252.907
3651.86
-231.075
3771.88
-208.323
3869.5
-184.816
3943.8
-160.631
3997.24
-135.544
4030.63
-109.679
4035.12
-83.5035
4004.82
-57.4173
3938.89
-32.0285
3822.65
-8.38829
3621.02
11.9651
3287.24
27.746
2825.92
39.6825
2357.12
48.9394
1930.47
56.5466
1564.21
63.183
1270.06
68.8087
1046.16
73.0088
861.245
76.5624
757.771
78.3632
644.438
81.5951
600.811
77.8926
375.881
84.1366
183.034
101.64
-11.7927
86.9336
-721.875
40.0419
-1726.96
25.0881
-2338.86
15.7053
-2860
7.89231
-2725.05
1765.66
-294.954
-856.125
-297.116
-989.756
-302.888
-1007.21
-311.564
-1069.26
-326.553
-1097.87
-353.507
-1123.78
-398.509
-1122.3
-465.555
-1097.73
-551.438
-1051.63
-645.458
-1000.55
-733.484
-962.39
-804.554
-950.653
-854.328
-968.614
-884.247
-1011.65
-898.505
-1071.58
-901.457
-1140.33
-896.396
-1211.31
-885.398
-1279.36
-869.663
-1340.3
-850
-1390.57
-827.271
-1427.39
-802.747
-1449.38
-778.288
-1457.19
-756.308
-1453.55
-739.533
-1441.81
-730.62
-1423.74
-731.621
-1398.22
-743.271
-1362
-764.342
-1311.1
-791.81
-1242.48
-822.319
-1161.49
-849.753
-1091.65
-843.853
-1021.26
-736.265
-731.785
-568.209
29.5398
-485.113
713.326
-461.919
1055.35
-447.028
1273.87
-430.526
1508.85
-413.897
1762.36
-397.938
2020.76
-382.312
2275.99
-366.213
2521.15
-349.328
2751.84
-331.724
2965.4
-313.492
3160.12
-294.614
3335.73
-275.001
3492.72
-254.496
3631.35
-232.924
3750.3
-210.339
3846.91
-186.93
3920.39
-162.785
3973.09
-137.696
4005.54
-111.804
4009.23
-85.5825
3978.59
-59.4149
3912.72
-33.8675
3797.11
-9.92892
3597.08
10.9258
3266.39
27.4419
2809.4
40.3703
2344.19
50.9145
1919.93
60.0846
1555.04
68.4321
1261.71
75.6602
1038.94
81.0808
855.824
85.421
753.431
87.4044
642.455
90.756
597.459
85.9297
380.707
90.6788
178.285
108.048
-29.1622
92.7929
-706.619
43.6363
-1677.8
25.1316
-2320.35
15.0578
-2849.92
-1.94495
-2708.05
1757.5
-304.282
-852.505
-306.544
-987.493
-313.881
-999.875
-326.418
-1056.72
-349.398
-1074.89
-389.836
-1083.35
-452.616
-1059.52
-536.951
-1013.4
-633.025
-955.556
-726.05
-907.529
-803.069
-885.371
-858.086
-895.635
-891.915
-934.785
-908.978
-994.591
-914.142
-1066.42
-911.118
-1143.36
-902.17
-1220.25
-888.466
-1293.07
-870.587
-1358.18
-849.01
-1412.15
-824.549
-1451.85
-798.723
-1475.2
-773.964
-1481.95
-753.497
-1474.02
-740.834
-1454.48
-738.944
-1425.63
-749.295
-1387.87
-771.077
-1340.22
-800.943
-1281.24
-833.842
-1209.58
-865.487
-1129.85
-892.242
-1064.9
-892.036
-1021.47
-796.585
-827.235
-603.898
-163.147
-483.241
592.669
-448.447
1020.55
-433.204
1258.63
-419.024
1494.67
-404.474
1747.81
-389.968
2006.26
-375.948
2261.97
-361.678
2506.88
-346.52
2736.68
-330.385
2949.27
-313.347
3143.08
-295.404
3317.79
-276.495
3473.81
-256.493
3611.35
-235.264
3729.07
-212.899
3824.55
-189.617
3897.11
-165.52
3949
-140.421
3980.44
-114.483
3983.29
-88.186
3952.3
-61.9008
3886.44
-36.1504
3771.36
-11.8575
3572.79
9.56958
3244.96
26.9093
2792.07
40.9467
2330.15
52.9384
1907.93
63.8838
1544.1
74.2031
1251.39
83.3186
1029.82
90.2345
848.908
95.5742
748.091
97.8838
640.145
101.387
593.956
95.8037
386.291
98.7001
175.389
114.974
-45.4359
99.2937
-690.939
47.7775
-1626.29
25.0022
-2297.58
13.307
-2838.23
-11.5139
-2683.23
1738.74
-313.983
-848.188
-316.948
-984.528
-327.381
-989.443
-346.779
-1037.33
-382.08
-1039.59
-440.101
-1025.33
-521.583
-978.042
-618.775
-916.204
-716.395
-857.936
-799.61
-824.313
-860.316
-824.666
-898.363
-857.587
-918.281
-914.867
-925.525
-987.347
-924.355
-1067.59
-917.351
-1150.36
-905.759
-1231.85
-890.032
-1308.79
-870.337
-1377.88
-847.013
-1435.47
-821.02
-1477.85
-794.371
-1501.85
-770.345
-1505.98
-753.184
-1491.18
-747.09
-1460.57
-754.749
-1417.97
-776.102
-1366.52
-807.988
-1308.34
-844.787
-1244.44
-879.965
-1174.4
-909.041
-1100.77
-931.297
-1042.64
-934.336
-1018.43
-856.041
-905.531
-650.577
-368.611
-488.408
430.499
-435.887
968.032
-418.183
1240.92
-405.333
1481.82
-393.371
1735.85
-380.905
1993.79
-368.579
2249.64
-356.196
2494.5
-343.001
2723.49
-328.621
2934.89
-313.031
3127.49
-296.239
3301
-278.209
3455.78
-258.844
3591.99
-238.056
3708.29
-215.98
3802.47
-192.866
3873.99
-168.835
3924.97
-143.723
3955.33
-117.724
3957.29
-91.3246
3925.9
-64.8881
3860
-38.8942
3745.36
-14.1973
3548.09
7.86269
3222.9
26.0999
2773.83
41.3466
2314.91
54.9256
1894.36
67.8355
1531.19
80.3618
1238.87
91.6258
1018.56
100.294
840.24
106.842
741.543
109.631
637.356
113.317
590.269
107.368
392.24
108.335
174.422
122.574
-59.6745
106.306
-674.672
52.4519
-1572.43
24.7578
-2269.88
10.4395
-2823.91
-19.1201
-2653.67
1714.19
-324.431
-842.725
-329.348
-979.612
-345.486
-973.305
-375.963
-1006.85
-428.189
-987.366
-505.91
-947.605
-602.851
-881.1
-704.479
-814.576
-793.957
-768.459
-860.846
-757.424
-903.547
-781.965
-926.503
-834.631
-935.77
-905.6
-936.269
-986.848
-931.01
-1072.85
-921.411
-1159.96
-907.898
-1245.36
-890.437
-1326.25
-868.986
-1399.33
-843.928
-1460.53
-816.602
-1505.17
-789.816
-1528.64
-768.025
-1527.77
-756.591
-1502.62
-759.951
-1457.21
-779.463
-1398.46
-812.406
-1333.57
-852.82
-1267.92
-893.336
-1203.92
-927.042
-1140.69
-950.066
-1077.75
-964.303
-1028.4
-966.743
-1015.99
-907.516
-964.758
-706.809
-569.319
-504.005
227.696
-424.771
888.798
-402.572
1218.72
-389.826
1469.08
-380.223
1726.24
-370.467
1984.03
-360.226
2239.4
-349.774
2484.05
-338.663
2712.38
-326.298
2922.52
-312.428
3113.62
-297.022
3285.59
-280.065
3438.82
-261.494
3573.42
-241.267
3688.06
-219.564
3780.77
-196.672
3851.1
-172.732
3901.03
-147.614
3930.21
-121.541
3931.22
-95.0182
3899.37
-68.3993
3833.38
-42.123
3719.09
-16.9745
3522.94
5.77506
3200.15
24.9757
2754.63
41.5226
2298.36
56.8193
1879.06
71.8713
1516.13
86.825
1223.91
100.48
1004.9
111.137
829.583
119.089
733.591
122.51
633.936
126.403
586.376
120.425
398.218
119.557
175.29
131.014
-71.1318
113.849
-657.507
57.6455
-1516.23
24.4542
-2236.69
6.38207
-2805.84
-32.7115
-2614.58
1686.52
-336.369
-835.238
-345.526
-970.455
-371.276
-947.555
-417.754
-960.371
-490.145
-914.975
-585.71
-852.04
-690.279
-776.532
-785.958
-718.897
-859.467
-694.95
-907.364
-709.527
-933.649
-755.68
-944.943
-823.337
-946.915
-903.628
-943.126
-990.638
-935.265
-1080.71
-923.818
-1171.4
-908.655
-1260.52
-889.471
-1345.44
-866.178
-1422.62
-839.399
-1487.31
-811.126
-1533.45
-785.345
-1554.42
-767.992
-1545.12
-765.377
-1505.23
-781.181
-1441.41
-813.969
-1365.67
-857.438
-1290.1
-903.144
-1222.22
-943.226
-1163.84
-971.73
-1112.19
-986.001
-1063.48
-989.606
-1024.8
-986.837
-1018.76
-944.69
-1006.91
-771.113
-742.895
-536.439
-6.97845
-416.863
769.222
-386.361
1188.22
-373.054
1455.77
-365.038
1718.23
-358.259
1977.26
-350.745
2231.88
-342.45
2475.75
-333.47
2703.4
-323.295
2912.35
-311.413
3101.74
-297.646
3271.82
-281.976
3423.15
-264.375
3555.81
-244.846
3668.53
-223.619
3759.54
-201.017
3828.5
-177.208
3877.22
-152.098
3905.1
-125.949
3905.07
-99.2837
3872.71
-72.4541
3806.55
-45.8588
3692.49
-20.2121
3497.29
3.28065
3176.66
23.5028
2734.41
41.4322
2280.43
58.5692
1861.92
75.932
1498.77
93.5208
1206.32
109.791
988.631
122.651
816.723
132.182
724.06
136.373
629.744
140.477
582.273
134.706
403.988
132.135
177.861
140.255
-79.2516
121.875
-639.127
63.3637
-1457.72
24.247
-2197.58
1.25913
-2782.85
-44.4605
-2568.86
1644.63
-351.182
-824.149
-368.283
-953.355
-408.606
-907.233
-475.29
-893.687
-567.535
-822.73
-674.064
-745.51
-775.45
-675.147
-855.982
-638.365
-909.643
-641.289
-939.665
-679.504
-953.081
-742.265
-956.389
-820.029
-953.8
-906.216
-947.374
-997.064
-937.733
-1090.35
-924.731
-1184.41
-907.914
-1277.34
-886.868
-1366.48
-861.614
-1447.87
-833.237
-1515.68
-804.749
-1561.93
-781.763
-1577.4
-771.867
-1555.02
-781.617
-1495.48
-812.286
-1410.74
-858.091
-1319.86
-909.022
-1239.17
-955.467
-1175.77
-990.716
-1128.59
-1010.86
-1092.04
-1014.71
-1059.64
-1006.34
-1033.16
-994.215
-1030.89
-962.233
-1038.89
-827.997
-877.131
-581.597
-253.378
-414.921
602.546
-369.454
1142.76
-355.269
1441.59
-348.144
1711.1
-344.037
1973.15
-339.811
2227.66
-334.178
2470.12
-327.449
2696.67
-319.541
2904.44
-309.86
3092.06
-297.993
3259.96
-283.844
3409
-267.407
3539.38
-248.736
3649.86
-228.106
3738.91
-205.879
3806.27
-182.252
3853.59
-157.174
3880.02
-130.954
3878.85
-104.135
3845.89
-77.0708
3779.49
-50.1225
3665.54
-23.9324
3471.1
0.353238
3152.37
21.6466
2713.11
41.0349
2261.04
60.131
1842.83
79.9688
1478.93
100.393
1185.9
119.484
969.54
134.736
801.471
145.994
712.802
151.075
624.663
155.372
577.976
149.928
409.432
145.81
181.98
150.258
-83.6998
130.35
-619.219
69.6103
-1396.98
24.1897
-2152.16
-4.91703
-2753.74
-52.8992
-2520.87
1590.85
-371.159
-806.927
-401.388
-923.125
-461.181
-847.44
-549.313
-805.554
-655.888
-716.155
-762.504
-638.894
-850.171
-587.479
-910.239
-578.297
-944.485
-607.044
-960.227
-663.762
-964.8
-737.692
-963.18
-821.648
-957.876
-911.521
-949.715
-1005.22
-938.604
-1101.46
-924.032
-1198.98
-905.391
-1295.98
-882.281
-1389.59
-854.999
-1475.16
-825.394
-1545.29
-797.98
-1589.35
-780.452
-1594.93
-781.826
-1553.64
-807.396
-1469.91
-853.849
-1364.29
-910.11
-1263.6
-963.636
-1185.65
-1005.72
-1133.68
-1032.25
-1102.07
-1041.79
-1082.51
-1034.46
-1066.96
-1014.03
-1053.59
-989.985
-1054.93
-959.143
-1069.73
-858.649
-977.624
-624.417
-487.61
-420.584
398.713
-352.818
1074.99
-336.375
1425.14
-329.889
1704.61
-327.865
1971.13
-327.075
2226.87
-324.745
2467.79
-320.606
2692.53
-315.031
2898.86
-307.675
3084.7
-297.945
3250.23
-285.562
3396.62
-270.503
3524.32
-252.867
3632.22
-232.974
3719.02
-211.223
3784.52
-187.845
3830.21
-162.839
3855.01
-136.56
3852.57
-109.583
3818.91
-82.2665
3752.17
-54.9352
3638.21
-28.1595
3444.33
-3.03529
3127.25
19.3758
2690.7
40.2957
2240.12
61.4688
1821.65
83.9477
1456.45
107.405
1162.44
129.512
947.433
147.322
783.661
160.426
699.698
166.481
618.608
170.937
573.52
165.831
414.538
160.299
187.511
160.929
-84.3299
139.222
-597.513
76.3812
-1334.14
24.3402
-2100.11
-12.2708
-2717.13
-67.9924
-2465.15
1528.98
-399.593
-780.04
-448.909
-873.809
-530.874
-765.475
-636.56
-699.869
-746.997
-605.718
-841.972
-543.92
-908.957
-520.493
-948.042
-539.213
-966.39
-588.695
-972.235
-657.916
-971.399
-738.529
-966.933
-826.114
-959.92
-918.534
-950.366
-1014.78
-937.77
-1114.06
-921.442
-1215.31
-900.733
-1316.69
-875.372
-1414.95
-846.153
-1504.38
-816.114
-1575.33
-791.866
-1613.6
-783.465
-1603.33
-800.386
-1536.72
-844.19
-1426.11
-904.896
-1303.58
-966.648
-1201.85
-1016.88
-1135.41
-1049.94
-1100.62
-1064.92
-1087.09
-1062.59
-1084.84
-1044.01
-1085.54
-1012.28
-1085.32
-975.927
-1091.28
-939.415
-1106.24
-862.098
-1054.94
-659.2
-690.508
-433.746
173.26
-338.697
979.94
-316.44
1402.89
-310.377
1698.55
-310.035
1970.78
-312.363
2229.2
-313.804
2469.23
-312.831
2691.56
-309.785
2895.82
-304.816
3079.73
-297.393
3242.8
-287.021
3386.25
-273.57
3510.87
-257.163
3615.82
-238.166
3700.03
-217.012
3763.37
-193.965
3807.16
-169.08
3830.13
-142.768
3826.26
-115.637
3791.78
-88.0562
3724.59
-60.3168
3610.47
-32.9176
3416.93
-6.91084
3101.24
16.6647
2667.13
39.1839
2217.6
62.5531
1798.28
87.8458
1431.16
114.538
1135.75
139.849
922.122
160.358
763.152
175.395
684.661
182.476
611.527
187.034
568.962
182.187
419.385
175.34
194.359
172.165
-81.1553
148.438
-573.786
83.6665
-1269.37
24.7929
-2041.24
-20.5454
-2671.79
-77.7251
-2407.97
1450.87
-440.426
-739.438
-513.704
-800.531
-615.805
-663.374
-729.453
-586.22
-831.127
-504.045
-905.703
-469.344
-950.227
-475.969
-971.595
-517.845
-978.772
-581.518
-978.588
-658.1
-974.713
-742.404
-968.541
-832.286
-960.198
-926.876
-949.234
-1025.74
-934.953
-1128.34
-916.6
-1233.66
-893.564
-1339.72
-865.851
-1442.67
-835.075
-1535.15
-806.049
-1604.35
-788.107
-1631.54
-793.45
-1597.99
-829.869
-1500.3
-892.065
-1363.91
-962.496
-1233.15
-1023.04
-1141.31
-1064.26
-1094.18
-1084.85
-1080.04
-1086.77
-1085.17
-1072.2
-1099.41
-1042.75
-1114.99
-1000.95
-1127.12
-953.703
-1138.53
-908.577
-1151.37
-843.951
-1119.57
-682.728
-851.732
-452.764
-56.7047
-328.404
855.58
-296.305
1370.79
-289.607
1691.85
-290.795
1971.97
-295.776
2234.18
-301.036
2474.49
-303.853
2694.37
-303.767
2895.73
-301.29
3077.26
-296.266
3237.78
-288.109
3378.09
-276.505
3499.26
-261.54
3600.85
-243.616
3682.1
-223.196
3742.95
-200.579
3784.55
-175.88
3805.43
-149.572
3799.95
-122.302
3764.51
-94.4517
3696.74
-66.2853
3582.31
-38.2294
3388.87
-11.2981
3074.31
13.4871
2642.34
37.6706
2193.42
63.3587
1772.6
91.6495
1402.87
121.789
1105.61
150.485
893.426
173.817
739.82
190.843
667.635
198.961
603.409
203.541
564.382
198.808
424.118
190.698
202.469
183.855
-74.3128
157.943
-547.873
91.4585
-1202.88
25.5257
-1975.31
-30.0899
-2616.18
-91.7618
-2346.3
1358.83
-497.109
-681.828
-595.372
-702.268
-709.389
-549.357
-817.882
-477.727
-900.185
-421.742
-951.003
-418.525
-975.835
-451.138
-984.507
-509.173
-984.866
-581.159
-981.371
-661.595
-975.763
-748.012
-968.312
-839.737
-958.621
-936.567
-946.034
-1038.33
-929.783
-1144.59
-909.109
-1254.33
-883.529
-1365.31
-853.543
-1472.65
-822.066
-1566.63
-796.43
-1629.99
-789.148
-1638.82
-813.325
-1573.81
-871.586
-1442.04
-948.984
-1286.51
-1021.91
-1160.22
-1074.15
-1089.07
-1101.94
-1066.39
-1108.22
-1073.76
-1096.79
-1096.6
-1070.41
-1125.79
-1030.94
-1154.45
-980.61
-1177.46
-924.839
-1194.3
-871.563
-1204.64
-811.788
-1179.34
-686.37
-977.149
-467.063
-276.011
-320.526
709.042
-277.175
1327.44
-267.951
1682.63
-270.208
1974.23
-277.573
2241.54
-286.318
2483.24
-293.31
2701.37
-296.805
2899.23
-297.099
3077.55
-294.541
3235.22
-288.735
3372.29
-279.203
3489.73
-265.908
3587.56
-249.248
3665.44
-229.717
3723.42
-207.646
3762.48
-183.215
3781
-156.961
3773.7
-129.575
3737.13
-101.462
3668.63
-72.8563
3553.7
-44.1163
3360.13
-16.2204
3046.42
9.81818
2616.3
35.7281
2167.51
63.8637
1744.46
95.3535
1371.38
129.167
1071.8
161.433
861.161
187.69
713.563
206.729
648.595
215.858
594.28
220.354
559.886
215.539
428.932
206.18
211.829
195.896
-64.0297
167.691
-519.667
99.7547
-1134.94
26.6269
-1902.18
-40.3494
-2549.2
-102.936
-2283.71
1252.72
-570.71
-606.566
-688.724
-584.254
-801.491
-436.59
-892.49
-386.729
-950.139
-364.093
-979.169
-389.494
-989.521
-440.787
-990.379
-508.315
-987.055
-584.482
-981.768
-666.882
-974.921
-754.859
-966.172
-848.486
-954.902
-947.837
-940.39
-1052.84
-921.854
-1163.13
-898.576
-1277.61
-870.337
-1393.54
-838.472
-1504.52
-807.876
-1597.22
-789.233
-1648.63
-798.074
-1629.98
-845.584
-1526.3
-924.88
-1362.75
-1010.59
-1200.81
-1077.4
-1093.4
-1115.41
-1051.07
-1127.32
-1054.48
-1119.02
-1082.06
-1094.94
-1120.69
-1057.86
-1162.87
-1009.75
-1202.56
-952.759
-1234.45
-891.217
-1255.84
-832.1
-1263.76
-773.318
-1238.12
-671.354
-1079.11
-469.064
-478.301
-311.557
551.535
-259.421
1275.3
-246.339
1669.55
-248.406
1976.3
-257.941
2251.08
-269.77
2495.07
-280.905
2712.5
-288.583
2906.91
-292.162
3081.13
-292.225
3235.28
-288.846
3368.91
-281.566
3482.45
-270.169
3576.16
-254.981
3650.25
-236.511
3704.95
-215.119
3741.08
-191.052
3756.93
-164.918
3747.56
-137.453
3709.66
-109.09
3640.27
-80.0429
3524.65
-50.5971
3330.69
-21.6985
3017.52
5.6336
2588.97
33.3262
2139.82
64.0473
1713.74
98.9608
1336.47
136.698
1034.06
172.72
825.139
201.99
684.294
223.036
627.549
233.11
584.206
237.388
555.608
232.264
434.057
221.633
222.46
208.194
-50.5905
177.643
-489.116
108.544
-1065.85
28.1172
-1821.75
-51.3607
-2469.72
-109.602
-2225.47
1124.91
-658.066
-517.261
-784.161
-458.159
-881.618
-339.132
-947.719
-320.628
-981.473
-330.338
-993.968
-376.999
-995.269
-439.486
-991.946
-511.637
-986.725
-589.704
-980.226
-673.381
-972.123
-762.962
-961.824
-858.784
-948.657
-961.005
-931.891
-1069.61
-910.755
-1184.26
-884.649
-1303.72
-853.829
-1424.37
-820.993
-1537.35
-793.908
-1624.31
-787.271
-1655.27
-818.189
-1599.06
-891.276
-1453.21
-986.454
-1267.57
-1070.74
-1116.52
-1123.41
-1040.73
-1143.59
-1030.88
-1139.23
-1058.84
-1117.34
-1103.95
-1082.06
-1155.97
-1035.99
-1208.94
-981.182
-1257.37
-919.765
-1295.86
-855.209
-1320.39
-793.033
-1325.94
-734.277
-1296.88
-647.847
-1165.54
-463.587
-662.561
-298.378
386.325
-241.964
1218.89
-225.733
1653.32
-225.94
1976.5
-236.967
2262.1
-251.629
2509.73
-266.552
2727.42
-278.725
2919.08
-286.25
3088.65
-289.293
3238.33
-288.43
3368.04
-283.516
3477.54
-274.224
3566.87
-260.729
3636.76
-243.504
3687.72
-222.942
3720.52
-199.354
3733.34
-173.418
3721.63
-145.925
3682.17
-117.339
3611.68
-87.8544
3495.17
-57.6891
3300.52
-27.7572
2987.58
0.90146
2560.31
30.4337
2110.28
63.8938
1680.28
102.484
1297.88
144.422
992.121
184.395
785.166
216.749
651.939
239.763
604.536
250.678
573.29
254.579
551.708
248.898
439.738
236.948
234.409
220.664
-34.3059
187.774
-456.227
117.82
-995.892
30.0934
-1734.03
-62.8138
-2376.81
-124.011
-2164.28
979.992
-751.357
-421.804
-870.416
-339.1
-942.526
-267.022
-982.959
-280.195
-997.825
-315.472
-999.765
-375.059
-996.223
-443.029
-990.837
-517.023
-984.415
-596.126
-976.696
-681.1
-967.062
-772.596
-954.873
-870.973
-939.466
-976.411
-920.121
-1088.95
-896.108
-1208.27
-867.066
-1332.76
-834.082
-1457.35
-801.971
-1569.46
-782.405
-1643.88
-794.071
-1643.61
-852.151
-1540.98
-948.909
-1356.46
-1050.41
-1166.06
-1122.81
-1044.13
-1155.75
-1007.79
-1157.24
-1029.4
-1137.88
-1078.2
-1104.24
-1137.59
-1059.82
-1200.38
-1007.02
-1261.75
-947.877
-1316.51
-884.417
-1359.32
-819.291
-1385.52
-756.408
-1388.82
-697.684
-1355.6
-621.979
-1241.25
-457.412
-827.127
-281.217
210.13
-222.951
1160.62
-206.219
1636.58
-203.761
1974.04
-214.893
2273.24
-232.074
2526.91
-250.382
2745.73
-266.944
2935.64
-279
3100.71
-285.616
3244.94
-287.486
3369.91
-285.013
3475.07
-277.984
3559.84
-266.398
3625.17
-250.619
3671.94
-231.05
3700.95
-208.071
3710.36
-182.43
3695.99
-154.972
3654.71
-126.201
3582.91
-96.2967
3465.26
-65.409
3269.63
-34.427
2956.6
-4.41315
2530.3
27.0285
2078.84
63.3967
1643.91
105.946
1255.33
152.396
945.671
196.526
741.036
232.02
616.445
256.931
579.625
268.545
561.676
271.883
548.37
265.388
446.232
252.05
247.748
233.227
-15.4831
198.063
-421.063
127.574
-925.403
32.8471
-1639.3
-73.3687
-2270.6
-133.314
-2104.33
823.037
-840.052
-330.326
-938.461
-240.691
-982.193
-223.29
-1001.49
-260.896
-1003.91
-313.056
-1000.17
-378.802
-994.309
-448.886
-987.717
-523.614
-980.106
-603.738
-970.864
-690.342
-959.329
-784.131
-944.895
-885.406
-926.92
-994.387
-904.699
-1111.18
-877.608