/*--------------------------------*- C++ -*----------------------------------*\
| =========                 |                                                 |
| \\      /  F ield         | OpenFOAM: The Open Source CFD Toolbox           |
|  \\    /   O peration     | Version:  4.1                                   |
|   \\  /    A nd           | Web:      www.OpenFOAM.org                      |
|    \\/     M anipulation  |                                                 |
\*---------------------------------------------------------------------------*/
FoamFile
{
    version     2.0;
    format      ascii;
    class       volVectorField;
    location    "24";
    object      U;
}
// * * * * * * * * * * * * * * * * * * * * * * * * * * * * * * * * * * * * * //

dimensions      [0 1 -1 0 0 0 0];

internalField   nonuniform List<vector> 
6785
(
(1.39411e-14 -2.33643 16.5606)
(1.11196e-14 -7.91533 13.0269)
(-3.11177e-15 -5.11262 13.8342)
(4.02208e-15 -5.03869 13.3488)
(9.10837e-16 -4.22734 13.216)
(-1.3585e-16 -3.78259 12.9339)
(2.49161e-15 -3.33763 12.657)
(5.12046e-16 -3.01212 12.3422)
(-7.63526e-16 -2.77486 12.0211)
(1.70474e-15 -2.6682 11.7197)
(2.77107e-16 -2.67372 11.5142)
(-4.07093e-16 -2.80616 11.398)
(7.11908e-16 -3.39914 10.93)
(6.46031e-17 -3.57368 9.79878)
(-2.16895e-16 -0.17257 7.64222)
(1.79646e-14 -10.4411 27.1917)
(1.27854e-14 -16.3481 23.481)
(-2.72088e-15 -11.2746 23.8342)
(3.61985e-15 -12.0348 22.0197)
(7.2528e-16 -10.3092 21.1767)
(6.53748e-16 -9.67058 19.9572)
(1.40079e-15 -8.68629 18.8881)
(-6.05812e-17 -7.91764 17.7929)
(-5.19198e-16 -7.16642 16.7561)
(1.39954e-16 -6.46591 15.676)
(-3.39023e-16 -5.60519 14.2476)
(-8.26025e-16 -4.2639 11.8341)
(-8.7718e-16 -2.23339 7.69587)
(-5.99018e-16 0.265892 2.04071)
(-6.5986e-16 1.31982 -1.92666)
(1.95219e-14 -13.0671 28.8255)
(1.11701e-14 -17.1297 25.2837)
(-1.64518e-15 -12.1815 25.3125)
(4.60782e-15 -13.4745 22.7047)
(5.10473e-16 -11.2396 21.7353)
(1.30713e-15 -10.954 19.9289)
(1.74785e-15 -9.80608 18.5888)
(-2.87227e-16 -9.16615 17.084)
(1.1812e-16 -8.39566 15.7426)
(1.42343e-15 -7.74328 14.3381)
(-4.59433e-16 -6.84663 12.5547)
(-5.83455e-16 -5.23646 9.55726)
(2.82913e-15 -2.09942 4.03081)
(1.08144e-15 4.08564 -5.9531)
(-1.14696e-15 2.13527 -6.91355)
(1.97263e-14 -13.6034 27.9663)
(1.15269e-14 -17.1829 25.3916)
(-1.06976e-15 -12.658 24.7652)
(4.77744e-15 -14.0688 21.8242)
(1.27707e-15 -11.8034 20.8277)
(1.42552e-15 -11.6931 18.7804)
(2.3056e-15 -10.5931 17.3033)
(6.32138e-16 -9.96804 15.6536)
(2.00991e-16 -9.25024 14.1777)
(1.42574e-15 -8.60189 12.7518)
(8.0114e-16 -7.9004 11.1935)
(-2.48142e-16 -6.80893 9.20416)
(6.68381e-16 -5.18476 6.25242)
(5.44549e-16 -2.68169 3.053)
(-1.06661e-15 -0.231439 -1.508)
(1.94971e-14 -13.3587 26.7656)
(1.21691e-14 -16.7071 25.0796)
(-1.39962e-15 -12.457 23.99)
(4.18794e-15 -13.6349 20.9193)
(1.01038e-15 -11.2852 19.9259)
(9.57901e-16 -11.188 17.6888)
(2.03277e-15 -9.93828 16.2275)
(-1.28562e-16 -9.37253 14.6299)
(-8.73669e-16 -8.72336 13.2987)
(1.45996e-16 -8.15509 11.9728)
(-4.97773e-16 -7.55825 10.6151)
(-9.39784e-16 -6.77552 9.24518)
(-3.55031e-16 -5.83088 7.67495)
(-1.4968e-15 -4.29115 5.92675)
(-4.76906e-15 -1.75511 1.40203)
(2.08503e-14 -13.2913 26.0709)
(1.173e-14 -15.7901 24.3479)
(-4.7633e-16 -11.9813 23.1841)
(3.82925e-15 -12.8062 20.1793)
(1.31328e-15 -10.3251 19.194)
(2.09641e-15 -10.1522 16.8587)
(1.22941e-15 -8.45957 15.2984)
(7.43996e-16 -7.58687 13.0467)
(1.76882e-15 -6.51518 11.2112)
(7.32416e-16 -6.20988 9.95629)
(5.2399e-16 -6.21919 9.46462)
(8.62345e-16 -6.50047 9.45666)
(-6.65023e-16 -6.6849 9.77883)
(-1.41414e-15 -6.4741 9.63318)
(-1.60404e-15 -4.46767 7.20237)
(2.16206e-14 -14.1871 27.1752)
(8.85997e-15 -15.3419 24.9183)
(3.54341e-16 -12.3527 23.9559)
(2.73267e-15 -12.4893 21.6133)
(1.14604e-15 -10.4315 20.6615)
(1.21515e-15 -9.83428 18.7496)
(-2.1602e-17 -7.77928 16.6286)
(1.29617e-15 -5.7508 13.0781)
(1.762e-15 -3.35291 9.47608)
(-3.33209e-16 -1.83089 6.69177)
(-1.2281e-15 -1.33153 5.60736)
(-1.60602e-15 -2.3732 6.69669)
(-3.69767e-15 -4.6521 9.5644)
(-4.39401e-15 -6.86703 12.0295)
(-1.24855e-15 -5.48615 10.5664)
(2.17736e-14 -15.4659 29.1875)
(7.20183e-15 -16.7215 27.245)
(-4.80966e-16 -13.6056 25.9551)
(2.09655e-15 -13.8303 23.9702)
(3.94162e-17 -11.9973 23.1199)
(-1.01745e-16 -11.6074 21.4462)
(-8.95164e-16 -9.72368 19.4908)
(-3.42107e-17 -7.72065 15.9421)
(7.91303e-16 -4.90428 12.0238)
(-4.26476e-16 -2.43843 8.22834)
(2.83702e-17 -0.0450879 4.7359)
(2.07429e-15 1.74795 1.68899)
(2.45533e-15 2.10022 0.535854)
(2.81203e-15 0.493264 1.93411)
(2.06803e-15 -1.24214 3.7581)
(2.05106e-14 -15.0832 27.6979)
(1.01937e-14 -18.6624 30.0039)
(8.19698e-16 -15.0436 27.2934)
(1.46839e-15 -15.0439 24.861)
(-1.92211e-16 -13.4583 23.8033)
(7.9148e-16 -13.2441 22.1381)
(-6.00425e-16 -11.9918 20.5728)
(-8.86742e-16 -10.7769 18.04)
(1.22543e-15 -8.80984 15.0756)
(1.25814e-16 -6.69388 11.7546)
(-2.03456e-16 -4.21208 8.13945)
(5.29666e-15 -1.49414 3.98698)
(2.74347e-15 1.52428 -0.598431)
(3.72676e-15 3.92206 -4.24486)
(5.15914e-15 2.3484 -5.26995)
(1.9219e-14 -13.2116 23.4584)
(1.39403e-14 -18.7754 30.3333)
(3.40705e-15 -15.7496 27.286)
(1.71714e-15 -14.8821 23.9764)
(2.22347e-16 -13.4688 22.3127)
(1.22348e-15 -13.0048 20.5077)
(1.03454e-15 -12.1183 18.9191)
(-4.75141e-17 -11.2885 17.0007)
(9.94501e-16 -10.1744 14.8972)
(1.34646e-15 -8.87011 12.5976)
(5.60316e-16 -7.38222 10.1101)
(2.27611e-15 -5.56504 7.42765)
(2.99486e-15 -3.59062 4.35234)
(2.55483e-15 -0.721381 1.13573)
(-2.04221e-15 1.20747 -4.24341)
(1.78892e-14 -11.4732 20.0067)
(1.60091e-14 -17.8335 29.4227)
(5.13984e-15 -15.5058 26.6527)
(1.75077e-15 -14.0416 22.883)
(6.83747e-16 -12.5995 20.8675)
(1.15721e-15 -11.9195 19.0216)
(1.48759e-15 -11.0419 17.4325)
(1.06588e-15 -10.2356 15.7452)
(6.47408e-16 -9.34706 14.0356)
(1.05893e-15 -8.36344 12.2882)
(1.40281e-15 -7.31899 10.4524)
(7.9668e-16 -6.04557 8.52875)
(1.13153e-15 -4.6838 6.26354)
(-4.89306e-16 -2.48789 3.4608)
(-5.94856e-15 -0.168548 -1.91566)
(1.72291e-14 -10.4957 18.2765)
(1.7342e-14 -16.96 28.5334)
(5.75181e-15 -15.104 26.0225)
(1.78795e-15 -13.3163 22.0799)
(1.19293e-15 -11.7888 19.8654)
(7.35452e-16 -11.0047 18.043)
(1.58547e-15 -10.1021 16.5369)
(1.92117e-15 -9.30563 15.0076)
(4.02511e-16 -8.48704 13.5408)
(3.34842e-16 -7.6588 12.1166)
(8.95895e-16 -6.84666 10.6629)
(-6.30605e-16 -5.88565 9.16423)
(1.38585e-16 -4.8948 7.39182)
(-1.54925e-15 -3.25826 5.19889)
(-6.84466e-15 -0.652283 -0.0252825)
(1.64587e-14 -10.3204 18.0064)
(1.77763e-14 -16.2865 27.6373)
(7.1998e-15 -14.9434 25.5986)
(1.14029e-15 -13.3829 22.0614)
(1.66124e-15 -12.0421 19.8026)
(9.30586e-16 -11.327 18.0391)
(-9.62504e-16 -10.589 16.6024)
(1.75836e-15 -9.90729 15.1896)
(1.37053e-15 -9.16746 13.7701)
(2.35431e-16 -8.34956 12.32)
(2.68044e-16 -7.50098 10.8483)
(-1.56004e-15 -6.59623 9.50037)
(-1.98102e-15 -5.80479 8.27753)
(-1.53282e-15 -4.67011 7.09602)
(-6.58597e-15 -2.37622 3.08377)
(1.50246e-14 -10.0415 16.7283)
(1.81778e-14 -15.4709 25.9805)
(4.22602e-15 -13.7005 23.1402)
(-1.7402e-15 -11.4722 19.1136)
(1.51999e-15 -9.9071 16.9008)
(1.49027e-16 -9.12413 15.4053)
(-1.04186e-15 -8.43676 14.3986)
(1.83034e-15 -8.00901 13.4598)
(1.39493e-15 -7.67661 12.7148)
(-6.27912e-17 -7.48285 12.0636)
(-1.77494e-15 -7.40055 11.5388)
(-2.78229e-15 -7.35881 11.1899)
(-2.62314e-15 -7.23419 10.9641)
(-3.11615e-15 -6.65057 10.5497)
(-7.16567e-15 -4.66731 7.63034)
(1.00878e-14 -8.68315 14.8768)
(1.79677e-14 -16.845 26.2701)
(1.11443e-14 -18.5636 27.1161)
(2.73359e-15 -17.7472 24.3479)
(-2.30467e-16 -16.0341 21.5095)
(-8.08348e-16 -14.5548 19.0229)
(-6.26769e-16 -12.8559 16.5679)
(1.34019e-15 -10.9986 14.0454)
(2.69275e-15 -9.07348 11.5689)
(1.56225e-15 -7.33919 9.2727)
(-2.31198e-15 -5.98251 7.72282)
(-4.55538e-15 -5.873 8.25321)
(-6.15814e-15 -6.8376 10.6157)
(-9.04304e-15 -7.50839 11.9832)
(-1.08466e-14 -4.6936 8.66207)
(-1.27749e-15 46.2075 6.16823)
(-3.58298e-15 12.8526 -0.101216)
(-3.08203e-15 -1.653 -1.81934)
(-3.13355e-15 1.26706 -2.08416)
(-2.99435e-15 0.8586 -2.02051)
(-4.16099e-15 0.999556 -3.17123)
(-3.05579e-15 1.14273 -2.22544)
(-3.00519e-15 1.48123 -2.1662)
(-2.95069e-15 1.49269 -2.03121)
(-3.26983e-15 2.02642 -2.62374)
(-2.15657e-15 1.83552 -1.74582)
(-1.93451e-15 2.02249 -1.61387)
(-2.8977e-15 2.60263 -1.96637)
(-2.17078e-15 2.15899 -1.31985)
(-2.19109e-15 2.45034 -1.29688)
(-2.08555e-15 2.40014 -1.28067)
(-3.04184e-15 2.94971 -1.52117)
(-2.11039e-15 2.4946 -1.06981)
(-1.88888e-15 2.65832 -1.06181)
(-2.66271e-15 3.23998 -1.194)
(-1.82173e-15 2.57198 -0.867761)
(-1.74996e-15 2.87415 -0.87732)
(-1.47686e-15 2.7739 -0.896654)
(-2.07668e-15 3.3535 -0.936546)
(-1.37102e-15 2.64398 -0.698771)
(-1.24354e-15 2.92926 -0.693315)
(-1.15489e-15 2.83386 -0.708321)
(-1.57931e-15 3.29392 -0.650024)
(-1.06818e-15 2.64452 -0.488639)
(-8.78713e-16 2.79149 -0.493271)
(-1.14046e-15 3.22722 -0.299942)
(-7.16196e-16 2.45652 -0.244755)
(-5.81646e-16 2.69777 -0.219994)
(-5.33057e-16 2.59578 -0.227708)
(-7.06093e-16 2.91791 0.0750633)
(-3.263e-16 2.27434 0.0454699)
(-2.20775e-16 2.384 0.0160578)
(-2.52292e-16 2.66383 0.414645)
(-2.55422e-17 1.96909 0.256398)
(-1.92164e-18 2.13452 0.259436)
(1.48395e-16 2.03553 0.207142)
(2.6519e-16 2.24997 0.631369)
(2.04917e-16 1.66256 0.403381)
(1.85441e-16 1.79051 0.391242)
(1.30187e-16 1.70167 0.318739)
(9.27774e-17 1.87526 0.747874)
(-1.97471e-16 1.47733 0.585699)
(-3.0495e-16 1.52321 0.484649)
(-8.0379e-16 1.64119 0.98254)
(-4.73676e-16 1.26443 0.71999)
(-6.47191e-16 1.31467 0.678195)
(-8.43202e-16 1.25208 0.557813)
(-1.48099e-15 1.23525 0.999551)
(-1.27991e-15 0.879111 0.606079)
(-1.56189e-15 0.899555 0.53588)
(-1.50233e-15 0.887589 0.442426)
(-2.30154e-15 0.765306 0.447092)
(-1.88504e-15 0.349914 -0.0648374)
(-2.52231e-15 0.349109 0.0181485)
(-3.93955e-15 0.923984 -1.63628)
(-3.28792e-15 -0.581458 -1.84074)
(-2.50859e-15 -0.0468593 -2.04742)
(-1.07223e-15 0.179529 -2.11695)
(3.52458e-16 -0.337879 -0.984934)
(-9.05956e-16 -1.16292 1.05236)
(-9.1256e-16 -0.826377 1.08844)
(-1.28149e-15 -1.91791 3.57116)
(-9.78957e-16 -2.41539 3.99217)
(-1.00465e-15 -2.70629 4.09609)
(-1.12422e-15 -2.65667 4.4052)
(-1.37999e-15 -4.32913 7.63349)
(-9.51617e-16 -4.60028 6.57949)
(-9.47684e-16 -5.23469 6.81216)
(-8.20102e-16 -5.1186 7.00912)
(-3.95545e-16 -7.62971 10.6792)
(2.6372e-16 -7.58717 8.23188)
(5.05168e-16 -7.66645 8.54952)
(1.35361e-15 -10.4911 12.1892)
(1.09857e-15 -10.1222 9.21427)
(8.47057e-16 -10.4622 10.1175)
(-3.94948e-16 -11.2168 12.6141)
(-1.13098e-16 -11.0278 12.4764)
(2.97399e-17 -11.1061 12.7416)
(2.79611e-15 -12.4276 14.1093)
(5.72768e-16 -11.6216 13.2179)
(7.08484e-16 -11.7837 13.9486)
(6.83488e-16 -11.7056 14.1539)
(6.43251e-16 -11.759 14.3748)
(6.12796e-16 -11.7524 14.6198)
(6.94641e-16 -11.8003 14.8361)
(1.04206e-15 -11.8481 14.9406)
(1.52271e-15 -11.8123 14.9651)
(3.39842e-15 -12.6903 16.0874)
(1.87987e-15 -12.1442 15.4059)
(2.14365e-15 -12.2293 15.6711)
(2.32114e-15 -12.2767 15.6312)
(2.62603e-15 -12.3026 15.3407)
(2.42637e-15 -12.4015 15.6621)
(2.36052e-15 -12.4566 15.9165)
(2.29972e-15 -12.5835 16.2591)
(2.42184e-15 -12.5955 16.6005)
(4.39933e-15 -13.5187 18.1751)
(3.3717e-15 -12.7743 16.826)
(3.35133e-15 -12.9437 17.1709)
(3.29087e-15 -12.9714 17.3114)
(3.32582e-15 -13.0808 17.471)
(3.58879e-15 -13.1441 17.5919)
(3.8723e-15 -13.256 17.6649)
(3.66015e-15 -13.2923 17.5864)
(3.58312e-15 -13.4188 17.6358)
(3.54565e-15 -13.4473 17.7827)
(4.14228e-15 -13.8142 18.9712)
(3.89566e-15 -13.2244 18.0609)
(4.01528e-15 -13.3327 18.1979)
(4.13055e-15 -13.3542 18.2834)
(4.27753e-15 -13.4509 18.4091)
(4.44205e-15 -13.4657 18.583)
(4.51822e-15 -13.5747 18.9893)
(4.5815e-15 -13.6145 19.1805)
(4.63804e-15 -13.6994 19.3547)
(5.23327e-15 -13.0269 19.2911)
(4.98159e-15 -12.8558 19.2075)
(5.00904e-15 -12.8553 19.4888)
(4.90077e-15 -12.9308 19.6007)
(5.0077e-15 -12.9055 19.3329)
(4.99451e-15 -12.9598 19.0733)
(4.91079e-15 -12.9687 18.7414)
(4.74492e-15 -12.9178 18.4875)
(4.59689e-15 -13.0736 18.5502)
(5.84808e-15 -11.1296 16.0241)
(5.10748e-15 -11.6347 17.3492)
(5.32401e-15 -11.5221 17.0767)
(5.4595e-15 -11.5309 17.1283)
(5.70446e-15 -11.4986 17.3319)
(5.98223e-15 -11.4673 17.3638)
(6.27641e-15 -11.3972 17.3438)
(6.5802e-15 -11.3435 17.3431)
(6.86055e-15 -11.4112 17.2465)
(7.96663e-15 -8.93373 14.3661)
(7.17232e-15 -9.66907 16.4821)
(6.98852e-15 -9.4247 15.7127)
(6.57257e-15 -9.48321 15.0414)
(6.05856e-15 -9.36838 14.1121)
(5.59532e-15 -9.27938 13.1273)
(6.06312e-15 -9.17405 12.3385)
(5.06207e-15 -8.94318 10.9883)
(4.53731e-15 -8.6994 9.77625)
(4.03248e-15 -8.53241 8.61189)
(2.01376e-15 -5.1938 2.51944)
(3.7691e-15 -6.67514 7.11784)
(3.39758e-15 -6.11155 5.88437)
(3.00736e-15 -6.16544 5.62268)
(2.72427e-15 -5.80082 5.0943)
(2.46055e-15 -5.68687 4.59953)
(1.83777e-15 -5.47766 3.46592)
(1.20644e-15 -5.13057 2.33098)
(1.40274e-15 -5.09078 2.44546)
(-3.79493e-16 -3.66029 -1.01323)
(1.01722e-15 -4.08073 1.66837)
(6.80169e-16 -3.96815 0.624889)
(-1.31352e-15 -2.67799 -2.63422)
(-5.89271e-16 -4.6539 -1.42345)
(-8.16976e-16 -3.02547 -1.57997)
(-6.65189e-16 -2.86415 -1.06018)
(-8.42705e-16 -3.17983 -1.65592)
(-5.92434e-16 -2.2276 -1.08631)
(-6.96076e-16 -2.51061 -1.78228)
(-5.18586e-16 -1.85375 -1.43382)
(-3.57493e-16 -1.52974 -1.0973)
(-4.74666e-16 -1.45232 -1.7677)
(-5.06726e-16 -0.990166 -1.39262)
(-5.26182e-16 -0.744552 -1.04272)
(-7.406e-16 -0.569343 -1.52761)
(-8.99908e-16 -0.301715 -0.968408)
(-7.73026e-16 -0.0397328 -1.48766)
(-1.13324e-16 0.168178 -1.06185)
(-1.15735e-16 0.253623 -0.521488)
(-9.49408e-16 0.581965 -0.759273)
(-9.85801e-16 0.534924 -0.636877)
(-9.78026e-16 0.771797 -0.727738)
(-4.47313e-16 0.972273 -0.694514)
(-8.07204e-17 0.891084 -0.48242)
(1.19322e-16 1.14962 -0.577685)
(-2.72656e-16 1.36971 -0.556959)
(-3.43161e-16 1.10626 -0.37134)
(-5.14108e-16 1.65094 -0.44855)
(-5.20155e-16 1.29316 -0.333046)
(-1.22108e-15 1.53353 -0.397823)
(-1.74963e-15 1.7334 -0.381391)
(-1.21773e-15 1.35792 -0.274815)
(-1.68776e-15 1.97337 -0.366268)
(-1.43695e-15 1.48059 -0.323484)
(-2.02679e-15 1.79199 -0.447692)
(-2.75036e-15 1.78702 -0.621467)
(-1.90336e-15 1.44333 -0.552281)
(-1.87669e-15 1.86991 -0.756751)
(-1.67413e-15 1.71536 -0.977496)
(-9.7449e-16 1.31689 -0.759629)
(-1.38078e-15 1.95645 -1.08554)
(-1.16876e-15 1.42397 -0.848633)
(-1.73163e-15 1.74128 -1.04477)
(-2.06052e-15 1.67222 -1.21467)
(-1.33612e-15 1.32924 -0.857383)
(-1.75812e-15 1.95081 -1.1679)
(-1.28182e-15 1.5005 -0.878094)
(-1.53195e-15 1.82633 -1.07922)
(-1.97645e-15 1.82055 -1.261)
(-1.35296e-15 1.56921 -0.871071)
(-1.50329e-15 1.97879 -1.05236)
(-1.29632e-15 1.97092 -1.17364)
(-6.26088e-16 1.6065 -0.776381)
(-4.09726e-16 2.28134 -1.02408)
(-1.31743e-16 1.78809 -0.703603)
(-1.24261e-16 2.08099 -0.831464)
(-6.6637e-16 2.14977 -0.876123)
(-6.96429e-16 1.73149 -0.557494)
(-1.44107e-15 2.41833 -0.703386)
(-1.3293e-15 1.86252 -0.464659)
(-1.8613e-15 2.16494 -0.538083)
(-2.37169e-15 2.16994 -0.533084)
(-1.60287e-15 1.82006 -0.334542)
(-1.88664e-15 2.19242 -0.380041)
(-1.56206e-15 2.21445 -0.337284)
(-7.44905e-16 1.74933 -0.218603)
(-5.84882e-16 2.41141 -0.252891)
(-2.80114e-16 1.85869 -0.157952)
(-2.8091e-16 2.09228 -0.167179)
(-8.38412e-16 2.21699 -0.102014)
(-8.92236e-16 1.76031 -0.0633688)
(-1.81257e-15 2.3928 -0.0580257)
(-1.67197e-15 1.85311 -0.0241734)
(-2.36375e-15 2.09794 -0.0202568)
(-2.70409e-15 2.18586 0.0320983)
(-1.73378e-15 1.85242 0.032992)
(-1.82391e-15 2.146 0.0324313)
(-1.51242e-15 2.29289 0.0432134)
(-7.22054e-16 1.83571 0.0189874)
(-5.15595e-16 2.48802 -0.0500138)
(-1.43677e-16 1.95434 -0.0373886)
(4.3048e-16 2.27526 -0.141054)
(-1.95586e-19 1.15768 1.69145)
(-7.36747e-19 1.33666 1.71529)
(-1.6832e-18 1.37417 1.73601)
(-3.01154e-18 1.46658 1.76941)
(-2.76833e-18 1.52316 1.80185)
(7.21424e-18 1.59458 1.84425)
(5.07622e-17 1.65446 1.89427)
(1.82582e-16 1.71401 1.96743)
(5.03418e-16 1.76162 2.08283)
(1.15801e-15 1.79371 2.27259)
(2.2942e-15 1.80273 2.56598)
(3.9816e-15 1.78826 2.97425)
(6.13389e-15 1.75654 3.47426)
(8.49765e-15 1.72026 4.01149)
(1.07274e-14 1.69261 4.51989)
(1.25002e-14 1.68213 4.94607)
(1.36042e-14 1.69025 5.26257)
(1.39699e-14 1.71249 5.4671)
(1.36517e-14 1.74129 5.57346)
(1.27863e-14 1.76889 5.60184)
(1.15512e-14 1.78945 5.5724)
(1.01307e-14 1.80046 5.50263)
(8.69163e-15 1.80308 5.40665)
(7.36364e-15 1.8013 5.29524)
(6.22237e-15 1.79967 5.17607)
(5.27303e-15 1.80041 5.05461)
(4.43701e-15 1.80164 4.93584)
(3.54827e-15 1.79714 4.82605)
(2.36725e-15 1.77733 4.73361)
(5.92842e-16 1.73351 4.66931)
(-2.18628e-15 1.66811 4.64785)
(-6.39813e-15 1.56891 4.67397)
(-1.12233e-14 1.24772 4.65132)
(-1.26607e-14 0.338204 4.28856)
(-9.58418e-15 -0.70686 3.77325)
(-7.68448e-15 -1.22656 3.57753)
(-6.20986e-15 -1.51925 3.42945)
(-4.84189e-15 -1.80574 3.27843)
(-3.54162e-15 -2.12072 3.1331)
(-2.27031e-15 -2.45343 2.9936)
(-9.72057e-16 -2.79507 2.85563)
(3.96575e-16 -3.13566 2.71835)
(1.87104e-15 -3.46562 2.58015)
(3.46593e-15 -3.77711 2.44155)
(5.17149e-15 -4.06549 2.30233)
(6.93981e-15 -4.32839 2.1634)
(8.69161e-15 -4.56626 2.02482)
(1.03222e-14 -4.78019 1.88535)
(1.17051e-14 -4.97093 1.74388)
(1.27194e-14 -5.13692 1.59838)
(1.32649e-14 -5.27307 1.4471)
(1.32809e-14 -5.37736 1.29126)
(1.27785e-14 -5.45341 1.1312)
(1.18237e-14 -5.50389 0.967322)
(1.05251e-14 -5.51527 0.795931)
(9.02009e-15 -5.47785 0.622028)
(7.40889e-15 -5.39083 0.446858)
(5.72296e-15 -5.23343 0.274965)
(3.97302e-15 -4.95662 0.111413)
(2.28433e-15 -4.49577 -0.0327875)
(9.12274e-16 -3.85859 -0.146301)
(2.03557e-16 -3.21513 -0.222721)
(-6.8118e-19 -2.63347 -0.277991)
(-1.51015e-17 -2.13725 -0.310919)
(-3.99934e-18 -1.74042 -0.337793)
(-9.41417e-20 -1.43719 -0.355492)
(1.89116e-19 -1.18418 -0.374119)
(4.3471e-20 -1.04222 -0.386383)
(-6.46094e-22 -0.881644 -0.405169)
(-2.37746e-21 -0.826344 -0.412519)
(-6.98679e-22 -0.496103 -0.439372)
(9.89434e-22 -0.284797 -0.420659)
(-7.18423e-21 -0.054166 -0.511577)
(2.08681e-20 1.02846 -0.543514)
(-8.63847e-20 2.52698 -0.403233)
(3.49887e-19 3.17939 -0.0319458)
(-9.33042e-19 3.86831 -0.286455)
(1.03362e-17 3.62958 0.152138)
(-4.74159e-17 -2.42882 -0.416482)
(-5.87417e-19 1.15369 1.78086)
(-1.7573e-18 1.33001 1.80467)
(-3.17023e-18 1.36541 1.8232)
(-3.31785e-18 1.4561 1.86069)
(5.5593e-18 1.51102 1.89482)
(4.71949e-17 1.57933 1.94618)
(1.78565e-16 1.63351 2.01538)
(5.09378e-16 1.68112 2.13261)
(1.20501e-15 1.70783 2.33029)
(2.44247e-15 1.70893 2.64791)
(4.30915e-15 1.68132 3.10027)
(6.69407e-15 1.6342 3.65971)
(9.26806e-15 1.58475 4.25519)
(1.15944e-14 1.55164 4.80221)
(1.32976e-14 1.54621 5.23788)
(1.41781e-14 1.56945 5.53802)
(1.42265e-14 1.61421 5.71105)
(1.35712e-14 1.66982 5.78158)
(1.2412e-14 1.72581 5.7764)
(1.09687e-14 1.77396 5.71764)
(9.44732e-15 1.8092 5.62178)
(8.01962e-15 1.83003 5.50127)
(6.80645e-15 1.83866 5.36631)
(5.86315e-15 1.84001 5.22577)
(5.16503e-15 1.83939 5.08728)
(4.59487e-15 1.8394 4.95773)
(3.93821e-15 1.83795 4.84465)
(2.89769e-15 1.8283 4.75744)
(1.13832e-15 1.80016 4.70684)
(-1.66291e-15 1.74393 4.70319)
(-5.86261e-15 1.66299 4.75659)
(-1.17956e-14 1.56315 4.86615)
(-1.81684e-14 1.30496 4.9251)
(-1.87956e-14 0.487948 4.53286)
(-1.06351e-14 -0.670354 3.71437)
(-7.11905e-15 -1.22209 3.49338)
(-5.83433e-15 -1.5054 3.39081)
(-4.61789e-15 -1.79567 3.24039)
(-3.36432e-15 -2.11578 3.09732)
(-2.11795e-15 -2.4514 2.96419)
(-8.38365e-16 -2.79402 2.83254)
(5.18206e-16 -3.13403 2.70091)
(1.98449e-15 -3.46211 2.56773)
(3.57241e-15 -3.77094 2.43322)
(5.26994e-15 -4.05624 2.29729)
(7.02797e-15 -4.31581 2.16103)
(8.76685e-15 -4.54998 2.02445)
(1.03817e-14 -4.75981 1.88645)
(1.17471e-14 -4.94603 1.74605)
(1.27435e-14 -5.10702 1.60125)
(1.32721e-14 -5.23818 1.45048)
(1.32745e-14 -5.33779 1.29496)
(1.27629e-14 -5.40945 1.13517)
(1.18035e-14 -5.4552 0.971456)
(1.05047e-14 -5.46207 0.800236)
(9.0024e-15 -5.42101 0.626466)
(7.3952e-15 -5.3311 0.451421)
(5.71371e-15 -5.1719 0.279492)
(3.96885e-15 -4.89502 0.115483)
(2.28508e-15 -4.43638 -0.0299232)
(9.16035e-16 -3.80286 -0.145532)
(2.06331e-16 -3.16158 -0.224958)
(-2.90688e-19 -2.58043 -0.284099)
(-1.56063e-17 -2.08377 -0.321857)
(-4.28273e-18 -1.68683 -0.353903)
(-1.26368e-19 -1.38551 -0.376621)
(2.09489e-19 -1.13655 -0.398496)
(5.17668e-20 -1.00056 -0.412615)
(-1.05382e-22 -0.84884 -0.431722)
(-2.84387e-21 -0.800221 -0.438882)
(-9.28527e-22 -0.485682 -0.466062)
(1.06569e-21 -0.26079 -0.43488)
(-6.24222e-21 -0.039812 -0.57565)
(1.77293e-20 1.00568 -0.606233)
(-7.1429e-20 2.44404 -0.430605)
(2.71298e-19 3.15971 -0.029045)
(-6.7369e-19 3.84166 -0.304872)
(1.71352e-17 3.6487 0.137896)
(-4.54505e-17 -2.37252 -0.419636)
(-1.15366e-18 1.15128 1.83105)
(-2.76169e-18 1.32765 1.85525)
(-3.37655e-18 1.36094 1.87189)
(2.12317e-18 1.4507 1.91263)
(3.18744e-17 1.50388 1.95017)
(1.32152e-16 1.5682 2.0146)
(3.98172e-16 1.6144 2.11266)
(9.84527e-16 1.6474 2.28663)
(2.07525e-15 1.65306 2.57262)
(3.78999e-15 1.63086 2.99726)
(6.06344e-15 1.58643 3.54174)
(8.59789e-15 1.53719 4.14089)
(1.09586e-14 1.50224 4.7074)
(1.27511e-14 1.49444 5.17186)
(1.37521e-14 1.51609 5.50403)
(1.3934e-14 1.56139 5.70878)
(1.3413e-14 1.6209 5.80899)
(1.23809e-14 1.68502 5.83049)
(1.10526e-14 1.74552 5.79448)
(9.6329e-15 1.7961 5.71621)
(8.29554e-15 1.8327 5.60673)
(7.16656e-15 1.85414 5.47531)
(6.30872e-15 1.86252 5.33115)
(5.70609e-15 1.8626 5.18393)
(5.25097e-15 1.85951 5.04348)
(4.73764e-15 1.85564 4.9198)
(3.87159e-15 1.84862 4.82366)
(2.30682e-15 1.83153 4.76675)
(-2.79674e-16 1.79442 4.7595)
(-4.11415e-15 1.72842 4.80768)
(-9.3811e-15 1.63827 4.9121)
(-1.62505e-14 1.53863 5.06398)
(-2.33606e-14 1.32432 5.16759)
(-2.40716e-14 0.613385 4.81118)
(-1.30993e-14 -0.517011 3.78715)
(-6.94648e-15 -1.15799 3.3936)
(-5.26778e-15 -1.46713 3.31744)
(-4.26435e-15 -1.7499 3.19016)
(-3.13171e-15 -2.06933 3.05012)
(-1.92138e-15 -2.40578 2.92206)
(-6.62615e-16 -2.74839 2.79864)
(6.77443e-16 -3.08863 2.67519)
(2.13178e-15 -3.41734 2.54937)
(3.70975e-15 -3.72721 2.42108)
(5.39611e-15 -4.01392 2.29024)
(7.14025e-15 -4.27516 2.15808)
(8.86207e-15 -4.511 2.02466)
(1.04566e-14 -4.72232 1.88902)
(1.17996e-14 -4.9097 1.75031)
(1.27732e-14 -5.07147 1.60664)
(1.32807e-14 -5.20333 1.45663)
(1.32662e-14 -5.30376 1.30161)
(1.27431e-14 -5.37622 1.14218)
(1.1778e-14 -5.42238 0.978634)
(1.04791e-14 -5.42976 0.807539)
(8.98024e-15 -5.38983 0.63382)
(7.37801e-15 -5.30164 0.458774)
(5.70203e-15 -5.14517 0.286585)
(3.96346e-15 -4.87278 0.121746)
(2.28579e-15 -4.42125 -0.0254545)
(9.20496e-16 -3.79717 -0.143952)
(2.09679e-16 -3.16452 -0.227407)
(2.10889e-19 -2.59031 -0.29178)
(-1.62016e-17 -2.09862 -0.336195)
(-4.6307e-18 -1.70446 -0.375643)
(-1.70646e-19 -1.40404 -0.405797)
(2.34084e-19 -1.15492 -0.43315)
(6.28085e-20 -1.01603 -0.450746)
(8.2348e-22 -0.861922 -0.470937)
(-3.46076e-21 -0.806843 -0.477511)
(-1.25947e-21 -0.493922 -0.50482)
(1.0947e-21 -0.2565 -0.45666)
(-5.36659e-21 -0.0170531 -0.612041)
(1.60153e-20 0.993388 -0.638309)
(-6.31613e-20 2.39951 -0.455794)
(2.32477e-19 3.14844 -0.0319228)
(-5.45332e-19 3.83368 -0.312229)
(2.17082e-17 3.64636 0.131803)
(-4.27388e-17 -2.36879 -0.309766)
(-1.97154e-18 1.14755 1.89085)
(-3.33227e-18 1.32382 1.91593)
(-3.57309e-20 1.35393 1.93099)
(2.10615e-17 1.44187 1.97703)
(9.73597e-17 1.49149 2.02314)
(3.10805e-16 1.5482 2.11264)
(8.05452e-16 1.58053 2.26112)
(1.77127e-15 1.59112 2.52095)
(3.36318e-15 1.56865 2.92103)
(5.56882e-15 1.51986 3.45871)
(8.12638e-15 1.46007 4.07377)
(1.05917e-14 1.41195 4.67472)
(1.25252e-14 1.39271 5.17981)
(1.36566e-14 1.40861 5.54832)
(1.39314e-14 1.45542 5.78056)
(1.3462e-14 1.52345 5.90002)
(1.245e-14 1.60192 5.93522)
(1.11242e-14 1.68132 5.90978)
(9.70344e-15 1.75395 5.83999)
(8.37423e-15 1.814 5.7364)
(7.27459e-15 1.85771 5.60664)
(6.47856e-15 1.88394 5.45817)
(5.97956e-15 1.89467 5.30014)
(5.67492e-15 1.89458 5.1439)
(5.35732e-15 1.8888 5.00246)
(4.72172e-15 1.87966 4.88975)
(3.3993e-15 1.86472 4.81996)
(1.02795e-15 1.83732 4.80575)
(-2.64341e-15 1.78845 4.85427)
(-7.67205e-15 1.71051 4.96276)
(-1.40097e-14 1.60967 5.11997)
(-2.16417e-14 1.51093 5.31005)
(-2.92625e-14 1.34975 5.45236)
(-3.02657e-14 0.762251 5.1477)
(-1.70517e-14 -0.3763 3.9647)
(-7.56915e-15 -1.10635 3.33366)
(-4.81138e-15 -1.44951 3.22376)
(-3.7899e-15 -1.72663 3.12191)
(-2.83624e-15 -2.04348 2.99505)
(-1.70493e-15 -2.38122 2.87168)
(-4.69158e-16 -2.72419 2.75573)
(8.54893e-16 -3.06397 2.64208)
(2.29472e-15 -3.39199 2.52579)
(3.86034e-15 -3.70128 2.40568)
(5.5335e-15 -3.98762 2.28166)
(7.2617e-15 -4.24869 2.15503)
(8.96436e-15 -4.48435 2.0259)
(1.05365e-14 -4.69538 1.89348)
(1.18551e-14 -4.88227 1.75708)
(1.28042e-14 -5.04328 1.61496)
(1.32893e-14 -5.1744 1.46599)
(1.32567e-14 -5.2743 1.31161)
(1.27216e-14 -5.34632 1.15259)
(1.17508e-14 -5.39174 0.98916)
(1.04517e-14 -5.39855 0.818092)
(8.95654e-15 -5.35863 0.644295)
(7.35956e-15 -5.27096 0.469089)
(5.68936e-15 -5.11581 0.296442)
(3.95739e-15 -4.84612 0.130531)
(2.28616e-15 -4.39927 -0.0188132)
(9.2484e-16 -3.78155 -0.140771)
(2.13059e-16 -3.15434 -0.22911)
(7.59519e-19 -2.5841 -0.299864)
(-1.67936e-17 -2.09494 -0.352448)
(-4.99724e-18 -1.70217 -0.401187)
(-2.23799e-19 -1.40274 -0.440864)
(2.5963e-19 -1.15476 -0.475786)
(7.57559e-20 -1.01572 -0.498503)
(2.22219e-21 -0.862629 -0.520815)
(-4.16456e-21 -0.804781 -0.526778)
(-1.68049e-21 -0.498891 -0.554489)
(1.03853e-21 -0.248227 -0.488487)
(-4.50562e-21 0.00412259 -0.651172)
(1.40207e-20 0.971786 -0.681798)
(-5.36388e-20 2.33306 -0.488739)
(1.87445e-19 3.1291 -0.0367131)
(-3.72268e-19 3.81894 -0.314968)
(2.52559e-17 3.64245 0.1354)
(-3.92843e-17 -2.36303 -0.273929)
(-2.72544e-18 1.14379 1.94954)
(-1.30748e-18 1.32115 1.97597)
(1.36271e-17 1.34722 1.99033)
(7.10215e-17 1.43245 2.0456)
(2.39953e-16 1.47594 2.10994)
(6.50303e-16 1.5202 2.24344)
(1.49117e-15 1.53202 2.4703)
(2.94461e-15 1.51464 2.843)
(5.05264e-15 1.46433 3.36447)
(7.59975e-15 1.39844 3.98803)
(1.01441e-14 1.34017 4.61814)
(1.22048e-14 1.31129 5.1617)
(1.34619e-14 1.32105 5.56574)
(1.38318e-14 1.36648 5.82532)
(1.34225e-14 1.43749 5.96464)
(1.24447e-14 1.52275 6.0154)
(1.11394e-14 1.61255 6.00399)
(9.73591e-15 1.69935 5.94793)
(8.42973e-15 1.77716 5.85736)
(7.36831e-15 1.84117 5.73815)
(6.63735e-15 1.88788 5.59519)
(6.24384e-15 1.91579 5.43511)
(6.09685e-15 1.9263 5.26821)
(5.99237e-15 1.92343 5.10899)
(5.61425e-15 1.91189 4.97512)
(4.56634e-15 1.89387 4.8853)
(2.44597e-15 1.86727 4.85628)
(-1.04699e-15 1.82653 4.89866)
(-5.99366e-15 1.7648 5.01165)
(-1.22015e-14 1.67674 5.17969)
(-1.93526e-14 1.56959 5.3777)
(-2.72645e-14 1.4738 5.58503)
(-3.48819e-14 1.35917 5.74682)
(-3.63844e-14 0.905966 5.51432)
(-2.26168e-14 -0.179057 4.27479)
(-9.0413e-15 -1.01704 3.32474)
(-4.73149e-15 -1.42635 3.13143)
(-3.30564e-15 -1.70832 3.03392)
(-2.45128e-15 -2.02237 2.92666)
(-1.453e-15 -2.36092 2.81386)
(-2.64486e-16 -2.70525 2.7048)
(1.04421e-15 -3.04528 2.601)
(2.46941e-15 -3.37249 2.49618)
(4.02035e-15 -3.68066 2.38641)
(5.67828e-15 -3.96596 2.27111)
(7.38889e-15 -4.22605 2.15163)
(9.07081e-15 -4.46066 2.02811)
(1.0619e-14 -4.67049 1.89995)
(1.1912e-14 -4.85594 1.76662)
(1.28356e-14 -5.01524 1.62659)
(1.32974e-14 -5.14471 1.47901)
(1.32464e-14 -5.2432 1.32547)
(1.26991e-14 -5.31393 1.16692)
(1.17223e-14 -5.35779 1.00355)
(1.04232e-14 -5.36321 0.83239)
(8.93182e-15 -5.32254 0.658342)
(7.34018e-15 -5.23463 0.482761)
(5.67585e-15 -5.08002 0.309395)
(3.95056e-15 -4.81221 0.142086)
(2.28594e-15 -4.36917 -0.00984772)
(9.28778e-16 -3.75686 -0.135883)
(2.16317e-16 -3.13407 -0.229937)
(1.33944e-18 -2.56667 -0.308189)
(-1.73625e-17 -2.0791 -0.370421)
(-5.37528e-18 -1.6873 -0.430323)
(-2.86484e-19 -1.38935 -0.481623)
(2.85592e-19 -1.14381 -0.526221)
(9.08324e-20 -1.00652 -0.555789)
(4.26612e-21 -0.856924 -0.581404)
(-4.94135e-21 -0.798083 -0.587107)
(-2.21286e-21 -0.503359 -0.6157)
(8.73991e-22 -0.239373 -0.533769)
(-3.72947e-21 0.0287757 -0.693669)
(1.2148e-20 0.952921 -0.724144)
(-4.48729e-20 2.27139 -0.526966)
(1.47646e-19 3.1077 -0.0442568)
(-1.86108e-19 3.80731 -0.312277)
(2.65197e-17 3.62518 0.148636)
(-3.7966e-17 -2.35132 -0.143396)
(-2.27027e-18 1.13926 2.00957)
(8.58286e-18 1.3182 2.03846)
(5.16234e-17 1.3387 2.05468)
(1.83737e-16 1.41893 2.12725)
(5.19573e-16 1.45174 2.22662)
(1.24e-15 1.47658 2.43122)
(2.54724e-15 1.46082 2.76696)
(4.53557e-15 1.41271 3.26773)
(7.04822e-15 1.34017 3.8917)
(9.66001e-15 1.27 4.54863)
(1.18537e-14 1.22671 5.13211)
(1.3252e-14 1.22456 5.57552)
(1.37329e-14 1.26298 5.86567)
(1.3394e-14 1.33256 6.02654)
(1.24538e-14 1.42148 6.09315)
(1.11663e-14 1.5195 6.09538)
(9.77202e-15 1.61877 6.05282)
(8.47544e-15 1.7132 5.97608)
(7.43335e-15 1.79763 5.87012)
(6.74405e-15 1.86742 5.73771)
(6.4322e-15 1.91872 5.58244)
(6.4276e-15 1.94929 5.41157)
(6.54158e-15 1.95954 5.23812)
(6.45458e-15 1.95263 5.08144)
(5.73791e-15 1.93283 4.96519)
(3.93108e-15 1.90261 4.91257)
(6.7024e-16 1.86117 4.93998)
(-4.17563e-15 1.80533 5.05061)
(-1.04215e-14 1.73135 5.23045)
(-1.759e-14 1.63644 5.44891)
(-2.51293e-14 1.52767 5.66892)
(-3.27564e-14 1.43715 5.86951)
(-3.98051e-14 1.36356 6.02861)
(-4.17737e-14 1.04416 5.87621)
(-2.92793e-14 0.0766238 4.71082)
(-1.13769e-14 -0.875298 3.37465)
(-5.14848e-15 -1.38835 3.05119)
(-2.98798e-15 -1.68833 2.9355)
(-2.00978e-15 -2.00133 2.84115)
(-1.13447e-15 -2.33912 2.74595)
(-3.8683e-17 -2.6841 2.64706)
(1.242e-15 -3.02488 2.55248)
(2.65386e-15 -3.35161 2.45977)
(4.18911e-15 -3.65866 2.36233)
(5.82964e-15 -3.94287 2.25774)
(7.52099e-15 -4.202 2.14712)
(9.18077e-15 -4.43562 2.03065)
(1.07038e-14 -4.64435 1.90792)
(1.197e-14 -4.82851 1.77856)
(1.28672e-14 -4.9863 1.64126)
(1.3305e-14 -5.11435 1.49552)
(1.32352e-14 -5.21169 1.3431)
(1.26753e-14 -5.28139 1.18512)
(1.16926e-14 -5.32395 1.02182)
(1.03935e-14 -5.32827 0.85046)
(8.90597e-15 -5.28713 0.675993)
(7.31976e-15 -5.19927 0.499823)
(5.66133e-15 -5.04543 0.325471)
(3.94279e-15 -4.77968 0.156439)
(2.28494e-15 -4.34067 0.00149401)
(9.32142e-16 -3.73407 -0.129144)
(2.1938e-16 -3.11596 -0.229571)
(1.94335e-18 -2.55161 -0.316226)
(-1.79034e-17 -2.06575 -0.389334)
(-5.76433e-18 -1.675 -0.462004)
(-3.6e-19 -1.37867 -0.526793)
(3.11707e-19 -1.13586 -0.583012)
(1.08421e-19 -1.00034 -0.621114)
(7.19311e-21 -0.85433 -0.651251)
(-5.7696e-21 -0.793691 -0.657273)
(-2.88673e-21 -0.510657 -0.686976)