/*--------------------------------*- C++ -*----------------------------------*\
| =========                 |                                                 |
| \\      /  F ield         | OpenFOAM: The Open Source CFD Toolbox           |
|  \\    /   O peration     | Version:  4.1                                   |
|   \\  /    A nd           | Web:      www.OpenFOAM.org                      |
|    \\/     M anipulation  |                                                 |
\*---------------------------------------------------------------------------*/
FoamFile
{
    version     2.0;
    format      ascii;
    class       volScalarField;
    location    "21";
    object      p;
}
// * * * * * * * * * * * * * * * * * * * * * * * * * * * * * * * * * * * * * //

dimensions      [0 2 -2 0 0 0 0];

internalField   nonuniform List<scalar> 
225
(
523.378
469.981
418.15
369.738
324.847
282.831
243.476
206.472
171.378
138.014
107.072
78.933
49.9041
14.9853
-14.1668
56.9439
34.6829
28.9242
25.214
19.7399
14.0324
8.87955
4.49079
1.00686
-1.45189
-2.64319
-2.14154
-0.0450965
1.82643
2.0866
-45.8386
-52.4816
-46.7146
-42.5678
-39.4772
-35.8818
-31.9955
-28.0582
-24.1538
-20.4379
-17.0924
-14.0253
-10.9484
-8.29563
-7.06138
0.29512
-2.12294
2.46987
2.79401
2.84759
3.06278
2.97365
2.59635
2.01479
1.25561
0.298859
-0.810486
-1.72078
-1.87302
-1.56255
16.723
14.3902
15.9439
13.8459
12.4271
11.1835
9.77356
8.3917
7.13427
6.04322
5.14221
4.42967
3.95208
3.91936
4.16422
7.49486
5.4718
6.44579
5.22645
5.02345
5.00768
4.9199
4.95322
5.10881
5.35232
5.67161
6.03448
6.35415
6.61086
6.7856
4.02343
2.86798
3.95357
3.63047
4.01728
4.41141
4.71038
5.06103
5.4176
5.74236
6.03206
6.28597
6.4642
6.54522
6.56094
5.70123
5.14341
5.99775
5.76874
5.96725
6.07975
6.10365
6.14895
6.17353
6.1687
6.145
6.1172
6.08355
6.03769
5.98921
6.00843
5.68302
6.19384
5.91795
5.96077
5.92994
5.85487
5.80777
5.75213
5.69155
5.63229
5.57916
5.53243
5.48633
5.43512
4.68861
4.48093
4.8266
4.65021
4.72298
4.73194
4.71904
4.72724
4.72464
4.71787
4.70827
4.69354
4.67132
4.63605
4.57833
3.31852
3.20236
3.50005
3.44618
3.56582
3.61253
3.64118
3.67616
3.69279
3.69968
3.69769
3.68517
3.66112
3.62288
3.55734
2.34451
2.28434
2.53864
2.53999
2.65837
2.69979
2.7289
2.75601
2.76358
2.7615
2.75009
2.72918
2.69931
2.66052
2.59587
1.56531
1.53033
1.7327
1.74654
1.84576
1.87219
1.89457
1.91171
1.91205
1.9052
1.89062
1.86835
1.83877
1.80402
1.74613
0.880557
0.868451
1.02942
1.03416
1.11121
1.12483
1.14268
1.15478
1.15424
1.14929
1.1384
1.12138
1.09639
1.06521
1.01096
0.438693
0.399405
0.455265
0.423128
0.459247
0.440531
0.434165
0.420089
0.399167
0.376464
0.349838
0.321142
0.29071
0.260767
0.217752
)
;

boundaryField
{
    inletFace
    {
        type            zeroGradient;
    }
    inlet
    {
        type            zeroGradient;
    }
    inletWalls
    {
        type            zeroGradient;
    }
    outletInlet
    {
        type            fixedValue;
        value           uniform 0;
    }
}


// ************************************************************************* //
