/*--------------------------------*- C++ -*----------------------------------*\
| =========                 |                                                 |
| \\      /  F ield         | OpenFOAM: The Open Source CFD Toolbox           |
|  \\    /   O peration     | Version:  4.1                                   |
|   \\  /    A nd           | Web:      www.OpenFOAM.org                      |
|    \\/     M anipulation  |                                                 |
\*---------------------------------------------------------------------------*/
FoamFile
{
    version     2.0;
    format      ascii;
    class       surfaceScalarField;
    location    "21";
    object      phi;
}
// * * * * * * * * * * * * * * * * * * * * * * * * * * * * * * * * * * * * * //

dimensions      [0 3 -1 0 0 0 0];

internalField   nonuniform List<scalar> 
420
(
-949.879
2249.78
-1573.96
1924.28
-2054
1779.95
-2424.23
1670.13
-2699.86
1575.83
-2888.38
1488.42
-2993.06
1404.58
-3013.86
1321
-2949.61
1235.66
-2797.23
1147.52
-2551.17
1054.13
-2193
941.735
-1687.17
794.065
-1012.67
625.704
287.229
373.334
1876.44
442.747
1854.86
437.3
1785.39
406.696
1700.74
380.579
1601.94
359.899
1509.1
345.29
1419.19
337.534
1328.76
333.482
1239.71
326.952
1154.05
309.608
1071.48
267.466
983.878
191.427
870.103
111.447
705.684
398.676
33.5755
1842.87
-97.3899
1985.83
-253.615
1941.62
-371.121
1818.24
-473.185
1704.01
-567.534
1603.45
-651.75
1503.4
-725.799
1402.8
-788.077
1301.99
-837.309
1203.28
-868.228
1102.4
-856.09
971.739
-740.337
754.349
-434.285
399.63
-35.6097
28.7761
1814.09
-100.654
2115.26
-225.562
2066.53
-304.497
1897.18
-368.159
1767.67
-416.956
1652.24
-446.231
1532.68
-457.019
1413.59
-451.859
1296.83
-430.159
1181.58
-387.229
1059.47
-311.874
896.383
-192.864
635.339
-48.4079
255.17
-84.0185
169.626
1644.47
146.158
2138.72
123.733
2088.95
122.87
1898.04
126.941
1763.6
135.804
1643.38
149.101
1519.38
166.589
1396.1
186.94
1276.48
208.128
1160.4
229.129
1038.47
243.822
881.692
233.006
646.157
155.229
332.945
71.2105
223.079
1421.39
244.183
2117.62
234.746
2098.39
236.024
1896.76
240.371
1759.25
244.305
1639.45
246.548
1517.14
245.25
1397.4
241.161
1280.56
233.988
1167.57
221.382
1051.07
199.139
903.937
156.14
689.157
78.2992
410.786
149.511
203.321
1218.07
238.374
2082.57
213.62
2123.14
191.41
1918.97
177.202
1773.45
163.771
1652.88
150.038
1530.87
135.895
1411.54
121.069
1295.39
106.919
1181.72
92.8235
1065.17
75.772
920.99
52.0233
712.906
19.0196
443.789
168.533
171.855
1046.21
221.984
2032.43
199.424
2145.7
170.408
1947.99
152.058
1791.81
137.676
1667.26
122.786
1545.76
108.587
1425.74
95.5896
1308.38
83.1104
1194.2
71.4921
1076.79
58.6416
933.839
40.3289
731.217
15.7525
468.366
184.286
146.097
900.113
210.06
1968.47
196.875
2158.88
170.055
1974.81
152.407
1809.45
139.535
1680.13
127.074
1558.23
113.867
1438.95
101.322
1320.93
89.4214
1206.1
76.9881
1089.22
63.0938
947.734
44.3127
749.998
19.1718
493.507
203.456
116.76
783.352
184.849
1900.38
179.623
2164.11
154.308
2000.13
137.215
1826.54
123.995
1693.35
111.367
1570.85
98.9582
1451.35
86.1064
1333.78
73.8674
1218.34
62.1047
1100.99
49.0274
960.811
32.8594
766.166
13.186
513.177
216.64
83.1561
700.197
143.124
1840.41
144.681
2162.56
122.752
2022.06
106.14
1843.15
94.4536
1705.04
82.5694
1582.74
71.1591
1462.76
60.378
1344.56
49.4528
1229.27
39.4236
1111.02
29.7441
970.492
18.0863
777.824
5.2429
526.019
221.882
51.2344
648.956
97.917
1793.73
102.711
2157.77
87.3767
2037.39
73.1527
1857.38
63.142
1715.05
54.2412
1591.64
44.8592
1472.15
36.1439
1353.28
28.1649
1237.25
20.4154
1118.77
13.6769
977.241
6.73886
784.776
-0.407251
533.177
221.487
25.1208
623.829
57.7083
1761.15
63.4979
2151.97
53.4665
2047.41
43.901
1866.96
36.1882
1722.76
29.5689
1598.26
23.5262
1478.2
17.0826
1359.73
11.3369
1243
6.63661
1123.48
2.49557
981.384
-1.06471
788.342
-3.6848
535.806
217.811
1.4081
622.431
24.0229
1738.53
33.3125
2142.68
27.6951
2053.04
20.3432
1874.3
15.0521
1728.05
9.52878
1603.79
4.58428
1483.14
0.0484712
1364.26
-4.81438
1247.86
-8.32444
1126.98
-9.63294
982.686
-9.70361
788.405
-7.12375
533.218
210.661
-11.7516
-3.16005
1.4315
-0.42515
-5.11948
-8.86748
-11.816
-15.2529
-18.1117
-20.2406
-21.799
-21.1276
-18.128
-12.3901
)
;

boundaryField
{
    inletFace
    {
        type            calculated;
        value           nonuniform List<scalar> 
450
(
2.93433e-13
7.73319e-13
-6.17591e-14
-1.52921e-13
1.20639e-13
-1.87975e-13
-6.44602e-14
6.91823e-14
-1.03619e-13
-3.11069e-14
4.37242e-14
-5.53246e-14
-2.55394e-15
1.37278e-14
2.15159e-16
-2.9776e-12
-2.58296e-12
1.02003e-13
-3.2378e-13
-2.45626e-13
2.82453e-14
-2.86659e-13
-1.40161e-13
-5.85784e-15
-1.75356e-13
-7.74747e-14
1.38311e-14
-7.34778e-14
-1.27198e-14
1.4687e-16
-3.27448e-12
-2.79368e-12
-8.0518e-14
-3.96281e-13
-2.4549e-13
-1.11665e-13
-2.97153e-13
-1.15372e-13
-8.28576e-14
-1.50825e-13
-6.87879e-14
-5.41377e-14
-4.42467e-14
4.40545e-15
2.29743e-15
-3.54497e-12
-2.35948e-12
-1.42233e-13
-4.89129e-13
-2.47339e-13
-2.11114e-13
-4.07124e-13
-9.10399e-14
-1.19546e-13
-1.62878e-13
-8.34924e-14
-9.27213e-14
-9.13538e-14
3.29435e-14
5.91225e-14
-3.21954e-12
-2.39644e-12
-2.52451e-13
-4.63506e-13
-2.27773e-13
-2.06892e-13
-3.71217e-13
-7.45354e-14
-8.21284e-14
-1.39845e-13
-7.7275e-14
-6.75626e-14
-9.54136e-14
-8.68457e-15
7.20166e-14
-2.77635e-12
-2.58311e-12
-4.58109e-13
-4.10173e-13
-1.82488e-13
-2.16028e-13
-3.42989e-13
-9.93986e-14
-6.52416e-14
-1.4016e-13
-3.66599e-14
-4.0321e-14
-7.6648e-14
-1.76414e-15
2.59444e-14
-2.48342e-12
-2.67012e-12
-7.28963e-13
-3.73164e-13
-2.10282e-13
-2.64534e-13
-3.30923e-13
-1.60015e-13
-1.23747e-13
-1.38829e-13
-6.81035e-14
-9.51868e-14
-3.66627e-14
-6.58187e-14
-1.45734e-13
-2.16337e-12
-2.65766e-12
-9.49821e-13
-3.84646e-13
-2.34334e-13
-2.56961e-13
-3.14334e-13
-1.79249e-13
-1.48063e-13
-1.37355e-13
-1.13304e-13
-1.77666e-13
-5.42566e-14
-1.84141e-14
-2.41091e-13
-1.82275e-12
-2.6084e-12
-1.1237e-12
-4.19391e-13
-2.38983e-13
-2.2423e-13
-3.37805e-13
-2.00805e-13
-1.33284e-13
-1.28727e-13
-1.20787e-13
-1.42935e-13
-6.62632e-14
-1.92643e-14
-6.74006e-14
-1.54425e-12
-2.52036e-12
-1.25446e-12
-4.65561e-13
-2.43405e-13
-2.08722e-13
-3.26517e-13
-2.18284e-13
-9.30317e-14
-1.17715e-13
-1.19746e-13
-7.68644e-14
-5.4096e-14
-3.79172e-14
8.31264e-14
-1.27289e-12
-2.41504e-12
-1.32511e-12
-5.09124e-13
-2.55875e-13
-1.96818e-13
-2.59847e-13
-2.20595e-13
-8.27277e-14
-1.04824e-13
-1.17111e-13
-5.3508e-14
-3.21154e-14
-2.05785e-14
1.13594e-13
-1.07702e-12
-2.31329e-12
-1.34938e-12
-5.49637e-13
-2.73669e-13
-1.56375e-13
-2.4484e-13
-2.29998e-13
-8.60168e-14
-1.08137e-13
-1.25452e-13
-4.99782e-15
-3.4072e-14
1.00555e-13
1.07619e-13
-9.54961e-13
-2.21541e-12
-1.38311e-12
-5.73178e-13
-2.83787e-13
-1.47279e-13
-2.40402e-13
-2.4651e-13
-9.41828e-14
-1.02878e-13
-1.25996e-13
6.68389e-15
-2.65181e-14
1.04804e-13
1.06317e-13
-8.58362e-13
-2.12706e-12
-1.39484e-12
-5.83736e-13
-2.87172e-13
-1.50316e-13
-2.31788e-13
-2.6225e-13
-8.82987e-14
-1.06707e-13
-1.2955e-13
1.10626e-14
-1.97366e-14
8.77603e-14
1.068e-13
-8.04142e-13
-2.02636e-12
-1.38254e-12
-6.01595e-13
-2.90242e-13
-1.59451e-13
-2.31341e-13
-2.48115e-13
-9.83049e-14
-1.11419e-13
-1.12665e-13
1.37682e-15
-9.88391e-15
9.18045e-14
5.8316e-14
-2.93433e-13
-7.73319e-13
6.17591e-14
1.52921e-13
-1.20639e-13
1.87975e-13
6.44602e-14
-6.91823e-14
1.03619e-13
3.11069e-14
-4.37242e-14
5.53246e-14
2.55394e-15
-1.37278e-14
-2.15159e-16
2.9776e-12
2.58296e-12
-1.02003e-13
3.2378e-13
2.45626e-13
-2.82453e-14
2.86659e-13
1.40161e-13
5.85784e-15
1.75356e-13
7.74747e-14
-1.38311e-14
7.34778e-14
1.27198e-14
-1.4687e-16
3.27448e-12
2.79368e-12
8.0518e-14
3.96281e-13
2.4549e-13
1.11665e-13
2.97153e-13
1.15372e-13
8.28576e-14
1.50825e-13
6.87879e-14
5.41377e-14
4.42467e-14
-4.40545e-15
-2.29743e-15
3.54497e-12
2.35948e-12
1.42233e-13
4.89129e-13
2.47339e-13
2.11114e-13
4.07124e-13
9.10399e-14
1.19546e-13
1.62878e-13
8.34924e-14
9.27213e-14
9.13538e-14
-3.29435e-14
-5.91225e-14
3.21954e-12
2.39644e-12
2.52451e-13
4.63506e-13
2.27773e-13
2.06892e-13
3.71217e-13
7.45354e-14
8.21284e-14
1.39845e-13
7.7275e-14
6.75626e-14
9.54136e-14
8.68457e-15
-7.20166e-14
2.77635e-12
2.58311e-12
4.58109e-13
4.10173e-13
1.82488e-13
2.16028e-13
3.42989e-13
9.93986e-14
6.52416e-14
1.4016e-13
3.66599e-14
4.0321e-14
7.6648e-14
1.76414e-15
-2.59444e-14
2.48342e-12
2.67012e-12
7.28963e-13
3.73164e-13
2.10282e-13
2.64534e-13
3.30923e-13
1.60015e-13
1.23747e-13
1.38829e-13
6.81035e-14
9.51868e-14
3.66627e-14
6.58187e-14
1.45734e-13
2.16337e-12
2.65766e-12
9.49821e-13
3.84646e-13
2.34334e-13
2.56961e-13
3.14334e-13
1.79249e-13
1.48063e-13
1.37355e-13
1.13304e-13
1.77666e-13
5.42566e-14
1.84141e-14
2.41091e-13
1.82275e-12
2.6084e-12
1.1237e-12
4.19391e-13
2.38983e-13
2.2423e-13
3.37805e-13
2.00805e-13
1.33284e-13
1.28727e-13
1.20787e-13
1.42935e-13
6.62632e-14
1.92643e-14
6.74006e-14
1.54425e-12
2.52036e-12
1.25446e-12
4.65561e-13
2.43405e-13
2.08722e-13
3.26517e-13
2.18284e-13
9.30317e-14
1.17715e-13
1.19746e-13
7.68644e-14
5.4096e-14
3.79172e-14
-8.31264e-14
1.27289e-12
2.41504e-12
1.32511e-12
5.09124e-13
2.55875e-13
1.96818e-13
2.59847e-13
2.20595e-13
8.27277e-14
1.04824e-13
1.17111e-13
5.3508e-14
3.21154e-14
2.05785e-14
-1.13594e-13
1.07702e-12
2.31329e-12
1.34938e-12
5.49637e-13
2.73669e-13
1.56375e-13
2.4484e-13
2.29998e-13
8.60168e-14
1.08137e-13
1.25452e-13
4.99782e-15
3.4072e-14
-1.00555e-13
-1.07619e-13
9.54961e-13
2.21541e-12
1.38311e-12
5.73178e-13
2.83787e-13
1.47279e-13
2.40402e-13
2.4651e-13
9.41828e-14
1.02878e-13
1.25996e-13
-6.68389e-15
2.65181e-14
-1.04804e-13
-1.06317e-13
8.58362e-13
2.12706e-12
1.39484e-12
5.83736e-13
2.87172e-13
1.50316e-13
2.31788e-13
2.6225e-13
8.82987e-14
1.06707e-13
1.2955e-13
-1.10626e-14
1.97366e-14
-8.77603e-14
-1.068e-13
8.04142e-13
2.02636e-12
1.38254e-12
6.01595e-13
2.90242e-13
1.59451e-13
2.31341e-13
2.48115e-13
9.83049e-14
1.11419e-13
1.12665e-13
-1.37682e-15
9.88391e-15
-9.18045e-14
-5.8316e-14
)
;
    }
    inlet
    {
        type            calculated;
        value           nonuniform List<scalar> 
15
(
-1299.9
-1300.2
-1299.9
-1299.9
-1300.2
-1299.9
-1299.9
-1300.2
-1299.9
-1299.9
-1300.2
-1299.9
-1299.9
-1300.2
-1299.9
)
;
    }
    inletWalls
    {
        type            calculated;
        value           uniform 0;
    }
    outletInlet
    {
        type            calculated;
        value           nonuniform List<scalar> 
15
(
198.252
527.463
785.396
982.005
1128.54
1249.98
1367.12
1486.57
1606.74
1731.8
1879
2054.9
2138.09
1729.94
634.184
)
;
    }
}


// ************************************************************************* //
