/*--------------------------------*- C++ -*----------------------------------*\
| =========                 |                                                 |
| \\      /  F ield         | OpenFOAM: The Open Source CFD Toolbox           |
|  \\    /   O peration     | Version:  4.1                                   |
|   \\  /    A nd           | Web:      www.OpenFOAM.org                      |
|    \\/     M anipulation  |                                                 |
\*---------------------------------------------------------------------------*/
FoamFile
{
    version     2.0;
    format      ascii;
    class       volVectorField;
    location    "21";
    object      U;
}
// * * * * * * * * * * * * * * * * * * * * * * * * * * * * * * * * * * * * * //

dimensions      [0 1 -1 0 0 0 0];

internalField   nonuniform List<vector> 
225
(
(1.45151e-14 0.852194 15.7946)
(7.92994e-15 -4.89458 12.1215)
(-3.38234e-15 -4.19551 12.1321)
(2.77849e-15 -3.60118 11.9966)
(7.68365e-16 -3.00468 11.8778)
(-2.3156e-16 -2.55319 11.6992)
(1.94251e-15 -2.20881 11.4769)
(2.65581e-16 -1.96603 11.2116)
(-3.82688e-17 -1.79855 10.916)
(9.98519e-16 -1.71238 10.5882)
(1.13335e-16 -1.83746 10.1561)
(-7.47249e-17 -2.28567 9.53762)
(5.50809e-16 -2.51301 8.96378)
(-9.50352e-17 -1.06552 8.91356)
(-1.48951e-18 1.76574 7.4709)
(2.13029e-14 -5.35014 22.493)
(1.78833e-14 -14.6049 21.394)
(-7.06143e-16 -13.2708 20.3412)
(2.61513e-15 -11.7697 19.5066)
(1.70061e-15 -11.1561 18.5044)
(-1.95537e-16 -10.6594 17.5174)
(2.09524e-15 -10.0901 16.5714)
(9.70419e-16 -9.52499 15.6236)
(4.05527e-17 -8.96544 14.6638)
(1.1976e-15 -8.36731 13.6946)
(5.36403e-16 -7.75709 12.7179)
(-9.57497e-17 -7.30335 11.7194)
(5.07275e-16 -7.01705 10.6244)
(8.80666e-17 -5.73095 9.16116)
(-1.01675e-18 -2.305 4.58318)
(2.47144e-14 -7.71562 23.9801)
(1.89445e-14 -16.7731 24.6729)
(5.57475e-16 -13.7365 23.9372)
(3.88289e-15 -12.3062 22.6249)
(1.69949e-15 -11.6447 21.2414)
(7.73126e-16 -10.814 20.0013)
(3.19713e-15 -9.94025 18.7738)
(7.98696e-16 -9.1001 17.5247)
(5.73674e-16 -8.28337 16.2654)
(1.636e-15 -7.47523 15.0263)
(4.76206e-16 -6.66762 13.8176)
(3.74829e-16 -5.84165 12.4301)
(7.89633e-16 -4.81389 10.2752)
(-3.04981e-17 -3.12624 6.6844)
(-1.59065e-17 -0.832095 1.68985)
(2.45351e-14 -8.50255 22.0462)
(1.63344e-14 -16.6211 24.332)
(9.84662e-16 -12.93 23.7971)
(3.38657e-15 -12.1536 21.9985)
(1.64109e-15 -11.4201 20.5028)
(1.48583e-15 -10.4936 19.1722)
(2.8188e-15 -9.63387 17.8167)
(5.51267e-16 -8.82359 16.459)
(8.55452e-16 -8.05362 15.123)
(1.11281e-15 -7.32376 13.8164)
(5.69876e-16 -6.55245 12.4394)
(6.23183e-16 -5.49086 10.583)
(6.07678e-16 -3.78522 7.50862)
(-3.54411e-17 -1.4936 2.76593)
(-6.01271e-16 0.153319 -1.77305)
(2.20767e-14 -8.47609 19.748)
(1.64189e-14 -16.3601 24.312)
(1.56937e-15 -13.099 23.6602)
(3.01418e-15 -12.628 21.5365)
(1.26594e-15 -11.8565 20.0248)
(1.32236e-15 -10.9574 18.6637)
(2.45298e-15 -10.1698 17.2587)
(2.67373e-16 -9.40277 15.8711)
(4.36231e-16 -8.65258 14.5236)
(8.97615e-16 -7.9305 13.2136)
(3.07763e-16 -7.16586 11.8292)
(3.83059e-16 -6.11612 9.99622)
(5.54191e-16 -4.42398 7.15547)
(-2.98052e-16 -2.30523 3.2878)
(-8.64733e-16 -0.787154 0.317664)
(1.94445e-14 -8.02185 17.5536)
(1.79244e-14 -16.0195 24.5277)
(3.29884e-15 -13.6434 24.0462)
(2.83958e-15 -12.9943 21.7651)
(1.31247e-15 -12.1264 20.2158)
(1.65177e-15 -11.2247 18.847)
(2.37447e-15 -10.439 17.4341)
(7.47412e-16 -9.64888 16.0434)
(6.42976e-16 -8.86035 14.6933)
(9.7031e-16 -8.09325 13.3817)
(3.2927e-16 -7.2973 12.0171)
(5.37935e-16 -6.28456 10.2818)
(4.20421e-16 -4.73297 7.72084)
(3.69824e-16 -2.75608 4.37237)
(8.2834e-16 -0.949337 1.29727)
(1.73272e-14 -7.33733 15.2534)
(1.85062e-14 -15.491 24.355)
(5.13109e-15 -14.0225 24.4218)
(2.58367e-15 -13.1279 22.0675)
(1.50607e-15 -12.1448 20.4401)
(1.93905e-15 -11.2358 19.0547)
(2.2912e-15 -10.4361 17.6437)
(1.17051e-15 -9.61984 16.2576)
(9.93144e-16 -8.81015 14.9066)
(9.61206e-16 -8.02723 13.5919)
(6.3635e-16 -7.22396 12.2368)
(1.03795e-15 -6.24027 10.5488)
(2.53841e-16 -4.7875 8.10747)
(8.08334e-17 -2.91407 4.94707)
(2.28132e-15 -1.0108 1.79729)
(1.47914e-14 -6.55611 13.0328)
(1.84002e-14 -14.847 23.8163)
(6.53316e-15 -14.2639 24.6691)
(2.66278e-15 -13.2372 22.3215)
(1.6224e-15 -12.1674 20.5832)
(1.67048e-15 -11.2657 19.1667)
(2.23445e-15 -10.4651 17.7586)
(1.24103e-15 -9.64316 16.3766)
(8.87383e-16 -8.83495 15.0246)
(9.50866e-16 -8.05529 13.7073)
(7.84457e-16 -7.25501 12.3576)
(1.03968e-15 -6.28692 10.6996)
(3.75601e-16 -4.89101 8.33096)
(1.27489e-16 -3.08519 5.2676)
(1.17235e-15 -1.12214 2.04383)
(1.26187e-14 -5.77818 11.1235)
(1.80576e-14 -14.1745 23.0906)
(7.65427e-15 -14.4413 24.8463)
(2.90339e-15 -13.3963 22.6148)
(1.65445e-15 -12.2528 20.7553)
(1.39118e-15 -11.3493 19.2955)
(2.33859e-15 -10.5477 17.8904)
(1.39015e-15 -9.72544 16.5109)
(7.18915e-16 -8.91944 15.1562)
(8.91162e-16 -8.14023 13.8351)
(8.36197e-16 -7.33995 12.4864)
(7.0905e-16 -6.38016 10.8513)
(4.58732e-16 -5.02351 8.54671)
(1.33364e-16 -3.26575 5.55826)
(-4.70166e-16 -1.23747 2.24755)
(1.04921e-14 -5.08475 9.59891)
(1.74482e-14 -13.5191 22.3)
(8.60019e-15 -14.5349 24.9523)
(3.13194e-15 -13.5531 22.9353)
(1.68506e-15 -12.3447 20.9698)
(1.39112e-15 -11.425 19.4566)
(2.08683e-15 -10.6173 18.0506)
(1.51115e-15 -9.79443 16.6721)
(5.75972e-16 -8.98824 15.3136)
(6.66235e-16 -8.20619 13.9873)
(8.28984e-16 -7.4047 12.6356)
(4.38509e-16 -6.45145 11.0132)
(1.42573e-16 -5.12521 8.75506)
(2.62496e-16 -3.40649 5.81945)
(-8.7568e-16 -1.31898 2.43079)
(8.66192e-15 -4.53849 8.46187)
(1.67452e-14 -12.9255 21.5502)
(9.02348e-15 -14.5349 24.9758)
(3.5245e-15 -13.6654 23.221)
(1.82189e-15 -12.4128 21.1812)
(1.14511e-15 -11.4735 19.612)
(1.79884e-15 -10.659 18.2003)
(1.59055e-15 -9.83691 16.8208)
(3.66424e-16 -9.032 15.4584)
(7.25661e-16 -8.2485 14.1268)
(8.9376e-16 -7.44642 12.7691)
(-7.35346e-18 -6.49766 11.1497)
(2.22324e-16 -5.1925 8.91831)
(-5.23647e-16 -3.50176 6.01037)
(-1.04931e-15 -1.36368 2.54234)
(7.45609e-15 -4.17024 7.70238)
(1.60405e-14 -12.4376 20.9276)
(9.29903e-15 -14.4734 24.9366)
(3.80507e-15 -13.7316 23.4379)
(1.91998e-15 -12.4592 21.3594)
(1.02772e-15 -11.5039 19.7405)
(1.695e-15 -10.6833 18.3207)
(1.65619e-15 -9.86359 16.9392)
(5.60812e-16 -9.06118 15.5729)
(7.48617e-16 -8.27761 14.2364)
(8.68488e-16 -7.47489 12.8709)
(-6.06564e-17 -6.52677 11.2464)
(2.94366e-16 -5.23295 9.02634)
(-7.79137e-16 -3.55791 6.12599)
(-9.36984e-16 -1.37724 2.57253)
(6.51259e-15 -3.97316 7.27932)
(1.53101e-14 -12.0681 20.4611)
(9.59736e-15 -14.3844 24.8627)
(3.93336e-15 -13.7599 23.5828)
(1.96462e-15 -12.4876 21.497)
(1.01959e-15 -11.523 19.8407)
(1.63456e-15 -10.6966 18.4121)
(1.8034e-15 -9.88006 17.028)
(6.16975e-16 -9.08067 15.6586)
(7.12296e-16 -8.29735 14.3172)
(9.14418e-16 -7.49328 12.9423)
(-9.42154e-17 -6.54226 11.3063)
(1.83603e-16 -5.25104 9.08449)
(-6.43031e-16 -3.57883 6.17547)
(-8.84022e-16 -1.36512 2.53876)
(5.89495e-15 -3.90351 7.11002)
(1.47128e-14 -11.8314 20.1818)
(9.63337e-15 -14.2998 24.7901)
(4.02919e-15 -13.7666 23.6684)
(1.97529e-15 -12.5018 21.5898)
(1.04059e-15 -11.5319 19.9095)
(1.61967e-15 -10.7003 18.4746)
(1.7994e-15 -9.88545 17.0884)
(6.11263e-16 -9.08792 15.7173)
(7.57919e-16 -8.30411 14.373)
(8.75885e-16 -7.49791 12.9908)
(-7.65825e-17 -6.54329 11.3436)
(1.65658e-16 -5.25357 9.11751)
(-6.48462e-16 -3.58374 6.20171)
(-7.39342e-16 -1.3501 2.50641)
(5.55217e-15 -4.03936 7.28666)
(1.40213e-14 -11.6271 19.9523)
(9.57798e-15 -14.1917 24.6681)
(4.16477e-15 -13.7463 23.7082)
(2.00279e-15 -12.5064 21.6736)
(1.11102e-15 -11.5392 19.9772)
(1.60155e-15 -10.6994 18.5349)
(1.70958e-15 -9.88682 17.1436)
(6.89362e-16 -9.09037 15.7693)
(7.71338e-16 -8.30483 14.4182)
(7.74774e-16 -7.4898 13.0146)
(-3.64679e-18 -6.51517 11.3279)
(6.84251e-17 -5.20583 9.06102)
(-6.45731e-16 -3.50151 6.0826)
(-3.84634e-16 -1.25237 2.30711)
)
;

boundaryField
{
    inletFace
    {
        type            zeroGradient;
    }
    inlet
    {
        type            fixedValue;
        value           uniform (0 8.7 15);
    }
    inletWalls
    {
        type            noSlip;
    }
    outletInlet
    {
        type            zeroGradient;
    }
}


// ************************************************************************* //
