/*--------------------------------*- C++ -*----------------------------------*\
| =========                 |                                                 |
| \\      /  F ield         | OpenFOAM: The Open Source CFD Toolbox           |
|  \\    /   O peration     | Version:  4.1                                   |
|   \\  /    A nd           | Web:      www.OpenFOAM.org                      |
|    \\/     M anipulation  |                                                 |
\*---------------------------------------------------------------------------*/
FoamFile
{
    version     2.0;
    format      ascii;
    class       volScalarField;
    location    "1";
    object      k;
}
// * * * * * * * * * * * * * * * * * * * * * * * * * * * * * * * * * * * * * //

dimensions      [0 2 -2 0 0 0 0];

internalField   nonuniform List<scalar> 
6785
(
1.62456
0.00190013
0.00158606
0.00158368
0.0015844
0.00158404
0.00158389
0.00158367
0.00158309
0.00158223
0.00158048
0.00157843
0.0015838
0.00205966
0.187313
3.5913
0.243364
0.00867087
0.000884006
0.000694566
0.000680767
0.000671518
0.000665138
0.000661552
0.000660184
0.000659048
0.000665547
0.000732502
0.00404487
0.373034
5.46779
0.390254
0.00967696
0.0010947
0.000846193
0.000774834
0.000744101
0.000738095
0.0007521
0.00079372
0.000982676
0.00273667
0.0194502
0.162203
1.24184
6.36038
0.932505
0.0905355
0.00621911
0.00155245
0.00126584
0.00120761
0.00122762
0.00130947
0.00151514
0.00225685
0.00601939
0.0286217
0.201647
1.81849
6.02328
1.4468
0.267985
0.0458162
0.00819678
0.00279423
0.00208105
0.00205783
0.00222906
0.0025386
0.00332423
0.00646697
0.0250597
0.231519
1.99051
4.68753
1.57633
0.379287
0.0801642
0.0226499
0.00746432
0.00392364
0.00326046
0.00332202
0.0036908
0.00441413
0.00689876
0.020174
0.275666
2.33208
2.79552
1.35535
0.316793
0.0842871
0.0247861
0.0104538
0.00594775
0.00464753
0.00453397
0.0049091
0.0056278
0.00785059
0.0195034
0.28382
2.45445
1.37511
0.956221
0.200153
0.0554151
0.0200666
0.0105224
0.00705637
0.00579449
0.00564736
0.00601175
0.00672129
0.00879043
0.0194852
0.285687
2.40807
0.81186
0.641759
0.11187
0.034839
0.0156526
0.0102483
0.00775765
0.00667259
0.0065646
0.00692927
0.00755417
0.00945668
0.0221232
0.311127
2.43925
0.857885
0.482173
0.0683747
0.0246376
0.0129645
0.0102424
0.00839682
0.00740325
0.00730196
0.00767378
0.00812093
0.00989197
0.0231364
0.329688
2.52432
0.917812
0.396493
0.0468966
0.0196362
0.0113754
0.010334
0.00893619
0.00798296
0.00785957
0.00814246
0.00853304
0.0101098
0.0243969
0.344548
2.49954
0.876726
0.33342
0.0370346
0.0154039
0.0102435
0.0103754
0.00934655
0.00841155
0.00826422
0.00844927
0.00879228
0.0101839
0.0271075
0.362786
2.34198
0.866913
0.298987
0.0332708
0.0133194
0.0096138
0.010361
0.00964364
0.00880066
0.00853007
0.00861218
0.00891968
0.010076
0.0295329
0.384158
2.12517
0.513153
0.303748
0.0415858
0.0128604
0.0087162
0.00984774
0.00949711
0.00891451
0.00856314
0.00855522
0.0089274
0.0102809
0.0343022
0.404493
1.6708
1.58174
0.333195
0.0715504
0.041115
0.020283
0.0139958
0.0118353
0.0105114
0.00977484
0.00926789
0.00916377
0.00974451
0.0215748
0.213609
1.3367
0.560765
0.485931
0.505907
0.504505
0.495552
0.449433
0.47978
0.485069
0.481179
0.442237
0.469907
0.473642
0.4451
0.478077
0.486213
0.485782
0.454884
0.480306
0.484406
0.460203
0.489548
0.497176
0.497685
0.471036
0.49622
0.501512
0.499923
0.470025
0.490436
0.492699
0.46737
0.493186
0.499525
0.498618
0.468973
0.490583
0.493348
0.465746
0.494348
0.502373
0.501443
0.468513
0.496429
0.505097
0.504687
0.478602
0.496053
0.500748
0.487568
0.504047
0.510642
0.51117
0.496182
0.509638
0.514217
0.513108
0.495807
0.50695
0.508935
0.493829
0.510494
0.514318
0.511376
0.487088
0.487083
0.476661
0.427789
0.406675
0.381977
0.342559
0.27959
0.253146
0.237483
0.223922
0.215229
0.213798
0.217742
0.2204
0.223867
0.225569
0.221453
0.182701
0.145635
0.0958699
0.0743474
0.0425777
0.0275411
0.0241451
0.0207355
0.0168988
0.012496
0.00883781
0.00820171
0.00951909
0.00925332
0.00890694
0.00853624
0.00842596
0.00831602
0.00816196
0.00797865
0.00778974
0.00891193
0.00884209
0.00875019
0.00868401
0.00861093
0.00854279
0.00846934
0.00837832
0.00825791
0.00819086
0.00938745
0.00939513
0.00941539
0.00944926
0.00950426
0.0095803
0.00967624
0.00977429
0.0100302
0.0118637
0.0122955
0.0128521
0.0135633
0.0144652
0.0156051
0.0170698
0.0188188
0.0211543
0.0282503
0.0314279
0.0356395
0.0404606
0.0461234
0.0526761
0.0603761
0.0694229
0.0805562
0.108383
0.119992
0.133394
0.146915
0.160376
0.173606
0.185012
0.196067
0.207672
0.217587
0.267863
0.273927
0.275142
0.275296
0.275716
0.275427
0.273111
0.278158
0.258274
0.290337
0.255065
0.226384
0.21973
0.22303
0.235498
0.228322
0.242336
0.235647
0.239901
0.252436
0.245676
0.249558
0.261572
0.254267
0.264192
0.256238
0.258097
0.268534
0.259431
0.268244
0.258547
0.258977
0.268862
0.259143
0.259966
0.270055
0.26002
0.266874
0.256094
0.256403
0.266314
0.255889
0.264028
0.253455
0.253948
0.264131
0.254059
0.255505
0.266451
0.25692
0.265579
0.255987
0.257989
0.269394
0.260607
0.271634
0.263699
0.266624
0.2787
0.271289
0.274724
0.287124
0.280661
0.292608
0.286857
0.290564
0.302644
0.296097
0.308791
0.302748
0.30568
0.317323
0.309905
0.312192
0.323952
0.316912
0.328828
0.322599
0.325871
0.338938
0.332806
0.34687
0.342089
0.3472
0.363064
0.358487
0.3645
0.382218
0.377892
0.399295
0.400896
0.0011792
0.00127166
0.00130893
0.00130884
0.00135595
0.00137775
0.00141605
0.00142433
0.001464
0.00145129
0.00148849
0.00154981
0.00162266
0.00165078
0.00165027
0.00164246
0.00174983
0.0017173
0.00170233
0.00169974
0.00170627
0.0017296
0.00174917
0.00176758
0.00179773
0.00183348
0.00183806
0.00181928
0.00182878
0.00183943
0.00186676
0.00192618
0.00190466
0.0019451
0.00203059
0.00209856
0.00219692
0.00236004
0.00242727
0.00246302
0.00260067
0.00251067
0.00252029
0.00227594
0.00242114
0.00243009
0.00243661
0.00247961
0.00256048
0.00252726
0.0024219
0.00246895
0.00254012
0.00234746
0.00240668
0.00237819
0.00238518
0.00240035
0.00233803
0.00249937
0.00274008
0.00257255
0.00230375
0.0026797
0.0025681
0.00335152
0.00304207
0.00375444
0.00356198
0.00370359
0.00560251
0.0043647
0.00571362
0.00485182
0.00496621
0.00874535
0.00626103
0.00498665
0.0209979
0.00123279
0.00130825
0.00134644
0.00133532
0.00138453
0.00139666
0.00143795
0.00144257
0.00148579
0.00147989
0.00150863
0.00157489
0.00164719
0.00167416
0.00166901
0.00164801
0.0017703
0.00173265
0.00171024
0.00171748
0.00171972
0.00174431
0.00176394
0.0017756
0.0018066
0.00184595
0.00184923
0.00182648
0.00183557
0.00184491
0.00187324
0.0019392
0.00191306
0.00194781
0.00203728
0.00212217
0.00222588
0.00240636
0.00245515
0.00248323
0.00262627
0.00255098
0.00254711
0.00228686
0.00243958
0.00244672
0.00244666
0.00247632
0.00255162
0.00256322
0.00244578
0.00247553
0.00254472
0.00234568
0.00238369
0.00237855
0.00238788
0.0024392
0.00238146
0.00240369
0.00266177
0.00263875
0.00185897
0.00257948
0.00199787
0.00287948
0.00225247
0.00295033
0.00274225
0.00265576
0.00442708
0.00335657
0.00441923
0.0037502
0.0037665
0.00691851
0.00497438
0.00396778
0.0219276
0.00122066
0.00129717
0.00135563
0.00133426
0.00137931
0.00140208
0.00143637
0.00143295
0.00148322
0.00148972
0.00150296
0.00157706
0.00164967
0.00167689
0.00167012
0.00163562
0.00177381
0.00174871
0.00169928
0.00172332
0.00173792
0.00176923
0.00178297
0.00178296
0.00180309
0.00184825
0.00185114
0.00184623
0.00185624
0.00186464
0.00189358
0.00194925
0.00192294
0.00196524
0.002035
0.00214547
0.00226914
0.0024465
0.00248215
0.00250502
0.00264618
0.00260169
0.00258591
0.00231472
0.00247211
0.00247921
0.0024763
0.00249172
0.00253388
0.00259495
0.00247416
0.00248369
0.00254152
0.00236345
0.00234711
0.00236337
0.00239068
0.00244103
0.00239894
0.00240442
0.00258153
0.00266955
0.00180383
0.00251548
0.00189575
0.00265504
0.00195303
0.00269912
0.00237242
0.00220677
0.00380828
0.00284999
0.00373951
0.00319476
0.00316712
0.00582443
0.00424759
0.00347032
0.0240757
0.00120731
0.00129613
0.00137594
0.0013436
0.00137593
0.00140543
0.00141507
0.00142854
0.00148604
0.00151747
0.00150341
0.00158972
0.00164693
0.00167962
0.0016787
0.00163592
0.00177588
0.00175383
0.00168669
0.00174724
0.00174276
0.00178098
0.00178187
0.00178251
0.00180114
0.00185372
0.0018554
0.00185524
0.00186803
0.0018759
0.00190488
0.00197068
0.00194602
0.00197503
0.00203485
0.00217859
0.00230466
0.00248225
0.00251668
0.00254052
0.00267626
0.00265663
0.00263301
0.00233951
0.00249676
0.00250657
0.00250519
0.00251691
0.00253998
0.00260922
0.00252407
0.00251056
0.00254717
0.0023904
0.00234886
0.002372
0.00240614
0.00247135
0.00241263
0.00251314
0.00252302
0.00270958
0.00171559
0.00245131
0.00183514
0.00253371
0.00188871
0.0026177
0.00218105
0.00199594
0.00345453
0.00257181
0.00336435
0.00292709
0.00285289
0.00512831
0.00388024
0.00332647
0.028875
0.00121317
0.00127941
0.00136287
0.00135904
0.00138625
0.00140809
0.00141426
0.00143957
0.00150122
0.00154376
0.0014851
0.00157847
0.00164284
0.00168437
0.00169772
0.00164089
0.00177201
0.00176312
0.00166855
0.00175178
0.00176154
0.00180744
0.00177928
0.00179722
0.00179982
0.0018573
0.00186969
0.00187669
0.00189351
0.0019006
0.00191083
0.00196946
0.00194376
0.00199642
0.00202947
0.00218439
0.00232816
0.00249387
0.00255091
0.00258017
0.00271431
0.00271797
0.00268916
0.00236132
0.00251232
0.00252076
0.00252155
0.00253361
0.00255198
0.00261425
0.00254552
0.00250745
0.00255301
0.00241635
0.00236605
0.0023643
0.00242726
0.00248218
0.00243072
0.00253438
0.00245873
0.00272571
0.00167377
0.00241639
0.00182502
0.00246192
0.00182271
0.00256798
0.00214321
0.00186384
0.00320611
0.002441
0.00310295
0.00279303
0.0026693
0.00465885
0.00365216
0.00340844
0.0322689
0.00122191
0.00128327
0.00136429
0.00137202
0.00139405
0.0014121
0.00141464
0.00144123
0.00150427
0.00156956
0.00148182
0.00154597
0.0016124
0.00166569
0.00170288
0.00166811
0.00174403
0.00175664
0.00166946
0.0017396
0.00175898
0.00181348
0.00176904
0.00179691
0.00180539
0.00186235
0.00186709
0.00187186
0.00188896
0.00189565
0.00191675
0.00197586
0.00196546
0.00200007
0.00205121
0.00219681
0.00234768
0.00251147
0.00257985
0.00263329
0.00276459
0.0027801
0.00275398
0.00240423
0.0025187
0.00252329
0.00252378
0.00253656
0.0025645
0.0026053
0.00255165
0.00253104
0.00256268
0.00245711
0.00239517
0.00235479
0.00244309
0.0024732
0.00240638
0.00253861
0.00241144
0.00272948
0.00165278
0.00239905
0.00183201
0.00247361
0.00177656
0.00250433
0.00209212
0.00173425
0.00310328
0.00238737
0.00294327
0.00271227
0.00258379
0.00433702
0.00350511
0.00360401
0.0368733
0.00122447
0.00129386
0.0013652
0.0013792
0.00139773
0.00142191
0.00142314
0.00145323
0.00149543
0.00157714
0.00148351
0.00154676
0.00160798
0.00167897
0.00171452
0.0016959
0.00173922
0.00176129
0.00167029
0.00173092
0.00175221
0.001817
0.00176642
0.00181549
0.00182795
0.00186576
0.00187823
0.00187785
0.0018866
0.00189633
0.00193962
0.00197364
0.00197952
0.00201516
0.00205981
0.00220538
0.00237417
0.002529
0.00262057
0.00269407
0.00283735
0.00286785
0.00283986
0.00243021
0.00254424
0.00254482
0.00254343
0.00255587
0.0025832
0.00260551
0.00255849
0.00253989
0.00257367
0.00247325
0.00242364
0.00235341
0.0024502
0.00249368
0.00239327
0.00252962
0.0023792
0.00272748
0.00163749
0.00238282
0.00184328
0.00251867
0.00173263
0.00238426
0.00210724
0.0016558
0.00302956
0.00237207
0.00282224
0.00268534
0.00253062
0.0040945
0.00341169
0.00390073
0.0400011
0.0012368
0.00130383
0.00135608
0.00138167
0.0013978
0.00142899
0.00142651
0.00146942
0.00149093
0.0015493
0.00148517
0.00155193
0.00160765
0.00169478
0.00173258
0.00172131
0.00173879
0.00177001
0.00168828
0.00172248
0.00175828
0.00181518
0.00177533
0.00182679
0.00182941
0.00186457
0.00187934
0.00187741
0.00190988
0.00191988
0.00193825
0.0019796
0.00198311
0.00202892
0.00208182
0.00221257
0.00237498
0.00254652
0.00267074
0.00277516
0.00291924
0.00297513
0.00293403
0.00244121
0.00255912
0.0025555
0.00254623
0.00255385
0.00259243
0.0026063
0.00256766
0.00253633
0.002595
0.00252338
0.00245319
0.00236945
0.002457
0.00249629
0.0023671
0.00249756
0.00235911
0.00271099
0.0015957
0.00240123
0.00186659
0.00258083
0.00165211
0.00225489
0.00216113
0.00164659
0.00298022
0.00239696
0.00276631
0.00266691
0.0024864
0.00396649
0.00336118
0.00417178
0.0420738
0.00123661
0.00131681
0.00136306
0.00139093
0.00140474
0.00143057
0.00143919
0.00148382
0.00148964
0.00152252
0.00150482
0.00158319
0.00160742
0.00172303
0.00172737
0.00173513
0.00173542
0.00177528
0.0016974
0.00173448
0.0017538
0.00181392
0.00176856
0.00182755
0.00182732
0.00186486
0.00188008
0.00189606
0.00192883
0.00194604
0.00196348
0.00200261
0.00201823
0.00205284
0.0020798
0.00221318
0.00237427
0.00256506
0.00272558
0.00286293
0.00301458
0.00309613
0.00303906
0.00244354
0.00257379
0.00256611
0.0025423
0.0025409
0.00259132
0.0026074
0.00258365
0.00253119
0.00260339
0.00258471
0.00249583
0.00238963
0.00244163
0.00249081
0.00237701
0.00238917
0.00234432
0.002676
0.00149105
0.00240382
0.0018902
0.00259264
0.00165566
0.00213306
0.00223523
0.00167172
0.00296258
0.00242975
0.00269274
0.00269397
0.00246751
0.00389064
0.00333774
0.00444194
0.0446045
0.00124717
0.00132951
0.00136914
0.00138065
0.00140406
0.00143171
0.0014524
0.00150963
0.00150836
0.00150894
0.00151998
0.00160987
0.00162258
0.00173154
0.00173891
0.00173698
0.00173677
0.00178403
0.00169806
0.00174108
0.00175573
0.00181202
0.00178052
0.00182325
0.00182918
0.0018691
0.0018819
0.00190004
0.00193871
0.00196381
0.00197635
0.00201419
0.00204315
0.00207581
0.00211269
0.00222927
0.002373
0.00258189
0.00278517
0.00296663
0.00312588
0.00322979
0.00317042
0.00246144
0.00260711
0.00259546
0.00255718
0.0025472
0.00259616
0.00261282
0.00259014
0.00252492
0.00260533
0.00263099
0.00253777
0.00241983
0.0024585
0.00248156
0.00239544
0.00225537
0.00230023
0.00262922
0.00145284
0.00238399
0.00186567
0.00249708
0.00170411
0.00204167
0.00229359
0.00171476
0.00293947
0.0024696
0.00266425
0.00268507
0.00247809
0.00380928
0.00332364
0.00460566
0.0453101
0.00125877
0.00132249
0.00138917
0.00137883
0.00140548
0.00142127
0.00146016
0.00153034
0.00151251
0.00151343
0.00153549
0.00162106
0.00161859
0.00172127
0.00174456
0.00174664
0.00173753
0.00179167
0.00170992
0.00176529
0.00177324
0.00180221
0.00178353
0.00181822
0.00182383
0.00186886
0.00187983
0.00189885
0.00194495
0.00197283
0.00198655
0.00203808
0.0020624
0.00210683
0.0021476
0.00224574
0.00240139
0.0026074
0.00285447
0.00307369
0.00325637
0.00338006
0.00333577
0.00247373
0.00264236
0.00262567
0.00257298
0.00255525
0.00260224
0.00261948
0.00260001
0.00252356
0.00260487
0.00268496
0.0025919
0.00244504
0.00248104
0.0024677
0.0024131
0.00225998
0.00229778
0.00259681
0.00168735
0.00232804
0.00182439
0.00235615
0.00176224
0.00197769
0.00237803
0.00177532
0.00294828
0.00248886
0.00263781
0.00271342
0.00249782
0.00372861
0.00334939
0.00461513
0.0448299
0.00126223
0.00132245
0.00137944
0.00138124
0.00140205
0.00142669
0.00147128
0.00153482
0.00151712
0.00151943
0.00154672
0.00161345
0.00159753
0.00170691
0.00174205
0.0017657
0.00174125
0.00177153
0.00173877
0.00177108
0.00177348
0.00179391
0.00179267
0.00181194
0.00182583
0.00187909
0.0018934
0.00191378
0.00197059
0.00201318
0.00202598
0.0020604
0.00211398
0.00213896
0.00217697
0.00227098
0.00242948
0.00264561
0.0029341
0.00318231
0.00339413
0.00356393
0.00353368
0.00248657
0.00268568
0.00266
0.00259792
0.00257194
0.0026293
0.00264717
0.00263075
0.00251358
0.00261565
0.0027056
0.00266366
0.00249944
0.0025042
0.00248025
0.00242846
0.00230451
0.00236886
0.00255339
0.00201667
0.00220242
0.00183296
0.00221195
0.00184231
0.00194391
0.00245785
0.00182039
0.00293076
0.00253203
0.00260645
0.0027222
0.00249976
0.00369044
0.00335046
0.00454284
0.0444033
0.00125151
0.00132577
0.00139004
0.0013939
0.00140301
0.00143269
0.00147248
0.0015389
0.00153044
0.00153476
0.00155453
0.00161273
0.00158591
0.00167151
0.00170697
0.00175894
0.00176068
0.00175952
0.00175619
0.00177419
0.00175925
0.00178219
0.0018021
0.00182257
0.00182664
0.00188756
0.00190697
0.00192839
0.00199345
0.0020411
0.00205848
0.00209129
0.002158
0.0021906
0.00222473
0.00228513
0.00244355
0.00269638
0.00301423
0.00331271
0.0035519
0.00376634
0.00375758
0.0024852
0.00272681
0.00268412
0.00261466
0.00258911
0.00263734
0.00265857
0.00265625
0.00252133
0.00261708
0.00271262
0.00269753
0.00252588
0.00251615
0.00248478
0.00240858
0.00230526
0.00247461
0.00247691
0.00221997
0.00206395
0.00185905
0.00208758
0.00192333
0.00192659
0.00252556
0.00189316
0.00290011
0.00255264
0.00257799
0.00274984
0.00252758
0.00364576
0.00333891
0.00435718
0.0422658
0.00125221
0.00132376
0.00139466
0.00140378
0.00140172
0.00143842
0.00147215
0.00153166
0.00151418
0.00153899
0.00154432
0.00161175
0.00159738
0.00166189
0.00169448
0.00177175
0.00175675
0.00174357
0.00175899
0.0017856
0.00175457
0.00177731
0.00179882
0.00181892
0.00186339
0.0018988
0.00192726
0.00196349
0.00202675
0.00206648
0.00208616
0.002121
0.00219955
0.00227872
0.00226689
0.00231755
0.00246544
0.00274542
0.00310617
0.00347189
0.00374598
0.00399708
0.00399823
0.00249618
0.00280793
0.00273403
0.00265786
0.00260865
0.00262966
0.00265443
0.00266851
0.00253124
0.00260671
0.00271215
0.00274821
0.00256352
0.00253696
0.00249183
0.00241933
0.00229635
0.00251335
0.0023785
0.00232355
0.00192499
0.0018956
0.00198332
0.00199799
0.00192434
0.00258249
0.0019735
0.0028974
0.00259687
0.00258504
0.00276739
0.00256099
0.00359958
0.00334944
0.00412941
0.0401659
0.0012584
0.00132445
0.00136643
0.00140967
0.00140458
0.00143727
0.00147791
0.00152761
0.00150772
0.00153542
0.00154231
0.00161692
0.00159921
0.00165168
0.00168195
0.00177782
0.00175224
0.00172251
0.00173855
0.00180455
0.00175139
0.00177303
0.0018007
0.00183448
0.00188594
0.00190727
0.00193389
0.00198199
0.00205445
0.0021184
0.00214916
0.0021859
0.00226996
0.00236331
0.0023356
0.00234202
0.0025163
0.00280872
0.00319749
0.00363244
0.00395137
0.00424436
0.00428184
0.00248789
0.0028791
0.00276519
0.00268677
0.00262541
0.00264057
0.00266725
0.00268213
0.00254531
0.00258933
0.00271797
0.0027449
0.00259211
0.00255596
0.0025178
0.00243463
0.00231208
0.0023705
0.00231161
0.00235922
0.00179286
0.00191655
0.00190202
0.00206557
0.00193061
0.00263538
0.00205385
0.0028875
0.00264448
0.00258942
0.002778
0.00258951
0.00355986
0.00331802
0.0039118
0.036991
0.00127034
0.00133044
0.00135428
0.00139204
0.00141547
0.00143354
0.00147132
0.00150804
0.00150143
0.00154099
0.0015435
0.00161923
0.00161766
0.00163999
0.00167639
0.00177168
0.0017486
0.00171358
0.00172953
0.00180581
0.00176461
0.001776
0.00180378
0.00183752
0.00189868
0.00192016
0.00194371
0.00200297
0.00207788
0.00215536
0.00219948
0.00224675
0.0023412
0.00241856
0.00237522
0.00236995
0.00257095
0.00287252
0.00329867
0.00381255
0.00418931
0.00452938
0.00461499
0.00245261
0.00294515
0.00278058
0.00270341
0.00262678
0.0026365
0.00266735
0.00269164
0.00256304
0.00261409
0.00271853
0.00274046
0.00264945
0.00260018
0.0025372
0.00245364
0.00232582
0.00214476
0.00223773
0.00235994
0.00167816
0.00193592
0.00183009
0.00212205
0.00194286
0.00267776
0.00213446
0.00287981
0.00264797
0.00260264
0.00281563
0.00261852
0.00355286
0.00331436
0.0037433
0.0332918
0.00128018
0.00134023
0.00135182
0.00138748
0.00141348
0.00143416
0.00147337
0.00149497
0.00149252
0.00155192
0.00156122
0.00162505
0.00163137
0.00163447
0.00165781
0.00172676
0.00173897
0.00172725
0.00174184
0.00180555
0.00176229
0.00177927
0.00181499
0.00184192
0.00191764
0.00194458
0.00197845
0.00202831
0.00212075
0.00218146
0.00223724
0.00232585
0.00240626
0.00248201
0.00242762
0.00241429
0.00262681
0.00294669
0.00340129
0.0039908
0.00446519
0.00487951
0.00498572
0.00244961
0.00306717
0.00281327
0.00275122
0.00265583
0.00262773
0.00265794
0.00269932
0.00257109
0.00262533
0.00270886
0.00271306
0.00267794
0.00263883
0.00257184
0.00248629
0.00239578
0.00216058
0.00215578
0.0023397
0.00158876
0.00196605
0.00176538
0.00217393
0.00194601
0.00271603
0.00219938
0.00285691
0.00267206
0.00259525
0.00283353
0.00262297
0.00353937
0.00329012
0.00362482
0.029904
0.00127588
0.00134553
0.00135471
0.00139616
0.00141412
0.00144312
0.00147989
0.00148697
0.0014927
0.00153386
0.00157452
0.00163881
0.00163492
0.00162793
0.00165619
0.0016904
0.00173384
0.00173495
0.00174192
0.00179732
0.00177971
0.0017873
0.00182204
0.00186791
0.00193128
0.00195843
0.00200236
0.00205814
0.00215061
0.00221188
0.00229745
0.00236614
0.00248472
0.00254918
0.00248583
0.00248096
0.00266339
0.00299391
0.00350187
0.00418596
0.00476499
0.00524392
0.00542207
0.0025041
0.00317922
0.00281348
0.00278004
0.00268549
0.00263836
0.0026739
0.00270557
0.00261073
0.0026543
0.00270347
0.00270133
0.00267998
0.0026647
0.00262173
0.00250381
0.00243827
0.00231887
0.00213884
0.00230732
0.00152332
0.00198821
0.00174178
0.00221633
0.00192722
0.00273688
0.00224852
0.0028366
0.00269686
0.00258546
0.00283782
0.0026401
0.00350962
0.00329414
0.00350225
0.0267357
0.00128028
0.00134955
0.00135678
0.00138009
0.0014099
0.00143418
0.00146995
0.00148331
0.00149639
0.00153028
0.00158083
0.00162995
0.00165028
0.00163239
0.00168429
0.00168301
0.00171266
0.00176002
0.00175404
0.00180121
0.00178503
0.00180687
0.00182787
0.00188416
0.0019458
0.00199238
0.00202243
0.0021041
0.00218392
0.00224131
0.00234171
0.00242561
0.00253559
0.00261914
0.00257929
0.00251066
0.00269334
0.00300191
0.0035605
0.00434402
0.0050822
0.00567364
0.00597635
0.00257107
0.00327024
0.00277846
0.00280219
0.00272478
0.00267935
0.00268559
0.00269834
0.00263578
0.00265887
0.00271817
0.00271149
0.00271288
0.00268941
0.00265385
0.00256724
0.00249981
0.00238418
0.00213731
0.00229544
0.0014766
0.00201378
0.00171699
0.00224141
0.00192905
0.00274141
0.00231058
0.00279876
0.00270979
0.00257542
0.00286977
0.00263385
0.00346486
0.00328395
0.00340936
0.0238967
0.00129256
0.00136715
0.00137299
0.00138788
0.00141116
0.00143257
0.00145961
0.00147621
0.00150671
0.0015228
0.00157579
0.00164117
0.00167668
0.00164698
0.00169574
0.00168467
0.00171317
0.00177877
0.0017461
0.00180741
0.00179997
0.00182169
0.0018462
0.00189626
0.00195867
0.00200871
0.00205473
0.00210965
0.00219454
0.00225049
0.00236017
0.00246323
0.00259004
0.00268728
0.00266032
0.00254278
0.00267786
0.0030374
0.0036552
0.00452361
0.00546498
0.00616156
0.00658592
0.0026237
0.00336096
0.00271427
0.00279062
0.00274547
0.00271215
0.00271994
0.00269875
0.00269264
0.00269177
0.00275166
0.00273322
0.00273744
0.00270698
0.00269673
0.00262728
0.00257461
0.0024276
0.00215297
0.00229594
0.00143919
0.0020229
0.00170172
0.0022579
0.00192299
0.00278011
0.00237696
0.00276863
0.00273453
0.00258931
0.00288346
0.00262128
0.00345683
0.0032624
0.00330439
0.0214597
0.00129758
0.00137519
0.00139103
0.00139331
0.00141204
0.00143497
0.00145113
0.00147362
0.00150754
0.00152975
0.00157365
0.00164602
0.00168092
0.00164815
0.00169826
0.00170001
0.00171729
0.00179435
0.00173775
0.00180123
0.00179803
0.00181612
0.00185168
0.0018928
0.00196485
0.00200951
0.0020554
0.00212283
0.0021963
0.00227314
0.00236886
0.00248459
0.0026234
0.002752
0.00279143
0.00263443
0.00264851
0.00298139
0.00369991
0.00472185
0.0057923
0.00669139
0.00726664
0.00268171
0.0035437
0.00262652
0.00276469
0.00277954
0.00274021
0.00272658
0.00270647
0.00272971
0.00272454
0.00278484
0.00275571
0.00275385
0.00273657
0.0027431
0.00267969
0.00262542
0.00243961
0.00218272
0.00232228
0.00150232
0.00203142
0.00168002
0.00230258
0.00190756
0.0028231
0.00236797
0.00272243
0.0027577
0.00258241
0.00290133
0.0026463
0.00344126
0.00326879
0.00325152
0.0194583
0.00129619
0.00136361
0.00140451
0.00140604
0.00141577
0.00144197
0.00145214
0.00147653
0.00148796
0.00152101
0.00157793
0.00165815
0.00168757
0.00165726
0.00171238
0.00170343
0.00172715
0.00180613
0.0017433
0.00180796
0.00180019
0.00181163
0.00184627
0.0019059
0.0019576
0.00200072
0.00204595
0.00211236
0.0021888
0.00227402
0.00236956
0.00249013
0.00263791
0.00280173
0.00290507
0.00277672
0.00265192
0.00290477
0.00358919
0.00477487
0.00614615
0.00725952
0.00801553
0.00273425
0.00369456
0.00251553
0.00274114
0.00279827
0.00277588
0.00273587
0.0027226
0.0027511
0.002761
0.0028133
0.00277225
0.0027737
0.00276432
0.00278031
0.00274367
0.00269859
0.00249789
0.00221812
0.00234769
0.00170686
0.00201728
0.00167212
0.00234113
0.00189692
0.00283781
0.00236409
0.00266505
0.00275641
0.00256599
0.00292095
0.00267693
0.00342419
0.00327708
0.00321216
0.01767
0.00130102
0.00136803
0.00141605
0.00141064
0.00141984
0.00144795
0.00145391
0.00148489
0.00148917
0.00151489
0.00156056
0.00164028
0.00168634
0.0016851
0.0017486
0.00172065
0.00172375
0.00182306
0.00173363
0.00179342
0.00181415
0.00180894
0.00184067
0.00191667
0.00195261
0.0019888
0.00203418
0.00208407
0.00216126
0.00224735
0.00234136
0.00246459
0.00261947
0.00281003
0.00298811
0.00292705
0.00265989
0.00270238
0.00347065
0.00480663
0.00656528
0.00797901
0.00879947
0.00278147
0.00375066
0.00238521
0.00270958
0.00279504
0.00279212
0.00276531
0.00273855
0.00275221
0.00278542
0.00282693
0.00278634
0.00278555
0.00279319
0.00279836
0.00278287
0.00272876
0.0025681
0.0023181
0.0023643
0.00192932
0.00198649
0.00160652
0.00236443
0.00181808
0.00278066
0.00237825
0.00260071
0.00274359
0.0025782
0.00293262
0.00271076
0.00337266
0.00328067
0.00317878
0.0161884
0.0012998
0.00135616
0.00141005
0.00142332
0.00142975
0.00144632
0.00145885
0.00149039
0.00149564
0.0015245
0.00155886
0.00163976
0.00168235
0.0016953
0.00175942
0.00176393
0.00172898
0.00183491
0.00174798
0.00178112
0.00181347
0.00181247
0.00183612
0.00191881
0.00196538
0.00196107
0.00200889
0.00207563
0.0021541
0.00223961
0.00233077
0.00245635
0.0026152
0.00282053
0.00305614
0.003114
0.00281342
0.00287256
0.0032673
0.00467013
0.0069461
0.0087505
0.00962286
0.00284668
0.00394695
0.00222206
0.00268821
0.0027966
0.00279875
0.00278703
0.00276217
0.00277887
0.00282994
0.00285239
0.00281328
0.00281545
0.00282315
0.00281827
0.00283648
0.00275537
0.00259716
0.00228839
0.00233901
0.0020448
0.00187534
0.00154359
0.00232704
0.00171696
0.00265144
0.00241356
0.00256151
0.00273103
0.002591
0.00294333
0.00274862
0.00335193
0.00328685
0.00315825
0.0150462
0.00129315
0.00134714
0.00140304
0.00143443
0.00144836
0.00144997
0.00147752
0.00149804
0.00150824
0.00152556
0.00155688
0.00163573
0.00167238
0.00169446
0.00174202
0.00178631
0.00175239
0.0018465
0.00176395
0.00178383
0.00182254
0.00182548
0.00184869
0.00191945
0.00196781
0.00195251
0.00200113
0.00207023
0.00214744
0.00223047
0.0023195
0.00244574
0.00260763
0.00282592
0.00310625
0.0032758
0.00303015
0.00318157
0.00284295
0.00387305
0.00714978
0.00956802
0.0105611
0.00294333
0.00447575
0.00203286
0.00268209
0.00278784
0.00279775
0.00279603
0.00279466
0.00281588
0.00285803
0.00287034
0.00283386
0.00284657
0.00283957
0.00282247
0.0028504
0.00278494
0.00267993
0.00237789
0.00230681
0.0021053
0.00173429
0.00154075
0.0022639
0.00172513
0.00249514
0.00239762
0.00252398
0.00274328
0.00261268
0.00294909
0.00277162
0.00331562
0.00327244
0.00314663
0.0141237
0.00130517
0.00135034
0.0013881
0.00142734
0.00145063
0.00146052
0.0014804
0.00151879
0.0015207
0.00152137
0.00156944
0.00164368
0.00166708
0.0016768
0.0017281
0.00180076
0.00176375
0.00184106
0.00179795
0.00177626
0.00182812
0.00182798
0.00186133
0.00190999
0.00195362
0.00194891
0.00199463
0.00206485
0.00213468
0.00221228
0.00229646
0.00242235
0.00258803
0.00282162
0.00316301
0.00345128
0.00335592
0.00349963
0.00278021
0.00266119
0.00676203
0.010226
0.0115233
0.00307692
0.00517988
0.00183093
0.00269537
0.00277607
0.00279325
0.00279675
0.00280832
0.00284998
0.00287547
0.00290664
0.00287533
0.00287637
0.00287155
0.00286647
0.00288438
0.00282992
0.00274546
0.00240071
0.00230386
0.00214497
0.00164196
0.00163389
0.0021689
0.00188261
0.00237601
0.00242198
0.00251143
0.00277088
0.00264146
0.00295553
0.00280473
0.00330425
0.00324478
0.00312097
0.0134188
0.0013021
0.00135728
0.00139856
0.00143557
0.00144104
0.00145424
0.00148265
0.00152157
0.00153995
0.00152111
0.00157787
0.0016368
0.00166044
0.00166343
0.00171041
0.00179985
0.00176586
0.00183884
0.0018233
0.00177071
0.00183472
0.00184525
0.00187219
0.00191827
0.00193727
0.00194694
0.00198398
0.00205514
0.00212036
0.00218854
0.00226747
0.00239228
0.00256179
0.00280487
0.00320203
0.00361138
0.00378365
0.00389947
0.00343
0.00236931
0.00510528
0.0108426
0.0124323
0.00322887
0.00597509
0.00158751
0.00275249
0.00279502
0.00280914
0.00281031
0.00282548
0.0028788
0.00289648
0.00293358
0.00291579
0.00290943
0.00290023
0.00290951
0.00291528
0.00287293
0.00280162
0.00251275
0.00233046
0.00218976
0.00159431
0.00171098
0.00207671
0.00195976
0.00226133
0.00245457
0.0025093
0.00278618
0.0026648
0.00296302
0.00281138
0.00328844
0.00322412
0.00312652
0.0128143
0.00131198
0.00136531
0.00140859
0.00143454
0.00144963
0.00146571
0.00148719
0.00151731
0.00153881
0.00153343
0.00157152
0.00163153
0.00166215
0.00164588
0.00167489
0.00175462
0.00174357
0.00181962
0.00181611
0.00175437
0.00181639
0.00184852
0.00188879
0.00192918
0.00191994
0.00194059
0.00196325
0.00204328
0.00210312
0.00216363
0.00223749
0.00235956
0.0025327
0.00278755
0.00321961
0.00376619
0.00421148
0.00415639
0.00423424
0.00293889
0.00222552
0.011051
0.0133352
0.00339327
0.00668859
0.00128844
0.00281088
0.00282498
0.0028264
0.00283076
0.00285697
0.00291164
0.00291445
0.00295531
0.00294426
0.00295109
0.00295884
0.00295755
0.00294147
0.00292673
0.00287279
0.00264944
0.0024134
0.00224071
0.00158335
0.00179115
0.00199594
0.00199625
0.00215879
0.00247643
0.00250696
0.00279011
0.00269839
0.00297041
0.00280236
0.00325041
0.00319564
0.00312571
0.0123018
0.00132147
0.00136721
0.00141488
0.00143446
0.00145254
0.00147289
0.00148472
0.00151447
0.00154681
0.00155834
0.00157558
0.00162543
0.00165998
0.00164574
0.00166474
0.00172198
0.00172279
0.00176496
0.00178245
0.00176494
0.00180916
0.0018555
0.00189862
0.00193627
0.00191732
0.00193698
0.00193975
0.00202766
0.00209031
0.00213798
0.00220902
0.00232555
0.00250013
0.00276996
0.00320523
0.00388382
0.00463249
0.00492521
0.00482579
0.00384756
0.00159468
0.00987973
0.0139853
0.00353791
0.00733632
0.000940323
0.00288487
0.00284905
0.00283864
0.00285585
0.00288821
0.00295087
0.00296147
0.00299722
0.00299073