/*--------------------------------*- C++ -*----------------------------------*\
| =========                 |                                                 |
| \\      /  F ield         | OpenFOAM: The Open Source CFD Toolbox           |
|  \\    /   O peration     | Version:  4.1                                   |
|   \\  /    A nd           | Web:      www.OpenFOAM.org                      |
|    \\/     M anipulation  |                                                 |
\*---------------------------------------------------------------------------*/
FoamFile
{
    version     2.0;
    format      ascii;
    class       volScalarField;
    location    "1";
    object      nut;
}
// * * * * * * * * * * * * * * * * * * * * * * * * * * * * * * * * * * * * * //

dimensions      [0 2 -1 0 0 0 0];

internalField   nonuniform List<scalar> 
6785
(
0.53688
3.43047e-07
2.61086e-07
2.60487e-07
2.60652e-07
2.60597e-07
2.60544e-07
2.60479e-07
2.60369e-07
2.60144e-07
2.59701e-07
2.59228e-07
2.60512e-07
3.88433e-07
0.182324
0.798347
0.0185516
0.000189677
6.78708e-06
4.87731e-06
4.86502e-06
4.90488e-06
4.9847e-06
5.11171e-06
5.28761e-06
5.50144e-06
5.90521e-06
7.41086e-06
9.62047e-05
0.2573
0.985066
0.0547212
0.00104978
9.08886e-05
7.15281e-05
6.53692e-05
6.46027e-05
6.67149e-05
7.125e-05
8.06363e-05
0.00010731
0.000282181
0.00219397
0.0224004
0.469399
1.06231
0.184525
0.0518516
0.00367553
0.000557422
0.000491318
0.000421914
0.00043066
0.000469862
0.000524745
0.000572654
0.00105257
0.00396641
0.0328487
0.568086
1.03391
0.213766
0.0698281
0.0225073
0.00524502
0.00170454
0.00135992
0.00137945
0.00158736
0.00180491
0.00183171
0.00198128
0.0056435
0.0608509
0.59436
0.912076
0.198071
0.0806402
0.0280121
0.0164825
0.0076818
0.00409687
0.00309697
0.00319516
0.00362474
0.00370507
0.00348615
0.00564606
0.0719415
0.64325
0.704272
0.154707
0.063025
0.0330173
0.0191806
0.0127099
0.00816512
0.00573387
0.00543099
0.0058454
0.00537888
0.00434865
0.00495818
0.0559206
0.659988
0.49401
0.102482
0.0370962
0.0212636
0.0154472
0.0125915
0.010065
0.00770908
0.00717414
0.00732801
0.00642869
0.00452493
0.0042478
0.0500235
0.653736
0.379577
0.0703383
0.0203038
0.0134492
0.0109392
0.0110147
0.00997932
0.00807287
0.00761257
0.00751054
0.00609914
0.00412736
0.00452889
0.0536689
0.657865
0.390142
0.0538701
0.0111223
0.00936222
0.00769382
0.00970057
0.0099343
0.00857628
0.00820683
0.00797742
0.00616233
0.00434883
0.00509651
0.0621999
0.669316
0.403594
0.0457668
0.00656568
0.00711826
0.00637959
0.00784385
0.00855688
0.00794038
0.00781228
0.0077051
0.0063609
0.00464776
0.00606997
0.0757075
0.666036
0.394449
0.0396127
0.00492832
0.00539992
0.00478521
0.00698653
0.00817277
0.00810203
0.00779347
0.00768244
0.00661344
0.00475196
0.00742075
0.090425
0.644615
0.39219
0.0374043
0.00450955
0.00499395
0.0079585
0.00616772
0.00676075
0.00691068
0.00714273
0.00715717
0.00663506
0.00502459
0.00894267
0.108687
0.614123
0.30178
0.0413113
0.00624505
0.00489613
0.00236665
0.00550408
0.00645056
0.00729893
0.00742354
0.00729551
0.00679815
0.00501942
0.0105369
0.114818
0.544541
0.529818
0.0469009
0.014649
5.95658
0.0472832
0.388274
0.0149863
0.00900679
0.00899793
0.00763312
0.00691456
0.00556284
0.00640262
0.04869
0.486995
2.10206
3.4895
1.99659
1.99383
1.97606
3.3559
1.94436
1.95504
1.94719
3.32892
1.92425
1.93188
3.33968
1.9409
1.95735
1.95648
3.37619
1.94542
1.95371
3.39587
1.96405
1.97929
1.9803
3.43561
1.97739
1.9879
1.98475
3.43192
1.96583
1.97036
3.42221
1.97133
1.98396
1.98216
3.42808
1.96612
1.97166
3.41626
1.97365
1.98961
1.98777
3.4264
1.9778
1.995
1.99419
3.46309
1.97705
1.98639
3.49538
1.99292
2.00592
2.00695
3.52612
2.00394
2.01293
2.01075
3.52479
1.99865
2.00256
3.51775
2.00563
2.01312
2.00736
3.49366
1.9591
1.93802
3.27409
1.7901
1.73489
1.64294
2.6469
1.41234
1.36795
1.32832
2.32234
1.29794
1.30986
2.35008
1.32816
1.3332
0.0926302
0.0718625
0.0466131
0.0887015
0.045656
0.0232253
0.00998847
0.00966169
0.00806699
0.00720867
0.00478783
0.00299695
0.00256323
0.00317368
0.00320688
0.00329636
0.00338459
0.00335476
0.00327032
0.00328002
0.00315952
0.00297362
0.00347872
0.00330503
0.00327093
0.00321247
0.00320926
0.00312548
0.00292665
0.00288317
0.00281478
0.00218502
0.00261125
0.00246014
0.00240609
0.00229091
0.00224043
0.00213493
0.00208682
0.00202532
0.00187369
0.0020573
0.00203215
0.00203882
0.00204353
0.00209799
0.00217398
0.00232152
0.00252415
0.00301452
0.00383692
0.00423448
0.00494013
0.00578398
0.00704484
0.00868672
0.0107174
0.0131574
0.0167179
0.0239031
0.0276361
0.0328238
0.0380736
0.0442246
0.0488905
0.0529594
0.0556313
0.0572335
0.0591126
0.0606491
0.0613187
0.058623
0.0573751
0.0574336
0.0639702
0.0737626
0.0836228
0.489213
0.10928
0.1438
1.3356
2.13062
2.14649
1.36222
2.1718
1.38186
2.20636
2.22626
1.41036
2.2529
2.27056
1.43565
2.29188
1.44283
2.30075
2.30915
1.45464
2.31511
1.45385
2.31116
2.31301
1.45552
2.31375
2.3175
1.45875
2.31774
1.45013
2.30017
2.30148
1.44861
2.29918
1.44238
2.28822
2.29051
1.44266
2.29102
2.29745
1.44898
2.30381
1.44661
2.29962
2.30867
1.45696
2.32035
1.46301
2.33407
2.34691
1.48191
2.36735
2.38237
1.50414
2.40797
1.51844
2.43441
2.45001
1.54426
2.47323
1.55986
2.50085
2.51301
1.58127
2.53032
2.53955
1.5977
2.55868
1.60968
2.58154
2.59468
1.63424
2.62214
1.65325
2.65846
2.67816
1.6914
2.72135
2.74416
1.73544
2.79403
1.77379
2.87781
0.0495763
0.0544514
0.0578387
0.0552583
0.056547
0.0550004
0.0564317
0.0539287
0.0550505
0.0517639
0.0523819
0.0540268
0.0571109
0.0573052
0.0560975
0.0541413
0.0605971
0.0577872
0.0552835
0.0538625
0.0531906
0.0550313
0.0591614
0.0628863
0.0642492
0.0642099
0.052581
0.0295001
0.0213775
0.0165386
0.0137247
0.0106867
0.013975
0.0140503
0.0146868
0.0124656
0.0115546
0.0110431
0.0105672
0.00656399
0.00662629
0.00387577
0.00194531
0.00664516
0.00694717
0.0130956
0.0162661
0.0165162
0.0184574
0.0184196
0.0172721
0.0193926
0.02202
0.0199351
0.0224399
0.0249617
0.0301018
0.0392942
0.0425249
0.044397
0.041534
0.0238383
0.0137673
0.0129789
0.0166424
0.0180601
0.0141521
0.0381401
0.015692
0.0110688
0.00930136
0.00952402
0.0424294
0.0741955
0.0327146
0.0109078
0.0103795
0.0142917
0.0699655
0.0541846
0.0572673
0.0607363
0.0570623
0.058606
0.0559418
0.0576925
0.054916
0.0558271
0.0529282
0.0532351
0.0546987
0.0575677
0.0581751
0.055877
0.052935
0.0603087
0.0568347
0.0546645
0.0535543
0.0518501
0.053113
0.0568091
0.0598388
0.0637761
0.0639609
0.0538989
0.0279861
0.0214022
0.0162461
0.012745
0.0106071
0.0142395
0.0142691
0.0149383
0.0128521
0.0120769
0.0115037
0.0106543
0.00650942
0.00652182
0.00389302
0.0026161
0.00604992
0.0067225
0.013165
0.0155565
0.0161313
0.0177737
0.0184516
0.0170511
0.0185146
0.0209618
0.0189651
0.0206528
0.0235104
0.0283119
0.0362576
0.0308925
0.040018
0.0316757
0.0255617
0.00948437
0.0127094
0.0156536
0.0278468
0.0166405
0.0334062
0.0155078
0.00653199
0.006413
0.00615232
0.0237876
0.0481566
0.0165447
0.00748286
0.0071873
0.0126713
0.0818937
0.0543308
0.0565709
0.0613691
0.0565134
0.0579633
0.056243
0.0573404
0.0541038
0.0554548
0.0534509
0.0525932
0.0547892
0.0575805
0.0575474
0.0557309
0.0518954
0.0601566
0.0574213
0.0528089
0.053002
0.0519827
0.0537163
0.0565765
0.0577016
0.0601562
0.0615924
0.0544023
0.0305475
0.0243177
0.016873
0.0138413
0.0106611
0.014929
0.0149011
0.0151848
0.0134608
0.0126605
0.011655
0.0106153
0.00628761
0.00612956
0.0029757
0.00311542
0.00835394
0.0117116
0.0121066
0.0158236
0.0163838
0.0175109
0.0188837
0.0173554
0.0185826
0.020638
0.018921
0.0196881
0.0227801
0.027449
0.0349455
0.0294296
0.0479636
0.0301078
0.0269851
0.0104085
0.0133096
0.0141072
0.0232207
0.0310908
0.0352714
0.0241602
0.00657938
0.00600737
0.00535306
0.0222345
0.036731
0.0167172
0.00660823
0.00633295
0.0123788
0.100262
0.0532581
0.0556752
0.0619838
0.0561618
0.0569712
0.0558951
0.054941
0.053381
0.055221
0.0549646
0.0522816
0.0551656
0.0568673
0.0574618
0.0553051
0.0510455
0.0592928
0.0570227
0.0512499
0.0534551
0.0511416
0.0532013
0.0553102
0.0559814
0.0582376
0.0602932
0.0560714
0.0321653
0.0226357
0.0181237
0.0150187
0.0117753
0.0162542
0.0154082
0.0153427
0.0140478
0.0130587
0.0116399
0.0104972
0.00627015
0.00592071
0.00289564
0.00351009
0.00787853
0.0124077
0.0144077
0.0158862
0.0163219
0.0171322
0.0187816
0.0176256
0.0183363
0.0197055
0.0185034
0.0187349
0.0217859
0.0258498
0.032534
0.037841
0.0528431
0.0315172
0.0310236
0.0102679
0.014552
0.0182789
0.0290663
0.0211142
0.0349471
0.0182233
0.00721622
0.00614583
0.00518272
0.0190163
0.0310093
0.0148489
0.00635969
0.00622501
0.0184054
0.147515
0.0537462
0.05416
0.0603157
0.0568017
0.0574553
0.0558609
0.0543576
0.0537785
0.0559637
0.0565218
0.0506145
0.0539886
0.0563808
0.0574031
0.0560791
0.0507305
0.0583661
0.0570863
0.049379
0.0531265
0.0515377
0.0538524
0.0538021
0.055284
0.0568237
0.0601317
0.0570097
0.034045
0.0236523
0.0188896
0.0162606
0.0129615
0.0166763
0.0160997
0.0153311
0.0141715
0.013398
0.011743
0.0103712
0.00620364
0.00528134
0.00311982
0.0036683
0.00761353
0.0115618
0.0164568
0.0159823
0.0162032
0.0171296
0.0186045
0.017664
0.0178196
0.0193074
0.0183309
0.0185833
0.0210231
0.0253411
0.0322539
0.0317358
0.0633758
0.0327697
0.0315041
0.0104656
0.0157713
0.0159377
0.0298735
0.0183217
0.0340814
0.0236929
0.00798463
0.00644738
0.00546938
0.014
0.028172
0.0130528
0.00641254
0.00637149
0.0185139
0.194463
0.0539625
0.0547316
0.0594945
0.0571191
0.0574252
0.0557978
0.0537484
0.0535527
0.0559187
0.0580539
0.0500001
0.0511135
0.0540499
0.0556224
0.0557712
0.0518105
0.0558303
0.0561039
0.0489222
0.051476
0.050387
0.0530065
0.0516773
0.0536091
0.0557307
0.0594596
0.0560871
0.0350217
0.0230726
0.0189711
0.0163306
0.0143663
0.0173245
0.0164159
0.0158684
0.0144652
0.0138408
0.0118159
0.0102641
0.00617083
0.00524729
0.00240908
0.003492
0.00878693
0.0105053
0.0156397
0.0159853
0.0158411
0.0168955
0.0179303
0.0172765
0.0177409
0.0185762
0.0181921
0.0182208
0.0200996
0.02463
0.0315618
0.0325617
0.0601376
0.0335029
0.0322813
0.0109179
0.0170196
0.0174505
0.0338929
0.014685
0.0351299
0.0285715
0.00866452
0.00719539
0.00600472
0.0137391
0.0261501
0.0111885
0.00668238
0.00666695
0.0218771
0.25281
0.0550959
0.0550132
0.0590079
0.0571743
0.0569463
0.0561287
0.053749
0.0538935
0.0549706
0.0581604
0.0495175
0.0507915
0.0534626
0.0560351
0.0560758
0.0529055
0.0548141
0.0554001
0.0485904
0.0501946
0.0491755
0.0522739
0.0501788
0.0533874
0.0556516
0.0584227
0.0570147
0.036907
0.0232417
0.0182967
0.0170849
0.0162089
0.0177596
0.0169575
0.0162859
0.0147559
0.0143859
0.0119864
0.010259
0.00645348
0.00547281
0.00250816
0.0036139
0.0125914
0.0112738
0.0161587
0.0158122
0.0161286
0.0168214
0.0175635
0.0170068
0.017328
0.0182757
0.0179197
0.0181319
0.0194085
0.023691
0.0322815
0.0356715
0.0424022
0.0362238
0.0320956
0.011481
0.0183052
0.0180414
0.0385129
0.0133193
0.0324029
0.0398133
0.00994101
0.00800154
0.00669008
0.0137761
0.0265559
0.0102554
0.00704269
0.00707812
0.0269216
0.321396
0.0554827
0.0554176
0.0575458
0.0566688
0.0561483
0.0561626
0.0534059
0.0544536
0.0543892
0.0558998
0.049351
0.0507871
0.0529271
0.0565504
0.0567353
0.0538344
0.0538051
0.0551542
0.0488717
0.0489642
0.0484395
0.0508911
0.0491434
0.0525858
0.0540751
0.0566765
0.0559194
0.0377161
0.023586
0.0171376
0.0170663
0.0175466
0.018188
0.0176825
0.0169751
0.0152749
0.0148683
0.0122133
0.0104329
0.00686966
0.00573704
0.0026606
0.00398005
0.0129479
0.0140712
0.0158263
0.0150478
0.0158613
0.0166843
0.0171574
0.0167152
0.0168224
0.0179226
0.0179006
0.0177198
0.0188599
0.0231575
0.0333298
0.0382254
0.0442887
0.0350018
0.0346348
0.0117228
0.0197271
0.0190816
0.0351873
0.0129648
0.0303563
0.0432642
0.0129834
0.00889073
0.00760341
0.014053
0.0259503
0.0101
0.00765138
0.00760524
0.0281314
0.37764
0.0550914
0.0565699
0.0578665
0.0570014
0.0559593
0.0555976
0.0538784
0.0551039
0.0539331
0.0537272
0.0502668
0.0524882
0.0522479
0.0579099
0.0559121
0.0541147
0.0530094
0.0544115
0.0484787
0.0488685
0.047212
0.0494988
0.0473344
0.051115
0.0525543
0.0546546
0.0543991
0.0406412
0.0242784
0.0199635
0.0183183
0.0193546
0.0190999
0.0182547
0.0172959
0.0156596
0.0150734
0.0122559
0.0107874
0.00732402
0.00609435
0.00327786
0.0047272
0.013243
0.016527
0.015933
0.0146673
0.0156002
0.0165306
0.0168725
0.0165531
0.0162346
0.0175714
0.018216
0.0177014
0.0183901
0.0217774
0.03225
0.0360488
0.0451309
0.0321784
0.0343436
0.011243
0.0208718
0.0200112
0.0374044
0.0156329
0.0288231
0.0442067
0.0224837
0.00995178
0.00856382
0.0139723
0.0277809
0.00997459
0.00837615
0.00820603
0.0301734
0.468595
0.0553912
0.0572987
0.0578432
0.0557725
0.0556023
0.0552453
0.0543722
0.0563506
0.0548298
0.0525686
0.0508159
0.0536995
0.0528703
0.057828
0.0559115
0.0535774
0.0524372
0.0540536
0.0476694
0.0484875
0.0464883
0.048188
0.0464946
0.0492833
0.0515725
0.0528731
0.0528537
0.0397139
0.0249283
0.0203625
0.0192001
0.0211412
0.0199952
0.0195553
0.0182712
0.0164667
0.0149897
0.0124498
0.0109352
0.00762233
0.00678752
0.00391768
0.00671809
0.00906304
0.0160367
0.0163093
0.0146561
0.015684
0.0164502
0.0166664
0.0163627
0.0158247
0.0170809
0.018275
0.0175433
0.0180421
0.021161
0.0287945
0.0346298
0.0416707
0.028694
0.0321203
0.0117835
0.0213818
0.0199418
0.0353208
0.0194877
0.0291634
0.0361169
0.0276074
0.0110004
0.00964522
0.014174
0.0277452
0.0115265
0.009011
0.0088494
0.031065
0.544452
0.0557733
0.0564037
0.0593627
0.0552581
0.0555244
0.0542288
0.0546346
0.0575212
0.0545604
0.0525337
0.051346
0.0540444
0.0520959
0.0567542
0.0557385
0.0534875
0.051764
0.0533918
0.0471581
0.0487596
0.0467229
0.0465322
0.0452916
0.0475199
0.0500091
0.0504387
0.0510341
0.0396787
0.0254517
0.020333
0.0195098
0.0220308
0.0206018
0.0203738
0.0192224
0.0171338
0.0153714
0.0131486
0.0108398
0.00801227
0.00785266
0.00455782
0.00715812
0.00727064
0.0174584
0.0167551
0.0149033
0.0156488
0.0163951
0.0165135
0.0161689
0.0153484
0.0166759
0.0183582
0.0176543
0.0175895
0.020561
0.0271071
0.0325151
0.0380925
0.0287394
0.031813
0.0166308
0.0213238
0.0197806
0.0336226
0.0197828
0.0301599
0.0343843
0.0196813
0.0123137
0.0105744
0.0144099
0.0286034
0.013365
0.00957929
0.00970544
0.0299571
0.581885
0.0553547
0.0560002
0.0584847
0.0550688
0.0549559
0.0542622
0.0551702
0.0575049
0.054418
0.0524448
0.0514279
0.0528348
0.0503483
0.0551617
0.054925
0.054114
0.0512589
0.0514609
0.0476488
0.0480822
0.0458871
0.0451152
0.0445038
0.0458111
0.0486028
0.0489024
0.0501907
0.0389832
0.0266028
0.0190691
0.0199558
0.0208698
0.0219305
0.0209119
0.0203298
0.0182744
0.0157346
0.0138862
0.0110319
0.0084354
0.00887423
0.0051591
0.00616933
0.00901754
0.0178857
0.0173061
0.0154025
0.0157916
0.0166741
0.0167268
0.0163794
0.0149631
0.0164473
0.0180707
0.0178601
0.0173414
0.0198947
0.0247101
0.030782
0.0367589
0.0304316
0.0302838
0.0235659
0.0200924
0.0217839
0.0314749
0.0256894
0.0311289
0.0373887
0.0156747
0.0133806
0.0117711
0.0146508
0.0277853
0.0139625
0.0102719
0.0104126
0.0275195
0.64368
0.053734
0.0557639
0.0594486
0.0556916
0.0548671
0.0543163
0.0547964
0.0573603
0.0546988
0.0530678
0.0515537
0.0522921
0.0490289
0.0521745
0.0519807
0.0529841
0.0517134
0.0497003
0.0474895
0.0472378
0.044305
0.0434953
0.0438329
0.0449368
0.0467235
0.047231
0.0492085
0.0409882
0.0275669
0.0193791
0.0193912
0.0198927
0.023294
0.0226346
0.0214239
0.0181614
0.0154652
0.0148266
0.0108795
0.00915324
0.0100155
0.00576686
0.0068187
0.00734282
0.0185716
0.0164798
0.0162613
0.0157664
0.0166707
0.0166112
0.0164313
0.0146768
0.0160301
0.0175644
0.0177052
0.01682
0.0190194
0.0232831
0.0285148
0.0338329
0.0343732
0.0323443
0.0323878
0.0187556
0.0271919
0.0295652
0.033089
0.0338589
0.0377656
0.0152614
0.0144492
0.0128262
0.0148766
0.0264557
0.0154853
0.0108714
0.0110917
0.0240451
0.640338
0.0531209
0.0551671
0.0592469
0.0559529
0.0544414
0.0543587
0.0543181
0.0562256
0.0529998
0.052759
0.0503003
0.0515458
0.0491713
0.0506836
0.0503463
0.0532408
0.0505958
0.0481847
0.0466789
0.0466554
0.0430864
0.0421196
0.042535
0.043182
0.0458946
0.0458871
0.0484502
0.0424009
0.0288974
0.0185573
0.0164615
0.0220409
0.0244214
0.0245868
0.0225124
0.018794
0.0159115
0.014972
0.011524
0.0100651
0.0114149
0.00602763
0.0054197
0.00440276
0.0185557
0.0170449
0.0174006
0.015809
0.0164157
0.0163155
0.0163367
0.0145319
0.01555
0.0169495
0.017625
0.0164992
0.0183536
0.0218261
0.0266839
0.0312161
0.034558
0.029795
0.0390405
0.017608
0.0360212
0.0278535
0.0410925
0.0364924
0.0420196
0.0157574
0.0157274
0.0141632
0.0155405
0.0247031
0.0171314
0.0114238
0.0119073
0.0206334
0.592279
0.0528839
0.0548956
0.0566459
0.0559768
0.0542307
0.0537281
0.0542607
0.0552059
0.0517314
0.0517524
0.049645
0.0513641
0.0487216
0.0494221
0.0489216
0.0527423
0.0495334
0.0460474
0.0445099
0.0467913
0.0422121
0.041031
0.0416958
0.0427252
0.0446936
0.044382
0.0473629
0.0426128
0.0299117
0.0211009
0.0179463
0.0208575
0.0261441
0.0264533
0.0240693
0.0196278
0.0167015
0.0157673
0.0125235
0.0110751
0.0126935
0.00688896
0.00499873
0.00422431
0.0145386
0.0186727
0.0176614
0.0158254
0.0163984
0.0161767
0.016202
0.0142948
0.0147961
0.0164193
0.0170035
0.0160406
0.017686
0.0207251
0.0250719
0.0291583
0.0297885
0.0298965
0.0419954
0.0165766
0.0435859
0.0269102
0.044126
0.0380796
0.047819
0.0171642
0.016957
0.0156225
0.0163559
0.0213344
0.0198589
0.0119289
0.012428
0.0178965
0.547647
0.0530836
0.0550133
0.0553774
0.0545599
0.05475
0.0530054
0.0533503
0.0532981
0.0506001
0.0514215
0.049164
0.0510929
0.0491888
0.0478221
0.0479062
0.051691
0.0487107
0.0449035
0.0431434
0.0456555
0.0421967
0.0404007
0.0410415
0.0417219
0.0434437
0.0432563
0.0464706
0.0431228
0.031198
0.0208153
0.0166777
0.0160585
0.0278233
0.0276301
0.0250163
0.0204893
0.0172051
0.0162258
0.0135323
0.0122948
0.0143362
0.00925991
0.0028351
0.00281396
0.0122909
0.018658
0.0178967
0.0157919
0.0162
0.0158962
0.0159711
0.0141315
0.0145293
0.0157825
0.0161868
0.0159407
0.0173312
0.0196421
0.0239238
0.0285279
0.0227211
0.0273946
0.0440802
0.0159088
0.0580091
0.0265134
0.041588
0.0371763
0.0517623
0.0227288
0.0183764
0.0165829
0.0175475
0.0182055
0.0234968
0.0127073
0.013164
0.0159496
0.456705
0.0529873
0.0553561
0.0548026
0.0543812
0.0540828
0.0524097
0.0529428
0.0517261
0.0492869
0.0514029
0.0497942
0.0510799
0.0494363
0.0467777
0.0463684
0.0484587
0.0472614
0.0447347
0.042761
0.0447544
0.0413364
0.0398426
0.0407586
0.0407018
0.0427286
0.0427963
0.0465018
0.0465514
0.0330749
0.0222944
0.0155001
0.0196537
0.029325
0.0283188
0.0259085
0.0211869
0.0185066
0.0168716
0.0155451
0.0136791
0.0164898
0.0104895
0.00271971
0.00294642
0.0184929
0.0165117
0.0182016
0.0160768
0.0159348
0.0155547
0.0157431
0.0138424
0.0142717
0.0150826
0.0152377
0.0155725
0.0168212
0.0187458
0.0229634
0.0305675
0.0254748
0.0271929
0.0479314
0.0156017
0.07019
0.0230595
0.0386741
0.0372904
0.0598566
0.0234308
0.0195665
0.0179593
0.0184258
0.0170318
0.0261497
0.0133608
0.0137464
0.0150225
0.397337
0.0517613
0.0553412
0.0545937
0.0546178
0.0537562
0.0524755
0.0528736
0.0506062
0.0487475
0.0496463
0.0500801
0.0517116
0.049051
0.0456861
0.0454819
0.0457034
0.0461664
0.0443409
0.0420595
0.043566
0.0414222
0.0395017
0.0402309
0.0408264
0.0419471
0.0419693
0.0454647
0.0465418
0.0342191
0.0242187
0.0171027
0.0173082
0.0282307
0.0292769
0.0265656
0.0227188
0.0173844
0.0168888
0.0154859
0.0148218
0.0187059
0.0127291
0.00205955
0.00275782
0.0152721
0.0180052
0.0185639
0.0160251
0.0158515
0.0154668
0.0155023
0.0138823
0.0141221
0.0144924
0.0143726
0.0148139
0.0161671
0.0181929
0.021715
0.030219
0.0319131
0.0255266
0.0478865
0.0152513
0.0722154
0.0238749
0.0395548
0.0391257
0.0678413
0.0225804
0.020565
0.0191417
0.0192348
0.0158228
0.0269663
0.013945
0.0145647
0.0140676
0.35525
0.0519969
0.0551484
0.05422
0.0529428
0.0530848
0.0512454
0.0514797
0.0497154
0.0483269
0.0486644
0.0500547
0.0508889
0.0494316
0.0453903
0.0463472
0.0446576
0.0442987
0.0449703
0.0419407
0.0429563
0.0409364
0.0396265
0.0394056
0.040535
0.0412804
0.0423352
0.0443176
0.0487459
0.0347541
0.0247575
0.0177962
0.0196381
0.0257504
0.0304825
0.0282864
0.0237141
0.0174372
0.0164146
0.0162533
0.015412
0.0191631
0.0140028
0.00485079
0.00405003
0.0184938
0.0175216
0.0182644
0.0165289
0.0161759
0.015326
0.0150184
0.0137183
0.0136944
0.0141565
0.0139604
0.0145368
0.0155479
0.0174914
0.0214351
0.029241
0.0347971
0.0249946
0.047044
0.0155038
0.0750487
0.0224712
0.0405653
0.0344585
0.0767616
0.0221452
0.0212798
0.0205085
0.0202031
0.015847
0.0282033
0.0143222
0.0152282
0.0134239
0.286604
0.0529175
0.0561719
0.0549839
0.0527958
0.0526439
0.0506618
0.0501416
0.0485945
0.0485549
0.0475989
0.0492137
0.0512002
0.0506652
0.0457621
0.0462333
0.0439514
0.043538
0.045292
0.0411883
0.0427151
0.0408497
0.0394872
0.0394619
0.0400754
0.0406143
0.041967
0.0437025
0.048388
0.0339541
0.0247854
0.0176621
0.0189307
0.023126
0.0317769
0.0293764
0.0248205
0.0171706
0.0163199
0.0189079
0.0161028
0.0212117
0.0159887
0.0130322
0.00500146
0.0185502
0.0158933
0.0178605
0.0167151
0.0163117
0.0155635
0.0146954
0.0139685
0.0136273
0.0139039
0.0135389
0.0140728
0.0149238
0.016873
0.0205755
0.0277799
0.0349775
0.0252191
0.0486014
0.0154472
0.0665821
0.0247117
0.0429197
0.0343126
0.0856896
0.0242112
0.0217246
0.0217965
0.0213418
0.0157012
0.0286045
0.0149761
0.0158924
0.0127485
0.235294
0.053746
0.0562187
0.0558697
0.0525279
0.0520315
0.0503108
0.0489444
0.0479575
0.0479731
0.0474556
0.0485035
0.0509763
0.0504765
0.0452542
0.0457658
0.0440539
0.0430256
0.0453791
0.0402939
0.0418038
0.0399035
0.0382941
0.0388821
0.039163
0.0400209
0.0411253
0.041529
0.0454801
0.033441
0.0251551
0.0184048
0.0183214
0.0186156
0.0330658
0.0319868
0.0269356
0.0163526
0.0151348
0.0185787
0.0167356
0.0223272
0.0178447
0.0151405
0.00565469
0.0164708
0.0132858
0.0173887
0.0170733
0.0162524
0.0154616
0.0143949
0.0139149
0.0135048
0.0137381
0.0132317
0.0135774
0.0144428
0.0164056
0.0196561
0.026315
0.0345507
0.0253762
0.0515561
0.0180743
0.0631496
0.0291851
0.0514957
0.0354616
0.0886693
0.0253857
0.0218169
0.0232017
0.0221706
0.0157051
0.0299122
0.015511
0.0167034
0.0123892
0.200971
0.0524949
0.0548024
0.0564121
0.0530159
0.0517655
0.0502738
0.0486067
0.0475436
0.0463444
0.046638
0.0482559
0.0512708
0.0505335
0.0451789
0.0459413
0.0436262
0.0427843
0.045079
0.040221
0.0414197
0.0393732
0.0371535
0.0377538
0.0389299
0.0388294
0.0404916
0.0392495
0.0407256
0.032303
0.0273774
0.0177791
0.0181265
0.0197216
0.0342454
0.0347708
0.0305791
0.0171295
0.0132432
0.0176112
0.0163674
0.0241759
0.0206712
0.017211
0.00554856
0.0113144
0.0125215
0.016627
0.0169365
0.0161716
0.0154803
0.0143078
0.013723
0.0134162
0.0134794
0.0128173
0.013105
0.0139513
0.0156979
0.0188552
0.0242601
0.0324313
0.0257028
0.0574868
0.0239679
0.062123
0.0382707
0.0625867
0.0307327
0.0873962
0.0255063
0.0219071
0.024316
0.022732
0.0159674
0.0312896
0.0159395
0.0176825
0.0121903
0.164546
0.0516751
0.0545268
0.0567133
0.0531501
0.0517413
0.04999
0.0482815
0.0474728
0.0458118
0.0458761
0.0466848
0.0497501
0.0498982
0.0460917
0.047207
0.043615
0.0417921
0.0450092
0.0392952
0.0401791
0.0392719
0.0363244
0.0366426
0.0383793
0.0383285
0.0420801
0.0371643
0.0378226
0.0305538
0.027088
0.0182845
0.0169632
0.0177454
0.0334599
0.0365361
0.0328602
0.0174743
0.0111506
0.0166664
0.0168391
0.0248008
0.0247976
0.0188958
0.00505995
0.00785298
0.0128554
0.0157536
0.0162247
0.0160069
0.0155304
0.014196
0.013397
0.0132925
0.0131442
0.0124474
0.0125869
0.0134666
0.0149608
0.0177546
0.0220667
0.0309059
0.0270655
0.0678457
0.0319469
0.0640111
0.0455368
0.0692993
0.0261707
0.0764418
0.0351741
0.0216383
0.0248342
0.0238497
0.0160747
0.0323488
0.0160587
0.0185855
0.0121911
0.14452
0.050499
0.0530415
0.055445
0.0532955
0.0520015
0.049062
0.04814
0.0471818
0.0455097
0.0458996
0.0459535
0.0492049
0.0492432
0.0460499
0.0471758
0.0449847
0.0410909
0.0446983
0.0394255
0.0389534
0.0385351
0.0357936
0.0355775
0.0375068
0.0386331
0.0439476
0.0348762
0.0350329
0.0306147
0.0278586
0.0195214
0.0166327
0.0190836
0.0316795
0.0376627
0.0376815
0.0219175
0.0127502
0.0157815
0.0157336
0.0218516
0.0286102
0.0192668
0.00510722
0.010907
0.00998901
0.0140531
0.0159385
0.0156229
0.0155505
0.0142432
0.0133461
0.0133248
0.0129251
0.0121738
0.0121935
0.0129928
0.0141584
0.0170225
0.020941
0.0288837
0.0268372
0.0739996
0.0367606
0.0585768
0.0399667
0.0711292
0.0226089
0.0675848
0.0508768
0.0219152
0.0268956
0.0249235
0.0163488
0.0329208
0.0164037
0.0194936
0.012275
0.135206
0.0497632
0.0520595
0.0544843
0.0536203
0.0529072
0.0485637
0.0489038
0.0470204
0.0458063
0.0452602
0.0452615
0.0484424
0.0483335
0.0452576
0.045837
0.0455197
0.0414249
0.0444826
0.0393821
0.0383333
0.038112
0.0355739
0.03508
0.0364207
0.0377688
0.0419095
0.0331867
0.0335424
0.029306
0.0263552
0.0214906
0.0166318
0.0191964
0.0306375
0.0386036
0.0439766
0.0230649
0.0141752
0.0112613
0.0113293
0.022422
0.0339068
0.0212583
0.00551092
0.0142144
0.00848327
0.0122971
0.0155059
0.0153408
0.0153057
0.0143119
0.0134165
0.0132816
0.0127488
0.0119323
0.0119264
0.0123572
0.0133128
0.0158252
0.0202201
0.0298427
0.0267032
0.0771505
0.0410552
0.0492353
0.0319887
0.0678226
0.0226124
0.0593454
0.0513608
0.0221026
0.0279527
0.0261873
0.0166349
0.0331606
0.0165111
0.0205659
0.0125101
0.121401
0.0506951
0.0517368
0.0528987
0.0527412
0.052744
0.049223
0.048494
0.0477704
0.0459145
0.0444288
0.0454486
0.0482071
0.0476026
0.0436725
0.0444517
0.0458225
0.0413637
0.043329
0.0400813
0.0372583
0.0375171
0.0350519
0.0347808
0.0349965
0.0359639
0.0374711
0.0315764
0.0326396
0.0312921
0.0226408
0.0209295
0.0173118
0.0181547
0.0276975
0.0401781
0.0499468
0.0290259
0.0176578
0.0109299
0.00594642
0.0196689
0.0381221
0.0278953
0.00588203
0.0177839
0.0066271
0.0109405
0.015073
0.0152831
0.0150063
0.0142447
0.0134836
0.0130821
0.0126814
0.0119182
0.011799
0.0119835
0.0128479
0.0149357
0.0188903
0.0306725
0.0275882
0.078641
0.0442272
0.0446135
0.0337758
0.0593056
0.0297329
0.0533869
0.0508838
0.0242871
0.0298687
0.0274783
0.016964
0.0345871
0.0167904
0.0209811
0.0126404
0.110589
0.0492659
0.0517785
0.0530829
0.0529102
0.0517429
0.0488372
0.0480807
0.0479176
0.0466201
0.0439454
0.0453712
0.0473877
0.046719
0.0425827
0.042977
0.0452968
0.0412235
0.0424917
0.040306
0.0361313
0.0370881
0.0350432
0.0345065
0.0344107
0.0343
0.0340373
0.0301818
0.0319821
0.030926
0.018878
0.0206806
0.0187689
0.0164288
0.0265818
0.041753
0.0536289
0.0381077
0.0238716
0.0150689
0.00471883
0.0112473
0.0431173
0.0276488
0.00560163
0.0192851
0.00336127
0.0101496
0.0150569
0.0155727
0.0148364
0.0140373
0.0135651
0.0130341
0.0127269
0.0120039
0.0117287
0.0117171
0.0124747
0.0141293
0.0176158
0.0302395
0.0294851
0.0757231
0.0458932
0.0449276
0.037756
0.0554627
0.043744
0.0481017
0.0481552
0.0260468
0.0311274
0.0289977
0.0173794
0.0369402
0.0169637
0.0216304
0.0126308
0.10287
0.0498442
0.0516645
0.0531584
0.0523571
0.0518832
0.0499444
0.0475484
0.0466367
0.0460114
0.0440438
0.0444969
0.0464721
0.0463693
0.041584
0.0406543
0.0426202
0.0397905
0.0411299
0.0391083
0.0346257
0.035473
0.0345105
0.0343267
0.0339302
0.0329313
0.0320874
0.0287737
0.0312197
0.0297055
0.0186972
0.0201385
0.0183246
0.0168187
0.0245583
0.0426031
0.0583864
0.0511875
0.0247923
0.022707
0.00620096
0.00200876
0.0320425
0.0232708
0.00655181
0.0203597
0.00139132
0.00934673
0.0149809
0.0155819
0.0149353
0.0140887
0.01372
0.0128857
0.0126851
0.0121878
0.0119234
0.0119122
0.0122966
0.0134545
0.0164859
0.0285792
0.0277051
0.0715583
0.0480257
0.0414035
0.0387324
0.0492578
0.0467265
0.0350207
0.0461194
0.0274594
0.0321905
0.0295599
0.0180115
0.0363037
0.01686
0.0219261
0.0131436
0.102
0.0506117
0.0513371
0.0527072
0.051951
0.0515875
0.0498018
0.0466992
0.0458769
0.0458987
0.0449091
0.0441407
0.0456326
0.0456108
0.0416593
0.0396525
0.0404573
0.0384261
0.0380606
0.0368652
0.0340778
0.0345014
0.0341168
0.0339367
0.0332435
0.0319339
0.0307188
0.0274484
0.0301379
0.0279939
0.0180199
0.0202179
0.0182535
0.0168754
0.0217552
0.0426503
0.0619639
0.0654562
0.0341975
0.029909
0.0113386
0.000958421
0.024526
0.0179801
0.0059951
0.0208943
0.000407155
0.00891216
0.0146299
0.0154011
0.0149269
0.0140234
0.0140241
0.0132746
0.0130035
0.0127471
0.012294
0.0123707
0.0125156
0.0132744
0.015922
0.0245486
0.0229726
0.0680368
0.0515935
0.0392763
0.0377221
0.042149
0.0731581
0.0254309
0.0451623
0.0273605
0.0338092
0.0307188
0.0189653
0.0369464
0.0168859
0.0227487
0.0133911
0.101917
0.0507373
0.0504284
0.0518571
0.0529695
0.0516177
0.0499095
0.0461488
0.0459736
0.0459943
0.0465198
0.0448085
0.0452558
0.0448062
0.0412935
0.039246
0.0401167
0.0371858
0.0354464
0.0345606
0.0333617
0.033519
0.0335369
0.0332552
0.032377
0.0311183
0.0298346
0.0267034
0.029023
0.0268003
0.0191208
0.0201604
0.0185109
0.0167917
0.0198932
0.0419043
0.0595108
0.0737413
0.0503622
0.0374044
0.0152203
0.00111563
0.00417191
0.0111477
0.00333802
0.0158263
0.000182454
0.00510501
0.0145618
0.0151408
0.0148485
0.0140283
0.0140323
0.0137127
0.0134581
0.0129074
0.0128287
0.0128909
0.0131024
0.0132061
0.0154427
0.0218784
0.0237573
0.055181
0.0566108
0.0424906
0.0359744
0.0367847
0.0721073
0.0209725
0.0455854
0.0324691
0.0356241
0.0322095
0.0199937
0.0364796
0.016846
0.023911
0.0134271
0.0815266
0.0500648
0.0501504
0.0505039
0.0514393
0.0510097
0.0495657
0.0458512
0.0448645
0.0466907
0.0473553
0.0452633
0.0449666
0.0433548
0.0401029
0.0397301
0.0401703
0.0368827
0.0345696
0.0332035
0.0319565
0.0329575
0.0324636
0.0323882
0.0312771
0.0309168
0.0294204
0.0263177
0.0276801
0.0250074
0.0213117
0.0187696
0.0184622
0.0171873
0.017969
0.0258216
0.0522602
0.0809303
0.0731671
0.0526214
0.0190345
0.00170119
4.92127e-05
0.00480362
0.00168356
0.0122019
0.00011351
0.00345285
0.0139492
0.0146063
0.0146919
0.0140833
0.0140853
0.0139548
0.013697
0.0133384
0.0130159
0.0132609
0.0136432
0.0138698
0.0150366
0.0194401
0.0231167
0.0414868
0.0618528
0.0560334
0.0336408
0.0344018
0.0762663
0.0222354
0.0451055
0.0316039
0.0363542
0.0332053
0.0207922
0.0374636
0.0167804
0.0242775
0.0137281
0.0721516
0.0492312
0.050286
0.050157
0.0505259
0.0502008
0.0490419
0.0460088
0.0445331
0.0453402
0.0459509
0.0450758
0.0445636
0.042272
0.0387754
0.0398708
0.0406336
0.0376496
0.0341337
0.0321598
0.0312711
0.0320784
0.032098
0.0314014
0.0304895
0.0304839
0.0289757
0.0263602
0.0268422
0.0233708
0.0219798
0.0199458