/*--------------------------------*- C++ -*----------------------------------*\
| =========                 |                                                 |
| \\      /  F ield         | OpenFOAM: The Open Source CFD Toolbox           |
|  \\    /   O peration     | Version:  4.1                                   |
|   \\  /    A nd           | Web:      www.OpenFOAM.org                      |
|    \\/     M anipulation  |                                                 |
\*---------------------------------------------------------------------------*/
FoamFile
{
    version     2.0;
    format      ascii;
    class       volSymmTensorField;
    location    "1";
    object      R;
}
// * * * * * * * * * * * * * * * * * * * * * * * * * * * * * * * * * * * * * //

dimensions      [0 2 -2 0 0 0 0];

internalField   nonuniform List<symmTensor> 
6785
(
(0.848267 3.0667e-16 4.94744e-16 0.46056 0.254455 1.94029)
(0.00124894 1.66344e-20 3.08174e-20 0.0012154 1.34462e-05 0.00133591)
(0.00105728 -3.05901e-22 5.50227e-23 0.00105751 2.48583e-07 0.00105733)
(0.00105572 1.71757e-22 6.27573e-23 0.00105594 2.29581e-07 0.0010557)
(0.0010562 -1.58302e-22 -1.11829e-22 0.00105641 2.18482e-07 0.0010562)
(0.00105597 8.13187e-23 1.94291e-23 0.00105613 2.01498e-07 0.00105599)
(0.00105588 9.86789e-24 2.69479e-23 0.00105598 1.87224e-07 0.00105591)
(0.00105574 -1.55831e-22 -5.66233e-23 0.0010558 1.74078e-07 0.0010558)
(0.00105536 4.55595e-23 1.95633e-23 0.00105537 1.60897e-07 0.00105545)
(0.0010548 2.70061e-23 5.14391e-23 0.00105475 1.40945e-07 0.00105491)
(0.00105366 -9.38122e-23 -5.47429e-23 0.00105352 1.09129e-07 0.00105379)
(0.00105227 -4.85468e-24 -6.2758e-24 0.00105214 9.75228e-08 0.00105244)
(0.00105574 -7.87284e-25 4.24255e-23 0.00105598 1.63485e-07 0.0010559)
(0.00145504 4.70024e-22 -5.5511e-22 0.00143066 -2.68422e-05 0.00123361)
(0.198763 1.16363e-18 3.12683e-19 0.175864 -0.0442835 1e-15)
(2.07038 2.52363e-16 1.61888e-15 0.700979 -0.361542 4.41124)
(0.15421 1.03039e-18 5.64743e-17 0.0617217 -0.0335653 0.270797)
(0.00565765 -1.79638e-19 8.84083e-19 0.00368813 -0.000647525 0.00799595)
(0.000588967 3.24927e-22 9.48545e-21 0.000572682 -4.58699e-06 0.000606362)
(0.00046444 -3.37143e-21 -1.42937e-21 0.00047221 8.17496e-08 0.000452481)
(0.000455691 1.23237e-21 -4.07525e-22 0.000462135 -6.29765e-08 0.000443709)
(0.000449738 3.71627e-22 1.30311e-21 0.000455197 -1.50481e-07 0.000438101)
(0.000445567 -3.42842e-21 -7.23059e-22 0.000450514 -2.35559e-07 0.000434195)
(0.000443166 -1.65865e-23 -5.62077e-22 0.000447981 -3.30228e-07 0.000431956)
(0.000442181 5.39805e-22 1.24966e-21 0.000447156 -4.67458e-07 0.000431031)
(0.000441397 -1.92356e-21 -5.19296e-22 0.000446548 -7.44143e-07 0.000430153)
(0.000445463 -2.9994e-22 -1.18552e-21 0.000452145 -9.84143e-07 0.000433486)
(0.000486808 1.75825e-22 5.73761e-22 0.000507558 -3.35951e-07 0.000470637)
(0.00275232 -2.80341e-22 -3.38572e-21 0.0036464 -0.000872149 0.00169103)
(0.245496 2.94044e-18 -7.77324e-19 0.500573 -0.320741 1e-15)
(3.3206 1.48105e-16 2.20548e-15 1.13817 -1.09928 6.47681)
(0.255022 -1.16725e-17 6.05145e-17 0.0986158 -0.100132 0.426869)
(0.00637963 -1.41797e-18 2.64841e-19 0.00438847 -0.00157511 0.00858581)
(0.000705542 5.01595e-20 -6.02756e-20 0.000831511 -2.91205e-05 0.000652347)
(0.000553317 6.97856e-22 -2.34224e-20 0.000655507 -1.94184e-05 0.000483562)
(0.000512655 2.53992e-20 1.13847e-20 0.000590788 -1.81879e-05 0.000446226)
(0.000494126 1.92068e-20 -2.84927e-20 0.000564838 -1.79855e-05 0.000429239)
(0.000489885 -3.17691e-20 -1.27732e-20 0.000561764 -1.89612e-05 0.00042454)
(0.000497597 3.67832e-20 8.71449e-21 0.000576828 -2.2714e-05 0.000429774)
(0.000521887 1.08526e-20 -3.90726e-20 0.000616229 -4.98639e-05 0.000449323)
(0.000634828 -5.94114e-20 -1.76097e-20 0.000781076 -0.000287467 0.000549448)
(0.0016756 1.89486e-20 -5.5675e-20 0.0022982 -0.00213406 0.00149954)
(0.0115003 8.79425e-20 -4.24633e-20 0.0170063 -0.0154373 0.0103939)
(0.0961153 -5.15e-19 7.20865e-18 0.144607 -0.101455 0.0836839)
(0.80439 1.25027e-18 6.09526e-18 1.10059 -0.618382 0.578699)
(3.98257 -2.00588e-17 2.45043e-15 1.40465 -1.53578 7.33353)
(0.598177 -1.08142e-17 1.28472e-16 0.249346 -0.277082 1.01749)
(0.0590281 -1.41461e-17 7.66642e-18 0.0333384 -0.0327517 0.0887046)
(0.00391406 -1.06988e-18 4.81923e-19 0.0037715 -0.00240367 0.00475267)
(0.000933722 -4.83854e-20 -1.78321e-19 0.00136988 -0.000171788 0.000801292)
(0.000774361 1.13366e-19 6.21728e-20 0.00111073 -0.00011516 0.000646581)
(0.000741941 -5.26731e-20 -1.03049e-20 0.00105163 -0.000105845 0.000621658)
(0.000750937 -1.00591e-19 -9.01285e-20 0.00107226 -0.000115708 0.000632038)
(0.000794025 3.81159e-21 5.76409e-20 0.00115169 -0.000153234 0.00067322)
(0.000907259 -7.87158e-20 -8.45103e-21 0.00133849 -0.000305545 0.000784534)
(0.00133088 -3.00545e-20 -1.11195e-19 0.00196215 -0.00094202 0.00122068)
(0.00349548 -1.62912e-19 2.14252e-19 0.00502724 -0.00378432 0.00351606)
(0.0164034 -1.2158e-18 -5.8588e-20 0.0231472 -0.0182062 0.0176928)
(0.114849 -4.60276e-18 2.66333e-18 0.157075 -0.100803 0.131369)
(1.12884 -1.65325e-17 2.23755e-17 1.05975 -0.503866 1.44838)
(3.87284 -7.10451e-18 1.91336e-15 1.42842 -1.49308 6.74531)
(0.901486 2.96137e-18 1.61031e-16 0.412917 -0.356031 1.57919)
(0.170361 -2.26125e-17 -2.47807e-17 0.0961654 -0.0687086 0.269444)
(0.0291902 -5.64362e-18 -5.76113e-18 0.0215893 -0.0146211 0.0408528)
(0.00507128 -9.03397e-19 -1.86412e-18 0.00534011 -0.00309748 0.00598216)
(0.00163061 5.17497e-20 -4.25356e-19 0.00242152 -0.000781042 0.00153634)
(0.00119219 -4.14287e-21 -1.2417e-19 0.00192922 -0.000377318 0.00104069)
(0.00117227 -3.08245e-19 -2.18052e-19 0.00191471 -0.000331965 0.00102869)
(0.00125518 2.01014e-20 -7.6897e-20 0.0020806 -0.000379121 0.00112234)
(0.00141876 6.3559e-20 -1.33636e-19 0.00236064 -0.000515556 0.0012978)
(0.00186127 3.18222e-20 -3.0263e-19 0.00302079 -0.000992424 0.0017664)
(0.00367704 1.27016e-21 -6.75713e-20 0.00561289 -0.00260814 0.00364401)
(0.0142301 -1.39097e-18 -7.95442e-19 0.0213052 -0.0114091 0.014584)
(0.128004 6.4526e-19 5.329e-18 0.196495 -0.105824 0.138538)
(1.24553 -9.85262e-17 -7.6737e-17 1.06782 -0.174549 1.66766)
(3.10901 1.36279e-16 1.0575e-15 1.26064 -1.06092 5.00541)
(0.947118 -4.77686e-17 3.61944e-16 0.493458 -0.257385 1.71209)
(0.233062 -6.79897e-17 2.05656e-18 0.139166 -0.0548149 0.386345)
(0.0502797 -1.88167e-17 -6.18774e-18 0.0367701 -0.0155414 0.0732786)
(0.0141005 -5.90112e-18 -6.03648e-19 0.013055 -0.00559881 0.0181443)
(0.00445755 -1.49121e-18 4.63956e-19 0.00550639 -0.00202582 0.0049647)
(0.00221232 -2.8224e-19 4.20798e-20 0.0034783 -0.000993117 0.00215665)
(0.00178262 -6.26978e-19 5.24704e-20 0.00307842 -0.000760544 0.00165987)
(0.00179568 -3.43995e-19 2.89336e-19 0.00316475 -0.000783396 0.00168361)
(0.00197933 -6.86636e-21 -1.5696e-19 0.0035031 -0.000936491 0.00189916)
(0.00237262 -1.95557e-19 1.22367e-19 0.0040963 -0.00138002 0.00235934)
(0.00378036 -3.75934e-19 4.3296e-19 0.006119 -0.00277436 0.00389816)
(0.0114775 -5.2649e-19 1.0435e-19 0.0174132 -0.009792 0.0114572)
(0.154345 -1.3799e-17 1.97417e-17 0.243652 -0.121512 0.153335)
(1.49207 -5.7271e-16 4.39216e-17 1.50854 -0.430555 1.66354)
(1.94396 3.39279e-16 9.92871e-16 1.01894 -0.460855 2.62814)
(0.776058 -4.36739e-17 5.12961e-16 0.457248 -0.103104 1.47738)
(0.188032 -7.86757e-17 -6.2486e-18 0.122597 -0.0230026 0.322958)
(0.0518555 -2.72981e-17 -1.38311e-17 0.0392669 -0.0115597 0.0774516)
(0.0154328 -8.49095e-18 1.01388e-18 0.0144826 -0.00636528 0.0196568)
(0.00628919 -2.72204e-18 2.2796e-18 0.00759323 -0.00296938 0.00702514)
(0.00335876 -4.34475e-19 1.92708e-19 0.00512955 -0.00169994 0.00340718)
(0.0025077 -9.80674e-19 3.85976e-19 0.00434783 -0.00135056 0.00243953)
(0.00239792 -8.07374e-19 7.45081e-19 0.00432955 -0.00137022 0.00234046)
(0.00257112 -1.99572e-19 -1.8107e-20 0.00468288 -0.00156179 0.00256421)
(0.00294429 -1.70775e-20 4.8633e-19 0.00526927 -0.00201172 0.00304205)
(0.00417868 -6.75166e-19 8.44144e-19 0.00703044 -0.003305 0.00449206)
(0.0110208 -1.07814e-18 2.11211e-19 0.0168802 -0.00918508 0.0111059)
(0.159872 3.80203e-18 4.11483e-18 0.262805 -0.125579 0.144963)
(1.56768 -3.90084e-16 1.56328e-17 2.0424 -0.707943 1.29882)
(0.944184 -2.80973e-16 5.19183e-15 0.80725 0.0950826 0.998782)
(0.514639 -4.1391e-17 4.47026e-16 0.334072 -0.0291928 1.06373)
(0.114983 -4.80618e-17 -4.061e-17 0.0793894 -0.00684208 0.205934)
(0.0338867 -2.56989e-17 -1.3764e-17 0.0270106 -0.00855703 0.0499329)
(0.0125062 -9.08554e-18 2.02099e-18 0.0126758 -0.00655467 0.0149511)
(0.00629021 -2.65462e-18 1.72677e-18 0.0080951 -0.00369733 0.00665956)
(0.00394147 -1.74513e-19 2.04242e-19 0.00619694 -0.00242574 0.00397434)
(0.00308839 -1.03983e-18 4.51293e-19 0.00542119 -0.00202058 0.0030794)
(0.00294684 -8.94133e-19 4.43641e-19 0.0053796 -0.00204878 0.00296828)
(0.00310925 -2.25907e-19 3.72359e-20 0.00571839 -0.00226881 0.00319586)
(0.00346678 -2.28335e-19 4.51418e-19 0.00628608 -0.00272346 0.00368972)
(0.00460169 -5.839e-19 4.563e-19 0.00787389 -0.00385732 0.00510527)
(0.0109599 -9.17765e-19 6.71368e-19 0.0166812 -0.00891689 0.0113292)
(0.161149 -1.12806e-17 8.267e-18 0.26898 -0.120269 0.141244)
(1.54119 -2.27363e-16 2.13958e-17 2.22863 -0.91572 1.04632)
(0.580895 -6.73387e-16 4.98015e-15 0.426741 0.19973 0.616084)
(0.336628 -5.45737e-17 3.64007e-16 0.231201 -0.0069911 0.715688)
(0.0629444 -2.54778e-17 -3.07735e-17 0.0444944 -0.000820211 0.1163)
(0.0212933 -2.1859e-17 -1.3743e-17 0.017557 -0.00607687 0.0308278)
(0.00972598 -9.4738e-18 2.55913e-18 0.0108888 -0.0063436 0.0106904)
(0.00598711 -1.95832e-18 5.77191e-19 0.00847988 -0.00433455 0.00602953)
(0.00423978 2.57547e-19 1.34016e-19 0.00698799 -0.00311583 0.00428754)
(0.00350766 -1.56933e-18 5.65888e-19 0.00625332 -0.00265041 0.0035842)
(0.00339343 -7.8927e-19 -1.19412e-19 0.00621799 -0.00265706 0.00351777)
(0.00355743 -3.14527e-20 -1.01823e-20 0.00654392 -0.00285611 0.0037572)
(0.00387314 -8.74945e-19 6.77147e-19 0.00701139 -0.00319589 0.00422381)
(0.00493994 -1.11581e-19 -1.98357e-19 0.00839038 -0.00406258 0.00558304)
(0.0124721 -7.74775e-19 8.28484e-19 0.0189738 -0.00966023 0.0128006)
(0.176314 -3.94559e-17 1.33155e-17 0.293097 -0.12959 0.152844)
(1.56972 3.4277e-18 -1.70533e-17 2.31192 -1.09899 0.99686)
(0.566425 -5.10987e-16 3.20982e-15 0.336042 0.0546782 0.813303)
(0.249907 -4.70107e-17 3.24667e-16 0.170744 -0.00936123 0.543695)
(0.0377116 -1.52886e-17 -4.2041e-18 0.0268488 0.000298803 0.072189)
(0.0149203 -1.58924e-17 -1.36295e-17 0.012361 -0.00375528 0.0219939)
(0.00796566 -9.05614e-18 1.8712e-18 0.00974793 -0.00563097 0.00821538)
(0.00581856 -2.53002e-18 8.22618e-19 0.0089061 -0.00482279 0.0057602)
(0.00449984 6.50534e-19 -4.65217e-19 0.00766281 -0.00377335 0.00463098)
(0.00385361 -1.496e-18 5.22033e-19 0.00691879 -0.00324388 0.0040341)
(0.00375457 -1.40338e-18 -1.93824e-19 0.00686584 -0.00319006 0.00398351)
(0.00392392 4.03213e-19 -3.67722e-19 0.00718627 -0.00333962 0.00423738)
(0.00416176 -4.97646e-19 7.35974e-19 0.00746022 -0.00350127 0.00461988)
(0.00519297 -3.27069e-19 -1.87488e-19 0.00866572 -0.00416679 0.00592525)
(0.0131626 -3.60965e-19 -3.45343e-19 0.0194113 -0.0100662 0.013699)
(0.187914 -3.93529e-17 1.49935e-17 0.297008 -0.129364 0.174454)
(1.63725 8.01854e-17 4.49974e-19 2.05918 -1.03686 1.35222)
(0.599505 -1.59431e-16 1.35906e-15 0.305282 -0.0767837 0.930837)
(0.20457 -3.39331e-17 2.42222e-16 0.138611 -0.0158555 0.449804)
(0.0254151 -7.26452e-18 3.06529e-18 0.0180464 -0.000274089 0.0503317)
(0.0116913 -1.1631e-17 -1.04833e-17 0.00952594 -0.00214878 0.0180551)
(0.00687683 -9.43653e-18 1.64813e-18 0.00905023 -0.00477567 0.00682379)
(0.00572934 -2.50698e-18 -5.9062e-19 0.00922971 -0.00494603 0.00570894)
(0.00472231 6.58269e-19 -3.53316e-19 0.00818659 -0.00418314 0.00496348)
(0.00413137 -1.70791e-18 7.77659e-19 0.00742443 -0.00364805 0.00441013)
(0.00403326 -8.04357e-19 -1.08173e-18 0.0073341 -0.00355391 0.00435177)
(0.00416229 2.62763e-19 -4.49425e-19 0.00756409 -0.00364907 0.00455853)
(0.00437223 -8.27178e-19 1.1542e-18 0.0077763 -0.00369791 0.00491755)
(0.00533058 4.24519e-20 -6.63753e-19 0.00876006 -0.00421252 0.00612891)
(0.0139077 -2.3362e-18 9.79947e-20 0.0201298 -0.0108292 0.0147564)
(0.196614 -2.86116e-17 -5.04064e-18 0.296632 -0.13369 0.195851)
(1.64611 3.55557e-16 -2.71083e-16 1.65544 -0.980174 1.69754)
(0.586019 4.69403e-17 3.39615e-16 0.224567 -0.166821 0.942867)
(0.172674 -1.89277e-17 1.51428e-16 0.114583 -0.0180738 0.379582)
(0.0196948 -4.0341e-18 3.54613e-18 0.0137981 -0.000746512 0.0405764)
(0.00907076 -8.17904e-18 -8.38026e-18 0.0072994 -0.00121012 0.0144376)
(0.00610151 -8.87597e-18 1.96888e-18 0.00847514 -0.00379113 0.0059104)
(0.00565097 -2.93552e-18 1.04513e-19 0.00939064 -0.00488083 0.00570909)
(0.00489391 8.87685e-19 -3.09635e-19 0.00856033 -0.00444614 0.00523886)
(0.00433921 -1.99867e-18 1.5858e-18 0.00778507 -0.00395304 0.00469883)
(0.00423585 -1.30007e-18 -5.22392e-19 0.00767045 -0.00380777 0.00462214)
(0.00431893 3.71728e-19 -5.14411e-19 0.00780858 -0.00385359 0.00477104)
(0.00450325 -1.28333e-18 1.24736e-18 0.00797938 -0.00383044 0.00510193)
(0.00538547 -6.60648e-19 -1.77386e-19 0.00878863 -0.00420806 0.00619365)
(0.0153371 -3.45024e-18 2.10759e-18 0.0225371 -0.0121786 0.0163408)
(0.205417 -4.07852e-17 9.61443e-18 0.308099 -0.14058 0.212057)
(1.55905 3.60204e-16 -2.2835e-16 1.32417 -0.891965 1.80074)
(0.584114 7.35167e-17 2.09871e-16 0.208645 -0.204466 0.941067)
(0.155186 -5.73248e-18 1.4578e-16 0.10285 -0.0175748 0.339937)
(0.0176543 -3.41744e-18 5.46135e-18 0.0125069 -0.000984453 0.0363805)
(0.00769017 -5.09023e-18 -7.96003e-18 0.00604561 -0.000755053 0.012903)
(0.00564616 -8.70427e-18 1.17459e-18 0.00788687 -0.00381709 0.00569457)
(0.00559188 -4.21875e-18 1.32078e-18 0.00939059 -0.00476609 0.00573951)
(0.00503136 5.83535e-19 -5.21965e-19 0.00881643 -0.00452488 0.00543949)
(0.00453395 -2.24548e-18 2.04575e-18 0.00811336 -0.00410355 0.004954)
(0.00437369 -1.85301e-18 -2.58238e-20 0.00788887 -0.00395738 0.00479758)
(0.00440521 2.80574e-19 -5.09103e-19 0.00794136 -0.00394887 0.00487779)
(0.0045659 -1.37756e-18 1.66035e-18 0.00809729 -0.0038976 0.00517616)
(0.00530905 -1.14875e-18 2.92189e-19 0.00873012 -0.00417601 0.00611277)
(0.016491 -4.06573e-18 2.02771e-18 0.0249709 -0.0135637 0.0176039)
(0.215073 -6.35343e-17 1.45577e-17 0.329942 -0.153811 0.2233)
(1.41952 3.23313e-16 -2.17793e-16 1.12491 -0.804151 1.70592)
(0.398296 1.92774e-16 2.60817e-16 0.223001 0.0674788 0.40501)
(0.159014 2.70186e-18 2.0207e-16 0.111636 -0.0023545 0.336846)
(0.0220314 -2.11448e-18 1.17125e-17 0.0158961 -0.000338798 0.0452442)
(0.00725845 -3.69556e-18 -6.46813e-18 0.00559661 -0.000267771 0.0128656)
(0.00509905 -6.01931e-18 -1.91566e-19 0.00672195 -0.00200425 0.00561141)
(0.0053377 -4.56766e-18 1.70219e-18 0.00885724 -0.00425152 0.00550054)
(0.004985 2.01849e-19 3.43831e-20 0.00865343 -0.00424346 0.00535579)
(0.00461281 -1.72984e-18 1.10743e-18 0.00816821 -0.00389268 0.005048)
(0.00441168 -2.22787e-18 3.43871e-19 0.00785705 -0.00376567 0.00485755)
(0.004393 1.23522e-19 -7.67852e-20 0.0078442 -0.00376803 0.00487323)
(0.00457476 -1.33781e-18 1.09387e-18 0.00809913 -0.00375725 0.00518092)
(0.00538108 -1.7432e-18 6.70081e-19 0.00895272 -0.00408334 0.00622804)
(0.0186214 -4.93886e-18 2.17102e-18 0.0298803 -0.0158193 0.0201027)
(0.22357 -6.10573e-17 -6.64363e-19 0.357167 -0.164098 0.228249)
(1.12776 2.3855e-16 -2.32762e-16 0.850451 -0.783081 1.3634)
(0.960771 1.99987e-16 1.04015e-15 0.665003 0.0823984 1.53771)
(0.172298 -2.43754e-18 2.25826e-16 0.116317 -0.0128567 0.377776)
(0.0360961 -7.66059e-18 2.07201e-17 0.025848 -0.00531938 0.0811567)
(0.0201806 -2.26823e-17 -9.45874e-18 0.0132975 -0.00528407 0.0487519)
(0.010507 -1.21528e-17 -6.56749e-18 0.00886504 -0.00439565 0.0211939)
(0.00741471 -9.38815e-18 -1.94231e-19 0.00912469 -0.00542944 0.0114523)
(0.00621925 -4.32537e-18 4.96979e-19 0.00946362 -0.00558959 0.00798783)
(0.00547401 -2.42104e-18 8.15344e-19 0.00919239 -0.00506752 0.00635632)
(0.00505362 -2.52251e-18 1.00334e-18 0.00893447 -0.00472193 0.00556159)
(0.00478149 -1.0305e-18 4.41082e-19 0.00864186 -0.00438345 0.00511243)
(0.00471948 -1.12653e-18 6.5467e-19 0.00860228 -0.00412276 0.0050058)
(0.00507189 -1.73273e-18 1.08787e-18 0.009018 -0.00410322 0.00539913)
(0.0116357 -2.77288e-18 1.61541e-18 0.0196968 -0.0100289 0.0118172)
(0.115839 -2.81074e-17 4.32e-18 0.201182 -0.0884269 0.110197)
(0.862623 1.87823e-16 -7.16521e-17 0.791452 -0.40924 1.01932)
(0.38511 6.33156e-18 3.8168e-18 0.400813 -0.00128177 0.335606)
(0.339099 3.72616e-17 8.40238e-18 0.342155 -0.00803644 0.290608)
(0.358086 -1.3275e-18 7.19736e-18 0.360498 -0.021047 0.293229)
(0.358995 -1.42443e-17 6.83519e-18 0.360454 -0.0259406 0.28956)
(0.354133 -1.52703e-17 6.67674e-18 0.354016 -0.0206404 0.282956)
(0.32277 -2.55365e-17 8.30178e-18 0.317802 -0.0198609 0.258294)
(0.346105 -2.74544e-17 7.13766e-18 0.343235 -0.0145324 0.270221)
(0.350206 -3.63834e-17 5.62412e-18 0.34763 -0.0145153 0.272303)
(0.347749 -5.45277e-17 4.50836e-18 0.344262 -0.0150079 0.270347)
(0.319858 -1.09673e-16 8.18383e-18 0.312608 -0.0136654 0.252007)
(0.340644 -4.05161e-17 -2.88623e-18 0.335485 -0.00930495 0.263686)
(0.343465 -1.54271e-17 -2.07693e-18 0.338562 -0.010133 0.265257)
(0.323321 8.95261e-18 7.87513e-18 0.317347 -0.0120692 0.249531)
(0.346925 1.38817e-17 1.71866e-18 0.342621 -0.0113307 0.266607)
(0.352585 1.64441e-17 2.88794e-18 0.348827 -0.0125057 0.271013)
(0.352576 1.63401e-17 5.01694e-18 0.348742 -0.0144973 0.270245)
(0.331182 1.77055e-17 1.36866e-17 0.326706 -0.0139331 0.25188)
(0.349594 8.20139e-18 8.09562e-18 0.346092 -0.0106728 0.264926)
(0.352518 5.53064e-18 8.29878e-18 0.349169 -0.0103116 0.267125)
(0.335517 4.40333e-18 1.47467e-17 0.332012 -0.0110989 0.252879)
(0.356087 1.70521e-18 9.93701e-18 0.353813 -0.00993296 0.269197)
(0.361097 1.20937e-18 8.72987e-18 0.359195 -0.0100416 0.274061)
(0.361582 2.30055e-18 8.33932e-18 0.359579 -0.0106617 0.274209)
(0.342969 5.05408e-18 1.58629e-17 0.340725 -0.0118054 0.258377)
(0.360636 5.7389e-18 1.01079e-17 0.359202 -0.0106977 0.272603)
(0.364072 9.12192e-18 8.97799e-18 0.362773 -0.0104971 0.276179)
(0.363196 1.18092e-17 9.49138e-18 0.361507 -0.0108277 0.275143)
(0.342419 1.70782e-17 1.36801e-17 0.339872 -0.0114249 0.25776)
(0.357277 1.23835e-17 1.27608e-17 0.355267 -0.00977505 0.268328)
(0.358863 1.17839e-17 1.23761e-17 0.356615 -0.0102866 0.269921)
(0.340744 1.281e-17 1.64243e-17 0.337589 -0.0116231 0.256408)
(0.358983 3.61866e-18 1.52404e-17 0.35711 -0.0116029 0.270278)
(0.363118 2.628e-18 1.45601e-17 0.361606 -0.0110187 0.274327)
(0.362563 2.53429e-18 1.49046e-17 0.360602 -0.0112315 0.274071)
(0.341372 1.46332e-18 1.98397e-17 0.338235 -0.011865 0.25834)
(0.357067 -2.93355e-18 1.67769e-17 0.354648 -0.0118803 0.269451)
(0.358843 -3.62194e-18 1.71428e-17 0.356093 -0.0113512 0.271761)
(0.337961 -6.64566e-18 2.78856e-17 0.333614 -0.0107726 0.259916)
(0.358721 -1.17313e-17 2.09573e-17 0.356276 -0.0113969 0.273699)
(0.364119 -1.29181e-17 1.9134e-17 0.362354 -0.0102825 0.278274)
(0.363072 -1.23282e-17 1.92142e-17 0.360679 -0.00925709 0.279134)
(0.336331 -1.81861e-17 3.49425e-17 0.331685 -0.00428088 0.269011)
(0.359032 -1.79646e-17 2.31348e-17 0.357128 -0.00542961 0.276699)
(0.365955 -1.50281e-17 1.83792e-17 0.365435 -0.0038815 0.278804)
(0.366348 -1.23748e-17 1.70278e-17 0.366066 -0.00200459 0.276961)
(0.346914 -2.13817e-17 3.05855e-17 0.349731 0.00939877 0.260558)
(0.362029 -1.57874e-17 1.93483e-17 0.363252 0.00412798 0.266826)
(0.366008 -1.50588e-17 1.50987e-17 0.367124 0.00429544 0.268364)
(0.357074 -4.00535e-17 1.97213e-17 0.361446 0.0147121 0.256616)
(0.368841 -2.38153e-17 9.68727e-18 0.371404 -7.3036e-05 0.267848)
(0.372875 -1.90033e-17 6.82068e-18 0.37558 -0.00838763 0.272828)
(0.373717 -1.62709e-17 5.14492e-18 0.376251 -0.0143087 0.272371)
(0.364212 -2.18089e-17 1.70748e-18 0.3709 -0.0237995 0.257252)
(0.373458 -1.42329e-17 2.86736e-18 0.378193 -0.0217427 0.267625)
(0.376148 -1.26734e-17 3.36322e-18 0.381207 -0.0210146 0.27108)
(0.376277 -1.26089e-17 3.88588e-18 0.381965 -0.0211035 0.267974)
(0.366734 -1.32869e-17 7.63373e-18 0.379284 -0.0130794 0.245596)
(0.375173 -1.04134e-17 7.13947e-18 0.386938 -0.00585878 0.251789)
(0.377258 -8.89914e-18 8.36542e-18 0.3913 -0.000898242 0.249312)
(0.372459 -6.80888e-18 1.29266e-17 0.403011 0.00925271 0.212189)
(0.379116 -4.26985e-18 7.48286e-18 0.401584 0.00687038 0.240289)
(0.379427 -2.53508e-18 5.61632e-18 0.401385 0.0053993 0.247824)
(0.376651 -5.13626e-18 1.97349e-18 0.401231 0.00756912 0.24487)
(0.35768 1.37295e-18 -8.40893e-19 0.392235 0.0117594 0.22426)
(0.356132 1.77702e-17 -6.77064e-19 0.397644 -0.0129036 0.220391)
(0.347152 3.05232e-17 -2.71564e-18 0.39384 -0.0285298 0.21233)
(0.308399 4.60069e-17 -1.65711e-17 0.367479 -0.0530361 0.1797)
(0.291785 3.58199e-17 -5.16645e-18 0.355523 -0.0481239 0.166041)
(0.272704 3.67008e-17 -8.9713e-18 0.339206 -0.0539852 0.152044)
(0.2408 3.31171e-17 -1.40484e-17 0.307515 -0.0581058 0.136803)
(0.190796 3.10754e-17 -2.61195e-17 0.258014 -0.0770214 0.11037)
(0.170118 1.8702e-17 -1.48712e-17 0.234721 -0.0590066 0.101454)
(0.154937 1.63931e-17 -1.72168e-17 0.212014 -0.0628203 0.108015)
(0.141365 1.2442e-17 -1.43415e-17 0.19146 -0.0630059 0.11502)
(0.133236 1.0164e-17 -1.07915e-17 0.177758 -0.0686495 0.119464)
(0.131731 7.95034e-18 -2.40013e-18 0.171126 -0.0548931 0.124739)
(0.134202 8.30677e-18 -1.142e-18 0.172761 -0.0585796 0.128522)
(0.137736 9.13379e-18 1.06054e-18 0.176272 -0.0626795 0.126792)
(0.136655 8.98587e-18 3.74381e-18 0.168767 -0.0527525 0.142312)
(0.137437 9.46624e-18 4.24425e-18 0.172475 -0.0564802 0.141226)
(0.135627 9.06759e-18 5.88099e-18 0.17751 -0.0535797 0.129769)
(0.113009 6.02557e-18 7.44708e-18 0.151654 -0.0447714 0.10074)
(0.0898017 2.95999e-18 8.9459e-18 0.123673 -0.0377208 0.0777954)
(0.0593349 -1.69017e-18 1.1565e-17 0.0821448 -0.0258308 0.0502599)
(0.0451348 -5.18878e-19 8.40286e-19 0.0651617 -0.0205413 0.0383984)
(0.0252951 -3.33368e-18 4.31441e-19 0.0367252 -0.0141836 0.0231351)
(0.0161823 -4.09137e-18 4.79027e-19 0.0232885 -0.0104383 0.0156115)
(0.0142146 -3.64301e-18 4.98932e-19 0.0203998 -0.00887818 0.0136759)
(0.0122697 -3.10476e-18 5.38399e-19 0.0174261 -0.00728455 0.0117752)
(0.0100913 -2.53594e-18 5.62513e-19 0.0140209 -0.00562665 0.0096854)
(0.00761327 -1.93041e-18 5.49398e-19 0.0100245 -0.00381851 0.00735423)
(0.00557477 -1.43873e-18 5.04962e-19 0.00664233 -0.00228007 0.00545852)
(0.00523172 -1.40314e-18 4.67087e-19 0.00605343 -0.00194645 0.00511826)
(0.00602023 -1.46825e-18 4.51494e-19 0.00709389 -0.00211208 0.00592406)
(0.00585983 -1.46585e-18 4.19082e-19 0.00687534 -0.00196966 0.00577148)
(0.00565296 -1.45122e-18 3.84389e-19 0.00659656 -0.00178737 0.00556435)
(0.00543504 -1.4266e-18 3.49645e-19 0.00629221 -0.00156934 0.00534524)
(0.00536717 -1.41626e-18 3.36806e-19 0.00621233 -0.00147572 0.00527243)
(0.00529524 -1.41373e-18 3.20667e-19 0.00613139 -0.00141014 0.0052054)
(0.00520244 -1.40696e-18 2.99627e-19 0.00600326 -0.00132796 0.00511823)
(0.00509674 -1.39806e-18 2.75327e-19 0.00583911 -0.00123998 0.00502147)
(0.00499172 -1.3799e-18 2.45173e-19 0.00565828 -0.00113388 0.00492949)
(0.00567244 -1.61916e-18 4.17618e-19 0.00655652 -0.00117937 0.00559491)
(0.00562231 -1.64253e-18 3.95022e-19 0.00650369 -0.00110654 0.00555818)
(0.00555875 -1.65101e-18 3.62162e-19 0.00643914 -0.00101261 0.0055025)
(0.00550805 -1.66249e-18 3.24598e-19 0.00639482 -0.000918289 0.00546515)
(0.005456 -1.67238e-18 2.79879e-19 0.00633754 -0.000806726 0.00542832)
(0.0054115 -1.67965e-18 2.31615e-19 0.00627278 -0.000672824 0.00540129)
(0.00536478 -1.68587e-18 1.87344e-19 0.00619462 -0.000538429 0.00537928)
(0.00530925 -1.68961e-18 1.40367e-19 0.00608948 -0.000412079 0.00535791)
(0.00524366 -1.68954e-18 8.89559e-20 0.00593781 -0.000277493 0.00533435)
(0.00520676 -1.6851e-18 3.57529e-20 0.00582253 -0.000140577 0.00535243)
(0.0059314 -1.82023e-18 -2.80291e-19 0.00676958 -7.16327e-05 0.00607392)
(0.00593199 -1.78048e-18 -3.69909e-19 0.00673405 5.75087e-05 0.00612422)
(0.0059375 -1.71225e-18 -4.71282e-19 0.0067054 0.000177825 0.00618787)
(0.00595097 -1.64124e-18 -5.77232e-19 0.00667301 0.000302046 0.00627453)
(0.00597821 -1.56369e-18 -6.87453e-19 0.00663931 0.000431903 0.006391)
(0.00602346 -1.47406e-18 -8.06652e-19 0.00659308 0.000585726 0.00654406)
(0.00608845 -1.3798e-18 -9.2825e-19 0.00652804 0.000760679 0.00673599)
(0.00615934 -1.28563e-18 -1.03696e-18 0.0064303 0.00092231 0.00695894)
(0.00631224 -1.19241e-18 -1.13469e-18 0.00644414 0.00106886 0.00730393)
(0.00742621 -1.40109e-18 -1.48806e-18 0.00766473 0.00140011 0.00863648)
(0.00768775 -1.32104e-18 -1.5805e-18 0.00775649 0.00158423 0.00914682)
(0.00802113 -1.18616e-18 -1.62957e-18 0.00789034 0.00175601 0.0097928)
(0.00844986 -9.94548e-19 -1.62327e-18 0.00807912 0.00194757 0.0105976)
(0.00899125 -7.75907e-19 -1.55954e-18 0.00834149 0.00213438 0.0115977)
(0.0096771 -5.28362e-19 -1.43627e-18 0.00868462 0.00235462 0.0128484)
(0.0105577 -2.41453e-19 -1.23717e-18 0.00914622 0.00261757 0.0144356)
(0.0116117 1.36457e-19 -9.27799e-19 0.00968187 0.00296851 0.016344)
(0.0130013 7.64845e-19 -4.61338e-19 0.0105919 0.00334338 0.0187153)
(0.0173523 1.14563e-18 4.2678e-19 0.0140407 0.00503597 0.0251078)
(0.0192603 1.75045e-18 1.03886e-18 0.0152168 0.005618 0.0283786)
(0.0217543 2.50429e-18 1.93026e-18 0.0168637 0.00613557 0.032661)
(0.0246185 3.45682e-18 3.05963e-18 0.0186913 0.00686934 0.0376114)
(0.0279883 4.49669e-18 4.56806e-18 0.0209405 0.00771793 0.0433179)
(0.0318987 5.4996e-18 6.28691e-18 0.0236204 0.00860993 0.0498331)
(0.0365032 6.6168e-18 8.22238e-18 0.0268054 0.00959996 0.0574435)
(0.0419045 7.91173e-18 1.04125e-17 0.0307145 0.0107148 0.0662267)
(0.0485307 9.51694e-18 1.29763e-17 0.0358835 0.0117983 0.0766981)
(0.0659978 1.47252e-17 1.93151e-17 0.0490411 0.0189127 0.101727)
(0.073108 1.6389e-17 2.29303e-17 0.0541558 0.021561 0.11272)
(0.081386 1.79834e-17 2.70684e-17 0.0604198 0.0233564 0.124982)
(0.089977 1.96985e-17 3.19199e-17 0.0664774 0.0253983 0.137376)
(0.0988214 2.15308e-17 3.72938e-17 0.0726745 0.0270041 0.149257)
(0.10785 2.44411e-17 4.30264e-17 0.080064 0.0274625 0.159298)
(0.116027 2.67543e-17 4.70395e-17 0.0870909 0.0280598 0.166907)
(0.124241 2.7474e-17 5.14529e-17 0.0935781 0.0300894 0.174314)
(0.132823 2.81181e-17 5.58216e-17 0.102494 0.03153 0.180027)
(0.141119 2.81176e-17 6.05056e-17 0.111691 0.0317304 0.182365)
(0.179814 4.62995e-17 8.13506e-17 0.141486 0.0477003 0.214426)
(0.185731 5.18325e-17 8.41902e-17 0.147686 0.0543732 0.214436)
(0.189169 5.39595e-17 8.79116e-17 0.151739 0.056509 0.209377)
(0.192276 5.72895e-17 9.36692e-17 0.151884 0.0622242 0.206432)
(0.195763 5.94999e-17 1.002e-16 0.152229 0.0664538 0.203439)
(0.199339 5.79526e-17 1.06686e-16 0.151585 0.0656527 0.199929)
(0.2006 4.89311e-17 1.03682e-16 0.153913 0.0566415 0.191709)
(0.204153 4.01528e-17 9.52549e-17 0.160281 0.04783 0.191882)
(0.191419 3.34198e-17 7.27481e-17 0.16672 0.0400497 0.158408)
(0.214967 3.42455e-17 7.9109e-17 0.154616 0.0475721 0.211091)
(0.192029 2.55831e-17 4.87522e-17 0.15326 0.046156 0.16484)
(0.170862 7.02941e-18 9.57174e-18 0.158413 0.0246849 0.123494)
(0.16623 2.08796e-18 4.41174e-18 0.159826 0.0181043 0.113405)
(0.16981 -2.57096e-18 2.11956e-18 0.16081 0.0189794 0.11544)
(0.178335 9.94149e-19 1.78149e-18 0.171306 0.0212221 0.121355)
(0.173376 2.79999e-18 1.3838e-18 0.165291 0.0243903 0.117978)
(0.183584 5.74497e-18 1.92931e-18 0.180221 0.0223212 0.120866)
(0.179159 9.6536e-18 8.6666e-19 0.175794 0.0251929 0.11634)
(0.183489 3.47257e-18 7.53348e-19 0.176952 0.0234865 0.119361)
(0.192051 1.05821e-18 1.10295e-18 0.187861 0.0211835 0.124959)
(0.18727 1.08958e-18 1.4611e-18 0.182331 0.0247765 0.121751)
(0.191216 1.97414e-19 1.63795e-18 0.183099 0.0216985 0.124802)
(0.199324 8.41729e-19 1.91226e-18 0.193831 0.019835 0.129988)
(0.194121 1.47402e-18 1.89955e-18 0.187991 0.02409 0.126423)
(0.202019 5.97258e-19 1.6435e-18 0.198539 0.0201757 0.127825)
(0.196573 -6.14845e-20 -3.13606e-19 0.192869 0.0252308 0.123035)
(0.199037 -1.26951e-18 -9.74888e-19 0.19219 0.0232495 0.124966)
(0.20598 1.19336e-21 -7.78085e-19 0.201709 0.0191813 0.129379)
(0.199282 6.26524e-19 -1.82069e-18 0.194156 0.023298 0.125423)
(0.206196 6.39847e-19 -2.58649e-19 0.203865 0.0185849 0.126427)
(0.199307 1.77099e-18 9.89263e-19 0.19669 0.0230081 0.121097)
(0.200635 1.46615e-18 1.7403e-18 0.194856 0.0222479 0.122463)
(0.207184 1.14088e-18 2.41049e-18 0.203883 0.0177171 0.126657)
(0.199873 9.68287e-19 2.79463e-18 0.195928 0.0220812 0.122484)
(0.201315 2.31e-18 2.71806e-18 0.194238 0.0213936 0.12438)
(0.207928 2.87978e-18 3.33714e-18 0.203392 0.0170667 0.128791)
(0.200338 5.14885e-18 4.53094e-18 0.19516 0.0209471 0.124543)
(0.206214 3.50764e-18 2.93301e-18 0.202603 0.0152675 0.124929)
(0.198498 3.98396e-18 1.71731e-18 0.194562 0.01778 0.119128)
(0.199727 3.38264e-18 1.75382e-18 0.192685 0.0189094 0.120394)
(0.206394 3.37443e-18 1.74413e-18 0.201607 0.0159415 0.124626)
(0.198518 5.29837e-18 1.98288e-18 0.192997 0.0199846 0.120262)
(0.205196 3.52058e-18 1.86695e-18 0.202011 0.0160378 0.120849)
(0.197583 3.77339e-18 9.647e-19 0.194376 0.0198849 0.114952)
(0.199003 -5.53519e-19 2.82583e-19 0.192836 0.0191858 0.116057)
(0.206045 -5.74889e-19 1.94154e-19 0.201912 0.0153172 0.120304)
(0.198432 -4.39015e-19 1.7832e-20 0.193719 0.0183261 0.115969)
(0.200414 -1.27823e-18 -3.79174e-19 0.192726 0.0172253 0.117871)
(0.207978 -5.15651e-19 -4.13442e-19 0.202449 0.0151215 0.122475)
(0.200749 8.16713e-20 -6.34291e-20 0.194869 0.0191713 0.118223)
(0.208 1.56726e-19 -2.17993e-19 0.203839 0.01485 0.119319)
(0.201153 2.31833e-19 5.97929e-19 0.19724 0.0177229 0.11358)
(0.203811 -9.73189e-19 3.66329e-19 0.197311 0.0149518 0.114856)
(0.212001 -9.11983e-19 -8.89221e-20 0.207604 0.0143978 0.119183)
(0.205457 -1.1002e-18 -1.65271e-18 0.200741 0.0188194 0.115015)
(0.214162 1.77718e-18 1.80883e-19 0.212024 0.0156089 0.117082)
(0.208487 5.4616e-18 4.97447e-20 0.206918 0.0191172 0.111993)
(0.21193 3.85368e-18 4.39326e-19 0.207996 0.0184644 0.113323)
(0.220853 3.2621e-18 1.04147e-18 0.218921 0.0152252 0.117626)