/*--------------------------------*- C++ -*----------------------------------*\
| =========                 |                                                 |
| \\      /  F ield         | OpenFOAM: The Open Source CFD Toolbox           |
|  \\    /   O peration     | Version:  4.1                                   |
|   \\  /    A nd           | Web:      www.OpenFOAM.org                      |
|    \\/     M anipulation  |                                                 |
\*---------------------------------------------------------------------------*/
FoamFile
{
    version     2.0;
    format      ascii;
    class       volVectorField;
    location    "1";
    object      U;
}
// * * * * * * * * * * * * * * * * * * * * * * * * * * * * * * * * * * * * * //

dimensions      [0 1 -1 0 0 0 0];

internalField   nonuniform List<vector> 
6785
(
(1.13996e-14 0.797897 15.4769)
(9e-15 -4.92285 11.834)
(-3.16932e-15 -4.12379 11.9923)
(3.26895e-15 -3.61172 11.8371)
(8.98461e-16 -3.0537 11.7157)
(-7.56119e-17 -2.63084 11.5395)
(2.32648e-15 -2.30425 11.3267)
(3.96847e-16 -2.07054 11.0764)
(-7.3736e-16 -1.91146 10.7972)
(1.33381e-15 -1.84171 10.4827)
(8.17455e-17 -1.98368 10.068)
(-5.28352e-16 -2.46637 9.4682)
(-2.71062e-16 -2.80339 8.89259)
(-2.05274e-16 -1.41644 8.90205)
(-1.20837e-16 1.78986 7.77751)
(1.5997e-14 -5.20117 22.0881)
(1.57945e-14 -14.3901 21.0285)
(-5.82776e-16 -13.4701 20.1644)
(3.76596e-15 -12.2307 19.32)
(1.56859e-15 -11.4817 18.4021)
(1.27078e-16 -10.9318 17.4669)
(3.17702e-15 -10.4213 16.5341)
(1.1451e-15 -9.92033 15.5965)
(-7.60304e-16 -9.40823 14.6491)
(1.15152e-15 -8.86259 13.6887)
(5.43463e-16 -8.31963 12.7071)
(-7.0138e-16 -7.92402 11.6713)
(5.02197e-16 -7.58899 10.5401)
(1.74661e-17 -6.16616 8.96807)
(-1.48151e-16 -1.97488 5.50236)
(1.69876e-14 -7.68337 22.7415)
(1.76437e-14 -17.15 24.5766)
(6.51396e-16 -15.0189 23.688)
(2.04063e-16 -13.5165 22.6687)
(1.31748e-15 -12.6389 21.4585)
(1.08316e-15 -11.8911 20.2592)
(3.62386e-15 -11.116 19.0848)
(8.32423e-16 -10.3049 17.914)
(1.61907e-16 -9.45285 16.7484)
(4.33139e-15 -8.57141 15.6139)
(-6.05275e-16 -7.73648 14.5176)
(1.00968e-16 -7.00807 13.2929)
(-3.9001e-16 -6.07608 11.4749)
(4.19623e-17 -4.10999 8.43076)
(4.33515e-18 -0.922318 3.72137)
(1.48071e-14 -8.09044 18.0096)
(1.89977e-14 -17.2871 25.026)
(2.48769e-15 -15.3556 24.4273)
(4.16901e-15 -13.3814 22.8599)
(9.39344e-16 -12.5501 21.4247)
(2.82321e-15 -11.6791 20.1244)
(4.38682e-15 -10.7544 18.851)
(1.00146e-15 -9.81228 17.585)
(1.26377e-15 -8.86734 16.3383)
(1.53017e-15 -7.9431 15.1282)
(-1.01953e-16 -7.04986 13.8136)
(1.03493e-15 -6.02582 11.8543)
(5.86357e-16 -4.36727 8.37883)
(-3.86475e-16 -1.69243 3.02882)
(1.81576e-16 0.0944982 -1.91931)
(1.08159e-14 -6.53013 11.0251)
(1.90017e-14 -15.6128 23.1123)
(6.41997e-15 -15.7454 25.0584)
(3.85592e-15 -13.7144 23.3288)
(2.41848e-15 -12.6738 21.4366)
(1.6418e-15 -11.826 19.9395)
(3.70889e-15 -10.9151 18.5631)
(8.7053e-16 -9.99208 17.1935)
(-6.73866e-16 -9.08735 15.8416)
(9.71393e-16 -8.21467 14.5339)
(1.79631e-16 -7.34558 13.152)
(5.46851e-16 -6.2845 11.1772)
(4.50437e-16 -4.69407 7.69069)
(-9.74515e-16 -2.16111 2.96861)
(1.76638e-15 -0.551839 -1.51754)
(8.45799e-15 -4.1019 5.02959)
(1.8444e-14 -13.0181 19.8447)
(1.06377e-14 -15.3199 25.0912)
(4.7006e-15 -13.976 24.1265)
(3.14561e-15 -12.8009 21.9015)
(2.44695e-15 -11.921 20.1349)
(3.29154e-15 -11.0357 18.6614)
(2.04075e-15 -10.1475 17.2304)
(9.50716e-16 -9.28542 15.8074)
(1.22025e-15 -8.45814 14.4291)
(1.24768e-15 -7.62902 13.0483)
(1.12413e-15 -6.62426 11.3087)
(7.49313e-16 -5.16808 8.40848)
(1.25851e-15 -3.05887 4.3403)
(3.41445e-15 -0.428108 0.971316)
(7.35112e-15 -2.95134 3.29107)
(1.75267e-14 -11.43 18.5376)
(1.21365e-14 -14.5682 25.0777)
(5.32972e-15 -13.7272 24.6095)
(3.47624e-15 -12.6283 22.2686)
(3.01118e-15 -11.7443 20.37)
(3.09712e-15 -10.8669 18.848)
(2.57482e-15 -10.0003 17.3921)
(2.07163e-15 -9.16401 15.9403)
(1.36439e-15 -8.36035 14.5294)
(1.57874e-15 -7.54648 13.1436)
(2.71844e-15 -6.55091 11.5063)
(8.36053e-16 -5.13736 8.85148)
(5.80306e-16 -3.03909 4.85664)
(3.855e-15 0.445076 2.01556)
(7.04563e-15 -3.45555 5.15745)
(1.62745e-14 -10.8783 18.6378)
(1.1488e-14 -13.9829 25.0405)
(5.65275e-15 -13.3663 24.6119)
(3.60159e-15 -12.3747 22.2488)
(2.35309e-15 -11.4866 20.3484)
(2.49307e-15 -10.6034 18.8301)
(2.82597e-15 -9.74874 17.375)
(2.00426e-15 -8.92936 15.9236)
(1.36191e-15 -8.13965 14.5127)
(1.85274e-15 -7.32037 13.1294)
(1.8629e-15 -6.27205 11.4955)
(1.01686e-15 -4.7596 8.76928)
(8.53963e-16 -2.48817 4.40671)
(1.60133e-15 1.32971 2.51374)
(9.2017e-15 -3.54455 5.94771)
(1.54327e-14 -10.6519 18.5921)
(1.08222e-14 -13.7208 24.8577)
(5.87341e-15 -13.2665 24.4261)
(3.64982e-15 -12.3479 22.0863)
(1.48748e-15 -11.4378 20.2288)
(3.28826e-15 -10.5347 18.7325)
(2.78653e-15 -9.67616 17.2892)
(1.12512e-15 -8.85669 15.8499)
(1.56582e-15 -8.06582 14.45)
(1.86949e-15 -7.23036 13.0718)
(5.59829e-16 -6.10799 11.4217)
(1.50848e-15 -4.41079 8.54818)
(1.07415e-15 -1.94483 3.49444)
(-1.74912e-15 2.00738 2.77387)
(7.38944e-15 -3.18431 5.62452)
(1.46226e-14 -10.2904 18.0156)
(1.07569e-14 -13.5982 24.5007)
(5.11537e-15 -13.4479 24.3571)
(3.72319e-15 -12.5451 22.0538)
(1.95005e-15 -11.5791 20.1822)
(2.1041e-15 -10.6466 18.6986)
(2.84299e-15 -9.77754 17.2706)
(1.07468e-15 -8.95117 15.8435)
(-1.72148e-16 -8.15409 14.4527)
(1.67134e-15 -7.3131 13.0789)
(1.04465e-15 -6.15643 11.4352)
(3.66441e-16 -4.31891 8.54597)
(1.24112e-15 -1.86582 3.20456)
(-1.986e-15 2.09977 2.86969)
(4.94069e-15 -2.73492 5.06099)
(1.54975e-14 -9.71323 17.0695)
(1.04562e-14 -13.451 23.9777)
(6.08353e-15 -13.7708 24.4522)
(4.57527e-15 -12.9083 22.279)
(8.74059e-16 -11.8585 20.3201)
(2.5222e-15 -10.8822 18.8102)
(2.76952e-15 -9.99995 17.3922)
(9.18027e-16 -9.16575 15.9722)
(1.04606e-15 -8.35932 14.5809)
(1.20902e-15 -7.52059 13.2058)
(1.74712e-16 -6.38298 11.5942)
(-4.39037e-17 -4.50339 8.84266)
(-2.24956e-15 -2.34879 3.77569)
(-1.86435e-15 1.55978 3.13403)
(5.7514e-15 -2.22142 4.1872)
(1.35281e-14 -8.87859 15.713)
(1.01658e-14 -13.1232 23.1899)
(6.84783e-15 -13.9873 24.4624)
(3.99635e-15 -13.2322 22.5446)
(6.82369e-16 -12.0845 20.4796)
(2.16528e-15 -11.0378 18.9033)
(3.66708e-15 -10.1396 17.4955)
(1.42908e-15 -9.30765 16.0973)
(1.67436e-15 -8.50391 14.7215)
(2.27712e-15 -7.67939 13.3576)
(-5.07629e-16 -6.58589 11.7809)
(2.55208e-16 -4.69812 9.17958)
(-2.1382e-15 -2.87064 4.46074)
(-2.59183e-15 0.862616 3.57635)
(3.4267e-15 -2.37035 4.53379)
(1.28414e-14 -8.50578 15.2051)
(1.11132e-14 -12.9344 22.6653)
(7.2532e-15 -14.2908 24.6001)
(5.10556e-15 -13.7642 23.0983)
(1.81855e-15 -12.6197 21.0207)
(1.88312e-15 -11.5205 19.3327)
(4.04029e-15 -10.5825 17.8557)
(1.04834e-15 -9.72042 16.4162)
(1.38703e-15 -8.88065 14.9937)
(2.29625e-15 -8.02795 13.5896)
(3.74439e-17 -6.97076 12.0211)
(1.81617e-16 -5.1293 9.63876)
(-6.40265e-16 -3.53556 5.35416)
(-3.58437e-15 0.0585295 3.84158)
(8.33365e-16 -1.3667 2.11712)
(1.06412e-14 -6.98528 12.2914)
(1.08175e-14 -11.9619 20.6414)
(7.40472e-15 -13.8577 23.6107)
(4.89889e-15 -13.4775 22.5253)
(1.94376e-15 -12.1886 20.4531)
(2.1284e-15 -11.0108 18.8101)
(3.55454e-15 -10.1378 17.5317)
(1.39672e-15 -9.39718 16.3214)
(1.63306e-15 -8.69121 15.1282)
(2.04768e-15 -7.97668 13.927)
(1.9564e-16 -7.05944 12.5462)
(3.94161e-16 -5.26011 10.3579)
(-1.17006e-15 -4.14338 6.64849)
(-2.58717e-15 -0.799257 5.44763)
(4.05161e-15 -3.52461 7.45593)
(1.10807e-14 -8.41277 15.3891)
(1.29705e-14 -13.0351 22.741)
(9.73483e-15 -15.7818 25.7636)
(6.46496e-15 -16.2709 25.2974)
(3.51522e-15 -15.5094 23.1467)
(1.89344e-15 -14.2145 20.8607)
(2.07441e-15 -12.8786 18.8218)
(1.6559e-15 -11.6221 16.9459)
(1.29461e-15 -10.3945 15.1609)
(1.58424e-15 -9.18537 13.4093)
(4.0806e-16 -7.90799 11.5084)
(3.94642e-16 -5.88092 9.202)
(-3.51781e-16 -3.9225 4.73219)
(-2.13488e-15 0.235114 1.42262)
(-6.99498e-16 0.0336408 -0.562277)
(-3.68269e-15 0.387855 -2.51572)
(-2.60312e-15 0.539877 -1.64312)
(-2.05035e-15 0.656733 -1.02963)
(-1.68108e-15 0.682664 -0.757133)
(-2.19988e-15 0.997231 -0.20317)
(-1.28181e-15 0.635077 -0.254065)
(-1.06112e-15 0.659878 -0.218648)
(-1.06746e-15 0.648201 -0.219231)
(1.08359e-15 0.710049 0.0830842)
(1.88874e-15 0.342372 -0.0980676)
(1.89643e-15 0.359209 -0.104775)
(1.62223e-15 0.271365 0.313936)
(1.19831e-15 0.185276 0.0651958)
(1.04294e-15 0.210152 -0.00937483)
(8.75289e-16 0.223448 -0.0566666)
(-2.64639e-17 0.0983165 0.365517)
(2.95899e-16 0.200344 0.168907)
(1.56004e-16 0.244221 0.0650705)
(-7.69046e-16 0.217573 0.334633)
(-3.63593e-16 0.298909 0.207758)
(-3.26695e-16 0.336364 0.116972)
(-1.71662e-16 0.344266 -0.00379688)
(-1.23285e-15 0.400339 0.169068)
(-7.11411e-16 0.442645 0.177748)
(-4.53671e-16 0.49902 0.121414)
(-7.02317e-16 0.502526 0.00118986)
(-1.6143e-15 0.653392 0.0613689)
(-1.12021e-15 0.627646 0.147065)
(-9.69766e-16 0.672875 0.0788483)
(-1.95236e-15 0.973381 0.0648484)
(-1.52901e-15 0.811478 0.13723)
(-1.35907e-15 0.889054 0.11421)
(-1.35163e-15 0.872028 0.0319342)
(-2.32084e-15 1.15868 -0.0482666)
(-1.57396e-15 0.978099 0.039178)
(-1.44884e-15 1.02124 0.0155035)
(-2.56435e-15 1.40445 -0.0493325)
(-1.80446e-15 1.10648 -0.0144565)
(-1.67629e-15 1.20492 -0.0658158)
(-1.39181e-15 1.1946 -0.100063)
(-2.40496e-15 1.4747 -0.13708)
(-1.70626e-15 1.18696 -0.106392)
(-1.55947e-15 1.29428 -0.185645)
(-1.37861e-15 1.30592 -0.219872)
(-2.24968e-15 1.52106 -0.313726)
(-1.63545e-15 1.26353 -0.317902)
(-1.46081e-15 1.33005 -0.338305)
(-2.04216e-15 1.64054 -0.669642)
(-1.21292e-15 1.33619 -0.659844)
(-1.14883e-15 1.44719 -0.771211)
(-1.08525e-15 1.52088 -0.898293)
(-1.22921e-15 1.68884 -1.15615)
(-8.8109e-16 1.37214 -0.941814)
(-7.83192e-16 1.46827 -0.931037)
(-5.49033e-16 1.55454 -0.972954)
(-5.41511e-16 1.66386 -0.986461)
(-3.21008e-16 1.17087 -0.969876)
(-2.15126e-16 1.2295 -0.987749)
(-4.18267e-16 1.24437 -1.15781)
(-6.77347e-17 0.696058 -1.41351)
(1.44355e-16 0.698951 -1.45462)
(4.0943e-17 0.856079 -1.45979)
(1.85645e-15 0.883142 -2.95381)
(1.53037e-15 0.0565158 -2.59579)
(1.1531e-15 0.159703 -2.18191)
(-3.77671e-16 0.496107 -0.598068)
(-1.18292e-15 -0.816197 3.26639)
(-8.10259e-16 -0.896186 3.2619)
(-8.90191e-16 -0.799245 3.27565)
(-1.473e-15 -2.06375 6.42558)
(-1.10701e-15 -2.62805 6.78284)
(-1.11547e-15 -2.91428 6.83036)
(-1.12571e-15 -2.93469 7.01616)
(-1.3658e-15 -5.66869 11.052)
(-6.68929e-16 -5.09927 9.21339)
(-7.64751e-16 -5.69308 9.70485)
(-8.20784e-16 -9.0546 14.1492)
(-3.84284e-16 -8.31415 10.9708)
(-4.43661e-16 -8.72899 11.7201)
(-6.70025e-16 -9.46965 13.4848)
(-4.64175e-16 -9.39761 13.3814)
(-3.6329e-16 -9.61509 13.6691)
(7.91171e-16 -11.6411 16.6698)
(4.15375e-16 -10.4345 14.6057)
(7.79061e-16 -10.8135 15.1901)
(8.67413e-16 -10.8703 15.3042)
(9.46971e-16 -10.9794 15.422)
(1.04679e-15 -11.0809 15.5476)
(1.13996e-15 -11.1337 15.7059)
(1.26374e-15 -11.2275 16.0864)
(1.41202e-15 -11.4033 16.5695)
(2.05942e-15 -11.9451 17.7529)
(1.89902e-15 -11.6909 16.6864)
(2.03685e-15 -11.7718 16.8583)
(2.13695e-15 -11.7575 16.941)
(2.29585e-15 -11.9815 17.3099)
(2.39056e-15 -11.9177 17.276)
(2.49913e-15 -11.9792 17.3595)
(2.60522e-15 -11.9979 17.4163)
(2.71723e-15 -12.0303 17.4934)
(3.52051e-15 -12.2368 18.1236)
(3.27083e-15 -11.9808 17.5665)
(3.40246e-15 -12.046 17.6437)
(3.4802e-15 -12.0777 17.6657)
(3.56862e-15 -12.0964 17.7258)
(3.64828e-15 -12.1343 17.8679)
(3.74036e-15 -12.2004 18.0351)
(3.85161e-15 -12.1735 18.0183)
(3.95225e-15 -12.1929 18.0603)
(4.06198e-15 -12.1729 18.0782)
(4.78213e-15 -11.776 17.6465)
(4.31785e-15 -11.6995 17.8606)
(4.45282e-15 -11.7122 17.861)
(4.52388e-15 -11.7333 17.8983)
(4.61219e-15 -11.7337 17.9395)
(4.70043e-15 -11.709 18.0156)
(4.81543e-15 -11.7687 18.2452)
(4.92392e-15 -11.7619 18.2957)
(5.02779e-15 -11.7261 18.2548)
(5.30223e-15 -10.6659 16.6982)
(5.13931e-15 -10.7183 17.61)
(5.27945e-15 -10.6987 17.7092)
(5.34558e-15 -10.7473 17.9117)
(5.45263e-15 -10.6958 17.8527)
(5.56263e-15 -10.7037 17.8751)
(5.68625e-15 -10.6831 17.8769)
(5.85015e-15 -10.6392 17.9124)
(6.2397e-15 -10.6454 18.1239)
(6.33619e-15 -8.51213 15.1271)
(6.38264e-15 -9.20147 16.9577)
(6.49471e-15 -9.03783 16.7068)
(6.63862e-15 -9.01122 16.6785)
(6.99685e-15 -8.97619 16.7139)
(7.02252e-15 -8.93491 16.5466)
(6.98053e-15 -8.89058 16.2642)
(6.96679e-15 -8.83726 15.9489)
(6.92331e-15 -8.64392 15.525)
(6.3495e-15 -5.6245 11.2414)
(7.10559e-15 -6.84252 14.0258)
(6.86798e-15 -6.50115 13.3294)
(6.73004e-15 -6.44644 12.9323)
(6.5474e-15 -6.34669 12.3527)
(6.3905e-15 -6.33225 11.6671)
(6.52708e-15 -5.95844 10.5911)
(6.08776e-15 -6.01271 10.216)
(5.72658e-15 -5.79162 9.53376)
(5.28872e-15 -5.46274 8.79956)
(2.38516e-15 -2.75406 3.55566)
(4.46658e-15 -3.86105 7.06766)
(3.786e-15 -3.34812 5.88808)
(3.54434e-15 -3.35771 5.53134)
(3.14106e-15 -3.1823 4.89311)
(2.65965e-15 -3.15844 4.12887)
(1.84625e-15 -3.05423 2.91189)
(1.04263e-15 -2.77531 1.67467)
(1.03751e-15 -2.66436 1.3787)
(3.20644e-16 -2.39704 -0.848712)
(6.69862e-16 -1.49208 1.03688)
(4.2393e-16 -1.29719 0.264611)
(-5.49889e-16 -1.26249 -1.80515)
(-9.47301e-16 -1.00524 -1.39035)
(-6.73077e-16 -0.863997 -1.24014)
(-7.69336e-16 -0.993174 -0.847503)
(-3.91267e-16 -1.16026 -1.11243)
(-4.78536e-16 -0.671386 -0.711213)
(-8.20063e-16 -0.662876 -0.981143)
(-1.69847e-15 -0.592128 -0.743614)
(-5.56894e-16 -0.296521 -0.509269)
(-6.16562e-16 -0.0370048 -0.703357)
(-7.11374e-16 0.0933899 -0.575054)
(-7.19719e-16 -0.334191 -0.436544)
(-1.06537e-15 -0.515699 -0.502636)
(-1.12271e-15 -0.0804897 -0.353842)
(-1.4348e-15 0.205674 -0.435258)
(-1.12335e-15 0.395408 -0.365263)
(-1.08863e-15 -0.0585034 -0.345389)
(-1.69872e-15 -0.283999 -0.33327)
(-9.00485e-16 -0.114845 -0.266737)
(-8.79397e-16 0.0436476 -0.277221)
(-8.59432e-16 -0.0697491 -0.229563)
(-8.03039e-16 -0.0390781 -0.202079)
(-1.17589e-15 0.189426 -0.207169)
(-1.82487e-15 0.229928 -0.167104)
(-1.13306e-15 -0.128543 -0.173775)
(-1.32002e-15 -0.340405 -0.136711)
(-1.22288e-15 -0.0697911 -0.124492)
(-1.69443e-15 0.0258698 -0.10769)
(-9.32418e-16 0.0866301 -0.0939539)
(-8.2669e-16 -0.186091 -0.114806)
(-1.10662e-15 -0.32509 -0.0885994)
(-1.02809e-15 -0.150983 -0.0750438)
(-1.47236e-15 -0.163781 -0.0803996)
(-1.52022e-15 -0.176015 -0.0735239)
(-8.35208e-16 -0.11804 -0.0720319)
(-1.11859e-15 -0.0481702 -0.0996191)
(-1.09056e-15 0.00500205 -0.0943953)
(-3.94106e-16 -0.1651 -0.0852978)
(-4.52805e-16 -0.282054 -0.0979183)
(-3.0957e-16 -0.0671874 -0.0696471)
(-3.99754e-16 -0.0659331 -0.0934312)
(-4.89686e-16 0.018848 -0.0914996)
(-5.65993e-16 -0.124842 -0.0708659)
(-4.06989e-16 -0.21158 -0.0789583)
(-5.08619e-16 -0.0727693 -0.0405986)
(-6.512e-16 -0.104233 -0.0565121)
(-7.73886e-16 -0.075698 -0.0509245)
(-3.75296e-16 -0.0419471 -0.0212673)
(-3.99614e-16 -0.00647237 -0.030752)
(-3.6695e-16 0.0514243 -0.0310714)
(-2.82416e-16 -0.0731025 -0.012565)
(-3.20061e-16 -0.150635 -0.00149702)
(-3.35903e-16 -0.00424733 0.0116073)
(-2.19162e-16 -0.0156287 0.0303243)
(5.18967e-16 0.0736002 0.0223274)
(-1.98689e-16 -0.0609003 0.0245334)
(5.75983e-17 -0.1335 0.0585484)
(3.51442e-16 -0.0276157 0.0523561)
(4.8696e-16 -0.0806008 0.0973512)
(5.09519e-16 -0.0489355 0.0842564)
(4.20322e-16 -0.0246046 0.0732046)
(5.89362e-16 -0.032148 0.140568)
(2.00663e-16 0.00921972 0.123582)
(2.02344e-16 -0.113127 0.0956591)
(1.6338e-16 -0.228469 0.178641)
(3.1594e-16 -0.0670817 0.124712)
(4.73647e-16 -0.146945 0.227646)
(3.87325e-16 -0.0919797 0.19383)
(2.57557e-16 -0.215577 0.153499)
(4.10952e-16 -0.348352 0.245235)
(3.30228e-16 -0.181631 0.184794)
(6.80787e-16 -0.327531 0.286075)
(5.04061e-16 -0.297382 0.242958)
(4.49227e-16 -0.199608 0.199577)
(6.25753e-16 -0.313981 0.295736)
(4.35617e-16 -0.282215 0.251987)
(3.74178e-16 -0.40685 0.236473)
(4.5341e-16 -0.626553 0.340157)
(3.44392e-16 -0.330686 0.308563)
(5.26012e-16 -0.655423 0.460284)
(-7.01699e-19 0.960064 1.12768)
(-8.90499e-19 1.15657 1.12918)
(-1.09594e-18 1.26215 1.13519)
(-1.3596e-18 1.36673 1.14076)
(-1.69346e-18 1.45897 1.14646)
(-2.1167e-18 1.54197 1.15169)
(-2.65153e-18 1.61586 1.15593)
(-3.32645e-18 1.68106 1.15892)
(-4.17485e-18 1.73759 1.15996)
(-5.23869e-18 1.7856 1.15902)
(-6.5628e-18 1.82431 1.15506)
(-8.19752e-18 1.85289 1.14666)
(-1.02066e-17 1.87119 1.13358)
(-1.26625e-17 1.87843 1.11556)
(-1.56445e-17 1.87347 1.09212)
(-1.92296e-17 1.85398 1.06181)
(-2.34974e-17 1.81818 1.02322)
(-2.85655e-17 1.76391 0.976721)
(-3.45174e-17 1.68684 0.921346)
(-4.14264e-17 1.58204 0.855972)
(-4.93832e-17 1.44223 0.780812)
(-5.84035e-17 1.25587 0.696168)
(-6.84142e-17 1.00473 0.604738)
(-7.88404e-17 0.648871 0.51222)
(-8.74962e-17 0.098513 0.43053)
(-8.84067e-17 -0.783045 0.405047)
(-7.60677e-17 -2.35563 0.149729)
(-6.26901e-17 -0.265535 0.718537)
(-3.35749e-17 -0.0600315 1.01594)
(-8.66686e-18 0.274471 1.21741)
(-3.87714e-18 -0.0192395 0.573216)
(-1.15901e-18 -0.926917 0.403781)
(-1.41305e-18 -2.72712 0.494443)
(-1.78776e-18 -3.79606 0.55858)
(-2.27092e-18 -4.80529 0.670911)
(-2.85869e-18 -5.33846 0.838544)
(-3.66954e-18 -5.14997 1.11645)
(-7.06512e-18 -8.18282 2.57876)
(-1.70611e-17 -13.6186 5.02312)
(-3.35918e-17 -13.4847 4.73497)
(-4.483e-17 -22.0696 6.59066)
(-1.26147e-16 -26.7628 5.16879)
(-2.47407e-15 2.20056 8.06653)
(-2.37627e-15 -2.44177 7.59806)
(-2.44945e-15 -0.333125 6.6909)
(-2.92e-15 2.20706 7.51354)
(-3.01127e-15 2.47821 7.27005)
(-3.14659e-15 3.21767 7.04937)
(-3.29143e-15 3.9224 6.69189)
(-3.42667e-15 4.54853 6.3049)
(-3.54709e-15 5.09825 5.90484)
(-3.63911e-15 5.40543 5.35624)
(-3.6909e-15 5.54074 4.76885)
(-3.68117e-15 5.42544 4.10006)
(-3.57801e-15 5.0025 3.36723)
(-3.3284e-15 4.17961 2.58747)
(-2.85105e-15 2.81244 1.79363)
(-2.13416e-15 0.738957 0.9826)
(-1.84243e-15 -0.477854 0.266302)
(-1.70133e-15 -0.653968 -0.0557565)
(-1.08653e-15 -0.548298 0.0300539)
(-2.12984e-16 -2.19508 -0.589529)
(-1.27303e-16 -1.6872 -0.0560925)
(-1.26589e-16 -1.64396 -0.726999)
(-1.02665e-16 -0.251166 -0.242202)
(-9.46411e-17 -0.199831 -0.679961)
(-5.82017e-17 -0.331532 -0.228267)
(-5.26792e-17 1.86026 0.0215544)
(-2.32686e-17 0.11868 -0.139212)
(-2.1737e-17 -1.5954 -0.023193)
(-1.66077e-17 -3.48244 -1.09668)
(-8.57251e-18 -2.08008 -0.559377)
(-5.10764e-18 0.898598 -0.171486)
(-2.45179e-18 2.72411 0.34324)
(-4.36825e-19 2.56634 0.296815)
(1.30341e-18 -4.65671 -1.19862)
(9.85978e-19 -2.59469 -0.651422)
(1.12832e-16 2.20629 0.213177)
(3.1673e-16 2.12483 0.242139)
(-7.75691e-19 0.96258 1.20441)
(-9.84445e-19 1.15676 1.19906)
(-1.21022e-18 1.26142 1.20276)
(-1.49983e-18 1.36576 1.20618)
(-1.86598e-18 1.45787 1.21025)
(-2.32963e-18 1.54092 1.21396)
(-2.91488e-18 1.61503 1.21684)
(-3.65267e-18 1.6806 1.21848)
(-4.5792e-18 1.73766 1.21821)
(-5.74027e-18 1.78635 1.21586)
(-7.18557e-18 1.82611 1.21062)
(-8.9693e-18 1.85603 1.20092)
(-1.11609e-17 1.8758 1.18638)
(-1.38387e-17 1.88462 1.1666)
(-1.70912e-17 1.88153 1.14128)
(-2.10046e-17 1.86432 1.10909)
(-2.56647e-17 1.83107 1.06851)
(-3.12009e-17 1.7794 1.01962)
(-3.77102e-17 1.7052 0.961675)
(-4.52722e-17 1.60344 0.893362)
(-5.39931e-17 1.46658 0.814711)
(-6.38928e-17 1.28273 0.725736)
(-7.49043e-17 1.03276 0.62883)
(-8.64386e-17 0.676371 0.528291)
(-9.62086e-17 0.120676 0.430648)
(-9.75963e-17 -0.801079 0.361398)
(-8.20319e-17 -2.35677 0.0835252)
(-5.97506e-17 -1.30377 0.127445)
(-3.22707e-17 -0.430102 0.792063)
(-7.39072e-18 -0.68509 0.721631)
(-3.83642e-18 -0.596097 0.571295)
(-1.15679e-18 -2.12049 0.520563)
(-1.42723e-18 -3.10282 0.566773)
(-1.80396e-18 -3.984 0.687498)
(-2.28825e-18 -4.81888 0.846918)
(-2.86186e-18 -5.16371 0.968085)
(-3.73352e-18 -5.04526 1.27056)
(-7.48551e-18 -8.46699 2.88273)
(-1.77211e-17 -13.531 4.86123)
(-3.21168e-17 -14.2539 4.64918)
(-3.15573e-17 -22.732 7.0543)
(-2.14604e-16 -25.6036 5.50925)
(-2.76862e-15 2.48537 9.0161)
(-2.78872e-15 -1.69777 8.26938)
(-2.92759e-15 0.494319 7.31625)
(-3.06741e-15 2.09614 7.99093)
(-3.17542e-15 2.50909 7.51438)
(-3.3247e-15 3.30983 7.52996)
(-3.47559e-15 4.06286 7.15525)
(-3.6152e-15 4.69409 6.73963)
(-3.73976e-15 5.25861 6.33402)
(-3.8329e-15 5.59061 5.76357)
(-3.88259e-15 5.74153 5.14915)
(-3.86609e-15 5.64257 4.44392)
(-3.74949e-15 5.23031 3.66622)
(-3.47554e-15 4.40822 2.83315)
(-2.95273e-15 3.02773 1.97913)
(-2.14562e-15 0.906087 1.11092)
(-1.78104e-15 -0.623308 0.307485)
(-1.65901e-15 -0.648035 0.0955665)
(-1.04341e-15 -0.647316 0.230385)
(-2.11222e-16 -2.10673 -0.50018)
(-1.26095e-16 -1.5285 -0.00449472)
(-1.26104e-16 -1.40695 -0.71385)
(-1.06298e-16 0.222937 -0.323214)
(-9.6215e-17 0.387142 -0.615041)
(-6.22301e-17 0.18184 -0.412945)
(-5.35492e-17 1.25026 0.0458567)
(-2.30106e-17 0.95803 0.0258863)
(-2.18102e-17 -1.2584 -0.0423944)
(-1.6824e-17 -3.31345 -1.12667)
(-9.0214e-18 -2.15337 -0.681789)
(-5.51364e-18 0.219426 -0.228536)
(-2.60052e-18 2.39396 0.375841)
(-5.22952e-19 2.17431 0.466283)
(1.28689e-18 -4.50005 -1.17626)
(6.25025e-19 -2.73249 -0.684562)
(9.94455e-17 0.82583 0.147028)
(2.78183e-16 1.79591 0.242044)
(-8.45707e-19 0.965783 1.25299)
(-1.07143e-18 1.15811 1.24356)
(-1.31459e-18 1.26198 1.24555)
(-1.62616e-18 1.36602 1.24738)
(-2.01955e-18 1.45794 1.25026)
(-2.51692e-18 1.54094 1.25289)
(-3.14405e-18 1.61512 1.25483)
(-3.9334e-18 1.68083 1.25552)
(-4.92372e-18 1.73812 1.25439)
(-6.16319e-18 1.78712 1.25108)
(-7.70592e-18 1.82738 1.24501)
(-9.60894e-18 1.85796 1.23448)
(-1.1946e-17 1.87844 1.21905)
(-1.47997e-17 1.88805 1.19821)
(-1.82654e-17 1.88584 1.17172)
(-2.24371e-17 1.86967 1.1383)
(-2.74077e-17 1.83754 1.09644)
(-3.33116e-17 1.78702 1.04592)
(-4.02591e-17 1.71401 0.986083)
(-4.8336e-17 1.61345 0.915514)
(-5.76601e-17 1.47759 0.833993)
(-6.82561e-17 1.29428 0.741131)
(-8.00609e-17 1.04372 0.638565)
(-9.24729e-17 0.684904 0.528664)
(-1.03152e-16 0.122536 0.413117)
(-1.0498e-16 -0.821308 0.306606)
(-8.70711e-17 -2.38569 0.0542559)
(-6.03209e-17 -1.1439 0.204253)
(-3.32622e-17 -0.392409 0.780835)
(-7.40414e-18 -0.406855 0.647357)
(-3.88317e-18 -0.729671 0.500346)
(-1.15874e-18 -1.66246 0.415935)
(-1.45263e-18 -3.06388 0.72136)
(-1.83165e-18 -3.98261 0.835748)
(-2.31367e-18 -4.85292 1.00159)
(-2.86899e-18 -5.21118 1.08863)
(-3.8598e-18 -5.34531 1.4413)
(-8.03323e-18 -8.99109 3.13913)
(-1.83628e-17 -13.7652 4.64473)
(-2.9719e-17 -14.8699 4.56687)
(-2.4138e-17 -23.4313 7.25671)
(-3.10606e-16 -25.1494 5.80179)
(-2.87497e-15 2.54237 9.19089)
(-2.95347e-15 -0.793832 8.54045)
(-3.04383e-15 0.509579 7.75542)
(-3.14056e-15 2.06922 8.12608)
(-3.27616e-15 2.50669 7.81923)
(-3.43199e-15 3.33001 7.79684)
(-3.58451e-15 4.12454 7.44221)
(-3.72637e-15 4.76461 7.01465)
(-3.85245e-15 5.34253 6.6063)
(-3.94563e-15 5.69378 6.02688)
(-3.99327e-15 5.85908 5.39779)
(-3.97182e-15 5.77493 4.6724)
(-3.84605e-15 5.37447 3.86858)
(-3.55567e-15 4.55908 3.00362)
(-3.00066e-15 3.17937 2.1135)
(-2.11714e-15 1.0343 1.21177)
(-1.58735e-15 -1.03501 0.286844)
(-1.67247e-15 -0.699219 -0.0378038)
(-1.05805e-15 -0.840745 0.359333)
(-2.11134e-16 -2.11449 -0.443301)
(-1.25551e-16 -1.55567 0.0535627)
(-1.25565e-16 -1.44092 -0.655189)
(-1.09314e-16 -0.0525734 -0.337539)
(-9.79553e-17 0.195317 -0.55937)
(-6.64213e-17 0.0179446 -0.458166)
(-5.52122e-17 1.29339 0.0221382)
(-2.28156e-17 0.811243 -0.0543224)
(-2.18831e-17 -1.16528 -0.0432736)
(-1.70809e-17 -3.24707 -1.11463)
(-9.53603e-18 -2.2432 -0.767632)
(-5.88415e-18 -0.114293 -0.420267)
(-2.74248e-18 2.38942 0.343466)
(-6.29772e-19 2.07258 0.54202)
(1.27688e-18 -4.37225 -1.15142)
(1.45638e-19 -2.87274 -0.74978)
(8.21289e-17 0.926847 0.119328)
(2.42293e-16 1.88575 0.228767)
(-9.2135e-19 0.969432 1.30517)
(-1.16557e-18 1.1595 1.29262)
(-1.42766e-18 1.26239 1.29313)
(-1.76299e-18 1.36605 1.29352)
(-2.18591e-18 1.45777 1.29534)
(-2.71983e-18 1.54073 1.297)
(-3.39231e-18 1.61501 1.29809)
(-4.23753e-18 1.68093 1.29792)
(-5.29704e-18 1.73856 1.296)
(-6.62157e-18 1.788 1.29184)
(-8.26991e-18 1.82893 1.28498)
(-1.03025e-17 1.86039 1.27368)
(-1.27977e-17 1.88186 1.25741)
(-1.58429e-17 1.89255 1.23557)
(-1.95409e-17 1.89158 1.20795)
(-2.3994e-17 1.87689 1.17332)
(-2.93039e-17 1.84641 1.13022)
(-3.56094e-17 1.79764 1.07812)
(-4.30358e-17 1.7265 1.0164)
(-5.16767e-17 1.62794 0.943619)
(-6.16612e-17 1.49403 0.859303)
(-7.30194e-17 1.31244 0.762756)
(-8.56925e-17 1.06289 0.655038)
(-9.90642e-17 0.704218 0.53691)
(-1.10761e-16 0.14069 0.405877)
(-1.13295e-16 -0.811518 0.268353)
(-9.3492e-17 -2.38238 0.0189163)
(-6.17458e-17 -1.33653 0.246158)
(-3.3987e-17 -0.488357 0.814371)
(-7.58379e-18 -0.416634 0.638792)
(-3.63654e-18 -0.88214 0.426116)
(-1.17868e-18 -1.74051 0.471386)
(-1.48588e-18 -3.09585 0.871119)
(-1.86547e-18 -4.02729 0.983089)
(-2.34142e-18 -4.88293 1.14383)
(-2.88326e-18 -5.21694 1.21658)
(-4.02669e-18 -5.5896 1.64283)
(-8.57595e-18 -9.3504 3.2887)
(-1.8845e-17 -13.8708 4.3666)
(-2.68362e-17 -15.3355 4.50574)
(-2.23054e-17 -24.0036 7.30086)
(-4.05616e-16 -24.5104 5.97053)
(-3.02839e-15 2.9341 9.26446)
(-3.07788e-15 -0.136915 8.75812)
(-3.13909e-15 0.614489 7.9219)
(-3.24113e-15 1.99628 8.41673)
(-3.39285e-15 2.5209 8.17013)
(-3.55212e-15 3.38877 8.07832)
(-3.70786e-15 4.20912 7.76833)
(-3.85308e-15 4.86185 7.32715)
(-3.98177e-15 5.45255 6.91498)
(-4.07592e-15 5.82492 6.32566)
(-4.12226e-15 6.00617 5.68051)
(-4.09632e-15 5.93806 4.93334)
(-3.96153e-15 5.55013 4.10077)
(-3.65464e-15 4.74074 3.2002)
(-3.06705e-15 3.35967 2.26965)
(-2.10582e-15 1.21716 1.33827)
(-1.2526e-15 -1.10922 0.366805)
(-1.66037e-15 -0.641844 -0.090361)
(-1.06339e-15 -0.923062 0.390912)
(-2.10395e-16 -2.08801 -0.395157)
(-1.26364e-16 -1.47953 0.118914)
(-1.25149e-16 -1.4215 -0.588905)
(-1.1154e-16 -0.0749899 -0.327331)
(-9.95838e-17 0.129023 -0.498918)
(-7.05125e-17 0.0192498 -0.483265)
(-5.67462e-17 1.232 -0.00960954)
(-2.26277e-17 0.927697 -0.109946)
(-2.19502e-17 -1.00044 -0.0444077)
(-1.73404e-17 -3.16117 -1.0926)
(-1.00506e-17 -2.28197 -0.83435)
(-6.25429e-18 -0.249014 -0.721523)
(-2.92212e-18 2.22632 0.300408)
(-7.59616e-19 1.96664 0.516858)
(1.27303e-18 -4.25259 -1.12575)
(-3.23417e-19 -2.99402 -0.817045)
(5.43933e-17 0.720275 0.0334476)
(2.0543e-16 1.84361 0.176837)
(-1.00247e-18 0.973575 1.35616)
(-1.26642e-18 1.16137 1.34114)
(-1.54865e-18 1.26325 1.34037)
(-1.90914e-18 1.36647 1.33948)
(-2.36327e-18 1.45796 1.34034)
(-2.93574e-18 1.54085 1.34112)
(-3.65591e-18 1.6152 1.34144)
(-4.55991e-18 1.68131 1.34053)
(-5.69209e-18 1.73926 1.33794)
(-7.10574e-18 1.78911 1.33303)
(-8.86435e-18 1.83065 1.32545)
(-1.10325e-17 1.86293 1.31352)
(-1.36932e-17 1.88535 1.29657)
(-1.69385e-17 1.89708 1.27388)
(-2.08792e-17 1.89728 1.24531)
(-2.56259e-17 1.88397 1.20962)
(-3.1291e-17 1.85503 1.16546)
(-3.80168e-17 1.80792 1.11199)
(-4.59438e-17 1.73855 1.04857)
(-5.51764e-17 1.64185 0.97376)
(-6.58532e-17 1.50981 0.886823)
(-7.80113e-17 1.32988 0.786721)
(-9.15952e-17 1.08147 0.673954)
(-1.05974e-16 0.723528 0.548114)
(-1.18755e-16 0.161397 0.403818)
(-1.22217e-16 -0.789779 0.240702)
(-1.01044e-16 -2.37569 -0.0178569)
(-6.4469e-17 -1.49311 0.283057)
(-3.52312e-17 -0.594382 0.845748)
(-8.01714e-18 -0.434408 0.668659)
(-3.27652e-18 -1.02098 0.427142)
(-1.16118e-18 -1.82515 0.567811)
(-1.52399e-18 -3.1292 1.01537)
(-1.90186e-18 -4.0594 1.12485)
(-2.36892e-18 -4.88352 1.27454)
(-2.90456e-18 -5.19049 1.33964)
(-4.20985e-18 -5.78696 1.82105)
(-9.07672e-18 -9.62445 3.33305)
(-1.91872e-17 -13.9022 4.09063)
(-2.38719e-17 -15.7473 4.52674)
(-2.51075e-17 -24.4333 7.28503)
(-5.04562e-16 -23.7012 6.26122)
(-3.17818e-15 2.75442 9.33166)
(-3.19216e-15 0.747158 9.17998)
(-3.23525e-15 0.747648 8.17212)
(-3.34782e-15 1.87333 8.65607)
(-3.50625e-15 2.51033 8.3909)
(-3.6684e-15 3.44263 8.38433)
(-3.82835e-15 4.28284 8.08347)
(-3.97711e-15 4.9531 7.63986)
(-4.10859e-15 5.55735 7.22283)
(-4.20403e-15 5.95175 6.62632)
(-4.24939e-15 6.15055 5.96705)
(-4.21941e-15 6.1 5.20031)
(-4.0762e-15 5.72639 4.34075)
(-3.75382e-15 4.92482 3.40548)
(-3.13603e-15 3.54318 2.43354)
(-2.11205e-15 1.42199 1.4752)
(-1.19845e-15 -0.80105 0.50773)
(-1.60131e-15 -0.638046 -0.0459037)
(-1.05239e-15 -0.975815 0.431596)
(-2.07626e-16 -2.04532 -0.34145)
(-1.27305e-16 -1.37115 0.190747)
(-1.24884e-16 -1.37635 -0.523552)
(-1.13196e-16 -0.0272466 -0.30606)
(-1.01005e-16 0.118943 -0.441668)
(-7.46735e-17 0.038823 -0.49863)
(-5.82782e-17 1.11279 0.00996535)
(-2.24571e-17 1.0821 -0.144498)
(-2.20119e-17 -0.829201 -0.048043)
(-1.7592e-17 -3.06498 -1.0658)
(-1.05473e-17 -2.30137 -0.891663)
(-6.52919e-18 -0.319248 -0.771176)
(-3.1324e-18 2.06046 0.243736)
(-8.75125e-19 1.80143 0.413689)
(1.26693e-18 -4.11445 -1.0944)
(-8.31454e-19 -3.09301 -0.877088)
(4.22736e-17 0.436743 -0.090073)
(1.63396e-16 1.82019 0.131122)
(-1.08947e-18 0.978024 1.40684)
(-1.3744e-18 1.16349 1.38994)
(-1.67805e-18 1.2643 1.38807)
(-2.06523e-18 1.36703 1.38611)
(-2.55238e-18 1.45826 1.38615)
(-3.16553e-18 1.54106 1.38617)
(-3.93593e-18 1.61548 1.38583)
(-4.90178e-18 1.68177 1.38428)
(-6.1104e-18 1.74003 1.38112)
(-7.61763e-18 1.7903 1.37561)
(-9.49139e-18 1.83246 1.36739)
(-1.18015e-17 1.86556 1.35493)
(-1.46356e-17 1.88896 1.33743)
(-1.80907e-17 1.90176 1.31405)
(-2.22856e-17 1.90316 1.28468)
(-2.73395e-17 1.89126 1.24807)
(-3.33768e-17 1.86392 1.20298)
(-4.05435e-17 1.81856 1.14829)
(-4.89949e-17 1.75106 1.08331)
(-5.88494e-17 1.65635 1.00659)
(-7.02539e-17 1.52636 0.917163)
(-8.32531e-17 1.34838 0.813636)
(-9.77934e-17 1.1016 0.695944)
(-1.13231e-16 0.745226 0.562869)
(-1.27164e-16 0.18669 0.40709)
(-1.31735e-16 -0.757595 0.223218)
(-1.09715e-16 -2.36129 -0.0512827)
(-6.82794e-17 -1.62959 0.313021)
(-3.70913e-17 -0.695811 0.879939)
(-8.69745e-18 -0.464422 0.727186)
(-2.88296e-18 -1.20134 0.479476)
(-1.11118e-18 -1.91526 0.685093)
(-1.56561e-18 -3.14836 1.15038)
(-1.93845e-18 -4.07974 1.25756)
(-2.39462e-18 -4.8704 1.39073)
(-2.93084e-18 -5.15813 1.44622)
(-4.40174e-18 -5.9714 1.96286)
(-9.55192e-18 -9.86558 3.32782)
(-1.94276e-17 -13.8952 3.85936)
(-2.13264e-17 -16.0932 4.61333)
(-3.12005e-17 -24.7314 7.22083)
(-6.00668e-16 -22.9773 6.66911)
(-3.32972e-15 2.61379 9.46256)
(-3.29848e-15 1.49629 9.87022)
(-3.33332e-15 1.12639 8.78584)
(-3.45366e-15 1.80886 8.88858)
(-3.61614e-15 2.47208 8.59249)
(-3.78431e-15 3.4854 8.70392)
(-3.94825e-15 4.35842 8.398)
(-4.10114e-15 5.04672 7.95893)
(-4.23591e-15 5.66537 7.53609)
(-4.33326e-15 6.0825 6.9344)
(-4.3783e-15 6.3002 6.26239)
(-4.34494e-15 6.26855 5.47767)
(-4.19412e-15 5.9108 4.59222)