/*--------------------------------*- C++ -*----------------------------------*\
| =========                 |                                                 |
| \\      /  F ield         | OpenFOAM: The Open Source CFD Toolbox           |
|  \\    /   O peration     | Version:  4.1                                   |
|   \\  /    A nd           | Web:      www.OpenFOAM.org                      |
|    \\/     M anipulation  |                                                 |
\*---------------------------------------------------------------------------*/
FoamFile
{
    version     2.0;
    format      ascii;
    class       volScalarField;
    location    "3";
    object      p;
}
// * * * * * * * * * * * * * * * * * * * * * * * * * * * * * * * * * * * * * //

dimensions      [0 2 -2 0 0 0 0];

internalField   nonuniform List<scalar> 
6785
(
593.484
539.298
487.417
438.677
393.481
351.144
311.474
274.175
238.815
205.134
173.754
145.302
116.434
81.4818
50.9431
120.44
98.5545
93.5246
89.802
84.406
78.8245
73.7816
69.5146
66.1759
63.872
62.8129
63.4242
65.6953
67.8388
67.8185
20.1153
14.0755
19.9637
24.0146
27.017
30.459
34.217
38.0612
41.8775
45.4709
48.632
51.5281
54.5403
56.965
57.6127
64.4383
64.6319
69.8306
70.6143
70.6897
70.919
70.8744
70.5035
69.8885
69.0435
67.8988
66.5294
65.3949
65.0575
65.3108
82.0242
83.4634
85.591
83.551
81.6996
80.2685
78.6749
77.0318
75.541
74.3188
73.362
72.5833
71.9943
71.8806
72.036
72.0594
72.7344
73.2003
71.7072
71.1015
71.0273
70.9088
70.8832
71.0751
71.4926
72.0872
72.7199
73.1698
73.4793
73.409
64.6726
65.0238
65.7605
66.0849
66.9159
67.837
68.5654
69.2783
70.0138
70.707
71.3213
71.8085
71.9926
72.0114
71.5204
65.006
65.3661
66.7342
68.1949
69.3956
70.2589
70.8212
71.2917
71.6709
71.8917
71.961
71.9233
71.6672
71.5113
70.9186
67.8605
68.0893
69.5616
71.2021
72.0571
72.4541
72.6112
72.719
72.7503
72.6533
72.4572
72.2371
71.8563
71.7649
71.2401
69.7959
69.8253
71.0385
72.372
72.7064
72.6929
72.5863
72.5146
72.4233
72.2758
72.0999
71.9576
71.6211
71.6199
71.1222
70.4321
70.3485
71.2708
72.2237
72.1507
71.906
71.6952
71.5742
71.4722
71.368
71.2775
71.2462
70.9444
70.9679
70.4408
70.3214
70.2531
70.9482
71.559
71.2175
70.8858
70.6699
70.5603
70.4819
70.4274
70.402
70.4344
70.1303
70.1659
69.6098
69.3038
69.2414
69.8162
70.2533
69.8342
69.5506
69.4173
69.3773
69.3623
69.3881
69.4378
69.5339
69.2202
69.2615
68.7618
65.7383
65.8756
66.4405
66.877
66.7127
66.8938
67.258
67.7043
68.165
68.6246
69.0733
69.4151
69.3345
69.5405
68.9545
65.2836
62.5981
60.8264
59.6336
58.7098
58.9869
59.9151
61.1824
62.5068
63.8818
65.0908
66.1537
66.9288
68.0594
68.672
105.102
105.149
105.172
105.084
105.093
104.972
104.927
104.757
104.718
104.728
104.664
104.326
104.491
104.499
104.183
104.112
104.433
104.435
103.889
104.282
104.324
103.903
103.855
104.391
104.248
103.782
103.907
104.555
104.288
103.559
104.365
104.299
103.758
103.698
104.25
103.931
103.164
103.997
103.866
103.28
103.055
103.523
103.231
102.673
102.641
103.054
102.977
102.195
102.813
102.71
102.385
102.197
102.35
102.389
102.189
102.141
102.153
102.514
102.103
102.289
102.549
102.395
102.379
102.402
102.758
102.641
102.672
103.011
103
103.15
103.138
103.153
103.151
103.264
102.424
100.868
101.127
99.6653
96.1978
96.8644
97.2616
96.7126
95.8905
100.659
94.0344
94.5757
94.6043
94.6072
94.4973
94.3693
93.9337
92.9873
96.9482
90.2947
90.7985
91.9136
92.6303
92.5967
92.8275
92.3786
90.9787
92.6893
88.0245
88.4125
88.2994
88.2456
88.4451
88.5825
88.7684
88.4
86.6442
85.5706
81.7776
81.4113
80.2263
78.8617
78.7827
79.7604
79.6977
77.3634
70.5429
69.9811
69.6082
67.9161
65.5234
64.2786
64.7291
65.757
64.5756
56.362
54.3916
51.2292
48.5686
45.6118
42.9955
41.8102
41.5109
41.1592
34.8826
38.7648
34.4703
30.2503
25.6278
21.1579
16.9554
13.6334
12.0329
12.0798
-1.44759
11.498
8.7705
7.37407
5.26803
1.66638
-2.18097
-2.06634
0.489541
-19.4081
1.28479
-0.17828
-1.2426
0.333517
-0.557056
-0.529792
-0.61069
-0.291583
0.118067
-0.597872
0.0402516
0.54399
-0.0130108
0.0354854
-0.0583052
0.485789
1.001
0.391623
0.430381
0.3137
0.73566
1.03876
0.463806
1.23122
1.72915
1.14916
1.28263
1.33281
2.03532
2.64209
2.07798
2.20499
2.20687
2.72833
3.12301
2.66103
3.51885
4.09028
3.60722
3.7812
3.82729
4.40642
4.88299
4.35868
4.61246
4.72909
5.17063
5.47301
4.98079
5.54285
5.76792
5.18938
5.44085
5.59019
5.88239
5.96764
5.38383
5.62489
5.7691
5.99771
6.00456
5.56435
5.87187
5.80363
5.42267
5.54694
5.51692
5.54473
5.30643
5.03532
4.94537
4.64994
4.46613
4.01774
3.93505
3.67436
2.84493
2.86659
2.3363
1.58173
1.13501
0.716236
0.315806
0.491486
0.606229
0.720944
0.805463
0.627739
0.308381
0.258556
0.351546
-0.0594106
0.168885
0.287755
0.80834
0.264233
-0.28135
0.078544
0.0288944
1.38515
1.57752
1.19318
0.927421
0.496956
0.351499
0.607495
0.56174
0.34772
0.361664
0.155272
-0.182571
-0.217309
-0.319953
-0.12371
-0.762962
-1.24492
-1.56697
-1.76241
-2.23598
-2.68172
-3.46874
-3.326
-2.32109
-0.31837
2.15679
3.24673
5.25898
8.09049
11.0746
10.156
7.80138
5.59451
2.28138
-0.626535
-2.37992
-2.13085
-1.58687
-0.759049
1.49104
4.91593
6.80378
4.91721
0.763213
-2.79675
-4.82518
-4.81219
-4.3859
-3.73183
-2.81537
-1.8506
-1.00151
-0.22323
3.47267
4.31567
4.16224
3.29873
2.25284
3.25305
2.31623
1.13271
1.13095
0.338382
0.513872
0.615739
0.740603
0.767005
0.527634
-0.0231613
-0.132062
-0.0155072
-0.295383
0.123707
0.290244
0.574927
0.0390775
-0.334074
0.138998
0.18158
2.21451
2.30871
1.29367
1.1747
0.191682
0.484977
0.344725
0.257563
0.302329
0.210203
-0.0509053
-0.621121
-0.768051
-0.698098
-0.373675
-1.3115
-1.92926
-2.41864
-2.72438
-3.51148
-4.72963
-6.31683
-5.36897
-4.42098
-1.08571
1.99966
4.082
7.3795
12.2392
17.319
17.8823
13.6497
9.39383
4.40264
-0.0306277
-3.02976
-3.90922
-4.28976
-4.15993
-1.74267
2.48178
4.47204
1.19258
-5.177
-10.7419
-14.0298
-14.0698
-13.1329
-11.0731
-7.68309
-3.59083
-0.718452
1.23237
5.55528
6.22387
5.90657
4.82758
3.80093
4.30615
3.98826
2.52985
1.94159
0.31881
0.452219
0.584383
0.743954
0.742898
0.371472
-0.292073
-0.515615
-0.41231
-0.478976
0.00725748
0.228321
0.297142
-0.238035
-0.365457
0.143284
0.529242
2.83218
2.72769
1.33803
0.925703
-0.03907
0.394829
0.0673405
0.0597696
0.206351
-0.0220143
-0.33026
-0.953044
-1.1307
-0.891389
-0.470602
-1.35186
-1.98633
-2.44212
-2.81554
-3.75447
-5.63077
-7.51191
-5.27145
-4.25918
0.597871
4.40203
6.59896
10.0925
15.2297
20.0853
20.3376
15.8499
11.3377
5.89171
1.0121
-2.09912
-3.52926
-4.58158
-4.9078
-2.84064
0.622399
1.02152
-4.378
-12.5933
-19.2277
-22.7964
-22.9932
-21.7706
-18.6734
-13.5101
-7.00879
-1.77767
1.74761
6.2872
6.77091
6.58144
5.74399
4.5358
4.7339
4.68182
3.19775
2.46986
0.309533
0.453631
0.614601
0.793432
0.761354
0.273261
-0.463956
-0.750225
-0.752653
-0.537563
0.020974
0.327544
0.208291
-0.38443
-0.197302
0.463619
1.2315
3.5699
3.49874
1.43496
0.819813
-0.106057
0.295487
-0.0975732
0.219466
0.19776
-0.0924128
-0.488835
-1.09959
-1.25685
-0.841909
-0.408827
-1.26184
-1.80554
-2.13754
-2.38085
-3.18027
-4.94685
-6.72823
-3.47061
-2.54508
2.00818
6.45479
9.08956
12.7431
17.553
21.2762
21.0272
16.9867
12.748
7.48734
2.62119
-0.649377
-2.50624
-3.98811
-4.78481
-3.45846
-1.56695
-3.49361
-11.1787
-20.9634
-28.3013
-31.683
-31.7586
-30.285
-26.3165
-19.5587
-10.6977
-2.8472
2.65687
7.34072
7.58561
7.54489
6.93766
5.44803
5.32996
5.21929
3.75778
3.05443
0.302991
0.486871
0.673858
0.872322
0.802527
0.214452
-0.574346
-0.903801
-1.01282
-0.601499
0.0734758
0.473061
0.209819
-0.431369
0.0765441
0.934113
2.02352
4.20439
4.21122
1.67838
0.893607
-0.0380371
0.297793
-0.137415
0.404022
0.293766
-0.0259546
-0.555133
-1.1565
-1.26264
-0.734931
-0.357504
-1.14609
-1.56198
-1.69147
-1.66894
-2.16084
-3.61564
-5.2467
-1.64651
-0.441382
3.3097
7.54617
10.6014
14.2192
18.3993
20.8332
20.5456
17.3506
13.6086
8.73381
4.10439
0.690558
-1.55062
-3.53297
-5.04575
-4.90805
-5.0234
-9.33247
-18.8153
-29.5749
-37.3319
-40.4558
-40.3542
-38.6488
-33.9734
-25.9101
-14.9459
-4.2835
3.42734
8.43528
8.57562
8.62139
8.14179
6.40635
5.96105
5.56094
4.17899
3.59821
0.293493
0.518079
0.725051
0.922412
0.818676
0.164303
-0.64492
-1.01848
-1.18675
-0.672403
0.0947104
0.562535
0.225972
-0.422334
0.372921
1.41253
2.69613
4.60423
4.78426
1.97433
1.10358
0.0778172
0.331234
-0.0947734
0.500292
0.404729
0.0717826
-0.552924
-1.14512
-1.22699
-0.691135
-0.379292
-1.06687
-1.32518
-1.20726
-0.879631
-1.02628
-2.2953
-3.96537
-0.593024
1.23452
4.46466
8.01382
11.3493
14.7681
18.1842
19.6101
19.541
17.1829
13.9204
9.56144
5.18988
1.71006
-0.87845
-3.55468
-5.98969
-7.33578
-9.5716
-15.9524
-26.5704
-37.8485
-45.9858
-49.0015
-48.7586
-46.8296
-41.5689
-32.4396
-19.6535
-6.19578
3.98114
9.62415
9.71942
9.70492
9.19323
7.24931
6.43354
5.69723
4.46193
4.05551
0.284601
0.542216
0.761237
0.939588
0.804046
0.119803
-0.686387
-1.09766
-1.27701
-0.725279
0.07823
0.570943
0.226356
-0.384014
0.620458
1.83735
3.16431
4.7583
5.20686
2.27587
1.33006
0.207789
0.38595
-0.0183638
0.567636
0.499685
0.134532
-0.525016
-1.08269
-1.15948
-0.682754
-0.434901
-1.00644
-1.10213
-0.731124
-0.119967
0.0751035
-1.05899
-2.83351
0.11173
2.47671
5.39845
8.46746
11.8743
15.1115
17.8796
18.7302
18.7743
16.9057
14.0138
10.1621
5.99029
2.42894
-0.528187
-4.02634
-7.50824
-10.4634
-14.7362
-22.7766
-34.0227
-45.6554
-54.2524
-57.3042
-56.961
-54.8121
-49.0671
-39.0985
-24.8134
-8.82945
4.03422
10.8773
10.9301
10.7022
10.0795
7.90114
6.66524
5.6828
4.66315
4.4346
0.279567
0.559183
0.781285
0.935451
0.766478
0.0831532
-0.712117
-1.14113
-1.3061
-0.757836
0.0285269
0.508023
0.197777
-0.330938
0.778363
2.13397
3.38603
4.70245
5.48691
2.54043
1.48718
0.324246
0.447288
0.0553687
0.628128
0.554182
0.127435
-0.495411
-0.994622
-1.07173
-0.673829
-0.493079
-0.943403
-0.880178
-0.282834
0.541873
1.03498
0.117248
-1.62594
0.950205
3.43721
6.37944
9.32501
12.5529
15.6592
18.0887
18.6694
18.5139
16.8885
14.2001
10.7017
6.67818
2.9549
-0.477586
-4.81287
-9.40544
-13.9915
-20.1496
-29.501
-41.1053
-53.0918
-62.1961
-65.3678
-64.9527
-62.5854
-56.4331
-45.8051
-30.317
-12.1157
3.57104
12.1284
12.2665
11.6155
10.7631
8.36726
6.70532
5.57415
4.81033
4.74322
0.278939
0.570109
0.790115
0.916858
0.718847
0.0595289
-0.719147
-1.14565
-1.28957
-0.778369
-0.0524184
0.37339
0.11228
-0.310234
0.828924
2.25235
3.37251
4.50186
5.64766
2.74648
1.5771
0.414714
0.491102
0.128254
0.658644
0.55414
0.0724155
-0.472959
-0.900171
-0.978143
-0.663425
-0.549477
-0.882076
-0.664594
0.108408
1.04365
1.73342
1.15272
-0.356435
1.92737
4.3493
7.55625
10.5513
13.5031
16.5192
18.86
19.3474
18.6883
17.1308
14.5822
11.2645
7.33385
3.37907
-0.645799
-5.78106
-11.5087
-17.7056
-25.6101
-36.0451
-47.9106
-60.2686
-69.8646
-73.2035
-72.7342
-70.1486
-63.6415
-52.4824
-36.0618
-15.9895
2.55328
13.0581
13.6282
12.5103
11.2771
8.66798
6.62541
5.41595
4.90796
4.9749
0.281106
0.57662
0.791516
0.888024
0.673209
0.0491321
-0.705192
-1.1129
-1.23202
-0.772218
-0.141272
0.198853
-0.0376101
-0.366696
0.757413
2.19463
3.19299
4.24258
5.72198
2.90198
1.61459
0.484926
0.499005
0.200774
0.648578
0.508715
0.0245935
-0.455406
-0.809405
-0.892931
-0.659759
-0.604039
-0.831855
-0.471678
0.426578
1.36878
2.11433
1.88895
0.830447
2.85703
5.30171
8.68714
11.8953
14.6901
17.6363
19.9905
20.4749
19.2347
17.5639
15.137
11.8751
7.97058
3.7342
-0.927087
-6.82981
-13.6992
-21.4827
-31.0409
-42.4395
-54.5487
-67.2539
-77.2898
-80.8242
-80.3115
-77.5062
-70.6711
-59.0703
-41.9547
-20.4039
0.803062
13.4904
14.9936
13.3545
11.6744
8.78189
6.46526
5.23462
4.95604
5.1209
0.283723
0.579161
0.78704
0.85518
0.635284
0.0498921
-0.668875
-1.04969
-1.14589
-0.739276
-0.221534
0.0174661
-0.226962
-0.494002
0.595966
2.00842
2.93495
3.9945
5.73416
3.02507
1.63716
0.552782
0.492416
0.268849
0.603195
0.439668
-0.00325394
-0.435765
-0.724479
-0.820137
-0.661551
-0.652008
-0.790214
-0.301233
0.688993
1.57111
2.22811
2.23315
1.7745
3.66366
6.09794
9.50583
13.1394
16.0744
18.8713
21.2188
21.6354
20.0124
18.1742
15.7996
12.525
8.57442
4.02694
-1.2431
-7.89765
-15.91
-25.2695
-36.4375
-48.745
-61.0957
-74.086
-84.5008
-88.24
-87.6921
-84.6642
-77.5097
-65.5311
-47.9124
-25.2781
-1.84503
13.2344
16.4729
14.2033
11.9257
8.75341
6.24807
5.03854
4.95235
5.19901
0.284853
0.578639
0.778693
0.82362
0.605125
0.0596309
-0.612107
-0.960437
-1.03432
-0.679372
-0.274492
-0.142927
-0.421288
-0.659546
0.390432
1.76479
2.67009
3.78038
5.71136
3.12574
1.6854
0.634848
0.494675
0.340218
0.546712
0.367411
-0.0247861
-0.409132
-0.641075
-0.749966
-0.656514
-0.679129
-0.742624
-0.132225
0.942919
1.75552
2.21835
2.23742
2.36349
4.30441
6.60282
9.9948
14.1701
17.5139
20.0491
22.2596
22.5823
20.8903
18.8432
16.4849
13.1837
9.12328
4.26404
-1.55849
-8.95586
-18.1125
-29.0565
-41.8242
-55.0118
-67.5912
-80.7883
-91.5249
-95.4604
-94.8823
-91.6266
-84.1539
-71.8367
-53.857
-30.4779
-5.24069
12.4071
17.8062
15.0444
12.0982
8.64123
5.98865
4.82583
4.90063
5.23411
0.283543
0.575793
0.767975
0.795637
0.582185
0.0775712
-0.539402
-0.849636
-0.899761
-0.592632
-0.292781
-0.261959
-0.586747
-0.82269
0.184945
1.5217
2.42593
3.59696
5.66943
3.20506
1.76193
0.738105
0.519591
0.426904
0.507495
0.307132
-0.0340781
-0.369188
-0.548537
-0.667005
-0.629758
-0.671248
-0.666499
0.0586643
1.23907
2.03115
2.26502
2.09277
2.6496
4.82428
6.98209
10.2554
14.9707
18.7869
21.038
23.0807
23.3145
21.6952
19.508
17.1212
13.8085
9.61189
4.46451
-1.86106
-9.99375
-20.3019
-32.8538
-47.2258
-61.2651
-74.0469
-87.3736
-98.3803
-102.494
-101.888
-98.3997
-90.6064
-77.9689
-59.7248
-35.8739
-9.21757
11.2882
18.7713
15.8177
12.2032
8.43259
5.69152
4.59202
4.80403
5.21525
0.279338
0.570686
0.756121
0.772052
0.566513
0.102793
-0.455407
-0.722694
-0.749098
-0.485389
-0.278919
-0.335984
-0.708961
-0.957949
0.00237258
1.29716
2.19351
3.43551
5.61308
3.26127
1.85126
0.858898
0.573752
0.53516
0.499045
0.269611
-0.0221479
-0.303592
-0.432739
-0.558135
-0.569058
-0.62215
-0.543647
0.284088
1.60606
2.46872
2.51862
2.04128
2.84175
5.3793
7.57268
10.4295
15.6034
19.8246
21.8092
23.7804
23.7835
22.3585
20.1398
17.6929
14.3599
10.055
4.65288
-2.1444
-11.0099
-22.4854
-36.6756
-52.654
-67.5063
-80.4547
-93.8469
-105.075
-109.345
-108.716
-104.992
-96.8732
-83.9189
-65.4694
-41.3529
-13.6592
9.54053
19.087
16.6712
12.2466
8.15641
5.35534
4.33368
4.66139
5.16545
0.27214
0.563222
0.743788
0.752681
0.557753
0.133751
-0.36301
-0.584477
-0.588941
-0.363751
-0.236607
-0.369429
-0.790649
-1.06072
-0.157512
1.08313
1.96459
3.29596
5.54014
3.29619
1.95066
0.99559
0.662621
0.663303
0.521473
0.266559
0.0185542
-0.198561
-0.281162
-0.420016
-0.458678
-0.526672
-0.373942
0.542813
2.03686
3.07919
3.04943
2.25587
3.14345
6.09176
8.57015
10.8796
16.1681
20.7672
22.3777
24.4503
24.1009
22.8922
20.7085
18.2035
14.8479
10.4753
4.84408
-2.40933
-12.0103
-24.672
-40.5304
-58.1035
-73.7191
-86.7961
-100.209
-111.611
-116.009
-115.367
-111.409
-102.962
-89.6861
-71.0603
-46.8309
-18.4659
6.95793
18.5032
17.6328
12.1974
7.81231
4.97939
4.05393
4.48078
5.06908
0.262284
0.553693
0.731093
0.737409
0.554524
0.169222
-0.264071
-0.439219
-0.424047
-0.23127
-0.167823
-0.368031
-0.837795
-1.13564
-0.301642
0.876994
1.74722
3.18026
5.4468
3.31608
2.05894
1.14722
0.790069
0.816187
0.574567
0.309606
0.102592
-0.0495844
-0.0829538
-0.261978
-0.293661
-0.382376
-0.173769
0.820697
2.50088
3.81803
3.8317
2.76948
3.61436
6.9472
9.85911
11.8022
16.6899
21.7815
22.809
25.1494
24.3641
23.3233
21.2082
18.6549
15.2994
10.8864
5.03793
-2.66458
-13.0041
-26.8687
-44.4178
-63.5551
-79.8771
-93.0493
-106.457
-117.992
-122.481
-121.84
-117.656
-108.881
-95.2739
-76.4776
-52.2362
-23.5184
3.66138
17.2952
18.4746
11.9192
7.34788
4.55573
3.7536
4.26472
4.95022
0.250386
0.542752
0.717667
0.726117
0.555306
0.208519
-0.160589
-0.290413
-0.257252
-0.0900961
-0.0755326
-0.336083
-0.852465
-1.18552
-0.433023
0.683142
1.55303
3.08332
5.33433
3.32995
2.17935
1.31125
0.954907
0.996806
0.654712
0.399867
0.23946
0.147164
0.163981
-0.0874197
-0.0935513
-0.194939
0.041075
1.09541
2.95776
4.61039
4.77293
3.49791
4.17086
7.83465
11.1918
12.9901
17.1667
22.9153
23.2408
25.677
24.6122
23.7075
21.627
19.0549
15.7296
11.288
5.22586
-2.92006
-13.9991
-29.0792
-48.3282
-68.9797
-85.9501
-99.1913
-112.582
-124.218
-128.754
-128.132
-123.733
-114.634
-100.687
-81.7083
-57.51
-28.6949
-0.151207
16.0903
19.034
11.5347
6.80821
4.06618
3.4282
4.02729
4.83425
0.237219
0.531317
0.70363
0.717796
0.558909
0.250678
-0.0547519
-0.141225
-0.0909126
0.0573093
0.0355287
-0.275672
-0.834449
-1.21069
-0.552736
0.501734
1.38288
2.9984
5.20474
3.34455
2.31817
1.48044
1.15128
1.20128
0.751544
0.530918
0.424457
0.390314
0.443924
0.118847
0.129665
0.0245992
0.263436
1.34751
3.36928
5.38371
5.76831
4.32158
4.67588
8.64683
12.4606
14.2107
17.6412
24.0867
23.8119
26.0585
24.8426
24.0525
21.9875
19.4163
16.1406
11.6738
5.40097
-3.17932
-14.9976
-31.3035
-52.244
-74.343
-91.9075
-105.2
-118.574
-130.278
-134.821
-134.238
-129.636
-120.225
-105.927
-86.7424
-62.6059
-33.8767
-4.33393
14.8306
19.1043
11.3325
6.23782
3.49622
3.07114
3.776
4.68906
0.223487
0.520322
0.68983
0.7112
0.564628
0.294976
0.0512188
0.00504417
0.0718725
0.207591
0.160305
-0.188951
-0.782925
-1.20799
-0.657389
0.333093
1.234
2.9236
5.06054
3.36388
2.47909
1.64925
1.37047
1.42053
0.852147
0.69657
0.647154
0.668227
0.733306
0.374021
0.378415
0.265359
0.490274
1.56953
3.71554
6.09336
6.74698
5.16185
5.04853
9.28831
13.7362
15.4366
18.2271
25.1336
24.5818
26.4672
24.9682
24.3775
22.3129
19.7555
16.5319
12.0398
5.56343
-3.43828
-15.9961
-33.5375
-56.1409
-79.6092
-97.7203
-111.056
-124.419
-136.16
-140.672
-140.147
-135.36
-125.648
-110.99
-91.5701
-67.4918
-38.9763
-8.81104
12.8857
18.1749
11.4428
5.57697
2.83035
2.67108
3.49794
4.52769
0.209703
0.510378
0.677047
0.706036
0.572255
0.340739
0.155191
0.144855
0.226975
0.356111
0.292882
-0.0805737
-0.699138
-1.17348
-0.741348
0.178491
1.10714
2.85985
4.90703
3.39427
2.65033
1.81947
1.60151
1.63852
0.95425
0.891563
0.899703
0.967238
1.01905
0.669036
0.658287
0.527021
0.726886
1.77051
4.00176
6.73284
7.69097
6.00171
5.27778
9.74541
15.0306
17.0561
19.3822
26.2789
25.2433
26.8216
24.9579
24.649
22.5967
20.0828
16.9035
12.3873
5.71816
-3.69123
-16.989
-35.7697
-59.9906
-84.7428
-103.361
-116.74
-130.104
-141.852
-146.301
-145.849
-140.895
-130.896
-115.872
-96.184
-72.1482
-43.934
-13.4925
10.1625
16.2112
11.7464
4.71067
2.03435
2.21754
3.19129
4.3702
0.196272
0.501746
0.665798
0.70265
0.58191
0.387072
0.255231
0.275276
0.370429
0.498059
0.426089
0.0422207
-0.586973
-1.10423
-0.7977
0.042718
1.00809
2.80694
4.75098
3.4406
2.8149
1.98895
1.8315
1.83448
1.08449
1.11107
1.17466
1.27745
1.30425
0.982186
0.97081
0.816823
0.991498
1.97266
4.25368
7.32795
8.62384
6.8539
5.47734
9.8712
16.0986
18.9895
21.2274
28.0387
25.869
27.0984
24.802
24.8335
22.8167
20.3913
17.2561
12.7201
5.87006
-3.93443
-17.9692
-37.9826
-63.7633
-89.7107
-108.807
-122.236
-135.615
-147.345
-151.707
-151.33
-146.231
-135.961
-120.567
-100.586
-76.5653
-48.6965
-18.2698
6.87105
13.8542
11.9299
3.48906
1.06427
1.69967
2.8563
4.17599
0.183551
0.494499
0.656496
0.701588
0.59404
0.433529
0.349636
0.394876
0.499902
0.629214
0.55217
0.170312
-0.453334
-0.999295
-0.815863
-0.0631558
0.940886
2.76056
4.60321
3.49838
2.96121
2.15196
2.05607
2.00182
1.27331
1.3459
1.46477
1.59448
1.59879
1.3066
1.30854
1.15586
1.29847
2.19681
4.50614
7.91804
9.58478
7.76632
5.82398
9.3858
16.8989
20.4315
22.6949
30.3262
26.6071
27.2967
24.5431
24.9254
22.9697
20.6719
17.5895
13.0409
6.02244
-4.16458
-18.9288
-40.1578
-67.4291
-94.4825
-114.035
-127.527
-140.937
-152.625
-156.886
-156.577
-151.358
-140.834
-125.08
-104.793
-80.7378
-53.2148
-23.0387
3.2479
12.2165
11.9102
2.06053
-0.0315948
1.11485
2.48563
3.97188
0.171839
0.48866
0.64937
0.703294
0.609307
0.480694
0.437723
0.503942
0.615904
0.746083
0.664275
0.293271
-0.310427
-0.864626
-0.784454
-0.122872
0.907055
2.71403
4.46686
3.54677
3.08809
2.30778
2.27703
2.15629
1.50634
1.58302
1.764
1.91759
1.90925
1.64789
1.65969
1.54271
1.65269
2.46546
4.787
8.5364
10.6116
8.81109
6.51623
8.50987
17.5478
20.853
22.886
32.4113
27.4034
27.2444
24.2604
24.9019
23.0628
20.9188
17.9023
13.3506
6.17829
-4.37651
-19.8588
-42.278
-70.9599
-99.0315
-119.029
-132.598
-146.052
-157.678
-161.837
-161.583
-156.268
-145.513
-129.414
-108.818
-84.6622
-57.448
-27.68
-0.544396
11.1953
11.5525
0.841855
-1.207
0.454421
2.08135
3.71912
0.161288
0.484363
0.644303
0.707979
0.628201
0.529653
0.520614
0.604219
0.721337
0.847904
0.759901
0.403054
-0.173304
-0.716441
-0.703775
-0.119492
0.915726
2.67208
4.34492
3.58642
3.2019
2.46032
2.48876
2.31743
1.74944
1.82505
2.06964
2.24622
2.2381
2.01484
2.02495
1.96046
2.05847
2.79149
5.10865
9.20013
11.7258
9.98039
7.61549
7.97834
18.0463
20.7593
21.8345
33.7541
28.4683
26.7309
24.0151
24.771
23.103
21.1297
18.1922
13.6493
6.34144
-4.56274
-20.7485
-44.3248
-74.3294
-103.335
-123.773
-137.438
-150.941
-162.488
-166.557
-166.341
-160.958
-149.997
-133.573
-112.653
-88.3362
-61.3716
-32.0938
-4.42078
9.8576
10.1774
0.000362989
-2.39734
-0.278236
1.64258
3.43877
0.151899
0.481889
0.6411
0.715509
0.651093
0.581359
0.600464
0.698437
0.819881
0.93799
0.842336
0.499271
-0.0495351
-0.570571
-0.591716
-0.0566907
0.968761
2.6568
4.24016
3.61938
3.30575
2.61671
2.68655
2.48445
1.98901
2.09841
2.37978
2.57865
2.58649
2.41538
2.41762
2.40286
2.51408
3.17017
5.46755
9.89891
12.9493
11.2202
8.67406
8.25404
18.2058
21.2321
20.2637
33.9634
29.7311
25.9774
23.8246
24.5946
23.102
21.3038
18.4564
13.9365
6.51655
-4.71424
-21.5851
-46.2787
-77.5146
-107.373
-128.255
-142.035
-155.589
-167.041
-171.043
-170.85
-165.426
-154.285
-137.552
-116.281
-91.7612
-64.9732
-36.216
-8.3277
7.91077
7.5914
-0.506961
-3.62549
-1.0885
1.18609
3.15417
0.143769
0.481379
0.639843
0.725301
0.678326
0.63621
0.679089
0.789078
0.914313
1.02076
0.916935
0.5867
0.0631412
-0.430682
-0.464751
0.0429195
1.04942
2.67314
4.15053
3.65476
3.4032
2.77758
2.87118
2.65046
2.229
2.40808
2.69633
2.9155
2.9539
2.84997
2.8477
2.87646
3.01377
3.58731
5.84987
10.6177
14.2347
12.7145
8.94987
9.13722
18.2519
23.5691
18.8092
33.2107
30.7127
25.2072
23.6591
24.4209
23.0746
21.4427
18.6935
14.2126
6.7083
-4.82165
-22.354
-48.1187
-80.4948
-111.13
-132.463
-146.381
-159.983
-171.325
-175.295
-175.108
-169.669
-158.372
-141.346
-119.703
-94.9409
-68.2475
-39.9945
-12.183
5.44816
4.14041
-0.795339
-5.02111
-1.99304
0.723897
2.83681
0.137069
0.482776
0.640849
0.73687
0.709812
0.694026
0.757433
0.877491
1.00591
1.09885
0.987729
0.669115
0.168441
-0.294289
-0.326849
0.166836
1.15322
2.71453
4.07728
3.6999
3.50088
2.94405
3.04341
2.81744
2.48091
2.73547
3.02086
3.25903
3.33707
3.31011
3.3167
3.38257
3.55095
4.0252
6.23094
11.3541
15.5672
14.3559
9.5055
10.0982
18.7907
27.4778
18.1659
31.7833
30.6359
24.3898
23.5013
24.2421
23.0339
21.5505
18.9036
14.4781
6.91983
-4.87655
-23.0396
-49.8238
-83.2521
-114.593
-136.392
-150.47
-164.118
-175.331
-179.306
-179.11
-173.679
-162.254
-144.95
-122.928
-97.8792
-71.195
-43.3928
-15.8987
2.75258
0.926141
-0.998304
-6.72311
-3.01685
0.257133
2.52239
0.131861
0.486097
0.644487
0.750333
0.744893
0.754315
0.835528
0.964246
1.09524
1.1742
1.05765
0.748985
0.269002
-0.159703
-0.178786
0.309254
1.27939
2.77063
4.02354
3.75714
3.60319
3.11725
3.20544
2.99168
2.75372
3.07472
3.35536
3.61233
3.73323
3.7804
3.81938
3.91787
4.11406
4.47814
6.59866
12.0851
16.9572
15.9472
10.9876
7.73464
21.8957
31.1798
19.3296
30.3723
29.4679
23.4241
23.3056
24.0364
22.9842
21.6324
19.0888
14.7328
7.15237
-4.87242
-23.6269
-51.3724
-85.7705
-117.751
-140.035
-154.299
-167.989
-179.058
-183.069
-182.851
-177.452
-165.928
-148.365
-125.958
-100.58
-73.8215
-46.3878
-19.387
0.0674159
-0.623339
-1.09276
-8.66589
-4.19392
-0.207122
2.21501
0.1281
0.491306
0.650887
0.765994
0.782826
0.816443
0.912855
1.0496
1.18255
1.24798
1.12812
0.828421
0.367815
-0.0251803
-0.0220881
0.465358
1.42313
2.83572
3.99044
3.82666
3.71337
3.29638
3.36244
3.17972
3.05091
3.42646
3.70285
3.98033
4.14368
4.2486
4.34685
4.48425
4.69562
4.95323
6.94415
12.7707
18.4202
17.6908
12.7517
3.17872
23.5569
32.877
21.4817
30.1125
28.1592
22.3296
23.0855
23.816
22.9305
21.6956
19.2532
14.9763
7.40572
-4.80579
-24.1021
-52.7434
-88.0356
-120.594
-143.387
-157.864
-171.597
-182.511
-186.565
-186.323
-180.982
-169.388
-151.587
-128.794
-103.047
-76.1384
-48.9734
-22.5394
-2.4389
-0.738735
-1.14971
-10.4159
-5.47734
-0.669297
1.88218
0.12571
0.49812
0.65984
0.783926
0.823051
0.879777
0.989077
1.13356
1.26771
1.32029
1.19865
0.908582
0.467364
0.111168
0.140829
0.631169
1.57875
2.91012
3.97848
3.90623
3.83174
3.47987
3.52729
3.38599
3.37328
3.78927
4.0656
4.36763
4.57112
4.71572
4.88577
5.08119
5.29717
5.44514
7.25241
13.3715
19.9828
19.9946
14.9336
0.431294
18.7721
34.5462
23.3726
31.1059
27.5459
21.2598
22.8093
23.6011
22.8802
21.7493
19.4034
15.2095
7.67732
-4.67751
-24.4543
-53.916
-90.0334
-123.114
-146.442
-161.16
-174.94
-185.699
-189.77
-189.518
-184.261
-172.628
-154.612
-131.435
-105.29
-78.1618
-51.1603
-25.2774
-4.69897
-0.641184
-1.85614
-11.7955
-6.79181
-1.12779
1.5838
0.124614
0.50614
0.670993
0.804026
0.86501
0.943653
1.06402
1.2158
1.35038
1.39098
1.26864
0.989958
0.569228
0.251127
0.308446
0.803463
1.73894
2.99409
3.98806
3.99258
3.95557
3.66964
3.71298
3.61137
3.7204
4.16205
4.44434
4.77575
5.01668
5.18813
5.42606
5.69815
5.92589
5.94188
7.50156
13.7948
21.4671
22.8738
18.6358
1.46689
12.4468
36.0557
23.01
30.7006
27.7047
20.9632
22.5258
23.3944
22.841
21.8043
19.5487
15.435
7.96174
-4.49278
-24.6767
-54.871
-91.7501
-125.302
-149.191
-164.179
-178.013
-188.62
-192.675
-192.428
-187.282
-175.636
-157.432
-133.882
-107.318
-79.9103
-52.962
-27.564
-6.74352
-0.884187
-3.66568
-12.8404
-8.08216
-1.56554
1.29826
0.124702
0.515032
0.683977
0.825995
0.90807
1.00727
1.13722
1.29565
1.42992
1.45985
1.33812
1.07262
0.674222
0.396058
0.481196
0.98004
1.89636
3.08773
4.01798
4.08271
4.08276
3.86928
3.92262
3.86309
4.09044
4.54399
4.83873
5.20433
5.48117
5.67002
5.9662
6.32601
6.58255
6.45191
7.68062
13.9198
22.4936
25.6406
23.3513
4.27845
7.58741
40.6043
28.8533
28.4345
29.6989
22.2691
22.2806
23.1984
22.8201
21.8739
19.7005
15.6577
8.25307
-4.26005
-24.7682
-55.5921
-93.1722
-127.152
-151.622
-166.913
-180.807
-191.267
-195.284
-195.052
-190.036
-178.399
-160.035
-136.131
-109.139
-81.4009
-54.3871
-29.3674
-8.56419
-1.60563
-6.61323
-13.5615
-9.35271
-1.97815
1.04733
0.125816
0.524522
0.698339
0.849196
0.951605
1.06977
1.20799
1.37233
1.50549
1.52648
1.40703
1.15602
0.782468
0.546356
0.659353
1.15913
2.04899
3.18988
4.06446
4.17503
4.21496
4.07757
4.15226
4.1517
4.48023
4.93535
5.24908
5.65332
5.96532
6.16465
6.50986
6.96567
7.28031
7.01399
7.81846
13.7198
22.7105
27.1639
27.6688
8.12381
1.95579
34.6978
34.4111
11.0423
30.0077
23.995
22.1574
23.003
22.8244
21.9717
19.8715
15.8852
8.54798
-3.9894
-24.7339
-56.0682
-94.2863
-128.656
-153.72
-169.35
-183.311
-193.631
-197.599
-197.386
-192.517
-180.908
-162.405
-138.171
-110.757
-82.6467
-55.4478
-30.6693
-10.1047
-2.65069
-10.3849
-13.9985
-10.6367
-2.36593
0.819949
0.127743
0.534304
0.713654
0.873059
0.995135
1.13046
1.27581
1.4451
1.5763
1.59028
1.47485
1.23915
0.893186
0.700985
0.841792
1.33993
2.20087
3.29621
4.12323
4.27017
4.35406
4.29018
4.39958
4.47766
4.88574
5.33677
5.67636
6.12154
6.46765
6.6757
7.06354
7.62127
8.04602
7.70058
8.03208
13.31
22.114
26.8513
30.8696
15.1894
-3.22085
2.58388
123.189
-20.8662
19.0249
21.8893
21.9344
22.818
22.857
22.1088
20.0749
16.1282
8.84758
-3.69075
-24.5858
-56.2957
-95.081
-129.814
-155.471
-171.479
-185.511
-195.703
-199.62
-199.427
-194.722
-183.155
-164.525
-139.986
-112.164
-83.6575
-56.1652
-31.4738
-11.2876
-3.6633
-14.1326
-14.1983
-11.9881
-2.73835
0.584587
0.130226
0.543979
0.729566
0.897377
1.03827
1.18883
1.34032
1.51317
1.64218
1.651
1.54108
1.32102
1.00555
0.85825
1.02649
1.52236
2.35555
3.40379
4.19236
4.37028
4.49927
4.50374
4.66469
4.83617
5.30345
5.75033
6.12201
6.60681
6.98805
7.20606
7.62868
8.29349
8.89285
8.56563
8.50325
13.0296
21.2298
24.8272
30.7587
23.5914
-1.66316
-20.3589
-100.575
-22.622
2.97861
15.1536
21.3496
22.6688
22.9288
22.2937
20.3248
16.4005
9.15783
-3.37191
-24.3419
-56.2813
-95.5487
-130.631
-156.87
-173.288
-187.398
-197.481
-201.351
-201.165
-196.641
-185.136
-166.378
-141.554
-113.349
-84.439
-56.5658
-31.8065
-12.0395
-4.28063
-16.5229
-14.1141
-13.4545
-3.10846
0.396984
0.13301
0.553057
0.745576
0.921865
1.08039
1.24444
1.40142
1.57629
1.70358
1.70903
1.60578
1.40161
1.12035
1.01784
1.21244
1.70682
2.51555
3.51568
4.27194
4.47958
4.65067
4.71986
4.94853
5.22232
5.73529
6.18219
6.58732
7.1057
7.51998
7.74967
8.19671
8.98237
9.81761
9.6106
9.40505
13.3277
20.7115
22.2232
27.9236
32.0861
9.75236
-17.9726
46.7419
7.43252
-4.62794
10.1365
20.7114
22.5544
23.0575
22.534
20.6358
16.7179
9.48941
-3.0366
-24.0235
-56.0433
-95.6881
-131.109
-157.915
-174.782
-188.979
-198.96
-202.795
-202.586
-198.263
-186.848
-167.954
-142.854
-114.291
-84.9911
-56.6764
-31.6995
-12.2905
-4.31097
-16.4482
-13.6066
-14.7371
-3.4816
0.259405
0.135853
0.560976
0.761036
0.945876
1.12046
1.29675
1.45906
1.63484
1.76092
1.76498
1.66974
1.48259
1.23888
1.17985
1.39948
1.89345
2.68267
3.6371
4.36247
4.60166
4.80965
4.94208
5.24851
5.62869
6.1835
6.63281
7.0664
7.60808
8.04349
8.29555
8.77142
9.68615
10.789
10.853
10.7674
14.3769
20.939
21.3931
25.5079
37.9846
29.7869
-1.94022
123.33
33.2471
2.27911
10.8165
20.6953
22.4897
23.2608
22.8371
21.0211
17.0972
9.85733
-2.68262
-23.6521
-55.6112
-95.508
-131.255
-158.602
-175.985
-190.275
-200.139
-203.961
-203.693
-199.576
-188.291
-169.253
-143.87
-114.969
-85.307
-56.5192
-31.1828
-11.9677
-3.66086
-14.6711
-12.8852
-15.5227
-3.84299
0.137446
0.138489
0.567161
0.775337
0.968671
1.15743
1.3451
1.51283
1.68894
1.81419
1.81925
1.734
1.56603
1.36107
1.34346
1.58748
2.08238
2.85695
3.76985
4.46413
4.73587
4.97521
5.16997
5.55642
6.04479
6.64116
7.09405
7.55198
8.10975
8.55275
8.83625
9.34946
10.3716
11.7313
12.2527
12.4677
15.9511
22.0144
22.5274
24.5968
38.0898
43.8445
30.7578
35.823
43.7937
14.3595
14.6856
21.2261
22.5544
23.5439
23.2083
21.4915
17.5546
10.2802
-2.30053
-23.2453