/*--------------------------------*- C++ -*----------------------------------*\
| =========                 |                                                 |
| \\      /  F ield         | OpenFOAM: The Open Source CFD Toolbox           |
|  \\    /   O peration     | Version:  4.1                                   |
|   \\  /    A nd           | Web:      www.OpenFOAM.org                      |
|    \\/     M anipulation  |                                                 |
\*---------------------------------------------------------------------------*/
FoamFile
{
    version     2.0;
    format      ascii;
    class       volSymmTensorField;
    location    "3";
    object      R;
}
// * * * * * * * * * * * * * * * * * * * * * * * * * * * * * * * * * * * * * //

dimensions      [0 2 -2 0 0 0 0];

internalField   nonuniform List<symmTensor> 
6785
(
(0.908979 2.75297e-16 5.76448e-16 0.457905 0.233409 2.08322)
(0.000209684 6.01659e-21 1.45052e-20 0.000198078 4.92988e-06 0.000238526)
(0.000128384 -1.2582e-23 1.62964e-24 0.000128351 3.65853e-09 0.000128406)
(0.000128277 3.498e-24 3.96241e-24 0.000128262 9.47797e-09 0.000128276)
(0.000128289 -7.22981e-24 -3.05674e-24 0.000128274 9.23379e-09 0.000128288)
(0.000128258 4.08033e-24 5.94259e-25 0.000128242 8.44514e-09 0.000128257)
(0.000128271 3.57195e-25 1.96895e-24 0.000128255 7.76607e-09 0.000128271)
(0.000128285 -5.97503e-24 -2.69494e-24 0.000128267 7.16892e-09 0.000128285)
(0.000128254 6.52338e-25 -9.40536e-25 0.000128236 6.6616e-09 0.000128255)
(0.000128264 2.44375e-24 2.5721e-24 0.000128244 5.90281e-09 0.000128265)
(0.000128264 -2.79195e-24 -4.38741e-25 0.000128242 4.53397e-09 0.000128265)
(0.000128226 1.72199e-24 -7.21135e-25 0.000128203 3.90483e-09 0.000128227)
(0.0001284 2.5146e-25 4.27379e-25 0.000128377 2.47561e-09 0.000128407)
(0.000303551 1.21182e-21 1.66559e-22 0.000265275 -2.70435e-05 0.000326937)
(0.420987 6.92768e-18 1.58862e-18 0.198345 -0.14122 0.589396)
(2.26923 1.51119e-16 1.60494e-15 0.749326 -0.450203 4.76475)
(0.21943 -5.99793e-18 7.0239e-17 0.0802025 -0.0520871 0.379579)
(0.0143146 -1.5198e-18 1.56594e-18 0.00872866 -0.00179812 0.0201444)
(0.000146592 -9.47809e-21 1.04583e-20 0.000113929 -1.09338e-05 0.000180141)
(6.6037e-07 -4.18416e-24 4.36532e-24 6.43457e-07 -4.13731e-09 6.75799e-07)
(4.60736e-07 4.29703e-25 7.22378e-26 4.58347e-07 1.56221e-09 4.60017e-07)
(4.33152e-07 3.19469e-24 -8.48381e-25 4.28121e-07 4.36156e-09 4.31579e-07)
(3.99212e-07 -3.88957e-24 2.33243e-24 3.90923e-07 7.84673e-09 3.96422e-07)
(3.67814e-07 1.95569e-24 2.45193e-24 3.61047e-07 5.3763e-09 3.64802e-07)
(3.59265e-07 9.78467e-24 -5.16124e-24 3.65568e-07 -5.19457e-09 3.58428e-07)
(3.44701e-07 -2.04743e-23 9.5049e-24 3.65559e-07 -1.18372e-08 3.45043e-07)
(2.91092e-07 1.82475e-23 1.37078e-23 3.22403e-07 -1.43981e-08 2.90124e-07)
(2.11913e-06 5.09897e-24 -4.2917e-23 2.45374e-06 -6.02558e-07 2.11829e-06)
(0.00941917 -6.12221e-19 -1.34442e-19 0.0111803 -0.0053513 0.00934605)
(0.644107 -1.48656e-17 -1.34271e-17 0.743304 -0.556144 0.627178)
(3.70001 4.84441e-17 2.3157e-15 1.28932 -1.20558 7.08615)
(0.4528 -4.4099e-17 8.80617e-18 0.180707 -0.157017 0.762277)
(0.0226303 -9.04937e-18 -3.14576e-18 0.0181189 -0.00373176 0.0302286)
(0.000244189 -4.88771e-20 -3.33368e-20 0.000225189 -3.89659e-05 0.000285983)
(1.50648e-05 -2.44867e-21 -2.00995e-21 2.48388e-05 -2.13223e-05 1.73279e-05)
(0.000281631 -1.91601e-20 -5.33305e-20 0.000531789 -0.000343417 0.000338632)
(0.00155548 -1.7052e-19 -3.24454e-19 0.00310887 -0.00191057 0.00195187)
(0.00505248 -1.19687e-18 4.7203e-19 0.0100525 -0.00610336 0.00643943)
(0.0128117 3.47096e-18 -2.48773e-18 0.0245363 -0.0148375 0.0161466)
(0.0280197 -6.20369e-18 -9.46355e-19 0.0510577 -0.0304809 0.0348653)
(0.0562388 -2.20745e-17 8.70884e-18 0.0966952 -0.0575106 0.0697357)
(0.108167 9.42309e-18 2.18491e-18 0.17521 -0.10521 0.133419)
(0.199509 2.45303e-17 -2.01357e-18 0.307187 -0.184111 0.240733)
(0.340308 -1.98743e-17 1.11137e-18 0.480303 -0.295036 0.387989)
(0.573913 -5.19309e-17 -8.02422e-17 0.598172 -0.456297 0.575017)
(4.23226 -1.19171e-16 2.8893e-15 1.53857 -1.55381 7.59738)
(0.870633 -3.93144e-17 -1.67047e-16 0.395216 -0.298495 1.53381)
(0.0945375 -1.0228e-16 -4.81091e-17 0.0871933 -0.0193935 0.129713)
(0.00216042 -1.17618e-18 -3.89085e-19 0.0022885 -0.0004812 0.00254632)
(0.000130933 -8.16063e-20 -3.57215e-20 0.000194197 -8.78043e-05 0.000152196)
(0.000607052 -2.32577e-19 1.3571e-20 0.0011491 -0.000753407 0.000759041)
(0.0030999 -1.10275e-18 1.98348e-19 0.00608486 -0.00400874 0.00406364)
(0.00975468 -3.73438e-18 1.1928e-18 0.0189746 -0.0122789 0.0130884)
(0.0229159 -2.10616e-19 1.30797e-18 0.0428798 -0.0268533 0.0304522)
(0.0457832 -1.8936e-17 2.1031e-18 0.0816772 -0.0484724 0.0592791)
(0.0865556 -4.26691e-17 3.29174e-18 0.148216 -0.0830094 0.108997)
(0.163664 -5.69293e-17 3.2388e-17 0.272159 -0.147233 0.201453)
(0.311318 4.2325e-17 -3.97965e-17 0.501277 -0.275217 0.379028)
(0.556491 3.97792e-16 -2.35644e-16 0.824693 -0.516418 0.683426)
(0.353353 -3.33157e-16 3.5629e-16 0.416811 -0.248943 0.347221)
(3.95021 -1.06163e-16 2.45789e-15 1.42822 -1.51836 6.81623)
(1.50189 -5.14112e-17 -7.00905e-16 0.690819 -0.494622 2.88795)
(0.304599 -1.96204e-16 -2.46824e-16 0.222369 -0.0769485 0.487791)
(0.0473824 -2.62182e-17 -2.5043e-17 0.0396331 -0.0160914 0.0664606)
(0.00777412 -5.90503e-18 -3.45914e-18 0.00771943 -0.00367715 0.00983165)
(0.00183611 -9.6875e-19 -5.79024e-19 0.00256165 -0.00150485 0.00220172)
(0.00291746 -1.73505e-18 2.71371e-19 0.00555037 -0.00392961 0.00376335)
(0.00945102 -7.84276e-18 2.96024e-18 0.0184162 -0.0126614 0.0127493)
(0.0230023 1.06747e-18 3.44024e-18 0.0434553 -0.0287409 0.0308993)
(0.0457673 -1.01208e-19 -6.91044e-18 0.0830007 -0.051364 0.0596205)
(0.0836405 -3.57831e-17 -8.79216e-18 0.146597 -0.0837248 0.104226)
(0.153689 -5.79964e-17 1.19242e-17 0.266056 -0.142186 0.183094)
(0.273423 -5.88785e-17 5.64517e-17 0.461703 -0.243648 0.316528)
(0.438617 -2.53974e-16 2.34146e-16 0.702871 -0.384064 0.492663)
(0.415653 4.24942e-16 -2.39466e-16 0.51375 -0.328518 0.413202)
(3.38367 -6.59795e-17 1.88968e-15 1.13496 -1.34095 5.79846)
(2.47443 -3.47856e-16 -7.66833e-16 1.09808 -0.845665 5.16524)
(0.628181 -3.52479e-16 -4.28783e-16 0.387139 -0.1652 1.10352)
(0.131246 -1.025e-16 -7.84974e-17 0.100656 -0.0424846 0.188812)
(0.028584 -3.78242e-17 -9.9482e-18 0.02778 -0.0120301 0.0355456)
(0.00703951 -7.76978e-18 2.53211e-19 0.00878705 -0.00415936 0.00806523)
(0.00390104 -2.80418e-18 8.97884e-19 0.00677746 -0.00438538 0.0047303)
(0.00901756 -1.17482e-17 6.24819e-18 0.0176282 -0.0124219 0.0119217)
(0.0223245 -8.18744e-18 7.96396e-18 0.0431306 -0.0288653 0.0295258)
(0.0446983 5.81986e-18 -2.31329e-18 0.0835633 -0.0520796 0.0571087)
(0.0804115 3.55944e-17 -4.67843e-18 0.146108 -0.0842133 0.0977684)
(0.141489 -8.74081e-18 1.03321e-17 0.253475 -0.135755 0.163227)
(0.251775 -3.17307e-16 1.13755e-16 0.436836 -0.230963 0.283276)
(0.454164 -2.24971e-16 1.86609e-16 0.754749 -0.384961 0.494259)
(0.589186 5.66586e-16 -6.31819e-16 0.597426 -0.502645 0.699879)
(2.98346 1.41094e-17 1.58342e-15 1.01853 -1.17618 5.10984)
(3.70145 -2.13506e-16 -5.21327e-16 1.61068 -1.30102 8.01987)
(0.978139 -4.40992e-16 -5.39888e-16 0.558698 -0.270013 1.80383)
(0.219309 -2.09998e-16 -1.32325e-16 0.168737 -0.070194 0.319882)
(0.0536588 -7.5534e-17 -8.51777e-18 0.0568267 -0.0232779 0.0650301)
(0.014506 -1.78855e-17 4.08545e-18 0.0198603 -0.00875606 0.0161982)
(0.00594832 -5.03535e-18 2.33916e-18 0.0103162 -0.00594855 0.00698724)
(0.00933692 -6.17789e-18 4.51747e-18 0.0183623 -0.0129835 0.0120937)
(0.0227221 -1.44291e-17 1.06444e-17 0.0447832 -0.0304302 0.0295306)
(0.0442415 -5.68994e-17 2.26677e-17 0.08417 -0.053951 0.0553771)
(0.0742896 1.60042e-18 1.71861e-17 0.13593 -0.0801998 0.0884372)
(0.124767 4.76531e-17 1.79209e-17 0.223586 -0.122328 0.141091)
(0.254617 -2.06371e-16 4.45559e-17 0.43316 -0.237021 0.285415)
(0.59883 2.24405e-16 -1.8665e-16 0.992151 -0.4994 0.631023)
(0.782478 2.92415e-16 -2.39542e-16 0.884462 -0.661259 0.801489)
(2.75312 1.35967e-16 1.75137e-15 1.30914 -0.892397 4.43024)
(4.48318 4.15592e-17 -4.73719e-16 2.06135 -1.4846 9.66931)
(1.15077 -3.6432e-16 -8.92262e-16 0.664114 -0.306846 2.11945)
(0.265486 -2.88409e-16 -1.84712e-16 0.219662 -0.0828428 0.375988)
(0.0712986 -1.05742e-16 -8.84322e-18 0.085411 -0.0338808 0.0824502)
(0.021706 -2.09045e-17 4.57308e-18 0.0332631 -0.0146368 0.0240264)
(0.00845308 -9.24064e-18 4.52085e-18 0.0153357 -0.00834597 0.0100291)
(0.00986322 -7.51813e-18 5.10465e-18 0.0195038 -0.0136454 0.0126167)
(0.0217333 3.02944e-19 2.71717e-19 0.0427111 -0.0296738 0.0277476)
(0.040632 -3.07712e-17 1.49365e-17 0.0771206 -0.0495851 0.0499611)
(0.0628429 -3.07142e-17 2.51585e-17 0.113896 -0.0683783 0.0735848)
(0.104448 2.50828e-17 2.31251e-17 0.184372 -0.101766 0.116653)
(0.273875 -1.06311e-16 2.98712e-17 0.451197 -0.255194 0.308098)
(0.709573 2.57921e-16 -4.09439e-16 1.15947 -0.572468 0.718379)
(0.853511 1.09193e-16 -1.04938e-16 1.06618 -0.708658 0.704523)
(2.63598 2.1844e-16 1.94549e-15 1.30284 -0.786342 4.26033)
(4.55582 1.98387e-16 1.13263e-16 2.15026 -1.45645 9.74799)
(1.16945 -3.06615e-16 -1.09017e-15 0.685006 -0.300616 2.13586)
(0.281129 -3.569e-16 -2.42437e-16 0.251335 -0.0855051 0.384621)
(0.0835704 -1.21709e-16 -4.07226e-18 0.110633 -0.0441111 0.0931692)
(0.0287959 -2.80988e-17 4.62018e-18 0.0475557 -0.0216475 0.032266)
(0.0115248 -1.42519e-17 6.67111e-18 0.0216491 -0.0115655 0.0140409)
(0.0104928 -3.98602e-18 2.18494e-18 0.0208071 -0.0139959 0.0133354)
(0.019457 5.55561e-18 -4.69778e-18 0.0378949 -0.0260406 0.0244349)
(0.0337035 -2.36894e-17 1.5826e-17 0.0632242 -0.0408835 0.0407274)
(0.0487636 -2.90461e-17 1.99921e-17 0.0870916 -0.0524254 0.056227)
(0.0878611 -6.16507e-17 3.87555e-17 0.153036 -0.0833496 0.0973646)
(0.294937 -1.77262e-16 1.12562e-16 0.472391 -0.273599 0.335316)
(0.791917 6.35099e-16 -3.48165e-16 1.26138 -0.624579 0.817605)
(0.973334 3.89521e-16 -2.51155e-16 1.01584 -0.782817 1.04661)
(2.50586 8.3651e-17 1.68496e-15 1.0926 -0.82053 4.22913)
(3.98901 -8.72322e-17 5.52081e-17 1.9506 -1.21778 8.44971)
(1.07513 -2.43492e-16 -1.01115e-15 0.641937 -0.2612 1.94353)
(0.280032 -3.1727e-16 -2.68079e-16 0.26474 -0.0805131 0.373473)
(0.0942091 -1.51317e-16 -5.61991e-18 0.132507 -0.0537115 0.10328)
(0.0374191 -4.10711e-17 8.59469e-18 0.0644894 -0.0306526 0.0427823)
(0.0158771 -1.69509e-17 4.80438e-18 0.0303941 -0.0163164 0.0198514)
(0.0114093 5.69113e-19 -6.58742e-19 0.0226229 -0.0144737 0.0144622)
(0.0166113 4.89475e-18 -3.58004e-18 0.0320216 -0.021406 0.0205393)
(0.0259589 -2.19627e-17 1.50764e-17 0.0480496 -0.0305294 0.0308288)
(0.0360867 -2.02078e-17 1.02311e-17 0.0634936 -0.0377452 0.0409813)
(0.0785813 -1.24051e-16 5.42752e-17 0.135958 -0.0729945 0.0867501)
(0.318551 -2.22347e-16 2.21956e-16 0.501626 -0.295348 0.365244)
(0.849534 6.90595e-16 1.27078e-16 1.33028 -0.661211 0.889289)
(1.03498 5.56869e-16 -4.51803e-16 0.980648 -0.823435 1.21175)
(2.36239 -1.49194e-16 1.04344e-15 0.822418 -0.883934 4.21201)
(3.33124 2.49638e-16 1.64935e-15 1.67381 -0.965016 7.04197)
(0.931168 -1.77561e-16 -1.12919e-15 0.569363 -0.210338 1.67187)
(0.266861 -3.00999e-16 -2.71132e-16 0.259154 -0.0705122 0.351581)
(0.1021 -1.45342e-16 1.34667e-17 0.147142 -0.0603772 0.111567)
(0.0467796 -6.98125e-17 2.68398e-18 0.0818441 -0.0398633 0.0543243)
(0.0217325 -7.10932e-18 3.62229e-18 0.0419284 -0.0226041 0.0275347)
(0.0130177 5.38063e-18 -6.89659e-19 0.0258648 -0.0156734 0.0165071)
(0.0141534 -1.15619e-17 2.3271e-18 0.0271197 -0.017155 0.0172731)
(0.0194476 -2.30962e-17 1.35858e-17 0.0356024 -0.0219925 0.0227178)
(0.0279735 2.51065e-18 7.81922e-18 0.0489871 -0.0281305 0.0314079)
(0.0789427 -1.79339e-16 6.89043e-17 0.137881 -0.0712954 0.0870826)
(0.346903 -3.52807e-16 2.09773e-16 0.541078 -0.322623 0.399822)
(0.894838 -4.5131e-16 1.40885e-16 1.38248 -0.690791 0.941787)
(1.08264 1.52918e-15 -1.10568e-15 0.984324 -0.870142 1.3009)
(2.22393 -1.22953e-16 7.68601e-16 0.635264 -0.896446 4.10744)
(2.75724 -2.68291e-16 1.08148e-15 1.41963 -0.745593 5.85051)
(0.793265 -1.62779e-16 -9.15119e-16 0.490006 -0.16902 1.43541)
(0.243695 -2.10423e-16 -2.31017e-16 0.237494 -0.0582151 0.320458)
(0.106114 -1.90556e-16 3.88184e-17 0.154264 -0.0641547 0.115955)
(0.0562596 -9.63555e-17 1.19694e-17 0.0994661 -0.0495234 0.0658229)
(0.0286495 -8.5697e-18 2.88574e-18 0.0554691 -0.0300632 0.0364614)
(0.0152304 -1.17651e-17 9.09051e-18 0.0302438 -0.0175302 0.0193265)
(0.0121542 -9.15863e-18 3.72173e-18 0.023069 -0.0139704 0.0146629)
(0.0152041 -2.57659e-18 2.99188e-18 0.02772 -0.0161102 0.0175259)
(0.0232521 -4.69571e-17 2.05123e-17 0.0405469 -0.0224413 0.0259215)
(0.0849086 -1.82458e-16 8.94383e-17 0.14861 -0.0763161 0.0938214)
(0.378948 -1.48449e-16 2.24097e-16 0.583136 -0.35272 0.439197)
(0.931613 -9.3655e-16 4.12513e-16 1.41366 -0.711132 0.987066)
(1.08914 2.30914e-15 -1.42525e-15 0.956778 -0.869613 1.3422)
(2.0952 -5.11511e-18 7.61656e-16 0.60111 -0.85342 3.85248)
(2.30286 -7.32678e-17 1.09773e-15 1.22265 -0.575093 4.90862)
(0.637082 -2.03385e-16 -7.16403e-16 0.404481 -0.125633 1.15756)
(0.216351 -1.7816e-16 -2.61207e-16 0.205497 -0.0470957 0.290265)
(0.107848 -2.45268e-16 4.13293e-17 0.154251 -0.0655877 0.119159)
(0.0648173 -1.30808e-16 3.50892e-17 0.113514 -0.0571451 0.0754513)
(0.0369239 5.59446e-18 -5.90052e-18 0.0711871 -0.0392899 0.0462604)
(0.0189305 -2.3058e-17 1.55392e-17 0.03758 -0.0214391 0.0238138)
(0.0115975 -9.4217e-18 4.09736e-18 0.0220581 -0.0126574 0.0138935)
(0.0125325 7.7666e-18 -1.45237e-18 0.0228969 -0.0127653 0.014289)
(0.0219428 -4.97701e-17 2.3021e-17 0.0387146 -0.0203596 0.0244506)
(0.0976716 -2.23303e-16 1.0138e-16 0.17413 -0.0888723 0.108189)
(0.414243 -4.8167e-16 3.95592e-16 0.636128 -0.390037 0.483326)
(0.938793 -1.40219e-15 4.21819e-16 1.40883 -0.723393 0.994281)
(1.07144 2.49242e-15 -1.75395e-15 0.933215 -0.856286 1.32809)
(1.86763 -5.56414e-17 6.28469e-16 0.590003 -0.701273 3.33881)
(1.92945 6.39365e-17 1.17636e-15 1.04492 -0.392526 4.163)
(0.475861 -1.07226e-16 -6.03283e-16 0.302113 -0.080512 0.872081)
(0.158802 -1.45251e-16 -1.72261e-16 0.153392 -0.0322249 0.205643)
(0.0937374 -2.63363e-16 4.62511e-17 0.137748 -0.0583235 0.101315)
(0.062841 -1.03963e-16 3.42779e-17 0.111213 -0.0561774 0.0730002)
(0.0379479 3.06902e-17 -1.28643e-17 0.0729185 -0.0390902 0.0473971)
(0.0197179 -2.64692e-17 1.2872e-17 0.0388841 -0.0209061 0.024741)
(0.0128931 -1.40079e-17 7.6478e-18 0.0244103 -0.013075 0.0155609)
(0.0198641 -9.88541e-18 1.05487e-17 0.0366317 -0.0197943 0.0235082)
(0.0548365 -1.47409e-16 7.82022e-17 0.0978797 -0.0548382 0.0649805)
(0.189632 -4.0281e-16 2.24065e-16 0.325736 -0.180232 0.221226)
(0.515428 -7.29253e-16 4.39125e-16 0.759554 -0.470919 0.608361)
(1.02398 -9.98655e-16 1.38432e-16 1.48728 -0.771499 1.10366)
(1.16692 2.55789e-15 -1.79968e-15 1.03358 -0.953829 1.41705)
(2.40152 -4.86409e-17 8.51426e-16 0.9756 -0.9208 4.18466)
(1.70712 4.34039e-17 1.53995e-15 0.989558 -0.486657 3.63966)
(0.466313 -1.42687e-16 -3.80492e-16 0.3077 -0.129492 0.887513)
(0.249 -1.81546e-16 -2.00364e-16 0.209868 -0.0821978 0.3832)
(0.15205 -3.05125e-16 9.65795e-18 0.187918 -0.0949148 0.196464)
(0.100129 -1.87478e-16 6.60545e-17 0.173028 -0.0986236 0.117913)
(0.0651404 3.5366e-17 -2.15271e-17 0.130219 -0.0781784 0.0766762)
(0.034773 -2.85511e-17 1.2846e-17 0.0731566 -0.0425876 0.041005)
(0.0181575 -2.88794e-17 1.41443e-17 0.0370068 -0.0179471 0.0209642)
(0.0241374 -1.49088e-17 1.14348e-17 0.0472125 -0.0227995 0.027663)
(0.0613915 -1.50939e-16 7.90205e-17 0.113559 -0.0565744 0.0693593)
(0.172466 -3.0892e-16 1.68519e-16 0.301995 -0.154985 0.189532)
(0.409734 -4.20491e-16 2.28372e-16 0.619666 -0.372282 0.461551)
(0.662002 5.48021e-17 -9.78448e-17 0.933408 -0.520464 0.687691)
(0.698077 1.94295e-15 -1.05707e-15 0.569883 -0.498288 0.805418)
(0.165421 1.54634e-17 3.70113e-17 0.212741 0.00327132 0.190552)
(0.129934 2.64872e-17 7.64874e-17 0.15745 0.00998558 0.15234)
(0.124886 -5.03469e-18 5.45988e-17 0.141587 0.00979912 0.162033)
(0.117135 -1.1078e-17 4.71847e-17 0.126441 0.00654386 0.161584)
(0.107671 -8.04568e-18 4.62454e-17 0.11186 0.00162683 0.152113)
(0.0818871 -1.7919e-18 7.20982e-17 0.0829428 -0.00795665 0.111369)
(0.0898324 -2.24591e-17 5.39565e-17 0.0848812 -0.0110068 0.123172)
(0.0936338 -4.1822e-17 5.04258e-17 0.08543 -0.0136402 0.128814)
(0.0948737 -5.5421e-17 5.04136e-17 0.084817 -0.0131047 0.130393)
(0.0866846 -8.85742e-17 6.71977e-17 0.0764132 -0.0156306 0.118227)
(0.0970195 -8.47602e-17 5.47074e-17 0.0831994 -0.016604 0.128179)
(0.102998 -8.58225e-17 4.96563e-17 0.0875327 -0.0181478 0.132992)
(0.105422 -1.05281e-16 5.53059e-17 0.0903546 -0.0232651 0.128544)
(0.118858 -9.85793e-17 3.54132e-17 0.100179 -0.0238323 0.142978)
(0.127468 -1.0107e-16 2.01112e-17 0.106811 -0.0266572 0.151595)
(0.133034 -9.32947e-17 6.07419e-18 0.111579 -0.0265081 0.155212)
(0.130831 -8.96274e-17 2.21058e-18 0.109466 -0.028824 0.144914)
(0.143795 -5.12818e-17 -2.79832e-17 0.118003 -0.026028 0.163263)
(0.152318 -2.88503e-17 -4.00516e-17 0.12635 -0.024094 0.167998)
(0.156764 -3.89963e-18 -4.11478e-17 0.133597 -0.0279168 0.160896)
(0.175377 1.97398e-17 -7.72767e-17 0.151336 -0.0275844 0.172843)
(0.187228 4.17464e-17 -8.71086e-17 0.163233 -0.0299297 0.178598)
(0.195855 5.1071e-17 -9.37832e-17 0.172249 -0.0313021 0.181897)
(0.19868 9.19486e-17 -7.34662e-17 0.174647 -0.0384508 0.178737)
(0.216379 1.01607e-16 -9.48437e-17 0.194155 -0.0377282 0.183124)
(0.226813 1.07362e-16 -8.92126e-17 0.206915 -0.0413079 0.183217)
(0.233465 1.05035e-16 -8.27575e-17 0.215146 -0.0418565 0.181688)
(0.232868 1.32273e-16 -5.56359e-17 0.216212 -0.0519867 0.170526)
(0.245897 1.11281e-16 -6.12666e-17 0.230661 -0.0447509 0.173952)
(0.251938 1.05684e-16 -5.58366e-17 0.238245 -0.0440529 0.174093)
(0.25083 1.39542e-16 -4.18773e-17 0.238979 -0.0541761 0.166266)
(0.263783 1.2604e-16 -4.9756e-17 0.253335 -0.0467559 0.169923)
(0.269574 1.35035e-16 -5.08572e-17 0.26034 -0.0478547 0.170407)
(0.272523 1.25976e-16 -4.28379e-17 0.264117 -0.0453557 0.169143)
(0.266783 1.55661e-16 -2.64219e-17 0.258881 -0.0539752 0.159176)
(0.27617 1.09422e-16 -1.69126e-17 0.269068 -0.0408207 0.163761)
(0.278645 8.72083e-17 -9.79517e-18 0.27226 -0.039264 0.164256)
(0.271833 8.57071e-17 -3.4958e-18 0.265621 -0.0473684 0.157406)
(0.28198 4.77747e-17 1.58691e-18 0.277371 -0.0381627 0.162535)
(0.284346 3.16608e-17 4.48003e-18 0.280396 -0.0381671 0.163383)
(0.284757 2.26723e-17 7.39773e-18 0.281459 -0.0373423 0.162317)
(0.275293 2.36204e-17 1.69715e-17 0.271768 -0.0469665 0.154075)
(0.286017 1.43086e-17 7.30696e-18 0.285071 -0.0392109 0.159966)
(0.288003 1.42844e-17 4.2636e-18 0.288036 -0.0402015 0.160917)
(0.287942 1.75053e-17 2.3873e-18 0.28872 -0.0398477 0.160211)
(0.276777 3.89174e-17 6.64738e-18 0.276454 -0.0516197 0.154152)
(0.287586 3.6973e-17 7.51733e-19 0.289875 -0.043884 0.1615)
(0.28948 4.16667e-17 -4.63743e-19 0.294107 -0.0426137 0.159795)
(0.28098 6.74108e-17 1.31947e-18 0.28782 -0.0495573 0.152574)
(0.293302 5.73882e-17 -1.38687e-17 0.305198 -0.0377146 0.155358)
(0.295283 6.58642e-17 -2.01298e-17 0.31007 -0.0355272 0.154259)
(0.292429 7.5558e-17 -1.99615e-17 0.307056 -0.0298324 0.155731)
(0.273402 1.27264e-16 -4.53831e-18 0.28625 -0.0285686 0.153959)
(0.29022 8.82715e-17 -1.11789e-17 0.304998 -0.0246279 0.159852)
(0.293761 8.39593e-17 -1.23872e-17 0.310002 -0.0251306 0.161806)
(0.292769 9.30256e-17 -1.32899e-17 0.310444 -0.0237031 0.162)
(0.279199 1.57933e-16 3.41746e-18 0.301817 -0.0304079 0.160959)
(0.291073 1.24265e-16 8.37784e-18 0.312884 -0.0229235 0.159029)
(0.293559 1.29403e-16 1.14122e-17 0.316563 -0.0222507 0.157829)
(0.287631 1.55962e-16 4.23007e-18 0.317638 -0.0349233 0.154467)
(0.293745 1.05431e-16 2.74743e-17 0.318507 -0.0239016 0.153723)
(0.293951 9.71984e-17 3.08383e-17 0.317994 -0.0241473 0.153278)
(0.290474 8.94225e-17 3.61432e-17 0.314271 -0.0236824 0.149958)
(0.2752 1.09968e-16 2.34714e-17 0.302363 -0.0393445 0.141893)
(0.267658 7.93713e-17 2.56868e-17 0.291626 -0.0267705 0.134154)
(0.259528 8.7823e-17 2.50294e-17 0.284158 -0.0280948 0.12929)
(0.234391 1.19182e-16 9.48054e-18 0.262541 -0.0469598 0.118671)
(0.213905 7.35206e-17 3.20296e-17 0.24096 -0.032678 0.105127)
(0.200039 6.89885e-17 2.90932e-17 0.228748 -0.0346737 0.0984005)
(0.182638 7.22219e-17 2.08695e-17 0.212847 -0.0359759 0.09114)
(0.147257 1.15685e-16 -1.67451e-17 0.180886 -0.0610573 0.0808499)
(0.124898 9.49452e-17 -1.34193e-17 0.158889 -0.0497553 0.0739485)
(0.113991 1.05867e-16 -2.48579e-17 0.148293 -0.0578899 0.0744892)
(0.106079 1.14093e-16 -3.60802e-17 0.141227 -0.0686236 0.0795334)
(0.101229 1.50445e-16 -6.62781e-17 0.138479 -0.109671 0.0938319)
(0.102005 1.22361e-16 -4.97249e-17 0.139652 -0.101689 0.104675)
(0.107503 1.41361e-16 -7.8165e-17 0.146073 -0.118401 0.117436)
(0.121636 1.59916e-16 -1.08344e-16 0.161936 -0.157327 0.139513)
(0.130662 1.26207e-16 -8.40655e-17 0.170201 -0.144041 0.155434)
(0.141106 1.21524e-16 -9.0043e-17 0.181386 -0.161339 0.171439)
(0.157347 7.8722e-17 -6.3e-17 0.199117 -0.171075 0.19364)
(0.161807 6.6713e-18 -8.40756e-18 0.207763 -0.17126 0.198007)
(0.159346 -5.62026e-17 3.56767e-17 0.20993 -0.169596 0.195877)
(0.14761 -1.45173e-16 9.75417e-17 0.202504 -0.159356 0.182286)
(0.163653 -1.69843e-16 1.06239e-16 0.228238 -0.171434 0.200736)
(0.15444 -2.2395e-16 1.43516e-16 0.224394 -0.164827 0.190659)
(0.146283 -2.35001e-16 1.52075e-16 0.215591 -0.156873 0.179583)
(0.13992 -2.22892e-16 1.46482e-16 0.208709 -0.150794 0.172396)
(0.132491 -2.06658e-16 1.38742e-16 0.199775 -0.143824 0.164615)
(0.1237 -1.88372e-16 1.29372e-16 0.188905 -0.13548 0.155497)
(0.112527 -1.6861e-16 1.17719e-16 0.174251 -0.124468 0.14319)
(0.0989303 -1.5093e-16 1.05318e-16 0.154669 -0.110235 0.126915)
(0.0848362 -1.32337e-16 8.84525e-17 0.133239 -0.0938079 0.109033)
(0.08623 -1.34129e-16 8.52366e-17 0.137269 -0.0905084 0.111685)
(0.0782026 -1.30024e-16 8.28415e-17 0.124787 -0.0822668 0.103308)
(0.0701929 -1.2599e-16 7.90763e-17 0.112661 -0.0735685 0.0936039)
(0.0609387 -1.22765e-16 7.53793e-17 0.0990955 -0.0636038 0.0815724)
(0.0574946 -1.15241e-16 7.00503e-17 0.0929979 -0.0592011 0.076639)
(0.0551557 -1.0491e-16 6.39244e-17 0.0888803 -0.0563575 0.0741161)
(0.0517547 -9.36146e-17 5.7294e-17 0.0826726 -0.0526708 0.0703187)
(0.0469103 -7.94227e-17 4.92057e-17 0.073441 -0.0480343 0.0650757)
(0.0398109 -6.07227e-17 3.77601e-17 0.0604073 -0.0414754 0.0572162)
(0.0392999 -4.82191e-17 2.90151e-17 0.0594666 -0.0392451 0.0571428)
(0.0390924 -4.26241e-17 2.61598e-17 0.058354 -0.0390445 0.0574457)
(0.0387218 -3.67798e-17 2.2778e-17 0.0570892 -0.0385929 0.0571531)
(0.038337 -3.10577e-17 1.94643e-17 0.0558621 -0.0381822 0.0568858)
(0.0376726 -2.53281e-17 1.6019e-17 0.0541502 -0.037474 0.056118)
(0.0372929 -2.18044e-17 1.36164e-17 0.052972 -0.0368969 0.0554933)
(0.0384163 -2.31755e-17 1.36676e-17 0.0545148 -0.0375474 0.0568293)
(0.0399892 -2.52344e-17 1.4023e-17 0.0567757 -0.038535 0.0589744)
(0.0413679 -2.76243e-17 1.44196e-17 0.0581488 -0.0392707 0.0609505)
(0.043154 -3.06564e-17 1.47738e-17 0.0599718 -0.0400251 0.063411)
(0.0453262 -3.67333e-17 1.52306e-17 0.0625198 -0.0414789 0.0676996)
(0.0472991 -3.76798e-17 1.51001e-17 0.065018 -0.0428387 0.0706614)
(0.049432 -3.81865e-17 1.41521e-17 0.0678457 -0.0439605 0.0734723)
(0.0518626 -3.86276e-17 1.30146e-17 0.0709868 -0.0451311 0.0767115)
(0.0546756 -3.86071e-17 1.12957e-17 0.0747596 -0.0462237 0.0803425)
(0.0579083 -3.64926e-17 7.89036e-18 0.0793991 -0.0469904 0.0841987)
(0.0611957 -3.51008e-17 4.41963e-18 0.0837267 -0.0468802 0.088105)
(0.0646179 -3.77217e-17 2.84021e-18 0.0871501 -0.0464297 0.0926989)
(0.0690306 -4.196e-17 1.32197e-18 0.0911698 -0.0460796 0.098841)
(0.0752368 -5.09823e-17 -1.84683e-19 0.0978383 -0.0492883 0.110233)
(0.0789206 -5.56053e-17 -4.5526e-19 0.101417 -0.0497176 0.115465)
(0.082422 -6.36704e-17 2.84354e-19 0.104212 -0.0486753 0.119869)
(0.0856503 -7.2938e-17 1.72462e-18 0.105513 -0.0467855 0.124541)
(0.0896501 -8.15404e-17 2.62343e-18 0.107453 -0.0449263 0.130663)
(0.0944933 -9.1453e-17 3.66438e-18 0.110245 -0.0427852 0.138083)
(0.100501 -1.02636e-16 4.5941e-18 0.114351 -0.0403811 0.147307)
(0.106725 -1.15086e-16 4.92082e-18 0.116481 -0.0367077 0.157347)
(0.112415 -1.11069e-16 -1.01973e-18 0.115847 -0.0316175 0.168439)
(0.127129 -1.29191e-16 1.03223e-17 0.126039 -0.0374299 0.196702)
(0.13372 -1.27763e-16 7.26822e-18 0.127545 -0.035551 0.209765)
(0.142299 -1.24891e-16 2.70076e-18 0.130548 -0.033407 0.2263)
(0.152036 -1.19594e-16 -3.39794e-18 0.132616 -0.0303881 0.245758)
(0.162221 -1.10103e-16 -7.65352e-18 0.135249 -0.0269339 0.267181)
(0.174222 -1.00532e-16 -9.43198e-18 0.140198 -0.0240658 0.292903)
(0.189166 -9.03272e-17 -1.105e-17 0.147363 -0.0212845 0.32497)
(0.207776 -7.85007e-17 -1.26905e-17 0.156772 -0.0184352 0.36512)
(0.232843 -6.35632e-17 -1.33482e-17 0.170736 -0.0169771 0.419064)
(0.283881 -8.02021e-17 -4.08908e-18 0.197758 -0.0234694 0.52087)
(0.305184 -7.60566e-17 8.96916e-18 0.208966 -0.0228094 0.567921)
(0.332609 -7.12029e-17 2.4488e-17 0.224398 -0.0249174 0.628027)
(0.363574 -6.48099e-17 4.34e-17 0.238641 -0.0271533 0.697657)
(0.400342 -5.58236e-17 6.69179e-17 0.255998 -0.0308653 0.780218)
(0.443548 -3.69584e-17 9.61702e-17 0.276294 -0.0368847 0.877197)
(0.478246 -1.7661e-17 1.43865e-16 0.2933 -0.0404004 0.95401)
(0.518514 -2.31004e-18 2.04122e-16 0.316037 -0.0438498 1.04113)
(0.569245 1.77864e-17 2.78117e-16 0.354374 -0.0496738 1.14483)
(0.632989 4.60604e-17 3.84349e-16 0.40548 -0.0647021 1.27024)
(0.801524 1.51368e-16 6.07793e-16 0.454488 -0.097814 1.60482)
(0.826468 1.91004e-16 6.15225e-16 0.473285 -0.085588 1.65327)
(0.836998 2.13847e-16 5.66816e-16 0.490264 -0.0827689 1.66798)
(0.83001 2.16249e-16 4.95005e-16 0.477294 -0.0703104 1.64904)
(0.805647 2.0049e-16 3.91116e-16 0.441422 -0.0640421 1.58849)
(0.753186 1.36042e-16 2.41025e-16 0.37138 -0.0760606 1.45647)
(0.679553 4.16288e-17 9.98005e-17 0.317944 -0.0997846 1.27598)
(0.616954 4.21367e-18 5.40148e-17 0.30809 -0.104989 1.14942)
(0.486369 2.74198e-17 3.04414e-18 0.279698 -0.0620545 0.922222)
(0.413634 -9.82659e-18 7.97301e-17 0.15284 -0.0681053 0.699501)
(0.277802 -1.16674e-17 5.32054e-17 0.100918 -0.0335284 0.45561)
(0.0679138 -3.36635e-18 9.13149e-18 0.0416843 0.0134356 0.0832615)
(0.0476988 -2.36954e-18 6.3409e-18 0.036556 0.0106576 0.0462401)
(0.0417143 -2.73752e-18 3.66594e-18 0.036614 0.0144962 0.0284462)
(0.0456639 -5.78868e-19 4.89096e-18 0.0422114 0.0148362 0.0268159)
(0.0450796 2.28523e-19 5.92127e-18 0.0416601 0.0168588 0.026257)
(0.047272 9.20556e-20 5.74007e-18 0.0431426 0.0154132 0.0269303)
(0.0466293 -1.44077e-18 4.57585e-18 0.042372 0.01675 0.0281858)
(0.0480528 -1.73119e-18 4.48461e-18 0.0424461 0.015804 0.0303925)
(0.0503034 -1.35478e-18 4.60683e-18 0.0465977 0.0153035 0.0258547)
(0.0495634 -2.51104e-18 3.95932e-18 0.04699 0.0169632 0.0243279)
(0.049902 -3.23946e-18 3.50734e-18 0.0469981 0.0162564 0.0242406)
(0.0499703 -2.6248e-18 3.61859e-18 0.0466024 0.0155456 0.0238933)
(0.0476211 -3.69765e-18 3.19486e-18 0.0437509 0.0175924 0.0230162)
(0.0479973 -3.24303e-18 2.92032e-18 0.0442091 0.0149531 0.0233759)
(0.0462589 -2.37273e-18 2.42384e-18 0.0432104 0.0158325 0.022902)
(0.0455369 -1.41973e-18 2.54807e-18 0.0419753 0.015019 0.0231554)
(0.0446366 4.33623e-19 3.22468e-18 0.040559 0.0136948 0.0229371)
(0.041618 6.48155e-19 3.23213e-18 0.03716 0.0151064 0.022111)
(0.0415811 -1.1574e-18 2.05003e-18 0.037376 0.0124819 0.0218443)
(0.0391604 -2.88477e-18 5.84185e-19 0.0355996 0.0128669 0.0206427)
(0.03835 -3.81853e-18 -3.73798e-19 0.0341495 0.0122296 0.0206422)
(0.0387879 -3.54992e-18 -5.68817e-19 0.0351415 0.0117348 0.0206283)
(0.0365615 -3.83141e-18 -1.10478e-18 0.0339403 0.0125126 0.0195867)
(0.035923 -3.29567e-18 -1.04908e-18 0.0330717 0.0120468 0.0195529)
(0.0355909 -3.31892e-18 -9.58786e-19 0.032227 0.0109839 0.0195437)
(0.032338 -4.223e-18 -1.5929e-18 0.0287142 0.0120509 0.0183122)
(0.0328918 -3.1529e-18 -8.70883e-19 0.0295913 0.0102851 0.0185263)
(0.0304277 -3.9389e-18 -1.79022e-18 0.0280467 0.0106368 0.0174757)
(0.0298871 -4.46916e-18 -2.24617e-18 0.0272886 0.0102733 0.0175132)
(0.0297066 -3.90853e-18 -1.92236e-18 0.026509 0.00909704 0.0179053)
(0.0262427 -4.15565e-18 -2.23424e-18 0.022812 0.00975856 0.0166906)
(0.0267544 -3.71701e-18 -1.944e-18 0.0234095 0.00777165 0.0169373)
(0.0240273 -4.25101e-18 -2.73844e-18 0.0217734 0.00751347 0.0155842)
(0.0237174 -3.83269e-18 -2.64093e-18 0.0207433 0.00703462 0.0160697)
(0.0248818 -2.965e-18 -2.08976e-18 0.020859 0.00693822 0.0182043)
(0.0217895 -2.38721e-18 -1.89962e-18 0.0177543 0.00718622 0.0186371)
(0.0229062 -4.46336e-19 -7.04299e-19 0.0207043 0.00709331 0.0158673)
(0.0247492 2.4809e-19 3.56037e-19 0.0221198 0.0057055 0.0159979)
(0.0211941 -2.48003e-19 3.89587e-19 0.0186708 0.00603003 0.0140286)
(0.0231123 -6.82098e-20 1.03554e-18 0.0196789 0.00523929 0.0151904)
(0.0203133 8.69691e-20 1.22554e-18 0.0181392 0.00582109 0.0139663)
(0.0216625 -2.06853e-19 1.39327e-18 0.0205037 0.0055904 0.0151354)
(0.0246918 -2.17204e-18 7.28682e-19 0.0231359 0.00488364 0.0164624)
(0.0229403 -1.88027e-18 5.62424e-19 0.0214443 0.00542683 0.015314)
(0.0238779 -1.75499e-18 6.62428e-19 0.0207191 0.00488281 0.0164492)
(0.0208754 -2.98632e-18 -6.10966e-21 0.0179119 0.00583967 0.0156631)
(0.0205284 -3.61437e-18 -4.41076e-19 0.0182059 0.00645411 0.0150381)
(0.0220234 -3.31509e-18 -3.81494e-19 0.0181807 0.00429239 0.0163794)
(0.0199328 -3.54707e-18 -8.19209e-19 0.0159125 0.00458456 0.0160486)
(0.0198571 -3.01558e-18 -7.97752e-19 0.0155206 0.00396533 0.0164798)
(0.0229731 -2.15323e-18 -3.60332e-19 0.0181764 0.00304723 0.0194187)
(0.0236087 -2.25247e-18 -4.31535e-19 0.0195969 0.00345887 0.0188902)
(0.0256245 -5.5295e-19 3.97231e-19 0.0200521 0.00255394 0.0204173)
(0.0245736 2.55414e-19 7.96225e-19 0.0186296 0.00290422 0.0201162)
(0.0243449 -1.67094e-18 -4.07064e-21 0.0173576 0.00238559 0.0214733)
(0.0266822 9.20228e-19 5.17788e-19 0.0185037 0.00167182 0.0237525)
(0.0275024 5.41409e-18 1.39972e-18 0.0204972 0.00224119 0.0232908)
(0.0294594 1.31162e-17 2.44384e-18 0.0210065 0.000926016 0.0249397)