/*--------------------------------*- C++ -*----------------------------------*\
| =========                 |                                                 |
| \\      /  F ield         | OpenFOAM: The Open Source CFD Toolbox           |
|  \\    /   O peration     | Version:  4.1                                   |
|   \\  /    A nd           | Web:      www.OpenFOAM.org                      |
|    \\/     M anipulation  |                                                 |
\*---------------------------------------------------------------------------*/
FoamFile
{
    version     2.0;
    format      ascii;
    class       volVectorField;
    location    "3";
    object      U;
}
// * * * * * * * * * * * * * * * * * * * * * * * * * * * * * * * * * * * * * //

dimensions      [0 1 -1 0 0 0 0];

internalField   nonuniform List<vector> 
6785
(
(9.90121e-15 0.685622 15.7354)
(9.62083e-15 -5.1303 12.0532)
(-2.10079e-15 -4.29511 12.1853)
(3.57626e-15 -3.72845 12.0235)
(3.53649e-16 -3.1252 11.9027)
(3.77124e-16 -2.67293 11.718)
(1.90102e-15 -2.32485 11.4916)
(7.95154e-16 -2.08107 11.221)
(-1.03835e-15 -1.91533 10.9189)
(1.06216e-15 -1.82403 10.5902)
(4.94916e-16 -1.92873 10.1717)
(-2.52922e-16 -2.37834 9.5673)
(1.14163e-15 -2.69897 8.97699)
(-5.80348e-17 -1.34644 8.93595)
(-9.9049e-16 1.73166 7.6562)
(1.48438e-14 -5.63656 22.2071)
(1.44239e-14 -14.7947 21.3428)
(3.20856e-17 -13.2934 20.5025)
(9.50046e-16 -11.8673 19.6311)
(1.56849e-15 -11.2557 18.613)
(3.1733e-16 -10.7391 17.6209)
(-2.76505e-15 -10.1567 16.6665)
(2.57036e-15 -9.58013 15.7101)
(-2.97063e-16 -9.01047 14.743)
(7.46847e-16 -8.40318 13.7677)
(1.1192e-15 -7.7748 12.7908)
(5.10821e-16 -7.30327 11.8031)
(3.37064e-15 -7.04766 10.7213)
(1.89328e-15 -5.81264 9.0066)
(-6.94097e-16 -1.71948 4.89125)
(1.92355e-14 -7.93428 22.2239)
(1.65232e-14 -16.84 24.7338)
(1.6265e-15 -13.8838 24.0186)
(5.89743e-15 -12.5112 22.7003)
(3.56427e-15 -11.8349 21.3043)
(7.32665e-17 -10.9958 20.0558)
(4.1276e-15 -10.1042 18.8237)
(4.95497e-16 -9.24606 17.5697)
(1.97507e-16 -8.41769 16.3003)
(5.33158e-15 -7.59735 15.0448)
(-3.37516e-16 -6.76387 13.8256)
(2.00858e-17 -5.92187 12.4416)
(8.65426e-16 -4.92527 10.2979)
(3.91314e-15 -3.1839 6.80777)
(9.30654e-16 -0.587826 2.29574)
(1.7044e-14 -8.14281 17.937)
(2.13137e-14 -16.3587 24.4933)
(4.04544e-15 -13.385 24.0217)
(4.39177e-15 -12.429 22.1876)
(5.00997e-15 -11.7329 20.6489)
(-1.78861e-15 -10.7917 19.3029)
(4.10949e-15 -9.9023 17.9392)
(-1.32692e-15 -9.07395 16.5652)
(1.5497e-15 -8.29968 15.196)
(1.11528e-15 -7.5774 13.8497)
(-9.17872e-16 -6.82817 12.4913)
(-2.2955e-15 -5.84491 10.8087)
(-3.00205e-15 -4.314 8.12404)
(-3.41149e-15 -2.15077 3.88608)
(6.53266e-15 0.0515609 -1.50174)
(1.69912e-14 -7.2734 13.8716)
(2.04347e-14 -15.2882 23.7475)
(2.60362e-15 -13.7419 24.0752)
(3.4331e-15 -12.9906 21.9458)
(2.27621e-15 -12.2781 20.296)
(-5.99554e-16 -11.3654 18.922)
(2.6131e-15 -10.5478 17.5138)
(-3.92285e-15 -9.77263 16.1044)
(-1.82273e-15 -9.0093 14.7254)
(-1.89551e-15 -8.27416 13.3794)
(-9.44282e-16 -7.52352 12.0129)
(-6.44903e-15 -6.56466 10.3678)
(-3.82317e-15 -5.04781 7.96679)
(-5.93693e-15 -3.14021 4.51305)
(-7.14e-15 -1.14167 1.45196)
(1.58269e-14 -6.14434 11.01)
(1.95373e-14 -14.1731 22.7828)
(4.87109e-15 -14.2742 24.3202)
(6.90517e-15 -13.5715 22.3948)
(-3.27855e-16 -12.6778 20.6768)
(-1.57158e-15 -11.7188 19.2786)
(3.1573e-15 -10.8912 17.8662)
(1.43105e-15 -10.0859 16.4547)
(-4.99243e-15 -9.25478 15.0827)
(-2.68807e-15 -8.42608 13.749)
(-2.41694e-15 -7.5967 12.398)
(9.07063e-15 -6.64768 10.8079)
(-6.42027e-16 -5.22096 8.62232)
(-5.84753e-15 -3.63762 5.59829)
(-9.10117e-16 -1.41325 3.0712)
(1.55846e-14 -5.28284 9.1523)
(1.85146e-14 -13.1575 21.7463)
(1.31707e-14 -14.3907 24.2172)
(7.98821e-15 -13.7317 22.8099)
(1.0111e-15 -12.6717 21.1037)
(3.63552e-15 -11.6681 19.655)
(1.7623e-15 -10.8232 18.2234)
(4.22312e-15 -9.98386 16.8048)
(8.63017e-15 -9.11235 15.426)
(-1.49828e-15 -8.24856 14.0846)
(-8.83547e-15 -7.40001 12.7267)
(-9.36767e-17 -6.4892 11.126)
(7.10342e-16 -5.10143 8.97891)
(-7.41362e-15 -3.89326 6.06128)
(2.80705e-15 -1.5002 4.02131)
(1.26254e-14 -4.85692 8.32671)
(1.90878e-14 -12.4149 20.988)
(1.27439e-14 -14.1713 23.801)
(6.78757e-15 -13.5732 22.9878)
(8.81174e-16 -12.4923 21.3393)
(1.63472e-15 -11.5134 19.8316)
(2.98563e-15 -10.685 18.3705)
(-1.81244e-15 -9.84328 16.9388)
(-7.83425e-16 -8.98072 15.5432)
(2.71562e-15 -8.14182 14.1809)
(1.04602e-15 -7.31737 12.8018)
(-1.34139e-15 -6.43679 11.1529)
(6.3069e-15 -4.98583 8.97216)
(-3.99822e-15 -4.02944 6.01306)
(3.45318e-15 -1.51665 4.2957)
(1.19821e-14 -4.67624 8.03327)
(2.01965e-14 -11.902 20.4838)
(1.51141e-14 -13.8552 23.2733)
(6.76929e-15 -13.3553 23.0301)
(1.76094e-15 -12.3764 21.4578)
(5.08886e-15 -11.4553 19.9046)
(1.12186e-15 -10.6479 18.4232)
(4.00368e-16 -9.8133 16.9846)
(4.73324e-16 -8.9744 15.5745)
(2.3665e-15 -8.17156 14.1934)
(1.07043e-15 -7.36748 12.7961)
(8.2894e-16 -6.493 11.0949)
(-7.39775e-15 -4.91224 8.89587)
(-5.68221e-15 -4.14221 5.97348)
(-1.91656e-15 -1.56322 4.47855)
(1.02651e-14 -4.53378 7.70206)
(1.86851e-14 -11.4908 20.0559)
(7.93302e-15 -13.574 22.7858)
(8.94831e-15 -13.2077 23.0218)
(1.75727e-15 -12.383 21.543)
(2.97041e-15 -11.5074 19.9674)
(1.07551e-16 -10.7008 18.48)
(2.95375e-16 -9.86388 17.0436)
(3.58842e-15 -9.03834 15.6278)
(2.43505e-15 -8.25493 14.2366)
(6.96325e-16 -7.44919 12.8301)
(-7.56908e-16 -6.56411 11.0811)
(-1.58629e-14 -4.84223 8.8843)
(-4.29769e-15 -4.24848 6.07034)
(-3.64525e-15 -1.6514 4.7818)
(-1.08433e-15 -4.3355 7.14189)
(1.4517e-14 -11.0824 19.5805)
(1.52622e-14 -13.3453 22.3835)
(-1.82148e-15 -13.1466 23.0044)
(7.12289e-15 -12.4851 21.6472)
(-8.06232e-16 -11.6341 20.07)
(-1.68234e-15 -10.8076 18.5818)
(6.66014e-15 -9.95724 17.1493)
(7.63581e-15 -9.13055 15.732)
(-9.36731e-15 -8.34771 14.3363)
(-1.69308e-15 -7.52019 12.9267)
(5.55992e-15 -6.62165 11.1333)
(-1.9242e-14 -4.78525 8.93978)
(-3.71456e-16 -4.36055 6.24052)
(-2.7598e-14 -1.75704 5.14017)
(2.21643e-15 -4.10326 6.4949)
(1.57152e-14 -10.6559 19.0815)
(2.30542e-15 -13.1224 22.0156)
(3.42821e-15 -13.0813 22.9312)
(3.62832e-15 -12.5605 21.698)
(-2.81774e-15 -11.7126 20.1513)
(-3.04627e-15 -10.8633 18.679)
(-1.68999e-15 -10.0018 17.2573)
(-1.02029e-14 -9.17318 15.8454)
(-1.90708e-15 -8.38556 14.4493)
(-1.94147e-15 -7.52996 13.0326)
(-2.95985e-14 -6.60988 11.1794)
(-1.24442e-14 -4.69 8.98613)
(-2.29439e-14 -4.48493 6.43762)
(-2.01398e-14 -1.87999 5.4856)
(2.11478e-15 -4.00142 6.12168)
(1.94973e-14 -10.3542 18.673)
(8.8456e-15 -13.0463 21.8484)
(5.68176e-15 -13.2172 22.9958)
(4.42639e-15 -12.8241 21.909)
(-6.91994e-15 -11.9649 20.3549)
(-2.8963e-15 -11.0576 18.8415)
(-9.3638e-16 -10.1537 17.3899)
(-1.01394e-14 -9.28973 15.9508)
(-4.18321e-15 -8.47505 14.5381)
(1.10255e-15 -7.56876 13.111)
(-1.63419e-14 -6.65162 11.1845)
(-1.17095e-14 -4.61519 8.94925)
(-1.98464e-14 -4.51829 6.4251)
(-2.35478e-14 -1.93719 5.59287)
(-4.22835e-15 -3.66336 5.90185)
(1.62181e-14 -9.7105 18.1348)
(5.63416e-15 -12.3886 21.3445)
(7.77633e-15 -12.5427 22.6514)
(1.86071e-15 -12.216 21.6794)
(-7.06155e-15 -11.3897 20.3859)
(-2.32625e-16 -10.5785 19.0624)
(2.26576e-15 -9.77042 17.703)
(-8.28751e-15 -8.97896 16.3214)
(-2.69693e-15 -8.18315 14.897)
(-3.17676e-15 -7.3021 13.3903)
(-1.43525e-14 -6.29596 11.3894)
(-1.27903e-14 -4.63774 9.21889)
(-2.26225e-14 -4.73784 7.16814)
(-2.101e-14 -2.06009 6.12003)
(-2.88481e-15 -6.52342 10.2295)
(1.70798e-14 -12.2906 20.758)
(9.17736e-15 -14.7362 23.5081)
(2.20743e-15 -15.0275 24.3376)
(9.90248e-16 -14.3052 23.0779)
(-6.0623e-15 -12.8932 20.9197)
(-2.63364e-15 -11.3321 18.7124)
(4.66896e-15 -9.88617 16.8076)
(-7.1266e-15 -8.61581 14.9784)
(-4.17267e-15 -7.51667 13.3967)
(-6.52626e-15 -6.26791 11.4181)
(-1.60133e-14 -4.77162 8.73642)
(-1.61032e-14 -2.93429 6.09038)
(-2.32809e-14 -2.71821 3.48002)
(-1.3978e-14 -0.672825 2.14898)
(-1.27166e-15 0.0382655 -0.757004)
(-5.36192e-15 0.0887028 -1.28079)
(-3.21862e-15 0.206951 -0.884779)
(-2.48937e-15 0.308257 -1.15666)
(-2.52167e-15 0.343156 -1.27774)
(-6.19399e-15 0.49627 -2.07455)
(-4.23219e-15 0.557641 -1.32048)
(-4.08499e-15 0.669505 -1.01325)
(-4.25063e-15 0.684033 -0.854228)
(-2.89544e-15 0.771627 -1.24436)
(-5.58364e-16 0.811183 -0.933559)
(-8.06138e-16 0.890501 -0.840498)
(-2.34282e-15 1.03043 -1.1296)
(-9.28985e-16 0.931042 -0.821918)
(6.62287e-16 1.0528 -0.648793)
(1.91221e-15 1.04784 -0.479283)
(6.00688e-15 1.18233 -0.340523)
(6.72089e-15 1.05629 -0.232125)
(5.95689e-15 1.15079 -0.149346)
(9.85993e-15 1.29202 -0.0282873)
(9.20938e-15 1.0806 -0.114051)
(1.0263e-14 1.19069 -0.134304)
(1.09886e-14 1.15902 -0.123772)
(1.23748e-14 1.29162 -0.046135)
(1.00116e-14 1.08247 -0.21428)
(9.84192e-15 1.18478 -0.255971)
(8.60073e-15 1.08657 -0.274132)
(1.02104e-14 1.38101 -0.147414)
(7.61656e-15 1.04598 -0.22788)
(7.98694e-15 1.15874 -0.241684)
(8.31374e-15 1.35685 -0.086423)
(5.6278e-15 0.938991 -0.203057)
(4.97516e-15 1.10503 -0.157215)
(3.39491e-15 0.977172 -0.133982)
(3.85052e-15 1.33857 0.120563)
(2.03817e-15 0.947119 0.00996106)
(1.27543e-15 1.04379 -0.0139089)
(-3.37535e-16 1.16881 0.169173)
(-5.33274e-16 0.755752 -0.0138023)
(-6.38829e-16 1.04121 -0.0507811)
(-2.88102e-16 0.834627 -0.0654927)
(-1.82345e-15 1.10653 -0.0200959)
(-4.69924e-16 0.788253 -0.21835)
(-2.20335e-16 1.08563 -0.278405)
(-1.72244e-16 0.763666 -0.27976)
(-3.92565e-16 0.944809 -0.392787)
(-1.03051e-15 0.831593 -0.405569)
(-1.05029e-15 0.953355 -0.284924)
(-1.78755e-15 0.839291 -0.352341)
(1.99013e-15 0.657682 0.0153558)
(2.32592e-15 0.952323 0.35342)
(2.48385e-15 0.71112 0.580233)
(6.04364e-16 0.772809 0.49078)
(3.97125e-16 0.590831 0.269391)
(1.29138e-15 0.774795 0.274489)
(3.5601e-15 0.631802 0.286346)
(1.49996e-15 0.467267 0.150797)
(-1.15881e-15 0.520782 -0.0123925)
(-3.08815e-15 0.689695 0.0215153)
(-7.50227e-15 0.340346 -0.13809)
(-7.12854e-15 0.403653 -0.3621)
(-8.34127e-15 0.49785 -0.368493)
(-8.09839e-15 0.554639 -0.312898)
(-1.7348e-14 0.293803 -0.530946)
(-5.41611e-16 0.246595 -0.645283)
(-1.54234e-15 0.445 -0.553641)
(-5.518e-15 0.0191257 -0.4606)
(-1.00029e-14 0.155538 0.299006)
(-9.74828e-15 0.0336254 0.650312)
(-8.51647e-15 0.150009 0.654988)
(-1.06949e-14 -0.307408 1.29916)
(-1.03868e-14 -0.294619 1.68754)
(-1.05715e-14 -0.438949 1.82828)
(-1.01554e-14 -0.383842 1.89221)
(-1.4245e-14 -1.2024 3.57997)
(-9.89677e-15 -1.53578 3.35316)
(-1.04894e-14 -1.64245 3.62244)
(-1.48659e-14 -2.74253 5.85579)
(-1.15546e-14 -3.00999 4.95)
(-1.27373e-14 -3.08062 5.34869)
(-1.63942e-14 -3.51522 6.34375)
(-1.57927e-14 -3.56682 6.45231)
(-1.5832e-14 -3.82717 6.68474)
(-1.30998e-14 -4.20064 8.99388)
(-1.49623e-14 -4.33273 8.42503)
(-1.48156e-14 -4.63481 8.82337)
(-1.41368e-14 -4.66302 9.00437)
(-1.36762e-14 -4.7375 9.195)
(-1.32155e-14 -4.80915 9.39928)
(-1.26613e-14 -4.88991 9.6361)
(-1.20136e-14 -5.03385 10.0111)
(-1.16945e-14 -5.27163 10.4638)
(-7.2121e-15 -5.46382 12.5429)
(-1.04858e-14 -5.75535 12.0023)
(-1.04708e-14 -5.91652 12.3107)
(-1.0562e-14 -5.89006 12.5407)
(-1.05539e-14 -6.11198 13.0953)
(-9.5277e-15 -6.06258 13.1946)
(-9.12902e-15 -6.13402 13.4381)
(-8.5595e-15 -6.22597 13.6731)
(-7.96144e-15 -6.4523 13.9607)
(-3.28931e-15 -6.53186 16.3295)
(-3.20567e-15 -6.9194 15.8237)
(-3.05008e-15 -7.00666 16.1016)
(-3.01068e-15 -7.03852 16.291)
(-2.89746e-15 -7.09566 16.5401)
(-2.82881e-15 -7.1753 16.8876)
(-2.84116e-15 -7.27452 17.2699)
(-2.83084e-15 -7.25881 17.4592)
(-2.83131e-15 -7.33798 17.7275)
(-2.8139e-15 -7.52825 18.0129)
(-2.76024e-15 -7.38849 19.9229)
(-3.78803e-15 -7.85351 19.3958)
(-3.42552e-15 -7.90823 19.6889)
(-3.16578e-15 -7.97019 19.8906)
(-2.82455e-15 -8.07003 20.1439)
(-2.30024e-15 -8.1181 20.4285)
(-8.40414e-16 -8.18389 20.8671)
(-7.5769e-16 -8.19646 21.1502)
(-1.04011e-15 -8.3407 21.3758)
(-1.38331e-15 -7.87042 22.321)
(-1.85234e-15 -8.33198 21.6083)
(-2.59279e-15 -8.36072 21.997)
(-3.26737e-15 -8.47589 22.2754)
(-2.94031e-15 -8.51661 22.3898)
(-2.86762e-15 -8.59481 22.5604)
(-2.72047e-15 -8.56871 22.7317)
(-2.5931e-15 -8.49386 22.9496)
(-2.54009e-15 -8.64439 23.3628)
(-5.24358e-17 -7.34297 22.167)
(-6.20137e-16 -8.04682 21.9543)
(-9.13694e-17 -7.97354 22.0094)
(3.6551e-16 -8.02528 22.0544)
(1.41411e-15 -8.142 22.2716)
(1.6552e-15 -8.17158 22.2644)
(1.73619e-15 -8.12593 22.1753)
(1.91813e-15 -8.01493 22.0791)
(2.07509e-15 -7.83187 21.8972)
(2.40899e-15 -6.28713 18.8227)
(2.51216e-15 -6.4853 19.7449)
(2.66457e-15 -6.29135 19.4287)
(2.80983e-15 -6.33386 19.2475)
(2.99128e-15 -6.31263 18.9838)
(3.2796e-15 -6.33935 18.6752)
(4.3647e-15 -6.33261 18.2381)
(4.23865e-15 -6.37036 17.9339)
(4.25221e-15 -6.23992 17.505)
(4.16151e-15 -5.88678 16.9482)
(2.78953e-15 -2.78093 11.8778)
(4.49718e-15 -4.14298 14.0502)
(4.19606e-15 -3.45471 13.031)
(3.27462e-15 -3.47351 12.4651)
(2.25019e-15 -3.23844 11.546)
(8.08012e-16 -3.26441 10.3482)
(-1.82492e-15 -3.22567 8.42528)
(-4.00319e-15 -2.71938 6.45757)
(-2.94331e-15 -2.11877 5.78245)
(-1.70577e-15 -2.62836 1.87636)
(-3.67067e-15 -2.4504 3.29645)
(-3.13482e-15 -1.68232 1.81166)
(-1.4389e-15 -1.01097 -1.9072)
(-4.81941e-15 -2.01787 -0.331204)
(-2.34474e-15 -1.49292 -0.40439)
(-1.68403e-15 -1.48567 -0.148376)
(-2.48645e-15 -1.94285 -0.417085)
(-2.62795e-15 -1.36819 -0.0675063)
(-2.92316e-15 -1.92176 -0.393321)
(-2.17091e-15 -1.77103 -0.113341)
(-2.01246e-15 -1.42097 0.0330277)
(-2.96171e-15 -1.84465 -0.215874)
(-2.57567e-15 -1.74393 -0.0699998)
(-1.95739e-15 -1.5364 0.0455576)
(-2.78723e-15 -2.07033 -0.0919219)
(-1.56793e-15 -1.41796 0.0289132)
(-2.07323e-15 -1.94258 -0.0779108)
(-1.78452e-15 -1.82731 -0.0648976)
(-1.31316e-15 -1.59825 0.00181721)
(-1.59087e-15 -2.16026 -0.0565579)
(-1.41691e-15 -1.53184 -0.0154067)
(-1.90683e-15 -2.14325 -0.0562092)
(-1.29749e-15 -1.99949 -0.090547)
(-8.33156e-16 -1.54272 -0.0465879)
(-9.13199e-16 -2.03822 -0.102533)
(-4.16197e-16 -1.9133 -0.141814)
(-1.16742e-15 -1.64275 -0.0946162)
(-1.08261e-15 -2.19525 -0.132485)
(-8.54909e-16 -1.42773 -0.120509)
(-1.20179e-15 -1.95593 -0.152008)
(-1.05086e-15 -1.78844 -0.208918)
(-6.21334e-16 -1.51789 -0.172788)
(-9.19184e-16 -2.06291 -0.200986)
(-6.11742e-16 -1.35792 -0.200647)
(-9.92821e-16 -1.90807 -0.226526)
(1.18637e-16 -1.71549 -0.292072)
(-3.41884e-17 -1.20533 -0.259425)
(2.69141e-16 -1.58829 -0.318539)
(1.34667e-15 -1.44666 -0.390499)
(-3.6465e-16 -1.17215 -0.320681)
(-5.2846e-16 -1.62771 -0.350273)
(-4.23278e-16 -0.894656 -0.351053)
(-5.13643e-16 -1.26744 -0.352904)
(-2.3638e-15 -1.18557 -0.472443)
(-1.4562e-15 -0.943828 -0.437793)
(2.95773e-16 -1.29171 -0.450591)
(-7.45122e-16 -0.488363 -0.512779)
(-8.4639e-16 -0.876666 -0.49304)
(-3.88684e-16 -0.880428 -0.635481)
(-3.55891e-16 -0.352873 -0.624306)
(-1.5155e-16 -0.480279 -0.563096)
(8.8598e-17 -0.560219 -0.688173)
(-7.86061e-17 -0.632376 -0.761332)
(-6.78803e-16 -0.865034 -0.671578)
(-3.45685e-17 -0.128113 -0.804791)
(-1.63631e-15 0.120508 -0.830198)
(-7.02007e-16 0.088301 -0.978739)
(2.99419e-17 0.050831 -0.926533)
(2.86218e-15 -0.185418 -1.00837)
(-4.7895e-17 -0.0457099 -0.879929)
(-1.04505e-16 0.272 -1.01997)
(-3.28265e-16 0.600854 -1.22449)
(-1.8348e-16 0.517575 -0.888653)
(1.14717e-15 0.724783 -1.09657)
(-1.15432e-15 1.19457 -1.27659)
(4.13723e-17 0.933113 -0.893701)
(-1.14228e-15 1.36572 -1.20656)
(-2.18346e-16 1.17725 -0.888485)
(-4.405e-16 1.53693 -1.11416)
(1.12276e-16 2.09472 -1.28163)
(-4.03901e-16 1.56515 -0.873162)
(-6.53158e-16 2.34477 -1.20633)
(-5.55038e-16 1.90449 -0.869751)
(-7.25028e-16 2.3994 -1.10559)
(-4.08331e-16 2.96588 -1.2538)
(-3.67378e-16 2.27905 -0.858546)
(-6.08528e-16 2.88054 -1.07518)
(-3.86437e-16 3.53698 -1.20388)
(-2.89763e-16 2.57092 -0.822663)
(-2.15522e-16 3.8197 -1.11563)
(-2.72649e-16 2.85284 -0.81148)
(-2.52756e-16 4.07975 -1.0972)
(-5.25366e-16 1.2509 4.12525)
(-5.12799e-16 1.25822 3.99709)
(-4.2406e-16 1.01064 3.76403)
(-3.22602e-16 0.81174 3.40346)
(-2.11208e-16 0.583248 2.91125)
(-1.24823e-16 0.463008 2.38925)
(-8.49404e-17 0.474684 1.92148)
(-8.26864e-17 1.02272 1.83379)
(-7.50219e-17 1.29451 1.80584)
(-6.96926e-17 0.984954 1.85675)
(-6.3517e-17 0.111393 1.20398)
(-6.29546e-17 1.05928 1.20048)
(-5.98537e-17 0.156784 1.18972)
(-6.31937e-17 0.607183 1.43658)
(-6.01841e-17 -0.368017 1.31484)
(-5.4751e-17 -0.418695 1.33039)
(-4.78913e-17 -1.7448 1.17355)
(-1.23077e-16 -2.1389 0.841482)
(-1.31911e-15 2.74441 0.990557)
(-5.4971e-16 1.88354 0.739998)
(-1.05296e-15 0.758221 1.84573)
(-1.01654e-15 1.03294 2.07008)
(-1.86753e-15 0.62638 2.82302)
(-2.18614e-15 0.23858 2.94728)
(-2.81785e-15 0.287026 3.37943)
(-2.63764e-15 0.322274 3.30854)
(-2.32254e-15 0.036508 3.33165)
(-2.05137e-15 -0.39673 3.21203)
(-2.5616e-15 -0.49143 3.53318)
(-4.08165e-15 -0.79838 4.27899)
(-4.41406e-15 -0.393816 4.76267)
(-4.67083e-15 -0.747085 5.02736)
(-4.7623e-15 -1.44263 5.31436)
(-4.91057e-15 -1.64725 5.44322)
(-5.53127e-15 -2.01447 5.71524)
(-6.01125e-15 -2.54875 6.23804)
(-6.07266e-15 -3.33553 6.83434)
(-5.76991e-15 -4.35643 7.39468)
(-5.38337e-15 -5.40414 7.97776)
(-5.26016e-15 -6.3144 8.40737)
(-5.38354e-15 -7.55023 8.84983)
(-5.55848e-15 -8.36713 9.4179)
(-5.70698e-15 -9.06879 9.90447)
(-5.79692e-15 -9.57753 10.1677)
(-5.72249e-15 -10.0798 10.2896)
(-5.40742e-15 -9.97711 10.1897)
(-4.78764e-15 -8.76513 9.72747)
(-3.2405e-15 -3.38428 7.62982)
(1.42882e-15 6.59258 -1.04589)
(2.57925e-16 4.18254 2.7475)
(1.17739e-16 1.74982 4.8815)
(3.07569e-16 -2.11776 5.11581)
(5.11769e-16 -4.64994 5.68128)
(9.61295e-16 -6.36297 6.64833)
(1.64139e-15 -7.70661 7.88911)
(2.23153e-15 -8.89781 9.22885)
(2.53608e-15 -9.3751 10.2743)
(2.68368e-15 -8.5467 11.027)
(2.4575e-15 -6.58512 12.2506)
(8.482e-16 -4.40216 14.786)
(-1.7564e-15 -2.33974 17.3805)
(-2.81522e-15 -0.236017 18.5695)
(-2.66585e-15 1.97255 19.0219)
(-2.88314e-15 4.80844 19.3438)
(-3.16082e-15 7.42912 19.6999)
(-3.39259e-15 9.23557 19.5304)
(-3.1493e-15 8.8134 17.4471)
(-1.74131e-15 4.1288 11.1175)
(7.74105e-16 -3.2153 0.656771)
(5.96282e-16 -3.58952 0.913316)
(9.18771e-16 -4.01218 -1.2431)
(6.3559e-16 -0.334611 -0.094596)
(7.89838e-16 1.19277 0.15239)
(1.24726e-15 -2.52057 -0.0526127)
(1.57941e-15 -0.441097 -0.835807)
(1.76416e-15 4.37371 -0.791187)
(2.9811e-16 -0.00596919 -0.803776)
(-1.73298e-17 -0.790824 -0.886787)
(-1.06864e-16 1.53725 -1.26595)
(-6.16482e-16 0.968586 4.39248)
(-6.04228e-16 0.862561 4.25713)
(-5.21784e-16 0.571787 4.07998)
(-4.18034e-16 0.27097 3.716)
(-2.90565e-16 -0.160269 3.23351)
(-1.73749e-16 -0.549126 2.699)
(-9.75573e-17 -0.780023 2.13409)
(-6.64853e-17 -0.547888 1.61456)
(-6.49054e-17 0.219666 1.72982)
(-6.29864e-17 -0.299823 1.97576)
(-6.07929e-17 -0.608893 1.25911)
(-6.18448e-17 0.737433 1.12121)
(-5.25339e-17 -0.861033 1.10084)
(-6.21549e-17 0.191761 1.42212)
(-5.28643e-17 -0.682567 1.60878)
(-3.95054e-17 -0.764464 1.55186)
(-3.22105e-17 -1.74653 1.33443)
(-1.92077e-16 -1.66938 0.804977)
(-1.50052e-15 1.93454 1.03313)
(-6.54679e-16 1.37272 0.969636)
(-1.43387e-15 -0.512009 2.23878)
(-1.81806e-15 0.129971 2.8679)
(-2.55976e-15 -0.303589 3.40724)
(-2.90735e-15 -0.495159 3.47034)
(-3.13608e-15 -0.709873 3.55193)
(-2.78375e-15 -0.560803 3.41898)
(-2.41148e-15 -0.489773 3.37458)
(-2.27554e-15 -0.608714 3.34856)
(-3.13372e-15 -0.734902 3.89971)
(-4.33758e-15 -0.984172 4.5185)
(-4.66955e-15 -0.88656 4.88131)
(-4.71784e-15 -1.27417 5.13827)
(-4.83844e-15 -1.76854 5.34286)
(-5.1571e-15 -2.03171 5.49296)
(-5.72587e-15 -2.45571 5.85564)
(-6.05722e-15 -3.02367 6.41218)
(-6.00227e-15 -3.82128 7.01239)
(-5.67118e-15 -4.80227 7.57997)
(-5.34107e-15 -5.77759 8.12648)
(-5.27429e-15 -6.62601 8.57303)
(-5.41292e-15 -7.734 9.03659)
(-5.58541e-15 -8.42294 9.559)
(-5.72735e-15 -9.00173 9.98273)
(-5.79768e-15 -9.46195 10.2433)
(-5.69435e-15 -9.83985 10.3784)
(-5.34551e-15 -9.52743 10.2495)
(-4.61514e-15 -7.6796 9.45994)
(-2.56576e-15 -1.10464 5.88053)
(1.40226e-15 2.43824 -1.39879)
(1.53552e-16 1.58897 2.96685)
(1.6418e-16 0.612001 4.63233)
(3.54503e-16 -2.80211 5.18433)
(5.77787e-16 -5.11547 5.88933)
(1.06046e-15 -6.75807 6.86818)
(1.73682e-15 -8.09059 8.14215)
(2.29007e-15 -9.17687 9.50144)
(2.57541e-15 -9.40672 10.5259)
(2.65629e-15 -8.33518 11.3037)
(2.03106e-15 -6.37419 12.787)
(-1.26294e-16 -4.40639 15.506)
(-2.33758e-15 -2.5128 17.6743)
(-2.61039e-15 -0.54224 18.3671)
(-2.48971e-15 1.90104 18.711)
(-2.73718e-15 4.70608 19.1554)
(-3.05444e-15 7.39813 19.7379)
(-3.4319e-15 9.55733 20.0472)
(-3.47773e-15 10.015 18.9257)
(-2.45479e-15 6.65243 14.0233)
(6.64042e-17 -0.896311 3.68555)
(6.76934e-16 -3.33224 0.626686)
(9.30553e-16 -3.49534 -1.26844)
(6.52206e-16 0.487548 -0.531203)
(7.64257e-16 2.92429 0.0267801)
(1.22324e-15 -1.88293 -0.162683)
(1.5467e-15 -0.255366 -0.931441)
(1.70358e-15 1.0363 -0.866306)
(4.0102e-16 0.449433 -0.840068)
(2.39907e-18 -0.548704 -0.905897)
(-7.77858e-17 0.2663 -1.29854)
(-6.92984e-16 0.98333 4.62988)
(-6.88284e-16 0.972535 4.48839)
(-6.14639e-16 0.759459 4.30229)
(-5.12194e-16 0.514908 3.95856)
(-3.74958e-16 0.136386 3.52069)
(-2.35054e-16 -0.248727 3.03451)
(-1.28261e-16 -0.551824 2.49405)
(-6.96882e-17 -0.575671 1.94445)
(-5.69686e-17 -0.206215 1.85542)
(-5.18644e-17 -0.204543 1.97089)
(-5.29e-17 -0.57163 1.32648)
(-5.55165e-17 0.18995 1.12621)
(-4.40298e-17 -0.930104 1.24119)
(-5.83815e-17 -0.366486 1.37732)
(-4.32451e-17 -0.51368 1.67847)
(-2.32196e-17 -0.933811 1.7171)
(-2.27332e-17 -1.70051 1.4109)
(-2.65204e-16 -1.37603 0.834259)
(-1.6027e-15 1.93856 0.955955)
(-9.15111e-16 0.0401577 0.833323)
(-1.78201e-15 -0.761919 2.60235)
(-2.43209e-15 -0.378177 3.29571)
(-3.13239e-15 -0.110395 3.6965)
(-3.42035e-15 -0.366137 3.72665)
(-3.43425e-15 -0.61342 3.59816)
(-3.12184e-15 -0.823781 3.5339)
(-2.83343e-15 -0.836528 3.52042)
(-2.82752e-15 -0.916529 3.58846)
(-3.67151e-15 -0.930334 4.20921)
(-4.62145e-15 -1.11932 4.82196)
(-4.87617e-15 -1.14154 5.10091)
(-4.85506e-15 -1.42493 5.23009)
(-5.03868e-15 -1.80086 5.38254)
(-5.47615e-15 -2.1031 5.62723)
(-5.91601e-15 -2.5805 6.06642)
(-6.06281e-15 -3.21728 6.61103)
(-5.89489e-15 -4.06821 7.16964)
(-5.55813e-15 -5.06728 7.72527)
(-5.30309e-15 -5.98255 8.27339)
(-5.29794e-15 -6.78377 8.7514)
(-5.45025e-15 -7.84836 9.24429)
(-5.61826e-15 -8.47952 9.74146)
(-5.74977e-15 -9.03005 10.0974)
(-5.79364e-15 -9.47451 10.336)
(-5.65179e-15 -9.78875 10.4592)
(-5.24419e-15 -9.31123 10.2531)
(-4.32637e-15 -6.8627 9.04809)
(-1.75977e-15 0.191081 4.19739)
(1.39224e-15 2.14826 -0.834771)
(1.50884e-16 1.30367 2.8897)
(2.25296e-16 -0.131477 4.31605)
(4.16828e-16 -2.98849 5.14022)
(6.67449e-16 -5.25692 6.03689)
(1.185e-15 -6.96751 7.07591)
(1.8496e-15 -8.37125 8.38971)
(2.36053e-15 -9.42775 9.74457)
(2.61705e-15 -9.55344 10.7599)
(2.5512e-15 -8.46183 11.6851)
(1.42021e-15 -6.67389 13.5245)
(-1.04441e-15 -4.84261 16.1595)
(-2.59399e-15 -2.85478 17.6323)
(-2.3815e-15 -0.667493 18.0676)
(-2.39273e-15 1.84395 18.5148)
(-2.61116e-15 4.61504 18.9647)
(-2.95611e-15 7.31709 19.6462)
(-3.40831e-15 9.6048 20.181)
(-3.63854e-15 10.489 19.6122)
(-2.94257e-15 8.03917 15.8489)
(-6.0624e-16 1.07362 6.4143)
(1.06729e-15 -3.35792 -0.729899)
(9.5834e-16 -3.45038 -1.17616)
(6.49572e-16 0.0723864 -0.547004)
(7.3428e-16 2.60471 -0.175506)
(1.18737e-15 -1.53328 -0.316906)
(1.50678e-15 -0.30378 -1.04162)
(1.65891e-15 1.05023 -0.974194)
(4.87304e-16 0.702342 -0.885667)
(3.17433e-17 -0.203514 -1.0488)
(-4.23041e-17 0.487481 -1.33231)
(-7.77568e-16 0.961001 4.86817)
(-7.86726e-16 0.952602 4.72549)
(-7.25047e-16 0.760967 4.54363)
(-6.2898e-16 0.574103 4.23364)
(-4.87374e-16 0.28275 3.84592)
(-3.27048e-16 -0.0199967 3.41816)
(-1.86177e-16 -0.248087 2.93572)
(-8.95448e-17 -0.28084 2.42219)
(-4.79505e-17 -0.0571468 2.19192)
(-3.8505e-17 -0.0321913 2.15013)
(-3.76861e-17 -0.35432 1.56134)
(-3.99084e-17 0.0462207 1.28876)
(-3.39821e-17 -0.590865 1.50252)
(-5.10651e-17 -0.417201 1.47803)
(-3.02212e-17 -0.420965 1.83752)
(-6.34731e-18 -0.921756 1.86411)
(-1.81079e-17 -1.54105 1.45899)
(-3.36985e-16 -1.04494 0.886864)
(-1.72436e-15 1.839 1.01337)
(-1.08119e-15 0.0597623 0.628362)
(-1.84444e-15 -0.637024 2.47368)
(-2.71648e-15 -0.228354 3.36197)
(-3.50061e-15 0.162498 3.81063)
(-3.82246e-15 -0.0354606 3.87481)
(-3.78746e-15 -0.434797 3.71169)
(-3.53593e-15 -0.756266 3.69345)
(-3.35782e-15 -0.838345 3.77615)
(-3.45229e-15 -0.976596 3.95897)
(-4.15379e-15 -0.985415 4.56932)
(-4.87161e-15 -1.14228 5.10161)
(-5.05318e-15 -1.21069 5.27784)
(-5.0873e-15 -1.46648 5.34241)
(-5.34237e-15 -1.7864 5.51215)
(-5.76701e-15 -2.1361 5.84859)
(-6.02681e-15 -2.65788 6.3074)
(-6.00629e-15 -3.33557 6.80791)
(-5.76583e-15 -4.18845 7.31688)
(-5.45679e-15 -5.13648 7.86107)
(-5.28199e-15 -5.99715 8.43538)
(-5.32923e-15 -6.80391 8.94338)
(-5.48987e-15 -7.83936 9.45201)
(-5.65155e-15 -8.48791 9.92405)
(-5.76923e-15 -9.0192 10.218)
(-5.783e-15 -9.44688 10.4315)
(-5.59859e-15 -9.69598 10.5305)
(-5.11639e-15 -9.03311 10.2051)
(-3.95299e-15 -6.00937 8.47885)
(-7.94178e-16 1.18945 2.37862)
(1.16189e-15 1.69944 0.000368894)
(1.55714e-16 0.578506 2.72286)
(2.91424e-16 -0.576878 4.08653)
(4.85452e-16 -3.15898 5.14427)
(7.69602e-16 -5.3779 6.17403)
(1.31527e-15 -7.13323 7.27731)
(1.96095e-15 -8.57803 8.62273)
(2.43201e-15 -9.58532 9.95639)
(2.64425e-15 -9.63212 10.9748)
(2.35553e-15 -8.60523 12.0944)
(7.50618e-16 -7.04634 14.1807)
(-1.69888e-15 -5.30648 16.4712)
(-2.56574e-15 -3.19398 17.364)
(-2.17725e-15 -0.847969 17.7674)
(-2.26955e-15 1.72085 18.2317)
(-2.45564e-15 4.47837 18.6929)
(-2.81853e-15 7.18716 19.4471)
(-3.33386e-15 9.60332 20.1818)
(-3.73923e-15 10.9143 20.1107)
(-3.36876e-15 9.37727 17.3686)
(-1.30825e-15 3.14839 9.06486)
(1.55489e-15 -3.54933 -2.31559)
(9.5503e-16 -3.43591 -1.04601)
(6.48783e-16 -0.116947 -0.531593)
(7.04212e-16 2.70808 -0.280549)
(1.14527e-15 -1.11823 -0.429645)
(1.46201e-15 -0.348369 -1.10081)
(1.62585e-15 0.559661 -1.18419)
(5.64261e-16 0.795783 -0.972152)
(6.74699e-17 -0.00547735 -1.13628)
(6.86663e-18 0.483413 -1.60289)
(-8.69913e-16 0.93207 5.10275)
(-8.96042e-16 0.933119 4.97782)
(-8.50417e-16 0.774593 4.79989)
(-7.67189e-16 0.61782 4.51618)
(-6.29921e-16 0.373578 4.17582)
(-4.57838e-16 0.130204 3.80417)
(-2.86973e-16 -0.0558232 3.38652)
(-1.48437e-16 -0.113468 2.93177)
(-6.60954e-17 -0.000546358 2.65186)
(-3.54973e-17 0.000102735 2.48311)
(-2.25479e-17 -0.200642 1.94746)
(-2.00979e-17 0.0209522 1.63764)
(-1.92377e-17 -0.449343 1.80538)
(-3.67203e-17 -0.332376 1.7696)
(-1.40634e-17 -0.326919 2.0819)
(8.46645e-18 -0.789733 2.02387)
(-2.39436e-17 -1.28383 1.53382)
(-4.30599e-16 -0.682619 0.972015)
(-1.84484e-15 1.54585 1.18903)
(-1.17025e-15 0.195595 0.650372)
(-1.79307e-15 -0.535122 2.20065)
(-2.81669e-15 -0.127519 3.26472)
(-3.76295e-15 0.248227 3.85548)
(-4.1656e-15 0.0258131 4.01754)
(-4.18677e-15 -0.361216 3.92436)
(-3.97388e-15 -0.640026 3.94097)
(-3.86921e-15 -0.770983 4.10558)
(-3.99855e-15 -0.935888 4.34984)
(-4.5346e-15 -0.971494 4.88458)
(-5.07979e-15 -1.14218 5.31765)
(-5.26389e-15 -1.26477 5.43045)
(-5.37852e-15 -1.49336 5.48982)
(-5.65081e-15 -1.80171 5.71057)
(-5.96129e-15 -2.18922 6.0954)
(-6.04539e-15 -2.73081 6.53539)
(-5.90115e-15 -3.41165 6.98787)
(-5.63262e-15 -4.23243 7.4652)
(-5.37723e-15 -5.12028 8.00917)
(-5.27932e-15 -5.96758 8.61519)
(-5.36613e-15 -6.82583 9.14442)
(-5.52985e-15 -7.81842 9.6502)
(-5.68347e-15 -8.51235 10.093)
(-5.78428e-15 -9.04827 10.339)
(-5.76564e-15 -9.45091 10.5279)
(-5.53578e-15 -9.62656 10.5837)
(-4.95561e-15 -8.73561 10.0729)
(-3.44278e-15 -5.11366 7.64533)
(5.9437e-16 2.13235 -0.0184362)
(9.52397e-16 1.5925 0.545368)
(1.85395e-16 0.0260018 2.54762)
(3.60989e-16 -0.943603 3.96658)
(5.60038e-16 -3.35407 5.18367)
(8.8003e-16 -5.53548 6.30415)
(1.44487e-15 -7.32241 7.47112)
(2.06671e-15 -8.79265 8.83417)
(2.5005e-15 -9.75267 10.135)
(2.64352e-15 -9.76243 11.1743)
(2.07553e-15 -8.85207 12.4944)
(1.04216e-16 -7.47906 14.6669)
(-2.09324e-15 -5.70825 16.4902)
(-2.39524e-15 -3.41387 17.0119)
(-2.01117e-15 -0.952945 17.474)
(-2.13158e-15 1.61245 17.9145)
(-2.28972e-15 4.33463 18.3802)
(-2.6567e-15 7.02988 19.1681)
(-3.21343e-15 9.52133 20.0394)
(-3.76533e-15 11.1525 20.3625)
(-3.7058e-15 10.4048 18.5133)
(-2.0419e-15 5.22237 11.6169)
(1.36028e-15 -3.04265 -1.48645)
(9.16897e-16 -3.31939 -0.899058)
(6.85352e-16 -0.218987 -0.621626)
(6.7884e-16 2.93526 -0.349213)
(1.09853e-15 -0.625847 -0.518859)
(1.4087e-15 -0.287905 -1.14075)
(1.56832e-15 0.541162 -1.33455)
(6.45587e-16 0.806636 -1.11181)
(1.16609e-16 0.152944 -1.22204)
(8.19181e-17 0.509548 -1.43482)
(-9.69555e-16 0.911187 5.32844)
(-1.01431e-15 0.914363 5.22432)
(-9.88663e-16 0.767029 5.06109)
(-9.24841e-16 0.624543 4.81027)
(-8.02343e-16 0.419084 4.51395)
(-6.31774e-16 0.219501 4.18705)
(-4.41847e-16 0.0573782 3.82212)
(-2.64462e-16 -0.0161576 3.41889)
(-1.32357e-16 0.022223 3.11636)
(-5.8897e-17 -0.0340423 2.87171)
(-1.59655e-17 -0.18003 2.38969)
(3.14454e-18 -0.0392662 2.07665)
(6.89135e-18 -0.343508 2.17049)
(-1.43256e-17 -0.262733 2.15466)
(2.19564e-18 -0.279181 2.34049)
(1.63452e-17 -0.642097 2.16945)
(-4.10038e-17 -1.01488 1.6132)
(-5.4961e-16 -0.400773 1.10173)
(-1.96615e-15 1.2947 1.38552)
(-1.30987e-15 0.2016 0.872793)
(-1.74182e-15 -0.460136 1.98908)
(-2.86825e-15 -0.0880241 3.14238)
(-4.00888e-15 0.267735 3.90325)
(-4.48887e-15 0.0302622 4.15824)
(-4.56752e-15 -0.333398 4.14495)
(-4.37043e-15 -0.549873 4.18496)
(-4.29763e-15 -0.703869 4.38849)
(-4.442e-15 -0.876888 4.6618)
(-4.85559e-15 -0.957646 5.11747)
(-5.27937e-15 -1.15746 5.46176)
(-5.46775e-15 -1.32705 5.54883)
(-5.64183e-15 -1.53947 5.64932)
(-5.87823e-15 -1.84079 5.9194)
(-6.04345e-15 -2.25301 6.31682)
(-5.99008e-15 -2.79643 6.72963)
(-5.77199e-15 -3.46249 7.14936)
(-5.51155e-15 -4.24841 7.61694)
(-5.3232e-15 -5.10998 8.17384)
(-5.293e-15 -5.98356 8.80816)
(-5.40686e-15 -6.90234 9.35095)
(-5.56936e-15 -7.83461 9.84041)
(-5.71315e-15 -8.55517 10.2457)
(-5.79425e-15 -9.10783 10.4566)
(-5.74117e-15 -9.48784 10.6216)
(-5.46016e-15 -9.57802 10.6099)
(-4.74829e-15 -8.40554 9.84004)
(-2.79764e-15 -4.14472 6.58778)
(2.11813e-15 3.06601 -2.18582)
(8.49873e-16 1.40998 0.757025)
(2.32269e-16 -0.475712 2.3514)
(4.33011e-16 -1.36369 3.92976)
(6.4131e-16 -3.60009 5.24721)
(9.95688e-16 -5.73621 6.43149)
(1.57129e-15 -7.54486 7.6531)
(2.16633e-15 -9.0343 9.01771)
(2.56197e-15 -9.95585 10.2813)
(2.60268e-15 -9.96904 11.3636)