/*--------------------------------*- C++ -*----------------------------------*\
| =========                 |                                                 |
| \\      /  F ield         | OpenFOAM: The Open Source CFD Toolbox           |
|  \\    /   O peration     | Version:  4.1                                   |
|   \\  /    A nd           | Web:      www.OpenFOAM.org                      |
|    \\/     M anipulation  |                                                 |
\*---------------------------------------------------------------------------*/
FoamFile
{
    version     2.0;
    format      ascii;
    class       volVectorField;
    location    "16";
    object      U;
}
// * * * * * * * * * * * * * * * * * * * * * * * * * * * * * * * * * * * * * //

dimensions      [0 1 -1 0 0 0 0];

internalField   nonuniform List<vector> 
6785
(
(1.13075e-13 -0.596205 16.0445)
(1.33691e-13 -6.5301 12.4234)
(-4.33748e-14 -4.78307 12.7509)
(4.3204e-14 -4.27061 12.5216)
(2.11289e-14 -3.68257 12.3481)
(-3.3412e-14 -3.23435 12.1206)
(5.93249e-14 -2.87468 11.8573)
(2.10166e-14 -2.61829 11.5419)
(-1.81578e-14 -2.45927 11.1659)
(6.90724e-14 -2.35811 10.7478)
(1.18044e-14 -2.31089 10.3172)
(-4.03536e-14 -2.51935 9.78988)
(6.61251e-14 -3.00453 9.06093)
(-3.41807e-15 -2.29093 8.55011)
(-1.32726e-13 1.27836 7.53407)
(3.45164e-13 -7.32294 25.9362)
(1.98298e-13 -16.573 21.5585)
(-2.87315e-14 -11.6567 22.033)
(2.18469e-13 -11.8813 20.6398)
(1.12351e-14 -10.9394 19.644)
(4.53708e-14 -10.2141 18.5901)
(2.19575e-13 -9.4654 17.5318)
(1.74446e-14 -8.7288 16.4459)
(8.87654e-14 -8.02849 15.3571)
(2.33465e-13 -7.41708 14.4247)
(7.74323e-14 -6.95625 13.8127)
(2.2479e-13 -6.78594 13.1377)
(3.72497e-13 -6.85991 11.5843)
(-3.42147e-14 -6.15247 9.18117)
(-1.77569e-13 -3.0373 5.35886)
(1.2282e-13 -10.2807 27.9808)
(2.01505e-13 -17.5898 24.3605)
(-4.39501e-14 -11.886 24.8597)
(2.69936e-14 -12.5977 22.7702)
(2.53778e-14 -11.0467 21.6501)
(-1.80299e-14 -10.1655 20.2489)
(-4.45774e-14 -9.17445 18.9131)
(3.76118e-14 -8.24996 17.5943)
(-3.38323e-14 -7.34418 16.2865)
(-1.15311e-13 -6.27387 14.6899)
(-9.32983e-14 -4.63027 11.9496)
(-4.46087e-13 -2.23013 7.38912)
(-7.07836e-13 -0.0757956 2.83074)
(-2.99355e-13 -0.223095 2.02636)
(-5.66679e-15 -1.86439 3.41189)
(2.52476e-13 -11.4758 27.7487)
(8.99949e-14 -17.512 24.3346)
(1.75805e-14 -11.9363 24.933)
(-2.13165e-14 -13.4201 22.277)
(-6.39596e-14 -11.4628 21.2868)
(5.32877e-14 -10.9074 19.6451)
(-1.01557e-13 -9.9386 18.2727)
(-6.69131e-14 -9.15918 16.9008)
(7.30238e-14 -8.38622 15.6097)
(-1.73637e-13 -7.43763 14.027)
(-3.11084e-13 -5.66696 11.0643)
(-3.58501e-13 -2.20603 5.2175)
(-1.4183e-12 2.88338 -2.31057)
(-1.51454e-12 4.43466 -4.39358)
(1.76507e-12 1.75455 -2.96475)
(1.60884e-13 -11.779 26.7461)
(-7.73449e-14 -17.6822 25.0839)
(-4.29287e-14 -12.3829 24.953)
(-1.58948e-13 -13.9872 22.1205)
(-2.89586e-13 -11.9863 21.1709)
(-2.8023e-14 -11.5711 19.4328)
(-2.11796e-13 -10.6786 18.0038)
(-4.13143e-13 -9.94384 16.5681)
(-8.71955e-14 -9.24227 15.2162)
(-2.19159e-13 -8.4949 13.7914)
(-5.48587e-13 -7.35794 11.7339)
(-5.49738e-13 -5.2095 8.21634)
(-7.92098e-13 -2.1539 3.61418)
(-2.18056e-12 1.09319 0.436338)
(1.87971e-12 1.3273 -3.84291)
(2.71107e-13 -11.6282 25.1318)
(-9.59433e-15 -17.6071 25.6636)
(2.75387e-14 -12.6064 24.7549)
(-1.81971e-13 -13.8945 21.8477)
(-2.69443e-13 -11.9166 20.9037)
(8.69869e-14 -11.5015 19.1219)
(-2.1909e-13 -10.5805 17.666)
(-3.52099e-13 -9.79638 16.1917)
(-1.97649e-15 -9.05456 14.7834)
(-1.57787e-13 -8.31827 13.402)
(-4.05457e-13 -7.46289 11.7825)
(-2.59038e-13 -6.07678 9.47846)
(-4.14871e-13 -4.12556 6.16514)
(-7.43637e-13 -1.24757 2.50781)
(2.66223e-12 0.435478 -2.91167)
(5.20982e-13 -11.2924 23.3957)
(9.05522e-14 -17.3112 25.8948)
(2.91712e-13 -12.6708 24.4652)
(-1.63189e-13 -13.6038 21.4715)
(-2.01698e-13 -11.6451 20.5354)
(2.59927e-13 -11.2497 18.7242)
(-1.8425e-13 -10.2744 17.2821)
(-2.22918e-13 -9.46589 15.7887)
(3.65251e-13 -8.68427 14.3444)
(-9.07844e-14 -7.9145 12.9582)
(-2.60121e-13 -7.14084 11.5011)
(2.73811e-13 -6.08785 9.74035)
(-1.56357e-13 -4.66882 7.17075)
(-1.00907e-12 -2.26958 3.79853)
(1.29983e-12 -0.141664 -1.738)
(4.04183e-13 -10.955 21.9578)
(1.4097e-13 -16.9259 25.9686)
(2.63482e-13 -12.7966 24.2866)
(-1.46325e-13 -13.3352 21.2451)
(-1.60709e-13 -11.4696 20.2591)
(2.32291e-13 -11.0638 18.4698)
(-8.08951e-14 -10.0658 17.0375)
(-2.51379e-13 -9.24215 15.5328)
(1.78946e-13 -8.43727 14.0817)
(1.62245e-15 -7.64241 12.6981)
(-1.79154e-13 -6.88236 11.3057)
(6.71336e-14 -5.96522 9.79197)
(8.74609e-14 -4.8325 7.69145)
(-7.6615e-13 -2.78581 4.77522)
(-2.07344e-12 -0.393644 -0.963143)
(3.66544e-13 -10.6117 20.7645)
(1.65979e-13 -16.4632 25.7618)
(5.04067e-14 -13.0222 24.1319)
(-5.02187e-14 -13.1398 21.1)
(-1.70733e-13 -11.5252 19.9452)
(-3.27045e-14 -11.0478 18.2794)
(4.46508e-14 -10.1753 16.8579)
(-1.3226e-13 -9.36846 15.3902)
(-2.11027e-13 -8.55792 13.932)
(6.45902e-14 -7.73114 12.5352)
(9.77507e-15 -6.92582 11.1437)
(-3.54416e-13 -6.02409 9.72037)
(3.14313e-14 -5.03422 7.94074)
(-3.91042e-13 -3.28001 5.57243)
(-2.28546e-12 -0.820973 0.00590717)
(1.86248e-13 -10.5457 20.1679)
(1.44535e-13 -15.7685 24.9579)
(1.30376e-14 -12.7776 23.5851)
(-2.02793e-13 -12.7881 20.5695)
(-2.22971e-13 -11.1467 19.4014)
(-1.40594e-13 -10.6998 17.7627)
(-1.10254e-13 -9.87305 16.5243)
(-1.26343e-13 -9.33197 15.4095)
(-2.77412e-13 -8.77408 14.2797)
(-2.0943e-13 -8.14773 13.0836)
(1.1596e-13 -7.52388 11.8998)
(-1.71419e-13 -6.86568 10.75)
(-3.62505e-13 -6.16612 9.42217)
(-9.4638e-14 -4.91251 7.77157)
(-1.22124e-12 -2.77436 3.40137)
(-3.19097e-14 -10.8966 20.3496)
(1.91125e-13 -15.3959 24.5052)
(-3.04231e-13 -12.7062 23.3099)
(-3.38397e-13 -12.8391 20.5647)
(-1.14723e-13 -11.3746 19.5369)
(-4.99931e-13 -11.043 17.7342)
(-3.11141e-13 -9.92664 15.9799)
(5.94616e-14 -8.96166 13.9152)
(-7.04689e-13 -8.29532 12.6092)
(-6.10402e-13 -7.69174 11.4686)
(4.06109e-14 -7.09008 10.3989)
(-4.72668e-13 -6.5291 9.56411)
(-3.40615e-13 -6.1182 8.99076)
(-4.61708e-13 -5.37148 8.37198)
(-1.37592e-12 -3.69101 5.52658)
(-1.00177e-14 -10.3668 18.7588)
(3.03522e-13 -14.7303 23.5353)
(-5.21708e-13 -12.1651 21.9995)
(-3.88819e-13 -11.7497 18.4317)
(-2.65179e-16 -9.43249 16.3799)
(-7.88138e-13 -8.71252 14.4722)
(-3.71829e-13 -7.69233 13.9199)
(-6.33091e-13 -7.34677 13.1515)
(-1.74705e-12 -7.4882 13.0565)
(-1.11003e-12 -8.13355 13.5057)
(-4.12855e-13 -8.57236 13.6476)
(-1.64143e-12 -8.93576 13.5578)
(-1.03799e-12 -9.07969 13.4732)
(-8.94421e-13 -9.07777 13.1522)
(-1.11512e-12 -6.42729 10.4649)
(-1.30532e-13 -11.6679 20.0158)
(1.10619e-13 -14.849 24.2374)
(-4.90355e-13 -12.7403 23.2118)
(-3.39044e-13 -13.3757 23.7138)
(-2.5796e-13 -13.443 24.8361)
(-7.81742e-13 -14.1871 23.4775)
(-5.62205e-13 -14.3168 21.1909)
(-4.0115e-13 -13.3276 15.8484)
(-7.24552e-13 -12.8432 11.382)
(-9.04498e-13 -13.1389 9.31236)
(-7.97224e-13 -12.4522 8.06666)
(-1.07542e-12 -10.9733 7.61935)
(-1.21899e-12 -9.66666 9.02724)
(-1.12346e-12 -10.1948 11.567)
(-1.19424e-12 -9.3224 15.4751)
(-2.28911e-13 -10.8931 23.7094)
(-2.77283e-13 -14.251 30.6398)
(-5.14117e-13 -10.9803 30.0651)
(-4.5997e-13 -6.31269 23.0159)
(-5.13126e-13 1.31161 8.40324)
(-4.76175e-13 8.65649 -8.22623)
(-4.56141e-13 11.286 -16.554)
(-6.02679e-13 8.89213 -16.364)
(-5.5125e-13 4.02274 -10.3152)
(-3.54147e-13 -20.6008 18.9909)
(-7.34324e-13 -23.9721 30.9108)
(-5.7484e-13 -23.9851 37.2229)
(-8.83546e-13 -20.5792 36.2121)
(-1.467e-12 -22.8319 35.5429)
(-1.56219e-12 -17.7507 35.4)
(-3.58429e-13 -35.5219 72.3972)
(-4.84726e-13 -32.0039 63.9015)
(-5.56478e-13 -18.7772 46.2725)
(-5.93667e-13 -3.00519 21.9069)
(-5.90915e-13 13.666 -4.1417)
(-5.06193e-13 22.6142 -15.4948)
(-5.14974e-13 26.1863 -18.7602)
(-5.69061e-13 28.5705 -19.7903)
(-6.61878e-13 28.0797 -16.9044)
(-7.70991e-13 22.9684 -8.17112)
(-8.54289e-13 15.1521 1.31443)
(-9.72783e-13 10.805 4.28608)
(-1.21729e-12 9.18753 1.2748)
(-1.26337e-12 6.54664 -3.47235)
(-7.26137e-13 2.10995 -3.18977)
(-1.05455e-15 0.409001 -0.623844)
(-3.50309e-15 1.33374 -5.6801)
(-3.09071e-15 1.91983 -4.30101)
(-3.17456e-15 2.76308 -4.6955)
(-3.0977e-15 2.84204 -4.67417)
(-4.04074e-15 5.10093 -8.00434)
(-3.30596e-15 4.74374 -5.37471)
(-2.21659e-15 5.68924 -5.53071)
(-5.64842e-15 5.68952 -5.31093)
(2.1985e-14 8.40088 -8.24967)
(2.84852e-14 7.64288 -5.48526)
(2.96942e-14 8.24367 -4.99433)
(3.30197e-14 11.9129 -7.85927)
(2.50861e-14 9.85015 -5.10684)
(2.59289e-14 11.1976 -5.14505)
(2.64633e-14 10.8425 -4.94409)
(2.83329e-14 14.7925 -8.03905)
(2.53548e-14 12.7514 -5.6267)
(2.36605e-14 13.4746 -5.38877)
(2.53512e-14 18.7471 -9.05065)
(1.77518e-14 14.9855 -6.42265)
(1.54267e-14 16.9119 -6.80009)
(1.7935e-14 16.2942 -6.81327)
(2.03667e-14 22.2858 -11.1637)
(1.47527e-14 18.0434 -8.04437)
(1.52475e-14 20.3869 -8.3505)
(1.16985e-14 19.735 -8.25035)
(1.4448e-14 26.0473 -12.9357)
(8.07728e-15 21.8573 -9.39801)
(7.75888e-15 23.0281 -8.82689)
(1.0628e-14 31.3076 -13.6192)
(6.07794e-15 24.5911 -9.55801)
(7.3769e-15 27.4508 -9.54128)
(6.44741e-15 26.5862 -8.9953)
(9.93764e-15 34.5607 -13.5532)
(1.04858e-14 28.6658 -9.42258)
(1.26525e-14 29.9525 -8.46533)
(1.99952e-14 40.2898 -12.628)
(1.89541e-14 31.2984 -8.35357)
(2.12672e-14 34.6813 -7.95073)
(2.51688e-14 33.2452 -7.02464)
(3.59834e-14 43.7446 -10.4659)
(2.96946e-14 34.4788 -6.48809)
(3.08296e-14 38.2171 -5.81052)
(3.03545e-14 36.4924 -4.77596)
(3.99357e-14 46.5608 -7.11651)
(2.83309e-14 37.9651 -3.68545)
(2.55441e-14 39.0094 -2.48064)
(2.97426e-14 51.8882 -3.56521)
(2.16498e-14 39.5633 -0.841005)
(1.87688e-14 43.149 0.0661862)
(1.48983e-14 40.793 1.02609)
(1.43694e-14 53.0377 1.24512)
(7.39122e-15 40.9605 2.73501)
(3.8139e-15 44.7798 3.59828)
(2.3467e-15 42.1298 4.21589)
(-6.67597e-16 53.2876 5.39729)
(-2.01715e-15 42.5171 5.86196)
(-4.32733e-15 43.1733 6.17916)
(-6.94584e-15 57.0007 8.30044)
(-5.51249e-15 42.5148 7.7182)
(-4.96497e-15 45.888 8.16093)
(-5.20968e-15 43.1509 8.12353)
(-1.17761e-15 54.6078 10.8738)
(1.24578e-15 42.8459 9.80628)
(3.67375e-16 43.434 9.46101)
(-1.79323e-15 57.3639 13.3019)
(-7.60668e-15 42.0897 11.3181)
(-1.26339e-14 45.3133 11.5111)
(-1.8769e-14 42.453 10.8845)
(-3.76619e-14 54.641 15.4248)
(-4.09993e-14 40.4942 12.5404)
(-5.1618e-14 44.0692 12.5024)
(-6.00541e-14 41.3345 11.4195)
(-1.04474e-13 51.7534 16.2366)
(-9.85169e-14 39.1879 13.0645)
(-1.04038e-13 40.069 11.6244)
(-1.51081e-13 51.5065 17.5025)
(-1.49336e-13 38.0971 13.3982)
(-8.60704e-14 36.2127 12.3132)
(-2.56914e-13 39.608 12.5036)
(-2.80631e-13 37.6615 11.4189)
(-2.96851e-13 35.523 9.37752)
(-1.6779e-13 45.6183 13.3066)
(-2.80358e-13 36.1055 8.81896)
(-3.25315e-13 35.8731 7.5536)
(-3.47875e-13 35.6274 6.46639)
(-3.41541e-13 35.3581 5.46691)
(-3.30524e-13 35.3395 4.51411)
(-3.21601e-13 34.8552 3.10475)
(-3.09309e-13 35.4863 2.26502)
(-2.94496e-13 33.5776 -0.154351)
(-1.08812e-13 41.4604 2.43176)
(-2.84717e-13 32.5169 -3.41415)
(-2.86521e-13 32.3583 -6.12938)
(-2.97407e-13 32.0641 -8.52242)
(-2.67297e-13 32.1608 -11.7275)
(-2.65875e-13 32.2073 -14.0876)
(-2.54322e-13 32.1305 -18.4156)
(-2.77605e-13 33.3779 -22.417)
(-3.18967e-13 31.8099 -18.8363)
(-2.31931e-13 37.3824 -12.8442)
(-4.04781e-13 29.7051 -9.46973)
(-4.36093e-13 29.3928 -5.64408)
(-4.54196e-13 30.1845 -1.35359)
(-4.60182e-13 30.377 2.41986)
(-4.50539e-13 30.1502 4.79074)
(-4.36781e-13 30.3726 6.33708)
(-4.46071e-13 29.6293 8.68482)
(-4.65566e-13 29.9955 11.1688)
(-4.82645e-13 28.1353 11.7942)
(-4.4219e-13 32.8036 20.4585)
(-5.05315e-13 26.1979 9.22347)
(-5.01316e-13 25.112 7.59399)
(-4.92089e-13 25.2598 7.42761)
(-4.84446e-13 25.0928 8.37153)
(-4.76674e-13 24.9196 9.11079)
(-4.72425e-13 24.3334 10.0449)
(-4.78247e-13 24.526 11.8813)
(-4.82272e-13 22.745 12.9797)
(-4.62165e-13 27.8217 20.7355)
(-5.06725e-13 20.1509 8.8794)
(-4.9428e-13 19.3625 8.5521)
(-4.87116e-13 19.4211 10.7926)
(-4.83471e-13 19.3919 13.4091)
(-4.78762e-13 19.1052 15.6)
(-4.71975e-13 18.4652 17.4414)
(-4.67777e-13 18.6936 18.1372)
(-4.6424e-13 16.9072 20.9626)
(-4.80792e-13 23.6104 26.779)
(-5.0376e-13 14.8605 18.8717)
(-4.64569e-13 14.5425 20.2869)
(-4.31714e-13 14.6503 21.6186)
(-4.16926e-13 14.2539 25.3822)
(-4.06629e-13 14.0679 29.151)
(-3.97732e-13 14.0387 31.4369)
(-3.87748e-13 13.4598 32.9752)
(-3.83907e-13 12.8727 34.1843)
(-3.79441e-13 22.5904 37.4383)
(-3.91432e-13 10.9494 39.1682)
(-3.53873e-13 13.2163 38.9667)
(-3.31034e-13 12.6192 39.1207)
(-3.18011e-13 12.3182 39.4382)
(-3.06137e-13 12.9024 39.5697)
(-2.9669e-13 11.7555 44.5369)
(-2.92318e-13 12.5825 46.4685)
(-2.8223e-13 12.6227 46.8991)
(-2.83727e-13 12.1674 48.9013)
(-2.51644e-13 28.9806 50.9895)
(-2.81405e-13 11.5585 54.5443)
(-2.51381e-13 14.779 51.3205)
(-2.39787e-13 14.1665 49.6664)
(-2.36734e-13 14.8105 49.4578)
(-2.36105e-13 14.7714 49.7029)
(-2.32162e-13 15.3308 51.0112)
(-2.22469e-13 15.4627 53.3785)
(-2.27587e-13 15.2156 57.9407)
(-2.26451e-13 36.5558 59.3196)
(-2.36997e-13 16.2015 64.2715)
(-2.23289e-13 18.2152 60.4835)
(-1.58604e-13 24.6247 44.3124)
(-1.2381e-13 7.77569 31.1374)
(-4.22117e-14 6.73812 -1.15311)
(1.37519e-15 5.58899 -8.25341)
(-7.03812e-15 9.85925 -22.2498)
(-1.01718e-14 6.68769 -14.8724)
(-3.38488e-14 8.52947 -20.1128)
(-6.10342e-14 9.39859 -21.8958)
(-3.68479e-14 6.65493 -11.6654)
(-3.34761e-14 9.76252 -12.5874)
(-1.93082e-14 9.70785 -11.8607)
(-6.06654e-15 7.44294 -5.19275)
(-6.07234e-15 11.3584 -5.26157)
(-3.50304e-15 8.02465 -1.3989)
(-1.82503e-14 10.3451 -0.767325)
(-1.74151e-14 8.57975 0.128479)
(-1.28297e-14 7.56257 1.89904)
(-3.04415e-14 8.17781 3.16938)
(-1.57863e-14 6.34742 3.81996)
(-1.14264e-14 7.51709 6.01805)
(-5.21275e-15 3.51269 5.74738)
(-4.64045e-15 4.12378 4.53153)
(-9.33677e-15 3.87004 7.08052)
(-1.591e-14 -0.087582 5.13126)
(-4.90154e-15 0.0256384 3.20944)
(-5.17175e-15 -1.65689 5.89002)
(-2.5732e-15 -2.41657 3.2928)
(-2.31617e-15 -3.46487 5.98322)
(2.49534e-15 -5.67852 2.56687)
(5.70105e-16 -5.34055 0.373799)
(-6.54621e-16 -5.58389 1.77598)
(-3.10012e-15 -6.04697 -0.322215)
(-8.1921e-15 -4.99461 0.740627)
(-1.06236e-14 -5.30542 -0.51489)
(-1.21216e-15 -4.85979 -2.02149)
(1.82156e-15 -2.17059 -2.85741)
(-3.97662e-15 -0.182223 -4.84002)
(-2.80926e-15 -2.90656 -3.81059)
(7.44308e-16 5.30178 -7.38739)
(1.03457e-15 1.68265 -5.77874)
(1.86566e-15 4.36825 -8.22317)
(1.0871e-14 10.6117 -11.5245)
(8.48597e-15 7.18769 -7.45442)
(8.09626e-15 16.108 -12.1194)
(5.95496e-15 12.2861 -8.81285)
(8.3037e-15 16.6285 -11.977)
(7.83492e-15 22.988 -15.5298)
(5.0678e-15 19.5656 -10.4393)
(7.59871e-15 25.7874 -13.8883)
(1.04307e-14 34.0805 -17.8669)
(6.42482e-15 25.7946 -11.7282)
(1.10898e-14 42.6085 -18.2327)
(7.78262e-15 33.4705 -13.2719)
(8.15985e-15 39.9508 -17.5856)
(5.47721e-15 51.4529 -22.1631)
(2.97104e-15 39.492 -14.5552)
(3.79591e-15 62.3144 -22.0776)
(8.44111e-16 48.4929 -15.8876)
(8.97511e-16 58.1914 -20.9158)
(-2.61171e-16 69.2108 -25.3452)
(-1.21463e-15 56.84 -16.7373)
(-2.43884e-15 71.9616 -21.6845)
(-2.10821e-15 85.2576 -25.7991)
(-3.12113e-15 63.7356 -16.6701)
(-5.81759e-15 98.0029 -24.5272)
(-5.9659e-15 76.0418 -17.1583)
(-8.1235e-15 88.0069 -22.1985)
(-1.41807e-14 105.689 -25.6979)
(-1.2256e-14 79.947 -16.3354)
(-2.05123e-14 120.813 -23.6856)
(-1.78359e-14 92.6835 -16.1531)
(-2.47555e-14 108.111 -21.0146)
(-3.39286e-14 123.751 -23.5789)
(-2.73608e-14 98.8222 -14.5457)
(-3.72219e-14 123.279 -18.6959)
(-5.64672e-14 141.611 -20.3706)
(-4.20525e-14 103.468 -12.3582)
(-7.1249e-14 156.199 -17.7566)
(-5.55094e-14 117.273 -11.3852)
(-9.76046e-14 141.383 -14.5306)
(-1.1393e-15 8.28016 57.9334)
(-1.44351e-15 8.33352 74.3125)
(-1.39702e-15 6.29934 78.5396)
(-1.28381e-15 7.60163 79.564)
(-1.16545e-15 9.02308 78.4568)
(-1.08225e-15 10.9975 76.3771)
(-1.03977e-15 13.1117 73.5803)
(-1.03305e-15 15.4065 70.1977)
(-1.05308e-15 17.8153 66.3057)
(-1.08966e-15 20.3184 62.0103)
(-1.13237e-15 22.87 57.4306)
(-1.17123e-15 25.4306 52.6906)
(-1.19742e-15 27.9521 47.9007)
(-1.20405e-15 30.3976 43.1403)
(-1.1863e-15 32.7331 38.4652)
(-1.14208e-15 34.8994 33.9224)
(-1.07284e-15 36.8349 29.5281)
(-9.83266e-16 38.4623 25.2684)
(-8.8009e-16 39.6956 21.0968)
(-7.70498e-16 40.4363 16.9517)
(-6.6116e-16 40.5563 12.7736)
(-5.56619e-16 39.8961 8.5149)
(-4.6034e-16 38.2544 4.15086)
(-3.80297e-16 35.3732 -0.28616)
(-3.25156e-16 30.9739 -4.6827)
(-2.95409e-16 24.8249 -8.93863)
(-2.85883e-16 16.3734 -12.6344)
(-3.03762e-16 4.93036 -14.9634)
(-4.22828e-16 -9.90938 -15.3716)
(-4.39508e-16 -19.5289 -6.73715)
(-3.84352e-15 -32.5334 -7.34343)
(-4.07295e-15 -44.3285 -1.82678)
(-3.77045e-15 -54.1481 1.66515)
(-3.85692e-15 -62.8722 0.901082)
(-4.27689e-15 -68.626 0.384353)
(-4.95404e-15 -73.2829 -0.608077)
(-5.501e-15 -77.3614 -0.671999)
(-5.58444e-15 -82.8234 -1.52301)
(-5.091e-15 -87.622 -2.3744)
(-4.14695e-15 -82.2222 -4.20498)
(-2.79586e-15 -71.5125 -4.80148)
(-1.59673e-15 -62.7656 -6.05623)
(-5.88369e-16 -53.9218 -6.84875)
(-7.28555e-17 -55.9457 -8.37456)
(4.03838e-17 -68.5661 -10.9036)
(7.84754e-18 -75.8462 -13.8628)
(-6.20519e-17 -65.0178 -15.4512)
(-9.95961e-17 -42.9922 -15.0317)
(-9.602e-17 -22.3742 -14.0102)
(-9.9466e-17 3.87666 -15.6291)
(-8.8405e-17 27.8673 -11.8438)
(-2.55309e-17 9.8347 -12.085)
(7.20548e-19 -45.5322 -17.2852)
(-1.06943e-18 -50.4975 -17.7301)
(-1.15687e-18 -59.6695 -19.723)
(-5.61804e-19 -85.2598 -23.9235)
(-1.65607e-19 -109.053 -27.9047)
(9.68774e-21 -115.569 -29.9678)
(6.76353e-20 -104.449 -30.0087)
(7.83756e-20 -84.1549 -28.7232)
(7.69782e-20 -63.037 -27.2147)
(7.81465e-20 -44.5723 -26.2259)
(8.50289e-20 -28.8205 -26.0226)
(9.82346e-20 -15.3656 -26.6631)
(9.38908e-20 -4.39425 -26.8163)
(2.84223e-20 4.45665 -23.8355)
(6.54629e-19 10.1934 -19.6731)
(-5.34372e-18 13.9126 -17.2013)
(1.73111e-17 18.3512 -16.6863)
(9.32624e-17 25.1252 -15.0048)
(-1.34921e-15 33.6945 -8.56479)
(-4.36906e-15 50.1269 -5.48444)
(-6.58186e-15 65.569 -10.2216)
(-7.99775e-15 74.4218 -18.2837)
(-9.10162e-15 79.517 -26.9595)
(-1.04946e-14 83.7238 -34.104)
(-1.0952e-14 90.075 -39.1897)
(-1.45573e-14 98.3422 -36.862)
(4.27599e-15 103.052 -38.061)
(-1.30371e-15 5.35842 64.9731)
(-1.48653e-15 5.23142 77.9395)
(-1.34518e-15 5.44775 77.9033)
(-1.22151e-15 7.57681 76.9662)
(-1.13336e-15 9.48516 74.5688)
(-1.09642e-15 11.7336 71.6118)
(-1.1009e-15 14.053 68.0665)
(-1.13432e-15 16.5182 64.0565)
(-1.18374e-15 19.066 59.672)
(-1.2369e-15 21.6718 55.0564)
(-1.28231e-15 24.2873 50.3517)
(-1.30985e-15 26.8749 45.6917)
(-1.31165e-15 29.3941 41.179)
(-1.28293e-15 31.8172 36.8668)
(-1.22199e-15 34.1164 32.768)
(-1.13075e-15 36.2388 28.8822)
(-1.01524e-15 38.1321 25.1753)
(-8.84629e-16 39.729 21.586)
(-7.48863e-16 40.9502 18.0268)
(-6.16709e-16 41.6991 14.4094)
(-4.95404e-16 41.8451 10.6615)
(-3.88548e-16 41.224 6.73014)
(-2.97633e-16 39.6232 2.58378)
(-2.29818e-16 36.7678 -1.75212)
(-1.8754e-16 32.3775 -6.19393)
(-1.65824e-16 26.1645 -10.6436)
(-1.59491e-16 17.523 -14.6057)
(-1.73617e-16 5.83867 -17.0446)
(-2.96535e-16 -10.8311 -17.7099)
(-3.73716e-16 -22.1993 -8.49197)
(-3.74973e-15 -34.3897 -7.34466)
(-4.07993e-15 -45.9667 -1.76895)
(-3.77037e-15 -55.0938 1.67098)
(-3.85746e-15 -63.3091 1.01131)
(-4.2773e-15 -68.822 0.574712)
(-4.95382e-15 -73.3404 -0.426953)
(-5.50058e-15 -77.2819 -0.518346)
(-5.58481e-15 -82.5505 -1.3927)
(-5.09349e-15 -87.1616 -2.25621)
(-4.15317e-15 -81.69 -4.08619)
(-2.80694e-15 -70.9069 -4.70821)
(-1.60877e-15 -62.0246 -5.98248)
(-6.00704e-16 -53.0204 -6.78019)
(-7.81599e-17 -54.7847 -8.3194)
(4.06017e-17 -67.3608 -10.9151)
(9.41132e-18 -74.9444 -13.9607)
(-6.0523e-17 -64.7265 -15.5947)
(-9.88149e-17 -43.102 -15.2413)
(-9.67526e-17 -22.5187 -14.162)
(-1.01492e-16 3.722 -16.6175)
(-8.85053e-17 27.3539 -14.6818)
(-3.61648e-17 10.6839 -11.4532)
(1.69247e-19 -43.8365 -17.0613)
(-8.13291e-19 -49.9496 -17.6584)
(-1.16555e-18 -58.4951 -19.4443)
(-5.8316e-19 -83.8029 -23.7618)
(-1.73689e-19 -108.054 -27.9355)
(7.2044e-21 -115.269 -30.0914)
(6.71358e-20 -104.711 -30.1346)
(7.85024e-20 -84.6838 -28.8102)
(7.71254e-20 -63.5512 -27.2491)
(7.79894e-20 -44.9233 -26.1933)
(8.49174e-20 -28.9449 -25.9422)
(9.54609e-20 -15.3982 -26.2825)
(7.77036e-20 -4.7115 -25.0928)
(4.34168e-21 3.59231 -22.2593)
(8.27414e-19 9.346 -19.2288)
(-6.76831e-18 13.5278 -17.5272)
(1.88244e-17 18.0386 -17.2949)
(1.28423e-16 23.8989 -16.2111)
(-1.32977e-15 32.2555 -10.4688)
(-4.64393e-15 50.3783 -6.95417)
(-7.12727e-15 67.5346 -11.8372)
(-8.60561e-15 76.9909 -20.5784)
(-9.64608e-15 81.9371 -29.7685)
(-1.08707e-14 85.5699 -37.0367)
(-1.10503e-14 90.4738 -41.8314)
(-1.3834e-14 97.666 -39.3868)
(1.88454e-15 99.8876 -35.7294)
(-1.34396e-15 4.8781 67.3424)
(-1.4384e-15 5.1771 76.8768)
(-1.29765e-15 6.13376 75.0639)
(-1.21576e-15 8.20134 73.6364)
(-1.17252e-15 10.1238 70.8668)
(-1.17203e-15 12.3995 67.6406)
(-1.20117e-15 14.7656 63.8672)
(-1.24774e-15 17.2686 59.7368)
(-1.29933e-15 19.8333 55.3629)
(-1.34417e-15 22.4315 50.9021)
(-1.37151e-15 25.0167 46.4864)
(-1.37279e-15 27.5574 42.2263)
(-1.3426e-15 30.0217 38.1897)
(-1.27914e-15 32.3909 34.3941)
(-1.18392e-15 34.6425 30.8178)
(-1.06236e-15 36.7275 27.4258)
(-9.23386e-16 38.5981 24.1539)
(-7.78025e-16 40.1896 20.923)
(-6.36375e-16 41.4235 17.638)
(-5.06009e-16 42.1997 14.2113)
(-3.92705e-16 42.383 10.5763)
(-2.98104e-16 41.8057 6.68909)
(-2.21444e-16 40.2486 2.52336)
(-1.67452e-16 37.4271 -1.90459)
(-1.34841e-16 33.0483 -6.50807)
(-1.18179e-16 26.7868 -11.1639)
(-1.13359e-16 17.9375 -15.3588)
(-1.26435e-16 5.72292 -18.0154)
(-2.32753e-16 -11.9875 -17.8171)
(-2.29075e-16 -23.3689 -10.8246)
(-3.57861e-15 -35.078 -7.71112)
(-4.08868e-15 -46.8327 -1.76742)
(-3.77036e-15 -55.2754 1.74712)
(-3.85822e-15 -63.0652 1.1848)
(-4.27811e-15 -68.5612 0.839005)
(-4.95385e-15 -73.1671 -0.169273)
(-5.50023e-15 -77.1589 -0.292741)
(-5.5852e-15 -82.3618 -1.18527)
(-5.09633e-15 -86.8812 -2.0706)
(-4.1605e-15 -81.4609 -3.91691)
(-2.82016e-15 -70.7709 -4.57681)
(-1.62325e-15 -61.9002 -5.87874)
(-6.15592e-16 -52.8999 -6.6889)
(-8.47613e-17 -54.4631 -8.24193)
(4.07781e-17 -66.8301 -10.9098)
(1.13547e-17 -74.4742 -14.0711)
(-5.8714e-17 -64.6176 -15.7746)
(-9.78151e-17 -43.2591 -15.5228)
(-9.75734e-17 -22.3139 -14.3965)
(-1.02832e-16 4.00684 -17.3234)
(-8.79763e-17 27.0704 -16.6029)
(-4.16688e-17 6.47534 -12.152)
(-4.29439e-19 -43.2329 -16.9451)
(-4.96785e-19 -49.771 -17.5117)
(-1.16378e-18 -57.9547 -19.1333)
(-6.10611e-19 -82.9735 -23.5701)
(-1.84267e-19 -107.415 -27.9672)
(4.02241e-21 -115.032 -30.2442)
(6.64927e-20 -104.811 -30.301)
(7.86549e-20 -84.9262 -28.9376)
(7.73199e-20 -63.7449 -27.3187)
(7.77606e-20 -44.9614 -26.1809)
(8.50285e-20 -28.8573 -25.921)
(9.05801e-20 -15.514 -25.7917)
(7.30746e-20 -5.22771 -24.5361)
(-2.14413e-20 3.12277 -22.2684)
(1.08933e-18 9.04282 -19.4796)
(-7.88994e-18 13.4152 -17.8849)
(1.52554e-17 18.0096 -17.7023)
(1.64139e-16 23.4847 -17.0504)
(-1.20283e-15 31.5642 -11.9714)
(-4.69456e-15 50.421 -8.1002)
(-7.38089e-15 68.6719 -12.9317)
(-8.89114e-15 78.4933 -21.9887)
(-9.87488e-15 83.2873 -31.3802)
(-1.0967e-14 86.5109 -38.6423)
(-1.09874e-14 90.6464 -43.1561)
(-1.31243e-14 96.9587 -40.5804)
(9.56517e-16 98.2917 -34.7161)
(-1.38546e-15 3.56303 69.1525)
(-1.41419e-15 4.21438 75.4704)
(-1.2882e-15 6.20741 72.2139)
(-1.24322e-15 8.52173 70.2062)
(-1.23461e-15 10.6877 66.9419)
(-1.26166e-15 13.113 63.3793)
(-1.30901e-15 15.5848 59.3784)
(-1.36356e-15 18.1542 55.1666)
(-1.41223e-15 20.7515 50.8532)
(-1.44328e-15 23.3521 46.5912)
(-1.44708e-15 25.915 42.4944)
(-1.41735e-15 28.4168 38.6474)
(-1.35188e-15 30.835 35.0839)
(-1.2523e-15 33.1602 31.7859)
(-1.12345e-15 35.375 28.702)
(-9.74079e-16 37.4343 25.7716)
(-8.15398e-16 39.2946 22.9057)
(-6.59563e-16 40.8935 20.0128)
(-5.16094e-16 42.1533 16.9934)
(-3.90771e-16 42.971 13.7608)
(-2.8761e-16 43.207 10.2505)
(-2.06277e-16 42.6896 6.42327)
(-1.43931e-16 41.1936 2.25495)
(-1.02858e-16 38.4249 -2.24979)
(-7.94535e-17 34.0788 -6.99789)
(-6.82207e-17 27.7827 -11.8509)
(-6.50608e-17 18.7656 -16.2583)
(-7.21658e-17 6.02888 -19.2817)
(-1.72373e-16 -12.2427 -18.544)
(-6.06095e-17 -24.1901 -12.8267)
(-3.35118e-15 -35.8673 -8.39582)
(-4.09632e-15 -47.5399 -1.86389)
(-3.77058e-15 -55.3853 1.88648)
(-3.8592e-15 -62.8134 1.40823)
(-4.27941e-15 -68.2939 1.14696)
(-4.9543e-15 -72.9867 0.137226)
(-5.50011e-15 -77.0347 -0.0207332)
(-5.58551e-15 -82.197 -0.92711)
(-5.09895e-15 -86.6521 -1.83785)
(-4.16765e-15 -81.283 -3.71383)
(-2.83334e-15 -70.6832 -4.42164)
(-1.63789e-15 -61.8375 -5.75845)
(-6.30735e-16 -52.8531 -6.59362)
(-9.17255e-17 -54.2485 -8.16537)
(4.08436e-17 -66.421 -10.887)
(1.3379e-17 -74.0951 -14.1577)
(-5.62568e-17 -64.5216 -15.9418)
(-9.66802e-17 -43.4011 -15.8353)
(-9.83331e-17 -22.1084 -14.6714)
(-1.04174e-16 4.32668 -18.0872)
(-8.73099e-17 26.7459 -18.2273)
(-4.40271e-17 4.86394 -13.2346)
(-1.02741e-18 -42.8029 -16.8541)
(-1.76967e-19 -49.6826 -17.2981)
(-1.14655e-18 -57.5253 -18.8433)
(-6.40195e-19 -82.2295 -23.3764)
(-1.9615e-19 -106.828 -27.9792)
(5.39922e-22 -114.815 -30.3869)
(6.57882e-20 -104.914 -30.4796)
(7.8808e-20 -85.1799 -29.0997)
(7.75331e-20 -63.9851 -27.4362)
(7.75884e-20 -45.0855 -26.227)
(8.47721e-20 -28.9219 -25.8973)
(8.61772e-20 -15.6562 -25.436)
(7.15467e-20 -5.51625 -24.2894)
(-5.36236e-20 2.57314 -22.2492)
(1.38835e-18 8.5402 -19.656)
(-8.87048e-18 13.209 -18.2298)
(1.02968e-17 17.9243 -18.1237)
(1.97441e-16 22.8592 -17.8455)
(-1.07355e-15 30.6202 -13.4132)
(-4.74995e-15 50.5022 -9.29798)
(-7.63605e-15 70.1737 -14.1761)
(-9.15495e-15 80.4755 -23.6099)
(-1.00491e-14 85.0806 -33.2288)
(-1.09695e-14 87.7617 -40.4949)
(-1.07799e-14 90.846 -44.7034)
(-1.22726e-14 96.1226 -42.0361)
(3.37064e-16 95.9443 -37.4273)
(-1.4075e-15 3.17876 69.5128)
(-1.39565e-15 4.41309 72.7921)
(-1.30511e-15 6.9336 68.6891)
(-1.30009e-15 9.20781 66.3079)
(-1.32305e-15 11.4474 62.7331)
(-1.37127e-15 13.9125 59.0099)
(-1.42806e-15 16.4163 54.9571)
(-1.48007e-15 18.9955 50.8323)
(-1.51454e-15 21.5778 46.7336)
(-1.521e-15 24.1405 42.8041)
(-1.49219e-15 26.6487 39.1319)
(-1.42527e-15 29.0878 35.7709)
(-1.32202e-15 31.446 32.7189)
(-1.18749e-15 33.7215 29.9254)
(-1.02955e-15 35.9011 27.3135)
(-8.59872e-16 37.9428 24.8037)
(-6.90715e-16 39.8054 22.2892)
(-5.34085e-16 41.4267 19.6716)
(-3.97811e-16 42.7274 16.8536)
(-2.85025e-16 43.6008 13.7546)
(-1.97471e-16 43.9027 10.3138)
(-1.32757e-16 43.4573 6.49678)
(-8.62911e-17 42.0354 2.28132)
(-5.80216e-17 39.3326 -2.33709)
(-4.35017e-17 35.0272 -7.25887)
(-3.79249e-17 28.6985 -12.3282)
(-3.77786e-17 19.5116 -16.952)
(-4.16209e-17 6.16686 -20.2051)
(-1.2404e-16 -12.671 -19.0414)
(7.40672e-17 -25.1366 -13.9875)
(-3.11802e-15 -37.038 -9.25851)
(-4.09945e-15 -48.5413 -2.04023)
(-3.77097e-15 -55.7717 2.08711)
(-3.86043e-15 -62.7898 1.69557)
(-4.28133e-15 -68.1877 1.51183)
(-4.95537e-15 -72.8917 0.508177)
(-5.50026e-15 -76.9391 0.309585)
(-5.58571e-15 -82.0265 -0.61199)
(-5.10113e-15 -86.3866 -1.55098)
(-4.17423e-15 -81.0305 -3.46834)
(-2.84586e-15 -70.4761 -4.23506)
(-1.65209e-15 -61.6199 -5.61661)
(-6.45574e-16 -52.6092 -6.48955)
(-9.88214e-17 -53.8188 -8.08893)
(4.07811e-17 -65.827 -10.855)
(1.538e-17 -73.5859 -14.2306)
(-5.36226e-17 -64.3477 -16.1039)
(-9.54161e-17 -43.5044 -16.1856)
(-9.90003e-17 -21.9424 -14.9859)
(-1.05315e-16 4.83719 -18.8098)
(-8.62687e-17 26.4616 -19.5473)
(-4.44211e-17 4.49534 -14.0828)
(-1.58635e-18 -42.156 -16.7372)
(1.19736e-19 -49.4709 -17.0466)
(-1.11412e-18 -56.9179 -18.5535)
(-6.70312e-19 -81.282 -23.1812)
(-2.09103e-19 -106.109 -27.9893)
(-3.17449e-21 -114.56 -30.5385)
(6.50407e-20 -105.051 -30.6812)
(7.89555e-20 -85.5016 -29.296)
(7.77451e-20 -64.2965 -27.5905)
(7.76413e-20 -45.2679 -26.3331)
(8.39655e-20 -29.0306 -25.8541)
(8.26655e-20 -15.8337 -25.2275)
(7.15213e-20 -5.81017 -24.1216)
(-9.16538e-20 2.18415 -22.2817)
(1.72186e-18 8.20523 -19.8686)
(-9.59054e-18 13.0787 -18.573)
(3.2847e-18 17.9289 -18.4893)
(2.28553e-16 22.4669 -18.5018)
(-9.19534e-16 29.8456 -14.7223)
(-4.75105e-15 50.539 -10.4752)
(-7.79711e-15 71.6068 -15.4248)
(-9.28297e-15 82.365 -25.1895)
(-1.00565e-14 86.7441 -34.9663)
(-1.07803e-14 88.8562 -42.1888)
(-1.03719e-14 90.9828 -46.0642)
(-1.12131e-14 95.1774 -43.3027)
(1.79496e-16 93.8005 -34.8682)
(-1.42652e-15 2.80325 68.6968)
(-1.40109e-15 4.56552 69.4087)
(-1.35429e-15 7.4969 64.9295)
(-1.38325e-15 9.78862 62.2772)
(-1.42855e-15 12.1548 58.5062)
(-1.48744e-15 14.6819 54.7368)
(-1.54285e-15 17.2192 50.751)
(-1.5818e-15 19.7982 46.8257)
(-1.59256e-15 22.3526 43.0377)
(-1.56671e-15 24.8666 39.5113)
(-1.50024e-15 27.3136 36.3041)
(-1.39448e-15 29.6895 33.4381)
(-1.25542e-15 31.9923 30.8793)
(-1.09109e-15 34.2275 28.551)
(-9.11611e-16 36.3843 26.3576)
(-7.3085e-16 38.4227 24.2061)
(-5.60712e-16 40.3034 21.9802)
(-4.11784e-16 41.9621 19.5785)
(-2.894e-16 43.3173 16.9093)
(-1.93678e-16 44.2589 13.9013)
(-1.23993e-16 44.6383 10.4976)
(-7.61715e-17 44.276 6.66696)
(-4.45329e-17 42.9397 2.38727)
(-2.744e-17 40.3155 -2.35341)
(-2.064e-17 36.0618 -7.45461)
(-2.02597e-17 29.7079 -12.7472)
(-2.3472e-17 20.3573 -17.611)
(-2.67517e-17 6.35539 -21.2281)
(-8.60898e-17 -13.1035 -19.6663)
(1.62967e-16 -26.1246 -14.5892)
(-2.92757e-15 -38.3091 -9.96431)
(-4.09776e-15 -49.6996 -2.1858)
(-3.77133e-15 -56.2538 2.34394)
(-3.86193e-15 -62.8013 2.05904)
(-4.28398e-15 -68.1 1.93886)
(-4.95718e-15 -72.7977 0.949418)
(-5.50074e-15 -76.833 0.705118)
(-5.58575e-15 -81.8391 -0.234808)
(-5.10277e-15 -86.0919 -1.20604)
(-4.18002e-15 -80.7417 -3.17764)
(-2.85746e-15 -70.2292 -4.01444)
(-1.66564e-15 -61.3596 -5.45079)
(-6.59951e-16 -52.3169 -6.3722)
(-1.05978e-16 -53.3313 -8.0068)
(4.05821e-17 -65.1669 -10.8148)
(1.73887e-17 -73.0174 -14.2966)
(-5.09186e-17 -64.13 -16.2693)
(-9.40194e-17 -43.5894 -16.5713)
(-9.95683e-17 -21.7301 -15.357)
(-1.06244e-16 5.41098 -19.5518)
(-8.49103e-17 26.1611 -20.6334)
(-4.35178e-17 3.53371 -14.7336)
(-2.05698e-18 -41.5601 -16.5618)
(3.76337e-19 -49.2475 -16.7883)
(-1.06988e-18 -56.2844 -18.2543)
(-6.99972e-19 -80.2764 -22.9791)
(-2.23042e-19 -105.335 -28.003)
(-7.12931e-21 -114.277 -30.7072)
(6.42521e-20 -105.179 -30.9101)
(7.90962e-20 -85.8191 -29.5252)
(7.79416e-20 -64.5996 -27.7769)
(7.79479e-20 -45.4507 -26.4922)
(8.28997e-20 -29.1515 -25.8359)
(7.97457e-20 -16.0103 -25.1208)
(7.24588e-20 -6.11323 -24.0503)
(-1.37442e-19 1.73008 -22.3535)
(2.08006e-18 7.82484 -20.0758)