/*--------------------------------*- C++ -*----------------------------------*\
| =========                 |                                                 |
| \\      /  F ield         | OpenFOAM: The Open Source CFD Toolbox           |
|  \\    /   O peration     | Version:  4.1                                   |
|   \\  /    A nd           | Web:      www.OpenFOAM.org                      |
|    \\/     M anipulation  |                                                 |
\*---------------------------------------------------------------------------*/
FoamFile
{
    version     2.0;
    format      ascii;
    class       surfaceScalarField;
    location    "14";
    object      phi;
}
// * * * * * * * * * * * * * * * * * * * * * * * * * * * * * * * * * * * * * //

dimensions      [0 3 -1 0 0 0 0];

internalField   nonuniform List<scalar> 
420
(
-949.879
2249.78
-1573.95
1924.28
-2054
1779.95
-2424.23
1670.13
-2699.86
1575.82
-2888.38
1488.42
-2993.05
1404.58
-3013.85
1321
-2949.61
1235.66
-2797.23
1147.52
-2551.17
1054.13
-2193
941.735
-1687.17
794.065
-1012.67
625.704
287.232
373.335
1876.44
442.748
1854.86
437.301
1785.39
406.698
1700.74
380.58
1601.94
359.901
1509.1
345.293
1419.19
337.536
1328.76
333.484
1239.71
326.954
1154.05
309.61
1071.48
267.468
983.877
191.43
870.103
111.449
705.684
398.68
33.5756
1842.87
-97.3885
1985.83
-253.612
1941.62
-371.119
1818.24
-473.182
1704.01
-567.53
1603.45
-651.746
1503.4
-725.794
1402.8
-788.071
1301.99
-837.302
1203.28
-868.221
1102.4
-856.083
971.74
-740.331
754.353
-434.283
399.637
-35.6036
28.7749
1814.09
-100.653
2115.25
-225.559
2066.52
-304.495
1897.18
-368.156
1767.67
-416.952
1652.24
-446.227
1532.68
-457.015
1413.59
-451.853
1296.83
-430.154
1181.58
-387.225
1059.47
-311.871
896.386
-192.864
635.346
-48.4074
255.182
-84.011
169.624
1644.47
146.157
2138.72
123.733
2088.95
122.87
1898.04
126.942
1763.6
135.805
1643.38
149.102
1519.38
166.591
1396.1
186.942
1276.48
208.13
1160.4
229.13
1038.47
243.821
881.694
233.004
646.162
155.231
332.955
71.2204
223.074
1421.4
244.179
2117.62
234.742
2098.39
236.021
1896.76
240.369
1759.25
244.303
1639.45
246.546
1517.14
245.25
1397.4
241.161
1280.56
233.987
1167.57
221.381
1051.07
199.138
903.938
156.141
689.161
78.3023
410.794
149.522
203.313
1218.08
238.364
2082.57
213.611
2123.14
191.401
1918.97
177.195
1773.45
163.765
1652.88
150.032
1530.87
135.891
1411.54
121.067
1295.39
106.916
1181.72
92.8204
1065.17
75.7705
920.989
52.0243
712.907
19.0224
443.796
168.544
171.843
1046.24
221.969
2032.44
199.412
2145.7
170.398
1947.99
152.049
1791.8
137.669
1667.26
122.78
1545.76
108.582
1425.74
95.5877
1308.38
83.1091
1194.2
71.4901
1076.79
58.6409
933.837
40.3304
731.217
15.7539
468.371
184.297
146.088
900.152
210.049
1968.48
196.869
2158.88
170.051
1974.81
152.404
1809.45
139.535
1680.13
127.072
1558.23
113.868
1438.95
101.323
1320.93
89.4226
1206.1
76.9883
1089.22
63.094
947.732
44.3136
749.997
19.1732
493.512
203.469
116.758
783.403
184.849
1900.4
179.627
2164.11
154.31
2000.12
137.221
1826.54
124.001
1693.35
111.372
1570.85
98.9633
1451.35
86.1104
1333.78
73.8703
1218.34
62.1063
1100.99
49.0274
960.813
32.8575
766.168
13.1854
513.183
216.652
83.1573
700.25
143.127
1840.43
144.675
2162.55
122.748
2022.05
106.14
1843.15
94.4518
1705.04
82.5705
1582.74
71.1608
1462.77
60.3807
1344.56
49.456
1229.27
39.4216
1111.02
29.741
970.505
18.0824
777.842
5.2441
526.031
221.89
51.2368
649.004
97.9036
1793.76
102.686
2157.76
87.3602
2037.37
73.1339
1857.37
63.1269
1715.04
54.2313
1591.63
44.8534
1472.14
36.1453
1353.27
28.1717
1237.24
20.4234
1118.77
13.6778
977.243
6.73249
784.781
-0.414234
533.173
221.476
25.1229
623.863
57.688
1761.16
63.4822
2151.96
53.4469
2047.41
43.8698
1866.95
36.1601
1722.75
29.5348
1598.25
23.4925
1478.18
17.0497
1359.7
11.3089
1242.97
6.61556
1123.45
2.48289
981.338
-1.07837
788.29
-3.69848
535.765
217.791
1.40604
622.438
24.0465
1738.51
33.3539
2142.66
27.717
2053.04
20.3576
1874.3
15.054
1728.05
9.51487
1603.78
4.55925
1483.13
0.00933603
1364.25
-4.86564
1247.84
-8.37106
1126.96
-9.67154
982.643
-9.74087
788.351
-7.15376
533.184
210.657
-11.7073
-3.09064
1.49827
-0.354924
-5.04573
-8.79768
-11.7463
-15.1876
-18.0497
-20.1863
-21.7542
-21.083
-18.0746
-12.3359
)
;

boundaryField
{
    inletFace
    {
        type            calculated;
        value           nonuniform List<scalar> 
450
(
-3.40933e-14
5.9972e-13
-3.00173e-13
-1.62232e-13
2.72454e-13
6.73252e-14
-1.47842e-14
-2.63245e-14
-1.07404e-13
-3.56209e-14
4.11087e-14
-5.46269e-14
4.77399e-16
1.32722e-14
-1.41916e-15
-2.11619e-12
-2.11076e-12
-1.13549e-14
-7.01247e-13
-2.11616e-13
2.26261e-13
1.4897e-13
-1.18839e-13
7.49392e-15
-1.35675e-13
-6.95638e-14
1.03899e-14
-7.10869e-14
-1.03609e-14
-9.4034e-16
-2.2666e-12
-2.4519e-12
-1.57475e-13
-5.38117e-13
-1.99477e-13
6.17693e-14
-1.14469e-13
-8.61555e-14
-9.1305e-14
-1.12909e-13
-4.46347e-14
-6.05707e-14
-5.06293e-14
7.07812e-15
3.28524e-15
-2.57518e-12
-2.5104e-12
-2.54948e-13
-7.27099e-13
-1.81502e-13
-8.1562e-14
-2.86103e-13
-8.78643e-14
-1.60878e-13
-1.96702e-13
-2.73822e-14
-8.97154e-14
-1.02411e-13
2.88863e-14
6.70116e-14
-2.40865e-12
-2.40141e-12
-3.80978e-13
-6.72352e-13
-1.58481e-13
-1.90636e-13
-2.95762e-13
-8.89922e-14
-1.46661e-13
-1.88835e-13
-7.89822e-14
-1.22132e-13
-1.01363e-13
-5.18384e-15
5.75269e-14
-2.12178e-12
-2.41479e-12
-5.68409e-13
-5.24756e-13
-1.53785e-13
-1.92802e-13
-2.44641e-13
-6.2596e-14
-1.43287e-13
-1.74983e-13
-8.60034e-14
-6.7059e-14
-7.69278e-14
-2.17867e-15
3.43231e-14
-1.90271e-12
-2.46664e-12
-8.14483e-13
-4.62385e-13
-2.00063e-13
-1.65305e-13
-2.29648e-13
-1.39094e-13
-1.85733e-13
-1.71356e-13
-8.66364e-14
-1.26549e-13
-9.8467e-14
-8.34365e-14
-1.65182e-13
-1.67097e-12
-2.4687e-12
-1.03054e-12
-5.14608e-13
-2.28627e-13
-1.84981e-13
-2.51876e-13
-1.98098e-13
-1.97116e-13
-1.6986e-13
-1.26443e-13
-2.49308e-13
-5.44939e-14
-3.31823e-14
-2.55866e-13
-1.41765e-12
-2.43369e-12
-1.20581e-12
-5.70522e-13
-2.49652e-13
-1.87195e-13
-2.72136e-13
-1.91947e-13
-1.74497e-13
-1.70895e-13
-1.35117e-13
-1.17595e-13
-2.77961e-14
-3.01097e-14
-5.8587e-14
-1.22168e-12
-2.36879e-12
-1.31015e-12
-5.57003e-13
-2.61909e-13
-1.39107e-13
-2.24639e-13
-1.96529e-13
-1.30019e-13
-1.63112e-13
-1.28447e-13
-3.63324e-14
-5.20275e-14
-2.88615e-14
6.11803e-14
-1.00882e-12
-2.29003e-12
-1.36867e-12
-5.73544e-13
-2.72028e-13
-1.13931e-13
-1.71924e-13
-1.91723e-13
-1.37695e-13
-1.26259e-13
-1.23226e-13
-5.66133e-14
-1.07388e-14
-6.03432e-16
1.27033e-13
-8.74008e-13
-2.19711e-12
-1.42532e-12
-6.3901e-13
-2.93173e-13
-1.0976e-13
-1.88985e-13
-1.94038e-13
-1.39702e-13
-1.23894e-13
-1.34463e-13
-3.73944e-14
-1.76463e-14
8.34412e-14
1.6326e-13
-8.09026e-13
-2.12093e-12
-1.46402e-12
-6.64188e-13
-3.09326e-13
-1.04621e-13
-1.82049e-13
-2.12245e-13
-1.13434e-13
-1.17169e-13
-1.33522e-13
-2.34926e-14
-2.01282e-14
8.23191e-14
1.08657e-13
-7.5825e-13
-2.07122e-12
-1.46959e-12
-6.76188e-13
-3.18674e-13
-1.08997e-13
-1.71684e-13
-2.30935e-13
-9.13117e-14
-1.14244e-13
-1.34294e-13
9.35442e-15
-1.26878e-14
7.05454e-14
9.66633e-14
-7.41083e-13
-1.98365e-12
-1.45338e-12
-6.90645e-13
-3.24673e-13
-1.18807e-13
-1.73128e-13
-2.15281e-13
-9.63396e-14
-1.16359e-13
-1.17793e-13
-1.22995e-15
-7.43976e-15
7.22529e-14
5.72506e-14
3.40933e-14
-5.9972e-13
3.00173e-13
1.62232e-13
-2.72454e-13
-6.73252e-14
1.47842e-14
2.63245e-14
1.07404e-13
3.56209e-14
-4.11087e-14
5.46269e-14
-4.77399e-16
-1.32722e-14
1.41916e-15
2.11619e-12
2.11076e-12
1.13549e-14
7.01247e-13
2.11616e-13
-2.26261e-13
-1.4897e-13
1.18839e-13
-7.49392e-15
1.35675e-13
6.95638e-14
-1.03899e-14
7.10869e-14
1.03609e-14
9.4034e-16
2.2666e-12
2.4519e-12
1.57475e-13
5.38117e-13
1.99477e-13
-6.17693e-14
1.14469e-13
8.61555e-14
9.1305e-14
1.12909e-13
4.46347e-14
6.05707e-14
5.06293e-14
-7.07812e-15
-3.28524e-15
2.57518e-12
2.5104e-12
2.54948e-13
7.27099e-13
1.81502e-13
8.1562e-14
2.86103e-13
8.78643e-14
1.60878e-13
1.96702e-13
2.73822e-14
8.97154e-14
1.02411e-13
-2.88863e-14
-6.70116e-14
2.40865e-12
2.40141e-12
3.80978e-13
6.72352e-13
1.58481e-13
1.90636e-13
2.95762e-13
8.89922e-14
1.46661e-13
1.88835e-13
7.89822e-14
1.22132e-13
1.01363e-13
5.18384e-15
-5.75269e-14
2.12178e-12
2.41479e-12
5.68409e-13
5.24756e-13
1.53785e-13
1.92802e-13
2.44641e-13
6.2596e-14
1.43287e-13
1.74983e-13
8.60034e-14
6.7059e-14
7.69278e-14
2.17867e-15
-3.43231e-14
1.90271e-12
2.46664e-12
8.14483e-13
4.62385e-13
2.00063e-13
1.65305e-13
2.29648e-13
1.39094e-13
1.85733e-13
1.71356e-13
8.66364e-14
1.26549e-13
9.8467e-14
8.34365e-14
1.65182e-13
1.67097e-12
2.4687e-12
1.03054e-12
5.14608e-13
2.28627e-13
1.84981e-13
2.51876e-13
1.98098e-13
1.97116e-13
1.6986e-13
1.26443e-13
2.49308e-13
5.44939e-14
3.31823e-14
2.55866e-13
1.41765e-12
2.43369e-12
1.20581e-12
5.70522e-13
2.49652e-13
1.87195e-13
2.72136e-13
1.91947e-13
1.74497e-13
1.70895e-13
1.35117e-13
1.17595e-13
2.77961e-14
3.01097e-14
5.8587e-14
1.22168e-12
2.36879e-12
1.31015e-12
5.57003e-13
2.61909e-13
1.39107e-13
2.24639e-13
1.96529e-13
1.30019e-13
1.63112e-13
1.28447e-13
3.63324e-14
5.20275e-14
2.88615e-14
-6.11803e-14
1.00882e-12
2.29003e-12
1.36867e-12
5.73544e-13
2.72028e-13
1.13931e-13
1.71924e-13
1.91723e-13
1.37695e-13
1.26259e-13
1.23226e-13
5.66133e-14
1.07388e-14
6.03432e-16
-1.27033e-13
8.74008e-13
2.19711e-12
1.42532e-12
6.3901e-13
2.93173e-13
1.0976e-13
1.88985e-13
1.94038e-13
1.39702e-13
1.23894e-13
1.34463e-13
3.73944e-14
1.76463e-14
-8.34412e-14
-1.6326e-13
8.09026e-13
2.12093e-12
1.46402e-12
6.64188e-13
3.09326e-13
1.04621e-13
1.82049e-13
2.12245e-13
1.13434e-13
1.17169e-13
1.33522e-13
2.34926e-14
2.01282e-14
-8.23191e-14
-1.08657e-13
7.5825e-13
2.07122e-12
1.46959e-12
6.76188e-13
3.18674e-13
1.08997e-13
1.71684e-13
2.30935e-13
9.13117e-14
1.14244e-13
1.34294e-13
-9.35442e-15
1.26878e-14
-7.05454e-14
-9.66633e-14
7.41083e-13
1.98365e-12
1.45338e-12
6.90645e-13
3.24673e-13
1.18807e-13
1.73128e-13
2.15281e-13
9.63396e-14
1.16359e-13
1.17793e-13
1.22995e-15
7.43976e-15
-7.22529e-14
-5.72506e-14
)
;
    }
    inlet
    {
        type            calculated;
        value           nonuniform List<scalar> 
15
(
-1299.9
-1300.2
-1299.9
-1299.9
-1300.2
-1299.9
-1299.9
-1300.2
-1299.9
-1299.9
-1300.2
-1299.9
-1299.9
-1300.2
-1299.9
)
;
    }
    inletWalls
    {
        type            calculated;
        value           uniform 0;
    }
    outletInlet
    {
        type            calculated;
        value           nonuniform List<scalar> 
15
(
198.274
527.463
785.383
981.997
1128.54
1249.98
1367.12
1486.57
1606.74
1731.8
1879
2054.9
2138.07
1729.91
634.169
)
;
    }
}


// ************************************************************************* //
