/*--------------------------------*- C++ -*----------------------------------*\
| =========                 |                                                 |
| \\      /  F ield         | OpenFOAM: The Open Source CFD Toolbox           |
|  \\    /   O peration     | Version:  4.1                                   |
|   \\  /    A nd           | Web:      www.OpenFOAM.org                      |
|    \\/     M anipulation  |                                                 |
\*---------------------------------------------------------------------------*/
FoamFile
{
    version     2.0;
    format      ascii;
    class       volVectorField;
    location    "14";
    object      U;
}
// * * * * * * * * * * * * * * * * * * * * * * * * * * * * * * * * * * * * * //

dimensions      [0 1 -1 0 0 0 0];

internalField   nonuniform List<vector> 
225
(
(1.12672e-14 0.852191 15.7946)
(9.13174e-15 -4.89458 12.1215)
(-1.73184e-15 -4.19551 12.1321)
(4.56268e-15 -3.60119 11.9966)
(-2.82619e-16 -3.00468 11.8778)
(-1.99896e-15 -2.55319 11.6992)
(1.0236e-16 -2.20881 11.4769)
(9.26757e-16 -1.96603 11.2116)
(-1.20673e-17 -1.79856 10.916)
(1.02977e-15 -1.71238 10.5882)
(1.31442e-16 -1.83746 10.1561)
(-7.95553e-17 -2.28568 9.53762)
(5.29822e-16 -2.51302 8.96378)
(-9.18812e-17 -1.06552 8.91357)
(9.82462e-18 1.76574 7.47091)
(1.53396e-14 -5.35016 22.493)
(1.4614e-14 -14.6049 21.394)
(7.86077e-17 -13.2708 20.3411)
(5.22826e-15 -11.7697 19.5066)
(1.46515e-15 -11.1561 18.5043)
(-1.56636e-15 -10.6594 17.5174)
(-9.2053e-16 -10.0901 16.5714)
(8.22791e-16 -9.525 15.6236)
(-5.18789e-17 -8.96544 14.6638)
(9.06543e-16 -8.36731 13.6946)
(4.81632e-16 -7.75709 12.7179)
(-7.19274e-17 -7.30335 11.7194)
(4.91422e-16 -7.01705 10.6244)
(7.17344e-17 -5.73094 9.16113)
(6.50978e-18 -2.30501 4.58321)
(1.7737e-14 -7.71565 23.9801)
(1.69741e-14 -16.7731 24.6729)
(1.0903e-15 -13.7365 23.9372)
(5.24463e-15 -12.3062 22.6249)
(1.38094e-15 -11.6447 21.2414)
(-4.27667e-16 -10.814 20.0013)
(1.93244e-15 -9.94025 18.7738)
(5.96439e-16 -9.10011 17.5247)
(6.32161e-16 -8.28338 16.2654)
(1.5708e-15 -7.47524 15.0263)
(3.08998e-16 -6.66762 13.8176)
(4.19369e-16 -5.84166 12.4301)
(8.3382e-16 -4.8139 10.2753)
(-4.90005e-17 -3.12627 6.68444)
(-2.27458e-17 -0.832143 1.68992)
(1.78206e-14 -8.50259 22.0462)
(1.73792e-14 -16.621 24.332)
(1.76498e-15 -12.93 23.7971)
(5.0342e-15 -12.1536 21.9985)
(1.18531e-15 -11.4201 20.5028)
(6.13285e-16 -10.4936 19.1722)
(1.98088e-15 -9.63388 17.8167)
(5.29283e-16 -8.82359 16.459)
(1.14159e-15 -8.05363 15.123)
(1.347e-15 -7.32377 13.8164)
(1.81432e-16 -6.55246 12.4394)
(6.11731e-16 -5.49088 10.583)
(6.84236e-16 -3.78527 7.5087)
(-7.35521e-18 -1.49368 2.76606)
(-6.55995e-16 0.153272 -1.77298)
(1.64631e-14 -8.47615 19.748)
(1.62804e-14 -16.3601 24.312)
(2.45912e-15 -13.099 23.6602)
(4.45995e-15 -12.628 21.5365)
(7.86191e-16 -11.8565 20.0248)
(1.20983e-15 -10.9574 18.6637)
(1.93063e-15 -10.1698 17.2587)
(3.67464e-16 -9.40277 15.8711)
(8.8297e-16 -8.65258 14.5236)
(1.23676e-15 -7.9305 13.2136)
(3.95332e-16 -7.16587 11.8292)
(7.60825e-16 -6.11614 9.99626)
(5.95374e-16 -4.42402 7.15555)
(-3.22283e-16 -2.30529 3.28792)
(-7.64421e-16 -0.787212 0.317759)
(1.49129e-14 -8.02193 17.5537)
(1.67591e-14 -16.0195 24.5277)
(4.06252e-15 -13.6434 24.0462)
(3.63282e-15 -12.9943 21.7651)
(1.11376e-15 -12.1264 20.2158)
(1.43894e-15 -11.2247 18.847)
(1.69362e-15 -10.439 17.4341)
(4.92632e-16 -9.64888 16.0434)
(1.18334e-15 -8.86035 14.6933)
(1.21139e-15 -8.09325 13.3817)
(6.70869e-16 -7.2973 12.0171)
(7.23061e-16 -6.28458 10.2818)
(4.22358e-16 -4.73301 7.7209)
(3.72689e-16 -2.75613 4.37247)
(7.70209e-16 -0.94941 1.29739)
(1.33065e-14 -7.33745 15.2535)
(1.70976e-14 -15.491 24.355)
(5.72313e-15 -14.0225 24.4218)
(3.20141e-15 -13.1278 22.0675)
(1.43532e-15 -12.1447 20.4401)
(1.25211e-15 -11.2358 19.0547)
(1.59001e-15 -10.4361 17.6437)
(1.08843e-15 -9.61983 16.2576)
(1.4905e-15 -8.81015 14.9066)
(1.18641e-15 -8.02722 13.5919)
(7.64652e-16 -7.22395 12.2368)
(1.25508e-15 -6.24026 10.5488)
(6.81754e-16 -4.78752 8.1075)
(2.02802e-16 -2.91411 4.94715)
(2.41583e-15 -1.01088 1.79743)
(1.13827e-14 -6.55627 13.033)
(1.70919e-14 -14.847 23.8164)
(7.09194e-15 -14.2638 24.669)
(3.56246e-15 -13.2372 22.3215)
(1.58289e-15 -12.1674 20.5831)
(1.17218e-15 -11.2657 19.1667)
(1.80206e-15 -10.4651 17.7586)
(1.37153e-15 -9.64314 16.3766)
(1.22696e-15 -8.83493 15.0245)
(1.17589e-15 -8.05529 13.7073)
(8.75425e-16 -7.255 12.3576)
(1.53563e-15 -6.2869 10.6996)
(3.77243e-16 -4.89101 8.33096)
(2.29737e-16 -3.08523 5.26766)
(1.27473e-15 -1.12221 2.04396)
(9.81423e-15 -5.77841 11.1239)
(1.68481e-14 -14.1745 23.0906)
(8.22281e-15 -14.4412 24.8462)
(3.94966e-15 -13.3963 22.6148)
(1.72831e-15 -12.2528 20.7553)
(1.13476e-15 -11.3493 19.2955)
(1.88397e-15 -10.5477 17.8904)
(1.32883e-15 -9.72543 16.5109)
(1.00426e-15 -8.91944 15.1561)
(1.18309e-15 -8.14023 13.8351)
(9.354e-16 -7.33995 12.4864)
(5.336e-16 -6.38015 10.8512)
(1.92429e-16 -5.02351 8.54671)
(2.08446e-16 -3.26579 5.55832)
(-5.31147e-16 -1.23755 2.24769)
(8.15885e-15 -5.08506 9.59944)
(1.63989e-14 -13.5192 22.3001)
(8.98571e-15 -14.5349 24.9522)
(3.71933e-15 -13.5531 22.9353)
(1.81317e-15 -12.3447 20.9698)
(8.55342e-16 -11.425 19.4566)
(1.38145e-15 -10.6174 18.0506)
(1.36055e-15 -9.79444 16.6721)
(7.63959e-16 -8.98825 15.3136)
(9.06157e-16 -8.20621 13.9873)
(8.89224e-16 -7.40471 12.6356)
(1.57911e-16 -6.45144 11.0132)
(1.28253e-16 -5.1252 8.75504)
(1.99804e-16 -3.40652 5.8195)
(-7.2374e-16 -1.31906 2.43093)
(6.83387e-15 -4.53883 8.46247)
(1.58797e-14 -12.9256 21.5505)
(9.32503e-15 -14.5349 24.9757)
(3.97046e-15 -13.6653 23.2209)
(1.93372e-15 -12.4128 21.1811)
(5.71311e-16 -11.4735 19.612)
(1.19017e-15 -10.659 18.2003)
(1.39066e-15 -9.83693 16.8209)
(7.46944e-16 -9.03204 15.4585)
(8.74052e-16 -8.24855 14.1269)
(9.36094e-16 -7.44646 12.7691)
(1.41417e-17 -6.49769 11.1497)
(7.43413e-17 -5.19253 8.91839)
(-4.95415e-16 -3.50182 6.01047)
(-1.43792e-15 -1.36377 2.54248)
(6.05065e-15 -4.17058 7.70299)
(1.52362e-14 -12.4378 20.9279)
(9.82477e-15 -14.4733 24.9366)
(4.42379e-15 -13.7315 23.4378)
(2.05501e-15 -12.4592 21.3593)
(6.77489e-16 -11.5039 19.7405)
(1.30832e-15 -10.6832 18.3206)
(1.43922e-15 -9.86357 16.9391)
(9.3251e-16 -9.06118 15.5729)
(8.57704e-16 -8.27765 14.2364)
(9.30869e-16 -7.47497 12.871)
(1.63645e-16 -6.5269 11.2467)
(1.80653e-16 -5.23313 9.02665)
(-6.6066e-16 -3.55799 6.12616)
(-1.32215e-15 -1.37726 2.57254)
(5.50219e-15 -3.97351 7.27986)
(1.4656e-14 -12.0683 20.4614)
(1.01575e-14 -14.3842 24.8625)
(4.55178e-15 -13.7598 23.5827)
(2.14143e-15 -12.4875 21.4969)
(7.24276e-16 -11.5229 19.8406)
(1.23055e-15 -10.6965 18.412)
(1.56619e-15 -9.87988 17.0278)
(7.50251e-16 -9.08048 15.6583)
(8.11242e-16 -8.29715 14.3169)
(9.66529e-16 -7.49312 12.9421)
(1.14689e-16 -6.54214 11.3061)
(1.39361e-16 -5.25094 9.08433)
(-4.87368e-16 -3.57866 6.17524)
(-9.00223e-16 -1.36501 2.53854)
(5.20191e-15 -3.90372 7.1103)
(1.43262e-14 -11.8313 20.1817)
(1.01508e-14 -14.2998 24.79)
(4.66921e-15 -13.7667 23.6685)
(2.1934e-15 -12.5018 21.5897)
(7.54548e-16 -11.5319 19.9094)
(1.20359e-15 -10.7002 18.4744)
(1.58259e-15 -9.88529 17.0881)
(6.32121e-16 -9.08768 15.717)
(8.1009e-16 -8.30378 14.3726)
(9.08726e-16 -7.49748 12.9902)
(-6.47576e-17 -6.54271 11.3427)
(1.16863e-16 -5.25291 9.11646)
(-5.29278e-16 -3.58326 6.20099)
(-6.69168e-16 -1.34996 2.50616)
(5.11562e-15 -4.03931 7.2865)
(1.37256e-14 -11.627 19.9519)
(1.00685e-14 -14.1917 24.6679)
(4.78125e-15 -13.7464 23.7082)
(2.24115e-15 -12.5066 21.6737)
(8.29608e-16 -11.5393 19.9772)
(1.19854e-15 -10.6995 18.535)
(1.48228e-15 -9.88696 17.1437)
(6.75755e-16 -9.0905 15.7694)
(8.05538e-16 -8.30494 14.4182)
(8.10273e-16 -7.48985 13.0146)
(1.44021e-17 -6.51517 11.3278)
(5.15045e-17 -5.2058 9.06086)
(-5.10377e-16 -3.50159 6.08257)
(-3.77258e-16 -1.25256 2.30731)
)
;

boundaryField
{
    inletFace
    {
        type            zeroGradient;
    }
    inlet
    {
        type            fixedValue;
        value           uniform (0 8.7 15);
    }
    inletWalls
    {
        type            noSlip;
    }
    outletInlet
    {
        type            zeroGradient;
    }
}


// ************************************************************************* //
