/*--------------------------------*- C++ -*----------------------------------*\
| =========                 |                                                 |
| \\      /  F ield         | OpenFOAM: The Open Source CFD Toolbox           |
|  \\    /   O peration     | Version:  4.1                                   |
|   \\  /    A nd           | Web:      www.OpenFOAM.org                      |
|    \\/     M anipulation  |                                                 |
\*---------------------------------------------------------------------------*/
FoamFile
{
    version     2.0;
    format      ascii;
    class       volScalarField;
    location    "3";
    object      epsilon;
}
// * * * * * * * * * * * * * * * * * * * * * * * * * * * * * * * * * * * * * //

dimensions      [0 2 -3 0 0 0 0];

internalField   nonuniform List<scalar> 
6785
(
0.0569579
0.295011
0.288418
0.288454
0.28849
0.288419
0.288448
0.288488
0.288421
0.288452
0.288492
0.288418
0.288522
0.4456
0.0800968
0.083428
0.00625096
8.63868e-05
8.07337e-05
7.68537e-05
7.29053e-05
6.90866e-05
6.53331e-05
6.14266e-05
5.7616e-05
5.41435e-05
5.49983e-05
0.000213669
0.0060508
0.0287598
0.111413
0.00246836
2.05318e-07
2.46563e-07
7.014e-06
5.51447e-05
9.4509e-05
0.000102038
0.000119631
0.000152369
0.000231592
0.000435681
0.00175621
0.0101267
0.00642961
0.148968
0.00266879
2.72052e-07
5.25155e-08
1.42732e-06
5.47684e-05
0.000142767
0.000249611
0.000580982
0.00132678
0.00169699
0.00144331
0.0019738
0.00318316
0.00505357
0.200178
0.00341306
2.82898e-06
8.12463e-08
1.19729e-06
4.3235e-05
0.000176638
0.000517588
0.00146075
0.00364104
0.00531266
0.00369306
0.00187436
0.00255424
0.00293198
0.253144
0.0111179
3.8028e-05
7.97563e-06
9.97553e-07
1.6431e-05
0.000123903
0.000434026
0.00120348
0.00271321
0.0039147
0.004152
0.00227503
0.000618415
0.000433849
0.297489
0.0260453
0.000533469
2.16884e-05
4.39783e-06
7.6772e-06
5.26162e-05
0.000198583
0.000535615
0.00117027
0.00163532
0.00171082
0.00176049
0.0019523
0.000124077
0.327004
0.0416475
0.00232324
0.000104486
8.71588e-06
9.55112e-06
3.09967e-05
8.7527e-05
0.000239242
0.000522482
0.000718685
0.000764837
0.000859328
0.00187798
8.72623e-05
0.342589
0.0519509
0.00398987
0.000301258
3.41413e-05
8.65096e-06
2.09909e-05
4.51657e-05
0.000122977
0.000273714
0.000370214
0.000436801
0.000480268
0.0016043
6.8413e-05
0.349633
0.0615985
0.00608661
0.000588962
8.32377e-05
2.25813e-05
2.21387e-05
4.39895e-05
7.56136e-05
0.000166909
0.00024652
0.000275202
0.000300755
0.00129685
9.83494e-05
0.353337
0.0603553
0.00796755
0.0012677
0.000243547
3.93021e-05
2.82884e-05
4.34213e-05
7.1323e-05
0.000134909
0.000181195
0.000189431
0.000215342
0.000929449
0.000192833
0.359101
0.0545134
0.00926014
0.00186468
0.000711304
0.000159671
8.66504e-05
6.19564e-05
7.14656e-05
0.00012298
0.000142418
0.000136217
0.000130982
0.000656152
0.000503889
0.37522
0.0487353
0.00951619
0.00251289
0.00108697
0.000419907
0.000800252
0.00071919
0.000438161
0.000200901
0.000125516
0.000101999
0.00010647
0.000594465
0.00162759
0.354731
0.087861
0.0132695
0.00399192
0.0135232
0.00470908
0.00496793
0.00104414
0.000349774
0.00021946
0.000426552
0.000532254
0.000274639
0.00138532
0.00322923
0.360878
1.22168
0.470624
0.0883019
0.0254526
0.00531832
0.00244953
0.00154553
0.0018954
0.00241878
0.00298817
0.000237234
0.00176055
0.00926386
0.00470788
0.00717142
0.00515527
0.00854436
0.00862882
0.00897302
0.006045
0.0098493
0.00977645
0.0100037
0.00661055
0.0108866
0.0108529
0.00685251
0.0109758
0.0106165
0.0105086
0.00655553
0.0105715
0.0102782
0.00617523
0.00976374
0.00929844
0.00897637
0.00530199
0.00835519
0.00792545
0.00760959
0.00444399
0.00704337
0.00673479
0.00390661
0.00612846
0.00581248
0.00557643
0.00326482
0.00513821
0.00490454
0.00286168
0.00443115
0.00419155
0.00400929
0.00239119
0.00365692
0.00346071
0.00331633
0.00205336
0.00309595
0.00295811
0.00189799
0.00277842
0.0026556
0.00258499
0.00180784
0.00268666
0.00268852
0.00276108
0.00218778
0.00356655
0.00385704
0.00336223
0.0048866
0.00485664
0.00488185
0.00377418
0.00525571
0.00523195
0.00359896
0.00508718
0.00498063
0.00500502
0.00320381
0.00541537
0.00555236
0.0057526
0.00346698
0.00620227
0.00635949
0.00367924
0.00657258
0.006685
0.0112176
0.0112815
0.0112392
0.0106439
0.0109147
0.010953
0.0106376
0.0101679
0.00980798
0.00944101
0.00906803
0.00884964
0.00886146
0.0101303
0.010347
0.0106642
0.0108795
0.0109404
0.0109262
0.0109927
0.0110326
0.0124077
0.0147778
0.0154315
0.0158573
0.0163
0.0167398
0.0170607
0.0174025
0.0178764
0.018349
0.0228393
0.0276749
0.0293265
0.0304421
0.0318547
0.0333283
0.0347588
0.0364385
0.0385643
0.0561613
0.0662253
0.0709327
0.0767518
0.0835166
0.0929465
0.105288
0.122884
0.145516
0.214389
0.220339
0.2448
0.278345
0.309226
0.330731
0.353372
0.363361
0.361626
0.350787
0.384084
0.390411
0.396867
0.407042
0.418415
0.432264
0.448318
0.40145
0.398038
0.478545
0.488967
0.44895
0.311725
0.263606
0.147316
0.0822499
0.0498983
0.0523223
0.0273795
0.0219898
0.00379618
0.000282483
0.000159485
0.000146637
0.000236737
0.000146887
0.000242145
0.000151941
0.000152805
0.000253928
0.000157757
0.000159191
0.000265052
0.000164575
0.000274907
0.000172354
0.000174304
0.000290443
0.000180239
0.000301285
0.000188774
0.000190922
0.000318411
0.000197584
0.000199677
0.000333032
0.00020656
0.000345813
0.000216573
0.000219343
0.000366362
0.000227203
0.000380985
0.000238558
0.00024193
0.000405048
0.000251257
0.000254812
0.000426792
0.000264675
0.000445015
0.000278621
0.000283168
0.000474763
0.000294353
0.000495262
0.000309959
0.000315033
0.000528455
0.000327636
0.000332547
0.000557394
0.00034538
0.00058095
0.00036335
0.000369588
0.000619246
0.000383538
0.000645272
0.000403425
0.000410506
0.000688388
0.000426348
0.000433226
0.000726242
0.000449539
0.000756859
0.000472879
0.000481221
0.000807056
0.000499174
0.000840502
0.000524654
0.000533568
0.000894819
0.000552996
0.000560999
0.000939749
0.000579969
0.00097528
0.000607506
4.62183e-05
3.66451e-05
3.05408e-05
2.76157e-05
2.59184e-05
2.22251e-05
1.88579e-05
1.54453e-05
1.08465e-05
7.60854e-06
6.0261e-06
3.26024e-06
2.50664e-06
1.91011e-06
1.53099e-06
1.41095e-06
1.11072e-06
1.24179e-06
1.11954e-06
1.18114e-06
1.15015e-06
1.14582e-06
1.07108e-06
1.0483e-06
7.05059e-05
0.000334514
0.000239013
0.000150037
8.00676e-05
1.96234e-05
6.44413e-06
1.59955e-06
1.26095e-06
1.29384e-06
1.3583e-06
1.30506e-06
1.32727e-06
1.43757e-06
1.93702e-06
4.45765e-06
9.24398e-06
1.03462e-05
1.90559e-05
4.51252e-05
0.00010023
0.000214026
0.000427482
0.000719545
0.000938252
0.00101264
0.00111541
0.00123666
0.00136611
0.0014901
0.00161555
0.00176198
0.00191898
0.00207956
0.00223671
0.00238268
0.00251197
0.0026131
0.00266412
0.002664
0.00257064
0.00239285
0.00214927
0.00185074
0.00155566
0.00132973
0.00112856
0.0011205
0.000933767
0.000315971
2.764e-05
7.60915e-06
7.02777e-06
2.26605e-05
0.000217403
4.87561e-05
3.70309e-05
3.02759e-05
2.74233e-05
2.57477e-05
2.20638e-05
1.87194e-05
1.53709e-05
1.08261e-05
7.60163e-06
6.03862e-06
3.26176e-06
2.50886e-06
1.91232e-06
1.53118e-06
1.40971e-06
1.10386e-06
1.24386e-06
1.12279e-06
1.18348e-06
1.15398e-06
1.15256e-06
1.07798e-06
1.05131e-06
7.94569e-05
0.000365355
0.000249964
0.000161663
8.87792e-05
2.16376e-05
6.06708e-06
1.64829e-06
1.26384e-06
1.29228e-06
1.35432e-06
1.29923e-06
1.3183e-06
1.42695e-06
1.92946e-06
4.47566e-06
9.21436e-06
1.07943e-05
2.07539e-05
4.92194e-05
0.000109426
0.000233203
0.00045855
0.000743158
0.000925538
0.00101816
0.00113514
0.00126709
0.00140577
0.00153588
0.0016636
0.00181425
0.00197672
0.00214398
0.00230888
0.00246339
0.00259771
0.00270266
0.00275538
0.00275431
0.00265524
0.00246821
0.00221382
0.00190418
0.00160708
0.0013916
0.00115223
0.00112614
0.000976438
0.000364477
3.25363e-05
7.76754e-06
6.99364e-06
2.4457e-05
0.000220803
5.32485e-05
3.86181e-05
3.08027e-05
2.80244e-05
2.64444e-05
2.26804e-05
1.91397e-05
1.55895e-05
1.09338e-05
7.66204e-06
6.07995e-06
3.30098e-06
2.5324e-06
1.92264e-06
1.53996e-06
1.40465e-06
1.0947e-06
1.24337e-06
1.12833e-06
1.19061e-06
1.16548e-06
1.16701e-06
1.10112e-06
1.25138e-06
8.02375e-05
0.000434178
0.0002886
0.000186436
0.00010314
2.62553e-05
5.82793e-06
1.64633e-06
1.28304e-06
1.30641e-06
1.36113e-06
1.30613e-06
1.32504e-06
1.43264e-06
1.92951e-06
4.50731e-06
9.18198e-06
1.16293e-05
2.34926e-05
5.59583e-05
0.000124697
0.000263087
0.000499547
0.00076735
0.000927331
0.00103345
0.00115913
0.00129776
0.00144294
0.00157847
0.00171268
0.00187189
0.00204473
0.00222322
0.00240015
0.00256741
0.00271539
0.00283191
0.00289001
0.00289162
0.00278927
0.00259448
0.00232682
0.00200133
0.0016872
0.00145485
0.00118281
0.00114719
0.00103301
0.00044316
4.14734e-05
8.01994e-06
6.98874e-06
2.56076e-05
0.000221685
5.87829e-05
4.18509e-05
3.22085e-05
2.89057e-05
2.72546e-05
2.34944e-05
1.98223e-05
1.60347e-05
1.11599e-05
7.78491e-06
6.1526e-06
3.33805e-06
2.55407e-06
1.93361e-06
1.54059e-06
1.39271e-06
1.07862e-06
1.24423e-06
1.13378e-06
1.19705e-06
1.17968e-06
1.18588e-06
1.12474e-06
1.53667e-06
0.000104772
0.000486996
0.000321346
0.000212451
0.000119812
3.07012e-05
6.72946e-06
1.557e-06
1.26709e-06
1.30128e-06
1.35923e-06
1.30592e-06
1.32581e-06
1.43372e-06
1.92564e-06
4.47548e-06
9.27682e-06
1.25373e-05
2.64295e-05
6.33131e-05
0.000141043
0.000293103
0.000537838
0.000793659
0.000942047
0.00105871
0.00119071
0.00133483
0.00148553
0.00162702
0.00176766
0.00193418
0.00211727
0.00230719
0.0024966
0.0026771
0.00283916
0.00296487
0.0030279
0.00303121
0.00292409
0.00271951
0.00243683
0.00209495
0.00176483
0.0015264
0.00121828
0.00117035
0.00108617
0.000526865
5.39055e-05
8.49544e-06
6.96465e-06
2.56503e-05
0.000222431
6.57172e-05
4.6595e-05
3.43983e-05
2.99013e-05
2.79481e-05
2.40895e-05
2.02865e-05
1.63151e-05
1.13024e-05
7.82836e-06
6.15534e-06
3.34266e-06
2.55106e-06
1.93103e-06
1.53834e-06
1.38619e-06
1.06626e-06
1.24833e-06
1.14298e-06
1.20656e-06
1.19053e-06
1.20153e-06
1.15971e-06
2.21795e-06
0.000127976
0.000553495
0.000357955
0.000241858
0.000141187
3.6907e-05
6.46759e-06
1.54508e-06
1.25102e-06
1.28608e-06
1.34911e-06
1.30167e-06
1.3238e-06
1.43214e-06
1.91394e-06
4.42404e-06
9.286e-06
1.3512e-05
2.95909e-05
7.1355e-05
0.000158356
0.000322649
0.00057136
0.000814027
0.000958014
0.00108406
0.00122192
0.00137185
0.00152849
0.00167671
0.00182432
0.00199863
0.00219207
0.00239455
0.00259763
0.00279261
0.0029692
0.00310432
0.00317253
0.00317756
0.00306537
0.00285036
0.00255219
0.00219283
0.00184584
0.0016008
0.00125306
0.00119301
0.0011357
0.000613916
6.89673e-05
9.15187e-06
6.94767e-06
2.60162e-05
0.000220344
7.38653e-05
5.32271e-05
3.7731e-05
3.13448e-05
2.88673e-05
2.48881e-05
2.09253e-05
1.67488e-05
1.15705e-05
7.92724e-06
6.18459e-06
3.36331e-06
2.55341e-06
1.92207e-06
1.53271e-06
1.37828e-06
1.0544e-06
1.25476e-06
1.15059e-06
1.21418e-06
1.20609e-06
1.21624e-06
1.14712e-06
3.70242e-06
0.000154524
0.000618845
0.000395107
0.000275448
0.000166988
4.50711e-05
5.96153e-06
1.52227e-06
1.23173e-06
1.26154e-06
1.33441e-06
1.29413e-06
1.32072e-06
1.43033e-06
1.89729e-06
4.35579e-06
9.38917e-06
1.45226e-05
3.29959e-05
8.01844e-05
0.000176833
0.00035256
0.000603222
0.000834554
0.000978381
0.00111244
0.0012561
0.00141207
0.00157475
0.00172945
0.00188408
0.00206618
0.00226946
0.00248524
0.00270286
0.00291329
0.00310497
0.00324979
0.00332307
0.00332926
0.00321085
0.00298379
0.00266875
0.00229044
0.00192576
0.00167455
0.00128779
0.0012174
0.00118181
0.000700104
8.69194e-05
1.0086e-05
6.94828e-06
2.6596e-05
0.000217912
8.32891e-05
6.17142e-05
4.25385e-05
3.34727e-05
3.01138e-05
2.5922e-05
2.17838e-05
1.73995e-05
1.20171e-05
8.16475e-06
6.27457e-06
3.41736e-06
2.56664e-06
1.92282e-06
1.52268e-06
1.36783e-06
1.04065e-06
1.25608e-06
1.16386e-06
1.22642e-06
1.21893e-06
1.23607e-06
1.31824e-06
5.37719e-06
0.000142681
0.000677885
0.000436049
0.000313319
0.000196873
5.48907e-05
6.53535e-06
1.50949e-06
1.20835e-06
1.24463e-06
1.3243e-06
1.28971e-06
1.31913e-06
1.42906e-06
1.88415e-06
4.29931e-06
9.41363e-06
1.55444e-05
3.66647e-05
8.98252e-05
0.000196357
0.000382559
0.000633181
0.000854311
0.00100061
0.00114227
0.00129204
0.00145447
0.00162343
0.00178447
0.00194641
0.00213654
0.00234961
0.00257925
0.00281253
0.00303962
0.00324632
0.00340115
0.0034795
0.00348643
0.0033608
0.0031203
0.00278723
0.00238859
0.0020054
0.00174627
0.00132126
0.00124341
0.00122445
0.000783423
0.000107816
1.13707e-05
6.96905e-06
2.66997e-05
0.000214905
9.40641e-05
7.21375e-05
4.91861e-05
3.65548e-05
3.17582e-05
2.71509e-05
2.28186e-05
1.82327e-05
1.26188e-05
8.52868e-06
6.46668e-06
3.52399e-06
2.60333e-06
1.92955e-06
1.51266e-06
1.35699e-06
1.02875e-06
1.26755e-06
1.17662e-06
1.23762e-06
1.23605e-06
1.25194e-06
1.3781e-06
6.90714e-06
0.000280923
0.000738423
0.000478975
0.00035728
0.000232505
6.72791e-05
7.80378e-06
1.50351e-06
1.18821e-06
1.22708e-06
1.31373e-06
1.28555e-06
1.3177e-06
1.42824e-06
1.86611e-06
4.21242e-06
9.65236e-06
1.65745e-05
4.0654e-05
0.000100314
0.000216851
0.000412452
0.000661525
0.000874452
0.00102517
0.00117432
0.00133055
0.0014998
0.00167523
0.0018423
0.00201174
0.00221006
0.0024331
0.00267663
0.0029267
0.00317176
0.00339369
0.00355886
0.0036422
0.00364928
0.00351511
0.00325941
0.00290679
0.00248616
0.00208351
0.00181424
0.0013533
0.00127092
0.00126403
0.000862775
0.000131483
1.31056e-05
7.01946e-06
2.77264e-05
0.000209545
0.000106332
8.45471e-05
5.8092e-05
4.0932e-05
3.39497e-05
2.85951e-05
2.40392e-05
1.92564e-05
1.33835e-05
9.02227e-06
6.75206e-06
3.68242e-06
2.66959e-06
1.9522e-06
1.51035e-06
1.34675e-06
1.01719e-06
1.26492e-06
1.18752e-06
1.25315e-06
1.25069e-06
1.27389e-06
1.75112e-06
2.06452e-05
0.000420933
0.000789584
0.000526704
0.000408081
0.000274791
8.32915e-05
9.25157e-06
1.72291e-06
1.17956e-06
1.21019e-06
1.30192e-06
1.27993e-06
1.31443e-06
1.42484e-06
1.8489e-06
4.12312e-06
9.6568e-06
1.76898e-05
4.50367e-05
0.000111697
0.000238306
0.000442196
0.000688534
0.000895205
0.00105162
0.00120847
0.00137157
0.00154809
0.00173024
0.0019031
0.00208027
0.00228698
0.00252023
0.00277759
0.00304573
0.00330987
0.00354725
0.00372318
0.00381146
0.00381806
0.00367393
0.00340114
0.0030273
0.0025829
0.00215971
0.00187743
0.00138326
0.00130081
0.00130134
0.000936597
0.000158233
1.53763e-05
7.09397e-06
2.70413e-05
0.00020558
0.000120289
9.90169e-05
6.97067e-05
4.70207e-05
3.69446e-05
3.03892e-05
2.54685e-05
2.04871e-05
1.43367e-05
9.65677e-06
7.14427e-06
3.9058e-06
2.77108e-06
1.99707e-06
1.51567e-06
1.33597e-06
1.00909e-06
1.26959e-06
1.20029e-06
1.26194e-06
1.26623e-06
1.30723e-06
2.02923e-06
1.67231e-05
0.000606537
0.000831888
0.000579499
0.000466858
0.000325409
0.00010427
1.09761e-05
1.86755e-06
1.16143e-06
1.19521e-06
1.28909e-06
1.27417e-06
1.31023e-06
1.42081e-06
1.82705e-06
4.0174e-06
9.63822e-06
1.89015e-05
4.97742e-05
0.000124015
0.000260692
0.000471733
0.000714528
0.000916957
0.00108009
0.00124498
0.00141543
0.00159968
0.00178882
0.00196722
0.00215232
0.0023676
0.0026113
0.00288236
0.00316986
0.00345348
0.00370748
0.00389465
0.0039878
0.00399322
0.00383747
0.00354546
0.00314844
0.00267824
0.00223324
0.0019344
0.00141089
0.00133703
0.00133629
0.00100295
0.000189481
1.83402e-05
7.17682e-06
2.60583e-05
0.000200901
0.000136181
0.000115655
8.43308e-05
5.53364e-05
4.10949e-05
3.26776e-05
2.71088e-05
2.1922e-05
1.54951e-05
1.0444e-05
7.65771e-06
4.20794e-06
2.91728e-06
2.06681e-06
1.53462e-06
1.327e-06
1.00168e-06
1.25981e-06
1.21202e-06
1.27751e-06
1.28207e-06
1.36252e-06
3.28259e-06
8.48291e-05
0.000792471
0.00087863
0.000636233
0.000534723
0.000386163
0.000132071
1.30691e-05
2.05824e-06
1.18992e-06
1.1818e-06
1.27595e-06
1.26777e-06
1.3046e-06
1.41306e-06
1.79991e-06
3.88724e-06
9.76012e-06
2.0226e-05
5.48891e-05
0.00013713
0.000283975
0.000501005
0.000739797
0.00093993
0.00111059
0.00128402
0.00146235
0.00165486
0.00185128
0.00203504
0.00222828
0.00245229
0.00270672
0.00299189
0.00329952
0.00360284
0.00387476
0.00407376
0.00417172
0.00417521
0.00400602
0.0036924
0.00326999
0.00277175
0.0023034
0.00198375
0.00143652
0.00136666
0.00137106
0.00106194
0.000224473
2.21142e-05
7.29617e-06
2.48105e-05
0.00019471
0.000154305
0.000134633
0.000102011
6.64082e-05
4.68213e-05
3.56491e-05
2.89844e-05
2.35723e-05
1.68829e-05
1.14071e-05
8.31371e-06
4.60533e-06
3.11858e-06
2.16743e-06
1.56949e-06
1.32138e-06
9.9957e-07
1.2532e-06
1.22329e-06
1.28805e-06
1.29542e-06
1.41071e-06
3.73647e-06
0.000131358
0.000932958
0.000926817
0.000695307
0.000610059
0.000458255
0.000169026
1.5352e-05
2.33665e-06
1.20835e-06
1.17146e-06
1.26157e-06
1.26024e-06
1.29712e-06
1.40551e-06
1.77748e-06
3.76776e-06
9.79059e-06
2.1683e-05
6.04213e-05
0.000150891
0.000308127
0.000529978
0.000764625
0.000964348
0.00114325
0.00132581
0.00151262
0.00171395
0.001918
0.00210699
0.00230854
0.00254145
0.00280689
0.00310661
0.00343362
0.00375827
0.00404962
0.00426113
0.00436388
0.00436463
0.00417998
0.00384212
0.00339174
0.00286295
0.00236941
0.00202406
0.0014601
0.00139326
0.00140498
0.00111432
0.000262673
2.68202e-05
7.44329e-06
2.36774e-05
0.000190102
0.000175051
0.000156137
0.000122839
8.07787e-05
5.46366e-05
3.95966e-05
3.11769e-05
2.54692e-05
1.85319e-05
1.25903e-05
9.14394e-06
5.11819e-06
3.38681e-06
2.30627e-06
1.62503e-06
1.31588e-06
9.90838e-07
1.23647e-06
1.23767e-06
1.30696e-06
1.31468e-06
1.61998e-06
1.07927e-05
0.000143606
0.00103115
0.000962818
0.000754527
0.000691098
0.000541515
0.000218187
1.76455e-05
2.74454e-06
1.23308e-06
1.16542e-06
1.24951e-06
1.25186e-06
1.28849e-06
1.39236e-06
1.73964e-06
3.64236e-06
9.76134e-06
2.33014e-05
6.64031e-05
0.000165247
0.000332331
0.000558663
0.000789291
0.000990389
0.00117821
0.00137059
0.00156655
0.00177735
0.00198941
0.00218359
0.0023936
0.00263554
0.00291229
0.00322603
0.00357216
0.00392006
0.00423258
0.00445747
0.00456502
0.0045622
0.00435987
0.00399484
0.00351354
0.00295142
0.0024304
0.00205395
0.00148198
0.00141796
0.00143758
0.00115899
0.00030269
3.25466e-05
7.64208e-06
2.25891e-05
0.000183979
0.000198351
0.000180363
0.000146675
9.89307e-05
6.51445e-05
4.4917e-05
3.37913e-05
2.76354e-05
2.0458e-05
1.40298e-05
1.01762e-05
5.76953e-06
3.7349e-06
2.49181e-06
1.70851e-06
1.31755e-06
9.90692e-07
1.22745e-06
1.25167e-06
1.31374e-06
1.32617e-06
1.58716e-06
1.44646e-05
0.000300479
0.0011047
0.00098617
0.000810836
0.000775238
0.000634152
0.000284549
2.03437e-05
3.47467e-06
1.26521e-06
1.15828e-06
1.23887e-06
1.24101e-06
1.27682e-06
1.37946e-06
1.71316e-06
3.4609e-06
9.87998e-06
2.51225e-05
7.28506e-05
0.000180127
0.000356458
0.000587078
0.000814073
0.00101822
0.00121564
0.00141862
0.00162452
0.00184548
0.00206594
0.00226539
0.00248397
0.00273519
0.00302215
0.00334968
0.00371522
0.00408854
0.00442425
0.00466357
0.00477601
0.00476876
0.00454633
0.00415089
0.00363533
0.00303673
0.00248549
0.00207241
0.00150315
0.00144123
0.001469
0.00119813
0.000344439
3.94163e-05
7.90527e-06
2.1286e-05
0.000179071
0.000224239
0.000207483
0.000172944
0.000121044
7.89828e-05
5.20736e-05
3.72036e-05
3.00914e-05
2.2657e-05
1.57403e-05
1.14237e-05
6.58042e-06
4.17683e-06
2.73217e-06
1.82662e-06
1.33083e-06
9.84508e-07
1.21805e-06
1.24718e-06
1.33588e-06
1.3621e-06
2.86103e-06
2.88235e-05
0.000341777
0.00117471
0.000992913
0.000860184
0.0008587
0.000731608
0.000376199
2.49841e-05
5.4704e-06
1.24377e-06
1.1783e-06
1.2304e-06
1.22956e-06
1.26445e-06
1.36087e-06
1.67063e-06
3.3544e-06
1.01773e-05
2.71856e-05
7.97572e-05
0.000195412
0.000380368
0.000615257
0.000839239
0.00104801
0.00125575
0.00147022
0.00168692
0.00191883
0.0021481
0.00235304
0.00258035
0.00283923
0.00313609
0.00347786
0.0038635
0.00426406
0.00462528
0.00488035
0.00499785
0.00498535
0.00474019
0.00431076
0.00375708
0.00311853
0.00253375
0.00207984
0.00152502
0.00146316
0.00149896
0.00125694
0.000388027
4.75092e-05
8.25442e-06
2.02356e-05
0.000173219
0.000252808
0.000237641
0.000201394
0.000147124
9.67988e-05
6.16335e-05
4.17254e-05
3.28997e-05
2.51495e-05
1.77417e-05
1.29086e-05
7.57203e-06
4.72893e-06
3.03537e-06
1.98434e-06
1.3685e-06
9.78284e-07
1.20783e-06
1.23713e-06
1.33339e-06
1.40375e-06
2.67414e-06
3.39842e-05
0.000451463
0.0012225
0.000996218
0.000896173
0.000934384
0.000828658
0.000497626
3.3139e-05
8.11035e-06
1.39756e-06
1.19762e-06
1.22686e-06
1.21847e-06
1.24851e-06
1.3433e-06
1.64255e-06
3.16973e-06
1.06106e-05
2.95195e-05
8.70875e-05
0.000210937
0.000403919
0.000643258
0.000865033
0.00107991
0.00129882
0.00152574
0.00175422
0.00199797
0.00223644
0.00244722
0.00268219
0.00294748
0.00325436
0.00361082
0.00401744
0.00444695
0.00483639
0.00510887
0.00523172
0.00521316
0.00494246
0.00447509
0.00387891
0.00319651
0.00257433
0.00207541
0.00154973
0.0014836
0.00152785
0.00128071
0.000434213
5.6932e-05
8.71718e-06
1.88824e-05
0.000167068
0.000284186
0.000270986
0.000232226
0.000177212
0.000119101
7.42327e-05
4.77595e-05
3.61597e-05
2.79735e-05
2.00617e-05
1.46613e-05
8.76454e-06
5.40722e-06
3.40991e-06
2.18615e-06
1.43148e-06
9.73975e-07
1.20411e-06
1.23609e-06
1.29777e-06
1.44562e-06
5.86657e-06
6.5796e-05
0.000537755
0.00124733
0.000989975
0.000906753
0.000985907
0.000922157
0.000651039
4.42554e-05
1.09215e-05
1.49947e-06
1.22273e-06
1.21921e-06
1.21233e-06
1.23354e-06
1.32109e-06
1.59642e-06
3.17423e-06
1.12344e-05
3.2142e-05
9.47765e-05
0.000226506
0.000426977
0.000671168
0.000891693
0.00111409
0.0013452
0.00158555
0.00182695
0.00208353
0.00233165
0.00254906
0.00278872
0.00306024
0.00337719
0.00374879
0.00417741
0.00463758
0.00505837
0.00535033
0.00547899
0.00545365
0.00515439
0.00464471
0.00400104
0.00327052
0.00260648
0.00207052
0.00157959
0.00150186
0.00155562
0.00136297
0.000477774
6.7517e-05
9.33073e-06
1.77339e-05
0.000161582
0.000318521
0.000307656
0.000265711
0.000210979
0.000146013
9.05122e-05
5.57835e-05
3.99842e-05
3.11575e-05
2.27113e-05
1.66955e-05
1.01693e-05
6.22196e-06
3.86254e-06
2.43696e-06
1.52656e-06
9.77429e-07
1.20126e-06
1.23559e-06
1.31828e-06
1.72645e-06
6.4534e-06
7.39438e-05
0.000625622
0.00124431
0.000969605
0.000903453
0.00101268
0.00101013
0.00083739
5.85183e-05
1.34299e-05
1.65575e-06
1.2291e-06
1.23937e-06
1.20438e-06
1.21839e-06
1.3011e-06
1.56985e-06
3.20492e-06
1.20216e-05
3.50537e-05
0.000102749
0.000241945
0.000449429
0.000699099
0.000919442
0.00115076
0.00139527
0.00165011
0.0019057
0.00217624
0.00243441
0.00265756
0.0029004
0.00317778
0.00350482
0.00389204
0.00434372
0.00483629
0.00529207
0.00560608
0.00574124
0.0057085
0.00537752
0.00482071
0.00412387
0.00334063
0.00263076
0.00205204
0.00160718
0.00151612
0.00157631
0.00140413
0.000524878
7.94259e-05
1.01437e-05
1.66082e-05
0.000155984
0.000356042
0.000347703
0.000302175
0.000247934
0.000177617
0.000111102
6.63636e-05
4.46233e-05
3.47639e-05
2.57054e-05
1.90156e-05
1.1793e-05
7.18202e-06
4.39653e-06
2.7397e-06
1.66144e-06
9.96098e-07
1.20877e-06
1.22962e-06
1.32775e-06
1.9168e-06
8.65005e-06
0.000129381
0.000714847
0.00120806
0.000928083
0.000865246
0.0010189
0.00108833
0.00105341
7.96904e-05
1.51403e-05
1.81712e-06
1.2777e-06
1.23774e-06
1.20973e-06
1.21048e-06
1.27886e-06
1.51542e-06
3.40462e-06
1.30294e-05
3.8253e-05
0.00011093
0.000257106
0.000471189
0.000727184
0.000948496
0.00119013
0.00144924
0.00171991
0.00199114
0.00227691
0.00254569
0.00277223
0.00301768
0.00330041
0.00363751
0.00404083
0.00451676
0.00504343
0.0055384
0.00587768
0.00602031
0.00597974
0.00561372
0.00500448
0.0042481
0.00340736
0.00264768
0.00201546
0.00163151
0.00152477
0.00158441
0.00142736
0.000560746
9.20524e-05
1.12078e-05
1.54392e-05
0.000149308
0.000396918
0.000391262
0.000341931
0.000287932
0.00021379
0.000136352
8.01112e-05
5.0486e-05
3.88948e-05
2.90828e-05
2.16482e-05
1.36495e-05
8.29941e-06
5.01556e-06
3.09309e-06
1.83983e-06
1.03476e-06
1.22781e-06
1.24e-06
1.3313e-06
1.89611e-06
1.52762e-05
0.000145439
0.000780445
0.00114657
0.000863317
0.000811905
0.000990174
0.00114384
0.00127785
0.000113357
1.58849e-05
1.87982e-06
1.26724e-06
1.253e-06
1.21674e-06
1.20031e-06
1.25796e-06
1.48282e-06
3.79493e-06
1.42075e-05
4.17221e-05
0.000119263
0.000271862
0.000492174
0.000755156
0.000979117
0.00123246
0.00150736
0.0017955
0.00208401
0.00238646
0.00266714
0.00289375
0.00314104
0.00342846
0.00377552
0.00419545
0.00469693
0.0052595
0.00579832
0.00616688
0.00631835
0.00626971
0.00586526
0.0051978
0.00437482
0.00347197
0.00265848
0.00197192
0.00165633
0.00152656
0.00159411
0.00141785
0.000602667
0.000105518
1.25676e-05
1.47619e-05
0.000143796
0.000441359
0.000438493
0.000385215
0.000330371
0.000253724
0.000166382
9.76111e-05
5.82793e-05
4.36762e-05
3.28757e-05
2.46132e-05
1.57518e-05
9.58246e-06
5.72537e-06
3.49357e-06
2.06633e-06
1.09642e-06
1.25902e-06
1.28286e-06
1.33071e-06
3.06111e-06
1.94002e-05
0.000175202
0.000804155
0.00106123
0.000792813
0.000762824
0.000928936
0.00116267
0.00145439
0.000171361
1.47809e-05
2.37338e-06
1.46967e-06
1.2663e-06
1.21971e-06
1.19895e-06
1.24304e-06
1.44947e-06
4.20607e-06
1.56117e-05
4.54347e-05
0.000127655
0.000286094
0.000512197
0.000781479
0.0010117
0.00127804
0.0015701
0.00187746
0.00218514
0.00250574
0.00279624
0.00302298
0.00327105
0.00356229
0.00391912
0.00435617
0.00488464
0.00548571
0.00607283
0.00647565
0.00663781
0.00658121
0.00613496
0.00540302
0.0045058
0.00353687
0.00266639
0.00192745
0.00168711
0.00152496
0.00158789
0.00141358
0.000635401
0.00011921
1.42543e-05
1.39826e-05
0.000137379
0.000489611
0.00048958
0.000432161
0.000374584
0.000297257
0.000201239
0.000119382
6.85008e-05
4.92755e-05
3.71375e-05
2.79262e-05
1.81061e-05
1.10328e-05
6.53031e-06
3.93882e-06
2.3341e-06
1.18882e-06
1.30056e-06
1.34892e-06
1.37235e-06
3.66429e-06
2.42419e-05
0.000181951
0.000862613
0.000958633
0.000730217
0.00074292
0.000881108
0.00114151
0.00154709
0.000274001
1.91684e-05
2.76876e-06
1.62149e-06
1.37478e-06
1.21947e-06
1.18791e-06
1.2134e-06
1.50388e-06
4.95506e-06
1.71952e-05
4.93815e-05
0.000135849
0.000299653
0.00053117
0.000806689
0.00104662
0.00132719
0.001638
0.0019664
0.00229545
0.00263588
0.00293265
0.00316077
0.00340835
0.0037023
0.00406859
0.00452327
0.00508032
0.00572278
0.00636296
0.00680617
0.00698155
0.00691754
0.00642628
0.00562324
0.00464459
0.00360642
0.00267702
0.00189977
0.00173163
0.00153035
0.00158321
0.0014581
0.000680859
0.000132985
1.62425e-05
1.42592e-05
0.000131168
0.000541934
0.000544728
0.000482853
0.000420925
0.00034429
0.000240385
0.000145672
8.16779e-05
5.59077e-05
4.19507e-05
3.16239e-05
2.07346e-05
1.26597e-05
7.43479e-06
4.42693e-06
2.64091e-06
1.31657e-06
1.35341e-06
1.43047e-06
1.44367e-06
3.96303e-06
3.00191e-05
0.00026145
0.000851328
0.000860463
0.00067926
0.000746966
0.000854036
0.00108803
0.00155629
0.00044439
2.77692e-05
4.38776e-06
1.80766e-06
1.42546e-06
1.27102e-06
1.20136e-06
1.20875e-06
1.47227e-06
5.64679e-06
1.89579e-05
5.35423e-05
0.000143917
0.000312461
0.000549081
0.000831094
0.00108422
0.00138031
0.00171158
0.00206301
0.00241603
0.00277888
0.00307784
0.00330799
0.00355369
0.00384893
0.0042242
0.00469702
0.00528439
0.00597152
0.00666977
0.0071609
0.00735292
0.00728263
0.0067436
0.00586283
0.00479692
0.00368772
0.00269888
0.00188762
0.00179922
0.00154931
0.00156081
0.00142558
0.000704385
0.000146043
1.85081e-05
1.42998e-05
0.000125353
0.000598585
0.000604138
0.000537372
0.000470163
0.000393853
0.000283291
0.000176542
9.8327e-05
6.38208e-05
4.74012e-05
3.57386e-05
2.36631e-05
1.44801e-05
8.44835e-06
4.95768e-06
2.9797e-06
1.48043e-06
1.41709e-06
1.52145e-06
1.52822e-06
3.82782e-06
3.27395e-05
0.000265705
0.000819485
0.000788287
0.000679646
0.000788984
0.000848554
0.00100906
0.00150268
0.000683605
3.9602e-05
7.34403e-06
1.93932e-06
1.41905e-06
1.28938e-06
1.19621e-06
1.2151e-06
1.60744e-06
6.75635e-06
2.08797e-05
5.78578e-05
0.000153066
0.000324588
0.000565945
0.000855011
0.00112483
0.00143778
0.00179147
0.00216809
0.00254796
0.00293786
0.00323395
0.0034657
0.00370797
0.00400268
0.00438622
0.00487765
0.00549723
0.00623268
0.0069943
0.00754251
0.00775588
0.00768124
0.00709256
0.00612818
0.00497116
0.00379178
0.00274352
0.001886
0.00190024
0.00158726
0.00158398
0.00145843
0.000717961
0.000158746
2.09564e-05
1.4303e-05
0.000118744
0.000659816
0.000667988
0.000595812
0.000522911
0.000446151
0.000329794
0.000211939
0.000118906
7.3328e-05
5.36087e-05
4.03072e-05
2.69034e-05
1.65039e-05
9.58086e-06
5.5351e-06
3.33886e-06
1.68155e-06
1.49348e-06
1.61884e-06
1.64886e-06
4.33608e-06
5.06807e-05
0.000328121
0.000763546
0.000746646
0.000725818
0.000850879
0.000843516
0.000957395
0.00143913
0.000899559
5.33294e-05
1.44732e-05
3.32733e-06
1.45468e-06
1.27069e-06
1.20449e-06
1.2305e-06
1.78645e-06
7.80699e-06
2.28754e-05
6.23021e-05
0.00016247
0.000335894
0.00058184
0.000878763
0.00116881
0.00149999
0.00187821
0.00228251
0.00269209
0.00311073
0.00340251
0.00363514
0.00387225
0.00416416
0.00455493
0.00506539
0.00571921
0.0065071
0.00733757
0.00795396
0.0081951
0.00811921
0.00748068
0.00642897
0.00518063
0.00391975
0.00280132
0.00191904
0.00199528
0.0016568
0.00153828
0.00141706
0.000760726
0.000172757
2.35276e-05
1.43331e-05
0.00011226
0.000725871
0.000736445
0.000658233
0.000579601
0.000500944
0.000379017
0.000251267
0.000143675
8.47603e-05
6.07183e-05
4.53889e-05
3.04808e-05
1.87441e-05
1.08414e-05
6.16632e-06
3.71683e-06
1.91426e-06
1.58523e-06
1.71779e-06
1.76991e-06
5.30095e-06
5.06604e-05
0.00033629
0.000693801
0.000711823
0.000776983
0.000897617
0.000824952
0.000896037
0.00138844
0.00100279
7.54552e-05
2.41716e-05
4.64632e-06
1.89476e-06
1.38816e-06
1.21734e-06
1.26145e-06
2.08206e-06
9.22287e-06
2.50211e-05
6.68685e-05
0.000172137
0.000346511
0.000596877
0.000902672
0.00121651
0.00156732
0.00197229
0.0024072
0.00284973
0.00329735
0.00358503
0.00381778
0.00404785
0.00433405
0.00473061
0.00526039
0.00595067
0.00679564
0.00770163
0.00839841
0.00867626
0.00860355
0.00791147
0.00675994
0.00539062
0.00401984
0.00283709
0.00192104
0.00209174
0.00172964
0.00154818
0.00143606
0.000776893
0.000185718
2.6171e-05
1.38836e-05
0.000106706
0.000796994
0.000809727
0.000724615
0.000640346
0.000556543
0.000430715
0.000294095
0.00017274
9.86004e-05
6.89071e-05
5.10466e-05
3.44296e-05
2.12241e-05
1.22449e-05
6.86125e-06
4.10742e-06
2.17514e-06
1.69442e-06
1.81757e-06
1.95214e-06
7.31228e-06
6.6936e-05
0.000305819
0.000635683
0.000683707
0.000819208
0.00091585