/*--------------------------------*- C++ -*----------------------------------*\
| =========                 |                                                 |
| \\      /  F ield         | OpenFOAM: The Open Source CFD Toolbox           |
|  \\    /   O peration     | Version:  4.1                                   |
|   \\  /    A nd           | Web:      www.OpenFOAM.org                      |
|    \\/     M anipulation  |                                                 |
\*---------------------------------------------------------------------------*/
FoamFile
{
    version     2.0;
    format      ascii;
    class       volScalarField;
    location    "3";
    object      k;
}
// * * * * * * * * * * * * * * * * * * * * * * * * * * * * * * * * * * * * * //

dimensions      [0 2 -2 0 0 0 0];

internalField   nonuniform List<scalar> 
6785
(
0.413849
0.00018662
0.000178308
0.000178311
0.000178334
0.000178292
0.000178314
0.000178333
0.000178292
0.000178315
0.000178333
0.000178282
0.000178528
0.000486465
0.552927
0.534102
0.000949369
2.73806e-07
2.55716e-07
2.43408e-07
2.30813e-07
2.18669e-07
2.06405e-07
1.94116e-07
1.8242e-07
1.71968e-07
1.68107e-07
5.46137e-06
0.00654976
0.247456
0.651008
0.00579307
1.19226e-08
6.85609e-08
1.6126e-05
0.000169627
0.000491312
0.000949669
0.00150126
0.0020794
0.00273457
0.00387446
0.00739173
0.0262544
0.0466685
0.789613
0.0109031
1.42926e-06
4.80992e-08
1.77785e-05
0.000314955
0.00123807
0.00290057
0.00600688
0.0110699
0.0164829
0.0160896
0.0159749
0.0232755
0.0523839
0.959967
0.02059
4.88465e-05
1.07719e-06
1.8736e-05
0.000273139
0.00147857
0.00378462
0.00770086
0.0138928
0.0226745
0.0267434
0.0203313
0.0201302
0.0583502
1.12496
0.0682673
0.00088487
1.80187e-05
2.05404e-05
0.000134309
0.000876393
0.00292711
0.00542714
0.00799363
0.0111427
0.012636
0.0124223
0.012756
0.02661
1.25615
0.144061
0.0104799
0.000895694
0.000146494
0.000109752
0.000448121
0.00205494
0.00375065
0.00470955
0.0053379
0.00540686
0.0051457
0.0071487
0.00835739
1.33932
0.21861
0.0271387
0.0038223
0.000786341
0.000239161
0.000307592
0.00153641
0.00286616
0.00329046
0.00319049
0.00297716
0.00347248
0.00593786
0.00633359
1.3789
0.277845
0.0460844
0.00865619
0.0021942
0.000646369
0.000380293
0.00131125
0.00244773
0.0026871
0.0023787
0.00205044
0.00277251
0.00531054
0.00536017
1.39109
0.312305
0.063916
0.0157677
0.00488719
0.00161502
0.00075376
0.00127743
0.00225088
0.00244005
0.00207687
0.00176955
0.00233745
0.00475397
0.00555708
1.39464
0.316482
0.0767607
0.0237064
0.00902688
0.00349575
0.00187879
0.00185558
0.00249495
0.00259153
0.00218959
0.00178784
0.00201292
0.00447478
0.00821785
1.3983
0.304336
0.0814036
0.0295133
0.0137804
0.00749109
0.00661322
0.00515753
0.00442866
0.00363144
0.00272293
0.00199093
0.00182938
0.00479863
0.0142144
1.43379
0.299279
0.0888097
0.0344879
0.0241123
0.0253726
0.0278836
0.0159858
0.00869835
0.00523763
0.00361655
0.00291399
0.00209978
0.0073406
0.0307874
1.39935
0.504159
0.161601
0.0731042
0.0454605
0.0488025
0.0474445
0.0240406
0.0107989
0.00675074
0.00757223
0.00940076
0.0102687
0.0246735
0.0543925
1.38758
3.09075
1.31672
0.644174
0.386307
0.320286
0.304554
0.276525
0.231741
0.176662
0.0983161
0.0470158
0.0247692
0.0918981
0.0696686
0.378663
0.451694
0.429962
0.433121
0.444937
0.503746
0.474313
0.472202
0.479627
0.535189
0.50762
0.506777
0.548586
0.510783
0.499835
0.4966
0.533054
0.498512
0.489419
0.512381
0.472888
0.457914
0.447401
0.463045
0.42632
0.411766
0.40093
0.412014
0.380864
0.369804
0.378284
0.34725
0.335318
0.326288
0.335976
0.308979
0.299632
0.308098
0.280064
0.26991
0.262115
0.273901
0.246679
0.237824
0.23129
0.248134
0.221172
0.214619
0.235719
0.205567
0.199339
0.195688
0.22744
0.199538
0.198905
0.201514
0.253258
0.232751
0.242226
0.321209
0.281175
0.282665
0.285969
0.359905
0.305539
0.305695
0.352799
0.304854
0.301513
0.303254
0.330301
0.319091
0.323876
0.33067
0.34459
0.344416
0.349286
0.355192
0.354934
0.358167
0.360865
0.360849
0.366081
0.37237
0.359017
0.36718
0.371605
0.379565
0.388057
0.396922
0.40556
0.415084
0.441056
0.434494
0.450223
0.464563
0.478199
0.49306
0.510218
0.52729
0.545155
0.584413
0.573218
0.590923
0.606471
0.621787
0.63614
0.648251
0.659838
0.672715
0.685441
0.718159
0.705961
0.719436
0.726476
0.730712
0.732961
0.731576
0.728181
0.725873
0.738283
0.73411
0.739772
0.734689
0.73136
0.731444
0.733294
0.740212
0.745948
0.766803
0.80527
0.820771
0.839999
0.859517
0.88087
0.908937
0.940253
0.972217
1.02294
1.04524
1.05938
1.08372
1.10544
1.1319
1.15867
1.149
1.13649
1.11574
1.10164
1.07848
0.989214
0.891903
0.75918
0.61476
0.446213
0.323059
0.277482
0.221935
0.16997
0.107957
0.0433781
0.0407657
0.0384909
0.0383267
0.0384494
0.0388419
0.0392573
0.0393652
0.0400174
0.0401793
0.0403984
0.0411357
0.041287
0.0421326
0.0425614
0.04287
0.0436832
0.0438292
0.0447529
0.0451909
0.0455224
0.0464161
0.0465689
0.0468885
0.0478097
0.0479535
0.0490148
0.0494796
0.0498884
0.0509168
0.0510638
0.0522491
0.0527367
0.0532189
0.0543958
0.054562
0.0550555
0.0562862
0.0564461
0.057852
0.0583856
0.058995
0.0603485
0.0605094
0.0620415
0.0625969
0.0632521
0.0647282
0.064899
0.0655317
0.0670306
0.067185
0.0688815
0.0694711
0.0702464
0.0718404
0.0719845
0.0738242
0.0744372
0.0752895
0.077048
0.0772032
0.0780113
0.0798161
0.0799446
0.0820252
0.082669
0.0836178
0.0855733
0.0856674
0.0878983
0.0885346
0.0895064
0.0915975
0.0916442
0.0925013
0.0945869
0.0945483
0.0969255
0.0974871
0.0316048
0.0293228
0.0262907
0.0226725
0.0194103
0.015586
0.0126318
0.00974478
0.00679703
0.00510147
0.00509817
0.00442694
0.00357935
0.00265894
0.00178112
0.000742818
0.000309278
0.00119903
0.00173733
0.00171842
0.00175827
0.00172177
0.00174198
0.00166142
0.00322378
0.0775752
0.0744052
0.0487222
0.0354607
0.0163678
0.0056642
0.00213868
0.00190393
0.00182335
0.00178154
0.00180893
0.0017718
0.00175871
0.00187317
0.00298407
0.00893314
0.0205471
0.0361075
0.0557172
0.0805908
0.11311
0.154663
0.201327
0.235371
0.246248
0.26103
0.282977
0.310581
0.342215
0.376114
0.410772
0.444991
0.477492
0.506928
0.531655
0.549464
0.557747
0.55404
0.536185
0.502009
0.452947
0.396452
0.339425
0.289157
0.252768
0.242866
0.250284
0.224738
0.116842
0.0187323
0.00344635
0.00213727
0.00761538
0.0455404
0.0322012
0.0295925
0.026589
0.0230307
0.0196237
0.0156738
0.0126277
0.00967977
0.00673658
0.00505604
0.0050524
0.00439996
0.00356246
0.00264806
0.00177718
0.000745228
0.000309179
0.0011812
0.00171753
0.00170211
0.00173624
0.00169472
0.00170776
0.00162777
0.00569547
0.0817334
0.0764434
0.0508915
0.0372269
0.0175404
0.00579716
0.00219532
0.0019179
0.00182702
0.00177977
0.00180426
0.00176474
0.00175096
0.0018793
0.0031616
0.00986561
0.0219569
0.0377398
0.0581396
0.084218
0.118241
0.160527
0.204945
0.234918
0.246906
0.262723
0.285407
0.31357
0.345665
0.380012
0.415167
0.449941
0.483078
0.513246
0.538796
0.557494
0.566656
0.563697
0.546372
0.512238
0.46288
0.405533
0.347153
0.295169
0.256896
0.245244
0.251398
0.23069
0.128715
0.0246937
0.00398433
0.0021436
0.00828204
0.0462956
0.0334162
0.0303014
0.0273573
0.0239598
0.0204714
0.0163411
0.0130784
0.0099431
0.00687916
0.00514075
0.00511646
0.00445358
0.00360172
0.00267129
0.00179152
0.00075254
0.000309991
0.00116654
0.0016981
0.00168312
0.00170866
0.00165898
0.00165809
0.00156868
0.00717853
0.0879768
0.0797224
0.0541969
0.0397898
0.0192534
0.00595818
0.00207804
0.00186984
0.00178777
0.00174847
0.00177552
0.0017394
0.00172813
0.00186974
0.00332207
0.0107372
0.0232576
0.0394382
0.0607986
0.0882445
0.123689
0.166243
0.208292
0.235629
0.248915
0.265894
0.289458
0.318343
0.351083
0.386082
0.421959
0.457552
0.49164
0.522914
0.54972
0.569762
0.580235
0.578369
0.561761
0.527644
0.477686
0.41894
0.358514
0.304086
0.263301
0.249416
0.254383
0.237933
0.140353
0.0311927
0.00474476
0.0021667
0.00881301
0.046778
0.0353565
0.0318072
0.0285618
0.025034
0.021334
0.0169966
0.0135057
0.0101869
0.0070106
0.00520754
0.00515443
0.0044861
0.00362519
0.00268418
0.00179892
0.000756741
0.000309857
0.00115222
0.0016783
0.00166358
0.00168117
0.00162472
0.00161269
0.00155651
0.00975366
0.0939377
0.0832212
0.0579664
0.0428194
0.0209109
0.00670899
0.00206895
0.00184652
0.0017635
0.00172654
0.00175385
0.00171887
0.00170775
0.0018579
0.00347635
0.0115514
0.0244811
0.0412052
0.0636177
0.092402
0.129017
0.171736
0.212405
0.238278
0.252458
0.270376
0.294695
0.324244
0.357616
0.393289
0.429936
0.466424
0.501565
0.534084
0.562319
0.58391
0.595901
0.595298
0.579515
0.545467
0.494792
0.434431
0.371698
0.314577
0.271094
0.254904
0.25867
0.245465
0.151981
0.0381726
0.00574123
0.0022008
0.00932644
0.0473183
0.0378122
0.0337754
0.0300365
0.026281
0.0223342
0.0177275
0.0139587
0.0104375
0.00714467
0.00526289
0.00516891
0.00450102
0.00363371
0.00268592
0.00179851
0.000757084
0.000308389
0.00113791
0.00165785
0.00164308
0.0016531
0.00159147
0.00157205
0.00163959
0.0121967
0.100768
0.0869055
0.0621793
0.0464624
0.0229393
0.00692109
0.00212825
0.00184373
0.00175257
0.00171361
0.00173877
0.00170298
0.00168982
0.00184083
0.00360653
0.0122758
0.0256504
0.0430484
0.0666127
0.0966731
0.134211
0.176816
0.216183
0.241319
0.256418
0.275207
0.300259
0.330486
0.364532
0.400928
0.438403
0.475853
0.512126
0.545985
0.575761
0.599026
0.612651
0.613397
0.598477
0.564514
0.513007
0.45086
0.385632
0.325648
0.279404
0.260965
0.263572
0.25278
0.163562
0.0456724
0.00701031
0.00224818
0.00973625
0.0473595
0.0407512
0.0362925
0.0318766
0.0278052
0.0235931
0.0186789
0.0145611
0.0107869
0.00734307
0.0053523
0.00519797
0.00452798
0.00364873
0.00269003
0.00179806
0.000756092
0.000306153
0.00112593
0.00163751
0.00162201
0.00162383
0.00155758
0.00153576
0.00182785
0.0140333
0.107946
0.0907297
0.0667354
0.0506415
0.0254555
0.00686475
0.00218114
0.00183785
0.00173916
0.00169896
0.00172171
0.00168552
0.00166997
0.00181724
0.0036869
0.0129051
0.0268027
0.0449791
0.0698046
0.101102
0.13945
0.1819
0.220249
0.245028
0.260863
0.280393
0.306127
0.337017
0.37174
0.408868
0.447186
0.485626
0.52307
0.558321
0.589713
0.614743
0.630095
0.63227
0.618257
0.584426
0.532026
0.467987
0.400133
0.337157
0.288108
0.267449
0.268963
0.25976
0.175072
0.053717
0.00860431
0.00231631
0.0100879
0.0474991
0.0441098
0.0393383
0.0341301
0.0296411
0.0251365
0.0198818
0.0153401
0.0112517
0.00761578
0.00548572
0.00524788
0.00457065
0.00367369
0.00269874
0.00179848
0.000753999
0.000304562
0.00111583
0.00161675
0.00160034
0.00159339
0.00152306
0.00150878
0.00219043
0.0184969
0.114822
0.0948944
0.0717112
0.0552194
0.0283469
0.00715749
0.00224497
0.00183113
0.00172393
0.00168276
0.00170269
0.00166645
0.00164818
0.00178984
0.00370366
0.0134413
0.0279626
0.0470163
0.0731878
0.105663
0.144717
0.186955
0.224403
0.249024
0.265528
0.285744
0.312151
0.343716
0.379133
0.41701
0.45619
0.495646
0.534299
0.570994
0.604069
0.630949
0.648113
0.651784
0.638714
0.605053
0.551696
0.485658
0.415042
0.348933
0.297024
0.274149
0.274573
0.266342
0.18639
0.0622769
0.0105704
0.00241291
0.010392
0.0474601
0.0478529
0.0429091
0.0368562
0.0318166
0.0269651
0.0213484
0.0163122
0.0118352
0.00795966
0.00566065
0.00531471
0.0046249
0.00370666
0.00271108
0.00179868
0.000750299
0.000304007
0.00110672
0.00159535
0.00157793
0.00156194
0.00148871
0.00150537
0.00290353
0.0298596
0.121552
0.0993075
0.077091
0.0602871
0.0316408
0.00784754
0.00234113
0.00182992
0.0017112
0.00166781
0.00168398
0.00164748
0.00162583
0.00175998
0.00369227
0.0138634
0.0291499
0.0491927
0.0767612
0.110347
0.150008
0.191996
0.228698
0.2533
0.2704
0.291259
0.318336
0.350583
0.386704
0.425337
0.465389
0.505878
0.545772
0.583954
0.618775
0.647585
0.666647
0.671885
0.659794
0.626344
0.571978
0.503841
0.430329
0.360939
0.306097
0.28098
0.280305
0.272598
0.197432
0.0712896
0.0129466
0.00254636
0.0105831
0.0471713
0.0519576
0.0469509
0.0401087
0.0343666
0.0290865
0.0230984
0.0175134
0.0125592
0.00838339
0.00587974
0.00539948
0.00469055
0.00374879
0.00272848
0.00179951
0.000744542
0.000305237
0.0010987
0.00157358
0.00155496
0.00152987
0.00145642
0.00155886
0.0044108
0.0509219
0.127541
0.104076
0.082929
0.0658878
0.0354498
0.00873508
0.00246631
0.00183453
0.00170157
0.0016546
0.00166605
0.00162908
0.00160351
0.00172842
0.00367152
0.0141824
0.0303808
0.0515382
0.0805237
0.115157
0.155333
0.197032
0.233092
0.257758
0.275419
0.296907
0.324664
0.357608
0.394444
0.433841
0.474773
0.516311
0.557474
0.597186
0.633816
0.664633
0.685681
0.692555
0.68148
0.648274
0.592848
0.52251
0.44596
0.373123
0.315256
0.287845
0.286041
0.278615
0.208157
0.0806801
0.0157588
0.00272752
0.0107482
0.0469244
0.0564139
0.0514574
0.0439479
0.0373399
0.0315228
0.0251446
0.0189812
0.0134553
0.00890331
0.00614936
0.00550559
0.00476881
0.00380179
0.00275287
0.00180256
0.000737679
0.000308094
0.00109196
0.00155182
0.0015317
0.00149772
0.00143148
0.00175701
0.00753171
0.073436
0.13296
0.109229
0.0892926
0.0720991
0.0399037
0.00973526
0.0026307
0.00184458
0.00169478
0.00164296
0.00164881
0.00161131
0.00158147
0.00169572
0.00364245
0.0144181
0.0316737
0.0540722
0.0844709
0.120087
0.160691
0.202068
0.237576
0.262375
0.280578
0.302692
0.331143
0.364798
0.402358
0.442522
0.48434
0.526938
0.569394
0.610676
0.649174
0.682076
0.705199
0.713784
0.703758
0.670829
0.614293
0.54165
0.461913
0.385453
0.324444
0.294664
0.291611
0.284447
0.218517
0.0904107
0.0190197
0.00296894
0.0108824
0.0465958
0.061222
0.056421
0.048407
0.0408014
0.0343085
0.0274897
0.0207433
0.0145586
0.00953986
0.00647787
0.00563676
0.00486025
0.00386612
0.00278525
0.0018091
0.000730812
0.000312281
0.00108668
0.00153038
0.00150834
0.00146642
0.00142562
0.00220838
0.0119776
0.0950542
0.138617
0.114667
0.0962153
0.0790046
0.0451743
0.010811
0.00284311
0.00186074
0.00169157
0.00163331
0.00163263
0.00159445
0.00156013
0.0016625
0.00360615
0.0146073
0.0330428
0.056805
0.0885994
0.12513
0.166074
0.207102
0.242135
0.267125
0.285868
0.308619
0.337781
0.372163
0.410457
0.45139
0.494093
0.537759
0.581529
0.62442
0.66484
0.699907
0.725196
0.735565
0.726623
0.693995
0.636303
0.561247
0.478169
0.39789
0.333599
0.30135
0.29701
0.290121
0.228438
0.100474
0.0227416
0.00328433
0.010933
0.0461031
0.0663881
0.061838
0.0534899
0.0448167
0.0374859
0.0301377
0.0228185
0.015909
0.0103197
0.00687745
0.00579796
0.00496556
0.00394167
0.00282612
0.00182014
0.000725169
0.00031736
0.00108296
0.00150967
0.00148523
0.00143816
0.00146594
0.00315325
0.0192733
0.115068
0.144698
0.120201
0.103632
0.0866251
0.0514073
0.0119079
0.00311736
0.00188488
0.00169309
0.0016264
0.00161812
0.00157896
0.00154
0.0016295
0.00356831
0.0148315
0.0344808
0.0597404
0.0929021
0.130275
0.171473
0.21213
0.246761
0.271998
0.291293
0.314697
0.344592
0.379718
0.418752
0.460453
0.504038
0.548775
0.593875
0.638411
0.680804
0.718114
0.745662
0.757891
0.750064
0.717754
0.658865
0.581288
0.494707
0.410399
0.34265
0.307822
0.302198
0.295635
0.237848
0.110831
0.0269372
0.00368838
0.0109813
0.0456839
0.071924
0.0677087
0.0592225
0.0494564
0.0411118
0.0331079
0.0252168
0.0175473
0.011276
0.00736517
0.00599608
0.00508631
0.00402841
0.00287587
0.00183651
0.000722036
0.000322857
0.00108097
0.00149017
0.00146298
0.00141765
0.00159983
0.00485068
0.0295418
0.132355
0.150427
0.125627
0.11134
0.0948673
0.0586407
0.0129427
0.00347514
0.00191851
0.00170045
0.00162295
0.00160588
0.00156528
0.00152158
0.00159756
0.00353514
0.015105
0.0360225
0.0628768
0.0973671
0.135508
0.176872
0.217152
0.25145
0.276988
0.296859
0.320939
0.351592
0.387478
0.427259
0.469725
0.514183
0.559989
0.606431
0.65264
0.697058
0.736689
0.766591
0.780757
0.774074
0.742091
0.681964
0.601757
0.511506
0.422941
0.351524
0.313995
0.307124
0.300954
0.246684
0.12139
0.0316156
0.00419693
0.0109868
0.0451224
0.0778415
0.0740335
0.065595
0.054783
0.0452564
0.036434
0.0279344
0.0195051
0.0124449
0.00796212
0.00624007
0.00522514
0.00412679
0.00293488
0.00185886
0.000722596
0.000328227
0.00108073
0.00147243
0.00144271
0.00141444
0.00190632
0.00759068
0.0414355
0.146544
0.155408
0.130691
0.119059
0.103529
0.0669351
0.0139381
0.00394109
0.00196336
0.00171486
0.0016237
0.00159648
0.00155379
0.00150528
0.00156739
0.00350988
0.0154343
0.0377062
0.0662075
0.101975
0.140807
0.182258
0.222168
0.256198
0.282057
0.302573
0.32736
0.358797
0.395464
0.435994
0.47922
0.524541
0.571407
0.619195
0.667102
0.713594
0.755623
0.787973
0.804154
0.798643
0.766983
0.705586
0.622638
0.528546
0.435474
0.360135
0.319784
0.311713
0.306025
0.254896
0.131997
0.0367735
0.00482767
0.0109819
0.0446612
0.0841478
0.0808085
0.0725038
0.0608161
0.0499928
0.0401599
0.030967
0.0218017
0.013863
0.00869326
0.00654178
0.00538599
0.00423787
0.00300364
0.00188767
0.000727765
0.000333047
0.00108214
0.00145702
0.00142622
0.00144493
0.00249188
0.0116728
0.0558736
0.157745
0.15923
0.135098
0.126432
0.11227
0.0765309
0.0153959
0.00454794
0.00202206
0.00173765
0.0016295
0.00159053
0.00154482
0.00149142
0.00153963
0.00349449
0.0158329
0.0395635
0.0697209
0.106699
0.146146
0.187621
0.227178
0.261008
0.287224
0.308448
0.333977
0.366227
0.403695
0.44498
0.488957
0.535123
0.583034
0.632165
0.68179
0.730405
0.774907
0.809801
0.828075
0.823759
0.792409
0.729711
0.643912
0.545805
0.447952
0.368387
0.325103
0.315864
0.310786
0.262535
0.142481
0.0423945
0.0056017
0.010972
0.0441739
0.0908476
0.0880276
0.0798972
0.0675591
0.0553943
0.0443459
0.0343277
0.0244484
0.0155679
0.00958895
0.00691704
0.00557443
0.00436329
0.0030828
0.00192342
0.000738193
0.000336975
0.00108497
0.00144445
0.00141665
0.00153568
0.00349624
0.017223
0.0710962
0.166151
0.161514
0.13846
0.132894
0.120599
0.0877331
0.0176295
0.00541644
0.00209803
0.00177084
0.00164138
0.00158864
0.00153868
0.0014802
0.00151478
0.00349232
0.0163155
0.0416179
0.0734002
0.111509
0.151504
0.19295
0.232187
0.265888
0.292516
0.314501
0.34081
0.373906
0.412198
0.454241
0.498958
0.545944
0.594875
0.645343
0.696702
0.747485
0.794536
0.832068
0.852514
0.84941
0.818341
0.754321
0.665562
0.563262
0.460319
0.376172
0.329872
0.319464
0.315149
0.269628
0.152733
0.0484491
0.00654564
0.0109167
0.0435903
0.0979452
0.0956836
0.0878074
0.0750199
0.0615151
0.04906
0.0380438
0.0274476
0.0175931
0.0106841
0.00738564
0.00579787
0.00450517
0.00317324
0.00196676
0.000753955
0.00034021
0.00108882
0.00143518
0.00141861
0.00171831
0.00500942
0.0240591
0.0863765
0.17168
0.161877
0.140285
0.137734
0.128134
0.100759
0.0203891
0.00617122
0.00220868
0.00181765
0.0016607
0.00159147
0.00153567
0.00147179
0.00149322
0.00350368
0.0168976
0.0438857
0.0772268
0.116378
0.15686
0.19824
0.2372
0.270847
0.29796
0.320749
0.34788
0.381858
0.420998
0.463803
0.509245
0.55702
0.606942
0.658731
0.711833
0.764827
0.8145
0.854765
0.877461
0.875583
0.844749
0.779394
0.687565
0.58089
0.472504
0.383351
0.334014
0.322398
0.319046
0.276158
0.162588
0.0548866
0.00769342
0.0108777
0.0430786
0.105444
0.103766
0.0960567
0.0831421
0.0683671
0.054369
0.0421543
0.0307923
0.0199611
0.0120142
0.00797034
0.00606581
0.00466639
0.00327599
0.00201847
0.000775086
0.000343063
0.00109325
0.00142971
0.00143808
0.00203424
0.00717187
0.031932
0.100319
0.174159
0.159854
0.140039
0.140348
0.134639
0.115716
0.0235966
0.00679036
0.00236176
0.00188236
0.00168906
0.00159985
0.00153609
0.00146628
0.00147514
0.00353245
0.0175957
0.0463752
0.0811841
0.121284
0.162197
0.203488
0.242222
0.275897
0.303578
0.327213
0.355211
0.390113
0.430128
0.473697
0.519841
0.568369
0.619247
0.672334
0.727184
0.782428
0.834795
0.877887
0.902909
0.902267
0.871602
0.804906
0.709895
0.59865
0.484405
0.389756
0.337452
0.324557
0.32238
0.282271
0.171997
0.0616182
0.00908211
0.0108492
0.0425822
0.113349
0.112264
0.104662
0.0918467
0.0759629
0.0603359
0.0467123
0.034478
0.022685
0.0136139
0.00869729
0.00639041
0.00485097
0.00339235
0.00207935
0.000802016
0.000345604
0.00109781
0.00142854
0.0014821
0.00251392
0.00983115
0.0400836
0.111958
0.173202
0.155029
0.137364
0.140402
0.139835
0.132464
0.0274617
0.00738404
0.00256273
0.00197009
0.00172906
0.0016147
0.00154028
0.00146373
0.00146082
0.0035805
0.0184282
0.0490906
0.0852589
0.126209
0.1675
0.208695
0.247263
0.281052
0.30937
0.333915
0.362831
0.3987
0.439621
0.483955
0.530775
0.580016
0.631803
0.686159
0.742753
0.800283
0.855416
0.901427
0.928851
0.929449
0.898862
0.830829
0.732516
0.616479
0.495873
0.395137
0.340091
0.325835
0.325051
0.287871
0.180877
0.0685399
0.0107493
0.0107904
0.0420578
0.121663
0.121169
0.113645
0.101093
0.0842826
0.0669911
0.0517765
0.038508
0.0257707
0.0155161
0.00959639
0.00678686
0.00506427
0.00352407
0.00215018
0.000835185
0.000348075
0.00110207
0.00143205
0.00155704
0.00316532
0.0129487
0.0484394
0.120608
0.168562
0.147294
0.132334
0.1379
0.143227
0.150012
0.0324222
0.00776969
0.00280973
0.00208723
0.00178379
0.0016374
0.0015487
0.0014642
0.00145015
0.00365369
0.0194185
0.0520293
0.0894335
0.131135
0.172757
0.213867
0.252334
0.286329
0.315342
0.340879
0.370771
0.407657
0.449516
0.49461
0.542076
0.591984
0.64463
0.700214
0.758542
0.818389
0.87636
0.925383
0.955282
0.957121
0.926486
0.857126
0.755374
0.634271
0.506689
0.399155
0.341818
0.326141
0.326949
0.292887
0.189138
0.0754881
0.012715
0.0107642
0.0415648
0.130394
0.130473
0.123015
0.110751
0.0932204
0.074344
0.0574017
0.0429001
0.0292172
0.0177468
0.0106992
0.00727316
0.00531294
0.0036734
0.0022319
0.000875032
0.000351015
0.00110556
0.00144038
0.00166682
0.00398904
0.0164458
0.0561215
0.125903
0.160363
0.137198
0.125918
0.133478
0.144289
0.165905
0.0393044
0.00779417
0.0031146
0.00224123
0.00185748
0.00166979
0.00156194
0.00146772
0.00144333
0.00375956
0.0205936
0.0551763
0.0936838
0.136044
0.177964
0.219014
0.257452
0.29175
0.321527
0.348134
0.379064
0.41702
0.459856
0.5057
0.55378
0.604302
0.657747
0.714512
0.774556
0.836746
0.89763
0.949754
0.9822
0.985274
0.954426
0.883749
0.778378
0.651842
0.516527
0.401372
0.342503
0.325404
0.328
0.297209
0.196731
0.082327
0.0149782
0.0107375
0.0410724
0.139548
0.14017
0.132766
0.120675
0.102733
0.0823924
0.0636312
0.0476902
0.0330237
0.0203247
0.012037
0.00787
0.00560533
0.00384313
0.00232562
0.000922054
0.000355008
0.0011079
0.00145353
0.00181448
0.00498423
0.0200559
0.0625467
0.12785
0.15011
0.126237
0.119964
0.12836
0.142771
0.177348
0.0492427
0.0082913
0.00355454
0.00245589
0.00195716
0.00171447
0.00158091
0.00147446
0.00143974
0.00390692
0.0219915
0.0584987
0.0979789
0.140924
0.183113
0.224141
0.262636
0.297345
0.32796
0.355707
0.387745
0.42683
0.470682
0.517265
0.565922
0.617003
0.671179
0.729067
0.7908
0.855356
0.919226
0.974543
1.0096
1.01391
0.982624
0.910625
0.801372
0.668878
0.524916
0.401241
0.341987
0.323579
0.328105
0.300837
0.203642
0.0889058
0.0175084
0.0107349
0.0406086
0.149129
0.150254
0.142883
0.130884
0.11276
0.0910669
0.0704794
0.0529197
0.0371921
0.0232621
0.0136403
0.00860092
0.00595214
0.00403682
0.00243266
0.000976831
0.000361661
0.00110784
0.00147126
0.00199982
0.00611446
0.0235326
0.0674738
0.127275
0.139318
0.116819
0.116713
0.123858
0.13896
0.182733
0.0634511
0.0100518
0.00422785
0.00277086
0.00209791
0.00177569
0.0016068
0.00148441
0.00144001
0.00410946
0.0236626
0.0619437
0.102284
0.145766
0.188203
0.229257
0.267907
0.303142
0.334674
0.363631
0.396854
0.437128
0.482038
0.529351
0.578545
0.630121
0.684952
0.743898
0.807285
0.874224
0.941157
0.999759
1.0375
1.04301
1.01109
0.937565
0.824085
0.684881
0.53122
0.39816
0.340103
0.320669
0.327209
0.303751
0.209929
0.0951359
0.0202492
0.0107616
0.0401995
0.15914
0.160714
0.153347
0.141226
0.123131
0.100294
0.0779428
0.0586259
0.0417246
0.0265626
0.0155364
0.00949121
0.00636623
0.00425911
0.0025546
0.00104003
0.000371854
0.00110506
0.00149305
0.00221952
0.00732125
0.0266993
0.0712641
0.124814
0.129612
0.111309
0.117399
0.12066
0.133779
0.181607
0.0824638
0.0124374
0.00548625
0.00325363
0.00230414
0.00186169
0.00164191
0.00149783
0.00144293
0.00437863
0.0256906
0.0654311
0.106585
0.150564
0.193235
0.234379
0.273286
0.309169
0.341706
0.371945
0.406433
0.447965
0.493972
0.542007
0.591692
0.643694
0.699098
0.759024
0.82402
0.893356
0.96343
1.02541
1.06589
1.07258
1.0398
0.96431
0.846068
0.699095
0.534674
0.39162
0.336712
0.316737
0.325248
0.305813
0.215403
0.100885
0.0231112
0.0107942
0.0397583
0.169577
0.171532
0.16413
0.151684
0.133813
0.110017
0.0859982
0.0648355
0.0466259
0.0302237
0.0177469
0.0105663
0.00686219
0.00451573
0.00269345
0.00111242
0.000386074
0.00109975
0.00151803
0.00246381
0.0085114
0.0294815
0.0737041
0.12139
0.122153
0.110729
0.120965
0.118319
0.128111
0.176675
0.101469
0.015255
0.0081346
0.00404304
0.0026131
0.00198482
0.00168968
0.00151529
0.00144861
0.00473131
0.0280623
0.0689478
0.110885
0.155311
0.198215
0.239524
0.278798
0.315453
0.349085
0.380688
0.416527
0.459397
0.506537
0.555287
0.605411
0.657764
0.713648
0.774468
0.84102
0.912761
0.986057
1.05152
1.09477
1.1026
1.06866
0.990466
0.866598
0.710497
0.534561
0.381437
0.331814
0.3119
0.322334
0.307096
0.220107
0.106071
0.0259818
0.0108713
0.0393275
0.180429
0.182686
0.175198
0.162302
0.144705
0.120087
0.0945671
0.0715544
0.0519017
0.0342408
0.0202883
0.0118517
0.00745646
0.00481364
0.00285169
0.00119485
0.000404868
0.00109215
0.00154516
0.00272258
0.00967015
0.031976
0.0752254
0.117653
0.116976
0.113215
0.124767
0.115952
0.122419
0.170442
0.114837
0.0191555
0.0120561
0.00529488
0.00308438
0.00216379
0.00175558
0.00153781
0.00145656
0.00517865
0.0307538
0.0724937
0.115187
0.160002
0.203154
0.244712
0.284471
0.322018
0.356834
0.389903
0.427185
0.471479
0.519793
0.569248
0.619755
0.672377
0.728639
0.790257
0.858301
0.93245
1.00905
1.0781
1.12416
1.13304
1.0975
1.01539
0.884615
0.717955
0.530584
0.368238
0.325502
0.306325
0.318475
0.307489
0.224015
0.110729
0.0287845
0.0109909
0.0389537
0.191684
0.194154
0.186499
0.173072
0.155521
0.130404
0.103578
0.0787718
0.0575554
0.0386056
0.0231707
0.0133727
0.00816732
0.00516122
0.00303241
0.00128839
0.000428828
0.00108252
0.00157329
0.00298513
0.0107839
0.0340429
0.0759665
0.113888
0.113061
0.115186
0.127247
0.113597
0.116754
0.164372
0.121474
0.0253939
0.014284
0.00682458
0.00375384
0.00242404
0.00184766
0.00156707
0.00146723
0.00573678
0.0337415
0.0760634
0.119481
0.16463
0.208062
0.249964
0.290334
0.328893
0.364988
0.399628
0.438456
0.48427
0.533802
0.583955
0.634781
0.687582
0.74411
0.806418
0.875882
0.952439
1.03243
1.10517
1.15405
1.1638
1.12605
1.03808
0.898744
0.720551
0.523251
0.353466
0.317909
0.300142
0.313853
0.307083
0.227126
0.114664
0.0314285
0.0111207
0.0385768
0.20332
0.205903
0.19798
0.183955
0.166196
0.140914
0.112956
0.0864564
0.063588
0.043309
0.0263968
0.0151507
0.00901378
0.00556796
0.00323933
0.0013943
0.000458595
0.00107125
0.00160144
0.00325106
0.0118321
0.0358007
0.0759433
0.110208
0.109544
0.115044
0.128895
0.112318
0.111448
0.159839
0.121774
0.0351713
0.0150655
0.00859703
0.00463032
0.00278968
0.00197564
0.00160516
0.00148082
0.00641799
0.0369845
0.079656
0.123719
0.169203
0.21295
0.255305
0.296424
0.336107
0.373585
0.409903
0.450391
0.497832
0.548636
0.599478
0.650551
0.703431
0.760103
0.822982
0.893781
0.972742
1.05622
1.13277
1.18441
1.1947
1.15378
1.05779
0.906845
0.718043
0.514031
0.339082
0.30909
0.293391
0.308527
0.30582
0.229596
0.117992
0.0337358
0.0113254
0.0382112
0.215308
0.217894
0.20958
0.194887
0.176705
0.151425
0.122541
0.0945391
0.0699902
0.0483426
0.0299646
0.017204
0.0100151
0.00604432
0.00347675
0.00151412
0.000494854
0.00105878
0.00162855
0.00350397
0.0127692
0.0372077
0.0754401
0.106611
0.105933
0.112568
0.130502
0.112825
0.107181
0.156127
0.119958
0.0442645
0.0154512
0.0107192
0.00577262
0.00328548
0.00215079
0.00165494
0.00149852
0.00723781
0.0404513
0.0832673
0.127929
0.173737
0.217834
0.260765
0.302777
0.343683
0.382655
0.420768
0.463043
0.512231
0.564369
0.615894
0.667133
0.719983
0.776663
0.839981
0.912023
0.993379
1.08043
1.16089
1.21516
1.22543
1.17988
1.0734
0.908479
0.70985
0.505249
0.327067
0.299058
0.286057
0.302646
0.303813
0.231241
0.120806
0.0357354
0.0115632
0.037867
0.227608
0.230078
0.221231
0.20578
0.186866
0.161851
0.13225
0.102948
0.0767436
0.0536939
0.0338663
0.0195471
0.0111911
0.00660212
0.00374961
0.00164966
0.00053833
0.00104563
0.00165382
0.00374428
0.0136416
0.038238
0.0745576
0.103101
0.102116
0.108787
0.132135
0.11471
0.104289
0.151392
0.117671
0.0509971
0.0159696
0.0135388
0.00722864
0.00392774
0.00238314
0.00171875
0.00152174
0.0082133
0.0440948
0.0869122
0.132098
0.17822
0.222734
0.266372
0.309422
0.351644
0.392234
0.432275
0.476469
0.527536
0.581085
0.633291
0.684604
0.737301
0.793839
0.85745
0.930631
1.01437
1.10508
1.18954
1.24615
1.25541
1.20318
1.08364
0.904407
0.698794
0.496612
0.318853
0.287938
0.278159
0.296332
0.301132
0.232072
0.122915
0.0373383
0.011856
0.0375479
0.24018
0.2424
0.232858
0.216539
0.196715
0.172154
0.141999
0.111601
0.0838216
0.0593476
0.0380869
0.0221877
0.0125598
0.00725409
0.00406364
0.00180295
0.000589777
0.00103277
0.00167632
0.00397389
0.0144013
0.0390236
0.0733953
0.0996874
0.0982776
0.106377
0.133807
0.117514
0.102565
0.144343
0.114726
0.0552872
0.0167613
0.0154861
0.0088245
0.00470422
0.00267683
0.00179933
0.00155326
0.00936847
0.0478553
0.0905814
0.136238
0.182693
0.227672
0.272151
0.316383
0.360018
0.402376
0.444488
0.49074
0.543822
0.598872
0.651765
0.703051
0.755456
0.811683
0.875426
0.949632
1.03573
1.13019
1.21867
1.27707
1.28378
1.22215
1.08747
0.895999
0.688054
0.488458
0.315283
0.275847
0.269703
0.289714
0.29784
0.232183
0.124309
0.0385359
0.0121956
0.0372714
0.252977
0.254799
0.244379
0.227073
0.206219
0.181971
0.151542
0.120355
0.0911713
0.0652837
0.042609
0.0251269
0.014136
0.00801285
0.00442509
0.00197637
0.00064998
0.00102118
0.00169505
0.0041804
0.0150409
0.0395915
0.0720512
0.0964132
0.0944652
0.10748
0.13594
0.120765
0.101355
0.135245
0.11103
0.0565215
0.0179468
0.0166635
0.0105669
0.00563106
0.00303696
0.00189685
0.00159757
0.0107337
0.0516847
0.0943127
0.140392
0.187136
0.232668
0.278134
0.323687
0.368838
0.413144
0.457469
0.505924
0.561167
0.617829
0.671427
0.722577
0.774528
0.830251
0.893951
0.969054
1.05749
1.15575
1.24816
1.30737
1.30923
1.23508
1.08467
0.885502
0.680236
0.48374
0.314131
0.263166
0.260563
0.282865
0.293969
0.231601
0.124837
0.0395078
0.0125329
0.0370222
0.265947
0.267198
0.255695
0.237277
0.21529
0.190975
0.160804
0.129103
0.0987246
0.0714695
0.0474096
0.0283603
0.015932