/*--------------------------------*- C++ -*----------------------------------*\
| =========                 |                                                 |
| \\      /  F ield         | OpenFOAM: The Open Source CFD Toolbox           |
|  \\    /   O peration     | Version:  4.1                                   |
|   \\  /    A nd           | Web:      www.OpenFOAM.org                      |
|    \\/     M anipulation  |                                                 |
\*---------------------------------------------------------------------------*/
FoamFile
{
    version     2.0;
    format      ascii;
    class       volScalarField;
    location    "3";
    object      nut;
}
// * * * * * * * * * * * * * * * * * * * * * * * * * * * * * * * * * * * * * //

dimensions      [0 2 -1 0 0 0 0];

internalField   nonuniform List<scalar> 
6785
(
0.270628
1.06248e-08
9.92114e-09
9.92022e-09
9.9215e-09
9.91937e-09
9.92076e-09
9.92155e-09
9.9193e-09
9.92074e-09
9.92134e-09
9.91822e-09
9.94203e-09
4.77969e-08
0.343529
0.307737
1.29768e-05
7.81056e-11
7.28959e-11
6.93822e-11
6.57664e-11
6.22905e-11
5.86879e-11
5.52088e-11
5.19812e-11
4.9158e-11
4.6245e-11
1.25633e-08
0.000638087
0.191625
0.342358
0.00122364
6.23104e-11
1.7158e-09
3.33679e-06
4.69601e-05
0.000229871
0.000795471
0.00169555
0.00255399
0.00290602
0.00310097
0.00280001
0.00612603
0.0304864
0.376686
0.00400895
6.75787e-07
3.96487e-09
1.99302e-05
0.000163008
0.000966282
0.00303351
0.00558956
0.0083125
0.0144089
0.0161427
0.0116364
0.0153173
0.0488697
0.414323
0.0111792
7.59066e-05
1.28536e-06
2.63873e-05
0.000155301
0.00111389
0.00249059
0.00365381
0.00477087
0.00870973
0.0174296
0.0198482
0.0142784
0.104512
0.449933
0.0377264
0.0018531
3.66374e-06
3.80647e-05
9.88081e-05
0.000557901
0.00177666
0.00220264
0.00211956
0.00285448
0.00346104
0.00610465
0.0236804
0.146891
0.477367
0.0717145
0.0185289
0.00332916
0.000439182
0.00014121
0.000343489
0.00191381
0.00236376
0.00170575
0.00156812
0.0015379
0.00135362
0.00235586
0.0506632
0.493697
0.103275
0.0285316
0.0125844
0.00638488
0.000538976
0.000274712
0.00242724
0.00309034
0.00186503
0.00127473
0.00104299
0.00126288
0.00168971
0.0413728
0.499496
0.133738
0.0479062
0.022385
0.0126916
0.00434649
0.000620079
0.00342617
0.00438475
0.00237418
0.00137552
0.000866273
0.00144047
0.0015821
0.0377973
0.498129
0.142505
0.0604068
0.0379918
0.0258251
0.0103956
0.0023097
0.00333862
0.00603042
0.00321043
0.00157474
0.00102403
0.00163499
0.00156843
0.0282595
0.495423
0.149357
0.0665572
0.0398984
0.0301117
0.0279838
0.0112303
0.00713669
0.00785483
0.00448035
0.00238134
0.00151862
0.00169344
0.00193892
0.0315194
0.490032
0.152913
0.0644039
0.042041
0.0240276
0.0316305
0.0454253
0.0386403
0.0246996
0.00965088
0.00468544
0.00261894
0.00229953
0.00315845
0.036088
0.493094
0.165407
0.0745933
0.0425993
0.0481393
0.137981
0.0874408
0.0319792
0.0155411
0.0122894
0.00937849
0.0074924
0.00372701
0.00815791
0.0524134
0.496819
0.260364
0.177123
0.120489
0.013754
0.0455188
0.0407793
0.0498165
0.0300065
0.0186891
0.0120981
0.0149434
0.0345548
0.0395506
0.082456
0.480173
0.703741
0.331555
0.42294
0.527685
1.73597
3.4079
4.4528
2.55004
1.16127
0.291129
0.838596
0.0313629
0.0820472
0.0927879
1.79946
3.56189
1.94726
1.95663
1.98564
3.77806
2.05574
2.05266
2.06961
3.89959
2.13024
2.12977
3.95259
2.13933
2.11795
2.11209
3.901
2.11572
2.09744
3.82627
2.06131
2.02955
2.00695
3.63957
1.95775
1.92539
1.90116
3.43789
1.85354
1.82752
3.29669
1.77082
1.74098
1.71826
3.11171
1.6722
1.64748
2.98538
1.59309
1.56425
1.54227
2.82368
1.49758
1.47093
1.45177
2.69866
1.42203
1.40141
2.63474
1.36883
1.34668
1.33325
2.57522
1.33377
1.3244
1.32365
2.63854
1.36703
1.36908
2.76178
1.45609
1.48064
1.50763
3.08884
1.59862
1.60751
3.11259
1.64418
1.64275
1.65367
3.06476
1.69217
1.70029
1.71068
3.08245
1.72131
1.72657
3.0861
1.72505
1.72707
1.04479
1.03878
1.07315
1.17244
1.06282
1.10782
1.16832
1.27522
1.38183
1.50188
1.63245
1.75222
1.97571
1.67721
1.76313
1.82139
1.8917
1.9999
2.14428
2.27634
2.42441
2.47736
2.00112
2.03655
2.08753
2.13471
2.17569
2.21683
2.25167
2.27837
2.30446
2.03236
1.62076
1.58843
1.56031
1.50855
1.45075
1.38579
1.30967
1.22964
0.873476
0.732387
0.694373
0.632937
0.576411
0.518049
0.459643
0.40129
0.344152
0.246835
0.26487
0.247671
0.228147
0.215018
0.21115
0.210416
0.218974
0.235239
0.26847
0.256004
0.258719
0.266335
0.270193
0.275585
0.27952
0.265029
0.289561
0.281478
0.228245
0.214087
0.196166
0.229671
0.196778
0.230889
0.217867
0.188244
0.132442
0.161909
0.118241
0.276311
0.599503
0.937804
0.909319
0.558443
0.905815
0.560749
0.912867
0.912704
0.567583
0.920998
0.922682
0.574579
0.932195
0.581157
0.945916
0.948948
0.591302
0.959224
0.598284
0.973647
0.976872
0.608965
0.987829
0.990939
0.617717
1.00193
0.625253
1.0174
1.02122
0.636875
1.03289
0.6449
1.04924
1.05362
0.657458
1.06637
1.07059
0.668082
1.08342
0.676869
1.10113
1.10619
0.690396
1.11949
0.699474
1.13775
1.14297
0.713547
1.15698
1.16223
0.725482
1.17622
0.735037
1.19543
1.20164
0.750097
1.21594
0.760146
1.23612
1.24277
0.776126
1.2582
1.26428
0.789481
1.27954
0.800059
1.3007
1.30766
0.816611
1.32319
0.827302
1.34461
1.35133
0.843869
1.36688
1.3727
0.856825
1.38722
0.86694
1.40795
1.94507
2.11172
2.03689
1.67527
1.30828
0.983708
0.76152
0.553338
0.383347
0.307845
0.388181
0.541004
0.460001
0.33312
0.18649
0.0351961
0.00775061
0.104196
0.242644
0.225009
0.241914
0.23285
0.254982
0.236983
0.0132663
1.6191
2.08462
1.42396
1.41345
1.2287
0.448081
0.257358
0.25873
0.231259
0.210299
0.22566
0.212869
0.193644
0.163029
0.179786
0.776948
3.67252
6.15753
6.1916
5.83198
5.37991
5.03611
5.0698
5.31407
5.38932
5.49778
5.82766
6.3549
7.07337
7.88061
8.61872
9.28699
9.8674
10.3401
10.6767
10.817
10.7142
10.3698
9.71265
8.82319
7.71652
6.58164
5.60255
4.83721
4.32438
4.70383
5.03149
4.86809
3.88858
1.14258
0.140484
0.0584985
0.230333
0.85856
1.91407
2.12835
2.1016
1.74075
1.34607
1.0021
0.766651
0.548622
0.377269
0.302661
0.380452
0.534181
0.455267
0.330019
0.185644
0.0354561
0.00779379
0.100953
0.236457
0.220321
0.235104
0.224272
0.243493
0.226829
0.0367426
1.64561
2.10399
1.44186
1.4049
1.27972
0.498533
0.26315
0.261941
0.232473
0.210499
0.225505
0.212614
0.19337
0.164741
0.201001
0.95066
4.01964
6.17648
6.18087
5.83355
5.39562
5.05771
5.08669
5.36636
5.38879
5.47254
5.78585
6.29502
7.0016
7.81247
8.55046
9.21738
9.79617
10.2681
10.6061
10.7679
10.6928
10.379
9.75452
8.89369
7.81265
6.6858
5.69608
4.87918
4.26818
4.69787
5.05094
4.90518
4.09101
1.68674
0.183938
0.0591329
0.252415
0.873606
1.88733
2.13981
2.18675
1.84362
1.42628
1.05963
0.804301
0.570761
0.38953
0.310421
0.387509
0.540776
0.461031
0.334031
0.187575
0.0362856
0.00790032
0.0985007
0.230002
0.214142
0.22545
0.21225
0.224711
0.176979
0.0578011
1.60439
1.98201
1.41795
1.38153
1.27069
0.54822
0.236068
0.245252
0.220184
0.202144
0.217222
0.205501
0.18761
0.163064
0.220365
1.13002
4.18619
5.95863
5.94518
5.62033
5.23364
4.97913
5.08855
5.38847
5.39576
5.48942
5.81059
6.32098
7.02792
7.83295
8.56057
9.21484
9.78487
10.2533
10.5933
10.7596
10.6997
10.4172
9.8221
8.98326
7.91548
6.78862
5.7801
4.93251
4.28873
4.73342
5.07673
4.93227
4.00058
2.11144
0.252639
0.0604561
0.272974
0.888361
1.91395
2.17564
2.27952
1.95128
1.50297
1.10663
0.828177
0.582461
0.396361
0.313512
0.388638
0.54261
0.463095
0.33535
0.189052
0.0370064
0.00801118
0.096031
0.22359
0.208072
0.215627
0.200336
0.20811
0.141895
0.081721
1.63079
1.93972
1.42343
1.37729
1.28184
0.601973
0.24743
0.242183
0.215091
0.197381
0.211987
0.200562
0.183074
0.161328
0.243025
1.29452
4.30231
5.78173
5.75314
5.44819
5.11112
4.93533
5.11611
5.42423
5.41809
5.52551
5.85547
6.36949
7.0743
7.8753
8.60111
9.24758
9.81325
10.2828
10.6302
10.808
10.7792
10.5334
9.97142
9.15773
8.1021
6.9704
5.93542
5.04655
4.33326
4.80007
5.1454
4.99258
3.94567
2.43284
0.349194
0.0625901
0.305197
0.905954
1.95807
2.20346
2.3605
2.07891
1.60632
1.17411
0.864425
0.600956
0.406478
0.318435
0.390651
0.545473
0.465827
0.336233
0.189241
0.0372141
0.00802744
0.0933532
0.216418
0.201378
0.206585
0.189716
0.191789
0.109084
0.104615
1.65112
1.89893
1.43871
1.37611
1.2832
0.666575
0.263836
0.244553
0.214944
0.195893
0.209039
0.197169
0.179448
0.159346
0.264608
1.46054
4.38237
5.63635
5.5967
5.31154
5.02447
4.92464
5.16711
5.47084
5.45869
5.57852
5.91467
6.43108
7.13272
7.93001
8.6548
9.29681
9.85762
10.3282
10.6836
10.8766
10.8818
10.6738
10.1448
9.35638
8.30979
7.16824
6.10357
5.17066
4.38905
4.89141
5.24081
5.06365
3.92194
2.72212
0.48329
0.0654736
0.327931
0.916126
2.02341
2.22712
2.42376
2.21988
1.73543
1.2617
0.911927
0.625243
0.419418
0.325238
0.393187
0.548635
0.469251
0.338833
0.189842
0.0373298
0.0080004
0.0909304
0.209745
0.195016
0.196763
0.179525
0.185046
0.0812158
0.1147
1.69463
1.87511
1.45518
1.3822
1.29392
0.711432
0.281268
0.246803
0.215784
0.19468
0.20615
0.193598
0.175478
0.156651
0.280865
1.59639
4.452
5.51828
5.46915
5.20236
4.9642
4.93666
5.23138
5.52287
5.50545
5.63319
5.97294
6.49132
7.19137
7.98565
8.71066
9.3524
9.90818
10.3798
10.7433
10.954
10.9951
10.827
10.3332
9.57375
8.5377
7.38589
6.29117
5.31257
4.46125
4.99895
5.34802
5.13853
3.94017
2.98779
0.660627
0.0694959
0.344374
0.93182
2.10245
2.25678
2.46454
2.36234
1.88838
1.37242
0.972224
0.654848
0.434381
0.331717
0.395028
0.550185
0.473241
0.340899
0.19118
0.0374069
0.00802209
0.0892126
0.202128
0.187943
0.18746
0.168901
0.155416
0.0803054
0.21581
1.75039
1.85861
1.47716
1.39393
1.31752
0.705498
0.300492
0.249741
0.214903
0.192443
0.202313
0.18947
0.17108
0.153024
0.287147
1.72731
4.52712
5.42614
5.36688
5.11735
4.92704
4.96807
5.30498
5.57776
5.55512
5.6875
6.02931
6.54949
7.24963
8.04086
8.76644
9.41001
9.96136
10.433
10.8043
11.0367
11.1152
10.9884
10.5311
9.80362
8.77903
7.61608
6.49059
5.46417
4.54687
5.1195
5.45685
5.21412
3.99108
3.23751
0.884382
0.0751884
0.364026
0.943308
2.19096
2.2971
2.48554
2.49233
2.06059
1.51074
1.04949
0.691418
0.451871
0.338138
0.393116
0.546275
0.474985
0.342825
0.192491
0.0373364
0.00808535
0.0869665
0.194678
0.181064
0.177638
0.159323
0.147995
0.109849
0.285643
1.80079
1.85308
1.49707
1.40689
1.33924
0.710239
0.328087
0.253637
0.214768
0.19056
0.198531
0.185381
0.166567
0.14939
0.291271
1.79204
4.61399
5.35724
5.28647
5.05366
4.9102
5.01513
5.38307
5.63271
5.60361
5.73815
6.08107
6.60312
7.30531
8.09353
8.82005
9.46619
10.0156
10.4863
10.8644
11.1215
11.2389
11.155
10.7362
10.0445
9.03362
7.8599
6.7037
5.62747
4.64801
5.25051
5.56398
5.29094
4.06612
3.47877
1.15105
0.0831339
0.363557
0.955697
2.28495
2.34656
2.49231
2.59689
2.24279
1.67925
1.14831
0.737208
0.47262
0.34486
0.388606
0.537721
0.473784
0.343211
0.192962
0.0370454
0.00824358
0.0858889
0.187663
0.173652
0.168424
0.14986
0.124894
0.0848122
0.55442
1.85415
1.85089
1.51674
1.42184
1.35791
0.742267
0.317743
0.256785
0.215321
0.189254
0.195179
0.181716
0.162412
0.145422
0.294245
1.8746
4.69588
5.30804
5.22455
5.00829
4.91083
5.07449
5.46228
5.68599
5.6493
5.78449
6.12792
6.65196
7.35787
8.143
8.87059
9.51976
10.0699
10.5383
10.9234
11.2076
11.3651
11.3256
10.9473
10.2951
9.30045
8.11663
6.92988
5.80164
4.76436
5.39084
5.6609
5.3686
4.16362
3.70235
1.45358
0.094382
0.384488
0.96396
2.38117
2.40673
2.4937
2.6687
2.4207
1.87246
1.27317
0.795333
0.497619
0.352428
0.381849
0.524026
0.469428
0.341524
0.192937
0.036659
0.00846606
0.084527
0.180566
0.167322
0.159438
0.141078
0.136918
0.305291
0.800208
1.91259
1.85295
1.53705
1.43771
1.37439
0.777122
0.333513
0.263661
0.216285
0.188458
0.192025
0.178342
0.158428
0.141644
0.297225
1.94115
4.77687
5.28672
5.17825
4.97863
4.92638
5.14303
5.53987
5.73624
5.69097
5.82581
6.16934
6.69547
7.40657
8.18854
8.91733
9.56986
10.1232
10.5883
10.9827
11.2935
11.492
11.4985
11.1626
10.5541
9.57904
8.38657
7.16991
5.98756
4.89753
5.53862
5.72411
5.44933
4.28484
3.88255
1.77518
0.110538
0.409021
0.972644
2.47707
2.47718
2.50077
2.70758
2.57785
2.08128
1.42852
0.870167
0.528605
0.36161
0.373424
0.50523
0.461121
0.337809
0.191941
0.0362229
0.00876202
0.0843612
0.173913
0.160279
0.150956
0.134247
0.133713
0.152209
1.02613
1.9682
1.85996
1.55813
1.45471
1.39065
0.80487
0.353455
0.261876
0.217911
0.188168
0.189224
0.175383
0.155026
0.138202
0.301084
1.96756
4.85833
5.2909
5.15194
4.96229
4.95457
5.21791
5.61386
5.78253
5.728
5.86186
6.20517
6.73345
7.45086
8.22958
8.95957
9.61556
10.1728
10.6352
11.0416
11.3783
11.6187
11.6727
11.3811
10.8204
9.86874
8.66973
7.42424
6.18585
5.04898
5.68948
5.80931
5.52517
4.42262
4.04747
2.10481
0.133058
0.433598
0.982462
2.57065
2.55624
2.52428
2.72208
2.70106
2.29306
1.61679
0.966332
0.567714
0.373183
0.363913
0.481858
0.448379
0.33165
0.189973
0.0358172
0.00906846
0.0842271
0.167679
0.154134
0.143695
0.1371
0.239496
0.254505
1.27729
2.03318
1.87018
1.58438
1.47375
1.40714
0.831281
0.374302
0.264617
0.220229
0.188706
0.186986
0.172983
0.151862
0.134445
0.304148
2.0221
4.93488
5.31606
5.14789
4.95717
4.99314
5.29662
5.68279
5.82417
5.76001
5.89247
6.23528
6.76574
7.4902
8.26563
8.99677
9.65618
10.2175
10.6829
11.0994
11.4608
11.7436
11.8463
11.6009
11.0922
10.1687
8.9661
7.69351
6.39758
5.22062
5.84065
5.8992
5.59867
4.56909
4.20872
2.43492
0.164493
0.458366
0.988059
2.65966
2.64256
2.56969
2.72516
2.78414
2.49143
1.83565
1.08804
0.617499
0.387769
0.35387
0.454917
0.43124
0.322753
0.186795
0.0356569
0.00946806
0.085052
0.161478
0.147386
0.137581
0.142194
0.196208
0.546945
1.52898
2.11521
1.88249
1.61437
1.49577
1.41845
0.854398
0.39602
0.268644
0.2233
0.18972
0.1854
0.171137
0.149653
0.132038
0.308797
2.10366
5.01196
5.3584
5.16337
4.97283
5.03974
5.37693
5.74565
5.86061
5.78676
5.91754
6.25961
6.79225
7.52408
8.29618
9.02836
9.69097
10.2598
10.7315
11.1555
11.54
11.8654
12.018
11.8204
11.368
10.4777
9.27555
7.97835
6.62404
5.41455
5.9875
5.98695
5.67034
4.72545
4.38137
2.76401
0.20744
0.480934
0.995999
2.74936
2.73496
2.64015
2.73025
2.8296
2.65978
2.07834
1.23901
0.681338
0.406677
0.344378
0.425891
0.410382
0.311107
0.18202
0.0356669
0.00978703
0.085639
0.155891
0.142591
0.135773
0.20607
0.358506
0.51425
1.74959
2.20412
1.89584
1.64563
1.52116
1.41707
0.859442
0.402311
0.274206
0.2285
0.191527
0.184841
0.170176
0.147832
0.129062
0.320361
2.17
5.09337
5.41532
5.19582
5.00589
5.09237
5.45684
5.80164
5.88994
5.80812
5.93702
6.27812
6.813
7.552
8.32082
9.05345
9.72339
10.3013
10.7806
11.2093
11.6148
11.9825
12.1858
12.0377
11.6454
10.7944
9.59776
8.27944
6.8668
5.63244
6.12286
6.06764
5.73766
4.88047
4.55258
3.08771
0.265339
0.509919
1.00249
2.84195
2.83253
2.73564
2.75001
2.8479
2.78747
2.31983
1.42161
0.763404
0.432111
0.337152
0.396752
0.386982
0.297187
0.175568
0.0358182
0.0101399
0.0865261
0.153195
0.13704
0.137951
0.195333
0.425447
0.822076
1.90643
2.29815
1.90962
1.67538
1.55056
1.40119
0.853867
0.340292
0.295864
0.230627
0.194226
0.185173
0.169862
0.147104
0.1277
0.327638
2.21681
5.18194
5.48527
5.24343
5.05373
5.14929
5.53466
5.85039
5.91262
5.82404
5.95089
6.29081
6.82805
7.57346
8.33884
9.07716
9.75532
10.3417
10.8284
11.2602
11.6844
12.0934
12.3481
12.2503
11.9219
11.1171
9.93219
8.59743
7.12755
5.87248
6.23749
6.1369
5.79929
4.93516
4.7086
3.40473
0.342133
0.535423
1.01386
2.93818
2.93467
2.85272
2.79207
2.853
2.87166
2.54174
1.63513
0.867309
0.466432
0.333583
0.369344
0.362333
0.281786
0.167793
0.0358374
0.0104465
0.087715
0.151786
0.135459
0.1512
0.411396
0.785568
1.00766
2.03236
2.35672
1.92531
1.70109
1.57963
1.39209
0.844081
0.32556
0.283463
0.235657
0.197637
0.186413
0.170667
0.146794
0.125726
0.346297
2.25789
5.28071
5.56777
5.30532
5.11441
5.20892
5.60902
5.89186
5.92916
5.83455
5.95913
6.29766
6.83747
7.58825
8.35373
9.10099
9.78654
10.3805
10.8739
11.308
11.7476
12.1965
12.5026
12.4559
12.1946
11.4433
10.278
8.93281
7.40793
6.13637
6.31941
6.19111
5.85052
5.1088
4.8351
3.71072
0.442355
0.568027
1.02359
3.03812
3.04068
2.98809
2.85826
2.8595
2.91812
2.72741
1.8751
0.995824
0.512091
0.334847
0.345184
0.337825
0.26577
0.159244
0.0357395
0.0106952
0.0886111
0.149969
0.139563
0.18382
0.384975
0.791774
1.24867
2.12666
2.38226
1.95332
1.73176
1.60238
1.40348
0.845422
0.313835
0.292799
0.243184
0.203585
0.188026
0.172061
0.147572
0.125702
0.34806
2.28742
5.39281
5.66341
5.38149
5.18638
5.26982
5.67878
5.92612
5.9398
5.83974
5.96175
6.29865
6.84131
7.59501
8.36934
9.12492
9.81708
10.4176
10.9167
11.3521
11.8036
12.2901
12.6473
12.6517
12.4601
11.7706
10.634
9.28567
7.70904
6.38786
6.3566
6.2287
5.88907
5.03584
4.9796
4.01572
0.570907
0.600496
1.03365
3.1416
3.14981
3.12528
2.94881
2.88101
2.93926
2.86696
2.13421
1.15094
0.571989
0.34245
0.325633
0.314976
0.250067
0.150466
0.0354183
0.0108369
0.0895464
0.148889
0.141189
0.215723
0.71733
1.24106
1.44775
2.19386
2.37189
1.9536
1.75059
1.61513
1.43914
0.856348
0.308998
0.303193
0.259454
0.207173
0.191265
0.174297
0.148718
0.124753
0.35041
2.3179
5.52179
5.77307
5.4718
5.26825
5.33067
5.74309
5.95325
5.94464
5.83971
5.95883
6.29385
6.83983
7.59907
8.38546
9.14914
9.84701
10.4529
10.9564
11.3925
11.8516
12.3726
12.7798
12.8348
12.7144
12.0954
10.9983
9.65515
8.02747
6.66257
6.37678
6.25301
5.93385
5.107
5.07257
4.30228
0.731846
0.637843
1.04621
3.24768
3.26222
3.26258
3.06219
2.92389
2.94899
2.9592
2.39753
1.33226
0.648913
0.358014
0.311657
0.294885
0.235578
0.142035
0.0348437
0.0107919
0.0897334
0.149368
0.148896
0.296736
1.00562
1.11765
1.57813
2.2349
2.33069
1.96267
1.74125
1.61702
1.49913
0.851708
0.324113
0.325287
0.273391
0.217386
0.193972
0.176393
0.150779
0.126737
0.338891
2.34577
5.66986
5.89758
5.57582
5.35889
5.39041
5.80129
5.97341
5.94375
5.83456
5.95046
6.28332
6.83272
7.60368
8.40215
9.17389
9.87648
10.4863
10.9927
11.4289
11.8908
12.4422
12.8978
13.002
12.9532
12.4139
11.3679
10.0383
8.35829
6.97211
6.38032
6.26662
6.00173
5.22523
5.251
4.59297
0.927858
0.678722
1.06624
3.3563
3.37719
3.39944
3.19442
2.99041
2.96221
3.01172
2.64347
1.53675
0.745023
0.382858
0.303714
0.278118
0.22285
0.134524
0.0341216
0.0105377
0.0890295
0.148845
0.163895
0.475569
0.987822
1.45197
1.67747
2.23028
2.26173
1.94124
1.72847
1.61409
1.58494
0.834598
0.342032
0.377969
0.309405
0.22855
0.198315
0.179838
0.153383
0.127638
0.316594
2.38867
5.83945
6.03581
5.69282
5.45754
5.45123
5.85276
5.98686
5.93733
5.82448
5.93682
6.26725
6.81847
7.60866
8.41956
9.19946
9.90573
10.5178
11.0252
11.4609
11.9208
12.4974
12.9988
13.1501
13.1714
12.7207
11.7383
10.4284
8.69146
7.27167
6.34871
6.27104
6.03509
5.4452
5.34222
4.86039
1.15776
0.706425
1.0813
3.4671
3.49397
3.53554
3.34146
3.0825
2.98971
3.03804
2.84214
1.75904
0.862197
0.418581
0.302245
0.265115
0.212117
0.128329
0.0333496
0.0101138
0.0873718
0.145552
0.187905
0.467843
1.25472
1.61794
1.77408
2.18091
2.13682
1.87065
1.72615
1.61159
1.70326
0.811355
0.369898
0.367858
0.307606
0.245219
0.205735
0.183134
0.155971
0.129351
0.30244
2.44487
6.03058
6.18779
5.82229
5.56504
5.5242
5.89636
5.99407
5.92582
5.80983
5.91817
6.24625
6.80629
7.61364
8.4378
9.22616
9.93509
10.5477
11.0539
11.4867
11.9411
12.5366
13.0803
13.2755
13.3633
13.0096
12.1018
10.812
9.00544
7.52234
6.25789
6.24926
6.09775
5.62401
5.48202
5.11701
1.4165
0.742091
1.10515
3.57962
3.61184
3.67087
3.4989
3.19545
3.03602
3.05242
2.98817
1.99187
1.0011
0.466947
0.30787
0.256306
0.203554
0.123582
0.032782
0.00954118
0.0849398
0.140964
0.215915
0.610167
1.49335
1.93507
1.7054
2.11547
1.96409
1.74343
1.68296
1.60711
1.8297
0.79648
0.322777
0.4107
0.334771
0.250762
0.216936
0.189354
0.161253
0.12405
0.277245
2.53131
6.23693
6.35989
5.96482
5.68131
5.60502
5.93145
5.99555
5.90974
5.79102
5.89476
6.22052
6.79888
7.61863
8.45693
9.25433
9.96496
10.5761
11.0786
11.5061
11.9517
12.5586
13.1399
13.3747
13.5225
13.272
12.4441
11.1651
9.2634
7.62696
6.07864
6.15764
6.1197
5.58621
5.48174
5.34935
1.69858
0.727341
1.13149
3.69337
3.73004
3.80532
3.66277
3.32378
3.10497
3.06896
3.08583
2.22676
1.16092
0.529511
0.321098
0.251864
0.197267
0.12031
0.0325183
0.00894135
0.0816146
0.13619
0.249319
0.849047
1.6603
1.5672
1.7125
2.03013
1.80813
1.64127
1.61664
1.59727
1.93101
0.815374
0.327466
0.36664
0.382256
0.277882
0.223266
0.193416
0.164065
0.12676
0.26916
2.65813
6.44972
6.54248
6.12011
5.80577
5.69164
5.95788
5.9918
5.88963
5.7685
5.86679
6.18858
6.79451
7.62372
8.47691
9.28432
9.99584
10.6034
11.0994
11.5187
11.9524
12.5622
13.1752
13.4441
13.6437
13.4939
12.7416
11.4476
9.41041
7.55864
5.786
5.97336
6.17365
5.82489
5.63087
5.57764
1.99387
0.728899
1.16024
3.80782
3.84779
3.93838
3.81789
3.46454
3.19565
3.09704
3.14593
2.45508
1.33966
0.607862
0.342621
0.251905
0.193245
0.118471
0.032671
0.0084062
0.077556
0.131867
0.290118
1.26026
1.95962
1.72023
1.71093
1.918
1.64068
1.57217
1.54414
1.59625
1.97532
0.89529
0.351546
0.368858
0.491279
0.336715
0.241923
0.20283
0.166171
0.116573
0.255392
2.8449
6.65961
6.67972
6.2857
5.93799
5.78238
5.97571
5.98333
5.86597
5.74278
5.83482
6.1475
6.79067
7.62891
8.49763
9.31644
10.0283
10.6302
11.1167
11.5243
11.9437
12.5465
13.1835
13.4795
13.7195
13.6567
12.9597
11.6004
9.37806
7.31864
5.36972
5.68844
6.01066
5.77122
5.81628
5.77019
2.29387
0.73315
1.19808
3.92239
3.96428
4.06921
3.96001
3.61206
3.30307
3.14059
3.18176
2.66826
1.53357
0.703239
0.37349
0.256792
0.191555
0.11796
0.0333564
0.00797762
0.0728836
0.128115
0.331339
1.50365
1.54347
1.49002
1.7369
1.7986
1.52034
1.54772
1.49369
1.54284
1.95206
1.03009
0.392736
0.41148
0.442142
0.422462
0.279024
0.213328
0.167939
0.10572
0.25806
3.09829
6.86721
6.81105
6.46317
6.07734
5.87582
5.98522
5.97066
5.83932
5.71437
5.80015
6.10599
6.78681
7.63407
8.51882
9.35095
10.063
10.657
11.1306
11.5231
11.926
12.511
13.1624
13.4762
13.7398
13.7335
13.0465
11.5907
9.18065
6.82344
4.96626
5.28448
6.07881
5.98968
5.73166
5.86138
2.58228
0.742103
1.23997
4.03643
4.07861
4.19682
4.09037
3.762
3.42431
3.20322
3.20725
2.8603
1.73785
0.816175
0.414745
0.266958
0.192356
0.118692
0.03457
0.00770668
0.0677192
0.125089
0.376924
1.58765
1.81644
1.51446
1.79561
1.73008
1.4847
1.56082
1.46679
1.50527
1.88308
1.18359
0.437662
0.541188
0.543056
0.451879
0.303552
0.227862
0.168725
0.0917073
0.261703
3.402
7.07329
6.93708
6.64929
6.22313
5.97068
5.9869
5.95447
5.81038
5.68386
5.76328
6.0674
6.7828
7.63897
8.54002
9.38803
10.1007
10.6847
11.1418
11.515
11.8984
12.4555
13.1089
13.4293
13.7024
13.7267
13.0651
11.5406
8.93054
6.35275
4.55869
4.8826
5.8962
5.92557
5.81346
5.94172
2.84931
0.783088
1.27983
4.14916
4.18982
4.32005
4.21
3.91132
3.55331
3.28314
3.23288
3.02368
1.94661
0.946573
0.467461
0.282861
0.195791
0.120619
0.0363721
0.00760888
0.062243
0.122566
0.410827
1.43133
1.55825
1.69833
1.83637
1.68268
1.45763
1.59116
1.4656
1.47315
1.79955
1.30185
0.482869
0.592104
0.526358
0.597772
0.359608
0.25151
0.170113
0.0798794
0.280167
3.76061
7.32049
7.12186
6.8433
6.37466
6.06585
5.98138
5.93544
5.77993
5.65207
5.72508
6.03203
6.77878
7.6433
8.56051
9.42761
10.142
10.714
11.1509
11.5003
11.86
12.3803
13.0194
13.357
13.6334
13.6686
13.0338
11.4346
8.62298
5.8372
4.20215
4.49026
5.87861
6.06996
5.49458
6.16686
3.13201
0.786505
1.33675
4.25979
4.2969
4.43747
4.31984
4.05616
3.6826
3.37522
3.26453
3.1579
2.15424
1.0935
0.532773
0.30517
0.202111
0.123729
0.0387955
0.00770853
0.0566951
0.120334
0.457989
1.90623
1.62379
1.68086
1.87358
1.64502
1.45469
1.61432
1.44757
1.46623
1.71151
1.32775
0.591967
0.618482
0.529814
0.621378
0.439302
0.279351
0.168008
0.0683136
0.304857
4.1603
7.49202
7.34654
7.04573
6.53114
6.16027
5.96956
5.91401
5.74862
5.61948
5.68612
6.00015
6.77493
7.64672
8.57926
9.46935
10.1877
10.746
11.1589
11.4796
11.8103
12.2862
12.8948
13.258
13.5293
13.562
12.922
11.2558
8.2658
5.32891
3.87611
4.12518
5.54366
5.91924
5.49039
5.77416
3.29581
0.829848
1.38274
4.3674
4.39882
4.54749
4.41986
4.18776
3.80864
3.47732
3.30722
3.26244
2.35527
1.25488
0.611575
0.334682
0.211701
0.128088
0.0418584
0.00801319
0.0513545
0.118622
0.496765
1.61592
1.93483
1.84001
1.9274
1.60424
1.4975
1.62684
1.45409
1.46472
1.64096
1.33609
0.713915
0.621629
0.456121
0.617145
0.581703
0.327078
0.169162
0.0592337
0.344831
4.58872
7.66822
7.34844
7.26049
6.69202
6.25547
5.96937
5.88932
5.71708
5.58584
5.64454
5.97215
6.77148
7.64885
8.59489
9.5125
10.2385
10.7819
11.1667
11.4535
11.7487
12.174
12.7446
13.1328
13.3913
13.4148
12.7436
10.9601
8.0663
4.86617
3.59167
3.7849
5.2976
6.01762
5.66414
6.00284
3.47028
0.868847
1.44447
4.47102
4.49445
4.64853
4.50923
4.2945
3.92629
3.58241
3.36119
3.33746
2.54495
1.4279
0.704363
0.372159
0.224966
0.133838
0.0455769
0.00854118
0.0464054
0.116602
0.53203
1.68597
1.81464
1.99701
2.00678
1.5715
1.58498
1.64603
1.45391
1.4471
1.59547
1.33905
0.817381
0.632574
0.437667
0.604146
0.677936
0.38005
0.161197
0.0511928
0.398859
5.04892
7.79116
7.62404
7.47953
6.85708
6.35288
5.98318
5.86083
5.68601
5.55117
5.59637
5.94819
6.76884
7.64942
8.60562
9.5557
10.2948
10.823
11.1758
11.4232
11.6751
12.0416
12.5671
12.9829
13.2208
13.2302
12.5141
10.7096
7.85671
4.5027
3.44555
3.5165
5.0573
6.07906
5.51363
6.03756
3.55609
0.89511
1.50166
4.56954
4.58263
4.73891
4.58643
4.37793
4.03066
3.6823
3.42262
3.39304
2.72008
1.60918
0.811315
0.418398
0.242321
0.141153
0.0499777
0.00930774
0.042063
0.115087
0.57971
2.21832
1.8713
2.16729
2.09405
1.55373
1.61238
1.65757
1.44456
1.44268
1.5672
1.35092
0.959376
0.661847
0.442899
0.462151
0.728411
0.468776
0.164791
0.0453788
0.467946
5.53249
7.84659
7.44175
7.70263
7.02603
6.45272
6.00619
5.82905
5.65657
5.51765
5.54813
5.92771
6.76754
7.64826
8.60931
9.59681
10.3569
10.8709
11.1879
11.3901
11.5896
11.8852
12.3629
12.81
13.0198
13.0082
12.2361
10.5521
7.67775
4.35971
3.27417
3.32081
4.83732
6.07995
5.48422
6.1205
3.62791
0.954048
1.5611
4.66175
4.66217
4.81689
4.64957
4.43843
4.11935
3.77439
3.49004
3.43786
2.87856
1.79457
0.931844
0.474161
0.26429
0.150244
0.0550972
0.0103479
0.0382569
0.112647
0.616326
2.0205
2.21806
2.35979
2.18966
1.54235
1.62214
1.65531
1.44701
1.44571
1.55017
1.3693
1.02605
0.686019
0.498986
0.439967
0.561041
0.470973
0.149903
0.0409887
0.565372
5.97587
7.99306
7.62035
7.93411
7.19826
6.55475
6.03487
5.79504
5.6301
5.4876
5.50448
5.91051
6.76816
7.64547
8.60342
9.63261
10.4246
10.9271
11.2048
11.3556
11.4923
11.7098
12.1327
12.6161
12.79
12.74
11.8845
10.1075
7.20095
4.00139
3.159
3.14557
4.6134
5.88278
5.74932
5.86597
3.61653
0.952617
1.63543
4.74639
4.73191
4.88059
4.69678
4.47606
4.18891
3.8512
3.5579
3.47719
3.01918
1.9796
1.06434
0.539908
0.291365
0.161378
0.0609793
0.0116781
0.0351607
0.110903
0.651178
2.11941
2.22515
2.56171
2.29995
1.54438
1.62704
1.63537
1.46533
1.46447
1.54382
1.38902
1.02131
0.734268
0.551793
0.447864
0.688865
0.590554
0.156393
0.0379841
0.700565
6.42398
8.22182
7.79586
8.17107
7.37332
6.65844
6.06678
5.76038
5.60763
5.46252
5.468
5.89817
6.77142
7.64152
8.58517
9.65854
10.4968
10.9934
11.2289
11.3212
11.3819
11.525
11.8775
12.3991
12.5208
12.3963
11.4538
9.70014
6.67744
3.74341
3.0762
3.00984
4.42817
6.03569
5.91476
5.82061
3.62709
1.01303
1.68936
4.82213
4.79069
4.92796
4.72627
4.49055
4.23472
3.90494
3.618
3.5108
3.1405
2.16018
1.20736
0.615945
0.324028
0.174806
0.0676891
0.0133522
0.0323981
0.107826
0.688843
2.53599
2.32507
2.76738
2.41359
1.64916
1.69303
1.58926
1.47877
1.52265
1.56147
1.40581
0.955339
0.780703
0.60124
0.45125
0.64978
0.668491
0.182359
0.0371469
0.886497
6.81431
8.29515
8.05726
8.41244
7.55065
6.76307
6.10031
5.7265
5.58973
5.44307
5.44168
5.89323
6.77821
7.63742
8.55166
9.66838
10.5715
11.0714
11.2629
11.2885
11.2513
11.3309
11.5988
12.1509
12.1994
11.967
10.9572
9.19895
6.21656
3.47616
3.09758
2.91153
4.27911
5.82689
5.93637
5.76464
3.53883
1.01812
1.78573
4.88747
4.83735
4.95677
4.73646
4.4812
4.24561
3.93495
3.66796
3.53958
3.24205
2.33081
1.35686
0.701927
0.362285
0.190704
0.0752656
0.0153718
0.030415
0.105639
0.726133
3.12854
2.69659
2.9588
2.51885
1.95146
1.72791
1.54231
1.51428
1.61402
1.61809
1.42441
0.903073
0.836086
0.645823
0.468327
0.717128
0.753507
0.207938
0.0375574
1.13916
7.18455
8.18607
8.53903
8.65456
7.7295
6.86771
6.13438
5.69484
5.57658
5.42881
5.42585
5.89679
6.78979
7.63494
8.50026
9.65397
10.6446
11.1623
11.3095
11.2588
11.0897
11.1305
11.2991
11.8691
11.8184
11.4513
10.4387
8.78184
5.81493
3.3247
3.04092
2.81658
4.31755
5.87337
6.08969
5.89087
3.53422
1.10299
1.81559
4.94061
4.87065
4.96523
4.72535
4.44683
4.21707
3.93697
3.70169
3.56257
3.3256
2.47913
1.50197
0.794147
0.405804
0.209012
0.0837558
0.0178156
0.0284095
0.102138
0.75554
2.76897
2.75705
3.13038
2.60525
2.19922
1.76299
1.48938
1.58019
1.73947
1.72413
1.41471
0.869384
0.873546
0.682494
0.500629
0.672598
0.806178
0.229627
0.0409645
1.44641
7.48235
8.37388
8.43503
8.89764
7.90907
6.97126
6.16834
5.66676
5.5676
5.41896
5.41991
5.9094
6.80756
7.63691
8.42912
9.60519
10.7101
11.2665
11.3714
11.2329
10.8929
10.9264
10.9812
11.5471
11.3688
10.8675
9.92086
8.42501
5.53348
3.24087
3.08296
2.7037
4.46808
6.10089
6.41122
6.18336
3.45599
1.11632
1.831
4.97945
4.88935
4.95217
4.69038
4.38607
4.15049
3.905
3.70982
3.57371
3.38413
2.6014
1.63603
0.886533
0.452877
0.229362
0.093089
0.0206325
0.027404
0.0991729
0.775743
2.81991
2.88954
3.27583
2.65733
2.49805
1.77165
1.42822
1.72758
1.83872
1.90048
1.38086
0.919072
0.948828
0.716496
0.53906
0.623314
0.819619
0.248701
0.0465249
1.85476
7.79186
8.54926
8.71318
9.14672
8.08813
7.07289
6.20421
5.65759
5.56155
5.41488
5.42168
5.93036
6.83297
7.65875
8.43703
9.64243
10.7597
11.3831
11.4507
11.2086
10.698
10.7209
10.6473
11.172
10.8473
10.2567
9.44618
8.1081
5.41363
3.20726
3.18866
2.50908
4.60256
6.36306
6.7335
6.48666
3.53872
1.20482
1.86957
5.00149
4.89216
4.91615
4.62964
4.29783
4.04614
3.83868
3.69092
3.57067
3.41896
2.69714
1.75406
0.975626
0.500021
0.251039
0.103114
0.0239176
0.0258367
0.0959972
0.803556
3.27458
3.26691
3.40756
2.71621
2.73194
1.78553
1.35421
1.92849
1.97001
1.68744
1.29695
1.01787
1.00142
0.731826
0.579559
0.634638
0.835949
0.22904
0.0562685
2.30809
8.16288
8.80091
9.22862
9.39386
8.26523
7.17166
6.24246
5.66252
5.55837
5.41705
5.42856
5.95841
6.86549
7.68457
8.44263
9.68472
10.7877
11.5092
11.5487
11.1734
10.5087
10.5163
10.3249
10.7268
10.2674
9.66247
9.0358
7.8504
5.38765
3.2158
3.37704
1.87971
4.72432
6.63129
7.00685
6.80328
3.69468
1.25424
1.8488
5.00386
4.87781
4.85576
4.54169
4.1815