/*--------------------------------*- C++ -*----------------------------------*\
| =========                 |                                                 |
| \\      /  F ield         | OpenFOAM: The Open Source CFD Toolbox           |
|  \\    /   O peration     | Version:  4.1                                   |
|   \\  /    A nd           | Web:      www.OpenFOAM.org                      |
|    \\/     M anipulation  |                                                 |
\*---------------------------------------------------------------------------*/
FoamFile
{
    version     2.0;
    format      ascii;
    class       volScalarField;
    location    "3";
    object      p;
}
// * * * * * * * * * * * * * * * * * * * * * * * * * * * * * * * * * * * * * //

dimensions      [0 2 -2 0 0 0 0];

internalField   nonuniform List<scalar> 
6785
(
555.92
489.763
439.007
389.237
343.191
299.937
259.352
221.204
185.337
151.216
118.235
87.6344
59.7726
26.1255
-9.32286
12.899
-4.46609
-0.483279
-4.89188
-7.69816
-10.7308
-13.3132
-15.2929
-16.4495
-16.642
-15.9623
-14.1984
-10.516
-6.2295
-4.89642
-24.8796
-30.4224
-20.3559
-21.3624
-17.6336
-15.3476
-12.7465
-10.3869
-8.19938
-6.20887
-4.44426
-2.89601
-1.46203
-0.104362
0.418755
24.1292
21.1164
25.6166
21.2622
21.5816
19.4891
18.01
16.2235
14.4835
12.7729
11.3952
10.5338
9.73052
8.91258
8.27178
7.35434
4.04426
5.82081
1.79513
2.40094
0.507642
-0.133111
-1.0376
-1.65274
-2.1649
-2.44747
-2.72255
-3.61496
-4.6624
-5.02711
-13.8591
-16.4454
-14.7775
-17.5849
-16.3265
-17.6816
-17.7164
-18.2267
-18.616
-19.0515
-19.4261
-19.7003
-20.2174
-20.4596
-19.6529
-16.4847
-17.6336
-15.7242
-17.6558
-16.2106
-17.1525
-16.9299
-17.1665
-17.3578
-17.575
-17.7556
-17.7817
-17.5269
-17.0524
-15.8231
-8.16365
-8.02992
-6.10113
-7.20244
-5.57385
-5.81818
-5.09837
-4.68642
-4.20949
-3.69486
-3.1333
-2.54987
-1.78425
-1.11413
0.0246085
2.41221
3.28364
5.00246
4.38904
5.9714
6.0646
6.91466
7.53157
8.18984
8.87237
9.57967
10.2607
11.0348
11.6549
12.477
12.2396
13.5309
14.9708
14.5878
15.9893
16.1312
16.8901
17.4377
18.0188
18.6182
19.2423
19.8556
20.5563
21.1046
21.9024
22.8447
24.3342
25.3796
25.1605
26.3583
26.4437
27.1095
27.4931
27.942
28.3983
28.8885
29.4111
30.0131
30.4888
31.1726
31.7599
33.0378
33.6705
33.4878
34.3946
34.3431
34.8613
35.0086
35.2624
35.4553
35.6885
35.9833
36.3352
36.6841
37.0751
39.8715
40.2221
40.1571
39.5635
39.9844
39.6035
39.6517
39.316
39.0685
38.6843
38.3157
38.0403
37.933
38.0605
37.8684
35.7253
35.656
34.261
31.1532
31.2286
29.3445
28.6563
27.9736
27.6953
27.3482
27.1108
27.0861
27.4031
27.7698
27.4162
45.7616
42.3002
36.9265
32.7504
29.5129
27.2201
27.4959
28.1456
28.0189
27.4467
26.7083
25.9626
25.3843
24.9992
24.4858
30.3811
30.3799
30.3662
30.3738
30.3567
30.3961
30.3341
30.3276
30.3386
30.3806
30.3557
30.2564
30.5137
30.3495
30.2811
30.3409
30.4845
30.4622
30.2811
30.6922
30.5155
30.3868
30.469
30.7108
30.6597
30.5308
30.6182
30.8259
30.8729
30.6561
31.0624
31.0023
30.8479
30.9504
31.1217
31.2211
31.0477
31.361
31.3818
31.274
31.3676
31.4888
31.6092
31.5389
31.6227
31.7007
31.8678
31.7935
31.9489
32.0659
32.039
32.1231
32.1383
32.3464
32.3425
32.4287
32.4166
32.6639
32.6585
32.6962
32.9735
33.0942
33.3167
33.2917
33.9459
34.1667
34.169
35.0691
35.2068
35.6469
35.5989
36.0565
35.8307
36.8273
37.6007
33.3146
35.917
37.3586
24.114
28.1528
32.6214
33.9452
35.6631
31.9587
34.1914
37.508
38.4218
39.5685
39.7922
39.668
40.2181
41.1747
40.6173
34.8285
34.0693
34.4843
34.4734
32.9453
32.1001
31.5629
31.8468
29.1569
25.1565
24.9447
24.2395
24.2784
25.5558
25.6408
24.9793
26.151
25.9492
22.7965
22.8348
23.4116
23.9975
24.4324
25.9265
28.1516
29.9546
27.8802
23.2181
27.3513
30.2955
31.6445
31.3735
30.9685
31.1279
33.2686
31.3391
34.6295
31.3124
29.0722
29.5251
29.5386
27.8367
26.6061
24.0893
19.5173
29.9392
28.5709
24.1646
21.3585
17.8857
15.0263
12.341
9.95113
6.69957
2.84318
4.76442
7.36774
3.1766
1.88275
0.400184
-2.45958
-7.66451
-8.6178
-6.74753
-14.258
-3.35216
-5.95162
-8.82131
-4.26711
-7.41486
-6.13955
-6.45204
-4.94637
-3.25738
-5.97964
-4.13855
-2.74775
-4.82735
-4.31048
-4.81131
-3.81874
-2.36191
-4.50353
-4.04721
-4.60739
-3.59629
-2.44524
-4.98789
-3.49152
-2.36955
-4.37955
-3.96771
-4.53258
-3.6355
-2.29353
-4.36566
-3.93651
-4.49175
-3.53169
-2.41634
-4.83495
-3.39693
-2.31415
-4.20226
-3.77722
-4.28077
-3.41352
-2.13769
-4.04837
-3.5967
-4.08114
-3.14845
-2.09364
-4.3071
-2.9124
-1.8863
-3.63482
-3.18894
-3.64337
-2.76116
-1.52459
-3.34717
-2.88161
-3.33674
-2.38269
-1.31482
-3.52102
-2.09602
-1.01835
-2.82239
-2.35989
-2.82702
-1.8776
-0.514438
-2.51571
-2.02201
-2.52307
-1.43182
-0.161665
-2.80554
-1.09787
0.290627
-2.02783
-1.48128
-2.19487
-1.01632
2.27705
-0.00412706
-0.0133508
-0.0445062
-0.119688
-0.208533
-0.306772
-0.402599
-0.489471
-0.552579
-0.609518
-0.638302
-0.617167
-0.581315
-0.504141
-0.439527
-0.3272
-0.183026
-0.100745
-0.0191627
0.0620781
0.126464
0.186398
0.219947
0.274054
0.269557
0.0463781
0.0795348
0.0580954
0.0456232
0.0331907
0.152907
0.191662
0.215913
0.219365
0.212711
0.193435
0.172743
0.146507
0.118503
0.100426
0.0760329
0.0219342
-0.0441842
-0.0805514
-0.114247
-0.135398
-0.126325
-0.0785509
-0.0770991
-0.0894353
-0.0979516
-0.100458
-0.0958488
-0.0843794
-0.0672545
-0.0464928
-0.023853
-0.00149197
0.0187261
0.0352448
0.0467281
0.0519513
0.0509575
0.043608
0.0306901
0.0138616
-0.0051311
-0.0230227
-0.0369661
-0.0417285
-0.038048
-0.0359394
-0.0375639
-0.0466452
-0.125772
-0.143262
-0.196615
0.0169277
-0.0628489
-0.0166776
-0.0534438
-0.136645
-0.284023
-0.440582
-0.608917
-0.776152
-0.935793
-1.06046
-1.16148
-1.20888
-1.17433
-1.10123
-0.964477
-0.82456
-0.625516
-0.387737
-0.214027
-0.0472816
0.108409
0.23086
0.350494
0.416084
0.537271
0.566751
0.193378
0.19837
0.172642
0.161227
0.123775
0.335982
0.388899
0.427948
0.431257
0.415401
0.376226
0.333454
0.27896
0.216356
0.16035
0.0850345
-0.0216956
-0.137969
-0.224757
-0.313081
-0.37471
-0.383916
-0.304311
-0.293861
-0.319903
-0.335416
-0.33451
-0.31302
-0.270663
-0.210188
-0.137547
-0.0587282
0.0196009
0.0915101
0.151471
0.195603
0.220274
0.225282
0.209613
0.174793
0.123976
0.0613253
-0.00512596
-0.0676035
-0.111633
-0.126987
-0.14505
-0.164535
-0.208912
-0.337489
-0.395691
-0.47208
-0.305374
-0.455325
-0.0356356
-0.110482
-0.227853
-0.396338
-0.563385
-0.737619
-0.917362
-1.09366
-1.23439
-1.34104
-1.38554
-1.34243
-1.249
-1.08964
-0.915548
-0.690071
-0.433638
-0.227384
-0.033205
0.142495
0.277561
0.413597
0.483509
0.637051
0.717255
0.399569
0.335011
0.292978
0.28162
0.248894
0.42497
0.458215
0.494465
0.494128
0.473867
0.42774
0.378587
0.315567
0.240669
0.166894
0.0711592
-0.0503028
-0.196885
-0.319989
-0.449888
-0.551804
-0.607215
-0.568472
-0.573547
-0.605483
-0.624363
-0.617401
-0.575466
-0.49707
-0.386136
-0.253176
-0.108986
0.0342135
0.165528
0.274756
0.354464
0.397983
0.404902
0.373326
0.30651
0.210345
0.0934407
-0.0282397
-0.140623
-0.218294
-0.24388
-0.275266
-0.297421
-0.351321
-0.471929
-0.529199
-0.603807
-0.529754
-0.580833
-0.0535009
-0.162927
-0.309443
-0.502656
-0.687854
-0.879609
-1.07936
-1.27364
-1.42859
-1.54158
-1.58792
-1.53977
-1.42504
-1.23917
-1.03163
-0.773481
-0.488289
-0.250902
-0.0293439
0.170024
0.321472
0.47627
0.553438
0.740675
0.858412
0.569984
0.456077
0.403372
0.387365
0.371061
0.524416
0.542996
0.575537
0.569499
0.543559
0.48915
0.432079
0.358879
0.271293
0.182768
0.0737049
-0.0714318
-0.265558
-0.427048
-0.596595
-0.729127
-0.806537
-0.79927
-0.839131
-0.883987
-0.907907
-0.894602
-0.831567
-0.717055
-0.556504
-0.364716
-0.157224
0.0485839
0.237259
0.394277
0.509124
0.572546
0.583824
0.539848
0.444922
0.306535
0.136322
-0.0430167
-0.211284
-0.331829
-0.375791
-0.423619
-0.443957
-0.503941
-0.61962
-0.657441
-0.730976
-0.678114
-0.662178
-0.0726132
-0.218863
-0.397068
-0.620883
-0.833642
-1.05846
-1.2922
-1.5172
-1.69614
-1.82348
-1.8767
-1.82269
-1.68508
-1.46787
-1.2207
-0.918731
-0.588685
-0.306935
-0.0449614
0.190638
0.36935
0.552468
0.643143
0.86611
0.994091
0.719066
0.577924
0.513023
0.479901
0.482002
0.636033
0.657013
0.691071
0.679664
0.647314
0.581555
0.512807
0.424644
0.319359
0.211475
0.0822118
-0.09669
-0.336305
-0.540308
-0.758828
-0.931021
-1.03423
-1.05602
-1.12604
-1.18318
-1.21095
-1.18944
-1.10269
-0.949025
-0.735685
-0.481848
-0.207934
0.0632597
0.3116
0.518129
0.669152
0.752883
0.768235
0.710753
0.585744
0.40208
0.174346
-0.0678358
-0.297884
-0.466663
-0.532814
-0.599075
-0.613877
-0.678248
-0.79965
-0.819445
-0.894652
-0.851789
-0.876401
-0.0923087
-0.276999
-0.488638
-0.747831
-0.992249
-1.25105
-1.51739
-1.77275
-1.97486
-2.11513
-2.17206
-2.10822
-1.94586
-1.69603
-1.40724
-1.06092
-0.685844
-0.357697
-0.0547983
0.216318
0.421004
0.630325
0.732026
0.981883
1.10326
0.855686
0.686983
0.613474
0.572203
0.590332
0.740218
0.768108
0.804425
0.787442
0.749282
0.672486
0.592871
0.490718
0.368681
0.241567
0.0907618
-0.120714
-0.403756
-0.649872
-0.917831
-1.13371
-1.26835
-1.32023
-1.42032
-1.49141
-1.52318
-1.49245
-1.38041
-1.18586
-0.918253
-0.601108
-0.259766
0.0775648
0.386163
0.642728
0.830595
0.935534
0.956053
0.886085
0.731597
0.502119
0.21456
-0.0949993
-0.393574
-0.618417
-0.712947
-0.80165
-0.807476
-0.870485
-0.992611
-0.992445
-1.06568
-1.03411
-1.02491
-0.112626
-0.337861
-0.583902
-0.882066
-1.16064
-1.45133
-1.74588
-2.02782
-2.24984
-2.40018
-2.45733
-2.38151
-2.19228
-1.90819
-1.57701
-1.18731
-0.769802
-0.397862
-0.057435
0.24578
0.473274
0.704541
0.81431
1.0779
1.18863
0.951792
0.794244
0.708118
0.663499
0.697008
0.840405
0.874302
0.911032
0.887275
0.843243
0.755827
0.666287
0.551627
0.414766
0.27049
0.0999584
-0.14387
-0.472648
-0.760929
-1.07807
-1.33884
-1.51046
-1.59854
-1.72922
-1.81467
-1.84997
-1.80847
-1.66888
-1.43081
-1.10632
-0.723361
-0.312278
0.0931687
0.463638
0.771497
0.997206
1.12413
1.15035
1.06798
0.883445
0.606296
0.255341
-0.127186
-0.501981
-0.791147
-0.920906
-1.03593
-1.02892
-1.08224
-1.19702
-1.16838
-1.23376
-1.2124
-1.20763
-0.133489
-0.401302
-0.682796
-1.02314
-1.33911
-1.66164
-1.98297
-2.29043
-2.53271
-2.69337
-2.74932
-2.66032
-2.44247
-2.1222
-1.74756
-1.31388
-0.853843
-0.43879
-0.061337
0.273412
0.523558
0.775175
0.892807
1.16188
1.2599
1.01306
0.893581
0.798858
0.756546
0.801826
0.943675
0.983306
1.01914
0.98771
0.937327
0.838884
0.739076
0.611863
0.460487
0.300034
0.11038
-0.167005
-0.543079
-0.875664
-1.24397
-1.55064
-1.76203
-1.88924
-2.05123
-2.15153
-2.19016
-2.13655
-1.96738
-1.68343
-1.2997
-0.848751
-0.365958
0.109267
0.54298
0.903276
1.16786
1.31775
1.35059
1.25646
1.04191
0.715744
0.298064
-0.163208
-0.62278
-0.985808
-1.15892
-1.30464
-1.28239
-1.31643
-1.41908
-1.3533
-1.40509
-1.39444
-1.35688
-0.154775
-0.467192
-0.784894
-1.17012
-1.52788
-1.88416
-2.23236
-2.56519
-2.82925
-3.00136
-3.05496
-2.95079
-2.70245
-2.34392
-1.92419
-1.44523
-0.94149
-0.482494
-0.0669789
0.299559
0.572741
0.843594
0.969675
1.24563
1.32123
1.08778
0.982716
0.886837
0.853994
0.907225
1.05084
1.09545
1.12971
1.09036
1.03347
0.923752
0.813404
0.67358
0.507802
0.331887
0.122734
-0.189037
-0.614221
-0.993388
-1.41541
-1.77013
-2.02472
-2.19393
-2.38819
-2.50352
-2.54515
-2.4779
-2.27689
-1.94431
-1.49859
-0.977007
-0.420094
0.126976
0.625643
1.03976
1.34437
1.51821
1.5585
1.45307
1.20831
0.831439
0.343224
-0.203237
-0.757285
-1.20499
-1.43105
-1.61252
-1.57237
-1.57507
-1.66049
-1.55001
-1.58136
-1.5611
-1.49848
-0.176415
-0.535237
-0.889621
-1.32196
-1.72702
-2.12044
-2.49576
-2.85295
-3.13936
-3.32308
-3.37292
-3.2512
-2.97037
-2.57124
-2.10423
-1.57827
-1.02966
-0.525941
-0.0717126
0.32623
0.621985
0.910227
1.04518
1.33015
1.37513
1.16585
1.06291
0.973243
0.958739
1.01611
1.16118
1.20838
1.24038
1.19313
1.12978
1.00891
0.888182
0.73621
0.556658
0.366331
0.13724
-0.210089
-0.686847
-1.1146
-1.59265
-1.99801
-2.29951
-2.51314
-2.74065
-2.87116
-2.91549
-2.83308
-2.59793
-2.21393
-1.70337
-1.10844
-0.474933
0.146113
0.711519
1.18094
1.5268
1.72568
1.77442
1.65836
1.38344
0.954302
0.391636
-0.246906
-0.906306
-1.45109
-1.7414
-1.96494
-1.90395
-1.86053
-1.92132
-1.758
-1.76134
-1.73243
-1.68858
-0.198317
-0.605075
-0.997428
-1.47858
-1.93578
-2.37104
-2.77455
-3.15429
-3.46269
-3.65745
-3.70236
-3.56117
-3.24601
-2.80389
-2.28707
-1.71208
-1.11726
-0.568291
-0.0750945
0.353572
0.671108
0.974699
1.11899
1.41197
1.42299
1.23047
1.13623
1.05836
1.06773
1.12863
1.2744
1.32109
1.3503
1.29524
1.22542
1.09354
0.962608
0.799031
0.606462
0.402799
0.153468
-0.231067
-0.761776
-1.24033
-1.77657
-2.23523
-2.58732
-2.84761
-3.1096
-3.25536
-3.30205
-3.20287
-2.9311
-2.49268
-1.91416
-1.2429
-0.530075
0.167306
0.801429
1.32776
1.71618
1.94125
1.99948
1.87351
1.56851
1.0855
0.444195
-0.293908
-1.07094
-1.72706
-2.09508
-2.36946
-2.2829
-2.17572
-2.20263
-1.97746
-1.94403
-1.91441
-1.83187
-0.22043
-0.676467
-1.10941
-1.64071
-2.1524
-2.6357
-3.06983
-3.47058
-3.79968
-4.00481
-4.04414
-3.88196
-3.5308
-3.04335
-2.47405
-1.84771
-1.20496
-0.610125
-0.0776222
0.381205
0.719795
1.03685
1.19123
1.48925
1.4659
1.29636
1.20456
1.1416
1.17352
1.23835
1.38817
1.43304
1.45946
1.39684
1.32047
1.17771
1.03665
0.861914
0.656977
0.440825
0.171098
-0.252498
-0.839439
-1.37138
-1.96803
-2.48276
-2.88904
-3.19805
-3.49584
-3.65701
-3.70568
-3.58803
-3.27707
-2.78105
-2.13127
-1.3805
-0.585451
0.19079
0.895743
1.4807
1.91305
2.16555
2.23441
2.0994
1.76457
1.22617
0.501882
-0.343798
-1.25229
-2.03618
-2.49798
-2.83507
-2.7155
-2.52375
-2.5059
-2.20901
-2.12838
-2.08002
-1.95736
-0.242709
-0.74931
-1.22579
-1.80763
-2.37562
-2.91388
-3.38268
-3.80367
-4.15122
-4.36612
-4.39948
-4.21483
-3.82592
-3.29076
-2.6661
-1.98586
-1.29303
-0.651484
-0.0791541
0.409393
0.768264
1.09693
1.26216
1.56163
1.50508
1.3593
1.26759
1.22296
1.27462
1.33725
1.49532
1.54349
1.56751
1.49783
1.41488
1.26144
1.11038
0.924936
0.708254
0.480288
0.190126
-0.274729
-0.920254
-1.50833
-2.16779
-2.74152
-3.20552
-3.56542
-3.9002
-4.07708
-4.1273
-3.98939
-3.63647
-3.07947
-2.35491
-1.52121
-0.640804
0.217014
0.995058
1.64046
2.11818
2.3994
2.48013
2.33707
1.97281
1.3776
0.565826
-0.39602
-1.45157
-2.38219
-2.95695
-3.37192
-3.20853
-2.90784
-2.83262
-2.453
-2.31459
-2.2512
-2.13477
-0.26513
-0.823512
-1.34669
-1.97865
-2.60592
-3.2044
-3.71395
-4.15542
-4.51859
-4.74239
-4.76932
-4.56069
-4.13207
-3.54666
-2.86364
-2.12669
-1.38125
-0.691923
-0.0791426
0.438719
0.816913
1.15525
1.33158
1.62944
1.54198
1.41928
1.32469
1.30362
1.37529
1.42985
1.58765
1.65201
1.6738
1.59779
1.50835
1.34453
1.18369
0.988072
0.760317
0.521137
0.210435
-0.298204
-1.0047
-1.65176
-2.37661
-3.0124
-3.53753
-3.95061
-4.32351
-4.51659
-4.5679
-4.40779
-4.01001
-3.38845
-2.58533
-1.66503
-0.695923
0.246372
1.09991
1.80767
2.33226
2.64357
2.73748
2.58752
2.19444
1.54115
0.637281
-0.449875
-1.67007
-2.76916
-3.47989
-3.99122
-3.76945
-3.331
-3.18431
-2.70956
-2.50203
-2.42184
-2.25641
-0.287686
-0.89916
-1.47314
-2.15506
-2.84323
-3.50554
-4.06351
-4.52744
-4.90337
-5.13469
-5.15438
-4.92033
-4.44989
-3.81151
-3.06702
-2.27037
-1.46943
-0.731015
-0.0770917
0.469704
0.866078
1.21211
1.39895
1.69297
1.57796
1.47626
1.37548
1.38496
1.47712
1.52489
1.67307
1.75881
1.77775
1.69632
1.60052
1.4267
1.2564
1.05121
0.813086
0.56322
0.231628
-0.323389
-1.09319
-1.80216
-2.59518
-3.29629
-3.88586
-4.35433
-4.76662
-4.97661
-5.02851
-4.84416
-4.3984
-3.70846
-2.82276
-1.81194
-0.750555
0.279302
1.21088
1.983
2.55599
2.8988
3.00733
2.85178
2.43072
1.71828
0.717659
-0.504491
-1.90911
-3.20152
-4.07588
-4.70602
-4.40674
-3.79582
-3.56252
-2.97856
-2.69014
-2.59174
-2.41516
-0.310387
-0.976505
-1.60574
-2.33751
-3.08607
-3.81658
-4.43072
-4.92114
-5.3075
-5.5441
-5.55538
-5.2946
-4.78006
-4.08581
-3.27668
-2.41716
-1.55754
-0.768424
-0.0725595
0.502855
0.91613
1.26794
1.46418
1.75094
1.61276
1.5273
1.41918
1.46739
1.57606
1.62327
1.76879
1.86359
1.87882
1.7931
1.69112
1.50774
1.32839
1.11423
0.866448
0.606348
0.253228
-0.350686
-1.18598
-1.96009
-2.82415
-3.59401
-4.2513
-4.77755
-5.2304
-5.45831
-5.51025
-5.29944
-4.8024
-4.04005
-3.06747
-1.96191
-0.804432
0.316258
1.32855
2.16711
2.79009
3.16586
3.29051
3.13085
2.68293
1.91056
0.808544
-0.558786
-2.17001
-3.68389
-4.75531
-5.53182
-5.13022
-4.30472
-3.96886
-3.25956
-2.87882
-2.76636
-2.53792
-0.333254
-1.05576
-1.74396
-2.52532
-3.33509
-4.13816
-4.81435
-5.33791
-5.73312
-5.97186
-5.97326
-5.68447
-5.12332
-4.37009
-3.49301
-2.56724
-1.64556
-0.803761
-0.0650537
0.53877
0.967582
1.32352
1.52752
1.80173
1.64332
1.56921
1.45305
1.55168
1.67611
1.725
1.87749
1.96438
1.97642
1.88777
1.77985
1.58742
1.39952
1.17704
0.920313
0.650321
0.274799
-0.380485
-1.28331
-2.12609
-3.06406
-3.90636
-4.63464
-5.22129
-5.71576
-5.96293
-6.01429
-5.77466
-5.22284
-4.38376
-3.31968
-2.1149
-0.857262
0.357721
1.45356
2.36069
3.03525
3.44549
3.58784
3.42575
2.95237
2.11963
0.911707
-0.611417
-2.45393
-4.22092
-5.52999
-6.48668
-5.95118
-4.86008
-4.40505
-3.55177
-3.06777
-2.92482
-2.64279
-0.356315
-1.13705
-1.887
-2.71932
-3.59249
-4.46923
-5.2131
-5.77846
-6.18208
-6.41944
-6.40916
-6.09089
-5.48046
-4.66492
-3.71637
-2.7207
-1.73342
-0.836583
-0.054013
0.578139
1.02112
1.3799
1.58961
1.8447
1.66475
1.59739
1.47253
1.63717
1.77992
1.83504
1.99121
2.05856
2.06985
1.97996
1.8664
1.66552
1.46965
1.23955
0.974609
0.694921
0.295958
-0.413208
-1.38525
-2.30048
-3.31541
-4.23411
-5.03679
-5.68658
-6.22394
-6.49181
-6.54189
-6.27088
-5.66056
-4.74015
-3.57965
-2.27085
-0.908729
0.404198
1.58653
2.56444
3.29217
3.73839
3.9001
3.73745
3.24032
2.34714
1.02912
-0.660718
-2.7617
-4.81695
-6.41282
-7.59151
-6.88263
-5.46401
-4.87242
-3.85417
-3.25764
-3.08392
-2.79082
-0.379597
-1.22047
-2.03435
-2.9211
-3.85737
-4.809
-5.62695
-6.2426
-6.65601
-6.88874
-6.86438
-6.5148
-5.8523
-4.97083
-3.94706
-2.87757
-1.82101
-0.866407
-0.0388436
0.621711
1.07762
1.43835
1.65127
1.87872
1.671
1.60519
1.47101
1.72102
1.89041
1.95823
2.10132
2.14356
2.15851
2.06929
1.95047
1.74179
1.53866
1.30168
1.02928
0.739957
0.316448
-0.449244
-1.49175
-2.48341
-3.57865
-4.57794
-5.45863
-6.17467
-6.75674
-7.04642
-7.09437
-6.78927
-6.11647
-5.10979
-3.84762
-2.42968
-0.958493
0.456224
1.72814
2.77905
3.56155
4.04525
4.22804
4.06687
3.54795
2.59473
1.16295
-0.704609
-3.09357
-5.47546
-7.41743
-8.86967
-7.93929
-6.11872
-5.37193
-4.1657
-3.44842
-3.24959
-2.89152
-0.403129
-1.30604
-2.18568
-3.13095
-4.12967
-5.16011
-6.05604
-6.7293
-7.15669
-7.38199
-7.34023
-6.95724
-6.23971
-5.2884
-4.18534
-3.0378
-1.90815
-0.892765
-0.0189231
0.670303
1.13805
1.50012
1.71295
1.90128
1.65664
1.58302
1.43686
1.80089
2.01424
2.08316
2.19831
2.21737
2.24199
2.15542
2.03174
1.81597
1.60641
1.36334
1.08431
0.785331
0.336164
-0.488957
-1.60273
-2.67495
-3.85419
-4.93848
-5.9011
-6.68691
-7.31604
-7.62828
-7.67312
-7.33103
-6.5915
-5.49329
-4.12381
-2.59129
-1.00618
0.514365
1.87905
3.00526
3.84406
4.36674
4.57234
4.41488
3.87638
2.86405
1.31555
-0.740509
-3.4488
-6.19821
-8.55719
-10.3463
-9.13658
-6.826
-5.90399
-4.48485
-3.6391
-3.39446
-2.97174
-0.426933
-1.39379
-2.3409
-3.34994
-4.41225
-5.52274
-6.4993
-7.23754
-7.68575
-7.90137
-7.83821
-7.41935
-6.64361
-5.61815
-4.43142
-3.20134
-1.99462
-0.915169
0.00643224
0.724802
1.20366
1.56621
1.77541
1.90956
1.6151
1.51621
1.35311
1.86894
2.14213
2.18533
2.27487
2.28106
2.32026
2.23804
2.1099
1.88785
1.67278
1.4245
1.13972
0.831053
0.355149
-0.532672
-1.71802
-2.87508
-4.14236
-5.31629
-6.36515
-7.22454
-7.90335
-8.23903
-8.27965
-7.89747
-7.08663
-5.89124
-4.40845
-2.75557
-1.0514
0.579217
2.03999
3.24379
4.14036
4.70345
4.93364
4.78227
4.22683
3.15699
1.48943
-0.765232
-3.82517
-6.98423
-9.84388
-12.0472
-10.4904
-7.58638
-6.46802
-4.8098
-3.82937
-3.54019
-3.09317
-0.45103
-1.48371
-2.50022
-3.5797
-4.70444
-5.89575
-6.95761
-7.76755
-8.24424
-8.44885
-8.36012
-7.90239
-7.06488
-5.96061
-4.6855
-3.36808
-2.08013
-0.933128
0.0379546
0.786188
1.27606
1.63758
1.84106
1.90087
1.53534
1.38575
1.20025
1.91307
2.26591
2.27393
2.32976
2.33985
2.39378
2.31684
2.18469
1.95722
1.73765
1.48515
1.1956
0.877181
0.373688
-0.580661
-1.83747
-3.08374
-4.44349
-5.71189
-6.85172
-7.78872
-8.51983
-8.88036
-8.91556
-8.48997
-7.60286
-6.30424
-4.70177
-2.92237
-1.09371
0.651414
2.21169
3.49542
4.45112
5.05595
5.31248
5.16974
4.60056
3.47555
1.68729
-0.774929
-4.21857
-7.82875
-11.2862
-13.9964
-12.0164
-8.40022
-7.06239
-5.13813
-4.01765
-3.6785
-3.16052
-0.475431
-1.57584
-2.66395
-3.81987
-5.00599
-6.28211
-7.43341
-8.31927
-8.83262
-9.02667
-8.90812
-8.40766
-7.5044
-6.3163
-4.94772
-3.53791
-2.16432
-0.946182
0.0764735
0.85554
1.35695
1.71575
1.91239
1.87378
1.40371
1.17254
0.962468
1.91479
2.38492
2.38886
2.3692
2.39727
2.46254
2.39154
2.25586
2.02389
1.80097
1.5453
1.25209
0.923788
0.392216
-0.633011
-1.96086
-3.30077
-4.75779
-6.1258
-7.36177
-8.38081
-9.16668
-9.55411
-9.58254
-9.11002
-8.14124
-6.73292
-5.00395
-3.09152
-1.13263
0.731626
2.39493
3.76091
4.77696
5.42476
5.70932
5.57786
4.99857
3.82147
1.91197
-0.765145
-4.62251
-8.72249
-12.8883
-16.2142
-13.7275
-9.26757
-7.68486
-5.4666
-4.20186
-3.80893
-3.26259
-0.500138
-1.67015
-2.8323
-4.06935
-5.32018
-6.68242
-7.92609
-8.89213
-9.4513
-9.63716
-9.48449
-8.93663
-7.9632
-6.6858
-5.21824
-3.7107
-2.24682
-0.953826
0.122844
0.93399
1.44788
1.80259
1.99066
1.83097
1.2085
0.866691
0.640698
1.8609
2.4939
2.51201
2.40355
2.45011
2.52565
2.46183
2.32323
2.08773
1.86265
1.60501
1.3094
0.970946
0.411209
-0.689307
-2.08768
-3.52595
-5.08538
-6.55857
-7.89624
-9.00221
-9.84554
-10.2624
-10.2824
-9.7592
-8.70288
-7.17787
-5.31517
-3.26282
-1.16767
0.820567
2.59052
4.04105
5.11851
5.81032
6.1245
6.00706
5.42157
4.19608
2.16619
-0.731151
-5.02827
-9.6521
-14.6493
-18.7143
-15.633
-10.1866
-8.33268
-5.79127
-4.37981
-3.93659
-3.32053
-0.525141
-1.76662
-3.00528
-4.32735
-5.64757
-7.09535
-8.43619
-9.48799
-10.1012
-10.2822
-10.0914
-9.491
-8.44248
-7.06975
-5.4972
-3.88627
-2.32722
-0.955474
0.177998
1.02274
1.55031
1.89941
2.07803
1.78135
0.94853
0.482272
0.264799
1.75465
2.58284
2.62303
2.43857
2.48858
2.58197
2.52723
2.38666
2.14863
1.92269
1.66442
1.36778
1.01875
0.431096
-0.748556
-2.2173
-3.75902
-5.42639
-7.01076
-8.45614
-9.65439
-10.559
-11.0073
-11.0172
-10.4392
-9.2889
-7.63972
-5.6356
-3.43603
-1.19826
0.918994
2.79929
4.33663
5.47636
6.21302
6.55824
6.45758
5.87004
4.60014
2.45199
-0.668301
-5.42561
-10.6022
-16.5639
-21.5029
-17.7396
-11.1537
-9.00243
-6.10752
-4.54875
-4.0383
-3.35705
-0.550418
-1.86518
-3.1828
-4.59319
-5.98883
-7.52384
-8.96719
-10.1089
-10.7824
-10.9632
-10.7313
-10.0727
-8.94341
-7.46879
-5.78469
-4.06437
-2.40502
-0.950445
0.242943
1.12304
1.66561
2.00783
2.17848
1.74067
0.645693
0.0639643
-0.106473
1.61933
2.64628
2.73816
2.47345
2.50912
2.63036
2.5867
2.44603
2.20654
1.98111
1.72374
1.42759
1.06734
0.452212
-0.809591
-2.34915
-3.99952
-5.78087
-7.48293
-9.04257
-10.3392
-11.3103
-11.7912
-11.7889
-11.1517
-9.90049
-8.11907
-5.96534
-3.61085
-1.22379
1.02772
3.02214
4.64849
5.85112
6.63319
7.01063
6.92951
6.34425
5.03376
2.77093
-0.572053
-5.80443
-11.5592
-18.6259
-24.5786
-20.0504
-12.1652
-9.69007
-6.41027
-4.70679
-4.1323
-3.43395
-0.57593
-1.96573
-3.36474
-4.86677
-6.34721
-7.96843
-9.5177
-10.7545
-11.4948
-11.682
-11.4069
-10.6838
-9.46723
-7.88358
-6.08077
-4.24466
-2.47969
-0.937987
0.318633
1.23613
1.79501
2.13088
2.2959
1.72819
0.343996
-0.324859
-0.405884
1.50021
2.67747
2.838
2.50722
2.5199
2.67018
2.63886
2.50129
2.26149
2.03798
1.78322
1.48925
1.11695
0.475001
-0.871332
-2.48257
-4.24693
-6.14886
-7.97565
-9.6567
-11.0586
-12.102
-12.6166
-12.5999
-11.8986
-10.5389
-8.6165
-6.30448
-3.78694
-1.24358
1.14761
3.26
4.97747
6.24336
7.07105
7.4816
7.42287
6.84449
5.49797
3.12589
-0.438597
-6.15776
-12.5145
-20.8321
-27.9322
-22.5583
-13.216
-10.3911
-6.69433
-4.85121
-4.22314
-3.45706
-0.601621
-2.06811
-3.55089
-5.14823
-6.72317
-8.42757
-10.0872
-11.4269
-12.2401
-12.4405
-12.1209
-11.3265
-10.0154
-8.3149
-6.38552
-4.42675
-2.55063
-0.917247
0.406115
1.36332
1.9402
2.27065
2.4336
1.76328
0.0913337
-0.631439
-0.59708
1.43643
2.67798
2.91147
2.54081
2.52911
2.69866
2.68208
2.5526
2.31361
2.09343
1.84318
1.55325
1.16778
0.499984
-0.932598
-2.61684
-4.50065
-6.53029
-8.48941
-10.2996
-11.8149
-12.9366
-13.4864
-13.4527
-12.6819
-11.2053
-9.13258
-6.65304
-3.9639
-1.2569
1.2796
3.51386
5.32443
6.65364
7.52679
7.97095
7.93777
7.37128
5.99453
3.52009
-0.265937
-6.48503
-13.4662
-23.1843
-31.5466
-25.2466
-14.2985
-11.0996
-6.95443
-4.97854
-4.2796
-3.45472
-0.627413
-2.17212
-3.741
-5.43753
-7.11453
-8.90434
-10.6798
-12.1292
-13.0199
-13.2397
-12.8756
-12.0031
-10.5896
-8.7636
-6.69906
-4.61023
-2.61715
-0.887283
0.506506
1.50595
2.10298
2.4288
2.59508
1.86296
-0.0791534
-0.841918
-0.689007
1.43569
2.65744
2.95712
2.5745
2.54114
2.71438
2.71577
2.60028
2.36309
2.14764
1.90397
1.62009
1.22016
0.527733
-0.991676
-2.75121
-4.75998
-6.92497
-9.02461
-10.9724
-12.6103
-13.8165
-14.4035
-14.3501
-13.5036
-11.9011
-9.66783
-7.01098
-4.14126
-1.26295
1.42468
3.78477
5.69028
7.08251
8.00054
8.47848
8.47439
7.92519
6.52427
3.95538
-0.0544733
-6.78965
-14.4199
-25.6915
-35.3965
-28.0927
-15.4043
-11.8072
-7.1856
-5.08672
-4.32654
-3.49174
-0.653205
-2.27755
-3.93481
-5.73451
-7.5196
-9.40037
-11.2929
-12.8599
-13.8345
-14.0812
-13.6738
-12.7166
-11.1916
-9.23057
-7.02155
-4.79466
-2.67852
-0.847127
0.620866
1.66526
2.2845
2.60791
2.78295
2.03805
-0.145473
-0.965182
-0.702065
1.48323
2.62713
2.9672
2.60646
2.55842
2.719
2.73941
2.64455
2.41011
2.20083
1.96601
1.69032
1.27479
0.558925
-1.0464
-2.88502
-5.02417
-7.33258
-9.58157
-11.6763
-13.4475
-14.7445
-15.3713
-15.2948
-14.3659
-12.6275
-10.2227
-7.37817
-4.31846
-1.26081
1.58394
4.07387
6.07597
7.53046
8.49235
9.00401
9.03286
8.50641
7.08667
4.43022
0.18771
-7.077
-15.3825
-28.3694
-39.4466
-31.0659
-16.5254
-12.5042
-7.38294
-5.17261
-4.35263
-3.46728
-0.678876
-2.38414
-4.13198
-6.03875
-7.93688
-9.91517
-11.9249
-13.62
-14.6867
-14.9673
-14.5184
-13.4696
-11.8232
-9.71677
-7.35312
-4.97955
-2.73389
-0.795769
0.750298
1.84249
2.48587
2.80914
2.99937
2.29124
-0.0812172
-0.996075
-0.63742
1.56748
2.58812
2.93957
2.63191
2.58215
2.71529
2.75245
2.68532
2.45499
2.25327
2.02975
1.76443
1.3328
0.593849
-1.09493
-3.01719
-5.29216
-7.75254
-10.1604
-12.4127
-14.3291
-15.7235
-16.3928
-16.2901
-15.2712
-13.3861
-10.7978
-7.75442
-4.49485
-1.24952
1.75854
4.38236
6.48249
7.99798
9.00222
9.54744
9.61319
9.11454
7.67968
4.93738
0.443243
-7.36828
-16.3423
-31.2423
-43.6455
-34.1233
-17.6524
-13.1798
-7.54173
-5.23304
-4.35814
-3.47676
-0.704277
-2.49155
-4.33202
-6.34953
-8.36537
-10.4524
-12.5809
-14.4135
-15.5796
-15.9001
-15.4116
-14.2648
-12.4865
-10.2233
-7.69395
-5.16433
-2.78231
-0.732133
0.895956
2.03884
2.70895
3.03424
3.24681
2.61799
0.145116
-0.918605
-0.496382
1.68665
2.52891
2.87292
2.64512
2.61643
2.71465
2.75871
2.72349
2.49802
2.30534
2.09574
1.84291
1.39556
0.632429
-1.13586
-3.14604
-5.56255
-8.18406
-10.7613
-13.1838
-15.2583
-16.7566
-17.4717
-17.3393
-16.2219
-14.1781
-11.3934
-8.13942
-4.66967
-1.22797
1.94975
4.71155
6.91092
8.48553
9.5301
10.1087
10.2152
9.74835
8.29905
5.46613
0.694697
-7.68861
-17.2891
-34.3498
-47.9224
-37.2106
-18.7743
-13.8219
-7.65771
-5.26466
-4.34728
-3.43707
-0.729229
-2.59941
-4.53432
-6.66598
-8.80471
-11.0151
-13.2582
-15.2366
-16.5131
-16.8809
-16.3563
-15.1054
-13.1838
-10.7514
-8.04426
-5.34847
-2.82278
-0.655093
1.059
2.25545
2.95517
3.28583
3.52537
3.00749
0.558154
-0.711246
-0.280084
1.83635
2.44068
2.76265
2.6451
2.66597
2.71823
2.76049
2.75963
2.53921
2.35739
2.16451
1.92616
1.46466
0.675037
-1.16779
-3.27009
-5.83383
-8.62629
-11.3849
-13.9925
-16.2382
-17.847
-18.6118
-18.4458
-17.2207
-15.0052
-12.0098
-8.53274
-4.84202
-1.19495
2.15893
5.06287
7.36239
8.99359
10.0761
10.6878
10.8382
10.4053
8.93776
6.00291
0.92827
-8.04504
-18.2323
-37.7469
-52.1901
-40.2638
-19.8788
-14.4166
-7.72745
-5.26334
-4.29378
-3.37403
-0.753518
-2.70726
-4.73816
-6.98713
-9.25437
-11.6009
-13.9532
-16.0879
-17.4885
-17.9124
-17.3558
-15.9948
-13.9175
-11.3022
-8.4043
-5.53145
-2.85424
-0.56347
1.24061
2.49321
3.22328
3.56273
3.83312
3.44452
1.15308
-0.31967
0.0417081
2.0087
2.32061
2.60681
2.63691
2.73034
2.72413
2.7609
2.79424
2.57862
2.40979
2.23665
2.01459
1.54182
0.723056
-1.18864
-3.38802
-6.10454
-9.07824
-12.0316
-14.8406
-17.271
-18.9995
-19.8176
-19.6136
-18.2704
-15.8688
-12.6475
-8.93381
-5.01087
-1.14911
2.38761
5.4379
7.83816
9.5226
10.6407
11.2852
11.481
11.0811
9.58613
6.53418
1.13506
-8.43234
-19.19
-41.4778
-56.3609
-43.2202
-20.9497
-14.9493
-7.74892
-5.22575
-4.22228
-3.34855
-0.776899
-2.8146
-4.94271
-7.31193
-9.71349
-12.2054
-14.6711
-16.9728
-18.5108
-18.9982
-18.4126
-16.9356
-14.6897
-11.877
-8.77433
-5.71271
-2.87554
-0.456
1.44205
2.75291
3.5117
3.86577
4.16936
3.91664
1.90058
0.276302
0.478873
2.19845
2.17063
2.40964
2.62722
2.80734
2.7425
2.76456
2.82644
2.61626
2.463
2.31281
2.1086
1.62903
0.778859
-1.19594
-3.498
-6.37326
-9.53889
-12.7014
-15.7295
-18.36
-20.2204
-21.0934
-20.847
-19.374
-16.7706
-13.3066
-9.34191
-5.175
-1.08894
2.63742
5.83837
8.3396
10.073
11.2244
11.9011
12.1413
11.7689
10.2334
7.05017
1.314
-8.82857
-20.1861
-45.5573
-60.3407
-46.0214
-21.9673
-15.4048
-7.71964
-5.14723
-4.13548
-3.26353
-0.799087
-2.92083
-5.14705
-7.63925
-10.1808
-12.8255
-15.4125
-17.8867
-19.5775
-20.1399
-19.529
-17.9303
-15.5027
-12.4769
-9.15464
-5.89171
-2.88549
-0.331299
1.66461
3.03551
3.82206
4.20044
4.53412
4.41013
2.74426
1.00754
1.00588
2.40215
2.00008
2.18013
2.62023
2.89237
2.7687
2.77247
2.855
2.65164
2.51743
2.39374
2.20869
1.72865
0.844831
-1.18665
-3.59754
-6.63833
-10.0071
-13.3937
-16.6596
-19.5078
-21.5143
-22.4439
-22.1504
-20.5347
-17.7123
-13.9874
-9.75617
-5.33299
-1.01272
2.91022
6.26621
8.86816
10.6452
11.8281
12.5362
12.8158
12.4598
10.8694
7.54727
1.47877
-9.19327
-21.2329
-49.9625
-64.0118
-48.6064
-22.9073
-15.7677
-7.63406
-5.02308
-3.99911
-3.1552
-0.819768
-3.0253
-5.35019
-7.96773
-10.6547
-13.4577
-16.1738
-18.8241
-20.6862
-21.339
-20.7077
-18.9818
-16.3586
-13.103
-9.54537
-6.0679
-2.88284
-0.187887
1.90962
3.34204
4.15736
4.56588
4.92348
4.90594
3.61472