/*--------------------------------*- C++ -*----------------------------------*\
| =========                 |                                                 |
| \\      /  F ield         | OpenFOAM: The Open Source CFD Toolbox           |
|  \\    /   O peration     | Version:  4.1                                   |
|   \\  /    A nd           | Web:      www.OpenFOAM.org                      |
|    \\/     M anipulation  |                                                 |
\*---------------------------------------------------------------------------*/
FoamFile
{
    version     2.0;
    format      ascii;
    class       surfaceScalarField;
    location    "3";
    object      phi;
}
// * * * * * * * * * * * * * * * * * * * * * * * * * * * * * * * * * * * * * //

dimensions      [0 3 -1 0 0 0 0];

internalField   nonuniform List<scalar> 
13220
(
-885.789
2185.69
-1369.82
1784.23
-1830.71
1760.79
-2179.27
1648.46
-2447.07
1568
-2635.27
1488.1
-2745.3
1409.93
-2776.52
1331.42
-2728.41
1251.78
-2599.94
1171.44
-2393.88
1094.14
-2107.06
1013.07
-1700.38
893.227
-1085.06
684.874
214.839
-0.444226
2186.13
-35.0082
1818.79
-151.699
1877.48
-230.8
1727.55
-310.27
1647.46
-366.929
1544.76
-402.056
1445.05
-412.372
1341.74
-400.581
1239.99
-373.83
1144.68
-341.792
1062.1
-318.64
989.92
-310.25
884.833
-243.974
618.59
-29.1363
-124.567
2310.69
-316.048
2010.27
-490.329
2051.76
-602.131
1839.35
-704.892
1750.22
-773.08
1612.94
-820.579
1492.55
-846.862
1368.02
-842.073
1235.2
-775.275
1077.88
-617.334
904.152
-398.081
770.659
-211.283
698.021
-110.762
517.984
-139.898
-54.3257
2365.02
-157.317
2113.26
-237.919
2132.36
-293.029
1894.46
-353.423
1810.61
-394.964
1654.48
-434.888
1532.47
-467.718
1400.84
-481.849
1249.32
-422.927
1018.96
-211.237
692.457
141.061
418.368
462.648
376.439
562.854
417.783
422.955
7.24663
2357.77
-92.7286
2213.23
-149.061
2188.69
-202.416
1947.82
-269.622
1877.82
-331.753
1716.61
-406.335
1607.05
-488.858
1483.37
-585.098
1345.56
-689.523
1123.38
-757.382
760.32
-693.178
354.157
-452.039
135.296
-165.714
131.452
257.241
104.876
2252.9
8.96992
2309.14
-13.084
2210.75
-30.7867
1965.52
-47.2446
1894.28
-62.3367
1731.71
-74.6754
1619.39
-87.4153
1496.11
-110.992
1369.14
-182.965
1195.36
-344.693
922.048
-543.739
553.223
-602.869
194.446
-446.865
-24.527
-189.623
180.95
2071.95
145.222
2344.87
165.749
2190.22
197.996
1933.27
244.977
1847.3
288.519
1688.17
341.903
1566.01
400.845
1437.17
459.395
1310.6
486.252
1168.5
423.276
985.026
231.04
745.457
-19.2963
444.78
-129.51
85.6848
-319.133
176.691
1895.26
185.806
2335.75
216.476
2159.55
257.231
1892.52
312.339
1792.19
362.837
1637.67
416.822
1512.03
473.455
1380.54
531.384
1252.67
576.091
1123.8
581.661
979.456
515.926
811.199
366.005
594.711
133.221
318.483
-185.912
126.466
1768.79
159.638
2302.58
186.987
2132.2
218.165
1861.34
261.806
1748.55
298.956
1600.52
335.353
1475.63
367.418
1348.47
395.919
1224.17
417.046
1102.67
420.354
976.149
391.576
839.978
314.273
672.014
174.883
457.877
-11.0286
71.9417
1696.85
134.893
2239.63
175.037
2092.06
212.289
1824.09
259.115
1701.73
298.009
1561.63
330.885
1442.75
356.018
1323.34
373.632
1206.56
384.182
1092.12
381.656
978.676
354.976
866.66
288.01
738.984
162.68
583.215
151.651
15.1757
1681.68
105.507
2149.3
169.885
2027.68
227.207
1766.77
281.428
1647.51
336.959
1506.1
386.54
1393.17
434.108
1275.77
475.632
1165.03
505.148
1062.61
511.41
972.415
478.481
899.59
386.104
831.363
230.909
738.413
382.56
-23.5491
1705.23
39.0749
2086.68
119.925
1946.84
168.392
1718.31
216.967
1598.93
286.984
1436.08
377.337
1302.82
479.83
1173.28
572.705
1072.16
639.796
995.518
655.963
956.248
601.212
954.342
464.273
968.302
266.846
935.841
649.406
35.8566
1669.37
-23.172
2145.71
-10.4529
1934.12
-3.18508
1711.04
5.70995
1590.04
56.3113
1385.48
150.116
1209.02
269.448
1053.95
385.768
955.84
479.409
901.878
520.169
915.488
481.872
992.639
356.948
1093.23
177.411
1115.38
826.817
295.391
1373.98
228.395
2212.7
-12.1699
2174.68
-274.5
1973.37
-484.122
1799.66
-640.187
1541.55
-739.562
1308.39
-793.9
1108.29
-798.849
960.788
-754.032
857.061
-651.782
813.238
-500.52
841.378
-332.902
925.609
-176.431
958.908
650.386
671.059
1507.3
1882.77
1940.49
1796.31
1493.81
1111.78
768.494
470.48
220.675
21.0953
-75.2343
-60.8137
22.8332
-7.30028e-06
139.325
-139.325
139.325
139.325
139.325
266.305
-126.98
266.305
266.305
266.305
376.618
-110.313
376.618
376.618
469.298
-92.6795
469.298
469.298
469.298
534.875
-65.5772
534.875
534.875
576.935
-42.0604
576.935
576.935
576.935
594.767
-17.8314
594.767
594.767
594.767
594.39
0.377143
594.39
594.39
572.632
21.7573
572.632
572.632
572.632
538.647
33.9855
538.647
538.647
490.46
48.1868
490.46
490.46
490.46
440.858
49.6022
440.858
440.858
440.858
390.861
49.9966
390.861
390.861
341.315
49.5458
341.315
341.315
341.315
305.363
35.9519
305.363
305.363
305.363
286.046
19.3169
286.046
286.046
298.883
-12.8372
298.883
298.883
298.883
147.498
151.385
147.498
147.498
-150.913
298.411
-150.913
-150.913
-150.913
-1151.42
1000.51
-1151.42
-1151.42
-1151.42
-2746.58
1595.16
-2746.58
-2746.58
-4699.39
1952.82
-4699.39
-4699.39
-4579.98
-4461.02
-4334.35
-6380.52
2180.06
-6250.28
-6099.36
-5935.32
-5770.74
-5604.39
-5439.71
-5276.56
-5110.49
-7270.41
2329.32
-7093.22
-6919.49
-6748.35
-6571.48
-6393.84
-6218.54
-6044.67
-5869.49
-8098.07
2410.24
-7906.86
-7715.49
-7524.16
-7334.44
-7139.63
-6933.63
-6728.09
-6520.74
-6309.6
-8650.78
2550.31
-8420.08
-8187.24
-7951.9
-7714.28
-7474.17
-7217.68
-6948.64
-6674.25
-9175.9
2771.16
-8898.89
-8609.56
-8301.19
-7987.68
-7668.95
-7346.74
-7019.48
-6663.96
-9047.67
2723.41
-8702.37
-8357.12
-8012.92
-7649.56
-7278.96
-6910.54
-6542.49
-6179.09
-7697.32
1871.76
-7332.79
-6971.48
-6612.53
-6257.41
-5907.5
-5548.77
-5197.43
-4854.03
-4524.05
-4721.79
517.727
-4430.87
-4157.92
-3894.25
-3640.84
-3396.31
-3194.9
-3066.73
-2936.77
-2600.53
-193.1
-2477.18
-2356.51
-2356.51
-2244.02
-112.49
-2117.28
-126.734
-2117.28
-2024
-93.2857
-2024
-1957.5
-66.5013
-1901.32
-56.1746
-1901.32
-1863.24
-38.0805
-1828.88
-34.3593
-1828.88
-1803.09
-25.7911
-1803.09
-1790.02
-13.0684
-1774.12
-15.9062
-1774.12
-1762.99
-11.1299
-1762.99
-1760.96
-2.02399
-1751.25
-9.7135
-1751.25
-1750.62
-0.626554
-1741.96
-8.66154
-1741.96
-1735.61
-6.349
-1735.61
-1735.5
-0.111046
-1725.93
-9.57215
-1725.93
-1718.13
-7.80012
-1718.13
-1716.17
-1.95976
-1703.94
-12.2326
-1703.94
-1699.68
-4.25763
-1687.13
-12.5437
-1687.13
-1677.34
-9.78958
-1677.34
-1674.34
-2.99996
-1663.83
-10.5169
-1663.83
-1656.73
-7.09916
-1656.73
-1657.12
0.386688
-1649.55
-7.56443
-1649.55
-1651.23
1.67926
-1646.27
-4.96218
-1646.27
-1645.1
-1.16955
-1645.1
-1651.91
6.81067
-1651.71
-0.199016
-1651.71
-1655.86
4.15142
-1655.86
-1668.92
13.0607
-1674.2
5.27449
-1674.2
-1691.16
16.9602
-1702
10.8409
-1702
-1719.66
17.6581
-1719.66
-1749.58
29.9193
-1773.21
23.6354
-1773.21
-1806.34
33.1311
-1806.34
-1855.12
48.775
-1895.88
40.7619
-1895.88
-1958.53
62.6498
-2013.99
55.462
-2013.99
-2084.97
70.977
-2084.97
97.1362
-29.2334
-107.764
-24.4334
57.7711
-20.872
222.332
-16.452
394.717
-11.8801
557.801
-7.47764
726.845
-2.33814
897.035
1.58315
1062.97
2.62082
1210.57
4.57715
1354.9
8.45277
1476.64
11.9929
1543.04
15.7893
1624.49
17.1475
1682.63
20.6322
1751.24
21.201
1771.46
15.5256
1711.88
12.5196
1679.39
10.9402
1599.37
9.0519
1498.85
6.42651
1350.51
4.21828
1194.8
1.06791
938.759
2.0543
700.169
20.6216
-53.9797
18.9227
-728.372
-15.8366
-1006.95
-30.1118
-801.479
-22.9376
-655.677
-17.5516
-521.817
-2.46862
-104.351
-1.28321
218.724
-1.3278
467.154
-1.71661
582.616
-2.20588
709.019
-3.01354
765.038
-4.16865
836.035
-6.03175
884.51
-9.948
899.173
-20.6389
833.923
-42.9461
785.109
-61.7945
849.391
-70.3439
833.868
-78.3371
757.475
-86.448
716.831
-93.1846
648.822
-98.0012
500.714
-101.374
257.194
-103.189
-85.2617
-102.648
-428.496
-99.3967
-726.371
-94.4082
-989.921
-88.6485
-1223.44
-82.7669
-1428.59
-77.0727
-1606.77
-71.6056
-1759.27
-66.3908
-1888.02
-61.2785
-1994.13
-55.9866
-2078.12
-50.2675
-2140.78
-43.6771
-2182.13
-35.5608
-2202.17
-25.217
-2200.53
-11.9371
-2175.26
4.8328
-2121.07
25.1823
-2031.98
48.5419
-1896.99
73.0031
-1702.97
95.5108
-1433.48
109.885
-1091.14
111.054
-670.63
91.7401
-196.514
66.4302
282.348
45.5774
832.48
33.6273
1427.56
14.4287
1659.62
1.29747
1951.71
-45.2247
2023.39
2185.06
-28.3705
-111.056
-21.2645
50.665
-15.7914
216.859
-10.643
389.568
-6.57171
553.73
-3.35286
723.627
0.485662
893.196
3.37759
1060.08
3.73003
1210.22
4.94822
1353.68
8.05394
1473.53
11.1093
1539.98
14.4804
1621.12
15.7024
1681.41
18.8581
1748.08
19.2876
1771.03
13.9416
1717.22
11.0616
1682.27
9.56477
1600.87
7.86085
1500.56
5.27467
1353.09
3.32196
1196.75
-0.282907
942.364
2.58411
697.302
30.5546
-81.9501
21.2282
-719.046
-12.783
-972.942
-28.5674
-785.694
-28.2251
-656.019
-27.1598
-522.883
-6.49678
-125.014
-2.83027
215.058
-1.56107
465.885
-1.47141
582.526
-1.60682
709.155
-2.34373
765.774
-3.37751
837.068
-5.16955
886.302
-9.09983
903.103
-19.729
844.552
-41.7853
807.165
-60.4403
868.046
-69.5328
842.961
-78.7833
766.725
-88.8615
726.909
-98.2022
658.163
-105.881
508.393
-111.155
262.467
-113.863
-82.5536
-114.107
-428.252
-111.246
-729.232
-106.213
-994.954
-100.03
-1229.63
-93.4441
-1435.18
-86.8566
-1613.36
-80.3643
-1765.76
-74.0231
-1894.36
-67.7146
-2000.44
-61.1505
-2084.69
-54.0917
-2147.84
-46.1186
-2190.11
-36.5475
-2211.74
-24.6077
-2212.47
-9.53372
-2190.33
9.27429
-2139.87
31.9394
-2054.64
57.8963
-1922.95
85.0768
-1730.15
110.104
-1458.51
126.114
-1107.15
126.779
-671.295
102.126
-171.861
71.0136
313.46
48.0795
855.414
34.8108
1440.83
14.8064
1679.62
0.476414
1966.04
-42.6657
2066.53
2213.37
-24.3432
-115.292
-16.137
42.4587
-10.1321
210.854
-4.03911
383.475
0.605948
549.085
3.33508
720.897
5.60756
890.924
6.8957
1058.79
5.99044
1211.13
6.11493
1353.56
8.18039
1471.46
10.4001
1537.76
13.1885
1618.33
13.9095
1680.69
16.6046
1745.39
16.7945
1770.84
11.4661
1722.55
8.66781
1685.07
7.27024
1602.27
5.6999
1502.13
3.21279
1355.58
1.29935
1198.67
-2.41654
946.08
1.76276
693.123
31.9672
-112.155
19.4957
-706.574
-13.331
-940.116
-28.6274
-770.398
-29.1308
-655.516
-29.7406
-522.273
-9.77612
-144.979
-4.11737
209.399
-1.60916
463.376
-0.86212
581.779
-0.558714
708.851
-1.06583
766.282
-1.89013
837.893
-3.50728
887.919
-7.25892
906.855
-17.7752
855.068
-39.5485
828.938
-58.1912
886.689
-68.6863
853.456
-80.3016
778.341
-93.0396
739.647
-104.399
669.522
-112.918
516.913
-118.628
268.177
-121.94
-79.242
-122.611
-427.58
-120.02
-731.824
-115.043
-999.931
-108.683
-1235.99
-101.7
-1442.16
-94.5306
-1620.53
-87.3214
-1772.97
-80.1492
-1901.53
-72.9259
-2007.66
-65.3758
-2092.24
-57.2569
-2155.95
-48.169
-2199.2
-37.4437
-2222.46
-24.2816
-2225.63
-7.89353
-2206.72
12.3356
-2160.1
36.554
-2078.86
64.2289
-1950.62
93.2514
-1759.17
120.053
-1485.31
137.6
-1124.7
139.057
-672.752
112.856
-145.659
77.6772
348.639
51.2113
881.88
36.3783
1455.66
15.274
1700.72
0.711873
1980.6
-35.3249
2102.57
2233.51
-21.0499
-120.316
-11.6861
33.0949
-4.72864
203.896
2.26056
376.486
7.8929
543.453
11.1635
717.627
12.6273
889.46
12.2325
1059.19
9.57602
1213.78
8.13799
1354.99
8.82793
1470.78
9.94753
1536.64
11.9642
1616.31
12.0525
1680.6
14.1192
1743.32
13.9209
1771.04
8.51831
1727.95
5.69954
1687.88
4.37544
1603.59
2.93472
1503.57
0.573231
1357.94
-1.30624
1200.55
-5.25385
950.027
-2.51904
690.388
30.5905
-145.264
15.9379
-691.922
-16.009
-908.169
-31.1702
-755.237
-31.7429
-654.943
-32.0093
-522.006
-11.4217
-165.566
-5.14429
203.122
-1.5371
459.769
-0.0647053
580.306
0.781778
708.005
0.608969
766.454
0.0966609
838.405
-1.24952
889.265
-4.74336
910.348
-15.0559
865.381
-36.2861
850.169
-55.2944
905.697
-67.8782
866.04
-82.2168
792.679
-97.4885
754.919
-110.236
682.269
-119.518
526.195
-126.087
274.747
-130.575
-74.7546
-131.761
-426.394
-129.401
-734.184
-124.395
-1004.94
-117.76
-1242.62
-110.289
-1449.63
-102.469
-1628.35
-94.494
-1780.95
-86.4641
-1909.56
-78.3133
-2015.81
-69.7803
-2100.77
-60.6186
-2165.12
-50.4333
-2209.38
-38.5667
-2234.33
-24.1853
-2240.02
-6.45747
-2224.45
15.2788
-2181.84
41.2277
-2104.81
70.8982
-1980.29
102.136
-1790.41
131.139
-1514.31
150.538
-1144.1
152.832
-675.046
125.369
-118.196
85.7318
388.276
54.7613
912.851
37.971
1472.45
15.9978
1722.7
0.792378
1995.81
-33.8976
2137.26
2262.26
-17.9119
-126.007
-7.46555
22.6486
0.498703
195.932
8.33302
368.652
15.0314
536.754
19.3935
713.265
20.9942
887.859
19.5869
1060.6
15.134
1218.23
11.5605
1358.57
10.3661
1471.97
9.97057
1537.04
10.8791
1615.41
10.1571
1681.32
11.4218
1742.06
10.6653
1771.79
5.05836
1733.56
2.10521
1690.84
0.795745
1604.9
-0.551316
1504.91
-2.79279
1360.18
-4.64977
1202.4
-8.93766
954.315
-7.43461
688.885
26.1732
-178.872
10.0271
-675.775
-19.9003
-878.241
-33.6503
-741.487
-34.0544
-654.539
-34.1948
-521.866
-13.9044
-185.857
-6.11529
195.333
-1.315
454.969
0.987711
578.004
2.50701
706.486
2.77909
766.182
2.68329
838.501
1.68424
890.264
-1.49258
913.525
-11.4328
875.321
-32.0479
870.784
-51.8147
925.464
-66.8261
881.051
-83.959
809.812
-101.596
772.556
-115.641
696.314
-125.943
536.497
-133.571
282.375
-139.173
-69.1517
-140.881
-424.686
-138.753
-736.312
-133.714
-1009.98
-126.802
-1249.53
-118.847
-1457.59
-110.38
-1636.81
-101.649
-1789.68
-92.7773
-1918.43
-83.7183
-2024.87
-74.2302
-2110.26
-64.0646
-2175.28
-52.8246
-2220.62
-39.8649
-2247.29
-24.3242
-2255.56
-5.32235
-2243.45
17.8659
-2205.03
45.5179
-2132.46
77.2017
-2011.98
110.743
-1823.95
142.103
-1545.67
163.543
-1165.54
166.805
-678.308
138.691
-90.0817
94.9397
432.027
58.8653
948.925
39.6669
1491.65
16.845
1745.52
1.09644
2011.56
-29.6252
2167.98
2273.4
-15.0982
-132.29
-3.51161
11.0621
5.62321
186.797
14.2285
360.047
21.9436
529.039
27.5575
707.651
29.8821
885.535
28.3963
1062.08
22.7648
1223.87
16.9087
1364.42
13.3877
1475.49
10.9624
1539.47
10.2224
1616.15
8.36114
1683.18
8.62479
1741.79
7.14229
1773.28
1.14585
1739.56
-2.08664
1694.07
-3.47639
1606.29
-4.80106
1506.24
-6.93797
1362.32
-8.79861
1204.26
-13.411
958.927
-12.6612
688.135
19.6875
-211.221
2.0137
-658.102
-25.647
-850.581
-37.1851
-729.949
-35.8212
-655.903
-34.986
-522.701
-17.0207
-203.822
-6.98772
185.3
-0.894895
448.876
2.35524
574.754
4.67574
704.165
5.5075
765.351
5.92601
838.082
5.3459
890.845
2.54007
916.331
-6.91755
884.779
-27.1086
890.975
-47.8466
946.202
-65.4737
898.678
-85.567
829.906
-105.472
792.461
-120.926
711.768
-132.462
548.033
-141.218
291.13
-147.878
-62.492
-150.104
-422.46
-148.189
-738.228
-143.089
-1015.08
-135.876
-1256.75
-127.422
-1466.04
-118.302
-1645.93
-108.818
-1799.16
-99.1166
-1928.13
-89.1687
-2034.82
-78.7545
-2120.67
-67.6286
-2186.41
-55.3855
-2232.86
-41.3854
-2261.29
-24.7418
-2272.2
-4.5184
-2263.67
20.0945
-2229.64
49.4688
-2161.83
83.2513
-2045.76
119.267
-1859.97
153.228
-1579.63
176.963
-1189.28
181.438
-682.783
152.802
-61.4458
105.077
479.752
63.5913
990.411
41.513
1513.73
17.7809
1769.25
1.61454
2027.72
-26.7323
2196.33
2295.44
-12.596
-139.112
0.115568
-1.64947
10.5522
176.36
19.9597
350.639
28.6175
520.381
35.3939
700.874
38.675
882.254
37.7916
1062.97
31.9414
1229.72
24.3167
1372.05
18.342
1481.47
13.4465
1544.36
10.4611
1619.13
6.95985
1686.69
5.90168
1742.85
3.4989
1775.68
-3.07954
1746.14
-6.76724
1697.76
-8.37109
1607.89
-9.77819
1507.65
-11.8536
1364.4
-13.7815
1206.19
-18.5936
963.74
-17.1826
686.724
9.0975
-237.501
-8.06709
-640.937
-32.4554
-826.192
-41.7279
-720.676
-38.0476
-659.583
-35.2126
-525.536
-19.6392
-219.395
-7.5801
173.241
-0.181307
441.477
4.10524
570.467
7.33106
700.939
8.82531
763.856
9.83722
837.07
9.7294
890.952
7.31373
918.747
-1.63646
893.729
-21.7384
911.077
-43.6383
968.102
-64.0108
919.051
-87.2416
853.136
-109.292
814.511
-126.208
728.685
-139.051
560.876
-148.998
301.077
-156.684
-54.8061
-159.419
-419.724
-157.701
-739.946
-152.518
-1020.26
-144.984
-1264.28
-136.02
-1475.01
-126.247
-1655.71
-116.013
-1809.4
-105.491
-1938.66
-94.6701
-2045.64
-83.354
-2131.99
-71.3065
-2198.46
-58.1108
-2246.06
-43.1237
-2276.28
-25.4336
-2289.89
-4.04274
-2285.06
21.9624
-2255.65
53.0702
-2192.94
89.0275
-2081.72
127.682
-1898.62
164.488
-1616.44
190.785
-1215.57
196.698
-688.697
167.423
-32.1706
115.868
531.307
68.9347
1037.34
43.4795
1539.18
18.7635
1793.97
2.24537
2044.24
-24.7695
2223.34
2303.8
-10.4103
-146.427
3.39302
-15.4528
15.303
164.451
25.6559
340.286
35.1349
510.902
42.8412
693.168
47.1559
877.939
47.2297
1062.89
41.9913
1234.95
33.4745
1380.57
25.271
1489.67
17.6961
1551.94
12.0579
1624.77
6.37482
1692.37
3.49978
1745.73
-0.126018
1779.3
-7.49445
1753.5
-11.8339
1702.1
-13.819
1609.88
-15.4435
1509.27
-17.5416
1366.49
-19.6387
1208.29
-24.5064
968.607
-19.8148
682.032
-8.3814
-248.934
-18.702
-630.616
-39.7269
-805.167
-47.1518
-713.251
-41.1955
-665.539
-36.184
-530.548
-21.5166
-234.063
-7.81113
159.535
0.898963
432.767
6.30073
565.065
10.523
696.717
12.7697
761.61
14.4344
835.406
14.823
890.564
12.7871
920.783
4.27076
902.245
-16.1705
931.518
-39.5131
991.444
-62.6968
942.234
-89.0949
879.535
-113.169
838.584
-131.588
747.104
-145.78
575.068
-156.932
312.229
-165.606
-46.132
-168.834
-416.497
-167.293
-741.486
-162.005
-1025.55
-154.131
-1272.15
-144.645
-1484.49
-134.216
-1666.14
-123.238
-1820.37
-111.904
-1949.99
-100.228
-2057.32
-88.0357
-2144.18
-75.1068
-2211.38
-61.0125
-2260.15
-45.0961
-2292.19
-26.4186
-2308.57
-3.91484
-2307.57
23.4509
-2283.01
56.3072
-2225.8
94.5252
-2119.93
136.003
-1940.1
175.926
-1656.36
205.09
-1244.74
212.684
-696.29
182.512
-1.99941
127.181
586.638
74.892
1089.63
45.5533
1568.52
19.7639
1819.76
3.06329
2060.94
-18.9069
2245.31
2308.53
-8.53724
-154.193
6.32107
-30.3111
19.9455
150.826
31.3365
328.895
41.5164
500.722
50.0039
684.681
55.3734
872.569
56.5287
1061.74
52.3755
1239.11
43.7933
1389.15
33.8204
1499.64
23.6332
1562.12
15.2514
1633.15
7.01432
1700.61
1.75491
1750.99
-3.54388
1784.6
-11.9804
1761.94
-17.1982
1707.31
-19.7506
1612.43
-21.7425
1511.26
-23.9888
1368.74
-26.4088
1210.71
-31.3985
973.597
-24.187
674.821
-21.2167
-251.904
-28.5254
-623.308
-47.4036
-786.289
-53.2471
-707.408
-45.1868
-673.6
-38.0255
-537.709
-22.7959
-249.292
-7.67965
144.419
2.37931
422.708
8.98182
558.463
14.2872
691.412
17.3653
758.532
19.7224
833.049
20.6005
889.686
18.9056
922.477
10.6017
910.549
-10.6247
952.744
-35.7069
1016.53
-61.7445
968.272
-91.1708
908.961
-117.168
864.582
-137.117
767.053
-152.674
590.625
-165.029
324.585
-174.656
-36.5052
-178.356
-412.798
-176.972
-742.87
-171.557
-1030.96
-163.325
-1280.39
-153.305
-1494.51
-142.217
-1677.22
-130.499
-1832.09
-118.364
-1962.12
-105.847
-2069.83
-92.806
-2157.22
-79.0343
-2225.16
-64.0944
-2275.09
-47.3079
-2308.98
-27.7032
-2328.17
-4.14232
-2331.13
24.551
-2311.7
59.1709
-2260.42
99.741
-2160.5
144.239
-1984.6
187.575
-1699.7
219.957
-1277.12
229.452
-705.786
198.092
29.3605
139.007
645.723
81.4701
1147.17
47.7424
1602.25
20.719
1846.78
3.76888
2077.89
-17.281
2266.36
2321.17
-6.98046
-162.361
8.82421
-46.1158
24.4387
135.212
36.918
316.416
47.7411
489.899
57.0338
675.388
63.4074
866.196
65.6068
1059.54
62.6911
1242.02
54.6258
1397.21
43.4411
1510.83
30.9298
1574.63
19.9708
1644.11
9.09974
1711.48
1.0153
1759.07
-6.47951
1792.1
-16.3664
1771.83
-22.7528
1713.7
-26.0763
1615.75
-28.5912
1513.78
-31.1408
1371.29
-34.066
1213.63
-39.3959
978.927
-31.2171
666.642
-31.3273
-251.794
-38.4446
-616.191
-55.9162
-768.818
-59.632
-703.692
-49.7783
-683.453
-40.5955
-546.892
-23.5255
-266.362
-7.20527
128.099
4.26187
411.241
12.1581
550.567
18.6283
684.941
22.6043
754.555
25.6728
829.98
27.0042
888.354
25.5796
923.902
17.0968
919.032
-5.31324
975.154
-32.3466
1043.56
-61.2886
997.214
-93.4971
941.169
-121.329
892.413
-142.821
788.545
-159.752
607.555
-173.295
338.128
-183.839
-25.9615
-187.989
-408.647
-186.743
-744.116
-181.18
-1036.53
-172.569
-1289
-162.003
-1505.08
-150.252
-1688.97
-137.797
-1844.55
-124.872
-1975.05
-111.535
-2083.17
-97.6721
-2171.09
-83.097
-2239.73
-67.3636
-2290.83
-49.7682
-2326.57
-29.2994
-2348.64
-4.73938
-2355.69
25.2468
-2341.69
61.6471
-2296.82
104.668
-2203.53
152.401
-2032.33
199.476
-1746.77
235.471
-1313.11
247.067
-717.381
214.238
62.1892
151.388
708.574
88.6867
1209.87
50.0717
1640.87
21.5607
1875.29
4.44509
2095.01
-16.01
2286.82
2322.82
-5.74782
-170.884
10.7733
-62.6369
28.4623
117.523
42.2787
302.599
53.934
478.244
64.0091
665.313
71.2063
858.999
74.3655
1056.38
72.6604
1243.73
65.4512
1404.42
53.6087
1522.67
39.1777
1589.07
25.9272
1657.36
12.603
1724.8
1.52387
1770.15
-8.60785
1802.23
-20.3924
1783.61
-28.3307
1721.64
-32.6709
1620.09
-35.8776
1516.98
-38.9047
1374.32
-42.5111
1217.24
-48.3696
984.785
-40.2737
658.546
-42.1415
-249.926
-49.6789
-608.653
-65.541
-752.955
-65.9014
-703.332
-54.5973
-694.758
-43.763
-557.726
-23.9393
-286.186
-6.43404
110.593
6.5225
398.284
15.8104
541.279
23.5203
677.232
28.4469
749.629
32.224
826.203
33.9478
886.63
32.6765
925.174
23.4899
928.219
-0.449038
999.093
-29.5277
1072.64
-61.4064
1029.09
-96.1125
975.875
-125.682
921.983
-148.716
811.579
-167.017
625.856
-181.729
352.84
-193.159
-14.5311
-197.741
-404.066
-196.609
-745.247
-190.879
-1042.26
-181.871
-1298.01
-170.744
-1516.21
-158.324
-1701.39
-145.137
-1857.73
-131.435
-1988.75
-117.297
-2097.31
-102.642
-2185.74
-87.3027
-2255.07
-70.8265
-2307.3
-52.484
-2344.92
-31.2167
-2369.91
-5.71835
-2381.19
25.5241
-2372.93
63.7226
-2335.02
109.301
-2249.1
160.503
-2083.53
211.668
-1797.94
251.723
-1353.17
265.626
-731.284
231.048
96.7673
164.337
775.285
96.5666
1277.64
52.6152
1684.82
22.2819
1905.62
5.19111
2112.1
-11.0221
2303.03
2322.64
-4.8513
-179.723
12.1921
-79.6803
31.8788
97.8359
47.391
287.087
60.1545
465.48
70.8656
654.602
78.7121
851.152
82.7785
1052.31
82.1891
1244.32
75.9839
1410.63
63.9451
1534.71
48.0022
1605.01
32.7582
1672.6
17.3102
1740.25
3.34526
1784.11
-9.64318
1815.22
-23.7229
1797.69
-33.6731
1731.59
-39.35
1625.77
-43.4537
1521.09
-47.1521
1378.02
-51.6148
1221.7
-58.1989
991.369
-50.8649
651.212
-54.4624
-246.329
-62.5294
-600.586
-76.4509
-739.034
-72.0664
-707.716
-58.7973
-708.027
-46.9814
-569.542
-24.6422
-308.525
-5.43578
91.3868
9.1117
383.737
19.8925
530.498
28.91
668.214
34.8246
743.714
39.2869
821.741
41.3225
884.595
40.0234
926.473
29.5625
938.679
3.78047
1024.88
-27.3575
1103.78
-62.1333
1063.87
-99.0601
1012.8
-130.26
953.183
-154.808
836.127
-174.472
645.519
-190.334
368.702
-202.624
-2.24083
-207.616
-399.074
-206.579
-746.284
-200.662
-1048.17
-191.237
-1307.43
-179.534
-1527.91
-166.437
-1714.49
-152.522
-1871.65
-138.055
-2003.22
-123.139
-2112.22
-107.723
-2201.16
-91.6587
-2271.14
-74.4899
-2324.47
-55.463
-2363.94
-33.4659
-2391.91
-7.09331
-2407.56
25.3666
-2405.39
65.382
-2375.03
113.632
-2297.35
168.553
-2138.45
224.185
-1853.57
268.797
-1397.78
285.256
-747.743
248.63
133.393
177.803
846.111
105.118
1350.33
55.4923
1734.44
22.8393
1938.28
5.69057
2129.25
-10.5195
2319.24
2329.08
-4.29765
-188.849
13.1954
-97.1733
34.8687
76.1626
52.2695
269.686
66.2312
451.519
77.5558
643.277
86.0329
842.675
90.9679
1047.38
91.3562
1243.93
86.1459
1415.84
74.2139
1546.64
57.101
1622.12
40.1254
1689.58
22.9216
1757.45
6.36799
1800.67
-9.42349
1831.01
-26.0126
1814.28
-38.4363
1744.01
-45.8563
1633.19
-51.1148
1526.35
-55.7066
1382.61
-61.1907
1227.19
-68.6584
998.837
-62.4283
644.982
-68.2664
-240.491
-77.6269
-591.226
-88.8733
-727.787
-78.4555
-718.134
-61.4709
-725.011
-49.3905
-581.622
-26.5292
-331.387
-4.28413
69.1417
11.9592
367.494
24.3334
518.124
34.7184
657.829
41.643
736.79
46.748
816.636
48.9983
882.344
47.4199
928.051
35.1671
950.932
7.25165
1052.79
-25.949
1136.98
-63.4815
1101.4
-102.372
1051.69
-135.078
985.889
-161.095
862.145
-182.114
666.538
-199.112
385.7
-212.238
10.8852
-217.621
-393.691
-216.658
-747.247
-210.535
-1054.3
-200.676
-1317.29
-188.381
-1540.2
-174.598
-1728.27
-159.953
-1886.29
-144.735
-2018.44
-129.065
-2127.89
-112.921
-2217.3
-96.1709
-2287.89
-78.3602
-2342.28
-58.7128
-2383.59
-36.0578
-2414.56
-8.87855
-2434.74
24.7576
-2439.03
66.6087
-2416.88
117.65
-2348.39
176.558
-2197.36
237.052
-1914.07
286.763
-1447.49
306.084
-767.064
267.084
172.392
191.679
921.517
114.292
1427.71
58.8145
1789.92
23.2062
1973.89
6.08495
2146.37
-8.144
2333.47
2326.21
-4.09579
-198.237
13.6634
-114.933
37.1593
52.6667
56.6832
250.163
72.0125
436.189
84.2013
631.088
93.3337
833.543
99.0417
1041.67
100.239
1242.73
95.9057
1420.17
84.2455
1558.3
66.2524
1640.11
47.7608
1708.07
29.1219
1776.09
10.3596
1819.43
-7.94618
1849.32
-26.999
1833.33
-42.2521
1759.27
-51.8759
1642.81
-58.5916
1533.06
-64.3275
1388.34
-71.0013
1233.86
-79.4831
1007.32
-74.7637
640.263
-83.797
-231.458
-95.197
-579.825
-102.549
-720.435
-84.5019
-736.181
-62.4957
-747.018
-50.5156
-593.602
-29.6946
-352.208
-3.03511
42.4822
14.9801
349.478
29.0428
504.061
40.8454
646.026
48.7871
728.848
54.4761
810.947
56.8295
879.991
54.6627
930.218
40.2193
965.376
9.91919
1083.09
-25.3841
1172.28
-65.4519
1141.47
-106.061
1092.3
-140.132
1019.96
-167.572
889.585
-189.937
688.902
-208.061
403.824
-222.004
24.8287
-227.762
-387.933
-226.856
-748.154
-220.506
-1060.65
-210.193
-1327.6
-197.291
-1553.11
-182.811
-1742.75
-167.437
-1901.67
-151.48
-2034.39
-135.079
-2144.29
-118.239
-2234.14
-100.844
-2305.28
-82.4438
-2360.68
-62.2415
-2403.79
-39.0038
-2437.8
-11.0892
-2462.65
23.6793
-2473.8
67.3838
-2460.59
121.342
-2402.35
184.507
-2260.53
250.272
-1979.83
305.663
-1502.88
328.215
-789.616
286.489
214.118
205.849
1002.16
123.943
1509.62
62.629
1851.24
23.4242
2013.09
6.29262
2163.5
-7.03887
2346.8
2332.23
-4.24504
-207.872
13.6365
-132.814
38.5396
27.7636
60.502
228.2
77.6003
419.091
90.8603
617.828
100.571
823.832
106.925
1035.31
108.788
1240.87
105.185
1423.77
93.9061
1569.58
75.3204
1658.7
55.4928
1727.9
35.6322
1795.95
15.0452
1840.02
-5.3423
1869.7
-26.5737
1854.57
-44.8164
1777.51
-57.0863
1655.08
-65.5724
1541.55
-72.7093
1395.48
-80.7706
1241.92
-90.3768
1016.93
-87.7951
637.681
-101.284
-217.968
-115.276
-565.834
-116.887
-718.824
-88.7249
-764.344
-62.1004
-773.642
-50.4915
-605.211
-32.1356
-370.563
-1.68696
12.0335
18.0844
329.707
33.9192
488.226
47.178
632.768
56.1313
719.895
62.3328
804.745
64.6651
877.659
61.5712
933.312
44.6618
982.285
11.7878
1115.96
-25.6822
1209.75
-68.0107
1183.8
-110.106
1134.4
-145.412
1055.27
-174.235
918.407
-197.937
712.605
-217.174
423.061
-231.918
39.572
-238.044
-381.807
-237.177
-749.02
-230.581
-1067.24
-219.795
-1338.39
-206.27
-1566.63
-191.085
-1757.94
-174.979
-1917.77
-158.294
-2051.08
-141.186
-2161.4
-123.682
-2251.65
-105.684
-2323.28
-86.7467
-2379.62
-66.0576
-2424.48
-42.3162
-2461.54
-13.7418
-2491.23
22.112
-2509.65
67.6853
-2506.16
124.685
-2459.35
192.371
-2328.21
263.806
-2051.27
325.482
-1564.56
351.7
-815.834
306.877
258.941
220.234
1088.8
133.853
1596
66.9121
1918.18
23.5936
2056.41
6.2745
2180.82
-6.83701
2359.91
2329.54
-4.73538
-217.751
13.3259
-150.875
39.3029
1.78669
63.848
203.655
82.9495
399.99
97.3405
603.437
107.617
813.556
114.544
1028.39
116.978
1238.44
113.967
1426.79
103.145
1580.4
84.2422
1677.6
63.243
1748.9
42.2599
1816.94
20.171
1862.11
-1.84598
1891.72
-24.8173
1877.54
-45.9623
1798.65
-61.2135
1670.34
-71.7508
1552.08
-80.5166
1404.25
-90.173
1251.58
-101.064
1027.82
-101.638
638.254
-121.157
-198.449
-138.064
-548.927
-131.949
-724.94
-91.2608
-805.032
-60.3005
-804.602
-50.0943
-615.418
-32.8182
-387.839
-0.289248
-20.4954
21.1851
308.233
38.8588
470.552
53.5999
618.026
63.5489
709.946
70.1844
798.11
72.3614
875.482
67.9984
937.675
48.4345
1001.85
12.8699
1151.53
-26.8082
1249.43
-71.0786
1228.07
-114.448
1177.77
-150.901
1091.72
-181.073
948.58
-206.111
737.643
-226.451
443.401
-241.972
55.0931
-248.469
-375.31
-247.628
-749.861
-240.763
-1074.11
-229.486
-1349.66
-215.323
-1580.79
-199.424
-1773.84
-182.584
-1934.61
-165.183
-2068.48
-147.391
-2179.19
-129.256
-2269.78
-110.695
-2341.84
-91.276
-2399.04
-70.1704
-2445.59
-46.0086
-2485.7
-16.8542
-2520.38
20.0342
-2546.54
67.4862
-2553.61
127.639
-2519.51
200.075
-2400.65
277.54
-2128.73
346.117
-1633.13
376.514
-846.231
328.234
307.221
234.798
1182.24
143.79
1687.01
71.6067
1990.36
23.9059
2104.11
6.11728
2198.61
-3.34756
2369.38
2326
-5.5572
-227.873
12.7618
-169.194
39.5509
-25.0024
66.6073
176.599
87.7686
378.828
103.552
587.654
114.585
802.523
122.03
1020.94
124.932
1235.53
122.359
1429.36
111.992
1590.77
92.9767
1696.62
70.973
1770.9
48.9175
1838.99
25.5609
1885.46
2.26917
1915.01
-21.9685
1901.77
-45.688
1822.37
-64.0762
1688.72
-76.8782
1564.89
-87.4312
1414.8
-98.8465
1262.99
-111.288
1040.26
-116.401
643.368
-143.994
-170.856
-164.014
-528.906
-148.944
-740.009
-94.5473
-859.429
-57.848
-841.302
-49.3968
-623.869
-32.4864
-404.75
1.01712
-53.9989
24.1914
285.058
43.7621
450.982
59.9998
601.789
70.9199
699.026
77.9097
791.12
79.7885
873.603
73.8262
943.637
51.4661
1024.21
13.1748
1189.82
-28.6803
1291.28
-74.5533
1273.94
-119.022
1222.23
-156.582
1129.28
-188.078
980.075
-214.45
764.015
-235.887
464.838
-252.16
71.3657
-259.04
-368.429
-258.212
-750.689
-251.057
-1081.26
-239.269
-1361.45
-224.456
-1595.61
-207.836
-1790.46
-190.262
-1952.19
-172.154
-2086.59
-153.701
-2197.65
-134.965
-2288.52
-115.884
-2360.92
-96.0388
-2418.89
-74.5905
-2467.04
-50.0963
-2510.2
-20.4462
-2550.03
17.4209
-2584.41
66.7501
-2602.94
130.14
-2582.9
207.479
-2477.99
291.232
-2212.48
367.314
-1709.22
402.517
-881.435
350.486
359.253
249.509
1283.21
153.536
1782.98
76.6192
2067.28
24.541
2156.19
5.67343
2217.47
-3.69768
2378.75
2329.11
-6.69115
-238.247
11.9393
-187.825
39.2039
-52.2669
68.5988
147.204
92.0732
355.354
109.623
570.104
121.566
790.58
129.455
1013.05
132.714
1232.27
130.433
1431.64
120.462
1600.74
101.468
1715.61
78.6315
1793.74
55.5779
1862.04
31.1304
1909.91
6.76396
1939.38
-18.3488
1926.89
-44.1409
1848.17
-65.6047
1710.19
-80.7961
1580.08
-93.1941
1427.2
-106.441
1276.24
-120.795
1054.61
-132.074
654.647
-170.33
-132.6
-194.157
-505.079
-169.787
-764.379
-100.539
-928.677
-55.4034
-886.437
-47.9224
-631.35
-31.6098
-421.062
2.03477
-87.6435
27.008
260.085
48.5383
429.451
66.2764
584.051
78.1335