/*--------------------------------*- C++ -*----------------------------------*\
| =========                 |                                                 |
| \\      /  F ield         | OpenFOAM: The Open Source CFD Toolbox           |
|  \\    /   O peration     | Version:  4.1                                   |
|   \\  /    A nd           | Web:      www.OpenFOAM.org                      |
|    \\/     M anipulation  |                                                 |
\*---------------------------------------------------------------------------*/
FoamFile
{
    version     2.0;
    format      ascii;
    class       volSymmTensorField;
    location    "3";
    object      R;
}
// * * * * * * * * * * * * * * * * * * * * * * * * * * * * * * * * * * * * * //

dimensions      [0 2 -2 0 0 0 0];

internalField   nonuniform List<symmTensor> 
6785
(
(0.26513 4.41014e-17 5.3491e-17 0.191996 0.0370219 0.370572)
(0.000124352 2.50441e-22 3.42414e-22 0.000123855 2.28493e-07 0.000125032)
(0.00011887 -1.0785e-23 -7.57574e-24 0.000118879 1.09681e-08 0.000118867)
(0.000118873 6.43644e-24 4.68859e-24 0.000118877 8.5135e-09 0.000118871)
(0.000118888 -6.27515e-24 -1.17004e-24 0.000118892 8.15435e-09 0.000118886)
(0.000118861 3.36795e-24 -1.05913e-24 0.000118864 7.46292e-09 0.00011886)
(0.000118875 1.03219e-24 1.98101e-24 0.000118878 6.84478e-09 0.000118874)
(0.000118888 -5.97577e-24 -2.23506e-24 0.00011889 6.18115e-09 0.000118888)
(0.000118861 1.89634e-24 -1.43225e-25 0.000118862 5.59797e-09 0.000118861)
(0.000118876 1.16301e-24 2.50185e-24 0.000118877 5.23026e-09 0.000118877)
(0.000118888 -4.15678e-24 -9.70446e-25 0.000118888 4.65403e-09 0.000118889)
(0.000118855 1.18291e-24 -5.48568e-25 0.000118852 3.54928e-09 0.000118856)
(0.000119018 3.806e-25 1.25347e-24 0.000119015 8.4936e-10 0.000119023)
(0.000326054 3.81563e-23 -1.02515e-21 0.000307875 -1.42718e-05 0.000339)
(0.369582 -8.27627e-20 -3.91536e-18 0.290465 -0.0411405 0.445807)
(0.33649 5.56961e-17 1.56096e-16 0.136635 -0.00466492 0.595079)
(0.000621938 2.84929e-20 1.32348e-19 0.000386279 -1.65173e-05 0.000890522)
(1.82516e-07 -1.0788e-25 -6.43819e-26 1.8263e-07 3.96567e-11 1.82467e-07)
(1.70492e-07 4.64179e-26 4.21499e-26 1.70507e-07 -4.05044e-12 1.70433e-07)
(1.62276e-07 -5.14166e-26 -2.75244e-26 1.62313e-07 5.08393e-12 1.62228e-07)
(1.5388e-07 2.38588e-26 9.30533e-27 1.53909e-07 1.40837e-12 1.53837e-07)
(1.45783e-07 -7.03246e-27 1.26771e-26 1.4581e-07 -1.27461e-13 1.45745e-07)
(1.37606e-07 -3.33971e-26 -1.81024e-26 1.37631e-07 -3.46364e-12 1.37573e-07)
(1.2941e-07 1.32644e-26 3.31325e-27 1.29435e-07 -1.02775e-11 1.29386e-07)
(1.21608e-07 -3.44492e-27 8.21493e-27 1.21636e-07 -2.01065e-11 1.21596e-07)
(1.14637e-07 -1.975e-26 -8.16655e-27 1.14667e-07 -2.74689e-11 1.14633e-07)
(1.12074e-07 1.23769e-26 -1.24743e-27 1.12046e-07 -1.37452e-10 1.12094e-07)
(3.70422e-06 -1.39501e-24 2.22074e-24 3.33197e-06 -6.03672e-07 3.88654e-06)
(0.00446281 -2.16646e-21 3.70963e-21 0.00385177 -0.000939765 0.00478494)
(0.170582 7.39039e-19 3.59466e-19 0.134258 -0.0365333 0.190072)
(0.404761 4.70115e-17 2.09244e-16 0.129942 -0.0686654 0.767312)
(0.0038603 -3.29471e-19 3.10038e-20 0.0015616 -0.000768913 0.00616425)
(7.91212e-09 -3.08803e-25 -6.30252e-26 6.12961e-09 -6.99349e-10 9.80357e-09)
(3.68936e-08 -2.71802e-25 -3.47704e-24 5.81414e-08 -1.98179e-08 4.20868e-08)
(8.44691e-06 -7.75937e-23 -9.03319e-22 1.39992e-05 -5.17428e-06 9.80587e-06)
(8.59352e-05 2.81213e-21 -1.10041e-20 0.000150317 -6.15867e-05 0.000103002)
(0.000235173 -2.79789e-20 -5.0284e-20 0.000441216 -0.000203537 0.000306235)
(0.000440518 -1.06044e-19 -9.48206e-21 0.000840786 -0.000433009 0.000618035)
(0.000694713 6.88696e-20 -1.51156e-19 0.00128248 -0.000708077 0.00102532)
(0.000978719 1.70753e-20 -3.63851e-19 0.00167421 -0.00098273 0.00150586)
(0.00132914 -1.66928e-19 6.60597e-20 0.00207078 -0.00125525 0.00206923)
(0.00196289 3.3843e-19 -2.98099e-19 0.00296225 -0.00173184 0.00282378)
(0.00390166 2.79606e-19 -8.41878e-19 0.00635088 -0.00327362 0.00453092)
(0.0138353 -1.11035e-18 1.05631e-18 0.0257709 -0.0121379 0.0129026)
(0.0180914 8.14337e-18 6.58491e-18 0.0752456 0.00253459 1e-15)
(0.488221 2.91473e-17 2.82319e-16 0.152745 -0.135252 0.93826)
(0.00729176 -7.91304e-19 -2.00324e-18 0.00291375 -0.0019477 0.0116008)
(9.28529e-07 -3.14042e-22 -2.80228e-22 6.50643e-07 -1.82947e-07 1.27934e-06)
(2.47805e-08 -1.90728e-24 -6.36173e-25 4.25899e-08 -1.68657e-08 2.88279e-08)
(9.07671e-06 -7.39565e-22 -2.24818e-22 1.5862e-05 -6.42544e-06 1.06183e-05)
(0.000158461 -1.57706e-20 4.84713e-22 0.000284356 -0.000120437 0.000187093)
(0.000593553 -1.6232e-19 -2.20755e-20 0.00114682 -0.000519756 0.000735762)
(0.00136395 -1.11773e-19 -2.00534e-19 0.00267214 -0.00131693 0.00176504)
(0.00281866 -2.87657e-19 5.92439e-20 0.00546932 -0.00279511 0.00372578)
(0.00520188 -7.30737e-19 -1.4913e-19 0.00974832 -0.00531141 0.0071896)
(0.00775249 1.17761e-18 -1.63879e-18 0.0134259 -0.00827358 0.0117874)
(0.00783457 1.45502e-18 -1.09389e-18 0.01052 -0.00772087 0.0138247)
(0.00822093 4.97591e-19 -4.06284e-18 0.00963999 -0.00643306 0.0140889)
(0.0126708 1.1441e-18 -4.2417e-18 0.0195048 -0.0096478 0.0143754)
(0.031823 2.26129e-18 -4.54584e-18 0.0334758 -0.0226026 0.039469)
(0.592353 1.46572e-17 3.27447e-16 0.192433 -0.202463 1.13515)
(0.014165 -1.77833e-18 -1.01175e-17 0.0052711 -0.00451541 0.0217439)
(2.5421e-05 -3.45034e-20 -6.40044e-21 4.56039e-05 -1.12747e-05 2.66682e-05)
(5.66298e-07 -3.75889e-23 -4.28653e-23 9.65134e-07 -3.83258e-07 6.22951e-07)
(9.63398e-06 -9.97274e-22 -5.79904e-22 1.68334e-05 -6.64898e-06 1.10046e-05)
(0.00013948 -1.5674e-20 -9.47503e-21 0.000247004 -0.000100132 0.000159793)
(0.000730535 -1.49059e-19 -7.05956e-20 0.00137562 -0.000574927 0.000850979)
(0.00186271 4.00264e-20 -3.29599e-19 0.00350115 -0.00154215 0.00220538)
(0.00380095 4.05443e-20 -2.49787e-19 0.00709409 -0.00312164 0.00450669)
(0.00685947 7.10321e-19 -6.79577e-19 0.0126199 -0.00572662 0.00830621)
(0.0111493 5.37483e-18 -2.7658e-18 0.0200308 -0.00957039 0.0141688)
(0.0136054 9.61759e-18 -5.53467e-18 0.0212834 -0.0107698 0.0185979)
(0.0118964 1.56218e-18 -6.275e-18 0.0111338 -0.00627077 0.0176323)
(0.0134254 -7.53261e-18 -7.19848e-18 0.0104698 -0.00524307 0.0163653)
(0.0360184 -1.37315e-18 3.27677e-18 0.030513 -0.0236977 0.0501689)
(0.695557 8.02777e-19 3.88189e-16 0.236156 -0.261237 1.3182)
(0.0455084 -1.4504e-17 -1.21736e-17 0.0174654 -0.015995 0.0735607)
(0.000529612 -1.17406e-18 3.58033e-19 0.000742084 -0.000233083 0.000498044)
(1.13125e-05 -5.61174e-21 5.43508e-21 1.43484e-05 -9.03307e-06 1.03765e-05)
(1.04691e-05 -3.39907e-21 7.19265e-22 1.92302e-05 -7.01294e-06 1.13813e-05)
(6.97555e-05 -8.09641e-21 -1.1246e-21 0.000120372 -4.74025e-05 7.84912e-05)
(0.000443825 -9.61756e-20 -3.07096e-20 0.000804912 -0.000316252 0.000504049)
(0.00148208 -9.97544e-20 -8.42659e-20 0.00267334 -0.00111562 0.0016988)
(0.00277606 -1.55834e-19 1.69589e-19 0.00494543 -0.00198347 0.00313279)
(0.00411427 2.35429e-19 -2.23747e-19 0.00726432 -0.00289874 0.00460867)
(0.0056579 1.53059e-18 -6.83039e-19 0.0102233 -0.00417404 0.00640428)
(0.00641494 2.0619e-18 -9.61883e-19 0.0114402 -0.00457049 0.0074169)
(0.0066761 -1.39093e-18 4.84409e-19 0.0094796 -0.00444444 0.00868895)
(0.00824488 -2.52061e-18 2.57214e-18 0.00564537 -0.00421339 0.0116217)
(0.0171358 1.09882e-18 3.05769e-18 0.0114024 -0.00953242 0.0246818)
(0.78184 -8.8866e-18 4.29993e-16 0.27544 -0.305834 1.45501)
(0.0933853 -3.67016e-17 -2.48042e-17 0.039176 -0.0336199 0.155561)
(0.00667184 -8.2375e-18 7.86524e-19 0.00533424 -0.00272879 0.00895377)
(0.000568363 -6.74686e-19 2.51756e-19 0.000525474 -0.000335438 0.00069755)
(8.2028e-05 -1.02604e-19 5.1236e-20 0.000114972 -5.60966e-05 9.59883e-05)
(5.79092e-05 -1.75865e-20 1.10865e-20 9.6493e-05 -4.05586e-05 6.51017e-05)
(0.000230516 -4.76782e-20 -1.11832e-20 0.000407299 -0.000155106 0.000258426)
(0.00104809 -1.73904e-19 1.19959e-20 0.00186352 -0.000780872 0.00119828)
(0.00193938 -1.83301e-19 2.64871e-19 0.00338684 -0.00135425 0.00217509)
(0.00247884 5.78885e-20 -4.26711e-20 0.00423113 -0.00161489 0.00270913)
(0.00279859 2.85999e-19 -1.40945e-19 0.00487286 -0.00183551 0.00300434)
(0.00280507 5.53781e-19 -1.75803e-19 0.00504345 -0.00184467 0.00296521)
(0.00263455 3.4763e-19 -8.37e-20 0.00481547 -0.00169026 0.00284136)
(0.00353697 -2.18738e-18 2.01182e-18 0.00519657 -0.0026589 0.00556386)
(0.00464365 1.79045e-18 5.75961e-18 0.00345342 -0.0010879 0.00861771)
(0.841744 -1.33015e-17 4.25546e-16 0.304496 -0.333307 1.53241)
(0.1383 -4.36493e-17 -5.75002e-17 0.06247 -0.0486336 0.236451)
(0.0169367 -1.87042e-17 -3.32671e-18 0.0145376 -0.00735858 0.0228031)
(0.00234171 -2.62057e-18 5.27064e-19 0.00237219 -0.00145657 0.0029307)
(0.000437342 -5.05122e-19 1.84151e-19 0.000600947 -0.000321631 0.000534393)
(0.000126127 -8.21369e-20 3.77436e-20 0.000198481 -0.000103121 0.000153714)
(0.000159452 -3.86379e-20 1.72289e-21 0.00027607 -0.000108066 0.000179663)
(0.000778581 -1.46565e-19 1.588e-20 0.00139698 -0.000603212 0.000897255)
(0.00147111 -9.98932e-20 6.3948e-20 0.00259539 -0.00107827 0.00166582)
(0.00173343 -3.22772e-20 3.49279e-20 0.00295016 -0.00114658 0.00189734)
(0.00169756 1.06962e-19 -5.43965e-20 0.00288456 -0.0010642 0.00179886)
(0.0015745 2.75388e-19 -1.31878e-19 0.00274824 -0.000992352 0.00163159)
(0.00177489 8.96405e-20 -2.57136e-20 0.00331955 -0.00119549 0.00185052)
(0.0029441 -1.72398e-18 1.26525e-18 0.00496365 -0.00229706 0.00396797)
(0.00321757 7.55427e-19 8.6315e-19 0.00601164 -0.00217278 0.00343796)
(0.875519 -1.07134e-17 4.34103e-16 0.321747 -0.345105 1.56053)
(0.171389 -4.84451e-17 -1.00347e-16 0.0813934 -0.0570615 0.302908)
(0.0279048 -3.41789e-17 -9.68656e-18 0.0273513 -0.0134132 0.0369128)
(0.00506732 -5.90828e-18 1.08241e-18 0.00591963 -0.00353867 0.00632544)
(0.00116883 -1.32805e-18 4.93275e-19 0.00176868 -0.000950507 0.00145089)
(0.000326576 -2.12789e-19 7.51336e-20 0.000542695 -0.000309299 0.000423467)
(0.000191516 -5.71276e-20 1.94363e-20 0.000339595 -0.000153275 0.000229475)
(0.000653541 -1.51349e-19 3.02316e-20 0.00120274 -0.00054161 0.000766227)
(0.00123477 -4.75248e-20 -8.79637e-20 0.00224237 -0.000973493 0.00141831)
(0.00139686 -1.86896e-20 9.00373e-21 0.00243355 -0.000983748 0.00154379)
(0.00126114 -1.13088e-20 -1.46229e-20 0.00215789 -0.000810683 0.00133837)
(0.00109112 1.67845e-19 -1.19218e-19 0.00187771 -0.00068342 0.00113206)
(0.00141108 8.45804e-20 -1.44577e-20 0.00266932 -0.00100421 0.00146462)
(0.00264555 -1.97442e-18 1.3207e-18 0.00454656 -0.00210551 0.00342897)
(0.00287684 -7.47772e-19 9.59231e-19 0.00455583 -0.0022024 0.00328767)
(0.891098 -1.37941e-18 4.18966e-16 0.329679 -0.346811 1.5614)
(0.188055 -4.8292e-17 -1.41921e-16 0.0935649 -0.0578503 0.34299)
(0.0376509 -5.75874e-17 -9.11378e-18 0.0411529 -0.0196054 0.0490282)
(0.00884888 -1.01925e-17 8.01894e-19 0.0116111 -0.00684166 0.0110754)
(0.002512 -2.57634e-18 9.12697e-19 0.00410202 -0.00222269 0.00316036)
(0.000789839 -6.01876e-19 2.53579e-19 0.00137788 -0.00080598 0.00106233)
(0.00036091 -1.31641e-19 2.57363e-20 0.000671379 -0.000350016 0.000475231)
(0.000622272 -1.47628e-19 4.16363e-20 0.00117397 -0.000556456 0.000758613)
(0.00111112 -1.40222e-19 -3.10732e-20 0.00208323 -0.000946693 0.00130741)
(0.00124252 -6.688e-21 -8.16959e-20 0.00223855 -0.000948979 0.00139903)
(0.00108622 -4.62904e-21 -1.42584e-20 0.00190001 -0.000739661 0.0011675)
(0.000933939 1.06072e-20 -8.69537e-20 0.00162503 -0.000610666 0.000980119)
(0.00118756 1.77855e-19 -9.9294e-20 0.00226529 -0.000859884 0.00122206)
(0.00238067 -1.61188e-18 1.05162e-18 0.00418405 -0.00189614 0.00294321)
(0.00311204 -6.47883e-19 7.07033e-19 0.00454065 -0.00244612 0.00346146)
(0.898904 -5.03553e-18 4.10038e-16 0.332397 -0.345114 1.55797)
(0.18681 -4.90232e-17 -1.63149e-16 0.0969372 -0.0525089 0.349217)
(0.0441911 -7.59922e-17 -1.66206e-17 0.0524129 -0.0245398 0.0569173)
(0.0129168 -1.51893e-17 3.38761e-18 0.0182223 -0.0105042 0.0162736)
(0.00453705 -5.0377e-18 2.21829e-18 0.00773661 -0.00416346 0.00578011)
(0.00168046 -1.45865e-18 3.87505e-19 0.00300692 -0.00178812 0.00230411)
(0.000865162 -1.99459e-19 2.9691e-20 0.00166414 -0.000952675 0.00122827)
(0.000862351 -2.25104e-19 1.33936e-19 0.0016763 -0.000893461 0.0011725)
(0.00118865 -4.47887e-19 -9.5396e-20 0.00228961 -0.00113543 0.00151164)
(0.00127818 7.20993e-21 -3.2962e-20 0.00237523 -0.00109259 0.00152964)
(0.00111571 1.18196e-20 7.71973e-20 0.00200669 -0.000842821 0.00125677)
(0.000930361 -1.64884e-19 -1.37093e-19 0.00164807 -0.000646627 0.000997249)
(0.00102917 -1.3782e-19 -2.62732e-21 0.00195075 -0.000719467 0.00104593)
(0.00223735 -1.7157e-18 7.3838e-19 0.00408543 -0.00179792 0.00262678)
(0.00453864 1.00874e-18 -1.72189e-21 0.00694348 -0.00417528 0.00495357)
(0.903948 2.06264e-19 4.30402e-16 0.332262 -0.343639 1.56038)
(0.178783 -7.36291e-17 -1.97931e-16 0.0966569 -0.0452308 0.333232)
(0.0458517 -9.45089e-17 -6.57562e-18 0.0594285 -0.0278046 0.057527)
(0.0157137 -1.43677e-17 3.87054e-18 0.0235499 -0.0132817 0.0197629)
(0.00678469 -9.29965e-18 4.9575e-18 0.012126 -0.00629191 0.00865005)
(0.00349946 -4.02139e-18 1.42428e-18 0.00628203 -0.00387562 0.0052007)
(0.00296487 4.29087e-18 -2.80614e-18 0.0056773 -0.00357295 0.00458428)
(0.00229984 -3.85678e-20 2.86578e-19 0.00438852 -0.00279759 0.00362671)
(0.00200884 -2.29326e-18 7.54796e-19 0.00387448 -0.00228146 0.002974)
(0.00171218 -3.41656e-19 2.0943e-19 0.00322282 -0.00172074 0.00232789)
(0.0013426 -1.83962e-19 1.59677e-19 0.0024427 -0.00115839 0.00166056)
(0.00102342 -4.4142e-19 -3.24048e-21 0.00181482 -0.000745451 0.00114363)
(0.000947696 -3.20321e-19 7.81438e-20 0.00176641 -0.000612986 0.000944647)
(0.00237412 -2.89983e-18 1.26656e-18 0.00456293 -0.00194556 0.00266021)
(0.00785348 3.88664e-18 -1.42674e-18 0.011827 -0.00783998 0.00874823)
(0.927736 1.06814e-17 4.16681e-16 0.340396 -0.353379 1.59946)
(0.179955 -9.62302e-17 -2.53737e-16 0.0986281 -0.0399602 0.319976)
(0.0485824 -1.22842e-16 1.92116e-17 0.0703813 -0.0328393 0.0586556)
(0.0177691 -4.01495e-18 -1.04929e-19 0.0286886 -0.015924 0.022518)
(0.0112518 -1.45778e-17 7.64769e-18 0.0222957 -0.0113526 0.0146771)
(0.0115267 -8.62855e-19 -1.93893e-18 0.0221641 -0.0148053 0.0170544)
(0.012294 3.21036e-17 -1.76238e-17 0.0247035 -0.0152926 0.0187697)
(0.00710289 -8.26509e-18 8.14243e-18 0.0134458 -0.00853826 0.0114229)
(0.00395231 -8.10042e-18 3.97612e-18 0.00731958 -0.00438301 0.00612481)
(0.00245254 -1.55836e-18 1.21901e-18 0.00441146 -0.00249974 0.00361126)
(0.0017626 -1.43485e-18 6.02321e-19 0.00295212 -0.00154244 0.00251838)
(0.00146138 -1.22607e-18 -6.11065e-19 0.00216962 -0.000988281 0.00219697)
(0.00110334 -5.41024e-19 -1.2232e-20 0.00174603 -0.000612351 0.00135018)
(0.00355107 -7.17797e-18 3.51783e-18 0.00719327 -0.00307761 0.00393685)
(0.0172363 9.85127e-18 -5.4892e-18 0.0242482 -0.0176367 0.0200903)
(0.910135 -4.90205e-18 3.62378e-16 0.341333 -0.352864 1.54724)
(0.302589 -9.01578e-17 -4.14745e-16 0.151726 -0.0761728 0.554002)
(0.0900081 -2.28006e-16 5.94295e-19 0.128947 -0.0556537 0.104247)
(0.0353146 6.15747e-18 -8.26819e-18 0.0707794 -0.0338113 0.0401145)
(0.0222855 -7.28491e-18 2.08752e-18 0.0426669 -0.018115 0.0259686)
(0.0224644 6.0041e-18 -6.10331e-18 0.0453791 -0.0250105 0.0297616)
(0.0214986 4.18754e-18 -4.44496e-18 0.0447471 -0.0231955 0.0286435)
(0.0107561 -2.44727e-17 9.85555e-18 0.0218269 -0.012441 0.0154981)
(0.00500414 -7.67957e-18 -4.20946e-19 0.00910513 -0.00506005 0.00748857)
(0.00329937 -1.13304e-19 -4.30473e-18 0.0043411 -0.00252642 0.005861)
(0.00372315 1.12091e-18 -6.45078e-18 0.00357112 -0.00224524 0.00785019)
(0.00461557 1.84163e-18 -7.80574e-18 0.00394435 -0.00281185 0.0102416)
(0.00526201 -6.97272e-20 -8.99695e-18 0.00558841 -0.00411913 0.0096869)
(0.0125184 -4.51212e-18 -5.49425e-18 0.0200977 -0.0125162 0.0167309)
(0.0312343 2.7471e-17 -1.79588e-17 0.0396516 -0.0311352 0.0378991)
(0.902891 -1.53241e-17 2.78655e-16 0.378269 -0.362374 1.494)
(1.61895 -7.56457e-19 -1.02809e-16 1.00268 -0.792265 3.55987)
(0.715897 -1.78677e-16 -2.06216e-16 0.516185 -0.340196 1.40136)
(0.356798 -1.27976e-16 -1.2895e-16 0.321376 -0.195633 0.610174)
(0.210642 -6.38421e-17 -5.73275e-17 0.256723 -0.143275 0.305249)
(0.168013 2.14629e-17 -2.31528e-17 0.264295 -0.15688 0.208263)
(0.151552 9.25153e-17 -3.93962e-17 0.276273 -0.177801 0.181283)
(0.132148 7.47338e-17 -1.06805e-17 0.261773 -0.176525 0.159129)
(0.109664 -1.35956e-17 4.90381e-17 0.23171 -0.144453 0.122108)
(0.0822636 -1.26344e-16 8.49019e-17 0.181196 -0.103408 0.0898645)
(0.0460149 -1.28933e-16 8.39227e-17 0.100603 -0.0515294 0.0500141)
(0.0233134 -1.46057e-17 6.26078e-17 0.0474628 -0.025489 0.0232554)
(0.0137334 -5.91096e-18 4.00816e-17 0.0188835 -0.0121345 0.0169214)
(0.0473829 -2.55036e-17 2.93128e-17 0.0759541 -0.0465444 0.0604592)
(0.0414947 -2.94745e-17 1.36605e-17 0.0495098 -0.0373658 0.0483328)
(0.243771 3.17361e-18 -8.47025e-17 0.247058 -0.00210402 0.266496)
(0.286684 1.87324e-17 -1.55493e-16 0.258355 -0.0123359 0.35835)
(0.279171 1.53627e-17 -1.0046e-16 0.253391 -0.0134267 0.327362)
(0.28261 1.94336e-17 -9.90435e-17 0.254174 -0.0161804 0.329459)
(0.290427 2.4317e-17 -9.94691e-17 0.257388 -0.019091 0.342059)
(0.322299 4.98997e-17 -1.60063e-16 0.272885 -0.0365259 0.412307)
(0.309822 3.46454e-17 -1.06475e-16 0.265558 -0.0293413 0.373246)
(0.309847 3.66541e-17 -1.02064e-16 0.265473 -0.0310077 0.369084)
(0.314784 3.89066e-17 -9.77699e-17 0.26837 -0.0330422 0.376099)
(0.343639 6.30881e-17 -1.4569e-16 0.285762 -0.0557294 0.440977)
(0.331872 4.50524e-17 -1.05124e-16 0.279132 -0.0432174 0.404235)
(0.332247 4.72686e-17 -1.02198e-16 0.279571 -0.0447529 0.401736)
(0.35326 8.26133e-17 -1.37051e-16 0.293574 -0.0726608 0.450338)
(0.335175 7.4559e-17 -1.2357e-16 0.281648 -0.0584657 0.404742)
(0.330038 8.17228e-17 -1.23368e-16 0.278852 -0.058137 0.39078)
(0.328981 8.63901e-17 -1.19523e-16 0.27882 -0.0582382 0.385399)
(0.347104 1.16688e-16 -1.37414e-16 0.291757 -0.084283 0.427246)
(0.330813 8.80768e-17 -1.02666e-16 0.281569 -0.0629122 0.384643)
(0.32653 8.3303e-17 -9.43384e-17 0.279036 -0.0608089 0.373272)
(0.337695 1.09647e-16 -1.13699e-16 0.288242 -0.0881 0.398826)
(0.31804 8.66788e-17 -8.90489e-17 0.275341 -0.0683977 0.352395)
(0.310279 8.53728e-17 -8.631e-17 0.270844 -0.0682188 0.334705)
(0.304868 7.92903e-17 -7.90269e-17 0.267628 -0.0661763 0.322306)
(0.312015 9.96333e-17 -9.31245e-17 0.273871 -0.0906731 0.340203)
(0.293228 7.83608e-17 -7.22899e-17 0.261452 -0.0685776 0.29796)
(0.285094 7.58001e-17 -6.86424e-17 0.255435 -0.0649077 0.283002)
(0.279054 6.96312e-17 -6.19431e-17 0.251034 -0.0608049 0.271772)
(0.2837 8.24917e-17 -7.04366e-17 0.25505 -0.0809694 0.285278)
(0.266802 6.27527e-17 -5.39877e-17 0.241954 -0.0588118 0.252972)
(0.260418 5.90575e-17 -4.97767e-17 0.236876 -0.0545525 0.242315)
(0.263839 7.5866e-17 -5.9359e-17 0.241252 -0.0732135 0.251478)
(0.246385 5.87384e-17 -4.35515e-17 0.226827 -0.0530764 0.221287)
(0.239141 5.49873e-17 -4.00442e-17 0.220997 -0.0497786 0.210498)
(0.233691 4.97332e-17 -3.51957e-17 0.21687 -0.0464737 0.202015)
(0.238073 6.12266e-17 -4.31484e-17 0.223763 -0.0636617 0.210115)
(0.222374 4.2104e-17 -2.90584e-17 0.209483 -0.0451594 0.186101)
(0.216595 3.73894e-17 -2.56982e-17 0.204648 -0.0417868 0.178021)
(0.220428 5.32611e-17 -3.44746e-17 0.213573 -0.057416 0.182194)
(0.203671 3.33648e-17 -2.25764e-17 0.196517 -0.0399289 0.159939)
(0.197128 2.99654e-17 -2.07109e-17 0.190802 -0.0371913 0.151891)
(0.192101 2.65836e-17 -1.8405e-17 0.186738 -0.0346177 0.145391)
(0.197934 5.46838e-17 -2.99912e-17 0.20085 -0.0493839 0.149017)
(0.181228 3.02954e-17 -1.85534e-17 0.181205 -0.0335829 0.130925)
(0.17538 2.81684e-17 -1.71458e-17 0.175847 -0.0311113 0.124423)
(0.17107 2.63055e-17 -1.53342e-17 0.172392 -0.0287394 0.119117)
(0.179909 7.75826e-17 -3.41874e-17 0.193239 -0.0422667 0.123119)
(0.163421 3.8461e-17 -1.68867e-17 0.171129 -0.0272699 0.107795)
(0.159038 3.65465e-17 -1.47424e-17 0.167278 -0.0247176 0.102923)
(0.169882 1.2059e-16 -4.6717e-17 0.193588 -0.0376052 0.107968)
(0.151686 5.7317e-17 -1.95462e-17 0.166961 -0.0220701 0.0924866)
(0.147408 5.80176e-17 -1.81846e-17 0.163281 -0.0195964 0.0879887)
(0.144829 6.14555e-17 -1.69496e-17 0.16215 -0.0173729 0.0843969)
(0.161416 2.07324e-16 -7.27295e-17 0.199318 -0.0308165 0.094145)
(0.145009 1.12616e-16 -3.19827e-17 0.173202 -0.0166602 0.0808643)
(0.144136 1.25719e-16 -3.5659e-17 0.174602 -0.0162035 0.0790714)
(0.145324 1.44433e-16 -4.02366e-17 0.179258 -0.0161695 0.0784448)
(0.172085 4.18348e-16 -1.56952e-16 0.233846 -0.0393152 0.100584)
(0.160785 2.64996e-16 -9.11378e-17 0.213649 -0.0251615 0.0910686)
(0.165643 3.00259e-16 -1.08049e-16 0.223961 -0.0277517 0.0948472)
(0.203701 7.70525e-16 -3.71963e-16 0.296614 -0.0767027 0.142103)
(0.184683 4.28413e-16 -1.77328e-16 0.262956 -0.0408051 0.114711)
(0.185506 4.21397e-16 -1.64704e-16 0.266085 -0.0400693 0.113739)
(0.18755 4.09175e-16 -1.44689e-16 0.271489 -0.0390617 0.112898)
(0.22091 8.23381e-16 -3.68171e-16 0.334836 -0.0933561 0.164064)
(0.19531 4.31631e-16 -1.37069e-16 0.289687 -0.0491529 0.126082)
(0.195229 3.80657e-16 -8.95263e-17 0.291832 -0.046452 0.124329)
(0.214795 5.84389e-16 -1.23084e-16 0.331126 -0.0911413 0.159677)
(0.189251 2.64099e-16 2.19817e-17 0.284014 -0.057081 0.136444)
(0.185391 1.97757e-16 8.92061e-17 0.276913 -0.0637465 0.140723)
(0.184947 1.08771e-16 1.74311e-16 0.276837 -0.0665269 0.144723)
(0.194604 2.90241e-17 3.75787e-16 0.29359 -0.109702 0.172409)
(0.188988 -1.11103e-16 5.09937e-16 0.284915 -0.082962 0.164279)
(0.190646 -1.69109e-16 5.728e-16 0.287303 -0.0928441 0.169803)
(0.190124 -1.55055e-16 5.66597e-16 0.280509 -0.105095 0.190708)
(0.193246 -1.79364e-16 6.03601e-16 0.279349 -0.142689 0.216585)
(0.191263 -1.60035e-16 6.00444e-16 0.273923 -0.121927 0.223647)
(0.192562 -1.68108e-16 6.13054e-16 0.274736 -0.135013 0.231274)
(0.194659 -1.97714e-16 6.43089e-16 0.276067 -0.160739 0.239657)
(0.192786 -1.69916e-16 6.27588e-16 0.271407 -0.14084 0.245675)
(0.193589 -1.77329e-16 6.3759e-16 0.271572 -0.152998 0.251172)
(0.194468 -1.78516e-16 6.42687e-16 0.271855 -0.155846 0.255409)
(0.195428 -1.78558e-16 6.45833e-16 0.271389 -0.153495 0.254881)
(0.198528 -1.92206e-16 6.60584e-16 0.274269 -0.154422 0.259366)
(0.204011 -2.68761e-16 7.34654e-16 0.276951 -0.151713 0.26378)
(0.196895 -3.6609e-16 7.56655e-16 0.25618 -0.141971 0.264959)
(0.201177 -3.92711e-16 7.82306e-16 0.260138 -0.144368 0.273046)
(0.204146 -4.38045e-16 8.1889e-16 0.261536 -0.144645 0.277528)
(0.208455 -4.82937e-16 8.56595e-16 0.265129 -0.147483 0.285545)
(0.212969 -5.31461e-16 8.97345e-16 0.268641 -0.150827 0.294503)
(0.217726 -5.81602e-16 9.386e-16 0.272344 -0.154233 0.303774)
(0.222556 -6.30167e-16 9.76571e-16 0.276043 -0.157087 0.31252)
(0.228012 -6.74227e-16 1.00805e-15 0.280965 -0.159793 0.32119)
(0.243203 -7.72461e-16 1.08314e-15 0.296256 -0.166544 0.342652)
(0.237163 -7.07012e-16 1.01135e-15 0.278362 -0.16173 0.353463)
(0.244902 -6.88309e-16 9.99032e-16 0.285565 -0.168113 0.369978)
(0.252063 -6.256e-16 9.43453e-16 0.292579 -0.174061 0.384483)
(0.259073 -5.27129e-16 8.54064e-16 0.299722 -0.179478 0.397603)
(0.266532 -4.16588e-16 7.57741e-16 0.307319 -0.185825 0.41227)
(0.274767 -3.18415e-16 6.75401e-16 0.316014 -0.193917 0.429653)
(0.283026 -2.61733e-16 6.27904e-16 0.324652 -0.201902 0.446902)
(0.291742 -2.57062e-16 6.22382e-16 0.334439 -0.210021 0.46413)
(0.312678 -3.22351e-16 6.7902e-16 0.355784 -0.224253 0.500364)
(0.304084 -3.92336e-16 6.91064e-16 0.335833 -0.21362 0.506518)
(0.312915 -4.16513e-16 7.12918e-16 0.342979 -0.219899 0.525952)
(0.320742 -4.61771e-16 7.50569e-16 0.350197 -0.225838 0.542003)
(0.328442 -5.07446e-16 7.85335e-16 0.357913 -0.231923 0.55722)
(0.335881 -5.42825e-16 8.06415e-16 0.365815 -0.237277 0.570584)
(0.342602 -5.59115e-16 8.06249e-16 0.372607 -0.240964 0.581292)
(0.349145 -5.57166e-16 7.88609e-16 0.378639 -0.244126 0.591892)
(0.356163 -5.44868e-16 7.61647e-16 0.385422 -0.247922 0.603845)
(0.36312 -5.38704e-16 7.3773e-16 0.391864 -0.251499 0.615897)
(0.381493 -5.89197e-16 7.49938e-16 0.405765 -0.259434 0.64906)
(0.373323 -6.50042e-16 7.36956e-16 0.38758 -0.247099 0.651021)
(0.380747 -6.88704e-16 7.51143e-16 0.39119 -0.249243 0.666935)
(0.385405 -7.62137e-16 7.8481e-16 0.393424 -0.248764 0.674123)
(0.388926 -8.44366e-16 8.17422e-16 0.39451 -0.246685 0.677988)
(0.391744 -9.22317e-16 8.37086e-16 0.394725 -0.24284 0.679453)
(0.393274 -9.81045e-16 8.30475e-16 0.392815 -0.235794 0.677064)
(0.394166 -1.00993e-15 7.94515e-16 0.389409 -0.225962 0.672787)
(0.395494 -1.00144e-15 7.3577e-16 0.384849 -0.215985 0.671403)
(0.404833 -1.01391e-15 6.83309e-16 0.383491 -0.207313 0.688242)
(0.402966 -8.73876e-16 5.98135e-16 0.375811 -0.197992 0.689443)
(0.407525 -8.2843e-16 5.34487e-16 0.374847 -0.192798 0.697173)
(0.407623 -7.42264e-16 4.29594e-16 0.369532 -0.180992 0.692223)
(0.408428 -6.42921e-16 3.26383e-16 0.364326 -0.169128 0.689966)
(0.410721 -5.44427e-16 2.35828e-16 0.359686 -0.157885 0.692481)
(0.413934 -4.57072e-16 1.6117e-16 0.354261 -0.146068 0.698393)
(0.41945 -3.90151e-16 1.04695e-16 0.35128 -0.134523 0.709695)
(0.42482 -3.49541e-16 6.38848e-17 0.343417 -0.120782 0.723658)
(0.437289 -3.40491e-16 4.21551e-17 0.34423 -0.111558 0.752087)
(0.457904 -3.18914e-16 8.91099e-17 0.360213 -0.122173 0.792424)
(0.467012 -2.97159e-16 6.93151e-17 0.358912 -0.118554 0.815618)
(0.477651 -2.55906e-16 3.97977e-17 0.360615 -0.115266 0.841731)
(0.488702 -2.12668e-16 1.17858e-17 0.360365 -0.110588 0.869966)
(0.500621 -1.67827e-16 -1.06017e-17 0.360793 -0.106464 0.900325)
(0.515423 -1.25774e-16 -2.50886e-17 0.365109 -0.106132 0.937341)
(0.531883 -8.97169e-17 -3.4389e-17 0.369276 -0.106983 0.979348)
(0.548988 -6.2398e-17 -3.92243e-17 0.370355 -0.108624 1.02509)
(0.574639 -4.68335e-17 -3.99639e-17 0.386151 -0.114495 1.08508)
(0.591491 -4.47911e-17 -2.08527e-17 0.3927 -0.128085 1.10629)
(0.59928 -4.25274e-17 -1.4933e-17 0.390313 -0.123008 1.12918)
(0.610958 -4.2224e-17 -7.37465e-18 0.394277 -0.123073 1.1622)
(0.621686 -4.14213e-17 8.60816e-19 0.394215 -0.122052 1.19498)
(0.634451 -3.5502e-17 8.16895e-18 0.396855 -0.123273 1.2325)
(0.647465 -2.06871e-17 1.41131e-17 0.398703 -0.124532 1.27117)
(0.640921 -5.93174e-18 2.4695e-17 0.391614 -0.121193 1.26546)
(0.632744 1.00795e-18 3.89493e-17 0.384143 -0.123159 1.25609)
(0.621001 8.3512e-18 5.3881e-17 0.373635 -0.128565 1.23685)
(0.611695 1.49231e-17 7.13064e-17 0.379088 -0.137669 1.2125)
(0.607201 3.76383e-17 2.87885e-17 0.340272 -0.186723 1.20949)
(0.560104 4.21475e-17 3.40627e-17 0.304668 -0.167349 1.11366)
(0.505058 3.47792e-17 4.05161e-17 0.275244 -0.154382 1.0035)
(0.434385 2.59442e-17 4.75644e-17 0.231898 -0.130565 0.852077)
(0.358199 1.80803e-17 5.41526e-17 0.187097 -0.105872 0.684225)
(0.270993 8.45257e-18 6.12655e-17 0.133611 -0.0770004 0.487821)
(0.204396 2.58763e-19 6.18699e-17 0.100357 -0.0579023 0.341366)
(0.175424 -2.17596e-18 5.28212e-17 0.091785 -0.0506621 0.287755)
(0.141127 -1.98792e-18 4.04928e-17 0.0790188 -0.0375019 0.223725)
(0.115804 -5.35969e-18 2.83914e-17 0.0638764 -0.027586 0.16026)
(0.0770443 -5.4274e-18 1.57274e-17 0.047519 -0.0118498 0.0913511)
(0.034792 -7.13963e-18 2.23257e-18 0.0342691 0.00177245 0.017695)
(0.033099 -7.81396e-18 1.79235e-18 0.0342465 0.00118936 0.0141859)
(0.031935 -7.64421e-18 1.28133e-18 0.0330287 0.00253397 0.0120181)
(0.0320998 -7.39088e-18 1.01052e-18 0.0326863 0.00366043 0.0118673)
(0.0322322 -7.96315e-18 1.09653e-18 0.0327915 0.003305 0.0118751)
(0.0326925 -7.66193e-18 8.28854e-19 0.0329664 0.00415445 0.012025)
(0.0329982 -8.30678e-18 8.8874e-19 0.0334915 0.00374689 0.0120249)
(0.0332834 -8.17252e-18 7.43552e-19 0.033306 0.00411169 0.012141)
(0.0338499 -8.00948e-18 5.77713e-19 0.0338055 0.00459696 0.0123793)
(0.0340122 -8.7116e-18 6.44772e-19 0.0339463 0.00427357 0.0124001)
(0.0343413 -8.58824e-18 5.49121e-19 0.0339362 0.00448131 0.0125193)
(0.0349432 -8.39375e-18 4.04733e-19 0.0345835 0.00484859 0.0127448)
(0.0350934 -9.13808e-18 5.00848e-19 0.0346815 0.00460295 0.0127991)
(0.03576 -8.73268e-18 3.33906e-19 0.0354814 0.0048203 0.0130238)
(0.0360617 -9.54777e-18 4.40459e-19 0.0359645 0.00443029 0.0130966)
(0.0364257 -9.51093e-18 3.5215e-19 0.0361008 0.00454665 0.0132134)
(0.0370628 -9.35205e-18 2.3414e-19 0.0368758 0.00483526 0.0134277)
(0.0372086 -1.02428e-17 3.1645e-19 0.0369539 0.00457484 0.0134959)
(0.0379158 -1.01388e-17 1.50877e-19 0.0378617 0.00472789 0.0137283)
(0.0382202 -1.13687e-17 1.0631e-19 0.0383411 0.00413167 0.0138205)
(0.0385946 -1.13407e-17 3.92085e-20 0.0385097 0.00421166 0.0139406)
(0.0392841 -1.11256e-17 -3.21594e-20 0.0393898 0.00448364 0.0141584)
(0.039435 -1.2236e-17 -4.20181e-20 0.0394708 0.00411097 0.0142319)
(0.0398108 -1.2179e-17 -9.26204e-20 0.0396136 0.00422721 0.0143526)
(0.0405266 -1.19532e-17 -1.5587e-19 0.0405195 0.00450011 0.0145734)
(0.0406725 -1.31436e-17 -1.96902e-19 0.0405763 0.00416697 0.0146581)
(0.0414835 -1.26336e-17 -2.72346e-19 0.0416483 0.00422221 0.0148978)
(0.0417995 -1.39774e-17 -3.95273e-19 0.0421299 0.00369707 0.0150298)
(0.0422402 -1.39124e-17 -4.49909e-19 0.0423706 0.00379862 0.015166)
(0.0430401 -1.35684e-17 -5.07486e-19 0.0433948 0.0040937 0.0153988)
(0.0431899 -1.49123e-17 -5.90019e-19 0.0434473 0.00368268 0.0154904)
(0.0440996 -1.39126e-17 -6.42157e-19 0.0446608 0.00384616 0.0157378)
(0.0444306 -1.49694e-17 -5.93485e-19 0.0451655 0.0031929 0.0158773)
(0.0449372 -1.46573e-17 -6.49286e-19 0.0454764 0.00330626 0.0160243)
(0.0458529 -1.42343e-17 -8.66386e-19 0.0466618 0.00363875 0.016277)
(0.0460183 -1.55589e-17 -6.09967e-19 0.0467369 0.00304897 0.0163689)
(0.0465535 -1.52585e-17 -7.37263e-19 0.0470423 0.00317597 0.0165151)
(0.0475213 -1.49214e-17 -1.04582e-18 0.0482767 0.00351749 0.0167744)
(0.0476844 -1.65194e-17 -7.33763e-19 0.0483331 0.00298559 0.0168747)
(0.0487733 -1.5768e-17 -1.10562e-18 0.0497838 0.00316963 0.0171469)
(0.0491348 -1.75379e-17 -7.70161e-19 0.0503371 0.00247632 0.0172994)
(0.0497541 -1.73895e-17 -9.46084e-19 0.0507676 0.00260032 0.0174683)
(0.0508143 -1.6968e-17 -1.21782e-18 0.0521315 0.00297349 0.0177511)
(0.0509785 -1.88584e-17 -9.92154e-19 0.0521843 0.00233468 0.017856)