/*--------------------------------*- C++ -*----------------------------------*\
| =========                 |                                                 |
| \\      /  F ield         | OpenFOAM: The Open Source CFD Toolbox           |
|  \\    /   O peration     | Version:  4.1                                   |
|   \\  /    A nd           | Web:      www.OpenFOAM.org                      |
|    \\/     M anipulation  |                                                 |
\*---------------------------------------------------------------------------*/
FoamFile
{
    version     2.0;
    format      ascii;
    class       volVectorField;
    location    "3";
    object      U;
}
// * * * * * * * * * * * * * * * * * * * * * * * * * * * * * * * * * * * * * //

dimensions      [0 1 -1 0 0 0 0];

internalField   nonuniform List<vector> 
6785
(
(1.14793e-14 -0.825229 16.1203)
(9.15553e-15 -6.6978 12.487)
(-2.91018e-15 -4.78811 12.8784)
(2.86417e-15 -4.30406 12.6225)
(9.1191e-16 -3.69053 12.4493)
(-1.46696e-16 -3.22606 12.2198)
(2.37351e-15 -2.84275 11.9557)
(5.84311e-16 -2.55386 11.6353)
(-6.67515e-16 -2.35804 11.2469)
(1.418e-15 -2.23266 10.815)
(1.32726e-16 -2.17419 10.3946)
(-6.31354e-16 -2.3844 9.92503)
(5.98542e-16 -2.92405 9.30668)
(-1.03257e-16 -2.29907 8.89346)
(-1.34617e-16 0.852583 7.40145)
(2.01854e-14 -7.59133 26.1168)
(1.35277e-14 -16.6147 21.7541)
(-3.60191e-15 -11.4941 22.2432)
(5.05035e-15 -11.9278 20.7555)
(9.51604e-16 -10.9269 19.7677)
(5.4118e-16 -10.2641 18.6926)
(3.15502e-15 -9.56623 17.6187)
(3.83405e-16 -8.89933 16.5296)
(-2.27403e-16 -8.28579 15.4543)
(1.78789e-15 -7.7485 14.4383)
(-4.52729e-17 -7.20358 13.4987)
(-2.92954e-16 -6.63 12.5351)
(7.97368e-16 -6.13886 11.0791)
(-2.75749e-16 -4.59013 7.87842)
(-2.64458e-16 -0.633764 1.40064)
(2.20024e-14 -10.2987 27.5568)
(1.35221e-14 -17.4242 23.8876)
(-2.0775e-15 -11.6116 24.3392)
(5.89704e-15 -12.601 22.0806)
(7.99404e-16 -10.9517 20.9599)
(1.5647e-15 -10.1913 19.452)
(2.6054e-15 -9.23097 18.0362)
(2.89591e-16 -8.35717 16.5978)
(4.57785e-16 -7.52345 15.1896)
(9.91194e-16 -6.8047 13.8577)
(-3.33859e-16 -6.29961 12.7113)
(-1.55149e-16 -6.03462 11.7608)
(6.37936e-16 -5.69897 10.4608)
(-4.21483e-16 -4.31707 6.99028)
(-6.8028e-16 0.360195 -3.36494)
(2.15917e-14 -11.5872 26.9703)
(1.16358e-14 -16.9102 23.7601)
(-6.93265e-16 -11.6713 24.0847)
(5.11953e-15 -12.9942 21.4041)
(2.39763e-16 -10.9835 20.3568)
(1.84084e-15 -10.3982 18.6242)
(1.38236e-15 -9.35134 17.1781)
(-1.57721e-16 -8.47136 15.6595)
(6.93329e-16 -7.42499 13.9461)
(-1.86797e-16 -6.07564 11.6103)
(-9.04623e-16 -4.61736 8.76286)
(1.24475e-16 -4.02941 6.82554)
(-3.14377e-16 -4.5567 6.73838)
(-1.41808e-15 -4.70184 6.17041)
(-5.50895e-16 -3.59658 4.7415)
(2.14107e-14 -12.4094 27.3196)
(1.07063e-14 -17.1042 24.6784)
(-4.52887e-16 -12.1164 24.7989)
(4.60524e-15 -13.7012 22.0089)
(1.69029e-16 -11.3154 21.1499)
(2.21441e-15 -10.9939 19.3034)
(8.39155e-16 -9.79494 17.9873)
(-7.32285e-17 -8.95788 16.5163)
(8.56568e-16 -7.78067 14.7797)
(-2.87354e-16 -5.93039 11.8475)
(3.47095e-16 -3.09817 7.16435)
(3.99664e-15 -0.41609 2.69423)
(7.45722e-15 0.0891621 1.77688)
(5.61666e-15 -1.28122 3.40705)
(9.21677e-16 -2.06067 4.80923)
(2.01985e-14 -12.6425 26.8497)
(1.15171e-14 -17.6802 26.1504)
(-7.9857e-16 -12.6813 25.4599)
(4.27058e-15 -14.2655 22.659)
(2.12559e-16 -11.8153 21.8951)
(1.42869e-15 -11.6895 19.9945)
(1.09206e-15 -10.5008 18.7411)
(-2.48757e-16 -9.7911 17.317)
(1.18165e-16 -8.83752 15.8114)
(9.81746e-18 -7.40652 13.4984)
(-7.00592e-17 -4.91353 9.56754)
(1.31844e-15 -1.43788 4.25415)
(3.24588e-15 2.12159 -0.320339)
(-8.61784e-16 3.0673 -2.51378)
(-3.78057e-15 0.877579 -1.46276)
(1.86342e-14 -12.2719 25.0177)
(1.31029e-14 -17.8533 26.9984)
(-3.66725e-16 -13.2422 25.431)
(3.52068e-15 -14.264 22.5531)
(6.39281e-16 -12.1961 21.6443)
(8.75059e-16 -11.9646 19.7844)
(1.48184e-15 -10.9479 18.4256)
(1.56119e-16 -10.2573 16.9706)
(-3.48506e-16 -9.5075 15.5334)
(2.34723e-16 -8.57536 13.812)
(-2.80401e-16 -7.17516 11.3999)
(-3.21563e-16 -5.09082 8.10948)
(1.21939e-15 -2.35074 4.17654)
(1.91427e-15 0.911648 0.214782)
(-6.21551e-15 0.924574 -3.89099)
(1.80157e-14 -11.6266 22.7801)
(1.47931e-14 -17.5305 27.0959)
(1.35629e-15 -13.4993 25.0913)
(2.93662e-15 -13.8889 22.0566)
(1.34416e-15 -12.0999 20.9801)
(1.51088e-15 -11.7212 19.1688)
(1.80874e-15 -10.7641 17.7293)
(9.78013e-16 -10.0113 16.2222)
(8.64456e-16 -9.26209 14.7515)
(7.65964e-16 -8.45199 13.2263)
(4.42949e-16 -7.50056 11.4502)
(9.91505e-16 -6.18654 9.28581)
(1.53476e-15 -4.52792 6.47909)
(9.55162e-16 -1.93515 3.04277)
(-4.3327e-15 -0.025469 -2.4513)
(1.74091e-14 -11.0375 20.9779)
(1.6031e-14 -16.966 26.8286)
(2.66943e-15 -13.573 24.7751)
(2.84271e-15 -13.4584 21.6444)
(1.96608e-15 -11.8272 20.4151)
(1.52044e-15 -11.3418 18.6679)
(2.24479e-15 -10.4028 17.2071)
(1.7823e-15 -9.60182 15.6932)
(1.15798e-15 -8.81535 14.2223)
(1.38803e-15 -8.00514 12.7768)
(1.30627e-15 -7.17017 11.2412)
(7.31078e-16 -6.13182 9.54355)
(1.79125e-15 -4.92839 7.38276)
(1.1566e-15 -2.9116 4.55115)
(-5.52427e-15 -0.659603 -1.15788)
(1.71101e-14 -10.6372 19.8175)
(1.6822e-14 -16.3137 26.2779)
(3.8841e-15 -13.5482 24.4172)
(2.26129e-15 -13.1049 21.2933)
(2.11663e-15 -11.6103 19.9074)
(1.75526e-15 -11.0566 18.2483)
(1.57085e-15 -10.1918 16.825)
(1.68452e-15 -9.41698 15.3963)
(1.18372e-15 -8.65856 14.003)
(4.64709e-16 -7.87978 12.6411)
(9.05191e-16 -7.10301 11.2453)
(5.63873e-16 -6.20396 9.79753)
(1.2001e-16 -5.24715 8.06952)
(1.72129e-15 -3.65063 5.92236)
(-4.92107e-15 -1.30501 0.558209)
(1.60795e-14 -10.5376 19.353)
(1.74184e-14 -15.6012 25.4236)
(3.11558e-15 -13.3172 23.8704)
(1.31018e-15 -12.8099 20.8185)
(2.95398e-15 -11.3657 19.3838)
(-4.05293e-17 -10.8559 17.8026)
(-3.35996e-16 -10.0854 16.4941)
(1.89749e-15 -9.41089 15.1742)
(-8.04653e-16 -8.74092 13.8688)
(-1.87207e-15 -8.06066 12.6029)
(8.23732e-16 -7.40306 11.3838)
(-1.64766e-15 -6.7094 10.248)
(-2.1823e-15 -6.00601 9.04342)
(-2.92686e-15 -4.81586 7.61572)
(-7.64522e-15 -2.66402 3.15585)
(1.61565e-14 -10.8485 19.5028)
(1.65776e-14 -14.7145 24.2397)
(-2.74052e-16 -12.7949 22.9837)
(1.10114e-15 -12.3646 20.0176)
(3.53688e-15 -10.8493 18.7185)
(-3.63044e-15 -10.4537 17.0472)
(-1.40255e-15 -9.61032 15.7584)
(3.37466e-15 -9.05471 14.3905)
(-3.0101e-15 -8.47953 13.1522)
(-4.26575e-15 -7.98457 12.0629)
(-3.70721e-16 -7.57242 11.2157)
(-4.54058e-15 -7.2449 10.6845)
(-4.11073e-15 -6.91 10.3209)
(-5.04739e-15 -6.17599 9.6525)
(-1.05906e-14 -4.21692 6.0845)
(1.49517e-14 -11.4355 20.1167)
(1.43229e-14 -14.5722 24.1311)
(-2.81009e-15 -12.2746 22.1847)
(7.46926e-16 -12.0802 19.9166)
(2.16694e-15 -10.4187 18.4603)
(-3.02725e-15 -9.76844 16.4125)
(1.96364e-15 -8.58315 14.658)
(6.8539e-15 -8.04237 13.0882)
(-3.51092e-15 -7.57647 12.0323)
(-2.56896e-15 -7.37906 11.3394)
(-2.44133e-16 -7.40691 11.2375)
(-6.63389e-15 -7.67381 11.6861)
(-5.20215e-15 -7.86681 12.3354)
(-6.18402e-15 -7.73346 12.29)
(-1.1522e-14 -5.72751 9.38741)
(1.24013e-14 -10.8183 18.3492)
(1.40099e-14 -15.6065 25.3865)
(-3.76851e-15 -12.8481 22.471)
(-1.12889e-15 -11.3763 19.5137)
(-4.30177e-16 -9.47732 18.0948)
(-1.72354e-15 -8.36724 15.4719)
(8.74357e-16 -6.54527 13.1543)
(-3.9023e-15 -5.43091 11.129)
(-9.17336e-15 -4.59622 9.9205)
(-8.97338e-15 -4.32134 9.3845)
(-1.01908e-14 -4.62168 9.80375)
(-9.99545e-15 -5.58103 11.1329)
(-9.37051e-15 -6.8526 12.8409)
(-1.3968e-14 -7.57396 13.4529)
(-1.56065e-14 -5.31858 9.65125)
(7.43078e-15 -8.21642 14.3227)
(1.46874e-14 -16.8313 26.1057)
(7.94706e-15 -18.7656 28.0214)
(3.29726e-15 -18.2224 26.1917)
(1.20067e-15 -16.3308 23.5633)
(2.88001e-15 -14.3063 20.2515)
(1.07765e-14 -11.9545 17.2081)
(1.95878e-14 -9.90456 14.674)
(2.40447e-14 -8.06895 12.4994)
(2.24045e-14 -6.55174 10.5815)
(1.83758e-14 -5.26158 9.06689)
(1.52952e-14 -4.53636 8.15331)
(2.24288e-14 -4.62432 8.22476)
(2.14136e-14 -5.02568 8.34338)
(2.40854e-14 -2.89262 5.10242)
(-4.32335e-17 -0.0204597 -0.0386059)
(-5.73561e-16 0.135097 -0.479184)
(-1.47369e-16 0.166264 -0.152233)
(-3.69842e-17 0.200824 -0.0369924)
(-3.54878e-17 0.169049 -0.0174925)
(-4.52112e-16 0.328177 -0.361098)
(-1.04077e-16 0.332918 -0.174958)
(2.98825e-16 0.375784 -0.0610456)
(-2.32232e-16 0.337747 -0.000715775)
(2.63958e-16 0.476067 -0.220161)
(1.069e-15 0.497207 -0.108186)
(1.93175e-15 0.49603 -0.0438069)
(2.97479e-15 0.658141 -0.150183)
(2.92342e-15 0.590184 -0.0462645)
(2.58503e-15 0.659131 0.00148103)
(2.01377e-15 0.596249 0.0363873)
(1.78627e-15 0.768112 0.00208384)
(1.00495e-15 0.697215 0.0397282)
(7.49594e-16 0.708673 0.0424638)
(6.4362e-16 0.873377 0.0615872)
(4.21328e-16 0.727528 0.0821462)
(2.73572e-16 0.812088 0.078483)
(2.62867e-16 0.731321 0.0698502)
(3.5971e-16 0.946834 0.13637)
(2.56578e-16 0.751787 0.112935)
(2.44585e-16 0.828589 0.082334)
(-6.63949e-17 0.761272 0.0550156)
(2.41011e-16 0.926025 0.142264)
(4.83328e-16 0.763744 0.114175)
(2.47193e-16 0.794198 0.0769016)
(-4.13653e-17 0.915794 0.177819)
(-5.77611e-16 0.719438 0.115609)
(-7.67657e-16 0.801401 0.0707499)
(-8.07243e-16 0.737598 0.0295057)
(-1.12865e-15 0.867566 0.136761)
(-7.0477e-16 0.68798 0.0763679)
(-5.41368e-16 0.7261 0.0324081)
(-5.91512e-16 0.802021 0.134937)
(-2.80233e-16 0.611539 0.051141)
(-2.26381e-16 0.687401 -0.0025912)
(-8.8638e-17 0.636412 -0.0460162)
(5.34741e-17 0.739274 0.0342173)
(1.46906e-16 0.548517 -0.0183136)
(1.62672e-16 0.614197 -0.057989)
(1.38468e-16 0.581791 -0.096045)
(2.77231e-16 0.638037 -0.0376804)
(7.13929e-17 0.492108 -0.100612)
(-5.34444e-17 0.537942 -0.123495)
(-1.99286e-16 0.546575 -0.0848844)
(1.02718e-16 0.414953 -0.137596)
(1.13833e-16 0.476839 -0.201194)
(1.32336e-16 0.462065 -0.257918)
(2.19019e-16 0.489479 -0.322192)
(2.19235e-16 0.365368 -0.3752)
(2.15822e-16 0.431891 -0.407999)
(5.80166e-16 0.438331 -0.403787)
(6.35878e-16 0.43118 -0.468699)
(9.08211e-16 0.354862 -0.506538)
(2.80175e-16 0.420078 -0.447104)
(2.30668e-15 0.364424 -0.707446)
(3.06547e-15 0.347421 -0.678188)
(2.81971e-15 0.413501 -0.644689)
(2.23442e-15 0.448823 -0.601558)
(5.28029e-15 0.317334 -0.872626)
(4.81996e-15 0.12802 -0.850975)
(3.40236e-15 0.275577 -0.698769)
(1.61332e-14 -0.0346264 -2.10486)
(1.00331e-14 -0.437951 -1.94332)
(7.13243e-15 -0.138461 -1.53742)
(4.62465e-15 -0.151708 -1.01289)
(-3.34238e-14 -0.525395 3.14233)
(-4.5658e-14 -1.38262 4.6726)
(-4.22115e-14 -1.60163 4.33249)
(-4.23066e-14 -1.74675 4.66903)
(-6.06903e-14 -3.05584 7.86508)
(-4.87021e-14 -3.53968 7.02506)
(-4.70096e-14 -3.68666 7.24526)
(-6.47873e-14 -5.69061 10.8506)
(-4.7965e-14 -5.73438 8.54369)
(-4.6252e-14 -6.15487 8.87731)
(-4.67108e-14 -6.65796 10.4029)
(-4.65313e-14 -6.60092 10.2909)
(-4.88912e-14 -6.72488 10.6292)
(-7.55803e-14 -8.0885 13.118)
(-6.11973e-14 -7.42529 11.6773)
(-6.56147e-14 -7.64648 12.1258)
(-6.72143e-14 -7.61164 12.103)
(-6.9539e-14 -7.67438 12.1093)
(-7.187e-14 -7.71167 12.1313)
(-7.39309e-14 -7.77519 12.1868)
(-7.55675e-14 -7.82801 12.3143)
(-7.64737e-14 -7.84533 12.4395)
(-9.3961e-14 -8.61477 14.0269)
(-7.39635e-14 -8.4955 12.8916)
(-6.84276e-14 -8.61521 12.9204)
(-5.83697e-14 -8.60264 12.8986)
(-4.93046e-14 -8.71349 13.0363)
(-4.07548e-14 -8.69241 12.835)
(-3.66578e-14 -8.78568 12.803)
(-3.746e-14 -8.805 12.7659)
(-4.14235e-14 -8.8257 12.7929)
(-6.24578e-14 -9.4939 14.4919)
(-5.12289e-14 -9.48813 13.6388)
(-5.55376e-14 -9.546 13.7067)
(-5.85323e-14 -9.5872 13.7181)
(-6.06578e-14 -9.62786 13.7844)
(-6.10563e-14 -9.65523 13.9635)
(-5.99265e-14 -9.73398 14.1963)
(-5.82307e-14 -9.74479 14.2573)
(-5.67628e-14 -9.77394 14.389)
(-5.75025e-14 -9.82255 14.5058)
(-7.80416e-14 -10.1841 15.8577)
(-6.60098e-14 -10.3188 15.4294)
(-7.1145e-14 -10.3333 15.6939)
(-7.55117e-14 -10.3573 15.9577)
(-7.96159e-14 -10.3984 16.2973)
(-8.2167e-14 -10.4172 16.72)
(-8.29418e-14 -10.5046 17.3805)
(-8.09546e-14 -10.5051 17.8912)
(-7.72128e-14 -10.645 18.2961)
(-8.00623e-14 -10.4262 19.2378)
(-6.24336e-14 -10.6474 18.9248)
(-5.57107e-14 -10.6332 19.6819)
(-4.80368e-14 -10.6873 20.3654)
(-4.04636e-14 -10.6583 20.8345)
(-3.36766e-14 -10.7316 21.3614)
(-2.8202e-14 -10.7663 21.8444)
(-2.41898e-14 -10.7497 22.3118)
(-2.24086e-14 -11.0472 22.967)
(-1.83467e-14 -9.294 21.8084)
(-1.33826e-14 -10.1618 21.7822)
(-9.57197e-15 -10.1087 21.8567)
(-6.10326e-15 -10.1008 21.8424)
(-2.67424e-15 -10.1502 22.0746)
(3.59389e-16 -10.1132 21.934)
(2.8891e-15 -10.0424 21.6857)
(4.72735e-15 -10.0401 21.4333)
(5.86552e-15 -10.0952 21.0938)
(7.95992e-15 -7.42724 17.8343)
(7.2668e-15 -8.51882 19.2548)
(7.25689e-15 -8.26732 18.7488)
(6.9335e-15 -8.29544 18.4607)
(6.97872e-15 -8.18615 18.009)
(7.15343e-15 -8.11692 17.5088)
(7.94768e-15 -8.02358 17.0645)
(7.51762e-15 -7.83848 16.165)
(7.42181e-15 -7.69994 15.1907)
(6.98751e-15 -7.52884 13.9864)
(5.04387e-15 -3.86015 7.3358)
(6.25602e-15 -5.65672 10.6925)
(5.61598e-15 -5.12978 9.03974)
(4.91534e-15 -5.21609 8.24596)
(4.23571e-15 -4.86937 7.01228)
(3.50833e-15 -4.80095 5.72227)
(2.43148e-15 -4.58419 3.83702)
(1.55409e-15 -4.16332 2.31863)
(1.69448e-15 -4.17473 2.49422)
(2.10255e-16 -2.93214 -0.619098)
(1.15083e-15 -3.39616 1.7114)
(8.11732e-16 -3.25981 0.985604)
(-5.86778e-16 -1.99169 -1.80801)
(1.37346e-16 -3.94679 -0.734972)
(-5.10116e-17 -2.85828 -0.822633)
(2.33547e-17 -2.64346 -0.501506)
(-1.80601e-17 -3.37363 -0.725071)
(-5.29922e-18 -2.28673 -0.412765)
(4.32318e-17 -3.08824 -0.619308)
(3.17729e-17 -2.77503 -0.431861)
(-1.72606e-17 -2.24359 -0.298459)
(4.31389e-17 -2.84175 -0.437142)
(9.36689e-17 -2.58983 -0.31142)
(9.68146e-17 -2.24813 -0.208599)
(1.49647e-16 -3.01457 -0.291524)
(1.12536e-16 -2.04701 -0.162441)
(1.66415e-16 -2.77863 -0.239607)
(6.58554e-17 -2.47504 -0.177206)
(2.18838e-17 -2.1829 -0.115375)
(5.33068e-18 -2.93544 -0.165549)
(-1.10163e-16 -1.98813 -0.0870118)
(-1.80513e-16 -2.76278 -0.127442)
(-2.03358e-16 -2.54809 -0.106209)
(-1.78981e-16 -2.06139 -0.0640958)
(-2.7791e-16 -2.65336 -0.10474)
(-2.75091e-16 -2.45325 -0.0912366)
(-2.91897e-16 -2.13566 -0.0516135)
(-4.21225e-16 -2.8974 -0.0827103)
(-3.39051e-16 -1.97071 -0.0411859)
(-5.35197e-16 -2.6923 -0.0639291)
(-4.34163e-16 -2.40767 -0.0694564)
(-2.76738e-16 -2.12172 -0.0387218)
(-2.41596e-16 -2.86619 -0.0670139)
(1.513e-17 -1.93899 -0.0325197)
(2.5774e-16 -2.69819 -0.0518553)
(5.76842e-16 -2.48338 -0.0666916)
(5.36196e-16 -2.00583 -0.0378603)
(9.67918e-16 -2.58199 -0.0733606)
(9.69411e-16 -2.38103 -0.0799977)
(7.40987e-16 -2.06766 -0.0461176)
(9.90088e-16 -2.80689 -0.078168)
(6.54496e-16 -1.90346 -0.0435925)
(8.79308e-16 -2.60198 -0.0691594)
(6.3256e-16 -2.32525 -0.0801848)
(5.33924e-16 -2.04451 -0.0489875)
(6.93516e-16 -2.7661 -0.0796253)
(5.19126e-16 -1.86817 -0.0435099)
(9.12165e-16 -2.60336 -0.0645553)
(1.03467e-15 -2.40577 -0.0763859)
(9.35769e-16 -1.93958 -0.0462757)
(1.5502e-15 -2.50437 -0.0791129)
(1.50474e-15 -2.32374 -0.0809389)
(1.23676e-15 -2.01705 -0.0457671)
(1.66741e-15 -2.74826 -0.0705805)
(1.17688e-15 -1.86598 -0.0353879)
(1.58759e-15 -2.55815 -0.0487473)
(1.12087e-15 -2.30634 -0.0557083)
(8.24266e-16 -2.02889 -0.0261922)
(1.03578e-15 -2.75653 -0.04147)
(6.51314e-16 -1.86915 -0.0116985)
(9.81839e-16 -2.61096 -0.0100581)
(8.21729e-16 -2.43599 -0.0222961)
(7.02992e-16 -1.96876 0.00168674)
(1.05201e-15 -2.55212 -0.00266676)
(9.90386e-16 -2.38955 -0.00630577)
(9.05014e-16 -2.08442 0.0208521)
(1.31755e-15 -2.85197 0.0275748)
(1.02823e-15 -1.95609 0.0448659)
(1.55184e-15 -2.68758 0.0817239)
(1.37809e-15 -2.45766 0.0730849)
(1.12052e-15 -2.17829 0.0895659)
(1.58675e-15 -2.97584 0.129833)
(1.19928e-15 -2.05012 0.128379)
(1.85242e-15 -2.87327 0.216116)
(1.68497e-15 -2.73153 0.196275)
(1.47235e-15 -2.23403 0.195746)
(2.1839e-15 -2.91779 0.30137)
(1.94974e-15 -2.78293 0.283561)
(1.64137e-15 -2.46003 0.273141)
(2.31859e-15 -3.41018 0.395618)
(1.78879e-15 -2.42311 0.338859)
(2.81509e-15 -3.20983 0.576706)
(4.7548e-55 0.138042 0.21045)
(-3.82509e-54 -0.0929471 0.176039)
(-1.45003e-53 -0.292629 0.154427)
(-3.27592e-53 -0.508039 0.127073)
(-5.91702e-53 -0.716075 0.092818)
(-8.85715e-53 -0.935364 0.0658061)
(-1.19207e-52 -1.1601 0.0339726)
(-1.50281e-52 -1.37931 -0.00273923)
(-1.62683e-52 -1.57446 -0.0189053)
(-1.47405e-52 -1.77021 -0.0161281)
(-1.15105e-52 -1.93822 -0.0450328)
(-6.81009e-53 -2.03113 -0.0683481)
(-3.71166e-53 -2.14472 -0.0915972)
(-1.63604e-53 -2.2254 -0.11967)
(-6.61184e-54 -2.32364 -0.108599)
(-2.59161e-54 -2.3532 -0.166721)
(-4.80153e-55 -2.27358 -0.116753)
(-2.32663e-56 -2.23656 -0.0896161)
(1.93026e-57 -2.13449 -0.0771185)
(-9.9542e-57 -2.0034 -0.0686716)
(9.8331e-55 -1.80758 -0.0515878)
(4.58992e-51 -1.60339 -0.0339828)
(-6.5076e-49 -1.26367 -0.0210672)
(-2.43339e-46 -0.955985 0.00603226)
(-7.87925e-43 -0.0242319 -0.0496787)
(1.05586e-39 0.98622 -0.203131)
(-4.35811e-39 1.3855 -0.0589265)
(-2.465e-37 1.09417 0.27281)
(2.05018e-36 0.872262 0.126558)
(5.44935e-35 0.715931 0.188755)
(3.97262e-35 0.107607 0.034833)
(4.74109e-34 -0.308732 0.00897163)
(-8.36983e-32 -0.639358 0.0075514)
(-1.728e-30 -0.792553 0.0101512)
(4.62453e-28 -0.959333 0.0124511)
(-2.89098e-27 -1.03199 0.016972)
(-1.11598e-24 -1.12466 0.0229167)
(3.7852e-23 -1.18691 0.0325157)
(1.13808e-21 -1.20302 0.0478746)
(-6.32009e-20 -1.1089 0.0842955)
(-5.80222e-19 -1.02974 0.190285)
(-1.60207e-18 -1.11459 0.382459)
(-2.21484e-18 -1.10253 0.44184)
(-2.33996e-18 -1.00015 0.495722)
(-1.75576e-19 -0.944652 0.548963)
(-4.97909e-19 -0.854964 0.604076)
(-8.25062e-19 -0.660386 0.639207)
(-1.00446e-18 -0.345712 0.665562)
(-1.16119e-18 0.100212 0.685336)
(-1.48091e-18 0.560796 0.691338)
(-1.57823e-18 0.957959 0.677445)
(-1.6252e-18 1.30946 0.647984)
(-2.1568e-18 1.62159 0.610927)
(-3.74535e-18 1.89628 0.57115)
(-7.62723e-18 2.1351 0.532464)
(-1.10029e-17 2.33953 0.495206)
(-1.5286e-17 2.51217 0.459546)
(-1.93457e-17 2.65432 0.425663)
(-2.23405e-17 2.76654 0.391374)
(-3.08463e-17 2.84989 0.355101)
(-3.93337e-17 2.90422 0.315113)
(-4.37784e-17 2.92925 0.267237)
(-4.89483e-17 2.92448 0.206894)
(-5.4624e-17 2.88725 0.129324)
(-5.88358e-17 2.81068 0.0298302)
(-5.45722e-17 2.68732 -0.0942795)
(-4.09029e-17 2.50325 -0.241492)
(-1.89656e-17 2.24255 -0.405753)
(5.42679e-18 1.8845 -0.567637)
(2.94783e-17 1.43625 -0.705938)
(5.81347e-17 0.88957 -0.75951)
(1.32199e-16 0.278636 -0.721314)
(2.60288e-16 -0.351893 -0.502117)
(1.20141e-16 -1.08869 -0.384617)
(1.96001e-17 -1.88664 -0.221496)
(1.10582e-18 -2.18651 -0.227776)
(-1.6305e-19 -2.58075 0.0378273)
(-7.33529e-18 -2.65016 -0.0594912)
(5.34423e-16 -2.85372 0.681898)
(9.40627e-55 0.149027 0.210733)
(-5.69413e-54 -0.0592056 0.163499)
(-2.19443e-53 -0.286429 0.127644)
(-4.00391e-53 -0.534714 0.0879834)
(-5.8608e-53 -0.764448 0.0543041)
(-8.27587e-53 -0.995832 0.0338176)
(-1.15613e-52 -1.22413 0.011546)
(-1.50326e-52 -1.44713 -0.0177817)
(-1.63629e-52 -1.64603 -0.0290445)
(-1.47802e-52 -1.83837 -0.0221318)
(-1.1527e-52 -1.99902 -0.0455022)
(-6.8253e-53 -2.08603 -0.0646764)
(-3.71986e-53 -2.19204 -0.0847065)
(-1.64381e-53 -2.26736 -0.1109)
(-6.64635e-54 -2.35442 -0.0984945)
(-2.60526e-54 -2.37866 -0.153825)
(-4.86911e-55 -2.29748 -0.104948)
(-2.28748e-56 -2.24891 -0.0793516)
(4.1634e-56 -2.13748 -0.067007)
(1.90398e-54 -1.99919 -0.0594752)
(1.88845e-51 -1.79735 -0.0427972)
(2.6939e-49 -1.58372 -0.0263672)
(1.48729e-46 -1.23555 -0.0114722)
(-9.75995e-45 -0.900534 0.0153027)
(-1.13884e-41 0.181497 -0.11006)
(2.68759e-39 0.952442 -0.242436)
(-2.49275e-39 1.31641 -0.0491409)
(-4.73309e-37 1.0614 0.222679)
(2.50962e-36 0.877619 0.152139)
(1.29955e-34 0.687343 0.239236)
(4.79467e-34 0.249157 0.104033)
(-5.21172e-33 -0.230199 0.0210514)
(-2.19196e-31 -0.584336 0.0108403)
(9.85867e-30 -0.74595 0.00901565)
(7.25838e-28 -0.920893 0.0088853)
(-4.4685e-26 -0.999889 0.0120573)
(-1.49814e-24 -1.09869 0.0175211)
(1.13286e-22 -1.16726 0.0263101)
(1.52914e-21 -1.19106 0.04166)
(-1.02299e-19 -1.10963 0.0775842)
(-8.9529e-19 -1.05492 0.18409)
(-1.88103e-18 -1.14451 0.372821)
(-2.90963e-18 -1.12126 0.432818)
(-2.60152e-18 -1.02129 0.493666)
(-3.84875e-19 -0.969091 0.557112)
(-5.10006e-19 -0.878106 0.628097)
(-8.69526e-19 -0.673987 0.683744)
(-9.83473e-19 -0.332707 0.726295)
(-1.14175e-18 0.1258 0.753695)
(-1.46565e-18 0.579312 0.765741)
(-1.54027e-18 0.976633 0.755976)
(-1.59442e-18 1.32863 0.727615)
(-2.18066e-18 1.64022 0.688867)
(-5.11664e-18 1.91346 0.645108)
(-8.42427e-18 2.15031 0.600949)
(-1.19301e-17 2.3528 0.557218)
(-1.47489e-17 2.52354 0.514334)
(-1.84649e-17 2.66424 0.47264)
(-2.11771e-17 2.77575 0.430192)
(-2.84441e-17 2.85913 0.385112)
(-3.6437e-17 2.91462 0.336059)
(-4.13026e-17 2.94243 0.278821)
(-4.69603e-17 2.94214 0.208432)
(-5.39035e-17 2.91114 0.119629)
(-5.96151e-17 2.84221 0.00743989)
(-6.03791e-17 2.727 -0.131147)
(-4.89374e-17 2.55016 -0.294753)
(-3.04628e-17 2.29284 -0.47725)
(-1.09765e-17 1.93199 -0.657151)
(1.2203e-17 1.46833 -0.810935)
(4.07795e-17 0.895302 -0.871329)
(9.74045e-17 0.24526 -0.819163)
(2.54574e-16 -0.39734 -0.542997)
(1.47483e-16 -1.12619 -0.405037)
(2.95341e-17 -1.917 -0.233374)
(2.19175e-18 -2.23138 -0.232084)
(-1.02792e-19 -2.61798 0.0389881)
(-6.89051e-18 -2.72483 -0.0536545)
(5.68011e-16 -2.94635 0.606375)
(2.02166e-54 0.149702 0.190259)
(-1.11391e-53 -0.0666945 0.130704)
(-4.42259e-53 -0.290758 0.092612)
(-7.48481e-53 -0.521485 0.0459488)
(-8.45326e-53 -0.743117 0.00745434)
(-8.42369e-53 -0.972139 -0.0148177)
(-1.04989e-52 -1.19897 -0.0283078)
(-1.43011e-52 -1.42345 -0.045948)
(-1.62776e-52 -1.62683 -0.047756)
(-1.48972e-52 -1.81865 -0.0340718)
(-1.16247e-52 -1.97723 -0.0496029)
(-6.88944e-53 -2.06535 -0.0624957)
(-3.73637e-53 -2.17276 -0.0778274)
(-1.65079e-53 -2.25376 -0.100508)
(-6.68051e-54 -2.34004 -0.0853757)
(-2.62101e-54 -2.37094 -0.13687)
(-4.94385e-55 -2.30123 -0.0881379)
(-1.73827e-56 -2.25069 -0.0632919)
(-1.03999e-54 -2.13893 -0.0508992)
(2.6018e-52 -2.00295 -0.0446237)
(7.85444e-51 -1.80437 -0.0281532)
(-1.1588e-47 -1.59204 -0.0132722)
(3.33535e-45 -1.24884 0.00452156)
(2.00576e-43 -0.908828 0.0292488)
(-4.30417e-41 0.188451 -0.130978)
(6.85269e-39 0.966519 -0.229916)
(3.28397e-39 1.28218 -0.0350259)
(-7.50793e-37 1.04554 0.216228)
(1.83632e-36 0.882541 0.15848)
(2.30306e-34 0.704609 0.240731)
(1.45729e-33 0.223826 0.14311)
(-1.94606e-32 -0.251588 0.0329226)
(-3.46434e-31 -0.599146 0.0134954)
(1.74245e-29 -0.759729 0.00636333)
(6.96848e-28 -0.932376 0.00287016)
(-7.19307e-26 -1.01066 0.00389399)
(-1.50279e-24 -1.10816 0.00824761)
(2.10323e-22 -1.17628 0.0154471)
(1.59952e-21 -1.20193 0.0300512)
(-1.88574e-19 -1.13016 0.0645329)
(-1.16105e-18 -1.09141 0.171067)
(-2.25418e-18 -1.17168 0.355338)
(-3.50399e-18 -1.13178 0.420131)
(-2.99163e-18 -1.03119 0.494821)
(-8.02805e-19 -0.980044 0.576051)
(-5.63011e-19 -0.889717 0.664434)
(-9.93623e-19 -0.692466 0.73007)
(-9.72721e-19 -0.368097 0.774731)
(-1.12754e-18 0.0986086 0.805373)
(-1.42546e-18 0.5643 0.821349)
(-1.49883e-18 0.969614 0.81403)
(-1.57733e-18 1.32678 0.786798)
(-2.23704e-18 1.64167 0.747654)
(-6.21761e-18 1.91707 0.701898)
(-9.18016e-18 2.15549 0.654344)
(-1.24948e-17 2.35929 0.606208)
(-1.56302e-17 2.53117 0.558127)
(-1.92954e-17 2.67297 0.510527)
(-2.23036e-17 2.78574 0.461768)
(-3.01415e-17 2.87042 0.409846)
(-3.82465e-17 2.92742 0.353488)
(-4.33464e-17 2.95722 0.288704)
(-4.96907e-17 2.95956 0.210459)
(-5.83992e-17 2.9318 0.113226)
(-6.36157e-17 2.86657 -0.00805961)
(-6.44027e-17 2.75496 -0.156494)
(-5.30608e-17 2.58099 -0.330952)
(-3.51634e-17 2.32419 -0.52553)
(-1.55366e-17 1.95995 -0.717911)
(6.90388e-18 1.48501 -0.882871)
(3.41563e-17 0.892966 -0.953194)
(9.21008e-17 0.208174 -0.900971)
(2.47026e-16 -0.442644 -0.604242)
(1.75947e-16 -1.1591 -0.431969)
(4.19895e-17 -1.93312 -0.248461)
(3.78658e-18 -2.25777 -0.237725)
(-1.45749e-20 -2.63499 0.0370212)
(-4.89355e-18 -2.78525 -0.0501143)
(5.75193e-16 -2.96939 0.504596)
(4.24235e-54 0.157438 0.173728)
(-2.21659e-53 -0.0492891 0.103652)
(-9.2911e-53 -0.275538 0.0600509)
(-1.6216e-52 -0.505721 0.00619446)
(-1.7494e-52 -0.725981 -0.0371759)
(-1.30614e-52 -0.953498 -0.0669806)
(-1.08727e-52 -1.17965 -0.0801349)
(-1.29211e-52 -1.40446 -0.0877556)
(-1.53712e-52 -1.6099 -0.0773531)
(-1.47741e-52 -1.79998 -0.0527806)
(-1.17079e-52 -1.95672 -0.0581879)
(-6.98653e-53 -2.04597 -0.0627425)
(-3.78606e-53 -2.15387 -0.0719655)
(-1.66302e-53 -2.23942 -0.0901648)
(-6.70513e-54 -2.32508 -0.0711652)
(-2.63359e-54 -2.36151 -0.117989)
(-5.01267e-55 -2.30166 -0.0684904)
(-2.08524e-55 -2.25017 -0.0435731)
(4.63613e-53 -2.13885 -0.0307749)
(8.34573e-51 -2.00539 -0.0258517)
(-1.09009e-48 -1.81028 -0.00939854)
(1.88282e-46 -1.59994 0.00346577)
(-2.88938e-45 -1.26224 0.0246704)
(-5.04232e-42 -0.91708 0.0476)
(-8.62725e-41 0.244732 -0.11165)
(1.73369e-38 0.950472 -0.206258)
(2.04919e-38 1.23479 -0.0122093)
(-9.28645e-37 1.02031 0.228609)
(1.28583e-37 0.88441 0.181735)
(2.87905e-34 0.7142 0.250445)
(2.62046e-33 0.259964 0.160746)
(-2.65978e-32 -0.263984 0.0425146)
(-4.08563e-31 -0.611398 0.0156174)
(1.23512e-29 -0.772648 0.00275286)
(5.49887e-28 -0.94375 -0.00475149)
(-5.3521e-26 -1.02152 -0.00658558)
(-1.24778e-24 -1.11766 -0.00402055)
(2.095e-22 -1.18515 0.000938599)
(1.5271e-21 -1.21209 0.014195)
(-2.69776e-19 -1.14803 0.0467637)
(-1.37395e-18 -1.12104 0.151948)
(-2.63453e-18 -1.19532 0.330563)
(-3.83797e-18 -1.14648 0.406412)
(-3.19708e-18 -1.04753 0.49748)
(-1.00462e-18 -0.996399 0.599073)
(-6.03833e-19 -0.901092 0.700826)
(-1.00211e-18 -0.695407 0.771085)
(-9.44266e-19 -0.362395 0.821051)
(-1.08818e-18 0.103578 0.860113)
(-1.36425e-18 0.56942 0.881254)
(-1.46857e-18 0.977599 0.876361)
(-1.58566e-18 1.33715 0.849788)
(-2.39989e-18 1.65328 0.809571)
(-6.80799e-18 1.92894 0.761182)
(-9.70189e-18 2.16705 0.709698)
(-1.32287e-17 2.37037 0.656755)
(-1.6731e-17 2.54169 0.603233)
(-1.99474e-17 2.68313 0.549618)
(-2.33091e-17 2.79599 0.494486)
(-3.2109e-17 2.88122 0.435828)
(-3.99052e-17 2.93945 0.372293)
(-4.44575e-17 2.97154 0.300063)
(-5.3025e-17 2.97744 0.214033)
(-6.18371e-17 2.95448 0.108336)
(-6.9369e-17 2.89504 -0.0223559)
(-6.67675e-17 2.78956 -0.181478)
(-5.71156e-17 2.62102 -0.368308)
(-3.81737e-17 2.36667 -0.577137)
(-1.67542e-17 1.99974 -0.784796)
(4.94919e-18 1.51206 -0.963784)
(3.10819e-17 0.897572 -1.04533)
(8.70441e-17 0.174475 -0.992386)
(2.36352e-16 -0.491182 -0.67991)
(2.00876e-16 -1.19552 -0.463225)
(5.5339e-17 -1.95059 -0.264275)
(5.84528e-18 -2.2813 -0.243662)
(1.03691e-19 -2.64957 0.0333825)
(-3.77035e-18 -2.82776 -0.0457262)
(5.94894e-16 -2.99736 0.510201)
(8.73711e-54 0.164486 0.157532)
(-4.41535e-53 -0.0364674 0.0784766)
(-1.95391e-52 -0.26477 0.0288246)
(-3.58129e-52 -0.494444 -0.0321632)
(-4.01973e-52 -0.717436 -0.0799021)
(-2.85198e-52 -0.950036 -0.118737)
(-1.72465e-52 -1.18041 -0.137907)
(-1.32338e-52 -1.40867 -0.141668)
(-1.39689e-52 -1.61736 -0.121883)
(-1.39649e-52 -1.80576 -0.0828232)
(-1.14323e-52 -1.95974 -0.0741067)
(-6.93547e-53 -2.04839 -0.0677102)
(-3.84873e-53 -2.15472 -0.0677863)
(-1.69525e-53 -2.24243 -0.0801703)
(-6.75815e-54 -2.32537 -0.0561469)
(-2.63886e-54 -2.36423 -0.097184)
(-5.17084e-55 -2.3105 -0.0458709)
(7.20254e-54 -2.25544 -0.0199713)
(1.80515e-51 -2.14181 -0.00616603)
(-1.10597e-49 -2.00805 -0.00242838)
(1.74089e-47 -1.8137 0.0143791)
(6.29997e-45 -1.60229 0.0248608)
(-1.78259e-43 -1.26671 0.0500393)
(-3.49593e-41 -0.911009 0.0711244)
(2.67547e-41 0.363445 -0.0772025)
(4.32674e-38 0.922376 -0.165504)
(6.35142e-38 1.19895 0.0253574)
(-9.0267e-37 1.00315 0.241339)
(-1.33497e-36 0.878836 0.203979)
(2.79108e-34 0.710185 0.259226)
(3.21568e-33 0.337166 0.18183)
(-2.58156e-32 -0.246115 0.0525047)
(-3.82977e-31 -0.601032 0.0173223)
(7.05092e-30 -0.76633 -0.00219793)
(4.15874e-28 -0.939178 -0.0145003)
(-3.2684e-26 -1.01892 -0.0200326)
(-1.06156e-24 -1.1161 -0.0199991)
(1.49004e-22 -1.18524 -0.0179038)
(1.37869e-21 -1.21545 -0.00640975)
(-3.35043e-19 -1.16045 0.0237839)
(-1.56565e-18 -1.14771 0.125994)
(-2.98912e-18 -1.22115 0.299893)
(-4.0111e-18 -1.16553 0.390569)
(-3.08265e-18 -1.06962 0.498953)
(-8.71131e-19 -1.0201 0.620946)
(-5.74317e-19 -0.920862 0.733953)
(-8.86012e-19 -0.710539 0.809794)
(-9.14129e-19 -0.375902 0.867461)
(-1.04182e-18 0.0923262 0.914702)
(-1.29251e-18 0.56464 0.940947)
(-1.44241e-18 0.978566 0.938518)
(-1.6081e-18 1.34233 0.912579)
(-2.78051e-18 1.66117 0.871256)
(-7.54465e-18 1.9384 0.820241)
(-1.02644e-17 2.17738 0.76485)
(-1.44929e-17 2.38125 0.70714)
(-1.75157e-17 2.55296 0.648262)
(-2.08142e-17 2.6948 0.58876)
(-2.5779e-17 2.80837 0.527387)
(-3.3716e-17 2.89457 0.46223)
(-4.11539e-17 2.95423 0.3918)
(-4.60126e-17 2.98855 0.312413)
(-5.57376e-17 2.99773 0.218953)
(-6.4752e-17 2.97913 0.105237)
(-7.33675e-17 2.9249 -0.0344282)
(-6.96252e-17 2.82491 -0.203936)
(-6.05698e-17 2.66126 -0.403072)
(-4.34277e-17 2.40895 -0.626458)
(-1.81385e-17 2.03894 -0.850242)
(3.46042e-18 1.53827 -1.0445)
(2.85893e-17 0.900271 -1.13853)
(8.30644e-17 0.136214 -1.08526)
(2.22677e-16 -0.547211 -0.765112)
(2.21367e-16 -1.24037 -0.500523)
(6.89017e-17 -1.97523 -0.281172)
(8.33774e-18 -2.31124 -0.249964)
(2.59332e-19 -2.67045 0.0286495)
(-1.50617e-18 -2.86985 -0.0451629)
(5.84179e-16 -3.02194 0.416512)
(1.77349e-53 0.172686 0.143014)
(-8.87056e-53 -0.020767 0.0561191)
(-4.12003e-52 -0.252708 -0.00155623)
(-7.91212e-52 -0.483275 -0.0696826)
(-9.38546e-52 -0.708609 -0.121198)
(-6.91982e-52 -0.945826 -0.169302)
(-3.84134e-52 -1.18133 -0.196216)
(-2.00884e-52 -1.41492 -0.20197)
(-1.40009e-52 -1.62866 -0.179375)
(-1.25535e-52 -1.81646 -0.127469)
(-1.05092e-52 -1.9671 -0.101141)
(-6.53415e-53 -2.05412 -0.0813723)
(-3.82144e-53 -2.15827 -0.0678135)
(-1.73615e-53 -2.24761 -0.0716605)
(-6.87517e-54 -2.32751 -0.0410016)
(-2.65815e-54 -2.36841 -0.0751436)
(-1.03471e-54 -2.32029 -0.0208613)
(2.64725e-52 -2.26102 0.0072417)
(-4.80264e-50 -2.14448 0.0228299)
(-7.15496e-48 -2.01015 0.0258582)
(4.67301e-46 -1.81643 0.0434595)
(5.54804e-44 -1.60398 0.0513367)
(-1.40739e-42 -1.27114 0.0808706)
(-1.37473e-40 -0.906667 0.099917)
(1.79389e-39 0.536814 -0.0393348)
(1.05869e-37 0.898822 -0.107527)
(1.59912e-37 1.15677 0.0750511)
(-7.242e-37 0.985404 0.266805)
(-1.86997e-36 0.881784 0.227206)
(2.07368e-34 0.709866 0.259476)
(2.55408e-33 0.372207 0.200761)
(-2.04275e-32 -0.23023 0.0623775)
(-2.77938e-31 -0.590098 0.0182287)
(3.55804e-30 -0.759204 -0.00884785)
(3.06113e-28 -0.933588 -0.0267487)