/*--------------------------------*- C++ -*----------------------------------*\
| =========                 |                                                 |
| \\      /  F ield         | OpenFOAM: The Open Source CFD Toolbox           |
|  \\    /   O peration     | Version:  4.1                                   |
|   \\  /    A nd           | Web:      www.OpenFOAM.org                      |
|    \\/     M anipulation  |                                                 |
\*---------------------------------------------------------------------------*/
FoamFile
{
    version     2.0;
    format      ascii;
    class       volScalarField;
    location    "10";
    object      p;
}
// * * * * * * * * * * * * * * * * * * * * * * * * * * * * * * * * * * * * * //

dimensions      [0 2 -2 0 0 0 0];

internalField   nonuniform List<scalar> 
6785
(
588.397
512.707
464.887
412.613
366.019
321.469
279.776
240.302
202.955
167.576
133.332
100.462
72.808
43.1239
2.72444
-4.15931
-22.4019
-13.5563
-20.1425
-20.2611
-22.6646
-23.6221
-24.2378
-23.9045
-22.5845
-20.348
-17.0348
-11.6486
-6.63146
-5.11122
-10.0542
-15.9541
-7.43179
-12.5598
-9.9839
-11.7006
-11.9395
-13.187
-14.3819
-15.9262
-17.5959
-18.8922
-19.3955
-19.7656
-19.2471
-2.91942
-6.52795
-3.80279
-9.46799
-8.70737
-12.3341
-13.7516
-16.1143
-17.9749
-19.8186
-21.2637
-22.0514
-21.081
-20.0547
-17.8926
-1.72158
-3.15975
0.453126
-2.01659
1.52179
0.989801
2.95575
4.05486
5.64875
7.28139
9.12484
10.898
13.1197
14.6308
17.1332
21.5289
21.8742
25.4278
24.3391
27.8101
27.9865
30.0729
31.3439
32.8522
34.3
35.7549
37.0881
38.6034
39.7264
41.2685
42.1656
42.9501
45.3956
44.5221
47.0027
46.7699
48.1878
48.5182
49.0617
49.3508
49.7266
50.3102
51.1617
51.8559
52.7373
52.403
52.7537
54.1969
53.3291
55.0328
54.525
55.4683
55.3962
55.6666
55.6606
55.5994
55.3339
54.8805
54.876
54.6024
58.3934
56.4514
57.3709
55.4471
56.1156
54.5842
54.4004
52.8927
51.4768
49.2271
46.7668
44.4159
43.0376
42.4434
40.0164
28.8903
24.3049
23.426
19.832
18.5071
15.3969
13.6693
11.3177
9.96884
8.6786
8.00289
7.78343
7.73413
6.72808
4.25557
-7.17522
-11.1776
-11.8615
-14.6704
-15.7468
-18.1993
-19.5518
-21.3227
-22.5307
-23.8422
-25.0673
-26.1047
-27.1712
-27.9429
-26.7359
-14.7852
-15.3125
-14.8439
-15.9011
-15.6213
-16.4074
-16.579
-17.1475
-17.4688
-17.7421
-17.6691
-17.1965
-15.9361
-14.5765
-12.0054
8.75377
10.0198
11.0785
11.2603
12.2417
12.5302
13.1956
13.7647
14.4901
15.3267
16.3868
17.5385
19.0353
20.2761
22.0813
24.0337
26.5829
26.7555
26.4846
26.7492
27.0033
27.6951
28.3245
29.0657
29.7673
30.4471
30.9827
31.5332
31.8827
32.335
65.0237
63.8122
59.0963
52.0677
46.626
42.5283
38.4519
35.2164
32.9978
31.4671
30.1186
29.0772
28.0604
27.2002
25.4085
41.3228
41.4994
41.5627
41.565
41.5929
41.7069
41.9577
41.8868
41.8374
41.8226
41.9605
41.7444
41.7214
41.7556
41.4957
41.393
41.458
41.4465
41.0496
41.1648
41.1438
40.8314
40.7418
40.9048
40.8596
40.5701
40.5043
40.6402
40.6784
40.3815
40.4821
40.5649
40.3736
40.3319
40.4092
40.4995
40.3366
40.3553
40.4792
40.3838
40.3594
40.3684
40.4553
40.3959
40.3774
40.3753
40.4086
40.363
40.3438
40.3083
40.2704
40.2455
40.2412
40.2489
40.2375
40.2159
40.2438
40.2542
40.2674
40.2548
40.3518
40.3367
40.4141
40.35
40.5104
40.8105
41.2438
40.0416
39.0298
40.2637
41.0868
35.0017
32.5875
35.7151
36.486
19.3042
27.7589
29.8596
-4.10121
7.18453
12.5377
10.8189
14.0746
4.09489
9.13343
13.0707
13.4822
14.2242
14.9007
15.498
16.2856
18.9851
17.0413
15.533
17.7932
19.4765
21.4895
22.6151
23.7175
24.4919
26.7109
30.6427
26.1495
28.3996
28.6902
30.2519
32.6285
34.0348
34.3832
34.6072
34.4759
42.8934
36.9398
37.8565
37.5584
37.1965
38.1909
40.0456
39.7491
36.7991
42.0147
41.0757
42.745
42.8095
41.7559
40.7872
39.8711
41.0336
37.9078
42.1787
45.843
43.0663
43.5418
43.4256
41.3453
39.7307
37.5863
31.5476
40.3499
43.3381
37.4886
34.4934
30.3577
27.1919
24.0493
21.4798
18.6592
13.9155
11.7717
19.4544
14.5074
13.5005
11.7544
9.0499
2.58691
0.661314
3.01491
-7.73387
6.95397
4.09015
2.4912
9.15212
3.4922
6.41905
5.36137
7.5261
10.3822
5.97618
8.61512
10.5117
7.44515
8.58126
7.73273
8.76468
10.7223
7.73738
8.67081
7.75654
8.74412
10.5403
6.99443
8.74165
10.2902
7.38714
8.20295
7.24302
8.1222
10.1626
6.84595
7.75947
6.63222
7.72679
9.80406
5.55242
7.60752
9.40468
5.91514
6.88902
5.69457
6.76213
9.02609
5.2239
6.31255
4.9956
6.26582
8.35898
3.90639
6.09249
7.74321
4.33161
5.33397
4.17178
5.19819
7.0905
3.76955
4.74622
3.62015
4.66182
6.21005
2.75372
4.40718
5.4774
2.9805
3.6859
2.83055
3.49813
4.55027
2.34987
2.93166
2.15852
2.71538
3.34848
1.32163
2.1226
2.3618
0.942042
1.16544
0.528055
0.73516
1.27641
0.000517513
0.000889156
0.00147092
0.00189595
0.00239558
0.00285463
0.00334215
0.00382322
0.00431933
0.00482042
0.00533373
0.00585688
0.00639277
0.00694121
0.00750346
0.00807945
0.00866906
0.00927102
0.00988311
0.0105016
0.0111209
0.0117338
0.012331
0.0129015
0.0134338
0.0139167
0.0143413
0.0147027
0.015002
0.0152474
0.015454
0.0156425
0.0158358
0.0160551
0.0163154
0.016624
0.0169851
0.0174095
0.0179282
0.0185956
0.0194743
0.0205953
0.0219144
0.0232894
0.0245251
0.025448
0.0258981
0.0257515
0.0249508
0.0234496
0.0211965
0.0180677
0.0138056
0.00801348
0.000188221
-0.010108
-0.0229854
-0.0388631
-0.0552773
-0.0708463
-0.105943
-0.128119
-0.307492
-0.453858
-0.587739
-0.718447
-0.784238
-0.790395
-0.726509
-0.611368
-0.439541
-0.283773
-0.0910769
-0.000795889
0.176755
0.139628
0.248601
0.344705
-0.234512
0.00149205
0.00255267
0.00420255
0.00543955
0.00685541
0.0081648
0.00953876
0.0108935
0.0122816
0.0136798
0.0151061
0.0165554
0.018035
0.019545
0.0210883
0.0226649
0.0242738
0.0259112
0.0275703
0.0292397
0.0309035
0.0325399
0.0341219
0.0356182
0.0369954
0.0382217
0.0392721
0.040134
0.0408121
0.0413319
0.0417391
0.0420952
0.0424687
0.0429219
0.0434992
0.0442225
0.0451037
0.0461756
0.0475293
0.0493265
0.0517543
0.0549118
0.0586825
0.0626731
0.0663495
0.0692583
0.0709998
0.0712945
0.0700738
0.0673197
0.0630219
0.0569795
0.0486053
0.0368685
0.0203143
-0.00255036
-0.0327014
-0.072634
-0.117356
-0.167224
-0.266954
-0.272547
-0.596029
-0.869942
-1.13318
-1.38778
-1.51802
-1.52631
-1.40856
-1.18874
-0.882553
-0.580912
-0.251616
-0.0144764
0.253822
0.361643
0.54094
0.699237
0.651398
0.00232658
0.00412306
0.00692645
0.00901913
0.0114188
0.0136352
0.0159624
0.0182568
0.0206087
0.0229784
0.0253965
0.0278545
0.0303649
0.0329278
0.0355485
0.0382268
0.0409617
0.0437466
0.0465704
0.0494145
0.052252
0.0550468
0.0577536
0.0603198
0.0626893
0.0648083
0.0666345
0.0681461
0.0693502
0.0702889
0.0710383
0.0717014
0.0723926
0.0732164
0.0742469
0.0755197
0.0770534
0.078901
0.0812142
0.0842654
0.0883703
0.0936972
0.100048
0.106751
0.112897
0.117707
0.120486
0.120738
0.118313
0.113144
0.105166
0.0939816
0.0785355
0.057014
0.0269025
-0.014327
-0.0683329
-0.139015
-0.217386
-0.304089
-0.450722
-0.396313
-0.778973
-1.07665
-1.40058
-1.71113
-1.86664
-1.86986
-1.72174
-1.44858
-1.07709
-0.707867
-0.31607
-0.0138798
0.297625
0.462852
0.700641
0.816891
1.08193
0.00312269
0.00564926
0.00956255
0.0125034
0.0158599
0.0189646
0.0222181
0.025426
0.0287115
0.032021
0.0353965
0.0388267
0.042329
0.0459036
0.049558
0.0532921
0.0571043
0.0609858
0.064921
0.068884
0.0728373
0.0767304
0.0805003
0.0840732
0.0873704
0.0903167
0.0928526
0.0949472
0.0966106
0.0979016
0.098927
0.0998315
0.100776
0.101908
0.10333
0.105091
0.107214
0.109771
0.112973
0.117206
0.122919
0.130358
0.13925
0.148649
0.157277
0.164049
0.167992
0.168424
0.165146
0.158079
0.147156
0.131836
0.110646
0.0810113
0.0393351
-0.0180471
-0.0937969
-0.193603
-0.305174
-0.431451
-0.618507
-0.529637
-1.01619
-1.35066
-1.74475
-2.12431
-2.31153
-2.30884
-2.12215
-1.78155
-1.32302
-0.867742
-0.388562
-0.0146724
0.364759
0.568033
0.878582
0.97496
1.30664
0.003844
0.00712186
0.0121466
0.0159497
0.0202732
0.0242784
0.0284692
0.0326023
0.0368325
0.0410935
0.045438
0.0498525
0.0543589
0.0589582
0.0636598
0.0684638
0.0733684
0.0783626
0.0834263
0.0885266
0.0936155
0.0986283
0.103484
0.108087
0.112337
0.116135
0.119405
0.122106
0.124251
0.125914
0.127233
0.128397
0.129612
0.131069
0.132901
0.135169
0.137897
0.141173
0.145266
0.15068
0.158007
0.16758
0.179052
0.191193
0.202341
0.211097
0.216192
0.21675
0.212515
0.203392
0.189305
0.169565
0.142256
0.103998
0.0500492
-0.0244434
-0.123278
-0.253809
-0.400363
-0.569899
-0.800522
-0.684166
-1.31095
-1.66614
-2.13781
-2.59567
-2.81891
-2.80855
-2.57865
-2.16159
-1.6059
-1.05262
-0.476511
-0.0169414
0.434289
0.692225
1.07386
1.15915
1.69628
0.00451805
0.00855765
0.0146704
0.0193394
0.0246222
0.0295264
0.0346483
0.0397016
0.0448696
0.0500748
0.0553799
0.0607697
0.0662705
0.071884
0.0776216
0.0834839
0.0894688
0.0955631
0.101743
0.107967
0.114179
0.120299
0.126227
0.131848
0.137037
0.141674
0.145664
0.148955
0.151563
0.153579
0.155173
0.156574
0.158039
0.159803
0.162029
0.164787
0.168101
0.172069
0.177019
0.183575
0.192487
0.204187
0.218262
0.233182
0.246893
0.257682
0.263983
0.264729
0.25962
0.248563
0.231502
0.207621
0.174574
0.128156
0.0624339
-0.0287007
-0.150391
-0.311638
-0.493774
-0.710365
-0.986853
-0.869734
-1.63612
-1.98166
-2.52743
-3.06034
-3.31534
-3.29292
-3.01856
-2.52464
-1.87442
-1.22585
-0.55775
-0.0138629
0.502595
0.816905
1.26344
1.34037
1.98617
0.00514189
0.00996004
0.0171437
0.0226862
0.0289264
0.0347332
0.0407866
0.0467616
0.0528676
0.0590173
0.0652826
0.0716473
0.0781417
0.0847685
0.0915412
0.0984609
0.105525
0.112719
0.120015
0.127365
0.134701
0.14193
0.148935
0.155578
0.16171
0.16719
0.171901
0.175784
0.178854
0.181218
0.183079
0.18471
0.186419
0.188485
0.191102
0.194349
0.198242
0.202887
0.208668
0.216337
0.226814
0.240652
0.25737
0.275129
0.29146
0.304335
0.311874
0.312826
0.306848
0.293859
0.273849
0.245888
0.207206
0.15274
0.075319
-0.0324707
-0.177273
-0.369534
-0.58806
-0.855174
-1.17374
-1.08888
-1.98569
-2.31207
-2.9308
-3.53892
-3.82218
-3.78269
-3.46075
-2.88655
-2.13995
-1.39502
-0.634841
-0.00660564
0.573339
0.942494
1.44978
1.5153
2.27233
0.0057249
0.0113362
0.0195682
0.0259893
0.033181
0.0398912
0.0468729
0.053768
0.0608085
0.0678994
0.0751208
0.0824558
0.0899389
0.0975736
0.105376
0.113347
0.121485
0.129774
0.13818
0.14665
0.155107
0.163442
0.171521
0.179183
0.186257
0.192576
0.198005
0.202472
0.205994
0.208694
0.210807
0.212652
0.214589
0.216946
0.219945
0.223671
0.228131
0.233429
0.240004
0.248745
0.26076
0.27674
0.296151
0.316814
0.335835
0.350861
0.359688
0.360882
0.354067
0.339196
0.316333
0.284463
0.240403
0.17821
0.0894332
-0.0346794
-0.202405
-0.425378
-0.680713
-1.00098
-1.35412
-1.34002
-2.34666
-2.66461
-3.35868
-4.04597
-4.35416
-4.29162
-3.91778
-3.25783
-2.41075
-1.56591
-0.711477
0.00397216
0.646476
1.07291
1.63632
1.68862
2.56196
0.00627012
0.0126904
0.0219489
0.0292539
0.0373916
0.0450066
0.0529142
0.0607285
0.0687011
0.076731
0.0849054
0.0932077
0.101676
0.110315
0.119143
0.128162
0.13737
0.146749
0.156263
0.165852
0.175428
0.184869
0.194022
0.202706
0.210723
0.217882
0.224028
0.229075
0.233041
0.236067
0.238418
0.240462
0.242613
0.245248
0.248622
0.252823
0.257838
0.263765
0.271095
0.280861
0.294384
0.312518
0.334681
0.358331
0.380122
0.397374
0.407537
0.409003
0.401368
0.384639
0.358989
0.32335
0.274141
0.204514
0.104714
-0.0353622
-0.225701
-0.478789
-0.771266
-1.14587
-1.52388
-1.62363
-2.69513
-3.0345
-3.80996
-4.58246
-4.91067
-4.81713
-4.38645
-3.63485
-2.68361
-1.73591
-0.786074
0.0190749
0.721788
1.20886
1.82203
1.87813
2.79658
0.00678246
0.0140269
0.0242889
0.0324823
0.0415593
0.0500796
0.0589096
0.0676413
0.0765428
0.0855085
0.0946321
0.103897
0.113346
0.122984
0.132833
0.142895
0.153169
0.163634
0.174252
0.184956
0.19565
0.206196
0.216424
0.22613
0.235091
0.24309
0.24995
0.255573
0.259974
0.26331
0.265883
0.268108
0.270455
0.273356
0.277096
0.281765
0.287323
0.293852
0.301891
0.312628
0.327621
0.347922
0.372907
0.399639
0.424292
0.443855
0.45541
0.457181
0.448741
0.43018
0.401817
0.36257
0.308485
0.231787
0.121412
-0.0340835
-0.24641
-0.528587
-0.858373
-1.28675
-1.68173
-1.93959
-3.01439
-3.42091
-4.28618
-5.15309
-5.49556
-5.36071
-4.8672
-4.01718
-2.95769
-1.90407
-0.857719
0.0395051
0.799518
1.3508
2.00636
2.06178
3.04636
0.00726529
0.0153493
0.0265918
0.0356777
0.045687
0.0551129
0.0648615
0.0745089
0.0843357
0.094234
0.104303
0.114527
0.124951
0.135585
0.146449
0.157549
0.168884
0.180431
0.19215
0.203968
0.215777
0.22743
0.238734
0.249465
0.259372
0.268212
0.275785
0.281978
0.286804
0.290437
0.293212
0.295597
0.298123
0.301275
0.305374
0.310504
0.316593
0.323694
0.33239
0.344037
0.360457
0.38294
0.410829
0.440752
0.468373
0.490342
0.503348
0.505453
0.496216
0.475834
0.444817
0.402116
0.343427
0.260046
0.139602
-0.0306392
-0.264072
-0.574006
-0.941067
-1.42075
-1.83338
-2.30304
-3.29874
-3.82826
-4.79053
-5.765
-6.11591
-5.92689
-5.36306
-4.40656
-3.23394
-2.07076
-0.92637
0.0655757
0.88018
1.49927
2.19008
2.23839
3.31715
0.00772198
0.0166603
0.0288609
0.0388428
0.0497766
0.0601077
0.0707709
0.0813316
0.0920798
0.102907
0.113917
0.125095
0.13649
0.148114
0.159989
0.172122
0.184512
0.197138
0.209954
0.222883
0.235808
0.248566
0.260949
0.272707
0.283563
0.293246
0.301531
0.308288
0.313529
0.317443
0.3204
0.322922
0.325604
0.328992
0.333441
0.339029
0.345636
0.353277
0.362572
0.375056
0.392853
0.417534
0.448422
0.481658
0.512367
0.536848
0.551369
0.553837
0.5438
0.521593
0.487966
0.44195
0.378931
0.289273
0.159337
-0.0248378
-0.278237
-0.614379
-1.0183
-1.54572
-1.98992
-2.72235
-3.53743
-4.26077
-5.32613
-6.42482
-6.77858
-6.51978
-5.87634
-4.80393
-3.51265
-2.23585
-0.991771
0.0980399
0.963423
1.65604
2.37311
2.44027
3.54661
0.00815528
0.0179624
0.031099
0.0419801
0.0538303
0.0650661
0.0766392
0.0881106
0.0997761
0.111528
0.123474
0.135602
0.147963
0.160571
0.173451
0.186612
0.200054
0.213753
0.227664
0.241701
0.255741
0.269606
0.28307
0.295859
0.307668
0.318196
0.327193
0.334508
0.340152
0.344329
0.347446
0.350081
0.352896
0.356503
0.361293
0.367334
0.374449
0.382595
0.392424
0.405663
0.424778
0.451675
0.48567
0.522358
0.556288
0.583396
0.599498
0.602353
0.591498
0.567437
0.531208
0.481979
0.414871
0.319331
0.180507
-0.0166961
-0.288745
-0.649463
-1.08941
-1.66124
-2.15885
-3.154
-3.71022
-4.71354
-5.89539
-7.13956
-7.49084
-7.14394
-6.40945
-5.20999
-3.79386
-2.39903
-1.05315
0.136911
1.05128
1.82034
2.55546
2.6261
3.78639
0.00856772
0.0192579
0.0333089
0.0450918
0.0578501
0.0699894
0.0824675
0.0948467
0.107425
0.120098
0.132975
0.146047
0.159369
0.172955
0.186835
0.201018
0.215506
0.230275
0.245276
0.260421
0.275575
0.290549
0.305097
0.318921
0.331687
0.343065
0.352772
0.360641
0.366676
0.371097
0.374348
0.377067
0.37999
0.383797
0.388921
0.395412
0.403025
0.411641
0.42193
0.43583
0.456193
0.485325
0.522551
0.562844
0.600143
0.630005
0.647757
0.651016
0.639303
0.613318
0.574436
0.522026
0.451002
0.349926
0.202807
-0.00647428
-0.295758
-0.679459
-1.15432
-1.76851
-2.33533
-3.5014
-3.82381
-5.18984
-6.50046
-7.91692
-8.26087
-7.80476
-6.96556
-5.62581
-4.07781
-2.56062
-1.10914
0.180879
1.14801
1.99156
2.73725
2.82637
4.03653
0.00896143
0.0205484
0.0354931
0.04818
0.0618379
0.0748791
0.0882572
0.101541
0.115027
0.128616
0.142418
0.15643
0.170706
0.185265
0.200139
0.215339
0.230867
0.246701
0.26279
0.279039
0.295308
0.311393
0.32703
0.341894
0.355623
0.367853
0.378271
0.386688
0.393102
0.397745
0.401104
0.403877
0.40688
0.410868
0.416317
0.423259
0.431361
0.440407
0.451077
0.465529
0.487058
0.518445
0.55904
0.603109
0.643942
0.676695
0.696167
0.699832
0.687183
0.659138
0.617456
0.561785
0.4869
0.380531
0.225656
0.00524579
-0.299847
-0.705075
-1.21368
-1.86957
-2.51261
-3.73098
-3.93389
-5.70099
-7.14373
-8.76519
-9.09745
-8.50822
-7.54848
-6.05262
-4.36489
-2.72126
-1.15892
0.229799
1.25459
2.16977
2.9194
3.02453
4.24344
0.00933832
0.0218355
0.0376539
0.0512468
0.0657955
0.0797368
0.0940091
0.108193
0.122582
0.137083
0.151805
0.16675
0.181974
0.1975
0.213361
0.229572
0.246136
0.26303
0.280203
0.297556
0.314939
0.332138
0.348867
0.364778
0.379477
0.392564
0.403694
0.412654
0.419431
0.424276
0.427712
0.430506
0.433557
0.437705
0.443473
0.450867
0.459452
0.468888
0.479849
0.49473
0.517328
0.550992
0.595114
0.643146
0.687694
0.723483
0.74474
0.748789
0.735062
0.704718
0.659949
0.600767
0.521905
0.410348
0.248178
0.017568
-0.301952
-0.727454
-1.26881
-1.96728
-2.69182
-3.9113
-4.10835
-6.20608
-7.83291
-9.69349
-10.0098
-9.26057
-8.16261
-6.49191
-4.65551
-2.88084
-1.20209
0.284468
1.37102
2.35331
3.10707
3.21587
4.51212
0.0097
0.0231206
0.0397936
0.0542938
0.0697245
0.0845636
0.0997244
0.114805
0.130091
0.145498
0.161135
0.177007
0.193173
0.209659
0.226502
0.243717
0.26131
0.27926
0.297513
0.315968
0.334466
0.352781
0.370609
0.387574
0.40325
0.417199
0.429043
0.43854
0.445668
0.450689
0.454171
0.456949
0.460014
0.464299
0.470379
0.478231
0.487296
0.497082
0.508234
0.523404
0.546955
0.582918
0.630744
0.682945
0.731406
0.770384
0.793476
0.797836
0.782791
0.749755
0.701413
0.638249
0.555082
0.438298
0.269238
0.0293523
-0.303288
-0.74804
-1.32156
-2.06485
-2.87536
-4.08753
-4.42818
-6.7106
-8.58988
-10.7119
-11.0072
-10.0683
-8.81285
-6.9455
-4.94987
-3.03896
-1.23824
0.34552
1.49795
2.54246
3.30319
3.43704
4.76661
0.0100479
0.0244048
0.0419139
0.0573228
0.0736264
0.0893607
0.105404
0.121377
0.137554
0.153862
0.170406
0.1872
0.204301
0.221741
0.239557
0.257771
0.276387
0.295388
0.314718
0.334273
0.353887
0.373322
0.392254
0.410281
0.426942
0.441762
0.454321
0.464349
0.471813
0.476986
0.480478
0.4832
0.486242
0.490638
0.497025
0.505346
0.514892
0.524986
0.53622
0.551516
0.575887
0.61417
0.665901
0.722495
0.775084
0.8174
0.842344
0.846857
0.830099
0.793766
0.741115
0.673236
0.585228
0.463089
0.287561
0.0393572
-0.305169
-0.768379
-1.37399
-2.16519
-3.06535
-4.29838
-4.95501
-7.24287
-9.44155
-11.8314
-12.0991
-10.938
-9.5045
-7.41565
-5.24828
-3.1953
-1.26683
0.413525
1.63602
2.73806
3.50706
3.65477
4.9726
0.0103832
0.0256892
0.0440168
0.0603351
0.0775028
0.0941293
0.111048
0.127909
0.144971
0.162174
0.17962
0.197327
0.215357
0.233744
0.252527
0.271732
0.291366
0.311412
0.331815
0.352468
0.3732
0.393758
0.413801
0.432899
0.450555
0.466253
0.479531
0.490085
0.497869
0.503166
0.506632
0.509254
0.512232
0.516713
0.523402
0.532205
0.542239
0.552598
0.563794
0.579034
0.604066
0.644692
0.700552
0.761782
0.818725
0.864511
0.891255
0.895619
0.876535
0.836035
0.778057
0.704477
0.610959
0.483367
0.301903
0.0464188
-0.308816
-0.789897
-1.42803
-2.27079
-3.26466
-4.56874
-5.67837
-7.76682
-10.3873
-13.0626
-13.2949
-11.876
-10.2432
-7.90492
-5.55129
-3.34957
-1.28738
0.48915
1.78569
2.9404
3.71966
3.86666
5.24611
0.0107069
0.0269747
0.0461038
0.0633322
0.0813549
0.0988702
0.116659
0.134401
0.152343
0.170434
0.188775
0.20739
0.22634
0.245666
0.265409
0.285598
0.306243
0.327329
0.348802
0.370552
0.392401
0.414088
0.435249
0.455428
0.47409
0.490674
0.504675
0.515752
0.523838
0.529231
0.532629
0.535104
0.537973
0.54251
0.549499
0.558803
0.569339
0.579923
0.590949
0.605921
0.631427
0.674418
0.734661
0.800786
0.862313
0.911648
0.940013
0.943706
0.921404
0.875575
0.810986
0.730558
0.630884
0.497921
0.311243
0.0496272
-0.315174
-0.813717
-1.48527
-2.38365
-3.47648
-4.90017
-6.46427
-8.2374
-11.4256
-14.4154
-14.6045
-12.8883
-11.0345
-8.41586
-5.85967
-3.50145
-1.29941
0.573114
1.94745
3.15019
3.94232
4.12209
5.51204
0.0110198
0.0282621
0.0481763
0.0663152
0.085184
0.103584
0.122236
0.140855
0.159669
0.178642
0.197871
0.217385
0.237249
0.257506
0.278202
0.299367
0.321017
0.343137
0.365675
0.38852
0.411489
0.434308
0.456596
0.477868
0.497548
0.515029
0.529757
0.541351
0.549724
0.555182
0.558468
0.560744
0.563455
0.568015
0.575303
0.585135
0.596194
0.606963
0.617675
0.632141
0.6579
0.703279
0.768188
0.839475
0.905793
0.958651
0.988245
0.990449
0.963717
0.91113
0.838493
0.750092
0.643832
0.505878
0.314942
0.0484665
-0.324783
-0.840512
-1.54669
-2.50512
-3.70334
-5.28127
-7.18815
-8.72255
-12.6217
-15.9039
-16.0395
-13.9807
-11.8842
-8.95088
-6.1744
-3.65065
-1.30243
0.666148
2.12175
3.36782
4.17418
4.35791
5.72191
0.0113227
0.0295522
0.0502358
0.0692853
0.088991
0.108273
0.12778
0.14727
0.16695
0.186797
0.206906
0.227313
0.248083
0.269263
0.290903
0.313037
0.335684
0.358833
0.382431
0.40637
0.43046
0.454416
0.47784
0.500216
0.520927
0.539318
0.55478
0.566888
0.57553
0.581019
0.584146
0.586167
0.588665
0.593214
0.600802
0.611196
0.62281
0.633728
0.643969
0.657654
0.683407
0.731196
0.801082
0.87779
0.949037
1.0052
1.03532
1.03485
1.00218
0.941265
0.859211
0.761969
0.64906
0.506842
0.312843
0.0428945
-0.3377
-0.870441
-1.61266
-2.63567
-3.94684
-5.70566
-7.88243
-9.32958
-14.0033
-17.5523
-17.6121
-15.1583
-12.7975
-9.51222
-6.49662
-3.79687
-1.29596
0.768996
2.30898
3.59361
4.41713
4.6178
6.00465
0.0116161
0.0308457
0.0522832
0.0722435
0.0927771
0.112936
0.133291
0.153647
0.174184
0.1949
0.215881
0.237173
0.258839
0.280934
0.303509
0.326605
0.350242
0.374413
0.399068
0.424097
0.44931
0.474409
0.498979
0.522472
0.54423
0.563543
0.579746
0.592364
0.601258
0.606744
0.609662
0.611365
0.613591
0.618092
0.625981
0.63698
0.649191
0.660227
0.669826
0.682418
0.707861
0.75808
0.833277
0.915619
0.991784
1.05071
1.08025
1.07557
1.03527
0.96457
0.872086
0.76557
0.646373
0.500958
0.305292
0.0333503
-0.35351
-0.903149
-1.68286
-2.77491
-4.20762
-6.17157
-8.59342
-10.1748
-15.5417
-19.3928
-19.334
-16.4248
-13.7787
-10.1019
-6.82739
-3.93987
-1.27954
0.882406
2.50956
3.82812
4.67118
4.87401
6.20263
0.0119004
0.0321432
0.0543199
0.0751906
0.0965431
0.117574
0.13877
0.159985
0.181373
0.202949
0.224795
0.246962
0.269517
0.292518
0.31602
0.340068
0.364687
0.389873
0.415581
0.441699
0.468035
0.494284
0.520009
0.544634
0.567455
0.587706
0.604659
0.617785
0.626912
0.632359
0.635013
0.636332
0.638218
0.642628
0.650825
0.662481
0.675349
0.686477
0.695249
0.706392
0.731165
0.783824
0.864669
0.952746
1.03354
1.09425
1.12165
1.11093
1.06142
0.979971
0.876621
0.760877
0.63614
0.488878
0.293098
0.0206928
-0.371384
-0.937825
-1.75641
-2.9216
-4.48508
-6.67653
-9.34072
-11.2905
-17.2296
-21.4587
-21.2176
-17.7825
-14.8314
-10.7215
-7.16757
-4.07953
-1.25272
1.00711
2.72384
4.07175
4.93719
5.12685
6.47475
0.012176
0.0334454
0.0563465
0.0781275
0.10029
0.122188
0.144218
0.166284
0.188515
0.210944
0.233645
0.25668
0.280114
0.304012
0.328433
0.353424
0.379016
0.405211
0.431966
0.459172
0.486633
0.514036
0.540928
0.5667
0.590603
0.611808
0.629522
0.643154
0.652496
0.657866
0.660197
0.661058
0.662533
0.666805
0.675315
0.687695
0.701293
0.712499
0.720245
0.72953
0.753206
0.808295
0.895083
0.988769
1.07349
1.13446
1.15772
1.13911
1.07939
0.987014
0.872978
0.748444
0.619215
0.471667
0.277416
0.006086
-0.390193
-0.9733
-1.83189
-3.07379
-4.77735
-7.21568
-10.1345
-12.7053
-19.061
-23.7922
-23.2791
-19.233
-15.9576
-11.3722
-7.51775
-4.21577
-1.21507
1.14382
2.95217
4.3252
5.21642
5.42452
6.74815
0.0124431
0.0347529
0.058364
0.0810549
0.104018
0.126779
0.149633
0.172545
0.195611
0.218884
0.242433
0.266326
0.29063
0.315416
0.340744
0.366669
0.393227
0.420423
0.448219
0.476509
0.505097
0.533662
0.561733
0.588669
0.613673
0.635851
0.654337
0.668476
0.678014
0.683266
0.685212
0.685535
0.686518
0.6906
0.699432
0.712614
0.727038
0.738318
0.744823
0.751782
0.773852
0.831312
0.924209
1.023
1.11038
1.1695
1.18637
1.15856
1.08862
0.985998
0.861915
0.729275
0.596804
0.450662
0.259609
-0.00913896
-0.408627
-1.00814
-1.90749
-3.2289
-5.0811
-7.78049
-10.9797
-14.4417
-21.025
-26.4483
-25.5401
-20.7772
-17.1586
-12.0542
-7.87813
-4.34851
-1.16618
1.29321
3.19482
4.58905
5.50753
5.70586
6.93943
0.0127017
0.0360661
0.0603732
0.0839733
0.107728
0.131346
0.155018
0.178767
0.202659
0.226769
0.251155
0.275897
0.301062
0.326725
0.352951
0.379802
0.407315
0.435505
0.464336
0.493707
0.523423
0.553156
0.582418
0.610537
0.636664
0.659836
0.679109
0.693754
0.70347
0.708562
0.710057
0.709755
0.710155
0.713988
0.723155
0.737231
0.752601
0.763967
0.769002
0.773096
0.792937
0.8526
0.95152
1.05438
1.14247
1.19706
1.2056
1.16843
1.08945
0.977877
0.844612
0.704642
0.570288
0.427304
0.241093
-0.0236068
-0.425288
-1.04074
-1.98107
-3.38383
-5.39152
-8.35845
-11.8756
-16.4769
-23.064
-29.4722
-28.0263
-22.4164
-18.4345
-12.7667
-8.24846
-4.47752
-1.10562
1.45589
3.45206
4.86365
5.81169
5.97958
7.21128
0.0129519
0.0373856
0.0623745
0.0868833
0.11142
0.135889
0.16037
0.184949
0.209659
0.234597
0.259812
0.285393
0.311408
0.337938
0.365053
0.392817
0.421277
0.450451
0.480311
0.510761
0.541606
0.572513
0.60298
0.632301
0.659574
0.683764
0.703841
0.718994
0.728869
0.733758
0.734729
0.733708
0.733426
0.736943
0.746456
0.761539
0.778002
0.789487
0.792806
0.793404
0.810239
0.871733
0.976187
1.0814
1.16747
1.21469
1.21409
1.16896
1.08299
0.964036
0.822455
0.675898
0.541058
0.402995
0.223225
-0.0359783
-0.438746
-1.06935
-2.05027
-3.53506
-5.70245
-8.93475
-12.8146
-18.6888
-25.0659
-32.8823
-30.7618
-24.1518
-19.7838
-13.5075
-8.62799
-4.60226
-1.03289
1.63246
3.72411
5.14979
6.1306
6.30677
7.50092
0.0131935
0.038712
0.0643686
0.0897853
0.115095
0.14041
0.165691
0.191092
0.216611
0.242367
0.268401
0.294812
0.321666
0.349053
0.377044
0.405712
0.435109
0.465259
0.496141
0.527666
0.559639
0.591728
0.623413
0.653957
0.682403
0.707636
0.728534
0.7442
0.754216
0.758856
0.759228
0.757385
0.756309
0.759433
0.769308
0.785528
0.803264
0.814924
0.816261
0.812618
0.825437
0.888061
0.997063
1.10204
1.18262
1.22046
1.21181
1.16137
1.07084
0.946025
0.796833
0.644308
0.510378
0.378991
0.207242
-0.0449772
-0.447558
-1.09217
-2.11257
-3.67884
-6.00687
-9.49536
-13.789
-20.8746
-27.026
-36.7297
-33.7678
-25.9846
-21.2044
-14.2731
-9.01543
-4.72182
-0.947381
1.82346
4.01114
5.44816
6.46154
6.60991
7.6823
0.0134266
0.0400457
0.0663558
0.0926797
0.118753
0.144907
0.17098
0.197195
0.223514
0.250078
0.276921
0.304151
0.331834
0.360066
0.388923
0.418484
0.448806
0.479922
0.511819
0.544414
0.577518
0.610795
0.643713
0.675502
0.705148
0.731453
0.753194
0.769377
0.779516
0.78386
0.783552
0.780775
0.778782
0.781427
0.791678
0.809186
0.828413
0.840334
0.839393
0.830593
0.838055
0.900721
1.01267
1.11362
1.18531
1.21378
1.20003
1.14753
1.05476
0.925352
0.768985
0.610925
0.479294
0.356365
0.194256
-0.0493805
-0.450287
-1.1074
-2.1655
-3.81145
-6.29761
-10.0295
-14.7902
-22.894
-29.0984
-41.1287
-37.0655
-27.9144
-22.6931
-15.0588
-9.40885
-4.83483
-0.848244
2.02947
4.31324
5.75897
6.80675
6.93817
7.98863
0.0136507
0.0413873
0.0683365
0.0955667
0.122394
0.149381
0.176237
0.203257
0.230367
0.257729
0.285371
0.313409
0.34191
0.370975
0.400686
0.431127
0.462364
0.494436
0.52734
0.561
0.595234
0.629706
0.663872
0.696929
0.727806
0.755214
0.777822
0.794531
0.804776
0.808775
0.807702
0.803868
0.800819
0.802885
0.813528
0.832499
0.853477
0.865771
0.862205
0.847077
0.847449
0.908745
1.02097
1.113
1.17408
1.19576
1.18087
1.12943
1.03641
0.90333
0.739892
0.576527
0.448622
0.336021
0.185292
-0.0480111
-0.445577
-1.11345
-2.20701
-3.92982
-6.56833
-10.5295
-15.8101
-24.7491
-31.4638
-46.0748
-40.6767
-29.9385
-24.2467
-15.8591
-9.80553
-4.93939
-0.734334
2.25112
4.63049
6.08282
7.16555
7.25931
8.20117
0.0138656
0.0427372
0.070311
0.0984466
0.126018
0.153831
0.181461
0.209278
0.237168
0.265319
0.293749
0.322583
0.351891
0.381778
0.41233
0.44364
0.475779
0.508797
0.542698
0.577418
0.612781
0.648455
0.683883
0.718235
0.750374
0.77892
0.802422
0.819666
0.830001
0.833607
0.831677
0.826654
0.822396
0.823766
0.834814
0.855448
0.878481
0.891284
0.884625
0.861638
0.853003
0.911059
1.01907
1.09758
1.14956
1.16883
1.15674
1.10899
1.01724
0.881008
0.710251
0.541614
0.418976
0.318748
0.181322
-0.0397783
-0.43231
-1.10926
-2.23601
-4.03227
-6.81473
-10.9926
-16.8454
-26.453
-34.2315
-51.4943
-44.6223
-32.0507
-25.8612
-16.6675
-10.2017
-5.03305
-0.604134
2.48918
4.96292
6.41998
7.53827
7.58041
8.49354
0.0140709
0.0440959
0.0722795
0.101319
0.129625
0.158258
0.186652
0.215256
0.243916
0.272846
0.302053
0.331673
0.361774
0.39247
0.423851
0.456017
0.489045
0.522997
0.557886
0.593659
0.630151
0.667032
0.70374
0.739412
0.772849
0.80257
0.826997
0.844789
0.855199
0.85836
0.855479
0.849122
0.843482
0.844024
0.855488
0.878008
0.903439
0.916872
0.906401
0.873692
0.854474
0.905955
1.00356
1.06677
1.11432
1.13582
1.12981
1.08778
0.998409
0.859165
0.680484
0.506449
0.390832
0.30527
0.183248
-0.0238101
-0.409922
-1.09483
-2.25304
-4.11947
-7.03599
-11.4224
-17.8944
-28.0091
-37.4513
-57.3038
-48.9131
-34.2419
-27.5321
-17.4776
-10.5927
-5.11281
-0.455729
2.74464
5.31053
6.77073
7.92611
7.94881
8.7968
0.0142661
0.0454639
0.0742421
0.104185
0.133216
0.16266
0.19181
0.221191
0.250611
0.280309
0.310281
0.340674
0.371557
0.403049
0.435246
0.468253
0.502159
0.537032
0.572899
0.609718
0.647336
0.685431
0.723434
0.760454
0.795226
0.826163
0.85155
0.869904
0.880377
0.883042
0.87911
0.871263
0.864048
0.863605
0.875488
0.900139
0.928335
0.942407
0.926943
0.882817
0.851678
0.890223
0.972219
1.02263
1.07179
1.0993
1.1019
1.06708
0.980796
0.83835
0.650795
0.471112
0.364578
0.296252
0.191817
0.000289583
-0.378858
-1.07186
-2.26115
-4.19527
-7.2356
-11.8287
-18.9543
-29.4243
-41.2094
-63.4062
-53.552
-36.5001
-29.2529
-18.2824
-10.9727
-5.17514
-0.286837
3.01878
5.67336
7.13517
8.3265
8.29896
9.02362
0.0144508
0.0468417
0.0761988
0.107044
0.136789
0.167038
0.196932
0.227082
0.257251
0.287705
0.318432
0.349585
0.381237
0.413512
0.44651
0.480345
0.515114
0.550895
0.587728
0.625584
0.664326
0.70364
0.742955
0.781352
0.8175
0.849699
0.876083
0.895018
0.905542
0.90766
0.902573
0.893067
0.884061
0.88245
0.894744
0.92178
0.953068
0.967442
0.945364
0.889248
0.843337
0.859732
0.925718
0.969099
1.0252
1.06132
1.07444
1.04786
0.965091
0.818952
0.621221
0.435541
0.340537
0.292251
0.207426
0.0320345
-0.341176
-1.04445
-2.26652
-4.26701
-7.42138
-12.2254
-20.0188
-30.7226
-45.64
-69.6926
-58.5324
-38.8089
-31.0148
-19.0753
-11.3352
-5.21601
-0.0948561
3.3133
6.05147
7.51294
8.74035
8.6447
9.33847
0.0146243
0.0482298
0.0781495
0.109896
0.140344
0.17139
0.202019
0.232927
0.263835
0.295034
0.326502
0.358404
0.390811
0.423855
0.45764
0.492289
0.527905
0.56458
0.602366
0.641251
0.681113
0.72165
0.762293
0.802097
0.839665
0.873174
0.900597
0.920137
0.930702
0.932223
0.925872
0.914525
0.903484
0.900492