/*--------------------------------*- C++ -*----------------------------------*\
| =========                 |                                                 |
| \\      /  F ield         | OpenFOAM: The Open Source CFD Toolbox           |
|  \\    /   O peration     | Version:  4.1                                   |
|   \\  /    A nd           | Web:      www.OpenFOAM.org                      |
|    \\/     M anipulation  |                                                 |
\*---------------------------------------------------------------------------*/
FoamFile
{
    version     2.0;
    format      ascii;
    class       volVectorField;
    location    "10";
    object      U;
}
// * * * * * * * * * * * * * * * * * * * * * * * * * * * * * * * * * * * * * //

dimensions      [0 1 -1 0 0 0 0];

internalField   nonuniform List<vector> 
6785
(
(1.49097e-14 -1.98222 16.3686)
(1.10689e-14 -7.70738 12.8181)
(-3.34001e-15 -5.07971 13.5427)
(3.71317e-15 -4.93342 13.1021)
(9.93468e-16 -4.19333 12.9435)
(-1.22589e-16 -3.75632 12.6639)
(3.04494e-15 -3.34546 12.3769)
(5.75134e-16 -3.04535 12.0615)
(-6.9612e-16 -2.84664 11.7498)
(1.62411e-15 -2.77975 11.4632)
(2.66496e-16 -2.79896 11.2411)
(-4.39911e-16 -2.92583 11.0111)
(8.35375e-16 -3.4888 10.3775)
(3.78674e-17 -3.48554 9.31867)
(-3.57115e-16 0.131388 7.58431)
(1.93684e-14 -9.82378 26.6608)
(1.3068e-14 -16.2646 23.0186)
(-2.90841e-15 -11.1696 23.393)
(3.83872e-15 -11.8314 21.6587)
(7.88113e-16 -10.2079 20.805)
(8.69209e-16 -9.50504 19.6433)
(1.76289e-15 -8.53907 18.6086)
(-4.51208e-17 -7.73334 17.5664)
(-2.39439e-16 -6.93279 16.5429)
(4.78867e-16 -6.13159 15.4086)
(-4.37081e-16 -5.20035 13.9515)
(-6.3599e-16 -4.15073 11.8572)
(-1.18016e-16 -3.26231 8.89761)
(-4.23576e-16 -2.513 5.60175)
(-5.71234e-16 -1.04003 2.21465)
(2.12841e-14 -12.6612 28.5653)
(1.09599e-14 -17.1163 25.3501)
(-1.49875e-15 -12.1628 25.4355)
(4.15154e-15 -13.2291 23.0102)
(4.53842e-16 -11.1449 22.02)
(1.45132e-15 -10.6672 20.3742)
(1.44794e-15 -9.58135 19.1039)
(-3.08284e-16 -8.87696 17.7855)
(4.08399e-16 -8.08722 16.5401)
(4.82866e-16 -7.16385 14.8914)
(-5.40641e-16 -5.39318 11.8073)
(1.7066e-15 -2.01864 5.6874)
(3.04154e-15 2.246 -2.21807)
(-1.55491e-15 3.79016 -4.95996)
(-3.55578e-15 2.15265 -3.75192)
(2.14714e-14 -13.4931 28.2068)
(1.11216e-14 -17.6177 25.9994)
(-1.19197e-15 -12.848 25.5102)
(4.49956e-15 -14.3702 22.681)
(8.49646e-16 -12.0357 21.7568)
(1.36583e-15 -11.9315 19.7932)
(1.68035e-15 -10.8238 18.4413)
(5.59408e-16 -10.2473 16.9372)
(3.7967e-16 -9.55287 15.5735)
(9.58021e-16 -8.83369 14.0201)
(8.02777e-16 -7.66831 11.7545)
(1.0277e-15 -5.40141 7.95431)
(1.88968e-15 -2.76645 3.50563)
(4.73495e-15 0.859764 -0.0439635)
(-5.14246e-15 2.0358 -5.88379)
(2.05436e-14 -13.2725 26.556)
(1.25076e-14 -17.6075 26.5281)
(-6.7679e-16 -13.1596 25.0874)
(3.81612e-15 -14.2239 22.1407)
(1.40069e-15 -12.0791 21.0978)
(9.24769e-16 -11.8659 19.0592)
(1.56791e-15 -10.7596 17.5728)
(8.92618e-16 -10.0488 15.9196)
(6.08267e-17 -9.26385 14.3802)
(4.2175e-16 -8.48943 12.8336)
(3.72268e-16 -7.62265 11.0871)
(-1.89716e-16 -6.2617 8.86532)
(-4.92354e-16 -4.59371 5.9536)
(-6.36413e-16 -1.74556 2.57003)
(-2.18632e-15 0.273422 -2.83589)
(2.03817e-14 -12.6606 24.6165)
(1.42548e-14 -17.0828 26.3762)
(6.25399e-16 -13.1056 24.384)
(2.85969e-15 -13.5881 21.3561)
(2.01325e-15 -11.7012 20.2007)
(1.44824e-15 -11.3331 18.2055)
(1.64933e-15 -10.2766 16.6661)
(1.44482e-15 -9.51286 15.0467)
(8.92764e-16 -8.74109 13.5581)
(2.55139e-16 -7.98186 12.147)
(3.81427e-16 -7.24444 10.7065)
(8.65606e-16 -6.31428 9.1964)
(-1.02742e-16 -5.23535 7.28586)
(-4.09809e-17 -3.34089 4.89914)
(4.99831e-15 -0.989471 -0.0748469)
(2.22232e-14 -12.1611 23.5055)
(1.6148e-14 -16.362 25.6375)
(2.35322e-15 -12.7267 23.6414)
(2.65978e-15 -13.0248 20.5306)
(2.9341e-15 -11.1013 19.3926)
(3.75009e-15 -10.7944 17.3364)
(2.29454e-15 -9.6992 15.9203)
(2.11247e-15 -9.1204 14.3991)
(3.92075e-15 -8.47997 13.0318)
(1.47857e-15 -7.90971 11.72)
(1.03753e-15 -7.37776 10.5498)
(3.49635e-15 -6.83476 9.62467)
(2.01595e-15 -6.2413 8.76974)
(-1.53147e-15 -5.12483 7.62809)
(5.6345e-15 -2.81778 3.8096)
(2.17013e-14 -12.2393 23.4013)
(1.46008e-14 -15.4232 24.7175)
(1.61743e-15 -12.2224 22.8928)
(2.96194e-15 -12.3418 19.9777)
(2.65291e-15 -10.3038 18.828)
(2.64376e-15 -9.84546 16.5868)
(2.06772e-15 -8.25298 14.7581)
(2.2788e-15 -7.35502 12.4736)
(2.06284e-15 -6.51952 10.8581)
(1.08081e-15 -6.35835 9.94005)
(6.73205e-16 -6.513 9.82151)
(6.72032e-16 -7.01649 10.3484)
(4.28096e-16 -7.37756 11.165)
(-2.77088e-15 -7.27858 11.2084)
(1.1827e-15 -5.01264 8.38888)
(2.20242e-14 -13.3286 25.1043)
(1.07015e-14 -15.1566 25.0234)
(-2.39527e-16 -12.3263 23.4811)
(2.60124e-15 -12.2118 21.3466)
(1.19124e-15 -10.3576 20.2384)
(-6.30247e-17 -9.39398 17.9987)
(9.6892e-16 -7.16031 15.2685)
(1.32056e-15 -5.17968 11.8027)
(2.2583e-16 -3.32999 9.00012)
(1.39173e-15 -2.32711 7.1276)
(1.18024e-15 -2.27094 6.79075)
(-1.23032e-16 -3.62369 8.42993)
(8.75687e-17 -5.88701 11.3454)
(-1.51479e-15 -7.69139 13.2409)
(-1.55386e-15 -5.68961 10.7304)
(2.08821e-14 -14.0508 26.126)
(1.09282e-14 -17.1717 27.9947)
(-6.80904e-16 -13.5957 25.4775)
(1.8591e-15 -13.5673 23.592)
(4.28397e-16 -11.8764 22.6768)
(-5.88959e-16 -11.0953 20.662)
(3.4568e-17 -8.88762 18.0418)
(9.75406e-16 -6.72996 14.4779)
(1.50891e-15 -4.32464 11.227)
(2.7878e-15 -2.25712 8.1516)
(3.77176e-15 -0.284303 5.24985)
(3.11202e-15 0.935956 3.05247)
(4.11855e-17 0.464581 3.05142)
(-1.33264e-15 -1.78066 5.39521)
(-7.02229e-16 -2.6756 6.27102)
(1.86879e-14 -12.6569 22.9433)
(1.44553e-14 -18.8591 30.2493)
(3.25676e-15 -15.9007 27.8695)
(1.90009e-15 -15.1371 25.1006)
(1.08213e-16 -13.649 23.8089)
(1.04092e-15 -13.1193 22.0585)
(5.19316e-16 -11.6566 20.103)
(-3.86292e-17 -10.1222 17.3732)
(2.70389e-15 -8.1088 14.485)
(2.87304e-15 -6.03562 11.3692)
(2.83366e-15 -3.71375 7.98139)
(7.94162e-15 -1.29643 4.14761)
(7.24629e-15 1.5606 -0.103259)
(8.98809e-15 3.44646 -3.37268)
(-1.26124e-15 1.39311 -2.60726)
(1.57653e-14 -9.8328 17.146)
(1.69594e-14 -18.1453 29.1631)
(7.54007e-15 -17.0306 28.5543)
(2.72448e-15 -15.5414 25.0485)
(2.31019e-16 -13.975 22.8166)
(1.30247e-15 -13.2613 20.9275)
(1.23585e-15 -12.3329 19.2321)
(2.01924e-16 -11.3683 17.2667)
(1.43424e-15 -10.17 15.1393)
(1.64729e-15 -8.82192 12.8624)
(1.24969e-15 -7.32104 10.4277)
(3.02239e-15 -5.55671 7.80107)
(2.95386e-15 -3.56129 4.7491)
(3.60467e-15 -0.8656 1.65629)
(-2.57649e-15 0.919829 -3.68084)
(1.32202e-14 -7.5249 12.665)
(1.77589e-14 -16.709 27.3712)
(1.00478e-14 -16.9473 28.2583)
(3.65293e-15 -15.3592 24.7615)
(8.95707e-16 -13.7156 21.9516)
(8.0912e-16 -12.7534 19.7944)
(6.62858e-16 -11.88 18.0485)
(1.54669e-15 -11.0219 16.3375)
(1.17582e-15 -10.0759 14.5732)
(6.0707e-16 -9.00625 12.7513)
(1.13283e-15 -7.85548 10.8453)
(6.46215e-16 -6.5143 8.88809)
(2.64435e-16 -5.10131 6.67758)
(1.29243e-15 -3.0655 4.18974)
(-3.14209e-15 -0.760872 -0.845919)
(1.06855e-14 -5.70801 8.93293)
(1.7678e-14 -15.192 25.2846)
(8.96487e-15 -15.825 26.463)
(1.80839e-15 -13.7302 22.6366)
(5.49052e-16 -11.8784 19.7993)
(9.02275e-16 -10.9343 18.0201)
(9.69414e-16 -10.2235 16.804)
(2.06181e-15 -9.6433 15.6648)
(1.64992e-15 -9.07223 14.5209)
(8.75402e-16 -8.45203 13.329)
(-6.35944e-17 -7.81789 12.0638)
(-8.75842e-16 -7.00967 10.6805)
(-3.40976e-16 -6.03931 8.94144)
(-1.17099e-16 -4.50431 6.86995)
(-2.57838e-15 -2.22692 2.98961)
(6.00776e-15 -4.89155 9.00341)
(1.70446e-14 -15.3122 24.6605)
(1.47811e-14 -18.6847 28.4005)
(7.37691e-15 -18.5525 26.2857)
(1.87226e-15 -16.8456 22.8175)
(5.6801e-17 -15.102 19.7859)
(-1.04975e-15 -13.5692 17.3374)
(-1.37181e-15 -12.1023 15.2168)
(-3.28877e-16 -10.5683 13.2479)
(5.52395e-16 -9.10302 11.4807)
(2.54597e-16 -7.7753 9.92508)
(-4.34309e-17 -6.72975 8.82016)
(-1.41774e-15 -6.11494 8.57981)
(-3.76404e-15 -5.7203 8.3261)
(-5.03037e-15 -3.11403 5.58436)
(-7.30951e-18 6.44053 24.9117)
(-6.53123e-16 -0.289087 3.36249)
(-1.36652e-15 -0.197675 -1.3243)
(-1.53935e-15 -0.164635 -0.932417)
(-1.76308e-15 -0.0433127 -1.15264)
(-2.6723e-15 0.35869 -1.67182)
(-1.80304e-15 0.20827 -1.07148)
(-1.55906e-15 0.339499 -0.990722)
(-1.44566e-15 0.372627 -0.874727)
(-6.0752e-16 0.709876 -1.1917)
(4.68854e-16 0.592496 -0.745996)
(1.02355e-15 0.656945 -0.659494)
(1.05348e-15 1.0171 -0.779095)
(1.20721e-15 0.78827 -0.448868)
(1.44606e-15 0.911188 -0.410293)
(1.69359e-15 0.875896 -0.383247)
(1.8472e-15 1.16892 -0.350275)
(1.98488e-15 0.94493 -0.152659)
(2.0886e-15 0.989609 -0.153349)
(2.75595e-15 1.29235 -0.00692691)
(2.42599e-15 0.963194 0.0538802)
(2.44657e-15 1.06928 0.0479768)
(2.65508e-15 1.00193 0.00205088)
(3.55265e-15 1.2582 0.17751)
(2.77638e-15 0.93615 0.140095)
(2.73759e-15 1.03027 0.115422)
(2.21394e-15 0.970488 0.0489209)
(2.74366e-15 1.15813 0.203633)
(1.65584e-15 0.877157 0.130487)
(1.36248e-15 0.914962 0.0620723)
(1.70839e-15 1.08304 0.214098)
(7.97891e-16 0.768673 0.108763)
(7.29944e-16 0.841023 0.0797831)
(2.91808e-16 0.803938 0.0214628)
(2.06053e-16 0.911461 0.146649)
(1.28673e-16 0.654971 0.0585895)
(1.16855e-16 0.695208 0.0137515)
(1.66046e-16 0.773098 0.139131)
(2.57001e-16 0.509453 0.0407503)
(1.81215e-16 0.557878 0.0377106)
(6.94898e-16 0.545802 0.0138271)
(1.14153e-15 0.572797 0.121605)
(9.87296e-16 0.355747 0.0298419)
(1.02965e-15 0.395885 0.0423577)
(9.87009e-16 0.387302 0.0282815)
(1.54088e-15 0.415988 0.157566)
(-2.07945e-16 0.265815 0.110826)
(-3.14574e-16 0.276195 0.0935721)
(-7.54891e-16 0.39307 0.107199)
(5.57517e-16 0.328778 0.25079)
(7.56443e-16 0.342117 0.328814)
(7.502e-16 0.299166 0.323979)
(9.60974e-16 0.332899 0.414259)
(8.7269e-16 0.223289 0.311087)
(1.31614e-16 0.224522 0.290032)
(2.42004e-15 0.165788 0.380678)
(-7.08517e-16 0.334918 -0.677103)
(-1.03537e-14 -0.0493796 -1.14188)
(-3.03755e-14 0.221968 -1.54131)
(-5.15311e-15 0.0493087 -3.12728)
(9.71198e-16 -0.307881 -1.57788)
(7.92424e-16 -0.0954026 -1.64993)
(8.96453e-16 0.108719 -1.53561)
(6.22384e-18 -0.321069 -0.712628)
(-1.81587e-15 -0.89996 0.736156)
(-1.67303e-15 -0.646049 0.753724)
(-2.68351e-15 -1.46569 2.54369)
(-2.28398e-15 -1.90884 2.94166)
(-2.29994e-15 -2.10958 2.96845)
(-2.40248e-15 -2.03817 3.1106)
(-3.20798e-15 -3.37127 5.44336)
(-2.3158e-15 -3.64669 4.68004)
(-2.25045e-15 -4.0728 4.70002)
(-2.10434e-15 -3.92808 4.77467)
(-2.42843e-15 -6.02791 7.61031)
(-1.43518e-15 -6.01152 6.11728)
(-1.40691e-15 -5.9943 6.56733)
(-1.47701e-15 -8.49292 10.09)
(-9.28119e-16 -8.24816 7.94446)
(-9.14407e-16 -8.48492 8.71249)
(-1.36844e-15 -9.18189 10.5908)
(-6.28687e-16 -9.01126 10.3248)
(-4.15643e-16 -9.08049 10.63)
(1.08833e-15 -10.5401 12.8515)
(-5.57172e-17 -9.85565 12.0337)
(2.77662e-16 -10.0111 12.6693)
(2.25413e-16 -9.98549 12.8658)
(2.24538e-16 -10.0397 13.0543)
(2.04473e-16 -10.0736 13.211)
(1.43114e-16 -10.1359 13.3456)
(8.95738e-17 -10.1964 13.5023)
(-1.6424e-17 -10.201 13.7468)
(-5.06003e-16 -11.2438 15.7605)
(-1.342e-15 -10.7974 14.8872)
(-2.17807e-15 -10.9183 15.2687)
(-2.92265e-15 -10.9176 15.5339)
(-3.48309e-15 -11.0124 15.9005)
(-4.23003e-15 -11.0556 16.2594)
(-4.71832e-15 -11.1408 16.4947)
(-5.10357e-15 -11.2328 16.7265)
(-5.29637e-15 -11.2801 16.9617)
(-4.88176e-15 -12.1065 18.831)
(-4.00064e-15 -11.5863 17.5832)
(-3.31476e-15 -11.7403 17.8471)
(-2.39258e-15 -11.7688 17.9006)
(-1.42446e-15 -11.8602 18.0836)
(-3.86771e-16 -11.9108 18.3895)
(5.84063e-16 -12.0207 18.7869)
(1.42679e-15 -12.0606 19.0385)
(2.22325e-15 -12.1719 19.335)
(2.82884e-15 -12.2653 19.5806)
(4.44251e-15 -12.4129 20.729)
(3.71185e-15 -12.1134 19.7097)
(4.02677e-15 -12.2222 19.9322)
(4.08952e-15 -12.2483 20.0203)
(4.19271e-15 -12.3433 20.1833)
(4.19194e-15 -12.3714 20.3626)
(4.10104e-15 -12.4718 20.6879)
(4.20958e-15 -12.5003 20.7757)
(4.38358e-15 -12.6224 20.7494)
(5.67014e-15 -11.8602 20.1786)
(4.48288e-15 -11.9081 19.6002)
(4.46843e-15 -11.9452 19.5185)
(4.40377e-15 -12.0031 19.4491)
(4.36088e-15 -11.9866 19.2112)
(4.33798e-15 -12.0292 19.1105)
(4.46259e-15 -12.0354 19.0531)
(4.71945e-15 -11.9956 19.0961)
(5.15438e-15 -12.1954 19.3936)
(6.24043e-15 -10.3054 17.3565)
(5.68043e-15 -10.9176 18.2326)
(6.06146e-15 -10.8269 18.1923)
(6.28581e-15 -10.8128 18.301)
(6.65462e-15 -10.8021 18.5985)
(6.83232e-15 -10.7616 18.6039)
(6.88356e-15 -10.6841 18.45)
(6.8508e-15 -10.6271 18.1978)
(6.76044e-15 -10.6837 17.7461)
(6.86977e-15 -7.99205 13.8616)
(6.57852e-15 -8.98283 15.6474)
(6.07901e-15 -8.72711 14.4287)
(5.70746e-15 -8.76373 13.6043)
(5.43948e-15 -8.61098 12.6452)
(5.4067e-15 -8.50999 11.8159)
(6.23425e-15 -8.35079 11.3068)
(5.47242e-15 -8.13228 10.486)
(5.3426e-15 -7.92853 9.92203)
(5.03694e-15 -7.78796 9.296)
(2.55044e-15 -4.29519 3.80426)
(4.85065e-15 -6.0073 8.17897)
(4.53528e-15 -5.42217 7.1736)
(4.31187e-15 -5.52472 6.93114)
(3.95548e-15 -5.1662 6.22801)
(3.40998e-15 -5.08886 5.32631)
(2.26772e-15 -4.88819 3.46249)
(1.20709e-15 -4.5126 1.57129)
(1.44921e-15 -4.50261 1.49528)
(1.9664e-16 -3.74263 -1.26947)
(1.12652e-15 -3.87253 0.608642)
(8.79312e-16 -3.79704 -0.273172)
(-3.79669e-16 -2.79695 -2.11984)
(2.81015e-16 -4.29809 -1.43038)
(-9.96616e-17 -3.26995 -1.36099)
(-6.81173e-17 -2.97049 -0.897126)
(-1.55026e-16 -3.69362 -1.28624)
(-1.08418e-16 -2.53935 -0.770165)
(-1.64907e-16 -3.24068 -1.1459)
(-2.82311e-17 -2.93563 -0.811521)
(6.88697e-18 -2.40224 -0.572672)
(8.44962e-18 -2.89408 -0.823945)
(1.91677e-17 -2.67597 -0.568607)
(3.24136e-17 -2.28625 -0.379004)
(9.18374e-17 -3.03694 -0.51054)
(1.1189e-16 -2.08422 -0.265429)
(2.00545e-16 -2.74848 -0.367302)
(1.54416e-16 -2.47023 -0.212402)
(9.06511e-17 -2.17289 -0.108542)
(1.10232e-16 -2.92543 -0.140774)
(1.1765e-16 -2.02034 -0.0274756)
(7.77475e-17 -2.71803 -0.0199474)
(-2.91438e-17 -2.57006 0.018519)
(-8.12211e-17 -2.13485 0.0557042)
(-1.91479e-16 -2.67008 0.0716655)
(-2.24691e-16 -2.5494 0.0709389)
(-1.49492e-16 -2.21739 0.0875233)
(-2.8683e-16 -3.03324 0.0971995)
(-2.57794e-16 -2.11898 0.0970278)
(-3.79415e-16 -2.83704 0.14463)
(-1.34451e-16 -2.60636 0.103772)
(-1.37143e-16 -2.30471 0.106769)
(-1.74693e-16 -3.14217 0.121782)
(-1.26114e-16 -2.18288 0.10677)
(-1.89538e-16 -2.94642 0.158666)
(-1.66901e-16 -2.80288 0.0882366)
(-7.6707e-17 -2.32073 0.0861038)
(-1.50158e-16 -2.90391 0.0878334)
(-1.30937e-16 -2.767 0.0234183)
(-8.72663e-17 -2.39402 0.0274334)
(-1.54774e-16 -3.26753 -0.00855027)
(-1.33752e-16 -2.25892 -0.0104901)
(-2.28004e-16 -3.01587 -0.0382051)
(-2.55084e-16 -2.74195 -0.0995709)
(-2.362e-16 -2.39974 -0.0751551)
(-3.29717e-16 -3.25153 -0.147825)
(-2.25102e-16 -2.21723 -0.108585)
(-3.58697e-16 -2.97957 -0.175925)
(-3.03426e-16 -2.79216 -0.215942)
(-2.1157e-16 -2.27504 -0.165201)
(-3.12472e-16 -2.82468 -0.27731)
(-2.56201e-16 -2.65342 -0.283425)
(-2.06273e-16 -2.25644 -0.215681)
(-2.92957e-16 -3.06543 -0.325992)
(-2.63158e-16 -2.06519 -0.23059)
(-3.47203e-16 -2.75576 -0.35226)
(-1.84284e-16 -2.45532 -0.346806)
(-1.30617e-16 -2.11488 -0.269935)
(-1.41908e-16 -2.86168 -0.397702)
(-7.43176e-17 -1.89313 -0.283161)
(-1.13392e-16 -2.55429 -0.428544)
(-7.94663e-17 -2.33875 -0.418599)
(-5.95398e-17 -1.865 -0.331202)
(-1.07152e-16 -2.31715 -0.511626)
(-5.36889e-17 -2.12556 -0.478953)
(-1.17664e-16 -1.76279 -0.377102)
(-1.42599e-16 -2.4151 -0.541552)
(-1.45352e-16 -1.5414 -0.391182)
(-1.98658e-16 -2.09474 -0.595246)
(-1.51037e-16 -1.79113 -0.552875)
(-1.12415e-16 -1.49334 -0.441937)
(-1.50046e-16 -2.05731 -0.629662)
(-9.36771e-17 -1.24635 -0.458393)
(-1.03721e-16 -1.74885 -0.697334)
(-3.07389e-17 -1.51278 -0.648531)
(-8.25358e-17 -1.12209 -0.52632)
(-1.05919e-16 -1.44806 -0.795965)
(-1.8975e-16 -1.23263 -0.723547)
(-1.51189e-16 -0.933297 -0.575208)
(-2.16269e-16 -1.41655 -0.806024)
(-1.86797e-16 -0.686102 -0.588269)
(-2.78768e-16 -0.991957 -0.905823)
(4.56034e-47 0.245083 0.267404)
(2.13207e-46 0.301994 0.264664)
(4.41618e-46 0.337698 0.266549)
(-1.10892e-46 0.372743 0.267647)
(-5.16363e-45 0.406809 0.270444)
(-2.19932e-44 0.43908 0.273508)
(-4.03584e-44 0.470717 0.277532)
(6.82069e-44 0.501409 0.282106)
(7.33798e-43 0.531603 0.287425)
(2.2748e-42 0.561294 0.293366)
(1.05445e-42 0.590683 0.299983)
(-2.12794e-41 0.619839 0.307236)
(-9.64824e-41 0.648882 0.315137)
(-1.41564e-40 0.67789 0.323674)
(5.28184e-40 0.706947 0.332849)
(3.65161e-39 0.736123 0.342658)
(8.30891e-39 0.765482 0.353101)
(-8.63087e-39 0.795076 0.364176)
(-1.27169e-37 0.824948 0.375882)
(-3.9894e-37 0.855128 0.388215)
(-1.16726e-37 0.88563 0.40117)
(4.0799e-36 0.916452 0.414738)
(1.71846e-35 0.947573 0.428906)
(1.99328e-35 0.978951 0.443656)
(-1.18622e-34 1.01053 0.458964)
(-6.74339e-34 1.04222 0.474802)
(-1.20535e-33 1.07394 0.491137)
(2.93987e-33 1.10561 0.507934)
(2.37076e-32 1.13712 0.525157)
(5.44402e-32 1.16843 0.542772)
(-4.97065e-32 1.19951 0.560751)
(-7.16821e-31 1.23035 0.579071)
(-2.00205e-30 1.26101 0.597715)
(-1.68469e-31 1.29158 0.616671)
(1.73028e-29 1.32217 0.635926)
(5.85178e-29 1.35291 0.655469)
(4.8874e-29 1.38392 0.675283)
(-2.90893e-28 1.41535 0.69535)
(-1.20994e-27 1.44737 0.715661)
(-1.49857e-27 1.48023 0.736215)
(3.1677e-27 1.51427 0.757025)
(1.32483e-26 1.54989 0.778087)
(-4.19689e-27 1.58744 0.799339)
(-1.24051e-25 1.62701 0.820611)
(-1.76947e-25 1.6684 0.841595)
(1.36641e-24 1.71107 0.861833)
(8.77525e-24 1.75428 0.880711)
(2.38337e-23 1.79709 0.897456)
(1.17672e-23 1.83848 0.911125)
(-1.97227e-22 1.87736 0.92057)
(-1.05504e-21 1.91249 0.924376)
(-3.19476e-21 1.9423 0.920761)
(-5.97607e-21 1.96457 0.907467)
(-1.81627e-21 1.97606 0.88168)
(3.973e-20 1.97192 0.840023)
(2.09227e-19 1.94527 0.778676)
(7.34546e-19 1.88635 0.693645)
(2.12895e-18 1.78097 0.58131)
(5.45776e-18 1.60951 0.438575)
(1.26912e-17 1.33067 0.266102)
(2.60025e-17 0.850517 0.0692745)
(2.84196e-17 -0.292306 -0.275671)
(3.20689e-18 -1.07187 -0.328186)
(7.55311e-20 -1.62031 -0.34822)
(-5.67741e-20 -2.11493 -0.367107)
(-1.06051e-20 -2.60116 -0.38092)
(-4.62541e-22 -3.04359 -0.390307)
(1.40504e-22 -3.42917 -0.392607)
(1.47493e-23 -3.71556 -0.400223)
(-1.30892e-23 -3.92391 -0.390834)
(-2.58191e-23 -3.98879 -0.39203)
(2.34037e-23 -4.03396 -0.353725)
(-9.89489e-23 -3.90723 -0.355867)
(3.90497e-22 -4.00494 -0.271097)
(-1.34116e-21 -3.67901 -0.34107)
(1.88994e-20 -4.18566 -0.168456)
(-3.31672e-19 -3.54098 -0.429954)
(4.0823e-18 -4.40989 -0.21134)
(1.58104e-17 -5.99359 -0.49007)
(1.07365e-46 0.245683 0.289546)
(5.71678e-46 0.302232 0.285362)
(1.34482e-45 0.337297 0.287138)
(4.93387e-46 0.372177 0.287881)
(-1.18313e-44 0.40592 0.290656)
(-5.84511e-44 0.437986 0.293694)
(-1.2866e-43 0.469377 0.297819)
(8.65338e-44 0.499857 0.302534)
(1.78372e-42 0.52983 0.308067)
(6.40938e-42 0.559311 0.314266)
(6.13456e-42 0.588489 0.321195)
(-4.72296e-41 0.617439 0.328802)
(-2.55712e-40 0.646276 0.337103)
(-4.71003e-40 0.675079 0.346081)
(1.03874e-39 0.703933 0.355736)
(9.26603e-39 0.732906 0.366063)
(2.38661e-38 0.762062 0.37706)
(-1.21793e-38 0.791455 0.388721)
(-3.10628e-37 0.821126 0.401044)
(-1.03763e-36 0.851107 0.414019)
(-4.78896e-37 0.881413 0.427637)
(9.59662e-36 0.912043 0.441883)
(4.09615e-35 0.942976 0.456737)
(4.7219e-35 0.974174 0.472174)
(-2.6891e-34 1.00558 0.488162)
(-1.48602e-33 1.03711 0.504667)
(-2.52611e-33 1.06868 0.521651)
(6.45752e-33 1.10021 0.539075)
(4.88526e-32 1.1316 0.556906)
(1.07064e-31 1.16279 0.575115)
(-1.05757e-31 1.19375 0.593682)
(-1.38741e-30 1.22448 0.612596)
(-3.78379e-30 1.25504 0.631852)
(-5.51606e-31 1.28551 0.651451)
(3.01453e-29 1.31601 0.671388)
(1.04267e-28 1.34666 0.691655)
(1.16086e-28 1.37759 0.712237)
(-3.26931e-28 1.40893 0.733124)
(-1.63948e-27 1.44087 0.754318)
(-3.12438e-27 1.47364 0.775848)
(-4.12599e-27 1.5076 0.79775)
(-1.70359e-26 1.54315 0.82003)
(-7.56121e-26 1.58066 0.842595)
(-5.37136e-26 1.62028 0.865199)
(1.23766e-24 1.66183 0.88743)
(7.83583e-24 1.70485 0.908727)
(2.46532e-23 1.74862 0.928386)
(3.09278e-23 1.79228 0.945566)
(-1.18542e-22 1.83485 0.959272)
(-9.007e-22 1.87532 0.968312)
(-3.24829e-21 1.91254 0.971198)
(-7.54844e-21 1.94508 0.966027)
(-8.33755e-21 1.97092 0.950339)
(2.26987e-20 1.98695 0.921038)
(1.79643e-19 1.98852 0.874432)
(7.14391e-19 1.96883 0.806412)
(2.21003e-18 1.91809 0.712781)
(5.87603e-18 1.82198 0.590016)
(1.40111e-17 1.66012 0.43464)
(3.0489e-17 1.39047 0.247681)
(5.89568e-17 0.934965 0.0368931)
(6.19072e-17 -0.296041 -0.381668)
(5.80793e-18 -1.10156 -0.377549)
(-1.6784e-19 -1.6498 -0.36975)
(-8.04845e-20 -2.14469 -0.381876)
(-1.12602e-20 -2.63228 -0.390615)
(-4.11345e-22 -3.07403 -0.393692)
(1.62396e-22 -3.45655 -0.391123)
(1.79612e-23 -3.74025 -0.394993)
(-1.30836e-23 -3.94461 -0.382992)
(-2.5883e-23 -4.0078 -0.382832)
(2.31957e-23 -4.048 -0.344533)
(-9.87474e-23 -3.92172 -0.346855)
(3.89797e-22 -4.00726 -0.263734)
(-1.3615e-21 -3.68731 -0.333888)
(1.93943e-20 -4.16907 -0.16444)
(-3.38321e-19 -3.52705 -0.421877)
(4.02573e-18 -4.38937 -0.208394)
(1.6313e-17 -5.90439 -0.493869)
(2.00745e-46 0.246088 0.301368)
(1.20277e-45 0.302435 0.29662)
(3.10144e-45 0.337129 0.298322)
(2.40909e-45 0.371916 0.298886)
(-2.12084e-44 0.405483 0.301652)
(-1.20977e-43 0.437441 0.304682)
(-3.03715e-43 0.468703 0.308868)
(9.19724e-45 0.499074 0.313664)
(3.36854e-42 0.528932 0.319318)
(1.38043e-41 0.558305 0.325664)
(1.85945e-41 0.587375 0.332766)
(-7.9605e-41 0.616219 0.340572)
(-5.21285e-40 0.644951 0.349096)
(-1.13962e-39 0.673651 0.358318)
(1.4248e-39 0.702401 0.36824)
(1.80914e-38 0.731272 0.378853)
(5.25599e-38 0.760327 0.390155)
(-2.16427e-39 0.789619 0.402139)
(-5.82534e-37 0.819191 0.414799)
(-2.12454e-36 0.849075 0.428126)
(-1.49792e-36 0.879286 0.442105)
(1.72805e-35 0.909824 0.456719)
(7.8205e-35 0.940671 0.471944)
(9.81284e-35 0.971788 0.48775)
(-4.66292e-34 1.00312 0.504103)
(-2.65581e-33 1.03458 0.520963)
(-4.5463e-33 1.06609 0.538292)
(1.08928e-32 1.09755 0.55605)
(8.27489e-32 1.12889 0.574206)
(1.79381e-31 1.16003 0.592734)
(-1.71462e-31 1.19094 0.611623)
(-2.25729e-30 1.22162 0.630866)
(-6.22288e-30 1.25213 0.650469)
(-1.85416e-30 1.28254 0.670435)
(4.52078e-29 1.31298 0.690764)
(1.72122e-28 1.34358 0.711449)
(2.77676e-28 1.37446 0.732475)
(-1.46651e-28 1.40575 0.753834)
(-2.26298e-27 1.43763 0.775541)
(-8.93063e-27 1.47033 0.797641)
(-3.05033e-26 1.50421 0.820187)
(-8.87393e-26 1.5397 0.843188)
(-1.12354e-25 1.57718 0.866526)
(6.8287e-25 1.61683 0.889901)
(5.47851e-24 1.6585 0.912841)
(2.06054e-23 1.70174 0.934733)
(4.11724e-23 1.74586 0.954835)
(-2.17955e-23 1.79 0.972276)
(-5.40375e-22 1.83323 0.986055)
(-2.44863e-21 1.87455 0.994963)
(-6.92016e-21 1.91289 0.997489)
(-1.18588e-20 1.94689 0.991667)
(1.59147e-21 1.97463 0.974937)
(1.06675e-19 1.9931 0.944074)
(5.17146e-19 1.99772 0.895282)
(1.75613e-18 1.98172 0.824421)
(4.94429e-18 1.93525 0.727367)
(1.22335e-17 1.8439 0.600896)
(2.73925e-17 1.68689 0.441373)
(5.62727e-17 1.42182 0.25004)
(1.03833e-16 0.977861 0.0340879)
(1.22006e-16 -0.24207 -0.393053)
(1.1406e-17 -1.09649 -0.448485)
(-6.00459e-19 -1.63527 -0.403901)
(-1.42832e-19 -2.12745 -0.403852)
(-1.26158e-20 -2.6163 -0.406199)
(-1.81019e-22 -3.06012 -0.400115)
(2.03559e-22 -3.44395 -0.389958)
(2.19374e-23 -3.73039 -0.388166)
(-1.3162e-23 -3.93729 -0.372087)
(-2.59694e-23 -4.00541 -0.369637)
(2.29452e-23 -4.04768 -0.331188)
(-9.85069e-23 -3.92826 -0.333482)
(3.89024e-22 -4.0086 -0.252563)
(-1.3862e-21 -3.69955 -0.322869)
(1.99958e-20 -4.16223 -0.157065)
(-3.45992e-19 -3.52619 -0.411581)
(3.95681e-18 -4.38604 -0.198648)
(1.67725e-17 -5.84369 -0.50165)
(3.62332e-46 0.246726 0.31522)
(2.48135e-45 0.302745 0.309943)
(6.96223e-45 0.336913 0.31158)
(7.85869e-45 0.371546 0.311981)
(-3.57022e-44 0.404851 0.314753)
(-2.43625e-43 0.43664 0.317795)
(-6.91757e-43 0.467707 0.322065)
(-3.50662e-43 0.497911 0.326974)
(6.04766e-42 0.527596 0.332784)
(2.88048e-41 0.556806 0.339315)
(5.00628e-41 0.585713 0.346637)
(-1.19336e-40 0.614397 0.35469)
(-1.02421e-39 0.642971 0.363489)
(-2.64468e-39 0.671514 0.373012)
(1.21943e-39 0.700109 0.383262)
(3.37724e-38 0.728825 0.394226)
(1.12944e-37 0.757727 0.405903)
(5.04829e-38 0.786867 0.418283)
(-1.03297e-36 0.816289 0.431359)
(-4.28013e-36 0.846025 0.445117)
(-4.42722e-36 0.876092 0.459542)
(2.90089e-35 0.906492 0.474611)
(1.47507e-34 0.937206 0.490296)
(2.16269e-34 0.968196 0.506562)
(-7.44218e-34 0.999406 0.523371)
(-4.69605e-33 1.03076 0.540678)
(-8.56792e-33 1.06217 0.558442)
(1.69248e-32 1.09354 0.576623)
(1.39669e-31 1.12479 0.595189)
(3.09979e-31 1.15585 0.614121)
(-2.613e-31 1.18668 0.633411)
(-3.76786e-30 1.21728 0.653064)
(-1.07715e-29 1.2477 0.673091)
(-4.97026e-30 1.27804 0.693505)
(7.46446e-29 1.3084 0.71431)
(3.24739e-28 1.33891 0.735499)
(6.81386e-28 1.36972 0.757059)
(2.24721e-28 1.40093 0.778986)
(-4.95439e-27 1.43273 0.801306)
(-2.79648e-26 1.46534 0.824082)
(-9.88484e-26 1.49912 0.847391)
(-2.08396e-25 1.53451 0.871249)
(1.23347e-25 1.57195 0.895516)
(3.34604e-24 1.61165 0.919836)
(1.61266e-23 1.65348 0.94367)
(4.37007e-23 1.69704 0.966343)
(4.08813e-23 1.74166 0.98706)
(-2.59617e-22 1.78651 1.00492)
(-1.69678e-21 1.83068 1.01889)
(-5.84607e-21 1.87326 1.02776)
(-1.30551e-20 1.91323 1.02999)
(-1.23977e-20 1.94938 1.02356)
(5.01438e-20 1.9799 1.00581)
(3.50556e-19 2.00194 0.973433)
(1.35048e-18 2.01099 0.922582)
(4.08833e-18 2.00031 0.849197)
(1.06229e-17 1.95999 0.749364)
(2.46061e-17 1.87548 0.620224)
(5.1904e-17 1.72549 0.457937)
(1.00868e-16 1.46777 0.264035)
(1.77888e-16 1.03682 0.0402816)
(2.36003e-16 -0.202921 -0.41057)
(2.31488e-17 -1.10151 -0.529645)
(-1.14686e-18 -1.63772 -0.455445)
(-2.91565e-19 -2.12362 -0.434938)
(-1.95822e-20 -2.61286 -0.427857)
(4.47541e-22 -3.05804 -0.410279)
(3.15506e-22 -3.44168 -0.389687)
(2.65314e-23 -3.72901 -0.380268)
(-1.36363e-23 -3.93645 -0.358609)
(-2.60772e-23 -4.00705 -0.352889)
(2.26945e-23 -4.04961 -0.31396)
(-9.82675e-23 -3.93457 -0.316216)
(3.88327e-22 -4.0094 -0.237737)
(-1.41112e-21 -3.70851 -0.308747)
(2.06046e-20 -4.15495 -0.146649)
(-3.53302e-19 -3.52318 -0.399472)
(3.88867e-18 -4.37976 -0.186907)
(1.70787e-17 -5.79342 -0.480316)
(6.18536e-46 0.247357 0.328361)
(4.96768e-45 0.303068 0.32274)
(1.51133e-44 0.336754 0.324322)
(2.18772e-44 0.371238 0.324602)
(-5.36253e-44 0.404299 0.327389)
(-4.70761e-43 0.435932 0.33046)
(-1.51246e-42 0.466819 0.334822)
(-1.49857e-42 0.496869 0.339852)
(9.97837e-42 0.526397 0.345821)
(5.75244e-41 0.555458 0.352542)
(1.2416e-40 0.584216 0.360083)
(-1.37153e-40 0.612756 0.368383)
(-1.90556e-39 0.641186 0.377457)
(-5.85553e-39 0.669587 0.387281)
(-1.3841e-39 0.698042 0.397855)
(5.88392e-38 0.726619 0.409167)
(2.33645e-37 0.755383 0.421214)
(2.24108e-37 0.784387 0.433986)
(-1.67329e-36 0.813675 0.447471)
(-8.32992e-36 0.843281 0.461655)
(-1.2034e-35 0.873222 0.476519)
(4.31124e-35 0.903501 0.492037)
(2.68488e-34 0.9341 0.508175)
(4.80337e-34 0.964985 0.524896)
(-1.01755e-33 0.996097 0.542155)
(-7.9743e-33 1.02736 0.559904)
(-1.62935e-32 1.05869 0.578098)
(2.26865e-32 1.08999 0.596696)
(2.27376e-31 1.12117 0.615669)
(5.29633e-31 1.15216 0.635)
(-3.87233e-31 1.18292 0.654688)
(-6.34269e-30 1.21345 0.674747)
(-1.87823e-29 1.2438 0.695197)
(-9.25521e-30 1.27405 0.716057)
(1.42064e-28 1.30434 0.737337)
(6.69583e-28 1.33478 0.75903)
(1.52927e-27 1.3655 0.781123)
(3.01038e-28 1.39664 0.803615)
(-1.49679e-26 1.42835 0.826543)
(-8.04173e-26 1.46085 0.849991)
(-2.43092e-25 1.49452 0.87406)
(-2.9397e-25 1.52981 0.898777)
(1.44459e-24 1.56719 0.923982)
(1.098e-23 1.60693 0.949265)
(3.90106e-23 1.64894 0.974016)
(7.30175e-23 1.69281 0.997503)
(-5.54433e-23 1.73792 1.01888)
(-1.02435e-21 1.78344 1.03721)
(-4.49324e-21 1.8285 1.05147)
(-1.23939e-20 1.87223 1.06043)
(-2.0158e-20 1.91371 1.06253)
(8.77586e-21 1.95181 1.05574)
(2.12653e-19 1.98487 1.03738)
(9.86068e-19 2.01013 1.00413)
(3.26937e-18 2.02316 0.952293)
(9.00878e-18 2.0172 0.878111)
(2.17649e-17 1.98223 0.7781)
(4.73378e-17 1.90365 0.649812)
(9.41877e-17 1.75976 0.489044)
(1.73226e-16 1.50933 0.297077)
(2.92223e-16 1.08951 0.0671853)
(4.13112e-16 -0.0951506 -0.390205)
(4.60366e-17 -1.10741 -0.606372)
(-1.34424e-18 -1.6526 -0.528051)
(-6.22913e-19 -2.13163 -0.479857)
(-4.91643e-20 -2.62011 -0.456767)
(1.7304e-21 -3.06626 -0.425071)
(6.61089e-22 -3.44859 -0.390897)
(3.41652e-23 -3.73536 -0.37147)
(-1.53148e-23 -3.94177 -0.342515)
(-2.62268e-23 -4.01317 -0.332369)
(2.24572e-23 -4.05444 -0.292477)
(-9.8039e-23 -3.94244 -0.294651)
(3.87744e-22 -4.0103 -0.218833)
(-1.43467e-21 -3.71675 -0.291141)
(2.11887e-20 -4.14578 -0.132866)
(-3.59872e-19 -3.51801 -0.385401)
(3.82644e-18 -4.37047 -0.170554)
(1.67343e-17 -5.7362 -0.482773)
(9.84511e-46 0.248061 0.341447)
(9.65091e-45 0.303424 0.335597)
(3.17841e-44 0.336603 0.337136)
(5.55095e-44 0.370913 0.337333)
(-6.45404e-44 0.403707 0.340148)
(-8.67687e-43 0.435165 0.343267)
(-3.17971e-42 0.465854 0.347733)
(-4.61687e-42 0.495735 0.352897)
(1.43803e-41 0.525088 0.359038)
(1.09397e-40 0.553986 0.365961)
(2.89028e-40 0.582581 0.373734)
(-3.85402e-41 0.610962 0.382294)
(-3.3127e-39 0.639235 0.391654)
(-1.23848e-38 0.667481 0.401791)
(-1.10062e-38 0.695782 0.412702)
(9.31897e-38 0.724207 0.424375)
(4.63709e-37 0.75282 0.436806)
(7.00634e-37 0.781676 0.449982)
(-2.34886e-36 0.810819 0.463891)
(-1.55555e-35 0.840282 0.478517)
(-3.03672e-35 0.870087 0.493836)
(5.06952e-35 0.900234 0.509818)
(4.65993e-34 0.930711 0.526428)
(1.05167e-33 0.961481 0.543621)
(-9.62934e-34 0.992488 0.561348)
(-1.27156e-32 1.02366 0.579558)
(-3.06911e-32 1.0549 0.598201)
(2.14706e-32 1.08612 0.617235)
(3.46067e-31 1.11722 0.636633)
(8.62889e-31 1.14814 0.656381)
(-6.02905e-31 1.17883 0.676486)
(-1.06176e-29 1.20928 0.696969)
(-3.14005e-29 1.23955 0.717859)
(-6.79447e-30 1.26971 0.739184)
(3.1108e-28 1.29991 0.760958)
(1.41318e-27 1.33027 0.783175)
(2.92481e-27 1.36091 0.805822)
(-2.39068e-27 1.39196 0.828899)
(-4.64463e-26 1.42356 0.852453)
(-2.05199e-25 1.45595 0.876594)
(-4.77698e-25 1.48947 0.901448)
(6.27332e-26 1.52464 0.927058)
(6.04175e-24 1.56196 0.953248)
(2.96749e-23 1.60175 0.97955)
(7.98208e-23 1.64394 1.00529)
(7.21497e-23 1.68817 1.02966)
(-4.81165e-22 1.73382 1.05178)
(-3.09098e-21 1.78007 1.07069)
(-1.05124e-20 1.82611 1.08534)
(-2.28813e-20 1.87109 1.09451)
(-1.8666e-20 1.91418 1.09668)
(1.04356e-19 1.95437 1.08982)
(6.7122e-19 1.99013 1.07133)
(2.51213e-18 2.0188 1.03807)
(7.43359e-18 2.03595 0.986744)
(1.88717e-17 2.03479 0.914161)
(4.2598e-17 2.00523 0.817422)