/*--------------------------------*- C++ -*----------------------------------*\
| =========                 |                                                 |
| \\      /  F ield         | OpenFOAM: The Open Source CFD Toolbox           |
|  \\    /   O peration     | Version:  4.1                                   |
|   \\  /    A nd           | Web:      www.OpenFOAM.org                      |
|    \\/     M anipulation  |                                                 |
\*---------------------------------------------------------------------------*/
FoamFile
{
    version     2.0;
    format      ascii;
    class       volScalarField;
    location    "21";
    object      p;
}
// * * * * * * * * * * * * * * * * * * * * * * * * * * * * * * * * * * * * * //

dimensions      [0 2 -2 0 0 0 0];

internalField   nonuniform List<scalar> 
6785
(
590.449
512.009
465.077
411.687
364.945
319.878
277.878
238.087
200.466
164.898
130.658
97.591
70.2069
42.0973
0.688184
-20.5279
-38.9762
-29.1892
-36.7231
-36.2957
-39.0191
-39.8712
-40.5751
-40.2719
-39.0279
-36.8002
-33.7185
-28.8396
-24.126
-22.421
-17.7664
-23.0904
-14.8604
-20.487
-17.8236
-20.1892
-20.6302
-22.3665
-23.9078
-25.867
-27.8937
-29.7262
-30.3999
-30.3909
-28.9304
-8.06746
-11.0651
-7.9748
-13.2948
-11.6581
-14.912
-15.4321
-17.1257
-18.111
-19.112
-19.6981
-19.9168
-18.6848
-17.0745
-14.0396
1.64581
1.06761
4.98083
3.00009
7.08549
6.90027
9.45438
10.9372
12.9872
15.0237
17.2397
19.4072
21.8864
23.6425
26.1108
27.8733
28.5477
31.734
30.6531
33.9853
33.8072
35.8365
36.6143
37.8276
38.8912
40.0578
41.2059
42.5054
43.404
44.6452
42.8081
43.7012
45.6574
45.0483
47.465
47.3667
49.0501
49.5199
50.3207
50.4058
50.1184
49.5763
49.2014
49.4195
49.6381
54.4278
53.3084
54.5027
52.7073
53.7963
52.1511
52.1497
50.5134
49.1524
47.0378
45.0083
43.1362
41.9284
41.6799
39.8696
31.6711
27.2118
26.9724
23.4822
22.8413
20.0797
19.0654
17.1616
16.2483
14.9789
13.8906
12.8251
12.3559
11.344
7.99374
-10.9171
-15.7385
-16.4426
-19.8143
-21.3165
-24.5803
-26.7935
-29.7657
-32.2248
-34.8014
-36.8608
-38.086
-38.8593
-39.5886
-38.6253
-27.1576
-28.5528
-28.2294
-29.9034
-29.9099
-31.371
-31.91
-32.902
-33.2099
-33.1089
-32.2115
-30.7046
-28.4643
-26.6993
-23.769
-7.23965
-5.47553
-3.77233
-3.02955
-1.24286
-0.215127
1.39704
2.80062
4.4206
6.05032
7.80484
9.43654
11.2541
12.5169
14.7292
20.3208
21.8306
22.6099
23.0424
23.9616
24.2866
24.9355
25.4242
26.0091
26.5845
27.2367
27.8289
28.565
29.0637
29.8431
28.4366
31.0213
30.6107
30.1097
29.9603
29.9293
30.2942
30.5917
31.0176
31.3698
31.685
31.8566
32.0072
31.9911
31.9771
77.5385
75.877
70.0713
61.9611
55.7963
50.8906
45.6805
41.3348
37.7248
34.4308
31.6533
29.4853
27.4062
25.9764
23.291
35.9304
36.3925
36.7389
36.723
36.8708
37.3266
38.0697
37.8723
37.7844
37.6685
38.1605
37.6187
37.4747
37.7316
36.9595
36.8082
36.9321
37.0837
35.8277
36.4638
36.4828
35.3517
35.257
36.1608
36.1102
34.9887
34.9748
35.944
36.2382
34.904
36.1041
36.4196
35.4796
35.5477
36.4418
36.9413
36.0067
36.8522
37.399
36.8041
36.8812
37.4694
37.9228
37.4902
37.5454
37.9761
38.1887
37.7704
38.1339
38.3133
38.0732
38.1321
38.355
38.8266
38.707
38.7352
38.8476
39.5882
39.5
39.5967
39.7578
39.7366
39.8142
39.7397
40.1715
40.5456
41.5754
39.9763
38.3966
40.2093
42.3689
33.0005
29.0472
33.7619
38.807
9.53836
22.2158
30.3679
-22.2163
-6.34218
1.48606
-1.41842
3.23628
-4.75493
-1.78725
2.6776
2.64627
3.22823
3.75327
4.31302
4.40845
7.67353
10.223
4.48257
6.48471
7.71163
9.48587
10.1187
10.9292
10.8934
13.201
20.0418
12.8492
14.4424
13.8854
14.7424
16.6267
17.5103
17.244
16.8553
16.3876
23.9792
19.5632
19.7134
19.0452
18.1092
18.5565
19.8379
19.0067
15.5439
19.2174
21.4776
22.7977
22.854
21.6257
20.7
19.5888
21.0864
17.8266
18.7589
28.7256
26.0121
26.9901
27.194
25.5517
24.25
22.9807
16.9065
21.8102
30.8316
25.325
23.2066
19.7574
17.3208
14.948
13.3082
11.8543
7.90855
1.95494
15.4982
11.021
10.8288
9.51551
7.58836
1.4379
-0.297829
2.44183
-11.1164
6.67048
3.31513
1.57769
9.31798
2.62757
6.41212
5.19704
7.59083
10.866
6.43116
9.22911
11.1056
8.41057
9.71432
9.05856
9.98287
11.4492
9.37682
10.2486
9.67325
10.2996
11.1493
9.48752
10.3019
10.713
9.68
10.0019
9.66083
9.85846
10.1386
9.36523
9.53276
9.2532
9.33173
9.40629
8.80794
8.92509
8.86504
8.45557
8.43065
8.24993
8.18447
8.09057
7.76069
7.68144
7.51181
7.47048
7.43359
7.02891
6.88613
6.8946
6.51323
6.3261
6.22935
6.00688
5.88008
5.63661
5.46007
5.28673
5.11553
4.94528
4.75555
4.54659
4.35428
4.22644
3.99758
3.77537
3.6363
3.41593
3.30857
3.0033
2.74414
2.59084
2.3278
2.26845
1.89462
1.5478
1.53024
1.02597
0.654112
0.37728
-0.00500917
0.00236193
0.00504525
0.00676915
0.00889676
0.010479
0.0123225
0.0138589
0.0155035
0.0170755
0.0188662
0.0209097
0.0233122
0.026018
0.0290556
0.03238
0.0359597
0.0397303
0.0435556
0.0472694
0.0507704
0.0542436
0.0583431
0.0640172
0.0718001
0.0809736
0.0894486
0.0946463
0.0946492
0.0888548
0.0779854
0.0636523
0.0477605
0.0318861
0.0168646
0.00276043
-0.0108897
-0.0247771
-0.0395215
-0.0551871
-0.071694
-0.0930533
-0.149405
-0.231384
-0.161516
-0.696347
-0.558787
-0.650153
-0.796064
-0.930448
-1.05711
-1.16189
-1.21623
-1.21065
-1.16309
-1.06798
-0.925007
-0.748833
-0.542017
-0.294134
-0.0223204
0.244145
0.462085
0.624608
0.734534
0.799486
0.820714
0.805601
0.74853
0.663337
0.544932
0.418133
0.281298
0.162877
0.0844412
0.146788
0.119786
0.181338
0.122955
0.437033
0.00583369
0.0125179
0.0169886
0.022654
0.0265557
0.0312953
0.0350614
0.039147
0.0429825
0.047426
0.0525576
0.058662
0.0655499
0.0732854
0.0817296
0.0908119
0.100409
0.110193
0.119564
0.127424
0.132125
0.131722
0.124697
0.110954
0.0923897
0.0725368
0.0552635
0.0431455
0.0365985
0.0342574
0.0339477
0.0336083
0.0316604
0.0269565
0.0186125
0.00584233
-0.0121184
-0.036066
-0.0671865
-0.108344
-0.160446
-0.252693
-0.405711
-0.116192
-1.01449
-0.818059
-0.993572
-1.23677
-1.46255
-1.6707
-1.83187
-1.89674
-1.85503
-1.72671
-1.50506
-1.20642
-0.853236
-0.459735
-0.0388849
0.374989
0.752165
1.06158
1.30171
1.47188
1.57735
1.61224
1.58216
1.47628
1.31104
1.08403
0.836299
0.575445
0.378107
0.259497
0.378129
0.340728
0.495276
0.373774
1.24119
0.00926856
0.0209551
0.0287919
0.0385794
0.0454376
0.0536684
0.0602773
0.0674066
0.0741183
0.0818525
0.0907573
0.101313
0.113208
0.126555
0.141122
0.156793
0.173361
0.190311
0.20677
0.221278
0.231848
0.236401
0.233587
0.223625
0.20846
0.191012
0.173889
0.158209
0.143486
0.128551
0.112419
0.0946074
0.0747866
0.0522907
0.0259518
-0.00581321
-0.044787
-0.0927338
-0.151288
-0.223579
-0.3134
-0.467796
-0.69985
-0.0518648
-1.12047
-0.891979
-1.10321
-1.39732
-1.66797
-1.91473
-2.1045
-2.17605
-2.11905
-1.95569
-1.67904
-1.31146
-0.879372
-0.403311
0.0956041
0.575867
1.00702
1.36059
1.63738
1.83616
1.96181
2.00469
1.96953
1.84146
1.64073
1.36232
1.06357
0.746843
0.53584
0.434341
0.639378
0.576731
0.825902
0.641105
1.54125
0.0121876
0.0285493
0.0394259
0.0531379
0.0626708
0.0741516
0.0833323
0.0932265
0.102517
0.113228
0.125579
0.140228
0.156731
0.175243
0.195435
0.217152
0.240106
0.263564
0.286242
0.305951
0.319684
0.324269
0.317586
0.299831
0.273916
0.244502
0.216115
0.191298
0.170152
0.151347
0.133158
0.11403
0.0924389
0.0666034
0.0344329
-0.00639938
-0.0583032
-0.12362
-0.204548
-0.305091
-0.428992
-0.615914
-0.877051
-0.0751973
-1.43657
-1.09925
-1.31484
-1.68176
-2.01696
-2.3196
-2.5536
-2.6404
-2.56846
-2.36514
-2.02294
-1.56932
-1.03699
-0.452597
0.157733
0.743968
1.26983
1.70134
2.03966
2.28361
2.43931
2.49408
2.45329
2.29725
2.0522
1.70945
1.34517
0.959027
0.711047
0.613042
0.880493
0.809486
1.13935
0.911845
1.80405
0.0148173
0.0361816
0.0501114
0.0679128
0.0802247
0.0950863
0.10695
0.11971
0.131668
0.145446
0.161351
0.180216
0.20146
0.225286
0.251261
0.279195
0.308684
0.338704
0.367436
0.391893
0.408255
0.412925
0.404084
0.382961
0.353656
0.321384
0.290319
0.262103
0.236056
0.210649
0.184441
0.156303
0.124918
0.0883198
0.0438917
-0.0114429
-0.0809293
-0.167683
-0.274328
-0.405095
-0.56412
-0.781161
-1.07007
-0.261064
-1.7676
-1.32766
-1.5304
-1.97864
-2.38525
-2.74909
-3.03162
-3.13386
-3.04451
-2.79564
-2.37928
-1.82958
-1.18604
-0.482169
0.248391
0.94598
1.56884
2.08045
2.48286
2.77446
2.96228
3.0299
2.98309
2.79693
2.50323
2.09037
1.65274
1.19141
0.896626
0.794831
1.12444
1.04688
1.45203
1.19608
2.08136
0.0170743
0.043526
0.0603046
0.0822077
0.0972121
0.11542
0.129899
0.145445
0.159969
0.176709
0.196078
0.219066
0.244947
0.27397
0.305589
0.339568
0.375332
0.411441
0.44537
0.473225
0.490437
0.49323
0.480393
0.454257
0.419818
0.382552
0.346483
0.313075
0.281667
0.25094
0.219586
0.186323
0.149322
0.105853
0.05245
-0.014797
-0.0998886
-0.206557
-0.337778
-0.497916
-0.689571
-0.923966
-1.24048
-0.624932
-2.05532
-1.55585
-1.72332
-2.25345
-2.73021
-3.15226
-3.48173
-3.5968
-3.48899
-3.19499
-2.70654
-2.06434
-1.31458
-0.497334
0.34655
1.14843
1.86151
2.4479
2.91039
3.24701
3.46571
3.54622
3.49461
3.28045
2.94103
2.46157
1.95435
1.42292
1.08362
0.980358
1.36345
1.28653
1.7588
1.48888
2.3829
0.0190129
0.0508019
0.0702644
0.0963637
0.114043
0.13564
0.152739
0.171065
0.188123
0.207794
0.230619
0.257733
0.288254
0.322478
0.359723
0.399674
0.441471
0.483086
0.521142
0.550899
0.567425
0.567448
0.551061
0.521921
0.485502
0.446792
0.408938
0.372665
0.337026
0.300899
0.263341
0.22329
0.178766
0.126544
0.0624392
-0.0182616
-0.120317
-0.248038
-0.404658
-0.594405
-0.8172
-1.065
-1.42286
-1.1596
-2.25778
-1.8042
-1.91464
-2.53236
-3.08294
-3.56386
-3.94246
-4.06997
-3.94288
-3.60289
-3.04179
-2.30653
-1.45044
-0.519894
0.437732
1.34516
2.14999
2.81284
3.33666
3.71925
3.96984
4.06426
4.00909
3.76798
3.38383
2.83842
2.26194
1.66212
1.27627
1.17039
1.60232
1.53011
2.0633
1.78995
2.6857
0.0206142
0.0579695
0.0798803
0.110246
0.130537
0.155532
0.175218
0.196275
0.215789
0.238312
0.264544
0.295744
0.330861
0.37023
0.412992
0.458674
0.505958
0.552041
0.59266
0.622479
0.636759
0.633412
0.61408
0.583258
0.546106
0.50661
0.467005
0.427576
0.387481
0.34609
0.302931
0.257066
0.206162
0.146279
0.0723656
-0.0211384
-0.139684
-0.287995
-0.46943
-0.687876
-0.939377
-1.19868
-1.60713
-1.76813
-2.2766
-2.05995
-2.10278
-2.81577
-3.44583
-3.98667
-4.41742
-4.55731
-4.40978
-4.02199
-3.38615
-2.55544
-1.59087
-0.545031
0.528248
1.54314
2.44124
3.18212
3.7687
4.19849
4.48224
4.59174
4.53415
4.26676
3.83802
3.22624
2.57926
1.91151
1.47619
1.36606
1.84047
1.77763
2.36517
2.10308
3.02735
0.0218883
0.0651045
0.0892101
0.123937
0.146781
0.175204
0.197456
0.221202
0.243097
0.268401
0.298007
0.333272
0.372961
0.417426
0.465548
0.516556
0.568458
0.617568
0.658884
0.686953
0.698012
0.69174
0.671145
0.640839
0.605046
0.566455
0.526342
0.484572
0.440452
0.393921
0.345063
0.293152
0.235555
0.167643
0.0835128
-0.0232105
-0.158573
-0.327537
-0.53344
-0.779649
-1.05796
-1.33101
-1.78431
-2.29726
-2.09687
-2.32451
-2.28825
-3.09994
-3.81631
-4.41682
-4.90171
-5.05331
-4.88381
-4.44625
-3.73378
-2.80571
-1.73136
-0.569306
0.620218
1.74293
2.73458
3.55354
4.20329
4.68084
4.99867
5.12436
5.06564
4.77302
4.30029
3.62226
2.90415
2.16966
1.68319
1.56746
2.07906
2.02958
2.66514
2.42477
3.3665
0.0228237
0.0722251
0.0982318
0.137418
0.162742
0.194615
0.219401
0.245784
0.269964
0.297958
0.330896
0.370196
0.414415
0.463867
0.517033
0.572639
0.627839
0.678118
0.718091
0.74293
0.750659
0.74279
0.722953
0.695074
0.662015
0.625099
0.584768
0.540653
0.49241
0.440725
0.386338
0.328733
0.264882
0.18935
0.0953036
-0.0244283
-0.176348
-0.365434
-0.594841
-0.867318
-1.17071
-1.46069
-1.93744
-2.63003
-1.89936
-2.62158
-2.48161
-3.3856
-4.19764
-4.85776
-5.39821
-5.56061
-5.3674
-4.87784
-4.08659
-3.05895
-1.8733
-0.593924
0.71263
1.94369
3.02954
3.92653
4.64006
5.16601
5.51896
5.66208
5.60372
5.28707
4.77098
4.02677
3.23681
2.4367
1.89747
1.77507
2.31839
2.28614
2.96354
2.75218
3.67804
0.0234122
0.0793744
0.106958
0.150714
0.178438
0.213792
0.241083
0.270044
0.296404
0.32699
0.36322
0.406525
0.455207
0.509438
0.567077
0.626143
0.682895
0.732231
0.768996
0.789955
0.795345
0.787904
0.770976
0.747275
0.718185
0.683727
0.643635
0.597395
0.54511
0.48831
0.428468
0.365297
0.295323
0.212241
0.108266
-0.0244977
-0.192829
-0.401494
-0.653338
-0.95051
-1.27789
-1.58893
-2.07296
-2.81338
-1.92761
-2.90475
-2.68999
-3.67192
-4.59205
-5.31322
-5.91016
-6.0819
-5.86301
-5.31889
-4.44625
-3.31628
-2.01733
-0.619041
0.805724
2.14594
3.3268
4.30198
5.07981
5.65485
6.0441
6.20604
6.14961
5.81021
5.25128
4.44071
3.57778
2.71288
2.11923
1.98898
2.55884
2.54744
3.26109
3.08668
4.00266
0.0236357
0.0865829
0.115382
0.163829
0.193865
0.232732
0.262496
0.293967
0.322384
0.35545
0.394928
0.442189
0.495201
0.553798
0.61496
0.675902
0.732126
0.778384
0.810729
0.828312
0.833225
0.828427
0.816281
0.798082
0.773789
0.742221
0.70252
0.654116
0.597675
0.535708
0.470519
0.40205
0.326284
0.235928
0.122208
-0.0234057
-0.207764
-0.435228
-0.708261
-1.02852
-1.37928
-1.71584
-2.20561
-2.95378
-2.29512
-3.00093
-2.90819
-3.95682
-5.00012
-5.78615
-6.44025
-6.6189
-6.3717
-5.77018
-4.81318
-3.57768
-2.16316
-0.644123
0.900146
2.35033
3.62697
4.68053
5.52252
6.1474
6.57411
6.75636
6.70356
6.34281
5.74151
4.86426
3.92703
2.99798
2.34838
2.20916
2.80058
2.81346
3.5579
3.42486
4.32762
0.0234719
0.0938878
0.123505
0.176774
0.209029
0.251444
0.28365
0.317558
0.347894
0.383314
0.425991
0.477116
0.534178
0.596404
0.659702
0.720575
0.774031
0.815507
0.84337
0.859184
0.865874
0.865739
0.85985
0.848139
0.82926
0.800919
0.761742
0.711145
0.650447
0.58327
0.512846
0.439338
0.358069
0.260639
0.137274
-0.0210459
-0.22104
-0.466536
-0.759621
-1.10161
-1.47554
-1.84157
-2.34376
-3.08535
-2.79339
-2.80094
-3.15525
-4.2453
-5.42231
-6.27971
-6.99197
-7.17409
-6.89494
-6.2328
-5.1881
-3.84346
-2.31079
-0.668927
0.996284
2.55728
3.93045
5.06267
5.96847
6.64354
7.10892
7.31307
7.26574
6.88519
6.24195
5.29754
4.28442
3.29163
2.58472
2.43551
3.0437
3.08406
3.85445
3.7658
4.62822
0.0228904
0.101325
0.13132
0.189556
0.223929
0.269932
0.304551
0.340813
0.372912
0.410542
0.456342
0.511139
0.571714
0.636412
0.700084
0.758697
0.807314
0.84333
0.867941
0.884203
0.894795
0.900911
0.902343
0.897804
0.884762
0.859854
0.821224
0.768298
0.703152
0.630674
0.555144
0.476916
0.390489
0.286211
0.153318
-0.0175328
-0.232738
-0.495544
-0.807734
-1.17044
-1.56756
-1.96565
-2.48726
-3.20498
-3.15041
-2.55047
-3.4828
-4.55368
-5.85854
-6.79657
-7.56916
-7.75071
-7.43465
-6.70804
-5.57197
-4.1141
-2.46036
-0.693268
1.09452
2.76725
4.23768
5.44907
6.41836
7.14331
7.64862
7.8763
7.83639
7.43776
6.75292
5.74065
4.64976
3.59338
2.8279
2.66776
3.28816
3.35897
4.15107
4.1076
4.98785
0.0218533
0.108934
0.138822
0.202181
0.238565
0.288203
0.32521
0.363736
0.397418
0.437082
0.485873
0.54395
0.607121
0.672752
0.734765
0.78887
0.831362
0.862657
0.886132
0.905059
0.921251
0.93475
0.944232
0.947356
0.940479
0.919154
0.881057
0.82562
0.755792
0.677916
0.597445
0.514857
0.423603
0.312621
0.170207
-0.013087
-0.243156
-0.522695
-0.853326
-1.23617
-1.65672
-2.08829
-2.6344
-3.32669
-3.3888
-2.61031
-3.78922
-4.89233
-6.3072
-7.33849
-8.17543
-8.35252
-7.99308
-7.19726
-5.96567
-4.39
-2.61193
-0.716883
1.19532
2.98079
4.54916
5.84014
6.87286
7.64712
8.19299
8.44606
8.41565
8.00085
7.27468
6.19364
5.02275
3.90257
3.07743
2.90551
3.53382
3.63775
4.44753
4.44929
5.33339
0.0203133
0.116758
0.146
0.214652
0.252939
0.306263
0.345639
0.386327
0.421383
0.462851
0.514364
0.575002
0.639464
0.704227
0.762351
0.81014
0.846637
0.875138
0.899775
0.923168
0.946149
0.967785
0.985816
0.99698
0.996537
0.978902
0.941266
0.883056
0.808247
0.724861
0.639664
0.553125
0.45734
0.339663
0.187576
-0.00818483
-0.252838
-0.548633
-0.897275
-1.3001
-1.74454
-2.21041
-2.78491
-3.46812
-3.63642
-3.08879
-3.83006
-5.26754
-6.76815
-7.90675
-8.81391
-8.9835
-8.57308
-7.70202
-6.37008
-4.67161
-2.76558
-0.739494
1.29916
3.19846
4.86539
6.2362
7.33252
8.15564
8.74216
9.02237
9.0036
8.57472
7.80736
6.65639
5.40292
4.21839
3.33266
3.1482
3.78041
3.91983
4.74406
4.79073
5.68337
0.0182123
0.124845
0.152844
0.22697
0.267048
0.324117
0.365851
0.408588
0.444758
0.487693
0.541407
0.603489
0.66769
0.729556
0.781624
0.822529
0.854649
0.882732
0.910453
0.939562
0.970098
1.00036
1.02732
1.04685
1.0531
1.03924
1.00194
0.940623
0.860478
0.771489
0.681862
0.59181
0.491656
0.367027
0.204867
-0.00348665
-0.262448
-0.574057
-0.940436
-1.36338
-1.83252
-2.33334
-2.93887
-3.6309
-3.90068
-3.63043
-3.59544
-5.73092
-7.25153
-8.5026
-9.48698
-9.64722
-9.17785
-8.22433
-6.78621
-4.95935
-2.92138
-0.760822
1.40653
3.42084
5.18691
6.63766
7.79751
8.66946
9.29657
9.60492
9.6002
9.15958
8.35106
7.12873
5.7897
4.53985
3.5928
3.3951
4.02758
4.20449
5.04039
5.12901
6.0325
0.0154797
0.133248
0.159341
0.239134
0.280892
0.34177
0.385862
0.430511
0.46745
0.511307
0.566337
0.628469
0.690702
0.747408
0.792104
0.827264
0.857432
0.887185
0.91932
0.954915
0.993477
1.03272
1.06892
1.09715
1.11035
1.10032
1.06319
0.998345
0.912455
0.817813
0.724154
0.631005
0.526368
0.394129
0.221276
0.000243647
-0.272623
-0.599553
-0.983455
-1.42687
-1.92177
-2.45844
-3.09715
-3.81014
-4.16716
-4.00681
-3.44595
-6.32998
-7.77969
-9.12669
-10.1969
-10.3474
-9.81083
-8.76666
-7.21524
-5.25371
-3.07946
-0.780576
1.51798
3.64855
5.51429
7.04491
8.26796
9.18875
9.85649
10.1938
10.2053
9.75561
8.90578
7.61038
6.18235
4.8658
3.85692
3.64533
4.27488
4.49086
5.33665
5.46489
6.3568
0.0120298
0.142029
0.165474
0.251139
0.294466
0.359228
0.405683
0.452062
0.48927
0.533162
0.588302
0.649027
0.707247
0.756817
0.794561
0.826376
0.856905
0.889787
0.927124
0.969643
1.01654
1.06506
1.11083
1.14812
1.16854
1.16241
1.12519
1.0563
0.964208
0.863949
0.766772
0.670793
0.561048
0.420091
0.235902
0.00235834
-0.283792
-0.62546
-1.02668
-1.49102
-2.01298
-2.5869
-3.26173
-4.00484
-4.4473
-4.36918
-3.72737
-6.96916
-8.36731
-9.77974
-10.9443
-11.086
-10.4754
-9.332
-7.65864
-5.55521
-3.2399
-0.798454
1.63404
3.88227
5.84811
7.45835
8.74405
9.71344
10.4224
10.7895
10.8189
10.3629
9.47144
8.10096
6.58
5.1949
4.12395
3.89791
4.5217
4.77794
5.63289
5.79838
6.72548
0.00775968
0.151257
0.171227
0.262977
0.307767
0.376488
0.425312
0.473147
0.509836
0.552486
0.606513
0.664161
0.716033
0.757922
0.790886
0.821959
0.854508
0.891363
0.934309
0.984003
1.03949
1.09759
1.15329
1.20004
1.22801
1.22579
1.18816
1.11458
1.01581
0.910109
0.810025
0.711066
0.594852
0.443816
0.247984
0.00252114
-0.296052
-0.651794
-1.07012
-1.55592
-2.10638
-2.7195
-3.43459
-4.21672
-4.75252
-4.8354
-4.53455
-7.49676
-9.0204
-10.4624
-11.7309
-11.8641
-11.1734
-9.92356
-8.11837
-5.86446
-3.40283
-0.814144
1.75532
4.12269
6.189
7.87839
9.22589
10.2434
10.9944
11.392
11.4404
10.9816
10.0479
8.59997
6.98163
5.52565
4.39273
4.15174
4.76738
5.06458
5.92809
6.12969
7.14168
0.00254538
0.161013
0.176579
0.274633
0.320784
0.393541
0.444708
0.493532
0.528496
0.568498
0.620288
0.672549
0.716465
0.752253
0.783326
0.815637
0.851159
0.892393
0.941139
0.998194
1.06253
1.13056
1.19662
1.25332
1.28917
1.29086
1.25239
1.17334
1.06738
0.956637
0.854203
0.751254
0.626504
0.464298
0.257182
0.00083762
-0.309115
-0.678211
-1.11346
-1.62133
-2.20192
-2.85664
-3.61702
-4.44728
-5.08612
-5.39701
-5.6098
-7.79662
-9.74618
-11.1828
-12.5653
-12.6883
-11.907
-10.5441
-8.59682
-6.18236
-3.56837
-0.827324
1.88242
4.37057
6.53762
8.30543
9.7136
10.7786
11.5722
12.0014
12.0699
11.6115
10.6349
9.10682
7.38604
5.85637
4.662
4.40567
5.01115
5.34958
6.22147
6.45075
7.41494
-0.00376189
0.171392
0.181509
0.286085
0.3335
0.410347
0.463739
0.512722
0.54444
0.58067
0.628632
0.672937
0.7094
0.742117
0.773741
0.808446
0.847382
0.893147
0.947806
1.01242
1.08594
1.16432
1.24122
1.30841
1.35253
1.35809
1.3182
1.23267
1.11907
1.00401
0.899279
0.790081
0.654592
0.481017
0.263726
-0.00212973
-0.322315
-0.704035
-1.15607
-1.68677
-2.29933
-2.99837
-3.80952
-4.69724
-5.44863
-6.01022
-6.66947
-7.88725
-10.5715
-11.9558
-13.4539
-13.5661
-12.6796
-11.1962
-9.09645
-6.51022
-3.73673
-0.837652
2.01599
4.6267
6.89466
8.73992
10.2072
11.3187
12.1554
12.6181
12.7081
12.2529
11.2321
9.62079
7.79186
6.1852
4.93039
4.65843
5.25217
5.63183
6.51339
6.76411
7.77943
-0.011341
0.182502
0.185995
0.2973
0.345878
0.426807
0.482064
0.529934
0.557134
0.588536
0.630064
0.665262
0.697043
0.729667
0.76333
0.800963
0.843459
0.893813
0.954504
1.02694
1.11003
1.19926
1.28758
1.36592
1.41873
1.42803
1.38587
1.29258
1.17112
1.05272
0.944417
0.825668
0.678134
0.494198
0.268411
-0.00541807
-0.334661
-0.728322
-1.19712
-1.75159
-2.39812
-3.14445
-4.01189
-4.96631
-5.83864
-6.63607
-7.53693
-7.97056
-11.5497
-12.7951
-14.396
-14.5011
-13.4955
-11.8824
-9.61968
-6.84969
-3.9083
-0.844786
2.15674
4.89195
7.26087
9.18227
10.7068
11.8634
12.7436
13.242
13.3547
12.9055
11.839
10.141
8.19754
6.51009
5.19635
4.90864
5.48956
5.91017
6.80281
7.0706
8.09171
-0.0204078
0.19447
0.190007
0.308225
0.357843
0.442685
0.499
0.544334
0.566369
0.590935
0.623497
0.650986
0.681771
0.716323
0.752754
0.793488
0.839568
0.894571
0.96147
1.04206
1.13521
1.23589
1.33631
1.42656
1.48849
1.50129
1.45556
1.35286
1.22392
1.10277
0.987596
0.856207
0.697095
0.504801
0.272466
-0.00776426
-0.344941
-0.749967
-1.23568
-1.81503
-2.49771
-3.29436
-4.22339
-5.25326
-6.25387
-7.26254
-8.25433
-8.27547
-12.7056
-13.7183
-15.3894
-15.4958
-14.3567
-12.6052
-10.1686
-7.20246
-4.08379
-0.84841
2.3054
5.16724
7.63706
9.63293
11.2123
12.4124
13.3363
13.8728
14.0093
13.5692
12.4552
10.6666
8.60132
6.82878
5.4582
5.15486
5.72242
6.18354
7.08911
7.37047
8.42139
-0.0312258
0.207443
0.193513
0.31878
0.369242
0.457473
0.513584
0.555482
0.571297
0.58572
0.609624
0.632828
0.665477
0.702868
0.742326
0.786189
0.835881
0.895648
0.969004
1.05817
1.16199
1.27481
1.38813
1.49117
1.56267
1.57838
1.52701
1.41319
1.278
1.15288
1.02601
0.880902
0.712487
0.514316
0.277403
-0.00773002
-0.351842
-0.767842
-1.27084
-1.87638
-2.5974
-3.44734
-4.44284
-5.55616
-6.69172
-7.89349
-8.95617
-8.98911
-13.9697
-14.7425
-16.4314
-16.552
-15.2643
-13.3672
-10.7446
-7.57034
-4.26414
-0.84828
2.46276
5.45359
8.02407
10.0924
11.7236
12.9654
13.933
14.51
14.6717
14.2441
13.0799
11.1962
9.0012
7.13881
5.71412
5.39557
5.94991
6.451
7.37197
7.66731
8.73829
-0.0441227
0.22159
0.196463
0.328834
0.379744
0.470293
0.525038
0.56349
0.571393
0.572391
0.590004
0.612759
0.648976
0.689614
0.732224
0.779219
0.83261
0.897326
0.977472
1.07575
1.19095
1.31676
1.44389
1.56075
1.64214
1.65949
1.59932
1.47337
1.33335
1.19989
1.05737
0.900501
0.726067
0.524499
0.284851
-0.00385186
-0.354112
-0.780939
-1.30183
-1.93497
-2.6965
-3.60249
-4.66883
-5.87266
-7.14847
-8.53098
-9.70246
-10.1689
-15.2737
-15.8822
-17.5225
-17.6695
-16.2193
-14.1694
-11.3486
-7.95467
-4.4503
-0.844261
2.62966
5.7521
8.42286
10.5611
12.2407
13.5216
14.5329
15.1531
15.3423
14.9312
13.7123
11.7287
9.39497
7.43748
5.96215
5.6292
6.17128
6.71165
7.6508
7.96192
9.10159
-0.059518
0.237099
0.198785
0.338156
0.388722
0.480164
0.533103
0.566708
0.561155
0.5485
0.568258
0.591998
0.632869
0.676676
0.722548
0.77277
0.830027
0.899949
0.987304
1.09533
1.22278
1.36257
1.50458
1.63638
1.72765
1.74405
1.67097
1.53364
1.38808
1.23974
1.08135
0.917023
0.739897
0.537158
0.296385
0.00519327
-0.350714
-0.7885
-1.32807
-1.99029
-2.79435
-3.75889
-4.89988
-6.2002
-7.61954
-9.1738
-10.5135
-11.7471
-16.5343
-17.135
-18.6666
-18.847
-17.2224
-15.0122
-11.9814
-8.35558
-4.64302
-0.836306
2.80701
6.06397
8.83445
11.0396
12.7633
14.0806
15.1352
15.8017
16.0212
15.631
14.3515
12.2625
9.78012
7.72184
6.2002
5.85407
6.38572
6.96465
7.92455
8.24939
9.44211
-0.0779652
0.254176
0.20036
0.346325
0.39526
0.486518
0.5376
0.56393
0.539531
0.521682
0.545293
0.570684
0.61719
0.664195
0.713517
0.767104
0.828454
0.903909
0.998987
1.11755
1.25829
1.4132
1.5713
1.71919
1.81942
1.83018
1.74051
1.5939
1.43767
1.26968
1.0999
0.933014
0.756007
0.553964
0.313362
0.0204265
-0.340954
-0.790088
-1.34926
-2.04195
-2.89034
-3.91561
-5.13452
-6.53613
-8.0999
-9.8187
-11.3906
-13.5898
-17.6276
-18.4673
-19.8691
-20.0852
-18.2742
-15.8961
-12.6435
-8.77288
-4.84281
-0.82437
2.99578
6.39057
9.25999
11.5284
13.2912
14.6415
15.739
16.455
16.7076
16.3436
14.9964
12.7958
10.1539
7.98866
6.42589
6.06818
6.59211
7.20911
8.19286
8.53399
9.72983
-0.10021
0.273027
0.20097
0.352649
0.398579
0.489497
0.538691
0.551741
0.512108
0.495931
0.521877
0.550132
0.602115
0.652342
0.705371
0.762526
0.828253
0.909634
1.01306
1.14309
1.29835
1.46971
1.6452
1.81009
1.91653
1.91469
1.8074
1.65178
1.47657
1.29028
1.11629
0.9509
0.776177
0.576283
0.336754
0.042444
-0.324547
-0.785591
-1.36527
-2.08966
-2.98391
-4.07178
-5.37135
-6.87773
-8.5843
-10.461
-12.314
-15.4862
-18.4088
-19.8284
-21.1371
-21.3876
-19.3755
-16.8214
-13.3347
-9.2065
-5.04953
-0.808211
3.19703
6.73342
9.70074
12.0282
13.8242
15.2036
16.3434
17.1123
17.4012
17.0689
15.6456
13.3262
10.513
8.23439
6.63693
6.26945
6.78926
7.44411
8.45507
8.80843
10.0785
-0.127245
0.2938
0.200237
0.356363
0.398734
0.489831
0.535075
0.529363
0.485762
0.469201
0.497023
0.529878
0.587609
0.641388
0.6984
0.759356
0.829794
0.917576
1.0301
1.17271
1.34393
1.53321
1.72741
1.90936
2.01604
1.99417
1.8715
1.70145
1.50181
1.30526
1.13382
0.972658
0.801779
0.605019
0.367043
0.0713736
-0.30158
-0.775133
-1.37609
-2.13317
-3.0745
-4.2265
-5.60888
-7.22211
-9.06739
-11.0953
-13.2421
-17.1544
-18.7981
-21.1906
-22.4793
-22.7589
-20.5283
-17.7883
-14.0543
-9.65617
-5.26244
-0.787233
3.41195
7.09426
10.1582
12.5395
14.3617
15.7659
16.947
17.7728
18.1013
17.8071
16.2972
13.8512
10.854
8.45506
6.83052
6.45622
6.97648
7.66922
8.71029
9.0784
10.3461
-0.160319
0.316459
0.197656
0.357316
0.397542
0.490788
0.520965
0.505911
0.459693
0.442033
0.471486
0.510519
0.574016
0.631589
0.692875
0.757915
0.833454
0.928193
1.05068
1.20717
1.39601
1.60483
1.81879
2.01582
2.11282
2.06694
1.93046
1.73601
1.51546
1.31946
1.15498
0.999696
0.833642
0.640529
0.4042
0.106938
-0.272392
-0.758937
-1.38172
-2.17217
-3.16151
-4.37883
-5.84549
-7.566
-9.54375
-11.7156
-14.1248
-18.3444
-18.9333
-22.6
-23.9094
-24.2029
-21.7363
-18.7975
-14.8017
-10.1213
-5.48056
-0.76046
3.64191
7.4751
10.634
13.0632
14.9035
16.3273
17.5488
18.4356
18.8074
18.5579
16.9489
14.3673
11.1726
8.6462
7.00309
6.62715
7.15333
7.88435
8.95823
9.3422
10.6357
-0.200775
0.340584
0.192931
0.356358
0.396704
0.488551
0.501497
0.484466
0.432791
0.415183
0.444909
0.492082
0.561456
0.62323
0.689083
0.758514
0.839588
0.941915
1.07538
1.24724
1.45556
1.68555
1.9195
2.12573
2.20113
2.13312
1.97767
1.75255
1.52363
1.33677
1.18134
1.03277
0.871991
0.682635
0.447782
0.148621
-0.237389
-0.737161
-1.382
-2.2062
-3.24419
-4.52764
-6.07925
-7.90564
-10.0077
-12.3156
-14.9336
-19.0597
-19.1416
-24.1483
-25.4542
-25.7209
-23.0021
-19.8504
-15.5764
-10.6011
-5.70282
-0.726659
3.88851
7.87818
11.1301
13.6002
15.4489
16.8866
18.1471
19.0999
19.519
19.3213
17.5978
14.8704
11.464
8.80262
7.15125
6.78105
7.31934
8.08944
9.19783
9.58895
10.8964
-0.249565
0.365238
0.18659
0.355744
0.397621
0.477301
0.484585
0.462905
0.406041
0.389411
0.417863
0.475221
0.550205
0.616582
0.687266
0.761425
0.848503
0.959116
1.10468
1.29359
1.52346
1.7761
2.02813
2.23227
2.27784
2.19126
2.00516
1.7552
1.53288
1.35937
1.21357
1.07195
0.9165
0.730754
0.497137
0.195885
-0.196854
-0.709774
-1.37659
-2.23464
-3.32164
-4.6716
-6.3078
-8.23664
-10.4534
-12.8905
-15.6746
-19.5787
-19.7271
-25.7959
-27.1481
-27.3115
-24.3269
-20.9492
-16.3777
-11.0945
-5.92806
-0.68448
4.15359
8.30607
11.6491
14.1515
15.9973
17.4425
18.7405
19.7646
20.2356
20.0977
18.2412
15.355
11.722
8.91817
7.27136
6.91671
7.47411
8.28454
9.42882
9.82937
11.0916
-0.306278
0.389107
0.180083
0.358047
0.394994
0.464075
0.46964
0.441015
0.38016
0.365245
0.390681
0.46024
0.540473
0.611905
0.687646
0.766873
0.860432
0.980072
1.13897
1.34679
1.60044
1.87655
2.14044
2.32745
2.34375
2.23488
2.01016
1.75282
1.54743
1.38795
1.2516
1.11677
0.966474
0.784142
0.551648
0.248376
-0.150817
-0.676482
-1.36492
-2.2567
-3.39279
-4.80911
-6.52832
-8.55408
-10.8757
-13.4368
-16.3645
-20.1129
-20.9623
-27.3951
-29.021
-28.9753
-25.7094
-22.0957
-17.2053
-11.6005
-6.15492
-0.632401
4.4392
8.76158
12.1936
14.7183
16.5481
17.9933
19.3273
20.4286
20.9569
20.8874
18.8753
15.8143
11.9393
8.98537
7.35931
7.03281
7.61706
8.46943
9.65054
10.0594
11.309
-0.367837
0.410744
0.175026
0.363616
0.386144
0.454212
0.454816
0.419689
0.355469
0.343487
0.364363
0.447587
0.532526
0.609438
0.690402
0.775023
0.875522
1.00495
1.17849
1.40727
1.687
1.98561
2.24849
2.40664
2.39948
2.25506
1.99878
1.75369
1.56858
1.42221
1.29478
1.16644
1.02113
0.842163
0.610948
0.306053
-0.0989921
-0.636718
-1.34619
-2.27137
-3.45637
-4.93829
-6.73746
-8.85292
-11.2706
-13.9525
-17.0168
-20.747
-22.7939
-28.7648
-31.0776
-30.7172
-27.1464
-23.2911
-18.0592
-12.1182
-6.38184
-0.56862
4.74762
9.24788
12.7671
15.3025
17.1005
18.5375
19.9054
21.0908
21.6825
21.6901
19.4949
16.2398
12.1059
8.99496
7.41063
7.12794
7.74694
8.64351
9.86169
10.2667
11.4944
-0.427653
0.428766
0.172984
0.367248
0.377741
0.446069
0.440433
0.399309
0.332352
0.324665
0.340243
0.437632
0.526659
0.609416
0.69569
0.785984
0.89383
1.03379
1.22337
1.47531
1.78318
2.09929
2.34228
2.47159
2.43961
2.24849
1.98253
1.76187
1.5958
1.46132
1.34221
1.22015
1.07984
0.904482
0.675029
0.36923
-0.0407874
-0.589669
-1.31943
-2.27753
-3.51099
-5.05697
-6.93143
-9.12875
-11.6364
-14.4381
-17.6438
-21.4943
-24.9011
-29.6571
-33.3039
-32.5494
-28.6354
-24.5354
-18.9391
-12.6469
-6.60721
-0.491
5.08133
9.76839
13.3735
15.9061
17.6536
19.073
20.473
21.7501
22.4124
22.5048
20.092
16.6191
12.2075
8.93336
7.41897
7.20015
7.8612
8.80568
10.0615
10.4654
11.6115
-0.476594
0.441473
0.172674
0.366906
0.372881
0.438368
0.427181
0.380016
0.311316
0.30865
0.319795
0.430662
0.523229
0.61207
0.703654
0.799815
0.915321
1.0665
1.27354
1.55098
1.88806
2.20957
2.41528
2.52616
2.45393
2.22232
1.97122
1.77745
1.62792
1.50423
1.39308
1.27735
1.14237
0.971165
0.744262
0.43854
0.0246393
-0.534341
-1.28355
-2.27401
-3.55522
-5.16269
-7.10644
-9.37891
-11.9741
-14.8966
-18.2539
-22.3017
-26.761
-30.0594
-35.7412
-34.4936
-30.176
-25.8288
-19.845
-13.1858
-6.82952
-0.397109
5.44315
10.3268
14.0173
16.532
18.2067
19.5977
21.0276
22.4052
23.1467
23.3298
20.6559
16.9353
12.2238
8.78432