/*--------------------------------*- C++ -*----------------------------------*\
| =========                 |                                                 |
| \\      /  F ield         | OpenFOAM: The Open Source CFD Toolbox           |
|  \\    /   O peration     | Version:  4.1                                   |
|   \\  /    A nd           | Web:      www.OpenFOAM.org                      |
|    \\/     M anipulation  |                                                 |
\*---------------------------------------------------------------------------*/
FoamFile
{
    version     2.0;
    format      ascii;
    class       volVectorField;
    location    "21";
    object      U;
}
// * * * * * * * * * * * * * * * * * * * * * * * * * * * * * * * * * * * * * //

dimensions      [0 1 -1 0 0 0 0];

internalField   nonuniform List<vector> 
6785
(
(1.23044e-14 -2.31214 16.4681)
(1.12145e-14 -7.91121 12.9715)
(-3.11789e-15 -5.12389 13.7733)
(3.45477e-15 -5.05899 13.2865)
(8.85386e-16 -4.25691 13.151)
(-6.71166e-17 -3.82123 12.8673)
(2.80216e-15 -3.38341 12.5887)
(6.37479e-16 -3.0657 12.2783)
(-4.65025e-16 -2.84241 11.9798)
(1.8168e-15 -2.76109 11.7217)
(2.22837e-16 -2.79532 11.5517)
(-3.51898e-16 -2.93736 11.4115)
(8.55262e-16 -3.52426 10.8468)
(-3.08537e-17 -3.71651 9.65)
(-3.79967e-16 -0.13996 7.6988)
(1.82595e-14 -10.3684 26.9367)
(1.28695e-14 -16.2542 23.4272)
(-2.54018e-15 -11.2256 23.7625)
(3.91935e-15 -11.9304 21.9752)
(6.48125e-16 -10.2 21.1464)
(7.6195e-16 -9.53523 19.954)
(1.68323e-15 -8.53845 18.9245)
(7.68222e-17 -7.75352 17.8802)
(-9.16803e-17 -6.96308 16.8652)
(4.32334e-16 -6.15965 15.696)
(-4.23888e-16 -5.12302 14.0272)
(-5.87121e-16 -3.68493 11.3849)
(-3.29335e-16 -2.04927 7.46257)
(-3.96919e-16 -0.578319 3.04807)
(-5.3614e-16 -0.00673747 0.535928)
(2.00079e-14 -13.0969 28.7401)
(1.11285e-14 -17.122 25.5205)
(-1.47557e-15 -12.3058 25.5393)
(4.42707e-15 -13.4589 23.019)
(3.86275e-16 -11.2698 22.0445)
(1.33443e-15 -10.9179 20.2977)
(1.58166e-15 -9.78398 19.0107)
(-1.36894e-16 -9.14649 17.618)
(4.39661e-16 -8.37936 16.3544)
(1.01634e-15 -7.60528 14.8169)
(-1.01032e-15 -6.27647 12.3937)
(7.20067e-16 -3.62997 7.63441)
(4.7895e-15 0.95745 -0.693048)
(-1.08921e-16 4.24911 -6.20501)
(-2.41029e-15 2.743 -5.51748)
(1.99675e-14 -13.7293 28.0276)
(1.17842e-14 -17.4992 26.0766)
(-1.17493e-15 -12.9738 25.3604)
(4.33182e-15 -14.3493 22.4919)
(1.13706e-15 -12.0467 21.5139)
(1.33115e-15 -11.9553 19.4806)
(1.82168e-15 -10.8124 18.0759)
(7.98181e-16 -10.2254 16.4712)
(4.79508e-16 -9.49167 15.0225)
(1.25903e-15 -8.79883 13.4701)
(7.21105e-16 -7.86391 11.5407)
(3.44451e-16 -6.21861 8.67852)
(1.49726e-15 -3.81681 4.53707)
(2.63846e-15 -0.84366 1.3374)
(-4.77555e-15 1.63284 -4.57256)
(1.94948e-14 -13.3721 26.2489)
(1.29599e-14 -17.2821 26.3378)
(-7.0955e-16 -13.1396 24.7609)
(3.20387e-15 -13.9954 21.8018)
(1.2441e-15 -11.9158 20.7032)
(7.79256e-16 -11.6742 18.6356)
(1.58095e-15 -10.545 17.1095)
(6.52761e-16 -9.81618 15.4183)
(-3.96814e-16 -9.01291 13.8781)
(1.06527e-16 -8.24398 12.3846)
(-3.14234e-16 -7.4396 10.7962)
(-1.24982e-15 -6.32116 8.94354)
(-1.3371e-15 -4.88303 6.41786)
(-1.87184e-15 -2.60727 3.7297)
(-5.77202e-15 -0.199117 -1.85936)
(2.00198e-14 -12.7692 24.6654)
(1.42604e-14 -16.6617 25.8808)
(2.74302e-16 -12.8824 23.9775)
(2.4877e-15 -13.3694 20.9315)
(1.48015e-15 -11.3854 19.7941)
(1.83915e-15 -11.1008 17.6826)
(1.94045e-15 -9.97489 16.2068)
(8.35799e-16 -9.3508 14.6397)
(6.9274e-16 -8.66698 13.262)
(4.51828e-16 -8.02173 11.9214)
(1.42798e-16 -7.37907 10.5984)
(7.16841e-16 -6.61706 9.33763)
(-2.05008e-16 -5.76477 7.93034)
(-3.24749e-16 -4.32755 6.32315)
(5.6845e-16 -1.92186 1.97964)
(2.17932e-14 -12.4952 23.9765)
(1.43954e-14 -15.7693 24.934)
(1.59175e-15 -12.3157 23.118)
(2.57134e-15 -12.6641 20.0855)
(2.24192e-15 -10.4789 18.9866)
(3.96789e-15 -10.2161 16.7012)
(1.65947e-15 -8.71712 15.1855)
(1.82119e-15 -8.08403 13.2412)
(4.18658e-15 -7.30206 11.765)
(8.79534e-16 -7.00048 10.5879)
(1.3463e-15 -6.89049 9.963)
(3.15494e-15 -7.01493 9.85794)
(2.76966e-16 -6.99997 10.0573)
(-3.02236e-15 -6.52397 9.7737)
(1.82286e-15 -4.28403 6.83213)
(2.10802e-14 -13.2515 25.0257)
(1.0888e-14 -15.0631 24.7704)
(7.56162e-16 -12.2539 23.3098)
(2.42951e-15 -12.173 20.9508)
(1.53106e-15 -10.2302 19.8446)
(1.53336e-15 -9.41888 17.6394)
(1.24544e-15 -7.27398 15.1295)
(2.06728e-15 -5.43622 11.7053)
(1.42004e-15 -3.65829 8.87937)
(4.66871e-16 -2.88713 7.16456)
(3.08238e-16 -3.1786 7.26977)
(-2.46282e-16 -4.71783 9.2013)
(-1.697e-15 -6.66648 11.8702)
(-2.99575e-15 -7.98348 13.1936)
(6.37274e-16 -5.81091 10.6825)
(2.0614e-14 -14.4721 26.9688)
(9.21982e-15 -16.4575 27.0719)
(-3.95325e-16 -13.2705 25.1536)
(1.69893e-15 -13.2666 23.3549)
(6.05613e-16 -11.5473 22.458)
(6.93525e-17 -10.7459 20.5015)
(1.82338e-16 -8.47955 17.8613)
(1.66811e-15 -6.18052 14.0916)
(1.34753e-15 -3.62997 10.6079)
(1.41409e-15 -1.54802 7.44937)
(2.845e-15 0.246519 4.75314)
(2.84731e-15 0.916509 3.30297)
(2.00668e-15 -0.380857 4.40438)
(1.37411e-15 -3.1295 7.35762)
(5.28464e-16 -3.62883 7.8734)
(1.8912e-14 -13.7975 25.0781)
(1.23627e-14 -18.7404 30.2063)
(1.45853e-15 -15.3642 27.4937)
(1.6796e-15 -14.9279 25.0418)
(2.49364e-16 -13.4128 23.9984)
(4.98843e-16 -12.97 22.2803)
(5.4615e-16 -11.3383 20.2619)
(7.32087e-16 -9.63333 17.1739)
(2.00049e-15 -7.33788 13.9141)
(2.96164e-15 -5.13331 10.4875)
(3.30168e-15 -2.71031 6.89738)
(6.44832e-15 -0.210841 2.86722)
(3.14061e-15 2.36033 -1.17838)
(-4.25394e-15 3.31525 -3.07422)
(-2.89743e-15 1.27209 -1.65135)
(1.65431e-14 -11.1897 19.6086)
(1.54997e-14 -18.7244 30.0582)
(6.17583e-15 -16.9039 28.5666)
(2.14635e-15 -15.6306 25.207)
(1.14448e-16 -14.1762 23.2603)
(1.53679e-15 -13.5943 21.4342)
(1.15076e-15 -12.6375 19.7224)
(2.60477e-16 -11.6272 17.6125)
(1.79606e-15 -10.2902 15.3014)
(1.9986e-15 -8.78996 12.8135)
(1.5898e-15 -7.09863 10.1647)
(3.8971e-15 -5.10709 7.29341)
(3.31961e-15 -2.92165 4.03213)
(5.78264e-15 0.30992 0.582802)
(-4.6277e-15 1.65448 -5.10813)
(1.4447e-14 -8.54542 14.4738)
(1.72288e-14 -17.2315 28.2733)
(8.01526e-15 -16.7298 28.0991)
(2.7082e-15 -14.9681 24.2939)
(7.072e-16 -13.3 21.6488)
(7.29649e-16 -12.4216 19.6212)
(1.19254e-15 -11.5514 17.965)
(1.30629e-15 -10.7116 16.2495)
(8.79308e-16 -9.76318 14.4607)
(6.41589e-16 -8.69593 12.6006)
(1.08657e-15 -7.55714 10.6496)
(5.38945e-16 -6.19972 8.61692)
(1.2149e-15 -4.7507 6.23651)
(6.84192e-16 -2.42505 3.39575)
(-5.92498e-15 -0.0932386 -2.13499)
(1.24248e-14 -7.31967 12.3012)
(1.75662e-14 -16.2176 27.165)
(9.11283e-15 -16.3179 27.5359)
(2.66818e-15 -14.6041 23.936)
(1.38935e-15 -12.9963 21.1595)
(6.21761e-16 -12.0408 19.0757)
(1.56433e-16 -11.1757 17.4199)
(2.6056e-15 -10.3623 15.8443)
(1.04888e-15 -9.5091 14.2788)
(1.18711e-17 -8.57751 12.7075)
(1.25268e-15 -7.6069 11.0929)
(-6.96636e-16 -6.4894 9.45067)
(-7.3973e-16 -5.33442 7.61741)
(-2.05783e-16 -3.70122 5.49657)
(-6.82614e-15 -1.29336 1.0299)
(9.85889e-15 -6.02072 9.49779)
(1.78319e-14 -15.0797 25.277)
(7.95884e-15 -15.4539 25.7857)
(2.91187e-16 -13.1977 21.8163)
(8.39874e-16 -11.328 18.9388)
(8.1408e-16 -10.3738 17.214)
(1.04438e-16 -9.67325 16.104)
(2.50166e-15 -9.12812 15.0741)
(1.71755e-15 -8.59488 14.0721)
(5.16988e-16 -8.06347 13.08)
(-1.30232e-16 -7.55506 12.0519)
(-1.38651e-15 -6.9387 10.9494)
(-9.53194e-16 -6.22443 9.60454)
(-1.27366e-15 -5.04372 7.95506)
(-5.32226e-15 -2.81953 4.45822)
(4.45023e-15 -5.21764 9.53962)
(1.66483e-14 -15.1675 24.3269)
(1.44352e-14 -18.5243 27.8035)
(6.5726e-15 -18.4934 25.8612)
(1.48257e-15 -16.8931 22.6631)
(2.99447e-16 -15.2627 19.8648)
(-1.2254e-15 -13.7981 17.5623)
(-1.16626e-15 -12.3657 15.5411)
(4.39813e-16 -10.9302 13.7194)
(9.10977e-16 -9.54782 11.9554)
(-9.53783e-16 -8.18951 10.2786)
(-2.58727e-15 -7.05584 9.05294)
(-3.75588e-15 -6.40822 8.79317)
(-5.69516e-15 -6.24568 8.95777)
(-8.25108e-15 -3.65355 6.60735)
(-9.14901e-18 12.6931 55.7789)
(-3.93284e-16 -0.0677918 6.34464)
(-4.55644e-16 -0.579411 -3.49447)
(-4.49907e-16 -0.355341 -2.29842)
(-4.59868e-16 -0.191417 -2.59996)
(-6.37407e-16 0.44001 -3.35323)
(-4.75496e-16 0.186663 -2.33743)
(-4.39373e-16 0.443584 -2.36695)
(-5.40792e-16 0.590505 -2.35317)
(3.1622e-16 1.05637 -3.02245)
(6.04768e-16 0.902602 -2.13469)
(6.40521e-16 1.10434 -2.0428)
(5.34205e-16 1.59144 -2.56131)
(4.02459e-16 1.32168 -1.77646)
(4.01711e-16 1.57428 -1.74682)
(3.93404e-16 1.59866 -1.67657)
(2.52403e-16 2.04908 -2.00321)
(3.27315e-16 1.75214 -1.33757)
(3.28393e-16 1.91131 -1.22108)
(3.29363e-16 2.39393 -1.35347)
(2.98412e-16 1.91682 -0.8569)
(2.73354e-16 2.16611 -0.782502)
(3.83288e-16 2.08658 -0.719683)
(4.64969e-16 2.56424 -0.692959)
(3.7459e-16 2.03677 -0.419512)
(4.02116e-16 2.25453 -0.37623)
(2.67308e-16 2.16144 -0.374659)
(3.47459e-16 2.54109 -0.265773)
(1.33289e-16 2.05421 -0.160246)
(7.01113e-17 2.15344 -0.190718)
(4.77983e-17 2.50365 -0.00186511)
(-1.95367e-16 1.91354 -0.0270781)
(-2.58576e-16 2.09504 -0.0393162)
(-4.63208e-16 2.00601 -0.102258)
(-7.91415e-16 2.27339 0.108053)
(-7.4433e-16 1.76997 0.0355861)
(-7.97196e-16 1.86312 -0.0333093)
(-1.24666e-15 2.08167 0.228512)
(-1.05829e-15 1.53693 0.0927328)
(-1.19428e-15 1.6752 0.0735978)
(-1.10798e-15 1.60931 0.00229488)
(-1.68108e-15 1.78192 0.264781)
(-1.38416e-15 1.31063 0.113504)
(-1.48316e-15 1.42815 0.0969273)
(-1.52973e-15 1.37174 0.0249277)
(-2.25702e-15 1.53918 0.272875)
(-1.98867e-15 1.21775 0.215938)
(-1.94292e-15 1.27051 0.142322)
(-2.92808e-15 1.41287 0.42218)
(-1.96761e-15 1.10779 0.327202)
(-1.99042e-15 1.16995 0.318227)
(-1.96486e-15 1.12377 0.244726)
(-2.75988e-15 1.14057 0.495555)
(-2.06451e-15 0.828765 0.277588)
(-2.1562e-15 0.862314 0.267497)
(-1.82203e-15 0.849686 0.2626)
(-2.3325e-15 0.743782 0.104342)
(-1.46801e-15 0.392349 -0.275438)
(-1.9819e-15 0.358413 -0.0371318)
(-1.58754e-15 0.962684 -1.88283)
(9.99148e-16 -0.500007 -1.80877)
(8.36767e-16 0.00785819 -2.24204)
(8.14547e-16 0.247812 -2.24383)
(8.02168e-17 -0.163269 -1.01556)
(-1.49698e-15 -1.07912 1.26301)
(-1.40841e-15 -0.769028 1.27071)
(-2.08062e-15 -1.75986 3.71772)
(-1.61135e-15 -2.31528 4.20174)
(-1.59893e-15 -2.61392 4.26764)
(-1.60853e-15 -2.58512 4.48816)
(-1.77118e-15 -4.1604 7.54085)
(-1.01089e-15 -4.46127 6.40983)
(-7.99481e-16 -5.07719 6.47497)
(-5.19329e-16 -4.94404 6.54319)
(6.45945e-17 -7.29697 9.95738)
(3.99064e-16 -7.29801 7.82451)
(4.26465e-16 -7.35859 8.32386)
(6.51052e-16 -10.0352 12.3396)
(2.40834e-16 -9.72298 9.65118)
(-2.05281e-16 -10.0777 10.6297)
(-1.31254e-15 -10.8569 12.9083)
(-1.00673e-15 -10.6862 12.5948)
(-1.01243e-15 -10.7641 12.8806)
(8.85463e-16 -12.1025 14.8662)
(-8.26102e-16 -11.2805 14.0535)
(-4.44332e-16 -11.4522 14.6961)
(-3.73996e-16 -11.4298 14.881)
(-2.57099e-16 -11.505 15.0545)
(-3.06834e-17 -11.5436 15.1525)
(2.59057e-16 -11.614 15.1837)
(6.34536e-16 -11.6897 15.1803)
(9.79845e-16 -11.6795 15.2586)
(2.29558e-15 -12.5924 16.8054)
(1.26211e-15 -12.0045 15.8078)
(1.4101e-15 -12.1559 15.9278)
(1.389e-15 -12.1591 15.9731)
(1.52459e-15 -12.2638 16.1805)
(1.46484e-15 -12.3014 16.4629)
(1.59271e-15 -12.3837 16.6584)
(1.75325e-15 -12.4809 16.8607)
(1.95627e-15 -12.5135 17.0467)
(3.38113e-15 -13.145 18.4225)
(2.56766e-15 -12.5498 17.3931)
(2.66989e-15 -12.6888 17.6016)
(2.6975e-15 -12.7159 17.5883)
(2.74597e-15 -12.8038 17.6279)
(2.86369e-15 -12.8454 17.7534)
(2.96893e-15 -12.9406 17.9598)
(2.86266e-15 -12.9602 18.0345)
(2.93935e-15 -13.052 18.1954)
(3.05076e-15 -13.1096 18.3272)
(3.81003e-15 -13.0591 18.8509)
(3.32764e-15 -12.7544 18.3013)
(3.52027e-15 -12.8196 18.4503)
(3.67086e-15 -12.8371 18.567)
(3.83319e-15 -12.9048 18.764)
(3.9126e-15 -12.9208 19.0354)
(3.78141e-15 -13.0043 19.4898)
(3.83046e-15 -13.0294 19.7495)
(3.97663e-15 -13.1411 19.8931)
(5.15445e-15 -12.2563 19.373)
(4.21325e-15 -12.2938 19.2539)
(4.19416e-15 -12.2923 19.2764)
(4.12892e-15 -12.3568 19.1942)
(4.1209e-15 -12.3307 18.8919)
(4.03863e-15 -12.369 18.6883)
(4.04999e-15 -12.3681 18.5209)
(4.20182e-15 -12.3126 18.4671)
(4.63459e-15 -12.4869 18.671)
(5.5043e-15 -10.5502 16.4094)
(4.96114e-15 -11.1283 17.6249)
(5.31795e-15 -11.0114 17.5362)
(5.60774e-15 -11.0073 17.6608)
(6.02771e-15 -10.9756 17.9471)
(6.32217e-15 -10.9384 17.9913)
(6.54603e-15 -10.862 17.9048)
(6.68459e-15 -10.7911 17.7367)
(6.72446e-15 -10.8516 17.3599)
(7.04877e-15 -8.2177 13.5549)
(6.61166e-15 -9.14858 15.4193)
(6.06694e-15 -8.89471 14.1258)
(5.53309e-15 -8.94675 13.1755)
(5.05292e-15 -8.79122 12.035)
(4.78726e-15 -8.69929 10.9635)
(5.44509e-15 -8.52204 10.1558)
(4.48777e-15 -8.30719 9.10568)
(4.1682e-15 -8.05837 8.3243)
(3.73533e-15 -7.90355 7.5811)
(1.08595e-15 -4.59867 2.03369)
(3.45989e-15 -6.21638 6.598)
(3.12238e-15 -5.61387 5.68127)
(2.98846e-15 -5.71093 5.6009)
(2.73838e-15 -5.34144 5.08634)
(2.31242e-15 -5.25302 4.4333)
(1.19872e-15 -5.05389 2.89066)
(1.17111e-16 -4.70787 1.30151)
(4.52642e-16 -4.67439 1.36073)
(-5.3622e-16 -3.9595 -1.33106)
(6.87464e-17 -4.05724 0.479453)
(-9.32747e-17 -3.96988 -0.32019)
(-8.49446e-16 -2.95728 -2.23682)
(-6.6462e-16 -4.45341 -1.57355)
(-7.77177e-16 -3.41171 -1.51534)
(-6.29119e-16 -3.0778 -1.04282)
(-8.50627e-16 -3.75851 -1.48546)
(-6.63838e-16 -2.60678 -0.943326)
(-9.95935e-16 -3.21851 -1.40855)
(-7.83279e-16 -2.86243 -1.08699)
(-6.3145e-16 -2.34846 -0.820062)
(-9.16515e-16 -2.71092 -1.21285)
(-7.99821e-16 -2.45913 -0.958036)
(-6.54694e-16 -2.06013 -0.725398)
(-8.52433e-16 -2.62184 -1.02331)
(-6.73109e-16 -1.7736 -0.680088)
(-1.03544e-15 -2.22605 -1.02912)
(-7.59897e-16 -1.912 -0.828743)
(-7.0254e-16 -1.63263 -0.638294)
(-8.55307e-16 -2.07391 -0.905013)
(-5.24979e-16 -1.37994 -0.612928)
(-8.37635e-16 -1.74666 -0.931492)
(-7.85151e-16 -1.54081 -0.766434)
(-7.17709e-16 -1.23761 -0.597037)
(-1.08243e-15 -1.44261 -0.899577)
(-9.08271e-16 -1.29297 -0.736871)
(-6.55385e-16 -1.05606 -0.567312)
(-1.03048e-15 -1.37031 -0.810351)
(-8.14446e-16 -0.862899 -0.554103)
(-1.1365e-15 -1.12091 -0.857729)
(-6.9559e-16 -0.912927 -0.698019)
(-6.90026e-16 -0.752698 -0.535923)
(-9.27449e-16 -0.988261 -0.770735)
(-7.46114e-16 -0.569334 -0.526093)
(-1.09871e-15 -0.783704 -0.825787)
(-9.89299e-16 -0.618025 -0.677914)
(-5.63244e-16 -0.444237 -0.522398)
(-8.95499e-16 -0.572405 -0.807649)
(-9.11651e-16 -0.427781 -0.654468)
(-1.71264e-16 -0.289114 -0.48456)
(-3.06268e-16 -0.495112 -0.69959)
(-1.90729e-16 -0.115157 -0.464388)
(-1.94332e-16 -0.376604 -0.749471)
(-1.8367e-16 -0.109692 -0.617117)
(-1.56646e-15 0.0254475 -0.434582)
(-2.02062e-15 -0.504095 -0.632579)
(-2.38281e-16 0.405767 -0.34104)
(-7.79447e-16 -0.244394 -0.587221)
(-3.07227e-15 -0.157788 -0.653875)
(-1.49073e-15 0.322588 -0.373356)
(-4.42071e-16 0.191933 -0.461949)
(1.03072e-16 0.00220869 -0.618707)
(-1.01505e-16 0.387488 -0.436462)
(1.02945e-15 0.21009 -0.539046)
(1.8627e-15 0.371185 -0.369879)
(2.24801e-15 0.442697 -0.405039)
(1.10616e-16 0.348395 -0.44665)
(-1.35642e-15 0.471894 -0.306193)
(-2.96073e-15 0.471013 -0.416268)
(-2.12136e-15 0.511964 -0.310249)
(-2.12882e-15 0.574983 -0.353035)
(-1.98173e-15 0.563003 -0.367363)
(-1.18874e-15 0.576069 -0.241845)
(-1.7577e-15 0.662659 -0.262952)
(-9.63055e-16 0.645781 -0.28867)
(-2.99919e-16 0.635992 -0.203714)
(1.36112e-16 0.753564 -0.279222)
(2.7126e-16 0.689109 -0.20829)
(3.82574e-16 0.776579 -0.242233)
(6.45505e-16 0.795246 -0.27788)
(7.18903e-16 0.749258 -0.191483)
(1.4506e-15 0.915109 -0.260094)
(1.38321e-15 0.812743 -0.177446)
(1.71976e-15 0.910784 -0.194851)
(2.04803e-15 0.950842 -0.210166)
(1.2234e-15 0.882931 -0.133925)
(1.17909e-15 1.01144 -0.1703)
(6.69453e-16 1.04998 -0.280257)
(1.26472e-16 0.961905 -0.204086)
(-1.56872e-16 1.20022 -0.370857)
(-2.57774e-16 1.05514 -0.272801)
(-3.62482e-16 1.22744 -0.410666)
(6.07014e-27 0.880628 1.14183)
(2.27166e-26 0.985965 1.14649)
(5.81919e-26 1.03866 1.15643)
(1.26506e-25 1.09705 1.16777)
(5.75627e-26 1.14838 1.18231)
(-1.40974e-24 1.19826 1.19898)
(-9.12906e-24 1.24473 1.21791)
(-3.3182e-23 1.28975 1.23898)
(-6.85706e-23 1.33269 1.26206)
(1.79113e-23 1.37469 1.28725)
(8.03396e-22 1.41606 1.3146)
(3.65313e-21 1.45778 1.34429)
(9.41593e-21 1.50037 1.37646)
(1.0002e-20 1.54449 1.41131)
(-3.63595e-20 1.59058 1.44898)
(-2.4375e-19 1.63902 1.48955)
(-7.82567e-19 1.69002 1.53297)
(-1.57071e-18 1.74353 1.5794)
(-1.18281e-18 1.79882 1.63007)
(5.59903e-18 1.85397 1.68936)
(3.15603e-17 1.90514 1.76779)
(1.00384e-16 1.94642 1.8839)
(2.45633e-16 1.97079 2.06177)
(5.01673e-16 1.97242 2.32215)
(8.87702e-16 1.9494 2.67037)
(1.39303e-15 1.90502 3.0892)
(1.97326e-15 1.84682 3.54243)
(2.56046e-15 1.78437 3.9864)
(3.08149e-15 1.72702 4.38237)
(3.4756e-15 1.68238 4.70395)
(3.7049e-15 1.65536 4.93924)
(3.75648e-15 1.64732 5.08892)
(3.63865e-15 1.65624 5.16209)
(3.37508e-15 1.67757 5.17138)
(2.99907e-15 1.70565 5.12905)
(2.54863e-15 1.73456 5.04498)
(2.06202e-15 1.75824 4.92633)
(1.57364e-15 1.76961 4.77772)
(1.10816e-15 1.76079 4.60231)
(6.62418e-16 1.72969 4.40699)
(1.76844e-16 1.68453 4.20797)
(-3.82163e-16 1.55355 3.98812)
(-6.10822e-16 0.940651 3.54985)
(2.15747e-16 -0.435497 2.7503)
(8.44162e-16 -1.34777 2.49048)
(1.34738e-15 -1.78371 2.33611)
(1.84514e-15 -2.12704 2.17209)
(2.32847e-15 -2.48845 2.00341)
(2.76761e-15 -2.86419 1.83712)
(3.1323e-15 -3.25111 1.67016)
(3.38574e-15 -3.64248 1.50276)
(3.50059e-15 -4.0247 1.33008)
(3.45562e-15 -4.3835 1.15715)
(3.25105e-15 -4.72068 0.984558)
(2.9069e-15 -5.0239 0.804983)
(2.46481e-15 -5.2758 0.621791)
(1.97362e-15 -5.4797 0.439466)
(1.45547e-15 -5.62067 0.256696)
(9.41633e-16 -5.64485 0.0819094)
(4.81462e-16 -5.52239 -0.0671431)
(1.61543e-16 -5.27621 -0.179346)
(2.6714e-17 -5.00246 -0.247437)
(-1.9991e-18 -4.74684 -0.290225)
(-1.79393e-18 -4.50964 -0.309493)
(-2.50278e-19 -4.27138 -0.322431)
(2.13371e-20 -4.01045 -0.326237)
(9.84714e-21 -3.70528 -0.333601)
(6.52002e-22 -3.37881 -0.335759)
(-1.57768e-22 -2.97897 -0.347684)
(-4.3189e-23 -2.58676 -0.348005)
(-3.37566e-23 -2.01511 -0.363924)
(4.28203e-23 -1.56014 -0.352478)
(-3.10094e-22 -0.506844 -0.379908)
(4.84562e-21 0.648056 -0.388992)
(-2.46424e-20 1.56746 -0.435023)
(1.574e-19 2.21693 -0.0465459)
(-5.03825e-19 2.47079 -0.339796)
(1.10828e-18 2.90001 0.0990699)
(9.62321e-19 -3.14509 -0.333541)
(1.86104e-26 0.880055 1.19935)
(5.10155e-26 0.983783 1.20222)
(9.03713e-26 1.03532 1.21227)
(2.61371e-26 1.09296 1.22382)
(-1.07024e-24 1.14341 1.23891)
(-7.22858e-24 1.19259 1.25645)
(-2.87011e-23 1.23834 1.27635)
(-7.01844e-23 1.28269 1.29861)
(-3.87896e-23 1.32495 1.323)
(5.65618e-22 1.36626 1.34977)
(3.16076e-21 1.40689 1.37895)
(9.4903e-21 1.44783 1.4108)
(1.46333e-20 1.48958 1.44543)
(-1.76709e-20 1.53281 1.48303)
(-2.03295e-19 1.57798 1.52365)
(-7.56167e-19 1.62549 1.56726)
(-1.74067e-18 1.67555 1.61391)
(-1.99982e-18 1.72781 1.66466)
(3.52458e-18 1.78074 1.7239)
(2.8335e-17 1.83072 1.80302)
(9.89911e-17 1.87147 1.92351)
(2.54901e-16 1.89497 2.1149)
(5.37596e-16 1.89434 2.40365)
(9.69752e-16 1.8676 2.79625)
(1.53496e-15 1.81965 3.26834)
(2.17333e-15 1.76053 3.77006)
(2.79784e-15 1.70144 4.24479)
(3.32152e-15 1.65141 4.64803)
(3.68015e-15 1.6162 4.95619)
(3.8423e-15 1.59875 5.16526)
(3.80722e-15 1.59963 5.28439)
(3.59668e-15 1.61717 5.32889)
(3.24617e-15 1.64777 5.31468)
(2.79808e-15 1.68673 5.25501)
(2.2966e-15 1.72897 5.15943)
(1.78301e-15 1.76946 5.03438)
(1.29065e-15 1.80293 4.88437)
(8.40297e-16 1.82293 4.71278)
(4.35691e-16 1.82118 4.52249)
(4.88513e-17 1.79334 4.32)
(-4.16586e-16 1.75086 4.12402)
(-1.06272e-15 1.6553 3.93691)
(-1.43303e-15 1.13204 3.57178)
(-1.22492e-16 -0.343981 2.66472)
(9.76077e-16 -1.35961 2.37297)
(1.42573e-15 -1.7745 2.31514)
(1.89333e-15 -2.11356 2.15057)
(2.36561e-15 -2.47677 1.97838)
(2.7938e-15 -2.85341 1.81683)
(3.14828e-15 -3.2403 1.65439)
(3.39335e-15 -3.63025 1.49136)
(3.5016e-15 -4.00979 1.32345)
(3.45209e-15 -4.36564 1.15469)
(3.24504e-15 -4.69849 0.985261)
(2.90034e-15 -4.99633 0.808359)
(2.45916e-15 -5.24359 0.627251)
(1.96944e-15 -5.44315 0.446416)
(1.45297e-15 -5.58062 0.264724)
(9.40791e-16 -5.6046 0.090509)
(4.81814e-16 -5.48566 -0.0586283)
(1.62256e-16 -5.24545 -0.171546)
(2.70142e-17 -4.97654 -0.240831)
(-2.02054e-18 -4.72358 -0.284992)
(-1.84398e-18 -4.48723 -0.305785)
(-2.61778e-19 -4.24855 -0.320329)
(2.22067e-20 -3.98658 -0.325972)
(1.05709e-20 -3.68031 -0.335428)
(7.2067e-22 -3.35285 -0.340102)
(-1.7507e-22 -2.9533 -0.354866)
(-4.77384e-23 -2.562 -0.358389)
(-3.3792e-23 -1.99296 -0.377959)
(4.34162e-23 -1.53938 -0.369329)
(-3.70912e-22 -0.479379 -0.410581)
(5.13698e-21 0.654755 -0.391403)
(-2.43101e-20 1.51423 -0.441736)
(1.41469e-19 2.20045 -0.0424349)
(-4.22309e-19 2.44944 -0.321634)
(8.23937e-19 2.89703 0.0932247)
(2.22415e-18 -3.05219 -0.325752)
(3.27761e-26 0.879943 1.23093)
(5.54373e-26 0.982934 1.23315)
(-7.31379e-27 1.03371 1.24325)
(-6.6112e-25 1.09099 1.25502)
(-4.38548e-24 1.14095 1.27047)
(-1.87777e-23 1.18978 1.28855)
(-5.35687e-23 1.23516 1.30904)
(-6.82024e-23 1.27917 1.33201)
(2.49174e-22 1.32108 1.3572)
(1.97944e-21 1.36202 1.38492)
(7.10836e-21 1.40225 1.41521)
(1.46307e-20 1.44275 1.44835)
(2.64718e-21 1.48405 1.48442)
(-1.15692e-19 1.52682 1.52358)
(-5.39336e-19 1.57155 1.56579)
(-1.46283e-18 1.61861 1.61103)
(-2.31722e-18 1.66802 1.65992)
(4.58715e-19 1.71885 1.71566)
(1.77442e-17 1.76829 1.7877)
(7.30744e-17 1.81084 1.89575)
(2.0449e-16 1.83879 2.06969)
(4.56108e-16 1.84482 2.33994)
(8.572e-16 1.82612 2.71922)
(1.39879e-15 1.78698 3.1875)
(2.02548e-15 1.73731 3.69462)
(2.65075e-15 1.68789 4.18044)
(3.18568e-15 1.64637 4.59715)
(3.5634e-15 1.61648 4.92006)
(3.74977e-15 1.59957 5.14547)
(3.74153e-15 1.5963 5.28266)
(3.55832e-15 1.60689 5.34621)
(3.23413e-15 1.63056 5.35087)
(2.81039e-15 1.66502 5.30901)
(2.33079e-15 1.70669 5.22989)
(1.83656e-15 1.75118 5.12006)
(1.36135e-15 1.79372 4.98435)
(9.25984e-16 1.82901 4.82691)
(5.34294e-16 1.85047 4.65188)
(1.7061e-16 1.84954 4.46363)
(-2.10776e-16 1.82058 4.26975)
(-7.23574e-16 1.77405 4.08898)
(-1.50911e-15 1.68565 3.93322)
(-2.12682e-15 1.21752 3.6451)
(-7.36165e-16 -0.209739 2.73036)
(1.03373e-15 -1.28826 2.23691)
(1.5547e-15 -1.73683 2.24903)
(1.96398e-15 -2.06273 2.12553)
(2.41192e-15 -2.42475 1.9474)
(2.82712e-15 -2.80291 1.78775)
(3.1686e-15 -3.18975 1.63175)
(3.40277e-15 -3.57966 1.47465)
(3.50266e-15 -3.95965 1.3133)
(3.44744e-15 -4.31678 1.15075)
(3.2373e-15 -4.6505 0.986209)
(2.89195e-15 -4.94905 0.813332)
(2.45193e-15 -5.19796 0.635404)
(1.96406e-15 -5.39958 0.456802)
(1.44971e-15 -5.5399 0.27656)
(9.39603e-16 -5.56948 0.102954)
(4.82146e-16 -5.45921 -0.0464833)
(1.63077e-16 -5.22961 -0.160473)
(2.73721e-17 -4.97001 -0.231364)
(-2.04391e-18 -4.72398 -0.277356)
(-1.90399e-18 -4.49226 -0.300193)
(-2.75949e-19 -4.25635 -0.316907)
(2.32186e-20 -3.99579 -0.32506)
(1.14784e-20 -3.6902 -0.337419)
(8.11915e-22 -3.3624 -0.345601)
(-1.97204e-22 -2.96287 -0.364387)
(-5.39363e-23 -2.57044 -0.37246)
(-3.38801e-23 -2.00209 -0.396908)
(4.43388e-23 -1.54448 -0.391592)
(-4.27644e-22 -0.49019 -0.442447)
(5.15133e-21 0.653358 -0.38415)
(-2.37268e-20 1.49093 -0.447206)
(1.28579e-19 2.18893 -0.0494867)
(-3.54739e-19 2.44219 -0.311579)
(6.45148e-19 2.89493 0.0674664)
(1.62427e-18 -3.01516 -0.298026)
(3.64396e-26 0.879734 1.26869)
(-3.73235e-26 0.981552 1.27042)
(-4.93859e-25 1.03123 1.28064)
(-2.79677e-24 1.08794 1.29275)
(-1.21127e-23 1.13715 1.30867)
(-3.84115e-23 1.18542 1.32746)
(-6.99285e-23 1.23024 1.34868)
(7.3022e-23 1.27373 1.37255)
(1.15728e-21 1.31509 1.39871)
(5.02307e-21 1.35545 1.42758)
(1.28342e-20 1.39506 1.4592)
(1.30942e-20 1.43491 1.49389)
(-5.50704e-20 1.47554 1.53167)
(-3.61878e-19 1.51762 1.57264)
(-1.16499e-18 1.56166 1.61669)
(-2.31947e-18 1.60793 1.66413)
(-1.50629e-18 1.65597 1.71713)
(9.7499e-18 1.70368 1.78327)
(5.19556e-17 1.74626 1.88026)
(1.61641e-16 1.77605 2.03807)
(3.85909e-16 1.78477 2.29169)
(7.6228e-16 1.76805 2.662)
(1.2914e-15 1.72929 3.13569)
(1.92281e-15 1.67917 3.66248)
(2.56757e-15 1.63033 4.17545)
(3.12947e-15 1.59184 4.61849)
(3.53392e-15 1.56717 4.96176)
(3.74149e-15 1.55607 5.20066)
(3.74671e-15 1.55733 5.34613)
(3.56952e-15 1.57043 5.41506)
(3.24569e-15 1.59526 5.42403)
(2.81904e-15 1.63104 5.38658)
(2.33554e-15 1.6757 5.3126)
(1.83839e-15 1.7259 5.20889)
(1.36311e-15 1.77753 5.08024)
(9.32345e-16 1.82595 4.93064)
(5.51025e-16 1.86597 4.76441)
(2.03139e-16 1.89099 4.58684)
(-1.48294e-16 1.89205 4.4043)
(-5.66732e-16 1.862 4.22601)
(-1.179e-15 1.81126 4.07097)
(-2.15632e-15 1.73497 3.95592)
(-3.08079e-15 1.33827 3.74538)
(-1.77401e-15 -0.0323605 2.87576)
(8.98025e-16 -1.2413 2.14094)
(1.68086e-15 -1.72862 2.14013)
(2.06327e-15 -2.0362 2.08218)
(2.46464e-15 -2.39064 1.91558)
(2.86173e-15 -2.77113 1.75323)
(3.19031e-15 -3.15842 1.6029)
(3.41265e-15 -3.5478 1.45326)
(3.50347e-15 -3.92733 1.29984)
(3.44223e-15 -4.28422 1.14518)
(3.22885e-15 -4.61714 0.987159)
(2.88283e-15 -4.91469 0.819648)
(2.44406e-15 -5.16337 0.64599)
(1.95813e-15 -5.36513 0.470413)
(1.44603e-15 -5.50632 0.292112)
(9.38128e-16 -5.53916 0.119344)
(4.82324e-16 -5.43487 -0.0303999)
(1.63835e-16 -5.21299 -0.145705)
(2.77232e-17 -4.96015 -0.218626)
(-2.06411e-18 -4.71897 -0.266963)
(-1.96373e-18 -4.4903 -0.2924)
(-2.90579e-19 -4.25598 -0.31188)
(2.419e-20 -3.99598 -0.323187)
(1.24391e-20 -3.69043 -0.339214)
(9.15558e-22 -3.36203 -0.351775)
(-2.2124e-22 -2.96233 -0.375638)
(-6.12172e-23 -2.56926 -0.389407)
(-3.40434e-23 -2.00183 -0.419705)
(4.54171e-23 -1.54122 -0.418677)
(-4.72205e-22 -0.494019 -0.473594)
(5.14996e-21 0.651512 -0.394323)
(-2.28085e-20 1.45582 -0.457985)
(1.13841e-19 2.17199 -0.0579764)
(-2.75535e-19 2.43164 -0.300308)
(4.47553e-19 2.89019 0.0468313)
(9.82976e-19 -2.99295 -0.278408)
(-2.19916e-26 0.879632 1.30543)
(-4.38222e-25 0.980464 1.30699)
(-1.96835e-24 1.02906 1.31734)
(-7.88463e-24 1.08526 1.32989)
(-2.61516e-23 1.13377 1.34633)
(-5.81975e-23 1.18156 1.36587)
(-1.01165e-23 1.22586 1.38787)
(6.22903e-22 1.26888 1.41267)
(3.33453e-21 1.30975 1.43982)
(1.01848e-20 1.34957 1.46987)
(1.65756e-20 1.3886 1.50284)
(-1.66524e-20 1.42785 1.53908)
(-2.23285e-19 1.46786 1.57852)
(-8.69388e-19 1.50934 1.62119)
(-2.08285e-18 1.55273 1.6671)
(-2.54016e-18 1.59797 1.7176)
(3.9955e-18 1.6436 1.77842)
(3.46844e-17 1.68559 1.8648)
(1.23433e-16 1.71664 2.00567)
(3.18872e-16 1.72781 2.23945)
(6.66278e-16 1.71312 2.59573)
(1.17715e-15 1.67483 3.07015)
(1.80785e-15 1.62425 3.61449)
(2.46792e-15 1.57632 4.1552)
(3.05366e-15 1.54216 4.62619)
(3.48248e-15 1.52535 4.99068)
(3.70992e-15 1.52356 5.24239)
(3.72893e-15 1.53266 5.39431)
(3.56007e-15 1.54985 5.4665)
(3.24077e-15 1.57462 5.47823)
(2.81668e-15 1.60766 5.44465)
(2.33535e-15 1.6493 5.37623)
(1.84125e-15 1.69838 5.2797)
(1.37102e-15 1.75219 5.15941)
(9.48701e-16 1.80688 5.01881)
(5.8099e-16 1.85774 4.86174)
(2.53169e-16 1.8993 4.69355)
(-7.24867e-17 1.92459 4.52164)
(-4.53618e-16 1.92427 4.35502)
(-9.67018e-16 1.89006 4.20457)
(-1.74148e-15 1.83151 4.08793)
(-2.95916e-15 1.75797 4.02219)
(-4.22809e-15 1.42423 3.89076)
(-3.11634e-15 0.15391 3.09069)
(5.15209e-16 -1.16681 2.0956)
(1.72768e-15 -1.72309 2.01491)
(2.17947e-15 -2.02146 2.00626)
(2.53236e-15 -2.36189 1.87641)
(2.89724e-15 -2.74289 1.7162)
(3.2117e-15 -3.13213 1.56812)
(3.42269e-15 -3.52146 1.42662)
(3.50399e-15 -3.90034 1.28276)
(3.43656e-15 -4.25643 1.13753)
(3.21992e-15 -4.58765 0.98778)
(2.87323e-15 -4.88311 0.827199)
(2.43573e-15 -5.13043 0.65905)
(1.95178e-15 -5.33117 0.487426)
(1.44196e-15 -5.47208 0.311667)
(9.3632e-16 -5.50718 0.140011)
(4.82265e-16 -5.40806 -0.0100346)
(1.64456e-16 -5.19332 -0.126869)
(2.80431e-17 -4.94673 -0.202212)
(-2.07948e-18 -4.7099 -0.253405)
(-2.01978e-18 -4.4838 -0.28202)
(-3.04929e-19 -4.25061 -0.304911)
(2.50657e-20 -3.99076 -0.320059)
(1.34133e-20 -3.68484 -0.340563)
(1.02908e-21 -3.35557 -0.358408)
(-2.46339e-22 -2.95558 -0.38845)
(-6.95219e-23 -2.56207 -0.409089)
(-3.43103e-23 -1.99601 -0.446314)
(4.66261e-23 -1.53345 -0.450761)
(-5.07019e-22 -0.494996 -0.507432)
(5.0705e-21 0.646492 -0.409474)
(-2.15375e-20 1.42621 -0.471608)
(9.837e-20 2.15361 -0.0712617)
(-1.92093e-19 2.42448 -0.290132)
(2.50125e-19 2.88446 0.0299459)
(-2.73466e-18 -2.96844 -0.246904)
(-2.73951e-25 0.879494 1.34286)
(-1.57799e-24 0.97925 1.34447)
(-5.41552e-24 1.02664 1.35502)
(-1.73844e-23 1.08227 1.36811)
(-4.30572e-23 1.13001 1.38513)
(-3.88259e-23 1.17725 1.4055)
(3.04886e-22 1.22099 1.42836)
(2.09115e-21 1.26348 1.45415)
(7.49637e-21 1.30379 1.48236)
(1.59849e-20 1.34301 1.51364)
(4.8663e-21 1.38139 1.54803)
(-1.23156e-19 1.41997 1.58584)
(-6.07896e-19 1.45931 1.62692)
(-1.72485e-18 1.50012 1.67127)
(-2.89241e-18 1.54261 1.71955)
(1.59777e-19 1.58591 1.77579)
(2.11482e-17 1.62679 1.85247)
(9.04045e-17 1.65851 1.97633)
(2.5647e-16 1.67163 2.18775)
(5.71537e-16 1.65837 2.52492)
(1.05932e-15 1.61904 2.99493)
(1.68579e-15 1.56484 3.55504)
(2.36072e-15 1.51307 4.12629)
(2.97246e-15 1.478 4.63101)
(3.42884e-15 1.46496 5.02278)
(3.67916e-15 1.47097 5.29164)
(3.71418e-15 1.48942 5.45175)
(3.55501e-15 1.5146 5.5264)
(3.24076e-15 1.54396 5.53816)
(2.81896e-15 1.57794 5.50472)
(2.33884e-15 1.61826 5.43806)
(1.84628e-15 1.66596 5.34546)
(1.37916e-15 1.7203 5.23108)
(9.62907e-16 1.7787 5.09775)
(6.0604e-16 1.83716 4.94856)
(2.96169e-16 1.89068 4.78821)
(-2.71483e-18 1.93333 4.6241)
(-3.49623e-16 1.95774 4.46644)
(-8.1922e-16 1.95427 4.32691)
(-1.49332e-15 1.91401 4.21695)
(-2.4875e-15 1.84628 4.15041)
(-3.97254e-15 1.77407 4.13991)
(-5.58409e-15 1.50495 4.08379)
(-4.733e-15 0.365495 3.36731)
(-1.59693e-16 -1.04457 2.10996)
(1.62691e-15 -1.70471 1.89742)
(2.26999e-15 -2.01131 1.90055)
(2.61861e-15 -2.33529 1.81702)
(2.93934e-15 -2.71187 1.67592)
(3.23185e-15 -3.10299 1.52942)
(3.43228e-15 -3.49339 1.39441)
(3.50429e-15 -3.87198 1.26155)
(3.43048e-15 -4.22741 1.12727)
(3.21059e-15 -4.55702 0.987365)
(2.86323e-15 -4.85048 0.835359)
(2.42699e-15 -5.09654 0.674073)
(1.94501e-15 -5.29636 0.507436)
(1.43746e-15 -5.43713 0.334929)
(9.34113e-16 -5.47466 0.164761)
(4.81903e-16 -5.38096 0.0144921)
(1.64892e-16 -5.17365 -0.103994)
(2.83164e-17 -4.93364 -0.18205)
(-2.08937e-18 -4.70149 -0.236543)
(-2.07016e-18 -4.47825 -0.268855)
(-3.18548e-19 -4.24637 -0.295757)
(2.58214e-20 -3.98673 -0.315377)
(1.43785e-20 -3.68042 -0.341098)
(1.15111e-21 -3.35018 -0.365026)
(-2.72031e-22 -2.94971 -0.402237)
(-7.88742e-23 -2.55562 -0.430776)
(-3.47157e-23 -1.99096 -0.475924)