/*--------------------------------*- C++ -*----------------------------------*\
| =========                 |                                                 |
| \\      /  F ield         | OpenFOAM: The Open Source CFD Toolbox           |
|  \\    /   O peration     | Version:  4.1                                   |
|   \\  /    A nd           | Web:      www.OpenFOAM.org                      |
|    \\/     M anipulation  |                                                 |
\*---------------------------------------------------------------------------*/
FoamFile
{
    version     2.0;
    format      ascii;
    class       volScalarField;
    location    "10";
    object      p;
}
// * * * * * * * * * * * * * * * * * * * * * * * * * * * * * * * * * * * * * //

dimensions      [0 2 -2 0 0 0 0];

internalField   nonuniform List<scalar> 
6785
(
563.395
509.998
458.166
409.755
364.864
322.848
283.493
246.489
211.395
178.031
147.09
118.951
89.9223
55.0038
25.8523
96.9604
74.6996
68.9412
65.231
59.757
54.0497
48.897
44.5083
41.0246
38.5659
37.3748
37.8765
39.973
41.8446
42.1049
-5.81877
-12.4616
-6.6944
-2.54742
0.543346
4.13887
8.02536
11.9629
15.8675
19.5835
22.9292
25.9965
29.0735
31.7264
32.9608
40.3197
37.9018
42.4945
42.8185
42.8721
43.0872
42.9979
42.6204
42.0386
41.2792
40.3222
39.2126
38.3024
38.1504
38.4611
56.755
54.4216
55.9747
53.8762
52.4567
51.2126
49.802
48.4195
47.1615
46.07
45.1686
44.4558
43.9781
43.9456
44.1907
47.5434
45.5183
46.49
45.2691
45.064
45.0466
44.9572
44.9891
45.1434
45.3858
45.7041
46.0662
46.3855
46.6422
46.8171
44.1079
42.9484
44.0273
43.6998
44.0811
44.471
44.7659
45.1128
45.4659
45.7877
46.0747
46.3265
46.5032
46.5835
46.5991
45.8432
45.2794
46.1187
45.8785
46.0642
46.1668
46.181
46.2171
46.2336
46.2214
46.1913
46.1579
46.1202
46.0721
46.0227
46.2621
45.9269
46.4053
46.1029
46.118
46.0657
45.9696
45.9031
45.8303
45.7544
45.6816
45.6169
45.5611
45.509
45.4538
45.0609
44.8414
45.1262
44.8957
44.9156
44.8837
44.8313
44.8032
44.7685
44.7329
44.6977
44.6608
44.6211
44.5741
44.5083
44.0064
43.8616
44.0446
43.8855
43.9051
43.8719
43.8227
43.7866
43.7391
43.6875
43.6332
43.5752
43.5133
43.4468
43.3592
43.055
42.998
43.0982
42.9254
42.8802
42.7959
42.704
42.6183
42.5216
42.4227
42.322
42.22
42.122
42.0332
41.929
43.9735
43.8493
43.6869
43.3083
43.0451
42.7454
42.4307
42.1261
41.8275
41.5462
41.2843
41.0466
40.838
40.6719
40.5207
41.323
41.7992
42.1906
42.0434
41.692
41.2563
40.8379
40.4515
40.0701
39.6877
39.3044
38.9209
38.5469
38.1999
37.8548
58.694
58.3348
57.5629
55.0548
51.5149
47.9385
44.6225
41.6493
38.9434
36.6249
34.6361
32.9732
31.6559
30.6772
29.892
62.118
61.0634
61.8578
61.0506
60.4379
58.9679
59.4998
58.047
56.8609
55.2039
55.494
53.1163
50.1144
51.007
48.7518
46.8514
46.1043
46.971
43.6288
41.178
43.2248
40.8189
38.8366
39.6722
41.6642
38.7054
36.7601
38.4039
41.4071
38.5506
37.6141
41.658
40.3205
39.017
40.7248
44.3633
42.5308
42.0919
46.0301
45.3661
44.542
45.8659
48.9847
48.1468
47.4556
48.5621
51.2382
50.5591
50.3107
52.5015
52.3728
52.1028
52.6283
54.2474
54.0309
53.8062
54.2113
55.9158
55.9474
55.8795
57.6382
57.8624
57.6795
57.4967
58.4269
58.497
58.2447
58.3758
58.1246
58.7058
59.0978
56.0863
55.1818
55.5571
52.7923
47.4267
49.8434
43.2788
25.2403
31.2314
35.2288
35.5271
36.234
31.1616
33.8393
37.4169
38.3922
38.7207
38.6335
39.1866
40.9779
42.5729
43.5294
38.3175
39.0363
40.9993
42.564
42.7133
42.8641
42.8327
43.1528
46.2313
43.2175
43.4611
43.4245
44.1717
45.5519
46.2873
46.194
45.6334
45.0828
49.2038
47.6695
47.5631
47.0964
46.8312
47.6952
48.5356
47.5354
45.7083
48.0214
49.8705
50.5571
50.5539
49.6878
48.8186
47.8755
46.9147
45.8813
51.2865
51.3818
49.4911
48.8753
48.2129
46.973
44.9907
41.9213
39.6449
44.4881
47.2553
44.6047
42.779
40.2622
36.951
34.4202
32.5331
30.5012
29.7964
29.1923
32.7871
30.9623
30.7246
30.2926
28.5182
25.7988
25.2868
26.6057
22.8243
29.5306
28.6619
27.6988
29.5901
29.9154
30.638
31.1803
31.9504
32.4467
32.7216
33.1053
33.1378
33.3172
33.443
33.3141
33.4158
33.293
33.5869
33.3447
32.7725
32.8104
32.6864
33.1445
32.4433
31.2476
31.9461
31.4466
30.5551
30.5365
30.4034
31.5396
30.1105
28.4478
28.435
28.47
30.1681
28.5501
26.0768
28.0417
26.9609
25.2341
25.1869
25.039
27.7332
25.3035
22.5093
22.4476
22.4987
25.9208
23.4796
19.5791
23.1902
21.3664
18.5413
18.4148
18.1748
22.9024
19.3621
15.2223
15.0379
14.9344
20.512
16.9867
11.2009
16.8945
14.0019
9.61209
9.24609
8.71979
16.0918
10.9079
4.80938
4.32575
3.94809
12.4266
7.11938
-1.59593
6.9779
2.18961
-4.5644
-5.8841
-5.70014
0.00410419
-0.0116069
-0.0219466
-0.0195588
3.53171e-05
-0.0133599
-0.0254075
-0.0369759
-0.0423172
-0.0481878
-0.0426203
-0.0658131
-0.0571427
-0.0524017
-0.0692903
-0.0344894
0.0287981
0.029293
0.029707
-0.00279027
0.10456
0.0474085
0.0361021
-0.038014
0.0978532
0.0834347
0.0875841
0.0382947
0.0196867
0.00856123
0.000695041
0.00749405
0.00152378
0.0244608
0.0265975
0.0160326
0.000925026
-0.0425528
-0.121812
-0.254806
-0.432494
-0.59103
-0.64184
-0.716554
-0.918745
-0.871001
-0.873661
-0.582044
-0.298132
0.0355022
0.0200231
0.0747372
0.544475
0.951047
1.52306
2.87369
6.95901
2.34647
0.626036
0.0757117
0.112333
0.209171
-0.00276792
-0.616016
-0.513525
-1.05788
-1.40548
-1.43153
-1.24836
-0.945854
-0.577679
-0.179205
0.235954
0.541105
0.653382
0.746746
0.805531
0.835871
0.771977
0.0088068
-0.0143659
-0.0330841
-0.0306318
0.0116226
-0.0141796
-0.0348619
-0.0477283
-0.0616244
-0.0761905
-0.0328587
-0.0821617
-0.0623801
-0.0493194
-0.075295
0.00811277
0.0317142
0.034381
0.0373785
0.020101
0.182137
0.0916441
0.049577
-0.020503
0.209544
0.160323
0.119884
0.06814
0.0399796
0.00666755
0.0271234
0.0132182
0.00253627
0.0217864
0.0188879
0.00232486
-0.0337083
-0.120548
-0.271456
-0.502563
-0.775835
-0.957701
-0.898485
-0.833217
-1.20307
-1.2599
-1.21635
-0.833251
-0.453819
-0.0723756
0.0431748
0.219935
0.843028
1.27277
2.25231
5.61889
12.3083
4.08922
1.37767
0.320666
0.322239
0.323531
0.290638
0.186833
0.461843
-0.408813
-1.06883
-1.2607
-1.08979
-0.683079
-0.133475
0.491968
1.13884
1.55672
1.80666
1.99644
2.08032
2.14778
2.01553
0.00726937
-0.019571
-0.0419538
-0.0442564
-0.00631415
-0.0261859
-0.0442158
-0.0619209
-0.0792793
-0.094439
-0.0512645
-0.0877973
-0.075229
-0.0735424
-0.0991944
-0.0277843
0.0115538
0.0215586
0.0257066
0.0123182
0.19553
0.114904
0.0408961
-0.0247041
0.217101
0.203761
0.128248
0.0841769
0.0563965
0.0203553
0.0354804
0.024171
0.0220439
0.0610099
0.0671672
0.0611906
0.0312483
-0.0482144
-0.189208
-0.405087
-0.65662
-0.821216
-0.782845
-0.793968
-1.23442
-1.42755
-1.3582
-1.00227
-0.589525
-0.198287
0.0521412
0.350547
1.08315
1.4336
2.48747
5.98358
13.4216
5.63717
2.15781
0.48915
0.473212
0.357233
0.352211
0.679727
1.74975
1.03124
0.266342
-0.0625412
0.000499399
0.338995
0.847422
1.46877
2.11777
2.58879
2.96571
3.27266
3.44931
3.58954
3.61105
0.00469836
-0.0230206
-0.0453084
-0.0474163
-0.0161873
-0.032515
-0.0491688
-0.068834
-0.0840922
-0.0963915
-0.0578415
-0.086523
-0.0796574
-0.0844174
-0.107233
-0.043379
0.00429357
0.0207915
0.0305258
0.0271021
0.216988
0.140116
0.0454441
-0.00550886
0.233249
0.2325
0.148186
0.104285
0.073708
0.0421679
0.0542796
0.0512837
0.058927
0.108653
0.130803
0.139657
0.126764
0.0724712
-0.0333137
-0.206224
-0.422614
-0.599445
-0.673207
-0.854862
-1.29931
-1.52612
-1.44597
-1.14003
-0.709338
-0.304642
0.0692282
0.468931
1.30202
1.61336
2.53927
5.77052
13.6426
6.73456
2.77177
0.643563
0.654862
0.450111
0.278591
0.742221
2.79177
2.37393
1.62679
1.20626
1.15622
1.41545
1.86954
2.46265
3.08176
3.58471
4.06253
4.46249
4.71539
4.93861
4.9626
0.00220377
-0.0262562
-0.0473773
-0.0479638
-0.0212571
-0.0371982
-0.052843
-0.072375
-0.0868494
-0.0969176
-0.0615516
-0.0864689
-0.0776837
-0.0853145
-0.10505
-0.0418102
0.0011423
0.0261223
0.0435426
0.0539273
0.240341
0.162913
0.055024
0.0245097
0.25865
0.253385
0.165728
0.119848
0.0876259
0.059558
0.0729453
0.0811475
0.0964952
0.149708
0.183872
0.206584
0.210131
0.177942
0.0995607
-0.0467373
-0.255296
-0.474484
-0.666662
-0.974345
-1.37302
-1.58562
-1.55852
-1.26226
-0.823376
-0.401859
0.0826408
0.566338
1.47478
1.72151
2.55379
5.66709
13.7844
7.52059
3.25703
0.776363
0.849174
0.603348
0.221033
0.625365
3.49471
3.32508
2.64989
2.20606
2.10971
2.34791
2.79957
3.38589
3.99961
4.53987
5.11395
5.60217
5.93121
6.20813
6.43018
0.000284512
-0.0296091
-0.0497587
-0.0491446
-0.0261354
-0.0429134
-0.0575629
-0.0761203
-0.0913448
-0.0983569
-0.0662643
-0.0884478
-0.0761783
-0.0856981
-0.101274
-0.034151
0.000424016
0.031202
0.0544533
0.0775787
0.255737
0.180162
0.0634359
0.0495163
0.27816
0.267309
0.181736
0.1314
0.0996807
0.0725889
0.0901488
0.109122
0.133691
0.188741
0.231321
0.266531
0.28409
0.268693
0.207619
0.0719396
-0.14744
-0.416018
-0.698439
-1.06652
-1.4075
-1.61487
-1.64581
-1.38075
-0.934333
-0.485472
0.103859
0.656789
1.61483
1.78272
2.58528
5.65861
13.7055
7.94983
3.57986
0.880258
1.05657
0.804238
0.26442
0.644801
4.12343
4.0873
3.45962
3.02538
2.93074
3.18258
3.6536
4.25194
4.88348
5.46232
6.11713
6.68409
7.08555
7.44284
7.62467
-0.000763427
-0.0322162
-0.0515876
-0.0502451
-0.0307247
-0.0485577
-0.0622924
-0.0798917
-0.0961818
-0.099384
-0.0712622
-0.0897755
-0.0761542
-0.0871764
-0.0969127
-0.0251355
0.00169978
0.035316
0.0594901
0.0932265
0.262747
0.191617
0.0701375
0.0658529
0.287924
0.276373
0.196359
0.141484
0.112708
0.0857454
0.109382
0.134765
0.169288
0.227558
0.277281
0.323687
0.353827
0.353061
0.305891
0.176941
-0.0544225
-0.363044
-0.708258
-1.10274
-1.39894
-1.62923
-1.72744
-1.49863
-1.04825
-0.564438
0.124478
0.731076
1.71882
1.81586
2.61269
5.6153
13.3321
8.09807
3.76449
0.966895
1.28199
1.07212
0.441577
0.972726
4.90035
4.88998
4.24929
3.81097
3.72105
3.98591
4.47208
5.08997
5.74505
6.3605
7.0788
7.71705
8.18949
8.64601
8.85089
-0.00143539
-0.0343234
-0.0530838
-0.0513425
-0.0352163
-0.0538083
-0.0666206
-0.0834653
-0.100702
-0.100178
-0.0757246
-0.0899625
-0.0768967
-0.0886051
-0.0920847
-0.0170289
0.00382125
0.0378187
0.0591727
0.102207
0.263126
0.197435
0.0736933
0.0754583
0.289788
0.281196
0.209525
0.15181
0.126779
0.101596
0.131715
0.161448
0.205384
0.268382
0.326227
0.383422
0.426295
0.440801
0.408865
0.289594
0.052443
-0.284881
-0.678698
-1.09189
-1.36631
-1.63659
-1.81114
-1.62401
-1.16077
-0.629832
0.153362
0.800998
1.80616
1.8388
2.61267
5.49395
12.6647
7.9649
3.78941
1.01606
1.50841
1.41014
0.733819
1.59872
5.84694
5.77988
5.08284
4.60982
4.50417
4.77106
5.2689
5.90858
6.58392
7.2308
7.99916
8.70155
9.24186
9.74809
10.1786
-0.00201536
-0.035955
-0.0542738
-0.0524044
-0.039801
-0.0585128
-0.0704994
-0.0868513
-0.104967
-0.101697
-0.0797762
-0.089766
-0.0779506
-0.0895903
-0.0874584
-0.0103396
0.00640336
0.0383567
0.0551483
0.106471
0.259143
0.198893
0.073691
0.0808332
0.285777
0.282716
0.221159
0.162611
0.139688
0.118632
0.154689
0.188465
0.241238
0.309791
0.376536
0.444482
0.500768
0.531925
0.517726
0.412408
0.175632
-0.183549
-0.622198
-1.05825
-1.32768
-1.63862
-1.89879
-1.74848
-1.26779
-0.685419
0.180553
0.856981
1.87288
1.85009
2.57276
5.28521
11.7623
7.61145
3.68521
1.04097
1.72858
1.79887
1.13982
2.48668
6.90594
6.72655
5.95672
5.4266
5.28706
5.54637
6.05401
6.7118
7.40285
8.07731
8.88499
9.64442
10.2511
10.8318
11.2577
-0.00268592
-0.0374556
-0.0553483
-0.0536905
-0.0447527
-0.062895
-0.0742102
-0.0902165
-0.108974
-0.104067
-0.0838456
-0.0898837
-0.0786756
-0.0897343
-0.0825458
-0.005824
0.00886291
0.036769
0.048847
0.107457
0.25228
0.196929
0.0712223
0.0841689
0.278233
0.282231
0.230906
0.173338
0.152338
0.137339
0.178325
0.216313
0.278166
0.35336
0.429955
0.509401
0.580307
0.629678
0.635343
0.546593
0.312641
-0.0678355
-0.554794
-1.01854
-1.29775
-1.64539
-1.9821
-1.86268
-1.36244
-0.725836
0.212516
0.907015
1.9256
1.85709
2.5135
5.01142
10.6645
7.0521
3.43993
1.01013
1.89913
2.20954
1.68229
3.59248
8.00876
7.68145
6.83594
6.23766
6.05621
6.30586
6.82376
7.49663
8.20023
8.89737
9.736
10.5466
11.218
11.8945
12.3309
-0.00334635
-0.0388721
-0.0561538
-0.0551079
-0.0498339
-0.0668957
-0.0777616
-0.0937728
-0.112631
-0.106948
-0.0881292
-0.0905538
-0.0791648
-0.0890523
-0.0771171
-0.00318966
0.0110546
0.0334497
0.0415157
0.107339
0.244239
0.192992
0.0680756
0.0875106
0.269915
0.280288
0.238948
0.183605
0.164479
0.156683
0.201781
0.244063
0.314613
0.397267
0.483912
0.575388
0.661731
0.730198
0.756743
0.685425
0.454125
0.0496347
-0.4895
-0.98653
-1.28373
-1.66042
-2.05388
-1.9615
-1.44564
-0.757959
0.241664
0.943062
1.95501
1.86243
2.47165
4.6823
9.44394
6.35484
3.08986
0.928582
2.01935
2.64308
2.40202
4.89159
9.12652
8.63372
7.70824
7.03786
6.81657
7.05747
7.58315
8.26603
8.9789
9.69562
10.5585
11.4142
12.1478
12.8978
13.4582
-0.00411103
-0.0403793
-0.0568145
-0.0568625
-0.0549415
-0.0707529
-0.0812795
-0.0976581
-0.11608
-0.110141
-0.0926746
-0.0916878
-0.0798287
-0.0876987
-0.0714614
-0.00183747
0.0123903
0.029499
0.0346573
0.10756
0.235687
0.187739
0.0658473
0.0924308
0.262682
0.277807
0.245793
0.193504
0.177089
0.176875
0.225915
0.273192
0.35147
0.442472
0.540113
0.644472
0.747164
0.835505
0.883471
0.829379
0.599144
0.166832
-0.427164
-0.959744
-1.27913
-1.6741
-2.11061
-2.03863
-1.51374
-0.777938
0.274554
0.971341
1.97291
1.87242
2.44673
4.31213
8.14953
5.54464
2.63149
0.776709
2.08929
3.10286
3.29845
6.30594
10.2357
9.569
8.55476
7.81036
7.55567
7.7931
8.3262
9.01659
9.73688
10.47
11.3514
12.2483
13.0421
13.8736
14.4506
-0.00490696
-0.0417512
-0.0572622
-0.0587903
-0.0597382
-0.0743345
-0.0846619
-0.101764
-0.119356
-0.11335
-0.0972223
-0.092863
-0.0809928
-0.0857433
-0.0658812
-0.00103225
0.0131748
0.0260284
0.0293223
0.108637
0.227254
0.181598
0.0656091
0.0994943
0.25691
0.275513
0.251719
0.203085
0.189493
0.196894
0.250296
0.303114
0.387742
0.487427
0.59655
0.714226
0.833741
0.942275
1.01171
0.974334
0.7438
0.280869
-0.368275
-0.933455
-1.27678
-1.68374
-2.15256
-2.09186
-1.56651
-0.791753
0.301608
0.985705
1.98062
1.88693
2.41726
3.89492
6.83769
4.66599
2.10293
0.581011
2.13617
3.60606
4.36881
7.8048
11.3439
10.5
9.38035
8.56064
8.28037
8.5178
9.05636
9.75065
10.4765
11.224
12.119
13.0551
13.9032
14.7861
15.511
-0.00575197
-0.042996
-0.0577641
-0.061002
-0.0643152
-0.0777967
-0.0880209
-0.105959
-0.122491
-0.116426
-0.101518
-0.0942503
-0.0825302
-0.0834772
-0.0608536
-0.000714603
0.0135061
0.023513
0.0261736
0.110626
0.218662
0.174936
0.0679654
0.108838
0.252762
0.27419
0.257181
0.212973
0.202862
0.218236
0.275971
0.334661
0.425937
0.534418
0.655457
0.787293
0.924448
1.05389
1.14524
1.12444
0.892884
0.397308
-0.307114
-0.896347
-1.26911
-1.6836
-2.17714
-2.12226
-1.60029
-0.798221
0.325281
0.988733
1.98216
1.90484
2.37759
3.44462
5.52759
3.77435
1.5288
0.33471
2.15305
4.15328
5.56967
9.32493
12.4362
11.4113
10.1699
9.27479
8.97678
9.22006
9.76599
10.4641
11.1962
11.9558
12.8607
13.835
14.7324
15.681
16.3887
-0.0064617
-0.0440761
-0.0582419
-0.0632961
-0.0685402
-0.0809862
-0.0913468
-0.110212
-0.125472
-0.119209
-0.10527
-0.0957621
-0.0841523
-0.0815096
-0.0564995
-0.000913927
0.0136981
0.0220167
0.0256503
0.112982
0.209378
0.167447
0.0726296
0.119594
0.249895
0.273517
0.261912
0.223066
0.217017
0.240139
0.302079
0.366973
0.465195
0.582304
0.715124
0.861597
1.01699
1.16793
1.28165
1.2776
1.04504
0.515749
-0.244631
-0.846279
-1.25457
-1.67698
-2.18854
-2.13987
-1.62701
-0.805157
0.336552
0.976327
1.97486
1.91606
2.32156
2.95942
4.26039
2.95568
0.958753
0.0668159
2.16786
4.75448
6.86858
10.8452
13.5244
12.3127
10.9325
9.96239
9.6542
9.90599
10.4595
11.1603
11.8992
12.6696
13.5817
14.5897
15.5311
16.5525
17.2867
-0.00704195
-0.0450471
-0.0588046
-0.065843
-0.0725052
-0.0840192
-0.0948563
-0.114538
-0.128361
-0.121842
-0.108592
-0.0975427
-0.0857533
-0.0798216
-0.0530455
-0.00188117
0.0133679
0.0212875
0.0277434
0.115165
0.199386
0.159433
0.0791924
0.13106
0.248178
0.273796
0.26641
0.233665
0.232404
0.262829
0.329149
0.40093
0.506468
0.632582
0.777671
0.939783
1.11453
1.28821
1.42552
1.43909
1.2062
0.6422
-0.177696
-0.784652
-1.22521
-1.66331
-2.1864
-2.15767
-1.65032
-0.807671
0.33724
0.950585
1.95752
1.91217
2.2518
2.45443
3.1066
2.18874
0.392643
-0.229787
2.15338
5.35245
8.19195
12.3226
14.5843
13.1786
11.6488
10.6079
10.2988
10.5654
11.1308
11.8361
12.5843
13.3649
14.2813
15.3184
16.3019
17.3603
18.2633
-0.0074508
-0.045739
-0.0593571
-0.0684491
-0.0760279
-0.0867585
-0.0985438
-0.118899
-0.131131
-0.124266
-0.111523
-0.0993779
-0.0872815
-0.0784392
-0.0505655
-0.00367504
0.0125896
0.0211431
0.0318046
0.116564
0.18905
0.151532
0.0867238
0.14192
0.246988
0.274648
0.270483
0.243963
0.248156
0.285565
0.356177
0.435156
0.548111
0.683577
0.841311
1.01968
1.21468
1.41219
1.5742
1.60632
1.3738
0.774513
-0.10954
-0.722983
-1.1881
-1.64955
-2.17898
-2.18091
-1.67091
-0.810367
0.325559
0.914281
1.93052
1.88998
2.16369
1.91929
2.03687
1.41139
-0.182896
-0.540861
2.12359
5.91605
9.49159
13.7451
15.6355
14.0226
12.328
11.2216
10.9212
11.2067
11.7862
12.4967
13.2549
14.0453
14.9638
16.0247
17.0488
18.1581
19.0747
-0.00781929
-0.0462493
-0.0600961
-0.0711603
-0.0792521
-0.089407
-0.102509
-0.123236
-0.133821
-0.126596
-0.114312
-0.10158
-0.0888333
-0.0774093
-0.0492305
-0.00645785
0.010945
0.0210744
0.0365735
0.116864
0.178423
0.144718
0.0948834
0.151903
0.246561
0.276508
0.275
0.254187
0.264742
0.308843
0.383871
0.4703
0.591131
0.736676
0.908003
1.10373
1.32043
1.54345
1.732
1.7842
1.55327
0.91829
-0.0356217
-0.659642
-1.14456
-1.62852
-2.16424
-2.19824
-1.68327
-0.81164
0.304693
0.867726
1.89147
1.84772
2.06539
1.3689
0.986311
0.566883
-0.78463
-0.87911
2.04772
6.37163
10.6773
15.0801
16.6395
14.805
12.9404
11.7831
11.5057
11.8203
12.4207
13.1403
13.9099
14.7097
15.6284
16.7101
17.7733
18.9459
19.8712
-0.0081223
-0.0465279
-0.0609388
-0.0736834
-0.082081
-0.0919274
-0.106622
-0.127364
-0.136344
-0.128667
-0.116934
-0.103999
-0.0902056
-0.0767638
-0.0489079
-0.00995067
0.00889284
0.0211255
0.041116
0.11578
0.167735
0.139151
0.102995
0.160442
0.246686
0.278961
0.279667
0.26412
0.281535
0.331891
0.411354
0.50536
0.634338
0.790479
0.97592
1.18973
1.42926
1.67916
1.89576
1.96934
1.7409
1.0706
0.0428109
-0.595962
-1.09796
-1.60025
-2.14881
-2.20742
-1.68873
-0.81578
0.273565
0.81394
1.84572
1.78979
1.95129
0.798628
-0.0516303
-0.338744
-1.40972
-1.22932
1.94605
6.73228
11.6939
16.3229
17.5877
15.5292
13.4936
12.3052
12.0665
12.4177
13.0428
13.7726
14.5528
15.3605
16.2786
17.3767
18.4736
19.6927
20.6942
-0.00836753
-0.0467128
-0.0620672
-0.076137
-0.0846132
-0.0945598
-0.110877
-0.131208
-0.138707
-0.13062
-0.11962
-0.106862
-0.0913101
-0.0766033
-0.0496357
-0.0139717
0.00635095
0.021099
0.0449114
0.113588
0.157702
0.135004
0.111027
0.168122
0.247796
0.282238
0.285153
0.274878
0.299077
0.355356
0.43957
0.541349
0.679005
0.846434
1.04692
1.28009
1.54409
1.82284
2.06971
2.16669
1.94242
1.23781
0.132973
-0.522003
-1.04147
-1.55833
-2.12371
-2.20194
-1.68427
-0.822659
0.231876
0.744811
1.78496
1.70845
1.82502
0.23478
-1.04638
-1.24759
-2.04315
-1.58907
1.80172
6.97497
12.497
17.3958
18.3818
16.1464
13.9564
12.768
12.5904
12.9922
13.649
14.3919
15.1823
15.9966
16.9135
18.0251
19.152
20.4222
21.4372
-0.00849108
-0.0467746
-0.0632806
-0.0783539
-0.0867506
-0.0972333
-0.115027
-0.1347
-0.140795
-0.132318
-0.122252
-0.109717
-0.0921478
-0.0769231
-0.0510858
-0.0180707
0.00392945
0.0211906
0.0477819
0.110426
0.14866
0.132019
0.118502
0.174824
0.249612
0.285797
0.290827
0.286197
0.316842
0.378814
0.467824
0.577475
0.724118
0.903259
1.11936
1.37277
1.66247
1.97159
2.25047
2.37241
2.15345
1.41614
0.233179
-0.441177
-0.980415
-1.50755
-2.0861
-2.18173
-1.67471
-0.835389
0.180329
0.661374
1.71191
1.61162
1.679
-0.320016
-1.98657
-2.12507
-2.65049
-1.94266
1.64889
7.17211
13.1947
18.2402
19.0705
16.6891
14.3549
13.194
13.0967
13.557
14.2475
15.0035
15.801
16.6199
17.5355
18.6572
19.8086
21.106
22.2269
-0.00857639
-0.0468582
-0.0647362
-0.0805115
-0.0886891
-0.100093
-0.119128
-0.13793
-0.142686
-0.134001
-0.124932
-0.112543
-0.0931843
-0.0778224
-0.0532513
-0.0221887
0.00143749
0.0211038
0.0496232
0.106658
0.140626
0.130088
0.125634
0.181176
0.252277
0.289837
0.297155
0.298639
0.335542
0.403002
0.497094
0.614728
0.770972
0.962412
1.19514
1.47019
1.78733
2.12896
2.4423
2.59162
2.38015
1.61246
0.34969
-0.346786
-0.909212
-1.4455
-2.03121
-2.14369
-1.66114
-0.856435
0.115281
0.552775
1.61555
1.49882
1.52717
-0.835542
-2.82936
-2.93302
-3.19229
-2.291
1.4723
7.31924
13.7967
18.8465
19.608
17.117
14.6611
13.565
13.5728
14.1048
14.8334
15.604
16.4073
17.2293
18.1434
19.2738
20.4476
21.7806
22.9069
-0.00859355
-0.0469201
-0.0662904
-0.0823904
-0.0904064
-0.103018
-0.123086
-0.140865
-0.144335
-0.135575
-0.127431
-0.114919
-0.0944505
-0.0790732
-0.0557409
-0.0260217
-0.000663239
0.0210313
0.0505585
0.102485
0.133653
0.128855
0.132099
0.186891
0.255387
0.293878
0.303431
0.311555
0.354616
0.427419
0.526708
0.652203
0.818536
1.02276
1.27276
1.57041
1.91632
2.2921
2.64175
2.82021
2.6176
1.82228
0.479412
-0.243353
-0.832435
-1.38162
-1.96724
-2.09919
-1.65041
-0.888142
0.0401884
0.43438
1.50449
1.38053
1.36695
-1.31452
-3.56073
-3.67037
-3.65597
-2.63634
1.29011
7.46321
14.29
19.2439
20.0499
17.4539
14.8926
13.9005
14.0355
14.6458
15.4128
16.1969
17.0037
17.8269
18.7395
19.8745
21.066
22.4367
23.5875
-0.0086161
-0.0471197
-0.068089
-0.0840791
-0.0921314
-0.106151
-0.127047
-0.143604
-0.145901
-0.137311
-0.129992
-0.117113
-0.0960213
-0.080779
-0.0585931
-0.0296283
-0.00275469
0.0206229
0.0506338
0.0982336
0.12766
0.128242
0.138187
0.192572
0.259097
0.298145
0.310187
0.325431
0.3745
0.452627
0.557581
0.690896
0.867817
1.08574
1.35408
1.67582
2.05238
2.46464
2.85327
3.0636
2.87245
2.05358
0.629831
-0.124629
-0.741616
-1.31115
-1.89777
-2.05458
-1.64326
-0.931588
-0.0500935
0.309418
1.3761
1.24995
1.20877
-1.7375
-4.1641
-4.32814
-4.04755
-2.98013
1.07529
7.5508
14.5867
19.4275
20.3317
17.652
15.0118
14.1746
14.4677
15.1704
15.9801
16.7789
17.589
18.4121
19.3233
20.459
21.6659
23.0501
24.3178
-0.00862361
-0.0473902
-0.069855
-0.085397
-0.0938482
-0.109366
-0.130888
-0.146035
-0.147266
-0.139057
-0.132517
-0.118914
-0.0977424
-0.0826621
-0.061436
-0.0327916
-0.00448008
0.0201183
0.0500689
0.0940134
0.122638
0.12804
0.143686
0.19793
0.263028
0.302261
0.316933
0.33957
0.394546
0.478087
0.589004
0.73026
0.917923
1.15028
1.43771
1.78461
2.19328
2.64381
3.07334
3.31738
3.13906
2.3009
0.798916
0.00196253
-0.638792
-1.23544
-1.83693
-2.01701
-1.64191
-0.983661
-0.151399
0.198467
1.24241
1.10894
1.03527
-2.11924
-4.6568
-4.91375
-4.39889
-3.30541
0.845367
7.58595
14.7362
19.4704
20.5164
17.7436
15.0518
14.4128
14.8859
15.6872
16.5407
17.3537
18.1655
18.9867
19.896
21.0275
22.2457
23.6513
24.9408
-0.00869247
-0.0478553
-0.0715983
-0.086577
-0.0957116
-0.112778
-0.134708
-0.148283
-0.148629
-0.141138
-0.135315
-0.120574
-0.0997788
-0.0848868
-0.0643991
-0.035715
-0.00633211
0.0191375
0.0488964
0.0900216
0.118419
0.128243
0.148991
0.203488
0.26728
0.306508
0.324373
0.354342
0.415117
0.504281
0.621705
0.771324
0.970139
1.2177
1.52539
1.89904
2.34184
2.83315
3.30637
3.58698
3.42402
2.5716
0.997415
0.145954
-0.515036
-1.14651
-1.78536
-1.98173
-1.64584
-1.04799
-0.273729
0.0915395
1.09727
0.952512
0.868646
-2.44934
-5.03895
-5.40494
-4.71449
-3.58264
0.593743
7.50494
14.6915
19.3397
20.541
17.671
14.9838
14.5963
15.2766
16.1889
17.0903
17.9188
18.7319
19.5501
20.4571
21.5807
22.8077
24.2438
25.544
-0.00875753
-0.0484058
-0.0730716
-0.087522
-0.0976017
-0.116231
-0.138317
-0.150269
-0.149871
-0.143359
-0.138133
-0.121856
-0.101902
-0.0871568
-0.0671385
-0.0382477
-0.00797257
0.0179935
0.0473602
0.0862909
0.114992
0.128725
0.153929
0.208893
0.27152
0.310641
0.332095
0.369154
0.435683
0.530678
0.654871
0.813287
1.02368
1.28698
1.61576
2.01733
2.49584
3.0298
3.5486
3.86757
3.7211
2.85747
1.22596
0.304965
-0.37955
-1.04981
-1.74103
-1.95182
-1.65687
-1.12336
-0.411795
-0.0139549
0.942681
0.793077
0.719769
-2.74588
-5.33479
-5.81404
-5.01076
-3.80056
0.347793
7.32299
14.4655
19.0798
20.4073
17.4595
14.8438
14.7533
15.6576
16.6846
17.6337
18.4772
19.2905
20.1037
21.0072
22.1183
23.348
24.8061
26.1556
-0.00883559
-0.049185
-0.074422
-0.0884399
-0.0996558
-0.119828
-0.141801
-0.152195
-0.151248
-0.145934
-0.141048
-0.123254
-0.104311
-0.0896855
-0.0698579
-0.0406571
-0.00990912
0.0163299
0.0454542
0.0829518
0.112231
0.129536
0.158899
0.214589
0.275912
0.315002
0.340671
0.384577
0.456712
0.557759
0.689152
0.856911
1.07952
1.35931
1.71044
2.14159
2.65793
3.23714
3.8043
4.1644
4.03663
3.16499
1.488
0.485552
-0.228724
-0.940109
-1.69151
-1.92566
-1.67683
-1.21322
-0.566522
-0.136474
0.76422
0.622025
0.593635
-3.00047
-5.54453
-6.12366
-5.27773
-3.96277
0.0819409
6.99566
14.0078
18.6622
20.0272
17.0576
14.6046
14.8639
16.0162
17.168
18.1672
19.0266
19.8402
20.6467
21.5465
22.6405
23.8706
25.3565
26.7239
-0.00883167
-0.050052
-0.07549
-0.0892068
-0.101765
-0.12343
-0.144995
-0.153971
-0.152603
-0.14849
-0.143627
-0.12471
-0.106716
-0.0921607
-0.0722678
-0.0428042
-0.0117817
0.0145196
0.0434086
0.0799868
0.110149
0.130581
0.163685
0.220163
0.280233
0.319425
0.349636
0.400165
0.47782
0.585077
0.72384
0.901403
1.13678
1.43375
1.80813
2.27008
2.82587
3.45218
4.06963
4.47225
4.36355
3.48577
1.76976
0.680085
-0.0677156
-0.823041
-1.63889
-1.90479
-1.707
-1.31254
-0.720838
-0.269253
0.569486
0.435079
0.459788
-3.22681
-5.69275
-6.34998
-5.50713
-4.08506
-0.184742
6.56237
13.3615
18.126
19.4515
16.5085
14.3071
14.9534
16.3662
17.645
18.694
19.5696
20.3828
21.1806
22.075
23.1467
24.3725
25.8694
27.3136
-0.00880332
-0.0510546
-0.0764643
-0.0900263
-0.104097
-0.127113
-0.148058
-0.155831
-0.154222
-0.151235
-0.14603
-0.126485
-0.109389
-0.094857
-0.0746134
-0.0450043
-0.0140887
0.0122288
0.0412327
0.0774831
0.108621
0.131912
0.168617
0.225975
0.284679
0.324252
0.359469
0.416454
0.499577
0.613198
0.759677
0.947552
1.19638
1.51143
1.91029
2.40471
3.002
3.67813
4.34868
4.79605
4.70788
3.82596
2.07777
0.898471
0.115762
-0.69482
-1.57996
-1.8838
-1.74757
-1.42299
-0.87959
-0.406247
0.356357
0.228338
0.328501
-3.40906
-5.77961
-6.47927
-5.67937
-4.1719
-0.457235
5.99632
12.4885
17.3371
18.6092
15.7665
13.9411
15.0047
16.6969
18.1109
19.2112
20.1041
20.9169
21.7045
22.592
23.6377
24.8574
26.3706
27.8412
-0.0087146
-0.0520005
-0.0771985
-0.0907838
-0.106533
-0.130686
-0.150843
-0.157606
-0.155875
-0.153831
-0.147998
-0.128276
-0.112055
-0.0974579
-0.0765864
-0.0470952
-0.0164279
0.00988858
0.0392065
0.0754536
0.107649
0.133444
0.173403
0.231618
0.289055
0.329311
0.369685
0.432974
0.521674
0.641769
0.796111
0.994693
1.25751
1.59142
2.01566
2.54376
3.18425
3.91205
4.63684
5.13024
5.06283
4.17501
2.4062
1.13261
0.313178
-0.566128
-1.52305
-1.86372
-1.79615
-1.5396
-1.03361
-0.542462
0.12845
0.0153334
0.20853
-3.54985
-5.82844
-6.53184
-5.80494
-4.21946
-0.706894
5.34525
11.4219
16.2804
17.5492
14.9205
13.5631
15.0444
17.021
18.5702
19.7218
20.633
21.4443
22.2197
23.0966
24.1129
25.3208
26.854
28.3573
-0.00866969
-0.0529876
-0.0778899
-0.0917168
-0.109191
-0.134228
-0.153519
-0.159518
-0.157832
-0.156545
-0.14982
-0.130381
-0.115033
-0.100233
-0.078393
-0.0493704
-0.0192641
0.00719585
0.0373146
0.073956
0.107131
0.135297
0.178369
0.237452
0.293619
0.33494
0.380735
0.450196
0.544619
0.671396
0.833961
1.04374
1.32114
1.67479
2.12565
2.68915
3.37483
4.15618
4.9374
5.47902
5.43388
4.5377
2.75784
1.39094
0.53425
-0.436042
-1.46421
-1.8441
-1.85278
-1.66394
-1.18763
-0.682498
-0.11486
-0.19025
0.133217
-3.62546
-5.8336
-6.50883
-5.88052
-4.23416
-0.944159
4.59229
10.1264
14.9363
16.285
14.0075
13.1615
15.0616
17.3341
19.0222
20.225
21.155
21.9642
22.725
23.5886
24.572
25.7649
27.3081
28.9043
-0.00865406
-0.0538854
-0.0783861
-0.0926588
-0.111866
-0.137536
-0.155943
-0.161354
-0.159805
-0.159018
-0.151267
-0.132531
-0.117984
-0.102729
-0.0798141
-0.0516156
-0.0221589
0.00458077
0.0357633
0.0729161
0.10704
0.137394
0.183261
0.243017
0.298239
0.340991
0.392191
0.467623
0.567961
0.701619
0.872647
1.09409
1.38664
1.76072
2.23909
2.83906
3.57091
4.40693
5.24656
5.83766
5.81441
4.90574
3.12486
1.66539
0.768656
-0.309118
-1.40371
-1.82891
-1.91396
-1.78863
-1.34054
-0.827076
-0.364849
-0.368921
0.107728
-3.63378
-5.80997
-6.43659
-5.8985
-4.23329
-1.16697
3.77848
8.66087
13.3446
14.8591
13.0562
12.7661
15.0794
17.6455
19.4694
20.7231
21.6724
22.4788
23.2209
24.0665
25.0138
26.1865
27.7462
29.3955
-0.00877094
-0.0547474
-0.0788821
-0.0938069
-0.114651
-0.140714
-0.158377
-0.163386
-0.162039
-0.161457
-0.152809
-0.135091
-0.121159
-0.105114
-0.0812553
-0.0540981
-0.025492
0.00179067
0.034514
0.0723264
0.107237
0.139829
0.18844
0.248626
0.30314
0.347837
0.40461
0.485821
0.592229
0.732955
0.912861
1.14641
1.45472
1.85007
2.35694
2.99467
3.77422
4.66693
5.56684
6.20987
6.20978
5.28617
3.51409
1.96672
1.02029
-0.174196
-1.33435
-1.82042
-1.97825
-1.91127
-1.49516
-0.993097
-0.621451
-0.507818
0.151131
-3.5488
-5.74491
-6.31415
-5.8451
-4.2261
-1.41163
2.87797
7.01064
11.5029
13.2339
12.0051
12.3579
15.0955
17.9557
19.9136
21.2162
22.1838
22.9863
23.7063
24.5304
25.4375
26.5865
28.1683
29.8591
-0.00895991
-0.0554375
-0.0792481
-0.0949419
-0.11735
-0.143606
-0.160682
-0.165357
-0.164158
-0.163466
-0.154379
-0.13775
-0.124124
-0.106954
-0.0825298
-0.0565573
-0.0287592
-0.000653015
0.0337714
0.0720706
0.107635
0.142458
0.193566
0.253936
0.308142
0.355287
0.417573
0.504383
0.617082
0.764999
0.95408
1.20009
1.5247
1.94213
2.47833
3.15481
3.98336
4.93351
5.89305
6.58857
6.61407
5.67289
3.91321
2.28943
1.28318
-0.029921
-1.25788
-1.82074
-2.0453
-2.02324
-1.64121
-1.16982
-0.862696
-0.606088
0.25998
-3.36574
-5.64694
-6.15423
-5.72254
-4.20637
-1.69143
1.91885
5.24004
9.47086
11.425
10.8669
11.9578
15.1298
18.2686
20.3539
21.7051
22.6907
23.4872
24.1823
24.9795
25.8432
26.9618
28.556
30.3022
-0.00926933
-0.0561068
-0.0796796
-0.0962559
-0.120092
-0.146398
-0.163112
-0.167555
-0.166414
-0.16536
-0.156333
-0.140818
-0.127149
-0.108585
-0.0839053
-0.0592548
-0.0322407
-0.00283816
0.033524
0.0721353
0.108166
0.145382
0.198869
0.259335
0.313539
0.363697
0.43151
0.523869
0.643107
0.798472
0.997179
1.25601
1.59743
2.03782
2.60441
3.32099
4.19996
5.20817
6.22706
6.97536
7.03094
6.07111
4.32553