/*--------------------------------*- C++ -*----------------------------------*\
| =========                 |                                                 |
| \\      /  F ield         | OpenFOAM: The Open Source CFD Toolbox           |
|  \\    /   O peration     | Version:  4.1                                   |
|   \\  /    A nd           | Web:      www.OpenFOAM.org                      |
|    \\/     M anipulation  |                                                 |
\*---------------------------------------------------------------------------*/
FoamFile
{
    version     2.0;
    format      ascii;
    class       volVectorField;
    location    "10";
    object      U;
}
// * * * * * * * * * * * * * * * * * * * * * * * * * * * * * * * * * * * * * //

dimensions      [0 1 -1 0 0 0 0];

internalField   nonuniform List<vector> 
6785
(
(7.0365e-15 0.852188 15.7946)
(8.71474e-15 -4.89457 12.1215)
(-2.16617e-15 -4.19549 12.1321)
(4.03629e-15 -3.60115 11.9966)
(4.49316e-16 -3.00464 11.8778)
(-6.30104e-17 -2.55314 11.6992)
(6.11379e-15 -2.20875 11.4769)
(4.85189e-16 -1.96596 11.2116)
(-8.71771e-17 -1.79848 10.916)
(4.3294e-17 -1.7123 10.5882)
(-3.48043e-16 -1.83737 10.1561)
(-9.34945e-16 -2.28557 9.53765)
(1.22782e-15 -2.51287 8.9638)
(-2.62991e-16 -1.06538 8.91354)
(-7.37117e-16 1.76568 7.47069)
(1.83587e-14 -5.35014 22.493)
(1.68366e-14 -14.6049 21.3939)
(7.78645e-16 -13.2707 20.3411)
(5.8074e-15 -11.7696 19.5066)
(2.12089e-15 -11.156 18.5043)
(-1.80847e-17 -10.6593 17.5174)
(2.06657e-16 -10.09 16.5714)
(1.93181e-15 -9.52485 15.6236)
(-3.86517e-16 -8.96529 14.6638)
(8.0965e-15 -8.36715 13.6946)
(6.43397e-16 -7.75695 12.7178)
(-9.92079e-16 -7.30326 11.7194)
(-3.03623e-15 -7.01702 10.6244)
(1.08478e-15 -5.73084 9.16115)
(-9.25411e-16 -2.30498 4.5827)
(2.22874e-14 -7.71567 23.9803)
(1.80365e-14 -16.773 24.6726)
(1.48195e-15 -13.7363 23.9371)
(5.53998e-15 -12.3059 22.6247)
(1.93168e-15 -11.6444 21.2412)
(4.92249e-16 -10.8137 20.0011)
(3.76494e-15 -9.93986 18.7735)
(2.88795e-16 -9.09967 17.5244)
(3.34571e-16 -8.28289 16.2651)
(2.7463e-15 -7.4747 15.0259)
(1.51201e-15 -6.66701 13.8172)
(-1.56265e-16 -5.84092 12.4294)
(1.93722e-15 -4.81292 10.2741)
(1.06209e-15 -3.12506 6.68261)
(-4.17351e-16 -0.831402 1.68823)
(2.18318e-14 -8.50257 22.0461)
(2.06301e-14 -16.6209 24.3316)
(-1.69314e-16 -12.9296 23.7967)
(4.52109e-15 -12.1534 21.9981)
(8.83627e-16 -11.4197 20.5023)
(2.05503e-15 -10.4932 19.1717)
(2.28484e-15 -9.63341 17.8161)
(5.35536e-16 -8.82309 16.4584)
(2.10708e-15 -8.05309 15.1223)
(1.15816e-15 -7.32317 13.8157)
(-7.46138e-16 -6.55171 12.4383)
(-5.74368e-15 -5.48966 10.5812)
(-1.11622e-15 -3.78314 7.50531)
(-2.72984e-15 -1.4908 2.76126)
(-2.31509e-16 0.154033 -1.77456)
(1.92209e-14 -8.47585 19.7469)
(1.70185e-14 -16.36 24.3116)
(3.70429e-15 -13.0989 23.6596)
(4.18352e-15 -12.6278 21.5358)
(-4.72937e-16 -11.8563 20.024)
(1.19649e-15 -10.9571 18.6629)
(6.89489e-16 -10.1695 17.2578)
(-1.91349e-15 -9.40243 15.8701)
(-2.59594e-15 -8.6522 14.5225)
(7.92246e-17 -7.93007 13.2124)
(-1.01974e-14 -7.16526 11.8278)
(-6.9853e-15 -6.11508 9.99411)
(-3.70053e-15 -4.42215 7.15208)
(-1.01588e-14 -2.3029 3.28372)
(-1.85537e-14 -0.785767 0.314516)
(2.07863e-14 -8.02035 17.5486)
(1.46983e-14 -16.019 24.5266)
(5.44953e-15 -13.6446 24.0454)
(2.57573e-15 -12.9945 21.7641)
(-2.47666e-16 -12.1267 20.2145)
(2.88369e-15 -11.225 18.8457)
(-2.03861e-15 -10.4392 17.4328)
(-2.06004e-15 -9.64909 16.042)
(3.38651e-15 -8.86053 14.6919)
(8.3123e-17 -8.09336 13.3803)
(-2.8604e-15 -7.29732 12.0155)
(7.16715e-16 -6.28432 10.2799)
(-8.36687e-15 -4.73212 7.71824)
(-5.03231e-15 -2.75444 4.36897)
(-5.08364e-15 -0.947825 1.29349)
(1.60348e-14 -7.33188 15.2376)
(1.71369e-14 -15.4888 24.3503)
(8.01816e-15 -14.0273 24.4214)
(2.30847e-15 -13.1298 22.0669)
(8.16552e-16 -12.1468 20.4383)
(5.65461e-15 -11.2378 19.0529)
(2.73631e-15 -10.4381 17.6422)
(1.63486e-15 -9.62187 16.2561)
(3.46466e-15 -8.81216 14.9052)
(7.96863e-16 -8.02915 13.5905)
(-1.68687e-16 -7.22579 12.2356)
(9.55737e-15 -6.24204 10.548)
(1.89521e-15 -4.78911 8.10714)
(-4.04563e-15 -2.91491 4.94687)
(7.60926e-15 -1.01124 1.79644)
(1.00095e-14 -6.53919 12.989)
(1.75589e-14 -14.8383 23.7976)
(9.41115e-15 -14.2757 24.6688)
(-1.32804e-16 -13.2443 22.3229)
(1.10432e-15 -12.1738 20.5807)
(3.61092e-15 -11.2717 19.1641)
(-1.18105e-15 -10.4711 17.7568)
(2.75402e-15 -9.6493 16.3752)
(2.00489e-15 -8.84104 15.0237)
(4.36984e-15 -8.06129 13.7069)
(8.65011e-16 -7.26108 12.3581)
(3.42123e-15 -6.2934 10.7021)
(2.83093e-15 -4.89803 8.33623)
(-2.62147e-15 -3.09095 5.27408)
(8.25267e-15 -1.12567 2.04857)
(1.24522e-14 -5.73632 11.0244)
(1.73946e-14 -14.1497 23.0367)
(9.93163e-15 -14.4668 24.8463)
(4.30107e-15 -13.4182 22.6258)
(1.41181e-15 -12.2719 20.7571)
(-1.9073e-15 -11.3666 19.2961)
(3.56697e-15 -10.5651 17.8926)
(7.57523e-16 -9.74337 16.5143)
(-7.34863e-16 -8.93716 15.1606)
(-1.20116e-15 -8.15763 13.8407)
(7.66882e-16 -7.35757 12.4942)
(-1.58068e-15 -6.39934 10.8647)
(2.33961e-16 -5.04563 8.56923)
(-2.51071e-15 -3.28862 5.58828)
(-8.34293e-15 -1.254 2.27651)
(7.21513e-15 -4.98454 9.37475)
(1.70276e-14 -13.4491 22.1518)
(1.31195e-14 -14.5764 24.9383)
(3.82224e-15 -13.6008 22.9594)
(2.31897e-15 -12.3833 20.9736)
(3.05243e-15 -11.4569 19.4548)
(6.53009e-16 -10.6489 18.0521)
(8.0452e-16 -9.82697 16.677)
(1.75426e-15 -9.02054 15.3215)
(-1.24755e-15 -8.23828 13.9983)
(9.10799e-16 -7.43782 12.6519)
(-1.64926e-17 -6.48807 11.0409)
(-8.64013e-15 -5.16728 8.79946)
(9.18674e-16 -3.44938 5.87606)
(-7.34302e-15 -1.34889 2.48631)
(-1.82746e-15 -4.34769 8.06141)
(1.66643e-14 -12.7813 21.2426)
(5.76519e-15 -14.6103 24.9447)
(3.80151e-15 -13.7834 23.3037)
(1.37331e-15 -12.5197 21.2349)
(5.17157e-16 -11.5653 19.6475)
(7.68982e-16 -10.7492 18.2365)
(1.0325e-15 -9.92823 16.861)
(3.53487e-15 -9.12132 15.5019)
(-1.81488e-15 -8.33531 14.1734)
(5.4319e-15 -7.53319 12.8246)
(-3.49478e-15 -6.59132 11.2296)
(6.61574e-16 -5.30093 9.04002)
(-1.23112e-14 -3.6203 6.17058)
(-1.37585e-14 -1.45263 2.70581)
(3.196e-15 -3.73287 6.77803)
(1.54406e-14 -12.0673 20.1799)
(5.4753e-15 -14.5309 24.7726)
(3.76191e-15 -13.8951 23.5167)
(1.39342e-15 -12.586 21.3794)
(-1.89223e-15 -11.5908 19.7261)
(5.84647e-16 -10.769 18.3216)
(3.19153e-15 -9.95669 16.9624)
(-1.51357e-15 -9.15924 15.6159)
(-2.62526e-15 -8.38146 14.2979)
(-1.8832e-15 -7.5885 12.9576)
(-1.35602e-14 -6.65871 11.3776)
(-4.61715e-15 -5.38983 9.22038)
(-1.69112e-14 -3.73167 6.37749)
(-2.40277e-14 -1.50796 2.83966)
(4.07101e-15 -3.42504 6.25544)
(1.29921e-14 -11.577 19.4029)
(1.065e-14 -14.5902 24.6953)
(3.80109e-15 -14.2881 24.0022)
(2.81621e-15 -13.0425 21.9061)
(-2.7224e-15 -12.0123 20.1334)
(-1.024e-15 -11.1586 18.643)
(2.87401e-15 -10.3285 17.2357)
(-6.00907e-15 -9.50572 15.8502)
(-3.89123e-15 -8.69543 14.4968)
(3.46585e-16 -7.87355 13.1383)
(-7.31425e-15 -6.93175 11.5792)
(-5.98032e-15 -5.68046 9.50878)
(-1.10634e-14 -4.02894 6.73543)
(-1.51962e-14 -1.68767 3.10057)
(-1.31733e-15 -1.98873 2.85382)
(1.01256e-14 -9.99555 16.5956)
(1.15977e-14 -13.8872 23.3904)
(2.75897e-15 -13.8523 23.3291)
(2.39734e-15 -12.4841 21.1867)
(-2.45128e-15 -11.3983 19.4763)
(-1.02262e-15 -10.6472 18.2532)
(2.66148e-15 -9.9542 17.1021)
(-4.81695e-15 -9.27182 15.9347)
(-3.36603e-15 -8.59832 14.7667)
(-3.57796e-16 -7.9077 13.5543)
(-8.65504e-15 -7.09557 12.1424)
(-4.86919e-15 -5.9683 10.2021)
(-1.15812e-14 -4.48983 7.66439)
(-1.21052e-14 -2.21183 4.34715)
(-5.03757e-15 -4.48696 9.39916)
(9.78831e-15 -11.2512 19.2183)
(1.09393e-14 -15.374 25.3123)
(5.83135e-15 -16.7278 26.2008)
(2.51645e-15 -16.1594 24.3498)
(-1.95266e-16 -14.9974 21.8978)
(-1.8661e-15 -13.7304 19.6282)
(7.37828e-16 -12.5165 17.6862)
(-1.53118e-15 -11.3293 15.9022)
(-3.26688e-15 -10.1686 14.2499)
(-2.82194e-15 -9.02364 12.7272)
(-5.80405e-15 -7.80383 11.0938)
(-6.37853e-15 -6.3836 9.22242)
(-1.21093e-14 -4.41589 6.41603)
(-1.14277e-14 -0.955312 1.98945)
(-1.24911e-15 0.664715 -3.42571)
(-1.95845e-15 0.959103 -5.46847)
(-1.46347e-15 0.727851 -3.95238)
(-1.48047e-15 1.22171 -3.89278)
(-1.41421e-15 1.61404 -3.66974)
(-2.06501e-15 2.71949 -5.08172)
(-1.49711e-15 1.97297 -3.50317)
(-1.48645e-15 2.44292 -3.42868)
(-1.46633e-15 2.64125 -3.23767)
(-1.51725e-15 3.96082 -4.38175)
(-9.27272e-16 3.01807 -2.98131)
(-8.47596e-16 3.25275 -2.76504)
(-1.37851e-15 4.86533 -3.70084)
(-1.00133e-15 3.65916 -2.45239)
(-1.00141e-15 4.00987 -2.39922)
(-9.25561e-16 4.09157 -2.28612)
(-1.47401e-15 5.33994 -3.01374)
(-1.01616e-15 4.25333 -2.00752)
(-9.28254e-16 4.39938 -1.87576)
(-1.45254e-15 5.88436 -2.38594)
(-1.02488e-15 4.56498 -1.5742)
(-1.02621e-15 4.8424 -1.54053)
(-9.12999e-16 4.86032 -1.48973)
(-1.41014e-15 6.02731 -1.80993)
(-9.86696e-16 4.71133 -1.22817)
(-9.59756e-16 5.02258 -1.19566)
(-9.50908e-16 5.03549 -1.16759)
(-1.41928e-15 5.98928 -1.30151)
(-1.06079e-15 4.73626 -0.941978)
(-9.86682e-16 4.79613 -0.920563)
(-1.43151e-15 5.9253 -0.803685)
(-1.0561e-15 4.54034 -0.645501)
(-1.03089e-15 4.70224 -0.629065)
(-1.02261e-15 4.69611 -0.652116)
(-1.47035e-15 5.52064 -0.383344)
(-1.04593e-15 4.18991 -0.400882)
(-9.70088e-16 4.20879 -0.442237)
(-1.3715e-15 5.14425 -0.0194578)
(-9.5225e-16 3.7646 -0.171251)
(-9.50019e-16 3.8772 -0.167547)
(-8.41176e-16 3.86104 -0.219666)
(-1.16508e-15 4.54861 0.27043)
(-8.07037e-16 3.22296 0.0109105)
(-7.91551e-16 3.36906 0.0124361)
(-7.52412e-16 3.36051 -0.0435206)
(-1.00865e-15 3.9026 0.478666)
(-8.20669e-16 2.73178 0.203468)
(-7.68875e-16 2.72938 0.122844)
(-1.09296e-15 3.41747 0.741354)
(-6.81368e-16 2.36053 0.456552)
(-6.64669e-16 2.41849 0.45721)
(-6.31161e-16 2.37917 0.384037)
(-8.81282e-16 2.87869 1.04992)
(-6.18625e-16 1.90517 0.664129)
(-6.57683e-16 1.96739 0.657364)
(-4.04997e-16 1.93868 0.584658)
(-5.222e-16 2.17962 1.16543)
(-3.29e-16 1.35781 0.647665)
(-3.10799e-16 1.29535 0.572705)
(-3.32681e-16 1.58016 0.727764)
(-1.5019e-16 0.658534 0.0929191)
(-1.37091e-16 0.623643 0.0619603)
(-2.61276e-16 0.672042 0.0836326)
(2.58938e-15 1.32965 -1.25554)
(2.89199e-17 -0.506107 -0.311884)
(-8.25862e-16 0.0251294 -0.00242879)
(-2.41497e-15 -0.0202307 1.48013)
(-2.34077e-15 -1.41005 3.27028)
(-2.02784e-15 -1.35762 3.23415)
(-2.11684e-15 -1.3451 3.42166)
(-2.93057e-15 -2.69181 6.36181)
(-2.25842e-15 -3.26201 6.02589)
(-2.31343e-15 -3.48523 6.14957)
(-2.02558e-15 -3.65097 6.33835)
(-2.66757e-15 -6.24291 9.95498)
(-2.62686e-15 -5.73647 8.10129)
(-2.33717e-15 -6.00267 8.58251)
(-2.83617e-15 -9.379 12.6394)
(-2.11826e-15 -8.4055 9.76101)
(-2.5022e-15 -8.74884 10.47)
(-4.06083e-15 -9.61408 12.1533)
(-3.75895e-15 -9.48493 12.0811)
(-3.67412e-15 -9.66732 12.3634)
(-2.32645e-15 -11.6401 15.2331)
(-3.11409e-15 -10.3781 13.4201)
(-2.9856e-15 -10.7458 14.1203)
(-2.95304e-15 -10.7354 14.2745)
(-2.83873e-15 -10.8137 14.4006)
(-2.71961e-15 -10.9059 14.5499)
(-2.55706e-15 -10.9831 14.7252)
(-2.14044e-15 -11.0707 15.0432)
(-1.58489e-15 -11.2032 15.4333)
(-1.00459e-15 -12.0268 16.9045)
(-1.3555e-15 -11.5331 15.8579)
(-1.17807e-15 -11.6841 16.0904)
(-1.12567e-15 -11.6664 16.214)
(-9.60764e-16 -11.8336 16.5842)
(-9.01984e-16 -11.8068 16.6181)
(-8.31981e-16 -11.8853 16.7608)
(-7.56628e-16 -11.9392 16.8843)
(-6.44487e-16 -12.0038 17.0356)
(1.10829e-15 -12.4022 18.1664)
(5.69683e-16 -12.0494 17.3809)
(6.86728e-16 -12.1485 17.5549)
(7.57574e-16 -12.1853 17.6307)
(8.45102e-16 -12.2276 17.7535)
(9.06348e-16 -12.2718 17.9425)
(9.51446e-16 -12.3434 18.1554)
(1.04204e-15 -12.3415 18.212)
(1.14014e-15 -12.4072 18.3202)
(1.2845e-15 -12.4615 18.4131)
(1.76308e-15 -12.1486 18.6469)
(1.51259e-15 -12.1217 18.3418)
(1.64937e-15 -12.148 18.4325)
(1.66873e-15 -12.1818 18.4783)
(1.71007e-15 -12.2143 18.546)
(1.76538e-15 -12.2014 18.6338)
(1.98836e-15 -12.2518 18.8639)
(2.09833e-15 -12.2743 18.9271)
(2.13105e-15 -12.3146 18.9078)
(3.30523e-15 -11.2117 17.8512)
(2.26893e-15 -11.5105 18.1491)
(2.21015e-15 -11.4636 18.2545)
(2.06033e-15 -11.5011 18.3873)
(2.16133e-15 -11.4417 18.3024)
(2.20187e-15 -11.4361 18.2775)
(2.27644e-15 -11.4053 18.2361)
(2.3544e-15 -11.3882 18.2278)
(2.53963e-15 -11.4685 18.4097)
(3.85585e-15 -9.2179 15.6383)
(2.95932e-15 -10.1836 17.0552)
(2.96259e-15 -10.007 16.7905)
(3.02219e-15 -9.97524 16.7119)
(3.37901e-15 -9.93251 16.7519)
(3.5648e-15 -9.82459 16.5515)
(3.6138e-15 -9.71602 16.2478)
(3.6564e-15 -9.67254 15.9235)
(3.75607e-15 -9.56375 15.5063)
(2.99067e-15 -6.52583 11.4805)
(4.07295e-15 -8.00831 14.1303)
(3.97627e-15 -7.6381 13.4044)
(3.92886e-15 -7.5869 13.0036)
(3.87331e-15 -7.43962 12.4398)
(3.95378e-15 -7.35857 11.8286)
(4.66236e-15 -7.07658 11.0621)
(4.03453e-15 -7.0073 10.484)
(3.67516e-15 -6.8184 9.75918)
(3.20022e-15 -6.52993 8.9521)
(4.19424e-16 -3.03329 3.23804)
(1.97816e-15 -5.02299 6.9498)
(1.31555e-15 -4.43051 5.65457)
(1.03019e-15 -4.45314 5.22897)
(6.02626e-16 -4.2087 4.50823)
(5.21231e-17 -4.15974 3.69148)
(-1.22071e-15 -3.99298 2.34431)
(-2.56509e-15 -3.60015 1.00878)
(-2.27352e-15 -3.48487 0.874903)
(-1.45991e-15 -2.79103 -1.62811)
(-1.95742e-15 -2.837 0.530017)
(-1.8271e-15 -2.59233 -0.163897)
(-6.83639e-16 -1.54466 -2.18614)
(-1.73885e-15 -2.75852 -1.73324)
(-2.09974e-15 -1.76408 -1.51239)
(-1.88659e-15 -1.51211 -1.04535)
(-2.44862e-15 -1.50793 -1.46872)
(-1.59043e-15 -0.995813 -0.886323)
(-2.21998e-15 -1.01227 -1.40744)
(-1.08842e-15 -0.61085 -1.04399)
(-9.8935e-17 -0.399149 -0.724786)
(-3.86774e-16 -0.22005 -1.25397)
(-1.11994e-16 0.0901662 -0.987758)
(1.42322e-16 0.123462 -0.403194)
(3.46514e-16 0.580472 -0.906426)
(-6.97097e-16 0.381878 -0.468105)
(-3.21058e-15 0.736429 -0.620134)
(-8.05474e-16 1.00244 -0.722807)
(-2.37975e-15 0.641792 -0.337501)
(-1.30781e-16 1.38701 -0.591502)
(1.50873e-15 1.0369 -0.30912)
(-2.1224e-15 1.3521 -0.465348)
(-3.7321e-15 1.65378 -0.596992)
(-1.61851e-15 1.22902 -0.270757)
(-2.6351e-15 1.76572 -0.420152)
(-3.81908e-15 2.21484 -0.537854)
(-2.35933e-15 1.54984 -0.247084)
(-3.50703e-15 2.43624 -0.467978)
(-2.35991e-15 1.91834 -0.258485)
(-3.50396e-15 2.29907 -0.395255)
(-3.89417e-15 2.73945 -0.512019)
(-2.6059e-15 1.98013 -0.227692)
(-3.37798e-15 3.07787 -0.441706)
(-2.4089e-15 2.43821 -0.24439)
(-3.32035e-15 2.83137 -0.382006)
(-3.65974e-15 3.28566 -0.481946)
(-2.35555e-15 2.47812 -0.233859)
(-2.50929e-15 3.23734 -0.347458)
(-2.33646e-16 3.86008 -0.43833)
(-2.39645e-15 2.71345 -0.218477)
(-3.13144e-15 4.05762 -0.390971)
(-2.30446e-15 3.14552 -0.240709)
(-2.81104e-15 3.67865 -0.354816)
(-2.86986e-15 4.29575 -0.439014)
(-2.3709e-15 3.06983 -0.227843)
(-4.71362e-15 4.66543 -0.39534)
(-1.1999e-15 3.60417 -0.250278)
(-1.92454e-15 4.17456 -0.372315)
(-2.55582e-15 4.78009 -0.440854)
(-1.75549e-15 3.55529 -0.250654)
(-2.22349e-15 4.58149 -0.34462)
(-2.58933e-15 5.37559 -0.41025)
(-1.7823e-15 3.73969 -0.237139)
(-4.36684e-15 5.59539 -0.388018)
(-9.3625e-16 4.26704 -0.262984)
(-1.83337e-15 4.97516 -0.376877)
(-3.98515e-15 5.78844 -0.44067)
(-2.51456e-15 4.08658 -0.256352)
(-2.61744e-15 6.22065 -0.41852)
(-2.09455e-15 4.71741 -0.279389)
(-2.2619e-15 5.48832 -0.413928)
(-2.46589e-15 6.26337 -0.479535)
(-1.80037e-15 4.62552 -0.286584)
(-2.03804e-15 5.93272 -0.391889)
(-2.14445e-15 6.93167 -0.466531)
(-1.58958e-15 4.79887 -0.276253)
(-1.61354e-15 7.19355 -0.459958)
(-1.23846e-15 5.44917 -0.312715)
(-1.69035e-15 6.34655 -0.457373)
(-1.54872e-15 7.39127 -0.541165)
(-1.09148e-15 5.20659 -0.323949)
(-1.73727e-15 7.91857 -0.534541)
(-1.27088e-15 5.97641 -0.361455)
(-1.63755e-15 6.96512 -0.540051)
(-1.31879e-15 7.95965 -0.646405)
(-9.078e-16 5.88218 -0.3986)
(-1.33581e-15 7.51501 -0.54967)
(-1.49046e-15 8.80511 -0.690882)
(-9.93753e-16 6.09974 -0.421149)
(-1.21017e-15 9.21095 -0.719202)
(-9.93569e-16 6.86389 -0.485312)
(-1.31463e-15 8.428 -0.805141)
(-9.76977e-16 -0.194512 0.691779)
(-9.77654e-16 -0.173355 0.723286)
(-9.77807e-16 -0.203793 0.70631)
(-9.78015e-16 -0.216909 0.675887)
(-9.78201e-16 -0.238212 0.664991)
(-9.78488e-16 -0.306876 0.674302)
(-9.78609e-16 -0.328027 0.680241)
(-9.78589e-16 -0.278969 0.690799)
(-9.78534e-16 -0.293015 0.661302)
(-9.78328e-16 -0.24838 0.625895)
(-9.77576e-16 -0.191379 0.606274)
(-9.76261e-16 -0.325029 0.570152)
(-9.74981e-16 -0.264953 0.528701)
(-9.7494e-16 -0.285489 0.452251)
(-9.75571e-16 -0.344977 0.385549)
(-9.76033e-16 -0.32419 0.253081)
(-9.76513e-16 -0.594161 0.0506967)
(-9.76563e-16 -0.330065 0.176025)
(-9.76522e-16 -0.367705 0.184034)
(-9.76567e-16 -0.227699 0.226401)
(-9.76818e-16 -0.192108 -0.18047)
(-9.77345e-16 0.400146 -0.0479554)
(-9.77565e-16 -0.188709 0.318721)
(-9.77378e-16 -0.43309 0.374083)
(-9.77888e-16 0.422118 -0.344402)
(-9.80861e-16 0.522367 0.295424)
(-9.8138e-16 0.180577 0.631358)
(-9.81073e-16 -0.0151813 0.712282)
(-9.81161e-16 -0.131856 0.68126)
(-9.81299e-16 -0.219927 0.721777)
(-9.81754e-16 -0.265702 0.752587)
(-9.81921e-16 -0.489104 0.809245)
(-9.81198e-16 -0.694488 0.89804)
(-9.79306e-16 -0.940147 0.942834)
(-9.7656e-16 -1.19116 1.02405)
(-9.72919e-16 -1.50287 1.03392)
(-9.69737e-16 -1.86348 1.07646)
(-9.67967e-16 -2.35619 1.14237)
(-9.67511e-16 -2.99353 1.23774)
(-9.66444e-16 -3.76329 1.34536)
(-9.6041e-16 -4.55958 1.43008)
(-9.42989e-16 -5.13197 1.44137)
(-9.07218e-16 -5.05036 1.3161)
(-8.48937e-16 -3.82779 0.97932)
(-7.80344e-16 -2.01887 0.516566)
(-7.63358e-16 -2.37888 0.657675)
(-7.61101e-16 -1.80181 0.141474)
(-7.64904e-16 -1.52874 0.0649947)
(-7.6924e-16 -1.11871 -0.0515951)
(-7.72971e-16 -0.458637 -0.284359)
(-7.75424e-16 1.36686 -1.18619)
(-7.90752e-16 2.04314 -1.28735)
(-7.96207e-16 2.47493 -1.22437)
(-7.74438e-16 2.55951 -0.327299)
(-5.76149e-16 -8.43274 -0.124601)
(-4.33962e-16 -10.6548 -0.347926)
(-2.37648e-16 1.67444 0.105815)
(-1.95538e-17 4.89679 1.13752)
(-8.30687e-17 5.73452 3.11208)
(-1.37587e-16 5.24511 2.95647)
(-1.88733e-16 4.58033 2.18932)
(-2.43229e-16 3.30186 1.16472)
(-3.28463e-16 0.652435 0.177093)
(-2.953e-16 -6.00148 -1.72569)
(-2.35481e-16 -8.05256 -2.47114)
(-1.85599e-16 -8.22326 -3.02554)
(-1.3768e-16 -7.64141 -3.49444)
(-9.80153e-17 -6.69956 -3.83108)
(-6.83916e-17 -5.63849 -4.06674)
(-4.5976e-17 -4.5497 -4.24926)
(-2.93324e-17 -3.42346 -4.38806)
(-1.88531e-17 -2.24784 -4.45905)
(-1.42673e-17 -1.03322 -4.47337)
(-1.28739e-17 -0.0111221 -4.40672)
(-1.27456e-17 1.41473 -4.30611)
(-2.41588e-17 2.97045 -3.93468)
(-3.44631e-17 4.52816 -3.31401)
(-1.27885e-16 6.01326 -2.53966)
(1.15559e-16 7.21472 -1.82547)
(-9.7677e-16 -0.18765 0.660445)
(-9.77701e-16 -0.261705 0.64597)
(-9.77827e-16 -0.277112 0.654288)
(-9.78056e-16 -0.277407 0.648555)
(-9.78315e-16 -0.276137 0.675076)
(-9.7859e-16 -0.350545 0.696392)
(-9.78674e-16 -0.373264 0.679286)
(-9.78624e-16 -0.346622 0.670156)
(-9.78515e-16 -0.351539 0.634011)
(-9.78066e-16 -0.333797 0.577099)
(-9.7695e-16 -0.37757 0.561823)
(-9.75917e-16 -0.405279 0.552303)
(-9.74917e-16 -0.355602 0.508117)
(-9.75046e-16 -0.381506 0.452367)
(-9.75641e-16 -0.437025 0.379322)
(-9.76105e-16 -0.404306 0.321684)
(-9.76522e-16 -0.538061 0.153881)
(-9.76557e-16 -0.286994 0.256321)
(-9.76522e-16 -0.312735 0.185226)
(-9.7657e-16 -0.215242 0.14814)
(-9.76799e-16 0.021199 -0.226497)
(-9.77367e-16 0.300707 -0.057899)
(-9.77516e-16 -0.128238 0.386934)
(-9.77388e-16 -0.411361 0.288846)
(-9.77712e-16 0.650102 -0.372937)
(-9.81091e-16 0.347348 0.307799)
(-9.81393e-16 0.110139 0.657725)
(-9.81079e-16 -0.00887419 0.739062)
(-9.81246e-16 -0.0994285 0.723909)
(-9.81485e-16 -0.196109 0.73601)
(-9.81861e-16 -0.306302 0.782644)
(-9.81826e-16 -0.50021 0.859556)
(-9.80924e-16 -0.711593 0.932857)
(-9.78953e-16 -0.936635 0.969325)
(-9.7613e-16 -1.18444 1.03366)
(-9.72564e-16 -1.49729 1.04203)
(-9.69544e-16 -1.87052 1.08275)
(-9.67929e-16 -2.37944 1.14727)
(-9.67529e-16 -3.03338 1.24069)
(-9.66329e-16 -3.81524 1.34539)
(-9.59935e-16 -4.61354 1.42724)
(-9.4193e-16 -5.17088 1.43488)
(-9.05378e-16 -5.05205 1.29552)
(-8.464e-16 -3.8311 0.932731)
(-7.79009e-16 -2.26216 0.445991)
(-7.63192e-16 -2.5313 0.550121)
(-7.61152e-16 -2.03113 0.0467608)
(-7.65031e-16 -1.76267 0.0953115)
(-7.69081e-16 -1.2908 0.298217)
(-7.74353e-16 -0.208842 -0.337565)
(-7.75233e-16 1.46895 -1.19972)
(-7.90837e-16 2.024 -1.26558)
(-7.99749e-16 2.32798 -1.27622)
(-7.77266e-16 2.63721 -0.300338)
(-5.77222e-16 -8.26825 -0.186022)
(-4.34576e-16 -10.6223 -0.458906)
(-2.36987e-16 -0.0596038 -0.364216)
(-7.61209e-18 4.29591 1.29284)
(-5.90406e-17 5.49054 3.2367)
(-1.0651e-16 5.40348 3.1969)
(-1.61745e-16 4.8774 2.43916)
(-2.21689e-16 3.6752 1.36429)
(-3.02783e-16 0.981659 0.247153)
(-2.98258e-16 -5.74491 -1.66344)
(-2.37738e-16 -7.9301 -2.41587)
(-1.88103e-16 -8.18697 -3.02803)
(-1.40682e-16 -7.66935 -3.48927)
(-1.00959e-16 -6.77845 -3.80771)
(-7.10872e-17 -5.7461 -4.02532)
(-4.86007e-17 -4.67023 -4.19317)
(-3.19023e-17 -3.55623 -4.32101)
(-2.11135e-17 -2.39294 -4.38313)
(-1.59723e-17 -1.18154 -4.36157)
(-1.4208e-17 -0.0381982 -4.27672)
(-1.61256e-17 1.34898 -4.14175)
(-2.91061e-17 2.83112 -3.76032)
(-3.93757e-17 4.32662 -3.17048)
(-1.33528e-16 5.77233 -2.43884)
(1.20089e-16 6.97261 -1.63207)
(-9.76193e-16 -0.192908 0.650941)
(-9.77206e-16 -0.23392 0.637992)
(-9.77454e-16 -0.253524 0.648931)
(-9.77821e-16 -0.265979 0.648946)
(-9.78232e-16 -0.272846 0.66495)
(-9.7859e-16 -0.332885 0.670501)
(-9.78711e-16 -0.356475 0.647139)
(-9.78631e-16 -0.331437 0.626299)
(-9.78394e-16 -0.329304 0.592319)
(-9.77618e-16 -0.303414 0.554227)
(-9.76226e-16 -0.315668 0.540307)
(-9.75385e-16 -0.392907 0.511066)
(-9.74823e-16 -0.324514 0.446877)
(-9.7518e-16 -0.336996 0.412027)
(-9.75731e-16 -0.381785 0.359443)
(-9.76175e-16 -0.354264 0.332221)
(-9.76525e-16 -0.544641 0.197358)
(-9.76546e-16 -0.325876 0.287454)
(-9.7652e-16 -0.330204 0.204718)
(-9.76583e-16 -0.184576 0.159781)
(-9.7679e-16 -0.00443255 -0.195284)
(-9.77393e-16 0.240628 -0.0127568)
(-9.77472e-16 -0.20564 0.403177)
(-9.77402e-16 -0.317374 0.276696)
(-9.77676e-16 0.608029 -0.214682)
(-9.81329e-16 0.287931 0.356144)
(-9.81427e-16 0.0772071 0.678202)
(-9.8114e-16 -0.0269523 0.741325)
(-9.81371e-16 -0.121645 0.727318)
(-9.81682e-16 -0.225609 0.741927)
(-9.81935e-16 -0.327004 0.804772)
(-9.81675e-16 -0.533824 0.886273)
(-9.80579e-16 -0.739941 0.950574)
(-9.78513e-16 -0.968624 0.98584)
(-9.75614e-16 -1.21619 1.0356)
(-9.72147e-16 -1.5243 1.04305)
(-9.69323e-16 -1.90218 1.08236)
(-9.67893e-16 -2.41466 1.1455)
(-9.67549e-16 -3.07022 1.2369)
(-9.6618e-16 -3.8477 1.33926)
(-9.59336e-16 -4.6316 1.42023)
(-9.40605e-16 -5.15986 1.42791)
(-9.03111e-16 -4.99007 1.27893)
(-8.43449e-16 -3.71119 0.886149)
(-7.77485e-16 -2.15072 0.393477)
(-7.62977e-16 -2.44027 0.508713)
(-7.61229e-16 -1.92364 0.0839306)
(-7.6513e-16 -1.68492 0.243151)
(-7.69477e-16 -1.25267 0.461279)
(-7.76252e-16 -0.00989486 -0.400976)
(-7.75508e-16 1.55094 -1.21161)
(-7.89942e-16 2.03664 -1.2564)
(-8.01386e-16 2.29723 -1.29601)
(-7.78867e-16 2.11488 -0.390044)
(-5.78139e-16 -8.24199 -0.179452)
(-4.35195e-16 -10.5456 -0.403707)
(-2.26623e-16 -0.751321 -0.463422)
(-2.5062e-18 4.05132 1.40589)
(-4.70499e-17 5.33182 3.24535)
(-8.70108e-17 5.44211 3.3062)
(-1.42442e-16 5.01485 2.56823)
(-2.09631e-16 3.84137 1.45038)
(-2.88138e-16 1.06211 0.513934)
(-3.01462e-16 -5.4373 -1.56374)
(-2.40765e-16 -7.74037 -2.37297)
(-1.91211e-16 -8.04996 -3.0102)
(-1.44393e-16 -7.55507 -3.467)
(-1.04645e-16 -6.68379 -3.77838)
(-7.44729e-17 -5.66397 -3.9863)
(-5.18756e-17 -4.59639 -4.14172)
(-3.51253e-17 -3.49279 -4.25768)
(-2.40526e-17 -2.34303 -4.31196)
(-1.83703e-17 -1.14944 -4.27553)
(-1.64854e-17 -0.057007 -4.17658)
(-1.86853e-17 1.29564 -4.04364)
(-3.16727e-17 2.74995 -3.67254)
(-4.16073e-17 4.22039 -3.10085)
(-1.3649e-16 5.64595 -2.38737)
(1.23453e-16 6.83717 -1.54482)
(-9.75532e-16 -0.186694 0.657359)
(-9.76525e-16 -0.23248 0.639985)
(-9.769e-16 -0.248845 0.64834)
(-9.77422e-16 -0.266272 0.644431)
(-9.77976e-16 -0.286463 0.649785)
(-9.78428e-16 -0.333378 0.644575)
(-9.78603e-16 -0.347464 0.61795)
(-9.78499e-16 -0.318323 0.593432)
(-9.78111e-16 -0.31074 0.560473)
(-9.77026e-16 -0.289244 0.529954)
(-9.75548e-16 -0.305489 0.511172)
(-9.75011e-16 -0.350214 0.47456)
(-9.74845e-16 -0.302674 0.415922)
(-9.75308e-16 -0.326768 0.389334)
(-9.75811e-16 -0.360115 0.356958)
(-9.76234e-16 -0.381713 0.335867)
(-9.76529e-16 -0.542301 0.215813)
(-9.76536e-16 -0.333141 0.28639)
(-9.76517e-16 -0.318416 0.216085)
(-9.76604e-16 -0.163054 0.188427)
(-9.76795e-16 -0.0194807 -0.148956)
(-9.77429e-16 0.167267 0.0842169)
(-9.77448e-16 -0.229302 0.397344)
(-9.77419e-16 -0.250861 0.275532)
(-9.77961e-16 0.486382 -0.0315418)
(-9.81611e-16 0.212361 0.400643)
(-9.8151e-16 0.057808 0.696322)
(-9.81262e-16 -0.0323473 0.73197)
(-9.81528e-16 -0.125105 0.728638)
(-9.81839e-16 -0.229457 0.757449)
(-9.81938e-16 -0.348705 0.832404)
(-9.81469e-16 -0.547738 0.910759)
(-9.80202e-16 -0.747827 0.968021)
(-9.78044e-16 -0.973525 1.00145)
(-9.75089e-16 -1.21981 1.03862)
(-9.71737e-16 -1.52608 1.04566)
(-9.69116e-16 -1.90861 1.08385)
(-9.67866e-16 -2.42427 1.14583)
(-9.67569e-16 -3.08078 1.23525)
(-9.66012e-16 -3.85401 1.33512)
(-9.58693e-16 -4.62565 1.41456)
(-9.39201e-16 -5.1296 1.42051)
(-9.0073e-16 -4.91826 1.2604)
(-8.40378e-16 -3.60601 0.841263)
(-7.75875e-16 -2.0721 0.361357)
(-7.62737e-16 -2.38165 0.499425)
(-7.61327e-16 -1.87757 0.145111)
(-7.6532e-16 -1.69069 0.307336)
(-7.71009e-16 -1.32807 0.77374)
(-7.78317e-16 0.220434 -0.488048)
(-7.76038e-16 1.62978 -1.23502)
(-7.89432e-16 2.03143 -1.26127)
(-8.02918e-16 2.22346 -1.30016)
(-7.80384e-16 2.16326 -0.496093)
(-5.78888e-16 -8.21524 -0.147104)
(-4.35676e-16 -10.5454 -0.297989)
(-2.01311e-16 -0.73569 -0.648778)
(2.45203e-18 3.65151 1.46973)
(-3.40921e-17 5.14518 3.25763)
(-6.52999e-17 5.50764 3.43807)
(-1.20338e-16 5.21706 2.73523)
(-1.93429e-16 4.11662 1.59568)
(-2.81176e-16 1.4108 0.474101)
(-3.03947e-16 -5.13708 -1.4436)
(-2.44084e-16 -7.55411 -2.32603)
(-1.94457e-16 -7.9206 -2.98996)
(-1.4826e-16 -7.45128 -3.44511)
(-1.08542e-16 -6.60026 -3.7519)
(-7.80696e-17 -5.5938 -3.95301)
(-5.53253e-17 -4.53505 -4.09753)
(-3.85266e-17 -3.44319 -4.20223)
(-2.72519e-17 -2.31036 -4.24976)
(-2.11736e-17 -1.14059 -4.21142)
(-1.91532e-17 -0.0609687 -4.10754)
(-2.16532e-17 1.24334 -3.95051)
(-3.48118e-17 2.65277 -3.57546)
(-4.44639e-17 4.08691 -3.0209)
(-1.39956e-16 5.48516 -2.32822)
(1.26608e-16 6.65732 -1.54851)
(-9.74884e-16 -0.181635 0.673924)
(-9.75819e-16 -0.230013 0.64974)
(-9.76295e-16 -0.245373 0.652009)
(-9.76919e-16 -0.261746 0.640857)
(-9.77562e-16 -0.283485 0.635567)
(-9.78074e-16 -0.32498 0.621026)
(-9.78297e-16 -0.339265 0.589827)
(-9.78176e-16 -0.315282 0.561667)
(-9.77641e-16 -0.301914 0.53047)
(-9.76368e-16 -0.282772 0.504653)
(-9.7502e-16 -0.306344 0.486602)
(-9.748e-16 -0.343216 0.447814)
(-9.74934e-16 -0.301836 0.393238)
(-9.75426e-16 -0.323851 0.372679)
(-9.75889e-16 -0.351145 0.36043)
(-9.76297e-16 -0.386634 0.344034)
(-9.76543e-16 -0.527047 0.228082)
(-9.76531e-16 -0.333031 0.279387)
(-9.76521e-16 -0.29994 0.226073)
(-9.7663e-16 -0.128659 0.213875)
(-9.76821e-16 -0.00102143 -0.0952596)
(-9.77478e-16 0.102829 0.252389)
(-9.77442e-16 -0.221368 0.391177)
(-9.77462e-16 -0.169164 0.286656)
(-9.78767e-16 0.425003 0.10458)
(-9.81883e-16 0.16017 0.45323)
(-9.81633e-16 0.0371938 0.714856)
(-9.81428e-16 -0.035591 0.726749)
(-9.81691e-16 -0.13001 0.737969)
(-9.81936e-16 -0.23778 0.783367)
(-9.8186e-16 -0.368207 0.863331)
(-9.81204e-16 -0.558425 0.93486)
(-9.79792e-16 -0.755997 0.986067)
(-9.7755e-16 -0.979397 1.01631)
(-9.74566e-16 -1.22354 1.04289)
(-9.71346e-16 -1.52958 1.04974)
(-9.68929e-16 -1.91713 1.08695)
(-9.6785e-16 -2.43704 1.14781)
(-9.67584e-16 -3.09611 1.23504)
(-9.65823e-16 -3.86741 1.33195)
(-9.58013e-16 -4.62944 1.40863)
(-9.37745e-16 -5.11045 1.41038)
(-8.98272e-16 -4.8582 1.23737)
(-8.3722e-16 -3.52417 0.798809)
(-7.74242e-16 -2.05197 0.345201)
(-7.62461e-16 -2.35463 0.490667)
(-7.61416e-16 -1.88018 0.174891)
(-7.65069e-16 -1.754 0.508049)
(-7.81297e-16 -1.32012 0.93127)
(-7.80982e-16 0.473412 -0.596195)
(-7.76666e-16 1.70847 -1.27212)
(-7.88892e-16 2.02824 -1.27459)
(-8.04425e-16 2.16587 -1.33018)
(-7.81985e-16 1.99123 -0.563154)
(-5.79389e-16 -8.20602 -0.104219)
(-4.35955e-16 -10.5453 -0.186832)
(-1.78383e-16 -0.722803 -0.60414)
(6.0908e-18 3.24835 1.51254)
(-2.31945e-17 4.95343 3.23781)
(-4.44344e-17 5.54462 3.54163)
(-9.73991e-17 5.39082 2.91265)
(-1.74709e-16 4.36892 1.79344)
(-2.6775e-16 1.69154 0.539345)
(-3.06591e-16 -4.85949 -1.31729)
(-2.47513e-16 -7.37339 -2.26588)
(-1.9773e-16 -7.81011 -2.96615)
(-1.52144e-16 -7.3725 -3.4238)
(-1.1252e-16 -6.54499 -3.7273)
(-8.17647e-17 -5.55473 -3.92294)
(-5.88399e-17 -4.50571 -4.05743)
(-4.19853e-17 -3.42407 -4.15083)
(-3.05724e-17 -2.30607 -4.1908)
(-2.42238e-17 -1.15607 -4.15125)
(-2.21065e-17 -0.090427 -4.03887)
(-2.46956e-17 1.18543 -3.86358)
(-3.77964e-17 2.56168 -3.48878)
(-4.70995e-17 3.96548 -2.95041)
(-1.43204e-16 5.3386 -2.2755)
(1.27856e-16 6.48417 -1.41811)
(-9.74267e-16 -0.177474 0.697647)
(-9.75134e-16 -0.227702 0.666624)
(-9.75674e-16 -0.243601 0.661802)
(-9.76341e-16 -0.260689 0.643187)
(-9.77006e-16 -0.28249 0.628123)
(-9.77538e-16 -0.318589 0.605666)
(-9.77796e-16 -0.331214 0.569936)
(-9.77665e-16 -0.309194 0.538337)
(-9.77024e-16 -0.293741 0.510787)
(-9.75725e-16 -0.279418 0.491192)
(-9.74668e-16 -0.303421 0.474365)
(-9.74722e-16 -0.331207 0.432486)
(-9.75043e-16 -0.295752 0.380053)
(-9.75529e-16 -0.316779 0.363096)
(-9.75975e-16 -0.340639 0.365945)
(-9.76371e-16 -0.385217 0.350452)
(-9.76568e-16 -0.51159 0.23674)
(-9.76533e-16 -0.333533 0.2707)
(-9.76532e-16 -0.283829 0.242686)
(-9.76662e-16 -0.0958804 0.232139)
(-9.76893e-16 0.00500132 -0.0324845)
(-9.77538e-16 0.0354247 0.318735)
(-9.77459e-16 -0.202682 0.386767)
(-9.77612e-16 -0.0870525 0.314861)
(-9.79885e-16 0.30867 0.182266)
(-9.82109e-16 0.131987 0.539466)
(-9.81772e-16 0.0240864 0.725515)
(-9.81602e-16 -0.0438697 0.732516)
(-9.81822e-16 -0.14128 0.760048)
(-9.81954e-16 -0.25353 0.817576)
(-9.81703e-16 -0.387891 0.895754)
(-9.80884e-16 -0.570221 0.959235)
(-9.7935e-16 -0.765416 1.00491)
(-9.77036e-16 -0.986638 1.03062)
(-9.7405e-16 -1.22944 1.0485)
(-9.70977e-16 -1.53605 1.0553)
(-9.68764e-16 -1.92889 1.09146)
(-9.67845e-16 -2.45363 1.15098)
(-9.67593e-16 -3.1161 1.23565)
(-9.65611e-16 -3.88644 1.32898)
(-9.57299e-16 -4.63932 1.40182)
(-9.36243e-16 -5.09598 1.39746)
(-8.95742e-16 -4.80015 1.21071)
(-8.34017e-16 -3.44392 0.758191)