/*--------------------------------*- C++ -*----------------------------------*\
| =========                 |                                                 |
| \\      /  F ield         | OpenFOAM: The Open Source CFD Toolbox           |
|  \\    /   O peration     | Version:  4.1                                   |
|   \\  /    A nd           | Web:      www.OpenFOAM.org                      |
|    \\/     M anipulation  |                                                 |
\*---------------------------------------------------------------------------*/
FoamFile
{
    version     2.0;
    format      ascii;
    class       volScalarField;
    location    "9";
    object      p;
}
// * * * * * * * * * * * * * * * * * * * * * * * * * * * * * * * * * * * * * //

dimensions      [0 2 -2 0 0 0 0];

internalField   nonuniform List<scalar> 
6785
(
647.532
593.336
541.469
492.76
447.595
405.285
365.647
328.387
293.068
259.426
228.079
199.653
170.798
135.855
105.361
174.389
152.517
147.829
144.305
138.939
133.423
128.468
124.268
120.978
118.71
117.672
118.295
120.584
122.732
122.684
76.2702
70.628
76.5674
80.2882
83.0575
86.3765
89.9774
93.6257
97.2557
100.72
103.804
106.597
109.461
111.785
112.37
120.775
120.685
125.078
125.195
125.037
125.089
124.865
124.38
123.71
122.882
121.866
120.687
119.655
119.304
119.538
134.097
135.006
136.746
135.008
133.711
132.641
131.365
130.095
128.95
127.97
127.17
126.524
126.024
125.932
126.056
123.631
124.404
125.514
125.041
125.141
125.362
125.475
125.675
125.972
126.32
126.701
127.084
127.344
127.595
127.521
119.571
120.361
121.815
122.691
123.514
124.131
124.609
125.088
125.529
125.897
126.191
126.411
126.427
126.455
126.013
121.694
122.232
123.677
124.86
125.426
125.696
125.874
126.03
126.127
126.171
126.176
126.156
125.932
125.864
125.318
123.983
124.099
125.163
126.162
126.291
126.252
126.211
126.166
126.096
126.017
125.935
125.866
125.544
125.474
124.913
124.433
124.301
125.002
125.848
125.761
125.647
125.566
125.482
125.392
125.31
125.227
125.173
124.804
124.739
124.166
123.332
123.173
123.688
124.526
124.448
124.42
124.408
124.376
124.337
124.302
124.245
124.224
123.836
123.786
123.196
121.158
121.115
121.619
122.558
122.641
122.813
122.964
123.075
123.162
123.234
123.255
123.297
122.927
122.929
122.362
118.808
118.79
119.355
120.462
120.736
121.12
121.445
121.725
121.975
122.213
122.378
122.575
122.298
122.423
122.003
112.275
112.972
114.414
116.334
117.505
118.878
120.175
121.428
122.618
123.694
124.606
125.288
125.415
125.802
125.207
113.219
110.993
109.831
109.669
109.236
109.72
110.652
112.06
113.745
115.737
117.732
119.759
121.755
124.258
126.059
175.656
175.44
175.632
175.255
175.224
174.879
174.718
173.914
173.693
173.608
173.546
172.125
170.927
171.591
170.457
169.645
169.859
171.222
169.787
168.843
170.234
169.046
167.95
168.422
170.357
169.243
168.068
168.492
170.751
169.412
168.86
170.66
169.459
168.187
168.562
170.901
169.69
169.309
171.144
170.082
168.895
169.24
171.395
170.613
169.608
169.952
172.197
171.398
171.296
173.098
172.455
171.656
171.927
173.861
173.473
172.876
173.132
175.012
174.705
174.78
176.349
176.169
175.842
175.996
177.52
177.525
177.603
178.87
178.919
178.882
178.867
179.858
180.005
180.14
179.853
180.253
180.981
180.491
178.451
178.942
179.572
179.42
178.6
185.72
175.928
176.448
176.393
176.253
176.176
176.358
176.253
175.431
180.874
168.442
167.815
168.249
168.568
168.188
168.219
167.713
166.171
166.878
157.546
156.814
155.966
155.651
155.732
155.388
154.767
153.516
150.818
145.346
138.026
136.771
135.241
133.649
132.982
132.632
130.65
126.376
112.054
110.719
110.474
109.493
107.417
105.154
102.932
100.481
96.1532
78.239
78.7201
76.633
75.629
73.9889
71.2224
67.6714
62.9401
57.5547
37.3334
42.6072
39.4159
36.8199
33.5841
29.9263
25.8127
21.3627
16.9376
13.3511
-7.38643
2.24255
-1.04843
-3.0342
-5.57735
-9.47298
-14.085
-15.3925
-14.1534
-30.8813
-13.0925
-14.3239
-15.1542
-12.5155
-13.0358
-12.303
-11.8281
-10.6501
-9.8621
-10.6864
-9.47344
-9.04975
-10.3774
-10.0177
-10.0727
-9.27738
-9.20316
-11.1383
-10.9562
-11.3536
-10.8231
-11.1484
-13.3441
-12.6609
-13.4617
-16.2337
-16.2888
-17.1758
-17.0512
-17.9616
-20.8622
-20.75
-21.5961
-21.3641
-22.1116
-24.4559
-23.4459
-24.3621
-26.6445
-25.9563
-26.3281
-25.5807
-25.6879
-26.8513
-25.3791
-25.0662
-23.569
-22.8372
-22.4888
-19.8162
-19.2027
-18.3668
-15.9822
-14.8714
-12.6424
-11.0374
-8.63328
-5.92849
-4.68985
-2.42298
-0.786092
2.52234
5.11404
5.5931
8.66094
10.2159
10.31
11.3298
11.7899
15.2677
15.6152
14.4731
14.4356
13.8549
16.6041
15.3896
12.2606
14.3241
11.2392
6.75001
3.5791
0.136262
0.00701753
-0.0202894
-0.00627221
-0.00759836
-0.00740944
-0.00639087
-0.0048572
-0.00308727
-0.00120255
0.000433925
0.00133119
0.0022359
0.0041022
0.00598863
0.00783189
0.00965981
0.0117601
0.0140879
0.0167055
0.0188476
0.0202874
0.0211628
0.0235222
0.027853
0.0324063
0.0375526
0.0431297
0.0488151
0.0552657
0.063169
0.0687918
0.073233
0.0772416
0.0803296
0.0802862
0.076021
0.0648738
0.0432323
0.00724599
-0.0456569
-0.114102
-0.18798
-0.242404
-0.237052
-0.130249
0.0811881
0.304877
0.331344
-0.0897937
-1.09157
-2.59659
-4.42339
-6.36233
-8.12419
-9.23054
-8.89243
-6.22301
0.505899
3.79328
4.16109
3.43055
3.74009
3.30394
2.05418
2.60683
2.53193
1.79671
1.38637
1.22401
1.03805
0.0488013
-1.28213
-2.03644
-2.19096
-2.13778
-2.32485
-2.25201
-1.1759
0.841383
0.0261614
-0.040089
-0.0107839
-0.0123098
-0.0127529
-0.0116571
-0.00918521
-0.0053228
-0.000100955
0.00534261
0.00948407
0.0138457
0.0200579
0.0261053
0.0317411
0.0374285
0.0434562
0.0502251
0.0581705
0.0659309
0.0726319
0.0782581
0.0874138
0.102014
0.11753
0.133608
0.14997
0.166489
0.185379
0.208532
0.22641
0.243492
0.26282
0.275428
0.281478
0.277063
0.256685
0.215344
0.149247
0.0614976
-0.0344276
-0.101125
-0.0715065
0.146256
0.634339
1.38903
2.22907
2.77241
2.57059
1.38386
-0.634553
-3.04047
-5.27527
-6.81894
-7.26091
-6.0537
-2.84325
3.13841
5.12109
5.14129
4.11343
5.12583
5.22156
3.97843
4.43622
3.5997
2.19972
2.12779
2.94217
2.73909
-0.186738
-3.99053
-6.10679
-6.55778
-6.42769
-6.29257
-5.32262
-2.52302
2.09266
0.0332459
-0.0585576
-0.0210463
-0.0206309
-0.0204106
-0.0188805
-0.0162699
-0.0113457
-0.00384496
0.00510022
0.0142316
0.0254811
0.0392423
0.0532585
0.0666278
0.079969
0.0921947
0.103886
0.116264
0.129238
0.143313
0.159475
0.182906
0.216202
0.255357
0.298216
0.34286
0.387735
0.434524
0.486225
0.53859
0.596854
0.6674
0.74226
0.822339
0.908133
0.994237
1.08377
1.17829
1.29485
1.45724
1.72235
2.1699
2.89222
3.94708
5.27064
6.59743
7.4733
7.44065
6.34409
4.46456
2.39704
0.766381
-0.00610917
0.151837
1.35721
3.4401
6.69372
7.25211
6.28627
4.16264
5.09764
5.77597
5.26332
5.84414
4.66449
2.87993
3.26798
5.16151
4.76002
-0.323775
-6.62026
-10.1203
-10.9301
-10.7424
-10.0907
-8.05517
-3.68538
3.02536
0.0363428
-0.0681592
-0.0284424
-0.0256254
-0.0250591
-0.0230394
-0.0202238
-0.0144892
-0.00585521
0.00452529
0.0162841
0.0315776
0.0507591
0.0728043
0.0956154
0.119785
0.143001
0.164271
0.184038
0.202415
0.220847
0.242287
0.273228
0.31774
0.374812
0.44326
0.521566
0.607453
0.700544
0.801914
0.912463
1.03864
1.18818
1.35909
1.55597
1.78747
2.05358
2.36148
2.72717
3.17574
3.73933
4.47279
5.45164
6.73575
8.32248
10.0694
11.6408
12.5841
12.5295
11.4732
9.81547
8.19723
7.12767
6.77984
6.88474
7.33255
7.86371
9.26629
9.42951
7.84457
4.71342
5.59905
6.62462
6.4927
7.24808
6.20975
4.14201
5.04998
7.86682
7.04914
-0.358192
-9.16841
-14.0228
-15.222
-15.0154
-13.8829
-10.8412
-4.9601
3.45236
0.0338603
-0.0719871
-0.0347508
-0.0288593
-0.0277878
-0.0248095
-0.0209656
-0.013529
-0.00300448
0.00902238
0.0221412
0.0386635
0.0606774
0.0877529
0.117534
0.150839
0.186028
0.220675
0.254188
0.286126
0.316807
0.349357
0.390408
0.444774
0.514113
0.599511
0.701423
0.819167
0.951986
1.10055
1.2692
1.4657
1.69824
1.96949
2.28772
2.66844
3.12099
3.65171
4.2859
5.05712
6.0005
7.154
8.56872
10.2673
12.19
14.1409
15.7605
16.641
16.5285
15.5328
14.0933
12.7855
11.9624
11.6205
11.3297
10.9425
10.2773
10.8419
11.2015
9.31511
5.55943
6.54431
7.65055
7.65278
8.60604
8.04973
6.10584
7.7116
11.1809
9.66683
-0.279094
-11.629
-17.8038
-19.4166
-19.2453
-17.6786
-13.7119
-6.40865
3.50839
0.0271249
-0.0702129
-0.0396139
-0.0304135
-0.0285958
-0.0240381
-0.0183524
-0.00850924
0.00460094
0.0190119
0.0336086
0.0510782
0.0751795
0.105076
0.138802
0.17746
0.220711
0.265889
0.312236
0.359529
0.407078
0.457154
0.51549
0.586698
0.673543
0.778617
0.903515
1.04895
1.21467
1.40354
1.6225
1.88054
2.18686
2.54805
2.97457
3.48571
4.09961
4.82323
5.67893
6.70598
7.93856
9.4017
11.1097
13.0503
15.1271
17.1251
18.7093
19.5321
19.444
18.6142
17.448
16.394
15.6854
15.2592
14.6576
13.7109
12.2215
12.1459
12.6115
10.5105
6.48869
7.66726
8.66479
8.68592
9.95316
10.07
8.76807
11.2392
15.0546
12.5459
-0.128107
-14.0055
-21.4378
-23.4796
-23.4057
-21.4616
-16.678
-8.06776
3.1212
0.0169952
-0.0634534
-0.0429484
-0.0304564
-0.0274678
-0.0206544
-0.0123761
0.000449408
0.0165271
0.0338341
0.0509995
0.0708119
0.0973471
0.129738
0.166505
0.208947
0.257634
0.31052
0.367235
0.428196
0.492741
0.56246
0.641866
0.735172
0.845605
0.976453
1.12964
1.30605
1.50626
1.73598
2.00361
2.31899
2.69301
3.13564
3.6596
4.2858
5.03811
5.92727
6.96676
8.19179
9.63385
11.3098
13.207
15.2809
17.4156
19.3982
20.9415
21.7646
21.7891
21.209
20.3704
19.6059
19.0779
18.7244
18.0755
16.8344
14.662
13.677
13.7916
11.324
7.39065
8.84782
9.62819
9.60788
11.3059
12.2536
12.1304
15.5703
19.463
15.6662
0.074831
-16.2893
-24.8951
-27.3803
-27.4702
-25.2086
-19.7442
-9.98399
2.38072
0.00446216
-0.0524377
-0.0446984
-0.0291438
-0.0244685
-0.0147314
-0.00324371
0.0130523
0.0324708
0.0530797
0.073755
0.0970624
0.126478
0.161559
0.201238
0.24674
0.299212
0.357628
0.422444
0.494808
0.574804
0.66422
0.766512
0.885262
1.02396
1.18607
1.37348
1.58693
1.82843
2.10576
2.42779
2.80476
3.24894
3.77304
4.39245
5.12931
6.01056
7.05213
8.26084
9.6597
11.273
13.1095
15.1449
17.3106
19.4816
21.4554
22.9912
23.8752
24.0702
23.7793
23.2937
22.8698
22.6264
22.5079
21.9967
20.5648
17.6662
15.5214
14.7978
11.8094
8.2721
10.0219
10.5036
10.4955
12.6878
14.6285
16.1385
20.5628
24.3083
18.9747
0.280719
-18.4849
-28.1537
-31.0844
-31.4027
-28.8946
-22.9114
-12.18
1.21624
-0.00921551
-0.0377296
-0.0443804
-0.026232
-0.0194772
-0.00619223
0.00909027
0.0293296
0.0526546
0.0771985
0.102084
0.129634
0.162651
0.201156
0.244397
0.293296
0.349214
0.412075
0.483433
0.565143
0.658084
0.765236
0.889755
1.03473
1.20376
1.40027
1.62607
1.88238
2.17292
2.50671
2.89292
3.34168
3.86563
4.47963
5.2014
6.05435
7.06723
8.2612
9.64157
11.2174
13.0012
14.9912
17.1569
19.419
21.6489
23.6583
25.241
26.2407
26.6473
26.6658
26.5378
26.4682
26.5401
26.6922
26.3365
24.6768
20.9298
17.5553
15.6761
12.1091
9.1485
11.168
11.3387
11.4719
14.1309
17.2533
20.6719
26.0318
29.4572
22.3918
0.435079
-20.5969
-31.1921
-34.5532
-35.158
-32.4995
-26.1735
-14.6319
-0.416101
-0.0227655
-0.0200083
-0.041438
-0.0213398
-0.0124198
0.00481887
0.024333
0.0488724
0.0765756
0.105626
0.135197
0.167397
0.204638
0.247266
0.294846
0.348165
0.40844
0.476256
0.554292
0.644913
0.749466
0.872243
1.01685
1.18647
1.38489
1.61565
1.88098
2.18341
2.52811
2.92539
3.38519
3.91719
4.53364
5.25066
6.08774
7.06918
8.2246
9.57939
11.1417
12.9102
14.8836
17.0483
19.3657
21.7548
24.0863
26.1879
27.8784
29.0412
29.69
30.0234
30.2336
30.48
30.8143
31.1615
30.8715
28.8965
24.1956
19.6576
16.5471
12.2511
9.96165
12.2361
12.1168
12.5795
15.6958
20.1881
25.5674
31.8049
34.7945
25.8203
0.48888
-22.625
-33.9867
-37.7431
-38.6802
-35.9854
-29.511
-17.3379
-2.42673
-0.0349077
1.36513e-05
-0.0353094
-0.0138833
-0.00295241
0.0183526
0.0422947
0.0714402
0.10395
0.138041
0.17272
0.209878
0.251801
0.299068
0.351539
0.410207
0.476147
0.550372
0.636495
0.737146
0.85406
0.992087
1.15537
1.34751
1.5728
1.83551
2.13897
2.48719
2.88696
3.3504
3.88888
4.51212
5.23174
6.06417
7.03021
8.15438
9.46611
10.9932
12.7486
14.7267
16.9126
19.2806
21.7817
24.3339
26.8095
29.0497
30.8939
32.2484
33.147
33.772
34.2713
34.7612
35.2679
35.7052
35.3847
33.0431
27.3625
21.7852
17.4786
12.3019
10.7523
13.2076
12.8433
13.804
17.4705
23.4336
30.6427
37.7129
40.2181
29.1672
0.409546
-24.5565
-36.5094
-40.6072
-41.9034
-39.2809
-32.8777
-20.2445
-4.802
-0.0445701
0.0215344
-0.0256304
-0.00331493
0.00934267
0.0344638
0.0626994
0.0965403
0.134164
0.173768
0.213998
0.256464
0.303526
0.355958
0.413886
0.478644
0.551514
0.633863
0.729903
0.842335
0.973645
1.12846
1.31091
1.52474
1.77512
2.06776
2.40723
2.79879
3.25136
3.77923
4.396
5.11254
5.94018
6.89521
7.99926
9.27655
10.7555
12.4645
14.4199
16.6169
19.0303
21.6217
24.3296
27.0684
29.7128
32.1128
34.124
35.6677
36.7929
37.6552
38.3765
39.0359
39.641
40.1002
39.7094
37.0324
30.4459
23.9485
18.5231
12.3733
11.5208
14.0443
13.5297
15.1196
19.5391
26.8993
35.699
43.5571
45.5908
32.3462
0.186406
-26.3651
-38.7319
-43.1001
-44.7571
-42.3001
-36.2177
-23.2489
-7.45793
-0.0510313
0.0437126
-0.0122912
0.0107749
0.0248985
0.0533343
0.0854871
0.123784
0.166566
0.211955
0.258149
0.306367
0.359108
0.417367
0.481529
0.55327
0.634326
0.726482
0.83417
0.960053
1.10787
1.28171
1.4851
1.7217
1.99763
2.32003
2.69456
3.12751
3.63001
4.21847
4.90936
5.71598
6.64999
7.72792
8.97186
10.4057
12.0558
13.9497
16.1048
18.5176
21.1584
23.976
26.8951
29.822
32.6338
35.1859
37.3455
39.0481
40.3555
41.3907
42.2753
43.0575
43.7284
44.1975
43.7575
40.8499
33.5136
26.1968
19.7751
12.4591
12.2134
14.7669
14.2063
16.4287
21.8282
30.4058
40.5274
49.1286
50.745
35.2792
-0.168492
-28.0174
-40.6317
-45.186
-47.1777
-44.9698
-39.4467
-26.2858
-10.2744
-0.0540111
0.0657096
0.00446424
0.0284763
0.0439738
0.0751629
0.110754
0.153089
0.20081
0.251975
0.304376
0.358811
0.417859
0.482731
0.55409
0.63401
0.724656
0.828197
0.948986
1.0898
1.25564
1.45033
1.6768
1.93867
2.24256
2.59644
3.00711
3.48169
4.03296
4.67889
5.43904
6.32993
7.36448
8.55986
9.93873
11.5248
13.3421
15.4158
17.7624
20.3772
23.229
26.2574
29.3731
32.4705
35.4273
38.1051
40.3789
42.1997
43.6448
44.809
45.8289
46.7237
47.464
47.9665
47.5287
44.5224
36.6439
28.5733
21.348
12.5958
12.8467
15.4126
14.8756
17.6375
24.1144
33.7321
44.9302
54.2463
55.5279
37.9092
-0.621058
-29.4797
-42.1983
-46.8489
-49.1234
-47.2389
-42.4736
-29.2726
-13.1913
-0.0536708
0.0867814
0.0240526
0.0494997
0.0665309
0.100031
0.138609
0.184612
0.236922
0.293664
0.352306
0.413351
0.479378
0.551717
0.631309
0.720722
0.822419
0.938704
1.07371
1.23073
1.41554
1.63233
1.88409
2.17426
2.50922
2.8975
3.34696
3.86566
4.46713
5.16994
5.99633
6.96606
8.09439
9.39925
10.904
12.6324
14.6066
16.8482
19.3719
22.1691
25.2055
28.4167
31.7026
34.9435
38.0162
40.79
43.1482
45.0575
46.6155
47.9023
49.0624
50.0864
50.9145
51.4705
51.0818
48.0888
39.9144
31.1326
23.2434
12.8772
13.45
16.038
15.616
18.6876
26.091
36.6645
48.7472
58.7646
59.8298
40.2176
-1.12088
-30.7254
-43.4361
-48.101
-50.5887
-49.0939
-45.2051
-32.1277
-16.1163
-0.0505669
0.106336
0.0456517
0.0732192
0.0922019
0.12783
0.169095
0.218563
0.275224
0.33732
0.402139
0.470086
0.543736
0.624407
0.713238
0.813308
0.927276
1.05731
1.20724
1.38129
1.58579
1.82594
2.10514
2.42634
2.79542
3.22128
3.71292
4.27956
4.93473
5.69668
6.58918
7.63469
8.8514
10.2584
11.8796
13.7387
15.8565
18.251
20.9337
23.8924
27.0865
30.4487
33.8747
37.2338
40.3987
43.249
45.6799
47.6728
49.3466
50.7773
52.1025
53.2799
54.2086
54.8134
54.491
51.5734
43.3926
33.9296
25.2797
13.2912
14.0805
16.7734
16.5959
19.7049
27.5997
39.0287
51.8848
62.5872
63.5946
42.235
-1.61078
-31.7416
-44.3682
-48.9846
-51.6117
-50.5875
-47.5605
-34.7668
-18.9603
-0.0455487
0.123999
0.0683653
0.0987992
0.120339
0.158226
0.202148
0.255094
0.316154
0.383527
0.454518
0.529617
0.61144
0.701224
0.800172
0.911742
1.03871
1.18296
1.34811
1.53954
1.76457
2.02949
2.33795
2.69251
3.09837
3.56468
4.10189
4.72049
5.43379
6.25917
7.22038
8.34172
9.64394
11.1477
12.8779
14.8577
17.1062
19.6395
22.464
25.5649
28.8946
32.3809
35.9203
39.3788
42.6241
45.5463
48.0567
50.1533
51.9641
53.569
55.0861
56.4307
57.4561
58.0795
57.8037
54.974
47.0473
36.9041
27.299
13.8857
14.7499
17.4788
17.6733
20.7899
28.7626
40.7493
54.3126
65.6752
66.8218
44.0239
-2.03642
-32.531
-45.0385
-49.5605
-52.2563
-51.7689
-49.4578
-37.0844
-21.6214
-0.0395991
0.139653
0.0913224
0.125367
0.150155
0.190701
0.237568
0.294267
0.360039
0.432895
0.510223
0.592737
0.683147
0.782594
0.892266
1.01577
1.15593
1.31446
1.49503
1.70411
1.95033
2.24108
2.58026
2.9701
3.41501
3.92425
4.5099
5.18391
5.9596
6.85333
7.88763
9.08743
10.4752
12.0732
13.9073
16.0007
18.3701
21.03
23.9831
27.2106
30.66
34.2522
37.8856
41.4312
44.7555
47.7558
50.3633
52.5965
54.5654
56.3702
58.0944
59.6028
60.7018
61.3039
61.0291
58.2629
50.7409
39.9691
29.3936
14.8148
15.4776
18.0178
18.5847
21.7523
29.6247
41.8751
56.0658
68.0392
69.5532
45.6308
-2.35557
-33.1123
-45.5054
-49.8876
-52.5768
-52.6397
-50.8399
-39.006
-24.0495
-0.0336221
0.153412
0.113766
0.152154
0.180873
0.224668
0.275048
0.33604
0.407031
0.485812
0.569838
0.660089
0.75934
0.868653
0.989282
1.12487
1.2782
1.45108
1.64743
1.87433
2.1419
2.45892
2.82977
3.25633
3.74216
4.29645
4.93277
5.66468
6.5061
7.47255
8.58481
9.86704
11.3424
13.0345
14.9702
17.1726
19.6566
22.4342
25.506
28.8491
32.4074
36.0953
39.8109
43.4354
46.841
49.9293
52.6516
55.0477
57.1887
59.2063
61.1367
62.7919
63.9268
64.4725
64.1532
61.4044
54.3444
43.1512
31.7549
16.1169
16.2472
18.3022
19.0535
22.3563
30.1761
42.4823
57.2542
69.7718
71.7545
47.0113
-2.54751
-33.5195
-45.8243
-50.0261
-52.6506
-53.1646
-51.6919
-40.4898
-26.1679
-0.028235
0.165556
0.135182
0.178574
0.211875
0.259594
0.314223
0.380255
0.457105
0.542338
0.633509
0.731836
0.840031
0.959123
1.09066
1.23846
1.40516
1.59268
1.80514
2.04994
2.33862
2.68176
3.0846
3.54872
4.07684
4.6779
5.36643
6.1578
7.06703
8.10923
9.30368
10.6727
12.2388
14.0259
16.0622
18.3712
20.9658
23.8553
27.0385
30.4896
34.1493
37.9273
41.7196
45.417
48.9043
52.0874
54.9334
57.4989
59.8231
62.0502
64.1716
65.9516
67.0849
67.5473
67.1583
64.378
57.7961
46.4888
34.4375
17.8697
17.0035
18.2145
18.9199
22.5019
30.4109
42.7008
58.0461
71.0401
73.3553
48.1007
-2.62467
-33.7971
-46.0397
-50.0353
-52.5462
-53.3539
-52.0742
-41.5236
-27.9272
-0.023677
0.17645
0.155386
0.204298
0.242768
0.295079
0.354716
0.426572
0.509965
0.602158
0.700847
0.807485
0.924623
1.05335
1.19576
1.35599
1.53652
1.73916
1.96808
2.23093
2.54045
2.90915
3.34368
3.84554
4.41673
5.06568
5.80737
6.659
7.63676
8.75604
10.0354
11.4952
13.1554
15.039
17.1756
19.5892
22.2914
25.289
28.5783
32.1313
35.8868
39.7511
43.6176
47.3839
50.9498
54.2288
57.1985
59.9253
62.4349
64.856
67.1456
69.0284
70.1318
70.4911
70.0433
67.1886
61.0836
49.984
37.3967
20.1734
17.695
17.6854
18.2425
22.251
30.3712
42.7152
58.5675
72.0169
74.3677
48.8921
-2.63337
-34.0006
-46.1833
-49.9517
-52.3066
-53.2877
-52.0495
-42.1359
-29.3642
-0.0198511
0.186499
0.17449
0.229263
0.273339
0.33083
0.396121
0.474456
0.564961
0.664552
0.771062
0.886169
1.01228
1.15061
1.30399
1.47685
1.67166
1.8901
2.13607
2.41735
2.74765
3.1413
3.60675
4.14589
4.76021
5.45743
6.25274
7.16481
8.21076
9.40695
10.7721
12.3247
14.082
16.0644
18.3009
20.8173
23.6244
26.7264
30.1179
33.7678
37.6141
41.5616
45.5008
49.3334
52.9729
56.3454
59.4362
62.3111
64.9941
67.5894
70.0243
71.9861
73.0462
73.2861
72.8102
69.8546
64.2307
53.6287
40.5303
23.0948
18.256
16.8133
17.2972
21.7827
30.2038
42.7753
58.9149
72.7748
74.6983
49.2319
-2.62325
-34.1849
-46.2699
-49.7883
-51.9894
-53.0338
-51.6528
-42.361
-30.427
-0.016448
0.196072
0.192742
0.253541
0.303458
0.366542
0.437957
0.52321
0.621206
0.728577
0.84327
0.967079
1.10225
1.25023
1.41455
1.60011
1.8096
2.04462
2.30858
2.60905
2.96045
3.37864
3.87411
4.44967
5.10651
5.85163
6.70054
7.67272
8.786
10.058
11.508
13.1537
15.0094
17.0918
19.4283
22.0458
24.9552
28.1585
31.6483
35.391
39.3235
43.3511
47.3629
51.2613
54.9701
58.4324
61.6432
64.6519
67.4912
70.242
72.8048
74.8235
75.8332
75.9298
75.4588
72.406
67.2444
57.3655
43.7821
26.6398
18.8167
15.9875
16.4474
21.2832
30.0148
42.9194
58.9935
72.7882
73.892
48.8078
-2.643
-34.3785
-46.2972
-49.5396
-51.5983
-52.597
-50.9199
-42.2489
-31.1848
-0.0131507
0.20539
0.21034
0.277172
0.332999
0.40192
0.479771
0.572202
0.677938
0.793457
0.916772
1.04958
1.1939
1.35143
1.52654
1.7247
1.94911
2.20148
2.48456
2.80537
3.1786
3.62139
4.14623
4.75727
5.45557
6.24767
7.14956
8.18099
9.36032
10.7062
12.2393
13.977
15.9302
18.1126
20.5485
23.2652
26.2743
29.5763
33.1616
36.994
41.0088
45.1136
49.1988
53.1655
56.9428
60.4927
63.8238
66.9545
69.9369
72.8278
75.5079
77.571
78.5123
78.4484
77.9964
74.9051
70.157
61.1207
47.2317
30.6191
19.9247
15.7661
15.9532
20.8899
29.7874
42.6114
57.8667
71.1548
72.1604
47.5786
-2.73857
-34.5707
-46.2509
-49.1927
-51.0675
-51.9974
-49.8675
-41.8289
-31.615
-0.00977984
0.214531
0.22739
0.300152
0.361861
0.436772
0.521286
0.621076
0.734717
0.858693
0.991059
1.13318
1.28668
1.45359
1.63908
1.84951
2.08889
2.35918
2.66252
3.00502
3.40122
3.86924
4.42332
5.06906
5.80763
6.64553
7.59922
8.6887
9.93266
11.3505
12.9644
14.7912
16.8402
19.121
21.6549
24.4688
27.5748
30.9734
34.6514
38.5719
42.6665
46.846
51.0056
55.0452
58.8953
62.5345
65.9851
69.2344
72.3537
75.3736
78.1596
80.263
81.1159
80.8755
80.4259
77.4419
73.0069
64.8624
51.0835
34.7262
22.1898
16.4939
15.909
20.5597
29.2189
41.0007
54.5043
68.1806
69.6556
45.6279
-2.93282
-34.7235
-46.1199
-48.7522
-50.3508
-51.1746
-48.5219
-41.1167
-31.6569
-0.00629948
0.223533
0.244001
0.32255
0.390068
0.471059
0.5624
0.66966
0.791299
0.923959
1.06574
1.21747
1.38025
1.5563
1.75163
1.97375
2.22781
2.51632
2.84078
3.2063
3.62684
4.12116
4.70489
5.3849
6.1627
7.04521
8.04931
9.19548
10.5026
11.9908
13.6825
15.5946
17.736
20.1125
22.7417
25.65
28.8493
32.3401
36.1087
40.1176
44.2933
48.5472
52.7816
56.8996
60.8314
64.5658
68.1345
71.5081
74.7629
77.9061
80.7853
82.9257
83.6734
83.2217
82.7171
80.0937
75.7389
68.4313
55.3557
39.1981
25.7734
18.032
16.0672
20.0011
27.7646
37.1532
49.9421
64.4897
66.3165
43.0298
-3.24591
-34.8071
-45.9062
-48.2291
-49.473
-50.0915
-46.9228
-40.1702
-31.3905
-0.00276222
0.232411
0.26026
0.344474
0.417714
0.50482
0.603067
0.717837
0.847514
0.989015
1.14051
1.30216
1.47434
1.65932
1.8639
2.09696
2.36515
2.67173
3.01774
3.40729
3.85349
4.37541
4.98957
5.70378
6.52022
7.44649
8.49989
9.70144
11.0707
12.6277
14.3942
16.3876
18.6168
21.084
23.8044
26.8028
30.0926
33.6708
37.5266
41.6224
45.8837
50.2159
54.5262
58.7264
62.7505
66.5908
70.279
73.7861
77.176
80.4434
83.4065
85.566
86.2002
85.4849
84.8081
82.7178
78.0995
71.5936
59.6482
44.6412
30.1999
19.8214
16.0638
18.9841
24.6095
31.7347
44.6852
59.9887
62.0668
39.8264
-3.74217
-34.8311
-45.6287
-47.6242
-48.4493
-48.7845
-45.1456
-39.052
-30.8483
0.000732337
0.241102
0.276163
0.365978
0.444867
0.538074
0.643225
0.765492
0.903227
1.05369
1.21513
1.38699
1.56876
1.76254
1.97587
2.21909
2.50062
2.82471
3.19218
3.60622
4.07905
4.62968
5.27509
6.0238
6.87884
7.84841
8.9504
10.2066
11.6375
13.2626
15.1012
17.1728
19.4849
22.0385
24.8443
27.9269
31.3016
34.9626
38.9014
43.0796
47.4269
51.8436
56.2363
60.5232
64.6487
68.6075
72.4207
76.0699
79.5934
82.9869
86.0306
88.1879
88.6966
87.6782
86.6479
84.7196
80.0043
74.184
63.9219
50.4273
34.3656
21.1816
15.7932
17.0736
19.8943
25.3539
38.6682
54.5498
56.8894
36.0714
-4.53287
-34.8331
-45.3191
-46.9406
-47.2674
-47.2719
-43.2649
-37.7869
-29.9993
0.00408705
0.249495
0.291642
0.387057
0.471577
0.570846
0.682823
0.812505
0.958288
1.11781
1.28938
1.47173
1.66333
1.86595
2.08772
2.34048
2.63449
2.97525
3.3636
3.80201
4.30177
4.88162
5.55874
6.34231
7.23603
8.24864
9.39876
10.7093
12.2022
13.8951
15.8048
17.9525
20.3438
22.9805
25.8663
29.0274
32.4803
36.2157
40.2281
44.4824
48.9104
53.4174
57.9047
62.287
66.5195
70.6063
74.5541
78.3526
82.0092
85.5242
88.6468
90.7959
91.1625
89.8194
88.2689
85.9708
81.6575
76.423
68.1127
55.435
37.3082
21.9797
15.2262
14.1171
14.128
18.2174
31.7844
48.0829
50.8171
31.7639
-5.64622
-34.8508
-44.9885
-46.1864
-45.9537
-45.6008
-41.325
-36.3922
-28.932
0.00726881
0.257507
0.306616
0.407671
0.497862
0.603159
0.721825
0.858764
1.01253
1.18117
1.36302
1.55606
1.75777
1.96945
2.19963
2.46155
2.76736
3.12391
3.53236
3.99458
4.52096
5.12979
5.83849
6.65689
7.58912
8.6444
9.84215
11.207
12.762
14.5221
16.5032
18.7253
21.1939
23.9114
26.875
30.1097
33.638
37.4437
41.5177
45.8401
50.3416
54.9369
59.525
64.0137
68.3589
72.5778
76.6705
80.6203
84.4165
88.0447
91.2386
93.3808
93.5915
91.9149
89.7761
86.8822
83.2732
78.5181
71.5057
58.7605
38.9478
22.4314
14.2994
10.3391
7.62925
10.4397
24.0267
40.4999
43.874
26.8471
-7.08204
-34.8821
-44.632
-45.3849
-44.5965
-43.8508
-39.3684
-34.8877
-27.6221
0.0103206
0.2651
0.321041
0.42778
0.523719
0.635027
0.760227
0.904209
1.06582
1.24354
1.43571
1.6396
1.85172
2.07281
2.31162
2.5826
2.89978
3.27147
3.6993
4.18465
4.73693
5.37395
6.11354
6.96614
7.93628
9.03359
10.2782
11.697
13.3133
15.1399
17.1925
19.487
22.0325
24.8286
27.8698
31.1738
34.7742
38.6537
42.7864
47.1656
51.7313
56.4012
61.0894
65.6973
70.1658
74.517
78.7595
82.8616
86.801
90.5356
93.7943
95.9178
95.9695
93.9676
91.2745
87.9206
84.911
80.2455
73.2736
60.328
39.7387
22.7424
12.9393
5.99285
0.663291
2.14349
15.391
31.7491
36.1492
21.3467
-8.81949
-34.9091
-44.2512
-44.5705
-43.2765
-42.043
-37.4658
-33.3043
-26.1458
0.0133308
0.272299
0.33495
0.447415
0.549199
0.666519
0.798101
0.94888
1.11811
1.30478
1.50721
1.72198
1.94476
2.17566
2.42343
2.70359
3.03201
3.4185
3.86528
4.37317
4.95054
5.6147
6.38403
7.26968
8.27675
9.41506
10.7055
12.1774
13.8535
15.746
17.8696
20.2346
22.8556
25.7284
28.8474
32.2188
35.8845
39.8392
44.0378
48.4659
53.0877
57.8174
62.5966
67.332
71.9353
76.4214
80.8182
85.0771
89.1503
92.9809
96.2928
98.384
98.2802
95.979
92.8255
89.3404
86.577
81.4653
73.7319
61.0317
40.2551
23.005
11.2051
1.33486
-6.5137
-6.53748
5.95229
22.0031
27.7501
15.2462
-10.9062
-34.9806
-43.8539
-43.7526
-41.9288
-40.1616
-35.7086
-31.6521
-24.5412
0.0163819
0.279152
0.34842
0.466659
0.574413
0.697765
0.835587
0.992922
1.16951
1.36487
1.57732
1.80289
2.03646
2.27748
2.53456
2.8241
3.16383
3.56509
4.03064
4.56072
5.1626
5.853
6.65074
7.56805
8.6109
9.78906
11.1243
12.6477
14.3811
16.3384
18.5313
20.9658
23.6585
26.6067
29.8045
33.2463
36.9707
40.9952
45.2676
49.7473
54.4219
59.2071
64.0613
68.9185
73.6642
78.2941
82.843
87.2613
91.4593
95.3748
98.7218
100.766
100.509
97.9619
94.4734
91.137
88.2465
82.2251
73.4423
61.3354
40.8371
23.0933
9.23318
-3.35337
-13.6226
-15.3854
-4.02947
11.6292
18.7217
8.57775
-13.4681
-35.1821
-43.463
-42.9163
-40.4916
-38.1487
-34.0741
-29.8998
-22.7836
0.0195454
0.285698
0.361533
0.485616
0.599512
0.728954
0.872905
1.03657
1.22025
1.42396
1.6461
1.8822
2.12648
2.37776
2.64437
2.94348
3.29464
3.71069
4.195
4.74718
5.37346
6.08955
6.91453
7.86217
8.93974
10.1568
11.5362
13.1091
14.8969
16.917
19.1761
21.6794
24.4378
27.4571
30.7323
34.2537
38.0402
42.1272
46.4761
51.0192
55.7444
60.6042
65.5143
70.4706
75.3565
80.1331
84.8344
89.4112
93.7302
97.7211
101.089
103.067
102.655
99.923
96.2431
93.1357
89.8605
82.6544
73.0148
61.5019
41.4979
22.9977
7.21971
-7.76124
-20.3058
-24.0466
-14.19
1.05753
9.1813
1.48416
-16.5294
-35.5703
-43.1095
-42.039
-38.9514
-36.0222
-32.4921
-28.0066
-20.9633
0.0228479
0.291929
0.374341
0.504371
0.624624
0.760269
0.910298
1.08011
1.27063
1.48235
1.71373
1.95994
2.21467
2.47614
2.75237
3.06115
3.42363
3.85426
4.35715
4.93151
5.58239
6.32398
7.17541
8.15239
9.26375
10.5194
11.9431
13.5641
15.4045
17.4848
19.8076
22.3783
25.1967
28.2771
31.6192
35.2202
39.0819
43.2371
47.6683
52.2907
57.0613
62.0032
66.9724
72.0166
77.0271
81.9415
86.7976
91.5273
95.9645
100.029
103.406
105.295
104.725
101.853
98.1261
95.1489
91.3654
82.9525
72.9815
61.8361
42.052
22.6974
5.2804
-11.6422
-26.1599
-31.909
-23.8078
-9.05494
-0.337914
-5.768
-20.0201
-36.1484
-42.8238
-41.1302
-37.3396
-33.8841
-30.8729
-25.942
-19.1575
0.026251
0.297802
0.386848
0.522959
0.64981
0.791809
0.947932
1.12376
1.32089
1.54026
1.78042
2.03629
2.30111
2.57262
2.85844
3.17676
3.55016
3.99472
4.51567
5.11213
5.78779
6.55493
7.43257
8.43836
9.58297
10.8776
12.3462
14.0145
15.9067
18.0443
20.4297
23.0658
25.9442
29.0785
32.4739
36.1375
40.0707
44.2951
48.8094
53.5319
58.3704
63.3599
68.4849
73.5736
78.6988
83.7394
88.7418
93.614
98.1646
102.297
105.666
107.45
106.725
103.732
100.057
97.0244
92.647
83.3998
73.4657
62.333
42.2863
22.1064
3.3377
-15.0896
-31.1201
-38.4741
-32.067
-18.2568
-9.42632
-12.8248
-23.8198
-36.9539
-42.6295
-40.2409
-35.7106
-31.8122
-29.1777
-23.7139
-17.3488
0.0296821
0.303247
0.399024
0.541341
0.675013
0.823513
0.985786
1.16758
1.37113
1.59787
1.8464
2.11153
2.38615
2.66757
2.96295
3.29062
3.67428
4.13178
4.66985
5.28784
5.98803
6.78067
7.68445
8.71864
9.89634
11.231
12.7456
14.4611
16.4048
18.5961
21.0442
23.7442
26.6848
29.8718
33.3203
37.0372
41.0258
45.2975
49.8731
54.7082
59.6675
64.7015
69.914
75.1414
80.3876
85.5447
90.6763
95.6817
100.339
104.524
107.862
109.521
108.641
105.533
101.949
98.6826
93.6373
83.956
74.2934
62.7687
42.0638
21.0914
1.14612
-18.5047
-35.5761
-43.8146
-38.6876
-26.3871
-18.0116
-19.5924
-27.753
-38.0427
-42.5313
-39.4291
-34.0995
-29.8334
-27.3617
-21.3803
-15.6582
0.0330895
0.308183
0.410798
0.559373
0.700032
0.855135
1.02363
1.2114
1.42128
1.65514
1.91172
2.18585
2.47014
2.76149
3.06653
3.40346
3.79681
4.26619
4.82004
5.45832
6.18213
6.9997
7.92909
8.99094
10.2014
11.5772
13.1387
14.9031
16.8992
19.1425
21.6522
24.4153
27.4179
30.6541
34.1532
37.9319
41.9846
46.3013
50.908
55.8182
60.9044
66.0663
71.3038
76.7017
82.084
87.3599
92.6065
97.7362
102.494
106.711
109.998
111.501
110.459
107.243
103.699
100.058
94.3597
84.6454
75.1866
62.7903
41.2949
19.5357
-1.50574
-22.1646
-39.7595
-48.0693
-43.7284
-33.2569
-25.8445
-26.051
-31.6749
-39.4594
-42.5604
-38.7422
-32.5387
-27.9463
-25.435
-19.0015
-14.0473
0.0364663
0.312533
0.422049
0.576834
0.724539
0.886299
1.0611
1.25491
1.47107
1.71186
1.97626
2.25918
2.55315
2.85462
3.16965
3.51608
3.91888
4.39919
4.96734
5.62432
6.37042
7.21185
8.16586
9.25431
10.4967
11.9138
13.5222
15.3376
17.3865
19.6826
22.2509
25.0796