/*--------------------------------*- C++ -*----------------------------------*\
| =========                 |                                                 |
| \\      /  F ield         | OpenFOAM: The Open Source CFD Toolbox           |
|  \\    /   O peration     | Version:  4.1                                   |
|   \\  /    A nd           | Web:      www.OpenFOAM.org                      |
|    \\/     M anipulation  |                                                 |
\*---------------------------------------------------------------------------*/
FoamFile
{
    version     2.0;
    format      ascii;
    class       surfaceScalarField;
    location    "9";
    object      phi;
}
// * * * * * * * * * * * * * * * * * * * * * * * * * * * * * * * * * * * * * //

dimensions      [0 3 -1 0 0 0 0];

internalField   nonuniform List<scalar> 
13220
(
-906.848
2206.74
-1504.67
1898.02
-1985.13
1780.36
-2354.95
1669.71
-2630.28
1575.53
-2818.72
1488.33
-2923.52
1404.7
-2944.5
1321.17
-2880.32
1235.72
-2727.87
1147.45
-2482.49
1054.82
-2127.49
944.891
-1626.93
799.334
-956.057
629.325
343.842
423.562
1783.16
466.643
1854.91
450.446
1796.53
410.996
1709.14
378.547
1607.96
352.422
1514.43
333.155
1423.94
321.447
1332.86
314.013
1243.13
304.696
1156.75
285.359
1074.14
242.246
987.975
165.757
875.791
88.4749
706.573
432.316
181.163
1601.98
21.0032
2015.05
-139.994
1957.51
-258.59
1827.72
-362.846
1712.19
-459.889
1611.45
-546.977
1511.01
-624.508
1410.36
-690.661
1309.26
-742.998
1209.05
-777.21
1108.32
-774.596
985.316
-684.734
785.867
-432.763
454.525
-0.44713
215.977
1385.99
136.058
2094.95
2.01564
2091.53
-93.3997
1923.11
-169.526
1788.3
-229.566
1671.47
-269.447
1550.86
-289.384
1430.27
-291.373
1311.22
-275.891
1193.54
-241.713
1074.12
-184.082
927.654
-101.148
702.889
-9.79096
363.113
-10.2389
282.659
1103.32
349.265
2028.33
326.314
2114.46
305.793
1943.61
296.355
1797.71
292.821
1674.98
292.886
1550.78
296.862
1426.28
303.536
1304.53
310.972
1186.09
318.564
1066.52
320.514
925.659
297.157
726.195
215.895
444.317
205.657
248.959
854.342
359.445
1917.83
370.409
2103.49
351.102
1962.9
336.001
1812.8
325.044
1685.93
313.668
1562.15
299.593
1440.35
283.724
1320.39
266.06
1203.75
245.183
1087.39
219.251
951.623
177.934
767.545
109.223
513.062
314.879
131.131
723.197
214.403
1834.55
239.201
2078.68
216.859
1985.24
193.489
1836.17
173.772
1705.64
155.176
1580.74
137.072
1458.45
119.175
1338.28
102.856
1220.06
88.2003
1102.05
75.4526
964.32
61.4161
781.533
44.6219
529.81
359.502
35.7706
687.42
85.6645
1784.65
125.671
2038.67
115.502
1995.4
100.176
1851.49
88.3419
1717.47
76.6029
1592.48
65.8356
1469.22
56.3745
1347.75
47.3249
1229.12
39.5945
1109.78
36.0312
967.944
32.8342
784.79
28.6363
534.063
388.137
11.2867
676.128
49.0422
1746.89
93.326
1994.38
93.3904
1995.33
84.1115
1860.77
76.4167
1725.16
69.4327
1599.46
61.9189
1476.73
54.9506
1354.71
48.3628
1235.69
41.5219
1116.62
39.201
970.194
37.7431
786.181
29.2042
542.54
417.342
25.3815
650.755
65.8621
1706.42
104.302
1955.95
105.393
1994.25
96.1052
1870.06
85.9395
1735.33
76.8706
1608.53
68.5805
1485.02
59.9065
1363.39
51.92
1243.7
44.6089
1123.94
41.8073
973.075
40.0861
787.978
29.177
553.52
446.519
35.2643
615.514
73.8187
1667.88
106.278
1923.51
107.242
1993.3
98.0117
1879.31
87.7513
1745.61
77.2762
1619.03
67.7421
1494.58
58.7325
1372.43
49.6061
1252.85
42.0384
1131.54
40.6113
974.488
39.3199
789.273
27.0859
565.759
473.606
4.49176
611.061
19.5987
1652.8
36.8054
1906.33
29.9733
2000.16
17.1923
1892.13
4.53242
1758.31
-5.00105
1628.61
-12.8442
1502.46
-17.8415
1377.47
-19.8083
1254.87
-18.993
1130.76
-8.27401
963.872
6.2059
774.894
11.0697
560.987
484.676
-34.5462
645.644
-19.7961
1638.08
-7.79476
1894.36
-3.56447
1995.96
-5.47735
1894.07
-13.495
1766.35
-22.9949
1638.14
-31.5176
1511.01
-40.9718
1386.95
-48.4729
1262.39
-46.4193
1128.72
-32.3838
949.862
-14.3041
756.845
-11.5559
558.269
473.12
-263.084
908.75
-440.565
1815.57
-553.963
2007.77
-619.397
2061.4
-646.292
1920.98
-654.686
1774.75
-647.026
1630.49
-627.325
1491.31
-589.769
1349.4
-528.371
1201
-419.033
1019.39
-286.077
816.915
-152.505
623.278
-63.0678
468.835
410.052
-368.879
-350.543
-413.92
-470.613
-586.76
-704.192
-816.332
-891.902
-936.218
-896.237
-830.729
-697.619
-544.652
-363.046
-0.00242356
480.354
-480.36
480.349
480.346
480.343
1014.66
-534.322
1014.66
1014.66
1014.65
1469.2
-454.552
1469.2
1469.2
1848.18
-378.98
1848.17
1848.17
1848.17
2066.03
-217.861
2066.02
2066.02
2238.62
-172.599
2238.62
2238.62
2238.61
2362.72
-124.106
2362.72
2362.71
2362.71
2476.12
-113.411
2476.12
2476.12
2596.37
-120.252
2596.37
2596.36
2596.36
2698.33
-101.972
2698.33
2698.33
2778.8
-80.4742
2778.8
2778.8
2778.8
2821.54
-42.7432
2821.54
2821.53
2821.53
2805.58
15.954
2805.58
2805.57
2726.11
79.4603
2726.11
2726.11
2726.11
2587.49
138.612
2587.49
2587.49
2587.49
2388.2
199.286
2388.2
2388.2
2126.37
261.824
2126.37
2126.36
2126.36
1806.63
319.73
1806.63
1806.62
1420.75
385.874
1420.74
1420.74
1420.73
967.37
453.362
967.363
967.361
967.354
435.133
532.221
435.123
435.127
-144.791
579.911
-144.786
-144.794
-154.452
-157.009
-166.498
-1196.45
1042.63
-1156.19
-1112.98
-1060.62
-1007.35
-954.244
-899.48
-834.544
-762.513
-2529.87
1845.56
-2426.05
-2327.37
-2230.03
-2108.37
-1984.82
-1858.9
-1726.4
-1591.8
-3994.36
2555.73
-3814.09
-3632.91
-3450.74
-3267.88
-3075.06
-2864.33
-2650.25
-2428.85
-2204.1
-5108.81
3127.12
-4852.7
-4593.21
-4331.2
-4068.53
-3805.41
-3526.55
-3233.41
-2935.9
-6092.67
3447.25
-5794.12
-5486.52
-5165.45
-4840.98
-4513.82
-4184.24
-3848.61
-3491.82
-6706.43
3565.04
-6353.4
-5997.62
-5641.44
-5270.13
-4890.58
-4508.38
-4122.82
-3737.2
-6755.8
3407.67
-6361.79
-5964.31
-5567.38
-5170.7
-4775.42
-4378.44
-3983.63
-3594.15
-3210.3
-5115.65
2290.99
-4763.03
-4414.04
-4072.76
-3736.71
-3406.55
-3107.28
-2863.38
-2620.35
-2637.81
283.928
-2428.73
-2228.31
-2228.31
-1853.09
-375.219
-1636.72
-216.38
-1636.72
-1478.37
-158.351
-1478.37
-1382.61
-95.7636
-1345.29
-37.3247
-1345.29
-1374.26
28.9663
-1441.14
66.8759
-1441.14
-1555.47
114.334
-1555.48
-1725.79
170.313
-1895.75
169.956
-1895.75
-2102.15
206.406
-2102.15
-2345.87
243.721
-2566.26
220.385
-2566.26
-2822.83
256.571
-3046.71
223.88
-3046.71
-3290.15
243.442
-3290.15
-3545.26
255.111
-3756.69
211.426
-3756.69
-3977.45
220.761
-3977.45
-4198.62
221.179
-4370.87
172.246
-4370.87
-4546.35
175.484
-4670.72
124.365
-4670.72
-4788.58
117.865
-4788.58
-4888.18
99.6059
-4932.32
44.1395
-4932.32
-4964.15
31.8308
-4964.15
-4975.82
11.6722
-4932.83
-42.9983
-4932.83
-4876.05
-56.775
-4764.37
-111.678
-4764.37
-4639.11
-125.266
-4639.11
-4491.01
-148.097
-4287.44
-203.567
-4287.44
-4070.4
-217.039
-4070.4
-3831.68
-238.726
-3536.11
-295.572
-3536.11
-3221.43
-314.676
-2848.24
-373.191
-2848.24
-2458.58
-389.658
-2458.58
-2038.34
-420.242
-1598.79
-439.548
-1598.79
-1149.96
-448.827
-1149.96
-627.703
-522.257
-84.0396
-543.66
-84.0391
532.337
-616.375
1358.6
-826.262
1358.6
2354.56
-995.959
2354.56
-1204
-1308.85
-17.52
-1304.02
33.7007
-1304.65
1.79109
-1303.84
11.1597
-1304.21
10.0159
-1304.48
12.7102
-1304.85
15.5232
-1305.22
19.367
-1305.61
24.2406
-1306.02
30.2458
-1306.52
37.4262
-1307.12
45.8881
-1307.89
55.8523
-1308.88
67.6978
-1310.15
81.615
-1311.77
97.9369
-1313.8
116.877
-1316.35
138.622
-1319.48
163.451
-1323.32
191.721
-1327.99
223.837
-1333.64
260.439
-1340.45
302.14
-1348.66
350.075
-1358.55
405.42
-1370.44
469.221
-1384.69
542.983
-1401.71
628.429
-1421.94
727.629
-1445.84
843.361
-1473.95
978.927
-1506.83
1137.47
-1545.07
1323.9
-1589.27
1543.68
-1639.92
1803
-1697.31
2109.33
-1761.32
2470.98
-1831.13
2896.73
-1904.76
3394.79
-1978.6
3971.14
-2047.06
4626.64
-2102.54
5353.22
-2136.07
6130.08
-2138.84
6921.26
-2104.56
7677.72
-2031.92
8347.9
-1926.45
8899.65
-1800.22
9350.09
-1668.33
9785.56
-1542.24
10339.8
-1422.57
11119.5
-1296.63
12122.8
-1143.74
13201.1
-946.441
14086.7
-701.118
14441.3
-421.744
13892.4
-124.822
11935.3
59.7236
7243.58
116.485
2563.04
245.256
1533.45
401.53
1612.61
497.242
819.594
553.923
-37.5065
569.798
-722.916
535.835
-1269.2
432.46
-1758.43
506.704
-2382.34
820.309
-3921.24
1112.86
-5442.39
1273.5
-6163.4
1349.41
-5836.9
1394.27
-4847.75
1425.4
-3651.16
1444.98
-2312.36
1478.2
-601.636
1449.32
854.13
1398.3
1489.84
1339.1
1343.45
411.612
-1354.81
-37.1665
-1341.52
20.4149
-1336.81
-2.92527
-1331.65
6.00047
-1328.8
7.16357
-1326.59
10.5029
-1325.05
13.9895
-1323.97
18.2846
-1323.27
23.5434
-1322.93
29.8976
-1322.94
37.4376
-1323.32
46.2734
-1324.08
56.6093
-1325.24
68.8612
-1326.82
83.1955
-1328.86
99.9713
-1331.4
119.425
-1334.55
141.767
-1338.37
167.275
-1342.98
196.326
-1348.46
229.323
-1354.99
266.969
-1362.8
309.95
-1372.1
359.376
-1383.11
416.431
-1396.13
482.241
-1411.48
558.337
-1429.56
646.506
-1450.82
748.887
-1475.7
868.24
-1504.63
1007.86
-1538.26
1171.11
-1577.15
1362.78
-1621.78
1588.32
-1672.61
1853.82
-1729.78
2166.51
-1793.05
2534.25
-1861.37
2965.06
-1932.58
3466
-2002.88
4041.44
-2066.59
4690.35
-2116.16
5402.79
-2142.84
6156.76
-2138.19
6916.6
-2096.34
7635.87
-2016.64
8268.2
-1905.58
8788.6
-1776.52
9221.03
-1645.26
9654.31
-1522.24
10216.8
-1405.74
11003
-1281.67
11998.7
-1130.19
13049.6
-935.826
13892.3
-697.052
14202.5
-429.716
13625.1
-153.316
11658.9
20.7624
7069.5
99.5017
2484.31
247.642
1385.32
448.943
1411.31
542.334
726.209
591.441
-86.6071
570
-701.472
482.147
-1181.34
382.197
-1658.48
568.846
-2568.99
942.755
-4295.15
1203.8
-5703.44
1316.92
-6276.52
1356.43
-5876.41
1384.04
-4875.36
1415.95
-3683.07
1443.92
-2340.33
1498.82
-656.542
1448.15
904.809
1364.7
1573.3
1205.47
1502.68
621.123
-1411.19
-63.3028
-1391.37
0.59951
-1381.48
-12.8145
-1372.62
-2.86758
-1366.72
1.26928
-1362.17
5.94816
-1358.73
10.5503
-1356.07
15.6261
-1354.05
21.519
-1352.57
28.4214
-1351.63
36.5006
-1351.25
45.8884
-1351.43
56.7875
-1352.18
69.618
-1353.54
84.5495
-1355.51
101.946
-1358.17
122.081
-1361.57
145.173
-1365.8
171.503
-1370.94
201.465
-1377.09
235.471
-1384.4
274.28
-1393.09
318.641
-1403.35
369.64
-1415.4
428.473
-1429.5
496.341
-1445.96
574.799
-1465.14
665.686
-1487.46
771.207
-1513.33
894.111
-1543.17
1037.71
-1577.6
1205.53
-1617.07
1402.26
-1662.03
1633.28
-1712.8
1904.59
-1769.39
2223.1
-1831.33
2596.19
-1897.36
3031.08
-1965.04
3533.68
-2030.39
4106.79
-2087.67
4747.63
-2129.52
5444.64
-2147.66
6174.9
-2134.36
6903.3
-2084.6
7586.11
-1998.6
8182.2
-1883.62
8673.62
-1753.41
9090.82
-1623.48
9524.37
-1503.03
10096.3
-1388.89
10888.9
-1266.19
11876
-1115.6
12899
-922.978
13699.7
-688.259
13967.8
-427.606
13364.5
-159.31
11390.6
7.43964
6902.75
87.9125
2403.83
234.565
1238.67
433.256
1212.63
528.45
631.016
564.803
-122.959
542.139
-678.812
446.197
-1085.4
398.347
-1610.63
657.346
-2827.99
1018.29
-4656.1
1229.07
-5914.21
1306.17
-6353.63
1324.82
-5895.05
1346.4
-4896.95
1384.66
-3721.32
1421.71
-2377.38
1462.08
-696.914
1416.54
950.348
1326.34
1663.5
1120.56
1708.46
915.416
-1483.4
-95.5263
-1456.07
-26.7351
-1440.03
-28.853
-1426.46
-16.4409
-1416.7
-8.48669
-1409.16
-1.59019
-1403.36
4.75346
-1398.82
11.0824
-1395.25
17.945
-1392.47
25.6488
-1390.41
34.4402
-1389.03
44.5065
-1388.35
56.1098
-1388.36
69.6259
-1389.1
85.2861
-1390.59
103.439
-1392.91
124.401
-1396.13
148.397
-1400.33
175.703
-1405.59
206.719
-1412
241.88
-1419.69
281.979
-1428.86
327.813
-1439.69
380.47
-1452.38
441.158
-1467.18
511.143
-1484.39
592.01
-1504.35
685.651
-1527.46
794.314
-1554.11
920.758
-1584.69
1068.29
-1619.73
1240.57
-1659.64
1442.17
-1704.76
1678.39
-1755.27
1955.11
-1811.02
2278.85
-1871.32
2656.48
-1934.64
3094.41
-1998.3
3597.34
-2058.15
4166.65
-2108.43
4797.92
-2142.02
5478.24
-2151.18
6184.05
-2128.95
6881.07
-2071.27
7528.44
-1979.3
8090.23
-1861.04
8555.36
-1730.47
8960.25
-1602.48
9396.39
-1484.82
9978.68
-1372.91
10777
-1251.26
11754.4
-1101.11
12748.9
-909.573
13508.2
-677.689
13735.9
-421.282
13108.1
-159.312
11128.7
1.71983
6741.72
83.1522
2322.41
219.455
1102.37
409.537
1022.55
505.555
535.003
533.397
-150.795
515.895
-661.308
422.234
-991.741
437.768
-1626.16
754.179
-3144.4
1082.88
-4984.8
1240.44
-6071.77
1284.4
-6397.59
1287.42
-5898.07
1309.27
-4918.79
1356.76
-3768.81
1401.38
-2421.99
1426.96
-722.497
1378.6
998.721
1269.65
1772.46
1043.94
1934.17
1342.99
-1567.13
-132.17
-1532.9
-60.9734
-1510.38
-51.3723
-1491.49
-35.3235
-1477.18
-22.7987
-1466
-12.7693
-1457.3
-3.94751
-1450.45
4.22878
-1445.01
12.5019
-1440.69
21.3336
-1437.31
31.0613
-1434.78
41.9715
-1433.08
54.4094
-1432.17
68.717
-1432.09
85.2082
-1432.88
104.23
-1434.61
126.127
-1437.36
151.145
-1441.22
179.562
-1446.26
211.764
-1452.6
248.217
-1460.34
289.724
-1469.66
337.125
-1480.71
391.528
-1493.7
454.149
-1508.87
526.314
-1526.51
609.642
-1546.93
706.071
-1570.5
817.884
-1597.6
947.857
-1628.6
1099.3
-1663.94
1275.92
-1703.98
1482.21
-1748.94
1723.35
-1798.88
2005.04
-1853.45
2333.42
-1911.72
2714.75
-1971.92
3154.61
-2031.14
3656.56
-2085.08
4220.59
-2128.03
4840.86
-2153.13
5503.33
-2153.2
6184.12
-2122.11
6849.98
-2056.77
7463.1
-1959.29
7992.76
-1838.38
8434.44
-1708.09
8829.97
-1582.44
9270.75
-1467.64
9863.88
-1357.75
10667.1
-1236.8
11633.4
-1086.68
12598.8
-895.684
13317.2
-665.711
13505.9
-412.157
12854.5
-155.87
10872.4
1.11058
6584.74
81.9319
2241.59
203.052
981.255
384.024
841.579
485.946
433.082
515.368
-180.217
491.429
-637.372
406.701
-907.018
499.015
-1718.48
854.437
-3499.83
1130.4
-5260.77
1230.21
-6171.58
1243.84
-6411.22
1238
-5892.22
1266.48
-4947.28
1324.46
-3826.8
1374.2
-2471.73
1387.23
-735.532
1335.91
1050.05
1211.33
1897.03
974.667
2170.84
1773.99
-1658.77
-171.342
-1619.1
-100.648
-1590.49
-79.9771
-1566.17
-59.6482
-1546.86
-42.1005
-1531.47
-28.1646
-1519.3
-16.1201
-1509.64
-5.42507
-1501.94
4.79872
-1495.77
15.1643
-1490.86
26.151
-1487.03
38.1417
-1484.17
51.5516
-1482.23
66.7763
-1481.21
84.1922
-1481.16
104.179
-1482.13
127.1
-1484.23
153.239
-1487.55
182.879
-1492.16
216.382
-1498.18
254.238
-1505.72
297.257
-1514.91
346.315
-1525.92
402.547
-1538.96
467.184
-1554.24
541.599
-1572.05
627.445
-1592.67
726.693
-1616.44
841.658
-1643.71
975.132
-1674.83
1130.42
-1710.16
1311.25
-1749.99
1522.03
-1794.43
1767.79
-1843.37
2053.98
-1896.31
2386.36
-1952.08
2770.53
-2008.68
3211.2
-2062.99
3710.87
-2110.62
4268.23
-2145.94
4876.18
-2162.4
5519.8
-2153.43
6175.15
-2113.72
6810.27
-2041.14
7390.53
-1938.75
7890.37
-1815.85
8311.53
-1686.39
8700.51
-1563.37
9147.72
-1451.38
9751.9
-1343.23
10558.9
-1222.67
11512.8
-1072.23
12448.3
-881.377
13126.3
-652.609
13277.2
-400.944
12602.8
-149.339
10620.8
5.13469
6430.27
83.0177
2163.71
187.495
876.785
363.184
665.895
475.76
320.51
510.645
-215.097
463.86
-590.586
415.19
-858.348
593.053
-1896.34
952.405
-3859.18
1157.26
-5465.63
1199.24
-6213.56
1188.07
-6400.05
1181.81
-5885.96
1222.54
-4988
1289.85
-3894.11
1340.6
-2522.48
1341.33
-736.263
1287.95
1103.43
1153.07
2031.91
906.048
2417.86
2157.78
-1754.16
-210.951
-1711.26
-143.551
-1677.78
-113.454
-1648.58
-88.8544
-1624.37
-66.3103
-1604.5
-48.0344
-1588.43
-32.1851
-1575.53
-18.3312
-1565.16
-5.5646
-1556.83
6.82718
-1550.14
19.4598
-1544.83
32.8323
-1540.69
47.42
-1537.62
63.7023
-1535.57
82.1386
-1534.56
103.171
-1534.66
127.196
-1535.95
154.537
-1538.57
185.493
-1542.58
220.398
-1548.1
259.758
-1555.23
304.382
-1564.1
355.182
-1574.87
413.317
-1587.73
480.045
-1602.9
556.775
-1620.65
645.187
-1641.23
747.28
-1664.97
865.392
-1692.16
1002.33
-1723.12
1161.38
-1758.14
1346.27
-1797.41
1561.3
-1840.93
1811.31
-1888.45
2101.5
-1939.27
2437.18
-1992.04
2823.29
-2044.51
3263.67
-2093.43
3759.79
-2134.36
4309.16
-2161.8
4903.62
-2169.57
5527.57
-2151.7
6157.28
-2103.71
6762.28
-2024.43
7311.24
-1917.79
7783.73
-1793.58
8187.33
-1665.47
8572.4
-1545.26
9027.51
-1436
9642.63
-1329.32
10452.3
-1208.83
11392.3
-1057.8
12297.3
-866.729
12935.2
-638.495
13048.9
-387.734
12352.1
-139.566
10372.6
13.8456
6276.86
86.6334
2090.92
177.046
786.374
352.896
490.045
480.184
193.222
515.145
-250.059
427.823
-503.269
450.574
-881.105
712.845
-2158.61
1036.72
-4183.06
1160.1
-5589
1148.89
-6202.35
1120.39
-6371.55
1122.41
-5887.99
1178.35
-5043.94
1250.32
-3966.08
1296.09
-2568.26
1285.05
-725.225
1233.24
1155.24
1093.23
2171.93
849.844
2661.24
2558.8
-1849.14
-248.995
-1805.56
-187.135
-1769.08
-149.937
-1736.25
-121.679
-1707.87
-94.6936
-1683.78
-72.1205
-1663.75
-52.2218
-1647.32
-34.7609
-1633.96
-18.9246
-1623.14
-3.99384
-1614.4
10.7263
-1607.41
25.8436
-1601.88
41.8841
-1597.58
59.4064
-1594.43
78.9836
-1592.39
101.138
-1591.53
126.329
-1591.92
154.934
-1593.71
187.278
-1596.98
223.672
-1601.85
264.63
-1608.41
310.945
-1616.79
363.561
-1627.14
423.667
-1639.64
492.548
-1654.51
571.645
-1671.98
662.659
-1692.31
767.607
-1715.77
888.851
-1742.63
1029.19
-1773.15
1191.9
-1807.54
1380.66
-1845.9
1599.66
-1888.11
1853.52
-1933.76
2147.15
-1981.97
2485.39
-2031.2
2872.53
-2079.04
3311.52
-2122.12
3802.87
-2156.01
4343.06
-2175.39
4923
-2174.49
5526.67
-2147.95
6130.73
-2092.12
6706.45
-2006.73
7225.86
-1896.53
7673.53
-1771.68
8062.48
-1645.37
8446.09
-1528.13
8910.28
-1421.47
9535.97
-1316.02
10346.8
-1195.35
11271.7
-1043.46
12145.4
-851.78
12743.6
-623.384
12820.5
-372.432
12101.1
-126.471
10126.7
27.289
6123.1
92.99
2025.22
173.665
705.706
351.969
311.747
504.105
41.0906
551.159
-297.11
420.538
-372.647
507.858
-968.425
843.103
-2493.86
1100.5
-4440.45
1140.16
-5628.66
1082.81
-6145.01
1044.98
-6333.72
1062.89
-5905.89
1133.35
-5114.4
1201.91
-4034.64
1235.37
-2601.72
1213.75
-703.602
1169.25
1199.75
1028.94
2312.25
798.123
2892.06
2917.38
-1939.87
-283.774
-1898.09
-228.914
-1860.81
-187.22
-1826.16
-156.328
-1794.96
-125.891
-1767.53
-99.5523
-1743.95
-75.7987
-1724.09
-54.6225
-1707.61
-35.4045
-1694.08
-17.5218
-1683.07
-0.290439
-1674.17
16.9475
-1667.07
34.7819
-1661.47
53.8028
-1657.15
74.6727
-1654.05
98.0376
-1652.17
124.447
-1651.6
154.36
-1652.47
188.144
-1654.89
226.095
-1658.99
268.729
-1664.86
316.813
-1672.61
371.312
-1682.39
433.444
-1694.36
504.526
-1708.74
586.025
-1725.74
679.659
-1745.59
787.456
-1768.54
911.793
-1794.8
1055.46
-1824.59
1221.68
-1858.02
1414.09
-1895.1
1636.74
-1935.58
1894.01
-1978.89
2190.46
-2024
2530.5
-2069.19
2917.72
-2111.93
3354.26
-2148.77
3839.7
-2175.34
4369.63
-2186.56
4934.22
-2177.09
5517.2
-2142.19
6095.84
-2079.02
6643.28
-1988.18
7135.02
-1875.12
7560.47
-1750.24
7937.6
-1626.13
8321.98
-1511.97
8796.12
-1407.78
9431.77
-1303.34
10242.4
-1182.25
11150.6
-1029.22
11992.4
-836.515
12550.9
-607.265
12591.3
-355.026
11848.9
-110.025
9881.65
45.2082
5967.87
101.735
1968.69
178.45
628.991
363.165
127.032
536.702
-132.447
611.221
-371.632
484.9
-246.333
598.038
-1081.57
969.523
-2865.35
1142
-4612.93
1099.94
-5586.6
1004.8
-6049.87
965.418
-6294.34
1004.74
-5945.21
1084.88
-5194.55
1139.22
-4088.98
1152.42
-2614.93
1123.51
-674.692
1094.85
1228.41
960.141
2446.96
740.971
3111.23
3238.1
-2023.23
-314.039
-1985.32
-266.821
-1949.4
-223.142
-1914.92
-190.805
-1882.67
-158.146
-1853.28
-128.938
-1827.15
-101.934
-1804.44
-77.3298
-1785.1
-54.7434
-1768.9
-33.7213
-1755.51
-13.6809
-1744.57
6.00652
-1735.74
25.9553
-1728.71
46.7677
-1723.17
69.1411
-1718.97
93.8375
-1716.05
121.528
-1714.48
152.782
-1714.36
188.034
-1715.85
227.585
-1719.08
271.958
-1724.14
321.874
-1731.14
378.313
-1740.21
442.514
-1751.51
515.828
-1765.23
599.746
-1781.57
695.995
-1800.72
806.611
-1822.91
933.977
-1848.31
1080.86
-1877.05
1250.42
-1909.18
1446.23
-1944.59
1672.15
-1982.91
1932.33
-2023.44
2230.99
-2064.97
2572.02
-2105.65
2958.4
-2142.87
3391.48
-2173.14
3869.97
-2192.2
4388.7
-2195.25
4937.26
-2177.38
5499.34
-2134.51
6052.97
-2064.55
6573.32
-1968.92
7039.39
-1853.7
7445.25
-1729.37
7813.27
-1607.8
8200.41
-1496.79
8685.11
-1394.92
9329.9
-1291.25
10138.7
-1169.48
11028.8
-1015.03
11837.9
-820.886
12356.7
-590.134
12360.5
-335.653
11594.4
-90.2154
9636.21
67.5329
5810.12
111.977
1924.25
191.46
549.517
382.986
-64.4891
554.853
-304.311
588.124
-404.901
537.224
-195.434
727.6
-1271.94
1084.01
-3221.76
1162.41
-4691.32
1041.16
-5465.35
918.139
-5926.85
884.432
-6260.63
947.771
-6008.55
1028.66
-5275.44
1056.42
-4116.73
1042.03
-2600.54
1010.63
-643.291
1008.52
1230.52
886.487
2568.99
682.071
3315.64
3530.52
-2097.15
-339.045
-2064.56
-299.407
-2031.8
-255.903
-1999.35
-223.258
-1967.86
-189.632
-1938.17
-158.63
-1910.84
-129.256
-1886.32
-101.851
-1864.81
-76.2535
-1846.33
-52.2054
-1830.73
-29.2829
-1817.76
-6.95783
-1807.16
15.3491
-1798.63
38.2355
-1791.84
62.358
-1786.54
88.5304
-1782.58
117.571
-1779.99
150.189
-1778.87
186.917
-1779.38
228.089
-1781.65
274.236
-1785.81
326.029
-1791.95
384.448
-1800.18
450.748
-1810.66
526.308
-1823.55
612.638
-1839.03
711.476
-1857.28
824.856
-1878.46
955.157
-1902.71
1105.11
-1930.09
1277.81
-1960.57
1476.7
-1993.92
1705.5
-2029.67
1968.08
-2066.97
2268.29
-2104.47
2609.52
-2140.22
2994.16
-2171.55
3422.81
-2195
3893.42
-2206.46
4400.16
-2201.41
4932.21
-2175.41
5473.35
-2125.02
6002.57
-2048.88
6497.18
-1949.16
6939.67
-1832.45
7328.54
-1709.21
7690.03
-1590.48
8081.68
-1482.63
8577.26
-1382.89
9230.17
-1279.72
10035.5
-1157
10906.1
-1000.84
11681.7
-804.848
12160.7
-572.016
12127.7
-314.557
11336.9
-67.1192
9388.78
94.5864
5648.42
125.128
1893.71
211.627
463.017
402.828
-255.691
525.524
-427.008
417.708
-297.089
495.142
-272.874
889.101
-1665.91
1179.48
-3512.14
1160.98
-4672.82
964.538
-5268.91
826.031
-5788.34
804.101
-6238.7
890.125
-6094.57
959.447
-5344.77
948.504
-4105.79
900.786
-2552.82
871.719
-614.227
908.268
1193.97
805.961
2671.29
622.742
3498.86
3780.07
-2160.62
-358.523
-2134.15
-325.883
-2105.82
-284.232
-2076.85
-252.224
-2047.74
-218.742
-2019.37
-187.007
-1992.37
-156.248
-1967.35
-126.871
-1944.72
-98.8875
-1924.71
-72.2145
-1907.39
-46.6
-1892.69
-21.6577
-1880.45
3.10096
-1870.43
28.2214
-1862.38
54.3074
-1855.98
82.1351
-1851.03
112.615
-1847.46
146.62
-1845.35
184.809
-1844.85
227.595
-1846.13
275.516
-1849.31
329.202
-1854.48
389.622
-1861.76
458.03
-1871.28
535.827
-1883.18
624.542
-1897.62
725.916
-1914.74
841.978
-1934.68
975.09
-1957.5
1127.93
-1983.21
1303.52
-2011.68
1505.17
-2042.6
1736.42
-2075.36
2000.85
-2109.01
2301.93
-2142.08
2642.6
-2172.55
3024.63
-2197.72
3447.97
-2214.19
3909.9
-2218.04
4404.01
-2205.05
4919.22
-2171.28
5439.57
-2113.86
5945.15
-2032.18
6415.5
-1929.07
6836.56
-1811.54
7211.02
-1689.87
7568.37
-1574.2
7966.01
-1469.46
8472.51
-1371.65
9132.36
-1268.7
9932.57
-1144.75
10782.2
-986.598
11523.6
-788.384
11962.5
-552.971
11892.3
-292.041
11076
-40.8658
9137.6
126.63
5480.92
145.703
1874.64
242.812
365.917
416.224
-429.098
470.156
-480.937
360.169
-187.101
592.857
-505.561
1058.11
-2131.15
1251.06
-3705.09
1138.45
-4560.2
872.128
-5002.59
731.863
-5648.08
725.153
-6231.99
828.114
-6197.53
872.072
-5388.73
812.822
-4046.53
728.815
-2468.81
706.635
-592.043
794.43
1106.18
718.395
2747.33
556.935
3660.32
4022.33
-2213.62
-372.598
-2193.44
-346.059
-2170.25
-307.428
-2145.73
-276.746
-2120.19
-244.279
-2094.47
-212.722
-2069.21
-181.508
-2045.04
-151.039
-2022.5
-121.437
-2001.96
-92.7458
-1983.7
-64.8639
-1967.81
-37.5496
-1954.27
-10.4352
-1942.99
16.938
-1933.79
45.1059
-1926.39
74.7365
-1920.51
106.737
-1916.04
142.148
-1913
181.768
-1911.54
226.133
-1911.81
275.787
-1913.96
331.348
-1918.09
393.757
-1924.32
464.256
-1932.75
544.259
-1943.51
635.304
-1956.73
739.135
-1972.52
857.767
-1990.97
993.536
-2012.1
1149.06
-2035.83
1327.26
-2061.97
1531.3
-2090.08
1764.53
-2119.49
2030.26
-2149.12
2331.56
-2177.42
2670.9
-2202.32
3049.53
-2221.13
3466.78
-2230.57
3919.33
-2226.88
4400.32
-2206.21
4898.55
-2165.07
5398.43
-2101.19
5881.28
-2014.64
6328.94
-1908.84
6730.76
-1791.11
7093.29
-1671.46
7448.71
-1559.01
7853.56
-1457.25
8370.76
-1361.13
9036.23
-1258.11
9829.56
-1132.67
10656.7
-972.277
11363.2
-771.505
11761.7
-533.091
11653.9
-268.365
10811.3
-11.6382
8880.88
163.731
5305.55
180.643
1857.73
286.732
259.826
415.191
-557.558
420.564
-486.313
414.878
-181.42
783.837
-874.524
1216.79
-2564.11
1300.1
-3788.41
1098.16
-4358.25
766.755
-4671.19
637.52
-5518.84
646.189
-6240.66
756.899
-6308.24
762.95
-5394.78
650.592
-3934.18
531.844
-2350.07
521.272
-581.474
670.477
956.969
624.829
2792.98
493.8
3791.35
4220.56
-2256.81
-381.692
-2242.66
-360.214
-2224.79
-325.294
-2205.16
-296.379
-2183.91
-265.525
-2161.8
-234.839
-2139.37
-203.939
-2117.23
-173.176
-2095.94
-142.727
-2075.97
-112.712
-2057.7
-83.1347
-2041.38
-53.8745
-2027.13
-24.6838
-2014.98
4.79099
-2004.87
34.995
-1996.62
66.4918
-1989.97
100.082
-1984.72
136.902
-1980.87
177.912
-1978.52
223.783
-1977.82
275.095
-1978.95
332.47
-1982.01
396.819
-1987.11
469.359
-1994.35
551.503
-2003.85
644.796
-2015.68
750.974
-2029.95
872.034
-2046.69
1010.27
-2065.86
1168.24
-2087.33
1348.73
-2110.81
1554.78
-2135.8
1789.52
-2161.53
2055.98
-2186.82
2356.86
-2210.1
2694.18
-2229.24
3068.67
-2241.6
3479.14
-2244.02
3921.75
-2232.98
4389.29
-2204.95
4870.52
-2156.91
5350.39
-2087.18
5811.54
-1996.42
6238.19
-1888.63
6622.97
-1771.3
6975.96
-1654.02
7331.43
-1544.89
7744.43
-1445.97
8271.84
-1351.27
8941.53
-1247.91
9726.2
-1120.73
10529.5
-957.862
11200.3
-754.251
11558.1
-512.477
11412.1
-243.777
10542.6
20.0646
8617.03
205.381
5120.24
238.783
1824.33
347.187
151.429
395.021
-605.387
324.827
-416.116
480.539
-337.13
1011.88
-1405.86
1352.97
-2905.21
1326.67
-3762.11
1042.87
-4074.45
649.805
-4278.12
542.141
-5411.18
564.318
-6262.84
672.106
-6416.03
631.495
-5354.17
467.999
-3770.68
323.358
-2205.43
330.475
-588.589
543.392
744.054
527.9
2808.47
428.572
3890.68
4410.4
-2291.3
-386.42
-2282.57
-368.941
-2269.85
-338.019
-2255.13
-311.1
-2238.44
-282.208
-2220.42
-252.86
-2201.53
-222.838
-2182.28
-192.422
-2163.21
-161.802
-2144.79
-131.131
-2127.45
-100.476
-2111.52
-69.7972
-2097.26
-38.9455
-2084.8
-7.66902
-2074.19
24.3824
-2065.38
57.6848
-2058.17
92.8682
-2052.33
131.067
-2047.83
173.402
-2044.72
220.68
-2043.17
273.537
-2043.32
332.625
-2045.32
398.82
-2049.27
473.309
-2055.26
557.493
-2063.38
652.916
-2073.71
761.298
-2086.28
884.61
-2101.11
1025.09
-2118.09
1185.22
-2137.05
1367.69
-2157.61
1575.35
-2179.21
1811.12
-2200.98
2077.75
-2221.71
2377.6
-2239.77
2712.24
-2253.05
3081.95
-2258.96
3485.04
-2254.48
3917.27
-2236.33
4371.14
-2201.33
4835.53
-2146.93
5295.98
-2071.96
5736.58
-1977.7
6143.93
-1868.59
6513.85
-1752.21
6859.58
-1637.61
7216.84
-1531.82
7638.63
-1435.55
8175.57
-1342.01
8847.99
-1238.04
9622.23
-1108.89
10400.4
-943.349
11034.8
-736.673
11351.5
-491.243
11166.7
-218.569
10269.9
53.3224
8345.14
250.751
4922.81
317.661
1757.42
423.628
45.4586
388.401
-570.162
381.642
-409.362
710.729
-666.221
1244.27
-1939.4
1461.19
-3122.13
1333.04
-3633.96
973.702
-3715.12
519.792
-3824.21
442.586
-5333.97
476.471
-6296.72
571.154
-6510.72
480.797
-5263.81
276.392
-3566.28
126.215
-2055.25
161.857
-624.237
422.693
483.21
430.567
2800.59
362.935
3958.31
4556.3
-2318.37
-387.504
-2314.28
-373.028
-2306.25
-346.053
-2296.15
-321.197
-2283.95
-294.408
-2270.15
-266.661
-2255.1
-237.882
-2239.25
-208.272
-2223.04
-178.011
-2206.92
-147.253
-2191.31
-116.092
-2176.57
-84.5337
-2163.02
-52.4973
-2150.87
-19.813
-2140.28
13.7882
-2131.29
48.6913
-2123.8
85.3787
-2117.62
124.887
-2112.67
168.452
-2108.99
217.006
-2106.72
271.268
-2106.02
331.923
-2107.03
399.826
-2109.84
476.127
-2114.56
562.211
-2121.25
659.608
-2129.97
770.016
-2140.73
895.369
-2153.49
1037.85
-2168.11
1199.85
-2184.34
1383.92
-2201.77
1592.77
-2219.76
1829.1
-2237.39
2095.38
-2253.41
2393.62
-2266.16
2724.99
-2273.56
3089.35
-2273.1
3484.59
-2261.93
3906.09
-2237
4346.21
-2195.48
4794.01
-2135.26
5235.76
-2055.72
5657.04
-1958.64
6046.85
-1848.85
6404.06
-1733.91
6744.64
-1622.25
7105.18
-1519.78
7536.17
-1425.97
8081.76
-1333.3
8755.32
-1228.45
9517.38
-1097.13
10269.1
-928.742
10866.4
-718.831
11141.6
-469.522
10917.4
-192.979
9993.37
87.178
8064.99
298.928
4711.06
407.554
1648.8
505.052
-52.0347
430.729
-495.836
549.854
-528.485
994.124
-1110.49
1441.46
-2386.73
1535.19
-3215.86
1319.02
-3417.8
888.166
-3284.26
372.865
-3308.91
334.134
-5295.24
380.178
-6342.77
453.577
-6584.11
317.239
-5127.47
91.2422
-3340.28
-29.527
-1934.48
70.7191
-724.481
322.241
231.688
334.799
2788.04
303.427
3989.68
4656.16
-2339.31
-385.688
-2339
-373.335
-2335.05
-350.006
-2329.09
-327.157
-2321.05
-302.449
-2311.3
-276.407
-2300.12
-249.065
-2287.84
-220.551
-2274.83
-191.019
-2261.47
-160.609
-2248.15
-129.417
-2235.22
-97.4642
-2223.01
-64.7116
-2211.77
-31.0465
-2201.72
3.73621
-2192.97
39.9414
-2185.54
77.9508
-2179.3
118.642
-2174.16
163.308
-2170.13
212.982
-2167.34
268.478
-2165.94
330.522
-2166.07
399.952
-2167.83
477.887
-2171.31
565.689
-2176.56
664.866
-2183.63
777.085
-2192.5
904.235
-2203.08
1048.43
-2215.21
1211.97
-2228.59
1397.3
-2242.74
1606.93
-2256.99
1843.35
-2270.37
2108.77
-2281.61
2404.86
-2289.05
2732.43
-2290.65
3090.95
-2284
3477.93
-2266.4
3888.5
-2235.08
4314.89
-2187.53
4746.46
-2122.09
5170.33
-2038.64
5573.59
-1939.42
5947.63
-1829.55
6294.19
-1716.49
6631.58
-1607.97
6996.66
-1508.76
7436.95
-1417.19
7990.19
-1325.09
8663.22
-1219.11
9411.4
-1085.43
10135.4
-914.046
10695
-700.779
10928.3
-447.485
10664.1
-167.173
9713.06
120.833
7776.98
347.689
4484.2
500.106
1496.38
593.316
-145.25
561.382
-463.905
782.337
-749.444
1274.63
-1602.79
1592.35
-2704.45
1572.31
-3195.82
1283.58
-3129.07
788.637
-2789.31
211.857
-2732.13
212.668
-5296.06
273.842
-6403.94
320.744
-6631.02
149.551
-4956.28
-70.6567
-3120.07
-124.717
-1880.42
61.0677
-910.274
207.171
85.5735
245.331
2749.87
244.528
3990.48
4752.59
-2355.29
-381.652
-2357.92
-370.697
-2357.38
-350.554
-2354.96
-329.574
-2350.6
-306.81
-2344.55
-282.453
-2337.01
-256.605
-2328.23
-229.335
-2318.48
-200.763
-2308.09
-171.003
-2297.37
-140.136
-2286.65
-108.186
-2276.23
-75.13
-2266.39
-40.8916
-2257.34
-5.30852
-2249.26
31.8631
-2242.25
70.9378
-2236.24
112.629
-2231.16
158.231
-2227.02
208.849
-2223.93
265.386
-2222.02
328.611
-2221.43
399.356
-2222.25
478.709
-2224.57
568.01
-2228.44
668.738
-2233.87
782.52
-2240.84
911.197
-2249.21
1056.81
-2258.79
1221.56
-2269.24
1407.75
-2280.06
1617.74
-2290.51
1853.8
-2299.62
2117.88
-2306.1
2411.34