/*--------------------------------*- C++ -*----------------------------------*\
| =========                 |                                                 |
| \\      /  F ield         | OpenFOAM: The Open Source CFD Toolbox           |
|  \\    /   O peration     | Version:  4.1                                   |
|   \\  /    A nd           | Web:      www.OpenFOAM.org                      |
|    \\/     M anipulation  |                                                 |
\*---------------------------------------------------------------------------*/
FoamFile
{
    version     2.0;
    format      ascii;
    class       volSymmTensorField;
    location    "9";
    object      R;
}
// * * * * * * * * * * * * * * * * * * * * * * * * * * * * * * * * * * * * * //

dimensions      [0 2 -2 0 0 0 0];

internalField   nonuniform List<symmTensor> 
6785
(
(0.908979 3.30372e-16 7.39783e-16 0.457905 0.233409 2.08322)
(0.000209684 7.8059e-21 1.79149e-20 0.000198078 4.92988e-06 0.000238526)
(0.000128384 -9.7549e-24 2.98814e-24 0.000128351 3.65853e-09 0.000128406)
(0.000128277 1.50791e-23 2.7494e-24 0.000128262 9.47797e-09 0.000128276)
(0.000128289 -1.74329e-23 -4.69738e-24 0.000128274 9.23379e-09 0.000128288)
(0.000128258 -3.26643e-24 -8.56308e-25 0.000128242 8.44514e-09 0.000128257)
(0.000128271 7.75636e-24 2.13877e-24 0.000128255 7.76607e-09 0.000128271)
(0.000128285 -5.59753e-24 -1.40034e-24 0.000128267 7.16892e-09 0.000128285)
(0.000128254 2.88084e-24 2.01811e-25 0.000128236 6.6616e-09 0.000128255)
(0.000128264 6.55308e-25 2.85402e-25 0.000128244 5.90281e-09 0.000128265)
(0.000128264 -4.58266e-24 -1.88216e-24 0.000128242 4.53397e-09 0.000128265)
(0.000128226 2.47294e-24 -5.64119e-25 0.000128203 3.90483e-09 0.000128227)
(0.0001284 -5.18886e-25 1.80461e-24 0.000128377 2.47561e-09 0.000128407)
(0.000303551 1.3524e-21 -1.15022e-22 0.000265275 -2.70435e-05 0.000326937)
(0.420987 7.26044e-18 -8.58782e-19 0.198345 -0.14122 0.589396)
(2.26923 2.67804e-16 2.07534e-15 0.749326 -0.450203 4.76475)
(0.21943 -5.48037e-18 7.57833e-17 0.0802025 -0.0520871 0.379579)
(0.0143146 -1.46546e-18 2.27788e-18 0.00872866 -0.00179812 0.0201444)
(0.000146592 -8.60896e-21 1.50138e-20 0.000113929 -1.09338e-05 0.000180141)
(6.6037e-07 -3.87814e-24 5.88106e-24 6.43457e-07 -4.13731e-09 6.75799e-07)
(4.60736e-07 2.28942e-25 3.56628e-25 4.58347e-07 1.56221e-09 4.60017e-07)
(4.33152e-07 8.7599e-25 -2.27373e-25 4.28121e-07 4.36156e-09 4.31579e-07)
(3.99212e-07 -1.73545e-24 1.45274e-24 3.90923e-07 7.84673e-09 3.96422e-07)
(3.67814e-07 -1.19359e-24 3.15104e-24 3.61047e-07 5.3763e-09 3.64802e-07)
(3.59265e-07 6.70366e-24 -8.17543e-24 3.65568e-07 -5.19457e-09 3.58428e-07)
(3.44701e-07 -2.09834e-23 4.6302e-24 3.65559e-07 -1.18372e-08 3.45043e-07)
(2.91092e-07 -8.04619e-23 7.09095e-24 3.22403e-07 -1.43981e-08 2.90124e-07)
(2.11913e-06 -1.1151e-22 -1.03574e-22 2.45374e-06 -6.02558e-07 2.11829e-06)
(0.00941917 -5.17901e-19 -5.76362e-21 0.0111803 -0.0053513 0.00934605)
(0.644107 1.03227e-17 -1.18795e-18 0.743304 -0.556144 0.627178)
(3.70001 2.24692e-16 2.43761e-15 1.28932 -1.20558 7.08615)
(0.4528 -4.49844e-17 3.56677e-17 0.180707 -0.157017 0.762277)
(0.0226303 -8.14503e-18 -3.61095e-18 0.0181189 -0.00373176 0.0302286)
(0.000244189 -2.37176e-20 -2.86737e-20 0.000225189 -3.89659e-05 0.000285983)
(1.50648e-05 -3.51773e-21 -2.02174e-21 2.48388e-05 -2.13223e-05 1.73279e-05)
(0.000281631 -6.17325e-20 -5.19946e-20 0.000531789 -0.000343417 0.000338632)
(0.00155548 -1.57297e-19 -3.72991e-19 0.00310887 -0.00191057 0.00195187)
(0.00505248 -1.94166e-18 6.94296e-20 0.0100525 -0.00610336 0.00643943)
(0.0128117 -4.28283e-18 -1.36655e-18 0.0245363 -0.0148375 0.0161466)
(0.0280197 -3.96935e-18 -5.17537e-18 0.0510577 -0.0304809 0.0348653)
(0.0562388 -1.87973e-17 2.05239e-18 0.0966952 -0.0575106 0.0697357)
(0.108167 -5.09249e-17 -1.36238e-17 0.17521 -0.10521 0.133419)
(0.199509 -2.83632e-17 -3.28587e-17 0.307187 -0.184111 0.240733)
(0.340308 9.01591e-17 1.46683e-17 0.480303 -0.295036 0.387989)
(0.573913 1.45033e-16 -7.47942e-18 0.598172 -0.456297 0.575017)
(4.23226 7.23245e-17 2.74253e-15 1.53857 -1.55381 7.59738)
(0.870633 -7.54075e-17 -1.73761e-16 0.395216 -0.298495 1.53381)
(0.0945375 -8.82758e-17 -4.35919e-17 0.0871933 -0.0193935 0.129713)
(0.00216042 -1.17016e-18 -4.47956e-19 0.0022885 -0.0004812 0.00254632)
(0.000130933 -5.9033e-20 -3.52782e-20 0.000194197 -8.78043e-05 0.000152196)
(0.000607052 2.12926e-20 1.84134e-20 0.0011491 -0.000753407 0.000759041)
(0.0030999 2.67551e-19 2.21215e-19 0.00608486 -0.00400874 0.00406364)
(0.00975468 5.10673e-19 1.85878e-18 0.0189746 -0.0122789 0.0130884)
(0.0229159 -9.19245e-18 2.93022e-18 0.0428798 -0.0268533 0.0304522)
(0.0457832 -4.16178e-17 -1.68185e-19 0.0816772 -0.0484724 0.0592791)
(0.0865556 3.84921e-17 4.70168e-19 0.148216 -0.0830094 0.108997)
(0.163664 -9.93318e-18 1.26954e-17 0.272159 -0.147233 0.201453)
(0.311318 -5.1718e-16 1.5921e-17 0.501277 -0.275217 0.379028)
(0.556491 2.13221e-16 -1.56042e-16 0.824693 -0.516418 0.683426)
(0.353353 7.48276e-16 2.53213e-16 0.416811 -0.248943 0.347221)
(3.95021 6.76817e-17 2.11163e-15 1.42822 -1.51836 6.81623)
(1.50189 9.05123e-18 -5.71213e-16 0.690819 -0.494622 2.88795)
(0.304599 -1.48539e-16 -2.06358e-16 0.222369 -0.0769485 0.487791)
(0.0473824 -3.21205e-17 -2.30663e-17 0.0396331 -0.0160914 0.0664606)
(0.00777412 -5.85239e-18 -3.13797e-18 0.00771943 -0.00367715 0.00983165)
(0.00183611 -3.06147e-19 -5.1421e-19 0.00256165 -0.00150485 0.00220172)
(0.00291746 -1.73495e-19 6.63577e-19 0.00555037 -0.00392961 0.00376335)
(0.00945102 2.5882e-20 9.60422e-19 0.0184162 -0.0126614 0.0127493)
(0.0230023 -7.31835e-19 -4.26665e-18 0.0434553 -0.0287409 0.0308993)
(0.0457673 -6.49679e-17 1.21847e-17 0.0830007 -0.051364 0.0596205)
(0.0836405 -2.65123e-17 -7.3222e-18 0.146597 -0.0837248 0.104226)
(0.153689 8.37015e-17 -3.59032e-17 0.266056 -0.142186 0.183094)
(0.273423 -2.14659e-16 9.9328e-17 0.461703 -0.243648 0.316528)
(0.438617 -3.02808e-16 1.59217e-16 0.702871 -0.384064 0.492663)
(0.415653 6.72325e-16 -1.98001e-16 0.51375 -0.328518 0.413202)
(3.38367 5.75682e-17 1.60324e-15 1.13496 -1.34095 5.79846)
(2.47443 -3.71193e-17 -8.11531e-16 1.09808 -0.845665 5.16524)
(0.628181 -3.20665e-16 -5.08027e-16 0.387139 -0.1652 1.10352)
(0.131246 -1.2425e-16 -8.75109e-17 0.100656 -0.0424846 0.188812)
(0.028584 -3.94983e-17 -6.69495e-18 0.02778 -0.0120301 0.0355456)
(0.00703951 -6.57607e-18 6.15524e-19 0.00878705 -0.00415936 0.00806523)
(0.00390104 -1.60809e-18 1.43201e-18 0.00677746 -0.00438538 0.0047303)
(0.00901756 1.40403e-18 1.04295e-18 0.0176282 -0.0124219 0.0119217)
(0.0223245 4.17963e-18 4.72847e-18 0.0431306 -0.0288653 0.0295258)
(0.0446983 -6.24098e-17 2.07572e-17 0.0835633 -0.0520796 0.0571087)
(0.0804115 -1.53398e-17 -2.29044e-17 0.146108 -0.0842133 0.0977684)
(0.141489 1.34282e-16 4.86691e-18 0.253475 -0.135755 0.163227)
(0.251775 -3.48453e-16 1.74234e-16 0.436836 -0.230963 0.283276)
(0.454164 -9.58339e-16 2.15165e-16 0.754749 -0.384961 0.494259)
(0.589186 1.13227e-15 -7.71164e-16 0.597426 -0.502645 0.699879)
(2.98346 1.61788e-16 1.48719e-15 1.01853 -1.17618 5.10984)
(3.70145 -2.15451e-16 -1.57965e-15 1.61068 -1.30102 8.01987)
(0.978139 -5.82819e-16 -7.78681e-16 0.558698 -0.270013 1.80383)
(0.219309 -2.09919e-16 -1.5085e-16 0.168737 -0.070194 0.319882)
(0.0536588 -5.97305e-17 -1.49318e-17 0.0568267 -0.0232779 0.0650301)
(0.014506 -1.56913e-17 2.97162e-18 0.0198603 -0.00875606 0.0161982)
(0.00594832 -3.09973e-18 2.69637e-18 0.0103162 -0.00594855 0.00698724)
(0.00933692 -7.28112e-19 3.59827e-18 0.0183623 -0.0129835 0.0120937)
(0.0227221 -6.59795e-18 6.50184e-18 0.0447832 -0.0304302 0.0295306)
(0.0442415 -6.60434e-17 1.67434e-17 0.08417 -0.053951 0.0553771)
(0.0742896 -1.16714e-17 -6.6946e-18 0.13593 -0.0801998 0.0884372)
(0.124767 7.97815e-17 1.03068e-17 0.223586 -0.122328 0.141091)
(0.254617 -2.87878e-16 9.6815e-17 0.43316 -0.237021 0.285415)
(0.59883 8.08361e-16 -1.25665e-16 0.992151 -0.4994 0.631023)
(0.782478 6.93032e-17 -2.89301e-16 0.884462 -0.661259 0.801489)
(2.75312 1.33127e-16 1.65349e-15 1.30914 -0.892397 4.43024)
(4.48318 1.54798e-16 -6.87084e-16 2.06135 -1.4846 9.66931)
(1.15077 -5.41919e-16 -1.03885e-15 0.664114 -0.306846 2.11945)
(0.265486 -2.7753e-16 -2.25381e-16 0.219662 -0.0828428 0.375988)
(0.0712986 -4.83634e-17 -1.88903e-17 0.085411 -0.0338808 0.0824502)
(0.021706 -1.54152e-17 2.57938e-18 0.0332631 -0.0146368 0.0240264)
(0.00845308 -9.49491e-18 4.22905e-18 0.0153357 -0.00834597 0.0100291)
(0.00986322 -1.61729e-18 9.76291e-19 0.0195038 -0.0136454 0.0126167)
(0.0217333 -5.3187e-18 5.0486e-19 0.0427111 -0.0296738 0.0277476)
(0.040632 -3.67734e-17 2.11549e-17 0.0771206 -0.0495851 0.0499611)
(0.0628429 4.52994e-17 -1.70327e-17 0.113896 -0.0683783 0.0735848)
(0.104448 2.41471e-17 2.72673e-18 0.184372 -0.101766 0.116653)
(0.273875 -4.50397e-16 1.2561e-16 0.451197 -0.255194 0.308098)
(0.709573 2.9744e-16 -2.34207e-16 1.15947 -0.572468 0.718379)
(0.853511 1.17572e-16 -6.4426e-17 1.06618 -0.708658 0.704523)
(2.63598 2.69104e-16 1.71534e-15 1.30284 -0.786342 4.26033)
(4.55582 -1.11544e-16 5.33561e-16 2.15026 -1.45645 9.74799)
(1.16945 -3.72729e-16 -1.10222e-15 0.685006 -0.300616 2.13586)
(0.281129 -3.13689e-16 -2.50678e-16 0.251335 -0.0855051 0.384621)
(0.0835704 -6.97339e-17 -1.79987e-17 0.110633 -0.0441111 0.0931692)
(0.0287959 -1.91259e-17 4.31876e-19 0.0475557 -0.0216475 0.032266)
(0.0115248 -1.6212e-17 4.53169e-18 0.0216491 -0.0115655 0.0140409)
(0.0104928 -7.75872e-18 2.3401e-18 0.0208071 -0.0139959 0.0133354)
(0.019457 -2.14372e-18 3.12697e-19 0.0378949 -0.0260406 0.0244349)
(0.0337035 -6.86119e-18 1.74639e-17 0.0632242 -0.0408835 0.0407274)
(0.0487636 2.20403e-17 -7.56318e-19 0.0870916 -0.0524254 0.056227)
(0.0878611 -3.48369e-17 -3.60561e-18 0.153036 -0.0833496 0.0973646)
(0.294937 -3.96019e-16 1.18531e-16 0.472391 -0.273599 0.335316)
(0.791917 -2.04267e-16 8.43666e-17 1.26138 -0.624579 0.817605)
(0.973334 6.07739e-16 -2.87974e-16 1.01584 -0.782817 1.04661)
(2.50586 1.22548e-16 1.37423e-15 1.0926 -0.82053 4.22913)
(3.98901 5.09074e-17 1.03947e-15 1.9506 -1.21778 8.44971)
(1.07513 -3.17578e-16 -1.05448e-15 0.641937 -0.2612 1.94353)
(0.280032 -3.0056e-16 -3.01808e-16 0.26474 -0.0805131 0.373473)
(0.0942091 -1.33749e-16 -1.22846e-17 0.132507 -0.0537115 0.10328)
(0.0374191 -3.35774e-17 5.02482e-18 0.0644894 -0.0306526 0.0427823)
(0.0158771 -9.04831e-18 4.22675e-18 0.0303941 -0.0163164 0.0198514)
(0.0114093 -1.40266e-17 1.49893e-18 0.0226229 -0.0144737 0.0144622)
(0.0166113 -5.12256e-18 4.57425e-18 0.0320216 -0.021406 0.0205393)
(0.0259589 9.36065e-18 8.30248e-18 0.0480496 -0.0305294 0.0308288)
(0.0360867 1.34018e-17 -6.9923e-18 0.0634936 -0.0377452 0.0409813)
(0.0785813 -8.37825e-17 -6.17073e-18 0.135958 -0.0729945 0.0867501)
(0.318551 -1.60911e-16 1.02013e-16 0.501626 -0.295348 0.365244)
(0.849534 6.44863e-17 3.46095e-16 1.33028 -0.661211 0.889289)
(1.03498 6.10561e-16 -4.35552e-16 0.980648 -0.823435 1.21175)
(2.36239 -8.02795e-18 8.24194e-16 0.822418 -0.883934 4.21201)
(3.33124 -3.83777e-16 2.20806e-15 1.67381 -0.965016 7.04197)
(0.931168 -2.66605e-16 -9.98412e-16 0.569363 -0.210338 1.67187)
(0.266861 -2.01418e-16 -2.68286e-16 0.259154 -0.0705122 0.351581)
(0.1021 -1.61067e-16 2.12394e-18 0.147142 -0.0603772 0.111567)
(0.0467796 -6.52227e-17 4.82433e-18 0.0818441 -0.0398633 0.0543243)
(0.0217325 -3.24131e-18 -2.13726e-18 0.0419284 -0.0226041 0.0275347)
(0.0130177 -1.71179e-17 1.05901e-18 0.0258648 -0.0156734 0.0165071)
(0.0141534 -8.5029e-18 3.03137e-18 0.0271197 -0.017155 0.0172731)
(0.0194476 1.13328e-17 2.65476e-18 0.0356024 -0.0219925 0.0227178)
(0.0279735 -7.08876e-18 3.56532e-18 0.0489871 -0.0281305 0.0314079)
(0.0789427 -6.56883e-17 6.46643e-18 0.137881 -0.0712954 0.0870826)
(0.346903 -5.83246e-16 1.63799e-16 0.541078 -0.322623 0.399822)
(0.894838 -1.11754e-15 3.03539e-16 1.38248 -0.690791 0.941787)
(1.08264 2.01181e-15 -5.07062e-16 0.984324 -0.870142 1.3009)
(2.22393 7.32639e-19 6.25634e-16 0.635264 -0.896446 4.10744)
(2.75724 -3.7919e-16 1.9557e-15 1.41963 -0.745593 5.85051)
(0.793265 -2.47894e-16 -7.99059e-16 0.490006 -0.16902 1.43541)
(0.243695 -1.22079e-16 -2.2519e-16 0.237494 -0.0582151 0.320458)
(0.106114 -2.41163e-16 2.26793e-17 0.154264 -0.0641547 0.115955)
(0.0562596 -6.93852e-17 1.51062e-17 0.0994661 -0.0495234 0.0658229)
(0.0286495 2.86228e-17 -7.52393e-18 0.0554691 -0.0300632 0.0364614)
(0.0152304 -3.00071e-17 7.09962e-18 0.0302438 -0.0175302 0.0193265)
(0.0121542 -1.38361e-17 6.27013e-18 0.023069 -0.0139704 0.0146629)
(0.0152041 2.1797e-17 2.55192e-19 0.02772 -0.0161102 0.0175259)
(0.0232521 -3.71682e-17 9.92892e-18 0.0405469 -0.0224413 0.0259215)
(0.0849086 -9.92731e-17 3.80297e-17 0.14861 -0.0763161 0.0938214)
(0.378948 -4.26748e-16 2.62836e-16 0.583136 -0.35272 0.439197)
(0.931613 -2.52321e-15 3.19719e-16 1.41366 -0.711132 0.987066)
(1.08914 2.71014e-15 -1.0875e-15 0.956778 -0.869613 1.3422)
(2.0952 -2.1529e-17 5.96564e-16 0.60111 -0.85342 3.85248)
(2.30286 -9.23976e-17 1.42235e-15 1.22265 -0.575093 4.90862)
(0.637082 -2.01907e-16 -5.84547e-16 0.404481 -0.125633 1.15756)
(0.216351 -6.70003e-17 -2.17509e-16 0.205497 -0.0470957 0.290265)
(0.107848 -2.50186e-16 2.86131e-17 0.154251 -0.0655877 0.119159)
(0.0648173 -1.02177e-16 3.56853e-17 0.113514 -0.0571451 0.0754513)
(0.0369239 7.65047e-17 -1.92979e-17 0.0711871 -0.0392899 0.0462604)
(0.0189305 -3.55348e-17 1.48752e-17 0.03758 -0.0214391 0.0238138)
(0.0115975 -2.63347e-17 8.05973e-18 0.0220581 -0.0126574 0.0138935)
(0.0125325 2.22164e-17 -2.88102e-18 0.0228969 -0.0127653 0.014289)
(0.0219428 -4.30387e-17 1.66208e-17 0.0387146 -0.0203596 0.0244506)
(0.0976716 -1.49318e-16 6.38513e-17 0.17413 -0.0888723 0.108189)
(0.414243 -3.16507e-16 2.32326e-16 0.636128 -0.390037 0.483326)
(0.938793 -1.89064e-15 3.75497e-16 1.40883 -0.723393 0.994281)
(1.07144 2.28174e-15 -1.36468e-15 0.933215 -0.856286 1.32809)
(1.86763 -1.78061e-17 3.29194e-16 0.590003 -0.701273 3.33881)
(1.92945 -1.77128e-16 1.6331e-15 1.04492 -0.392526 4.163)
(0.475861 -1.11844e-16 -5.15743e-16 0.302113 -0.080512 0.872081)
(0.158802 -5.23796e-17 -1.34325e-16 0.153392 -0.0322249 0.205643)
(0.0937374 -2.14007e-16 3.39301e-17 0.137748 -0.0583235 0.101315)
(0.062841 -7.35385e-17 3.16212e-17 0.111213 -0.0561774 0.0730002)
(0.0379479 5.73971e-17 -1.48812e-17 0.0729185 -0.0390902 0.0473971)
(0.0197179 -3.66921e-17 1.3405e-17 0.0388841 -0.0209061 0.024741)
(0.0128931 -2.2323e-17 8.95445e-18 0.0244103 -0.013075 0.0155609)
(0.0198641 -1.03269e-17 1.09214e-17 0.0366317 -0.0197943 0.0235082)
(0.0548365 -1.32815e-16 6.30553e-17 0.0978797 -0.0548382 0.0649805)
(0.189632 -2.57208e-16 1.37135e-16 0.325736 -0.180232 0.221226)
(0.515428 -4.93745e-16 2.8083e-16 0.759554 -0.470919 0.608361)
(1.02398 -1.33126e-15 1.95498e-16 1.48728 -0.771499 1.10366)
(1.16692 2.05151e-15 -1.59835e-15 1.03358 -0.953829 1.41705)
(2.40152 -7.44957e-18 5.39211e-16 0.9756 -0.9208 4.18466)
(1.70712 -9.98543e-17 1.38792e-15 0.989558 -0.486657 3.63966)
(0.466313 -1.45839e-16 -3.66747e-16 0.3077 -0.129492 0.887513)
(0.249 -8.40832e-17 -1.33582e-16 0.209868 -0.0821978 0.3832)
(0.15205 -2.22635e-16 4.02325e-17 0.187918 -0.0949148 0.196464)
(0.100129 -8.88638e-17 6.22456e-17 0.173028 -0.0986236 0.117913)
(0.0651404 3.52407e-17 -1.38885e-17 0.130219 -0.0781784 0.0766762)
(0.034773 -4.48063e-17 1.62443e-17 0.0731566 -0.0425876 0.041005)
(0.0181575 -2.68874e-17 1.23282e-17 0.0370068 -0.0179471 0.0209642)
(0.0241374 -3.16294e-17 1.58303e-17 0.0472125 -0.0227995 0.027663)
(0.0613915 -1.11602e-16 5.76608e-17 0.113559 -0.0565744 0.0693593)
(0.172466 -1.57963e-16 1.10699e-16 0.301995 -0.154985 0.189532)
(0.409734 -1.7151e-16 1.81697e-16 0.619666 -0.372282 0.461551)
(0.662002 2.9237e-16 -6.66932e-17 0.933408 -0.520464 0.687691)
(0.698077 1.39913e-15 -5.23402e-16 0.569883 -0.498288 0.805418)
(0.165421 -7.56556e-19 1.05556e-16 0.212741 0.00327132 0.190552)
(0.129934 -4.64027e-18 1.05617e-16 0.15745 0.00998558 0.15234)
(0.124886 -6.42325e-18 1.0642e-16 0.141587 0.00979912 0.162033)
(0.117135 -6.44488e-18 1.14603e-16 0.126441 0.00654386 0.161584)
(0.107671 -5.44275e-18 1.10486e-16 0.11186 0.00162683 0.152113)
(0.0818871 -5.11484e-18 1.02513e-16 0.0829428 -0.00795665 0.111369)
(0.0898324 -7.03329e-18 1.05335e-16 0.0848812 -0.0110068 0.123172)
(0.0936338 -1.14098e-17 1.16843e-16 0.08543 -0.0136402 0.128814)
(0.0948737 -1.45511e-17 1.14899e-16 0.084817 -0.0131047 0.130393)
(0.0866846 -1.59408e-17 1.09011e-16 0.0764132 -0.0156306 0.118227)
(0.0970195 -1.70611e-17 1.04723e-16 0.0831994 -0.016604 0.128179)
(0.102998 -1.81492e-17 1.03213e-16 0.0875327 -0.0181478 0.132992)
(0.105422 -1.92385e-17 1.11467e-16 0.0903546 -0.0232651 0.128544)
(0.118858 -1.94492e-17 1.06058e-16 0.100179 -0.0238323 0.142978)
(0.127468 -2.08968e-17 1.0649e-16 0.106811 -0.0266572 0.151595)
(0.133034 -2.1319e-17 1.0184e-16 0.111579 -0.0265081 0.155212)
(0.130831 -2.33564e-17 1.08733e-16 0.109466 -0.028824 0.144914)
(0.143795 -2.12596e-17 9.85312e-17 0.118003 -0.026028 0.163263)
(0.152318 -2.00101e-17 9.17214e-17 0.12635 -0.024094 0.167998)
(0.156764 -1.98194e-17 9.81438e-17 0.133597 -0.0279168 0.160896)
(0.175377 -1.72965e-17 8.72848e-17 0.151336 -0.0275844 0.172843)
(0.187228 -1.67329e-17 8.1669e-17 0.163233 -0.0299297 0.178598)
(0.195855 -1.50303e-17 7.44561e-17 0.172249 -0.0313021 0.181897)
(0.19868 -1.49171e-17 8.03366e-17 0.174647 -0.0384508 0.178737)
(0.216379 -1.15406e-17 6.925e-17 0.194155 -0.0377282 0.183124)
(0.226813 -8.10586e-18 6.33114e-17 0.206915 -0.0413079 0.183217)
(0.233465 -6.10333e-18 5.75235e-17 0.215146 -0.0418565 0.181688)
(0.232868 -4.9462e-18 6.30277e-17 0.216212 -0.0519867 0.170526)
(0.245897 -4.53158e-18 5.424e-17 0.230661 -0.0447509 0.173952)
(0.251938 -4.86092e-18 4.9827e-17 0.238245 -0.0440529 0.174093)
(0.25083 -5.79934e-18 5.45586e-17 0.238979 -0.0541761 0.166266)
(0.263783 -4.34411e-18 4.86634e-17 0.253335 -0.0467559 0.169923)
(0.269574 -2.51127e-18 4.73924e-17 0.26034 -0.0478547 0.170407)
(0.272523 -1.56457e-18 4.49854e-17 0.264117 -0.0453557 0.169143)
(0.266783 1.78799e-19 5.08177e-17 0.258881 -0.0539752 0.159176)
(0.27617 2.71977e-18 4.65759e-17 0.269068 -0.0408207 0.163761)
(0.278645 5.52016e-18 4.6165e-17 0.27226 -0.039264 0.164256)
(0.271833 1.18811e-17 5.61253e-17 0.265621 -0.0473684 0.157406)
(0.28198 1.28346e-17 5.32646e-17 0.277371 -0.0381627 0.162535)
(0.284346 1.39205e-17 5.62692e-17 0.280396 -0.0381671 0.163383)
(0.284757 1.49305e-17 5.59398e-17 0.281459 -0.0373423 0.162317)
(0.275293 1.91328e-17 7.0256e-17 0.271768 -0.0469665 0.154075)
(0.286017 1.45415e-17 6.09171e-17 0.285071 -0.0392109 0.159966)
(0.288003 1.08446e-17 5.94359e-17 0.288036 -0.0402015 0.160917)
(0.287942 7.81984e-18 5.46896e-17 0.28872 -0.0398477 0.160211)
(0.276777 3.89503e-18 6.64661e-17 0.276454 -0.0516197 0.154152)
(0.287586 1.23129e-18 5.00072e-17 0.289875 -0.043884 0.1615)
(0.28948 -1.15409e-18 4.24407e-17 0.294107 -0.0426137 0.159795)
(0.28098 -9.25664e-18 4.92424e-17 0.28782 -0.0495573 0.152574)
(0.293302 -5.54132e-18 3.31055e-17 0.305198 -0.0377146 0.155358)
(0.295283 -4.96537e-18 2.56377e-17 0.31007 -0.0355272 0.154259)
(0.292429 -4.09398e-18 1.87569e-17 0.307056 -0.0298324 0.155731)
(0.273402 -1.18049e-17 1.86754e-17 0.28625 -0.0285686 0.153959)
(0.29022 -1.46322e-17 8.11882e-18 0.304998 -0.0246279 0.159852)
(0.293761 -2.53642e-17 1.91294e-18 0.310002 -0.0251306 0.161806)
(0.292769 -2.76299e-17 -1.90024e-18 0.310444 -0.0237031 0.162)
(0.279199 -2.83816e-17 -5.04162e-18 0.301817 -0.0304079 0.160959)
(0.291073 -1.32806e-17 -8.4846e-18 0.312884 -0.0229235 0.159029)
(0.293559 -4.05524e-18 -1.04949e-17 0.316563 -0.0222507 0.157829)
(0.287631 -3.02039e-18 -1.50487e-17 0.317638 -0.0349233 0.154467)
(0.293745 8.22459e-18 -1.13751e-17 0.318507 -0.0239016 0.153723)
(0.293951 2.04305e-17 -1.02322e-17 0.317994 -0.0241473 0.153278)
(0.290474 3.20376e-17 -7.42014e-18 0.314271 -0.0236824 0.149958)
(0.2752 9.02248e-17 -4.43411e-18 0.302363 -0.0393445 0.141893)
(0.267658 1.31829e-16 -1.66168e-17 0.291626 -0.0267705 0.134154)
(0.259528 1.7657e-16 -2.0042e-17 0.284158 -0.0280948 0.12929)
(0.234391 2.53346e-16 -1.77024e-17 0.262541 -0.0469598 0.118671)
(0.213905 1.71443e-16 -1.80207e-17 0.24096 -0.032678 0.105127)
(0.200039 1.33975e-16 -1.79903e-17 0.228748 -0.0346737 0.0984005)
(0.182638 1.04502e-16 -1.97512e-17 0.212847 -0.0359759 0.09114)
(0.147257 1.10045e-16 -3.39673e-17 0.180886 -0.0610573 0.0808499)
(0.124898 7.25573e-17 -2.44552e-17 0.158889 -0.0497553 0.0739485)
(0.113991 6.33544e-17 -2.77011e-17 0.148293 -0.0578899 0.0744892)
(0.106079 5.86767e-17 -2.75341e-17 0.141227 -0.0686236 0.0795334)
(0.101229 7.36901e-17 -3.8564e-17 0.138479 -0.109671 0.0938319)
(0.102005 5.85526e-17 -2.01329e-17 0.139652 -0.101689 0.104675)
(0.107503 6.46185e-17 -2.7728e-17 0.146073 -0.118401 0.117436)
(0.121636 8.90047e-17 -4.09698e-17 0.161936 -0.157327 0.139513)
(0.130662 7.66166e-17 -3.03645e-17 0.170201 -0.144041 0.155434)
(0.141106 8.09496e-17 -3.49185e-17 0.181386 -0.161339 0.171439)
(0.157347 6.4855e-17 -2.80356e-17 0.199117 -0.171075 0.19364)
(0.161807 4.68233e-17 -1.36837e-17 0.207763 -0.17126 0.198007)
(0.159346 2.7173e-17 -3.80674e-18 0.20993 -0.169596 0.195877)
(0.14761 -2.96625e-17 1.62981e-17 0.202504 -0.159356 0.182286)
(0.163653 -4.50573e-17 1.85982e-17 0.228238 -0.171434 0.200736)
(0.15444 -9.44387e-17 4.1694e-17 0.224394 -0.164827 0.190659)
(0.146283 -1.19407e-16 5.52559e-17 0.215591 -0.156873 0.179583)
(0.13992 -1.2395e-16 5.86239e-17 0.208709 -0.150794 0.172396)
(0.132491 -1.22375e-16 5.90934e-17 0.199775 -0.143824 0.164615)
(0.1237 -1.20476e-16 5.95806e-17 0.188905 -0.13548 0.155497)
(0.112527 -1.1736e-16 5.81657e-17 0.174251 -0.124468 0.14319)
(0.0989303 -1.09785e-16 5.27548e-17 0.154669 -0.110235 0.126915)
(0.0848362 -9.21111e-17 4.12484e-17 0.133239 -0.0938079 0.109033)
(0.08623 -9.41973e-17 3.78329e-17 0.137269 -0.0905084 0.111685)
(0.0782026 -8.66514e-17 3.51262e-17 0.124787 -0.0822668 0.103308)
(0.0701929 -7.8409e-17 3.14861e-17 0.112661 -0.0735685 0.0936039)
(0.0609387 -7.00349e-17 2.72001e-17 0.0990955 -0.0636038 0.0815724)
(0.0574946 -6.55352e-17 2.52232e-17 0.0929979 -0.0592011 0.076639)
(0.0551557 -6.16066e-17 2.42217e-17 0.0888803 -0.0563575 0.0741161)
(0.0517547 -5.71611e-17 2.29053e-17 0.0826726 -0.0526708 0.0703187)
(0.0469103 -5.20292e-17 2.11294e-17 0.073441 -0.0480343 0.0650757)
(0.0398109 -4.43131e-17 1.68666e-17 0.0604073 -0.0414754 0.0572162)
(0.0392999 -3.81845e-17 1.44188e-17 0.0594666 -0.0392451 0.0571428)
(0.0390924 -3.64727e-17 1.44174e-17 0.058354 -0.0390445 0.0574457)
(0.0387218 -3.46962e-17 1.38627e-17 0.0570892 -0.0385929 0.0571531)
(0.038337 -3.2804e-17 1.32442e-17 0.0558621 -0.0381822 0.0568858)
(0.0376726 -3.02372e-17 1.20593e-17 0.0541502 -0.037474 0.056118)
(0.0372929 -2.76999e-17 1.05702e-17 0.052972 -0.0368969 0.0554933)
(0.0384163 -2.79142e-17 1.03665e-17 0.0545148 -0.0375474 0.0568293)
(0.0399892 -2.90726e-17 1.08487e-17 0.0567757 -0.038535 0.0589744)
(0.0413679 -3.00114e-17 1.11936e-17 0.0581488 -0.0392707 0.0609505)
(0.043154 -3.14301e-17 1.14663e-17 0.0599718 -0.0400251 0.063411)
(0.0453262 -3.5069e-17 1.06576e-17 0.0625198 -0.0414789 0.0676996)
(0.0472991 -3.60473e-17 1.11702e-17 0.065018 -0.0428387 0.0706614)
(0.049432 -3.67962e-17 1.13068e-17 0.0678457 -0.0439605 0.0734723)
(0.0518626 -3.76641e-17 1.1567e-17 0.0709868 -0.0451311 0.0767115)
(0.0546756 -3.84702e-17 1.16407e-17 0.0747596 -0.0462237 0.0803425)
(0.0579083 -3.83815e-17 1.0796e-17 0.0793991 -0.0469904 0.0841987)
(0.0611957 -3.83735e-17 9.67106e-18 0.0837267 -0.0468802 0.088105)
(0.0646179 -3.98239e-17 9.51969e-18 0.0871501 -0.0464297 0.0926989)
(0.0690306 -4.17649e-17 9.51977e-18 0.0911698 -0.0460796 0.098841)
(0.0752368 -4.73013e-17 9.60862e-18 0.0978383 -0.0492883 0.110233)
(0.0789206 -4.9538e-17 9.83034e-18 0.101417 -0.0497176 0.115465)
(0.082422 -5.17281e-17 1.01938e-17 0.104212 -0.0486753 0.119869)
(0.0856503 -5.44245e-17 1.11014e-17 0.105513 -0.0467855 0.124541)
(0.0896501 -5.75365e-17 1.22192e-17 0.107453 -0.0449263 0.130663)
(0.0944933 -6.10911e-17 1.35681e-17 0.110245 -0.0427852 0.138083)
(0.100501 -6.55156e-17 1.51445e-17 0.114351 -0.0403811 0.147307)
(0.106725 -7.2574e-17 1.69562e-17 0.116481 -0.0367077 0.157347)
(0.112415 -6.93029e-17 1.56291e-17 0.115847 -0.0316175 0.168439)
(0.127129 -7.7632e-17 2.67126e-17 0.126039 -0.0374299 0.196702)
(0.13372 -7.50369e-17 2.71134e-17 0.127545 -0.035551 0.209765)
(0.142299 -7.17371e-17 2.69415e-17 0.130548 -0.033407 0.2263)
(0.152036 -6.66981e-17 2.60906e-17 0.132616 -0.0303881 0.245758)
(0.162221 -5.94127e-17 2.68746e-17 0.135249 -0.0269339 0.267181)
(0.174222 -5.22218e-17 2.94689e-17 0.140198 -0.0240658 0.292903)
(0.189166 -4.41939e-17 3.23692e-17 0.147363 -0.0212845 0.32497)
(0.207776 -3.43784e-17 3.53501e-17 0.156772 -0.0184352 0.36512)
(0.232843 -2.13525e-17 3.89466e-17 0.170736 -0.0169771 0.419064)
(0.283881 -1.98375e-17 6.03915e-17 0.197758 -0.0234694 0.52087)
(0.305184 -1.64798e-17 7.39015e-17 0.208966 -0.0228094 0.567921)
(0.332609 -1.25967e-17 8.81366e-17 0.224398 -0.0249174 0.628027)
(0.363574 -7.98341e-18 1.04053e-16 0.238641 -0.0271533 0.697657)
(0.400342 -2.16138e-18 1.21882e-16 0.255998 -0.0308653 0.780218)
(0.443548 7.88444e-18 1.41539e-16 0.276294 -0.0368847 0.877197)
(0.478246 1.60794e-17 1.75511e-16 0.2933 -0.0404004 0.95401)
(0.518514 2.07775e-17 2.17934e-16 0.316037 -0.0438498 1.04113)
(0.569245 2.77753e-17 2.69777e-16 0.354374 -0.0496738 1.14483)
(0.632989 3.86762e-17 3.44721e-16 0.40548 -0.0647021 1.27024)
(0.801524 1.05269e-16 5.1373e-16 0.454488 -0.097814 1.60482)
(0.826468 1.19537e-16 5.12428e-16 0.473285 -0.085588 1.65327)
(0.836998 1.20861e-16 4.65799e-16 0.490264 -0.0827689 1.66798)
(0.83001 1.11159e-16 4.03806e-16 0.477294 -0.0703104 1.64904)
(0.805647 9.4267e-17 3.24493e-16 0.441422 -0.0640421 1.58849)
(0.753186 5.32242e-17 2.22594e-16 0.37138 -0.0760606 1.45647)
(0.679553 -3.02284e-18 1.34443e-16 0.317944 -0.0997846 1.27598)
(0.616954 -2.37583e-17 1.05406e-16 0.30809 -0.104989 1.14942)
(0.486369 -8.35776e-18 6.36318e-17 0.279698 -0.0620545 0.922222)
(0.413634 -1.98717e-17 1.02598e-16 0.15284 -0.0681053 0.699501)
(0.277802 -1.32142e-17 6.87704e-17 0.100918 -0.0335284 0.45561)
(0.0679138 2.45134e-18 1.54749e-17 0.0416843 0.0134356 0.0832615)
(0.0476988 3.9439e-18 1.27161e-17 0.036556 0.0106576 0.0462401)
(0.0417143 3.64762e-18 1.17505e-17 0.036614 0.0144962 0.0284462)
(0.0456639 3.17622e-18 1.17605e-17 0.0422114 0.0148362 0.0268159)
(0.0450796 3.2435e-18 1.2641e-17 0.0416601 0.0168588 0.026257)
(0.047272 2.22395e-18 1.19345e-17 0.0431426 0.0154132 0.0269303)
(0.0466293 1.44774e-18 1.23039e-17 0.042372 0.01675 0.0281858)
(0.0480528 3.99705e-19 1.18057e-17 0.0424461 0.015804 0.0303925)
(0.0503034 -4.66136e-19 1.0949e-17 0.0465977 0.0153035 0.0258547)
(0.0495634 -6.09789e-19 1.08648e-17 0.04699 0.0169632 0.0243279)
(0.049902 -7.59398e-19 9.44172e-18 0.0469981 0.0162564 0.0242406)
(0.0499703 -6.80677e-19 7.80103e-18 0.0466024 0.0155456 0.0238933)
(0.0476211 -6.30196e-19 6.81709e-18 0.0437509 0.0175924 0.0230162)
(0.0479973 -2.31291e-19 4.98268e-18 0.0442091 0.0149531 0.0233759)
(0.0462589 1.12463e-19 4.58333e-18 0.0432104 0.0158325 0.022902)
(0.0455369 4.86154e-19 4.2868e-18 0.0419753 0.015019 0.0231554)
(0.0446366 1.3604e-18 4.6487e-18 0.040559 0.0136948 0.0229371)
(0.041618 2.05865e-18 5.17592e-18 0.03716 0.0151064 0.022111)
(0.0415811 1.37018e-18 6.29223e-18 0.037376 0.0124819 0.0218443)
(0.0391604 1.8658e-18 6.89329e-18 0.0355996 0.0128669 0.0206427)
(0.03835 2.45611e-18 7.40794e-18 0.0341495 0.0122296 0.0206422)
(0.0387879 3.08085e-18 7.53337e-18 0.0351415 0.0117348 0.0206283)
(0.0365615 3.56909e-18 7.72163e-18 0.0339403 0.0125126 0.0195867)
(0.035923 3.91234e-18 7.25283e-18 0.0330717 0.0120468 0.0195529)
(0.0355909 2.20561e-18 6.62389e-18 0.032227 0.0109839 0.0195437)
(0.032338 2.65038e-19 6.40512e-18 0.0287142 0.0120509 0.0183122)
(0.0328918 -7.95869e-20 5.73142e-18 0.0295913 0.0102851 0.0185263)
(0.0304277 -1.65512e-19 5.49557e-18 0.0280467 0.0106368 0.0174757)
(0.0298871 -3.45435e-19 5.35603e-18 0.0272886 0.0102733 0.0175132)
(0.0297066 -1.66777e-19 5.72895e-18 0.026509 0.00909704 0.0179053)
(0.0262427 -4.92369e-20 6.06275e-18 0.022812 0.00975856 0.0166906)
(0.0267544 -9.94149e-20 6.14822e-18 0.0234095 0.00777165 0.0169373)
(0.0240273 -6.33573e-20 6.35351e-18 0.0217734 0.00751347 0.0155842)
(0.0237174 1.28004e-19 6.71597e-18 0.0207433 0.00703462 0.0160697)
(0.0248818 1.22611e-19 7.03722e-18 0.020859 0.00693822 0.0182043)
(0.0217895 1.6287e-20 7.21421e-18 0.0177543 0.00718622 0.0186371)
(0.0229062 2.91761e-21 7.43777e-18 0.0207043 0.00709331 0.0158673)
(0.0247492 -4.47494e-20 7.41533e-18 0.0221198 0.0057055 0.0159979)
(0.0211941 -3.38227e-20 7.35843e-18 0.0186708 0.00603003 0.0140286)
(0.0231123 -1.87055e-19 6.58275e-18 0.0196789 0.00523929 0.0151904)
(0.0203133 -5.42636e-19 5.98769e-18 0.0181392 0.00582109 0.0139663)
(0.0216625 -5.20319e-19 5.54343e-18 0.0205037 0.0055904 0.0151354)
(0.0246918 -1.0768e-19 5.58164e-18 0.0231359 0.00488364 0.0164624)
(0.0229403 2.73815e-19 5.83844e-18 0.0214443 0.00542683 0.015314)
(0.0238779 -9.47105e-20 5.47632e-18 0.0207191 0.00488281 0.0164492)
(0.0208754 -1.57363e-19 5.03442e-18 0.0179119 0.00583967 0.0156631)
(0.0205284 1.17272e-19 4.82042e-18 0.0182059 0.00645411 0.0150381)
(0.0220234 2.18377e-19 4.98814e-18 0.0181807 0.00429239 0.0163794)
(0.0199328 1.66038e-19 4.16216e-18 0.0159125 0.00458456 0.0160486)
(0.0198571 1.49065e-19 4.45996e-18 0.0155206 0.00396533 0.0164798)
(0.0229731 -2.31688e-20 4.79376e-18 0.0181764 0.00304723 0.0194187)
(0.0236087 -4.91129e-19 5.00848e-18 0.0195969 0.00345887 0.0188902)
(0.0256245 -1.20106e-18 3.857e-18 0.0200521 0.00255394 0.0204173)
(0.0245736 -1.14851e-18 3.85122e-18 0.0186296 0.00290422 0.0201162)
(0.0243449 -1.77219e-18 4.95114e-18 0.0173576 0.00238559 0.0214733)
(0.0266822 -2.07206e-18 6.10613e-18 0.0185037 0.00167182 0.0237525)
(0.0275024 -2.79637e-18 5.5054e-18 0.0204972 0.00224119 0.0232908)
(0.0294594 -2.54581e-18 5.42941e-18 0.0210065 0.000926016 0.0249397)