/*--------------------------------*- C++ -*----------------------------------*\
| =========                 |                                                 |
| \\      /  F ield         | OpenFOAM: The Open Source CFD Toolbox           |
|  \\    /   O peration     | Version:  4.1                                   |
|   \\  /    A nd           | Web:      www.OpenFOAM.org                      |
|    \\/     M anipulation  |                                                 |
\*---------------------------------------------------------------------------*/
FoamFile
{
    version     2.0;
    format      ascii;
    class       volScalarField;
    location    "3";
    object      k;
}
// * * * * * * * * * * * * * * * * * * * * * * * * * * * * * * * * * * * * * //

dimensions      [0 2 -2 0 0 0 0];

internalField   nonuniform List<scalar> 
6785
(
0.672003
0.000508646
0.000482565
0.000482537
0.000482593
0.000482486
0.000482548
0.000482601
0.000482503
0.000482585
0.000482617
0.000482455
0.000483417
0.00125492
0.704262
0.801349
0.00300226
1.19769e-06
1.00657e-06
9.57328e-07
9.08179e-07
8.60905e-07
8.13644e-07
7.64687e-07
7.15437e-07
6.68221e-07
6.20347e-07
4.40346e-06
0.00375226
0.213833
0.931643
0.00790411
2.24067e-08
1.3843e-08
1.08892e-06
1.23252e-05
3.15125e-05
5.25577e-05
8.64706e-05
0.000202893
0.000750611
0.00318761
0.0141218
0.0626279
0.0517431
1.08117
0.0215564
3.4318e-06
4.90985e-08
3.20006e-06
3.21267e-05
0.00014194
0.000303193
0.000556707
0.000869095
0.00140503
0.00299294
0.00943167
0.0263762
0.0313664
1.22161
0.0353986
7.72666e-05
1.03463e-06
1.83413e-05
0.000140606
0.000828369
0.00266303
0.00704063
0.0107995
0.00844981
0.00720213
0.0100238
0.0196355
0.0438487
1.35535
0.0370805
0.000106816
4.65559e-05
0.000338464
0.00150649
0.00544022
0.0140381
0.027856
0.0350909
0.0232691
0.0276254
0.0329162
0.0260307
0.0746442
1.49894
0.050789
0.000646882
0.000134449
0.000660488
0.00251266
0.00768444
0.0177469
0.0334925
0.0501273
0.0519615
0.0545777
0.0669572
0.0668053
0.0915451
1.59848
0.140094
0.0043897
0.000321691
0.000663074
0.00199042
0.00548702
0.0119704
0.0202115
0.0332359
0.0459631
0.0584811
0.0707029
0.0720012
0.0723636
1.63112
0.269274
0.0289777
0.00360499
0.00124442
0.00160362
0.00375249
0.00802489
0.0118401
0.0176569
0.0227777
0.0275424
0.0469286
0.0646879
0.0347933
1.59877
0.402605
0.0661823
0.0128523
0.00375253
0.00205328
0.00307366
0.00632556
0.00873342
0.0117148
0.0143536
0.0167195
0.0315129
0.054228
0.0294922
1.52696
0.542036
0.106052
0.0262458
0.0084206
0.00346695
0.00315506
0.00572177
0.0078235
0.00970679
0.0115305
0.014004
0.0292928
0.0516079
0.0326835
1.44012
0.724467
0.150134
0.0438286
0.0151809
0.00555699
0.00361884
0.00546553
0.0079635
0.00949125
0.0108087
0.0133511
0.0274938
0.0477771
0.0299318
1.35823
0.989335
0.231543
0.0805527
0.0324119
0.0130652
0.00702132
0.00635915
0.00813452
0.00978374
0.011197
0.013666
0.0249599
0.0404851
0.0286596
1.24108
1.31465
0.329698
0.126009
0.04939
0.0138221
0.00540569
0.00374336
0.00623883
0.00875585
0.0127669
0.0238285
0.0273906
0.0388688
0.0368099
1.23605
2.9466
1.15916
0.626174
0.40756
0.274767
0.188845
0.130689
0.0937834
0.113421
0.208081
0.361879
0.305455
0.253223
0.16563
0.469943
0.457787
0.434793
0.426286
0.420836
0.42708
0.404356
0.397389
0.394089
0.408285
0.386675
0.381195
0.392543
0.367283
0.358247
0.352166
0.361593
0.338174
0.330142
0.334914
0.310927
0.301773
0.294354
0.298822
0.277385
0.269745
0.263915
0.271609
0.252297
0.2466
0.255813
0.235279
0.22933
0.225147
0.239102
0.219077
0.215153
0.233226
0.210975
0.207721
0.206575
0.2347
0.214961
0.21702
0.222187
0.268707
0.260508
0.274781
0.349131
0.323994
0.332035
0.345989
0.43057
0.382117
0.376789
0.376025
0.431361
0.385157
0.382808
0.426755
0.368708
0.357651
0.351362
0.377897
0.324139
0.313041
0.320437
0.294233
0.293618
0.295932
0.310811
0.301208
0.304802
0.309371
0.319735
0.311625
0.315491
0.323189
0.314719
0.318289
0.320399
0.32064
0.324825
0.355158
0.316095
0.319627
0.32262
0.325382
0.327532
0.330245
0.333813
0.339095
0.443239
0.411749
0.416391
0.422736
0.43147
0.437357
0.440855
0.443001
0.444794
0.534585
0.531617
0.553078
0.570575
0.58645
0.601896
0.618145
0.636481
0.65667
0.678521
0.765966
0.747026
0.776721
0.804267
0.83473
0.868952
0.907431
0.950729
1.00011
1.08368
1.10321
1.15652
1.21182
1.27364
1.34191
1.4165
1.49958
1.58941
1.71446
1.74475
1.83258
1.93178
2.03657
2.14842
2.26922
2.39797
2.53378
2.7366
2.67288
2.79759
2.9439
3.09288
3.25062
3.41535
3.56407
3.70573
3.84464
4.10774
3.6988
3.75453
3.81706
3.86687
3.90762
3.91595
3.92435
3.99519
4.46526
3.97799
4.06211
4.35788
4.7911
4.95639
5.00103
5.38687
5.42547
5.86732
6.00347
5.99514
6.53265
6.65711
6.5331
7.14448
7.05855
7.78621
7.9264
7.62494
8.38279
8.17199
9.11137
9.31201
8.86035
9.85005
9.9838
9.30536
10.1223
9.62141
10.6478
10.8538
10.1285
10.8512
10.2838
11.2073
11.4493
10.7906
11.5189
11.6996
10.9667
11.4934
10.8695
11.523
11.7357
11.0682
11.5229
10.9367
11.48
11.6613
11.0597
11.3972
11.533
10.9612
11.1998
10.6616
10.863
10.9281
10.4243
10.5466
10.0624
10.1149
10.0885
9.63416
9.60247
9.53273
9.12361
9.11193
8.71848
8.64209
8.55515
8.20523
8.17284
7.8367
7.74653
7.66174
7.35639
7.26095
7.1821
6.91634
6.88902
6.63763
6.59089
0.114354
0.120474
0.127834
0.137051
0.146528
0.155825
0.164815
0.173404
0.181557
0.189131
0.195693
0.200965
0.205136
0.208201
0.210315
0.211715
0.212845
0.213673
0.215254
0.218867
0.22527
0.235928
0.25246
0.276318
0.308246
0.34874
0.393857
0.428657
0.418766
0.314665
0.16676
0.0889583
0.0282654
0.00598578
0.00113157
0.000415787
0.00199999
0.00366283
0.00316645
0.00558075
0.00629986
0.00526688
0.00471346
0.00498205
0.00572085
0.0066517
0.00802957
0.0103335
0.0204612
0.0837601
0.393666
1.6758
5.19084
10.6308
20.5881
29.848
39.4319
45.206
48.1591
48.873
47.8059
45.7231
43.24
40.7354
38.3494
36.0805
34.0301
32.3219
30.6813
28.753
26.5677
24.4063
22.4879
20.7786
19.1975
17.4644
15.3699
13.1833
11.1336
0.115762
0.122206
0.130062
0.139871
0.149891
0.159661
0.169052
0.177968
0.186395
0.194239
0.20105
0.206506
0.210803
0.213897
0.215956
0.217274
0.218361
0.219017
0.22038
0.223823
0.230023
0.240499
0.256982
0.281062
0.313499
0.355109
0.402484
0.441532
0.438884
0.346046
0.20322
0.0839125
0.0280096
0.00635732
0.00127143
0.000436963
0.00190463
0.00358775
0.00311352
0.00552013
0.0064093
0.00533877
0.00474562
0.00499005
0.00572935
0.0067083
0.00829488
0.0116391
0.0337455
0.131031
0.498185
1.83369
5.32903
10.7886
20.7401
30.7177
41.0033
47.2112
50.3273
50.9792
49.7886
47.5719
44.9671
42.3514
39.8589
37.4852
35.3246
33.4934
31.7229
29.6714
27.3803
25.1206
23.0974
21.268
19.569
17.7999
15.7296
13.5447
11.3903
0.118428
0.12532
0.133837
0.14444
0.155266
0.165779
0.175806
0.185264
0.194146
0.202385
0.209577
0.215299
0.219744
0.222879
0.224887
0.226093
0.227109
0.227531
0.22859
0.23179
0.237718
0.247973
0.264442
0.288932
0.322277
0.365604
0.416046
0.460365
0.465909
0.382929
0.233509
0.0856803
0.0299844
0.00714959
0.00148214
0.000476621
0.00187138
0.00357263
0.00309935
0.00549825
0.00653756
0.00542016
0.00478098
0.00499718
0.00573252
0.00675196
0.0085283
0.0128917
0.0432301
0.160114
0.560093
1.93634
5.51055
11.2183
20.8758
32.2019
43.6746
50.4979
53.862
54.4777
53.1317
50.7095
47.8809
45.0353
42.3137
39.716
37.3266
35.2665
33.2912
31.0603
28.6096
26.2022
24.0321
22.0443
20.1815
18.3329
16.2725
14.0677
11.7822
0.12185
0.129154
0.138329
0.149742
0.161461
0.172833
0.183597
0.193704
0.203136
0.211834
0.219458
0.225468
0.230059
0.233246
0.235218
0.236304
0.237243
0.2374
0.2381
0.241007
0.246602
0.256572
0.272974
0.297891
0.33229
0.377565
0.431456
0.481721
0.49662
0.425029
0.276409
0.090883
0.0326559
0.0081806
0.00173969
0.000524451
0.0018277
0.00353583
0.00307885
0.00547488
0.00666466
0.00550396
0.00481776
0.00500644
0.00574068
0.00681004
0.00880585
0.0144948
0.0542989
0.187921
0.607908
2.00614
5.61454
11.4414
21.4831
34.5951
47.5012
54.9605
58.501
58.9921
57.4028
54.6849
51.5341
48.3536
45.2972
42.3801
39.6846
37.3283
35.0996
32.6583
30.0222
27.4401
25.0955
22.9235
20.8757
18.922
16.8592
14.6317
12.2299
0.125624
0.133352
0.143157
0.155359
0.168017
0.180325
0.191903
0.202734
0.212782
0.221984
0.230068
0.236378
0.241118
0.244361
0.246302
0.247253
0.248101
0.247961
0.248248
0.250807
0.255997
0.265584
0.281805
0.307073
0.342468
0.389627
0.446925
0.503171
0.527697
0.467469
0.315953
0.103264
0.035959
0.00941958
0.00205325
0.000582503
0.00177252
0.00348372
0.00305134
0.00544707
0.0067916
0.0055909
0.00485609
0.00501818
0.00575473
0.00688548
0.00915027
0.0165573
0.0669903
0.213976
0.642357
2.04145
5.6407
11.4842
22.3132
37.4904
51.9855
60.1497
63.8829
64.2543
62.3902
59.3154
55.7628
52.1616
48.6872
45.3744
42.3107
39.6054
37.0845
34.4078
31.5637
28.7837
26.2426
23.8726
21.6301
19.5464
17.4602
15.2332
12.7103
0.129669
0.137829
0.148237
0.161214
0.174845
0.188148
0.200618
0.212242
0.222972
0.232716
0.241287
0.247923
0.252815
0.256093
0.258003
0.258795
0.259532
0.259051
0.258857
0.261005
0.265705
0.274798
0.290699
0.316201
0.352465
0.401368
0.461979
0.524216
0.558729
0.510929
0.357952
0.12624
0.0404086
0.0109466
0.00245737
0.000659742
0.00171968
0.00343014
0.00302344
0.00541929
0.00692019
0.00568174
0.00489593
0.00503145
0.00577229
0.00697309
0.00955643
0.0189638
0.0786938
0.233403
0.6652
2.05418
5.61
11.4282
23.4233
40.8259
56.9991
65.9562
69.9018
70.175
68.0198
64.5355
60.507
56.4048
52.4348
48.6556
45.1578
42.0606
39.2121
36.2757
33.2024
30.2019
27.4408
24.8613
22.4168
20.1832
18.053
15.814
13.2162
0.133944
0.142544
0.153549
0.167305
0.181928
0.196274
0.209714
0.222204
0.233685
0.244018
0.253102
0.260116
0.265149
0.268426
0.270294
0.270905
0.2715
0.270626
0.269875
0.271535
0.275648
0.28413
0.299557
0.325118
0.362058
0.412497
0.476271
0.544402
0.58895
0.554856
0.404999
0.16233
0.0463009
0.012824
0.0029822
0.000765065
0.00167333
0.00337512
0.00299649
0.00539353
0.00705111
0.00577679
0.00493743
0.00504616
0.00579331
0.0070738
0.0100302
0.0216304
0.0886398
0.244939
0.692356
2.0497
5.53477
11.4667
24.7795
44.4822
62.4058
72.2564
76.5042
76.7224
74.2771
70.342
65.7686
61.0863
56.5444
52.2267
48.2281
44.6868
41.4762
38.2551
34.9308
31.6858
28.6863
25.8864
23.2336
20.8333
18.6371
16.4062
13.7323
0.138446
0.147494
0.159103
0.17366
0.189271
0.204701
0.219191
0.23262
0.244928
0.255919
0.265532
0.272984
0.278143
0.281394
0.283183
0.283594
0.284006
0.282676
0.281281
0.282364
0.285788
0.293551
0.308326
0.333711
0.371087
0.422827
0.489519
0.563339
0.617844
0.5988
0.457041
0.211117
0.0536042
0.0150966
0.00364341
0.000905801
0.00163382
0.00331702
0.00296985
0.00537007
0.00718491
0.00587664
0.00498106
0.00506271
0.00581889
0.00719158
0.0105858
0.0245305
0.0972661
0.253682
0.717749
2.03401
5.47684
11.7172
26.4371
48.3951
68.1296
79.0011
83.6704
83.9053
81.1844
76.7608
71.5706
66.223
61.0268
56.0933
51.5235
47.4755
43.8638
40.3322
36.735
33.2246
29.9725
26.9403
24.0722
21.4919
19.2101
16.972
14.2529
0.143182
0.152691
0.164906
0.180291
0.196889
0.213436
0.229047
0.243496
0.25671
0.268442
0.278604
0.286546
0.29183
0.295037
0.296704
0.296883
0.297051
0.29519
0.293054
0.293458
0.296086
0.30304
0.316943
0.341871
0.379407
0.432135
0.501373
0.580471
0.644906
0.642069
0.512961
0.269752
0.0625928
0.0177449
0.00443595
0.0010876
0.00160267
0.00325614
0.0029438
0.00534914
0.00732249
0.00598228
0.00502742
0.00508151
0.00585
0.00733041
0.0112379
0.0276693
0.105551
0.269213
0.735708
2.01659
5.4646
12.2528
28.4338
52.5145
74.09
86.137
91.386
91.7435
88.7792
83.8325
77.9491
71.8429
65.902
60.2686
55.0517
50.4305
46.3665
42.4948
38.6046
34.8151
31.2973
28.0205
24.9297
22.1586
19.7726
17.5078
14.7777
0.148159
0.158148
0.170968
0.187215
0.204805
0.222481
0.239283
0.254833
0.269041
0.281604
0.292352
0.300813
0.306247
0.309392
0.3109
0.310793
0.310624
0.30813
0.305164
0.304762
0.306488
0.312551
0.325343
0.349507
0.386875
0.440165
0.51151
0.595351
0.66967
0.684001
0.572325
0.338901
0.0769727
0.020821
0.00535736
0.00131519
0.00158344
0.00319357
0.00291876
0.00533119
0.00746446
0.0060947
0.005077
0.00510281
0.00588733
0.0074941
0.0119997
0.0310826
0.114331
0.293881
0.747378
2.00892
5.53599
13.0886
30.7876
56.7888
80.1977
93.6106
99.6396
100.256
97.0949
91.5926
84.9354
77.9701
71.1845
64.7602
58.8154
53.5512
48.981
44.736
40.5348
36.4528
32.6552
29.1209
25.8001
22.8307
20.3267
18.0503
15.2977
0.153381
0.16384
0.177301
0.194438
0.213038
0.231846
0.249897
0.266634
0.281928
0.295427
0.306841
0.315818
0.321439
0.324494
0.325802
0.325345
0.324721
0.321474
0.317574
0.31623
0.316957
0.32202
0.333469
0.356525
0.393314
0.446692
0.51962
0.607696
0.691661
0.723763
0.633834
0.414242
0.1041
0.0244397
0.00640282
0.00159084
0.00157955
0.00313141
0.00289585
0.00531619
0.00761108
0.00621512
0.0051304
0.00512681
0.00593166
0.0076873
0.0128902
0.0348555
0.124612
0.330331
0.755977
2.02291
5.72129
14.2428
33.4625
61.11
86.3278
101.347
108.405
109.445
106.146
100.063
92.5525
84.6229
76.8839
69.5711
62.8137
56.8352
51.7031
47.0508
42.5212
38.1336
34.0413
30.2352
26.6769
23.5054
20.8733
18.5679
15.8135
0.158847
0.169756
0.183924
0.201967
0.221604
0.241552
0.260889
0.2789
0.295378
0.309927
0.322125
0.33162
0.337451
0.340374
0.341431
0.340556
0.339347
0.335218
0.330205
0.327825
0.327473
0.331344
0.341266
0.362816
0.398542
0.451545
0.525413
0.617218
0.710396
0.760408
0.695027
0.488972
0.142527
0.0283569
0.00754125
0.00191472
0.00159506
0.00307115
0.00287609
0.00530475
0.00776312
0.00634506
0.00518843
0.00515383
0.00598404
0.00791605
0.0139351
0.039145
0.137607
0.380783
0.767112
2.07208
6.04331
15.7131
36.3425
65.2626
92.2883
109.21
117.615
119.273
115.912
109.237
100.801
91.8018
82.9964
74.6934
67.0379
60.2753
54.5258
49.4323
44.5584
39.8525
35.4492
31.3561
27.5524
24.178
21.4125
19.0592
16.3154
0.16456
0.17597
0.190849
0.209804
0.230517
0.25163
0.272268
0.291633
0.309395
0.325112
0.338216
0.348262
0.354324
0.357057
0.357802
0.356424
0.354466
0.349323
0.342999
0.33952
0.33801
0.340437
0.348655
0.368281
0.402469
0.454615
0.528732
0.623538
0.725275
0.793093
0.754388
0.563521
0.189506
0.0319712
0.00871814
0.00228567
0.00163326
0.00301561
0.00286045
0.00529681
0.00792108
0.0064867
0.0052522
0.00518423
0.0060458
0.00818805
0.0151706
0.0441841
0.154699
0.440128
0.786348
2.17203
6.52932
17.4932
39.2257
68.9026
97.7548
116.939
127.129
129.646
126.322
119.063
109.643
99.4767
89.4957
80.1039
71.4697
63.8578
57.4384
51.8717
46.6402
41.6043
36.8725
32.4758
28.4191
24.8434
21.9469
19.5642
16.799
0.170526
0.18252
0.198073
0.217952
0.239785
0.262109
0.284057
0.304841
0.323985
0.340988
0.355131
0.36578
0.372095
0.374558
0.37491
0.372929
0.370023
0.363687
0.35597
0.351251
0.348496
0.349247
0.355542
0.372881
0.405121
0.455912
0.529573
0.62635
0.735666
0.821075
0.811152
0.638312
0.246411
0.0352271
0.00989175
0.00269999
0.00169792
0.00296682
0.00285139
0.00529315
0.00808628
0.00664258
0.00532313
0.00521843
0.00611859
0.00851357
0.0166523
0.0503467
0.17724
0.494809
0.820584
2.3519
7.29089
19.6103
41.876
71.5612
102.191
124.123
136.685
140.369
137.223
129.417
118.977
107.569
96.3226
85.7575
76.0766
67.5601
60.4254
54.3576
48.759
43.3829
38.3046
33.5873
29.2697
25.4963
22.4757
20.0453
17.2806
0.176729
0.189367
0.205598
0.226421
0.249419
0.273013
0.296299
0.318549
0.339161
0.357569
0.372891
0.384218
0.390795
0.392875
0.39273
0.390024
0.385933
0.378183
0.369051
0.362915
0.358835
0.357732
0.361904
0.376691
0.406637
0.455607
0.5281
0.625631
0.741139
0.843547
0.864752
0.718913
0.311947
0.0503018
0.0113946
0.00316966
0.0017934
0.00292862
0.00284999
0.00529418
0.0082604
0.00681593
0.00540284
0.00525686
0.00620446
0.00890607
0.0184579
0.0580493
0.207164
0.535336
0.88012
2.66327
8.59198
22.2354
44.114
72.7309
104.877
130.152
145.775
151.043
148.297
140.044
128.607
115.934
103.374
91.5822
80.8089
71.3493
63.4647
56.8755
50.9055
45.1814
39.7388
34.6842
30.0986
26.1337
23.0011
20.5488
17.7401
0.183143
0.196427
0.213411
0.235222
0.259425
0.284357
0.309037
0.332783
0.354937
0.37486
0.391511
0.403626
0.410437
0.411979
0.4112
0.407629
0.402069
0.392678
0.382099
0.374432
0.368966
0.365922
0.367778
0.379952
0.407293
0.453993
0.524634
0.621608
0.741498
0.859458
0.913546
0.806262
0.398679
0.0958762
0.0135122
0.00371072
0.00192598
0.00290617
0.00285928
0.00530098
0.00844632
0.00701092
0.00549345
0.00530001
0.00630605
0.00938409
0.0207005
0.0677928
0.237868
0.580468
1.02271
3.30152
10.8805
25.9511
46.0868
72.0413
105.006
134.146
153.544
160.944
158.963
150.498
138.203
124.341
110.496
97.4747
85.5978
75.1791
66.5257
59.4057
53.0663
46.9902
41.1679
35.7613
30.9021
26.7542
23.5242
21.0435
18.1917
0.189744
0.203653
0.221502
0.244358
0.269806
0.296141
0.322291
0.34758
0.371323
0.392859
0.410988
0.424033
0.431017
0.431814
0.430216
0.42563
0.418291
0.40702
0.394995
0.385713
0.37885
0.373887
0.373329
0.383034
0.4075
0.451453
0.519597
0.614672
0.736769
0.867738
0.954841
0.897896
0.544605
0.148881
0.0149655
0.00428031
0.00209945
0.00290392
0.00288262
0.00531548
0.00864862
0.0072329
0.00559751
0.00534844
0.00642682
0.00997219
0.0235066
0.079438
0.25318
0.490653
1.31457
4.93279
15.5222
31.9657
48.1185
69.446
101.828
134.827
158.521
168.789
168.282
160.072
147.273
132.462
117.473
103.296
90.3521
78.9883
69.5677
61.9214
55.2225
48.7959
42.5831
36.8134
31.6781
27.3588
24.0464
21.5242
18.6305
0.196521
0.211077
0.229849
0.253823
0.280558
0.308362
0.336067
0.362969
0.388335
0.411555
0.431293
0.445422
0.452501
0.452293
0.44963
0.443831
0.434429
0.421066
0.407589
0.396652
0.388439
0.381663
0.37886
0.386362
0.407787
0.448471
0.513508
0.605375
0.727294
0.867662
0.985165
0.987314
0.72764
0.216632
0.0153001
0.00483
0.00231492
0.00292468
0.00292192
0.00533879
0.00887107
0.00748925
0.00571837
0.00540285
0.00657141
0.0107088
0.0271974
0.0966102
0.319583
0.658549
1.71494
10.6616
26.6086
39.842
49.5104
64.9956
94.9325
130.34
158.05
172.416
174.606
167.775
155.164
139.87
124.028
108.864
94.952
82.6967
72.5375
64.3864
57.348
50.5798
43.9727
37.8339
32.4254
27.9505
24.5731
22.0257
19.0309
0.20345
0.218705
0.238445
0.263601
0.291665
0.321005
0.350354
0.378955
0.406
0.43093
0.45237
0.467709
0.47481
0.473291
0.469259
0.461954
0.450259
0.4347
0.4197
0.407124
0.397693
0.389346
0.384732
0.390363
0.408741
0.44564
0.506998
0.594451
0.713804
0.859216
1.00154
1.06348
0.908369
0.312005
0.0147666
0.00535029
0.0025744
0.00297214
0.00298238
0.00537288
0.00911788
0.00778875
0.0058602
0.00546408
0.00674628
0.0116472
0.0320271
0.117433
0.342182
1.10829
5.14529
30.3907
40.991
44.545
48.1001
58.4224
84.5408
120.178
151.922
171.353
177.007
172.462
161.091
146.043
129.813
113.946
99.2388
86.1989
75.3662
66.7534
59.4084
52.3177
45.3214
38.8153
33.1435
28.5327
25.1065
22.5127
19.3984
0.2105
0.226505
0.247286
0.273672
0.303114
0.334059
0.36514
0.395536
0.42434
0.450979
0.474139
0.490752
0.497813
0.494628
0.488967
0.47965
0.465509
0.447909
0.431134
0.417045
0.406594
0.397168
0.391283
0.395419
0.410899
0.443634
0.500804
0.58281
0.697458
0.843409
1.00288
1.11694
1.05178
0.447105
0.0475603
0.00716073
0.00302372
0.00306965
0.00307109
0.00541837
0.00938935
0.00814211
0.00602796
0.00553367
0.0069631
0.0129585
0.0407746
0.186591
0.925112
3.47664
16.8719
36.9019
41.4686
41.3141
42.385
50.4593
71.3236
105.854
140.371
165.08
174.846
173.264
164.252
150.383
134.4
118.242
103.003
89.3559
77.965
68.9631
61.36
53.9779
46.6088
39.7478
33.8324
29.1103
25.6456
22.9714
19.7123
0.217632
0.234432
0.256356
0.284019
0.314896
0.34751
0.380407
0.412701
0.443345
0.471687
0.496494
0.514362
0.521274
0.516118
0.508499
0.496513
0.479737
0.460579
0.441942
0.426448
0.415264
0.405416
0.398761
0.401738
0.414643
0.443142
0.495747
0.57153
0.679808
0.822355
0.990749
1.14606
1.17686
0.711171
0.155244
0.0142718
0.00712299
0.00365616
0.00323855
0.00547504
0.00968153
0.00856035
0.00622825
0.00561355
0.00724354
0.0149603
0.0565121
0.301252
1.17644
6.51833
24.6175
33.6123
35.4484
33.8935
33.4983
39.4684
56.4605
88.6532
124.949
154.018
168.321
170.28
164.032
152.274
137.287
121.384
105.987
91.9938
80.2236
70.9437
63.1521
55.5227
47.8076
40.6162
34.4898
29.6864
26.1895
23.4272
19.9523
0.224821
0.242421
0.265577
0.294611
0.326996
0.361339
0.396133
0.430419
0.462975
0.492984
0.519296
0.538254
0.544818
0.537612
0.527437
0.512254
0.492653
0.472492
0.452325
0.435556
0.424013
0.414389
0.40734
0.409477
0.420319
0.444806
0.492668
0.561817
0.662687
0.799044
0.969227
1.15252
1.27642
1.08078
0.333176
0.0433375
0.0320982
0.00771331
0.00395724
0.00560486
0.00998292
0.00905381
0.00646946
0.0057066
0.00764918
0.0188336
0.0958747
0.676673
3.99714
15.115
28.5624
29.305
27.6732
24.9568
23.7007
27.7932
41.7742
70.9598
107.424
139.221
157.759
163.625
160.322
151.211
137.958
122.964
107.899
93.9142
82.0169
72.6143
64.7284
56.9097
48.8845
41.3993
35.107
30.2577
26.7307
23.8377
20.1503
0.232063
0.250436
0.274899
0.305428
0.339388
0.375517
0.41229
0.448652
0.48316
0.514747
0.54232
0.562039
0.567907
0.558686
0.545313
0.526631
0.504328
0.483548
0.462425
0.444763
0.433142
0.424377
0.417234
0.418997
0.428283
0.449198
0.492371
0.554849
0.647978
0.776753
0.943833
1.1416
1.32898
1.35051
0.623094
0.124385
0.0892949
0.0240106
0.00723803
0.00617482
0.0103245
0.00963171
0.00676288
0.00581981
0.00843253
0.0301086
0.239333
2.01815
10.1202
25.4208
26.8965
22.9209
19.6804
16.8738
15.683
17.9817
29.1951
54.8501
89.8639
122.711
144.304
153.958
153.571
146.909
136.043
122.617
108.444
94.8989
83.196
73.8869
66.0305
58.0933
49.8027
42.0727
35.6702
30.8133
27.2562
24.2264
20.2875
0.239369
0.258563
0.284398
0.31645
0.352036
0.390013
0.428847
0.467349
0.503806
0.536788
0.565207
0.585196
0.589846
0.578591
0.561564
0.539306
0.514976
0.493684
0.472325
0.454385
0.442948
0.435618
0.428793
0.430679
0.438856
0.456856
0.495558
0.551618
0.63715
0.758144
0.919823
1.12292
1.34398
1.47975
1.06811
0.321077
0.196834
0.0673415
0.0191864
0.0086677
0.010949
0.0103204
0.00712396
0.00596802
0.0101388
0.057371
0.551161
4.26538
16.3324
30.7633
20.6359
16.3588
13.5009
11.5282
10.6932
11.7455
19.9793
41.6108
73.8634
106.406
129.759
142.233
144.59
140.169
131.695
120.223
107.435
94.7719
83.6158
74.6633
67.0003
59.03
50.5262
42.6111
36.1628
31.337
27.749
24.5596
20.3903
0.246737
0.266851
0.294067
0.327639
0.364904
0.404798
0.445763
0.486436
0.524776
0.558832
0.587441
0.606985
0.60981
0.596514
0.575502
0.55004
0.524547
0.502925
0.482002
0.464718
0.453961
0.448357
0.442695
0.445157
0.452512
0.468337
0.502833
0.552779
0.630894
0.744183
0.899729
1.10401
1.34672
1.55591
1.45671
0.690867
0.410528
0.165686
0.0559213
0.0182008
0.0128848
0.0112475
0.00757925
0.00618097
0.0138174
0.114525
1.09929
7.01817
21.0663
31.3307
15.7389
12.0266
9.98302
8.78548
8.35655
8.77926
14.1938
31.6054
60.268
91.4532
115.448
129.694
134.495
132.117
125.589
116.097
104.956
93.5185
83.2279
74.8794
67.5817
59.6788
51.0264
42.9928
36.5692
31.8129
28.1902
24.8146
20.4397
0.254135
0.27522
0.303821
0.338966
0.377959
0.41984
0.46298
0.505805
0.545866
0.580507
0.608319
0.626374
0.626812
0.611635
0.586823
0.558958
0.532934
0.511669
0.49177
0.476155
0.466768
0.462972
0.459588
0.463118
0.469881
0.484335
0.514789
0.55864
0.628857
0.733516
0.881321
1.08307
1.34208
1.61385
1.71016
1.1492
0.775043
0.380532
0.160168
0.0508648
0.019918
0.0129661
0.00819281
0.00650716
0.0209621
0.214849
1.90592
10.0034
25.0452
28.117
12.5727
9.55789
8.22203
7.54168
7.3882
7.66955
10.9483
24.4393
49.2273
78.3239
102.143
117.119
123.882
123.477
118.557
110.918
101.397
91.3221
82.1055
74.5487
67.748
60.0025
51.2757
43.2001
36.8744
32.225
28.5656
25.0099
20.4229
0.261519
0.283611
0.313604
0.350392
0.391162
0.435091
0.480421
0.525302
0.566792
0.601338
0.627012
0.642211
0.639809
0.623032
0.595659
0.566519
0.540787
0.520679
0.502487
0.489198
0.481877
0.480025
0.479621
0.484894
0.492277
0.505698
0.532207
0.569511
0.630074
0.722909
0.857978
1.04893
1.3125
1.63858
1.89674
1.59215
1.24167
0.724978
0.407079
0.146875
0.0437335
0.0174921
0.00917184
0.0070216
0.0337338
0.376005
2.98587
13.1206
28.6793
24.3164
10.4675
8.1674
7.33938
6.97556
6.98272
7.37981
9.2486
19.457
40.531
67.066
90.1601
105.451
113.39
114.758
111.468
105.393
97.2856
88.5105
80.4285
73.7564
67.5192
59.9853
51.2519
43.2166
37.0621
32.5563
28.862
25.1282
20.3722
0.268832
0.291987
0.323372
0.361852
0.404452
0.450479
0.497981
0.544726
0.587163
0.620751
0.642816
0.653717
0.648078
0.629918
0.602099
0.57333
0.549037
0.530824
0.515188
0.504764
0.500174
0.500299
0.502874
0.510989
0.52086
0.533794
0.556939
0.587145
0.635445
0.711013
0.824213
0.98984
1.23267
1.57967
1.98075
1.9603
1.69131
1.14919
0.842206
0.385174
0.11356
0.030761
0.0111942
0.0078347
0.0548303
0.613935
4.32209
16.1741
30.9732
20.9861
8.98653
7.35586
6.91821
6.79668
6.91272
7.32092
8.43397
16.0412
33.7932
57.5881
79.5299
94.8422
103.341
106.237
104.51
99.785
93.0003
85.4083
78.421
72.6293
66.9455
59.6366
50.9511
43.0314
37.1176
32.7907
29.0653
25.1515
20.2704
0.275989
0.300285
0.333094
0.373269
0.417747
0.465909
0.515525
0.563812
0.606463
0.638025
0.655237
0.660667
0.651742
0.632534
0.606274
0.579931
0.558408
0.543137
0.531135
0.524258
0.522627
0.524997
0.530543
0.542524
0.555912
0.570773
0.592984
0.616428
0.652273
0.706092
0.788207
0.911957
1.10318
1.40787
1.87019
2.14313
1.99522
1.57204
1.38333
0.839046
0.278422
0.0660516
0.0161014
0.00911248
0.0871681
0.938909
5.81634
18.5847
29.4087
18.0332
7.97413
6.91674
6.80542
6.92859
7.23037
7.44264
8.1687
13.7268
28.6028
49.7152
70.2097
85.2575
94.1177
98.0644
97.7253
94.2468
88.7247
82.2302
76.2792
71.2992
66.0898
58.9811
50.3799
42.6405
37.0295
32.9122
29.161
25.0863
20.0826
0.282884
0.308405
0.342704
0.384551
0.430943
0.481255
0.532868
0.582228
0.624042
0.65224
0.663916
0.663348
0.651704
0.632226
0.609018
0.587067
0.569998
0.559076
0.551972
0.548974
0.550223
0.555536
0.564571
0.580279
0.597814
0.616766
0.642079
0.662768
0.69168
0.72664
0.777545
0.852549
0.973947
1.18618
1.58594
2.01354
2.06432
1.87118
1.86242
1.5044
0.604319
0.147362
0.0280612
0.0111569
0.133943
1.35293
7.32034
19.891
24.925
15.4565
7.3818
6.73526
6.87238
7.21032
7.79165
8.08129
8.33115
12.1981
24.6241
43.2364
62.1259
76.6721
85.7548
90.4136
91.2729
88.9559
84.5289
79.0877
74.1385
69.8747
65.0122
58.0468
49.5447
42.0412
36.7897
32.9061
29.1329
24.9168
19.8533
0.289415
0.31622
0.352078
0.395584
0.443916
0.496352
0.549753
0.599559
0.639257
0.662617
0.66851
0.662516
0.649162
0.630823
0.612117
0.596494
0.585791
0.580664
0.5795
0.58043
0.584859
0.592966
0.60535
0.62396
0.644982
0.668407
0.698829
0.723055
0.752533
0.780098
0.812644
0.851665
0.910249
1.0249
1.29153
1.6885
1.91602
1.9818
2.1741
2.21829
1.13545
0.308331
0.0546895
0.0145415
0.197243
1.84185
8.7261
20.3512
21.0027
13.4368
7.12853
6.70076
6.99157
7.45252
8.21922
9.10386
8.75916
11.2128
21.5746
37.9466
55.1833
69.0659
78.2264
83.3303
85.1924
83.8993
80.3735
76.0562
72.0947
68.4227
63.7389
56.8424
48.444
41.2312
36.3914
32.7572
28.9639
24.6361
19.552
0.295498
0.323592
0.361059
0.406242
0.456516
0.510974
0.565817
0.615269
0.651488
0.668656
0.668823
0.659162
0.645589
0.630517
0.618319
0.611143
0.608597
0.61088
0.615074
0.621562
0.628828
0.638387
0.653522
0.673227
0.69553
0.721722
0.755721
0.785692
0.819623
0.848843
0.876257
0.901211
0.923062
0.964325
1.11765
1.40317
1.68754
1.93717
2.3024
2.68306
1.78236
0.573356
0.106477
0.0203008
0.278788
2.39598
10.0136
20.3731
18.8133
12.1377
7.05743
6.74119
7.12421
7.62355
8.37408
9.87326
9.21666
10.5856
19.2204
33.6519
49.2725
62.3904
71.5153
76.9772
79.5416
79.1059
76.4785
73.2456
70.2178
66.9461
62.2334
55.3419
47.0746
40.2161
35.8289
32.4453
28.6411
24.2402
19.1717
0.301069
0.33041
0.369502
0.41638
0.468539
0.524822
0.580552
0.62864
0.660084
0.670075
0.665371
0.654227
0.643022
0.634267
0.631396
0.635114
0.642722
0.653375
0.663652
0.674689
0.685371
0.694891
0.710467
0.728478
0.748946
0.774417
0.807828
0.841804
0.879327
0.912823
0.940386
0.963311
0.974084
0.982774
1.07086
1.26486
1.52473
1.83175
2.29076
2.82693
2.34804
0.923033
0.192284
0.02997
0.379618
3.00391
11.1652
20.2365
17.59
11.3615
7.08233
6.83488
7.29024
7.79712
8.40403
10.0991
9.6049
10.1888
17.3847
30.1691
44.2836
56.5816
65.5792
71.3123
74.3519
74.6411
72.8941
70.6556
68.4584
65.4024
60.5124
53.5193
45.4582
39.0193
35.1028
31.9603
28.1789
23.7479
18.707
0.306054
0.33659
0.377271
0.425813
0.479727
0.537496
0.593292
0.638773
0.664407
0.667127
0.659359
0.649576
0.644479
0.645763
0.655309
0.672134
0.692507
0.71363
0.731542
0.745745
0.758227
0.76654
0.778489
0.791223
0.805815
0.826093
0.854805
0.889171
0.927337
0.964446
0.993813
1.01899
1.03273
1.03765
1.10918
1.268
1.48908
1.75817
2.20873
2.76635
2.69532
1.29896
0.31327
0.0452423
0.500875
3.65675
12.1847
20.0484
16.871
10.9085
7.17218
6.9749
7.50003
8.01965
8.46698
9.99643
9.93682
9.94701
15.9382
27.3293
40.0966
51.5647
60.3586
66.2633
69.592
70.4896
69.6076
68.3464
66.7846
63.7505
58.5577
51.4393
43.6587
37.6832
34.2159
31.3239
27.5975
23.1753
18.2061
0.31036
0.342036
0.384204
0.434313
0.489764
0.548499
0.603248
0.644674
0.663927
0.660782
0.652689
0.647919
0.653209
0.668902
0.694063
0.726547
0.762165
0.795063
0.820817
0.839265
0.85044
0.855278
0.860163
0.863633
0.868015
0.878615
0.89932
0.930269
0.966539
1.00552
1.03775
1.06662
1.08829
1.10245
1.1922
1.36772
1.57207
1.77675
2.13454
2.60912
2.80949
1.63604
0.461395
0.0674319
0.643158
4.33647
13.0522
19.7852
16.5017
10.6738
7.31408
7.15125
7.74448
8.28831
8.61423
9.8483
10.2011
9.80882
14.7883
24.9979
36.5905
47.2499
55.778
61.7668
65.3032
66.677
66.6391
66.2825
65.1383
61.9223
56.3688
49.1874
41.7536
36.2585
33.1969
30.5613
26.916
22.5322
17.6642
0.313893
0.346623
0.390116
0.441608
0.498278
0.557268
0.609633
0.645559
0.65864
0.652438
0.647019
0.651665
0.672237
0.70725
0.752546
0.8038
0.855453
0.900568
0.934597
0.954942
0.962927
0.959715
0.954967
0.947118
0.937998
0.935115
0.944562
0.968681
1.00172
1.04091
1.07622
1.10829
1.13713
1.16427
1.2906
1.51719
1.73626
1.90541
2.12438
2.41167
2.73378
1.88372
0.622576
0.0969483
0.805138
5.01788
13.7407
19.4706
16.5143
10.6028
7.49737
7.35351
8.01334
8.59336
8.83521
9.79652
10.3917
9.73237
13.8629
23.0692
33.6511
43.5521
51.7667
57.7609
61.4635
63.2519
64.033
64.4213
63.4214
59.8594
53.9736
46.8357
39.8052
34.7922
32.1014
29.702
26.153
21.8348
17.0432
0.316589
0.350227
0.39481
0.447405
0.504834