/*--------------------------------*- C++ -*----------------------------------*\
| =========                 |                                                 |
| \\      /  F ield         | OpenFOAM: The Open Source CFD Toolbox           |
|  \\    /   O peration     | Version:  4.1                                   |
|   \\  /    A nd           | Web:      www.OpenFOAM.org                      |
|    \\/     M anipulation  |                                                 |
\*---------------------------------------------------------------------------*/
FoamFile
{
    version     2.0;
    format      ascii;
    class       volScalarField;
    location    "3";
    object      nut;
}
// * * * * * * * * * * * * * * * * * * * * * * * * * * * * * * * * * * * * * //

dimensions      [0 2 -1 0 0 0 0];

internalField   nonuniform List<scalar> 
6785
(
0.344768
3.48238e-08
3.20474e-08
3.20289e-08
3.20294e-08
3.20254e-08
3.20332e-08
3.20354e-08
3.20367e-08
3.20536e-08
3.20458e-08
3.20299e-08
3.21443e-08
1.49581e-07
0.253867
0.377011
1.87136e-05
1.27755e-10
1.00106e-10
9.52243e-11
9.03529e-11
8.56694e-11
8.09079e-11
7.59844e-11
7.10962e-11
6.64215e-11
6.16014e-11
1.10553e-09
3.62753e-05
0.124268
0.407052
0.000394911
6.3269e-12
3.82129e-12
4.14105e-09
1.33773e-07
6.43821e-07
1.58988e-06
3.92166e-06
1.47253e-05
0.000113363
0.000649547
0.00225937
0.011343
0.0709989
0.43986
0.00334309
1.17625e-07
9.32188e-10
2.16661e-07
2.50419e-06
2.13361e-05
7.91553e-05
0.000248039
0.000396175
0.000722219
0.00108277
0.00368902
0.00508649
0.0599824
0.466582
0.00946637
7.31561e-06
7.09941e-08
5.85476e-06
5.70765e-05
0.000755851
0.00349862
0.0139614
0.0200875
0.0103119
0.00725265
0.042404
0.00720166
0.0613767
0.487452
0.0127996
2.13306e-05
0.000359599
0.00111216
0.00297344
0.0061039
0.011104
0.0195183
0.0329014
0.0475044
0.0365036
0.0623899
0.0245983
0.0909099
0.515318
0.0250197
0.000590429
0.000209427
0.000465707
0.00158863
0.00391338
0.00764226
0.0144534
0.0300253
0.0597583
0.062241
0.0681085
0.0710515
0.133626
0.538442
0.0759544
0.0140161
0.000770188
0.000463971
0.00132657
0.00246319
0.00433871
0.0065098
0.0138256
0.0267702
0.0440526
0.0986366
0.116937
0.17315
0.549611
0.124638
0.0506272
0.0236057
0.00219248
0.00127614
0.00242261
0.00398737
0.00443537
0.00684582
0.00852219
0.00939641
0.0172201
0.0581602
0.096384
0.546054
0.176193
0.0586061
0.0308344
0.0121799
0.0028118
0.00329299
0.00566797
0.00510877
0.00615859
0.00692704
0.00588545
0.0110205
0.018355
0.0683974
0.531548
0.239501
0.0952088
0.050486
0.0311036
0.0104363
0.00547006
0.00795445
0.00707262
0.00702361
0.00763352
0.00654289
0.0143892
0.0164414
0.0940405
0.511959
0.347012
0.123125
0.0676755
0.051573
0.0147678
0.0060904
0.0076219
0.011045
0.00947093
0.00885439
0.00789138
0.0158771
0.0160079
0.0946413
0.492748
0.458096
0.29799
0.130532
0.0821747
0.0469518
0.102556
0.0118535
0.0111412
0.0132371
0.0123455
0.0108841
0.0174765
0.0138619
0.0801922
0.467265
0.556432
0.202802
0.158793
0.0990991
0.00397717
0.00107607
0.00067967
0.00374993
0.00856061
0.0179839
0.039183
0.0300081
0.0163003
0.0859017
0.47075
0.729577
0.335625
1.18019
1.01405
1.06943
0.816897
0.894295
0.876168
5.66461
25.5034
29.2311
7.10891
1.05802
0.202308
1.90597
3.41557
1.86506
1.85109
1.8457
3.35554
1.8276
1.81409
1.81104
3.32056
1.80783
1.79659
3.2725
1.76946
1.74695
1.73301
3.14938
1.70298
1.68243
3.03556
1.63418
1.60776
1.58668
2.86282
1.54042
1.51749
1.50022
2.72876
1.46898
1.45157
2.6516
1.41903
1.39878
1.38511
2.56324
1.36742
1.35359
2.53142
1.33908
1.32562
1.32056
2.53601
1.35173
1.35793
1.37662
2.73421
1.51088
1.55829
3.17231
1.69514
1.70708
1.73742
3.46103
1.82113
1.80665
1.8064
3.47335
1.83803
1.83369
3.47338
1.80741
1.77872
1.76303
3.2793
1.69026
1.65692
2.99973
1.59196
1.5865
1.59228
2.92514
1.60124
1.6132
1.62638
2.9583
1.62579
1.6356
2.95794
1.62453
1.63319
4.04225
5.39965
6.53456
5.19075
31.0878
50.1971
79.7421
141.406
451.852
330.014
553.156
209.979
18.8799
309.256
2937.34
2191.33
2002.18
4584.46
6416.79
9746.61
161.128
11.1122
5.18388
4.82577
5.04711
5.29345
5.55477
5.84148
6.20071
6.62685
7.13589
4.77604
1.60857
1.68265
1.68608
1.68409
1.67988
1.67414
1.70705
1.75254
1.42609
1.01269
1.038
0.995449
1.02456
1.02106
1.04087
1.06676
1.10723
1.01275
1.01114
1.02183
1.09903
1.14206
1.21488
1.28791
1.35959
1.43059
1.41509
1.48347
1.53091
1.65259
1.76183
1.89037
2.04334
2.23435
2.40731
2.59219
2.90221
2.43565
2.65788
2.89721
3.26946
3.765
4.44097
5.15541
5.67058
8.75173
5.96055
6.15872
6.85332
11.7092
11.9197
7.37305
12.4213
7.68061
12.968
13.1176
8.06703
13.6725
13.8038
8.40722
14.2712
8.73116
14.9018
15.052
9.07817
15.4531
9.38502
16.1039
16.2989
9.77641
16.7291
16.8432
10.0656
16.9245
10.1999
17.3108
17.4936
10.4584
17.4971
10.5301
17.7477
17.9373
10.7682
17.9872
18.1248
10.8425
17.9728
10.7986
17.9666
18.1442
10.889
17.9959
10.8324
17.9562
18.1065
10.8885
17.8615
17.9766
10.8269
17.7354
10.6851
17.4542
17.5223
10.5711
17.2417
10.4013
16.9114
16.8895
10.1908
16.4935
16.4351
9.9281
16.0789
9.71047
15.666
15.5908
9.42688
15.2434
9.21451
14.8408
14.7603
8.92844
14.3693
14.2938
8.65978
14.003
8.48592
13.7013
15.2729
16.5226
17.1839
17.6324
18.985
20.6408
22.148
23.7795
25.2899
26.0618
26.8124
27.299
27.3371
27.7742
28.5236
28.9345
28.6448
28.5071
27.9536
26.9946
26.2987
25.9905
25.7916
25.5155
25.6952
25.0645
22.6759
18.1759
12.0466
5.27837
1.71896
1.50612
0.737985
0.12557
0.0151598
0.00216808
0.0106543
0.0146042
0.0104585
0.0370827
0.148116
0.16338
0.146715
0.185319
0.260498
0.27605
0.207275
0.114875
0.140911
1.30645
6.27256
19.0462
29.2505
28.954
72.5125
85.4455
76.1529
61.69
57.6597
58.9473
59.028
58.5694
57.3317
55.3628
52.8649
50.1667
48.5714
48.867
49.9944
50.8039
50.6958
49.8697
49.0545
49.3578
50.924
52.1867
51.5322
48.6901
43.0919
15.2829
16.7426
17.2692
17.4814
18.8138
20.6087
22.1662
23.941
25.668
26.6724
27.3271
27.7082
27.5781
27.9677
28.7933
29.2877
28.9778
28.8906
28.3411
27.2912
26.5286
26.2353
26.1005
25.8209
26.1167
25.6338
23.4042
18.9665
12.9256
6.42241
2.25212
1.26249
0.668578
0.136804
0.0188587
0.00239884
0.00994865
0.0144151
0.0101433
0.0362709
0.151196
0.167108
0.148297
0.185473
0.260828
0.278774
0.217438
0.1394
0.359775
2.56674
9.17609
21.1668
29.633
29.2656
74.2701
86.1086
73.8592
59.6628
56.9157
58.459
58.8009
58.4223
57.1399
55.08
52.5185
49.7972
48.3474
48.909
50.1726
51.0129
50.8583
49.9685
49.1263
49.4981
51.1572
52.4352
51.736
49.0523
43.7571
15.5801
17.5066
17.8625
17.7342
18.8482
20.5072
22.0862
23.7864
25.4796
26.5108
27.0244
27.4006
27.3607
27.7595
28.6105
29.1379
28.7095
28.6882
28.2545
27.2486
26.6095
26.5736
26.7766
26.8314
27.2434
26.9083
24.7795
20.2427
13.9969
7.52355
3.09488
1.19984
0.719037
0.168672
0.024879
0.0028753
0.00984858
0.0143391
0.0102079
0.0355711
0.153162
0.170099
0.149821
0.185704
0.261126
0.281752
0.224908
0.167393
0.57668
3.4662
10.7567
21.8518
29.5116
30.6668
76.6355
84.2988
72.92
58.9504
57.4365
59.1459
59.7097
59.4489
58.2256
56.2267
53.76
51.1966
49.4155
49.5817
50.5887
51.4172
51.4079
50.7192
50.1809
51.005
52.7604
54.0473
53.2657
50.0352
43.884
15.978
18.1682
18.3903
18.134
19.0017
20.5359
22.1534
23.8222
25.5217
26.6011
27.007
27.4452
27.4079
27.7602
28.6588
29.2538
28.6798
28.7365
28.4264
27.4287
26.8922
27.1374
27.7351
28.0911
28.6282
28.4713
26.4778
21.8197
15.2768
8.97823
4.27199
1.34267
0.765697
0.209926
0.0334769
0.00351193
0.00973414
0.0141108
0.0103197
0.0350276
0.152982
0.17345
0.151507
0.186035
0.262001
0.281287
0.236118
0.206102
0.77487
4.93062
12.6406
22.2039
29.3874
31.7888
81.8785
85.3862
72.953
59.0911
59.0268
60.8088
61.5746
61.4385
60.2814
58.3236
55.8884
53.3679
51.2284
50.9658
51.7416
52.5385
52.6221
52.1352
52.0331
53.2496
54.8951
56.1344
55.3841
51.472
44.5122
16.4201
18.7263
19.0016
18.6409
19.2957
20.6313
22.2486
23.8638
25.5581
26.6922
27.0007
27.5388
27.5293
27.7022
28.6675
29.395
28.6476
28.7989
28.6544
27.671
27.2581
27.8487
28.9485
29.491
30.1463
30.1921
28.3858
23.613
16.5913
10.2617
5.07451
1.74004
0.822471
0.250678
0.0443619
0.00440252
0.00964066
0.013939
0.0102963
0.0345082
0.155617
0.176817
0.153073
0.18654
0.262834
0.28517
0.248796
0.261101
1.31407
4.99812
12.3021
22.2464
28.0661
32.4378
86.2178
84.6862
74.2154
59.8207
61.4188
63.0823
64.062
64.0577
62.9436
60.9676
58.4801
55.9037
53.7384
52.8374
53.2965
54.0233
54.2129
54.0365
54.5993
55.7894
57.2562
58.403
57.6633
53.1437
45.1476
16.8843
19.2826
19.7005
19.404
19.6911
20.7626
22.3596
23.8961
25.5659
26.8
26.9936
27.6523
27.5459
27.781
28.6103
29.5397
28.6005
28.8528
28.924
27.965
27.6995
28.7136
30.3312
30.9817
31.7359
32.0024
30.2641
25.3594
17.9907
11.48
5.92309
2.52688
0.939726
0.302138
0.059763
0.00566952
0.0096691
0.0138114
0.010259
0.0339862
0.155446
0.179948
0.154664
0.187881
0.263703
0.281307
0.265028
0.332956
1.53623
5.58978
12.8677
21.9888
26.3071
32.0318
91.1962
82.9546
76.021
61.6554
63.6793
65.6512
66.964
67.1214
66.0315
63.9886
61.3905
58.7149
56.4886
55.2478
55.3241
55.9537
56.2798
56.5735
57.4455
58.5356
59.8027
60.8088
60.0484
55.1942
45.9352
17.3598
19.8213
20.366
20.057
20.1416
20.9504
22.4641
23.9212
25.546
26.8725
26.9996
27.5252
27.5357
27.8482
28.6161
29.6794
28.5213
28.8752
29.2246
28.3017
28.2144
29.7579
31.7772
32.5589
33.3735
33.7969
31.9088
26.8161
19.5281
12.6098
6.91515
4.08267
1.17232
0.356528
0.0771895
0.00759485
0.0098224
0.0134372
0.0102393
0.0335403
0.157567
0.184075
0.156543
0.189044
0.264904
0.284646
0.286692
0.418455
1.84529
6.8243
14.4701
21.3321
24.1466
32.361
97.6539
81.0932
78.1154
63.6824
66.0266
68.4436
70.1881
70.5472
69.4691
67.3184
64.5648
61.7574
59.4531
58.2054
57.9249
58.426
58.9519
59.6936
60.51
61.4498
62.4921
63.307
62.4849
57.3662
46.7092
17.8387
20.3267
21.0393
20.7354
20.6622
21.1717
22.5655
23.9479
25.5153
26.8727
27.0555
27.3354
27.5055
27.8949
28.7314
29.8205
28.4089
28.8531
29.5579
28.683
28.8115
30.7698
33.2679
34.2267
35.0537
35.3344
33.4132
28.1629
21.1752
13.7864
8.02144
5.98408
1.46869
0.44077
0.104011
0.0105566
0.0101847
0.01315
0.010188
0.0330342
0.157487
0.186706
0.157911
0.190105
0.266897
0.290795
0.306971
0.528068
2.12002
6.36314
15.9358
20.4366
24.1509
34.764
106.145
79.0637
80.187
65.6276
68.3814
71.4011
73.7015
74.3117
73.2351
70.9396
67.9947
65.0319
62.647
61.3845
61.1785
61.6462
62.3594
63.065
63.7593
64.527
65.3203
65.8971
64.9652
59.6218
47.5109
18.3108
20.7519
21.7567
21.3911
21.2435
21.4598
22.6757
23.9806
25.4684
26.8514
27.1971
27.054
27.4656
27.912
28.8293
29.9722
28.2685
28.7693
29.9241
29.1109
29.524
31.6905
34.781
35.9921
36.6145
36.7552
34.8868
29.8602
22.8514
14.9956
9.09888
7.33121
1.82865
0.501147
0.122443
0.0146891
0.0106519
0.0129383
0.010194
0.0324732
0.157998
0.191181
0.159924
0.191245
0.268981
0.305604
0.353898
0.648939
2.33454
6.86839
16.9991
19.319
24.5415
41.774
115.563
76.7244
81.8852
67.3458
70.6559
74.4947
77.5061
78.4203
77.3318
74.853
71.6843
68.5471
66.0787
64.7985
64.6676
65.239
65.9933
66.6359
67.1899
67.761
68.2766
68.5722
67.4801
61.8828
48.4137
18.7725
21.004
22.49
22.0479
21.8576
21.8722
22.8276
24.038
25.4282
26.8045
27.4684
27.005
27.4315
27.9128
28.9271
30.1755
28.368
29.0071
30.3148
29.8936
30.6478
32.4604
36.2761
37.6318
37.8756
38.1364
36.0325
31.6403
24.576
16.2331
10.0557
7.87241
2.78122
0.619548
0.153443
0.0206849
0.0116053
0.0126709
0.0101554
0.0320197
0.158636
0.193608
0.161281
0.192346
0.271431
0.317881
0.35163
0.807093
2.57791
7.52962
17.6459
18.4426
25.0711
53.6092
123.81
74.0408
82.7096
68.7328
72.7766
77.7275
81.6195
82.8849
81.7659
79.0648
75.6437
72.3183
69.7643
68.4636
68.4029
69.0742
69.8599
70.4193
70.8074
71.1501
71.3565
71.3328
70.0313
64.1336
49.2955
19.239
21.7644
23.1648
22.7107
22.4943
22.4443
23.0532
24.1428
25.4194
26.7341
27.5244
27.0333
27.4102
27.9205
29.0308
30.3879
28.4514
29.3028
30.6895
30.8198
31.8653
33.0131
37.5656
39.0507
39.0387
39.3933
37.1294
33.1109
26.184
17.5953
11.0078
8.10579
5.29175
0.718163
0.167552
0.0278779
0.0125553
0.0125593
0.0102253
0.0312229
0.155527
0.198168
0.163305
0.193351
0.274301
0.327848
0.384552
0.959661
3.24406
8.18269
17.8322
17.6739
25.3668
72.1422
127.385
71.0214
81.9444
69.7573
74.7027
81.1359
86.0563
87.7073
86.5372
83.5781
79.8812
76.361
73.721
72.4013
72.4037
73.1679
73.9705
74.4217
74.6124
74.6873
74.5519
74.1781
72.6214
66.4639
50.3231
19.6754
22.7257
23.8145
23.3718
23.1377
23.0593
23.3839
24.3181
25.4666
26.6877
27.509
27.0855
27.4134
27.9464
29.1416
30.6175
28.6104
29.5507
31.6353
31.9984
33.1747
33.8401
38.2827
40.283
40.411
40.4972
38.3435
34.1622
27.4749
19.065
12.0481
8.39359
10.3961
0.90171
0.19691
0.036716
0.0141406
0.0123761
0.0103378
0.030715
0.154829
0.200093
0.164818
0.194839
0.278027
0.339064
0.451068
1.28401
4.31817
7.54208
18.0095
17.4821
28.1926
93.8579
124.408
67.4249
79.1531
70.3937
76.4746
84.7648
90.8047
92.8631
91.6279
88.3859
84.4006
80.6903
77.9715
76.6361
76.6916
77.5372
78.3368
78.6497
78.6046
78.3646
77.8558
77.1062
75.2486
68.8178
51.6593
20.0806
23.0828
24.4885
24.0514
23.7839
23.7134
23.8578
24.5832
25.5891
26.6897
27.5271
27.2281
27.4522
28.0063
29.2596
30.8545
28.9015
29.6955
32.9374
32.9112
33.9597
34.5913
38.5959
41.3009
41.7974
41.6847
39.5858
35.2459
28.6694
20.6257
13.1952
8.51087
14.7881
1.02796
0.221189
0.0482837
0.0157558
0.0124978
0.0103611
0.0298172
0.149642
0.204114
0.166216
0.195721
0.281387
0.344567
0.532755
1.26804
3.64824
2.21134
15.8914
16.9263
32.7528
115.906
111.141
62.73
75.8565
70.026
78.2069
88.6412
95.7978
98.2813
96.9878
93.4607
89.1953
85.3178
82.5392
81.1928
81.2881
82.1983
82.9698
83.1093
82.7816
82.1758
81.2609
80.1094
77.9105
71.0679
53.1436
20.4529
23.2247
25.1485
24.7617
24.4405
24.3934
24.517
24.9604
25.8033
26.7516
27.574
27.5146
27.5312
28.113
29.3898
31.0829
29.2433
30.1591
33.6508
33.972
34.6722
35.3093
38.7872
42.2747
43.2049
43.0969
40.9584
36.6621
30.0667
22.112
14.2888
8.78525
19.9004
1.35876
0.221542
0.055582
0.0178816
0.012535
0.0107349
0.0291686
0.145887
0.205712
0.168598
0.197407
0.286033
0.35999
0.592531
2.24855
1.73351
0.986764
13.4525
20.3161
41.9884
117.449
85.3945
56.944
71.657
68.5404
80.5494
92.7054
100.859
103.815
102.513
98.7403
94.2422
90.2496
87.4455
86.0953
86.2151
87.1668
87.8791
87.8048
87.1415
86.115
84.7532
83.1749
80.6043
73.3675
54.9002
20.8405
23.1242
25.7574
25.4863
25.1179
25.0827
25.2232
25.4812
26.1279
26.8889
27.6426
27.8689
27.65
28.2953
29.5457
31.2891
29.7381
30.7931
34.512
34.9638
35.1388
36.0404
38.3814
43.3326
44.5918
44.5342
42.4186
38.2261
31.5795
23.5612
15.3824
9.21187
23.9816
2.12603
0.257593
0.070591
0.0197396
0.0128043
0.0108947
0.0282203
0.138574
0.207015
0.169038
0.198453
0.291006
0.377663
0.691687
0.949416
0.952185
0.491597
6.41624
13.4239
51.2221
95.1142
54.4983
50.0813
65.4443
65.9889
82.5636
96.3398
105.598
109.198
108.018
104.114
99.496
95.4818
92.7074
91.3667
91.4926
92.4552
93.0708
92.737
91.679
90.1688
88.3145
86.2881
83.3228
75.6317
56.5155
21.2931
23.6309
26.2925
26.2065
25.819
25.7838
25.9659
26.1875
26.5916
27.1247
27.7328
28.179
27.8027
28.6031
29.8064
31.4168
30.4539
31.6754
35.2888
35.8497
35.4505
36.1721
38.4799
43.9323
45.8674
45.9566
43.9009
39.8889
33.2717
25.129
16.6652
10.134
9.45109
15.5004
0.25915
0.0688839
0.0219871
0.0132235
0.0111264
0.0270811
0.128193
0.209548
0.171707
0.200318
0.297398
0.402452
0.697554
0.677921
0.432512
0.284338
5.86354
8.44452
39.6706
60.315
33.2935
40.877
56.5771
62.5139
82.6008
98.4496
109.395
114.009
113.211
109.413
104.886
100.999
98.339
97.0289
97.1365
98.07
98.5431
97.9002
96.3813
94.3185
91.9268
89.4338
86.0526
77.9243
58.0798
21.7581
24.2189
26.8124
26.8939
26.542
26.4992
26.7234
26.9562
27.2402
27.494
27.8641
28.339
27.9687
29.0735
30.2394
31.3743
31.206
32.8928
35.7476
36.4719
35.0251
35.2596
38.413
43.733
46.8654
47.3799
45.357
41.6247
35.1435
26.9214
18.082
11.3291
6.48333
54.2808
0.269647
0.0713803
0.0238381
0.0133874
0.0111584
0.0259715
0.119889
0.203651
0.172162
0.201549
0.304308
0.435066
0.813765
0.797105
0.206774
0.10658
4.47584
5.44771
22.5441
26.0944
20.8472
30.7305
45.6329
58.9124
79.8962
97.8008
111.497
117.629
117.662
114.407
110.318
106.776
104.352
103.101
103.154
104.005
104.28
103.277
101.224
98.5377
95.5708
92.597
88.7815
80.2103
59.7742
22.2339
24.7753
27.3926
27.5538
27.2768
27.232
27.4926
27.7579
28.0417
28.05
28.0791
28.3566
28.1108
29.7414
30.9559
31.247
31.8417
34.2937
35.8537
36.6769
34.4042
34.248
38.241
42.5622
47.2275
48.8035
46.7362
43.4176
37.1777
29.0211
20.1863
12.5049
7.00586
29.7288
0.272463
0.074429
0.0251461
0.0128349
0.0101859
0.024048
0.105121
0.203367
0.174612
0.203225
0.310421
0.440714
0.500396
0.308266
0.193461
0.421655
0.474312
5.2477
16.9585
11.7697
14.1434
22.2601
35.0776
59.1315
71.2559
92.9043
110.707
119.168
120.82
118.827
115.682
112.778
110.752
109.596
109.538
110.23
110.243
108.831
106.164
102.795
99.2292
95.765
91.5028
82.4602
61.289
22.7424
25.3104
27.9527
28.216
28.019
27.982
28.2755
28.5731
28.8973
28.8649
28.439
28.3805
28.1681
30.6389
32.1217
31.0138
32.2495
36.0257
35.6069
36.549
32.8765
33.3363
37.3259
41.2599
46.3459
50.1586
47.9454
45.2274
39.3309
31.3381
22.2949
13.8693
8.2828
30.2704
0.0950776
0.04679
0.0255418
0.0116084
0.00918121
0.0217895
0.0920172
0.191626
0.175402
0.20533
0.321049
0.489803
0.697993
0.577496
0.125075
0.30779
0.824267
10.2881
11.8908
8.15878
11.1618
15.5701
28.0304
55.1669
65.3126
89.2835
107.274
117.477
122.102
122.416
120.86
118.949
117.523
116.496
116.245
116.684
116.374
114.499
111.15
107.062
102.886
98.9253
94.2053
84.71
62.7213
23.3083
25.8645
28.4257
28.8824
28.7683
28.7492
29.0732
29.3992
29.7699
29.7493
29.0214
28.4311
28.0575
32.0724
32.4686
30.8108
31.5398
35.6995
36.5378
35.8004
31.9348
31.9643
36.088
37.8995
43.6398
51.2351
48.8129
46.96
41.5346
33.888
24.7691
15.5929
9.42853
9.71111
0.799369
0.0574815
0.025186
0.0105357
0.00835399
0.0194224
0.0757703
0.180473
0.175392
0.206418
0.339219
0.533897
0.217111
0.167687
0.395147
0.889669
4.15681
8.47103
6.84657
6.79107
10.863
20.5298
28.1309
56.7828
60.7152
85.7784
98.5154
111.284
121.239
125.02
125.706
125.138
124.428
123.626
123.225
123.29
122.582
120.204
116.136
111.3
106.524
102.064
96.876
86.9234
64.3084
23.9816
26.5044
28.7199
29.5604
29.5243
29.5347
29.888
30.2381
30.6528
30.6773
29.7924
28.5758
27.8739
33.7016
32.6342
30.9862
31.9715
34.481
36.1525
35.0142
30.9493
30.2831
33.9561
35.6859
41.6173
51.3844
49.0561
48.4356
43.6519
36.6015
27.7577
18.6051
11.0834
5.17102
5.61722
0.187706
0.0938131
0.0114422
0.00666747
0.0160856
0.0628732
0.157554
0.178387
0.209901
0.334625
0.224329
0.191861
0.742209
0.130761
1.09233
6.00821
5.96627
5.79846
7.58707
14.908
22.4701
31.673
57.8544
65.5237
85.0571
93.0444
106.225
119.015
126.164
129.333
130.328
130.322
129.942
129.539
129.952
128.783
125.836
121.076
115.452
110.124
105.164
99.5011
89.0488
65.7205
24.7708
27.6434
29.6074
30.2294
30.2873
30.3402
30.7226
31.0917
31.5428
31.6275
30.6124
28.9403
27.8209
33.9167
32.4084
30.6804
32.5155
32.3727
34.282
33.7429
29.9081
28.3541
32.4925
33.4158
38.1027
50.3261
48.0519
49.3617
45.4549
39.2672
30.9876
21.72
12.9036
6.73523
8.65757
1.26065
1.48851
0.0466535
0.00814826
0.0137527
0.0469957
0.129393
0.172065
0.209744
0.278918
0.10702
0.0966241
0.202859
0.861221
5.41624
6.26823
4.84745
5.86098
11.2994
19.9383
26.3238
38.9705
63.6626
73.3466
84.0069
85.4882
100.405
115.104
125.322
131.135
134.013
135.089
135.309
135.091
135.74
134.944
131.353
125.927
119.427
113.674
108.191
102.055
91.0614
66.9244
25.55
29.2512
30.7394
30.8851
31.0588
31.1664
31.5806
31.9625
32.4361
32.5943
31.4583
29.3798
27.9595
33.724
31.704
29.6699
33.4015
29.3255
31.2939
30.845
29.196
26.0285
31.4409
31.2043
34.5512
47.0285
45.4886
48.844
46.6359
41.5952
34.3216
25.564
16.4895
10.0593
5.1028
2.21392
4.72119
0.36905
0.0238012
0.0129553
0.0363344
0.0940608
0.169414
0.215494
0.324561
2.12603
1.08028
1.62867
4.21609
12.2819
6.2185
5.50283
9.40559
14.8522
27.4441
28.9233
46.7224
70.2809
80.442
90.7499
80.8527
94.7036
109.479
122.363
131.682
137.194
139.999
141.246
141.516
140.99
140.194
136.688
130.618
123.15
117.177
111.09
104.509
92.9085
67.6417
26.1922
30.1533
31.3342
31.5383
31.836
32.0139
32.4662
32.8549
33.3287
33.5715
32.3134
29.7238
28.2092
32.9962
29.6853
28.7383
31.0752
26.6863
26.7909
28.7567
29.5144
23.232
31.3402
29.4027
30.8472
42.3014
40.4878
46.7163
46.1864
42.9724
37.3567
29.6811
21.2592
13.1481
5.88131
2.22434
4.63232
1.32467
0.129464
0.0224407
0.0331545
0.0671821
0.153772
0.21302
0.238072
0.259644
0.735115
4.18767
8.24863
19.4878
8.50443
8.21969
13.725
22.8305
34.8668
40.7261
54.3601
81.4697
88.2568
103.123
87.4692
88.0192
101.936
117.855
130.699
139.196
144.192
146.866
147.917
146.802
144.828
140.945
134.132
126.561
120.016
113.758
106.822
94.5687
68.0989
26.7809
30.8119
31.8752
32.1698
32.6091
32.8812
33.3839
33.7756
34.216
34.5528
33.1897
29.8644
28.3847
31.8568
28.9499
28.0903
27.812
24.7969
24.4258
25.9532
27.5575
21.1817
27.246
24.9319
27.3601
36.4192
34.4678
42.174
44.2816
42.5695
39.4031
33.3513
26.0299
17.4907
10.019
4.11201
4.41087
1.38167
0.411173
0.0769646
0.0342381
0.0526646
0.135208
0.228192
0.25333
1.33526
1.86598
7.95696
11.8681
22.5988
8.3213
14.0751
26.0152
39.7843
66.5198
62.8769
67.7725
95.7793
99.7246
116.737
102.574
86.596
98.344
113.595
128.467
139.812
147.234
151.666
153.791
152.414
149.752
144.464
136.616
128.99
122.063
116.189
108.969
96.2059
68.7021
27.3508
31.4419
32.4463
32.7828
33.3759
33.7644
34.3363
34.7326
35.0917
35.5273
34.2625
30.308
28.5773
29.6264
27.8951
27.3064
27.4265
23.3583
22.661
23.9843
25.1375
19.6469
22.9528
19.9366
24.6177
30.443
27.9144
36.2236
40.4809
40.752
39.5582
35.9593
30.5132
23.302
15.4538
7.07143
5.90743
2.11489
0.636642
0.283406
0.0615542
0.0467171
0.11489
0.229219
0.189554
0.734806
3.51987
11.8006
18.5623
35.9384
18.6854
34.5429
55.9431
72.1522
82.0216
82.9244
84.1543
112.245
116.521
130.296
125.366
88.5593
93.8589
107.941
125.08
139.256
149.083
155.426
158.831
157.504
154.303
148.096
139.312
130.841
124.142
118.479
110.924
97.5613
69.2846
27.9005
32.0382
33.0564
33.378
34.1311
34.6593
35.3228
35.7351
35.947
36.4319
36.0173
31.7446
29.0416
26.4273
26.4446
26.6301
26.5656
21.6195
21.2557
22.4503
22.217
18.758
19.6056
17.5708
18.9405
26.4852
24.2894
29.2839
35.6195
37.604
37.733
36.7952
33.6196
28.4132
21.6127
12.4938
9.78229
5.26439
1.7903
0.611915
0.202291
0.0626812
0.0917508
0.223535
0.286413
1.42468
5.87349
14.6577
20.5062
86.3985
49.8493
70.6879
91.6487
94.2308
91.8156
91.2391
90.4992
127.871
140.766
145.51
146.142
108.94
93.7516
105.539
122.613
138.349
150.072
158.208
162.923
161.824
158.164
151.246
141.693
132.737
126.076
120.61
112.63
98.4124
69.557
28.4353
32.531
33.6487
33.9729
34.8603
35.5569
36.3369
36.7926
36.7812
37.0665
37.9813
33.7573
30.2586
25.6403
24.5691
26.4594
24.5812
20.0772
20.1293
21.7715
18.4719
18.2162
21.146
16.8605
17.3744
23.5646
21.8706
26.2384
29.9258
33.6081
34.1749
35.2171
34.5289
31.647
27.2611
19.4302
16.6973
9.70573
4.55766
1.36203
0.59713
0.135533
0.10023
0.261578
0.932764
3.58583
10.3745
16.1707
21.4226
117.825
82.5504
100.463
109.961
101.707
94.4192
81.2192
89.2798
139.485
165.285
165.654
165.621
135.112
96.6778
105.719
120.919
137.222
150.518
160.235
166.111
165.213
161.165
153.64
143.474
134.283
127.737
122.428
114.007
98.8398
69.6503
28.9833
33.009
34.1534
34.5713
35.5625
36.4421
37.3623
37.9112
37.638
37.3129
39.8343
35.8151
32.2992
25.8436
22.0286
22.4342
21.6129
18.4616
20.0245
17.8762
17.4849
17.9653
20.2221
16.4424
17.1534
21.6342
19.0193
25.86
25.0117
29.628
30.1902
31.2689
33.2875
32.2674
30.9881
26.9963
25.4105
17.2676
10.9661
4.19503
1.67692
0.422916
0.129578
0.276717
1.11197
4.41305
12.828
16.7882
19.8036
134.827
110.45
115.429
114.595
107.545
98.5682
75.7724
83.8062
141.368
187.904
189.711
186.472
158.983
114.401
106.03
118.845
135.986
150.692
161.757
168.508
167.633
163.212
155.136
144.496
135.287
128.981
123.536
114.747
98.9947
69.7695
29.5527
33.4718
34.5861
35.1374
36.2372
37.2986
38.3684
39.064
38.8867
38.2632
40.4791
38.2651
33.4305
27.3486
21.5505
17.4738
17.9625
17.8605
16.0485
18.1504
16.7684
18.1575
19.4628
16.6747
18.0582
22.17
20.0795
25.9451
24.6792
27.5193
27.1842
27.6522
30.1377
31.3138
33.3191
32.332
34.3247
27.4049
22.0569
8.58116
2.99619
1.16322
0.263024
0.325091
2.36965
8.2864
16.3366
15.1908
22.7417
136.907
127.692
125.699
121.595
115.775
108.057
78.543
79.9288
132.502
206.5
216.904
208.312
182.448
137.154
110.226
120.395
135.765
150.881
162.964
170.205
169.082
164.233
155.644
144.658
135.632
129.702
124.003
114.803
98.7251
69.3832
30.1637
33.9371
34.9461
35.6603
36.8713
38.1112
39.3145
40.1104
40.0048
39.347
39.633
39.579
33.9922
27.722
20.5432
15.8458
17.865
13.8197
15.7639
15.2229
15.9882
19.1667
18.9789
17.1035
19.5392
23.4652
22.4979
27.9796
27.0605
28.8354
27.913
26.2019
27.7084
29.7068
34.5858
34.1628
39.7391
38.4936
36.9379
17.4487
6.42733
2.38141
0.692547
0.427382
3.3504
9.91105
14.3123
16.8589
59.9804
165.871
143.156
136.562
134.716
119.873
112.582
81.054
77.1534
112.702
214.691
245.909
230.982
205.303
162.779
117.447
121.415
135.151
150.698
163.909
171.209
169.511
164.089
155.067
143.88
135.239
129.814
123.984
114.292
97.9438
69.1224
30.8246
34.4288
35.2372
36.1328
37.4574
38.8671
40.1764
40.968
40.9158
40.0184
40.1212
39.4834
33.7513
27.6361
19.7595
14.9138
15.553
12.0972
16.2528
15.6375
15.0323
21.8478
19.1361
17.5486
20.7239
24.4475
25.2001
30.4081
30.2756
31.539
31.2742
28.5583
28.3451
28.1034
34.1222
34.3985
39.2867
48.2475
52.7167
33.9889
11.7308
4.16724
1.34818
0.559177
4.18559
11.1884
14.4756
18.2469
129.974
223.292
162.177
154.123
147.633
123.178
116.167
81.7029
73.1545
97.538
211.352
274.441
254.102
225.8
186.215
140.656
125.233
135.964
151.26
164.826
171.468
168.79
162.536
153.264
142.105
134.067
129.234
123.239
113.055
96.5891
68.3864
31.5265
34.9555
35.4848
36.543
37.986
39.5531
40.9449
41.5607
41.3172
40.5865
40.4097
36.8626
31.7618
26.2388
19.1205
14.7522
13.7416
10.7883
12.0864
15.4658
15.2163
21.2113
19.8668
18.2011
21.1241
24.2349
27.5365
31.8888
32.6758
33.0935
34.1289
31.6524
30.4358
28.8626
34.0975
32.4659
38.0487
53.9952
62.7491
53.4578
21.0907
8.26805
2.99008
0.820844
4.82886
11.414
14.3525
20.0461
176.532
265.625
186.522
171.627
156.521
122.704
114.763
84.5179
73.1515
85.4781
197.384
294.347
279.288
244.586
206.067
165.285
132.492
139.858
152.808
165.463
170.685
167.11
159.87
150.128
139.357
132.133
127.9
121.65
111.166
94.762
66.973
32.2755
35.4408
35.7237
36.885
38.441
40.1466
41.6249
41.8828
40.6724
41.6123
41.2983
38.9673
31.9928
23.8605
18.4235
14.9627
12.4247
10.4997
12.1941
13.3165
15.7117
20.9818
20.4489
19.141
22.8572
25.8368
29.3953
32.3089
34.5271
33.4331
35.8594
33.9093
32.2092
30.7643
33.8645
33.2055
37.2543
53.2636
61.5467
64.8136
31.0238
11.4331
5.46248
1.39737
5.04201
12.3554
15.0655
22.621
203.999
284.525
207.179
186.637
153.561
120.297
109.4
83.6836
73.5784
77.3882
177.522
302.742
304.438
261.84
222.198
188.579
142.51
142.443
153.894
165.951
169.086
164.587
156.258
145.989
135.822
129.529
125.738
119.345
108.743
92.5763
65.8184
33.1136
35.9991
35.994
37.176
38.8049
40.6022
42.2154
42.333
40.57
42.1313
42.4558
38.6927
29.8486
20.9877
15.6219
12.8312
11.8151
10.8603
12.0967
14.1307
16.9868
20.6389
20.7982
20.2582
23.8106
26.8466
30.9146
32.1959
35.4381
34.198
36.9797
35.8809
33.5594
32.5012
34.4833
35.2856
36.6782
47.03
49.0012
62.8216
38.3049
16.8373
8.9523
2.10954
5.69523
13.4912
16.3613
25.5092
225.237
291.17
217.299
198.612
146.791
115.771
102.551
90.2247
72.9673
70.4339
155.885
301.789
327.721
277.196
235.304
206.591
164.157
148.153
157.769
166.738
167.245
161.371
151.878
141.209
131.745
126.398
122.844
116.473
105.891
90.0747
64.3265
34.0025
36.6993
36.3785
37.4577
39.076
40.8453
42.552
42.4162
39.8617
42.8611
40.3009
36.6312
27.8141
19.0222
13.3862
11.0919
11.1735
12.0896
13.4822
15.54
18.2128
24.6591
24.1641
21.6108
24.7158
27.7201
32.2597
33.685
35.7233
34.8314
37.6878
37.6551
34.8036
32.8327
34.5534
38.4673
36.0672
37.4782
32.1098
44.2822
42.3963
22.1949
11.379
3.27868
6.19576
13.3294
16.5668
29.3214
246.685
300.209
223.678
208.98
139.379
111.169
93.7983
95.7952
72.8097
65.5496
135.021
291.41
341.337
291.638
246.023
219.672
183.075
157.161
163.857
167.625
165.996
157.603
146.928
136.034
127.339
122.888
119.495
113.19
102.708
87.3227
62.25
34.7068
37.4264
36.9527
37.8005
39.2912
40.822
42.4809
42.4652
39.4487
40.1961
40.7693
35.0211
26.6461
19.4332
14.9469
13.3041
13.944
14.1091
15.1386
17.5064
20.7901
26.1653
26.081
22.8586
25.4852
28.7898
33.5182
35.3759
35.7378
35.3149
38.069
39.2297
36.051
32.7005
33.5748
36.6036
34.8201
26.1738
26.3413
38.5517
46.9713
31.8998
17.9072
5.20046
6.66172
12.4258
17.9152
34.5418
267.772
305.17
233.655
220.227
132.096
102.88
78.9257
87.5276
73.4582
61.6048
121.779
274.699
348.011
304.658
254.773
228.859
197.587
171.886
170.052
168.232
164.774
153.468
141.608
130.648
122.758
119.113
115.838
109.623
99.279
84.3938
60.6791
35.4135
37.9457
37.545
38.3003
39.5487
40.5382
41.7359
42.4691
39.3052
39.3911
39.0487
33.5942
26.322
21.3612
18.4003
17.4612
18.7826
17.6928
17.1624
19.6215
23.6697
27.9257
28.3291
25.0293
25.8963
29.9632
35.0052
35.1793
35.5854
35.5831
38.0783
40.4802
36.8999
32.3817
31.8653
33.2443
32.5357
21.9199
21.2364
28.8677
46.8922
35.4788
19.5133
6.88633
6.54002
11.3882
19.5109
43.2219
288.304
310.89
245.779
226.716
122.155
91.3612
58.2364
82.2329
74.7467
59.298
107.343
254.041
343.608
314.399
261.575
235.044
207.857
183.528
175.084
168.694
162.656
148.863
136.052
125.177
118.112
115.129
111.974
105.867
95.6765
81.3053
58.3445
36.3346
38.4553
37.8846
38.7146
39.7536
40.0343
40.2724
41.3936
40.0899
40.4656
36.1729
31.7566
26.8901
23.9626
22.3415
21.5505
22.3374
20.0296
19.4071
21.3906
27.2003
29.1862
30.0172
26.1133
26.0895
31.6974
34.249
34.6851
35.2226
35.7809
38.1894
41.2627
37.0101
32.071
29.9484
30.1323
29.9453
19.0664
17.0591
20.4552
38.5493
41.0246
28.338
9.88069
6.64119
12.1341
21.9416
56.9718
302.696
320.52
260.394
230.154
111.357
73.8054
38.0574
51.8857
63.5548
57.0488
98.9329
234.669
336.83
319.456
265.825
238.73
214.467
191.557
177.894
168.256
159.422
143.798
130.346
119.707
113.476
110.955
107.988
101.992
91.9595
78.125
56.5884
37.448
39.3085
38.2634
38.8428
39.7454
39.7887
39.7757