/*--------------------------------*- C++ -*----------------------------------*\
| =========                 |                                                 |
| \\      /  F ield         | OpenFOAM: The Open Source CFD Toolbox           |
|  \\    /   O peration     | Version:  4.1                                   |
|   \\  /    A nd           | Web:      www.OpenFOAM.org                      |
|    \\/     M anipulation  |                                                 |
\*---------------------------------------------------------------------------*/
FoamFile
{
    version     2.0;
    format      ascii;
    class       volScalarField;
    location    "3";
    object      p;
}
// * * * * * * * * * * * * * * * * * * * * * * * * * * * * * * * * * * * * * //

dimensions      [0 2 -2 0 0 0 0];

internalField   nonuniform List<scalar> 
6785
(
828.24
763.952
712.755
663.193
617.218
574.056
533.532
495.4
459.479
425.282
392.519
362.574
334.925
301.01
267.304
293.567
275.698
278.233
273.899
270.357
266.78
263.591
261.026
259.283
258.487
258.599
259.891
263.122
266.826
267.606
240.567
235.065
244.674
244.297
247.661
250.196
252.906
255.487
257.929
260.218
262.23
263.798
265.222
267.164
268.634
297.859
296.074
301.355
298.116
298.936
297.901
297.203
296.352
295.537
294.766
294.052
293.299
292.416
292.091
293.344
305.252
303.814
306.725
303.851
305.342
304.772
305.153
305.422
305.854
306.251
306.543
306.74
307
307.563
308.579
299.839
298.342
300.644
298.528
300.361
299.875
300.562
300.766
301.003
300.93
300.608
300.139
299.609
299.11
298.697
290.869
289.179
290.458
288.169
289.047
287.645
287.447
286.625
285.97
285.236
284.59
283.9
282.987
282.071
281.471
276.099
274.568
275.181
272.913
273.216
271.521
270.913
269.778
268.832
267.978
267.35
266.813
266.224
266.021
266.593
267.376
266.733
267.503
265.886
266.447
265.366
265.184
264.641
264.224
263.919
263.803
263.835
264.008
264.447
265.378
269.417
269.832
270.894
270.11
271.051
270.735
271.108
271.236
271.438
271.69
272.01
272.368
272.822
273.29
274.14
277.378
278.343
279.362
279.051
280.082
280.089
280.682
281.047
281.479
281.922
282.385
282.829
283.323
283.742
284.315
284.694
285.816
286.562
286.405
287.281
287.282
287.804
288.081
288.433
288.771
289.122
289.442
289.805
290.075
290.481
294.158
294.936
295.165
294.691
295.059
294.652
294.698
294.612
294.614
294.657
294.749
294.841
295.02
295.125
295.485
299.95
301.292
300.904
300.01
299.922
299.547
299.7
299.773
299.904
299.921
299.85
299.681
299.577
299.426
299.622
330.238
328.397
323.89
318.719
315.135
312.001
310.051
308.907
307.759
306.589
305.24
303.256
300.941
298.83
296.578
287.214
287.242
287.253
287.249
287.247
287.287
287.238
287.217
287.223
287.262
287.222
287.136
287.287
287.169
287.097
287.111
287.196
287.152
287.026
287.236
287.119
287.023
287.04
287.155
287.097
287.007
287.021
287.106
287.096
286.973
287.13
287.078
286.981
286.994
287.025
287.047
286.95
287.028
287.015
286.933
286.933
286.903
286.932
286.854
286.838
286.776
286.785
286.685
286.707
286.614
286.494
286.417
286.268
286.332
286.187
286.11
285.94
286.138
286.036
285.851
286.293
286.074
286.069
285.823
286.202
286.202
286.563
286.416
285.69
286.461
287.127
283.321
281.612
283.131
282.116
272.602
277.624
276.438
252.942
260.335
266.425
262.867
267.374
255.681
260.161
264.547
256.915
260.3
235.412
269.957
249.853
282.276
267.77
261.311
267.903
266.918
272.146
274.294
297.961
222.69
323.439
308.194
308.24
309.634
310.065
311.013
312.434
313.587
314.106
314.262
314.478
313.433
312.708
313.61
313.826
313.927
314.986
316.1
315.591
314.046
314.607
314.493
316.062
316.079
315.057
313.895
312.577
312.678
311.423
316.594
314.478
311.655
311.184
310.405
308.354
306.474
303.337
299.492
307.283
309.31
304.763
301.841
298.286
295.643
292.956
290.257
287.113
283.289
281.151
288.532
283.512
281.833
279.252
276.643
270.038
267.613
268.521
254.692
272.164
266.372
262.844
269.129
263.597
265.906
264.455
265.324
267.332
263.217
264.441
265.052
262.18
262.543
261.093
260.459
260.565
257.994
257.814
256.198
255.078
254.194
252.309
251.382
249.673
248.315
246.983
245.106
243.696
241.412
239.908
237.562
235.023
233.11
229.889
228.91
225.348
220.922
221.527
216.221
212.197
209.974
204.687
207.028
199.23
193.907
191.531
184.945
189.336
179.916
169.001
178.07
165.002
155.904
154.325
144.526
156.67
139.419
127.751
126.883
116.045
131.609
113.982
92.4135
115.795
95.3211
78.9252
79.884
67.1541
90.1371
66.0892
48.3823
49.8363
37.0608
61.0755
38.8044
10.2958
42.6436
17.8075
-2.54131
-2.52235
-12.0114
0.0150155
0.0423155
0.0882536
0.119283
0.157377
0.194471
0.232274
0.264811
0.29776
0.32837
0.355073
0.376804
0.395384
0.410178
0.422311
0.433764
0.442373
0.439801
0.419755
0.385629
0.339675
0.283131
0.217003
0.137454
0.0392185
-0.0673911
-0.194496
-0.368512
-0.6151
-0.943219
-1.18458
-5.72793
-11.9984
-13.7144
-14.7217
-14.3461
-17.1468
-23.4001
-19.9355
-14.9779
-16.2091
-14.0921
-6.29365
12.424
42.9517
82.9801
125.268
168.352
156.98
152.678
133.853
52.9517
-84.5443
-133.59
-28.6982
-25.6011
-17.5961
-10.3006
-5.03205
-1.93074
-0.315626
0.561907
1.08166
1.49562
1.86475
2.17073
2.49264
2.8153
2.95881
2.85408
2.66961
2.61927
2.7765
2.99842
3.21289
3.05242
2.64116
2.30459
2.9531
0.0850535
0.171743
0.312483
0.413658
0.535555
0.655927
0.775827
0.878877
0.985514
1.08227
1.16856
1.24568
1.31608
1.38114
1.44008
1.49098
1.52233
1.51103
1.44259
1.33747
1.19922
1.02116
0.807258
0.541534
0.213326
-0.142849
-0.564256
-1.11642
-1.87946
-2.84615
-3.65719
-11.3667
-22.1353
-24.9338
-26.9843
-27.7697
-32.4602
-39.721
-38.7393
-34.2639
-34.3353
-30.4615
-18.6103
13.0924
66.8416
133.648
225.835
307.05
298.189
294.712
261.309
111.884
-159.594
-276.43
-96.9603
-80.8395
-54.5163
-32.3079
-16.4819
-7.23782
-2.42853
0.254641
1.93726
3.30906
4.56544
5.64876
6.70075
7.65975
8.23627
8.41644
8.42171
8.40306
8.47581
8.55777
8.71509
8.76464
8.80262
8.91607
9.98121
0.188327
0.352067
0.605991
0.79037
1.01698
1.237
1.4556
1.64339
1.83903
2.01393
2.17091
2.31529
2.44109
2.55726
2.65958
2.74355
2.78989
2.75648
2.62038
2.42605
2.1681
1.83652
1.44468
0.955479
0.351186
-0.308953
-1.09346
-2.11162
-3.51706
-5.31204
-6.9541
-15.174
-25.908
-28.0079
-30.1546
-32.3948
-38.259
-45.6398
-47.2632
-45.5535
-45.916
-41.4471
-29.3607
4.21126
64.1544
134.495
246.271
341.3
343.236
348.394
320.972
158.312
-183.7
-368.196
-201.458
-160.485
-103.727
-60.759
-30.9162
-13.527
-4.55437
0.388398
3.4626
6.01245
8.39027
10.3901
12.2151
13.8941
15.0505
15.5624
15.6638
15.6767
15.9069
16.2405
16.6508
16.6546
16.5253
16.7465
19.0821
0.271533
0.507553
0.869022
1.1357
1.46482
1.77943
2.0897
2.36014
2.63833
2.88631
3.11051
3.32023
3.49946
3.66682
3.8135
3.93037
3.99668
3.9404
3.7382
3.4621
3.09207
2.62541
2.0707
1.3762
0.515565
-0.427552
-1.55647
-3.02273
-5.06006
-7.74029
-10.4504
-18.4992
-29.0908
-30.825
-33.2094
-36.798
-43.9395
-52.3679
-55.443
-55.5099
-56.9702
-52.1853
-39.4846
-3.9947
62.6423
138.728
265.981
375.614
390.612
403.654
380.076
203.297
-210.907
-454.768
-310.41
-239.047
-151.875
-88.6765
-45.3449
-20.2077
-7.26049
-0.120576
4.33415
8.0672
11.5633
14.5156
17.157
19.5341
21.2061
22.0256
22.2768
22.3337
22.6081
22.9779
23.4715
23.6571
23.7618
24.0857
26.8534
0.348137
0.660015
1.13079
1.48136
1.91603
2.32591
2.72623
3.08241
3.44129
3.76356
4.0552
4.33078
4.56544
4.78315
4.97354
5.12335
5.21122
5.13235
4.86885
4.51213
4.0311
3.43457
2.71892
1.81868
0.696722
-0.538327
-2.0276
-3.96276
-6.66001
-10.282
-14.1735
-21.7394
-33.1769
-35.3481
-38.2915
-42.9739
-51.2876
-60.7214
-65.0378
-66.1828
-68.4
-63.2455
-49.2567
-9.99949
66.3306
153.599
301.097
430.25
457.357
474.802
447.795
247.575
-247.518
-545.16
-435.235
-324.637
-202.774
-117.525
-60.0331
-26.9709
-10.0111
-0.622479
5.29524
10.3055
15.019
18.9752
22.4289
25.4664
27.6704
28.8282
29.2322
29.3536
29.7355
30.2322
30.8602
31.1437
31.3521
32.008
35.6806
0.41798
0.807186
1.38717
1.82174
2.36278
2.86565
3.35508
3.79572
4.23533
4.63142
4.99087
5.33119
5.62339
5.89235
6.12677
6.31155
6.42345
6.32241
6.00098
5.56742
4.98227
4.25949
3.39105
2.29151
0.912344
-0.612062
-2.4642
-4.87562
-8.23819
-12.8135
-17.9549
-25.1624
-37.7599
-40.6632
-44.0708
-49.6091
-58.9763
-69.2475
-75.0238
-77.3463
-80.0706
-74.4811
-59.3038
-16.4266
69.68
168.59
338.461
489.394
528.631
550.4
520.09
297.937
-283.734
-635.372
-573.673
-416.041
-255.427
-146.57
-74.5652
-33.6703
-12.8563
-1.30852
6.05188
12.3782
18.3571
23.3684
27.6727
31.3652
34.0709
35.5446
36.1067
36.3032
36.7439
37.2805
37.9814
38.443
38.8746
39.5105
43.7651
0.481521
0.949474
1.64
2.15912
2.80678
3.39906
3.97957
4.50186
5.02369
5.4911
5.92177
6.32757
6.67936
6.99971
7.27727
7.49755
7.63721
7.515
7.1396
6.63386
5.94937
5.10513
4.0908
2.79842
1.16534
-0.647557
-2.86677
-5.76455
-9.79479
-15.3102
-21.6858
-28.6852
-42.3033
-46.2152
-49.7354
-55.9611
-66.3765
-77.6617
-85.0369
-88.725
-92.0827
-86.2164
-70.2447
-24.7187
70.3505
179.967
372.055
546.128
598.138
624.9
594.068
355.183
-315.958
-722.448
-726.351
-514.754
-310.485
-175.944
-88.8797
-40.1885
-15.6467
-1.99602
6.82405
14.5309
21.8509
27.9678
33.1381
37.4768
40.6797
42.4788
43.2102
43.483
43.9615
44.5377
45.3068
45.9031
46.5615
47.5757
52.1093
0.539941
1.08751
1.88851
2.49396
3.24749
3.92639
4.5981
5.20148
5.80517
6.34293
6.84942
7.32091
7.73291
8.10447
8.42405
8.68059
8.85244
8.71088
8.28734
7.7139
6.93502
5.97605
4.82422
3.34853
1.46739
-0.630736
-3.21873
-6.61061
-11.3055
-17.7253
-25.2459
-32.2267
-46.7198
-51.837
-55.2617
-62.097
-73.6035
-86.1621
-95.2176
-100.353
-104.536
-98.6804
-82.2537
-34.938
68.6419
188.751
402.745
601.53
666.358
697.836
668.571
417.592
-343.932
-808.535
-892.553
-620.628
-367.902
-205.428
-102.762
-46.4338
-18.4036
-2.77325
7.49412
16.6447
25.3786
32.6598
38.7302
43.7332
47.4288
49.5466
50.4384
50.7588
51.2274
51.7999
52.612
53.3654
54.2682
55.6111
60.9374
0.594347
1.22277
2.13211
2.82767
3.68597
4.44955
5.21018
5.89534
6.57996
7.19103
7.77709
8.31328
8.78469
9.20724
9.56705
9.86092
10.0702
9.91203
9.4465
8.81055
7.94446
6.8764
5.59702
3.94952
1.828
-0.550771
-3.50775
-7.40002
-12.7547
-20.032
-28.6028
-35.9445
-51.2195
-57.3448
-60.7601
-68.1714
-80.8439
-94.8471
-105.65
-112.289
-117.4
-111.769
-95.1165
-46.7292
65.0594
195.796
431.794
657.044
734.172
770.356
744.504
485.384
-366.409
-903.962
-1071.04
-733.333
-427.947
-235.041
-116.102
-52.3168
-21.0663
-3.58512
8.12825
18.8003
29.035
37.5416
44.5333
50.2082
54.4002
56.8413
57.8761
58.2055
58.6224
59.1665
60.004
60.8872
62.0456
63.4958
69.2248
0.645633
1.35712
2.37125
3.1621
4.12383
4.97026
5.81722
6.58267
7.34733
8.03513
8.70454
9.30591
9.83499
10.308
10.7056
11.0385
11.2921
11.1203
10.6186
9.92648
8.98151
7.81122
6.41563
4.61007
2.25849
-0.394377
-3.71896
-8.11553
-14.1249
-22.2142
-31.766
-39.8955
-55.8059
-62.6703
-66.1941
-74.2124
-88.1632
-103.741
-116.359
-124.586
-130.709
-125.457
-108.795
-60.0913
59.466
200.829
459.099
712.594
801.285
843.007
823.168
559.718
-380.893
-1018.58
-1257.42
-851.918
-490.856
-264.85
-128.808
-57.7838
-23.6417
-4.46123
8.69801
20.9797
32.8155
42.6164
50.5563
56.9113
61.5995
64.3584
65.5102
65.8038
66.1178
66.6005
67.4461
68.4517
69.86
71.7619
77.6825
0.694239
1.49147
2.60654
3.49846
4.56317
5.49133
6.42124
7.26507
8.10774
8.87457
9.63076
10.2997
10.8838
11.4066
11.8387
12.2132
12.52
12.3376
11.8052
11.0649
10.0507
8.78632
7.28669
5.3386
2.77006
-0.148298
-3.83883
-8.74174
-15.4005
-24.2667
-34.7622
-44.06
-60.5866
-67.9484
-71.491
-80.1862
-95.5402
-112.861
-127.395
-137.345
-144.614
-139.929
-123.545
-75.3999
51.3195
203.106
483.889
767.334
866.677
915.122
905.027
641.329
-383.998
-1154.6
-1446.1
-975.443
-557.041
-295.134
-140.884
-62.8251
-26.144
-5.40631
9.21313
23.2088
36.7578
47.9275
56.8407
63.8798
69.0596
72.1245
73.3637
73.568
73.724
74.1143
74.9487
76.0582
77.7084
80.0043
86.5406
0.740556
1.62571
2.83983
3.83715
5.00469
6.01451
7.02289
7.9451
8.86369
9.71207
10.556
11.2949
11.931
12.5025
12.9654
13.385
13.7553
13.5662
13.0081
12.2295
11.1579
9.80863
8.21669
6.14329
3.37404
0.200467
-3.85413
-9.2649
-16.5668
-26.187
-37.6352
-48.4785
-65.6509
-73.1199
-76.6909
-86.1172
-102.943
-122.221
-138.825
-150.678
-159.274
-155.369
-139.608
-92.9999
40.1429
201.983
505.463
820.416
929.305
985.615
990.135
730.555
-370.754
-1306.39
-1633.89
-1103.55
-627.227
-326.462
-152.492
-67.5095
-28.6258
-6.44659
9.67171
25.505
40.8943
53.5123
63.4256
71.1503
76.8111
80.1606
81.4499
81.5023
81.4383
81.6982
82.5015
83.6963
85.5729
88.1002
94.8388
0.784748
1.76047
3.07387
4.17787
5.44601
6.53864
7.62261
8.62328
9.61789
10.549
11.4811
12.2915
12.9767
13.5957
14.0855
14.5543
14.9996
14.8076
14.2291
13.4245
12.3102
10.8861
9.21166
7.03168
4.08148
0.663343
-3.7525
-9.67285
-17.6098
-27.9705
-40.3931
-53.019
-70.4628
-77.9217
-81.9341
-91.9876
-110.335
-131.846
-150.717
-164.688
-174.815
-171.878
-157.098
-113.064
25.6326
196.986
523.301
871.13
988.234
1053.43
1078.51
826.867
-338.801
-1461.97
-1819.59
-1237.26
-703.033
-359.874
-163.994
-71.9704
-31.1572
-7.61028
10.0872
27.9059
45.2776
59.4215
70.3568
78.7617
84.8871
88.4901
89.7852
89.6159
89.2585
89.3432
90.0958
91.3599
93.4507
96.4941
103.605
0.826927
1.8967
3.30935
4.51988
5.88488
7.06298
8.22137
9.2997
10.3703
11.3842
12.4068
13.2898
14.0213
14.6862
15.1994
15.7215
16.2541
16.0629
15.4702
14.6541
13.5153
12.0266
10.2774
8.01033
4.90286
1.24985
-3.52415
-9.95422
-18.5162
-29.6054
-42.9948
-57.4188
-74.3552
-82.3303
-87.0855
-97.7476
-117.705
-141.786
-163.16
-179.499
-191.389
-189.573
-176.128
-135.747
7.4803
187.615
536.833
918.666
1042.49
1117.46
1170.28
930.387
-285.175
-1596.54
-2000.89
-1379.67
-787.702
-397.022
-176.011
-76.4607
-33.8525
-8.92126
10.4981
30.4723
49.9758
65.7158
77.6865
86.7547
93.3196
97.134
98.3824
97.9121
97.1793
97.0361
97.7142
99.0315
101.319
104.508
112.022
0.867348
2.0345
3.54649
4.86326
6.32163
7.58965
8.82089
9.97463
11.1198
12.2177
13.3339
14.2902
15.0649
15.7742
16.3071
16.8868
17.5194
17.3324
16.7333
15.9232
14.7802
13.2374
11.4195
9.08434
5.84674
1.96722
-3.16366
-10.0995
-19.2768
-31.0758
-45.3829
-61.4369
-77.2544
-86.37
-91.99
-103.351
-125.034
-152.103
-176.275
-195.28
-209.218
-208.646
-196.906
-161.296
-14.738
173.21
545.292
961.959
1090.96
1176.51
1265.36
1041.39
-204.449
-1684.57
-2174.67
-1536.02
-886.617
-440.49
-189.651
-81.416
-36.8536
-10.3609
10.9892
33.301
55.0752
72.4701
85.4766
95.1735
102.136
106.112
107.256
106.393
105.194
104.764
105.34
106.704
109.174
112.837
120.433
0.906297
2.17363
3.7851
5.20948
6.75717
8.11833
9.42231
10.6481
11.8678
13.051
14.2634
15.2929
16.1072
16.8593
17.4075
18.0506
18.7947
18.6158
18.0199
17.2363
16.1094
14.5242
12.6442
10.2572
6.91774
2.82053
-2.66786
-10.1025
-19.8888
-32.3695
-47.5063
-64.8832
-79.6743
-90.1444
-96.6826
-108.758
-132.289
-162.851
-190.206
-212.244
-228.578
-229.35
-219.696
-190.022
-41.5261
152.985
547.733
999.619
1132.19
1230.47
1363.7
1159.31
-97.3309
-1725.54
-2341.18
-1713.27
-1007.61
-494.298
-206.71
-87.3911
-40.2482
-11.813
11.7107
36.5337
60.6866
79.7682
93.789
104.067
111.369
115.451
116.421
115.06
113.294
112.515
112.963
114.362
117.003
121.063
129.024
0.94403
2.31378
4.02345
5.5593
7.19306
8.64609
10.0239
11.3233
12.6172
13.8854
15.196
16.2986
17.1479
17.9413
18.4996
19.2121
20.0766
19.913
19.3304
18.5947
17.5032
15.8906
13.9584
11.5312
8.11743
3.81437
-2.03183
-9.95931
-20.3509
-33.4828
-49.3472
-67.751
-82.141
-93.6804
-101.06
-113.953
-139.434
-174.064
-205.105
-230.653
-249.802
-251.969
-244.771
-222.24
-73.4056
126.086
543.06
1029.77
1163.73
1280.95
1465.17
1277.78
11.3204
-1748.85
-2509.37
-1921.57
-1161.5
-564.313
-229.622
-94.9175
-44.0783
-13.0661
12.9074
40.3599
66.9475
87.7088
102.697
113.493
121.063
125.18
125.887
123.912
121.479
120.284
120.567
121.995
124.789
129.017
137.286
0.980441
2.45534
4.26233
5.91244
7.6331
9.17349
10.6246
12.0036
13.3693
14.7215
16.1328
17.3081
18.1869
19.0193
19.5817
20.3677
21.359
21.2226
20.6656
19.997
18.9587
17.3374
15.3676
12.9075
9.4453
4.95106
-1.2503
-9.66703
-20.6596
-34.4204
-50.9225
-70.1233
-84.8186
-96.7694
-105.016
-118.932
-146.444
-185.77
-221.123
-250.818
-273.301
-276.842
-272.422
-258.266
-110.905
91.5973
529.963
1049.48
1180.44
1326.39
1572.43
1388.39
91.4116
-1796.33
-2701.35
-2177.95
-1362.97
-659.269
-262.216
-105.224
-48.5248
-13.8058
14.8859
44.9872
74.0116
96.4105
112.282
123.509
131.256
135.317
135.651
132.937
129.747
128.067
128.142
129.597
132.518
137.097
145.351
1.01518
2.59959
4.50456
6.26975
8.07923
9.70203
11.2252
12.6868
14.1242
15.5603
17.0747
18.3219
19.2242
20.0921
20.6515
21.5115
22.6325
22.5409
22.0246
21.437
20.4733
18.8649
16.8753
14.3853
10.8991
6.22799
-0.321814
-9.22341
-20.8136
-35.1904
-52.2619
-72.1003
-87.6234
-99.0051
-108.455
-123.731
-153.283
-197.951
-238.378
-273.108
-299.591
-304.397
-302.981
-298.453
-154.582
48.5282
506.658
1054.32
1179.62
1363.79
1680.04
1478.38
123.76
-1906.39
-2951.45
-2508.05
-1631.47
-794.07
-311.044
-120.391
-53.6052
-13.4395
18.0463
50.6627
82.0557
106.002
122.631
134.162
141.96
145.852
145.702
142.111
138.079
135.854
135.681
137.155
140.173
144.992
153.375
1.04802
2.74636
4.75063
6.63083
8.52927
10.2322
11.8272
13.372
14.8823
16.4022
18.0227
19.3402
20.2606
21.1574
21.707
22.6339
23.8837
23.8637
23.4
22.9015
22.0438
20.4764
18.4863
15.9615
12.4743
7.63846
0.755295
-8.62392
-20.8141
-35.8027
-53.389
-73.6869
-90.1838
-100.403
-111.353
-128.343
-159.893
-210.583
-256.963
-297.941
-329.313
-335.173
-336.862
-343.205
-205.043
-4.21258
472.46
1040.92
1159.17
1379.46
1767.93
1518.1
74.0648
-2107.89
-3298.02
-2942.31
-1992.07
-992.987
-384.279
-141.862
-58.7401
-11.3226
22.974
57.725
91.3074
116.643
133.841
145.487
153.159
156.744
155.997
151.398
146.448
143.628
143.18
144.661
147.731
152.546
160.93
1.07858
2.89489
4.99942
6.99519
8.98373
10.7661
12.4332
14.0615
15.6439
17.2459
18.9767
20.3626
21.2963
22.2117
22.7454
23.723
25.0948
25.1838
24.7804
24.3738
23.663
22.1705
20.201
17.6312
14.169
9.17586
1.98313
-7.8627
-20.661
-36.2665
-54.3245
-74.8713
-92.1353
-101.411
-113.759
-132.781
-166.318
-223.67
-276.941
-325.754
-363.221
-369.821
-374.574
-392.983
-262.909
-67.0371
426.098
1004.04
1111.51
1366.78
1863.26
1504.39
-53.8622
-2417.08
-3779.39
-3512.32
-2477.83
-1285.2
-490.601
-170.197
-63.1506
-7.1187
30.13
66.5191
102.064
128.549
146.032
157.524
164.836
167.94
166.467
160.739
154.811
151.365
150.634
152.11
155.177
160.102
168.203
1.10664
3.04556
5.25006
7.36393
9.44351
11.3049
13.0446
14.7563
16.4084
18.0889
19.9346
21.3859
22.3285
23.2497
23.7608
24.7665
26.2445
26.4857
26.1521
25.8386
25.3153
23.9263
22
19.3879
15.9813
10.832
3.35984
-6.93635
-20.3523
-36.5872
-55.0875
-75.6918
-93.4049
-102.41
-115.581
-137.046
-172.808
-237.293
-298.356
-356.998
-402.172
-409.099
-416.733
-448.308
-328.819
-140.336
364.169
935.706
1034.03
1337.07
1883.65
1505.18
-255.553
-2873.08
-4435.62
-4251.34
-3131.75
-1696.81
-638.797
-206.359
-66.8785
-0.784449
39.7705
77.5929
114.748
142.014
159.376
170.34
176.982
179.38
177.025
170.054
163.112
159.028
158.028
159.48
162.489
167.165
175.155
1.13273
3.19877
5.50359
7.73664
9.90763
11.8486
13.6615
15.4553
17.1736
18.9279
20.8922
22.4038
23.3523
24.2654
24.7411
25.7487
27.3114
27.7437
27.4981
27.2869
26.9739
25.7034
23.8561
21.2263
17.8926
12.5936
4.88181
-5.84578
-19.8862
-36.7661
-55.694
-76.2269
-94.1252
-103.468
-116.722
-141.109
-179.592
-251.603
-321.296
-392.118
-447.092
-453.861
-464.087
-509.775
-403.476
-225.075
283.524
830.378
923.464
1280.99
1927.55
1509.46
-585.596
-3520.19
-5298.79
-5194.16
-3999.02
-2249.39
-835.75
-253.417
-70.5508
7.79926
52.0166
91.4454
129.766
157.336
174.056
184.006
189.581
190.993
187.58
179.246
171.272
166.561
165.332
166.76
169.644
174.171
181.729
1.1572
3.35537
5.76161
8.11319
10.3788
12.3978
14.2833
16.1576
17.9368
19.7576
21.8425
23.4059
24.3609
25.2526
25.6709
26.6482
28.2741
28.9271
28.8027
28.7079
28.599
27.462
25.7481
23.1377
19.8634
14.4383
6.5335
-4.59759
-19.2673
-36.8048
-56.1563
-76.5537
-94.4429
-104.375
-117.341
-144.885
-186.391
-266.531
-345.836
-431.594
-499.015
-505.064
-517.534
-578.082
-487.676
-323.095
180.726
684.978
780.467
1188.03
1948.31
1410.79
-1090.86
-4381.6
-6380.25
-6364.47
-5114.54
-2961.84
-1088.57
-317.41
-75.3915
18.1102
66.6656
108.012
147.194
174.6
190.13
198.525
202.564
202.672
198.038
188.231
179.2
173.907
172.519
173.926
176.628
180.865
188.178
1.17991
3.51587
6.02319
8.49631
10.8583
12.9523
14.9092
16.8619
18.6958
20.5715
22.7762
24.3779
25.3433
26.2029
26.5361
27.4401
29.1064
29.9982
30.046
30.083
30.152
29.1793
27.6541
25.0888
21.8388
16.3276
8.27812
-3.20907
-18.5121
-36.7165
-56.493
-76.7392
-94.509
-104.988
-117.849
-148.461
-192.781
-281.795
-371.951
-475.941
-559.122
-563.803
-578.144
-654.079
-582.211
-435.792
52.4733
501.526
620.746
1091.92
1932.89
1170.22
-1794.9
-5449.35
-7651.4
-7752.64
-6485.57
-3845.42
-1408.1
-405.603
-83.7849
29.4027
83.3171
126.699
166.75
193.584
207.447
213.757
215.761
214.248
208.272
196.933
186.835
181.016
179.549
180.946
183.404
187.168
194.12
1.20084
3.68026
6.29015
8.89133
11.3449
13.5126
15.5375
17.5659
19.4469
21.3612
23.6808
25.304
26.2797
27.0997
27.324
28.0994
29.7738
30.9132
31.1969
31.3981
31.6166
30.8415
29.5421
27.0225
23.7597
18.2111
10.0583
-1.72117
-17.6534
-36.5367
-56.7494
-76.8738
-94.5716
-105.664
-118.707
-152.354
-198.912
-297.059
-399.137
-525.362
-628.595
-631.326
-647.163
-738.818
-687.844
-564.096
-102.668
284.987
453.269
1004.92
1873.85
757.891
-2681.91
-6662.36
-9024.66
-9291.71
-8059.46
-4894.45
-1804.7
-522.215
-99.6774
41.2921
101.465
146.859
187.754
213.602
225.541
229.391
228.923
225.491
218.113
205.265
194.141
187.854
186.387
187.792
189.959
193.305
199.651
1.21998
3.85211
6.56717
9.30085
11.8406
14.0788
16.1665
18.267
20.1849
22.1166
24.5391
26.1687
27.1404
27.9175
28.0183
28.606
30.2487
31.6392
32.2151
32.6355
32.9964
32.4384
31.3756
28.8805
25.5765
20.0364
11.7963
-0.209637
-16.7508
-36.3313
-57.0213
-77.1152
-94.9514
-107.052
-120.513
-157.611
-205.829
-312.664
-427.039
-580.002
-708.587
-708.997
-726.01
-833.599
-805.327
-708.967
-286.624
38.7332
274.336
923.834
1759.67
189.623
-3683.06
-7911.06
-10359.2
-10842.9
-9688.01
-6073.71
-2283.7
-668.639
-127.293
52.8438
120.312
167.757
209.385
233.969
243.838
244.989
241.743
236.132
227.362
213.124
201.084
194.402
192.991
194.423
196.277
199.136
205.097
1.23725
4.03527
6.85395
9.72209
12.3464
14.6497
16.7948
18.9626
20.904
22.8259
25.3277
26.9564
27.8873
28.6174
28.5962
28.955
30.5223
32.1567
33.065
33.7653
34.2999
33.9668
33.124
30.6274
27.2558
21.7613
13.4045
1.21558
-15.8945
-36.1968
-57.4593
-77.7111
-96.0297
-109.788
-124.096
-165.399
-215.378
-330.64
-456.636
-640.754
-800.765
-798.295
-816.239
-939.978
-935.408
-871.198
-502.021
-237.613
71.8871
825.8
1562.58
-491.032
-4709.25
-9080
-11520.1
-12231.4
-11140.8
-7305.38
-2843.31
-845.198
-168.466
61.1193
139.203
188.836
231.097
254.137
261.792
260.14
253.903
245.923
235.812
220.405
207.616
200.624
199.312
200.809
202.343
204.605
210.184
1.25258
4.22944
7.1485
10.1544
12.8623
15.2248
17.4209
19.6488
21.5961
23.4772
26.0166
27.6466
28.4807
29.1348
29.0091
29.1557
30.6074
32.4576
33.7314
34.7616
35.5379
35.4276
34.7715
32.2714
28.7775
23.3586
14.8262
2.44728
-15.1773
-36.2264
-58.2177
-78.9298
-98.1796
-114.358
-130.265
-176.236
-229.448
-354.409
-490.697
-708.825
-907.478
-900.969
-919.532
-1059.71
-1078.87
-1051.6
-751.007
-555.22
-181.906
647.378
1239
-1236.21
-5698.79
-10117.7
-12461.2
-13336
-12221.4
-8488.89
-3474.18
-1051.02
-222.822
62.5442
157.347
209.388
252.4
273.808
279.081
274.531
265.128
254.664
243.322
227.027
213.693
206.476
205.31
206.905
208.109
209.824
214.782
1.26547
4.43283
7.45269
10.6014
13.3888
15.804
18.0427
20.3202
22.2493
24.0574
26.5727
28.2044
28.8847
29.3942
29.1708
29.185
30.5233
32.5509
34.2198
35.6112
36.7151
36.8374
36.336
33.8561
30.1474
24.8033
16.061
3.44809
-14.6306
-36.4311
-59.3452
-80.9169
-101.613
-120.895
-139.483
-190.505
-249.499
-387.532
-534.233
-786.919
-1032.28
-1019.44
-1037.76
-1194.63
-1236.67
-1251.77
-1034.74
-939.476
-525.487
335.475
763.005
-2020.9
-6654.31
-11067
-13257.4
-14159.9
-12902.3
-9544.73
-4156.33
-1284.4
-290.302
55.5909
172.561
228.526
272.799
292.62
295.381
287.881
275.296
262.252
249.804
232.937
219.287
211.919
210.952
212.644
213.543
214.675
219.362
1.27508
4.64367
7.76906
11.0648
13.9261
16.3863
18.6576
20.9693
22.8473
24.5518
26.9624
28.5786
29.0656
29.347
29.0132
28.9856
30.2616
32.4499
34.5564
36.3385
37.8202
38.1928
37.8301
35.4185
31.4169
26.0776
17.1228
4.24373
-14.2042
-36.7168
-60.7212
-83.5856
-106.283
-129.268
-151.818
-209.253
-276.294
-432.229
-593.448
-883.047
-1183.02
-1158.23
-1173.25
-1346.56
-1410.02
-1473.77
-1354.79
-1413.93
-986.612
-125.528
136.09
-2850.35
-7625.75
-12020.2
-14038.4
-14804.6
-13344
-10449.2
-4859.57
-1543.45
-371.975
40.1914
182.33
245.604
291.576
310.057
310.49
299.985
284.208
268.532
255.216
238.136
224.387
216.914
216.194
217.975
218.673
219.295
223.508
1.28129
4.86177
8.09821
11.5455
14.474
16.9708
19.2623
21.587
23.3666
24.9408
27.1555
28.7027
28.9774
28.9578
28.5128
28.5358
29.8154
32.1683
34.7799
37.0035
38.8565
39.4692
39.2186
36.9531
32.6665
27.2135
18.0305
4.84475
-13.8738
-37.0182
-62.1966
-86.7449
-112.012
-139.463
-167.136
-232.759
-309
-488.368
-672.503
-1009.44
-1371.7
-1325.24
-1329.32
-1517.31
-1600.23
-1719.77
-1714.37
-1980.54
-1570.44
-737.7
-626.562
-3741.47
-8660.44
-13047
-14896
-15382.6
-13754
-11223.4
-5549.77
-1825.7
-468.735
15.9908
185.474
259.876
308.016
325.691
324.153
310.657
291.807
273.64
259.619
242.586
228.971
221.437
220.967
222.912
223.537
223.685
227.422
1.28413
5.08889
8.44138
12.0435
15.0325
17.5571
19.8535
22.1644
23.7793
25.1926
27.1257
28.5084
28.5544
28.2014
27.6742
27.8568
29.2054
31.7339
34.9253
37.6634
39.8469
40.7001
40.5223
38.45
33.9583
28.2796
18.8492
5.27822
-13.6722
-37.3888
-63.7888
-90.3459
-118.732
-151.463
-185.055
-260.04
-346.102
-554.197
-772.039
-1175.27
-1609.96
-1530.42
-1510.69
-1708.86
-1808.7
-1991.87
-2118.14
-2619.38
-2258.51
-1491.4
-1513.16
-4702.8
-9770.12
-14158.6
-15850.5
-15960.7
-14234.8
-11892.4
-6196.97
-2126.05
-580.923
-17.7304
181.922
270.259
321.806
339.23
336.184
319.826
297.968
277.647
263.093
246.311
233.011
225.482
225.215
227.498
228.154
227.836
231.214
1.28322
5.32607
8.79851
12.5544
15.6013
18.1452
20.4273
22.6965
24.068
25.2669
26.8528
27.9581
27.7496
27.1108
26.5578
26.9881
28.4751
31.1993
35.0187
38.3481
40.8282
41.9848
41.855
39.9553
35.3299
29.3414
19.6422
5.62754
-13.599
-37.9142
-65.6236
-94.4663
-126.473
-165.229
-205.441
-290.602
-386.919
-627.973
-890.339
-1381.99
-1906.74
-1783.38
-1723.21
-1923.47
-2036.91
-2292
-2573
-3302.21
-3023.12
-2372.22
-2522.49
-5732.78
-10943.7
-15332.2
-16882.9
-16567.1
-14772.4
-12467
-6782.06
-2435.55
-708.822
-61.7862
171.649
275.589
332.655
350.216
346.172
327.322
302.772
280.686
265.708
249.316
236.501
229.054
228.953
231.744
232.519
231.788
234.876
1.27856
5.57347
9.16381
13.0744
16.1814
18.7343
20.9766
23.1785
24.2415
25.1335
26.3323
27.0732
26.5877
25.758
25.2791
26.0219
27.7153
30.6633
35.1146
39.0922
41.8572
43.4035
43.3262
41.5346
36.8167
30.4754
20.457
5.96323
-13.6278
-38.6323
-67.8021
-99.1952
-135.286
-180.804
-228.458
-324.7
-431.594
-708.514
-1025.44
-1629.22
-2268.75
-2092.12
-1973.3
-2163.6
-2286.69
-2620.99
-3088
-4049.03
-3889.17
-3391.46
-3658.63
-6828.9
-12175
-16549.9
-17973.6
-17218.4
-15314.6
-12953.8
-7297.31
-2741.66
-850.837
-116.377
154.524
275.163
339.785
358.358
353.894
332.979
306.203
282.787
267.544
251.628
239.469
232.165
232.24
235.637
236.627
235.502
238.347
1.26951
5.8292
9.53094
13.6018
16.7743
19.3262
21.4932
23.5967
24.3183
24.7836
25.5741
25.9156
25.1722
24.2336
23.9403
25.0869
27.086
30.2806
35.3399
40.0145
43.0508
44.9721
45.003
43.2279
38.4486
31.7366
21.3448
6.3356
-13.7389
-39.5496
-70.3681
-104.589
-145.227
-198.21
-254.159
-362.499
-480.276
-794.946
-1178.75
-1924.77
-2703.39
-2463.36
-2267.62
-2431.81
-2560.1
-2978.3
-3673.35
-4920.09
-4880.01
-4545.98
-4915.99
-7991.34
-13466.6
-17805.6
-19112.2
-17934.4
-15830.3
-13367.4
-7741.76
-3030.76
-1001.05
-179.917
130.86
269.112
342.589
363.621
359.164
336.672
308.237
283.964
268.688
253.331
241.962
234.828
235.123
239.188
240.484
239.035
241.503
1.25462
6.08958
9.89917
14.1379
17.3838
19.9249
21.9723
23.9286
24.2963
24.2189
24.5936
24.5658
23.657
22.7028
22.6599
24.2799
26.7256
30.217
35.8234
41.2191
44.5697
46.7323
46.9208
45.0799
40.2276
33.1405
22.3418
6.78129
-13.9225
-40.6607
-73.3336
-110.682
-156.304
-217.315
-282.168
-403.595
-532.626
-886.822
-1355.74
-2282.87
-3221.26
-2903.27
-2612.89
-2730.82
-2858.89
-3363.73
-4326.23
-5910.34
-5970.53
-5798.15
-6275.11
-9219.58
-14814.5
-19089
-20286.9
-18733.2
-16314.6
-13726.2
-8117
-3292.61
-1151.82
-250.47
100.845
257.953
341.185
365.651
361.73
338.365
308.964
284.328
269.238
254.518
244.023
237.059
237.627
242.415
244.104
242.32
244.874
1.23349
6.3528
10.2698
14.6869
18.0131
20.5364
22.4177
24.1559
24.1691
23.4825
23.4382
23.1592
22.223
21.3855
21.6274
23.7054
26.6945
30.5644
36.6377
42.6976
46.4269
48.7392
49.0715
47.1596
42.1611
34.6935
23.4834
7.32594
-14.1419
-41.9397
-76.7083
-117.507
-168.488
-237.815
-311.728
-447.226
-588.216
-984.65
-1563.66
-2718.26
-3835.13
-3417.73
-3016.05
-3063.3
-3184.33
-3777.07
-5032.71
-6960.14
-7115.29
-7081.87
-7707.19
-10508.8
-16199.5
-20373.8
-21472.5
-19611.1
-16771.7
-14042.6
-8424.86
-3523.27
-1297.43
-326.205
64.7161
242.124
335.83
364.163
361.619
338.149
308.483
284
269.312
255.286
245.704
238.903
239.785
245.349
247.495
245.471
247.729
1.2076
6.62047
10.6419
15.2481
18.6638
21.1687
22.8448
24.2573
23.9132
22.6385
22.1841
21.823
21.0206
20.4443
21.0216
23.5054
27.0356
31.3422
37.8148
44.418
48.5409
50.9732
51.3959
49.4903
44.2924
36.411
24.8027
8.00105
-14.3212
-43.333
-80.4671
-125.102
-181.761
-259.333
-342.047
-492.792
-647.156
-1090.18
-1810.19
-3243.03
-4556.48
-4012.37
-3484.1
-3431.43
-3537.21
-4216.45
-5781.52
-8008.62
-8234.09
-8319.39
-9173.49
-11850.3
-17586.2
-21609.9
-22626
-20535
-17199
-14317
-8666.2
-3723.92
-1434.25
-404.346
23.436
222.12
326.804
359.375
359.05
336.206
306.947
283.097