/*--------------------------------*- C++ -*----------------------------------*\
| =========                 |                                                 |
| \\      /  F ield         | OpenFOAM: The Open Source CFD Toolbox           |
|  \\    /   O peration     | Version:  4.1                                   |
|   \\  /    A nd           | Web:      www.OpenFOAM.org                      |
|    \\/     M anipulation  |                                                 |
\*---------------------------------------------------------------------------*/
FoamFile
{
    version     2.0;
    format      ascii;
    class       surfaceScalarField;
    location    "3";
    object      phi;
}
// * * * * * * * * * * * * * * * * * * * * * * * * * * * * * * * * * * * * * //

dimensions      [0 3 -1 0 0 0 0];

internalField   nonuniform List<scalar> 
13220
(
-903.888
2203.86
-1408.23
1804.61
-1878.6
1770.33
-2238.63
1659.99
-2514.87
1576.49
-2710.91
1496
-2828.67
1417.71
-2868.57
1340.13
-2829.76
1261.13
-2709.26
1179.44
-2508.59
1099.55
-2226.64
1018.01
-1828.26
901.576
-1210.09
682.1
89.8127
22.3828
2181.59
-2.819
1829.94
-109.892
1877.54
-187.615
1737.86
-268.051
1657.06
-332.796
1560.87
-381.282
1466.32
-411.076
1370.04
-424.438
1274.59
-425.564
1180.65
-417.997
1092.04
-407.16
1007.27
-357.516
852.044
-128.279
453.253
-38.4339
-94.5987
2276.26
-257.805
1993.22
-418.005
2037.8
-502.444
1822.37
-578.308
1733.03
-617.643
1600.29
-631.395
1480.17
-621.803
1360.53
-596.163
1249.05
-562.599
1147.27
-520.561
1050.12
-456.728
943.868
-358.466
754.411
-203.73
300.023
-242.177
26.9344
2249.32
1.30331
2018.85
-11.4121
2050.52
16.9411
1794.02
40.5304
1709.43
90.5811
1550.26
154.31
1416.47
237.333
1277.55
341.435
1145.02
465.838
1022.83
596.402
919.66
707.133
832.814
723.706
737.562
483.205
540.086
241.025
32.4017
2216.84
37.3448
2013.81
53.0278
2034.74
69.3175
1777.63
78.8475
1699.8
95.4254
1533.56
105.575
1406.19
132.671
1250.31
216.824
1060.72
379.598
859.891
559.355
739.69
659.54
732.628
621.835
775.16
391.333
770.435
632.352
-28.8663
2245.59
-117.348
2102.18
-174.476
2091.75
-249.784
1852.81
-329.875
1779.76
-409.869
1613.43
-497.335
1493.52
-561.418
1314.27
-547.99
1047.13
-413.255
724.954
-197.518
523.843
17.49
517.094
150.688
641.476
125.288
795.311
757.635
4.10264
2241.38
-163.446
2269.62
-264
2192.2
-372.807
1961.51
-486.286
1893.13
-601.004
1728.05
-725.564
1617.99
-856.322
1444.95
-993.664
1184.39
-1105.51
836.699
-1117.41
535.699
-950.589
350.071
-615.141
305.801
-240.379
420.239
517.256
129.474
2111.85
3.76901
2395.26
-56.9737
2252.87
-109.841
2014.3
-152.474
1935.7
-200.226
1775.73
-248.253
1665.96
-318.838
1515.46
-447.646
1313.13
-649.88
1038.88
-855.612
741.362
-952.61
447.106
-827.01
180.219
-482.721
75.9613
34.5288
209.919
1901.89
185.109
2420.04
181.223
2256.73
195.429
2000.06
231.748
1899.33
259.503
1747.94
296.206
1629.22
317.706
1493.94
294.018
1336.8
188.504
1144.33
11.0775
918.822
-197.879
655.608
-345.305
326.907
-268.925
-1.2262
-234.386
196.642
1705.25
232.804
2383.87
260.38
2229.15
301.202
1959.23
359.086
1841.45
411.144
1695.87
467.879
1572.48
520.162
1441.64
553.142
1303.81
546.683
1150.82
488.235
977.203
369.095
775.102
181.429
515.075
-14.0148
194.961
-248.405
137.673
1567.6
179.68
2341.88
210.841
2198.01
247.943
1922.16
291.451
1797.97
332.843
1654.51
371.721
1533.63
408.71
1404.69
437.477
1275.08
447.804
1140.5
431.941
993.134
378.649
828.234
274.082
619.506
113.711
355.076
-134.681
103.988
1463.65
143.906
2302
157.651
2184.31
167.906
1911.95
188.822
1777.11
210.587
1632.79
233.483
1510.79
255.556
1382.65
274.976
1255.69
287.334
1128.21
286.869
993.609
267.312
848.014
218.858
668.206
129.309
445.429
-5.3704
136.948
1326.74
219.141
2219.84
264.095
2139.39
305.895
1870.18
354.406
1728.63
385.032
1602.19
399.38
1496.47
399.539
1382.52
389.644
1265.61
372.238
1145.64
344.62
1021.25
302.557
890.076
240.205
730.581
148.903
536.811
143.535
256.055
1070.71
360.75
2115.16
326.457
2173.7
251.127
1945.52
222.807
1756.98
231.939
1593.08
278.422
1450.01
345.575
1315.38
414.665
1196.53
467.657
1092.67
501.239
987.672
488.549
902.821
406.014
813.156
239.553
703.341
383.085
393.288
1217.93
1790.3
2051.74
2074.93
1962.95
1729.29
1485.87
1281.89
1156.63
1040.57
920.254
724.433
436.325
-0.00253623
152.389
-152.395
152.385
152.382
152.379
264.471
-112.095
264.468
264.465
264.462
349.146
-84.6871
349.143
349.14
413.901
-64.7642
413.898
413.895
413.892
448.766
-34.8771
448.763
448.76
462.803
-14.0468
462.8
462.797
462.794
456.652
6.13856
456.648
456.645
456.642
437.964
18.6741
437.96
437.956
402.819
35.1335
402.815
402.811
402.807
359.781
43.0222
359.776
359.773
306.571
53.1966
306.568
306.563
306.56
260.449
46.105
260.446
260.441
260.439
234.531
25.9016
234.528
234.523
279.016
-44.4953
279.011
279.009
279.004
338.729
-59.7255
338.723
338.722
338.716
271.794
66.9218
271.787
271.787
94.1498
177.63
94.1499
94.1427
94.1447
-187.871
282.008
-187.871
-187.879
-1019.14
831.267
-1019.15
-1019.15
-1019.15
-2360.41
1341.26
-2360.42
-2360.41
-2360.42
-4024.35
1663.94
-4024.36
-4024.34
-5965.42
1941.07
-5965.39
-5965.4
-5809.04
-5656.77
-5505.94
-7452.74
2101.12
-7301.98
-7123.95
-6936.39
-6747.63
-6569.18
-6378.4
-6193.29
-6021.34
-8101.97
2271.08
-7908.2
-7714.26
-7519.73
-7324.9
-7130.48
-6932.36
-6743.34
-6564.39
-8774.63
2412.17
-8569.8
-8363.61
-8155.97
-7946.71
-7733.16
-7512.25
-7288.12
-7059.39
-6824.87
-9256.17
2666.25
-9004.17
-8746.8
-8484.63
-8218.52
-7948.24
-7663.5
-7368.82
-7070.74
-9585.37
2798.78
-9290.85
-8987.85
-8672.66
-8356.77
-8040.03
-7724.1
-7408.31
-7073.47
-9027.13
2267.85
-8707.44
-8390.07
-8075.04
-7746.6
-7413.96
-7084.39
-6757.2
-6435.35
-7541.97
1421.43
-7216.37
-6896.69
-6582.01
-6273.72
-5972.1
-5656.82
-5349.28
-5048.09
-4756.26
-4735.4
273.492
-4469.33
-4216.68
-3971.12
-3733.08
-3499.87
-3303.72
-3179.37
-3052.52
-2683.98
-235.58
-2565.39
-2445.84
-2445.84
-2222.95
-222.877
-1999.71
-223.236
-1999.71
-1798.33
-201.383
-1798.33
-1611.19
-187.144
-1444.53
-166.664
-1444.53
-1273.46
-171.082
-1116.13
-157.327
-1116.14
-950.116
-166.02
-950.12
-776.493
-173.628
-612.658
-163.839
-612.658
-430.325
-182.337
-430.325
-228.409
-201.921
-36.6672
-191.741
-36.6706
182.574
-219.243
389.07
-206.501
389.071
605.321
-216.254
605.323
839.636
-234.316
1070.78
-231.139
1070.77
1297.96
-227.18
1297.95
1531.48
-233.519
1773.06
-241.592
1773.07
2004.68
-231.62
2244.1
-239.409
2244.1
2494.01
-249.908
2494
2739.19
-245.179
2988.14
-248.957
2988.14
3258.56
-270.414
3258.56
3533.37
-274.812
3807.84
-274.474
3807.84
4096.62
-288.779
4377.36
-280.736
4377.36
4674.01
-296.648
4674.01
4971.25
-297.249
5241.42
-270.162
5241.42
5508.79
-267.372
5508.79
5760.71
-251.914
5967.99
-207.282
5967.99
6179.19
-211.202
6338.77
-159.577
6338.77
6502.59
-163.821
6502.59
6664.06
-161.466
6778.94
-114.887
6778.94
6909.55
-130.608
6909.55
7050.42
-140.866
7157.02
-106.6
7157.02
7300.33
-143.309
7409.04
-108.716
7409.04
7551.85
-142.805
7551.85
-170.8
-353.398
-1671.69
-354.206
-2142.67
-357.498
-2435.06
-360.916
-2720.68
-365.334
-2992.02
-370.195
-3245.97
-375.898
-3487.75
-382.223
-3718.46
-389.05
-3940.97
-396.429
-4154.49
-404.021
-4358.75
-411.222
-4552.39
-417.363
-4733.06
-421.672
-4904.11
-423.887
-5067.33
-424.438
-5214.94
-423.883
-5327.95
-422.787
-5394.91
-421.099
-5422.92
-418.085
-5424.96
-413.203
-5405.61
-406.645
-5359.2
-399.156
-5275.18
-391.154
-5140.24
-382.393
-4945.04
-372.163
-4684.48
-358.781
-4333.57
-337.37
-3855.36
-298.839
-3196.63
-205.036
-2110.63
36.8075
636.874
79.258
3040.13
141.905
4413.84
211.006
5679.09
264.162
6376.75
241.568
6492.97
257.559
6980.72
419.386
10377.9
403.17
11577.7
273.833
12304.5
236.842
17723.6
203.395
24176.6
138.879
29228.1
40.2994
33003.7
-95.3305
33518.9
-334.779
31776.2
-442.536
30772.9
-562.189
20067.1
-801.451
6295.73
-988.48
7543.02
-1020.44
12081.3
-882.64
15467.8
-617.733
15674.9
-152.948
12459.4
723.026
2789.25
1357.1
-4270.44
1698.14
-6089.9
1844.59
-6423.55
1867.2
-6304.41
1822.57
-6004.14
1748.52
-5765.65
1664.09
-5716.66
1577.16
-5869.38
1487.63
-6175.46
1395.36
-6550
1302.47
-6917.18
1204.11
-7305.55
1095.33
-7769.26
988.201
-8150.66
905.616
-8224.2
851.459
-8020.32
799.897
-7674.85
718.469
-7314.9
595.347
-6922.99
431.733
-6605.41
285.827
-6453.29
213.961
-6387.66
208.807
-6414
-6949.88
-381.663
-1674.36
-381.186
-2143.15
-383.82
-2432.42
-386.633
-2717.87
-390.588
-2988.07
-395.02
-3241.54
-400.376
-3482.4
-406.522
-3712.31
-413.293
-3934.2
-420.728
-4147.06
-428.476
-4351
-435.875
-4544.99
-442.158
-4726.77
-446.514
-4899.76
-448.705
-5065.14
-449.139
-5214.51
-448.272
-5328.82
-446.694
-5396.49
-444.381
-5425.23
-440.72
-5428.63
-435.352
-5410.98
-428.627
-5365.92
-421.481
-5282.33
-414.521
-5147.2
-407.657
-4951.9
-399.987
-4692.15
-389.264
-4344.29
-369.46
-3875.17
-330.994
-3235.1
-236.998
-2204.63
62.7028
337.174
120.896
2981.94
152.519
4382.21
216.544
5615.07
271.726
6321.57
256.234
6508.46
271.063
6965.89
418.862
10230.1
401.844
11594.7
275.843
12430.5
234.251
17765.2
196.031
24214.8
124.527
29299.6
15.4113
33112.8
-126.263
33660.6
-378.632
32028.5
-487.312
30881.6
-557.087
20136.9
-803.14
6541.78
-962.347
7702.23
-905.086
12024.1
-668.036
15230.7
-495.893
15502.8
-251.511
12215
792.865
1744.87
1476.29
-4953.87
1835.5
-6449.11
1974.57
-6562.62
1977.07
-6306.91
1912.1
-5939.17
1822.67
-5676.22
1728.8
-5622.78
1637.2
-5777.79
1546.39
-6084.65
1456.66
-6460.27
1367.82
-6828.33
1268.04
-7205.77
1150.56
-7651.78
1035.43
-8035.53
951.747
-8140.52
898.449
-7967.02
845.007
-7621.41
761.545
-7231.44
642.842
-6804.29
486.584
-6449.16
330.895
-6297.6
232.382
-6289.15
188.922
-6370.54
-6903.76
-399.721
-1677.87
-398.584
-2144.28
-400.747
-2430.26
-403.235
-2715.38
-406.908
-2984.4
-411.122
-3237.33
-416.286
-3477.23
-422.418
-3706.18
-429.284
-3927.33
-436.834
-4139.51
-444.738
-4343.1
-452.308
-4537.42
-458.715
-4720.37
-463.173
-4895.3
-465.529
-5062.78
-466.149
-5213.89
-465.328
-5329.64
-463.696
-5398.12
-461.316
-5427.61
-457.696
-5432.25
-452.645
-5416.03
-446.676
-5371.89
-440.748
-5288.25
-435.472
-5152.47
-430.83
-4956.54
-425.553
-4697.43
-416.638
-4353.21
-397.068
-3894.74
-356.697
-3275.47
-261.591
-2299.73
55.4397
20.1431
168.648
2868.73
191.286
4359.57
227.513
5578.84
274.351
6274.73
263.554
6519.26
276.399
6953.04
416.813
10089.7
400.883
11610.7
274.614
12556.8
229.113
17810.7
185.574
24258.3
104.982
29380.2
-15.4826
33233.3
-168.959
33814.1
-433.715
32293.3
-536.501
30984.4
-587.064
20187.4
-789.193
6743.91
-856.376
7769.41
-697.933
11865.6
-476.953
15009.7
-458.191
15484
-276.211
12033
829.435
639.229
1539.11
-5663.54
1927.68
-6837.68
2073.57
-6708.51
2068.88
-6302.22
1992.49
-5862.78
1891.59
-5575.32
1788.67
-5519.86
1690.88
-5680
1597.45
-5991.22
1508.58
-6371.39
1421.66
-6741.42
1322.52
-7106.63
1203.49
-7532.75
1086.11
-7918.15
1000.59
-8055
943.913
-7910.34
886.206
-7563.7
800.58
-7145.82
684.112
-6687.82
534.163
-6299.21
374.13
-6137.57
255.401
-6170.42
190.381
-6305.52
-6822.1
-420.505
-1682.08
-418.724
-2146.06
-420.431
-2428.56
-422.629
-2713.18
-426.054
-2980.97
-430.081
-3233.3
-435.097
-3472.22
-441.258
-3700.02
-448.297
-3920.29
-456.025
-4131.78
-464.165
-4334.96
-471.999
-4529.58
-478.587
-4713.78
-483.179
-4890.71
-485.717
-5060.24
-486.59
-5213.01
-485.93
-5330.3
-484.368
-5399.69
-482.11
-5429.87
-478.777
-5435.58
-474.397
-5420.41
-469.68
-5376.61
-465.585
-5292.35
-462.737
-5155.32
-461.082
-4958.2
-458.899
-4699.61
-452.324
-4359.78
-433.35
-3913.71
-390.961
-3317.86
-292.651
-2398.04
25.6343
-298.142
201.151
2693.21
237.327
4323.4
249.832
5566.33
279.46
6245.1
267.402
6531.32
279.083
6941.36
413.541
9955.21
400.054
11624.2
273.533
12683.3
223.38
17860.9
174.064
24307.7
83.688
29470.6
-48.8959
33365.9
-216.845
33982
-492.812
32569.3
-591.131
31082.7
-625.866
20222.2
-766.983
6885.03
-716.504
7718.93
-464.098
11613.2
-298.237
14843.9
-412.453
15598.2
-242.903
11863.5
910.845
-514.519
1648.48
-6401.18
2059.59
-7248.78
2201.71
-6850.62
2181.38
-6281.89
2087.86
-5769.26
1971.93
-5459.39
1857.57
-5405.5
1751.88
-5574.31
1654.88
-5894.22
1565.99
-6282.51
1480.27
-6655.69
1382.16
-7008.52
1262.4
-7412.99
1142.37
-7798.12
1053.53
-7966.16
992.86
-7849.67
931.558
-7502.4
844.206
-7058.46
729.073
-6572.68
583.578
-6153.71
419.534
-5973.52
282.901
-6033.78
204.918
-6227.54
-6760.49
-440.278
-1686.79
-437.991
-2148.35
-439.273
-2427.27
-441.254
-2711.2
-444.51
-2977.72
-448.415
-3229.4
-453.33
-3467.3
-459.544
-3693.81
-466.809
-3913.03
-474.773
-4123.81
-483.182
-4326.55
-491.333
-4521.43
-498.146
-4706.97
-502.948
-4885.91
-505.786
-5057.41
-507.119
-5211.68
-506.945
-5330.48
-505.835
-5400.8
-504.121
-5431.59
-501.558
-5438.14
-498.49
-5423.48
-495.791
-5379.31
-494.349
-5293.79
-494.762
-5154.91
-496.817
-4956.14
-498.234
-4698.19
-494.174
-4363.84
-475.749
-3932.14
-431.148
-3362.46
-329.317
-2499.87
-20.6088
-606.85
213.256
2459.35
276.093
4260.56
279.042
5563.39
291.171
6232.97
273.201
6549.29
280.999
6933.57
410.128
9826.08
399.545
11634.7
272.619
12810.2
217.626
17915.9
161.736
24363.5
60.3099
29572
-85.7843
33512
-270.474
34166.7
-557.454
32856.2
-651.467
31176.7
-665.448
20236.1
-730.733
6950.31
-546.121
7534.32
-212.376
11279.5
-113.089
14744.6
-331.597
15816.7
-150.194
11682.1
1027.1
-1691.81
1793.34
-7167.43
2220.58
-7676.02
2350.35
-6980.38
2307.36
-6238.9
2191.59
-5653.5
2057.28
-5325.08
1929.39
-5277.61
1814.6
-5459.52
1713.41
-5793.02
1623.93
-6193.03
1539.06
-6570.82
1442.84
-6912.31
1324.24
-7294.39
1202.51
-7676.39
1109.27
-7872.92
1043.29
-7783.69
978.214
-7437.32
889.209
-6969.46
774.323
-6457.8
632.669
-6012.06
467.224
-5808.08
314.852
-5881.41
203.78
-6116.47
-6663.31
-459.991
-1691.83
-457.326
-2151.02
-458.194
-2426.41
-459.984
-2709.41
-463.161
-2974.54
-467.013
-3225.54
-471.842
-3462.47
-478.123
-3687.52
-485.666
-3905.48
-493.939
-4115.54
-502.65
-4317.84
-511.152
-4512.93
-518.257
-4699.86
-523.37
-4880.79
-526.658
-5054.12
-528.66
-5209.68
-529.302
-5329.83
-529.084
-5401.01
-528.419
-5432.25
-527.197
-5439.36
-526.101
-5424.58
-526.182
-5379.23
-528.258
-5291.72
-532.795
-5150.37
-539.29
-4949.65
-544.782
-4692.7
-543.357
-4365.27
-525.423
-3950.07
-478.603
-3409.28
-373.071
-2605.41
-77.2357
-902.685
203.54
2178.57
300.953
4163.15
309.597
5554.74
308.829
6233.74
283.636
6574.48
284.241
6932.96
407.644
9702.68
400.221
11642.2
272.288
12938.2
212.349
17975.8
149.097
24426.8
35.3736
29685.7
-125.98
33673.3
-329.351
34370.1
-627.386
33154.3
-716.232
31265.5
-703.172
20223.1
-678.224
6925.36
-350.183
7206.28
44.834
10884.5
81.2333
14708.2
-196.648
16094.6
19.257
11466.2
1190.42
-2862.97
1985.81
-7962.81
2421.42
-8111.63
2528.81
-7087.77
2455.02
-6165.11
2310.78
-5509.26
2153.54
-5167.84
2009
-5133.08
1883.26
-5333.78
1776.63
-5686.39
1685.48
-6101.88
1600.88
-6486.22
1506.87
-6818.3
1390.3
-7177.81
1266.89
-7552.99
1168.15
-7774.17
1096.34
-7711.89
1027.92
-7368.9
937.453
-6878.99
821.622
-6341.97
681.971
-5872.41
516.398
-5642.51
351.98
-5716.99
232.178
-5996.66
-6572
-479.436
-1697.04
-476.55
-2153.9
-477.008
-2425.95
-478.596
-2707.82
-481.753
-2971.38
-485.633
-3221.66
-490.404
-3457.7
-496.759
-3681.17
-504.606
-3897.64
-513.256
-4106.89
-522.34
-4308.76
-531.233
-4504.03
-538.72
-4692.38
-544.289
-4875.22
-548.228
-5050.18
-551.169
-5206.74
-553.018
-5327.98
-554.223
-5399.81
-555.234
-5431.24
-556.078
-5438.52
-557.731
-5422.92
-561.44
-5375.52
-567.959
-5285.2
-577.491
-5140.84
-589.095
-4938.04
-598.978
-4682.82
-600.122
-4364.12
-582.494
-3967.7
-533.556
-3458.22
-424.839
-2714.12
-138.934
-1188.59
180.083
1859.55
313.583
4029.65
338.245
5530.08
329.254
6242.73
298.352
6605.38
290.322
6940.99
407.013
9585.99
402.936
11646.2
273.405
13067.7
208.24
18041
136.939
24498.1
9.9042
29812.7
-168.51
33851.7
-392.328
34593.9
-701.289
33463.2
-784.458
31348.7
-739.035
20177.7
-613.566
6799.9
-136.297
6729.01
299.094
10449.1
281.529
14725.8
-2.55931
16378.7
290.599
11173
1413.76
-3986.14
2233.87
-8782.92
2667.92
-8545.69
2741.57
-7161.42
2627.46
-6051.01
2447.39
-5329.19
2261.67
-4982.12
2096.65
-4968.06
1957.76
-5194.89
1844.26
-5572.9
1750.32
-6007.93
1665.5
-6401.4
1573.82
-6726.63
1459.81
-7063.81
1334.89
-7428.07
1230.2
-7669.48
1152.31
-7634
1080.37
-7296.96
987.939
-6786.56
870.227
-6224.26
731.169
-5733.35
565.839
-5477.18
392.141
-5543.3
238.251
-5842.77
-6464.36
-498.612
-1702.31
-495.652
-2156.86
-495.755
-2425.84
-497.129
-2706.45
-500.277
-2968.24
-504.266
-3217.68
-509.078
-3452.89
-515.526
-3674.72
-523.665
-3889.5
-532.732
-4097.82
-542.276
-4299.21
-551.62
-4494.69
-559.592
-4684.4
-565.793
-4869.02
-570.649
-5045.32
-574.863
-5202.52
-578.389
-5324.46
-581.663
-5396.54
-585.114
-5427.79
-588.858
-5434.78
-594.165
-5417.62
-602.47
-5367.21
-614.397
-5273.27
-629.76
-5125.47
-647.003
-4920.8
-661.377
-4668.45
-664.819
-4360.68
-647.168
-3985.35
-596.203
-3509.18
-485.586
-2824.74
-212.566
-1461.61
141.327
1505.66
313.502
3857.47
359.183
5484.4
348.837
6253.08
315.535
6638.68
299.411
6957.11
409.042
9476.36
408.505
11646.8
276.926
13199.3
206.131
18111.8
126.121
24578.1
-15.2094
29954.1
-212.573
34049.1
-458.573
34839.9
-778.406
33783.1
-855.823
31426.1
-773.21
20095
-540.163
6566.85
83.4928
6105.35
541.936
9990.63
494.109
14773.6
254.752
16618
675.67
10752.1
1716.11
-5026.58
2550.27
-9617.08
2969.47
-8964.89
2995.93
-7187.88
2829.94
-5885.02
2605.05
-5104.3
2384.15
-4761.22
2194.08
-4777.98
2039.36
-5040.17
1917.26
-5450.8
1819.16
-5909.84
1733.36
-6315.6
1643.96
-6637.22
1533.12
-6952.96
1407.2
-7302.16
1296.53
-7558.81
1212.15
-7549.62
1135.94
-7220.75
1040.63
-6691.25
920.028
-6103.65
780.121
-5593.44
615.24
-5312.3
435.018
-5363.07
265.166
-5672.92
-6314.08
-517.499
-1707.57
-514.542
-2159.82
-514.398
-2425.99
-515.59
-2705.25
-518.72
-2965.11
-522.876
-3213.52
-527.861
-3447.9
-534.47
-3668.11
-542.91
-3881.06
-552.424
-4088.31
-562.463
-4289.17
-572.304
-4484.85
-580.881
-4675.83
-587.934
-4861.97
-594.045
-5039.21
-599.97
-5196.6
-605.753
-5318.68
-611.886
-5390.4
-618.691
-5420.98
-626.321
-5427.15
-636.312
-5407.63
-650.282
-5353.24
-668.615
-5254.94
-690.542
-5103.55
-713.72
-4897.62
-732.401
-4649.77
-737.64
-4355.44
-719.505
-4003.49
-666.608
-3562.08
-555.272
-2936.08
-297.32
-1719.56
88.9193
1119.42
296.889
3649.5
366.412
5414.87
365.288
6254.2
333.799
6670.17
311.089
6979.82
414.463
9372.98
417.935
11643.3
283.918
13333.3
206.924
18188.8
117.55
24667.5
-39.1748
30110.8
-257.55
34267.5
-527.475
35109.8
-858.545
34114.1
-930.323
31497.9
-806.161
19970.9
-461.461
6222.15
296.172
5347.72
766.921
9519.88
733.912
14806.6
593.761
16758.2
1182.79
10163.1
2123
-5966.78
2951.91
-10446
3336.63
-9349.61
3299.54
-7150.78
3068.09
-5653.57
2787.74
-4823.95
2523.73
-4497.22
2303.25
-4557.5
2129.32
-4866.23
1996.36
-5317.84
1892.51
-5805.99
1804.79
-6227.88
1717.43
-6549.86
1610.33
-6845.87
1484.32
-7176.15
1367.76
-7442.25
1276.14
-7458
1194.61
-7139.21
1095.41
-6592.05
970.988
-5979.23
828.911
-5451.37
664.364
-5147.75
480.197
-5178.91
309.063
-5501.79
-6166.48
-536.147
-1712.8
-533.222
-2162.74
-532.941
-2426.27
-534.006
-2704.19
-537.117
-2961.99
-541.494
-3209.14
-546.753
-3442.65
-553.601
-3661.26
-562.386
-3872.27
-572.394
-4078.3
-582.942
-4278.63
-593.322
-4474.47
-602.654
-4666.49
-610.823
-4853.8
-618.614
-5031.42
-626.826
-5188.39
-635.599
-5309.9
-645.53
-5380.47
-656.762
-5409.75
-669.427
-5414.48
-685.274
-5391.78
-706.045
-5332.47
-731.764
-5229.22
-760.818
-5074.49
-789.891
-4868.55
-812.333
-4627.32
-818.629
-4349.15
-799.457
-4022.66
-744.725
-3616.81
-633.629
-3047.17
-390.582
-1962.61
22.2393
706.601
265.638
3406.11
359.749
5320.76
376.595
6237.35
352.106
6694.66
325.25
7006.68
424.019
9274.21
432.458
11634.9
295.671
13470.1
211.604
18272.8
112.197
24766.9
-61.1708
30284.2
-302.825
34509.1
-598.477
35405.5
-941.75
34457.4
-1008.24
31564.4
-839.519
19802.2
-384.482
5767.11
487.049
4476.19
971.916
9035.01
1020.83
14757.7
1061.22
16717.8
1839.66
9384.61
2673.97
-6801.09
3462.68
-11234.7
3782.74
-9669.67
3661.55
-7029.6
3349
-5341.01
3000.84
-4475.8
2684.3
-4180.67
2426.73
-4299.93
2229.07
-4668.57
2082.38
-5171.16
1971.06
-5694.67
1880.31
-6137.13
1794.36
-6463.91
1691.41
-6742.91
1566.22
-7050.96
1443.74
-7319.77
1344.08
-7358.34
1256.33
-7051.47
1152.37
-6488.09
1023.21
-5850.07
877.488
-5305.65
712.55
-4982.81
525.89
-4992.25
331.074
-5306.97
-5999.23
-554.615
-1717.95
-551.749
-2165.61
-551.396
-2426.62
-552.395
-2703.19
-555.51
-2958.88
-560.188
-3204.46
-565.804
-3437.03
-572.912
-3654.16
-582.072
-3863.11
-592.641
-4067.73
-603.751
-4267.52
-614.745
-4463.47
-625.019
-4656.22
-634.641
-4844.18
-644.647
-5021.41
-655.887
-5177.15
-668.568
-5297.22
-683.403
-5365.64
-700.301
-5392.85
-719.306
-5395.48
-742.293
-5368.79
-771.025
-5303.74
-805.036
-5195.21
-841.528
-5038
-876.02
-4834.06
-901.254
-4602.09
-907.641
-4342.76
-886.841
-4043.46
-830.314
-3673.34
-720.244
-3157.24
-492.864
-2189.99
-68.1239
281.861
216.81
3121.17
341.918
5195.65
381.107
6198.17
369.449
6706.32
342.306
7033.82
438.614
9177.91
453.482
11620
313.717
13609.8
221.331
18365.2
111.141
24877.1
-80.3113
30475.6
-347.74
34776.6
-671.096
35728.8
-1028.22
34814.5
-1090.16
31626.3
-875.672
19587.7
-317.151
5208.59
644.236
3514.8
1160.19
8519.05
1381.21
14536.7
1703.07
16395.9
2690.99
8396.7
3424.08
-7534.17
4115.69
-11926.3
4326.13
-9880.11
4094.09
-6797.56
3681.42
-4928.34
3250.74
-4045.12
2870.37
-3800.3
2567.43
-3996.99
2340.45
-4441.6
2176.69
-5007.4
2055.96
-5573.94
1960.69
-6041.86
1874.96
-6378.17
1776.12
-6644.08
1652.38
-6927.22
1523.94
-7191.32
1415.7
-7250.11
1321.01
-6956.78
1211.37
-6378.45
1076.54
-5715.24
925.771
-5154.88
759.279
-4816.32
571.202
-4804.17
368.894
-5104.67
-5789.91
-572.911
-1723
-570.109
-2168.41
-569.747
-2426.98
-570.772
-2702.17
-573.922
-2955.73
-578.972
-3199.41
-585.065
-3430.94
-592.465
-3646.76
-602.015
-3853.56
-613.206
-4056.54
-624.951
-4255.77
-636.686
-4451.74
-648.156
-4644.75
-659.672
-4832.66
-672.565
-5008.52
-687.763
-5161.95
-705.492
-5279.49
-726.51
-5344.62
-750.456
-5368.91
-777.244
-5368.69
-808.72
-5337.32
-846.524
-5265.93
-889.571
-5152.16
-933.487
-4994.09
-972.409
-4795.13
-999.046
-4575.45
-1004.4
-4337.41
-981.352
-4066.5
-922.993
-3731.7
-814.207
-3266.03
-599.17
-2405.03
-171.595
-145.714
153.27
2796.31
316.707
5032.22
380.882
6133.99
386.256
6700.95
363.27
7056.81
459.414
9081.76
482.533
11596.9
339.795
13752.6
237.505
18467.5
115.633
24999
-95.6307
30686.9
-391.623
35072.6
-744.974
36082.2
-1118.35
35187.9
-1177.05
31685
-916.693
19327.3
-268.675
4560.57
756.405
2489.72
1334.88
7940.58
1839.91
14031.6
2561.42
15674.4
3783.72
7174.4
4434.33
-8184.79
4954.8
-12446.8
4993.72
-9919.04
4614.14
-6417.97
4076.05
-4390.25
3544.37
-3513.44
3086.94
-3342.88
2729.2
-3639.25
2466.62
-4179.01
2281.76
-4822.54
2148.93
-5441.11
2046.77
-5939.7
1959.46
-6290.86
1864.3
-6548.92
1742.31
-6805.23
1608.04
-7057.06
1490.93
-7133
1388.31
-6854.15
1271.76
-6261.9
1130.31
-5573.79
973.367
-4997.94
804.015
-4646.97
615.304
-4615.46
417.704
-4907.06
-5583.4
-591.039
-1727.93
-588.305
-2171.15
-588.009
-2427.28
-589.139
-2701.03
-592.332
-2952.54
-597.757
-3193.99
-604.481
-3424.21
-612.311
-3638.93
-622.311
-3843.56
-634.185
-4044.67
-646.655
-4243.3
-659.328
-4439.07
-672.347
-4631.73
-686.339
-4818.67
-702.965
-4991.9
-723.26
-5141.66
-747.415
-5255.34
-776.076
-5315.96
-808.559
-5336.42
-844.64
-5332.61
-885.936
-5296.02
-933.782
-5218.09
-986.315
-5099.63
-1037.23
-4943.17
-1079.11
-4753.25
-1105.41
-4549.15
-1108.49
-4334.33
-1082.61
-4092.39
-1022.3
-3792.01
-914.699
-3373.63
-708.534
-2611.19
-276.909
-577.339
84.6833
2434.71
287.951
4828.95
378.507
6043.44
403.978
6675.47
389.913
7070.87
487.95
8983.73
521.208
11563.6
375.847
13897.9
261.81
18581.5
127.125
25133.6
-106.084
30920.1
-433.812
35400.3
-819.884
36468.3
-1212.71
35580.7
-1270.27
31742.6
-964.981
19022
-249.3
3844.89
811.236
1429.19
1496.25
7255.56
2391.05
13136.8
3632.14
14433.4
5144.93
5661.61
5755.13
-8794.99
6032.74
-12724.4
5822.65
-9708.95
5243.8
-5839.12
4544.95
-3691.39
3889.07
-2857.56
3339.83
-2793.64
2917.42
-3216.84
2612.32
-3873.91
2401.2
-4611.42
2252.15
-5292.06
2139.64
-5827.2
2048.52
-6199.74
1956.05
-6456.44
1835.75
-6684.93
1696.05
-6917.36
1569.51
-7006.46
1457.28
-6741.92
1332.27
-6136.89
1183.32
-5424.84
1019.53
-4834.15
846.562
-4474
657.51
-4426.41
446.012
-4695.57
-5344.68
-609.031
-1732.72
-606.382
-2173.8
-606.186
-2427.48
-607.469
-2699.75
-610.699
-2949.31
-616.436
-3188.25
-623.918
-3416.73
-632.405
-3630.44
-642.989
-3832.98
-655.648
-4032.01
-669.02
-4229.93
-682.937
-4425.15
-698.001
-4616.67
-715.227
-4801.45
-736.654
-4970.47
-763.434
-5114.87
-795.637
-5223.13
-833.566
-5278.03
-876.136
-5293.85
-922.964
-5285.78
-975.267
-5243.72
-1033.83
-5159.52
-1095.79
-5037.67
-1152.81
-4886.16
-1195.89
-4710.17
-1219.9
-4525.14
-1219.46
-4334.77
-1190.21
-4121.64
-1127.79
-3854.42
-1021.12
-3480.3
-822.352
-2809.96
-387.872
-1011.82
10.5344
2036.31
254.725
4584.76
373.107
5925.05
423.075
6625.51
424.543
7069.41
526.346
8881.92
571.222
11518.7
424.134
14045
296.316
18709.4
147.254
25282.7
-110.58
31177.9
-473.694
35763.4
-895.72
36890.3
-1311.97
35997
-1371.57
31802.2
-1024.43
18674.9
-269.68
3090.14
795.792
363.714
1642.34
6409.01
3007.07
11772.1
4870.9
12569.5
6774.54
3757.97
7412.69
-9433.14
7403.3
-12715
6858.87
-9164.52
6010.07
-4990.32
5102.49
-2783.82
4294.35
-2049.43
3637.15
-2136.44
3139.41
-2719.09
2783.72
-3518.22
2539.35
-4367.06
2368.11
-5120.81
2240.99
-5700.08
2143.41
-6102.16
2051.84
-6364.87
1932.78
-6565.87
1787.87
-6772.45
1650.48
-6869.08
1526.15
-6617.59
1391
-6001.73
1234.03
-5267.87
1063.35
-4663.47
886.994
-4297.64
698.278
-4237.69
495.188
-4492.48
-5101.4
-626.923
-1737.34
-624.376
-2176.34
-624.279
-2427.57
-625.758
-2698.27
-629.065
-2946
-635.016
-3182.3
-643.279
-3408.47
-652.658
-3621.06
-664.038
-3821.6
-677.666
-4018.38
-692.241
-4215.35
-707.864
-4409.53
-725.665
-4598.87
-747.12
-4779.99
-774.681
-4942.91
-809.616
-5079.94
-851.747
-5181
-900.67
-5229.11
-954.803
-5239.72
-1013.68
-5226.9
-1077.92
-5179.48
-1147.34
-5090.1
-1217.97
-4967.04
-1279.73
-4824.4
-1322.19
-4667.71
-1342.04
-4505.29
-1336.96
-4339.85
-1303.92
-4154.68
-1239.31
-3919.04
-1133.39
-3586.22
-942.184
-3001.17
-507.311
-1446.69
-66.6914
1595.69
214.473
4303.6
362.467
5777.06
443.067
6544.91
469.349
7043.12
577.387
8773.88
634.676
11461.5
487.481
14192.2
343.676
18853.2
177.824
25448.6
-108.041
31463.8
-510.751
36166.1
-972.482
37352
-1416.76
36441.3
-1482.92
31868.4
-1101.65
18293.6
-341.79
2330.28
688.33
-666.406
1772.63
5324.71
3666.3
9878.44
6239.01
9996.81
8632.39
1364.59
9398.09
-10198.8
9108.43
-12425.3
8152.36
-8208.45
6945.98
-3783.95
5769.03
-1606.87
4775.05
-1055.44
3990.78
-1352.17
3404.82
-2133.14
2988.17
-3101.56
2700.93
-4079.82
2499.67
-4919.55
2353.06
-5553.47
2245.78
-5994.88
2152.56
-6271.65
2033.86
-6447.18
1883.17
-6621.75
1732.35
-6718.25
1592.79
-6478.04
1445.88
-5854.83
1280.78
-5102.76
1103.93
-4486.62
924.812
-4118.53
736.432
-4049.31
517.578
-4273.62
-4851.2
-644.748
-1741.73
-642.345
-2178.75
-642.344
-2427.57
-644.028
-2696.59
-647.523
-2942.5
-653.661
-3176.16
-662.613
-3399.52
-673.063
-3610.61
-685.524
-3809.14
-700.379
-4003.53
-716.568
-4199.17
-734.551
-4391.54
-756.031
-4577.38
-783.011
-4753.01
-818.36
-4907.56
-863.421
-5034.88
-917.593
-5126.83
-979.257
-5167.44
-1046.23
-5172.75
-1118.15
-5154.98
-1194.8
-5102.84
-1274.51
-5010.39
-1352.22
-4889.32
-1416.9
-4759.72
-1457.18
-4627.43
-1471.53
-4490.93
-1461.01
-4350.37
-1423.95
-4191.74
-1357.13
-3985.85
-1251.93
-3691.42
-1070.29
-3182.81
-654.378
-1862.6
-163.195
1104.51
161.955
3978.45
346.993
5592.02
463.588
6428.31
524.613
6982.1
643.365
8655.13
714.341
11390.5
569.647
14336.9
407.401
19015.4
220.817
25635.1
-97.4676
31782.1
-544.594
36613.2
-1050.25
37857.7
-1527.62
36918.6
-1606.78
31947.5
-1206.81
17893.7
-477.641
1601.12
416.917
-1560.96
1872.33
3869.3
4374
7376.76
7723.11
6647.7
10660.1
-1572.38
11668.3
-11207
11163
-11920.1
9748.65
-6794.09
8090.38
-2125.69
6570.05
-86.5356
5348.37
166.245
4414.03
-417.832
3724.31
-1443.42
3233.12
-2610.37
2890.46
-3737.16
2650.01
-4679.1
2478.5
-5381.96
2357.59
-5873.97
2259.66
-6173.71
2139.81
-6327.33
1981.6
-6463.55
1813.76
-6550.41
1655.5
-6319.78
1495.34
-5694.67
1322.3
-4929.71
1140.63
-4304.95
960.205
-3938.1
771.904
-3861.01
546.704
-4048.42
-4574.65
-662.55
-1745.9
-660.304
-2180.99
-660.451
-2427.43
-662.357
-2694.68
-666.147
-2938.71
-672.549
-3169.76
-682.126
-3389.94
-693.77
-3598.97
-707.609
-3795.3
-724.016
-3987.12
-742.345
-4180.84
-763.557
-4370.33
-789.959
-4550.98
-824.125
-4718.84
-869.316
-4862.37
-926.786
-4977.41
-995.201
-5058.42
-1071.25
-5091.39
-1152.12
-5091.88
-1237.56
-5069.54
-1326.32
-5014.07
-1414.92
-4921.79
-1497.25
-4807
-1562.6
-4694.37
-1599.7
-4590.34
-1608.22
-4482.41
-1592.02
-4366.57
-1550.99
-4232.77
-1482.22
-4054.63
-1378
-3795.63
-1207.57
-3353.24
-831.178
-2239
-287.072
560.4
98.3419
3593.03
329.421
5360.94
483.748
6273.98
586.78
6879.07
723.627
8518.29
813.033
11301.1
675.503
14474.4
492.096
19198.8
278.49
25848.7
-77.979
32138.5
-574.965
37110.2
-1129.15
38411.8
-1644.94
37434.4
-1746.46
32049
-1361.32
17508.5
-723.969
963.763
-253.986
-2030.95
1908.95
1706.37
5185.74
4099.97
9331.51
2501.93
12830.8
-5071.69
14165.5
-12541.7
13544
-11298.5
11675.6
-4925.67
9479.22
70.667
7524.89
1867.79
6024.45
1666.69
4916.89
689.727
4106.68
-633.212
3524.36
-2028.06
3112.23
-3325.02
2823.27
-4390.14
2620.89
-5179.58
2481.64
-5734.73
2375.22
-6067.3
2251.54
-6203.66
2082.83
-6294.83
1893.81
-6361.39
1713.44
-6139.41
1538.73
-5519.96
1358.23
-4749.22
1173.44
-4120.16
993.04
-3757.71
804.609
-3672.58
582.948
-3826.76
-4288.96
-680.392
-1749.86
-678.243
-2183.14
-678.602
-2427.07
-680.857
-2692.43
-685.066
-2934.51
-691.838
-3162.99
-702.097
-3379.68
-715.031
-3586.03
-730.499
-3779.83
-748.886
-3968.73
-770.04
-4159.68
-795.601
-4344.77
-828.523
-4518.06
-871.968
-4675.4
-929.481
-4804.85
-1001.91
-4904.98
-1086.72
-4973.61
-1178.39
-4999.71
-1273.87
-4996.41
-1372.78
-4970.63
-1472.42
-4914.44
-1567.49
-4826.71