/*--------------------------------*- C++ -*----------------------------------*\
| =========                 |                                                 |
| \\      /  F ield         | OpenFOAM: The Open Source CFD Toolbox           |
|  \\    /   O peration     | Version:  4.1                                   |
|   \\  /    A nd           | Web:      www.OpenFOAM.org                      |
|    \\/     M anipulation  |                                                 |
\*---------------------------------------------------------------------------*/
FoamFile
{
    version     2.0;
    format      ascii;
    class       volSymmTensorField;
    location    "3";
    object      R;
}
// * * * * * * * * * * * * * * * * * * * * * * * * * * * * * * * * * * * * * //

dimensions      [0 2 -2 0 0 0 0];

internalField   nonuniform List<symmTensor> 
6785
(
(0.438017 1.10697e-16 1.19055e-16 0.318274 0.0502027 0.587715)
(0.000339022 1.0303e-21 1.25057e-21 0.000337566 5.44186e-07 0.000340706)
(0.000321701 -6.5469e-23 -4.58087e-23 0.000321737 4.59119e-08 0.000321692)
(0.000321689 2.32788e-23 6.69079e-25 0.000321707 3.62408e-08 0.000321678)
(0.000321726 -5.11259e-23 -2.02074e-23 0.000321743 3.45377e-08 0.000321718)
(0.000321655 2.45409e-23 1.82206e-24 0.000321668 3.16269e-08 0.000321648)
(0.000321696 1.24764e-23 2.19985e-24 0.000321707 2.91208e-08 0.000321692)
(0.000321732 -4.80292e-23 -2.29586e-23 0.000321739 2.66093e-08 0.00032173)
(0.000321667 1.20618e-23 1.56344e-24 0.000321671 2.45404e-08 0.000321667)
(0.000321721 1.6662e-23 2.11346e-24 0.000321723 2.29347e-08 0.000321725)
(0.000321744 -2.47393e-23 -8.72709e-24 0.00032174 1.97023e-08 0.00032175)
(0.000321639 2.365e-23 4.68494e-24 0.000321627 1.48959e-08 0.000321644)
(0.000322281 2.22589e-24 -7.39805e-24 0.000322274 3.06379e-09 0.00032228)
(0.000865821 1.21632e-20 8.86775e-21 0.000825496 -5.89522e-05 0.000818516)
(0.561333 3.94479e-17 3.24684e-17 0.447424 -0.177608 0.399768)
(0.516858 1.39023e-16 3.2676e-16 0.217338 -0.0110661 0.868503)
(0.00201429 7.3496e-20 3.1331e-19 0.00147856 -5.13594e-05 0.00251168)
(7.98347e-07 -4.31125e-25 1.82587e-25 7.98286e-07 1.49256e-10 7.9875e-07)
(6.71115e-07 1.47802e-25 2.38249e-25 6.71199e-07 -1.82069e-11 6.70836e-07)
(6.38241e-07 -7.00718e-25 -4.01247e-25 6.38405e-07 1.68962e-11 6.38009e-07)
(6.05476e-07 4.98446e-25 2.77263e-25 6.05612e-07 5.88648e-12 6.0527e-07)
(5.73956e-07 -3.96735e-26 7.74801e-26 5.74081e-07 4.86269e-13 5.73774e-07)
(5.42445e-07 -4.82203e-25 -2.77872e-25 5.42558e-07 -6.11e-12 5.42284e-07)
(5.09805e-07 4.23686e-25 2.37556e-25 5.09907e-07 -1.23548e-11 5.09661e-07)
(4.76967e-07 -5.03694e-26 5.49527e-26 4.77064e-07 -1.42964e-11 4.76843e-07)
(4.45487e-07 -2.76616e-25 -1.64105e-25 4.4557e-07 -1.52455e-11 4.45385e-07)
(4.13588e-07 3.71952e-25 2.12049e-25 4.13629e-07 -8.57497e-11 4.13478e-07)
(2.98054e-06 -1.59167e-23 -8.85179e-24 2.94312e-06 -1.99516e-07 2.88326e-06)
(0.00264953 7.9623e-22 2.46673e-21 0.00259889 -0.000555102 0.0022561)
(0.177862 4.70497e-17 2.14506e-17 0.14613 -0.0911836 0.103675)
(0.593221 1.06531e-16 4.00979e-16 0.197947 -0.0995434 1.07212)
(0.00536086 -3.57916e-19 2.60591e-19 0.00310544 -0.000772457 0.00734193)
(1.49435e-08 -1.70088e-25 1.47126e-25 1.43846e-08 -1.91196e-10 1.54854e-08)
(9.21917e-09 -1.116e-26 -2.36807e-26 9.28248e-09 -4.58292e-11 9.18445e-09)
(7.18939e-07 -2.96299e-23 -1.64712e-23 7.55757e-07 -2.15698e-08 7.03139e-07)
(8.02766e-06 -2.62777e-22 -2.78836e-22 8.92081e-06 -6.70579e-07 7.7019e-06)
(2.00562e-05 2.38831e-21 -1.48162e-21 2.3588e-05 -2.80547e-06 1.93808e-05)
(3.2879e-05 -2.86612e-21 1.45568e-21 3.99082e-05 -6.24229e-06 3.23283e-05)
(5.30631e-05 -1.08558e-20 -1.22074e-21 6.63443e-05 -1.28618e-05 5.35338e-05)
(0.00011996 1.3689e-20 -9.27681e-21 0.00015857 -3.99754e-05 0.000127255)
(0.000420032 -8.05388e-20 4.50477e-20 0.000601943 -0.000197064 0.000479246)
(0.00170452 -7.1889e-19 7.87347e-20 0.00258176 -0.00100126 0.00208895)
(0.00728696 1.78343e-18 -1.57888e-18 0.011339 -0.00498744 0.00961771)
(0.0315316 1.6551e-17 -1.08166e-17 0.0484573 -0.0237027 0.0452668)
(0.028834 -2.19905e-18 1.39166e-18 0.0338082 0.00843472 0.040844)
(0.685067 6.65671e-17 4.96141e-16 0.221899 -0.184996 1.25537)
(0.0143859 -1.18665e-18 -5.00918e-19 0.00711275 -0.003394 0.0216141)
(2.27667e-06 -3.26236e-22 -1.1328e-22 1.60522e-06 -3.31061e-07 2.98172e-06)
(3.31251e-08 -4.26009e-24 -3.75918e-25 3.41786e-08 -3.95701e-09 3.08932e-08)
(1.95063e-06 4.61802e-22 -8.89577e-23 2.66574e-06 -3.37216e-07 1.78374e-06)
(1.92558e-05 4.43341e-21 9.34488e-22 2.49211e-05 -6.58829e-06 2.00766e-05)
(7.77449e-05 -1.55789e-19 7.56408e-20 0.000116081 -3.95439e-05 9.00546e-05)
(0.000160365 2.03062e-19 -7.7995e-20 0.000250301 -0.000103633 0.00019572)
(0.000280748 3.39348e-19 -8.19086e-20 0.000452208 -0.000218485 0.00038046)
(0.000442616 -1.68024e-18 1.02651e-18 0.000680127 -0.000331385 0.000615446)
(0.000730705 -3.99477e-19 7.37708e-19 0.00110116 -0.000509968 0.000978199)
(0.00159162 7.31903e-19 2.32581e-19 0.00240703 -0.000998519 0.00198722)
(0.00486481 -5.19881e-18 2.04143e-18 0.00790539 -0.00342022 0.00609314)
(0.0137275 -1.85341e-18 1.54357e-18 0.0203309 -0.0093097 0.0186941)
(0.0177857 3.02163e-18 1.13461e-19 0.0240645 -0.0120296 0.0208827)
(0.772792 2.69221e-17 4.85639e-16 0.257471 -0.256041 1.41296)
(0.0235574 -3.67295e-18 -4.79831e-18 0.011214 -0.00664038 0.0360258)
(5.10662e-05 -8.67803e-21 -9.30411e-21 2.90123e-05 -1.2957e-05 7.44546e-05)
(6.4924e-07 -3.43134e-22 1.39781e-22 5.77624e-07 -2.07999e-07 8.42403e-07)
(9.30503e-06 -3.68545e-21 -1.86373e-21 1.84167e-05 -4.89914e-06 8.9609e-06)
(7.1235e-05 8.57474e-20 -3.11693e-20 0.000119954 -5.94352e-05 9.00228e-05)
(0.000383567 -1.64552e-18 7.26599e-19 0.00078411 -0.000366644 0.000489061)
(0.00119045 1.56549e-18 -8.61835e-19 0.00239673 -0.00130818 0.00173888)
(0.00308816 1.94897e-18 5.58365e-19 0.0060426 -0.00359227 0.0049505)
(0.00481978 -3.97138e-17 2.34231e-17 0.00868644 -0.00554282 0.00809286)
(0.0039505 -1.08123e-17 2.39006e-18 0.00647346 -0.0041027 0.00647566)
(0.00357471 6.47968e-18 -1.81561e-18 0.00539085 -0.00313789 0.00543871)
(0.00507445 -1.76951e-17 1.64044e-18 0.00849871 -0.00433159 0.00647447)
(0.010368 -2.63458e-17 1.04511e-17 0.0157716 -0.00701684 0.0131314)
(0.0253616 4.76022e-17 -1.87819e-17 0.0338276 -0.0199023 0.0285082)
(0.856255 6.449e-18 5.09882e-16 0.294192 -0.310967 1.56026)
(0.0251299 -1.02399e-17 -9.62269e-18 0.0123366 -0.00740232 0.0366945)
(6.21111e-05 -6.34715e-20 1.09204e-20 7.71897e-05 -1.97118e-05 7.43311e-05)
(2.15034e-05 -2.16667e-20 1.02634e-20 4.62397e-05 -2.28575e-05 2.53687e-05)
(0.000155525 -2.87033e-20 3.75543e-20 0.000343147 -0.000143797 0.000178257)
(0.000703628 -6.00347e-19 2.94049e-19 0.00145646 -0.000703541 0.000852894)
(0.00253093 -3.4079e-18 1.02782e-18 0.0052594 -0.00239754 0.00309012)
(0.00652447 4.03822e-18 -1.55497e-18 0.0131003 -0.00648361 0.00845133)
(0.0128685 3.62643e-18 -8.52626e-19 0.0252355 -0.0132448 0.0176079)
(0.0162489 1.28762e-17 -1.01039e-17 0.0294598 -0.0175561 0.0244731)
(0.0112201 5.49294e-17 -3.24517e-17 0.0141559 -0.0115178 0.0211622)
(0.0133704 7.27902e-18 -2.20117e-17 0.0113652 -0.0100546 0.0305153)
(0.0163693 -4.9719e-17 -5.76419e-17 0.0127272 -0.011359 0.036736)
(0.0142091 -1.22149e-17 -1.01782e-17 0.0189575 -0.00864752 0.0188948)
(0.0438974 4.44178e-17 -2.6916e-17 0.052964 -0.0368789 0.0524272)
(0.946829 1.19223e-17 6.32046e-16 0.333222 -0.35806 1.71782)
(0.0355181 -2.67072e-17 -2.6542e-17 0.0164218 -0.0110365 0.0496382)
(0.00032233 -1.28676e-18 3.51402e-19 0.000615216 -0.000194943 0.000356218)
(6.53906e-05 -4.89113e-20 2.86365e-20 0.000129141 -5.68089e-05 7.43665e-05)
(0.000323574 1.53966e-20 7.10261e-20 0.000638911 -0.000245337 0.000358491)
(0.00124433 -1.22666e-18 4.29463e-19 0.00235832 -0.00100315 0.00142267)
(0.00378316 -2.46831e-18 5.78455e-19 0.00722005 -0.00296231 0.00436567)
(0.00870224 4.86934e-18 -1.27274e-18 0.0163188 -0.00725297 0.0104727)
(0.0162842 -3.1809e-19 1.61128e-20 0.0301486 -0.0140853 0.0205521)
(0.0244139 1.29527e-17 -5.64419e-18 0.0419241 -0.021456 0.0339166)
(0.0261137 -4.72703e-17 6.45312e-18 0.0340566 -0.0201351 0.0437527)
(0.0280765 -1.25404e-16 1.61015e-17 0.0233212 -0.0164394 0.0577577)
(0.034225 -3.17825e-17 9.39761e-17 0.0258257 -0.0190953 0.0738638)
(0.036031 8.44084e-17 2.25994e-16 0.0332466 -0.0220456 0.0643329)
(0.054943 1.48688e-17 -1.49866e-17 0.0592609 -0.0461617 0.0688862)
(1.01271 -5.18273e-18 6.35961e-16 0.363656 -0.389338 1.82059)
(0.0938258 -4.36947e-17 -4.75784e-17 0.0400867 -0.0312998 0.146275)
(0.00238975 -1.06355e-17 9.46835e-19 0.00426027 -0.00167128 0.00212939)
(0.000157619 -4.65131e-19 3.44868e-19 0.000285343 -0.000159606 0.000200421)
(0.000329297 2.02434e-19 3.21785e-20 0.00063824 -0.000229407 0.000358611)
(0.0010116 -1.00165e-18 3.35716e-19 0.0018352 -0.000754954 0.00113403)
(0.00279163 -2.08431e-18 3.83473e-19 0.00507809 -0.0019106 0.00310432)
(0.0061015 3.54725e-18 -8.1258e-19 0.0108938 -0.00443472 0.00694547)
(0.0102226 -3.48758e-18 1.25878e-18 0.0183542 -0.00760824 0.0118462)
(0.0166677 -1.27577e-17 7.60518e-18 0.0294889 -0.0129757 0.0203152)
(0.0232133 -1.09027e-16 5.42039e-17 0.0379976 -0.0175911 0.0307152)
(0.0301409 -2.51639e-16 1.39956e-16 0.0423397 -0.0217011 0.0444816)
(0.0377591 -1.94828e-16 1.81856e-16 0.0429447 -0.0266688 0.060702)
(0.0404751 1.77884e-17 9.32978e-17 0.0418329 -0.0281306 0.0616943)
(0.0454164 6.49695e-17 3.26363e-17 0.0411348 -0.035496 0.058176)
(1.04007 -9.95875e-18 6.36046e-16 0.380315 -0.401337 1.84185)
(0.172431 -6.99119e-17 -1.30853e-16 0.07596 -0.0580092 0.290157)
(0.0177397 -3.46249e-17 -9.38285e-18 0.0173309 -0.00859699 0.0228848)
(0.00209029 -4.88435e-18 1.05567e-18 0.00258146 -0.00160051 0.00253822)
(0.000627748 -4.46093e-19 2.87451e-19 0.00113445 -0.000489358 0.000726635)
(0.000821736 -6.12791e-19 2.27341e-19 0.00145494 -0.000617375 0.000930561)
(0.00193228 -1.31469e-18 3.44693e-19 0.00344859 -0.00127467 0.0021241)
(0.00416257 5.78425e-19 -3.18341e-19 0.00724424 -0.0028671 0.00464298)
(0.00615072 -1.35287e-18 5.4693e-19 0.0107142 -0.00416324 0.00681524)
(0.00908753 -2.47919e-20 1.70188e-18 0.0159792 -0.0064078 0.0102472)
(0.0117137 -3.91455e-17 1.71387e-17 0.0202929 -0.00813378 0.0135488)
(0.0140932 -8.50081e-17 4.4301e-17 0.0239162 -0.00947645 0.0170754)
(0.023468 -1.42973e-16 1.17493e-16 0.0391072 -0.0164219 0.031282)
(0.0326208 -1.33176e-16 5.12457e-16 0.0351155 -0.0212297 0.0616395)
(0.0207885 5.4829e-16 5.24567e-16 0.0201113 -0.0071647 0.0286868)
(1.0282 -1.11128e-17 5.80508e-16 0.381206 -0.395218 1.78814)
(0.246758 -6.65372e-17 -1.94929e-16 0.113532 -0.0801529 0.444921)
(0.0400729 -7.6083e-17 -1.86594e-17 0.0375042 -0.0185908 0.0547874)
(0.0073945 -1.6259e-17 2.01034e-18 0.00892761 -0.00529074 0.00938243)
(0.0019437 -3.17401e-18 9.85739e-19 0.00314505 -0.0016068 0.00241631)
(0.00104196 -1.09329e-18 4.89446e-19 0.00181233 -0.000863783 0.00125226)
(0.00157328 -5.39742e-19 2.26252e-19 0.00281725 -0.00110338 0.0017568)
(0.00326052 -5.1598e-19 -5.26841e-20 0.00572725 -0.00234222 0.00366336)
(0.00454988 -3.05015e-18 8.19468e-19 0.00789977 -0.00311181 0.0050172)
(0.00608872 2.29702e-18 1.64486e-19 0.0106466 -0.00419536 0.00669434)
(0.00744046 -1.21799e-17 5.52036e-18 0.0130811 -0.00509463 0.00818557)
(0.00862508 -3.81346e-17 1.74644e-17 0.0151475 -0.00578425 0.00966635)
(0.0158188 -1.98308e-17 1.5583e-17 0.0293519 -0.0112818 0.017855)
(0.0272638 -3.10474e-16 2.28223e-16 0.0435751 -0.0214739 0.0376171)
(0.0147942 1.54243e-15 3.68811e-16 0.0276111 0.0022265 0.0165791)
(0.990029 -2.42264e-17 4.79668e-16 0.36994 -0.377295 1.69395)
(0.31789 -7.63289e-17 -3.26139e-16 0.151483 -0.0968718 0.614698)
(0.0624811 -1.35934e-16 -3.8495e-17 0.0627793 -0.0306292 0.0868438)
(0.0146206 -2.20121e-17 3.42305e-18 0.0190465 -0.0110634 0.0188245)
(0.00428793 -1.02144e-17 3.2774e-18 0.00709465 -0.00376615 0.00545862)
(0.00171409 -3.22338e-18 1.04579e-18 0.00303206 -0.00159711 0.00218775)
(0.00158093 9.50456e-19 6.71686e-20 0.00289428 -0.00124411 0.00183489)
(0.00289698 -3.57336e-18 7.46094e-19 0.00522599 -0.00225127 0.00332056)
(0.00401373 -7.03182e-18 1.30305e-18 0.00713072 -0.00295181 0.00450255)
(0.00500997 1.06603e-17 -1.85934e-18 0.00886936 -0.0035924 0.00553425)
(0.00594028 -8.02278e-18 2.94346e-18 0.0106233 -0.0042358 0.00649735)
(0.00717441 -3.55655e-17 1.39941e-17 0.0128463 -0.00508124 0.00798727)
(0.0145729 -3.52275e-17 1.1524e-17 0.0278348 -0.0113669 0.016178)
(0.0258966 -4.22425e-16 2.6401e-16 0.0438254 -0.0209848 0.0334938)
(0.0188004 9.00264e-17 1.02261e-16 0.0258273 -0.0122826 0.0207392)
(0.939475 -1.14504e-17 4.43934e-16 0.352429 -0.354261 1.58834)
(0.408502 -1.263e-16 -6.60067e-16 0.196143 -0.117875 0.844288)
(0.0864568 -2.35489e-16 -6.31863e-17 0.0922364 -0.0443139 0.121574)
(0.023627 -1.30597e-17 1.47312e-18 0.0336761 -0.01908 0.030354)
(0.00752958 -2.60589e-17 9.19896e-18 0.0131874 -0.00698985 0.00964482)
(0.00268633 -7.75093e-18 2.74389e-18 0.00488016 -0.00266465 0.00354749)
(0.00177487 4.29435e-18 -5.98617e-19 0.00332197 -0.00151605 0.00214083)
(0.00272861 -6.38629e-18 1.73411e-18 0.00501585 -0.00223778 0.00318661)
(0.00399184 -1.5006e-17 3.54293e-18 0.00733966 -0.00320298 0.00459551)
(0.00481285 1.83513e-17 -4.58623e-18 0.00873869 -0.00370558 0.00543098)
(0.00550072 -1.33764e-17 3.52144e-18 0.0100209 -0.00413644 0.00609573)
(0.00677727 -3.3893e-17 1.33521e-17 0.0122899 -0.00504921 0.00763504)
(0.0136757 -2.42849e-17 1.03743e-17 0.026186 -0.0109617 0.0151259)
(0.0240291 -3.44875e-16 2.03187e-16 0.0416289 -0.0198106 0.0298961)
(0.0173997 -4.90228e-17 8.83862e-17 0.0230009 -0.0117845 0.019463)
(0.889187 -1.13373e-17 3.56566e-16 0.33548 -0.332601 1.49179)
(0.541536 -3.80412e-17 -6.75184e-16 0.260433 -0.157222 1.1767)
(0.131266 -3.87245e-16 -9.95832e-17 0.129205 -0.0649844 0.202614)
(0.0429856 -3.59216e-17 -4.49255e-18 0.0605805 -0.0342056 0.0575393)
(0.0160535 -3.93129e-17 1.40915e-17 0.0276749 -0.0149974 0.0210955)
(0.00624128 -2.49002e-17 9.76268e-18 0.011429 -0.00645304 0.00846024)
(0.00330776 9.70897e-18 -1.07994e-18 0.00645958 -0.00341122 0.00427531)
(0.00308045 -2.84465e-18 1.7268e-18 0.00588686 -0.00280246 0.00375099)
(0.00399776 -2.25437e-17 5.8295e-18 0.00756392 -0.00340089 0.00470736)
(0.00485316 1.72163e-17 -4.86898e-18 0.00913565 -0.00400873 0.00557868)
(0.00558457 -9.69133e-18 3.50332e-18 0.0105267 -0.00448195 0.00628281)
(0.00683737 -3.85479e-17 1.39137e-17 0.0127422 -0.00538265 0.0077525)
(0.012397 -1.11276e-17 7.54982e-18 0.0239907 -0.00997974 0.0135321)
(0.0205047 -2.34119e-16 1.27082e-16 0.0361768 -0.0163611 0.0242888)
(0.0169252 -4.31811e-17 5.70247e-17 0.0221892 -0.0115861 0.0182049)
(0.818062 -3.2346e-17 2.2858e-16 0.313545 -0.305678 1.35056)
(0.707645 2.52646e-17 -3.48273e-16 0.343231 -0.194338 1.57843)
(0.188611 -4.74203e-16 -2.04296e-16 0.162245 -0.0727375 0.30854)
(0.0685126 -5.57367e-17 -2.06976e-17 0.0927572 -0.0476445 0.0907478)
(0.0251576 -3.01402e-17 1.32091e-17 0.041937 -0.0213645 0.0316854)
(0.00719034 -2.22166e-17 7.87704e-18 0.0115227 -0.00541337 0.00893123)
(0.00283198 5.82657e-18 -3.79726e-19 0.00458871 -0.00193677 0.00339069)
(0.00198491 2.47204e-19 5.26029e-19 0.00321159 -0.00126361 0.00229021)
(0.00315961 -1.75695e-17 4.51433e-18 0.00559394 -0.00242037 0.00372412)
(0.00439203 6.05691e-18 -2.83435e-18 0.00794172 -0.0035417 0.00517795)
(0.00644073 -8.06641e-18 3.97061e-18 0.0113977 -0.00518497 0.0076953)
(0.0123974 -3.72954e-17 2.02852e-17 0.0191759 -0.00934947 0.0160836)
(0.0137711 -1.9659e-17 1.28752e-17 0.0251486 -0.0110021 0.0158615)
(0.0196472 -1.65925e-16 8.36323e-17 0.0359034 -0.0154838 0.022187)
(0.0212392 -1.27728e-17 3.81458e-17 0.0302974 -0.0165731 0.0220832)
(0.816288 -7.14604e-17 8.16249e-17 0.339181 -0.287112 1.31662)
(1.5296 7.84983e-17 1.20373e-15 0.858639 -0.61649 3.50496)
(0.625106 -3.0914e-16 -1.34028e-17 0.424648 -0.25608 1.26856)
(0.340723 -2.41618e-16 -8.66482e-17 0.292481 -0.183893 0.619144)
(0.218186 -1.30841e-16 -2.44124e-17 0.237234 -0.144787 0.3597)
(0.145566 -1.2013e-16 6.25758e-18 0.186749 -0.11165 0.21722)
(0.0985524 -2.75926e-17 -8.15963e-18 0.144129 -0.0820008 0.135009)
(0.0671086 8.59368e-17 -3.18523e-17 0.108666 -0.0590362 0.0856033)
(0.0475358 6.34374e-17 -1.53836e-18 0.0816502 -0.0424332 0.0583807)
(0.0594694 -9.56224e-17 8.41411e-17 0.091132 -0.0483478 0.0762409)
(0.111694 -2.77965e-16 2.43412e-16 0.148148 -0.0795313 0.156321)
(0.199873 -3.92872e-16 4.91641e-16 0.219707 -0.128103 0.304178)
(0.169182 -4.51599e-16 7.15943e-16 0.199867 -0.114449 0.241861)
(0.139585 -6.11066e-16 6.35924e-16 0.202224 -0.111582 0.164637)
(0.0972017 -1.62722e-16 2.64832e-16 0.130029 -0.0786789 0.104029)
(0.307446 -1.03563e-17 1.24361e-16 0.393318 -0.00240007 0.239123)
(0.30067 -5.54125e-17 2.71604e-16 0.356312 -0.0146216 0.258593)
(0.289652 -8.86704e-17 2.02949e-16 0.337644 -0.0186377 0.24229)
(0.285396 -1.15645e-16 2.16141e-16 0.327874 -0.0204674 0.239303)
(0.282369 -1.47909e-16 2.3853e-16 0.319087 -0.0223569 0.240215)
(0.283704 -2.79819e-16 4.24298e-16 0.308607 -0.0395243 0.261849)
(0.271973 -3.03343e-16 3.23626e-16 0.291907 -0.0313674 0.244832)
(0.267949 -3.89414e-16 3.43319e-16 0.284584 -0.0318529 0.242245)
(0.265599 -4.88936e-16 3.73553e-16 0.278765 -0.0326546 0.243814)
(0.270493 -8.62785e-16 6.57398e-16 0.277645 -0.0525929 0.268433)
(0.260026 -5.63941e-16 4.02392e-16 0.265474 -0.0386531 0.247849)
(0.25725 -4.8858e-16 3.70291e-16 0.26203 -0.0390326 0.243112)
(0.262046 -5.70436e-16 5.65791e-16 0.266843 -0.0620765 0.256196)
(0.249522 -3.73217e-16 3.65963e-16 0.253201 -0.0461979 0.231843)
(0.244851 -3.28928e-16 3.36654e-16 0.24834 -0.0453659 0.223302)
(0.241679 -2.85791e-16 3.12076e-16 0.245107 -0.0448662 0.217546)
(0.245316 -3.54287e-16 4.56966e-16 0.249367 -0.0651068 0.228502)
(0.233788 -2.46127e-16 3.06508e-16 0.23747 -0.0463117 0.20509)
(0.229609 -2.22048e-16 2.80396e-16 0.233376 -0.0440783 0.197298)
(0.231121 -2.79004e-16 3.90727e-16 0.236628 -0.0632426 0.20208)
(0.219201 -1.9641e-16 2.59798e-16 0.224838 -0.0469566 0.177815)
(0.214302 -1.79437e-16 2.36724e-16 0.22024 -0.0450073 0.169005)
(0.210313 -1.58651e-16 2.13947e-16 0.216604 -0.0432103 0.161791)
(0.211413 -1.59688e-16 2.93163e-16 0.219458 -0.0583524 0.166773)
(0.200482 -5.70754e-17 1.81182e-16 0.20843 -0.0408072 0.145858)
(0.196331 1.19966e-17 1.51335e-16 0.204698 -0.0380364 0.138462)
(0.19292 5.18992e-17 1.33736e-16 0.20142 -0.0359934 0.133491)
(0.195468 1.58333e-17 1.99659e-16 0.206311 -0.0491953 0.14144)
(0.185028 1.13117e-17 1.35541e-16 0.19421 -0.0334467 0.125355)
(0.181609 7.58811e-18 1.25576e-16 0.190729 -0.0306415 0.120863)
(0.185331 -1.40835e-18 1.76418e-16 0.19911 -0.0422244 0.127185)
(0.174369 3.79317e-18 1.22018e-16 0.185922 -0.0275055 0.110267)
(0.170782 8.95567e-18 1.1235e-16 0.182214 -0.0252467 0.105664)
(0.168141 1.46748e-17 1.0368e-16 0.179824 -0.023676 0.10233)
(0.174494 1.16404e-17 1.36484e-16 0.193409 -0.0343452 0.110302)
(0.1634 2.77649e-18 9.37482e-17 0.178062 -0.0218945 0.0966918)
(0.160935 3.50512e-19 8.54888e-17 0.175832 -0.0199121 0.0935387)
(0.169866 1.19509e-17 1.08741e-16 0.195704 -0.0292611 0.100881)
(0.157666 -3.96019e-18 7.26465e-17 0.177165 -0.0173815 0.0871197)
(0.155663 -5.87972e-18 6.51195e-17 0.175607 -0.015815 0.0841724)
(0.154816 -5.78061e-18 5.79028e-17 0.175948 -0.0150806 0.0823861)
(0.169484 4.7016e-17 7.07614e-17 0.207431 -0.0253282 0.0924852)
(0.158763 3.58503e-17 3.90878e-17 0.189214 -0.015501 0.0819442)
(0.15979 5.32232e-17 2.997e-17 0.19259 -0.0153843 0.0816603)
(0.162527 7.319e-17 2.09796e-17 0.199043 -0.0161866 0.082805)
(0.187301 1.99336e-16 1.22033e-17 0.250273 -0.0323134 0.0998411)
(0.183029 1.57736e-16 -4.27611e-18 0.24182 -0.023569 0.0961667)
(0.190655 1.94372e-16 -1.80249e-17 0.257113 -0.027327 0.101793)
(0.22934 4.5765e-16 -8.67402e-17 0.335258 -0.0622945 0.133663)
(0.216767 3.16613e-16 -6.45792e-17 0.308446 -0.0403254 0.122774)
(0.220998 3.51036e-16 -8.12607e-17 0.316226 -0.0435685 0.126846)
(0.228336 3.93859e-16 -1.00421e-16 0.330096 -0.0489053 0.133546)
(0.270127 8.15754e-16 -2.63321e-16 0.411497 -0.109784 0.179518)
(0.247478 5.09042e-16 -1.50909e-16 0.366873 -0.0627478 0.149884)
(0.245413 4.93121e-16 -1.39077e-16 0.363118 -0.0582753 0.145047)
(0.245961 4.83073e-16 -1.25623e-16 0.364956 -0.0543637 0.141134)
(0.27387 8.30609e-16 -2.12296e-16 0.419925 -0.101056 0.168928)
(0.252466 4.87104e-16 -9.30314e-17 0.379954 -0.0539922 0.137894)
(0.251739 4.39236e-16 -6.39201e-17 0.379243 -0.0506667 0.134634)
(0.273885 6.18884e-16 -6.39006e-17 0.420588 -0.0922468 0.159036)
(0.243429 3.36961e-16 -9.49947e-18 0.361606 -0.0512663 0.13238)
(0.236703 2.8797e-16 1.46378e-17 0.346782 -0.0521623 0.131817)
(0.232763 2.35125e-16 4.44896e-17 0.337189 -0.0541032 0.132773)
(0.244837 2.8453e-16 1.30744e-16 0.350078 -0.100674 0.160878)
(0.215975 8.38011e-17 1.75872e-16 0.294801 -0.0615714 0.137501)
(0.209579 6.49192e-18 2.53279e-16 0.279149 -0.064038 0.137353)
(0.212515 -1.2487e-16 4.73904e-16 0.271161 -0.0998452 0.157199)
(0.198371 -1.96489e-16 5.42065e-16 0.247004 -0.077057 0.143091)
(0.197775 -2.56037e-16 6.15808e-16 0.243638 -0.0855035 0.145823)
(0.197749 -2.80292e-16 6.44919e-16 0.240446 -0.0891071 0.153669)
(0.203745 -3.70085e-16 7.50099e-16 0.243442 -0.114258 0.174436)
(0.19767 -3.30538e-16 7.37753e-16 0.236675 -0.0952739 0.168071)
(0.195095 -2.97732e-16 7.39797e-16 0.226161 -0.109733 0.188348)
(0.194126 -2.80376e-16 7.52108e-16 0.221371 -0.118359 0.203245)
(0.196717 -3.11006e-16 8.13803e-16 0.221002 -0.138663 0.22175)
(0.190128 -2.71522e-16 7.99726e-16 0.212498 -0.122503 0.220625)
(0.190632 -2.87118e-16 8.3604e-16 0.212573 -0.132616 0.227776)
(0.193104 -3.19844e-16 8.88111e-16 0.213742 -0.147892 0.239532)
(0.186569 -2.90461e-16 8.84746e-16 0.205304 -0.133113 0.237566)
(0.18711 -3.04988e-16 9.16661e-16 0.205349 -0.142423 0.244118)
(0.187406 -3.10414e-16 9.38515e-16 0.205391 -0.143871 0.248002)
(0.188228 -3.26162e-16 9.79933e-16 0.205229 -0.140498 0.247824)
(0.189529 -3.43082e-16 1.03605e-15 0.206289 -0.141682 0.253832)
(0.204494 -4.10295e-16 1.23081e-15 0.217115 -0.145873 0.288706)
(0.180847 -3.75406e-16 1.16235e-15 0.195798 -0.137651 0.255545)
(0.182225 -3.80864e-16 1.18771e-15 0.196485 -0.138853 0.260545)
(0.183774 -3.83196e-16 1.20937e-15 0.197361 -0.139272 0.264106)
(0.185086 -3.83695e-16 1.22528e-15 0.198056 -0.140257 0.267621)
(0.186064 -3.83144e-16 1.23757e-15 0.198532 -0.141205 0.270469)
(0.187481 -3.82465e-16 1.24205e-15 0.199376 -0.142171 0.273633)
(0.189395 -3.81909e-16 1.24166e-15 0.200626 -0.143291 0.277605)
(0.192457 -3.81801e-16 1.21051e-15 0.202851 -0.14436 0.282883)
(0.251434 -4.01047e-16 9.73539e-16 0.244671 -0.158327 0.390374)
(0.233622 -3.82122e-16 6.95978e-16 0.232121 -0.14903 0.357755)
(0.236099 -3.81712e-16 6.70139e-16 0.233802 -0.150178 0.362882)
(0.239578 -3.81134e-16 6.18418e-16 0.236199 -0.151331 0.369694)
(0.24391 -3.80664e-16 5.34143e-16 0.23906 -0.153665 0.37997)
(0.246561 -3.80842e-16 4.77921e-16 0.240737 -0.155887 0.387416)
(0.248042 -3.81293e-16 4.49013e-16 0.241654 -0.157637 0.392015)
(0.248968 -3.81808e-16 4.36454e-16 0.242234 -0.158812 0.3948)
(0.249884 -3.82448e-16 4.37789e-16 0.242863 -0.15937 0.396841)
(0.2979 -4.34836e-16 4.35309e-16 0.275626 -0.167314 0.495644)
(0.286984 -5.4604e-16 5.59044e-16 0.260935 -0.138061 0.515316)
(0.296795 -5.75642e-16 5.74304e-16 0.266967 -0.137165 0.542395)
(0.305255 -5.98637e-16 5.73535e-16 0.272065 -0.135967 0.563831)
(0.313197 -6.12083e-16 5.57024e-16 0.276925 -0.134768 0.582777)
(0.321133 -6.19112e-16 5.29214e-16 0.28166 -0.133092 0.600999)
(0.329644 -6.23747e-16 4.94325e-16 0.286685 -0.130864 0.619961)
(0.339337 -6.36016e-16 4.60614e-16 0.292555 -0.128324 0.641071)
(0.350067 -6.58778e-16 4.28298e-16 0.298964 -0.124747 0.66431)
(0.361755 -6.88135e-16 3.91214e-16 0.305559 -0.119001 0.689728)
(0.407522 -7.8848e-16 3.23757e-16 0.334252 -0.109165 0.790159)
(0.396472 -7.23303e-16 2.70873e-16 0.319305 -0.0901818 0.778275)
(0.411664 -7.23337e-16 2.38719e-16 0.328874 -0.0884584 0.812904)
(0.426083 -6.9891e-16 1.84381e-16 0.337337 -0.0837176 0.845115)
(0.441849 -6.48059e-16 1.1974e-16 0.346492 -0.0783398 0.881118)
(0.459347 -5.81553e-16 5.43133e-17 0.356603 -0.0721252 0.921954)
(0.478793 -5.11883e-16 -5.78818e-18 0.367526 -0.0646554 0.968542)
(0.500455 -4.46669e-16 -5.21642e-17 0.378989 -0.0561456 1.02201)
(0.524864 -3.83194e-16 -8.38235e-17 0.391502 -0.0479569 1.08385)
(0.565989 -3.43892e-16 -1.08218e-16 0.415832 -0.0396543 1.18554)
(0.576176 -2.53018e-16 -8.77574e-17 0.423079 -0.0320835 1.20717)
(0.60227 -2.47582e-16 -9.89095e-17 0.439034 -0.0288779 1.27173)
(0.629293 -2.42876e-16 -1.10386e-16 0.453942 -0.0227399 1.3404)
(0.659211 -2.33881e-16 -1.15879e-16 0.470576 -0.0179025 1.41749)
(0.692053 -2.15562e-16 -1.18976e-16 0.488873 -0.0140271 1.50289)
(0.727828 -2.01602e-16 -1.18506e-16 0.507949 -0.00988543 1.59722)
(0.767417 -1.86825e-16 -1.14605e-16 0.529905 -0.00515241 1.70183)
(0.8101 -1.60945e-16 -1.05847e-16 0.550606 0.00235589 1.81811)
(0.869396 -1.25987e-16 -9.298e-17 0.586355 0.0126619 1.97317)
(0.885114 -8.7152e-17 -9.05373e-18 0.599954 0.0236337 2.00442)
(0.926653 -7.87155e-17 3.18447e-18 0.621398 0.0312045 2.11712)
(0.972949 -6.71777e-17 1.64876e-17 0.647297 0.0371923 2.24332)
(1.02185 -5.95766e-17 3.32774e-17 0.672643 0.0460863 2.37866)
(1.07393 -5.41231e-17 5.38973e-17 0.699452 0.056929 2.52345)
(1.13009 -5.41352e-17 7.83875e-17 0.729916 0.0659039 2.67843)
(1.19006 -5.54655e-17 1.06669e-16 0.761181 0.0740611 2.8447)
(1.25362 -5.66017e-17 1.39573e-16 0.791421 0.0811743 3.02252)
(1.34868 -5.13387e-17 1.89421e-16 0.854445 0.0905832 3.27007)
(1.32315 -6.51175e-17 2.53514e-16 0.835507 0.144183 3.18711)
(1.38141 -6.34434e-17 3.0397e-16 0.865403 0.166575 3.34836)
(1.449 -6.33124e-17 3.6366e-16 0.904669 0.176282 3.53413)
(1.51852 -6.62957e-17 4.30756e-16 0.940251 0.18615 3.72699)
(1.59276 -6.69998e-17 5.06466e-16 0.980921 0.194785 3.92755)
(1.67112 -3.59175e-17 5.9964e-16 1.02343 0.208412 4.13616)
(1.74321 -7.37506e-18 6.78618e-16 1.06594 0.223753 4.319)
(1.81487 -1.48296e-17 7.45493e-16 1.1102 0.233512 4.48639)
(1.88851 -2.32504e-17 8.16412e-16 1.15423 0.244419 4.64654)
(2.0302 -1.97302e-17 9.44278e-16 1.27185 0.272246 4.91344)
(1.88605 -5.42388e-17 9.20095e-16 1.20728 0.41614 4.30427)
(1.92389 -6.72296e-17 9.53781e-16 1.24121 0.489337 4.34396)
(1.96887 -9.61463e-17 9.81982e-16 1.29319 0.534927 4.37206)
(2.01341 -1.38757e-16 1.00443e-15 1.34083 0.581789 4.3795)
(2.06233 -1.92249e-16 1.02377e-15 1.40126 0.619633 4.35166)
(2.10941 -2.81255e-16 1.02397e-15 1.46009 0.633439 4.2624)
(2.16902 -4.22922e-16 1.01288e-15 1.53787 0.615334 4.14181)
(2.25447 -5.66423e-16 1.04421e-15 1.63334 0.605929 4.10258)
(2.59638 -8.38635e-16 1.33371e-15 1.98337 0.696891 4.35076)
(2.46564 -6.57846e-16 1.38227e-15 2.00322 0.633679 3.48711)
(2.55235 -6.70215e-16 1.51346e-15 2.11062 0.666506 3.46125)
(2.83632 -6.91649e-16 1.9519e-15 2.45593 0.632917 3.42353)
(3.13614 -8.20866e-16 2.65612e-15 2.77073 0.704731 3.67534)
(3.26319 -8.86017e-16 2.62528e-15 2.86373 0.699415 3.78586)
(3.31138 -8.34737e-16 2.21178e-15 2.88147 0.62897 3.80921)
(3.50004 -1.13849e-15 2.91223e-15 3.01555 0.83211 4.25814)
(3.57101 -8.40911e-16 2.33368e-15 3.11314 0.643604 4.16679)
(3.79883 -1.07454e-15 3.03023e-15 3.32052 0.800711 4.61529)
(3.89179 -1.09102e-15 2.8594e-15 3.38035 0.758819 4.7348)
(3.92307 -8.66112e-16 2.223e-15 3.40261 0.614957 4.6646)
(4.17012 -1.16469e-15 3.05981e-15 3.58304 0.834383 5.31213)
(4.25263 -1.17221e-15 2.86624e-15 3.62106 0.800151 5.44054)
(4.24492 -9.48567e-16 2.08886e-15 3.62748 0.617026 5.1938)
(4.51492 -1.37083e-15 2.84759e-15 3.81656 0.859503 5.95747)
(4.52788 -1.11055e-15 2.06851e-15 3.82468 0.64316 5.76454)
(4.84073 -1.6544e-15 2.7537e-15 4.04032 0.888319 6.69137)
(4.92755 -1.71401e-15 2.48123e-15 4.0776 0.84074 6.84766)
(4.87541 -1.25329e-15 1.66758e-15 4.10078 0.591945 6.27368)
(5.19564 -1.82008e-15 2.22613e-15 4.33675 0.840518 7.23319)
(5.18079 -1.33752e-15 1.45686e-15 4.36167 0.586587 6.80151)
(5.56231 -1.90156e-15 1.99729e-15 4.61739 0.849283 8.04304)
(5.68668 -1.87743e-15 1.70473e-15 4.71517 0.804128 8.22216)
(5.57581 -1.30145e-15 1.02416e-15 4.67178 0.530746 7.4731)
(5.94803 -1.95821e-15 1.18303e-15 4.89244 0.78323 8.85964)
(6.0256 -2.05959e-15 9.00956e-16 4.9484 0.735962 8.9936)
(5.81165 -1.51698e-15 6.00707e-16 4.82657 0.4704 7.97251)
(6.10388 -1.99349e-15 5.07582e-16 4.9942 0.662255 9.14649)
(5.96795 -1.37523e-15 3.47657e-16 4.93165 0.423614 8.34322)
(6.33601 -1.9574e-15 1.39281e-16 5.12767 0.587049 9.83182)
(6.42476 -2.09511e-15 1.40448e-17 5.16395 0.50368 10.1189)
(6.16788 -1.68334e-15 9.03147e-17 4.94718 0.181984 9.1419)
(6.42772 -1.92111e-15 -1.8122e-16 5.13325 0.369572 10.1415)
(6.26687 -1.30152e-15 -1.83185e-16 5.07084 0.224116 9.2299)
(6.58223 -1.46089e-15 -5.14302e-16 5.22702 0.349958 10.6053)
(6.68503 -1.47995e-15 -7.34423e-16 5.28954 0.308981 10.924)
(6.45742 -1.13086e-15 -4.08118e-16 5.09121 0.100455 10.0326)
(6.62333 -1.35337e-15 -9.17557e-16 4.9615 0.0743255 11.453)
(6.73187 -1.44862e-15 -9.32768e-16 5.12922 0.0116188 11.538)
(6.48042 -1.28792e-15 -1.75127e-16 4.9389 -0.294145 10.5142)
(6.65842 -1.50975e-15 -6.94474e-16 5.08726 -0.204442 11.2411)
(6.45125 -1.19038e-15 -4.8746e-16 4.94535 -0.268746 10.3424)
(6.58476 -1.45104e-15 -8.0126e-16 4.80104 -0.402043 11.6602)
(6.70047 -1.37166e-15 -9.67493e-16 4.99335 -0.399295 11.7776)
(6.47388 -1.0801e-15 -9.59329e-16 4.83964 -0.673235 10.8229)
(6.62412 -1.01318e-15 -1.10436e-15 4.9841 -0.582228 11.4376)
(6.42786 -6.65636e-16 -8.64018e-16 4.86178 -0.576857 10.5838)
(6.51562 -3.48981e-16 -1.066e-15 4.69504 -0.75515 11.7493)
(6.61509 -3.90549e-16 -1.10831e-15 4.8758 -0.634451 11.8317)
(6.42268 -2.7731e-16 -8.06828e-16 4.76766 -0.649272 10.9291)
(6.46123 -2.23312e-16 -1.00965e-15 4.59703 -0.816293 11.736)
(6.53996 -3.07513e-16 -1.05358e-15 4.77508 -0.763877 11.7509)
(6.34948 -3.36706e-16 -6.22406e-16 4.67823 -0.939047 10.8947)
(6.41938 -3.99975e-16 -8.60998e-16 4.76783 -0.909708 11.2124)
(6.23668 -3.28134e-16 -6.73112e-16 4.66806 -0.851922 10.4184)
(6.22887 -3.58332e-16 -8.1381e-16 4.48932 -1.022 11.0079)