/*--------------------------------*- C++ -*----------------------------------*\
| =========                 |                                                 |
| \\      /  F ield         | OpenFOAM: The Open Source CFD Toolbox           |
|  \\    /   O peration     | Version:  4.1                                   |
|   \\  /    A nd           | Web:      www.OpenFOAM.org                      |
|    \\/     M anipulation  |                                                 |
\*---------------------------------------------------------------------------*/
FoamFile
{
    version     2.0;
    format      ascii;
    class       volVectorField;
    location    "3";
    object      U;
}
// * * * * * * * * * * * * * * * * * * * * * * * * * * * * * * * * * * * * * //

dimensions      [0 1 -1 0 0 0 0];

internalField   nonuniform List<vector> 
6785
(
(1.98309e-14 -0.576884 16.0885)
(1.40223e-14 -6.44653 12.41)
(-1.71147e-15 -4.69331 12.7642)
(5.18312e-15 -4.15729 12.5278)
(1.47217e-15 -3.54163 12.3583)
(-7.29658e-16 -3.0673 12.1326)
(4.23681e-15 -2.67681 11.8758)
(1.00631e-15 -2.38776 11.5781)
(-1.69262e-15 -2.20265 11.2457)
(2.33651e-15 -2.09932 10.904)
(6.17297e-16 -2.08359 10.5635)
(-6.00317e-16 -2.3422 10.1116)
(3.60544e-15 -2.81165 9.48751)
(-4.23348e-16 -1.97262 9.06888)
(-4.27478e-15 0.91808 7.18269)
(2.89308e-14 -7.29417 25.8982)
(2.12939e-14 -16.4957 21.7505)
(-2.39569e-15 -11.6469 22.0912)
(1.46665e-14 -11.8237 20.7137)
(1.4109e-15 -10.9498 19.7075)
(8.51597e-16 -10.2612 18.6664)
(1.19498e-14 -9.57661 17.6272)
(2.87168e-16 -8.91014 16.579)
(9.83859e-16 -8.26369 15.5024)
(1.09824e-14 -7.61827 14.3956)
(-5.24528e-17 -6.9454 13.3271)
(3.43656e-15 -6.38072 12.3438)
(1.16685e-14 -5.99065 10.9918)
(-3.6314e-15 -4.42915 7.84802)
(-4.4435e-15 -0.237033 0.994004)
(2.3173e-14 -9.89895 27.5919)
(2.21283e-14 -17.7252 24.0596)
(-2.48005e-15 -11.8277 24.4967)
(6.55894e-15 -12.7223 22.3325)
(1.99614e-15 -11.2851 21.1944)
(-3.88016e-16 -10.5286 19.7744)
(-3.95952e-16 -9.67751 18.4125)
(1.41967e-15 -8.89887 17.0576)
(-9.42087e-16 -8.17462 15.7447)
(-2.8078e-15 -7.5 14.4674)
(2.25207e-15 -6.83845 13.2399)
(-1.01035e-15 -6.08777 11.9423)
(-8.91295e-15 -4.6321 9.28142)
(-2.66314e-16 -1.35011 2.54146)
(9.92026e-16 0.83638 -4.07828)
(2.81563e-14 -10.7299 26.2674)
(1.67199e-14 -17.3592 23.3608)
(1.1106e-15 -11.5009 23.7671)
(4.07772e-15 -13.1795 20.9436)
(-4.04018e-15 -11.3015 19.9241)
(5.85767e-15 -10.8019 18.2138)
(-8.40218e-16 -9.93588 16.7223)
(-5.86134e-15 -9.21842 15.2327)
(6.1096e-15 -8.59715 13.9064)
(-2.68694e-16 -8.10445 12.7611)
(-8.54484e-15 -7.65412 11.6742)
(2.85927e-15 -7.15889 10.4994)
(2.86425e-17 -6.30952 8.87893)
(-1.25265e-14 -4.43328 5.62608)
(1.46473e-15 -3.17127 1.7245)
(2.593e-14 -11.3063 25.5546)
(5.58803e-15 -16.8275 23.1405)
(-3.79069e-15 -11.4661 23.4483)
(-4.28439e-16 -13.322 20.3965)
(-1.34879e-14 -11.0408 19.5103)
(-3.92161e-15 -10.691 17.6026)
(-6.90416e-15 -9.62453 16.1013)
(-1.743e-14 -8.8078 14.5025)
(-2.04751e-15 -7.99286 12.9354)
(-1.27775e-14 -7.36123 11.4662)
(-3.2864e-14 -6.94346 10.2623)
(-2.08079e-14 -6.77153 9.46435)
(-1.23715e-14 -6.58831 8.97912)
(-4.44505e-14 -5.81171 7.95476)
(-3.6996e-14 -4.85832 5.66607)
(3.00449e-14 -12.0844 25.8482)
(4.66534e-15 -16.3599 23.6379)
(2.39459e-15 -11.7095 23.8027)
(-3.5033e-15 -13.1216 20.9473)
(-8.17273e-15 -10.7085 20.0598)
(1.46307e-15 -10.3186 18.1421)
(-7.15473e-15 -9.00315 16.6976)
(-1.09335e-14 -7.84622 14.7047)
(-3.29166e-15 -6.10917 11.895)
(-1.0381e-14 -4.37521 8.73238)
(1.95314e-15 -3.79481 7.20452)
(1.3339e-14 -4.70172 7.93164)
(-1.25937e-15 -5.99412 9.46001)
(-1.45087e-14 -6.5653 10.3331)
(4.95541e-16 -5.61181 9.20688)
(3.76164e-14 -12.6143 26.2106)
(1.12896e-14 -16.7439 25.1094)
(1.04038e-14 -12.1645 24.6844)
(-5.36185e-15 -13.4561 22.0194)
(-1.08993e-15 -10.9444 21.1914)
(1.12205e-14 -10.6854 19.2631)
(-1.01232e-14 -9.22816 17.9217)
(-5.9168e-16 -8.00179 15.7531)
(-1.28837e-16 -5.77204 12.395)
(-7.25952e-15 -3.09915 8.11305)
(2.0868e-14 -1.15402 5.00067)
(-2.72754e-15 -0.720533 4.13762)
(-4.29845e-14 -1.8179 5.45772)
(-1.7118e-14 -3.67191 7.99783)
(3.26554e-14 -3.76673 8.13704)
(2.91916e-14 -12.4553 25.2696)
(1.15253e-14 -17.5852 27.0081)
(9.32432e-15 -13.0015 25.5985)
(-4.97671e-15 -14.1392 22.9072)
(-2.319e-15 -11.7227 22.1254)
(9.48774e-15 -11.6369 20.194)
(-7.81739e-15 -10.2677 18.9605)
(-1.94831e-15 -9.31749 17.0765)
(2.06247e-16 -7.49625 14.3418)
(-7.26022e-15 -5.01712 10.4978)
(6.2671e-15 -2.35698 6.54069)
(-2.57258e-14 0.12346 2.97186)
(-8.19467e-14 1.90448 0.39974)
(-1.06158e-13 1.53967 0.210094)
(-5.44788e-14 -0.268083 1.87999)
(2.64667e-14 -11.746 23.0694)
(1.49956e-14 -17.8231 27.9155)
(5.72912e-16 -13.9578 26.0252)
(-1.19737e-15 -14.3518 23.1563)
(-3.42171e-15 -12.4636 22.1179)
(-1.38007e-15 -12.1869 20.3324)
(-2.3162e-15 -11.1487 19.0031)
(-2.28381e-15 -10.3584 17.3941)
(-7.92013e-15 -9.21577 15.4306)
(-2.86458e-15 -7.65079 12.881)
(2.3263e-15 -5.67515 9.85911)
(-2.24012e-14 -3.21962 6.35923)
(-3.9057e-14 -0.0196504 2.10525)
(-9.6368e-14 2.67751 -1.73445)
(-1.41736e-13 0.999323 -3.05119)
(1.84511e-14 -10.895 20.6182)
(1.67499e-14 -17.4363 27.7592)
(3.03992e-15 -14.3685 25.9024)
(-5.75238e-15 -14.1346 22.8397)
(-4.41754e-15 -12.5569 21.5427)
(-8.01316e-15 -12.0997 19.849)
(-6.99039e-15 -11.2086 18.4421)
(-2.1511e-15 -10.4452 16.9266)
(-1.12876e-14 -9.57524 15.2835)
(-1.14733e-14 -8.51126 13.4038)
(-2.27272e-15 -7.22536 11.2252)
(-1.27888e-14 -5.58144 8.65513)
(-3.15074e-14 -3.48429 5.3781)
(-9.86681e-15 -0.807758 1.74081)
(-1.5177e-13 0.299559 -2.66388)
(8.31603e-15 -10.2193 18.7646)
(1.98363e-14 -16.8757 27.2787)
(-6.58061e-15 -14.3388 25.5661)
(-6.53181e-15 -13.7837 22.4197)
(1.69242e-15 -12.2895 21.0086)
(-1.85596e-14 -11.7619 19.3457)
(-7.02661e-15 -10.8727 17.9272)
(1.51066e-15 -10.0985 16.4393)
(-2.49478e-14 -9.28367 14.9149)
(-1.62658e-14 -8.37597 13.2986)
(8.12018e-15 -7.36649 11.5075)
(-2.94082e-14 -6.11573 9.46447)
(-2.90684e-14 -4.5862 6.86843)
(-4.77718e-14 -2.41457 3.61669)
(-1.92427e-13 -0.257335 -1.71301)
(9.94118e-15 -9.69385 17.4251)
(2.39265e-14 -16.3607 26.7881)
(-1.42055e-14 -14.1877 25.1851)
(-5.72578e-15 -13.3946 21.9591)
(3.85703e-15 -11.8743 20.5198)
(-2.71426e-14 -11.3579 18.8776)
(-8.12951e-15 -10.4264 17.504)
(8.95753e-15 -9.65952 16.0294)
(-3.05802e-14 -8.85067 14.5682)
(-1.97387e-14 -8.00036 13.0785)
(3.98727e-15 -7.11482 11.4812)
(-4.599e-14 -6.04544 9.72601)
(-2.19231e-14 -4.80213 7.51882)
(-5.03174e-14 -2.95056 4.72033)
(-1.49953e-13 -0.533066 -0.825367)
(1.49128e-15 -9.30396 16.4448)
(2.09512e-14 -16.0031 26.3737)
(-6.14365e-15 -14.526 25.2751)
(-1.24436e-14 -13.607 22.2166)
(3.95087e-15 -12.1774 20.5329)
(-2.12326e-14 -11.5546 18.8508)
(-1.83182e-14 -10.6375 17.4005)
(1.83982e-14 -9.80488 15.9031)
(-1.9299e-14 -8.94897 14.4329)
(-2.22366e-14 -8.06283 12.9714)
(6.43136e-15 -7.16883 11.4486)
(-3.21814e-14 -6.13698 9.8404)
(-2.47033e-14 -5.02223 7.89384)
(-2.71278e-14 -3.35925 5.53733)
(-1.13351e-13 -0.995855 0.605104)
(-1.09861e-14 -8.31931 13.8121)
(1.78433e-14 -15.0767 24.6934)
(-1.10632e-14 -14.0734 23.9516)
(-2.2016e-14 -12.7097 20.8168)
(1.30853e-15 -11.3148 19.2459)
(-1.64455e-14 -10.817 18.0213)
(-1.95781e-14 -10.1949 17.0542)
(1.07015e-14 -9.6568 15.9278)
(-1.04168e-14 -9.0619 14.6994)
(-2.14484e-14 -8.39773 13.4053)
(-1.08098e-14 -7.72546 12.0664)
(-2.49527e-14 -6.90002 10.6649)
(-2.21499e-14 -5.94802 8.97139)
(-2.76661e-14 -4.38374 6.89256)
(-7.64344e-14 -2.13813 2.85656)
(-2.15827e-14 -7.24846 12.8466)
(4.84155e-15 -15.7658 24.9157)
(3.62005e-16 -17.6756 26.7611)
(-1.4108e-14 -17.2182 24.4427)
(-1.1608e-14 -15.5858 21.5869)
(-1.24699e-14 -14.0363 18.9471)
(-1.90069e-14 -12.4013 16.5452)
(-3.71282e-15 -10.8917 14.5562)
(1.51193e-14 -9.6675 13.0465)
(1.3831e-14 -8.78355 11.9397)
(6.36199e-15 -7.97612 10.8647)
(2.81737e-15 -7.36622 10.3628)
(-1.60797e-16 -7.04884 10.039)
(-1.14521e-14 -6.50157 9.79778)
(-3.32152e-14 -3.71834 6.55361)
(-3.01328e-16 -0.0155083 -0.0588856)
(-3.50391e-15 0.125528 -0.72282)
(-1.32555e-15 0.174464 -0.312853)
(-5.21717e-16 0.215984 -0.112641)
(-3.37114e-16 0.191855 -0.042271)
(-2.67722e-15 0.323532 -0.375482)
(-1.27953e-15 0.329287 -0.231081)
(-7.02487e-16 0.370526 -0.106433)
(-7.82066e-16 0.340035 -0.0225771)
(1.60374e-14 0.458982 -0.177257)
(1.40338e-14 0.456798 -0.0904048)
(1.0164e-14 0.461173 -0.0359499)
(7.46611e-15 0.591821 -0.100668)
(3.10438e-15 0.523231 -0.0121054)
(1.72992e-15 0.576592 0.048678)
(1.11896e-15 0.523983 0.0877651)
(-2.90362e-16 0.662547 0.105399)
(9.37363e-16 0.586202 0.123592)
(4.48219e-16 0.589529 0.122024)
(1.50005e-16 0.719995 0.174124)
(4.93814e-16 0.592486 0.167102)
(3.6675e-16 0.646163 0.176851)
(1.43943e-15 0.581956 0.165834)
(8.38585e-16 0.740687 0.257366)
(9.2029e-16 0.584493 0.208814)
(1.35552e-15 0.62838 0.187794)
(-2.20874e-15 0.575596 0.15403)
(-3.37119e-15 0.69803 0.245527)
(-2.45444e-15 0.563407 0.190148)
(-1.18172e-15 0.576702 0.151559)
(-1.32285e-15 0.666405 0.262295)
(-2.51278e-15 0.512378 0.187433)
(-1.91466e-15 0.556333 0.144858)
(-3.1959e-15 0.51202 0.0949665)
(-3.58044e-15 0.609493 0.212622)
(-2.62636e-15 0.456557 0.136238)
(-2.2296e-15 0.478852 0.0806684)
(-2.73188e-15 0.536948 0.217179)
(-1.54176e-15 0.384437 0.126691)
(-1.39082e-15 0.422988 0.0466411)
(3.64878e-16 0.392351 -0.0189048)
(-2.14127e-16 0.479815 0.123173)
(4.15117e-16 0.321801 0.0786937)
(6.0532e-16 0.355024 -0.0102457)
(5.49036e-16 0.337844 -0.0742806)
(1.11969e-15 0.415549 0.0834675)
(-1.16681e-15 0.291079 0.0425596)
(-7.35196e-16 0.304326 -0.0270034)
(-1.03772e-16 0.427968 -0.089169)
(1.29433e-15 0.345683 -0.0384309)
(7.93427e-16 0.37707 -0.177702)
(3.72149e-16 0.366249 -0.221144)
(3.41326e-15 0.489665 -0.667345)
(3.76599e-15 0.407871 -0.599477)
(3.06429e-15 0.456076 -0.616256)
(6.39976e-15 0.489538 -0.593629)
(7.20315e-15 0.551414 -0.846032)
(4.90816e-15 0.298988 -0.714666)
(2.37099e-15 0.403304 -0.675901)
(8.15169e-15 0.341481 -1.58537)
(6.15523e-15 0.0142194 -1.10999)
(3.89834e-15 0.122796 -0.964893)
(2.76666e-15 0.198366 -0.844154)
(3.94498e-14 0.269477 -2.76816)
(3.81543e-15 -0.458476 -0.905638)
(-2.62871e-15 -0.102761 -0.330151)
(-2.40893e-14 -0.628225 1.43937)
(-3.35522e-14 -1.2475 2.89904)
(-3.18712e-14 -1.37998 2.94731)
(-3.25028e-14 -1.37922 3.23842)
(-4.53611e-14 -2.39547 5.70061)
(-3.62146e-14 -2.93602 5.28909)
(-3.45425e-14 -3.27738 5.32595)
(-3.36643e-14 -3.28962 5.43512)
(-4.94926e-14 -5.28158 8.4142)
(-3.77592e-14 -5.22329 6.88093)
(-3.98689e-14 -5.27712 7.28207)
(-5.79916e-14 -7.79173 10.8421)
(-4.45581e-14 -7.46467 8.57968)
(-4.88268e-14 -7.71705 9.40103)
(-6.02415e-14 -8.42771 11.5467)
(-6.08395e-14 -8.27687 11.2326)
(-6.33429e-14 -8.3172 11.3677)
(-7.2137e-14 -9.17707 12.5158)
(-6.72591e-14 -8.89621 11.8188)
(-6.80557e-14 -9.00655 12.139)
(-6.63575e-14 -8.9561 12.1829)
(-6.56744e-14 -8.99722 12.2349)
(-6.46536e-14 -9.01485 12.3004)
(-6.31174e-14 -9.0253 12.4089)
(-5.99522e-14 -9.06951 12.5263)
(-5.58708e-14 -9.07356 12.6377)
(-6.49117e-14 -9.7574 13.7211)
(-5.37156e-14 -9.5879 13.0674)
(-5.29341e-14 -9.65276 13.2151)
(-5.16888e-14 -9.64738 13.246)
(-5.14501e-14 -9.69457 13.1542)
(-5.29399e-14 -9.71028 13.0951)
(-5.5779e-14 -9.73184 13.1415)
(-5.98266e-14 -9.77593 13.1868)
(-6.47517e-14 -9.78576 13.3454)
(-8.08228e-14 -10.4615 14.8006)
(-6.8136e-14 -10.3396 13.9542)
(-7.00514e-14 -10.4014 14.1551)
(-6.94191e-14 -10.4026 14.2934)
(-6.88946e-14 -10.4419 14.4874)
(-6.76098e-14 -10.465 14.7277)
(-6.70694e-14 -10.5136 15.0082)
(-6.8689e-14 -10.5351 15.2839)
(-7.04751e-14 -10.6069 15.7451)
(-7.20918e-14 -10.6844 16.3464)
(-7.9931e-14 -11.1086 18.1968)
(-6.57257e-14 -10.9395 17.4555)
(-6.2725e-14 -10.9904 18.0353)
(-5.61545e-14 -11.007 18.4942)
(-4.90988e-14 -11.0713 19.0149)
(-4.14215e-14 -11.1023 19.5521)
(-3.5564e-14 -11.205 20.2001)
(-2.95761e-14 -11.2751 20.6976)
(-2.44616e-14 -11.4034 21.1255)
(-1.82386e-14 -11.0561 21.8547)
(-1.4753e-14 -11.0204 20.9235)
(-1.27858e-14 -11.0612 21.3436)
(-1.25862e-14 -11.1323 21.5137)
(-1.01953e-14 -11.1313 21.4953)
(-8.83559e-15 -11.2016 21.5121)
(-7.50337e-15 -11.2424 21.5058)
(-6.14696e-15 -11.2576 21.5495)
(-3.83811e-15 -11.4482 21.8188)
(1.58929e-15 -9.68668 19.9661)
(7.74966e-16 -10.2912 20.0197)
(1.68027e-15 -10.2412 19.7858)
(1.8083e-15 -10.2479 19.6247)
(2.15168e-15 -10.2784 19.6327)
(2.04735e-15 -10.2395 19.3707)
(1.90198e-15 -10.1808 19.0247)
(1.78577e-15 -10.1745 18.6644)
(1.70044e-15 -10.1755 18.222)
(3.1386e-15 -7.67326 14.8502)
(1.90345e-15 -8.58894 16.4432)
(1.80214e-15 -8.34536 15.6149)
(1.50526e-15 -8.37931 15.0547)
(1.21841e-15 -8.26564 14.3506)
(1.15133e-15 -8.17736 13.6898)
(2.69491e-15 -8.07081 13.2416)
(1.68313e-15 -7.86504 12.3053)
(1.19604e-15 -7.70489 11.5165)
(7.26328e-16 -7.53204 10.6832)
(1.21098e-17 -4.21932 5.18077)
(-9.83358e-16 -5.80973 8.85071)
(-1.25675e-15 -5.29194 7.51721)
(-1.805e-15 -5.36267 6.95398)
(-2.33384e-15 -5.04825 6.02279)
(-2.98362e-15 -4.92204 5.08104)
(-4.75812e-15 -4.70204 3.56715)
(-7.01026e-15 -4.38453 2.27722)
(-7.38585e-15 -4.37872 2.45152)
(-4.85102e-15 -3.13479 -0.756761)
(-4.53996e-15 -3.45131 1.57216)
(-4.94517e-15 -3.38326 0.741728)
(-1.72219e-15 -2.30235 -2.45726)
(-5.74757e-15 -3.93882 -1.40736)
(-8.4708e-15 -2.71279 -1.34811)
(-6.92239e-15 -2.5438 -0.899669)
(-8.64996e-15 -3.02829 -1.34817)
(-4.56995e-15 -2.09481 -0.836205)
(-8.29986e-15 -2.52977 -1.31106)
(-5.19374e-15 -2.1372 -0.97441)
(-1.89812e-15 -1.80417 -0.723874)
(-3.50591e-15 -1.95873 -1.12962)
(-3.6688e-15 -1.70246 -0.845973)
(-3.46875e-15 -1.41134 -0.633334)
(-5.25983e-15 -1.67744 -0.959885)
(-4.57518e-15 -1.12696 -0.63087)
(-6.58904e-15 -1.30322 -0.993496)
(-2.67247e-15 -0.935976 -0.741717)
(-4.14067e-15 -0.802142 -0.577053)
(-6.73101e-15 -0.812363 -0.926025)
(-1.32321e-15 -0.507178 -0.65287)
(-2.2211e-15 -0.506263 -1.07769)
(-2.87709e-15 -0.0988429 -0.850621)
(-3.19247e-15 -0.111237 -0.66731)
(-5.90155e-15 0.143465 -1.13626)
(-9.52953e-15 0.379064 -0.901742)
(-2.4029e-15 0.424231 -0.630053)
(-2.86218e-15 0.74462 -0.962247)
(-3.83599e-15 0.769356 -0.655659)
(-9.95261e-15 0.964716 -1.10046)
(-3.5259e-15 1.39251 -1.03358)
(-9.36099e-16 1.25993 -0.623706)
(-6.75958e-16 1.85245 -0.916793)
(-4.26355e-16 1.6256 -0.577732)
(-6.95645e-16 1.9775 -0.922361)
(-7.3228e-15 2.38011 -1.06309)
(-5.95786e-15 2.17272 -0.612847)
(-4.06495e-15 2.64763 -0.826479)
(-6.72928e-15 3.11901 -1.00515)
(-4.61888e-15 2.62026 -0.672012)
(-4.16036e-15 3.78857 -0.989196)
(-2.02369e-15 3.08415 -0.632065)
(-2.54082e-15 3.62806 -0.787158)
(3.51488e-16 4.29587 -0.936554)
(2.98821e-15 3.4811 -0.619888)
(1.94939e-15 5.06376 -0.983027)
(-1.82874e-18 4.0215 -0.649325)
(-7.53052e-16 4.77075 -0.827791)
(-3.64744e-15 5.42293 -0.965915)
(-3.00559e-15 4.60107 -0.610625)
(-4.06546e-15 5.59819 -0.833056)
(-4.56105e-15 6.44901 -1.00105)
(-3.11163e-15 5.03849 -0.658822)
(-2.13107e-15 7.38651 -1.05749)
(-1.15101e-15 5.76102 -0.713019)
(-1.76522e-15 6.69466 -0.970291)
(-1.18888e-15 7.80884 -1.08195)
(-5.70304e-16 6.03429 -0.685054)
(-6.2037e-16 8.84207 -0.98905)
(-3.5157e-16 6.77316 -0.617062)
(-5.37485e-16 7.92473 -0.795429)
(-1.53182e-15 8.79866 -0.807176)
(-1.39197e-15 7.11031 -0.479149)
(-2.91189e-15 8.73182 -0.644928)
(-2.6359e-15 9.67124 -0.629557)
(-1.85207e-15 7.23525 -0.402115)
(-1.93241e-15 10.5772 -0.619443)
(-1.39218e-15 7.99355 -0.395549)
(-1.43121e-15 9.1754 -0.56371)
(-1.77072e-15 10.3407 -0.55693)
(-1.03076e-15 7.75489 -0.349573)
(-1.01063e-15 11.3061 -0.560198)
(-5.61786e-16 8.47942 -0.353507)
(-8.07322e-16 9.81723 -0.542502)
(-1.14345e-16 10.7112 -0.588109)
(4.01124e-17 8.47205 -0.349829)
(1.64583e-16 10.4213 -0.521591)
(3.11923e-16 11.4529 -0.55233)
(2.51126e-16 8.40842 -0.3524)
(4.84258e-16 12.4193 -0.618757)
(4.30154e-16 9.1705 -0.387593)
(7.41564e-16 11.0547 -0.651966)
(-4.27158e-44 2.2298 2.36521)
(-1.28898e-43 2.86025 2.34687)
(-3.21853e-43 3.25291 2.37552)
(-8.09263e-43 3.63341 2.39112)
(-2.01823e-42 3.99623 2.42093)
(-5.08115e-42 4.33525 2.45011)
(-1.29779e-41 4.65856 2.48572)
(-3.38151e-41 4.96681 2.52622)
(-8.88965e-41 5.26424 2.57005)
(-2.36373e-40 5.54997 2.61732)
(-6.33899e-40 5.82323 2.66849)
(-1.68304e-39 6.08211 2.71869)
(-4.36777e-39 6.32298 2.76451)
(-1.09597e-38 6.55017 2.80059)
(-2.65257e-38 6.76682 2.82201)
(-6.16046e-38 6.96339 2.8302)
(-1.3544e-37 7.11374 2.82916)
(-2.83245e-37 7.20337 2.82281)
(-5.7422e-37 7.2413 2.81468)
(-1.1281e-36 7.24359 2.80026)
(-2.13731e-36 7.21646 2.77446)
(-3.888e-36 7.15265 2.73498)
(-6.85557e-36 7.03896 2.68688)
(-1.16915e-35 6.85687 2.63494)
(-1.91767e-35 6.59312 2.58006)
(-3.05512e-35 6.24063 2.51789)
(-4.86048e-35 5.76595 2.44372)
(-7.77162e-35 5.11605 2.33956)
(-1.26237e-34 4.21505 2.15876)
(-2.23012e-34 2.68528 1.82631)
(-3.26109e-34 -1.51976 0.565018)
(-1.61364e-34 -3.73783 -0.423548)
(-3.70345e-35 -5.61617 -0.620516)
(1.63307e-34 -7.41052 -1.29957)
(4.71155e-34 -8.31661 -1.50833)
(7.63831e-34 -8.35437 -2.01742)
(1.56576e-34 -8.99953 -1.19742)
(-9.4936e-35 -13.7191 -2.20522)
(-1.89779e-34 -15.1688 -3.3971)
(-5.31033e-35 -16.0621 -1.98701)
(-1.07636e-37 -23.4375 -1.6498)
(3.56775e-35 -32.0895 -1.5063)
(2.17275e-33 -38.8344 -1.20331)
(3.49853e-32 -43.885 -0.647292)
(8.65811e-34 -44.6233 0.107452)
(1.37512e-32 -42.2968 1.16194)
(1.52925e-31 -41.2386 3.29963)
(1.34923e-31 -27.3174 2.55443)
(-1.43637e-31 -9.3147 5.02203)
(-7.20379e-31 -10.8845 5.62184)
(-1.14584e-29 -16.925 7.45791)
(-6.28403e-30 -21.4111 6.08934)
(6.83425e-28 -21.0066 5.85465)
(4.75203e-27 -15.7275 2.67223)
(1.47673e-26 -5.0708 -1.59747)
(1.38082e-26 5.06762 -7.53263)
(8.92728e-27 7.90806 -10.5811)
(4.10965e-27 8.55574 -12.0805)
(1.2893e-27 8.48165 -12.5319)
(2.46987e-28 8.11258 -12.3751)
(2.77633e-28 7.7982 -11.9315)
(-2.28037e-27 7.72796 -11.3851)
(1.9234e-26 7.92567 -10.8042)
(-1.41148e-25 8.33135 -10.2259)
(8.85406e-25 8.8308 -9.6102)
(-4.619e-24 9.31956 -8.99502)
(1.74172e-23 9.8436 -8.37165)
(-2.83515e-23 10.4745 -7.68395)
(-1.86197e-22 10.9825 -6.92074)
(1.45085e-21 11.0538 -6.2549)
(-2.2883e-21 10.7509 -5.81935)
(-6.08016e-21 10.2886 -5.53313)
(1.81862e-21 9.84379 -5.13236)
(7.86858e-20 9.36959 -4.44723)
(-3.74175e-19 8.99317 -3.49167)
(-5.40648e-19 8.7713 -2.26476)
(-4.82771e-18 8.60026 -1.5457)
(2.02803e-17 8.56515 -1.3039)
(-1.03666e-16 9.30963 -1.53324)
(-6.92764e-44 2.22631 2.56155)
(-2.11055e-43 2.85188 2.52809)
(-5.2774e-43 3.2383 2.55357)
(-1.32845e-42 3.61815 2.56396)
(-3.30411e-42 3.97816 2.59073)
(-8.2972e-42 4.31572 2.61688)
(-2.1088e-41 4.63683 2.64979)
(-5.48449e-41 4.94363 2.68848)
(-1.44426e-40 5.23982 2.73174)
(-3.8456e-40 5.52425 2.77896)
(-1.03443e-39 5.79681 2.83097)
(-2.76288e-39 6.05621 2.88257)
(-7.2154e-39 6.29906 2.92967)
(-1.81844e-38 6.52989 2.96638)
(-4.41965e-38 6.75079 2.98787)
(-1.03136e-37 6.95081 2.99575)
(-2.27345e-37 7.10386 2.99324)
(-4.76433e-37 7.19525 2.98427)
(-9.68521e-37 7.23509 2.97252)
(-1.90697e-36 7.24093 2.95329)
(-3.62325e-36 7.21854 2.92356)
(-6.60938e-36 7.15956 2.88138)
(-1.16941e-35 7.04928 2.83352)
(-1.99757e-35 6.87007 2.78568)
(-3.27499e-35 6.61015 2.74042)
(-5.20693e-35 6.26353 2.69357)
(-8.2388e-35 5.79914 2.63835)
(-1.30635e-34 5.17122 2.55079)
(-2.10164e-34 4.31256 2.3754)
(-3.73337e-34 2.91278 2.03698)
(-5.65267e-34 -0.674104 0.761625)
(-1.76264e-34 -4.09067 -0.81913)
(-3.78005e-35 -6.0619 -0.842197)
(1.59888e-34 -7.72536 -1.32863)
(4.6376e-34 -8.63199 -1.52258)
(7.61723e-34 -8.7898 -2.06008)
(1.73806e-34 -9.41971 -1.31295)
(-9.19041e-35 -13.8477 -2.21511)
(-1.89793e-34 -15.5087 -3.36423)
(-5.61341e-35 -16.4973 -2.00088)
(-3.5434e-37 -23.657 -1.6391)
(3.30336e-35 -32.2491 -1.47416)
(2.14468e-33 -38.987 -1.13031)
(3.49322e-32 -43.9995 -0.517245)
(8.2451e-34 -44.6463 0.287677)
(1.45717e-32 -42.286 1.42538)
(1.53495e-31 -40.7548 3.5752)
(1.34257e-31 -26.1611 2.7519)
(-1.61769e-32 -7.22543 4.99205)
(-1.13672e-30 -9.04572 5.57552)
(-1.84508e-29 -15.4787 6.7979)
(-3.07009e-29 -20.5566 4.77779)
(6.31604e-28 -21.422 4.71402)
(5.45309e-27 -16.9037 3.32989)
(2.87445e-26 -2.2003 -1.73631)
(2.57876e-26 6.84368 -8.23133)
(1.70297e-26 8.83631 -11.4979)
(7.69299e-27 8.97556 -13.0211)
(2.30258e-27 8.58175 -13.3491)
(4.299e-28 8.0402 -13.0383)
(3.99633e-28 7.65157 -12.4699)
(-3.12787e-27 7.55462 -11.8394)
(2.65777e-26 7.74423 -11.2146)
(-1.97356e-25 8.141 -10.6178)
(1.2524e-24 8.63102 -10.0032)
(-6.60857e-24 9.1152 -9.42007)
(2.55092e-23 9.62478 -8.81806)
(-4.71372e-23 10.2311 -8.09006)
(-2.25735e-22 10.7394 -7.25098)
(1.92415e-21 10.8574 -6.55468)
(-2.88323e-21 10.6081 -6.13497)
(-8.42015e-21 10.1465 -5.84405)
(-4.05201e-21 9.63818 -5.42265)
(8.55857e-20 9.07796 -4.73099)
(-3.60135e-19 8.61721 -3.84053)
(-5.28341e-19 8.42671 -2.6469)
(-5.61161e-18 8.40034 -1.76487)
(2.08453e-17 8.48104 -1.33171)
(-8.03847e-17 9.17747 -1.22247)
(-1.15327e-43 2.23505 2.68635)
(-3.50113e-43 2.85876 2.64512)
(-8.70085e-43 3.24212 2.66785)
(-2.17835e-42 3.62208 2.67537)
(-5.38616e-42 3.98127 2.70028)
(-1.3462e-41 4.3188 2.72481)
(-3.3994e-41 4.63929 2.75634)
(-8.80611e-41 4.94538 2.79407)
(-2.32498e-40 5.2411 2.83808)
(-6.20675e-40 5.52493 2.88599)
(-1.67718e-39 5.79722 2.93885)
(-4.51866e-39 6.05718 2.99188)
(-1.18795e-38 6.30143 3.03992)
(-3.00326e-38 6.53447 3.07734)
(-7.31385e-38 6.75778 3.09963)
(-1.70883e-37 6.95953 3.10898)
(-3.76404e-37 7.11391 3.10719)
(-7.89608e-37 7.20595 3.09824)
(-1.60746e-36 7.24625 3.08593)
(-3.16828e-36 7.25293 3.06626)
(-6.02094e-36 7.23128 3.0374)
(-1.09995e-35 7.17236 2.9984)
(-1.95026e-35 7.06056 2.95705)
(-3.33036e-35 6.87867 2.91861)
(-5.44065e-35 6.61559 2.88621)
(-8.61527e-35 6.26676 2.85573)
(-1.35509e-34 5.80272 2.81628)
(-2.13665e-34 5.18198 2.7372)
(-3.4308e-34 4.34006 2.55667)
(-6.0511e-34 3.0045 2.19928)
(-9.35172e-34 -0.21038 1.0035)
(-2.73236e-34 -3.93459 -1.08537)
(-5.08907e-35 -5.94285 -1.24882)
(1.56972e-34 -7.56837 -1.45388)
(4.55598e-34 -8.46244 -1.52759)
(7.59202e-34 -8.71481 -2.0634)
(1.95088e-34 -9.29816 -1.39998)
(-8.77078e-35 -13.5445 -2.20773)
(-1.89796e-34 -15.4654 -3.33)
(-5.97973e-35 -16.6386 -2.01093)
(-6.82559e-37 -23.6853 -1.61334)
(2.9967e-35 -32.2831 -1.43081)
(2.11454e-33 -39.0865 -1.03259)
(3.48737e-32 -44.1745 -0.346989)
(7.41516e-34 -44.9015 0.521364)
(1.57029e-32 -42.7559 1.78253)
(1.5357e-31 -41.0429 3.93821)
(1.37832e-31 -26.5368 3.04641)
(3.76904e-31 -8.26357 5.07562)
(-9.70866e-31 -9.8242 5.3207)
(-3.86293e-29 -15.6702 5.60465)
(-1.36396e-28 -20.3512 2.99567)
(9.90786e-28 -21.1232 3.9534)
(1.21675e-26 -16.2169 3.94708)
(5.1079e-26 -1.48775 -1.92091)
(4.63583e-26 7.32339 -8.56053)
(3.32248e-26 9.09 -12.0717)
(1.5706e-26 9.0411 -13.7119)
(4.81562e-27 8.5322 -14.0111)
(9.44685e-28 7.94223 -13.6224)
(6.32287e-28 7.54294 -12.9689)
(-4.38148e-27 7.45271 -12.2652)
(3.65724e-26 7.65333 -11.5899)
(-2.67459e-25 8.05876 -10.9605)
(1.67776e-24 8.55882 -10.3431)
(-8.70757e-24 9.04777 -9.77355)
(3.31968e-23 9.54053 -9.18291)
(-6.08974e-23 10.1213 -8.45218)
(-2.82467e-22 10.6352 -7.59489)
(2.36214e-21 10.7967 -6.8865)
(-2.98946e-21 10.5838 -6.45408)
(-1.15241e-20 10.1223 -6.13079)
(-1.38725e-20 9.5863 -5.68521)
(8.34958e-20 9.00062 -4.98907)
(-3.17585e-19 8.50825 -4.13348)
(-4.62434e-19 8.29736 -2.98821)
(-5.70367e-18 8.30857 -1.99941)
(1.43827e-17 8.44679 -1.40196)
(-2.14613e-17 9.14492 -1.09377)
(-1.91554e-43 2.23951 2.82885)
(-5.7888e-43 2.85955 2.78054)
(-1.42918e-42 3.23801 2.80043)
(-3.56203e-42 3.61744 2.80527)
(-8.76891e-42 3.97481 2.82858)
(-2.18304e-41 4.3115 2.85171)
(-5.47546e-41 4.63057 2.88209)
(-1.41202e-40 4.93513 2.91914)
(-3.73851e-40 5.22957 2.96423)
(-1.00173e-39 5.51231 3.01347)
(-2.72187e-39 5.78399 3.06742)
(-7.40867e-39 6.04431 3.12274)
(-1.9608e-38 6.29016 3.1721)
(-4.97477e-38 6.52599 3.21063)
(-1.21292e-37 6.75222 3.23373)
(-2.83335e-37 6.95627 3.24468)
(-6.24261e-37 7.11276 3.24439)
(-1.31226e-36 7.20594 3.23623)
(-2.67469e-36 7.24715 3.2242)
(-5.27717e-36 7.25547 3.20573)
(-1.00211e-35 7.23581 3.17941)
(-1.83392e-35 7.17814 3.14664)
(-3.25397e-35 7.06629 3.11531)
(-5.55056e-35 6.88383 3.09104)
(-9.03035e-35 6.62051 3.07668)
(-1.42415e-34 6.27381 3.06766)
(-2.22881e-34 5.81681 3.04823)
(-3.49962e-34 5.21384 2.98047)
(-5.61839e-34 4.40579 2.79656)
(-9.83769e-34 3.15667 2.41822)
(-1.54322e-33 0.295175 1.29207)
(-5.30598e-34 -3.75201 -1.12935)
(-1.07289e-34 -5.77588 -1.6452)
(1.39621e-34 -7.4052 -1.68081)
(4.43271e-34 -8.28514 -1.58247)
(7.57538e-34 -8.61915 -2.05663)
(2.18626e-34 -9.17526 -1.45512)
(-8.26371e-35 -13.2888 -2.18745)
(-1.89849e-34 -15.4241 -3.30057)
(-6.35318e-35 -16.7656 -2.02298)
(-1.05262e-36 -23.7292 -1.58294)
(2.69988e-35 -32.335 -1.38462)
(2.08839e-33 -39.2023 -0.925541)
(3.48059e-32 -44.3703 -0.162462)
(6.34958e-34 -45.178 0.776568)
(1.6968e-32 -43.2358 2.17836)
(1.5222e-31 -41.3716 4.32823)
(1.57154e-31 -26.9537 3.38546)
(1.21159e-30 -9.17196 5.21499)
(-6.72501e-31 -10.412 4.89971)
(-8.05588e-29 -15.6949 4.14487)
(-3.50757e-28 -20.1182 1.11201)
(2.73391e-27 -21.0107 3.4706)
(3.18204e-26 -15.686 4.18735)
(6.68755e-26 0.370923 -2.46986)
(7.08116e-26 8.42094 -9.19899)
(6.07394e-26 9.69044 -12.943)
(3.1133e-26 9.2653 -14.6295)
(9.96957e-27 8.52467 -14.8329)
(2.06651e-27 7.82616 -14.3205)
(1.02422e-27 7.38987 -13.5523)
(-5.9843e-27 7.29579 -12.7582)
(4.92207e-26 7.50242 -12.0183)
(-3.55205e-25 7.91395 -11.3478)
(2.20729e-24 8.41985 -10.7232)
(-1.13062e-23 8.91141 -10.1601)
(4.27243e-23 9.38851 -9.5784)
(-7.7918e-23 9.94241 -8.85241)
(-3.52427e-22 10.4562 -7.98042)
(2.90646e-21 10.6591 -7.25134)
(-3.07944e-21 10.485 -6.79518)
(-1.58946e-20 10.0215 -6.44213)
(-2.63075e-20 9.44401 -5.97857)
(7.42551e-20 8.80998 -5.27746)
(-2.81278e-19 8.26738 -4.44459)
(-4.25785e-19 8.04438 -3.33603)
(-5.12297e-18 8.11463 -2.25745)
(2.00992e-18 8.33733 -1.50967)
(4.49828e-17 9.02653 -1.27561)
(-3.16947e-43 2.24562 2.96343)
(-9.53821e-43 2.86259 2.91023)
(-2.33766e-42 3.23657 2.92714)
(-5.79906e-42 3.61531 2.92986)
(-1.42304e-41 3.97107 2.95194)
(-3.53296e-41 4.30701 2.9744)
(-8.79433e-41 4.62486 3.00376)
(-2.25533e-40 4.92773 3.04055)
(-5.97891e-40 5.22081 3.08662)
(-1.60998e-39 5.50254 3.138)
(-4.4022e-39 5.77369 3.19304)
(-1.21148e-38 6.03435 3.25105)
(-3.22857e-38 6.28192 3.30204)
(-8.22286e-38 6.52038 3.34198)
(-2.00689e-37 6.74927 3.36659)
(-4.68276e-37 6.95534 3.37998)
(-1.03322e-36 7.11387 3.38313)
(-2.18017e-36 7.20832 3.37819)
(-4.45177e-36 7.25047 3.36908)
(-8.78872e-36 7.25993 3.35479)
(-1.66671e-35 7.2413 3.33453)
(-3.05531e-35 7.18347 3.31298)
(-5.41886e-35 7.07012 3.2969)
(-9.22953e-35 6.88532 3.29254)
(-1.49558e-34 6.61976 3.30161)
(-2.35029e-34 6.27341 3.31834)
(-3.66547e-34 5.82242 3.32142)
(-5.73827e-34 5.23665 3.26484)
(-9.2236e-34 4.46112 3.077)
(-1.60628e-33 3.2885 2.67658)
(-2.55454e-33 0.721714 1.60339)
(-1.11785e-33 -3.48112 -0.983135)
(-2.51249e-34 -5.69223 -1.91015)
(9.46177e-35 -7.3798 -1.94127)
(4.1858e-34 -8.25341 -1.70167)
(7.54541e-34 -8.63891 -2.0805)
(2.47278e-34 -9.16234 -1.50384)
(-7.60508e-35 -13.1177 -2.16005)
(-1.90023e-34 -15.4368 -3.27557)
(-6.72624e-35 -16.9249 -2.03739)
(-1.45682e-36 -23.7959 -1.55247)
(2.42205e-35 -32.4038 -1.33767)
(2.06744e-33 -39.3278 -0.808432)
(3.47272e-32 -44.5526 0.038642)
(5.10736e-34 -45.4062 1.06196)
(1.81899e-32 -43.5976 2.61673)
(1.4889e-31 -41.4953 4.74691)
(2.14457e-31 -26.9757 3.7598)
(2.46e-30 -9.25784 5.34034)
(-1.51937e-30 -10.2235 4.28763)
(-1.3441e-28 -15.2883 2.46514)
(-6.18798e-28 -19.9841 -0.797064)
(6.95234e-27 -21.3126 2.96693)
(6.85745e-26 -15.4208 3.99687)
(1.68109e-26 2.00303 -3.31455)
(7.19322e-26 9.41095 -10.0858)
(1.01005e-25 10.2288 -14.0373)
(5.95358e-26 9.43415 -15.7098)
(2.03229e-26 8.47577 -15.7637)
(4.47679e-27 7.68465 -15.0877)
(1.72775e-27 7.22541 -14.177)
(-7.9631e-27 7.14022 -13.2759)
(6.48133e-26 7.36383 -12.4606)
(-4.61782e-25 7.7917 -11.744)
(2.84628e-24 8.31231 -11.109)
(-1.44253e-23 8.80929 -10.5478)
(5.40488e-23 9.2691 -9.9751)
(-9.74093e-23 9.79239 -9.26504)
(-4.39469e-22 10.3049 -8.39254)
(3.57012e-21 10.5492 -7.64116)
(-3.15465e-21 10.4122 -7.14841)
(-2.18955e-20 9.94891 -6.76112)
(-4.20007e-20 9.34063 -6.28174)
(5.63126e-20 8.67636 -5.5745)
(-2.41491e-19 8.09945 -4.75108)
(-4.33645e-19 7.8421 -3.68417)
(-3.82316e-18 7.93279 -2.54501)
(-1.41068e-17 8.21817 -1.64745)
(1.04209e-16 8.93315 -1.02914)
(-5.22387e-43 2.25223 3.09664)
(-1.56929e-42 2.86602 3.04038)
(-3.81667e-42 3.23521 3.05436)
(-9.41143e-42 3.61289 3.055)
(-2.30474e-41 3.96697 3.07616)
(-5.71319e-41 4.30201 3.09887)
(-1.41002e-40 4.61849 3.1272)
(-3.59092e-40 4.91949 3.16389)
(-9.51277e-40 5.21091 3.21093)
(-2.5764e-39 5.49159 3.26517)
(-7.09496e-39 5.7622 3.32163)
(-1.97346e-38 6.02303 3.38237)
(-5.2977e-38 6.27245 3.43543)
(-1.35537e-37 6.51367 3.47725)
(-3.31344e-37 6.74518 3.50427)
(-7.72248e-37 6.95321 3.52117)
(-1.7077e-36 7.11364 3.52949)
(-3.62243e-36 7.20933 3.53044)
(-7.4137e-36 7.25216 3.52741)
(-1.46426e-35 7.26255 3.52086)
(-2.77298e-35 7.24428 3.51081)
(-5.08536e-35 7.18528 3.50503)
(-9.01024e-35 7.06981 3.50982)
(-1.53203e-34 6.88217 3.5313)
(-2.47351e-34 6.61424 3.56941)
(-3.87613e-34 6.26909 3.61607)
(-6.03313e-34 5.82644 3.64379)
(-9.42622e-34 5.26157 3.59793)
(-1.51787e-33 4.52346 3.40589)
(-2.6343e-33 3.42864 2.98346)
(-4.25119e-33 1.11602 1.94192)
(-2.30961e-33 -3.12715 -0.710748)
(-5.28825e-34 -5.6 -1.99585)
(1.97405e-35 -7.39007 -2.19023)
(3.70823e-34 -8.27858 -1.85914)
(7.41423e-34 -8.69751 -2.14757)
(2.82411e-34 -9.17935 -1.56897)
(-6.68452e-35 -12.9591 -2.1333)
(-1.90225e-34 -15.4551 -3.25985)
(-7.10445e-35 -17.0958 -2.05732)
(-1.90925e-36 -23.8707 -1.52539)
(2.16012e-35 -32.4806 -1.29339)
(2.05141e-33 -39.4665 -0.684275)
(3.46361e-32 -44.7475 0.253784)
(3.72686e-34 -45.6465 1.37796)
(1.90336e-32 -43.9568 3.09572)
(1.43913e-31 -41.5711 5.19446)
(3.52785e-31 -26.8941 4.16194)
(3.82537e-30 -9.12754 5.42007)
(-6.65554e-30 -9.73686 3.50552)
(-1.72378e-28 -14.6973 0.620333)
(-7.18517e-28 -19.9117 -2.65791)
(1.33362e-26 -21.7545 2.29337)
(9.97448e-26 -15.2689 3.25702)
(-2.84785e-25 3.69845 -4.51373)
(-5.26499e-26 10.5003 -11.3082)
(1.40429e-25 10.8153 -15.4327)
(1.08556e-25 9.5961 -17.0187)
(4.07749e-26 8.39754 -16.8618)
(9.65041e-27 7.50906 -15.975)
(3.08488e-27 7.0282 -14.8865)
(-1.02833e-26 6.9553 -13.8536)
(8.35115e-26 7.19932 -12.9465)
(-5.87822e-25 7.64858 -12.1755)