/*--------------------------------*- C++ -*----------------------------------*\
| =========                 |                                                 |
| \\      /  F ield         | OpenFOAM: The Open Source CFD Toolbox           |
|  \\    /   O peration     | Version:  4.1                                   |
|   \\  /    A nd           | Web:      www.OpenFOAM.org                      |
|    \\/     M anipulation  |                                                 |
\*---------------------------------------------------------------------------*/
FoamFile
{
    version     2.0;
    format      ascii;
    class       volScalarField;
    location    "22";
    object      p;
}
// * * * * * * * * * * * * * * * * * * * * * * * * * * * * * * * * * * * * * //

dimensions      [0 2 -2 0 0 0 0];

internalField   nonuniform List<scalar> 
6785
(
751.679
697.483
645.616
596.908
551.742
509.432
469.794
432.533
397.214
363.572
332.225
303.799
274.943
240
209.505
278.536
256.663
251.976
248.451
243.086
237.569
232.615
228.414
225.124
222.855
221.818
222.441
224.729
226.878
226.829
180.411
174.769
180.709
184.43
187.2
190.519
194.12
197.768
201.398
204.862
207.947
210.739
213.603
215.927
216.512
224.909
224.82
229.214
229.332
229.175
229.226
229.002
228.517
227.847
227.019
226.004
224.824
223.792
223.44
223.674
238.223
239.132
240.872
239.133
237.835
236.765
235.491
234.222
233.078
232.099
231.3
230.654
230.155
230.063
230.186
227.734
228.506
229.616
229.146
229.25
229.476
229.592
229.795
230.093
230.443
230.825
231.208
231.469
231.719
231.645
223.652
224.444
225.906
226.791
227.623
228.247
228.728
229.21
229.653
230.023
230.319
230.541
230.558
230.586
230.146
225.774
226.315
227.773
228.965
229.539
229.813
229.994
230.154
230.256
230.305
230.315
230.3
230.08
230.017
229.474
228.035
228.151
229.231
230.239
230.378
230.35
230.323
230.294
230.24
230.177
230.109
230.052
229.741
229.679
229.126
228.441
228.3
229.029
229.896
229.84
229.764
229.719
229.67
229.611
229.558
229.501
229.469
229.118
229.068
228.511
227.202
227.043
227.635
228.537
228.532
228.581
228.633
228.66
228.674
228.689
228.679
228.699
228.348
228.33
227.779
225.352
225.266
225.843
226.835
226.982
227.239
227.462
227.653
227.825
227.986
228.101
228.231
227.926
227.994
227.504
222.036
221.993
222.749
224.035
224.485
225.122
225.69
226.232
226.754
227.252
227.678
228.067
227.939
228.19
227.858
216.201
216.356
217.4
219.31
220.805
222.711
224.546
226.347
228.038
229.553
230.814
231.68
231.971
232.503
232.07
198.881
194.581
195.422
199.147
203.249
207.939
212.479
216.854
220.788
224.274
226.98
228.935
230.488
232.29
233.321
258.501
258.207
258.335
257.67
257.379
256.515
256.324
255.116
254.424
253.647
253.335
251.355
249.256
249.123
247.252
245.882
245.496
245.511
242.783
240.796
240.873
238.463
236.69
237.181
237.787
235.21
233.243
233.859
235.118
232.026
231.246
232.482
229.962
228.145
229.786
232.12
229.241
229.327
231.339
228.986
227.286
229.444
232.069
229.981
228.469
230.58
233.718
231.315
231.927
234.528
232.634
231.341
233.51
236.572
235.156
234.236
236.264
239.588
238.151
238.849
241.67
240.743
240.189
241.69
244.675
244.025
244.478
246.982
246.742
246.672
247.314
249.517
249.527
249.63
249.741
251.304
251.53
250.985
252.008
252.108
252.297
252.26
251.96
258.817
252.586
253.154
253.459
253.573
253.687
253.911
253.824
253.322
259.937
252.862
253.138
253.459
253.682
253.737
254.045
253.959
253.247
258.333
251.094
251.13
250.956
250.876
250.797
250.532
250.38
249.95
248.629
249.961
241.9
241.163
240.187
238.984
238.193
237.939
237.111
234.613
227.182
221.782
220.83
219.345
217.202
215.238
214.058
213.051
209.741
191.96
186.873
183.743
181.455
178.724
175.543
172.885
170.232
165.792
136.373
137.022
132.07
127.545
122.941
118.802
113.932
108.714
104.117
98.6761
52.7799
65.2021
59.392
54.7429
49.8131
44.2152
38.8401
37.456
37.2893
-7.19609
26.7931
25.0522
23.8517
23.1307
20.1613
19.8278
19.5425
19.8655
20.4322
18.9255
19.8139
20.2837
18.8125
18.6744
18.3446
19.2321
19.7033
17.8196
17.7546
17.4191
18.1835
18.333
16.0511
17.5429
17.9377
14.9025
14.8708
14.5769
16.2784
17.054
13.2639
13.6306
13.5084
15.7056
16.549
12.7612
15.9794
16.7526
11.723
12.495
12.5012
15.3779
16.4101
10.5622
11.2706
11.1792
14.1535
15.3436
10.5961
14.4661
15.2348
9.61386
10.7747
11.1419
14.4966
15.9148
10.9378
12.3793
12.9016
16.3333
18.0232
15.3298
19.3258
20.4951
17.9329
19.742
20.2731
22.7992
23.6807
22.9238
24.7004
24.5876
25.2294
24.2308
24.0134
24.5886
22.8807
20.8956
16.939
11.598
7.41091
2.73598
-0.0584606
-0.0529221
-0.059006
-0.0570086
-0.0564942
-0.0566819
-0.0584567
-0.0621958
-0.0684533
-0.0778567
-0.0912074
-0.108999
-0.131484
-0.159833
-0.194226
-0.23466
-0.280311
-0.329518
-0.379152
-0.424407
-0.457813
-0.469378
-0.445658
-0.369464
-0.21968
0.028809
0.404504
0.938545
1.66285
2.60781
3.79923
5.25522
6.98463
8.98743
11.2592
13.7923
16.5666
19.5149
22.4453
24.8892
25.7003
21.611
13.4456
2.74737
-0.92318
-0.631891
-2.54301
-3.73299
-3.49333
-3.04866
-5.2786
-4.57657
-3.89357
-4.34071
-5.26566
-5.62661
-5.35921
-4.90242
-4.68115
-4.82773
-5.75449
-7.32648
-7.00147
-6.4585
-6.21474
-5.72717
-4.88482
-3.79054
-2.68133
-1.61686
-0.806467
-0.026152
-0.461247
-0.246726
0.00374424
-0.782553
-1.69378
-1.30613
2.01088
-0.0903301
-0.0687789
-0.0711962
-0.0568004
-0.0434858
-0.0300215
-0.0180812
-0.00813824
-0.00102775
0.00236632
0.000887081
-0.00569692
-0.0180038
-0.0386369
-0.067651
-0.105243
-0.150935
-0.203088
-0.257876
-0.309504
-0.347797
-0.359721
-0.326693
-0.224368
-0.0222052
0.317216
0.837367
1.58675
2.61581
3.97338
5.70095
7.82771
10.3677
13.3222
16.6898
20.4741
24.6739
29.2348
33.9239
38.0732
40.126
37.2333
27.5389
15.5525
8.71265
3.56509
0.0274067
-3.30655
-5.40569
-6.29173
-9.54841
-9.48166
-10.0929
-12.4811
-14.2124
-14.5829
-14.4351
-14.5417
-15.0384
-16.0044
-18.2307
-20.813
-20.0426
-19.145
-18.3365
-16.7533
-13.9935
-10.1718
-5.95734
-2.19281
-0.120054
0.602051
-0.425544
-0.259116
0.155577
-0.346614
-1.032
-0.101944
5.77462
-0.0676117
-0.0237846
-0.0136988
0.019379
0.0528847
0.0889577
0.125259
0.16157
0.197151
0.231492
0.264241
0.295527
0.323614
0.346934
0.365753
0.380584
0.391987
0.402208
0.415607
0.438977
0.483334
0.562872
0.697242
0.912226
1.23965
1.71778
2.39065
3.30612
4.51236
6.05412
7.96611
10.2687
12.9653
16.0446
19.4904
23.2829
27.3771
31.638
35.7019
38.7363
39.2389
35.8833
26.8487
16.1546
8.6051
2.31628
-1.36315
-4.71988
-6.50302
-7.61743
-10.4795
-10.5722
-11.7724
-15.0342
-17.1327
-18.0109
-18.8349
-20.3656
-22.4801
-25.3273
-29.4538
-32.8998
-32.1207
-31.1266
-29.9454
-27.6188
-23.5851
-17.9417
-11.4377
-5.22017
-1.07596
0.524426
-0.335383
-0.323978
0.194161
0.385773
0.43429
1.82664
8.74403
-0.0432232
0.0240398
0.0507279
0.105065
0.161637
0.223516
0.287999
0.35507
0.424213
0.495471
0.56972
0.646618
0.723646
0.801834
0.880991
0.962137
1.04631
1.1365
1.23729
1.35634
1.50492
1.69774
1.95426
2.29975
2.76478
3.38515
4.20097
5.25429
6.58548
8.22956
10.2104
12.5378
15.2053
18.1913
21.4637
24.967
28.5803
32.0351
34.799
35.9919
34.8106
31.532
23.7796
14.7604
7.4822
1.08044
-2.60004
-5.6973
-6.99843
-7.82477
-10.1654
-10.4214
-12.2419
-15.7522
-18.3628
-20.2357
-22.4631
-25.6243
-29.5685
-34.5369
-40.4733
-44.3571
-43.4585
-42.3735
-40.8937
-37.951
-32.8752
-25.6037
-16.9224
-8.27349
-2.1027
0.260491
-0.176241
-0.344275
0.217693
0.984095
1.61631
3.47977
10.9028
-0.0262289
0.062831
0.107456
0.182827
0.262246
0.349529
0.441941
0.539612
0.642312
0.750414
0.865048
0.985519
1.11037
1.24164
1.37878
1.52269
1.67518
1.8393
2.01945
2.22363
2.46246
2.7503
3.1055
3.55161
4.11658
4.83252
5.7344
6.85767
8.23484
9.89215
11.8451
14.0963
16.6336
19.4287
22.4327
25.5481
28.5688
31.0964
32.5071
32.1699
30.4503
27.3654
20.7298
13.0117
6.58997
0.73012
-2.35602
-4.52051
-5.22548
-6.17736
-8.79769
-9.87496
-12.6245
-16.4964
-20.081
-23.3806
-27.099
-31.7115
-37.2398
-43.9155
-51.0406
-54.9929
-54.0526
-52.8823
-51.1834
-47.8096
-41.9937
-33.4354
-22.8858
-11.9132
-3.60971
-0.234101
0.021355
-0.302685
0.258246
1.4386
2.38042
4.6381
12.0581
-0.0115699
0.0981057
0.161471
0.257284
0.358869
0.470664
0.590008
0.717268
0.85256
0.996444
1.14951
1.31154
1.48281
1.66453
1.85641
2.05912
2.27487
2.50631
2.75755
3.03641
3.35226
3.71853
4.15207
4.67415
5.3097
6.08694
7.03593
8.18623
9.56394
11.1888
13.0708
15.2084
17.5859
20.1693
22.8914
25.6119
28.0473
29.714
30.0394
28.9355
27.7687
24.5097
18.7246
12.0575
6.55363
1.51313
-0.769474
-1.93186
-2.32406
-3.8903
-7.13095
-9.26477
-12.97
-17.6669
-22.5215
-27.367
-32.5154
-38.378
-45.1515
-52.9874
-60.7192
-64.6408
-63.8791
-62.6452
-60.7719
-57.1032
-50.7523
-41.1883
-29.0593
-15.9356
-5.48041
-0.822029
0.189473
-0.225565
0.322289
1.79359
2.87114
5.44613
12.4211
0.00326318
0.13342
0.216771
0.333289
0.45722
0.593366
0.739227
0.895422
1.06239
1.24098
1.43163
1.63478
1.8515
2.08238
2.32758
2.58778
2.86499
3.16152
3.48121
3.83136
4.22007
4.65962
5.1653
5.75619
6.45437
7.28462
8.2728
9.44376
10.8187
12.4129
14.233
16.2749
18.5211
20.9324
23.4249
25.8221
27.7857
28.8104
28.5066
27.399
26.8764
23.2366
18.1557
12.3506
7.57259
3.33172
1.5514
0.660602
-0.169981
-2.54201
-6.12771
-8.98117
-13.5356
-19.3443
-25.5353
-31.8368
-38.2845
-45.2412
-52.9695
-61.5039
-69.4454
-73.3695
-72.9686
-71.6997
-69.688
-65.8216
-59.098
-48.8132
-35.4099
-20.3622
-7.73574
-1.45045
0.261323
-0.120634
0.42521
2.06345
3.16223
5.95472
12.5332
0.0175128
0.168195
0.272922
0.411067
0.558272
0.719447
0.89236
1.07783
1.27655
1.48965
1.71795
1.96228
2.2238
2.5032
2.80097
3.118
3.4559
3.81681
4.20438
4.62531
5.0866
5.59939
6.17757
6.83825
7.60106
8.4878
9.52089
10.7214
12.1067
13.689
15.4725
17.4524
19.6104
21.9036
24.236
26.4057
28.0459
28.6805
28.1566
27.4511
27.1807
23.4846
18.8032
13.5375
9.24065
5.55211
3.69299
2.30959
0.504426
-2.50996
-6.05823
-9.31369
-14.6201
-21.5189
-28.9829
-36.5968
-44.2259
-52.1665
-60.6113
-69.4797
-77.3593
-81.3253
-81.3639
-80.0886
-77.9662
-73.9511
-66.9758
-56.2168
-41.8299
-25.1315
-10.3802
-2.22869
0.163826
-0.0040828
0.5596
2.24391
3.2926
6.17718
12.3754
0.0307206
0.201653
0.328821
0.48947
0.660892
0.848004
1.04893
1.26468
1.49612
1.74461
2.01129
2.29732
2.60386
2.93186
3.28204
3.65545
4.05346
4.47802
4.93275
5.42382
5.95717
6.54297
7.19388
7.92528
8.75463
9.70118
10.7843
12.0219
13.4282
15.0129
16.7789
18.7211
20.8216
23.036
25.261
27.2803
28.7205
29.168
28.6996
28.5202
27.901
24.462
20.2236
15.2964
11.0283
7.50981
5.20751
2.97873
0.262458
-3.08817
-6.50883
-10.1935
-16.2312
-24.0924
-32.6835
-41.4879
-50.2701
-59.1334
-68.096
-77.0185
-84.6472
-88.6733
-89.14
-87.8873
-85.667
-81.515
-74.3704
-63.3284
-48.2271
-30.1772
-13.4281
-3.31272
-0.134492
0.153291
0.725444
2.34652
3.31488
6.1775
11.9628
0.0431439
0.233857
0.384154
0.56786
0.76413
0.977893
1.20767
1.45468
1.71999
2.00513
2.31144
2.6403
2.99296
3.3705
3.77379
4.20394
4.66212
5.15005
5.67144
6.23188
6.83629
7.494
8.21655
9.01776
9.9132
10.9198
12.0542
13.3314
14.7629
16.3563
18.1134
20.0295
22.0878
24.2438
26.3912
28.3087
29.6345
30.039
29.8021
30.1359
28.6075
25.583
21.6501
17.1065
12.7536
9.07816
6.23272
3.27958
0.0732939
-3.39332
-6.91917
-11.2892
-18.1224
-26.8496
-36.4383
-46.3857
-56.3581
-66.1185
-75.4415
-84.2239
-91.4871
-95.5705
-96.3952
-95.1873
-92.8594
-88.5544
-81.2806
-70.0859
-54.5134
-35.4165
-16.8483
-4.71311
-0.568819
0.353934
0.922389
2.40944
3.29283
6.04434
11.437
0.0554016
0.265417
0.439263
0.646294
0.867755
1.10859
1.36776
1.64672
1.94679
2.26968
2.61695
2.99007
3.39035
3.81894
4.27676
4.76484
5.28415
5.83613
6.42458
7.05421
7.72912
8.45785
9.25081
10.1204
11.0805
12.1458
13.3306
14.6472
16.1046
17.7083
19.4596
21.354
23.3761
25.4827
27.5674
29.4112
30.6786
31.1275
31.1421
31.4948
29.2248
26.6906
23.1353
18.8533
14.3061
10.3745
7.17592
3.84944
0.535556
-3.00189
-6.97186
-12.2727
-19.9906
-29.552
-40.0938
-51.2126
-62.4263
-73.0656
-82.6363
-91.1704
-98.0302
-102.153
-103.235
-102.081
-99.6193
-95.1252
-87.7219
-76.4519
-60.6228
-40.7679
-20.5938
-6.40934
-1.0256
0.605434
1.14627
2.47469
3.27359
5.85121
10.8816
0.0682022
0.297216
0.494929
0.72541
0.972217
1.24028
1.52909
1.84038
2.17576
2.53718
2.92642
3.34505
3.79444
4.27571
4.78978
5.33752
5.91955
6.53711
7.19387
7.89328
8.63906
9.43877
10.3017
11.2388
12.2624
13.3853
14.6195
15.9748
17.4581
19.0729
20.8197
22.6946
24.6834
26.7447
28.7743
30.5609
31.7973
32.2959
32.431
32.429
29.83
27.45
24.3885
20.4152
15.7656
11.6911
8.3366
4.96641
1.7028
-2.00848
-6.65437
-12.9562
-21.5967
-32.0339
-43.5751
-55.9085
-68.4006
-79.8968
-89.6493
-97.9014
-104.393
-108.531
-109.76
-108.653
-106.025
-101.292
-93.725
-82.411
-66.4933
-46.1409
-24.6046
-8.37779
-1.43129
0.894143
1.37617
2.55778
3.26742
5.67236
10.3389
0.0820161
0.330031
0.552021
0.806122
1.0784
1.37376
1.69226
2.03598
2.40689
2.80724
3.23905
3.70408
4.20372
4.73912
5.31111
5.92029
6.56692
7.25204
7.97881
8.74924
9.56702
10.4385
11.3717
12.3764
13.4633
14.6434
15.9266
17.3207
18.8303
20.4574
22.2014
24.0587
26.0164
28.0352
30.015
31.7557
32.977
33.5207
33.7611
33.1167
30.4346
28.2165
25.5228
21.836
17.2211
13.1176
9.75668
6.52965
3.27664
-0.756247
-6.13498
-13.3247
-22.8356
-34.2176
-46.8464
-60.4254
-74.1865
-86.5061
-96.4272
-104.435
-110.654
-114.783
-116.052
-114.972
-112.143
-107.119
-99.3313
-87.9629
-72.0658
-51.4392
-28.8149
-10.6181
-1.85974
1.12764
1.59339
2.65747
3.2685
5.55002
9.81246
0.0968819
0.364208
0.611093
0.889184
1.18721
1.50999
1.85825
2.23443
2.6409
3.08027
3.55489
4.06675
4.61737
5.2079
5.8391
6.51129
7.22434
7.97898
8.77747
9.62065
10.512
11.4565
12.4611
13.5341
14.6847
15.9224
17.2552
18.6888
20.226
21.8671
23.6105
25.4525
27.3813
29.3601
31.2953
33.0052
34.2493
34.9231
35.4257
33.5179
30.7895
28.8371
26.6213
23.149
18.6482
14.6288
11.3169
8.24897
4.89076
0.438144
-5.60484
-13.4912
-23.7523
-36.1102
-49.8881
-64.734
-79.6835
-92.7547
-102.889
-110.765
-116.847
-120.955
-122.162
-121.078
-118.021
-112.661
-104.586
-93.1184
-77.2957
-56.5896
-33.1669
-13.1464
-2.48521
1.22457
1.83207
2.76518
3.29528
5.50458
9.37088
0.112434
0.399572
0.67218
0.974894
1.29919
1.64978
2.02804
2.43681
2.8789
3.35731
3.87476
4.43355
5.03542
5.6816
6.37279
7.10906
7.88994
8.71567
9.5874
10.5053
11.4719
12.4911
13.5684
14.711
15.9266
17.223
18.6065
20.0811
21.6477
23.3053
25.0509
26.8804
28.7826
30.724
32.6216
34.3225
35.642
36.5052
36.9805
33.9237
31.1529
29.2933
27.4201
24.2874
20.0684
16.1701
12.8702
9.86829
6.30458
1.41641
-5.17149
-13.5737
-24.4521
-37.76
-52.6993
-68.8009
-84.8129
-98.5287
-108.937
-116.848
-122.961
-127.057
-128.11
-126.985
-123.679
-117.954
-109.53
-97.8997
-82.1604
-61.5372
-37.5947
-15.9493
-3.36651
1.17073
2.13762
2.86552
3.38586
5.55759
8.95955
0.128087
0.435548
0.734816
1.063
1.41436
1.79341
2.20222
2.644
3.12199
3.63959
4.19992
4.80563
5.45877
6.1607
6.91213
7.71298
8.56247
9.46026
10.4064
11.4006
12.4441
13.5395
14.6913
15.905
17.1871
18.5439
19.9801
21.498
23.0969
24.7741
26.5254
28.3456
30.2239
32.1309
33.9978
35.706
37.1146
38.0994
38.1539
34.4792
31.4262
29.8512
28.2138
25.3742
21.4317
17.6556
14.3344
11.2693
7.45518
2.17807
-4.83423
-13.6268
-25.0127
-39.2075
-55.287
-72.5753
-89.5175
-103.76
-114.484
-122.624
-128.955
-133.067
-133.895
-132.695
-129.134
-123.022
-114.198
-102.338
-86.6586
-66.2327
-42.0166
-18.977
-4.47484
1.03168
2.54255
2.94868
3.55149
5.67734
8.66874
0.143281
0.471419
0.798231
1.1528
1.53217
1.9406
2.3808
2.85632
3.37084
3.92811
4.53162
5.18442
5.88885
6.64648
7.45809
8.32352
9.24179
10.212
11.2332
12.3045
13.4259
14.5989
15.8264
17.1129
18.4633
19.8827
21.3742
22.9385
24.5734
26.2744
28.0357
29.8505
31.708
33.5832
35.4224
37.1363
38.5895
39.5762
39.1234
35.0781
31.6295
30.1026
28.812
26.3472
22.7074
19.0323
15.6752
12.46
8.40757
2.81511
-4.52754
-13.6657
-25.4837
-40.477
-57.6585
-76.0132
-93.7434
-108.414
-119.49
-128.042
-134.765
-138.918
-139.496
-138.195
-134.396
-127.887
-118.62
-106.464
-90.8005
-70.6358
-46.3507
-22.1677
-5.76661
0.909671
3.07829
3.03463
3.77268
5.83906
8.49125
0.157705
0.506623
0.861666
1.24344
1.65177
2.09056
2.56317
3.07346
3.62547
4.22327
4.87069
5.5711
6.32713
7.14057
8.01228
8.94209
9.92888
10.9712
12.0675
13.216
14.4156
15.6666
16.9708
18.3312
19.7516
21.2357
22.7854
24.4
26.0754
27.8054
29.5819
31.3959
33.2357
35.0804
36.8935
38.6202
40.1583
41.3666
39.8761
35.4657
32.0278
30.3714
29.3108
27.2769
23.9155
20.3043
16.9039
13.5225
9.2741
3.4371
-4.18443
-13.6988
-25.9158
-41.6035
-59.8114
-79.0911
-97.4617
-112.495
-123.955
-133.067
-140.31
-144.528
-144.875
-143.459
-139.447
-132.56
-122.821
-110.309
-94.6008
-74.7146
-50.5301
-25.4605
-7.20618
0.906184
3.74305
3.14852
4.01847
6.02135
8.27432
0.171407
0.540977
0.924666
1.33425
1.77229
2.24235
2.74839
3.29455
3.88522
4.52474
5.21719
5.96619
6.77461
7.64438
8.57644
9.57057
10.6256
11.7395
12.9103
14.1354
15.4127
16.7415
18.1223
19.557
21.0484
22.5991
24.2098
25.8784
27.5994
29.364
31.1616
32.9799
34.805
36.6208
38.4137
40.1858
41.9114
43.38
40.5411
35.8739
32.3151
30.7336
29.8502
28.1517
25.0598
21.5156
18.0634
14.5547
10.1542
4.11798
-3.77992
-13.7365
-26.3639
-42.6365
-61.7454
-81.8146
-100.682
-116.045
-127.926
-137.685
-145.516
-149.828
-149.996
-148.46
-144.261
-137.026
-126.818
-113.9
-98.0779
-78.4497
-54.4991
-28.7967
-8.78102
0.989358
4.44028
3.29546
4.26655
6.19469
8.10495
0.18475
0.574721
0.987231
1.42493
1.89318
2.39516
2.93545
3.51849
4.14899
4.83153
5.57039
6.36935
7.23143
8.1586
9.1518
10.2107
11.3339
12.5192
13.7638
15.0646
16.4186
17.8241
19.2806
20.7891
22.3516
23.9699
25.6437
27.3698
29.1409
30.9459
32.7706
34.5983
36.4125
38.2025
39.9853
41.831
43.7394
44.9715
41.2292
36.3754
32.6297
30.8885
30.2144
28.9187
26.1681
22.7217
19.2063
15.6269
11.1042
4.87707
-3.34307
-13.7979
-26.8753
-43.6441
-63.4925
-84.2251
-103.455
-119.135
-131.477
-141.916
-150.329
-154.739
-154.807
-153.163
-148.817
-141.269
-130.614
-117.261
-101.254
-81.8345
-58.2103
-32.1215
-10.5083
0.928759
5.00659
3.49582
4.50603
6.36733
8.01809
0.198263
0.608408
1.04978
1.5157
2.01438
2.54862
3.1237
3.74434
4.41563
5.14238
5.92904
6.77951
7.69684
8.68296
9.73867
10.8634
12.0555
13.3123
14.6306
16.0064
17.4359
18.9167
20.4475
22.0286
23.6614
25.3472
27.0853
28.8714
30.6967
32.5472
34.4044
36.2465
38.0529
39.8181
41.5864
43.4606
45.3707
46.1591
42.1536
36.7584
33.2272
31.3092
30.6878
29.7017
27.2607
23.9596
20.3874
16.7776
12.1312
5.69269
-2.92922
-13.9099
-27.4842
-44.7055
-65.1254
-86.39
-105.878
-121.875
-134.706
-145.806
-154.716
-159.206
-159.263
-157.53
-153.086
-145.278
-134.206
-120.403
-104.149
-84.871
-61.6282
-35.3808
-12.3909
0.567245
5.26494
3.79075
4.72976
6.55621
7.85941
0.212461
0.642696
1.11299
1.60712
2.13627
2.70287
3.31296
3.97162
4.68432
5.45615
6.29179
7.1952
8.16943
9.21629
10.3363
11.5286
12.791
14.1203
15.5127
16.9633
18.4678
20.0228
21.6264
23.2785
24.9804
26.7332
28.536
30.3838
32.2662
34.1663
36.0605
37.9202
39.719
41.4529
43.1817
45.0115
46.8701
47.2941
43.0143
37.2897
33.6981
31.8481
31.254
30.5
28.3438
25.2724
21.6515
18.0189
13.2104
6.52562
-2.57956
-14.0993
-28.2069
-45.8765
-66.7244
-88.378
-108.077
-124.384
-137.708
-149.396
-158.666
-163.213
-163.327
-161.524
-157.033
-149.035
-137.586
-123.329
-106.781
-87.5673
-64.7236
-38.5125
-14.3878
-0.0854562
5.1738
4.21482
4.93268
6.77264
7.80286
0.227697
0.67814
1.17753
1.6999
2.25952
2.85848
3.50361
4.2004
4.95479
5.77222
6.65761
7.61507
8.64763
9.75695
10.9432
12.205
13.5396
14.9432
16.411
17.9373
19.5169
21.1457
22.8213
24.5434
26.3133
28.1324
30
31.9108
33.8526
35.8054
37.7395
39.6179
41.4052
43.0961
44.7706
46.5931
48.6679
48.1762
43.5711
38.0971
34.2499
32.317
31.8479
31.3524
29.4703
26.6775
23.0233
19.3434
14.3139
7.33655
-2.30257
-14.3692
-29.0377
-47.1746
-68.3543
-90.2487
-110.152
-126.763
-140.569
-152.725
-162.197
-166.757
-166.971
-165.133
-160.644
-152.519
-140.743
-126.041
-109.161
-89.9373
-67.4724
-41.4506
-16.4375
-0.947537
4.81864
4.78561
5.10985
7.03195
7.78601
0.244077
0.715031
1.24387
1.79464
2.38482
3.01615
3.69631
4.43123
5.22736
6.09056
7.02609
8.03829
9.13021
10.3033
11.5575
12.8909
14.2999
15.7799
17.325
18.9286
20.5845
22.2878
24.0357
25.8277
27.6654
29.5508
31.4838
33.4589
35.4626
37.4707
39.4468
41.3433
43.1134
44.7526
46.3837
48.2932
50.5821
48.8513
44.3481
38.8769
35.1521
33.1272
32.6326
32.238
30.6476
28.1615
24.5288
20.7399
15.437
8.1069
-2.08162
-14.6985
-29.9563
-48.5865
-70.0515
-92.0515
-112.141
-129.085
-143.342
-155.823
-165.342
-169.851
-170.205
-168.374
-163.923
-155.72
-143.665
-128.541
-111.302
-91.9959
-69.8571
-44.1375
-18.4775
-1.90202
4.39975
5.50978
5.26288
7.32825
7.89119
0.261465
0.75334
1.31218
1.89167
2.51267
3.17653
3.89179
4.66484
5.5027
6.4117
7.3975
8.46473
9.61658
10.8545
12.1779
13.5844
15.0698
16.6284
18.2531
19.9363
21.6706
23.4501
25.2716
27.1345
29.0411
30.9941
32.9943
35.0362
37.1047
39.1715
41.192
43.1064
44.8556
46.4394
48.0318
49.9987
51.9678
49.5031
45.195
39.6628
35.9498
34.0001
33.5295
33.2377
31.8762
29.6985
26.1598
22.2043
16.5986
8.85087
-1.88723
-15.0589
-30.9299
-50.0741
-71.8099
-93.823
-114.037
-131.375
-146.051
-158.702
-168.124
-172.529
-173.047
-171.263
-166.885
-158.639
-146.343
-130.821
-113.213
-93.7564
-71.8706
-46.5331
-20.4562
-2.8372
4.17296
6.39736
5.39829
7.66877
8.16848
0.279561
0.792759
1.38225
1.99095
2.64321
3.33995
4.09056
4.90192
5.7816
6.73643
7.77253
8.8949
10.1069
11.41
12.8035
14.2844
15.8477
17.4868
19.1934
20.9585
22.7735
24.6317
26.5292
28.4654
30.4432
32.4665
34.5371
36.6498
38.7877
40.9179
42.9866
44.9202
46.6451
48.1575
49.6448
51.4626
52.9216
50.5241
45.8998
40.8129
36.9417
35.0443
34.6103
34.3733
33.1979
31.2878
27.9076
23.7481
17.8283
9.60858
-1.68073
-15.4166
-31.907
-51.5765
-73.5814
-95.5617
-115.828
-133.607
-148.684
-161.372
-170.579
-174.839
-175.512
-173.813
-169.537
-161.284
-148.774
-132.873
-114.897
-95.2341
-73.5185
-48.612
-22.328
-3.68545
4.22508
7.38271
5.52759
8.05056
8.50244
0.29801
0.832831
1.45368
2.09215
2.77624
3.50636
4.2928
5.14285
6.06464
7.06549
8.15202
9.32963
10.602
11.9706
13.4345
14.9904
16.6327
18.3537
20.1439
21.993
23.8913
25.8309
27.8072
29.8198
31.8724
33.9701
36.1159
38.305
40.5186
42.7185
44.8405
46.7946
48.4861
49.8915
51.1734
52.7285
53.8642
51.4478
46.7308
41.9973
38.2746
36.3635
35.8438
35.6382
34.6421
32.9463
29.7652
25.392
19.1581
10.4304
-1.41345
-15.7358
-32.8239
-53.0059
-75.2796
-97.2199
-117.511
-135.737
-151.206
-163.847
-172.749
-176.833
-177.636
-176.056
-171.899
-163.66
-150.96
-134.695
-116.354
-96.4489
-74.817
-50.3587
-24.0393
-4.44672
4.32066
8.26573
5.6876
8.4649
8.93939
0.316512
0.87308
1.52593
2.19475
2.9113
3.67541
4.49827
5.38759
6.35202
7.39935
8.53667
9.7698
11.1027
12.537
14.0716
15.703
17.4249
19.2286
21.1037
23.0386
25.0222
27.0456
29.1037
31.1963
33.3277
35.5048
37.7318
40.0043
42.3014
44.5787
46.7599
48.7343
50.3803
51.6515
52.7392
54.308
54.7543
52.0616
47.8221
42.9879
39.4601
37.649
37.2361
37.0967
36.2443
34.6883
31.7262
27.1589
20.6151
11.3628
-1.03808
-15.9799
-33.6281
-54.2681
-76.7911
-98.7238
-119.068
-137.732
-153.598
-166.13
-174.673
-178.562
-179.46
-178.021
-173.994
-165.781
-152.902
-136.288
-117.587
-97.4225
-75.7868
-51.7586
-25.5315
-5.13882
4.14566
8.78175
5.96283
8.91266
9.53237
0.334888
0.913136
1.59853
2.2982
3.04778
3.84652
4.70647
5.63574
6.64352
7.73802
8.92677
10.216
11.6099
13.1103
14.716
16.4232
18.2251
20.1122
22.073
24.0948
26.1653
28.2747
30.4173
32.5931
34.8077
37.0694
39.3842
41.7479
44.1373
46.5008
48.7475
50.7429
52.3364
53.4782
54.473
56.1545
55.3611
52.9212
48.9869
44.4196
40.9748
39.1861
38.748
38.7051
37.9881
36.5459
33.7895
29.0667
22.2162
12.4388
-0.517492
-16.1064
-34.2888
-55.297
-78.0205
-99.9921
-120.454
-139.564
-155.858
-168.218
-176.377
-180.066
-181.02
-179.733
-175.847
-167.667
-154.609
-137.653
-118.6
-98.1722
-76.4521
-52.7966
-26.752
-5.73639
3.68341
8.80029
6.44344
9.39353
10.101
0.353096
0.952791
1.67115
2.40206
3.18517
4.01907
4.91673
5.88668
6.9386
8.08111
9.32215
10.6683
12.124
13.6913
15.3688
17.1523
19.0347
21.0058
23.0529
25.1624
27.321
29.5179
31.7472
34.0093
36.3109
38.6624
41.0716
43.5347
46.0258
48.485
50.8053
52.8262
54.3702
55.3982
56.3223
57.7083
55.9024
53.9611
49.9044
45.9349
42.7396
40.8629
40.4007
40.4459
39.8959
38.5324
35.9494
31.1245
23.9698
13.6868
0.176172
-16.0707
-34.7817
-56.0637
-78.9088
-100.956
-121.625
-141.221
-157.965
-170.113
-177.881
-181.379
-182.349
-181.217
-177.48
-169.335
-156.093
-138.794
-119.401
-98.7062
-76.8425
-53.4652
-27.6675
-6.20059
3.08152
8.3902
7.22551
9.88875
10.8226
0.371216
0.992016
1.74364
2.50605
3.32306
4.19254
5.12845
6.13972
7.23653
8.42796
9.72229
11.1264
12.6451
14.2803
16.0306
17.8915
19.8553
21.911
24.0453
26.2433
28.4908
30.7765
33.0942
35.445
37.8371
40.2832
42.7931
45.3637
47.966
50.5312
52.9348
54.9885
56.4839
57.3659
58.0601
58.7628
56.9275
54.913
51.1164
47.1941
44.3203
42.6202
42.1572
42.2772
41.9268
40.6525
38.1988
33.3288
25.8804
15.1241
1.0577
-15.8395
-35.0748
-56.5597
-79.4367
-101.579
-122.557
-142.7
-159.888
-171.819
-179.199
-182.526
-183.476
-182.494
-178.917
-170.805
-157.365
-139.715
-119.991
-99.0292
-76.9873
-53.7734
-28.2769
-6.49669
2.59886
7.81328
8.40229
10.3742
11.6199
0.389402
1.03092
1.81603
2.61011
3.46123
4.36661
5.34114
6.39424
7.53664
8.77783
10.1265
11.5897
13.1727
14.8772
16.7017
18.6415
20.688
22.8296
25.052
27.3396
29.6772
32.0529
34.4606
36.9021
39.3877
41.9325
44.5491
47.2348
49.9576
52.6389
55.1347
57.2238
58.6488
59.2836
59.533
59.7385
58.1073
55.7183
52.5586
48.8934
46.1756
44.4897
43.9483
44.1738
44.0207
42.882
40.5289
35.6644
27.9468
16.7549
2.13749
-15.4007
-35.1531
-56.7963
-79.6325
-101.871
-123.232
-143.987
-161.61
-173.337
-180.336
-183.518
-184.424
-183.576
-180.172
-172.094
-158.441
-140.425
-120.365
-99.1504
-76.9026
-53.7491
-28.5867
-6.57086
2.54133
7.46367
10.0408
10.8412
12.4837
0.407826
1.06969
1.88847
2.7143
3.59969
4.54112
5.55454
6.64986
7.83838
9.13006
10.534
12.0576
13.7061
15.4815
17.3821
19.4024
21.5334
23.7627
26.0751
28.4538
30.883
33.3502
35.8494
38.3837
40.9655
43.6128
46.3413
49.1493
52.0012
54.8074
57.4012
59.5208
60.8484
61.2082
61.2166
60.8957
59.0159
56.8048
53.6544
50.5909
48.0889
46.463
45.8945
46.1323
46.1655
45.1759
42.9215
38.1061
30.1632
18.576
3.41766
-14.7514
-35.0249
-56.8047
-79.5517
-101.881
-123.648
-145.054
-163.115
-174.663
-181.294
-184.359
-185.211
-184.473
-181.259
-173.219
-159.333
-140.93
-120.524
-99.0754
-76.5939
-53.4318
-28.5703
-6.31876
3.19913
7.8217
12.1556
11.2654
13.392
0.426635
1.10853
1.96117
2.81879
3.73852
4.7161
5.76859
6.90638
8.14144
9.4842
10.9442
12.5292
14.2447
16.0926
18.0711
20.174
22.3919
24.7112
27.1157
29.5878
32.1107
34.6715
37.2643
39.8936
42.5742
45.3278
48.1731
51.11
54.0988
57.0374
59.7322
61.8771
63.1049
63.2799
63.2967
61.9235
59.8739
58.0251
54.9021
52.0423
49.9422
48.4966
47.8544
48.1279
48.3271
47.5317
45.3534
40.6233
32.514
20.5775
4.88819
-13.9022
-34.7054
-56.6208
-79.2427
-101.659
-123.826
-145.881
-164.394
-175.794
-182.074
-185.047
-185.858
-185.193
-182.181
-174.189
-160.053
-141.239
-120.471
-98.796
-76.0715
-52.8466
-28.1612
-5.59969
4.77499
9.29716
14.7291
11.6267
14.2517
0.445911
1.14761
2.03432
2.9238
3.87793
4.89173
5.98336
7.16381
8.44571
9.84003
11.3568
13.0042
14.7879
16.71
18.7682
20.9562
23.2633
25.6754
28.1749
30.7433
33.3627
36.0197
38.7089
41.4359
44.2184
47.0819
50.0491
53.1212
56.2544
59.3324
62.1327
64.3052
65.4529
65.5283
65.4052
62.7793
61.1472
59.0174
56.426
53.7816
51.8225
50.5147
49.8742
50.127
50.4322
49.906
47.8018
43.1835
34.9663
22.7376
6.54427
-12.8647
-34.2015
-56.2657
-78.7312
-101.23
-123.785
-146.456
-165.44
-176.728
-182.681
-185.578
-186.392
-185.761
-182.941
-175.008
-160.612
-141.361
-120.209
-98.3077
-75.3532
-51.9791
-27.2788
-4.26361
7.33771
11.9383
17.5937
11.9772
15.0765
0.465653
1.18702
2.10806
3.02948
4.0181
5.06818
6.19906
7.42231
8.75127
10.1975
11.7717
13.4824
15.3355
17.3333
19.4733
21.7484
24.1476
26.6554
29.2533
31.9213
34.6407
37.3974
40.1863
43.0144
45.9024
48.8799
51.974
55.1879
58.4736
61.6996
64.6134
66.8208
67.8868
67.7784
66.9893
63.7915
62.3752
60.024
57.5888
55.3475
53.6229
52.6076
51.959
52.1009
52.4694
52.2238
50.2517
45.7647
37.4828
25.0141
8.37502
-11.6388
-33.5072
-55.7454
-78.0358
-100.598
-123.541
-146.776
-166.252
-177.476
-183.134
-185.96
-186.84
-186.222
-183.546
-175.67
-161.014
-141.306
-119.746
-97.6158
-74.4425
-50.8006
-25.8734
-2.21533
10.7725
15.1728
20.2937
12.4536
15.8386
0.485785
1.22676
2.18244
3.13595
4.1592
5.24568
6.41591
7.68208
9.05831
10.5569
12.189
13.9638
15.8875
17.9624
20.186
22.5508
25.0447
27.6514
30.3512
33.1228
35.9462
38.8066
41.6992
44.6324
47.63
50.7262
53.9528
57.3156
60.7623
64.1453
67.1785
69.4093
70.3087
69.7698
68.3332
65.2966
63.3611
61.2928
58.8148
56.8834
55.3966
54.5688
54.0413
54.1047
54.4727
54.4617
52.698
48.3586
40.0406
27.3585
10.3432
-10.2257
-32.6155
-55.0573
-77.1801
-99.7699
-123.098
-146.844
-166.829
-178.06
-183.47
-186.22
-187.199
-186.633
-184.022
-176.169
-161.257
-141.083
-119.088
-96.7245
-73.3281
-49.316
-23.954
0.53255
14.8298
18.3043
21.9579
13.2018
16.3875
0.506162
1.26677
2.25743
3.24324
4.30132
5.42436
6.63409
7.94335
9.36709
10.9183
12.609
14.4487
16.4441
18.5976
20.9067
23.3634
25.9549
28.6638
31.4692
34.3485
37.2803
40.2491
43.2499
46.2928
49.4047
52.6245
55.9896
59.5085
63.1244
66.6712
69.8213
72.0452
72.6995
71.7648
69.8849
66.6623
64.4775
62.4806
60.2818
58.4817
57.0656
56.4838
56.1344
56.1719
56.4932
56.6583
55.143
50.9628
42.6342
29.739
12.3968
-8.64396
-31.5311
-54.2014
-76.1897
-98.7587
-122.46
-146.666
-167.162
-178.512
-183.755
-186.389
-187.463
-187.027
-184.407
-176.503
-161.332
-140.7
-118.246
-95.6373
-72.0123
-47.572
-21.5839
3.86836
19.2951
21.0467
21.8676
14.2748
16.7956
0.526608
1.30691
2.33291
3.3513
4.44446
5.6043
6.85375
8.20631
9.67783
11.2822
13.0319
14.9374
17.0057
19.2394
21.6359
24.1869
26.8789
29.6934
32.6083
35.5996
38.6445
41.7265
44.8405
47.9981
51.2291
54.5779
58.0875
61.7696
65.5619
69.2761
72.5363
74.7349
75.1836
74.1706
71.4674
67.7928
65.732
63.34
61.3589
59.8335
58.7074
58.3005
58.1711
58.284
58.5845
58.8718
57.5954
53.5721
45.2589
32.1481
14.4987
-6.92708
-30.27
-53.187
-75.0862
-97.5878
-121.629
-146.245
-167.238