/*--------------------------------*- C++ -*----------------------------------*\
| =========                 |                                                 |
| \\      /  F ield         | OpenFOAM: The Open Source CFD Toolbox           |
|  \\    /   O peration     | Version:  4.1                                   |
|   \\  /    A nd           | Web:      www.OpenFOAM.org                      |
|    \\/     M anipulation  |                                                 |
\*---------------------------------------------------------------------------*/
FoamFile
{
    version     2.0;
    format      ascii;
    class       surfaceScalarField;
    location    "13";
    object      phi;
}
// * * * * * * * * * * * * * * * * * * * * * * * * * * * * * * * * * * * * * //

dimensions      [0 3 -1 0 0 0 0];

internalField   nonuniform List<scalar> 
13220
(
-788.463
2088.36
-1224.32
1736.06
-1671.79
1747.37
-1993.14
1621.25
-2251.15
1558.22
-2428.11
1476.86
-2533.11
1404.9
-2566.29
1333.38
-2534.15
1267.76
-2437.2
1202.95
-2270.47
1133.47
-2022
1051.43
-1643.68
921.583
-1013.81
670.324
286.093
-154.501
2242.86
-366.516
1948.07
-596.451
1977.3
-766.38
1791.18
-924.548
1716.39
-1037.81
1590.12
-1122.7
1489.79
-1169.69
1380.37
-1172.49
1270.56
-1117.67
1148.13
-1005.35
1021.15
-852.722
898.803
-664.8
733.662
-384.033
389.556
-97.94
-142.292
2385.16
-336.561
2142.34
-482.235
2122.98
-589.644
1898.59
-688.447
1815.19
-758.831
1660.5
-821.059
1552.01
-857.452
1416.76
-829.642
1242.75
-669.827
988.317
-363.18
714.5
-1.71443
537.333
277.728
454.215
327.114
340.163
229.174
-73.4328
2458.59
-194.006
2262.91
-288.637
2217.61
-381.862
1991.81
-482.442
1915.77
-577.157
1755.22
-684.313
1659.17
-788.949
1521.4
-877.649
1331.45
-888.738
999.406
-763.273
589.034
-501.939
276.002
-181.038
133.319
21.8674
137.264
251.041
28.824
2429.77
-92.6922
2384.43
-149.183
2274.1
-201.706
2044.34
-252.503
1966.57
-295.473
1798.19
-337.947
1701.64
-380.995
1564.45
-452.642
1403.1
-585.519
1132.29
-762.995
766.511
-891.065
404.072
-855.683
97.9374
-576.501
-141.918
-325.459
194.836
2234.93
129.237
2450.03
148.859
2254.48
190.108
2003.09
248.723
1907.95
312.112
1734.8
394.335
1619.42
480.36
1478.42
546.655
1336.8
524.703
1154.24
371.067
920.147
128.549
646.594
-88.4495
314.945
-121.463
-108.896
-446.922
238.853
1996.08
241.976
2446.91
286.451
2210.01
355.634
1933.91
445.342
1818.25
531.82
1648.33
631.933
1519.31
736.197
1374.16
835.98
1237.02
898.172
1092.05
886.599
931.721
782.739
750.458
574.548
523.141
222.963
242.697
-223.958
173.692
1822.39
209.336
2411.27
246.431
2172.91
296.324
1884.02
362.983
1751.59
422.342
1588.97
481.503
1460.15
534.603
1321.06
580.326
1191.3
608.146
1064.23
605.115
934.752
554.728
800.843
437.651
640.215
244.236
436.105
20.2784
93.7909
1728.6
153.681
2351.38
202.699
2123.89
257.912
1828.8
322.682
1686.82
379.079
1532.57
429.35
1409.88
470.369
1280.04
505.522
1156.15
533.117
1036.63
542.185
925.685
512.205
830.827
412.711
739.715
224.978
623.85
245.256
3.08336
1725.52
97.8633
2256.6
182.031
2039.73
253.985
1756.85
332.134
1608.67
421.048
1443.66
520.011
1310.92
627.62
1172.43
731.9
1051.87
816.886
951.647
847.389
895.182
787.706
890.504
612.739
914.677
342.28
894.301
587.536
-106.17
1831.68
-55.0724
2205.5
23.9038
1960.75
45.1701
1735.58
72.3175
1581.52
144.427
1371.55
270.344
1185
439.363
1003.41
629.126
862.103
798.062
782.71
879.634
813.609
819.205
950.935
608.448
1125.44
314.182
1188.57
901.718
-18.8708
1850.55
-168.584
2355.21
-311.626
2103.79
-456.918
1880.87
-592.749
1717.35
-692.769
1471.57
-733.741
1225.97
-724.803
994.473
-664.559
801.857
-549.438
667.586
-380.214
644.384
-186.334
757.05
-34.5181
973.614
16.8742
1137.17
918.592
437.709
1412.84
476.223
2316.69
224.43
2355.58
-42.4108
2147.71
-275.328
1950.27
-523.001
1719.24
-779.804
1482.77
-1032.65
1247.32
-1257.71
1026.91
-1405.59
815.467
-1402.15
640.939
-1192.4
547.302
-787.994
569.21
-313.99
663.165
604.602
746.094
666.748
1159.25
1903.54
1061.72
2453.11
757.05
2452.38
467.297
2240.02
207.523
1979.01
-33.0541
1723.35
-266.231
1480.5
-490.187
1250.87
-702.499
1027.78
-874.419
812.859
-943.814
616.695
-823.019
448.414
-474.838
314.982
129.764
463.231
1370.67
2126.12
2722.9
3081.65
3210.26
3197
3078.45
2802.33
2407.9
1932.76
1415.82
893.694
407.062
8.90341e-06
-167.904
167.904
-167.904
-167.904
-167.904
343.162
-511.066
343.162
343.162
343.162
734.251
-391.09
734.251
734.251
1005.49
-271.243
1005.49
1005.49
1005.49
1159.16
-153.667
1159.16
1159.16
1221.36
-62.2004
1221.36
1221.36
1221.36
1202.78
18.584
1202.78
1202.78
1202.78
1124.99
77.786
1124.99
1124.99
1007.5
117.488
1007.5
1007.5
1007.5
877.2
130.305
877.2
877.2
743.832
133.368
743.832
743.832
743.832
623.198
120.634
623.198
623.198
623.198
573.552
49.6457
573.552
573.552
624.422
-50.8702
624.422
624.422
624.422
562.259
62.1631
562.259
562.259
562.259
363.392
198.867
363.392
363.392
123.425
239.967
123.425
123.425
123.425
-292.997
416.422
-292.997
-292.997
-1210.72
917.721
-1210.72
-1210.72
-1210.72
-2552.93
1342.22
-2552.93
-2552.93
-2552.93
-4302.01
1749.08
-4302.01
-4302.01
-6413.86
2111.85
-6413.86
-6413.86
-6313.31
-6215.99
-6118.87
-8432.42
2411.48
-8323.6
-8189.79
-8040.83
-7890.77
-7738.88
-7586.68
-7427.09
-7249.65
-9753.68
2677.62
-9564.96
-9376.24
-9187.94
-8977.81
-8766.21
-8553.39
-8339.2
-8122.93
-10694.4
2793.96
-10453.7
-10210.7
-9966.35
-9721.06
-9468.01
-9200.69
-8932.37
-8661.35
-8388.86
-10855.6
2725.24
-10567.6
-10279.7
-9992.74
-9707.56
-9423.86
-9125.54
-8819.16
-8513.56
-10470.9
2250.6
-10175.7
-9871.11
-9548.98
-9225.53
-8899.43
-8571.72
-8240.61
-7879.82
-9420.7
1890.5
-9076.11
-8734.3
-8395.18
-8038.79
-7678.14
-7323.63
-6972.68
-6627.29
-7278.7
1001.87
-6930.61
-6585.69
-6239.72
-5893.33
-5547.56
-5217.97
-4891.11
-4568.22
-4254.75
-4271.89
328.922
-4031.18
-3829.01
-3635.66
-3454.03
-3283.04
-3161.28
-3128.04
-3092.72
-2752.48
-297.094
-2719.01
-2684.59
-2684.59
-2476.91
-207.678
-2293.66
-183.254
-2293.66
-2143.62
-150.037
-2143.62
-2025.73
-117.896
-1931.81
-93.9202
-1931.81
-1860.06
-71.7436
-1804.52
-55.5437
-1804.52
-1764.45
-40.0716
-1764.45
-1742.05
-22.3932
-1724.3
-17.7575
-1724.3
-1715.37
-8.93216
-1715.37
-1718.33
2.96066
-1717.05
-1.27503
-1717.05
-1726.37
9.31522
-1730.23
3.8594
-1730.23
-1738.34
8.11912
-1738.34
-1751.9
13.5512
-1755.67
3.77699
-1755.67
-1759.7
4.02378
-1759.7
-1765.95
6.24888
-1760.06
-5.88328
-1760.06
-1756.76
-3.30641
-1744.11
-12.6422
-1744.11
-1730
-14.1159
-1730
-1716.62
-13.3812
-1694.86
-21.7603
-1694.86
-1671.19
-23.6669
-1671.19
-1648.72
-22.4665
-1617.92
-30.805
-1617.92
-1587.25
-30.6667
-1550.82
-36.4266
-1550.82
-1511.99
-38.8332
-1511.99
-1472.78
-39.2111
-1428.53
-44.2473
-1428.53
-1380.89
-47.6428
-1380.89
-1332.32
-48.5681
-1278.93
-53.3961
-1278.93
-1221.81
-57.111
-1162.59
-59.2214
-1162.59
-1099.14
-63.45
-1099.14
-1032.94
-66.2051
-966.112
-66.8264
-966.112
-894.297
-71.8152
-894.297
-819.045
-75.2513
-744.263
-74.7829
-744.263
-662.162
-82.1009
-583.361
-78.8004
-583.361
-500.708
-82.6532
-500.708
-85.1204
-49.8172
-226.538
-49.7875
-274.917
-50.0752
-304.744
-50.4514
-334.287
-50.9995
-362.891
-51.6587
-389.947
-52.452
-416.409
-53.3614
-442.021
-54.3928
-467.154
-55.5399
-491.808
-56.8037
-516.147
-58.1813
-540.226
-59.6721
-564.139
-61.2744
-587.94
-62.9865
-611.684
-64.8066
-635.407
-66.7322
-659.132
-68.7605
-682.867
-70.8878
-706.602
-73.1097
-730.31
-75.4213
-753.947
-77.8167
-777.457
-80.29
-800.773
-82.8348
-823.824
-85.4452
-846.547
-88.1158
-868.886
-90.8423
-890.809
-93.6217
-912.312
-96.4524
-933.422
-99.3339
-954.199
-102.266
-974.732
-105.25
-995.119
-108.285
-1015.46
-111.371
-1035.85
-114.511
-1056.39
-117.711
-1077.23
-120.984
-1098.62
-124.349
-1120.92
-127.822
-1144.65
-131.413
-1170.31
-135.11
-1198.29
-138.879
-1228.6
-142.659
-1260.98
-146.369
-1294.93
-149.907
-1329.75
-153.153
-1364.71
-155.967
-1399.12
-158.179
-1432.32
-159.572
-1463.71
-159.865
-1492.54
-158.694
-1517.66
-155.617
-1537.19
-150.138
-1548.23
-141.756
-1546.47
-130.019
-1525.69
-114.581
-1477.06
-95.1854
-1387.36
-70.9109
-1238.47
-37.7437
-995.382
11.5401
-370.309
40.5205
690.25
48.3569
1125.56
52.6573
1465.78
55.3281
1833.77
56.8001
2202.35
57.3779
2542.28
57.4062
2824.73
57.3615
3046.8
56.7442
3182.33
56.0502
3251.56
53.4089
3209.35
51.2697
3159.07
45.7417
2971.32
45.1741
2988.1
39.2389
2667.92
43.962
3011.31
50.6673
2558.64
47.5829
2909.81
4302.38
-53.528
-226.911
-53.3803
-275.065
-53.6243
-304.5
-53.9703
-333.941
-54.5131
-362.348
-55.1788
-389.281
-55.9923
-415.596
-56.9317
-441.081
-58.0029
-466.083
-59.1982
-490.613
-60.518
-514.827
-61.9588
-538.786
-63.5194
-562.579
-65.1972
-586.262
-66.9899
-609.892
-68.8948
-633.502
-70.9083
-657.119
-73.0265
-680.749
-75.2446
-704.384
-77.5569
-727.997
-79.9573
-751.547
-82.4391
-774.975
-84.9955
-798.216
-87.6204
-821.2
-90.3079
-843.859
-93.0537
-866.14
-95.8551
-888.008
-98.711
-909.456
-101.622
-930.511
-104.589
-951.232
-107.614
-971.707
-110.697
-992.035
-113.839
-1012.32
-117.04
-1032.65
-120.306
-1053.13
-123.648
-1073.89
-127.088
-1095.18
-130.65
-1117.36
-134.356
-1140.94
-138.207
-1166.46
-142.177
-1194.32
-146.212
-1224.56
-150.235
-1256.96
-154.148
-1291.01
-157.842
-1326.05
-161.194
-1361.36
-164.062
-1396.25
-166.274
-1430.11
-167.602
-1462.38
-167.744
-1492.4
-166.315
-1519.09
-162.877
-1540.63
-156.988
-1554.12
-148.272
-1555.19
-136.442
-1537.52
-121.302
-1492.2
-102.569
-1406.09
-78.5438
-1262.49
-45.0574
-1028.87
12.8299
-428.196
44.762
658.318
50.4451
1119.88
54.8229
1461.4
56.9171
1831.67
57.5257
2201.75
57.2808
2542.52
56.7114
2825.3
56.1873
3047.32
55.3374
3183.18
54.5592
3252.33
51.9488
3211.96
49.9663
3161.05
44.6263
2976.66
44.2409
2988.48
38.5444
2673.61
43.2686
3006.59
50.0451
2551.86
47.4468
2912.41
4267.18
-55.5225
-227.35
-55.3322
-275.255
-55.5497
-304.282
-55.8826
-333.608
-56.4228
-361.808
-57.0937
-388.61
-57.9191
-414.77
-58.8761
-440.124
-59.9701
-464.989
-61.1927
-489.39
-62.5441
-513.475
-64.0203
-537.309
-65.6198
-560.979
-67.3394
-584.543
-69.1767
-608.054
-71.1282
-631.551
-73.1899
-655.057
-75.3571
-678.582
-77.6244
-702.117
-79.9854
-725.636
-82.4334
-749.099
-84.9614
-772.447
-87.5624
-795.615
-90.2301
-818.532
-92.9593
-841.13
-95.7463
-863.353
-98.5893
-885.165
-101.488
-906.557
-104.445
-927.554
-107.462
-948.215
-110.541
-968.628
-113.682
-988.894
-116.886
-1009.11
-120.154
-1029.38
-123.493
-1049.79
-126.918
-1070.47
-130.456
-1091.64
-134.136
-1113.68
-137.98
-1137.1
-141.984
-1162.46
-146.11
-1190.19
-150.295
-1220.38
-154.45
-1252.8
-158.475
-1286.99
-162.256
-1322.27
-165.669
-1357.95
-168.576
-1393.34
-170.802
-1427.88
-172.116
-1461.07
-172.213
-1492.3
-170.726
-1520.58
-167.282
-1544.08
-161.564
-1559.83
-153.363
-1563.39
-142.533
-1548.36
-128.896
-1505.84
-111.93
-1423.06
-89.2532
-1285.17
-56.6992
-1061.42
9.04991
-493.946
51.0567
616.311
54.727
1116.21
58.1102
1458.02
59.5101
1830.27
58.8313
2202.42
57.3492
2544.01
55.83
2826.81
54.5836
3048.57
53.3295
3184.44
52.3984
3253.27
49.818
3214.54
48.0235
3162.85
42.9452
2981.73
42.815
2988.61
37.4175
2679.01
42.1997
3001.81
49.0457
2545.02
47.3907
2914.07
4235.77
-57.8807
-227.85
-57.6498
-275.486
-57.8436
-304.088
-58.1653
-333.287
-58.706
-361.267
-59.3857
-387.931
-60.2279
-413.928
-61.208
-439.144
-62.3311
-463.866
-63.5883
-488.133
-64.9793
-512.084
-66.4997
-535.789
-68.1475
-559.331
-69.9192
-582.771
-71.8118
-606.162
-73.8213
-629.541
-75.943
-652.935
-78.1715
-676.353
-80.5005
-699.788
-82.923
-723.214
-85.4315
-746.59
-88.0183
-769.86
-90.6762
-792.957
-93.3988
-815.809
-96.1813
-838.347
-99.0207
-860.514
-101.916
-882.269
-104.869
-903.604
-107.883
-924.541
-110.96
-945.138
-114.105
-965.484
-117.316
-985.682
-120.595
-1005.84
-123.943
-1026.03
-127.369
-1046.36
-130.892
-1066.94
-134.545
-1087.99
-138.363
-1109.86
-142.369
-1133.09
-146.555
-1158.27
-150.871
-1185.87
-155.242
-1216.01
-159.57
-1248.47
-163.742
-1282.82
-167.642
-1318.37
-171.146
-1354.44
-174.115
-1390.37
-176.375
-1425.62
-177.696
-1459.75
-177.792
-1492.21
-176.361
-1522.01
-173.16
-1547.28
-168.076
-1564.92
-161.094
-1570.37
-152.146
-1557.3
-140.899
-1517.09
-126.349
-1437.61
-105.338
-1306.18
-72.657
-1094.1
0.547447
-567.15
55.6694
561.189
61.3075
1110.57
62.7509
1456.58
63.0941
1829.93
60.8067
2204.71
57.6609
2547.15
54.8548
2829.62
52.6191
3050.8
50.783
3186.27
49.6081
3254.44
47.0416
3217.11
45.461
3164.43
40.7259
2986.47
40.9182
2988.42
35.9107
2684.02
40.842
2996.88
47.7597
2538.1
45.9995
2915.83
4199.66
-60.1356
-228.394
-59.8791
-275.743
-60.0537
-303.914
-60.3687
-332.972
-60.9123
-360.724
-61.603
-387.24
-62.4632
-413.068
-63.4676
-438.14
-64.6207
-462.713
-65.9131
-486.841
-67.3441
-510.654
-68.9088
-534.224
-70.605
-557.635
-72.4288
-580.947
-74.3765
-604.214
-76.4437
-627.474
-78.6251
-650.754
-80.9146
-674.064
-83.305
-697.397
-85.7887
-720.73
-88.3573
-744.021
-91.0028
-767.215
-93.7174
-790.243
-96.4949
-813.032
-99.3306
-835.512
-102.222
-857.622
-105.17
-879.321
-108.177
-900.597
-111.248
-921.47
-114.387
-941.999
-117.597
-962.274
-120.879
-982.4
-124.233
-1002.48
-127.661
-1022.61
-131.174
-1042.85
-134.794
-1063.32
-138.561
-1084.22
-142.515
-1105.91
-146.683
-1128.92
-151.051
-1153.9
-155.56
-1181.36
-160.12
-1211.45
-164.622
-1243.97
-168.947
-1278.49
-172.973
-1314.35
-176.576
-1350.84
-179.616
-1387.33
-181.926
-1423.31
-183.298
-1458.38
-183.511
-1491.99
-182.406
-1523.11
-179.97
-1549.71
-176.348
-1568.54
-171.68
-1575.04
-165.786
-1563.2
-157.889
-1524.98
-146.236
-1449.26
-126.951
-1325.46
-93.5348
-1127.52
-13.9424
-646.742
57.9718
489.275
70.0114
1098.53
69.2507
1457.34
67.8648
1831.31
63.5853
2208.99
58.3087
2552.43
53.8173
2834.11
50.2899
3054.33
47.6615
3188.9
46.1364
3255.97
43.5497
3219.7
42.2189
3165.76
37.8802
2990.81
38.5127
2987.79
33.9385
2688.59
39.1542
2991.66
46.1053
2531.15
44.9856
2916.95
4169.87
-62.396
-228.968
-62.1232
-276.016
-62.2835
-303.753
-62.5958
-332.659
-63.1452
-360.174
-63.8495
-386.536
-64.7302
-412.187
-65.7613
-437.109
-66.9466
-461.528
-68.2764
-485.511
-69.7496
-509.18
-71.361
-532.613
-73.108
-555.888
-74.9862
-579.069
-76.9916
-602.208
-79.1191
-625.347
-81.363
-648.51
-83.7162
-671.711
-86.171
-694.942
-88.7188
-718.182
-91.3507
-741.39
-94.0579
-764.508
-96.8323
-787.468
-99.6676
-810.196
-102.56
-832.62
-105.507
-854.675
-108.51
-876.318
-111.574
-897.533
-114.704
-918.34
-117.907
-938.796
-121.186
-958.994
-124.542
-979.044
-127.975
-999.049
-131.486
-1019.1
-135.088
-1039.25
-138.808
-1059.6
-142.69
-1080.34
-146.785
-1101.81
-151.121
-1124.59
-155.679
-1149.35
-160.39
-1176.65
-165.151
-1206.69
-169.84
-1239.28
-174.331
-1274
-178.497
-1310.18
-182.21
-1347.13
-185.337
-1384.2
-187.728
-1420.92
-189.241
-1456.86
-189.803
-1491.43
-189.507
-1523.41
-188.663
-1550.56
-187.656
-1569.55
-186.592
-1576.1
-184.854
-1564.94
-180.88
-1528.96
-171.997
-1458.15
-153.86
-1343.6
-118.938
-1162.44
-33.3267
-732.354
58.1444
397.804
80.1561
1076.52
78.0906
1459.4
74.0661
1835.34
67.2529
2215.8
59.3868
2560.29
52.7904
2840.71
47.6558
3059.47
44.0155
3192.54
42.0168
3257.96
39.3698
3222.34
38.3077
3166.82
34.4168
2994.7
35.5899
2986.62
31.5006
2692.68
37.1274
2986.03
44.1312
2524.14
42.7049
2918.37
4137.32
-64.6407
-229.563
-64.3606
-276.296
-64.5111
-303.603
-64.8247
-332.346
-65.3826
-359.616
-66.1032
-385.815
-67.0066
-411.284
-68.0664
-436.049
-69.286
-460.308
-70.6552
-484.142
-72.1725
-507.663
-73.8325
-530.953
-75.6321
-554.089
-77.5667
-577.135
-79.6318
-600.143
-81.8217
-623.157
-84.1301
-646.202
-86.5494
-669.291
-89.0709
-692.421
-91.6852
-715.568
-94.3827
-738.692
-97.154
-761.736
-99.9907
-784.631
-102.886
-807.301
-105.837
-829.669
-108.841
-851.67
-111.902
-873.257
-115.025
-894.41
-118.218
-915.147
-121.487
-935.527
-124.837
-955.644
-128.271
-975.61
-131.785
-995.535
-135.381
-1015.5
-139.074
-1035.56
-142.895
-1055.78
-146.895
-1076.34
-151.133
-1097.58
-155.641
-1120.08
-160.398
-1144.59
-165.319
-1171.73
-170.292
-1201.71
-175.181
-1234.39
-179.85
-1269.33
-184.165
-1305.87
-187.998
-1343.29
-191.229
-1380.97
-193.767
-1418.38
-195.613
-1455.02
-196.967
-1490.08
-198.3
-1522.08
-200.264
-1548.59
-203.317
-1566.49
-207.168
-1572.25
-210.35
-1561.75
-210.255
-1529.05
-203.333
-1465.07
-185.207
-1361.73
-147.966
-1199.68
-56.6629
-823.657
56.5331
284.608
90.8733
1042.18
89.5264
1460.75
82.068
1842.8
71.9249
2225.95
60.9834
2571.24
51.8504
2849.84
44.775
3066.54
39.893
3197.42
37.2812
3260.58
34.5229
3225.1
33.7384
3167.6
30.3411
2998.1
32.1501
2984.81
28.6016
2696.23
34.7616
2979.87
41.8769
2517.03
40.2349
2920.01
4105.74
-66.8774
-230.167
-66.5973
-276.576
-66.7426
-303.458
-67.0616
-332.027
-67.631
-359.047
-68.3704
-385.076
-69.2988
-410.356
-70.3896
-434.958
-71.6456
-459.052
-73.0563
-482.731
-74.6198
-506.099
-76.3305
-529.242
-78.1849
-552.234
-80.178
-575.141
-82.305
-598.016
-84.5597
-620.902
-86.9351
-643.826
-89.4229
-666.804
-92.0137
-689.83
-94.6972
-712.884
-97.4631
-735.926
-100.301
-758.898
-103.203
-781.73
-106.161
-804.342
-109.173
-826.658
-112.238
-848.606
-115.359
-870.136
-118.543
-891.226
-121.8
-911.89
-125.139
-932.189
-128.564
-952.218
-132.077
-972.097
-135.675
-991.937
-139.36
-1011.81
-143.146
-1031.77
-147.07
-1051.86
-151.19
-1072.22
-155.574
-1093.19
-160.261
-1115.39
-165.224
-1139.63
-170.367
-1166.59
-175.564
-1196.52
-180.666
-1229.29
-185.523
-1264.48
-189.997
-1301.39
-193.961
-1339.33
-197.34
-1377.59
-200.174
-1415.55
-202.745
-1452.45
-205.678
-1487.14
-209.895
-1517.86
-216.254
-1542.23
-224.899
-1557.85
-234.646
-1562.5
-242.826
-1553.57
-245.749
-1526.13
-239.303
-1471.51
-219.596
-1381.44
-179.386
-1239.89
-84.6821
-918.361
54.1631
145.762
101.656
994.685
103.444
1458.96
92.3039
1853.94
77.8134
2240.44
63.1909
2585.86
51.0743
2861.96
41.6996
3075.92
35.3314
3203.79
31.9519
3263.96
29.0172
3228.04
28.5131
3168.11
25.6457
3000.96
28.1883
2982.26
25.2327
2699.18
32.0664
2973.04
39.3125
2509.78
38.6696
2920.66
4077.58
-69.1074
-230.774
-68.8338
-276.849
-68.9785
-303.313
-69.3066
-331.699
-69.8903
-358.463
-70.6513
-384.315
-71.6071
-409.4
-72.7312
-433.834
-74.0257
-457.757
-75.48
-481.277
-77.0919
-504.488
-78.8554
-527.479
-80.7668
-550.323
-82.8208
-573.087
-85.012
-595.825
-87.3339
-618.58
-89.7788
-641.382
-92.3377
-664.245
-95.0004
-687.167
-97.756
-710.129
-100.593
-733.089
-103.501
-755.99
-106.47
-778.76
-109.495
-801.318
-112.57
-823.582
-115.697
-845.479
-118.881
-866.952
-122.129
-887.977
-125.454
-908.566
-128.864
-928.778
-132.367
-948.715
-135.963
-968.501
-139.649
-988.251
-143.425
-1008.04
-147.307
-1027.89
-151.335
-1047.83
-155.576
-1067.98
-160.109
-1088.66
-164.981
-1110.52
-170.16
-1134.45
-175.537
-1161.21
-180.972
-1191.08
-186.298
-1223.96
-191.355
-1259.42
-195.994
-1296.75
-200.116
-1335.21
-203.753
-1373.96
-207.213
-1412.09
-211.237
-1448.42
-217.012
-1481.37
-225.825
-1509.05
-238.35
-1529.71
-253.828
-1542.37
-269.707
-1546.63
-282.026
-1541.26
-286.309
-1521.84
-278.39
-1479.43
-255.31
-1404.52
-211.801
-1283.4
-121.855
-1008.31
44.8121
-20.9051
112.156
927.341
119.322
1451.79
105.13
1868.13
85.2566
2260.31
66.1215
2604.99
50.5392
2877.54
38.4839
3087.97
30.3688
3211.91
26.0534
3268.27
22.8647
3231.23
22.6358
3168.34
20.3283
3003.27
23.7006
2978.89
21.3881
2701.5
29.0282
2965.4
36.488
2502.32
35.1864
2921.96
4046.57
-71.3333
-231.376
-71.0716
-277.111
-71.2201
-303.165
-71.5611
-331.358
-72.1622
-357.862
-72.9475
-383.529
-73.9331
-408.414
-75.0928
-432.674
-76.4282
-456.422
-77.9283
-479.776
-79.5908
-502.825
-81.4094
-525.66
-83.38
-548.352
-85.4971
-570.97
-87.755
-593.567
-90.1466
-616.189
-92.6636
-638.865
-95.2964
-661.612
-98.034
-684.43
-100.865
-707.298
-103.776
-730.178
-106.756
-753.01
-109.797
-775.72
-112.889
-798.225
-116.031
-820.44
-119.224
-842.286
-122.473
-863.704
-125.788
-884.662
-129.182
-905.172
-132.668
-925.293
-136.251
-945.132
-139.934
-964.819
-143.711
-984.474
-147.581
-1004.17
-151.561
-1023.91
-155.695
-1043.7
-160.06
-1063.61
-164.746
-1083.97
-169.809
-1105.46
-175.214
-1129.04
-180.839
-1155.59
-186.525
-1185.4
-192.087
-1218.4
-197.348
-1254.16
-202.167
-1291.93
-206.522
-1330.85
-210.68
-1369.8
-215.419
-1407.35
-222.131
-1441.71
-232.553
-1470.95
-247.974
-1493.63
-268.212
-1509.47
-290.98
-1519.6
-312.156
-1525.45
-326.792
-1526.62
-330.22
-1518.42
-318.748
-1490.91
-290.602
-1432.66
-243.048
-1330.95
-156.635
-1094.72
23.1913
-200.731
121.658
828.874
136.248
1437.2
120.673
1883.7
94.6928
2286.29
69.9415
2629.74
50.3194
2897.16
35.1818
3103.11
25.0415
3222.05
19.6108
3273.7
16.0787
3234.76
16.1125
3168.3
14.3898
3004.99
18.685
2974.6
17.0659
2703.12
25.6444
2956.82
33.4228
2494.54
31.7158
2923.67
4014.83
-73.5572
-231.967
-73.3124
-277.356
-73.469
-303.008
-73.8265
-331
-74.4479
-357.241
-75.2603
-382.717
-76.2782
-407.396
-77.476
-431.476
-78.8545
-455.044
-80.4028
-478.228
-82.1181
-501.11
-83.9941
-523.784
-86.0264
-546.32
-88.2091
-568.788
-90.5362
-591.24
-93.0001
-613.725
-95.5921
-636.273
-98.3017
-658.902
-101.117
-681.614
-104.026
-704.39
-107.014
-727.189
-110.071
-749.953
-113.185
-772.606
-116.349
-795.061
-119.561
-817.228
-122.822
-839.025
-126.138
-860.387
-129.523
-881.277
-132.99
-901.705
-136.553
-921.73
-140.222
-941.463
-143.995
-961.046
-147.866
-980.602
-151.834
-1000.2
-155.914
-1019.83
-160.155
-1039.45
-164.645
-1059.12
-169.488
-1079.13
-174.751
-1100.19
-180.394
-1123.4
-186.28
-1149.7
-192.23
-1179.45
-198.035
-1212.6
-203.509
-1248.68
-208.553
-1286.89
-213.339
-1326.07
-218.58
-1364.56
-225.764
-1400.17
-237.022
-1430.45
-254.331
-1453.64
-278.255
-1469.7
-306.957
-1480.77
-336.255
-1490.3
-360.735
-1500.97
-375.166
-1512.19
-375.356
-1518.23
-358.454
-1507.81
-323.805
-1467.31
-271.022
-1383.74
-183.724
-1182.02
4.89174
-389.347
129.688
704.078
153.265
1413.63
138.687
1898.28
106.552
2318.43
74.9127
2661.38
50.4978
2921.58
31.8459
3121.76
19.3845
3234.51
12.6479
3280.44
8.67287
3238.73
8.94783
3168.03
7.83229
3006.11
13.142
2969.29
12.2623
2704
21.9468
2947.14
30.0858
2486.41
29.6398
2924.11
3985.25
-75.7814
-232.541
-75.5578
-277.579
-75.7267
-302.839
-76.1043
-330.622
-76.749
-356.596
-77.5912
-381.875
-78.644
-406.344
-79.8824
-430.238
-81.3064
-453.62
-82.9053
-476.629
-84.6759
-499.339
-86.6117
-521.848
-88.708
-544.224
-90.9589
-566.537
-93.3579
-588.841
-95.897
-611.186
-98.5668
-633.603
-101.356
-656.113
-104.253
-678.718
-107.243
-701.4
-110.312
-724.12
-113.447
-746.818
-116.639
-769.415
-119.878
-791.822
-123.162
-813.944
-126.494
-835.694
-129.881
-857
-133.338
-877.821
-136.881
-898.162
-140.526
-918.085
-144.282
-937.707
-148.15
-957.178
-152.12
-976.632
-156.189
-996.132
-160.371
-1015.65
-164.721
-1035.1
-169.337
-1054.51
-174.341
-1074.13
-179.812
-1094.72
-185.707
-1117.5
-191.867
-1143.54
-198.09
-1173.22
-204.144
-1206.54
-209.855
-1242.97
-215.265
-1281.48
-220.942
-1320.39
-228.33
-1357.17
-239.816
-1388.68
-258.055
-1412.21
-284.524
-1427.17
-318.079
-1436.15
-354.64
-1444.21
-388.33
-1456.61
-413.239
-1476.06
-424.695
-1500.73
-419.498
-1523.42
-395.731
-1531.58
-353.523
-1509.52
-294.472
-1442.79
-205.632
-1270.86
-9.10559
-585.873
137.565
557.407
169.797
1381.4
158.584
1909.49
121.108
2355.9
81.4015
2701.09
51.1916
2951.79
28.5288
3144.42
13.433
3249.6
5.18777
3288.68
0.659674
3243.26
1.14927
3167.54
0.657499
3006.6
7.06706
2962.88
6.9741
2704.09
17.913
2936.2
26.4783
2477.84
24.8347
2925.76
3952.97
-78.008
-233.094
-77.8095
-277.778
-77.9947
-302.654
-78.3959
-330.221
-79.067
-355.925
-79.9419
-381
-81.0323
-405.253
-82.3137
-428.957
-83.7857
-452.148
-85.4376
-474.977
-87.266
-497.511
-89.2641
-519.85
-91.4271
-542.061
-93.7489
-564.215
-96.2225
-586.368
-98.8396
-608.568
-101.59
-630.852
-104.463
-653.24
-107.444
-675.737
-110.518
-698.325
-113.672
-720.967
-116.89
-743.599
-120.162
-766.143
-123.479
-788.504
-126.839
-810.584
-130.245
-832.288
-133.706
-853.539
-137.238
-874.289
-140.859
-894.54
-144.589
-914.355
-148.438
-933.858
-152.404
-953.211
-156.478
-972.558
-160.651
-991.959
-164.939
-1011.36
-169.399
-1030.64
-174.143
-1049.76
-179.312
-1068.96
-185.001
-1089.03
-191.159
-1111.35
-197.605
-1137.1
-204.107
-1166.72
-210.42
-1200.23
-216.458
-1236.94
-222.591
-1275.35
-230.095
-1312.89
-241.428
-1345.84
-259.796
-1370.31
-287.672
-1384.34
-324.888
-1389.95
-367.729
-1393.31
-409.918
-1402.02
-444.751
-1421.78
-466.87
-1453.94
-472.824
-1494.78
-460.599
-1535.65
-429.081
-1563.09
-378.763
-1559.83
-312.567
-1508.99
-221.82
-1361.6
-19.6167
-788.076
146.057
391.733
185.54
1341.91
179.809
1915.23
138.386
2397.33
89.8252
2749.65
52.5865
2989.03
25.287
3171.72
7.22213
3267.67
-2.74752
3298.65
-7.93841
3248.45
-7.2874
3166.89
-7.13829
3006.45
0.475382
2955.26
1.19563
2703.37
13.5626
2923.83
22.649
2468.75
21.9679
2926.44
3921.55
-80.2393
-233.622
-80.0694
-277.948
-80.2749
-302.448
-80.703
-329.793
-81.4036
-355.225
-82.3141
-380.089
-83.4447
-404.123
-84.7718
-427.63
-86.2944
-450.625
-88.0019
-473.27
-89.8905
-495.622
-91.9535
-517.787
-94.186
-539.828
-96.5813
-561.82
-99.1325
-583.816
-101.831
-605.87
-104.666
-628.017
-107.625
-650.281
-110.693
-672.668
-113.856
-695.162
-117.098
-717.725
-120.402
-740.295
-123.758
-762.787
-127.157
-785.105
-130.597
-807.145
-134.08
-828.805
-137.618
-850.001
-141.227
-870.679
-144.931
-890.837
-148.749
-910.537
-152.694
-929.913
-156.764
-949.141
-160.946
-968.376
-165.228
-987.677
-169.624
-1006.96
-174.196
-1026.07
-179.069
-1044.89
-184.407
-1063.62
-190.323
-1083.12
-196.756
-1104.91
-203.495
-1130.36
-210.279
-1159.94
-216.902
-1193.61
-223.525
-1230.31
-231.166
-1267.71
-242.179
-1301.87
-260.117
-1327.9
-288.388
-1342.04
-328.021
-1344.7
-376.024
-1341.95
-425.906
-1343.42
-470.096
-1357.83
-502.345
-1389.53
-518.723
-1437.56
-517.25
-1496.25
-496.971
-1555.93
-457.358
-1602.71
-398.954
-1618.24
-325.17
-1582.77
-231.954
-1454.82
-32.8769
-987.153
150.769
208.088
200.384
1292.3
202.17
1913.44
158.127
2441.37
100.545
2807.23
54.9623
3034.61
22.1945
3204.49
0.791788
3289.07
-11.1302
3310.58
-17.1048
3254.43
-16.3667
3166.15
-15.5334
3005.62
-6.66672
2946.4
-5.09761
2701.8
8.91913
2909.81
18.5387
2459.13
16.8927
2928.08
3889.87
-82.4773
-234.121
-82.3394
-278.086
-82.569
-302.219
-83.0273
-329.335
-83.7606
-354.491
-84.7095
-379.14
-85.8831
-402.949
-87.2586
-426.254
-88.8344
-449.049
-90.6001
-471.504
-92.5517
-493.671
-94.6824
-515.657
-96.987
-537.524
-99.4589
-559.348
-102.091
-581.185
-104.873
-603.088
-107.796
-625.095
-110.845
-647.232
-114.005
-669.508
-117.26
-691.907
-120.593
-714.392
-123.988
-736.9
-127.432
-759.343
-130.917
-781.621
-134.439
-803.623
-138.002
-825.241
-141.62
-846.383
-145.311
-866.988
-149.1
-887.048
-153.01
-906.627
-157.056
-925.867
-161.235
-944.962
-165.531
-964.081
-169.926
-983.281
-174.433
-1002.46
-179.118
-1021.39
-184.121
-1039.89
-189.634
-1058.11
-195.785
-1076.96
-202.5
-1098.2
-209.532
-1123.33
-216.62
-1152.85
-223.722
-1186.51
-231.555
-1222.48
-242.219
-1257.04
-259.397
-1284.7
-287.281
-1300.01
-328.165
-1301.16
-380.114
-1292.75
-436.762
-1285.3
-489.7
-1290.49
-531.593
-1315.94
-557.812
-1363.31
-566.224
-1429.15
-556.152
-1506.32
-527.4
-1584.68
-479.826
-1650.28
-413.902
-1684.16
-332.805
-1663.87
-236.805
-1550.82
-62.5603
-1161.4
142.157
3.37021
215.475
1218.98
225.571
1903.34
179.76
2487.18
113.744
2873.25
58.6881
3089.66
19.3706
3243.81
-5.81769
3314.26
-19.9345
3324.69
-26.8263
3261.32
-26.086
3165.41
-24.5226
3004.06
-14.3913
2936.27
-11.904
2699.31
4.00658
2893.9
14.2274
2448.91
12.139
2930.17
3854.37
-84.7243
-234.587
-84.6214
-278.189
-84.8788
-301.961
-85.3706
-328.843
-86.1397
-353.722
-87.13
-378.15
-88.3495
-401.73
-89.7762
-424.828
-91.4079
-447.417
-93.2346
-469.677
-95.2519
-491.653
-97.453
-513.455
-99.8327
-535.144
-102.384
-556.796
-105.1
-578.469
-107.97
-600.217
-110.984
-622.081
-114.126
-644.09
-117.382
-666.252
-120.734
-688.556
-124.163
-710.964
-127.652
-733.41
-131.188
-755.807
-134.762
-778.047
-138.37
-800.014
-142.018
-821.593
-145.719
-842.683
-149.494
-863.213
-153.372
-883.17
-157.378
-902.62
-161.53
-921.715
-165.824
-940.668
-170.239
-959.666
-174.753
-978.767
-179.374
-997.836
-184.174
-1016.59
-189.308
-1034.75
-194.998
-1052.42
-201.39
-1070.57
-208.386
-1091.2
-215.714
-1116
-223.203
-1145.36
-231.246
-1178.46
-241.589
-1212.14
-257.836
-1240.79
-284.77
-1257.76
-325.929
-1258.86
-380.648
-1246.44
-443.032
-1230.37
-504.031
-1224.3
-555.095
-1239.42
-590.655
-1280.37
-608.268
-1345.7
-607.414
-1430
-588.309
-1525.43
-551.216
-1621.77
-496.244
-1705.25
-423.775
-1756.63
-336.382
-1751.26
-237.027
-1650.18
-91.0479
-1307.38
123.467
-211.145
233.363
1109.08
249.426
1887.28
202.411
2534.2
129.35
2946.31
64.1729
3154.84
17.0116
3290.97
-12.5564
3343.83
-29.1309
3341.27
-37.0885
3269.28
-36.4364
3164.76
-34.1057
3001.73
-22.7136
2924.87
-19.2062
2695.8
-1.12243
2875.82
9.67781
2438.11
9.46067
2930.39
3819.58
-86.9824
-235.017
-86.9174
-278.254
-87.2063
-301.673
-87.735
-328.314
-88.543
-352.914
-89.5777
-377.115
-90.846
-400.461
-92.3266
-423.347
-94.0172
-445.727
-95.9076
-467.787
-97.9934
-489.568
-100.268
-511.181
-102.726
-532.686
-105.36
-554.162
-108.163
-575.666
-111.124
-597.256
-114.233
-618.973
-117.473
-640.849
-120.829
-662.896
-124.281
-685.104
-127.81
-707.435
-131.398
-729.822
-135.03
-752.175
-138.697
-774.38
-142.396
-796.315
-146.132
-817.857
-149.919
-838.895
-153.782
-859.35
-157.752
-879.2
-161.86
-898.512
-166.123
-917.452
-170.537
-936.253
-175.078
-955.126
-179.716
-974.129
-184.456
-993.096
-189.371
-1011.67
-194.638
-1029.49
-200.504
-1046.55
-207.134
-1063.94
-214.404
-1083.93
-222.069
-1108.33
-230.27
-1137.16
-240.307
-1168.43
-255.526
-1196.92
-281.088
-1215.23
-321.724
-1217.13
-378.192
-1202.39
-445.314
-1179.32
-513.62
-1162.06
-573.361
-1164.56
-617.815
-1194.97
-644.032
-1254.16
-651.587
-1338.15
-641.056
-1440.54
-613.136
-1553.35
-568.329
-1666.58
-506.898
-1766.68
-429.112
-1834.42
-336.747
-1843.63
-233.257
-1753.66
-98.0905
-1442.54
118.925
-428.16
253.952
974.056
272.541
1868.69
225.14
2581.6
147.059
3024.39
71.775
3230.13
15.4067
3347.34
-19.3547
3378.59
-38.6885
3360.6
-47.8733
3278.46