/*--------------------------------*- C++ -*----------------------------------*\
| =========                 |                                                 |
| \\      /  F ield         | OpenFOAM: The Open Source CFD Toolbox           |
|  \\    /   O peration     | Version:  4.1                                   |
|   \\  /    A nd           | Web:      www.OpenFOAM.org                      |
|    \\/     M anipulation  |                                                 |
\*---------------------------------------------------------------------------*/
FoamFile
{
    version     2.0;
    format      ascii;
    class       volScalarField;
    location    "11";
    object      p;
}
// * * * * * * * * * * * * * * * * * * * * * * * * * * * * * * * * * * * * * //

dimensions      [0 2 -2 0 0 0 0];

internalField   nonuniform List<scalar> 
225
(
-4.19293e+07
-1.28342e+07
2.1005e+07
3.11432e+07
2.65135e+07
1.8816e+07
1.61846e+07
8.96857e+06
-3.52334e+06
-2.65018e+06
9.79936e+06
1.60839e+07
1.91972e+07
2.73574e+07
2.6543e+07
5.82188e+07
3.74703e+07
2.60502e+07
1.08524e+07
-1.17003e+07
-2.67386e+07
-2.9167e+07
-2.27115e+07
-1.85358e+07
-1.08805e+07
253227
-2.13085e+06
-1.39293e+07
-2.88938e+07
-3.9835e+07
1.37008e+07
1.35014e+07
9.81861e+06
1.30665e+07
1.41395e+07
1.08525e+07
8.68707e+06
6.40023e+06
1.49602e+06
-4.39331e+06
-3.24164e+06
4.83221e+06
1.37641e+07
1.94606e+07
2.37853e+07
1.74244e+07
2.11814e+07
2.09185e+07
2.17281e+07
1.47413e+07
5.14854e+06
438549
1.96991e+06
6.5706e+06
9.47389e+06
6.66913e+06
4.23022e+06
8.07788e+06
8.9874e+06
5.50117e+06
1.32346e+07
1.43586e+07
1.11116e+07
5.98578e+06
4.09839e+06
3.67246e+06
3.50894e+06
1.60383e+06
-367080
2.55349e+06
7.56668e+06
7.83349e+06
5.5965e+06
4.32863e+06
3.09118e+06
2.64363e+06
5.40943e+06
7.2778e+06
8.65207e+06
9.24122e+06
8.97608e+06
9.51554e+06
9.99023e+06
9.16782e+06
9.45438e+06
1.20462e+07
1.45572e+07
1.82669e+07
2.33391e+07
2.90285e+07
1.06905e+07
1.12581e+07
1.0733e+07
9.97661e+06
1.16813e+07
1.36883e+07
1.31962e+07
1.20428e+07
1.18129e+07
1.1578e+07
1.1678e+07
1.2022e+07
1.16869e+07
7.83557e+06
4.60285e+06
1.11432e+07
1.12398e+07
1.18814e+07
1.28045e+07
1.39186e+07
1.45285e+07
1.37811e+07
1.21173e+07
1.09585e+07
1.1025e+07
1.11496e+07
1.05703e+07
1.14257e+07
1.32476e+07
1.08726e+07
1.32567e+07
1.3044e+07
1.15785e+07
9.59851e+06
6.84031e+06
4.51289e+06
4.26658e+06
4.43406e+06
4.50947e+06
5.32404e+06
6.06476e+06
5.0595e+06
5.28636e+06
9.40957e+06
1.22137e+07
1.44569e+07
1.50888e+07
1.45787e+07
1.38131e+07
1.21389e+07
9.85849e+06
8.49344e+06
8.30399e+06
7.99193e+06
8.08598e+06
9.4154e+06
1.13081e+07
1.14092e+07
9.76634e+06
8.01373e+06
1.07443e+07
1.04509e+07
1.09651e+07
1.1898e+07
1.20126e+07
1.16559e+07
1.18538e+07
1.34449e+07
1.4233e+07
1.28614e+07
1.22647e+07
1.39548e+07
1.47568e+07
1.29804e+07
1.0894e+07
1.17864e+07
1.13632e+07
1.11629e+07
1.14633e+07
1.16123e+07
1.17817e+07
1.19783e+07
1.21766e+07
1.14031e+07
9.88521e+06
9.27925e+06
9.47592e+06
1.05522e+07
1.24819e+07
1.34454e+07
1.07286e+07
1.04274e+07
1.01253e+07
9.3061e+06
7.85504e+06
7.55486e+06
8.07146e+06
8.41216e+06
8.66248e+06
8.71361e+06
8.39753e+06
8.13568e+06
7.94217e+06
9.16492e+06
9.66347e+06
8.78837e+06
7.42222e+06
6.29638e+06
5.07217e+06
3.75758e+06
1.97052e+06
-157541
-2.03538e+06
-3.20157e+06
-3.95934e+06
-4.63698e+06
-4.18553e+06
-2.75632e+06
393294
-1.00719e+06
-1.3471e+07
-1.06787e+07
-1.21532e+07
-1.52695e+07
-1.69052e+07
-1.74085e+07
-1.67997e+07
-1.53736e+07
-1.3213e+07
-1.11521e+07
-9.37981e+06
-8.23548e+06
-8.59314e+06
-9.2756e+06
-1.35566e+07
)
;

boundaryField
{
    inletFace
    {
        type            zeroGradient;
    }
    inlet
    {
        type            zeroGradient;
    }
    inletWalls
    {
        type            zeroGradient;
    }
    outletInlet
    {
        type            fixedValue;
        value           uniform 0;
    }
}


// ************************************************************************* //
