/*--------------------------------*- C++ -*----------------------------------*\
| =========                 |                                                 |
| \\      /  F ield         | OpenFOAM: The Open Source CFD Toolbox           |
|  \\    /   O peration     | Version:  4.1                                   |
|   \\  /    A nd           | Web:      www.OpenFOAM.org                      |
|    \\/     M anipulation  |                                                 |
\*---------------------------------------------------------------------------*/
FoamFile
{
    version     2.0;
    format      ascii;
    class       volVectorField;
    location    "11";
    object      U;
}
// * * * * * * * * * * * * * * * * * * * * * * * * * * * * * * * * * * * * * //

dimensions      [0 1 -1 0 0 0 0];

internalField   nonuniform List<vector> 
225
(
(2.17798e-08 100466 44503.5)
(3.61926e-08 -19396.7 -24399.6)
(4.05589e-08 9063.98 -6468.12)
(4.12092e-08 8047.73 -5744.77)
(4.11204e-08 3847.69 -6228.36)
(4.15809e-08 2341.94 -5422.66)
(4.18341e-08 2330.68 -4477.08)
(4.20616e-08 2078.65 -3349.34)
(4.14667e-08 911.27 -2757.11)
(3.89712e-08 399.293 -2156.39)
(4.06348e-08 725.904 -2344.65)
(3.68061e-08 774.275 -2923.54)
(2.61959e-08 1273.28 -2649.86)
(2.27331e-08 -609.438 -2539.34)
(1.10247e-08 2569.67 -1426.61)
(3.76672e-08 -8017.07 -8454.11)
(4.22476e-08 -887.394 -3888.23)
(4.26127e-08 -5211.56 -4224.96)
(4.22791e-08 -1105.93 -2603.56)
(4.30207e-08 -2815.22 -4523.81)
(4.44519e-08 -1971.7 -4179.99)
(4.69915e-08 -1253.78 -4206.94)
(5.07734e-08 -707.809 -4728.45)
(5.3136e-08 -1771.93 -4115.91)
(5.27858e-08 -2209.27 -1122.05)
(4.48036e-08 -4630.88 39.0275)
(4.02304e-08 -1769.2 1898.22)
(3.81602e-08 -3272.92 1044.38)
(3.17222e-08 -2462.17 1644.86)
(1.35873e-08 4871.08 4960.67)
(2.42329e-08 -11703 -14853.7)
(3.12472e-08 5061.57 4697.1)
(4.16358e-08 -891.574 3631.22)
(4.26192e-08 3445.98 6142.97)
(4.27023e-08 2693.93 2775.79)
(4.28796e-08 2842.06 2080)
(4.22887e-08 2212.62 2060.43)
(4.17125e-08 1848.94 2362.99)
(4.11109e-08 1892.25 2905.29)
(3.98512e-08 1433.44 3497.07)
(3.74473e-08 608.743 3221.24)
(3.6207e-08 990.626 2831.29)
(3.34194e-08 427.635 1372.01)
(2.73954e-08 3873.79 -997.198)
(2.04466e-08 2737.5 -1506.54)
(2.43241e-08 -6263.08 -7614.77)
(4.17871e-08 2454.39 5603.33)
(4.14958e-08 -950.174 4274.65)
(4.13545e-08 -711.45 3764.54)
(4.14074e-08 1047.08 3731.53)
(4.14249e-08 1692.43 3547.91)
(4.11955e-08 1637.16 3413.23)
(4.05728e-08 1161.21 3181.77)
(3.99221e-08 416.142 2128.9)
(3.93965e-08 484.518 920.28)
(3.86262e-08 2330.41 58.091)
(3.7988e-08 82.0056 -4156.35)
(4.07229e-08 -350.025 -3818.39)
(4.39733e-08 2117.12 -3336.98)
(5.32687e-08 1120.02 -7363.6)
(2.76638e-08 -7296.7 -3174.38)
(4.38799e-08 -1037.34 10434.1)
(4.12513e-08 -3955.62 8636.24)
(4.11615e-08 -1371.09 7745.91)
(4.10672e-08 -193.861 5604.03)
(4.0685e-08 93.6788 3876.92)
(4.0284e-08 448.043 2732.63)
(4.04171e-08 1280.25 1732.93)
(4.1586e-08 -871.549 246.4)
(4.15766e-08 -1955.06 -1774.74)
(4.12649e-08 574.08 -1610.65)
(4.14411e-08 1590.23 -2081.71)
(4.2241e-08 952.221 -3160.21)
(4.20733e-08 65.8976 -3453.22)
(5.164e-08 1691.56 -1823.66)
(1.48227e-08 -4111.73 -3635.3)
(3.32981e-08 -2039.29 618.178)
(3.7791e-08 -3012.83 520.712)
(3.97164e-08 -3024.72 834.551)
(4.11605e-08 -3368.45 666.26)
(4.19071e-08 -3489.53 439.351)
(4.23693e-08 -3605.42 93.7511)
(4.27786e-08 -3512.38 -84.3031)
(4.3196e-08 -3246.47 15.0177)
(4.34981e-08 -3013.35 125.365)
(4.3473e-08 -2631.48 -133.804)
(4.34821e-08 -2163.65 -212.768)
(4.3728e-08 -1620.43 -190.608)
(4.35102e-08 -1227.92 -449.463)
(4.81925e-08 1957.09 -133.841)
(4.667e-08 -164.651 -6825.51)
(4.78545e-08 778.159 -2245.04)
(4.8575e-08 1394.13 -833.221)
(4.92027e-08 1779.89 -339.193)
(4.87192e-08 978.047 -521.384)
(4.84834e-08 726.611 104.468)
(4.83131e-08 433.293 1032.97)
(4.80785e-08 -248.653 1705.98)
(4.76121e-08 -668.806 2368.51)
(4.69465e-08 -1416.06 3826.87)
(4.63169e-08 -1817.02 4718.52)
(4.71206e-08 -2485.8 3115.01)
(4.76001e-08 -1685.02 3167.08)
(4.63945e-08 -570.761 3348.13)
(4.02598e-08 2376.86 2235.11)
(2.31424e-08 -47.9116 -2670.66)
(4.39011e-08 -866.332 315.396)
(5.15587e-08 -1355.7 296.366)
(5.12463e-08 -2023.44 -568.406)
(5.01187e-08 -1472.12 -555.768)
(4.99457e-08 -1253.64 -1077.32)
(5.00778e-08 -1033.06 -1191.33)
(5.00541e-08 -1211.95 -804.794)
(4.95373e-08 -954.382 -510.803)
(4.94524e-08 -1305.55 -112.537)
(4.89097e-08 -2099.11 1747.12)
(4.80727e-08 -2498.36 2667.5)
(4.78614e-08 -2610.74 2940.4)
(4.04738e-08 -3142.4 3370.19)
(2.76022e-08 1652.06 4244.58)
(3.59134e-08 -1112.36 -2102.32)
(5.991e-08 -746.562 -1565.76)
(6.24811e-08 -486.036 -3427.72)
(5.52242e-08 -1132.47 -4682.26)
(5.21972e-08 1268.06 -1433.16)
(5.14171e-08 -383.706 -2550.3)
(5.17045e-08 -1020.44 -2763.14)
(5.18733e-08 -130.878 -1698.9)
(5.00292e-08 580.836 -519.305)
(4.87092e-08 -261.11 -875.028)
(4.83864e-08 -346.068 6.20728)
(4.74491e-08 -1830.8 1528.81)
(4.12177e-08 -1133.29 2830.08)
(3.71916e-08 -1447.18 2561.54)
(1.76332e-08 151.379 3217.32)
(4.32733e-08 -1446.02 -1135.19)
(5.66147e-08 -636.62 442.752)
(5.50944e-08 -1040.16 202.895)
(5.30117e-08 467.07 208.914)
(5.24033e-08 1211.87 -162.141)
(5.09939e-08 1505.47 -966.356)
(5.06106e-08 2250.9 -548.884)
(4.99666e-08 1935.39 -285.856)
(4.95812e-08 1991.12 318.198)
(4.84941e-08 1523.06 338.736)
(4.72279e-08 1916.42 748.181)
(4.71696e-08 -359.416 1402.04)
(4.65313e-08 732.139 3118.37)
(3.92656e-08 2296.29 2427.59)
(1.80556e-09 -3209.73 -966.65)
(5.34011e-08 -1096.94 -5465.28)
(5.69922e-08 -1653.61 -357.316)
(5.63377e-08 -2267.83 -2177.9)
(5.48618e-08 -786.582 -1467.4)
(5.73171e-08 -677.375 321.456)
(5.6181e-08 963.475 242.661)
(5.54399e-08 1070.64 -375.438)
(5.50964e-08 542.779 -602.612)
(5.6062e-08 451.136 309.004)
(5.53973e-08 18.8241 702.476)
(5.35529e-08 540.718 358.365)
(5.28409e-08 242.429 265.163)
(5.28807e-08 61.3399 169.96)
(4.8576e-08 376.785 -1444.19)
(2.58111e-08 -1741.85 -2234.05)
(3.46795e-08 -600.831 -1461.72)
(6.10901e-08 -1690.87 -1163.36)
(6.08399e-08 -1756.35 24.457)
(5.91857e-08 -1413.92 603.694)
(5.96071e-08 -1716.02 363.044)
(6.09633e-08 -1466.96 -1056.48)
(6.14479e-08 -1149.44 -816.719)
(6.14862e-08 -1029.11 116.923)
(6.23545e-08 -526.968 336.329)
(6.24823e-08 -45.9439 225.052)
(6.19008e-08 -46.8733 418.22)
(6.00766e-08 -102.561 38.0194)
(5.91783e-08 913.853 -2386.47)
(6.03541e-08 1607.91 -6632.72)
(3.50555e-08 -1626.33 -2693.2)
(6.11695e-08 -1826.31 242.434)
(6.25776e-08 -1675.83 1915.12)
(6.30662e-08 -1520.25 2604.99)
(6.39752e-08 -1259.47 3015.29)
(6.48047e-08 -1205.36 2961.93)
(6.51394e-08 -1259.62 2796.72)
(6.52577e-08 -1271.44 2664.04)
(6.5439e-08 -1207.96 2422.72)
(6.57924e-08 -1096.96 1933.71)
(6.6194e-08 -980.663 1082.31)
(6.66523e-08 -1202.17 634.131)
(6.72341e-08 -1461.64 262.95)
(6.75824e-08 -851.478 -1535.26)
(6.12e-08 423.475 -5668.58)
(4.4704e-08 -1652.22 -2114.25)
(6.9082e-08 -4022.73 5583.99)
(6.75521e-08 -4363.89 4328.54)
(6.43765e-08 -3811.81 3585.73)
(6.50881e-08 -4355.25 3195.65)
(6.54352e-08 -5429.54 1758.26)
(6.53812e-08 -4888.83 738.53)
(6.52171e-08 -4435.86 -211.573)
(6.51919e-08 -4932.21 -1729.07)
(6.50667e-08 -5725.98 -2904.78)
(6.46124e-08 -7085.05 -13283.2)
(6.39395e-08 -4860.04 -9365.63)
(6.42543e-08 -4159.65 -11154.6)
(6.44585e-08 -4585.19 -11522.5)
(6.83389e-08 -1088.24 -2280.18)
(6.53047e-08 -2246.7 -944.387)
(2.71603e-08 -1840.49 1530.94)
(4.82181e-08 -2069.33 -548.604)
(5.53945e-08 -1579.54 -111.299)
(5.77023e-08 -3325.8 531.203)
(5.90661e-08 -4031.09 753.722)
(6.00526e-08 -4337.64 991.813)
(6.11537e-08 -4826.71 1613.08)
(6.22277e-08 -5205.79 2342.36)
(6.31031e-08 -5350.81 2870.58)
(6.35941e-08 -4847.24 2292.32)
(6.38851e-08 -3929 1458.39)
(6.41058e-08 -2807.76 1646.32)
(6.39316e-08 -1523.66 1767.71)
(6.35236e-08 -1796.99 -1412.54)
(6.908e-08 -669.335 -1124.86)
)
;

boundaryField
{
    inletFace
    {
        type            zeroGradient;
    }
    inlet
    {
        type            fixedValue;
        value           uniform (0 8.7 15);
    }
    inletWalls
    {
        type            noSlip;
    }
    outletInlet
    {
        type            zeroGradient;
    }
}


// ************************************************************************* //
