/*--------------------------------*- C++ -*----------------------------------*\
| =========                 |                                                 |
| \\      /  F ield         | OpenFOAM: The Open Source CFD Toolbox           |
|  \\    /   O peration     | Version:  4.1                                   |
|   \\  /    A nd           | Web:      www.OpenFOAM.org                      |
|    \\/     M anipulation  |                                                 |
\*---------------------------------------------------------------------------*/
FoamFile
{
    version     2.0;
    format      ascii;
    class       volScalarField;
    location    "25.85";
    object      p;
}
// * * * * * * * * * * * * * * * * * * * * * * * * * * * * * * * * * * * * * //

dimensions      [0 2 -2 0 0 0 0];

internalField   nonuniform List<scalar> 
225
(
589.464
536.102
484.514
436.059
391.157
349.12
309.745
272.707
237.565
204.169
173.223
144.947
115.386
79.8682
50.9891
123.957
101.749
96.204
92.5561
87.1549
81.4857
76.3466
71.9588
68.4599
65.9753
64.7499
65.2034
67.2338
68.9186
69.3144
26.2154
19.7407
25.3258
29.619
32.6337
36.0546
39.7595
43.4933
47.1837
50.7017
53.88
56.851
59.9075
62.283
62.89
76.2827
75.6184
81.5536
81.0522
80.2927
79.9809
79.4643
78.8048
78.1032
77.3667
76.582
75.7276
75.0712
75.2768
75.3325
109.903
105.439
109.076
106.646
101.484
97.3996
94.356
91.4534
88.7077
86.3111
84.4115
83.3126
82.5761
82.1684
82.1632
57.761
63.4967
74.6575
74.0578
68.7053
66.7177
66.7872
66.4807
65.6942
64.9791
64.5156
64.3962
64.2255
63.3013
62.2583
20.4009
19.5599
22.2907
22.2189
20.9717
23.0536
27.7855
31.2572
32.9436
34.3423
35.3913
35.7674
35.774
35.298
34.192
-0.717952
-0.0623414
4.37355
6.00763
7.92365
11.0939
14.3756
16.5098
17.7016
19.1222
20.2556
20.5877
20.7833
20.9241
20.3286
14.9622
11.278
13.4638
13.7263
12.6593
13.9401
16.6204
17.5068
17.4101
17.6427
17.4758
16.8421
15.9178
14.3422
15.8812
42.5455
35.5558
36.4648
38.1587
35.7395
33.5188
32.1541
30.2875
28.6346
27.9437
27.3343
26.6951
26.6894
22.9605
21.438
50.5592
46.1338
45.4408
46.2511
44.7445
43.45
43.2468
43.0782
43.061
43.6566
44.3886
45.0425
47.0278
45.9491
44.1611
39.8129
40.8454
39.9439
39.5014
39.4855
40.9955
42.3559
43.264
44.3058
45.2047
45.8925
46.1136
47.2462
46.3006
45.91
39.5177
37.2121
33.2296
33.0533
33.3788
32.4712
36.1969
38.7252
38.2499
37.58
37.0182
36.0704
35.9989
34.2584
33.668
37.9478
37.2561
36.6407
37.1597
36.6617
32.4158
31.1303
30.0962
27.605
25.8942
24.8018
23.4245
23.0417
20.9784
20.1526
18.6859
20.9895
23.1304
21.8959
19.2472
16.4596
15.2101
14.33
12.9219
11.8663
11.1035
9.92041
9.51738
7.87164
6.88992
)
;

boundaryField
{
    inletFace
    {
        type            zeroGradient;
    }
    inlet
    {
        type            zeroGradient;
    }
    inletWalls
    {
        type            zeroGradient;
    }
    outletInlet
    {
        type            fixedValue;
        value           uniform 0;
    }
}


// ************************************************************************* //
