/*--------------------------------*- C++ -*----------------------------------*\
| =========                 |                                                 |
| \\      /  F ield         | OpenFOAM: The Open Source CFD Toolbox           |
|  \\    /   O peration     | Version:  4.1                                   |
|   \\  /    A nd           | Web:      www.OpenFOAM.org                      |
|    \\/     M anipulation  |                                                 |
\*---------------------------------------------------------------------------*/
FoamFile
{
    version     2.0;
    format      ascii;
    class       surfaceScalarField;
    location    "25.85";
    object      phi;
}
// * * * * * * * * * * * * * * * * * * * * * * * * * * * * * * * * * * * * * //

dimensions      [0 3 -1 0 0 0 0];

internalField   nonuniform List<scalar> 
420
(
-948.707
2248.61
-1563.17
1914.67
-2045.63
1782.35
-2414.67
1668.94
-2688.73
1574.26
-2875.58
1486.76
-2978.38
1402.7
-2997.16
1318.98
-2931.24
1233.97
-2778.1
1146.76
-2532.91
1055.01
-2177.45
944.432
-1676.84
799.292
-1034.81
658.168
265.091
385.193
1863.41
460.386
1839.47
464.577
1778.16
435.488
1698.02
413.516
1596.22
398.989
1501.28
390.656
1411.03
389.037
1320.59
391.489
1231.51
392.221
1146.03
381.915
1065.32
342.488
983.852
257.997
883.775
154.339
761.818
419.429
51.587
1811.82
-39.2839
1930.33
-176.12
1914.99
-253.903
1775.8
-317.173
1659.48
-380.015
1564.11
-436.587
1467.59
-484.062
1368.06
-520.468
1267.91
-542.585
1168.13
-551.764
1074.49
-545.485
977.549
-495.24
833.505
-282.298
548.85
137.131
214.885
1596.93
229.797
1915.42
113.445
2031.33
23.2836
1865.95
-31.3974
1714.16
-58.7157
1591.42
-69.6096
1478.48
-75.5397
1373.98
-73.7674
1266.13
-65.907
1160.26
-46.9359
1055.51
-12.826
943.435
20.7564
799.915
49.8907
519.708
187.022
473.75
1123.18
1230.26
1158.91
1573.68
1687.92
1560.55
1879.08
1433.03
1841.68
1301.8
1722.65
1189.04
1591.24
1086.24
1476.79
984.305
1368.06
878.332
1266.24
773.524
1160.33
668.561
1048.38
535.347
933.119
293.093
761.953
480.115
360.292
762.9
1261.53
257.68
1889.24
1060.22
2101.16
1667.17
2001.98
1940.88
1773.33
1951.31
1543.91
1820.68
1335.58
1685.13
1145.65
1558
970.982
1440.92
794.362
1336.95
611.587
1231.2
428.548
1116.21
213.971
976.579
694.086
-271.686
1034.64
296.751
-310.7
865.729
491.265
1123.33
1409.59
1126.54
1937.68
982.518
2095.34
815.609
1987.6
656.888
1843.86
521.177
1693.72
408.383
1553.73
298.099
1447.25
189.105
1340.22
90.9649
1214.37
11.643
1055.93
705.73
-91.0339
1125.73
-59.8992
-341.748
84.2326
347.187
79.8799
1413.96
26.2025
1991.37
-25.4629
2147.02
-73.9186
2036.07
-123.572
1893.53
-154.612
1724.78
-183.694
1582.82
-224.22
1487.78
-267.526
1383.53
-321.986
1268.84
-352.76
1086.71
352.97
93.5255
1032.22
-361.425
113.221
-400.194
385.966
-453.9
1467.68
-450.65
1988.13
-395.607
2091.99
-344.941
1985.41
-310.551
1859.14
-264.819
1679.05
-217.057
1535.07
-176.515
1447.24
-135.22
1342.27
-63.142
1196.79
-119.368
1142.97
233.602
366.608
665.604
-36.0383
515.864
-9.13064
359.055
97.082
1361.46
171.373
1913.84
205.499
2057.86
227.838
1963.07
258.123
1828.86
288.863
1648.31
333.705
1490.23
391.142
1389.81
439.621
1293.76
524.996
1111.4
379.714
1288.23
613.316
488.447
177.138
388.688
615.595
261.637
486.084
472.061
1151.03
609.914
1775.98
638.982
2028.78
603.081
1998.96
570.401
1861.53
528.852
1689.85
490.415
1528.66
466.459
1413.76
427.858
1332.36
386.935
1152.32
252.264
1422.9
865.58
252.703
-75.5859
339.145
529.129
243.831
581.38
321.817
1073.03
358.409
1739.37
370.266
2016.92
361.956
2007.26
315.259
1908.22
267.757
1737.34
220.707
1575.69
181.141
1453.32
135.489
1377.99
77.8756
1209.91
6.61381
1494.14
872.194
-241.663
166.05
-8.68538
296.119
67.386
505.285
118.371
1022.03
159.173
1698.56
206.965
1969.12
234.757
1979.46
199.75
1943.22
159.611
1777.48
120.515
1614.78
87.1769
1486.65
50.4802
1414.68
2.06735
1258.31
-33.703
1529.9
838.491
-117.229
283.255
83.5371
95.3284
221.29
367.518
371.093
872.221
543.628
1526.02
596.851
1915.89
554.383
2021.93
486.585
2011.02
395.624
1868.43
303.899
1706.51
224.369
1566.18
153.022
1486.02
66.7435
1344.59
31.9584
1564.69
870.449
114.078
490.843
594.068
652.756
741.937
761.22
704.532
615.43
503.247
392.719
289.082
201.875
102.51
52.9333
)
;

boundaryField
{
    inletFace
    {
        type            calculated;
        value           nonuniform List<scalar> 
450
(
-6.37218e-11
5.75446e-11
9.49779e-12
2.75035e-12
6.97638e-13
4.88188e-13
2.23717e-12
5.50668e-12
1.03539e-11
1.97559e-11
3.53294e-11
4.8012e-11
4.7711e-11
2.89211e-12
-1.80186e-10
4.02692e-10
-3.03277e-10
-1.01805e-10
-3.40186e-11
-7.33501e-12
1.80329e-12
3.90759e-12
6.24669e-12
1.15857e-11
3.55989e-11
-4.20181e-11
-1.6615e-10
-5.01871e-10
-7.60835e-10
2.07534e-09
-1.91721e-09
2.10716e-09
-4.94833e-11
8.85593e-11
1.04309e-11
-4.1707e-12
-2.62527e-13
8.68655e-12
1.70538e-11
-7.58519e-12
-1.60802e-10
-3.78255e-10
-4.87841e-10
2.02357e-10
2.48114e-09
-6.08502e-09
5.64536e-09
-5.27946e-11
-4.67391e-10
-8.48395e-11
2.06508e-11
2.83816e-11
2.32837e-11
1.86925e-11
-3.81783e-11
-2.26061e-10
-4.4994e-10
-4.77754e-10
-1.44581e-10
3.48481e-09
-1.07501e-08
5.83881e-09
4.45715e-09
1.61901e-09
2.75249e-10
-8.57426e-11
-8.79317e-11
-2.74808e-11
1.08393e-11
-9.9761e-12
-1.42784e-10
-3.57936e-10
-4.80199e-10
-6.16118e-10
1.90339e-09
-2.22586e-08
1.06607e-11
3.28012e-09
2.53711e-09
1.3152e-09
4.66777e-10
6.89737e-11
-3.76059e-11
-2.49268e-11
-5.0671e-12
-5.97887e-11
-2.26694e-10
-4.00757e-10
-5.09733e-10
7.4501e-10
-1.46164e-08
5.83342e-08
2.75119e-08
9.65462e-09
3.05944e-09
9.30655e-10
2.20519e-10
-1.09096e-11
-4.40615e-11
-1.46317e-11
-2.73946e-11
-1.57781e-10
-3.53533e-10
-4.97626e-10
4.04429e-10
-1.26729e-08
6.96444e-08
4.07178e-08
1.38438e-08
3.8638e-09
1.09772e-09
2.66976e-10
-5.19969e-12
-4.56454e-11
-1.10794e-11
-2.92558e-11
-1.76627e-10
-3.60201e-10
-2.83841e-10
2.65983e-10
-2.22122e-08
3.65357e-08
3.37122e-08
1.13173e-08
3.265e-09
9.54109e-10
2.19397e-10
-1.20513e-11
-3.23288e-11
-4.49482e-12
-4.97861e-11
-2.11533e-10
-3.55509e-10
-1.80464e-10
2.16239e-10
-2.53076e-08
3.88076e-10
3.50176e-08
1.16134e-08
3.11916e-09
9.45568e-10
2.81242e-10
2.89382e-11
-5.59455e-12
1.17772e-11
-3.92544e-11
-1.81076e-10
-3.26034e-10
-2.00868e-10
-1.07864e-11
-1.72645e-08
-1.82194e-08
1.04548e-08
1.33425e-08
5.33995e-09
1.43157e-09
3.27485e-10
4.71978e-11
-3.19256e-12
1.06155e-11
-2.0106e-11
-1.3204e-10
-2.78733e-10
-2.21643e-10
-1.04879e-10
-6.12897e-09
-1.87962e-08
-6.04334e-09
1.05324e-08
7.31909e-09
2.35804e-09
4.86683e-10
4.52927e-11
-1.40999e-11
5.10527e-12
-1.15604e-11
-1.07952e-10
-2.52377e-10
-2.14687e-10
-1.4238e-10
-1.37558e-08
-1.75203e-08
-9.55607e-09
8.69851e-09
7.8918e-09
2.70218e-09
5.54965e-10
8.30252e-11
-1.07947e-12
2.06796e-12
-1.12571e-11
-1.00153e-10
-2.39847e-10
-2.11902e-10
-1.3679e-10
-1.40119e-08
-1.65122e-08
-1.24127e-08
5.23589e-09
9.29581e-09
4.41514e-09
8.6425e-10
-6.69885e-11
-7.20758e-11
-1.61771e-12
-3.06016e-12
-8.89774e-11
-2.28007e-10
-2.12202e-10
-1.30326e-10
-7.87189e-09
-1.0438e-08
-1.26882e-08
-5.43628e-09
4.44241e-09
5.80926e-09
2.86488e-09
6.52326e-10
-3.03926e-11
-6.01057e-11
-1.66177e-11
-6.75162e-11
-1.98574e-10
-2.11471e-10
-1.23338e-10
6.37218e-11
-5.75446e-11
-9.49779e-12
-2.75035e-12
-6.97638e-13
-4.88188e-13
-2.23717e-12
-5.50668e-12
-1.03539e-11
-1.97559e-11
-3.53294e-11
-4.8012e-11
-4.7711e-11
-2.89211e-12
1.80186e-10
-4.02692e-10
3.03277e-10
1.01805e-10
3.40186e-11
7.33501e-12
-1.80329e-12
-3.90759e-12
-6.24669e-12
-1.15857e-11
-3.55989e-11
4.20181e-11
1.6615e-10
5.01871e-10
7.60835e-10
-2.07534e-09
1.91721e-09
-2.10716e-09
4.94833e-11
-8.85593e-11
-1.04309e-11
4.1707e-12
2.62527e-13
-8.68655e-12
-1.70538e-11
7.58519e-12
1.60802e-10
3.78255e-10
4.87841e-10
-2.02357e-10
-2.48114e-09
6.08502e-09
-5.64536e-09
5.27946e-11
4.67391e-10
8.48395e-11
-2.06508e-11
-2.83816e-11
-2.32837e-11
-1.86925e-11
3.81783e-11
2.26061e-10
4.4994e-10
4.77754e-10
1.44581e-10
-3.48481e-09
1.07501e-08
-5.83881e-09
-4.45715e-09
-1.61901e-09
-2.75249e-10
8.57426e-11
8.79317e-11
2.74808e-11
-1.08393e-11
9.9761e-12
1.42784e-10
3.57936e-10
4.80199e-10
6.16118e-10
-1.90339e-09
2.22586e-08
-1.06607e-11
-3.28012e-09
-2.53711e-09
-1.3152e-09
-4.66777e-10
-6.89737e-11
3.76059e-11
2.49268e-11
5.0671e-12
5.97887e-11
2.26694e-10
4.00757e-10
5.09733e-10
-7.4501e-10
1.46164e-08
-5.83342e-08
-2.75119e-08
-9.65462e-09
-3.05944e-09
-9.30655e-10
-2.20519e-10
1.09096e-11
4.40615e-11
1.46317e-11
2.73946e-11
1.57781e-10
3.53533e-10
4.97626e-10
-4.04429e-10
1.26729e-08
-6.96444e-08
-4.07178e-08
-1.38438e-08
-3.8638e-09
-1.09772e-09
-2.66976e-10
5.19969e-12
4.56454e-11
1.10794e-11
2.92558e-11
1.76627e-10
3.60201e-10
2.83841e-10
-2.65983e-10
2.22122e-08
-3.65357e-08
-3.37122e-08
-1.13173e-08
-3.265e-09
-9.54109e-10
-2.19397e-10
1.20513e-11
3.23288e-11
4.49482e-12
4.97861e-11
2.11533e-10
3.55509e-10
1.80464e-10
-2.16239e-10
2.53076e-08
-3.88076e-10
-3.50176e-08
-1.16134e-08
-3.11916e-09
-9.45568e-10
-2.81242e-10
-2.89382e-11
5.59455e-12
-1.17772e-11
3.92544e-11
1.81076e-10
3.26034e-10
2.00868e-10
1.07864e-11
1.72645e-08
1.82194e-08
-1.04548e-08
-1.33425e-08
-5.33995e-09
-1.43157e-09
-3.27485e-10
-4.71978e-11
3.19256e-12
-1.06155e-11
2.0106e-11
1.3204e-10
2.78733e-10
2.21643e-10
1.04879e-10
6.12897e-09
1.87962e-08
6.04334e-09
-1.05324e-08
-7.31909e-09
-2.35804e-09
-4.86683e-10
-4.52927e-11
1.40999e-11
-5.10527e-12
1.15604e-11
1.07952e-10
2.52377e-10
2.14687e-10
1.4238e-10
1.37558e-08
1.75203e-08
9.55607e-09
-8.69851e-09
-7.8918e-09
-2.70218e-09
-5.54965e-10
-8.30252e-11
1.07947e-12
-2.06796e-12
1.12571e-11
1.00153e-10
2.39847e-10
2.11902e-10
1.3679e-10
1.40119e-08
1.65122e-08
1.24127e-08
-5.23589e-09
-9.29581e-09
-4.41514e-09
-8.6425e-10
6.69885e-11
7.20758e-11
1.61771e-12
3.06016e-12
8.89774e-11
2.28007e-10
2.12202e-10
1.30326e-10
7.87189e-09
1.0438e-08
1.26882e-08
5.43628e-09
-4.44241e-09
-5.80926e-09
-2.86488e-09
-6.52326e-10
3.03926e-11
6.01057e-11
1.66177e-11
6.75162e-11
1.98574e-10
2.11471e-10
1.23338e-10
)
;
    }
    inlet
    {
        type            calculated;
        value           nonuniform List<scalar> 
15
(
-1299.9
-1300.2
-1299.9
-1299.9
-1300.2
-1299.9
-1299.9
-1300.2
-1299.9
-1299.9
-1300.2
-1299.9
-1299.9
-1300.2
-1299.9
)
;
    }
    inletWalls
    {
        type            calculated;
        value           uniform 0;
    }
    outletInlet
    {
        type            calculated;
        value           nonuniform List<scalar> 
15
(
923.383
1614.29
1443.98
1573.25
1669.83
1817.04
1980.63
2100.13
2078.63
1896.62
1436.86
813.548
264.319
-281.42
169.188
)
;
    }
}


// ************************************************************************* //
