/*--------------------------------*- C++ -*----------------------------------*\
| =========                 |                                                 |
| \\      /  F ield         | OpenFOAM: The Open Source CFD Toolbox           |
|  \\    /   O peration     | Version:  4.1                                   |
|   \\  /    A nd           | Web:      www.OpenFOAM.org                      |
|    \\/     M anipulation  |                                                 |
\*---------------------------------------------------------------------------*/
FoamFile
{
    version     2.0;
    format      ascii;
    class       volVectorField;
    location    "25.85";
    object      U;
}
// * * * * * * * * * * * * * * * * * * * * * * * * * * * * * * * * * * * * * //

dimensions      [0 1 -1 0 0 0 0];

internalField   nonuniform List<vector> 
225
(
(4.52102e-13 0.873781 15.8384)
(-3.85154e-13 -4.95042 12.0037)
(-6.95707e-14 -4.18229 12.1626)
(-1.30954e-14 -3.62424 12.0038)
(-3.22171e-15 -3.02383 11.8862)
(-4.91712e-15 -2.57462 11.7043)
(-1.65616e-14 -2.23205 11.4808)
(-3.6627e-14 -1.9914 11.2153)
(-7.31962e-14 -1.82599 10.9217)
(-1.33933e-13 -1.74715 10.5976)
(-2.43743e-13 -1.89062 10.1717)
(-3.33298e-13 -2.35078 9.57536)
(-3.3148e-13 -2.53722 9.05756)
(-1.93575e-14 -1.04528 8.99966)
(1.24629e-12 1.52231 7.10791)
(-2.78638e-12 -5.24063 22.4592)
(2.09977e-12 -14.6454 21.2763)
(7.04774e-13 -13.2503 20.313)
(2.43628e-13 -11.7718 19.4232)
(5.07847e-14 -11.1506 18.4129)
(-1.24838e-14 -10.66 17.4293)
(-2.61829e-14 -10.101 16.48)
(-4.32496e-14 -9.54271 15.5268)
(-8.02054e-14 -8.98837 14.5644)
(-2.45434e-13 -8.40523 13.5957)
(2.90916e-13 -7.81263 12.6266)
(1.15022e-12 -7.35148 11.609)
(3.48905e-12 -6.99615 10.3962)
(5.26772e-12 -5.48279 9.07913)
(-1.43672e-11 -2.43844 3.78333)
(1.32717e-11 -7.78987 23.7914)
(-1.45875e-11 -16.5466 24.4507)
(3.42604e-13 -13.8263 23.7157)
(-6.14287e-13 -12.3895 22.5574)
(-7.22111e-14 -11.7578 21.1136)
(2.88763e-14 -10.9756 19.8217)
(4.36112e-15 -10.1385 18.5895)
(-5.62331e-14 -9.33551 17.3433)
(-1.18074e-13 -8.56065 16.0805)
(5.02009e-14 -7.78611 14.8331)
(1.11802e-12 -7.01349 13.6374)
(2.61889e-12 -6.30288 12.3866)
(3.38507e-12 -5.59643 10.6754)
(-1.41328e-12 -4.12465 8.01069)
(-1.71785e-11 -1.20918 3.02535)
(4.21325e-11 -8.06064 21.245)
(-3.90836e-11 -16.9663 23.1746)
(3.58878e-13 -12.9754 23.4312)
(3.23607e-12 -12.0065 21.1165)
(5.84601e-13 -11.5045 19.7092)
(-1.42003e-13 -10.6885 18.6015)
(-1.96505e-13 -9.89898 17.3446)
(-1.63334e-13 -9.15403 16.0238)
(-1.17916e-13 -8.38871 14.7289)
(2.64334e-13 -7.66981 13.4347)
(1.56227e-12 -6.97856 12.2424)
(3.10116e-12 -6.23498 11.0391)
(3.30781e-12 -5.16231 9.27905)
(9.961e-13 -3.89451 5.49926)
(-2.41344e-11 -0.517813 1.93524)
(7.44175e-11 -5.69208 17.0107)
(-4.04267e-11 -15.9286 21.6779)
(-3.08515e-11 -15.9481 23.7129)
(-1.12088e-11 -14.8952 22.2028)
(-1.90714e-12 -13.7909 20.0874)
(5.97782e-13 -12.6676 18.261)
(6.08151e-13 -11.6563 16.8694)
(1.82838e-13 -10.7676 15.7644)
(-7.6381e-14 -9.98384 14.5605)
(6.83264e-14 -9.11096 13.4228)
(9.86936e-13 -8.27149 12.2117)
(2.47605e-12 -7.48807 10.9042)
(3.32321e-12 -6.32455 9.53284)
(4.27574e-12 -4.81148 7.06151)
(-1.31792e-11 -2.27972 3.4663)
(1.54095e-10 -1.03485 6.89784)
(-7.29604e-14 -6.68838 4.25516)
(-2.27094e-11 -10.7654 14.7762)
(-1.75641e-11 -14.3489 20.7016)
(-9.10459e-12 -15.7622 21.9256)
(-3.23095e-12 -15.1703 20.9966)
(-4.77497e-13 -13.7406 19.366)
(2.60868e-13 -12.4329 17.8693)
(1.7376e-13 -11.423 16.5939)
(3.50789e-14 -10.4752 15.396)
(4.1465e-13 -9.51315 14.1836)
(1.57126e-12 -8.59975 12.9067)
(2.7744e-12 -7.5658 11.5873)
(3.53009e-12 -6.00762 9.92921)
(-5.16474e-12 -3.47571 6.31139)
(1.012e-10 0.457259 10.3314)
(-4.03846e-10 -2.43101 -1.13211)
(-1.90461e-10 -5.62221 8.27651)
(-6.68455e-11 -11.0234 17.0937)
(-2.11812e-11 -14.5182 22.3278)
(-6.44359e-12 -15.4664 23.5523)
(-1.5268e-12 -14.4501 22.2195)
(7.58424e-14 -12.8554 20.6101)
(3.05745e-13 -11.7594 18.9591)
(1.01305e-13 -10.8637 17.4451)
(1.86068e-13 -9.89684 16.2177)
(1.09839e-12 -8.97969 14.9901)
(2.44775e-12 -8.1366 13.5584)
(3.44429e-12 -6.91492 11.8679)
(-2.79777e-12 -4.23358 8.65748)
(8.77301e-11 1.48352 12.9855)
(-4.82181e-10 -2.24852 -6.71424)
(-2.81876e-10 0.200845 2.4497)
(-9.58364e-11 -8.78978 15.4771)
(-2.67509e-11 -13.2619 22.5494)
(-7.59936e-12 -14.4839 24.9266)
(-1.84628e-12 -13.7739 23.6878)
(3.59999e-14 -12.3461 21.9393)
(3.15776e-13 -11.3571 20.1131)
(7.87223e-14 -10.5577 18.4139)
(2.02552e-13 -9.60246 17.2087)
(1.22249e-12 -8.76898 15.9973)
(2.49355e-12 -8.09385 14.5985)
(1.96517e-12 -6.93039 12.7443)
(-1.84194e-12 -3.44875 7.85253)
(1.53772e-10 2.38371 13.6921)
(-2.52933e-10 -4.97959 0.0556269)
(-2.33411e-10 -3.29448 6.92278)
(-7.8348e-11 -8.97214 17.4622)
(-2.26032e-11 -12.7077 23.4999)
(-6.60696e-12 -13.9407 24.6571)
(-1.51886e-12 -13.1426 23.3794)
(8.34296e-14 -11.8581 21.8728)
(2.25216e-13 -11.0565 19.7878)
(3.11171e-14 -10.2367 18.1646)
(3.44663e-13 -9.53183 17.1227)
(1.46408e-12 -8.97206 15.8624)
(2.46114e-12 -8.2695 14.4716)
(1.24933e-12 -5.73677 12.0856)
(-1.49888e-12 -3.17841 0.0868559)
(1.7522e-10 2.18303 11.1455)
(-2.6866e-12 -4.62943 4.47971)
(-2.42426e-10 -4.68262 3.82558)
(-8.04087e-11 -9.14451 17.166)
(-2.15936e-11 -13.1985 22.8861)
(-6.54327e-12 -14.3099 24.0032)
(-1.94795e-12 -13.5375 22.707)
(-2.00336e-13 -12.4064 21.2166)
(3.83252e-14 -11.5297 19.117)
(-8.43311e-14 -10.6179 17.3996)
(2.71753e-13 -9.94573 16.4045)
(1.25537e-12 -9.38121 15.2575)
(2.25426e-12 -9.49072 13.3719)
(1.39058e-12 -6.89981 14.5663)
(7.38247e-14 -5.76351 5.70108)
(1.19514e-10 -0.923784 4.44589)
(1.26143e-10 -3.86221 6.9929)
(-7.23812e-11 -4.29548 4.17513)
(-9.23698e-11 -8.3642 14.1724)
(-3.69703e-11 -12.9319 21.2376)
(-9.91209e-12 -14.6162 23.475)
(-2.26707e-12 -14.123 22.6716)
(-3.23192e-13 -13.0022 21.1622)
(2.35235e-14 -11.9445 19.1792)
(-7.34878e-14 -10.8339 17.3482)
(1.3962e-13 -10.0187 16.1148)
(9.11404e-13 -9.13219 15.1293)
(1.92958e-12 -9.44396 12.9815)
(1.53195e-12 -7.81142 15.9183)
(7.24366e-13 -7.09053 9.85183)
(4.24301e-11 -2.42161 -1.55083)
(1.30134e-10 -3.18013 6.7074)
(4.18484e-11 -4.40308 6.41295)
(-7.29143e-11 -7.07593 12.0292)
(-5.06688e-11 -11.971 19.5523)
(-1.63273e-11 -14.1643 23.2772)
(-3.36925e-12 -13.9565 23.3648)
(-3.12491e-13 -13.0756 21.6881)
(9.68393e-14 -11.8675 19.7366)
(-3.53432e-14 -10.6802 17.8495)
(8.00314e-14 -9.86397 16.4357)
(7.41275e-13 -8.81683 15.5217)
(1.74778e-12 -9.18503 13.4558)
(1.48574e-12 -7.7978 16.787)
(9.7995e-13 -7.69652 9.98487)
(9.52338e-11 -2.28173 0.99546)
(1.2129e-10 0.943554 5.02767)
(6.61568e-11 -4.06512 6.25835)
(-6.0221e-11 -9.04513 12.4135)
(-5.4634e-11 -10.6843 20.3677)
(-1.87069e-11 -13.8059 23.0298)
(-3.84275e-12 -14.3774 22.8711)
(-5.73303e-13 -12.7954 22.3383)
(7.06782e-15 -11.956 20.313)
(-1.43179e-14 -10.8495 18.417)
(7.84258e-14 -10.0807 16.9506)
(6.92818e-13 -8.96922 16.0917)
(1.66063e-12 -9.43112 14.2131)
(1.46748e-12 -8.08688 17.4307)
(9.46161e-13 -7.51528 9.66044)
(9.69957e-11 -1.73348 4.34705)
(1.1432e-10 -2.08629 4.16101)
(8.59375e-11 -3.9218 6.97282)
(-3.6247e-11 -8.74349 12.0873)
(-6.43597e-11 -10.988 19.4229)
(-3.05646e-11 -13.92 22.838)
(-5.98261e-12 -14.8047 23.0432)
(4.63476e-13 -13.4996 22.5867)
(4.98957e-13 -12.6277 20.7093)
(1.15898e-14 -11.4276 18.8318)
(2.07501e-14 -10.5669 17.3321)
(6.15962e-13 -9.37405 16.5155)
(1.57869e-12 -9.85236 14.7937)
(1.46893e-12 -8.44565 17.8361)
(9.02201e-13 -7.46616 9.62145)
(5.44953e-11 0.0862319 1.44894)
(7.22609e-11 -0.837246 -3.47533)
(8.78495e-11 -1.06042 1.85381)
(3.76347e-11 -5.46928 8.23244)
(-3.07544e-11 -10.0234 15.7971)
(-4.02213e-11 -13.442 21.3897)
(-1.98332e-11 -15.0475 23.6587)
(-4.51612e-12 -14.679 23.904)
(2.10588e-13 -13.8617 22.5134)
(4.16105e-13 -12.5955 20.657)
(1.14942e-13 -11.586 18.9285)
(4.6757e-13 -10.2886 17.8667)
(1.3747e-12 -10.5338 16.3086)
(1.46387e-12 -9.30973 18.3061)
(8.54147e-13 -7.26986 10.4796)
)
;

boundaryField
{
    inletFace
    {
        type            zeroGradient;
    }
    inlet
    {
        type            fixedValue;
        value           uniform (0 8.7 15);
    }
    inletWalls
    {
        type            noSlip;
    }
    outletInlet
    {
        type            zeroGradient;
    }
}


// ************************************************************************* //
