/*--------------------------------*- C++ -*----------------------------------*\
| =========                 |                                                 |
| \\      /  F ield         | OpenFOAM: The Open Source CFD Toolbox           |
|  \\    /   O peration     | Version:  4.1                                   |
|   \\  /    A nd           | Web:      www.OpenFOAM.org                      |
|    \\/     M anipulation  |                                                 |
\*---------------------------------------------------------------------------*/
FoamFile
{
    version     2.0;
    format      ascii;
    class       volScalarField;
    location    "1";
    object      p;
}
// * * * * * * * * * * * * * * * * * * * * * * * * * * * * * * * * * * * * * //

dimensions      [0 2 -2 0 0 0 0];

internalField   nonuniform List<scalar> 
6785
(
537.345
484.505
433.246
385.188
340.443
298.511
259.192
222.13
186.868
153.236
121.925
93.3403
63.9568
28.6709
-1.47691
81.6521
61.8807
52.923
46.2056
40.0001
33.9218
28.1873
23.0948
18.8907
15.7233
13.8382
13.5595
14.8484
16.9385
17.1941
-30.0495
-38.8704
-36.1749
-32.3335
-29.3323
-26.6867
-24.028
-21.1883
-18.2492
-15.2704
-12.3544
-9.38346
-6.67588
-4.85818
-4.60938
-17.3721
-22.2886
-17.9557
-14.8833
-13.1127
-11.7456
-10.5183
-9.46418
-8.62727
-8.11729
-7.87211
-7.7654
-7.78459
-8.13202
-8.62169
-1.36382
-4.00464
-0.517665
0.465235
0.319195
0.0143374
-0.303819
-0.717706
-1.22041
-1.85409
-2.57381
-3.15752
-3.57199
-3.89324
-4.072
5.15863
3.69254
5.88101
5.31453
3.90172
2.68474
1.65496
0.693329
-0.242271
-1.17055
-2.05128
-2.83505
-3.22636
-3.31359
-3.1912
6.12215
5.22414
6.49519
5.47778
4.04303
3.07883
2.39127
1.81772
1.32983
0.911498
0.537573
0.287298
0.158157
0.14818
0.268292
4.99931
4.4541
5.19586
4.14179
2.92807
2.31849
1.96322
1.68307
1.43528
1.24493
1.09672
0.965245
1.03044
1.23187
1.49287
4.22878
3.91283
4.38704
3.55274
2.79586
2.69105
2.799
2.92009
3.06379
3.26683
3.49435
3.74599
3.97925
4.1884
4.38228
3.28377
3.07883
3.35634
2.6738
2.1836
2.32658
2.61484
2.86316
3.09722
3.36957
3.6698
3.94433
4.26973
4.56855
4.78208
3.24573
3.09302
3.22575
2.70185
2.46908
2.82136
3.25464
3.62023
3.97203
4.36706
4.77576
5.1796
5.51284
5.746
5.85226
3.87933
3.83087
3.89713
3.48791
3.39868
3.81719
4.23561
4.53282
4.78965
5.06933
5.36182
5.59564
5.858
6.09118
6.22856
7.30346
7.33414
7.32703
6.97195
6.93832
7.35286
7.71787
7.91506
8.05944
8.22987
8.41562
8.59955
8.72988
8.80635
8.85992
7.60761
8.27231
8.89031
8.97072
9.01722
9.28904
9.44411
9.42671
9.36649
9.29922
9.23364
9.10398
9.03265
9.0469
9.09965
28.9692
29.3008
29.6421
28.4848
26.1433
23.6494
21.2793
18.8846
16.4994
14.3248
12.389
10.6852
9.19589
8.02779
7.28301
38.2153
38.0156
38.0217
37.7424
37.3711
36.6959
36.5847
36.1367
35.5862
34.8666
35.0646
34.7722
34.2131
34.474
34.2287
33.799
33.2189
33.4692
33.2277
32.8075
33.0639
32.8747
32.5563
32.1949
32.4237
32.2374
31.9648
31.7231
31.9978
31.8254
31.6475
31.9709
31.8952
31.763
31.7532
32.034
31.8899
31.8162
32.1328
32.0913
32.0181
32.1048
32.2937
32.1699
32.0439
32.0802
32.1685
31.9545
31.8072
31.8067
31.6111
31.4384
31.4662
31.5676
31.4382
31.317
31.415
31.8772
31.9185
31.9097
32.495
32.5966
32.5207
32.4279
32.9191
33.0395
33.1742
32.9084
32.6515
32.8609
32.6553
30.0692
29.425
29.6733
27.6814
21.293
19.5911
8.95579
-3.77927
2.40734
7.38792
8.45459
8.75729
2.36059
9.30033
13.1157
13.873
14.1502
14.9037
17.0313
19.8624
21.1246
20.5837
18.0176
18.9726
20.7056
21.9257
22.3268
23.0494
23.7691
24.4003
27.9875
25.2669
25.339
25.4426
26.1504
27.1167
27.5168
27.5026
27.5506
27.8003
33.8707
31.4908
31.0661
30.5527
30.3591
30.8153
30.9844
30.0337
29.0189
33.9741
35.7235
36.2535
35.7278
34.1951
32.5491
31.0207
30.1535
30.0025
38.3403
37.2798
35.7436
34.8153
33.2202
30.4638
26.9971
23.7265
22.56
30.328
30.5857
28.2151
26.0217
22.916
19.029
15.7803
13.3256
11.2543
10.6787
11.8072
13.4107
12.4972
12.749
12.4068
10.654
8.2018
7.4963
8.22372
6.56314
10.1182
9.59425
9.75864
12.0657
11.5588
11.7274
11.805
12.8094
13.4422
12.642
13.4576
13.7306
12.728
13.0085
13.1941
13.5547
13.3628
12.1363
12.2427
12.319
12.5732
12.3319
11.4324
11.7364
11.504
10.7068
10.7077
10.6612
10.7583
10.4415
9.80764
9.68457
9.51336
9.55669
9.24176
8.92467
8.94836
8.48247
8.23124
8.02702
7.73216
7.67629
7.31893
7.26786
7.02571
6.68131
6.60686
6.26235
6.43044
6.31196
5.74116
5.92887
5.61422
5.16932
5.0285
4.66121
5.0544
4.73234
4.25901
4.10266
3.7451
4.28444
4.05335
3.38957
3.91846
3.48409
2.92058
2.72746
2.30287
3.06301
2.65096
2.05055
1.84648
1.41711
2.33248
2.01269
1.13753
2.01984
1.43461
0.663933
0.386686
0.0941183
-0.00426058
0.00424753
-0.0062832
-0.00950031
-0.0139605
-0.0177624
-0.0216986
-0.0256364
-0.0300664
-0.0354363
-0.0427444
-0.0528926
-0.0665464
-0.0834577
-0.106708
-0.312764
-0.519943
-0.639924
-0.656565
-0.567736
-0.95899
-1.11341
-1.068
-0.900476
-1.16245
-1.39164
-1.39154
-1.08922
-0.677408
-1.18073
-1.32762
-0.8652
0.0295358
-0.579314
-0.838539
-0.297956
0.770316
0.186142
-0.165352
0.45462
1.89235
1.2123
0.640592
1.14173
2.95662
2.08329
1.16459
1.15215
3.78023
2.68888
2.04425
3.39791
2.68003
1.73484
-0.276025
1.30538
1.98735
1.39443
1.71123
2.21306
2.02799
2.13389
2.32489
2.3194
2.25315
1.72702
1.06557
1.45118
1.65529
1.49066
0.715697
-0.155426
0.308314
-0.114265
0.255225
0.933572
1.26032
0.586159
0.649865
-0.0153888
0.00378799
-0.0227686
-0.0322043
-0.0443227
-0.0545538
-0.064933
-0.0751524
-0.0865154
-0.100178
-0.118791
-0.144785
-0.180212
-0.225005
-0.287347
-0.541641
-0.76202
-0.897944
-0.924588
-0.872985
-1.34085
-1.51043
-1.47401
-1.33439
-1.68535
-1.9487
-1.94975
-1.60007
-1.18236
-1.82545
-1.96562
-1.40183
-0.382418
-1.20142
-1.47402
-0.815463
0.46649
-0.344115
-0.734823
0.042089
1.87332
0.936292
0.257778
0.900228
3.31789
2.15607
1.00594
1.01679
4.64569
3.33921
2.44755
4.28823
3.37878
2.09006
-0.500867
2.00188
2.8168
1.93607
2.76521
2.92977
3.01341
3.40333
2.97076
3.047
3.4346
3.04272
1.94608
2.05944
3.03097
3.01136
1.0373
0.133892
1.06123
0.213638
0.450422
1.07277
1.84814
0.985646
0.985776
-0.0194228
0.00873588
-0.0309082
-0.046059
-0.0653048
-0.0816868
-0.098248
-0.114343
-0.131657
-0.151454
-0.177199
-0.212218
-0.260073
-0.322578
-0.411778
-0.650226
-0.868328
-1.0111
-1.05168
-1.0457
-1.45897
-1.6229
-1.6005
-1.50408
-1.8079
-2.05227
-2.04617
-1.70852
-1.3452
-1.90879
-1.99672
-1.4312
-0.51705
-1.21844
-1.40984
-0.747201
0.417654
-0.2741
-0.556816
0.240248
1.92781
1.11438
0.575427
1.25259
3.47425
2.40886
1.44944
1.53732
4.92915
3.66405
2.91999
4.58754
3.7188
2.58585
0.101219
2.37845
3.33133
2.38413
3.1073
3.38829
3.42711
3.76225
3.47378
3.58468
4.11073
3.53472
2.32167
2.55568
3.7567
3.53832
1.31266
0.30244
1.25033
0.433588
0.561711
1.10842
1.97403
1.21021
1.24219
-0.0233319
0.0104264
-0.039956
-0.060818
-0.0868398
-0.109263
-0.131858
-0.153632
-0.176416
-0.201268
-0.231994
-0.272363
-0.327314
-0.400779
-0.507079
-0.727829
-0.935734
-1.07659
-1.12719
-1.15961
-1.51125
-1.65955
-1.64336
-1.57989
-1.82937
-2.04261
-2.01753
-1.69528
-1.39029
-1.84229
-1.86533
-1.30781
-0.516176
-1.05562
-1.149
-0.491986
0.528425
0.00681555
-0.146175
0.651671
2.13449
1.50907
1.14539
1.83438
3.75157
2.8633
2.15994
2.31588
5.27393
4.11348
3.54327
4.95019
4.16907
3.2732
0.987744
2.87292
3.8843
2.92116
3.46258
3.876
3.82858
4.09044
3.82626
4.16194
4.79048
4.04312
2.82233
3.2097
4.35331
3.92831
1.83895
0.488264
1.38897
0.726612
0.791524
1.26453
2.06795
1.43835
1.49105
-0.0257593
0.0118863
-0.0470354
-0.0731687
-0.105419
-0.133537
-0.161895
-0.189185
-0.21729
-0.246961
-0.282041
-0.326411
-0.385953
-0.466408
-0.582881
-0.787941
-0.982826
-1.11763
-1.17757
-1.24048
-1.54176
-1.67041
-1.65671
-1.61907
-1.83192
-2.00688
-1.95676
-1.65007
-1.40014
-1.75289
-1.71054
-1.16057
-0.474246
-0.882425
-0.879305
-0.223728
0.676918
0.288956
0.2608
1.05898
2.36721
1.89144
1.69661
2.3934
4.04695
3.3104
2.84835
3.0581
5.62698
4.55972
4.13764
5.31662
4.58695
3.92872
1.82786
3.40382
4.36707
3.43661
3.84677
4.28183
4.19086
4.42723
4.01791
4.67212
5.41414
4.61768
3.36597
3.71218
4.84157
4.35348
2.37535
0.694432
1.59232
1.03093
1.05105
1.43989
2.17076
1.67477
1.74249
-0.027777
0.0122147
-0.0540082
-0.0852121
-0.123362
-0.157069
-0.191172
-0.2241
-0.257764
-0.29256
-0.332261
-0.38064
-0.444175
-0.529649
-0.651759
-0.844259
-1.02647
-1.15365
-1.22132
-1.30522
-1.56354
-1.67453
-1.66213
-1.64384
-1.82523
-1.96046
-1.88579
-1.59526
-1.38859
-1.653
-1.55291
-1.01337
-0.411771
-0.707034
-0.619219
0.0333035
0.837273
0.562909
0.644714
1.43739
2.59861
2.25062
2.20556
2.90323
4.33035
3.72834
3.48057
3.73057
5.95205
4.96819
4.66994
5.64829
4.95627
4.51379
2.58745
3.91535
4.7949
3.9016
4.20498
4.62658
4.49535
4.7251
4.2238
5.13903
5.94601
5.17537
3.85617
4.14438
5.24055
4.78878
2.82858
0.914386
1.8105
1.31183
1.31399
1.63005
2.28243
1.91265
1.97893
-0.0291999
0.0122919
-0.0598426
-0.0956709
-0.139239
-0.178194
-0.21778
-0.256219
-0.295454
-0.335569
-0.380212
-0.432982
-0.500671
-0.590614
-0.716171
-0.898498
-1.07004
-1.19087
-1.26531
-1.36199
-1.5855
-1.68293
-1.67155
-1.66627
-1.818
-1.91732
-1.82244
-1.54766
-1.36958
-1.55719
-1.41132
-0.886476
-0.349173
-0.542686
-0.385234
0.259545
0.987784
0.817367
0.991341
1.76945
2.80871
2.57857
2.66162
3.35071
4.58771
4.11022
4.04398
4.32077
6.23583
5.33074
5.13185
5.93383
5.2769
5.02071
3.25397
4.37702
5.16225
4.30597
4.51339
4.91028
4.73984
4.96783
4.37822
5.52965
6.37406
5.67067
4.25946
4.47164
5.53494
5.21006
3.21942
1.14683
2.00467
1.55882
1.56184
1.81888
2.39933
2.14619
2.22796
-0.0304531
0.0117368
-0.0656349
-0.105846
-0.154524
-0.198573
-0.243561
-0.287551
-0.332523
-0.378256
-0.428263
-0.485873
-0.557989
-0.651951
-0.779551
-0.953727
-1.11726
-1.23401
-1.31422
-1.41797
-1.61335
-1.70003
-1.68978
-1.69169
-1.81542
-1.88421
-1.77457
-1.51382
-1.35139
-1.47271
-1.29196
-0.783386
-0.2934
-0.39534
-0.179615
0.454224
1.1253
1.05124
1.30195
2.05958
3.00029
2.8787
3.07038
3.74398
4.82755
4.46468
4.54699
4.84174
6.4931
5.66378
5.54238
6.19181
5.56941
5.46962
3.84568
4.80358
5.4882
4.66839
4.78665
5.15009
4.94935
5.17777
4.48642
5.85116
6.71607
6.1034
4.59118
4.71212
5.73436
5.61961
3.59693
1.40686
2.17816
1.77339
1.7935
2.00747
2.52358
2.37149
2.48482
-0.0313836
0.0111117
-0.0705718
-0.114744
-0.168099
-0.21689
-0.266981
-0.316312
-0.366918
-0.418326
-0.473899
-0.536665
-0.613411
-0.71116
-0.83984
-1.00711
-1.16548
-1.28097
-1.36628
-1.47341
-1.64604
-1.72436
-1.71663
-1.72162
-1.81854
-1.86203
-1.74362
-1.49619
-1.34092
-1.40411
-1.19676
-0.705907
-0.249703
-0.269891
-0.00628962
0.613512
1.24305
1.25709
1.56953
2.30238
3.16524
3.14287
3.42382
4.07602
5.03751
4.77895
4.98071
5.2861
6.71755
5.95921
5.89728
6.41779
5.82719
5.85372
4.35308
5.18263
5.76802
4.98525
5.02114
5.34663
5.12516
5.35051
4.5644
6.0784
6.97087
6.45605
4.85026
4.88122
5.84467
5.99404
3.97392
1.68982
2.33045
1.95106
2.00354
2.19011
2.65257
2.59265
2.72446
-0.0322913
0.0100232
-0.0756132
-0.12353
-0.181293
-0.234655
-0.289729
-0.344359
-0.400649
-0.457884
-0.519297
-0.58755
-0.669167
-0.770473
-0.899654
-1.06093
-1.21613
-1.33216
-1.42133
-1.52905
-1.68266
-1.75471
-1.75141
-1.75691
-1.8291
-1.8503
-1.72602
-1.4902
-1.3362
-1.34773
-1.11873
-0.645307
-0.211764
-0.158816
0.144479
0.749281
1.35032
1.44546
1.80771
2.51517
3.31762
3.38555
3.73905
4.36768
5.23176
5.06873
5.36643
5.6779
6.92674
6.23591
6.21979
6.63285
6.07285
6.19493
4.80308
5.53231
6.01848
5.2761
5.23295
5.5077
5.28463
5.49844
4.62718
6.21754
7.16768
6.74764
5.06357
5.01652
5.92134
6.36219
4.37677
2.00232
2.47548
2.11067
2.19584
2.36752
2.78764
2.81301
2.97156
-0.0329929
0.00895301
-0.0799827
-0.131267
-0.193058
-0.250651
-0.310393
-0.370055
-0.431821
-0.494798
-0.562092
-0.636031
-0.722764
-0.827787
-0.95743
-1.11382
-1.26695
-1.38439
-1.47675
-1.58306
-1.7205
-1.78844
-1.79112
-1.79576
-1.84609
-1.84715
-1.71809
-1.49312
-1.33591
-1.30181
-1.05589
-0.600574
-0.180784
-0.062222
0.27328
0.861723
1.44459
1.61408
2.01574
2.69731
3.45402
3.60374
4.01488
4.61908
5.40699
5.33066
5.70286
6.01622
7.11642
6.48936
6.50807
6.83363
6.30067
6.49098
5.19366
5.84298
6.23603
5.542
5.42106
5.63571
5.42097
5.61504
4.67647
6.29968
7.31238
6.99025
5.24061
5.13112
5.99804
6.74605
4.79731
2.33301
2.61615
2.26026
2.37096
2.53811
2.92599
3.02717
3.22516
-0.0337345
0.00748745
-0.0845581
-0.139036
-0.204634
-0.266295
-0.330571
-0.395171
-0.462369
-0.531089
-0.60434
-0.684078
-0.776037
-0.884759
-1.01508
-1.16772
-1.31891
-1.43782
-1.53339
-1.63764
-1.76141
-1.82615
-1.83379
-1.83638
-1.86713
-1.84937
-1.71567
-1.50071
-1.3371
-1.2617
-1.00161
-0.563725
-0.151751
0.02525
0.388953
0.962679
1.53463
1.7721
2.20781
2.86591
3.58759
3.81134
4.26999
4.85132
5.57974
5.5824
6.01219
6.32604
7.30145
6.73636
6.78417
7.0375
6.52853
6.76319
5.55222
6.13158
6.44125
5.80389
5.6011
5.74743
5.55031
5.71985
4.72516
6.34703
7.39986
7.18623
5.39764
5.2305
6.0833
7.14807
5.22922
2.68386
2.76699
2.41082
2.53827
2.70624
3.07061
3.24417
3.4654
-0.0343292
0.00606347
-0.088606
-0.145962
-0.215044
-0.28047
-0.348981
-0.418238
-0.490609
-0.564876
-0.643951
-0.729443
-0.826597
-0.93897
-1.06989
-1.21942
-1.36876
-1.48961
-1.58891
-1.69108
-1.80419
-1.86602
-1.87642
-1.87684
-1.88981
-1.85448
-1.71717
-1.51207
-1.34032
-1.22872
-0.956522
-0.534176
-0.125825
0.101294
0.489708
1.05278
1.61811
1.9153
2.38085
3.01983
3.71407
4.0028
4.50033
5.06207
5.74498
5.81904
6.29194
6.60555
7.47727
6.97068
7.04439
7.23744
6.74814
7.00857
5.87569
6.39512
6.639
6.05947
5.77177
5.84763
5.67221
5.81163
4.77288
6.36673
7.43688
7.33734
5.54547
5.31892
6.15734
7.52785
5.63479
3.03959
2.92888
2.56102
2.70034
2.87215
3.22104
3.46775
3.71709
-0.0349948
0.00426318
-0.0929397
-0.153051
-0.225447
-0.294506
-0.367136
-0.440954
-0.518421
-0.59817
-0.683034
-0.774244
-0.876543
-0.992459
-1.12414
-1.27107
-1.41834
-1.54124
-1.64403
-1.74417
-1.84824
-1.9066
-1.91846
-1.91755
-1.91466
-1.86315
-1.72205
-1.524
-1.34363
-1.20049
-0.916104
-0.504362
-0.097442
0.173255
0.584728
1.14293
1.70413
2.05435
2.54777
3.17457
3.84542
4.18975
4.72032
5.27017
5.91531
6.05408
6.56144
6.87658
7.65983
7.20906
7.30644
7.44654
6.97399
7.24529
6.18812
6.66187
6.8413
6.31508
5.94437
5.94811
5.79924
5.90234
4.82938
6.38988
7.46164
7.47916
5.72921
5.43342
6.21226
7.85245
6.01138
3.40436
3.11227
2.71879
2.86234
3.03838
3.38198
3.69891
3.96009
-0.0355464
0.00251099
-0.0968442
-0.159448
-0.234889
-0.30732
-0.383807
-0.461923
-0.544223
-0.629227
-0.719687
-0.816498
-0.92388
-1.04339
-1.17598
-1.32106
-1.4668
-1.59141
-1.69669
-1.79513
-1.89193
-1.9467
-1.95948
-1.95731
-1.94072
-1.87553
-1.73028
-1.53555
-1.34658
-1.17599
-0.88001
-0.475388
-0.0680855
0.240808
0.673371
1.23056
1.78982
2.18734
2.70596
3.32574
3.97763
4.36968
4.92646
5.47113
6.08343
6.27857
6.81505
7.13314
7.84421
7.44526
7.5619
7.65509
7.19545
7.46815
6.48311
6.92534
7.03809
6.56121
6.115
6.05144
5.92422
5.98638
4.89131
6.41167
7.4833
7.62157
5.94816
5.57572
6.24023
8.08665
6.34332
3.76731
3.31326
2.88157
3.02516
3.20511
3.55474
3.93942
4.21706
-0.0361799
0.000397448
-0.101066
-0.166083
-0.244446
-0.32015
-0.400403
-0.482736
-0.569791
-0.659955
-0.755919
-0.858212
-0.970569
-1.09361
-1.22748
-1.3713
-1.51573
-1.64111
-1.74805
-1.84597
-1.93698
-1.98858
-2.00137
-1.99618
-1.96778
-1.89008
-1.73927
-1.54479
-1.34819
-1.15274
-0.844432
-0.443988
-0.0352536
0.307942
0.761249
1.3207
1.88092
2.32187
2.86585
3.48371
4.12035
4.55523
5.13493
5.68046
6.26165
6.5048
7.06809
7.3933
8.04224
7.69238
7.82473
7.87437
7.42383
7.69263
6.7802
7.1997
7.23981
6.80755
6.29229
6.16581
6.05685
6.07223
4.96585
6.44027
7.51251
7.76728
6.18276
5.7316
6.25394
8.2316
6.62668
4.13214
3.53777
3.05636
3.19213
3.37537
3.74095
4.17857
4.47967
-0.036723
-0.00166625
-0.104925
-0.172139
-0.253203
-0.331967
-0.415767
-0.502091
-0.593662
-0.688761
-0.790007
-0.897605
-1.01479
-1.14131
-1.27647
-1.41944
-1.56277
-1.68817
-1.79655
-1.8948
-1.98178
-2.03093
-2.04239
-2.03263
-1.99495
-1.90632
-1.74971
-1.55413
-1.34964
-1.13264
-0.81344
-0.415156
-0.0013438
0.371402
0.842591
1.40615
1.97292
2.45207
3.01936
3.63812
4.2667
4.74004
5.33945
5.88958
6.44346
6.72796
7.31279
7.64838
8.24508
7.94063
8.08483
8.09465
7.64819
7.91086
7.06966
7.47355
7.44012
7.04645
6.47124
6.2893
6.18922
6.15364
5.04686
6.46626
7.54716
7.90711
6.41239
5.86141
6.25493
8.2835
6.84658
4.48701
3.77822
3.24009
3.365
3.54922
3.93699
4.42298
4.7369
-0.037358
-0.00407829
-0.109114
-0.178484
-0.262165
-0.343924
-0.431215
-0.521479
-0.617509
-0.717461
-0.823889
-0.936657
-1.05855
-1.18854
-1.32534
-1.46791
-1.61022
-1.73526
-1.84474
-1.94312
-2.02679
-2.07341
-2.08233
-2.06797
-2.02316
-1.92506
-1.76299
-1.56425
-1.34984
-1.11417
-0.784748
-0.385557
0.0365787
0.43493
0.92315
1.49319
2.07116
2.58374
3.17341
3.79632
4.42416
4.93191
5.54976
6.10634
6.63948
6.9611
7.56373
7.91287
8.46159
8.19889
8.35202
8.32706
7.88222
8.13528
7.36756
7.75908
7.64727
7.28698
6.65966
6.42632
6.32841
6.24004
5.15437
6.49074
7.59004
8.04032
6.6313
5.95418
6.26427
8.269
7.03255
4.839
4.0378
3.43876
3.55264
3.72988
4.14343
4.67615
5.00821
-0.0379197
-0.00642714
-0.112969
-0.18431
-0.270425
-0.355007
-0.44561
-0.539627
-0.639914
-0.744518
-0.85592
-0.973676
-1.10013
-1.23355
-1.3721
-1.51482
-1.65676
-1.78169
-1.8913
-1.98898
-2.07095
-2.11569
-2.12195
-2.10289
-2.05112
-1.94549
-1.77892
-1.57528
-1.34888
-1.09808
-0.759412
-0.356735
0.0760587
0.495808
0.999538
1.57812
2.17047
2.71179
3.32231
3.95167
4.58523
5.12259
5.75556
6.31699
6.8409
7.19512
7.81155
8.17533
8.68228
8.4561
8.61264
8.56205
8.11616
8.35711
7.66148
8.04387
7.85232
7.52163
6.85463
6.57292
6.46424
6.32849
5.29557
6.50726
7.63238
8.15972
6.82441
6.01188
6.26965
8.21751
7.2209
5.18336
4.30804
3.649
3.74913
3.91676
4.35903
4.93524
5.29351
-0.038575
-0.00909212
-0.117124
-0.190416
-0.278908
-0.366275
-0.460161
-0.55791
-0.662424
-0.771619
-0.887905
-1.01051
-1.14139
-1.2782
-1.41877
-1.56193
-1.70354
-1.82822
-1.93717
-2.03397
-2.11519
-2.15863
-2.16277
-2.13832
-2.07859
-1.96693
-1.79569
-1.5856
-1.34702
-1.08277
-0.73484
-0.326932
0.116896
0.55699
1.0761
1.66443
2.27241
2.84155
3.47348
4.11308
4.75545
5.32008
5.96846
6.53434
7.05634
7.43887
8.06716
8.44641
8.91605
8.72303
8.87866
8.80929
8.36107
8.58791
7.9646
8.3385
8.06345
7.75937
7.06513
6.72683
6.59844
6.43239
5.45424
6.53365
7.67706
8.26761
6.99555
6.05037
6.24188
8.16249
7.44191
5.53086
4.59104
3.87524
3.94621
4.11058
4.58392
5.20197
5.5723
-0.03917
-0.0116703
-0.120949
-0.196031
-0.286743
-0.376754
-0.473781
-0.575114
-0.683694
-0.797319
-0.918316
-1.04561
-1.18078
-1.3209
-1.46346
-1.60735
-1.74898
-1.87335
-1.98105
-2.07694
-2.15792
-2.20045
-2.20225
-2.17173
-2.1046
-1.98896
-1.81394
-1.59781
-1.34678
-1.06893
-0.713586
-0.300849
0.155642
0.616733
1.14815
1.74493
2.36984
2.96797
3.6187
4.26945
4.92386
5.51598
6.17919
6.7506
7.27552
7.68208
8.31903
8.71121
9.15367
8.99031
9.14171
9.05723
8.60487
8.8178
8.26358
8.62832
8.27282
7.99281
7.28592
6.86962
6.71797
6.53892
5.60763
6.56758
7.71466
8.35887
7.14003
6.06798
6.19653
8.10298
7.68593
5.88244
4.87823
4.11264
4.14574
4.30868
4.81655
5.47891
5.86003
-0.0398611
-0.0145255
-0.125031
-0.201897
-0.294793
-0.38743
-0.487591
-0.592512
-0.705157
-0.823188
-0.948843
-1.08074
-1.2201
-1.36355
-1.50838
-1.65324
-1.79499
-1.91911
-2.02573
-2.12028
-2.19998
-2.24182
-2.24147
-2.2053
-2.1312
-2.01107
-1.83251
-1.61071
-1.34693
-1.05369
-0.691639
-0.273282
0.196491
0.67939
1.22208
1.8275
2.46952
3.09765
3.76498
4.42698
5.09487
5.71757
6.39584
6.97447
7.50374
7.93395
8.57905
8.98163
9.40267
9.26604
9.41222
9.31336
8.85715
9.05603
8.57006
8.92221
8.48776
8.2288
7.51203
6.99944
6.83079
6.64639
5.76193
6.60988
7.72317
8.4233
7.25977
6.059
6.12952
8.02158
7.91727
6.23406
5.16846
4.36337
4.35653
4.50922
5.0563
5.75981
6.14422
-0.0404991
-0.0172574
-0.128764
-0.207263
-0.302202
-0.397343
-0.50052
-0.608909
-0.725493
-0.847806
-0.977987
-1.11436
-1.25781
-1.40452
-1.5516
-1.69769
-1.83994
-1.964
-2.06959
-2.16203
-2.24018
-2.28217
-2.28025
-2.2395
-2.15824
-2.03234
-1.85104
-1.62372
-1.34694
-1.03869
-0.670725
-0.246225
0.237372
0.7407
1.29412
1.90822
2.56734
3.22435
3.90672
4.5798
5.26331
5.91704
6.60721
7.19267
7.72746
8.185
8.83691
9.2476
9.65268
9.53869
9.67867
9.56546
9.1063
9.29151
8.86876
9.20686
8.70025
8.45826
7.7307
7.12234
6.938
6.74747
5.90896
6.65389
7.6992
8.43223
7.34801
6.02354
6.03589
7.92364
8.10801
6.55936
5.45014
4.62232
4.5784
4.71127
5.30384
6.04917
6.44178
-0.0412264
-0.0202054
-0.132676
-0.212803
-0.309752
-0.407387
-0.513581
-0.625454
-0.745991
-0.872586
-1.00728
-1.14808
-1.2956
-1.44562
-1.59517
-1.74261
-1.88529
-2.00919
-2.11367
-2.20344
-2.27965
-2.32172
-2.31847
-2.27367
-2.18483
-2.05244
-1.86862
-1.63582
-1.34751
-1.02447
-0.647888
-0.216863
0.278879
0.802074
1.37013
1.99282
2.66684
3.35128
4.05226
4.7368
5.43644
6.1209
6.82317
7.41564
7.95574
8.44401
9.10207
9.52042
9.91034
9.81573
9.94804
9.81857
9.36329
9.53465
9.16991
9.4928
8.9194
8.68922
7.94684
7.24659
7.04678
6.84598
6.04948
6.69417
7.65164
8.3821
7.40692
6.00139
5.94137
7.81841
8.24694
6.847
5.72286
4.89013
4.81032
4.9215
5.55976
6.33952
6.75235
-0.0419015
-0.0229829
-0.136201
-0.21781
-0.316637
-0.416655
-0.525759
-0.641013
-0.7654
-0.89618
-1.03528
-1.18044
-1.33196
-1.48527
-1.63729
-1.78631
-1.92979
-2.05368
-2.15699
-2.24408
-2.31837
-2.35987
-2.3553
-2.30673
-2.21093
-2.07252
-1.88587
-1.64829
-1.35004
-1.01262
-0.624711
-0.187488
0.320161
0.862153
1.44657
2.07697
2.76475
3.47408
4.19636
4.89057
5.60567
6.31848
7.03511
7.63481
8.18259
8.70137
9.36259
9.78637
10.1634
10.0881
10.2107
10.0629
9.6186
9.77699
9.46216
9.76802
9.13793
8.91515
8.15713
7.37036
7.15368
6.93664
6.17631
6.72222
7.57463
8.2814
7.43437
6.00421
5.85434
7.71797
8.33809
7.09496
5.9822
5.16139
5.05099
5.14693
5.8213
6.63641
7.06621
-0.0426582
-0.0259116
-0.139828
-0.222907
-0.323579
-0.425969
-0.537985
-0.656639
-0.784896
-0.919876
-1.06339
-1.2129
-1.36844
-1.52515
-1.6799
-1.83068
-1.975
-2.09908
-2.2016
-2.2864
-2.35768
-2.39738
-2.39191
-2.34036
-2.2387
-2.0935
-1.90173
-1.65936
-1.35204
-1.00002
-0.599104
-0.155033
0.364169
0.924442
1.52668
2.16681
2.86812
3.60061
4.34614
5.05008
5.77883
6.51762
7.2536
7.85979
8.41607
8.96442
9.62859
10.0554
10.4175
10.3652
10.4761
10.3092
9.88161
10.0274
9.75707
10.042
9.36376
9.14328
8.36545
7.49729
7.26258
7.02175
6.29284
6.74769
7.46622
8.13972
7.4346
6.01678
5.77119
7.62981
8.38642
7.29468
6.22562
5.43367
5.2995
5.38972
6.08297
6.9355
7.38971
-0.0433578
-0.0286163
-0.143021
-0.227422
-0.329808
-0.434461
-0.549285
-0.67124
-0.803271
-0.942366
-1.09022
-1.24401
-1.40354
-1.56364
-1.72113
-1.87385
-2.01933
-2.14376
-2.24557
-2.32831
-2.39622
-2.43371
-2.42757
-2.37355
-2.26714
-2.1148
-1.91696
-1.67046
-1.35474
-0.990006
-0.576151
-0.122814
0.407993
0.984007
1.60311
2.25688
2.97182
3.72405
4.49178
5.20936
5.95224
6.71399
7.46979
8.08043
8.64556
9.22147
9.89168
10.3193
10.6671
10.6387
10.7356
10.5512
10.1413
10.2749
10.0421
10.303
9.58895
9.36531
8.56853
7.62563
7.36998
7.09945
6.39458
6.76026
7.33485
7.96947
7.40845
6.02371
5.70486
7.54265
8.40245
7.44613
6.44317
5.7003
5.55286
5.64602
6.34156
7.22632
7.71685
-0.044122
-0.0313898
-0.146211
-0.231906
-0.335962
-0.442855
-0.560477
-0.685737
-0.821555
-0.964776
-1.11698
-1.27507
-1.43864
-1.60226
-1.76273
-1.91753
-2.06415
-2.189
-2.29023
-2.37092
-2.4348
-2.46989
-2.46296
-2.4066
-2.29548
-2.13541
-1.93129
-1.68069
-1.358
-0.982488
-0.554454
-0.0878494
0.453632
1.04413
1.68109
2.35281
3.08051
3.85002
4.6391
5.37699
6.13352
6.91552
7.69047
8.30812
8.88187
9.48313
10.1637
10.5904
10.9226
10.9162
10.9964
10.7958
10.405
10.5268
10.3253
10.5588
9.82156
9.58605
8.76912
7.75799
7.47814
7.17413
6.4874
6.76393
7.18439
7.7805
7.35988
6.03288
5.66575
7.44963
8.38466
7.57253
6.63358
5.9568
5.80736
5.90892
6.59301
7.50853
8.03798
-0.0448179
-0.0338789
-0.148911
-0.235748
-0.341337
-0.450355
-0.570666
-0.69913
-0.838633
-0.985894
-1.14237
-1.30472
-1.4723
-1.63946
-1.80293
-1.96003
-2.10817
-2.23366
-2.33444
-2.4133
-2.4737
-2.50625
-2.4978
-2.43945
-2.32435
-2.15765
-1.94692
-1.6909
-1.36193
-0.977136
-0.534851
-0.053388
0.498861
1.10278
1.75674
2.44762
3.18926
3.97479
4.78362
5.5455
6.31611
7.11431
7.90408
8.53545
9.11892
9.74327
10.4354
10.8588
11.1756
11.1868
11.2504
11.0339
10.6614
10.7745
10.595
10.7974
10.0529
9.79688
8.96385
7.8935
7.58433
7.2471
6.56951
6.76198
7.02497
7.58289
7.28628
6.05535
5.66861
7.35274
8.33239
7.68226
6.80419
6.20034
6.0604
6.18191
6.83631
7.78374
8.3596
-0.0455609
-0.0363569
-0.151513
-0.239446
-0.346512
-0.457618
-0.580589
-0.712243
-0.855426
-1.00673
-1.16748
-1.3341
-1.50576
-1.6766
-1.84332
-2.00287
-2.15258
-2.27897
-2.37975
-2.45721
-2.51436
-2.54347
-2.53273
-2.4729
-2.3546
-2.18216
-1.96324
-1.6999
-1.36528
-0.971697
-0.515499
-0.0185505
0.54547
1.16246
1.83269
2.54352
3.30239
4.10365
4.93066
5.71842
6.50707
7.32087
8.1233
8.77309
9.36546
10.0099
10.7135
11.135
11.4337
11.4558
11.507
11.2738
10.9199
11.0268
10.8613
11.0267
10.2856
10.0011
9.15539
8.03565
7.69207
7.3222
6.64829
6.75288
6.85852
7.38134
7.19322
6.09115
5.70571
7.26064
8.24558
7.77052
6.95359
6.42707
6.30717
6.47228
7.0694
8.04946
8.68348
-0.0462218
-0.0384925
-0.153573
-0.242443
-0.350842
-0.463913
-0.589425
-0.724155
-0.870906
-1.02614
-1.19109
-1.36192
-1.53762
-1.71213
-1.88211
-2.04428
-2.19588
-2.32336
-2.4243
-2.5007
-2.55528
-2.58056
-2.56708
-2.50598
-2.38505
-2.2077
-1.9801
-1.70913
-1.36947
-0.968589
-0.500643
0.0124787
0.591118
1.21978
1.90383
2.63474
3.41446
4.22932
5.07106
5.88489
6.69934
7.52858
8.34119
9.00928
9.61287
10.2739
10.9858
11.4114
11.6922
11.7188
11.7616
11.5109
11.175
11.2763
11.1153
11.2388
10.5063
10.1922
9.34445
8.18514
7.80145
7.40123
6.72345
6.74331
6.69525
7.18403
7.08909
6.14226
5.77149
7.19072
8.14862
7.83246
7.0676
6.63786
6.54754
6.7627
7.29116
8.31411
9.00212
-0.0469057
-0.0405273
-0.155424
-0.245161
-0.354816
-0.469791
-0.597789
-0.735554
-0.885837
-1.04498
-1.2141
-1.38915
-1.56895
-1.74725
-1.92069
-2.0856
-2.23909
-2.36779
-2.4691
-2.54457
-2.59649
-2.61756
-2.60142
-2.53902
-2.41543
-2.23298
-1.99626
-1.71766
-1.37292
-0.965303
-0.486564
0.0435727
0.638347
1.27869
1.97708
2.72876
3.53037
4.35858
5.21416
6.05358
6.89831
7.74344
8.565
9.24968
9.87142
10.5477
11.2646
11.699
11.9609
11.987
12.0213
11.7531
11.4357
11.5293
11.3648
11.4404
10.719
10.3746
9.53441
8.3447
7.9146
7.49041
6.80429
6.73366
6.53402
6.99385
6.98496
6.21074
5.85667
7.1368
8.05633
7.86098
7.14869
6.83423
6.78178
7.03076
7.50059
8.56497
9.32219
-0.0474896
-0.0421608
-0.156678
-0.247115
-0.357875
-0.474618
-0.604969
-0.745636
-0.89932
-1.06226
-1.23544
-1.41463
-1.59846
-1.78055
-1.95745
-2.12526
-2.28095
-2.41105
-2.51284
-2.58756
-2.63722
-2.65433
-2.63561
-2.57175
-2.44612
-2.25937
-2.01463
-1.72791
-1.37673
-0.963021
-0.474119
0.0729949
0.684045
1.33585
2.0476
2.8184
3.64215
4.4855
5.35378
6.21662
7.09391
7.95696
8.78621
9.48593
10.1334
10.8238
11.5421
11.9858
12.2324
12.2538
12.2755
11.9945
11.6928
11.776
11.6011
11.6243
10.9151
10.5441
9.72391
8.51381
8.0305
7.59319
6.89323
6.72838
6.38261
6.81897
6.88752
6.29673
5.96592
7.09901
7.97791
7.8606
7.2161
7.02047
7.01104
7.28276
7.7072
8.80942
9.64774
-0.0480742
-0.0436135
-0.157632
-0.248677
-0.360446
-0.478873
-0.611495
-0.754994
-0.912014
-1.07868
-1.25588
-1.43918
-1.62709
-1.81306
-1.9936
-2.16444
-2.32237
-2.4541
-2.55673
-2.631
-2.67847
-2.69196
-2.67018
-2.60423
-2.47689
-2.28649
-2.03465
-1.73845
-1.37969
-0.960001
-0.461221
0.101622
0.729189
1.39467
2.11974
2.90794
3.75415
4.61652
5.49671
6.37958
7.28888
8.1758
9.01433
9.72922
10.4046
11.1093
11.8255
12.2754
12.5127
12.5258
12.5282
12.2437
11.9543
12.0215
11.8327
11.7971
11.0989
10.7051
9.91408
8.69052
8.14782
7.72238
7.00623
6.72606
6.23587
6.66305
6.80286
6.39737
6.09597
7.08697
7.90978
7.83271
7.27434
7.192
7.22967
7.52066
7.91417
9.04938
9.95838
-0.0485426
-0.0446175
-0.157949
-0.249431
-0.36205
-0.482016
-0.616761
-0.762942
-0.923146
-1.0934
-1.27449
-1.46179
-1.65368
-1.84348
-2.02762
-2.20159
-2.36204
-2.4956
-2.59927
-2.67347
-2.71945
-2.72995
-2.7044
-2.63587
-2.50721
-2.31386
-2.05585
-1.74979
-1.38317
-0.958274
-0.451066
0.125496
0.771022
1.45211
2.18969
2.99418
3.86301
4.74573
5.63696
6.53758
7.47749
8.39171
9.23925
9.9683
10.6719
11.3948
12.1064
12.5581
12.7956
12.7992
12.7792
12.4978
12.2168
12.263
12.0553
11.9579
11.2675
10.8559
10.1047
8.87164
8.26469
7.87758
7.14519
6.72413
6.10077
6.53391
6.73324
6.51384
6.24987
7.10435
7.85132
7.78663
7.32212
7.35192
7.4393
7.75178
8.1262
9.27888
10.2505
-0.0489869
-0.0453602
-0.157868
-0.249669
-0.36302
-0.484413
-0.621169
-0.769928
-0.933212
-1.10696
-1.29185
-1.4831
-1.67897
-1.87264
-2.06051
-2.23767
-2.40062
-2.53616
-2.64109
-2.7154
-2.75992
-2.76766
-2.73793
-2.66655
-2.53638
-2.34003
-2.07593
-1.75976
-1.38537
-0.954908
-0.439622
0.149631
0.813455
1.5115
2.26257
3.08355
3.97423
4.878
5.78268
6.70049
7.66764
8.61029
9.46908
10.2119
10.9425
11.6892
12.3949
12.8442
13.0852
13.0804
13.0375
12.7603
12.4878
12.5073
12.2744
12.1137
11.4277
11.0013
10.3004
9.0559
8.37476
8.04966
7.28656
6.71153
5.97379
6.42967
6.68015
6.6435
6.42438
7.14631
7.79889
7.72445
7.35334
7.49667
7.63783
7.9751
8.3385
9.50328
10.5356
-0.0492975
-0.0456111
-0.157117
-0.24906
-0.362978
-0.48564
-0.624244
-0.775412
-0.941602
-1.11868
-1.3072
-1.50225
-1.70198
-1.89944
-2.09097
-2.27139
-2.43705
-2.57466
-2.68092
-2.75547
-2.7989
-2.80415
-2.77012
-2.69611
-2.56464
-2.36573
-2.09608
-1.77043
-1.3882
-0.951706
-0.428879
0.172498
0.854511
1.56882
2.33307
3.16947
4.07997
5.0051
5.92675
6.86101
7.85136
8.82151
9.69611
10.4539
11.2113
11.9831
12.6818
13.1237
13.3685
13.3612
13.2962
13.0212
12.7617
12.7486
12.481
12.263
11.5747
11.1339
10.4985
9.23893
8.47125
8.20231
7.40387
6.69381
5.86013
6.34949
6.64301
6.78956
6.6217
7.21376
7.75314
7.65502
7.37086
7.62359
7.83199
8.19363
8.5543
9.72919
10.7976
-0.0495635
-0.0455365
-0.155897
-0.247844
-0.362191
-0.48599
-0.626303
-0.779744
-0.948705
-1.12897
-1.32101
-1.51978
-1.72332
-1.92458
-2.11985
-2.30358
-2.47194
-2.61177
-2.71957
-2.7945
-2.83671
-2.83944
-2.80121
-2.72453
-2.59132
-2.39007
-2.11533
-1.78108
-1.39018
-0.946363
-0.416194
0.196713
0.895513
1.62687
2.40633