/*--------------------------------*- C++ -*----------------------------------*\
| =========                 |                                                 |
| \\      /  F ield         | OpenFOAM: The Open Source CFD Toolbox           |
|  \\    /   O peration     | Version:  4.1                                   |
|   \\  /    A nd           | Web:      www.OpenFOAM.org                      |
|    \\/     M anipulation  |                                                 |
\*---------------------------------------------------------------------------*/
FoamFile
{
    version     2.0;
    format      ascii;
    class       surfaceScalarField;
    location    "2";
    object      phi;
}
// * * * * * * * * * * * * * * * * * * * * * * * * * * * * * * * * * * * * * //

dimensions      [0 3 -1 0 0 0 0];

internalField   nonuniform List<scalar> 
13220
(
-945.392
2247.67
-1564.93
1922.2
-2040.38
1777.43
-2406.88
1668.64
-2679.8
1574.97
-2865.57
1487.64
-2967.95
1403.78
-2986.57
1320.48
-2921.14
1235.56
-2767.78
1147.84
-2521.62
1054.75
-2163.04
942.51
-1657.37
795.464
-984.86
628.893
315.091
368.452
1890.75
449.866
1855.45
450.202
1790.6
423.777
1710.16
399.027
1612.6
381.835
1519.18
368.065
1429.35
361.208
1339.16
355.657
1250.48
347.015
1165.81
321.118
1085.03
276.128
998.026
197.486
883.734
115.915
719.555
431.15
12.0798
1875.26
-114.909
1978.61
-284.819
1955.51
-414.69
1836.69
-527.071
1721.38
-631.041
1620.53
-726.747
1521.66
-811.858
1422.12
-886.672
1322.57
-946.307
1226.46
-995.086
1127.17
-969.346
987.16
-817.125
741.53
-446.967
360.411
-16.1922
4.50149
1852.19
-150.183
2109.82
-296.355
2084
-395.83
1913.87
-471.998
1780.92
-537.874
1665.85
-578.182
1547.55
-601.71
1428.7
-603.459
1312.4
-591.612
1197.91
-537.035
1070.93
-467.728
881.304
-328.889
558.54
-146.981
133.092
-163.326
152.071
1690.22
105.81
2142.34
76.186
2103.27
68.1241
1906.91
68.6481
1769.33
70.5791
1649.07
84.0357
1524.26
100.909
1398.67
128.097
1277.41
155.826
1159.65
192.869
1029.94
214.454
845.722
199.025
552.055
108.632
202.648
-54.6706
210.799
1478.38
224.648
2128.92
220.187
2104.28
231.936
1895.27
240.489
1756.48
252.718
1637.37
258.88
1512.97
268.714
1389.95
269.374
1271.64
271.336
1158.2
260.62
1036.68
239.492
870.478
179.881
614.64
74.5276
310.469
19.6838
222.378
1257.19
269.378
2086.32
256.693
2117.83
247.941
1909.02
239.957
1764.63
236.278
1646.09
227.23
1521.66
222.598
1399.21
211.937
1282.61
200.109
1169.86
190.67
1050.59
151.686
891.944
94.9476
650.848
35.9392
350.038
55.8004
211.557
1043.38
277.023
2019.26
255.981
2136.69
222.816
1940.97
200.398
1786.65
181.879
1663.89
164.831
1539.6
146.145
1417.04
128.367
1300.21
112.881
1187.9
90.2512
1069.14
86.8083
915.11
73.5316
685.433
47.9734
395.047
103.601
189.986
847.874
272.405
1931.28
256.693
2149.1
216.649
1975.05
190.223
1808.96
169.86
1677.95
155.082
1551.18
138.03
1428.43
126.578
1309.72
112.734
1194.89
107.319
1075.09
82.2673
921.316
50.7026
696.203
17.7449
408.908
121.467
154.535
688.987
245.297
1835.3
238.226
2152.11
198.729
2008.83
172.742
1831.25
153.215
1691.79
137.598
1562.81
121.284
1439.89
106.121
1321.34
94.9547
1205.42
79.6662
1085.76
77.5612
936.824
66.4626
721.743
40.2117
448.342
161.602
113.58
574.379
204.469
1743.58
213.888
2143.88
186.078
2036.55
168.986
1850.65
159.405
1702.05
153.323
1572.82
144.661
1450.33
139.989
1331.31
130.926
1215.11
132.068
1095.22
106.277
948.856
75.7173
743.578
33.4997
482.884
195.405
79.8882
497.732
162.994
1663.55
180.092
2128.72
158.052
2062.81
136.999
1877.12
126.141
1719.58
118.964
1587.78
110.307
1466.63
101.467
1347.7
96.5741
1231.77
78.32
1114.3
86.4493
974.567
81.5578
783.216
55.5355
540.45
250.864
69.9755
437.842
195.521
1545.8
245.863
2085.67
249.374
2065.99
254.578
1879.63
261.526
1719.29
263.051
1593.1
257.069
1478.52
245.742
1365.39
227.753
1252.43
212.988
1138.48
170.553
1005.35
120.568
825.102
57.0012
596.954
308.109
112.261
334.717
207.323
1458.23
239.23
2059.09
190.601
2121.19
123.836
1952.94
77.6994
1773.08
56.1145
1622.02
49.9258
1492.26
51.2631
1370.17
59.0305
1254.96
55.8924
1142.16
71.0224
1017.85
66.2899
857.424
46.8315
641.282
355.016
-194.36
234.273
811.24
1240.83
1448.86
1527.35
1492.82
1409.72
1275.56
1119.83
943.214
746.864
533.086
273.494
2.12738
724.417
-722.119
729.58
731.425
735.011
1365.8
-631.214
1370.26
1370.93
1375.17
1863.17
-486.182
1868.41
1869.2
2224.09
-351.505
2225.24
2229.11
2228.78
2456.83
-225.469
2457.66
2460.37
2583.49
-123.063
2586.76
2587.85
2590.18
2603.57
-12.9281
2606.42
2607.51
2609.74
2540.84
71.3123
2544.42
2545.92
2407.86
140.226
2409.85
2413.1
2413.51
2216.23
199.556
2217.13
2219.7
1981.66
237.609
1985.18
1985.4
1988.19
1726.91
260.207
1730.65
1730.42
1733.7
1497.21
237.629
1501.59
1501.65
1354.55
149.847
1353.73
1356.33
1354.49
1167.59
189.298
1165.12
1167.17
1164.06
861.008
304.215
858.713
860.093
433.87
424.569
434.476
433.484
434.29
-45.732
478.821
-45.592
-46.0594
-1012.95
966.971
-1011.79
-1011.22
-1010.72
-2542.8
1531.9
-2542.67
-2542.96
-2542.57
-4463.43
1920.19
-4463.09
-4464.34
-6660.71
2196.83
-6662.12
-6661.35
-6554.26
-6438.47
-6311.53
-8583.07
2395.47
-8468.28
-8324.66
-8155.7
-7981.4
-7807.04
-7639.71
-7466.42
-7268.55
-9611.34
2540.69
-9402.24
-9197.98
-8995.61
-8770.95
-8543.31
-8314.37
-8085.43
-7855.74
-10204.8
2583.8
-9955.82
-9706.53
-9457.21
-9209.57
-8956.41
-8692.12
-8424.81
-8155.74
-7887.37
-10132.2
2502.95
-9850.57
-9567.57
-9283.46
-9001.86
-8720.69
-8426.24
-8122.62
-7820.99
-9769.52
2236.8
-9477.65
-9178.9
-8868.51
-8557.07
-8246.09
-7934.52
-7623.71
-7296.26
-8772.39
1792.49
-8454.09
-8137.87
-7824.03
-7497.05
-7163.54
-6830.02
-6499.18
-6176.81
-6964.08
1107.37
-6641.36
-6321.45
-6004.9
-5690.81
-5383.04
-5089.01
-4800.5
-4520.33
-4251.06
-4042.44
64.6278
-3819.54
-3618.64
-3426.47
-3233.45
-3043.74
-2878.61
-2782.6
-2684.37
-2194.94
-380.28
-2101.53
-2006.79
-2006.84
-1751.87
-258.487
-1501.24
-249.55
-1503.67
-1287.73
-214.571
-1290.28
-1108.56
-180.906
-960.457
-152.832
-958.667
-836.266
-127.78
-722.198
-112.445
-725.52
-607.545
-116.228
-612.247
-514.136
-95.949
-428.577
-91.7748
-427.749
-326.985
-108.249
-325.02
-224.893
-109.295
-119.344
-102.004
-127.549
-44.6058
-79.3874
11.1483
-67.4044
15.8283
76.6986
-72.5118
83.029
139.835
-67.2159
203.935
-53.4238
194.674
260.633
-51.405
252.89
324.954
-55.3068
368.711
-53.6074
383.634
441.531
-63.1199
515.792
-61.1042
514.51
593.062
-68.4345
592.308
670.145
-68.4407
731.145
-61.0136
736.813
802.704
-65.4489
807.751
872.696
-63.2094
938.865
-62.4678
940.737
1005.48
-62.006
1067.31
-59.6046
1069.32
1126.21
-54.8459
1128.08
1180.87
-51.2601
1231.72
-49.3389
1231.9
1288.14
-55.1718
1289
1339.06
-49.0935
1387.55
-46.623
1388.47
1443.03
-52.8495
1495.72
-52.1084
1496.23
1548.05
-51.9008
1549.29
1598.47
-49.7107
1648.03
-47.2347
1647.7
1710.07
-60.491
1709.56
1768.01
-57.4628
1823.63
-56.8579
1825.1
1893.44
-69.5342
1970.99
-74.5281
1970.63
2054.26
-82.8874
2054.48
-93.7943
-888.79
1009.56
-878.471
980.426
-868.965
960.867
-858.2
936.591
-847.874
910.795
-838.387
882.74
-828.135
845.288
-815.687
800.121
-802.087
752.035
-789.492
702.659
-777.837
646.185
-764.09
574.098
-746.253
491.109
-726.993
407.655
-710.017
325.556
-693.856
235.418
-673.208
137.927
-647.524
67.6833
-622.124
49.8645
-598.572
60.0863
-575.002
74.3894
-553.462
96.8531
-537.75
127.11
-526.189
148.764
-513.438
164.333
-496.494
182.458
-474.251
178.804
-446.043
114.645
-422.12
148.366
-410.529
253.236
-402.656
397.774
-390.73
495.375
-386.889
533.343
-395.65
654.7
-395.641
800.221
-361.598
893.436
-298.602
886.246
-259.318
833.558
-286.683
902.578
-329.831
1251.66
-311.506
1440.83
-217.74
1298.12
-130.894
1088.21
-164.994
1188.92
-246.54
1843.25
-250.865
2489.8
-176.802
2241.85
-18.6017
1860.75
112.482
1576.48
138.256
500.254
129.973
-374.808
83.4782
-1104.43
-11.9625
-1492.77
-72.3129
1695.66
-15.3247
5639.06
13.0046
3508.71
-46.8188
-173.352
-10.4231
1464.46
37.0737
-441.842
16.7194
-1141.58
-30.9684
-1008.36
-65.6084
-638.617
-79.6928
-218.226
-43.8727
616.569
54.9231
1473.13
188.024
1979.22
265.746
2204.57
258.457
1838.2
202.557
1361.05
145.663
307.814
145.734
501.392
201.551
482.006
220.76
143.662
178.157
-114.355
150.006
-358.39
169.191
-749.322
165.489
-1191.93
133.948
-1567.26
-1833.07
-884.726
1001.14
-874.986
970.511
-864.727
950.414
-854.308
925.873
-844.261
900.365
-833.561
871.541
-821.348
832.427
-807.858
785.849
-794.311
737.555
-780.686
687.969
-764.911
629.187
-745.544
553.368
-723.64
467.54
-701.237
383.452
-678.146
300.469
-652.058
207.234
-624.821
108.01
-600.115
40.123
-578.86
25.5635
-559.371
37.4757
-542.302
54.0391
-528.687
79.843
-516.224
111.417
-502.435
131.754
-485.366
143.967
-461.805
155.723
-431.152
145.155
-409.976
90.3876
-403.937
138.369
-411.622
257.105
-404.582
388.459
-388.426
477.234
-391.643
534.454
-400.825
661.987
-390.839
788.617
-346.926
848.012
-285.794
824.023
-259.751
806.349
-301.721
943.295
-331.752
1280.8
-296.146
1404.84
-204.76
1206.18
-135.635
1019.68
-175.516
1229.54
-251.555
1919.3
-241.463
2479.83
-164.068
2164.51
-18.8444
1715.9
103.482
1454.58
130.42
474.656
118.463
-362.277
76.2283
-1061.88
-18.8053
-1396.77
-61.2329
1738.7
-15.4532
5593.08
18.286
3474.81
-49.2396
-107.898
2.7664
1412.37
34.2278
-474.7
-3.20167
-1104.36
-50.879
-958.267
-78.3471
-605.999
-94.5854
-193.452
-56.7482
587.005
55.5085
1368.19
183.633
1855.76
264.36
2127.8
268.987
1837.54
243.389
1389.26
103.248
450.723
135.01
477.782
190.402
434.922
186.598
148.449
138.809
-66.5858
139.294
-359.026
170.529
-781.045
157.662
-1179.66
117.013
-1527.25
-1800.72
-878.203
992.495
-868.235
960.463
-858.036
940.159
-848.017
915.769
-837.838
890.104
-825.892
859.511
-812.291
818.728
-798.353
771.832
-784.616
723.747
-769.1
672.425
-749.229
609.311
-725.492
529.684
-700.581
442.607
-674.849
357.776
-645.519
271.218
-611.919
173.825
-580.856
76.8892
-557.464
16.8434
-539.8
8.15432
-524.978
23.01
-513.761
43.1495
-504.358
70.7447
-491.904
99.336
-474.978
115.147
-453.914
123.092
-427.276
129.178
-398.501
116.362
-388.539
80.3225
-394.804
145.142
-404.529
266.854
-398.838
382.948
-389.425
467.703
-397.169
541.92
-400.702
665.347
-378.135
765.895
-326.418
795.987
-273.681
771.334
-267.07
799.82
-314.081
990.256
-331.073
1297.72
-279.443
1353.31
-187.544
1114.22
-137.632
970.807
-188.153
1280.77
-257.204
1988.35
-237.302
2460.05
-155.077
2082.45
-17.3634
1578.67
97.5929
1339.73
124.969
447.329
112.889
-351.904
74.2409
-1024.06
-11.3978
-1311.78
-57.6527
1784.82
-15.0466
5550.24
17.7783
3441.75
-50.1012
-38.3548
2.30359
1360.28
28.1011
-499.491
-18.4282
-1058.38
-65.4015
-913.768
-90.1058
-587.801
-97.6541
-196.957
-57.3144
543.419
53.0889
1258.83
177.588
1731.52
260.73
2045.35
273.924
1824.73
247.755
1414.55
115.833
580.177
120.319
477.389
154.499
406.569
143.003
156.729
120.359
-45.1749
145.882
-384.348
173.462
-808.009
152.269
-1157.64
112.772
-1486.22
-1759.9
-871.212
983.703
-861.034
950.203
-851.02
930.066
-841.091
905.686
-830.15
878.951
-816.901
845.963
-802.508
803.91
-788.348
757.133
-773.531
708.254
-755.045
653.144
-731.363
584.685
-704.812
502.069
-677.823
414.287
-648.402
326.934
-613.521
234.752
-575.853
134.51
-544.868
43.6952
-524.264
-6.14217
-510.191
-8.54625
-499.639
9.69949
-491.564
32.1327
-482.046
58.1854
-466.972
81.3667
-447.486
92.7495
-425.316
97.945
-400.39
101.367
-378.455
91.6568
-377.98
76.9965
-389.958
153.803
-399.327
273.271
-396.762
378.648
-393.856
463.228
-400.98
547.483
-394.431
657.416
-359.869
730.099
-305.695
740.551
-266.677
731.447
-278.111
810.369
-324.698
1035.92
-326.363
1298.55
-260.673
1287.11
-171.686
1024.41
-141.078
940.447
-200.682
1340.57
-261.969
2049.25
-233.383
2431.26
-146.984
1995.86
-16.1448
1447.79
92.3897
1231.21
120.021
420.118
107.755
-339.77
71.2251
-987.374
-5.35041
-1234.05
-55.0161
1835.15
-14.6024
5509.66
15.7105
3411.33
-49.7826
25.0883
-2.10043
1312.54
21.5708
-524.536
-32.7694
-1004.52
-79.3688
-865.137
-100.428
-562.741
-100.293
-190.922
-58.1448
508.741
50.0358
1158.12
170.283
1615.56
256.635
1962.43
277.634
1807.09
258.572
1435.68
134.835
705.409
111.901
506.717
124.542
401.509
110.979
170.523
117.469
-51.0437
156.54
-422.668
174.563
-825.535
146.067
-1128.8
103.032
-1442.8
-1727.19
-864.159
974.534
-854.028
940.059
-844.144
920.224
-833.816
895.389
-821.75
866.942
-807.547
831.837
-792.852
789.301
-778.158
742.567
-761.288
691.537
-739.51
631.576
-713.086
558.501
-684.903
474.199
-655.596
385.214
-621.647
293.307
-582.046
195.496
-543.084
96.0471
-514.632
15.4733
-498.009
-22.3092
-487.957
-17.9778
-480.46
2.96018
-472.642
25.0449
-460.654
46.8845
-442.982
64.4575
-422.578
73.0514
-401.497
77.4303
-380.685
81.0379
-367.314
78.7141
-375.263
85.4217
-390.736
170.341
-399.462
282.542
-399.486
379.361
-399.32
463.395
-400.133
548.44
-381.565
639.065
-338.326
687.059
-288.099
690.319
-265.907
709.664
-291.502
836.41
-332.22
1076.84
-317.8
1284.21
-240.74
1210.25
-158.314
942.006
-146.67
929.942
-213.093
1407.59
-265.824
2101.93
-229.309
2394.87
-138.673
1905.4
-15.5078
1325.23
87.0956
1128.61
114.645
392.225
102.022
-328.556
68.4708
-954.71
-0.609885
-1165.63
-51.516
1885.82
-14.7916
5472.71
12.6972
3383.67
-48.7519
87.7096
-5.50079
1269.83
12.2667
-541.822
-47.3601
-945.825
-91.7574
-823.207
-108.023
-553.149
-102.858
-207.054
-59.6305
459.857
46.3506
1052.15
162.404
1498.87
251.708
1873.04
280.343
1777.99
269.198
1445.23
160.263
811.421
119.024
550.777
113.235
411.581
102.738
176.978
129.043
-78.9834
169.303
-462.992
174.82
-830.796
140.679
-1094.18
103.014
-1403.72
-1678.69
-856.943
964.771
-847.009
930.016
-837.007
910.125
-825.884
884.11
-812.742
853.613
-798.076
816.925
-783.218
774.106
-767.392
726.326
-747.953
671.583
-723.445
606.472
-695.468
529.815
-665.872
443.827
-633.122
351.468
-594.032
253.179
-551.184
151.455
-513.645
57.2679
-489.873
-10.1238
-478.168
-35.9808
-471.617
-26.738
-465.027
-5.94106
-455.393
12.9429
-440.713
29.6413
-421.818
43.099
-402.06
50.7552
-383.551
56.2514
-368.725
63.5353
-365.266
72.6197
-380.47
98.0115
-396.86
183.948
-403.996
287.256
-404.065
377.982
-401.638
459.622
-392.508
537.999
-362.914
608.287
-316.273
639.327
-275.866
648.74
-271.104
704.147
-305.397
869.949
-335.955
1106.61
-305.586
1253
-220.569
1124.6
-147.984
868.38
-154.016
936.066
-224.835
1478.4
-268.882
2145.44
-225.179
2350.81
-130.386
1810.25
-15.2151
1209.64
81.6771
1031.37
108.345
364.836
95.8764
-316.749
65.6266
-924.473
3.02633
-1101.9
-47.6572
1937.04
-15.3446
5440.23
9.3635
3358.78
-48.0055
142.407
-7.03909
1228.74
-0.00181022
-550.825
-62.6113
-884.205
-103.68
-780.781
-117.048
-537.34
-108.802
-211.588
-62.4426
419.491
41.8984
955.063
154.422
1390.29
246.154
1784.54
282.184
1745.1
277.828
1451.32
188.972
901.287
139.906
604.766
124.965
432.623
118.46
184.204
150.012
-108.696
182.338
-493.361
174.573
-821.346
136.376
-1054.5
99.1374
-1365
-1636.81
-849.545
954.379
-839.72
920.184
-829.274
899.742
-817.213
872.102
-803.331
839.818
-788.534
802.238
-773.261
758.957
-755.751
708.984
-733.852
649.88
-707.532
580.409
-678.492
501.069
-646.591
412.302
-609.159
314.326
-565.442
209.863
-522.033
108.496
-488.93
24.8554
-471.391
-27.266
-464.2
-42.4823
-459.235
-30.826
-451.419
-12.7115
-439.209
1.73995
-422.85
14.2167
-404.386
25.6775
-386.891
34.2627
-372.981
43.1983
-366.361
57.7253
-372.49
79.5875
-391.27
117.766
-405.293
199.275
-409.23
291.933
-406.185
375.877
-397.45
451.44
-377.775
518.611
-340.72
571.57
-296.645
595.583
-270.122
622.335
-281.028
715.633
-318.203
907.712
-335.641
1124.31
-290.12
1207.61
-200.876
1035.64
-140.839
808.441
-162.83
959.258
-235.718
1551.86
-271.28
2180.96
-220.867
2300.53
-122.209
1711.76
-14.8889
1102.93
75.9453
940.422
100.99
339.04
89.3109
-306.174
63.2096
-899.226
6.02331
-1045.19
-44.2237
1987.04
-15.8142
5411.6
6.22118
3336.55
-47.9637
198.141
-7.91056
1189.44
-14.4118
-544.049
-78.3998
-821.347
-116.793
-744.382
-128.251
-531.695
-116.824
-232.578
-66.7066
362.556
36.6614
851.477
146.089
1279.82
239.999
1690.19
282.878
1701.34
285.14
1447.12
216.032
967.315
167.696
655.168
150.995
452.17
146.57
183.965
174.364
-138.674
194.27
-513.825
174.119
-801.475
133.626
-1014.05
94.5763
-1324.9
-1600.88
-841.923
943.482
-831.962
910.102
-820.834
888.518
-807.955
859.09
-793.725
825.451
-778.838
787.187
-762.703
742.606
-743.265
689.296
-719.405
625.712
-691.868
552.53
-661.252
470.04
-625.641
376.262
-583.171
271.235
-536.95
162.999
-496.546
67.2724
-470.27
-2.28321
-458.807
-40.2171
-454.135
-48.719
-448.502
-38.2321
-438.379
-24.6713
-424.196
-14.4248
-407.855
-4.21441
-391.689
7.49183
-378.495
18.9191
-371.337
33.6624
-373.239
57.1806
-385.199
89.2221
-402.545
132.99
-411.688
206.202
-410.767
289.029
-402.096
366.034
-385.424
433.658
-357.414
489.523
-318.055
531.218
-281.905
558.526
-270.938
610.396
-293.895
738.035
-328.692
941.913
-331.151
1126.12
-272.003
1147.65
-182.272
945.258
-136.853
761.931
-172.84
995.368
-245.789
1624.8
-273.002
2207.64
-216.099
2243.24
-114.092
1609.28
-14.5157
1002.71
69.5805
855.852
92.7274
314.266
82.5788
-296.891
61.7485
-878.531
8.67691
-991.191
-41.4365
2037.5
-16.0615
5386.01
3.75178
3316.58
-49.0029
247.271
-8.70395
1149.06
-29.5359
-525.617
-94.6314
-757.911
-131.364
-707.053
-140.918
-521.346
-125.688
-246.436
-71.8269
312.715
30.6181
755.939
137.178
1176.76
233.219
1597.15
282.476
1655.02
291.35
1439.6
239.443
1019.89
196.852
701.736
182.174
472.008
178.463
189.012
198.246
-155.689
204.404
-517.03
173.796
-768.212
132.652
-970.504
98.6941
-1288.57
-1548.41
-833.94
932.457
-823.595
899.745
-811.72
876.711
-798.3
845.731
-783.975
811.225
-768.784
772.124
-751.392
725.36
-730.11
668.205
-704.774
600.596
-675.925
523.968
-642.588
437.027
-602.339
336.43
-556.015
225.231
-510.653
118.1
-476.417
33.5776
-457.484
-20.3426
-450.156
-46.9992
-445.636
-52.346
-438.064
-44.7344
-425.966
-35.5222
-411.421
-27.764
-397.087
-17.4076
-384.971
-3.31408
-377.479
12.7071
-377.106
34.4184
-384.403
65.5971
-396.824
102.823
-408.975
146.407
-411.813
210.366
-405.067
283.07
-389.967
352.022
-366.45
410.831
-334.263
457.704
-298.056
495.422
-273.623
534.516
-277.569
614.546
-307.904
769.012
-335.911
970.535
-322.512
1112.96
-251.941
1077.19
-165.365
859.036
-135.905
732.651
-183.753
1044.4
-255.089
1696.69
-273.921
2226.46
-210.652
2180.14
-106.173
1504.97
-14.2646
911.441
62.3285
779.061
83.7578
291.593
75.9679
-290.069
60.9785
-864.393
10.857
-941.601
-39.2767
2087.33
-16.1609
5362.68
2.20235
3298.02
-50.6251
301.753
-10.2851
1109.57
-44.5063
-491.207
-110.737
-692.903
-146.268
-672.976
-153.796
-518.722
-135.101
-273.867
-77.913
247.214
23.562
654.097
127.692
1071.21
225.819
1498.27
280.915
1598.73
296.169
1422.15
258.925
1053.98
224.181
738.153
211.83
486.397
208.111
187.726
219.545
-169.637
212.635
-511.065
173.835
-730.177
132.78
-929.922
98.2126
-1253.17
-1498.28
-825.434
921.5
-814.552
888.788
-802.027
864.158
-788.349
832.009
-773.954
796.81
-758.114
756.269
-739.245
706.456
-716.348
645.276
-689.676
573.864
-658.82
493.049
-621.694
399.781
-577.064
291.677
-529.462
177.28
-488.397
76.633
-461.779
6.30452
-448.69
-34.1609
-442.974
-54.136
-437.108
-59.6769
-427.632
-55.8817
-414.851
-50.0234
-401.761
-42.7435
-390.842
-30.3543
-383.298
-12.8157
-380.781
8.09589
-384.436
35.7388
-392.567
71.3589
-401.363
109.492
-406.616
149.809
-402.948
204.736
-390.701
269.022
-370.435
330.747
-343.245
382.7
-311.752
425.343
-283.273
466.183
-272.318
522.928
-288.655
630.213
-321.387
801.429
-339.141
987.876
-309.916
1083.24
-230.715
997.241
-150.74
778.495
-137.757
718.768
-195.278
1102.2
-263.564
1765.06
-273.909
2236.35
-204.467
2110.4
-98.6776
1398.74
-14.2685
826.394
54.388
709.988
74.2473
270.104
69.9858
-286.401
60.5209
-855.151
12.5461
-893
-37.6319
2137.65
-16.234
5340.99
1.46754
3280.14
-53.0616
350.274
-13.8036
1070.39
-60.2803
-447.352
-126.575
-629.141
-161.372
-638.472
-167.357
-513.837
-146.212
-296.428
-85.4619
187.707
15.4085
559.988
117.856
971.857
217.81
1401.04
278.183
1541.04
299.451
1401.94
274.734
1079.25
248.029
768.454
238.548
500.781
234.445
193.992
237.423
-168.814
218.998
-488.632
174.206
-681.849
133.597
-886.109
96.1559
-1212.55
-1452.25
-816.298
910.697
-804.84
877.307
-791.85
851.233
-778.078
818.291
-763.43
782.252
-746.595
739.547
-726.198
686.184
-701.853
621.095
-673.565
545.761
-639.827
459.563
-598.549
358.793
-551.067
244.589
-505.294
131.795
-470.759
42.5828
-451.095
-12.7598
-441.343
-42.8974
-435.322
-59.51
-427.696
-66.2832
-417.031
-65.3591
-404.79
-60.8846
-394.058
-52.0969
-386.441
-36.6266
-382.173
-15.5008
-382.148
9.62764
-386.384
41.3282
-392.081
78.425
-395.478
114.303
-393.929
149.727
-384.822
196.943
-368.845
253.852
-346.261
309.43
-319.482
356.77
-293.096
399.404
-275.32
448.857
-277.591
525.655
-302.539
655.404
-332.876
832.405
-337.864
993.46
-293.737
1039.33
-209.153
912.754
-138.891
708.725
-142.119
722.27
-207.119
1168.3
-271.143
1829.6
-272.93
2238.13
-197.576
2035.19
-91.6663
1292.93
-14.2993
749.495
45.9549
649.623
64.005
250.215
65.0833
-288.371
60.4579
-851.274
14.1171
-846.927
-36.4304
2187.94
-16.3648
5320.72
1.20242
3262.28
-55.8217
410.957
-19.8213
1035.28
-76.5353
-390.373
-141.898
-564.958
-176.271
-604.631
-181.241
-512.14
-159.351
-325.279
-95.4878
114.765
6.12011
458.624
107.944
868.655
209.235
1299
274.215
1474.82
301.088
1372.76
287.063
1090
267.789
789.011
260.534
509.373
255.526
193.353
251.462
-167.959
223.589
-462.207
174.637
-634.18
134.657
-847.015
97.9662
-1175.36
-1405.32
-806.487
899.874
-794.501
865.3
-781.229
838.001
-767.351
804.45
-752.137
767.119
-734.05
721.563
-712.162
664.396
-686.338
595.392
-655.885
515.414
-618.636
422.425
-573.761
313.962
-525.706
196.563
-484.284
90.1131
-456.605
14.553
-441.73
-28.3128
-432.893
-52.5068
-425.466
-68.437
-416.12
-77.15
-404.793
-78.3994
-393.444
-74.0181
-384.62
-62.9452
-378.895
-44.5383
-375.847
-20.6444
-375.952
7.50261
-378.585
41.5651
-380.591
78.0736
-378.714
110.364
-371.907
141.131
-359.699
182.784
-342.833
235.175
-321.415
287.075
-298.859
333.356
-280.734
380.571
-274.791
442.365
-288.293
538.776
-317.353
684.062
-341.073
856
-331.837
983.97
-274.537
981.662
-188.098
825.636
-130.134
650.388
-148.657
740.234
-219.015
1239.09
-277.746
1888.54
-270.972
2231.04
-190.006
1954.06
-85.0322
1187.71
-14.3564
678.416
36.2277
598.631
51.8097
233.722
61.2795
-297.876
60.6167
-850.852
15.6806
-801.756
-35.5848
2239.19
-16.6167
5301.39
1.57364
3244.02
-58.6972
457.998
-25.1386
1001.88
-90.8665
-327.262
-156.226
-502.807
-190.791
-571.034
-196.247
-509.3
-175.101
-350.89
-108.556
45.5666
-4.01143
360.712
98.2261
769.307
200.12
1199.52
269.087
1408.22
301.092
1341.49
296.169
1095.44
283.349
805.263
278.139
519.346
271.874
202.214
261.738
-153.481
226.337
-422.036
174.953
-578.807
135.83
-804.301
95.1083
-1130.95
-1360.76
-796.006
888.788
-783.579
852.853
-770.124
824.619
-755.961
790.351
-739.851
751.112
-720.381
702.215
-697.041
641.182
-669.507
568.012
-636.312
482.382
-595.439
381.782
-548.242
267.021
-501.841
150.533
-465.908
54.4265
-443.725
-7.13787
-431.057
-40.3515
-421.371
-61.0909
-411.921
-77.1919
-400.718
-87.2776
-388.544
-89.3302
-377.439
-83.6183
-369.253
-69.6194
-363.875
-48.4322
-360.647
-22.0969
-359.814
8.43432
-360.331
43.651
-359.056
78.3396
-353.44
106.37
-344.02
133.431
-331.783
171.972
-317.142
221.456
-299.964
271.429
-284.36
318.798
-276.086
372.855
-281.34
448.108
-302.724
560.622
-331.222
712.813
-344.962
870.349
-321.084
960.654
-253.053
913.813
-168.376
741.034
-124.649
607.312
-157.045
772.965
-230.707
1313.71
-283.287
1941.59
-267.993
2215.71
-181.783
1867.93
-78.7471
1084.62
-14.7378
614.635
25.9931
557.888
38.9197
217.478
58.6893
-318.559
60.7414
-853.581
17.0556
-758.171
-35.0629
2291.09
-17.0136
5283.14
0.962282
3225.6
-58.5534
524.37
-28.731
973.004
-101.832
-254.203
-168.271
-437.474
-203.584
-535.176
-210.362
-504.276
-192.574
-373.875
-124.644
-33.6586
-14.67
251.608
88.6112
664.731
190.621
1096.78
262.822
1334.7
299.423
1302.4
302.165
1089.26
294.966
813.349
291.159
523.901
283.331
203.789
268.429
-142.379
227.317
-382.838
175.173
-528.478
137.306
-767.574
99.2839
-1092.53
-1307.16
-784.892
877.194
-772.102
840.066
-758.436
811.023
-743.712
775.708
-726.45
733.99
-705.571
681.512
-680.744
616.538
-651.121
538.603
-614.761
446.222
-570.669
337.901
-522.706
219.186
-479.495
107.425
-448.781
23.4589
-429.998
-26.2915
-417.467
-53.6382
-405.9
-73.5157
-393.973
-90.7392
-380.515
-102.36
-366.913
-104.785
-355.17
-97.3233
-346.599
-80.4132
-340.727
-56.6801
-336.835
-28.2848
-335.102
4.2262
-334.205
40.0562
-331.208
72.6922
-324.353
97.2017
-315.532
122.587
-306.28
160.509
-296.262
209.435
-285.286
259.461
-277.967
310.59
-279.499
373.739
-293.708
461.875
-318.75
585.408
-342.367
736.151
-343.864
871.775
-305.959
922.531
-230.151
837.648
-150.74
660.902
-122.466
578.828
-166.928
817.098
-241.952
1389.2
-287.667
1987.58
-263.982
2191.82
-173.032
1776.95
-72.8819
984.521
-15.6636
557.336
13.6269
527.934
26.6761
203.764
57.6649
-349.294
61.1169
-857.415
18.3116
-715.894
-34.8126
2344.03
-17.5706
5265.5
-1.19076
3209.01
-50.9484
557.262
-29.8679
951.511
-109.67
-177.583
-177.121
-373.447
-213.43
-500.231
-222.414
-498.871
-211.88
-391.439
-143.71
-112.637
-25.3226
139.526
79.0073
563.468
180.894
997.062
255.525
1262.13
296.15
1262.25
305.393
1080.65
302.975
819.267
300.486
531.217
291.112
216.282
271.977
-118.147
226.825
-332.042
175.539
-472.9
138.916
-727.032
99.0243
-1048.32
-1254.37
-773.191
864.963
-760.067
826.911
-746.043
797.062
-730.474
760.18
-711.93
715.519
-689.668
659.327
-663.201
590.136
-631.062
506.546
-591.397
406.633
-544.905
291.552
-497.693
172.133
-458.48
68.5086
-432.129
-2.73478
-415.195
-42.754
-401.965
-66.237
-388.435
-85.8867
-374.198
-104.255
-358.719
-116.723
-343.975
-118.197
-331.732
-107.944
-322.486
-88.0557
-315.484
-62.1112
-310.459
-31.4255
-307.741
3.41367
-306.158
40.2404
-303.431
71.7484
-298.002
93.6739
-292.503
119.113
-288.075
157.598
-283.715
206.067
-279.562
256.978
-280.414
312.578
-290.16
384.09
-309.837
482.015
-334.082
610.072
-349.355
751.667
-337.514
860.528
-287.053
872.621
-206.788
757.603
-135.855
590.135
-123.475
567.332
-177.95
871.984
-252.544
1464.67
-290.838
2026.32
-258.985
2159.91
-163.919
1681.93
-67.3848
887.825
-16.8549
506.823
0.0382482
511.048
22.7409
178.209
57.9451
-385.207
61.8886
-861.872
19.6035
-673.165
-34.8381
2398.34
-18.2013
5248.65
-3.16284
3193.56
-41.7766
604.182
-28.8867
939.716
-114.298
-92.3122
-181.988
-306.972
-219.038
-461.536
-229.773
-488.494
-226.357
-398.394
-161.462
-189.174
-35.7024
15.9704
69.3785
457.407
171.115
894.955
247.267
1184.86
291.347
1215.59
305.997
1062.42
307.709
818.021
306.294
532.849
295.526
220.4
273.026
-100.676
225.555
-287.129
176.168
-425.812
140.528
-692.773
96.8605
-1004.57
-1212.39
-760.951
852.043
-747.446
813.405
-732.85
782.534
-716.228
743.647
-696.383
695.839
-672.72
635.876
-644.318
561.961
-609.284
471.782
-566.523
364.136
-518.799
244.12
-473.794
127.333
-439.133
34.0361
-416.657
-25.4302
-401.186
-58.556
-387.618
-80.553
-372.941
-101.4
-357.459
-121.365
-341.304
-134.486
-326.852
-134.544
-314.789
-121.947
-304.793
-100.216
-296.575
-72.6319
-290.403
-39.8405
-286.848
-2.60493
-284.907
35.5078
-283.493
67.3988
-281.112
88.7822
-280
115.847
-280.473
155.764
-281.406
205.002
-283.492
258.084
-291.04
319.252
-306.09
398.558
-327.126
502.667
-346.585
629.321
-351.188
756.019
-326.032
835.269
-265.204
811.512
-183.947
675.886
-124.241
529.581
-127.421
570.371
-189.766
934.049
-262.34
1537.63
-292.769
2057.05
-253.002
2120.01
-154.547
1583.52
-62.1425
795.709
-17.8549
462.684
-5.90424
498.129
28.7526
143.263
59.1211
-415.514
62.8654
-866.176
20.6678
-632.626
-35.1478
2453.88
-18.8575
5231.98
-3.45845
3177.94
-34.1598
620.491
-25.6446
930.078
-117.211
-6.43553
-182.53
-245.296
-219.507
-425.464
-231.358
-480.198
-225.065
-412.278
-173.215
-254.044
-46.9732
-104.519
59.664
353.385
161.339
795.317
238.279
1109.66
285.139
1168.9
304.254
1043.95
309.466
816.283
309.308
537.796
297.691
235.409
272.094
-68.8673
223.988
-232.683
176.845
-374.488
141.927
-653.818
100.939
-958.685
-1157.19
-748.19
838.508
-734.196
799.379
-718.812
767.215
-701.036
725.909
-679.909
674.775
-654.703
610.723
-623.979
531.26
-585.861
433.692
-540.646
318.933
-493.191
196.743
-451.905
86.1336
-422.484
4.86112
-404.068
-43.754
-390.587
-71.56
-377.701
-92.7939
-363.212
-114.682
-348.195
-135.65
-333.399
-148.084
-320.597
-145.936
-309.416
-131.455
-299.474
-108.527
-290.947
-79.5507
-284.285
-44.5734
-280.176
-4.73762
-277.965
35.2132
-277.551
69.0471
-277.896
91.2981
-280.271
120.462
-284.355
161.427
-289.309
211.008
-295.992
266.432
-307.642
332.034
-324.416
415.944
-342.903
521.571
-354.589
641.382
-347.412
749.075
-309.902
798.361
-241.384
743.565
-162.611
597.414
-116.254
483.561
-133.946
589.152
-202.04
1002.61
-271.19
1607.56
-293.407
2079.67
-245.987
2072.46
-144.985
1482.44
-57.2175
707.449
-18.5201
423.587
-8.44553
487.84
34.1671
98.7345
60.7837
-442.785
63.6494
-869.493
21.0796
-589.388
-35.7776
2510.66
-19.5016
5215.5
-3.44724
3161.5
-27.1448
652.69
-22.2107
926.442
-115.333
85.7801
-177.827
-184.853
-214.155
-386.631
-227.467
-466.062
-218.351
-423.381
-175.369
-303.413
-57.2687
-220.305
49.8196
245.2
151.694
693.368
228.817
1031.6
277.66
1117.31
300.263
1017.55
308.587
807.956
309.652
536.384
297.897
240.183
269.067
-46.5888
221.92
-188.904
177.004
-332.233
142.553
-620.815
101.089
-917.275
-1107.4
-734.907
824.362
-720.278
784.762
-703.952
750.979
-684.996
707.086
-662.538
652.547
-635.489
583.971
-602.053
498.149
-560.964
392.992
-514.376
272.743
-468.943
151.759
-432.876
50.4143
-409.404
-18.2822
-395.407
-57.9015
-384.479
-82.7613
-373.12
-104.891
-359.979
-128.652
-346.885
-150.415
-334.882
-161.746
-324.604
-158.112
-315.235
-142.709
-306.8
-119.065
-299.427
-89.1412
-293.387
-52.7615
-289.202
-11.2804
-286.683
30.0191
-286.334
65.7437
-288.021
90.5068
-292.159
122.535
-298.128
165.269
-305.325
216.411
-314.303
274.507
-326.992
343.909
-342.03
430.473
-354.899
534.088
-357.041
643.313
-338.062
729.808
-289.894
749.988
-216.688
669.926
-143.666
523.723
-111.997