/*--------------------------------*- C++ -*----------------------------------*\
| =========                 |                                                 |
| \\      /  F ield         | OpenFOAM: The Open Source CFD Toolbox           |
|  \\    /   O peration     | Version:  4.1                                   |
|   \\  /    A nd           | Web:      www.OpenFOAM.org                      |
|    \\/     M anipulation  |                                                 |
\*---------------------------------------------------------------------------*/
FoamFile
{
    version     2.0;
    format      ascii;
    class       volVectorField;
    location    "2";
    object      U;
}
// * * * * * * * * * * * * * * * * * * * * * * * * * * * * * * * * * * * * * //

dimensions      [0 1 -1 0 0 0 0];

internalField   nonuniform List<vector> 
6785
(
(1.10057e-14 0.860094 15.787)
(9.17804e-15 -4.89479 12.1098)
(-2.16468e-15 -4.20693 12.1236)
(-2.25702e-17 -3.61911 11.9894)
(5.81407e-16 -3.02841 11.87)
(-1.32222e-17 -2.58125 11.6918)
(2.18028e-15 -2.2408 11.47)
(4.30798e-16 -2.00198 11.2049)
(-7.25118e-16 -1.83817 10.9099)
(1.21027e-15 -1.75379 10.5851)
(7.17293e-17 -1.87957 10.1592)
(-4.98183e-16 -2.33588 9.54643)
(6.77777e-16 -2.58403 8.97617)
(9.51995e-17 -1.13397 8.95109)
(-1.25012e-16 1.79603 7.5853)
(1.5842e-14 -5.34018 22.5123)
(1.51803e-14 -14.6319 21.4164)
(6.07318e-16 -13.3382 20.3811)
(5.08753e-15 -11.8545 19.5393)
(2.3231e-15 -11.2352 18.5348)
(-4.47864e-17 -10.7408 17.5503)
(2.46239e-15 -10.1833 16.6047)
(1.68996e-15 -9.62594 15.6576)
(-7.14931e-16 -9.06942 14.6992)
(2.09372e-15 -8.4711 13.7297)
(9.8977e-16 -7.85063 12.7476)
(-6.46174e-16 -7.3748 11.7334)
(-1.64231e-16 -7.08044 10.6013)
(3.84418e-17 -5.80611 9.12554)
(-1.18297e-16 -2.32386 4.83019)
(1.70901e-14 -7.76807 24.2117)
(1.40513e-14 -16.8807 24.6727)
(1.844e-15 -13.8768 24.0284)
(6.0811e-15 -12.4194 22.741)
(9.61173e-16 -11.7251 21.378)
(1.04886e-15 -10.8929 20.1486)
(3.23085e-15 -10.0123 18.9317)
(3.6453e-16 -9.15499 17.6922)
(3.34021e-17 -8.32081 16.444)
(8.3572e-16 -7.49741 15.2332)
(8.55357e-16 -6.68847 14.0781)
(6.98994e-17 -5.91532 12.7532)
(1.45902e-17 -4.99068 10.6666)
(9.45351e-17 -3.39087 7.16399)
(-8.71277e-17 -1.08836 2.21848)
(1.7187e-14 -8.67763 22.5294)
(1.68636e-14 -16.7154 24.3168)
(2.58698e-15 -12.9938 23.9931)
(5.30961e-15 -12.1602 22.2032)
(2.66987e-16 -11.4111 20.7031)
(2.51814e-15 -10.475 19.3704)
(2.5437e-15 -9.58631 18.019)
(-6.33297e-16 -8.75461 16.6643)
(1.09901e-15 -7.97821 15.3411)
(4.27623e-16 -7.2385 14.0564)
(-9.36733e-16 -6.4177 12.6346)
(8.62876e-16 -5.20212 10.496)
(-8.37966e-18 -3.20192 6.76853)
(-2.47739e-15 -0.692472 1.4637)
(-3.35503e-16 0.539641 -1.9719)
(1.60539e-14 -8.69722 20.316)
(1.49712e-14 -16.4434 24.3135)
(2.79346e-15 -12.969 23.857)
(4.82646e-15 -12.5666 21.7158)
(-1.92234e-16 -11.8013 20.1845)
(1.4993e-15 -10.8893 18.8065)
(8.90905e-16 -10.0756 17.3895)
(-1.21065e-15 -9.30198 15.9871)
(2.71695e-15 -8.56964 14.6347)
(2.72208e-16 -7.86499 13.3229)
(-1.22714e-15 -7.06232 11.8575)
(-8.45009e-16 -5.81294 9.68617)
(-1.24577e-15 -3.7415 6.11134)
(-1.57963e-15 -1.41546 1.82636)
(1.17667e-15 -0.0874114 -1.0782)
(1.67025e-14 -8.25354 18.1454)
(1.73183e-14 -16.1038 24.5431)
(4.54747e-15 -13.4265 24.0988)
(4.79903e-15 -12.9544 21.7859)
(3.32972e-15 -12.1172 20.2284)
(2.8915e-15 -11.1931 18.8463)
(3.35321e-16 -10.3892 17.4137)
(2.49663e-16 -9.60449 16.0011)
(2.20402e-16 -8.83557 14.6441)
(2.25515e-16 -8.08888 13.3317)
(-3.22606e-16 -7.26409 11.9027)
(1.11291e-15 -6.07642 9.89668)
(2.17789e-15 -4.2037 6.75319)
(4.62467e-15 -1.9936 3.03667)
(4.24822e-15 -0.246312 -0.130913)
(1.4822e-14 -7.54523 15.7789)
(1.72233e-14 -15.616 24.4029)
(6.58338e-15 -13.9494 24.3933)
(4.48984e-15 -13.2137 22.0115)
(2.44091e-15 -12.2558 20.3843)
(3.64527e-15 -11.3043 19)
(2.85488e-15 -10.4892 17.5703)
(1.31842e-15 -9.68126 16.1612)
(4.06945e-15 -8.87892 14.8062)
(3.1079e-16 -8.09709 13.4977)
(-7.80515e-18 -7.27654 12.1027)
(1.82068e-15 -6.15423 10.2272)
(-2.88275e-16 -4.38191 7.34975)
(-1.72977e-15 -2.19279 3.77541)
(5.6543e-15 -0.34682 0.345915)
(1.0325e-14 -6.66105 13.2904)
(1.74184e-14 -14.9385 23.8168)
(7.31932e-15 -14.3227 24.6395)
(4.25069e-15 -13.3637 22.2884)
(2.61915e-15 -12.2692 20.5401)
(1.51222e-15 -11.299 19.1235)
(4.28518e-15 -10.479 17.6895)
(1.67905e-15 -9.65213 16.2789)
(9.91231e-16 -8.82381 14.9196)
(-3.82625e-16 -8.02274 13.6041)
(2.07361e-16 -7.19011 12.2182)
(2.15019e-15 -6.11602 10.3984)
(-3.47046e-15 -4.48598 7.67089)
(-1.12465e-15 -2.44909 4.24635)
(-9.02543e-16 -0.597553 0.945893)
(9.76351e-15 -5.67893 10.8745)
(1.71811e-14 -14.1158 22.8773)
(9.99731e-15 -14.5414 24.8025)
(4.75537e-15 -13.5108 22.6185)
(2.77324e-15 -12.3001 20.7198)
(1.73696e-15 -11.3216 19.2383)
(2.11898e-15 -10.509 17.7942)
(1.58455e-15 -9.67988 16.3797)
(-3.24214e-17 -8.85095 15.0108)
(2.21216e-15 -8.05051 13.6839)
(5.46127e-16 -7.23292 12.2984)
(1.41398e-16 -6.18403 10.521)
(3.15587e-15 -4.58397 7.88824)
(1.7868e-16 -2.55474 4.52494)
(-4.68416e-15 -0.734363 1.2206)
(6.7166e-15 -4.71294 8.75618)
(1.63654e-14 -13.2261 21.7427)
(9.95748e-15 -14.5988 24.849)
(4.84299e-15 -13.6425 22.9658)
(2.7648e-15 -12.3433 20.9265)
(1.52241e-15 -11.351 19.3599)
(2.58622e-15 -10.5397 17.9033)
(1.69287e-15 -9.70424 16.4885)
(4.47708e-17 -8.86897 15.1125)
(2.18306e-15 -8.06727 13.7753)
(1.29824e-16 -7.24463 12.3881)
(1.27574e-17 -6.22358 10.6374)
(-3.05902e-16 -4.72272 8.09733)
(6.97452e-16 -2.81509 4.87709)
(-3.56877e-15 -0.962741 1.63907)
(2.33931e-15 -3.9097 7.17029)
(1.5971e-14 -12.3889 20.6216)
(8.52521e-15 -14.5496 24.7938)
(4.23014e-15 -13.788 23.3219)
(2.90522e-15 -12.4553 21.193)
(1.18442e-15 -11.451 19.5313)
(2.52411e-15 -10.6425 18.0574)
(1.63021e-15 -9.81313 16.6441)
(-6.46358e-16 -8.98875 15.2637)
(-5.29546e-15 -8.19686 13.92)
(4.51742e-15 -7.39612 12.5423)
(-1.2609e-15 -6.403 10.8453)
(-6.12676e-15 -4.94045 8.41823)
(-2.5417e-15 -3.06429 5.30722)
(-6.34937e-15 -1.11834 2.00365)
(5.0852e-15 -3.27755 5.96571)
(1.53897e-14 -11.6214 19.5385)
(8.47231e-15 -14.3942 24.5978)
(4.35205e-15 -13.8493 23.538)
(3.12989e-15 -12.4941 21.3578)
(-1.58226e-15 -11.4681 19.6271)
(-6.20886e-17 -10.6559 18.163)
(1.54151e-15 -9.82943 16.775)
(-9.75943e-16 -9.01341 15.4124)
(-1.15123e-15 -8.23386 14.0838)
(1.13937e-15 -7.43403 12.7257)
(-2.66601e-15 -6.47607 11.0768)
(-7.5673e-16 -5.13458 8.77477)
(-4.72795e-15 -3.42126 5.87082)
(-6.00619e-15 -1.38615 2.60806)
(-1.03236e-15 -3.09113 5.74197)
(1.42538e-14 -11.1689 18.8192)
(1.10727e-14 -14.4077 24.4677)
(5.28071e-15 -14.2165 23.9711)
(3.46013e-15 -12.9535 21.8539)
(6.13235e-16 -11.9036 20.0038)
(6.45086e-16 -11.0557 18.4618)
(2.77247e-15 -10.2138 17.0396)
(-6.16364e-16 -9.38217 15.6502)
(-9.34851e-16 -8.58017 14.2984)
(6.76809e-16 -7.7699 12.9402)
(-2.60774e-15 -6.81373 11.3538)
(-1.27046e-15 -5.48981 9.19834)
(-2.9624e-15 -3.77367 6.39582)
(-5.4682e-15 -1.53745 3.0031)
(-1.82537e-15 -1.84838 2.77672)
(1.2406e-14 -9.73581 16.2958)
(1.07827e-14 -13.7427 23.2544)
(5.04629e-15 -13.8007 23.3604)
(3.00159e-15 -12.4553 21.2473)
(5.07625e-16 -11.3753 19.4955)
(8.06815e-16 -10.6239 18.2236)
(3.5003e-15 -9.9094 17.0507)
(-3.93716e-16 -9.21555 15.8723)
(-1.98848e-17 -8.54783 14.6901)
(3.20471e-16 -7.85799 13.4829)
(-2.28417e-15 -7.04523 12.0515)
(1.18345e-15 -5.91637 10.0873)
(-4.92725e-15 -4.48235 7.63337)
(-4.29273e-15 -2.25236 4.6059)
(2.95174e-15 -4.21317 9.33558)
(1.27065e-14 -10.944 18.9362)
(1.31702e-14 -15.1418 25.1589)
(8.11075e-15 -16.5735 26.1127)
(4.43264e-15 -15.9975 24.2647)
(1.64157e-15 -14.8117 21.7346)
(3.16075e-16 -13.52 19.4261)
(1.30249e-15 -12.2765 17.4723)
(2.27755e-16 -11.079 15.6962)
(-3.61313e-16 -9.93551 14.0959)
(-5.35637e-16 -8.81982 12.6033)
(-1.83757e-15 -7.63128 11.0373)
(-1.94357e-15 -6.22831 9.15922)
(-3.5306e-15 -4.31492 6.39274)
(-3.78558e-15 -0.979995 2.38818)
(1.53131e-16 0.392353 -2.99372)
(3.13858e-16 0.622005 -4.62271)
(2.5507e-16 0.630945 -3.50189)
(2.70618e-16 1.00733 -3.45652)
(2.63331e-16 1.30606 -3.2854)
(2.91453e-16 1.93526 -4.30283)
(1.75044e-16 1.59997 -3.08063)
(1.68307e-16 1.93764 -3.02866)
(1.83575e-16 2.12145 -2.89632)
(6.15012e-16 2.87668 -3.65213)
(5.14263e-16 2.36075 -2.62195)
(4.80581e-16 2.54389 -2.47817)
(4.97123e-16 3.54742 -3.04308)
(4.05384e-16 2.76139 -2.18426)
(3.94128e-16 3.02109 -2.15036)
(3.87446e-16 3.08638 -2.07727)
(4.23206e-16 3.95159 -2.49941)
(3.84959e-16 3.13987 -1.83497)
(3.78899e-16 3.21113 -1.75306)
(4.45539e-16 4.2505 -2.04067)
(3.71361e-16 3.25034 -1.51937)
(3.64223e-16 3.45376 -1.49906)
(4.00767e-16 3.47091 -1.46456)
(4.93857e-16 4.24242 -1.65016)
(4.1532e-16 3.30428 -1.28625)
(4.25363e-16 3.50279 -1.26539)
(3.88726e-16 3.51135 -1.24241)
(4.71853e-16 4.18344 -1.31464)
(3.61587e-16 3.28696 -1.08296)
(3.52626e-16 3.28737 -1.06694)
(4.26846e-16 4.06544 -0.998372)
(3.20846e-16 3.06785 -0.885044)
(3.21695e-16 3.20408 -0.875791)
(2.78633e-16 3.20884 -0.882697)
(3.00283e-16 3.75479 -0.734034)
(2.61023e-16 2.85415 -0.716157)
(2.53831e-16 2.84361 -0.735635)
(2.77008e-16 3.48429 -0.488135)
(2.39821e-16 2.52256 -0.552651)
(2.21861e-16 2.6267 -0.551086)
(2.52522e-16 2.62628 -0.576577)
(2.90888e-16 3.09019 -0.28366)
(2.38614e-16 2.2016 -0.404626)
(2.29916e-16 2.30538 -0.402183)
(2.13851e-16 2.30032 -0.428836)
(2.62819e-16 2.73668 -0.108936)
(1.37973e-16 1.9331 -0.22016)
(1.26601e-16 1.92255 -0.263434)
(1.04577e-16 2.48127 0.112427)
(1.59478e-16 1.74006 0.0102361)
(1.6303e-16 1.82479 0.0135019)
(1.54524e-16 1.78473 -0.0274309)
(1.81087e-16 2.27601 0.374985)
(1.21174e-16 1.49835 0.183098)
(-7.58582e-17 1.57712 0.182274)
(1.59376e-16 1.53042 0.149371)
(6.49112e-16 1.82025 0.420508)
(3.27211e-16 1.12249 0.11769)
(2.07885e-16 1.05633 0.0974156)
(2.01528e-16 1.26911 -0.136919)
(2.52811e-16 0.527936 -0.481743)
(4.12799e-16 0.501685 -0.498368)
(4.33161e-17 0.584891 -0.460186)
(4.42067e-16 1.08092 -2.056)
(-5.42812e-16 -0.428445 -0.465353)
(-7.91203e-16 -0.0184202 -0.0897332)
(-1.25654e-15 -0.040219 1.39789)
(-7.71247e-16 -1.35737 3.26476)
(-6.32516e-16 -1.33181 3.21473)
(-6.60205e-16 -1.31418 3.39158)
(-6.43968e-16 -2.72065 6.25995)
(-3.51197e-16 -3.15079 5.97845)
(-3.86227e-16 -3.41074 6.08809)
(-3.74358e-16 -3.58653 6.27155)
(-2.01939e-16 -6.06297 9.81786)
(-6.49298e-18 -5.61054 8.02396)
(-1.54942e-17 -5.88574 8.49023)
(2.79503e-16 -9.21562 12.4855)
(2.2211e-16 -8.24325 9.6766)
(1.50215e-16 -8.6208 10.3717)
(-2.11892e-16 -9.44394 12.0578)
(-1.18178e-16 -9.32317 11.9797)
(-6.21983e-17 -9.48974 12.2555)
(1.2924e-15 -11.5157 15.0672)
(4.3976e-16 -10.1933 13.3121)
(5.66318e-16 -10.5477 13.9598)
(5.92463e-16 -10.5422 14.1035)
(6.39304e-16 -10.6196 14.2314)
(6.8867e-16 -10.7127 14.381)
(7.55706e-16 -10.7893 14.556)
(9.04008e-16 -10.8804 14.8751)
(1.10501e-15 -11.0085 15.27)
(2.03384e-15 -11.8769 16.7755)
(1.40461e-15 -11.3561 15.7317)
(1.50531e-15 -11.5033 15.9651)
(1.54405e-15 -11.4871 16.0957)
(1.60874e-15 -11.6521 16.4758)
(1.63202e-15 -11.629 16.5143)
(1.68336e-15 -11.7115 16.6629)
(1.73214e-15 -11.7689 16.7921)
(1.80513e-15 -11.8313 16.9496)
(2.87776e-15 -12.3452 18.1455)
(2.42505e-15 -11.8943 17.3488)
(2.50857e-15 -12.005 17.5325)
(2.54224e-15 -12.0353 17.6196)
(2.58887e-15 -12.079 17.753)
(2.61127e-15 -12.124 17.9532)
(2.63021e-15 -12.1994 18.1779)
(2.70303e-15 -12.2069 18.2489)
(2.77498e-15 -12.2777 18.371)
(2.85351e-15 -12.3307 18.4798)
(4.09408e-15 -12.1702 18.8431)
(3.18213e-15 -12.015 18.474)
(3.26414e-15 -12.0591 18.586)
(3.29595e-15 -12.0869 18.6474)
(3.35802e-15 -12.1235 18.7319)
(3.42372e-15 -12.1164 18.8363)
(3.57608e-15 -12.1783 19.0823)
(3.67536e-15 -12.2096 19.1643)
(3.76267e-15 -12.25 19.1661)
(4.35747e-15 -11.3086 18.2887)
(3.90161e-15 -11.4651 18.4568)
(3.99768e-15 -11.436 18.5871)
(4.02028e-15 -11.4696 18.7295)
(4.12617e-15 -11.4161 18.6601)
(4.22594e-15 -11.4183 18.6486)
(4.34651e-15 -11.4038 18.6197)
(4.48896e-15 -11.3979 18.6229)
(4.73872e-15 -11.4736 18.8221)
(5.21513e-15 -9.38379 16.2052)
(4.92172e-15 -10.1838 17.4536)
(5.05899e-15 -10.0232 17.208)
(5.18269e-15 -9.98654 17.1248)
(5.53552e-15 -9.9513 17.1725)
(5.63646e-15 -9.852 16.9689)
(5.66106e-15 -9.7597 16.6581)
(5.71014e-15 -9.72426 16.3249)
(5.77492e-15 -9.60327 15.9021)
(5.86634e-15 -6.81896 11.9593)
(6.08378e-15 -8.01695 14.462)
(5.95647e-15 -7.66816 13.732)
(5.87956e-15 -7.60942 13.3085)
(5.77895e-15 -7.46517 12.7298)
(5.73731e-15 -7.39045 12.1009)
(6.17277e-15 -7.11942 11.3093)
(5.6927e-15 -7.06606 10.7191)
(5.40235e-15 -6.88396 9.98544)
(5.01101e-15 -6.58556 9.17568)
(2.57309e-15 -3.71014 3.56117)
(4.19332e-15 -5.07862 7.09369)
(3.64448e-15 -4.54793 5.81208)
(3.36348e-15 -4.55 5.40745)
(2.96635e-15 -4.31062 4.71458)
(2.48072e-15 -4.2565 3.93481)
(1.5453e-15 -4.08725 2.64267)
(6.1568e-16 -3.70581 1.36246)
(7.44072e-16 -3.62838 1.24893)
(1.90191e-16 -2.76053 -1.03368)
(5.00613e-16 -3.00349 0.861917)
(3.57685e-16 -2.78609 0.236519)
(-2.43781e-16 -1.80528 -1.73788)
(-3.35564e-17 -3.12985 -1.12284)
(-2.75614e-16 -2.18779 -1.03284)
(-2.59569e-16 -1.88624 -0.657313)
(-2.89891e-16 -2.2332 -0.908211)
(-2.35785e-16 -1.3982 -0.516447)
(-3.09797e-16 -1.97794 -0.80032)
(-1.88819e-16 -1.45868 -0.545509)
(-1.52437e-16 -1.04635 -0.357645)
(-2.05754e-16 -1.41921 -0.573616)
(-2.73798e-16 -1.04772 -0.410273)
(-3.48185e-16 -0.940742 -0.245432)
(-3.52257e-16 -1.0655 -0.398761)
(-6.70101e-16 -0.580331 -0.178972)
(1.25185e-15 -0.940738 -0.391236)
(6.44571e-17 -0.626475 -0.288384)
(1.65523e-17 -0.561693 -0.14377)
(7.92662e-18 -0.594589 -0.295541)
(-4.54179e-16 -0.268378 -0.0989477)
(-4.22684e-16 -0.557423 -0.320287)
(-4.94517e-16 -0.291781 -0.278688)
(-5.75896e-16 -0.0286246 -0.124089)
(-9.80041e-16 -0.207772 -0.34331)
(-8.55768e-16 -0.0204658 -0.326023)
(-3.35288e-17 -0.0042436 -0.172715)
(-3.40926e-16 0.0610857 -0.341814)
(-3.56777e-16 0.197386 -0.169192)
(4.90656e-15 0.136679 -0.37328)
(4.70834e-16 0.289813 -0.326745)
(2.71509e-16 0.217201 -0.221407)
(3.97948e-16 0.541736 -0.300581)
(3.76257e-16 0.347049 -0.211916)
(5.36481e-16 0.569087 -0.297832)
(-7.18447e-15 0.746178 -0.371387)
(4.17666e-16 0.37357 -0.24396)
(4.15548e-16 0.756428 -0.325882)
(3.90754e-15 0.948701 -0.429445)
(-6.8127e-16 0.498096 -0.26792)
(-7.63931e-16 1.1542 -0.397404)
(-6.089e-16 0.708959 -0.251447)
(-4.62106e-16 0.984077 -0.325156)
(3.34152e-15 1.20133 -0.35224)
(5.24525e-16 0.770551 -0.17366)
(1.926e-16 1.36542 -0.336451)
(-9.79625e-16 1.01432 -0.171601)
(-2.86302e-16 1.22343 -0.277066)
(6.41774e-16 1.42496 -0.338185)
(-3.73223e-16 1.04001 -0.141612)
(-6.10578e-16 1.41629 -0.243569)
(-6.28009e-16 1.68532 -0.280325)
(-4.01947e-16 1.20116 -0.121818)
(-3.77146e-16 1.74377 -0.227799)
(-3.24289e-16 1.41309 -0.130167)
(-7.74773e-16 1.64437 -0.187386)
(-5.78561e-16 1.87704 -0.228684)
(3.49623e-16 1.34207 -0.0935355)
(2.22423e-16 2.02065 -0.188823)
(-4.13232e-16 1.64604 -0.105422)
(-3.04162e-16 1.84813 -0.160097)
(-3.51476e-16 2.10019 -0.203108)
(-2.95426e-16 1.54259 -0.0970505)
(-2.59343e-16 2.05397 -0.139866)
(-3.39537e-16 2.37312 -0.186672)
(-2.63233e-16 1.68447 -0.0956385)
(-1.47902e-16 2.39724 -0.165013)
(-1.54919e-16 1.94153 -0.126166)
(-2.3205e-16 2.22177 -0.162621)
(-5.8888e-16 2.54329 -0.22022)
(4.18812e-17 1.7947 -0.124028)
(-6.47306e-17 2.7162 -0.215138)
(-1.39884e-17 2.16296 -0.152481)
(3.98154e-17 2.44922 -0.213191)
(-2.2833e-16 2.78197 -0.288807)
(-1.19465e-16 2.04318 -0.17281)
(-6.89835e-17 2.68964 -0.233494)
(-5.60701e-17 3.12396 -0.33835)
(7.09507e-18 2.20891 -0.193631)
(-1.1509e-16 3.20843 -0.345379)
(-9.74308e-17 2.54192 -0.240834)
(-8.10071e-17 3.01275 -0.415379)
(-2.74179e-15 -1.3642 5.97133)
(-2.71252e-15 -1.32448 5.88304)
(-2.69227e-15 -1.30211 5.82866)
(-2.66914e-15 -1.27484 5.75792)
(-2.64739e-15 -1.24492 5.68474)
(-2.62444e-15 -1.2145 5.62005)
(-2.59726e-15 -1.17376 5.55826)
(-2.56583e-15 -1.1236 5.48351)
(-2.53384e-15 -1.06664 5.39266)
(-2.50412e-15 -1.00626 5.30183)
(-2.47395e-15 -0.939851 5.22431)
(-2.43782e-15 -0.854918 5.14652)
(-2.39489e-15 -0.754256 5.04133)
(-2.35096e-15 -0.644005 4.9092)
(-2.30993e-15 -0.527932 4.784)
(-2.26556e-15 -0.401594 4.68256)
(-2.20785e-15 -0.262672 4.56938)
(-2.13796e-15 -0.151838 4.40768)
(-2.06881e-15 -0.103041 4.22672)
(-2.00565e-15 -0.101578 4.06735)
(-1.9414e-15 -0.122088 3.91277)
(-1.87843e-15 -0.150959 3.75377)
(-1.8281e-15 -0.188144 3.62634)
(-1.78666e-15 -0.215426 3.54367)
(-1.73958e-15 -0.244025 3.47126)
(-1.68297e-15 -0.275176 3.37352)
(-1.62846e-15 -0.270087 3.24595)
(-1.5849e-15 -0.158375 3.08259)
(-1.54268e-15 -0.114531 2.86377)
(-1.51496e-15 -0.254673 2.75912)
(-1.49247e-15 -0.473656 2.7204)
(-1.45986e-15 -0.64438 2.64567)
(-1.43507e-15 -0.684278 2.56399)
(-1.43355e-15 -0.83251 2.59575)
(-1.42273e-15 -1.04941 2.67851)
(-1.37262e-15 -1.23029 2.59521)
(-1.28621e-15 -1.25107 2.22798)
(-1.20602e-15 -1.14919 1.75414)
(-1.18851e-15 -1.1628 1.70274)
(-1.20401e-15 -1.63454 2.11922)
(-1.1722e-15 -1.97148 2.27382)
(-1.09361e-15 -1.83934 1.88445)
(-9.95193e-16 -1.50747 1.02873)
(-9.50538e-16 -1.55771 0.705925)
(-9.7144e-16 -2.40793 1.49267)
(-9.45128e-16 -3.36448 1.79179)
(-8.79697e-16 -3.08852 1.55213)
(-7.79964e-16 -2.59087 0.824884)
(-6.2646e-16 -2.20821 -0.585901)
(-5.64078e-16 -0.75313 -0.948873)
(-5.64457e-16 0.521846 -0.909254)
(-5.8933e-16 1.53367 -0.773752)
(-5.65314e-16 2.10491 -0.320764)
(-6.00388e-16 -2.28488 0.410103)
(-5.56452e-16 -7.53762 0.618443)
(-5.14798e-16 -4.70621 -0.441602)
(-4.71943e-16 0.326773 0.248608)
(-4.56579e-16 -2.00996 0.410679)
(-4.33954e-16 0.626339 -0.23913)
(-3.01577e-16 1.579 -0.281931)
(-2.39399e-16 1.40591 0.0416311)
(-2.47238e-16 0.90101 0.376198)
(-2.63947e-16 0.308121 0.570138)
(-2.58322e-16 -0.92562 0.403804)
(-2.32074e-16 -2.04592 0.201336)
(-2.09889e-16 -2.71522 -0.93125)
(-1.92512e-16 -2.97845 -1.57969)
(-1.82244e-16 -2.40387 -1.96681)
(-1.78109e-16 -1.70591 -1.47562)
(-1.77094e-16 -0.00277361 -1.22223)
(-1.75548e-16 -0.628484 -0.728104)
(-1.80789e-16 -0.718965 -1.20576)
(-1.8478e-16 -0.222088 -1.49437)
(-1.86074e-16 0.179571 -1.43542)
(-1.77335e-16 0.494817 -0.942816)
(-1.77207e-16 0.978323 -1.05356)
(-2.04868e-16 1.60039 -1.21158)
(-1.75451e-16 2.13294 -0.995589)
(4.70316e-17 2.49824 -0.812567)
(-2.73014e-15 -1.3324 5.94826)
(-2.69844e-15 -1.29592 5.85784)
(-2.67795e-15 -1.26602 5.80262)
(-2.65483e-15 -1.23045 5.72922)
(-2.63206e-15 -1.19319 5.66097)
(-2.60649e-15 -1.15004 5.59418)
(-2.57661e-15 -1.0929 5.51969)
(-2.54409e-15 -1.02556 5.43252)
(-2.512e-15 -0.957441 5.33953)
(-2.48028e-15 -0.888884 5.24974)
(-2.44464e-15 -0.806661 5.15655)
(-2.40152e-15 -0.701751 5.04209)
(-2.35284e-15 -0.583423 4.90067)
(-2.30273e-15 -0.470685 4.74851)
(-2.24929e-15 -0.362582 4.60053)
(-2.18429e-15 -0.238369 4.44346)
(-2.10441e-15 -0.106967 4.26089)
(-2.02063e-15 -0.0230264 4.07509)
(-1.94815e-15 -0.0209855 3.92092)
(-1.88809e-15 -0.0517828 3.79061)
(-1.8343e-15 -0.0735666 3.66614)
(-1.78934e-15 -0.109673 3.5628)
(-1.7531e-15 -0.154513 3.48274)
(-1.71411e-15 -0.184516 3.40092)
(-1.66695e-15 -0.196662 3.30043)
(-1.61821e-15 -0.211278 3.16587)
(-1.57464e-15 -0.196461 2.98506)
(-1.53259e-15 -0.122639 2.79357)
(-1.49088e-15 -0.246103 2.67203)
(-1.4796e-15 -0.408427 2.72976)
(-1.47122e-15 -0.581411 2.73366)
(-1.44785e-15 -0.670722 2.62876)
(-1.43302e-15 -0.732958 2.57843)
(-1.4297e-15 -0.903619 2.64974)
(-1.40743e-15 -1.07914 2.68718)
(-1.3481e-15 -1.16284 2.51752)
(-1.26378e-15 -1.13853 2.10484)
(-1.19895e-15 -1.09172 1.70426)
(-1.19213e-15 -1.23545 1.79644)
(-1.20111e-15 -1.68012 2.19009)
(-1.1616e-15 -1.87628 2.22606)
(-1.07903e-15 -1.66324 1.7524)
(-9.87277e-16 -1.43016 0.98205)
(-9.52322e-16 -1.59737 0.800133)
(-9.70748e-16 -2.47296 1.55096)
(-9.41579e-16 -3.27423 1.77345)
(-8.74331e-16 -2.92681 1.47134)
(-7.74832e-16 -2.4294 0.75853)
(-6.2884e-16 -2.03617 -0.540547)
(-5.68856e-16 -0.594075 -0.871354)
(-5.76121e-16 0.475446 -0.855545)
(-5.95268e-16 1.42242 -0.696101)
(-5.62581e-16 1.89562 -0.300395)
(-5.99776e-16 -2.21838 0.387351)
(-5.56247e-16 -7.51129 0.593933)
(-5.14834e-16 -4.6606 -0.431793)
(-4.70636e-16 0.155976 0.208959)
(-4.5644e-16 -1.91437 0.398472)
(-4.33244e-16 0.577957 -0.325921)
(-2.88971e-16 1.47699 -0.174903)
(-2.36329e-16 1.29142 0.179101)
(-2.48366e-16 0.801666 0.504529)
(-2.62147e-16 0.261999 0.63221)
(-2.56822e-16 -0.719357 0.523876)
(-2.32112e-16 -1.89546 0.209095)
(-2.10786e-16 -2.61146 -0.90252)
(-1.93598e-16 -2.92162 -1.55494)
(-1.83019e-16 -2.47757 -1.97451)
(-1.7841e-16 -1.866 -1.6397)
(-1.77162e-16 -0.819366 -1.24081)
(-1.75555e-16 -0.683376 -0.607345)
(-1.79296e-16 -0.560748 -1.08418)
(-1.82475e-16 -0.196516 -1.42909)
(-1.81721e-16 0.119769 -1.06621)
(-1.71658e-16 0.474825 -0.752157)
(-1.78857e-16 1.02787 -1.10337)
(-2.10809e-16 1.5845 -1.19638)
(-1.63048e-16 2.05739 -0.905858)
(8.3074e-17 2.41112 -0.690031)
(-2.7151e-15 -1.32589 5.90655)
(-2.68096e-15 -1.28496 5.8126)
(-2.66044e-15 -1.25803 5.75744)
(-2.63674e-15 -1.22479 5.68531)
(-2.61192e-15 -1.18987 5.62086)
(-2.58325e-15 -1.14938 5.54885)
(-2.55104e-15 -1.09437 5.46276)
(-2.51773e-15 -1.0299 5.36842)
(-2.48451e-15 -0.963386 5.27663)
(-2.44868e-15 -0.893383 5.18346)
(-2.40602e-15 -0.80888 5.06877)
(-2.35567e-15 -0.700683 4.92093)
(-2.30056e-15 -0.58066 4.75428)
(-2.24133e-15 -0.464423 4.58766)
(-2.17233e-15 -0.349569 4.41091)
(-2.08802e-15 -0.224991 4.19935)
(-1.99333e-15 -0.101866 3.96877)
(-1.905e-15 -0.0279444 3.77851)
(-1.83599e-15 -0.0197717 3.64872)
(-1.78395e-15 -0.0376347 3.54327)
(-1.74299e-15 -0.0625929 3.45424)
(-1.7109e-15 -0.0970484 3.39289)
(-1.67973e-15 -0.13471 3.32922)
(-1.64078e-15 -0.155681 3.23174)
(-1.59768e-15 -0.168373 3.10302)
(-1.55871e-15 -0.180894 2.94313)
(-1.52274e-15 -0.171797 2.74946)
(-1.48298e-15 -0.130446 2.59363)
(-1.45109e-15 -0.221641 2.58766)
(-1.45115e-15 -0.362264 2.68587)
(-1.45155e-15 -0.516627 2.6844)
(-1.43856e-15 -0.631769 2.60523)
(-1.42998e-15 -0.720674 2.61382)
(-1.41989e-15 -0.894554 2.68774)
(-1.38426e-15 -1.04667 2.64767)
(-1.31728e-15 -1.1 2.38604)
(-1.23976e-15 -1.05686 1.96154)
(-1.19372e-15 -1.06126 1.6905)
(-1.19572e-15 -1.28896 1.9059)
(-1.19589e-15 -1.73128 2.2468)
(-1.14741e-15 -1.84275 2.1601)
(-1.06143e-15 -1.5412 1.59175)
(-9.78717e-16 -1.32382 0.913005)
(-9.546e-16 -1.67848 0.901291)
(-9.69607e-16 -2.61451 1.61985)
(-9.36963e-16 -3.2958 1.77753)
(-8.67517e-16 -2.82403 1.41254)
(-7.68474e-16 -2.20393 0.68822)
(-6.31892e-16 -1.86974 -0.490745)
(-5.74782e-16 -0.606734 -0.82821)
(-5.84573e-16 0.4784 -0.812826)
(-5.96311e-16 1.39503 -0.675092)
(-5.59591e-16 1.81078 -0.315434)
(-5.99089e-16 -2.33726 0.332652)
(-5.55998e-16 -7.44941 0.574101)
(-5.14871e-16 -4.61045 -0.402379)
(-4.69781e-16 0.0964877 0.1979)
(-4.56325e-16 -1.8411 0.399012)
(-4.28167e-16 0.589755 -0.329021)
(-2.79553e-16 1.43749 -0.0659468)
(-2.35772e-16 1.25342 0.264276)
(-2.50564e-16 0.801418 0.605253)
(-2.60933e-16 0.263411 0.697121)
(-2.55219e-16 -0.75351 0.513175)
(-2.32212e-16 -1.77262 0.199868)
(-2.11938e-16 -2.40289 -0.855202)
(-1.9498e-16 -2.80134 -1.51902)
(-1.8404e-16 -2.47086 -1.95833)
(-1.78866e-16 -1.90424 -1.71836)
(-1.77245e-16 -0.699401 -1.28777)
(-1.75627e-16 -0.628999 -0.647065)
(-1.77686e-16 -0.569248 -0.887748)
(-1.79726e-16 -0.189332 -1.15219)
(-1.79106e-16 0.0696757 -0.761246)
(-1.7035e-16 0.500717 -0.770453)
(-1.82022e-16 1.06706 -1.17955)
(-2.14682e-16 1.56191 -1.17366)
(-1.52536e-16 2.01124 -0.854084)
(1.01837e-16 2.37884 -0.647351)
(-2.69896e-15 -1.31679 5.86156)
(-2.66296e-15 -1.27289 5.76389)
(-2.64231e-15 -1.24598 5.70976)
(-2.6172e-15 -1.21352 5.63956)
(-2.58977e-15 -1.17849 5.57422)
(-2.55844e-15 -1.13575 5.49328)
(-2.52483e-15 -1.08027 5.39838)
(-2.49068e-15 -1.01769 5.30203)
(-2.45486e-15 -0.952915 5.20939)
(-2.41352e-15 -0.881395 5.10329)
(-2.36407e-15 -0.792711 4.96221)
(-2.30757e-15 -0.684206 4.78945)
(-2.24567e-15 -0.568695 4.60986)
(-2.17542e-15 -0.456691 4.42898)
(-2.09103e-15 -0.341804 4.21833)
(-1.99254e-15 -0.216087 3.96546)
(-1.89165e-15 -0.0982475 3.71923)
(-1.80655e-15 -0.0295274 3.54567)
(-1.74618e-15 -0.0214237 3.43982)
(-1.70506e-15 -0.0399351 3.35949)
(-1.67494e-15 -0.0652767 3.29959)
(-1.64852e-15 -0.0990254 3.25109)
(-1.61744e-15 -0.131875 3.17449)
(-1.58007e-15 -0.148657 3.05537)
(-1.54404e-15 -0.157598 2.91243)
(-1.51288e-15 -0.166211 2.75237)
(-1.48039e-15 -0.155386 2.58257)
(-1.44563e-15 -0.125252 2.4888)
(-1.42924e-15 -0.215322 2.5537)
(-1.43712e-15 -0.371651 2.65308)
(-1.44042e-15 -0.512466 2.64983)
(-1.43271e-15 -0.62322 2.61545)
(-1.42368e-15 -0.73231 2.65967)
(-1.40334e-15 -0.888505 2.69247)
(-1.35612e-15 -1.00277 2.55991)
(-1.28625e-15 -1.0259 2.22905)
(-1.22012e-15 -0.996708 1.84199)
(-1.19188e-15 -1.06645 1.72137)
(-1.19803e-15 -1.35354 2.01706)
(-1.18841e-15 -1.73856 2.27822)
(-1.13142e-15 -1.7663 2.06811)
(-1.04395e-15 -1.42226 1.43081)
(-9.71577e-16 -1.26182 0.861872)
(-9.56975e-16 -1.7454 1.00264)
(-9.68057e-16 -2.69954 1.68284)
(-9.31845e-16 -3.26482 1.78091)
(-8.60151e-16 -2.71545 1.35996)
(-7.61811e-16 -2.01087 0.620712)
(-6.34921e-16 -1.72339 -0.446338)
(-5.80843e-16 -0.604857 -0.781216)
(-5.93295e-16 0.4568 -0.781615)
(-5.97216e-16 1.33878 -0.649872)
(-5.56925e-16 1.68978 -0.319751)
(-5.98455e-16 -2.41906 0.284932)
(-5.55743e-16 -7.37074 0.558589)
(-5.14894e-16 -4.56696 -0.37447)
(-4.6881e-16 -4.30398e-05 0.192015)
(-4.56233e-16 -1.77633 0.401539)
(-4.20494e-16 0.670718 -0.303466)
(-2.70313e-16 1.37666 0.0318706)
(-2.3614e-16 1.18479 0.353513)
(-2.51947e-16 0.761685 0.693217)
(-2.59802e-16 0.254632 0.758779)
(-2.53519e-16 -0.718733 0.489288)
(-2.32375e-16 -1.61565 0.204605)
(-2.13181e-16 -2.21875 -0.798609)
(-1.96466e-16 -2.66632 -1.47997)
(-1.85192e-16 -2.42125 -1.9415)
(-1.79447e-16 -1.9037 -1.7878)
(-1.77389e-16 -0.835893 -1.39707)
(-1.75849e-16 -0.65746 -0.73137)
(-1.76635e-16 -0.548251 -0.739818)
(-1.77701e-16 -0.219901 -0.884075)
(-1.77617e-16 0.0621359 -0.605006)
(-1.69356e-16 0.542342 -0.862413)
(-1.85359e-16 1.09335 -1.24023)
(-2.17871e-16 1.52666 -1.1368)
(-1.39959e-16 1.95224 -0.804952)
(1.23016e-16 2.3241 -0.601752)
(-2.68224e-15 -1.30643 5.81615)
(-2.64479e-15 -1.26086 5.7161)
(-2.62351e-15 -1.23387 5.66393)
(-2.59627e-15 -1.20109 5.59376)
(-2.56627e-15 -1.16423 5.52295)
(-2.5331e-15 -1.11824 5.43291)
(-2.49857e-15 -1.0614 5.3339)
(-2.46278e-15 -0.999065 5.23748)
(-2.42293e-15 -0.932932 5.13794)
(-2.37571e-15 -0.856601 5.01186)
(-2.32045e-15 -0.76223 4.84724)
(-2.25845e-15 -0.651857 4.66082)
(-2.18871e-15 -0.536565 4.47292)
(-2.10632e-15 -0.420955 4.2697)
(-2.00837e-15 -0.297962 4.02128)
(-1.90108e-15 -0.166194 3.74227)
(-1.80056e-15 -0.0505097 3.50344)
(-1.72388e-15 0.0118432 3.35764)
(-1.67516e-15 0.0136285 3.27913)
(-1.64488e-15 -0.0118971 3.22462)
(-1.62146e-15 -0.0408868 3.17871)
(-1.59643e-15 -0.0728356 3.11973)
(-1.56578e-15 -0.100477 3.02127)
(-1.53304e-15 -0.11466 2.88906)
(-1.50425e-15 -0.120747 2.74646)
(-1.47728e-15 -0.124549 2.60064)
(-1.44718e-15 -0.114021 2.47179)
(-1.42237e-15 -0.10547 2.44791)
(-1.42159e-15 -0.214653 2.56049)
(-1.43261e-15 -0.372809 2.65312)
(-1.43466e-15 -0.508365 2.65385)
(-1.42658e-15 -0.620524 2.65244)
(-1.41174e-15 -0.737116 2.6908)
(-1.38048e-15 -0.869756 2.65079)
(-1.32539e-15 -0.946972 2.43106)
(-1.25802e-15 -0.951435 2.06983)
(-1.20633e-15 -0.955789 1.76611)
(-1.19263e-15 -1.09449 1.79088)
(-1.19845e-15 -1.41242 2.11912)
(-1.17872e-15 -1.72558 2.28093)
(-1.11432e-15 -1.66724 1.9521)
(-1.0276e-15 -1.30794 1.27714)
(-9.66306e-16 -1.23899 0.83747)
(-9.59251e-16 -1.82691 1.10645)
(-9.66093e-16 -2.76787 1.74093)
(-9.26321e-16 -3.21522 1.77923)
(-8.52395e-16 -2.59952 1.30578)
(-7.55005e-16 -1.84465 0.557766)
(-6.37707e-16 -1.57563 -0.402503)
(-5.86935e-16 -0.546826 -0.733193)
(-6.01806e-16 0.445913 -0.744539)
(-5.97113e-16 1.29376 -0.623721)
(-5.54082e-16 1.59583 -0.325697)
(-5.97778e-16 -2.4802 0.243633)
(-5.55493e-16 -7.31266 0.54365)
(-5.14892e-16 -4.5282 -0.35013)
(-4.68012e-16 -0.0806891 0.196014)
(-4.56146e-16 -1.71905 0.39593)
(-4.10369e-16 0.726054 -0.267778)
(-2.62379e-16 1.30385 0.136614)
(-2.36684e-16 1.12412 0.443283)
(-2.51822e-16 0.740746 0.762415)
(-2.58203e-16 0.254371 0.798435)
(-2.51636e-16 -0.652248 0.477648)
(-2.32533e-16 -1.47194 0.215659)
(-2.14437e-16 -2.0709 -0.739057)
(-1.9801e-16 -2.54884 -1.43486)
(-1.86458e-16 -2.38276 -1.92007)
(-1.80159e-16 -1.91733 -1.84769)
(-1.77631e-16 -1.0359 -1.51491)
(-1.76122e-16 -0.702654 -0.890439)
(-1.76175e-16 -0.540871 -0.716602)
(-1.76752e-16 -0.234497 -0.740877)
(-1.77068e-16 0.0934403 -0.62895)
(-1.68745e-16 0.592463 -0.993971)
(-1.89267e-16 1.10727 -1.28859)
(-2.20052e-16 1.48365 -1.09619)
(-1.26188e-16 1.89816 -0.767532)
(1.44621e-16 2.26897 -0.552661)
(-2.66496e-15 -1.29489 5.76966)
(-2.62605e-15 -1.24834 5.6685)
(-2.60347e-15 -1.22158 5.61789)
(-2.57381e-15 -1.18762 5.54469)
(-2.54173e-15 -1.14819 5.46613)
(-2.50736e-15 -1.09993 5.36989)
(-2.47166e-15 -1.04273 5.27059)
(-2.43306e-15 -0.979914 5.17223)
(-2.3884e-15 -0.909877 5.05963)
(-2.33579e-15 -0.826934 4.91261)
(-2.27564e-15 -0.727569 4.73281)
(-2.20781e-15 -0.615056 4.54042)
(-2.1287e-15 -0.495887 4.3395)
(-2.03382e-15 -0.370388 4.10337)
(-1.92487e-15 -0.236777 3.81912)
(-1.81377e-15 -0.104279 3.53235)
(-1.71915e-15 -0.000314795 3.32014)
(-1.65508e-15 0.0462702 3.2112)
(-1.61942e-15 0.0379194 3.16176)
(-1.59783e-15 0.00833257 3.12381)
(-1.57755e-15 -0.0202389 3.07399)
(-1.55288e-15 -0.0460283 2.99503)
(-1.52462e-15 -0.0667709 2.88055)
(-1.49757e-15 -0.078118 2.74715)
(-1.47357e-15 -0.0841986 2.61449)
(-1.44848e-15 -0.0888231 2.49347)
(-1.42348e-15 -0.0900855 2.42044)
(-1.41249e-15 -0.112328 2.4698)
(-1.42183e-15 -0.231532 2.60767)
(-1.43123e-15 -0.377696 2.68487)
(-1.42891e-15 -0.503991 2.68467)
(-1.41618e-15 -0.615975 2.68773)
(-1.393e-15 -0.727608 2.68187)
(-1.35265e-15 -0.834969 2.55847)
(-1.2944e-15 -0.883724 2.27607)
(-1.23443e-15 -0.887142 1.9308)
(-1.19815e-15 -0.936069 1.74157)
(-1.1946e-15 -1.13655 1.88605)
(-1.1966e-15 -1.46013 2.20302)
(-1.16693e-15 -1.69551 2.25326)
(-1.09659e-15 -1.55758 1.81722)
(-1.01282e-15 -1.20501 1.13732)
(-9.62816e-16 -1.24018 0.838933)
(-9.6128e-16 -1.92167 1.20935)
(-9.63686e-16 -2.83167 1.79311)
(-9.2038e-16 -3.16376 1.7722)
(-8.44319e-16 -2.48039 1.25053)
(-7.48217e-16 -1.68998 0.501489)
(-6.40441e-16 -1.43706 -0.356912)
(-5.93133e-16 -0.498268 -0.687349)