/*--------------------------------*- C++ -*----------------------------------*\
| =========                 |                                                 |
| \\      /  F ield         | OpenFOAM: The Open Source CFD Toolbox           |
|  \\    /   O peration     | Version:  4.1                                   |
|   \\  /    A nd           | Web:      www.OpenFOAM.org                      |
|    \\/     M anipulation  |                                                 |
\*---------------------------------------------------------------------------*/
FoamFile
{
    version     2.0;
    format      ascii;
    class       surfaceScalarField;
    location    "7";
    object      phi;
}
// * * * * * * * * * * * * * * * * * * * * * * * * * * * * * * * * * * * * * //

dimensions      [0 3 -1 0 0 0 0];

internalField   nonuniform List<scalar> 
13220
(
-794.498
2094.4
-1237.37
1743.07
-1692.27
1754.8
-2022.25
1629.88
-2289.83
1567.78
-2477.34
1487.41
-2593.24
1415.81
-2636.49
1343.45
-2611.09
1274.5
-2515.23
1204.04
-2345.07
1130.04
-2091.18
1046
-1698.34
907.064
-1033.74
635.6
266.161
-161.143
2255.54
-371.593
1953.52
-602.368
1985.58
-766.422
1793.94
-917.536
1718.9
-1018.06
1587.93
-1086.82
1484.57
-1117.68
1374.31
-1117.98
1274.8
-1091.11
1177.17
-1037.9
1076.84
-944.902
953.003
-779.171
741.334
-484.727
341.158
-218.566
-103.463
2359.01
-260.3
2110.36
-364.681
2089.96
-423.146
1852.41
-470.927
1766.68
-483.871
1600.88
-483.106
1483.8
-449.538
1340.74
-355.641
1180.91
-174.482
996.016
57.5905
844.767
263.986
746.613
379.379
625.947
317.224
403.324
98.6581
-46.012
2405.02
-123.513
2187.86
-181.924
2148.37
-246.714
1917.2
-316.02
1835.99
-387.852
1672.71
-472.116
1568.07
-541.549
1410.18
-544.109
1183.47
-407.164
859.072
-136.297
573.902
170.813
439.502
394.123
402.637
380.209
417.239
478.867
-49.2329
2454.25
-188.523
2327.15
-287.854
2247.7
-399.675
2029.02
-518.804
1955.12
-641.501
1795.41
-780.634
1707.2
-926.739
1556.28
-1079.15
1335.88
-1198.31
978.234
-1216.11
591.7
-1059.14
282.528
-730.658
74.1619
-339.859
26.4435
139.008
110.487
2343.77
-20.7468
2458.38
-64.3854
2291.34
-92.5013
2057.13
-109.092
1971.71
-118.021
1804.33
-113.787
1702.97
-115.44
1557.93
-163.094
1383.53
-302.586
1117.72
-505.757
794.87
-680.515
457.281
-715.547
109.19
-537.324
-151.785
-398.316
261.741
2082.03
232.798
2487.33
266.902
2257.24
334.642
1989.39
428.752
1877.6
524.004
1709.08
641.364
1585.61
759.307
1439.99
849.469
1293.37
848.463
1118.73
729.57
913.763
505.28
681.573
211.874
402.599
-9.89909
69.9916
-408.215
235.817
1846.21
264.907
2458.24
305.464
2216.68
369.362
1925.5
453.594
1793.36
533.951
1628.73
621.168
1498.39
706.577
1354.58
781.793
1218.16
820.552
1079.97
801.336
932.98
710.043
772.863
537.078
575.559
280.958
326.104
-127.257
142.373
1703.84
190.023
2410.59
224.276
2182.43
268.707
1881.07
327.54
1734.53
379.394
1576.87
428.381
1449.4
467.986
1314.98
498.628
1187.51
515.222
1063.38
509.085
939.117
468.109
813.84
373.382
670.288
208.219
491.271
80.9615
62.4574
1641.38
132.731
2340.31
189.278
2125.88
246.766
1823.58
313.053
1668.24
371.345
1518.58
423.773
1396.97
469.442
1269.31
509.855
1147.1
544.306
1028.92
560.068
923.354
532.163
841.742
429.857
772.592
237.552
683.57
318.513
-40.9159
1682.29
58.0922
2241.3
161.196
2022.77
235.492
1749.28
315.352
1588.38
411.837
1422.09
521.31
1287.5
642.461
1148.16
762.738
1026.82
860.382
931.281
895.379
888.356
828.517
908.604
636.394
964.714
351.807
968.157
670.32
-82.3389
1764.63
-83.8437
2242.81
-26.3606
1965.29
-1.25306
1724.17
24.312
1562.81
95.5751
1350.83
220.062
1163.01
383.74
984.476
563.795
846.767
719
776.075
790.071
817.285
731.557
967.116
536.905
1159.36
267.823
1237.24
938.143
127.533
1637.1
26.4328
2343.91
-167.677
2159.4
-339.405
1895.9
-468.728
1692.14
-566.818
1448.92
-629.655
1225.85
-659.556
1014.38
-648.527
835.737
-586.617
714.164
-467.185
697.852
-304.344
804.275
-144.065
999.084
-43.7763
1136.95
894.366
580.561
1056.54
855.16
2069.31
658.146
2356.41
271.279
2282.77
-116.672
2080.09
-476.933
1809.18
-789.1
1538.01
-1066.57
1291.85
-1305.97
1075.14
-1477.96
886.15
-1517.1
736.992
-1357.8
644.977
-986.37
627.652
-483.853
634.429
410.514
708.993
1761.79
2421.81
2695.33
2711.32
2541.96
2216.58
1882.97
1547.13
1200.73
841.061
517.605
290.253
162.369
9.2938e-06
-57.9568
57.9568
-57.9568
-57.9568
-57.9568
161.496
-219.453
161.496
161.496
161.496
349.258
-187.762
349.258
349.258
504.848
-155.591
504.848
504.848
504.848
624.876
-120.028
624.876
624.876
714.107
-89.2305
714.107
714.107
714.107
771.663
-57.5562
771.663
771.663
771.663
790.421
-18.7584
790.421
790.421
770.922
19.4991
770.922
770.922
770.922
717.844
53.078
717.844
717.844
644.145
73.6994
644.145
644.145
644.145
561.946
82.1986
561.946
561.946
561.946
484.614
77.3321
484.614
484.614
481.519
3.09525
481.519
481.519
481.519
513.645
-32.1258
513.645
513.645
513.645
464.619
49.0258
464.619
464.619
300.475
164.144
300.475
300.475
300.475
49.5008
250.974
49.5008
49.5008
-469.457
518.958
-469.457
-469.457
-469.457
-1643.92
1174.46
-1643.92
-1643.92
-1643.92
-3321.28
1677.36
-3321.28
-3321.28
-5348.9
2027.63
-5348.9
-5348.9
-5242.48
-5140.03
-5034.84
-7168.29
2240.07
-7053.94
-6920.27
-6775.96
-6632.33
-6488.51
-6346.36
-6200.96
-6043.29
-8263.03
2375.11
-8096.99
-7932.88
-7770.34
-7588.45
-7406.34
-7224.68
-7043.69
-6861.7
-9157.27
2489.63
-8951.78
-8745.79
-8539.17
-8332.36
-8118.14
-7889.77
-7660.44
-7428.5
-7193.88
-9588.89
2627.95
-9331.52
-9070.74
-8807.09
-8540.55
-8270.41
-7980.48
-7677.38
-7370.22
-9835.54
2767.28
-9527.93
-9205.72
-8862.36
-8515.41
-8164.34
-7811.15
-7454.62
-7066.54
-9167.72
2471.55
-8799.93
-8434.38
-8070.11
-7687.09
-7296.86
-6908.45
-6519.2
-6132.22
-7445.7
1695.51
-7063.06
-6683.67
-6306.99
-5934.83
-5570.05
-5228.49
-4894.77
-4570.81
-4260.53
-4351.72
392.627
-4111.88
-3907.1
-3710.57
-3525.73
-3350.62
-3218.99
-3160.71
-3098.26
-2899.41
-124.496
-2839.31
-2776.93
-2776.93
-2726.69
-50.2441
-2670.75
-55.9362
-2670.75
-2631.34
-39.4162
-2631.34
-2609.26
-22.0794
-2580.45
-28.8119
-2580.45
-2564.5
-15.9429
-2539.55
-24.9559
-2539.55
-2519.38
-20.1628
-2519.38
-2507.88
-11.5007
-2483.85
-24.0296
-2483.85
-2462.92
-20.9307
-2462.92
-2448.48
-14.4473
-2417.78
-30.6956
-2417.78
-2395.17
-22.6065
-2359.64
-35.5313
-2359.64
-2326.88
-32.7674
-2326.88
-2299.77
-27.1013
-2262.03
-37.7396
-2262.03
-2229.72
-32.3187
-2229.72
-2208.61
-21.1051
-2181.05
-27.5606
-2181.05
-2169.24
-11.8114
-2153.48
-15.7583
-2153.48
-2147.24
-6.23639
-2147.24
-2153.81
6.56242
-2149.09
-4.71604
-2149.09
-2150.84
1.74941
-2150.84
-2160.75
9.9068
-2150.53
-10.2182
-2150.53
-2148.47
-2.05661
-2128.19
-20.2793
-2128.19
-2108.66
-19.529
-2108.66
-2092.24
-16.4253
-2060.4
-31.8418
-2060.4
-2031.44
-28.9554
-2031.44
-2006.88
-24.5605
-1964.78
-42.0985
-1964.78
-1923.72
-41.0599
-1866.38
-57.3457
-1866.38
-1802.35
-64.0227
-1802.35
-1732.76
-69.5919
-1651.01
-81.751
-1651.01
-1560.88
-90.1304
-1560.88
-1462.65
-98.2262
-1355.47
-107.189
-1355.47
-1237.27
-118.199
-1116.16
-121.108
-1116.16
-984.996
-131.161
-984.996
-140.717
-10.7244
-53.0131
-10.6389
-70.5738
-10.6721
-82.4908
-10.7257
-93.8523
-10.8328
-105.115
-10.9713
-115.864
-11.1506
-126.555
-11.3643
-137.058
-11.6153
-147.549
-11.9015
-158.017
-12.2238
-168.543
-12.5815
-179.147
-12.9748
-189.879
-13.4037
-200.765
-13.8684
-211.843
-14.3691
-223.14
-14.906
-234.685
-15.4795
-246.506
-16.0903
-258.628
-16.7388
-271.078
-17.4258
-283.881
-18.1522
-297.059
-18.9188
-310.638
-19.7266
-324.64
-20.5769
-339.089
-21.4707
-354.008
-22.4095
-369.42
-23.3946
-385.348
-24.4274
-401.814
-25.5096
-418.843
-26.6426
-436.455
-27.8281
-454.674
-29.0676
-473.522
-30.3625
-493.017
-31.7142
-513.181
-33.1237
-534.027
-34.5915
-555.567
-36.1178
-577.808
-37.7016
-600.746
-39.341
-624.368
-41.0328
-648.645
-42.7717
-673.53
-44.5503
-698.954
-46.3585
-724.821
-48.1833
-751.007
-50.0085
-777.357
-51.8143
-803.689
-53.5781
-829.799
-55.2739
-855.475
-56.8734
-880.509
-58.3454
-904.712
-59.6558
-927.926
-60.7665
-950.031
-61.6323
-970.925
-62.1978
-990.508
-62.3913
-1008.62
-62.1167
-1025.01
-61.2417
-1039.2
-59.5839
-1050.41
-56.8936
-1057.28
-52.8488
-1057.74
-47.0565
-1048.55
-39.1
-1025.48
-28.5825
-982.446
-15.3026
-912.036
0.622631
-802.834
17.7626
-641.11
37.6663
-387.725
52.6326
124.49
56.6267
521.5
56.9777
858.999
55.9882
1191.28
50.657
1480.49
49.2817
1838.53
40.4986
2016.86
49.8772
2460.76
42.0128
2340.87
72.6757
3105.64
3507.49
-12.0273
-53.1997
-11.8932
-70.7079
-11.9104
-82.4735
-11.9556
-93.8072
-12.0645
-105.006
-12.2104
-115.718
-12.4029
-126.362
-12.6343
-136.827
-12.9075
-147.276
-13.2197
-157.705
-13.5719
-168.19
-13.9631
-178.756
-14.3934
-189.448
-14.8627
-200.296
-15.3711
-211.335
-15.9187
-222.592
-16.5058
-234.098
-17.1327
-245.879
-17.8
-257.961
-18.5082
-270.37
-19.2582
-283.131
-20.0506
-296.267
-20.8865
-309.802
-21.767
-323.759
-22.6932
-338.163
-23.6663
-353.035
-24.6877
-368.398
-25.7588
-384.277
-26.8812
-400.692
-28.0564
-417.667
-29.2861
-435.225
-30.5717
-453.389
-31.9148
-472.178
-33.3168
-491.615
-34.7787
-511.719
-36.3013
-532.504
-37.8847
-553.984
-39.5284
-576.164
-41.2307
-599.044
-42.9884
-622.61
-44.7967
-646.836
-46.6485
-671.678
-48.5341
-697.068
-50.4407
-722.915
-52.3525
-749.095
-54.2501
-775.459
-56.1113
-801.827
-57.9109
-827.999
-59.6218
-853.764
-61.2152
-878.916
-62.6603
-903.267
-63.9241
-926.663
-64.9689
-948.986
-65.7489
-970.145
-66.2056
-990.051
-66.2603
-1008.57
-65.8047
-1025.47
-64.6863
-1040.32
-62.6918
-1052.4
-59.5284
-1060.44
-54.8233
-1062.45
-48.1344
-1055.24
-39.0099
-1034.61
-27.0443
-994.412
-12.0651
-927.016
5.72818
-820.627
24.7847
-660.166
47.1305
-410.07
64.0748
107.546
62.4906
523.085
60.0463
861.444
57.7612
1193.56
51.69
1486.57
49.5664
1840.65
40.6302
2025.8
49.2473
2452.15
41.4157
2348.7
71.5984
3075.46
3447.93
-12.7328
-53.4128
-12.5817
-70.859
-12.589
-82.4662
-12.6306
-93.7656
-12.7404
-104.896
-12.8908
-115.568
-13.0907
-126.162
-13.3322
-136.585
-13.6177
-146.99
-13.9445
-157.378
-14.3133
-167.822
-14.723
-178.346
-15.1738
-188.998
-15.6654
-199.805
-16.1979
-210.802
-16.7712
-222.019
-17.3859
-233.483
-18.0421
-245.222
-18.7403
-257.263
-19.4813
-269.629
-20.2656
-282.346
-21.0942
-295.438
-21.968
-308.928
-22.8881
-322.839
-23.8557
-337.195
-24.872
-352.019
-25.9384
-367.332
-27.0565
-383.159
-28.2276
-399.521
-29.4535
-416.441
-30.7357
-433.943
-32.0757
-452.049
-33.4752
-470.779
-34.9352
-490.155
-36.4569
-510.197
-38.0408
-530.92
-39.6868
-552.338
-41.3939
-574.457
-43.16
-597.278
-44.9811
-620.789
-46.8516
-644.966
-48.7632
-669.766
-50.7051
-695.126
-52.6628
-720.957
-54.6191
-747.139
-56.553
-773.525
-58.441
-799.94
-60.257
-826.183
-61.9737
-852.048
-63.5622
-877.327
-64.9928
-901.836
-66.2332
-925.422
-67.2463
-947.973
-67.9859
-969.406
-68.3917
-989.645
-68.381
-1008.58
-67.8384
-1026.01
-66.5999
-1041.56
-64.4344
-1054.57
-61.0242
-1063.85
-55.9673
-1067.5
-48.7958
-1062.42
-39.0378
-1044.37
-26.2821
-1007.17
-10.3621
-942.936
8.49119
-839.481
28.7687
-680.444
51.4666
-432.768
73.5382
85.4744
71.5418
525.081
65.4358
867.55
60.8643
1198.13
53.444
1493.99
50.2472
1843.85
40.7101
2035.33
48.4534
2444.4
40.0802
2357.08
70.9805
3044.56
3397.8
-13.5511
-53.6498
-13.385
-71.0251
-13.3843
-82.4669
-13.4236
-93.7264
-13.536
-104.784
-13.6927
-115.411
-13.9024
-125.952
-14.1565
-136.331
-14.4574
-146.69
-14.8021
-157.033
-15.1912
-167.433
-15.6235
-177.914
-16.0991
-188.522
-16.6176
-199.286
-17.1791
-210.241
-17.7837
-221.414
-18.4315
-232.835
-19.1229
-244.531
-19.8585
-256.527
-20.6388
-268.849
-21.4645
-281.52
-22.3366
-294.566
-23.256
-308.009
-24.2237
-321.872
-25.241
-336.178
-26.3093
-350.95
-27.4299
-366.211
-28.6043
-381.984
-29.8341
-398.291
-31.1209
-415.155
-32.4663
-432.598
-33.8719
-450.643
-35.3392
-469.312
-36.8693
-488.625
-38.4631
-508.603
-40.1211
-529.262
-41.8428
-550.616
-43.6268
-572.673
-45.4704
-595.434
-47.369
-618.89
-49.3159
-643.019
-51.3017
-667.78
-53.3137
-693.114
-55.3363
-718.934
-57.3498
-745.126
-59.3319
-771.543
-61.257
-798.014
-63.0979
-824.342
-64.8266
-850.319
-66.4143
-875.74
-67.8318
-900.418
-69.048
-924.206
-70.0263
-946.994
-70.7209
-968.711
-71.0696
-989.296
-70.9862
-1008.66
-70.3484
-1026.65
-68.9801
-1042.93
-66.6309
-1056.92
-62.9552
-1067.53
-57.5162
-1072.94
-49.8127
-1070.12
-39.3434
-1054.83
-25.679
-1020.83
-8.64315
-959.971
11.5083
-859.632
33.3077
-702.243
56.5018
-455.962
85.1978
56.7785
83.2438
527.035
73.5321
877.261
65.5466
1206.12
56.0791
1503.45
51.3242
1848.6
40.9775
2045.68
47.4869
2437.9
38.5243
2366.04
66.7479
3016.33
3346.35
-14.3278
-53.9025
-14.1534
-71.1994
-14.1465
-82.4738
-14.1852
-93.6877
-14.3009
-104.668
-14.4646
-115.247
-14.6843
-125.733
-14.9513
-136.064
-15.2675
-146.373
-15.63
-156.671
-16.0391
-167.023
-16.4937
-177.459
-16.9936
-188.022
-17.5386
-198.741
-18.1285
-209.651
-18.7635
-220.779
-19.4437
-232.155
-20.1695
-243.805
-20.9414
-255.755
-21.76
-268.03
-22.626
-280.654
-23.5403
-293.652
-24.504
-307.045
-25.518
-320.858
-26.5837
-335.112
-27.7024
-349.832
-28.8756
-365.038
-30.1047
-380.755
-31.3914
-397.004
-32.7374
-413.809
-34.1441
-431.191
-35.6133
-449.174
-37.1464
-467.779
-38.7445
-487.027
-40.4084
-506.939
-42.1383
-527.532
-43.9335
-548.821
-45.7923
-570.814
-47.7114
-593.515
-49.6856
-616.916
-51.707
-640.997
-53.7651
-665.722
-55.8459
-691.034
-57.9319
-716.848
-60.002
-743.056
-62.0315
-769.514
-63.9937
-796.052
-65.86
-822.476
-67.6016
-848.578
-69.1901
-874.151
-70.5971
-899.011
-71.7925
-923.011
-72.741
-946.046
-73.397
-968.055
-73.6973
-988.996
-73.5526
-1008.81
-72.8346
-1027.37
-71.3568
-1044.41
-68.8507
-1059.42
-64.9434
-1071.44
-59.1638
-1078.72
-50.9765
-1078.31
-39.8493
-1065.96
-25.328
-1035.35
-7.21306
-978.086
14.2318
-881.077
37.6502
-725.662
62.3369
-480.649
96.0615
23.0538
96.5202
526.576
84.5962
889.185
72.3528
1218.36
59.8365
1515.97
53.0127
1855.43
41.4826
2057.21
46.5378
2432.84
36.6559
2375.92
64.6251
2988.36
3303.79
-15.0985
-54.1659
-14.92
-71.3779
-14.909
-82.4848
-14.9486
-93.6482
-15.0687
-104.548
-15.2404
-115.076
-15.4709
-125.502
-15.7514
-135.784
-16.0838
-146.041
-16.4647
-156.29
-16.8946
-166.594
-17.3721
-176.982
-17.897
-187.497
-18.4691
-198.169
-19.0881
-209.032
-19.7542
-220.113
-20.4675
-231.442
-21.2284
-243.044
-22.0373
-254.946
-22.8949
-267.173
-23.802
-279.747
-24.7593
-292.694
-25.768
-306.036
-26.8291
-319.796
-27.944
-333.997
-29.114
-348.662
-30.3406
-363.812
-31.6254
-379.47
-32.97
-395.66
-34.3761
-412.403
-35.8453
-429.722
-37.3792
-447.64
-38.9792
-466.179
-40.6464
-485.36
-42.3817
-505.204
-44.1848
-525.729
-46.0551
-546.951
-47.9903
-568.879
-49.9866
-591.519
-52.0381
-614.865
-54.136
-638.899
-56.2687
-663.59
-58.4207
-688.882
-60.5728
-714.696
-62.702
-740.926
-64.782
-767.434
-66.784
-794.05
-68.6785
-820.582
-70.4359
-846.82
-72.0281
-872.559
-73.4274
-897.612
-74.6051
-921.833
-75.5275
-945.124
-76.1493
-967.433
-76.4072
-988.738
-76.2092
-1009.01
-75.4223
-1028.15
-73.8504
-1045.98
-71.2078
-1062.06
-67.0944
-1075.55
-61.0036
-1084.81
-52.3635
-1086.95
-40.6062
-1077.72
-25.245
-1050.71
-6.04334
-997.288
16.7442
-903.864
41.9342
-750.852
68.9053
-507.62
105.148
-13.1886
110.401
521.324
98.2929
901.293
81.6784
1234.98
64.9939
1532.65
55.4565
1864.97
42.3432
2070.32
45.6572
2429.53
34.5242
2387.05
59.2477
2963.64
3264.81
-15.8568
-54.4355
-15.678
-71.5566
-15.6648
-82.498
-15.7068
-93.6062
-15.8324
-104.422
-16.0128
-114.895
-16.2548
-125.26
-16.5496
-135.489
-16.8985
-145.692
-17.2985
-155.89
-17.7496
-166.143
-18.2504
-176.481
-18.8009
-186.947
-19.4004
-197.57
-20.0489
-208.383
-20.7465
-219.416
-21.4933
-230.695
-22.2896
-242.248
-23.1359
-254.1
-24.0329
-266.276
-24.9812
-278.799
-25.9819
-291.694
-27.036
-304.982
-28.1446
-318.688
-29.309
-332.833
-30.5306
-347.44
-31.8111
-362.531
-33.1519
-378.129
-34.5547
-394.257
-36.0213
-410.936
-37.5533
-428.19
-39.1524
-446.041
-40.8198
-464.511
-42.5568
-483.623
-44.3639
-503.397
-46.241
-523.852
-48.187
-545.005
-50.1994
-566.867
-52.2738
-589.444
-54.4037
-612.735
-56.5794
-636.724
-58.7881
-661.381
-61.0129
-686.657
-63.2329
-712.476
-65.4232
-738.736
-67.5557
-765.301
-69.6
-792.006
-71.5249
-818.657
-73.3005
-845.045
-74.8987
-870.961
-76.293
-896.218
-77.4563
-920.67
-78.3563
-944.224
-78.949
-966.841
-79.1711
-988.516
-78.929
-1009.25
-78.0858
-1029
-76.4372
-1047.63
-73.6814
-1064.82
-69.391
-1079.84
-63.0226
-1091.18
-53.9662
-1096
-41.6141
-1090.07
-25.4405
-1066.89
-5.16004
-1017.57
18.9994
-928.024
46.0663
-777.918
75.3767
-536.931
114.266
-52.0782
124.575
511.015
113.992
911.877
93.7174
1255.25
71.8999
1554.47
58.7966
1878.07
43.6519
2085.47
44.9047
2428.27
32.3363
2399.62
54.421
2941.56
3229.1
-16.6055
-54.7075
-16.4293
-71.7328
-16.4157
-82.5117
-16.4616
-93.5603
-16.5936
-104.29
-16.7837
-114.705
-17.0379
-125.006
-17.3476
-135.179
-17.7138
-145.326
-18.1334
-155.47
-18.6062
-165.67
-19.1309
-175.956
-19.7073
-186.37
-20.3348
-196.942
-21.0133
-207.705
-21.7428
-218.686
-22.5235
-229.914
-23.3557
-241.416
-24.2399
-253.216
-25.1766
-265.339
-26.1668
-277.809
-27.2113
-290.649
-28.3112
-303.882
-29.4677
-317.531
-30.6821
-331.619
-31.9559
-346.166
-33.2907
-361.197
-34.688
-376.732
-36.1497
-392.795
-37.6774
-409.408
-39.2728
-426.594
-40.9376
-444.376
-42.6732
-462.776
-44.4806
-481.816
-46.3603
-501.517
-48.3122
-521.9
-50.3349
-542.982
-52.4255
-564.776
-54.5793
-587.291
-56.7889
-610.525
-59.044
-634.469
-61.3304
-659.095
-63.6299
-684.357
-65.92
-710.186
-68.1739
-736.482
-70.3615
-763.114
-72.4505
-789.917
-74.4086
-816.699
-76.205
-843.248
-77.8119
-869.354
-79.204
-894.826
-80.356
-919.518
-81.2376
-943.342
-81.8065
-966.272
-81.9997
-988.323
-81.723
-1009.52
-80.8366
-1029.88
-79.1295
-1049.33
-76.285
-1067.66
-71.8482
-1084.28
-65.2376
-1097.79
-55.8029
-1105.44
-42.8928
-1102.98
-25.9353
-1083.85
-4.5863
-1038.92
20.9724
-953.583
50.0045
-806.951
81.7069
-568.633
123.492
-93.8629
138.917
495.589
130.97
919.824
108.367
1277.85
80.9248
1581.91
63.213
1895.78
45.47
2103.21
44.3673
2429.38
30.142
2413.85
52.7965
2918.9
3200.15
-17.3451
-54.9787
-17.174
-71.9038
-17.1617
-82.524
-17.2129
-93.5091
-17.3524
-104.151
-17.5529
-114.505
-17.8202
-124.739
-18.1454
-134.854
-18.5295
-144.942
-18.9692
-155.03
-19.4643
-165.175
-20.0134
-175.407
-20.6163
-185.767
-21.2722
-196.286
-21.9812
-206.996
-22.7431
-217.924
-23.5582
-229.099
-24.4267
-240.547
-25.3491
-252.293
-26.3262
-264.362
-27.3586
-276.776
-28.4473
-289.56
-29.5935
-302.736
-30.7984
-316.326
-32.0633
-330.354
-33.3898
-344.84
-34.7794
-359.807
-36.2338
-375.278
-37.7548
-391.274
-39.3441
-407.819
-41.0036
-424.935
-42.7347
-442.645
-44.5391
-460.971
-46.4176
-479.937
-48.3708
-499.564
-50.3983
-519.873
-52.4986
-540.882
-54.6686
-562.606
-56.9029
-585.056
-59.1938
-608.234
-61.5298
-632.133
-63.8958
-656.729
-66.2721
-681.981
-68.6346
-707.824
-70.9545
-734.162
-73.1997
-760.869
-75.3362
-787.78
-77.3301
-814.705
-79.15
-841.428
-80.7683
-867.735
-82.1611
-893.433
-83.3051
-918.374
-84.1724
-942.475
-84.7227
-965.721
-84.894
-988.152
-84.5924
-1009.83
-83.6766
-1030.8
-81.9302
-1051.08
-79.0228
-1070.57
-74.4721
-1088.83
-67.6568
-1104.61
-57.8841
-1115.21
-44.4555
-1116.41
-26.7466
-1101.55
-4.34576
-1061.32
22.6315
-980.56
53.6936
-838.013
87.8331
-602.772
132.76
-138.79
153.349
475
148.63
924.543
125.225
1301.26
92.3355
1614.8
68.9348
1919.18
47.8532
2124.29
44.0212
2433.21
27.8729
2430
46.2258
2900.55
3176.78
-18.0766
-55.2466
-17.9126
-72.0678
-17.9033
-82.5333
-17.9611
-93.4513
-18.109
-104.003
-18.3209
-114.293
-18.6019
-124.458
-18.9433
-134.513
-19.3459
-144.539
-19.8063
-154.57
-20.3243
-164.657
-20.8983
-174.833
-21.5281
-185.138
-22.213
-195.601
-22.953
-206.256
-23.7478
-217.129
-24.5977
-228.249
-25.503
-239.642
-26.4642
-251.332
-27.4819
-263.344
-28.5571
-275.701
-29.6906
-288.427
-30.8836
-301.543
-32.1373
-315.073
-33.4533
-329.038
-34.8329
-343.46
-36.2778
-358.362
-37.7899
-373.766
-39.3708
-389.693
-41.0224
-406.167
-42.7464
-423.211
-44.5447
-440.847
-46.4185
-459.098
-48.369
-477.987
-50.3965
-497.536
-52.5005
-517.769
-54.6795
-538.703
-56.93
-560.356
-59.2462
-582.74
-61.6197
-605.861
-64.0384
-629.714
-66.4859
-654.281
-68.9413
-679.525
-71.3786
-705.386
-73.7672
-731.774
-76.0729
-758.563
-78.2597
-785.594
-80.2923
-812.672
-82.1384
-839.582
-83.771
-866.103
-85.1673
-892.037
-86.3066
-917.234
-87.1638
-941.618
-87.7008
-965.184
-87.8577
-987.995
-87.5413
-1010.14
-86.6101
-1031.73
-84.8445
-1052.84
-81.9016
-1073.51
-77.2713
-1093.46
-70.291
-1111.59
-60.2233
-1125.28
-46.3189
-1130.31
-27.895
-1119.98
-4.46511
-1084.75
23.9431
-1008.97
57.0802
-871.15
93.7127
-639.405
141.964
-187.041
167.884
449.08
166.639
925.788
143.731
1324.17
106.19
1652.34
76.2265
1949.14
50.8658
2149.65
43.8523
2440.22
25.6539
2448.19
40.6723
2885.53
3153.43
-18.8008
-55.509
-18.6456
-72.2229
-18.6408
-82.5382
-18.7064
-93.3856
-18.8637
-103.846
-19.0879
-114.069
-19.3833
-124.162
-19.7416
-134.154
-20.1633
-144.117
-20.6451
-154.088
-21.1864
-164.115
-21.786
-174.234
-22.4433
-184.48
-23.1576
-194.887
-23.929
-205.484
-24.7572
-216.301
-25.6424
-227.364
-26.585
-238.699
-27.5854
-250.332
-28.6444
-262.285
-29.7628
-274.583
-30.9415
-287.248
-32.1818
-300.303
-33.485
-313.77
-34.8525
-327.67
-36.2858
-342.027
-37.7867
-356.861
-39.3569
-372.195
-40.9983
-388.052
-42.7128
-404.453
-44.5022
-421.421
-46.3682
-438.981
-48.3123
-457.153
-50.3354
-475.963
-52.4381
-495.434
-54.6198
-515.587
-56.8785
-536.444
-59.2107
-558.023
-61.6102
-580.34
-64.068
-603.403
-66.5712
-627.211
-69.1024
-651.75
-71.6392
-676.989
-74.1539
-702.872
-76.614
-729.314
-78.9832
-756.194
-81.2234
-783.353
-83.2976
-810.598
-85.1729
-837.707
-86.8224
-864.453
-88.2253
-890.634
-89.3633
-916.096
-90.2144
-940.766
-90.7437
-964.655
-90.8936
-987.845
-90.5726
-1010.46
-89.6408
-1032.66
-87.8769
-1054.61
-84.9272
-1076.46
-80.2536
-1098.13
-73.1504
-1118.69
-62.8335
-1135.59
-48.4992
-1144.65
-29.4013
-1139.08
-4.97224
-1109.18
24.8711
-1038.81
60.1092
-906.388
99.2876
-678.583
150.992
-238.745
182.558
417.514
184.868
923.478
163.327
1345.71
122.306
1693.36
85.331
1986.12
54.5941
2180.39
43.8998
2450.92
23.4769
2468.62
39.2306
2869.78
3135.31
-19.5183
-55.764
-19.3735
-72.3678
-19.3745
-82.5371
-19.4492
-93.311
-19.6169
-103.678
-19.854
-113.832
-20.1647
-123.852
-20.5406
-133.778
-20.9821
-143.676
-21.4857
-153.585
-22.0511
-163.55
-22.6767
-173.608
-23.362
-183.795
-24.1064
-194.143
-24.9096
-204.681
-25.7717
-215.439
-26.6928
-226.443
-27.6732
-237.719
-28.7134
-249.292
-29.8141
-261.184
-30.9762
-273.421
-32.2007
-286.024
-33.4889
-299.015
-34.842
-312.416
-36.2615
-326.251
-37.7491
-340.539
-39.3065
-355.304
-40.9356
-370.566
-42.6382
-386.349
-44.4162
-402.675
-46.2716
-419.566
-48.2061
-437.046
-50.2212
-455.138
-52.318
-473.867
-54.4968
-493.255
-56.757
-513.327
-59.0967
-534.104
-61.5119
-555.608
-63.9962
-577.856
-66.54
-600.859
-69.1297
-624.621
-71.7467
-649.133
-74.3675
-674.368
-76.9624
-700.277
-79.4971
-726.779
-81.9329
-753.758
-84.2296
-781.057
-86.3485
-808.479
-88.256
-835.799
-89.9255
-862.784
-91.3379
-889.221
-92.478
-914.956
-93.3273
-939.917
-93.8545
-964.128
-94.0048
-987.694
-93.6899
-1010.78
-92.7723
-1033.58
-91.0318
-1056.35
-88.1056
-1079.39
-83.4271
-1102.81
-76.2457
-1125.87
-65.7283
-1146.11
-51.0139
-1159.36
-31.2883
-1158.8
-5.89724
-1134.57
25.3765
-1070.09
62.7234
-943.735
104.502
-720.361
159.81
-294.054
197.429
379.895
203.32
917.588
183.597
1365.43
140.312
1736.65
96.3901
2030.04
59.1655
2217.61
44.0789
2466
21.1026
2491.59
31.5221
2859.36
3125.78
-20.23
-56.0101
-20.0966
-72.5013
-20.1049
-82.5288
-20.1897
-93.2262
-20.3687
-103.499
-20.6198
-113.581
-20.9464
-123.525
-21.3406
-133.384
-21.8024
-143.214
-22.3287
-153.058
-22.9186
-162.96
-23.5708
-172.956
-24.2847
-183.081
-25.0596
-193.368
-25.8954
-203.845
-26.7919
-214.543
-27.7493
-225.486
-28.768
-236.7
-29.8485
-248.211
-30.9915
-260.041
-32.1979
-272.214
-33.4687
-284.753
-34.8053
-297.678
-36.2089
-311.013
-37.6811
-324.778
-39.2236
-338.997
-40.8381
-353.689
-42.5266
-368.878
-44.2911
-384.585
-46.1334
-400.833
-48.0555
-417.644
-50.0593
-435.042
-52.1463
-453.051
-54.3176
-471.695
-56.5735
-490.999
-58.9133
-510.987
-61.3351
-531.682
-63.8348
-553.109
-66.4054
-575.285
-69.0371
-598.228
-71.7153
-621.943
-74.4206
-646.427
-77.1279
-671.661
-79.8061
-697.598
-82.4185
-724.166
-84.9243
-751.252
-87.2809
-778.7
-89.448
-806.312
-91.3907
-833.857
-93.0831
-861.092
-94.508
-887.796
-95.6536
-913.811
-96.5054
-939.065
-97.0361
-963.597
-97.1947
-987.536
-96.8963
-1011.08
-96.0083
-1034.47
-94.3137
-1058.04
-91.4429
-1082.26
-86.8
-1107.45
-79.5877
-1133.09
-68.9219
-1156.78
-53.8813
-1174.4
-33.5799
-1179.1
-7.27199
-1160.88
25.4173
-1102.77
64.8611
-983.179
109.31
-764.811
168.407
-353.15
212.515
335.787
222.04
908.064
204.32
1383.15
159.749
1781.22
109.396
2080.39
64.7726
2262.24
44.4714
2486.3
18.8511
2517.21
29.4096
2848.8
3113.09
-20.9365
-56.246
-20.8155
-72.6223
-20.8324
-82.5119
-20.9283
-93.1303
-21.1196
-103.308
-21.3854
-113.315
-21.7287
-123.182
-22.1419
-132.971
-22.6248
-142.731
-23.1742
-152.509
-23.7893
-162.345
-24.4687
-172.276
-25.2117
-182.338
-26.0177
-192.562
-26.8865
-202.977
-27.818
-213.611
-28.8124
-224.491
-29.8699
-235.643
-30.9912
-247.09
-32.1771
-258.856
-33.4283
-270.963
-34.746
-283.435
-36.1316
-296.293
-37.5863
-309.558
-39.1118
-323.253
-40.7098
-337.399
-42.3822
-352.017
-44.1308
-367.129
-45.9578
-382.758
-47.8651
-398.925
-49.8548
-415.654
-51.9287
-432.968
-54.0885
-450.892
-56.3352
-469.449
-58.6692
-488.665
-61.0899
-508.566
-63.5951
-529.177
-66.1806
-550.523
-68.8393
-572.627
-71.5607
-595.506
-74.3296
-619.174
-77.1257
-643.631
-79.9225
-668.864
-82.6871
-694.834
-85.3806
-721.473
-87.9599
-748.673
-90.3801
-776.28
-92.5987
-804.093
-94.5799
-831.875
-96.2983
-859.373
-97.7388
-886.356
-98.8933
-912.656
-99.7519
-938.207
-100.292
-963.057
-100.466
-987.361
-100.195
-1011.35
-99.3523
-1035.31
-97.7269
-1059.67
-94.9448
-1085.04
-90.3804
-1112.02
-83.1874
-1140.28
-72.429
-1167.54
-57.1204
-1189.71
-36.3017
-1199.92
-9.13046
-1188.05
24.9477
-1136.85
66.456
-1024.69
113.668
-812.023
176.69
-416.173
227.717
284.76
241.033
894.748
225.443
1398.74
180.184
1826.48
124.198
2136.38
71.6591
2314.78
45.2035
2512.76
16.5688
2545.85
22.9168
2842.45
3111.44
-21.6383
-56.4706
-21.5306
-72.7299
-21.5572
-82.4853
-21.6653
-93.0222
-21.8698
-103.103
-22.1512
-113.033
-22.512
-122.821
-22.9449
-132.538
-23.4495
-142.227
-24.0227
-151.936
-24.6636
-161.704
-25.3708
-171.569
-26.1435
-181.565
-26.9812
-191.724
-27.8837
-202.074
-28.8507
-212.644
-29.8825
-223.46
-30.9795
-234.546
-32.1422
-245.927
-33.3714
-257.626
-34.6681
-269.667
-36.0334
-282.07
-37.4685
-294.857
-38.975
-308.052
-40.5544
-321.673
-42.2086
-335.744
-43.9395
-350.286
-45.749
-365.32
-47.6392
-380.868
-49.6123
-396.952
-51.6704
-413.596
-53.8153
-430.823
-56.0487
-448.658
-58.3719
-467.126
-60.7851
-486.252
-63.2879
-506.063
-65.8779
-526.587
-68.5508
-547.85
-71.2993
-569.878
-74.1124
-592.693
-76.9744
-616.312
-79.8639
-640.742
-82.7531
-665.975
-85.6074
-691.98
-88.3857
-718.695
-91.0424
-746.016
-93.5299
-773.792
-95.8036
-801.82
-97.8268
-829.852
-99.5743
-857.626
-101.033
-884.897
-102.2
-911.489
-103.07
-937.337
-103.625
-962.502
-103.823
-987.163
-103.59
-1011.58
-102.808
-1036.09
-101.276
-1061.2
-98.6172
-1087.7
-94.1766
-1116.46
-87.0564
-1147.4
-76.2646
-1178.33
-60.7515
-1205.23
-39.4806
-1221.19
-11.5087
-1216.02
23.9175
-1172.28
67.4379
-1068.21
117.518
-862.103
184.502
-483.157
242.955
226.307
260.267
877.436
247.002
1412
201.287
1872.19
140.54
2197.13
80.0776
2375.24
46.529
2546.31
14.5621
2577.82
18.3853
2838.63
3100.87
-22.336
-56.6829
-22.2425
-72.8234
-22.28
-82.4478
-22.4012
-92.901
-22.6198
-102.885
-22.9176
-112.736
-23.2966
-122.442
-23.7499
-132.085
-24.2769
-141.7
-24.8746
-151.338
-25.5419
-161.036
-26.2775
-170.834
-27.0806
-180.762
-27.9505
-190.854
-28.8872
-201.138
-29.8903
-211.641
-30.9602
-222.39
-32.0972
-233.409
-33.302
-244.722
-34.5752
-256.353
-35.9179
-268.324
-37.3313
-280.656
-38.8167
-293.372
-40.3756
-306.493
-42.0096
-320.039
-43.7207
-334.033
-45.5108
-348.496
-47.3819
-363.449
-49.3362
-378.913
-51.376
-394.912
-53.5032
-411.469
-55.72
-428.607
-58.0281
-446.35
-60.4288
-464.725
-62.9224
-483.758
-65.5085
-503.477
-68.1847
-523.911
-70.9466
-545.088
-73.7867
-567.038
-76.6937
-589.786
-79.6512
-613.355
-82.6369
-637.756
-85.6217
-662.99
-88.5693
-689.032
-91.4363
-715.828
-94.1744
-743.278
-96.7332
-771.234
-99.066
-799.487
-101.135
-827.784
-102.914
-855.846
-104.395
-883.416
-105.578
-910.307
-106.463
-936.452
-107.039
-961.926
-107.269
-986.933
-107.084
-1011.77
-106.379
-1036.8
-104.964
-1062.62
-102.466
-1090.2
-98.1971
-1120.73
-91.2064
-1154.39
-80.445
-1189.09
-64.7959
-1220.87
-43.1455
-1242.84
-14.445
-1244.72
22.2718
-1209
67.7353
-1113.67
120.792
-915.159
191.416
-553.78
257.998
159.724
279.646
855.788
269.054
1422.6
222.861
1918.39
158.117
2261.87
90.2152
2443.14
48.8569
2587.67
13.0513
2613.62
19.3439
2832.34
3088.38
-23.0302
-56.882
-22.9516
-72.9019
-23.001
-82.3984
-23.1363
-92.7657
-23.3699
-102.651
-23.6848
-112.421
-24.0829
-122.044
-24.5573
-131.61
-25.1074
-141.149
-25.7302
-150.715
-26.4246
-160.342
-27.1892
-170.069
-28.0233
-179.928
-28.9261
-189.951
-29.8976
-200.166
-30.9375
-210.601
-32.046
-221.281
-33.2237
-232.231
-34.471
-243.475
-35.7889
-255.035
-37.1783
-266.934
-38.6405
-279.194
-40.1768
-291.836
-41.7888
-304.881
-43.4782
-318.35
-45.247
-332.265
-47.097
-346.646
-49.0305
-361.515
-51.0497
-376.894
-53.1569
-392.805
-55.3543
-409.272
-57.644
-426.317
-60.0278
-443.966
-62.5071
-462.246
-65.0823
-481.183
-67.7531
-500.807
-70.517
-521.147
-73.3696
-542.236
-76.3033
-564.104
-79.3063
-586.783
-82.3618
-610.299
-85.4467
-634.671
-88.5306
-659.906
-91.5752
-685.987
-94.535
-712.868
-97.3587
-740.455
-99.9933
-768.599
-102.389
-797.091
-104.507
-825.666
-106.322
-854.03
-107.828
-881.91
-109.03
-909.105
-109.935
-935.547
-110.537
-961.324
-110.806
-986.664
-110.681
-1011.89
-110.068
-1037.41