/*--------------------------------*- C++ -*----------------------------------*\
| =========                 |                                                 |
| \\      /  F ield         | OpenFOAM: The Open Source CFD Toolbox           |
|  \\    /   O peration     | Version:  4.1                                   |
|   \\  /    A nd           | Web:      www.OpenFOAM.org                      |
|    \\/     M anipulation  |                                                 |
\*---------------------------------------------------------------------------*/
FoamFile
{
    version     2.0;
    format      ascii;
    class       volScalarField;
    location    "12";
    object      p;
}
// * * * * * * * * * * * * * * * * * * * * * * * * * * * * * * * * * * * * * //

dimensions      [0 2 -2 0 0 0 0];

internalField   nonuniform List<scalar> 
225
(
523.377
469.981
418.149
369.738
324.847
282.83
243.475
206.471
171.377
138.013
107.071
78.9322
49.9033
14.9845
-14.1677
56.9431
34.6822
28.9235
25.2133
19.7392
14.0317
8.87883
4.49007
1.00615
-1.4526
-2.64389
-2.14224
-0.0457973
1.82573
2.08591
-45.8392
-52.4822
-46.7153
-42.5684
-39.4778
-35.8825
-31.9961
-28.0588
-24.1544
-20.4385
-17.093
-14.0259
-10.9491
-8.29626
-7.06201
0.294503
-2.12353
2.46925
2.79342
2.847
3.0622
2.97307
2.59578
2.01422
1.25505
0.298312
-0.811023
-1.72131
-1.87355
-1.56308
16.7224
14.3896
15.9433
13.8454
12.4265
11.183
9.77303
8.39118
7.13375
6.0427
5.1417
4.42916
3.95158
3.91886
4.16372
7.49426
5.47125
6.44522
5.22591
5.0229
5.00713
4.91936
4.95268
5.10828
5.35178
5.67108
6.03395
6.35361
6.61032
6.78506
4.0227
2.86727
3.95285
3.62976
4.01659
4.41073
4.70972
5.06038
5.41695
5.74172
6.03142
6.28533
6.46355
6.54457
6.56028
5.70048
5.14269
5.99705
5.76807
5.9666
6.07911
6.10301
6.1483
6.17288
6.16804
6.14433
6.11652
6.08286
6.037
5.98851
6.00797
5.68259
6.19342
5.91752
5.96032
5.92946
5.85434
5.8072
5.75154
5.69093
5.63164
5.5785
5.53176
5.48565
5.43443
4.68822
4.48052
4.82612
4.64965
4.72234
4.73124
4.71831
4.72649
4.72388
4.71711
4.70751
4.69278
4.67056
4.63528
4.57754
3.31757
3.20134
3.49892
3.44497
3.5646
3.61132
3.64
3.67502
3.6917
3.69861
3.69665
3.68416
3.66013
3.62188
3.55634
2.34315
2.28297
2.53727
2.53866
2.65711
2.69857
2.72772
2.75485
2.76242
2.76034
2.74892
2.728
2.69813
2.65936
2.59473
1.56464
1.52973
1.73221
1.74612
1.84537
1.87178
1.89413
1.91124
1.91155
1.90468
1.89009
1.86783
1.83826
1.80352
1.74566
0.880837
0.868783
1.02975
1.0344
1.11133
1.12487
1.14265
1.1547
1.15412
1.14916
1.13827
1.12125
1.09626
1.06511
1.0109
0.438865
0.399558
0.455362
0.423183
0.459279
0.440574
0.434224
0.420168
0.399267
0.376578
0.349961
0.321268
0.290831
0.260884
0.217875
)
;

boundaryField
{
    inletFace
    {
        type            zeroGradient;
    }
    inlet
    {
        type            zeroGradient;
    }
    inletWalls
    {
        type            zeroGradient;
    }
    outletInlet
    {
        type            fixedValue;
        value           uniform 0;
    }
}


// ************************************************************************* //
