/*--------------------------------*- C++ -*----------------------------------*\
| =========                 |                                                 |
| \\      /  F ield         | OpenFOAM: The Open Source CFD Toolbox           |
|  \\    /   O peration     | Version:  4.1                                   |
|   \\  /    A nd           | Web:      www.OpenFOAM.org                      |
|    \\/     M anipulation  |                                                 |
\*---------------------------------------------------------------------------*/
FoamFile
{
    version     2.0;
    format      ascii;
    class       surfaceScalarField;
    location    "12";
    object      phi;
}
// * * * * * * * * * * * * * * * * * * * * * * * * * * * * * * * * * * * * * //

dimensions      [0 3 -1 0 0 0 0];

internalField   nonuniform List<scalar> 
420
(
-949.879
2249.78
-1573.95
1924.28
-2054
1779.95
-2424.23
1670.13
-2699.86
1575.82
-2888.38
1488.42
-2993.05
1404.58
-3013.85
1321
-2949.61
1235.66
-2797.23
1147.52
-2551.17
1054.13
-2193
941.735
-1687.16
794.065
-1012.67
625.703
287.232
373.336
1876.44
442.749
1854.86
437.302
1785.39
406.698
1700.74
380.58
1601.94
359.901
1509.1
345.293
1419.19
337.536
1328.76
333.484
1239.71
326.953
1154.05
309.61
1071.48
267.468
983.877
191.429
870.104
111.448
705.684
398.68
33.5758
1842.87
-97.388
1985.83
-253.612
1941.62
-371.119
1818.24
-473.182
1704.01
-567.531
1603.45
-651.746
1503.4
-725.794
1402.8
-788.071
1301.99
-837.303
1203.28
-868.222
1102.4
-856.084
971.739
-740.332
754.352
-434.284
399.637
-35.6036
28.7751
1814.09
-100.652
2115.25
-225.56
2066.52
-304.496
1897.18
-368.156
1767.67
-416.953
1652.24
-446.228
1532.68
-457.015
1413.59
-451.853
1296.83
-430.154
1181.58
-387.226
1059.47
-311.872
896.386
-192.864
635.345
-48.4078
255.181
-84.0111
169.624
1644.47
146.157
2138.72
123.732
2088.95
122.87
1898.04
126.942
1763.6
135.806
1643.38
149.103
1519.38
166.592
1396.1
186.943
1276.47
208.131
1160.4
229.131
1038.47
243.822
881.695
233.005
646.162
155.231
332.955
71.2205
223.073
1421.4
244.18
2117.62
234.744
2098.39
236.022
1896.76
240.371
1759.25
244.305
1639.45
246.547
1517.14
245.25
1397.4
241.161
1280.56
233.988
1167.57
221.382
1051.07
199.139
903.939
156.142
689.161
78.3031
410.794
149.523
203.314
1218.09
238.368
2082.57
213.614
2123.14
191.404
1918.97
177.196
1773.45
163.764
1652.88
150.031
1530.87
135.889
1411.54
121.064
1295.39
106.913
1181.72
92.8175
1065.17
75.768
920.988
52.0228
712.906
19.0217
443.795
168.545
171.846
1046.24
221.969
2032.44
199.41
2145.7
170.394
1947.99
152.044
1791.8
137.663
1667.26
122.777
1545.76
108.579
1425.74
95.5852
1308.38
83.1072
1194.2
71.4879
1076.79
58.6381
933.837
40.3272
731.217
15.7514
468.372
184.298
146.085
900.153
210.039
1968.48
196.859
2158.88
170.043
1974.81
152.399
1809.45
139.535
1680.13
127.075
1558.23
113.872
1438.95
101.328
1320.93
89.4296
1206.1
76.9949
1089.23
63.0979
947.737
44.3155
750.003
19.1737
493.518
203.473
116.752
783.401
184.844
1900.4
179.626
2164.1
154.316
2000.13
137.231
1826.54
124.012
1693.35
111.381
1570.86
98.9734
1451.36
86.1204
1333.79
73.8797
1218.35
62.1145
1100.99
49.0382
960.82
32.8705
766.179
13.1955
513.195
216.662
83.1672
700.243
143.146
1840.43
144.699
2162.55
122.772
2022.05
106.16
1843.15
94.4639
1705.04
82.5787
1582.74
71.1665
1462.77
60.3835
1344.56
49.4568
1229.27
39.424
1111.02
29.7474
970.501
18.0905
777.838
5.25053
526.036
221.9
51.2557
648.998
97.9317
1793.75
102.713
2157.76
87.3754
2037.37
73.1399
1857.37
63.1266
1715.04
54.2335
1591.63
44.8523
1472.14
36.1439
1353.26
28.1705
1237.24
20.4275
1118.76
13.6801
977.227
6.73254
784.764
-0.413406
533.17
221.48
25.1166
623.861
57.6915
1761.16
63.4796
2151.97
53.4288
2047.41
43.8516
1866.95
36.1508
1722.75
29.5276
1598.25
23.4842
1478.18
17.0434
1359.71
11.3021
1242.98
6.60123
1123.46
2.47356
981.357
-1.0722
788.315
-3.68101
535.789
217.804
1.39085
622.442
24.0329
1738.52
33.3455
2142.67
27.719
2053.04
20.3723
1874.31
15.0766
1728.06
9.53516
1603.79
4.58601
1483.14
0.036067
1364.26
-4.83834
1247.86
-8.35242
1126.98
-9.66106
982.679
-9.72428
788.396
-7.13718
533.212
210.661
-11.7408
-3.1295
1.47303
-0.372814
-5.06933
-8.82236
-11.7711
-15.2119
-18.0739
-20.2075
-21.7699
-21.1073
-18.1215
-12.3927
)
;

boundaryField
{
    inletFace
    {
        type            calculated;
        value           nonuniform List<scalar> 
450
(
1.95644e-14
7.11835e-13
-4.7783e-14
-1.96788e-13
9.53132e-14
-1.87033e-13
-6.72819e-14
6.85641e-14
-1.01103e-13
-2.42529e-14
6.20165e-14
-2.48728e-14
-9.98385e-15
5.01067e-15
7.07832e-16
-2.08547e-12
-2.42146e-12
1.306e-13
-1.95681e-13
-2.49938e-13
7.72611e-15
-2.80309e-13
-1.08124e-13
2.14334e-15
-1.6485e-13
-5.7666e-14
5.30577e-14
-8.3779e-15
-4.5508e-15
-1.38765e-15
-2.3794e-12
-2.54623e-12
-1.53406e-14
-2.75653e-13
-2.04013e-13
-9.58533e-14
-2.74595e-13
-9.03351e-14
-6.22166e-14
-1.36932e-13
-4.04984e-14
-1.33292e-14
-1.19e-14
1.21875e-14
2.48861e-15
-2.71681e-12
-2.16263e-12
-9.63081e-14
-5.66829e-13
-1.84686e-13
-2.04211e-13
-4.11673e-13
-1.13144e-13
-9.86433e-14
-1.46116e-13
-5.23762e-14
-6.91724e-14
-8.41706e-14
3.27652e-14
7.01197e-14
-2.48807e-12
-2.18272e-12
-2.51843e-13
-5.23167e-13
-1.84998e-13
-2.31591e-13
-4.1979e-13
-1.09231e-13
-6.62006e-14
-1.27046e-13
-6.19957e-14
-5.65809e-14
-6.32092e-14
-7.38751e-17
6.14693e-14
-2.17575e-12
-2.26883e-12
-4.55573e-13
-4.52598e-13
-1.7368e-13
-2.02265e-13
-3.76345e-13
-1.07289e-13
-3.82892e-14
-1.22582e-13
-5.04996e-14
-1.75744e-14
-3.3775e-14
1.60863e-14
3.64066e-14
-1.95353e-12
-2.32936e-12
-7.16004e-13
-4.42257e-13
-2.15352e-13
-2.16581e-13
-3.5151e-13
-1.59764e-13
-1.20092e-13
-1.42683e-13
-8.24332e-14
-7.65511e-14
-5.36615e-14
-6.4712e-14
-1.29367e-13
-1.71493e-12
-2.33234e-12
-9.23093e-13
-4.56938e-13
-2.51784e-13
-2.37219e-13
-3.35372e-13
-1.98378e-13
-1.76512e-13
-1.55288e-13
-1.24269e-13
-1.20431e-13
-6.18242e-14
-2.39021e-14
-2.33365e-13
-1.42667e-12
-2.29484e-12
-1.08208e-12
-5.1949e-13
-2.76748e-13
-2.18372e-13
-3.09261e-13
-2.13523e-13
-1.55799e-13
-1.26389e-13
-1.23011e-13
-9.26067e-14
-5.16848e-14
-1.33889e-14
-6.60625e-14
-1.2177e-12
-2.23118e-12
-1.20556e-12
-5.67323e-13
-3.02705e-13
-2.04673e-13
-2.91369e-13
-2.17356e-13
-1.20494e-13
-1.30378e-13
-1.20278e-13
-6.76688e-14
-3.5538e-14
-5.16942e-14
6.04863e-14
-1.02647e-12
-2.15459e-12
-1.28612e-12
-5.68618e-13
-3.17447e-13
-2.0264e-13
-2.59645e-13
-2.10215e-13
-1.06909e-13
-1.34607e-13
-1.25057e-13
-5.63747e-14
1.15988e-14
-4.43941e-14
9.06726e-14
-8.81995e-13
-2.08433e-12
-1.31424e-12
-6.01255e-13
-3.16035e-13
-1.68038e-13
-2.49141e-13
-2.16537e-13
-1.01018e-13
-1.1341e-13
-1.34235e-13
-1.30398e-14
-2.94515e-14
1.22683e-13
1.47076e-13
-7.96879e-13
-2.014e-12
-1.3344e-12
-6.34792e-13
-3.28736e-13
-1.5954e-13
-2.43867e-13
-2.44157e-13
-1.11157e-13
-1.01733e-13
-1.29747e-13
-5.35394e-15
-2.72429e-14
1.36472e-13
1.33452e-13
-7.35986e-13
-1.95413e-12
-1.35681e-12
-6.53365e-13
-3.4146e-13
-1.65299e-13
-2.35667e-13
-2.61398e-13
-1.00361e-13
-1.11735e-13
-1.33786e-13
-6.64842e-15
-1.14542e-14
9.47462e-14
1.11285e-13
-7.1629e-13
-1.87786e-12
-1.35431e-12
-6.69386e-13
-3.45724e-13
-1.74616e-13
-2.35656e-13
-2.45148e-13
-1.03294e-13
-1.14984e-13
-1.20641e-13
-1.33903e-14
-1.07985e-14
8.76488e-14
6.41313e-14
-1.95644e-14
-7.11835e-13
4.7783e-14
1.96788e-13
-9.53132e-14
1.87033e-13
6.72819e-14
-6.85641e-14
1.01103e-13
2.42529e-14
-6.20165e-14
2.48728e-14
9.98385e-15
-5.01067e-15
-7.07832e-16
2.08547e-12
2.42146e-12
-1.306e-13
1.95681e-13
2.49938e-13
-7.72611e-15
2.80309e-13
1.08124e-13
-2.14334e-15
1.6485e-13
5.7666e-14
-5.30577e-14
8.3779e-15
4.5508e-15
1.38765e-15
2.3794e-12
2.54623e-12
1.53406e-14
2.75653e-13
2.04013e-13
9.58533e-14
2.74595e-13
9.03351e-14
6.22166e-14
1.36932e-13
4.04984e-14
1.33292e-14
1.19e-14
-1.21875e-14
-2.48861e-15
2.71681e-12
2.16263e-12
9.63081e-14
5.66829e-13
1.84686e-13
2.04211e-13
4.11673e-13
1.13144e-13
9.86433e-14
1.46116e-13
5.23762e-14
6.91724e-14
8.41706e-14
-3.27652e-14
-7.01197e-14
2.48807e-12
2.18272e-12
2.51843e-13
5.23167e-13
1.84998e-13
2.31591e-13
4.1979e-13
1.09231e-13
6.62006e-14
1.27046e-13
6.19957e-14
5.65809e-14
6.32092e-14
7.38751e-17
-6.14693e-14
2.17575e-12
2.26883e-12
4.55573e-13
4.52598e-13
1.7368e-13
2.02265e-13
3.76345e-13
1.07289e-13
3.82892e-14
1.22582e-13
5.04996e-14
1.75744e-14
3.3775e-14
-1.60863e-14
-3.64066e-14
1.95353e-12
2.32936e-12
7.16004e-13
4.42257e-13
2.15352e-13
2.16581e-13
3.5151e-13
1.59764e-13
1.20092e-13
1.42683e-13
8.24332e-14
7.65511e-14
5.36615e-14
6.4712e-14
1.29367e-13
1.71493e-12
2.33234e-12
9.23093e-13
4.56938e-13
2.51784e-13
2.37219e-13
3.35372e-13
1.98378e-13
1.76512e-13
1.55288e-13
1.24269e-13
1.20431e-13
6.18242e-14
2.39021e-14
2.33365e-13
1.42667e-12
2.29484e-12
1.08208e-12
5.1949e-13
2.76748e-13
2.18372e-13
3.09261e-13
2.13523e-13
1.55799e-13
1.26389e-13
1.23011e-13
9.26067e-14
5.16848e-14
1.33889e-14
6.60625e-14
1.2177e-12
2.23118e-12
1.20556e-12
5.67323e-13
3.02705e-13
2.04673e-13
2.91369e-13
2.17356e-13
1.20494e-13
1.30378e-13
1.20278e-13
6.76688e-14
3.5538e-14
5.16942e-14
-6.04863e-14
1.02647e-12
2.15459e-12
1.28612e-12
5.68618e-13
3.17447e-13
2.0264e-13
2.59645e-13
2.10215e-13
1.06909e-13
1.34607e-13
1.25057e-13
5.63747e-14
-1.15988e-14
4.43941e-14
-9.06726e-14
8.81995e-13
2.08433e-12
1.31424e-12
6.01255e-13
3.16035e-13
1.68038e-13
2.49141e-13
2.16537e-13
1.01018e-13
1.1341e-13
1.34235e-13
1.30398e-14
2.94515e-14
-1.22683e-13
-1.47076e-13
7.96879e-13
2.014e-12
1.3344e-12
6.34792e-13
3.28736e-13
1.5954e-13
2.43867e-13
2.44157e-13
1.11157e-13
1.01733e-13
1.29747e-13
5.35394e-15
2.72429e-14
-1.36472e-13
-1.33452e-13
7.35986e-13
1.95413e-12
1.35681e-12
6.53365e-13
3.4146e-13
1.65299e-13
2.35667e-13
2.61398e-13
1.00361e-13
1.11735e-13
1.33786e-13
6.64842e-15
1.14542e-14
-9.47462e-14
-1.11285e-13
7.1629e-13
1.87786e-12
1.35431e-12
6.69386e-13
3.45724e-13
1.74616e-13
2.35656e-13
2.45148e-13
1.03294e-13
1.14984e-13
1.20641e-13
1.33903e-14
1.07985e-14
-8.76488e-14
-6.41313e-14
)
;
    }
    inlet
    {
        type            calculated;
        value           nonuniform List<scalar> 
15
(
-1299.9
-1300.2
-1299.9
-1299.9
-1300.2
-1299.9
-1299.9
-1300.2
-1299.9
-1299.9
-1300.2
-1299.9
-1299.9
-1300.2
-1299.9
)
;
    }
    inletWalls
    {
        type            calculated;
        value           uniform 0;
    }
    outletInlet
    {
        type            calculated;
        value           nonuniform List<scalar> 
15
(
198.264
527.474
785.409
982.018
1128.55
1249.99
1367.13
1486.58
1606.74
1731.81
1879.01
2054.9
2138.08
1729.92
634.178
)
;
    }
}


// ************************************************************************* //
