/*--------------------------------*- C++ -*----------------------------------*\
| =========                 |                                                 |
| \\      /  F ield         | OpenFOAM: The Open Source CFD Toolbox           |
|  \\    /   O peration     | Version:  4.1                                   |
|   \\  /    A nd           | Web:      www.OpenFOAM.org                      |
|    \\/     M anipulation  |                                                 |
\*---------------------------------------------------------------------------*/
FoamFile
{
    version     2.0;
    format      ascii;
    class       volVectorField;
    location    "12";
    object      U;
}
// * * * * * * * * * * * * * * * * * * * * * * * * * * * * * * * * * * * * * //

dimensions      [0 1 -1 0 0 0 0];

internalField   nonuniform List<vector> 
225
(
(1.08957e-14 0.852191 15.7946)
(8.35559e-15 -4.89458 12.1215)
(-3.47909e-15 -4.19551 12.1321)
(3.0822e-15 -3.60119 11.9966)
(9.43692e-16 -3.00468 11.8778)
(-2.38082e-16 -2.55319 11.6992)
(1.96205e-15 -2.20881 11.4769)
(2.69861e-16 -1.96603 11.2116)
(-5.56885e-17 -1.79855 10.916)
(9.51065e-16 -1.71238 10.5882)
(-1.32988e-17 -1.83746 10.1561)
(-2.85537e-16 -2.28568 9.53762)
(3.35688e-16 -2.51302 8.96378)
(-3.4688e-17 -1.06552 8.91357)
(-4.90019e-18 1.76574 7.47092)
(1.51269e-14 -5.35016 22.493)
(1.67652e-14 -14.6049 21.394)
(-9.0412e-16 -13.2708 20.3411)
(1.5415e-15 -11.7697 19.5066)
(1.73047e-15 -11.1561 18.5043)
(-5.34863e-17 -10.6594 17.5174)
(2.05128e-15 -10.0901 16.5714)
(7.4861e-16 -9.525 15.6236)
(-1.48379e-17 -8.96544 14.6638)
(1.12487e-15 -8.36731 13.6946)
(3.99256e-16 -7.75709 12.7179)
(-3.67308e-16 -7.30335 11.7194)
(5.66018e-17 -7.01705 10.6244)
(3.15079e-17 -5.73093 9.16113)
(9.60641e-18 -2.30501 4.5832)
(1.85179e-14 -7.71565 23.9801)
(1.72314e-14 -16.7731 24.6729)
(1.06213e-16 -13.7365 23.9372)
(3.42764e-15 -12.3062 22.6249)
(1.41234e-15 -11.6447 21.2414)
(6.63652e-16 -10.814 20.0013)
(3.04096e-15 -9.94025 18.7738)
(6.25374e-16 -9.10011 17.5247)
(4.30764e-16 -8.28338 16.2654)
(1.53982e-15 -7.47524 15.0263)
(2.80363e-16 -6.66762 13.8176)
(9.2286e-17 -5.84165 12.4301)
(5.65704e-16 -4.8139 10.2753)
(-8.43721e-17 -3.12627 6.68444)
(-1.72302e-17 -0.832142 1.68992)
(1.88011e-14 -8.50259 22.0462)
(1.49716e-14 -16.621 24.332)
(6.6673e-16 -12.93 23.7971)
(3.92454e-15 -12.1536 21.9985)
(1.20735e-15 -11.4201 20.5028)
(1.46237e-15 -10.4936 19.1722)
(2.85029e-15 -9.63387 17.8167)
(7.04294e-16 -8.82359 16.459)
(7.10746e-16 -8.05363 15.123)
(9.96756e-16 -7.32377 13.8164)
(3.54462e-16 -6.55246 12.4394)
(4.69514e-16 -5.49088 10.583)
(5.57944e-16 -3.78526 7.50868)
(-3.42081e-17 -1.49367 2.76606)
(-6.77475e-16 0.153273 -1.77298)
(1.70129e-14 -8.47615 19.748)
(1.47664e-14 -16.3601 24.312)
(1.56516e-15 -13.099 23.6602)
(3.4272e-15 -12.628 21.5365)
(9.69783e-16 -11.8565 20.0248)
(1.49335e-15 -10.9574 18.6637)
(2.78924e-15 -10.1698 17.2587)
(5.07589e-16 -9.40277 15.8711)
(3.25968e-16 -8.65258 14.5236)
(8.09016e-16 -7.93051 13.2136)
(2.77727e-16 -7.16587 11.8292)
(2.22383e-16 -6.11614 9.99626)
(3.31251e-16 -4.42402 7.15555)
(-3.57661e-16 -2.30529 3.28791)
(-7.91713e-16 -0.787211 0.317758)
(1.52865e-14 -8.02194 17.5537)
(1.57487e-14 -16.0195 24.5277)
(3.32362e-15 -13.6434 24.0462)
(3.13328e-15 -12.9943 21.7651)
(1.25149e-15 -12.1264 20.2158)
(1.50446e-15 -11.2247 18.847)
(2.60539e-15 -10.439 17.4341)
(8.02038e-16 -9.64888 16.0434)
(4.56367e-16 -8.86035 14.6933)
(8.48621e-16 -8.09324 13.3817)
(4.25081e-16 -7.2973 12.0171)
(3.80446e-16 -6.28458 10.2818)
(2.3382e-16 -4.73301 7.7209)
(2.46243e-16 -2.75614 4.37247)
(7.55809e-16 -0.949415 1.2974)
(1.36584e-14 -7.33745 15.2535)
(1.61472e-14 -15.491 24.355)
(5.04137e-15 -14.0225 24.4218)
(3.06205e-15 -13.1278 22.0675)
(1.54117e-15 -12.1447 20.4401)
(1.60708e-15 -11.2358 19.0547)
(2.43374e-15 -10.4361 17.6437)
(1.16878e-15 -9.61983 16.2576)
(1.03607e-15 -8.81015 14.9066)
(9.87894e-16 -8.02722 13.5919)
(7.35554e-16 -7.22394 12.2368)
(8.14198e-16 -6.24025 10.5488)
(3.71535e-16 -4.78752 8.10749)
(7.31739e-17 -2.91411 4.94715)
(2.16791e-15 -1.01088 1.79743)
(1.16108e-14 -6.55627 13.033)
(1.61479e-14 -14.847 23.8164)
(6.34813e-15 -14.2638 24.669)
(3.16323e-15 -13.2372 22.3215)
(1.74322e-15 -12.1674 20.5832)
(1.53381e-15 -11.2657 19.1667)
(2.32167e-15 -10.4651 17.7586)
(1.37346e-15 -9.64314 16.3766)
(1.08433e-15 -8.83493 15.0246)
(1.07501e-15 -8.05529 13.7073)
(8.60372e-16 -7.255 12.3576)
(6.43458e-16 -6.28689 10.6995)
(4.27989e-16 -4.891 8.33095)
(1.65486e-16 -3.08522 5.26766)
(1.11894e-15 -1.12221 2.04396)
(9.87665e-15 -5.77842 11.1239)
(1.58869e-14 -14.1745 23.0906)
(7.36613e-15 -14.4412 24.8462)
(3.59637e-15 -13.3963 22.6148)
(1.9159e-15 -12.2528 20.7553)
(1.35062e-15 -11.3493 19.2955)
(2.14097e-15 -10.5477 17.8904)
(1.4782e-15 -9.72544 16.5109)
(8.74798e-16 -8.91945 15.1561)
(8.74976e-16 -8.14024 13.8351)
(8.51589e-16 -7.33997 12.4864)
(3.60595e-16 -6.38017 10.8513)
(3.57808e-16 -5.02353 8.54673)
(9.26898e-17 -3.2658 5.55834)
(-4.79382e-16 -1.23756 2.24771)
(8.23118e-15 -5.08507 9.59945)
(1.54462e-14 -13.5192 22.3001)
(8.26163e-15 -14.5349 24.9522)
(3.79078e-15 -13.5531 22.9353)
(2.09559e-15 -12.3447 20.9698)
(1.36309e-15 -11.425 19.4566)
(1.90143e-15 -10.6174 18.0506)
(1.50473e-15 -9.79446 16.6721)
(7.66091e-16 -8.98828 15.3136)
(7.53909e-16 -8.20624 13.9874)
(8.32673e-16 -7.40475 12.6356)
(3.74851e-16 -6.45151 11.0133)
(-1.01891e-16 -5.12529 8.75517)
(3.57873e-16 -3.4066 5.81962)
(-7.18925e-16 -1.31911 2.43101)
(6.95605e-15 -4.53879 8.46241)
(1.49668e-14 -12.9256 21.5504)
(8.7536e-15 -14.5349 24.9757)
(3.9134e-15 -13.6654 23.221)
(2.19784e-15 -12.4128 21.1812)
(1.18542e-15 -11.4736 19.6121)
(1.79744e-15 -10.659 18.2004)
(1.51869e-15 -9.83697 16.8209)
(5.33819e-16 -9.03207 15.4585)
(9.3184e-16 -8.24857 14.1269)
(9.48771e-16 -7.44649 12.7692)
(1.06934e-16 -6.49774 11.1498)
(3.60998e-17 -5.19261 8.9185)
(-3.58749e-16 -3.50191 6.01061)
(-1.18618e-15 -1.36384 2.54262)
(6.10594e-15 -4.17052 7.70286)
(1.44555e-14 -12.4378 20.9278)
(9.0339e-15 -14.4733 24.9365)
(4.16242e-15 -13.7316 23.4378)
(2.21328e-15 -12.4592 21.3593)
(1.08099e-15 -11.5039 19.7405)
(1.72477e-15 -10.6832 18.3206)
(1.59498e-15 -9.86356 16.9391)
(6.64674e-16 -9.06115 15.5729)
(7.85125e-16 -8.27761 14.2364)
(9.29294e-16 -7.4749 12.8709)
(-4.98108e-18 -6.5268 11.2465)
(2.62381e-16 -5.233 9.02643)
(-9.32327e-16 -3.55796 6.1261)
(-1.21008e-15 -1.37729 2.5726)
(5.41808e-15 -3.97348 7.27984)
(1.39158e-14 -12.0683 20.4613)
(9.26015e-15 -14.3843 24.8626)
(4.35996e-15 -13.7598 23.5827)
(2.2758e-15 -12.4874 21.4968)
(1.10448e-15 -11.5228 19.8405)
(1.65856e-15 -10.6964 18.4119)
(1.78711e-15 -9.87984 17.0278)
(7.34484e-16 -9.08044 15.6583)
(7.04366e-16 -8.29713 14.3169)
(9.40394e-16 -7.49305 12.942)
(-1.08836e-17 -6.54202 11.306)
(1.88621e-16 -5.25084 9.08418)
(-8.62265e-16 -3.57871 6.17528)
(-1.07187e-15 -1.36512 2.53867)
(5.04777e-15 -3.90372 7.11031)
(1.35155e-14 -11.8313 20.1817)
(9.37009e-15 -14.2998 24.79)
(4.51121e-15 -13.7667 23.6685)
(2.35115e-15 -12.5019 21.5898)
(1.14431e-15 -11.532 19.9095)
(1.64652e-15 -10.7003 18.4746)
(1.7935e-15 -9.88542 17.0883)
(6.94763e-16 -9.08786 15.7172)
(7.92723e-16 -8.30399 14.3729)
(9.05209e-16 -7.49774 12.9906)
(4.60249e-17 -6.54308 11.3433)
(1.08323e-16 -5.25334 9.11717)
(-6.9683e-16 -3.5836 6.20151)
(-7.7039e-16 -1.35009 2.50634)
(4.94398e-15 -4.03932 7.28658)
(1.29932e-14 -11.627 19.9521)
(9.38256e-15 -14.1916 24.6679)
(4.63408e-15 -13.7464 23.7083)
(2.38689e-15 -12.5066 21.6738)
(1.21601e-15 -11.5393 19.9773)
(1.63142e-15 -10.6995 18.535)
(1.68904e-15 -9.88695 17.1438)
(7.23904e-16 -9.0905 15.7694)
(7.96018e-16 -8.30494 14.4183)
(8.29986e-16 -7.48991 13.0147)
(9.85964e-17 -6.51528 11.3281)
(7.47565e-17 -5.20592 9.06115)
(-6.16961e-16 -3.50156 6.08269)
(-4.24898e-16 -1.25244 2.3072)
)
;

boundaryField
{
    inletFace
    {
        type            zeroGradient;
    }
    inlet
    {
        type            fixedValue;
        value           uniform (0 8.7 15);
    }
    inletWalls
    {
        type            noSlip;
    }
    outletInlet
    {
        type            zeroGradient;
    }
}


// ************************************************************************* //
