/*--------------------------------*- C++ -*----------------------------------*\
| =========                 |                                                 |
| \\      /  F ield         | OpenFOAM: The Open Source CFD Toolbox           |
|  \\    /   O peration     | Version:  4.1                                   |
|   \\  /    A nd           | Web:      www.OpenFOAM.org                      |
|    \\/     M anipulation  |                                                 |
\*---------------------------------------------------------------------------*/
FoamFile
{
    version     2.0;
    format      ascii;
    class       volScalarField;
    location    "1";
    object      epsilon;
}
// * * * * * * * * * * * * * * * * * * * * * * * * * * * * * * * * * * * * * //

dimensions      [0 2 -3 0 0 0 0];

internalField   nonuniform List<scalar> 
225
(
0.0452436
0.783248
8.15073e-05
1.21092e-06
8.38467e-07
6.88288e-07
7.40574e-07
8.51164e-07
9.11328e-07
0.000436041
410.397
2552.69
45004.5
214410
0.266659
1e-15
0.000569782
5.28356e-05
1.35783
1.94358e-05
2.05561e-05
3.51401e-05
3.82625e-05
4.16789e-05
6.20828e-05
7.07092e-05
5134.5
8413.83
9614.41
0.130829
1e-15
7827.78
0.000994651
0.400672
0.566918
15.5603
8.71198
31.1955
59.2729
179.868
119.524
1250.13
1504.97
3089.13
0.588476
0.331022
528786
0.00270753
0.000454886
0.0004664
1160.06
1836.87
1363.8
1140.81
853.995
3939.46
3507.18
9686.69
6344.26
0.0511471
11.5442
180118
36843.1
29119.7
27696
21277.9
23258.7
16088.6
20754.9
28065.7
31648.7
66772.5
23685.8
18765.8
1e-15
105.019
289032
300790
120400
114168
33608.6
24821
27300.4
8500.21
9705.53
14169.2
24104.7
21620.9
5653.78
0.00887358
1e-15
18330.9
105403
67726.2
60161.1
64762.5
45973.9
48357.4
43231.9
23925.1
17394.1
29662
51849.5
86366.2
1e-15
0.746992
813866
158786
0.0066457
0.00136446
40682
30107.3
16252.4
11146
9205.85
2821.2
7487.16
19642
28216.2
1e-15
1e-15
19679.4
0.0144635
0.00425842
36088.8
62802.1
40836.5
26029.7
32691.9
12476.1
3178.18
1143.37
0.000540864
0.000893245
1e-15
1e-15
95481.3
281236
244962
144249
99888
66823.8
27759.3
44941.5
0.00119705
0.000371322
0.00278037
0.0323395
0.438146
13.6931
2.04939
154849
35864.6
5301.2
3121.63
2930.43
3995.63
9187.09
4406.52
0.0246302
0.0501504
0.690925
0.501899
1.78328
7.05878
1e-15
0.0392163
0.0159114
0.00362932
0.0204118
0.44455
2.77965
13.3297
72.8318
346.079
108.753
9.99662
3.40431
4.24284
0.00425615
1e-15
0.0276915
122216
23028
136344
23810.8
4000.98
3876.59
3904.16
4796.46
597.6
29.6753
18.3366
47.3076
1e-15
1e-15
2.38428
588049
330808
310793
146424
154377
93548.8
102848
65205.6
7917.63
0.117233
0.480193
4.58048
1e-15
11.2769
6.82836
8.91777e+06
5.33138e+06
1.15641e+06
4.28622e+06
1.10474e+06
1.17787e+06
45653.3
2711.89
48.9965
0.649038
0.138309
1.853
1e-15
)
;

boundaryField
{
    inletFace
    {
        type            zeroGradient;
    }
    inlet
    {
        type            fixedValue;
        value           uniform 2040;
    }
    inletWalls
    {
        Cmu             0.09;
        kappa           0.41;
        E               9.8;
        type            epsilonWallFunction;
        value           nonuniform List<scalar> 
30
(
0.266659
0.130829
0.588476
0.0511471
1.24111e-23
0.00887358
1.24114e-23
1.24111e-23
1.24128e-23
13.6931
7.05878
0.00425615
1.24114e-23
1.24111e-23
1.24128e-23
11.2769
1.24111e-23
1.24128e-23
1.24114e-23
2.04939
1.24128e-23
1.24114e-23
0.746992
1.24128e-23
105.019
11.5442
0.331022
1.24114e-23
1.24112e-23
0.0452436
)
;
    }
    outletInlet
    {
        type            zeroGradient;
    }
}


// ************************************************************************* //
