/*--------------------------------*- C++ -*----------------------------------*\
| =========                 |                                                 |
| \\      /  F ield         | OpenFOAM: The Open Source CFD Toolbox           |
|  \\    /   O peration     | Version:  4.1                                   |
|   \\  /    A nd           | Web:      www.OpenFOAM.org                      |
|    \\/     M anipulation  |                                                 |
\*---------------------------------------------------------------------------*/
FoamFile
{
    version     2.0;
    format      ascii;
    class       volScalarField;
    location    "1";
    object      nut;
}
// * * * * * * * * * * * * * * * * * * * * * * * * * * * * * * * * * * * * * //

dimensions      [0 2 -1 0 0 0 0];

internalField   nonuniform List<scalar> 
225
(
0.251064
6.85915e-25
2.48444e-27
1.67229e-25
2.41512e-25
2.94208e-25
2.73436e-25
2.37909e-25
2.22203e-25
3.39657e-26
1.58423e-10
8.9885e-10
7.26162e-10
9.5884e-09
0.453577
2.025e-16
3.55399e-28
3.83265e-27
9.23546e-07
1.04189e-26
9.8511e-27
5.76264e-27
5.29239e-27
4.85857e-27
3.26177e-27
2.86384e-27
9.44124e-08
4.2973e-08
2.19187e-07
0.357746
2.025e-16
2.07371e-06
2.03589e-28
1.25564e-05
0.000308791
1.14158e-05
1.81099e-05
4.68154e-06
1.729e-06
3.47067e-07
5.10734e-07
6.53333e-09
2.95399e-10
6.84426e-07
0.590439
0.487397
1.40372e-05
7.47915e-29
4.45167e-28
4.34176e-28
4.31645e-08
7.25755e-08
1.03537e-07
1.09535e-07
1.88385e-07
4.62066e-08
2.35861e-07
1.46305e-08
5.29618e-08
0.26158
1.59269
0.000137604
0.000180821
6.92566e-05
5.00303e-05
4.46974e-05
2.93014e-05
2.4769e-05
1.16937e-05
9.36868e-06
1.25913e-05
1.08547e-06
7.72583e-07
5.30866e-08
2.025e-16
3.32471
2.96315e-05
1.02755e-06
2.24193e-06
2.90495e-06
3.70028e-06
2.92518e-06
2.64642e-06
7.04781e-06
2.88552e-06
1.12765e-06
3.05009e-07
1.22174e-07
3.10292e-08
0.145869
2.025e-16
5.27673e-05
1.8972e-05
2.5434e-06
1.52449e-05
2.32403e-05
2.80003e-05
2.12696e-05
5.46761e-06
1.66889e-06
3.49535e-08
2.39273e-07
3.23477e-07
1.40919e-07
2.025e-16
0.639413
1.28398e-05
1.23174e-06
3.04708e-29
1.4841e-28
1.5831e-06
3.92317e-06
2.29567e-05
2.18041e-05
3.51413e-06
2.96135e-07
1.05047e-06
1.24659e-06
2.82554e-08
2.025e-16
2.025e-16
0.000552265
1.40007e-29
4.75528e-29
0.000266574
0.000130134
1.01464e-05
1.29539e-05
7.23876e-06
2.42811e-07
8.21591e-08
4.22409e-08
3.74401e-28
2.26702e-28
2.025e-16
2.025e-16
0.000108353
2.59649e-06
1.41252e-06
2.39443e-06
1.32142e-06
8.99906e-07
1.67598e-06
2.45548e-06
1.69166e-28
5.45348e-28
7.28319e-29
6.26168e-30
4.62174e-31
1.6859
0.895126
8.3674e-06
2.21417e-05
6.88449e-05
6.04221e-05
3.41622e-05
1.42085e-05
3.97874e-06
1.19225e-06
8.2216e-30
4.03785e-30
2.93085e-31
4.03468e-31
1.13555e-31
1.35182
2.025e-16
5.16366e-30
1.27267e-29
5.57956e-29
9.92074e-30
4.55517e-31
7.28509e-32
1.51917e-32
2.78038e-33
5.85127e-34
1.86203e-33
2.02568e-32
5.94834e-32
4.77275e-32
0.114183
2.025e-16
7.31271e-30
2.90234e-05
2.70733e-05
1.48989e-05
0.000546433
5.06125e-35
5.22366e-35
5.18677e-35
4.22186e-35
3.38855e-34
6.82387e-33
1.10435e-32
4.2805e-33
2.025e-16
2.025e-16
8.49312e-32
3.44359e-37
6.12138e-37
6.5156e-37
1.38297e-36
1.31172e-36
2.16465e-36
1.96892e-36
3.10556e-36
2.55758e-35
1.72732e-30
4.21706e-31
4.42093e-32
2.025e-16
1.58026
2.96557e-32
2.27075e-38
3.79827e-38
1.75111e-37
4.72444e-38
1.83301e-37
1.7192e-37
4.43561e-36
7.46712e-35
4.13295e-33
3.12e-31
1.46411e-30
1.09282e-31
2.025e-16
)
;

boundaryField
{
    inletFace
    {
        type            calculated;
        value           nonuniform List<scalar> 
450
(
0.251064
6.85915e-25
2.48444e-27
1.67229e-25
2.41512e-25
2.94208e-25
2.73436e-25
2.37909e-25
2.22203e-25
3.39657e-26
1.58423e-10
8.9885e-10
7.26162e-10
9.5884e-09
0.453577
2.025e-16
3.55399e-28
3.83265e-27
9.23546e-07
1.04189e-26
9.8511e-27
5.76264e-27
5.29239e-27
4.85857e-27
3.26177e-27
2.86384e-27
9.44124e-08
4.2973e-08
2.19187e-07
0.357746
2.025e-16
2.07371e-06
2.03589e-28
1.25564e-05
0.000308791
1.14158e-05
1.81099e-05
1.46043e+11
1.02483e+11
3.47067e-07
5.10734e-07
6.53333e-09
2.95399e-10
6.84426e-07
0.590439
0.487397
1.40372e-05
7.47915e-29
4.45167e-28
4.34176e-28
4.31645e-08
7.25755e-08
1.03537e-07
1.09535e-07
1.88385e-07
4.62066e-08
2.35861e-07
1.46305e-08
5.29618e-08
0.26158
1.59269
0.000137604
0.000180821
6.92566e-05
5.00303e-05
4.46974e-05
2.93014e-05
2.4769e-05
1.16937e-05
9.36868e-06
1.25913e-05
1.08547e-06
7.72583e-07
5.30866e-08
2.025e-16
3.32471
2.96315e-05
1.02755e-06
2.24193e-06
2.90495e-06
3.70028e-06
2.92518e-06
2.64642e-06
5.99078e+13
2.88552e-06
1.12765e-06
3.05009e-07
1.22174e-07
3.10292e-08
0.145869
2.025e-16
5.27673e-05
1.8972e-05
2.5434e-06
1.52449e-05
2.32403e-05
2.80003e-05
2.12696e-05
5.46761e-06
1.66889e-06
3.49535e-08
2.39273e-07
3.23477e-07
1.40919e-07
2.025e-16
0.639413
1.28398e-05
1.95584e+14
3.04708e-29
1.4841e-28
1.5831e-06
3.92317e-06
2.29567e-05
2.18041e-05
3.51413e-06
2.96135e-07
1.05047e-06
1.24659e-06
2.82554e-08
2.025e-16
2.025e-16
1.08682e+16
1.40007e-29
4.75528e-29
0.000266574
0.000130134
1.01464e-05
1.29539e-05
7.23876e-06
2.42811e-07
8.21591e-08
4.22409e-08
3.74401e-28
2.26702e-28
2.025e-16
2.025e-16
0.000108353
2.59649e-06
1.41252e-06
2.39443e-06
1.32142e-06
8.99906e-07
1.67598e-06
2.45548e-06
1.69166e-28
5.45348e-28
7.28319e-29
6.26168e-30
4.62174e-31
1.6859
0.895126
8.3674e-06
7.94104e+14
3.64961e+14
1.88615e+14
1.0011e+14
1.42085e-05
3.97874e-06
1.19225e-06
8.2216e-30
4.03785e-30
2.93085e-31
4.03468e-31
1.13555e-31
1.35182
2.025e-16
5.16366e-30
1.27267e-29
5.57956e-29
9.92074e-30
4.55517e-31
7.28509e-32
1.51917e-32
2.78038e-33
5.85127e-34
1.86203e-33
2.02568e-32
5.94834e-32
4.77275e-32
0.114183
2.025e-16
7.31271e-30
2.90234e-05
2.70733e-05
1.48989e-05
0.000546433
5.06125e-35
5.22366e-35
5.18677e-35
4.22186e-35
3.38855e-34
6.82387e-33
1.10435e-32
4.2805e-33
2.025e-16
2.025e-16
8.49312e-32
3.44359e-37
6.12138e-37
6.5156e-37
1.38297e-36
1.31172e-36
2.16465e-36
1.96892e-36
3.10556e-36
2.55758e-35
1.72732e-30
4.21706e-31
4.42093e-32
2.025e-16
1.58026
2.96557e-32
2.27075e-38
3.79827e-38
1.75111e-37
4.72444e-38
1.83301e-37
1.7192e-37
4.43561e-36
7.46712e-35
4.13295e-33
3.12e-31
1.46411e-30
1.09282e-31
2.025e-16
0.251064
6.85915e-25
2.48444e-27
1.67229e-25
2.41512e-25
2.94208e-25
2.73436e-25
2.37909e-25
2.22203e-25
3.39657e-26
1.58423e-10
8.9885e-10
7.26162e-10
9.5884e-09
0.453577
2.025e-16
3.55399e-28
3.83265e-27
9.23546e-07
1.04189e-26
9.8511e-27
5.76264e-27
5.29239e-27
4.85857e-27
3.26177e-27
2.86384e-27
9.44124e-08
4.2973e-08
2.19187e-07
0.357746
2.025e-16
2.07371e-06
2.03589e-28
1.25564e-05
0.000308791
1.14158e-05
1.81099e-05
1.46043e+11
1.02483e+11
3.47067e-07
5.10734e-07
6.53333e-09
2.95399e-10
6.84426e-07
0.590439
0.487397
1.40372e-05
7.47915e-29
4.45167e-28
4.34176e-28
4.31645e-08
7.25755e-08
1.03537e-07
1.09535e-07
1.88385e-07
4.62066e-08
2.35861e-07
1.46305e-08
5.29618e-08
0.26158
1.59269
0.000137604
0.000180821
6.92566e-05
5.00303e-05
4.46974e-05
2.93014e-05
2.4769e-05
1.16937e-05
9.36868e-06
1.25913e-05
1.08547e-06
7.72583e-07
5.30866e-08
2.025e-16
3.32471
2.96315e-05
1.02755e-06
2.24193e-06
2.90495e-06
3.70028e-06
2.92518e-06
2.64642e-06
5.99078e+13
2.88552e-06
1.12765e-06
3.05009e-07
1.22174e-07
3.10292e-08
0.145869
2.025e-16
5.27673e-05
1.8972e-05
2.5434e-06
1.52449e-05
2.32403e-05
2.80003e-05
2.12696e-05
5.46761e-06
1.66889e-06
3.49535e-08
2.39273e-07
3.23477e-07
1.40919e-07
2.025e-16
0.639413
1.28398e-05
1.95584e+14
3.04708e-29
1.4841e-28
1.5831e-06
3.92317e-06
2.29567e-05
2.18041e-05
3.51413e-06
2.96135e-07
1.05047e-06
1.24659e-06
2.82554e-08
2.025e-16
2.025e-16
1.08682e+16
1.40007e-29
4.75528e-29
0.000266574
0.000130134
1.01464e-05
1.29539e-05
7.23876e-06
2.42811e-07
8.21591e-08
4.22409e-08
3.74401e-28
2.26702e-28
2.025e-16
2.025e-16
0.000108353
2.59649e-06
1.41252e-06
2.39443e-06
1.32142e-06
8.99906e-07
1.67598e-06
2.45548e-06
1.69166e-28
5.45348e-28
7.28319e-29
6.26168e-30
4.62174e-31
1.6859
0.895126
8.3674e-06
7.94104e+14
3.64961e+14
1.88615e+14
1.0011e+14
1.42085e-05
3.97874e-06
1.19225e-06
8.2216e-30
4.03785e-30
2.93085e-31
4.03468e-31
1.13555e-31
1.35182
2.025e-16
5.16366e-30
1.27267e-29
5.57956e-29
9.92074e-30
4.55517e-31
7.28509e-32
1.51917e-32
2.78038e-33
5.85127e-34
1.86203e-33
2.02568e-32
5.94834e-32
4.77275e-32
0.114183
2.025e-16
7.31271e-30
2.90234e-05
2.70733e-05
1.48989e-05
0.000546433
5.06125e-35
5.22366e-35
5.18677e-35
4.22186e-35
3.38855e-34
6.82387e-33
1.10435e-32
4.2805e-33
2.025e-16
2.025e-16
8.49312e-32
3.44359e-37
6.12138e-37
6.5156e-37
1.38297e-36
1.31172e-36
2.16465e-36
1.96892e-36
3.10556e-36
2.55758e-35
1.72732e-30
4.21706e-31
4.42093e-32
2.025e-16
1.58026
2.96557e-32
2.27075e-38
3.79827e-38
1.75111e-37
4.72444e-38
1.83301e-37
1.7192e-37
4.43561e-36
7.46712e-35
4.13295e-33
3.12e-31
1.46411e-30
1.09282e-31
2.025e-16
)
;
    }
    inlet
    {
        type            calculated;
        value           uniform 1.85252e-05;
    }
    inletWalls
    {
        type            nutkWallFunction;
        Cmu             0.09;
        kappa           0.41;
        E               9.8;
        value           nonuniform List<scalar> 
30
(
0
0
0
0
0
0
0
0
0
0.117751
0.0658516
0
0
0
0
0.101518
0
0
0
0
0
0
0
0
0.355525
0.103436
0
0
0
0
)
;
    }
    outletInlet
    {
        type            calculated;
        value           nonuniform List<scalar> 
15
(
2.025e-16
1.09282e-31
1.46411e-30
3.12e-31
4.13295e-33
7.46712e-35
4.43561e-36
1.7192e-37
1.83301e-37
4.72444e-38
1.75111e-37
3.79827e-38
2.27075e-38
2.96557e-32
1.58026
)
;
    }
}


// ************************************************************************* //
