/*--------------------------------*- C++ -*----------------------------------*\
| =========                 |                                                 |
| \\      /  F ield         | OpenFOAM: The Open Source CFD Toolbox           |
|  \\    /   O peration     | Version:  4.1                                   |
|   \\  /    A nd           | Web:      www.OpenFOAM.org                      |
|    \\/     M anipulation  |                                                 |
\*---------------------------------------------------------------------------*/
FoamFile
{
    version     2.0;
    format      ascii;
    class       volSymmTensorField;
    location    "1";
    object      R;
}
// * * * * * * * * * * * * * * * * * * * * * * * * * * * * * * * * * * * * * //

dimensions      [0 2 -2 0 0 0 0];

internalField   nonuniform List<symmTensor> 
225
(
(1e-15 6.36631e-13 5.88499e-13 1e-15 0.508827 0.710525)
(1e-15 -1.45204e-19 1.09159e-19 1e-15 -2.37978e-07 4.88445e-12)
(1e-15 -2.14066e-24 1.22479e-24 1e-15 -4.39794e-12 1e-15)
(1e-15 -1.05296e-28 7.82975e-29 1e-15 -8.31016e-16 1e-15)
(1e-15 2.20435e-29 3.14585e-29 1e-15 -8.39028e-16 1e-15)
(1e-15 2.27903e-28 6.09597e-28 1e-15 -3.3066e-15 1e-15)
(1e-15 6.31688e-29 1.36457e-28 1e-15 -9.18937e-16 1e-15)
(1e-15 2.46156e-29 4.48592e-28 1e-15 -1.06247e-15 1e-15)
(1e-15 -4.87904e-25 1.79405e-24 1e-15 9.07729e-14 1e-15)
(1.30366e-14 -4.31516e-21 1.50038e-20 1.01049e-14 7.2461e-10 2.51462e-15)
(0.000852537 -1.57126e-15 5.28794e-15 0.000689797 0.000246731 0.000157551)
(0.00446893 -7.4114e-15 2.8438e-14 0.00562944 0.00189692 1e-15)
(0.0125974 -3.18961e-14 1.02178e-13 0.0255139 0.00423685 1e-15)
(0.0697241 -3.72617e-13 6.32364e-13 0.126906 -0.0115525 0.105646)
(0.410983 -1.14093e-11 1.34275e-11 0.272863 -0.596848 1.63468)
(1e-15 8.10954e-13 5.40414e-13 1e-15 0.470126 1e-15)
(1e-15 -7.04612e-23 1.42799e-22 1e-15 -1.07087e-10 1e-15)
(1e-15 -1.07514e-22 1.50743e-22 1e-15 -1.40926e-09 1e-15)
(0.00528987 -5.38296e-17 7.486e-17 1e-15 -0.000696678 0.00217567)
(1e-15 9.63505e-25 1.06517e-24 1e-15 -1.9481e-12 1e-15)
(1e-15 9.63643e-23 2.65544e-22 1e-15 -1.29937e-09 1e-15)
(1e-15 4.86743e-23 1.51748e-22 1e-15 -5.15791e-10 1e-15)
(1e-15 5.87144e-23 1.92669e-22 1e-15 -5.14872e-10 1e-15)
(1e-15 1.38617e-22 3.37556e-22 1e-15 -9.0834e-10 1e-15)
(1e-15 1.93433e-22 2.61969e-22 1e-15 -7.06939e-10 1e-15)
(1e-15 4.7489e-20 5.45369e-22 1e-15 -2.7136e-09 1e-15)
(0.0394474 2.41408e-14 2.67936e-15 0.0488381 0.00569485 0.0584963)
(0.0360697 3.25114e-14 9.55341e-15 0.0553487 -0.00229502 0.0353478)
(0.0766285 9.07071e-14 1.82482e-14 0.0896986 0.00122616 0.139712)
(0.319077 -6.47455e-12 2.78025e-12 0.00702352 -0.41242 1.11618)
(1e-15 8.55994e-12 5.48837e-12 1e-15 5.03252 1e-15)
(0.269065 7.8937e-12 3.17992e-12 0.271212 7.63414 0.309103)
(1e-15 5.20315e-19 1.98942e-19 1e-15 4.70373e-07 1e-15)
(0.0149533 -1.01735e-17 1.05797e-17 1e-15 -0.000123132 1e-15)
(0.0306909 2.19579e-16 5.72526e-16 0.0200915 -0.00354363 0.0374241)
(0.0282882 2.74792e-16 7.60692e-16 0.0239815 -0.00374418 0.0365829)
(0.0260957 3.43046e-16 1.08504e-15 0.0247502 -0.00370612 0.0328925)
(0.0248241 4.89409e-16 1.62761e-15 0.0245316 -0.00436653 0.0312098)
(0.0217117 8.06855e-16 1.94398e-15 0.0240509 -0.00527996 0.0217266)
(0.0185543 1.3918e-15 1.83182e-15 0.0223666 -0.00513292 0.0117527)
(0.0184741 1.64093e-13 -6.82803e-16 0.0336133 -0.00907966 1e-15)
(0.00723096 2.50739e-13 -1.18312e-15 0.0118216 -0.00770394 1e-15)
(0.00213344 7.46647e-13 -3.53443e-15 0.00231162 -0.0193549 1e-15)
(0.0792872 8.79215e-12 -4.29211e-14 0.0560325 -0.222841 0.171222)
(0.804615 2.46667e-11 -1.05458e-13 1e-15 -0.280674 3.12509)
(1e-15 8.79552e-12 5.50136e-12 2.6778 4.81743 1e-15)
(3.87925 2.65244e-12 2.49616e-12 4.64805 5.15967 9.63577)
(1e-15 2.35135e-20 1.924e-20 1e-15 4.28337e-08 1e-15)
(1e-15 2.77134e-21 7.44522e-21 1e-15 1.67846e-08 1e-15)
(1e-15 7.99257e-23 1.68273e-22 1e-15 4.96069e-10 1e-15)
(0.0235511 -2.71675e-15 2.09894e-15 0.0236239 0.00634352 1e-15)
(0.0296393 -3.72146e-15 -2.70922e-16 0.0473344 0.0268943 1e-15)
(0.0244311 -1.57916e-15 2.29824e-16 0.0547886 0.0212576 1e-15)
(0.0184346 1.64735e-15 -3.26913e-16 0.0560886 -0.0152472 1e-15)
(0.0227003 2.25157e-15 6.05398e-16 0.0618587 0.00178281 1e-15)
(0.0314426 1.30997e-15 8.79453e-16 0.0507462 0.005783 0.00775661)
(0.0517931 1.64229e-15 3.28664e-15 0.0479756 0.00102905 0.0919728)
(0.0315368 5.20871e-15 3.75781e-15 0.00747704 -0.0101957 0.0403505)
(0.0443367 4.54719e-14 -3.93433e-15 1e-15 -0.0188186 0.0778659)
(0.164837 1.99293e-11 9.45135e-12 1e-15 -4.56359 0.606282)
(4.90885 7.03053e-12 6.29441e-12 1e-15 5.98537 23.6774)
(7.06135 1.35378e-12 1.76232e-12 7.06914 4.43791 19.0593)
(3.80404 4.40413e-13 7.32929e-13 5.50828 1.86946 7.89493)
(2.17058 1.42709e-13 3.98837e-13 3.73909 0.893599 3.55778)
(1.79718 4.52987e-14 2.65304e-13 3.05247 0.560219 2.99789)
(1.48755 1.30918e-14 1.76513e-13 2.42017 0.271266 2.59379)
(1.25606 -5.30791e-16 9.80525e-14 1.92575 0.0323109 2.32177)
(0.957057 -1.86261e-16 3.8221e-14 1.34884 -0.308577 1.90255)
(0.7364 2.28981e-16 2.1421e-14 0.947019 -0.45898 1.6009)
(0.740274 -1.3839e-14 2.61868e-14 0.880243 -0.385177 1.79798)
(0.885309 -1.29216e-14 2.67459e-14 1.05317 -0.40791 2.26997)
(0.390454 1.13764e-14 2.61343e-14 0.475876 -0.0691326 0.92847)
(0.205347 1.7162e-14 3.41363e-14 0.228825 -0.0308813 0.46766)
(0.0521639 1.0567e-13 -2.83421e-14 0.0634173 -0.0218894 0.0948376)
(1e-15 7.92225e-13 -7.4964e-14 1e-15 -0.105033 1e-15)
(25.1068 3.3229e-11 3.94857e-11 1e-15 17.8062 99.4648)
(3.98767 1.43033e-11 1.08719e-11 1e-15 4.506 15.5224)
(1e-15 2.67734e-12 5.6235e-13 3.70632 1.86137 1e-15)
(1e-15 2.13271e-12 -2.29092e-13 3.46365 0.61749 1e-15)
(0.415555 1.37314e-12 -4.23053e-14 3.42372 0.122239 1e-15)
(0.565648 9.27882e-13 2.56779e-13 1.71532 0.251619 0.0700244)
(0.437811 4.78956e-13 5.24425e-13 1.29629 0.563125 0.0622637)
(0.421065 1.9028e-13 4.49678e-13 1.22843 0.531553 0.142441)
(0.374646 3.86791e-14 3.27216e-13 1.069 0.442175 0.188097)
(0.21507 -5.71121e-15 1.65961e-13 0.900586 0.275515 1e-15)
(0.0479276 -2.86654e-15 8.96028e-14 0.794763 0.157979 1e-15)
(0.0910343 1.07315e-14 3.81213e-14 0.480597 0.0310388 1e-15)
(0.0808252 3.79187e-14 1.13332e-14 0.166526 0.0297675 0.0952866)
(0.0117129 6.30417e-14 -1.02256e-13 0.0765877 0.00210574 1e-15)
(1e-15 2.17905e-12 -3.20373e-12 0.23985 -0.115754 1e-15)
(1e-15 3.55226e-11 5.04592e-11 1e-15 47.2379 1e-15)
(1.70332 2.00733e-11 3.39146e-11 1e-15 30.38 4.85335)
(2.41617 9.68374e-12 1.73476e-11 2.88757 15.2837 4.12368)
(1e-15 4.09675e-12 7.63031e-12 2.76691 6.84286 1e-15)
(0.875515 2.31468e-12 4.83613e-12 5.50902 4.47148 1e-15)
(1.82921 1.36635e-12 3.19291e-12 4.32352 3.00708 2.0261)
(1.66216 8.68402e-13 2.27404e-12 2.75086 1.93649 3.15089)
(1.47154 5.27474e-13 1.71001e-12 2.14975 1.12386 3.13986)
(0.735831 3.06665e-13 1.19379e-12 1.0583 0.571282 1.4471)
(0.33864 1.73316e-13 7.93892e-13 0.586433 0.243062 0.407068)
(0.0292015 5.45307e-14 2.64852e-13 0.135181 0.0578578 1e-15)
(0.150266 5.37799e-14 1.55663e-13 0.278949 -0.105855 0.132423)
(0.213017 4.38271e-14 1.06748e-13 0.201155 0.037607 0.449209)
(0.188152 2.24163e-13 2.46451e-13 0.211034 0.166841 0.336286)
(1e-15 8.20264e-13 1.30449e-13 1e-15 0.0686472 1e-15)
(0.349035 5.97029e-12 7.30079e-12 1e-15 10.7936 4.25838)
(3.33923 3.40675e-14 -1.95135e-13 1e-15 -0.695877 18.2116)
(1.1321 -3.73365e-14 2.40323e-14 1.08134 -0.0172691 0.734884)
(1e-15 1.84747e-23 4.94603e-23 1e-15 -1.54592e-09 1e-15)
(1e-15 2.88493e-20 1.74627e-21 1e-15 -2.07161e-08 1e-15)
(0.437602 6.65658e-13 2.29697e-15 0.0978726 -0.117662 1.15638)
(0.553047 7.9725e-13 -1.14568e-16 0.295968 -0.111606 1.44219)
(0.902925 6.40464e-13 4.75435e-14 0.976244 -0.258079 2.19297)
(0.736783 3.52206e-13 7.4361e-14 0.839092 -0.346819 1.71065)
(0.307466 1.19365e-13 5.62565e-14 0.37457 -0.234396 0.517048)
(0.0730366 3.38278e-14 2.61856e-14 0.119658 -0.101034 1e-15)
(0.150451 2.24609e-15 2.20132e-14 0.266241 -0.0645592 0.174542)
(0.264543 3.82701e-14 5.5352e-14 0.341272 0.090884 0.437376)
(0.096178 3.22495e-14 3.60414e-14 1e-15 0.0424043 0.0920606)
(1e-15 9.93818e-13 1.87341e-13 1e-15 -0.00366932 1e-15)
(1e-15 1.12115e-11 1.58036e-11 1e-15 20.3888 1e-15)
(5.33169 4.3372e-11 -3.93716e-10 4.06502 -173.194 12.5813)
(1e-15 7.11169e-20 -3.04853e-19 1e-15 -1.07233e-07 1e-15)
(1e-15 4.58218e-20 -2.04088e-20 1e-15 1.84787e-08 1e-15)
(4.41734 6.08004e-13 6.59794e-14 4.6013 -0.691822 11.6591)
(4.02521 2.10177e-12 4.85165e-15 4.18162 -0.0081267 10.8518)
(1.02651 1.95342e-12 -5.80672e-14 0.4229 0.204639 2.84189)
(0.906065 1.59766e-12 -3.22786e-14 0.545597 0.253388 2.41952)
(0.750397 1.16225e-12 -5.2727e-15 1e-15 0.19171 2.49271)
(0.110848 5.1587e-13 -1.6927e-14 1e-15 0.0750088 0.256081)
(0.0530931 1.83924e-13 -5.4842e-15 0.0546343 0.0286565 1e-15)
(0.019668 2.44001e-15 6.78628e-16 0.0266627 0.00877081 1e-15)
(1e-15 3.46733e-21 5.03189e-21 1e-15 8.30442e-09 1e-15)
(1e-15 3.41751e-21 3.86163e-21 1e-15 4.54981e-09 1e-15)
(1e-15 1.20518e-12 2.33922e-13 1e-15 -0.0422057 1e-15)
(1e-15 1.03033e-11 1.10128e-11 1e-15 16.5727 1e-15)
(5.34189 1.89417e-11 -2.60618e-11 4.41388 5.83464 11.6873)
(1.75689 9.2639e-12 -1.15797e-11 1.26781 2.35708 2.67219)
(1.22219 3.68423e-12 -1.66184e-12 0.862725 1.5409 1.83662)
(1.10873 1.75839e-12 8.81044e-14 0.959826 0.906648 1.84947)
(0.731182 9.08822e-13 4.57266e-13 0.646601 0.573157 1.04429)
(0.515581 4.04423e-13 4.26648e-13 0.432842 0.297587 0.686409)
(0.434879 1.51084e-13 4.43796e-13 0.305126 0.113782 0.697957)
(0.560984 1.45663e-13 4.44138e-13 0.310427 0.0707766 1.34322)
(1e-15 5.94372e-21 1.44794e-20 1e-15 2.83295e-09 1e-15)
(1e-15 8.51896e-21 -2.51638e-22 1e-15 1.28028e-09 1e-15)
(1e-15 1.35997e-23 4.5793e-24 1e-15 4.33651e-10 1e-15)
(1e-15 4.95132e-25 2.93189e-25 1e-15 3.39702e-09 1e-15)
(1e-15 -7.71072e-24 -5.17753e-24 1e-15 5.07922e-08 1e-15)
(8.44186 6.50332e-13 -1.15305e-12 0.34893 -2.00999 23.2405)
(9.02949 6.7909e-12 -1.13622e-11 1e-15 0.65514 1e-15)
(3.97084 1.98873e-14 -1.7696e-14 1e-15 0.0239866 3.6177)
(2.01197 4.14218e-15 -3.18064e-15 1.31351 0.805954 2.61535)
(1.27563 5.07037e-14 4.85546e-14 1.0843 0.448317 1.66753)
(0.917166 1.01523e-13 1.0738e-13 0.797843 0.307271 1.18031)
(0.677732 1.31165e-13 1.68853e-13 0.579632 0.281235 0.851977)
(0.509272 1.16339e-13 2.03598e-13 0.446398 0.222477 0.632786)
(0.40349 5.26322e-14 1.66082e-13 0.34235 0.123777 0.528749)
(0.21891 1.35767e-14 7.03184e-14 0.133902 0.0399474 0.130403)
(1e-15 2.37807e-24 -1.73297e-24 1e-15 3.84033e-09 1e-15)
(1e-15 6.60284e-25 5.03608e-25 1e-15 6.55799e-09 1e-15)
(1e-15 1.56479e-24 1.65947e-24 1e-15 5.16205e-08 1e-15)
(1e-15 6.84165e-24 5.29703e-24 1e-15 8.30521e-08 1e-15)
(1e-15 3.58458e-25 -7.41881e-23 1e-15 1.75979e-07 1e-15)
(5.23069 3.77408e-13 -2.10755e-12 0.334968 -3.6943 15.028)
(1e-15 6.29389e-16 6.93101e-17 1e-15 0.000447761 1e-15)
(1e-15 4.94768e-23 5.22692e-23 1e-15 -6.84551e-09 1e-15)
(1e-15 2.39517e-23 2.14209e-23 1e-15 -2.5612e-09 1e-15)
(1e-15 8.27227e-24 5.80981e-24 1e-15 -6.46635e-10 1e-15)
(1e-15 2.35712e-24 -1.01175e-25 1e-15 6.12058e-09 1e-15)
(1e-15 1.64276e-24 -6.06509e-25 1e-15 1.08226e-07 1e-15)
(1e-15 8.4679e-25 -7.07792e-25 1e-15 7.55828e-07 1e-15)
(1e-15 6.07907e-25 -1.39345e-24 1e-15 4.4334e-06 1e-15)
(1e-15 4.24365e-25 -1.00703e-24 1e-15 1.3936e-05 1e-15)
(1e-15 9.21116e-25 -2.04053e-24 1e-15 6.33104e-05 1e-15)
(1e-15 4.40478e-25 -1.03795e-24 1e-15 2.48916e-05 1e-15)
(1e-15 3.66288e-25 -4.68585e-25 1e-15 1.34247e-06 1e-15)
(1e-15 9.19139e-25 1.62132e-24 1e-15 1.00064e-06 1e-15)
(1e-15 2.37907e-24 -3.99475e-23 1e-15 5.71679e-07 1e-15)
(0.146967 2.71479e-13 -1.42673e-12 1e-15 0.621707 1e-15)
(1e-15 1.54913e-15 2.01216e-16 1e-15 0.00111485 1e-15)
(1e-15 -4.56745e-24 -5.74286e-23 1e-15 -3.39494e-09 1e-15)
(1e-15 1.05667e-14 -3.08516e-15 12.5558 -2.20554 1e-15)
(1.31446 -3.74786e-15 1.31473e-16 3.94945 1.09108 1e-15)
(2.22191 -7.96315e-14 -5.06386e-16 2.83005 1.59792 4.44982)
(4.73638 -2.54073e-13 -3.54581e-14 7.95599 1.24788 11.3548)
(1e-15 -4.87347e-19 -2.1674e-19 1e-15 0.000868867 1e-15)
(1e-15 5.76168e-24 -4.20554e-24 1e-15 0.00121594 1e-15)
(1e-15 4.16045e-24 -3.13465e-24 1e-15 0.00112838 1e-15)
(1e-15 3.34676e-24 -2.42487e-24 1e-15 0.00121721 1e-15)
(1e-15 2.0616e-24 -1.42918e-24 1e-15 0.000165427 1e-15)
(1e-15 1.38695e-24 -6.2624e-25 1e-15 5.63945e-06 1e-15)
(1e-15 4.11181e-25 -1.01207e-24 1e-15 3.08838e-06 1e-15)
(1e-15 1.12163e-24 -2.72858e-24 1e-15 2.54778e-06 1e-15)
(1e-15 7.02997e-17 7.01494e-17 1e-15 4.9931 1e-15)
(1e-15 1.68624e-15 4.53476e-16 1e-15 0.022059 1e-15)
(1e-15 8.90886e-23 9.89445e-22 1e-15 -2.96276e-07 1e-15)
(1e-15 4.05031e-17 5.32299e-16 1e-15 -0.155266 1e-15)
(1e-15 1.67451e-23 2.05796e-23 1e-15 -0.0772464 1e-15)
(1e-15 9.03972e-18 1.18802e-16 1e-15 -0.0806094 1e-15)
(1e-15 -1.26819e-16 -5.63985e-17 1e-15 0.0407092 1e-15)
(1e-15 -2.4945e-17 -1.10934e-17 1e-15 0.0444724 1e-15)
(1e-15 6.22176e-24 -1.83066e-24 1e-15 0.0320747 1e-15)
(1e-15 5.63253e-24 -1.27497e-24 1e-15 0.02376 1e-15)
(1e-15 3.50402e-24 -1.93729e-24 1e-15 0.0140272 1e-15)
(1e-15 1.4596e-25 -9.98595e-25 1e-15 0.00137225 1e-15)
(1e-15 1.5742e-25 2.32436e-25 1e-15 3.33797e-08 1e-15)
(1e-15 -3.55217e-25 -9.54631e-25 1e-15 1.39827e-07 1e-15)
(1e-15 -6.62644e-25 -3.19934e-24 1e-15 5.56235e-07 1e-15)
(1e-15 4.63384e-17 4.41785e-17 1e-15 3.22877 1e-15)
(6.0731 1.51096e-13 4.02656e-13 2.84502 1.49386 19.2248)
(1e-15 2.30324e-22 3.0343e-21 1e-15 -8.85173e-07 1e-15)
(1e-15 7.29275e-16 9.58428e-15 1e-15 -2.79562 1e-15)
(1e-15 4.20644e-16 5.52818e-15 1e-15 -1.62088 1e-15)
(1e-15 1.57301e-16 2.06728e-15 1e-15 -0.606136 1e-15)
(1e-15 -1.35413e-15 -6.02205e-16 1e-15 0.986442 1e-15)
(1e-15 -4.27883e-16 -1.90286e-16 1e-15 0.311699 1e-15)
(1e-15 -1.86349e-16 -8.28725e-17 1e-15 0.139653 1e-15)
(1e-15 -6.58434e-18 -2.92816e-18 1e-15 0.00513951 1e-15)
(1e-15 -2.96302e-19 -1.3177e-19 1e-15 0.000267951 1e-15)
(1e-15 -2.15096e-21 -9.56394e-22 1e-15 5.83344e-06 1e-15)
(1e-15 -5.72271e-23 -2.40966e-23 1e-15 1.5781e-07 1e-15)
(1e-15 1.46728e-24 2.30059e-24 1e-15 1.6288e-08 1e-15)
(1e-15 8.90394e-25 -1.88859e-25 1e-15 1.43336e-07 1e-15)
(1e-15 8.42096e-16 7.84803e-16 1e-15 60.1744 1e-15)
)
;

boundaryField
{
    inletFace
    {
        type            zeroGradient;
    }
    inlet
    {
        type            fixedValue;
        value           uniform (0.432 0 0 0.432 0 0.432);
    }
    inletWalls
    {
        type            kqRWallFunction;
        value           nonuniform List<symmTensor> 
30
(
(0.410983 -0 -0 0.272863 0 1.63468)
(0.319077 -0 -0 0.00702352 -0 1.11618)
(0.804615 -0 -0 1e-15 0 3.12509)
(0.164837 -0 -0 1e-15 0 0.606282)
(1e-15 -0 -0 1e-15 -0 1e-15)
(1e-15 -0 -0 0.23985 -0 1e-15)
(1e-15 -0 -0 1e-15 -0 1e-15)
(1e-15 -0 -0 1e-15 -0 1e-15)
(1e-15 -0 -0 1e-15 -0 1e-15)
(8.44186 -1.44776e-08 -8.36827e-09 0.34893 -186243 23.2405)
(5.23069 -7.62004e-09 -4.40079e-09 0.334968 -120057 15.028)
(0.146967 -0 -0 1e-15 -0 1e-15)
(1e-15 -0 -0 1e-15 0 1e-15)
(1e-15 0 0 1e-15 0 1e-15)
(1e-15 0 0 1e-15 -0 1e-15)
(6.0731 3.98313e-09 2.30682e-09 2.84502 84062 19.2248)
(1e-15 0 0 1e-15 0 1e-15)
(1e-15 0 0 1e-15 -0 1e-15)
(1e-15 0 0 1e-15 0 1e-15)
(9.02949 0 0 1e-15 -0 1e-15)
(1e-15 0 0 1e-15 0 1e-15)
(1e-15 0 0 1e-15 0 1e-15)
(0.349035 0 0 1e-15 0 4.25838)
(1e-15 0 0 1e-15 0 1e-15)
(25.1068 9.50549e-08 5.49425e-08 1e-15 51248.9 99.4648)
(4.90885 5.33551e-08 3.08376e-08 1e-15 -40180.7 23.6774)
(1e-15 0 0 2.6778 -0 1e-15)
(1e-15 0 0 1e-15 -0 1e-15)
(1e-15 0 0 1e-15 -0 1e-15)
(1e-15 0 0 1e-15 -0 0.710525)
)
;
    }
    outletInlet
    {
        type            zeroGradient;
    }
}


// ************************************************************************* //
