/*--------------------------------*- C++ -*----------------------------------*\
| =========                 |                                                 |
| \\      /  F ield         | OpenFOAM: The Open Source CFD Toolbox           |
|  \\    /   O peration     | Version:  4.1                                   |
|   \\  /    A nd           | Web:      www.OpenFOAM.org                      |
|    \\/     M anipulation  |                                                 |
\*---------------------------------------------------------------------------*/
FoamFile
{
    version     2.0;
    format      ascii;
    class       volVectorField;
    location    "1";
    object      U;
}
// * * * * * * * * * * * * * * * * * * * * * * * * * * * * * * * * * * * * * //

dimensions      [0 1 -1 0 0 0 0];

internalField   nonuniform List<vector> 
225
(
(5.24434e-07 -281001 -2.40474e+06)
(4.09102e-07 -919234 -4.36303e+06)
(3.22175e-07 1.90835e+06 358813)
(1.08853e-06 -2.76109e+06 1.26052e+06)
(1.47088e-06 -2.21363e+06 1.87018e+06)
(1.4884e-06 -1.39768e+06 1.59762e+06)
(1.42798e-06 -1.00767e+06 1.18505e+06)
(1.39166e-06 -719629 971662)
(1.17905e-06 357733 1.44752e+06)
(4.66167e-07 1.09271e+06 1.65388e+06)
(5.67122e-07 1.03389e+06 134018)
(8.61556e-07 869638 -533510)
(1.01561e-06 911001 1.87954e+06)
(1.00781e-06 2.10668e+06 -2.96226e+06)
(9.08249e-07 1.82501e+06 -4.74137e+06)
(8.071e-07 -500443 -962800)
(1.08552e-06 -361208 950805)
(1.04549e-06 2.1628e+06 4.05186e+06)
(1.54508e-06 -3.88315e+06 2.28682e+06)
(1.67759e-06 -3.10613e+06 957378)
(1.5172e-06 -592377 25678.5)
(1.6324e-06 -85536.3 141859)
(1.75557e-06 335125 229143)
(1.75094e-06 380484 119033)
(1.77331e-06 -61630.3 2076.39)
(1.78503e-06 -213154 -730587)
(1.85858e-06 -129216 -227134)
(1.85952e-06 975434 -404725)
(1.8025e-06 731553 -1.14696e+06)
(1.60849e-06 1.51498e+06 -713504)
(6.80159e-07 -717913 -619314)
(9.09262e-07 211930 -793530)
(1.07255e-06 259915 -1.13671e+06)
(1.19862e-06 -289951 -714699)
(1.25786e-06 -610402 -451905)
(1.27478e-06 -589032 -352080)
(1.2802e-06 -534996 -338850)
(1.30248e-06 -421231 -478967)
(1.32698e-06 -219515 -702819)
(1.37714e-06 105393 -831701)
(1.4481e-06 613258 -746927)
(1.47453e-06 1.15974e+06 -857393)
(1.48499e-06 1.12074e+06 -1.29097e+06)
(1.41182e-06 2.32717e+06 -124439)
(1.20872e-06 -3.10563e+06 1.22071e+06)
(1.28504e-06 95570.6 -2.05697e+06)
(1.33566e-06 679211 -1.32024e+06)
(1.34841e-06 700827 -1.14036e+06)
(1.36867e-06 531820 -912789)
(1.34685e-06 347431 -725864)
(1.32714e-06 82921.8 -286703)
(1.28167e-06 -514488 244627)
(1.22365e-06 -155911 750655)
(1.23413e-06 20499.1 900900)
(1.27744e-06 387705 1.4582e+06)
(1.32572e-06 458195 1.44071e+06)
(1.33796e-06 1.9935e+06 1.83651e+06)
(1.36106e-06 922057 558848)
(1.31545e-06 -942698 -586498)
(1.10569e-06 -5.62042e+06 -2.85447e+06)
(1.11767e-06 338198 -1.03716e+06)
(1.23497e-06 589483 -833952)
(1.26557e-06 748509 -638331)
(1.30353e-06 728187 -503876)
(1.31724e-06 622132 -290538)
(1.32615e-06 428724 -31237.6)
(1.34348e-06 155176 308091)
(1.33739e-06 127183 532763)
(1.34648e-06 41893.2 189115)
(1.3599e-06 -322423 -22652)
(1.34859e-06 -1.0809e+06 -122198)
(1.32865e-06 -1.42309e+06 -253745)
(1.33287e-06 -432414 775804)
(1.45135e-06 -2.18665e+06 463463)
(6.91579e-07 -20778.9 130179)
(5.7932e-07 178180 209346)
(9.8856e-07 183513 326829)
(9.87743e-07 227745 78812.7)
(9.60198e-07 280592 -72039.3)
(9.63009e-07 302920 -266529)
(9.84826e-07 281366 -445023)
(1.01075e-06 260281 -524952)
(1.03905e-06 253179 -420689)
(1.05383e-06 150356 -218926)
(1.02956e-06 8622.01 -78137.1)
(9.74255e-07 -63852.6 98446.9)
(9.34217e-07 -183197 336985)
(9.49313e-07 -665501 354911)
(9.8019e-07 -41926.3 490778)
(7.68898e-07 -227521 490362)
(6.01655e-07 198329 135970)
(6.24787e-07 -132903 -109174)
(5.61037e-07 -326716 -130991)
(5.1589e-07 -385080 -25213.1)
(4.86799e-07 -491178 9273.43)
(4.13036e-07 -604545 92715.7)
(3.05893e-07 -784605 139384)
(2.40435e-07 -957328 9739.97)
(1.9423e-07 -999041 -291743)
(1.49552e-07 -1.05511e+06 -870270)
(1.21398e-07 -1.22134e+06 -1.5702e+06)
(1.61138e-07 -1.54303e+06 -2.96484e+06)
(7.38079e-07 -2.60311e+06 -4.57817e+06)
(7.29066e-07 -1.0504e+06 -136991)
(4.41234e-07 626800 -58782.3)
(5.40243e-07 700850 703913)
(6.39181e-07 701948 157232)
(5.45742e-07 545979 -180087)
(4.23741e-07 570210 -260561)
(3.33566e-07 430764 -463265)
(2.55594e-07 263413 -551911)
(2.09578e-07 89552.3 -531867)
(1.91228e-07 -58502.6 -496087)
(1.69652e-07 -95771.7 -508265)
(1.51083e-07 -179851 -610367)
(1.43781e-07 -316510 -730681)
(1.4603e-07 -533155 -964795)
(2.86953e-07 -1.30564e+06 -234763)
(5.25518e-07 -1.48415e+06 1.62457e+06)
(2.87116e-07 1.21048e+06 2.19831e+06)
(2.16292e-07 619940 3.84095e+06)
(2.42391e-07 810815 -347285)
(1.84795e-07 1.00038e+06 -1.38041e+06)
(1.54955e-07 810580 -1.41182e+06)
(1.34609e-07 552645 -1.49842e+06)
(1.24756e-07 288605 -1.34364e+06)
(1.22484e-07 65215.6 -964572)
(1.2547e-07 -88149 -671130)
(1.31586e-07 -12464.8 -508980)
(1.45688e-07 -44285.1 -326524)
(1.60663e-07 -236801 -48081)
(1.44104e-07 -559032 -270802)
(2.61041e-07 -447593 1.14049e+06)
(3.97833e-07 -1.12911e+06 2.6436e+06)
(2.84411e-07 1.2376e+06 2.12187e+06)
(9.47795e-08 90065.4 55674.5)
(1.36213e-07 522832 -915761)
(1.31114e-07 974438 -3.07972e+06)
(1.18664e-07 1.08042e+06 -2.31258e+06)
(1.13605e-07 948676 -2.03216e+06)
(1.13505e-07 871011 -1.74114e+06)
(1.21764e-07 779159 -1.37631e+06)
(1.48713e-07 467244 -1.02542e+06)
(1.68432e-07 181447 -682168)
(1.82465e-07 229601 -182412)
(2.10127e-07 303940 -32688.9)
(2.01512e-07 189500 219287)
(1.74292e-07 -58268.4 471006)
(2.39823e-07 -410912 1.50564e+06)
(2.66403e-07 1.10598e+06 2.7878e+06)
(1.43986e-07 540382 -653475)
(1.77448e-07 472650 -1.81598e+06)
(1.64299e-07 486388 -1.17837e+06)
(1.57801e-07 503700 -918037)
(1.50355e-07 632388 -824741)
(1.46064e-07 784432 -715383)
(1.50722e-07 1.05088e+06 -343630)
(1.56003e-07 1.12497e+06 129965)
(1.59732e-07 1.00809e+06 846870)
(1.82214e-07 868465 1.34791e+06)
(1.93096e-07 559413 797198)
(1.65034e-07 720588 1.11323e+06)
(2.31022e-07 -308510 1.58491e+06)
(3.12721e-07 -470383 2.41172e+06)
(2.50777e-07 1.18176e+06 3.26728e+06)
(1.42282e-07 154971 910048)
(1.58861e-07 143202 -283303)
(1.62049e-07 404819 -105980)
(1.67371e-07 526027 -3051.19)
(1.72471e-07 633677 142494)
(1.76356e-07 744355 318464)
(1.81173e-07 821821 497100)
(1.83593e-07 838605 610389)
(1.86108e-07 814877 686601)
(1.90098e-07 765412 759472)
(1.91078e-07 692245 784598)
(1.87705e-07 528626 765330)
(1.80604e-07 294619 710442)
(1.44807e-07 438864 421915)
(2.70342e-08 745153 -198427)
(1.50652e-07 65437 -60140.3)
(1.57812e-07 -50043 262608)
(1.59187e-07 -198051 78996.3)
(1.59505e-07 -147876 21237)
(1.64716e-07 -210900 186532)
(1.56698e-07 12880.1 328987)
(1.38008e-07 96659.6 -122559)
(1.18354e-07 3203.19 -822103)
(9.46754e-08 143480 -838860)
(6.10305e-08 444256 -739965)
(4.70076e-08 655076 -781467)
(3.43297e-08 645156 -878226)
(2.41952e-08 553167 -970587)
(1.65063e-08 410832 -986999)
(2.85136e-09 353933 -954903)
(1.35231e-07 -56699.2 462364)
(1.30862e-07 -284723 704245)
(1.10163e-07 -395296 704371)
(8.99496e-08 -321786 799851)
(8.01852e-08 -225379 671173)
(6.98916e-08 -57377.7 445438)
(4.30346e-08 42840.2 62875.4)
(2.24232e-08 149671 -331594)
(2.44262e-08 402522 -605849)
(2.69612e-08 458612 -934286)
(2.86353e-08 491607 -1.22572e+06)
(3.23146e-08 488206 -1.5328e+06)
(3.28977e-08 263931 -1.20676e+06)
(1.41594e-08 -382644 110826)
(-2.32583e-08 233384 -539841)
(8.5031e-08 -399531 2.02511e+06)
(5.61092e-08 -404213 1.32969e+06)
(3.6487e-08 30234.9 916624)
(2.75558e-08 283602 500812)
(2.4621e-08 488290 113438)
(2.32722e-08 648053 -226972)
(2.29757e-08 791358 -611832)
(2.30347e-08 949350 -1.13919e+06)
(2.35959e-08 1.13075e+06 -1.45352e+06)
(2.58009e-08 1.10744e+06 -1.62464e+06)
(2.8774e-08 1.11018e+06 -1.72506e+06)
(3.11664e-08 1.07911e+06 -1.76418e+06)
(2.96125e-08 781654 -1.17639e+06)
(8.24454e-09 58647.9 521295)
(-2.64155e-08 -564949 352240)
)
;

boundaryField
{
    inletFace
    {
        type            zeroGradient;
    }
    inlet
    {
        type            fixedValue;
        value           uniform (0 8.7 15);
    }
    inletWalls
    {
        type            noSlip;
    }
    outletInlet
    {
        type            zeroGradient;
    }
}


// ************************************************************************* //
