/*--------------------------------*- C++ -*----------------------------------*\
| =========                 |                                                 |
| \\      /  F ield         | OpenFOAM: The Open Source CFD Toolbox           |
|  \\    /   O peration     | Version:  4.1                                   |
|   \\  /    A nd           | Web:      www.OpenFOAM.org                      |
|    \\/     M anipulation  |                                                 |
\*---------------------------------------------------------------------------*/
FoamFile
{
    version     2.0;
    format      ascii;
    class       volScalarField;
    location    "24";
    object      p;
}
// * * * * * * * * * * * * * * * * * * * * * * * * * * * * * * * * * * * * * //

dimensions      [0 2 -2 0 0 0 0];

internalField   nonuniform List<scalar> 
6785
(
4329.67
4265.15
4213.7
4163.81
4117.43
4073.8
4032.74
3994.02
3957.38
3922.23
3888.24
3856.78
3827.33
3792.09
3758.29
3793.03
3774.92
3777.44
3772.7
3769
3765.25
3761.96
3759.38
3757.71
3757.01
3757.21
3759.06
3763.26
3766.12
3765.58
3734.11
3727.56
3737.11
3736.29
3739.49
3741.79
3744.3
3746.7
3749.01
3751.16
3753.15
3755.08
3756.57
3757.52
3758.69
3775.45
3772.47
3777.16
3773.07
3773.14
3771.14
3769.46
3767.52
3765.56
3763.56
3761.61
3760.15
3759.88
3760.6
3762.15
3775.98
3773.58
3776.71
3773.25
3774.61
3773.67
3773.56
3773.42
3773.43
3773.59
3773.91
3774.43
3775.42
3776.38
3777.71
3779
3777.88
3780.87
3779.08
3781.38
3781.55
3782.61
3783.57
3784.58
3785.61
3786.64
3787.61
3788.58
3789.23
3789.98
3789.11
3788.98
3791.52
3790.22
3792.17
3792.16
3792.95
3793.55
3794.12
3794.67
3795.21
3795.69
3796.2
3796.56
3797.09
3797.1
3797.55
3799.59
3798.47
3800.06
3799.92
3800.54
3800.92
3801.31
3801.71
3802.13
3802.54
3803.02
3803.41
3804.01
3805.19
3806.02
3807.65
3806.77
3808.18
3808.03
3808.63
3808.93
3809.29
3809.64
3810.04
3810.48
3810.96
3811.36
3811.95
3812.02
3813.09
3814.32
3813.69
3814.95
3814.79
3815.46
3815.72
3816.04
3816.26
3816.53
3816.87
3817.26
3817.61
3818.06
3820.62
3821.18
3821.95
3821.29
3822.26
3821.85
3822.21
3821.74
3821.61
3821.4
3821.28
3821.21
3821.2
3821.27
3821.23
3812.41
3812.99
3813.6
3813.01
3813.75
3813.22
3813.26
3812.75
3812.68
3812.6
3812.68
3812.84
3813.09
3813.37
3813.43
3826.48
3824.97
3824.51
3823.36
3823.63
3823.18
3823.86
3824.06
3824.3
3824.16
3823.97
3823.63
3822.84
3821.62
3820.06
3741.54
3743.54
3747.83
3750.44
3754.31
3756.89
3759.45
3760.9
3761.99
3763.83
3768.13
3772.4
3774
3774.28
3772.87
3787.72
3784.11
3777.65
3770.17
3761.2
3749.86
3738.85
3728.57
3725.81
3731.69
3739.23
3742.15
3742.83
3743.78
3743.92
4024.99
4026.24
4025.07
4024.5
4024.39
4023.99
4022.48
4021.16
4021.22
4020.86
4017.7
4017.61
4017.1
4014.51
4012.12
4012.12
4012.18
4008.04
4007.62
4007.7
4005.56
4002.57
4001.73
4002.56
4000.82
3997.67
3996.95
3999.06
3996.02
3994.35
3995.83
3995.88
3993.1
3991.7
3994.2
3993.42
3991.27
3992.52
3993.5
3991.32
3989.06
3989.5
3990.52
3987.73
3984.7
3984.56
3986.28
3981.54
3980.59
3981.44
3976.79
3972.29
3972.27
3972.8
3966.43
3960.99
3960.95
3962.49
3951.82
3950.45
3951.4
3941.93
3934.78
3937.23
3938.19
3922.97
3923.32
3924.39
3911.88
3903.53
3910.92
3908.41
3892.77
3884.34
3893.66
3893.19
3871.32
3873.81
3880.33
3856.45
3864.41
3875.66
3870.46
3876.16
3864.37
3862.13
3860.03
3858.09
3855.64
3852.03
3849.27
3844.71
3855.82
3843.29
3839.77
3837.66
3835.06
3832.12
3829.48
3826.21
3811.41
3830.31
3776.71
3760.64
3761.07
3757.19
3753.59
3746.07
3734.87
3732.2
3722.92
3727.51
3673.09
3644.94
3642.81
3636.68
3628.43
3619.41
3611.05
3596.94
3577.43
3573.7
3537.4
3530.67
3524.44
3513.85
3502.74
3495.69
3480.24
3431.4
3469.14
3419.67
3406.24
3398.98
3380.54
3360.95
3347.4
3325.03
3251.01
3303.07
3226.75
3200.72
3187.9
3162.16
3133.14
3101.06
3077.91
3041.6
2914.05
2996.66
2871.81
2828.72
2804.35
2761.21
2713.54
2679.1
2620.97
2418.6
2542.53
2364.84
2160.49
2448.18
2804.89
2468.71
2354.36
2419.85
2374.59
2733.46
2482.52
2205.98
2724.26
2427.68
2229.84
2324.44
2220.61
2773.96
2344.55
2099.56
2222.51
2097.33
2757.3
2314.06
1766.71
2720.47
2199.73
1801.05
1991.92
1801.35
2802.16
2050.36
1579.11
1826.47
1606.35
2782.59
2025.99
1043.82
2719.13
1864.83
1136.19
1492.69
1187.68
2876.61
1656.85
831.868
1264.96
930.307
2826.55
1649.28
78.6268
2679.47
1430.03
273.118
827.391
392.649
2897.96
1149.45
-108.913
534.09
74.0427
2776.5
1142.89
-1084.76
2501.89
836.371
-772.827
-50.5141
-605.278
2724.48
413.936
-1261.13
-483.752
-1034.53
2403.55
282.794
-2515.56
1871.56
-251.749
-2151.57
-1546.66
-1817.77
-2.27195
3.69924
4.66411
8.06851
9.93163
12.3631
14.6186
17.4394
19.824
21.0318
20.895
21.0647
23.1361
28.1429
33.9871
36.6667
34.9531
34.0132
35.0802
34.198
34.7586
35.4521
33.7357
30.9468
28.777
28.5331
26.7931
23.7811
18.7456
11.8064
5.58514
1.81887
-0.0792825
1.99208
0.700136
13.6443
-8.37835
-3.55481
-6.64898
4.17216
5.91673
5.17177
3.42084
1.89424
0.926707
-1.47522
2.12788
-3.55441
0.527623
-24.1287
-22.6744
-17.171
-17.7197
-23.2114
-23.8056
-9.63973
-1.43563
-37.0686
7.0507
-46.8316
249.592
118.395
-24.8292
-27.0943
-13.8711
-3.11188
5.34956
11.9423
17.1251
20.8329
23.5067
24.806
27.2158
29.1999
31.5578
32.0171
37.1899
15.6222
27.1488
-6.30645
5.74064
10.8883
19.6476
26.1975
33.7498
41.0248
49.6751
57.7253
63.2957
65.5836
68.3031
75.4014
86.8949
98.9266
101.096
97.0209
98.3054
99.4862
98.4118
97.2986
97.8151
94.1766
86.6388
80.6982
78.6949
72.7509
63.9026
49.2947
29.9933
15.9965
9.30568
4.74531
7.53077
5.7337
27.2779
-3.16759
-7.01164
-14.5054
11.2738
15.4044
13.4895
9.17134
4.87075
1.34706
-5.09244
1.84502
-17.4133
9.69652
-25.6893
-49.1519
-62.4479
-64.745
-74.6018
-71.8252
-47.4553
-51.6377
-63.8415
31.3187
-96.8456
324.699
113.29
-77.3714
-48.097
-9.84699
15.5808
33.7553
46.7913
56.6454
63.8249
69.6171
72.3828
75.9748
75.6788
75.894
74.9603
78.5998
52.4714
34.9625
-5.68183
9.81392
16.3565
27.7058
36.6648
46.9058
56.7156
67.7033
77.8778
85.7401
90.6562
95.9859
105.007
117.133
128.783
131.081
128.155
130.455
131.154
130.352
128.224
127.805
123.418
115.286
108.071
104.209
96.3292
85.4349
68.4425
47.1949
30.8744
22.1418
14.5727
15.3226
12.5831
29.4195
5.22284
-17.3993
-20.8588
18.3582
23.9748
20.6186
13.2537
6.43415
0.406967
-9.96157
2.05949
-30.3942
11.3438
-50.7384
-86.1308
-105.123
-109.989
-123.586
-114.78
-79.9378
-93.1423
-76.8402
-15.9371
-143.385
82.9012
34.5031
-54.9524
-15.2017
24.783
52.7162
73.4393
88.0345
99.0596
107.117
114.364
119.107
125.979
128.217
131.473
128.222
136.075
99.2124
148.941
-4.51778
14.6684
22.1454
35.9979
46.9394
59.4804
71.3295
84.0583
95.6934
105.255
112.335
119.714
129.735
141.797
152.663
156.03
154.537
156.741
157.014
156.303
153.803
152.626
147.534
139.498
131.566
126.23
117.224
105.352
86.9484
64.8799
46.5619
35.373
25.1874
23.1458
20.0857
31.5615
15.1814
-31.0842
-25.729
24.7659
31.532
26.8294
16.6838
7.46328
-1.50948
-15.3883
-1.76736
-45.7278
18.2499
-62.8978
-119.406
-151.352
-161.936
-177.119
-161.777
-113.826
-133.439
-95.0816
-35.9004
-220.602
-112.202
-19.068
-36.1814
11.9052
54.9039
86.3073
110.407
127.261
140.06
149.5
158.73
164.947
173.819
176.528
180.73
176.201
186.297
146.392
168.953
-4.19792
19.0177
28.1374
45.0748
58.4476
73.7606
88.1098
103.254
117.045
128.689
137.807
147.105
158.656
171.835
183.306
187.647
186.826
189.099
189.134
188.37
185.411
183.673
177.632
168.818
159.683
152.937
142.397
128.92
107.954
82.9359
61.6175
47.8225
35.7668
30.9996
28.1975
34.984
28.6012
-42.5618
-26.8033
31.252
38.3063
32.0624
19.0899
7.64687
-4.60156
-21.641
-7.82618
-62.4264
22.8586
-77.9516
-153.977
-198.433
-216.574
-233.997
-210.298
-149.295
-175.117
-118.444
-79.1716
-296.474
-277.795
-60.878
-33.6752
29.3948
80.2695
117.216
145.699
165.452
180.444
191.46
202.283
209.815
220.898
224.721
230.49
225.039
238.008
197.096
281.676
-3.88149
23.143
34.1205
54.1019
69.9541
88.0595
104.965
122.616
138.659
152.425
163.568
174.835
188.143
202.698
214.983
220.009
219.704
222.356
222.233
221.451
217.894
215.621
208.66
198.839
188.354
180.175
167.995
152.743
129.414
101.241
76.9545
60.547
46.8296
39.459
36.9542
38.5338
44.2104
-45.9075
-23.4652
37.8218
44.5249
36.6807
20.9533
7.36784
-8.59445
-28.5381
-16.6971
-80.8724
27.8098
-91.7674
-188.416
-246.2
-273.867
-295.115
-262.598
-186.693
-216.824
-140.7
-127.534
-377.709
-457.593
-101.697
-31.8103
48.1536
106.866
149.089
181.564
203.86
220.712
232.963
245.21
253.854
266.767
271.257
278.169
272.37
287.631
237.162
308.648
-3.30315
27.3124
40.1278
62.9923
81.2111
101.962
121.283
141.254
159.351
175.075
188.166
201.347
216.277
231.988
244.844
250.489
250.772
253.783
253.503
252.734
248.619
245.837
238.058
227.39
215.681
206.139
192.522
175.732
150.682
119.833
92.9808
73.9005
58.4526
48.7314
46.0954
41.7353
60.6532
-38.6377
-15.2108
44.8736
50.4045
40.8147
22.3493
6.69973
-13.4029
-36.0873
-28.1658
-99.7435
31.3195
-107.48
-223.09
-292.788
-331.529
-360.055
-319.389
-226.966
-258.972
-173.456
-190.914
-462.573
-627.63
-137.749
-29.2438
67.9296
134.045
181.308
217.488
242.084
260.584
273.909
287.401
297.011
311.671
316.849
324.915
319.163
337.346
306.058
357.634
-2.64259
31.4753
46.2158
71.9524
92.5292
115.891
137.582
159.816
179.902
197.514
212.471
227.476
243.939
260.748
274.153
280.426
281.264
284.551
284.121
283.355
278.74
275.494
266.931
255.457
242.586
231.76
216.829
198.608
172.159
138.764
109.554
87.7866
70.5468
58.8519
55.655
45.2631
75.9547
-24.8809
-2.92523
52.6056
56.1886
44.7477
23.5723
5.87252
-18.8103
-44.2186
-42.2018
-118.68
33.0591
-124.81
-257.683
-337.383
-385.857
-428.192
-381.059
-270.965
-301.242
-213.719
-260.883
-538.423
-767.938
-166.506
-27.8323
87.1051
160.83
213.256
253.084
279.917
299.992
314.298
328.903
339.35
355.574
361.268
370.354
364.944
385.992
357.433
470.771
-1.94356
35.5943
52.3876
81.0035
103.964
129.937
153.994
178.493
200.565
220.037
236.802
253.578
271.573
289.534
303.566
310.436
311.762
315.324
314.778
314.003
308.902
305.228
295.89
283.567
269.529
257.467
241.266
221.614
193.937
158.103
126.628
102.253
83.1487
69.857
65.7681
49.8427
87.7735
-7.97531
12.5617
61.2228
62.1155
48.7163
24.8563
5.06446
-24.6324
-52.8926
-58.66
-137.183
31.9761
-144.285
-292.364
-379.695
-432.256
-499.823
-447.357
-318.159
-342.751
-264.158
-336.681
-599.293
-873.606
-187.249
-26.4401
106.14
187.463
245.09
288.461
317.432
338.969
354.123
369.692
380.867
398.534
404.656
414.714
409.986
433.786
402.577
509.913
-1.16097
39.6939
58.6375
90.1019
115.448
144.005
170.404
197.135
221.157
242.441
260.962
279.469
298.99
318.122
332.798
340.223
342.001
345.857
345.227
344.448
338.866
334.791
324.701
311.518
296.321
283.07
265.657
244.617
215.888
177.908
144.242
117.42
96.3647
81.7811
76.3352
56.3867
96.3518
10.2401
30.3076
70.8266
68.4442
52.9906
26.4721
4.4778
-30.6565
-62.0897
-77.4917
-154.756
27.1622
-165.797
-327.46
-419.857
-466.163
-574.773
-517.655
-366.847
-381.903
-320.814
-413.014
-640.78
-942.177
-199.518
-23.8871
125.414
214.1
276.881
323.649
354.633
377.493
393.368
409.78
421.592
440.565
446.983
457.97
454.198
481.182
469.543
563.062
-0.281564
43.7925
64.9711
99.2504
126.981
158.089
186.796
215.711
241.629
264.667
284.892
305.089
326.109
346.395
361.704
369.651
371.86
376.009
375.315
374.536
368.49
364.04
353.231
339.207
322.874
308.48
289.929
267.588
237.939
198.179
162.347
133.347
110.299
94.6514
87.3635
65.6822
104.055
29.1453
49.5651
81.4874
75.4256
57.8243
28.6582
4.30348
-36.672
-71.7798
-98.5334
-170.731
17.5173
-189.491
-363.585
-458.344
-486.213
-643.467
-588.475
-414.409
-417.208
-380.597
-486.256
-660.616
-973.522
-203.421
-19.7723
144.868
240.685
308.572
358.603
391.491
415.542
432.027
449.169
461.535
481.686
488.279
500.188
497.555
527.947
526.486
661.684
0.690333
47.8955
71.3969
108.467
138.588
172.22
203.207
234.262
262.028
286.771
308.655
330.502
352.992
374.417
390.35
398.797
401.415
405.849
405.107
404.331
397.836
393.033
381.54
366.694
349.253
333.755
314.131
290.575
260.048
218.863
180.843
150.053
125.041
108.531
99.1062
77.7488
112.129
48.7017
69.8562
93.2485
83.2917
63.4516
31.6305
4.72711
-42.4716
-81.9169
-121.562
-184.339
2.07698
-215.657
-401.509
-496.457
-494.312
-687.447
-652.6
-458.766
-447.907
-439.287
-552.54
-660.255
-970.826
-199.742
-13.8528
164.445
267.2
340.147
393.31
428.003
453.11
470.094
487.868
500.709
521.901
528.537
541.387
540.065
574.269
585.084
699.924
1.75735
52.009
77.9207
117.759
150.277
186.41
219.647
252.802
282.369
308.772
332.275
355.737
379.674
402.226
418.778
427.703
430.71
435.426
434.651
433.878
426.946
421.809
409.667
394.016
375.498
358.935
338.295
313.601
282.175
239.88
199.702
167.533
140.659
123.504
111.747
92.1912
121.377
69.163
90.8849
106.141
92.2405
70.0647
35.566
5.90525
-47.8611
-92.4512
-146.365
-194.857
-19.7121
-244.673
-442.145
-536.337
-491.703
-702.805
-704.853
-499.448
-474.461
-495.616
-610.193
-643.901
-939.029
-189.752
-5.93925
184.13
293.68
371.621
427.78
464.169
490.194
507.568
525.881
539.116
561.207
567.759
581.6
581.721
620.058
642.908
797.72
2.92504
56.1409
84.5464
127.13
162.051
200.656
236.115
271.322
302.644
330.661
355.747
380.795
406.155
429.82
446.979
456.36
459.739
464.736
463.938
463.169
455.809
450.356
437.604
421.169
401.613
384.03
362.426
336.671
304.321
261.16
218.983
185.703
157.186
139.605
125.418
108.816
132.471
90.7189
112.478
120.189
102.422
77.803
40.5983
7.96676
-52.6435
-103.222
-172.568
-201.884
-47.6525
-276.769
-486.521
-580.874
-487.487
-703.428
-744.995
-537.238
-500.285
-549.249
-659.339
-616.7
-883.7
-175.015
4.06285
203.938
320.191
403.025
462.043
499.992
526.794
544.447
563.21
576.753
599.591
605.937
620.852
622.606
665.243
689.122
837.121
4.19697
60.2982
91.2783
136.585
173.913
214.966
252.612
289.824
322.85
352.439
379.076
405.682
432.442
457.199
474.951
484.767
488.498
493.774
492.961
492.191
484.418
478.665
465.342
448.151
427.601
409.045
386.532
359.789
326.527
282.653
238.755
204.429
174.606
156.828
140.239
127.435
145.788
113.489
134.552
135.404
113.921
86.7454
46.8193
11.0275
-56.5904
-114.012
-199.55
-205.297
-80.954
-311.885
-535.437
-632.838
-493.253
-683.158
-770.325
-570.771
-528.009
-598.415
-701.232
-584.348
-810.733
-157.221
16.1907
223.961
346.863
434.425
496.144
535.48
562.911
580.73
599.847
613.603
637.031
643.066
659.166
662.737
710.467
757.636
888.087
5.57567
64.4871
98.1204
146.132
185.871
229.344
269.143
308.311
342.993
374.113
402.273
430.414
458.547
484.377
502.702
512.927
516.987
522.538
521.715
520.94
512.773
506.734
492.88
474.967
453.469
433.988
410.624
382.966
348.849
304.349
259.055
223.648
192.848
175.141
156.328
147.894
161.577
137.528
157.069
151.77
126.754
96.9126
54.2895
15.2036
-59.4758
-124.696
-226.572
-205.253
-118.865
-349.624
-589.093
-693.849
-516.037
-651.136
-775.827
-593.542
-557.54
-641.399
-737.202
-552.849
-725.689
-138.033
30.4486
244.373
373.881
465.926
530.137
570.646
598.547
616.416
635.782
649.647
673.498
679.141
696.564
702.084
755.33
811.428
989.44
7.06341
68.7141
105.076
155.776
197.928
243.795
285.712
326.784
363.072
395.686
425.346
455.001
484.483
511.361
530.235
540.843
545.202
551.021
550.189
549.407
540.868
534.558
520.212
501.617
479.219
458.854
434.715
406.218
371.331
326.295
279.863
243.42
211.819
194.46
173.81
170.08
179.955
162.812
180.012
169.244
140.873
108.282
63.0501
20.6081
-61.1165
-134.937
-252.626
-202.212
-160.693
-389.23
-646.867
-763.543
-558.72
-632.902
-765.806
-610.316
-587.239
-677.004
-766.923
-527.137
-632.364
-118.952
46.8853
265.389
401.454
497.658
564.067
605.51
633.706
651.5
671.001
684.85
708.956
714.166
733.076
740.8
799.816
858.668
1035.15
8.66169
72.9854
112.148
165.523
210.089
258.322
302.317
345.241
383.088
417.161
448.301
479.453
510.258
538.157
557.547
568.505
573.126
579.207
578.364
577.578
568.69
562.119
547.324
528.094
504.841
483.635
458.801
429.56
394
348.548
301.114
263.835
231.53
214.68
192.768
193.966
201.006
189.269
203.369
187.749
156.181
120.802
73.1267
27.3243
-61.2594
-144.01
-276.331
-196.923
-205.399
-429.658
-707.237
-839.252
-618.987
-630.738
-752.232
-627.282
-614.264
-705.881
-788.886
-510.131
-531.822
-101.209
65.7019
287.287
429.823
529.758
597.981
640.098
668.392
685.974
705.482
719.173
743.369
748.155
768.733
778.936
844.373
922.774
1090.16
10.3708
77.3076
119.338
175.379
222.357
272.928
318.959
363.682
403.041
438.542
471.147
503.781
535.88
564.763
584.63
595.896
600.741
607.076
606.22
605.437
596.227
589.399
574.194
554.381
530.326
508.32
482.871
453.002
416.864
371.139
322.737
284.904
252.125
235.743
213.241
219.526
224.85
216.807
227.118
207.179
172.548
134.407
84.5135
35.4068
-59.5017
-151.186
-296.21
-190.497
-251.595
-469.673
-767.742
-918.346
-691.502
-639.781
-741.202
-640.752
-637.673
-732.879
-804.189
-503.002
-422.921
-85.7356
87.2836
310.468
459.284
562.358
631.955
674.444
702.61
719.825
739.186
752.567
776.704
781.133
803.576
816.524
888.833
978.785
1181.51
12.1893
81.6875
126.648
185.347
234.734
287.612
335.638
382.104
422.93
459.831
493.89
527.996
561.36
591.177
611.467
622.992
628.023
634.611
633.741
632.974
623.462
616.387
600.802
580.46
555.661
532.902
506.906
476.54
439.944
394.084
344.799
306.539
273.728
257.604
235.15
246.48
251.458
245.326
251.223
227.407
189.84
149.02
97.164
44.9092
-55.5493
-155.794
-310.656
-184.227
-297.582
-507.785
-825.139
-998.269
-770.649
-657.639
-734.34
-649.541
-655.623
-761.507
-816.545
-503.863
-304.761
-73.3171
112.129
335.449
490.163
595.599
666.083
708.582
736.36
753.029
772.066
784.984
808.939
813.141
837.655
853.667
933.339
1035.41
1226.54
14.1138
86.1326
134.077
195.434
247.222
302.377
352.349
400.506
442.756
481.031
516.537
552.107
586.702
617.385
638.034
649.76
654.946
661.792
660.918
660.181
650.389
643.082
627.138
606.317
580.833
557.371
530.895
500.158
463.266
417.389
367.578
328.638
296.32
280.3
258.382
274.142
280.201
274.685
275.638
248.301
207.924
164.551
110.998
55.7739
-49.4696
-157.436
-318.236
-179.391
-341.492
-542.243
-875.734
-1076.31
-851.004
-682.578
-732.936
-656.009
-664.201
-787.031
-826.726
-509.414
-179.719
-64.7787
140.736
362.787
522.744
629.631
700.445
742.537
769.631
785.55
804.066
816.381
840.071
844.236
871.031
890.435
977.88
1092.39
1313.42
16.1383
90.651
141.626
205.644
259.821
317.222
369.091
418.884
462.519
502.15
539.093
576.118
611.905
643.368
664.296
676.163
681.486
688.606
687.748
687.062
677.013
669.488
653.207
631.945
605.824
581.713
554.829
523.846
486.851
441.074
391.271
351.201
319.756
303.885
282.912
301.913
309.893
304.658
300.313
269.733
226.674
180.901
125.875
67.7796
-41.2603
-155.99
-318.163
-177.186
-381.556
-571.226
-915.878
-1149.11
-927.011
-712.049
-738.945
-663.488
-663.427
-800.915
-829.64
-517.373
-53.779
-61.105
173.442
393.009
557.27
664.576
735.079
776.3
802.388
817.335
835.133
846.727
870.116
874.49
903.777
926.976
1022.43
1139.68
1358.54
18.2533
95.2519
149.294
215.979
272.531
332.144
385.859
437.235
482.219
523.195
561.567
600.027
636.963
669.103
690.221
702.169
707.626
715.046
714.234
713.622
703.349
695.62
679.025
657.348
630.619
605.897
578.681
547.58
510.693
465.181
415.761
374.479
343.872
328.298
308.602
329.802
339.35
334.938
325.201
291.591
245.975
197.958
141.606
80.7665
-30.4745
-150.693
-310.195
-178.445
-416.225
-593.088
-942.617
-1212.22
-993.448
-743.161
-752.836
-677.223
-657.898
-801.883
-820.215
-524.064
64.0334
-63.5342
210.205
426.404
593.889
700.46
769.959
809.819
834.564
848.316
865.218
876.014
899.121
903.983
935.978
963.392
1067.5
1204.13
1410.71
20.4456
99.9454
157.078
226.444
285.351
347.142
402.648
455.553
501.857
544.172
583.962
623.827
661.852
694.564
715.78
727.759
733.354
741.109
740.38
739.875
729.414
721.495
704.62
682.542
655.214
629.886
602.381
571.286
534.725
489.719
440.862
398.878
368.597
353.533
335.327
358.054
368.047
365.14
350.243
313.779
265.719
215.614
157.998
94.6843
-16.7107
-141.063
-295.082
-183.684
-444.382
-606.696
-954.558
-1261.41
-1046.82
-773.206
-772.872
-700.947
-652.302
-795.929
-800.514
-527.336
160.033
-72.9986
250.359
462.753
632.526
737.189
804.985
842.992
866.067
878.416
894.29
904.252
927.152
932.807
967.721
999.724
1112.87
1258.19
1498.72
22.698
104.742
164.975
237.042
298.28
362.212
419.455
473.834
521.43
565.081
606.278
647.505
686.541
719.722
740.951
752.93
758.673
766.803
766.197
765.835
755.225
747.132
730.015
707.557
679.626
653.668
625.855
594.831
558.787
514.582
466.531
424.476
394.05
379.664
363.061
386.954
396.435
394.834
375.351
336.216
285.806
233.772
174.869
109.463
-0.246786
-127.976
-274.612
-192.982
-465.671
-611.905
-952.63
-1293.68
-1085.59
-799.832
-796.679
-732.79
-655.023
-790.14
-777.841
-528.722
217.449
-88.8455
292.61
501.38
672.891
774.571
840.014
875.694
896.793
907.567
922.332
931.473
954.295
961.055
999.106
1036.16
1158.55
1307.16
1546.76
24.989
109.654
172.983
247.773
311.313
377.351
436.275
492.073
540.936
585.922
628.512
671.045
710.998
744.549
765.721
777.684
783.595
792.144
791.701
791.521
780.799
772.55
755.225
732.422
703.892
677.271
649.082
618.099
582.656
539.519
492.678
450.972
420.482
406.707
391.748
416.427
424.688
423.714
400.439
358.828
306.148
252.361
192.069
124.994
18.1098
-112.632
-251.153
-205.922
-480.739
-609.867
-939.316
-1307.66
-1109.12
-821.066
-821.117
-769.399
-677.535
-788.799
-759.486
-531.279
225.241
-108.629
335.331
541.372
714.493
812.362
874.893
907.809
926.655
935.721
949.349
957.724
980.645
988.819
1030.24
1072.78
1204.91
1368.9
1599.93
27.2929
114.692
181.096
258.639
324.449
392.554
453.108
510.266
560.378
606.695
650.657
694.426
735.196
769.019
790.079
802.031
808.148
817.162
816.912
816.953
806.151
797.76
780.256
757.151
728.047
700.747
672.121
641.08
606.173
564.23
518.974
478.043
447.968
434.533
421.258
446.162
452.608
451.765
425.508
381.551
326.67
271.331
209.502
141.096
37.4333
-96.3064
-227.405
-221.842
-491.232
-602.782
-916.906
-1303.96
-1117.82
-835.778
-843.172
-809.126
-721.064
-793.064
-750.114
-538.209
184.71
-129.357
377.099
581.912
756.742
850.282
909.471
939.244
955.602
962.864
975.363
983.062
1006.3
1016.19
1061.23
1109.65
1251.88
1425.11
1678.57
29.5805
119.869
189.309
269.64
337.68
407.817
469.945
528.418
579.762
627.401
672.699
717.624
759.106
793.115
814.031
825.987
832.358
841.887
841.86
842.151
831.296
822.772
805.109
781.743
752.106
724.138
695.053
663.869
629.355
588.548
545.022
505.349
476.183
462.889
451.232
476.078
480.256
479.178
450.692
404.337
347.3
290.64
227.113
157.52
56.7705
-80.351
-205.738
-240.039
-499.711
-593.458
-888.152
-1285.16
-1113.26
-843.303
-862.204
-849.402
-777.215
-802.794
-751.097
-552.243
105.544
-148.768
417.01
622.563
799.225
888.079
943.6
969.924
983.606
989.01
1000.4
1007.55
1031.37
1043.28
1092.2
1146.89
1299.59
1481.53
1725.1
31.8192
125.2
197.617
280.774
351
423.134
486.782
546.533
599.09
648.034
694.617
740.607
782.703
816.838
837.601
849.582
856.245
866.344
866.571
867.133
856.251
847.597
829.782
806.184
776.059
747.448
717.905
686.544
652.309
612.493
570.636
532.497
504.619
491.487
481.368
506.132
507.792
506.213
476.214
427.196
367.971
310.248
244.88
174.088
75.3657
-65.8665
-187.851
-259.986
-509.341
-584.746
-856.302
-1254.99
-1097.11
-844.024
-877.758
-887.822
-839.324
-817.659
-762.208
-576.668
-1.67042
-165.931
454.596
663.162
841.741
925.571
977.162
999.791
1010.66
1014.19
1024.51
1031.28
1055.95
1070.19
1123.26
1184.56
1348.08
1539.12
1796.55
33.9737
130.696
206.01
292.041
364.402
438.49
503.609
564.609
618.359
668.578
716.384
763.345
805.978
840.204
860.819
872.852
879.84
890.554
891.07
891.921
881.032
872.248
854.277
830.462
799.885
770.651
740.651
709.1
675.086
636.138
595.821
559.244
532.941
520.146
511.684
536.364
535.535
533.067
502.192
450.269
388.63
330.105
262.774
190.682
92.8469
-53.5
-174.684
-281.397
-523.332
-578.837
-824.243
-1216.65
-1070.73
-839.341
-888.282
-923.063
-901.45
-838.026
-783.696
-615.226
-129.391
-181.293
489.798
703.665
884.146
962.62
1010.07
1028.8
1036.77
1038.44
1047.73
1054.35
1080.17
1097.04
1154.54
1222.8
1397.37
1589.59
1842.64
36.0063
136.372
214.481
303.435
377.878
453.864
520.411
582.636
637.566
689.009
737.965
785.817
828.94
863.238
883.717
895.831
903.179
914.538
915.378
916.534
905.655
896.736
878.599
854.574
823.566
793.719
763.249
731.489
697.658
659.5
620.615
585.528
561.03
548.823
542.309
566.994
563.598
559.805
528.537
473.845
409.251
350.16
280.755
207.18
109.244
-43.2397
-166.395
-304.314
-544.272
-577.041
-794.584
-1173.31
-1036.35
-830.778
-893.63
-953.985
-957.267
-865.287
-816.588
-671.064
-272.789
-195.999
522.844
744.048
926.265
999.101
1042.24
1056.92
1061.94
1061.8
1070.14
1076.9
1104.19
1123.98
1186.14
1261.69
1447.78
1652.21
1892.62
37.8778
142.243
223.023
314.947
391.424
469.246
537.169
600.599
656.69
709.296
759.33
808.022
851.612
885.969
906.323
918.553
926.295
938.323
939.517
940.99
930.135
921.072
902.758
878.524
847.091
816.627
785.668
753.674
719.986
682.556
645.019
611.341
588.814
577.488
573.25
598.311
591.965
586.418
555.072
498.128
429.853
370.369
298.786
223.629
124.593
-34.6364
-162.582
-329.155
-573.477
-580.097
-769.809
-1128.58
-997.033
-819.774
-894.873
-979.991
-1003.91
-900.638
-861.713
-746.661
-427.742
-210.808
554.102
784.31
967.921
1034.9
1073.61
1084.16
1086.23
1084.34
1091.87
1099.14
1128.19
1151.11
1218.1
1301.23
1499.19
1708.18
1966.45
39.5481
148.322
231.625
326.567
405.028
484.638
553.881
618.489
675.702
729.408
780.468
829.977
874.018
908.42
928.662
941.045
949.219
961.939
963.503
965.307
954.489
945.266
926.762
902.315
870.462
839.37
807.887
775.63
742.047
705.283
669.024
636.681
616.188
606.041
604.375
630.331
620.611
612.804
581.611
523.118
450.532
390.708
316.827
240.216
138.683
-27.3861
-162.71
-356.657
-610.599
-588.597
-752.253
-1085.63
-955.796
-807.827
-894.177
-1000.86
-1042.76
-943.982
-919.153
-843.686
-589.802
-225.516
584.051
824.474
1008.97
1069.95
1104.18
1110.58
1109.71
1106.2
1113.16
1121.31
1152.34
1178.53
1250.47
1341.55
1551.59
1760.63
2014.04
40.9774
154.622
240.282
338.284
418.668
500.031
570.545
636.296
694.575
749.319
801.383
851.707
896.184
930.607
950.746
963.322
971.97
985.405
987.349
989.496
978.725
969.325
950.614
925.949
893.682
861.948
829.9
797.339
763.817
727.667
692.622
661.554
643.043
634.316
635.492
662.715
649.586
638.85
607.97
548.77
471.543
411.16
334.847
256.964
151.835
-21.5541
-166.68
-387.983
-653.487
-603.186
-743.803
-1047.91
-915.461
-796.521
-894.029
-1016.57
-1076.86
-993.807
-988.263
-963.063
-754.414
-239.029
613.238
864.464
1049.29
1104.22
1134.02
1136.29
1132.55
1127.6
1134.28
1143.64
1176.77
1206.24
1283.25
1382.72
1605.22
1821.85
2065.36
42.1274
161.154
248.985
350.087
432.324
515.397
587.145
653.993
713.278
769.023
822.096
873.236
918.12
952.531
972.58
985.392
994.557
1008.73
1011.06
1013.55
1002.84
993.249
974.316
949.43
916.754
884.366
851.709
818.792
785.273
749.681
715.79
685.967
669.295
662.135
666.357
695.007
678.811
664.403
633.94
574.908
493.177
431.716
352.845
273.782
164.208
-17.4859
-175.005
-425.135
-698.602
-624.591
-746.118
-1017.01
-879.433
-787.432
-897.218
-1026.75
-1106.17
-1046.61
-1067.35
-1104.24
-917.451
-249.693
642.205
904.177
1088.84
1137.76
1163.28
1161.45
1154.91
1148.78
1155.48
1166.29
1201.52
1234.25
1316.46
1424.78
1660.02
1879.71
2133.78
42.9629
167.928
257.729
361.967
445.983
530.712
603.661
671.548
731.787
788.526
842.629
894.578
939.819
974.184
994.157
1007.25
1016.98
1031.9
1034.63
1037.47
1026.82
1017.03
997.863
972.76
939.684
906.631
873.32
839.983
806.398
771.293
738.482
709.895
694.905
689.315
696.707
726.824
707.934
689.261
659.251
601.319
515.872
452.504
370.815
290.695
175.3
-15.7828
-188.232
-471.413
-742.888
-652.789
-760.193
-996.218
-851.588
-783.474
-905.921
-1032.49
-1126.99
-1097.21
-1153.89
-1263.96
-1075.03
-255.632
671.453
943.673
1127.71
1170.77
1192.08
1186.2
1176.98
1169.97
1176.99
1189.37
1226.59
1262.54
1350.1
1467.83
1716.06
1937.67
2181.47
43.4532
174.946
266.505
373.908
459.633
545.96
620.063
688.929
750.09
807.843
863.001
915.727
961.265
995.55
1015.46
1028.87
1039.21
1054.9
1058.04
1061.23
1050.66
1040.65
1021.25
995.935
962.476
928.751
894.744
860.915
827.18
792.467
760.635
733.266
719.85
715.679
726.338
757.892
736.575
713.208
683.566
627.9
540.394
474.02
388.715
307.705
185.356
-16.861
-206.779
-531.385
-785.277
-686.025
-785.606
-990.875
-835.75
-788.326
-917.623
-1040.65
-1140.1
-1142.27
-1245.54
-1436.79
-1222.86
-254.967
701.457
983.149
1166.05
1203.44
1220.53
1210.64
1199.02
1191.47
1198.97
1212.93
1251.98
1291.08
1384.19
1511.97
1773.36
1997.18
2244.68
43.5739
182.21
275.308
385.892
473.259
561.122
636.325
706.113
768.19
826.995
883.215
936.667
982.437
1016.61
1036.49
1050.25
1061.24
1077.72
1081.28
1084.82
1074.32
1064.11
1044.46
1018.95
985.135
950.738
915.993
881.6
847.616
813.182
782.193
755.975
744.065
741.124
755.118
787.964
764.539
736.14
706.583
654.065
567.094
497.504
406.64
324.748
194.948
-20.8522
-231.841
-609.066
-825.183
-721.858
-820.147
-998.8
-835.864
-804.566
-929.388
-1054.75
-1150.4
-1182.19
-1340.44
-1617.35
-1356
-246.054
732.675
1022.82
1204.06
1235.92
1248.77
1234.93
1221.26
1213.48
1221.49
1236.95
1277.63
1319.86
1418.73
1557.33
1831.96
2052.62
2292.08
43.3085
189.712
284.136
397.897
486.845
576.176
652.421
723.085
786.099
845.994
903.265
957.377
1003.31
1037.35
1057.21
1071.38
1083.05
1100.33
1104.33
1108.21
1097.81
1087.38
1067.49
1041.81
1007.66
972.602
937.086
902.058
867.722
833.438
803.128
777.942
767.443
765.67
782.94
816.789
791.754
758.136
728.291
678.96
594.745
525.04
425.226
341.79
204.004
-27.6436
-265.23
-703.956
-861.096
-758.897
-860.748
-1016.96
-851.697
-829.772
-942.579
-1066.55
-1159.56
-1217.3
-1436.41
-1801.36
-1469.21
-227.564
765.521
1062.9
1241.97
1268.35
1276.91
1259.3
1243.91
1236.09
1244.57
1261.37
1303.49
1348.85
1453.76
1604.04
1892.12
2116.61
2341.5
42.6507
197.437
292.982
409.897
500.37
591.095
668.326
739.842
803.834
864.846
923.134
977.831
1023.87
1057.75
1077.61
1092.23
1104.63
1122.72
1127.16
1131.39
1121.1
1110.45
1090.33
1064.49
1030.05
994.346
958.039
922.314
887.523
853.255
823.448
799.138
789.882
789.366
809.714
844.21
818.127
779.385
748.937
702.558
620.936
556.647
445.479
358.949
212.146
-37.0012
-307.689
-807.83
-891.923
-796.976
-905.337