/*--------------------------------*- C++ -*----------------------------------*\
| =========                 |                                                 |
| \\      /  F ield         | OpenFOAM: The Open Source CFD Toolbox           |
|  \\    /   O peration     | Version:  4.1                                   |
|   \\  /    A nd           | Web:      www.OpenFOAM.org                      |
|    \\/     M anipulation  |                                                 |
\*---------------------------------------------------------------------------*/
FoamFile
{
    version     2.0;
    format      ascii;
    class       surfaceScalarField;
    location    "24";
    object      phi;
}
// * * * * * * * * * * * * * * * * * * * * * * * * * * * * * * * * * * * * * //

dimensions      [0 3 -1 0 0 0 0];

internalField   nonuniform List<scalar> 
13220
(
-900.175
2200.06
-1392.17
1792.18
-1852.52
1760.24
-2201.19
1648.56
-2465.85
1564.85
-2649.41
1483.45
-2753.6
1404.08
-2777.91
1324.5
-2721.52
1243.51
-2587.39
1165.76
-2387.57
1100.38
-2112.56
1024.87
-1681.52
868.848
-961.416
580.077
338.484
-3.26494
2203.3
-45.7981
1834.69
-182.899
1897.32
-296.833
1762.47
-417.384
1685.38
-525.764
1591.81
-621.678
1499.97
-703.318
1406.12
-773.832
1314.01
-830.708
1222.62
-832.072
1101.74
-680.218
873.004
-319.169
507.774
18.3114
242.547
356.791
-169.605
2372.9
-403.304
2068.37
-630.285
2124.29
-787.733
1919.9
-937.803
1835.43
-1055.31
1709.3
-1153.7
1598.35
-1236.33
1488.73
-1308.29
1385.95
-1361.79
1276.09
-1350.67
1090.61
-1189.32
711.553
-854.526
172.853
-502.841
-109.331
-146.05
6.74551
2366.15
-87.4116
2162.52
-140.74
2177.61
-157.414
1936.57
-173.958
1851.97
-168.86
1704.19
-150.747
1580.22
-117.187
1455.15
-69.4847
1338.22
-12.1773
1218.76
26.8815
1051.53
-11.0472
749.473
-132.503
294.271
-189.7
-52.1763
-335.75
142.242
2223.91
116.785
2187.99
156.506
2137.9
208.604
1884.48
258.563
1802.02
315.682
1647.08
375.5
1520.41
439.606
1391.07
509.634
1268.2
578.403
1150
615.592
1014.38
548.36
816.636
328.215
514.358
69.5778
206.385
-266.168
148.695
2075.24
123.89
2212.82
151.057
2110.75
183.557
1852.01
214.006
1771.6
245.563
1615.56
276.058
1489.95
305.926
1361.22
338.302
1235.86
371.839
1116.51
392.386
993.842
363.58
845.595
254.475
623.651
119.182
342.035
-146.982
120.627
1954.64
109.883
2223.59
124.133
2096.53
140.318
1835.85
162.255
1749.7
180.004
1597.84
197.441
1472.54
215.003
1343.69
232.418
1218.47
250.542
1098.42
265.099
979.308
258.93
851.805
207.921
674.731
116.038
434.169
-30.9431
89.974
1864.69
115.051
2198.54
140.242
2071.37
163.051
1813.07
193.927
1718.84
218.448
1573.34
238.842
1452.17
253.207
1329.34
262.006
1209.69
266.142
1094.3
265.784
979.679
253.818
863.78
208.004
720.557
111.313
530.906
80.375
50.8297
1813.88
111.942
2137.44
154.675
2028.65
197.086
1770.68
238.499
1677.45
282.301
1529.55
320.742
1413.75
349.373
1300.72
368.136
1190.94
379.511
1082.95
378.732
980.467
357.735
884.854
296.602
781.772
179.138
648.521
259.511
2.20713
1811.68
73.0678
2066.59
124.853
1976.87
171.169
1724.37
214.195
1634.43
264.135
1479.62
323.942
1353.94
419.763
1204.91
497.999
1112.71
543.943
1036.99
549.671
974.753
504.163
930.291
398.027
887.846
236.919
809.539
496.43
-45.6522
1857.32
-32.5492
2053.47
-5.83127
1950.14
-7.16097
1725.68
-5.21782
1632.47
9.14037
1465.25
63.1165
1299.96
195.792
1072.22
346.925
961.556
454.898
929.008
500.84
928.783
472.071
959.091
364.423
995.507
207.749
966.229
704.178
-11.5341
1868.83
-103.762
2145.68
-130.157
1976.52
-174.053
1769.56
-210.502
1668.9
-257.508
1512.24
-291.931
1334.36
-278.471
1058.74
-178.781
861.842
-50.9143
801.108
60.035
817.823
130.597
888.439
139.361
986.668
84.0417
1021.47
788.219
85.0645
1783.75
-37.5027
2268.23
-147.999
2086.99
-288.276
1909.81
-435.49
1816.1
-583.363
1660.1
-718.487
1469.47
-867.137
1207.38
-967.225
961.92
-929.572
763.447
-683.001
571.239
-221.127
426.567
197.265
568.268
250.076
968.646
1038.3
-609.77
2393.5
-1171.65
2830.11
-1598.91
2514.23
-2012.05
2322.95
-2369.09
2173.13
-2700.33
1991.34
-3028.7
1797.84
-3364.63
1543.3
-3635.27
1232.56
-3682.01
810.182
-3191.62
80.8434
-2333.05
-432.016
-1424.61
-340.188
-490.16
34.1643
548.136
-763.922
-683.872
-506.293
-264.54
141.768
522.176
838.36
760.21
142.815
-660.036
-1450.64
-1662.17
-1531.39
-981.858
0.000164313
-539.183
539.183
-539.183
-539.183
-539.182
-959.147
419.965
-959.147
-959.147
-959.147
-1210.95
251.807
-1210.95
-1210.95
-1316.88
105.921
-1316.88
-1316.87
-1316.87
-1275.57
-41.3066
-1275.57
-1275.57
-1116.78
-158.792
-1116.78
-1116.78
-1116.78
-855.053
-261.722
-855.053
-855.052
-855.052
-505.185
-349.867
-505.185
-505.184
-86.1941
-418.99
-86.1939
-86.1936
-86.1935
377.32
-463.513
377.32
377.32
857.937
-480.617
857.938
857.938
857.938
1369.56
-511.622
1369.56
1369.56
1369.56
1914.64
-545.077
1914.64
1914.64
2451.94
-537.302
2451.94
2451.94
2451.94
3017.08
-565.135
3017.08
3017.08
3017.08
3590.68
-573.603
3590.68
3590.68
4138.24
-547.561
4138.24
4138.24
4138.24
4685.22
-546.975
4685.22
4685.22
5205.5
-520.281
5205.5
5205.5
5205.5
5666.82
-461.321
5666.82
5666.82
5666.82
6104.61
-437.793
6104.61
6104.61
6470.29
-365.674
6470.28
6470.28
6365.45
6273.31
6203.39
6432.68
-308.749
6371.59
6284.42
6183.68
6083.9
5987.99
5894.95
5805.89
5715.25
5744.87
-144.655
5667.51
5593.03
5520.54
5445.47
5379.64
5322.84
5303.5
5312.93
4544.57
783.38
4704.13
4880.37
5063.73
5267.83
5514.82
5835.02
6151.97
6465.13
6767.12
5033.14
2003.14
5418.33
5790.15
6134.94
6466.62
6782.04
7102.15
7416.96
7712.02
7107.93
896.541
7406.9
7708.36
7999.96
8282.45
8558.38
8824.71
9083.41
9369.25
9615
60.72
9916.09
10232.5
10519.6
10827
11153.8
11478.6
11804.9
12139.2
12627.8
-128.055
13008.2
13421.9
13799.3
14179.5
14572.7
14991.2
15413.6
15841.9
16283.9
16816.6
-82.429
17303.3
17845.4
18343.4
18846.9
19370.2
19900.6
20449.2
21019.9
21598.3
-17.8165
22192.9
22870.2
22870.2
22924.4
-54.2522
23076.7
-152.295
23076.7
23555.4
-478.676
23555.4
24224.7
-669.352
24946.6
-721.849
24946.6
25876.7
-930.145
26815.5
-938.795
26815.5
27919.2
-1103.68
27919.2
29104.5
-1185.32
30254.6
-1150.11
30254.6
31519.2
-1264.55
31519.2
32826.8
-1307.56
34053.5
-1226.73
34053.5
35404.8
-1351.32
36645
-1240.22
36645
38023.4
-1378.42
38023.4
39468.6
-1445.19
40820.3
-1351.68
40820.3
42337.1
-1516.82
42337.1
43925.6
-1588.47
45397.8
-1472.24
45397.8
47042.1
-1644.24
48509.5
-1467.39
48509.5
50123.6
-1614.16
50123.6
51773.5
-1649.88
53216.3
-1442.84
53216.3
54809.9
-1593.56
54809.9
56440.8
-1630.93
57833.7
-1392.89
57833.7
59439.1
-1605.41
60756.6
-1317.43
60756.6
62263.8
-1507.24
62263.8
63828.3
-1564.51
65105.3
-1276.96
65105.3
66597.7
-1492.45
66597.7
68153.9
-1556.23
69395.8
-1241.88
69395.8
70925.7
-1529.9
72077.7
-1152.02
72077.7
73459.5
-1381.77
73459.5
74910.7
-1451.17
75968
-1057.29
75968
77281.3
-1313.29
77281.3
78671.8
-1390.49
79634.5
-962.736
79634.5
80978.5
-1344.03
81827.7
-849.133
81827.7
82961.8
-1134.1
82961.8
-1203.73
-2985.01
17482.1
-3063.33
19359.1
-3078.71
20648.6
-3070.52
21646
-3028.35
22782
-2958.66
23890.6
-2860.52
25055.6
-2726.14
26134.7
-2551.89
26926.2
-2348.44
27491.6
-2137.25
28278.9
-1922.6
29748.8
-1682.72
31512.3
-1411.58
32344
-1099.95
31408.9
-809.191
28762.3
-549.427
28779.9
-270.018
31505.5
6.45248
31404.6
285.735
31731.9
553.103
30161.8
820.864
30005.7
1081.01
30768.7
1308.8
29921.1
1524.9
28162.8
1742.23
27067.8
1935.32
26185.4
2091
25218
2181.75
23675.2
2154.91
20055.1
2058.16
15113.5
1976.73
10293.8
1892.88
6122.02
1669.34
2683.29
1692.97
-2034.58
2408.44
-2296.56
3133.64
4228.6
3704.24
-10769
3975.51
-28733.9
4022.1
-32752.6
4010.34
-29925.9
3967.51
-25913.1
3931.58
-22138.6
3913.02
-18853.5
3875.06
-15592.9
3913.8
-12563
3685.18
-11336.1
3022.36
-6272.47
3584.38
-2046.88
5064.53
-17919.1
5606.54
-31803.7
5352.48
-31795
4921.42
-24523.5
4473.47
-14694.5
4052.68
-4819.11
3517.89
3417.1
2833.82
11095
3393.19
13294.2
4695.6
-4866.69
4836.04
-10898.9
4642.87
41002.7
4362.68
72574
4050.37
66311.4
3902.83
53558.4
3859.92
43075.5
3857.4
34533.1
3869.64
26932.8
3885.26
19814.5
3896.98
12907.9
3903.63
6149.92
3898.6
-679.734
3833.87
-7638.17
3654.81
-14884.8
3314.41
-21686.4
2827.86
-26481.5
2457.58
-33691
2052.73
-52245.2
1848.83
-69935.3
-80283.9
-2997.21
17562.5
-3071.57
19433.5
-3084.57
20661.6
-3073.2
21634.7
-3029.08
22737.9
-2957.88
23819.4
-2858.39
24956.1
-2721.7
25998
-2544.84
26749.3
-2340.25
27287
-2130.56
28069.2
-1918.51
29536.8
-1680.67
31274.4
-1409.19
32072.5
-1094.59
31094.3
-803.612
28471.3
-547.139
28523.5
-269.064
31227.4
6.61929
31128.9
284.723
31453.8
550.387
29896.1
818.36
29737.7
1079.45
30507.6
1306.18
29694.4
1519.92
27949.1
1737.72
26850
1933.44
25989.7
2093.86
25057.6
2192.06
23577
2172.42
20074.7
2076.79
15209.1
1995.36
10375.3
1927.06
6190.32
1733.11
2877.23
1611.67
-1913.14
2159.48
-2844.37
2995.57
3392.5
3892.83
-11666.3
4270.41
-29111.5
4345.12
-32827.3
4344.86
-29925.6
4300.13
-25868.3
4249.23
-22087.7
4213.83
-18818.1
4165.36
-15544.4
4198.8
-12596.4
3961.35
-11098.6
3382.2
-5693.31
4059.28
-2723.96
5452.28
-19312.1
5854.44
-32205.9
5503.46
-31444
5000.04
-24020
4428.48
-14122.9
3950.06
-4340.7
3494.13
3873.04
2870.61
11718.5
3729.31
12435.5
5188.4
-6325.78
5020.59
-10731.1
4669.88
41353.4
4404.77
72839.1
4060.1
66656.1
3895.54
53723
3851.09
43120
3849.97
34534.2
3862.96
26919.8
3878.49
19799
3889.11
12897.3
3892.5
6146.54
3870.7
-657.94
3778.07
-7545.54
3581.89
-14688.6
3235.74
-21340.3
2762.8
-26008.5
2439.75
-33368
2077.6
-51883
1704.32
-69562
-79713.6
-3012.22
17644.8
-3084.35
19505.6
-3093.83
20671
-3079.03
21619.9
-3032.26
22691.1
-2959.16
23746.3
-2857.52
24854.4
-2717.86
25858.3
-2538
26569.5
-2332.37
27081.4
-2124.25
27861.1
-1914.52
29327.1
-1678.29
31038.2
-1405.54
31799.7
-1088.68
30777.4
-798.301
28180.9
-544.251
28269.4
-267.76
30950.9
6.86464
30854.3
283.889
31176.8
548.177
29631.8
815.998
29469.9
1077.75
30245.9
1303.75
29468.4
1515.78
27737.1
1733.79
26632
1933.16
25790.3
2099.5
24891.3
2205.63
23470.8
2195.37
20085
2103.27
15301.2
2019.59
10458.9
1962.27
6247.64
1827.91
3011.59
1657.63
-1742.86
1949.53
-3136.26
2839.74
2502.29
3969.25
-12795.8
4412.39
-29554.6
4491.76
-32906.6
4487.59
-29921.4
4440.9
-25821.7
4387.27
-22034.1
4347.29
-18778.2
4300.03
-15497.2
4322.59
-12619
4122.79
-10898.8
3641.99
-5212.51
4370.95
-3452.92
5663.79
-20604.9
5987.3
-32529.4
5571.95
-31028.7
5024.04
-23472.1
4418.07
-13516.9
3887.09
-3809.72
3437.49
4322.64
2927.9
12228.1
3898.89
11464.5
5461.16
-7888.06
5254.3
-10524.2
4693.58
41914.2
4424.93
73107.8
4066.8
67014.3
3886.37
53903.4
3839.41
43166.9
3839.79
34533.8
3853.83
26905.7
3869.38
19783.4
3878.58
12888.1
3876.76
6148.35
3843.54
-624.722
3740.58
-7442.58
3541.75
-14489.8
3194.93
-20993.4
2731.19
-25544.8
2430.34
-33067.1
2094.48
-51547.2
1752.57
-69220.1
-78810.2
-3031.02
17728.1
-3099.61
19574.2
-3105.51
20676.9
-3087.2
21601.6
-3037.66
22641.6
-2962.33
23670.9
-2858.1
24750.2
-2715.17
25715.4
-2532.36
26386.7
-2325.94
26875
-2119.23
27654.4
-1911.13
29119
-1675.79
30802.8
-1401.49
31525.4
-1083.18
30459.1
-793.608
27891.4
-541.278
28017.1
-266.35
30676
7.39041
30580.5
283.313
30900.9
546.522
29368.6
814.102
29202.3
1076.27
29983.7
1301.93
29242.7
1512.68
27526.3
1730.84
26413.8
1933.86
25587.3
2106.39
24718.8
2220.58
23356.7
2221.03
20084.5
2134.91
15387.3
2050.68
10543.2
1997.71
6300.62
1907.28
3102.01
1734.91
-1570.48
1793.68
-3195.04
2724.97
1571
4083.74
-14154.5
4585.81
-30056.7
4666.27
-32987.1
4654.05
-29909.2
4600.74
-25768.3
4542.13
-21975.5
4498.18
-18734.2
4454.04
-15453
4478.34
-12643.3
4296.01
-10716.5
3852.42
-4768.91
4647.1
-4247.6
5893.58
-21851.4
6142.64
-32778.5
5643.68
-30529.7
5042.01
-22870.5
4419.27
-12894.2
3821.34
-3211.79
3345.34
4798.65
2951.77
12621.6
4047.35
10368.9
5690.09
-9530.8
5431.97
-10266.1
4710.12
42636
4423.92
73394
4064.92
67373.3
3876.27
54092
3826.51
43216.7
3827.96
34532.4
3843.09
26890.6
3858.63
19767.9
3865.89
12880.9
3858.11
6156.14
3814.35
-580.965
3701.15
-7329.37
3497.33
-14286
3146.56
-20642.7
2692.46
-25090.7
2419.3
-32793.9
2113.58
-51241.4
1768.9
-68875.4
-78385.3
-3053.52
17812.3
-3117.75
19638.4
-3119.9
20679.1
-3098.1
21579.8
-3045.64
22589.1
-2967.84
23593.1
-2860.69
24643
-2714.22
25568.9
-2528.45
26200.9
-2321.23
26667.8
-2115.7
27448.9
-1908.8
28912.1
-1673.85
30567.9
-1397.88
31249.5
-1078.2
30139.4
-789.327
27602.5
-538.46
27766.2
-264.78
30402.3
8.18887
30307.5
283.163
30625.9
545.439
29106.4
812.889
28934.9
1075.59
29721
1301.13
29017.2
1510.82
27316.6
1729.25
26195.4
1935.99
25380.5
2115.18
24539.6
2238.1
23233.7
2249.72
20072.9
2171.29
15465.8
2087.3
10627.2
2033.77
6354.15
1981.95
3153.83
1812.35
-1400.88
1641.06
-3023.75
2658.19
553.874
4212.24
-15708.6
4741.3
-30585.7
4812.9
-33058.7
4786.5
-29882.8
4723.82
-25705.7
4661.69
-21913.3
4617.48
-18690
4581.1
-15416.7
4612.64
-12674.8
4436.75
-10540.6
4014.27
-4346.43
4886.81
-5120.14
6107.98
-23072.6
6289.15
-32959.6
5700.12
-29940.7
5049.01
-22219.3
4434.11
-12279.3
3768.59
-2546.28
3224.5
5342.74
2929.68
12916.5
4145.56
9153.06
5806.74
-11192
5527.08
-9986.41
4708.16
43454.9
4406.28
73695.8
4054.77
67724.8
3863.72
54283.1
3811.56
43268.8
3813.95
34530
3830.24
26874.3
3845.78
19752.3
3850.82
12875.8
3837.45
6169.51
3784.19
-527.711
3662.74
-7207.92
3455.12
-14078.4
3100.16
-20287.7
2656.11
-24646.6
2409.3
-32547.1
2132.59
-50964.7
1753.34
-68496.2
-77594.7
-3079.36
17897
-3139.02
19698.1
-3137.27
20677.3
-3111.99
21554.5
-3056.46
22533.6
-2975.96
23512.6
-2865.55
24532.6
-2715.31
25418.7
-2526.5
26012.1
-2318.43
26459.7
-2113.86
27244.3
-1907.81
28706
-1672.79
30332.9
-1394.89
30971.6
-1073.75
29818.3
-785.484
27314.2
-535.84
27516.6
-263.072
30129.5
9.26463
30035.2
283.538
30351.6
545.05
28844.8
812.51
28667.4
1075.93
29457.6
1301.6
28791.5
1510.45
27107.8
1729.28
25976.6
1939.88
25169.9
2126.15
24353.3
2258.45
23101.4
2281.42
20049.9
2212.12
15535.1
2129.2
10710.1
2071.24
6412.1
2053.37
3171.7
1896.84
-1244.34
1586.91
-2713.83
2749.48
-608.696
4367.51
-17326.6
4885.45
-31103.7
4940.81
-33114
4894.77
-29836.8
4819.14
-25630
4753.88
-21848.1
4712.8
-18648.9
4689.62
-15393.5
4735.16
-12720.4
4557.26
-10362.7
4148.84
-3938.01
5108.72
-6080.01
6317.97
-24281.8
6433.72
-33075.4
5746.53
-29253.5
5045.48
-21518.3
4453.08
-11686.9
3726.26
-1819.46
3070.28
5998.72
2863.41
13123.3
4191.91
7824.56
5816.77
-12816.8
5548.27
-9717.92
4680.01
44323.2
4371.53
74004.3
4036.9
68059.4
3848.38
54471.6
3794.58
43322.6
3797.95
34526.6
3815.53
26856.7
3831.15
19736.7
3834.01
12872.9
3815.31
6188.21
3753.81
-466.202
3625.8
-7079.91
3414.24
-13866.8
3053.72
-19927.2
2620.14
-24213.1
2399.69
-32326.7
2153.21
-50718.3
1856.32
-68199.3
-77128.9
-3108.56
17981.5
-3163.38
19752.9
-3157.67
20671.6
-3128.86
21525.7
-3070.11
22474.8
-2986.65
23429.2
-2872.65
24418.6
-2718.42
25264.4
-2526.49
25820.2
-2317.56
26250.8
-2113.72
27040.4
-1908.12
28500.4
-1672.54
30097.3
-1392.4
30691.4
-1069.82
29495.7
-782.106
27026.5
-533.369
27267.8
-261.242
29857.4
10.6452
29763.3
284.444
30077.8
545.403
28583.9
812.995
28399.8
1077.27
29193.3
1303.34
28565.4
1511.64
26899.5
1730.94
25757.3
1945.39
24955.5
2139.01
24159.7
2281.28
22959.2
2315.78
20015.4
2257.05
15593.8
2176.94
10790.2
2113.38
6475.67
2123.68
3161.4
1994.14
-1114.8
1732.47
-2452.16
3021.12
-1897.35
4535.33
-18840.8
5011.53
-31579.9
5043.37
-33145.9
4972.23
-29765.6
4880.56
-25538.4
4812.83
-21780.4
4778.63
-18614.7
4774.76
-15389.6
4839.72
-12785.3
4656.54
-10179.5
4270.44
-3551.91
5321.63
-7131.21
6522.52
-25482.7
6574.85
-33127.7
5784.71
-28463.4
5022.95
-20756.5
4454.37
-11118.3
3680.68
-1045.77
2890.4
6789.01
2775.33
13238.4
4193.44
6406.45
5705.01
-14328.4
5482.89
-9495.8
4623.45
45182.6
4320.75
74307
4011.86
68368.3
3830.36
54653.1
3775.89
43377.1
3780.31
34522.2
3799.31
26837.7
3815.15
19720.9
3815.99
12872.1
3792.41
6211.78
3723.6
-397.389
3590.13
-6946.44
3374.23
-13650.9
3007.29
-19560.3
2585.18
-23790.9
2391.58
-32133.1
2168.77
-50495.5
1728.66
-67759.2
-76713.5
-3141.26
18065.5
-3190.92
19802.5
-3181.18
20661.9
-3148.76
21493.3
-3086.61
22412.7
-2999.93
23342.5
-2881.99
24300.7
-2723.51
25106
-2528.41
25625
-2318.57
26040.9
-2115.22
26837.1
-1909.66
28294.9
-1673.05
29860.7
-1390.4
30408.8
-1066.38
29171.7
-779.13
26739.3
-530.996
27019.7
-259.263
29585.7
12.3603
29491.7
285.886
29804.3
546.494
28323.3
814.353
28132
1079.64
28928
1306.35
28338.7
1514.35
26691.5
1734.18
25537.5
1952.41
24737.3
2153.56
23958.5
2306.43
22806.3
2352.74
19969.1
2305.72
15640.8
2230.56
10865.3
2163.14
6543.09
2195.16
3129.37
2099.14
-1018.78
1917.99
-2271
3291.94
-3271.3
4692.8
-20241.7
5117.01
-32004.1
5118.02
-33146.9
5016.36
-29664
4906.28
-25428.3
4837.17
-21711.2
4813.85
-18591.4
4835.88
-15411.6
4925.85
-12875.3
4733.48
-9987.16
4380.56
-3198.99
5527.18
-8277.83
6722.23
-26677.8
6713.27
-33118.7
5817.59
-27567.7
4967.48
-19906.4
4392.77
-10543.6
3591.2
-244.198
2701.52
7678.68
2689.55
13250.4
4146.27
4949.73
5480.44
-15662.6
5338.34
-9353.69
4540.73
45980.2
4257.34
74590.4
3980.58
68645.1
3809.7
54824
3755.67
43431.1
3761.24
34516.6
3781.8
26817.2
3798.02
19704.7
3797.06
12873.1
3769.05
6239.79
3693.88
-322.22
3555.95
-6808.52
3334.95
-13429.9
2960.78
-19186.1
2551.43
-23381.6
2386.19
-31967.8
2189.86
-50299.1
1822.52
-67391.8
-75948.3
-3177.55
18148.2
-3221.79
19846.8
-3207.95
20648
-3171.78
21457.1
-3106.03
22346.9
-3015.81
23252.3
-2893.59
24178.5
-2730.62
24943
-2532.26
25426.7
-2321.43
25830.1
-2118.33
26634
-1912.43
28089
-1674.34
29622.6
-1388.91
30123.4
-1063.4
28846.2
-776.488
26452.3
-528.693
26771.9
-257.107
29314.1
14.4362
29220.2
287.892
29530.8
548.335
28062.8
816.612
27863.7
1083.06
28661.6
1310.67
28111.1
1518.57
26483.6
1739.02
25317
1960.91
24515.4
2169.69
23749.7
2333.84
22642.2
2392.44
19910.5
2357.85
15675.4
2289.51
10933.7
2221.6
6611
2268.18
3082.79
2207.15
-957.75
2113.81
-2177.67
3545.58
-4703.07
4832.62
-21528.7
5198.97
-32370.5
5161.49
-33109.4
5024.41
-29526.9
4894.78
-25298.7
4826.07
-21642.5
4817.77
-18583.1
4872.57
-15466.4
4992.04
-12994.8
4786.7
-9781.82
4482.68
-2894.97
5727.53
-9522.68
6916.3
-27866.5
6848.87
-33051.3
5846.6
-26565.4
4850.48
-18910.3
4197.36
-9890.48
3413.19
539.981
2524.63
8567.24
2632.7
13142.3
4049.59
3532.84
5167.19
-16780.2
5133.56
-9320.06
4437.66
46676.1
4185.38
74842.7
3944.4
68886
3786.56
54981.8
3734.07
43483.6
3740.99
34509.7
3763.22
26795
3780.02
19687.9
3777.55
12875.5
3745.61
6271.73
3664.92
-241.527
3523.13
-6666.73
3295.93
-13202.7
2914.05
-18804.2
2519.12
-22986.7
2381.72
-31830.4
2212.49
-50129.9
1911.69
-67091
-75487.8
-3217.51
18229.3
-3256.12
19885.4
-3238.09
20630
-3197.98
21417
-3128.42
22277.4
-3034.34
23158.2
-2907.47
24051.6
-2739.76
24775.3
-2538.05
25225
-2326.14
25618.2
-2123.03
26430.9
-1916.42
27882.3
-1676.41
29382.6
-1387.93
29834.9
-1060.84
28519.1
-774.136
26165.6
-526.434
26524.2
-254.756
29042.4
16.8983
28948.5
290.493
29257.2
550.954
27802.4
819.807
27594.8
1087.6
28393.8
1316.33
27882.4
1524.34
26275.5
1745.5
25095.8
1970.93
24289.9
2187.3
23533.4
2363.33
22466.1
2434.92
19838.9
2413.3
15697
2353.11
10993.9
2289.33
6674.78
2342.88
3029.24
2321.12
-935.99
2328.21
-2184.76
3777.95
-6152.8
4951.28
-22702.1
5255.27
-32674.4
5171.25
-33025.4
4995.07
-29350.7
4846.46
-25150
4780.55
-21576.6
4791.22
-18593.8
4885.45
-15560.7
5037.43
-13146.8
4816.15
-9560.54
4580.61
-2659.43
5923.63
-10865.7
7102.85
-29045.8
6981.07
-32929.5
5870.2
-25454.6
4634.57
-17674.7
3800.86
-9056.77
3106.01
1234.83
2358.2
9315.06
2618.49
12882
3920.98
2230.35
4802.9
-17662.1
4892.67
-9409.83
4322.63
47246.2
4109.16
75056.2
3904.85
69090.3
3761.3
55125.4
3711.36
43533.6
3719.82
34501.2
3743.84
26770.9
3761.41
19670.3
3757.75
12879.2
3722.32
6307.16
3636.85
-156.05
3491.53
-6521.41
3256.77
-12968
2867.11
-18414.6
2488.56
-22608.1
2379.71
-31721.6
2232.1
-49982.3
1806.85
-66665.8
-75062.7
-3261.24
18308.3
-3294.03
19918.2
-3271.68
20607.7
-3227.44
21372.7
-3153.81
22203.7
-3055.51
23059.9
-2923.64
23919.7
-2750.94
24602.6
-2545.77
25019.8
-2332.67
25405.1
-2129.31
26227.5
-1921.6
27674.6
-1679.26
29140.2
-1387.43
29543.1
-1058.65
28190.3
-772.029
25879
-524.186
26276.4
-252.186
28770.4
19.7733
28676.5
293.715
28983.3
554.376
27541.7
823.963
27325.2
1093.28
28124.5
1323.37
27652.3
1531.68
26067.2
1753.62
24873.9
1982.45
24061.1
2206.25
23309.6
2394.67
22277.7
2480.05
19753.5
2471.92
15705.1
2420.84
11045
2366.25
6729.37
2424.2
2971.29
2436.9
-948.69
2545.01
-2292.87
3981.22
-7589.01
5047.84
-23768.7
5283.96
-32910.6
5145.71
-32887.1
4928.93
-29133.9
4763.83
-24984.9
4703.37
-21516.2
4736.18
-18626.6
4875.7
-15700.2
5061.26
-13332.3
4822.99
-9322.27
4678.12
-2514.55
6115.04
-12302.6
7278.11
-30208.8
7108.12
-32759.5
5887.17
-24233.6
4304.05
-16091.5
3224.27
-7977
2683.08
1776.02
2186.97
9811.16
2645.16
12423.8
3787.79
1087.72
4422.39
-18296.7
4637.17
-9624.61
4204.72
47678.6
4032.97
75227.9
3863.55
69259.7
3734.37
55254.5
3687.76
43580.2
3697.99
34491
3723.91
26745
3742.44
19651.8
3737.89
12883.8
3699.37
6345.68
3609.74
-66.4228
3460.84
-6372.51
3217.01
-12724.1
2819.99
-18017.5
2460.12
-22248.2
2381.14
-31642.6
2256.11
-49857.2
1891.9
-66301.6
-74322.8
-3308.87
18384.6
-3335.62
19944.9
-3308.83
20580.9
-3260.19
21324.1
-3182.24
22125.8
-3079.35
22957
-2942.09
23782.5
-2764.15
24424.7
-2555.41
24811.1
-2341.01
25190.7
-2137.13
26023.6
-1927.96
27465.5
-1682.86
28895.1
-1387.4
29247.6
-1056.81
27859.7
-770.119
25592.3
-521.913
26028.2
-249.373
28497.9
23.0874
28404.1
297.581
28708.8
558.619
27280.7
829.099
27054.8
1100.13
27853.4
1331.81
27420.6
1540.61
25858.4
1763.42
24651.1
1995.52
23829
2226.44
23078.6
2427.57
22076.6
2527.71
19653.4
2533.58
15699.3
2492.48
11086.1
2450.6
6771.25
2515.21
2906.68
2551.52
-985.002
2752.45
-2493.8
4157.57
-8994.13
5122.18
-24733.3
5283.12
-33071.5
5084.98
-32689
4829.08
-28878
4651.72
-24807.6
4598.75
-21463.2
4655.35
-18683.2
4844.63
-15889.5
5062.65
-13550.4
4809.73
-9069.35
4778.34
-2483.16
6299.31
-13823.6
7435.93
-31345.4
7226.25
-32549.9
5901.04
-22908.4
3884.93
-14075.4
2522.28
-6614.35
2167.34
2130.96
1996.52
9981.98
2697.93
11722.4
3667.83
117.824
4050.67
-18679.6
4383.15
-9957.09
4092.13
47969.6
3960.65
75359.4
3822.08
69398.3
3706.29
55370.3
3663.54
43622.9
3675.73
34478.8
3703.63
26717.1
3723.3
19632.1
3718.11
12888.9
3676.84
6386.96
3583.57
26.8462
3430.67
-6219.61
3176.16
-12469.6
2772.84
-17614.2
2434.18
-21909.6
2385.15
-31593.6
2281.7
-49753.8
1944.32
-65964.2
-73908.4
-3360.52
18457.9
-3381.03
19965.4
-3349.6
20549.4
-3296.3
21270.8
-3213.72
22043.2
-3105.84
22849.1
-2962.82
23639.4
-2779.4
24241.2
-2566.97
24598.6
-2351.13
24974.9
-2146.46
25819
-1935.47
27254.5
-1687.19
28646.9
-1387.81
28948.2
-1055.27
27527.2
-768.361
25305.4
-519.583
25779.4
-246.293
28224.6
26.8628
28130.9
302.11
28433.6
563.695
27019.1
835.225
26783.2
1108.16
27580.5
1341.66
27187.1
1551.16
25648.9
1774.93
24427.3
2010.19
23593.8
2247.87
22841
2461.77
21862.7
2577.91
19537.3
2598.31
15678.9
2567.84
11116.5
2540.29
6798.8
2612.78
2834.19
2665.93
-1038.15
2953.62
-2781.49
4313.57
-10354.1
5173.43
-25593.2
5251.77
-33149.8
4991.57
-32428.8
4701.28
-28587.7
4516.78
-24623.1
4471.44
-21417.9
4551.2
-18762.9
4792.73
-16131
5039.99
-13797.6
4778.7
-8808.06
4882.29
-2586.76
6471.8
-15413.1
7567.32
-32441
7328.64
-32311.2
5917.84
-21497.6
3467.86
-11625.5
1849.51
-4996
1671.23
2309.25
1800.62
9852.59
2753.68
10769.4
3558.37
-686.863
3702.65
-18823.8
4140.71
-10395.1
3991.29
48119.1
3895.31
75455.4
3781.8
69511.8
3677.56
55474.6
3638.89
43661.6
3653.21
34464.5
3683.19
26687.1
3704.11
19611.2
3698.51
12894.5
3654.73
6430.73
3558.15
123.431
3400.45
-6061.91
3133.76
-12202.9
2725.87
-17206.3
2411.1
-21594.8
2392.28
-31574.8
2309.68
-49671.2
1959.82
-65614.3
-73190.4
-3416.31
18527.6
-3430.34
19979.5
-3394.09
20513.2
-3335.8
21212.5
-3248.28
21955.7
-3135
22735.8
-2985.81
23490.3
-2796.66
24052.1
-2580.44
24382.4
-2363.03
24757.4
-2157.3
25613.3
-1944.1
27041.3
-1692.23
28395
-1388.63
28644.6
-1053.99
27192.5
-766.714
25018.2
-517.171
25529.8
-242.928
27950.3
31.1158
27856.9
307.312
28157.4
569.608
26756.8
842.34
26510.5
1117.38
27305.4
1352.95
26951.6
1563.34
25438.5
1788.18
24202.5
2026.57
23355.4
2270.61
22596.9
2497.07
21636.2
2630.61
19403.7
2666.29
15643.2
2646.73
11136.1
2633.92
6811.61
2714.44
2753.67
2781.27
-1104.98
3149.57
-3149.79
4451.65
-11656.1
5200.82
-26342.3
5190.97
-33140
4870.69
-32108.5
4553.59
-28270.6
4366.59
-24436.1
4325.62
-21376.9
4424.92
-18862.2
4718.87
-16424.9
4990.44
-14069.2
4730.98
-8548.6
4988.65
-2844.43
6626.21
-17050.7
7660.63
-33475.4
7404.45
-32055
5943.74
-20036.9
3235.77
-8917.49
1421.41
-3181.64
1244.89
2485.78
1577.22
9520.26
2792.48
9554.09
3450.41
-1344.79
3389.28
-18762.7
3915.37
-10921.2
3906.6
48127.8
3839.16
75522.8
3743.77
69607.2
3648.6
55569.7
3613.98
43696.2
3630.57
34447.9
3662.68
26655
3684.94
19588.9
3679.05
12900.4
3632.98
6476.8
3533.17
223.248
3369.48
-5898.22
3089.43
-11922.9
2679.46
-16796.4
2391.21
-21306.6
2401.89
-31585.4
2340.53
-49609.8
2080.37
-65354.2
-72666.3
-3476.38
18593.3
-3483.67
19986.8
-3442.34
20471.9
-3378.72
21148.9
-3285.92
21862.9
-3166.79
22616.7
-3011.07
23334.5
-2815.93
23857
-2595.81
24162.3
-2376.68
24538.3
-2169.61
25406.2
-1953.82
26825.5
-1697.95
28139.1
-1389.84
28336.5
-1052.93
26855.6
-765.141
24730.4
-514.657
25279.3
-239.269
27675
35.8512
27581.8
313.184
27880
576.345
26493.6
850.426
26236.4
1127.76
27028.1
1365.64
26713.7
1577.16
25227
1803.18
23976.5
2044.72
23113.8
2294.82
22346.8
2533.37
21397.7
2685.46
19251.6
2737.65
15591
2729.13
11144.6
2730.8
6809.94
2819.29
2665.18
2899.68
-1185.37
3340.61
-3590.73
4572.27
-12887.8
5204.26
-26974.3
5103.95
-33039.7
4729.91
-31734.5
4395.37
-27936.1
4208.2
-24248.9
4163.8
-21332.5
4275.91
-18974.3
4620.16
-16769.2
4909.7
-14358.7
4666.61
-8305.5
5095.05
-3272.87
6755.26
-18710.9
7702.38
-34422.5
7437.68
-31790.3
5974.25
-18573.5
3238.57
-6181.81
916.578
-859.649
444.091
2958.26
1271.4
8692.95
2812.07
8013.42
3339.95
-1872.68
3117.07
-18539.8
3708.26
-11512.4
3840.28
47995.8
3793.51
75569.6
3708.67
69692.1
3619.74
55658.7
3588.92
43727.1
3607.87
34428.9
3642.14
26620.8
3665.73
19565.3
3659.61
12906.6
3611.36
6525.05
3508.11
326.503
3336.95
-5727.07
3042.92
-11628.9
2634.08
-16387.5
2374.9
-21047.4
2414.58
-31625.1
2369.28
-49564.5
2004.84
-64989.7
-72153.9
-3540.83
18654.4
-3541.1
19987
-3494.42
20425.2
-3425.1
21079.6
-3326.65
21764.4
-3201.21
22491.3
-3038.56
23171.9
-2837.21
23655.6
-2613.08
23938.2
-2392.08
24317.3
-2183.38
25197.5
-1964.61
26606.7
-1704.32
27878.8
-1391.4
28023.6
-1052.06
26516.3
-763.61
24441.9
-512.031
25027.8
-235.318
27398.2
41.0589
27305.4
319.704
27601.4
583.878
26229.5
859.446
25960.8
1139.27
26748.3
1379.72
26473.2
1592.58
25014.2
1819.93
23749.1
2064.7
22869.1
2320.63
22090.9
2570.59
21147.7
2741.78
19080.4
2811.94
15520.8
2815.02
11141.5
2830.89
6794.06
2927.74
2568.33
3023.37
-1281
3526.22
-4093.57
4674.99
-14036.6
5184.78
-27484.1
4996.01
-32850.9
4578.33
-31316.8
4235.72
-27593.5
4046.83
-24060
3986.41
-21272.1
4102.21
-19090.1
4492.74
-17159.7
4792.82
-14658.8
4584.68
-8097.36
5198.16
-3886.35
6851.31
-20364
7679.18
-35250.4
7410.06
-31521.2
5992.36
-17155.8
3361.94
-3551.39
614.602
1887.69
-219.208
3792.07
1028
7445.75
2813.24
6228.18
3225.53
-2284.97
2882.14
-18196.4
3514.84
-12145.1
3792.35
47718.3
3758.81
75603.1
3676.8
69774.1
3591.12
55744.3
3563.7
43754.5
3585.04
34407.6
3621.44
26584.4
3646.28
19540.5
3639.9
12912.9
3589.47
6575.48
3482.27
433.711
3302.05
-5546.85
2994.17
-11321
2590.33
-15983.7
2362.53
-20819.6
2431.26
-31693.8
2403.67
-49537
2106.87
-64692.9
-71324
-3609.79
18710.4
-3602.68
19979.9
-3550.35
20372.8
-3474.95
21004.2
-3370.45
21659.9
-3238.23
22359
-3068.25
23001.9
-2860.47
23447.8
-2632.23
23709.9
-2409.21
24094.3
-2198.59
24986.9
-1976.44
26384.6
-1711.31
27613.7
-1393.28
27705.5
-1051.35
26174.4
-762.099
24152.7
-509.293
24775
-231.089
27120
46.7103
27027.6
326.83
27321.3
592.155
25964.1
869.335
25683.7
1151.82
26465.8
1395.09
26229.9
1609.53
24799.7
1838.36
23520.3
2086.48
22620.9
2348.18
21829.2
2608.72
20887.2
2798.84
18890.3
2888.18
15431.5
2904.65
11125.1
2935.97
6762.75
3041.96
2462.34
3154.11
-1393.15
3704.91
-4644.37
4759.13
-15090.8
5144.71
-27869.7
4874.05
-32580.3
4425.19
-30867.9
4081.79
-27250.1
3884.96
-23863.2
3792.48
-21179.6
3902.41
-19200.1
4333.62
-17590.9
4635.87
-14961.1
4484.91
-7946.41
5294.79
-4696.22
6907.71
-21977
7580.73
-35923.4
7305.46
-31245.9
5974.93
-15825.3
3512.85
-1089.3
974.015
4426.52
6.82943
4759.26
1075.83
6376.74
2808.47
4495.54
3112.52
-2589.02
2674.4
-17758.3
3325.34
-12796.1
3760.81
47282.8
3734.69
75629.3
3648.04
69860.7
3562.68
55829.7
3538.18
43779
3561.9
34383.8
3600.3
26546
3626.22
19514.6
3619.43
12919.7
3566.72
6628.19
3454.76
545.671
3264
-5356.09
2943.4
-11000.4
2548.92
-15589.2
2354.34
-20625
2450.2
-31789.7
2441.21
-49528
2207.63
-64459.4
-70680.9
-3683.33
18760.8
-3668.47
19965.1
-3610.16
20314.5
-3528.25
20922.3
-3417.29
21549
-3277.81
22219.6
-3100.13
22824.2
-2885.7
23233.4
-2653.27
23477.5
-2428.07
23869.1
-2215.21
24774
-1989.28
26158.7
-1718.9
27343.3
-1395.46
27382.1
-1050.76
25829.7
-760.594
23862.5
-506.458
24520.8
-226.615
26840.2
52.76
26748.2
334.504
27039.5
601.104
25697.5
879.996
25404.8
1165.3
26180.5
1411.63
25983.6
1627.87
24583.5
1858.33
23289.8
2109.95
22369.3
2377.5
21561.6
2647.93
20616.7
2856.22
18682
2965.36
15322.4
2998.55
11091.9
3048.57
6712.73
3163.15
2347.76
3291.47
-1521.47
3874.44
-5227.34
4824.34
-16040.7
5087.62
-28133
4745.61
-32238.3
4278.39
-30400.7
3937.65
-26909.3
3722.57
-23648.1
3581.61
-21038.6
3678.04
-19296.5
4141.46
-18054.3
4436.48
-15256.1
4369.63
-7879.56
5383.7
-5710.3
6920.82
-23514.1
7402.84
-36405.4
7112.98
-30956
5895.32
-14607.6
3635.5
1170.51
1509.21
6552.81
655.474
5612.99
1386.9
5645.31
2802.99
3079.46
3015.81
-2801.84
2491.82
-17234.3
3130.4
-13434.6
3742.12
46671.1
3720.02
75651.4
3621.94
69958.8
3534.15
55917.5
3512.04
43801.1
3538.05
34357.8
3578.23
26505.8
3604.97
19487.8
3597.53
12927.2
3542.31
6683.41
3424.61
663.369
3222.27
-5153.75
2891.15
-10669.2
2510.63
-15208.7
2350.57
-20464.9
2472.4
-31911.5
2478.01
-49533.6
2150.31
-64131.7
-70037.8