/*--------------------------------*- C++ -*----------------------------------*\
| =========                 |                                                 |
| \\      /  F ield         | OpenFOAM: The Open Source CFD Toolbox           |
|  \\    /   O peration     | Version:  4.1                                   |
|   \\  /    A nd           | Web:      www.OpenFOAM.org                      |
|    \\/     M anipulation  |                                                 |
\*---------------------------------------------------------------------------*/
FoamFile
{
    version     2.0;
    format      ascii;
    class       surfaceScalarField;
    location    "30";
    object      phi;
}
// * * * * * * * * * * * * * * * * * * * * * * * * * * * * * * * * * * * * * //

dimensions      [0 3 -1 0 0 0 0];

internalField   nonuniform List<scalar> 
420
(
-949.879
2249.78
-1573.95
1924.28
-2054
1779.95
-2424.23
1670.13
-2699.86
1575.83
-2888.38
1488.42
-2993.06
1404.58
-3013.86
1321
-2949.62
1235.66
-2797.24
1147.52
-2551.17
1054.14
-2193.01
941.737
-1687.18
794.065
-1012.67
625.697
287.23
373.334
1876.44
442.748
1854.86
437.3
1785.39
406.697
1700.74
380.579
1601.94
359.901
1509.1
345.292
1419.19
337.535
1328.76
333.486
1239.71
326.953
1154.05
309.612
1071.48
267.466
983.878
191.432
870.103
111.448
705.685
398.678
33.5754
1842.87
-97.3896
1985.83
-253.615
1941.62
-371.121
1818.24
-473.185
1704.01
-567.535
1603.45
-651.75
1503.4
-725.799
1402.8
-788.077
1301.99
-837.309
1203.28
-868.225
1102.4
-856.086
971.741
-740.332
754.353
-434.282
399.641
-35.6046
28.7758
1814.09
-100.652
2115.26
-225.56
2066.53
-304.495
1897.18
-368.157
1767.67
-416.953
1652.24
-446.229
1532.68
-457.016
1413.59
-451.854
1296.83
-430.158
1181.59
-387.23
1059.47
-311.875
896.386
-192.866
635.346
-48.4072
255.184
-84.0117
169.628
1644.47
146.163
2138.72
123.738
2088.95
122.876
1898.04
126.947
1763.6
135.813
1643.38
149.108
1519.38
166.599
1396.11
186.948
1276.48
208.134
1160.4
229.128
1038.47
243.818
881.697
233.002
646.164
155.23
332.958
71.2183
223.08
1421.39
244.187
2117.62
234.75
2098.39
236.03
1896.76
240.379
1759.25
244.315
1639.45
246.557
1517.14
245.263
1397.4
241.172
1280.57
234.002
1167.57
221.394
1051.08
199.147
903.945
156.142
689.166
78.2988
410.797
149.517
203.32
1218.07
238.374
2082.57
213.62
2123.14
191.411
1918.97
177.205
1773.46
163.775
1652.88
150.041
1530.88
135.902
1411.55
121.075
1295.39
106.927
1181.72
92.8301
1065.17
75.7777
920.996
52.0244
712.915
19.0192
443.798
168.536
171.853
1046.21
221.984
2032.44
199.424
2145.7
170.407
1947.99
152.055
1791.81
137.674
1667.26
122.782
1545.77
108.583
1425.74
95.5863
1308.39
83.1051
1194.21
71.4843
1076.79
58.6356
933.844
40.3274
731.224
15.7536
468.373
184.29
146.098
900.116
210.064
1968.47
196.88
2158.89
170.056
1974.81
152.407
1809.46
139.536
1680.13
127.073
1558.23
113.866
1438.95
101.322
1320.93
89.4192
1206.11
76.9842
1089.23
63.0887
947.742
44.3108
750.006
19.1726
493.514
203.462
116.766
783.351
184.859
1900.38
179.636
2164.11
154.317
2000.13
137.229
1826.55
124.008
1693.35
111.381
1570.86
98.9735
1451.36
86.1224
1333.79
73.8845
1218.35
62.1196
1101
49.0386
960.825
32.8637
766.18
13.1876
513.19
216.65
83.1645
700.187
143.138
1840.4
144.693
2162.56
122.766
2022.06
106.156
1843.16
94.4687
1705.04
82.587
1582.74
71.1804
1462.77
60.3991
1344.57
49.4783
1229.27
39.4474
1111.02
29.7644
970.507
18.0957
777.846
5.24408
526.039
221.894
51.2452
648.94
97.9304
1793.72
102.721
2157.77
87.39
2037.39
73.157
1857.39
63.1459
1715.05
54.2447
1591.64
44.8608
1472.15
36.147
1353.28
28.1702
1237.25
20.4222
1118.77
13.6841
977.244
6.74485
784.784
-0.404959
533.188
221.489
25.1313
623.813
57.7225
1761.13
63.5192
2151.97
53.4871
2047.43
43.9107
1866.97
36.198
1722.77
29.5686
1598.27
23.5183
1478.2
17.0669
1359.73
11.3152
1243
6.60235
1123.48
2.47684
981.381
-1.06653
788.338
-3.67711
535.808
217.812
1.41628
622.404
24.0523
1738.5
33.3551
2142.67
27.7344
2053.05
20.3868
1874.31
15.0986
1728.06
9.56983
1603.8
4.6297
1483.14
0.0868784
1364.27
-4.77906
1247.86
-8.29225
1126.99
-9.61781
982.693
-9.7129
788.41
-7.14735
533.221
210.665
-11.7466
-3.15721
1.42701
-0.434507
-5.12987
-8.87532
-11.8255
-15.2507
-18.1127
-20.2308
-21.7938
-21.1233
-18.1374
-12.4016
)
;

boundaryField
{
    inletFace
    {
        type            calculated;
        value           nonuniform List<scalar> 
450
(
-1.81068e-14
5.7982e-13
-2.09958e-13
-9.91943e-14
1.50015e-13
-1.97418e-13
-6.49459e-14
6.69946e-14
-1.07411e-13
-3.72619e-14
4.2098e-14
-5.33174e-14
-3.04047e-16
1.27063e-14
-2.1675e-16
-2.12082e-12
-2.26869e-12
-2.56047e-14
-5.91631e-13
-2.77315e-13
2.56737e-14
-2.84995e-13
-1.42304e-13
1.34006e-15
-1.42647e-13
-7.04282e-14
1.06652e-14
-7.37528e-14
-1.0108e-14
7.01589e-16
-2.29097e-12
-2.37598e-12
-2.1893e-13
-7.0028e-13
-2.84324e-13
-1.01071e-13
-2.86862e-13
-1.11313e-13
-9.39905e-14
-1.16233e-13
-5.36757e-14
-6.38329e-14
-4.80561e-14
9.18737e-15
4.12136e-15
-2.58425e-12
-2.32322e-12
-3.61546e-13
-8.22206e-13
-2.58815e-13
-2.17203e-13
-4.0162e-13
-1.06727e-13
-1.64881e-13
-1.9964e-13
-4.973e-14
-1.0533e-13
-1.01251e-13
3.08387e-14
5.99087e-14
-2.4015e-12
-2.40477e-12
-4.97309e-13
-7.17114e-13
-2.35743e-13
-2.39383e-13
-3.73653e-13
-1.17321e-13
-1.61936e-13
-1.879e-13
-5.18876e-14
-7.62371e-14
-8.96331e-14
-4.77274e-15
7.02512e-14
-2.11818e-12
-2.4359e-12
-6.56334e-13
-6.02537e-13
-2.30727e-13
-2.04673e-13
-3.34473e-13
-1.20232e-13
-1.32587e-13
-1.67516e-13
-4.98877e-14
-4.32667e-14
-7.18169e-14
2.76021e-16
2.56951e-14
-1.90314e-12
-2.48747e-12
-9.02079e-13
-5.76935e-13
-2.79364e-13
-2.29139e-13
-3.20914e-13
-1.59309e-13
-1.71005e-13
-1.63652e-13
-8.48847e-14
-1.04969e-13
-5.86196e-14
-7.27365e-14
-1.49667e-13
-1.66571e-12
-2.49321e-12
-1.12237e-12
-5.7715e-13
-3.06898e-13
-2.49528e-13
-3.08405e-13
-1.99057e-13
-2.07286e-13
-1.60604e-13
-1.19673e-13
-1.71629e-13
-5.54743e-14
-2.6025e-14
-2.43779e-13
-1.40797e-12
-2.46035e-12
-1.28364e-12
-6.10838e-13
-3.2024e-13
-2.33132e-13
-3.00397e-13
-2.15419e-13
-1.87902e-13
-1.8238e-13
-1.27167e-13
-1.19969e-13
-8.41564e-14
-2.05627e-14
-6.41335e-14
-1.20991e-12
-2.39683e-12
-1.40408e-12
-6.63013e-13
-3.34241e-13
-2.14353e-13
-2.8604e-13
-2.21574e-13
-1.54781e-13
-1.79101e-13
-1.26501e-13
-9.35952e-14
-8.92697e-14
-4.24834e-14
7.75755e-14
-1.0113e-12
-2.31856e-12
-1.49792e-12
-6.86592e-13
-3.52024e-13
-2.03412e-13
-2.51797e-13
-2.21241e-13
-1.35098e-13
-1.36673e-13
-1.27108e-13
-8.31621e-14
-3.99182e-14
-3.40601e-14
1.1054e-13
-8.77958e-13
-2.25226e-12
-1.53751e-12
-7.18594e-13
-3.60935e-13
-1.81758e-13
-2.44855e-13
-2.29513e-13
-9.69883e-14
-1.41415e-13
-1.37442e-13
-2.2935e-14
-3.19714e-14
9.87297e-14
1.51549e-13
-8.0992e-13
-2.18592e-12
-1.56601e-12
-7.46474e-13
-3.678e-13
-1.7799e-13
-2.38947e-13
-2.48184e-13
-9.65994e-14
-1.43898e-13
-1.37249e-13
4.13262e-15
-2.98094e-14
1.24298e-13
1.43415e-13
-7.56587e-13
-2.12992e-12
-1.58208e-12
-7.55718e-13
-3.72575e-13
-1.79451e-13
-2.31394e-13
-2.62939e-13
-9.38679e-14
-1.43213e-13
-1.38804e-13
1.54158e-14
-1.81235e-14
1.10241e-13
1.2642e-13
-7.46721e-13
-2.04901e-12
-1.56438e-12
-7.64567e-13
-3.73178e-13
-1.87316e-13
-2.32663e-13
-2.48452e-13
-1.02612e-13
-1.39867e-13
-1.19054e-13
6.0569e-15
-5.93304e-15
1.06224e-13
6.76053e-14
1.81068e-14
-5.7982e-13
2.09958e-13
9.91943e-14
-1.50015e-13
1.97418e-13
6.49459e-14
-6.69946e-14
1.07411e-13
3.72619e-14
-4.2098e-14
5.33174e-14
3.04047e-16
-1.27063e-14
2.1675e-16
2.12082e-12
2.26869e-12
2.56047e-14
5.91631e-13
2.77315e-13
-2.56737e-14
2.84995e-13
1.42304e-13
-1.34006e-15
1.42647e-13
7.04282e-14
-1.06652e-14
7.37528e-14
1.0108e-14
-7.01589e-16
2.29097e-12
2.37598e-12
2.1893e-13
7.0028e-13
2.84324e-13
1.01071e-13
2.86862e-13
1.11313e-13
9.39905e-14
1.16233e-13
5.36757e-14
6.38329e-14
4.80561e-14
-9.18737e-15
-4.12136e-15
2.58425e-12
2.32322e-12
3.61546e-13
8.22206e-13
2.58815e-13
2.17203e-13
4.0162e-13
1.06727e-13
1.64881e-13
1.9964e-13
4.973e-14
1.0533e-13
1.01251e-13
-3.08387e-14
-5.99087e-14
2.4015e-12
2.40477e-12
4.97309e-13
7.17114e-13
2.35743e-13
2.39383e-13
3.73653e-13
1.17321e-13
1.61936e-13
1.879e-13
5.18876e-14
7.62371e-14
8.96331e-14
4.77274e-15
-7.02512e-14
2.11818e-12
2.4359e-12
6.56334e-13
6.02537e-13
2.30727e-13
2.04673e-13
3.34473e-13
1.20232e-13
1.32587e-13
1.67516e-13
4.98877e-14
4.32667e-14
7.18169e-14
-2.76021e-16
-2.56951e-14
1.90314e-12
2.48747e-12
9.02079e-13
5.76935e-13
2.79364e-13
2.29139e-13
3.20914e-13
1.59309e-13
1.71005e-13
1.63652e-13
8.48847e-14
1.04969e-13
5.86196e-14
7.27365e-14
1.49667e-13
1.66571e-12
2.49321e-12
1.12237e-12
5.7715e-13
3.06898e-13
2.49528e-13
3.08405e-13
1.99057e-13
2.07286e-13
1.60604e-13
1.19673e-13
1.71629e-13
5.54743e-14
2.6025e-14
2.43779e-13
1.40797e-12
2.46035e-12
1.28364e-12
6.10838e-13
3.2024e-13
2.33132e-13
3.00397e-13
2.15419e-13
1.87902e-13
1.8238e-13
1.27167e-13
1.19969e-13
8.41564e-14
2.05627e-14
6.41335e-14
1.20991e-12
2.39683e-12
1.40408e-12
6.63013e-13
3.34241e-13
2.14353e-13
2.8604e-13
2.21574e-13
1.54781e-13
1.79101e-13
1.26501e-13
9.35952e-14
8.92697e-14
4.24834e-14
-7.75755e-14
1.0113e-12
2.31856e-12
1.49792e-12
6.86592e-13
3.52024e-13
2.03412e-13
2.51797e-13
2.21241e-13
1.35098e-13
1.36673e-13
1.27108e-13
8.31621e-14
3.99182e-14
3.40601e-14
-1.1054e-13
8.77958e-13
2.25226e-12
1.53751e-12
7.18594e-13
3.60935e-13
1.81758e-13
2.44855e-13
2.29513e-13
9.69883e-14
1.41415e-13
1.37442e-13
2.2935e-14
3.19714e-14
-9.87297e-14
-1.51549e-13
8.0992e-13
2.18592e-12
1.56601e-12
7.46474e-13
3.678e-13
1.7799e-13
2.38947e-13
2.48184e-13
9.65994e-14
1.43898e-13
1.37249e-13
-4.13262e-15
2.98094e-14
-1.24298e-13
-1.43415e-13
7.56587e-13
2.12992e-12
1.58208e-12
7.55718e-13
3.72575e-13
1.79451e-13
2.31394e-13
2.62939e-13
9.38679e-14
1.43213e-13
1.38804e-13
-1.54158e-14
1.81235e-14
-1.10241e-13
-1.2642e-13
7.46721e-13
2.04901e-12
1.56438e-12
7.64567e-13
3.73178e-13
1.87316e-13
2.32663e-13
2.48452e-13
1.02612e-13
1.39867e-13
1.19054e-13
-6.0569e-15
5.93304e-15
-1.06224e-13
-6.76053e-14
)
;
    }
    inlet
    {
        type            calculated;
        value           nonuniform List<scalar> 
15
(
-1299.9
-1300.2
-1299.9
-1299.9
-1300.2
-1299.9
-1299.9
-1300.2
-1299.9
-1299.9
-1300.2
-1299.9
-1299.9
-1300.2
-1299.9
)
;
    }
    inletWalls
    {
        type            calculated;
        value           uniform 0;
    }
    outletInlet
    {
        type            calculated;
        value           nonuniform List<scalar> 
15
(
198.263
527.479
785.417
982.022
1128.55
1249.99
1367.12
1486.57
1606.74
1731.8
1879
2054.9
2138.08
1729.9
634.14
)
;
    }
}


// ************************************************************************* //
