/*--------------------------------*- C++ -*----------------------------------*\
| =========                 |                                                 |
| \\      /  F ield         | OpenFOAM: The Open Source CFD Toolbox           |
|  \\    /   O peration     | Version:  4.1                                   |
|   \\  /    A nd           | Web:      www.OpenFOAM.org                      |
|    \\/     M anipulation  |                                                 |
\*---------------------------------------------------------------------------*/
FoamFile
{
    version     2.0;
    format      ascii;
    class       volVectorField;
    location    "30";
    object      U;
}
// * * * * * * * * * * * * * * * * * * * * * * * * * * * * * * * * * * * * * //

dimensions      [0 1 -1 0 0 0 0];

internalField   nonuniform List<vector> 
225
(
(1.11565e-14 0.852195 15.7946)
(9.26951e-15 -4.89459 12.1215)
(-2.35639e-15 -4.19551 12.1321)
(4.12623e-15 -3.60118 11.9966)
(5.65004e-16 -3.00468 11.8778)
(-1.66192e-16 -2.55319 11.6992)
(1.94587e-15 -2.2088 11.4769)
(2.80727e-16 -1.96603 11.2116)
(-1.20193e-17 -1.79856 10.916)
(1.04113e-15 -1.71238 10.5882)
(1.24593e-16 -1.83745 10.1561)
(-8.86184e-17 -2.28565 9.53763)
(5.3523e-16 -2.51301 8.96377)
(-8.79632e-17 -1.06549 8.91356)
(1.50052e-18 1.76574 7.47086)
(1.53716e-14 -5.35014 22.493)
(1.57075e-14 -14.6049 21.394)
(1.77256e-16 -13.2708 20.3412)
(2.60108e-15 -11.7697 19.5066)
(1.92002e-15 -11.1561 18.5043)
(-1.77734e-16 -10.6595 17.5174)
(2.08372e-15 -10.0901 16.5714)
(9.85257e-16 -9.52499 15.6236)
(-9.277e-18 -8.96544 14.6638)
(9.54806e-16 -8.36732 13.6946)
(4.87616e-16 -7.7571 12.7179)
(-7.38331e-17 -7.30335 11.7194)
(5.09877e-16 -7.01704 10.6244)
(6.99839e-17 -5.73094 9.16114)
(-4.85696e-18 -2.30498 4.58319)
(1.79057e-14 -7.71563 23.9802)
(1.24922e-14 -16.7731 24.6729)
(1.51579e-15 -13.7365 23.9372)
(9.78577e-15 -12.3062 22.6249)
(1.96833e-15 -11.6447 21.2414)
(6.99774e-16 -10.814 20.0013)
(3.12588e-15 -9.94025 18.7738)
(7.70602e-16 -9.10011 17.5247)
(6.50754e-16 -8.28336 16.2654)
(-3.79062e-16 -7.47521 15.0262)
(3.71587e-16 -6.66762 13.8176)
(4.41955e-16 -5.84167 12.4301)
(8.16006e-16 -4.81389 10.2752)
(-6.36025e-17 -3.12626 6.68444)
(-2.85347e-17 -0.832142 1.6899)
(1.78833e-14 -8.50254 22.0462)
(1.60834e-14 -16.6211 24.332)
(2.70754e-15 -12.93 23.7971)
(5.69269e-15 -12.1536 21.9985)
(1.72054e-15 -11.4201 20.5028)
(1.55231e-15 -10.4936 19.1722)
(2.78069e-15 -9.63387 17.8167)
(6.59867e-16 -8.8236 16.459)
(1.1693e-15 -8.05365 15.123)
(1.36734e-15 -7.32376 13.8164)
(3.36143e-16 -6.55244 12.4394)
(7.10473e-16 -5.49088 10.583)
(6.76203e-16 -3.78528 7.50872)
(-2.08664e-17 -1.4937 2.76612)
(-6.06747e-16 0.153267 -1.77299)
(1.64137e-14 -8.4761 19.748)
(1.63037e-14 -16.3601 24.312)
(5.04712e-15 -13.099 23.6602)
(4.76983e-15 -12.628 21.5365)
(1.32111e-15 -11.8565 20.0248)
(1.43741e-15 -10.9574 18.6637)
(2.46985e-15 -10.1698 17.2587)
(5.63601e-16 -9.40278 15.8711)
(9.88717e-16 -8.65262 14.5236)
(1.23029e-15 -7.93055 13.2136)
(-5.49739e-16 -7.16588 11.8292)
(4.43111e-16 -6.11614 9.99626)
(5.14175e-16 -4.42402 7.15554)
(-3.25131e-16 -2.30529 3.28792)
(-8.52505e-16 -0.787211 0.317743)
(1.4888e-14 -8.02185 17.5536)
(1.69053e-14 -16.0195 24.5277)
(4.29018e-15 -13.6434 24.0462)
(4.17129e-15 -12.9943 21.7651)
(1.64642e-15 -12.1264 20.2158)
(2.04133e-15 -11.2247 18.847)
(2.31552e-15 -10.439 17.4341)
(8.91639e-16 -9.64891 16.0434)
(1.10925e-15 -8.86038 14.6933)
(1.15969e-15 -8.0933 13.3818)
(4.20844e-16 -7.29737 12.0172)
(5.58327e-16 -6.28463 10.2819)
(3.86978e-16 -4.73305 7.72095)
(3.55688e-16 -2.75617 4.37253)
(1.84039e-15 -0.949398 1.29737)
(1.33095e-14 -7.33734 15.2534)
(1.70289e-14 -15.491 24.3551)
(6.32955e-15 -14.0225 24.4218)
(3.99451e-15 -13.1279 22.0676)
(1.98432e-15 -12.1448 20.4402)
(1.69402e-15 -11.2358 19.0547)
(2.2219e-15 -10.4361 17.6438)
(1.22837e-15 -9.61987 16.2576)
(1.32031e-15 -8.81019 14.9067)
(1.13307e-15 -8.02725 13.5919)
(7.52524e-16 -7.22401 12.2369)
(1.58215e-16 -6.24035 10.5489)
(4.05863e-16 -4.7876 8.10761)
(1.28732e-16 -2.91414 4.94721)
(1.31664e-15 -1.01083 1.79735)
(1.13463e-14 -6.55613 13.0328)
(1.72617e-14 -14.847 23.8164)
(7.72763e-15 -14.2639 24.6691)
(3.53066e-15 -13.2372 22.3215)
(2.1248e-15 -12.1674 20.5832)
(1.61902e-15 -11.2657 19.1667)
(2.71909e-15 -10.4651 17.7587)
(1.37817e-15 -9.64318 16.3766)
(1.29737e-15 -8.83498 15.0246)
(4.34933e-16 -8.05532 13.7074)
(8.28551e-16 -7.25501 12.3577)
(9.97879e-16 -6.28695 10.6996)
(-6.93391e-16 -4.89106 8.33105)
(1.80184e-16 -3.08522 5.26767)
(1.19099e-15 -1.12214 2.04385)
(9.74722e-15 -5.77821 11.1235)
(1.70327e-14 -14.1745 23.0905)
(8.76168e-15 -14.4413 24.8463)
(4.22876e-15 -13.3964 22.6149)
(2.21698e-15 -12.2528 20.7554)
(1.45281e-15 -11.3493 19.2955)
(2.07961e-15 -10.5477 17.8905)
(1.49132e-15 -9.72546 16.511)
(1.09707e-15 -8.91947 15.1562)
(1.26259e-15 -8.14027 13.8352)
(8.80364e-16 -7.33998 12.4864)
(-2.91724e-16 -6.38017 10.8513)
(5.82605e-16 -5.02354 8.54676)
(1.42353e-16 -3.26577 5.55832)
(4.66525e-16 -1.23749 2.24759)
(8.17722e-15 -5.08478 9.59894)
(1.6593e-14 -13.5191 22.3)
(9.25653e-15 -14.535 24.9523)
(4.45331e-15 -13.5532 22.9354)
(2.31391e-15 -12.3448 20.9699)
(8.91729e-16 -11.4251 19.4566)
(1.86453e-15 -10.6174 18.0506)
(1.53393e-15 -9.79449 16.6721)
(1.00346e-15 -8.9883 15.3136)
(3.47318e-16 -8.20627 13.9874)
(8.75752e-16 -7.4048 12.6357)
(-3.81773e-16 -6.45155 11.0133)
(3.86113e-16 -5.12529 8.75517)
(2.94107e-16 -3.40657 5.81956)
(-1.78489e-15 -1.31904 2.43089)
(6.851e-15 -4.53846 8.46181)
(1.58545e-14 -12.9254 21.5502)
(1.02412e-14 -14.535 24.9758)
(4.95971e-15 -13.6654 23.2211)
(2.94065e-15 -12.4128 21.1812)
(7.01631e-16 -11.4736 19.6121)
(1.74311e-15 -10.659 18.2004)
(1.59503e-15 -9.83699 16.8209)
(6.6021e-16 -9.03209 15.4585)
(2.69978e-16 -8.24861 14.1269)
(9.62968e-16 -7.44655 12.7692)
(1.97946e-16 -6.49783 11.1499)
(2.7634e-16 -5.19267 8.91857)
(1.23494e-15 -3.50191 6.0106)
(-1.32374e-15 -1.36378 2.5425)
(6.078e-15 -4.17013 7.70221)
(1.5618e-14 -12.4376 20.9275)
(1.03833e-14 -14.4734 24.9366)
(4.97474e-15 -13.7316 23.4379)
(2.77817e-15 -12.4593 21.3594)
(1.45083e-15 -11.5039 19.7405)
(1.6951e-15 -10.6833 18.3207)
(1.3651e-15 -9.8636 16.9392)
(6.36775e-16 -9.06119 15.5729)
(9.79001e-16 -8.27763 14.2364)
(9.51494e-16 -7.47492 12.871)
(1.59022e-17 -6.52686 11.2466)
(2.79824e-16 -5.23311 9.02659)
(-7.66499e-16 -3.55804 6.12622)
(-1.71258e-15 -1.3773 2.57263)
(5.50837e-15 -3.97306 7.27911)
(1.5106e-14 -12.068 20.4609)
(1.08636e-14 -14.3843 24.8626)
(5.23862e-15 -13.76 23.583)
(2.54624e-15 -12.4876 21.4971)
(1.23221e-15 -11.523 19.8407)
(1.62449e-15 -10.6966 18.4122)
(1.49219e-15 -9.88004 17.028)
(6.33704e-16 -9.08062 15.6585)
(9.96305e-16 -8.29727 14.3171)
(9.92326e-16 -7.49317 12.9422)
(-7.65558e-17 -6.54215 11.3062)
(2.06391e-16 -5.25099 9.08442)
(-7.7799e-16 -3.57885 6.17548)
(-1.14084e-15 -1.36514 2.53875)
(5.10441e-15 -3.90349 7.10987)
(1.47325e-14 -11.8312 20.1815)
(1.10315e-14 -14.2999 24.7901)
(5.21977e-15 -13.7668 23.6686)
(2.56658e-15 -12.502 21.5899)
(1.24228e-15 -11.5321 19.9096)
(1.61695e-15 -10.7005 18.4747)
(1.80417e-15 -9.8856 17.0885)
(6.49817e-16 -9.08807 15.7174)
(1.01063e-15 -8.30423 14.3731)
(9.39951e-16 -7.49802 12.9909)
(-1.06719e-16 -6.54336 11.3436)
(1.5449e-16 -5.25358 9.11745)
(-8.04108e-16 -3.58377 6.20172)
(-8.75161e-16 -1.35012 2.50641)
(5.15467e-15 -4.03917 7.28622)
(1.41781e-14 -11.6269 19.9519)
(1.0837e-14 -14.1917 24.668)
(5.29301e-15 -13.7463 23.7083)
(2.57695e-15 -12.5065 21.6737)
(1.30395e-15 -11.5392 19.9773)
(1.6107e-15 -10.6994 18.535)
(1.71191e-15 -9.8869 17.1437)
(7.19185e-16 -9.09048 15.7694)
(9.68286e-16 -8.30495 14.4183)
(8.19003e-16 -7.48996 13.0148)
(-3.60499e-17 -6.51539 11.3282)
(4.10737e-17 -5.20606 9.06129)
(-7.45555e-16 -3.50168 6.08278)
(-4.48951e-16 -1.25245 2.30723)
)
;

boundaryField
{
    inletFace
    {
        type            zeroGradient;
    }
    inlet
    {
        type            fixedValue;
        value           uniform (0 8.7 15);
    }
    inletWalls
    {
        type            noSlip;
    }
    outletInlet
    {
        type            zeroGradient;
    }
}


// ************************************************************************* //
