/*--------------------------------*- C++ -*----------------------------------*\
| =========                 |                                                 |
| \\      /  F ield         | OpenFOAM: The Open Source CFD Toolbox           |
|  \\    /   O peration     | Version:  4.1                                   |
|   \\  /    A nd           | Web:      www.OpenFOAM.org                      |
|    \\/     M anipulation  |                                                 |
\*---------------------------------------------------------------------------*/
FoamFile
{
    version     2.0;
    format      ascii;
    class       volScalarField;
    location    "11";
    object      p;
}
// * * * * * * * * * * * * * * * * * * * * * * * * * * * * * * * * * * * * * //

dimensions      [0 2 -2 0 0 0 0];

internalField   nonuniform List<scalar> 
6785
(
569.025
490.131
443.096
389.532
342.701
297.592
255.613
215.925
178.496
143.183
109.183
76.2222
48.6682
20.3723
-20.0108
-49.4287
-67.8082
-58.0634
-65.5877
-65.2764
-68.0531
-69.0271
-69.8371
-69.6727
-68.611
-66.5232
-63.6284
-59.5432
-54.8702
-51.5524
-37.8415
-41.7068
-32.7289
-37.2019
-33.5181
-34.6704
-33.9412
-34.3602
-34.5861
-35.1732
-35.7964
-36.5559
-36.6515
-35.9412
-33.6954
-5.27345
-6.73198
-2.85204
-7.35477
-4.63564
-6.99128
-6.49954
-7.26854
-7.34699
-7.49862
-7.28699
-7.00554
-5.9718
-4.82508
-2.06162
4.62262
4.71094
7.93234
6.31501
10.1902
9.92639
12.6255
13.8284
15.6945
16.8245
17.6697
18.2237
19.077
20.3422
21.8164
22.5807
21.5367
23.721
21.6451
23.9909
22.3557
23.3246
22.2036
21.7218
20.4524
19.2455
18.0002
17.1165
16.7814
15.2106
4.41128
0.171643
0.747015
-2.93215
-2.90124
-5.76106
-6.35625
-8.32436
-9.13093
-10.4481
-11.599
-12.9049
-13.8473
-15.3563
-18.7166
-39.522
-44.288
-44.4523
-48.2086
-49.1774
-52.6864
-54.6723
-57.9556
-60.4622
-63.1079
-65.1649
-66.5085
-67.4302
-68.2144
-66.9023
-56.507
-58.2833
-57.0391
-59.0312
-58.1757
-59.8012
-59.7837
-60.7915
-60.9711
-60.8752
-59.9109
-58.3589
-56.0145
-54.1472
-50.9717
-31.9988
-30.5597
-28.2557
-27.8899
-25.4244
-24.5289
-22.4765
-20.9378
-19.0463
-17.1971
-15.2121
-13.3694
-11.3059
-9.84994
-7.32715
-7.23568
-5.5787
-3.98609
-3.43361
-1.64041
-0.928683
0.499226
1.49756
2.65353
3.68345
4.72992
5.62812
6.63128
7.29496
8.27122
3.7381
5.27521
6.36053
6.83697
8.11748
8.60016
9.58378
10.2299
10.9961
11.6857
12.45
13.1735
14.0991
14.7488
15.8613
23.8206
24.7735
25.2965
25.3646
25.8689
25.6545
25.7939
25.6536
25.6875
25.9695
26.6353
27.4858
28.4736
29.1358
30.0726
29.9593
30.5831
29.1188
27.9917
27.6818
27.3781
27.7197
28.2306
29.1154
29.9934
30.6234
30.8933
31.1372
31.571
31.5958
66.8227
63.0236
54.6064
47.551
43.0268
37.8134
33.3207
30.4486
27.7888
26.1035
24.8908
24.4116
24.181
24.3176
23.5442
41.8858
41.8794
42.2987
41.7921
41.8112
41.9184
41.7504
41.5924
41.5556
41.553
41.4524
41.1973
41.2953
41.1631
40.9257
40.8638
40.9559
40.9117
40.5724
40.7549
40.731
40.4619
40.4253
40.6018
40.6328
40.3715
40.3652
40.5439
40.677
40.3827
40.6312
40.7881
40.584
40.6398
40.8506
41.0503
40.871
41.1085
41.3374
41.2278
41.3302
41.5119
41.7406
41.6834
41.7923
41.9436
42.1378
42.1321
42.2946
42.3836
42.4024
42.5363
42.6468
42.8352
42.8693
42.9752
43.0723
43.307
43.3105
43.321
43.5765
43.5918
43.7591
43.5446
44.0336
44.5225
44.7785
44.802
44.5908
46.225
47.0101
43.6115
42.6306
46.6189
48.7396
34.1218
45.0455
48.0909
16.9159
31.1575
40.9387
42.1094
45.9302
35.152
42.1067
47.8392
48.8162
50.4425
51.6318
52.6609
52.7937
54.4572
53.9437
47.8565
49.9042
47.5773
46.2564
47.0805
46.8248
45.6789
47.5903
56.5771
35.5805
35.803
33.6187
32.6753
32.2062
31.3067
29.6714
26.8076
27.8909
48.295
25.0454
24.1134
21.3273
18.405
18.5011
19.786
17.0159
14.2857
25.3903
15.6558
17.5304
16.2219
13.0564
10.6225
7.58127
8.53067
6.0415
12.8851
15.7418
11.6967
11.749
11.223
8.92266
7.15855
5.53323
-0.697495
8.10815
16.9307
12.6559
11.0232
8.08223
7.21426
5.83067
4.32155
3.72717
-0.35713
-2.47648
11.7688
7.6206
7.16039
5.85116
3.89956
-1.5248
-2.40184
-0.826043
-13.8334
5.2761
0.452124
-4.402
5.48154
-1.98647
2.07051
0.831195
3.31535
6.90994
1.73953
4.93696
7.3449
3.61101
5.24932
4.19324
5.52767
8.05088
4.26425
5.69587
4.51946
5.76631
8.13805
3.71194
5.91193
7.90475
4.28277
5.49948
4.35561
5.38912
8.08476
3.8727
5.26194
3.88235
5.18474
8.05184
2.64897
5.26322
7.69515
3.21679
4.69623
3.2591
4.52827
7.68057
2.68656
4.37081
2.72795
4.28864
7.34948
1.46555
4.38697
6.76031
2.20498
3.80045
2.32609
3.66763
6.42931
1.91108
3.51106
2.04934
3.44204
5.81051
1.13183
3.46118
5.09164
1.71471
2.90588
1.8135
2.76634
4.41496
1.41647
2.44369
1.45134
2.28368
3.39574
0.66266
1.89898
2.42219
0.543386
1.05772
0.292656
0.633358
1.63622
0.000405563
0.000713735
0.00119193
0.00154815
0.00197085
0.00236326
0.00278394
0.00320203
0.00363645
0.00407768
0.00453227
0.00499773
0.00547683
0.00596947
0.0064773
0.00700104
0.00754192
0.00810073
0.00867819
0.00927449
0.0098892
0.0105209
0.0111669
0.0118227
0.0124818
0.0131354
0.0137722
0.0143787
0.0149401
0.0154417
0.0158711
0.0162203
0.0164884
0.016683
0.0168205
0.0169251
0.0170255
0.0171496
0.0173187
0.0175449
0.0178348
0.0182031
0.0186892
0.0193612
0.0202928
0.0215054
0.0229052
0.0242664
0.0253138
0.0258108
0.0254856
0.0241485
0.0216123
0.0176619
0.0120483
0.00438206
-0.00569467
-0.0184711
-0.0343107
-0.0509716
-0.0686261
-0.0875845
-0.0641048
-0.286104
-0.436477
-0.536704
-0.649737
-0.7185
-0.718744
-0.678613
-0.561776
-0.443153
-0.269798
-0.196208
-0.0033629
-0.0665261
0.0758575
0.16303
-0.511246
0.00117551
0.00205623
0.00341247
0.00445099
0.00565032
0.00677181
0.00795964
0.00913996
0.0103586
0.0115936
0.0128608
0.0141549
0.0154828
0.0168448
0.018245
0.0196855
0.0211695
0.0226989
0.0242755
0.0258994
0.0275689
0.0292794
0.0310229
0.0327861
0.0345501
0.0362892
0.0379709
0.0395569
0.0410054
0.0422754
0.0433328
0.0441572
0.0447487
0.0451324
0.0453592
0.0455021
0.0456469
0.0458765
0.046255
0.0468187
0.0475886
0.0486102
0.0500023
0.0519712
0.0547437
0.0584032
0.0627104
0.067058
0.0707263
0.0731357
0.0736263
0.0717994
0.0672742
0.059583
0.0481191
0.0317589
0.00925329
-0.0208534
-0.0608552
-0.106365
-0.162127
-0.223534
-0.194905
-0.564032
-0.837248
-1.03804
-1.25699
-1.38648
-1.39147
-1.31562
-1.11777
-0.888211
-0.60448
-0.390327
-0.108537
-0.00961325
0.207208
0.372047
0.350481
0.00183373
0.00331922
0.00562603
0.00738104
0.00941342
0.0113103
0.0133213
0.0153189
0.0173824
0.0194739
0.0216208
0.023814
0.0260652
0.0283749
0.0307504
0.0331952
0.0357147
0.0383126
0.0409917
0.0437525
0.0465924
0.0495041
0.0524739
0.0554802
0.058491
0.0614636
0.0643434
0.0670658
0.0695601
0.0717571
0.0735985
0.075049
0.0761076
0.0768151
0.0772558
0.0775516
0.0778456
0.0782767
0.0789518
0.07993
0.0812444
0.0829682
0.0852989
0.088583
0.0932026
0.0992967
0.106453
0.113627
0.119585
0.123312
0.123653
0.119888
0.111312
0.0970755
0.0760856
0.0463963
0.0058775
-0.0479158
-0.118586
-0.198449
-0.296199
-0.396864
-0.36747
-0.762673
-1.05534
-1.30053
-1.56829
-1.72286
-1.72358
-1.62575
-1.38176
-1.09658
-0.755564
-0.478407
-0.14615
0.010869
0.293856
0.420828
0.718275
0.00246645
0.00455078
0.00777162
0.0102363
0.0130784
0.0157343
0.0185448
0.0213368
0.0242184
0.0271384
0.0301344
0.0331941
0.0363338
0.0395544
0.0428659
0.0462733
0.0497842
0.0534036
0.0571356
0.060981
0.0649361
0.0689907
0.0731259
0.0773114
0.081503
0.0856408
0.0896487
0.0934364
0.0969051
0.0999576
0.102512
0.10452
0.105979
0.106946
0.10754
0.107932
0.108323
0.108909
0.109839
0.111195
0.11302
0.115412
0.118649
0.123221
0.129676
0.138224
0.148291
0.158409
0.166854
0.172215
0.172886
0.167878
0.156219
0.136735
0.10788
0.0668752
0.0106015
-0.0646719
-0.164307
-0.278277
-0.421778
-0.566229
-0.562264
-1.0244
-1.34639
-1.63958
-1.96823
-2.15669
-2.15192
-2.02639
-1.71997
-1.36278
-0.940483
-0.592186
-0.182404
0.0150023
0.382444
0.501047
0.853129
0.00304014
0.00573871
0.00987739
0.0130631
0.0167243
0.0201499
0.0237698
0.0273666
0.0310767
0.0348361
0.038692
0.0426297
0.0466696
0.0508133
0.0550734
0.0594567
0.063973
0.0686288
0.0734296
0.0783763
0.0834646
0.0886815
0.094003
0.0993904
0.104787
0.110116
0.11528
0.120162
0.124635
0.128573
0.131871
0.134463
0.136347
0.137595
0.13836
0.138863
0.139365
0.140118
0.141315
0.14306
0.1454
0.148457
0.152584
0.158425
0.166704
0.177715
0.190724
0.203808
0.214743
0.221697
0.22259
0.216153
0.201124
0.175988
0.138718
0.0856595
0.0126397
-0.0854772
-0.215802
-0.366179
-0.559679
-0.749965
-0.791669
-1.3245
-1.67446
-2.01602
-2.41013
-2.63531
-2.62387
-2.46783
-2.09431
-1.65724
-1.14903
-0.716728
-0.228992
0.0282861
0.47654
0.588328
1.17335
0.00357891
0.00689884
0.0119365
0.0158458
0.0203193
0.0245127
0.0289365
0.0333334
0.0378655
0.0424574
0.0471656
0.0519729
0.0569039
0.0619608
0.0671591
0.0725072
0.078017
0.0836966
0.0895528
0.095587
0.101794
0.108159
0.114651
0.121225
0.127812
0.134318
0.140623
0.146586
0.152049
0.156859
0.160884
0.164044
0.166335
0.167845
0.168761
0.169355
0.169947
0.170851
0.172303
0.174424
0.177266
0.180966
0.185954
0.193034
0.203125
0.216624
0.232639
0.248778
0.262313
0.270994
0.272268
0.264612
0.246484
0.216059
0.170826
0.106234
0.0169601
-0.103749
-0.26492
-0.45296
-0.70064
-0.939916
-1.05039
-1.6452
-2.01012
-2.39211
-2.84637
-3.10346
-3.08126
-2.89314
-2.45246
-1.93648
-1.34621
-0.830605
-0.271121
0.0466829
0.569401
0.681043
1.37692
0.00407865
0.00803279
0.0139569
0.0185958
0.0238806
0.028845
0.0340732
0.0392718
0.0446264
0.0500516
0.0556121
0.061289
0.0671107
0.0730805
0.0792163
0.0855284
0.0920308
0.0987334
0.105644
0.112766
0.120091
0.127604
0.135269
0.143032
0.150811
0.158498
0.16595
0.173
0.179461
0.185148
0.189907
0.193638
0.196336
0.198105
0.199166
0.199843
0.200518
0.201567
0.20327
0.205766
0.209102
0.213425
0.219242
0.227526
0.239412
0.255425
0.274518
0.293796
0.310018
0.320506
0.322222
0.313398
0.292217
0.256559
0.203424
0.127334
0.0217318
-0.12194
-0.31467
-0.54211
-0.84799
-1.13843
-1.34079
-1.99315
-2.36877
-2.78636
-3.29926
-3.58492
-3.54722
-3.32403
-2.81243
-2.21479
-1.54109
-0.940599
-0.310099
0.0671657
0.660548
0.76597
1.57428
0.00454735
0.00914682
0.0159397
0.0213121
0.0274033
0.0331393
0.0391691
0.0451678
0.0513418
0.0575973
0.0640064
0.0705489
0.0772569
0.0841345
0.0912026
0.098473
0.105962
0.113682
0.121641
0.129842
0.13828
0.146934
0.155766
0.164712
0.173681
0.182546
0.191143
0.199278
0.206735
0.213299
0.218787
0.223085
0.226182
0.228197
0.229387
0.23013
0.230872
0.232053
0.233998
0.236861
0.240679
0.2456
0.252206
0.261651
0.275312
0.293875
0.316137
0.338663
0.357695
0.370113
0.372387
0.362527
0.33845
0.297773
0.237012
0.149738
0.0280633
-0.138567
-0.363146
-0.631469
-0.999015
-1.34207
-1.66114
-2.36467
-2.75419
-3.20543
-3.77838
-4.08921
-4.03018
-3.76813
-3.18082
-2.49734
-1.73804
-1.04876
-0.348163
0.0918524
0.751199
0.845942
1.78756
0.00498679
0.0102442
0.0178887
0.0239991
0.0308925
0.0374012
0.0442307
0.051029
0.0580205
0.0651046
0.0723599
0.0797653
0.0873566
0.0951389
0.103136
0.111361
0.119832
0.128564
0.137568
0.146846
0.156392
0.166184
0.17618
0.186308
0.196466
0.206509
0.216254
0.225478
0.233935
0.24138
0.247599
0.252461
0.255951
0.258202
0.259508
0.260299
0.261092
0.262392
0.264573
0.267798
0.272087
0.277579
0.284926
0.295481
0.310894
0.332045
0.357581
0.383478
0.405453
0.419924
0.422862
0.412074
0.385223
0.339696
0.271534
0.173343
0.0358031
-0.153806
-0.410453
-0.72108
-1.1528
-1.54856
-2.01025
-2.74979
-3.16335
-3.64825
-4.28441
-4.61597
-4.52778
-4.22233
-3.55412
-2.78081
-1.93439
-1.15275
-0.384253
0.122366
0.841105
0.950234
1.93754
0.00540089
0.0113284
0.0198065
0.0266585
0.0343485
0.0416304
0.0492567
0.0568532
0.0646594
0.0725694
0.0806675
0.0889325
0.0974029
0.106086
0.115006
0.124181
0.13363
0.143369
0.153411
0.16376
0.17441
0.185336
0.196492
0.2078
0.219144
0.230367
0.241261
0.251577
0.261038
0.269364
0.276316
0.281738
0.285612
0.288087
0.28949
0.29031
0.291134
0.292538
0.294944
0.298527
0.303274
0.309304
0.317339
0.328944
0.346079
0.369863
0.398798
0.428207
0.453279
0.469943
0.473669
0.462079
0.4326
0.382436
0.307167
0.19842
0.045355
-0.16706
-0.455673
-0.809694
-1.30655
-1.75374
-2.386
-3.13688
-3.59514
-4.11655
-4.82215
-5.17014
-5.04279
-4.68821
-3.93284
-3.06513
-2.12972
-1.25194
-0.417904
0.159342
0.930018
1.04356
2.09582
0.00579207
0.0124022
0.0216958
0.0292929
0.0377738
0.0458293
0.0542493
0.0626425
0.0712607
0.0799941
0.0889317
0.0980526
0.107398
0.116977
0.126817
0.136937
0.147358
0.1581
0.169175
0.18059
0.192338
0.204394
0.216707
0.229193
0.241725
0.254128
0.266174
0.277586
0.288056
0.297269
0.304954
0.310935
0.315185
0.317868
0.31935
0.320176
0.321009
0.3225
0.325123
0.329058
0.334251
0.340786
0.349446
0.362029
0.380849
0.407319
0.439792
0.472872
0.501211
0.520222
0.524861
0.512595
0.480632
0.426044
0.343977
0.225078
0.0568975
-0.177991
-0.498155
-0.896203
-1.45695
-1.95324
-2.78617
-3.51324
-4.04955
-4.61213
-5.39716
-5.75817
-5.57961
-5.16861
-4.31856
-3.35117
-2.32436
-1.34612
-0.448895
0.203243
1.01876
1.12623
2.28655
0.00616289
0.0134679
0.0235591
0.0319043
0.0411699
0.0499988
0.059209
0.0683973
0.0778241
0.0873778
0.0971513
0.107124
0.117341
0.127811
0.138566
0.149625
0.161014
0.172752
0.184855
0.197331
0.210173
0.223354
0.236821
0.250482
0.264201
0.277787
0.290989
0.303504
0.314987
0.325092
0.333512
0.340048
0.344666
0.347542
0.349079
0.349886
0.350703
0.352262
0.355093
0.359375
0.365004
0.372004
0.381218
0.394697
0.415156
0.444369
0.480542
0.517468
0.549266
0.570787
0.576474
0.563663
0.529366
0.470586
0.382065
0.253485
0.0707204
-0.186068
-0.536957
-0.978993
-1.59992
-2.14598
-3.20314
-3.85784
-4.5239
-5.13601
-6.01431
-6.38609
-6.14228
-5.66576
-4.71206
-3.63906
-2.51812
-1.43475
-0.477289
0.255962
1.10737
1.24796
2.43213
0.00651545
0.0145274
0.0253985
0.0344948
0.0445384
0.0541404
0.0641372
0.0741183
0.0843504
0.0947214
0.105327
0.116148
0.127231
0.138588
0.150252
0.162245
0.174596
0.187324
0.20045
0.213982
0.227912
0.242215
0.256832
0.271668
0.286574
0.301345
0.315708
0.329331
0.341836
0.352838
0.361996
0.369084
0.37406
0.377112
0.378681
0.37944
0.380214
0.38182
0.384849
0.389477
0.395528
0.402954
0.412641
0.426918
0.44896
0.480979
0.521033
0.562001
0.597467
0.621674
0.628552
0.615323
0.578841
0.516104
0.421498
0.283767
0.087068
-0.190779
-0.571136
-1.05631
-1.732
-2.33475
-3.60703
-4.12647
-5.00187
-5.68811
-6.67877
-7.06043
-6.73552
-6.18241
-5.11422
-3.92894
-2.71073
-1.51724
-0.501206
0.316561
1.19579
1.34099
2.58016
0.00685165
0.0155824
0.0272162
0.037066
0.0478809
0.0582552
0.0690345
0.0798062
0.0908398
0.102025
0.113458
0.125123
0.137068
0.149307
0.161875
0.174797
0.188102
0.201816
0.215959
0.230539
0.245553
0.260973
0.276738
0.292747
0.308842
0.324801
0.340331
0.355069
0.368604
0.380509
0.390408
0.398047
0.40337
0.406579
0.408154
0.408833
0.409532
0.411163
0.41438
0.419353
0.425819
0.433625
0.443693
0.458654
0.482212
0.517107
0.561245
0.606469
0.645837
0.672915
0.681129
0.667612
0.629087
0.562628
0.46232
0.316021
0.10617
-0.191599
-0.599748
-1.12638
-1.8509
-2.51914
-3.9378
-4.31252
-5.47468
-6.26806
-7.3963
-7.78835
-7.36469
-6.72209
-5.52626
-4.22113
-2.90182
-1.59482
-0.517023
0.384564
1.28433
1.45951
2.75247
0.00717312
0.0166342
0.0290142
0.0396197
0.0511988
0.0623445
0.073902
0.0854617
0.0972928
0.109288
0.121545
0.134049
0.14685
0.159966
0.173432
0.187277
0.201532
0.216225
0.231378
0.247002
0.263094
0.279627
0.296537
0.313717
0.331002
0.348153
0.364856
0.380718
0.395292
0.408109
0.418754
0.426941
0.432601
0.435946
0.437497
0.438062
0.438652
0.440283
0.443678
0.448997
0.455871
0.46401
0.474356
0.489871
0.51486
0.552707
0.601157
0.650871
0.694395
0.724542
0.734243
0.720558
0.680117
0.610148
0.504511
0.350257
0.128149
-0.18814
-0.622056
-1.18774
-1.95578
-2.69573
-4.17207
-4.48138
-5.96778
-6.87663
-8.17283
-8.57731
-8.0355
-7.28895
-5.94967
-4.51612
-3.09079
-1.66859
-0.523939
0.459632
1.37578
1.56971
2.86184
0.00748132
0.0176842
0.0307942
0.0421573
0.0544935
0.0664092
0.0787404
0.0910852
0.10371
0.116511
0.129586
0.142925
0.156578
0.170565
0.184924
0.199685
0.214884
0.230549
0.246705
0.263368
0.280533
0.298173
0.316225
0.334577
0.353052
0.3714
0.389283
0.40628
0.421902
0.435642
0.447037
0.45577
0.461755
0.465215
0.46671
0.467121
0.467564
0.469168
0.472732
0.478404
0.485681
0.494104
0.504613
0.520527
0.546847
0.587728
0.640746
0.695206
0.743163
0.776585
0.787927
0.774179
0.731911
0.658591
0.547944
0.386334
0.152929
-0.180279
-0.637714
-1.23958
-2.04705
-2.86311
-4.34777
-4.6863
-6.43209
-7.51348
-9.01445
-9.43513
-8.75391
-7.88759
-6.38632
-4.8148
-3.27727
-1.73766
-0.521806
0.539855
1.47596
1.66877
3.05453
0.0077775
0.0187333
0.0325578
0.0446802
0.0577662
0.0704504
0.0835506
0.0966772
0.110091
0.123694
0.137584
0.151752
0.166251
0.181103
0.196348
0.21202
0.228155
0.244786
0.26194
0.279633
0.297866
0.31661
0.335801
0.355322
0.37499
0.39454
0.413611
0.431753
0.448437
0.463108
0.475261
0.484538
0.490836
0.494387
0.495791
0.496008
0.496262
0.497807
0.501533
0.507566
0.515248
0.523903
0.534444
0.550581
0.57811
0.622115
0.679984
0.739468
0.792165
0.829076
0.842209
0.828464
0.784384
0.707757
0.592301
0.423849
0.180101
-0.168325
-0.646946
-1.28193
-2.12639
-3.02181
-4.48858
-4.95788
-6.85195
-8.18886
-9.9284
-10.3698
-9.52609
-8.52304
-6.83845
-5.11806
-3.46101
-1.80125
-0.50998
0.626647
1.58532
1.81347
3.23203
0.00806273
0.0197823
0.0343066
0.0471896
0.0610182
0.074469
0.0883331
0.102238
0.116436
0.130837
0.145535
0.160528
0.175868
0.191579
0.207704
0.224279
0.241344
0.258934
0.277079
0.295797
0.315091
0.334934
0.35526
0.375951
0.396814
0.417571
0.43784
0.457138
0.474897
0.490513
0.503429
0.51325
0.519849
0.523466
0.524741
0.524716
0.524734
0.526189
0.530068
0.536478
0.544571
0.553406
0.563834
0.579987
0.608578
0.655807
0.718842
0.783655
0.841421
0.882043
0.897094
0.883346
0.837326
0.757243
0.636972
0.462026
0.208818
-0.153111
-0.650612
-1.3158
-2.19616
-3.17197
-4.62532
-5.36045
-7.26146
-8.92796
-10.9225
-11.3893
-10.3582
-9.20058
-7.3086
-5.42647
-3.64179
-1.8588
-0.487837
0.721027
1.7029
1.94697
3.33974
0.00833796
0.0208321
0.0360418
0.0496868
0.0642504
0.0784657
0.0930886
0.107769
0.122746
0.13794
0.153442
0.169253
0.185427
0.201991
0.21899
0.236462
0.25445
0.272991
0.292119
0.311856
0.332205
0.353141
0.3746
0.396459
0.41852
0.44049
0.461967
0.482435
0.501284
0.517858
0.531547
0.54191
0.548798
0.552453
0.553559
0.553241
0.552973
0.554302
0.558327
0.565133
0.573651
0.582613
0.592768
0.608698
0.638174
0.688734
0.757289
0.827761
0.890957
0.935499
0.952544
0.938636
0.890315
0.806335
0.680949
0.499636
0.237762
-0.13597
-0.650147
-1.34294
-2.25907
-3.31552
-4.79042
-5.91582
-7.63559
-9.73123
-12.006
-12.5021
-11.256
-9.92568
-7.79949
-5.74086
-3.8194
-1.90965
-0.454828
0.823376
1.83042
2.0691
3.53419
0.00860399
0.0218834
0.0377647
0.0521726
0.067464
0.0824414
0.0978178
0.113269
0.12902
0.145002
0.161302
0.177927
0.194929
0.212339
0.230205
0.248567
0.26747
0.286955
0.307059
0.327807
0.349204
0.37123
0.393818
0.416845
0.440106
0.463296
0.485991
0.507644
0.527599
0.545146
0.559618
0.570523
0.577686
0.581352
0.582245
0.581578
0.580967
0.582129
0.586295
0.593526
0.602494
0.61153
0.621232
0.636663
0.666811
0.720823
0.795288
0.871782
0.940787
0.989425
1.00841
0.993939
0.942611
0.853905
0.722757
0.535015
0.265254
-0.118574
-0.647358
-1.36562
-2.31815
-3.45621
-4.99439
-6.48103
-7.95087
-10.6064
-13.1866
-13.7167
-12.2254
-10.7038
-8.31388
-6.0624
-3.99367
-1.95308
-0.41036
0.934941
1.96939
2.25447
3.72646
0.00886148
0.0229367
0.0394764
0.0546481
0.0706597
0.0863967
0.102521
0.118739
0.135259
0.152024
0.169116
0.186548
0.204372
0.222622
0.241347
0.260591
0.280402
0.300823
0.321896
0.343647
0.366087
0.389195
0.41291
0.437103
0.461567
0.485984
0.50991
0.532763
0.553842
0.572379
0.587645
0.599095
0.606519
0.610164
0.610797
0.609721
0.608704
0.609656
0.61396
0.621652
0.631104
0.640164
0.649214
0.663827
0.694394
0.751993
0.832804
0.915711
0.990904
1.04371
1.06435
1.04853
0.993046
0.898351
0.760509
0.566242
0.289489
-0.102676
-0.64412
-1.38621
-2.37654
-3.59809
-5.23043
-6.9577
-8.28277
-11.5852
-14.4691
-15.0428
-13.2716
-11.5405
-8.85439
-6.39234
-4.16456
-1.98834
-0.353853
1.0563
2.11822
2.40342
3.83359
0.00911099
0.0239927
0.0411779
0.057114
0.0738386
0.0903321
0.107199
0.124179
0.141462
0.159005
0.176883
0.195116
0.213755
0.232838
0.252415
0.272534
0.293244
0.314594
0.336626
0.359373
0.382848
0.407035
0.431871
0.457231
0.482901
0.508552
0.533721
0.557792
0.580015
0.599561
0.615634
0.627629
0.635301
0.638895
0.639215
0.637664
0.636173
0.636867
0.641304
0.649504
0.659489
0.668528
0.676707
0.69013
0.720817
0.782154
0.869794
0.959525
1.04124
1.09808
1.1197
1.10124
1.03995
0.937655
0.792129
0.591445
0.308837
-0.0898099
-0.642066
-1.40679
-2.43706
-3.7458
-5.49807
-7.4192
-8.7369
-12.6421
-15.8762
-16.4911
-14.3996
-12.4405
-9.42352
-6.73187
-4.33214
-2.01469
-0.284696
1.18819
2.27964
2.5908
4.05125
0.00935297
0.0250517
0.0428701
0.0595711
0.0770011
0.0942482
0.111851
0.129589
0.14763
0.165944
0.184603
0.20363
0.223077
0.242986
0.263407
0.284392
0.305994
0.328264
0.351248
0.374983
0.399486
0.424744
0.450698
0.477224
0.504102
0.530996
0.557421
0.582729
0.606118
0.626694
0.643589
0.656132
0.664038
0.667546
0.667501
0.665401
0.663359
0.663741
0.668311
0.677078
0.687663
0.69664
0.703706
0.715511
0.74596
0.811211
0.906206
1.00316
1.09157
1.15191
1.17329
1.15036
1.08121
0.969644
0.815719
0.609133
0.322117
-0.0810324
-0.642322
-1.42889
-2.50187
-3.90353
-5.79986
-7.90463
-9.39126
-13.7995
-17.4422
-18.0728
-15.6137
-13.4081
-10.0235
-7.08194
-4.49665
-2.03138
-0.202255
1.33162
2.45318
2.76735
4.1482
0.00958777
0.0261142
0.0445537
0.06202
0.0801481
0.0981454
0.116479
0.134969
0.153762
0.172842
0.192275
0.21209
0.232337
0.253064
0.274322
0.296165
0.31865
0.341831
0.365758
0.390473
0.415996
0.442319
0.469387
0.497077
0.525167
0.553312
0.581008
0.607572
0.632151
0.65378
0.671514
0.684609
0.692735
0.696123
0.695653
0.692926
0.690249
0.690257
0.694961
0.704368
0.715638
0.724524
0.730212
0.739902
0.769692
0.839055
0.94196
1.04645
1.1414
1.20414
1.22341
1.19362
1.11452
0.992418
0.829937
0.618459
0.328796
-0.0767492
-0.645344
-1.45325
-2.5721
-4.07416
-6.13652
-8.43913
-10.2986
-15.0774
-19.2044
-19.7989
-16.9167
-14.4465
-10.6561
-7.44329
-4.65841
-2.03768
-0.105889
1.48743
2.6401
2.93815
4.34273
0.00981567
0.0271807
0.0462295
0.0644613
0.0832801
0.102024
0.121081
0.14032
0.159858
0.179698
0.199897
0.220493
0.241534
0.263071
0.285158
0.307851
0.331209
0.355292
0.380154
0.405839
0.432374
0.459756
0.487933
0.516785
0.546091
0.575496
0.604478
0.632319
0.658113
0.680822
0.699413
0.713066
0.721399
0.72463
0.723672
0.720232
0.716825
0.716393
0.721232
0.731367
0.743434
0.752211
0.756232
0.763233
0.791865
0.865558
0.976905
1.089
1.18978
1.25308
1.26766
1.22851
1.1379
1.00479
0.834234
0.619342
0.329068
-0.0766644
-0.650891
-1.47983
-2.64782
-4.25876
-6.50627
-9.03997
-11.5051
-16.4838
-21.2057
-21.6832
-18.3097
-15.5578
-11.3226
-7.8164
-4.81774
-2.03288
0.00508189
1.65692
2.84194
3.17264
4.55235
0.0100368
0.0282516
0.0478981
0.0668955
0.0863975
0.105884
0.12566
0.14564
0.165917
0.186511
0.20747
0.22884
0.250667
0.273006
0.295912
0.319446
0.34367
0.368645
0.394431
0.421077
0.448616
0.47705
0.506331
0.536344
0.566868
0.597541
0.627825
0.656968
0.684005
0.707821
0.72729
0.741509
0.750035
0.753071
0.751559
0.747313
0.743071
0.742121
0.7471
0.758069
0.771073
0.779741
0.781781
0.785427
0.812309
0.890552
1.01073
1.13004
1.23516
1.29628
1.30321
1.25277
1.15023
1.0065
0.828905
0.612458
0.323806
-0.0798599
-0.658111
-1.50785
-2.72804
-4.4565
-6.90487
-9.71831
-13.012
-17.9898
-23.481
-23.7453
-19.7935
-16.7431
-12.0233
-8.20153
-4.9748
-2.01628
0.13133
1.84109
3.05685
3.38192
4.65481
0.0102514
0.0293271
0.04956
0.069323
0.0895008
0.109726
0.130213
0.15093
0.17194
0.193281
0.214993
0.237128
0.259734
0.282867
0.306584
0.33095
0.356028
0.381886
0.408587
0.436185
0.464719
0.494196
0.524576
0.555748
0.587492
0.619444
0.651047
0.681514
0.709825
0.734779
0.755151
0.769944
0.778651
0.781452
0.779316
0.774161
0.768968
0.767413
0.772535
0.784466
0.798581
0.807164
0.806885
0.806403
0.830821
0.913767
1.04285
1.16826
1.27525
1.33061
1.32732
1.26513
1.15151
0.998238
0.814976
0.59909
0.314386
-0.084984
-0.665721
-1.53597
-2.81096
-4.66492
-7.32709
-10.4783
-14.737
-19.5472
-26.0672
-26.0091
-21.3694
-18.0027
-12.7576
-8.59865
-5.12947
-1.98714
0.27355
2.04071
3.2867
3.58182
4.86453
0.0104594
0.0304078
0.0512157
0.0717442
0.0925903
0.11355
0.134742
0.15619
0.177925
0.200006
0.222464
0.245358
0.268733
0.292651
0.317171
0.342359
0.368282
0.395013
0.422618
0.451158
0.480677
0.511189
0.542662
0.57499
0.607958
0.641197
0.674136
0.705956
0.735572
0.761698
0.783
0.798377
0.807253
0.809779
0.806944
0.800769
0.794495
0.792236
0.797505
0.810549
0.825991
0.834543
0.83158
0.826069
0.847138
0.934745
1.07222
1.20173
1.30686
1.35274
1.3383
1.26571
1.14279
0.981369
0.793985
0.580901
0.302449
-0.0904867
-0.672207
-1.56244
-2.89414
-4.88027
-7.76693
-11.3154
-16.5414
-21.1882
-29.0513
-28.501
-23.0387
-19.335
-13.5233
-9.00733
-5.2812
-1.94458
0.43252
2.25714
3.53406
3.85665
5.11101
0.0106608
0.031494
0.0528654
0.0741594
0.0956661
0.117357
0.139246
0.161419
0.183873
0.206687
0.229883
0.253527
0.277664
0.302358
0.327671
0.353671
0.38043
0.408023
0.436521
0.465992
0.496486
0.528025
0.560584
0.594066
0.628259
0.662794
0.697088
0.730287
0.761245
0.788579
0.810841
0.826816
0.835849
0.838059
0.834445
0.82713
0.819631
0.816553
0.821972
0.836307
0.853339
0.861956
0.855919
0.844312
0.860879
0.952717
1.09741
1.22763
1.32613
1.3602
1.33613
1.25586
1.12583
0.95768
0.767697
0.559659
0.289643
-0.0948197
-0.675955
-1.58523
-2.97461
-5.0977
-8.21684
-12.217
-18.3419
-23.0305
-32.5494
-31.2491
-24.8024
-20.7372
-14.3168
-9.42644
-5.42864
-1.88755
0.609038
2.49142
3.7954
4.09335
5.20931
0.0108554
0.0325859
0.0545096
0.0765687
0.0987285
0.121145
0.143726
0.166616
0.189782
0.213322
0.237248
0.261634
0.286524
0.311986
0.338081
0.364884
0.392467
0.420911
0.450292
0.480683
0.512141
0.544697
0.578336
0.612967
0.648387
0.684229
0.719896
0.754503
0.78684
0.815424
0.838679
0.855267
0.864448
0.866299
0.861823
0.853237
0.84435
0.840323
0.845894
0.861728
0.88067
0.889494
0.879964
0.860966
0.871454
0.966649
1.11642
1.24205
1.32958
1.3525
1.32242
1.23772
1.10272
0.929054
0.737831
0.53699
0.277446
-0.0965347
-0.675296
-1.60203
-3.04891
-5.31124
-8.66683
-13.1651
-20.13
-25.2027
-36.5777
-34.283
-26.6608
-22.205
-15.1331
-9.85383
-5.56965
-1.8148
0.803995
2.74415
4.07468
4.37046
5.48388
0.0110432
0.0336839
0.0561485
0.0789724
0.101778
0.124914
0.148179
0.171782
0.195652
0.21991
0.244558
0.269678
0.295312
0.321532
0.348401
0.375995
0.404392
0.433676
0.463928
0.495227
0.527638
0.561201
0.595911
0.631687
0.668335
0.705492
0.742552
0.778599
0.812356
0.842233
0.866518
0.883737
0.893057
0.894508
0.889083
0.879083
0.868628
0.863499
0.86922
0.886797
0.908032
0.917268
0.903774
0.875733
0.878059
0.975449
1.12623
1.2405
1.31573
1.33134
1.29975
1.21373
1.07556
0.897202
0.70584
0.514235
0.267113
-0.0942616
-0.668454
-1.61027
-3.11315
-5.51381
-9.10481
-14.1399
-21.8846
-27.7527
-41.0939
-37.6329
-28.6132
-23.7343
-15.9661
-10.2862
-5.70211
-1.72485
1.01847
3.01645
4.3711
4.63493
5.63761
0.0112239
0.0347883
0.0577821
0.0813705
0.104813
0.128666
0.152608
0.176915
0.201482
0.22645
0.251812
0.277658
0.304026
0.330995
0.358626
0.387002
0.416201
0.446313
0.477423
0.509618
0.542971
0.57753
0.613302
0.650218
0.688095
0.726576
0.765049
0.802567
0.837788
0.869007
0.894362
0.912234
0.921686
0.922695
0.916229
0.904663
0.892436
0.88603
0.891894
0.911495
0.935481
0.945395
0.927346
0.888061
0.880095
0.977772
1.12228
1.21987
1.28601
1.29979
1.27095
1.18622
1.04618
0.863486
0.672801
0.49243
0.259737
-0.0866129
-0.653493
-1.60711
-3.16307
-5.69753
-9.51827
-15.1243
-23.5721
-30.6713
-46.0349
-41.3246
-30.6575
-25.3208
-16.8088
-10.719
-5.82416
-1.61586
1.25371
3.30908
4.68578
4.89898
5.89353
0.0113973
0.0358995
0.0594107
0.0837631
0.107835
0.132399
0.15701
0.182016
0.207271
0.232942
0.259009
0.285571
0.312665
0.340372
0.368756
0.397901
0.427891
0.458818
0.490775
0.523853
0.558135
0.593679
0.630502
0.668552
0.707658
0.747471
0.787377
0.826401
0.863133
0.895746
0.922217
0.940765
0.950345
0.950869
0.943268
0.929969
0.915745
0.907857
0.913851
0.935799
0.96307
0.973969
0.950439
0.897273
0.877843
0.970761
1.09961
1.18043
1.24399
1.2612
1.23865
1.1572
1.01604
0.828853
0.639437
0.4724
0.256378
-0.0720944
-0.628325
-1.58967
-3.19441
-5.85439
-9.89572
-16.1015
-25.1577
-33.9528
-51.3172
-45.3718
-32.7884
-26.9608
-17.6533
-11.1468
-5.93355
-1.48561
1.51131
3.62306
5.02069
5.22609
6.16598
0.0115629
0.0370178
0.0610343
0.0861501
0.110844
0.136112
0.161386
0.187082
0.213018
0.239383
0.266147
0.293416
0.321226
0.349661
0.378786
0.408691
0.439459
0.471189
0.503979
0.537927
0.573124
0.609639
0.647505
0.686681
0.727014
0.768167
0.809526
0.850093
0.888384
0.922448
0.950085
0.969338
0.979043
0.979042
0.970209
0.954999
0.938524
0.928916
0.935015
0.959676
0.990837
1.00294
0.972276
0.903319
0.87144
0.949051
1.05599
1.12586
1.19375
1.21858
1.20505
1.12825
0.986206
0.793881
0.606215
0.454889
0.258167
-0.0490956
-0.590866
-1.55538
-3.20357
-5.97752
-10.2288
-17.0542
-26.6118
-37.6026
-56.8453
-49.7745
-34.9976
-28.65
-18.4921
-11.563
-6.02762
-1.33155
1.79322
3.95933
5.37283
5.52791
6.3461
0.0117205
0.0381435
0.0626528
0.0885315
0.113839
0.139806
0.165734
0.192113
0.218722
0.245773
0.273224
0.301192
0.329707
0.358859
0.388716
0.419367
0.450901
0.483421
0.51703
0.551834
0.587932
0.625406
0.664302
0.704596
0.746154
0.788653
0.831486
0.873631
0.913537
0.949114
0.977971
0.99796
1.00779
1.00723
0.997061
0.979748
0.960739
0.949135
0.955296
0.983076
1.01875
1.03175
0.991711
0.907707
0.858305
0.907007
0.994032
1.06144
1.13877
1.17436
1.17187
1.10058
0.957407
0.758887
0.573476
0.440665
0.266334
-0.0160094
-0.539388
-1.50266
-3.18866
-6.06305
-10.515
-17.9687
-27.9211
-41.6757
-62.5276
-54.5263
-37.2722
-30.3824
-19.3176
-11.9602
-6.10321
-1.1508
2.10184
4.31851
5.74401
5.82398
6.64144
0.0118696
0.0392769
0.0642662
0.090907
0.116819
0.14348
0.170054
0.197109
0.224382
0.25211
0.28024
0.308895
0.338106
0.367966
0.398541
0.429927
0.462215
0.495511
0.529924
0.565569
0.602553