/*--------------------------------*- C++ -*----------------------------------*\
| =========                 |                                                 |
| \\      /  F ield         | OpenFOAM: The Open Source CFD Toolbox           |
|  \\    /   O peration     | Version:  4.1                                   |
|   \\  /    A nd           | Web:      www.OpenFOAM.org                      |
|    \\/     M anipulation  |                                                 |
\*---------------------------------------------------------------------------*/
FoamFile
{
    version     2.0;
    format      ascii;
    class       volVectorField;
    location    "11";
    object      U;
}
// * * * * * * * * * * * * * * * * * * * * * * * * * * * * * * * * * * * * * //

dimensions      [0 1 -1 0 0 0 0];

internalField   nonuniform List<vector> 
6785
(
(1.35357e-14 -2.34214 16.5706)
(1.09496e-14 -7.91543 13.0363)
(-2.81994e-15 -5.11317 13.8407)
(3.90105e-15 -5.03667 13.3544)
(8.39834e-16 -4.22575 13.2198)
(-1.47406e-16 -3.77867 12.9333)
(2.51006e-15 -3.33157 12.6486)
(5.43552e-16 -3.00462 12.3242)
(-8.25558e-16 -2.76735 11.9892)
(1.24768e-15 -2.65692 11.6606)
(5.45246e-17 -2.65114 11.4133)
(-7.31743e-17 -2.76825 11.2697)
(5.0811e-16 -3.35312 10.8317)
(-7.62687e-17 -3.53319 9.76912)
(2.65603e-17 -0.166763 7.6178)
(1.97576e-14 -10.415 27.198)
(1.23926e-14 -16.3823 23.4424)
(-2.63191e-15 -11.2811 23.8024)
(4.04478e-15 -12.0811 21.9721)
(6.68601e-16 -10.3631 21.1233)
(6.76074e-16 -9.7481 19.8923)
(1.51936e-15 -8.77622 18.8046)
(1.23736e-16 -8.01503 17.6721)
(-3.06756e-16 -7.26636 16.5904)
(1.63898e-16 -6.59706 15.5079)
(-2.82569e-16 -5.83676 14.2044)
(-5.98951e-16 -4.65548 12.0556)
(-1.05763e-15 -2.70616 8.14488)
(-6.49814e-16 -0.0120261 2.39212)
(-7.20302e-16 1.57375 -2.3798)
(2.2359e-14 -12.9222 28.6023)
(1.14412e-14 -17.0835 25.0539)
(-1.95642e-15 -12.0728 25.0837)
(5.0707e-15 -13.4328 22.429)
(4.86764e-16 -11.1896 21.4601)
(1.26857e-15 -10.9305 19.6341)
(2.44036e-15 -9.80176 18.2773)
(1.75082e-17 -9.16602 16.7476)
(3.15161e-16 -8.38985 15.362)
(2.15005e-15 -7.73323 13.9575)
(1.49314e-17 -6.94911 12.3458)
(-3.40617e-16 -5.61554 9.89058)
(2.20694e-15 -3.26191 5.44232)
(1.19077e-15 2.12126 -2.49609)
(-2.04933e-15 2.02641 -6.81347)
(2.22873e-14 -13.3712 27.6902)
(1.23451e-14 -16.966 24.9207)
(-1.62088e-15 -12.3634 24.4117)
(4.79554e-15 -13.8807 21.3878)
(1.07809e-15 -11.4981 20.4294)
(1.32511e-15 -11.4403 18.3067)
(2.5191e-15 -10.2855 16.842)
(6.40858e-16 -9.71212 15.2295)
(2.00646e-16 -9.0514 13.8598)
(1.48868e-15 -8.46667 12.5271)
(3.2822e-16 -7.83643 11.0718)
(-6.44063e-16 -6.87518 9.33479)
(3.03826e-16 -5.56836 6.84526)
(-2.11357e-16 -3.05994 3.63202)
(-2.09908e-15 -0.975448 -0.298375)
(2.15473e-14 -13.2825 26.7714)
(1.22177e-14 -16.3244 24.4023)
(-1.73895e-15 -12.0304 23.64)
(4.33704e-15 -13.3962 20.4797)
(5.01331e-16 -10.7099 19.5899)
(1.24055e-15 -10.7628 17.1966)
(1.60143e-15 -9.2138 15.8215)
(-5.75627e-16 -8.67336 14.0798)
(-2.94238e-16 -7.87914 12.7011)
(4.22758e-16 -7.43697 11.351)
(-6.99358e-16 -7.07575 10.1889)
(-4.70144e-16 -6.70447 9.20527)
(2.82143e-16 -6.19352 8.27877)
(-1.95764e-15 -5.03126 6.9857)
(-4.19634e-15 -3.09631 4.195)
(2.126e-14 -13.7637 26.8619)
(9.74838e-15 -15.5373 24.4885)
(-4.84874e-16 -12.0785 23.6213)
(3.21352e-15 -12.6288 20.9222)
(5.26526e-16 -10.2709 19.9697)
(1.28434e-15 -9.94521 17.9232)
(2.30228e-17 -8.10895 16.2623)
(7.07446e-16 -6.60325 13.3568)
(2.57504e-15 -4.57746 10.2103)
(2.20237e-15 -3.39897 7.70157)
(5.55094e-16 -3.26312 6.97357)
(-1.09196e-15 -4.31104 8.02164)
(-2.52238e-15 -5.84303 9.9717)
(-3.21351e-15 -6.94189 11.0725)
(-2.50355e-15 -5.33135 9.69128)
(2.04837e-14 -15.0354 28.7526)
(6.90808e-15 -16.083 26.0672)
(-6.96104e-16 -13.061 25.2655)
(2.18539e-15 -13.314 23.0815)
(-3.18815e-16 -11.3036 22.2021)
(-3.42612e-16 -10.925 20.548)
(-8.90382e-16 -9.11772 18.8753)
(-2.296e-16 -7.20988 15.5443)
(1.64732e-15 -4.32965 11.4789)
(1.67651e-15 -1.84424 7.5228)
(-1.2258e-15 0.209514 4.39572)
(-1.55238e-15 1.13962 2.54163)
(-2.47237e-15 0.219859 3.15625)
(-5.06418e-15 -2.27583 5.89667)
(-3.66121e-15 -3.19696 7.25096)
(2.0395e-14 -15.4184 28.8792)
(8.05524e-15 -17.9709 28.8405)
(-7.99334e-16 -14.3304 26.8168)
(1.60754e-15 -14.7268 24.5693)
(-6.3078e-16 -12.8571 23.6746)
(-4.49561e-16 -12.7854 22.0149)
(-9.52074e-16 -11.3702 20.6505)
(-1.11076e-15 -10.1498 17.9924)
(5.41046e-16 -7.79822 14.6076)
(1.28907e-15 -5.37814 10.7042)
(-3.06851e-16 -2.73832 6.7966)
(1.90118e-15 -0.110346 2.55334)
(2.72899e-15 2.55409 -1.56939)
(4.46397e-15 3.76738 -3.80413)
(4.54184e-15 1.97047 -3.02429)
(1.90792e-14 -14.1533 25.6485)
(1.17406e-14 -18.791 30.1099)
(1.78864e-15 -15.3087 27.087)
(9.74316e-16 -14.9931 24.1476)
(-1.09078e-16 -13.4776 22.7868)
(6.18486e-16 -13.1897 21.0043)
(-4.35403e-17 -12.239 19.5334)
(-5.07072e-16 -11.4563 17.5799)
(5.77243e-16 -10.2064 15.3389)
(6.04466e-16 -8.7144 12.7644)
(3.53361e-16 -6.95935 9.97185)
(2.35739e-15 -4.87009 6.93014)
(2.10625e-15 -2.63578 3.52253)
(2.01153e-15 0.763917 -0.118002)
(4.43705e-15 1.93 -5.7689)
(1.85302e-14 -12.3744 21.8429)
(1.4702e-14 -18.1361 29.5643)
(3.78099e-15 -15.2943 26.4823)
(1.40178e-15 -14.2012 22.9323)
(5.0862e-16 -12.7537 21.1586)
(1.31446e-15 -12.173 19.309)
(1.20368e-15 -11.269 17.7343)
(6.13339e-16 -10.4809 16.0019)
(1.14908e-15 -9.56558 14.2249)
(1.18525e-15 -8.52683 12.3592)
(1.0942e-15 -7.38279 10.3579)
(2.09772e-15 -5.95822 8.21985)
(1.68767e-15 -4.42913 5.67426)
(2.2999e-15 -1.85463 2.52686)
(-2.04075e-16 0.380027 -2.98038)
(1.76319e-14 -11.2422 19.734)
(1.61524e-14 -17.2783 28.7651)
(4.94359e-15 -14.9429 25.9024)
(1.32476e-15 -13.4695 22.1735)
(8.98491e-16 -12.0202 20.2375)
(1.4073e-15 -11.3285 18.4204)
(1.51051e-15 -10.4086 16.8824)
(1.34306e-15 -9.60858 15.2792)
(8.27155e-16 -8.76889 13.7318)
(7.41854e-16 -7.90338 12.2157)
(1.35963e-15 -7.03132 10.658)
(7.35655e-16 -5.97767 9.03288)
(2.17525e-16 -4.86525 7.09249)
(-1.01547e-16 -3.03014 4.62621)
(-4.20376e-15 -0.668954 -0.278507)
(1.69747e-14 -10.6605 18.7171)
(1.76602e-14 -16.5881 27.9984)
(5.29016e-15 -14.6795 25.3755)
(9.58306e-16 -12.984 21.5611)
(1.42478e-15 -11.5046 19.4341)
(7.68304e-16 -10.7654 17.6792)
(5.07911e-16 -9.90556 16.2533)
(1.08704e-15 -9.16931 14.8175)
(7.83932e-18 -8.41799 13.4475)
(-9.54916e-16 -7.67183 12.1054)
(-5.46017e-16 -6.95185 10.7395)
(-1.53647e-15 -6.13226 9.39804)
(-1.15365e-15 -5.33881 7.95841)
(-2.34455e-15 -4.01471 6.34536)
(-6.12517e-15 -1.57617 1.6779)
(1.61427e-14 -10.6939 18.8039)
(1.78786e-14 -15.7429 26.884)
(5.21157e-15 -14.2844 24.6622)
(-3.40669e-16 -12.9001 21.3211)
(2.14271e-15 -11.6447 19.2219)
(-5.83473e-16 -11.0216 17.53)
(-3.64395e-15 -10.3472 16.1258)
(1.35312e-15 -9.74648 14.6962)
(1.4094e-15 -9.07391 13.2355)
(-1.05202e-15 -8.33613 11.7726)
(-8.20742e-16 -7.61691 10.4884)
(-2.02392e-15 -7.01847 9.66599)
(-2.62251e-15 -6.61577 9.29408)
(-2.95106e-15 -5.87621 8.89535)
(-8.10597e-15 -3.74083 5.52064)
(1.46905e-14 -11.0693 18.7485)
(1.70595e-14 -15.2504 25.7083)
(2.54757e-17 -12.8087 21.9956)
(-2.34489e-15 -10.7056 18.1718)
(1.72562e-15 -9.10418 16.0776)
(-3.3569e-16 -8.12575 14.3285)
(9.15314e-16 -7.20258 12.9976)
(3.18278e-15 -6.66184 11.837)
(2.92073e-16 -6.49979 11.2792)
(-2.13764e-15 -6.78194 11.2049)
(-3.62014e-15 -7.18886 11.3719)
(-4.73808e-15 -7.66403 11.8959)
(-4.93983e-15 -8.03442 12.7742)
(-7.06683e-15 -7.95985 13.0538)
(-1.12813e-14 -5.76 9.90606)
(9.6752e-15 -9.55688 16.2096)
(1.57994e-14 -17.3797 26.8239)
(7.08558e-15 -18.6598 27.13)
(6.70052e-16 -17.6981 24.4399)
(-5.29455e-16 -15.9446 21.8378)
(-5.02476e-17 -14.28 19.2284)
(2.84983e-15 -12.0943 16.2393)
(5.33449e-15 -9.56518 12.9257)
(5.60377e-15 -6.82461 9.47648)
(6.09642e-15 -4.49931 6.44848)
(3.89995e-15 -3.70196 6.07986)
(1.60857e-15 -5.20295 9.18886)
(-2.84032e-15 -6.78426 12.2649)
(-8.158e-15 -7.4405 12.9735)
(-7.92833e-15 -4.59904 8.40256)
(4.31193e-16 8.24116 0.71183)
(-3.51909e-15 2.26187 -0.656078)
(-2.89175e-15 -0.119796 -0.696444)
(-2.48991e-15 0.435694 -0.684192)
(-1.82625e-15 0.363484 -0.596942)
(-2.88747e-15 0.534392 -0.87367)
(-1.62066e-15 0.523711 -0.50636)
(-1.16125e-15 0.631986 -0.440911)
(-8.45012e-16 0.601351 -0.363317)
(1.82319e-16 0.838756 -0.421113)
(1.36665e-15 0.746841 -0.175486)
(1.80985e-15 0.776023 -0.153446)
(2.34695e-15 1.04055 -0.131586)
(2.2705e-15 0.832239 -0.0459851)
(2.56137e-15 0.925763 -0.0719133)
(2.79256e-15 0.871573 -0.125618)
(3.64766e-15 1.11007 -0.108097)
(3.41711e-15 0.914715 -0.0763473)
(3.3757e-15 0.95339 -0.138864)
(4.60706e-15 1.19914 -0.103061)
(3.58068e-15 0.919501 -0.100587)
(3.44422e-15 1.02541 -0.147783)
(3.45523e-15 0.974633 -0.212799)
(4.71783e-15 1.21162 -0.180383)
(3.50565e-15 0.929721 -0.165108)
(3.49252e-15 1.03604 -0.200805)
(2.99411e-15 0.998589 -0.253364)
(4.20778e-15 1.18605 -0.214818)
(2.86947e-15 0.933716 -0.184053)
(2.59993e-15 0.99917 -0.223984)
(3.8314e-15 1.16527 -0.147234)
(2.51741e-15 0.875962 -0.143616)
(2.55245e-15 0.973321 -0.165955)
(2.15173e-15 0.946371 -0.211699)
(3.07505e-15 1.07213 -0.115474)
(2.16789e-15 0.819852 -0.123994)
(1.93243e-15 0.891048 -0.170983)
(2.72196e-15 0.978469 -0.0253957)
(1.76306e-15 0.714845 -0.0613123)
(1.55039e-15 0.791176 -0.0799749)
(1.61465e-15 0.777941 -0.12391)
(2.23074e-15 0.82835 0.0742146)
(1.34106e-15 0.598267 0.0203365)
(1.24187e-15 0.657598 0.00514577)
(1.06678e-15 0.651349 -0.0397535)
(1.66339e-15 0.666046 0.215794)
(5.33946e-16 0.475994 0.14937)
(4.851e-16 0.531246 0.0978018)
(1.21922e-15 0.551165 0.381842)
(1.44584e-15 0.463022 0.261588)
(1.71932e-15 0.481399 0.17628)
(1.84102e-15 0.482599 0.0743054)
(2.62821e-15 0.44112 0.398245)
(1.98556e-15 0.339403 0.302885)
(1.87277e-15 0.342123 0.276115)
(2.3253e-15 0.351831 0.233401)
(3.58458e-15 0.265971 0.358778)
(3.47341e-15 0.0204164 0.108945)
(1.85497e-15 0.049421 0.18517)
(7.00017e-15 0.225589 -1.24415)
(6.23343e-15 -0.461469 -1.29843)
(5.76076e-15 -0.193459 -1.65991)
(4.13506e-15 -0.0249006 -1.93867)
(-3.05058e-16 -0.548882 -1.49544)
(-4.13166e-15 -0.887459 -0.0640865)
(-2.49648e-15 -0.632283 0.0195286)
(-4.15225e-15 -1.49069 1.88493)
(-3.25766e-15 -1.84043 2.44928)
(-2.47639e-15 -2.02009 2.46622)
(-2.46096e-15 -1.93592 2.75268)
(-4.85546e-15 -3.29699 5.27358)
(-4.87824e-15 -3.53932 4.74091)
(-5.56501e-15 -3.99118 4.91558)
(-6.43657e-15 -3.87957 5.171)
(-1.11046e-14 -6.00541 8.3351)
(-9.33196e-15 -6.03424 6.58924)
(-1.01676e-14 -6.0687 6.82878)
(-1.41874e-14 -8.5721 9.87134)
(-1.02313e-14 -8.3672 7.29902)
(-1.05295e-14 -8.63803 7.82357)
(-1.24025e-14 -9.21788 9.87906)
(-1.15083e-14 -9.05027 9.82059)
(-1.07422e-14 -9.13145 10.1415)
(-9.41867e-15 -10.5427 11.5816)
(-8.20798e-15 -9.88602 10.5721)
(-7.70521e-15 -10.0552 11.1953)
(-7.87219e-15 -9.94395 11.3569)
(-8.53385e-15 -9.97007 11.4989)
(-9.70731e-15 -9.93306 11.7098)
(-1.11477e-14 -9.94975 11.9506)
(-1.23731e-14 -9.95904 12.1948)
(-1.33037e-14 -9.93331 12.478)
(-1.67265e-14 -10.9507 13.9004)
(-1.5086e-14 -10.5543 13.3049)
(-1.58748e-14 -10.5945 13.8354)
(-1.55334e-14 -10.6102 14.0565)
(-1.45775e-14 -10.5897 13.8692)
(-1.44127e-14 -10.6814 14.2727)
(-1.41591e-14 -10.7133 14.6561)
(-1.42153e-14 -10.8333 15.1672)
(-1.4524e-14 -10.8494 15.8061)
(-1.60166e-14 -11.9878 18.2618)
(-1.32717e-14 -11.4046 16.5859)
(-1.38438e-14 -11.5825 17.0891)
(-1.39729e-14 -11.6128 17.3684)
(-1.38014e-14 -11.7311 17.7617)
(-1.29842e-14 -11.814 18.1098)
(-1.16118e-14 -11.9463 18.3074)
(-1.00642e-14 -12.0207 18.311)
(-8.1625e-15 -12.1995 18.3719)
(-6.29198e-15 -12.2314 18.5098)
(-3.32757e-15 -13.0507 20.8194)
(-7.88212e-16 -12.364 19.4811)
(1.42645e-15 -12.5212 19.7773)
(2.50595e-15 -12.5649 19.9487)
(3.45019e-15 -12.7066 20.1676)
(4.04128e-15 -12.7412 20.3894)
(4.47201e-15 -12.9047 20.8594)
(4.80722e-15 -12.9675 20.9623)
(4.99643e-15 -13.0602 20.9789)
(5.22428e-15 -12.6093 21.1969)
(5.57072e-15 -12.3664 20.6854)
(5.81921e-15 -12.4072 20.9859)
(5.87742e-15 -12.5036 21.1728)
(6.16108e-15 -12.4851 20.9432)
(6.30935e-15 -12.5632 20.7343)
(6.37946e-15 -12.5957 20.4117)
(6.26194e-15 -12.549 20.1095)
(5.70474e-15 -12.7468 20.1475)
(6.77541e-15 -10.7556 17.5719)
(6.24356e-15 -11.3016 18.7367)
(6.50107e-15 -11.2143 18.4428)
(6.66256e-15 -11.228 18.4501)
(6.76275e-15 -11.2133 18.6281)
(7.025e-15 -11.1896 18.6176)
(7.36821e-15 -11.1269 18.5603)
(7.70999e-15 -11.0796 18.523)
(8.05403e-15 -11.1695 18.407)
(9.44893e-15 -8.66388 15.6907)
(8.53732e-15 -9.38117 17.8863)
(8.60373e-15 -9.15209 17.3774)
(8.40828e-15 -9.21167 16.884)
(8.07891e-15 -9.1128 16.094)
(7.66179e-15 -9.03876 15.1764)
(7.80158e-15 -8.95732 14.3735)
(6.83516e-15 -8.74151 12.9757)
(6.15239e-15 -8.49966 11.5566)
(5.51051e-15 -8.35327 10.1276)
(3.99376e-15 -4.99446 3.65056)
(5.12821e-15 -6.44501 8.0345)
(4.63922e-15 -5.93752 6.53205)
(4.02324e-15 -5.98623 6.0198)
(3.49371e-15 -5.62932 5.24488)
(3.04971e-15 -5.51321 4.58606)
(2.43337e-15 -5.296 3.42339)
(1.91835e-15 -4.93495 2.39266)
(2.07803e-15 -4.93718 2.5886)
(4.18773e-16 -3.50214 -0.790157)
(1.70283e-15 -3.94442 2.0095)
(1.39138e-15 -3.87449 1.03482)
(-5.65052e-16 -2.52057 -2.59086)
(3.70661e-16 -4.66956 -1.17035)
(3.27029e-17 -3.25014 -1.22085)
(9.36735e-17 -3.09728 -0.759649)
(1.27817e-16 -3.81241 -1.15125)
(8.82303e-17 -2.67196 -0.673029)
(1.04113e-16 -3.37937 -1.04682)
(9.61711e-17 -3.09945 -0.75081)
(2.1801e-17 -2.56168 -0.522283)
(-5.13219e-17 -3.06489 -0.796202)
(-1.27511e-16 -2.88028 -0.570718)
(-1.24176e-16 -2.45885 -0.381693)
(-1.69231e-16 -3.27012 -0.546398)
(-1.0502e-16 -2.2657 -0.305293)
(-9.68219e-17 -2.95359 -0.442578)
(5.51685e-17 -2.69056 -0.297056)
(5.56697e-17 -2.35369 -0.169242)
(1.51689e-16 -3.15733 -0.225958)
(1.66273e-16 -2.20044 -0.080823)
(2.39187e-16 -2.9101 -0.0788)
(1.96188e-16 -2.77498 -0.0166654)
(1.38625e-16 -2.32203 0.0492572)
(1.47524e-16 -2.86459 0.0868679)
(5.32989e-17 -2.76533 0.105057)
(2.65624e-17 -2.40196 0.130832)
(-8.64351e-17 -3.27775 0.16524)
(-1.49513e-16 -2.32072 0.15364)
(-3.09519e-16 -3.07319 0.233885)
(-2.83151e-16 -2.84904 0.169292)
(-2.97876e-16 -2.52088 0.159875)
(-4.62858e-16 -3.42599 0.185353)
(-3.65e-16 -2.41469 0.151936)
(-5.47778e-16 -3.20868 0.23376)
(-4.47499e-16 -3.07219 0.147863)
(-3.07614e-16 -2.57624 0.145219)
(-4.0503e-16 -3.18028 0.184237)
(-2.89578e-16 -3.06101 0.112594)
(-1.82146e-16 -2.6523 0.109514)
(-2.31794e-16 -3.60761 0.104847)
(-1.57935e-16 -2.53557 0.0768655)
(-2.4434e-16 -3.34637 0.093922)
(-2.20805e-16 -3.06682 -0.00143317)
(-2.22789e-16 -2.69322 0.00265279)
(-3.24817e-16 -3.63366 -0.0572259)
(-2.34437e-16 -2.52286 -0.0473214)
(-3.83123e-16 -3.33471 -0.0873856)
(-3.45673e-16 -3.14427 -0.159036)
(-2.87162e-16 -2.60163 -0.117697)
(-4.35905e-16 -3.18087 -0.219593)
(-3.86937e-16 -3.0203 -0.249008)
(-3.26174e-16 -2.57482 -0.188712)
(-4.56481e-16 -3.47483 -0.304993)
(-3.36251e-16 -2.3839 -0.218281)
(-4.7482e-16 -3.1308 -0.337934)
(-3.46299e-16 -2.8162 -0.348788)
(-2.82283e-16 -2.43311 -0.270456)
(-3.83242e-16 -3.26414 -0.409807)
(-2.61458e-16 -2.20624 -0.291312)
(-3.9272e-16 -2.91173 -0.438273)
(-3.28435e-16 -2.69038 -0.437464)
(-2.79793e-16 -2.18183 -0.343728)
(-4.0714e-16 -2.65653 -0.535384)
(-2.64652e-16 -2.47248 -0.507338)
(-2.79249e-16 -2.05874 -0.398757)
(-3.74643e-16 -2.78798 -0.579524)
(-3.15565e-16 -1.82804 -0.417923)
(-4.64166e-16 -2.42506 -0.633469)
(-4.02267e-16 -2.10841 -0.593737)
(-3.04505e-16 -1.77011 -0.474081)
(-4.24931e-16 -2.3996 -0.680247)
(-3.25649e-16 -1.5117 -0.494298)
(-4.8656e-16 -2.04322 -0.745663)
(-3.80196e-16 -1.80509 -0.697253)
(-3.75324e-16 -1.38144 -0.564164)
(-5.39752e-16 -1.71567 -0.852517)
(-5.6101e-16 -1.51344 -0.778993)
(-4.75932e-16 -1.16712 -0.622449)
(-6.69836e-16 -1.69169 -0.877263)
(-5.50334e-16 -0.922311 -0.642939)
(-8.43848e-16 -1.21431 -0.981207)
(6.65167e-48 0.202009 0.217509)
(4.28929e-47 0.252539 0.21488)
(9.44605e-47 0.284902 0.216451)
(-6.97668e-47 0.31635 0.217247)
(-1.38296e-45 0.347139 0.219567)
(-4.77895e-45 0.376308 0.222076)
(-1.98138e-45 0.405023 0.225436)
(5.15736e-44 0.432938 0.229249)
(2.15999e-43 0.460493 0.233714)
(1.22656e-43 0.487659 0.238705)
(-2.34189e-42 0.51463 0.244279)
(-9.58394e-42 0.541457 0.250395)
(-1.47097e-42 0.568251 0.257069)
(1.20311e-40 0.595079 0.264285)
(4.01229e-40 0.62202 0.27205)
(-3.33709e-40 0.649139 0.280358)
(-6.30716e-39 0.676499 0.289212)
(-1.45399e-38 0.704157 0.298615)
(4.04595e-38 0.732168 0.308568)
(3.12594e-37 0.760578 0.319076)
(3.80089e-37 0.78943 0.330141)
(-3.04202e-36 0.818758 0.341767)
(-1.403e-35 0.848586 0.353954)
(-1.57551e-36 0.878926 0.366702)
(1.7879e-34 0.909777 0.380006)
(5.61296e-34 0.941116 0.393857)
(-5.60845e-34 0.972903 0.408237)
(-8.73639e-33 1.00507 0.423125)
(-2.02644e-32 1.03754 0.438489)
(4.09174e-32 1.0702 0.454291)
(3.64387e-31 1.10292 0.470483)
(6.89683e-31 1.13558 0.487014)
(-1.8118e-30 1.16807 0.503829)
(-1.31314e-29 1.20027 0.520875)
(-2.33185e-29 1.23213 0.538099)
(5.65422e-29 1.26363 0.555456)
(4.07869e-28 1.29481 0.572907)
(7.84892e-28 1.32576 0.590419)
(-1.16628e-27 1.35659 0.60796)
(-1.06598e-26 1.38747 0.625496)
(-2.45638e-26 1.41854 0.642985)
(8.17444e-27 1.44997 0.660385)
(2.21659e-25 1.48196 0.677657)
(6.51762e-25 1.51482 0.694768)
(4.47122e-25 1.54893 0.711686)
(-3.24923e-24 1.58475 0.728336)
(-1.34252e-23 1.62254 0.744538)
(-2.06545e-23 1.66222 0.759926)
(2.15278e-23 1.70321 0.773913)
(1.92868e-22 1.7445 0.785659)
(4.58948e-22 1.78468 0.794051)
(2.94422e-22 1.82196 0.797681)
(-1.56152e-21 1.85422 0.79481)
(-5.91817e-21 1.87885 0.783313)
(-9.01678e-21 1.89252 0.760628)
(2.43716e-21 1.89074 0.723722)
(4.57984e-20 1.86737 0.669116)
(1.07427e-19 1.81362 0.593127)
(7.40836e-20 1.71737 0.492223)
(-3.10802e-19 1.56103 0.363706)
(-1.31622e-18 1.31127 0.208395)
(-2.79438e-18 0.915592 0.031913)
(-4.20727e-18 0.164877 -0.21614)
(-2.27441e-18 -0.830904 -0.317353)
(-4.40414e-19 -1.3825 -0.350254)
(-1.38558e-20 -1.88969 -0.364639)
(9.05874e-21 -2.36677 -0.381437)
(9.5494e-22 -2.8138 -0.38661)
(-2.00832e-22 -3.1806 -0.399202)
(-5.14779e-23 -3.48473 -0.391796)
(-6.50598e-23 -3.65274 -0.398295)
(1.12955e-22 -3.8033 -0.358348)
(-4.40279e-22 -3.77107 -0.365945)
(2.09928e-21 -3.95897 -0.273459)
(-1.29162e-20 -3.71277 -0.354999)
(1.81454e-19 -4.26745 -0.165834)
(-2.92415e-18 -3.66974 -0.459499)
(3.98823e-17 -4.55337 -0.204294)
(-5.79966e-17 -6.09108 -0.532399)
(1.47041e-47 0.202569 0.237032)
(1.19157e-46 0.252798 0.233091)
(3.03416e-46 0.284585 0.234573)
(-4.81564e-48 0.315896 0.235052)
(-3.46721e-45 0.346402 0.237366)
(-1.39267e-44 0.375396 0.239859)
(-1.30955e-44 0.403898 0.243322)
(1.19379e-43 0.431631 0.247272)
(6.02004e-43 0.458995 0.251939)
(6.76618e-43 0.485981 0.257172)
(-5.18198e-42 0.51277 0.263035)
(-2.61559e-41 0.539419 0.269479)
(-2.11936e-41 0.566035 0.276521)
(2.62569e-40 0.592687 0.284142)
(1.09478e-39 0.619453 0.292347)
(3.70677e-41 0.646396 0.30113)
(-1.37606e-38 0.67358 0.310495)
(-4.0937e-38 0.701062 0.32044)
(5.65533e-38 0.728896 0.330968)
(6.82883e-37 0.757128 0.342082)
(1.209e-36 0.785801 0.353782)
(-5.33988e-36 0.814949 0.36607)
(-3.06114e-35 0.844598 0.378944)
(-1.86995e-35 0.87476 0.392398)
(3.3709e-34 0.905435 0.406422)
(1.21883e-33 0.936603 0.421)
(-6.25058e-34 0.968225 0.436109)
(-1.69045e-32 1.00024 0.451716)
(-4.36161e-32 1.03256 0.46778)
(6.66128e-32 1.06509 0.484254)
(7.09737e-31 1.0977 0.501085)
(1.46439e-30 1.13027 0.518216)
(-3.15225e-30 1.16267 0.535593)
(-2.5484e-29 1.19481 0.553166)
(-4.86122e-29 1.22662 0.570893)
(9.82839e-29 1.25809 0.588742)
(7.82855e-28 1.28924 0.60669)
(1.6008e-27 1.32017 0.624717)
(-1.89293e-27 1.351 0.642803)
(-2.0045e-26 1.38189 0.66092)
(-4.88095e-26 1.41297 0.67903)
(5.34221e-27 1.44443 0.697096)
(4.00575e-25 1.47647 0.715097)
(1.24927e-24 1.50937 0.73303)
(1.07941e-24 1.54356 0.750886)
(-5.34567e-24 1.57948 0.76859)
(-2.41967e-23 1.61748 0.785895)
(-4.11684e-23 1.65752 0.802309)
(2.17473e-23 1.6991 0.817089)
(3.04879e-22 1.74131 0.829238)
(7.81838e-22 1.78281 0.837489)
(6.96127e-22 1.82191 0.840295)
(-1.70687e-21 1.85663 0.835776)
(-7.26786e-21 1.88446 0.821639)
(-1.06199e-20 1.90224 0.795097)
(2.42504e-21 1.90561 0.752832)
(3.51529e-20 1.88856 0.69099)
(1.74306e-20 1.8423 0.605509)
(-2.65314e-19 1.75456 0.492527)
(-1.07841e-18 1.60707 0.348761)
(-2.19765e-18 1.36545 0.175935)
(-2.12805e-18 0.981031 -0.0196157)
(-4.86384e-19 0.234537 -0.28808)
(-2.38003e-18 -0.851155 -0.375271)
(-4.85616e-19 -1.41127 -0.374419)
(-1.26138e-20 -1.91619 -0.378829)
(1.05594e-20 -2.39384 -0.391247)
(1.16694e-21 -2.83949 -0.390488)
(-2.12135e-22 -3.20486 -0.398407)
(-5.69495e-23 -3.50655 -0.387721)
(-6.50155e-23 -3.67464 -0.391601)
(1.12504e-22 -3.82103 -0.350779)
(-4.40101e-22 -3.79115 -0.357912)
(2.10743e-21 -3.96627 -0.266395)
(-1.31266e-20 -3.72812 -0.347705)
(1.85802e-19 -4.25435 -0.161533)
(-2.99017e-18 -3.66263 -0.450763)
(3.97595e-17 -4.53675 -0.200248)
(-5.55554e-17 -5.99229 -0.53656)
(2.49165e-47 0.202941 0.247449)
(2.53376e-46 0.253005 0.242998)
(7.11411e-46 0.284458 0.244418)
(2.9339e-46 0.315692 0.244738)
(-6.75392e-45 0.346045 0.24705)
(-3.0487e-44 0.374947 0.249538)
(-3.93829e-44 0.403338 0.253061)
(2.15389e-43 0.430978 0.257089)
(1.27052e-42 0.458245 0.261869)
(1.92182e-42 0.485139 0.267237)
(-8.92241e-42 0.511836 0.273261)
(-5.40662e-41 0.538395 0.279887)
(-6.88293e-41 0.564923 0.287131)
(4.45385e-40 0.591486 0.294975)
(2.24726e-39 0.618164 0.303423)
(1.40978e-39 0.645019 0.312467)
(-2.33024e-38 0.672115 0.322112)
(-8.50238e-38 0.699509 0.332355)
(4.22656e-38 0.727254 0.343198)
(1.15449e-36 0.755398 0.354643)
(2.65225e-36 0.783983 0.366691)
(-6.94259e-36 0.813044 0.37934)
(-5.14303e-35 0.842606 0.392587)
(-5.39928e-35 0.872684 0.406425)
(4.87851e-34 0.903276 0.420839)
(2.02299e-33 0.934367 0.43581)
(-2.66339e-34 0.965917 0.45131)
(-2.53417e-32 0.997866 0.4673)
(-7.10755e-32 1.03013 0.483737)
(8.59832e-32 1.06261 0.500567)
(1.07658e-30 1.09518 0.517733)
(2.33422e-30 1.12771 0.53518)
(-4.50278e-30 1.16009 0.552853)
(-3.87844e-29 1.19221 0.570707)
(-7.60925e-29 1.224 0.588706)
(1.43908e-28 1.25545 0.606827)
(1.19192e-27 1.28659 0.625056)
(2.48722e-27 1.31751 0.643381)
(-2.71075e-27 1.34833 0.661787)
(-3.04113e-26 1.3792 0.680246)
(-7.58283e-26 1.41029 0.698722)
(6.321e-28 1.44174 0.717182)
(5.96187e-25 1.47378 0.735616)
(1.93107e-24 1.50668 0.754043)
(1.92136e-24 1.54086 0.772471)
(-7.27969e-24 1.57681 0.790819)
(-3.61478e-23 1.6149 0.808794)
(-6.85132e-23 1.65515 0.825822)
(1.93442e-24 1.69708 0.841074)
(3.89721e-22 1.73983 0.853476)
(1.16619e-21 1.78209 0.86169)
(1.60909e-21 1.82223 0.864109)
(-1.69688e-22 1.85829 0.858789)
(-5.65087e-21 1.88788 0.843356)
(-1.28654e-20 1.90788 0.814903)
(-2.1847e-20 1.91405 0.769947)
(-6.89648e-20 1.90041 0.704406)
(-2.88084e-19 1.85822 0.613978)
(-8.84723e-19 1.77508 0.494605)
(-1.70374e-18 1.63233 0.342489)
(-1.07218e-18 1.3949 0.15992)
(4.84999e-18 1.01462 -0.0478418)
(1.45532e-17 0.263484 -0.315241)
(-2.47598e-18 -0.826999 -0.454731)
(-7.17883e-19 -1.39589 -0.418665)
(-5.82857e-21 -1.89979 -0.403019)
(1.51775e-20 -2.37847 -0.407474)
(1.43622e-21 -2.82555 -0.397987)
(-2.47349e-22 -3.19317 -0.398362)
(-6.45966e-23 -3.49696 -0.382524)
(-6.49096e-23 -3.66991 -0.382323)
(1.11964e-22 -3.81805 -0.339801)
(-4.39885e-22 -3.79529 -0.346035)
(2.11753e-21 -3.96467 -0.255649)
(-1.33814e-20 -3.73787 -0.336473)
(1.91123e-19 -4.24362 -0.153786)
(-3.06733e-18 -3.6596 -0.439495)
(3.96214e-17 -4.5295 -0.18904)
(-5.34221e-17 -5.92418 -0.548988)
(3.82451e-47 0.203528 0.259623)
(5.25407e-46 0.25332 0.254694)
(1.61119e-45 0.284293 0.256065)
(1.21898e-45 0.315397 0.256239)
(-1.27913e-44 0.345517 0.258563)
(-6.49569e-44 0.374275 0.261067)
(-1.03809e-43 0.402494 0.264672)
(3.74007e-43 0.42999 0.268806)
(2.61524e-42 0.457106 0.273732)
(4.86486e-42 0.483859 0.279272)
(-1.4685e-41 0.510414 0.285497)
(-1.09053e-40 0.536836 0.292348)
(-1.83839e-40 0.563226 0.299844)
(7.24375e-40 0.589654 0.307963)
(4.49688e-39 0.616196 0.316708)
(5.14027e-39 0.642917 0.326073)
(-3.80682e-38 0.669878 0.33606)
(-1.71424e-37 0.697137 0.346667)
(-3.93664e-38 0.724746 0.357895)
(1.89082e-36 0.752755 0.369745)
(5.55575e-36 0.781204 0.382216)
(-7.30361e-36 0.81013 0.395307)
(-8.37958e-35 0.839558 0.409012)
(-1.3126e-34 0.869504 0.423319)
(6.46963e-34 0.899969 0.438213)
(3.24721e-33 0.930937 0.453669)
(9.69014e-34 0.962373 0.469652)
(-3.58146e-32 0.994216 0.486121)
(-1.11153e-31 1.02639 0.503023)
(9.90541e-32 1.05878 0.520302)
(1.55845e-30 1.09128 0.537895)
(3.52853e-30 1.12376 0.555744)
(-6.326e-30 1.15609 0.573795)
(-5.69348e-29 1.18817 0.592007)
(-1.12083e-28 1.21993 0.610351)
(2.16853e-28 1.25136 0.628813)
(1.77768e-27 1.28247 0.647389)
(3.6687e-27 1.31337 0.666077)
(-4.30198e-27 1.34417 0.684869)
(-4.62791e-26 1.37504 0.70374)
(-1.14881e-25 1.40613 0.722654)
(2.66988e-27 1.43759 0.741584)
(9.2078e-25 1.46962 0.760532)
(3.02655e-24 1.50252 0.77954)
(3.23752e-24 1.53671 0.798641)
(-1.07244e-23 1.57271 0.817753)
(-5.74843e-23 1.61095 0.836541)
(-1.20479e-22 1.65151 0.854343)
(-4.43516e-23 1.69396 0.870232)
(5.49338e-22 1.7375 0.88304)
(2.04356e-21 1.78088 0.89134)
(4.00381e-21 1.82254 0.89345)
(3.98031e-21 1.8606 0.887351)
(-3.65725e-21 1.89278 0.870573)
(-3.18494e-20 1.91609 0.840073)
(-1.18565e-19 1.92642 0.79217)
(-3.6292e-19 1.91789 0.722511)
(-9.15573e-19 1.88176 0.626502)
(-1.67101e-18 1.80552 0.499815)
(-1.16302e-18 1.66994 0.338096)
(5.50526e-18 1.43916 0.144185)
(2.61001e-17 1.06483 -0.0793564)
(5.38368e-17 0.318587 -0.358867)
(-1.53777e-18 -0.816015 -0.538762)
(-1.43862e-18 -1.40084 -0.48648)
(-4.79363e-21 -1.89956 -0.440396)
(2.78892e-20 -2.37708 -0.4305)
(1.88023e-21 -2.82455 -0.409676)
(-3.50085e-22 -3.19267 -0.399597)
(-7.50899e-23 -3.49676 -0.376456)
(-6.45128e-23 -3.67222 -0.370747)
(1.11428e-22 -3.82011 -0.32545)
(-4.39657e-22 -3.80189 -0.330514)
(2.12789e-21 -3.96498 -0.241153)
(-1.36368e-20 -3.74661 -0.321829)
(1.96536e-19 -4.23429 -0.142731)
(-3.14183e-18 -3.65623 -0.425785)
(3.94842e-17 -4.5204 -0.175907)
(-5.10171e-17 -5.86771 -0.521469)
(4.83972e-47 0.204102 0.27115)
(1.05042e-45 0.253641 0.265916)
(3.49785e-45 0.284177 0.267244)
(3.65429e-45 0.315156 0.26731)
(-2.3215e-44 0.34506 0.269656)
(-1.33306e-43 0.373685 0.272189)
(-2.49669e-43 0.401748 0.275882)
(6.12071e-43 0.429113 0.280129)
(5.19091e-42 0.456092 0.285203)
(1.13101e-41 0.482718 0.290916)
(-2.25059e-41 0.509145 0.297343)
(-2.12147e-40 0.535443 0.30442)
(-4.37538e-40 0.56171 0.312165)
(1.10301e-39 0.588017 0.320555)
(8.67435e-39 0.614438 0.329595)
(1.38985e-38 0.641037 0.339276)
(-5.88415e-38 0.667878 0.3496)
(-3.32459e-37 0.695017 0.360564)
(-2.81734e-37 0.722506 0.37217)
(2.95062e-36 0.750394 0.384417)
(1.11018e-35 0.778723 0.397305)
(-3.36341e-36 0.80753 0.410829)
(-1.30373e-34 0.836841 0.424982)
(-2.89702e-34 0.866673 0.439751)
(7.17283e-34 0.897029 0.455115)
(4.95891e-33 0.927894 0.471047)
(4.21044e-33 0.959234 0.487506)
(-4.51869e-32 0.990992 0.504445)
(-1.63196e-31 1.02309 0.521807)
(8.05167e-32 1.05542 0.539527)
(2.05478e-30 1.08787 0.557541)
(4.87594e-30 1.12031 0.575787)
(-8.39946e-30 1.15261 0.594212)
(-7.72553e-29 1.18466 0.612777)
(-1.46695e-28 1.21641 0.631463)
(3.33717e-28 1.24781 0.650264)
(2.50821e-27 1.2789 0.669186)
(4.81965e-27 1.30977 0.688239)
(-7.78861e-27 1.34056 0.707418)
(-6.92361e-26 1.37141 0.726702)
(-1.61537e-25 1.40248 0.746057)
(4.67218e-26 1.43394 0.765455)
(1.48553e-24 1.46596 0.784916)
(4.68445e-24 1.49883 0.804505)
(4.63301e-24 1.53299 0.824283)
(-1.87737e-23 1.56901 0.844174)
(-9.80731e-23 1.60737 0.8638)
(-2.12274e-22 1.64822 0.882415)
(-9.68582e-23 1.69117 0.898994)
(9.98944e-22 1.73547 0.912281)
(4.16004e-21 1.77992 0.920766)
(9.3071e-21 1.823 0.922704)
(1.09805e-20 1.86294 0.916012)
(-1.0763e-20 1.89752 0.898134)
(-1.07908e-19 1.9239 0.865901)
(-3.87689e-19 1.9381 0.815437)
(-9.92542e-19 1.93432 0.742123)
(-1.84867e-18 1.90385 0.641095)
(-1.74482e-18 1.83409 0.507795)
(3.87637e-18 1.70527 0.337413)
(2.602e-17 1.48102 0.133386)
(7.80197e-17 1.11214 -0.105909)
(1.41791e-16 0.369915 -0.397009)
(4.42493e-18 -0.807516 -0.617484)
(-2.9309e-18 -1.41561 -0.576209)
(-8.53065e-20 -1.91064 -0.495442)
(5.32836e-20 -2.38484 -0.461941)
(3.37777e-21 -2.83177 -0.426323)
(-5.60564e-22 -3.19946 -0.402762)
(-9.62501e-23 -3.50273 -0.369756)
(-6.37206e-23 -3.67957 -0.356894)
(1.10965e-22 -3.82591 -0.307566)
(-4.39393e-22 -3.81124 -0.310997)
(2.13781e-21 -3.96669 -0.222533)
(-1.38754e-20 -3.75622 -0.303318)
(2.01738e-19 -4.22433 -0.127926)
(-3.20938e-18 -3.65238 -0.409651)
(3.93666e-17 -4.5097 -0.157531)
(-4.98642e-17 -5.80368 -0.528987)
(3.58635e-47 0.204744 0.282608)
(2.02472e-45 0.253994 0.27717)
(7.29432e-45 0.284066 0.278469)
(9.4231e-45 0.314898 0.278462)
(-4.02678e-44 0.344566 0.28084)
(-2.63684e-43 0.373039 0.283419)
(-5.59793e-43 0.400929 0.287211)
(9.327e-43 0.428148 0.291582)
(9.93801e-42 0.454976 0.296815)
(2.45816e-41 0.481461 0.302712)
(-3.14552e-41 0.507747 0.309351)
(-3.98156e-40 0.533908 0.316663)
(-9.58308e-40 0.560039 0.324668)
(1.5516e-39 0.586211 0.333341)
(1.61436e-38 0.612498 0.342685)
(3.24325e-38 0.638965 0.352692)
(-8.57977e-38 0.665673 0.363364)
(-6.21731e-37 0.692678 0.374697)
(-8.51122e-37 0.720035 0.386692)
(4.40359e-36 0.74779 0.399349)
(2.13182e-35 0.775987 0.412664)
(1.04585e-35 0.804663 0.426635)
(-1.95283e-34 0.833845 0.44125)
(-6.01329e-34 0.863553 0.456494)
(5.09941e-34 0.893789 0.472344)
(7.2813e-33 0.924541 0.488767)
(1.17975e-32 0.955778 0.505719)
(-4.66293e-32 0.987445 0.523147)
(-2.26303e-31 1.01946 0.540985)
(-3.4266e-32 1.05173 0.559166)
(2.3105e-30 1.08413 0.577619)
(6.01877e-30 1.11652 0.59628)
(-9.59296e-30 1.14879 0.615096)
(-9.13388e-29 1.18082 0.634034)
(-1.55795e-28 1.21254 0.653078)
(5.1069e-28 1.24392 0.672233)
(3.20013e-27 1.27498 0.691518)
(4.96847e-27 1.30583 0.71095)
(-1.5516e-26 1.33659 0.730535)
(-9.95853e-26 1.36742 0.750251)
(-1.93554e-25 1.39848 0.770063)
(2.32264e-25 1.42992 0.789948)
(2.50563e-24 1.46191 0.809937)
(6.88937e-24 1.49475 0.830126)
(4.04013e-24 1.52887 0.850608)
(-4.01467e-23 1.5649 0.871318)
(-1.76668e-22 1.60339 0.89184)
(-3.47576e-22 1.64455 0.91134)
(-1.22718e-23 1.68806 0.928699)
(2.36825e-21 1.73321 0.94257)
(8.99075e-21 1.77884 0.951364)
(1.87707e-20 1.8235 0.953275)
(1.50896e-20 1.86549 0.946163)
(-5.90617e-20 1.90272 0.927393)
(-3.31543e-19 1.93248 0.893665)