/*--------------------------------*- C++ -*----------------------------------*\
| =========                 |                                                 |
| \\      /  F ield         | OpenFOAM: The Open Source CFD Toolbox           |
|  \\    /   O peration     | Version:  4.1                                   |
|   \\  /    A nd           | Web:      www.OpenFOAM.org                      |
|    \\/     M anipulation  |                                                 |
\*---------------------------------------------------------------------------*/
FoamFile
{
    version     2.0;
    format      ascii;
    class       volScalarField;
    location    "7";
    object      p;
}
// * * * * * * * * * * * * * * * * * * * * * * * * * * * * * * * * * * * * * //

dimensions      [0 2 -2 0 0 0 0];

internalField   nonuniform List<scalar> 
6785
(
565.246
486.893
440.135
386.98
340.497
295.776
254.168
214.836
177.678
142.502
108.602
75.5717
46.9484
17.403
-23.0493
-44.6504
-61.9865
-51.92
-58.7479
-57.9509
-60.1906
-60.7115
-61.13
-60.6518
-59.3297
-56.9302
-53.8155
-49.5802
-43.6281
-39.5317
-17.2377
-20.1367
-10.4312
-14.0872
-9.45816
-9.65093
-7.88026
-7.20418
-6.24905
-5.48407
-4.6842
-4.06493
-3.57535
-3.13765
-0.824938
22.5157
20.3619
23.6398
19.1366
21.1516
18.6865
18.8059
17.6731
17.2315
16.6824
16.3118
15.9612
15.6699
15.3089
14.5899
-2.249
-6.39477
-5.20899
-9.35769
-8.3703
-11.1929
-11.2424
-12.815
-13.3536
-14.3262
-15.158
-16.2345
-17.6163
-19.8554
-22.5166
-38.7142
-42.7829
-42.1815
-45.9038
-45.7804
-49.1146
-50.1579
-52.9893
-54.9915
-57.3301
-59.14
-60.5599
-61.6361
-62.4724
-60.9175
-48.1594
-49.8201
-47.8767
-50.1173
-48.3893
-50.1367
-49.4435
-50.3104
-50.3237
-50.5098
-49.9824
-48.8634
-46.8068
-45.0198
-41.9109
-23.5138
-22.6821
-20.0386
-20.2988
-17.4078
-16.9903
-14.7437
-13.4233
-11.5485
-9.80999
-7.90718
-6.12174
-4.11681
-2.72229
-0.414981
-1.83883
-0.673043
1.18502
1.15983
3.27195
3.5862
5.12134
5.95417
7.09588
8.07814
9.11212
10.0125
11.0435
11.7109
12.745
10.6893
11.9069
13.3697
13.4201
15.0667
15.3248
16.4841
17.1305
17.975
18.7296
19.5435
20.3274
21.3392
22.0669
23.294
27.6961
28.9858
30.0416
30.2213
31.445
31.5289
32.2578
32.3829
32.6655
32.9814
33.5352
34.3636
35.3908
36.1282
37.0079
36.0305
36.8274
37.3885
37.4305
38.1542
38.1912
38.6632
38.8111
39.0042
38.882
38.4307
37.8384
37.205
37.2533
36.8975
48.3807
46.4784
46.2351
45.0769
44.7138
43.2552
41.8966
39.6277
36.8301
33.3322
29.7939
26.8211
25.0859
24.828
22.3708
17.0637
12.3271
8.26257
2.46705
-2.84391
-8.05527
-11.8661
-14.9448
-16.8913
-18.1455
-18.5976
-18.3618
-17.3155
-16.1268
-16.9205
5.60289
1.62139
-6.18096
-12.1872
-15.491
-18.1663
-18.2355
-16.6587
-15.4384
-13.7879
-11.9923
-10.2862
-8.98888
-8.87758
-9.00595
8.12595
8.12941
8.48658
8.12448
8.14301
8.19634
8.07219
7.92954
7.92451
7.89363
7.82823
7.61335
7.70401
7.62862
7.38949
7.38495
7.52215
7.48678
7.13223
7.42891
7.37912
7.07765
7.0735
7.39238
7.3641
7.06626
7.07323
7.39558
7.45323
7.07785
7.4867
7.49638
7.23864
7.25197
7.56969
7.61733
7.33511
7.65314
7.68626
7.5122
7.51782
7.74033
7.77368
7.63603
7.63984
7.79506
7.85396
7.69731
7.85804
7.75415
7.62563
7.58701
7.688
7.53758
7.4129
7.38476
7.4674
7.51021
7.40461
7.46396
7.74768
7.71849
7.68615
7.74368
8.113
8.10393
7.99308
8.41671
8.23618
8.44924
8.98136
8.0839
6.93728
7.94019
10.219
0.87627
4.36241
9.07643
-13.1771
-9.61131
-7.22947
-7.72424
-5.12154
-7.01519
-9.59688
-5.45548
-5.45582
-4.48074
-4.39722
-3.77133
-1.50348
1.28419
1.8981
-4.18035
-3.12319
0.0477385
3.19347
3.26672
4.70877
6.0807
7.81624
10.2815
8.05764
10.8738
11.9437
14.4768
18.4442
20.9355
22.3217
25.1721
24.6895
27.9544
28.3999
31.2563
32.9326
34.5969
37.3134
41.07
43.7214
39.7812
42.8572
44.6121
49.2762
50.8962
50.8444
50.3604
49.8386
53.2672
47.9267
57.889
53.2743
49.5599
49.5819
49.0971
45.8282
43.6474
41.5569
31.2037
46.118
42.762
36.8063
33.5876
29.2348
24.7607
20.522
18.1147
15.4047
8.09032
14.2291
12.5069
8.11935
7.45616
6.11864
4.06548
-1.4428
-2.17128
-1.3595
-6.53952
1.91828
-1.50801
-6.75696
2.1895
-7.14231
-3.60192
-6.32037
-3.71898
0.272533
-7.72893
-3.65527
-0.505125
-6.72168
-4.54017
-6.60993
-4.78195
-0.883783
-7.2624
-5.07316
-7.13872
-5.22305
-1.50442
-8.60712
-5.10598
-2.22922
-7.6229
-5.72759
-7.38036
-5.85134
-2.42818
-7.7472
-5.82915
-7.45127
-5.77253
-2.66683
-8.3968
-5.33849
-2.94435
-7.28106
-5.51287
-6.85899
-5.28136
-2.2664
-6.73007
-4.9237
-6.19071
-4.61697
-1.49998
-6.67084
-3.8809
-1.2972
-5.34429
-3.73133
-4.73275
-3.43777
-0.335028
-4.49364
-2.80453
-3.81223
-2.42369
0.451387
-4.02693
-1.52025
0.672745
-2.61089
-1.18491
-1.94375
-0.81386
1.4571
-1.55286
-0.224351
-0.946711
0.10669
1.72
-0.976477
0.559539
1.41944
-0.317166
0.396498
-0.194364
0.289204
1.55904
8.36662e-05
0.000166211
0.000283542
0.000382218
0.000499258
0.000615141
0.000742389
0.00087448
0.00101605
0.00116515
0.0013238
0.00149174
0.00167015
0.00185942
0.00206053
0.00227418
0.00250132
0.00274286
0.00299982
0.00327323
0.00356424
0.00387401
0.0042038
0.00455493
0.00492878
0.00532682
0.00575058
0.00620168
0.00668179
0.00719263
0.00773595
0.0083135
0.00892691
0.00957765
0.0102668
0.010995
0.011762
0.0125662
0.0134045
0.0142713
0.0151581
0.0160531
0.0169399
0.0177983
0.018604
0.0193306
0.0199516
0.0204447
0.0207956
0.021002
0.0210749
0.0210363
0.0209122
0.0207217
0.0204636
0.0201023
0.0195569
0.0186824
0.0172455
0.0148825
0.0111465
0.00551865
-0.00220987
-0.0120101
-0.0232322
-0.0344386
-0.0417615
-0.0529339
-0.0621458
-0.170595
-0.29192
-0.38395
-0.429645
-0.507639
-0.436777
-0.6137
-0.377241
-0.736853
-1.22539
0.000245192
0.000488541
0.000829418
0.00112298
0.00146415
0.00180395
0.00217407
0.00255855
0.00296912
0.00340127
0.00386023
0.00434566
0.00486075
0.00540681
0.00598653
0.00660198
0.00725585
0.00795071
0.00868944
0.00947498
0.0103105
0.0111993
0.0121449
0.0131509
0.0142212
0.0153599
0.0165712
0.0178596
0.0192297
0.0206863
0.0222342
0.0238781
0.0256225
0.0274715
0.0294281
0.0314937
0.0336675
0.0359452
0.0383175
0.0407691
0.0432763
0.0458054
0.0483115
0.0507383
0.0530193
0.0550823
0.0568574
0.0582869
0.059339
0.0600175
0.0603671
0.0604658
0.0604051
0.0602584
0.0600456
0.0596921
0.0590026
0.0576097
0.0549022
0.0498976
0.0413473
0.0277315
0.00826667
-0.0173834
-0.0482813
-0.081529
-0.108411
-0.147756
-0.159715
-0.346916
-0.581189
-0.766747
-0.885736
-1.00447
-0.941802
-1.06108
-0.825387
-0.900624
-0.943171
0.00038417
0.000789128
0.00136635
0.00185966
0.00243404
0.00300501
0.00362718
0.00427312
0.00496298
0.00568897
0.00646005
0.00727557
0.00814096
0.00905841
0.0100324
0.0110666
0.0121653
0.013333
0.0145745
0.0158948
0.0172993
0.0187934
0.0203832
0.0220747
0.0238747
0.0257898
0.0278274
0.029995
0.0323004
0.0347516
0.0373569
0.0401244
0.0430616
0.0461755
0.0494711
0.0529512
0.0566142
0.0604531
0.0644527
0.0685869
0.072816
0.0770832
0.0813128
0.0854094
0.0892602
0.0927425
0.095736
0.0981414
0.0999012
0.101018
0.101562
0.101661
0.101462
0.101085
0.100555
0.099739
0.098296
0.0955919
0.0905748
0.0815546
0.0663773
0.0424266
0.00835192
-0.036424
-0.0902532
-0.148075
-0.195718
-0.259064
-0.253122
-0.473711
-0.748216
-0.974459
-1.12236
-1.25664
-1.18754
-1.2828
-1.02479
-1.03388
-0.831552
0.000519148
0.00108564
0.00189341
0.00258614
0.00339021
0.00419005
0.00506043
0.00596408
0.00692858
0.00794348
0.00902109
0.0101607
0.0113697
0.0126514
0.0140119
0.0154563
0.0169908
0.0186215
0.0203552
0.0221988
0.0241598
0.0262459
0.0284654
0.0308269
0.0333396
0.036013
0.0388572
0.0418826
0.0451002
0.0485213
0.0521572
0.0560192
0.0601181
0.0644633
0.0690621
0.0739183
0.0790299
0.0843873
0.0899694
0.0957401
0.101644
0.107603
0.113511
0.119234
0.124617
0.129487
0.133677
0.137046
0.139516
0.14109
0.141869
0.142032
0.141792
0.141318
0.140653
0.139616
0.137737
0.134141
0.127363
0.115031
0.0940868
0.0607792
0.0130922
-0.0500196
-0.126642
-0.209924
-0.281497
-0.37
-0.353637
-0.629687
-0.964877
-1.23986
-1.41934
-1.57702
-1.49029
-1.59047
-1.27324
-1.27558
-1.03503
0.000642852
0.00137225
0.00241134
0.00330531
0.0043406
0.005371
0.00649112
0.00765407
0.00889478
0.0102002
0.011586
0.0130513
0.0146058
0.0162535
0.0180026
0.0198593
0.0218318
0.0239279
0.0261564
0.028526
0.0310465
0.0337279
0.0365806
0.0396158
0.0428453
0.0462814
0.0499369
0.0538254
0.0579609
0.0623579
0.0670311
0.0719949
0.0772634
0.0828487
0.0887603
0.0950033
0.101575
0.108464
0.115643
0.123067
0.130664
0.138334
0.145942
0.153316
0.160254
0.166535
0.17194
0.176289
0.179477
0.181508
0.18251
0.182718
0.182407
0.1818
0.180957
0.179648
0.177276
0.172722
0.164107
0.148354
0.121445
0.0784186
0.0165241
-0.0658684
-0.166694
-0.277259
-0.376051
-0.492725
-0.468457
-0.81162
-1.20992
-1.53761
-1.75186
-1.93107
-1.82973
-1.92207
-1.5544
-1.5293
-1.11411
0.000760374
0.00165385
0.00292108
0.00401695
0.00528239
0.00654311
0.00791195
0.00933331
0.0108489
0.0124435
0.0141358
0.015925
0.017823
0.0198346
0.0219697
0.0242361
0.0266438
0.0292023
0.0319221
0.0348143
0.0378904
0.0411628
0.0446442
0.0483483
0.0522893
0.0564823
0.0609431
0.065688
0.0707342
0.0760995
0.0818017
0.0878587
0.0942874
0.101103
0.108317
0.115936
0.123957
0.132366
0.141132
0.150198
0.159478
0.168852
0.178153
0.187174
0.195666
0.203357
0.209981
0.215313
0.219223
0.221716
0.22295
0.223214
0.222854
0.222151
0.221186
0.21969
0.216945
0.211603
0.201384
0.182504
0.149948
0.0974626
0.021477
-0.0804188
-0.206285
-0.345705
-0.475547
-0.625392
-0.601936
-1.01569
-1.46601
-1.84131
-2.08428
-2.2771
-2.15963
-2.23798
-1.82284
-1.75838
-1.2674
0.000870753
0.00193012
0.00342323
0.00472201
0.00621731
0.00770879
0.00932627
0.0110061
0.0127964
0.0146799
0.0166783
0.0187911
0.021032
0.0234068
0.0259274
0.0286029
0.0314449
0.0344648
0.0376752
0.0410888
0.0447195
0.0485817
0.0526905
0.0570621
0.0617133
0.0666618
0.0719261
0.0775257
0.0834809
0.0898126
0.0965418
0.10369
0.111277
0.11932
0.127835
0.136828
0.146298
0.156227
0.166579
0.17729
0.188258
0.199341
0.210344
0.221022
0.23108
0.240197
0.248052
0.254378
0.259017
0.261973
0.263435
0.263752
0.263341
0.262546
0.261475
0.259825
0.256763
0.250727
0.239043
0.217214
0.179169
0.11727
0.0270401
-0.0949061
-0.246971
-0.417115
-0.582175
-0.769544
-0.760223
-1.24616
-1.74546
-2.16628
-2.43327
-2.63256
-2.49476
-2.55805
-2.09202
-2.00988
-1.45364
0.000975635
0.0022027
0.0039185
0.00542087
0.0071451
0.00886734
0.0107328
0.0126705
0.0147347
0.0169062
0.0192098
0.021645
0.0242274
0.0269642
0.0298686
0.0329513
0.0362259
0.0397053
0.043404
0.0473368
0.0515196
0.0559689
0.0607024
0.0657384
0.0710964
0.0767967
0.0828608
0.0893111
0.0961708
0.103464
0.111216
0.119449
0.128189
0.137455
0.147264
0.157626
0.168539
0.179983
0.191918
0.20427
0.216926
0.229719
0.242428
0.25477
0.266404
0.276955
0.286052
0.293381
0.298755
0.302175
0.303865
0.304234
0.303776
0.302905
0.301765
0.300023
0.296742
0.290161
0.277234
0.25274
0.209499
0.138383
0.0339139
-0.108494
-0.287827
-0.490605
-0.695295
-0.924421
-0.943759
-1.50294
-2.05259
-2.51917
-2.80731
-3.00479
-2.84223
-2.88667
-2.36764
-2.28022
-1.63172
0.00107533
0.00247213
0.00440749
0.0061141
0.00806635
0.0100194
0.0121321
0.0143275
0.0166648
0.0191237
0.0217314
0.024488
0.027411
0.0305084
0.0337953
0.037284
0.0409895
0.0449268
0.049112
0.053562
0.0582948
0.0633291
0.0686848
0.0743827
0.0804448
0.0868941
0.0937549
0.101052
0.108813
0.117065
0.125834
0.13515
0.145037
0.155522
0.166622
0.178349
0.1907
0.203657
0.217174
0.231168
0.245512
0.260021
0.274444
0.28846
0.301683
0.313685
0.324038
0.332381
0.338495
0.342381
0.344293
0.344707
0.344201
0.343266
0.342085
0.340306
0.336899
0.329921
0.315976
0.289119
0.240985
0.160847
0.0421295
-0.1212
-0.328936
-0.566407
-0.81532
-1.09026
-1.15353
-1.78498
-2.38798
-2.90108
-3.20791
-3.39325
-3.20023
-3.22019
-2.64666
-2.52625
-1.84293
0.00117061
0.00273919
0.00489076
0.00680213
0.00898124
0.011165
0.0135242
0.0159766
0.0185862
0.0213315
0.0242423
0.0273191
0.0305812
0.0340378
0.0377057
0.0415986
0.0457333
0.0501264
0.054796
0.059761
0.0650414
0.0706581
0.0766333
0.0829901
0.0897531
0.096948
0.104602
0.112743
0.1214
0.130605
0.140388
0.150781
0.161812
0.173509
0.185895
0.198981
0.212768
0.227234
0.24233
0.257965
0.274
0.29023
0.306376
0.322078
0.336904
0.350371
0.361996
0.371365
0.378226
0.382576
0.384704
0.385154
0.384598
0.383608
0.382421
0.380669
0.37724
0.370035
0.355338
0.326477
0.273824
0.184931
0.0520227
-0.132644
-0.369888
-0.644209
-0.942028
-1.26684
-1.39019
-2.09179
-2.75402
-3.3156
-3.63975
-3.80126
-3.57041
-3.55941
-2.92953
-2.79444
-2.09627
0.00126194
0.00300438
0.00536882
0.00748538
0.00989012
0.0123043
0.0149092
0.0176179
0.0204988
0.0235296
0.0267423
0.0301382
0.033738
0.0375524
0.0415996
0.0458949
0.0504569
0.0553039
0.0604559
0.0659336
0.0717591
0.0779556
0.0845474
0.0915602
0.0990209
0.106958
0.115401
0.124382
0.133932
0.144086
0.154878
0.166342
0.178512
0.191417
0.205084
0.219525
0.234743
0.250715
0.267388
0.284666
0.302395
0.320352
0.338229
0.355632
0.372078
0.38703
0.399943
0.410351
0.417965
0.422777
0.425111
0.425587
0.424973
0.423938
0.422775
0.421115
0.417774
0.410523
0.395363
0.3649
0.308149
0.210817
0.0638188
-0.142581
-0.410423
-0.723866
-1.0753
-1.45416
-1.65439
-2.42264
-3.15321
-3.76661
-4.10825
-4.23308
-3.95578
-3.90589
-3.21659
-3.08223
-2.32114
0.00134981
0.00326818
0.00584213
0.00816422
0.0107932
0.0134375
0.0162871
0.0192514
0.0224025
0.0257177
0.0292311
0.0329446
0.0368807
0.0410512
0.045476
0.0501719
0.0551592
0.0604579
0.0660899
0.0720779
0.078446
0.0852194
0.0924249
0.10009
0.108245
0.116921
0.12615
0.135966
0.146404
0.157503
0.169299
0.18183
0.195133
0.209241
0.224182
0.239975
0.256619
0.274094
0.292343
0.311263
0.33069
0.350381
0.370002
0.389119
0.407204
0.423661
0.437883
0.449344
0.457718
0.462988
0.465516
0.466002
0.465321
0.464247
0.463142
0.46164
0.458503
0.451401
0.436098
0.404488
0.344125
0.238734
0.0778102
-0.150672
-0.450157
-0.805093
-1.21477
-1.65212
-1.94697
-2.77651
-3.58791
-4.25738
-4.61831
-4.69232
-4.35891
-4.25972
-3.50739
-3.33041
-2.55094
0.00143463
0.00353094
0.00631112
0.00883898
0.0116908
0.0145648
0.0176579
0.020877
0.0242972
0.0278956
0.0317083
0.035738
0.0400088
0.0445338
0.0493344
0.0544289
0.0598394
0.0655876
0.0716972
0.0781929
0.0851008
0.0924483
0.100264
0.108579
0.117425
0.126836
0.136846
0.147493
0.158815
0.170853
0.183648
0.197241
0.211671
0.226977
0.243189
0.260326
0.278393
0.297367
0.317191
0.337755
0.358884
0.380317
0.401694
0.422544
0.442289
0.460273
0.475824
0.488355
0.497495
0.503219
0.505926
0.506403
0.505641
0.504532
0.503515
0.502241
0.499427
0.492679
0.477582
0.445334
0.381904
0.268902
0.0942809
-0.156576
-0.488693
-0.887582
-1.35996
-1.86077
-2.26939
-3.15273
-4.06139
-4.79152
-5.17497
-5.18275
-4.78272
-4.62193
-3.80323
-3.61705
-2.8636
0.00151674
0.00379297
0.00677617
0.00950994
0.012583
0.0156862
0.0190218
0.0224947
0.0261827
0.0300631
0.0341736
0.038518
0.0431218
0.0479994
0.0531739
0.058665
0.0644965
0.0706917
0.0772765
0.0842772
0.0917221
0.0996407
0.108064
0.117025
0.126558
0.136699
0.147487
0.15896
0.171162
0.184135
0.197923
0.212572
0.228124
0.244622
0.262098
0.280575
0.30006
0.320531
0.341928
0.364137
0.386973
0.410157
0.433305
0.455906
0.477334
0.49687
0.513775
0.527393
0.537306
0.543477
0.546345
0.546789
0.545929
0.544785
0.543887
0.542911
0.54054
0.534362
0.519848
0.487528
0.421644
0.301553
0.113538
-0.159917
-0.525578
-0.970941
-1.51019
-2.08031
-2.62319
-3.55059
-4.57804
-5.37328
-5.78362
-5.70843
-5.2305
-4.99358
-4.10273
-3.88064
-3.07708
0.00159646
0.00405451
0.00723761
0.0101774
0.0134701
0.0168019
0.0203786
0.0241043
0.0280588
0.0322198
0.0366267
0.0412841
0.0462192
0.0514475
0.0569938
0.0628793
0.0691294
0.0757694
0.0828267
0.0903296
0.0983085
0.106795
0.115822
0.125426
0.135642
0.14651
0.15807
0.170366
0.183442
0.197344
0.21212
0.227819
0.244488
0.262171
0.280906
0.300718
0.321617
0.343581
0.36655
0.390406
0.414954
0.4399
0.464832
0.489206
0.512342
0.533458
0.551742
0.566467
0.577161
0.583771
0.586778
0.587161
0.586179
0.584997
0.584248
0.583638
0.581835
0.576446
0.562922
0.531158
0.463504
0.336924
0.135899
-0.160291
-0.560322
-1.0547
-1.66462
-2.31112
-3.00828
-3.96553
-5.141
-6.00738
-6.45
-6.27361
-5.70574
-5.37598
-4.40674
-4.15895
-3.412
0.00167406
0.00431575
0.00769574
0.0108415
0.0143523
0.0179119
0.0217284
0.0257058
0.0299253
0.0343656
0.0390672
0.0440359
0.0493003
0.0548774
0.0607934
0.067071
0.0737374
0.0808194
0.0883465
0.0963488
0.104859
0.11391
0.123537
0.133779
0.144675
0.156265
0.168594
0.181707
0.195652
0.210478
0.226237
0.24298
0.260759
0.279622
0.299609
0.320751
0.343059
0.366513
0.391053
0.416557
0.442823
0.469541
0.496276
0.522444
0.547315
0.570042
0.589734
0.605587
0.617068
0.624108
0.627228
0.627517
0.626386
0.62516
0.624585
0.624409
0.623296
0.618921
0.60682
0.576308
0.507639
0.375258
0.161696
-0.157267
-0.592394
-1.1383
-1.82231
-2.55361
-3.41987
-4.38936
-5.75122
-6.69879
-7.18041
-6.88271
-6.21209
-5.77073
-4.7149
-4.45045
-3.64703
0.00174978
0.00457686
0.00815085
0.0115025
0.0152296
0.0190164
0.0230712
0.0272991
0.0317821
0.0365001
0.0414946
0.0467729
0.0523647
0.0582885
0.0645718
0.0712392
0.0783194
0.0858408
0.0938348
0.102333
0.111371
0.120983
0.131208
0.142084
0.153655
0.165964
0.179056
0.192981
0.207789
0.223534
0.240269
0.258051
0.276934
0.29697
0.318204
0.340669
0.364381
0.389322
0.415432
0.442587
0.470576
0.499079
0.527633
0.555619
0.582256
0.606627
0.627758
0.644762
0.657039
0.664497
0.667702
0.667857
0.666543
0.665261
0.664886
0.66521
0.664904
0.66177
0.651552
0.623055
0.554206
0.416806
0.191272
-0.150387
-0.621219
-1.22109
-1.98233
-2.80795
-3.84854
-4.82041
-6.41165
-7.45252
-7.98182
-7.5403
-6.75333
-6.17897
-5.02669
-4.69854
-3.84388
0.00182381
0.00483797
0.00860315
0.0121605
0.0161023
0.0201152
0.0244069
0.0288841
0.033629
0.038623
0.0439087
0.0494946
0.0554117
0.06168
0.0683284
0.0753831
0.0828744
0.0908324
0.0992903
0.108282
0.117844
0.128014
0.138831
0.150339
0.16258
0.175602
0.189454
0.204185
0.219852
0.236509
0.254215
0.273029
0.293009
0.314211
0.336685
0.360469
0.385579
0.412004
0.439682
0.46849
0.49821
0.528508
0.558901
0.588733
0.617168
0.643217
0.665822
0.684002
0.697084
0.704947
0.708203
0.708178
0.706641
0.705287
0.705132
0.706021
0.706634
0.704963
0.697115
0.671476
0.603358
0.461819
0.224981
-0.139169
-0.646187
-1.30231
-2.14378
-3.07396
-4.287
-5.27446
-7.13275
-8.27464
-8.86204
-8.25107
-7.33329
-6.60221
-5.34417
-4.96905
-4.16353
0.00189634
0.00509916
0.00905286
0.0128157
0.0169703
0.0212085
0.0257355
0.0304605
0.0354657
0.040734
0.046309
0.0522005
0.0584408
0.0650513
0.0720624
0.0795018
0.0874014
0.0957932
0.104712
0.114194
0.124276
0.135
0.146407
0.158541
0.171449
0.185179
0.199784
0.215318
0.231837
0.249401
0.268071
0.28791
0.30898
0.331342
0.35505
0.380145
0.406649
0.434553
0.463799
0.494261
0.525719
0.557827
0.590078
0.621782
0.65205
0.679818
0.703933
0.723317
0.737214
0.745468
0.748735
0.748479
0.746671
0.745223
0.745307
0.746819
0.748457
0.748464
0.743496
0.721636
0.655246
0.510555
0.263188
-0.123105
-0.666641
-1.38113
-2.30569
-3.3512
-4.73518
-5.77716
-7.92468
-9.17284
-9.82978
-9.01992
-7.9557
-7.04194
-5.66702
-5.25551
-4.38626
0.0019675
0.00536053
0.00950016
0.0134682
0.0178339
0.0222963
0.027057
0.0320282
0.0372919
0.0428329
0.0486951
0.0548901
0.0614513
0.0684017
0.075773
0.0835943
0.0918994
0.100722
0.110098
0.120066
0.130666
0.14194
0.153932
0.166688
0.180258
0.194693
0.210046
0.226376
0.243742
0.262206
0.281833
0.30269
0.324844
0.348359
0.373293
0.399693
0.427585
0.456965
0.487777
0.519896
0.553099
0.587029
0.62116
0.654767
0.686905
0.716433
0.7421
0.762719
0.777441
0.786069
0.789304
0.788757
0.786622
0.785053
0.785391
0.787581
0.790336
0.792221
0.790667
0.773598
0.710018
0.563274
0.306265
-0.101667
-0.681872
-1.45658
-2.46707
-3.63894
-5.19565
-6.34955
-8.78594
-10.1553
-10.8947
-9.852
-8.62411
-7.4985
-5.99384
-5.48564
-4.55834
0.00203743
0.00562213
0.00994518
0.0141181
0.018693
0.0233785
0.0283711
0.0335872
0.0391075
0.0449191
0.0510666
0.0575629
0.0644428
0.0717304
0.0794592
0.0876599
0.0963675
0.105618
0.115448
0.125899
0.137013
0.148833
0.161406
0.17478
0.189006
0.20414
0.220237
0.237357
0.255563
0.274921
0.295499
0.317368
0.340597
0.365257
0.39141
0.419109
0.448383
0.479234
0.511611
0.545389
0.580344
0.616111
0.652145
0.687685
0.721733
0.753067
0.78033
0.802218
0.817777
0.82676
0.829915
0.829009
0.826481
0.824758
0.825361
0.82828
0.832229
0.836172
0.838587
0.827414
0.767814
0.620237
0.35459
-0.0743085
-0.691122
-1.52756
-2.62675
-3.93583
-5.66904
-6.99642
-9.70946
-11.2299
-12.0674
-10.7529
-9.34194
-7.97279
-6.32696
-5.75528
-4.87808
0.00210622
0.00588402
0.0103881
0.0147654
0.0195477
0.0244551
0.0296779
0.0351371
0.0409122
0.0469925
0.053423
0.0602184
0.0674144
0.0750369
0.0831205
0.0916975
0.100805
0.110479
0.120761
0.131691
0.143314
0.155676
0.168826
0.182813
0.197692
0.213519
0.230353
0.248258
0.267298
0.287543
0.309065
0.331938
0.356236
0.382033
0.409398
0.438387
0.469038
0.501356
0.535294
0.570734
0.607449
0.645067
0.683026
0.720534
0.756535
0.789724
0.818632
0.841825
0.858234
0.867552
0.870571
0.869229
0.866236
0.864317
0.865193
0.868884
0.874087
0.880239
0.887195
0.88313
0.828769
0.681704
0.408541
-0.0404686
-0.693607
-1.59278
-2.78326
-4.23952
-6.15378
-7.7182
-10.6863
-12.4059
-13.3596
-11.7287
-10.1125
-8.4649
-6.66321
-5.99175
-5.02193
0.00217397
0.00614623
0.0108289
0.0154102
0.0203981
0.025526
0.0309772
0.0366778
0.0427056
0.0490526
0.0557638
0.0628561
0.0703657
0.0783203
0.0867558
0.0957062
0.10521
0.115305
0.126034
0.13744
0.149569
0.162469
0.17619
0.190786
0.206312
0.222827
0.240394
0.259077
0.278945
0.30007
0.322528
0.346397
0.371756
0.398683
0.427251
0.457524
0.489544
0.523324
0.558823
0.595925
0.634407
0.673891
0.713801
0.753311
0.79131
0.826407
0.857012
0.881553
0.898827
0.908457
0.911279
0.909414
0.90587
0.903707
0.904861
0.909364
0.915856
0.924331
0.936415
0.94078
0.89301
0.747936
0.4685
0.000423156
-0.688527
-1.65078
-2.93456
-4.54596
-6.64607
-8.51443
-11.7041
-13.695
-14.7847
-12.7863
-10.9391
-8.97453
-7.0023
-6.23842
-5.30251
0.00224073
0.00640879
0.0112678
0.0160524
0.021244
0.0265912
0.0322689
0.0382091
0.0444875
0.051099
0.0580888
0.0654752
0.0732959
0.0815799
0.0903645
0.0996851
0.109582
0.120095
0.131268
0.143145
0.155776
0.169209
0.183498
0.198697
0.214865
0.232063
0.250355
0.26981
0.2905
0.312498
0.335886
0.360743
0.387154
0.415202
0.444965
0.476514
0.509897
0.545132
0.582189
0.620956
0.661212
0.702577
0.744462
0.786012
0.826058
0.863119
0.895481
0.921414
0.93957
0.949487
0.952044
0.949557
0.945366
0.942905
0.94434
0.949686
0.957473
0.968336
0.986148
1.00039
0.960655
0.81919
0.534842
0.0489383
-0.675035
-1.69993
-3.07782
-4.84899
-7.13978
-9.37829
-12.7306
-15.1042
-16.3578
-13.9333
-11.8252
-9.50111
-7.34206
-6.49254
-5.45864
0.00230656
0.00667173
0.0117049
0.0166922
0.0220855
0.0276506
0.0335527
0.0397307
0.0462576
0.0531314
0.0603972
0.0680754
0.0762044
0.084815
0.0939456
0.103633
0.11392
0.124847
0.136459
0.148805
0.161933
0.175895
0.190747
0.206544
0.223349
0.241224
0.260236
0.280457
0.30196
0.324825
0.349133
0.374971
0.402426
0.431586
0.462536
0.495352
0.53009
0.566776
0.605387
0.645819
0.687857
0.731119
0.775005
0.818632
0.860777
0.899865
0.934045
0.961421
0.980478
0.990656
0.992872
0.989655
0.984706
0.981882
0.9836
0.989817
0.998872
1.01212
1.03627
1.06196
1.03181
0.895715
0.60793
0.10563
-0.65227
-1.73842
-3.20971
-5.14055
-7.62573
-10.28
-13.7024
-16.6246
-18.095
-15.1788
-12.7747
-10.043
-7.67901
-6.69007
-5.55116
0.0023715
0.00693504
0.0121401
0.0173295
0.0229227
0.028704
0.0348287
0.0412424
0.0480156
0.0551493
0.0626887
0.070656
0.0790906
0.0880247
0.0974982
0.10755
0.118222
0.12956
0.141609
0.154418
0.168039
0.182526
0.197935
0.214326
0.231761
0.250307
0.270034
0.291013
0.313324
0.337047
0.362268
0.389078
0.417568
0.447831
0.479959
0.514033
0.550118
0.588249
0.62841
0.670509
0.714334
0.759508
0.805423
0.851168
0.895465
0.936645
0.972712
1.00159
1.02157
1.03198
1.03377
1.0297
1.02387
1.02061
1.02261
1.02972
1.03998
1.05554
1.08664
1.1255
1.10658
0.977752
0.688094
0.170989
-0.619442
-1.76471
-3.3272
-5.41248
-8.09125
-11.1572
-14.5912
-18.2405
-20.0107
-16.5336
-13.792
-10.5988
-8.01277
-6.90541
-5.76024
0.00243557
0.00719875
0.0125734
0.0179643
0.0237553
0.0297514
0.0360964
0.0427439
0.049761
0.0571524
0.0649627
0.0732165
0.0819537
0.0912083
0.101022
0.111434
0.122489
0.134233
0.146714
0.159982
0.174092
0.189098
0.20506
0.222039
0.2401
0.259312
0.279745
0.301477
0.324587
0.34916
0.375287
0.40306
0.432576
0.463933
0.497229
0.532552
0.569975
0.609544
0.651252
0.695016
0.740636
0.787737
0.835708
0.883612
0.93012
0.973463
1.01149
1.04193
1.06286
1.07347
1.07474
1.06968
1.06283
1.05906
1.06135
1.06937
1.08071
1.09842
1.13708
1.191
1.18503
1.0655
0.775573
0.245339
-0.575985
-1.77756
-3.42819
-5.66172
-8.52823
-11.9531
-15.4513
-19.9356
-22.1083
-18.0092
-14.8821
-11.1666
-8.33896
-7.12832
-5.83093
0.00249878
0.00746286
0.013005
0.0185965
0.0245833
0.0307925
0.0373559
0.044235
0.0514936
0.0591401
0.0672187
0.0757561
0.084793
0.0943651
0.104515
0.115284
0.126718
0.138864
0.151773
0.165497
0.180091
0.195612
0.212122
0.229683
0.248364
0.268234
0.289368
0.311845
0.335747
0.361163
0.388186
0.416913
0.447446
0.479888
0.514341
0.550903
0.589657
0.630655
0.673904
0.719334
0.766754
0.815798
0.865851
0.915958
0.964737
1.01032
1.05039
1.08245
1.10437
1.11515
1.1158
1.1096
1.10156
1.09719
1.09977
1.10873
1.12099
1.14054
1.18739
1.2584
1.26723
1.1591
0.870401
0.328645
-0.521833
-1.77643
-3.51126
-5.8892
-8.94058
-12.6661
-16.3531
-21.6829
-24.3903
-19.6171
-16.0506
-11.7434
-8.65196
-7.27189
-5.86502
0.00256115
0.00772736
0.0134348
0.0192262
0.0254067
0.0318273
0.0386067
0.0457152
0.053213
0.061112
0.0694562
0.0782743
0.0876079
0.0974941
0.107977
0.119099
0.130908
0.143454
0.156786
0.170961
0.186034
0.202065
0.219117
0.237255
0.256549
0.277072
0.2989
0.322114
0.346801
0.373052
0.400963
0.430635
0.462174
0.49569
0.531291
0.569082
0.609155
0.651575
0.69636
0.743453
0.792679
0.84368
0.895844
0.948199
0.999313
1.04721
1.08942
1.12319
1.14611
1.15703
1.15696
1.14943
1.14004
1.13496
1.13786
1.14778
1.16072
1.18167
1.23733
1.32765
1.35315
1.25844
0.972175
0.4202
-0.457803
-1.76185
-3.57633
-6.09678
-9.33698
-13.3222
-17.3696
-23.4457
-26.8644
-21.3692
-17.3034
-12.3267
-8.95008
-7.44653
-5.97328
0.00262266
0.00799226
0.0138628
0.0198531
0.0262254
0.0328556
0.0398488
0.0471844
0.0549188
0.0630676
0.0716746
0.0807705
0.0903975
0.100595
0.111407
0.122879
0.135059
0.147999
0.161751
0.176372
0.191919
0.208455
0.226044
0.244754
0.264655
0.285824
0.308339
0.332283
0.357747
0.384824
0.413613
0.44422
0.476756
0.511335
0.548073
0.587083
0.628465
0.672297
0.718612
0.767366
0.818401
0.871374
0.925676
0.980325
1.03384
1.08415
1.12858
1.16414
1.18812
1.19914
1.19822
1.18918
1.17823
1.17234
1.17559
1.1865
1.19982
1.22155
1.28663
1.39864
1.44261
1.36301
1.07971
0.518207
-0.385997
-1.73587
-3.62533
-6.288
-9.71859
-13.9669
-18.5621
-25.1074
-29.4868
-23.2771
-18.6465
-12.9133
-9.22682
-7.5621
-5.95159
0.00268328
0.00825755
0.014289
0.0204773
0.0270391
0.0338771
0.0410818
0.0486421
0.0566105
0.0650065
0.0738734
0.0832439
0.0931612
0.103666
0.114804
0.126622
0.13917
0.1525
0.166667
0.181729
0.197746
0.214781
0.232901
0.252176
0.272679
0.294487
0.317681
0.342349
0.368581
0.396475
0.426134
0.457666
0.491188
0.526819
0.564683
0.604899
0.64758
0.692815
0.740651
0.791063
0.843911
0.898868
0.955337
1.01233
1.06831
1.12112
1.16789
1.20533
1.23041
1.2415
1.2396
1.22883
1.2161
1.20927
1.21291
1.22488
1.23818
1.25987
1.33496
1.47112
1.53503
1.47146
1.19054
0.619405
-0.309993
-1.70209
-3.66199
-6.46904
-10.0876
-14.6543
-19.9229
-26.6315
-32.1656
-25.3432
-20.0848
-13.5
-9.47878
-7.67055
-6.01156
0.00274301
0.00852322
0.0147132
0.0210986
0.0278479
0.0348917
0.0423055
0.0500881
0.0582878
0.0669282
0.0760519
0.0856939
0.0958982
0.106707
0.118167
0.130327
0.143238
0.156954
0.171532
0.18703
0.203512
0.221041
0.239687
0.259521
0.280618
0.303058
0.326925
0.352308
0.3793
0.408002
0.438521
0.470969
0.505466
0.542138
0.581115
0.622526
0.666494
0.71312
0.762469
0.814535
0.869197
0.926151
0.984813
1.04419
1.10272
1.15813
1.20735
1.24678
1.27302
1.28414
1.2811
1.26838
1.2536
1.2457
1.24982
1.26293
1.27572
1.29627
1.38192
1.54456
1.62912
1.58108
1.30056
0.718993
-0.23459
-1.66518
-3.69116
-6.64674
-10.4529
-15.4232
-21.392
-28.2522
-34.8921
-27.558
-21.6219
-14.0838
-9.7011
-7.76618
-5.94707
0.0028018
0.00878927
0.0151356
0.021717
0.0286515
0.035899
0.0435195
0.051522
0.0599502
0.0688321
0.0782095
0.0881199
0.0986076
0.109717
0.121495
0.133993
0.147263
0.161361
0.176345
0.192275
0.209215
0.227233
0.246399
0.266786
0.288471
0.311537
0.336069
0.362158
0.389902
0.419403
0.450771
0.484124
0.519585
0.557286
0.597365
0.639958
0.685199
0.733206
0.784058
0.837772
0.894249
0.953211
1.01409
1.07591
1.13706
1.19517
1.24696
1.2885
1.31596
1.32708
1.32276
1.3078
1.29069
1.28159
1.28629
1.30067
1.31234
1.33034
1.42694
1.61793
1.72234
1.6873
1.40386
0.811154
-0.164999
-1.62995
-3.71737
-6.82686
-10.8237
-16.2967
-23.0145
-30.2795
-37.8003
-29.9186
-23.259
-14.6608
-9.88851
-7.76509
-5.84495
0.00285961
0.00905568
0.0155559
0.0223323
0.0294497
0.036899
0.0447237
0.0529433
0.0615973
0.0707176
0.0803457
0.0905211
0.101289
0.112695
0.124788
0.13762
0.151245
0.165719
0.181104
0.197461
0.214855
0.233356
0.253035
0.273968
0.296235
0.319919
0.345108
0.371896
0.400383
0.430674
0.462882
0.497128
0.533542
0.57226
0.613426
0.657188
0.70369
0.753064
0.805409
0.860763
0.919055
0.980033
1.04316
1.10746
1.17131
1.23224
1.28674
1.33052
1.35927
1.37035
1.36458
1.34709
1.32732
1.31685
1.32229
1.33815
1.34796
1.36155
1.46914
1.68928
1.81025
1.78342
1.49354
0.890212
-0.105601
-1.59974
-3.74278
-7.0114
-11.2075
-17.288
-24.8915
-32.9927
-41.0636
-32.422
-24.9932
-15.2277
-10.039
-7.76418
-5.81578
0.00291638
0.00932244
0.0159742
0.0229444
0.0302425
0.0378914
0.0459175
0.0543517
0.0632285
0.0725843
0.0824598
0.0928967
0.103941
0.11564
0.128043
0.141205
0.15518
0.170028
0.185808
0.202586
0.220429
0.239407
0.259594
0.281067
0.303908
0.328203
0.354041
0.38152
0.41074
0.441811
0.474848
0.509977
0.547331
0.587053
0.629294
0.674211
0.721959
0.772687
0.826512
0.883497