/*--------------------------------*- C++ -*----------------------------------*\
| =========                 |                                                 |
| \\      /  F ield         | OpenFOAM: The Open Source CFD Toolbox           |
|  \\    /   O peration     | Version:  4.1                                   |
|   \\  /    A nd           | Web:      www.OpenFOAM.org                      |
|    \\/     M anipulation  |                                                 |
\*---------------------------------------------------------------------------*/
FoamFile
{
    version     2.0;
    format      ascii;
    class       surfaceScalarField;
    location    "7";
    object      phi;
}
// * * * * * * * * * * * * * * * * * * * * * * * * * * * * * * * * * * * * * //

dimensions      [0 3 -1 0 0 0 0];

internalField   nonuniform List<scalar> 
13220
(
-800.015
2099.92
-1240.73
1740.92
-1694.28
1753.44
-2022.47
1628.09
-2288.26
1565.99
-2473.7
1485.35
-2587.49
1413.69
-2628.79
1341.5
-2601.91
1273.02
-2504.97
1202.96
-2333.81
1129.04
-2079.73
1045.82
-1690.41
910.581
-1032.92
642.709
266.979
-169.571
2269.49
-377.803
1949.15
-606.131
1981.77
-767.831
1789.79
-916.379
1714.54
-1014.55
1583.52
-1081.17
1480.31
-1109.76
1370.09
-1106.34
1269.6
-1073.3
1169.93
-1013
1068.73
-915.983
948.808
-752.593
747.191
-466.167
356.284
-199.188
-115.123
2384.61
-274.65
2108.68
-380.638
2087.76
-443.169
1852.32
-495.328
1766.7
-514.889
1603.08
-521.586
1487.01
-493.912
1342.42
-399.251
1174.94
-207.507
978.186
43.3963
817.834
270.772
721.437
401.393
616.575
344.199
413.487
145.011
-66.3853
2451
-154.493
2196.79
-223.713
2156.98
-300.566
1929.18
-382.271
1848.41
-467.834
1688.64
-565.979
1585.15
-648.284
1424.72
-661.94
1188.6
-535.077
851.324
-270.874
553.632
44.8262
405.738
295.356
366.048
329.55
379.295
474.561
-73.9305
2524.93
-207.007
2329.86
-308.354
2258.33
-420.714
2041.54
-539.82
1967.51
-661.195
1810.02
-797.41
1721.37
-941.349
1568.66
-1097.35
1344.61
-1234.14
988.107
-1283.77
603.27
-1161.83
283.791
-846.668
50.8922
-428.979
-38.3906
45.5828
80.3184
2444.61
-35.2259
2445.41
-64.3947
2287.5
-79.3445
2056.49
-83.2613
1971.43
-77.1397
1803.9
-57.02
1701.25
-43.5747
1555.22
-78.9174
1379.95
-208.531
1117.72
-402.517
797.256
-578.629
459.9
-631.289
103.548
-498.411
-171.272
-452.828
224.572
2220.04
195.524
2474.46
247.222
2235.8
327.469
1976.24
429.719
1869.18
534.53
1699.08
660.934
1574.85
788.048
1428.1
887.518
1280.48
898.686
1106.55
792.724
903.218
579.128
673.5
284.624
398.059
39.3286
74.0304
-413.5
204.64
2015.4
222.485
2456.61
272.47
2185.82
343.231
1905.48
430.129
1782.28
512.925
1616.29
601.618
1486.15
687.798
1341.92
762.672
1205.6
801.389
1067.83
783.41
921.197
695.16
761.745
527.67
565.542
282.834
318.857
-130.666
130.483
1884.92
171.417
2415.68
207.907
2149.33
256.31
1857.08
318.635
1719.96
372.295
1562.63
422.579
1435.87
462.881
1301.62
494.085
1174.4
511.775
1050.14
507.54
925.432
468.648
800.641
374.946
659.247
208.838
484.973
78.1716
70.7524
1814.16
141.869
2344.56
201.216
2089.98
265.658
1792.64
338.75
1646.87
402.479
1498.9
461.095
1377.25
513.88
1248.84
563.052
1125.23
607.088
1006.11
629.095
903.425
599.065
830.667
483.624
774.684
272.033
696.555
350.205
-17.8802
1832.04
80.9791
2245.7
172.674
1998.28
249.382
1715.93
339.608
1556.64
452.589
1385.92
587.739
1242.1
741.193
1095.38
893.807
972.614
1011.32
888.594
1043.88
870.866
952.014
922.53
721.339
1005.36
397.644
1020.25
747.848
-142.296
1974.34
-87.7233
2191.13
-35.5042
1946.06
-49.5413
1729.96
-40.9223
1548.02
24.1802
1320.81
149.776
1116.5
322.783
922.372
520.707
774.687
700.211
709.088
798.87
772.206
760.17
961.226
568.893
1196.63
284.234
1304.91
1032.08
-95.4475
2069.79
-309.514
2405.19
-499.271
2135.82
-677.33
1908.02
-838.864
1709.55
-985.441
1467.39
-1106.58
1237.64
-1191.14
1006.93
-1217.76
801.31
-1156.93
648.253
-979.359
594.635
-688.977
670.844
-361.722
869.376
-122.609
1065.79
909.473
478.724
1591.06
467.246
2416.67
169.93
2433.13
-182.927
2260.88
-522.433
2049.05
-844.672
1789.63
-1133.79
1526.75
-1402.5
1275.65
-1644.36
1043.17
-1826.31
830.199
-1874.16
642.481
-1702.3
498.982
-1273.44
440.517
-659.972
452.328
249.501
1001.95
2121.31
2701.62
2929.43
2956.22
2823.31
2542.95
2246.76
1933.12
1585.11
1182.91
769.639
422.556
197.259
9.07615e-06
237.918
-237.918
237.918
237.918
237.918
451.448
-213.53
451.448
451.448
451.448
617.109
-165.661
617.109
617.109
745.593
-128.484
745.593
745.593
745.593
837.587
-91.9936
837.587
837.587
892.581
-54.9944
892.581
892.581
892.581
909.761
-17.1805
909.761
909.761
909.761
896.67
13.0918
896.67
896.67
854.906
41.7634
854.906
854.906
854.906
787.188
67.7185
787.188
787.188
705.081
82.1063
705.081
705.081
705.081
621.249
83.8322
621.249
621.249
621.249
547.97
73.2792
547.97
547.97
553.698
-5.72789
553.698
553.698
553.698
589.166
-35.4683
589.166
589.166
589.166
542.152
47.0143
542.152
542.152
379.173
162.979
379.173
379.173
379.173
119.847
259.326
119.847
119.847
-355.899
475.746
-355.899
-355.899
-355.898
-1492.68
1136.78
-1492.68
-1492.68
-1492.68
-3132.09
1639.41
-3132.09
-3132.09
-5122.07
1989.98
-5122.07
-5122.07
-5035.96
-4954.84
-4874.01
-6997.26
2202.45
-6906.03
-6790.75
-6661.55
-6533.13
-6405
-6279.79
-6149.99
-6004.81
-8194.39
2331.54
-8040.22
-7888.45
-7738.53
-7566.83
-7395.16
-7224.21
-7053.68
-6882.29
-9146.56
2448.22
-8950.39
-8754.04
-8557.18
-8360.26
-8156.01
-7937.69
-7718.72
-7497.1
-7272.92
-9640.22
2590.34
-9392.45
-9141.67
-8888.17
-8631.96
-8372.32
-8093.1
-7800.68
-7504.19
-9961.75
2750.08
-9663.53
-9351.14
-9018.18
-8681.73
-8341.29
-7998.83
-7652.91
-7276.68
-9420.13
2503.2
-9062.43
-8706.93
-8352.52
-7979.06
-7597.93
-7218.13
-6836.59
-6456.4
-7902.36
1824.8
-7517.64
-7134.87
-6753.55
-6375.54
-6002.85
-5632.54
-5270.31
-4916.7
-4576.74
-4834.13
588.328
-4548.1
-4288.26
-4037.8
-3800.01
-3573.91
-3394.87
-3290.72
-3183.67
-2937.26
-123.709
-2833.1
-2728.38
-2728.38
-2697.86
-30.5186
-2643.75
-54.1167
-2643.75
-2609.21
-34.5376
-2609.21
-2591.16
-18.0473
-2565.07
-26.0911
-2565.07
-2551.51
-13.5645
-2527.86
-23.6432
-2527.86
-2508.64
-19.2231
-2508.64
-2497.55
-11.0948
-2473.45
-24.0992
-2473.45
-2452.51
-20.94
-2452.51
-2437.98
-14.5269
-2406.98
-30.9983
-2406.98
-2383.79
-23.1957
-2347.6
-36.1865
-2347.6
-2314.22
-33.3766
-2314.22
-2286.51
-27.7104
-2248.05
-38.4594
-2248.05
-2214.77
-33.2868
-2214.77
-2192.3
-22.4604
-2163.53
-28.7758
-2163.53
-2150.5
-13.0254
-2134.53
-15.9742
-2134.53
-2128.75
-5.77912
-2128.75
-2136.3
7.55162
-2133.23
-3.0718
-2133.23
-2137.13
3.8992
-2137.13
-2149.75
12.618
-2141.87
-7.87645
-2141.87
-2142.09
0.215836
-2123.41
-18.6732
-2123.41
-2105.3
-18.1123
-2105.3
-2089.81
-15.4925
-2058.13
-31.6751
-2058.13
-2029.11
-29.0284
-2029.11
-2004.76
-24.3425
-1962.81
-41.9551
-1962.81
-1921.74
-41.0658
-1863.53
-58.2115
-1863.53
-1797.04
-66.4888
-1797.04
-1722.92
-74.1246
-1636.11
-86.8029
-1636.11
-1540.83
-95.2813
-1540.83
-1437.01
-103.82
-1323.89
-113.127
-1323.89
-1198.13
-125.76
-1069.43
-128.696
-1069.43
-929.844
-139.587
-929.844
-150.039
-10.6631
-52.7275
-10.5779
-70.2314
-10.6109
-82.1134
-10.6643
-93.4404
-10.771
-104.669
-10.909
-115.387
-11.0876
-126.047
-11.3005
-136.521
-11.5506
-146.984
-11.8357
-157.424
-12.1567
-167.923
-12.513
-178.502
-12.9049
-189.208
-13.3322
-200.071
-13.7951
-211.124
-14.2938
-222.398
-14.8287
-233.92
-15.4001
-245.719
-16.0086
-257.82
-16.6548
-270.249
-17.3393
-283.03
-18.063
-296.189
-18.8269
-309.749
-19.6319
-323.732
-20.4791
-338.163
-21.3699
-353.065
-22.3054
-368.461
-23.2872
-384.373
-24.3166
-400.824
-25.3951
-417.838
-26.5245
-435.437
-27.7061
-453.644
-28.9416
-472.479
-30.2325
-491.964
-31.5799
-512.117
-32.985
-532.955
-34.4483
-554.488
-35.9698
-576.723
-37.5488
-599.657
-39.1832
-623.278
-40.8699
-647.556
-42.6035
-672.447
-44.3767
-697.881
-46.1796
-723.764
-47.9989
-749.972
-49.8186
-776.353
-51.6189
-802.725
-53.377
-828.886
-55.0671
-854.622
-56.6604
-879.725
-58.1258
-904.002
-59.4287
-927.294
-60.5304
-949.47
-61.3857
-970.424
-61.9387
-990.043
-62.1174
-1008.16
-61.8261
-1024.51
-60.933
-1038.61
-59.2568
-1049.67
-56.5502
-1056.35
-52.4941
-1056.57
-46.6994
-1047.11
-38.7535
-1023.77
-28.2633
-980.501
-15.0312
-909.981
0.827926
-800.811
17.8894
-639.511
37.7231
-387.038
52.6705
123.229
56.696
519.578
57.0869
854.367
56.0614
1183.48
50.5734
1466.87
49.2196
1823.36
39.9374
1992.76
50.269
2449.8
41.0615
2295.68
76.0701
3134.08
3579.51
-11.9621
-52.9137
-11.8284
-70.3652
-11.8455
-82.0963
-11.8904
-93.3955
-11.9989
-104.561
-12.1443
-115.242
-12.3361
-125.855
-12.5668
-136.291
-12.8389
-146.712
-13.1501
-157.113
-13.501
-167.572
-13.8908
-178.112
-14.3197
-188.779
-14.7873
-199.603
-15.2939
-210.618
-15.8395
-221.852
-16.4245
-233.335
-17.0493
-245.094
-17.7142
-257.155
-18.4201
-269.543
-19.1675
-282.283
-19.9573
-295.399
-20.7904
-308.915
-21.668
-322.855
-22.5911
-337.24
-23.5611
-352.095
-24.5793
-367.442
-25.647
-383.305
-26.766
-399.705
-27.9376
-416.666
-29.1635
-434.211
-30.4453
-452.362
-31.7844
-471.14
-33.1822
-490.566
-34.6399
-510.66
-36.1581
-531.437
-37.737
-552.909
-39.376
-575.084
-41.0735
-597.96
-42.8263
-621.525
-44.6296
-645.753
-46.4763
-670.6
-48.3568
-696
-50.2583
-721.862
-52.165
-748.066
-54.0576
-774.461
-55.9138
-800.869
-57.7083
-827.091
-59.4139
-852.917
-61.0013
-878.137
-62.4397
-902.564
-63.6954
-926.038
-64.7301
-948.435
-65.4978
-969.656
-65.9393
-989.601
-65.976
-1008.13
-65.4997
-1024.99
-64.3588
-1039.76
-62.3417
-1051.69
-59.1584
-1059.53
-54.4399
-1061.29
-47.7488
-1053.8
-38.6382
-1032.88
-26.7066
-992.432
-11.7862
-924.902
5.92614
-818.523
24.8886
-658.474
47.1298
-409.279
64.1315
106.227
62.5499
521.16
60.1149
856.802
57.783
1185.81
51.5589
1473.09
49.4453
1825.47
40.0287
2002.18
49.5542
2440.27
40.402
2304.83
74.7576
3099.72
3514.68
-12.6654
-53.1262
-12.5146
-70.5159
-12.5219
-82.089
-12.5633
-93.3541
-12.6727
-104.452
-12.8226
-115.092
-13.0219
-125.656
-13.2625
-136.05
-13.5471
-146.427
-13.8728
-156.787
-14.2403
-167.205
-14.6486
-177.704
-15.0979
-188.33
-15.5878
-199.113
-16.1184
-210.087
-16.6899
-221.28
-17.3024
-232.722
-17.9564
-244.44
-18.6523
-256.459
-19.3908
-268.804
-20.1726
-281.501
-20.9985
-294.573
-21.8695
-308.044
-22.7867
-321.937
-23.7512
-336.276
-24.7644
-351.082
-25.8276
-366.379
-26.9422
-382.19
-28.1099
-398.537
-29.3321
-415.444
-30.6106
-432.933
-31.9468
-451.026
-33.3422
-469.744
-34.7981
-489.11
-36.3155
-509.142
-37.895
-529.857
-39.5365
-551.268
-41.2389
-573.382
-43.0002
-596.199
-44.8164
-619.709
-46.682
-643.887
-48.5887
-668.693
-50.5255
-694.063
-52.4784
-719.909
-54.4298
-746.114
-56.359
-772.531
-58.2422
-798.986
-60.0535
-825.28
-61.765
-851.205
-63.3477
-876.555
-64.7714
-901.14
-66.0033
-924.806
-67.0055
-947.433
-67.7316
-968.93
-68.1206
-989.212
-68.0898
-1008.16
-67.5241
-1025.55
-66.2606
-1041.02
-64.07
-1053.88
-60.6379
-1062.96
-55.5665
-1066.36
-48.393
-1060.97
-38.651
-1042.62
-25.9334
-1005.15
-10.0786
-940.756
8.68505
-837.287
28.8571
-678.646
51.3761
-431.798
73.5536
84.0496
71.5956
523.118
65.4639
862.933
60.8216
1190.45
53.2407
1480.67
50.0483
1828.66
40.0325
2012.19
48.6397
2431.67
38.9214
2314.55
73.6614
3064.98
3459.65
-13.4811
-53.3624
-13.3155
-70.6816
-13.3147
-82.0898
-13.3538
-93.3149
-13.4658
-104.34
-13.6221
-114.936
-13.8311
-125.447
-14.0844
-135.797
-14.3843
-146.127
-14.7279
-156.444
-15.1157
-166.817
-15.5465
-177.273
-16.0206
-187.856
-16.5374
-198.596
-17.0971
-209.527
-17.6996
-220.678
-18.3454
-232.077
-19.0346
-243.751
-19.7678
-255.726
-20.5456
-268.027
-21.3687
-280.678
-22.2381
-293.704
-23.1546
-307.128
-24.1194
-320.973
-25.1337
-335.261
-26.1988
-350.017
-27.3161
-365.262
-28.4871
-381.019
-29.7134
-397.311
-30.9965
-414.161
-32.3382
-431.591
-33.7399
-449.624
-35.2031
-468.281
-36.729
-487.584
-38.3186
-507.553
-39.9721
-528.204
-41.6893
-549.551
-43.4687
-571.602
-45.3075
-594.36
-47.2013
-617.815
-49.1433
-641.945
-51.1242
-666.712
-53.1315
-692.056
-55.1493
-717.892
-57.1583
-744.105
-59.1359
-770.554
-61.0566
-797.065
-62.8931
-823.443
-64.6168
-849.481
-66.1989
-874.972
-67.6094
-899.73
-68.8166
-923.599
-69.7834
-946.466
-70.4631
-968.25
-70.7933
-988.882
-70.6875
-1008.26
-70.0237
-1026.22
-68.6273
-1042.42
-66.2501
-1056.26
-62.5498
-1066.67
-57.0949
-1071.81
-49.3892
-1068.68
-38.9379
-1053.07
-25.3159
-1018.77
-8.35245
-957.72
11.6992
-857.338
33.3814
-700.328
56.4116
-454.829
85.1291
55.3321
83.2575
524.99
73.5212
872.67
65.4357
1198.54
55.7901
1490.32
51.0289
1833.43
40.2111
2023.01
47.5233
2424.36
37.2147
2324.86
69.0578
3033.14
3402.94
-14.2553
-53.6144
-14.0814
-70.8555
-14.0745
-82.0967
-14.113
-93.2764
-14.2284
-104.224
-14.3916
-114.773
-14.6106
-125.228
-14.8767
-135.531
-15.192
-145.812
-15.5533
-156.083
-15.9612
-166.409
-16.4143
-176.82
-16.9126
-187.358
-17.4558
-198.053
-18.0439
-208.939
-18.6769
-220.045
-19.355
-231.399
-20.0785
-243.027
-20.848
-254.956
-21.6641
-267.21
-22.5275
-279.815
-23.4391
-292.792
-24.3998
-306.167
-25.4109
-319.962
-26.4735
-334.199
-27.589
-348.901
-28.7588
-364.092
-29.9845
-379.793
-31.2677
-396.028
-32.61
-412.819
-34.013
-430.188
-35.4783
-448.159
-37.0073
-466.752
-38.6012
-485.991
-40.2608
-505.893
-41.9862
-526.478
-43.7769
-547.76
-45.6311
-569.748
-47.5454
-592.445
-49.5148
-615.845
-51.5314
-639.929
-53.5847
-664.659
-55.6609
-689.98
-57.7424
-715.81
-59.8081
-742.04
-61.8335
-768.528
-63.7916
-795.107
-65.6537
-821.581
-67.3907
-847.744
-68.9737
-873.389
-70.3737
-898.33
-71.5597
-922.413
-72.4959
-945.53
-73.1357
-967.61
-73.4157
-988.602
-73.2463
-1008.43
-72.4997
-1026.96
-70.9907
-1043.92
-68.4534
-1058.8
-64.5188
-1070.6
-58.7215
-1077.61
-50.5319
-1076.87
-39.4243
-1064.18
-24.9496
-1033.25
-6.91394
-975.755
14.4213
-878.674
37.7103
-723.617
62.2627
-479.381
95.8211
21.7736
96.4402
524.371
84.5347
884.575
72.179
1210.89
59.4548
1503.04
52.61
1840.27
40.6118
2035.01
46.408
2418.56
35.154
2336.11
66.3995
3001.89
3356.22
-15.0235
-53.8771
-14.8455
-71.0335
-14.8346
-82.1076
-14.874
-93.237
-14.9938
-104.104
-15.165
-114.601
-15.3948
-124.998
-15.6745
-135.251
-16.0058
-145.481
-16.3856
-155.703
-16.8141
-165.981
-17.2901
-176.344
-17.8135
-186.834
-18.3837
-197.483
-19.0009
-208.322
-19.665
-219.381
-20.3761
-230.688
-21.1347
-242.268
-21.9412
-254.15
-22.7963
-266.355
-23.7006
-278.91
-24.6552
-291.838
-25.6609
-305.161
-26.7191
-318.904
-27.8308
-333.087
-28.9976
-347.735
-30.2209
-362.869
-31.5022
-378.512
-32.8433
-394.687
-34.2456
-411.416
-35.711
-428.723
-37.241
-446.629
-38.8369
-465.156
-40.5
-484.327
-42.2308
-504.162
-44.0296
-524.679
-45.8953
-545.894
-47.8258
-567.817
-49.8174
-590.454
-51.8641
-613.799
-53.9573
-637.835
-56.0853
-662.531
-58.2328
-687.832
-60.3806
-713.662
-62.5057
-739.915
-64.5818
-766.452
-66.5801
-793.109
-68.4707
-819.691
-70.2238
-845.991
-71.8106
-871.803
-73.2028
-896.938
-74.3709
-921.245
-75.2801
-944.621
-75.8846
-967.006
-76.1203
-988.366
-75.8953
-1008.66
-75.077
-1027.78
-73.4706
-1045.53
-70.7936
-1061.47
-66.65
-1074.74
-60.5394
-1083.72
-51.8965
-1085.51
-40.1602
-1075.92
-24.8495
-1048.56
-5.73403
-994.871
16.9338
-901.341
41.9801
-748.663
68.7931
-506.194
104.849
-14.2821
110.2
519.019
98.1554
896.62
81.4478
1227.6
64.5226
1519.97
54.9396
1849.85
41.3563
2048.59
45.3427
2414.57
32.8042
2348.65
60.5764
2974.12
3312.97
-15.7793
-54.1458
-15.6011
-71.2117
-15.5879
-82.1208
-15.6298
-93.195
-15.755
-103.979
-15.9349
-114.422
-16.1763
-124.757
-16.4702
-134.957
-16.8181
-145.133
-17.2169
-155.304
-17.6666
-165.531
-18.166
-175.844
-18.7148
-186.286
-19.3125
-196.885
-19.9591
-207.676
-20.6546
-218.685
-21.3992
-229.943
-22.1932
-241.474
-23.037
-253.306
-23.9314
-265.461
-24.8771
-277.965
-25.8749
-290.84
-26.9261
-304.11
-28.0316
-317.798
-29.1929
-331.926
-30.4113
-346.516
-31.6883
-361.592
-33.0257
-377.175
-34.4249
-393.288
-35.8878
-409.953
-37.4159
-427.195
-39.011
-445.034
-40.6743
-463.493
-42.4071
-482.595
-44.2098
-502.36
-46.0824
-522.807
-48.0239
-543.953
-50.0316
-565.81
-52.1013
-588.384
-54.2264
-611.674
-56.3975
-635.664
-58.6016
-660.327
-60.822
-685.612
-63.0378
-711.446
-65.2243
-737.728
-67.3532
-764.323
-69.3941
-791.068
-71.3155
-817.769
-73.0871
-844.22
-74.6801
-870.21
-76.0673
-895.55
-77.2205
-920.092
-78.1066
-943.735
-78.6808
-966.432
-78.8789
-988.168
-78.6075
-1008.93
-77.7299
-1028.66
-76.0436
-1047.22
-73.2498
-1064.27
-68.9261
-1079.07
-62.5356
-1090.11
-53.4755
-1094.57
-41.1457
-1088.25
-25.0262
-1064.68
-4.83868
-1015.06
19.1909
-925.371
46.0983
-775.57
75.2283
-535.324
113.91
-52.9635
124.251
508.678
113.745
907.126
93.4248
1247.92
71.3473
1542.04
58.1605
1863.04
42.5367
2064.21
44.3834
2412.73
30.382
2362.65
55.23
2949.27
3272.92
-16.5256
-54.4169
-16.3499
-71.3874
-16.3364
-82.1344
-16.3822
-93.1492
-16.5139
-103.847
-16.7034
-114.232
-16.957
-124.503
-17.2657
-134.648
-17.6309
-144.768
-18.0493
-154.886
-18.5207
-165.06
-19.0439
-175.321
-19.6186
-185.711
-20.2443
-196.259
-20.9208
-206.999
-21.6482
-217.958
-22.4267
-229.164
-23.2565
-240.645
-24.1382
-252.424
-25.0723
-264.527
-26.0598
-276.977
-27.1014
-289.798
-28.1983
-303.013
-29.3518
-316.645
-30.563
-330.715
-31.8335
-345.246
-33.1649
-360.26
-34.5587
-375.781
-36.0167
-391.83
-37.5406
-408.43
-39.1322
-425.603
-40.793
-443.373
-42.5244
-461.762
-44.3275
-480.792
-46.2029
-500.484
-48.1502
-520.859
-50.1683
-541.935
-52.2542
-563.724
-54.4033
-586.235
-56.6082
-609.469
-58.8587
-633.414
-61.1406
-658.045
-63.4359
-683.317
-65.722
-709.16
-67.9722
-735.478
-70.1565
-762.139
-72.2424
-788.982
-74.1973
-815.814
-75.99
-842.427
-77.592
-868.608
-78.977
-894.165
-80.1187
-918.95
-80.9857
-942.868
-81.5348
-965.883
-81.7022
-988.001
-81.3937
-1009.24
-80.4701
-1029.58
-78.7218
-1048.97
-75.8356
-1067.15
-71.362
-1083.54
-64.7268
-1096.75
-55.2871
-1104.01
-42.4001
-1101.13
-25.5001
-1081.58
-4.25073
-1036.31
21.1677
-950.789
50.0236
-804.426
81.524
-566.824
123.074
-94.5131
138.46
493.291
130.581
915.005
107.991
1270.51
80.2934
1569.74
62.4512
1880.88
44.2083
2082.46
43.6091
2413.33
27.9198
2378.34
52.9325
2924.26
3239.05
-17.2627
-54.6873
-17.0922
-71.5579
-17.08
-82.1466
-17.1311
-93.0981
-17.2702
-103.708
-17.4702
-114.032
-17.7368
-124.237
-18.0611
-134.324
-18.4441
-144.385
-18.8826
-154.447
-19.3763
-164.566
-19.9238
-174.774
-20.5249
-185.11
-21.179
-195.605
-21.886
-206.292
-22.6458
-217.198
-23.4586
-228.352
-24.3247
-239.779
-25.2446
-251.504
-26.2189
-263.552
-27.2486
-275.948
-28.3345
-288.713
-29.4777
-301.87
-30.6794
-315.443
-31.9411
-329.453
-33.2642
-343.923
-34.6504
-358.874
-36.1012
-374.33
-37.6185
-390.312
-39.2041
-406.844
-40.8596
-423.947
-42.5867
-441.646
-44.3869
-459.961
-46.2611
-478.917
-48.2099
-498.535
-50.2329
-518.836
-52.3285
-539.839
-54.4938
-561.559
-56.7234
-584.005
-59.0095
-607.183
-61.3409
-631.082
-63.7025
-655.683
-66.0747
-680.944
-68.4334
-706.802
-70.7499
-733.161
-72.9921
-759.897
-75.1258
-786.848
-77.1169
-813.823
-78.9334
-840.61
-80.547
-866.994
-81.9328
-892.78
-83.0662
-917.816
-83.9182
-942.016
-84.4474
-965.354
-84.5913
-987.857
-84.2555
-1009.57
-83.2992
-1030.54
-81.5081
-1050.76
-78.5551
-1070.11
-73.9638
-1088.13
-67.1209
-1103.59
-57.3417
-1113.79
-43.9367
-1114.54
-26.2884
-1099.23
-3.99358
-1058.6
22.833
-977.616
53.7015
-835.295
87.6153
-600.738
132.268
-139.166
152.748
472.812
148.074
919.679
124.732
1293.85
91.6125
1602.86
68.0342
1904.46
46.4179
2104.07
42.9854
2416.76
25.3298
2395.99
45.7085
2903.88
3210.64
-17.9918
-54.9543
-17.8284
-71.7214
-17.8191
-82.1559
-17.8768
-93.0404
-18.0244
-103.561
-18.2358
-113.821
-18.516
-123.957
-18.8565
-133.984
-19.258
-143.983
-19.7171
-153.988
-20.2337
-164.049
-20.8061
-174.201
-21.4342
-184.482
-22.1172
-194.922
-22.855
-205.554
-23.6477
-216.406
-24.4953
-227.504
-25.3981
-238.876
-26.3567
-250.545
-27.3718
-262.537
-28.4441
-274.875
-29.5747
-287.582
-30.7646
-300.68
-32.0152
-314.192
-33.3279
-328.14
-34.7041
-342.546
-36.1456
-357.433
-37.654
-372.822
-39.2312
-388.735
-40.879
-405.196
-42.5991
-422.227
-44.3932
-439.851
-46.2628
-458.092
-48.2089
-476.971
-50.232
-496.512
-52.3315
-516.737
-54.5058
-537.665
-56.7515
-559.313
-59.063
-581.694
-61.4318
-604.814
-63.8459
-628.668
-66.2891
-653.24
-68.7404
-678.493
-71.1741
-704.368
-73.5595
-730.776
-75.8625
-757.594
-78.0468
-784.664
-80.077
-811.793
-81.9201
-838.767
-83.5482
-865.366
-84.9376
-891.39
-86.0661
-916.688
-86.9073
-941.175
-87.4221
-964.839
-87.5497
-987.729
-87.1966
-1009.93
-86.2219
-1031.52
-84.4077
-1052.57
-81.415
-1073.1
-76.74
-1092.81
-69.7288
-1110.6
-59.6526
-1123.86
-45.7719
-1128.42
-27.4113
-1117.59
-4.09364
-1081.92
24.1535
-1005.86
57.0788
-868.22
93.4619
-637.121
141.405
-187.109
167.153
447.064
165.905
920.927
143.079
1316.68
105.345
1640.59
75.1649
1934.64
49.2212
2130.02
42.4919
2423.49
22.7201
2415.77
39.4852
2887.12
3183.63
-18.7135
-55.2158
-18.5589
-71.876
-18.5542
-82.1606
-18.6197
-92.9748
-18.7767
-103.404
-19.0002
-113.597
-19.2949
-123.662
-19.6523
-133.626
-20.0729
-143.563
-20.5533
-153.508
-21.0932
-163.509
-21.6911
-173.603
-22.3466
-183.826
-23.0591
-194.21
-23.8283
-204.785
-24.6543
-215.58
-25.5371
-226.621
-26.4772
-237.936
-27.475
-249.548
-28.5313
-261.481
-29.6468
-273.76
-30.8226
-286.406
-32.0598
-299.443
-33.3597
-312.892
-34.7239
-326.776
-36.1538
-341.116
-37.6511
-355.935
-39.2177
-371.255
-40.8554
-387.098
-42.566
-403.486
-44.3514
-420.442
-46.2132
-437.99
-48.153
-456.152
-50.1718
-474.952
-52.27
-494.414
-54.447
-514.56
-56.701
-535.411
-59.0284
-556.985
-61.4232
-579.299
-63.8763
-602.361
-66.3749
-626.17
-68.9018
-650.713
-71.4347
-675.96
-73.9459
-701.857
-76.403
-728.319
-78.7697
-755.227
-81.0078
-782.426
-83.08
-809.721
-84.9526
-836.895
-86.5981
-863.721
-87.9941
-889.994
-89.1211
-915.561
-89.9557
-940.34
-90.4616
-964.333
-90.5804
-987.61
-90.2202
-1010.29
-89.2416
-1032.49
-87.4251
-1054.39
-84.4212
-1076.1
-79.6983
-1097.53
-72.5605
-1117.74
-62.2327
-1134.19
-47.9217
-1142.73
-28.8895
-1136.62
-4.5785
-1106.23
25.0934
-1035.54
60.1011
-903.228
99.0086
-676.029
150.372
-238.472
181.71
415.726
183.958
918.678
162.483
1338.15
121.301
1681.78
84.0801
1971.86
52.7032
2161.39
42.1737
2434.02
20.1059
2437.83
37.4022
2869.82
3162.82
-19.4287
-55.47
-19.2843
-72.0204
-19.2855
-82.1595
-19.36
-92.9003
-19.5273
-103.237
-19.764
-113.36
-20.0738
-123.352
-20.4488
-133.251
-20.8891
-143.122
-21.3914
-153.005
-21.9553
-162.946
-22.5792
-172.979
-23.2626
-183.143
-24.005
-193.467
-24.8062
-203.984
-25.666
-214.72
-26.5846
-225.703
-27.5625
-236.958
-28.6
-248.51
-29.6979
-260.383
-30.8571
-272.601
-32.0786
-285.185
-33.3636
-298.158
-34.7134
-311.542
-36.1296
-325.36
-37.6138
-339.632
-39.1676
-354.382
-40.793
-369.63
-42.4917
-385.399
-44.2659
-401.711
-46.1172
-418.591
-48.0475
-436.059
-50.0583
-454.141
-52.1506
-472.86
-54.3249
-492.24
-56.5804
-512.304
-58.9153
-533.076
-61.3257
-554.575
-63.8052
-576.82
-66.3443
-599.822
-68.9294
-623.585
-71.5422
-648.1
-74.1591
-673.343
-76.7507
-699.265
-79.2826
-725.787
-81.7162
-752.794
-84.0111
-780.131
-86.1285
-807.604
-88.0337
-834.989
-89.6994
-862.055
-91.1052
-888.589
-92.2341
-914.432
-93.0664
-939.508
-93.569
-963.83
-93.6865
-987.493
-93.3298
-1010.64
-92.362
-1033.46
-90.5648
-1056.18
-87.5796
-1079.09
-82.8469
-1102.26
-75.6266
-1124.96
-65.0955
-1144.72
-50.4035
-1157.42
-30.7454
-1156.28
-5.47788
-1131.5
25.6142
-1066.63
62.7119
-940.326
104.198
-717.515
159.126
-293.4
196.458
378.393
202.233
912.903
182.54
1357.85
139.114
1725.2
94.926
2016.05
57.0021
2199.32
41.9665
2449.05
17.284
2462.52
29.2791
2857.82
3151.04
-20.138
-55.7153
-20.005
-72.1533
-20.0134
-82.151
-20.0981
-92.8156
-20.2767
-103.058
-20.5272
-113.11
-20.853
-123.026
-21.2462
-132.858
-21.7069
-142.662
-22.2317
-152.48
-22.8201
-162.357
-23.4706
-172.329
-24.1826
-182.431
-24.9555
-192.695
-25.789
-203.15
-26.6832
-213.826
-27.6382
-224.748
-28.6543
-235.942
-29.732
-247.432
-30.8722
-259.243
-32.0756
-271.397
-33.3434
-283.917
-34.6767
-296.825
-36.077
-310.142
-37.5458
-323.891
-39.0848
-338.093
-40.6957
-352.771
-42.3805
-367.945
-44.1411
-383.638
-45.9794
-399.873
-47.8975
-416.673
-49.897
-434.06
-51.9796
-452.059
-54.1464
-470.693
-56.3977
-489.989
-58.7328
-509.969
-61.1498
-530.659
-63.6446
-552.08
-66.2104
-574.254
-68.8373
-597.195
-71.511
-620.911
-74.212
-645.399
-76.9155
-670.64
-79.5905
-696.59
-82.2003
-723.177
-84.7041
-750.29
-87.0594
-777.775
-89.2252
-805.438
-91.1662
-833.048
-92.8552
-860.366
-94.2737
-887.17
-95.4081
-913.298
-96.2423
-938.674
-96.7474
-963.325
-96.8712
-987.369
-96.5285
-1010.99
-95.5868
-1034.4
-93.8312
-1057.94
-90.8961
-1082.02
-86.1937
-1106.97
-78.9377
-1132.21
-68.2549
-1155.41
-53.2352
-1172.44
-33.0028
-1176.51
-6.82333
-1157.68
25.6743
-1099.12
64.8501
-979.501
108.986
-761.651
167.652
-352.065
211.405
334.64
220.773
903.536
203.046
1375.57
158.346
1769.9
107.711
2066.68
62.3327
2244.7
41.9811
2469.4
14.6172
2489.88
26.8554
2845.59
3135.94
-20.842
-55.9504
-20.7214
-72.2739
-20.7384
-82.1341
-20.8342
-92.7198
-21.0251
-102.867
-21.2903
-112.845
-21.6328
-122.684
-22.045
-132.446
-22.5266
-142.18
-23.0746
-151.932
-23.6881
-161.744
-24.3657
-171.651
-25.1068
-181.69
-25.9108
-191.891
-26.7773
-202.284
-27.7064
-212.896
-28.6983
-223.756
-29.7531
-234.887
-30.8717
-246.314
-32.0546
-258.06
-33.3028
-270.149
-34.6174
-282.602
-35.9997
-295.442
-37.4511
-308.691
-38.9731
-322.369
-40.5676
-336.499
-42.2362
-351.102
-43.9811
-366.2
-45.8042
-381.815
-47.7074
-397.97
-49.693
-414.687
-51.7626
-431.99
-53.9179
-449.903
-56.1601
-468.451
-58.4894
-487.659
-60.9054
-507.553
-63.4057
-528.158
-65.9863
-549.5
-68.6401
-571.6
-71.3567
-594.478
-74.121
-618.147
-76.9129
-642.607
-79.7058
-667.847
-82.4673
-693.829
-85.1584
-720.486
-87.7361
-747.712
-90.1553
-775.356
-92.3731
-803.22
-94.353
-831.068
-96.0685
-858.65
-97.5029
-885.736
-98.6462
-912.154
-99.4866
-937.833
-99.9999
-962.812
-100.138
-987.231
-99.8198
-1011.3
-98.9196
-1035.3
-97.2286
-1059.63
-94.3766
-1084.88
-89.7468
-1111.6
-82.5049
-1139.46
-71.7253
-1166.19
-56.4358
-1187.73
-35.6867
-1197.26
-8.64842
-1184.72
25.2283
-1133
66.4503
-1020.72
113.327
-808.528
175.863
-414.601
226.462
284.04
239.585
890.413
223.956
1391.2
178.581
1815.28
122.306
2122.96
68.9656
2298.04
42.3717
2496
11.9797
2520.27
20.2138
2837.35
3131.81
-21.5413
-56.1741
-21.4341
-72.381
-21.4608
-82.1074
-21.5688
-92.6119
-21.7729
-102.663
-22.0536
-112.564
-22.4135
-122.324
-22.8453
-132.014
-23.3487
-141.677
-23.9204
-151.361
-24.5597
-161.104
-25.265
-170.946
-26.0358
-180.919
-26.8714
-191.055
-27.7715
-201.383
-28.7361
-211.932
-29.7653
-222.727
-30.8596
-233.793
-32.0195
-245.154
-33.2457
-256.834
-34.5393
-268.855
-35.9014
-281.24
-37.3332
-294.01
-38.8363
-307.188
-40.4122
-320.793
-42.0628
-334.848
-43.7899
-349.375
-45.5955
-364.394
-47.4818
-379.929
-49.4508
-396.001
-51.5047
-412.633
-53.6452
-429.85
-55.8742
-447.674
-58.1927
-466.133
-60.6012
-485.251
-63.0991
-505.055
-65.6842
-525.573
-68.3521
-546.832
-71.0957
-568.856
-73.9039
-591.67
-76.7613
-615.289
-79.6465
-639.722
-82.532
-664.962
-85.3832
-690.978
-88.1594
-717.71
-90.8147
-745.057
-93.3015
-772.869
-95.575
-800.947
-97.5974
-829.046
-99.3424
-856.905
-100.796
-884.282
-101.952
-910.999
-102.803
-936.982
-103.33
-962.284
-103.49
-987.071
-103.207
-1011.59
-102.364
-1036.15
-100.761
-1061.23
-98.027
-1087.61
-93.5144
-1116.11
-86.3394
-1146.63
-75.5219
-1177
-60.0251
-1203.23
-38.8241
-1218.46
-10.9888
-1212.55
24.2266
-1168.22
67.4435
-1063.94
117.162
-858.247
183.616
-481.055
241.574
226.082
258.646
873.341
245.311
1404.54
199.502
1861.09
138.472
2183.99
77.177
2359.33
43.4118
2529.76
9.69879
2553.99
15.5778
2831.47
3118.36
-22.2366
-56.3856
-22.1436
-72.4741
-22.1811
-82.0698
-22.3022
-92.4908
-22.5203
-102.445
-22.8174
-112.267
-23.1955
-121.946
-23.6477
-131.562
-24.1734
-141.151
-24.7696
-150.765
-25.4352
-160.439
-26.1689
-170.212
-26.97
-180.118
-27.8377
-190.187
-28.772
-200.449
-29.7726
-210.931
-30.8399
-221.659
-31.9741
-232.658
-33.1759
-243.952
-34.4462
-255.564
-35.7857
-267.516
-37.1959
-279.83
-38.6779
-292.528
-40.2333
-305.632
-41.8638
-319.163
-43.5712
-333.141
-45.3575
-347.589
-47.2247
-362.527
-49.175
-377.979
-51.2105
-393.965
-53.3335
-410.51
-55.5459
-427.637
-57.8495
-445.371
-60.2454
-463.737
-62.7343
-482.762
-65.3154
-502.474
-67.9866
-522.902
-70.7435
-544.075
-73.5786
-566.021
-76.4806
-588.768
-79.4334
-612.336
-82.4148
-636.741
-85.396
-661.98
-88.3406
-688.033
-91.2055
-714.845
-93.9425
-742.32
-96.5011
-770.311
-98.8341
-798.614
-100.902
-826.978
-102.68
-855.128
-104.156
-882.807
-105.328
-909.827
-106.194
-936.116
-106.741
-961.737
-106.931
-986.882
-106.694
-1011.82
-105.923
-1036.92
-104.433
-1062.72
-101.853
-1090.19
-97.5051
-1120.46
-90.4529
-1153.68
-79.6604
-1187.8
-64.0241
-1218.86
-42.4431
-1240.04
-13.8823
-1241.11
22.6148
-1204.71
67.759
-1109.08
120.428
-910.916
190.484
-551.11
256.506
160.059
277.863
851.984
267.171
1415.23
220.916
1907.34
155.914
2248.99
87.1694
2428.08
45.5208
2571.41
8.00169
2591.5
16.3702
2823.1
3103.05
-22.9284
-56.584
-22.8502
-72.5523
-22.8996
-82.0204
-23.0348
-92.3557
-23.2679
-102.212
-23.5821
-111.953
-23.9792
-121.549
-24.4525
-131.089
-25.0012
-140.602
-25.6225
-150.143
-26.3151
-159.746
-27.0778
-169.45
-27.9097
-179.286
-28.8103
-189.287
-29.7793
-199.48
-30.8167
-209.894
-31.9225
-220.553
-33.0973
-231.484
-34.3417
-242.708
-35.6565
-254.249
-37.0427
-266.13
-38.5016
-278.371
-40.0344
-290.996
-41.6429
-304.024
-43.3287
-317.477
-45.0936
-331.376
-46.9398
-345.742
-48.8694
-360.598
-50.8845
-375.963
-52.9875
-391.862
-55.1805
-408.317
-57.4657
-425.352
-59.8449
-442.992
-62.3194
-461.262
-64.8898
-480.192
-67.5555
-499.809
-70.3143
-520.143
-73.1618
-541.228
-76.0903
-563.093
-79.0884
-585.77
-82.1392
-609.286
-85.2198
-633.66
-88.2999
-658.9
-91.3416
-684.991
-94.2995
-711.887
-97.1224
-739.497
-99.7571
-767.676
-102.154
-796.217
-104.272
-824.859
-106.086
-853.313
-107.587
-881.305
-108.778
-908.636
-109.664
-935.23
-110.237
-961.165
-110.464
-986.655
-110.283
-1012
-109.601
-1037.6
-108.248
-1064.08
-105.861