/*--------------------------------*- C++ -*----------------------------------*\
| =========                 |                                                 |
| \\      /  F ield         | OpenFOAM: The Open Source CFD Toolbox           |
|  \\    /   O peration     | Version:  4.1                                   |
|   \\  /    A nd           | Web:      www.OpenFOAM.org                      |
|    \\/     M anipulation  |                                                 |
\*---------------------------------------------------------------------------*/
FoamFile
{
    version     2.0;
    format      ascii;
    class       volVectorField;
    location    "7";
    object      U;
}
// * * * * * * * * * * * * * * * * * * * * * * * * * * * * * * * * * * * * * //

dimensions      [0 1 -1 0 0 0 0];

internalField   nonuniform List<vector> 
6785
(
(1.33213e-14 -2.31799 16.5284)
(9.8443e-15 -7.91125 12.982)
(-3.29344e-15 -5.11947 13.7775)
(3.36688e-15 -5.06264 13.2845)
(9.89996e-16 -4.27563 13.1457)
(-1.49938e-16 -3.85652 12.8592)
(2.63049e-15 -3.43521 12.5651)
(7.0469e-16 -3.11955 12.2053)
(-6.50096e-16 -2.86995 11.798)
(1.45585e-15 -2.72504 11.3623)
(1.0227e-17 -2.67588 10.9696)
(-1.71375e-16 -2.73539 10.6703)
(6.53679e-16 -3.23235 10.1961)
(-1.43849e-16 -3.37699 9.32724)
(-1.86397e-17 -0.0889368 7.44511)
(1.82959e-14 -10.2024 26.9583)
(1.23476e-14 -16.373 23.0742)
(-3.5065e-15 -11.1671 23.4648)
(3.67838e-15 -12.104 21.553)
(9.28796e-16 -10.3843 20.6775)
(9.31486e-16 -9.84998 19.3942)
(2.04263e-15 -8.94111 18.2946)
(2.37966e-16 -8.29546 17.1981)
(-4.3312e-17 -7.67863 16.2059)
(6.48236e-16 -7.14305 15.2067)
(-3.35998e-16 -6.56572 14.0697)
(-1.17688e-16 -5.79255 12.6134)
(-2.41425e-17 -4.56673 10.1396)
(-2.81521e-16 -2.28822 5.21033)
(-1.98048e-16 0.620943 -1.23648)
(2.10005e-14 -12.547 27.7754)
(1.18113e-14 -16.62 24.3223)
(-2.5471e-15 -11.6421 24.2565)
(3.81635e-15 -12.8841 21.5624)
(8.44858e-16 -10.6358 20.5234)
(1.27447e-15 -10.2613 18.6529)
(1.43852e-15 -9.08625 17.2501)
(9.93772e-18 -8.3573 15.7173)
(-2.41434e-17 -7.55572 14.3101)
(-7.50028e-17 -7.00221 12.9357)
(-9.17866e-16 -6.64605 11.6871)
(-1.13506e-15 -6.20518 10.2809)
(-1.23935e-15 -5.20775 8.00468)
(-1.09825e-15 -2.75572 4.00675)
(-7.12433e-16 -0.458366 -1.77132)
(2.15081e-14 -13.5267 27.5406)
(9.65989e-15 -16.1706 24.5989)
(-1.44153e-15 -12.0841 24.1447)
(3.02224e-15 -13.0558 21.4019)
(7.21673e-17 -10.7083 20.424)
(1.09536e-15 -10.405 18.5089)
(1.45183e-16 -9.04576 17.2102)
(-6.86485e-16 -8.06242 15.3816)
(2.68184e-16 -6.43806 12.9214)
(7.71289e-16 -4.7346 9.76622)
(1.60441e-15 -3.64088 7.35371)
(2.05849e-15 -3.78929 6.72232)
(-1.27037e-16 -4.3218 6.80084)
(-1.96826e-15 -4.24456 6.13402)
(-4.74121e-16 -3.62779 5.75544)
(2.14384e-14 -14.612 28.8753)
(8.44489e-15 -16.5199 25.9239)
(-5.38317e-16 -12.9665 25.46)
(2.87944e-15 -13.7158 22.9512)
(5.53468e-16 -11.4018 22.072)
(1.41937e-15 -11.2298 20.2936)
(1.80121e-16 -9.80325 19.2223)
(3.76086e-16 -8.85798 17.3532)
(1.4373e-15 -6.71102 14.3556)
(4.94928e-15 -3.88232 9.70333)
(1.11654e-14 -1.01716 5.16455)
(1.32732e-14 0.631113 2.20648)
(9.95893e-15 0.946068 1.07272)
(4.14565e-15 -0.125608 2.00704)
(3.93494e-16 -1.55911 4.28649)
(2.01668e-14 -15.1078 29.2412)
(9.32437e-15 -17.6749 27.6918)
(-1.18818e-15 -13.8177 26.4937)
(2.97467e-15 -14.7642 23.9667)
(5.75877e-16 -12.46 23.1272)
(2.59013e-16 -12.5931 21.2401)
(7.50479e-16 -11.2502 20.2228)
(1.64372e-16 -10.7421 18.533)
(-3.78099e-16 -9.20168 16.2887)
(2.99958e-15 -7.03086 12.5661)
(7.16231e-15 -4.05493 8.03531)
(7.07928e-15 -1.15892 3.46475)
(3.85112e-15 1.76152 -1.06047)
(-5.51164e-15 3.64591 -3.99139)
(-3.96626e-15 2.42457 -4.53317)
(1.83161e-14 -14.4524 27.1008)
(1.17437e-14 -18.2181 28.665)
(-1.17391e-15 -14.3337 26.241)
(2.43529e-15 -14.7734 23.4341)
(1.23184e-15 -12.8952 22.3145)
(-4.68139e-16 -12.7799 20.3566)
(6.81029e-16 -11.7031 19.0209)
(5.7201e-16 -11.1667 17.3548)
(-3.62886e-16 -10.2512 15.6008)
(9.69318e-16 -9.07388 13.3474)
(1.94811e-15 -7.44223 10.595)
(1.97341e-15 -5.3448 7.48186)
(3.39142e-15 -3.07418 3.93094)
(4.72577e-15 0.216831 0.252092)
(-2.38059e-15 1.84709 -5.42833)
(1.8179e-14 -13.286 24.2601)
(1.43648e-14 -17.8335 28.5614)
(9.1273e-16 -14.2516 25.4838)
(1.90992e-15 -13.9807 22.3334)
(2.14887e-15 -12.335 20.9917)
(1.16618e-15 -11.9294 19.0355)
(1.12528e-15 -10.8808 17.5266)
(1.37864e-15 -10.1599 15.8262)
(1.5563e-15 -9.31001 14.1885)
(1.54625e-15 -8.3984 12.4673)
(1.31788e-15 -7.37036 10.5753)
(1.52414e-15 -5.99534 8.4598)
(2.52784e-15 -4.45662 5.83519)
(3.13599e-15 -1.84044 2.54981)
(-2.10883e-15 0.449346 -2.98679)
(1.7807e-14 -12.354 22.2824)
(1.6123e-14 -17.2324 28.1621)
(2.33653e-15 -14.11 24.9869)
(1.82626e-15 -13.3219 21.6541)
(2.7742e-15 -11.7944 20.1549)
(1.88295e-15 -11.2489 18.2715)
(1.94031e-15 -10.2197 16.7585)
(2.22164e-15 -9.43852 15.1248)
(1.86478e-15 -8.59155 13.6016)
(2.3175e-15 -7.75796 12.1191)
(2.32654e-15 -6.93756 10.6101)
(1.09947e-15 -5.92346 9.01644)
(2.06341e-15 -4.82655 7.05669)
(2.6409e-15 -2.92836 4.5205)
(-4.15938e-15 -0.522111 -0.506663)
(1.73939e-14 -11.7958 21.1586)
(1.72528e-14 -16.6062 27.5288)
(3.89967e-15 -13.9916 24.5665)
(9.00039e-16 -12.9096 21.1477)
(2.49155e-15 -11.4941 19.4719)
(2.14196e-15 -10.9167 17.7307)
(6.73844e-16 -10.0321 16.3167)
(1.25114e-15 -9.32212 14.8441)
(1.37953e-15 -8.57466 13.4373)
(1.669e-16 -7.83519 12.0515)
(1.04143e-16 -7.12791 10.6765)
(-3.43506e-16 -6.346 9.39223)
(-1.29078e-15 -5.59027 8.08343)
(9.54698e-16 -4.27784 6.5736)
(-3.37089e-15 -1.86877 2.09006)
(1.63854e-14 -11.56 20.7681)
(1.81951e-14 -15.8533 26.6282)
(2.01194e-15 -13.5169 23.7073)
(-4.37608e-16 -12.3418 20.2799)
(2.56308e-15 -10.9859 18.5937)
(-1.89318e-15 -10.4779 16.9125)
(-2.14374e-15 -9.70697 15.5298)
(6.77075e-16 -9.1362 14.042)
(-2.95508e-15 -8.52483 12.5954)
(-3.40953e-15 -7.97027 11.2445)
(7.35967e-17 -7.53243 10.2535)
(-2.46416e-15 -7.25975 9.85913)
(-4.0067e-15 -7.0614 9.89215)
(-4.73446e-15 -6.38249 9.62817)
(-7.10777e-15 -4.14886 6.25083)
(1.62108e-14 -11.9702 21.4538)
(1.52353e-14 -14.6502 25.1709)
(-1.6341e-15 -12.6263 22.3806)
(8.67806e-16 -11.3599 19.2896)
(3.20684e-15 -9.78455 17.3171)
(-1.9903e-15 -8.83934 15.0772)
(2.48034e-15 -7.70375 13.1628)
(5.7197e-15 -6.98255 11.312)
(4.10602e-16 -6.41537 9.94486)
(1.77326e-15 -6.375 9.34417)
(2.47266e-15 -6.8783 9.90555)
(-3.23867e-15 -7.89791 11.4724)
(-3.64308e-15 -8.72149 13.332)
(-7.02839e-15 -8.85915 13.9501)
(-9.61714e-15 -6.47413 11.0359)
(1.5106e-14 -13.6992 24.3618)
(9.74174e-15 -14.8207 25.5978)
(-3.46363e-15 -12.3304 22.7572)
(3.22058e-15 -11.3785 20.8761)
(6.94357e-15 -9.53966 18.6521)
(8.42839e-15 -7.77288 15.6694)
(1.38281e-14 -5.84014 12.8774)
(1.67221e-14 -4.21686 10.2353)
(1.35923e-14 -2.87734 8.15763)
(8.63426e-15 -2.34547 7.18826)
(1.68194e-15 -2.99999 8.03657)
(-3.88261e-15 -4.97889 10.8154)
(-5.63076e-15 -7.55409 14.3941)
(-8.7123e-15 -9.37335 16.3038)
(-8.91228e-15 -6.95199 12.9436)
(1.33906e-14 -13.4633 23.1661)
(1.14341e-14 -18.3469 29.7199)
(-1.62872e-15 -15.5268 26.3072)
(1.21793e-15 -13.3573 22.89)
(6.90477e-15 -11.2022 20.4846)
(1.10988e-14 -9.36588 17.8476)
(1.43666e-14 -7.33805 15.3246)
(1.64347e-14 -5.43805 12.6259)
(1.46522e-14 -3.45834 9.95484)
(8.97036e-15 -1.66882 7.40779)
(3.67613e-15 -0.243106 5.33682)
(3.50743e-15 0.283242 4.31997)
(9.34708e-15 -0.783268 5.33105)
(8.68988e-15 -3.18799 7.92806)
(-1.2365e-15 -3.50634 7.44712)
(8.87734e-15 -8.18498 13.6246)
(1.53823e-14 -17.5898 26.0883)
(1.14584e-14 -20.9606 29.8702)
(8.35296e-15 -21.3056 29.2771)
(7.56485e-15 -19.932 26.8185)
(1.07134e-14 -17.9507 23.4624)
(1.55979e-14 -15.5794 19.9067)
(1.91604e-14 -13.307 16.8584)
(2.14241e-14 -11.311 14.1782)
(1.97939e-14 -9.47013 11.8298)
(1.84161e-14 -7.6019 9.59313)
(1.7962e-14 -5.63682 7.30773)
(1.77677e-14 -3.6983 4.9694)
(2.17548e-14 -1.78362 2.67426)
(2.76884e-14 0.645236 -1.26857)
(3.26576e-16 4.38212 0.402435)
(1.27971e-15 1.46503 -1.17078)
(5.4554e-16 0.00472558 -1.16645)
(3.11492e-16 0.393215 -1.15377)
(-3.99559e-17 0.398622 -1.05037)
(2.44568e-15 0.514998 -1.42077)
(1.32629e-15 0.52408 -0.980336)
(9.25738e-16 0.641855 -0.945906)
(2.9414e-16 0.664919 -0.879907)
(2.93818e-15 0.839159 -1.15949)
(1.86092e-15 0.775181 -0.809542)
(1.1526e-15 0.85756 -0.74343)
(2.88676e-15 1.05878 -0.967614)
(1.67263e-15 0.907742 -0.666584)
(1.3828e-15 1.02754 -0.638451)
(8.99772e-16 1.01564 -0.592335)
(2.12694e-15 1.2179 -0.750696)
(1.36021e-15 1.06123 -0.505734)
(1.0947e-15 1.12783 -0.450987)
(2.23395e-15 1.3511 -0.544002)
(1.43084e-15 1.10505 -0.35776)
(1.41722e-15 1.22614 -0.327285)
(1.32949e-15 1.17883 -0.295337)
(2.51522e-15 1.41242 -0.334992)
(1.67121e-15 1.14287 -0.215923)
(1.67308e-15 1.25245 -0.18771)
(1.51161e-15 1.20127 -0.162026)
(2.52627e-15 1.39058 -0.140976)
(1.63557e-15 1.15236 -0.059432)
(1.58336e-15 1.19185 -0.0324902)
(2.76232e-15 1.38375 0.0617659)
(2.26644e-15 1.08559 0.076938)
(2.67785e-15 1.17524 0.102648)
(3.01781e-15 1.1113 0.107383)
(5.00803e-15 1.2608 0.230336)
(4.08291e-15 1.01829 0.177165)
(3.98471e-15 1.04206 0.158386)
(5.7683e-15 1.18301 0.290279)
(3.95255e-15 0.90388 0.189506)
(3.7014e-15 0.971332 0.182529)
(3.23008e-15 0.913704 0.155113)
(4.05848e-15 1.03882 0.267295)
(2.17814e-15 0.793138 0.156837)
(1.6254e-15 0.85116 0.146977)
(9.57647e-16 0.805636 0.121411)
(5.1084e-16 0.89491 0.217155)
(-5.21254e-16 0.708612 0.135374)
(-9.65335e-16 0.718303 0.112704)
(-1.65463e-15 0.882511 0.174899)
(-1.72847e-15 0.7117 0.152468)
(-1.67848e-15 0.768445 0.139642)
(-1.54142e-15 0.709512 0.129525)
(-1.00165e-15 0.882422 0.0168199)
(-3.86255e-16 0.756825 0.011986)
(-2.78132e-16 0.810898 0.0316186)
(-1.27539e-16 0.765872 0.0491834)
(-4.57666e-16 0.853035 0.0771077)
(3.85725e-17 0.703398 0.026215)
(2.06934e-17 0.722002 0.0344545)
(3.83395e-16 0.700281 -0.0970748)
(1.56257e-15 0.469333 -0.249682)
(1.82357e-15 0.507256 -0.270151)
(1.15271e-15 0.512029 -0.128821)
(7.35241e-15 0.51551 -1.14035)
(9.3195e-15 0.0626028 -1.46455)
(9.92776e-15 0.176934 -1.37844)
(-7.10097e-16 0.359799 -1.27558)
(-2.03604e-14 -0.512235 1.50565)
(-2.02036e-14 -0.453043 1.33213)
(-2.2267e-14 -0.509598 1.59627)
(-3.6228e-14 -1.0751 3.95165)
(-3.22388e-14 -1.8122 4.66848)
(-3.00399e-14 -2.10805 4.63743)
(-2.84788e-14 -2.18306 4.86133)
(-3.75803e-14 -3.52573 8.04284)
(-2.78731e-14 -4.08406 7.06825)
(-2.73843e-14 -4.21327 7.40791)
(-3.71846e-14 -6.11784 11.0987)
(-2.81389e-14 -6.25993 8.86956)
(-2.91031e-14 -6.74044 9.30273)
(-2.98241e-14 -7.22806 10.2936)
(-2.94966e-14 -7.24793 10.0211)
(-2.9051e-14 -7.32142 10.1434)
(-3.78133e-14 -9.13422 13.2796)
(-2.67792e-14 -8.27615 11.4245)
(-2.42384e-14 -8.57165 11.9643)
(-2.10357e-14 -8.5562 11.9793)
(-1.79419e-14 -8.68059 11.941)
(-1.50272e-14 -8.75921 11.8956)
(-1.25396e-14 -8.85769 11.8579)
(-1.09105e-14 -8.94019 11.9642)
(-1.05201e-14 -9.02255 12.1868)
(-1.94457e-14 -9.95839 14.0735)
(-1.51892e-14 -9.72366 12.8562)
(-1.76727e-14 -9.92408 12.926)
(-2.03288e-14 -9.87411 12.9388)
(-2.31787e-14 -10.0663 13.2524)
(-2.60658e-14 -10.0255 13.1346)
(-2.81752e-14 -10.135 13.1448)
(-2.92948e-14 -10.1591 13.1248)
(-2.94855e-14 -10.2256 13.17)
(-3.65436e-14 -11.0057 14.9549)
(-2.59244e-14 -10.8053 14.0647)
(-2.21382e-14 -10.9275 14.1943)
(-1.85466e-14 -10.9379 14.2458)
(-1.58711e-14 -10.9986 14.3588)
(-1.42206e-14 -11.016 14.5894)
(-1.39416e-14 -11.1041 14.8843)
(-1.50045e-14 -11.097 14.9794)
(-1.7025e-14 -11.1265 15.1646)
(-1.96504e-14 -11.2402 15.3489)
(-3.35921e-14 -11.453 16.6885)
(-2.78028e-14 -11.5294 16.2334)
(-3.09186e-14 -11.5954 16.5908)
(-3.18976e-14 -11.5799 16.8568)
(-3.2681e-14 -11.6352 17.2204)
(-3.26229e-14 -11.6395 17.6653)
(-3.2084e-14 -11.7218 18.3887)
(-3.09664e-14 -11.6987 18.9125)
(-2.98495e-14 -11.9083 19.3138)
(-3.51732e-14 -11.2892 19.9397)
(-2.77055e-14 -11.5994 19.7021)
(-2.84368e-14 -11.6035 20.5075)
(-3.02783e-14 -11.6229 21.1103)
(-3.23979e-14 -11.5849 21.438)
(-3.4522e-14 -11.6373 21.8082)
(-3.57398e-14 -11.6631 22.1158)
(-3.54563e-14 -11.5841 22.4189)
(-3.41621e-14 -11.9491 22.9564)
(-3.01344e-14 -9.6345 20.5276)
(-1.95911e-14 -10.7044 20.9169)
(-1.15398e-14 -10.6411 20.7351)
(-5.4285e-15 -10.6088 20.685)
(-7.71875e-16 -10.5985 20.933)
(2.31554e-15 -10.5445 20.8694)
(3.96645e-15 -10.4502 20.793)
(4.65548e-15 -10.3519 20.7851)
(4.90466e-15 -10.5541 20.6707)
(5.24809e-15 -7.39938 17.3723)
(6.3078e-15 -8.75366 19.4294)
(7.30026e-15 -8.48426 19.1452)
(8.45574e-15 -8.49941 18.958)
(9.50188e-15 -8.34667 18.5567)
(1.03196e-14 -8.30132 18.0173)
(1.1089e-14 -8.14423 17.3318)
(1.05545e-14 -7.99777 16.4414)
(1.00434e-14 -7.75646 15.3761)
(9.19662e-15 -7.74433 14.0327)
(6.11485e-15 -3.84743 6.87693)
(7.63042e-15 -5.79563 10.1084)
(6.79907e-15 -5.3505 8.19123)
(6.22131e-15 -5.45789 7.30848)
(5.44573e-15 -5.10758 5.89127)
(4.54869e-15 -5.01728 4.4493)
(3.30726e-15 -4.77585 2.45016)
(2.35069e-15 -4.3674 0.934663)
(2.43212e-15 -4.51079 1.25133)
(7.78004e-16 -3.47253 -1.25672)
(2.20496e-15 -3.74947 0.841183)
(1.895e-15 -3.80749 0.67989)
(1.08438e-16 -2.47025 -1.34638)
(1.41449e-15 -4.61598 -0.587737)
(8.97784e-16 -3.53089 -0.632727)
(7.81879e-16 -3.30075 -0.398653)
(9.65657e-16 -4.26808 -0.580861)
(6.14854e-16 -3.01929 -0.338142)
(8.71313e-16 -3.91149 -0.477216)
(6.62342e-16 -3.72965 -0.380371)
(5.36774e-16 -3.09647 -0.260788)
(8.09958e-16 -3.75992 -0.383879)
(7.01564e-16 -3.60605 -0.311847)
(5.81529e-16 -3.09972 -0.208927)
(7.81012e-16 -4.14928 -0.30437)
(5.5163e-16 -2.91163 -0.173364)
(7.5125e-16 -3.79614 -0.237908)
(5.43655e-16 -3.46804 -0.210368)
(4.0295e-16 -3.04162 -0.13481)
(4.57293e-16 -4.05495 -0.211232)
(2.48757e-16 -2.83472 -0.121146)
(3.77324e-16 -3.71385 -0.172382)
(3.11277e-16 -3.48997 -0.193918)
(2.75077e-16 -2.90859 -0.13007)
(4.24746e-16 -3.53289 -0.220038)
(4.04651e-16 -3.34933 -0.220823)
(3.02782e-16 -2.87697 -0.148857)
(4.38946e-16 -3.84655 -0.236735)
(3.17083e-16 -2.6834 -0.147923)
(4.12587e-16 -3.49982 -0.218387)
(2.67269e-16 -3.15839 -0.223682)
(1.7917e-16 -2.7644 -0.155565)
(1.51619e-16 -3.67983 -0.24331)
(3.67396e-17 -2.5536 -0.152761)
(-3.54034e-17 -3.3496 -0.214592)
(-1.51285e-16 -3.14292 -0.222054)
(-2.03107e-16 -2.6084 -0.152103)
(-1.75991e-16 -3.18063 -0.227956)
(-3.18869e-17 -3.04395 -0.208196)
(8.81988e-18 -2.6106 -0.134291)
(1.8384e-16 -3.52986 -0.176993)
(2.15516e-16 -2.46317 -0.0864191)
(3.7737e-16 -3.24438 -0.0673356)
(3.77188e-16 -2.9839 -0.0407199)
(3.94303e-16 -2.61478 0.0187286)
(5.18436e-16 -3.53019 0.0555451)
(2.96195e-16 -2.4732 0.0879976)
(3.51214e-16 -3.27908 0.17825)
(1.27546e-16 -3.08773 0.118119)
(-4.31813e-17 -2.58564 0.121543)
(-2.09175e-16 -3.18071 0.152584)
(-3.33776e-16 -3.00232 0.0741615)
(-3.2708e-16 -2.59374 0.0754384)
(-4.89663e-16 -3.49831 0.0570923)
(-3.67509e-16 -2.44138 0.0460695)
(-5.86381e-16 -3.21377 0.0613038)
(-5.03297e-16 -2.87879 -0.00231172)
(-3.94432e-16 -2.52578 0.0223992)
(-4.6503e-16 -3.38059 0.00220459)
(-3.05337e-16 -2.34347 0.0211802)
(-3.4491e-16 -3.09462 0.0343047)
(-1.94576e-16 -2.84565 -0.0369092)
(-1.26648e-16 -2.36912 -0.0224739)
(-1.38818e-16 -2.88776 -0.0962563)
(-9.65809e-17 -2.67587 -0.168495)
(-5.75962e-17 -2.27895 -0.143058)
(-1.41518e-16 -3.04919 -0.276156)
(-1.33864e-16 -2.06717 -0.222104)
(-2.62042e-16 -2.70391 -0.375723)
(-2.71636e-16 -2.34479 -0.403069)
(-2.53579e-16 -2.00586 -0.326289)
(-3.57391e-16 -2.65703 -0.510765)
(-2.71194e-16 -1.74328 -0.386563)
(-3.91295e-16 -2.28919 -0.622327)
(-2.90262e-16 -2.00135 -0.624607)
(-2.38413e-16 -1.57531 -0.519312)
(-3.67659e-16 -1.89638 -0.82198)
(-3.77647e-16 -1.65014 -0.770732)
(-3.16644e-16 -1.29391 -0.625843)
(-4.48415e-16 -1.78427 -0.913046)
(-3.58899e-16 -1.01423 -0.676182)
(-5.56132e-16 -1.24801 -1.05896)
(2.67939e-62 0.0701244 0.07191)
(3.65829e-61 0.0935138 0.0702912)
(1.44361e-60 0.109504 0.0707372)
(9.1278e-61 0.124632 0.0707467)
(-2.51139e-59 0.139669 0.07144)
(-1.52794e-58 0.153997 0.0721737)
(-2.20055e-58 0.168259 0.0732779)
(2.43459e-57 0.182265 0.074557)
(1.70466e-56 0.196259 0.076116)
(2.20515e-56 0.210221 0.0778913)
(-3.16266e-55 0.224262 0.0799172)
(-1.98632e-54 0.238408 0.0821721)
(-9.34846e-55 0.252725 0.0846678)
(4.59572e-53 0.267249 0.0873971)
(2.21815e-52 0.282029 0.0903648)
(-2.18075e-52 0.297102 0.0935696)
(-6.49599e-51 0.312508 0.0970146)
(-2.13767e-50 0.328282 0.100701)
(7.4218e-50 0.34446 0.104634)
(8.25372e-49 0.361076 0.108814)
(1.48281e-48 0.378163 0.113249)
(-1.39869e-47 0.395754 0.117941)
(-8.96912e-47 0.41388 0.122898)
(-2.04464e-47 0.432573 0.128126)
(1.97661e-45 0.451863 0.133632)
(7.95223e-45 0.471783 0.139423)
(-1.37062e-44 0.492363 0.145508)
(-2.22718e-43 0.513632 0.151897)
(-5.32858e-43 0.535623 0.158598)
(2.64377e-42 0.558366 0.165622)
(2.03308e-41 0.58189 0.172979)
(2.1375e-41 0.606226 0.18068)
(-3.12133e-40 0.631403 0.188735)
(-1.50555e-39 0.657448 0.197153)
(3.30254e-40 0.684384 0.205946)
(2.7548e-38 0.712235 0.215119)
(9.02489e-38 0.741013 0.22468)
(-1.40998e-37 0.770728 0.23463)
(-1.92072e-36 0.801373 0.244967)
(-4.40939e-36 0.832931 0.255683)
(1.3431e-35 0.865363 0.26676)
(1.08549e-34 0.898605 0.278171)
(1.83084e-34 0.932563 0.289875)
(-8.13757e-34 0.967107 0.301814)
(-5.06342e-33 1.00207 0.313912)
(-7.19326e-33 1.03724 0.326072)
(3.45984e-32 1.07238 0.338175)
(1.96842e-31 1.10721 0.350077)
(2.98355e-31 1.14144 0.361616)
(-9.86939e-31 1.1748 0.372611)
(-6.26216e-30 1.20701 0.382861)
(-1.23251e-29 1.23787 0.392149)
(1.29259e-29 1.26719 0.400233)
(1.49434e-28 1.29483 0.406838)
(4.20662e-28 1.32063 0.411636)
(3.33436e-28 1.34434 0.414211)
(-1.9537e-27 1.36557 0.414019)
(-9.6063e-27 1.38366 0.410325)
(-2.21278e-26 1.39747 0.402109)
(-1.75905e-26 1.40514 0.387977)
(8.38871e-26 1.40383 0.366021)
(4.50099e-25 1.38915 0.333902)
(1.22332e-24 1.35548 0.288762)
(1.92352e-24 1.29477 0.227967)
(5.44518e-27 1.19747 0.148906)
(-1.08031e-23 1.04877 0.0515938)
(-3.82639e-23 0.832144 -0.0627974)
(-7.07501e-23 0.492974 -0.175504)
(-6.26213e-23 -0.165435 -0.333366)
(-2.38965e-23 -0.684585 -0.362102)
(-6.77286e-23 -1.1262 -0.393535)
(1.24397e-22 -1.56405 -0.367598)
(-4.47144e-22 -1.93797 -0.380363)
(2.00545e-21 -2.4186 -0.293192)
(-1.0267e-20 -2.63768 -0.36463)
(1.23516e-19 -3.26835 -0.165688)
(-1.95697e-18 -3.04371 -0.507776)
(4.02015e-17 -4.21013 -0.0380907)
(-1.12192e-16 -4.84345 -0.968935)
(-5.12224e-63 0.0704567 0.0809279)
(1.33895e-60 0.0937499 0.0786419)
(7.25356e-60 0.109462 0.0790418)
(1.4533e-59 0.12454 0.078911)
(-7.09258e-59 0.139456 0.0796193)
(-6.8683e-58 0.153713 0.0803687)
(-1.92904e-57 0.167884 0.0815519)
(6.16344e-57 0.181815 0.0829299)
(7.51315e-56 0.195728 0.0846251)
(2.07373e-55 0.209613 0.08656)
(-8.69598e-55 0.223576 0.0887735)
(-9.04376e-54 0.237646 0.0912394)
(-1.85994e-53 0.251886 0.0939703)
(1.44455e-52 0.266334 0.0969573)
(1.08572e-51 0.281037 0.100205)
(9.84393e-52 0.296032 0.103712)
(-2.29406e-50 0.31136 0.10748)
(-1.18846e-49 0.327056 0.111512)
(8.08424e-50 0.343154 0.11581)
(3.21967e-48 0.359689 0.120378)
(1.08488e-47 0.376694 0.125221)
(-3.38802e-47 0.394201 0.130344)
(-3.86054e-46 0.412241 0.135752)
(-7.06841e-46 0.430845 0.141452)
(6.04955e-45 0.450046 0.147453)
(3.86116e-44 0.469872 0.153761)
(1.28912e-44 0.490356 0.160386)
(-7.76494e-43 0.511527 0.167336)
(-3.13232e-42 0.533415 0.174623)
(4.38676e-42 0.556053 0.182255)
(7.82861e-41 0.579469 0.190244)
(1.96734e-40 0.603693 0.198601)
(-7.76619e-40 0.628755 0.207335)
(-6.37283e-39 0.654681 0.216456)
(-8.5839e-39 0.681497 0.225972)
(8.04379e-38 0.709225 0.235891)
(4.24123e-37 0.73788 0.246215)
(1.58082e-37 0.76747 0.256943)
(-6.13055e-36 0.797994 0.268068)
(-2.33942e-35 0.829435 0.279576)
(1.01287e-35 0.861757 0.291439)
(3.64918e-34 0.894901 0.30362)
(1.09852e-33 0.928777 0.316062)
(-1.05502e-33 0.963263 0.328693)
(-1.73454e-32 0.998195 0.341416)
(-4.58458e-32 1.03337 0.354115)
(4.52613e-32 1.06856 0.366651)
(6.59641e-31 1.10348 0.378864)
(1.75768e-30 1.13787 0.390579)
(-7.0182e-31 1.17143 0.401606)
(-1.94474e-29 1.20393 0.411745)
(-6.02706e-29 1.23514 0.420784)
(-3.49211e-29 1.26489 0.428486)
(3.94149e-28 1.29306 0.434579)
(1.66745e-27 1.3195 0.43872)
(2.76341e-27 1.34401 0.440465)
(-2.89019e-27 1.36626 0.439207)
(-3.06339e-26 1.38564 0.434112)
(-8.97367e-26 1.40114 0.423992)
(-1.1555e-25 1.41104 0.407217)
(1.68377e-25 1.41265 0.381548)
(1.3343e-24 1.40173 0.344318)
(3.83125e-24 1.37272 0.292342)
(6.30922e-24 1.31751 0.222864)
(2.38658e-24 1.22616 0.133285)
(-2.22483e-23 1.0832 0.0240563)
(-8.50165e-23 0.869558 -0.103461)
(-1.60056e-22 0.537182 -0.226846)
(-1.27703e-22 -0.154751 -0.421397)
(-3.0183e-23 -0.703098 -0.413053)
(-6.70338e-23 -1.15347 -0.419491)
(1.22765e-22 -1.59255 -0.382061)
(-4.46063e-22 -1.97255 -0.389271)
(2.0111e-21 -2.44425 -0.296829)
(-1.04591e-20 -2.67361 -0.365312)
(1.27735e-19 -3.2696 -0.164992)
(-2.02672e-18 -3.07528 -0.499902)
(4.03217e-17 -4.16227 -0.0367006)
(-1.08709e-16 -4.73363 -0.956842)
(-3.7176e-61 0.0706632 0.085765)
(3.42698e-60 0.0938982 0.0832207)
(2.53242e-59 0.109447 0.0835924)
(7.51985e-59 0.124494 0.0833892)
(-1.11718e-58 0.139342 0.0841069)
(-2.18941e-57 0.15356 0.0848672)
(-8.65948e-57 0.167682 0.0860954)
(6.90873e-57 0.181572 0.0875297)
(2.34532e-55 0.195442 0.0893011)
(9.38546e-55 0.209286 0.0913253)
(-1.3304e-54 0.223208 0.0936432)
(-2.88514e-53 0.237237 0.0962261)
(-9.49021e-53 0.251436 0.0990871)
(2.99572e-52 0.265844 0.102216)
(3.62765e-51 0.280507 0.105619)
(7.87976e-51 0.295462 0.109292)
(-5.66161e-50 0.310749 0.113238)
(-4.25174e-49 0.326404 0.117459)
(-3.45908e-49 0.342461 0.121958)
(8.85237e-48 0.358953 0.126738)
(4.3295e-47 0.375915 0.131804)
(-3.83172e-47 0.393378 0.137162)
(-1.15132e-45 0.411373 0.142816)
(-3.55211e-45 0.429932 0.148775)
(1.22582e-44 0.449086 0.155045)
(1.24355e-43 0.468864 0.161635)
(2.01177e-43 0.489298 0.168554)
(-1.87746e-42 0.510418 0.175811)
(-1.10615e-41 0.532255 0.183416)
(-2.53371e-42 0.554838 0.19138)
(2.0846e-40 0.578199 0.199713)
(7.98121e-40 0.602366 0.208426)
(-1.04463e-39 0.627369 0.217529)
(-1.82016e-38 0.653236 0.227031)
(-4.56322e-38 0.679992 0.236941)
(1.52211e-37 0.707658 0.247263)
(1.28684e-36 0.736253 0.258)
(1.99993e-36 0.765784 0.269149)
(-1.3134e-35 0.796251 0.280699)
(-7.49716e-35 0.82764 0.292632)
(-6.51243e-35 0.859916 0.304916)
(8.25547e-34 0.893022 0.317506)
(3.66926e-33 0.926872 0.330339)
(1.73089e-33 0.961347 0.343331)
(-3.96685e-32 0.996286 0.356377)
(-1.5432e-31 1.03149 0.36935)
(-6.78803e-32 1.06673 0.3821)
(1.45756e-30 1.10174 0.394461)
(5.64117e-30 1.13623 0.406251)
(4.51718e-30 1.16993 0.417281)
(-3.88272e-29 1.20258 0.427354)
(-1.7426e-28 1.23399 0.436263)
(-2.54949e-28 1.26397 0.443777)
(5.98675e-28 1.29242 0.449624)
(4.14661e-27 1.3192 0.453455)
(9.71944e-27 1.34413 0.454808)
(2.72918e-27 1.36691 0.453042)
(-6.04104e-26 1.38698 0.447262)
(-2.29608e-25 1.40342 0.436189)
(-4.04103e-25 1.41458 0.418054)
(2.47456e-26 1.41786 0.390428)
(2.46382e-24 1.40908 0.350461)
(8.3673e-24 1.38266 0.294796)
(1.6024e-23 1.33043 0.220603)
(1.47241e-23 1.24218 0.125281)
(-2.06485e-23 1.10202 0.00941016)
(-1.26542e-22 0.889302 -0.125722)
(-2.75859e-22 0.558479 -0.256005)
(-2.48853e-22 -0.132208 -0.461604)
(-4.71256e-23 -0.696616 -0.487157)
(-6.61824e-23 -1.14496 -0.465687)
(1.20418e-22 -1.58349 -0.407089)
(-4.44427e-22 -1.96938 -0.404779)
(2.01838e-21 -2.43621 -0.303737)
(-1.07128e-20 -2.67717 -0.366489)
(1.3315e-19 -3.24729 -0.16403)
(-2.10834e-18 -3.08056 -0.488389)
(4.04879e-17 -4.107 -0.027891)
(-1.0529e-16 -4.64206 -0.953919)
(-2.34947e-60 0.0709933 0.0913372)
(6.74033e-60 0.0941304 0.0885597)
(8.0297e-59 0.109444 0.088913)
(3.17808e-58 0.124437 0.0886476)
(8.10591e-59 0.139182 0.0893838)
(-6.29156e-57 0.153338 0.0901668)
(-3.35508e-56 0.167386 0.0914536)
(-2.34378e-56 0.181213 0.0929605)
(6.59704e-55 0.195017 0.094827)
(3.63296e-54 0.208799 0.0969614)
(8.98691e-55 0.222658 0.0994071)
(-8.35052e-53 0.236626 0.102133)
(-3.89111e-52 0.250764 0.105152)
(3.56028e-52 0.26511 0.108453)
(1.10314e-50 0.279712 0.112042)
(3.75513e-50 0.294606 0.115916)
(-1.13418e-49 0.309831 0.120077)
(-1.37277e-48 0.325423 0.124526)
(-2.81159e-48 0.341417 0.129266)
(2.14714e-47 0.357846 0.134302)
(1.50926e-46 0.374743 0.139637)
(9.07095e-47 0.39214 0.145277)
(-3.10509e-45 0.410068 0.151228)
(-1.39455e-44 0.428558 0.157497)
(1.57891e-44 0.44764 0.164092)
(3.62553e-43 0.467346 0.171021)
(1.01732e-42 0.487705 0.178293)
(-3.79564e-42 0.508747 0.185918)
(-3.46988e-41 0.530504 0.193906)
(-5.08281e-41 0.553006 0.202268)
(4.90995e-40 0.576282 0.211015)
(2.72657e-39 0.600363 0.220157)
(6.55671e-40 0.625278 0.229704)
(-4.66356e-38 0.651054 0.239666)
(-1.75423e-37 0.677717 0.25005)
(1.76627e-37 0.705291 0.26086)
(3.49214e-36 0.733792 0.272097)
(9.2515e-36 0.763232 0.283755)
(-2.18788e-35 0.793611 0.295822)
(-2.12075e-34 0.824917 0.308273)
(-4.08665e-34 0.857119 0.321072)
(1.53898e-33 0.890164 0.334166)
(1.06275e-32 0.923969 0.347484)
(1.62185e-32 0.958419 0.36093)
(-7.55574e-32 0.993361 0.374388)
(-4.44896e-31 1.0286 0.387718)
(-6.46176e-31 1.06391 0.400757)
(2.62541e-30 1.09902 0.413328)
(1.5535e-29 1.13366 0.425244)
(2.65135e-29 1.16755 0.436312)
(-5.74746e-29 1.20045 0.446338)
(-4.36159e-28 1.23214 0.455119)
(-9.85721e-28 1.26247 0.462431)
(2.73406e-28 1.29132 0.468006)
(8.82574e-27 1.3186 0.47149)
(2.8165e-26 1.34416 0.472405)
(3.18142e-26 1.36774 0.470075)
(-8.84542e-26 1.38886 0.46355)
(-5.14739e-25 1.40668 0.451449)
(-1.19392e-24 1.4197 0.431852)
(-9.79601e-25 1.42542 0.402112)
(3.35913e-24 1.41979 0.359153)
(1.63308e-23 1.39721 0.29939)
(3.82849e-23 1.34944 0.21985)
(5.50907e-23 1.26591 0.117838)
(2.63426e-23 1.13013 -0.00607123)
(-1.27389e-22 0.919737 -0.150453)
(-4.20585e-22 0.591535 -0.290669)
(-4.74293e-22 -0.0992999 -0.512735)
(-8.59763e-23 -0.698478 -0.573146)
(-6.63215e-23 -1.15359 -0.534505)
(1.17293e-22 -1.58892 -0.445734)
(-4.42113e-22 -1.97748 -0.427795)
(2.02639e-21 -2.43869 -0.314505)
(-1.10042e-20 -2.68788 -0.369292)
(1.39034e-19 -3.23534 -0.163079)
(-2.18808e-18 -3.09116 -0.47519)
(4.06468e-17 -4.06411 -0.0178476)
(-1.01785e-16 -4.5745 -0.894236)
(-1.07724e-59 0.071308 0.0965846)
(4.70489e-60 0.0943501 0.0936631)
(2.28426e-58 0.10945 0.0940047)
(1.17835e-57 0.124387 0.0936948)
(1.71258e-57 0.139036 0.0944539)
(-1.57856e-56 0.153133 0.0952654)
(-1.16284e-55 0.167111 0.0966131)
(-2.16612e-55 0.18088 0.0981946)
(1.61715e-54 0.194622 0.100156)
(1.254e-53 0.208347 0.102401)
(1.88913e-53 0.222148 0.104973)
(-2.14736e-52 0.236059 0.107839)
(-1.39305e-51 0.25014 0.111014)
(-8.04777e-52 0.264431 0.114485)
(3.02937e-50 0.278976 0.118256)
(1.45827e-49 0.293814 0.122326)
(-1.29735e-49 0.308983 0.126696)
(-4.02161e-48 0.324518 0.131367)
(-1.30703e-47 0.340455 0.136343)
(4.27889e-47 0.356826 0.141627)
(4.72595e-46 0.373663 0.147224)
(8.56529e-46 0.391 0.153139)
(-7.40064e-45 0.408866 0.159378)
(-4.73747e-44 0.427293 0.165949)
(-1.73906e-44 0.44631 0.172859)
(9.53026e-43 0.46595 0.180117)
(3.91721e-42 0.486241 0.187732)
(-5.18243e-42 0.507214 0.195715)
(-9.80335e-41 0.528899 0.204075)
(-2.54634e-40 0.551326 0.212824)
(9.65462e-40 0.574526 0.221972)
(8.23514e-39 0.598529 0.23153)
(1.17023e-38 0.623364 0.241509)
(-1.04795e-37 0.649058 0.251916)
(-5.69948e-37 0.67564 0.26276)
(-2.35948e-37 0.703131 0.274044)
(8.42567e-36 0.73155 0.285766)
(3.2776e-35 0.76091 0.297919)
(-1.54325e-35 0.791214 0.310488)
(-5.33304e-34 0.822451 0.323444)
(-1.5957e-33 0.854593 0.336745)
(1.85836e-33 0.887591 0.350332)
(2.71964e-32 0.921367 0.364123)
(6.8251e-32 0.955809 0.378015)
(-9.9295e-32 0.99077 0.391877)
(-1.12556e-30 1.02606 0.405558)
(-2.67869e-30 1.06145 0.418884)
(2.9802e-30 1.09668 0.431667)
(3.73442e-29 1.13148 0.443713)
(9.67959e-29 1.16556 0.454828)
(-2.20817e-29 1.19868 0.464819)
(-9.4102e-28 1.23064 0.473492)
(-3.0025e-27 1.26129 0.480631)
(-2.47594e-27 1.29052 0.48597)
(1.51839e-26 1.31825 0.489157)
(7.03e-26 1.34438 0.489699)
(1.29941e-25 1.36868 0.486893)
(-4.03745e-26 1.39076 0.479738)
(-9.8104e-25 1.40988 0.466763)
(-3.05607e-24 1.42465 0.445905)
(-4.58964e-24 1.43271 0.414302)
(1.10208e-24 1.43007 0.36865)
(2.64277e-23 1.41114 0.305132)
(8.23268e-23 1.36758 0.220608)
(1.61562e-22 1.28847 0.112235)
(2.12416e-22 1.15677 -0.0195801)
(6.89727e-23 0.948563 -0.173236)
(-4.57103e-22 0.621907 -0.324761)
(-8.11726e-22 -0.0596356 -0.563895)
(-1.64898e-22 -0.701669 -0.659048)
(-6.93262e-23 -1.17136 -0.62399)
(1.12759e-22 -1.60501 -0.503074)
(-4.38881e-22 -1.99458 -0.460456)
(2.03519e-21 -2.44863 -0.330593)
(-1.13354e-20 -2.70508 -0.374617)
(1.45242e-19 -3.22849 -0.162821)
(-2.2622e-18 -3.10716 -0.460992)
(4.08111e-17 -4.0235 -0.00369748)
(-9.90886e-17 -4.50451 -0.884806)
(-4.18512e-59 0.0716586 0.101763)
(-4.21965e-59 0.0945896 0.0987512)
(5.66966e-58 0.109463 0.0990889)
(3.93616e-57 0.124335 0.0987513)
(9.63964e-57 0.138878 0.0995391)
(-3.19524e-56 0.152907 0.100387)
(-3.65712e-55 0.166808 0.101801)
(-1.0705e-54 0.180511 0.103462)
(3.17922e-54 0.194185 0.105524)
(3.92527e-53 0.207846 0.107883)
(1.03165e-52 0.221582 0.110587)
(-4.68755e-52 0.23543 0.113598)
(-4.48926e-51 0.249449 0.116932)
(-7.99109e-51 0.263677 0.120577)
(7.37992e-50 0.27816 0.124536)
(4.97243e-49 0.292936 0.128806)
(2.7669e-49 0.308042 0.13339)
(-1.06686e-47 0.323515 0.138288)
(-4.91684e-47 0.339388 0.143504)
(5.40956e-47 0.355694 0.149041)
(1.34467e-45 0.372466 0.154905)
(3.98597e-45 0.389736 0.161099)
(-1.48127e-44 0.407534 0.167632)
(-1.44343e-43 0.425891 0.174509)
(-2.24371e-43 0.444837 0.18174)
(2.22901e-42 0.464403 0.189333)
(1.2964e-41 0.484619 0.197297)
(2.33131e-42 0.505515 0.205643)
(-2.50198e-40 0.52712 0.214381)
(-9.5461e-40 0.549466 0.223523)
(1.31547e-39 0.572582 0.233079)
(2.24097e-38 0.596499 0.243061)
(5.59693e-38 0.621246 0.253479)
(-1.95616e-37 0.646851 0.26434)
(-1.64105e-36 0.673341 0.275652)
(-2.48823e-36 0.700742 0.287418)
(1.7686e-35 0.729071 0.299635)
(9.96129e-35 0.758344 0.312294)
(7.63165e-35 0.788565 0.325375)
(-1.18294e-33 0.819727 0.338848)
(-5.08843e-33 0.851804 0.352664)
(-1.31328e-33 0.884753 0.366757)
(6.14581e-32 0.918499 0.381038)
(2.23385e-31 0.952937 0.395391)
(1.72231e-32 0.987922 0.409675)
(-2.50057e-30 1.02327 0.423726)
(-8.58679e-30 1.05876 0.437358)
(-2.56872e-30 1.09412 0.450372)
(7.77407e-29 1.1291 0.462568)
(2.86488e-28 1.1634 0.473748)
(2.49881e-28 1.19677 0.483724)
(-1.68295e-27 1.22903 0.492309)