/*--------------------------------*- C++ -*----------------------------------*\
| =========                 |                                                 |
| \\      /  F ield         | OpenFOAM: The Open Source CFD Toolbox           |
|  \\    /   O peration     | Version:  4.1                                   |
|   \\  /    A nd           | Web:      www.OpenFOAM.org                      |
|    \\/     M anipulation  |                                                 |
\*---------------------------------------------------------------------------*/
FoamFile
{
    version     2.0;
    format      ascii;
    class       volScalarField;
    location    "16";
    object      p;
}
// * * * * * * * * * * * * * * * * * * * * * * * * * * * * * * * * * * * * * //

dimensions      [0 2 -2 0 0 0 0];

internalField   nonuniform List<scalar> 
6785
(
4.24318e+116
4.24318e+116
4.24318e+116
4.24318e+116
4.24318e+116
4.24318e+116
4.24318e+116
4.24318e+116
4.24318e+116
4.24318e+116
4.24318e+116
4.24318e+116
4.24318e+116
4.24318e+116
4.24318e+116
4.24318e+116
4.24318e+116
4.24318e+116
4.24318e+116
4.24318e+116
4.24318e+116
4.24318e+116
4.24318e+116
4.24318e+116
4.24318e+116
4.24318e+116
4.24318e+116
4.24318e+116
4.24318e+116
4.24318e+116
4.24318e+116
4.24318e+116
4.24318e+116
4.24318e+116
4.24318e+116
4.24318e+116
4.24318e+116
4.24318e+116
4.24318e+116
4.24318e+116
4.24318e+116
4.24318e+116
4.24318e+116
4.24318e+116
4.24318e+116
4.24318e+116
4.24318e+116
4.24318e+116
4.24318e+116
4.24318e+116
4.24318e+116
4.24318e+116
4.24318e+116
4.24318e+116
4.24318e+116
4.24318e+116
4.24318e+116
4.24318e+116
4.24318e+116
4.24318e+116
4.24318e+116
4.24318e+116
4.24318e+116
4.24318e+116
4.24318e+116
4.24318e+116
4.24318e+116
4.24318e+116
4.24318e+116
4.24318e+116
4.24318e+116
4.24318e+116
4.24318e+116
4.24318e+116
4.24318e+116
4.24318e+116
4.24318e+116
4.24318e+116
4.24318e+116
4.24318e+116
4.24318e+116
4.24318e+116
4.24318e+116
4.24318e+116
4.24318e+116
4.24318e+116
4.24318e+116
4.24318e+116
4.24318e+116
4.24318e+116
4.24318e+116
4.24318e+116
4.24318e+116
4.24318e+116
4.24318e+116
4.24318e+116
4.24318e+116
4.24318e+116
4.24318e+116
4.24318e+116
4.24318e+116
4.24318e+116
4.24318e+116
4.24318e+116
4.24318e+116
4.24318e+116
4.24318e+116
4.24318e+116
4.24318e+116
4.24318e+116
4.24318e+116
4.24318e+116
4.24318e+116
4.24317e+116
4.24317e+116
4.24317e+116
4.24317e+116
4.24317e+116
4.24317e+116
4.24317e+116
4.24317e+116
4.24317e+116
4.24317e+116
4.24317e+116
4.24317e+116
4.24317e+116
4.24317e+116
4.24317e+116
4.24317e+116
4.24317e+116
4.24317e+116
4.24317e+116
4.24317e+116
4.24317e+116
4.24317e+116
4.24317e+116
4.24317e+116
4.24317e+116
4.24317e+116
4.24317e+116
4.24317e+116
4.24317e+116
4.24317e+116
4.24317e+116
4.24316e+116
4.24316e+116
4.24316e+116
4.24316e+116
4.24316e+116
4.24316e+116
4.24314e+116
4.24313e+116
4.24313e+116
4.24313e+116
4.24312e+116
4.24312e+116
4.24311e+116
4.24311e+116
4.2431e+116
4.2431e+116
4.2431e+116
4.24309e+116
4.24309e+116
4.2431e+116
4.2431e+116
4.24308e+116
4.24307e+116
4.24307e+116
4.24306e+116
4.24306e+116
4.24305e+116
4.24305e+116
4.24305e+116
4.24305e+116
4.24305e+116
4.24306e+116
4.24306e+116
4.24307e+116
4.24307e+116
4.24308e+116
4.243e+116
4.24298e+116
4.24297e+116
4.24298e+116
4.243e+116
4.24303e+116
4.24306e+116
4.24309e+116
4.24312e+116
4.24314e+116
4.24316e+116
4.24317e+116
4.24317e+116
4.24317e+116
4.24317e+116
4.24283e+116
4.24296e+116
4.24309e+116
4.24316e+116
4.24317e+116
4.24314e+116
4.24308e+116
4.24299e+116
4.2429e+116
4.2428e+116
4.2427e+116
4.24261e+116
4.24254e+116
4.24249e+116
4.24252e+116
4.24491e+116
4.2447e+116
4.24408e+116
4.24347e+116
4.24279e+116
4.24211e+116
4.24141e+116
4.24073e+116
4.24007e+116
4.23945e+116
4.23883e+116
4.23813e+116
4.23719e+116
4.23581e+116
4.23439e+116
4.4239e+116
4.42382e+116
4.42553e+116
4.42566e+116
4.4258e+116
4.42496e+116
4.42557e+116
4.42591e+116
4.42637e+116
4.4263e+116
4.42775e+116
4.42772e+116
4.42668e+116
4.42903e+116
4.42888e+116
4.42789e+116
4.42529e+116
4.42691e+116
4.42511e+116
4.42106e+116
4.42174e+116
4.41857e+116
4.41435e+116
4.40861e+116
4.40864e+116
4.40407e+116
4.39844e+116
4.39187e+116
4.39218e+116
4.38595e+116
4.37791e+116
4.37756e+116
4.37096e+116
4.36325e+116
4.35658e+116
4.35794e+116
4.35017e+116
4.34209e+116
4.3427e+116
4.33521e+116
4.32642e+116
4.32096e+116
4.32297e+116
4.31552e+116
4.30666e+116
4.30202e+116
4.3058e+116
4.29718e+116
4.29066e+116
4.29317e+116
4.28537e+116
4.27609e+116
4.27302e+116
4.27707e+116
4.26961e+116
4.26058e+116
4.25833e+116
4.26415e+116
4.25546e+116
4.25082e+116
4.25482e+116
4.24716e+116
4.23804e+116
4.23695e+116
4.24366e+116
4.23506e+116
4.23146e+116
4.23603e+116
4.22855e+116
4.21951e+116
4.21958e+116
4.22538e+116
4.21825e+116
4.20952e+116
4.21006e+116
4.21718e+116
4.20868e+116
4.20582e+116
4.21287e+116
4.20343e+116
4.21053e+116
4.22344e+116
4.2329e+116
4.25295e+116
4.25322e+116
4.25145e+116
4.24958e+116
4.24794e+116
4.2465e+116
4.24509e+116
4.24378e+116
4.24222e+116
4.24098e+116
4.24608e+116
4.246e+116
4.24521e+116
4.2442e+116
4.24313e+116
4.24198e+116
4.24089e+116
4.23959e+116
4.2387e+116
4.24427e+116
4.24433e+116
4.2437e+116
4.24283e+116
4.24187e+116
4.24092e+116
4.23992e+116
4.23895e+116
4.23776e+116
4.23678e+116
4.24233e+116
4.2424e+116
4.24179e+116
4.24095e+116
4.24002e+116
4.23905e+116
4.23815e+116
4.23707e+116
4.23609e+116
4.24151e+116
4.24159e+116
4.24101e+116
4.2402e+116
4.23932e+116
4.23837e+116
4.23746e+116
4.23638e+116
4.23516e+116
4.24059e+116
4.24069e+116
4.24017e+116
4.23939e+116
4.23848e+116
4.23747e+116
4.23652e+116
4.23541e+116
4.23395e+116
4.23916e+116
4.23918e+116
4.23858e+116
4.23777e+116
4.23689e+116
4.2358e+116
4.23442e+116
4.23311e+116
4.23167e+116
4.22888e+116
4.23422e+116
4.2341e+116
4.23328e+116
4.23214e+116
4.23082e+116
4.22898e+116
4.22576e+116
4.22085e+116
4.2071e+116
4.21103e+116
4.20914e+116
4.1989e+116
4.19278e+116
4.20584e+116
4.20592e+116
4.2027e+116
4.20249e+116
4.20098e+116
4.21177e+116
4.21227e+116
4.20859e+116
4.21676e+116
4.21604e+116
4.21327e+116
4.21284e+116
4.21144e+116
4.21909e+116
4.21777e+116
4.21447e+116
4.21341e+116
4.2112e+116
4.21816e+116
4.21762e+116
4.21354e+116
4.21909e+116
4.21643e+116
4.21413e+116
4.21333e+116
4.21423e+116
4.23132e+116
4.23395e+116
4.23631e+116
4.23043e+116
4.21872e+116
4.2229e+116
4.20037e+116
4.16492e+116
4.16548e+116
4.14659e+116
4.1177e+116
4.10821e+116
4.09266e+116
4.12602e+116
4.15474e+116
4.16288e+116
4.19906e+116
4.21831e+116
4.29067e+116
4.36618e+116
4.41351e+116
4.50403e+116
4.54163e+116
4.56275e+116
4.64346e+116
4.7066e+116
4.78957e+116
4.87076e+116
4.91663e+116
5.02907e+116
5.05882e+116
4.89677e+116
4.96348e+116
4.85251e+116
4.20136e+116
4.02368e+116
3.76366e+116
3.68858e+116
3.35064e+116
1.63783e+116
1.19266e+116
6.97416e+115
5.90337e+115
1.94992e+115
-2.64129e+116
-2.62075e+116
-3.37863e+116
-7.70354e+116
-8.12334e+116
-7.81125e+116
-4.52162e+116
3.72425e+116
-1.45844e+110
2.99508e+110
3.5043e+111
4.11356e+111
6.26196e+111
1.27542e+112
1.59888e+112
2.85094e+112
4.95301e+111
8.752e+111
5.58661e+111
1.25008e+112
2.05603e+112
2.63352e+112
1.50436e+112
1.30288e+112
1.1964e+112
3.85903e+112
1.48849e+112
-9.26328e+111
-1.01887e+112
-2.1522e+112
-1.74172e+112
-9.83475e+111
1.46869e+112
1.75518e+112
1.15262e+112
-9.57281e+110
-4.10604e+111
-3.25471e+111
1.80371e+112
2.41036e+112
8.39558e+111
2.25681e+111
8.98031e+111
4.63567e+111
8.8444e+111
2.77804e+111
7.70368e+111
5.96569e+111
4.24935e+111
8.95185e+111
6.12098e+111
3.06514e+111
7.10632e+111
-2.75699e+111
-5.15938e+111
-6.65825e+111
-7.37036e+111
-9.84587e+111
-9.10219e+111
-6.21462e+111
-3.89729e+111
-2.19206e+111
-9.49954e+110
1.20463e+110
9.71704e+110
1.08342e+111
6.53263e+110
-1.3235e+110
-1.19533e+111
-2.43174e+111
-3.8399e+111
-5.47807e+111
-7.56423e+111
-1.04463e+112
-1.47155e+112
-2.12174e+112
-3.12985e+112
-4.65375e+112
-6.91384e+112
-9.74046e+112
-1.22227e+113
-8.60548e+112
-2.29495e+112
1.69069e+113
-3.12206e+113
-7.18385e+114
-7.74187e+115
-2.94029e+110
8.55346e+109
3.50673e+111
4.7616e+111
8.15953e+111
1.5252e+112
1.9325e+112
3.55657e+112
1.28e+112
1.40337e+112
1.24607e+112
1.75837e+112
2.5563e+112
3.26619e+112
1.52583e+112
1.12884e+112
1.63076e+112
4.3274e+112
2.05054e+112
-9.42099e+111
-1.27819e+112
-2.73886e+112
-2.43317e+112
-1.32671e+112
1.95685e+112
1.9574e+112
1.16721e+112
-2.11026e+111
-4.08271e+111
-2.95146e+111
2.15426e+112
3.08241e+112
1.41973e+112
6.15055e+111
7.32223e+111
2.7154e+111
7.59023e+111
2.48373e+111
5.85019e+111
3.01365e+111
3.61623e+111
1.16564e+112
8.42913e+111
5.37821e+111
6.942e+111
-3.74362e+111
-8.3471e+111
-1.08502e+112
-1.12622e+112
-1.35707e+112
-1.25955e+112
-8.86661e+111
-5.51012e+111
-3.42669e+111
-1.84905e+111
-3.87863e+110
8.20508e+110
8.7935e+110
1.89321e+110
-9.32838e+110
-2.41084e+111
-4.12648e+111
-6.08971e+111
-8.41016e+111
-1.14123e+112
-1.56126e+112
-2.18772e+112
-3.14631e+112
-4.6369e+112
-6.90483e+112
-1.03019e+113
-1.47277e+113
-1.93637e+113
-1.75416e+113
-1.50541e+113
-6.89892e+113
-7.98735e+114
-4.18381e+115
-1.45921e+116
-2.54598e+110
-1.01158e+110
2.78247e+111
5.03185e+111
9.7222e+111
1.69524e+112
2.20222e+112
3.85758e+112
1.99768e+112
1.74599e+112
1.76097e+112
2.09574e+112
2.85289e+112
3.32179e+112
1.52171e+112
9.69036e+111
1.83729e+112
4.63909e+112
2.58472e+112
-7.09505e+111
-1.51193e+112
-3.01266e+112
-2.69523e+112
-1.40444e+112
2.14196e+112
2.04699e+112
1.03326e+112
-3.70801e+111
-2.12432e+111
1.11497e+111
2.45882e+112
3.30151e+112
1.78021e+112
1.02008e+112
6.53702e+111
7.61444e+110
6.41522e+111
1.07407e+111
3.1079e+111
9.92792e+110
2.8409e+111
1.12881e+112
9.78538e+111
7.74111e+111
5.99309e+111
-3.95989e+111
-1.08004e+112
-1.39434e+112
-1.40824e+112
-1.58548e+112
-1.43475e+112
-1.01079e+112
-6.34128e+111
-3.90256e+111
-2.1255e+111
-4.85387e+110
8.65155e+110
9.46563e+110
1.82971e+110
-1.03747e+111
-2.63788e+111
-4.49697e+111
-6.61524e+111
-9.11418e+111
-1.23463e+112
-1.68754e+112
-2.36427e+112
-3.40199e+112
-5.01994e+112
-7.49312e+112
-1.12379e+113
-1.62775e+113
-2.23723e+113
-2.39996e+113
-2.46258e+113
-1.17867e+114
-1.16072e+115
-4.93464e+115
-1.09876e+116
-3.04052e+109
1.37043e+110
2.76356e+111
5.91099e+111
1.18303e+112
1.98314e+112
2.61196e+112
4.16234e+112
2.58936e+112
2.02188e+112
2.11291e+112
2.49489e+112
3.20185e+112
3.33388e+112
1.62836e+112
9.34853e+111
2.10582e+112
4.91259e+112
2.96388e+112
-4.69609e+111
-1.69643e+112
-3.24644e+112
-2.90112e+112
-1.45962e+112
2.23364e+112
1.7862e+112
8.42077e+111
-4.31513e+111
2.02323e+110
6.68353e+111
2.89964e+112
3.57216e+112
2.10921e+112
1.53129e+112
6.00901e+111
-7.77205e+110
5.53765e+111
4.159e+109
2.78783e+110
-7.17232e+110
2.61985e+111
1.11131e+112
1.16573e+112
1.03031e+112
5.3035e+111
-4.17775e+111
-1.26857e+112
-1.71853e+112
-1.72162e+112
-1.79534e+112
-1.58943e+112
-1.12485e+112
-7.19033e+111
-4.27875e+111
-2.25734e+111
-4.87307e+110
9.51561e+110
1.08345e+111
2.88815e+110
-9.88184e+110
-2.66159e+111
-4.60605e+111
-6.80638e+111
-9.38707e+111
-1.27144e+112
-1.7379e+112
-2.4363e+112
-3.51012e+112
-5.19087e+112
-7.77538e+112
-1.17466e+113
-1.72987e+113
-2.50361e+113
-3.14192e+113
-3.40702e+113
-1.4921e+114
-1.28311e+115
-3.84297e+115
-1.21745e+115
2.09142e+110
3.9734e+110
2.81811e+111
6.67976e+111
1.38668e+112
2.30773e+112
3.07161e+112
4.47102e+112
3.03396e+112
2.27882e+112
2.40855e+112
2.89435e+112
3.54694e+112
3.3584e+112
1.7418e+112
9.0286e+111
2.43258e+112
5.17886e+112
3.29577e+112
-2.82842e+111
-1.8775e+112
-3.49421e+112
-3.09562e+112
-1.51539e+112
2.33325e+112
1.36709e+112
6.24392e+111
-2.96938e+111
2.83919e+111
1.24821e+112
3.41871e+112
3.88206e+112
2.40354e+112
1.89574e+112
5.54958e+111
-1.77742e+111
4.68093e+111
-8.85795e+110
-3.24202e+111
-2.08571e+111
2.15837e+111
1.09393e+112
1.3881e+112
1.23109e+112
4.94215e+111
-4.57417e+111
-1.43898e+112
-2.05836e+112
-2.07699e+112
-2.01989e+112
-1.744e+112
-1.24505e+112
-8.08879e+111
-4.67174e+111
-2.3753e+111
-4.97849e+110
1.00994e+111
1.19132e+111
3.75692e+110
-9.5068e+110
-2.69169e+111
-4.71462e+111
-6.98674e+111
-9.6346e+111
-1.30387e+112
-1.78172e+112
-2.49941e+112
-3.60689e+112
-5.34884e+112
-8.0465e+112
-1.22614e+113
-1.83883e+113
-2.79088e+113
-3.96559e+113
-4.38194e+113
-1.73674e+114
-1.23605e+115
-1.68929e+115
8.99752e+115
4.39614e+110
6.28624e+110
2.91058e+111
7.53798e+111
1.58444e+112
2.64113e+112
3.54029e+112
4.78128e+112
3.39957e+112
2.56124e+112
2.68787e+112
3.29876e+112
3.89519e+112
3.45679e+112
1.88107e+112
9.2063e+111
2.77297e+112
5.37791e+112
3.57593e+112
-1.13745e+111
-2.06473e+112
-3.74452e+112
-3.20581e+112
-1.49172e+112
2.56577e+112
1.33722e+112
5.82452e+111
5.27429e+110
6.57565e+111
1.82619e+112
4.00548e+112
4.2682e+112
2.68629e+112
1.97231e+112
4.94638e+111
-2.48289e+111
3.54084e+111
-2.0417e+111
-6.69993e+111
-3.3589e+111
2.00004e+111
1.06043e+112
1.63004e+112
1.4439e+112
4.91544e+111
-4.98678e+111
-1.59681e+112
-2.39147e+112
-2.4551e+112
-2.25841e+112
-1.89425e+112
-1.3634e+112
-8.91622e+111
-5.01506e+111
-2.47208e+111
-4.89445e+110
1.06386e+111
1.27481e+111
4.37912e+110
-9.36031e+110
-2.74438e+111
-4.84423e+111
-7.18341e+111
-9.8907e+111
-1.33625e+112
-1.82471e+112
-2.56141e+112
-3.70326e+112
-5.50929e+112
-8.32765e+112
-1.28057e+113
-1.95505e+113
-3.08105e+113
-4.79115e+113
-5.42082e+113
-1.97333e+114
-1.04864e+115
1.07473e+115
1.92283e+116
6.31683e+110
8.05002e+110
3.04294e+111
8.47403e+111
1.77061e+112
2.95017e+112
3.97045e+112
5.03428e+112
3.6668e+112
2.86661e+112
2.97536e+112
3.66244e+112
4.21457e+112
3.54254e+112
1.99641e+112
1.01227e+112
3.12319e+112
5.50455e+112
3.75976e+112
-8.97638e+109
-2.27141e+112
-4.00054e+112
-3.21507e+112
-1.37307e+112
2.96382e+112
1.61939e+112
6.80646e+111
4.67757e+111
1.10886e+112
2.38755e+112
4.64726e+112
4.73521e+112
2.9393e+112
1.85748e+112
4.10171e+111
-3.12434e+111
1.86665e+111
-3.56348e+111
-1.00951e+112
-4.95545e+111
2.06694e+111
1.02413e+112
1.87151e+112
1.66495e+112
5.10838e+111
-5.4772e+111
-1.74994e+112
-2.72324e+112
-2.83544e+112
-2.50692e+112
-2.03954e+112
-1.47864e+112
-9.6204e+111
-5.27019e+111
-2.5403e+111
-4.48301e+110
1.13115e+111
1.34668e+111
4.8383e+110
-9.37011e+110
-2.81259e+111
-4.98768e+111
-7.38859e+111
-1.0146e+112
-1.36738e+112
-1.86524e+112
-2.61996e+112
-3.79562e+112
-5.6662e+112
-8.60781e+112
-1.33548e+113
-2.07245e+113
-3.35774e+113
-5.53817e+113
-6.61684e+113
-2.22027e+114
-7.4174e+114
4.01679e+115
2.81004e+116
7.71224e+110
9.3652e+110
3.24195e+111
9.50864e+111
1.94844e+112
3.20927e+112
4.31387e+112
5.195e+112
3.88258e+112
3.18787e+112
3.29546e+112
3.97774e+112
4.48132e+112
3.5997e+112
2.09931e+112
1.1714e+112
3.49883e+112
5.58363e+112
3.86023e+112
5.09646e+110
-2.5382e+112
-4.23407e+112
-3.14879e+112
-1.16426e+112
3.49433e+112
1.92551e+112
8.3894e+111
9.12276e+111
1.51463e+112
2.95128e+112
5.32055e+112
5.28193e+112
3.1654e+112
1.76215e+112
3.0806e+111
-3.71338e+111
-5.7921e+110
-5.5862e+111
-1.35989e+112
-7.04375e+111
1.76595e+111
9.75015e+111
2.09899e+112
1.88033e+112
5.44447e+111
-6.01026e+111
-1.91442e+112
-3.06982e+112
-3.20056e+112
-2.76113e+112
-2.18676e+112
-1.5942e+112
-1.02292e+112
-5.44934e+111
-2.57275e+111
-3.71466e+110
1.21826e+111
1.4129e+111
5.17987e+110
-9.49342e+110
-2.89152e+111
-5.13956e+111
-7.59573e+111
-1.03922e+112
-1.39618e+112
-1.9019e+112
-2.67312e+112
-3.88122e+112
-5.81521e+112
-8.87902e+112
-1.38905e+113
-2.18633e+113
-3.61419e+113
-6.14622e+113
-8.11032e+113
-2.45385e+114
-3.0933e+114
7.07739e+115
3.54254e+116
8.59333e+110
1.0398e+111
3.51624e+111
1.0653e+112
2.1252e+112
3.42296e+112
4.57003e+112
5.30357e+112
4.08874e+112
3.52541e+112
3.62971e+112
4.24615e+112
4.69181e+112
3.65564e+112
2.21278e+112
1.37659e+112
3.87155e+112
5.66707e+112
3.94578e+112
1.23433e+111
-2.86964e+112
-4.41482e+112
-3.00139e+112
-8.69844e+111
4.10319e+112
2.24308e+112
1.06139e+112
1.34029e+112
1.851e+112
3.51697e+112
6.01921e+112
5.89449e+112
3.3859e+112
1.65783e+112
2.0135e+111
-4.33106e+111
-3.81321e+111
-8.71732e+111
-1.7406e+112
-9.49596e+111
9.65598e+110
9.02083e+111
2.30147e+112
2.08203e+112
5.71451e+111
-6.50287e+111
-2.12195e+112
-3.43113e+112
-3.54939e+112
-3.01693e+112
-2.34502e+112
-1.7135e+112
-1.07925e+112
-5.57831e+111
-2.56854e+111
-2.60193e+110
1.32407e+111
1.47297e+111
5.40401e+110
-9.73629e+110
-2.98287e+111
-5.30251e+111
-7.80783e+111
-1.06321e+112
-1.42289e+112
-1.93487e+112
-2.72097e+112
-3.95988e+112
-5.95537e+112
-9.1382e+112
-1.44029e+113
-2.29354e+113
-3.8515e+113
-6.59453e+113
-1.00418e+114
-2.60089e+114
2.65546e+114
1.01939e+116
4.15542e+116
9.08504e+110
1.12481e+111
3.83935e+111
1.18678e+112
2.30379e+112
3.6091e+112
4.75891e+112
5.39584e+112
4.29159e+112
3.87726e+112
3.95313e+112
4.48846e+112
4.84397e+112
3.7201e+112
2.36548e+112
1.62768e+112
4.19585e+112
5.75261e+112
3.94979e+112
1.70032e+111
-3.16776e+112
-4.50966e+112
-2.75286e+112
-4.95496e+111
4.73263e+112
2.62956e+112
1.32043e+112
1.7314e+112
2.17852e+112
4.06512e+112
6.7353e+112
6.55902e+112
3.68617e+112
1.47309e+112
6.8394e+110
-4.9936e+111
-7.41078e+111
-1.33851e+112
-2.17828e+112
-1.22372e+112
-2.86032e+110
8.14728e+111
2.4652e+112
2.28158e+112
5.93279e+111
-7.16042e+111
-2.38323e+112
-3.80512e+112
-3.87735e+112
-3.2734e+112
-2.52046e+112
-1.83993e+112
-1.1345e+112
-5.67524e+111
-2.53553e+111
-1.1999e+110
1.44139e+111
1.52372e+111
5.51515e+110
-1.00815e+111
-3.0846e+111
-5.47447e+111
-8.02215e+111
-1.08615e+112
-1.44692e+112
-1.9634e+112
-2.76256e+112
-4.03033e+112
-6.08472e+112
-9.38152e+112
-1.4883e+113
-2.39148e+113
-4.07281e+113
-6.88956e+113
-1.25042e+114
-2.53866e+114
9.87571e+114
1.31461e+116
4.57454e+116
9.34724e+110
1.19262e+111
4.17752e+111
1.3105e+112
2.4801e+112
3.77439e+112
4.8954e+112
5.48115e+112
4.49068e+112
4.2354e+112
4.26925e+112
4.71506e+112
4.94596e+112
3.77767e+112
2.53929e+112
1.90647e+112
4.43719e+112
5.81619e+112
3.87262e+112
1.278e+111
-3.33348e+112
-4.49571e+112
-2.47218e+112
-6.66082e+110
5.36802e+112
3.08713e+112
1.59823e+112
2.10698e+112
2.54123e+112
4.63695e+112
7.4746e+112
7.26672e+112
4.10095e+112
1.25831e+112
-8.23653e+110
-6.02383e+111
-1.08138e+112
-1.97424e+112
-2.69974e+112
-1.48683e+112
-2.00544e+111
7.80547e+111
2.59622e+112
2.47446e+112
6.13121e+111
-8.13761e+111
-2.63593e+112
-4.18426e+112
-4.21191e+112
-3.5638e+112
-2.71871e+112
-1.97711e+112
-1.18924e+112
-5.73739e+111
-2.48191e+111
4.03828e+109
1.55427e+111
1.55578e+111
5.46695e+110
-1.05637e+111
-3.20082e+111
-5.6607e+111
-8.24426e+111
-1.10857e+112
-1.46877e+112
-1.98794e+112
-2.79832e+112
-4.09292e+112
-6.20319e+112
-9.6077e+112
-1.53265e+113
-2.47853e+113
-4.27966e+113
-7.06683e+113
-1.54869e+114
-2.11246e+114
1.86555e+115
1.59387e+116
4.83953e+116
9.50287e+110
1.23698e+111
4.50046e+111
1.4325e+112
2.64833e+112
3.91673e+112
4.99319e+112
5.56173e+112
4.68971e+112
4.59336e+112
4.5826e+112
4.92509e+112
5.01291e+112
3.79369e+112
2.67355e+112
2.16106e+112
4.58654e+112
5.86152e+112
3.77847e+112
-3.95767e+110
-3.42471e+112
-4.41341e+112
-2.21937e+112
3.78114e+111
6.01541e+112
3.61522e+112
1.90505e+112
2.48156e+112
2.94454e+112
5.29156e+112
8.24317e+112
8.00503e+112
4.56561e+112
9.73388e+111
-2.28181e+111
-7.39931e+111
-1.41914e+112
-2.67809e+112
-3.21171e+112
-1.70898e+112
-3.78597e+111
7.91465e+111
2.70965e+112
2.60881e+112
6.05047e+111
-9.1911e+111
-2.80827e+112
-4.56347e+112
-4.59257e+112
-3.88704e+112
-2.92387e+112
-2.11033e+112
-1.24058e+112
-5.7548e+111
-2.41932e+111
2.10018e+110
1.63995e+111
1.55952e+111
5.24014e+110
-1.11729e+111
-3.32975e+111
-5.85913e+111
-8.47087e+111
-1.12994e+112
-1.48769e+112
-2.00756e+112
-2.82708e+112
-4.14618e+112
-6.30875e+112
-9.8135e+112
-1.57274e+113
-2.55358e+113
-4.46671e+113
-7.20106e+113
-1.88153e+114
-1.14659e+114
2.90566e+115
1.85664e+116
4.99545e+116
9.62302e+110
1.25225e+111
4.78093e+111
1.54826e+112
2.80444e+112
4.03684e+112
5.06393e+112
5.63795e+112
4.89445e+112
4.94368e+112
4.88757e+112
5.11379e+112
5.04493e+112
3.7501e+112
2.75022e+112
2.37967e+112
4.68973e+112
5.88747e+112
3.65911e+112
-3.04282e+111
-3.51929e+112
-4.2622e+112
-1.99552e+112
8.12389e+111
6.66058e+112
4.20429e+112
2.26986e+112
2.86823e+112
3.37588e+112
5.95258e+112
9.02573e+112
8.77532e+112
4.98357e+112
6.43179e+111
-3.70118e+111
-8.60611e+111
-1.81865e+112
-3.32203e+112
-3.71044e+112
-1.8842e+112
-5.25034e+111
7.62793e+111
2.82104e+112
2.67484e+112
5.25668e+111
-1.0419e+112
-2.96095e+112
-4.95107e+112
-5.02368e+112
-4.2294e+112
-3.12469e+112
-2.22583e+112
-1.28446e+112
-5.68709e+111
-2.34183e+111
3.80419e+110
1.65533e+111
1.51794e+111
4.75317e+110
-1.1966e+111
-3.47758e+111
-6.07699e+111
-8.70907e+111
-1.15088e+112
-1.50423e+112
-2.02278e+112
-2.84935e+112
-4.19064e+112
-6.40171e+112
-9.99881e+112
-1.60837e+113
-2.61697e+113
-4.61794e+113
-7.40857e+113
-2.21278e+114
5.49098e+113
4.10843e+115
2.09418e+116
4.99835e+116
9.76712e+110
1.23978e+111
4.99811e+111
1.65272e+112
2.94567e+112
4.13847e+112
5.11985e+112
5.70563e+112
5.10433e+112
5.28131e+112
5.17937e+112
5.27871e+112
5.04527e+112
3.70135e+112
2.78797e+112
2.55528e+112
4.78163e+112
5.89069e+112
3.47209e+112
-6.35811e+111
-3.64338e+112
-4.0381e+112
-1.8044e+112
1.22527e+112
7.28962e+112
4.84397e+112
2.68737e+112
3.27759e+112
3.83472e+112
6.53969e+112
9.81366e+112
9.58078e+112
5.3342e+112
4.9638e+111
-5.09259e+111
-9.48558e+111
-2.23527e+112
-3.91597e+112
-4.20779e+112
-2.03203e+112
-6.49904e+111
7.0705e+111
2.94483e+112
2.69186e+112
3.72021e+111
-1.25588e+112
-3.16842e+112
-5.28764e+112
-5.47319e+112
-4.62327e+112
-3.32845e+112
-2.32337e+112
-1.31758e+112
-5.4623e+111
-2.20205e+111
5.03032e+110
1.52639e+111
1.41629e+111
3.96151e+110
-1.29429e+111
-3.64327e+111
-6.31287e+111
-8.95559e+111
-1.17081e+112
-1.51756e+112
-2.03254e+112
-2.86387e+112
-4.22475e+112
-6.48018e+112
-1.01614e+113
-1.63899e+113
-2.67008e+113
-4.70289e+113
-7.80592e+113
-2.4918e+114
3.15368e+114
5.46692e+115
2.30772e+116
4.92535e+116
1.00019e+111
1.20914e+111
5.14413e+111
1.7418e+112
3.07035e+112
4.22563e+112
5.17254e+112
5.75342e+112
5.31474e+112
5.60057e+112
5.45531e+112
5.4274e+112
5.0452e+112
3.71055e+112
2.82603e+112
2.67297e+112
4.85454e+112
5.84638e+112
3.23044e+112
-9.83938e+111
-3.78859e+112
-3.83207e+112
-1.67593e+112
1.60968e+112
7.89676e+112
5.51185e+112
3.10979e+112
3.71988e+112
4.34173e+112
7.08238e+112
1.05842e+113
1.04155e+113
5.63658e+112
5.46559e+111
-6.02447e+111
-1.05058e+112
-2.58358e+112
-4.45811e+112
-4.69131e+112
-2.21371e+112
-7.85612e+111
6.75122e+111
3.08699e+112
2.59274e+112
2.07171e+111
-1.56493e+112
-3.42417e+112
-5.53678e+112
-5.8804e+112
-5.0588e+112
-3.52694e+112
-2.40473e+112
-1.33937e+112
-5.11296e+111
-2.14129e+111
5.16541e+110
1.13667e+111
1.23242e+111
2.75005e+110
-1.41819e+111
-3.83516e+111
-6.57616e+111
-9.2191e+111
-1.19043e+112
-1.52828e+112
-2.03742e+112
-2.87124e+112
-4.24923e+112
-6.54485e+112
-1.03026e+113
-1.6644e+113
-2.71641e+113
-4.69108e+113
-8.58528e+113
-2.64358e+114
6.82629e+114
6.97335e+115
2.49604e+116
4.77322e+116
1.03888e+111
1.17496e+111
5.22587e+111
1.81375e+112
3.17866e+112
4.30024e+112
5.22334e+112
5.77869e+112
5.52771e+112
5.89709e+112
5.71514e+112
5.57259e+112
5.07929e+112
3.7815e+112
2.88995e+112
2.74966e+112
4.88048e+112
5.70367e+112
2.99057e+112
-1.29285e+112
-3.93478e+112
-3.68969e+112
-1.62821e+112
1.95505e+112
8.44731e+112
6.18036e+112
3.54538e+112
4.1809e+112
4.90384e+112
7.61011e+112
1.13007e+113
1.12639e+113
5.90951e+112
6.44849e+111
-6.46475e+111
-1.1911e+112
-2.88224e+112
-4.90612e+112
-5.11087e+112
-2.46325e+112
-9.70619e+111
7.06278e+111
3.24034e+112
2.25699e+112
6.3468e+110
-1.8932e+112
-3.66361e+112
-5.78053e+112
-6.25629e+112
-5.46013e+112
-3.69893e+112
-2.47272e+112
-1.35621e+112
-4.81434e+111
-2.46315e+111
4.98291e+110
4.4385e+110
9.46173e+110
1.0541e+110
-1.56901e+111
-4.05318e+111
-6.8664e+111
-9.49632e+111
-1.20908e+112
-1.53543e+112
-2.03624e+112
-2.87006e+112
-4.26253e+112
-6.59398e+112
-1.04213e+113
-1.68406e+113
-2.76078e+113
-4.54733e+113
-1.00192e+114
-2.55996e+114
1.17014e+115
8.61643e+115
2.66448e+116
4.61052e+116
1.0969e+111
1.15035e+111
5.2584e+111
1.86982e+112
3.27299e+112
4.36162e+112
5.25835e+112
5.79053e+112
5.75051e+112
6.17287e+112
5.96126e+112
5.72276e+112
5.1575e+112
3.89824e+112
2.98474e+112
2.80819e+112
4.83557e+112
5.47685e+112
2.77104e+112
-1.55808e+112
-4.0652e+112
-3.59881e+112
-1.65718e+112
2.26469e+112
8.8847e+112
6.84021e+112
4.01708e+112
4.64603e+112
5.5165e+112
8.1767e+112
1.19642e+113
1.20639e+113
6.16114e+112
7.53567e+111
-6.70529e+111
-1.36333e+112
-3.16844e+112
-5.23033e+112
-5.47586e+112
-2.74428e+112
-1.20991e+112
7.51222e+111
3.37345e+112
1.83946e+112
-5.32088e+110
-2.21816e+112
-3.88384e+112
-6.05734e+112
-6.61324e+112
-5.82316e+112
-3.87235e+112
-2.53381e+112
-1.38014e+112
-4.76829e+111
-3.16781e+111
4.60275e+110
-4.90701e+110
5.24336e+110
-1.28258e+110
-1.7564e+111
-4.30807e+111
-7.1955e+111
-9.79753e+111
-1.22753e+112
-1.53964e+112
-2.02962e+112
-2.86104e+112
-4.26552e+112
-6.62862e+112
-1.05204e+113
-1.69794e+113
-2.80942e+113
-4.2875e+113
-1.21809e+114
-2.11503e+114
1.78911e+115
1.03903e+116
2.82189e+116
4.45464e+116
1.17582e+111
1.14199e+111
5.25225e+111
1.91249e+112
3.35603e+112
4.40946e+112
5.26422e+112
5.79759e+112
5.98496e+112
6.43299e+112
6.19799e+112
5.88171e+112
5.27414e+112
4.04436e+112
3.09369e+112
2.86859e+112
4.71894e+112
5.24287e+112
2.54223e+112
-1.81511e+112
-4.1902e+112
-3.56017e+112
-1.76692e+112
2.532e+112
9.16595e+112
7.46293e+112
4.50158e+112
5.12069e+112
6.19133e+112
8.8e+112
1.25493e+113
1.27703e+113
6.38991e+112
8.60507e+111
-7.00453e+111
-1.55692e+112
-3.47268e+112
-5.42907e+112
-5.81469e+112
-3.05945e+112
-1.46941e+112
7.39507e+111
3.40211e+112
1.46572e+112
-1.58431e+111
-2.52063e+112
-4.07729e+112
-6.32651e+112
-6.94022e+112
-6.1562e+112
-4.09604e+112
-2.61142e+112
-1.4179e+112
-5.26678e+111
-4.18498e+111
1.61206e+110
-1.65045e+111
-9.28991e+109
-4.39976e+110
-1.9817e+111
-4.60145e+111
-7.56498e+111
-1.01201e+112
-1.24506e+112
-1.53986e+112
-2.01629e+112
-2.84274e+112
-4.2567e+112
-6.64724e+112
-1.05994e+113
-1.70614e+113
-2.86444e+113
-4.01664e+113
-1.47999e+114
-1.16725e+114
2.54859e+115
1.2292e+116
2.97911e+116
4.30793e+116
1.27658e+111
1.15075e+111
5.21047e+111
1.94371e+112
3.42971e+112
4.44679e+112
5.24825e+112
5.80765e+112
6.2242e+112
6.68217e+112
6.43039e+112
6.05145e+112
5.4209e+112
4.21101e+112
3.20307e+112
2.92372e+112
4.5686e+112
4.97725e+112
2.28904e+112
-2.06094e+112
-4.32824e+112
-3.5704e+112
-1.88915e+112
2.74062e+112
9.28338e+112
7.97277e+112
4.97702e+112
5.62613e+112
6.94284e+112
9.46284e+112
1.30039e+113
1.34178e+113
6.58273e+112
9.66164e+111
-7.3901e+111
-1.79283e+112
-3.84349e+112
-5.55157e+112
-6.11866e+112
-3.38737e+112
-1.72961e+112
6.50765e+111
3.32049e+112
1.13931e+112
-2.98637e+111
-2.78813e+112
-4.246e+112
-6.5609e+112
-7.18951e+112
-6.49847e+112
-4.43269e+112
-2.74817e+112
-1.45142e+112
-6.91119e+111
-5.38291e+111
-8.90094e+110
-3.25385e+111
-1.07632e+111
-8.67388e+110
-2.25761e+111
-4.94657e+111
-7.98957e+111
-1.0476e+112
-1.2625e+112
-1.53673e+112
-1.99693e+112
-2.81594e+112
-4.23712e+112
-6.6513e+112
-1.06611e+113
-1.70995e+113
-2.91709e+113
-3.90225e+113
-1.73024e+114
4.35711e+113
3.45572e+115
1.4317e+116
3.14489e+116
4.18568e+116
1.39852e+111
1.17317e+111
5.13337e+111
1.96469e+112
3.49494e+112
4.47844e+112
5.22297e+112
5.82716e+112
6.45798e+112
6.92516e+112
6.66381e+112
6.23529e+112
5.59316e+112
4.39085e+112
3.30344e+112
2.95314e+112
4.37165e+112
4.62954e+112
1.98306e+112
-2.30908e+112
-4.46026e+112
-3.61625e+112
-1.96449e+112
2.89151e+112
9.27228e+112
8.40149e+112
5.48133e+112
6.17684e+112
7.75371e+112
1.01417e+113
1.33847e+113
1.40135e+113
6.7307e+112
1.07596e+112
-7.84162e+111
-2.15556e+112
-4.39031e+112
-5.67276e+112
-6.30636e+112
-3.68016e+112
-1.97876e+112
4.91515e+111
3.1707e+112
8.77937e+111
-4.85568e+111
-3.026e+112
-4.42961e+112
-6.78685e+112
-7.36567e+112
-6.86545e+112
-4.88311e+112
-2.96567e+112
-1.46334e+112
-1.00366e+112
-6.72143e+111
-3.10124e+111
-5.32794e+111
-2.67062e+111
-1.47046e+111
-2.58851e+111
-5.34587e+111
-8.47274e+111
-1.08633e+112
-1.27904e+112
-1.52909e+112
-1.97015e+112
-2.77913e+112
-4.20528e+112
-6.6396e+112
-1.07035e+113
-1.71136e+113
-2.94157e+113
-4.07985e+113
-1.89972e+114
2.84751e+114
4.51515e+115
1.64293e+116
3.31418e+116
4.10836e+116
1.538e+111
1.20427e+111
5.02007e+111
1.97594e+112
3.55189e+112
4.5087e+112
5.19762e+112
5.85725e+112
6.67943e+112
7.16685e+112
6.90418e+112
6.43887e+112
5.7897e+112
4.57068e+112
3.39035e+112
2.95502e+112
4.11464e+112
4.17993e+112
1.60297e+112
-2.57561e+112
-4.56464e+112
-3.68725e+112
-2.00301e+112
2.99586e+112
9.20418e+112
8.78976e+112
6.04464e+112
6.77872e+112
8.58564e+112
1.08117e+113
1.37258e+113
1.4517e+113
6.83497e+112
1.17607e+112
-8.61321e+111
-2.61667e+112
-5.12109e+112
-5.7933e+112
-6.37035e+112
-3.97149e+112
-2.23574e+112
2.69246e+111
2.96692e+112
7.22814e+111
-7.34822e+111
-3.24375e+112
-4.68984e+112
-7.03118e+112
-7.53808e+112
-7.2927e+112
-5.40448e+112
-3.25627e+112
-1.51123e+112
-1.39161e+112
-8.56506e+111
-6.53314e+111
-8.08382e+111
-5.15418e+111
-2.34407e+111
-2.98678e+111
-5.81448e+111
-9.03386e+111
-1.12959e+112
-1.29551e+112
-1.51754e+112
-1.93665e+112
-2.73317e+112
-4.16231e+112
-6.61412e+112
-1.0727e+113
-1.71378e+113
-2.91166e+113
-4.72043e+113
-1.90585e+114
6.21218e+114
5.72778e+115
1.85736e+116
3.47308e+116
4.07702e+116
1.69057e+111
1.2391e+111
4.87078e+111
1.97783e+112
3.60102e+112
4.53989e+112
5.1773e+112
5.89634e+112
6.88802e+112
7.41215e+112
7.15619e+112
6.66266e+112
6.00391e+112
4.74255e+112
3.46864e+112
2.94103e+112
3.82365e+112
3.6999e+112
1.17451e+112
-2.86365e+112
-4.65935e+112
-3.79149e+112
-2.03413e+112
3.08033e+112
9.07288e+112
9.15411e+112
6.67857e+112
7.43706e+112
9.419e+112
1.15135e+113
1.4084e+113
1.47999e+113
6.89196e+112
1.25056e+112
-1.01001e+112
-3.13928e+112
-5.804e+112
-5.93145e+112
-6.40587e+112
-4.32492e+112
-2.5812e+112
-2.15381e+110
2.68568e+112
6.86748e+111
-1.10627e+112
-3.45188e+112
-5.06038e+112
-7.31264e+112
-7.74257e+112
-7.82157e+112
-5.97931e+112
-3.63201e+112
-1.7345e+112
-1.76596e+112
-1.06762e+112
-1.12478e+112
-1.18425e+112
-8.55098e+111
-3.58462e+111
-3.44002e+111
-6.3569e+111
-9.68135e+111
-1.17728e+112
-1.31102e+112
-1.5008e+112
-1.89499e+112
-2.67657e+112
-4.10673e+112
-6.57416e+112
-1.07273e+113