/*--------------------------------*- C++ -*----------------------------------*\
| =========                 |                                                 |
| \\      /  F ield         | OpenFOAM: The Open Source CFD Toolbox           |
|  \\    /   O peration     | Version:  4.1                                   |
|   \\  /    A nd           | Web:      www.OpenFOAM.org                      |
|    \\/     M anipulation  |                                                 |
\*---------------------------------------------------------------------------*/
FoamFile
{
    version     2.0;
    format      ascii;
    class       volScalarField;
    location    "27";
    object      p;
}
// * * * * * * * * * * * * * * * * * * * * * * * * * * * * * * * * * * * * * //

dimensions      [0 2 -2 0 0 0 0];

internalField   nonuniform List<scalar> 
225
(
523.378
469.981
418.149
369.738
324.847
282.83
243.476
206.472
171.377
138.013
107.072
78.9328
49.9039
14.985
-14.1672
56.9437
34.6828
28.9241
25.2139
19.7398
14.0323
8.87942
4.49067
1.00675
-1.452
-2.64329
-2.14163
-0.0451786
1.82636
2.08654
-45.8386
-52.4816
-46.7147
-42.5678
-39.4772
-35.8818
-31.9955
-28.0582
-24.1538
-20.4379
-17.0923
-14.0252
-10.9484
-8.29556
-7.06131
0.295159
-2.12287
2.46991
2.79408
2.84767
3.06286
2.97374
2.59644
2.01489
1.25572
0.298992
-0.810338
-1.72062
-1.87284
-1.56237
16.723
14.3903
15.944
13.846
12.4272
11.1836
9.77367
8.39182
7.13439
6.04334
5.14234
4.4298
3.95222
3.91951
4.16437
7.4949
5.47189
6.44586
5.22655
5.02356
5.0078
4.92002
4.95335
5.10894
5.35244
5.67173
6.03461
6.35427
6.61098
6.78571
4.02347
2.86806
3.95365
3.63056
4.01739
4.41152
4.7105
5.06116
5.41772
5.74249
6.03218
6.28609
6.46431
6.54533
6.56104
5.70134
5.14355
5.99789
5.76888
5.9674
6.0799
6.10381
6.14911
6.1737
6.16887
6.14517
6.11736
6.08371
6.03785
5.98936
6.00864
5.68325
6.19405
5.91815
5.96098
5.93015
5.85506
5.80795
5.75231
5.69172
5.63245
5.57932
5.53259
5.48649
5.43528
4.68895
4.48127
4.82693
4.65052
4.72328
4.73221
4.7193
4.72748
4.72487
4.71809
4.70848
4.69374
4.67153
4.63626
4.57853
3.31896
3.2028
3.50045
3.44654
3.56615
3.61283
3.64145
3.67641
3.69301
3.69988
3.69787
3.68534
3.66129
3.62304
3.5575
2.34497
2.28479
2.53903
2.54031
2.65863
2.70001
2.72908
2.75617
2.76372
2.76163
2.7502
2.72929
2.69942
2.66062
2.59596
1.56576
1.53076
1.73305
1.7468
1.84596
1.87235
1.89469
1.91181
1.91215
1.9053
1.89072
1.86847
1.83889
1.80415
1.74625
0.880899
0.868778
1.02968
1.03436
1.11137
1.12497
1.1428
1.15488
1.15433
1.14939
1.13851
1.12149
1.09651
1.06535
1.01111
0.438671
0.399378
0.455275
0.423203
0.459362
0.440677
0.434334
0.420269
0.399349
0.376644
0.350019
0.32132
0.290882
0.260939
0.217929
)
;

boundaryField
{
    inletFace
    {
        type            zeroGradient;
    }
    inlet
    {
        type            zeroGradient;
    }
    inletWalls
    {
        type            zeroGradient;
    }
    outletInlet
    {
        type            fixedValue;
        value           uniform 0;
    }
}


// ************************************************************************* //
