/*--------------------------------*- C++ -*----------------------------------*\
| =========                 |                                                 |
| \\      /  F ield         | OpenFOAM: The Open Source CFD Toolbox           |
|  \\    /   O peration     | Version:  4.1                                   |
|   \\  /    A nd           | Web:      www.OpenFOAM.org                      |
|    \\/     M anipulation  |                                                 |
\*---------------------------------------------------------------------------*/
FoamFile
{
    version     2.0;
    format      ascii;
    class       surfaceScalarField;
    location    "27";
    object      phi;
}
// * * * * * * * * * * * * * * * * * * * * * * * * * * * * * * * * * * * * * //

dimensions      [0 3 -1 0 0 0 0];

internalField   nonuniform List<scalar> 
420
(
-949.878
2249.78
-1573.95
1924.28
-2054
1779.95
-2424.23
1670.13
-2699.86
1575.82
-2888.37
1488.42
-2993.05
1404.58
-3013.85
1321
-2949.61
1235.66
-2797.22
1147.52
-2551.16
1054.13
-2192.99
941.735
-1687.14
794.065
-1012.67
625.705
287.239
373.329
1876.44
442.745
1854.86
437.303
1785.39
406.7
1700.74
380.583
1601.94
359.903
1509.1
345.297
1419.19
337.542
1328.76
333.489
1239.71
326.961
1154.05
309.62
1071.48
267.484
983.877
191.451
870.102
111.467
705.683
398.679
33.5749
1842.87
-97.3895
1985.83
-253.609
1941.62
-371.116
1818.24
-473.18
1704.01
-567.527
1603.45
-651.743
1503.4
-725.792
1402.8
-788.068
1301.99
-837.299
1203.28
-868.216
1102.4
-856.074
971.74
-740.319
754.35
-434.267
399.63
-35.6073
28.774
1814.09
-100.651
2115.26
-225.551
2066.53
-304.491
1897.18
-368.152
1767.67
-416.947
1652.25
-446.222
1532.68
-457.013
1413.59
-451.854
1296.83
-430.153
1181.59
-387.225
1059.47
-311.872
896.386
-192.862
635.34
-48.4072
255.169
-84.0201
169.624
1644.47
146.16
2138.72
123.739
2088.95
122.876
1898.04
126.95
1763.6
135.814
1643.38
149.11
1519.38
166.597
1396.11
186.946
1276.48
208.13
1160.4
229.128
1038.47
243.815
881.692
232.995
646.154
155.221
332.939
71.2094
223.074
1421.39
244.173
2117.62
234.742
2098.38
236.025
1896.76
240.374
1759.25
244.309
1639.45
246.552
1517.14
245.253
1397.4
241.164
1280.56
233.987
1167.57
221.373
1051.07
199.123
903.935
156.123
689.15
78.2987
410.779
149.515
203.313
1218.08
238.357
2082.57
213.608
2123.14
191.403
1918.97
177.196
1773.45
163.767
1652.87
150.036
1530.87
135.893
1411.54
121.068
1295.39
106.917
1181.72
92.8162
1065.17
75.7564
920.986
52.0117
712.899
19.0229
443.786
168.54
171.845
1046.24
221.966
2032.44
199.41
2145.7
170.398
1947.98
152.048
1791.8
137.668
1667.26
122.781
1545.76
108.583
1425.74
95.5888
1308.38
83.1105
1194.2
71.4911
1076.79
58.6379
933.835
40.3277
731.211
15.7598
468.363
184.292
146.088
900.148
210.044
1968.48
196.865
2158.88
170.047
1974.8
152.4
1809.45
139.532
1680.12
127.07
1558.22
113.865
1438.94
101.323
1320.92
89.4226
1206.1
76.9897
1089.22
63.0954
947.726
44.3134
749.987
19.173
493.497
203.457
116.756
783.396
184.838
1900.4
179.617
2164.1
154.305
2000.12
137.218
1826.54
124
1693.34
111.372
1570.85
98.9624
1451.35
86.1093
1333.77
73.8691
1218.33
62.1032
1100.98
49.0226
960.803
32.8539
766.152
13.1842
513.163
216.641
83.1572
700.244
143.121
1840.43
144.675
2162.55
122.755
2022.04
106.149
1843.14
94.4645
1705.03
82.5853
1582.73
71.1767
1462.75
60.3944
1344.55
49.4681
1229.26
39.4336
1111.01
29.7441
970.484
18.0797
777.812
5.2386
526.007
221.885
51.2436
649
97.9211
1793.75
102.706
2157.76
87.3806
2037.37
73.1526
1857.37
63.1454
1715.04
54.2475
1591.62
44.8687
1472.13
36.1585
1353.26
28.1824
1237.23
20.4316
1118.76
13.6871
977.22
6.74143
784.751
-0.404987
533.159
221.492
25.1339
623.857
57.7265
1761.15
63.5195
2151.96
53.4801
2047.42
43.8978
1866.95
36.183
1722.76
29.5505
1598.26
23.5009
1478.19
17.0533
1359.71
11.3076
1242.98
6.60563
1123.46
2.47165
981.352
-1.07297
788.305
-3.67745
535.786
217.82
1.42265
622.438
24.077
1738.51
33.3878
2142.66
27.7538
2053.05
20.3927
1874.31
15.0893
1728.06
9.55096
1603.79
4.59055
1483.14
0.0356076
1364.26
-4.83982
1247.86
-8.35737
1126.98
-9.67045
982.673
-9.72972
788.388
-7.13658
533.208
210.668
-11.7363
-3.12514
1.46961
-0.385592
-5.0801
-8.83304
-11.7818
-15.2228
-18.088
-20.225
-21.7896
-21.1259
-18.1412
-12.4122
)
;

boundaryField
{
    inletFace
    {
        type            calculated;
        value           nonuniform List<scalar> 
450
(
2.13739e-13
6.49329e-13
-2.22559e-13
-1.09943e-13
1.41575e-13
-2.07801e-13
-9.20063e-14
1.49715e-14
-1.78719e-13
-1.18103e-14
5.44123e-14
-5.85057e-14
1.73304e-15
1.27344e-14
-1.3273e-15
-2.87112e-12
-2.39782e-12
-4.37862e-14
-5.95279e-13
-2.83851e-13
7.67278e-15
-3.17254e-13
-2.02578e-13
-1.07791e-13
-2.91498e-13
-8.27805e-14
1.00586e-14
-7.32686e-14
-1.10557e-14
-1.29479e-15
-3.13213e-12
-2.67374e-12
-2.37629e-13
-6.56782e-13
-2.59893e-13
-1.24285e-13
-3.37076e-13
-1.95396e-13
-2.34613e-13
-2.52183e-13
-4.29667e-14
-4.46672e-14
-5.16722e-14
6.38751e-15
5.98551e-15
-3.40594e-12
-2.55559e-12
-3.64279e-13
-7.81498e-13
-2.35295e-13
-2.37374e-13
-4.70931e-13
-2.2246e-13
-2.9507e-13
-2.91414e-13
-6.65699e-14
-7.64076e-14
-9.00737e-14
4.49695e-14
1.03911e-13
-3.1378e-12
-2.58937e-12
-5.10072e-13
-7.26774e-13
-2.42869e-13
-2.57586e-13
-4.44255e-13
-2.37306e-13
-2.89159e-13
-2.7388e-13
-9.99724e-14
-7.15428e-14
-7.56143e-14
1.33856e-15
7.64924e-14
-2.75872e-12
-2.71409e-12
-7.19387e-13
-6.40884e-13
-2.42922e-13
-2.13408e-13
-4.0064e-13
-2.22648e-13
-2.36945e-13
-2.77427e-13
-1.20584e-13
-3.88221e-14
-4.69101e-14
1.06388e-14
5.6615e-14
-2.45475e-12
-2.84957e-12
-9.9238e-13
-6.21285e-13
-2.92896e-13
-2.26086e-13
-3.70443e-13
-2.51808e-13
-2.6904e-13
-2.78938e-13
-1.57732e-13
-8.37642e-14
-2.52452e-14
-6.01625e-14
-1.25288e-13
-2.14905e-12
-2.87683e-12
-1.23252e-12
-6.3252e-13
-3.26273e-13
-2.55689e-13
-3.4153e-13
-2.67732e-13
-2.95382e-13
-2.65524e-13
-1.89174e-13
-1.5938e-13
-2.78325e-14
-6.07052e-15
-2.17523e-13
-1.8222e-12
-2.84355e-12
-1.41883e-12
-6.64639e-13
-3.44438e-13
-2.47548e-13
-3.40034e-13
-2.66976e-13
-2.59731e-13
-2.6839e-13
-1.964e-13
-1.42775e-13
-6.53665e-14
-8.05257e-15
-6.47592e-14
-1.55543e-12
-2.77184e-12
-1.56115e-12
-7.14705e-13
-3.58214e-13
-2.32022e-13
-3.29102e-13
-2.68287e-13
-2.32503e-13
-2.71002e-13
-2.00876e-13
-1.14268e-13
-7.77057e-14
-2.73479e-14
3.1538e-14
-1.29139e-12
-2.67503e-12
-1.66647e-12
-7.4228e-13
-3.71883e-13
-2.23584e-13
-2.91028e-13
-2.67774e-13
-2.07589e-13
-2.1973e-13
-2.00438e-13
-8.48593e-14
-8.70946e-15
-1.36647e-14
1.07354e-13
-1.11559e-12
-2.58611e-12
-1.70727e-12
-7.82778e-13
-3.89761e-13
-2.00424e-13
-2.77727e-13
-2.70694e-13
-1.49683e-13
-1.97517e-13
-2.0453e-13
-2.03819e-14
1.27467e-14
1.10892e-13
1.60115e-13
-1.01399e-12
-2.5055e-12
-1.73418e-12
-8.15338e-13
-3.99777e-13
-1.96514e-13
-2.71095e-13
-2.80209e-13
-1.42008e-13
-1.87448e-13
-1.9406e-13
3.95892e-15
1.14141e-14
1.26211e-13
1.59861e-13
-9.38421e-13
-2.43282e-12
-1.75074e-12
-8.24477e-13
-4.04646e-13
-2.01303e-13
-2.61022e-13
-2.90867e-13
-1.40437e-13
-1.83964e-13
-1.90718e-13
1.30443e-14
1.47433e-14
1.13422e-13
1.32765e-13
-9.00892e-13
-2.32474e-12
-1.72343e-12
-8.27781e-13
-4.01644e-13
-2.04957e-13
-2.5822e-13
-2.75707e-13
-1.42264e-13
-1.79514e-13
-1.66994e-13
5.36353e-15
2.06406e-14
1.10355e-13
7.74498e-14
-2.13739e-13
-6.49329e-13
2.22559e-13
1.09943e-13
-1.41575e-13
2.07801e-13
9.20063e-14
-1.49715e-14
1.78719e-13
1.18103e-14
-5.44123e-14
5.85057e-14
-1.73304e-15
-1.27344e-14
1.3273e-15
2.87112e-12
2.39782e-12
4.37862e-14
5.95279e-13
2.83851e-13
-7.67278e-15
3.17254e-13
2.02578e-13
1.07791e-13
2.91498e-13
8.27805e-14
-1.00586e-14
7.32686e-14
1.10557e-14
1.29479e-15
3.13213e-12
2.67374e-12
2.37629e-13
6.56782e-13
2.59893e-13
1.24285e-13
3.37076e-13
1.95396e-13
2.34613e-13
2.52183e-13
4.29667e-14
4.46672e-14
5.16722e-14
-6.38751e-15
-5.98551e-15
3.40594e-12
2.55559e-12
3.64279e-13
7.81498e-13
2.35295e-13
2.37374e-13
4.70931e-13
2.2246e-13
2.9507e-13
2.91414e-13
6.65699e-14
7.64076e-14
9.00737e-14
-4.49695e-14
-1.03911e-13
3.1378e-12
2.58937e-12
5.10072e-13
7.26774e-13
2.42869e-13
2.57586e-13
4.44255e-13
2.37306e-13
2.89159e-13
2.7388e-13
9.99724e-14
7.15428e-14
7.56143e-14
-1.33856e-15
-7.64924e-14
2.75872e-12
2.71409e-12
7.19387e-13
6.40884e-13
2.42922e-13
2.13408e-13
4.0064e-13
2.22648e-13
2.36945e-13
2.77427e-13
1.20584e-13
3.88221e-14
4.69101e-14
-1.06388e-14
-5.6615e-14
2.45475e-12
2.84957e-12
9.9238e-13
6.21285e-13
2.92896e-13
2.26086e-13
3.70443e-13
2.51808e-13
2.6904e-13
2.78938e-13
1.57732e-13
8.37642e-14
2.52452e-14
6.01625e-14
1.25288e-13
2.14905e-12
2.87683e-12
1.23252e-12
6.3252e-13
3.26273e-13
2.55689e-13
3.4153e-13
2.67732e-13
2.95382e-13
2.65524e-13
1.89174e-13
1.5938e-13
2.78325e-14
6.07052e-15
2.17523e-13
1.8222e-12
2.84355e-12
1.41883e-12
6.64639e-13
3.44438e-13
2.47548e-13
3.40034e-13
2.66976e-13
2.59731e-13
2.6839e-13
1.964e-13
1.42775e-13
6.53665e-14
8.05257e-15
6.47592e-14
1.55543e-12
2.77184e-12
1.56115e-12
7.14705e-13
3.58214e-13
2.32022e-13
3.29102e-13
2.68287e-13
2.32503e-13
2.71002e-13
2.00876e-13
1.14268e-13
7.77057e-14
2.73479e-14
-3.1538e-14
1.29139e-12
2.67503e-12
1.66647e-12
7.4228e-13
3.71883e-13
2.23584e-13
2.91028e-13
2.67774e-13
2.07589e-13
2.1973e-13
2.00438e-13
8.48593e-14
8.70946e-15
1.36647e-14
-1.07354e-13
1.11559e-12
2.58611e-12
1.70727e-12
7.82778e-13
3.89761e-13
2.00424e-13
2.77727e-13
2.70694e-13
1.49683e-13
1.97517e-13
2.0453e-13
2.03819e-14
-1.27467e-14
-1.10892e-13
-1.60115e-13
1.01399e-12
2.5055e-12
1.73418e-12
8.15338e-13
3.99777e-13
1.96514e-13
2.71095e-13
2.80209e-13
1.42008e-13
1.87448e-13
1.9406e-13
-3.95892e-15
-1.14141e-14
-1.26211e-13
-1.59861e-13
9.38421e-13
2.43282e-12
1.75074e-12
8.24477e-13
4.04646e-13
2.01303e-13
2.61022e-13
2.90867e-13
1.40437e-13
1.83964e-13
1.90718e-13
-1.30443e-14
-1.47433e-14
-1.13422e-13
-1.32765e-13
9.00892e-13
2.32474e-12
1.72343e-12
8.27781e-13
4.01644e-13
2.04957e-13
2.5822e-13
2.75707e-13
1.42264e-13
1.79514e-13
1.66994e-13
-5.36353e-15
-2.06406e-14
-1.10355e-13
-7.74498e-14
)
;
    }
    inlet
    {
        type            calculated;
        value           nonuniform List<scalar> 
15
(
-1299.9
-1300.2
-1299.9
-1299.9
-1300.2
-1299.9
-1299.9
-1300.2
-1299.9
-1299.9
-1300.2
-1299.9
-1299.9
-1300.2
-1299.9
)
;
    }
    inletWalls
    {
        type            calculated;
        value           uniform 0;
    }
    outletInlet
    {
        type            calculated;
        value           nonuniform List<scalar> 
15
(
198.262
527.466
785.4
982.012
1128.54
1249.99
1367.13
1486.58
1606.74
1731.81
1879.01
2054.9
2138.07
1729.91
634.177
)
;
    }
}


// ************************************************************************* //
