/*--------------------------------*- C++ -*----------------------------------*\
| =========                 |                                                 |
| \\      /  F ield         | OpenFOAM: The Open Source CFD Toolbox           |
|  \\    /   O peration     | Version:  4.1                                   |
|   \\  /    A nd           | Web:      www.OpenFOAM.org                      |
|    \\/     M anipulation  |                                                 |
\*---------------------------------------------------------------------------*/
FoamFile
{
    version     2.0;
    format      ascii;
    class       volVectorField;
    location    "27";
    object      U;
}
// * * * * * * * * * * * * * * * * * * * * * * * * * * * * * * * * * * * * * //

dimensions      [0 1 -1 0 0 0 0];

internalField   nonuniform List<vector> 
225
(
(1.50669e-14 0.852194 15.7946)
(8.78831e-15 -4.89458 12.1215)
(-2.26915e-15 -4.19551 12.1321)
(4.20065e-15 -3.60119 11.9966)
(6.2343e-16 -3.00468 11.8778)
(-9.43074e-17 -2.5532 11.6992)
(2.13323e-15 -2.20882 11.4769)
(6.40874e-16 -1.96604 11.2116)
(4.81632e-16 -1.79856 10.916)
(1.64807e-15 -1.71239 10.5882)
(3.93445e-17 -1.83747 10.1561)
(-5.2704e-17 -2.28569 9.53761)
(5.21131e-16 -2.51304 8.96377)
(-8.81581e-17 -1.06555 8.91357)
(9.18868e-18 1.76575 7.47094)
(2.05658e-14 -5.35015 22.4929)
(1.66015e-14 -14.6049 21.394)
(3.03123e-16 -13.2708 20.3411)
(4.49466e-15 -11.7697 19.5066)
(1.96527e-15 -11.1561 18.5043)
(-5.31171e-17 -10.6594 17.5174)
(2.30704e-15 -10.0901 16.5714)
(1.40257e-15 -9.52501 15.6236)
(7.46215e-16 -8.96545 14.6638)
(1.98527e-15 -8.36731 13.6946)
(5.73139e-16 -7.7571 12.7178)
(-6.96339e-17 -7.30336 11.7194)
(5.06525e-16 -7.01707 10.6244)
(7.65453e-17 -5.73097 9.16113)
(8.96358e-18 -2.30505 4.58323)
(2.37289e-14 -7.71565 23.9801)
(1.81142e-14 -16.7731 24.6729)
(1.64525e-15 -13.7365 23.9372)
(5.68629e-15 -12.3062 22.6249)
(1.79919e-15 -11.6447 21.2414)
(8.60502e-16 -10.814 20.0013)
(3.47351e-15 -9.94026 18.7738)
(1.35269e-15 -9.10011 17.5247)
(1.62437e-15 -8.28338 16.2654)
(2.53497e-15 -7.47525 15.0263)
(4.99776e-16 -6.66762 13.8176)
(3.09258e-16 -5.84166 12.4301)
(7.20209e-16 -4.81391 10.2752)
(-4.42196e-17 -3.12628 6.68441)
(-4.14414e-17 -0.832151 1.68991)
(2.35725e-14 -8.50258 22.0462)
(1.7692e-14 -16.6211 24.332)
(2.52186e-15 -12.93 23.7971)
(5.41084e-15 -12.1536 21.9986)
(1.55771e-15 -11.4201 20.5028)
(1.69195e-15 -10.4936 19.1722)
(3.26057e-15 -9.63389 17.8167)
(1.46107e-15 -8.8236 16.459)
(2.07058e-15 -8.05363 15.123)
(2.00276e-15 -7.32378 13.8164)
(4.52723e-16 -6.55248 12.4394)
(5.19603e-16 -5.49088 10.583)
(5.98816e-16 -3.78524 7.50864)
(-1.18699e-16 -1.49362 2.76595)
(-1.03418e-15 0.153323 -1.77304)
(2.15108e-14 -8.47614 19.748)
(1.77546e-14 -16.3601 24.312)
(3.35279e-15 -13.099 23.6602)
(4.8367e-15 -12.628 21.5365)
(1.37045e-15 -11.8565 20.0248)
(1.56342e-15 -10.9574 18.6637)
(2.95861e-15 -10.1698 17.2587)
(1.39431e-15 -9.40279 15.8711)
(1.86944e-15 -8.6526 14.5236)
(1.8255e-15 -7.93052 13.2136)
(5.40657e-16 -7.16587 11.8292)
(3.25958e-16 -6.11613 9.99625)
(4.17126e-16 -4.42397 7.15548)
(-3.67454e-16 -2.30519 3.28774)
(-1.26193e-15 -0.787117 0.317605)
(1.93224e-14 -8.02191 17.5536)
(1.88312e-14 -16.0195 24.5277)
(5.10784e-15 -13.6434 24.0461)
(4.43676e-15 -12.9943 21.7651)
(1.73084e-15 -12.1264 20.2158)
(1.58161e-15 -11.2247 18.847)
(2.77358e-15 -10.439 17.4341)
(1.60065e-15 -9.64889 16.0434)
(1.8318e-15 -8.86036 14.6933)
(1.92059e-15 -8.09325 13.3817)
(9.10269e-16 -7.29729 12.0171)
(5.27561e-16 -6.28454 10.2817)
(2.14546e-16 -4.73291 7.72077)
(2.8397e-16 -2.756 4.37227)
(6.15971e-16 -0.949341 1.29727)
(1.71287e-14 -7.33744 15.2535)
(1.97272e-14 -15.491 24.355)
(6.95469e-15 -14.0225 24.4218)
(4.30158e-15 -13.1278 22.0675)
(2.07799e-15 -12.1447 20.4401)
(1.72674e-15 -11.2358 19.0547)
(2.56483e-15 -10.4361 17.6437)
(1.80599e-15 -9.61982 16.2576)
(1.99899e-15 -8.81014 14.9066)
(1.93128e-15 -8.02722 13.5919)
(1.25684e-15 -7.22395 12.2368)
(9.5888e-16 -6.24023 10.5488)
(1.7479e-16 -4.78742 8.10738)
(4.16726e-17 -2.91402 4.947)
(2.13973e-15 -1.01086 1.79737)
(1.46923e-14 -6.55626 13.033)
(1.99177e-14 -14.847 23.8164)
(8.49017e-15 -14.2638 24.669)
(4.33225e-15 -13.2372 22.3215)
(2.25894e-15 -12.1674 20.5831)
(1.66167e-15 -11.2657 19.1666)
(2.42271e-15 -10.4651 17.7586)
(1.85363e-15 -9.64313 16.3765)
(1.90722e-15 -8.83492 15.0245)
(1.83814e-15 -8.05528 13.7073)
(1.30974e-15 -7.255 12.3576)
(9.13083e-16 -6.28689 10.6995)
(3.12389e-16 -4.89097 8.3309)
(4.20291e-17 -3.08519 5.26759)
(1.0092e-15 -1.12221 2.04393)
(1.26148e-14 -5.77838 11.1238)
(1.96855e-14 -14.1745 23.0906)
(9.6977e-15 -14.4412 24.8462)
(4.60121e-15 -13.3963 22.6148)
(2.3845e-15 -12.2528 20.7553)
(1.55262e-15 -11.3493 19.2955)
(2.35401e-15 -10.5477 17.8904)
(1.84824e-15 -9.72541 16.5109)
(1.59439e-15 -8.91941 15.1561)
(1.85803e-15 -8.14021 13.8351)
(1.35966e-15 -7.33993 12.4863)
(7.07936e-16 -6.38013 10.8512)
(4.52525e-16 -5.02347 8.54663)
(5.5747e-17 -3.26571 5.5582)
(-1.76191e-16 -1.23749 2.24758)
(1.04697e-14 -5.08503 9.59938)
(1.91891e-14 -13.5192 22.3001)
(1.07655e-14 -14.5349 24.9522)
(4.8112e-15 -13.553 22.9352)
(2.47988e-15 -12.3447 20.9698)
(1.55242e-15 -11.425 19.4565)
(2.16268e-15 -10.6173 18.0505)
(1.85732e-15 -9.79441 16.672)
(1.47344e-15 -8.98821 15.3135)
(1.65315e-15 -8.20617 13.9873)
(1.39064e-15 -7.40467 12.6355)
(6.03832e-16 -6.45138 11.0131)
(1.90041e-16 -5.12511 8.75489)
(1.89326e-16 -3.40639 5.81929)
(-8.18756e-16 -1.31898 2.43079)
(8.78999e-15 -4.53881 8.46241)
(1.857e-14 -12.9256 21.5505)
(1.1408e-14 -14.5348 24.9757)
(5.1156e-15 -13.6653 23.2208)
(2.62507e-15 -12.4127 21.1811)
(1.38475e-15 -11.4735 19.612)
(2.01469e-15 -10.6589 18.2003)
(1.9172e-15 -9.8369 16.8208)
(1.16204e-15 -9.032 15.4584)
(1.52112e-15 -8.2485 14.1268)
(1.47067e-15 -7.44641 12.769)
(2.09677e-16 -6.49761 11.1496)
(6.02928e-17 -5.1924 8.91816)
(-5.71537e-16 -3.50167 6.01022)
(-1.30178e-15 -1.36369 2.54237)
(7.72309e-15 -4.17056 7.70294)
(1.79551e-14 -12.4379 20.9279)
(1.17769e-14 -14.4733 24.9365)
(5.41908e-15 -13.7315 23.4377)
(2.72368e-15 -12.4591 21.3592)
(1.30522e-15 -11.5038 19.7404)
(1.92267e-15 -10.6832 18.3205)
(1.9699e-15 -9.86351 16.939)
(1.00161e-15 -9.06111 15.5728)
(1.36739e-15 -8.27756 14.2363)
(1.41594e-15 -7.47485 12.8708)
(-1.77783e-18 -6.52673 11.2463)
(-2.97522e-17 -5.23288 9.02621)
(-8.50703e-16 -3.55783 6.12586)
(-1.44828e-15 -1.37727 2.57257)
(6.9213e-15 -3.97345 7.27979)
(1.73184e-14 -12.0682 20.4612)
(1.20278e-14 -14.3843 24.8625)
(5.59829e-15 -13.7599 23.5827)
(2.76761e-15 -12.4875 21.4969)
(1.36045e-15 -11.5229 19.8406)
(1.84707e-15 -10.6965 18.412)
(2.03669e-15 -9.8799 17.0278)
(9.48062e-16 -9.08047 15.6583)
(1.29783e-15 -8.29714 14.3169)
(1.38562e-15 -7.49305 12.942)
(-7.53546e-17 -6.542 11.3059)
(-7.90275e-17 -5.25077 9.08405)
(-7.91224e-16 -3.57867 6.1752)
(-1.25469e-15 -1.36519 2.53886)
(6.44916e-15 -3.90366 7.11022)
(1.68297e-14 -11.8312 20.1816)
(1.20972e-14 -14.2998 24.79)
(5.69577e-15 -13.7668 23.6685)
(2.78862e-15 -12.5019 21.5899)
(1.39355e-15 -11.532 19.9096)
(1.82204e-15 -10.7004 18.4746)
(1.99753e-15 -9.88548 17.0884)
(9.72198e-16 -9.08788 15.7173)
(1.29274e-15 -8.304 14.3729)
(1.29938e-15 -7.49774 12.9906)
(-9.03011e-17 -6.54304 11.3433)
(-7.30338e-17 -5.25327 9.11709)
(-8.2613e-16 -3.58361 6.20152)
(-9.19087e-16 -1.35017 2.50654)
(6.22196e-15 -4.03932 7.28661)
(1.60869e-14 -11.6269 19.9519)
(1.19382e-14 -14.1916 24.6679)
(5.73063e-15 -13.7464 23.7083)
(2.77401e-15 -12.5065 21.6737)
(1.42609e-15 -11.5393 19.9773)
(1.78763e-15 -10.6995 18.535)
(1.9006e-15 -9.88693 17.1437)
(9.93718e-16 -9.09047 15.7694)
(1.24275e-15 -8.30491 14.4183)
(1.15089e-15 -7.48986 13.0147)
(-3.12492e-17 -6.51521 11.328)
(-1.42893e-16 -5.20584 9.06106)
(-7.74157e-16 -3.50149 6.0826)
(-5.1711e-16 -1.25239 2.30718)
)
;

boundaryField
{
    inletFace
    {
        type            zeroGradient;
    }
    inlet
    {
        type            fixedValue;
        value           uniform (0 8.7 15);
    }
    inletWalls
    {
        type            noSlip;
    }
    outletInlet
    {
        type            zeroGradient;
    }
}


// ************************************************************************* //
