/*--------------------------------*- C++ -*----------------------------------*\
| =========                 |                                                 |
| \\      /  F ield         | OpenFOAM: The Open Source CFD Toolbox           |
|  \\    /   O peration     | Version:  4.1                                   |
|   \\  /    A nd           | Web:      www.OpenFOAM.org                      |
|    \\/     M anipulation  |                                                 |
\*---------------------------------------------------------------------------*/
FoamFile
{
    version     2.0;
    format      ascii;
    class       surfaceScalarField;
    location    "24";
    object      phi;
}
// * * * * * * * * * * * * * * * * * * * * * * * * * * * * * * * * * * * * * //

dimensions      [0 3 -1 0 0 0 0];

internalField   nonuniform List<scalar> 
13220
(
-906.842
2206.74
-1504.66
1898.02
-1985.11
1780.36
-2354.93
1669.72
-2630.26
1575.53
-2818.69
1488.33
-2923.49
1404.7
-2944.46
1321.17
-2880.27
1235.72
-2727.82
1147.45
-2482.44
1054.82
-2127.44
944.894
-1626.87
799.341
-956.014
629.343
343.886
423.566
1783.19
466.663
1854.93
450.479
1796.55
411.044
1709.16
378.606
1607.98
352.493
1514.46
333.237
1423.97
321.536
1332.88
314.108
1243.16
304.795
1156.78
285.451
1074.17
242.342
988.017
165.848
875.851
88.5435
706.665
432.43
181.129
1602.07
20.9893
2015.08
-139.998
1957.55
-258.587
1827.76
-362.833
1712.24
-459.862
1611.5
-546.938
1511.06
-624.459
1410.42
-690.603
1309.31
-742.924
1209.11
-777.133
1108.4
-774.504
985.412
-684.639
786.018
-432.7
454.765
-0.269715
215.867
1386.21
135.923
2095.04
1.90406
2091.58
-93.4838
1923.16
-169.593
1788.36
-229.617
1671.54
-269.489
1550.94
-289.419
1430.36
-291.398
1311.31
-275.914
1193.64
-241.744
1074.24
-184.111
927.797
-101.161
703.092
-9.77572
363.409
-10.0449
282.46
1103.76
348.957
2028.55
326.03
2114.51
305.55
1943.65
296.121
1797.8
292.582
1675.09
292.641
1550.9
296.607
1426.4
303.272
1304.65
310.702
1186.22
318.273
1066.67
320.27
925.826
297
726.393
215.886
444.557
205.841
248.775
854.993
359.087
1918.25
370.046
2103.56
350.776
1962.94
335.675
1812.91
324.716
1686.06
313.346
1562.27
299.29
1440.47
283.439
1320.51
265.79
1203.88
244.951
1087.52
219.019
951.743
177.733
767.662
109.09
513.184
314.931
131.017
723.986
214.036
1835.23
238.758
2078.85
216.422
1985.28
193.058
1836.28
173.353
1705.77
154.775
1580.86
136.678
1458.57
118.784
1338.41
102.478
1220.19
87.808
1102.18
75.1412
964.444
61.2098
781.628
44.5499
529.877
359.481
35.7735
688.219
85.4637
1785.55
125.42
2038.89
115.297
1995.41
100.023
1851.55
88.2247
1717.57
76.4845
1592.59
65.7053
1469.35
56.2151
1347.9
47.1166
1229.28
39.3639
1109.94
35.7152
968.056
32.5156
784.792
28.4132
533.946
387.894
11.9313
676.293
49.9319
1747.55
94.2326
1994.6
94.3258
1995.32
84.9774
1860.91
77.1443
1725.41
69.9792
1599.77
62.2491
1477.08
55.0598
1355.09
48.2655
1236.09
41.1917
1117.01
38.7908
970.508
37.3569
786.275
28.9615
542.387
416.855
28.2138
648.076
70.3065
1705.46
108.985
1955.92
110.108
1994.19
100.507
1870.51
89.9584
1735.95
80.4629
1609.26
71.704
1485.84
62.5059
1364.29
53.9272
1244.66
46.0719
1124.87
42.6459
973.882
40.4414
788.428
29.0957
553.685
445.951
42.247
605.817
85.5968
1662.1
118.018
1923.49
118.549
1993.65
107.891
1881.15
96.223
1747.61
84.4213
1621.05
73.5505
1496.69
63.2468
1374.57
52.9201
1254.97
44.0549
1133.71
41.5155
976.438
39.4234
790.527
26.726
566.387
472.676
22.7172
583.079
48.7278
1636.07
68.7875
1903.41
63.4114
1999.01
49.3208
1895.22
35.2334
1761.68
24.0474
1632.21
13.9453
1506.78
5.9287
1382.56
0.320486
1260.55
-3.36988
1137.39
2.25288
970.746
11.6176
781.096
12.679
565.265
485.355
-8.39653
591.454
17.0382
1610.62
34.845
1885.59
40.1018
1993.74
35.5121
1899.8
23.4493
1773.72
9.50681
1646.14
-3.29188
1519.56
-15.9815
1395.24
-26.0192
1270.57
-26.537
1137.89
-14.9607
959.166
-0.518586
766.645
-8.15974
572.897
477.195
-208.551
799.99
-342.675
1744.73
-428.001
1970.9
-489.638
2055.37
-521.081
1931.23
-534.169
1786.8
-532.37
1644.33
-520.787
1507.97
-497.15
1371.6
-459.115
1232.53
-381.927
1060.7
-281.359
858.577
-173.936
659.202
-90.4785
489.421
386.717
-218.507
-81.8346
-75.3722
-107.88
-214.763
-338.884
-451.948
-540.192
-595.116
-578.931
-539.537
-452.145
-348.399
-220.067
0.000126484
231.882
-231.881
231.882
231.882
231.882
447.376
-215.494
447.376
447.376
447.377
650.196
-202.819
650.196
650.196
830.259
-180.063
830.259
830.259
830.259
986.654
-156.394
986.654
986.654
1116.4
-129.744
1116.4
1116.4
1116.4
1222.13
-105.73
1222.13
1222.13
1222.13
1304.78
-82.6508
1304.78
1304.78
1359.65
-54.8691
1359.65
1359.65
1359.65
1393.15
-33.4972
1393.15
1393.15
1397.14
-3.99716
1397.14
1397.14
1397.15
1375.91
21.2369
1375.91
1375.91
1375.91
1322.84
53.0656
1322.84
1322.84
1236.79
86.0583
1236.79
1236.79
1236.79
1114.2
122.588
1114.2
1114.2
1114.2
950.413
163.786
950.413
950.413
744.995
205.418
744.995
744.995
744.995
504.902
240.094
504.902
504.902
234.394
270.508
234.395
234.395
234.395
-73.4772
307.873
-73.4761
-73.476
-73.4747
-574.377
500.901
-574.375
-574.377
-1222.52
648.141
-1222.52
-1222.52
-1200.09
-1167.14
-1141.75
-2185.22
1070.71
-2137.71
-2083.2
-2018.88
-1952.95
-1886.16
-1815.58
-1730.6
-1635.28
-3177.84
1638.84
-3063.6
-2953.02
-2841.24
-2704.07
-2565.12
-2422.38
-2272.06
-2120.92
-4235.48
2284.28
-4043.08
-3850.78
-3657.08
-3461.97
-3257.66
-3037.52
-2813.75
-2581.92
-2347.63
-4996.06
2882.48
-4732.16
-4466.19
-4198.38
-3930.29
-3661.76
-3378.65
-3081.06
-2778.62
-5787.05
3304.82
-5482.28
-5169.23
-4843.55
-4515.39
-4186.39
-3856.4
-3518.49
-3156.81
-6349.26
3545.53
-5991.68
-5632.37
-5273.75
-4900.19
-4519.37
-4138.52
-3754.6
-3366.14
-6383.72
3403.32
-5993.37
-5598.31
-5205.49
-4816.64
-4431.84
-4050.71
-3673.44
-3301.92
-2930.65
-4678.42
2104.11
-4359.13
-4043.57
-3738.47
-3438.79
-3143.7
-2883.35
-2689.89
-2488.88
-2059.08
-228.106
-1893.06
-1724.75
-1724.75
-1646.31
-78.4416
-1659.59
13.2773
-1659.59
-1683.97
24.3784
-1683.97
-1723.44
39.4701
-1810.44
87.0058
-1810.44
-1896.29
85.8455
-1960.78
64.4923
-1960.78
-2028.55
67.7673
-2028.55
-2101.58
73.0293
-2148.44
46.8607
-2148.44
-2201.19
52.7582
-2201.19
-2259.99
58.7934
-2286.01
26.0245
-2286.01
-2323.83
37.8181
-2328.2
4.37335
-2328.2
-2329.17
0.965805
-2329.17
-2336.55
7.38072
-2313.69
-22.8595
-2313.69
-2291.23
-22.4575
-2291.23
-2277.65
-13.5774
-2242.52
-35.1333
-2242.52
-2230.87
-11.6471
-2198.55
-32.3196
-2198.55
-2158.62
-39.9392
-2158.62
-2134.86
-23.7574
-2092.09
-42.7728
-2092.09
-2045.16
-46.9278
-2045.16
-2010.09
-35.0663
-1957.39
-52.7028
-1957.39
-1934.41
-22.9793
-1888.92
-45.4937
-1888.92
-1838.28
-50.6326
-1838.28
-1814.21
-24.0749
-1766.65
-47.5576
-1766.65
-1725.16
-41.4904
-1725.16
-1707.94
-17.2192
-1668.53
-39.4083
-1668.53
-1649.78
-18.7574
-1602.59
-47.181
-1602.59
-1533.72
-68.8738
-1533.72
-1437.97
-95.7487
-1310.02
-127.948
-1310.02
-1112.44
-197.584
-1112.44
-855.929
-256.51
-582.046
-273.883
-582.046
-213.287
-368.759
194.861
-408.148
194.861
635.087
-440.226
635.087
-492.639
-2139.11
337.523
-2150.97
320.979
-2159.77
333.26
-2168.61
337.255
-2176.86
348.914
-2184.76
364.882
-2192.34
386.521
-2199.71
413.737
-2206.96
446.821
-2214.19
485.99
-2221.51
531.571
-2229.03
584
-2236.88
643.783
-2245.24
711.666
-2254.3
788.373
-2264.32
874.845
-2275.6
972.191
-2288.55
1081.64
-2303.63
1204.62
-2321.37
1342.77
-2342.23
1497.66
-2366.45
1670.96
-2393.62
1863.63
-2422.18
2075.53
-2448.65
2304.11
-2466.8
2542.87
-2467.09
2779.06
-2436.64
2990.14
-2360.2
3138.06
-2222.03
3163.51
-2007.06
2980.16
-1693.86
2453.72
-1219.7
1332.29
-573.755
-645.185
-225.129
-380.374
-220.297
46.2234
-272.208
333.014
-239.462
1730.91
-250.109
3641.66
-377.83
4670.08
-908.618
-4698.81
-1140.71
-1744.21
-1161.66
838.04
-1226.3
1458.92
-1367.76
2309.82
-1544.37
2714.97
-1736.27
3186.64
-1941.2
3726.98
-2163.69
4444.86
-2376.8
5525.6
-2546.16
6823.67
-2683.76
8144.58
-2820.88
9293.96
-2929.53
10073.7
-2911.24
10394.8
-2675.52
10154.3
-2227.93
9126.62
-1697.15
7143.8
-1247.84
4349.9
-891.269
668.964
-969.347
-2410.55
-902.566
-754.055
-681.807
-60.818
-484.878
-130.92
-278.785
39.0901
-150.115
474.146
-142.089
603.631
-91.596
642.086
-12.9062
681.845
71.2867
808.598
142.286
851.169
194.02
1568.32
232.684
1634.34
274.031
1578.77
273.971
1608.7
204.898
1198.78
154.668
568.474
299.894
-316.211
1397.91
-2163.94
348.878
-2175.22
332.263
-2183.28
341.311
-2191.09
345.07
-2198.35
356.17
-2205.3
371.837
-2212.04
393.262
-2218.7
420.391
-2225.38
453.498
-2232.19
492.801
-2239.25
538.638
-2246.7
591.451
-2254.68
651.758
-2263.36
720.35
-2272.96
797.972
-2283.74
885.621
-2296.01
984.465
-2310.16
1095.79
-2326.6
1221.06
-2345.72
1361.89
-2367.73
1519.67
-2392.43
1695.67
-2418.82
1890.02
-2444.48
2101.19
-2464.92
2324.55
-2472.85
2550.81
-2457.76
2763.97
-2405.97
2938.35
-2301.13
3033.21
-2123.16
2985.54
-1841.54
2698.54
-1393.01
2005.18
-662.944
602.226
-229.524
-1078.6
-230.002
-379.896
-265.953
82.1746
-358.948
426.009
-408.549
1780.51
-473.692
3706.81
-250.498
4446.88
-954.555
-3994.75
-1195.28
-1503.48
-1191.69
834.449
-1292.24
1559.47
-1394.91
2412.5
-1557.06
2877.12
-1742.85
3372.43
-1954.09
3938.23
-2200.41
4691.18
-2435.4
5760.59
-2622.46
7010.73
-2766.55
8288.67
-2883.54
9410.94
-2953.79
10143.9
-2900.33
10341.3
-2640.41
9894.34
-2171.09
8657.3
-1593.46
6566.17
-1025.83
3782.27
-682.181
325.318
-1042.92
-2049.81
-1098.85
-698.134
-895.301
-264.362
-689.157
-337.064
-428.785
-221.282
-165.711
211.073
-102.752
540.672
-75.6352
614.969
-16.0504
622.261
37.6761
754.872
113.474
775.371
184.727
1497.07
223.054
1596.02
259.949
1541.87
268.893
1599.76
217.879
1249.79
131.973
654.381
194.488
-378.726
1152.17
-2191.53
360.485
-2201.5
342.229
-2208.76
348.576
-2215.71
352.023
-2222.18
362.636
-2228.42
378.079
-2234.56
399.4
-2240.73
426.561
-2247.05
459.823
-2253.66
499.407
-2260.68
545.659
-2268.26
599.027
-2276.55
660.051
-2285.75
729.547
-2296.06
808.29
-2307.76
897.315
-2321.13
997.834
-2336.48
1111.15
-2354.09
1238.67
-2374.11
1381.91
-2396.36
1541.92
-2420.07
1719.37
-2443.42
1913.37
-2463.02
2120.8
-2473.26
2334.79
-2465.73
2543.28
-2428.91
2727.15
-2348.12
2857.56
-2204.95
2890.04
-1973.57
2754.17
-1610.26
2335.23
-1036.46
1431.39
-199.84
-234.391
-56.6046
-1221.84
-281.191
-155.309
-321.827
122.81
-398.583
502.765
-475.861
1857.78
-522.422
3753.37
-273.896
4198.36
-966.399
-3302.25
-1225.27
-1244.61
-1248.47
857.646
-1355.19
1666.19
-1463.47
2520.77
-1618.77
3032.42
-1798.95
3552.62
-2009.09
4148.37
-2251.21
4933.3
-2479.53
5988.91
-2666.85
7198.06
-2816.05
8437.86
-2926.6
9521.49
-2966.51
10183.8
-2865.2
10240
-2561.32
9590.46
-2070.08
8166.06
-1483.84
5979.93
-890.383
3188.81
-688.226
123.161
-1166.63
-1571.41
-1231.02
-633.745
-1073.07
-422.315
-886.657
-523.475
-602.17
-505.769
-203.004
-188.093
-12.2065
349.874
-22.5071
625.269
-8.7161
608.47
26.0555
720.1
95.4163
706.011
175.358
1417.13
214.551
1556.82
248.462
1507.96
263.255
1584.96
222.782
1290.26
127.951
749.212
162.194
-412.97
906.22
-2217.26
370.771
-2226.13
351.098
-2232.96
355.402
-2239.46
358.528
-2245.57
368.739
-2251.54
384.052
-2257.52
405.376
-2263.64
432.682
-2270.04
466.221
-2276.85
506.219
-2284.21
553.021
-2292.26
607.078
-2301.19
668.976
-2311.16
739.519
-2322.39
819.525
-2335.11
910.033
-2349.54
1012.26
-2365.87
1127.47
-2384.14
1256.95
-2404.16
1401.93
-2425.29
1563.04
-2446.06
1740.14
-2463.8
1931.12
-2474.14
2131.13
-2470.37
2331.02
-2443.06
2515.97
-2379.63
2663.72
-2264.06
2741.98
-2075.38
2701.37
-1782.97
2461.75
-1339.95
1892.21
-688.61
780.044
-75.6416
-847.359
-140.654
-1156.83
-310.045
14.081
-341.525
154.291
-441.421
602.661
-535.844
1952.21
-558.164
3775.69
-312.589
3952.78
-979.984
-2634.85
-1245.57
-979.021
-1299.12
911.192
-1414.96
1782.04
-1531.11
2636.92
-1682.94
3184.25
-1860.61
3730.29
-2069.57
4357.32
-2304.36
5168.1
-2524.34
6208.89
-2711.4
7385.11
-2862.9
8589.37
-2961.86
9620.45
-2965.95
10187.9
-2813.13
10087.2
-2465.7
9243.03
-1957.04
7657.4
-1370.84
5393.73
-785.254
2603.23
-740.377
78.283
-1284.35
-1027.43
-1378.47
-539.625
-1272.27
-528.513
-1108.25
-687.497
-835.151
-778.869
-430.097
-593.147
-52.9316
-27.2907
44.5805
527.758
9.61726
643.433
24.7219
704.996
78.9433
651.789
164.135
1331.94
205.505
1515.45
237.241
1476.23
257.144
1565.06
226.868
1320.54
137.552
838.528
170.291
-445.708
707.752
-2241.82
379.209
-2250.05
359.322
-2256.86
362.21
-2263.32
364.996
-2269.47
374.889
-2275.58
390.153
-2281.76
411.565
-2288.19
439.108
-2294.99
473.019
-2302.3
513.529
-2310.25
560.973
-2318.99
615.814
-2328.69
678.68
-2339.52
750.346
-2351.64
831.65
-2365.22
923.609
-2380.35
1027.39
-2397.02
1144.14
-2415.01
1274.94
-2433.68
1420.6
-2451.83
1581.2
-2467.3
1755.61
-2476.55
1940.36
-2474.24
2128.83
-2452.73
2309.51
-2401.6
2464.84
-2307.19
2569.31
-2151.79
2586.59
-1911.67
2461.25
-1552.76
2102.85
-1030.22
1369.67
-301.448
51.2723
39.4409
-1188.25
-219.905
-897.481
-315.51
109.686
-358.53
197.311
-488.192
732.323
-596.502
2060.52
-590.962
3770.15
-361.995
3723.82
-989.492
-2007.35
-1256.27
-712.242
-1344.12
999.037
-1472.62
1910.55
-1595.65
2759.94
-1746.14
3334.74
-1922.76
3906.91
-2129.52
4564.09
-2356.22
5394.79
-2569.9
6422.57
-2757.5
7572.72
-2907.35
8739.21
-2987.57
9700.67
-2950.04
10150.4
-2745.07
9882.2
-2359.58
8857.54
-1842.27
7140.08
-1271.4
4822.86
-754.27
2086.1
-850.384
174.396
-1409.34
-468.474
-1538.66
-410.31
-1475.71
-591.462
-1330.11
-833.095
-1073.44
-1035.53
-686.107
-980.485
-184.956
-528.441
73.9237
268.878
54.1607
663.196
39.5493
719.607
69.9196
621.419
153.969
1247.89
196.188
1473.23
225.854
1446.56
250.817
1540.1
230.355
1341
150.178
918.704
169.814
-465.344
603.683
-2266.73
386.666
-2274.88
367.468
-2282.05
369.386
-2288.84
371.788
-2295.38
381.426
-2301.91
396.685
-2308.58
418.232
-2315.53
446.06
-2322.9
480.389
-2330.83
521.454
-2339.44
569.584
-2348.88
625.252
-2359.28
689.089
-2370.78
761.844
-2383.47
844.334
-2397.38
937.519
-2412.44
1042.46
-2428.4
1160.1
-2444.67
1291.21
-2460.15
1436.08
-2473.06
1594.11
-2480.51
1763.05
-2478.16
1938.01
-2459.84
2110.52
-2417.08
2266.74
-2338.58
2386.34
-2209.62
2440.34
-2010.96
2387.93
-1717.48
2167.77
-1298.31
1683.67
-735.814
807.176
-154.662
-529.879
-72.7001
-1270.21
-300.641
-669.54
-330.191
139.235
-397.942
265.062
-542.111
876.492
-656.982
2175.39
-623.58
3736.75
-410.954
3511.19
-985.299
-1433.01
-1261.91
-435.629
-1385.74
1122.86
-1527.38
2052.19
-1656.78
2889.34
-1808.16
3486.11
-1984.34
4083.1
-2187.89
4767.64
-2406.82
5613.72
-2616.59
6632.33
-2804.46
7760.58
-2947.24
8881.99
-3001.04
9754.47
-2917.2
10066.5
-2662.32
9627.32
-2247.43
8442.65
-1732.58
6625.24
-1201.53
4291.81
-845.614
1730.19
-1050.51
379.288
-1552.1
33.1253
-1714.53
-247.88
-1688.15
-617.843
-1557.12
-964.124
-1315.32
-1277.34
-953.336
-1342.47
-474.776
-1007
-35.0277
-170.87
88.8751
539.294
61.0706
747.412
69.5377
612.952
145.27
1172.15
187.361
1431.14
214.737
1419.18
243.972
1510.86
232.869
1352.1
159.108
992.466
148.403
-454.639
495.576
-2293.36
394.732
-2302
376.1
-2309.82
377.209
-2317.2
379.173
-2324.35
388.574
-2331.49
403.823
-2338.76
425.502
-2346.31
453.607
-2354.26
488.345
-2362.76
529.946
-2371.91
578.734
-2381.83
635.172
-2392.6
699.866
-2404.29
773.525
-2416.86
856.905
-2430.2
950.862
-2444.02
1056.28
-2457.76
1173.84
-2470.46
1303.91
-2480.51
1446.13
-2485.55
1599.15
-2482.03
1759.53
-2464.9
1920.88
-2427.3
2072.92
-2360.03
2199.47
-2251.02
2277.33
-2084.46
2273.78
-1839.68
2143.16
-1490.8
1818.88
-1010.04
1202.92
-386.946
184.084
-12.0271
-904.798
-163.692
-1118.55
-345.83
-487.402
-359.506
152.911
-459.411
364.968
-604.721
1021.8
-716.703
2287.37
-657.003
3677.05
-449.521
3303.71
-967.706
-914.824
-1269
-134.339
-1427.36
1281.22
-1579.86
2204.7
-1715.3
3024.78
-1868.94
3639.76
-2044.4
4258.56
-2243.94
4967.18
-2456.51
5826.28
-2664.45
6840.28
-2850.87
7947
-2980.06
9011.19
-3000.01
9774.42
-2866.91
9933.43
-2566.72
9327.14
-2132.04
8007.97
-1631.52
6124.72
-1170.29
3830.57
-1024.28
1584.18
-1338.41
693.415
-1738.38
433.1
-1911.4
-74.8655
-1910.69
-618.555
-1790.22
-1084.6
-1557.67
-1509.88
-1208.11
-1692.03
-735.473
-1479.64
-160.634
-745.71
96.1665
282.493
80.8012
762.777
74.0469
619.707
137.954
1108.25
179.359
1389.74
204.033
1394.51
236.02
1478.87
233.429
1354.69
161.704
1064.19
105.746
-398.681
403.738
-2322.76
404.627
-2332.31
385.651
-2340.91
385.811
-2349.02
387.287
-2356.85
396.404
-2364.61
411.58
-2372.44
433.329
-2380.47
461.643
-2388.84
496.71
-2397.64
538.749
-2406.97
588.065
-2416.89
645.091
-2427.4
710.383
-2438.46
784.585
-2449.91
868.351
-2461.42
962.376
-2472.46
1067.31
-2482.13
1183.51
-2489.07
1310.85
-2491.19
1448.25
-2485.6
1593.56
-2468.15
1742.08
-2433.22
1885.95
-2373.35
2013.06
-2278.77
2104.89
-2136.6
2135.17
-1930.09
2067.27
-1637.8
1850.87
-1236.44
1417.52
-715.721
682.196
-164.329
-367.308
-29.6296
-1039.5
-270.882
-877.293
-398.208
-360.076
-409.062
163.765
-527.05
482.956
-675.113
1169.86
-775.652
2387.91
-691.739
3593.13
-472.133
3084.1
-944.092
-442.864
-1286.67
208.242
-1471.12
1465.68
-1631.03
2364.61
-1772.05
3165.79
-1927.83
3795.54
-2101.7
4432.42
-2297.03
5162.52
-2505.82
6035.07
-2713.66
7048.12
-2895.28
8128.62
-3003.11
9119.02
-2981.92
9753.23
-2798.09
9749.6
-2458.62
8987.66
-2014.6
7563.95
-1544.84
5654.96
-1188.68
3474.4
-1241.73
1637.24
-1638.65
1090.34
-1972.51
766.963
-2131.56
84.1852
-2145.49
-604.626
-2032.98
-1197.1
-1807.32
-1735.54
-1467.36
-2032
-1009.13
-1937.86
-439.754
-1315.09
-8.07828
-149.182
111.136
643.564
81.8296
649.013
132
1058.08
172.169
1349.57
193.955
1372.73
226.568
1446.26
231.345
1349.92
160.559
1134.98
65.3216
-303.444
341.111
-2355.41
416.465
-2366.08
396.327
-2375.42
395.151
-2384.22
396.086
-2392.61
404.792
-2400.8
419.771
-2408.93
441.458
-2417.13
469.837
-2425.48
505.069
-2434.08
547.348
-2442.97
596.946
-2452.12
654.24
-2461.45
719.713
-2470.77
793.914
-2479.77
877.351
-2487.9
970.505
-2494.34
1073.74
-2497.87
1187.04
-2496.73
1309.71
-2488.39
1439.91
-2469.48
1574.65
-2435.38
1707.98
-2379.97
1830.54
-2295.35
1928.43
-2171.14
1980.68
-1993.69
1957.72
-1745.22
1818.81
-1403.82
1509.46
-949.234
962.937
-382.452
115.414
-38.9683
-710.791
-146.065
-932.4
-351.051
-672.308
-441.98
-269.146
-468.956
190.741
-597.243
611.243
-748.216
1320.84
-833.672
2473.36
-728.698
3488.16
-456.477
2811.88
-928.117
28.7751
-1314.75
594.873
-1515.07
1666
-1681.52
2531.05
-1827.01
3311.28
-1983.47
3952
-2155.23
4604.17
-2347.69
5354.98
-2556.23
6243.61
-2764.28
7256.18
-2935.13
8299.46
-3012.11
9196
-2942.95
9684.07
-2709.28
9515.94
-2339.83
8618.2
-1901.86
7125.99
-1486.09
5239.18
-1261.37
3249.69
-1474.05
1849.91
-1908.96
1525.25
-2221.67
1079.68
-2371.56
234.072
-2390.44
-585.75
-2283.7
-1303.84
-2062.14
-1957.1
-1725.98
-2368.15
-1272.83
-2391.01
-706.166
-1881.75
-105.348
-750.001
135.622
402.594
82.0408
702.594
128.561
1011.56
165.102
1313.03
184.701
1353.13
215.774
1415.19
226.598
1339.09
156.592
1204.98
19.7989
-166.651
265.161
-2391.11
429.313
-2402.81
408.029
-2412.65
404.986
-2421.85
405.293
-2430.44
413.378
-2438.64
427.97
-2446.57
449.391
-2454.34
477.61
-2462.03
512.751
-2469.65
554.972
-2477.19
604.487
-2484.55
661.596
-2491.51
726.681
-2497.76
800.163
-2502.78
882.368
-2505.79
973.515
-2505.69
1073.65
-2500.96
1182.3
-2489.46
1298.22
-2468.29
1418.73
-2433.67
1540.03
-2380.6
1654.92
-2302.56
1752.5
-2191.17
1817.04
-2035.51
1825.02
-1821.09
1743.3
-1529.58
1527.3
-1141.04
1120.92
-649.727
471.624
-142.834
-391.478
-46.2923
-807.333
-276.825
-701.867
-421.346
-527.787
-489.619
-200.874
-540.62
241.742
-669.916
740.539
-821.046
1471.97
-891.925
2544.24
-769.155
3365.39
-477.617
2520.34
-957.642
508.8
-1351.46
988.69
-1559.12
1873.66
-1730.73
2702.66
-1879.08
3459.63
-2034.66
4107.59
-2205.18
4774.7
-2398.06
5547.86
-2609.44
6454.99
-2814.83
7461.56
-2965.62
8450.26
-3001.67
9232.04
-2880.6
9563
-2603.54
9238.88
-2219.72
8234.38
-1807.06
6713.33
-1463.02
4895.15
-1372.9
3159.57
-1707.99
2185
-2166.94
1984.2
-2470.36
1383.1
-2618.1
381.818
-2640.32
-563.53
-2537.73
-1406.43
-2320.4
-2174.43
-1987.76
-2700.79
-1538.04
-2840.74
-973.625
-2446.16
-317.928
-1405.7
61.9582
22.7083
84.4681
680.084
125.759
970.265
158.307
1280.48
177.083
1334.35
204.286
1387.99
219.665
1323.72
169.729
1254.92
1.53311
1.54434
197.82
-2428.77
441.806
-2441.07
420.327
-2450.9
414.818
-2459.96
414.352
-2468.12
421.536
-2475.64
435.492
-2482.62
456.374
-2489.15
484.138
-2495.25
518.855
-2500.91
560.626
-2506.01
609.591
-2510.36
665.947
-2513.63
729.945
-2515.32
801.851
-2514.72
881.773
-2510.85
969.638
-2502.32
1065.12
-2487.34
1167.32
-2463.46
1274.34
-2427.45
1382.72
-2375.2
1487.77
-2301.38
1581.1
-2199.08
1650.2
-2059.42
1677.38
-1870.75
1636.35
-1617.54
1490.09
-1280.84
1190.59
-843.625
683.705
-314.841
-57.1596
-49.5596
-656.76
-203.623
-653.269
-381.081
-524.409
-473.68
-435.188
-539.008
-135.546
-619.81
322.545
-747.126
867.854
-893.388
1618.23
-949.264
2600.12
-812.129
3228.25
-621.463
2329.68
-1042.66
929.998
-1396.36
1342.39
-1603.31
2080.62
-1777.3
2876.65
-1926.95
3609.27
-2081.5
4262.14
-2253.59
4946.79
-2451.08
5745.34
-2665.72
6669.63
-2861.4
7657.24
-2981.11
8569.97
-2968.81
9219.74
-2798.25
9392.44
-2491.08
8931.72
-2110.52
7853.82
-1733.77
6336.58
-1463.34
4624.72
-1504.52
3200.74
-1946.41
2626.89
-2421.37
2459.15
-2711.39
1673.12
-2858.73
529.162
-2884.16
-538.106
-2786.52
-1504.07
-2576.58
-2384.37
-2250.36
-3027.02
-1805.25
-3285.85
-1245.33
-3006.08
-592.314
-2058.72
-49.7223
-519.883
95.6002
534.761
120.244
945.622
152.946
1247.78
171.754
1315.54
193.014
1366.72
210.754
1305.98
183.983
1281.69
23.8385
161.689
174.478
-2466.34
452.784
-2478.46
432.453
-2487.52
423.869
-2495.59
422.428
-2502.44
428.384
-2508.36
441.413
-2513.42
461.439
-2517.69
488.404
-2521.14
522.305
-2523.69
563.172
-2525.14
611.044
-2525.19
665.993
-2523.36
728.114
-2519
797.491
-2511.22
873.998
-2498.82
957.24
-2480.2
1046.5
-2453.3
1140.42
-2415.4
1236.44
-2363.02
1330.35
-2291.74
1416.49
-2195.95
1485.31
-2068.35
1522.6
-1899.51
1508.53
-1677.25
1414.09
-1386.27
1199.12
-1012.46
816.78
-563.027
234.268
-174.09
-446.097
-154.5
-676.349
-341.303
-466.466
-444.115
-421.598
-522.309
-356.994
-595.424
-62.4307
-697.618
424.739
-826.826
997.062
-963.785
1755.19
-1002.02
2638.35
-861.47
3087.7
-770.53
2238.74
-1136.45
1295.92
-1441.48
1647.41
-1646.39
2285.53
-1819.93
3050.19
-1970.38
3759.73
-2126.08
4417.84
-2303.92
5124.63
-2508.89
5950.32
-2723
6883.74
-2898.98
7833.22
-2978.1
8649.09
-2915.73
9157.37
-2704.46
9181.17
-2381.74
8609
-2012.73
7484.81
-1667.57
5991.43
-1474.41
4431.55
-1664.04
3390.38
-2203.32
3166.17
-2670.25
2926.08
-2937.2
1940.07
-3082.28
674.242
-3109.64
-510.748
-3020.19
-1593.52
-2822.43
-2582.12
-2508
-3341.45
-2070.32
-3723.52
-1510.93
-3565.47
-845.744
-2723.91
-151.42
-1214.21
109.601
273.741
108.28
946.942
150.123
1205.93
167.651
1298.01
182.81
1351.57
200.285
1288.5
184.62
1297.35
34.7168
311.592
190.437
-2500.89
461.575
-2511.77
443.335
-2518.98
431.079
-2524.98
428.429
-2529.42
432.819
-2532.63
444.62
-2534.65
463.461
-2535.51
489.269
-2535.15
521.944
-2533.4
561.421
-2529.98
607.622
-2524.46
660.472
-2516.23
719.888
-2504.49
785.753
-2488.19
857.694
-2465.93
934.978
-2435.9
1016.48
-2395.83
1100.35
-2342.8
1183.41
-2273.08
1260.63
-2181.97
1325.39
-2063.54
1366.88
-1910.05
1369.1
-1711.49
1309.98
-1455.37
1157.98
-1127.87
871.615
-723.347
412.255
-281.477
-207.602
-118.538
-609.036
-294.391
-500.497
-424.465
-336.392
-491.489
-354.573
-573.734
-274.748
-659.197
23.0313
-773.903
539.446
-906.33
1129.49
-1030.53
1879.39
-1050.13
2657.95
-918.67
2956.24
-897.973
2218.04
-1218.83
1616.77
-1484.35
1912.94
-1686.97
2488.15
-1858.44
3221.65
-2010.99
3912.28
-2172.12
4578.97
-2359.63
5312.14
-2571.52
6162.21
-2777.37
7089.6
-2923.33
7979.18
-2956.41
8682.16
-2847.58
9048.54
-2605.65
8939.25
-2274.39
8277.74
-1912
7122.41
-1595.69
5675.11
-1512.89
4348.76
-1876.09
3753.57
-2475.89
3765.97
-2900.29
3350.49
-3138.39
2178.17
-3275.85
811.702
-3303.92
-482.679
-3227.05
-1670.39
-3048.17
-2761
-2753.79
-3635.84
-2331.43
-4145.89
-1778.38
-4118.52
-1109.95
-3392.34
-392.128
-1932.03
18.9421
-137.329
101.547
864.337
148.407
1159.07
163.915
1282.51
174.591
1340.89
189.148
1273.94
179.204
1307.3
34.1539
456.642
185.183
-2528.8
467.841
-2537.08
451.621
-2541.14
435.135
-2543.77
431.058
-2544.53
433.578
-2543.79
443.883
-2541.58
461.246
-2537.88
485.573
-2532.57
516.639
-2525.42
554.265
-2516.03
598.237
-2503.87
648.313
-2488.2
704.215
-2468.05
765.607
-2442.23
831.867
-2409.17
901.919
-2366.89
974.196
-2312.92
1046.38
-2244.17
1114.65
-2156.69
1173.15
-2045.42
1214.12
-1904.08
1225.54
-1724.53
1189.55
-1496.62
1082.06
-1209.29
870.653
-856.477
518.802
-460.787
16.5655
-203.565
-464.824
-264.117
-548.483
-418.942
-345.672
-480.589
-274.744
-543.08
-292.082
-631.09
-186.738
-730.545
122.486
-850.69
659.591
-983.31
1262.11
-1092.13
1988.21
-1094.14
2659.96
-980.223
2842.32
-1008.66
2246.48
-1286.55
1894.66
-1524.89
2151.28
-1724.5
2687.76
-1894.48
3391.64
-2052.23
4070.03
-2223.63
4750.37
-2422.48
5510.99
-2636.32
6376.05
-2823.91
7277.19
-2931.46
8086.73
-2917.08
8667.77
-2766.94
8898.4
-2499.61
8671.92
-2157.01
7935.13
-1795.44
6760.84
-1532.03
5411.7
-1617.25
4433.99
-2144.06
4280.37
-2738.71
4360.63
-3097.69
3709.47
-3304.57
2385.05
-3427
934.136
-3455.51
-454.167
-3395.41
-1730.49
-3243.03
-2913.38
-2978.56
-3900.3
-2581.77
-4542.68
-2043.21
-4657.07
-1375.02
-4060.54
-635.376
-2671.67
-69.4362
-703.269
105.994
688.908
144.361
1120.71
160.038
1266.83
168.769
1332.16
178.232
1264.48
172.078
1313.45
53.9816
574.738
221.945
-2545.9
471.179
-2549.97
455.685
-2549.35
434.518
-2547.17
428.881
-2542.92
429.323
-2537
437.96
-2529.41
453.654
-2520.11
476.277
-2508.91
505.445
-2495.49
540.839
-2479.34
582.093
-2459.82
628.783
-2436.02
680.421
-2406.86
736.446
-2370.98
795.991
-2326.7
857.638
-2271.87
919.36
-2203.83
978.344
-2119.28
1030.11
-2014.03
1067.9
-1882.68
1082.76
-1718.6
1061.46
-1513.65
984.602
-1258.73
827.138
-947.947
559.869
-593.038
163.893
-273.965
-302.508
-217.921
-520.868
-385.414
-380.99
-485.735
-245.352
-527.081
-233.398
-600.15
-219.012
-692.006
-94.8826
-806.656
237.135
-927.485
780.419
-1056.15
1390.77
-1147.54
2079.61
-1134.45
2646.87
-1041.87
2749.74
-1103
2307.61
-1344.57
2136.23
-1563.58
2370.29
-1760.02
2884.2
-1931.31
3562.93
-2098.24
4236.95
-2283.21
4935.34
-2491.16
5718.95
-2698.13
6583.01
-2857.14
7436.19
-2920.49
8150.08
-2859.1
8606.39
-2670.61
8709.91
-2377.06
8378.37
-2018.57
7576.64
-1670.22
6412.5
-1518.36
5259.83
-1810.38
4726.01
-2437.08
4907.08
-2965.67
4889.22
-3253.86
3997.66
-3425.47
2556.66
-3526.37
1035.03
-3555.45
-425.084
-3515.61
-1770.34
-3396.99
-3032
-3172.7
-4124.59
-2813.32
-4902.06
-2300.3
-5170.1
-1638.38
-4722.45
-875.503
-3434.54
-156.104
-1422.67
115.252
417.552
133.226
1102.73
156.492
1243.56
164.919
1323.73
168.092
1261.31
163.547
1318
54.2179
684.067
234.673
-2547.65
470.742
-2545.6
453.64
-2538.69
427.603
-2530.25
420.442
-2519.71
418.784
-2507.52
425.771
-2493.65
439.79
-2478.03
460.654
-2460.37
487.783
-2440.22
520.69
-2416.97
558.84
-2389.81
601.625
-2357.73
648.338
-2319.47
698.191
-2273.56
750.078
-2218.16
802.235
-2150.94
852.144
-2069.05
896.457
-1968.96
930.015
-1846.16
945.101
-1694.92
931.529
-1508.51
875.047
-1279.5
755.59
-1002.12
549.767
-681.825
239.569
-363.356
-154.576
-244.518
-421.345
-371.042
-394.344
-497.418
-254.614
-542.505
-200.264
-583.351
-192.553
-660.734
-141.629
-757.514
1.89819
-882.325
361.946
-1002.86
900.956
-1123.5
1511.41
-1196.04
2152.15
-1171.04
2621.88
-1101.13
2679.83
-1183.11
2389.6
-1396.48
2349.6
-1601.37
2575.17
-1795.97
3078.81
-1972.61
3739.57
-2152.15
4416.49
-2350.48
5133.67
-2560.87
5929.33
-2749.87
6772.01
-2871.07
7557.39
-2886.48
8165.49
-2778.43
8498.34
-2551.67
8483.14
-2229.97
8056.67
-1862.24
7208.92
-1569.51
6119.77
-1596.35
5286.67
-2076.84
5206.5
-2713.51
5543.75
-3143.45
5319.15
-3362.86
4217.07
-3493.25
2687.05
-3568.76
1110.54
-3598.19
-395.653
-3580.99
-1787.54
-3501.98
-3111.01
-3327.29
-4299.28
-3017.81
-5211.54
-2544.11
-5643.8
-1901.34
-5365.23
-1128.77
-4207.12
-344.381
-2207.05
58.3992
14.7719
117.389
1043.74
152.604
1208.35
162.26
1314.08
158.948
1264.62
155.833
1321.11
75.1214
764.778
262.236
-2529.14
465.061
-2518.9
443.399
-2504.14
412.841
-2488.17
404.475
-2470.38
400.997
-2451.25
406.636
-2430.69
419.234
-2408.55
438.509
-2384.4
463.639
-2357.66
493.942
-2327.53
528.714
-2293.06
567.156
-2253.07
608.351
-2206.16
651.274
-2150.66
694.585
-2084.6
736.174
-2005.47
773.007
-1910.16
801.151
-1794.9
814.757
-1654.98
805.175
-1484.68
761.233
-1278.16
668.522
-1031.53
508.963
-749.894
268.131
-468.764
-41.5604
-315.722
-307.619
-363.451
-373.616
-488.974
-268.821
-558.39
-185.198
-591.985
-166.669
-645.693
-138.845
-723.197
-64.1257
-828.063
106.765
-955.378
489.261
-1075.06
1020.63
-1184.21
1620.56
-1237.29
2205.23
-1204.05
2588.64
-1156.94
2632.72
-1252.31
2484.96
-1444.78
2542.07
-1640.1
2770.49
-1835.31
3274.02
-2021.11
3925.37
-2214.41
4609.78
-2421.5
5340.77
-2623.96
6131.79
-2783.5
6931.55
-2859.58
7633.46
-2824.72
8130.63
-2670.01
8343.63
-2405.2
8218.34
-2060.55
7712.02
-1711.53
6859.89
-1539.54
5947.78
-1777.17
5524.29
-2372.82
5802.16
-2944.35
6115.28
-3267.68
5642.48
-3420.04
4369.43
-3504.47
2771.48
-3553.44
1159.5
-3582.54
-366.546
-3588.87
-1781.21
-3552.86
-3147.02
-3434.98
-4417.16
-3186.84
-5459.68
-2766.67
-6063.97
-2157.63
-5974.27
-1389.35
-4975.4
-571.005
-3025.4
-26.9165
-529.316
107.299
909.527
146.519
1169.13
159.095
1301.5
150.857
1272.86
149.34
1322.63
85.5513
828.567
323.713
-2485.36
452.155
-2464.85
422.885
-2441.06
389.06
-2416.8
380.212
-2391.42
375.618
-2365.37
380.583
-2338.46
392.324
-2310.37
410.418
-2280.48
433.752
-2247.96
461.428
-2211.83
492.576
-2170.9
526.228
-2123.82
561.274
-2069
596.456
-2004.63
630.208
-1928.52
660.067
-1837.99
682.481
-1729.75
692.912
-1599.87
684.877
-1443.78
649.085
-1256.66
574.113
-1035.69
447.552
-785.369
258.639
-532.087
14.8483
-358.029
-215.618
-362.75
-302.898
-486.67
-249.695
-576.4
-179.091
-611.952
-149.646
-648.817
-129.804
-709.212
-78.4487
-789.196
15.8582
-902.319