/*--------------------------------*- C++ -*----------------------------------*\
| =========                 |                                                 |
| \\      /  F ield         | OpenFOAM: The Open Source CFD Toolbox           |
|  \\    /   O peration     | Version:  4.1                                   |
|   \\  /    A nd           | Web:      www.OpenFOAM.org                      |
|    \\/     M anipulation  |                                                 |
\*---------------------------------------------------------------------------*/
FoamFile
{
    version     2.0;
    format      ascii;
    class       volScalarField;
    location    "10";
    object      p;
}
// * * * * * * * * * * * * * * * * * * * * * * * * * * * * * * * * * * * * * //

dimensions      [0 2 -2 0 0 0 0];

internalField   nonuniform List<scalar> 
6785
(
599.976
521.78
474.974
421.857
375.381
330.677
289.075
249.741
212.562
177.333
143.353
110.232
81.4695
51.7944
11.3318
-9.13184
-26.3403
-16.285
-23.0497
-22.2305
-24.4419
-24.9486
-25.3643
-24.89
-23.5625
-21.1356
-17.9976
-13.7153
-7.63024
-3.64095
19.1378
16.1592
25.8074
22.0678
26.6275
26.3502
28.0368
28.6061
29.4425
30.0984
30.8519
31.5083
31.9485
32.3224
34.2438
54.5616
52.0016
55.0442
50.2362
51.931
49.1748
48.9845
47.5578
46.8406
46.0244
45.4124
44.8381
44.3844
43.8345
42.8019
23.3571
19.0754
20.079
15.8105
16.6177
13.5578
13.2903
11.4298
10.6125
9.42603
8.64509
7.92495
6.9355
5.23511
3.65561
-6.9599
-10.5336
-9.37862
-12.6721
-11.8263
-14.644
-14.891
-16.9217
-18.0233
-19.4422
-20.2762
-20.8364
-21.2331
-21.6224
-19.8959
-4.07124
-4.91402
-2.66744
-4.30822
-2.17441
-3.29261
-2.14149
-2.41017
-1.98202
-1.82938
-1.31051
-0.58062
0.963884
2.60691
5.61177
19.7677
20.7274
23.0744
22.8494
25.4135
25.7551
27.7184
28.8457
30.4632
31.9628
33.6203
35.1942
36.9702
38.2971
40.1546
37.2403
38.3975
40.0784
40.0494
41.9471
42.2225
43.5876
44.3352
45.3572
46.2567
47.2177
48.0824
49.0741
49.7588
50.7431
49.5869
50.8179
52.1383
52.2057
53.6976
53.906
54.9815
55.5659
56.3737
57.1105
57.8741
58.5837
59.4436
60.027
61.0467
64.9089
66.1403
67.0336
67.3342
68.5181
68.7417
69.5168
69.5583
69.5839
69.2852
69.0103
69.1079
69.5721
70.1032
70.55
72.3469
71.9681
72.0213
71.4046
71.4247
70.5105
70.0651
69.1693
68.4732
67.7382
67.1748
66.7841
66.3366
66.393
65.5557
72.5054
69.6884
68.0516
65.9606
64.716
63.0624
61.9809
60.3762
58.6773
56.5073
54.1992
51.9957
50.594
50.2205
47.6862
44.0263
41.4768
38.6843
34.9457
31.1984
27.0925
23.4028
20.0221
17.5224
15.7507
14.8258
14.5043
14.8163
15.0228
13.7666
49.1922
46.1761
41.2415
34.9254
27.0333
19.5567
15.6105
14.5505
14.6718
16.2031
17.7562
18.8184
19.2722
19.0546
18.1054
30.124
30.1836
30.1986
30.2
30.2058
30.2324
30.2976
30.2738
30.2609
30.2567
30.2941
30.2258
30.2255
30.2332
30.1433
30.1106
30.1229
30.1328
29.9702
30.023
30.0202
29.8592
29.8208
29.8992
29.8903
29.6988
29.6672
29.7626
29.8014
29.5304
29.6899
29.7244
29.4948
29.4711
29.6117
29.6899
29.4032
29.5717
29.6587
29.4445
29.4238
29.579
29.6473
29.4671
29.4613
29.6176
29.6667
29.478
29.742
29.625
29.4761
29.5192
29.7507
29.7825
29.6662
29.6935
29.8451
30.1451
30.0826
30.1017
30.5962
30.58
30.511
30.5345
30.7305
30.7497
31.0431
31.266
30.6628
31.3212
32.0794
29.1832
27.2971
29.3672
31.7498
17.7379
23.9928
28.6422
-0.986999
6.149
10.1997
9.34813
13.1682
7.43269
7.53085
12.1925
12.4335
13.6144
14.0677
14.9152
17.2687
21.0729
18.7336
14.8651
16.6881
20.2507
23.8557
24.5945
26.3872
27.9347
30.5285
33.0556
31.0831
34.7313
36.1224
39.1591
43.6636
46.5191
47.9454
50.2806
49.8366
60.8464
55.6752
57.9792
58.6962
59.4847
61.8032
65.4568
67.026
62.0899
70.7388
68.9019
72.012
72.3217
70.7431
69.055
67.3817
69.413
63.2358
73.8773
71.0722
65.1566
63.7615
61.5637
57.48
54.4257
51.622
41.5571
48.7341
53.3591
46.2703
43.0719
38.3279
31.7937
26.4397
24.2334
20.7151
15.3212
15.6064
16.4448
12.193
12.3079
11.4524
10.3528
5.40163
3.9845
6.24606
-2.03991
7.7435
5.37793
3.64568
9.89961
3.31904
6.02308
4.32456
6.22213
9.33677
3.72983
6.63991
8.74296
4.65869
6.14718
4.73633
6.03712
8.43407
4.27978
5.74007
4.2261
5.61512
7.93594
3.07908
5.44891
7.38106
3.46997
4.74493
3.41513
4.48667
7.14968
2.79673
4.18343
2.73523
4.01754
6.90455
1.3924
4.01904
6.47462
1.90677
3.39472
1.93834
3.18244
6.41147
1.34766
3.02273
1.41651
2.92349
6.16049
0.119634
3.09076
5.65591
0.914048
2.56442
1.08473
2.45769
5.49214
0.696709
2.40792
0.901796
2.38777
5.0364
-0.0011806
2.54199
4.40332
0.761391
2.08649
0.951491
2.01214
3.92435
0.669129
1.83992
0.805156
1.76064
3.10644
0.122269
1.55429
2.2566
0.22446
0.867761
0.0826195
0.522512
1.78993
0.000292877
0.000530958
0.000890784
0.00116756
0.00149553
0.00180517
0.00213893
0.00247422
0.00282508
0.00318436
0.00355708
0.00394128
0.00433914
0.00475055
0.00517685
0.00561869
0.00607724
0.00655348
0.0070486
0.00756371
0.00809992
0.00865819
0.0092392
0.0098432
0.0104698
0.0111174
0.0117834
0.012463
0.0131495
0.0138333
0.0145022
0.0151415
0.0157346
0.0162646
0.0167168
0.0170813
0.0173559
0.0175485
0.0176777
0.0177712
0.0178624
0.0179841
0.0181632
0.0184174
0.0187607
0.0192157
0.0198264
0.0206495
0.0217065
0.0229176
0.0240575
0.0247794
0.024752
0.0236112
0.0210018
0.0166254
0.0101411
0.00130354
-0.0101975
-0.0242142
-0.0397901
-0.0577735
-0.069306
-0.0695875
-0.225721
-0.351383
-0.458615
-0.567615
-0.643452
-0.667789
-0.617876
-0.557418
-0.407644
-0.355773
-0.156248
-0.21901
-0.0391463
0.0198934
-0.638731
0.000851397
0.00153824
0.00256516
0.00337679
0.0043144
0.00520589
0.00615639
0.00711144
0.0081053
0.00912136
0.0101718
0.0112524
0.0123686
0.0135205
0.0147115
0.0159435
0.0172196
0.0185423
0.0199148
0.02134
0.0228207
0.0243592
0.0259571
0.0276148
0.0293305
0.0310996
0.0329138
0.0347595
0.0366168
0.0384585
0.0402499
0.0419489
0.0435092
0.044884
0.0460331
0.0469313
0.0475763
0.0479952
0.0482463
0.0484148
0.0486012
0.048905
0.0494078
0.0501656
0.0512238
0.0526559
0.054603
0.0572504
0.0606935
0.0647485
0.0688291
0.0720247
0.0735057
0.0723631
0.0677171
0.05882
0.0447104
0.0245328
-0.00307515
-0.0385912
-0.0810196
-0.135055
-0.176309
-0.202609
-0.449382
-0.684005
-0.889848
-1.09672
-1.24617
-1.29473
-1.22422
-1.11051
-0.868862
-0.706733
-0.408008
-0.309316
-0.0496368
0.122041
0.0959735
0.00132924
0.00248295
0.00422753
0.00559676
0.00718263
0.00868755
0.0102933
0.0119061
0.0135851
0.0153016
0.0170767
0.0189031
0.0207902
0.022738
0.0247526
0.0268371
0.0289968
0.0312361
0.0335605
0.0359748
0.038484
0.0410922
0.0438023
0.0466148
0.0495272
0.052532
0.0556153
0.0587545
0.0619163
0.0650553
0.0681127
0.0710181
0.0736929
0.0760577
0.078044
0.0796077
0.0807436
0.0814955
0.0819597
0.0822775
0.0826168
0.0831436
0.0839928
0.0852564
0.0870068
0.0893636
0.0925605
0.096907
0.10256
0.109198
0.11581
0.120828
0.122813
0.120175
0.111376
0.0950916
0.0696523
0.0335811
-0.0153888
-0.0779002
-0.152295
-0.24541
-0.31437
-0.37752
-0.610964
-0.879652
-1.12372
-1.37291
-1.55338
-1.60749
-1.52028
-1.37786
-1.08575
-0.874272
-0.519122
-0.359221
-0.0344057
0.124702
0.41108
0.00178975
0.00340704
0.00584427
0.00776706
0.00998533
0.0120927
0.0143375
0.0165921
0.0189375
0.0213349
0.0238131
0.0263624
0.0289955
0.031713
0.034523
0.03743
0.0404413
0.0435632
0.0468032
0.0501682
0.0536649
0.0572992
0.061075
0.0649932
0.0690503
0.0732359
0.0775305
0.0819029
0.0863067
0.0906785
0.0949364
0.0989819
0.102705
0.105995
0.108755
0.110925
0.112495
0.113529
0.11416
0.114588
0.115049
0.115776
0.116959
0.118724
0.121171
0.124465
0.128938
0.135034
0.142993
0.152378
0.161773
0.168982
0.172007
0.168622
0.156689
0.134338
0.0991952
0.0490864
-0.0193637
-0.107314
-0.213407
-0.347016
-0.448396
-0.562835
-0.811529
-1.133
-1.42566
-1.72733
-1.94813
-2.01
-1.89815
-1.71789
-1.35388
-1.08694
-0.647197
-0.442982
-0.028111
0.142846
0.481005
0.00220823
0.00429854
0.0074311
0.00991515
0.0127723
0.0154893
0.0183799
0.0212835
0.0243024
0.0273879
0.0305766
0.0338565
0.0372438
0.0407393
0.0443534
0.0480921
0.0519647
0.0559794
0.0601458
0.0644728
0.0689692
0.0736426
0.0784981
0.0835371
0.0887551
0.0941391
0.0996644
0.105291
0.110959
0.116589
0.122073
0.127287
0.132087
0.13633
0.139892
0.142691
0.144717
0.146048
0.146858
0.147404
0.147991
0.14892
0.150436
0.152699
0.155831
0.160039
0.165756
0.173572
0.18382
0.195954
0.208137
0.217512
0.221509
0.217226
0.201904
0.173092
0.127682
0.0627459
-0.0262653
-0.141053
-0.280973
-0.457189
-0.594634
-0.773415
-1.03668
-1.42051
-1.76284
-2.11875
-2.38348
-2.45323
-2.31574
-2.09341
-1.65305
-1.3203
-0.793755
-0.526297
-0.024056
0.158798
0.719301
0.00260227
0.00517044
0.00898529
0.0120325
0.0155239
0.0188493
0.0223817
0.025931
0.0296187
0.0333876
0.0372812
0.0412857
0.0454204
0.0496867
0.0540973
0.0586593
0.0633843
0.0682823
0.0733649
0.0786431
0.0841278
0.0898282
0.0957507
0.101897
0.108262
0.11483
0.121572
0.128438
0.135357
0.14223
0.148928
0.155297
0.161161
0.166346
0.170696
0.174112
0.176578
0.178191
0.179162
0.179808
0.180504
0.181624
0.183465
0.18622
0.190028
0.195139
0.202087
0.211626
0.224206
0.239185
0.254298
0.266018
0.271211
0.266297
0.247911
0.213023
0.157772
0.0784157
-0.0309009
-0.172609
-0.347497
-0.568065
-0.746879
-1.00407
-1.27578
-1.72309
-2.10592
-2.5081
-2.81113
-2.88397
-2.71912
-2.45358
-1.9385
-1.54032
-0.93162
-0.600547
-0.0167828
0.186815
0.858343
0.0029688
0.00602328
0.0105116
0.014126
0.0182508
0.0221868
0.0263613
0.0305572
0.0349139
0.0393665
0.0439648
0.0486936
0.0535753
0.0586118
0.063818
0.0692025
0.0747788
0.0805589
0.0865565
0.0927847
0.0992563
0.105982
0.112971
0.120223
0.127735
0.135487
0.143446
0.151553
0.159726
0.167847
0.175764
0.183295
0.190232
0.196365
0.20151
0.205546
0.208452
0.210342
0.211466
0.212202
0.212998
0.214299
0.216459
0.219698
0.224171
0.230161
0.238311
0.249556
0.26449
0.28239
0.300548
0.314735
0.321259
0.315832
0.294493
0.253616
0.18857
0.0947409
-0.0351404
-0.204378
-0.415821
-0.682588
-0.908577
-1.25668
-1.53012
-2.05021
-2.47124
-2.91571
-3.25304
-3.32406
-3.12824
-2.81615
-2.22325
-1.75817
-1.06615
-0.672841
-0.00949751
0.205651
0.983616
0.00331361
0.00686191
0.0120112
0.0161957
0.0209504
0.0254973
0.0303117
0.0351531
0.0401765
0.0453104
0.0506106
0.0560607
0.0616859
0.0674889
0.0734866
0.0796891
0.086112
0.0927691
0.0996763
0.106849
0.114301
0.122047
0.130094
0.138447
0.147099
0.156029
0.165198
0.174543
0.183965
0.193331
0.202466
0.211159
0.219169
0.226251
0.232189
0.23684
0.240179
0.242333
0.243595
0.244403
0.245282
0.246751
0.24922
0.252936
0.25806
0.264905
0.274226
0.287164
0.304489
0.325419
0.346779
0.363612
0.371675
0.365947
0.34189
0.295276
0.220697
0.112602
-0.0378063
-0.234899
-0.484264
-0.798993
-1.07864
-1.52671
-1.79582
-2.40331
-2.86439
-3.34994
-3.71831
-3.78157
-3.55062
-3.18766
-2.51297
-1.97763
-1.20087
-0.742674
-0.0022765
0.217692
1.13095
0.00363792
0.00768858
0.0134869
0.0182443
0.0236259
0.0287843
0.0342372
0.0397234
0.045412
0.0512258
0.057226
0.0633952
0.0697616
0.0763284
0.0831147
0.0901321
0.0973982
0.104929
0.112742
0.120854
0.129283
0.138044
0.147146
0.156595
0.166382
0.176487
0.186865
0.197445
0.208116
0.218729
0.229086
0.238945
0.248033
0.256068
0.262803
0.268069
0.271835
0.274243
0.275627
0.276489
0.277433
0.279055
0.281823
0.286007
0.291766
0.299436
0.309888
0.324496
0.344248
0.368324
0.393057
0.412723
0.422536
0.416709
0.390148
0.338016
0.254123
0.131924
-0.0390137
-0.264341
-0.553021
-0.91746
-1.25748
-1.80846
-2.0686
-2.78023
-3.28441
-3.81152
-4.20739
-4.25483
-3.98354
-3.56491
-2.80461
-2.19583
-1.3338
-0.807607
0.00559839
0.259036
1.22195
0.00394458
0.00850588
0.0149405
0.0202732
0.0262776
0.0320479
0.038137
0.0442669
0.0506184
0.0571101
0.0638076
0.0706933
0.0777976
0.0851249
0.0926961
0.100524
0.108629
0.117029
0.125742
0.13479
0.14419
0.15396
0.164112
0.174651
0.18557
0.196845
0.208428
0.22024
0.23216
0.24402
0.255601
0.26663
0.276801
0.285794
0.293327
0.299206
0.303391
0.306039
0.307527
0.308421
0.309407
0.311166
0.314222
0.318865
0.325241
0.3337
0.345236
0.361487
0.383706
0.411065
0.439367
0.462084
0.473889
0.468199
0.439388
0.382009
0.289093
0.153046
-0.0383066
-0.29214
-0.621386
-1.03719
-1.44428
-2.09574
-2.34675
-3.18216
-3.73267
-4.30468
-4.72538
-4.7472
-4.42876
-3.94863
-3.09813
-2.41247
-1.46439
-0.86719
0.0139875
0.28722
1.31089
0.00423527
0.00931572
0.0163738
0.0222842
0.0289074
0.0352894
0.0420125
0.0487848
0.0557971
0.0629645
0.0703568
0.0779562
0.0857954
0.0938798
0.102232
0.110868
0.119807
0.129071
0.138681
0.148659
0.159025
0.1698
0.180996
0.19262
0.204665
0.217106
0.229891
0.242933
0.256102
0.269213
0.282021
0.294227
0.305487
0.315444
0.323779
0.330269
0.334866
0.33774
0.339309
0.34021
0.341215
0.343091
0.346423
0.351515
0.35849
0.367698
0.380261
0.398118
0.422845
0.453639
0.485728
0.511733
0.525794
0.520488
0.489695
0.427355
0.325732
0.17613
-0.0354584
-0.318004
-0.688912
-1.15757
-1.63821
-2.38565
-2.6377
-3.61762
-4.21103
-4.83384
-5.27843
-5.26359
-4.88943
-4.34064
-3.39449
-2.62794
-1.59274
-0.921174
0.0237692
0.30341
1.43952
0.00451187
0.0101198
0.0177888
0.0242787
0.0315161
0.0385096
0.0458641
0.0532773
0.0609478
0.0687887
0.0768729
0.0851829
0.0937536
0.102592
0.111721
0.12116
0.13093
0.141053
0.151554
0.162456
0.173784
0.185557
0.197792
0.210495
0.223662
0.237265
0.251248
0.26552
0.279938
0.294301
0.308342
0.321731
0.334089
0.345017
0.354157
0.361258
0.366257
0.36934
0.370967
0.371847
0.372843
0.374814
0.37841
0.383941
0.391495
0.401405
0.414927
0.434343
0.461621
0.496022
0.53214
0.561697
0.578299
0.573647
0.541164
0.474177
0.364208
0.201414
-0.0301262
-0.341471
-0.754864
-1.27759
-1.8378
-2.67866
-2.95542
-4.09745
-4.72115
-5.40227
-5.87203
-5.80849
-5.36833
-4.74208
-3.69396
-2.84203
-1.71858
-0.968031
0.0353526
0.365499
1.53207
0.00477583
0.0109194
0.0191869
0.0262581
0.0341049
0.0417095
0.0496925
0.057745
0.066071
0.0745828
0.0833559
0.0923735
0.101672
0.11126
0.121163
0.1314
0.141995
0.152973
0.16436
0.176182
0.188465
0.201231
0.214499
0.228277
0.24256
0.25732
0.2725
0.288
0.303667
0.319286
0.334566
0.349146
0.36261
0.374517
0.384468
0.392178
0.397571
0.400845
0.402504
0.40333
0.404286
0.406329
0.410175
0.416137
0.424248
0.434809
0.449211
0.470125
0.499997
0.538195
0.578607
0.612003
0.631456
0.627742
0.593878
0.52258
0.404665
0.229105
-0.0219967
-0.362082
-0.818411
-1.39591
-2.04068
-2.97245
-3.31158
-4.61885
-5.26447
-6.0129
-6.51174
-6.38674
-5.86886
-5.15432
-3.99684
-3.05457
-1.84121
-1.00779
0.0484825
0.394673
1.61314
0.00502852
0.0117159
0.0205696
0.0282237
0.036675
0.0448899
0.0534983
0.0621881
0.0711668
0.0803469
0.0898055
0.0995273
0.10955
0.119884
0.130556
0.141587
0.153003
0.164831
0.177098
0.189834
0.203066
0.216819
0.231114
0.24596
0.261355
0.277268
0.293641
0.310368
0.327287
0.344165
0.360691
0.376472
0.391052
0.403948
0.414716
0.423035
0.428812
0.432256
0.433917
0.434654
0.435536
0.437624
0.441706
0.448092
0.45674
0.467893
0.48308
0.505418
0.537924
0.580133
0.625127
0.662676
0.685312
0.682837
0.647917
0.572668
0.447247
0.259421
-0.0107192
-0.379279
-0.87848
-1.51068
-2.24271
-3.25997
-3.70561
-5.1668
-5.84173
-6.66866
-7.20325
-7.00358
-6.39514
-5.57932
-4.30361
-3.26544
-1.95923
-1.04041
0.0643156
0.453755
1.7352
0.00527111
0.0125101
0.0219385
0.0301766
0.0392273
0.0480515
0.057282
0.0666071
0.0762353
0.0860807
0.0962216
0.106644
0.117387
0.128463
0.1399
0.15172
0.163952
0.176624
0.189766
0.203409
0.217584
0.232319
0.247634
0.263544
0.280044
0.297107
0.31467
0.332623
0.350795
0.368937
0.386716
0.403708
0.419418
0.433314
0.444905
0.453833
0.459984
0.463576
0.465206
0.465816
0.466584
0.46869
0.472995
0.479799
0.488961
0.500641
0.516504
0.540172
0.575352
0.621805
0.671697
0.71374
0.73991
0.738991
0.703357
0.624534
0.492088
0.292572
0.00406768
-0.392429
-0.933796
-1.61977
-2.43883
-3.53214
-4.12566
-5.71835
-6.4515
-7.37239
-7.95227
-7.66429
-6.95169
-6.01947
-4.6149
-3.47534
-2.07122
-1.06702
0.0854997
0.502675
1.7833
0.00550464
0.0133028
0.0232946
0.0321178
0.0417627
0.0511951
0.0610442
0.0710022
0.0812767
0.0917844
0.102604
0.113723
0.125183
0.136996
0.149193
0.161797
0.17484
0.18835
0.202362
0.216907
0.232019
0.247728
0.264058
0.281025
0.298625
0.316833
0.335583
0.354761
0.374188
0.3936
0.412642
0.430857
0.447708
0.462617
0.47504
0.484577
0.49109
0.494808
0.496371
0.496811
0.497423
0.499515
0.50403
0.511248
0.520906
0.53304
0.549451
0.574334
0.61222
0.66318
0.71831
0.765215
0.795294
0.79626
0.760266
0.67826
0.539302
0.328756
0.0227377
-0.40082
-0.982911
-1.72125
-2.62722
-3.78048
-4.55964
-6.24528
-7.08965
-8.1269
-8.76463
-8.37415
-7.54331
-6.47759
-4.93146
-3.68514
-2.17629
-1.08916
0.116675
0.540881
1.91687
0.00572999
0.0140949
0.0246391
0.0340484
0.044282
0.0543212
0.0647854
0.0753737
0.086291
0.0974577
0.108952
0.120765
0.132936
0.145482
0.158434
0.171818
0.185666
0.200009
0.214884
0.230325
0.246367
0.263044
0.280382
0.298399
0.317095
0.336442
0.356377
0.37678
0.397464
0.418153
0.438466
0.457916
0.475925
0.491861
0.505126
0.515273
0.522137
0.525954
0.527413
0.527634
0.528043
0.530088
0.5348
0.542433
0.552567
0.565077
0.581888
0.607843
0.648465
0.70422
0.764955
0.817123
0.851502
0.854695
0.818701
0.73391
0.588976
0.368133
0.0456375
-0.403715
-1.02432
-1.81318
-2.80525
-4.0009
-5.01004
-6.72915
-7.75516
-8.93537
-9.6465
-9.13843
-8.17497
-6.95686
-5.25429
-3.89487
-2.274
-1.10519
0.15815
0.63083
2.04598
0.00594793
0.0148869
0.025973
0.035969
0.0467862
0.0574305
0.0685059
0.0797218
0.0912784
0.103101
0.115266
0.127767
0.140647
0.153921
0.167623
0.181781
0.196428
0.211599
0.22733
0.24366
0.260626
0.278264
0.296604
0.315665
0.33545
0.355933
0.377049
0.398677
0.420621
0.442591
0.464187
0.484888
0.50407
0.521048
0.535167
0.545925
0.55313
0.557018
0.558329
0.558279
0.558434
0.560395
0.565292
0.573346
0.583942
0.59674
0.61378
0.640634
0.684013
0.744884
0.811618
0.869482
0.908573
0.914344
0.878706
0.79151
0.641128
0.410773
0.073012
-0.400472
-1.05672
-1.89386
-2.96742
-4.20162
-5.50221
-7.16049
-8.44991
-9.8005
-10.6045
-9.96236
-8.8518
-7.46056
-5.58474
-4.10453
-2.3639
-1.11406
0.208805
0.704802
2.0925
0.00615915
0.0156792
0.0272974
0.0378806
0.0492758
0.0605234
0.072206
0.0840467
0.0962387
0.108713
0.121545
0.134731
0.148314
0.162311
0.176758
0.191685
0.207126
0.223117
0.239699
0.256911
0.274794
0.293385
0.312719
0.332818
0.353686
0.3753
0.397594
0.420446
0.443653
0.466913
0.489803
0.51177
0.532144
0.550183
0.565167
0.57654
0.584072
0.588004
0.589121
0.588743
0.588586
0.590422
0.595495
0.603981
0.615029
0.62802
0.64509
0.672633
0.71878
0.785126
0.858281
0.92231
0.966541
0.975241
0.940289
0.851008
0.695647
0.456563
0.104874
-0.390736
-1.07926
-1.96209
-3.1105
-4.39583
-6.02432
-7.49472
-9.15799
-10.726
-11.646
-10.8512
-9.57889
-7.99204
-5.92436
-4.31422
-2.44543
-1.11525
0.270613
0.767076
2.23202
0.0063642
0.0164725
0.028613
0.0397837
0.0517516
0.0636004
0.0758862
0.0883485
0.101172
0.114294
0.127789
0.141655
0.155936
0.170652
0.185839
0.201528
0.217757
0.234563
0.251988
0.270075
0.288867
0.308406
0.328727
0.349856
0.371801
0.39454
0.41801
0.442086
0.466559
0.491116
0.515312
0.538562
0.560149
0.579268
0.595133
0.607124
0.614971
0.618913
0.619787
0.619018
0.618487
0.620155
0.625395
0.634332
0.645828
0.65891
0.675783
0.70376
0.752675
0.824893
0.904924
0.975625
1.02543
1.0374
1.00338
0.912205
0.752186
0.505074
0.140836
-0.374658
-1.09186
-2.01752
-3.23422
-4.58949
-6.46186
-7.7538
-9.89713
-11.7178
-12.7792
-11.8101
-10.3613
-8.55459
-6.27481
-4.52408
-2.51796
-1.10728
0.345237
0.899238
2.38957
0.00656358
0.0172669
0.0299205
0.041679
0.0542141
0.0666619
0.0795467
0.0926272
0.106078
0.119844
0.133997
0.148539
0.163513
0.178942
0.194863
0.211309
0.228319
0.245934
0.264196
0.283151
0.302845
0.323323
0.344623
0.366775
0.389791
0.41365
0.438292
0.463591
0.489334
0.515196
0.540712
0.565264
0.588085
0.608307
0.625069
0.637682
0.645831
0.649752
0.650329
0.649099
0.648123
0.649576
0.654979
0.664394
0.676343
0.689408
0.70582
0.733926
0.785595
0.864132
0.951521
1.02944
1.08526
1.10075
1.06777
0.974641
0.810023
0.555398
0.179951
-0.353052
-1.09531
-2.06086
-3.34066
-4.78148
-6.7831
-8.0114
-10.6507
-12.7728
-14.0129
-12.8447
-11.2038
-9.15143
-6.63772
-4.73444
-2.58089
-1.08935
0.430831
0.992824
2.43305
0.00675768
0.018063
0.0312208
0.0435669
0.0566638
0.0697082
0.0831876
0.0968829
0.110956
0.125362
0.140169
0.155382
0.171044
0.187181
0.203831
0.221027
0.238813
0.257228
0.27632
0.296135
0.316724
0.338132
0.360404
0.383572
0.407651
0.432626
0.458436
0.484957
0.511973
0.539149
0.566
0.591874
0.615953
0.637301
0.654979
0.668221
0.67666
0.680524
0.680746
0.678981
0.677483
0.678669
0.68423
0.694164
0.706582
0.719514
0.735163
0.76303
0.817423
0.90278
0.998047
1.08378
1.14598
1.16512
1.13296
1.03744
0.867906
0.606033
0.220658
-0.327402
-1.09126
-2.09395
-3.43378
-4.97322
-7.05444
-8.3575
-11.3688
-13.9037
-15.3563
-13.9601
-12.111
-9.78561
-7.0146
-4.94585
-2.63354
-1.06044
0.530493
1.12939
2.62113
0.00694683
0.0188609
0.0325142
0.0454481
0.0591012
0.0727397
0.0868092
0.101115
0.115808
0.130849
0.146304
0.162183
0.178528
0.195367
0.212739
0.230681
0.249234
0.268444
0.288358
0.309026
0.330501
0.352833
0.376068
0.400243
0.425378
0.451462
0.478437
0.50618
0.534472
0.562971
0.591172
0.618389
0.643752
0.666254
0.684869
0.698748
0.707465
0.711234
0.711038
0.708655
0.706551
0.707412
0.713133
0.723638
0.736556
0.749234
0.763776
0.790962
0.848032
0.940774
1.04447
1.13859
1.20744
1.23004
1.19804
1.09917
0.92395
0.654897
0.260901
-0.299691
-1.0819
-2.11945
-3.51854
-5.16793
-7.32099
-8.86209
-12.0994
-15.1489
-16.82
-15.161
-13.0872
-10.4598
-7.40676
-5.15889
-2.67522
-1.0193
0.643856
1.25728
2.6752
0.0071313
0.019661
0.0338014
0.0473228
0.0615268
0.0757564
0.0904114
0.105325
0.120631
0.136303
0.152401
0.168941
0.185964
0.2035
0.221588
0.240268
0.259583
0.27958
0.300308
0.321821
0.344174
0.36742
0.39161
0.416785
0.442969
0.470155
0.49829
0.527254
0.556827
0.586657
0.616224
0.644808
0.671484
0.695169
0.714745
0.72927
0.738252
0.741888
0.741207
0.738115
0.73531
0.735784
0.741669
0.752814
0.766281
0.77858
0.791619
0.8176
0.877278
0.978041
1.09072
1.19378
1.26923
1.29463
1.26148
1.15769
0.975696
0.699548
0.298422
-0.272074
-1.06964
-2.14036
-3.59999
-5.36916
-7.62553
-9.59943
-12.8575
-16.5338
-18.4145
-16.4512
-14.1361
-11.1762
-7.81539
-5.37387
-2.70533
-0.964872
0.772551
1.3826
2.83787
0.00731129
0.0204635
0.0350829
0.0491913
0.0639407
0.0787587
0.0939944
0.109511
0.125426
0.141724
0.158461
0.175657
0.193351
0.211577
0.230376
0.249787
0.269857
0.290633
0.312168
0.334518
0.35774
0.381891
0.407027
0.433193
0.460417
0.488699
0.517991
0.548175
0.579031
0.610203
0.641153
0.671128
0.699148
0.724048
0.744611
0.759794
0.769029
0.772491
0.771253
0.767354
0.763744
0.76376
0.769817
0.781691
0.795779
0.807573
0.818656
0.842807
0.905001
1.0145
1.13669
1.24904
1.33056
1.35735
1.32101
1.21027
1.02042
0.737589
0.331153
-0.246474
-1.05661
-2.15946
-3.68267
-5.58128
-7.99471
-10.5344
-13.6112
-18.0689
-20.1498
-17.8331
-15.261
-11.9364
-8.24153
-5.59076
-2.7233
-0.89562
0.918664
1.57749
3.04452
0.00748694
0.0212687
0.0363589
0.0510541
0.0663433
0.0817465
0.0975581
0.113673
0.130193
0.147112
0.164482
0.182328
0.200688
0.219599
0.239101
0.259237
0.280054
0.301602
0.323936
0.347114
0.371196
0.396244
0.422316
0.449464
0.47772
0.507091
0.537534
0.568936
0.601079
0.633603
0.665954
0.697346
0.726742
0.752894
0.774473
0.790329
0.799806
0.80305
0.801178
0.796364
0.791832
0.791312
0.797554
0.810268
0.825078
0.836241
0.844854
0.866431
0.931023
1.05002
1.18213
1.3037
1.38999
1.41589
1.37365
1.25396
1.05566
0.767112
0.357601
-0.224213
-1.04431
-2.17882
-3.77005
-5.80877
-8.43343
-11.5264
-14.402
-19.824
-22.0395
-19.3085
-16.4641
-12.7411
-8.68603
-5.8092
-2.72864
-0.810388
1.08056
1.75069
3.13132
0.00765833
0.0220767
0.0376299
0.0529113
0.0687349
0.0847199
0.101102
0.117812
0.13493
0.152466
0.170464
0.188953
0.207974
0.227563
0.247762
0.268615
0.290172
0.312485
0.335609
0.359606
0.384539
0.410474
0.437473
0.465593
0.494873
0.525325
0.556914
0.589532
0.622965
0.65685
0.69062
0.723457
0.754266
0.781708
0.804338
0.820881
0.83059
0.833573
0.830984
0.825138
0.819553
0.818408
0.824853
0.838547
0.854214
0.864627
0.870181
0.8883
0.955129
1.0844
1.22649
1.35653
1.44524
1.46706
1.41611
1.28616
1.07968
0.787063
0.377138
-0.20574
-1.03328
-2.19941
-3.86397
-6.05484
-8.93903
-12.5286
-15.3389
-21.8773
-24.1098
-20.879
-17.7469
-13.5902
-9.14937
-6.02863
-2.72074
-0.708251
1.26068
1.91863
3.34046
0.00782553
0.0228878
0.0388962
0.0547632
0.0711154
0.0876789
0.104627
0.121927
0.139639
0.157785
0.176405
0.195533
0.215207
0.235468
0.256357
0.277921
0.30021
0.323278
0.347184
0.371992
0.397767
0.424578
0.452495
0.481577
0.511871
0.543396
0.576124
0.609956
0.644682
0.679938
0.715147
0.749458
0.781718
0.810492
0.834209
0.851461
0.861392
0.864068
0.860673
0.853665
0.846884
0.845014
0.851685
0.866528
0.883231
0.892787
0.894611
0.908219
0.977048
1.11724
1.26877
1.40552
1.49305
1.50715
1.44556
1.30533
1.09187
0.797427
0.390126
-0.190552
-1.02314
-2.22104
-3.96441
-6.32029
-9.51001
-13.5786
-16.5656
-24.2468
-26.4006
-22.5454
-19.1087
-14.4821
-9.63139
-6.24843
-2.69872
-0.58755
1.46202
2.16748
3.60071
0.00798852
0.0237021
0.0401578
0.0566097
0.0734851
0.0906234
0.108132
0.126017
0.144317
0.163069
0.182305
0.202066
0.222387
0.243313
0.264885
0.287152
0.310166
0.333981
0.35866
0.384268
0.410875
0.438554
0.467376
0.49741
0.528708
0.561297
0.595159
0.630201
0.666223
0.70286
0.739527
0.775344
0.809096
0.839248
0.864094
0.882076
0.892222
0.894543
0.890249
0.88194
0.8738
0.87109
0.878014
0.894213
0.912185
0.920794
0.918123
0.925953
0.996388
1.14781
1.30734
1.44761
1.52932
1.5328
1.46043
1.31127
1.09276
0.79921
0.397846
-0.177322
-1.01264
-2.24246
-4.06962
-6.60338
-10.1438
-14.6966
-18.1523
-26.9596
-28.9533
-24.3092
-20.5467
-15.4137
-10.1312
-6.46794
-2.66144
-0.44694
1.68121
2.38217
3.7087
0.00814725
0.0245199
0.0414151
0.0584511
0.0758439
0.0935533
0.111617
0.130082
0.148965
0.168317
0.188163
0.20855
0.229512
0.251096
0.273344
0.296307
0.320036
0.344591
0.370034
0.396433
0.423861
0.452396
0.482114
0.513089
0.545381
0.579024
0.614012
0.650261
0.687579
0.725608
0.763753
0.801108
0.836396
0.867977
0.893998
0.912737
0.923091
0.92501
0.919717
0.909951
0.900272
0.896589
0.903799
0.921604
0.941139
0.948745
0.940696
0.941203
1.01254
1.17493
1.33972
1.47861
1.54991
1.5421
1.46082
1.30508
1.08391
0.794241
0.402225
-0.164199
-0.999994
-2.2616
-4.17641
-6.90032
-10.8356
-15.8894
-20.1282
-30.024
-31.8068
-26.1751
-22.0571
-16.3805
-10.6472
-6.68641
-2.60737
-0.285224
1.92246
2.64366
3.99981
0.00830164
0.0253413
0.0426681
0.0602874
0.0781918
0.0964683
0.115082
0.134122
0.153582
0.173527
0.193978
0.214984
0.236581
0.258816
0.281732
0.305383
0.32982
0.355105
0.381302
0.408482
0.436722
0.466102
0.496705
0.528609
0.561883
0.596571
0.632676
0.670128
0.708744
0.748173
0.787817
0.826744
0.863615
0.89668
0.923926
0.943453
0.954012
0.955478
0.949081
0.937693
0.926269
0.921462
0.928994
0.948702
0.970176
0.976761
0.962305
0.953542
1.02459
1.19701
1.36227
1.49362
1.55212
1.53527
1.44837
1.28885
1.06752
0.784801
0.40544
-0.149176
-0.983177
-2.27579
-4.2805
-7.20572
-11.5767
-17.1521
-22.5004
-33.4351
-35.0052
-28.1502
-23.6357
-17.3767
-11.1766
-6.90287
-2.53464
-0.100446
2.18514
2.89906
4.17257
0.00845155
0.0261666
0.0439169
0.0621185
0.0805288
0.0993683
0.118526
0.138135
0.158167
0.1787
0.199749
0.221368
0.243592
0.266471
0.290048
0.314378
0.339515
0.365521
0.392463
0.420414
0.449454
0.479668
0.511143
0.543964
0.578209
0.613931
0.651144
0.689793
0.729708
0.770546
0.81171
0.852244
0.890749
0.925357
0.953885
0.974235
0.984997
0.985961
0.978349
0.965155
0.951758
0.94565
0.953543
0.975509
0.999387
1.00499
0.982871
0.96233
1.03152
1.21182
1.36985
1.48869
1.53586
1.5144
1.42571
1.26523
1.04607
0.7732
0.409537
-0.130373
-0.96008
-2.28194
-4.37673
-7.51269
-12.3536
-18.4704
-25.272
-37.1808
-38.5993
-30.2424
-25.2795
-18.3948
-11.7156
-7.11587
-2.44093
0.109354
2.47074
3.16
4.45232
0.00859683
0.0269957
0.0451615
0.0639445
0.0828546
0.102253
0.121949
0.142122
0.162719
0.183834
0.205474
0.2277
0.250544
0.274059
0.29829
0.323291
0.349119
0.375837
0.403513
0.432225
0.462054
0.49309
0.525424
0.559151
0.594353
0.631098
0.66941
0.709249
0.750461
0.792717
0.835421
0.8776
0.917792
0.954008
0.983879
1.00509
1.01606
1.01647
1.00753
0.992331
0.976703
0.969087
0.977383
1.00203
1.02888
1.03357
1.00216
0.966823
1.03251
1.2156
1.35698
1.46277
1.50356
1.48274
1.39594
1.23696
1.02186
0.761417
0.416196
-0.106122
-0.92853
-2.27654
-4.45915
-7.81255
-13.1459
-19.8233
-28.4478
-41.2208
-42.6366
-32.4593
-26.9863
-19.4262
-12.2592
-7.32334
-2.32319
0.346759
2.78182
3.49137
4.7654
0.00873726
0.0278291
0.0464019
0.0657651
0.0851691
0.105122
0.125351
0.146082
0.167238
0.188928
0.211153
0.233979
0.257436
0.28158
0.306456
0.33212
0.358629
0.386049
0.41445
0.443911
0.474518
0.506364
0.539545
0.574163
0.610311
0.648064
0.687465
0.728487
0.770995
0.814675
0.85894
0.902801
0.944737
0.982632
1.01392
1.03604
1.04721
1.04703
1.03663
1.01921
1.00106
0.991699
1.00044
1.02825
1.05875
1.06257
1.01958
0.966874
1.02646
1.20263
1.32045
1.41835
1.45907
1.44385
1.36211
1.20649
0.996709
0.750934
0.426723
-0.0748671
-0.886183
-2.25562
-4.52102
-8.09455
-13.9262
-21.1872
-32.0176
-45.4413
-47.1336
-34.808
-28.7549
-20.4619
-12.8011
-7.52249
-2.1776
0.614547
3.1163
3.80462
4.98063
0.00887261
0.0286667
0.0476381
0.0675804
0.087472
0.107974
0.12873
0.150014
0.171722
0.193981
0.216784
0.240202
0.264265
0.28903
0.314543
0.340861
0.368043
0.396155
0.425271
0.455471
0.486843
0.519485
0.553501
0.588996
0.626075
0.664824
0.705301
0.747497
0.791297
0.836408
0.882255
0.927838
0.971578
1.01123
1.044
1.06708
1.07847
1.07764
1.06567
1.04579
1.0248
1.0134
1.02262
1.05416
1.08907
1.0917
1.03436
0.96345
1.00961
1.16733
1.26147
1.36009
1.40651
1.40115
1.32688
1.17572
0.971854
0.742786
0.442216
-0.034976
-0.830426
-2.21484
-4.55503
-8.34618
-14.6616
-22.5353
-35.9384
-49.6425
-52.053
-37.2934
-30.5838
-21.4936
-13.3341
-7.7097
-2.00017
0.915386
3.4771
4.11847
5.32457
0.0090026
0.0295088
0.0488699
0.06939
0.089763
0.11081
0.132086
0.153916
0.176171
0.198992
0.222366
0.246369
0.27103
0.296408
0.32255
0.349513
0.377358
0.406153
0.435972
0.466899
0.499025
0.532451
0.567286
0.603645
0.641639
0.68137