/*--------------------------------*- C++ -*----------------------------------*\
| =========                 |                                                 |
| \\      /  F ield         | OpenFOAM: The Open Source CFD Toolbox           |
|  \\    /   O peration     | Version:  4.1                                   |
|   \\  /    A nd           | Web:      www.OpenFOAM.org                      |
|    \\/     M anipulation  |                                                 |
\*---------------------------------------------------------------------------*/
FoamFile
{
    version     2.0;
    format      ascii;
    class       surfaceScalarField;
    location    "10";
    object      phi;
}
// * * * * * * * * * * * * * * * * * * * * * * * * * * * * * * * * * * * * * //

dimensions      [0 3 -1 0 0 0 0];

internalField   nonuniform List<scalar> 
13220
(
-791.817
2091.72
-1231.09
1739.48
-1682.36
1751.16
-2007.94
1625.49
-2270.64
1562.9
-2452.67
1481.93
-2562.89
1410.12
-2600.96
1338.27
-2572.29
1271.23
-2476.04
1203.65
-2307.32
1131.48
-2055.58
1048.15
-1670.32
914.643
-1023.97
653.848
275.928
-156.854
2248.57
-366.499
1949.12
-594.932
1979.59
-759.531
1790.09
-911.412
1714.78
-1015.14
1585.66
-1088.31
1483.28
-1122.97
1372.93
-1120.12
1268.38
-1077.31
1160.83
-998.577
1052.76
-885.48
935.056
-717.381
746.543
-435.64
372.106
-159.712
-120.224
2368.79
-294.115
2123.01
-416.996
2102.47
-498.919
1872.01
-571.157
1787.02
-612.923
1627.42
-644.125
1514.49
-645.209
1374.01
-579.153
1202.33
-396.243
977.921
-113.323
769.833
172.104
649.622
356.575
562.064
341.722
386.947
182.01
-67.9018
2436.69
-170.59
2225.7
-252.98
2184.86
-338.981
1958.01
-431.22
1879.26
-522.48
1718.68
-627.141
1619.15
-724.69
1471.56
-780.371
1258.01
-717.516
915.065
-502.515
554.831
-187.024
334.134
103.206
271.838
202.655
287.501
384.665
-14.8092
2451.5
-149.762
2360.65
-232.138
2267.24
-318.392
2044.26
-407.75
1968.61
-494.398
1805.33
-588.955
1713.7
-690.049
1572.65
-817.629
1385.59
-973.029
1070.47
-1106.09
687.891
-1116.02
344.062
-913.847
69.6685
-507.285
-119.062
-122.62
159.913
2291.59
61.8249
2458.74
53.2413
2275.82
64.7325
2032.78
91.2802
1942.07
124.775
1771.84
175.426
1663.05
225.809
1522.27
241.441
1369.96
157.438
1154.47
-30.9341
876.264
-240.637
553.777
-344.439
173.481
-321.607
-141.885
-444.227
254.785
2036.81
245.993
2467.54
289.447
2232.37
362.862
1959.36
459.817
1845.12
556.216
1675.44
671.031
1548.24
790.629
1402.67
898.773
1261.82
948.111
1105.13
898.925
925.45
732.773
719.932
439.263
466.996
125.263
172.12
-318.964
202.767
1834.04
235.441
2434.86
274.348
2193.46
330.527
1903.18
404.688
1770.95
473.122
1607
544.371
1476.99
611.835
1335.21
671.304
1202.35
705.552
1070.89
696.611
934.391
627.654
788.888
483.527
611.123
268.876
386.77
-50.0874
115.513
1718.53
167.79
2382.59
207.525
2153.73
255.014
1855.7
314.975
1710.99
366.385
1555.6
412.633
1430.74
448.346
1299.5
476.174
1174.52
494.196
1052.87
494.441
934.147
461.515
821.818
370.602
702.039
202.999
554.384
152.912
35.8849
1682.65
119.602
2298.87
191.854
2081.48
261.055
1786.5
335.984
1636.07
408.947
1482.63
480.553
1359.14
551.596
1228.46
619.676
1106.44
678.598
993.944
705.326
907.42
667.055
860.085
532.371
836.72
301.291
785.458
454.203
-79.8958
1762.54
8.04272
2210.93
109.16
1980.36
164.951
1730.7
228.144
1572.87
326.175
1384.6
461.623
1223.69
628.188
1061.89
801.345
933.282
937.701
857.588
980.051
865.069
890.936
949.201
663.244
1064.41
353.557
1095.15
807.76
-72.1527
1834.69
-153.635
2292.41
-191.697
2018.42
-245.31
1784.32
-294.102
1621.66
-296.329
1386.83
-236.354
1163.71
-129.263
954.799
11.57
792.447
164.301
704.854
293.513
735.856
353.113
889.596
303.505
1114.02
160.939
1237.71
968.699
266.259
1568.43
202.599
2356.07
-42.9307
2263.95
-281.197
2022.58
-486.582
1827.05
-687.65
1587.89
-875.055
1351.12
-1045.19
1124.94
-1176.06
923.311
-1219.81
748.607
-1126.17
642.211
-881.782
645.213
-531.56
763.795
-198.154
904.302
770.545
678.255
890.178
1022.66
2011.66
863.764
2422.85
502.04
2384.3
145.997
2183.09
-184.356
1918.25
-478.524
1645.28
-744.52
1390.93
-978.477
1157.27
-1168.85
938.974
-1272.23
745.591
-1219.84
592.828
-951.483
495.436
-493.558
446.376
276.987
604.321
1591.82
2313.35
2830.51
3132.04
3168.51
2968.05
2659.1
2252.57
1803.52
1346.63
928.287
561.087
271.722
5.71795e-06
-36.6415
36.6415
-36.6415
-36.6415
-36.6415
124.238
-160.88
124.238
124.238
124.238
257.416
-133.178
257.416
257.416
367.207
-109.791
367.207
367.207
367.207
461.588
-94.3806
461.588
461.588
539.939
-78.3511
539.939
539.939
539.939
605.324
-65.385
605.324
605.324
605.324
654.103
-48.7791
654.103
654.103
680.383
-26.2801
680.383
680.383
680.383
685.694
-5.31066
685.694
685.694
670.363
15.3311
670.363
670.363
670.363
642.974
27.3893
642.974
642.974
642.974
639.211
3.76283
639.211
639.211
700.198
-60.9874
700.198
700.198
700.198
643.931
56.267
643.931
643.931
643.931
461.022
182.909
461.022
461.022
202.694
258.328
202.694
202.694
202.694
-102.905
305.6
-102.905
-102.905
-920.727
817.821
-920.726
-920.726
-920.726
-2220.34
1299.62
-2220.34
-2220.34
-2220.34
-3937.07
1716.72
-3937.07
-3937.07
-6002.52
2065.45
-6002.52
-6002.52
-5897.56
-5797.77
-5697.72
-7878.23
2281.56
-7770.22
-7642.72
-7503.72
-7365.25
-7226.36
-7088.8
-6946.88
-6789.83
-9098.96
2466.6
-8931.63
-8765.31
-8599.59
-8414.5
-8227.48
-8038.69
-7847.95
-7653.52
-10177.2
2730.45
-9955.06
-9729.15
-9500.62
-9269.71
-9029.4
-8772.99
-8513.35
-8249.05
-7981.23
-10656.5
2932.78
-10366.5
-10074.2
-9780.91
-9487.16
-9192.58
-8879.3
-8554.73
-8229.12
-10542.4
2623.53
-10226
-9898.42
-9552.19
-9205.92
-8858.99
-8513.16
-8166.97
-7792.17
-9396.93
1960.88
-9046.43
-8701.68
-8361.02
-8005.03
-7645.61
-7292.04
-6941.2
-6594.92
-7282.88
1039.57
-6934.25
-6587.17
-6238.22
-5888.36
-5539.29
-5207.21
-4878.04
-4553.64
-4239.43
-4312.28
382.936
-4069.08
-3862.25
-3663.9
-3477.09
-3300.59
-3171.07
-3122.82
-3071.53
-2773.91
-237.381
-2725.31
-2675.39
-2675.39
-2527.27
-148.123
-2387.5
-139.764
-2387.5
-2276.1
-111.403
-2276.1
-2190.89
-85.2128
-2118.92
-71.9663
-2118.92
-2066.71
-52.2094
-2024.05
-42.6605
-2024.05
-1994.39
-29.6582
-1994.39
-1980.27
-14.1262
-1967.86
-12.4053
-1967.86
-1963.79
-4.07203
-1963.79
-1972.57
8.78075
-1974.89
2.31603
-1974.89
-1991.13
16.2399
-2000.76
9.63032
-2000.76
-2020.36
19.603
-2020.36
-2053.09
32.7325
-2074
20.9106
-2074
-2102.05
28.0433
-2102.04
-2138.64
36.5925
-2156.19
17.5486
-2156.19
-2184.23
28.0391
-2194.94
10.716
-2194.94
-2209.18
14.2377
-2209.18
-2228.88
19.7012
-2230.52
1.63904
-2230.52
-2233.71
3.18902
-2233.71
-2239.6
5.89268
-2225.12
-14.4858
-2225.12
-2214.52
-10.5904
-2187.55
-26.9781
-2187.55
-2158.28
-29.2674
-2158.28
-2128.28
-30.0035
-2084.47
-43.8008
-2084.47
-2037.14
-47.3399
-2037.14
-1989.17
-47.9609
-1929.34
-59.8388
-1929.34
-1867.9
-61.4394
-1798.75
-69.1442
-1798.75
-1725.04
-73.7129
-1725.04
-1648.68
-76.3636
-1567.2
-81.479
-1567.2
-1479.8
-87.3994
-1479.8
-1388.95
-90.8425
-1294.96
-93.9931
-1294.96
-1192.74
-102.22
-1091.18
-101.566
-1091.18
-982.65
-108.526
-982.65
-114.613
-25.5339
-121.086
-25.4497
-153.435
-25.5799
-174.342
-25.7581
-194.685
-26.0423
-214.629
-26.3917
-233.59
-26.8224
-252.296
-27.3224
-270.541
-27.896
-288.603
-28.5392
-306.468
-29.2529
-324.26
-30.0356
-342.015
-30.8874
-359.803
-31.8076
-377.669
-32.7964
-395.664
-33.8537
-413.83
-34.9799
-432.209
-36.1753
-450.838
-37.4406
-469.757
-38.7765
-488.998
-40.184
-508.597
-41.664
-528.583
-43.2175
-548.988
-44.8457
-569.837
-46.5494
-591.153
-48.3292
-612.955
-50.1854
-635.254
-52.1175
-658.053
-54.1244
-681.344
-56.204
-705.105
-58.3528
-729.298
-60.5659
-753.868
-62.8371
-778.74
-65.1584
-803.822
-67.5207
-829.01
-69.9139
-854.191
-72.3273
-879.26
-74.7502
-904.125
-77.1723
-928.726
-79.584
-953.041
-81.9766
-977.093
-84.3411
-1000.95
-86.6685
-1024.71
-88.9484
-1048.49
-91.1688
-1072.42
-93.3163
-1096.65
-95.375
-1121.34
-97.3231
-1146.7
-99.1245
-1172.98
-100.717
-1200.29
-102.001
-1228.48
-102.828
-1256.96
-102.995
-1284.63
-102.243
-1309.97
-100.25
-1330.93
-96.6329
-1344.92
-90.9523
-1348.67
-82.7295
-1337.97
-71.4822
-1307.16
-56.8062
-1248.69
-38.5516
-1151.37
-16.8677
-997.894
7.02834
-764.658
34.1428
-356.524
49.2164
395.477
53.3685
821.749
56.17
1214.54
58.4866
1572.26
59.6825
1894.61
60.1418
2181.55
57.9972
2382.86
55.5512
2572.84
49.3211
2644.28
47.9943
2839.05
39.9745
2762.31
47.4602
3150.78
48.1311
2815.14
55.2677
3441.73
4299.77
-27.9345
-121.378
-27.7674
-153.602
-27.8687
-174.24
-28.0289
-194.525
-28.3125
-214.346
-28.6699
-233.232
-29.1181
-251.848
-29.6424
-270.017
-30.2472
-287.998
-30.9275
-305.788
-31.684
-323.504
-32.5147
-341.184
-33.4195
-358.899
-34.3976
-376.691
-35.449
-394.613
-36.5735
-412.705
-37.7713
-431.011
-39.0428
-449.567
-40.3885
-468.411
-41.8093
-487.577
-43.3059
-507.1
-44.8793
-527.01
-46.5304
-547.337
-48.2601
-568.107
-50.0689
-589.344
-51.9572
-611.067
-53.9246
-633.287
-55.9699
-656.007
-58.0911
-679.222
-60.2848
-702.911
-62.5461
-727.037
-64.8687
-751.545
-67.2447
-776.364
-69.6647
-801.402
-72.1185
-826.556
-74.5954
-851.714
-77.0851
-876.77
-79.5777
-901.633
-82.0648
-926.239
-84.5393
-950.567
-86.9946
-974.638
-89.4241
-998.518
-91.8201
-1022.31
-94.1731
-1046.13
-96.472
-1070.12
-98.7048
-1094.41
-100.858
-1119.18
-102.908
-1144.65
-104.815
-1171.07
-106.5
-1198.61
-107.835
-1227.15
-108.641
-1256.15
-108.683
-1284.59
-107.663
-1310.99
-105.226
-1333.36
-100.952
-1349.19
-94.3656
-1355.26
-84.947
-1347.39
-72.1766
-1319.93
-55.6278
-1265.24
-35.184
-1171.81
-10.9775
-1022.1
15.1132
-790.749
44.4687
-385.88
57.4324
382.513
57.3952
821.786
58.4401
1213.49
59.7997
1570.9
60.1508
1894.25
59.932
2181.77
57.3826
2385.41
54.5758
2575.65
48.331
2650.52
46.8654
2840.52
39.0756
2770.1
46.3661
3143.49
47.1908
2814.31
54.8725
3434.04
4246.11
-29.2273
-121.716
-29.0307
-153.799
-29.1141
-174.157
-29.2665
-194.372
-29.5495
-214.063
-29.912
-232.87
-30.3699
-251.39
-30.908
-269.478
-31.5301
-287.376
-32.231
-305.087
-33.011
-322.724
-33.8681
-340.327
-34.8021
-357.965
-35.812
-375.681
-36.8976
-393.527
-38.0588
-411.544
-39.2958
-429.774
-40.6089
-448.254
-41.9986
-467.021
-43.4656
-486.11
-45.0109
-505.555
-46.6352
-525.386
-48.3395
-545.632
-50.1244
-566.322
-51.9904
-587.478
-53.9376
-609.119
-55.9652
-631.259
-58.0717
-653.901
-60.2544
-677.04
-62.5092
-700.656
-64.8306
-724.715
-67.2112
-749.165
-69.6423
-773.933
-72.114
-798.93
-74.6155
-824.054
-77.136
-849.194
-79.6656
-874.241
-82.1953
-899.103
-84.718
-923.716
-87.2278
-948.057
-89.7198
-972.146
-92.1882
-996.05
-94.626
-1019.87
-97.0238
-1043.74
-99.3711
-1067.77
-101.657
-1092.13
-103.87
-1116.97
-105.987
-1142.54
-107.963
-1169.1
-109.709
-1196.86
-111.082
-1225.78
-111.886
-1255.35
-111.866
-1284.61
-110.71
-1312.15
-108.044
-1336.03
-103.431
-1353.8
-96.3722
-1362.32
-86.3269
-1357.43
-72.7494
-1333.5
-55.1911
-1282.8
-33.5289
-1193.47
-7.85289
-1047.78
19.4404
-818.042
51.9987
-418.438
67.9621
366.55
64.6865
825.062
62.3562
1215.82
62.0019
1571.26
61.0793
1895.18
59.8139
2183.03
56.5599
2388.67
53.2517
2578.96
46.8167
2656.96
45.2315
2842.1
37.5677
2777.77
44.769
3136.29
45.5474
2813.54
55.005
3424.59
4199.55
-30.7424
-122.097
-30.5188
-154.022
-30.5869
-174.089
-30.7331
-194.226
-31.0181
-213.778
-31.3885
-232.499
-31.8597
-250.919
-32.4156
-268.923
-33.0598
-286.732
-33.7864
-304.36
-34.5958
-321.914
-35.4856
-339.437
-36.4554
-356.995
-37.5042
-374.632
-38.6318
-392.4
-39.8379
-410.338
-41.1227
-428.489
-42.4864
-446.89
-43.9297
-465.578
-45.4531
-484.587
-47.0574
-503.95
-48.7437
-523.699
-50.5125
-543.864
-52.3646
-564.47
-54.3003
-585.542
-56.3192
-607.101
-58.4204
-629.158
-60.6018
-651.72
-62.86
-674.781
-65.1904
-698.326
-67.5862
-722.319
-70.0393
-746.711
-72.5398
-771.432
-75.077
-796.393
-77.6393
-821.492
-80.2159
-846.617
-82.7968
-871.66
-85.3741
-896.526
-87.9419
-921.149
-90.4959
-945.503
-93.0328
-969.609
-95.5483
-993.534
-98.036
-1017.38
-100.487
-1041.28
-102.892
-1065.37
-105.241
-1089.78
-107.524
-1114.69
-109.72
-1140.34
-111.781
-1167.04
-113.605
-1195.03
-115.034
-1224.35
-115.851
-1254.53
-115.781
-1284.68
-114.49
-1313.44
-111.584
-1338.94
-106.604
-1358.78
-99.025
-1369.9
-88.2768
-1368.18
-73.7795
-1348
-55.0505
-1301.53
-31.9322
-1216.59
-4.47064
-1075.24
24.6908
-847.204
59.5486
-453.296
79.367
346.731
75.0173
829.412
68.2418
1222.6
65.1989
1574.3
62.5352
1897.84
59.8325
2185.74
55.5905
2392.91
51.5756
2582.97
44.8644
2663.67
43.0778
2843.89
35.6007
2785.24
42.6968
3129.19
43.441
2812.79
52.2041
3415.82
4149.54
-32.1852
-122.506
-31.9454
-154.262
-32.0013
-174.033
-32.1443
-194.083
-32.4327
-213.489
-32.8123
-232.12
-33.2975
-250.434
-33.8717
-268.348
-34.5381
-286.066
-35.2905
-303.608
-36.1291
-321.076
-37.0513
-338.515
-38.0566
-355.99
-39.1438
-373.545
-40.3126
-391.231
-41.5628
-409.088
-42.8945
-427.157
-44.3078
-445.477
-45.8034
-464.082
-47.3819
-483.008
-49.0441
-502.288
-50.7908
-521.953
-52.6228
-542.032
-54.5406
-562.552
-56.5442
-583.539
-58.6333
-605.012
-60.8064
-626.985
-63.0611
-649.465
-65.3934
-672.449
-67.7977
-695.921
-70.2665
-719.851
-72.7907
-744.187
-75.3595
-768.863
-77.961
-793.792
-80.5833
-818.87
-83.2151
-843.985
-85.8468
-869.028
-88.4713
-893.901
-91.0838
-918.536
-93.682
-942.905
-96.264
-967.027
-98.827
-990.971
-101.365
-1014.85
-103.871
-1038.78
-106.334
-1062.91
-108.747
-1087.36
-111.102
-1112.33
-113.38
-1138.06
-115.53
-1164.89
-117.441
-1193.12
-118.937
-1222.85
-119.782
-1253.68
-119.683
-1284.78
-118.284
-1314.84
-115.175
-1342.05
-109.872
-1364.09
-101.829
-1377.94
-90.4434
-1379.57
-75.0989
-1363.35
-55.2713
-1321.35
-30.7446
-1241.12
-1.5072
-1104.48
29.6894
-878.4
67.1209
-490.727
92.0932
321.759
88.074
833.431
76.632
1234.04
69.7318
1581.2
64.6677
1902.9
60.105
2190.3
54.528
2398.49
49.5811
2587.92
42.4449
2670.8
40.4116
2845.92
33.0875
2792.57
40.1634
3122.11
40.8041
2812.15
50.9223
3405.71
4106.47
-33.6238
-122.935
-33.3749
-154.511
-33.4219
-173.986
-33.5645
-193.94
-33.8582
-213.195
-34.2486
-231.729
-34.7493
-249.933
-35.3432
-267.754
-36.0331
-285.376
-36.8127
-302.828
-37.6818
-320.207
-38.6376
-337.559
-39.6796
-354.948
-40.8065
-372.418
-42.0179
-390.019
-43.3135
-407.792
-44.6934
-425.777
-46.1577
-444.012
-47.7071
-462.533
-49.3421
-481.373
-51.0636
-500.567
-52.8723
-520.144
-54.769
-540.135
-56.7541
-560.567
-58.8275
-581.465
-60.9885
-602.85
-63.2356
-624.738
-65.5656
-647.135
-67.9741
-670.041
-70.4547
-693.441
-72.999
-717.306
-75.597
-741.589
-78.2366
-766.224
-80.9053
-791.123
-83.5902
-816.185
-86.2799
-841.296
-88.9649
-866.343
-91.6389
-891.227
-94.2986
-915.876
-96.9432
-940.26
-99.5726
-964.397
-102.185
-988.359
-104.777
-1012.25
-107.339
-1036.22
-109.863
-1060.38
-112.342
-1084.88
-114.773
-1109.9
-117.139
-1135.7
-119.386
-1162.64
-121.395
-1191.11
-122.973
-1221.27
-123.865
-1252.79
-123.757
-1284.89
-122.277
-1316.32
-118.992
-1345.33
-113.401
-1369.68
-104.932
-1386.41
-92.9486
-1391.55
-76.7923
-1379.5
-55.8887
-1342.26
-29.9411
-1267.06
1.12228
-1135.54
34.5676
-911.846
74.932
-531.092
105.415
291.276
102.91
835.936
87.7844
1249.17
76.0036
1592.98
67.627
1911.28
60.7452
2197.18
53.4695
2405.76
47.3386
2594.05
39.6145
2678.53
37.2608
2848.28
30.0569
2799.77
37.1684
3115
37.6398
2811.68
46.9192
3396.43
4062.54
-35.0456
-123.377
-34.7937
-154.763
-34.8351
-173.944
-34.9799
-193.796
-35.2806
-212.895
-35.6835
-231.327
-36.2009
-249.416
-36.8158
-267.14
-37.5304
-284.661
-38.3381
-302.02
-39.2387
-319.306
-40.2291
-336.569
-41.3088
-353.868
-42.4762
-371.251
-43.7311
-388.765
-45.0729
-406.45
-46.5018
-424.349
-48.018
-442.496
-49.6219
-460.929
-51.3144
-479.681
-53.096
-498.785
-54.9677
-518.272
-56.93
-538.173
-58.9834
-558.514
-61.1276
-579.321
-63.3618
-600.616
-65.6839
-622.415
-68.0906
-644.728
-70.5767
-667.555
-73.1352
-690.882
-75.7568
-714.685
-78.4303
-738.916
-81.1427
-763.511
-83.8804
-788.385
-86.6299
-813.435
-89.3793
-838.546
-92.1194
-863.603
-94.8447
-888.502
-97.5531
-913.168
-100.246
-937.567
-102.924
-961.719
-105.589
-985.694
-108.236
-1009.61
-110.857
-1033.6
-113.444
-1057.79
-115.993
-1082.34
-118.503
-1107.39
-120.961
-1133.24
-123.314
-1160.29
-125.433
-1189
-127.107
-1219.6
-128.065
-1251.83
-127.971
-1284.98
-126.436
-1317.85
-123.009
-1348.76
-117.168
-1375.52
-108.315
-1395.26
-95.7818
-1404.08
-78.861
-1396.42
-56.9226
-1364.2
-29.5737
-1294.41
3.31264
-1168.43
39.1517
-947.685
82.7924
-574.733
118.839
255.23
118.654
836.12
101.591
1266.23
84.4671
1610.11
71.6338
1924.11
61.8515
2206.96
52.4973
2415.12
44.9031
2601.64
36.4162
2687.02
33.6509
2851.04
26.538
2806.88
33.725
3107.82
34.0629
2811.34
43.0122
3387.48
4018.16
-36.4553
-123.824
-36.2056
-155.013
-36.2446
-173.905
-36.3941
-193.646
-36.7038
-212.585
-37.1206
-230.91
-37.6562
-248.88
-38.2933
-266.502
-39.0337
-283.921
-39.8708
-301.183
-40.8039
-318.373
-41.8301
-335.542
-42.9484
-352.75
-44.1574
-370.042
-45.4567
-387.465
-46.8458
-405.061
-48.3248
-422.87
-49.8938
-440.927
-51.5534
-459.269
-53.3042
-477.93
-55.1471
-496.942
-57.0828
-516.336
-59.1119
-536.143
-61.2348
-556.391
-63.4511
-577.105
-65.7598
-598.308
-68.1585
-620.017
-70.6435
-642.243
-73.209
-664.989
-75.8473
-688.244
-78.5481
-711.984
-81.2992
-736.165
-84.0867
-760.724
-86.8958
-785.576
-89.7121
-810.619
-92.5234
-835.735
-95.3207
-860.806
-98.0992
-885.723
-100.858
-910.409
-103.601
-934.825
-106.331
-958.989
-109.049
-982.976
-111.753
-1006.9
-114.436
-1030.91
-117.089
-1055.14
-119.71
-1079.71
-122.303
-1104.8
-124.86
-1130.68
-127.327
-1157.82
-129.568
-1186.76
-131.355
-1217.81
-132.399
-1250.79
-132.344
-1285.03
-130.782
-1319.41
-127.247
-1352.29
-121.196
-1381.57
-112.007
-1404.45
-98.9721
-1417.12
-81.3373
-1414.06
-58.4143
-1387.12
-29.7087
-1323.12
4.94872
-1203.08
43.2711
-986.007
90.4135
-621.875
132.301
213.342
134.766
833.655
117.571
1283.43
95.4816
1632.19
77.0389
1942.56
63.547
2220.46
51.6879
2426.97
42.3275
2611
32.8816
2696.46
29.6051
2854.32
22.5419
2813.95
29.879
3100.48
30.0634
2811.16
41.3865
3376.15
3978.06
-37.854
-124.271
-37.6108
-155.256
-37.6503
-173.866
-37.8072
-193.489
-38.1275
-212.265
-38.56
-230.477
-39.1151
-248.325
-39.7758
-265.842
-40.5432
-283.153
-41.4108
-300.316
-42.3775
-317.406
-43.4404
-334.48
-44.5984
-351.592
-45.8501
-368.79
-47.1949
-386.12
-48.6323
-403.624
-50.1623
-421.34
-51.7851
-439.304
-53.5014
-457.553
-55.3117
-476.12
-57.2169
-495.037
-59.2178
-514.336
-61.3149
-534.046
-63.5085
-554.197
-65.7982
-574.815
-68.1828
-595.923
-70.6597
-617.54
-73.2246
-639.678
-75.8713
-662.342
-78.5913
-685.524
-81.3735
-709.202
-84.2045
-733.334
-87.0693
-757.859
-89.952
-782.694
-92.8375
-807.733
-95.713
-832.859
-98.5696
-857.949
-101.403
-882.89
-104.215
-907.597
-107.009
-932.03
-109.792
-956.206
-112.567
-980.201
-115.331
-1004.14
-118.078
-1028.17
-120.799
-1052.42
-123.494
-1077.02
-126.174
-1102.12
-128.835
-1128.02
-131.427
-1155.23
-133.803
-1184.38
-135.722
-1215.89
-136.873
-1249.64
-136.882
-1285.03
-135.325
-1320.97
-131.718
-1355.9
-125.499
-1387.79
-116.02
-1413.93
-102.537
-1430.6
-84.2491
-1432.35
-60.4188
-1410.95
-30.4625
-1353.08
5.81497
-1239.36
46.588
-1026.78
97.0702
-672.357
145.594
164.819
150.862
828.388
134.998
1299.29
109.14
1658.05
84.2999
1967.4
66.027
2238.73
51.1261
2441.88
39.6727
2622.46
29.051
2707.08
25.152
2858.22
18.087
2821.01
25.6174
3092.95
25.626
2811.15
35.6591
3366.12
3937.36
-39.2431
-124.713
-39.0102
-155.489
-39.0531
-173.823
-39.2197
-193.323
-39.5526
-211.932
-40.0023
-230.028
-40.5784
-247.749
-41.2639
-265.156
-42.0596
-282.358
-42.9588
-299.417
-43.9604
-316.405
-45.0611
-333.379
-46.2599
-350.393
-47.5553
-367.495
-48.9466
-384.729
-50.4333
-402.137
-52.0155
-419.757
-53.6933
-437.626
-55.4673
-455.779
-57.3382
-474.249
-59.3069
-493.068
-61.374
-512.268
-63.5404
-531.88
-65.806
-551.932
-68.1706
-572.451
-70.6326
-593.461
-73.1892
-614.983
-75.8358
-637.032
-78.5656
-659.612
-81.3694
-682.72
-84.2352
-706.336
-87.1485
-730.42
-90.0931
-754.914
-93.052
-779.735
-96.0092
-804.776
-98.9511
-829.917
-101.869
-855.031
-104.76
-879.999
-107.626
-904.731
-110.474
-929.182
-113.312
-953.368
-116.146
-977.367
-118.973
-1001.31
-121.786
-1025.35
-124.577
-1049.63
-127.351
-1074.25
-130.12
-1099.35
-132.891
-1125.25
-135.618
-1152.5
-138.146
-1181.85
-140.214
-1213.83
-141.496
-1248.36
-141.597
-1284.92
-140.077
-1322.49
-136.435
-1359.54
-130.092
-1394.13
-120.373
-1423.65
-106.503
-1444.47
-87.6451
-1451.2
-63.0412
-1435.55
-32.052
-1384.06
5.5309
-1276.94
48.5227
-1069.77
101.743
-725.578
158.559
108.003
166.696
820.251
153.172
1312.81
125.196
1686.03
93.8647
1998.73
69.6045
2262.99
50.9188
2460.56
37.0036
2636.37
24.9702
2719.12
20.3247
2862.86
13.1995
2828.14
20.955
3085.19
20.8698
2811.23
30.4448
3356.55
3894.09
-40.6242
-125.147
-40.4046
-155.708
-40.4538
-173.774
-40.6323
-193.144
-40.9796
-211.585
-41.4482
-229.559
-42.0467
-247.151
-42.7584
-264.445
-43.5836
-281.532
-44.5157
-298.485
-45.5532
-315.367
-46.693
-332.239
-47.9337
-349.152
-49.2739
-366.155
-50.7128
-383.29
-52.2499
-400.6
-53.8853
-418.122
-55.6192
-435.893
-57.4521
-453.946
-59.3847
-472.316
-61.418
-491.035
-63.5528
-510.134
-65.7896
-529.643
-68.1287
-549.593
-70.5695
-570.01
-73.1105
-590.92
-75.7485
-612.345
-78.4787
-634.301
-81.2937
-656.797
-84.1835
-679.831
-87.1353
-703.384
-90.1334
-727.422
-93.1605
-751.887
-96.1983
-776.697
-99.2296
-801.745
-102.241
-826.906
-105.222
-852.049
-108.172
-877.049
-111.095
-901.809
-113.999
-926.279
-116.894
-950.472
-119.788
-974.473
-122.681
-998.42
-125.563
-1022.47
-128.429
-1046.76
-131.282
-1071.39
-134.145
-1096.49
-137.033
-1122.36
-139.906
-1149.63
-142.6
-1179.16
-144.839
-1211.59
-146.277
-1246.92
-146.499
-1284.7
-145.049
-1323.94
-141.411
-1363.18
-134.988
-1400.55
-125.085
-1433.56
-110.906
-1458.65
-91.6146
-1470.5
-66.481
-1460.69
-34.8667
-1415.68
3.45479
-1315.26
48.1713
-1114.49
103.163
-780.569
169.817
41.3486
182.062
808.006
171.603
1323.27
143.132
1714.5
106.006
2035.85
74.712
2294.28
51.2282
2484.04
34.3882
2653.21
20.6859
2732.82
15.1585
2868.39
7.90738
2835.39
15.9724
3077.13
15.8049
2811.4
28.438
3343.91
3853.39
-41.9985
-125.569
-41.795
-155.912
-41.8531
-173.716
-42.0458
-192.952
-42.4092
-211.221
-42.8984
-229.07
-43.5207
-246.528
-44.26
-263.705
-45.1161
-280.676
-46.0822
-297.518
-47.1569
-314.293
-48.3368
-331.059
-49.6207
-347.868
-51.0068
-364.769
-52.4944
-381.803
-54.0831
-399.011
-55.7729
-416.432
-57.564
-434.102
-59.4569
-452.053
-61.4525
-470.321
-63.5517
-488.936
-65.7554
-507.93
-68.064
-527.334
-70.478
-547.179
-72.9966
-567.491
-75.6182
-588.298
-78.3395
-609.624
-81.1552
-631.486
-84.0576
-653.895
-87.0358
-676.852
-90.076
-700.344
-93.1617
-724.337
-96.274
-748.775
-99.3934
-773.577
-102.502
-798.637
-105.584
-823.824
-108.632
-849.001
-111.643
-874.037
-114.624
-898.828
-117.586
-923.317
-120.541
-947.517
-123.499
-971.515
-126.459
-995.459
-129.415
-1019.52
-132.356
-1043.82
-135.292
-1068.46
-138.252
-1093.53
-141.264
-1119.35
-144.294
-1146.6
-147.173
-1176.28
-149.605
-1209.15
-151.225
-1245.3
-151.598
-1284.33
-150.254
-1325.29
-146.659
-1366.77
-140.204
-1407.01
-130.184
-1443.58
-115.822
-1473.01
-96.3396
-1489.98
-71.1135
-1485.91
-39.563
-1447.23
-1.39805
-1353.43
44.2611
-1160.15
101.006
-837.314
175.929
-33.5739
196.668
787.266
190.037
1329.9
162.315
1742.22
120.692
2077.48
81.8231
2333.15
52.3136
2513.55
31.9098
2673.62
16.2454
2748.48
9.68797
2874.95
2.23536
2842.84
10.6336
3068.73
10.3255
2811.71
20.8755
3333.36
3812.82
-43.3674
-125.976
-43.1824
-156.097
-43.2519
-173.646
-43.4608
-192.743
-43.8423
-210.84
-44.3536
-228.558
-45.0013
-245.881
-45.7694
-262.937
-46.6577
-279.788
-47.6592
-296.517
-48.7723
-313.179
-49.9936
-329.838
-51.3217
-346.54
-52.7549
-363.335
-54.2926
-380.265
-55.934
-397.37
-57.6794
-414.687
-59.5288
-432.252
-61.4831
-450.099
-63.5429
-468.261
-65.7093
-486.769
-67.9831
-505.656
-70.3651
-524.952
-72.8554
-544.688
-75.4534
-564.893
-78.1574
-585.594
-80.9639
-606.817
-83.8673
-628.582
-86.8592
-650.903
-89.9282
-673.783
-93.0597
-697.212
-96.2357
-721.161
-99.4362
-745.574
-102.64
-770.373
-105.828
-795.448
-108.985
-820.667
-112.102
-845.885
-115.177
-870.962
-118.218
-895.786
-121.239
-920.296
-124.256
-944.5
-127.28
-968.491
-130.313
-992.427
-133.344
-1016.49
-136.364
-1040.8
-139.385
-1065.44
-142.446
-1090.47
-145.589
-1116.2
-148.789
-1143.4
-151.871
-1173.19
-154.519
-1206.51
-156.349
-1243.47
-156.906
-1283.77
-155.702
-1326.49
-152.19
-1370.28
-145.758
-1413.44
-135.73
-1453.6
-121.41
-1487.33
-102.178
-1509.21
-77.5934
-1510.5
-47.1466
-1477.68
-10.3567
-1390.22
35.1878
-1205.69
93.52
-895.646
176.818
-116.871
210.131
753.952
208.36
1331.67
182.175
1768.41
137.575
2122.08
91.3093
2379.42
54.5487
2550.31
29.6908
2698.47
11.6981
2766.48
3.94084
2882.7
-3.78744
2850.57
5.00381
3059.94
4.64079
2812.07
17.6687
3320.33
3770.65
-44.7321
-126.365
-44.5676
-156.261
-44.651
-173.563
-44.8781
-192.516
-45.2794
-210.438
-45.8146
-228.023
-46.4891
-245.206
-47.2876
-262.139
-48.2094
-278.866
-49.2476
-295.479
-50.4004
-312.027
-51.6643
-328.574
-53.0379
-345.167
-54.5195
-361.854
-56.1083
-378.676
-57.8037
-395.674
-59.6059
-412.885
-61.515
-430.343
-63.5319
-448.082
-65.6572
-466.135
-67.8922
-484.534
-70.2376
-503.311
-72.6944
-522.496
-75.2626
-542.12
-77.9418
-562.214
-80.73
-582.806
-83.6236
-603.924
-86.6168
-625.589
-89.7007
-647.819
-92.8632
-670.621
-96.0887
-693.987
-99.3582
-717.891
-102.65
-742.283
-105.942
-767.082
-109.213
-792.177
-112.447
-817.433
-115.634
-842.697
-118.776
-867.821
-121.879
-892.682
-124.963
-917.213
-128.044
-941.419
-131.137
-965.398
-134.244
-989.32
-137.354
-1013.38
-140.457
-1037.7
-143.566
-1062.33
-146.731
-1087.3
-150.011
-1112.92
-153.395
-1140.02
-156.7
-1169.89
-159.59
-1203.62
-161.661
-1241.4
-162.433
-1283
-161.402
-1327.52
-158.018
-1373.67
-151.695
-1419.76
-141.857
-1463.44
-128.003
-1501.19
-109.78
-1527.43
-86.9619
-1533.32
-58.9981
-1505.64
-24.9731
-1424.24
19.315
-1249.98
78.466
-954.797
172.281
-210.687
221.84
704.394
226.463
1327.05
202.318
1792.55
156.093
2168.3
103.302
2432.21
58.3836
2595.23
27.9266
2728.93
7.10148
2787.3
-2.06022
2891.87
-10.1333
2858.64
-0.89677
3050.7
-1.39028
2812.57
10.134
3308.81
3732.82
-46.0938
-126.734
-45.9517
-156.403
-46.0513
-173.463
-46.2986
-192.268
-46.7216
-210.016
-47.2822
-227.463
-47.985
-244.503
-48.8154
-261.308
-49.772
-277.91
-50.8483
-294.402
-52.042
-310.833
-53.3499
-327.266
-54.7703
-343.746
-56.3015
-360.322
-57.9428
-377.035
-59.6935
-393.924
-61.5537
-411.025
-63.5239
-428.373
-65.6046
-446.001
-67.7969
-463.943
-70.1018
-482.229
-72.5204
-500.892
-75.0535
-519.963
-77.7013
-539.472
-80.4634
-559.452
-83.3377
-579.932
-86.3206
-600.941
-89.4059
-622.504
-92.5843
-644.641
-95.8432
-667.362
-99.1657
-690.664
-102.532
-714.525
-105.918
-738.896
-109.301
-763.699
-112.658
-788.82
-115.972
-814.119
-119.234
-839.436
-122.444
-864.611
-125.612
-889.514
-128.76
-914.066
-131.907
-938.271
-135.073
-962.233
-138.258
-986.134
-141.452
-1010.18
-144.64
-1034.51
-147.839
-1059.13
-151.111
-1084.03
-154.537
-1109.5
-158.119
-1136.43
-161.668
-1166.34
-164.828
-1200.46
-167.168
-1239.06
-168.186
-1281.98
-167.364
-1328.34
-164.171
-1376.86
-158.121
-1425.81
-148.862
-1472.7
-136.234
-1513.81
-120.223
-1543.44
-100.697
-1552.84
-76.771
-1529.57
-46.7151
-1454.3
-4.50134
-1292.19
54.8515
-1014.15
160.979
-316.814
230.809
634.564
244.077
1313.78
222.546
1814.08
175.645
2215.2
117.633
2490.22
64.2462
2648.62
26.9129
2766.27
2.54902
2811.66
-8.2768
2902.69
-16.7385
2867.1
-7.09156
3041.05
-7.64018
2813.11
3.70908
3297.46
3689.19
-47.4536
-127.081
-47.3357
-156.521
-47.4536
-173.345
-47.7231
-191.999
-48.1695
-209.569
-48.7572
-226.875
-49.4899
-243.771
-50.3536
-260.445
-51.3465
-276.917
-52.4622
-293.287
-53.6983
-309.597
-55.0515
-325.913
-56.52
-342.278
-58.1022
-358.74
-59.7972
-375.34
-61.6045
-392.116
-63.5242
-409.105
-65.5567
-426.34
-67.7028
-443.855
-69.9634
-461.682
-72.3398
-479.853
-74.833
-498.399
-77.4441
-517.352
-80.1733
-536.743
-83.0201
-556.605
-85.9826
-576.969
-89.057
-597.866
-92.2368
-619.324
-95.5125
-641.365
-98.8705
-664.004
-102.293
-687.241
-105.759
-711.059
-109.244
-735.411
-112.722
-760.221
-116.169
-785.373
-119.566
-810.722
-122.904
-836.098
-126.185
-861.331
-129.421
-886.278
-132.634
-910.852
-135.851
-935.054
-139.092
-958.992
-142.36
-982.866
-145.641
-1006.9
-148.918
-1031.23
-152.21
-1055.84
-155.592
-1080.65
-159.17
-1105.92
-162.966
-1132.64
-166.783
-1162.52
-170.24
-1197
-172.879
-1236.42
-174.172
-1280.69
-173.605
-1328.91
-170.729
-1379.74
-165.291
-1431.25
-157.343
-1480.65
-147.194
-1523.96
-135.087
-1555.55
-120.632
-1567.3
-102.12
-1548.08
-76.5575
-1479.86
-36.4841
-1332.27
23.2131
-1073.85
142.518
-436.118
235.799
541.282
260.632
1288.95
242.778
1831.94
195.756
2262.22
133.884
2552.09
72.4211
2710.08
27.0422
2811.64
-1.82508
2840.53
-14.6575
2915.52
-23.5536
2876
-13.5282
3031.03
-14.0734
2813.66
1.77818
3281.61
3647.17
-48.8128
-127.405
-48.7206
-156.614
-48.859
-173.207
-49.1525
-191.705
-49.6241
-209.098
-50.2406
-226.258
-51.0048
-243.006
-51.9033
-259.546
-52.934
-275.886
-54.0905
-292.13
-55.3704
-308.317
-56.7702
-324.513
-58.2882
-340.76
-59.9227
-357.106
-61.6729
-373.59
-63.5382
-390.251
-65.5188
-407.124
-67.615
-424.244
-69.8278
-441.643
-72.1583
-459.352
-74.6077
-477.404
-77.1773
-495.829
-79.868
-514.661
-82.6804
-533.931
-85.6139
-553.672
-88.6667
-573.917
-91.8349
-594.698
-95.1119
-616.047
-98.4876
-637.989
-101.948
-660.544
-105.474
-683.715
-109.044
-707.489
-112.631
-731.825
-116.207
-756.645
-119.747
-781.833
-123.231
-807.238
-126.649
-832.679
-130.004
-857.977
-133.309
-882.973
-136.591
-907.57
-139.88
-931.765
-143.2
-955.672
-146.555
-979.511
-149.927
-1003.53
-153.297
-1027.86
-156.683
-1052.45
-160.178
-1077.15
-163.916
-1102.18
-167.943
-1128.61
-172.052
-1158.41
-175.833
-1193.22
-178.798
-1233.45
-180.397
-1279.09
-180.175
-1329.13
-177.894
-1382.02
-173.746
-1435.4
-168.38
-1486.02
-162.551
-1529.79
-156.396
-1561.7
-148.665
-1575.03
-136.293
-1560.45
-114.793
-1501.36
-75.9853
-1371.07
-14.6109
-1135.22