/*--------------------------------*- C++ -*----------------------------------*\
| =========                 |                                                 |
| \\      /  F ield         | OpenFOAM: The Open Source CFD Toolbox           |
|  \\    /   O peration     | Version:  4.1                                   |
|   \\  /    A nd           | Web:      www.OpenFOAM.org                      |
|    \\/     M anipulation  |                                                 |
\*---------------------------------------------------------------------------*/
FoamFile
{
    version     2.0;
    format      ascii;
    class       volVectorField;
    location    "10";
    object      U;
}
// * * * * * * * * * * * * * * * * * * * * * * * * * * * * * * * * * * * * * //

dimensions      [0 1 -1 0 0 0 0];

internalField   nonuniform List<vector> 
6785
(
(1.53273e-14 -2.31573 16.488)
(1.15495e-14 -7.9168 12.9816)
(-3.07676e-15 -5.1338 13.7685)
(4.33453e-15 -5.07604 13.2742)
(9.37588e-16 -4.29244 13.1319)
(-1.71005e-17 -3.87745 12.8445)
(3.17087e-15 -3.46358 12.5539)
(6.62801e-16 -3.15769 12.2016)
(-4.69356e-16 -2.9151 11.799)
(1.93959e-15 -2.76792 11.3581)
(2.19387e-16 -2.70673 10.9499)
(-3.88344e-16 -2.75061 10.6297)
(9.55857e-16 -3.23267 10.1374)
(-3.78935e-17 -3.3662 9.26663)
(-5.64077e-16 -0.0778209 7.40429)
(2.03029e-14 -10.1334 26.7909)
(1.45641e-14 -16.3597 23.0292)
(-3.07587e-15 -11.1608 23.4126)
(4.95718e-15 -12.085 21.4983)
(8.37219e-16 -10.3635 20.6177)
(1.30318e-15 -9.81741 19.3305)
(2.73595e-15 -8.89775 18.2261)
(3.2853e-16 -8.24235 17.1321)
(4.39299e-16 -7.63522 16.1694)
(1.5604e-15 -7.14161 15.2321)
(6.34275e-17 -6.62134 14.1508)
(5.1566e-16 -5.88741 12.7138)
(1.19214e-15 -4.7171 10.3058)
(-4.47358e-16 -2.58253 5.56577)
(-9.46258e-16 0.366701 -0.870811)
(2.00624e-14 -12.4563 27.4983)
(1.28705e-14 -16.5864 24.3989)
(-2.42961e-15 -11.6738 24.2866)
(3.31595e-15 -12.8298 21.6467)
(9.02424e-16 -10.6119 20.6071)
(1.12691e-15 -10.1949 18.7794)
(6.46255e-16 -9.01595 17.3953)
(2.83635e-16 -8.23118 15.8519)
(-1.94748e-17 -7.31472 14.3189)
(-8.37442e-16 -6.58096 12.7044)
(-2.74246e-16 -6.12237 11.2568)
(-8.55548e-16 -5.83639 9.93274)
(-3.83309e-15 -5.02955 7.90258)
(-2.89048e-15 -2.83818 4.10242)
(-2.29695e-15 -0.788018 -1.0258)
(2.12672e-14 -13.4897 27.4506)
(9.47142e-15 -16.2704 24.8441)
(-1.12767e-15 -12.2479 24.4436)
(2.38161e-15 -13.1854 21.7585)
(-2.35355e-16 -10.8668 20.7943)
(1.30891e-15 -10.5588 18.9284)
(-4.48139e-16 -9.23099 17.6828)
(-8.83547e-16 -8.29556 15.959)
(4.38771e-16 -6.64862 13.525)
(-8.41303e-16 -4.62037 9.96185)
(-3.06676e-16 -2.87863 6.6202)
(1.60633e-15 -2.54909 5.2567)
(-2.77773e-15 -3.32718 5.62971)
(-6.96781e-15 -3.85357 5.71346)
(5.41428e-16 -3.34206 5.87771)
(2.12788e-14 -14.4245 28.5731)
(7.95924e-15 -16.8882 26.2831)
(-9.4913e-16 -13.1305 25.7424)
(2.20563e-15 -14.0592 23.1948)
(-5.29177e-16 -11.6627 22.348)
(1.22584e-15 -11.6084 20.4992)
(-5.89862e-16 -10.1837 19.4646)
(-7.70809e-16 -9.46208 17.7849)
(2.80478e-16 -7.63377 15.2809)
(2.24677e-16 -4.99896 10.9052)
(3.04519e-15 -1.76187 5.85537)
(7.30902e-15 0.584023 1.97054)
(9.10401e-15 1.74866 -0.169077)
(7.17954e-15 1.41458 -0.275782)
(3.83111e-15 -0.181445 1.60835)
(1.98373e-14 -14.4486 27.8582)
(9.82097e-15 -18.0007 28.0643)
(-8.2377e-16 -13.9672 26.4436)
(2.21536e-15 -14.8461 23.8163)
(5.783e-17 -12.6142 22.9192)
(7.64986e-16 -12.6903 20.9825)
(1.18147e-16 -11.4147 19.8772)
(-2.25278e-16 -10.9518 18.2901)
(-1.84777e-16 -9.76254 16.4463)
(1.01777e-16 -8.08599 13.4773)
(1.50634e-15 -5.5347 9.53716)
(3.14355e-15 -2.5648 5.11256)
(4.85472e-15 0.714275 0.17592)
(2.22324e-15 3.44061 -3.73781)
(5.33376e-15 2.27078 -5.36235)
(1.83915e-14 -13.4218 25.0221)
(1.27752e-14 -18.1957 28.6706)
(6.41545e-16 -14.4045 26.0951)
(1.86643e-15 -14.5893 23.1167)
(1.28883e-15 -12.7665 21.9186)
(1.44939e-15 -12.555 19.9469)
(9.48283e-16 -11.4809 18.5501)
(8.44802e-16 -10.8977 16.8933)
(1.3088e-15 -10.0624 15.2494)
(8.78675e-16 -9.07209 13.2847)
(8.70577e-16 -7.73736 10.8998)
(2.20914e-15 -5.90607 8.11798)
(3.30734e-15 -3.80617 4.78598)
(9.17524e-16 -0.840509 1.30409)
(2.88189e-16 1.28784 -4.21528)
(1.65378e-14 -12.138 22.0888)
(1.47486e-14 -17.6326 28.3634)
(2.39727e-15 -14.3664 25.5102)
(1.44895e-15 -13.8464 22.2142)
(1.91119e-15 -12.2199 20.7811)
(2.12697e-15 -11.7535 18.8414)
(1.46923e-15 -10.7004 17.3216)
(1.44491e-15 -9.94912 15.6339)
(2.02416e-15 -9.09915 14.0377)
(1.60568e-15 -8.22922 12.4177)
(1.32391e-15 -7.30183 10.6927)
(1.63938e-15 -6.07863 8.78525)
(2.89227e-15 -4.68614 6.39143)
(1.81917e-15 -2.36211 3.35327)
(-6.80131e-15 0.0173622 -2.09892)
(1.59932e-14 -11.2231 20.2367)
(1.59824e-14 -16.9504 27.8319)
(2.6711e-15 -14.2451 25.1112)
(1.63158e-15 -13.2928 21.6937)
(2.19838e-15 -11.7779 20.08)
(9.97324e-16 -11.1965 18.2294)
(2.07715e-15 -10.2011 16.733)
(2.27421e-15 -9.4267 15.1461)
(6.74246e-16 -8.60039 13.6638)
(2.03298e-15 -7.79118 12.2281)
(2.64127e-15 -7.00956 10.7877)
(-3.4124e-16 -6.07777 9.30796)
(1.98471e-15 -5.08113 7.54445)
(2.88641e-15 -3.38796 5.29369)
(-1.09527e-14 -0.834803 0.260671)
(1.51388e-14 -10.7568 19.3804)
(1.69831e-14 -16.286 27.1113)
(3.54118e-15 -13.9973 24.563)
(-6.04398e-16 -12.8619 21.0975)
(2.04756e-15 -11.4319 19.3625)
(7.98929e-16 -10.8645 17.6341)
(-5.19446e-16 -10.0142 16.2494)
(1.63627e-15 -9.3434 14.8016)
(6.62929e-16 -8.63018 13.4079)
(-1.79046e-15 -7.93022 12.0389)
(8.75251e-18 -7.27311 10.7375)
(-6.04877e-16 -6.60391 9.63198)
(-2.38872e-15 -5.98529 8.6336)
(1.6216e-15 -4.8775 7.47068)
(-6.36832e-15 -2.44282 3.23163)
(1.36977e-14 -10.8115 19.5148)
(1.69875e-14 -15.3379 25.998)
(-6.32215e-16 -13.3267 23.5229)
(-1.40585e-15 -12.2082 20.2026)
(3.0638e-15 -10.7382 18.4725)
(-4.36291e-15 -10.175 16.6596)
(-2.6324e-15 -9.29604 15.2067)
(2.65635e-15 -8.72728 13.638)
(-5.51597e-15 -8.12517 12.2084)
(-5.01797e-15 -7.69287 10.9864)
(9.48266e-16 -7.44218 10.2895)
(-4.66401e-15 -7.44588 10.299)
(-6.15457e-15 -7.46339 10.765)
(-6.1235e-15 -7.01235 10.7631)
(-9.77555e-15 -4.67518 7.43516)
(1.46753e-14 -11.8756 21.1496)
(1.42315e-14 -14.6092 25.0244)
(-6.35426e-15 -12.2815 22.1744)
(2.48425e-16 -11.3446 19.7207)
(1.39371e-15 -9.72017 17.8137)
(-5.08658e-15 -8.5147 15.2796)
(2.16285e-15 -7.06159 13.0156)
(4.92509e-15 -6.08698 10.8742)
(-1.4098e-15 -5.35632 9.37326)
(1.10313e-15 -5.37013 8.90263)
(6.41711e-16 -6.09612 9.81156)
(-7.60615e-15 -7.37677 11.7116)
(-4.87379e-15 -8.4905 13.8489)
(-9.54097e-15 -8.97234 14.5487)
(-1.19294e-14 -6.36162 11.2341)
(1.22797e-14 -12.2415 21.3454)
(1.38646e-14 -16.9616 27.9757)
(-4.22424e-15 -14.0833 24.5176)
(-1.07476e-15 -12.4344 21.5862)
(2.98378e-16 -10.7232 19.7391)
(-2.19011e-15 -8.99148 16.8732)
(4.47296e-15 -6.88022 13.9978)
(8.43531e-15 -5.14089 11.3169)
(6.31422e-15 -3.54748 9.07321)
(6.95355e-15 -2.5096 7.50739)
(2.9447e-15 -2.37848 7.27429)
(-2.32904e-15 -3.56349 8.87574)
(-3.68959e-15 -5.80486 11.9034)
(-7.5772e-15 -7.84528 14.0808)
(-9.30725e-15 -5.88244 11.1992)
(7.27e-15 -8.66965 14.5605)
(1.4207e-14 -16.8107 26.2374)
(4.17103e-15 -17.3641 27.5595)
(-3.20669e-16 -15.5277 24.92)
(-9.45027e-16 -13.2318 22.228)
(-1.52363e-15 -11.2841 19.5165)
(3.59495e-15 -9.19001 16.8898)
(6.95395e-15 -7.39064 14.3337)
(7.66552e-15 -5.57829 11.9154)
(7.96946e-15 -3.86636 9.45632)
(5.28472e-15 -2.32938 7.24459)
(2.64249e-15 -1.3741 5.71937)
(3.19304e-16 -1.47617 5.43637)
(-2.07859e-15 -2.67232 6.45805)
(-3.18766e-15 -2.79783 6.03094)
(7.52012e-16 -3.64061 6.67059)
(1.23535e-14 -13.5184 20.4068)
(1.41961e-14 -19.447 28.4806)
(1.02058e-14 -21.3826 30.1749)
(5.7428e-15 -20.8262 28.2315)
(2.36113e-15 -19.1674 24.8072)
(1.1327e-15 -16.8871 21.1071)
(9.09012e-16 -14.5524 17.8216)
(2.25494e-15 -12.315 14.8668)
(4.11903e-15 -10.1815 12.3198)
(4.54422e-15 -8.19645 10.1192)
(4.30272e-15 -6.37487 8.14676)
(3.3166e-15 -4.6709 6.22524)
(2.41027e-15 -2.95378 4.13656)
(4.05449e-15 -0.473747 0.937059)
(1.76328e-17 2.18588 8.64871)
(7.8052e-16 -0.355203 1.56267)
(6.21767e-16 -0.0674049 -0.6097)
(5.56656e-16 -0.0868424 -0.425044)
(4.87025e-16 -0.00380676 -0.530133)
(5.26914e-16 0.191757 -0.788812)
(4.38216e-16 0.112088 -0.500535)
(6.07387e-16 0.18281 -0.464682)
(3.66995e-16 0.193305 -0.411726)
(3.07465e-15 0.373939 -0.585875)
(3.28318e-15 0.315521 -0.382599)
(3.4994e-15 0.351374 -0.3632)
(4.04705e-15 0.553037 -0.489332)
(3.04954e-15 0.436416 -0.338765)
(3.04145e-15 0.511996 -0.357084)
(2.84835e-15 0.49987 -0.378357)
(3.14982e-15 0.68965 -0.486316)
(2.02487e-15 0.575467 -0.354708)
(1.7208e-15 0.620688 -0.375276)
(2.04778e-15 0.832135 -0.46124)
(1.45251e-15 0.649855 -0.344169)
(1.44079e-15 0.745429 -0.37062)
(1.37061e-15 0.720265 -0.39834)
(1.86966e-15 0.942943 -0.464854)
(1.31647e-15 0.741536 -0.341189)
(1.36773e-15 0.841342 -0.356672)
(9.75734e-16 0.816335 -0.377494)
(1.3394e-15 1.01447 -0.417692)
(9.25697e-16 0.825824 -0.305107)
(7.95758e-16 0.880605 -0.319436)
(1.10446e-15 1.0896 -0.323561)
(6.91485e-16 0.836206 -0.247516)
(6.31186e-16 0.938768 -0.265248)
(5.51212e-16 0.906872 -0.291373)
(8.29338e-16 1.08674 -0.277997)
(4.87086e-16 0.862953 -0.225629)
(3.47159e-16 0.919206 -0.24995)
(4.15299e-16 1.09962 -0.210534)
(1.37573e-16 0.823557 -0.184991)
(9.80028e-17 0.922 -0.202888)
(9.02656e-17 0.886468 -0.215587)
(2.3558e-16 1.05479 -0.15094)
(2.2093e-16 0.79879 -0.115785)
(3.47997e-16 0.887262 -0.115218)
(4.66097e-16 0.848221 -0.0968856)
(1.01212e-15 0.990315 -0.0423761)
(9.64809e-16 0.819682 -0.0270441)
(1.0507e-15 0.848237 -0.0168227)
(1.85361e-15 1.0406 -0.135852)
(1.43096e-15 0.887873 -0.0411111)
(1.44588e-15 0.963545 0.00946675)
(1.43032e-15 0.913246 0.0542256)
(1.97718e-15 1.02692 0.21112)
(1.60671e-15 0.829273 0.170819)
(1.52102e-15 0.874099 0.176727)
(1.69265e-15 0.837605 0.189144)
(2.26588e-15 0.819787 0.208484)
(1.86304e-15 0.586289 -0.0732903)
(1.62651e-15 0.613032 -0.0273407)
(2.43515e-15 0.572538 -0.727787)
(2.07678e-15 0.168345 -1.11156)
(1.95715e-15 0.259658 -1.21337)
(1.71931e-15 0.332447 -1.19167)
(3.04172e-15 0.785875 -2.48477)
(-3.57315e-15 -0.425156 0.0840619)
(-3.00825e-15 0.0183727 -0.29711)
(-4.97516e-15 -0.404321 1.28958)
(-4.45395e-15 -1.145 2.59565)
(-4.10064e-15 -1.23141 2.42707)
(-4.05503e-15 -1.2364 2.58261)
(-5.33197e-15 -2.23076 4.9316)
(-3.96397e-15 -2.73824 4.76705)
(-3.82723e-15 -3.12079 4.84429)
(-3.66761e-15 -3.08698 5.02441)
(-4.70786e-15 -4.82912 8.18504)
(-3.33997e-15 -5.15548 6.867)
(-3.51461e-15 -5.22489 7.32285)
(-4.62902e-15 -7.4607 11.1058)
(-3.47299e-15 -7.44787 8.79133)
(-3.61804e-15 -7.86969 9.36244)
(-3.58696e-15 -8.43277 10.6564)
(-3.61651e-15 -8.39656 10.3558)
(-3.55537e-15 -8.44544 10.4663)
(-4.07228e-15 -10.3154 13.2091)
(-2.71018e-15 -9.44893 11.4741)
(-2.3472e-15 -9.7119 11.8866)
(-1.72527e-15 -9.69359 11.8856)
(-9.98436e-16 -9.79686 11.8863)
(-2.34926e-16 -9.8601 11.9204)
(5.20872e-16 -9.94933 11.9848)
(1.22936e-15 -10.0292 12.1856)
(1.80001e-15 -10.0774 12.4855)
(2.20508e-15 -11.2054 14.5342)
(2.3221e-15 -10.8852 13.3565)
(2.42904e-15 -11.0601 13.5353)
(2.287e-15 -11.0175 13.6477)
(2.252e-15 -11.1826 14.0599)
(2.07653e-15 -11.1569 14.1631)
(1.91004e-15 -11.2646 14.412)
(1.73574e-15 -11.3165 14.6883)
(1.56105e-15 -11.3873 15.0353)
(6.8431e-16 -12.3137 17.4549)
(9.68858e-16 -11.9458 16.478)
(4.60455e-16 -12.0721 16.9972)
(-9.04652e-17 -12.0867 17.268)
(-8.58803e-16 -12.1664 17.6252)
(-1.81104e-15 -12.2066 18.0814)
(-2.85949e-15 -12.3258 18.614)
(-3.77709e-15 -12.3541 18.9546)
(-4.48349e-15 -12.4442 19.3633)
(-4.84984e-15 -12.5931 19.7247)
(-5.24974e-15 -12.6855 21.1993)
(-3.83219e-15 -12.5683 20.2207)
(-2.47814e-15 -12.6832 20.4951)
(-8.17078e-16 -12.6941 20.5542)
(8.83636e-16 -12.7885 20.6898)
(2.51795e-15 -12.8047 20.8655)
(3.79688e-15 -12.9055 21.3312)
(4.84861e-15 -12.894 21.5822)
(5.54491e-15 -13.0936 21.7174)
(6.91348e-15 -12.0272 21.2076)
(5.66743e-15 -12.2872 20.8584)
(5.68577e-15 -12.2933 21.2453)
(5.54082e-15 -12.3292 21.5386)
(5.50953e-15 -12.285 21.4936)
(5.55422e-15 -12.3232 21.5081)
(5.7104e-15 -12.3217 21.4665)
(5.93355e-15 -12.2248 21.4501)
(6.30661e-15 -12.5246 21.716)
(6.49547e-15 -9.73036 17.9665)
(6.34104e-15 -10.8668 19.0389)
(6.22902e-15 -10.7308 18.4287)
(6.13339e-15 -10.7146 18.0572)
(6.35913e-15 -10.6538 17.874)
(6.25774e-15 -10.5643 17.3476)
(6.15058e-15 -10.4135 16.78)
(6.18192e-15 -10.2495 16.3168)
(6.28931e-15 -10.3358 15.8412)
(6.33805e-15 -6.9051 11.3495)
(7.38352e-15 -8.40721 14.7777)
(7.48501e-15 -7.98662 14.4905)
(7.71927e-15 -7.97485 14.6854)
(7.9675e-15 -7.71809 14.6862)
(8.31164e-15 -7.69569 14.6056)
(9.0124e-15 -7.41444 14.1115)
(8.6318e-15 -7.35291 13.7935)
(8.4651e-15 -7.1181 13.1701)
(7.97337e-15 -7.04333 12.2036)
(4.80875e-15 -3.37576 5.47611)
(6.44169e-15 -5.28978 8.54995)
(5.54717e-15 -4.7818 6.58995)
(5.11705e-15 -4.98422 5.84692)
(4.44138e-15 -4.64363 4.54674)
(3.61981e-15 -4.59101 3.22172)
(2.18314e-15 -4.39653 1.2775)
(9.27953e-16 -4.08453 -0.24978)
(1.1572e-15 -4.10846 0.114888)
(7.20846e-16 -3.82168 -1.45417)
(8.5573e-16 -3.7248 -0.309486)
(5.90066e-16 -3.6954 -0.47353)
(3.0324e-16 -2.83198 -1.2282)
(6.83768e-16 -4.10076 -1.20957)
(3.43735e-16 -3.32934 -0.971009)
(3.01345e-16 -2.97656 -0.665705)
(3.52838e-16 -3.7708 -0.948212)
(2.63832e-16 -2.63133 -0.569976)
(3.51373e-16 -3.34317 -0.844821)
(4.1895e-16 -3.09256 -0.62996)
(3.47702e-16 -2.56526 -0.451055)
(4.57452e-16 -3.06126 -0.664336)
(3.3769e-16 -2.90932 -0.502368)
(2.40098e-16 -2.48828 -0.355627)
(2.64594e-16 -3.31083 -0.5011)
(1.44358e-16 -2.30765 -0.304016)
(1.8614e-16 -2.9996 -0.435741)
(2.01159e-16 -2.76794 -0.336821)
(1.40807e-16 -2.4182 -0.230416)
(2.02533e-16 -3.24209 -0.314399)
(2.17541e-16 -2.26103 -0.173872)
(3.71646e-16 -2.97504 -0.216773)
(3.9736e-16 -2.86532 -0.16335)
(3.76537e-16 -2.37845 -0.0807585)
(6.19104e-16 -2.92045 -0.0866042)
(5.88466e-16 -2.83069 -0.0397684)
(5.26907e-16 -2.44307 0.0218492)
(7.12485e-16 -3.32053 0.0516868)
(5.04289e-16 -2.34753 0.0899678)
(7.11274e-16 -3.09928 0.177704)
(5.9998e-16 -2.87543 0.151945)
(4.14555e-16 -2.54275 0.15713)
(4.59824e-16 -3.45111 0.204927)
(2.45914e-16 -2.4382 0.171744)
(2.54854e-16 -3.23703 0.269713)
(9.33869e-17 -3.0997 0.174038)
(4.65893e-17 -2.60283 0.161625)
(6.01992e-19 -3.2105 0.208463)
(-3.94581e-17 -3.08963 0.130376)
(-2.03053e-17 -2.67903 0.127722)
(-2.6461e-17 -3.63957 0.145115)
(-8.09507e-18 -2.56631 0.118729)
(-1.33355e-19 -3.3866 0.181045)
(4.09582e-18 -3.10378 0.0976614)
(-2.26484e-18 -2.73592 0.0953758)
(-3.87197e-18 -3.69257 0.0876331)
(6.05837e-18 -2.58233 0.0654667)
(-9.50112e-18 -3.41712 0.0846269)
(-3.55539e-17 -3.22056 -0.0168946)
(-5.13827e-17 -2.68342 -0.00589991)
(-1.14804e-16 -3.28556 -0.0657294)
(-1.45517e-16 -3.1183 -0.130209)
(-1.44008e-16 -2.67431 -0.0960917)
(-2.27441e-16 -3.60519 -0.187744)
(-1.86998e-16 -2.49309 -0.138867)
(-2.44087e-16 -3.27086 -0.229299)
(-1.74958e-16 -2.94432 -0.268948)
(-1.53591e-16 -2.55732 -0.210304)
(-2.02339e-16 -3.42149 -0.339322)
(-1.38221e-16 -2.33287 -0.245459)
(-1.97406e-16 -3.06882 -0.377935)
(-1.58408e-16 -2.83752 -0.392797)
(-1.26575e-16 -2.31708 -0.308136)
(-1.61223e-16 -2.8132 -0.489785)
(-8.57766e-17 -2.62242 -0.470935)
(-9.69487e-17 -2.19767 -0.369599)
(-1.29341e-16 -2.95876 -0.54519)
(-1.09483e-16 -1.96616 -0.393295)
(-1.56547e-16 -2.5894 -0.601193)
(-1.34815e-16 -2.2628 -0.567849)
(-1.0522e-16 -1.91413 -0.453764)
(-1.43135e-16 -2.57249 -0.657463)
(-1.04652e-16 -1.65379 -0.477707)
(-1.38612e-16 -2.20714 -0.724461)
(-6.41699e-17 -1.96492 -0.680133)
(-7.0516e-17 -1.52777 -0.551839)
(-1.04259e-16 -1.87392 -0.839596)
(-1.49212e-16 -1.67232 -0.769847)
(-1.2014e-16 -1.31353 -0.618486)
(-1.68873e-16 -1.85451 -0.877368)
(-1.36026e-16 -1.07058 -0.646167)
(-2.09165e-16 -1.3641 -0.989311)
(1.89405e-52 0.161176 0.171456)
(1.5627e-51 0.20444 0.169041)
(4.14648e-51 0.232581 0.17027)
(-1.15459e-51 0.259766 0.170804)
(-6.10972e-50 0.286488 0.172632)
(-2.47476e-49 0.311848 0.174601)
(-1.54273e-49 0.336888 0.177287)
(3.05354e-48 0.361297 0.180346)
(1.45817e-47 0.385468 0.183952)
(9.62246e-48 0.409371 0.187995)
(-1.94543e-46 0.433178 0.192527)
(-8.95926e-46 0.456933 0.197512)
(-1.97339e-46 0.480733 0.202963)
(1.39942e-44 0.504636 0.208868)
(5.49065e-44 0.528711 0.215233)
(-3.04512e-44 0.553013 0.222053)
(-1.01848e-42 0.577599 0.229331)
(-3.18513e-42 0.602521 0.237068)
(5.19323e-42 0.627829 0.245269)
(7.0284e-41 0.653568 0.253938)
(1.6762e-40 0.679784 0.263081)
(-5.16991e-40 0.706519 0.272705)
(-4.44688e-39 0.733812 0.282815)
(-7.76256e-39 0.761699 0.293419)
(3.96983e-38 0.79021 0.304524)
(2.53802e-37 0.81937 0.316135)
(3.12705e-37 0.849192 0.328255)
(-2.49797e-36 0.879681 0.340883)
(-1.29885e-35 0.910825 0.354016)
(-1.13797e-35 0.942593 0.367643)
(1.30825e-34 0.974933 0.381744)
(5.96004e-34 1.00777 0.396293)
(4.31249e-34 1.041 0.411253)
(-5.68183e-33 1.07451 0.426575)
(-2.45339e-32 1.10814 0.442204)
(-1.99601e-32 1.14175 0.458073)
(2.00177e-31 1.1752 0.474113)
(8.98613e-31 1.20837 0.490252)
(1.03008e-30 1.24117 0.506418)
(-5.39575e-30 1.27357 0.522546)
(-2.8503e-29 1.30562 0.538575)
(-4.79672e-29 1.33739 0.554446)
(9.21131e-29 1.36902 0.570102)
(7.40461e-28 1.40067 0.585478)
(1.78746e-27 1.43251 0.6005)
(9.08103e-29 1.46472 0.615084)
(-1.40835e-26 1.49754 0.629134)
(-4.99364e-26 1.53123 0.642533)
(-6.73065e-26 1.56609 0.655106)
(1.34492e-25 1.60225 0.666551)
(9.5261e-25 1.63947 0.676344)
(2.38045e-24 1.67689 0.683668)
(1.86996e-24 1.71301 0.687367)
(-8.89693e-24 1.74571 0.685904)
(-4.23073e-23 1.77217 0.677341)
(-9.30963e-23 1.78889 0.659329)
(-8.05908e-23 1.79145 0.62911)
(2.29936e-22 1.77415 0.583587)
(1.22883e-21 1.72946 0.519478)
(3.16256e-21 1.64742 0.433633)
(5.18466e-21 1.51336 0.323771)
(3.48036e-21 1.30458 0.190376)
(-1.04558e-20 0.991095 0.0347067)
(-4.34771e-20 0.43987 -0.134956)
(-1.57594e-20 -0.523569 -0.312937)
(-2.34487e-21 -1.08335 -0.343686)
(-3.86132e-23 -1.60769 -0.368112)
(9.0231e-24 -2.08467 -0.380651)
(-1.92043e-23 -2.51402 -0.399141)
(3.25544e-25 -2.89711 -0.396591)
(-2.73448e-23 -3.16439 -0.405532)
(7.55083e-23 -3.41907 -0.36755)
(-2.36296e-22 -3.51247 -0.373677)
(9.44666e-22 -3.77898 -0.283277)
(-4.23112e-21 -3.67168 -0.357748)
(3.46676e-20 -4.20702 -0.173966)
(-3.0814e-19 -3.75361 -0.459724)
(3.44997e-18 -4.59793 -0.183263)
(1.69698e-18 -5.79502 -0.546635)
(3.63039e-52 0.161685 0.188075)
(4.57247e-51 0.204709 0.184516)
(1.442e-50 0.232353 0.185669)
(7.45408e-51 0.259426 0.185937)
(-1.57663e-49 0.28591 0.187769)
(-7.71485e-49 0.311125 0.189736)
(-9.50511e-49 0.335987 0.192525)
(7.41995e-48 0.360244 0.195717)
(4.33696e-47 0.384255 0.199514)
(5.36119e-47 0.408007 0.203783)
(-4.73116e-46 0.431662 0.208583)
(-2.61635e-45 0.455268 0.21387)
(-2.06766e-45 0.47892 0.219659)
(3.48032e-44 0.502675 0.225934)
(1.59922e-43 0.526603 0.2327)
(7.91665e-45 0.550758 0.239952)
(-2.58325e-42 0.575197 0.247693)
(-9.34992e-42 0.599971 0.255923)
(8.56471e-42 0.625128 0.264646)
(1.80429e-40 0.650716 0.273867)
(5.01275e-40 0.67678 0.28359)
(-1.06395e-39 0.703359 0.293821)
(-1.14795e-38 0.730496 0.304568)
(-2.40138e-38 0.758223 0.315836)
(8.74499e-38 0.786574 0.327631)
(6.5547e-37 0.815571 0.339954)
(1.02279e-36 0.845231 0.352808)
(-5.62959e-36 0.875559 0.366186)
(-3.33942e-35 0.906543 0.380079)
(-4.00649e-35 0.938158 0.394469)
(2.95001e-34 0.970352 0.409328)
(1.51639e-33 1.00305 0.42462)
(1.58117e-33 1.03617 0.440296)
(-1.26055e-32 1.06956 0.4563)
(-6.12825e-32 1.10311 0.472564)
(-6.8565e-32 1.13666 0.489017)
(4.28548e-31 1.17007 0.50559)
(2.18216e-30 1.20322 0.522212)
(3.11588e-30 1.23603 0.538825)
(-1.07624e-29 1.26846 0.555374)
(-6.65502e-29 1.30054 0.571817)
(-1.29413e-28 1.33237 0.588111)
(1.49645e-28 1.36408 0.60421)
(1.64044e-27 1.39583 0.620058)
(4.41415e-27 1.42779 0.635583)
(1.84567e-27 1.46016 0.65071)
(-2.88606e-26 1.49316 0.665355)
(-1.14789e-25 1.52708 0.679413)
(-1.80697e-25 1.56224 0.692696)
(2.18609e-25 1.59885 0.704832)
(2.05274e-24 1.63675 0.715154)
(5.57425e-24 1.67516 0.722639)
(5.40203e-24 1.71271 0.725907)
(-1.75615e-23 1.7474 0.72319)
(-9.36486e-23 1.77655 0.712313)
(-2.14329e-22 1.79679 0.690696)
(-1.92372e-22 1.8038 0.655335)
(5.29896e-22 1.79199 0.602866)
(2.85384e-21 1.75383 0.529763)
(7.14237e-21 1.67919 0.432614)
(1.05592e-20 1.55287 0.309029)
(2.31039e-21 1.35161 0.160434)
(-3.87486e-20 1.04271 -0.0138334)
(-1.21672e-19 0.502021 -0.196458)
(-2.58816e-20 -0.539255 -0.386228)
(-2.92184e-21 -1.11149 -0.379572)
(5.66018e-23 -1.63339 -0.386402)
(2.6805e-23 -2.11001 -0.392204)
(-1.89067e-23 -2.5399 -0.404973)
(-4.35817e-27 -2.9217 -0.397107)
(-2.72506e-23 -3.19011 -0.40257)
(7.5124e-23 -3.44186 -0.362133)
(-2.35613e-22 -3.53725 -0.36676)
(9.4473e-22 -3.79195 -0.27652)
(-4.25538e-21 -3.69175 -0.350149)
(3.50398e-20 -4.1984 -0.169038)
(-3.12927e-19 -3.75387 -0.450384)
(3.42609e-18 -4.58294 -0.179223)
(2.20203e-18 -5.69559 -0.551529)
(4.00401e-52 0.162017 0.196949)
(1.00675e-50 0.204906 0.192947)
(3.63489e-50 0.232262 0.194048)
(3.77832e-50 0.259271 0.194181)
(-3.05908e-49 0.285625 0.196017)
(-1.78481e-48 0.310763 0.197986)
(-3.00883e-48 0.335531 0.200834)
(1.35434e-47 0.35971 0.2041)
(9.6261e-47 0.383639 0.208003)
(1.60959e-46 0.407314 0.212398)
(-8.73646e-46 0.430891 0.217347)
(-5.70265e-45 0.454422 0.2228)
(-6.86531e-45 0.477998 0.228774)
(6.628e-44 0.501679 0.235253)
(3.46421e-43 0.525533 0.242239)
(1.59162e-43 0.549614 0.249728)
(-5.02849e-42 0.573978 0.257722)
(-2.02584e-41 0.598677 0.266221)
(9.44413e-42 0.62376 0.27523)
(3.55051e-40 0.649272 0.284751)
(1.09209e-39 0.675258 0.29479)
(-1.70745e-39 0.701761 0.305354)
(-2.26583e-38 0.728819 0.316448)
(-5.29514e-38 0.756467 0.328077)
(1.51524e-37 0.784739 0.340247)
(1.29072e-36 0.813657 0.352958)
(2.30103e-36 0.843239 0.366209)
(-9.96818e-36 0.87349 0.379992)
(-6.53117e-35 0.904402 0.394295)
(-9.23108e-35 0.935947 0.409095)
(5.21996e-34 0.968079 0.42436)
(2.93166e-33 1.00073 0.440047)
(3.6684e-33 1.03379 0.456102)
(-2.19524e-32 1.06716 0.472463)
(-1.16435e-31 1.10068 0.489058)
(-1.53619e-31 1.13422 0.505816)
(7.21974e-31 1.16762 0.522666)
(4.04545e-30 1.20077 0.539544)
(6.53977e-30 1.23359 0.556396)
(-1.69602e-29 1.26603 0.573179)
(-1.19392e-28 1.29813 0.58986)
(-2.5384e-28 1.32999 0.606404)
(1.85773e-28 1.36172 0.622771)
(2.81911e-27 1.39351 0.638907)
(8.15634e-27 1.42552 0.654743)
(5.21897e-27 1.45794 0.670206)
(-4.65909e-26 1.491 0.685226)
(-2.0137e-25 1.52501 0.699705)
(-3.44709e-25 1.56031 0.713451)
(2.88881e-25 1.59715 0.726046)
(3.44821e-24 1.63542 0.736728)
(9.77129e-24 1.67441 0.744359)
(1.00915e-23 1.7128 0.747444)
(-2.90104e-23 1.74865 0.744098)
(-1.60001e-22 1.77934 0.732031)
(-3.61007e-22 1.80155 0.70855)
(-2.81882e-22 1.81104 0.670522)
(1.06833e-21 1.80223 0.61443)
(5.10335e-21 1.76762 0.536602)
(1.16259e-20 1.69696 0.433429)
(1.34569e-20 1.57469 0.302366)
(-1.15989e-20 1.37738 0.145291)
(-9.98078e-20 1.06977 -0.0406324)
(-2.534e-19 0.531734 -0.22538)
(-6.31447e-20 -0.499122 -0.461098)
(-6.52389e-21 -1.09703 -0.443577)
(4.51714e-22 -1.61831 -0.419536)
(9.74102e-23 -2.09428 -0.411114)
(-1.92623e-23 -2.52618 -0.415357)
(-7.46958e-25 -2.90994 -0.399172)
(-2.71339e-23 -3.1831 -0.399015)
(7.46407e-23 -3.43686 -0.354687)
(-2.34765e-22 -3.53912 -0.356687)
(9.44819e-22 -3.78879 -0.266365)
(-4.28447e-21 -3.69949 -0.338531)
(3.54955e-20 -4.18606 -0.160556)
(-3.18466e-19 -3.75197 -0.438007)
(3.3971e-18 -4.57209 -0.167871)
(2.68034e-18 -5.62446 -0.567766)
(-1.92326e-52 0.162543 0.207287)
(2.10576e-50 0.205211 0.202873)
(8.76589e-50 0.23215 0.203934)
(1.31582e-49 0.259051 0.203946)
(-5.4475e-49 0.285208 0.205799)
(-3.96185e-48 0.310225 0.207788)
(-8.44626e-48 0.334848 0.210716)
(2.23407e-47 0.358907 0.214083)
(2.05155e-46 0.382709 0.218122)
(4.32209e-46 0.406265 0.222675)
(-1.49865e-45 0.429723 0.227808)
(-1.19588e-44 0.453138 0.233468)
(-1.91454e-44 0.476599 0.239671)
(1.20322e-43 0.500165 0.246399)
(7.23246e-43 0.523905 0.253656)
(6.00809e-43 0.547872 0.261434)
(-9.45184e-42 0.572123 0.269737)
(-4.23174e-41 0.596708 0.278565)
(3.49842e-42 0.621676 0.28792)
(6.78594e-40 0.647072 0.297808)
(2.28976e-39 0.672941 0.308232)
(-2.55046e-39 0.699324 0.319199)
(-4.35541e-38 0.726262 0.330715)
(-1.1185e-37 0.75379 0.342784)
(2.54023e-37 0.781939 0.35541)
(2.47841e-36 0.810736 0.368592)
(4.91715e-36 0.840197 0.382328)
(-1.7227e-35 0.87033 0.396608)
(-1.24649e-34 0.901127 0.411414)
(-1.99653e-34 0.932565 0.426719)
(9.04255e-34 0.964597 0.442485)
(5.5342e-33 0.997154 0.458663)
(7.92907e-33 1.03014 0.475193)
(-3.7466e-32 1.06345 0.492005)
(-2.16173e-31 1.09693 0.509023)
(-3.2289e-31 1.13043 0.526171)
(1.19088e-30 1.16383 0.543378)
(7.33615e-30 1.19698 0.560583)
(1.30777e-29 1.2298 0.577742)
(-2.59593e-29 1.26226 0.59482)
(-2.09742e-28 1.29439 0.611795)
(-4.8031e-28 1.32628 0.628643)
(1.9528e-28 1.35806 0.645333)
(4.74716e-27 1.38991 0.661812)
(1.4637e-26 1.42199 0.678016)
(1.19743e-26 1.4545 0.693877)
(-7.3705e-26 1.48768 0.709337)
(-3.43959e-25 1.52183 0.724314)
(-6.25564e-25 1.55734 0.738613)
(3.68974e-25 1.59452 0.751774)
(5.65468e-24 1.63335 0.762936)
(1.6402e-23 1.67319 0.770832)
(1.70225e-23 1.71281 0.773831)
(-4.85756e-23 1.75037 0.769904)
(-2.62223e-22 1.78332 0.756624)
(-5.58151e-22 1.80844 0.73116)
(-2.91932e-22 1.82158 0.690219)
(2.16141e-21 1.81724 0.630099)
(8.5405e-21 1.78791 0.546933)
(1.62542e-20 1.72322 0.436838)
(8.665e-21 1.60713 0.297053)
(-5.53971e-20 1.41589 0.129551)
(-2.27126e-19 1.11078 -0.0704028)
(-4.83897e-19 0.58166 -0.264102)
(-1.62566e-19 -0.472491 -0.525154)
(-1.92598e-20 -1.10011 -0.53036)
(1.48616e-21 -1.6214 -0.47063)
(3.22975e-22 -2.09336 -0.438311)
(-1.88245e-23 -2.52553 -0.430674)
(-2.44519e-24 -2.90972 -0.403328)
(-2.70409e-23 -3.18534 -0.395256)
(7.41212e-23 -3.43935 -0.34543)
(-2.33866e-22 -3.54565 -0.343891)
(9.44875e-22 -3.78965 -0.252894)
(-4.31343e-21 -3.70809 -0.323656)
(3.59596e-20 -4.1767 -0.148772)
(-3.2375e-19 -3.75077 -0.422794)
(3.3684e-18 -4.56064 -0.154406)
(3.04187e-18 -5.56719 -0.537056)
(-3.0851e-51 0.163054 0.217061)
(4.09847e-50 0.205513 0.212386)
(2.00743e-49 0.232074 0.213415)
(3.8879e-49 0.258869 0.213339)
(-8.36166e-49 0.284843 0.215215)
(-8.33769e-48 0.309748 0.217237)
(-2.1676e-47 0.334239 0.220248)
(3.04542e-47 0.358187 0.223721)
(4.14307e-46 0.381874 0.227897)
(1.06363e-45 0.405322 0.23261)
(-2.27899e-45 0.428673 0.237927)
(-2.38245e-44 0.451983 0.243793)
(-4.76888e-44 0.47534 0.250223)
(2.03717e-43 0.498804 0.257197)
(1.4385e-42 0.522441 0.264719)
(1.69754e-42 0.546307 0.272782)
(-1.69077e-41 0.570456 0.281388)
(-8.43268e-41 0.594938 0.290537)
(-2.14757e-41 0.619802 0.300233)
(1.24396e-39 0.645095 0.310478)
(4.57749e-39 0.670859 0.321279)
(-3.39103e-39 0.697137 0.332641)
(-8.05603e-38 0.723968 0.344569)
(-2.24679e-37 0.751388 0.357067)
(4.05925e-37 0.77943 0.370139)
(4.58622e-36 0.808119 0.383782)
(9.94313e-36 0.837475 0.397993)
(-2.86923e-35 0.867506 0.412757)
(-2.29451e-34 0.898205 0.428055)
(-4.06028e-34 0.929552 0.443855)
(1.51457e-33 0.961503 0.460113)
(1.00833e-32 0.993991 0.476773)
(1.60605e-32 1.02692 0.493769)
(-6.1871e-32 1.06018 0.511024)
(-3.87688e-31 1.09364 0.528458)
(-6.3899e-31 1.12713 0.54599)
(1.89683e-30 1.16052 0.563549)
(1.28621e-29 1.19368 0.58108)
(2.48629e-29 1.22652 0.598542)
(-3.78507e-29 1.259 0.615913)
(-3.56366e-28 1.29115 0.633183)
(-8.70966e-28 1.32307 0.650338)
(1.21601e-28 1.35488 0.667354)
(7.71912e-27 1.38677 0.684182)
(2.52538e-26 1.41891 0.700759)
(2.45801e-26 1.45148 0.717024)
(-1.11766e-25 1.48473 0.732932)
(-5.63184e-25 1.51898 0.748421)
(-1.07581e-24 1.55466 0.763299)
(4.19409e-25 1.59214 0.777069)
(8.79729e-24 1.63149 0.788776)
(2.57858e-23 1.67215 0.797024)
(2.59931e-23 1.71296 0.800054)
(-7.72745e-23 1.75214 0.795703)
(-3.91711e-22 1.78723 0.781416)
(-7.42917e-22 1.8151 0.754235)
(-3.66845e-23 1.83168 0.710717)
(3.97792e-21 1.83153 0.646977)
(1.21744e-20 1.80716 0.558944)
(1.53758e-20 1.74807 0.44242)
(-2.00864e-20 1.63781 0.294395)
(-1.57854e-19 1.4524 0.116586)
(-4.41591e-19 1.14948 -0.0975032)
(-7.9288e-19 0.628059 -0.301702)
(-3.99345e-19 -0.446453 -0.591352)
(-5.85984e-20 -1.10899 -0.631984)
(3.75726e-21 -1.6366 -0.543394)
(9.95693e-22 -2.10247 -0.477237)
(-1.02237e-23 -2.53321 -0.452031)
(-6.53517e-24 -2.917 -0.410487)
(-2.70718e-23 -3.19404 -0.391864)
(7.35741e-23 -3.44719 -0.334585)
(-2.32927e-22 -3.55635 -0.328404)
(9.44835e-22 -3.79332 -0.235961)
(-4.34036e-21 -3.71869 -0.305277)
(3.64078e-20 -4.16776 -0.133399)
(-3.28476e-19 -3.75004 -0.404908)
(3.34278e-18 -4.54804 -0.135813)
(2.98684e-18 -5.5031 -0.549028)
(-1.27672e-50 0.163624 0.226759)
(7.27408e-50 0.205845 0.221913)
(4.36395e-49 0.232004 0.222922)
(1.03484e-48 0.258675 0.222786)
(-9.42031e-49 0.284449 0.224697)
(-1.65659e-47 0.309225 0.226764)
(-5.17033e-47 0.33357 0.229869)
(2.51055e-47 0.357394 0.233457)
(7.89015e-46 0.380953 0.23778)
(2.43272e-45 0.404283 0.242661)
(-2.82114e-45 0.427514 0.248171)
(-4.49575e-44 0.450708 0.254251)
(-1.0889e-43 0.47395 0.260915)
(3.17107e-43 0.497301 0.268144)
(2.72317e-42 0.520825 0.27594)
(4.12621e-42 0.544579 0.284297)
(-2.87435e-41 0.568615 0.293215)
(-1.60395e-40 0.592984 0.302695)
(-8.87229e-41 0.617735 0.31274)
(2.18984e-39 0.642913 0.323353)
(8.74087e-39 0.668562 0.33454)
(-3.76619e-39 0.694723 0.346306)
(-1.43658e-37 0.721436 0.358656)
(-4.30579e-37 0.748738 0.371595)
(6.19996e-37 0.776661 0.385124)
(8.19696e-36 0.805233 0.39924)
(1.91264e-35 0.834473 0.413938)
(-4.62745e-35 0.864391 0.429201)
(-4.08451e-34 0.894985 0.445005)
(-7.82666e-34 0.926233 0.461314)
(2.46533e-33 0.958096 0.478079)
(1.77889e-32 0.990509 0.495239)
(3.07975e-32 1.02338 0.512719)
(-9.94235e-32 1.0566 0.530436)
(-6.74316e-31 1.09003 0.548303)
(-1.20258e-30 1.12351 0.566237)
(2.93516e-30 1.1569 0.584166)
(2.19113e-29 1.19007 0.602038)
(4.5336e-29 1.22293 0.619819)
(-5.26147e-29 1.25543 0.6375)
(-5.89035e-28 1.2876 0.655079)
(-1.52656e-27 1.31954 0.672556)
(-1.35619e-28 1.35139 0.689914)
(1.21784e-26 1.38332 0.707107)
(4.22467e-26 1.41551 0.724075)
(4.73943e-26 1.44815 0.740762)
(-1.61275e-25 1.48148 0.75714)
(-8.87674e-25 1.51583 0.773169)
(-1.78492e-24 1.55168 0.78867)
(2.93773e-25 1.58948 0.803113)
(1.27491e-23 1.62941 0.815451)
(3.79111e-23 1.67097 0.824159)
(3.80122e-23 1.71309 0.827351)
(-1.05242e-22 1.75408 0.822732)
(-4.97902e-22 1.79155 0.80762)
(-7.64743e-22 1.82246 0.778933)