/*--------------------------------*- C++ -*----------------------------------*\
| =========                 |                                                 |
| \\      /  F ield         | OpenFOAM: The Open Source CFD Toolbox           |
|  \\    /   O peration     | Version:  4.1                                   |
|   \\  /    A nd           | Web:      www.OpenFOAM.org                      |
|    \\/     M anipulation  |                                                 |
\*---------------------------------------------------------------------------*/
FoamFile
{
    version     2.0;
    format      ascii;
    class       volScalarField;
    location    "6";
    object      p;
}
// * * * * * * * * * * * * * * * * * * * * * * * * * * * * * * * * * * * * * //

dimensions      [0 2 -2 0 0 0 0];

internalField   nonuniform List<scalar> 
6785
(
4415.58
4351.06
4299.67
4249.9
4203.73
4160.39
4119.73
4081.49
4045.44
4011.07
3978.13
3947.93
3919.58
3885.24
3853.44
3875.67
3857.62
3860
3855.27
3851.45
3847.58
3844.12
3841.32
3839.38
3838.39
3838.31
3839.54
3842.92
3846.06
3845.86
3816.64
3810.6
3820.12
3819.45
3822.59
3824.89
3827.35
3829.68
3831.9
3833.98
3835.79
3837.15
3838.21
3839.72
3841.56
3868.42
3866.34
3871.51
3868.15
3868.97
3867.84
3867.03
3866.07
3865.12
3864.22
3863.43
3862.75
3862.34
3862.84
3864.88
3879.66
3878.42
3881.98
3879.07
3881
3880.69
3881.13
3881.56
3882.1
3882.75
3883.54
3884.51
3885.74
3886.91
3888.37
3885.74
3885.53
3888.48
3886.8
3889.2
3889.28
3890.32
3891.05
3891.78
3892.4
3892.95
3893.52
3894.24
3894.77
3895.33
3894.43
3894.39
3896.48
3894.89
3896.63
3896.07
3896.63
3896.64
3896.73
3896.63
3896.46
3896.31
3896.3
3896.27
3896.13
3895.98
3895.24
3896.48
3894.67
3895.7
3894.66
3894.83
3894.35
3894.02
3893.42
3892.78
3892.18
3891.64
3891.09
3890.33
3886.63
3885.19
3885.62
3883.69
3884.09
3882.75
3882.56
3881.73
3881.16
3880.39
3879.68
3878.97
3878.1
3877.02
3875.91
3869.13
3867.63
3867.51
3865.66
3865.56
3863.99
3863.4
3862.21
3861.33
3860.44
3859.72
3859
3858.1
3857.33
3857.14
3854.23
3853.35
3853.25
3851.68
3851.53
3850.08
3849.62
3848.69
3848.03
3847.34
3846.74
3846.21
3845.73
3845.64
3846.33
3848.41
3848.37
3848.25
3847.21
3847.33
3846.52
3846.43
3846.07
3845.84
3845.56
3845.31
3845.11
3845.12
3845.23
3846.21
3849.45
3850
3850.81
3850.44
3851.15
3851.24
3851.97
3852.89
3854.16
3855.32
3856.12
3856.78
3857.86
3859.28
3861.39
3849.59
3855
3860.37
3865.79
3871.89
3877.5
3883.39
3888.74
3893.07
3895.27
3895.68
3896.35
3898.72
3900.46
3901.42
3875.95
3853.65
3842.27
3834.88
3828.49
3824.91
3822.73
3822.77
3824.56
3828.54
3833.67
3841.62
3854.78
3871.48
3883.44
4458.39
4458.44
4458.31
4458.08
4457.86
4458.08
4457.68
4456.28
4455.46
4455.86
4454.49
4450.02
4451.03
4448.12
4442.25
4439.34
4441.36
4437.76
4426.48
4428.56
4424.31
4412.98
4407.48
4414.23
4406.77
4392.03
4385.9
4394.67
4388.71
4367.42
4372.55
4368.82
4351.37
4343.14
4355.56
4349.96
4324.88
4330.65
4328.39
4309.52
4299.82
4314.2
4307
4285.79
4276.32
4290.01
4286.11
4260.47
4264.01
4264.1
4245.88
4235.49
4246.84
4242.18
4222.48
4212.73
4222.42
4220.74
4198.52
4199.19
4200.58
4185.12
4175.99
4181.9
4181.52
4163.69
4162.47
4164.72
4152.66
4145.39
4148.19
4148.69
4137.36
4131.18
4132.7
4132.56
4122.91
4118.97
4115.27
4110.8
4108.69
4109.94
4106.79
4139.86
4093.87
4096.5
4094.67
4091.14
4089.6
4087.1
4087.66
4085.42
4123.44
4075.26
4077.6
4078.24
4078.69
4078.63
4077.06
4069.3
4044.43
4063.93
4009.17
3999.89
3986.06
3973.47
3960.82
3948.26
3937
3925.28
3913.39
3911.97
3870.32
3855.99
3840.6
3824.48
3810.85
3798.18
3783.64
3768.96
3728.08
3718.76
3707.27
3695.02
3679.79
3666.01
3651.49
3640.31
3628.02
3555.81
3566.01
3548.55
3537.15
3523.51
3508.86
3493.23
3478.57
3466.88
3371.71
3401.91
3379.33
3364.33
3344.47
3328.26
3308.73
3286.46
3261.72
3245.51
3115.79
3170.4
3131.63
3110.34
3079.24
3051.49
3022.49
2985.57
2958.45
2788.18
2876.72
2817.02
2812.44
2813.57
2821.39
2819.6
2811.78
2817.64
2803.69
2826.54
2826.63
2804.82
2854.26
2842.53
2821.58
2838.32
2805.25
2884.28
2814.36
2754.17
2765.8
2706.53
2827.02
2713.98
2556.53
2754.34
2604.59
2474.22
2493.58
2406.12
2625.41
2417.89
2264.99
2291.31
2197.98
2449.63
2245.25
1978.68
2324.19
2100.05
1903.13
1942.46
1830.51
2167.21
1878.97
1666.03
1714.03
1599.16
1958.57
1689.09
1334.5
1808.73
1523.96
1267.04
1327.2
1193.4
1640.45
1276.46
1004.46
1073.67
938.98
1403.41
1069.89
627.802
1226.68
882.695
565.359
642.885
488.316
1042.1
601.47
268.855
354.044
198.692
765.837
362.223
-175.029
551.544
131.431
-248.578
-185.384
-297.533
0.0943284
0.539237
0.60319
0.85015
0.956601
1.05034
1.02914
0.930405
0.746606
0.508355
0.230614
-0.0693377
-0.381105
-0.709309
-1.01853
-1.31854
-1.72585
-1.8525
-1.84359
-12.8226
-17.2801
-21.302
-27.4519
-33.231
-38.3315
-42.4909
-44.9417
-44.1478
-41.7725
-37.8985
-34.4787
-28.5932
-21.1409
-12.4725
-2.69117
8.4223
17.9707
18.662
31.6262
43.8906
47.8358
50.7597
64.7825
68.3851
176.514
30.7333
27.3091
15.7641
-0.0776096
-8.83588
-7.31462
-25.2093
-39.889
-44.8516
-33.3635
4.3333
32.9322
27.5351
35.051
-20.0924
-35.3409
-41.2815
-43.225
-41.8672
-36.6457
-26.7962
-8.27952
15.2947
19.7467
9.157
9.02011
13.5113
20.0674
26.4592
31.5801
35.3203
37.8989
36.4994
35.8707
0.260632
1.43427
1.49171
1.98948
2.00096
1.9391
1.59585
1.18297
0.728862
0.281959
-0.199749
-0.729877
-1.31007
-1.98717
-2.69462
-3.36633
-3.88443
-3.63141
-4.144
-23.844
-32.0898
-40.1142
-51.8877
-62.5767
-71.9025
-79.3705
-83.7764
-82.542
-77.2668
-70.3534
-63.4113
-51.4132
-36.9446
-20.3942
-2.37462
16.4593
33.6529
41.328
59.207
75.3781
83.8698
87.6244
109.057
107.686
256.153
76.6001
72.7157
51.6648
18.63
-11.2094
-19.6228
-64.1581
-99.6667
-117.909
-107.193
-41.8512
48.6776
77.8222
86.8006
-45.3472
-83.1098
-97.4706
-101.95
-98.2335
-85.5296
-61.7712
-16.1928
29.5567
48.8585
32.0201
44.8031
57.5847
71.6614
84.4381
94.5105
102.127
107.467
109.674
106.171
0.515884
2.52095
2.65788
3.52409
3.5874
3.54558
3.04854
2.42392
1.68377
0.892246
-0.0153439
-1.04838
-2.20445
-3.56543
-5.0048
-6.39405
-7.62371
-8.0457
-8.51526
-28.1652
-36.9377
-46.5282
-60.213
-72.0519
-82.2587
-90.2957
-95.0158
-93.596
-86.391
-77.5864
-68.7894
-53.9648
-36.8294
-17.6153
2.77677
23.0735
41.7702
53.2553
70.6228
84.2396
93.0736
95.3263
117.043
106.534
235.707
111.792
109.12
73.411
29.7118
-13.0596
-42.4658
-125.507
-190.967
-220.329
-198.812
-79.5465
81.2383
136.392
103.671
-63.725
-110.839
-129.513
-135.866
-130.566
-112.496
-79.2961
-17.5456
38.2145
76.6953
49.1992
73.5683
97.0841
123.001
146.534
165.015
178.943
188.642
192.646
199.456
0.660379
3.47914
3.65856
4.83744
4.89308
4.80872
4.11123
3.25036
2.2331
1.14168
-0.118041
-1.56385
-3.20102
-5.15777
-7.25871
-9.30909
-11.1176
-11.9903
-12.85
-32.3179
-43.255
-54.4339
-69.7966
-82.882
-94.1493
-103.025
-108.621
-107.983
-98.7555
-85.8613
-75.2498
-58.0315
-38.5241
-16.8532
5.90685
28.2182
48.4948
62.2191
80.948
93.8363
102.507
103.546
125.49
108.396
213.187
131.831
139.641
89.1415
36.3309
-14.0723
-67.2872
-189.795
-289.918
-330.44
-301.557
-141.549
87.7496
192.428
117.669
-90.1592
-147.967
-171.373
-179.24
-171.629
-147.174
-103.275
-25.0474
41.697
95.4684
64.9165
104.27
138.899
175.19
207.762
233.114
252.24
265.584
271.828
274.697
0.764314
4.43205
4.63667
6.12462
6.17463
6.06545
5.20571
4.15497
2.89827
1.52296
-0.0980689
-1.98903
-4.16068
-6.79096
-9.65139
-12.4799
-15.0338
-16.6562
-18.2848
-37.1744
-51.4737
-64.5549
-82.0675
-97.2861
-110.417
-120.757
-127.598
-127.884
-117.438
-100.23
-87.8016
-67.794
-45.2124
-20.1361
6.1659
31.9293
55.1678
71.6301
93.2262
107.257
116.629
117.132
139.886
118.624
203.964
143.844
163.578
102.663
41.2994
-17.1571
-98.4181
-265.801
-407.672
-460.68
-421.656
-218.757
80.2106
224.371
125.025
-122.489
-190.042
-217.326
-225.834
-215.547
-184.849
-130.638
-37.5235
37.7572
107.478
78.6825
133.778
180.833
227.988
269.963
302.376
326.838
343.902
353.309
366.371
0.801478
5.34649
5.53527
7.3099
7.33285
7.19042
6.17752
4.95617
3.48075
1.83793
-0.134553
-2.46917
-5.18311
-8.51019
-12.1696
-15.8343
-19.2218
-21.7211
-24.2323
-42.1636
-59.9348
-74.8166
-94.498
-112.006
-127.008
-138.721
-146.549
-147.357
-136.301
-115.085
-100.631
-77.547
-51.5699
-22.7953
7.29015
36.6513
63.0478
82.5911
106.734
121.693
131.851
131.643
154.543
129.526
197.697
148.024
180.642
113.604
46.1943
-20.6919
-133.863
-351.441
-542.859
-611.481
-563.167
-320.86
47.2368
233.236
119.096
-160.851
-234.601
-264.19
-272.42
-259.179
-222.584
-159.097
-54.2968
28.0841
112.268
91.8492
163.317
223.82
281.54
332.472
371.469
400.929
421.378
431.004
441.734
0.779374
6.24274
6.36933
8.41302
8.39374
8.22125
7.07867
5.72178
4.06036
2.1701
-0.151008
-2.94515
-6.23305
-10.3076
-14.8353
-19.4241
-23.7674
-27.3022
-30.7457
-47.4248
-68.4441
-85.0709
-106.818
-126.495
-143.139
-156.018
-164.629
-165.754
-154.545
-128.989
-111.981
-85.7887
-56.3898
-23.992
9.7188
42.4579
71.757
94.2254
120.488
135.965
146.626
145.395
167.713
139.158
193.173
146.935
191.035
122.485
51.9406
-24.3435
-173.275
-448.083
-699.107
-788.034
-731.731
-451.017
-11.8742
220.055
97.9097
-207.327
-284.165
-314.377
-321.24
-304.594
-262.296
-190.364
-76.9345
12.168
110.012
104.543
192.595
267.678
335.913
395.616
440.958
475.256
499.058
514.687
521.587
0.688894
7.11624
7.12529
9.41804
9.34044
9.14316
7.89588
6.43784
4.61948
2.49707
-0.17375
-3.4459
-7.33941
-12.2078
-17.6659
-23.2572
-28.659
-33.3413
-37.7654
-53.0377
-77.1702
-95.6924
-119.47
-141.282
-159.505
-173.518
-182.87
-184.175
-173.367
-143.484
-123.143
-93.9344
-61.1127
-25.1337
12.1574
48.266
80.42
105.671
134.049
150.125
161.192
158.913
180.334
148.794
192.183
143.678
195.392
130.852
60.5146
-26.8677
-214.96
-555.212
-876.114
-994.167
-933.868
-615.785
-103.068
179.525
59.0583
-262.417
-339.075
-368.003
-372.38
-351.963
-304.369
-224.911
-106.09
-10.6208
100.685
116.952
221.866
312.536
391.107
459.26
510.613
549.483
576.428
594.768
613.22
0.527271
7.96801
7.79996
10.3229
10.1752
9.96638
8.64677
7.12686
5.18177
2.84091
-0.184611
-3.95996
-8.49853
-14.212
-20.6675
-27.3441
-33.9045
-39.8226
-45.292
-59.1502
-86.2828
-106.772
-132.542
-156.539
-176.358
-191.529
-201.583
-202.874
-192.886
-159.43
-134.735
-102.569
-66.245
-26.6237
14.3273
53.9189
89.0316
117.084
147.654
164.506
175.998
172.754
193.119
158.965
193.894
140.023
194.831
138.932
73.3261
-27.7714
-258.054
-672.897
-1073.49
-1237.06
-1178.47
-821.374
-232.565
105.836
-0.514576
-326.535
-399.237
-424.815
-425.603
-401.105
-348.723
-262.875
-141.226
-40.9675
84.4959
129.081
251.212
358.4
447.152
523.44
580.5
623.737
653.561
672.57
689.11
0.289951
8.79258
8.3863
11.1221
10.8985
10.7002
9.347
7.80573
5.76084
3.21016
-0.18019
-4.48917
-9.71713
-16.3269
-23.8451
-31.6887
-39.5024
-46.7248
-53.3291
-66.0698
-95.7703
-118.266
-145.964
-172.235
-193.654
-209.994
-220.692
-221.772
-212.745
-176.766
-146.588
-111.42
-71.4694
-28.1058
16.6058
59.7803
97.9428
128.856
161.607
179.3
191.203
187.032
206.175
169.447
196.405
137.075
190.902
145.963
89.4577
-26.4699
-301.615
-800.527
-1290.62
-1526.36
-1476.58
-1075.83
-408.603
-5.49754
-83.0829
-400.183
-464.776
-484.866
-480.999
-452.148
-395.542
-304.764
-181.976
-78.9717
61.935
141.03
280.79
405.298
504.046
588.106
650.551
697.936
730.515
754.731
768.571
-0.0245032
9.58257
8.87996
11.8151
11.519
11.3634
10.0213
8.49898
6.3769
3.61982
-0.150018
-5.02724
-10.9931
-18.5502
-27.1958
-36.2888
-45.4515
-54.0491
-61.8794
-73.9287
-105.575
-130.205
-159.794
-188.491
-211.499
-228.985
-240.255
-240.943
-232.71
-195.25
-158.719
-120.305
-76.6114
-29.4078
19.1502
65.9801
107.247
141.059
175.943
194.492
206.766
201.68
219.459
180.127
198.979
135.8
185.405
151.692
107.484
-22.6993
-345.066
-937.605
-1528.86
-1866.01
-1838.46
-1390.21
-641.217
-158.082
-190.048
-483.652
-535.618
-548.042
-538.527
-505.134
-444.919
-350.745
-228.72
-124.467
33.4465
153.029
310.77
453.25
561.806
653.24
720.746
772.03
807.166
834.39
856.655
-0.414707
10.3267
9.27783
12.4045
12.0506
11.98
10.6976
9.23171
7.04863
4.08228
-0.0860823
-5.56854
-12.3223
-20.8766
-30.7118
-41.1359
-51.7455
-61.8043
-70.9463
-82.7165
-115.856
-142.596
-174.158
-205.482
-230.092
-248.653
-260.423
-260.548
-252.634
-214.591
-171.573
-129.265
-81.7325
-30.5903
21.8985
72.455
116.878
153.63
190.61
210.042
222.658
216.687
233.007
191.184
202.252
136.59
179.993
156.817
126.858
-16.5391
-388.197
-1083.91
-1791.88
-2253.36
-2271.61
-1777.38
-940.976
-357.05
-323.039
-577.322
-611.69
-614.167
-598.089
-560.023
-496.871
-400.561
-282.131
-177.081
-0.496665
165.517
341.372
502.277
620.448
718.818
791.043
845.973
883.459
913.074
931.215
-0.874419
11.0107
9.5798
12.8983
12.5146
12.5801
11.4067
10.0293
7.79403
4.60921
0.0198629
-6.10514
-13.696
-23.2951
-34.3795
-46.2146
-58.3702
-69.998
-80.5997
-92.5674
-126.601
-155.438
-189.146
-223.227
-249.533
-269.115
-281.325
-280.743
-272.453
-234.442
-185.729
-138.419
-86.9009
-31.7037
24.8141
79.1796
126.82
166.58
205.626
225.976
238.922
232.11
246.91
202.882
207.164
139.479
175.896
162.606
147.475
-8.52318
-431.568
-1240.07
-2084.65
-2691.69
-2782.36
-2250.28
-1320.68
-607.96
-483.861
-681.841
-693.009
-683.105
-659.588
-616.735
-551.409
-453.995
-342.669
-236.169
-39.5301
179.1
372.888
552.404
679.998
784.833
861.407
919.716
959.34
992.079
1018.07
-1.39157
11.6176
9.78923
13.3102
12.9384
13.1965
12.1785
10.9146
8.62835
5.21016
0.175172
-6.628
-15.1023
-25.7905
-38.1802
-51.5039
-65.303
-78.6212
-90.8869
-103.607
-137.804
-168.846
-204.827
-241.694
-269.872
-290.472
-303.064
-301.664
-292.282
-254.555
-201.459
-147.981
-92.1379
-32.7402
27.9227
86.189
137.115
179.97
221.056
242.351
255.619
248.012
261.236
215.418
214.555
144.519
173.88
169.885
169.048
0.185355
-476.872
-1408.23
-2412.68
-3188.69
-3376.07
-2820.77
-1794.89
-916.278
-674.071
-798.097
-779.626
-754.77
-722.872
-675.114
-608.432
-510.878
-410.734
-301
-83.7277
194.414
405.694
603.672
740.49
851.291
931.812
993.232
1034.69
1067.28
1091.04
-1.94735
12.1292
9.91383
13.6593
13.3533
13.8626
13.0404
11.9065
9.56362
5.89303
0.387221
-7.12638
-16.5263
-28.3444
-42.0926
-56.979
-72.5144
-87.6456
-101.779
-115.798
-149.721
-182.881
-221.275
-260.878
-291.145
-312.815
-325.735
-323.442
-312.367
-274.875
-218.491
-158.291
-97.4839
-33.6886
31.2548
93.5209
147.798
193.856
236.947
259.205
272.79
264.431
276.022
228.891
225.067
151.842
174.321
178.825
190.86
7.66952
-527.144
-1592.49
-2781.65
-3749.36
-4056.94
-3499.65
-2377.15
-1286.92
-894.752
-927.019
-871.565
-829.073
-787.703
-734.909
-667.714
-570.908
-486.829
-371.116
-134.134
211.877
440.258
656.151
801.968
918.214
1002.24
1066.5
1109.64
1147
1167.08
-2.51638
12.5277
9.96635
13.9696
13.7925
14.6089
14.0142
13.0183
10.6081
6.66409
0.663722
-7.58789
-17.9512
-30.9368
-46.0946
-62.6144
-79.9717
-97.031
-113.204
-128.998
-162.274
-197.605
-238.569
-280.81
-313.36
-336.211
-349.438
-346.196
-332.976
-295.407
-236.277
-169.594
-103.049
-34.5596
34.8258
101.199
158.904
208.27
253.336
276.566
290.466
281.397
291.282
243.319
239.029
161.202
177.223
189.36
211.812
11.1916
-586.641
-1798.76
-3197.2
-4380.3
-4832.18
-4298.84
-3077.09
-1722.79
-1146.23
-1069.23
-968.728
-905.838
-853.775
-795.786
-728.92
-633.673
-571.764
-446.358
-192.806
231.478
477.129
709.956
864.487
985.634
1072.69
1139.45
1184.03
1223.4
1252.19
-3.06801
12.7977
9.96494
14.2679
14.2878
15.4598
15.1155
14.2575
11.7663
7.52847
1.01297
-7.9989
-19.3595
-33.5482
-50.1649
-68.3848
-87.6403
-106.73
-125.074
-143.009
-175.225
-213.105
-256.696
-301.522
-336.498
-360.691
-374.264
-370.034
-354.339
-316.024
-254.469
-181.817
-108.977
-35.3836
38.6477
109.243
170.493
223.238
270.26
294.465
308.685
298.946
307.023
258.65
256.39
171.999
182.296
201.316
230.412
7.18412
-660.506
-2033.77
-3664.71
-5090.9
-5711.99
-5229.3
-3902.34
-2224.25
-1427.46
-1224.66
-1070.77
-984.686
-920.699
-857.378
-791.554
-698.737
-666.621
-525.523
-261.152
252.777
516.902
765.261
928.121
1053.6
1143.17
1212.1
1257.78
1297.07
1324.17
-3.56859
12.9282
9.93293
14.582
14.8676
16.4328
16.3528
15.6269
13.0403
8.49092
1.44436
-8.34507
-20.7336
-36.1602
-54.2835
-74.2659
-95.4861
-116.693
-137.3
-157.609
-188.786
-229.254
-275.634
-323.05
-360.538
-386.247
-400.272
-395.054
-376.656
-336.607
-273.013
-194.686
-115.332
-36.2046
42.7382
117.678
182.627
238.784
287.765
312.936
327.491
317.114
323.236
274.768
276.704
184.129
188.889
214.384
244.532
-8.62066
-754.303
-2303.47
-4187.28
-5885.27
-6698.48
-6297.7
-4860.51
-2791.05
-1736.1
-1392.34
-1176.96
-1064.93
-987.891
-919.231
-854.966
-765.713
-772.109
-605.004
-336.594
275.282
560.168
822.301
992.957
1122.16
1213.71
1284.47
1331.01
1374.16
1398.61
-3.98439
12.9151
9.89794
14.9382
15.5546
17.5388
17.7293
17.1263
14.4309
9.5563
1.9688
-8.61021
-22.0555
-38.7556
-58.4308
-80.2332
-103.476
-126.873
-149.801
-172.593
-203.04
-245.913
-295.412
-345.417
-385.482
-412.867
-427.47
-421.335
-400.089
-357.32
-291.984
-208.043
-122.052
-37.0468
47.1215
126.55
195.35
254.946
305.902
332.019
346.94
335.927
339.892
291.504
299.167
197.536
195.888
227.913
251.308
-41.028
-873.01
-2610.7
-4760.28
-6749.37
-7774.03
-7504.01
-5955.79
-3424.24
-2069.73
-1570.55
-1286.07
-1145.54
-1054.49
-980.695
-918.34
-834.213
-887.448
-681.374
-411.071
298.988
607.48
881.367
1059.1
1191.39
1284.33
1356.52
1403.64
1448.81
1479.68
-4.28478
12.7629
9.89029
15.3601
16.3658
18.783
19.2444
18.7547
15.9395
10.7293
2.59667
-8.77622
-23.3072
-41.3182
-62.5886
-86.2611
-111.578
-137.228
-162.521
-187.802
-217.515
-263.223
-316.016
-368.682
-411.38
-440.566
-455.854
-448.908
-424.744
-378.561
-311.327
-221.935
-129.053
-37.8947
51.8412
135.941
208.69
271.767
324.721
351.778
367.083
355.406
356.943
308.669
322.655
211.72
201.942
240.79
247.29
-95.478
-1019.24
-2951.37
-5364.34
-7643.6
-8898.17
-8828.57
-7178.68
-4123.94
-2426.59
-1757.44
-1396.66
-1225.25
-1119.46
-1040.93
-980.724
-903.656
-1009.7
-755.378
-474.3
324.617
659.32
942.787
1126.67
1261.35
1355.08
1428.31
1475.66
1522.07
1549.46
-4.44513
12.4863
9.94031
15.8674
17.3117
20.1669
20.8964
20.5117
17.5702
12.0178
3.33739
-8.82692
-24.4702
-43.8328
-66.7389
-92.323
-119.763
-147.725
-175.428
-203.119
-232.17
-281.194
-337.482
-392.966
-438.326
-469.414
-485.454
-477.786
-450.691
-400.697
-330.726
-236.463
-136.323
-38.7237
56.9389
145.982
222.711
289.294
344.254
372.292
387.965
375.579
374.329
326.082
345.719
226.278
205.887
251.481
229.331
-177.185
-1191.62
-3310.2
-5960.82
-8502.37
-10003.4
-10210.1
-8500.21
-4882.87
-2803.71
-1951.03
-1507.31
-1302.79
-1181.68
-1099.01
-1041.14
-973.195
-1134.03
-828.462
-519.019
353.356
716.055
1006.91
1195.78
1332.12
1426.01
1499.87
1547.11
1595.74
1628.43
-4.44878
12.1102
10.0756
16.4753
18.3979
21.69
22.6831
22.3981
19.33
13.4369
4.20563
-8.74968
-25.5254
-46.2844
-70.8649
-98.3961
-128.008
-158.337
-188.507
-218.516
-247.573
-299.828
-359.9
-418.411
-466.472
-499.54
-516.368
-508.034
-477.995
-423.901
-350.002
-251.607
-143.92
-39.505
62.4232
156.804
237.548
307.571
364.529
393.628
409.634
396.472
391.986
343.587
366.975
240.96
207.576
258.765
195.979
-289.148
-1386.05
-3661.42
-6496.73
-9245.38
-10997.9
-11549
-9876.65
-5685.97
-3194.94
-2148.61
-1616.67
-1376.91
-1240.06
-1153.97
-1098.54
-1041.96
-1255.55
-898.772
-540.382
386.441
777.857
1074.04
1266.51
1403.75
1497.2
1571.25
1617.95
1665.59
1696.37
-4.28853
11.668
10.3197
17.1951
19.6269
23.3508
24.6039
24.4162
21.2276
15.0045
5.21939
-8.53322
-26.4595
-48.6596
-74.9515
-104.465
-136.296
-169.054
-201.76
-234.066
-263.957
-319.509
-383.355
-445.188
-496.021
-531.111
-548.733
-539.753
-506.736
-448.216
-369.442
-267.089
-151.926
-40.2344
68.3099
168.427
253.378
326.635
385.586
415.829
432.135
418.114
409.854
361.075
385.649
256.892
208.428
262.181
147.21
-430.775
-1600.7
-3982.39
-6929.2
-9812.56
-11802.5
-12745.4
-11250.5
-6518.88
-3593.23
-2347.06
-1723.58
-1446.65
-1293.82
-1205.05
-1151.94
-1109.47
-1370.39
-963.704
-533.788
425.276
844.691
1144.4
1338.96
1476.29
1568.68
1642.54
1688.38
1739.1
1766.05
-3.96747
11.1968
10.6917
18.0342
21.0008
25.1488
26.6599
26.5692
23.2709
16.7344
6.39124
-8.17091
-27.2698
-50.9494
-78.9888
-110.523
-144.622
-179.874
-215.199
-249.852
-281.238
-340.216
-407.982
-473.471
-527.215
-564.347
-582.688
-573.032
-537.004
-473.715
-389.466
-282.48
-160.366
-40.9234
74.5784
180.79
270.398
346.538
407.474
438.929
455.519
440.539
427.879
378.499
401.291
276.006
210.644
260.311
81.7548
-598.456
-1839.66
-4274.04
-7258.75
-10206.8
-12407.5
-13743.1
-12557
-7373.2
-3994.84
-2544.24
-1827.42
-1511.81
-1342.82
-1251.97
-1200.6
-1175.92
-1476.44
-1025.2
-496.07
471.57
916.381
1218.1
1413.18
1549.78
1640.52
1713.77
1758.33
1809.9
1842.1
-3.49775
10.7345
11.2076
18.9979
22.5228
27.0868
28.8569
28.86
25.4656
18.6357
7.73311
-7.66226
-27.9598
-53.1513
-82.9752
-116.571
-152.989
-190.805
-228.852
-265.986
-299.619
-361.729
-433.813
-503.395
-560.284
-599.531
-618.451
-607.951
-568.859
-500.541
-410.248
-297.659
-169.099
-41.5644
81.2034
193.852
288.583
367.405
430.242
462.962
479.84
463.785
446.019
395.755
413.321
297.871
215.127
247.708
-4.9396
-793.132
-2110.83
-4561.12
-7532.05
-10502.5
-12884.4
-14573.2
-13746.3
-8243.56
-4399.47
-2739.72
-1928.25
-1572.92
-1387.52
-1294.89
-1244.21
-1242.12
-1571.9
-1093.57
-428.419
527.205
992.738
1295.11
1489.18
1624.22
1712.77
1785.03
1827.84
1878.09
1907.79
-2.89817
10.3178
11.8808
20.0909
24.1972
29.1702
31.2087
31.2924
27.8207
20.718
9.25738
-7.00624
-28.5343
-55.2683
-86.9122
-122.612
-161.409
-201.875
-242.761
-282.619
-319.432
-384.347
-460.85
-535.01
-595.377
-636.913
-656.338
-644.713
-602.332
-528.786
-431.844
-312.871
-177.804
-42.147
88.2059
207.61
307.822
389.533
453.952
487.964
505.159
487.895
464.246
412.615
421.133
320.48
219.458
215.078
-120.455
-1024.49
-2417.48
-4866.07
-7802.71
-10798.3
-13330
-15337.1
-14792.7
-9124.76
-4806.6
-2933.78
-2026.48
-1630.62
-1428.66
-1334.24
-1282.86
-1309.53
-1653.82
-1184.18
-337.583
593.828
1073.67
1375.32
1566.94
1699.59
1785.48
1856.4
1897.04
1948.99
1974.7
-2.1916
9.97928
12.7194
21.3187
26.0278
31.408
33.7246
33.8794
30.357
22.998
10.9676
-6.20476
-29.0028
-57.3075
-90.8011
-128.648
-169.893
-213.122
-256.976
-299.872
-340.781
-407.886
-489.143
-568.346
-632.582
-676.647
-696.642
-683.673
-637.588
-558.496
-454.389
-328.333
-186.203
-42.6274
95.6211
222.138
328.165
413.198
478.739
513.977
531.546
512.916
482.556
428.781
424.554
342.873
217.703
155.571
-273.429
-1296.58
-2754.07
-5192.62
-8090.87
-11135.7
-13787.5
-16106.1
-15713.3
-10013.9
-5212.56
-3125.88
-2122.23
-1685.3
-1466.79
-1370.4
-1316.89
-1380.39
-1723.42
-1306.48
-233.357
672.427
1159.26
1458.55
1646.36
1775.88
1858.67
1927.91
1965.92
2017.82
2046.02
-1.40261
9.74734
13.7241
22.6889
28.0191
33.8203
36.4094
36.6469
33.0968
25.4917
12.8615
-5.27227
-29.3804
-59.277
-94.6452
-134.685
-178.456
-224.579
-271.561
-317.833
-363.465
-432.037
-518.636
-603.421
-671.955
-718.837
-739.57
-725.169
-674.969
-589.814
-478.079
-344.153
-194.253
-42.8485
103.511
237.471
349.666
438.56
504.942
541.052
559.08
538.905
500.978
443.829
423.951
364.983
203.008
67.9231
-470.242
-1603.21
-3112.92
-5535.16
-8389.07
-11485
-14236
-16867.2
-16578.6
-10908.2
-5609.98
-3313.86
-2214.98
-1736.97
-1502.06
-1403.4
-1346.45
-1456.41
-1783.92
-1453.51
-123.751
763.088
1249.64
1544.59
1727.35
1853.05
1932.37
1999.62
2034.49
2085.17
2108.39
-0.556243
9.64614
14.8913
24.2097
30.1751
36.421
39.2794
39.6243
36.0551
28.2006
14.9278
-4.23303
-29.6795
-61.1773
-98.4433
-140.728
-187.114
-236.265
-286.576
-336.566
-387.257
-457.124
-549.441
-640.23
-713.529
-763.558
-785.253
-769.394
-714.774
-622.971
-503.078
-360.504
-202.115
-42.589
111.965
253.611
372.386
465.64
533.075
569.275
587.847
565.923
519.583
457.302
419.894
384.426
171.187
-48.0879
-711.532
-1939.52
-3494.14
-5894.52
-8692.39
-11810.4
-14648.4
-17573.8
-17447.3
-11794.6
-5989.05
-3493.52
-2303.34
-1785.24
-1534.42
-1433.05
-1371.37
-1536.23
-1826.55
-1592.25
-11.4343
865.021
1344.91
1633.21
1809.78
1931.07
2006.54
2071.52
2102.77
2153.06
2176.3
0.322113
9.69422
16.2128
25.8859
32.4987
39.1767
42.3346
42.8244
39.2528
31.115
17.1355
-3.10935
-29.898
-62.9966
-102.183
-146.773
-195.877
-248.199
-302.068
-356.108
-412.02
-483.231
-581.6
-678.795
-757.334
-810.864
-833.76
-816.438
-757.136
-658.125
-529.482
-377.585
-209.959
-41.7434
121.093
270.593
396.297
494.352
563.662
598.838
617.944
594.048
538.473
468.871
412.754
393.606
121.397
-194.053
-993.667
-2304.62
-3903.37
-6276
-9003.85
-12109.4
-15021.7
-18220.2
-18320.3
-12647.6
-6338.87
-3658.48
-2384.91
-1829.43
-1563.78
-1459.02
-1391.2
-1613.3
-1827.29
-1667.04
107.575
976.972
1444.96
1724.18
1893.54
2009.81
2081.12
2143.6
2170.71
2217.51
2236.31
1.20737
9.90373
17.677
27.7192
35.0039
42.0535
45.5578
46.2448
42.6978
34.2122
19.4449
-1.90641
-30.0153
-64.7089
-105.842
-152.808
-204.747
-260.403
-318.071
-376.483
-437.668
-510.483
-615.157
-719.173
-803.416
-860.814
-885.165
-866.388
-802.14
-695.349
-557.329
-395.504
-217.882
-40.3325
131.056
288.48
421.355
524.7
596.81
630.199
649.473
623.37
557.765
478.112
402.591
381.649
53.8984
-371.31
-1311.96
-2700.03
-4345.65
-6682.8
-9325.31
-12395.4
-15363
-18822.6
-19155.8
-13434.5
-6647.58
-3799.74
-2455.62
-1868.47
-1589.9
-1480.91
-1405.24
-1678.53
-1776.09
-1630.41
240.799
1097.71
1549.48
1817.26
1978.49
2089.17
2156.1
2215.89
2238.43
2284.76
2296.08
2.07669
10.2818
19.2697
29.7041
37.699
45.0834
48.9588
49.8949
46.3661
37.4454
21.8301
-0.602181
-29.994
-66.2755
-109.391
-158.815
-213.718
-272.898
-334.606
-397.708
-464.207
-539.39
-650.329
-761.467
-851.89
-913.509
-939.584
-919.377
-849.919
-734.732
-586.638
-414.289
-225.946
-38.3854
142.001
307.354
447.604
556.669
632.299
664.139
682.567
653.999
577.601
484.601
389.179
340.254
-32.5444
-580.158
-1662.84
-3128.62
-4825.36
-7117.91
-9660.61
-12671
-15662.3
-19361.9
-19887.1
-14122.1
-6902.08
-3905.62
-2509.13
-1900.46
-1612.32
-1498.27
-1413.6
-1727.37
-1705.66
-1477.9
393.887
1226.23
1657.97
1912.25
2064.45
2169.08
2231.49
2288.41
2305.95
2349.9
2358.79
2.91114
10.8319
20.9759
31.8268
40.5578
48.3037
52.5692
53.7914
50.2213
40.7653
24.296
0.84784
-29.7841
-67.6534
-112.798
-164.77
-222.776
-285.675
-351.669
-419.774
-491.686
-570.251
-687.098
-805.718
-902.896
-969.127
-997.178
-975.576
-900.645
-776.411
-617.443
-433.925
-234.196
-35.9077
154.012
327.368
475.165
590.311
670.021
701.23
717.387
686.065
598.15
488.239
371.162
268.458
-143.04
-820.546
-2045.18
-3593.91
-5346.47
-7585.06
-10014.5
-12935.7
-15904.7
-19793
-20436.8
-14677.9
-7088.57
-3961.98
-2536.87
-1922.49
-1630.36
-1510.91
-1418.9
-1761.89
-1668.17
-1244.38
567.434
1361.56
1769.9
2008.91
2151.22
2249.46
2307.28
2361.19
2373.29
2412.79
2414.71
3.69527
11.5532
22.7826
34.0812
43.5453
51.7076
56.4144
57.9243
54.2104
44.1457
26.8821
2.49945
-29.3336
-68.803
-116.03
-170.644
-231.894
-298.708
-369.232
-442.64
-520.159
-603.332
-725.514
-852.009
-956.593
-1027.91
-1058.19
-1035.2
-954.479
-820.536
-649.784
-454.368
-242.637
-32.8887
167.153
348.801
504.156
625.685
710.052
741.871
754.319
719.723
619.598
489.177
346.947
173.178
-284.285
-1092.64
-2459.59
-4100.49
-5912.49
-8088.66
-10390.9
-13189.1
-16088.6
-20095.7
-20756.8
-15070.9
-7193.74
-3952.8
-2528.15
-1931.14
-1643.46
-1518.45
-1427.48
-1781.93
-1694.07
-966.987
758.239
1502.65
1884.66
2106.89
2238.57
2330.22
2383.39
2434.21
2440.54
2477.62
2468.84
4.41688
12.4403
24.6802
36.4742
46.6491
55.2809
60.4981
62.2437
58.2714
47.5954
29.6456
4.40912
-28.5992
-69.6906
-119.057
-176.402
-241.032
-311.948
-387.251
-466.248
-549.688
-638.889
-765.513
-900.354
-1013.09
-1090.11
-1122.96
-1098.57
-1011.64
-867.265
-683.716
-475.56
-251.215
-29.2919
181.521
371.971
534.682
662.821
752.701
786.516
794.075
755.175
642.163
487.799
315.521
63.9737
-455.901
-1396.11
-2906.52
-4655.02
-6528.09
-8634.63
-10792.4
-13429.4
-16213.5
-20249.4
-20861.3
-15273.3
-7206.31
-3860.94
-2469.11
-1921.95
-1651.78
-1519.75
-1446.17
-1776.07
-1748.51
-663.867
962.026
1648.32
2001.53
2205.74
2326.3
2411.19
2459.75
2507.45
2507.75
2540.94
2523.46
5.06816
13.482
26.6568
39.0008
49.8674
59.0264
64.793
66.6766
62.3647
51.1587
32.6461
6.62521
-27.5468
-70.2859
-121.846
-182.01
-250.145
-325.338
-405.663
-490.518
-580.276
-676.684
-806.935
-950.787
-1072.51
-1155.94
-1191.84
-1166.09
-1072.48
-916.828
-719.345
-497.451
-259.836
-25.0448
197.252
397.125
567.055
701.801
798.299
835.343
837.559
792.734
666.077
484.91
274.788
-52.8924
-650.688
-1731.13
-3386.01
-5264.55
-7198.61
-9228.42
-11221.6
-13655.2
-16271.3
-20187.9
-20769.8
-15247.3
-7118.06
-3669.46
-2341.11
-1884.06
-1654.8
-1516.56
-1471.41
-1734.2
-1744.39
-336.295
1175
1797.35
2119.71
2305.01
2414.11
2492.21
2536.26
2580.86
2574.96
2602.96
2572.53
5.64549
14.6635
28.7031
41.6447
53.2073
62.9552
69.2478
71.1547
66.4901
54.8962
35.9375
9.1863
-26.1461
-70.5594
-124.369
-187.433
-259.188
-338.818
-424.392
-515.362
-611.86
-716.254
-849.824
-1003.32
-1134.92
-1225.62
-1265.13
-1238.21
-1137.46
-969.553
-756.866
-520.052
-268.384
-20.015
214.504
424.461
601.846
742.782
846.881
888.819
886.252
833.144
691.593
481.694
223.521
-175.779
-864.147
-2100.29
-3899.86
-5934.18
-7929.5
-9872.86
-11681.8
-13871.8
-16266
-19866.9
-20381.5
-14941
-6928.06
-3364.15
-2121.05
-1792.52
-1641.82
-1511.54
-1482.9
-1656.89
-1604.98
17.7525
1393.75
1948.37
2238.36
2404.22
2501.7
2573.08
2612.81
2654.39
2642.28
2665.56
2618.17
6.14852
15.9687
30.8215
44.4045
56.686
67.0619
73.7983
75.6277
70.6898
58.869
39.5657
12.1264
-24.3656
-70.4804
-126.593
-192.636
-268.119
-352.332
-443.361
-540.69
-644.334
-757.174
-894.203
-1057.9
-1200.38
-1299.3
-1343.13
-1315.31
-1207.03
-1025.81
-796.539
-543.46
-276.752
-14.021
233.43
454.223
639.667
786.189
898.248
947.052
941.401
877.611
718.999
479.333
163.439
-306.378
-1097.55
-2507.86
-4452.82
-6668.78
-8727.04
-10573.2
-12176.8
-14087.3
-16215.8
-19440.6
-19771.7
-14379.5
-6646.46
-2939.58
-1786.1
-1608.51
-1577.02
-1483.03
-1448.69
-1527.74
-1305.01
393.281
1614.66
2099.88
2356.64
2502.83
2588.76
2653.61
2689.25
2727.97
2709.76
2725.76
2662.38
6.58018
17.3754
32.9984
47.2684
60.3085
71.3075
78.3761
80.086
75.0296
63.135
43.572
15.4801
-22.1706
-70.0165