/*--------------------------------*- C++ -*----------------------------------*\
| =========                 |                                                 |
| \\      /  F ield         | OpenFOAM: The Open Source CFD Toolbox           |
|  \\    /   O peration     | Version:  4.1                                   |
|   \\  /    A nd           | Web:      www.OpenFOAM.org                      |
|    \\/     M anipulation  |                                                 |
\*---------------------------------------------------------------------------*/
FoamFile
{
    version     2.0;
    format      ascii;
    class       surfaceScalarField;
    location    "6";
    object      phi;
}
// * * * * * * * * * * * * * * * * * * * * * * * * * * * * * * * * * * * * * //

dimensions      [0 3 -1 0 0 0 0];

internalField   nonuniform List<scalar> 
13220
(
-912.82
2212.74
-1419.71
1807.11
-1894.87
1775.07
-2259.42
1664.47
-2540.85
1581.65
-2742.7
1501.76
-2867.43
1424.65
-2916.16
1348.95
-2888.89
1272.63
-2783.8
1194.83
-2604.63
1121.03
-2350.68
1045.96
-1971.29
920.533
-1303.37
632.303
-3.47345
0.438794
2212.34
-34.4944
1842.09
-162.129
1902.75
-263.123
1765.51
-367.834
1686.4
-457.745
1591.71
-532.501
1499.44
-589.054
1405.53
-628.384
1311.99
-655.132
1221.6
-671.109
1137.03
-655.783
1030.67
-525.325
790.113
-192.797
299.894
-196.262
-118.821
2331.19
-314.868
2038.16
-498.726
2086.63
-606.785
1873.6
-706.602
1786.25
-771.2
1656.34
-811.784
1540.06
-828.927
1422.7
-823.124
1306.22
-795.624
1194.16
-743.635
1085.07
-642.85
930.04
-446.462
593.995
-177.959
31.8312
-374.222
53.7862
2277.42
-6.80042
2098.76
-24.8569
2104.71
-7.30456
1856.06
10.5913
1768.37
46.9358
1620.02
96.954
1490.07
161.204
1358.49
237.799
1229.67
325.866
1106.11
421.436
989.535
496.664
854.764
469.235
621.374
211.773
289.215
-162.449
121.538
2155.87
141.913
2078.38
195.427
2051.19
258.994
1792.49
317.457
1709.9
380.275
1557.2
442.044
1428.29
500.444
1300.07
549.416
1180.69
585.867
1069.65
612.22
963.139
612.291
854.742
522.63
711.048
295.777
516.089
133.324
69.8222
2086.03
111.231
2036.95
151.665
2010.73
198.947
1745.18
234.84
1673.98
283.76
1508.25
328.95
1383.07
379.099
1249.89
430.949
1128.8
478.475
1022.07
507.003
934.605
496.489
865.092
414.735
792.652
244.984
685.591
378.306
-0.281646
2086.28
20.8019
2015.83
37.1015
1994.39
43.3714
1738.87
50.3993
1666.91
66.1675
1492.43
88.7886
1360.4
157.08
1181.55
283.663
1002.17
433.325
872.36
536.338
831.552
548.914
852.497
457.246
884.287
274.394
868.395
652.7
-42.1577
2128.41
-112.966
2086.61
-149.783
2031.18
-215.096
1804.15
-272.497
1724.28
-330.344
1550.25
-373.476
1403.5
-355.802
1163.85
-256.062
902.398
-101.15
717.412
64.3927
665.986
196.239
720.58
232.519
847.948
147.215
953.635
799.914
-1.85718
2130.24
-180.803
2265.54
-287.395
2137.75
-406.792
1923.53
-527.447
1844.91
-652.322
1675.11
-781.532
1532.69
-902.262
1284.56
-996.305
996.427
-1027.95
749.034
-946.233
584.26
-721.917
496.201
-403.815
529.782
-123.536
673.271
676.379
119.896
2010.34
-38.5138
2423.94
-155.249
2254.48
-257.24
2025.51
-349.342
1937.01
-446.626
1772.38
-550.019
1636.08
-702.4
1436.93
-901.807
1195.82
-1096.29
943.511
-1219.4
707.358
-1195.9
472.737
-944.482
278.387
-468.686
197.513
207.691
220.654
1789.68
184.225
2460.37
134.842
2303.86
111.316
2049.04
109.593
1938.73
100.252
1781.72
92.4911
1643.84
36.6512
1492.77
-84.5742
1317.05
-249.185
1108.12
-416.554
874.748
-557.308
613.417
-596.311
317.324
-464.822
65.9412
-257.129
241.222
1548.47
275.303
2426.29
241.197
2337.98
229.866
2060.38
260.579
1908.03
299.606
1742.7
353.32
1590.13
401.544
1444.55
419.725
1298.88
390.519
1137.33
313.074
952.184
182.491
744.065
23.7607
476.16
-56.2114
146.05
-313.34
320.316
1228.16
480.072
2266.54
587.945
2230.11
676.005
1972.32
766.201
1817.84
832.688
1676.22
862.937
1559.89
864.088
1443.4
870.224
1292.74
888.309
1119.25
860.549
979.948
780.235
824.372
576.24
680.151
285.143
437.138
-28.1975
-618.803
1846.97
-954.837
2602.58
-1100.57
2375.85
-1264.23
2135.98
-1393.92
1947.53
-1482.21
1764.51
-1431.23
1508.92
-1096.35
1108.53
-476.498
672.89
58.4307
584.321
297.753
740.622
439.628
682.508
555.05
564.735
543.354
448.846
515.155
-1030.93
-1148.69
-1594.9
-1944.28
-2329.49
-2630.86
-2869.31
-2999.56
-3136.15
-3164.79
-3230.25
-3079.4
-1870.08
-710.814
-0.000446906
494.369
-494.37
494.369
494.368
494.368
1378.95
-884.579
1378.95
1378.95
1378.95
2347.82
-968.879
2347.82
2347.82
3344.14
-996.312
3344.14
3344.14
3344.14
4293.7
-949.563
4293.7
4293.7
5157.79
-864.095
5157.79
5157.79
5157.79
5896.75
-738.961
5896.75
5896.75
5896.75
6494.51
-597.762
6494.51
6494.51
6953.76
-459.249
6953.76
6953.76
6953.76
7257.55
-303.794
7257.55
7257.55
7420.64
-163.089
7420.64
7420.64
7420.64
7445.1
-24.4565
7445.1
7445.1
7445.1
7360.76
84.3418
7360.76
7360.76
7175.51
185.248
7175.51
7175.51
7175.51
6910.93
264.577
6910.93
6910.93
6910.93
6586.19
324.735
6586.19
6586.19
6196.08
390.109
6196.08
6196.08
6196.08
5762.85
433.235
5762.85
5762.85
5280.05
482.798
5280.05
5280.05
5280.05
4801.54
478.508
4801.54
4801.54
4801.54
4229.31
572.237
4229.3
4229.31
3257.19
972.111
3257.2
3257.2
3264.04
3263.39
3221.63
2262.74
904.395
2201.84
2108.07
2004.86
1884.79
1745.59
1580.84
1402.92
1186.31
907.035
101.718
861.051
799.593
747.666
751.402
830.83
947.091
1086.91
1222.19
-925.903
2272.16
-778.943
-625.218
-469.051
-310.251
-158.994
-31.1078
93.2009
214.362
323.343
-2300.72
2715.99
-2159.42
-2010.03
-1857.52
-1703.34
-1547.55
-1337.63
-1098.85
-860.472
-3608.82
2960.2
-3375.05
-3108.32
-2789.44
-2466.06
-2137.22
-1803.73
-1463.53
-1068.06
-3891.85
3208.89
-3517.6
-3135.07
-2748.69
-2335.75
-1908.58
-1477.37
-1040.89
-591.721
-3426.79
3295.1
-2977.37
-2518.36
-2054.9
-1586.72
-1113.63
-599.19
-79.747
442.861
978.894
-1568
3094.11
-1066.69
-548.055
-35.7602
473.984
976.762
1481.81
1998.64
2554.34
612.884
2553.19
1104.22
1578.45
1578.45
1662.69
-84.239
1999.98
-337.285
1999.98
2317.24
-317.265
2317.24
2723.57
-406.33
3461.95
-738.383
3461.95
4494.37
-1032.42
6043.61
-1549.24
6043.61
7860.3
-1816.69
7860.3
9729.06
-1868.76
11673
-1943.93
11673
13440.1
-1767.1
13440.1
14997
-1556.86
16402.2
-1405.25
16402.2
17628.5
-1226.28
18677.9
-1049.44
18677.9
19627.5
-949.549
19627.5
20488
-860.529
21193.3
-705.346
21193.3
21890
-696.685
21890
22565.6
-675.541
23101.5
-535.927
23101.5
23706.4
-604.948
24164.2
-457.732
24164.2
24686.1
-521.935
24686.1
25234.7
-548.584
25645.3
-410.62
25645.3
26139
-493.717
26139
26669.3
-530.304
27060.6
-391.273
27060.6
27577.2
-516.618
27936.1
-358.914
27936.1
28392.4
-456.25
28392.4
28892.1
-499.712
29235.8
-343.645
29235.8
29684.3
-448.526
29684.3
30177.6
-493.32
30512
-334.427
30512
30996.3
-484.233
31302.4
-306.129
31302.4
31726.8
-424.395
31726.8
32206.8
-480.063
32521.5
-314.653
32521.5
32971.8
-450.297
32971.8
33486.4
-514.6
33848.6
-362.22
33848.6
34399.7
-551.064
34791.8
-392.11
34791.8
35350.2
-558.406
35350.2
-669.704
-1211.35
-5206.11
-1252.41
-6259.49
-1315.22
-6675.28
-1407.38
-7164.57
-1531.72
-7491.27
-1685.24
-7713.66
-1853.35
-7798.27
-2013.61
-7796.84
-2143.96
-7760.73
-2232.19
-7729.13
-2276.64
-7690.23
-2280.42
-7601.31
-2246.93
-7411.93
-2179.96
-7080.63
-2086.32
-6582.13
-1963.01
-5879.82
-1735.92
-4782.46
-1294.47
-2529.52
-868.382
1494.01
-714.517
4362.32
-619.43
6227.52
-544.793
7787.98
-480.635
9373.97
-416.456
11012.8
-348.827
12677.2
-273.358
14280.9
-185.894
15695.4
-92.3277
16674.2
-5.80355
17814.2
37.3314
19633.8
80.7456
21714.2
133.428
23222.1
188.075
24526.7
241.249
25760.6
284.891
26839.1
300.707
27171.9
307.179
27690.2
375.535
30988.5
364.659
30525.6
278.818
28397.4
219.693
30694.1
146.765
34151.7
27.9525
35751
-162.128
35080.7
-1003.01
21900.1
-2316.21
-8151.63
-2451.43
-656.606
-1807.25
7128.03
-916.575
5530.07
37.3063
3288.12
1160.44
126.464
2404.13
-8204.9
3707.68
-15458.3
4761.89
-17973.4
5127.68
-16308
3813.13
-15475.4
2002.18
-16850.2
1529.46
-1698.02
1698.84
23800.6
1711.73
30311.3
1689.88
30697.1
1664.02
28847.1
1641.61
26306.3
1620.54
23638.1
1590.58
20826.7
1545.44
17368.4
1511.06
11738.5
984.357
3437.15
535.895
-8984.75
864.515
-19663.3
1348.31
-27121.9
1705.63
-31362.4
1871.14
-33692.1
1859.03
-34979.2
1714.3
-35635
1485.28
-35961.6
1202.51
-36230.2
943.396
-36811
-37856.9
-1285.8
-5184.76
-1333.49
-6211.81
-1411.84
-6596.92
-1526.38
-7050.03
-1678.5
-7339.15
-1859.58
-7532.57
-2047.06
-7610.79
-2212.04
-7631.86
-2331.32
-7641.45
-2396.55
-7663.9
-2411.51
-7675.27
-2383.75
-7629.06
-2319.5
-7476.18
-2223.99
-7176.14
-2105.45
-6700.67
-1972.58
-6012.7
-1781.35
-4973.68
-1375.29
-2935.59
-850.804
969.526
-669.336
4180.85
-589.243
6147.42
-521.777
7720.51
-462.457
9314.65
-403.224
10953.6
-340.109
12614.1
-269.321
14210.1
-187.067
15613.2
-97.2396
16584.4
-12.4885
17729.4
30.0479
19591.3
71.3086
21672.9
123.095
23170.3
177.253
24472.5
230.402
25707.4
274.496
26795
292.143
27154.3
301.689
27680.6
368.12
30922.1
358.338
30535.4
274.947
28480.8
217.747
30751.3
140.063
34229.4
19.6927
35871.4
-206.508
35306.9
-948.665
22642.3
-2239.54
-6860.75
-2343.23
-552.918
-1655.19
6439.98
-700.841
4575.72
346.739
2240.54
1610.68
-1137.48
2931.77
-9525.99
4329.64
-16856.1
5403.33
-19047.1
5805.24
-16710
4471.08
-14141.2
2315.11
-14694.2
1559.23
-942.138
1741.72
23618.1
1733.08
30320
1698.28
30731.9
1666.07
28879.3
1639.64
26332.8
1613.92
23663.8
1575
20865.6
1514.51
17428.9
1416.85
11836.2
742.544
4111.46
363.25
-8605.45
880.433
-20180.5
1424.61
-27666.1
1800.92
-31738.7
1960.01
-33851.2
1927.63
-34946.8
1759.1
-35466.4
1510.18
-35712.7
1211.75
-35931.8
867.016
-36466.3
-37548.3
-1337.07
-5159.46
-1392.57
-6156.32
-1485.78
-6503.71
-1619.07
-6916.75
-1790.71
-7167.51
-1985.55
-7337.73
-2175.25
-7421.1
-2329.22
-7477.89
-2427.79
-7542.87
-2467.99
-7623.7
-2457.49
-7685.77
-2405.8
-7680.76
-2320.08
-7561.9
-2205.7
-7290.52
-2069.84
-6836.54
-1923.95
-6158.58
-1745.61
-5152.03
-1392.08
-3289.11
-846.84
424.287
-615.258
3949.27
-540.294
6072.46
-490.63
7670.85
-435.242
9259.26
-381.698
10900.1
-324.8
12557.2
-260.161
14145.5
-184.692
15537.7
-100.432
16500.2
-17.6521
17646.7
23.1003
19550.5
61.0815
21634.9
110.698
23120.7
163.579
24419.6
216.231
25654.8
260.699
26750.5
280.336
27134.7
291.212
27669.8
358.259
30855
350.223
30543.5
269.195
28561.9
212.822
30807.6
134.205
34308
2.44132
36003.1
-221.268
35530.6
-1032.06
23453.1
-2125.92
-5766.89
-2107.58
-571.255
-1414.17
5746.57
-340.038
3501.59
749.158
1151.34
1964.44
-2352.77
3295.62
-10857.2
4750.24
-18310.8
5852.74
-20149.6
6261.73
-17119
5052.04
-12931.5
2760.79
-12403
1704.15
114.498
1815.62
23506.6
1768.48
30367.1
1712.98
30787.4
1670.13
28922.2
1636.95
26365.9
1603
23697.8
1548.49
20920.1
1464.28
17513.1
1258.62
12041.9
518.674
4851.4
292.458
-8379.24
926.472
-20814.5
1503.9
-28243.5
1886.16
-32121
2035.09
-34000.1
1984.86
-34896.6
1797.17
-35278.8
1532.46
-35447.9
1221.72
-35621
876.692
-36121.3
-37063.7
-1396.26
-5128.27
-1462.6
-6089.97
-1573.62
-6392.69
-1728.1
-6762.27
-1919.6
-6976.01
-2125.7
-7131.62
-2313.07
-7233.73
-2451.35
-7339.61
-2525.7
-7468.52
-2538.53
-7610.87
-2500.87
-7723.42
-2423.87
-7757.77
-2315.7
-7670.07
-2182.18
-7424.04
-2029.27
-6989.44
-1868.35
-6319.5
-1693.86
-5326.53
-1392.49
-3590.48
-861.546
-106.662
-573.584
3661.31
-480.358
5979.23
-450.259
7640.75
-402.668
9211.67
-354.36
10851.8
-304.38
12507.2
-246.449
14087.5
-178.929
15470.2
-102.689
16423.9
-23.6238
17567.6
16.2641
19510.6
50.5411
21600.7
97.3013
23073.9
148.496
24368.4
200.406
25602.9
245.044
26705.9
266.412
27113.3
279.004
27657.2
346.569
30787.5
341.121
30548.9
263.23
28639.7
207.448
30863.4
129.323
34386.1
-9.88126
36142.3
-230.883
35751.6
-1055.34
24277.5
-1947.33
-4874.9
-1794.26
-724.331
-1104.72
5057.03
38.1209
2358.75
1134.45
55.0188
2317.25
-3535.57
3711.19
-12251.1
5255.69
-19855.3
6425.92
-21319.8
6842.04
-17535.1
5703.95
-11793.4
3279.8
-9978.85
1932.48
1461.82
1925.73
23513.4
1817.33
30475.5
1734.74
30870
1678.61
28978.3
1636.11
26408.4
1588.87
23745
1510.3
20998.7
1386.32
17637.1
1055.14
12373
287.438
5619.1
238.715
-8330.51
983.855
-21559.6
1602.08
-28861.7
1991.3
-32510.2
2127.71
-34136.5
2055.77
-34824.6
1844.91
-35067.9
1560.6
-35163.6
1234.55
-35295
882.228
-35769
-36732.6
-1457.81
-5089.33
-1537.96
-6009.82
-1668.97
-6261.68
-1845.04
-6586.2
-2053.24
-6767.81
-2263.75
-6921.12
-2440.13
-7057.34
-2555.01
-7224.74
-2600.01
-7423.52
-2582.93
-7627.95
-2517.45
-7788.9
-2415.76
-7859.46
-2286.7
-7799.13
-2136.5
-7574.24
-1970.09
-7155.86
-1796.28
-6493.3
-1618.01
-5504.8
-1355.26
-3853.23
-865.978
-595.948
-542.659
3337.99
-415.915
5852.49
-397.621
7622.46
-363.025
9177.07
-320.476
10809.2
-277.696
12464.4
-227.246
14037.1
-169.112
15412
-103.343
16358.1
-30.0763
17494.3
9.31843
19471.2
39.7293
21570.2
82.8652
23030.8
131.803
24319.5
182.542
25552.1
227.103
26661.3
250.029
27090.4
264.529
27642.7
332.655
30719.3
330.27
30551.3
256.237
28713.8
201.377
30918.3
124.676
34462.8
-17.6386
36284.7
-235.079
35969
-1023.69
25066.1
-1706.46
-4192.13
-1415.26
-1015.54
-731.274
4373.05
401.318
1226.15
1471.84
-1015.51
2679.37
-4743.11
4158.56
-13730.3
5804.5
-21501.2
7052.88
-22568.2
7458.19
-17940.4
6380.89
-10716.1
3871.48
-7469.44
2230.95
3102.35
2066.23
23678.1
1880.82
30660.9
1765.38
30985.4
1692.53
29051.2
1634.83
26466.1
1565.57
23814.3
1451.54
21112.7
1269.72
17818.9
810.867
12831.9
66.088
6363.88
217.951
-8482.38
1058.13
-22399.8
1715.15
-29518.7
2108.12
-32903.2
2229.2
-34257.6
2133.39
-34728.8
1897.63
-34832.1
1592.22
-34858.2
1249.31
-34952.1
860.573
-35380.2
-36234.2
-1523.99
-5040.53
-1620.94
-5912.86
-1773.62
-6109.01
-1970.31
-6389.51
-2190.31
-6547.81
-2397.21
-6714.21
-2554.25
-6900.31
-2639.57
-7139.41
-2652.05
-7411.05
-2604.17
-7675.83
-2511.4
-7881.67
-2386.46
-7984.4
-2238.54
-7947.05
-2074.24
-7738.53
-1898.13
-7331.97
-1716.16
-6675.27
-1532.29
-5688.66
-1291.45
-4094.06
-851.867
-1035.53
-518.234
3004.35
-354.175
5688.43
-333.01
7601.29
-314.706
9158.77
-279.73
10774.2
-244.288
12429
-202.104
13994.9
-154.669
15364.6
-101.355
16304.8
-35.815
17428.8
2.76153
19432.7
29.0596
21543.9
67.6493
22992.2
113.655
24273.5
162.695
25503.1
206.875
26617.2
231.129
27066.1
247.416
27626.4
316.479
30650.3
317.535
30550.2
247.764
28783.5
194.317
30971.7
119.934
34537.2
-21.9039
36426.5
-232.919
36180
-969.306
25802.5
-1455.11
-3706.32
-1024.17
-1446.47
-308.069
3656.95
782.447
135.638
1797.36
-2030.42
3069.86
-6015.6
4657.7
-15318.1
6418.05
-23261.6
7754.59
-23904.7
8140.03
-18325.8
7093.62
-9669.73
4516.23
-4892.05
2587.59
5030.99
2231.09
24034.6
1959.73
30932.3
1805.08
31140
1707.38
29148.9
1623.88
26549.6
1521.95
23916.2
1362.19
21272.5
1111.14
18070
528.663
13414.4
-144.768
7037.31
223.855
-8851
1145.34
-23321.3
1840.28
-30213.7
2235.01
-33297.9
2338.87
-34361.5
2217.61
-34607.6
1955.58
-34570.1
1627.47
-34530.1
1267.01
-34591.6
898.312
-35011.5
-35850.5
-1595.45
-4979.72
-1711.99
-5796.32
-1886.96
-5934.03
-2101.43
-6175.04
-2326.27
-6322.98
-2520.49
-6519.99
-2650.14
-6770.65
-2700.99
-7088.57
-2679.04
-7432.99
-2600.45
-7754.42
-2481.69
-8000.43
-2335.65
-8130.44
-2171.5
-8111.2
-1995.9
-7914.13
-1813.52
-7514.34
-1628.58
-6860.21
-1442.72
-5874.52
-1213.95
-4322.84
-817.547
-1431.93
-493.319
2680.12
-300.162
5495.27
-259.58
7560.71
-257.028
9156.22
-232.043
10749.3
-204.313
12401.3
-170.858
13961.4
-135.117
15328.9
-95.9417
16265.7
-40.2242
17373.1
-2.95809
19395.4
19.0343
21522
52.1132
22959.1
94.4959
24231.1
141.28
25456.3
184.708
26573.7
209.97
27040.9
227.886
27608.5
298.211
30579.9
303.063
30545.4
237.862
28848.7
186.259
31023.3
115.049
34608.4
-23.3523
36564.9
-225.701
36382.4
-922.894
26499.7
-1295.27
-3333.95
-717.644
-2024.09
114.321
2824.98
1165.36
-915.403
2138.33
-3003.39
3508.08
-7385.35
5225.94
-17036
7105.15
-25140.8
8527.2
-25326.8
8886.53
-18685.1
7842.51
-8625.72
5204.4
-2253.94
2993.72
7241.67
2419.82
24608.5
2054.27
31297.8
1848.1
31346.2
1711.65
29285.3
1590.5
26670.8
1447.75
24059
1236.83
21483.4
915.074
18391.7
219.785
14109.7
-348.146
7605.24
247.515
-9446.66
1244.19
-24318
1974.63
-30944.1
2368.5
-33691.8
2453.45
-34446.4
2305.98
-34460.1
2017.17
-34281.3
1665.56
-34178.5
1284.62
-34210.7
842.597
-34569.5
-35458.2
-1673.05
-4904.68
-1811.51
-5657.86
-2007.97
-5737.58
-2235.23
-5947.78
-2456.26
-6101.94
-2628.47
-6347.77
-2723.92
-6675.21
-2737.1
-7075.39
-2680.41
-7489.68
-2572.44
-7862.39
-2429.98
-8142.88
-2265.79
-8294.63
-2088.62
-8288.37
-1904.62
-8098.13
-1718.6
-7700.36
-1534.19
-7044.62
-1351.35
-6057.37
-1133.18
-4541.01
-765.794
-1799.32
-457.206
2371.54
-254.322
5292.39
-182.898
7489.29
-189.686
9163
-177.055
10736.6
-157.78
12382
-133.378
13937
-110.06
15305.5
-86.3908
16242
-42.5135
17329.2
-7.50449
19360.4
10.0456
21504.4
36.7111
22932.4
74.7445
24193.1
118.674
25412.4
160.907
26531.5
186.79
27015
206.19
27589.1
277.951
30508.2
286.873
30536.5
226.535
28909.1
177.172
31072.7
109.837
34675.8
-22.9057
36697.6
-214.305
36573.8
-875.71
27161.1
-1224.78
-2984.88
-512.249
-2736.63
447.15
1865.58
1466.94
-1935.19
2488.38
-4024.83
4009.14
-8906.11
5882.85
-18909.7
7879.18
-27137.1
9372.48
-26820.1
9704.23
-19016.9
8632.84
-7554.32
5929.52
449.384
3443.86
9727.33
2632.29
25420.1
2158.26
31771.8
1881.3
31623.2
1691.4
29475.2
1524.94
26837.2
1338.64
24245.3
1076.89
21745.1
685.59
18783
-96.7155
14892
-530.587
8039.11
284.986
-10262.2
1353.59
-25386.6
2115.95
-31706.5
2505.73
-34081.5
2570.2
-34510.9
2396.38
-34286.3
2081.08
-33966
1706.24
-33803.7
1305.6
-33810
870.026
-34133.9
-34902.8
-1757.44
-4813.35
-1919.28
-5496.02
-2134.55
-5522.31
-2367.5
-5714.83
-2575
-5894.44
-2716.53
-6206.25
-2772.76
-6618.98
-2747.11
-7101.04
-2656.97
-7579.82
-2522.18
-7997.19
-2359.28
-8305.78
-2180.57
-8473.34
-1993.99
-8474.95
-1804.54
-8287.58
-1616.77
-7888.13
-1434.13
-7227.26
-1256.6
-6234.9
-1052.18
-4745.43
-708.191
-2143.31
-407.237
2070.58
-213.336
5098.49
-109.469
7385.42
-112.91
9166.44
-114.533
10738.2
-104.498
12372
-89.6307
13922.2
-79.137
15295
-72.043
16234.9
-41.552
17298.7
-10.3769
19329.2
2.35492
21491.7
21.863
22912.9
54.7624
24160.2
95.1836
25371.9
135.718
26491
161.78
26988.9
182.466
27568.4
255.772
30434.9
268.941
30523.3
213.687
28964.3
166.967
31119.4
104.016
34738.7
-21.5546
36823.2
-199.017
36751.2
-818.741
27780.8
-1194.61
-2609.01
-379.621
-3551.62
644.371
841.591
1661.48
-2952.3
2847.79
-5211.14
4588.12
-10646.4
6647.39
-20969
8750.4
-29240.1
10291.4
-28361.1
10600.8
-19326.3
9458.96
-6412.45
6666.79
3241.55
3927.99
12466.1
2862.04
26486.1
2257.74
32376.2
1889.56
31991.4
1636.94
29727.8
1424.15
27050
1196.7
24472.7
888.612
22053.2
428.444
19243.2
-404.159
15724.6
-679.445
8314.4
335.837
-11277.5
1473.63
-26524.4
2262.74
-32495.6
2644.09
-34462.9
2686.23
-34553
2486.41
-34086.5
2145.63
-33625.2
1747.85
-33405.9
1328.46
-33390.6
907.061
-33712.5
-34475.8
-1848.99
-4704
-2034.38
-5310.63
-2263.64
-5293.04
-2493.37
-5485.11
-2677.38
-5710.44
-2781.07
-6102.56
-2795.39
-6604.65
-2731.84
-7164.59
-2611.2
-7700.46
-2453.44
-8154.96
-2274.32
-8484.9
-2085.27
-8662.39
-1893.01
-8667.21
-1700.97
-8479.62
-1512.91
-8076.19
-1331.79
-7408.38
-1158.18
-6408.51
-968.115
-4935.49
-650.974
-2460.45
-343.255
1762.86
-170.155
4925.39
-43.0578
7258.32
-28.4945
9151.88
-44.4738
10754.2
-44.2392
12371.7
-39.4136
13917.3
-41.8343
15297.5
-52.2638
16245.3
-36.4586
17282.9
-11.1093
19303.9
-3.8995
21484.5
7.96795
22901.1
34.8901
24133.3
71.1093
25335.7
109.394
26452.7
135.144
26963.2
156.859
27546.7
231.795
30359.9
249.309
30505.8
199.253
29014.4
155.573
31163.1
97.3242
34797
-20.1243
36940.7
-180.328
36911.4
-747.104
28347.6
-1167.63
-2188.48
-308.904
-4410.35
722.877
-190.191
1791.34
-4020.76
3231.22
-6651.01
5258.06
-12673.3
7534.3
-23245.2
9726.76
-31432.6
11288.9
-29923.3
11582.8
-19620.2
10326
-5155.62
7405.81
6161.71
4432.3
15439.6
3096.87
27821.5
2338.04
33135
1863.73
32465.7
1546.29
30045.3
1291.2
27305.1
1027.93
24736
679.95
22401.2
153.704
19769.4
-693.288
16571.6
-792.471
8413.58
401.659
-12471.6
1605.43
-27728.1
2414.25
-33304.4
2781.51
-34830.2
2798.97
-34570.5
2573.78
-33861.3
2209.2
-33260.6
1789.7
-32986.4
1350.49
-32951.4
862.16
-33224.2
-34038.1
-1947.58
-4575.55
-2154.98
-5103.23
-2391.25
-5056.77
-2607.66
-5268.7
-2759
-5559.09
-2819.97
-6041.59
-2792.23
-6632.4
-2693.78
-7263.04
-2547.17
-7847.06
-2371.53
-8330.6
-2181.22
-8675.2
-1986.3
-8857.31
-1791.91
-8861.6
-1599.74
-8671.79
-1412.45
-8263.48
-1232.14
-7588.69
-1059.27
-6581.38
-878.707
-5116.06
-590.142
-2749.02
-265.512
1438.23
-119.87
4779.75
16.6351
7121.82
59.0752
9109.44
34.2328
10779.1
23.4163
12382.5
17.8993
13922.9
2.52458
15312.8
-26.395
16274.2
-26.8462
17283.4
-9.46432
19286.5
-8.54003
21483.5
-4.58642
22897.1
15.4655
24113.2
46.7637
25304.4
82.213
26417.2
107.117
26938.3
129.559
27524.2
206.181
30283.3
228.071
30483.9
183.233
29059.2
142.947
31203.4
89.5316
34850.4
-19.3133
37049.5
-159.569
37051.7
-659.758
28847.8
-1092.72
-1755.51
-300.169
-5202.9
709.48
-1199.84
1900.03
-5211.31
3654.91
-8405.9
6028.21
-15046.6
8552.6
-25769.6
10820.5
-33700.4
12380.4
-31483.2
12652.6
-19892.4
11251.5
-3754.53
8166.84
9246.42
4950.18
18656.3
3325.78
29445.9
2391.7
34069.1
1803.98
33053.4
1424.15
30425.1
1132.5
27596.8
839.586
25028.9
457.771
22783
-128.763
20356
-959.968
17402.8
-871.104
8324.72
485.783
-13828.5
1750.58
-28992.9
2570.09
-34123.9
2916.31
-35176.4
2906.23
-34560.4
2656.41
-33611.5
2270.18
-32874.4
1831.16
-32547.4
1374.17
-32494.4
890.423
-32740.5
-33453.8
-2052.53
-4427.86
-2278.33
-4877.44
-2512.73
-4822.37
-2705.51
-5075.93
-2816.78
-5447.82
-2832.87
-6025.49
-2765.39
-6699.88
-2636.9
-7391.52
-2470.23
-8013.73
-2282.8
-8518.04
-2086.85
-8871.15
-1890.4
-9053.77
-1696.87
-9055.12
-1506.34
-8862.31
-1320.34
-8449.48
-1140.1
-7768.93
-965.198
-6756.28
-787.093
-5294.16
-525.674
-3010.44
-185.078
1097.64
-59.3357
4654
73.957
6988.52
143.331
9040.07
122.263
10800.1
98.4761
12406.3
82.5652
13938.8
54.342
15341.1
6.10464
16322.5
-12.5605
17302
-4.8668
19278.8
-10.9357
21489.6
-15.4335
22901.6
-3.1745
24100.9
22.4578
25278.8
54.4588
26385.2
77.9499
26914.8
100.782
27501.4
179.112
30205
205.342
30457.7
165.652
29098.9
129.06
31240
80.4139
34899
-19.785
37149.7
-139.049
37171
-569.38
29278.1
-1001.33
-1323.56
-346.032
-5858.2
639.022
-2184.89
2017.35
-6589.63
4130.24
-10518.8
6899.83
-17816.2
9702.08
-28571.8
12043.2
-36041.6
13577.6
-33017.5
13800.4
-20115.3
12229.7
-2183.75
8950.05
12526
5477.13
22129.2
3544.33
31378.7
2420.15
35193.2
1717.32
33756.2
1278.53
30863.9
955.357
27919.9
638.376
25345.9
227.775
23193.6
-408.786
20992.5
-1201.56
18195.5
-917.379
8040.54
592.563
-15338.5
1910.53
-30310.9
2729.76
-34943.1
3047.07
-35493.7
3006.19
-34519.5
2732.49
-33337.8
2327.08
-32469
1870.8
-32091.1
1398.02
-32021.7
918.005
-32260.4
-33020
-2162.42
-4262.03
-2400.83
-4639.02
-2623.26
-4599.94
-2782.95
-4916.23
-2849.31
-5381.47
-2821.23
-6053.57
-2718.54
-6802.56
-2566.36
-7543.71
-2386.49
-8193.6
-2193.85
-8710.68
-1997.74
-9067.26
-1803.53
-9247.98
-1612.96
-9245.7
-1424.96
-9050.31
-1240.15
-8634.29
-1059.15
-7949.93
-880.612
-6934.82
-699.294
-5475.48
-457.144
-3252.59
-109.279
749.772
14.6738
4530.05
134.196
6869
219.989
8954.28
217.574
10802.5
180.963
12442.9
154.415
13965.3
113.712
15381.8
45.6022
16390.6
6.62228
17341
3.85576
19281.6
-9.96972
21503.4
-24.2578
22915.9
-20.6899
24097.4
-1.50657
25259.6
26.4128
26357.3
47.8979
26893.3
70.7455
27478.5
150.784
30125
181.255
30427.2
146.559
29133.6
113.894
31272.6
69.7554
34943.2
-22.1757
37241.6
-121.16
37269.9
-480.025
29637
-926.933
-876.651
-427.008
-6358.13
555.268
-3167.17
2166.79
-8201.15
4664.11
-13016.1
7862.74
-21014.8
10965.3
-31674.4
13388.6
-38464.9
14870.1
-34499.1
15004.7
-20249.9
13241
-420.043
9742.11
16025
6006.64
25864.7
3754.02
33631.3
2430.29
36517
1613.12
34573.4
1117.88
31359.1
766.662
28271.2
430.039
25682.5
-4.64998
23628.3
-677.222
21665.1
-1416.19
18934.5
-932.348
7556.69
726.015
-16996.8
2085.86
-31670.8
2892.15
-35749.4
3172.33
-35773.9
3097.39
-34444.6
2800.52
-33040.9
2378.55
-32047
1907.8
-31620.3
1421.13
-31535
912.432
-31751.7
-32442
-2275.04
-4080.62
-2518.29
-4395.77
-2718.34
-4399.89
-2837.49
-4797.09
-2857.15
-5361.8
-2788.3
-6122.42
-2656.7
-6934.17
-2488.05
-7712.36
-2302.11
-8379.54
-2110.54
-8902.25
-1919.02
-9258.79
-1729.81
-9437.18
-1543.2
-9432.31
-1357.73
-9235.78
-1173.45
-8818.58
-990.712
-8132.67
-807.752
-7117.78
-620.262
-5662.97
-385.897
-3486.95
-35.7475
399.622
98.0309
4396.27
201.563
6765.47
290.704
8865.13
314.174
10779.1
271.198
12485.9
233.044
14003.5
180.34
15434.5
92.4074
16478.5
31.2162
17402.2
17.6597
19295.1
-4.46807
21525.6
-30.5234
22942
-36.715
24103.6
-24.8337
25247.7
-1.64688
26334.1
17.2181
26874.4
39.672
27456.1
121.404
30043.2
155.965
30392.6
126.026
29163.6
97.4497
31301.2
57.3719
34983.2
-27.069
37326.1
-108.021
37350.9
-394.983
29924
-872.816
-398.818
-526.213
-6704.73
486.995
-4180.38
2363.5
-10077.7
5260.58
-15913.2
8893.94
-24648.2
12302
-35082.5
14819.7
-40982.6
16219
-35898.4
16223.9
-20254.7
14257.9
1545.92
10525.4
19757.5
6530.73
29859.4
3958.42
36203.6
2430.08
38045.3
1499.93
35503.5
949.743
31909.3
572.673
28648.2
219.906
26035.3
-233.092
24081.3
-926.098
22358.1
-1603.62
19612
-916.948
6870.02
888.666
-18802.5
2275.9
-33058
3055.36
-36528.9
3290.47
-36009
3178.62
-34332.7
2859.31
-32721.6
2423.37
-31611.1
1941.09
-31138.1
1443.89
-31037.8
963.741
-31271.6
-31971.6
-2387.48
-3887.64
-2626.3
-4156.95
-2794.44
-4231.74
-2868.38
-4723.15
-2842.76
-5387.43
-2738.84
-6226.33
-2585.73
-7087.28
-2408.1
-7889.99
-2222.67
-8564.97
-2037.28
-9087.64
-1853.62
-9442.45
-1670.88
-9619.92
-1488.25
-9614.93
-1304.57
-9419.45
-1119.8
-9003.36
-934.278
-8318.18
-746.405
-7305.65
-551.991
-5857.38
-317.834
-3721.11
36.3368
45.4508
183.683
4248.93
279.532
6669.62
361.603
8783.06
405.123
10735.6
368.927
12522.1
318.056
14054.3
253.551
15499
146.704
16585.4
61.8377
17487.1
36.3926
19320.6
6.25906
21555.7
-33.1765
22981.4
-50.7936
24121.2
-47.2023
25244.1
-29.4363
26316.4
-13.8297
26858.8
7.78902
27434.5
91.1929
29959.8
129.647
30354.2
104.16
29189
79.7629
31325.6
43.1278
35019.9
-34.9865
37404.2
-101.446
37417.4
-318.857
30141.4
-843.727
126.051
-637.237
-6911.22
445.473
-5263.09
2618.96
-12251.1
5919.6
-19213.8
9954.17
-28682.8
13642.5
-38770.8
16258.2
-43598.3
17555.5
-37195.7
17392.3
-20091.5
15238.5
3699.77
11279.2
23716.8
7040.86
34097.7
4159.96
39084.5
2426
39779.3
1384.5
36545
780.401
32513.4
379.194
29049.4
13.5164
26401
-450.116
24544.9
-1149.01
23057
-1766.39
20229.4
-873.537
5977.16
1080.96
-20757
2478.83
-34455.9
3216.81
-37266.9
3399.69
-36191.8
3248.82
-34181.9
2907.89
-32380.7
2460.5
-31163.7
1969.83
-30647.4
1463.05
-30531
924.479
-30733
-31495.6
-2496.31
-3688.49
-2720.76
-3932.5
-2849.39
-4103.11
-2876.77
-4695.76
-2810.15
-5454.05
-2678.5
-6357.98
-2511.77
-7254.02
-2332.15
-8069.61
-2152.52
-8744.59
-1976.55
-9263.61
-1802.17
-9616.84
-1626.01
-9796.08
-1446.65
-9794.29
-1263.67
-9602.43
-1077.29
-9189.74
-888.035
-8507.44
-694.822
-7498.87
-493.628
-6058.58
-256.939
-3957.8
108.185
-319.673
271.058
4086.05
367.721
6572.96
437.888
8712.9
488.403
10685
471.33
12539.2
409.169
14116.5
332.594
15575.5
208.453
16709.5
98.8223
17596.7
59.0071
19360.4
22.01
21592.7
-31.0623
23034.5
-62.2473
24152.4
-68.2566
25250.1
-56.6707
26304.8
-44.9867
26847.1
-24.6473
27414.1
60.3717
29874.8
102.496
30312
81.0922
29210.4
60.9096
31345.8
26.9503
35053.8
-46.372
37477.5
-102.836
37473.8
-255.049
30293.6
-842.819
713.821
-760.075
-6993.97
437.102
-6460.27
2942.49
-14756.5
6624.2
-22895.5
10977.9
-33036.4
14881
-42673.9
17579.3
-46296.5
18788.3
-38404.8
18475.3
-19778.5
16155.3
6019.79
11983.6
27888.4
7525.51
38555.8
4357.78
42252.3
2421.86
41715.2
1271.36
37695.5
614.72
33170.1
191.491
29472.7
-183.194
26775.6
-648.572
25010.3
-1342.26
23750.7
-1908.75
20795.9
-805.12
4873.53
1301.52
-22863.6
2692.13
-35846.5
3373.66
-37948.4
3498.14
-36316.3
3307.05
-33990.8
2945.46
-32019.1
2489.02
-30707.2
1993.7
-30152.1
1481.41
-30018.7
956.367
-30208
-30882.9
-2597.86
-3489.51
-2798.34
-3732.02
-2882.66
-4018.79
-2865.42
-4713
-2764.31
-5555.15
-2613.08
-6509.21
-2440.35
-7426.75
-2264.65
-8245.3
-2094.36
-8914.88
-1928.95
-9429.02
-1763.43
-9782.36
-1592.89
-9966.61
-1415.73
-9971.46
-1232.37
-9785.79
-1043.46
-9378.65
-849.764
-8701.14
-650.859
-7697.77
-443.029
-6266.41
-203.294
-4197.53
173.475
-696.442
359.931
3899.6
462.377
6470.51
522.124
8653.15
568.729
10638.4
572.481
12535.4
505.849
14183.1
416.958
15664.4
277.284
16849.2
141.981
17732
84.5315
19417.8
41.9329
21635.3
-23.4933
23099.9
-70.0578
24198.9
-87.4513
25267.5
-83.0449
26300.4
-75.9936
26840.1
-57.3529
27395.5
29.1633
29788.3
74.7247
30266.5
56.9857
29228.2
40.9897
31361.8
8.84908
35086
-61.5655
37547.9
-113.022
37525.3
-206.875
30387.4
-866.19
1373.14
-891.725
-6968.43
471.202
-7823.19
3328.14
-17613.5
7317.96
-26885.4
11856.9
-37575.4
15865
-46682
18608.6
-49040.1
19794.3
-39590.5
19439.3
-19423.5
17005.4
8453.67
12630.7
32263.2
7971.82
43214.7
4546.73
45677.3
2418.19
43843.7
1162.4
38951.3
455.879
33876.6
13.9378
29914.6
-364.73
27154.3
-822.8
25468.4
-1504.06
24431.9
-2029.01
21320.9
-708.125
3552.65
1548.18
-25119.9
2913.11
-37211.4
3523.2
-38558.5
3584.13
-36377.3
3352.48
-33759.1
2971.32
-31637.9
2508.11
-30244
2011.35
-29655.3
1497.72
-29505.1
999.074
-29709.3
-30383.5
-2688.69
-3297.53
-2856.96
-3563.75
-2895.36
-3980.39
-2838.22
-4770.15
-2710.46
-5682.91
-2547.74
-6671.93
-2375.65
-7598.84
-2208.22
-8412.73
-2048.91
-9074.2
-1893.43
-9584.5
-1735.09
-9940.7
-1568.66
-10133
-1392.64
-10147.5
-1208.12
-9970.31
-1016.14
-9570.63
-817.654
-8899.62
-612.853
-7902.57
-398.375
-6480.89
-154.563
-4441.34
226.606
-1077.61
447.299
3678.91
560.647
6357.16
614.847
8598.95
652.503
10600.8
667.194
12520.7
606.361
14244
506.242
15764.6
352.495
17002.9
191.143
17893.3
113.101
19495.9
65.1028
21683.3
-10.7075
23175.7
-73.3745
24261.6
-104.011
25298.2
-108.143
26304.5
-106.588
26838.5
-90.0527
27379
-2.20255
29700.4
46.5538
30217.7
32.0219
29242.7
20.119
31373.7
-11.074
35117.2
-80.7629
37617.6
-132.305
37576.8
-177.492
30432.6
-908.614
2104.26
-1020.9
-6856.14
554.105
-9398.2
3734.83
-20794.2
7891.41
-31041.9