/*--------------------------------*- C++ -*----------------------------------*\
| =========                 |                                                 |
| \\      /  F ield         | OpenFOAM: The Open Source CFD Toolbox           |
|  \\    /   O peration     | Version:  4.1                                   |
|   \\  /    A nd           | Web:      www.OpenFOAM.org                      |
|    \\/     M anipulation  |                                                 |
\*---------------------------------------------------------------------------*/
FoamFile
{
    version     2.0;
    format      ascii;
    class       volVectorField;
    location    "6";
    object      U;
}
// * * * * * * * * * * * * * * * * * * * * * * * * * * * * * * * * * * * * * //

dimensions      [0 1 -1 0 0 0 0];

internalField   nonuniform List<vector> 
6785
(
(9.31608e-14 -0.596663 16.1054)
(8.75792e-14 -6.47496 12.4773)
(-2.39388e-14 -4.71145 12.8204)
(5.19213e-14 -4.1716 12.5973)
(1.17698e-14 -3.55392 12.4372)
(-1.01297e-14 -3.07751 12.2251)
(3.06956e-14 -2.6884 11.9849)
(9.54171e-15 -2.40194 11.7066)
(-7.72572e-15 -2.21251 11.3906)
(3.36298e-14 -2.09106 11.0512)
(8.85348e-15 -2.04607 10.6891)
(-1.33063e-14 -2.24537 10.2055)
(3.00529e-14 -2.56822 9.56321)
(-1.35851e-14 -1.67067 8.98395)
(-6.84733e-14 0.879785 6.70309)
(2.26592e-13 -7.34396 26.1239)
(1.37629e-13 -16.556 21.7988)
(-1.83191e-14 -11.6723 22.2527)
(1.38531e-13 -11.8662 20.8748)
(6.226e-15 -10.9468 19.8869)
(2.57501e-14 -10.2328 18.8529)
(1.24964e-13 -9.51749 17.8298)
(1.61679e-15 -8.83088 16.8089)
(4.97074e-14 -8.17607 15.7747)
(1.36396e-13 -7.53249 14.7376)
(1.23727e-14 -6.89799 13.8047)
(8.20668e-14 -6.44335 12.9846)
(1.51744e-13 -6.04531 11.4218)
(-4.25209e-14 -3.65832 6.93785)
(5.71469e-14 2.50436 -1.92408)
(7.10836e-14 -10.1157 28.0877)
(1.3221e-13 -17.7562 24.2954)
(-3.72639e-14 -11.9444 24.8427)
(-1.15529e-14 -12.7828 22.6967)
(1.97615e-14 -11.3089 21.5531)
(-3.13488e-15 -10.5127 20.1351)
(1.02505e-14 -9.61959 18.7851)
(2.48566e-14 -8.7942 17.4323)
(-4.20449e-15 -8.0114 16.0986)
(-1.76679e-14 -7.30162 14.8185)
(3.5233e-14 -6.62125 13.552)
(-3.74526e-14 -5.56856 11.6145)
(-1.74674e-13 -3.08486 7.16138)
(6.56505e-14 1.19653 -0.705782)
(2.21263e-14 1.65463 -4.71634)
(1.54718e-13 -10.933 26.8699)
(5.36411e-14 -17.6361 23.9488)
(3.1246e-14 -11.6766 24.3324)
(-2.18698e-14 -13.405 21.5154)
(-7.25374e-14 -11.4611 20.5174)
(7.5668e-14 -10.9515 18.8254)
(-1.79217e-14 -10.0698 17.3761)
(-9.4308e-14 -9.31348 15.897)
(8.40014e-14 -8.57397 14.4443)
(-3.20155e-14 -7.88854 13.0454)
(-1.17822e-13 -7.26348 11.7181)
(1.29381e-13 -6.43854 10.0535)
(-3.69357e-14 -4.60735 6.80957)
(-3.70719e-13 -1.61344 2.14126)
(-2.4557e-13 -0.133053 -2.93371)
(1.01699e-13 -11.0048 25.3558)
(-7.27928e-14 -17.2958 24.0781)
(-1.80414e-14 -11.8821 23.8476)
(-6.61096e-14 -13.4674 20.9037)
(-2.25327e-13 -11.5831 19.9048)
(-2.21356e-14 -11.0781 18.1891)
(-7.41267e-14 -10.2514 16.6862)
(-2.77954e-13 -9.46939 15.1883)
(-1.03383e-13 -8.72371 13.7326)
(-6.78703e-14 -8.01547 12.375)
(-2.85691e-13 -7.35149 11.1118)
(-2.15884e-13 -6.60799 9.76758)
(-1.71697e-13 -5.47873 7.74314)
(-4.29123e-13 -3.39095 4.91437)
(-8.76665e-13 -1.30065 0.0617261)
(1.5837e-13 -10.9927 24.3408)
(-5.07538e-14 -16.8005 23.8662)
(5.53431e-14 -11.7507 23.487)
(-7.57526e-14 -13.2717 20.462)
(-2.19378e-13 -11.2188 19.5807)
(8.25489e-14 -10.832 17.7812)
(-7.33694e-14 -9.92781 16.3133)
(-2.48917e-13 -9.19012 14.8791)
(1.27935e-14 -8.55094 13.5941)
(-5.87089e-14 -7.9645 12.4044)
(-2.56074e-13 -7.38221 11.2268)
(-1.58187e-13 -6.71646 10.0655)
(-1.38253e-13 -5.99614 8.74628)
(-3.16024e-13 -4.60617 7.04324)
(-3.57832e-13 -2.59065 2.99942)
(2.87245e-13 -11.338 23.9878)
(6.16168e-15 -16.1142 23.3572)
(1.64652e-13 -11.5083 23.1292)
(-9.64928e-14 -13.0409 20.0526)
(-1.06792e-13 -10.6647 19.292)
(2.22319e-13 -10.498 17.2918)
(-1.02459e-13 -9.34164 15.8899)
(-6.7642e-14 -8.63316 14.2836)
(2.32602e-13 -7.9288 12.8269)
(-5.78409e-14 -7.4701 11.5816)
(-2.04526e-14 -7.17835 10.7195)
(2.72159e-13 -6.96304 10.2597)
(9.07254e-14 -6.78042 9.90331)
(-3.24301e-13 -6.06784 9.18288)
(4.15543e-14 -4.31549 6.39698)
(2.1686e-13 -12.0683 24.4262)
(1.50367e-14 -15.5996 23.4505)
(1.06051e-13 -11.6719 23.1588)
(-1.08551e-13 -12.7344 20.3765)
(-1.11097e-14 -10.3969 19.4881)
(6.61605e-14 -10.0957 17.4708)
(-9.61696e-14 -8.61168 15.8512)
(2.1595e-14 -7.35447 13.368)
(1.96343e-14 -5.83245 10.7323)
(-1.14531e-13 -5.0964 9.03831)
(-1.60848e-13 -5.33663 8.98866)
(-1.12373e-13 -6.21807 9.97671)
(1.65648e-14 -7.13872 11.1235)
(-4.29892e-14 -7.34413 11.4767)
(2.23919e-13 -5.50904 9.36218)
(2.28064e-13 -12.5913 24.9419)
(4.61468e-14 -16.1159 24.9634)
(-2.35889e-14 -12.1534 23.966)
(-8.20051e-14 -12.9607 21.5087)
(1.31094e-14 -10.6568 20.5658)
(-1.00182e-13 -10.2644 18.5716)
(-7.2793e-14 -8.52509 16.798)
(-5.86231e-14 -6.83407 13.7615)
(-2.63011e-13 -4.53818 10.3618)
(-4.17365e-13 -2.93427 7.77443)
(-9.72207e-13 -2.29002 6.64736)
(-1.23019e-12 -2.75521 6.97076)
(-7.95002e-13 -4.30356 8.82093)
(-3.46839e-13 -5.849 10.8592)
(1.70982e-14 -4.68268 9.39287)
(1.13478e-13 -12.3237 24.1176)
(5.46435e-14 -17.2408 27.2048)
(-3.85236e-14 -13.0858 25.2462)
(-1.79166e-13 -13.7079 22.7403)
(4.80782e-15 -11.4383 21.8453)
(-1.11985e-13 -11.209 19.9088)
(-2.00115e-13 -9.56875 18.3726)
(-8.88841e-14 -8.12275 15.6379)
(-3.32775e-13 -5.78524 12.3483)
(-5.9571e-13 -3.67495 9.18894)
(-1.14416e-12 -1.88116 6.50439)
(-1.83713e-12 -0.366445 4.12822)
(-2.2205e-12 0.31869 2.93928)
(-1.65314e-12 -0.642179 3.9595)
(-5.21373e-13 -1.72478 5.14657)
(-4.38969e-14 -11.4013 21.8591)
(8.63536e-14 -17.7237 28.3771)
(-1.67235e-13 -14.4051 26.3924)
(-1.83313e-13 -14.3435 23.5732)
(-3.86342e-15 -12.4935 22.4008)
(-2.75627e-13 -12.1358 20.5605)
(-2.0037e-13 -10.9517 19.0096)
(-4.21014e-14 -9.95569 17.1004)
(-4.70802e-13 -8.27922 14.6799)
(-4.71935e-13 -6.36157 11.861)
(-6.00009e-13 -4.28089 8.86767)
(-1.93405e-12 -2.02749 5.55809)
(-2.70885e-12 0.598384 1.96989)
(-3.91491e-12 2.39419 -1.41706)
(-1.51923e-12 1.53258 -2.76811)
(-5.36894e-14 -10.3234 19.1177)
(1.41027e-13 -17.3752 28.1683)
(-2.77956e-13 -14.9587 26.5391)
(-1.63317e-13 -14.2652 23.439)
(2.87094e-14 -12.6918 22.0646)
(-3.59859e-13 -12.2017 20.3204)
(-1.9683e-13 -11.1857 18.7232)
(5.83141e-14 -10.4233 17.1405)
(-4.16548e-13 -9.45203 15.4394)
(-4.43721e-13 -8.20538 13.3498)
(-2.63432e-13 -6.69623 10.8903)
(-1.14899e-12 -4.87543 8.06103)
(-1.29299e-12 -2.6416 4.59442)
(-2.56475e-12 0.362771 1.00849)
(-1.57184e-12 1.18415 -4.79542)
(-2.0038e-13 -9.18093 16.5177)
(7.52891e-14 -17.1678 27.7111)
(-1.7207e-13 -16.1357 27.316)
(-2.80246e-13 -15.0435 23.9662)
(1.38872e-14 -13.496 21.7783)
(-2.92609e-13 -12.6392 19.7185)
(-3.91607e-13 -11.5436 17.8031)
(1.70131e-13 -10.5392 15.9837)
(-1.77911e-13 -9.54426 14.2826)
(-3.94099e-13 -8.57132 12.6229)
(-1.39302e-13 -7.57717 10.8255)
(-5.23401e-13 -6.41957 8.90901)
(-6.65312e-13 -4.9114 6.26142)
(-8.88043e-13 -2.15754 2.5917)
(-1.15951e-12 -0.270015 -3.05048)
(-2.72325e-13 -6.54533 11.4469)
(-3.36933e-14 -13.1773 24.6168)
(-2.62112e-13 -12.4488 24.3413)
(-2.30268e-13 -11.1621 21.9361)
(-9.61094e-14 -9.99579 20.7344)
(-2.06083e-13 -9.35054 19.6644)
(-1.02915e-13 -8.84919 19.0396)
(1.28042e-14 -8.73497 18.3615)
(-1.8667e-13 -8.64005 16.941)
(-2.37329e-13 -8.43763 14.9321)
(-2.35878e-13 -8.0865 13.0826)
(-2.93428e-13 -7.35918 11.2585)
(-2.78463e-13 -7.19787 10.8169)
(-4.6259e-13 -6.261 9.59192)
(-8.38948e-13 -5.35921 6.86857)
(-3.27361e-13 -18.3459 38.9597)
(-1.54114e-13 -21.7099 39.9156)
(-2.85205e-13 -17.491 33.5057)
(-2.56686e-13 -14.328 29.5495)
(-2.37737e-13 -11.6304 25.4971)
(-2.27016e-13 -8.8735 21.7456)
(-2.43297e-13 -5.11612 15.924)
(-2.7524e-13 0.380171 6.82771)
(-2.86219e-13 5.93919 -2.46541)
(-3.55631e-13 6.44602 -3.14394)
(-3.55125e-13 3.29568 2.49163)
(-2.95125e-13 3.48347 2.69754)
(-2.94849e-13 4.31273 -0.107418)
(-2.67174e-13 3.33622 -2.85739)
(-1.68958e-13 1.04729 -2.02173)
(-3.63712e-15 -0.0384269 0.0179299)
(-3.88266e-14 0.637524 1.12249)
(-2.44989e-14 0.650105 1.25724)
(-1.60469e-14 0.735553 0.566492)
(-1.02969e-14 0.575703 0.0576366)
(-3.7276e-14 1.75495 -2.09908)
(-2.88944e-14 1.64653 -1.27309)
(-2.23219e-14 1.97102 -1.00572)
(-2.3281e-14 1.80321 -0.658149)
(-2.2152e-16 3.17793 -2.42363)
(2.06637e-14 2.98915 -1.56905)
(2.93687e-14 3.08768 -1.26977)
(1.70943e-14 4.95843 -2.90752)
(1.37634e-14 4.07735 -1.85259)
(1.53575e-14 4.64619 -1.79292)
(1.978e-14 4.41163 -1.56211)
(7.14594e-15 6.37308 -2.95709)
(1.68451e-14 5.4462 -1.86141)
(2.0019e-14 5.61433 -1.59607)
(1.03912e-14 8.12648 -2.70916)
(9.20356e-15 6.36719 -1.61771)
(8.31927e-15 7.10158 -1.51115)
(1.56974e-14 6.72752 -1.3041)
(1.02089e-14 9.35339 -2.10509)
(9.46723e-15 7.34486 -1.1342)
(1.04041e-14 8.13978 -0.990448)
(6.95736e-15 7.718 -0.812567)
(4.76781e-16 10.241 -1.29071)
(-2.30877e-15 8.30919 -0.503655)
(-1.06174e-15 8.44502 -0.351959)
(-6.23642e-15 11.5868 -0.487627)
(-5.48124e-15 8.76596 0.0462877)
(-3.06839e-15 9.53461 0.147393)
(-4.32448e-15 9.03192 0.20144)
(-1.00391e-14 11.7434 0.343405)
(-2.15391e-15 9.31445 0.653108)
(2.67447e-16 9.39611 0.638627)
(-3.23871e-15 12.7212 1.0935)
(6.12231e-16 9.42986 1.10685)
(-9.29155e-16 10.179 1.11093)
(1.90858e-15 9.58814 1.01421)
(-3.86744e-15 12.5898 1.63672)
(-3.91774e-15 9.40094 1.40791)
(-7.08807e-15 10.2049 1.37355)
(-8.95715e-15 9.62374 1.21667)
(-1.7782e-14 12.2741 1.90657)
(-1.74329e-14 9.44256 1.56703)
(-1.56536e-14 9.48541 1.34948)
(-2.31712e-14 12.6983 2.19976)
(-9.16427e-15 9.13656 1.64442)
(-8.9072e-15 9.81599 1.51888)
(-8.61901e-15 9.25093 1.28542)
(-1.42846e-14 11.9984 2.13663)
(-7.85662e-15 8.70495 1.53139)
(-8.34043e-15 9.4477 1.42464)
(-3.69346e-15 8.9172 1.19818)
(-5.31658e-15 11.275 2.04627)
(3.27622e-16 8.40943 1.47101)
(-1.58871e-15 8.4696 1.20856)
(1.35724e-15 11.2594 2.20374)
(5.47577e-15 7.85388 1.49437)
(8.41631e-15 8.45092 1.35489)
(8.05073e-15 7.9997 1.09037)
(2.95034e-14 10.1209 2.08753)
(3.30537e-14 7.34667 1.43022)
(3.26311e-14 7.42468 1.07579)
(4.367e-14 9.86408 2.18575)
(2.5618e-14 6.67606 1.36849)
(2.62802e-14 7.20495 1.07616)
(3.00882e-14 6.85516 0.603835)
(5.1405e-14 8.80457 1.55306)
(5.0192e-14 5.9617 0.81603)
(4.9827e-14 6.54442 0.666929)
(4.61281e-14 6.25538 0.495383)
(3.12293e-14 7.87103 2.21229)
(-9.91046e-16 5.33624 2.35487)
(-1.93752e-14 5.41392 2.53414)
(-5.81134e-14 7.1784 6.0161)
(-5.60371e-14 4.09191 4.79793)
(-3.69747e-14 4.62745 5.59697)
(-7.01997e-14 4.08788 6.24416)
(-7.31862e-14 4.26138 5.23856)
(-7.06388e-14 3.25073 1.98996)
(4.09749e-14 5.12945 2.56335)
(9.77392e-14 3.63892 -2.92363)
(8.13858e-14 2.58303 -5.3107)
(3.86201e-14 2.33584 -7.50016)
(-1.79113e-15 2.43287 -9.45555)
(-3.21033e-14 3.25041 -11.4642)
(-5.12464e-14 1.82483 -13.8521)
(-7.08886e-14 3.93561 -15.9184)
(-7.47675e-14 0.279387 -21.065)
(-2.23317e-15 2.94265 -12.9917)
(-1.67783e-13 11.5769 -4.99627)
(-1.85339e-13 2.49066 -3.80532)
(-1.84981e-13 1.15701 -3.23958)
(-1.78387e-13 1.2165 0.288)
(-1.53045e-13 0.998273 7.89464)
(-1.32738e-13 0.897413 11.3127)
(-1.27837e-13 0.816388 12.3166)
(-1.29361e-13 0.34251 12.3036)
(-1.54543e-13 1.95018 17.1992)
(-9.9364e-14 0.374366 13.7684)
(-9.03922e-14 -0.0779407 14.2839)
(-9.16396e-14 0.067706 14.181)
(-9.61903e-14 -0.12201 14.3629)
(-1.13026e-13 -0.161533 14.9368)
(-1.3084e-13 -0.340606 15.4062)
(-1.30403e-13 -0.415298 14.9914)
(-1.246e-13 -0.667868 14.5442)
(-1.16388e-13 -0.884822 13.8436)
(-8.76256e-14 -0.217874 19.4246)
(-1.48885e-13 -1.73647 16.5306)
(-1.4832e-13 -1.85276 16.9771)
(-1.61232e-13 -2.00265 17.1376)
(-1.74864e-13 -2.23333 17.3188)
(-2.00476e-13 -2.33867 17.5681)
(-2.38629e-13 -2.6288 18.7549)
(-2.54313e-13 -2.69433 19.3312)
(-2.46442e-13 -2.81367 19.4535)
(-1.72044e-13 -1.23859 21.4141)
(-1.93925e-13 -3.45029 19.2334)
(-1.84544e-13 -3.07454 20.0833)
(-1.95751e-13 -3.31659 21.0873)
(-2.08546e-13 -3.15671 21.3598)
(-2.1405e-13 -3.26398 21.8038)
(-2.18466e-13 -3.33269 22.2989)
(-2.14552e-13 -3.30832 23.0218)
(-2.00642e-13 -3.43069 24.4949)
(-1.68181e-13 -0.182825 24.2157)
(-1.53244e-13 -3.6874 22.4202)
(-1.54509e-13 -2.87555 22.6763)
(-1.58452e-13 -3.05204 23.1497)
(-1.61935e-13 -2.93616 23.8997)
(-1.69024e-13 -2.9157 24.3052)
(-1.76486e-13 -2.87632 24.655)
(-1.83582e-13 -2.90914 25.2236)
(-1.88355e-13 -2.44474 26.1339)
(-1.2726e-13 0.844307 25.6607)
(-1.06455e-13 -3.1263 23.6978)
(-1.00903e-13 -1.76004 23.5648)
(-1.00654e-13 -2.09868 23.9463)
(-1.01192e-13 -1.80982 24.2041)
(-1.054e-13 -1.70628 24.6525)
(-1.13904e-13 -1.71189 25.6329)
(-1.16181e-13 -1.39298 25.601)
(-1.2154e-13 -1.65233 26.0135)
(-1.35621e-13 -0.762533 27.1957)
(-9.06449e-14 4.46989 24.9425)
(-7.8404e-14 -1.65726 20.7222)
(-6.18986e-14 0.455082 19.0531)
(-6.41533e-14 -0.0934448 18.5647)
(-6.6832e-14 0.621243 17.6212)
(-7.53683e-14 0.620478 16.6176)
(-1.01842e-13 1.29532 15.5625)
(-1.40816e-13 1.14339 15.6345)
(-1.69542e-13 1.86701 19.5834)
(-2.16942e-13 9.14698 20.881)
(-1.07857e-13 0.565151 13.4677)
(-8.60345e-14 2.79816 9.53881)
(2.51097e-14 3.30853 -3.73073)
(1.12278e-13 1.36744 -11.4211)
(4.32381e-14 3.64286 -11.5255)
(6.87273e-15 1.52959 -5.98756)
(-8.68231e-14 4.72619 -8.30687)
(-7.30465e-14 2.70191 -5.80166)
(-8.63747e-14 3.92629 -6.96046)
(-9.88534e-14 4.95479 -8.41726)
(-5.65303e-14 3.77306 -6.0077)
(-5.0455e-14 5.75041 -7.9808)
(-4.03054e-14 8.41575 -11.0058)
(-2.42932e-14 6.31019 -7.57664)
(-2.70377e-14 11.9888 -11.4422)
(-1.86071e-14 9.75831 -8.1569)
(-2.92015e-14 12.4723 -10.458)
(-2.9311e-14 16.7583 -11.7881)
(-1.86317e-14 13.1737 -7.38637)
(-3.11259e-14 21.1763 -9.75277)
(-2.35905e-14 16.7075 -6.41107)
(-3.0651e-14 20.305 -7.66776)
(-3.77818e-14 23.9084 -7.73684)
(-2.76602e-14 19.4643 -4.62515)
(-3.28935e-14 24.5795 -5.41416)
(-4.3403e-14 28.4175 -5.26911)
(-2.88196e-14 21.127 -3.15244)
(-3.8025e-14 31.751 -4.10904)
(-2.67189e-14 24.2156 -2.57473)
(-3.22699e-14 27.9723 -3.18332)
(-4.0418e-14 32.4019 -3.05528)
(-2.63697e-14 24.1276 -1.80463)
(-3.28522e-14 35.7763 -2.53022)
(-2.31909e-14 26.94 -1.55063)
(-2.56725e-14 31.2677 -2.13471)
(-3.44549e-14 34.7631 -2.084)
(-2.46684e-14 27.2572 -1.15003)
(-2.79422e-14 33.7991 -1.6168)
(-3.1927e-14 37.6656 -1.51661)
(-2.29602e-14 27.3847 -0.912362)
(-3.0566e-14 40.4469 -1.54916)
(-2.19085e-14 30.4079 -0.938347)
(-2.62726e-14 34.7717 -1.47601)
(-2.71082e-14 39.5866 -1.41735)
(-1.70467e-14 29.1668 -0.844549)
(-2.39793e-14 42.9922 -1.4791)
(-1.74553e-14 32.1348 -0.883676)
(-1.97752e-14 37.1095 -1.48061)
(-2.43066e-14 40.9419 -1.45887)
(-1.69412e-14 31.8636 -0.769684)
(-1.99745e-14 39.5001 -1.24901)
(-2.24e-14 43.7677 -1.12817)
(-1.50806e-14 31.6196 -0.681867)
(-1.82454e-14 46.671 -1.31144)
(-1.28884e-14 34.9627 -0.774806)
(-1.45777e-14 39.9152 -1.33306)
(-2.01548e-14 45.2651 -1.21931)
(-1.32717e-14 33.2067 -0.717836)
(-1.83356e-14 48.9524 -1.33692)
(-1.32854e-14 36.4839 -0.770758)
(-1.52758e-14 42.0665 -1.3825)
(-1.64842e-14 46.2949 -1.30896)
(-1.08105e-14 35.8667 -0.654533)
(-1.37794e-14 44.5045 -1.13679)
(-1.24026e-14 49.2055 -0.961228)
(-7.17053e-15 35.3891 -0.566366)
(-8.96075e-15 52.2474 -1.21248)
(-6.79778e-15 39.0618 -0.699634)
(-7.97875e-15 44.557 -1.29419)
(-9.7932e-15 50.448 -1.20483)
(-6.58381e-15 36.8934 -0.70929)
(-8.37605e-15 54.4298 -1.43745)
(-5.79473e-15 40.523 -0.845472)
(-6.87203e-15 46.6926 -1.56749)
(-5.95915e-15 51.4105 -1.65281)
(-4.02005e-15 39.7518 -0.891897)
(-4.6241e-15 49.3387 -1.53545)
(-4.96672e-15 54.7596 -1.64923)
(-3.08171e-15 39.2338 -1.02699)
(-3.93092e-15 58.4508 -2.12527)
(-2.73352e-15 43.0917 -1.34831)
(-3.26778e-15 51.5483 -2.58898)
(4.30603e-36 6.96647 7.95445)
(2.69886e-36 8.39358 8.19304)
(-8.68693e-35 8.97643 8.50865)
(-5.55837e-34 9.66331 9.02628)
(-2.19589e-33 10.1383 9.73957)
(-6.683e-33 10.4703 10.6833)
(-1.69248e-32 10.6016 11.7871)
(-3.7395e-32 10.5911 12.9247)
(-7.5044e-32 10.5083 13.9241)
(-1.41773e-31 10.4171 14.6625)
(-2.58642e-31 10.3143 15.1004)
(-4.59003e-31 10.1484 15.255)
(-7.83405e-31 9.85229 15.1508)
(-1.26174e-30 9.37097 14.8083)
(-1.90368e-30 8.67415 14.2576)
(-2.7337e-30 7.70386 13.5594)
(-3.70673e-30 6.1254 12.6168)
(-4.03002e-30 2.83717 10.5194)
(-2.28032e-30 -2.41658 6.66065)
(-7.93925e-31 -5.60824 5.09027)
(-2.34525e-31 -8.11634 4.40269)
(-6.09061e-32 -10.163 3.85632)
(-2.57599e-32 -12.248 3.41437)
(-1.53718e-32 -14.4382 2.99302)
(-9.12055e-33 -16.6727 2.55844)
(-5.18969e-33 -18.8381 2.09135)
(-2.60052e-33 -20.7661 1.55243)
(-1.18841e-33 -22.1173 0.921869)
(-6.693e-34 -23.66 0.306609)
(-4.55186e-34 -26.0745 -0.234007)
(-2.99396e-34 -28.8889 -0.264012)
(-1.71856e-34 -30.9503 -0.815354)
(-5.66999e-35 -32.7309 -0.965383)
(1.21801e-34 -34.4114 -1.54324)
(4.05606e-34 -35.8741 -1.67364)
(7.40988e-34 -36.324 -2.12649)
(2.88156e-34 -37.0335 -1.8869)
(-5.6675e-35 -41.4853 -2.19641)
(-2.04899e-34 -40.8155 -2.81661)
(8.74054e-33 -37.9404 -2.04855)
(-4.75741e-30 -41.0307 -1.66421)
(2.83082e-27 -45.6103 -1.2577)
(-2.23868e-24 -47.7209 -0.709167)
(8.48719e-21 -46.7543 0.393516)
(-2.66554e-19 -29.0439 1.53836)
(-9.84526e-18 12.3312 12.4693)
(-3.73249e-18 0.474902 17.8842)
(5.16342e-19 -10.4711 14.65)
(-1.31752e-18 -8.55447 9.46654)
(-7.82546e-19 -5.48985 2.80989)
(-8.22539e-19 -2.64771 -3.6536)
(-4.10883e-19 9.18862 -11.559)
(-1.12809e-19 18.9995 -20.4561)
(-6.60645e-22 22.7302 -28.9541)
(6.24946e-21 21.3413 -34.5117)
(-9.37497e-20 22.2341 -33.8871)
(-1.01513e-19 24.5969 -17.0263)
(-1.59519e-20 3.40368 -9.47553)
(1.36339e-21 -32.0726 -11.1125)
(1.74106e-22 -40.4067 -11.4799)
(-1.31785e-23 -40.8686 -11.3575)
(-2.10689e-24 -38.3849 -11.1754)
(1.74331e-25 -34.9946 -11.0117)
(-4.2618e-25 -31.4329 -10.8758)
(1.09722e-24 -27.6702 -10.7304)
(4.63921e-24 -23.0442 -10.4738)
(-5.16826e-23 -15.5712 -10.1319)
(2.1672e-22 -4.08689 -10.0631)
(-7.12085e-21 12.4514 -3.048)
(2.49107e-19 25.8107 -4.04986)
(-1.04385e-18 35.6079 -7.48609)
(-2.58754e-19 41.4187 -10.4933)
(1.19903e-17 44.7495 -12.251)
(-6.48109e-18 46.6721 -12.699)
(-1.5742e-16 47.6996 -12.0887)
(-3.82016e-16 48.2318 -10.7688)
(-4.25324e-16 48.6517 -9.03728)
(-4.85455e-16 49.4221 -6.99198)
(1.76452e-16 50.8323 -5.86006)
(2.555e-36 6.92337 8.43385)
(-9.77844e-36 8.30529 8.701)
(-1.56514e-34 8.84145 9.08638)
(-8.47593e-34 9.46745 9.73529)
(-3.1365e-33 9.87571 10.6192)
(-9.122e-33 10.1475 11.7613)
(-2.21367e-32 10.2495 13.0348)
(-4.66971e-32 10.2571 14.2599)
(-8.88209e-32 10.2388 15.2343)
(-1.57881e-31 10.2374 15.85)
(-2.71071e-31 10.2275 16.1043)
(-4.60019e-31 10.1477 16.0495)
(-7.73984e-31 9.93087 15.7341)
(-1.26655e-30 9.52189 15.1931)
(-1.96219e-30 8.88424 14.4605)
(-2.84913e-30 7.97215 13.6124)
(-3.90494e-30 6.58659 12.6902)
(-4.68445e-30 3.79456 11.0424)
(-3.37151e-30 -1.60649 7.14983)
(-8.16363e-31 -5.85811 4.6126)
(-1.75143e-31 -8.42839 4.17164)
(-6.29106e-32 -10.4977 3.71158)
(-2.48919e-32 -12.6392 3.26985)
(-1.51859e-32 -14.8414 2.88639)
(-9.03957e-33 -17.0665 2.48215)
(-5.1492e-33 -19.2041 2.04265)
(-2.58416e-33 -21.0814 1.53735)
(-1.18421e-33 -22.373 0.938208)
(-6.68699e-34 -23.8852 0.341124)
(-4.55241e-34 -26.3164 -0.194724)
(-2.99591e-34 -29.0714 -0.215689)
(-1.72152e-34 -31.0541 -0.753237)
(-5.71767e-35 -32.7677 -0.898551)
(1.20766e-34 -34.3867 -1.47176)
(4.0383e-34 -35.8019 -1.60368)
(7.40096e-34 -36.2313 -2.05821)
(2.9199e-34 -36.8993 -1.84344)
(-5.49609e-35 -41.2583 -2.15305)
(-2.28141e-34 -40.6569 -2.76125)
(1.82576e-32 -37.8236 -2.01337)
(-8.71749e-30 -40.8612 -1.64637)
(4.75565e-27 -45.4815 -1.2235)
(-3.79227e-24 -47.6139 -0.682057)
(1.86365e-20 -46.7553 0.597824)
(-5.15356e-19 -29.006 1.61487)
(-1.26879e-17 9.23374 12.0317)
(-8.56374e-18 0.748527 17.0796)
(6.46835e-19 -9.06489 13.8411)
(-1.34341e-18 -6.9041 8.25007)
(-8.10223e-19 -3.9052 1.36406)
(-7.70069e-19 0.513331 -6.43888)
(-2.90479e-19 11.9533 -14.7837)
(7.54544e-21 21.77 -24.2285)
(8.96052e-20 24.977 -33.4428)
(9.08422e-20 22.2202 -38.557)
(-1.9411e-20 19.5775 -38.8479)
(-9.66311e-20 20.8181 -20.8894)
(-1.69601e-20 1.88706 -9.77148)
(1.56459e-21 -31.5541 -11.3271)
(2.60607e-22 -40.4427 -11.7119)
(-1.52103e-23 -41.0153 -11.442)
(-3.39584e-24 -38.5602 -11.2032)
(1.67181e-25 -35.1789 -11.0118)
(-4.04606e-25 -31.628 -10.8488)
(1.01867e-24 -27.8906 -10.6665)
(5.05765e-24 -23.2904 -10.3223)
(-5.27772e-23 -15.7645 -9.88383)
(2.76232e-22 -5.00519 -9.05456)
(-1.22993e-20 11.5488 -0.852629)
(4.10542e-19 26.5503 -3.90017)
(-1.70101e-18 36.5734 -7.87262)
(-6.85534e-20 42.1091 -11.118)
(1.80828e-17 45.0396 -12.8962)
(-1.29846e-17 46.5951 -13.2382)
(-2.37684e-16 47.3506 -12.4637)
(-5.58241e-16 47.711 -10.9913)
(-6.18807e-16 48.0216 -9.14536)
(-6.12731e-16 48.7688 -7.0127)
(1.53652e-16 50.2045 -4.80324)
(-1.46217e-36 6.90212 8.75162)
(-3.38485e-35 8.25126 9.06109)
(-2.61472e-34 8.74538 9.51909)
(-1.21901e-33 9.32611 10.2866)
(-4.18411e-33 9.68956 11.3055)
(-1.1507e-32 9.93294 12.5712)
(-2.65429e-32 10.0395 13.9053)
(-5.31922e-32 10.0888 15.0989)
(-9.56965e-32 10.136 15.9582)
(-1.59818e-31 10.2027 16.4129)
(-2.56895e-31 10.2501 16.4945)
(-4.12401e-31 10.2146 16.273)
(-6.77631e-31 10.0322 15.805)
(-1.13155e-30 9.65007 15.1305)
(-1.84657e-30 9.02883 14.2798)
(-2.81563e-30 8.11602 13.3183)
(-3.91149e-30 6.74958 12.336)
(-4.79196e-30 4.13223 10.9209)
(-4.14986e-30 -1.05247 7.45819)
(-1.29531e-30 -5.42063 4.30042)
(-5.72745e-32 -8.16827 3.745)
(-6.16266e-32 -10.2718 3.49903)
(-2.50969e-32 -12.4167 3.06905)
(-1.48209e-32 -14.6212 2.71967)
(-8.94351e-33 -16.8431 2.36017)
(-5.10036e-33 -18.973 1.95768)
(-2.56406e-33 -20.837 1.49746)
(-1.17908e-33 -22.1208 0.944968)
(-6.67932e-34 -23.6552 0.37218)
(-4.55303e-34 -26.1806 -0.157899)
(-2.99814e-34 -28.9527 -0.160593)
(-1.72494e-34 -30.9311 -0.675438)
(-5.77312e-35 -32.6535 -0.811847)
(1.19555e-34 -34.2868 -1.3769)
(4.01738e-34 -35.7286 -1.51023)
(7.39032e-34 -36.2118 -1.96611)
(2.96511e-34 -36.9048 -1.77446)
(-5.28245e-35 -41.1759 -2.0881)
(-2.78379e-34 -40.7042 -2.69182)
(3.66789e-32 -38.0011 -1.96765)
(-1.56464e-29 -41.0014 -1.6196)
(7.55396e-27 -45.6495 -1.17885)
(-4.73392e-24 -47.8601 -0.657434)
(2.95492e-20 -47.1574 0.80248)
(-6.98017e-19 -30.3948 1.79172)
(-9.68995e-18 8.18678 12.4024)
(-1.10341e-17 0.393653 15.4274)
(1.03277e-18 -8.1105 12.5059)
(-1.48634e-18 -5.46691 6.33801)
(-9.53566e-19 -2.5969 -1.57755)
(-7.53724e-19 1.97839 -8.88723)
(-2.16197e-19 13.321 -17.0307)
(6.03765e-20 23.279 -26.7907)
(1.1228e-19 26.0549 -36.4543)
(1.07115e-19 22.5875 -41.4911)
(3.86364e-20 18.2275 -42.0107)
(-7.76361e-20 18.2771 -25.5591)
(-2.09537e-20 0.598399 -11.0601)
(1.69574e-21 -31.4177 -11.9458)
(3.8695e-22 -40.4398 -12.0528)
(-1.69623e-23 -41.0147 -11.5878)
(-5.43323e-24 -38.5373 -11.2527)
(1.37439e-25 -35.1373 -11.0164)
(-3.67033e-25 -31.5797 -10.808)
(9.107e-25 -27.8616 -10.5605)
(5.56932e-24 -23.298 -10.071)
(-5.47883e-23 -15.8939 -9.47713)
(3.5487e-22 -6.00882 -7.33125)
(-2.07045e-20 11.2663 0.341519)
(6.03627e-19 27.2756 -4.07007)
(-2.46367e-18 37.2291 -8.34119)
(3.22707e-19 42.5525 -11.7028)
(2.40842e-17 45.2333 -13.4498)
(-2.05342e-17 46.5769 -13.6867)
(-3.14924e-16 47.1883 -12.7783)
(-7.26145e-16 47.4707 -11.1846)
(-8.05178e-16 47.7351 -9.24975)
(-7.24226e-16 48.4211 -7.03346)
(1.47239e-16 49.767 -4.40027)
(-9.2118e-36 6.86194 9.11021)
(-7.37393e-35 8.16639 9.48511)
(-4.14037e-34 8.6044 10.034)
(-1.70979e-33 9.12734 10.9412)
(-5.45803e-33 9.43735 12.1065)
(-1.41643e-32 9.65159 13.489)
(-3.09554e-32 9.77055 14.8571)
(-5.87303e-32 9.87449 15.985)
(-9.954e-32 10.0016 16.7008)
(-1.55074e-31 10.1507 16.976)
(-2.2967e-31 10.2693 16.8723)
(-3.39014e-31 10.2922 16.474)
(-5.28683e-31 10.1585 15.8453)
(-8.98007e-31 9.81813 15.0325)
(-1.59474e-30 9.23011 14.0648)
(-2.70416e-30 8.33516 12.9929)
(-4.0132e-30 7.01018 11.9196)
(-4.93621e-30 4.63344 10.6446)
(-4.64e-30 -0.157759 7.74486)
(-2.19274e-30 -4.96962 4.22485)
(-1.16965e-32 -7.96266 3.25326)
(-2.98248e-32 -10.1322 3.19235)
(-2.85847e-32 -12.2419 2.83919)
(-1.43633e-32 -14.4367 2.51203)
(-8.82792e-33 -16.6508 2.20146)
(-5.0521e-33 -18.7706 1.84096)
(-2.54416e-33 -20.6281 1.42867)
(-1.17417e-33 -21.9142 0.937768)
(-6.67013e-34 -23.4517 0.405812)
(-4.55371e-34 -26.0295 -0.119279)
(-3.00039e-34 -28.8198 -0.105546)
(-1.72828e-34 -30.7989 -0.592574)
(-5.82716e-35 -32.5338 -0.717006)
(1.1837e-34 -34.185 -1.27134)
(3.99678e-34 -35.6553 -1.40513)
(7.37969e-34 -36.1882 -1.86224)
(3.00956e-34 -36.9097 -1.6906)
(-5.05236e-35 -41.1131 -2.00957)
(-3.75085e-34 -40.7528 -2.61529)
(6.87845e-32 -38.1654 -1.91845)
(-2.63277e-29 -41.1405 -1.58997)
(1.08735e-26 -45.8175 -1.13245)
(7.30829e-24 -48.1144 -0.644103)
(3.35317e-20 -47.5454 0.941075)
(-7.30118e-19 -31.8116 1.9455)
(-4.06376e-18 6.64502 12.0327)
(-1.01241e-18 0.55337 13.4246)
(9.85622e-19 -7.24643 10.6855)
(-1.79304e-18 -3.95875 4.01524)
(-1.23544e-18 -0.96347 -4.41842)
(-7.54052e-19 3.75431 -11.13)
(-1.39937e-19 15.2833 -19.5062)
(1.07345e-19 25.4134 -29.8131)
(1.25107e-19 27.6925 -40.1504)
(1.05698e-19 23.193 -45.4019)
(7.71464e-20 16.5098 -45.8256)
(-4.83869e-20 14.9383 -30.5101)
(-2.44468e-20 -0.897154 -13.0761)
(1.5885e-21 -31.3429 -12.9316)
(5.45345e-22 -40.5365 -12.5127)
(-1.61206e-23 -41.0964 -11.793)
(-8.26768e-24 -38.5941 -11.3372)
(5.61387e-26 -35.1783 -11.045)
(-3.16154e-25 -31.6221 -10.7677)
(8.38922e-25 -27.9343 -10.411)
(5.83683e-24 -23.4157 -9.70806)
(-5.61777e-23 -16.2417 -8.81086)
(4.06197e-22 -6.98716 -5.27067)
(-3.23157e-20 11.0318 1.31967)
(8.39195e-19 28.2166 -4.27378)
(-3.47266e-18 38.0583 -8.92525)
(1.07256e-18 43.0891 -12.423)
(3.14347e-17 45.4285 -14.1316)
(-3.17306e-17 46.4831 -14.2403)
(-4.11497e-16 46.8962 -13.17)
(-9.33293e-16 47.068 -11.4296)
(-1.03543e-15 47.267 -9.38015)
(-8.66172e-16 47.9165 -7.07757)
(1.48936e-16 49.1901 -5.02102)
(-2.26963e-35 6.81738 9.47257)
(-1.3647e-34 8.07167 9.93633)
(-6.28609e-34 8.44616 10.5928)
(-2.33444e-33 8.90998 11.652)
(-6.9242e-33 9.17323 12.9567)
(-1.68789e-32 9.37574 14.4209)
(-3.47637e-32 9.53035 15.7665)
(-6.21243e-32 9.70935 16.7699)
(-9.86973e-32 9.92699 17.2983)
(-1.42322e-31 10.1592 17.3695)
(-1.90313e-31 10.3435 17.0712)
(-2.45818e-31 10.4159 16.4968)
(-3.38079e-31 10.3201 15.715)
(-5.66812e-31 10.0093 14.777)
(-1.15489e-30 9.44371 13.7121)
(-2.3851e-30 8.55721 12.5569)
(-4.16244e-30 7.2386 11.394)
(-5.43299e-30 4.99645 10.1586)
(-4.97593e-30 0.54265 7.75385)
(-3.13934e-30 -4.56676 4.26868)
(-2.83345e-31 -7.83284 2.80218)
(6.59882e-32 -10.1259 2.77489)
(-3.54972e-32 -12.2002 2.5599)
(-1.42114e-32 -14.3894 2.26169)
(-8.68204e-33 -16.6044 1.99769)
(-5.00418e-33 -18.715 1.68556)
(-2.52531e-33 -20.5638 1.32466)
(-1.16956e-33 -21.8431 0.909451)
(-6.66216e-34 -23.3726 0.440272)
(-4.5548e-34 -25.9898 -0.0775985)
(-3.00275e-34 -28.789 -0.0524699)
(-1.7315e-34 -30.753 -0.505471)
(-5.87811e-35 -32.482 -0.613634)
(1.17258e-34 -34.1317 -1.15367)
(3.97738e-34 -35.61 -1.28548)
(7.36952e-34 -36.1704 -1.74309)
(3.05123e-34 -36.902 -1.59033)
(-4.80821e-35 -41.0353 -1.91512)
(-5.3161e-34 -40.7646 -2.5254)
(1.14326e-31 -38.2669 -1.86032)
(-3.8425e-29 -41.2146 -1.55445)
(7.91878e-27 -45.9194 -1.08201)
(3.68701e-23 -48.2995 -0.635994)
(3.34228e-20 -47.8355 1.02459)
(-7.07291e-19 -32.9479 2.00634)
(-2.14769e-18 5.60838 11.2134)
(1.95325e-18 0.937733 10.9577)
(7.68596e-19 -6.30144 8.446)
(-1.99814e-18 -2.42399 1.2629)
(-1.50476e-18 0.494649 -6.63989)
(-7.48878e-19 5.32911 -13.3236)
(-7.51597e-20 17.1653 -22.1575)
(1.30919e-19 27.4865 -33.0859)
(1.13221e-19 29.2548 -44.1761)
(7.92821e-20 23.725 -49.7023)
(8.92658e-20 15.1002 -49.731)
(-1.54685e-20 11.7198 -35.7171)
(-2.5849e-20 -2.90806 -15.7662)
(1.16611e-21 -31.4208 -14.2011)
(7.2417e-22 -40.7339 -13.0966)
(-1.02992e-23 -41.2376 -12.0662)
(-1.20284e-23 -38.6923 -11.4722)
(-1.23452e-25 -35.2574 -11.0957)
(-2.60014e-25 -31.7126 -10.6994)
(8.75569e-25 -28.0763 -10.167)
(5.64786e-24 -23.6318 -9.1663)
(-5.31065e-23 -16.7813 -7.80851)
(2.74587e-22 -8.02935 -2.99648)
(-4.49248e-20 11.1092 1.95381)
(1.09656e-18 29.2721 -4.58413)
(-4.73791e-18 38.8988 -9.6218)
(2.35439e-18 43.604 -13.2308)
(3.98241e-17 45.6002 -14.881)
(-4.73579e-17 46.3775 -14.8448)
(-5.24946e-16 46.6099 -13.6001)
(-1.17487e-15 46.6903 -11.7026)
(-1.30714e-15 46.839 -9.5281)
(-1.03617e-15 47.4394 -7.1212)
(1.47658e-16 48.6329 -4.06471)
(-4.46839e-35 6.7593 9.8525)
(-2.30476e-34 7.9541 10.4309)
(-9.18948e-34 8.25697 11.2104)
(-3.09663e-33 8.66023 12.4279)
(-8.5178e-33 8.88481 13.8529)
(-1.94098e-32 9.09312 15.3523)
(-3.74749e-32 9.30328 16.6153)
(-6.27831e-32 9.57151 17.4427)
(-9.31526e-32 9.88505 17.7532)
(-1.23737e-31 10.1996 17.6088)
(-1.46524e-31 10.447 17.1157)
(-1.52209e-31 10.5659 16.3722)
(-1.45014e-31 10.5047 15.4495)
(-1.9515e-31 10.2201 14.4012)
(-5.55587e-31 9.67466 13.2587)
(-1.74981e-30 8.79903 12.0515)
(-4.13826e-30 7.48635 10.8309)
(-6.49136e-30 5.34141 9.58044)
(-5.90625e-30 1.18525 7.50843)
(-3.62331e-30 -4.1457 4.29578)
(-1.10878e-30 -7.64985 2.46928)
(2.32217e-31 -10.1221 2.27045)
(-4.14712e-32 -12.1803 2.21043)
(-1.47715e-32 -14.3571 1.96637)
(-8.51182e-33 -16.5758 1.74663)
(-4.95701e-33 -18.6777 1.48787)
(-2.50873e-33 -20.5171 1.18349)
(-1.16486e-33 -21.7844 0.854499)
(-6.66273e-34 -23.3007 0.467351)
(-4.557e-34 -25.9639 -0.0373032)
(-3.00545e-34 -28.776 -0.00415945)
(-1.73472e-34 -30.7201 -0.415727)
(-5.92639e-35 -32.4369 -0.502656)
(1.16222e-34 -34.0793 -1.02422)
(3.95938e-34 -35.5607 -1.15112)
(7.35999e-34 -36.1443 -1.60785)
(3.08944e-34 -36.8826 -1.47232)
(-4.54661e-35 -40.943 -1.80397)
(-7.65873e-34 -40.7607 -2.42107)
(1.77887e-31 -38.3528 -1.79113)
(-5.18037e-29 -41.275 -1.51083)
(-1.33776e-27 -46.0079 -1.02667)
(7.19235e-23 -48.4757 -0.629932)
(3.17307e-20 -48.1084 1.06436)
(-6.77134e-19 -33.9857 1.97607)
(-1.8268e-18 4.84757 10.3396)
(2.87095e-18 1.54974 8.45126)
(6.9731e-19 -5.34462 5.94517)
(-1.8081e-18 -0.913981 -1.9049)
(-1.62293e-18 1.95536 -8.63906)
(-7.25027e-19 7.01946 -15.599)
(-2.34561e-20 19.2368 -25.1049)
(1.31574e-19 29.7847 -36.7573)
(8.10796e-20 30.9958 -48.6689)
(3.7262e-20 24.261 -54.5371)
(7.17586e-20 13.6676 -53.9668)
(1.27034e-20 8.2883 -41.0814)
(-2.44122e-20 -5.33007 -19.0067)
(4.40645e-22 -31.7475 -15.6857)
(9.01673e-22 -41.0348 -13.8019)
(2.67421e-24 -41.4117 -12.4201)
(-1.67315e-23 -38.7994 -11.6472)
(-4.61062e-25 -35.3445 -11.1187)
(-2.0838e-25 -31.8207 -10.5298)
(1.05755e-24 -28.2541 -9.75334)
(5.15043e-24 -23.9174 -8.38756)