/*--------------------------------*- C++ -*----------------------------------*\
| =========                 |                                                 |
| \\      /  F ield         | OpenFOAM: The Open Source CFD Toolbox           |
|  \\    /   O peration     | Version:  4.1                                   |
|   \\  /    A nd           | Web:      www.OpenFOAM.org                      |
|    \\/     M anipulation  |                                                 |
\*---------------------------------------------------------------------------*/
FoamFile
{
    version     2.0;
    format      ascii;
    class       volSymmTensorField;
    location    "30";
    object      turbulenceProperties:R;
}
// * * * * * * * * * * * * * * * * * * * * * * * * * * * * * * * * * * * * * //

dimensions      [0 2 -2 0 0 0 0];

internalField   nonuniform List<symmTensor> 
6785
(
(0.753313 1.49262e-19 7.7345e-20 0.753188 0.00016736 0.753499)
(0.753354 -1.14584e-19 -5.71448e-20 0.75332 6.78018e-06 0.753325)
(0.753325 -3.81415e-20 -2.82716e-20 0.75336 3.87235e-05 0.753315)
(0.753334 2.11486e-20 1.12132e-20 0.753345 2.661e-05 0.753321)
(0.753332 -2.72376e-20 -7.4673e-21 0.753347 2.71274e-05 0.753322)
(0.753333 1.40422e-20 -1.94421e-21 0.753343 2.41097e-05 0.753324)
(0.753332 2.1421e-21 7.16681e-21 0.753342 2.23652e-05 0.753326)
(0.753333 -2.18614e-20 -4.46392e-21 0.753339 2.05211e-05 0.753328)
(0.753333 6.0188e-21 -4.88758e-21 0.753337 1.90759e-05 0.75333)
(0.753333 2.53724e-21 5.41473e-21 0.753334 1.82853e-05 0.753333)
(0.753332 -1.29361e-20 -2.53891e-21 0.753331 1.78052e-05 0.753337)
(0.753334 4.56295e-21 -1.18795e-21 0.753325 1.30232e-05 0.753341)
(0.753334 1.96555e-21 5.87208e-21 0.753325 5.47267e-06 0.753341)
(0.753318 -6.22959e-21 9.77177e-22 0.753358 7.85947e-06 0.753324)
(0.753346 2.67819e-21 -2.5407e-21 0.753392 -7.93373e-05 0.753262)
(0.75333 1.94993e-19 1.18215e-19 0.753005 0.000221674 0.753666)
(0.753351 -1.37732e-19 -7.98389e-20 0.75334 -1.53873e-05 0.753309)
(0.753325 -5.37459e-20 -3.17428e-20 0.753378 1.18683e-05 0.753297)
(0.753341 1.21812e-20 2.80669e-20 0.753352 -5.97347e-06 0.753307)
(0.753333 -1.93718e-20 -1.09287e-20 0.753362 1.38559e-06 0.753305)
(0.753336 6.09905e-21 2.41412e-21 0.753356 -2.42925e-06 0.753309)
(0.753334 -7.1802e-21 7.13736e-21 0.753356 -1.76341e-06 0.75331)
(0.753335 -1.06573e-20 -5.70203e-21 0.753353 -2.61682e-06 0.753312)
(0.753334 2.23115e-22 -7.45599e-22 0.753352 -3.26359e-06 0.753313)
(0.753334 -6.17802e-21 7.19578e-21 0.753354 -5.90576e-06 0.753312)
(0.753334 -5.94174e-21 -2.96123e-21 0.753361 -1.26966e-05 0.753305)
(0.753334 -1.96595e-21 -1.28148e-21 0.753375 -2.64954e-05 0.753291)
(0.753334 -2.67011e-22 2.81993e-21 0.753387 -4.48562e-05 0.753279)
(0.753333 1.37278e-21 -6.01307e-22 0.753372 -4.98332e-05 0.753295)
(0.753332 6.37831e-21 4.23953e-21 0.753318 -1.0418e-05 0.75335)
(0.753329 2.13639e-19 6.17236e-20 0.752963 0.000224606 0.753708)
(0.753339 -1.36773e-19 -7.85901e-20 0.753348 -1.63541e-05 0.753313)
(0.753325 -4.13161e-20 -2.47296e-20 0.75337 -1.51432e-06 0.753305)
(0.753338 3.66957e-20 -2.40371e-20 0.753349 -1.6618e-05 0.753313)
(0.753329 -2.35005e-20 -1.99225e-20 0.75336 -6.69892e-06 0.75331)
(0.753334 9.44586e-21 4.96783e-21 0.753352 -1.22854e-05 0.753314)
(0.753332 8.73654e-21 -3.82056e-20 0.753354 -9.27963e-06 0.753314)
(0.753333 -9.51039e-21 -6.07098e-21 0.75335 -1.04511e-05 0.753317)
(0.753333 7.92429e-21 4.05999e-21 0.75335 -9.92682e-06 0.753317)
(0.753333 6.6867e-21 -2.91508e-20 0.753353 -1.25248e-05 0.753314)
(0.753333 -1.22754e-20 -2.734e-21 0.753365 -1.96081e-05 0.753302)
(0.753333 2.07951e-20 1.15092e-20 0.753396 -3.6259e-05 0.753271)
(0.753332 1.36523e-20 3.02867e-21 0.753443 -6.00511e-05 0.753225)
(0.753341 -2.61863e-20 -1.28734e-20 0.753387 -4.45544e-05 0.753271)
(0.753329 -4.76858e-21 -1.51377e-21 0.753252 5.59538e-05 0.753419)
(0.753332 1.87379e-19 1.29954e-19 0.752958 0.000215374 0.75371)
(0.753337 -1.14694e-19 -1.02119e-19 0.753345 -1.40471e-05 0.753318)
(0.753328 -6.19529e-20 -2.07304e-20 0.753367 -1.0632e-05 0.753305)
(0.753338 1.73535e-20 1.11943e-20 0.753349 -2.05822e-05 0.753313)
(0.75333 -3.79671e-21 -3.43345e-20 0.753359 -9.9468e-06 0.753311)
(0.753335 2.31337e-21 4.12602e-21 0.75335 -1.66929e-05 0.753314)
(0.753332 -2.40071e-21 -1.28108e-21 0.753353 -1.25969e-05 0.753314)
(0.753334 2.02362e-21 -2.24726e-20 0.75335 -1.40205e-05 0.753316)
(0.753333 3.0473e-21 1.09234e-20 0.75335 -1.26587e-05 0.753316)
(0.753334 1.54136e-21 1.90933e-21 0.753351 -1.32996e-05 0.753316)
(0.753333 -9.59633e-22 -1.71424e-20 0.753356 -1.52761e-05 0.75331)
(0.753334 -2.74842e-21 5.10347e-21 0.75337 -2.04689e-05 0.753297)
(0.753333 6.68602e-21 3.86208e-21 0.753386 -2.03863e-05 0.753281)
(0.753338 -1.49764e-20 -8.45206e-21 0.7534 -2.51147e-05 0.753262)
(0.75333 7.45353e-21 1.13485e-20 0.753356 6.67198e-06 0.753314)
(0.753333 2.09613e-19 9.86403e-20 0.752969 0.000207553 0.753699)
(0.753336 -1.15038e-19 -1.01466e-19 0.75334 -1.10567e-05 0.753324)
(0.75333 -5.65411e-20 -4.40191e-20 0.753368 -1.56118e-05 0.753302)
(0.753337 2.15999e-20 2.63626e-22 0.753352 -2.14852e-05 0.753311)
(0.75333 -9.72541e-22 -2.38106e-20 0.753359 -1.21749e-05 0.75331)
(0.753335 1.22755e-20 -1.23627e-20 0.753352 -1.86474e-05 0.753313)
(0.753332 -1.75863e-21 -1.07686e-20 0.753354 -1.4012e-05 0.753313)
(0.753334 -2.91999e-21 -2.48447e-20 0.75335 -1.50402e-05 0.753316)
(0.753333 5.30201e-21 -4.3059e-21 0.753349 -1.34267e-05 0.753318)
(0.753333 7.33938e-23 -5.68241e-21 0.753349 -1.34145e-05 0.753318)
(0.753333 -4.42611e-21 -1.45129e-20 0.753352 -1.30438e-05 0.753315)
(0.753333 4.77615e-21 -8.19045e-21 0.753357 -1.31841e-05 0.75331)
(0.753333 -1.70086e-21 -5.05763e-21 0.753366 -1.17114e-05 0.753302)
(0.753335 -3.19136e-20 -2.1079e-20 0.753388 -2.40017e-05 0.753277)
(0.75333 5.69979e-20 3.48764e-20 0.753395 -1.55134e-05 0.753275)
(0.753333 2.04001e-19 1.26769e-19 0.752983 0.000201853 0.753684)
(0.753334 -1.43264e-19 -6.74346e-20 0.753343 -9.87256e-06 0.753323)
(0.753331 -7.2481e-20 -1.13202e-20 0.753368 -1.6276e-05 0.753301)
(0.753336 8.27464e-21 5.42116e-21 0.753356 -1.99245e-05 0.753308)
(0.753331 -1.0074e-20 4.62868e-21 0.753362 -1.21873e-05 0.753307)
(0.753335 -4.95262e-21 1.80281e-20 0.753356 -1.8383e-05 0.753308)
(0.753332 -1.08444e-20 -4.83059e-21 0.753359 -1.4573e-05 0.753309)
(0.753334 -9.82358e-22 8.41603e-21 0.753353 -1.85726e-05 0.753313)
(0.753333 -2.59395e-21 1.06788e-20 0.753348 -1.67462e-05 0.753319)
(0.753333 -1.35485e-20 -8.03327e-21 0.75334 -1.51776e-05 0.753326)
(0.753333 -5.09699e-21 3.19265e-21 0.753336 -1.05682e-05 0.753331)
(0.753333 -1.00182e-20 7.21317e-21 0.753335 -5.02758e-06 0.753331)
(0.753334 -1.8259e-20 -8.1456e-21 0.753342 -1.15621e-06 0.753324)
(0.753334 -1.62409e-20 -2.18495e-21 0.753367 -8.77811e-06 0.753299)
(0.753333 3.38651e-20 1.86072e-20 0.753452 -5.1637e-05 0.753215)
(0.753333 1.89641e-19 1.30856e-19 0.752982 0.000207811 0.753685)
(0.753335 -1.42507e-19 -6.58031e-20 0.75335 -8.87843e-06 0.753315)
(0.753331 -6.46109e-20 -3.14266e-21 0.753366 -1.07356e-05 0.753303)
(0.753335 3.58805e-21 3.08431e-21 0.753359 -1.41249e-05 0.753306)
(0.753331 -1.29942e-20 5.81697e-21 0.753364 -8.10145e-06 0.753305)
(0.753335 -1.30737e-20 1.52491e-20 0.753365 -1.50089e-05 0.7533)
(0.753332 3.42336e-21 3.41288e-21 0.753378 -1.8797e-05 0.75329)
(0.753334 1.4103e-20 1.26531e-20 0.753382 -2.72742e-05 0.753285)
(0.753333 -1.45752e-20 1.72576e-21 0.753373 -2.52286e-05 0.753294)
(0.753334 -2.14332e-20 -1.30467e-20 0.753349 -1.70002e-05 0.753318)
(0.753333 -1.56834e-20 -4.56942e-21 0.753319 -3.67665e-06 0.753348)
(0.753333 -2.51659e-20 -3.99853e-21 0.753294 6.90568e-06 0.753372)
(0.753334 -1.87185e-20 -1.14423e-20 0.753293 7.19313e-06 0.753373)
(0.753331 2.13007e-20 3.58563e-21 0.753336 -4.83931e-06 0.753333)
(0.753334 3.65887e-20 2.34899e-20 0.75349 -9.13284e-05 0.753176)
(0.753332 1.90805e-19 9.97208e-20 0.752953 0.00022215 0.753715)
(0.753336 -1.34005e-19 -7.81552e-20 0.753352 -5.97396e-06 0.753312)
(0.753331 -3.2767e-20 -4.08016e-20 0.753368 -8.50673e-06 0.7533)
(0.753335 4.35052e-21 3.43151e-21 0.753356 -9.64132e-06 0.753309)
(0.753332 -9.0977e-21 -4.53028e-21 0.75336 -5.06773e-06 0.753308)
(0.753334 -1.70267e-21 -1.12e-20 0.753363 -1.13931e-05 0.753302)
(0.753332 6.59204e-21 4.37322e-21 0.753381 -1.65821e-05 0.753287)
(0.753334 1.83602e-20 1.22472e-20 0.753393 -2.49191e-05 0.753273)
(0.753333 2.19524e-21 -3.65965e-21 0.753396 -2.43457e-05 0.753272)
(0.753333 -1.22077e-20 -7.52694e-21 0.753387 -2.27204e-05 0.75328)
(0.753333 -4.90516e-21 -4.58742e-21 0.753372 -1.9441e-05 0.753296)
(0.753333 -3.99159e-21 -8.15018e-21 0.753338 -1.16926e-05 0.753329)
(0.753333 -2.32146e-21 -7.99084e-21 0.753295 3.02777e-08 0.753371)
(0.75333 4.15057e-21 -4.37099e-21 0.753289 1.66982e-06 0.753381)
(0.753335 -3.95699e-21 -5.76645e-21 0.753393 -6.20306e-05 0.753271)
(0.753332 1.83825e-19 1.09846e-19 0.752934 0.00022202 0.753734)
(0.753336 -1.11049e-19 -6.88983e-20 0.753324 6.50038e-06 0.75334)
(0.753332 -4.38814e-20 -7.1682e-20 0.753377 -1.56775e-05 0.753292)
(0.753335 -5.70112e-21 -3.32504e-21 0.753357 -1.36233e-05 0.753309)
(0.753332 -1.29739e-21 -7.72092e-22 0.753355 -7.81268e-06 0.753313)
(0.753334 8.93541e-21 -1.95705e-20 0.753354 -1.20818e-05 0.753312)
(0.753333 -5.49963e-21 -4.66329e-21 0.753365 -1.37262e-05 0.753302)
(0.753334 1.72998e-20 1.07508e-20 0.753377 -1.98505e-05 0.753289)
(0.753333 1.86791e-20 -9.89138e-21 0.753388 -2.0657e-05 0.753279)
(0.753334 -4.74641e-21 -3.38433e-21 0.753392 -2.18882e-05 0.753275)
(0.753334 1.74345e-20 9.37277e-21 0.753396 -2.38091e-05 0.75327)
(0.753334 8.30037e-21 -6.3042e-22 0.753399 -2.73218e-05 0.753267)
(0.753333 -5.91816e-21 -6.22919e-21 0.753386 -2.46793e-05 0.753281)
(0.753337 1.89965e-21 -1.03063e-21 0.753333 -1.42632e-05 0.75333)
(0.753333 -4.17385e-20 -1.61942e-20 0.753268 1.85651e-05 0.753398)
(0.753333 2.03602e-19 8.90514e-20 0.752961 0.000199858 0.753706)
(0.753335 -7.91015e-20 -4.97799e-20 0.753282 2.50702e-05 0.753384)
(0.753332 -6.87736e-20 -6.52557e-20 0.753375 -2.06157e-05 0.753293)
(0.753335 -6.16412e-21 -3.86136e-20 0.753365 -2.26422e-05 0.7533)
(0.753332 -2.00577e-21 -1.77131e-21 0.753356 -1.49731e-05 0.753311)
(0.753334 1.36911e-20 -1.37321e-20 0.753351 -1.613e-05 0.753315)
(0.753333 5.93118e-21 -2.19613e-20 0.753354 -1.53133e-05 0.753313)
(0.753334 1.5739e-21 -2.94401e-23 0.753359 -1.75983e-05 0.753308)
(0.753333 1.91259e-20 -8.19567e-22 0.753365 -1.74643e-05 0.753301)
(0.753334 7.91293e-21 -1.21036e-20 0.75337 -1.76191e-05 0.753296)
(0.753333 4.53323e-21 2.55216e-21 0.753377 -1.71996e-05 0.75329)
(0.753334 1.47789e-20 6.1667e-21 0.753384 -1.83349e-05 0.753283)
(0.753332 2.53744e-21 -2.83452e-21 0.753395 -1.65477e-05 0.753273)
(0.753339 -4.76134e-20 -2.39936e-20 0.753395 -3.24532e-05 0.753266)
(0.75333 8.79463e-21 1.69357e-20 0.753314 2.02823e-05 0.753356)
(0.753334 1.92699e-19 1.03174e-19 0.753002 0.00017903 0.753664)
(0.753333 -6.11368e-20 -1.63577e-20 0.753256 4.02236e-05 0.753411)
(0.753333 -5.41047e-20 -1.02072e-19 0.753369 -2.14896e-05 0.753298)
(0.753334 -3.27023e-20 -1.89205e-20 0.753372 -2.70388e-05 0.753294)
(0.753333 -1.19941e-20 5.28263e-21 0.75336 -1.85901e-05 0.753307)
(0.753334 2.90252e-20 -3.82569e-20 0.753353 -1.7224e-05 0.753313)
(0.753333 -2.92838e-22 -2.15777e-22 0.753353 -1.57088e-05 0.753314)
(0.753333 -8.54582e-21 4.29705e-21 0.753354 -1.63947e-05 0.753313)
(0.753333 1.54348e-20 -2.4499e-20 0.753356 -1.6038e-05 0.753311)
(0.753333 5.11769e-21 4.7045e-21 0.753359 -1.59294e-05 0.753308)
(0.753333 -5.24836e-21 3.77954e-21 0.753362 -1.54178e-05 0.753305)
(0.753333 6.79031e-21 -1.64242e-20 0.753367 -1.61964e-05 0.7533)
(0.753332 -1.01965e-20 -2.64364e-21 0.753378 -1.71623e-05 0.75329)
(0.753336 -5.19036e-20 -3.40104e-20 0.753393 -3.17328e-05 0.753271)
(0.753329 5.69606e-20 3.86588e-20 0.753361 1.59754e-06 0.75331)
(0.753334 1.90477e-19 1.11994e-19 0.753029 0.000169468 0.753637)
(0.753333 -5.39395e-20 -1.10614e-20 0.753247 4.69667e-05 0.75342)
(0.753333 -7.88381e-20 -8.06335e-20 0.753367 -2.1209e-05 0.7533)
(0.753334 -3.03216e-20 -1.68741e-20 0.753376 -2.74194e-05 0.75329)
(0.753333 -1.26131e-20 2.38153e-21 0.753364 -1.85709e-05 0.753303)
(0.753334 1.14694e-20 -2.51276e-20 0.753355 -1.53484e-05 0.753311)
(0.753333 1.09993e-20 8.21995e-21 0.753354 -1.31696e-05 0.753313)
(0.753333 -1.51614e-20 1.17737e-20 0.753353 -1.31095e-05 0.753313)
(0.753333 -9.65637e-21 -1.65859e-20 0.753354 -1.23746e-05 0.753313)
(0.753333 5.63742e-21 4.47396e-21 0.753354 -1.21474e-05 0.753313)
(0.753333 -8.42246e-21 -3.57548e-21 0.753355 -1.18813e-05 0.753311)
(0.753334 -4.01052e-21 -1.16558e-20 0.753358 -1.28472e-05 0.753308)
(0.753333 -1.17072e-20 1.07612e-21 0.753366 -1.46671e-05 0.753301)
(0.753335 -4.71765e-20 -2.84899e-20 0.753387 -2.85958e-05 0.753277)
(0.753332 7.01111e-20 4.23741e-20 0.753382 -1.69079e-05 0.753286)
(0.753333 1.92019e-19 9.26249e-20 0.753036 0.000166385 0.75363)
(0.753333 -2.54349e-20 -3.70836e-20 0.753249 4.50689e-05 0.753418)
(0.753333 -1.10333e-19 -4.19805e-20 0.753361 -1.96351e-05 0.753305)
(0.753333 -1.69362e-20 -3.87979e-20 0.75337 -2.57611e-05 0.753297)
(0.753333 -1.15636e-21 -3.63841e-22 0.753359 -1.89636e-05 0.753308)
(0.753333 -1.80278e-20 -9.95854e-21 0.753352 -1.60337e-05 0.753314)
(0.753333 1.28391e-20 -7.23539e-22 0.753351 -1.37252e-05 0.753315)
(0.753333 -4.26447e-21 3.18154e-20 0.753352 -1.30813e-05 0.753315)
(0.753333 -1.28655e-20 -1.91901e-20 0.753353 -1.22416e-05 0.753314)
(0.753333 -7.22391e-21 -3.3729e-21 0.753354 -1.16722e-05 0.753313)
(0.753333 -1.55436e-20 4.12141e-22 0.753355 -1.07037e-05 0.753312)
(0.753333 -1.07632e-20 -1.11454e-20 0.753356 -9.76059e-06 0.753311)
(0.753333 -1.7156e-21 1.03652e-21 0.753359 -8.41073e-06 0.753308)
(0.753334 -3.92109e-20 -1.88486e-20 0.753378 -1.87648e-05 0.753288)
(0.753333 7.10802e-20 3.75429e-20 0.753414 -3.4085e-05 0.753253)
(0.753336 1.74938e-19 1.03455e-19 0.75306 0.000145784 0.753604)
(0.753332 -1.72515e-20 -2.16824e-20 0.753244 4.90752e-05 0.753424)
(0.753334 -1.18447e-19 -1.02748e-19 0.753368 -1.80433e-05 0.753298)
(0.753334 -2.12256e-20 -3.63657e-20 0.753385 -2.36564e-05 0.753281)
(0.753334 1.57509e-20 -8.26691e-22 0.753368 -1.33073e-05 0.753299)
(0.753334 -1.82336e-20 -9.72067e-21 0.753353 -6.66739e-06 0.753313)
(0.753333 1.18817e-20 1.83361e-20 0.753347 -4.31124e-06 0.75332)
(0.753334 2.50541e-20 5.63758e-21 0.753344 -5.01566e-06 0.753322)
(0.753333 -2.14561e-20 -1.27573e-20 0.753342 -5.53695e-06 0.753324)
(0.753333 -2.86165e-20 -6.6947e-21 0.753341 -6.507e-06 0.753326)
(0.753333 -1.05609e-20 -1.50999e-20 0.75334 -6.70664e-06 0.753327)
(0.753333 -3.89653e-21 -1.05236e-21 0.75334 -5.88638e-06 0.753326)
(0.753333 -5.4955e-21 5.74912e-21 0.753345 -4.26582e-06 0.753322)
(0.753333 -2.63772e-20 -1.6993e-20 0.753368 -1.21029e-05 0.753299)
(0.753333 7.29641e-20 4.47733e-20 0.753458 -6.24305e-05 0.753209)
(0.753331 1.23166e-19 7.89501e-20 0.753071 0.000133737 0.753597)
(0.753332 5.99618e-20 2.73476e-20 0.753184 4.54344e-05 0.753483)
(0.753333 -7.88437e-20 -2.24248e-20 0.753295 -1.01459e-05 0.753372)
(0.753333 -7.07088e-20 -4.79755e-20 0.753349 -2.54626e-05 0.753317)
(0.753333 -2.00402e-20 -2.95397e-20 0.753366 -2.14374e-05 0.753301)
(0.753333 -2.64397e-20 -6.87372e-21 0.753369 -1.75828e-05 0.753298)
(0.753333 7.59436e-22 -5.58408e-21 0.753374 -1.40619e-05 0.753293)
(0.753333 2.51872e-20 1.99876e-21 0.753376 -1.21563e-05 0.753291)
(0.753333 -4.30104e-22 8.51885e-21 0.753376 -1.07933e-05 0.753291)
(0.753333 -2.30158e-20 -1.68081e-20 0.753372 -8.34096e-06 0.753295)
(0.753333 -2.29865e-20 -2.45115e-20 0.753361 -1.49992e-06 0.753306)
(0.753333 -2.43233e-20 -1.23597e-20 0.753341 1.02212e-05 0.753326)
(0.753334 -2.9394e-20 -2.12906e-20 0.753325 1.65283e-05 0.753341)
(0.753331 -3.47007e-20 -3.08226e-20 0.753357 4.25268e-06 0.753312)
(0.753335 1.23882e-19 6.9895e-20 0.753477 -6.94141e-05 0.753188)
(0.753879 6.215e-21 3.86042e-22 0.752565 0.000616764 0.753556)
(0.753215 5.25751e-21 7.79068e-22 0.753513 0.000654584 0.753272)
(0.753331 -3.49111e-22 1.74033e-21 0.753336 9.26329e-05 0.753333)
(0.753335 -3.07584e-22 1.70258e-21 0.753313 -2.51905e-05 0.753352)
(0.753336 2.5901e-21 1.8907e-21 0.75331 1.88505e-05 0.753354)
(0.753333 7.41479e-23 7.88546e-22 0.753325 -5.51632e-06 0.753342)
(0.753331 -2.94543e-21 1.89168e-21 0.753322 -1.25699e-05 0.753347)
(0.753336 1.38659e-21 1.75055e-21 0.753313 -2.32077e-06 0.753351)
(0.753335 -3.64853e-21 1.41056e-21 0.753314 5.71789e-06 0.753351)
(0.753333 -6.73493e-21 -1.03784e-21 0.753325 -2.87693e-06 0.753342)
(0.753331 -4.16358e-21 -2.96007e-22 0.753324 -1.65903e-05 0.753345)
(0.753337 2.60663e-21 -3.23483e-22 0.753312 -2.8363e-08 0.753351)
(0.753333 3.31619e-21 1.33977e-21 0.753327 -4.11052e-06 0.75334)
(0.753332 1.11202e-21 4.72488e-22 0.753323 -1.49773e-05 0.753345)
(0.753335 4.71762e-22 5.76344e-22 0.753319 -7.77651e-06 0.753346)
(0.753334 3.22282e-21 8.6331e-22 0.753321 -3.27732e-06 0.753346)
(0.753333 6.43843e-22 1.52294e-21 0.753329 -4.72881e-06 0.753338)
(0.753331 -2.95766e-21 4.65521e-22 0.753329 -1.65872e-05 0.753341)
(0.753338 1.92675e-21 8.13018e-22 0.753315 -6.90074e-06 0.753347)
(0.753333 9.24846e-22 1.50431e-21 0.753332 -4.6131e-06 0.753335)
(0.753332 -2.19024e-21 1.1401e-21 0.753328 -1.36524e-05 0.75334)
(0.753335 -2.51065e-21 8.92158e-22 0.753323 -8.62033e-06 0.753342)
(0.753334 1.82399e-21 3.78187e-22 0.753325 -7.54374e-06 0.75334)
(0.753333 1.24776e-21 1.57514e-21 0.753334 -3.79694e-06 0.753333)
(0.753332 -1.87149e-21 1.19422e-21 0.753331 -1.15609e-05 0.753337)
(0.753335 1.35167e-21 1.11173e-21 0.753325 -7.53519e-06 0.75334)
(0.753334 3.68473e-21 2.05227e-21 0.753328 -7.81313e-06 0.753338)
(0.753333 1.19935e-21 1.54242e-21 0.753335 -2.93722e-06 0.753332)
(0.75333 -4.23268e-21 1.92296e-21 0.753335 -9.0818e-06 0.753334)
(0.753338 1.00778e-21 1.57714e-21 0.75332 -8.67684e-06 0.753342)
(0.753333 9.41395e-22 1.44621e-21 0.753338 -2.64388e-06 0.753329)
(0.753332 -3.19937e-21 1.87843e-21 0.753334 -7.82973e-06 0.753334)
(0.753335 -1.96938e-22 1.68391e-21 0.753327 -5.83249e-06 0.753338)
(0.753334 2.08971e-21 1.92637e-21 0.753331 -8.6645e-06 0.753336)
(0.753333 -7.97603e-23 1.42027e-21 0.753338 -2.4727e-06 0.753328)
(0.753331 -3.97932e-21 1.85848e-21 0.753337 -6.0133e-06 0.753332)
(0.753337 1.32286e-21 1.66908e-21 0.753324 -9.2301e-06 0.753339)
(0.753333 -1.66809e-22 1.34791e-21 0.75334 -2.38584e-06 0.753327)
(0.753332 -2.82766e-21 1.75583e-21 0.753337 -5.4511e-06 0.753332)
(0.753335 -3.51938e-21 1.43368e-21 0.753329 -4.97881e-06 0.753336)
(0.753334 -2.8723e-22 1.20006e-21 0.753333 -9.09696e-06 0.753334)
(0.753333 2.99114e-22 1.19249e-21 0.75334 -2.08995e-06 0.753327)
(0.753332 -1.91199e-21 1.33261e-21 0.753337 -4.10888e-06 0.753331)
(0.753335 -6.89904e-22 1.16338e-21 0.753331 -4.03608e-06 0.753334)
(0.753334 4.56196e-22 1.19018e-21 0.753333 -8.27964e-06 0.753333)
(0.753333 1.04411e-21 5.32927e-22 0.753337 -2.04128e-06 0.75333)
(0.753332 -1.06265e-21 1.31996e-21 0.753338 -2.01968e-06 0.75333)
(0.753336 5.97689e-22 1.41563e-21 0.75333 -8.04446e-06 0.753334)
(0.753333 -2.20353e-21 5.60402e-22 0.753338 -1.12774e-06 0.753329)
(0.753333 -5.61924e-21 1.29653e-21 0.753338 -1.46167e-06 0.753329)
(0.753335 -2.85868e-21 4.52151e-22 0.753334 -1.40416e-06 0.753331)
(0.753333 -1.44084e-21 2.45436e-22 0.753337 -6.3921e-06 0.75333)
(0.753333 -1.01657e-21 2.20417e-22 0.753341 1.55239e-06 0.753326)
(0.753332 -4.7981e-22 2.33271e-23 0.753339 1.8286e-06 0.753329)
(0.753335 -6.01131e-21 -2.6947e-22 0.753334 -7.18913e-07 0.753332)
(0.753333 -7.74628e-21 -9.12792e-22 0.753336 -1.19018e-06 0.753331)
(0.753334 -2.06349e-21 3.22568e-22 0.753344 8.37719e-06 0.753322)
(0.75333 1.32217e-20 -1.20034e-21 0.75334 5.98179e-07 0.75333)
(0.753337 1.24833e-20 2.98079e-22 0.753324 1.31015e-05 0.753339)
(0.753333 -5.32849e-21 7.48769e-22 0.75335 1.78192e-05 0.753317)
(0.753329 -9.68944e-21 -1.01627e-21 0.753334 6.92626e-06 0.753337)
(0.753343 -5.17455e-21 -1.95012e-21 0.753304 1.02556e-05 0.753353)
(0.75333 2.11991e-21 -1.89544e-21 0.753331 -1.25958e-05 0.753339)
(0.753333 1.47337e-20 -4.42256e-23 0.753358 -2.35218e-05 0.753309)
(0.753334 1.44131e-20 1.80675e-21 0.753337 -1.93987e-05 0.753328)
(0.753335 5.28615e-21 2.9272e-21 0.753342 -2.46649e-05 0.753323)
(0.753333 3.18205e-21 3.06772e-22 0.753362 -1.71897e-05 0.753305)
(0.753332 6.0765e-23 1.86625e-21 0.75336 6.48615e-07 0.753308)
(0.753337 4.20642e-21 3.78313e-21 0.753351 -1.78487e-06 0.753312)
(0.753333 6.91277e-21 4.44711e-21 0.753367 -3.24736e-05 0.7533)
(0.753333 -1.44612e-21 -6.8851e-22 0.753368 -8.85739e-06 0.7533)
(0.753334 -7.70199e-21 4.07667e-21 0.753373 2.11957e-05 0.753293)
(0.753338 -6.70731e-21 3.26344e-21 0.753365 6.63088e-06 0.753298)
(0.753334 -9.30877e-21 2.27489e-21 0.753381 -2.52661e-05 0.753285)
(0.75333 -6.08731e-21 -5.6718e-21 0.753375 -5.0478e-07 0.753295)
(0.753349 -1.44135e-20 1.57862e-22 0.753352 3.7581e-05 0.753299)
(0.75333 -1.51437e-20 -1.48153e-21 0.753395 -2.83665e-05 0.753275)
(0.75333 -4.24938e-21 -3.43325e-21 0.753374 7.51672e-07 0.753296)
(0.75335 1.22145e-20 -2.83593e-21 0.75336 3.50633e-05 0.75329)
(0.753329 6.34894e-20 -1.16854e-22 0.753407 -8.82483e-05 0.753264)
(0.753327 3.53769e-20 -1.26049e-20 0.753361 -6.69181e-05 0.753311)
(0.753343 -2.44429e-20 -1.47994e-20 0.753327 1.09895e-05 0.75333)
(0.753325 -4.05874e-20 -1.71939e-20 0.753368 -2.26976e-05 0.753307)
(0.753334 -1.67959e-20 6.18633e-21 0.753344 -4.86914e-06 0.753322)
(0.753337 9.83516e-21 -1.54203e-20 0.753337 -2.29587e-05 0.753327)
(0.75333 -2.08061e-20 -1.06572e-20 0.753345 -5.03318e-05 0.753325)
(0.753335 -1.00368e-21 -1.0678e-20 0.753337 -2.36605e-05 0.753328)
(0.753333 -3.80832e-21 -1.07388e-20 0.753343 -2.36004e-05 0.753324)
(0.753334 -1.71757e-20 -1.10817e-20 0.753343 -1.85708e-05 0.753323)
(0.753332 -4.06623e-20 -1.25299e-20 0.753348 -5.61937e-06 0.75332)
(0.753336 -5.82317e-20 -1.34444e-20 0.75334 5.74706e-06 0.753324)
(0.753333 -4.89587e-20 -1.18208e-20 0.753351 -7.4651e-06 0.753316)
(0.753333 -1.04006e-20 2.753e-21 0.753338 -5.1365e-06 0.753329)
(0.753339 4.54358e-21 -9.17699e-21 0.753338 5.1737e-06 0.753323)
(0.753331 -1.68748e-20 -7.66755e-21 0.753351 -2.91543e-06 0.753317)
(0.753334 -2.04552e-20 -8.16278e-21 0.753347 1.64472e-05 0.753318)
(0.753333 -4.41677e-22 -6.85191e-21 0.753352 -4.09352e-06 0.753315)
(0.753334 1.93087e-20 -6.89691e-21 0.753352 -2.40918e-05 0.753315)
(0.753332 7.71725e-21 -6.62734e-21 0.753356 -2.23844e-05 0.753311)
(0.753335 -5.53202e-21 -7.15589e-21 0.753353 -2.42303e-05 0.753312)
(0.753335 -2.94544e-20 -9.14393e-21 0.753355 -2.36989e-05 0.75331)
(0.753333 5.64062e-21 -1.9038e-20 0.753332 -5.38184e-06 0.753336)
(0.753339 5.74698e-21 -6.53539e-21 0.75334 -2.05912e-06 0.753321)
(0.753331 -8.13487e-21 -5.42828e-21 0.753353 -2.50347e-05 0.753315)
(0.753334 -1.029e-20 -5.62863e-21 0.75335 -1.16226e-05 0.753315)
(0.753334 -2.02719e-20 -5.80364e-21 0.753353 -1.14874e-05 0.753313)
(0.753333 -2.40963e-20 -5.29275e-21 0.753354 -1.11101e-05 0.753313)
(0.753334 1.37459e-21 -3.0153e-21 0.75335 -1.23263e-06 0.753316)
(0.753334 1.89755e-20 -2.28759e-21 0.753351 1.98227e-06 0.753316)
(0.753333 1.15393e-20 -2.20548e-21 0.753353 -8.24485e-06 0.753313)
(0.753339 -3.1269e-21 -3.26327e-21 0.753343 -1.07292e-05 0.753318)
(0.753332 -1.21683e-20 1.36404e-20 0.753321 -6.89939e-06 0.753346)
(0.753338 -7.15116e-21 -1.72167e-21 0.753336 1.04051e-06 0.753325)
(0.753333 -1.79742e-20 -1.38619e-21 0.753345 -1.16224e-05 0.753322)
(0.753333 -1.80896e-20 -1.96714e-21 0.753346 -1.04573e-05 0.75332)
(0.753334 -2.15485e-20 -2.52271e-21 0.753345 -1.60877e-05 0.753321)
(0.753334 -1.53011e-20 -2.99694e-21 0.753347 -3.45438e-05 0.753318)
(0.753333 -9.50491e-21 -4.59746e-21 0.753348 -3.84378e-05 0.753319)
(0.753332 -1.32671e-20 -5.8025e-21 0.753349 -2.36502e-05 0.753319)
(0.753342 -1.97656e-20 -6.79409e-21 0.753327 -4.41552e-06 0.753331)
(0.753332 -1.38579e-20 6.18489e-21 0.753308 -6.35933e-06 0.75336)
(0.753337 1.91615e-21 -6.00115e-21 0.753333 -1.7521e-05 0.75333)
(0.753334 4.16837e-21 -6.65453e-21 0.753339 -1.72678e-05 0.753327)
(0.753333 -1.12735e-21 -8.01034e-21 0.753339 1.83314e-05 0.753328)
(0.753335 -7.95915e-21 -7.85486e-21 0.753336 4.26302e-05 0.75333)
(0.753332 4.93547e-21 -7.91752e-21 0.753337 4.63007e-05 0.75333)
(0.753336 8.4921e-21 -7.64706e-21 0.753326 4.55823e-05 0.753337)
(0.753329 -9.78878e-21 -8.60451e-21 0.75334 2.39674e-05 0.75333)
(0.753342 -2.63458e-20 -8.11046e-21 0.753303 3.7479e-05 0.753354)
(0.753333 9.2359e-21 -1.65358e-20 0.753296 4.35799e-06 0.753372)
(0.753332 -4.33983e-21 -6.24456e-21 0.753329 3.39466e-06 0.753339)
(0.753338 -2.8558e-20 -4.95402e-21 0.75332 2.86914e-05 0.753342)
(0.753332 -4.13493e-20 -5.51231e-21 0.753327 -6.74308e-06 0.753341)
(0.753333 -4.56793e-20 -5.58284e-21 0.75332 -6.96759e-06 0.753346)
(0.753334 -3.74252e-20 -6.42499e-21 0.753316 4.47681e-06 0.753349)
(0.753336 -3.7536e-20 -7.59041e-21 0.753312 6.49521e-06 0.753352)
(0.753329 -3.40384e-20 -8.53194e-21 0.753325 1.39756e-05 0.753347)
(0.753346 -2.58163e-20 -8.9476e-21 0.753282 4.8959e-05 0.753372)
(0.753332 4.70686e-22 -1.30925e-21 0.753291 -7.95393e-07 0.753377)
(0.753331 2.46094e-20 -5.38443e-21 0.753317 2.6004e-05 0.753352)
(0.75334 4.63852e-20 -5.87967e-21 0.753309 0.000113257 0.753351)
(0.753331 6.27598e-20 -5.0736e-21 0.753319 0.000115528 0.75335)
(0.753335 6.17169e-20 -3.18553e-21 0.753304 0.000134302 0.753361)
(0.753333 -4.42213e-21 -2.07988e-21 0.753299 0.000125966 0.753368)
(0.753334 3.6485e-20 9.91234e-21 0.753283 0.000132749 0.753383)
(0.753335 1.04767e-19 1.36628e-20 0.753273 0.000140194 0.753393)
(0.753332 7.18031e-20 1.4728e-20 0.753271 0.000124103 0.753397)
(0.753346 6.62191e-20 1.63975e-20 0.753233 0.000121994 0.753421)
(0.753332 5.13659e-22 9.14571e-21 0.753288 -5.74882e-06 0.753379)
(0.753332 2.80543e-21 1.39283e-20 0.753288 -4.89693e-06 0.75338)
(0.753344 4.58977e-20 1.3122e-20 0.753275 7.15606e-05 0.753381)
(0.75333 3.39721e-20 1.48929e-20 0.753295 3.19839e-05 0.753375)
(0.753338 4.11606e-20 1.596e-20 0.753276 6.56901e-05 0.753386)
(0.753328 8.604e-20 1.8535e-20 0.753289 0.000122782 0.753384)
(0.753337 1.26709e-19 1.80394e-20 0.753267 0.000177556 0.753395)
(0.753341 3.93517e-20 6.05889e-21 0.753284 8.4745e-05 0.753375)
(0.753337 -1.37971e-20 3.30198e-21 0.753294 2.7985e-05 0.753369)
(0.753332 6.55706e-21 3.89801e-21 0.753312 -3.84032e-06 0.753356)
(0.753335 -1.98694e-21 4.73559e-21 0.753308 2.58305e-05 0.753358)
(0.753349 2.06175e-20 3.64826e-21 0.753286 0.000108219 0.753365)
(0.753335 1.40574e-20 3.27254e-22 0.753319 4.69971e-05 0.753346)
(0.753331 -2.94802e-21 -8.44287e-22 0.753333 -4.37584e-06 0.753336)
(0.753335 2.41154e-22 5.60156e-24 0.753324 -4.94506e-06 0.753341)
(0.753331 3.06772e-23 4.42871e-22 0.75333 3.39301e-06 0.753339)
(0.753334 4.74909e-22 6.81982e-22 0.753328 -5.88264e-07 0.753338)
(0.753333 -1.54876e-22 3.70272e-22 0.753327 1.98912e-06 0.75334)
(0.753333 5.02445e-22 3.88699e-23 0.753331 1.41672e-06 0.753336)
(0.753334 -4.10857e-22 3.55479e-22 0.753329 -2.97453e-06 0.753337)
(0.753333 4.55341e-22 1.07008e-22 0.75333 2.60227e-06 0.753337)
(0.753333 1.51399e-21 4.1892e-23 0.753331 7.63764e-07 0.753335)
(0.753334 1.51506e-21 -7.69378e-23 0.753331 -1.9815e-06 0.753336)
(0.753333 2.65048e-21 1.20631e-21 0.753331 1.94353e-06 0.753336)
(0.753333 9.25223e-22 8.979e-23 0.753331 4.96317e-07 0.753335)
(0.753333 -1.07982e-21 1.64718e-21 0.75333 1.21705e-06 0.753337)
(0.753333 -3.00208e-21 3.03786e-22 0.753332 7.55365e-07 0.753335)
(0.753333 -5.85124e-22 -2.38953e-22 0.753332 -2.15415e-06 0.753335)
(0.753333 7.52848e-21 8.01645e-22 0.753332 2.13517e-07 0.753335)
(0.753333 2.25719e-21 5.0599e-22 0.753332 6.48892e-07 0.753335)
(0.753333 -3.57771e-21 1.72649e-21 0.753331 -8.71973e-07 0.753336)
(0.753333 -1.76572e-21 -1.02259e-22 0.753332 8.11865e-07 0.753335)
(0.753333 -1.0128e-21 4.70359e-23 0.753332 -6.6663e-07 0.753335)
(0.753333 -1.09434e-21 6.63787e-22 0.753331 -1.58645e-06 0.753336)
(0.753334 8.22106e-22 -3.24526e-23 0.753332 8.67194e-07 0.753335)
(0.753333 3.17559e-22 3.97414e-22 0.753333 -7.45426e-07 0.753334)
(0.753333 -4.6491e-22 1.00652e-21 0.753331 -1.40465e-06 0.753336)
(0.753333 -5.41321e-22 6.27373e-23 0.753332 -5.33796e-08 0.753335)
(0.753333 2.29833e-22 8.09383e-22 0.753332 -2.09982e-06 0.753335)
(0.753334 8.01377e-22 2.6787e-22 0.753331 7.35609e-07 0.753335)
(0.753333 -6.66674e-22 8.9516e-23 0.753333 -1.09435e-06 0.753334)
(0.753333 -6.1033e-22 9.3851e-22 0.753331 -2.50808e-06 0.753336)
(0.753333 -1.67601e-22 5.10623e-23 0.753332 -4.09479e-07 0.753335)
(0.753333 -6.16105e-22 7.80681e-22 0.753332 -3.09043e-06 0.753335)
(0.753334 6.63609e-22 3.42292e-23 0.753331 4.5115e-07 0.753336)
(0.753333 -1.4275e-23 2.57309e-22 0.753333 -1.3624e-06 0.753334)
(0.753333 -7.09523e-22 9.27669e-22 0.753332 -4.00817e-06 0.753335)
(0.753334 6.78904e-22 2.5523e-23 0.75333 2.05281e-07 0.753336)
(0.753332 -1.25579e-22 2.79065e-22 0.753334 -1.56414e-06 0.753334)
(0.753334 -6.04274e-23 1.06318e-21 0.75333 -4.28532e-06 0.753336)
(0.753334 9.0923e-23 9.88324e-23 0.753331 -1.03496e-06 0.753335)
(0.753332 -6.30566e-23 1.08212e-21 0.753334 -4.73532e-06 0.753334)
(0.753334 6.82435e-22 8.78862e-23 0.753329 -1.67123e-07 0.753336)
(0.753332 9.26732e-24 1.07796e-22 0.753334 -1.73431e-06 0.753334)
(0.753334 4.19614e-22 1.11041e-21 0.75333 -5.16053e-06 0.753336)
(0.753334 -6.95557e-22 1.23855e-22 0.753331 -1.38085e-06 0.753335)
(0.753332 3.02653e-22 1.37156e-21 0.753335 -5.61527e-06 0.753333)
(0.753334 1.64801e-21 1.43766e-22 0.753329 -6.88258e-07 0.753336)
(0.753332 -8.62282e-22 1.86462e-22 0.753334 -2.02712e-06 0.753334)
(0.753333 -4.88966e-22 1.8155e-21 0.753333 -6.36211e-06 0.753334)
(0.753335 1.40503e-21 1.24145e-22 0.753329 -1.11635e-06 0.753337)
(0.753332 -8.45007e-22 2.44395e-22 0.753335 -2.29702e-06 0.753333)
(0.753335 -4.04864e-22 1.95421e-21 0.75333 -6.71837e-06 0.753335)
(0.753334 1.35098e-21 1.55993e-22 0.753331 -2.19205e-06 0.753335)
(0.753332 -5.86331e-22 1.88179e-21 0.753337 -7.16648e-06 0.753332)
(0.753335 1.69155e-21 1.60674e-22 0.753329 -1.89011e-06 0.753336)