/*--------------------------------*- C++ -*----------------------------------*\
| =========                 |                                                 |
| \\      /  F ield         | OpenFOAM: The Open Source CFD Toolbox           |
|  \\    /   O peration     | Version:  4.1                                   |
|   \\  /    A nd           | Web:      www.OpenFOAM.org                      |
|    \\/     M anipulation  |                                                 |
\*---------------------------------------------------------------------------*/
FoamFile
{
    version     2.0;
    format      ascii;
    class       volScalarField;
    location    "25";
    object      epsilon;
}
// * * * * * * * * * * * * * * * * * * * * * * * * * * * * * * * * * * * * * //

dimensions      [0 2 -3 0 0 0 0];

internalField   nonuniform List<scalar> 
6785
(
0.0565621
0.291778
0.285097
0.285125
0.285161
0.285089
0.28512
0.285166
0.285098
0.285133
0.285178
0.285103
0.284786
0.496216
0.0801845
0.0817174
0.00550656
8.28003e-05
7.74964e-05
7.37678e-05
7.00262e-05
6.64396e-05
6.29053e-05
5.92794e-05
5.56668e-05
5.22686e-05
5.53617e-05
0.000894466
0.0132245
0.0115048
0.112955
0.00236923
2.39758e-07
1.42766e-07
6.67504e-07
1.27943e-06
1.79882e-06
2.39021e-06
4.04836e-06
1.04946e-05
4.52426e-05
0.000272053
0.00156163
0.00125699
0.000357952
0.155668
0.00551036
0.001064
8.54783e-08
1.10256e-07
2.60923e-07
7.05152e-07
1.0559e-06
2.10817e-06
1.19398e-06
3.07616e-05
0.000127557
0.000728481
0.000442833
0.000132065
0.202412
0.0107981
0.000204441
3.97217e-06
7.09021e-07
3.34935e-07
1.6154e-06
2.7269e-06
8.25791e-07
7.67996e-06
2.61938e-05
4.48218e-05
0.000303362
0.000753013
0.000221162
0.253713
0.0106047
0.000166019
1.16453e-05
4.7969e-06
3.01677e-06
1.17433e-05
6.33793e-05
6.56732e-05
8.20347e-06
6.05587e-05
6.592e-05
0.000153769
0.000537141
0.000659882
0.311484
0.00850717
9.6833e-05
2.03857e-05
5.72338e-06
4.50733e-05
8.71605e-05
0.000703373
0.00175329
0.00147906
0.000159747
9.50019e-05
0.000123029
0.00025755
0.00142213
0.361912
0.0100379
9.30307e-05
6.99933e-05
0.000259675
0.00130501
0.00548157
0.0148483
0.0235887
0.0120951
0.000775398
0.00041515
0.000878158
0.00093724
0.00132069
0.390564
0.0231432
0.000252399
7.77791e-05
0.000382632
0.00175135
0.00654668
0.0224184
0.0320611
0.0282893
0.00991462
0.00286353
0.00079878
0.000612096
0.000529988
0.393258
0.0474242
0.00110729
7.56241e-05
0.00035512
0.00159998
0.00585716
0.0168935
0.0291341
0.027848
0.0186889
0.0117694
0.0070863
0.00122049
0.000315498
0.378593
0.0908922
0.00663315
0.000496607
0.000451196
0.00143543
0.00472988
0.00854598
0.0177299
0.0232239
0.0177086
0.0110056
0.00671336
0.00541136
0.000320172
0.358649
0.113854
0.0078942
0.000929115
0.000459442
0.00142469
0.00331259
0.00996284
0.0114051
0.018033
0.0141286
0.00878979
0.00487478
0.00598645
0.000279596
0.344109
0.182308
0.0214169
0.00388575
0.00124123
0.00143561
0.00337138
0.0086568
0.0116656
0.0154773
0.0131325
0.00915427
0.00506628
0.00604716
0.00037214
0.305533
0.160057
0.0118076
0.00412667
0.00185176
0.00207124
0.00110709
0.00873557
0.00868406
0.0115719
0.0147541
0.00829781
0.00475201
0.0053911
0.00116766
0.364347
0.173049
0.0155763
0.00553786
0.0032006
0.000360397
0.0121905
0.0113089
0.0164808
0.017068
0.00385181
0.00142174
0.00292663
0.00582048
0.00112416
0.0346034
0.0187894
0.0302059
0.0293504
0.0286475
0.016296
0.0267075
0.0262731
0.0258781
0.0149254
0.0246412
0.0243453
0.0140972
0.0233335
0.0230921
0.0228384
0.013276
0.0219662
0.0217823
0.0127431
0.0212248
0.0211446
0.0211006
0.0125246
0.0207724
0.0207019
0.0207212
0.0124227
0.0204335
0.0203222
0.0121385
0.0195712
0.0192695
0.0191407
0.0115181
0.0184636
0.0181912
0.0108873
0.0170982
0.0166435
0.0163814
0.0098933
0.0156689
0.0154142
0.0153865
0.00963628
0.0152668
0.015082
0.00937505
0.0143052
0.0138193
0.0135483
0.00847502
0.0126927
0.0122353
0.0119729
0.00767574
0.0112948
0.0109606
0.00710968
0.00989314
0.00942882
0.00917519
0.00617406
0.00830945
0.00801318
0.00546304
0.0072962
0.00706481
0.00702588
0.00477936
0.00754216
0.00775689
0.00804794
0.00515432
0.00868177
0.00892571
0.00536693
0.00909497
0.00924915
0.0252448
0.0273075
0.0278805
0.0250852
0.0280143
0.0272318
0.0266909
0.0272997
0.0289767
0.0306719
0.0317371
0.0293004
0.0287364
0.0317252
0.0329083
0.0345967
0.035998
0.0387398
0.0407296
0.0425709
0.0417608
0.043492
0.0486081
0.0503569
0.0513213
0.0536421
0.0518063
0.0502751
0.0517075
0.0496552
0.0481456
0.0550724
0.0510473
0.051828
0.0523771
0.0556711
0.0531216
0.05563
0.0498473
0.0456023
0.0495923
0.0513833
0.0513041
0.0518354
0.0563478
0.0529373
0.0574115
0.0536987
0.0559436
0.0550786
0.058068
0.0595182
0.0637784
0.0583452
0.0629201
0.0588189
0.0635931
0.0619666
0.0651808
0.0740364
0.0766233
0.0768002
0.0787473
0.0779628
0.0823665
0.0825098
0.0881134
0.0936769
0.0998339
0.111102
0.110633
0.111826
0.107376
0.107995
0.106592
0.100845
0.0870758
0.0378081
0.058889
0.0326392
0.012386
0.00810084
0.00868319
0.0152438
0.0100185
0.0176341
0.0116497
0.0124925
0.0219149
0.0143652
0.0153864
0.0270439
0.0177392
0.0315306
0.0208566
0.0227003
0.0406724
0.0268809
0.047662
0.031785
0.0348389
0.0615168
0.0413458
0.0441503
0.0723703
0.0496234
0.0788129
0.055421
0.0576838
0.0856246
0.0555256
0.0840207
0.0553545
0.0574738
0.0868181
0.0552742
0.0554334
0.0831752
0.0503438
0.0760226
0.0456838
0.0441226
0.0662778
0.0397072
0.0602063
0.0392639
0.0500225
0.0780003
0.0851872
0.0952308
0.140446
0.0735004
0.109805
0.0590911
0.0543105
0.0810894
0.0457605
0.0688037
0.0393437
0.036471
0.054754
0.0312675
0.0284903
0.0338789
0.00246028
0.00104753
0.000595173
0.00059302
0.000951204
0.000583709
0.000954674
0.000585996
0.000579256
0.000949786
0.000583108
0.000576367
0.000944261
0.00057978
0.000927574
0.000576974
0.000707672
0.000652757
0.000643437
0.000651766
0.000695248
0.000776063
0.000876023
0.0010162
0.00112992
0.00122457
0.00134894
0.00147588
0.00159041
0.00168098
0.00179651
0.00193267
0.00204168
0.00216555
0.0023227
0.00253319
0.00295075
0.00365577
0.00454296
0.00587067
0.00716831
0.00777063
0.00802079
0.00737171
0.00627837
0.00581988
0.00581842
0.00594775
0.00658933
0.00772736
0.00932539
0.0112402
0.0132655
0.0158509
0.0192974
0.0227918
0.0262445
0.0287544
0.0300786
0.0324477
0.0380541
0.0462605
0.0543013
0.0627954
0.0725869
0.0838739
0.0965336
0.109686
0.115169
0.116561
0.121054
0.119928
0.108801
0.0874904
0.0733247
0.0697103
0.0687172
0.0684438
0.0656578
0.0622981
0.0578104
0.053055
0.0478668
0.0403366
0.0326712
0.0260552
0.0201772
0.0154973
0.0130033
0.012197
0.0117061
0.0093447
0.00271565
0.00089072
0.000648087
0.000715979
0.000655316
0.00064616
0.000653092
0.000696118
0.000775157
0.000873027
0.00101205
0.00113669
0.00121422
0.00133931
0.00147247
0.00159945
0.00168752
0.00179755
0.00193294
0.00204835
0.0021669
0.00231051
0.00249678
0.00292639
0.00361179
0.00446706
0.00577345
0.00710482
0.00756825
0.00799762
0.00739662
0.00631941
0.00578658
0.00578884
0.00590442
0.00652319
0.00763817
0.0090987
0.0110992
0.0132467
0.0158232
0.0191759
0.0227154
0.0259794
0.0289411
0.0305365
0.0326818
0.0377482
0.0457735
0.0538854
0.0625595
0.0718925
0.0829424
0.095537
0.109519
0.115832
0.116978
0.12386
0.126302
0.117738
0.100426
0.0810347
0.0718931
0.0690048
0.0689206
0.0687369
0.0676228
0.0627989
0.0578792
0.0505386
0.0418624
0.032755
0.0251878
0.0197209
0.0150443
0.0128488
0.0123266
0.0116756
0.00906364
0.00254323
0.000874368
0.00065321
0.000740548
0.000692224
0.000686551
0.000696147
0.000750443
0.000840467
0.000954288
0.00110132
0.00119042
0.00131001
0.00143939
0.00157914
0.0017257
0.00182644
0.00193851
0.0020709
0.00220268
0.0023292
0.00246504
0.00264331
0.00298891
0.00365089
0.00445441
0.00573434
0.00716017
0.00775327
0.00798786
0.00759507
0.00649694
0.00594911
0.00590083
0.00605134
0.00669525
0.0078714
0.00951781
0.0117134
0.014348
0.016843
0.0199243
0.0235926
0.027421
0.0306515
0.0325681
0.0347492
0.0393897
0.0474855
0.0554185
0.0633903
0.0722574
0.0828827
0.0955344
0.109279
0.116706
0.122013
0.129905
0.129894
0.121775
0.104791
0.0853043
0.0740384
0.0688113
0.0677154
0.0682876
0.0680417
0.0635562
0.0566508
0.0480531
0.0393667
0.0313518
0.024054
0.0185743
0.0143532
0.0127689
0.0123954
0.011712
0.00844322
0.00222812
0.000852011
0.000664399
0.000761877
0.000724702
0.000723513
0.000740378
0.000802224
0.000899106
0.00101757
0.00115403
0.00127599
0.00139565
0.00153325
0.00167563
0.0018094
0.00193649
0.00206008
0.00220167
0.002341
0.00247326
0.00260215
0.00279076
0.00314816
0.00386098
0.00467545
0.00571336
0.00721204
0.00776403
0.00821312
0.00774018
0.00667096
0.00610849
0.00607153
0.00623455
0.00690041
0.00811371
0.0098438
0.0121439
0.0146848
0.0176842
0.0209614
0.0247468
0.0287251
0.0323001
0.034578
0.0368405
0.0412652
0.0493107
0.0579517
0.0662916
0.073287
0.0831565
0.0948822
0.107836
0.121804
0.127933
0.135803
0.135476
0.127283
0.1088
0.0881988
0.0772248
0.069606
0.0675347
0.0681613
0.0670162
0.0629672
0.054837
0.0459962
0.0373579
0.0287383
0.0222696
0.0176151
0.0141277
0.0132652
0.012659
0.0116864
0.00773394
0.00193999
0.000817373
0.000672309
0.000779257
0.00075699
0.000762607
0.000788541
0.000860273
0.000967623
0.0011022
0.0012413
0.00136357
0.00149366
0.00163927
0.00179274
0.00193922
0.00207113
0.00220081
0.00234846
0.00250234
0.00264219
0.00277882
0.00296141
0.00330003
0.00404457
0.00482244
0.00600222
0.00727583
0.00801961
0.00818153
0.00791832
0.00683645
0.00626214
0.00622618
0.00640565
0.00709055
0.00832429
0.0101674
0.0126621
0.0154025
0.0185741
0.0219889
0.0259105
0.0300972
0.0339725
0.036638
0.0390696
0.0435707
0.0514752
0.0605644
0.0693339
0.0770112
0.0844155
0.0947319
0.111335
0.121188
0.133317
0.140239
0.139477
0.130442
0.113272
0.0928292
0.0806703
0.071979
0.0675092
0.0660696
0.0658804
0.0633614
0.0549125
0.0448491
0.0340744
0.0268503
0.0205943
0.0167741
0.0141399
0.0135869
0.0130861
0.0115885
0.00690357
0.00171568
0.000808111
0.000683195
0.000787039
0.000787128
0.000800488
0.000839284
0.000921537
0.00103742
0.00118709
0.00132712
0.00145921
0.00159739
0.00175124
0.00191153
0.00206588
0.00220952
0.00234943
0.0025041
0.0026707
0.00281522
0.00295317
0.00315692
0.00346402
0.00398345
0.00497435
0.00628663
0.00767782
0.00833584
0.00834471
0.00807926
0.00699765
0.00640724
0.00637264
0.00656687
0.00727455
0.00850615
0.0104416
0.0131448
0.0160614
0.0194813
0.0230564
0.0271053
0.0314816
0.0356437
0.0387032
0.0413474
0.0459714
0.0537373
0.0633549
0.0726995
0.0808388
0.089281
0.100309
0.11262
0.126828
0.139566
0.145142
0.144214
0.134072
0.116051
0.0959657
0.0838159
0.0749099
0.0708273
0.0699052
0.0675276
0.0642167
0.0557371
0.0450572
0.0332633
0.024971
0.0195282
0.0162354
0.0142874
0.0138235
0.0130245
0.0111117
0.00605688
0.00152492
0.000792824
0.00070339
0.000791355
0.000816333
0.000836854
0.000893244
0.00098767
0.00111186
0.00127854
0.00142066
0.00156139
0.00170931
0.00187235
0.00204031
0.00220298
0.00235712
0.00250962
0.00267736
0.00285318
0.00300184
0.00313034
0.00336097
0.00368387
0.00420095
0.00513937
0.00659886
0.00806365
0.00870847
0.008512
0.00834165
0.00713489
0.0065444
0.00651183
0.00671294
0.00744949
0.00866188
0.01066
0.0136154
0.0166799
0.0203914
0.0241522
0.0283235
0.0328838
0.0373128
0.0407584
0.0436601
0.0484923
0.0562275
0.0663376
0.0763577
0.0850746
0.0937668
0.104929
0.118758
0.132525
0.14392
0.149664
0.147742
0.137711
0.119403
0.100068
0.0870421
0.077175
0.0720532
0.0703108
0.0666193
0.0598243
0.0501019
0.0387346
0.0289923
0.0224767
0.0187659
0.015782
0.0143252
0.0139038
0.0127223
0.0104158
0.00525454
0.00136592
0.00079915
0.000731567
0.000795644
0.000837472
0.000877788
0.000949884
0.00105863
0.00119149
0.0013734
0.00151981
0.00167058
0.00182882
0.00200121
0.00217759
0.00234866
0.0025134
0.00267747
0.00285802
0.00304973
0.00320641
0.00331973
0.00355539
0.00390456
0.0044096
0.00533614
0.00688484
0.00842008
0.00904751
0.00880309
0.00856783
0.00729136
0.00667181
0.00664284
0.00683694
0.00760031
0.00879664
0.0108469
0.0140695
0.0172344
0.0212839
0.0252707
0.0295571
0.0342893
0.0389658
0.0427844
0.0459833
0.0511032
0.0589103
0.0694914
0.0803251
0.0897606
0.0990935
0.110676
0.124326
0.138312
0.149837
0.153753
0.151232
0.140239
0.121525
0.103522
0.0908587
0.0799017
0.0744192
0.0719976
0.0678382
0.0615809
0.0505947
0.0392858
0.0297673
0.0212509
0.0174878
0.0155225
0.0144328
0.0140122
0.0123466
0.00966351
0.00440009
0.00127135
0.000823494
0.00078007
0.000801926
0.000847629
0.000917798
0.00100965
0.00113419
0.00127645
0.00147102
0.00162557
0.00178704
0.00195683
0.00213964
0.00232474
0.002505
0.002681
0.00285779
0.00305193
0.00326057
0.00342966
0.00352211
0.00376813
0.00412147
0.00464327
0.00551585
0.00692133
0.00869889
0.00928508
0.00906701
0.00875443
0.00744037
0.00679208
0.00677306
0.0069803
0.00775586
0.00887094
0.0110947
0.0142115
0.0177438
0.0221333
0.0264085
0.0308067
0.0356941
0.0405975
0.0447642
0.048288
0.0537694
0.0618298
0.0728285
0.0845483
0.0948109
0.104738
0.116666
0.130691
0.144583
0.155349
0.158403
0.154733
0.143102
0.123629
0.106417
0.0947536
0.0829114
0.0776751
0.0742385
0.0691227
0.060377
0.0498605
0.0383428
0.0292913
0.0226861
0.0184401
0.0157019
0.0146431
0.0138551
0.012014
0.00885555
0.0038055
0.00116209
0.000855387
0.000837573
0.00082236
0.000874295
0.000957983
0.00107303
0.00121422
0.00136727
0.00157073
0.00173719
0.00191076
0.00209288
0.00228672
0.00248126
0.00267127
0.00285891
0.00304863
0.00325675
0.00348607
0.0036755
0.00373566
0.00399692
0.00436262
0.00490118
0.00576292
0.00706522
0.0085732
0.00966691
0.00940335
0.00892089
0.00758485
0.00689498
0.00688922
0.00712141
0.00794016
0.00917084
0.011317
0.0146184
0.0182312
0.0229207
0.0275548
0.0320725
0.0370931
0.0422007
0.0466834
0.0505474
0.056441
0.064916
0.0763615
0.0890305
0.100302
0.110995
0.123346
0.137512
0.151333
0.161617
0.163813
0.158265
0.145282
0.125844
0.108186
0.0973707
0.0857396
0.0808238
0.0766866
0.0699912
0.0630095
0.0512729
0.0416177
0.0330169
0.025971
0.0182835
0.015972
0.0147536
0.013923
0.0116121
0.00810515
0.00313705
0.00112578
0.000909623
0.000962498
0.000847384
0.000891394
0.00100237
0.00113741
0.00129833
0.00146292
0.00167685
0.00185469
0.00204194
0.00223741
0.00244315
0.00264783
0.00284847
0.00304837
0.00325132
0.00347277
0.0037237
0.00393971
0.00396585
0.00423827
0.00461398
0.00516203
0.0061003
0.00736406
0.00875255
0.00975293
0.00976582
0.00912512
0.00771709
0.00697648
0.00698833
0.00726185
0.00811954
0.00933999
0.0115277
0.0150709
0.0187368
0.0236473
0.0286902
0.0333567
0.0384838
0.0437713
0.0485323
0.0527388
0.0590723
0.0680158
0.0800902
0.0937327
0.106194
0.117798
0.130631
0.144979
0.158597
0.167917
0.169103
0.162154
0.147513
0.127579
0.110342
0.0986777
0.0870119
0.0818319
0.0772549
0.0681001
0.0597452
0.050473
0.0412289
0.0336724
0.0265917
0.0201529
0.0163046
0.0149256
0.0136721
0.0110938
0.00732482
0.00273728
0.00109604
0.000990506
0.00176608
0.000882145
0.000926847
0.00105219
0.00120446
0.00138626
0.00156307
0.00178695
0.00197843
0.00218053
0.00239039
0.00260887
0.0028246
0.00303686
0.00324975
0.00346613
0.00369941
0.00396467
0.00419028
0.00420852
0.00449565
0.0048907
0.00543828
0.00641089
0.00744641
0.00863969
0.0100483
0.0100286
0.00931781
0.00783491
0.0070294
0.00706164
0.0073989
0.00832571
0.00952969
0.0117157
0.0155681
0.0192806
0.0243607
0.0297938
0.0346614
0.0398652
0.0453075
0.0503052
0.054845
0.0616349
0.0710991
0.0838765
0.0986294
0.112477
0.125216
0.138661
0.153177
0.166552
0.174618
0.17466
0.166132
0.149774
0.129216
0.111957
0.100087
0.0885612
0.0840071
0.0795555
0.0705555
0.0629512
0.0559048
0.0463938
0.0353083
0.0285527
0.0193913
0.0165099
0.0149933
0.0133396
0.0106238
0.00675148
0.0024181
0.00113376
0.00116565
0.00282946
0.000923306
0.000969351
0.00110793
0.00127495
0.00147761
0.00166738
0.00190158
0.0021082
0.00232656
0.00255187
0.00278405
0.00301187
0.0032369
0.00346364
0.00369386
0.00393778
0.00420905
0.00444761
0.0044683
0.00476464
0.00518562
0.00573285
0.00643619
0.00757167
0.00892516
0.0103527
0.010268
0.00949739
0.00793421
0.00704733
0.0071065
0.00751673
0.00856891
0.00959709
0.0118938
0.0160784
0.0198716
0.0250851
0.0308551
0.0359882
0.0412386
0.0468105
0.0520009
0.0568519
0.0640994
0.0741256
0.0876747
0.103651
0.119101
0.133243
0.147491
0.162242
0.17528
0.182099
0.18095
0.170649
0.15227
0.130949
0.113781
0.100466
0.0890213
0.0838082
0.0800298
0.0707131
0.0632314
0.0550991
0.0463148
0.0349514
0.0261383
0.0191133
0.0166444
0.0151017
0.0130661
0.0101313
0.00612353
0.00218241
0.00120036
0.00138855
0.00430707
0.000976924
0.00101987
0.00117018
0.0013495
0.00157191
0.00177508
0.00202013
0.00224381
0.00248003
0.00272186
0.00296877
0.0032099
0.00344895
0.00369049
0.00393512
0.00418943
0.00446309
0.00471121
0.00473706
0.00504128
0.00549519
0.0061145
0.00682062
0.00788184
0.00905924
0.0103928
0.0105006
0.00966359
0.00801255
0.00702114
0.00703599
0.00759016
0.00890004
0.01068
0.0120926
0.0165961
0.0205131
0.025831
0.031875
0.0373344
0.0426093
0.0482835
0.0536234
0.0587494
0.0664426
0.0770541
0.0914267
0.108729
0.125998
0.14186
0.157182
0.172307
0.185073
0.190605
0.187823
0.174643
0.154632
0.132202
0.115933
0.101048
0.090257
0.0837631
0.0798818
0.0704954
0.0669594
0.0586275
0.0504225
0.0366078
0.0264251
0.0192243
0.0168792
0.0151842
0.0127445
0.00971188
0.00559641
0.00205876
0.00132257
0.00189099
0.00665735
0.00103346
0.00107784
0.00124143
0.00143007
0.00166831
0.00188537
0.00214197
0.00238454
0.00264067
0.00290043
0.00316318
0.00341893
0.00367332
0.00393068
0.00419039
0.00445506
0.00472792
0.00497344
0.00501997
0.0053253
0.00579454
0.00645408
0.00722028
0.00816624
0.00940398
0.0104332
0.0107059
0.00981595
0.00807429
0.00699312
0.0070636
0.00749525
0.00907597
0.0113318
0.013864
0.0171559
0.0212078
0.0266197
0.0328864
0.0386943
0.0439866
0.0497315
0.0551824
0.0605324
0.0686474
0.0798499
0.0950779
0.113782
0.133068
0.150997
0.167746
0.18347
0.196024
0.200805
0.196916
0.180159
0.157495
0.13361
0.117593
0.101586
0.0913717
0.0857605
0.0806327
0.0733442
0.0676434
0.057508
0.0470726
0.0363572
0.0264679
0.020219
0.0171509
0.0151754
0.0124694
0.00922809
0.00517908
0.00196608
0.00143347
0.00213129
0.00833947
0.00109656
0.0011411
0.0013195
0.0015189
0.00176621
0.00199722
0.00226625
0.00252979
0.00280812
0.00308762
0.00336748
0.00363922
0.00391025
0.00418447
0.00446004
0.00473565
0.00500699
0.00524238
0.00531697
0.00562706
0.00610782
0.0068042
0.00764704
0.00858425
0.00970149
0.0107197
0.0109162
0.009951
0.00811268
0.00693143
0.00700887
0.00761709
0.00909846
0.0117385
0.0144267
0.0177647
0.0219588
0.0274625
0.0339295
0.0400692
0.0453837
0.051161
0.0566855
0.0622072
0.0707035
0.0824852
0.0985785
0.118729
0.140194
0.160541
0.179142
0.195784
0.20827
0.2118
0.20603
0.186537
0.160931
0.135608
0.118599
0.10184
0.0916627
0.088204
0.0814626
0.0760064
0.0720856
0.0614667
0.0472622
0.0373371
0.0261713
0.019795
0.0173189
0.0149595
0.0119385
0.00870201
0.0043903
0.00196538
0.00161828
0.00298635
0.0138897
0.00116449
0.00120794
0.00140156
0.00160991
0.00186699
0.00211021
0.0023913
0.00267876
0.00298184
0.00328337
0.0035819
0.003871
0.00415989
0.00445198
0.00474431
0.00503208
0.00530499
0.00553176
0.00562654
0.00594654
0.00642792
0.00713539
0.00799466
0.00899144
0.0100406
0.0109749
0.0111136
0.0100705
0.00812962
0.00689693
0.00688221
0.00748275
0.00891223
0.0120943
0.0149752
0.0184198
0.0227686
0.0283606
0.0350038
0.0414646
0.0468195
0.0525846
0.0581437
0.0637857
0.0726107
0.084942
0.101888
0.12349
0.147245
0.170334
0.191265
0.209304
0.222269
0.225295
0.217348
0.194765
0.165394
0.137531
0.120319
0.101337
0.0908879
0.0878555
0.0812226
0.0789754
0.0725249
0.0619365
0.0518065
0.0373789
0.0263516
0.0205434
0.0172916
0.0147794
0.0114287
0.00839528
0.00412887
0.00198126
0.0018869
0.00349051
0.01514
0.00123592
0.00127339
0.00147964
0.00169707
0.00196818
0.00222746
0.00251608
0.00283039
0.00316107
0.00348753
0.00380662
0.00411448
0.00442231
0.00473318
0.00504317
0.00534456
0.00562484
0.005856
0.00594921
0.00628633
0.00677056
0.00749737
0.00836147
0.00933356
0.010378
0.0112326
0.0113041
0.0101731
0.00811283
0.006852
0.00678589
0.00737961
0.00865741
0.0123469
0.0155243
0.0191569
0.0236395
0.0293225
0.0361203
0.0428829
0.0483177
0.0540215
0.0595749
0.0652865
0.0743787
0.0872137
0.104978
0.128002
0.154089
0.18018
0.203914
0.22386
0.237909
0.241835
0.229593
0.205361
0.171867
0.140755
0.12306
0.104136
0.0949309
0.0916863
0.0821555
0.079586
0.0731671
0.0627107
0.0538921
0.0376978
0.0273325
0.0206867
0.0175936
0.0147371
0.0110397
0.00782269
0.00315517
0.00202258
0.00198803
0.00447995
0.0422231
0.00131155
0.00135212
0.00156868
0.00179334
0.00206866
0.00234567
0.00264221
0.00298342
0.00334489
0.0036997
0.00404173
0.00436977
0.00469743
0.00502786
0.00535639
0.0056725
0.0059598
0.00618832
0.00629192
0.00664079
0.00712921
0.00787356
0.00875666
0.00972158
0.010723
0.0114893
0.0114835
0.0102581
0.00807268
0.00684035
0.00677231
0.0073787
0.00877004
0.0124477
0.0160022
0.0199618
0.0245811
0.0303588
0.0372944
0.0443289
0.0499046
0.055498
0.0610045
0.0667348
0.0760275
0.0893063
0.107836
0.132214
0.160608
0.189868
0.216831
0.239164
0.254269
0.257777
0.244818
0.217448
0.180356
0.144863
0.125505
0.105622
0.0950782
0.0912238
0.0821215
0.0807889
0.0753156
0.0646999
0.0526581
0.0379324
0.0282102
0.0217161
0.0172688
0.0141317
0.0106818
0.00771148
0.00299698
0.00218222
0.00259494
0.0138997
0.276309
0.00138407
0.00143427
0.00166323
0.00189852
0.0021753
0.00245658
0.00276933
0.00313698
0.00353219
0.00391925
0.00428709
0.00463681
0.00498504
0.00533561
0.00568367
0.00601663
0.00631628
0.00655406
0.00665182
0.00701216
0.00750695
0.00826315
0.00915868
0.0101108
0.0110796
0.0117484
0.0116519
0.0103163
0.00799199
0.00683165
0.00683894
0.00727329
0.00893914
0.0123756
0.0164734
0.0207803
0.0255994
0.031484
0.0385506
0.0458215
0.0516031
0.0570484
0.0624668
0.0681627
0.0775877
0.0912388
0.110466
0.136101
0.166703
0.199191
0.229729
0.255024
0.271851
0.275416
0.261132
0.231407
0.190569
0.150543
0.128671
0.109577
0.0983992
0.0962343
0.0834892
0.0822971
0.0769251
0.0685446
0.0556696
0.0397391
0.0275935
0.0211033
0.0169421
0.0137839
0.0104778
0.00745153
0.00293864
0.00241887
0.00346565
0.0240009
0.504977
0.00147287
0.00152108
0.00176409
0.00201153
0.00228309
0.00257485
0.00289793
0.00329067
0.00372181
0.0041452
0.00454219
0.00491529
0.00528475
0.00565577
0.00602441
0.00637642
0.00668986
0.00693337
0.00703356
0.00740537
0.0078996
0.00867018
0.00957633
0.0105127
0.0114433
0.0120128
0.0118144
0.0103511
0.00786019
0.00684652
0.00691173
0.00749165
0.00930716
0.0121584
0.0167385
0.021568
0.0266914
0.0327127
0.0399182
0.0474262
0.0534391
0.0587143
0.0640071
0.0696085
0.0791
0.093044
0.112888
0.139661
0.17231
0.207957
0.242263
0.270981
0.290086
0.293975
0.279358
0.246852
0.201978
0.157664
0.13169
0.113863
0.0990966
0.0958109
0.0834213
0.0828536
0.0767462
0.0683732
0.0592365
0.0397965
0.0278668
0.0227401
0.0167147
0.0137049
0.010192
0.00718636
0.00315686
0.00297594
0.00481322
0.0355449
0.316288
0.00156944
0.00161505
0.00187139
0.00214074
0.0023948
0.00269768
0.00303202
0.00344533
0.00391276
0.00437613
0.00480615
0.00520459
0.00559593
0.00598744
0.00637784
0.0067525
0.00708298
0.00732212
0.00743844
0.00782257
0.00831298
0.00909211
0.0100092
0.0109243
0.0118127
0.0122839
0.0119781
0.0103741
0.0078579
0.00676017
0.00666592
0.00715919
0.0089731
0.0117513
0.0169595
0.0222494
0.0278426
0.0340548
0.0414119
0.0491763
0.055449
0.0605421
0.0656819
0.0711213
0.0806139
0.0947673
0.115138
0.142916
0.177399
0.21602
0.254106
0.286499
0.30818
0.312574
0.299039
0.264191
0.214098
0.164841
0.134159
0.115143
0.0986385
0.0954799
0.0842921
0.0839287
0.0768331
0.0682012
0.0562029
0.0391382
0.027646
0.0218091
0.0163572
0.0127305
0.00998179
0.00706381
0.00363883
0.00335149
0.00518821
0.0287519
0.0826638
0.00167736
0.00171696
0.00198123
0.00228946
0.00251456
0.00282905
0.0031748
0.00360386
0.00410466
0.00461037
0.00507761
0.00550372
0.00591772
0.00632939
0.00674267
0.00714541
0.00750423
0.00773388
0.00785979
0.00826154
0.00875447
0.00953132
0.0104581
0.0113458
0.0121814
0.0125551
0.0121432
0.0103543
0.00780922
0.00674039
0.00664607
0.00696372
0.00861351
0.0113868
0.017116
0.0227038
0.0290154
0.0355178
0.0430459
0.0510887
0.0576712
0.0625824
0.0675475
0.072761
0.0821881
0.0964658
0.117266
0.145911
0.181983
0.223294
0.265005
0.30112
0.325219
0.329004
0.319027
0.283835
0.230191
0.174808
0.140509
0.119746
0.0983224
0.0931817
0.0846839
0.083913
0.078111
0.0713809
0.056021
0.0398232
0.0278791
0.0221435
0.0162397
0.0124765
0.00948041
0.00722998
0.00428762
0.00404309
0.00989103
0.0455285
0.0412221
0.00179687
0.0018296
0.00208783
0.00242363
0.00264666
0.00297056
0.00332977
0.0037712
0.00429844
0.00484619
0.00535473
0.00581125
0.00624897
0.00668011
0.00711683
0.00755408
0.00797193
0.00825747
0.00827254
0.00868918
0.00922838
0.00999084
0.0109236
0.0117769
0.0125416
0.0128072
0.0122992
0.0102995
0.00765985
0.00669701
0.00660257
0.00703369
0.00840419
0.0119226
0.0172569
0.0230609
0.0301313
0.0371015
0.0448389
0.0531829
0.0601425
0.0648969
0.0696697
0.0745974
0.0838904
0.0982074
0.119338
0.148707
0.186105
0.229753
0.27482
0.314712
0.34201
0.347205
0.336959
0.303989
0.24729
0.186736
0.150224
0.129552
0.106763
0.0965705
0.0853477
0.0848885
0.0791273
0.0705097
0.0612302
0.0394196
0.0275431
0.021654
0.0169442
0.0122449
0.00931599
0.00704787
0.00485864
0.0050651
0.01155
0.048008
0.0354617
0.00192854
0.00195625
0.00219494
0.00244054
0.00278547
0.00312107
0.00349557
0.00395103
0.00449741
0.00508243
0.00563523
0.00612526
0.00658822
0.00703785
0.00749721
0.00796981
0.008467
0.00886672
0.00872641
0.0090573
0.00972472
0.0104784
0.011406
0.0122203
0.0128977
0.0130214
0.0123655
0.0102241
0.00749945
0.00665756
0.00678132
0.00732106
0.00856895
0.0116457
0.0173593
0.0233465
0.0310535
0.0387878
0.0468103
0.0554775
0.0628946
0.0675571
0.0721224
0.0767129
0.085798
0.10007
0.121427
0.151381
0.189833
0.235399
0.283385
0.326777
0.357199
0.36351
0.353973
0.323121
0.264273
0.198616
0.156896
0.133497
0.108803
0.0953928
0.085686
0.0841079
0.0790012
0.0713686
0.0584783
0.0417167
0.0284766
0.0210065
0.0155471
0.0120317
0.0086904
0.00715515
0.00526127
0.0054092
0.0125572
0.046802
0.0363797
0.00207247
0.00209541
0.00233285
0.00258195
0.0029251
0.00328123
0.00367232
0.00414352
0.00470596
0.00532011
0.0059166
0.00644333
0.00693365
0.00740102
0.00788137
0.00838308
0.00892019
0.00932429
0.00932022
0.0094964
0.0102088
0.0110018
0.0119061
0.0126794
0.0132602
0.0132654
0.0124201
0.010115
0.00734658
0.00664659
0.00669699
0.00733599
0.00892923
0.0125267
0.0174378
0.0235675
0.0316921
0.0405211
0.0489783
0.0579918
0.0659493
0.0706456
0.0749873
0.0792057
0.0879979
0.102143
0.123618
0.154016
0.193253
0.240274
0.290597
0.336872
0.369783
0.37648
0.367261
0.340155
0.280826
0.208363
0.159596
0.13503
0.107936
0.0949313
0.084563
0.0824226
0.0770591
0.0713217
0.0620344
0.0418436
0.0307059
0.0212853
0.0152788
0.0110021
0.00871316
0.00714788
0.00577294
0.00687402
0.0176548
0.0755582
0.0438397
0.00222884
0.00224591
0.00247309
0.00271636
0.00307208
0.00345077
0.00386178
0.00434931
0.00492553
0.00556252
0.00619715
0.00676247
0.007283
0.00776813
0.00826872
0.00879807
0.00935827
0.00980421
0.00966172
0.00998303
0.0107179
0.0115534
0.0124277
0.013153
0.0136324
0.0135974
0.0124443
0.0099886
0.00724088
0.0067299
0.0066246
0.00731283
0.00955861
0.0125876
0.0175046
0.023764
0.0322452
0.0421748
0.0513541
0.0607523
0.069317
0.0742537
0.0783539
0.0821919
0.0905885
0.104525
0.126007
0.156705
0.196475
0.244475
0.296482
0.344793
0.378975
0.384419
0.374837
0.351073
0.297441
0.22023
0.161393
0.134057
0.10241
0.0899759
0.0825966
0.0798328
0.0739334
0.0688736
0.0611634
0.0419181
0.027388
0.0205706
0.0158642
0.0109759
0.00864128
0.00730309
0.00687576
0.00749486
0.0208819
0.105937
0.0470946
0.00239972
0.00240984
0.0026187
0.0028567
0.00322139
0.00362818
0.00406312
0.00456856
0.00515719
0.00581248
0.00647743
0.0070794
0.00763344
0.00813755
0.00865854
0.00921996
0.00980985
0.0102732
0.0101759
0.0105393
0.0112502
0.0121341
0.0129723
0.0136377
0.0139578
0.0137262
0.0123691
0.00980075
0.00720821
0.00673247
0.00671346
0.00748402
0.00968914
0.0126867
0.0175753
0.023934
0.0326804
0.0435147
0.0539272
0.0638006
0.0730094
0.0784688
0.0823209
0.0858075
0.0936826
0.107328
0.1287
0.159547
0.199618
0.248143
0.301207
0.350758
0.385096
0.38755
0.374817
0.347605
0.302688
0.247402
0.175872
0.148686
0.122977
0.0876095
0.0785077
0.0758447
0.0697757
0.0660225
0.0591978
0.0426874
0.0285892
0.0198627
0.0158342
0.0106844
0.00861092
0.00734363
0.00745718
0.0109883
0.0217465
0.1306
0.0432237
0.00258667
0.00259098
0.00276159
0.00299971
0.00337213
0.0038125
0.00427499
0.00480051
0.00540095
0.00607095
0.00676008
0.00739186
0.00798145
0.0085072
0.00904871
0.00964913
0.0102925
0.010786
0.0106993
0.0111803
0.0118396
0.0127491
0.0135424
0.0141481
0.0143155
0.0138473
0.0122402
0.00951617
0.00701776
0.00672629
0.00685415
0.00786628
0.00983349
0.0130451
0.0176606
0.0240858
0.0330193
0.0445265
0.0566252
0.0671988
0.0771095
0.0833607
0.08699
0.0902018
0.0974129
0.110681
0.13182
0.162648
0.202805
0.251421
0.304958
0.355136
0.389745
0.392554
0.388196
0.35284
0.321086
0.257645
0.1861
0.155381
0.1335
0.0896217
0.0773712
0.0712696
0.0658425
0.0621774
0.0569584
0.0459525
0.0283743
0.0197578
0.0153768
0.010899
0.00882998
0.00851768
0.00922219
0.0125339
0.0345001
0.129452
0.0415647
0.00279061
0.00280281
0.00290165
0.00314221
0.00352206
0.00400252
0.00449616
0.00504381
0.00565627
0.00633849
0.00704712
0.00770027
0.00832329
0.00887462
0.00943561
0.0100748
0.0107893
0.0113504
0.0111749
0.011738
0.0124571
0.0133955
0.0141377
0.0146765
0.0147292
0.0139692
0.0120369
0.00911235
0.00693514
0.00684601
0.00702979
0.00793331
0.0100963
0.0131449
0.0177566
0.024227
0.0333018
0.0454032
0.0592519
0.0709885
0.0817502
0.0890286
0.0925242
0.0955288
0.101937
0.114731
0.13551
0.166135
0.206171
0.254456
0.307839
0.357687
0.389933
0.38558
0.38609
0.36115
0.320782
0.256045
0.197532
0.159319
0.122989
0.0777893
0.0746818
0.06669
0.0614497
0.0581018
0.0541887
0.0460363
0.0322437
0.0192727
0.0148778
0.0109071
0.00888764
0.00837567
0.00985778
0.0128057
0.0338207
0.112849
0.0391016
0.00301628
0.00300646
0.00306034
0.0032831
0.00366905
0.00419617