/*--------------------------------*- C++ -*----------------------------------*\
| =========                 |                                                 |
| \\      /  F ield         | OpenFOAM: The Open Source CFD Toolbox           |
|  \\    /   O peration     | Version:  4.1                                   |
|   \\  /    A nd           | Web:      www.OpenFOAM.org                      |
|    \\/     M anipulation  |                                                 |
\*---------------------------------------------------------------------------*/
FoamFile
{
    version     2.0;
    format      ascii;
    class       volScalarField;
    location    "25";
    object      nut;
}
// * * * * * * * * * * * * * * * * * * * * * * * * * * * * * * * * * * * * * //

dimensions      [0 2 -1 0 0 0 0];

internalField   nonuniform List<scalar> 
6785
(
0.270463
1.06536e-08
9.95503e-09
9.9547e-09
9.956e-09
9.95389e-09
9.95513e-09
9.95583e-09
9.95365e-09
9.95486e-09
9.95544e-09
9.95251e-09
9.99299e-09
4.65636e-08
0.303875
0.305805
1.13348e-05
7.23553e-11
6.75881e-11
6.44439e-11
6.11768e-11
5.80337e-11
5.4869e-11
5.16251e-11
4.83193e-11
4.51599e-11
6.72564e-11
4.08597e-07
0.000387702
0.159087
0.340644
0.00112377
4.49413e-11
1.25723e-11
1.53647e-09
1.37739e-08
4.67743e-08
1.35046e-07
7.04679e-07
6.47568e-06
4.572e-05
0.000200919
0.000846922
0.0232216
0.0500273
0.379022
0.0084119
3.15357e-06
1.58207e-07
4.93062e-08
3.47374e-07
2.14142e-06
6.46044e-06
1.50836e-05
0.000128901
5.06672e-05
0.000200301
0.0006755
0.00901892
0.0358861
0.413766
0.0125844
0.000123892
1.51402e-06
1.91581e-06
5.34878e-05
0.000882175
0.005665
0.16772
0.0547461
0.0184904
0.00938432
0.00336313
0.00386419
0.0426167
0.446113
0.0107667
1.46001e-05
7.71762e-05
0.0120484
0.384314
0.965338
0.825669
2.44517
23.1831
0.692005
0.035868
0.0100685
0.00357941
0.0613413
0.477613
0.0171267
7.27757e-05
0.00315064
0.299144
0.423525
1.47259
0.707533
0.709698
0.799159
1.36958
0.154676
0.105556
0.0514525
0.079246
0.5022
0.100897
0.00257987
0.00231928
0.0147374
0.0275235
0.0388354
0.0463612
0.0622488
0.120117
0.650423
0.322898
0.0764361
0.0553791
0.0773171
0.515104
0.187541
0.109969
0.00891802
0.0104523
0.0186784
0.0311148
0.0272529
0.0367947
0.0415686
0.0509821
0.0457656
0.0662214
0.0175109
0.057019
0.516206
0.225002
0.184902
0.0927155
0.0145152
0.0179252
0.0306216
0.032117
0.035905
0.0386865
0.0245351
0.010698
0.0058082
0.0132713
0.0479729
0.509801
0.20902
0.0820058
0.0620603
0.0212011
0.018814
0.0350264
0.0606729
0.0581786
0.0482392
0.0245969
0.0099507
0.00452641
0.00393432
0.04821
0.500673
0.257649
0.126258
0.090763
0.0428287
0.0207054
0.0486419
0.0521553
0.0911613
0.0628462
0.0263058
0.00923699
0.0044323
0.00331394
0.0460724
0.493737
0.221223
0.0926029
0.0753677
0.0581221
0.0318114
0.040822
0.0462644
0.0708239
0.0642767
0.0384049
0.0154606
0.00674595
0.00364736
0.0506874
0.474638
0.188036
0.12077
0.0729858
0.0494529
0.0325653
0.142294
0.0425031
0.109132
0.107968
0.0320653
0.0152981
0.00746129
0.00701726
0.0742076
0.50331
0.230514
0.36614
0.424628
0.0772937
5.61881e-28
0.0279614
0.366776
0.632664
0.644685
0.172991
0.0301458
0.00128302
0.0137746
0.0732611
2.87937
5.07994
2.75183
2.72561
2.70367
4.84449
2.64121
2.62681
2.61358
4.70467
2.57126
2.56093
4.616
2.52494
2.51621
2.50696
4.52456
2.47463
2.4677
4.4632
2.44647
2.44338
2.44169
4.43754
2.42896
2.42621
2.42697
4.42548
2.41568
2.41129
4.39147
2.38121
2.36891
2.36362
4.31534
2.33541
2.32387
4.23507
2.27636
2.256
2.2441
4.10206
2.21108
2.19904
2.19772
4.06622
2.192
2.18312
4.02914
2.14498
2.12041
2.10646
3.89584
2.06115
2.03609
2.02143
3.7693
1.98252
1.96277
3.67427
1.89687
1.86671
1.84982
3.50546
1.78971
1.76818
3.36537
1.71379
1.69548
1.69236
3.21868
1.73283
1.74913
1.77073
3.30074
1.81605
1.8329
3.34552
1.84442
1.85478
0.694894
0.627608
0.591031
0.637987
0.483884
0.491135
0.47121
0.448329
0.417802
0.404704
0.411365
0.446434
0.453683
0.349111
0.337344
0.310403
0.31663
0.319453
0.317968
0.31501
0.318915
0.293971
0.217596
0.210744
0.204158
0.196658
0.203798
0.20339
0.18741
0.187925
0.180625
0.146345
0.14453
0.137982
0.129926
0.116473
0.115729
0.103804
0.110457
0.114843
0.100263
0.0919252
0.087762
0.0816291
0.0738765
0.0780984
0.0712391
0.0759311
0.069826
0.0760031
0.079649
0.0821229
0.0826357
0.0970661
0.0956602
0.110026
0.110937
0.125156
0.134977
0.142004
0.146834
0.159564
0.168974
0.188083
0.195482
0.21263
0.220966
0.229513
0.243529
0.26256
0.274778
0.283598
0.305515
0.315906
0.332124
0.35386
0.38442
0.79427
0.502562
0.829189
2.04442
3.37424
3.45309
2.1909
3.62172
2.2999
3.80849
3.89836
2.4727
4.08417
4.17856
2.65225
4.38153
2.79149
4.62448
4.75711
3.03873
5.03286
3.20368
5.32199
5.48702
3.48811
5.80932
5.93806
3.68224
6.17394
3.78841
6.40557
6.49132
3.89456
6.40933
3.87009
6.40274
6.4837
3.91257
6.39991
6.40578
3.85706
6.20341
3.74317
6.00577
5.93682
3.57587
5.73178
3.46316
5.71037
6.19018
3.77535
7.39219
7.6723
4.59298
7.03768
4.23123
6.54396
6.36223
3.82455
6.00913
3.62073
5.714
5.57163
3.35529
5.29295
5.13114
2.85914
2.268
0.89739
1.41317
1.41153
0.868993
1.4041
0.870049
1.40593
1.40046
0.868561
1.40356
1.39819
0.866874
1.40089
0.861737
1.39862
35.9306
42.9335
48.2687
53.0813
55.4767
55.5267
55.3465
54.2904
56.2916
60.3827
64.1303
68.4557
73.9136
80.8065
86.6221
91.4012
96.9031
101.963
107.442
113.219
113.403
108.305
102.984
94.0294
88.8689
91.8126
97.34
114.223
143.764
166.803
180.552
193.936
198.021
196.291
192.251
191.364
195.8
199.37
198.167
199.533
199.84
201.751
203.205
189.493
158.372
128.209
109.667
93.9959
75.4406
56.4603
40.9876
29.8843
23.5181
19.197
15.3283
12.9808
12.2847
13.5775
15.0262
15.3389
15.7689
16.5477
18.2611
20.3098
22.7097
24.8677
26.7067
29.2631
31.2779
31.4063
29.954
26.9531
21.1584
14.3773
8.99256
5.66152
5.4564
3.04083
1.8882
37.0361
44.6735
50.3144
55.5081
58.054
58.1644
57.9637
56.7465
58.1433
63.1915
66.9683
71.05
76.0556
83.3082
89.6759
94.8128
100.22
105.594
111.67
118.446
117.633
112.718
107.636
98.4385
92.5616
97.492
101.06
117.834
147.522
172.778
186.254
199.723
204.141
202.628
200.961
197.754
200.097
204.158
204.329
205.853
208.472
208.043
208.834
197.095
167.637
135.722
114.789
97.1586
78.0792
58.3095
42.042
30.1681
23.43
19.0882
14.9072
12.2293
11.2194
11.6181
13.2249
14.2404
14.7051
15.002
15.503
16.169
17.6156
18.8335
20.5706
22.6771
24.9825
26.1811
25.1829
23.4853
18.7036
12.6713
7.94344
4.83931
4.62432
2.69394
1.89066
37.7898
44.8364
50.4125
55.5865
57.5733
57.3659
56.6544
55.6357
59.1328
62.3499
66.2508
70.3165
74.7036
81.4924
88.0129
93.6721
98.6743
103.932
110.369
117.493
120.565
116.543
112.735
103.478
96.0182
99.445
105.692
119.895
149.821
175.179
190.262
202.794
207.105
204.992
200.423
195.737
193.111
200.884
206.414
208.717
208.784
208.599
208.895
198.279
171.542
138.591
116.714
99.0395
79.4823
59.0801
41.9961
29.783
22.6529
17.6853
13.6684
11.3888
10.3553
10.5958
11.906
13.0008
13.6635
13.8635
13.8546
13.9686
14.8597
16.1995
18.0233
19.966
21.6331
22.946
22.826
21.5579
16.8632
11.3714
6.9876
4.31051
4.24173
2.49458
1.89338
38.8817
45.5544
51.1225
56.0325
57.8609
57.6622
57.1383
57.0788
59.2205
62.8186
66.6845
70.9167
76.0933
81.9552
88.2158
93.7421
98.8243
104.147
110.813
117.414
120.305
115.535
112.595
108.73
99.7791
103.827
107.43
123.013
152.591
178.23
193.178
205.853
210.53
208.677
203.531
198.63
198.705
201.889
207.421
210.954
212.01
211.5
211.285
201.66
176.588
143.057
118.133
98.7588
80.719
59.9439
42.4481
29.8698
21.2399
16.3823
12.638
10.5118
9.4792
9.67181
10.7785
11.5023
12.2704
12.4167
12.1964
12.3022
12.8604
14.2307
15.9293
17.7796
20.0419
21.3039
21.07
19.5669
14.7108
10.0647
6.13948
3.88269
3.96255
2.42517
1.89896
40.1875
46.3481
51.8159
56.4087
57.9949
57.6552
56.7952
57.1551
59.6582
63.1654
67.0587
71.1213
76.0063
81.8772
88.1148
93.6642
98.5618
103.874
110.154
116.865
120.742
115.701
114.485
108.272
103.39
105.037
112.66
125.662
155.635
181.61
196.862
209.716
214.854
213.576
207.108
200.614
199.751
203.065
209.262
213.742
215.297
214.83
214.11
205.099
180.575
147.232
120.103
98.9558
79.4965
60.3319
42.7749
28.6454
20.8666
15.2373
11.8011
9.81648
8.85629
8.83153
9.63141
10.218
10.8487
11.1876
11.168
10.9777
11.1024
12.2647
14.0566
16.7942
18.5957
20.207
19.7153
17.6712
13.0656
8.76215
5.37091
3.56443
3.69534
2.34438
1.923
42.0163
47.3158
52.705
56.814
58.1945
57.8746
56.7875
57.6002
60.0721
63.61
67.5085
71.6266
76.4495
82.0813
88.1513
93.714
98.5207
103.893
110.098
115.815
121.026
123.182
116.187
107.971
102.303
105.492
115.278
128.559
158.761
185.301
200.916
214.058
219.527
219.288
211.749
203.268
201.846
204.408
211.068
216.542
218.702
218.365
217.219
208.729
184.735
151.763
122.421
99.3677
78.7571
58.55
40.7995
28.1089
19.5033
14.0963
10.9823
9.11692
8.24739
8.20326
8.78426
9.16155
9.58182
9.67848
9.47726
9.54874
9.69244
10.634
12.2897
15.1388
17.7086
19.0723
18.4411
15.9658
11.7137
7.88815
4.81693
3.32629
3.50651
2.34654
1.95293
44.0676
48.3569
53.7741
57.1958
58.3531
58.1086
56.775
57.9748
60.5017
64.0318
67.9262
72.1111
76.9112
82.403
88.2611
93.6363
98.4393
103.817
110.329
115.012
119.741
122.447
117.577
107.33
101.586
105.369
117.844
129.839
162.428
189.279
205.302
219.024
224.595
225.697
217.495
206.048
204.564
205.936
212.832
219.3
222.058
221.943
220.465
212.373
188.725
156.064
124.91
99.9875
78.1937
57.516
39.5914
26.5659
18.2981
13.2456
10.2524
8.54114
7.69192
7.61282
7.99349
8.2963
8.65445
8.75783
8.59446
8.77221
9.37156
10.6135
12.8124
15.6025
17.7641
18.0575
17.3879
14.6369
10.6301
7.1982
4.38787
3.15324
3.39313
2.34591
1.99182
46.1761
49.8817
54.6208
57.5923
58.4937
58.3439
56.9072
58.3829
60.9332
64.4596
68.3832
72.634
77.4543
82.845
88.5615
93.7714
98.2949
103.518
110.484
115.005
118.938
122.325
118.304
107.28
101.347
105.743
118.725
131.711
165.642
193.58
210.025
224.809
230.458
232.687
223.871
209.012
208.092
207.763
214.533
221.993
225.381
225.538
223.811
215.991
192.541
160.154
127.557
100.784
77.8007
56.471
38.342
25.4377
17.2606
12.3536
9.6097
8.00433
7.23587
7.15535
7.36588
7.53285
7.86584
7.91699
7.78401
7.93242
8.33979
9.59746
11.5264
13.8876
17.2368
17.8592
16.3437
13.4035
9.61209
6.56979
4.01632
3.12374
3.2528
2.34946
2.02617
48.2353
52.082
55.5852
57.9715
58.6396
58.5862
57.198
58.7952
61.3663
64.8672
68.7964
73.1234
77.9658
83.2603
88.817
93.8487
98.0798
103.021
110.539
114.762
118.682
121.789
119.498
111.202
102.051
107.243
119.973
134.162
169.005
198.112
214.828
230.008
236.226
241.385
229.046
216.63
212.149
210.066
216.168
224.562
228.633
229.104
227.225
219.566
196.169
163.794
130.238
101.778
77.6591
55.7652
37.4183
24.432
16.3521
11.6134
8.99674
7.50717
6.79408
6.73748
6.85557
6.88978
7.19865
7.16311
7.09292
7.2703
7.90873
9.03093
10.9427
13.0841
14.9944
15.7544
15.0214
12.2063
8.83063
5.94197
3.7111
3.03467
3.27102
2.38587
2.08799
49.5067
53.309
56.5839
58.3026
58.8023
58.8239
57.6579
59.2502
61.8122
65.2849
69.2132
73.6067
78.476
83.6876
89.0967
93.9511
97.8024
102.256
110.56
114.386
118.074
120.972
119.4
113.383
107.569
107.021
120.258
136.863
172.428
203.159
220.105
235.287
241.109
244.056
234.84
220.299
216.446
212.952
217.805
226.97
231.789
232.612
230.667
223.069
199.635
167.049
132.827
102.898
77.6861
55.2435
36.6864
23.6413
15.59
10.9417
8.41836
7.05277
6.41492
6.34451
6.46613
6.42335
6.65594
6.55953
6.51966
6.78415
7.1337
8.24689
9.45229
10.8791
12.273
14.8742
13.7785
11.1921
7.95017
5.3798
3.4342
3.14553
3.20418
2.45109
2.29628
50.5689
55.1725
57.3818
58.7227
58.9976
59.1085
58.1179
59.7533
62.2754
65.7107
69.6262
74.0749
78.9623
84.0945
89.3628
94.0664
97.5412
101.39
110.386
113.998
117.542
120.445
117.727
113.214
109.338
110.029
120.223
138.915
176.081
208.844
225.935
240.557
246.086
250.245
240.986
223.422
220.527
216.359
219.566
229.183
234.819
236.017
234.076
226.454
202.932
170.159
135.194
104.095
77.8719
54.9382
36.1858
23.0432
14.9821
10.4009
7.93194
6.63312
6.06409
6.00422
6.0883
6.09219
6.30234
6.21624
6.19634
6.65196
7.15512
7.94942
9.03562
10.0838
11.3099
12.6945
12.619
10.2065
7.29191
4.90664
3.23063
3.14728
3.25339
2.68122
2.38528
51.1496
55.9854
57.9492
59.1336
59.229
59.4491
58.6643
60.2983
62.77
66.1572
70.051
74.5365
79.4276
84.4797
89.6131
94.2078
97.5088
101.214
110.158
113.501
116.695
119.792
116.965
116.478
114.784
110.592
121.369
141.066
180.007
215.397
232.598
245.877
250.155
255.84
247.685
226.038
224.193
219.848
221.572
231.171
237.688
239.263
237.38
229.65
205.985
173.02
137.422
105.278
78.1565
54.7923
35.8772
22.6333
14.5214
9.97292
7.52382
6.26755
5.74696
5.69536
5.7698
5.78464
5.9696
5.83684
5.79642
6.16993
6.50891
6.86188
7.65871
9.14805
9.98902
12.4561
11.6614
9.35369
6.70187
4.45351
3.00218
3.19387
3.25393
2.88626
2.59316
51.5021
56.5012
58.3149
59.5044
59.5004
59.849
59.2679
60.8864
63.2959
66.6293
70.4952
74.9959
79.8692
84.8345
89.8311
94.3395
97.6585
101.139
109.777
113.028
115.754
118.982
121.641
119.038
115.02
111.014
122.709
143.338
184.299
223.056
240.201
251.741
252.993
264.665
254.605
228.587
227.393
223.233
223.862
232.914
240.352
242.288
240.496
232.586
208.724
175.544
139.41
106.379
78.4796
54.766
35.7353
22.3946
14.2091
9.64532
7.18342
5.94771
5.4631
5.41311
5.46812
5.55963
5.73883
5.66028
5.57846
5.95034
6.24938
6.69746
7.35972
8.83743
10.3944
11.9608
10.8259
8.52689
6.11197
4.05838
2.86796
3.27198
3.32494
3.16903
2.66583
51.3719
56.7277
58.5086
59.8261
59.8178
60.3209
59.9342
61.5086
63.847
67.1312
70.9657
75.4578
80.2875
85.1542
90.0052
94.422
97.8138
101.15
109.452
112.674
114.851
116.747
119.735
118.774
117.21
114.228
124.043
145.734
189.016
232.201
251.865
259.001
253.183
247.447
261.025
231.12
230.127
226.461
226.414
234.431
242.759
245.031
243.335
235.197
211.065
177.644
141.065
107.304
78.7686
54.8009
35.7188
22.3043
14.0263
9.41552
6.92731
5.71927
5.23511
5.18914
5.18594
5.34683
5.48388
5.49588
5.43105
5.79376
5.71722
6.084
6.51697
8.10566
9.82791
11.276
9.98542
7.76458
5.5813
3.68809
2.76157
3.31861
3.39963
3.10154
2.60446
51.3535
56.7714
58.4744
60.0367
60.1963
60.8718
60.6664
62.1744
64.428
67.6631
71.4643
75.9245
80.6827
85.4347
90.1272
94.4383
97.9374
101.374
109.048
112.415
114.488
115.762
117.858
118.942
116.759
117.439
125.626
148.261
194.066
241.517
260.164
272.16
257.73
242.349
237.007
233.146
232.402
229.384
228.994
235.773
244.851
247.44
245.797
237.41
212.921
179.221
142.281
107.956
78.9429
54.8339
35.7811
22.3353
13.9669
9.25993
6.70633
5.5224
5.05011
5.00586
4.96904
5.17007
5.27419
5.23696
5.25079
5.42929
5.50943
6.02477
6.76147
7.875
9.40661
10.1786
9.18282
7.09331
5.07284
3.39919
2.67776
3.44631
3.65345
3.67467
2.92415
51.304
56.819
58.3958
60.0921
60.6357
61.5102
61.4705
62.888
65.0434
68.2241
71.9886
76.3953
81.0551
85.6732
90.1901
94.3683
97.951
101.608
108.561
112
114.097
114.932
115.918
117.313
116.994
117.927
127.099
150.979
199.63
252.141
271.585
277.59
266.602
242.889
236.799
234.61
234.236
231.956
231.352
236.958
246.574
249.475
247.814
239.127
214.2
180.176
142.95
108.233
78.9152
54.7946
35.8678
22.4532
14.0138
9.22501
6.6055
5.38934
4.91532
4.85539
4.8259
5.04482
5.14741
4.99378
5.09652
5.13332
5.05721
5.50214
6.5543
7.42582
9.14569
9.87794
8.48491
6.55357
4.71184
3.18323
2.90073
3.54347
3.86853
3.48928
2.38785
51.3418
57.0058
58.4574
60.3107
61.0979
62.2257
62.3703
63.656
65.7004
68.812
72.5324
76.8665
81.404
85.8679
90.1893
94.1964
97.769
101.577
108.014
111.424
113.757
114.629
115.492
116.122
116.807
118.783
128.666
153.869
205.693
261.913
286.151
292.605
282.026
244.62
237.019
235.643
235.658
234.236
233.539
237.998
247.868
251.09
249.327
240.256
214.812
180.413
142.965
108.028
78.5939
54.6076
35.917
22.6083
14.1203
9.23344
6.55519
5.2995
4.82568
4.77081
4.70616
5.00094
5.12067
4.95072
5.04393
4.86708
4.94312
5.35647
5.8435
7.20904
8.75372
9.04526
7.91564
6.02993
4.38538
2.94751
2.90738
3.74023
4.05875
4.03748
3.41874
51.5274
57.5634
58.9825
60.921
61.6919
62.893
63.3675
64.4897
66.4069
69.4255
73.0882
77.3324
81.7281
86.0177
90.1234
93.9211
97.3564
101.053
107.386
110.633
113.149
113.939
114.909
115.921
116.68
119.569
130.264
156.964
212.606
272.183
299.907
306.95
300.691
248.605
237.572
235.922
236.71
236.214
235.543
238.94
248.679
252.239
250.28
240.717
214.674
179.844
142.227
107.241
77.8889
54.1973
35.8673
22.7604
14.2671
9.26056
6.59529
5.24742
4.76202
4.71185
4.60656
4.84559
4.87198
4.71398
4.94992
4.78729
4.84708
5.21782
5.5161
6.97329
8.14709
8.53271
7.23174
5.49087
4.0616
2.86794
3.69182
4.04142
4.90911
4.87232
4.2924
51.8414
57.8153
59.3288
61.4191
62.4328
63.5603
64.4005
65.4028
67.1719
70.0652
73.6493
77.7865
82.0248
86.1221
89.9921
93.554
96.8466
100.54
106.557
109.731
112.364
113.122
114.01
115.175
116.466
120.328
131.946
160.285
220.182
281.195
310.204
317.337
307.34
255.861
239.581
235.787
237.388
237.857
237.33
239.823
248.967
252.877
250.624
240.446
213.72
178.401
140.655
105.783
76.7169
53.4903
35.6551
22.8642
14.4664
9.42687
6.65968
5.25871
4.73323
4.70223
4.58646
4.8156
4.8844
4.75243
4.9564
4.7098
4.68974
5.01845
5.57097
6.78364
7.62827
7.71438
6.83457
5.1994
3.78028
2.68709
3.90242
4.3565
5.46271
3.96135
8.88868
52.5737
58.2153
59.7128
61.8591
63.1137
64.479
65.4759
66.3997
68.0073
70.7343
74.2109
78.2228
82.2909
86.1804
89.794
93.0829
96.1441
99.6353
105.599
108.697
111.399
112.21
113.091
114.452
116.13
121.028
133.713
163.989
228.992
290.086
316.755
332.54
312.152
267.061
242.018
235.951
237.72
239.09
238.824
240.622
248.739
252.957
250.316
239.403
211.902
176.04
138.193
103.588
75.0097
52.4223
35.2182
22.8545
14.632
9.60896
6.78698
5.31814
4.74984
4.72468
4.61206
4.74083
4.79288
4.56503
4.92383
4.65486
4.60704
4.72956
5.22527
6.35444
7.54056
7.52105
6.45069
4.84734
3.50385
2.62807
4.16263
4.88473
6.65947
5.65884
14.9612
52.9851
58.7267
60.1273
62.2807
63.9102
65.3147
66.5686
67.477
68.923
71.4384
74.7707
78.6371
82.5233
86.1931
89.5303
92.5161
95.3321
98.6821
104.456
107.484
110.352
111.153
112.044
113.62
115.731
121.646
135.505
168.036
239.523
297.93
322.844
333.263
310.328
282.106
247.797
236.947
237.806
239.878
239.938
241.089
248.018
252.44
249.316
237.582
209.209
172.752
134.824
100.62
72.7222
50.9455
34.5093
22.6883
14.7333
9.79398
6.93075
5.4221
4.82067
4.78599
4.71937
4.72736
4.89435
4.7003
5.02755
4.69705
4.66713
4.76159
4.88744
6.23503
7.21079
6.59773
6.04644
4.44829
3.3172
2.64662
4.23421
5.19113
7.69796
6.44658
13.4497
53.4405
59.2766
60.5835
62.4016
64.7569
66.1702
67.605
68.6193
69.924
72.1868
75.3298
79.0271
82.7191
86.1608
89.2021
91.8438
94.384
97.7316
103.125
106.099
109.112
109.995
110.889
112.723
115.293
122.174
137.238
172.247
246.266
310.267
344.44
359.786
333.122
302.927
254.52
239.476
237.819
240.271
240.693
241.184
246.807
251.313
247.597
234.998
205.665
168.568
130.574
96.8838
69.8396
49.033
33.4945
22.3306
14.7447
9.96214
7.07193
5.54179
4.94503
4.92473
4.9273
4.9201
5.13568
4.89217
5.12861
4.75029
4.74406
4.8175
5.13966
6.22968
7.00295
6.48421
5.71135
4.39427
3.17035
2.6962
4.18128
6.17187
10.713
10.5712
17.657
53.8668
59.8735
61.2207
62.1917
65.551
66.966
68.5552
69.7873
71.0045
72.9872
75.8913
79.3928
82.8765
86.0854
88.8149
91.0597
93.2056
96.6046
101.716
104.567
107.613
108.718
109.631
111.773
114.884
122.683
138.91
177.154
254.478
319.667
355.08
381.401
359.078
324.454
262.482
244.725
238.162
240.344
241.126
240.968
245.136
249.589
245.189
231.693
201.343
163.571
125.52
92.4301
66.3839
46.683
32.1534
21.7503
14.6435
10.1277
7.19992
5.64315
5.02865
5.04454
5.06312
5.04402
5.45124
5.25759
5.31182
4.90459
4.77421
4.65891
5.14659
6.00312
6.66797
6.00236
5.32328
4.1488
3.18595
2.72385
4.17873
6.88557
7.97613
8.35615
17.5388
54.2978
60.4475
62.2042
62.57
66.1616
67.6483
69.3796
70.892
72.1309
73.8455
76.4615
79.7365
82.9948
85.9698
88.3814
90.1778
91.618
94.3022
100.549
103.308
105.84
107.295
108.284
110.785
114.576
123.358
140.636
182.671
266.191
330.206
367.022
389.194
380.73
321.592
271.016
251.345
239.491
240.216
241.262
240.504
243.071
247.285
242.145
227.744
196.36
157.893
119.793
87.362
62.4192
43.9248
30.4843
20.9119
14.3386
10.1156
7.3234
5.7313
5.11604
5.15086
5.13202
5.01097
5.3546
5.35944
5.51675
5.02819
4.83493
4.77519
4.69007
5.92341
6.45369
5.75731
4.73437
3.95512
3.16423
2.98251
4.45689
7.37186
9.38017
10.1182
16.1594
54.7251
60.9041
63.3712
66.1357
66.7133
68.2462
70.1426
71.8733
73.2383
74.7594
77.0511
80.0642
83.0745
85.8166
87.9223
89.2945
89.8984
91.3737
99.0349
102.815
103.948
105.684
106.862
109.742
114.321
124.372
143.341
188.59
278.697
340.583
366.741
385.262
386.206
341.669
280.55
259.138
242.844
240.11
241.135
239.871
240.721
244.43
238.548
223.254
190.875
151.716
113.575
81.8321
58.0527
40.8259
28.5233
19.8325
13.8534
9.99425
7.37151
5.79737
5.19842
5.27396
5.33641
5.24951
5.63349
5.75848
5.77208
5.27108
4.96566
4.7639
4.8696
5.43843
5.94262
5.56052
4.81202
3.81881
3.3921
3.23056
5.06885
9.2049
11.6765
14.1783
15.9491
55.1573
61.319
63.8736
66.5078
67.3231
68.7516
70.8222
72.7313
74.2515
75.6978
77.6721
80.3841
83.118
85.6253
87.4464
88.4922
88.7488
90.2364
96.1968
101.558
102.369
103.856
105.375
108.628
114.026
125.068
146.137
195.196
291.345
349.44
380.856
395.933
383.162
329.568
290.919
268.106
248.873
240.435
240.794
239.143
238.242
241.066
234.508
218.344
185.089
145.261
107.088
76.0327
53.4267
37.483
26.3309
18.5477
13.2078
9.76692
7.3636
5.82155
5.24465
5.43064
5.67461
5.59514
6.08963
6.14113
6.14163
5.57349
5.19865
4.78652
4.5226
5.23624
5.22627
5.14456
4.60044
4.02828
3.47088
3.65262
5.76665
9.62673
11.2983
13.5507
14.5696
55.5961
61.7461
64.5302
67.1854
67.8374
69.188
71.3893
73.4712
75.1591
76.6014
78.3251
80.7075
83.1297
85.3931
86.9413
87.6999
87.8029
88.9511
96.0983
99.8982
100.696
101.924
103.807
107.466
113.663
124.914
149.241
202.236
302.423
353.144
394.542
408.806
369.85
340.182
301.942
277.862
256.06
241.936
240.315
238.37
235.824
237.254
230.16
213.147
179.223
138.779
100.58
70.1822
48.7067
34.0115
23.9812
17.1007
12.4276
9.45344
7.30658
5.83694
5.21149
5.46851
6.00653
6.03402
6.84212
6.84286
6.56423
5.9227
5.49108
4.93677
4.48425
5.01732
5.54142
5.00314
4.20545
3.96967
3.684
4.1333
6.10605
11.7431
13.2353
16.8322
15.1273
55.9889
62.1113
65.2094
67.8041
68.3746
69.6039
71.8906
74.111
75.9494
77.4222
78.9817
81.0452
83.1185
85.1196
86.3994
86.8536
86.7647
87.8177
94.2884
97.6821
98.9422
99.9101
102.169
106.294
113.693
126.596
153.509
210.682
310.509
360.864
398.911
411.071
376.882
350.006
313.356
288.482
264.722
245.874
239.862
237.54
233.63
233.108
225.651
207.802
173.508
132.528
94.3064
64.5067
44.0682
30.5376
21.5565
15.5338
11.519
9.0387
7.21552
5.95351
5.26851
5.07317
5.78782
5.73005
5.98229
7.32544
7.11856
6.3463
5.83521
5.07928
4.49233
4.7041
5.01621
4.89587
4.0512
4.09326
3.99008
4.84722
7.15349
10.6489
17.5386
21.4347
17.4317
56.3083
62.3165
66.0789
68.4389
68.9546
70.0181
72.359
74.6683
76.6253
78.1406
79.5906
81.3951
83.0978
84.8092
85.8296
85.9472
85.4985
86.3763
92.4979
94.8998
96.8493
97.8013
100.464
105.008
113.457
128.288
158.449
221.554
325.659
368.907
400.267
402.356
383.533
352.957
324.965
299.897
274.747
252.246
239.828
236.581
231.581
228.819
221.143
202.462
168.158
126.757
88.5118
59.2212
39.6824
27.1904
19.15
13.9022
10.4757
8.38632
6.70016
5.76864
4.98071
4.95752
5.61665
5.65525
5.68285
7.33989
7.33521
6.78476
6.12644
5.26455
4.49232
4.15639
4.78267
4.68741
4.07288
4.11704
4.29877
5.00717
7.37624
12.3045
14.5902
22.5905
17.1999
56.549
62.082
67.1141
69.1812
69.644
70.4577
72.8076
75.1658
77.1982
78.7432
80.1147
81.731
83.0816
84.4704
85.2535
85.071
84.1741
84.6338
91.2485
93.0303
94.697
95.6473
98.715
103.68
112.789
129.905
164.415
235.968
336.111
369.957
399.478
410.256
385.789
363.278
336.836
312.028
285.855
259.963
241.029
235.507
229.481
224.489
216.665
197.299
163.351
121.687
83.4083
54.5117
35.6998
24.0889
16.8597
12.2942
9.43287
7.82971
6.31013
5.39512
4.86774
4.94873
5.30638
5.56506
6.23408
8.51288
7.59774
7.17901
6.42345
5.44546
4.51489
3.93974
3.99904
4.62591
4.18271
4.31603
4.818
6.17287
8.78799
15.5927
18.5254
19.8159
16.6086
56.6393
62.2944
67.8149
70.0613
70.4957
70.9595
73.2604
75.6354
77.6814
79.2324
80.5374
82.0051
83.0693
84.1126
84.6713
84.2399
82.9486
83.1096
88.8932
89.9025
92.1884
93.4968
96.9759
102.331
111.333
131.149
170.656
252.215
347.355
381.6
411.217
420.859
394.645
373.794
348.918
324.864
298.104
269.429
244.957
234.583
227.504
220.211
212.065
192.435
159.225
117.494
79.1652
50.5231
32.2381
21.3265
14.7616
10.7535
8.31289
6.94794
5.83631
5.05727
4.59385
4.54369
5.13201
5.35085
6.03762
8.59957
7.93896
7.62112
6.72058
5.6026
4.53152
3.73701
3.3628
3.87563
4.24496
4.56935
5.38724
7.10025
11.7645
20.427
23.0174
17.8061
15.1626
56.6538
62.3137
68.0586
70.8892
71.5424
71.5856
73.7493
76.1024
78.0928
79.6168
80.8518
82.1797
83.0328
83.7491
84.0947
83.522
81.9593
82.1144
86.1895
87.815
89.4684
91.2748
95.3111
101.419
111.319
131.798
177.747
269.401
356.913
392.949
423.878
433.463
404.506
384.543
361.213
338.347
311.382
280.557
251.698
234.29
225.848
216.359
207.453
187.905
155.861
114.298
75.9043
47.3568
29.3798
18.971
12.922
9.36075
7.28305
6.29385
5.18026
4.51282
4.27142
4.29845
5.2646
5.57779
7.03253
9.36829
8.62278
7.92457
6.85607
5.63626
4.52312
3.68901
3.54774
4.06334
4.40486
4.89656
6.13532
8.90551
11.7116
18.818
27.2372
15.808
16.7607
56.5825
62.3213
68.0039
71.3884
72.7501
72.417
74.3116
76.5912
78.463
79.9101
81.0638
82.2343
82.919
83.3693
83.5116
82.9365
81.3957
81.187
85.9384
85.3224
86.7214
89.0129
93.606
100.644
111.855
134.058
186.092
286.931
365.86
403.565
437.38
449.721
414.639
395.295
373.782
352.41
325.551
293.041
260.11
235.507
224.665
213.27
202.853
183.677
153.275
112.163
73.7004
45.0736
27.1746
17.0626
11.3819
8.15737
6.36264
5.4607
4.84918
4.32356
3.66931
3.6514
4.12558
4.60653
5.21838
7.98289
8.65389
8.14409
6.93174
5.67608
4.51279
3.61901
3.38539
4.02974
4.50428
5.28613
6.79117
8.5934
13.636
24.0989
23.9303
14.7055
16.4792
56.4155
62.36
67.6314
71.2426
73.9031
73.4922
74.9914
77.125
78.8256
80.1324
81.1846
82.1654
82.6931
82.9254
82.875
82.3696
81.2559
81.0898
83.3969
82.895
83.8028
86.6901
91.8182
99.5572
112.579
136.191
189.343
306.829
376.172
413.982
450.22
468.335
424.876
406.014
386.67
366.933
340.542
306.954
270.673
239.826
224.1
211.243
198.427
179.545
151.417
111.095
72.587
43.7004
25.6446
15.6163
10.1555
7.15341
5.52856
4.70786
4.09025
3.82078
3.47555
3.115
3.54189
3.73843
4.22701
6.33761
7.86896
8.04087
6.87381
5.65884
4.48718
3.60495
3.29813
3.49355
4.96682
6.03557
7.74593
10.2924
15.5736
24.5031
21.228
13.494
16.3244
56.0502
62.3745
66.7274
70.0452
74.8591
74.7403
75.8441
77.7325
79.2168
80.3167
81.2289
81.9796
82.328
82.3487
82.1159
81.58
80.5775
80.0515
80.7993
80.3042
81.066
84.1324
89.9291
97.9831
113.704
139.14
197.272
320.482
386.129
423.574
460.715
475.532
435.294
416.765
399.746
381.736
356.2
322.139
283.319
247.568
224.419
210.061
194.594
174.99
150.177
111.05
72.563
43.2402
24.7955
14.6361
9.25588
6.39555
4.94245
4.19365
3.63637
3.36462
2.88859
2.78049
2.94057
3.13128
3.54146
5.29014
8.19446
7.93977
6.89558
5.66842
4.54565
3.63404
3.20106
3.94934
5.50229
6.85146
8.62143
12.0945
17.8233
23.6253
18.0316
12.7783
13.7991
55.4051
61.9625
67.5971
69.9016
75.4481
75.9126
76.8854
78.4479
79.6724
80.5078
81.2169
81.691
81.817
81.6151
81.2037
80.642
79.8624
79.0035
78.7688
77.2576
78.4068
81.4021
87.7515
97.8583
114.598
142.72
205.627
336.409
395.028
434.296
468.03
478.067
445.68
427.503
412.837
396.689
372.352
338.362
297.62
257.341
226.566
209.86
192.806
173.941
149.209
111.956
73.5906
43.6799
24.6183
14.1091
8.66617
5.87883
4.57963
3.88516
3.48487
3.29197
2.96511
2.68411
2.48077
2.61689
3.13468
4.31428
8.09323
7.85046
6.79381
5.53562
4.50241
3.66318
3.25504
3.85718
6.21091
7.8684
9.89495
15.1296
20.8864
23.5864
16.2577
12.7056
11.2266
54.6805
61.65
66.6251
69.4266
75.701
76.8996
78.0136
79.3023
80.2119
80.7586
81.1851
81.3215
81.1627
80.6998
80.0427
79.283
78.3865
77.1442
75.8251
74.7413
75.6421
78.531
84.6237
97.982
115.708
146.434
213.853
348.11
404.302
443.702
478.755
493.975
455.513
438.16
425.893
411.683
388.848
355.494
313.631
269.705
232.409
210.654
192.474
173.878
148.668
113.631
75.6012
44.9982
25.0968
14.0101
8.3299
5.4909
4.18658
3.51122
3.24065
3.13193
3.08268
2.97273
2.99249
2.85872
2.78005
4.94506
7.64394
7.96695
6.91038
5.77621
4.70385
3.78496
3.41566
4.0504
6.69663
9.26228
11.016
15.0956
25.3589
24.1513
13.1488
11.5059
10.2957
53.8399
61.8212
64.983
68.7713
75.5156
77.6164
78.9655
80.2504
80.8804
81.1203
81.1865
80.9148
80.4012
79.6422
78.7122
77.6866
76.5338
75.0531
73.3422
72.3625
73.1786
76.2021
82.9224
96.7029
118.045
151.481
228.373
357.092
413.815
454.009
487.772
499.969
465.129
448.734
438.864
426.607
405.514
373.311
331.124
284.504
241.929
212.433
192.702
172.689
148.49
115.9
78.4936
47.1718
26.2291
14.3391
8.2265
5.15713
3.68204
2.97249
2.68986
2.60085
2.57296
2.45697
2.38579
2.28529
2.43877
4.15258
8.75282
7.78599
6.83482
5.72883
4.65198
3.90944
3.68393
4.44916
7.80746
11.1664
12.8029
17.4351
24.9088
25.1492
11.6869
9.98243
7.13804
52.7768
61.932
63.3015
68.0641
74.7441
78.0656
79.7032
81.0528
81.6598
81.6245
81.2763
80.5287
79.5778
78.4748
77.2614
75.9572
74.5237
72.8748
71.2021
70.248
71.0683
74.3643
81.4393
95.8996
118.953
156.458
241.705
367.588
423.83
465.482
496.93
500.914
473.922
459.303
451.696
441.365
422.192
391.577
349.803
301.335
254.041
216.627
194.185
172.336
148.248
118.619
82.1589
50.1709
28.0335
15.1465
8.45676
5.13298
3.53745
2.7627
2.38745
2.22053
2.15623
2.23462
2.32843
2.15772
2.57147
4.96353
7.89735
6.66667
6.90621
5.94153
4.969
4.20929
4.05691
5.13503
9.17637
12.5203
17.0061
22.2603
28.5388
24.6718
10.552
8.53717
4.69994
51.6766
61.1931
61.556
67.465
73.0673
78.223
80.2381
81.6914
82.3272
82.2059
81.4947
80.2254
78.7513
77.2442
75.751
74.2264
72.6136
70.8237
69.2317
68.3944
69.3127
73.0203
80.6108
96.1087
120.703
163.996
258.245
376.713
433.948
477.667
507.04
495.058
481.122
470.047
464.405
455.876
438.729
410.073
369.439
320.166
269.354
225.754
197.011
173.801
149.921
121.529
86.4784
53.9543
30.5023
16.4225
8.96097
5.24265
3.44818
2.5532
2.11478
1.91814
1.8952
2.02294
2.06185
1.939
1.94993
3.28622
5.47253
6.87329
7.176
6.32904
5.42578
4.75026
4.60047
6.03201
11.119
13.8167
17.0167