/*--------------------------------*- C++ -*----------------------------------*\
| =========                 |                                                 |
| \\      /  F ield         | OpenFOAM: The Open Source CFD Toolbox           |
|  \\    /   O peration     | Version:  4.1                                   |
|   \\  /    A nd           | Web:      www.OpenFOAM.org                      |
|    \\/     M anipulation  |                                                 |
\*---------------------------------------------------------------------------*/
FoamFile
{
    version     2.0;
    format      ascii;
    class       volScalarField;
    location    "25";
    object      p;
}
// * * * * * * * * * * * * * * * * * * * * * * * * * * * * * * * * * * * * * //

dimensions      [0 2 -2 0 0 0 0];

internalField   nonuniform List<scalar> 
6785
(
44616.5
44549.9
44498.8
44448.7
44402.3
44358.7
44317.8
44279.3
44243
44208.4
44175
44144.3
44116.6
44083.4
44049.3
44064.8
44046.7
44050.3
44045.3
44042.1
44038.6
44035.6
44033.3
44031.9
44031.5
44032
44033.7
44037.5
44041
44041.7
44015.4
44009.4
44019.1
44017.7
44020.9
44022.7
44024.8
44026.6
44028.2
44029.7
44031
44031.8
44032.1
44033
44034.9
44063.5
44061.4
44066.5
44062.7
44063.7
44062.3
44061.4
44060.3
44059.3
44058.3
44057.5
44056.8
44056.5
44057.3
44059.7
44075.4
44074.5
44078.2
44075.3
44077.8
44077.5
44078.3
44079.1
44079.9
44080.8
44081.7
44082.8
44084.2
44085.5
44087
44084
44083.9
44086.7
44085
44087.5
44087.4
44088.5
44089
44089.6
44089.9
44090.1
44090.3
44090.6
44090.9
44091.2
44089.5
44088.8
44090.6
44088.6
44090.2
44089
44089.4
44088.8
44088.5
44087.8
44087.2
44086.6
44086.1
44085.7
44084.9
44081.5
44079.9
44080.6
44078.3
44078.9
44077.3
44077.2
44076.2
44075.6
44074.8
44074
44073.4
44072.6
44071.6
44070.4
44063.7
44061.9
44062
44059.9
44060
44058.2
44057.7
44056.5
44055.7
44054.8
44054.1
44053.6
44052.8
44052.1
44052
44050.2
44049.3
44049.6
44048.1
44048.4
44047.1
44046.9
44046.1
44045.6
44045.1
44044.9
44044.7
44044.7
44044.9
44045.7
44048.7
44049.1
44049.9
44049.2
44050
44049.5
44049.8
44049.7
44049.7
44049.8
44050
44050.3
44050.7
44051.1
44052.1
44055.3
44056.4
44057.2
44057.1
44058.1
44058.1
44058.7
44059.1
44059.5
44060
44060.5
44061
44061.5
44062
44062.7
44062.5
44063.7
44064.3
44064.1
44064.7
44064.7
44065.1
44065.5
44065.9
44066.5
44067.2
44067.9
44068.7
44069.3
44070.2
44068.2
44070.9
44072.2
44073.5
44075.4
44076.9
44078.7
44080.3
44081.8
44083.2
44084.3
44085
44085.6
44086.2
44086.6
44094
44085.2
44078.5
44073.3
44069.7
44067.4
44066.4
44066.5
44067.4
44069.2
44071.2
44073.6
44076.5
44080.4
44085.3
44199.1
44199.1
44199.1
44199.1
44199.1
44199.1
44199.1
44199.2
44199.2
44199.2
44199.2
44199.2
44199.2
44199.2
44199.3
44199.3
44199.3
44199.3
44199.4
44199.4
44199.4
44199.5
44199.5
44199.5
44199.6
44199.6
44199.7
44199.7
44199.8
44199.9
44199.8
44199.9
44200
44200.1
44200.1
44200.1
44200.3
44200.2
44200.3
44200.4
44200.6
44200.6
44200.7
44200.8
44200.9
44200.9
44201
44201.1
44201.1
44201.2
44201.3
44201.5
44201.5
44201.6
44201.7
44201.9
44201.9
44202.1
44202.2
44202.2
44202.4
44202.4
44202.6
44202.5
44202.6
44202.6
44202.6
44202.6
44202.5
44202.5
44202.3
44201.3
44200.8
44200.7
44199.8
44196
44196.4
44194.5
44186.1
44186
44185.4
44184.3
44180.3
44195.3
44172.2
44172.9
44172.1
44171.5
44170.9
44172.2
44173.4
44170.1
44182.4
44163.8
44165.3
44164.3
44164.1
44164.6
44165.3
44164.8
44161.1
44169.2
44147.2
44146.6
44144.7
44143.7
44143.7
44143.1
44142.4
44141.1
44136.4
44134.7
44117.4
44115.8
44113.8
44111.9
44111
44110.9
44109.4
44103.5
44084.9
44077.1
44076.2
44074.6
44071.9
44068.8
44066.1
44066
44060.8
44028.6
44028.2
44023.4
44022
44019.9
44016.1
44012.8
44010.1
44003.2
43961.5
43974.3
43968.2
43964.1
43959.1
43957.1
43953.4
43948.4
43945.2
43937.8
43878.9
43911.3
43903.8
43900
43895.5
43889.5
43880.4
43877.4
43876.8
43815.4
43863.6
43849.5
43835.4
43847.2
43804.6
43807.2
43786.9
43806.7
43820.9
43769
43802.2
43823.2
43781.8
43794.7
43780.9
43804.2
43829.6
43798.2
43815.6
43812.1
43832.2
43858.3
43858.5
43881.1
43904.7
43933.6
43959.3
43992
44006.4
44011.1
44099.6
44118.2
44105
44151.8
44143.8
44233.1
44221.5
44148.1
44302.8
44243.8
44165.1
44218.2
44159.6
44366.6
44237.7
44128.7
44187
44135.1
44375.7
44182.8
43990.2
44295.2
43851.5
43502.1
43428.2
43076.1
43580.3
43314
42780.7
43213.3
43062.8
44180.8
44809.7
44496.7
46434.2
47134
46776.8
49081.7
49476.9
51920.8
53923.2
48665.4
60231.7
64385
30101.6
53931
78462.5
-3766.95
-13944.3
-72449.5
-58277.4
78982.5
0.123444
0.0257998
1.04819
1.59929
2.74094
3.91768
5.48352
6.88748
7.86643
8.63805
9.2775
9.92565
10.8354
11.8067
12.8815
13.9591
15.1615
16.5772
18.1069
19.7404
22.1405
24.6216
27.8834
31.2383
32.6686
32.5366
31.6926
30.0926
30.3427
34.2146
40.6399
50.2678
61.8186
72.7978
85.1765
97.6735
110.059
122.006
130.342
138.323
143.154
144.487
139.782
125.617
104.707
90.2637
89.4397
99.0928
109.815
113.186
111.687
107.988
102.976
97.4111
91.6639
85.9996
80.5879
75.4557
70.4461
65.259
59.6882
53.2164
45.0354
39.1202
38.453
43.8363
54.3906
73.0212
104.072
154.314
234.956
366.817
591.928
997.657
1762.41
3312.47
6218.56
8585.78
10641
1.1661
1.21863
4.62452
6.51844
9.84894
12.6598
15.9554
18.4892
20.4274
22.5629
24.7972
27.1485
29.8853
32.4836
35.1865
37.7465
40.4054
43.0334
45.456
48.2775
53.2478
57.9706
63.6177
68.8163
68.9947
64.8747
59.7405
52.7284
49.1515
57.0655
74.4427
101.385
135.213
169.269
208.808
250.823
293.012
334.395
365.905
397.679
421.161
437.483
445.16
440.829
422.171
392.323
362.104
354.109
364.188
366.905
358.975
343.841
324.647
304.414
283.976
263.693
244.016
224.94
206.637
189.121
172.144
153.989
131.999
114.192
105.361
104.672
109.019
119.022
135.757
160.066
190.732
224.178
254.216
263.872
179.859
14.9763
-610.971
-4067.93
31405
2.7479
3.26884
9.31846
12.7526
18.6294
23.62
29.5354
34.271
38.4128
42.8863
47.3004
51.8598
56.8843
61.7884
66.8293
71.5593
76.576
81.6083
86.246
91.7817
101.122
110.035
120.865
129.631
129.68
122.887
114.69
104.969
101.464
117.989
152.519
203.843
267.421
331.879
407.052
485.56
565.337
641.004
699.662
755.087
792.45
813.206
810.72
773.08
706.152
643.766
612.536
619.804
639.441
636.459
615.869
586.198
551.736
516.777
482.37
448.596
416.308
385.105
354.782
324.958
295.31
264.03
229.24
204.849
197.423
202.674
217.475
242.692
280.284
332.642
400.432
482.318
576.708
674.146
704.203
847.365
1209.92
-299.415
58493.1
4.03204
5.0249
13.669
18.636
26.9124
33.8074
41.7791
48.1611
54.1211
60.4127
66.6596
73.1548
80.0357
87.0101
94.261
101.233
108.332
115.181
121.624
129.191
141.589
153.496
167.44
178.57
178.434
168.999
158.006
145.895
141.391
164.362
213.514
285.685
375.034
466.639
573.665
684.991
797.578
904.275
989.644
1067.66
1120.97
1151.5
1150.83
1103.36
1016.12
930.747
884.224
886.065
906.878
900.484
870.353
828.03
779.399
730.181
681.892
634.657
589.461
545.703
503.213
461.569
420.054
375.992
329.287
299.834
295.847
309.987
340.091
388.586
460.487
563.584
707.322
905.361
1186.1
1603.89
2223.6
3646.91
7232.53
11296.7
66834.2
5.23568
6.74439
17.9726
24.4696
35.1173
43.9457
54.0653
62.3194
70.3753
78.6293
86.784
95.2744
104.095
113.217
122.784
132.176
141.423
150.082
158.544
168.36
183.617
198.644
215.529
229.302
229.444
217.756
204.534
191.126
186.883
217.094
281.691
375.388
490.857
610.323
750.023
894.366
1040.73
1178.88
1292.47
1393.53
1463.23
1503.25
1502.57
1441.29
1328.28
1216.47
1156.32
1155.43
1177.72
1167.99
1128.19
1073.31
1010.86
947.819
885.991
825.897
768.336
712.541
658.287
605.146
551.956
495.019
436.673
402.073
400.938
422.684
466.014
534.469
635.436
780.881
986.859
1277.22
1700.66
2358.88
3429.29
5807.39
11626
18755.2
58689.1
6.3625
8.39994
22.2038
30.2421
43.2091
53.9171
66.0847
76.135
86.1795
96.3016
106.344
116.802
127.585
138.83
150.701
162.521
173.805
184.104
194.439
206.333
223.893
241.585
260.755
276.819
277.264
263.591
248.433
234.16
230.365
267.314
346.642
460.971
601.373
748.202
920.057
1097
1276.98
1446.06
1588.26
1712.95
1800.49
1852.01
1854.41
1785.33
1653.6
1518.21
1440.83
1430.33
1448.86
1434.9
1386.24
1319.7
1244.37
1168.08
1093.2
1020.58
950.813
883.11
817.284
752.974
688.306
618.823
550.765
512.998
515.945
546.599
604.479
694.179
825.226
1013.21
1279.9
1657.13
2210.05
3083.1
4564.42
7750.91
15113.2
24781.4
55548.7
7.45259
10.0247
26.37
35.9479
51.1836
63.7554
77.9351
89.8293
101.898
113.902
125.864
138.281
151.041
164.412
178.588
192.819
206.076
217.998
230.146
243.987
263.658
283.629
304.827
323.049
323.957
308.709
291.974
277.23
274.45
318.329
412.373
547.352
712.37
886.822
1090.96
1300.8
1514.13
1713.69
1884.78
2033.41
2139.86
2203.84
2210.41
2135.73
1987.41
1828.65
1732.21
1709.52
1721.53
1702.19
1644.89
1567.5
1480.31
1391.58
1304.39
1219.77
1138.24
1058.98
981.894
906.716
830.557
748.358
671.813
632.572
640.716
681.998
756.747
870.903
1036.43
1272.88
1608.71
2085.59
2790.61
3924.79
5918.27
10068.6
18977.8
30615.6
47876.1
8.53745
11.6611
30.4771
41.5976
59.0508
73.4629
89.5859
103.331
117.397
131.255
145.124
159.488
174.231
189.712
206.162
222.75
237.951
251.447
265.28
280.876
302.329
324.06
347.042
367.186
368.666
352.353
334.326
319.143
317.824
368.617
477.135
632.557
821.749
1023.91
1260.27
1503.36
1749.19
1978.64
2178.91
2351.69
2478.54
2556.19
2569.16
2492.21
2331.41
2150.98
2033.52
1994.86
1996.68
1970.41
1904.48
1816.83
1718.61
1618.3
1519.46
1423.33
1330.38
1239.84
1151.77
1065.97
978.392
883.745
800.191
761.341
775.635
828.851
922.135
1062.96
1265.84
1554.42
1964.5
2549.73
3425.39
4862.3
7451.35
12639.1
22824.5
35733.3
43328.2
9.63756
13.3546
34.5314
47.1922
66.81
83.0335
101.052
116.671
132.719
148.43
164.214
180.525
197.257
214.84
233.536
252.423
269.536
284.526
299.927
317.173
340.09
363.208
387.761
409.45
411.633
394.995
375.783
360.103
360.79
418.568
541.499
717.441
930.667
1160.8
1429.52
1706.16
1983.5
2242.15
2471.84
2668.92
2817.22
2909.84
2931.33
2854.82
2684.75
2484.03
2344.01
2286.49
2274.97
2240.13
2165.34
2067.88
1959.37
1848.34
1738.61
1631.56
1527.64
1426.22
1327.53
1231.33
1132.32
1025.47
936.287
899.773
921.469
988.091
1101.63
1271.2
1513.82
1857.18
2344.81
3045.05
4107.39
5881.55
9115.31
15303.9
26380.8
40171.2
39568.1
10.7625
15.1273
38.5546
52.732
74.4621
92.4568
112.346
129.846
147.846
165.407
183.119
201.374
220.098
239.774
260.69
281.812
300.777
317.166
334.036
352.827
376.978
401.065
426.921
449.639
452.771
436.489
416.107
399.904
403.08
467.861
605.157
801.768
1039.02
1297.49
1598.57
1908.77
2216.52
2503.69
2762.93
2984.74
3155.35
3264.55
3296.54
3223.34
3047.37
2828.29
2664.53
2585.31
2557.26
2511.94
2427.88
2320.9
2202.73
2081.76
1961.86
1844.48
1730.06
1618.17
1509.28
1402.95
1292.61
1174.05
1080.65
1048.31
1078.82
1160.49
1296.23
1496.89
1782.07
2183.59
2753.53
3579.1
4851.23
7005.65
10925.8
18052.5
29673
43784.7
38100.6
11.9157
16.9903
42.5788
58.2154
82.0049
101.729
123.48
142.858
162.786
182.2
201.854
222.051
242.762
264.521
287.625
310.919
331.666
349.364
367.608
387.807
412.974
437.702
464.568
487.761
491.998
476.667
455.301
438.589
444.653
516.476
668.192
885.696
1147.2
1434.51
1767.85
2111.15
2448.32
2763.61
3052.17
3299.2
3493.08
3620.21
3664.65
3597.55
3418.87
3183.52
2995.27
2891.92
2844.38
2786.5
2692.55
2576.15
2448.83
2318.63
2189.28
2062.2
1937.81
1815.92
1697.3
1581.13
1459.53
1329.96
1233.88
1207.47
1248.27
1346.65
1506.54
1740.59
2071.19
2534.82
3193.7
4159.02
5671.04
8254.59
12889.8
20863
32607.7
45917.3
41392.6
13.103
18.9454
46.6128
63.644
89.4361
110.851
134.453
155.698
177.533
198.811
220.422
242.557
265.246
289.072
314.33
339.73
362.176
381.106
400.618
422.074
448.031
473.254
500.664
523.897
529.191
515.288
493.23
476.149
485.386
564.31
730.582
969.234
1255.36
1572.07
1937.55
2312.76
2678.6
3021.99
3339.26
3612.01
3830.05
3976.43
4035.41
3977.14
3798.87
3549.7
3336.68
3207.03
3137.17
3064.55
2959.83
2833.95
2697.84
2559.01
2420.88
2284.74
2150.94
2019.57
1891.73
1766
1633.18
1493.66
1396.57
1377.75
1430.39
1547.15
1733.09
2002.69
2381.49
2911.75
3668.37
4791.77
6578.36
9637.72
14989.1
23668.6
35120.3
46224.3
45689
14.3236
20.9691
50.6319
69.0195
96.7497
119.824
145.257
168.357
192.084
215.246
238.832
262.897
287.551
313.423
340.798
368.234
392.294
412.387
433.043
455.606
482.176
507.733
535.213
558.153
564.358
552.136
529.733
512.574
525.198
611.327
792.369
1052.45
1363.71
1710.29
2107.81
2513.15
2907.01
3278.65
3624.02
3923.01
4165.96
4332.98
4408.53
4361.76
4186.91
3926.54
3688.99
3531.24
3436.49
3346.82
3230.27
3094.66
2949.97
2803
2656.71
2512.12
2369.51
2229.24
2092.69
1957.57
1813.56
1665.6
1569.3
1559.58
1625.65
1762.46
1976.32
2283.7
2713.79
3316.37
4182.38
5486.61
7585.75
11160.1
17198.1
26400.1
37282.8
45312.2
46916.7
15.5548
23.03
54.6062
74.3427
103.935
128.649
155.883
180.825
206.438
231.507
257.085
283.075
309.677
337.568
367.019
396.419
422.004
443.192
464.847
488.36
515.392
541.079
568.248
590.601
597.574
587.067
564.694
547.829
564.005
657.511
853.617
1135.4
1472.39
1849
2278.23
2711.77
3133.11
3533.14
3906.26
4231.99
4500.51
4689.49
4783.59
4750.89
4582.42
4313.68
4052.39
3865.15
3743.15
3634.15
3504.51
3358.72
3205.49
3050.74
2896.82
2744.36
2593.52
2444.92
2300.12
2155.69
2000.54
1846.11
1752.65
1753.29
1834.4
1992.9
2236.59
2584.24
3069.55
3752.04
4742.49
6254.7
8705.75
12822.5
19488.3
28987.6
39067.8
44236.5
46998.2
16.7688
25.1127
58.5114
79.6092
110.982
137.323
166.322
193.095
220.597
247.599
275.183
303.09
331.621
361.499
392.979
424.274
451.29
473.492
495.997
520.301
547.643
573.31
599.849
621.422
628.964
619.956
597.966
581.875
601.755
702.892
914.433
1218.25
1581.4
1987.82
2447.79
2908.1
3356.53
3785.06
4185.76
4538.64
4833.28
5045.49
5160.05
5143.86
4984.7
4710.56
4426.89
4209.23
4057.97
3927.38
3783.21
3626.64
3464.75
3302.43
3141.3
2981.49
2822.97
2666.6
2513.95
2360.18
2194.03
2035.29
1946.95
1959.12
2056.87
2238.77
2514.33
2905.26
3451.04
4223.38
5357
7107.9
9948.35
14617.9
21824.5
31385.8
40499.1
43444.7
46379
17.9287
27.1905
62.2984
84.784
117.885
145.845
176.568
205.159
234.563
263.528
293.125
322.94
353.379
385.207
418.666
451.783
480.134
503.256
526.472
551.401
578.889
604.454
630.147
650.679
658.495
650.758
629.478
614.67
638.419
747.534
974.959
1301.19
1690.62
2126.2
2615.38
3101.72
3576.94
4034.06
4462.2
4842.55
5163.75
5400.42
5537.24
5539.93
5392.91
5116.48
4812.29
4563.86
4381.68
4227.39
4067.18
3899.03
3728.2
3558.37
3390.32
3223.6
3057.89
2894.25
2734.11
2570.97
2394.16
2233.13
2152.24
2177.24
2293.3
2500.43
2810.26
3248.32
3861.55
4736.5
6035.51
8057.88
11319.5
16531.4
24166.2
33565.9
41605.1
43013.2
45825
18.9654
29.2081
65.8963
89.8184
124.639
154.205
186.616
217.011
248.341
279.302
310.909
342.62
374.945
408.683
444.063
478.929
508.515
532.448
556.258
581.635
609.068
634.438
659.207
678.426
686.184
679.551
659.271
646.179
674.002
791.54
1035.37
1384.38
1799.84
2263.6
2780.08
3292.33
3793.99
4279.84
4735.16
5143.2
5491.42
5753.64
5914.41
5938.21
5806.11
5530.55
5208.21
4929.27
4714.96
4535.07
4357.25
4176.63
3996.41
3818.96
3644.15
3470.83
3298.36
3127.9
2960.58
2788.11
2601.17
2439.74
2368.53
2407.85
2544.02
2778.53
3125.68
3615.92
4305.6
5298.99
6788.54
9115.15
12820.3
18541
26471.9
35509
42416.2
42893.5
45351.6
19.8035
31.1495
69.2878
94.7192
131.236
162.398
196.467
228.651
261.933
294.914
328.525
362.121
396.309
431.913
469.153
505.693
536.414
561.042
585.335
610.978
638.158
663.214
686.993
704.768
712.193
706.453
687.404
676.386
708.542
835.025
1095.8
1467.79
1908.79
2399.51
2941.01
3479.65
4007.43
4521.94
5004.19
5440.1
5815.75
6104.54
6290.71
6337.76
6223.18
5951.71
5614.01
5305.48
5058.36
4851.31
4654.35
4460.27
4270.11
4084.8
3903.22
3723.48
3544.56
3367.69
3193.44
3011.69
2815.34
2655.38
2595.96
2651.26
2809.6
3074.14
3462.58
4011.59
4789.05
5919.62
7626.94
10287.9
14445.8
20618.9
28701.2
37206.9
42993.4
43109.9
44854.2
20.4097
33.0551
72.5046
99.5144
137.665
170.422
206.116
240.08
275.335
310.352
345.965
381.436
417.46
454.881
493.915
532.053
563.808
589.013
613.673
639.423
666.179
690.803
713.484
729.741
736.638
731.573
713.931
705.303
742.092
878.086
1156.3
1551.31
2017.19
2533.61
3098.32
3663.66
4217.13
4759.72
5268.85
5732.74
6136.16
6452.41
6665.27
6737.5
6642.92
6378.73
6028.83
5692.33
5412.31
5176.93
4959.48
4750.92
4550.17
4356.65
4168.15
3982.02
3796.87
3613.91
3432.89
3241.84
3037.06
2880.48
2834.89
2908.11
3091.03
3388.92
3823.78
4439.96
5319
6607.9
8560.91
11580.8
16185.1
22733.5
30819.2
38660
43344.8
43707.3
44563.8
20.8232
34.9655
75.5609
104.195
143.91
178.266
215.554
251.309
288.542
325.611
363.227
400.558
438.387
477.572
518.327
557.983
590.675
616.337
641.253
666.98
693.147
717.213
738.684
753.363
759.573
755.01
738.91
732.95
774.703
920.81
1216.91
1634.9
2124.81
2665.95
3253.14
3844.35
4422.8
4992.7
5528.71
6020.63
6452.08
6796.52
7037.2
7136.29
7063.98
6810.2
6451.58
6089.38
5777.09
5512.72
5273.64
5049.64
4837.63
4635.45
4439.79
4247.22
4055.93
3867.08
3679.26
3478.81
3266.95
3115.8
3086.04
3179.42
3389.89
3725.34
4213.11
4906.83
5903.56
7373.7
9599.08
12994
18021.2
24851
32796.6
39871.4
43466.8
44571
44338.5
21.0961
36.9098
78.4572
108.759
149.964
185.913
224.781
262.353
301.55
340.684
380.309
419.48
459.075
499.966
542.365
583.456
616.988
642.988
668.064
693.644
719.07
742.442
762.586
775.661
781.068
776.864
762.399
759.352
806.431
963.289
1277.77
1718.46
2231.49
2796.6
3405.9
4021.29
4624.09
5220.68
5783.35
6303.35
6762.9
7136.11
7405.58
7532.88
7484.91
7244.58
6880.94
6495.98
6152.78
5859.36
5597.85
5357.58
5133.64
4922.34
4719.23
4520.05
4322.64
4127.99
3933.14
3723.08
3506
3362.49
3350.57
3466.8
3708.45
4086.74
4635.49
5419.13
6551.61
8226.56
10747.5
14522.8
19931.9
26938
34610.2
40861.7
43393.6
45008.7
44010.5
21.2224
38.9126
81.1923
113.214
155.824
193.351
233.806
273.206
314.343
355.562
397.203
438.187
479.507
522.04
566.001
608.443
642.72
668.941
694.085
719.403
743.964
766.5
785.204
796.668
801.194
797.233
784.463
784.541
837.358
1005.7
1339.05
1801.77
2337.17
2925.54
3556.36
4194.12
4820.78
5443.37
6032.31
6580.36
7067.99
7470.41
7769.39
7925.99
7904.19
7680.21
7315.44
6911.26
6539.26
6217.38
5933.1
5675.92
5439.49
5218.62
5007.74
4801.78
4598.21
4397.69
4195.35
3975.47
3755.54
3622.24
3630.17
3772.49
4049.79
4477.43
5096.84
5984.63
7272.34
9174.89
12009
16157.4
21891.3
28963
36244.1
41661
43230.6
44712.4
43696
21.1545
40.9809
83.7465
117.556
161.476
200.57
242.628
283.83
326.911
370.237
413.903
456.664
499.666
543.769
589.209
632.913
667.843
694.166
719.281
744.242
767.856
789.422
806.583
816.425
820.02
816.213
805.165
808.563
867.59
1048.29
1400.77
1884.74
2441.93
3052.74
3704.4
4362.89
5012.71
5660.36
6275.15
6851.01
7366.72
7798.66
8127.61
8314.31
8320.26
8115.39
7753.46
7334.12
6936.2
6587.18
6280.3
6005.9
5756.54
5525.72
5306.79
5093.89
4884.12
4677.61
4467.23
4237.39
4017.14
3897.08
3927.13
4099.45
4417.83
4902.61
5603.96
6611.66
8074.6
10225.1
13382
17882.8
23871.1
30897.8
37687.5
42283.2
43134.6
44328
43506.6
20.8452
43.1147
86.0942
121.783
166.917
207.574
251.219
294.2
339.256
384.702
430.396
474.889
519.53
565.128
611.955
656.828
692.326
718.638
743.612
768.16
790.816
811.255
826.77
834.985
837.617
833.891
824.575
831.48
897.241
1091.21
1462.81
1967.37
2545.74
3178.16
3849.7
4527.48
5199.58
5871.21
6511.44
7114.77
7658.49
8120.09
8479.2
8696.62
8731.57
8548.36
8193.3
7763.32
7343.07
6968.97
6640.25
6348.68
6086.21
5845.2
5618.04
5398.1
5182.15
4969.55
4750.67
4511.02
4292.87
4189.33
4244.46
4451.37
4817.3
5368.34
6164.32
7308.66
8966.12
11380.8
14860.7
19679.7
25842.4
32718.1
38940.8
42756
43143.3
44051
43423.7
20.2587
45.3164
88.2161
125.877
172.14
214.357
259.538
304.328
351.383
398.949
446.666
492.841
539.075
586.088
634.206
680.151
716.135
742.355
767.053
791.176
812.908
832.025
845.804
852.405
854.052
850.352
842.78
853.364
926.425
1134.48
1524.97
2049.56
2648.42
3301.82
3991.72
4687.59
5381.07
6075.63
6740.84
7371.17
7942.71
8433.97
8823.19
9071.7
9136.61
8977.43
8633.26
8197.5
7759.14
7362.76
7013.59
6705.36
6429.88
6178.67
5943.27
5716.36
5494.37
5275.7
5048.01
4799
4585.41
4501.93
4585.8
4832.7
5253.68
5881.29
6785.69
8083.64
9952.97
12642
16434.8
21525.7
27776.7
34404.7
40012.3
43109.5
43228.1
43862.6
43436.6
19.3623
47.5716
90.0934
129.8
177.108
220.902
267.589
314.239
363.278
412.954
462.683
510.492
558.275
606.618
655.926
702.839
739.232
765.322
789.634
813.313
834.125
851.757
863.725
868.747
869.398
865.689
859.871
874.296
955.241
1177.99
1587.13
2131.26
2749.78
3423.27
4130.06
4843.01
5556.9
6273.31
6962.9
7619.75
8218.84
8739.63
9158.68
9438.42
9533.96
9400.98
9071.67
8635.21
8183.55
7768.35
7400.76
7076.9
6788.89
6527.74
6284.3
6050.72
5823.09
5598.53
5361.96
5104.35
4898
4838.43
4955.4
5248.5
5733.02
6448.53
7475.68
8943.54
11038.8
14005.2
18089.8
23396.1
29647.3
35943.9
40913.1
43367.1
43370.8
43739.3
43515.6
18.1286
49.8599
91.717
133.539
181.791
227.206
275.396
323.919
374.896
426.68
478.407
527.809
577.101
626.689
677.079
724.852
761.579
787.526
811.414
834.591
854.436
870.486
880.579
884.076
883.732
879.992
875.929
894.361
983.76
1221.72
1649.45
2212.44
2849.62
3541.67
4264.27
4993.53
5726.75
6464.02
7177.31
7860.16
8486.46
9036.43
9484.87
9795.79
9922.33
9817.55
9506.96
9075.03
8615.27
8185.33
7802
7464.07
7164.44
6893.94
6642.97
6403.29
6170.72
5940.72
5695.39
5430.41
5234.34
5202.84
5357.96
5704.27
6261.72
7077.1
8241.26
9893.56
12224.2
15462.9
19808.1
25265.4
31431
37327.9
41658.1
43546.6
43547.9
43667
43625.6
16.5397
52.173
93.0885
137.091
186.179
233.261
282.949
333.323
386.195
440.087
493.791
544.756
595.522
646.271
697.631
746.154
783.149
808.942
832.439
855.051
873.835
888.238
896.426
898.459
897.13
893.349
891.021
913.619
1011.99
1265.81
1711.82
2292.79
2947.44
3656.43
4393.96
5138.92
5890.48
6647.61
7383.97
8092.08
8745.21
9323.83
9801.08
10142.9
10300.6
10225.9
9937.7
9515.54
9053.19
8613.08
8217.26
7867.39
7557.54
7278.69
7021.06
6776.24
6539.75
6304.99
6051.21
5780.81
5598.61
5599.67
5798.64
6205.82
6846.24
7773.68
9088.24
10936.7
13506.5
17003.8
21569.1
27108.4
33108.3
38554.2
42263.7
43660.5
43738.5
43641.8
43725.2
14.5815
54.4997
94.2021
140.437
190.257
239.05
290.213
342.427
397.16
453.133
508.779
561.291
613.501
665.333
717.548
766.713
803.925
829.567
852.732
874.719
892.34
905.035
911.323
911.96
909.675
905.849
905.211
932.107
1039.95
1310.28
1773.97
2372.12
3042.56
3767.22
4519.12
5279.05
6047.96
6823.92
7582.59
8315.24
8994.78
9601.33
10106.8
10479
10668
10624.8
10362.6
9955.38
9496.08
9050.77
8646.23
8287.11
7968.93
7683.22
7420.23
7171.61
6932.62
6693.97
6432.29
6159.32
5995.3
6033.7
6282.84
6759.05
7492.75
8544.08
10020.7
12073.1
14879.5
18613.3
23350.6
28901.4
34664.4
39624.9
42747.4
43726.4
43869.5
43609.1
43770.2
12.2444
56.8276
95.0555
143.565
193.994
244.549
297.172
351.244
407.772
465.765
523.312
577.364
631
683.846
736.797
786.496
823.885
849.405
872.291
893.606
909.959
920.911
925.34
924.646
921.449
917.586
918.586
949.874
1067.76
1354.99
1835.86
2450.24
3134.73
3873.94
4639.85
5413.83
6198.92
6992.79
7772.9
8529.44
9234.83
9868.5
10401.7
10803.6
11023.8
11013.5
10780.6
10393.3
9942.67
9497.36
9088.29
8723.11
8399.03
8108.4
7841.82
7591.2
7351.46
7109.99
6841.33
6569.72
6429.05
6509.74
6815.85
7369.56
8206.69
9392.74
11040.6
13300.2
16333.6
20274.1
25129.9
30623.1
36088.8
40546.2
43130.1
43767.5
43872.2
43574.3
43802.7
9.52957
59.1456
95.6552
146.483
197.378
249.729
303.839
359.77
417.996
477.937
537.339
592.92
647.967
701.78
755.351
805.474
843.004
868.435
891.107
911.726
926.716
935.905
938.541
936.579
932.524
928.649
931.241
966.984
1095.53
1399.97
1897.54
2526.63
3224.19
3976.99
4756.01
5543.05
6343.25
7154.15
7954.89
8734.45
9464.98
10125
10685.3
11116.1
11367.4
11391.3
11190.7
10827.9
10391.6
9951.6
9542.52
9174.89
8847.83
8554.74
8286.82
8036.45
7798.07
7555.1
7280.83
7015.42
6904.18
7032.28
7402.46
8042.15
8992.28
10322.3
12147.5
14612.2
17856.2
21967
26884.7
32255.4
37376.1
41327.2
43426
43813.2
43878.1
43577
43817.3
6.45323
61.4358
96.0068
149.185
200.416
254.586
310.224
367.973
427.805
489.613
550.811
607.893
664.342
719.1
773.186
823.627
861.274
886.661
909.148
929.067
942.684
950.089
950.99
947.819
942.966
939.11
943.282
983.569
1123.48
1445.58
1958.9
2600.92
3311.01
4076.74
4867.54
5666.57
6481.01
7308.08
8128.52
8929.98
9684.97
10370.4
10957.5
11416.2
11698.4
11757.5
11592
11258.2
10841.5
10412.1
10007.7
9641.59
9314.89
9022.26
8755.74
8508.39
8273.91
8031.18
7753.26
7499.4
7424.21
7605.3
8046.68
8780.53
9852.23
11333.3
13337.9
16000.2
19432.3
23671.9
28594.2
33783.9
38524.6
41979.9
43650.9
43869.1
43908.8
43602.4
43814.6
3.05175
63.679
96.1336
151.67
203.115
259.11
316.296
375.818
437.174
500.738
563.677
622.228
680.057
735.764
790.283
840.942
878.706
904.134
926.418
945.619
957.903
963.524
962.759
958.424
952.833
949.042
954.824
999.86
1151.93
1491.59
2019.55
2673.24
3395.15
4173.06
4974.34
5784.36
6612.26
7454.6
8293.49
9115.92
9894.6
10604.6
11217.8
11703.6
12016.8
12111.9
11983.8
11683
11290.8
10877.2
10482.2
10121.9
9799.28
9510.48
9248.58
9007.49
8779.91
8539.67
8260.78
8024.26
7992.03
8232.1
8751.6
9587.02
10787.4
12423.8
14606
17453
21044.8
25368.3
30239.6
35197.7
39536.5
42518.3
43819.2
43928.6
43938.6
43647.7
43802.9
-0.612282
65.8551
96.0788
153.953
205.469
263.266
322.008
383.272
446.071
511.273
575.899
635.893
695.071
751.729
806.626
857.41
895.295
920.867
942.966
961.41
972.342
976.245
973.919
968.458
962.188
958.514
965.991
1016.13
1180.83
1537.12
2079.17
2743.62
3476.65
4265.72
5076.1
5896.39
6736.98
7593.57
8449.79
9292.33
10093.7
10827.5
11466.1
11978.3
12322.3
12454.1
12365.5
12101.1
11738
11345.1
10964.4
10614.2
10299.6
10018.3
9764.71
9533.57
9316.29
9081.31
8804.88
8591.9
8609.73
8915
9519.24
10462.5
11796.5
13589.6
15942.9
18956.7
22675.7
27036.6
31804.9
36490
40417.1
42956.1
43941.3
43991.1
43961.6
43697.3
43793.7
-4.4426
67.9435
95.8764
156.046
207.471
267.027
327.325
390.291
454.481
521.212
587.411
648.857
709.363
766.957
822.207
873.04
911.045
936.857
958.83
976.446
985.99
988.306
984.54
977.991
971.1
967.603
976.9
1032.52
1209.77
1581.85
2137.71
2811.85
3555.24
4354.52
5172.7
6002.76
6855.2
7725.1
8597.59
9459.19
10282.4
11039.3
11702.3
12240.3
12615.1
12783.9
12736.4
12511.5
12181.6
11814
11452.1
11116.4
10814
10544.3
10302.9
10085.8
9882.55
9656
9386.1
9203.31
9278.27
9654.95
10350
11406
12876.2
14823.9
17337.8
20495.8
24306.4
28658.5
33277.1
37657.7
41174.1
43307
44024.6
44060.2
43986.2
43750.8
43782
-8.30847
69.9502
95.5636
157.948
209.126
270.366
332.202
396.824
462.398
530.527
598.182
661.084
722.891
781.428
837.024
887.855
925.984
952.129
974.009
990.695
998.876
999.771
994.684
987.097
979.636
976.376
987.611
1049.05
1238.63
1625.91
2194.96
2877.7
3630.75
4439.25
5264.36
6103.59
6967.03
7849.36
8736.99
9616.58
10460.5
11239.8
11926.4
12489.9
12895.2
13101.2
13095.8
12913.1
12620
12281.9
11943.1
11626.1
11340.1
11086.1
10861.2
10662.5
10477.3
10262.6
10004
9858.52
9997.42
10451.3
11242.3
12414.3
14020.7
16117.4
18777.5
22054.1
25918.8
30218
34646.4
38700.9
41817.1
43584.1
44076.5
44142.2
44009.7
43797.3
43767.2
-12.062
71.9126
95.2174
159.649
210.438
273.246
336.582
402.811
469.774
539.186
608.207
672.56
735.628
795.122
851.079
901.892
940.157
966.692
988.45
1004.13
1011.05
1010.69
1004.41
995.843
987.855
984.894
998.17
1065.78
1267.43
1669.03
2250.58
2940.9
3703.12
4519.81
5351.17
6198.99
7072.64
7966.47
8868.14
9764.66
10628.2
11429
12138.6
12727.4
13162.8
13405.8
13443.4
13304.9
13051.6
12746.8
12435.1
12141
11875.4
11641.2
11437.1
11261.4
11098.3
10898.9
10657.1
10556.5
10765.6
11302
12192.8
13482.4
15222.1
17459.1
20247.8
23614.6
27496
31701.2
35906.4
39622.6
42356.2
43799.3
44102.9
44208.8
44020.9
43824.1
43753.8
-15.5647
73.8571
94.9362
161.139
211.401
275.635
340.425
408.194
476.534
547.166
617.455
683.278
747.584
808.027
864.381
915.188
953.605
980.529
1002.11
1016.78
1022.56
1021.12
1013.77
1004.29
995.821
993.196
1008.66
1082.82
1296.07
1710.98
2304.22
3001.59
3772.1
4596.04
5433.15
6289.09
7172.18
8076.58
8991.28
9903.6
10785.6
11607.1
12339.1
12953.1
13417.8
13697.6
13778.7
13685.9
13475
13206.7
12925.7
12658.3
12417.1
12206.6
12027.8
11879.5
11742.1
11561.3
11343.1
11295.4
11580
12203.4
13196.7
14603.2
16470.9
18836.4
21733.6
25160.9
29022.5
33097.2
37053.6
40428
42802.1
43963.2
44112.8
44230.9
44021.2
43838.9
43740.5
-18.6989
75.7678
94.7803
162.41
212.027
277.516
343.703
412.943
482.604
554.401
625.898
693.22
758.761
820.143
876.941
927.774
966.356
993.638
1014.97
1028.68
1033.48
1031.08
1022.81
1012.51
1003.61
1001.32
1019.15
1100.11
1324.5
1752.16
2355.64
3059.74
3837.68
4667.72
5510.39
6374.07
7265.8
8179.94
9106.68
10033.6
10932.9
11774.1
12528.1
13166.9
13660.3
13976.4
14101.2
14055
13888.7
13659.7
13412.7
13175.3
12962
12779.3
12629.7
12513
12404.6
12245.8
12059.1
12072.3
12436.5
13150.4
14247.3
15768.4
17756.5
20236.1
23219.5
26677.4
30485
34398.1
38087.6
41124.1
43165.7
44085
44118.2
44227.3
44024.3
43847.5
43728.1
-21.3665
77.6049
94.7653
163.472
212.351
278.877
346.381
417.04
487.929
560.849
633.536
702.354
769.137
831.475
888.769
939.678
978.446
1006.04
1027.06
1039.89
1043.87
1040.62
1031.57
1020.57
1011.3
1009.34
1029.68
1117.49
1352.76
1792.92
2405.26
3114.76
3899.58
4734.78
5582.92
6454.06
7353.71
8276.79
9214.5
10154.8
11070.3
11930.3
12705.8
13368.6
13890.3
14242.4
14410.5
14411.6
14291.3
14103.8
13893.6
13689.3
13507.3
13355.8
13239.4
13158
13081.4
12947.8
12801.3
12882.9
13329.9
14136.8
15336.9
16968.3
19067
21644.4
24690.6
28150
31872.4
35598.6
39010.1
41719
43457.3
44173.2
44128.2
44215.9
44031.5
43854.2
43718.9
-23.4868
79.3435
94.902
164.327
212.403
279.722
348.45
420.479
492.48
566.507
640.353
710.657
778.7
842.027
899.881
950.929
989.908
1017.75
1038.41
1050.51
1053.78
1049.81
1040.12
1028.56
1018.97
1017.34
1040.34
1134.93
1381.09
1832.89
2452.82
3166.6
3957.06
4797.25
5650.88
6529.19
7436.1
8367.29
9315.08
10267.6
11198.1
12075.9
12872.2
13558.7
14108.4
14495.4
14706.4
14754.8
14681.5
14537.4
14366.2
14197.7
14049.9
13932.8
13853
13810.2
13768
13663.1
13564.9
13721.8
14254
15155.2
16456.6
18192.2
20390
23047.4
26132.8
29565.9
33176
36696.1
39825.2
42221.9
43687.4
44234.7
44146.7
44203.7
44042.5
43860
43712.8
-25.0048
80.9778