/*--------------------------------*- C++ -*----------------------------------*\
| =========                 |                                                 |
| \\      /  F ield         | OpenFOAM: The Open Source CFD Toolbox           |
|  \\    /   O peration     | Version:  4.1                                   |
|   \\  /    A nd           | Web:      www.OpenFOAM.org                      |
|    \\/     M anipulation  |                                                 |
\*---------------------------------------------------------------------------*/
FoamFile
{
    version     2.0;
    format      ascii;
    class       surfaceScalarField;
    location    "25";
    object      phi;
}
// * * * * * * * * * * * * * * * * * * * * * * * * * * * * * * * * * * * * * //

dimensions      [0 3 -1 0 0 0 0];

internalField   nonuniform List<scalar> 
13220
(
-893.666
2193.63
-1387.13
1793.72
-1855.86
1768.68
-2212.49
1656.57
-2488.67
1576.43
-2685.86
1497.13
-2806.56
1420.64
-2851.7
1345.38
-2821.76
1269.99
-2716.71
1194.88
-2540.98
1124.5
-2283.7
1042.66
-1870.19
886.445
-1151.47
581.545
148.43
-39.2586
2233
-114.545
1869.12
-276.874
1931.13
-406.453
1786.26
-539.14
1709.22
-653.163
1611.25
-750.311
1517.89
-827.179
1422.33
-885.546
1328.43
-930.5
1239.9
-959.193
1153.24
-929.534
1013.07
-716.471
673.49
-265.494
130.852
-117.046
-129.666
2362.76
-329.122
2068.68
-506.843
2108.94
-610.783
1890.3
-705.222
1803.77
-762.995
1669.13
-795.898
1550.89
-804.216
1430.76
-788.693
1313.02
-750.064
1201.45
-686.811
1090.13
-586.425
913.005
-423.46
511.329
-220.537
-70.8284
-337.581
59.8686
2302.98
24.8669
2103.78
28.2232
2105.69
66.6533
1851.98
105.578
1764.96
164.656
1610.17
238.201
1477.47
326.532
1342.55
426.086
1213.61
533.779
1093.85
642.692
981.312
707.887
847.84
604.241
615.036
198.513
335.034
-139.062
102.152
2200.88
143.24
2062.75
201.347
2047.64
272.789
1780.6
333.756
1704.06
406.019
1537.97
474.525
1409.03
543.257
1273.86
612.457
1144.45
681.81
1024.54
733.454
929.647
738.517
842.935
625.032
728.654
379.02
581.304
239.949
31.7198
2169.18
64.6797
2029.82
91.2846
2021.07
115.158
1756.76
129.907
1689.34
153.349
1514.55
170.572
1391.82
208.105
1236.32
291.162
1061.38
426.683
888.938
551.513
804.792
591.911
802.224
510.245
810.022
314.641
776.485
554.592
-29.8997
2199.08
-77.857
2077.77
-107.026
2050.24
-158.232
1807.97
-206.567
1737.67
-256.96
1564.93
-310.322
1445.17
-331.448
1257.44
-282.43
1012.35
-145.995
752.531
41.8421
616.919
206.936
637.315
267.437
749.661
184.684
859.371
739.272
-2.7688
2201.85
-162.174
2237.18
-251.047
2139.11
-356.886
1913.8
-462.199
1842.96
-570.212
1672.93
-687.169
1562.1
-800.24
1370.49
-897.489
1109.58
-948.749
803.733
-901.286
569.448
-703.777
439.612
-398.782
444.462
-120.509
580.835
618.766
120.974
2080.87
-37.5461
2395.7
-127.889
2229.44
-207.84
1993.76
-280.276
1915.4
-357.356
1750.03
-437.503
1642.26
-543.359
1476.37
-696.436
1262.66
-886.86
994.215
-1046
728.578
-1076.32
470.122
-872.093
240.406
-426.951
135.942
191.811
215.361
1865.5
165.849
2445.22
125.729
2269.56
111.018
2008.48
123.466
1902.95
126.601
1746.9
138.629
1630.22
129.239
1485.75
70.3624
1321.52
-57.58
1122.11
-226.572
897.552
-397.169
640.449
-490.076
332.96
-382.244
27.6379
-190.426
205.839
1659.65
241.897
2409.15
258.893
2252.53
291.432
1975.92
347.516
1846.83
397.906
1696.48
454.31
1573.78
502.767
1437.26
528.654
1295.59
508.988
1141.77
437.475
968.975
306.282
771.89
113.126
526.435
-81.5425
222.801
-271.991
126.755
1532.83
170.701
2365.17
184.297
2238.87
201.363
1958.8
240.725
1807.36
280.031
1657.11
324.283
1529.42
364.325
1397.15
394.948
1264.87
407.485
1129.08
395.963
980.43
352.813
814.563
263.01
615.61
112.604
371.883
-159.379
114.25
1418.48
230.059
2249.3
321.921
2146.92
388.808
1891.85
451.935
1744.16
497.406
1611.58
524.427
1502.35
538.592
1382.93
539.754
1263.68
519.414
1149.42
466.925
1032.89
383.65
897.971
285.223
714.182
146.788
510.77
-12.6058
-130.737
1549.12
-187.244
2305.77
-218.598
2178.2
-242.521
1915.74
-227.995
1729.55
-191.694
1575.25
-127.857
1438.42
-47.3372
1302.4
42.7322
1173.55
151.977
1040.08
270.617
914.223
293.463
874.847
228.516
778.876
228.804
509.975
216.206
13.7968
352.626
464.782
406.941
244.492
63.8512
-90.3321
-221.837
-338.719
-390.091
-404.707
-328.65
-291.425
-206.054
-0.00836731
-45.4411
45.4221
-45.4521
-45.4619
-45.4731
-81.8015
36.3182
-81.8128
-81.8224
-81.8338
-134.008
52.1642
-134.021
-134.03
-170.111
36.068
-170.12
-170.132
-170.142
-185.414
15.2588
-185.425
-185.439
-190.226
4.77728
-190.239
-190.248
-190.262
-169.767
-20.5044
-169.781
-169.79
-169.804
-128.321
-41.4917
-128.337
-128.345
-78.5927
-49.7685
-78.6011
-78.6169
-78.6255
-31.9
-46.7439
-31.9101
-31.9283
14.1642
-46.102
14.1462
14.1384
14.1196
37.3819
-23.2709
37.363
37.3562
37.3367
72.4466
-35.115
72.4252
72.4215
105.854
-33.4544
105.85
105.828
105.825
114.558
-8.75767
114.557
114.533
114.533
93.6967
20.8074
93.6962
93.6658
41.3979
52.2688
41.3679
41.3719
41.338
-30.6137
71.9681
-30.6482
-30.6265
-132.978
102.304
-132.95
-132.987
-132.955
-780.593
647.594
-780.558
-780.599
-780.544
-1704.69
924.083
-1704.63
-1704.74
-2827.9
1123.2
-2828.01
-2828.01
-2837.96
-2819.69
-2826.07
-4260.96
1415.88
-4230.85
-4175.14
-4093.17
-4011.6
-3934.2
-3859.98
-3758.91
-3629.01
-5366.11
1868.85
-5218.34
-5071.36
-4924.59
-4782.3
-4639.06
-4492.2
-4336.28
-4179.42
-6420.67
2399.75
-6245.25
-6069.51
-5891.75
-5713.95
-5528.21
-5327.9
-5125.57
-4916.4
-4705.45
-7379.86
2879.26
-7140.56
-6899.47
-6657.17
-6414.53
-6171.93
-5916.68
-5648.46
-5374.96
-8291.9
3181.25
-8018.62
-7736.85
-7441.62
-7143.71
-6843.54
-6544.99
-6241.36
-5906.65
-8867.55
3284.47
-8540.1
-8209.52
-7880.44
-7534.49
-7181.37
-6829.38
-6473.42
-6110.67
-8989.15
3240.58
-8619.23
-8246.27
-7875.57
-7508.63
-7145.15
-6752.06
-6363.99
-5976.98
-5587.11
-7746.86
2547.3
-7375.84
-6996.73
-6625.21
-6258.12
-5893.83
-5554.57
-5261.48
-4962.35
-6007.29
1345.17
-5745.3
-5479.94
-5479.94
-6551.07
1071.11
-7242.17
691.114
-7242.18
-7725.92
483.749
-7725.92
-8105.36
379.442
-8205.04
99.6794
-8205.04
-8255.91
50.8638
-8146.39
-109.508
-8146.4
-7941.15
-205.236
-7941.16
-7689.84
-251.318
-7306.62
-383.233
-7306.61
-6776.89
-529.737
-6776.88
-6097.15
-679.738
-5231.32
-865.828
-5231.33
-4123.92
-1107.41
-2809.79
-1314.14
-2809.79
-1210.81
-1599
-1210.81
770.407
-1981.23
2965.47
-2195.05
2965.46
5207.44
-2241.97
5207.43
7405.23
-2197.8
9606.07
-2200.84
9606.08
11684.2
-2078.11
13647.9
-1963.75
13647.9
15387.3
-1739.31
15387.2
16869.1
-1481.86
17936.7
-1067.59
17936.7
18860.2
-923.497
18860.2
19887.5
-1027.34
21515.7
-1628.16
21515.7
25133.2
-3617.46
29671.1
-4537.96
29671.1
33174.8
-3503.68
33174.8
34830
-1655.2
34982.9
-152.868
34982.9
32939.6
2043.25
32939.6
28240.5
4699.09
22054.1
6186.46
22054.1
12819.8
9234.3
1795.48
11024.3
1795.47
-16525.4
18320.9
-16525.4
-45313.2
28787.8
-84470.5
39157.3
-84470.5
-133077
48606.3
-133077
-193560
60482.7
-259830
66270.1
-259830
-339688
79858.1
-421681
81993.1
-421681
-514509
92828.2
-514509
107272
-2563.13
-12047.1
-2550.73
-14159.6
-2540.06
-15501
-2531.26
-16867.9
-2536.5
-18147.9
-2570.08
-19219.8
-2646.8
-20090.1
-2766.72
-20783.2
-2911.51
-21439.1
-3061.52
-22200.1
-3207.84
-23153.9
-3351.33
-24293.8
-3499.27
-25569.1
-3656.27
-26923.7
-3824.07
-28296.7
-4003.79
-29614.6
-4199.46
-30797
-4421.31
-31836.9
-4675.36
-32790.9
-4959.63
-33707.6
-5278.15
-34683.5
-5638.14
-35801.7
-6055.42
-37090.5
-6537.29
-38518.5
-7067.38
-39886.6
-7634.53
-41070.3
-8223.06
-42070.6
-8819.82
-42918.8
-9433.11
-43751.2
-10060
-44707.3
-10686.7
-45835.9
-11316.9
-47208.8
-11952.7
-48805.4
-12587.4
-50581.1
-13219
-52531.7
-13840.6
-54642.3
-14451.6
-56881.6
-15054.1
-59298.7
-15638.4
-61812.2
-16190.5
-64396.1
-16686.6
-66825.4
-17083.1
-68707.5
-17277.7
-69173
-17082.1
-66699
-16349.1
-59929.2
-15287.7
-50095
-14451.6
-42009.4
-14123.3
-39002.7
-14081.3
-39031.8
-14061.9
-38966.3
-14005.4
-38025.1
-13937.1
-36521.9
-13876.7
-34629
-13838.3
-32387.5
-13833.8
-29867.1
-13870.7
-27106.8
-13957.4
-24108.9
-14107.1
-20877.5
-14330
-17422
-14620.9
-13727.9
-14956.4
-9751.88
-15306
-5567.18
-15652.9
-1493.95
-16054.7
2151.41
-16629.1
5668.32
-17439.1
9519.35
-18515.3
13968.3
-19915.4
19310.8
-21718.4
25931.6
-24033.3
34377.1
-27013
45453.2
-30878.6
60380.9
-35961.2
81067.6
-42769.8
110626
-52101.3
154198
-65170.8
220036
-83284.9
320163
-104080
460040
600604
-2666.31
-12062.4
-2648.08
-14177.8
-2634.53
-15514.5
-2625.68
-16876.7
-2635.14
-18138.5
-2677.73
-19177.3
-2766.22
-20001.6
-2896.07
-20653.3
-3045.32
-21289.9
-3194.5
-22051
-3338.45
-23010
-3481.46
-24150.8
-3630.95
-25419.6
-3791.18
-26763.5
-3964.28
-28123.6
-4152.67
-29426.2
-4360.89
-30588.8
-4598.96
-31598.8
-4872.74
-32517.1
-5179.07
-33401.2
-5520.33
-34342.3
-5901.03
-35421
-6335.92
-36655.6
-6835.11
-38019.4
-7383.05
-39338.7
-7971.22
-40482.1
-8584.84
-41456.9
-9205.38
-42298.3
-9836.99
-43119.6
-10476.6
-44067.7
-11110.4
-45202.1
-11743.9
-46575.3
-12380.7
-48168.6
-13014.8
-49946.9
-13645.7
-51900.7
-14267.3
-54020.7
-14879.1
-56269.8
-15484.4
-58693.5
-16074.2
-61222.3
-16634.8
-63835.4
-17141.7
-66318.5
-17554.4
-68294.7
-17782.3
-68945.1
-17652.8
-66828.5
-17003.4
-60578.5
-15974.6
-51123.9
-15085.4
-42898.6
-14685
-39403.1
-14619
-39097.7
-14617.1
-38968.2
-14588.9
-38053.3
-14544.2
-36566.5
-14499.6
-34673.7
-14470.1
-32416.9
-14469.9
-29867.3
-14504.3
-27072.5
-14572.6
-24040.6
-14678.4
-20771.7
-14834
-17266.4
-15052.5
-13509.4
-15333.9
-9470.47
-15662.1
-5238.97
-16029.2
-1126.88
-16483.1
2605.35
-17108.5
6293.75
-17959.4
10370.2
-19078.8
15087.7
-20528.5
20760.5
-22391.1
27794.2
-24778.7
36764.6
-27848.2
48522.7
-31826.4
64359.1
-37050.3
86291.5
-44040.6
117616
-53673.4
163831
-67418.2
233781
-86416.5
339161
-105451
479075
587981
-2723.29
-12081.2
-2702.96
-14198.1
-2688.44
-15529
-2681.34
-16883.8
-2695.84
-18124
-2747.03
-19126.1
-2844.68
-19903.9
-2980.06
-20517.9
-3130.32
-21139.6
-3277.94
-21903.3
-3420.62
-22867.3
-3564.75
-24006.6
-3716.49
-25267.8
-3879.31
-26600.6
-4056.19
-27946.7
-4251.48
-29230.9
-4470.48
-30369.8
-4721.26
-31348
-5008.45
-32229.9
-5329.3
-33080.4
-5685.56
-33986
-6081.24
-35025.4
-6527.84
-36209
-7035.47
-37511.7
-7592.49
-38781.7
-8190.72
-39883.9
-8818.13
-40829.5
-9455.27
-41661.1
-10098.8
-42476.1
-10745.7
-43420.7
-11385.8
-44562.1
-12024.1
-45937
-12664.4
-47528.3
-13301.6
-49309.7
-13935.9
-51266.4
-14561.6
-53395.1
-15177.3
-55654.1
-15785.8
-58085
-16379.7
-60628.5
-16946.1
-63269.1
-17459.4
-65805.2
-17879.4
-67874.8
-18118.1
-68706.4
-18012.8
-66933.9
-17402
-61189.3
-16396.9
-52129
-15488.4
-43807.1
-15046.3
-39845.2
-14955
-39189
-14952.8
-38970.3
-14936.5
-38069.7
-14905.1
-36598
-14871
-34707.8
-14848.2
-32439.7
-14852.7
-29862.8
-14894.7
-27030.5
-14977.8
-23957.5
-15104.4
-20645.1
-15280
-17090.8
-15513.4
-13276
-15807.3
-9176.56
-16152.8
-4893.43
-16548.7
-731.031
-17045.8
3102.53
-17719.2
6967.07
-18617.1
11268.2
-19788.5
16259.1
-21298.2
22270.1
-23232.4
29728.5
-25707.5
39239.7
-28884.2
51699.4
-32991.9
68466.8
-38372.4
91672.1
-45593
124837
-55738.4
173976
-70611.6
248654
-90354.6
358904
-104771
493491
565203
-2789.39
-12103.1
-2766.99
-14220.5
-2751.5
-15544.5
-2746.32
-16889
-2766.46
-18103.8
-2827.03
-19065.5
-2934.86
-19796.1
-3077.02
-20375.8
-3229.13
-20987.5
-3375.53
-21756.9
-3517.17
-22725.6
-3662.31
-23861.5
-3816.58
-25113.6
-3982.99
-26434.2
-4165.06
-27764.7
-4368.85
-29027.1
-4600.76
-30137.9
-4866.92
-31081.9
-5169.86
-31927
-5507.12
-32743.1
-5879.84
-33613.3
-6292.49
-34612.7
-6753.51
-35748
-7271.78
-36993.4
-7841.4
-38212
-8453.33
-39271.9
-9096.77
-40186.1
-9752.39
-41005.5
-10409.2
-41819.3
-11064.3
-42765.6
-11711
-43915.4
-12353.9
-45294.1
-12997.2
-46884.9
-13637.8
-48669.1
-14275.9
-50628.3
-14905.7
-52765.3
-15526
-55033.9
-16138.7
-57472.3
-16737.1
-60030
-17310.7
-62695.5
-17834.1
-65281.8
-18267.3
-67441.6
-18525.3
-68448.4
-18452.4
-67006.7
-17884.3
-61757.5
-16900.8
-53112.4
-15965.4
-44742.6
-15473.8
-40336.7
-15353.2
-39309.7
-15350.1
-38973.4
-15347.4
-38072.3
-15332.7
-36612.6
-15313
-34727.5
-15299.9
-32452.9
-15309.3
-29853.3
-15353.5
-26986.4
-15438.6
-23872.3
-15569.8
-20513.9
-15755.2
-16905.4
-16005.1
-13026.1
-16322.4
-8859.32
-16695.3
-4520.47
-17121.6
-304.704
-17658
3638.91
-18377.3
7686.33
-19324.5
12215.4
-20551.8
17486.4
-22126.6
23845
-24139.3
31741.1
-26709.6
41810
-30000.2
54989.9
-34240.1
72706.7
-39791.9
97223.9
-47344.1
132389
-58273.8
184906
-74390.4
264771
-94038.4
378552
-103905
503358
541157
-2848.94
-12127.5
-2825.17
-14244.3
-2809.26
-15560.4
-2806.65
-16891.6
-2833.12
-18077.4
-2903.35
-18995.3
-3020.89
-19678.5
-3169.03
-20227.6
-3322.2
-20834.4
-3467.19
-21611.9
-3608.46
-22584.4
-3755.32
-23714.6
-3912.73
-24956.2
-4083.44
-26263.5
-4271.65
-27576.5
-4484.83
-28814
-4730.23
-29892.5
-5012.5
-30799.6
-5331.56
-31607.9
-5684.33
-32390.4
-6072
-33225.6
-6500.19
-34184.5
-6975.54
-35272.6
-7505.8
-36463.2
-8088.59
-37629.2
-8713.87
-38646.6
-9372.07
-39527.9
-10043.5
-40334.1
-10710.9
-41151.9
-11371.7
-42104.8
-12022.5
-43264.6
-12667.7
-44648.9
-13312.3
-46240.3
-13955.5
-48026
-14597.4
-49986.4
-15232
-52130.7
-15858.3
-54407.5
-16477.6
-56853.1
-17082.8
-59424.8
-17665.3
-62113
-18201.1
-64746
-18650.6
-66992
-18931.1
-68167.9
-18893.5
-67044.4
-18370.6
-62280.3
-17412.8
-54070.2
-16451.8
-45703.6
-15906.5
-40882
-15750.4
-39465.8
-15741.8
-38982
-15750.7
-38063.4
-15753.2
-36610.1
-15750.4
-34730.3
-15750.3
-32453
-15768.9
-29834.7
-15820.2
-26935.1
-15913
-23779.5
-16054
-20373
-16252.7
-16706.7
-16521.5
-12757.3
-16863.9
-8516.94
-17265.3
-4118.98
-17720.9
150.829
-18294.4
4212.43
-19059.2
8451.17
-20056.9
13213
-21342.5
18772
-22986.2
25488.7
-25081.2
33836.1
-27748.8
44477.7
-31150.5
58391.6
-35520.4
77076.6
-41280.8
102984
-49321.7
140430
-61275.5
196860
-78473.8
281969
-96981.1
397060
-100921
507298
506505
-2905.63
-12154.1
-2881.01
-14268.9
-2865.24
-15576.2
-2865.75
-16891.1
-2899.22
-18043.9
-2979.55
-18915
-3106.67
-19551.4
-3260.18
-20074.1
-3414.17
-20680.4
-3558.21
-21467.9
-3699.88
-22442.7
-3849.16
-23565.3
-4010.33
-24795
-4186.06
-26087.8
-4381.4
-27381.1
-4605.11
-28590.2
-4864.84
-29632.7
-5164
-30500.5
-5500.25
-31271.7
-5868.36
-32022.2
-6269.94
-32824.1
-6712.38
-33742.1
-7202.14
-34782.8
-7746.99
-35918.3
-8344.51
-37031.7
-8983.03
-38008.1
-9655
-38855.9
-10339.7
-39649.4
-11015.8
-40475.8
-11680.6
-41440
-12333.9
-42611.3
-12980.4
-44002.4
-13625.7
-45595.1
-14271
-47380.6
-14917
-49340.4
-15557.5
-51490.3
-16191.8
-53773.2
-16819.6
-56225.3
-17433.8
-58810.6
-18027.3
-61519.5
-18577.7
-64195.5
-19047
-66522.7
-19354.1
-67860.8
-19355
-67043.5
-18879.8
-62755.6
-17949.9
-55000
-16964
-46689.5
-16360.8
-41485.2
-16163.2
-39663.5
-16144.6
-39000.7
-16162.4
-38045.6
-16181.8
-36590.8
-16197.5
-34714.5
-16213.5
-32437
-16243.8
-29804.4
-16303.9
-26875.1
-16405
-23678.3
-16556.4
-20221.6
-16769
-16494
-17057.1
-12469.3
-17424.3
-8149.7
-17853.8
-3689.55
-18338.9
635.937
-18949.7
4823.31
-19759.8
9261.2
-20808.8
14262
-22154.6
20117.8
-23869.7
27203.7
-26047.6
36014
-28808.2
47238.3
-32312.2
61895.6
-36819
81583.4
-42865
109030
-51582.6
149148
-64677.9
209955
-82486.1
299777
-98740.6
413314
-96801.5
505359
470187
-2958.53
-12183
-2933.46
-14294
-2918.54
-15591.1
-2922.87
-16886.8
-2964.06
-18002.7
-3054.9
-18824.1
-3191.37
-19414.9
-3349.6
-19915.9
-3504.16
-20525.8
-3647.71
-21324.3
-3790.43
-22300
-3942.74
-23413
-4108.32
-24629.4
-4289.9
-25906.2
-4493.5
-27177.5
-4728.89
-28354.9
-5003.78
-29357.8
-5320.34
-30183.9
-5674.37
-30917.6
-6058.24
-31638.4
-6473.21
-32409.1
-6928.33
-33286.9
-7431.73
-34279.4
-7992.46
-35357.6
-8606.36
-36417.8
-9258.72
-37355.8
-9943.01
-38171.6
-10637.9
-38954.4
-11319.8
-39793.9
-11986.9
-40773
-12641.1
-41957.1
-13288.1
-43355.4
-13933.7
-44949.5
-14580.9
-46733.4
-15231
-48690.3
-15878.3
-50842.9
-16522.3
-53129.2
-17160.2
-55587.4
-17785.9
-58184.8
-18393
-60912.4
-18960.1
-63628.4
-19451.2
-66031.6
-19787.9
-67524.1
-19830.5
-67000.9
-19406.2
-63179.8
-18509.6
-55896.6
-17502.6
-47696.5
-16838.4
-42149.5
-16591.4
-39910.5
-16556
-39036.1
-16579
-38022.6
-16613.8
-36555.9
-16649.1
-34679.3
-16683.8
-32402.2
-16729.4
-29758.8
-16801.5
-26803
-16913.4
-23566.4
-17076.4
-20058.6
-17303.5
-16266.9
-17609.7
-12163
-17999
-7760.44
-18454.2
-3234.39
-18972.2
1153.96
-19623.6
5474.74
-20478.8
10116.3
-21580.1
15363.4
-22987.6
21525.4
-24774.4
28990.5
-27032.1
38271.7
-29877.7
50083.9
-33479.9
65497.8
-38156.4
86259.9
-44609.5
115483
-54183.9
158722
-68380.7
224152
-86178.2
317575
-99336.9
426473
-91313.8
497336
427479
-3007.94
-12214.1
-2982.58
-14319.3
-2969.31
-15604.4
-2978.26
-16877.8
-3027.98
-17953
-3129.65
-18722.5
-3275.17
-19269.4
-3437.52
-19753.5
-3592.55
-20370.8
-3736.11
-21180.8
-3880.51
-22155.6
-4036.37
-23257.2
-4206.98
-24458.8
-4395.26
-25717.9
-4608.28
-26964.5
-4856.57
-28106.6
-5147.59
-29066.8
-5481.92
-29849.6
-5853.52
-30546
-6253.4
-31238.5
-6681.81
-31980.7
-7148.37
-32820.4
-7664.62
-33763.2
-8241.56
-34780.7
-8872.72
-35786.7
-9540.4
-36688.1
-10236
-37476.1
-10937.4
-38253
-11622.3
-39108.9
-12290.1
-40105.2
-12944.1
-41303
-13590.9
-42708.6
-14236.7
-44303.7
-14885.8
-46084.3
-15540.2
-48035.9
-16195.2
-50187.9
-16850.3
-52474.1
-17500
-54937.7
-18139.5
-57545.4
-18762.9
-60289
-19348.8
-63042.5
-19863.7
-65516.7
-20232.6
-67155.2
-20319.8
-66913.7
-19950.4
-63549.2
-19092.9
-56754.1
-18070.3
-48719.1
-17343.7
-42876
-17039.7
-40214.5
-16979.8
-39096
-17002.7
-37999.7
-17050.4
-36508.2
-17104.7
-34625.1
-17159.8
-32347.1
-17223.4
-29695.2
-17310.6
-26715.8
-17436.1
-23441
-17613.2
-19881.5
-17856.3
-16023.8
-18180.9
-11838.3
-18590.9
-7350.52
-19070.4
-2754.82
-19622.7
1706.19
-20315.9
6167.99
-21216.6
11017
-22371.1
16517.9
-23840.1
22994.3
-25695.6
30846.1
-28026.1
40602.2
-30949.4
53007.2
-34660.3
69208.7
-39575.1
91174.7
-46585.6
122494
-57141.9
169278
-72233.2
239243
-89309.9
334651
-98672.6
435835
-84771.8
483435
381865
-3054.06
-12247.8
-3028.32
-14345.1
-3017.44
-15615.3
-3032.02
-16863.2
-3091.14
-17893.9
-3203.91
-18609.7
-3358.1
-19115.2
-3524.06
-19587.6
-3679.53
-20215.3
-3823.64
-21036.7
-3970.32
-22008.9
-4130.2
-23097.3
-4306.47
-24282.5
-4502.4
-25522
-4726.03
-26740.9
-4988.48
-27844.1
-5296.59
-28758.7
-5648.95
-29497.2
-6037.59
-30157.4
-6452.94
-30823.1
-6895.17
-31538.4
-7373.16
-32342.4
-7901.33
-33235
-8493.59
-34188.4
-9142.58
-35137.7
-9826.67
-36004
-10531.5
-36771.2
-11236.1
-37548.4
-11921.8
-38423.3
-12588.9
-39438
-13242
-40650
-13888.2
-42062.4
-14534.4
-43657.6
-15185.8
-45433
-15844.8
-47376.9
-16507.8
-49524.9
-17175.1
-51806.9
-17838.4
-54274.4
-18493.4
-56890.4
-19135.4
-59647
-19742.4
-62435.6
-20283
-64976.1
-20686.6
-66751.6
-20821.4
-66779
-20510.8
-63859.8
-19699.3
-57565.6
-18668.8
-49749.6
-17880.7
-43664.1
-17512.7
-40582.5
-17419.6
-39189.1
-17436
-37983.2
-17492.6
-36451.7
-17564.2
-34553.4
-17640.1
-32271.2
-17723.8
-29611.5
-17828.6
-26611
-17970.3
-23299.3
-18164
-19687.8
-18425.7
-15762.2
-18770.6
-11493.4
-19201.6
-6919.51
-19705.2
-2251.22
-20291.3
2292.26
-21026.2
6902.94
-21972.6
11963.4
-23179.8
17725.1
-24707.7
24522.3
-26626.3
32764.7
-29021.9
42997.8
-32022.2
56007.5
-35875.5
73062
-41130
96429.3
-48848.3
130212
-60417.2
180847
-76047.7
254874
-91695.7
350299
-96818.5
440958
-77422.7
464039
333230
-3097.18
-12284.1
-3070.84
-14371.4
-3062.97
-15623.1
-3084.32
-16841.9
-3153.83
-17824.4
-3277.92
-18485.6
-3440.31
-18952.8
-3609.41
-19418.5
-3765.39
-20059.3
-3910.65
-20891.4
-4060.2
-21859.3
-4224.6
-22932.9
-4407.17
-24100
-4611.79
-25317.4
-4847.3
-26505.3
-5125.14
-27566.3
-5451.18
-28432.7
-5821.68
-29126.7
-6226.94
-29752.1
-6657.13
-30393
-7113.35
-31082.2
-7603.68
-31852.1
-8143.54
-32695.2
-8749.77
-33582.2
-9416.29
-34471.1
-10116.4
-35303.9
-10827.9
-36059.8
-11532.6
-36843.7
-12217
-37738.8
-12882.4
-38772.7
-13534
-39998.3
-14179.6
-41416.7
-14826.5
-43010.7
-15480.6
-44778.8
-16145
-46712.5
-16816.4
-48853.5
-17496.2
-51127
-18174.9
-53595.8
-18847.4
-56217.9
-19509.7
-58984.6
-20140.1
-61805.2
-20708.9
-64407.3
-21149.4
-66311.1
-21334.1
-66594.3
-21086.3
-64107.6
-20328.1
-58323.8
-19299.1
-50778.6
-18453
-44510.1
-18015.1
-41020.4
-17879.7
-39324.6
-17882.2
-37980.7
-17942.3
-36391.5
-18028.4
-34467.3
-18124.3
-32175.3
-18229
-29506.8
-18353.4
-26486.5
-18513.5
-23139.3
-18726.3
-19475
-19009.3
-15479.1
-19377.2
-11125.5
-19830.5
-6466.26
-20357.7
-1724.02
-20976.9
2911.51
-21753.2
7679.19
-22744.7
12954.9
-24002.5
18982.8
-25584.7
26104.5
-27559.3
34739.2
-30015.3
45453.7
-33106.6
59098.8
-37163.1
77118.6
-42880
102146
-51423.6
138756
-63921.3
193345
-79632
270585
-93220
363887
-93894.1
441632
-69541.3
439686
282009
-3137.6
-12323.3
-3110.39
-14398.6
-3106.02
-15627.5
-3135.35
-16812.6
-3216.35
-17743.3
-3351.99
-18350
-3522.08
-18782.7
-3693.84
-19246.7
-3850.45
-19902.7
-3997.45
-20744.4
-4150.47
-21706.3
-4319.87
-22763.5
-4509.43
-23910.4
-4723.83
-25103
-4972.58
-26256.6
-5266.99
-27271.9
-5611.63
-28088
-6000.26
-28738.1
-6421.66
-29330.7
-6866.11
-29948.5
-7335.61
-30612.7
-7839.52
-31348.2
-8392.73
-32141.9
-9012.31
-32962.6
-9693.61
-33789.9
-10407.1
-34590.4
-11123.1
-35343.8
-11825.5
-36141.3
-12507
-37057.4
-13169.6
-38110
-13819.6
-39348.4
-14464.9
-40771.3
-15112.8
-42362.8
-15770.1
-44121.5
-16440.7
-46041.9
-17121
-48173.2
-17813.5
-50434.5
-18509.1
-52900.2
-19201.4
-55525.6
-19885.8
-58300.3
-20541.7
-61149.2
-21140.6
-63808.3
-21619.9
-65831.8
-21856.8
-66357.3
-21675.4
-64289.1
-20978.1
-59021.1
-19961.7
-51795
-19063.6
-45408.1
-18551.7
-41532.3
-18364.8
-39511.6
-18344.9
-38000.6
-18402.3
-36334.1
-18498.5
-34371.1
-18612.5
-32061.3
-18738.4
-29380.9
-18883.8
-26341.1
-19064.1
-22959
-19297.9
-19241.2
-19604.8
-15172.3
-19998.4
-10731.9
-20475.5
-5989.17
-21025.7
-1173.77
-21676.9
3562.63
-22493.3
8495.68
-23528.2
13989.8
-24832.5
20287.2
-26462.7
27734.7
-28487.4
36763.8
-31008.2
47974.6
-34225.4
62316
-38571.7
81464.9
-44875.2
108450
-54301.1
148182
-67530.5
206574
-82808.6
285863
-93810.9
374890
-89993.1
437814
-61622.2
411315
231411
-3175.63
-12365.3
-3147.4
-14426.9
-3146.94
-15628
-3185.38
-16774.1
-3279.08
-17649.6
-3426.52
-18202.5
-3603.71
-18605.5
-3777.66
-19072.8
-3935.04
-19745.4
-4084.37
-20595.1
-4241.45
-21549.2
-4416.37
-22588.6
-4613.66
-23713.1
-4838.99
-24877.6
-5102.35
-25993.2
-5414.45
-26959.8
-5778.14
-27724.4
-6184.76
-28331.4
-6621.85
-28893.7
-7080.21
-29490.2
-7562.29
-30130.6
-8080.4
-30830.1
-8648.77
-31573.6
-9281.76
-32329.6
-9974.94
-33096.7
-10697.5
-33867.8
-11415.4
-34625.9
-12113.7
-35443
-12790.9
-36380.1
-13450.1
-37450.8
-14098.3
-38700.1
-14743.6
-40126
-15393
-41713.4
-16054
-43460.6
-16731.5
-45364.4
-17421.8
-47482.8
-18127.2
-49729.1
-18840.8
-52186.6
-19554.8
-54811.6
-20263.1
-57592
-20946.5
-60465.7
-21577.5
-63177.4
-22097.1
-65312.2
-22388.2
-66066.3
-22276.6
-64400.6
-21647.8
-59649.9
-20656
-52786.9
-19714.8
-46349.3
-19127.2
-42119.9
-18880
-39758.8
-18828.5
-38052.1
-18875.6
-36286.9
-18976.4
-34270.4
-19105
-31932.6
-19251
-29235
-19418.2
-26173.9
-19620.3
-22756.8
-19877
-18984.6
-20209.4
-14839.9
-20630.7
-10310.5
-21133.1
-5486.8
-21705.7
-601.144
-22386.9
4243.78
-23241.7
9350.51
-24316.5
15064.6
-25662.3
21632.9
-27335
29407.4
-29409.3
38838.1
-32013.5
50578.8
-35413.5
65715.9
-40151.9
86203.3
-47146.1
115444
-57432.7
158468
-71102.5
220244
-85424.5
300185
-93406.6
382872
-85122.7
429531
-53854.9
380048
186791
-3211.56
-12410.2
-3182.31
-14456.1
-3186.19
-15624.1
-3234.77
-16725.5
-3342.4
-17542
-3501.85
-18043.1
-3685.48
-18421.9
-3861.11
-18897.1
-4019.48
-19587
-4171.74
-20442.8
-4333.45
-21387.5
-4514.47
-22407.6
-4720.31
-23507.3
-4957.78
-24640.2
-5237.12
-25713.9
-5567.91
-26629
-5950.89
-27341.4
-6375.24
-27907.1
-6827.63
-28441.3
-7299.94
-29017.8
-7795.06
-29635.5
-8327.1
-30298
-8911.24
-30989.4
-9557.52
-31683.3
-10259.7
-32394.5
-10987.2
-33140.3
-11703.4
-33909.7
-12396
-34750.4
-13067.9
-35708.3
-13723.2
-36795.5
-14369.7
-38053.6
-15015.3
-39480.5
-15666.8
-41062
-16332
-42795.4
-17016.9
-44679.5
-17718.7
-46781
-18437.5
-49010.4
-19169.8
-51454.3
-19907.1
-54074.3
-20640.8
-56858.3
-21353.7
-59752.8
-22018.5
-62512.6
-22580.1
-64750.6
-22926.9
-65719.5
-22888.3
-64439.3
-22335.3
-60202.8
-21380.9
-53741.3
-20408.2
-47322
-19746.1
-42782
-19431
-40073.9
-19338.2
-38145
-19366.6
-36258.6
-19464.9
-34172
-19603.2
-31794.3
-19766.4
-29071.8
-19954.5
-25985.7
-20179.1
-22532.2
-20459.4
-18704.2
-20818.2
-14481.1
-21268.4
-9860.37
-21797.6
-4957.57
-22392.3
-6.48795
-23101.1
4952.58
-23991.5
10240.9
-25102.6
16175.6
-26485.4
23015.8
-28199.1
31121.2
-30333.2
40972.2
-33056.6
53302.2
-36714.2
69373.5
-41948.2
91437.3
-49696.3
123192
-60738.2
169510
-74488.6
233994
-87352.8
313049
-92000.3
387519
-79518.6
417049
-46286.4
346815
146691
-3245.67
-12458
-3215.5
-14486.3
-3224.29
-15615.3
-3284.01
-16665.8
-3406.71
-17419.3
-3578.37
-17871.4
-3767.68
-18232.6
-3944.49
-18720.3
-4104.06
-19427.4
-4259.83
-20287
-4426.8
-21220.6
-4614.58
-22219.8
-4829.85
-23292
-5080.69
-24389.3
-5377.37
-25417.2
-5727.71
-26278.6
-6130.05
-26939
-6571.65
-27465.5
-7038.91
-27974
-7525.42
-28531.3
-8034.7
-29126.2
-8580.55
-29752.2
-9179.4
-30390.6
-9838.01
-31024.7
-10546.2
-31686.3
-11274.2
-32412.3
-11986
-33198
-12671.4
-34065
-13337.2
-35042.5
-13988.5
-36144.2
-14633.4
-37408.7
-15279.6
-38834.3
-15933.8
-40407.7
-16604.1
-42125.1
-17296.8
-43986.8
-18011.1
-46066.7
-18744.1
-48277.4
-19495.7
-50702.6
-20257.3
-53312.7
-21018.1
-56097.5
-21762.2
-59008.7
-22462.8
-61812
-23067.8
-64145.6
-23471.8
-65315.4
-23508.8
-64402.3
-23038.4
-60673.2
-22134.8
-54645
-21144.4
-48312.4
-20412.5
-43513.8
-20023.8
-40462.6
-19880.1
-38288.7
-19880.4
-36258.3
-19968.2
-34084.3
-20109.6
-31652.8
-20285.6
-28895.8
-20492.2
-25779.2
-20738
-22286.4
-21041.6
-18400.7
-21425.6
-14097
-21902.8
-9383.24
-22458.1
-4402.28
-23076.8
612.272
-23813.7
5689.49
-24736.6
11163.9
-25880.7
17319.7
-27299.2
24434.2
-29060
32882
-31277.4
43189.6
-34172.8
56197.6
-38173.2
73373.9
-43991.1
97255.3
-52500.1
131701
-64113.2
181123
-77544.7
247426
-88501.6
324006
-89633.9
388652
-73351.6
400767
-39064.6
312528
112325
-3278.23
-12508.5
-3247.45
-14517.1
-3261.91
-15600.8
-3333.68
-16594.1
-3472.39
-17280.6
-3656.36
-17687.4
-3850.59
-18038.4
-4028.09
-18542.8
-4189.07
-19266.4
-4348.95
-20127.2
-4521.83
-21047.7
-4717.1
-22024.5
-4942.8
-23066.3
-5208.27
-24123.9
-5523.52
-25102
-5894.14
-25908
-6315.72
-26517.5
-6773.96
-27007.3
-7255.54
-27492.4
-7756.34
-28030.5
-8280.86
-28601.7
-8841.37
-29191.7
-9453.32
-29778.6
-10122.4
-30355.6
-10834
-30974.7
-11557.9
-31688.5
-12262
-32493.8
-12939.1
-33387.9
-13597.9
-34383.7
-14245.2
-35496.9
-14888.7
-36765.2
-15536
-38187
-16193.8
-39749.9
-16870.1
-41448.8
-17571
-43285.9
-18298.3
-45339.4
-19046.2
-47529.6
-19817.9
-49930.9
-20604.8
-52525.8
-21393.8
-55308.6
-22170.7
-58231.7
-22909
-61073.7
-23559
-63495.6
-24021.5
-64852.9
-24136.2
-64287.6
-23754.7
-61054.7
-22915
-55484.7
-21923.1
-49304.3
-21129.8
-44307.1
-20664.7
-40927.8
-20461.3
-38492
-20423.7
-36296
-20491.7
-34016.2
-20628.3
-31516.2
-20811
-28713.2
-21032
-25558.2
-21296.8
-22021.5
-21622
-18075.5
-22029.2
-13689.8
-22529.5
-8882.96
-23107.5
-3824.33
-23752.8
1257.6
-24520
6456.72
-25473
12116.9
-26649.6
18496.3
-28107.9
25892.5
-29931.7
34705.9
-32269.6
45527.5
-35402.4
59330.3
-39830.3
77801.8
-46290.2
103715
-55503.7
140914
-67438.5
193058
-80140.9
260128
-88818.6
332684
-86402.6
386236
-66853.3
381217
-32235.6
277911
82133.1
-3309.58
-12561.3
-3278.84
-14547.8
-3299.98
-15579.7
-3384.65
-16509.4
-3539.83
-17125.4
-3735.99
-17491.3
-3934.41
-17840
-4112.19
-18365.1
-4274.85
-19103.8
-4439.41
-19962.6
-4618.89
-20868.2
-4822.51
-21820.9
-5059.68
-22829.1
-5341.03
-23842.5
-5675.97
-24767
-6067.4
-25516.6
-6507.94
-26076.9
-6982.14
-26533.1
-7477.55
-26997
-7992.5
-27515.6
-8532.72
-28061.5
-9109.14
-28615.2
-9733.92
-29153.9
-10410.2
-29679.3
-11121.2
-30263.8
-11836.7
-30972.9
-12530.5
-31800
-13198.2
-32720.2
-13849.7
-33732.2
-14492.8
-34853.8
-15135.2
-36122.8
-15784.2
-37538
-16446.6
-39087.6
-17129.7
-40765.7
-17839.2
-42576.4
-18579.9
-44598.7
-19343.4
-46766
-20135.8
-49138.5
-20948.5
-51713.1
-21766.6
-54490.5
-22577.9
-57420.5
-23355.8
-60295.8
-24052.4
-62799.1
-24574.5
-64330.8
-24768.9
-64093.2
-24481.7
-61341.9
-23718.6
-56247.7
-22742.8
-50280.1
-21900.2
-45149.7
-21359.4
-41468.6
-21089.5
-38761.9
-21004.4
-36381
-21042.8
-33977.9
-21165.4
-31393.6
-21347
-28531.5
-21576.8
-25328.5
-21856.9
-21741.3
-22201.5
-17731
-22630
-13261.3
-23150.9
-8362.02
-23749.1
-3226.18
-24420.4
1928.96
-25218
7254.25
-26201.3
13100.2
-27414.1
19709.2
-28924.2
27402.5
-30837.8
36619.5
-33344.8
48034.6
-36786
62771.5
-41713.6
82729.4
-48831.4
110833
-58629.6
150713
-70590.1
205018
-82169.4
271708
-88291.4
338806
-82432.7
380377
-60217.8
359002
-25913.8
243607
56066.4
-3339.98
-12615.8
-3310.21
-14577.6
-3339.3
-15550.6
-3437.75
-16410.9
-3609.45
-16953.7
-3817.28
-17283.4
-4019.26
-17638
-4197.04
-18187.3
-4361.74
-18939.1
-4531.56
-19792.8
-4718.35
-20681.4
-4931.26
-21608
-5181.08
-22579.3
-5479.5
-23544.1
-5835.08
-24411.4
-6247.6
-25104.1
-6706.62
-25617.9
-7196.02
-26043.7
-7704.84
-26488.2
-8233.72
-26986.7
-8789.21
-27506
-9381.13
-28023.3
-10018.4
-28516.6
-10698.9
-28998.8
-11404.6
-29558.1
-12109
-30268.5
-12790.7
-31118.3
-13448.2
-32062.7
-14092.1
-33088.4
-14731.2
-34214.7
-15372.6
-35481.3
-16023.9
-36886.7
-16691.7
-38419.9
-17382.6
-40074.7
-18101.3
-41857.7
-18855.4
-43844.5
-19635.9
-45985.6
-20449.1
-48325.2
-21287.4
-50874.8
-22135.6
-53642.3
-22982.6
-56573.5
-23801.8
-59476.6
-24546.6
-62054.3
-25129.3
-63748.1
-25404.8
-63817.7
-25216.5
-61530.2
-24542.1
-56922.1
-23600.9
-51221.4
-22724.8
-46025.8
-22113.2
-42080.2
-21772.5
-39102.6
-21631.8
-36521.8
-21630.8
-33978.9
-21729.3
-31295
-21900.7
-28360.1
-22131.6
-25097.6
-22421.9
-21451
-22782.8
-17370.1
-23230.7
-12813.4
-23770.3
-7822.45
-24386.7
-2609.8
-25082.6
2624.85
-25910.5
8082.2
-26927.7
14117.4
-28186.4
20967.8
-29768.3
28984.4
-31808.2
38659.4
-34540.5
50766.8
-38358.2
66589.3
-43833.3
88204.5