/*--------------------------------*- C++ -*----------------------------------*\
| =========                 |                                                 |
| \\      /  F ield         | OpenFOAM: The Open Source CFD Toolbox           |
|  \\    /   O peration     | Version:  4.1                                   |
|   \\  /    A nd           | Web:      www.OpenFOAM.org                      |
|    \\/     M anipulation  |                                                 |
\*---------------------------------------------------------------------------*/
FoamFile
{
    version     2.0;
    format      ascii;
    class       volScalarField;
    location    "19";
    object      p;
}
// * * * * * * * * * * * * * * * * * * * * * * * * * * * * * * * * * * * * * //

dimensions      [0 2 -2 0 0 0 0];

internalField   nonuniform List<scalar> 
6785
(
539.099
485.702
433.87
385.459
340.568
298.551
259.196
222.192
187.098
153.734
122.792
94.6532
65.6242
30.7053
1.55286
72.6645
50.4034
44.6447
40.9345
35.4604
29.7528
24.5999
20.2111
16.7271
14.2683
13.0769
13.5785
15.6749
17.5464
17.8065
-30.1192
-36.7624
-30.9955
-26.8487
-23.7582
-20.163
-16.2769
-12.3396
-8.43536
-4.71963
-1.37422
1.69274
4.76945
7.42221
8.65644
16.0137
13.5956
18.1881
18.5123
18.5657
18.7809
18.6917
18.3143
17.7327
16.9735
16.0167
14.9074
13.9969
13.8445
14.155
32.4463
30.1131
31.6665
29.5682
28.1489
26.9049
25.4945
24.1122
22.8543
21.7628
20.8614
20.1485
19.6706
19.6376
19.8826
23.2285
21.2037
22.1756
20.9549
20.7499
20.7325
20.6432
20.675
20.8291
21.0713
21.3895
21.7514
22.0705
22.327
22.5017
19.781
18.6217
19.7009
19.3734
19.7546
20.1443
20.4388
20.7852
21.1378
21.459
21.7454
21.9965
22.1727
22.2524
22.2674
21.5
20.9362
21.7758
21.5357
21.7214
21.8239
21.8379
21.8739
21.8902
21.8778
21.8474
21.8138
21.7757
21.727
21.6767
21.8977
21.5619
22.0408
21.7385
21.7537
21.7013
21.6052
21.5386
21.4656
21.3893
21.316
21.2508
21.1945
21.1418
21.0858
20.676
20.4553
20.7412
20.5114
20.532
20.5003
20.4479
20.4198
20.3849
20.3491
20.3136
20.2766
20.2366
20.1891
20.1224
19.609
19.4624
19.6466
19.4875
19.5066
19.4717
19.4208
19.3828
19.3334
19.28
19.224
19.1643
19.1017
19.035
18.9469
18.664
18.6037
18.7013
18.5233
18.4729
18.3827
18.2856
18.1952
18.0944
17.9921
17.8886
17.7849
17.6859
17.5968
17.4922
19.6551
19.5189
19.3372
18.9313
18.6411
18.3163
17.9801
17.6569
17.3425
17.0475
16.775
16.5274
16.3143
16.1473
15.9957
17.0109
17.4538
17.7886
17.574
17.1699
16.6961
16.2521
15.8459
15.45
15.0571
14.667
14.283
13.9103
13.5663
13.2246
34.3145
33.7999
32.8892
30.1954
26.5221
22.8615
19.5017
16.4989
13.784
11.4626
9.48503
7.83792
6.53682
5.56367
4.75414
36.452
35.3012
35.832
34.7227
33.8886
32.044
32.1958
30.3917
29.0358
27.3085
27.544
24.9831
21.9719
23.128
20.8586
19.0088
18.6565
19.8861
16.4753
14.2595
16.795
14.3985
12.4067
13.6285
16.3239
13.5002
11.6884
13.913
17.7669
15.1201
14.7004
19.6386
18.5538
17.3585
19.3791
23.612
21.8211
21.4268
25.6684
24.8807
23.7716
24.7017
27.8033
26.6888
25.6129
26.1852
28.7671
27.8058
27.0514
29.1484
28.8286
28.3396
28.5606
30.1124
29.7864
29.4538
29.7062
31.3424
31.2683
31.003
32.6831
32.8384
32.6098
32.3584
33.3847
33.4504
33.0662
33.2674
33.0047
33.5147
33.7687
30.8455
29.8262
29.9854
26.8966
21.6158
23.924
17.5104
-0.100985
5.55263
9.301
9.4838
10.0651
4.90509
7.1468
10.5547
11.4324
11.7016
11.5727
12.073
13.7831
15.295
16.1544
10.7406
11.3809
13.2865
14.8389
15.0429
15.2692
15.3102
15.6728
18.8578
15.7641
15.9602
15.8445
16.5104
17.8308
18.568
18.5118
17.9953
17.4648
21.5256
19.8646
19.6956
19.1541
18.8197
19.6373
20.4595
19.456
17.6275
19.7969
21.6921
22.3491
22.2831
21.3399
20.4027
19.3961
18.3714
17.2895
22.4699
22.6679
20.7864
20.1473
19.4172
18.0523
15.9392
12.7821
10.5635
15.6738
18.0592
15.2167
13.2477
10.643
7.33859
4.84536
3.03431
1.21786
0.952761
1.57349
5.20592
3.29722
2.99685
2.56583
0.898936
-1.61699
-1.86111
-0.244922
-3.32861
5.37881
5.25706
5.72514
8.20237
9.19995
10.0793
10.5529
11.0085
11.1519
11.3313
11.6481
11.7026
11.936
12.0391
11.8811
11.8829
11.6313
11.9192
11.5755
10.9508
10.7497
10.3203
10.8014
10.1577
9.00941
9.74426
9.10103
8.03512
7.71301
7.14853
8.2348
7.14137
5.77031
5.59784
5.28148
6.74132
5.64563
3.83561
5.54352
4.83957
3.5283
3.33893
2.94429
4.83336
3.48039
1.85631
1.89551
1.86193
3.99887
2.74111
0.679488
2.94084
2.26566
0.885083
0.828782
0.599356
2.88768
1.4244
-0.288226
-0.0979116
0.0730409
2.50437
1.1462
-1.03514
1.48858
0.841375
-0.552053
-0.52355
-0.629402
1.84438
0.250292
-1.55576
-1.28961
-0.97669
1.64755
0.124849
-2.23559
0.498131
-0.27051
-1.75015
-1.77129
-1.50677
0.00264087
0.00635767
0.0138652
0.0259224
0.0463963
0.0699128
0.115191
0.217292
0.25333
0.0413143
0.0151987
0.0173947
0.0689175
0.297986
0.281454
0.230556
0.247807
0.193552
0.059952
-0.173507
-0.250442
0.582285
0.482301
0.215204
0.126991
0.0428951
0.0468523
0.177533
0.459843
0.271029
0.140674
-0.13714
-0.0955509
-0.00510699
-0.0025738
0.101509
0.190604
0.0962702
0.0461816
0.0883952
0.0561411
0.0420334
0.0507227
0.0324554
0.0114104
0.0207149
0.00882258
0.0146128
0.0250617
0.0329835
0.0325889
0.0223214
0.0255971
0.00484765
-0.196096
-0.135115
0.330127
0.541256
0.391419
0.252924
0.469729
0.274145
0.370589
0.124314
0.148185
0.530465
0.624323
0.547356
0.532582
0.272321
-0.00169909
-0.24835
-0.194832
-0.234553
-0.0467401
0.105015
0.0483939
0.0537588
-0.0191632
0.00474873
0.00902787
0.0177796
0.0315432
0.0515412
0.0717876
0.128821
0.283952
0.373863
0.109605
0.0237879
0.0627628
0.0958582
0.378006
0.386753
0.310395
0.345066
0.235367
0.221915
-0.0874824
-0.487496
0.516523
0.559453
0.280358
0.189261
0.0830484
0.10398
0.475713
0.675414
0.501316
0.305138
-0.0626128
-0.0424874
0.0975646
0.101564
0.145371
0.255277
0.151434
0.0754958
0.15954
0.0848798
0.0496647
0.0710899
0.0353606
-0.00577914
0.0054763
0.0127199
0.0333262
0.0579056
0.0781516
0.0780747
0.0522283
0.0585323
-0.0028836
-0.315846
-0.0618868
0.442455
0.854501
0.604339
0.489489
0.767258
0.474993
0.598982
0.233557
0.260347
0.696352
0.899299
0.751326
0.666233
0.294171
-0.105039
-0.401424
-0.302495
-0.316368
-0.158058
-0.0218679
-0.0478448
0.0125926
-0.0230285
0.00777284
0.0112907
0.0221975
0.0374879
0.0576354
0.0841445
0.163017
0.342294
0.442893
0.165999
0.027625
0.0702167
0.132242
0.434985
0.441264
0.365671
0.373405
0.231757
0.234105
0.0170863
-0.436799
0.494901
0.450322
0.245206
0.216713
0.132704
0.192769
0.744398
0.851809
0.683516
0.488141
0.10936
0.046681
0.140802
0.140361
0.169991
0.249834
0.155295
0.0630331
0.143518
0.0675252
0.0301803
0.0501425
0.0127923
-0.0255238
-0.00546791
0.0234201
0.0596384
0.0980605
0.129428
0.131619
0.0970818
0.107152
-0.0288768
-0.343518
-0.0298301
0.510059
0.899577
0.763752
0.621059
0.882204
0.579346
0.657245
0.336927
0.418476
0.770861
0.895969
0.755174
0.647153
0.257596
-0.142145
-0.419491
-0.38151
-0.41192
-0.30546
-0.193603
-0.160331
-0.045625
-0.0198212
0.0087973
0.012786
0.0266243
0.0433535
0.0671031
0.107783
0.208518
0.397054
0.488785
0.207147
0.0381537
0.0747193
0.171168
0.498982
0.505395
0.42912
0.402143
0.238305
0.21551
0.0868099
-0.313717
0.515567
0.349147
0.223417
0.241858
0.185076
0.288284
0.968819
1.03017
0.862463
0.670661
0.283335
0.170357
0.200281
0.171423
0.206576
0.25516
0.168284
0.0698726
0.130902
0.0515934
0.0167701
0.028702
-0.00930811
-0.0431233
-0.0133857
0.0336717
0.0836457
0.134403
0.175744
0.18135
0.141818
0.151382
-0.061419
-0.407387
-0.0697614
0.6118
0.929631
0.903924
0.759476
0.981631
0.69887
0.742107
0.469721
0.585116
0.864693
0.889733
0.743554
0.620402
0.24896
-0.132312
-0.385204
-0.433692
-0.496785
-0.422025
-0.332197
-0.258101
-0.0866373
-0.0472962
0.00877768
0.0146072
0.0303947
0.0475378
0.0770995
0.130714
0.246231
0.438721
0.52029
0.238548
0.052199
0.0905881
0.212234
0.55396
0.567193
0.482689
0.42642
0.241347
0.203901
0.134278
-0.215725
0.533453
0.283706
0.215977
0.258521
0.235195
0.387685
1.16497
1.1904
1.01943
0.815871
0.425234
0.277737
0.254334
0.19506
0.234022
0.249965
0.176725
0.079399
0.118165
0.035047
0.00420204
0.00614734
-0.034593
-0.0612796
-0.0205192
0.0431524
0.10761
0.170292
0.221059
0.230871
0.189708
0.193444
-0.0995143
-0.45637
-0.0861433
0.736728
1.00431
1.02246
0.884447
1.0738
0.811512
0.849222
0.60795
0.716354
0.948009
0.911168
0.746157
0.60555
0.265461
-0.0991733
-0.349469
-0.485708
-0.581449
-0.523828
-0.450971
-0.352783
-0.13719
-0.0186989
0.00938899
0.016966
0.0341128
0.0510428
0.0866097
0.150267
0.277216
0.475941
0.551759
0.27042
0.0723808
0.115666
0.254816
0.598637
0.620593
0.52997
0.450513
0.246469
0.20842
0.186214
-0.134411
0.566632
0.248076
0.216209
0.274482
0.288666
0.488446
1.32911
1.33578
1.15838
0.929653
0.543422
0.358032
0.291693
0.208981
0.248925
0.236205
0.175797
0.083617
0.0982313
0.0138863
-0.015501
-0.0209989
-0.0632403
-0.0805586
-0.028815
0.0502418
0.129321
0.203739
0.263712
0.27922
0.23928
0.232535
-0.137784
-0.475832
-0.0684869
0.856433
1.10304
1.12267
0.991033
1.15503
0.919397
0.958417
0.739347
0.819741
1.01318
0.942885
0.758334
0.599751
0.293782
-0.0548924
-0.313968
-0.53396
-0.663469
-0.617395
-0.551545
-0.437383
-0.172063
-0.0465154
0.0111732
0.0195928
0.0380989
0.0548535
0.0953909
0.167852
0.306465
0.515177
0.587362
0.304177
0.097376
0.145787
0.298809
0.636503
0.664317
0.570673
0.472978
0.251854
0.226192
0.251718
-0.0670464
0.613471
0.232714
0.215871
0.286326
0.340364
0.589069
1.45957
1.4677
1.28558
1.02663
0.644522
0.417105
0.31643
0.221206
0.250373
0.221138
0.169024
0.0841109
0.0750195
-0.00952848
-0.0394146
-0.0469669
-0.0897077
-0.0979416
-0.0362834
0.0566719
0.150423
0.23645
0.305447
0.327508
0.290734
0.267995
-0.175274
-0.486005
-0.0497837
0.951353
1.1992
1.21225
1.08179
1.21929
1.01608
1.05635
0.856783
0.902453
1.06353
0.974449
0.774982
0.59925
0.323618
-0.00685991
-0.275735
-0.571969
-0.737063
-0.703724
-0.637593
-0.511283
-0.196188
-0.0446437
0.013798
0.0222923
0.042279
0.0595717
0.104827
0.186693
0.337874
0.55803
0.625319
0.341165
0.128905
0.182751
0.346608
0.672122
0.701914
0.609011
0.496914
0.262283
0.253939
0.326406
-0.007245
0.667202
0.235794
0.217582
0.302785
0.395669
0.696075
1.57634
1.59018
1.40583
1.11705
0.73039
0.461124
0.330155
0.234414
0.248264
0.208103
0.158516
0.0808042
0.0494236
-0.0366026
-0.0674347
-0.0736935
-0.115346
-0.115101
-0.0445314
0.0608739
0.169303
0.267203
0.345481
0.375663
0.343908
0.301461
-0.207994
-0.495989
-0.0423669
1.0207
1.29084
1.29358
1.16256
1.27713
1.1039
1.14506
0.964223
0.971993
1.10136
1.00657
0.799489
0.605621
0.354054
0.0451759
-0.232687
-0.594148
-0.795832
-0.777519
-0.710894
-0.574437
-0.229419
0.0141901
0.0167593
0.0246522
0.0460871
0.064766
0.115039
0.206811
0.369712
0.599709
0.659062
0.378371
0.163379
0.22355
0.398608
0.705893
0.733419
0.643249
0.520245
0.275076
0.281283
0.389466
0.0536838
0.713084
0.25188
0.219871
0.321029
0.449439
0.805705
1.68698
1.70528
1.51672
1.20143
0.801174
0.495262
0.339411
0.246899
0.242467
0.197355
0.145967
0.0741949
0.0220619
-0.0647353
-0.0961039
-0.101901
-0.139139
-0.130408
-0.0517188
0.0645807
0.187429
0.297305
0.385078
0.424316
0.398634
0.332818
-0.234755
-0.497929
-0.033636
1.07165
1.37426
1.36883
1.23441
1.32729
1.17403
1.22128
1.06026
1.03107
1.12442
1.03698
0.828545
0.615239
0.381324
0.0978455
-0.185791
-0.601889
-0.838413
-0.837182
-0.774888
-0.62777
-0.246393
0.0292242
0.0197401
0.0267563
0.0496445
0.0705529
0.126523
0.22826
0.40116
0.637794
0.686787
0.416084
0.200807
0.267181
0.454847
0.739275
0.761564
0.676039
0.545935
0.292261
0.306577
0.431094
0.116889
0.749137
0.283273
0.230431
0.347684
0.512272
0.913713
1.79188
1.81593
1.61948
1.28039
0.85944
0.523859
0.350795
0.26152
0.239257
0.188079
0.130367
0.0619948
-0.00880896
-0.0958149
-0.127367
-0.133315
-0.164203
-0.14661
-0.0600006
0.0664073
0.203259
0.325622
0.423565
0.4735
0.455138
0.364603
-0.251036
-0.482986
-0.0115341
1.11274
1.44725
1.43569
1.30121
1.37854
1.23744
1.29189
1.14799
1.08741
1.14102
1.06976
0.864653
0.629754
0.408532
0.156362
-0.136844
-0.598423
-0.869181
-0.883975
-0.829184
-0.673152
-0.24783
0.0670761
0.0224695
0.028615
0.0529861
0.0767519
0.138706
0.249786
0.430261
0.669262
0.706748
0.451374
0.239663
0.309494
0.512315
0.771169
0.78602
0.705275
0.570985
0.310511
0.325794
0.450746
0.166496
0.775969
0.323728
0.25383
0.376769
0.572866
1.01013
1.88638
1.91493
1.71183
1.35239
0.907178
0.549669
0.368353
0.278837
0.241013
0.180636
0.113386
0.0440435
-0.0408974
-0.127379
-0.159009
-0.165445
-0.18868
-0.161988
-0.0676326
0.0681139
0.218038
0.353284
0.461936
0.523438
0.513055
0.397359
-0.254424
-0.445403
0.0294183
1.14946
1.50569
1.4945
1.36244
1.4254
1.29453
1.34699
1.22334
1.14189
1.15616
1.10339
0.902757
0.645431
0.435603
0.21535
-0.0939463
-0.588087
-0.892936
-0.919232
-0.871646
-0.71233
-0.24652
0.123673
0.0247634
0.0304307
0.0565057
0.0838258
0.152155
0.271875
0.457837
0.694446
0.721597
0.483411
0.28147
0.353376
0.568441
0.802071
0.808861
0.733482
0.597713
0.332623
0.342047
0.45011
0.209819
0.800198
0.37591
0.291585
0.416058
0.639457
1.09772
1.96823
2.00471
1.7961
1.41898
0.948619
0.574993
0.391008
0.299298
0.24679
0.17269
0.0932423
0.0193216
-0.0763471
-0.162224
-0.193845
-0.200677
-0.215504
-0.179225
-0.0768826
0.0681407
0.230087
0.379103
0.49948
0.574129
0.573015
0.434861
-0.238577
-0.382964
0.0880559
1.18515
1.55536
1.54419
1.41924
1.47368
1.35539
1.39444
1.29158
1.19731
1.17545
1.14208
0.945437
0.664643
0.46261
0.26596
-0.0598792
-0.569157
-0.906595
-0.943849
-0.900698
-0.742743
-0.234036
0.15616
0.026422
0.0322385
0.0601717
0.0916395
0.16664
0.294041
0.483462
0.714051
0.732664
0.509997
0.323742
0.396138
0.620347
0.831027
0.828726
0.758808
0.624221
0.356305
0.351495
0.43457
0.249994
0.823516
0.435624
0.341565
0.461828
0.705408
1.18511
2.03789
2.0844
1.87085
1.47873
0.986683
0.601371
0.417288
0.320935
0.25426
0.164129
0.0716595
-0.0100714
-0.112635
-0.197818
-0.229244
-0.236503
-0.242563
-0.196434
-0.0861275
0.0678546
0.240569
0.4039
0.536818
0.625394
0.634211
0.478052
-0.199578
-0.295092
0.161968
1.22148
1.59516
1.58486
1.47077
1.51687
1.41298
1.43722
1.35042
1.24926
1.19807
1.18235
0.987414
0.684763
0.482658
0.298587
-0.0318875
-0.544962
-0.907932
-0.959146
-0.920844
-0.766452
-0.226841
0.252373
0.0273791
0.0342438
0.0641564
0.100473
0.182592
0.317049
0.508581
0.730967
0.743618
0.535832
0.366882
0.439234
0.666984
0.858216
0.846315
0.783239
0.653588
0.385241
0.35792
0.409761
0.295574
0.852854
0.507307
0.404771
0.520371
0.781789
1.27788
2.10539
2.15834
1.93863
1.53479
1.02481
0.62967
0.445972
0.34376
0.260991
0.152403
0.046424
-0.0455547
-0.152341
-0.237012
-0.267856
-0.275701
-0.272583
-0.216181
-0.0976786
0.0655331
0.248288
0.426459
0.573159
0.677251
0.697361
0.531021
-0.128841
-0.181903
0.247642
1.25907
1.62667
1.61728
1.5195
1.56072
1.47388
1.48459
1.40154
1.29998
1.22719
1.22743
1.03184
0.709093
0.497505
0.319093
-0.00501295
-0.514831
-0.895448
-0.964437
-0.931014
-0.780403
-0.203516
0.300854
0.027492
0.0364161
0.0683871
0.11005
0.199445
0.340455
0.532875
0.745329
0.754353
0.560415
0.409152
0.48065
0.707022
0.882569
0.861095
0.804644
0.682737
0.418513
0.359041
0.376617
0.344361
0.887107
0.586331
0.476545
0.586162
0.862662
1.37454
2.16515
2.22241
2.00048
1.58685
1.06329
0.659313
0.477207
0.36721
0.266004
0.138757
0.0192268
-0.0840739
-0.192157
-0.276735
-0.307181
-0.315303
-0.302721
-0.23618
-0.109515
0.0625304
0.254877
0.447591
0.608932
0.729149
0.761006
0.593336
-0.0237302
-0.0477947
0.340159
1.29879
1.64871
1.64447
1.56614
1.59867
1.52919
1.5333
1.44603
1.3493
1.26034
1.27234
1.07401
0.733125
0.50421
0.332765
0.0203098
-0.48183
-0.870296
-0.960171
-0.933714
-0.788015
-0.169071
0.390187
0.0266903
0.0388501
0.0731625
0.120698
0.217541
0.364848
0.557698
0.758761
0.766084
0.585131
0.451609
0.521854
0.742264
0.90426
0.875347
0.82493
0.712962
0.461435
0.361065
0.337585
0.402345
0.928918
0.676011
0.559949
0.664688
0.952305
1.47847
2.2232
2.28222
2.06176
1.63737
1.10417
0.692479
0.511632
0.390964
0.267774
0.121327
-0.0130942
-0.126844
-0.234849
-0.320292
-0.350855
-0.358113
-0.335722
-0.258962
-0.123779
0.0570622
0.259187
0.466222
0.643276
0.780996
0.826078
0.666926
0.110633
0.10433
0.435116
1.34109
1.67376
1.67107
1.61061
1.63712
1.58463
1.58675
1.49293
1.40147
1.29957
1.32043
1.11852
0.759351
0.508771
0.343897
0.0463705
-0.444645
-0.832731
-0.941849
-0.925181
-0.785701
-0.139062
0.534871
0.0256555
0.0414198
0.078465
0.132193
0.236437
0.389464
0.58247
0.770622
0.777775
0.610507
0.494004
0.561016
0.773971
0.923059
0.888829
0.842747
0.742816
0.513362
0.36617
0.29958
0.467044
0.975026
0.769826
0.648808
0.749939
1.03995
1.58293
2.27917
2.33713
2.12258
1.68576
1.14695
0.731863
0.54962
0.413852
0.266829
0.10108
-0.0481697
-0.16985
-0.277625
-0.364664
-0.395946
-0.400748
-0.368633
-0.281941
-0.138357
0.0510325
0.262458
0.48328
0.676445
0.831978
0.890959
0.747814
0.246718
0.265464
0.532377
1.38644
1.70415
1.7001
1.65077
1.66959
1.63143
1.63835
1.5419
1.45357
1.34042
1.36629
1.16035
0.78549
0.512251
0.349856
0.0710848
-0.40626
-0.786288
-0.911758
-0.907854
-0.776431
-0.0929296
0.642894
0.0247954
0.0441174
0.0845279
0.144927
0.256694
0.415156
0.608036
0.782637
0.790663
0.639063
0.538059
0.599398
0.80443
0.939612
0.90299
0.859485
0.773754
0.576807
0.378578
0.277463
0.543102
1.02658
0.870366
0.74654
0.84588
1.12525
1.68312
2.33548
2.39131
2.1876
1.73923
1.19528
0.779691
0.590544
0.434293
0.261892
0.074912
-0.0877777
-0.215488
-0.324702
-0.413939
-0.44555
-0.446185
-0.404596
-0.307794
-0.155593
0.0428598
0.263563
0.497653
0.707731
0.882093
0.957085
0.835818
0.373011
0.423458
0.638591
1.43388
1.74421
1.73072
1.6868
1.7031
1.67686
1.68976
1.59634
1.50808
1.3849
1.41451
1.20477
0.817213
0.521434
0.359968
0.0987385
-0.363216
-0.729595
-0.868316
-0.878051
-0.755412
-0.0290459
0.783771
0.0241717
0.0469184
0.0912183
0.158618
0.277948
0.441442
0.633111
0.79442
0.803451
0.668608
0.58236
0.637216
0.83385
0.954523
0.916857
0.873954
0.80193
0.640047
0.389834
0.27949
0.627636
1.08112
0.971156
0.845488
0.940396
1.20964
1.76415
2.38164
2.44168
2.2542
1.79881
1.24974
0.834173
0.632556
0.451685
0.253185
0.0455118
-0.128178
-0.261535
-0.373424
-0.464733
-0.495531
-0.490962
-0.440651
-0.333814
-0.173173
0.0342112
0.264323
0.510395
0.737576
0.930477
1.02261
0.925532
0.489876
0.562741
0.752057
1.4822
1.783
1.76145
1.71978
1.73127
1.71307
1.73379
1.65144
1.56201
1.43016
1.45969
1.24697
0.8529
0.535928
0.376186
0.128669
-0.317241
-0.666961
-0.815572
-0.838998
-0.727092
0.0393908
0.949083
0.023709
0.0499179
0.0987912
0.173708
0.300649
0.46858
0.65809
0.808209
0.817014
0.698976
0.62639
0.677338
0.863106
0.968945
0.931381
0.888161
0.826999
0.690438
0.399848
0.30526
0.722229
1.13996
1.07644
0.951514
1.03689
1.3016
1.82386
2.41996
2.49308
2.32413
1.86469
1.31052
0.892859
0.674655
0.465788
0.239213
0.011203
-0.172616
-0.312435
-0.42814
-0.520851
-0.549492
-0.539378
-0.480701
-0.36328
-0.193747
0.0230739
0.263691
0.520822
0.765136
0.977023
1.08883
1.01674
0.606565
0.682058
0.866092
1.52975
1.82305
1.79096
1.75144
1.76136
1.74742
1.77355
1.7081
1.61994
1.48159
1.50753
1.29492
0.897993
0.560662
0.399724
0.1633
-0.266038
-0.597792
-0.751913
-0.787153
-0.686177
0.123831
1.09084
0.0233318
0.0532115
0.107117
0.189822
0.324202
0.4955
0.681552
0.822512
0.830059
0.729906
0.667858
0.715932
0.891844
0.983531
0.946805
0.902109
0.848104
0.723563
0.403611
0.353575
0.82143
1.19924
1.17759
1.05802
1.13348
1.38842
1.87867
2.45633
2.54173
2.39233
1.92956
1.37229
0.953107
0.715171
0.476656
0.221775
-0.024719
-0.218478
-0.365683
-0.485057
-0.57806
-0.604237
-0.588701
-0.521867
-0.393674
-0.214984
0.011387
0.262986
0.530615
0.790678
1.02083
1.1534
1.10501
0.72159
0.783406
0.973011
1.57653
1.85786
1.8183
1.78128
1.78745
1.77506
1.80878
1.76127
1.67904
1.53576
1.55366
1.34389
0.948487
0.591518
0.424236
0.19745
-0.213587
-0.526692
-0.681668
-0.727123
-0.637977
0.208304
1.29629
0.0230216
0.0569628
0.116563
0.207451
0.349148
0.522788
0.70422
0.838716
0.845112
0.761943
0.706992
0.751649
0.920281
0.997752
0.963647
0.916764
0.866944
0.746115
0.405744
0.426342
0.922996
1.26256
1.27493
1.17331
1.2434
1.4813
1.95082
2.50609
2.59313
2.46175
1.99516
1.43419
1.01391
0.754205
0.483335
0.199648
-0.0651923
-0.269982
-0.425233
-0.548196
-0.64097
-0.664568
-0.643682
-0.568147
-0.428487
-0.239779
-0.00295595
0.260757
0.539202
0.813294
1.06181
1.21717
1.19204
0.841007
0.877276
1.08642
1.62277
1.89334
1.84346
1.8094
1.81738
1.80722
1.84667
1.81317
1.74395
1.5963
1.60531
1.40033
1.00912
0.632009
0.452155
0.232187
-0.158215
-0.451721
-0.602888
-0.65544
-0.575949
0.313887
1.46185
0.0227789
0.0611892
0.126956
0.226144
0.374894
0.549758
0.725136
0.854337
0.860393
0.792124
0.742835
0.784131
0.948312
1.01213
0.980198
0.930464
0.884791
0.760456
0.408538
0.520367
1.0189
1.33129
1.35979
1.2892
1.35827
1.57958
2.03619
2.56321
2.64539
2.52871
2.05918
1.49397
1.07287
0.791131
0.485917
0.17427
-0.107589
-0.323822
-0.487306
-0.613383
-0.705907
-0.727073
-0.700859
-0.615814
-0.464806
-0.265703
-0.0181626
0.258384
0.547828
0.833845
1.09943
1.27748
1.27491
0.967263
0.961157
1.20823
1.66948
1.92304
1.86601
1.83541
1.84393
1.83719
1.88562
1.86348
1.81064
1.65615
1.65596
1.45792
1.07381
0.678689
0.481498
0.264277
-0.105065
-0.377741
-0.51977
-0.576433
-0.505235
0.434301
1.67239
0.0225562
0.0660663
0.138723
0.246431
0.401907
0.577131
0.746079
0.869296
0.875971
0.820719
0.776482
0.816791
0.978064
1.0279
0.997064
0.944979
0.904385
0.771575
0.419926
0.631502
1.11184
1.40554
1.44473
1.41269
1.48326
1.69048
2.13793
2.63293
2.70406
2.59722
2.12376
1.55431
1.13152
0.827108
0.483569
0.143129
-0.156181
-0.384984
-0.556422
-0.685506
-0.777928
-0.796287
-0.764729
-0.668789
-0.506241
-0.295688
-0.036325
0.254159
0.555511
0.852206
1.13347
1.33477
1.35614
1.10258
1.04306
1.33501
1.71659
1.95356
1.8869
1.85986
1.87297
1.87155
1.93036
1.91863
1.88148
1.71803
1.71213
1.52387
1.14617
0.736127
0.516674
0.297323
-0.0516015
-0.302424
-0.429919
-0.48622
-0.41934
0.559981
1.94342
0.0223913
0.0715424
0.151542
0.267624
0.429205
0.603866
0.765954
0.882055
0.891789
0.847222
0.80787
0.849137
1.00911
1.04526
1.01383
0.961739
0.924004
0.781851
0.442217
0.752422
1.21048
1.4729
1.52943
1.5349
1.60723
1.80443
2.24778
2.70837
2.7646
2.66348
2.1849
1.61406
1.19112
0.862504
0.476478
0.107327
-0.20882
-0.450318
-0.628806
-0.760465
-0.852754
-0.867797
-0.830671
-0.722989
-0.549521
-0.327271
-0.0551525
0.249562
0.563382
0.869433
1.16349
1.3868
1.43341
1.23834
1.11854
1.45151
1.76467
1.98055
1.90748
1.883
1.8972
1.90002
1.97596
1.97788
1.94981
1.77572
1.76498
1.5904
1.22095
0.799653
0.554185
0.329869
-0.00012363
-0.229661
-0.337408
-0.389453
-0.323109
0.705447
2.18583
0.0224082
0.0778349
0.165849
0.29021
0.457085
0.630496
0.786773
0.895345
0.909954
0.872473
0.838396
0.881973
1.04099
1.06406
1.03088
0.98289
0.942545
0.796241
0.481385
0.884342
1.33091
1.54367
1.62566
1.6634
1.73297
1.92312
2.36943
2.79484
2.83156
2.73125
2.24698
1.67625
1.25413
0.897071
0.462382
0.0637238
-0.270589
-0.525731
-0.709706
-0.843494
-0.935211
-0.945946
-0.902532
-0.782069
-0.597973
-0.363236
-0.076818
0.242832
0.569981
0.885016
1.18955
1.43386
1.50806
1.36918
1.19228
1.54182
1.81405
2.01085
1.92941
1.90546
1.92452
1.92826
2.02314
2.04642
2.0217
1.83971
1.82299
1.66237
1.30312
0.872315
0.599593
0.368708
0.055167
-0.155624
-0.239664
-0.282137
-0.209546
0.876032
2.46718
0.0228331
0.0848581
0.181158
0.313261
0.484309
0.656194
0.808235
0.909015
0.928119
0.895635
0.868243
0.914629
1.07186
1.08338
1.04894
1.00747
0.959673
0.81325
0.534877
1.02626
1.47276
1.62649
1.72881
1.78776
1.84745
2.03191
2.49231
2.88372
2.89989
2.79699
2.30872
1.73992
1.31814
0.92565
0.441431
0.0143787
-0.338205
-0.606949
-0.794746
-0.929808
-1.02022
-1.02599
-0.974937
-0.841624
-0.648035
-0.400151
-0.0989455
0.235574
0.576191
0.900255
1.21271
1.4746
1.57659
1.48494
1.26667
1.62783
1.86656
2.03902
1.95154
1.92711
1.94799
1.94693
2.06385
2.1181
2.09068
1.90649
1.87892
1.73147
1.38497
0.950319
0.652317
0.413025
0.112276
-0.0829872
-0.140254
-0.16843
-0.0844903
1.05853
2.77907
0.0239275
0.0928938
0.197897
0.337225
0.511533
0.682511
0.831147
0.924353
0.945675
0.91793
0.897873
0.947871
1.10114
1.1019
1.06873
1.03434
0.976216
0.834617
0.604018
1.1829
1.63873
1.73292
1.84834
1.91421
1.95358
2.13364
2.61427
2.98021
2.97403
2.86418
2.37316
1.8063
1.38186
0.942278
0.410692
-0.0447861
-0.416937
-0.698582
-0.888277
-1.02357
-1.11325
-1.11221
-1.05193
-0.905351
-0.7028
-0.440631
-0.123879
0.226023
0.580623
0.914673
1.23352
1.50946
1.63908
1.58688
1.34827
1.72157
1.92275
2.07019
1.9734
1.9482
1.9754
1.96198
2.10241
2.19424
2.16258
1.98183
1.94174
1.80588
1.47364
1.03872
0.716334
0.466977
0.176002
-0.00636866
-0.035809
-0.0443362
0.0585855
1.26646
3.07637
0.0258379
0.101679
0.215253
0.360958
0.538038
0.70892
0.853382
0.940374
0.962704
0.938888
0.926974
0.980724
1.12851
1.12057
1.09196
1.06362
0.992772
0.861437
0.68646
1.3511
1.82313
1.85831
1.97731
2.0343
2.05126
2.23768
2.72189
3.07381
3.04893
2.92951
2.43808
1.87224
1.44037
0.944037
0.370197
-0.111854
-0.503423
-0.795351
-0.984659
-1.12041
-1.20901
-1.19797
-1.12838
-0.9693
-0.757856
-0.481566
-0.149362
0.215821
0.584395
0.928992
1.25262
1.53808
1.69313
1.67255
1.43106
1.8142
1.98294
2.09899
1.99371
1.96829
2.00125
1.97286
2.14146
2.26257
2.23462
2.05307
1.99823
1.87545
1.56304
1.13112
0.786618
0.527136
0.242353
0.0720415
0.0710025
0.0860323
0.213727
1.48536
3.42745
0.0286335
0.11141
0.233507
0.385071
0.565223
0.736886
0.87647
0.957866
0.980058
0.958902
0.95572
1.01307
1.15383
1.14317
1.1197
1.09668
1.00996
0.896297
0.780834
1.53166
2.0314
2.00728
2.1243
2.15873
2.16319
2.36742
2.83643
3.16319
3.12853
2.99751
2.50614
1.94122
1.49309
0.931315
0.318484
-0.190242
-0.603521
-0.901941
-1.08923
-1.22621
-1.31047
-1.28689
-1.20959
-1.03854
-0.816928
-0.526253
-0.178059
0.202972
0.586139
0.942208
1.27032
1.56148
1.73853
1.74402
1.51106
1.89275
2.04702
2.12929
2.01483
1.98816
2.02984
1.98966
2.19142
2.33167
2.31968
2.12737
2.05791
1.95065
1.66082
1.23171
0.867446
0.597989
0.314391
0.156554
0.183301
0.225275
0.385723
1.7316
3.76331
0.0321367
0.12169
0.251756
0.408603
0.591996
0.76453
0.899033
0.975103
0.996782
0.978251
0.983556
1.04384
1.17773
1.17006
1.15113
1.13251
1.02782
0.935827
0.884359
1.71726
2.25802
2.17124
2.28123
2.28314
2.28698
2.5186
2.96762
3.23781
3.20824
3.06501
2.57445
2.01281
1.53779
0.907724
0.258328
-0.277625
-0.711778
-1.01118
-1.19594
-1.33476
-1.40987
-1.37544
-1.29119
-1.10948
-0.876703
-0.57192
-0.207828
0.189089
0.58705
0.955009
1.28804
1.58171
1.77372
1.8063
1.58459
1.95366
2.11595
2.1554
2.03741
2.00801
2.05201
2.00383
2.24335
2.4016
2.40138
2.19039
2.11021
2.02565
1.75979
1.33305
0.952854
0.673278
0.389135
0.244846
0.298414
0.368092
0.567042
1.9977
4.1396
0.0362326
0.132853
0.270585
0.432449
0.619179
0.792324
0.922166
0.992156
1.01374
0.998394
1.01093
1.07221
1.20083
1.19979
1.18845
1.16955
1.04704
0.980591
0.993916
1.91083
2.50565
2.35203
2.45375
2.41825
2.42811
2.69227
3.12178
3.31353
3.29148
3.1341
2.64454
2.09063
1.5752
0.873026
0.185969
-0.379687
-0.829925
-1.12453
-1.30867
-1.45011
-1.51195
-1.47013
-1.37762
-1.18624
-0.941319
-0.622073
-0.241578
0.172083
0.585733
0.966375
1.30554
1.60079
1.80008
1.86287
1.65783
1.9969
2.19166
2.18044
2.06201
2.03161
2.07203
2.01689
2.29317
2.48467
2.48252
2.25394
2.17117
2.1152
1.86879
1.43696
1.04185
0.753297
0.473784
0.341746
0.418472
0.51528
0.758945
2.27237
4.56852
0.0407448
0.144591
0.289428
0.45605
0.645626
0.818331
0.944543
1.0089
1.03073
1.01957
1.03706
1.09749
1.22275
1.23356
1.23232
1.20521
1.06998
1.02656
1.10427
2.10097
2.76499
2.53996
2.6328
2.56051
2.57792
2.87785
3.29085
3.39135
3.37415
3.20037
2.71352
2.17386
1.60123
0.82672
0.10268
-0.490242
-0.949418
-1.23523
-1.4233
-1.56774
-1.6118
-1.56648
-1.46397
-1.26428
-1.00712
-0.673524
-0.276949
0.153413
0.583276
0.976974
1.32291
1.6196
1.81996
1.90842
1.72612
2.02222
2.27648
2.19942
2.08386
2.06054
2.08678
2.01712
2.33232
2.56234
2.54709
2.31225
2.23473
2.21242
1.9786
1.53754
1.12792
0.833517
0.566069
0.444736
0.540975
0.661696
0.954562
2.56182
4.98315
0.0459057
0.157414
0.30921
0.480502
0.672519
0.844664
0.967979
1.02695
1.04896
1.04244
1.06165
1.11933
1.24405
1.27212
1.28006
1.23683
1.09774
1.0732
1.21358
2.29184
3.01106
2.73792
2.82358
2.7188
2.74029
3.0725
3.47749
3.47789
3.45905
3.26312
2.78278
2.25953
1.60824
0.766086
0.00470153
-0.611143
-1.07513
-1.34907
-1.54505
-1.69117
-1.71441
-1.66833
-1.55448
-1.34734
-1.07806
-0.729866
-0.316746
0.130594
0.577811
0.985766
1.33933
1.63689
1.83481
1.94189
1.78181
2.03108
2.3742
2.21673
2.10065
2.09808
2.10451
2.0228
2.38442
2.6334
2.61257
2.38791
2.31491
2.3248
2.09216
1.63898
1.21537
0.920642
0.668801
0.557996
0.668589
0.806694
1.15288
2.86291
5.43163
0.0516327
0.170768
0.329294
0.504921
0.698943
0.870605
0.990676
1.04557
1.06793
1.06572
1.08439
1.13809
1.2659
1.31179
1.32587
1.26579
1.12902
1.11603
1.3087
2.43464
3.13773
2.93971
3.01483
2.88946
2.91076
3.26556
3.66774
3.57119
3.5428
3.31869
2.85061
2.33232
1.58742
0.692691
-0.103316
-0.738265
-1.20328
-1.46272
-1.66844
-1.81356
-1.81657
-1.7707
-1.64461
-1.43118
-1.15031
-0.787845
-0.358482
0.105323
0.570046
0.993175
1.35519
1.65318
1.84748
1.97027
1.82001
2.03161
2.48817
2.23343
2.10523
2.14066
2.12206
2.03699
2.43989
2.68801
2.67743
2.45856
2.38441
2.42331
2.1882
1.72844
1.30057
1.01654
0.77805
0.679845
0.799304
0.944943
1.34768
3.1622
5.89387
0.0577686
0.184539
0.350032
0.530041
0.726083
0.897002
1.01346
1.06579
1.08854
1.0894
1.10697
1.1569
1.28924
1.35072
1.367
1.29614
1.16517
1.15773
1.40153
2.50334
3.14162
3.13742
3.20001
3.07761
3.10509
3.47076
3.85055
3.67571
3.6271
3.36836
2.91543
2.38574
1.54307
0.606127
-0.221702
-0.873502
-1.33542
-1.58216
-1.79681
-1.9378
-1.92356
-1.87707
-1.73804
-1.51941
-1.22741
-0.850717
-0.405103
0.075685
0.558508
0.998087
1.37014
1.66962
1.85894
1.99996
1.85484
2.03162
2.6231
2.25945
2.08992
2.18788
2.13876
2.05776
2.49216
2.75452
2.75551
2.5279
2.45751
2.51896
2.27571
1.81203
1.38822
1.12265
0.896847
0.812616
0.933986
1.07536
1.53663
3.46301
6.32506
0.0636926
0.197576
0.36976
0.553916
0.751959
0.92174
1.03573
1.08722
1.11049
1.11269
1.12956
1.17755
1.31214
1.38551
1.40087
1.32923
1.20024
1.19343
1.50676
2.53729
3.10853