/*--------------------------------*- C++ -*----------------------------------*\
| =========                 |                                                 |
| \\      /  F ield         | OpenFOAM: The Open Source CFD Toolbox           |
|  \\    /   O peration     | Version:  4.1                                   |
|   \\  /    A nd           | Web:      www.OpenFOAM.org                      |
|    \\/     M anipulation  |                                                 |
\*---------------------------------------------------------------------------*/
FoamFile
{
    version     2.0;
    format      ascii;
    class       surfaceScalarField;
    location    "19";
    object      phi;
}
// * * * * * * * * * * * * * * * * * * * * * * * * * * * * * * * * * * * * * //

dimensions      [0 3 -1 0 0 0 0];

internalField   nonuniform List<scalar> 
13220
(
-949.875
2249.78
-1573.95
1924.28
-2053.99
1779.95
-2424.22
1670.13
-2699.84
1575.83
-2888.36
1488.42
-2993.03
1404.58
-3013.83
1321
-2949.59
1235.66
-2797.2
1147.52
-2551.13
1054.13
-2192.96
941.734
-1687.13
794.066
-1012.64
625.714
287.264
373.348
1876.45
442.768
1854.87
437.344
1785.4
406.74
1700.74
380.646
1601.95
359.961
1509.11
345.372
1419.2
337.605
1328.77
333.562
1239.73
327.021
1154.07
309.67
1071.5
267.517
983.904
191.464
870.139
111.465
705.733
398.728
33.5956
1842.89
-97.3529
1985.83
-253.55
1941.63
-371.046
1818.25
-473.088
1704.02
-567.431
1603.46
-651.633
1503.42
-725.679
1402.82
-787.952
1302
-837.196
1203.3
-868.114
1102.42
-856.008
971.761
-740.296
754.385
-434.301
399.693
-35.5724
28.8193
1814.09
-100.609
2115.26
-225.478
2066.53
-304.416
1897.18
-368.041
1767.67
-416.849
1652.25
-446.097
1532.69
-456.904
1413.61
-451.73
1296.84
-430.046
1181.61
-387.126
1059.5
-311.779
896.426
-192.784
635.41
-48.3794
255.309
-83.9521
169.773
1644.34
146.314
2138.71
123.944
2088.94
123.083
1898.03
127.228
1763.58
136.09
1643.37
149.451
1519.38
166.943
1396.11
187.344
1276.48
208.533
1160.42
229.576
1038.5
244.202
881.749
233.306
646.276
155.402
333.187
71.4517
223.565
1420.81
244.764
2117.48
235.385
2098.39
236.616
1896.76
241.068
1759.21
244.968
1639.43
247.295
1517.15
245.938
1397.43
241.888
1280.62
234.669
1167.65
222.006
1051.2
199.733
904.153
156.647
689.531
78.5979
411.396
150.049
204.765
1216.14
240.415
2081.83
215.73
2123.18
193.423
1919.06
179.355
1773.39
165.947
1652.84
152.291
1530.89
138.132
1411.6
123.312
1295.5
109.078
1181.89
94.9296
1065.43
77.5204
921.442
53.2597
713.704
19.5909
444.989
169.642
175.301
1041.02
227.325
2029.8
204.989
2145.74
175.535
1948.5
157.277
1791.87
142.774
1667.31
127.902
1545.94
113.441
1426.03
100.29
1308.78
87.4988
1194.72
75.4581
1077.52
62.1261
935.012
42.9491
733.148
17.0889
471.09
186.729
153.305
888.004
222.391
1960.79
209.882
2158.49
182.067
1976.35
164.275
1809.89
151.237
1680.36
138.633
1558.7
124.993
1439.67
112.016
1321.89
99.383
1207.31
86.1663
1090.83
70.6988
950.189
49.7081
753.849
21.8301
498.71
208.562
131.077
757.524
210.242
1881.76
207.25
2162.07
179.335
2004.3
160.945
1828.79
146.517
1694.71
133.159
1572.46
119.325
1453.36
105.295
1336.16
91.4833
1221.1
77.9305
1104.47
62.4186
965.986
42.4904
774.122
17.8166
523.69
226.371
109.677
648.946
193.736
1797.83
201.386
2155.26
176.097
2029.58
158.377
1847.28
145.839
1707.16
133.223
1585.61
119.715
1466.8
106.514
1349.63
92.0782
1235.35
78.106
1118.68
61.9089
981.348
41.495
793.752
17.4478
547.034
243.826
100.958
549.916
187.215
1711.57
203.963
2140.26
177.302
2055.98
152.766
1873.34
134.581
1724.85
121.332
1599.94
106.508
1481
93.8823
1362.91
81.3077
1247.76
68.4797
1131.64
54.5802
996.052
35.6413
813.51
12.7209
570.663
256.524
102.485
448.774
247.901
1565.23
297.872
2091.23
290.625
2062.29
285.469
1878.92
283.027
1726.46
276.364
1606.56
263.168
1493.89
243.996
1381.64
221.04
1270.08
194.912
1157.3
161.007
1027.87
117.542
854.571
60.7828
625.073
317.261
171.612
277.854
308.51
1424
356.861
2043.75
296.594
2118.75
216.722
1959.26
154.275
1784.79
123.69
1636.94
106.004
1507.04
101.222
1385.12
98.0481
1269.94
96.148
1156.71
88.6162
1033.2
62.2257
876.073
25.102
657.402
342.197
-173.463
316.549
939.911
1390.84
1593.75
1661.48
1605.28
1504.45
1346.98
1175.74
983.351
772.772
545.391
279.254
4.63511
937.109
-926.508
946.226
954.826
958.954
1817.63
-856.579
1822.64
1824.77
1829.08
2523.41
-691.501
2529.36
2530.55
3071.92
-537.511
3073.42
3078.12
3078.06
3449.82
-368.442
3451.09
3454.58
3681.1
-226.235
3685.31
3687.25
3690.41
3717.06
-25.4699
3720.96
3722.98
3725.73
3589.9
139.669
3594.45
3596.52
3349.39
249.996
3350.43
3354.55
3353.83
3028.39
329.107
3028.71
3033.17
2674.08
358.17
2679.54
2679.96
2684.29
2327.6
356.36
2333.26
2333.57
2338.76
2006.53
333.223
2012.75
2012.64
1730.16
287.745
1730.93
1736.55
1736.14
1487.21
253.632
1488.26
1493.26
1493.25
1117.19
379.695
1120.04
1123.1
609.292
516.753
614.429
618.213
620.44
41.6705
583.83
52.3591
56.1352
-902.249
959.605
-901.515
-900.475
-900.909
-2451.85
1552.02
-2453.25
-2451.74
-2453.77
-4410.42
1959.18
-4411.62
-4407.6
-6652.87
2244.13
-6648.65
-6650.28
-6536.89
-6418.04
-6290.09
-8609.12
2441.3
-8488.66
-8340.38
-8165.22
-7987.39
-7807.92
-7634.17
-7453.13
-7251.57
-9633.55
2584.27
-9417.5
-9206.47
-8997.36
-8766.31
-8531.5
-8295.44
-8058.35
-7823.83
-10217.9
2633.78
-9963.17
-9707.22
-9451.95
-9197.02
-8937.72
-8665.45
-8391.65
-8115.05
-7841.49
-10140
2561.9
-9853.26
-9563.8
-9274.22
-8984.82
-8698.3
-8396.31
-8085.74
-7778.03
-9775.09
2290.82
-9475.81
-9171.53
-8853.28
-8535.91
-8216.37
-7898.56
-7580.55
-7248.58
-8738.45
1810.58
-8416.54
-8095.05
-7777.13
-7444.58
-7109.16
-6774.09
-6442.23
-6121.35
-6847.39
1044.08
-6526.88
-6212.45
-5899.47
-5593.32
-5290.08
-5009.61
-4730.99
-4466.02
-4212.16
-3821.99
-133.545
-3610.08
-3426.82
-3248.02
-3077.42
-2901.06
-2757.45
-2674.8
-2604.59
-1847.48
-663.16
-1776.91
-1693.68
-1691.69
-1257.51
-408.132
-915.168
-343.016
-890.439
-608.313
-286.899
-582.452
-396.038
-194.16
-116.965
-247.077
-132.88
184.849
-296.685
496.798
-327.345
504.902
793.662
-302.355
799.38
1065.98
-278.278
1333.88
-264.639
1326.41
1569.37
-240.648
1562.47
1782.35
-219.017
1974.16
-198.167
1973.94
2150.47
-181.083
2306.53
-157.09
2303.48
2449.31
-147.153
2447.25
2583.57
-137.61
2694.26
-112.292
2693.88
2800.81
-107.716
2799.63
2900.88
-101.815
2974.91
-75.8125
2974.58
3052.22
-78.8274
3103.52
-51.355
3103.39
3158.9
-55.4005
3158.58
3216.71
-58.2312
3246.49
-31.152
3246.25
3282.42
-37.1782
3282.26
3321.6
-39.5476
3334.91
-13.148
3334.42
3360.06
-25.283
3356.97
1.64698
3357.03
3363.25
-7.83285
3363.32
3376.91
-14.5706
3366.07
11.0882
3366.1
3365.35
1.03551
3365.21
3369.5
-4.06947
3349.07
19.594
3349.11
3344.47
3.82984
3317.61
26.9703
3317.55
3303.4
14.385
3303.15
3298.63
4.8631
3272.81
24.9189
3272.96
3261.27
11.1345
3261.46
3257.94
3.77101
3237.35
20.9209
3237.24
3235.5
2.10223
3216.77
17.8469
3216.76
3214.02
2.4412
3213.94
-10.8821
-45.4147
339.37
-27.8914
199.53
-14.6566
136.834
-18.8552
107.796
-42.3423
241.212
-63.1774
565.143
-68.7987
892.133
-57.2787
970.152
6.75629
510.811
11.766
-810.548
-8.35241
-494.573
13.9324
136.503
23.2976
1111.93
16.8584
520.021
18.7919
163.466
-2.67839
-895.017
-25.615
-774.503
-0.473878
-467.374
13.966
618.95
38.0925
3434.69
35.8972
1803.74
-25.0799
1298.09
-48.044
1508.22
-27.6883
895.253
-78.6718
-1009.84
-89.0486
-1386.39
-77.4314
-1649.41
-100.065
-1363.07
-102.294
-93.7282
-110.432
754.334
-88.7409
1492.17
-35.063
1777.09
-1.23711
1278.32
7.45894
310.717
-43.5639
305.923
34.0792
956.874
29.8432
374.82
92.7917
259.749
74.3366
-182.298
83.9336
116.04
91.2158
310.008
114.003
197.266
103.623
180.028
114.87
308.844
124.064
264.924
145.555
217.628
161.013
74.3779
166.192
-109.929
152.248
-323.948
120.971
-515.258
84.636
-698.682
65.4033
-914.051
61.0192
-1262.55
15.872
-1220.46
27.3098
1435.53
45.5756
6204.1
37.3212
6144.21
15.3163
2539.21
-30.0771
-1106.65
-69.7353
-880.803
-25.7656
422.438
-50.0947
-360.853
-60.5657
1146.23
-28.0143
1759.87
18.318
1677.64
5.93022
435.83
-27.9261
256.507
-45.7365
956.881
-81.026
698.606
-124.902
271.976
-132.6
610.178
-106.55
950.061
-84.1404
1158.39
-83.0832
549.815
-58.2288
370.887
-28.2245
-568.342
-27.7262
-1839.72
-13.4664
-2772.17
-3459.36
-47.9571
327.219
-29.1647
182.709
-16.4734
127.097
-25.0358
119.629
-52.8117
271.666
-75.8236
590.175
-80.6515
899.083
-57.3465
949.425
26.5179
431.305
12.6243
-794.877
-8.95625
-469.168
-14.4587
146.98
9.85041
1090.67
23.3192
510.101
39.7292
150.166
5.19115
-859.91
-14.8918
-755.318
9.21803
-492.959
3.38836
613.062
20.7424
3415.59
16.9024
1811.46
-11.2748
1330.14
-41.8275
1538.16
-17.6542
870.604
-73.7345
-958.32
-89.1775
-1372.49
-81.5392
-1658.9
-102.52
-1343.91
-103.333
-100.847
-99.5596
746.445
-74.9386
1464.7
-25.5467
1724.77
1.92886
1244.05
-39.014
310.672
-91.2561
329.917
0.93095
856.384
37.7329
326.468
142.173
147.717
65.5394
-139.392
58.6184
108.97
84.304
270.318
105.323
165.82
105.342
174.483
105.566
303.465
116.783
248.504
143.874
188.882
159.359
58.5794
162.988
-113.439
149.026
-308.786
119.938
-484.828
86.6753
-663.237
66.9812
-892.226
53.5487
-1247.54
12.1108
-1175.78
30.7329
1419.94
48.5714
6187.01
41.5288
6151.34
17.8574
2563.13
-34.2078
-1053.97
-84.6104
-826.284
-2.42205
345.448
-53.3866
-303.916
-62.8947
1158.21
-32.5546
1730.99
13.1831
1634.74
17.3525
438.283
-37.3495
314.918
-51.5964
973.502
-73.1578
720.91
-118.427
318.514
-111.631
608.406
-93.1042
934.776
-63.3021
1131.21
-86.3524
578.724
-61.03
355.224
-29.4191
-598.297
-29.3014
-1840.38
-20.7117
-2781.5
-3477.56
-47.5362
313.98
-28.9939
164.984
-19.0195
118.177
-30.2711
131.577
-58.1079
299.853
-80.8026
612.994
-84.5247
902.974
-56.5326
921.678
25.5029
348.403
10.4788
-782.02
-5.90158
-457.822
-18.4831
157.137
4.18665
1069.43
21.2087
494.347
37.2401
133.731
8.80132
-832.239
-10.3964
-734.912
6.16137
-504.881
1.59056
611.334
15.1463
3401.21
9.96298
1819.98
-8.7348
1351.93
-35.1943
1564.54
-19.0868
856.148
-71.5873
-904.3
-85.9436
-1356.87
-83.8764
-1659.33
-99.5671
-1326.54
-97.6579
-95.3247
-93.3514
742.287
-68.0818
1439.35
-19.2172
1676.18
10.1564
1212.16
-40.0706
353.487
-96.7789
392.308
-10.5538
801.471
57.1639
260.846
141.994
72.8051
73.9158
-70.562
58.9427
121.777
93.5729
243.229
103.072
167.399
104.713
173.54
106.154
301.339
118.554
237.557
144.832
165.052
159.884
44.5171
161.965
-115.525
147.556
-295.013
119.357
-457.983
87.7771
-633.75
67.0847
-874.223
47.111
-1229.95
16.2767
-1149.12
30.5764
1405.67
47.1638
6170.52
40.9746
6157.26
15.0719
2588.21
-36.549
-1004.61
-80.4399
-790.405
-1.81888
265.614
-55.9132
-255.44
-64.2432
1165.46
-35.012
1701.37
7.04659
1593.67
12.5375
434.428
-37.0334
364.021
-49.9491
986.732
-68.3006
737.497
-104.271
351.422
-97.2059
601.845
-85.2333
922.584
-64.0607
1110.16
-85.1376
599.53
-48.4378
317.286
-27.5541
-621.049
-28.5361
-1839.65
-19.0921
-2790.66
-3479.09
-46.6122
300.228
-28.7016
148.557
-21.5542
113.145
-35.1711
147.247
-62.6389
329.166
-84.6549
636.57
-87.3809
907.425
-56.2894
892.709
28.2678
268.793
14.4413
-766.944
-2.49459
-438.511
-24.2812
182.307
-1.37258
1049.16
16.5343
479.206
31.0341
121.714
8.81201
-809.548
-4.27137
-723.044
4.9266
-514.827
-0.624765
606.589
12.3035
3386.48
7.72159
1827.11
-6.8038
1368.36
-31.6431
1587.77
-23.2463
846.23
-71.5044
-862.099
-84.0064
-1346.09
-86.0598
-1659.12
-97.2962
-1316.92
-93.1234
-107.423
-88.1034
733.67
-62.7308
1411.24
-14.3366
1624.96
16.6026
1174.84
-32.3808
369.017
-104.152
430.409
-5.78671
704.351
90.244
153.854
140.613
15.0029
83.3241
-36.5659
67.8948
122.487
105.318
195.46
108.07
153.864
106.631
169.639
111.099
291.346
126.163
218.467
148.689
141.232
161.499
31.7745
161.313
-114.923
146.216
-278.299
118.779
-429.017
88.7051
-601.468
66.9082
-850.742
42.7655
-1204.93
19.3015
-1123.81
30.4353
1396.57
44.9292
6156.57
39.6718
6162.41
12.5403
2615.22
-35.6187
-957.458
-73.1714
-753.823
-1.4532
198.022
-53.5778
-199.524
-63.584
1176.65
-35.4072
1673.96
3.26428
1557.11
9.65307
432.764
-35.3444
411.234
-46.8934
1000.33
-63.4244
755.055
-91.7243
382.024
-85.839
601.708
-78.6194
918.813
-61.3289
1095.54
-78.3472
621.608
-34.877
286.712
-24.5406
-629.894
-27.5298
-1837.43
-22.6027
-2796.47
-3499.61
-45.7122
285.89
-28.835
132.2
-24.6793
109.474
-40.3784
162.917
-67.2534
355.825
-88.4167
657.409
-90.0197
908.775
-55.7236
858.309
30.7509
180.661
15.5884
-753.735
-3.27175
-424.559
-28.101
203.393
-6.45269
1028.46
11.7135
461.842
28.4642
103.747
8.72461
-790.614
-0.491348
-712.125
2.49423
-512.593
-1.66705
605.786
11.5843
3372.62
5.24872
1836.47
-7.63263
1383.89
-29.6026
1609.59
-24.8072
843.509
-71.1331
-814.588
-81.4876
-1334.49
-87.2317
-1651.89
-92.0609
-1310.61
-85.795
-106.834
-81.8768
730.565
-56.9173
1386.76
-9.09511
1578.09
23.6116
1140.84
-41.7168
433.931
-154.597
563.637
4.55819
580.552
103.157
61.6796
140.622
-11.7823
92.1932
17.2226
80.6152
134.766
114.435
169.475
114.67
165.108
112.366
173.759
118.962
285.145
134.045
205.525
153.115
124.426
163.493
22.4258
161.135
-112.71
145.279
-263.046
118.409
-403.668
89.4491
-574.561
66.3509
-830.216
39.1676
-1179.88
21.1565
-1109.47
29.708
1387.62
42.2732
6143.97
37.7255
6166.59
11.3677
2640.52
-33.3498
-914.967
-67.1728
-728.688
-0.0693715
128.099
-53.7193
-151.52
-62.3809
1183.66
-35.1448
1645.85
0.516582
1521.96
6.86716
427.033
-32.6463
449.553
-42.9939
1010.64
-57.765
767.82
-79.622
400.311
-75.8121
597.668
-72.5638
914.701
-56.6605
1079.13
-69.7859
633.13
-20.9827
233.486
-20.1403
-632.459
-25.5593
-1832.53
-19.6505
-2802.28
-3498.67
-45.0077
271.314
-29.6075
118.117
-28.4258
110.015
-45.7589
181.751
-71.9275
383.441
-92.1292
678.846
-92.402
910.347
-54.7946
822.098
33.6075
96.5098
15.7713
-735.139
-6.32143
-401.515
-33.2877
231.895
-11.2671
1008.59
6.86926
445.643
26.4371
85.7403
7.90375
-771.667
1.02911
-706.728
-0.166777
-511.969
-2.56651
599.048
11.6729
3356.6
1.73066
1848.5
-9.63262
1396.34
-27.1807
1625.08
-25.8606
839.971
-71.3933
-776.517
-78.7277
-1329.26
-87.7865
-1644.87
-85.7702
-1314.28
-76.9625
-124.124
-75.1565
725.461
-50.7527
1359.73
-3.49273
1528.17
29.556
1101.52
-21.4417
457.31
-67.3362
580.099
60.9358
444.736
110.968
3.8262
137.542
-45.7051
106.171
28.9837
100.426
122.709
128.198
132.515
128.201
154.592
124.246
172.304
131.903
271.613
145.119
188.912
159.23
109.152
166.13
16.0141
161.258
-106.992
144.532
-244.135
118.06
-375.323
89.9736
-544.108
65.6237
-804.492
36.3315
-1150.17
22.0401
-1094.31
28.4024
1382.3
39.3053
6133.38
35.2758
6170.27
11.0074
2664.22
-30.346
-876.146
-61.6695
-704.054
2.65195
66.0246
-55.0437
-92.654
-60.9202
1189.37
-34.4731
1619.55
-1.43235
1490.61
4.22601
424.961
-29.3601
484.392
-38.439
1021.3
-51.7579
781.709
-69.3628
419.583
-67.8812
601.399
-66.6939
916.61
-50.0792
1065.06
-59.4212
647.076
-7.11302
197.365
-14.6218
-623.477
-22.9779
-1825.19
-19.6587
-2806.66
-3514.76
-44.5298
256.38
-31.0337
104.977
-32.6335
111.756
-51.0521
199.766
-76.5047
408.371
-95.6905
697.428
-94.3878
908.55
-53.0637
780.515
36.7459
4.73375
14.2368
-714.312
-10.9787
-380.694
-37.3105
254.209
-15.8414
987.831
2.29254
428.261
23.8468
62.8854
4.61687
-753.136
0.570995
-700.718
-2.86727
-503.119
-3.3445
595.013
12.1727
3340.65
-1.50612
1865.25
-11.394
1409.05
-24.4999
1638.28
-24.2988
842.441
-69.2598
-730.004
-75.8781
-1321.2
-87.3901
-1631.88
-81.5036
-1318.91
-69.4556
-128.835
-68.2609
725.748
-44.2033
1336.69
2.51143
1483
35.7115
1067.94
-29.6051
526.619
-45.2762
624.401
84.5091
334.388
117.169
-21.6641
137.768
-55.7618
117.553
57.4816
118.046
126.094
139.627
119.64
139.379
165.948
135.754
178.833
144.038
264.887
154.268
181.266
164.346
101.076
168.334
12.9558
161.418
-100.505
144.006
-227.391
117.885
-351.018
90.4129
-518.631
64.7559
-781.148
33.96
-1121.19
21.9309
-1085.3
26.5202
1377.19
36.0251
6123.79
32.5409
6173.36
10.9758
2684.68
-26.7538
-840.503
-55.9784
-683.26
4.82668
1.65605
-55.9987
-39.0342
-59.2836
1191
-33.5407
1592.69
-2.63291
1459.98
1.95809
420.554
-25.7374
510.569
-33.3803
1028.67
-45.5553
791.622
-60.5763
430.454
-61.0287
600.965
-60.3431
914.583
-42.9469
1046.65
-48.4813
650.423
4.97646
135.154
-8.17982
-611.948
-19.7679
-1814.3
-22.0677
-2804.41
-3526.01
-44.4675
241.584
-33.205
94.9891
-37.2526
117.302
-56.3421
220.056
-81.0806
434.32
-99.1551
716.484
-95.9458
906.279
-50.2848
735.569
41.8257
-85.2941
13.5837
-685.931
-15.606
-351.869
-42.4654
281.063
-20.237
967.25
-2.00438
411.266
22.3972
38.9352
2.4857
-732.877
-0.133361
-699.53
-5.38565
-498.34
-4.2396
585.508
12.888
3321.83
-4.34591
1884.51
-13.1015
1418.65
-21.0917
1644.06
-19.9882
838.963
-63.3146
-695.309
-72.4362
-1314.47
-85.6931
-1620.95
-78.0932
-1328.15
-63.0368
-152.942
-61.31
720.963
-37.3096
1310.22
8.58255
1434.72
41.2358
1029.26
-3.0891
548.173
17.1901
585.128
102.778
243.143
124.668
-49.7677
140.05
-77.7576
133.563
48.0858
142.18
101.893
153.752
99.3576
152.035
157.999
148.173
177.266
156.116
251.159
163.381
171.033
169.597
93.8576
170.563
12.9216
161.641
-90.3532
143.561
-206.62
117.704
-322.983
90.7017
-489.076
63.8748
-753.14
31.9661
-1089.12
21.044
-1074.11
24.1017
1374.49
32.464
6115.6
29.6278
6175.66
11.1023
2702.35
-22.8455
-810.305
-50.9204
-667.518
9.50483
-57.9897
-57.145
25.5298
-57.4871
1190.51
-32.416
1567.31
-3.179
1432.24
0.214399
420.238
-21.9235
533.43
-27.9977
1035.9
-39.261
802.857
-52.7413
444.542
-53.7863
606.192
-52.5194
915.793
-34.0444
1030.42
-35.8806
655.841
17.0489
101.402
-0.976117
-592.89
-15.5916
-1800.99
-16.1012
-2805.17
-3517.64
-44.8593
227.156
-36.0152
86.39
-42.077
123.305
-61.4964
238.897
-85.5256
457.681
-102.384
732.591
-96.8651
900.167
-45.5554
683.988
47.9371
-181.623
11.4347
-650.884
-20.9589
-323.559
-46.4933
302.634
-24.2905
945.652
-5.98917
393.828
20.5166
11.0672
-1.05109
-711.978
-1.8898
-696.641
-7.63243
-486.867
-5.06238
579.012
13.8665
3302.67
-6.72757
1908.3
-14.811
1429.84
-17.3836
1647
-10.7543
835.488
-51.9833
-652.189
-68.5518
-1296.34
-83.4116
-1604.69
-75.296
-1335.25
-55.6981
-165.159
-54.2579
721.298
-30.0864
1287.38
14.8009
1391.79
46.6226
997.67
4.56606
597.34
44.5439
574.475
114.632
187.229
131.931
-59.4802
144.881
-80.3232
147.597
55.2153
159.232
97.1864
163.422
104.425
160.995
171.094
157.492
184.553
164.268
246.872
169.175
169.068
172.997
91.7375
171.929
14.7883
161.66
-80.8024
143.23
-188.98
117.682
-299.531
90.9541
-464.191
62.9529
-727.07
30.1206
-1057.66
19.328
-1065.52
21.2187
1372.27
28.6486
6108.11
26.6037
6177.32
10.5985
2717.34
-19.5507
-782.153
-46.9383
-648.319
12.4376
-120.945
-57.2148
86.2047
-55.4599
1187.31
-31.1216
1541.75
-3.23199
1404.53
-1.09134
418.105
-17.9327
548.639
-22.3061
1039.88
-32.81
810.924
-46.0035
453.155
-48.1973
606.95
-44.7503
910.561
-24.0645
1008.17
-23.9773
653.09
24.8989
35.9691
6.72697
-576.483
-10.8521
-1784.35
-14.9498
-2801.31
-3528.13
-45.8188
213.735
-39.4363
81.3203
-47.0875
132.374
-66.6242
259.522
-89.8996
482.075
-105.374
748.926
-97.0044
892.57
-38.1429
625.595
58.6251
-278.708
9.97573
-602.517
-26.1202
-288.864
-51.0849
326.519
-28.0692
923.854
-9.46075
375.905
19.6395
-18.9872
-3.87286
-688.316
-3.65053
-697.914
-9.5904
-481.306
-6.00701
566.832
15.159
3279.93
-8.4394
1933.99
-16.3391
1438.51
-13.4403
1641.77
-3.14827
822.624
-40.3704
-625.393
-63.6828
-1276.06
-81.0359
-1590.23
-72.7923
-1345.62
-47.543
-201.394
-47.0371
717.289
-22.6604
1260.41
21.016
1345.81
51.6754
961.063
27.6193
602.2
77.245
514.245
124.993
135.167
140.76
-80.7352
154.109
-100.118
164.427
32.0714
175.728
73.5738
175.689
95.5073
171.852
165.383
167.232
183.351
172.475
235.853
175.355
163.292
176.633
89.5181
173.319
19.4315
161.669
-67.542
142.901
-166.912
117.623
-271.596
91.1057
-434.692
62.1181
-696.776
28.5227
-1023.81
16.8748
-1053.74
17.8518
1371.42
24.6613
6101.42
23.5064
6177.84
9.75898
2730.08
-16.6452
-760.633
-44.2447
-638.47
4.35353
-169.247
-53.8438
142.371
-53.2258
1185.71
-29.7167
1517.66
-2.89607
1379.17
-1.91347
420.075
-13.8291
561.059
-16.4182
1043.36
-26.9925
821.016
-41.1404
467.055
-44.4743
613.55
-37.3008
905.313
-12.9282
985.678
-9.02904
651.829
34.8278
12.7913
15.0243
-556.027
-5.49147
-1765.49
-14.9033
-2793.46
-3529.43
-47.2145
201.581
-43.1891
77.4273
-52.0675
141.022
-71.5767
278.321
-94.0705
503.814
-107.982
762.023
-96.0967
880.116
-27.14
556.234
74.4762
-385.558
5.6236
-535.03
-31.6777
-255.226
-54.32
345.695
-31.5037
901.745
-12.1661
357.663
19.0135
-51.0684
-7.5553
-662.154
-6.00477
-697.509
-11.3015
-470.449
-6.8621
558.55
16.749
3256.22
-9.68531
1963.74
-17.5939
1449.85
-9.98946
1634.85
-4.04352
820.296
-39.1266
-587.337
-58.7289
-1254.49
-77.9111
-1569.59
-71.3989
-1351.19
-38.9162
-224.679
-39.6213
720.294
-15.0551
1237.58
27.3967
1305.75
56.5049
932.801
41.0321
626.24
96.2669
483.804
133.415
109.832
150.143
-89.6782
165.482
-105.245
179.804
27.7438
188.485
72.882
184.639
109.346
179.611
180.831
174.845
192.907
178.614
235.377
179.297
165.878
178.403
91.8731
173.76
24.6933
161.366
-56.2945
142.639
-149.181
117.721
-249.104
91.2536
-409.878
61.3213
-668.485
27.0846
-990.737
13.8045
-1042.17
13.9785
1370.98
20.5678
6094.79
20.4116
6177.64
8.84087
2740.78
-14.5027
-739.22
-42.2483
-618.164
-6.89595
-207.123
-49.9215
180.454
-50.8331
1185.43
-28.1863
1493.83
-2.23607
1353.42
-2.23604
420.064
-9.6455
566.812
-10.3662
1043.64
-21.9953
830.183
-37.5309
477.965
-39.3999
613.797
-28.2764
892.214
-2.12221
957.672
1.99155
644.629
39.1256
-48.11
23.5761
-542.407
0.604761
-1743.58
-8.42556
-2784.74
-3511.26
-49.0427
191.08
-47.1788
76.8884
-57.0499
152.223
-76.4584
298.724
-98.0986
526.496
-110.261
774.973
-94.7388
865.338
-19.6318
481.768
72.0261
-478.494
-0.0287618
-463.268
-36.9518
-220.278
-57.6107
364.69
-34.5969
879.651
-14.0126
337.519
19.2732
-86.7836
-10.5609
-632.391
-8.20997
-700.229
-12.5742
-465.975
-8.07981
545.697
18.4889
3228.31
-10.5971
1995.04
-18.6025
1458.71
-7.3952
1621.3
4.02755
806.277
-28.5989
-566.581
-52.4927
-1234.12
-73.8804
-1551.64
-70.0537
-1357.56
-30.6134
-277.525
-32.0428
717.771
-7.41907
1210.26
33.7596
1262.37
61.5925
899.203
57.6727
614.03
111.399
425.269
142.04
75.9785
162.305
-114.77
180.77
-129.784
196.65
1.72723
201.698
57.6008
195.573
106.564
189.638
177.525
184.584
192.099
186.496
227.964
184.532
165.017
180.802
94.4853
174.398
32.5977
161.003
-41.1895
142.252
-126.675
117.706
-221.529
91.3116
-380.004
60.6582
-636.211
25.91
-955.411
10.3449
-1026.16
9.63154
1371.94
16.4763
6088.11
17.3568
6176.07
8.00691
2749.09
-12.6032
-724.436
-40.0853
-612.381
-13.0314
-233.488
-47.4904
214.085
-48.3966
1185.36
-26.5678
1471.25
-1.30808
1329.61
-2.05242
423.716
-5.41687
570.555
-4.1762
1043.1
-17.1902
842.404
-33.8039
493.738
-31.8516
614.473
-17.5002
879.32
8.91845
932.679
21.564
633.793
50.2192
-59.1949
32.9069
-524.79
7.20094
-1719.9
-6.48008
-2772.91
-3514.88
-51.0702
182.314
-51.1183
76.9752
-61.8402
162.615
-81.1413
317.251
-101.897
546.468
-112.256
784.512
-94.1514
846.73
-24.9434
412.134
24.9195
-532.527
-10.0763
-429.485
-42.492
-191.135
-59.7606
379.054
-37.2952
858.091
-16.2412
317.838
16.7813
-119.948
-13.9633
-601.745
-10.7037
-701.911
-13.236
-458.269
-9.40724
537.34
20.3518
3198.61
-11.1499
2029.93
-19.3512
1470.6
-4.82765
1607.76
5.1183
800.343
-25.8562
-531.459
-46.1237
-1211.52
-69.6231
-1526.65
-67.6831
-1358.42
-22.5166
-313.253
-24.3261
722.268
0.285415
1187.68
40.2884
1225.05
67.0208
873.61
68.6753
621.531
121.291
393.124
151.493
56.3
176.241
-131.93
196.66
-140.551
210.456
-2.51285
210.638
65.9635
202.28
125.478
196.392
193.736
192.07
202.056
192.683
231.196
187.623
173.511
180.684
102.709
173.579
40.0565
159.964
-29.2345
141.728
-109.631
117.762
-200.327
91.369
-355.065
60.0973
-606.241
24.959
-921.131
6.68053
-1008.98
4.94907
1373.62
12.4431
6080.65
14.3929
6173.82
7.14147
2755.62
-11.7154
-707.45
-38.0631
-592.085
-18.107
-254.435
-45.677
239.031
-45.9147
1184.58
-24.8284
1448.99
-0.178156
1305.15
-1.38653
424.818
-1.07544
568.561
2.24862
1039.31
-11.5102
853.738
-28.3541
505.941
-23.6431
607.913
-7.21474
860.651
19.1169
904.117
35.1148
614.07
54.5678
-107.534
42.3717
-514.829
14.4142
-1693.24
0.7472
-2759.67
-3495
-53.2653
175.382
-55.0357
80.0726
-66.5453
175.427
-85.7456
337.437
-105.545
567.311
-114.076
793.84
-94.1425
827.65
-31.0764
350.184
-4.0593
-558.99
-19.5013
-414.028
-47.6642
-165.107
-61.9406
391.449
-39.5526
836.467
-18.5861
297.224
12.9524
-155.075
-16.9952
-572.222
-12.9683
-705.771
-7.54937
-462.214
-7.4726
531.804
22.3334
3167.96
-11.2054
2065.71
-19.8293
1480.1
-2.63981
1588.14
12.2286
782.628
-17.7366
-514.86
-40.0298
-1193.5
-64.7514
-1505.94
-58.8237
-1367.7
-12.1553
-375.961
-16.5674
721.809
7.94543
1160.09
46.8187
1183.75
72.9885
841.411
81.0019
600.307
130.642
341.446
163.427
20.3812
192.793
-166.124
213.004
-166.908
222.195
-20.6035
218.334
60.2988
209.957
124.436
204.868
189.271
200.823
200.029
199.929
226.721
192.015
178.561
181.368
111.799
172.774
50.1224
158.584
-13.3371
140.768
-87.6688
117.511
-173.556
91.3147
-324.574
59.7039
-572.292
24.1734
-884.282
3.08542
-986.466
0.142188
1377.3
8.56956
6072.53
11.5397
6170.17
6.49039
2759.65
-11.2351
-696.43
-35.734
-590.967
-22.2092
-266.293
-44.4882
261.21
-43.468
1182.59
-23.0166
1427.64
1.13139
1282.43
-0.333892
429.138
3.30051
565.252
8.83418
1034.39
-5.17743
866.817
-21.9022
521.436
-15.6988
603.899
2.3044
843.672
30.0344
877.211
56.9287
588.161
63.1775
-104.591
51.8898
-503.454
21.9515
-1665.76
5.24629
-2745.19
-3495.07
-55.4301
170.131
-58.7123
83.3121
-71.0129
187.274
-90.1653
355.73
-108.971
585.304
-115.686
799.743
-94.3878
805.882
-36.9769
292.302
-23.6163
-575.417
-30.0421
-408.719
-52.5189
-145.446
-63.064
399.603
-41.2725
815.824
-21.1907
278.72
7.281
-182.798
-19.2793
-545.168
-14.5522
-709.016
2.04825
-474.432
-3.69197
532.356
24.2913
3140.22
-10.6836
2104.18
-20.0399
1493.33
-0.446336
1569.78
16.4856
770.056
-12.507
-480.346
-33.9684
-1169.07
-59.1061
-1479.12
-49.0476
-1376.61
-0.374093
-414.131
-8.95614
733.638
15.639
1137.97
53.4623
1149.04
79.9183
816.593
91.5102
597.45
140.256
309.686
177.717
-7.59128
209.562
-190.681
225.42
-173.489
228.304
-14.1353
222.056
75.4584
214.311
143.271
210.064
203.929
206.148
210.402
203.867
233.247
194.939
191.006
180.622
127.269
169.344
61.5283
155.805
-2.17653
139.338
-72.7122
117.157
-154.584
91.2391
-299.851
59.5279
-541.8
23.5062
-849.143
0.11569
-964.128
-4.49309
1381.76
4.90156
6063.16
8.83806
6165.95
6.10998
2761.76
-11.5762
-680.597
-33.837
-573.835
-25.7443
-273.788
-43.5663
277.728
-41.0958
1179.22
-21.0916
1406.51
2.61344
1258.99
1.05866
430.609
7.71246
556.933
15.6602
1025.96
1.6991
878.441
-15.4356
534.149
-8.11828
594.772
11.2736
822.067
40.0633
846.173
66.3305
557.926
66.6528
-128.772
61.0466
-500.1
29.7216
-1635.81
7.14833
-2723.01
-3487.38
-57.647
166.247
-62.2872
89.2098
-75.4057
201.627
-94.5249
375.793
-112.227
604.023
-117.092
805.394
-94.7636
784.492
-42.3565
241.362
-37.2274
-579.254
-38.6001
-407.025
-56.6121
-129.5
-64.0575
405.119
-42.3825
794.9
-23.5226
260.291
1.44975
-211.711
-20.7524
-523.658
-15.7482
-713.867
13.1283
-499.992
-5.41827
548.021
25.9982
3108.75
-9.52522
2141.91
-19.9683
1504.7
1.52959
1545.85
22.6972
745.993
-5.1216
-466.416
-27.5862
-1151.38
-52.6534
-1458.48
-43.953
-1388.95
6.11365
-483.092
-1.69169
736.089
23.236
1109.72
60.2288
1109.36
86.9665
783.339
102.875
571.557
151.984
260.132
194.255
-53.1057
225.383
-226.512
234.591
-188.742
232.386
-20.0707
227.276
71.7627
221.685
139.402
217.796
198.367
212.668
209.644
208.685
232.22
199.186
197.885
182.003
142.685
166.539
78.1169
152.505
13.3392
137.176
-53.2348
116.289
-129.881
91.0101
-269.481
59.5722
-507.191
22.9387
-810.359
-1.84751
-936.776
-8.82708
1390.02
1.54654
6053.27
6.30047
6160.55
5.92457
2761.18
-11.8592
-670.214
-31.611
-576.632
-28.8356
-273.086
-42.9276
292.491
-38.8916
1174.18
-19.0961
1385.62
4.2595
1236.98
2.72554
434.841
12.1413
547.768
22.728
1015.91
9.02334
891.158
-9.31178
550.984
-0.865539
588.054
20.2936
801.453
50.8385
815.734
79.7876
528.807
74.3911
-121.395
70.1686
-496.179
38.0177
-1606.59
17.1629
-2704.76
-3460.81
-59.6866
163.416
-65.6056
95.0491
-79.6093
215.117
-98.7373
394.025
-115.239
619.715
-118.199
807.561
-95.0404
760.865
-47.6688
193.429
-47.5501
-582.016
-46.1044
-409.502
-60.1217
-117.709
-64.201
407.271
-42.8089
774.914
-25.6164
244.894
-4.03808
-231.351
-21.1149
-505.381
-17.848
-715.743
35.4644
-550.069
-8.54161
582.888
27.477
3072.83
-7.84803
2180.83
-19.6236
1520.47
3.54441
1524.22
26.83
727.515
0.783961
-432.985
-21.0169
-1125.87
-45.3702
-1432.17
-40.5476
-1392.3
9.85646
-521.974
5.26038
744.554
30.8155
1087.01
67.4485
1076.09
93.949
758.767
112.478
563.082
165.848
220.586
211.753
-90.7078
238.323
-246.197
240.313
-181.642
235.615
-5.98252
233.163
83.2328
227.938
155.879
222.772
214.162
215.949
223.651
210.438
242.378
200.443
211.558
182.879
161.346
163.37
97.5286
147.223
26.3376
134.199
-42.3747
115.168
-114.447
90.7071
-246.032
59.7381
-477.426
22.715
-774.242
-2.85814
-912.203
-12.8364
1399.77
-1.44398
6041.91
3.96755
6154.85
6.13568
2758.47
-11.599
-654.212
-29.7592
-562.395
-30.9436
-269.514
-42.2426
303.334
-36.8595
1167.92
-17.0015
1364.63
6.06927
1214.17
4.62204
436.078
16.5418
534.094
29.9877
1001.94
16.9898
901.887
-2.91344
566.693
6.19072
577.018
29.244
776.071
61.256
781.274
90.8466
494.929
82.8036
-132.972
79.1884
-494.92
46.396
-1575.35
22.2325
-2681.06
-3453.73
-61.6004
161.271
-68.8635
103.54
-83.8291
231.329
-102.921
414.086
-118.052
635.89
-119.022
809.349
-95.2242
738.1
-52.1325
152.077
-54.0297
-578.303
-50.7468
-412.103
-62.7223
-107.4
-64.0364
406.749
-42.5987
754.366
-27.085
229.973
-8.20601
-253.842
-21.1349
-493.347
-22.9029
-714.663
69.3192
-638.905
-4.60459
651.345
29.2149
3038.97
-5.54029
2217.57
-18.9014
1534.73
5.4478
1497.41
31.7234
698.191
8.36088
-423.471
-14.4724
-1108.54
-37.4909
-1414.03
-37.2253
-1396.6
11.848
-594.17
11.79
738.498
38.2713
1056.75
74.8575
1036.18
100.492
725.173
124.507
529.959
181.302
162.984
228.466
-141.832
249.797
-272.644
246.65
-185.048
242.739
-10.2856
243.17
74.0771
236.989
152.116
229.622
211.948
220.841
226.534
214.22
244.209
203.924
219.464
186.346
177.151
164.142
120.483
143.305
48.1821
130.505
-25.3392
113.368
-93.2583
90.1946
-216.766
59.851
-442.702
22.9691