/*--------------------------------*- C++ -*----------------------------------*\
| =========                 |                                                 |
| \\      /  F ield         | OpenFOAM: The Open Source CFD Toolbox           |
|  \\    /   O peration     | Version:  4.1                                   |
|   \\  /    A nd           | Web:      www.OpenFOAM.org                      |
|    \\/     M anipulation  |                                                 |
\*---------------------------------------------------------------------------*/
FoamFile
{
    version     2.0;
    format      ascii;
    class       volVectorField;
    location    "19";
    object      U;
}
// * * * * * * * * * * * * * * * * * * * * * * * * * * * * * * * * * * * * * //

dimensions      [0 1 -1 0 0 0 0];

internalField   nonuniform List<vector> 
6785
(
(9.82794e-15 0.852199 15.7946)
(8.96631e-15 -4.89458 12.1215)
(-3.86862e-15 -4.19551 12.1321)
(2.27361e-15 -3.60119 11.9966)
(1.20634e-15 -3.00469 11.8778)
(-1.14524e-16 -2.5532 11.6992)
(2.5767e-15 -2.20882 11.4768)
(7.93365e-16 -1.96605 11.2116)
(2.64162e-17 -1.79857 10.916)
(2.03966e-16 -1.71241 10.5882)
(-8.28951e-17 -1.83748 10.156)
(-5.72102e-16 -2.28571 9.53758)
(7.3218e-16 -2.51305 8.96374)
(4.33915e-17 -1.06557 8.91354)
(-2.6595e-16 1.76577 7.47098)
(1.1016e-14 -5.35013 22.493)
(1.6007e-14 -14.6049 21.394)
(-7.60105e-16 -13.2708 20.3412)
(5.03737e-15 -11.7697 19.5066)
(1.72367e-15 -11.1561 18.5044)
(-3.2926e-16 -10.6595 17.5174)
(3.67965e-15 -10.0902 16.5714)
(1.43222e-15 -9.52507 15.6236)
(-1.56714e-16 -8.96551 14.6638)
(2.6314e-15 -8.36739 13.6946)
(1.05958e-15 -7.75716 12.7179)
(-5.09737e-16 -7.30342 11.7195)
(9.16808e-16 -7.01714 10.6245)
(3.52619e-16 -5.7311 9.16141)
(-2.94345e-16 -2.30512 4.58362)
(1.95907e-14 -7.71564 23.9803)
(2.10515e-14 -16.7731 24.673)
(-1.37944e-16 -13.7366 23.9373)
(7.92058e-15 -12.3063 22.625)
(-5.53058e-16 -11.6448 21.2414)
(-4.75493e-17 -10.8142 20.0014)
(3.93571e-15 -9.94042 18.7739)
(7.42672e-16 -9.1003 17.5248)
(6.39005e-16 -8.28359 16.2656)
(2.91791e-15 -7.47547 15.0264)
(-1.47635e-17 -6.66787 13.8179)
(2.60688e-16 -5.84192 12.4304)
(1.59711e-15 -4.81415 10.2757)
(4.57192e-16 -3.1265 6.68499)
(-1.52668e-16 -0.832299 1.69042)
(1.83074e-14 -8.50258 22.0464)
(1.69286e-14 -16.6212 24.332)
(-2.713e-15 -12.93 23.7972)
(4.07405e-15 -12.1537 21.9986)
(3.12804e-15 -11.4202 20.5029)
(2.93217e-16 -10.4938 19.1723)
(2.45908e-15 -9.63404 17.8168)
(2.57172e-15 -8.82377 16.4591)
(-2.83543e-16 -8.05381 15.1231)
(1.88146e-15 -7.32396 13.8166)
(7.45081e-17 -6.55263 12.4396)
(2.77148e-16 -5.49103 10.5832)
(-3.90077e-16 -3.78543 7.50912)
(1.38438e-15 -1.49398 2.76694)
(-1.20507e-15 0.153309 -1.77286)
(1.66159e-14 -8.47605 19.7477)
(1.6367e-14 -16.3603 24.312)
(1.79942e-15 -13.0992 23.6601)
(3.34301e-15 -12.6282 21.5365)
(9.19699e-16 -11.8568 20.0247)
(2.36685e-15 -10.9577 18.6637)
(1.28731e-15 -10.1702 17.2587)
(2.08468e-15 -9.40319 15.8711)
(1.13454e-15 -8.65307 14.5236)
(3.4508e-15 -7.93104 13.2137)
(-3.86193e-18 -7.1665 11.8295)
(-1.71203e-15 -6.11687 9.99677)
(-5.72294e-16 -4.42483 7.15647)
(-5.43878e-16 -2.3062 3.28961)
(-1.0302e-15 -0.787714 0.319202)
(1.47828e-14 -8.02113 17.5509)
(1.43753e-14 -16.0195 24.5274)
(4.2039e-15 -13.6444 24.0459)
(5.26958e-15 -12.9948 21.7647)
(4.32282e-16 -12.127 20.2153)
(2.86537e-15 -11.2254 18.8466)
(1.09573e-15 -10.4397 17.4338)
(-7.7336e-16 -9.64965 16.0432)
(3.68857e-16 -8.86116 14.6932)
(8.27476e-16 -8.0941 13.3818)
(-2.92129e-15 -7.29814 12.0174)
(-4.97059e-15 -6.28551 10.2825)
(4.30279e-15 -4.73441 7.72268)
(-4.18927e-15 -2.75828 4.37626)
(5.55334e-15 -0.950972 1.30146)
(1.26558e-14 -7.33381 15.2425)
(1.59175e-14 -15.4902 24.3521)
(7.28128e-15 -14.0267 24.4218)
(3.25259e-15 -13.1302 22.0674)
(-4.17141e-16 -12.1474 20.4394)
(4.19327e-15 -11.2386 19.0541)
(3.35513e-15 -10.439 17.6435)
(7.18194e-16 -9.62302 16.2577)
(1.92641e-15 -8.81353 14.9071)
(3.90425e-16 -8.03075 13.5928)
(3.1632e-15 -7.22777 12.2386)
(-2.77153e-15 -6.24454 10.5521)
(-2.39933e-17 -4.79251 8.11332)
(6.84222e-15 -2.91986 4.95604)
(2.85983e-15 -1.01448 1.80583)
(1.17732e-14 -6.54319 12.9983)
(1.8058e-14 -14.8413 23.8017)
(8.81957e-15 -14.2748 24.6691)
(2.89563e-15 -13.2445 22.3227)
(2.21617e-15 -12.1744 20.5815)
(2.87229e-15 -11.2725 19.1652)
(2.09065e-15 -10.4721 17.7581)
(1.40866e-15 -9.65051 16.3768)
(4.16542e-15 -8.84241 15.0257)
(-1.24444e-15 -8.06289 13.7094)
(-1.90148e-16 -7.26284 12.3613)
(4.96488e-15 -6.2957 10.7064)
(-6.37145e-15 -4.90204 8.34357)
(-1.38256e-15 -3.09836 5.28663)
(4.29145e-15 -1.13075 2.06217)
(1.05481e-14 -5.74319 11.0388)
(1.71992e-14 -14.1554 23.0443)
(1.03686e-14 -14.4661 24.8467)
(3.15332e-15 -13.4183 22.6249)
(1.67393e-15 -12.2728 20.7578)
(4.00102e-15 -11.3681 19.2974)
(2.24671e-15 -10.567 17.8942)
(9.18909e-16 -9.74552 16.5165)
(-4.08115e-16 -8.93971 15.1635)
(2.12644e-15 -8.16057 13.8443)
(3.47727e-16 -7.36102 12.499)
(-5.46152e-16 -6.40339 10.8711)
(-1.83718e-15 -5.05072 8.57858)
(-1.58242e-15 -3.29627 5.6021)
(-2.29294e-15 -1.25804 2.28999)
(1.00099e-14 -4.99557 9.3951)
(1.68697e-14 -13.4589 22.1643)
(9.03249e-15 -14.5766 24.9386)
(4.83857e-15 -13.6008 22.9562)
(2.06599e-15 -12.3845 20.9725)
(1.89129e-15 -11.459 19.455)
(9.67559e-16 -10.6515 18.0529)
(1.55593e-15 -9.8297 16.6785)
(1.168e-15 -9.02341 15.3239)
(-5.12438e-17 -8.24141 14.0018)
(-1.24158e-16 -7.44088 12.6565)
(-3.99742e-15 -6.49139 11.047)
(4.1444e-15 -5.17231 8.80968)
(-1.54736e-15 -3.45862 5.89336)
(-1.45212e-15 -1.35433 2.50369)
(4.44352e-15 -4.36475 8.08596)
(1.65005e-14 -12.7981 21.2595)
(1.23835e-14 -14.6139 24.9439)
(4.46664e-15 -13.7862 23.2975)
(2.39061e-15 -12.5246 21.2315)
(1.49396e-15 -11.5715 19.6459)
(-2.49028e-15 -10.7559 18.2361)
(1.03146e-15 -9.93552 16.862)
(2.17367e-15 -9.12923 15.5047)
(5.36625e-16 -8.34369 14.1782)
(-1.55797e-15 -7.54228 12.8318)
(4.86845e-15 -6.60085 11.24)
(-4.62464e-15 -5.31034 9.05505)
(2.59535e-15 -3.63146 6.19169)
(-4.84601e-15 -1.45706 2.72406)
(3.01323e-15 -3.75324 6.78812)
(1.44924e-14 -12.0929 20.1882)
(9.82996e-15 -14.5405 24.7614)
(5.03249e-15 -13.9021 23.4963)
(5.18281e-16 -12.5969 21.3654)
(-4.92612e-16 -11.6051 19.718)
(2.0536e-15 -10.7841 18.3162)
(-6.1766e-16 -9.97176 16.959)
(-2.2021e-15 -9.17357 15.615)
(4.09261e-16 -8.39532 14.3001)
(1.81861e-15 -7.60092 12.9634)
(-2.16988e-15 -6.67045 11.3884)
(-9.06439e-16 -5.40379 9.242)
(-4.74401e-15 -3.75261 6.41507)
(-6.78541e-15 -1.52029 2.87865)
(3.8873e-15 -3.43591 6.2064)
(1.37449e-14 -11.6164 19.3848)
(1.03467e-14 -14.6295 24.6713)
(6.17666e-15 -14.3309 23.9796)
(2.69361e-15 -13.0827 21.8854)
(2.14196e-16 -12.0483 20.1165)
(6.16323e-16 -11.1937 18.6337)
(3.77026e-16 -10.3643 17.2348)
(-1.29067e-15 -9.54288 15.8584)
(-5.6321e-16 -8.73371 14.5135)
(9.82419e-16 -7.91396 13.1633)
(-1.88028e-15 -6.97419 11.6164)
(-1.96665e-15 -5.72109 9.55662)
(-3.97723e-15 -4.06831 6.79102)
(-6.75161e-15 -1.69898 3.14563)
(-4.34361e-16 -1.88157 2.56826)
(1.22453e-14 -9.89021 16.2187)
(9.78515e-15 -13.9214 23.2099)
(5.87582e-15 -13.9712 23.2865)
(2.4731e-15 -12.6186 21.1822)
(-3.50983e-16 -11.5152 19.4647)
(1.24821e-15 -10.7508 18.2419)
(2.60775e-15 -10.053 17.0952)
(-5.57388e-16 -9.36237 15.9307)
(-8.15741e-17 -8.68089 14.7603)
(2.89486e-16 -7.98291 13.5578)
(-2.1857e-15 -7.17089 12.16)
(-1.53747e-15 -6.05465 10.275)
(-4.29053e-15 -4.59414 7.80443)
(-5.87753e-15 -2.28893 4.5178)
(6.46457e-16 -4.10782 8.61564)
(1.15809e-14 -10.8904 17.9631)
(1.31221e-14 -15.2775 24.7429)
(8.01108e-15 -16.9026 26.0619)
(4.11082e-15 -16.4269 24.3824)
(1.27213e-15 -15.2301 21.9495)
(3.90882e-17 -13.9013 19.6446)
(1.0071e-15 -12.6366 17.7249)
(2.88724e-16 -11.4213 15.9536)
(-6.49681e-16 -10.2456 14.3559)
(-5.30686e-16 -9.09529 12.8466)
(-2.1322e-15 -7.8787 11.2499)
(-2.38398e-15 -6.46505 9.34847)
(-4.7006e-15 -4.55974 6.42068)
(-6.62483e-15 -1.07652 2.09208)
(5.04053e-18 0.730297 -3.72275)
(2.32848e-16 0.650745 -5.9692)
(2.18427e-16 0.77147 -4.40317)
(2.29434e-16 1.259 -4.35819)
(2.41399e-16 1.72046 -4.13577)
(2.59787e-16 2.22829 -5.68696)
(1.6428e-16 2.10741 -4.03235)
(1.45358e-16 2.49889 -3.96959)
(1.06816e-16 2.82182 -3.7918)
(5.33137e-16 3.51932 -4.93668)
(4.47757e-16 3.15426 -3.5669)
(4.58248e-16 3.45125 -3.35478)
(2.91342e-16 4.54439 -4.19843)
(2.68377e-16 3.79153 -3.05671)
(2.76497e-16 4.12575 -3.00525)
(2.54634e-16 4.27136 -2.90569)
(1.38152e-16 5.34443 -3.48779)
(1.73268e-16 4.3538 -2.63205)
(1.82789e-16 4.53007 -2.51386)
(1.10284e-16 5.87222 -2.85099)
(1.21753e-16 4.60071 -2.20489)
(1.04689e-16 4.89356 -2.17315)
(2.36492e-16 4.96038 -2.13775)
(8.33919e-17 5.95754 -2.22287)
(1.03519e-16 4.65772 -1.85453)
(1.06129e-16 4.97053 -1.83007)
(8.56427e-17 5.04643 -1.82813)
(4.77539e-17 5.91076 -1.64785)
(5.3795e-17 4.56438 -1.53939)
(5.74245e-17 4.66281 -1.56376)
(3.16907e-17 5.8261 -1.12061)
(3.21172e-17 4.24265 -1.22491)
(1.86669e-17 4.46866 -1.21258)
(-2.66252e-18 4.46377 -1.25865)
(-3.22983e-17 5.66391 -0.70437)
(9.28624e-20 3.86278 -0.930984)
(6.53327e-18 3.87675 -1.00437)
(-4.2696e-17 5.43588 -0.392972)
(1.59869e-19 3.39493 -0.658472)
(-1.07541e-17 3.63515 -0.655269)
(2.11349e-17 3.55801 -0.703915)
(-1.80896e-17 4.90255 -0.142185)
(1.22202e-17 2.93211 -0.380761)
(8.11895e-18 3.18175 -0.376888)
(6.82351e-18 3.14138 -0.420615)
(-3.28435e-17 4.07168 0.079695)
(-1.69613e-17 2.56775 -0.0791165)
(-9.05974e-18 2.55917 -0.144294)
(2.45372e-16 3.43506 0.387232)
(-2.06347e-16 2.22419 0.265746)
(-3.93684e-16 2.28716 0.267925)
(-1.93785e-16 2.29533 0.210583)
(-1.78327e-16 2.71792 0.821036)
(-1.12174e-16 1.89292 0.614577)
(-1.16066e-16 1.95052 0.61334)
(2.09529e-17 1.9588 0.558359)
(1.13272e-16 2.08844 1.17424)
(1.69762e-16 1.42742 0.736762)
(1.64376e-15 1.37904 0.69329)
(1.14083e-16 1.48956 0.956318)
(1.45492e-16 0.767931 0.358686)
(1.5458e-16 0.710017 0.325816)
(9.89798e-17 0.782622 0.374144)
(1.55315e-15 1.24698 -0.795536)
(4.211e-16 -0.322295 -0.369313)
(-1.63398e-16 0.0921376 -0.0395148)
(-2.08719e-15 0.21618 1.2947)
(-1.90438e-15 -1.23105 3.24225)
(-1.78649e-15 -1.20166 3.18489)
(-1.83737e-15 -1.17701 3.34324)
(-2.36324e-15 -2.57458 6.27749)
(-1.74853e-15 -3.05414 6.01561)
(-1.79714e-15 -3.28413 6.12503)
(-1.81141e-15 -3.45387 6.30432)
(-2.28826e-15 -5.9715 9.94872)
(-1.47071e-15 -5.55013 8.09942)
(-1.51027e-15 -5.79613 8.5788)
(-1.75187e-15 -9.15563 12.6803)
(-1.32734e-15 -8.22241 9.78131)
(-1.6439e-15 -8.57347 10.4978)
(-2.56639e-15 -9.42586 12.2045)
(-2.28587e-15 -9.29366 12.1233)
(-2.18213e-15 -9.46917 12.402)
(-5.8821e-16 -11.3761 15.2722)
(-1.35388e-15 -10.2103 13.4678)
(-1.07647e-15 -10.5528 14.173)
(-1.06347e-15 -10.5473 14.3269)
(-1.02203e-15 -10.6163 14.4502)
(-9.46049e-16 -10.7075 14.5997)
(-8.55906e-16 -10.7817 14.7739)
(-6.10942e-16 -10.8693 15.0927)
(-2.57892e-16 -10.9994 15.483)
(8.03999e-16 -11.7129 16.939)
(2.26651e-16 -11.3739 15.9295)
(3.35214e-16 -11.5025 16.1593)
(3.89804e-16 -11.4858 16.2933)
(3.96013e-16 -11.6461 16.6731)
(4.25104e-16 -11.6162 16.7136)
(5.0232e-16 -11.6922 16.8639)
(5.83092e-16 -11.7425 16.9951)
(7.15563e-16 -11.8048 17.1513)
(2.65735e-15 -12.2583 18.311)
(1.71221e-15 -11.9002 17.552)
(1.82148e-15 -11.9982 17.7338)
(1.83945e-15 -12.0287 17.8274)
(1.86684e-15 -12.0663 17.9645)
(1.853e-15 -12.1067 18.1691)
(1.86864e-15 -12.1759 18.3973)
(1.98719e-15 -12.173 18.4721)
(2.07418e-15 -12.2384 18.5981)
(2.18288e-15 -12.2929 18.7073)
(3.29899e-15 -12.0666 19.0671)
(2.71358e-15 -12.0191 18.7194)
(2.81321e-15 -12.0497 18.8302)
(2.85754e-15 -12.0807 18.898)
(2.93983e-15 -12.1127 18.9845)
(3.0349e-15 -12.0993 19.0921)
(3.17883e-15 -12.1516 19.3378)
(3.24045e-15 -12.1757 19.4191)
(3.33921e-15 -12.2184 19.4165)
(3.71729e-15 -11.206 18.5483)
(3.51197e-15 -11.465 18.7067)
(3.54884e-15 -11.4257 18.8275)
(3.53304e-15 -11.4624 18.9637)
(3.7237e-15 -11.4032 18.8827)
(3.85309e-15 -11.3969 18.8585)
(4.01538e-15 -11.3661 18.8143)
(4.23134e-15 -11.3483 18.7984)
(4.6167e-15 -11.4303 18.9695)
(5.26112e-15 -9.19674 16.3172)
(4.94791e-15 -10.1538 17.5254)
(5.12227e-15 -9.97911 17.2388)
(5.25409e-15 -9.94629 17.1172)
(5.65531e-15 -9.90515 17.1105)
(5.77924e-15 -9.79389 16.8526)
(5.82069e-15 -9.68626 16.4821)
(5.88629e-15 -9.63944 16.0807)
(5.94077e-15 -9.50218 15.5825)
(6.19842e-15 -6.57953 11.4734)
(6.36802e-15 -7.93377 13.9774)
(6.24089e-15 -7.55888 13.1357)
(6.13103e-15 -7.51198 12.6187)
(6.0151e-15 -7.36052 11.9269)
(5.98228e-15 -7.28169 11.1736)
(6.49352e-15 -6.98675 10.2244)
(5.91814e-15 -6.92958 9.52043)
(5.58466e-15 -6.72039 8.66437)
(5.136e-15 -6.37844 7.74026)
(2.44316e-15 -3.51005 1.9224)
(4.34582e-15 -4.916 5.83753)
(3.69739e-15 -4.35323 4.32427)
(3.41025e-15 -4.3533 3.79882)
(2.9943e-15 -4.08659 2.97353)
(2.47948e-15 -4.02432 2.07463)
(1.37311e-15 -3.84641 0.682407)
(2.23108e-16 -3.41886 -0.644761)
(4.75337e-16 -3.31332 -0.741414)
(1.19908e-15 -2.45333 -3.08772)
(6.24826e-17 -2.77357 -0.440513)
(5.4577e-17 -2.43337 -1.19515)
(-4.85567e-17 -1.84195 -2.84389)
(1.86692e-15 -2.08628 -2.43926)
(9.33488e-16 -1.94222 -1.69228)
(-2.70955e-15 -1.14758 -1.36688)
(-3.65259e-15 -1.61874 -1.49311)
(-5.05052e-16 -0.710431 -1.23488)
(-1.86085e-15 -0.842792 -0.918505)
(-1.60297e-15 -0.648066 -1.245)
(-1.40739e-15 -0.319511 -1.54839)
(-5.20502e-16 0.0296938 -1.56976)
(4.2167e-16 0.462283 -1.76646)
(2.62066e-16 0.468565 -1.37117)
(4.52782e-16 0.999063 -1.59919)
(3.82128e-16 0.964561 -1.28381)
(2.50601e-16 1.3359 -1.44156)
(4.75641e-16 1.91543 -1.45904)
(5.87604e-16 1.44531 -1.09898)
(-5.39748e-16 2.44726 -1.27459)
(-4.5545e-16 1.92113 -1.00638)
(1.72907e-16 2.43101 -1.12359)
(1.06929e-16 2.95668 -1.11173)
(8.84643e-17 2.28183 -0.840383)
(7.55424e-17 2.97842 -0.915558)
(-1.53194e-15 3.60182 -0.884577)
(2.01911e-16 2.56208 -0.684965)
(3.74664e-16 3.99698 -0.775707)
(1.99961e-16 2.97436 -0.614826)
(2.13827e-16 3.59329 -0.689257)
(1.77504e-16 4.19681 -0.647395)
(1.59057e-16 3.0267 -0.500764)
(1.59832e-16 4.6013 -0.558825)
(1.08308e-16 3.41877 -0.445659)
(1.66624e-16 4.08032 -0.509459)
(6.69517e-16 4.58566 -0.459273)
(-3.0746e-18 3.4558 -0.357436)
(-5.67209e-17 4.3394 -0.383735)
(-6.00281e-16 4.97157 -0.315053)
(7.67296e-17 3.49882 -0.274025)
(-1.66211e-16 5.23753 -0.288075)
(-6.33899e-17 3.83574 -0.233505)
(-1.65461e-16 4.53823 -0.276796)
(-8.50789e-16 5.11982 -0.208259)
(-9.07881e-17 3.66891 -0.1755)
(-2.65313e-16 5.43719 -0.18069)
(-1.55261e-16 4.00545 -0.145794)
(-2.33152e-16 4.70528 -0.188025)
(-4.36868e-16 5.17789 -0.122138)
(-2.61593e-16 3.87558 -0.0996796)
(-3.11846e-16 4.81692 -0.104433)
(-5.12416e-16 5.41939 -0.0243056)
(-2.92519e-16 3.80286 -0.0530785)
(-4.41625e-16 5.58967 -0.0322293)
(-3.73307e-16 4.08987 -0.0312046)
(-4.62152e-16 4.78855 -0.0513582)
(-7.05243e-16 5.31796 0.0228645)
(-4.46579e-16 3.81433 -0.00288119)
(-6.85375e-16 5.57324 0.0230208)
(-5.01646e-16 4.11369 0.00890048)
(-6.46697e-16 4.78725 -0.00945885)
(-8.68891e-16 5.20451 0.0536714)
(-5.63059e-16 3.88943 0.0278547)
(-6.82176e-16 4.8141 0.0443981)
(-8.26893e-16 5.37431 0.113546)
(-6.33582e-16 3.76427 0.048438)
(-8.83458e-16 5.484 0.0832031)
(-6.48525e-16 4.02414 0.0523473)
(-8.0139e-16 4.68556 0.0460617)
(-1.03779e-15 5.17162 0.0933189)
(-6.84366e-16 3.70366 0.0543232)
(-9.98e-16 5.39192 0.0718958)
(-7.11777e-16 3.9986 0.0449806)
(-8.23257e-16 4.62565 0.0242987)
(-1.02667e-15 5.02663 0.048264)
(-8.56721e-16 3.74598 0.0314756)
(-1.21835e-15 4.65377 0.030843)
(-1.05366e-15 5.21843 0.0498368)
(-7.49019e-16 3.63834 0.0184499)
(-9.24279e-16 5.32265 0.001408)
(-7.77914e-16 3.89862 -0.00137873)
(-1.09863e-15 4.68825 -0.06883)
(-9.09095e-16 -0.467016 0.370327)
(-9.09055e-16 -0.29615 0.235825)
(-9.10387e-16 -0.220097 0.136322)
(-9.11303e-16 -0.182172 0.0600085)
(-9.11333e-16 -0.341641 0.190305)
(-9.10812e-16 -0.764271 0.375019)
(-9.09648e-16 -1.22023 0.468056)
(-9.06851e-16 -1.3661 0.445182)
(-9.0181e-16 -0.855727 0.309167)
(-8.98888e-16 1.09076 -0.284031)
(-8.98667e-16 0.671537 0.0635206)
(-8.96942e-16 -0.207105 0.013915)
(-9.00672e-16 -1.51001 -0.200783)
(-9.02378e-16 -0.813215 -0.127252)
(-9.00813e-16 -0.405529 -0.0882258)
(-9.00759e-16 1.21513 -0.114529)
(-9.01031e-16 1.04115 0.0992189)
(-9.11067e-16 0.615911 0.133695)
(-9.20074e-16 -0.837768 -0.0176189)
(-9.05181e-16 -4.59137 -0.161991)
(-8.52488e-16 -2.3743 -0.330219)
(-8.16264e-16 -1.796 -0.188316)
(-7.86692e-16 -2.07348 0.541925)
(-7.56755e-16 -1.28071 0.108055)
(-7.25904e-16 1.36823 0.302167)
(-7.16406e-16 1.86432 0.697624)
(-7.35824e-16 2.19914 0.505713)
(-8.17564e-16 1.87404 0.515822)
(-8.55553e-16 0.133615 0.70604)
(-8.46766e-16 -1.05518 0.769593)
(-8.46998e-16 -2.03073 0.697312)
(-8.47006e-16 -2.40832 0.495056)
(-8.47414e-16 -1.71869 -0.0321759)
(-8.47435e-16 -0.265115 0.0275756)
(-8.46688e-16 -0.219006 -0.0874483)
(-8.46659e-16 -1.30973 0.159402)
(-8.46777e-16 -0.594886 -0.136331)
(-8.46845e-16 -0.383476 -0.475038)
(-8.46846e-16 0.299828 -0.490084)
(-8.4633e-16 -0.203522 -0.554622)
(-8.46336e-16 -0.300584 -0.564635)
(-8.46626e-16 -0.231035 -0.743546)
(-8.44617e-16 -0.258046 -0.680271)
(-8.4447e-16 -0.45039 -0.698765)
(-8.44715e-16 -0.347299 -0.823869)
(-8.44956e-16 -0.278376 -0.875786)
(-8.45227e-16 -0.0912327 -1.02856)
(-8.45618e-16 0.152707 -1.11897)
(-8.46135e-16 0.453049 -1.09688)
(-8.44342e-16 0.724312 -0.933209)
(-8.40376e-16 0.971216 -0.68178)
(-8.40568e-16 1.24057 -0.441412)
(-8.26662e-16 1.69356 -0.421127)
(-7.16825e-16 1.64748 -0.282813)
(-6.38491e-16 -1.89903 -0.0446763)
(-4.8944e-16 -8.28709 -0.32308)
(-3.23511e-16 -8.19639 -0.288158)
(-2.18748e-16 -3.40666 -0.212761)
(-1.44544e-16 1.53885 0.00261992)
(-1.40552e-16 1.17347 0.506849)
(-1.41213e-16 -0.767776 0.306252)
(-1.40164e-16 0.49695 0.137139)
(-1.4082e-16 -1.58398 0.440544)
(-1.41486e-16 -2.40267 0.381244)
(-1.4119e-16 -2.31527 -0.00582657)
(-1.38431e-16 -0.786694 -0.259776)
(-1.34323e-16 -0.572514 0.185785)
(-1.29421e-16 -1.38583 0.197829)
(-1.09276e-16 -1.05786 0.401039)
(-6.19043e-17 -0.492906 0.687887)
(-2.1916e-17 -0.832641 0.979013)
(-1.37732e-17 -1.24106 0.798636)
(-8.81603e-18 -1.53443 0.608744)
(1.36744e-17 -0.559786 0.535683)
(6.01949e-17 -0.527389 0.549774)
(7.0826e-17 0.740764 0.186921)
(1.84181e-16 2.45324 0.229003)
(3.2905e-16 3.68167 0.143655)
(4.18655e-16 4.58679 -0.00127128)
(-9.09071e-16 -0.441081 0.396612)
(-9.09193e-16 -0.242932 0.247104)
(-9.10505e-16 -0.152121 0.14385)
(-9.1133e-16 -0.109127 0.092677)
(-9.1131e-16 -0.296508 0.254818)
(-9.10766e-16 -0.735396 0.451291)
(-9.09532e-16 -1.15751 0.544861)
(-9.06626e-16 -1.22797 0.485116)
(-9.01723e-16 -0.538307 0.178919)
(-8.99132e-16 1.05441 -0.285827)
(-8.99008e-16 0.644388 0.0446499)
(-8.97088e-16 -0.171197 0.177495)
(-9.00665e-16 -1.45086 -0.127093)
(-9.02367e-16 -0.577239 -0.0869534)
(-9.00946e-16 -0.0421841 -0.267368)
(-9.00754e-16 1.18695 -0.0983427)
(-9.0111e-16 1.07296 -0.0158214)
(-9.11588e-16 0.645797 0.166668)
(-9.20045e-16 -0.851827 -0.0713915)
(-9.05243e-16 -4.57896 -0.11208)
(-8.52836e-16 -2.41807 -0.193443)
(-8.16408e-16 -1.63909 -0.159669)
(-7.86474e-16 -1.95549 0.470377)
(-7.5622e-16 -1.11854 0.0408458)
(-7.26927e-16 1.36425 0.241413)
(-7.18009e-16 1.83862 0.704814)
(-7.35008e-16 2.20529 0.531808)
(-8.14109e-16 1.77389 0.517138)
(-8.56062e-16 0.136084 0.743825)
(-8.46634e-16 -0.962583 0.710663)
(-8.46998e-16 -1.96198 0.621514)
(-8.47012e-16 -2.35303 0.420098)
(-8.47414e-16 -1.71064 -0.0669845)
(-8.47443e-16 -0.607846 0.16587)
(-8.46722e-16 -0.62479 0.386764)
(-8.46649e-16 -1.02958 0.390714)
(-8.46764e-16 -0.427708 -0.105695)
(-8.46836e-16 -0.28035 -0.599089)
(-8.46957e-16 0.168693 -0.772728)
(-8.46419e-16 -0.122932 -0.446596)
(-8.46502e-16 -0.530093 -0.392583)
(-8.46905e-16 -0.25042 -0.726351)
(-8.4497e-16 -0.223515 -0.680506)
(-8.44469e-16 -0.382466 -0.67293)
(-8.44748e-16 -0.346444 -0.724812)
(-8.45179e-16 -0.29155 -0.880176)
(-8.45483e-16 -0.106446 -1.02257)
(-8.45869e-16 0.140914 -1.10204)
(-8.4621e-16 0.415122 -1.07074)
(-8.44258e-16 0.658182 -0.916388)
(-8.40944e-16 0.900061 -0.687419)
(-8.41829e-16 1.19993 -0.453179)
(-8.27777e-16 1.67141 -0.420197)
(-7.13837e-16 1.59616 -0.274659)
(-6.39583e-16 -1.92432 -0.00616647)
(-4.90204e-16 -8.26509 -0.335949)
(-3.2431e-16 -8.18624 -0.306386)
(-2.19323e-16 -3.36561 -0.232667)
(-1.44454e-16 1.41689 -0.00163019)
(-1.40826e-16 1.15598 0.561654)
(-1.41214e-16 -0.400436 0.277713)
(-1.40368e-16 0.485636 0.0705705)
(-1.40868e-16 -1.48189 0.473339)
(-1.41496e-16 -2.30487 0.396333)
(-1.41179e-16 -2.18055 0.0216448)
(-1.38463e-16 -0.401306 -0.264546)
(-1.34396e-16 -0.157041 0.177323)
(-1.29074e-16 -1.18435 0.240757)
(-1.06649e-16 -0.813649 0.40284)
(-5.51291e-17 -0.221984 0.644672)
(-1.98593e-17 -0.76141 0.864672)
(-1.36107e-17 -1.27305 0.684587)
(-7.76091e-18 -1.54657 0.526987)
(2.10543e-17 -0.885467 0.473825)
(6.2179e-17 -0.45967 0.58889)
(6.29641e-17 0.77877 0.161727)
(1.8453e-16 2.45611 0.237693)
(3.40246e-16 3.70692 0.15878)
(4.32301e-16 4.63019 0.0874537)
(-9.09054e-16 -0.427469 0.397136)
(-9.09374e-16 -0.231712 0.241468)
(-9.10647e-16 -0.162343 0.148478)
(-9.11356e-16 -0.163935 0.124234)
(-9.11283e-16 -0.378359 0.292498)
(-9.10707e-16 -0.802406 0.484492)
(-9.09382e-16 -1.20181 0.57714)
(-9.06358e-16 -1.24375 0.503268)
(-9.01584e-16 -0.506473 0.133158)
(-8.99148e-16 1.05111 -0.220538)
(-8.99101e-16 0.610549 0.0260721)
(-8.97424e-16 -0.196446 0.172991)
(-9.00675e-16 -1.4407 -0.0946989)
(-9.02361e-16 -0.661453 -0.0472572)
(-9.01068e-16 -0.176701 -0.270797)
(-9.00752e-16 1.08615 -0.0905395)
(-9.01346e-16 0.937179 -0.0424781)
(-9.11827e-16 0.644504 0.170585)
(-9.20006e-16 -0.781705 -0.0654801)
(-9.05286e-16 -4.54382 -0.10615)
(-8.53323e-16 -2.44286 -0.1262)
(-8.1671e-16 -1.78364 -0.132169)
(-7.86523e-16 -2.04803 0.415849)
(-7.56016e-16 -1.13305 0.00263854)
(-7.28858e-16 1.19031 0.257669)
(-7.21354e-16 1.81694 0.696229)
(-7.35944e-16 2.21437 0.527531)
(-8.12349e-16 1.78408 0.514784)
(-8.56332e-16 0.128238 0.705473)
(-8.46518e-16 -0.976991 0.678257)
(-8.46998e-16 -1.93147 0.577431)
(-8.47019e-16 -2.26856 0.370526)
(-8.47413e-16 -1.63514 -0.0936024)
(-8.4746e-16 -0.418918 0.109757)
(-8.46829e-16 -0.444712 0.413779)
(-8.46696e-16 -1.27484 0.452601)
(-8.46776e-16 -0.468779 -0.124547)
(-8.46812e-16 -0.178293 -0.706424)
(-8.46887e-16 0.115686 -0.806592)
(-8.46547e-16 -0.143816 -0.397748)
(-8.46713e-16 -0.355201 -0.465077)
(-8.47027e-16 -0.262881 -0.735754)
(-8.45388e-16 -0.227721 -0.675936)
(-8.44777e-16 -0.403724 -0.671211)
(-8.45059e-16 -0.33933 -0.727973)
(-8.45457e-16 -0.246288 -0.895683)
(-8.45682e-16 -0.072451 -1.02966)
(-8.46022e-16 0.152597 -1.09927)
(-8.4629e-16 0.403908 -1.05994)
(-8.44305e-16 0.630356 -0.908474)
(-8.41323e-16 0.866213 -0.689131)
(-8.42601e-16 1.17919 -0.455792)
(-8.284e-16 1.65229 -0.417092)
(-7.11259e-16 1.54737 -0.243068)
(-6.40771e-16 -1.90043 -0.0329373)
(-4.91095e-16 -8.23856 -0.326185)
(-3.25229e-16 -8.20451 -0.296467)
(-2.19997e-16 -3.42017 -0.230907)
(-1.44256e-16 1.37177 0.0205172)
(-1.40857e-16 1.04251 0.556981)
(-1.41188e-16 -0.374431 0.246936)
(-1.40393e-16 0.307226 0.100373)
(-1.4092e-16 -1.53277 0.481061)
(-1.41507e-16 -2.28601 0.397014)
(-1.41164e-16 -2.15056 0.0501651)
(-1.38485e-16 -0.551859 -0.20285)
(-1.34462e-16 -0.392898 0.176042)
(-1.28651e-16 -1.27638 0.238583)
(-1.0389e-16 -0.942882 0.389694)
(-4.94362e-17 -0.434324 0.579408)
(-1.81e-17 -0.823995 0.740592)
(-1.3565e-17 -1.26173 0.613698)
(-6.46984e-18 -1.50017 0.505724)
(2.63705e-17 -0.810592 0.503025)
(5.86571e-17 -0.440858 0.510355)
(5.38183e-17 0.815958 0.124396)
(1.80244e-16 2.45364 0.23012)
(3.42619e-16 3.71413 0.158052)
(4.44658e-16 4.63852 0.122104)
(-9.09056e-16 -0.409262 0.392584)
(-9.09578e-16 -0.209063 0.233783)
(-9.10789e-16 -0.153281 0.154351)
(-9.11377e-16 -0.18534 0.155077)
(-9.11255e-16 -0.421935 0.325493)
(-9.10641e-16 -0.836193 0.510781)
(-9.09218e-16 -1.20929 0.601808)
(-9.06072e-16 -1.21161 0.5162)
(-9.01407e-16 -0.411868 0.0998053)
(-8.99291e-16 1.03812 -0.217653)
(-8.99091e-16 0.604721 -0.00979341)
(-8.97625e-16 -0.218731 0.184581)
(-9.00699e-16 -1.41365 -0.0626508)
(-9.02359e-16 -0.653256 -0.00186229)
(-9.01154e-16 -0.181255 -0.254139)
(-9.00743e-16 1.10984 -0.0464726)
(-9.01636e-16 0.978355 -0.0696203)
(-9.11933e-16 0.69841 0.156957)
(-9.19976e-16 -0.808787 -0.0512205)
(-9.0536e-16 -4.52379 -0.110002)
(-8.5404e-16 -2.4352 -0.0942063)
(-8.16855e-16 -1.82107 -0.124371)
(-7.86555e-16 -2.1066 0.388342)
(-7.55596e-16 -1.14019 -0.0226712)
(-7.31213e-16 1.18643 0.298884)
(-7.24405e-16 1.80151 0.691725)
(-7.3654e-16 2.21086 0.53052)
(-8.10378e-16 1.75448 0.505546)
(-8.56551e-16 0.13288 0.683562)
(-8.46433e-16 -0.985765 0.647746)
(-8.46998e-16 -1.90061 0.542495)
(-8.47026e-16 -2.19981 0.330951)
(-8.47412e-16 -1.59219 -0.109724)
(-8.47478e-16 -0.449858 0.0338137)
(-8.46987e-16 -0.405524 0.404322)
(-8.46827e-16 -0.840901 0.560912)
(-8.46895e-16 -0.211828 -0.364833)
(-8.46829e-16 -0.0163693 -0.812689)
(-8.46834e-16 0.117673 -0.820638)
(-8.46721e-16 -0.155762 -0.404292)
(-8.46868e-16 -0.27105 -0.579284)
(-8.47048e-16 -0.206144 -0.777863)
(-8.45861e-16 -0.223797 -0.702551)
(-8.45277e-16 -0.400029 -0.683679)
(-8.45544e-16 -0.308302 -0.780648)
(-8.45813e-16 -0.206477 -0.934434)
(-8.45919e-16 -0.0519364 -1.04845)
(-8.46198e-16 0.153057 -1.10043)
(-8.46348e-16 0.381397 -1.0504)
(-8.44304e-16 0.590233 -0.900792)
(-8.41725e-16 0.822602 -0.689688)
(-8.43445e-16 1.14973 -0.458231)
(-8.2935e-16 1.62268 -0.415665)
(-7.09192e-16 1.51561 -0.218399)
(-6.41881e-16 -1.86303 -0.0573182)
(-4.91964e-16 -8.21599 -0.311932)
(-3.26122e-16 -8.2147 -0.282072)
(-2.20648e-16 -3.47125 -0.222924)
(-1.43985e-16 1.30348 0.0311368)
(-1.40852e-16 1.03273 0.516272)
(-1.41165e-16 -0.309992 0.229036)
(-1.40426e-16 0.313905 0.0959432)
(-1.40968e-16 -1.56715 0.471525)
(-1.41517e-16 -2.25284 0.385193)
(-1.41146e-16 -2.10087 0.0667278)
(-1.38492e-16 -0.586179 -0.159962)
(-1.34513e-16 -0.526854 0.166767)
(-1.28248e-16 -1.3276 0.226146)
(-1.01614e-16 -0.999885 0.370811)
(-4.55891e-17 -0.506347 0.514254)
(-1.70559e-17 -0.813534 0.636815)
(-1.35404e-17 -1.23277 0.561245)
(-4.95729e-18 -1.46956 0.490905)
(2.75793e-17 -0.812413 0.476779)
(5.23865e-17 -0.409294 0.413973)
(4.44389e-17 0.836484 0.0839856)
(1.76083e-16 2.45261 0.218138)
(3.45793e-16 3.72601 0.155171)
(4.63717e-16 4.65092 0.098625)
(-9.09082e-16 -0.390901 0.386853)
(-9.09797e-16 -0.18707 0.22807)
(-9.10924e-16 -0.146618 0.164732)
(-9.11392e-16 -0.204994 0.188287)
(-9.11223e-16 -0.456662 0.359334)
(-9.10568e-16 -0.862428 0.537635)
(-9.0904e-16 -1.21005 0.625885)
(-9.05767e-16 -1.16746 0.526164)
(-9.0119e-16 -0.302216 0.0624052)
(-8.99371e-16 1.0115 -0.204647)
(-8.99112e-16 0.574607 -0.0137807)
(-8.97854e-16 -0.264903 0.192866)
(-9.00732e-16 -1.38546 -0.0313361)
(-9.02359e-16 -0.626864 0.0417394)
(-9.01201e-16 -0.150815 -0.248324)
(-9.00718e-16 1.06911 -0.0207184)
(-9.01955e-16 0.960481 -0.0857661)
(-9.11962e-16 0.677848 0.160604)
(-9.19949e-16 -0.813845 -0.0416021)
(-9.05474e-16 -4.50633 -0.117482)
(-8.54661e-16 -2.43857 -0.0822653)
(-8.16797e-16 -1.83561 -0.0980889)
(-7.86357e-16 -2.13708 0.374047)
(-7.55049e-16 -1.13085 -0.0379942)
(-7.34165e-16 1.12131 0.318287)
(-7.28036e-16 1.78655 0.684141)
(-7.37578e-16 2.20756 0.525904)
(-8.0837e-16 1.74702 0.492601)
(-8.56516e-16 0.135683 0.628296)
(-8.46377e-16 -0.9765 0.610123)
(-8.46999e-16 -1.86348 0.503987)
(-8.47034e-16 -2.1335 0.289358)
(-8.4741e-16 -1.54225 -0.127798)
(-8.47496e-16 -0.559676 -0.0314612)
(-8.47188e-16 -0.844027 0.648869)
(-8.47029e-16 -1.22728 0.765787)
(-8.46971e-16 -0.109758 -0.516949)
(-8.46849e-16 -0.0123964 -0.850907)
(-8.46821e-16 -0.0125174 -0.835399)
(-8.46832e-16 -0.177638 -0.466408)
(-8.46922e-16 -0.24105 -0.685047)
(-8.47022e-16 -0.225188 -0.808252)
(-8.46306e-16 -0.234645 -0.750975)
(-8.45865e-16 -0.387704 -0.725681)
(-8.46016e-16 -0.283305 -0.839602)
(-8.46138e-16 -0.177035 -0.975636)
(-8.46132e-16 -0.0353115 -1.07011)
(-8.46358e-16 0.152582 -1.10467)
(-8.46398e-16 0.361427 -1.04405)
(-8.44334e-16 0.555326 -0.895275)
(-8.42165e-16 0.78409 -0.689798)
(-8.44292e-16 1.12103 -0.45972)
(-8.30325e-16 1.58966 -0.413671)
(-7.07241e-16 1.48868 -0.191811)
(-6.429e-16 -1.85472 -0.0763441)
(-4.92774e-16 -8.20016 -0.294789)
(-3.26949e-16 -8.22026 -0.265362)
(-2.21258e-16 -3.50809 -0.213124)
(-1.43632e-16 1.24774 0.0312182)
(-1.40839e-16 0.994703 0.477215)
(-1.41133e-16 -0.219329 0.207605)
(-1.40463e-16 0.24181 0.1022)
(-1.41012e-16 -1.57874 0.461987)
(-1.41526e-16 -2.21421 0.372119)
(-1.41127e-16 -2.04987 0.0793594)
(-1.38488e-16 -0.572105 -0.126199)
(-1.34549e-16 -0.582801 0.154817)
(-1.27894e-16 -1.34409 0.209451)
(-9.97558e-17 -1.01883 0.345179)
(-4.27957e-17 -0.530548 0.444738)
(-1.62378e-17 -0.803165 0.544967)
(-1.3181e-17 -1.22114 0.515451)
(-3.35754e-18 -1.44958 0.474225)
(2.6041e-17 -0.836707 0.429181)
(4.37774e-17 -0.344881 0.313355)
(3.41503e-17 0.843624 0.0381678)
(1.70733e-16 2.44773 0.198859)
(3.48492e-16 3.73329 0.148003)
(4.77183e-16 4.66721 0.144492)
(-9.0913e-16 -0.372081 0.381173)
(-9.10026e-16 -0.16647 0.22608)
(-9.11045e-16 -0.14482 0.180102)
(-9.114e-16 -0.228746 0.223444)
(-9.11188e-16 -0.492422 0.393803)
(-9.10488e-16 -0.89032 0.565043)
(-9.08847e-16 -1.21252 0.649279)
(-9.05441e-16 -1.12172 0.532311)
(-9.0094e-16 -0.190731 0.0163587)
(-8.99438e-16 0.994631 -0.179052)
(-8.99195e-16 0.557336 -0.0097364)
(-8.98111e-16 -0.290722 0.216942)
(-9.00776e-16 -1.35856 -7.62492e-05)
(-9.02359e-16 -0.603344 0.0841409)
(-9.01223e-16 -0.126131 -0.243983)
(-9.00666e-16 1.04395 0.00103293)
(-9.02323e-16 0.945557 -0.0857398)
(-9.1186e-16 0.683857 0.169927)
(-9.19923e-16 -0.807299 -0.0311709)
(-9.05619e-16 -4.48718 -0.126381)
(-8.55152e-16 -2.4535 -0.0749781)
(-8.16656e-16 -1.8544 -0.0573576)
(-7.86046e-16 -2.15954 0.3569)
(-7.54528e-16 -1.12494 -0.0501751)
(-7.38003e-16 1.06325 0.336737)
(-7.32015e-16 1.77489 0.674982)
(-7.38849e-16 2.19802 0.517363)
(-8.06332e-16 1.74707 0.479347)
(-8.56354e-16 0.153988 0.556401)
(-8.46355e-16 -0.969856 0.569888)
(-8.47e-16 -1.82892 0.462798)
(-8.47041e-16 -2.0687 0.246316)
(-8.47407e-16 -1.4902 -0.148579)
(-8.47511e-16 -0.553219 -0.111962)
(-8.47354e-16 -0.561705 0.409547)
(-8.47248e-16 -0.50757 0.0406892)
(-8.47048e-16 -0.00235188 -0.635185)
(-8.46867e-16 0.0514401 -0.865288)
(-8.46818e-16 -0.00964622 -0.843403)