/*--------------------------------*- C++ -*----------------------------------*\
| =========                 |                                                 |
| \\      /  F ield         | OpenFOAM: The Open Source CFD Toolbox           |
|  \\    /   O peration     | Version:  4.1                                   |
|   \\  /    A nd           | Web:      www.OpenFOAM.org                      |
|    \\/     M anipulation  |                                                 |
\*---------------------------------------------------------------------------*/
FoamFile
{
    version     2.0;
    format      ascii;
    class       volScalarField;
    location    "3";
    object      p;
}
// * * * * * * * * * * * * * * * * * * * * * * * * * * * * * * * * * * * * * //

dimensions      [0 2 -2 0 0 0 0];

internalField   nonuniform List<scalar> 
6785
(
540.427
487.034
435.196
386.772
341.863
299.826
260.45
223.423
188.306
154.919
123.951
95.7911
66.7505
31.8224
2.64272
74.0379
51.736
45.8385
42.0422
36.5342
30.788
25.5903
21.1699
17.667
15.1993
14.0053
14.5112
16.6145
18.4984
18.7339
-30.5753
-37.3066
-31.4845
-27.1982
-23.9957
-20.3164
-16.3253
-12.2644
-8.23667
-4.4252
-1.01031
2.17563
5.40244
8.11258
9.31492
15.5982
13.2876
18.2324
18.7321
18.8677
19.1515
19.129
18.7875
18.2172
17.4275
16.3805
15.1435
14.2364
14.1957
14.5458
34.2804
32.1207
33.7632
31.484
29.8893
28.4867
26.9026
25.3202
23.8695
22.6106
21.559
20.7008
20.1637
20.1886
20.4832
25.9241
23.8242
24.5121
22.8596
22.4333
22.284
22.0562
21.9721
22.0675
22.329
22.7191
23.1694
23.5548
23.8707
24.0687
20.6874
19.3029
20.1519
19.7236
20.2523
20.8289
21.2761
21.7979
22.357
22.8979
23.4049
23.8378
24.1409
24.3007
24.3579
22.1165
21.5164
22.4954
22.5739
23.1348
23.5188
23.7515
24.0028
24.2231
24.3662
24.4462
24.4952
24.4743
24.4089
24.3513
24.1631
23.9686
24.7141
24.7027
24.8806
24.8455
24.722
24.6314
24.5102
24.3326
24.1335
23.9385
23.7829
23.6773
23.6256
24.2506
24.1607
24.5782
24.399
24.3166
24.103
23.8884
23.7328
23.5669
23.3906
23.2245
23.097
22.9841
22.8873
22.8112
22.9578
22.8278
22.9689
22.6882
22.5063
22.2805
22.0988
21.9655
21.8174
21.6684
21.5388
21.4276
21.3425
21.2605
21.162
20.9342
20.7952
20.7613
20.4303
20.2269
20.0493
19.9321
19.8427
19.737
19.6403
19.5594
19.4957
19.4135
19.303
19.1475
20.8159
20.574
20.2484
19.7125
19.3353
19.0003
18.7032
18.4175
18.1221
17.8513
17.61
17.3905
17.199
17.0291
16.8306
17.6481
18.0112
18.2296
17.9477
17.5357
17.1062
16.7182
16.3449
15.9657
15.5933
15.2237
14.8491
14.4733
14.1115
13.7271
34.382
33.8695
32.9436
30.3458
26.814
23.3182
20.1123
17.2055
14.5319
12.2345
10.2683
8.61157
7.28165
6.29003
5.41305
36.0915
35.3626
35.6518
34.9868
34.476
33.3536
33.4825
32.4512
31.6718
30.7048
30.9857
29.5308
27.8143
28.6984
27.4469
26.3056
26.0083
27.0749
25.2458
23.8424
25.5962
24.3583
23.1032
23.4654
25.4324
23.9909
22.6781
23.1922
25.5662
24.1538
23.2396
25.6444
24.8548
23.855
24.2585
26.5338
25.5388
24.8176
26.9623
26.5084
25.8274
26.0855
27.9058
27.4307
26.8502
27.0394
28.6125
28.2406
27.8793
28.9245
28.7565
28.544
28.7968
29.795
29.6771
29.5291
29.7878
30.9901
31.0538
31.033
32.3654
32.559
32.4296
32.305
33.0838
33.1746
33.1011
33.1824
32.9032
33.3724
33.641
30.7652
29.8286
29.9231
26.7877
21.0402
22.8591
15.9482
-1.19547
4.64164
8.56169
8.85797
9.54359
4.75553
7.1652
10.5172
11.3694
11.6502
11.5546
12.1133
13.9006
15.5018
16.7845
11.3621
11.9852
13.8255
15.299
15.4624
15.7005
15.8182
16.2949
20.0691
16.9489
17.1656
17.0263
17.6392
18.888
19.5892
19.556
19.1384
18.778
23.6848
21.764
21.5653
20.9309
20.5222
21.3051
22.1435
21.2476
19.6119
22.7088
24.0494
24.6276
24.4359
23.4029
22.4369
21.4682
20.5783
19.746
26.0377
25.2202
23.0794
22.1737
21.3213
20.0061
18.0273
15.0228
12.957
18.6364
20.2839
17.2918
15.0995
12.259
8.79445
6.30333
4.62709
2.93604
2.66069
3.08281
6.10009
4.08007
3.70251
3.18611
1.40614
-1.20794
-1.5047
0.0845645
-3.20637
4.37273
3.80107
3.49746
5.79116
6.20514
6.82762
7.26098
7.7471
8.06359
7.99305
8.2525
8.37663
8.28671
8.22788
8.10487
8.12037
8.0002
7.90233
7.76883
7.53969
7.45096
7.21878
7.24333
7.15018
6.84492
6.95072
6.80771
6.54479
6.45209
6.22224
6.52098
6.36497
6.06571
5.95512
5.72178
6.1312
5.96862
5.52302
5.93823
5.69059
5.28073
5.13948
4.90293
5.44876
5.12617
4.66703
4.53932
4.32819
4.93238
4.58995
3.97482
4.6254
4.27323
3.72948
3.58087
3.35982
4.12235
3.58539
2.97225
2.90821
2.79669
3.65997
3.04049
2.09311
3.08684
2.62451
1.90055
1.76191
1.55796
2.70874
1.81163
0.83389
0.803684
0.777503
2.16694
1.13077
-0.419188
1.13659
0.345157
-0.787232
-1.02423
-0.992738
0.00917342
-0.0116018
-0.0031137
-0.0026921
-0.00155986
-0.00118802
-0.000632109
3.18439e-05
0.000352676
0.000652185
0.000942474
0.00136518
0.00242134
0.00322615
0.00362563
0.00352991
0.00391463
0.00480587
0.00500798
0.00504002
0.00501544
0.00578638
0.00692414
0.00744035
0.00659654
0.0053815
0.00537509
0.0056822
0.00333915
-0.00177544
-0.00790726
-0.0166325
-0.0280803
-0.0367514
-0.034482
-0.0161642
0.0129132
0.0416129
0.0552507
0.0313453
-0.0581961
-0.175933
-0.261882
-0.393161
-0.799471
-1.43695
-1.93635
-2.08173
-1.07182
-0.0403886
0.111359
0.109982
0.0346891
-0.286863
-0.956431
-0.531246
-0.0393788
0.151598
0.0518259
0.0784513
0.0723081
0.0981341
0.131903
0.069104
-0.255376
-0.780381
-0.764797
-0.600492
-0.306352
-0.0892828
0.0330161
0.0687511
0.0718243
0.0517668
0.073992
0.10009
0.125394
0.146781
0.148991
0.0389447
-0.00977074
0.00533978
0.00377388
0.00474321
0.00415848
0.00457307
0.00509292
0.00465743
0.0047885
0.00494908
0.00623911
0.00864458
0.00941001
0.00964619
0.00897047
0.0113155
0.0140696
0.0140531
0.014685
0.0158479
0.0196539
0.0222305
0.0230145
0.0220342
0.0230554
0.0272477
0.0296851
0.0265281
0.0243256
0.0243217
0.0202374
0.0148669
0.00983914
0.0112293
0.0223195
0.0442222
0.0802267
0.134889
0.171937
0.103856
-0.0824395
-0.311393
-0.60805
-1.15295
-1.87351
-2.46987
-2.57007
-1.21113
0.0648484
0.295322
0.264378
0.0946421
0.143469
-1.08222
-0.563347
-0.0782601
0.186568
0.153844
0.213581
0.194004
0.190793
0.221395
0.152917
-0.199359
-0.775332
-0.748359
-0.631742
-0.322243
-0.0896525
0.0685613
0.139876
0.175255
0.158291
0.219426
0.302516
0.366237
0.405852
0.377015
0.038691
-0.0205398
-0.000610623
-0.0017534
0.000358898
0.00167689
0.00376634
0.00509171
0.00415572
0.00328045
0.00448418
0.00782059
0.0117587
0.0125864
0.0121511
0.0126861
0.0167416
0.0204067
0.0191663
0.0188624
0.0235431
0.0305389
0.0331163
0.0326437
0.03331
0.0378092
0.0462104
0.0509258
0.047041
0.0449465
0.0495397
0.0499562
0.0450281
0.0442351
0.0525249
0.0691142
0.0924711
0.131959
0.191181
0.239334
0.178057
-0.00886905
-0.253028
-0.572579
-1.08193
-1.64338
-2.03987
-1.98411
-0.778887
0.269412
0.457464
0.401324
0.215554
0.388898
-0.602818
-0.37754
-0.00872728
0.182524
0.235851
0.348241
0.306262
0.274037
0.289401
0.253008
0.0645214
-0.345289
-0.325716
-0.318369
-0.130633
0.0338042
0.154584
0.22665
0.27819
0.277563
0.366103
0.492296
0.599803
0.681172
0.676411
0.042997
-0.0224901
0.000363563
-0.000989038
0.00118528
0.00311452
0.00630581
0.00845364
0.00737052
0.00532483
0.00610292
0.0106075
0.0156181
0.0171473
0.0160501
0.0180422
0.0238472
0.0288821
0.0276706
0.0262457
0.0332998
0.0426173
0.0461843
0.0447131
0.0459054
0.052683
0.0653601
0.0741925
0.0721767
0.0693856
0.0731983
0.0761219
0.0709451
0.0703872
0.0805451
0.103948
0.137341
0.188126
0.245068
0.275867
0.197053
0.0173793
-0.193081
-0.453499
-0.864174
-1.28451
-1.50921
-1.35612
-0.339113
0.466774
0.592115
0.519242
0.361788
0.656047
-0.158689
-0.243204
0.0612952
0.169276
0.30386
0.475861
0.410496
0.352794
0.360536
0.361404
0.310203
0.0179268
0.0662244
0.0321454
0.127782
0.204476
0.303146
0.347244
0.392413
0.411225
0.521819
0.687744
0.836022
0.950681
0.934133
0.0460485
-0.0230737
0.00126718
-0.000244027
0.00219778
0.00378725
0.00735125
0.0103369
0.00988092
0.00774505
0.00778794
0.0124403
0.0181156
0.0206594
0.0197999
0.0219325
0.0283422
0.0343798
0.0350601
0.0350421
0.0429318
0.054085
0.059828
0.0593261
0.0600191
0.0678639
0.0831201
0.0954914
0.0973174
0.0952776
0.097658
0.101898
0.0996308
0.0978005
0.10926
0.140246
0.187111
0.245317
0.296078
0.302045
0.211216
0.0435092
-0.127857
-0.321831
-0.634308
-0.961049
-1.08322
-0.919829
-0.037292
0.618077
0.704577
0.627622
0.535439
0.96308
0.0637641
-0.156859
0.113949
0.150998
0.366875
0.594099
0.507839
0.424647
0.418574
0.45096
0.480272
0.278541
0.361204
0.323882
0.373867
0.405376
0.472818
0.481153
0.517501
0.549335
0.681819
0.883189
1.06884
1.20487
1.21412
0.0460319
-0.0234948
0.000824109
-0.000654295
0.00258188
0.00418009
0.00782021
0.0108421
0.0110336
0.00947385
0.00964991
0.0142338
0.0201572
0.0234619
0.0239603
0.0263821
0.0325489
0.0382465
0.0404495
0.0430763
0.0518353
0.0640493
0.0717661
0.0736262
0.0749838
0.0834331
0.0990139
0.112737
0.118041
0.117693
0.119953
0.125281
0.128362
0.129746
0.145305
0.183405
0.241365
0.302568
0.343649
0.328369
0.235235
0.0891138
-0.0440962
-0.185482
-0.417849
-0.664897
-0.71377
-0.586097
0.172116
0.731951
0.802677
0.730846
0.722722
1.28186
0.211495
-0.0824998
0.15787
0.135128
0.429911
0.707349
0.601994
0.492767
0.474004
0.524729
0.616458
0.518338
0.63208
0.598767
0.612879
0.620322
0.635321
0.618195
0.652256
0.695999
0.851478
1.08531
1.30328
1.45858
1.45155
0.044764
-0.0226622
0.000675406
-0.000808123
0.0032673
0.00524162
0.00897399
0.0116079
0.0118068
0.0108903
0.0117598
0.0165293
0.0222896
0.0258244
0.0278569
0.0315713
0.0378731
0.0428572
0.0457727
0.0508618
0.0611778
0.0740403
0.0830334
0.0874223
0.0910862
0.100622
0.115537
0.128796
0.136084
0.137831
0.140995
0.147484
0.156282
0.165694
0.188006
0.231981
0.296198
0.358799
0.390494
0.361018
0.268419
0.147315
0.0502728
-0.0455345
-0.210371
-0.379948
-0.372495
-0.28934
0.345813
0.828264
0.891361
0.828569
0.914029
1.60418
0.408765
-0.0115135
0.198983
0.125031
0.490422
0.812831
0.687985
0.553388
0.525257
0.590335
0.74754
0.759322
0.911328
0.882559
0.855515
0.825785
0.790666
0.759065
0.793791
0.850597
1.02694
1.28976
1.53486
1.70755
1.68755
0.042715
-0.0212751
0.00083472
-0.000732525
0.0039388
0.00656468
0.0104321
0.0128399
0.0127443
0.012284
0.0138941
0.0190244
0.0244068
0.0277122
0.0306446
0.0357452
0.0425325
0.047165
0.050527
0.0573804
0.0693305
0.0828435
0.0926914
0.0991437
0.105698
0.117092
0.131731
0.144087
0.152362
0.156559
0.16175
0.170237
0.184429
0.203332
0.234311
0.283865
0.35039
0.411845
0.435858
0.398087
0.307009
0.207032
0.142824
0.093213
-0.00796029
-0.109807
-0.0640458
-0.0152615
0.511264
0.921224
0.974789
0.921356
1.10677
1.92661
0.660756
0.0596238
0.245697
0.129462
0.555569
0.915968
0.771408
0.614142
0.578769
0.660988
0.886832
0.999428
1.19551
1.17136
1.10282
1.02474
0.954109
0.911515
0.946876
1.01792
1.21247
1.50163
1.76738
1.9421
1.94403
0.0405023
-0.0197462
0.00126661
-0.000225649
0.00462421
0.00785739
0.0119499
0.0143147
0.0141632
0.0140921
0.0164728
0.0220565
0.0271708
0.0301975
0.0334559
0.0393663
0.0465042
0.051057
0.0548139
0.0626777
0.0756591
0.0896361
0.0999807
0.107823
0.116859
0.130335
0.14541
0.157326
0.166351
0.173198
0.181585
0.19346
0.213044
0.241003
0.281547
0.336931
0.403153
0.459583
0.476343
0.434026
0.346374
0.26208
0.226844
0.224535
0.185044
0.135657
0.205052
0.236884
0.673707
1.01351
1.05317
1.00939
1.2952
2.23298
0.923951
0.134124
0.301709
0.150073
0.625071
1.01282
0.849092
0.67221
0.631844
0.734533
1.02664
1.22665
1.46288
1.44262
1.34151
1.22189
1.12641
1.07347
1.10921
1.19355
1.4033
1.71557
1.99682
2.17194
2.16293
0.0383339
-0.018271
0.00167196
0.000310341
0.00528961
0.00884178
0.0132213
0.0155758
0.0156797
0.0160611
0.0193222
0.0254193
0.0306088
0.0336218
0.0370771
0.043395
0.0506642
0.0552619
0.0594051
0.0677192
0.0810072
0.0950121
0.105447
0.114013
0.124673
0.139878
0.155786
0.167932
0.178064
0.187818
0.200318
0.2169
0.242467
0.27882
0.328417
0.388836
0.45274
0.500961
0.509905
0.465337
0.384064
0.313444
0.304619
0.348919
0.367718
0.358442
0.443902
0.473638
0.834932
1.10479
1.1284
1.09457
1.47929
2.51539
1.17287
0.217484
0.375537
0.19578
0.70778
1.1117
0.928152
0.732762
0.690238
0.815262
1.16697
1.44182
1.70885
1.69263
1.5712
1.42394
1.30735
1.24548
1.28268
1.38057
1.60353
1.93559
2.2269
2.40104
2.38441
0.0363436
-0.0169196
0.002186
0.000843217
0.00587641
0.00955938
0.0140463
0.0164761
0.0169367
0.0178508
0.0219175
0.0285218
0.0340688
0.0374104
0.0412488
0.0479393
0.0553702
0.0602705
0.0649529
0.0735196
0.0867058
0.100388
0.110671
0.119603
0.131216
0.147588
0.16431
0.177277
0.18902
0.202004
0.219037
0.241168
0.273265
0.317501
0.374662
0.438279
0.497952
0.536283
0.537045
0.491792
0.419383
0.363791
0.380819
0.469272
0.541178
0.566554
0.666197
0.700612
0.993831
1.19302
1.19988
1.17524
1.65401
2.76636
1.40316
0.310717
0.466926
0.266505
0.802513
1.21062
1.00504
0.791869
0.749762
0.899428
1.30601
1.6431
1.93026
1.92048
1.78929
1.62511
1.48998
1.42271
1.46239
1.57403
1.80791
2.15542
2.4524
2.61981
2.60694
0.0345357
-0.0157822
0.00254848
0.00133692
0.0062643
0.0100658
0.014418
0.0169956
0.0177813
0.0192783
0.0238699
0.0308472
0.0367431
0.0406017
0.045021
0.0521123
0.0598316
0.065344
0.0708067
0.0797087
0.0927105
0.105995
0.116214
0.125514
0.137818
0.154955
0.17251
0.18684
0.200788
0.217451
0.239134
0.267113
0.305814
0.356911
0.419374
0.483643
0.53735
0.565496
0.558837
0.51451
0.453142
0.415942
0.460771
0.591242
0.711422
0.770882
0.883998
0.920303
1.14794
1.2782
1.26988
1.25362
1.82127
2.98949
1.62407
0.424935
0.582254
0.369633
0.918842
1.31778
1.08695
0.855987
0.815446
0.992112
1.45329
1.84297
2.14099
2.14017
2.00284
1.82629
1.67593
1.60645
1.64938
1.77653
2.02038
2.37895
2.67674
2.83746
2.80685
0.0329823
-0.0145774
0.00301245
0.00197979
0.0067602
0.0105172
0.0147336
0.0174187
0.0185571
0.020554
0.0254115
0.032544
0.0386275
0.0430112
0.0480493
0.0555244
0.0635881
0.0698988
0.0763607
0.0858191
0.0987714
0.111826
0.122318
0.132247
0.145426
0.163263
0.181858
0.198022
0.2147
0.235253
0.261585
0.295298
0.340065
0.396559
0.461727
0.523988
0.570256
0.588744
0.576208
0.534489
0.485487
0.470128
0.546075
0.716676
0.880485
0.974605
1.09932
1.12863
1.29065
1.35905
1.33805
1.3307
1.97868
3.18496
1.83952
0.563085
0.716535
0.500138
1.05396
1.42901
1.17003
0.922338
0.882537
1.08818
1.60422
2.04019
2.34467
2.3527
2.20864
2.02199
1.86097
1.79152
1.83805
1.98211
2.23494
2.59946
2.89376
3.0423
3.01712
0.0314516
-0.0135114
0.00347061
0.00255206
0.00733505
0.0108976
0.0150911
0.0178473
0.0194527
0.0218086
0.0267712
0.0338155
0.0399569
0.0447497
0.0502889
0.0580235
0.0663361
0.0734117
0.0809374
0.0911207
0.104239
0.117391
0.128568
0.139567
0.154062
0.172906
0.192941
0.211494
0.231452
0.255954
0.286861
0.325783
0.375457
0.435243
0.500275
0.557943
0.595989
0.606191
0.589844
0.552423
0.517226
0.527304
0.638251
0.847957
1.05122
1.17939
1.31163
1.32383
1.42092
1.43852
1.4076
1.40863
2.13011
3.35975
2.0541
0.730404
0.875017
0.662779
1.21563
1.55197
1.26084
0.997708
0.958551
1.19418
1.76192
2.24024
2.55152
2.56377
2.41153
2.21644
2.04812
1.97883
2.02973
2.19289
2.45486
2.82072
3.10729
3.24547
3.20436
0.0300629
-0.0124537
0.00400297
0.00322948
0.00793865
0.0113937
0.0155535
0.0185014
0.0205768
0.0232699
0.0282825
0.0351144
0.0412844
0.0463937
0.0523233
0.060183
0.0685658
0.0762433
0.0847621
0.0956893
0.109153
0.1227
0.134855
0.147418
0.163738
0.184079
0.205958
0.227408
0.251079
0.279573
0.314867
0.358303
0.411494
0.472416
0.534746
0.585709
0.615336
0.618889
0.60069
0.56888
0.548804
0.587429
0.73618
0.983431
1.22131
1.38053
1.51626
1.50399
1.5401
1.51734
1.47797
1.48545
2.27277
3.51406
2.26332
0.915608
1.0506
0.848986
1.3954
1.68094
1.3544
1.07826
1.04056
1.30584
1.91812
2.43584
2.75506
2.76598
2.60648
2.40467
2.23127
2.16237
2.21871
2.4026
2.67347
3.03573
3.31109
3.44244
3.39398
0.0287345
-0.0115084
0.00429904
0.00380341
0.00834905
0.0118438
0.0159849
0.0192733
0.0217647
0.0248226
0.0298334
0.036478
0.0427075
0.048112
0.0543912
0.0622906
0.0706179
0.0787421
0.0881015
0.0996732
0.113625
0.127732
0.141014
0.155513
0.174033
0.196389
0.220546
0.245298
0.272988
0.305557
0.344868
0.391879
0.447074
0.506988
0.564509
0.60757
0.629436
0.628196
0.610036
0.585155
0.5824
0.652681
0.841002
1.12419
1.39196
1.57649
1.71294
1.67494
1.65413
1.59798
1.55193
1.56262
2.40917
3.65337
2.46805
1.11747
1.24732
1.06229
1.59824
1.82275
1.4564
1.17006
1.13691
1.43137
2.08162
2.6336
2.9591
2.96505
2.7989
2.59058
2.41176
2.34374
2.40707
2.61315
2.89395
3.24865
3.50907
3.63026
3.59534
0.0274867
-0.0105507
0.00458863
0.00429296
0.0087518
0.0122525
0.016486
0.0201023
0.0230202
0.0264745
0.0314822
0.0380386
0.0444289
0.0502066
0.0568746
0.0648435
0.0731152
0.0816053
0.0916365
0.103769
0.11831
0.132989
0.147441
0.164002
0.18483
0.209504
0.236192
0.264428
0.296229
0.332862
0.375804
0.425491
0.481342
0.538602
0.589933
0.624862
0.64008
0.635672
0.619094
0.602561
0.619535
0.723578
0.951509
1.26787
1.56055
1.76403
1.90091
1.83937
1.76514
1.67894
1.62771
1.63898
2.53844
3.77668
2.66232
1.33562
1.45927
1.29166
1.81322
1.96989
1.5614
1.26809
1.24274
1.56627
2.2483
2.82693
3.15417
3.15338
2.98149
2.76665
2.58299
2.51789
2.59018
2.81785
3.10937
3.45299
3.69569
3.81153
3.77208
0.0262338
-0.00983349
0.00477367
0.0045402
0.00906228
0.0125546
0.0169653
0.0208254
0.0241497
0.0278942
0.0329644
0.0395559
0.0462202
0.0524834
0.0596083
0.0677527
0.0760939
0.0849656
0.0955816
0.108332
0.123474
0.138765
0.154418
0.172971
0.196014
0.223034
0.252283
0.283933
0.319665
0.360033
0.405982
0.457274
0.512472
0.565898
0.610599
0.638298
0.648549
0.642711
0.629368
0.623361
0.66333
0.802984
1.06981
1.41623
1.73019
1.94708
2.08369
2.00019
1.87667
1.76239
1.70758
1.71585
2.66649
3.88987
2.84768
1.57866
1.69271
1.54112
2.04328
2.12696
1.67536
1.37762
1.36553
1.72007
2.4275
3.02382
3.34668
3.33713
3.15821
2.9367
2.74923
2.68781
2.77146
3.01807
3.32241
3.65323
3.87585
3.98877
3.95139
0.0251562
-0.00921551
0.00496033
0.00478112
0.00937395
0.0129405
0.0175013
0.0215816
0.0252603
0.0291696
0.0343669
0.0411251
0.04816
0.0550026
0.0626526
0.0711018
0.0796868
0.0890146
0.100258
0.11376
0.129444
0.145413
0.162313
0.182677
0.207746
0.23688
0.268508
0.303254
0.342423
0.385899
0.434115
0.485991
0.539411
0.588412
0.626851
0.64879
0.65579
0.650136
0.641757
0.64891
0.714794
0.890925
1.19473
1.56714
1.89885
2.12446
2.25949
2.15636
1.98904
1.84714
1.78763
1.79417
2.78829
3.99106
3.01767
1.83421
1.93548
1.79741
2.27424
2.28252
1.79142
1.49233
1.4975
1.88442
2.61073
3.21563
3.52816
3.50845
3.32066
3.09417
2.90612
2.84863
2.94615
3.2074
3.52544
3.84284
4.04414
4.15336
4.12655
0.0242366
-0.00867167
0.00505246
0.00500858
0.00966138
0.0133779
0.0179864
0.022267
0.0261729
0.0302018
0.0355698
0.0425624
0.0499876
0.0574067
0.0656073
0.0745003
0.0835515
0.0934309
0.105472
0.119812
0.13607
0.152817
0.17106
0.19308
0.219909
0.250776
0.284487
0.321757
0.363541
0.409162
0.458585
0.509916
0.560671
0.605203
0.638578
0.656727
0.662413
0.658769
0.657631
0.681327
0.776329
0.989905
1.32861
1.72298
2.06877
2.30049
2.4316
2.31136
2.10582
1.93574
1.87022
1.87654
2.90195
4.07564
3.17495
2.10095
2.18638
2.06178
2.50575
2.43478
1.91249
1.61711
1.64441
2.06532
2.80366
3.40985
3.70701
3.67437
3.47541
3.24555
3.05809
3.00523
3.11757
3.38829
3.72029
4.02526
4.20533
4.31194
4.2804
0.0234416
-0.00808179
0.00520065
0.00536284
0.0101084
0.0140195
0.0186264
0.0230821
0.027109
0.0313001
0.0368737
0.0440959
0.051858
0.0597845
0.068547
0.0780164
0.0876114
0.0980904
0.111144
0.126315
0.143227
0.160871
0.180542
0.204145
0.232442
0.264639
0.300063
0.3392
0.382678
0.429416
0.478951
0.52879
0.57637
0.616817
0.646552
0.662754
0.668803
0.66891
0.677453
0.720895
0.847263
1.09816
1.46868
1.88077
2.23669
2.47452
2.59921
2.46349
2.22503
2.02653
1.95445
1.96021
2.99997
4.12996
3.3143
2.36651
2.43682
2.32353
2.72233
2.57058
2.03045
1.74429
1.79715
2.25201
2.99564
3.59635
3.87432
3.82667
3.61795
3.38574
3.19945
3.15414
3.28023
3.55573
3.89988
4.19346
4.35373
4.45681
4.43301
0.0226708
-0.00753135
0.00535974
0.00568475
0.0105663
0.0146132
0.019245
0.0238607
0.028025
0.0324481
0.0382086
0.0455755
0.0535677
0.0619238
0.0713079
0.0814045
0.0914676
0.102677
0.116828
0.132812
0.150428
0.169087
0.190215
0.215332
0.244795
0.277958
0.314617
0.354941
0.399178
0.445973
0.494559
0.54224
0.586645
0.623822
0.651535
0.667623
0.675748
0.681665
0.702875
0.769412
0.929273
1.2171
1.61646
2.04341
2.40619
2.64929
2.76555
2.61541
2.34797
2.12244
2.04405
2.04724
3.08665
4.15781
3.44144
2.63908
2.69451
2.58588
2.9224
2.69169
2.14804
1.87709
1.96087
2.45021
3.19563
3.78374
4.03742
3.97383
3.75692
3.52251
3.33686
3.29984
3.43685
3.71339
4.06711
4.34993
4.49347
4.59381
4.56517
0.021959
-0.00698586
0.00567334
0.0061192
0.0111619
0.0152607
0.0199546
0.024736
0.0291975
0.0339352
0.0397979
0.047176
0.0553
0.0640808
0.0741783
0.0847469
0.0951242
0.107227
0.12238
0.139172
0.157489
0.177176
0.199708
0.226226
0.256597
0.290449
0.327849
0.368824
0.413094
0.459093
0.506058
0.551387
0.593017
0.627832
0.654747
0.672012
0.683681
0.697449
0.734131
0.826326
1.02047
1.34335
1.76797
2.20709
2.57348
2.82075
2.92784
2.7645
2.47099
2.22082
2.13615
2.13678
3.16029
4.16171
3.5539
2.90658
2.94613
2.83673
3.09679
2.79474
2.25889
2.00762
2.12504
2.64781
3.39308
3.96187
4.18783
4.10978
3.88509
3.6493
3.46542
3.43625
3.58214
3.85775
4.2165
4.48854
4.61917
4.71729
4.69132
0.0213356
-0.00657956
0.00585964
0.00640203
0.0115924
0.0157351
0.0205779
0.0255898
0.0305075
0.0355545
0.0413656
0.0486265
0.0568832
0.0661903
0.0769644
0.087744
0.0984123
0.111433
0.127473
0.145026
0.163961
0.18454
0.208321
0.236062
0.267089
0.301329
0.338959
0.380118
0.423919
0.468586
0.51371
0.556958
0.596631
0.630168
0.657396
0.677047
0.694009
0.718073
0.773109
0.89323
1.12209
1.47802
1.92498
2.37358
2.74184
2.99148
3.0897
2.91463
2.59678
2.32415
2.23396
2.23169
3.22895
4.14966
3.65879
3.16546
3.18756
3.07736
3.24991
2.88537
2.36532
2.13974
2.29396
2.84788
3.59
4.13449
4.33357
4.24318
4.01045
3.7727
3.5904
3.5672
3.72055
3.99377
4.35098
4.61215
4.73442
4.82755
4.81114
0.0208512
-0.00611674
0.00605899
0.00668803
0.0119147
0.0161663
0.021288
0.0266643
0.0320902
0.0373401
0.0429686
0.0500801
0.0585928
0.0685054
0.0797258
0.0905205
0.101527
0.115263
0.1321
0.1503
0.169742
0.190974
0.215756
0.244527
0.276017
0.31036
0.34787
0.388908
0.432043
0.475276
0.518791
0.560531
0.59913
0.632312
0.660606
0.683626
0.707553
0.744066
0.819519
0.968624
1.23119
1.61704
2.08295
2.53784
2.90725
3.15702
3.24815
3.06272
2.72307
2.43019
2.33417
2.32912
3.28788
4.12089
3.75286
3.40111
3.41189
3.30034
3.37694
2.96169
2.4624
2.26602
2.45758
3.03827
3.77723
4.29786
4.46913
4.36351
4.12378
3.88554
3.70557
3.68792
3.84762
4.1183
4.46669
4.71741
4.83485
4.92353
4.90364
0.0203682
-0.00578329
0.00606498
0.00680615
0.0119934
0.0164413
0.0219308
0.0277273
0.0335416
0.0388909
0.0443596
0.0513665
0.0602794
0.0707401
0.082146
0.0929103
0.104286
0.118489
0.135999
0.154692
0.174505
0.196107
0.221541
0.251093
0.282874
0.317046
0.354206
0.394938
0.437498
0.479587
0.521983
0.56297
0.601495
0.635353
0.665678
0.69341
0.726299
0.777577
0.875327
1.05412
1.34898
1.76167
2.2437
2.70265
3.07332
3.32066
3.40655
3.21121
2.85289
2.54195
2.43974
2.4326
3.34152
4.08127
3.84324
3.62719
3.63158
3.50774
3.48154
3.02829
2.55417
2.39063
2.62345
3.23354
3.9773
4.4749
4.60925
4.48037
4.23378
3.99592
3.81777
3.80476
3.96855
4.23626
4.56912
4.80828
4.92272
5.0071
4.99258
0.0198864
-0.00555436
0.00597015
0.00685393
0.0120768
0.0168345
0.0226734
0.0288037
0.0348776
0.0403958
0.0457901
0.052715
0.062064
0.0729193
0.0843342
0.0951253
0.106753
0.121253
0.139261
0.158333
0.178383
0.200108
0.22585
0.255942
0.287943
0.321833
0.358555
0.398948
0.441193
0.482629
0.524502
0.565439
0.604676
0.640107
0.673419
0.707115
0.750581
0.818318
0.939399
1.14746
1.472
1.9079
2.40306
2.86459
3.23612
3.47949
3.56069
3.35564
2.98203
2.65658
2.5466
2.539
3.38763
4.03386
3.92695
3.83632
3.83472
3.68934
3.56142
3.08322
2.63708
2.50667
2.78208
3.42484
4.17995
4.6559
4.74849
4.58748
4.33604
4.09751
3.92258
3.91356
4.08052
4.34429
4.65826
4.88437
4.99529
5.0737
5.07149
0.019349
-0.00552238
0.00572998
0.00669735
0.012051
0.017151
0.0232079
0.0295339
0.0358932
0.0416927
0.0470103
0.0539324
0.0636293
0.0747441
0.0860809
0.0970322
0.108765
0.123455
0.14178
0.161201
0.181384
0.203035
0.228767
0.259142
0.291356
0.324984
0.361234
0.401339
0.443607
0.485008
0.527028
0.568639
0.609397
0.647505
0.685176
0.726372
0.782165
0.868129
1.0135
1.25012
1.60174
2.05759
2.56305
3.0273
3.39843
3.63709
3.71325
3.49997
3.11443
2.77687
2.65827
2.65043
3.43293
3.98715
4.00929
4.02929
4.01682
3.84369
3.61904
3.128
2.71206
2.61489
2.93158
3.61009
4.38042
4.83799
4.89197
4.69527
4.43756
4.19626
4.02827
4.02149
4.19026
4.44642
4.73744
4.95136
5.05744
5.13
5.12989
0.0187652
-0.00560542
0.00556075
0.00664162
0.012163
0.0174824
0.0236013
0.030131
0.0369355
0.0429625
0.0481947
0.0552386
0.0651079
0.0763608
0.087644
0.0988328
0.110589
0.125353
0.143865
0.163668
0.183949
0.205438
0.23096
0.261392
0.293834
0.327297
0.363175
0.403104
0.445672
0.487625
0.530389
0.573221
0.616118
0.657839
0.701124
0.751085
0.820496
0.925769
1.09561
1.3591
1.73458
2.20652
2.7191
3.18573
3.55528
3.78962
3.86008
3.64123
3.24695
2.89899
2.77075
2.76325
3.47323
3.94074
4.08502
4.19154
4.16935
3.96503
3.65336
3.16036
2.77365
2.70575
3.05737
3.77373
4.55963
4.99938
5.02202
4.79349
4.52757
4.28237
4.12707
4.1239
4.29395
4.54041
4.80594
5.00974
5.10829
5.17492
5.18253
0.0181085
-0.00580876
0.00535194
0.00660413
0.0122025
0.0175049
0.023639
0.0305328
0.0377912
0.0438849
0.0491953
0.0564015
0.0663095
0.0775809
0.0889767
0.10038
0.112185
0.126948
0.145589
0.165814
0.186211
0.207552
0.232766
0.263067
0.295755
0.329194
0.364875
0.40474
0.447826
0.490912
0.534995
0.579636
0.625402
0.671792
0.722157
0.782394
0.866876
0.992496
1.1869
1.47564
1.87226
2.35695
2.87448
3.34229
3.71034
3.94136
4.00541
3.78359
3.38316
3.02649
2.88833
2.88044
3.51552
3.9035
4.15914
4.33098
4.30208
4.05237
3.66952
3.18229
2.82324
2.78224
3.16388
3.91771
4.71727
5.14468
5.14558
4.88981
4.60872
4.36203
4.22145
4.22457
4.39616
4.63266
4.87137
5.06205
5.15325
5.21649
5.22403
0.0174184
-0.00580477
0.00531385
0.00672204
0.0122476
0.0173986
0.0236687
0.0310397
0.0385498
0.0446964
0.0502826
0.0575743
0.0674456
0.0786829
0.0903564
0.101916
0.113811
0.128515
0.147285
0.16795
0.188534
0.209816
0.234718
0.264782
0.297756
0.331382
0.367076
0.406957
0.450639
0.495263
0.541108
0.58806
0.637267
0.689115
0.747718
0.819365
0.919751
1.06597
1.28423
1.59613
2.01084
2.50494
3.02525
3.49326
3.86026
4.08862
4.14591
3.92213
3.51788
3.15545
3.00859
2.99802
3.55943
3.87531
4.22614
4.4524
4.41344
4.10363
3.67225
3.19203
2.85934
2.8425
3.25044
4.02739
4.83538
5.26943
5.25499
4.96978
4.67048
4.42994
4.30404
4.31576
4.49126
4.7212
4.93658
5.10872
5.19344
5.25575
5.27158
0.016703
-0.00556618
0.00531112
0.006699
0.0120115
0.017052
0.0236211
0.0313587
0.0389031
0.0452668
0.0511794
0.0585062
0.0682826
0.0795731
0.0915684
0.103307
0.115327
0.129966
0.148922
0.170059
0.190932
0.212261
0.236885
0.266689
0.300007
0.334063
0.370003
0.409989
0.454381
0.500884
0.548954
0.598825
0.652172
0.710383
0.778481
0.862799
0.979931
1.14703
1.38839
1.72164
2.15204
2.6537
3.17552
3.64306
4.00924
4.23547
4.28604
4.06065
3.65433
3.28894
3.1346
3.11859
3.61233
3.85982
4.28921
4.55821
4.50031
4.12624
3.66763
3.19198
2.88645
2.89352
3.31765
4.0956
4.92081
5.38118
5.35562
5.03786
4.72609
4.49545
4.3792
4.40233
4.58482
4.81046
5.00475
5.15391
5.23452
5.29836
5.32859
0.0159716
-0.00506958
0.00535796
0.00666993
0.0117974
0.0168411
0.0237337
0.0316018
0.0391719
0.0458747
0.0520431
0.0593741
0.0690174
0.0805331
0.0927941
0.104763
0.116926
0.131515
0.150705
0.172326
0.193607
0.215078
0.239455
0.26903
0.302711
0.337423
0.37388
0.41409
0.459287
0.507806
0.55848
0.611796
0.669812
0.734979
0.81331
0.911026
1.04511
1.23266
1.49563
1.84793
2.29123
2.79906
3.32215
3.78861
4.15351
4.37723
4.42161
4.19466
3.78808
3.42253
3.26018
3.23928
3.6684
3.85129
4.34138
4.64011
4.55853
4.13092
3.65577
3.18295
2.9032
2.93326
3.36373
4.13068
4.98018
5.47303
5.43698
5.09206
4.76878
4.54169
4.43519
4.47748
4.67284
4.89657
5.0725
5.19894
5.27625
5.34516
5.38769
0.0151162
-0.00453628
0.00526211
0.00655026
0.0115163
0.0166117
0.0237029
0.0315387
0.0392447
0.0462987
0.0526763
0.0599579
0.0695085
0.0813859
0.0938915
0.10613
0.118469
0.133078
0.152527
0.17464
0.19643
0.218095
0.242238
0.271634
0.305732
0.341352
0.378674
0.419346
0.465501
0.516156
0.569833
0.627177
0.690548
0.76335
0.852623
0.964476
1.11579
1.32324
1.60644
1.97583
2.42971
2.94259
3.46732
3.93339
4.29692
4.51729
4.55679
4.32916
3.92297
3.55946
3.38957
3.36512
3.73169
3.85787
4.38612
4.69037
4.5863
4.12941
3.63606
3.16935
2.9159
2.97117
3.39958
4.15261
5.02662
5.54741
5.50087
5.13847
4.79963
4.578
4.48563
4.5534
4.76513
4.98577
5.14345
5.24671
5.32117
5.40056
5.47
0.0140335
-0.00389242
0.00521296
0.00656029
0.0114015
0.0165723
0.023667
0.0314811
0.0394379
0.0467938
0.0533682
0.0605483
0.0701097
0.0823415
0.0951134
0.107617
0.120131
0.134817
0.1545
0.177089
0.199455
0.221361
0.245279
0.274522
0.309115
0.345864
0.384379
0.425812
0.473046
0.525897
0.582847
0.644602
0.713788
0.794541
0.894922
1.02112
1.18932
1.41542
1.71709
2.1012
2.5634
3.07944
3.60558
4.07318
4.43544
4.65164
4.68647
4.45999
4.05435
3.69561
3.51916
3.49316
3.79863
3.87763
4.41821
4.69528
4.587
4.12282
3.60795
3.15219
2.92687
3.00936
3.42576
4.15913
5.06032
5.59746
5.54754
5.16397
4.81199
4.60323
4.52625
4.62783
4.85893
5.07568
5.21559
5.29736
5.36877
5.45959
5.57135
0.0126656
-0.0032025
0.00509585
0.00649663
0.0112652
0.0164875
0.0234368
0.0312981
0.0395618
0.0471718
0.0539018
0.0609723
0.0706971
0.0832128
0.0962885
0.109046
0.121736
0.136551
0.156434
0.179482
0.202492
0.224746
0.248506
0.277642
0.312835
0.35088
0.390832
0.43338
0.481902
0.537092
0.597622
0.664206
0.739742
0.828807
0.940434
1.08113
1.2659
1.50956
1.8282
2.2253
2.69493
3.21249
3.7394
4.21019
4.57194
4.78546
4.81426
4.59067
4.18562
3.83318
3.65336
3.62484
3.87386
3.90873
4.44455
4.65564
4.57141
4.10964
3.57666
3.136
2.9405
3.04449
3.44376
4.15602
5.07738
5.62321
5.58088
5.17399
4.82226
4.6249
4.55924
4.70424
4.96046
5.17354
5.29418
5.35483
5.42322
5.52396
5.68995
0.0111342
-0.00239801
0.00498955
0.00651037