/*--------------------------------*- C++ -*----------------------------------*\
| =========                 |                                                 |
| \\      /  F ield         | OpenFOAM: The Open Source CFD Toolbox           |
|  \\    /   O peration     | Version:  4.1                                   |
|   \\  /    A nd           | Web:      www.OpenFOAM.org                      |
|    \\/     M anipulation  |                                                 |
\*---------------------------------------------------------------------------*/
FoamFile
{
    version     2.0;
    format      ascii;
    class       volVectorField;
    location    "3";
    object      U;
}
// * * * * * * * * * * * * * * * * * * * * * * * * * * * * * * * * * * * * * //

dimensions      [0 1 -1 0 0 0 0];

internalField   nonuniform List<vector> 
6785
(
(1.87828e-14 0.853566 15.7922)
(8.99826e-15 -4.89509 12.1214)
(-3.8266e-15 -4.19818 12.1319)
(2.25322e-15 -3.60445 11.9967)
(1.16512e-15 -3.00867 11.878)
(-9.6854e-17 -2.55759 11.6997)
(2.09181e-15 -2.21343 11.4776)
(4.143e-16 -1.97075 11.2125)
(-6.40137e-16 -1.80326 10.9171)
(1.39695e-15 -1.71687 10.5897)
(2.99888e-16 -1.84153 10.1581)
(4.61203e-17 -2.28986 9.54001)
(2.90905e-16 -2.51849 8.96645)
(-1.34127e-16 -1.07115 8.91817)
(-3.11972e-16 1.76728 7.48055)
(1.18831e-14 -5.35033 22.5061)
(1.53979e-14 -14.6176 21.3958)
(-1.10451e-15 -13.2856 20.3479)
(4.63658e-15 -11.7869 19.5134)
(1.6408e-15 -11.1727 18.5114)
(-1.93265e-16 -10.6761 17.5252)
(2.84365e-15 -10.1078 16.5793)
(1.54044e-15 -9.54277 15.6316)
(-8.27122e-16 -8.98234 14.6718)
(1.43262e-15 -8.38294 13.7017)
(8.95833e-16 -7.77053 12.7237)
(-1.81496e-16 -7.31433 11.7254)
(1.96169e-15 -7.03089 10.6318)
(5.19509e-16 -5.74246 9.17086)
(-1.67502e-16 -2.31358 4.6058)
(2.12671e-14 -7.73355 24.0438)
(1.42893e-14 -16.7975 24.6616)
(-4.01694e-16 -13.7469 23.9536)
(4.21589e-15 -12.3128 22.6445)
(1.33957e-15 -11.6422 21.2637)
(7.97731e-16 -10.8052 20.0243)
(3.37726e-15 -9.92493 18.7961)
(7.80717e-16 -9.07763 17.5456)
(-8.04438e-17 -8.2557 16.2854)
(1.30468e-15 -7.44293 15.0501)
(3.50499e-16 -6.63174 13.8474)
(3.55256e-16 -5.80863 12.4543)
(9.50881e-16 -4.78571 10.2777)
(3.24555e-16 -3.10456 6.66733)
(-1.4991e-16 -0.836306 1.69517)
(1.67864e-14 -8.53982 22.1602)
(1.80189e-14 -16.6165 24.3057)
(1.08731e-15 -12.8998 23.8239)
(4.62052e-15 -12.1228 22.0173)
(1.43248e-15 -11.3824 20.5173)
(2.0003e-15 -10.4502 19.1811)
(2.78324e-15 -9.5824 17.8208)
(5.06155e-16 -8.76736 16.4587)
(9.10365e-16 -7.99872 15.1205)
(1.18278e-15 -7.27015 13.8113)
(2.95082e-16 -6.47904 12.4095)
(1.10677e-15 -5.35321 10.4542)
(-1.58825e-16 -3.54403 7.15697)
(-2.04848e-15 -1.19784 2.20294)
(-3.21253e-15 0.319889 -1.88868)
(1.57929e-14 -8.51579 19.8711)
(1.29215e-14 -16.3404 24.2803)
(1.82111e-15 -13.0358 23.6714)
(3.42286e-15 -12.6015 21.5334)
(3.06131e-16 -11.83 20.016)
(5.75769e-15 -10.927 18.6481)
(1.94337e-15 -10.1362 17.2359)
(1.0919e-15 -9.37093 15.8421)
(1.71858e-16 -8.62767 14.4921)
(3.83858e-16 -7.91144 13.1784)
(1.93467e-15 -7.13781 11.7667)
(1.99705e-15 -6.02189 9.83873)
(-1.61354e-15 -4.1928 6.79053)
(2.36574e-15 -1.99843 2.76958)
(-4.75923e-15 -0.526937 -0.125571)
(1.52395e-14 -8.06935 17.6894)
(1.69905e-14 -16.0088 24.5009)
(3.01869e-15 -13.6019 24.0245)
(5.04461e-15 -13.0022 21.734)
(3.81882e-16 -12.1346 20.1833)
(1.68973e-15 -11.2244 18.8118)
(1.77396e-15 -10.4366 17.3925)
(-1.14012e-15 -9.64766 15.9962)
(3.72336e-16 -8.85867 14.6458)
(6.42965e-16 -8.08899 13.3333)
(-1.20656e-15 -7.27955 11.9468)
(-2.93673e-16 -6.21584 10.1393)
(-1.86767e-15 -4.57209 7.44754)
(-9.71166e-15 -2.56512 4.06782)
(3.49599e-15 -0.800892 0.988683)
(1.45283e-14 -7.38446 15.3554)
(1.76976e-14 -15.4986 24.3336)
(8.91478e-15 -14.0389 24.3896)
(3.66772e-15 -13.1652 22.0366)
(2.5107e-15 -12.1648 20.4101)
(1.31082e-15 -11.2405 19.022)
(2.20828e-15 -10.4375 17.6029)
(3.63693e-16 -9.61835 16.2102)
(4.08049e-15 -8.80086 14.8589)
(1.28681e-15 -8.0078 13.5435)
(1.7955e-16 -7.19301 12.1696)
(-2.83542e-15 -6.1641 10.4178)
(3.03101e-15 -4.60847 7.85414)
(-2.138e-15 -2.66738 4.6172)
(8.29037e-15 -0.803479 1.42252)
(1.26598e-14 -6.55477 12.9922)
(1.75926e-14 -14.8308 23.7572)
(8.28472e-15 -14.2968 24.6397)
(4.68214e-15 -13.2536 22.3031)
(5.48988e-16 -12.1509 20.5585)
(2.13014e-15 -11.2355 19.1315)
(3.48683e-15 -10.433 17.7103)
(5.1108e-16 -9.60377 16.3196)
(1.19569e-15 -8.78436 14.964)
(1.44864e-15 -7.99524 13.6432)
(5.85345e-16 -7.18446 12.2725)
(-8.41756e-17 -6.18871 10.5523)
(3.1453e-15 -4.73421 8.08815)
(-1.17996e-15 -2.91308 5.00354)
(3.711e-15 -1.04026 1.82998)
(9.0189e-15 -5.68365 10.8786)
(1.74573e-14 -14.0933 22.9434)
(8.96758e-15 -14.4592 24.812)
(3.08303e-15 -13.3911 22.6056)
(1.35192e-15 -12.2179 20.7246)
(2.11636e-15 -11.3109 19.2449)
(1.05869e-15 -10.5121 17.8255)
(8.51096e-16 -9.68421 16.4384)
(-2.88353e-16 -8.87349 15.0794)
(1.4007e-15 -8.09426 13.7546)
(7.72274e-16 -7.29174 12.3919)
(-1.06241e-15 -6.31199 10.7109)
(-1.58314e-15 -4.90357 8.33213)
(-1.69596e-15 -3.1226 5.33014)
(-3.99647e-15 -1.17434 2.11065)
(8.03293e-15 -4.88093 9.16317)
(1.72882e-14 -13.3528 22.0163)
(1.15942e-14 -14.5447 24.8946)
(3.63904e-15 -13.5676 22.9384)
(1.77033e-15 -12.3396 20.9334)
(9.16298e-16 -11.4204 19.3922)
(9.90536e-16 -10.6162 17.9771)
(4.10405e-16 -9.78872 16.5975)
(1.63413e-16 -8.98188 15.2389)
(7.09216e-16 -8.20488 13.9138)
(1.04492e-15 -7.40285 12.5591)
(-3.38404e-15 -6.44181 10.9163)
(-1.09778e-15 -5.10114 8.63489)
(-1.08361e-15 -3.39408 5.75274)
(-4.92662e-15 -1.36512 2.49453)
(3.85952e-15 -4.25207 7.92098)
(1.76537e-14 -12.6813 21.1075)
(9.71035e-15 -14.5748 24.8972)
(4.05871e-15 -13.7697 23.2924)
(2.99045e-15 -12.5102 21.2073)
(1.66066e-15 -11.5632 19.5992)
(5.97201e-16 -10.7479 18.1823)
(-9.66211e-16 -9.92267 16.8082)
(-2.19447e-15 -9.11898 15.45)
(3.94908e-16 -8.34102 14.1242)
(3.20092e-16 -7.53866 12.7771)
(-1.69562e-15 -6.5898 11.1722)
(3.16156e-15 -5.29572 8.97802)
(-4.62459e-15 -3.64458 6.18441)
(-8.83642e-15 -1.51206 2.86743)
(1.81923e-15 -3.69941 6.77664)
(1.6163e-14 -11.9985 20.0774)
(9.28523e-15 -14.5069 24.7235)
(4.69207e-15 -13.9078 23.5167)
(5.70645e-16 -12.6127 21.3749)
(-1.22721e-15 -11.6192 19.7041)
(3.85751e-16 -10.7928 18.2972)
(9.41613e-16 -9.97693 16.943)
(1.33117e-15 -9.18494 15.6002)
(-2.62627e-17 -8.41517 14.2884)
(4.82697e-16 -7.62289 12.9554)
(-2.64215e-15 -6.69233 11.3788)
(-1.23243e-15 -5.43956 9.24554)
(-6.19591e-15 -3.8417 6.51519)
(-3.35966e-15 -1.64143 3.1521)
(-9.14301e-16 -3.46491 6.3527)
(1.38719e-14 -11.553 19.3432)
(1.03356e-14 -14.5867 24.645)
(4.93089e-15 -14.3218 24.0051)
(3.72191e-15 -13.09 21.9192)
(-8.81481e-16 -12.0545 20.1392)
(-2.1882e-16 -11.1918 18.6524)
(3.22556e-15 -10.3573 17.253)
(-1.59513e-15 -9.53908 15.8746)
(-5.41162e-16 -8.73541 14.5312)
(1.50256e-15 -7.91185 13.1829)
(-2.51475e-15 -6.96948 11.6329)
(-2.17315e-15 -5.74021 9.58574)
(-5.53896e-15 -4.15996 6.90948)
(-8.38554e-15 -1.8185 3.42435)
(-2.26911e-16 -2.03553 2.93406)
(1.20291e-14 -9.9387 16.4038)
(1.09008e-14 -13.8994 23.2653)
(4.43228e-15 -13.9408 23.3364)
(2.46244e-15 -12.5887 21.2233)
(-7.61325e-16 -11.475 19.4972)
(7.57232e-18 -10.704 18.2742)
(2.7906e-15 -10.0093 17.1372)
(-8.79162e-16 -9.33139 15.9815)
(-1.89275e-16 -8.6616 14.8218)
(1.1485e-15 -7.96897 13.627)
(-2.96774e-15 -7.1554 12.2277)
(-2.03959e-15 -6.04982 10.3419)
(-5.77385e-15 -4.63553 7.92245)
(-6.63071e-15 -2.33751 4.65935)
(7.86336e-16 -4.37295 9.30833)
(1.1876e-14 -11.0885 18.9335)
(1.3359e-14 -15.3345 25.2428)
(8.15354e-15 -16.8781 26.3717)
(4.26724e-15 -16.3823 24.6567)
(1.18244e-15 -15.2 22.19)
(-4.66071e-16 -13.8798 19.8937)
(5.4362e-16 -12.6198 17.9187)
(-4.26656e-16 -11.4083 16.1251)
(-1.01497e-15 -10.2334 14.4873)
(-3.67815e-16 -9.08135 12.9688)
(-1.88778e-15 -7.85994 11.3634)
(-2.47077e-15 -6.44641 9.46958)
(-4.78668e-15 -4.56898 6.66076)
(-6.8851e-15 -1.10272 2.30817)
(-3.95577e-18 0.480141 -3.23545)
(-6.61319e-17 0.556265 -4.82543)
(-6.88125e-17 0.609853 -3.60863)
(-4.90864e-17 0.997875 -3.58721)
(-3.57297e-17 1.3583 -3.42335)
(-9.84487e-17 1.77432 -4.48419)
(-6.58412e-17 1.62676 -3.21527)
(-7.58234e-17 1.95488 -3.17213)
(-5.1507e-16 2.18637 -3.04707)
(1.08906e-15 2.84581 -3.79778)
(1.09522e-15 2.39861 -2.75322)
(8.11178e-16 2.61941 -2.61263)
(5.02473e-16 3.60333 -3.14583)
(4.33401e-16 2.83566 -2.28706)
(4.06681e-16 3.10323 -2.24893)
(3.64371e-16 3.19568 -2.18393)
(2.91381e-16 4.12879 -2.55322)
(1.26205e-16 3.23228 -1.89881)
(5.01882e-17 3.34424 -1.8234)
(-1.61178e-17 4.54091 -2.03987)
(2.71356e-17 3.40004 -1.53001)
(8.77884e-18 3.63376 -1.50664)
(2.94195e-17 3.64684 -1.48505)
(-5.68964e-17 4.69633 -1.57672)
(-2.03759e-17 3.46388 -1.22745)
(6.13088e-18 3.72405 -1.2061)
(1.43118e-16 3.72333 -1.19738)
(-4.02152e-16 4.70284 -1.19043)
(-3.61248e-16 3.4844 -0.95297)
(-2.32001e-16 3.49268 -0.948106)
(-1.59304e-16 4.68561 -0.831678)
(-1.74845e-16 3.32307 -0.686011)
(-1.44559e-16 3.48674 -0.676685)
(-1.51467e-16 3.46492 -0.692366)
(-1.12819e-16 4.30338 -0.52768)
(-9.31281e-17 3.13627 -0.458431)
(-7.80551e-17 3.12249 -0.481763)
(-3.2245e-17 4.05 -0.24075)
(-2.87016e-17 2.86295 -0.241586)
(-2.41974e-17 2.96677 -0.241322)
(2.67442e-17 2.94887 -0.272745)
(9.19511e-17 3.54362 0.00438964)
(6.38734e-17 2.53949 -0.0597435)
(7.25309e-17 2.64496 -0.0596918)
(7.34641e-17 2.6425 -0.0927928)
(1.31342e-16 3.04796 0.214579)
(8.76495e-17 2.26096 0.135281)
(8.79058e-17 2.24118 0.094259)
(1.37257e-16 2.75538 0.460901)
(9.83773e-17 2.0829 0.379841)
(9.93072e-17 2.11972 0.380687)
(9.38652e-17 2.09405 0.332375)
(1.17663e-16 2.3613 0.780783)
(1.11184e-16 1.77554 0.53826)
(8.38389e-17 1.80502 0.530813)
(2.07609e-16 1.78174 0.48608)
(3.12795e-16 1.84419 0.862136)
(2.75053e-16 1.30977 0.432707)
(2.61189e-16 1.25064 0.400553)
(4.09498e-16 1.23054 0.318493)
(3.60428e-16 0.654166 -0.227699)
(3.62334e-16 0.602369 -0.259859)
(3.06092e-16 0.668863 -0.229489)
(1.75476e-15 1.30678 -1.7784)
(-1.5359e-16 -0.368791 -0.454177)
(-7.34584e-16 0.0482669 -0.016142)
(-1.84229e-15 0.0624527 1.60514)
(-1.53767e-15 -1.33891 3.49968)
(-1.42415e-15 -1.33981 3.45126)
(-1.47001e-15 -1.348 3.62123)
(-1.86854e-15 -2.76469 6.60411)
(-1.36591e-15 -3.23678 6.22019)
(-1.4288e-15 -3.5005 6.34205)
(-1.43161e-15 -3.6741 6.52256)
(5.93367e-17 -6.24625 10.1941)
(-1.06917e-15 -5.75196 8.27128)
(-1.14591e-15 -6.04575 8.76133)
(-1.25906e-15 -9.34782 12.8544)
(-9.19043e-16 -8.4403 9.92222)
(-1.12168e-15 -8.78428 10.6513)
(-1.94199e-15 -9.6735 12.3802)
(-1.75991e-15 -9.5376 12.2952)
(-1.70106e-15 -9.71872 12.5742)
(-1.35233e-16 -11.594 15.3785)
(-1.07809e-15 -10.4111 13.5994)
(-8.85906e-16 -10.765 14.2875)
(-8.25978e-16 -10.7566 14.4403)
(-7.62128e-16 -10.832 14.5652)
(-6.89994e-16 -10.9261 14.7139)
(-5.92493e-16 -11.007 14.8871)
(-3.60894e-16 -11.1001 15.2033)
(-5.22146e-17 -11.2291 15.5915)
(9.11719e-16 -11.965 17.0071)
(3.1765e-16 -11.5498 16.0115)
(4.23684e-16 -11.6879 16.2402)
(4.65162e-16 -11.6706 16.3707)
(5.92226e-16 -11.8336 16.7498)
(6.36569e-16 -11.8074 16.7879)
(6.94251e-16 -11.8881 16.9352)
(7.58515e-16 -11.9452 17.0626)
(8.38107e-16 -12.0105 17.214)
(2.38978e-15 -12.3877 18.2896)
(1.63641e-15 -12.0377 17.5689)
(1.72401e-15 -12.1368 17.7442)
(1.76265e-15 -12.1679 17.8301)
(1.8202e-15 -12.2066 17.9604)
(1.83982e-15 -12.2473 18.1588)
(1.84963e-15 -12.3181 18.3814)
(1.93902e-15 -12.3187 18.4481)
(2.02161e-15 -12.3879 18.5651)
(2.12709e-15 -12.443 18.6638)
(3.16304e-15 -12.1208 18.8721)
(2.48527e-15 -12.0828 18.6122)
(2.60512e-15 -12.1112 18.7089)
(2.65623e-15 -12.1403 18.7655)
(2.73949e-15 -12.1715 18.8416)
(2.83586e-15 -12.1569 18.9384)
(3.02613e-15 -12.2101 19.1769)
(3.14957e-15 -12.2369 19.2476)
(3.27549e-15 -12.2776 19.2314)
(3.69147e-15 -11.15 18.147)
(3.45203e-15 -11.4358 18.466)
(3.58889e-15 -11.3887 18.5721)
(3.62552e-15 -11.4231 18.7053)
(3.77087e-15 -11.3614 18.6168)
(3.89695e-15 -11.355 18.5866)
(4.04665e-15 -11.3272 18.5373)
(4.2355e-15 -11.3121 18.5174)
(4.60882e-15 -11.3882 18.6857)
(5.65067e-15 -9.08094 15.8007)
(4.88493e-15 -10.0327 17.2567)
(5.05046e-15 -9.84826 16.9646)
(5.19026e-15 -9.81245 16.8563)
(5.58746e-15 -9.76747 16.8651)
(5.68523e-15 -9.65729 16.6274)
(5.69939e-15 -9.55293 16.2793)
(5.74288e-15 -9.51136 15.9034)
(5.75029e-15 -9.3748 15.4303)
(6.29435e-15 -6.40073 11.1422)
(6.24366e-15 -7.73542 13.951)
(6.03896e-15 -7.35189 13.1454)
(5.89848e-15 -7.29612 12.6759)
(5.73673e-15 -7.14323 12.0347)
(5.61772e-15 -7.0654 11.3338)
(5.92809e-15 -6.77492 10.4468)
(5.39796e-15 -6.72435 9.79549)
(5.07334e-15 -6.53098 8.98332)
(4.64971e-15 -6.17836 8.09259)
(2.11987e-15 -3.20437 2.11722)
(4.00227e-15 -4.58466 6.36456)
(3.37139e-15 -3.99379 4.91165)
(3.06621e-15 -3.99908 4.38292)
(2.62653e-15 -3.74539 3.54536)
(2.07771e-15 -3.69207 2.59422)
(9.85463e-16 -3.52625 1.10415)
(-7.91396e-17 -3.10694 -0.356111)
(1.71703e-16 -2.92704 -0.575194)
(3.31993e-17 -2.86557 -3.22302)
(1.45327e-17 -2.3129 -0.391095)
(1.16931e-17 -1.96715 -1.27089)
(-9.70873e-17 -1.42254 -3.36824)
(-2.30973e-16 -1.66119 -3.09698)
(-5.72813e-16 -1.03196 -2.2814)
(-6.44478e-16 -0.783131 -1.87097)
(-8.3931e-16 -0.353349 -2.06708)
(-7.32386e-16 -0.310864 -1.58488)
(-1.09848e-15 0.103734 -1.41372)
(-1.34654e-15 0.0310216 -1.18872)
(-1.06039e-15 0.196356 -1.31728)
(-8.80604e-16 0.401202 -1.21125)
(-4.67631e-16 0.6288 -1.14283)
(-3.34634e-16 0.555836 -0.980643)
(-2.26663e-16 0.996291 -1.09221)
(-1.54155e-16 0.842836 -0.888627)
(-3.0824e-16 1.10173 -0.975466)
(-2.70104e-16 1.37652 -0.962106)
(-1.81298e-16 1.09099 -0.713733)
(-3.40921e-16 1.66197 -0.847422)
(-3.33064e-16 1.32709 -0.645644)
(-3.46683e-16 1.62997 -0.738592)
(-3.0478e-16 1.8853 -0.727379)
(-2.47088e-16 1.49984 -0.523544)
(-2.12521e-16 1.87901 -0.589732)
(9.6276e-16 2.16657 -0.574439)
(-2.89794e-16 1.61394 -0.414029)
(-3.11098e-16 2.3964 -0.498914)
(-6.50049e-17 1.7968 -0.368939)
(-7.49488e-16 2.16138 -0.433243)
(-8.62078e-16 2.48145 -0.423831)
(-4.15024e-16 1.80406 -0.292257)
(-4.70031e-16 2.70968 -0.365402)
(-3.97417e-16 1.98438 -0.255828)
(-6.04579e-16 2.38982 -0.318792)
(-1.31368e-15 2.6846 -0.320616)
(-1.08686e-16 2.01102 -0.206827)
(-3.118e-16 2.51991 -0.249861)
(6.07293e-16 2.87443 -0.251177)
(-2.90396e-16 2.02601 -0.159525)
(-5.6342e-16 3.05629 -0.227949)
(-4.2307e-16 2.22028 -0.141636)
(-5.99659e-16 2.63417 -0.202585)
(3.47308e-16 3.0154 -0.206054)
(-4.02473e-16 2.14942 -0.12172)
(-1.32794e-15 3.21198 -0.183264)
(-5.72272e-16 2.3452 -0.110105)
(-9.55842e-16 2.7776 -0.170287)
(-1.76146e-15 3.10769 -0.172986)
(-4.03125e-16 2.33018 -0.103258)
(-7.11259e-16 2.88728 -0.137624)
(-1.00523e-15 3.28184 -0.13429)
(-6.17245e-16 2.31889 -0.0888947)
(-9.33549e-16 3.43267 -0.134267)
(-6.36855e-16 2.52198 -0.0853032)
(-8.72578e-16 2.95915 -0.132278)
(-1.19048e-15 3.35193 -0.12671)
(-8.67268e-16 2.41795 -0.0838798)
(-1.56796e-15 3.55732 -0.12248)
(-7.32282e-16 2.62919 -0.0825155)
(-1.03955e-15 3.08863 -0.128535)
(-1.25472e-15 3.418 -0.130637)
(-8.5956e-16 2.5764 -0.0840308)
(-1.26607e-15 3.19309 -0.109525)
(-1.5327e-15 3.61469 -0.110693)
(-6.67101e-16 2.56593 -0.0792757)
(-1.10425e-15 3.75806 -0.121942)
(-7.91583e-16 2.79181 -0.084682)
(-1.0065e-15 3.26591 -0.129304)
(-1.49138e-15 3.67301 -0.139987)
(-7.05622e-16 2.65965 -0.0903027)
(-1.11472e-15 3.89774 -0.142819)
(-7.67807e-16 2.91873 -0.100197)
(-1.05668e-15 3.4078 -0.154977)
(-1.30105e-15 3.76982 -0.18073)
(-7.46745e-16 2.83638 -0.111938)
(-1.0038e-15 3.5486 -0.152917)
(-1.05861e-15 4.03879 -0.186387)
(-7.26936e-16 2.85794 -0.118566)
(-1.00449e-15 4.19608 -0.202825)
(-7.21783e-16 3.12769 -0.137203)
(-9.632e-16 3.79757 -0.244068)
(-1.55606e-15 -0.0511578 2.92123)
(-1.55147e-15 -0.0644597 2.9093)
(-1.54892e-15 -0.0572475 2.90088)
(-1.54739e-15 -0.0601244 2.89455)
(-1.54505e-15 -0.0612854 2.88653)
(-1.54166e-15 -0.0625851 2.87589)
(-1.53854e-15 -0.0635135 2.86545)
(-1.53514e-15 -0.064988 2.85393)
(-1.53158e-15 -0.0666361 2.84171)
(-1.52781e-15 -0.0680933 2.82867)
(-1.52383e-15 -0.0697357 2.81488)
(-1.51966e-15 -0.0716704 2.80038)
(-1.51531e-15 -0.0748337 2.78525)
(-1.51079e-15 -0.0794433 2.76974)
(-1.50611e-15 -0.0844772 2.75414)
(-1.50128e-15 -0.0898912 2.73877)
(-1.49632e-15 -0.095761 2.72386)
(-1.49118e-15 -0.104147 2.70958)
(-1.4858e-15 -0.11458 2.6962)
(-1.48012e-15 -0.12567 2.68379)
(-1.47408e-15 -0.13872 2.67215)
(-1.4676e-15 -0.154324 2.66083)
(-1.46065e-15 -0.174325 2.64957)
(-1.45329e-15 -0.197385 2.63869)
(-1.44579e-15 -0.222944 2.62932)
(-1.43847e-15 -0.251173 2.62315)
(-1.43147e-15 -0.285853 2.62177)
(-1.42425e-15 -0.330186 2.62471)
(-1.41507e-15 -0.382653 2.62569)
(-1.40084e-15 -0.439438 2.6089)
(-1.37782e-15 -0.500166 2.55046)
(-1.34353e-15 -0.560077 2.42808)
(-1.29946e-15 -0.610264 2.23888)
(-1.25317e-15 -0.652128 2.02131)
(-1.21629e-15 -0.698157 1.85802)
(-1.19792e-15 -0.779453 1.83616)
(-1.19562e-15 -0.926939 1.96879)
(-1.19313e-15 -1.12647 2.14665)
(-1.17074e-15 -1.28284 2.1901)
(-1.11868e-15 -1.26331 1.95568)
(-1.04613e-15 -1.06334 1.46211)
(-9.83774e-16 -1.01616 1.01075)
(-9.60547e-16 -1.46544 0.998385)
(-9.64542e-16 -2.38107 1.37548)
(-9.54589e-16 -3.554 1.67119)
(-9.08402e-16 -4.51692 1.54529)
(-8.3992e-16 -5.14108 1.14326)
(-7.53279e-16 -5.44752 0.594828)
(-6.37679e-16 -4.22811 -0.27183)
(-5.87321e-16 -1.76785 -0.521752)
(-5.7236e-16 1.14797 -0.359709)
(-6.04012e-16 2.3044 0.367823)
(-6.37492e-16 1.74978 0.470423)
(-5.94023e-16 -2.00735 0.204756)
(-5.54779e-16 -8.6316 0.556522)
(-5.13946e-16 -4.49256 -0.270894)
(-4.2209e-16 -1.19337 0.0867224)
(-4.66991e-16 0.804628 -0.00205782)
(-3.38781e-16 2.32599 -0.365769)
(-2.37771e-16 2.70553 -0.264631)
(-2.37286e-16 2.04535 0.00363004)
(-2.55418e-16 1.24047 0.234858)
(-2.55426e-16 0.253984 0.257346)
(-2.50908e-16 -1.31498 0.187926)
(-2.32774e-16 -2.91182 0.0716269)
(-2.15864e-16 -3.82995 -0.648953)
(-2.01e-16 -3.88952 -1.19664)
(-1.89768e-16 -3.45608 -1.65549)
(-1.82558e-16 -2.66084 -1.77731)
(-1.78916e-16 -1.8617 -1.68537)
(-1.77299e-16 -1.18054 -1.48195)
(-1.76635e-16 -0.642292 -1.2886)
(-1.7639e-16 -0.156162 -1.20077)
(-1.76439e-16 0.429108 -1.21026)
(-1.76491e-16 0.940308 -1.14767)
(-1.76168e-16 1.62567 -1.12567)
(-1.83536e-16 2.39452 -1.15176)
(-2.00219e-16 2.89607 -0.921758)
(8.1174e-17 3.22015 -0.491734)
(-1.54645e-15 -0.0596686 2.87193)
(-1.5422e-15 -0.0651962 2.86674)
(-1.54067e-15 -0.0601486 2.85518)
(-1.53801e-15 -0.0608018 2.84917)
(-1.53479e-15 -0.0599671 2.83875)
(-1.53149e-15 -0.0595297 2.8285)
(-1.52816e-15 -0.0592455 2.8176)
(-1.52458e-15 -0.0591534 2.80602)
(-1.52081e-15 -0.0592314 2.79385)
(-1.51683e-15 -0.0597394 2.78124)
(-1.5127e-15 -0.0608354 2.76845)
(-1.50842e-15 -0.0629479 2.75549)
(-1.504e-15 -0.0658077 2.74257)
(-1.49944e-15 -0.0691731 2.72963)
(-1.49475e-15 -0.0734986 2.71686)
(-1.48993e-15 -0.0789378 2.7045)
(-1.48497e-15 -0.08652 2.69285)
(-1.47982e-15 -0.095675 2.68201)
(-1.4744e-15 -0.106206 2.67154)
(-1.46869e-15 -0.118726 2.66161)
(-1.46268e-15 -0.133893 2.65226)
(-1.45634e-15 -0.151821 2.6433)
(-1.44975e-15 -0.171992 2.63477)
(-1.44304e-15 -0.195424 2.62704)
(-1.4364e-15 -0.223549 2.62113)
(-1.42983e-15 -0.257279 2.61791)
(-1.42287e-15 -0.296834 2.61675)
(-1.41426e-15 -0.341987 2.6127)
(-1.40181e-15 -0.392402 2.59514)
(-1.38276e-15 -0.446166 2.54891)
(-1.35485e-15 -0.49866 2.45781)
(-1.318e-15 -0.546969 2.31353)
(-1.27595e-15 -0.59438 2.13106)
(-1.23644e-15 -0.64879 1.95611)
(-1.20842e-15 -0.721356 1.85519)
(-1.19671e-15 -0.827154 1.88445)
(-1.19561e-15 -0.978398 2.03016)
(-1.18897e-15 -1.14736 2.17243)
(-1.16019e-15 -1.24288 2.14001)
(-1.10359e-15 -1.16903 1.82352)
(-1.03245e-15 -1.00892 1.3142)
(-9.78303e-16 -1.1081 0.960697)
(-9.60809e-16 -1.646 1.01001)
(-9.64628e-16 -2.57427 1.36229)
(-9.52525e-16 -3.70855 1.62308)
(-9.05623e-16 -4.63479 1.50044)
(-8.3751e-16 -5.23344 1.12803)
(-7.51602e-16 -5.48235 0.622801)
(-6.37786e-16 -4.2338 -0.190973)
(-5.88099e-16 -1.78077 -0.430968)
(-5.73663e-16 1.06351 -0.291738)
(-6.04642e-16 2.1771 0.34204)
(-6.38321e-16 1.80945 0.45969)
(-5.93107e-16 -2.27493 0.148859)
(-5.54591e-16 -8.63558 0.598271)
(-5.13723e-16 -4.50759 -0.204814)
(-4.22364e-16 -1.21342 0.104905)
(-4.66622e-16 0.823816 -0.00105296)
(-3.34692e-16 2.38127 -0.372236)
(-2.35807e-16 2.64656 -0.232643)
(-2.37778e-16 1.95625 0.0257338)
(-2.54792e-16 1.18138 0.236629)
(-2.54536e-16 0.303896 0.305218)
(-2.50491e-16 -1.26635 0.197449)
(-2.3285e-16 -2.84831 0.0594955)
(-2.1625e-16 -3.78415 -0.643693)
(-2.01598e-16 -3.87573 -1.17442)
(-1.90396e-16 -3.48666 -1.62511)
(-1.8307e-16 -2.7344 -1.75749)
(-1.79224e-16 -1.93738 -1.67672)
(-1.77471e-16 -1.22559 -1.49692)
(-1.7674e-16 -0.642334 -1.32393)
(-1.76466e-16 -0.0761721 -1.2556)
(-1.76536e-16 0.408356 -1.22178)
(-1.76588e-16 0.93455 -1.15948)
(-1.76441e-16 1.62934 -1.15289)
(-1.85371e-16 2.36284 -1.14985)
(-1.97917e-16 2.78482 -0.861669)
(9.99035e-17 3.12446 -0.377479)
(-1.53185e-15 -0.0634078 2.81945)
(-1.52825e-15 -0.0667847 2.81352)
(-1.52645e-15 -0.0614423 2.80316)
(-1.5233e-15 -0.0612354 2.79594)
(-1.52034e-15 -0.0598979 2.78646)
(-1.51738e-15 -0.0594768 2.77737)
(-1.51415e-15 -0.0593449 2.76743)
(-1.51071e-15 -0.0596541 2.75728)
(-1.50708e-15 -0.0600274 2.74686)
(-1.50327e-15 -0.0601695 2.73623)
(-1.49932e-15 -0.0609552 2.72562)
(-1.49523e-15 -0.0627917 2.71515)
(-1.49099e-15 -0.0656892 2.70502)
(-1.4866e-15 -0.0695519 2.69518)
(-1.48206e-15 -0.0739069 2.68562)
(-1.47735e-15 -0.0797852 2.67646)
(-1.47245e-15 -0.0871992 2.66785)
(-1.46734e-15 -0.0965485 2.65986)
(-1.46196e-15 -0.107197 2.6521)
(-1.45633e-15 -0.118659 2.64449)
(-1.45048e-15 -0.133137 2.63719)
(-1.44447e-15 -0.150496 2.63051)
(-1.43837e-15 -0.17097 2.62466)
(-1.43226e-15 -0.194318 2.61975)
(-1.42606e-15 -0.221839 2.61571)
(-1.41931e-15 -0.253954 2.61117)
(-1.41098e-15 -0.291645 2.60207)
(-1.39938e-15 -0.334554 2.58036)
(-1.38234e-15 -0.379652 2.53434)
(-1.35798e-15 -0.422744 2.45216)
(-1.32596e-15 -0.462765 2.32826)
(-1.28856e-15 -0.50175 2.17168)
(-1.25104e-15 -0.545294 2.01218)
(-1.22027e-15 -0.607114 1.89493)
(-1.20181e-15 -0.700729 1.86556)
(-1.19613e-15 -0.835743 1.94733)
(-1.19481e-15 -1.004 2.09851)
(-1.18254e-15 -1.15662 2.19222)
(-1.14637e-15 -1.1991 2.07402)
(-1.08537e-15 -1.06363 1.67686)
(-1.01731e-15 -0.880851 1.16168)
(-9.72849e-16 -1.0264 0.90022)
(-9.61302e-16 -1.64994 1.01884)
(-9.64594e-16 -2.61275 1.36335)
(-9.49945e-16 -3.69544 1.5894)
(-9.02212e-16 -4.54533 1.45845)
(-8.34517e-16 -5.09942 1.10504)
(-7.49418e-16 -5.31217 0.636113)
(-6.37752e-16 -4.10296 -0.127317)
(-5.88926e-16 -1.75543 -0.343327)
(-5.74464e-16 0.985617 -0.304177)
(-6.04803e-16 2.12217 0.331788)
(-6.3852e-16 1.84895 0.469889)
(-5.91962e-16 -2.23343 0.134108)
(-5.54369e-16 -8.56745 0.59766)
(-5.13386e-16 -4.4409 -0.176817)
(-4.22714e-16 -1.21993 0.166892)
(-4.65784e-16 0.846424 -0.0287645)
(-3.31765e-16 2.40553 -0.374214)
(-2.34627e-16 2.61392 -0.20721)
(-2.38359e-16 1.92247 0.0473077)
(-2.54472e-16 1.16655 0.252339)
(-2.54238e-16 0.204703 0.32466)
(-2.5005e-16 -1.25261 0.189292)
(-2.32972e-16 -2.75438 0.0394751)
(-2.16742e-16 -3.63957 -0.635795)
(-2.02346e-16 -3.75116 -1.1485)
(-1.91183e-16 -3.40915 -1.58967)
(-1.83722e-16 -2.71958 -1.7384)
(-1.7963e-16 -1.96639 -1.67595)
(-1.77702e-16 -1.2813 -1.51668)
(-1.76881e-16 -0.702536 -1.35663)
(-1.76567e-16 -0.147068 -1.27851)
(-1.76637e-16 0.394816 -1.2317)
(-1.76675e-16 0.933953 -1.17667)
(-1.76618e-16 1.62615 -1.16998)
(-1.86546e-16 2.3319 -1.14269)
(-1.96385e-16 2.71836 -0.829943)
(1.10307e-16 3.07423 -0.335437)
(-1.51347e-15 -0.0552047 2.76715)
(-1.51015e-15 -0.0579676 2.76066)
(-1.50811e-15 -0.0546387 2.75199)
(-1.50536e-15 -0.0550023 2.74603)
(-1.50306e-15 -0.0547031 2.73903)
(-1.50048e-15 -0.0545602 2.7318)
(-1.49763e-15 -0.0545619 2.72403)
(-1.4946e-15 -0.0551573 2.71633)
(-1.49141e-15 -0.0561307 2.70861)
(-1.48807e-15 -0.0571825 2.70087)
(-1.48458e-15 -0.0583638 2.69314)
(-1.48092e-15 -0.060333 2.68553)
(-1.47708e-15 -0.0632798 2.67827)
(-1.47305e-15 -0.0673665 2.67134)
(-1.46881e-15 -0.072028 2.66451)
(-1.46437e-15 -0.0778197 2.65773)
(-1.4597e-15 -0.0851752 2.65122)
(-1.45479e-15 -0.0944891 2.64513)
(-1.44964e-15 -0.105648 2.63927)
(-1.44428e-15 -0.118016 2.6333)
(-1.43877e-15 -0.132622 2.62735)
(-1.43314e-15 -0.150117 2.6219)
(-1.42738e-15 -0.171033 2.61693)
(-1.42134e-15 -0.194872 2.61151)
(-1.41458e-15 -0.221815 2.60372)
(-1.40623e-15 -0.252337 2.58982)
(-1.39495e-15 -0.286871 2.56362)
(-1.37906e-15 -0.324535 2.51647)
(-1.35709e-15 -0.362719 2.43903)
(-1.32861e-15 -0.398429 2.32644)
(-1.29522e-15 -0.432401 2.18546)
(-1.26071e-15 -0.470485 2.03887)
(-1.23024e-15 -0.521537 1.92159)
(-1.20858e-15 -0.597204 1.86848)
(-1.19806e-15 -0.708179 1.90261)
(-1.19599e-15 -0.856785 2.01989)
(-1.19255e-15 -1.02227 2.15791)
(-1.17389e-15 -1.14546 2.18912)
(-1.13078e-15 -1.14073 1.98269)
(-1.06688e-15 -0.973368 1.5206)
(-1.0037e-15 -0.813035 1.02649)
(-9.687e-16 -1.01166 0.858498)
(-9.61958e-16 -1.67668 1.03481)
(-9.64362e-16 -2.64573 1.37179)
(-9.47196e-16 -3.6796 1.56565)
(-8.98675e-16 -4.46702 1.42513)
(-8.31386e-16 -4.97844 1.08518)
(-7.47055e-16 -5.15404 0.642442)
(-6.37574e-16 -3.97965 -0.0799756)
(-5.89688e-16 -1.71637 -0.276724)
(-5.75201e-16 0.915122 -0.308532)
(-6.05028e-16 2.04854 0.328859)
(-6.38938e-16 1.87946 0.484174)
(-5.90781e-16 -2.28887 0.13969)
(-5.5415e-16 -8.50549 0.585134)
(-5.12998e-16 -4.38654 -0.166639)
(-4.22882e-16 -1.19337 0.217837)
(-4.65065e-16 0.890761 -0.04634)
(-3.28164e-16 2.43421 -0.376575)
(-2.33331e-16 2.56973 -0.176896)
(-2.38904e-16 1.87009 0.0725905)
(-2.54068e-16 1.13825 0.269142)
(-2.53956e-16 0.269122 0.337028)
(-2.49647e-16 -1.22414 0.17907)
(-2.33119e-16 -2.6564 0.0279354)
(-2.17264e-16 -3.50177 -0.621696)
(-2.03129e-16 -3.63255 -1.12241)
(-1.92015e-16 -3.32962 -1.55741)
(-1.84424e-16 -2.6953 -1.72461)
(-1.8009e-16 -1.97778 -1.68377)
(-1.7797e-16 -1.3099 -1.54389)
(-1.77046e-16 -0.730295 -1.39376)
(-1.76686e-16 -0.165082 -1.30596)
(-1.76755e-16 0.383852 -1.25212)
(-1.76783e-16 0.930829 -1.20217)
(-1.76865e-16 1.62212 -1.19354)
(-1.87863e-16 2.29444 -1.13737)
(-1.94517e-16 2.63498 -0.794994)
(1.22228e-16 3.00734 -0.33816)
(-1.49433e-15 -0.0541514 2.7216)
(-1.49109e-15 -0.056601 2.71729)
(-1.48928e-15 -0.0540616 2.71039)
(-1.48716e-15 -0.0544362 2.70679)
(-1.48525e-15 -0.0544231 2.70203)
(-1.48295e-15 -0.0543168 2.69693)
(-1.48048e-15 -0.0542267 2.69159)
(-1.47789e-15 -0.0545552 2.68638)
(-1.47515e-15 -0.0553808 2.68125)
(-1.47228e-15 -0.056599 2.67618)
(-1.46925e-15 -0.0580932 2.67106)
(-1.46603e-15 -0.0601142 2.66586)
(-1.4626e-15 -0.0630187 2.66083)
(-1.45897e-15 -0.0670202 2.65596)
(-1.45511e-15 -0.0720156 2.65102)
(-1.45103e-15 -0.0777722 2.6458)
(-1.4467e-15 -0.0847289 2.64048)
(-1.44213e-15 -0.0932688 2.63525)
(-1.43734e-15 -0.103898 2.62999)
(-1.43233e-15 -0.116576 2.62433)
(-1.4271e-15 -0.131169 2.61805)
(-1.42158e-15 -0.148378 2.61107)
(-1.41556e-15 -0.168832 2.60265)
(-1.40862e-15 -0.19241 2.59066)
(-1.40003e-15 -0.218335 2.57153)
(-1.38872e-15 -0.24648 2.54014)
(-1.37341e-15 -0.276564 2.49017)
(-1.35298e-15 -0.307841 2.41516)
(-1.32709e-15 -0.339332 2.31152)
(-1.29696e-15 -0.37056 2.18383)
(-1.26558e-15 -0.404608 2.04916)
(-1.23695e-15 -0.448438 1.93536)
(-1.21479e-15 -0.512116 1.87205)
(-1.20141e-15 -0.604448 1.87944)
(-1.19658e-15 -0.730817 1.96153)
(-1.19562e-15 -0.884706 2.09379)
(-1.18832e-15 -1.03551 2.20011)
(-1.16285e-15 -1.1201 2.15806)
(-1.11368e-15 -1.06752 1.866)
(-1.04881e-15 -0.881448 1.3587)
(-9.92207e-16 -0.765352 0.910665)
(-9.65917e-16 -1.03172 0.834852)
(-9.62698e-16 -1.72989 1.05726)
(-9.6388e-16 -2.69183 1.38375)
(-9.4432e-16 -3.6777 1.54657)
(-8.95104e-16 -4.41653 1.39684)
(-8.28215e-16 -4.89659 1.06799)
(-7.44607e-16 -5.0396 0.645964)
(-6.37274e-16 -3.88799 -0.0411319)
(-5.90354e-16 -1.6882 -0.223498)
(-5.75923e-16 0.860171 -0.295569)
(-6.05131e-16 1.98459 0.331314)
(-6.3942e-16 1.9006 0.499201)
(-5.8962e-16 -2.33672 0.14691)
(-5.53947e-16 -8.45928 0.56597)
(-5.12614e-16 -4.35374 -0.166642)
(-4.22882e-16 -1.18477 0.261172)
(-4.64335e-16 0.933633 -0.0611383)
(-3.24321e-16 2.45454 -0.378706)
(-2.32105e-16 2.52555 -0.143572)
(-2.39508e-16 1.82431 0.102999)
(-2.53643e-16 1.11542 0.290081)
(-2.5369e-16 0.263607 0.352751)
(-2.49299e-16 -1.18919 0.177272)
(-2.33279e-16 -2.57288 0.0235587)
(-2.17791e-16 -3.39245 -0.603208)
(-2.03917e-16 -3.53939 -1.09505)
(-1.92864e-16 -3.26803 -1.5264)
(-1.85158e-16 -2.67935 -1.71269)
(-1.80594e-16 -1.99233 -1.69447)
(-1.78275e-16 -1.33253 -1.57324)
(-1.77236e-16 -0.750994 -1.43391)
(-1.76824e-16 -0.180057 -1.34171)
(-1.76891e-16 0.372302 -1.28199)
(-1.76913e-16 0.927859 -1.23311)
(-1.77155e-16 1.61383 -1.21733)
(-1.89176e-16 2.25032 -1.12962)
(-1.92552e-16 2.55413 -0.762472)
(1.32837e-16 2.94741 -0.280436)
(-1.47684e-15 -0.0556654 2.68904)
(-1.47376e-15 -0.0576526 2.68724)
(-1.4723e-15 -0.0552818 2.68205)
(-1.47049e-15 -0.055204 2.68026)
(-1.46866e-15 -0.0549618 2.67701)
(-1.46652e-15 -0.0548691 2.67372)
(-1.46429e-15 -0.0548547 2.67035)
(-1.46194e-15 -0.0549586 2.66702)
(-1.45947e-15 -0.0553834 2.66371)
(-1.45687e-15 -0.0562416 2.66037)
(-1.45411e-15 -0.0576895 2.65684)
(-1.45115e-15 -0.0597353 2.65304)
(-1.448e-15 -0.062537 2.64916)
(-1.44464e-15 -0.0662515 2.64516)
(-1.44106e-15 -0.0711949 2.64083)
(-1.43725e-15 -0.0772816 2.63594)
(-1.43319e-15 -0.0845116 2.63054)
(-1.42887e-15 -0.0929514 2.62468)
(-1.42427e-15 -0.103077 2.61807)
(-1.41932e-15 -0.115366 2.61014)
(-1.41391e-15 -0.129835 2.60016)
(-1.4078e-15 -0.146451 2.58726)
(-1.40059e-15 -0.165655 2.56973)
(-1.39166e-15 -0.18744 2.54457)
(-1.38016e-15 -0.211146 2.50757)
(-1.36514e-15 -0.235967 2.45383)
(-1.34578e-15 -0.261401 2.3791)
(-1.32191e-15 -0.287135 2.28176)
(-1.29455e-15 -0.313899 2.16595)
(-1.26614e-15 -0.343845 2.04468)
(-1.23995e-15 -0.381944 1.93929)
(-1.2189e-15 -0.435006 1.87339)
(-1.20478e-15 -0.511512 1.86545)
(-1.1979e-15 -0.618389 1.92235)
(-1.19633e-15 -0.755032 2.03395)
(-1.19426e-15 -0.907229 2.16081)
(-1.18184e-15 -1.03617 2.21913)
(-1.14956e-15 -1.07902 2.09718)
(-1.09555e-15 -0.9821 1.72728)
(-1.03172e-15 -0.788473 1.19791)
(-9.82971e-16 -0.723626 0.817146)
(-9.64254e-16 -1.05653 0.826512)
(-9.63443e-16 -1.78595 1.08433)
(-9.63144e-16 -2.73809 1.39758)
(-9.41326e-16 -3.67709 1.53048)
(-8.91516e-16 -4.37227 1.37192)
(-8.25027e-16 -4.82547 1.05234)