/*--------------------------------*- C++ -*----------------------------------*\
| =========                 |                                                 |
| \\      /  F ield         | OpenFOAM: The Open Source CFD Toolbox           |
|  \\    /   O peration     | Version:  4.1                                   |
|   \\  /    A nd           | Web:      www.OpenFOAM.org                      |
|    \\/     M anipulation  |                                                 |
\*---------------------------------------------------------------------------*/
FoamFile
{
    version     2.0;
    format      ascii;
    class       volScalarField;
    location    "26";
    object      p;
}
// * * * * * * * * * * * * * * * * * * * * * * * * * * * * * * * * * * * * * //

dimensions      [0 2 -2 0 0 0 0];

internalField   nonuniform List<scalar> 
6785
(
583.555
505.061
458.064
404.721
358.033
313.115
271.313
231.811
194.538
159.335
125.456
92.4853
64.1924
35.0922
-5.20407
-31.0789
-48.6497
-38.7954
-45.8243
-45.2483
-47.6591
-48.3316
-48.8462
-48.4364
-47.1852
-44.9015
-41.8596
-37.6807
-32.2553
-28.1733
-7.34644
-10.255
-0.778683
-4.52117
-0.10453
-0.420177
1.15681
1.68199
2.44688
2.97899
3.49063
3.81039
4.30599
4.89264
7.51858
31.4678
30.4069
33.9818
30.1108
32.6416
30.7775
31.5154
31.1166
31.4131
31.5782
31.7929
31.6713
31.3556
31.1519
32.0602
30.2707
27.6322
29.7066
26.4925
28.6732
26.765
27.689
26.934
26.9691
26.3154
25.3856
24.1481
23.2828
22.424
20.3058
0.759997
-3.69561
-3.25886
-7.26299
-7.24124
-10.6437
-11.5771
-14.2637
-15.824
-17.6753
-18.7189
-19.3549
-19.9709
-21.1518
-22.3344
-29.1364
-32.5482
-31.6095
-34.6216
-34.0491
-36.6344
-36.8614
-38.6504
-39.3693
-40.1664
-40.258
-40.1849
-39.987
-39.9256
-38.0384
-22.0114
-22.182
-20.004
-20.9719
-18.8631
-19.3352
-18.0081
-17.8112
-17.0852
-16.6027
-15.881
-15.1672
-13.805
-12.3304
-9.3881
2.53022
3.8256
5.8698
5.97264
8.17948
8.68084
10.3892
11.4531
12.8699
14.183
15.6195
16.9713
18.5219
19.7204
21.2935
17.1468
18.4352
19.8423
20.0178
21.6011
21.9529
23.1347
23.8332
24.7545
25.5755
26.4594
27.2581
28.1876
28.8364
29.7764
30.2815
31.4684
32.4654
32.6123
33.8118
34.0273
34.9086
35.4081
36.0817
36.6996
37.3601
37.9849
38.7671
39.2853
40.2098
41.4065
42.3662
42.9817
43.2758
44.1291
44.2613
44.8578
44.9478
45.1249
45.1955
45.3547
45.751
46.3667
46.9509
47.589
57.1272
56.4164
55.4176
54.6245
54.4722
53.7497
53.3343
52.633
52.1248
51.5413
50.973
50.5222
50.045
50.1451
49.5239
45.4958
44.9174
42.759
40.0954
37.4884
34.802
32.996
31.4789
30.3649
29.1594
28.1521
27.4173
27.1776
27.6219
26.4716
73.9162
70.2923
63.3709
56.3725
49.9421
43.5
39.6569
37.0934
34.4768
32.6411
30.7374
28.3091
25.6871
23.7105
21.186
29.6241
30.2077
30.8097
30.7537
31.0267
31.917
32.9907
32.7288
32.6084
32.4824
33.2161
32.4745
32.299
32.5851
31.5509
31.3407
31.5661
31.632
29.9266
30.8164
30.7279
29.1462
28.9825
30.139
30.0412
28.376
28.285
29.5235
29.9764
27.8974
29.4854
29.9948
28.4596
28.4319
29.6798
30.4227
28.7979
30.0261
30.8086
29.7517
29.7431
30.7237
31.2686
30.4614
30.4995
31.3244
31.5805
30.7842
31.7057
32.0869
31.6375
31.7804
32.4174
33.2088
32.9935
33.098
33.4609
34.6568
34.5785
34.6126
35.7448
35.7083
35.6341
35.53
36.3078
36.4712
37.597
37.4321
36.3387
37.9781
40.0509
33.7882
30.8601
35.2199
41.1922
16.2135
28.5876
38.0519
-9.14465
5.58155
15.2898
15.2627
21.455
16.7523
16.0553
22.6537
23.2405
24.9873
25.7208
26.0691
25.3814
29.1566
35.1798
19.8857
19.9758
20.6466
21.2294
19.6015
19.0247
16.9765
19.6328
28.9744
14.8256
15.1484
13.298
13.3656
15.7344
16.2744
15.0208
14.5166
14.1947
26.9637
19.2904
18.4445
17.1735
15.6069
16.5021
18.8526
18.9644
14.4957
17.917
23.7462
25.2767
25.3447
22.8635
20.7957
18.4661
20.5156
15.4279
20.4296
28.437
22.2629
21.5438
19.6062
16.4011
14.0436
12.276
3.57057
6.93467
21.7834
15.8006
14.0548
10.877
5.88156
2.32412
1.86963
0.256683
-2.70756
-4.33002
5.28236
1.66245
2.20061
1.61455
0.931565
-3.2685
-4.36884
-1.89298
-12.5821
2.62449
-0.0192423
-1.63845
3.82333
2.59513
4.53543
5.00225
5.71361
6.2759
6.45207
6.59257
6.55791
6.63562
6.49043
6.12877
6.15126
5.69474
6.05354
5.45378
4.98984
5.09359
4.49163
5.4111
4.59816
3.50452
5.24025
3.95866
3.25898
3.72442
2.8014
4.89085
3.22655
2.55174
3.07142
2.15872
4.45841
2.92557
1.32035
4.44396
2.44694
1.68539
2.34783
1.35313
4.12216
2.07928
1.31028
2.00314
0.978525
3.59421
2.04682
0.176932
3.4365
1.73862
0.419569
1.44455
0.209631
2.8265
1.32331
0.0704425
1.0522
-0.0808907
2.25957
1.1479
-0.687414
2.2139
0.894271
-0.345045
0.631496
-0.459855
1.91783
0.551604
-0.537699
0.346275
-0.70126
1.55149
0.423851
-1.3698
1.54083
0.102877
-1.05173
-0.210056
-1.15507
-0.0253476
0.0718576
0.0508038
0.0785028
0.0856915
0.0931848
0.088702
0.0779519
0.0626614
0.0473752
0.0341692
0.0238525
0.0158281
0.00904774
0.00240802
-0.00490339
-0.0132544
-0.0224583
-0.031737
-0.0398205
-0.0453714
-0.0476333
-0.0464328
-0.0438117
-0.0592243
-0.132018
-0.145662
-0.332849
-0.363851
-0.350671
-0.478789
-0.620635
-0.751291
-0.859882
-0.938805
-0.979935
-0.98656
-0.960992
-0.90487
-0.823757
-0.719883
-0.597725
-0.462271
-0.317631
-0.167352
-0.0143026
0.138566
0.289175
0.435189
0.575115
0.708248
0.83317
0.946173
1.04431
1.12613
1.18478
1.2107
1.1913
1.10896
0.938915
0.695059
0.435161
0.210727
0.0751686
0.0105368
0.00156606
-0.00539255
-0.00899808
-0.00846283
-0.00598461
0.00425169
0.007932
0.015603
0.0163461
-0.061322
-0.0681453
0.0900719
-0.00310201
-0.0175618
-0.113856
0.123147
0.0115755
0.0308557
0.00418621
0.0017319
-0.00153016
0.00492402
0.0143699
0.0262751
0.0379004
0.0483884
0.0567885
0.0623564
0.0640295
0.0605307
0.0505136
0.0329784
0.00787345
-0.0233078
-0.0577947
-0.0930734
-0.127012
-0.156682
-0.197628
-0.313387
-0.315967
-0.458755
-0.483311
-0.486322
-0.731542
-0.982296
-1.21387
-1.40472
-1.54001
-1.60352
-1.60247
-1.54005
-1.41768
-1.24585
-1.03085
-0.782038
-0.508609
-0.217987
0.0828569
0.38771
0.691426
0.989194
1.27728
1.55367
1.81619
2.05875
2.27467
2.46286
2.61466
2.71115
2.73549
2.65793
2.43498
2.02997
1.48477
0.928922
0.46024
0.178578
0.0345445
0.0101591
-0.0118683
-0.0256427
-0.0284969
-0.0235177
0.00869102
0.0244921
0.0287599
0.039603
-0.120348
-0.28462
-0.00158667
0.0167267
0.0531639
-0.185506
0.234881
0.0636189
0.117671
0.0881294
0.0928264
0.0846174
0.083221
0.0810848
0.0818929
0.0840688
0.0873408
0.0899511
0.0899167
0.0847308
0.0718798
0.0492779
0.0160469
-0.0265665
-0.0746503
-0.122937
-0.167983
-0.20813
-0.241421
-0.294422
-0.471805
-0.523671
-0.369503
-0.492809
-0.513159
-0.806949
-1.10605
-1.38238
-1.60948
-1.77002
-1.84329
-1.83929
-1.76065
-1.60901
-1.39784
-1.13457
-0.830466
-0.496495
-0.14165
0.225511
0.597527
0.968127
1.33169
1.68372
2.02125
2.34094
2.63608
2.89944
3.12817
3.31064
3.42476
3.44881
3.34421
3.05895
2.55327
1.87946
1.19291
0.610423
0.258153
0.0659193
0.019077
-0.0233347
-0.0452887
-0.0457118
-0.0349586
0.0145112
0.040909
0.0288663
0.0332584
-0.108392
-0.377485
0.0778236
0.120919
0.0775715
-0.270404
0.307868
0.0647992
0.12968
0.0807621
0.0822272
0.0715939
0.075246
0.0810978
0.0917812
0.103516
0.115153
0.124223
0.128226
0.123957
0.108082
0.0777726
0.0319391
-0.0273055
-0.0939454
-0.160437
-0.222665
-0.279579
-0.328602
-0.394805
-0.590125
-0.680112
-0.271173
-0.60781
-0.616781
-0.967821
-1.34127
-1.68249
-1.96193
-2.15892
-2.24709
-2.24016
-2.14083
-1.95137
-1.68891
-1.36252
-0.986039
-0.572939
-0.134373
0.319037
0.778205
1.23532
1.68369
2.1177
2.53334
2.92606
3.28845
3.61225
3.89257
4.11512
4.25424
4.28272
4.15271
3.80201
3.18571
2.36526
1.52288
0.802573
0.35784
0.107147
0.0293555
-0.0360655
-0.0663949
-0.0648514
-0.0478528
0.0190009
0.0569747
0.0334268
0.031247
-0.107379
-0.463527
0.075921
0.145918
0.111527
-0.349641
0.376737
0.0773624
0.162496
0.107691
0.115065
0.105194
0.110227
0.11584
0.126368
0.138086
0.150042
0.159239
0.162334
0.154982
0.132687
0.0917978
0.0313066
-0.0451081
-0.128532
-0.208992
-0.282431
-0.349279
-0.407626
-0.482552
-0.681421
-0.794017
-0.220799
-0.700975
-0.715567
-1.12593
-1.58175
-1.99255
-2.32898
-2.5661
-2.67084
-2.66147
-2.54034
-2.31024
-1.99212
-1.59698
-1.14159
-0.642131
-0.112077
0.435691
0.990227
1.54209
2.08326
2.60698
3.10828
3.58141
4.01766
4.40755
4.74486
5.01215
5.17921
5.21358
5.05746
4.63653
3.89804
2.91312
1.89572
1.02286
0.469737
0.154799
0.0386999
-0.0526442
-0.0906217
-0.0847824
-0.0598259
0.0233858
0.0716691
0.03924
0.0307893
-0.108084
-0.505071
0.0956374
0.238048
0.155392
-0.419436
0.420544
0.0749139
0.172372
0.109446
0.119353
0.11042
0.119545
0.129912
0.146041
0.163293
0.180294
0.193399
0.198502
0.190249
0.163065
0.112545
0.0379647
-0.0549603
-0.154021
-0.24729
-0.33188
-0.410325
-0.481437
-0.567409
-0.758289
-0.880974
-0.299628
-0.722001
-0.818504
-1.27565
-1.81298
-2.28878
-2.67755
-2.95087
-3.06887
-3.05542
-2.91195
-2.64199
-2.27021
-1.80928
-1.27879
-0.697424
-0.0808078
0.556065
1.20054
1.84167
2.47021
3.07837
3.66024
4.20891
4.71459
5.16672
5.55783
5.8676
6.0618
6.10334
5.92517
5.44209
4.59234
3.45464
2.27178
1.25523
0.589968
0.210652
0.0475746
-0.0735253
-0.118649
-0.10703
-0.0723745
0.0271057
0.08634
0.0473443
0.027312
-0.101893
-0.526409
0.093574
0.25772
0.192417
-0.467274
0.44323
0.0722933
0.182217
0.118072
0.133729
0.127918
0.14085
0.154279
0.173508
0.193784
0.213676
0.229021
0.234855
0.224634
0.191528
0.130364
0.0410581
-0.0678754
-0.180563
-0.284125
-0.378004
-0.466811
-0.550249
-0.648318
-0.832009
-0.957824
-0.466576
-0.625698
-0.947879
-1.43314
-2.05565
-2.59785
-3.03891
-3.34773
-3.47753
-3.45889
-3.29181
-2.98092
-2.55471
-2.02743
-1.42156
-0.758237
-0.0552445
0.670341
1.40421
2.13392
2.84906
3.54081
4.20232
4.8256
5.39984
5.91352
6.35795
6.71018
6.93235
6.98318
6.78687
6.24804
5.29472
4.011
2.66565
1.50865
0.720332
0.272748
0.0526419
-0.100792
-0.151631
-0.131913
-0.0853555
0.0302544
0.0971384
0.0579799
0.0213653
-0.0929836
-0.524706
0.092577
0.355064
0.210221
-0.486746
0.440925
0.0654332
0.183011
0.119579
0.139793
0.13736
0.154611
0.172442
0.196404
0.221442
0.245809
0.264738
0.272333
0.2608
0.222003
0.150109
0.0462291
-0.0774328
-0.201495
-0.313843
-0.417018
-0.51709
-0.614566
-0.727135
-0.907575
-1.02878
-0.636285
-0.486576
-1.11022
-1.599
-2.30696
-2.91831
-3.41245
-3.75655
-3.89706
-3.87239
-3.68049
-3.3274
-2.84547
-2.25059
-1.56818
-0.821846
-0.0315267
0.783612
1.60761
2.42655
3.22885
4.00467
4.74624
5.44451
6.0877
6.66335
7.1617
7.55733
7.80892
7.87147
7.66063
7.07098
6.01862
4.59116
3.08189
1.7848
0.858985
0.338475
0.0522139
-0.135624
-0.19064
-0.160299
-0.0992699
0.0336479
0.101324
0.0696915
0.0136434
-0.0824781
-0.507949
0.0839187
0.434774
0.263432
-0.475203
0.417721
0.0591661
0.181254
0.12257
0.147911
0.149951
0.171613
0.193701
0.221955
0.251328
0.279829
0.30213
0.311312
0.29818
0.253152
0.16988
0.0514904
-0.0852339
-0.218472
-0.338866
-0.451783
-0.563741
-0.676079
-0.804571
-0.986885
-1.10317
-0.788416
-0.450979
-1.2708
-1.77768
-2.56532
-3.24868
-3.79617
-4.17426
-4.32348
-4.29138
-4.07312
-3.6765
-3.13777
-2.47444
-1.71495
-0.885308
-0.00759154
0.896981
1.81085
2.71863
3.60763
4.46702
5.28812
6.06087
6.77255
7.40987
7.96213
8.40163
8.68383
8.76054
8.53915
7.90423
6.75831
5.19046
3.51721
2.08069
1.00667
0.405158
0.0435911
-0.180114
-0.237089
-0.192847
-0.114316
0.0379627
0.0988984
0.0797029
0.00476171
-0.0702365
-0.478924
0.0720286
0.473991
0.307625
-0.436633
0.377897
0.0533232
0.175474
0.12381
0.15349
0.160373
0.186563
0.21345
0.246628
0.281101
0.314499
0.340868
0.352137
0.337545
0.285948
0.190833
0.0585568
-0.0890439
-0.229907
-0.358751
-0.482481
-0.607439
-0.735967
-0.88198
-1.07122
-1.1907
-0.95116
-0.584626
-1.35235
-1.97582
-2.83299
-3.59133
-4.19322
-4.60398
-4.75969
-4.71847
-4.47203
-4.03029
-3.43341
-2.70052
-1.86322
-0.949802
0.0155031
1.00947
2.01299
3.00926
3.98452
4.92695
5.82702
6.67367
7.45335
8.15201
8.75812
9.24193
9.55598
9.64941
9.42161
8.74716
7.51332
5.80834
3.97132
2.39046
1.16753
0.46976
0.0239228
-0.236186
-0.292275
-0.230231
-0.13066
0.04175
0.0936043
0.0858346
-0.00412814
-0.0566012
-0.441121
0.0596783
0.565499
0.333693
-0.378663
0.327846
0.0493807
0.167858
0.125642
0.159373
0.171773
0.20264
0.234606
0.272888
0.312704
0.351271
0.381988
0.395471
0.379153
0.320198
0.212627
0.0675586
-0.0888013
-0.236955
-0.375389
-0.510986
-0.650018
-0.795981
-0.960976
-1.16166
-1.2944
-1.13227
-0.823592
-1.31379
-2.20443
-3.11403
-3.94726
-4.60566
-5.04777
-5.20773
-5.15552
-4.87885
-4.39016
-3.73352
-2.92972
-2.01358
-1.01568
0.0376324
1.12117
2.21434
3.29894
4.36018
5.38531
6.36395
7.28409
8.13143
8.89124
9.5513
10.08
10.4272
10.5401
10.3101
9.60168
8.28507
6.44511
4.44462
2.70594
1.34165
0.528536
-0.00950435
-0.3061
-0.357752
-0.273152
-0.148036
0.0405437
0.0873192
0.0873411
-0.0117599
-0.0417373
-0.39609
0.0478538
0.642113
0.391684
-0.3103
0.272878
0.0471831
0.158495
0.127377
0.164581
0.182969
0.218674
0.256183
0.300054
0.345817
0.390174
0.425784
0.441717
0.423272
0.355907
0.235514
0.0793467
-0.0843798
-0.240678
-0.389885
-0.538194
-0.692457
-0.85729
-1.04296
-1.25919
-1.41346
-1.32517
-1.08166
-1.21538
-2.47992
-3.41532
-4.31659
-5.03495
-5.50694
-5.66883
-5.60351
-5.29423
-4.75652
-4.0383
-3.16206
-2.16593
-1.08275
0.0590626
1.23238
2.41518
3.58794
4.73488
5.84234
6.89912
7.89233
8.80697
9.62771
10.3418
10.916
11.2978
11.4328
11.205
10.468
9.07343
7.09977
4.9371
3.02069
1.52292
0.576638
-0.0595924
-0.392341
-0.435102
-0.322405
-0.166999
0.0317931
0.0780094
0.0838043
-0.0172415
-0.0254787
-0.344411
0.0397137
0.691196
0.429127
-0.239179
0.217198
0.0468196
0.148329
0.129735
0.170083
0.195048
0.235843
0.279361
0.329259
0.381492
0.43216
0.473062
0.491384
0.469859
0.392601
0.259487
0.0940242
-0.0770496
-0.242871
-0.403534
-0.565183
-0.735831
-0.920973
-1.12912
-1.36479
-1.54684
-1.52636
-1.33475
-1.18779
-2.80341
-3.74499
-4.69922
-5.48255
-5.98312
-6.14455
-6.06383
-5.71928
-5.13019
-4.34833
-3.3979
-2.32047
-1.15106
0.0798144
1.34317
2.61562
3.87636
5.10869
6.29809
7.43257
8.49838
9.47992
10.3613
11.1295
11.7497
12.1675
12.3274
12.1063
11.346
9.87791
7.77105
5.44863
3.32969
1.70376
0.609358
-0.129487
-0.497625
-0.526248
-0.379919
-0.191976
0.0139009
0.0629689
0.0751894
-0.0200246
-0.0073788
-0.285896
0.0398172
0.752397
0.493722
-0.170505
0.163256
0.0479527
0.137755
0.132719
0.175937
0.208033
0.254221
0.304297
0.360783
0.420144
0.477742
0.524299
0.544607
0.518391
0.429653
0.284652
0.111011
-0.0685824
-0.24481
-0.416994
-0.592542
-0.780726
-0.987632
-1.22021
-1.47912
-1.69404
-1.73837
-1.6075
-1.33444
-3.14403
-4.11014
-5.09536
-5.94964
-6.47784
-6.63649
-6.53797
-6.15528
-5.51212
-4.66425
-3.6377
-2.47746
-1.22073
0.0998891
1.45361
2.81577
4.16437
5.4818
6.75276
7.96448
9.10241
10.1505
11.0923
11.9145
12.5814
13.0365
13.224
13.0142
12.2357
10.698
8.45777
5.97874
3.63461
1.87671
0.622593
-0.22253
-0.625008
-0.6337
-0.450187
-0.22901
-0.0151259
0.0412225
0.0619563
-0.0198031
0.0132492
-0.2202
0.0506727
0.770332
0.543192
-0.10688
0.112272
0.0504012
0.127381
0.136734
0.182745
0.222577
0.27455
0.331781
0.395456
0.462604
0.527684
0.579971
0.601144
0.56782
0.466401
0.310757
0.128671
-0.0607516
-0.247199
-0.430668
-0.620715
-0.827542
-1.0576
-1.3166
-1.60244
-1.85467
-1.96461
-1.92063
-1.67859
-3.44721
-4.51505
-5.50661
-6.43711
-6.99249
-7.14611
-7.02731
-6.60345
-5.90327
-4.98672
-3.88183
-2.63712
-1.29183
0.119337
1.56384
3.01583
4.45215
5.85442
7.20655
8.49504
9.70461
10.8188
11.8208
12.697
13.4111
13.9047
14.1228
13.9288
13.137
11.5329
9.15856
6.51705
3.94713
2.03592
0.612234
-0.3423
-0.777735
-0.760968
-0.538357
-0.281489
-0.0561728
0.0120317
0.0447002
-0.0164421
0.0371894
-0.147327
0.0799497
0.820796
0.567831
-0.0489613
0.0645752
0.0540043
0.117692
0.142062
0.190931
0.239106
0.297321
0.362356
0.433879
0.509497
0.582493
0.640101
0.660015
0.616689
0.502334
0.336806
0.144961
-0.054451
-0.250055
-0.444643
-0.649848
-0.876349
-1.13088
-1.41822
-1.73451
-2.02803
-2.20645
-2.27327
-2.16576
-3.65723
-4.9642
-5.9373
-6.94593
-7.52823
-7.67476
-7.53319
-7.06503
-6.30464
-5.31643
-4.13073
-2.79967
-1.36443
0.138202
1.67398
3.21596
4.73991
6.22674
7.65964
9.02443
10.3051
11.4849
12.5467
13.477
14.2387
14.7722
15.0234
14.8501
14.0495
12.3812
9.8728
7.04157
4.27561
2.17742
0.574383
-0.492749
-0.959755
-0.913451
-0.648061
-0.351446
-0.110375
-0.0254497
0.0239937
-0.00992279
0.0651432
-0.0680403
0.12367
0.852348
0.643503
0.00374335
0.0201321
0.0587626
0.109244
0.149129
0.201087
0.258229
0.323213
0.396732
0.476778
0.561474
0.642508
0.704148
0.719499
0.663591
0.536866
0.360956
0.158414
-0.0495334
-0.253055
-0.458858
-0.679897
-0.927022
-1.20723
-1.52474
-1.87474
-2.2133
-2.46391
-2.653
-2.71083
-3.74432
-5.46734
-6.3954
-7.4776
-8.08625
-8.22358
-8.05688
-7.54129
-6.71729
-5.65414
-4.38487
-2.96533
-1.4386
0.156523
1.78416
3.41633
5.02783
6.59896
8.11223
9.55281
10.9041
12.1491
13.2703
14.2544
15.0643
15.6388
15.9258
15.7778
14.9729
13.2414
10.6015
7.53593
4.60852
2.29451
0.505303
-0.678121
-1.17602
-1.09691
-0.782714
-0.441655
-0.179297
-0.0719033
0.000300602
-0.000329441
0.0976887
0.0165532
0.179165
0.868087
0.696993
0.0521448
-0.0211511
0.0647732
0.102582
0.158361
0.213773
0.280501
0.352827
0.435515
0.524738
0.61895
0.707563
0.770676
0.777365
0.70753
0.568859
0.381267
0.168934
-0.0451309
-0.255757
-0.473108
-0.710642
-0.979248
-1.28625
-1.63565
-2.0224
-2.40962
-2.73594
-3.04313
-3.22915
-3.75128
-6.04846
-6.89319
-8.03404
-8.66781
-8.79362
-8.59944
-8.03343
-7.14227
-6.00066
-4.64476
-3.13439
-1.51442
0.174343
1.89449
3.61713
5.31615
6.97131
8.56453
10.0804
11.5017
12.8113
13.9915
15.0292
15.8876
16.5042
16.8294
16.7119
15.9066
14.1117
11.3466
7.99825
4.92784
2.3806
0.401153
-0.902811
-1.43165
-1.31611
-0.945924
-0.554635
-0.26409
-0.127645
-0.0260617
0.0121579
0.135223
0.105479
0.248581
0.926929
0.741528
0.0970933
-0.0592104
0.0722281
0.0982743
0.170229
0.229583
0.306498
0.386765
0.479277
0.578234
0.682052
0.7768
0.837349
0.83158
0.747811
0.596546
0.396901
0.177731
-0.0402162
-0.257744
-0.487115
-0.741759
-1.03262
-1.36743
-1.75035
-2.17675
-2.61625
-3.02138
-3.43445
-3.68996
-3.80957
-6.73926
-7.44396
-8.61737
-9.27475
-9.38598
-9.16175
-8.54257
-7.58062
-6.3568
-4.91097
-3.30713
-1.59199
0.191711
2.00512
3.81855
5.60508
7.34401
9.01675
10.6073
12.0981
13.4717
14.7105
15.8014
16.7086
17.3682
17.734
17.652
16.8496
14.9901
12.1033
8.44928
5.21977
2.43232
0.258372
-1.17127
-1.73198
-1.57664
-1.14202
-0.692753
-0.36567
-0.192794
-0.0549355
0.0272788
0.177898
0.197996
0.331249
1.00082
0.848958
0.139125
-0.0937613
0.0813623
0.0968797
0.185183
0.24906
0.336722
0.425525
0.528444
0.637496
0.750386
0.848389
0.901329
0.880914
0.783451
0.618386
0.408792
0.186581
-0.0339626
-0.258661
-0.500563
-0.772876
-1.08669
-1.45029
-1.86832
-2.33713
-2.83266
-3.31974
-3.83006
-4.1372
-4.06139
-7.53993
-8.06058
-9.22946
-9.90908
-10.0022
-9.74458
-9.06963
-8.03332
-6.72338
-5.18407
-3.48388
-1.6714
0.208672
2.1162
4.02081
5.89485
7.71731
9.46913
11.1339
12.6934
14.1305
15.4272
16.5709
17.5271
18.2304
18.6388
18.5979
17.8009
15.875
12.8351
8.91779
5.48033
2.44673
0.0734369
-1.48786
-2.08262
-1.88511
-1.37591
-0.858538
-0.485032
-0.267474
-0.0863245
0.0447104
0.225611
0.293607
0.426182
1.08934
0.904303
0.178402
-0.124315
0.09242
0.0989254
0.203637
0.272684
0.371591
0.469491
0.583265
0.702424
0.822821
0.919544
0.960205
0.924851
0.812999
0.63433
0.419209
0.197028
-0.0258453
-0.258216
-0.513139
-0.803618
-1.14103
-1.53436
-1.98906
-2.50305
-3.05841
-3.63086
-4.23775
-4.62913
-4.60483
-8.41016
-8.74862
-9.87085
-10.5734
-10.6444
-10.3489
-9.61538
-8.50122
-7.10117
-5.46464
-3.665
-1.7528
0.22527
2.22786
4.22411
6.18572
8.09146
9.92191
11.6602
13.2878
14.7878
16.1416
17.3376
18.3428
19.0903
19.5434
19.5491
18.7588
16.7686
13.4965
9.40159
5.70619
2.42097
-0.157299
-1.85676
-2.48937
-2.24837
-1.65235
-1.05441
-0.623143
-0.351865
-0.120376
0.0640814
0.278033
0.391848
0.530264
1.20144
1.06505
0.214769
-0.150259
0.105613
0.104873
0.225922
0.300828
0.411398
0.51889
0.643754
0.772418
0.897259
0.98706
1.0128
0.96279
0.835419
0.646304
0.430628
0.210017
-0.0155839
-0.256185
-0.524558
-0.833636
-1.19525
-1.61924
-2.1122
-2.67408
-3.29303
-3.95427
-4.66256
-5.19029
-5.44445
-9.29712
-9.50943
-10.5429
-11.2695
-11.3156
-10.9759
-10.1805
-8.98501
-7.49088
-5.75326
-3.85087
-1.83632
0.241534
2.34025
4.42867
6.47794
8.46674
10.3754
12.1866
13.8816
15.4436
16.8539
18.1013
19.1555
19.9476
20.4467
20.5054
19.7215
17.6786
14.0748
9.86618
5.88878
2.35204
-0.437158
-2.28184
-2.95826
-2.67343
-1.97602
-1.28271
-0.780925
-0.446211
-0.157348
0.0849907
0.334658
0.492422
0.639163
1.2984
1.1568
0.247866
-0.170953
0.121095
0.115093
0.252278
0.333749
0.456304
0.57377
0.70961
0.846175
0.970668
1.04842
1.05899
0.993678
0.851369
0.657396
0.444813
0.225939
-0.00305439
-0.252387
-0.534554
-0.8626
-1.24898
-1.70458
-2.2374
-2.84983
-3.53598
-4.28928
-5.1072
-5.82658
-6.54422
-10.1527
-10.3351
-11.244
-11.9991
-12.019
-11.6278
-10.766
-9.48523
-7.89305
-6.05045
-4.04184
-1.92215
0.257483
2.45354
4.63471
6.77179
8.84344
10.8298
12.7132
14.4749
16.0981
17.564
18.8619
19.9649
20.8016
21.348
21.4666
20.6871
18.6157
14.6155
10.282
6.02754
2.23764
-0.769281
-2.76693
-3.4961
-3.16734
-2.35138
-1.54569
-0.959258
-0.550835
-0.197578
0.107031
0.394855
0.595246
0.751993
1.42235
1.29821
0.277242
-0.185817
0.138943
0.129853
0.282835
0.371582
0.506332
0.633975
0.780092
0.921471
1.0397
1.10269
1.09863
1.01688
0.863498
0.670458
0.462582
0.24485
0.0117931
-0.246656
-0.542863
-0.890187
-1.30188
-1.79004
-2.36431
-3.02987
-3.78655
-4.63485
-5.57166
-6.52897
-7.82987
-10.9001
-11.2133
-11.9771
-12.763
-12.7578
-12.307
-11.3731
-10.0024
-8.30809
-6.35661
-4.23825
-2.01045
0.273123
2.56786
4.84248
7.06753
9.22184
11.2854
13.2405
15.068
16.7515
18.272
19.6194
20.7708
21.6519
22.2462
22.4322
21.653
19.5333
15.1832
10.6439
6.12406
2.07616
-1.15673
-3.31663
-4.11066
-3.73667
-2.78233
-1.84532
-1.15895
-0.666142
-0.241458
0.129805
0.457902
0.700185
0.866659
1.53721
1.48808
0.302438
-0.194379
0.159164
0.149318
0.317632
0.414349
0.561361
0.699084
0.853815
0.995199
1.10194
1.15022
1.13096
1.03351
0.875362
0.687213
0.484072
0.266663
0.0290068
-0.2388
-0.549194
-0.91605
-1.35357
-1.87524
-2.49255
-3.2137
-4.04387
-4.98957
-6.05338
-7.27363
-9.18255
-11.5111
-12.1345
-12.7412
-13.5615
-13.5349
-13.0162
-12.0035
-10.5373
-8.73626
-6.67202
-4.44038
-2.10137
0.288458
2.68337
5.05221
7.36546
9.60227
11.7426
13.7686
15.661
17.404
18.9779
20.3735
21.5728
22.4976
23.1402
23.4018
22.6214
20.3266
15.8011
10.9592
6.17686
1.86571
-1.60214
-3.93582
-4.80906
-4.38752
-3.27223
-2.18333
-1.38076
-0.792614
-0.289411
0.152946
0.522997
0.807406
0.982326
1.64193
1.61417
0.323034
-0.196281
0.18171
0.17356
0.356623
0.46196
0.621108
0.768289
0.928527
1.06405
1.15679
1.19123
1.15556
1.04659
0.889904
0.708244
0.509113
0.291293
0.0486932
-0.228564
-0.553205
-0.939802
-1.40367
-1.95978
-2.62167
-3.40064
-4.30679
-5.35166
-6.54763
-8.03005
-10.4657
-11.9508
-13.0689
-13.5425
-14.3943
-14.3521
-13.7581
-12.6594
-11.0909
-9.17783
-6.9968
-4.64839
-2.19503
0.303501
2.80021
5.26416
7.66587
9.98505
12.2017
14.298
16.2544
18.0557
19.6818
21.1242
22.3707
23.3383
24.0288
24.3741
23.6093
20.9342
16.4133
11.2168
6.18385
1.6054
-2.10722
-4.62876
-5.59764
-5.12632
-3.82422
-2.56116
-1.62536
-0.930813
-0.341864
0.176137
0.589227
0.915921
1.09823
1.76256
1.77515
0.338656
-0.191268
0.206496
0.20257
0.399687
0.514212
0.685066
0.84019
1.00116
1.1258
1.205
1.22508
1.1737
1.05986
0.908686
0.733471
0.53749
0.318741
0.0710574
-0.215612
-0.554491
-0.961011
-1.45171
-2.04318
-2.7511
-3.58986
-4.57392
-5.71885
-7.04831
-8.76482
-11.5363
-12.2567
-14.0313
-14.3834
-15.2605
-15.2106
-14.5349
-13.3427
-11.6647
-9.63323
-7.33098
-4.86232
-2.29146
0.318287
2.91855
5.4786
7.9691
10.3705
12.6631
14.8289
16.8485
18.7069
20.384
21.8713
23.1641
24.173
24.911
25.3476
24.6647
21.429
16.9629
11.4209
6.14439
1.29557
-2.67229
-5.39867
-6.48274
-5.95983
-4.44118
-2.97992
-1.89334
-1.08138
-0.399236
0.199126
0.656027
1.02284
1.2127
1.87256
1.96147
0.348993
-0.179186
0.233403
0.236253
0.44662
0.570759
0.752387
0.912571
1.06853
1.18023
1.24696
1.25135
1.18857
1.07619
0.93209
0.762604
0.569082
0.349138
0.0964132
-0.199532
-0.552601
-0.979211
-1.49722
-2.12491
-2.88016
-3.78035
-4.84353
-6.08826
-7.54819
-9.45153
-12.3495
-12.5424
-15.0001
-15.2684
-16.1577
-16.1103
-15.3482
-14.0555
-12.2603
-10.1031
-7.67457
-5.08208
-2.39063
0.33289
3.03855
5.6958
8.27547
10.759
13.1271
15.3617
17.4434
19.3578
21.0844
22.6148
23.9529
25.0011
25.7859
26.3157
25.8271
21.9351
17.4189
11.5857
6.05915
0.937395
-3.29605
-6.24704
-7.46943
-6.8939
-5.12535
-3.44023
-2.1851
-1.24504
-0.461916
0.221769
0.723646
1.12564
1.32555
1.97439
2.08396
0.353828
-0.159996
0.262281
0.274427
0.497127
0.631055
0.821669
0.98246
1.12871
1.22833
1.28199
1.27138
1.2039
1.09697
0.959927
0.795412
0.603926
0.382754
0.125165
-0.179866
-0.547062
-0.993923
-1.53969
-2.2044
-3.00809
-3.97088
-5.1135
-6.45628
-8.03917
-10.0745
-12.9247
-12.896
-15.9828
-16.1977
-17.0815
-17.0495
-16.1989
-14.799
-12.8793
-10.5885
-8.0277
-5.30751
-2.49239
0.347443
3.16041
5.91606
8.58538
11.1509
13.594
15.8968
18.0397
20.0088
21.7833
23.3546
24.7367
25.8216
26.6522
27.2646
26.9314
22.5706
17.8076
11.7128
5.92918
0.533518
-3.97545
-7.17305
-8.56009
-7.93221
-5.87776
-3.94208
-2.50081
-1.42258
-0.53025
0.244067
0.792583
1.22457
1.4371
2.0841
2.25869
0.353074
-0.133801
0.29294
0.316816
0.550795
0.694244
0.890748
1.0469
1.18178
1.27049
1.30962
1.28838
1.22243
1.12246
0.991903
0.831816
0.642215
0.419964
0.157766
-0.156146
-0.537415
-1.00468
-1.57862
-2.28101
-3.13399
-4.15996
-5.38126
-6.81844
-8.513
-10.6303
-13.3519
-13.3866
-16.9561
-17.1641
-18.0256
-18.0247
-17.0868
-15.5738
-13.5231
-11.0905
-8.39072
-5.53842
-2.59646
0.362157
3.28436
6.1397
8.89922
11.5468
14.0644
16.4347
18.6378
20.6602
22.481
24.0908
25.5154
26.6336
27.5088
28.1917
27.76
23.2839
18.1196
11.8015
5.75702
0.0883994
-4.70552
-8.17307
-9.75337
-9.07531
-6.69762
-4.48461
-2.84031
-1.61483
-0.604545
0.266223
0.863165
1.32092
1.54727
2.17502
2.381
0.34678
-0.100855
0.325147
0.363047
0.607045
0.758958
0.956781
1.1043
1.22885
1.30587
1.3312
1.30602
1.24541
1.15247
1.02783
0.87191
0.684267
0.461194
0.194663
-0.127941
-0.523244
-1.01107
-1.61353
-2.35412
-3.25687
-4.34586
-5.64368
-7.16944
-8.96119
-11.1226
-13.726
-14.1092
-17.8432
-18.1558
-18.9829
-19.0305
-18.0102
-16.3796
-14.1923
-11.61
-8.76416
-5.77474
-2.70252
0.377326
3.41067
6.36705
9.21742
11.947
14.5388
16.9757
19.2379
21.3123
23.1777
24.8234
26.2889
27.4366
28.3555
29.1281
28.2362
23.9789
18.3399
11.8547
5.54742
-0.39178
-5.47908
-9.24028
-11.0434
-10.3198
-7.58165
-5.06578
-3.20294
-1.82264
-0.685063
0.288664
0.935746
1.4156
1.65631
2.28166
2.51696
0.335106
-0.0615407
0.358624
0.41264
0.665015
0.823118
1.01707
1.15501
1.27015
1.33395
1.35003
1.32689
1.27304
1.18675
1.0677
0.915927
0.730462
0.506861
0.23625
-0.0948946
-0.504211
-1.01272
-1.64396
-2.42306
-3.3756
-4.52652
-5.89711
-7.50332
-9.37577
-11.5567
-14.0847
-15.0226
-18.5819
-19.1545
-19.9481
-20.0602
-18.9662
-17.215
-14.8869
-12.1477
-9.1486
-6.01653
-2.81026
0.39332
3.53966
6.59845
9.54042
12.3521
15.0176
17.5204
19.8407
21.9656
23.8737
25.5525
27.0571
28.2304
29.1947
30.1935
28.5219
24.5947
18.496
11.8753
5.30537
-0.899646
-6.28724
-10.3649
-12.4194
-11.6575
-8.52339
-5.68192
-3.58739
-2.04687
-0.772013
0.312032
1.01108
1.50912
1.76357
2.37787
2.66717
0.31824
-0.0163176
0.393045
0.46497
0.723367
0.884078
1.07037
1.20014
1.30465
1.35624
1.36968
1.35211
1.30515
1.22519
1.11164
0.964176
0.781171
0.557314
0.282827
-0.0567458
-0.480062
-1.00934
-1.66951
-2.48713
-3.48889
-4.69954
-6.13745
-7.81408
-9.75107
-11.9421
-14.4514
-16.0389
-19.0878
-20.1514
-20.9208
-21.1078
-19.9507
-18.077
-15.6056
-12.7036
-9.54445
-6.26399
-2.91941
0.410552
3.67172
6.83429
9.86869
12.7627
15.5016
18.0695
20.4466
22.6205
24.5696
26.2784
27.8198
29.015
30.0203
31.5396
28.8025
25.0958
18.6153
11.8659
5.03579
-1.42785
-7.12117
-11.5363
-13.8674
-13.0753
-9.51254
-6.3273
-3.99151
-2.28835
-0.86552
0.337216
1.09021
1.60243
1.86939
2.46606
2.79771
0.296302
0.0343292
0.428013
0.519173
0.780104
0.939489
1.1173
1.23967
1.33192
1.37612
1.39258
1.38186
1.34157
1.26779
1.15986
1.01697
0.836694
0.612796
0.334576
-0.013347
-0.450648
-1.00072
-1.68979
-2.5456
-3.5953
-4.86221
-6.36047
-8.09667
-10.085
-12.2897
-14.8254
-17.0196
-19.3171
-21.1572
-21.9103
-22.1699
-20.9591
-18.962
-16.3461
-13.2768
-9.95175
-6.5173
-3.02981
0.429436
3.80726
7.07494
10.2027
13.1794
15.9915
18.6235
21.0563
23.2774
25.2656
27.0013
28.5767
29.79
30.7994
32.9795
29.244
25.5184
18.7052
11.8286
4.74327
-1.97094
-7.97457
-12.7461
-15.3737
-14.5582
-10.5351
-6.99377
-4.41211
-2.54782
-0.965599
0.365412
1.17455
1.69659
1.97396
2.56349
2.93395
0.269234
0.0899333
0.46301
0.573968
0.832772
0.988528
1.15888
1.27241
1.35369
1.39708
1.41972
1.41598
1.38221
1.31469
1.21261
1.07456
0.897219
0.673419
0.391555
0.0353332
-0.415921
-0.986728
-1.70447
-2.59769
-3.6932
-5.01167
-6.56233
-8.3482
-10.3794
-12.6083
-15.1873
-17.8094
-19.3634
-22.2117
-22.9368
-23.2465
-21.9878
-19.8656
-17.1049
-13.8654
-10.3699
-6.77645
-3.14136
0.450351
3.94674
7.32083
10.5428
13.6028
16.4879
19.1835
21.6705
23.9371
25.9623
27.7218
29.3274
30.5567
31.4977
34.1873
29.8003
25.8546
18.77
11.7659
4.43046
-2.5267
-8.84495
-13.992
-16.9292
-16.0928
-11.5746
-7.67061
-4.84481
-2.82583
-1.0721
0.398185
1.26597
1.79264
2.07639
2.6534
3.08549
0.236671
0.150065
0.497278
0.627522
0.879382
1.03204
1.19484
1.29807
1.37346
1.42139
1.45125
1.45436
1.42711
1.36606
1.27009
1.13708
0.962799
0.739163
0.453694
0.0892109
-0.375937
-0.967323
-1.71326
-2.64258
-3.78083
-5.14518
-6.74048
-8.5687
-10.6395
-12.9047
-15.5236
-18.3587
-19.4918
-23.3503
-24.0255
-24.3409
-23.0353
-20.784
-17.878
-14.4666
-10.7976
-7.04106
-3.2539
0.473627
4.09061
7.57237
10.8894
14.0333
16.9917
19.7502
22.29
24.6
26.6603
28.4403
30.0713
31.3176
32.1129
34.9793
30.3724
26.0931
18.8162
11.6784
4.09735
-3.09584
-9.73327
-15.2786
-18.5318
-17.6717
-12.6138
-8.34474
-5.28388
-3.12269
-1.18457
0.437591
1.36689
1.89206
2.17436
2.73886
3.2266
0.197812
0.214303
0.529656
0.6777
0.919546
1.07094
1.22392
1.31867
1.39466
1.44991
1.48703
1.49694
1.47637