/*--------------------------------*- C++ -*----------------------------------*\
| =========                 |                                                 |
| \\      /  F ield         | OpenFOAM: The Open Source CFD Toolbox           |
|  \\    /   O peration     | Version:  4.1                                   |
|   \\  /    A nd           | Web:      www.OpenFOAM.org                      |
|    \\/     M anipulation  |                                                 |
\*---------------------------------------------------------------------------*/
FoamFile
{
    version     2.0;
    format      ascii;
    class       volScalarField;
    location    "21";
    object      p;
}
// * * * * * * * * * * * * * * * * * * * * * * * * * * * * * * * * * * * * * //

dimensions      [0 2 -2 0 0 0 0];

internalField   nonuniform List<scalar> 
225
(
653.38
600.048
548.468
499.858
454.913
413.115
374.07
337.181
301.955
268.447
237.56
209.416
179.85
144.279
115.398
186.895
164.806
157.187
156.105
155.335
150.57
142.4
135.201
131.945
131.606
131.624
130.726
131.332
133.717
134.123
97.2333
93.4257
103.694
109.194
104.872
99.0639
100.355
108.476
116.437
119.205
118.671
119.515
123.722
126.863
126.558
139.395
134.017
133.121
127.979
129.485
135.396
139.715
136.692
131.751
131.762
134.649
134.789
133.096
133.602
133.568
154.512
149.351
153.279
151.522
150.403
154.512
154.595
149.124
143.81
140.835
140.903
141.558
142.41
142.481
143.315
114.502
122.436
138.996
145.036
138.585
132.596
132.928
134.516
133.615
133.612
132.477
133.432
142.784
138.849
135.221
104.002
105.172
107.982
101.25
100.681
107.903
111.972
113.072
117.208
123.203
129.35
128.892
117.395
106.697
105.437
87.063
85.454
90.5451
98.0969
105.185
105.444
101.568
99.659
98.1635
92.0024
82.8998
74.296
66.652
62.9611
67.5016
91.7707
86.3762
89.0545
81.5509
67.0297
57.6218
56.6543
54.5087
49.5435
43.0962
39.4092
44.6277
59.8088
72.9908
79.7898
81.9141
68.7533
67.6154
67.9265
70.1111
76.0803
78.4389
75.201
75.3353
85.9536
103.851
119.357
127.098
124.933
121.2
107.099
112.435
120.982
127.648
131.505
133.907
137.29
146.287
161.262
177.25
184.279
175.812
164.044
160.938
154.166
151.796
150.193
142.428
136.141
132.904
139.15
147.111
148.683
143.492
135.481
132.722
132.472
124.362
113.04
104.729
103.64
100.321
95.2761
91.2656
84.3622
84.6781
98.4575
104.552
93.4613
81.5423
73.7397
69.5249
70.1134
69.0475
64.1284
92.2608
81.5559
84.2277
85.3896
78.5988
72.0531
72.8261
85.3431
96.8419
88.7665
67.5201
60.4583
66.5744
78.6634
85.8882
-26.6857
27.5976
19.3039
-10.1052
33.1967
26.2902
10.4311
1.1204
-5.90382
-3.24666
-1.21505
-3.23727
-1.96409
-3.34857
-12.2868
)
;

boundaryField
{
    inletFace
    {
        type            zeroGradient;
    }
    inlet
    {
        type            zeroGradient;
    }
    inletWalls
    {
        type            zeroGradient;
    }
    outletInlet
    {
        type            fixedValue;
        value           uniform 0;
    }
}


// ************************************************************************* //
