/*--------------------------------*- C++ -*----------------------------------*\
| =========                 |                                                 |
| \\      /  F ield         | OpenFOAM: The Open Source CFD Toolbox           |
|  \\    /   O peration     | Version:  4.1                                   |
|   \\  /    A nd           | Web:      www.OpenFOAM.org                      |
|    \\/     M anipulation  |                                                 |
\*---------------------------------------------------------------------------*/
FoamFile
{
    version     2.0;
    format      ascii;
    class       surfaceScalarField;
    location    "21";
    object      phi;
}
// * * * * * * * * * * * * * * * * * * * * * * * * * * * * * * * * * * * * * //

dimensions      [0 3 -1 0 0 0 0];

internalField   nonuniform List<scalar> 
420
(
-949.996
2249.9
-1561.52
1911.73
-2045.08
1783.47
-2425.32
1680.14
-2708.2
1583.08
-2890.45
1482.16
-2979.06
1388.52
-2987.75
1308.89
-2923.66
1235.82
-2778.22
1154.46
-2534.18
1056.16
-2172.4
938.125
-1671.21
798.711
-1033.37
662.367
266.533
388.175
1861.76
457.745
1842.21
456.915
1784.34
440.831
1696.28
455.458
1568.5
472.175
1465.49
457.424
1403.32
423.035
1343.32
403.18
1255.72
409.707
1147.98
417.925
1047.98
382.904
973.2
282.626
899.048
161.959
783.095
428.494
21.4422
1840.36
-57.852
1921.55
-200.39
1926.92
-269.536
1765.47
-305.874
1604.89
-361.257
1520.92
-429.807
1471.92
-484.554
1398.12
-522.834
1294.06
-542.637
1167.86
-542.76
1048.17
-530.59
961.167
-472.548
841.17
-244.211
554.924
184.283
197.187
1643.2
220.429
1898.34
146.915
2000.47
77.0124
1835.41
-34.8617
1716.81
-152.756
1638.87
-197.659
1516.88
-169.33
1369.85
-126.62
1251.41
-134.178
1175.47
-166.839
1080.88
-166.731
961.08
-129.398
803.867
-69.3311
494.889
114.953
576.647
1066.57
1288.66
1186.34
1531.9
1757.24
1434.42
1932.91
1273.96
1877.27
1146.09
1766.75
1039.97
1623
944.083
1465.74
857.978
1337.53
776.439
1257.02
687.543
1169.77
555.21
1093.49
404.857
954.296
207.254
692.572
322.205
417.859
648.733
1131.15
473.073
1582.65
1305.75
1678.54
1837.03
1552.53
2003.28
1378.57
1940.72
1228.95
1772.61
1069.85
1624.85
901.283
1506.08
744.922
1413.35
599.27
1315.41
472.023
1220.61
389.233
1036.95
257.481
824.188
579.686
-299.242
947.985
216.909
-43.0688
618.73
903.933
746.955
1708.81
686.657
2063.57
572.345
2055.02
483.937
1861
376.352
1732.41
266.964
1615.45
179.646
1500.66
117.536
1377.49
157.209
1180.98
223.16
971.029
149.2
898.173
728.885
-117.949
1065.97
-6.54604
-154.43
-65.3159
962.704
-178.349
1821.84
-244.779
2129.99
-267.437
2077.67
-300.392
1893.94
-347.211
1779.22
-336.399
1604.62
-269.463
1433.7
-230.788
1338.8
-296.826
1246.93
-491.363
1165.49
-555.753
962.49
173.133
43.5782
1022.35
-578.546
467.654
-614.241
998.383
-474.216
1681.81
-353.189
2008.96
-261.509
1985.98
-177.095
1809.52
-70.8465
1672.96
31.1963
1502.57
79.3908
1385.51
42.7606
1375.43
-81.0576
1370.8
-206.107
1290.58
-263.774
1020.2
-90.6424
648.84
373.493
531.453
585.025
789.962
739.863
1143.42
1328.34
1328.22
1824.15
1323.25
1990.95
1233.47
1899.3
1136.17
1770.27
977.224
1661.51
790.163
1572.56
669.73
1495.86
647.19
1393.27
736.629
1201.08
625.217
1131.56
534.574
457.661
-84.227
508.355
534.27
581.359
666.812
773.645
1136.02
903.901
1693.87
889.899
2004.92
779.441
2009.73
647.16
1902.52
489.973
1818.67
338.621
1723.88
284.78
1549.67
380.155
1297.91
489.417
1091.81
382.793
1238.18
917.366
-499.655
415.369
-485.194
519.741
-342.773
524.331
-308.939
1102.15
-406.281
1791.18
-523.643
2122.26
-597.544
2083.6
-595.787
1900.74
-487.764
1710.62
-357.593
1593.68
-263.745
1455.8
-194.077
1228.15
-170.07
1067.73
-145.272
1213.31
772.094
301.718
113.573
191.597
629.773
-133.742
849.602
-433.821
1402.19
-627.227
1984.56
-687.814
2182.82
-719.254
2115.02
-737.513
1918.98
-657.886
1630.97
-504.506
1440.28
-330.266
1281.53
-254.608
1152.48
-290.14
1103.24
-235.631
1158.78
536.463
-759.958
873.501
-1183.16
1052.96
-1707.55
1373.98
-2049.37
1743.99
-1931.63
1866.81
-1473.82
1725
-913.119
1554.31
-322.139
1327.98
144.402
1164.42
501.739
1082.93
709.55
1073.72
613.882
1248.13
415.221
1301.89
304.665
1269.32
841.129
-612.849
-1244.3
-1822.54
-1867.61
-1550.3
-1264.13
-1025.5
-806.446
-540.33
-266.768
-117.795
-99.5808
-88.9299
-146.842
)
;

boundaryField
{
    inletFace
    {
        type            calculated;
        value           nonuniform List<scalar> 
450
(
-6.43188e-11
5.56912e-11
8.33388e-12
2.12516e-12
5.72679e-13
4.80719e-13
2.38312e-12
5.17727e-12
9.3807e-12
1.87072e-11
3.32494e-11
4.38223e-11
4.22941e-11
-5.02112e-13
-1.78632e-10
4.02281e-10
-2.95808e-10
-9.44293e-11
-2.89226e-11
-4.47413e-12
3.19307e-12
3.67415e-12
5.79216e-12
1.00737e-11
3.23638e-11
-4.71811e-11
-1.66302e-10
-4.64143e-10
-6.81421e-10
2.03886e-09
-1.92248e-09
2.06556e-09
-7.69881e-11
6.9991e-11
-4.75894e-13
-6.72523e-12
8.98633e-13
9.21762e-12
1.75958e-11
-5.02545e-12
-1.53525e-10
-3.94252e-10
-5.9089e-10
-2.40017e-11
2.49417e-09
-5.98025e-09
5.98525e-09
6.14636e-11
-3.92739e-10
-3.54976e-11
4.06639e-11
2.56644e-11
1.62489e-11
1.38041e-11
-4.46556e-11
-2.54623e-10
-5.23058e-10
-5.18272e-10
4.73562e-10
3.54448e-09
-1.07128e-08
5.22683e-09
4.08474e-09
1.26109e-09
3.24919e-11
-1.58643e-10
-7.3868e-11
-1.46637e-12
2.1104e-11
-1.49857e-11
-1.78965e-10
-4.49315e-10
-5.70432e-10
-6.22215e-11
2.14865e-09
-2.1374e-08
4.39914e-11
4.51534e-09
3.49077e-09
1.51372e-09
3.16323e-10
-5.9782e-11
-6.89228e-11
-1.23507e-11
2.22813e-12
-8.8486e-11
-3.25238e-10
-5.34189e-10
-1.47031e-10
8.40719e-10
-2.10139e-08
2.72662e-08
1.08138e-08
5.10959e-09
2.4754e-09
8.24965e-10
7.38587e-11
-8.9887e-11
-4.26233e-11
4.57783e-12
-5.00934e-11
-2.60983e-10
-5.05722e-10
-2.96899e-10
3.84037e-10
-1.34136e-08
1.05364e-07
1.8273e-08
6.00053e-09
2.755e-09
9.11988e-10
8.18598e-11
-9.63784e-11
-4.20316e-11
1.92681e-12
-7.37667e-11
-2.90995e-10
-4.21217e-10
-1.07299e-10
2.03254e-10
-2.2454e-08
4.98922e-08
1.54677e-08
3.67725e-09
1.82205e-09
5.55743e-10
4.08673e-12
-7.24287e-11
-4.68236e-12
2.06084e-11
-7.98638e-11
-3.12936e-10
-3.43122e-10
-3.65778e-12
9.85868e-11
-2.32192e-08
-2.92787e-09
1.20091e-08
8.87566e-09
4.40927e-09
1.57306e-09
2.63878e-10
-1.16834e-10
-9.19751e-11
-6.56466e-12
-4.00367e-11
-2.31928e-10
-3.28539e-10
-1.03043e-10
-4.68608e-11
-1.07558e-08
-1.79988e-08
-4.73414e-09
5.45676e-09
6.22505e-09
3.65087e-09
1.39062e-09
2.33233e-10
-9.63187e-11
-5.07417e-11
-1.30038e-11
-1.47211e-10
-2.82066e-10
-1.70059e-10
-1.09949e-10
-1.37421e-08
-1.29013e-08
-2.74059e-09
5.11127e-09
6.17149e-09
3.67242e-09
1.36307e-09
2.05652e-10
-1.02193e-10
-6.11816e-11
-4.63018e-11
-1.75041e-10
-2.5791e-10
-1.35878e-10
-9.38443e-11
-7.12029e-09
-1.37337e-08
-8.70957e-09
4.9864e-09
6.02704e-09
3.17684e-09
8.90872e-10
-3.82524e-11
-2.04251e-10
-1.50129e-10
-1.50866e-10
-2.93631e-10
-3.67702e-10
-2.38161e-10
-1.18642e-10
-6.61047e-09
-3.71392e-09
2.06951e-09
5.77609e-09
4.48809e-09
2.33611e-09
9.58172e-10
3.86435e-10
2.53294e-10
3.00539e-10
3.52255e-10
2.6252e-10
5.39297e-11
-1.19237e-10
-1.97115e-10
-5.42338e-10
1.77845e-09
1.89529e-09
1.26504e-09
2.14435e-10
-5.6867e-10
-9.18884e-10
-1.00307e-09
-9.29088e-10
-6.59019e-10
-2.28809e-10
5.81155e-11
1.34269e-10
2.67962e-11
-7.46694e-11
6.43188e-11
-5.56912e-11
-8.33388e-12
-2.12516e-12
-5.72679e-13
-4.80719e-13
-2.38312e-12
-5.17727e-12
-9.3807e-12
-1.87072e-11
-3.32494e-11
-4.38223e-11
-4.22941e-11
5.02112e-13
1.78632e-10
-4.02281e-10
2.95808e-10
9.44293e-11
2.89226e-11
4.47413e-12
-3.19307e-12
-3.67415e-12
-5.79216e-12
-1.00737e-11
-3.23638e-11
4.71811e-11
1.66302e-10
4.64143e-10
6.81421e-10
-2.03886e-09
1.92248e-09
-2.06556e-09
7.69881e-11
-6.9991e-11
4.75894e-13
6.72523e-12
-8.98633e-13
-9.21762e-12
-1.75958e-11
5.02545e-12
1.53525e-10
3.94252e-10
5.9089e-10
2.40017e-11
-2.49417e-09
5.98025e-09
-5.98525e-09
-6.14636e-11
3.92739e-10
3.54976e-11
-4.06639e-11
-2.56644e-11
-1.62489e-11
-1.38041e-11
4.46556e-11
2.54623e-10
5.23058e-10
5.18272e-10
-4.73562e-10
-3.54448e-09
1.07128e-08
-5.22683e-09
-4.08474e-09
-1.26109e-09
-3.24919e-11
1.58643e-10
7.3868e-11
1.46637e-12
-2.1104e-11
1.49857e-11
1.78965e-10
4.49315e-10
5.70432e-10
6.22215e-11
-2.14865e-09
2.1374e-08
-4.39914e-11
-4.51534e-09
-3.49077e-09
-1.51372e-09
-3.16323e-10
5.9782e-11
6.89228e-11
1.23507e-11
-2.22813e-12
8.8486e-11
3.25238e-10
5.34189e-10
1.47031e-10
-8.40719e-10
2.10139e-08
-2.72662e-08
-1.08138e-08
-5.10959e-09
-2.4754e-09
-8.24965e-10
-7.38587e-11
8.9887e-11
4.26233e-11
-4.57783e-12
5.00934e-11
2.60983e-10
5.05722e-10
2.96899e-10
-3.84037e-10
1.34136e-08
-1.05364e-07
-1.8273e-08
-6.00053e-09
-2.755e-09
-9.11988e-10
-8.18598e-11
9.63784e-11
4.20316e-11
-1.92681e-12
7.37667e-11
2.90995e-10
4.21217e-10
1.07299e-10
-2.03254e-10
2.2454e-08
-4.98922e-08
-1.54677e-08
-3.67725e-09
-1.82205e-09
-5.55743e-10
-4.08673e-12
7.24287e-11
4.68236e-12
-2.06084e-11
7.98638e-11
3.12936e-10
3.43122e-10
3.65778e-12
-9.85868e-11
2.32192e-08
2.92787e-09
-1.20091e-08
-8.87566e-09
-4.40927e-09
-1.57306e-09
-2.63878e-10
1.16834e-10
9.19751e-11
6.56466e-12
4.00367e-11
2.31928e-10
3.28539e-10
1.03043e-10
4.68608e-11
1.07558e-08
1.79988e-08
4.73414e-09
-5.45676e-09
-6.22505e-09
-3.65087e-09
-1.39062e-09
-2.33233e-10
9.63187e-11
5.07417e-11
1.30038e-11
1.47211e-10
2.82066e-10
1.70059e-10
1.09949e-10
1.37421e-08
1.29013e-08
2.74059e-09
-5.11127e-09
-6.17149e-09
-3.67242e-09
-1.36307e-09
-2.05652e-10
1.02193e-10
6.11816e-11
4.63018e-11
1.75041e-10
2.5791e-10
1.35878e-10
9.38443e-11
7.12029e-09
1.37337e-08
8.70957e-09
-4.9864e-09
-6.02704e-09
-3.17684e-09
-8.90872e-10
3.82524e-11
2.04251e-10
1.50129e-10
1.50866e-10
2.93631e-10
3.67702e-10
2.38161e-10
1.18642e-10
6.61047e-09
3.71392e-09
-2.06951e-09
-5.77609e-09
-4.48809e-09
-2.33611e-09
-9.58172e-10
-3.86435e-10
-2.53294e-10
-3.00539e-10
-3.52255e-10
-2.6252e-10
-5.39297e-11
1.19237e-10
1.97115e-10
5.42338e-10
-1.77845e-09
-1.89529e-09
-1.26504e-09
-2.14435e-10
5.6867e-10
9.18884e-10
1.00307e-09
9.29088e-10
6.59019e-10
2.28809e-10
-5.81155e-11
-1.34269e-10
-2.67962e-11
7.46694e-11
)
;
    }
    inlet
    {
        type            calculated;
        value           nonuniform List<scalar> 
15
(
-1299.9
-1300.2
-1299.9
-1299.9
-1300.2
-1299.9
-1299.9
-1300.2
-1299.9
-1299.9
-1300.2
-1299.9
-1299.9
-1300.2
-1299.9
)
;
    }
    inletWalls
    {
        type            calculated;
        value           uniform 0;
    }
    outletInlet
    {
        type            calculated;
        value           nonuniform List<scalar> 
15
(
694.288
1327.3
1291.31
1229.98
924.788
809.405
898.36
1108.95
1315.71
1438.84
1549.52
1789.07
1952.25
1684.42
1486.38
)
;
    }
}


// ************************************************************************* //
