/*--------------------------------*- C++ -*----------------------------------*\
| =========                 |                                                 |
| \\      /  F ield         | OpenFOAM: The Open Source CFD Toolbox           |
|  \\    /   O peration     | Version:  4.1                                   |
|   \\  /    A nd           | Web:      www.OpenFOAM.org                      |
|    \\/     M anipulation  |                                                 |
\*---------------------------------------------------------------------------*/
FoamFile
{
    version     2.0;
    format      ascii;
    class       volVectorField;
    location    "21";
    object      U;
}
// * * * * * * * * * * * * * * * * * * * * * * * * * * * * * * * * * * * * * //

dimensions      [0 1 -1 0 0 0 0];

internalField   nonuniform List<vector> 
225
(
(4.65049e-13 0.869572 15.8668)
(-3.67907e-13 -4.98074 12.0115)
(-6.1514e-14 -4.1875 12.1661)
(-1.12762e-14 -3.58582 11.9702)
(-7.65703e-16 -2.97134 11.8447)
(-6.39073e-15 -2.53943 11.6885)
(-1.34983e-14 -2.22486 11.4841)
(-3.43433e-14 -1.99693 11.212)
(-6.64613e-14 -1.82282 10.9023)
(-1.26375e-13 -1.73303 10.5733)
(-2.28509e-13 -1.88359 10.155)
(-3.05215e-13 -2.35526 9.57245)
(-2.90685e-13 -2.53884 9.06198)
(4.80477e-15 -1.04699 8.99793)
(1.23441e-12 1.51834 7.10365)
(-2.79267e-12 -5.2502 22.4101)
(2.04806e-12 -14.5728 21.3586)
(6.53715e-13 -13.1402 20.328)
(1.88431e-13 -11.6407 19.3151)
(3.09771e-14 -10.9878 18.334)
(-2.2105e-14 -10.6128 17.455)
(-2.37551e-14 -10.2434 16.5385)
(-4.01025e-14 -9.71614 15.5436)
(-6.97379e-14 -9.00776 14.5388)
(-2.39983e-13 -8.30543 13.5586)
(3.26663e-13 -7.73371 12.6204)
(1.15127e-12 -7.36794 11.6246)
(3.19253e-12 -7.09524 10.3388)
(4.71789e-12 -5.50447 8.96816)
(-1.41146e-11 -2.27798 3.79032)
(1.33161e-11 -7.65096 23.8673)
(-1.42995e-11 -16.631 24.2182)
(5.33036e-13 -13.8498 23.5459)
(-4.74969e-13 -12.1574 22.4179)
(1.83656e-14 -11.62 21.0769)
(4.65629e-14 -11.1937 19.8175)
(1.26415e-14 -10.4899 18.6053)
(-4.83733e-14 -9.55017 17.3458)
(-1.21827e-13 -8.57433 16.061)
(2.92502e-14 -7.75845 14.8253)
(1.08049e-12 -7.12494 13.6705)
(2.72965e-12 -6.62046 12.4697)
(4.10418e-12 -5.9644 10.9035)
(1.91429e-13 -4.3995 8.47699)
(-1.72687e-11 -1.5882 3.47168)
(4.14055e-11 -8.20371 21.769)
(-4.1425e-11 -16.9929 23.0218)
(-4.24035e-13 -12.9201 23.408)
(2.7192e-12 -12.2315 20.9583)
(2.58493e-13 -12.2022 19.3545)
(-2.96393e-13 -11.2236 18.4777)
(-1.77692e-13 -9.85462 17.5782)
(-9.87287e-14 -8.80638 16.3745)
(-1.12842e-13 -8.32006 14.8491)
(3.09181e-13 -8.02761 13.2899)
(1.78024e-12 -7.37507 12.1337)
(3.62374e-12 -6.23508 11.2088)
(3.58835e-12 -5.0359 9.31762)
(-3.24789e-12 -3.75312 5.3024)
(-2.45346e-11 -0.562623 1.98968)
(7.41597e-11 -6.01343 17.2784)
(-3.61794e-11 -16.2123 21.9891)
(-2.82792e-11 -16.1965 23.8595)
(-8.73108e-12 -14.8405 22.3219)
(-2.28004e-13 -13.6891 20.1643)
(1.107e-12 -12.4128 18.4832)
(5.10167e-13 -11.3007 17.2436)
(1.93988e-14 -10.6893 16.053)
(-1.34529e-13 -10.0342 14.7486)
(1.02187e-13 -8.95496 13.655)
(1.25091e-12 -8.15368 12.3671)
(3.10666e-12 -7.40776 10.9932)
(3.94662e-12 -5.87278 9.52617)
(4.54551e-13 -4.16354 6.51767)
(-1.48616e-11 -1.45155 2.37754)
(1.47971e-10 -0.41368 5.61747)
(-3.02938e-13 -6.74143 4.65774)
(-3.12606e-11 -11.162 16.1834)
(-2.41662e-11 -14.308 21.7986)
(-1.04784e-11 -15.0579 22.3165)
(-2.18819e-12 -14.16 20.8801)
(4.13864e-13 -12.831 19.0866)
(4.78325e-13 -11.7995 17.6342)
(7.62812e-14 -10.9893 16.3943)
(-2.85999e-14 -9.83878 15.2545)
(6.14218e-13 -8.56907 14.0865)
(2.23896e-12 -7.92302 12.5293)
(3.69813e-12 -6.67625 10.9945)
(1.02067e-12 -4.47261 9.49289)
(-5.83513e-12 -3.26578 4.79203)
(1.45494e-10 1.51729 9.41528)
(-1.88783e-10 -3.91908 1.66384)
(-7.48767e-11 -6.99823 12.3555)
(-3.53772e-11 -12.1346 20.0277)
(-1.71519e-11 -14.6997 23.4007)
(-5.70872e-12 -14.4213 23.2627)
(-5.11374e-13 -12.8684 21.3132)
(6.16329e-13 -11.6742 19.6308)
(2.98395e-13 -10.9727 18.0801)
(-3.16954e-14 -9.99578 16.6633)
(3.30286e-13 -9.18663 15.3007)
(1.79077e-12 -7.84598 14.3175)
(3.50145e-12 -7.31505 12.7203)
(2.05256e-12 -7.41315 10.5095)
(-2.68389e-12 -5.75276 7.84071)
(9.28662e-11 2.43006 11.8148)
(-7.29487e-10 -2.87706 -3.73015)
(-1.26486e-10 -4.12723 8.67849)
(-4.15397e-11 -11.4424 19.6575)
(-1.90742e-11 -13.7698 24.2176)
(-6.31476e-12 -13.656 24.4433)
(-5.66688e-13 -12.7608 22.2194)
(6.67273e-13 -11.6856 20.5145)
(2.97428e-13 -10.9292 19.0121)
(-1.33387e-14 -10.0472 17.6277)
(5.10722e-13 -9.39695 16.3318)
(2.0231e-12 -9.15845 14.9564)
(2.906e-12 -8.97209 13.9576)
(7.4288e-13 -7.8144 12.6198)
(-1.40409e-12 -3.55467 7.5547)
(1.55446e-10 2.20719 13.7299)
(-3.45398e-10 -8.52079 3.87072)
(-1.07088e-10 -6.78478 13.4199)
(-2.54571e-11 -12.1818 22.2941)
(-1.26139e-11 -13.7836 25.0054)
(-3.84307e-12 -14.115 23.6267)
(-2.8292e-14 -13.0658 21.5166)
(5.01415e-13 -11.7494 20.5071)
(4.41059e-14 -11.3626 18.66)
(-1.42669e-13 -10.7169 17.1963)
(5.52888e-13 -9.88131 16.5089)
(2.17007e-12 -9.49498 15.3906)
(2.37539e-12 -8.52899 14.0694)
(2.53224e-14 -3.90062 9.12631)
(-7.04541e-13 0.967737 -4.85742)
(1.60765e-10 0.800847 9.94391)
(2.02693e-11 -7.28965 9.04311)
(-8.31484e-11 -8.80151 10.8807)
(-6.14422e-11 -12.0556 18.3318)
(-3.05248e-11 -14.9033 22.8549)
(-1.08863e-11 -15.5345 23.4774)
(-1.81907e-12 -14.4488 21.9827)
(8.08831e-13 -13.0906 20.469)
(6.3556e-13 -12.192 18.5922)
(4.93791e-14 -11.0977 16.7287)
(2.77169e-13 -9.62741 15.676)
(1.60408e-12 -8.22514 14.8265)
(2.27146e-12 -7.95162 13.0444)
(7.13357e-13 -4.6375 11.6478)
(3.32934e-13 -3.12229 4.36628)
(7.44671e-11 0.206377 -0.692915)
(1.24604e-10 -2.26143 4.04766)
(3.2808e-11 -3.92183 6.32784)
(-3.77754e-11 -7.60451 12.5003)
(-4.30978e-11 -11.731 18.9827)
(-2.52587e-11 -13.8241 22.3665)
(-9.62679e-12 -13.912 22.393)
(-1.61357e-12 -12.9449 20.9414)
(6.72106e-13 -11.6058 19.1207)
(3.51268e-13 -9.98343 17.2135)
(7.66623e-14 -8.42598 15.7099)
(1.00813e-12 -7.17337 14.5991)
(1.95265e-12 -8.29439 11.9177)
(1.18436e-12 -6.51286 12.8564)
(7.59553e-13 -5.49419 9.24097)
(9.51349e-11 -3.95969 1.80242)
(8.92902e-11 -1.17233 7.37599)
(1.89964e-11 -4.53237 8.19761)
(-3.53847e-11 -6.94063 13.0798)
(-4.27231e-11 -10.9716 19.2127)
(-2.54181e-11 -12.823 22.9591)
(-9.43638e-12 -12.7946 23.1499)
(-1.43247e-12 -11.7917 21.5317)
(7.18336e-13 -10.3639 19.7846)
(4.23553e-13 -9.17515 17.904)
(3.20542e-13 -9.07548 15.9484)
(1.20796e-12 -9.21504 14.486)
(1.78775e-12 -9.31631 13.7274)
(9.38518e-13 -7.58514 15.7975)
(6.61439e-13 -7.43842 10.3466)
(4.93189e-11 -5.88536 3.38184)
(9.50734e-11 -1.61991 5.20965)
(6.02989e-11 -3.82595 4.39634)
(-3.45179e-11 -9.81994 12.6443)
(-4.17245e-11 -10.1942 20.5929)
(-2.19929e-11 -12.4302 22.5036)
(-6.16929e-12 -12.8937 21.7627)
(2.62266e-13 -11.4487 21.0726)
(1.41256e-12 -10.527 19.214)
(1.03944e-12 -9.31635 17.2274)
(1.0361e-12 -8.55691 15.0428)
(2.04247e-12 -8.97496 12.575)
(2.54585e-12 -9.69134 11.6508)
(1.6397e-12 -7.42985 14.1829)
(8.27751e-13 -7.51377 7.11174)
(4.57613e-11 -6.90956 1.27628)
(2.57196e-11 -5.14367 9.22786)
(-1.43232e-11 -10.0734 15.4656)
(-3.99825e-11 -12.2012 21.5495)
(-3.107e-11 -12.2818 25.128)
(-1.61722e-11 -12.8209 25.043)
(-6.63803e-12 -13.4306 22.3066)
(-2.66872e-12 -14.1834 18.9794)
(-1.75347e-12 -13.87 17.8492)
(-2.08531e-12 -13.1151 18.4008)
(-2.43471e-12 -13.5568 17.8895)
(-1.81734e-12 -13.4762 16.758)
(-3.77543e-13 -12.5247 15.282)
(8.30589e-13 -10.6115 13.3567)
(1.36456e-12 -7.27575 7.64633)
(3.75487e-12 -8.68706 16.835)
(-1.23112e-11 -14.3951 17.4258)
(-1.31231e-11 -10.497 21.2667)
(-8.75769e-12 -10.458 20.0714)
(-1.48467e-12 -10.5674 17.7913)
(3.93747e-12 -9.49199 16.2708)
(6.36132e-12 -9.15205 14.679)
(6.94488e-12 -9.28726 12.6943)
(6.43153e-12 -9.90032 11.0479)
(4.56231e-12 -11.5103 10.7909)
(1.58542e-12 -13.3766 12.4116)
(-4.03581e-13 -14.1134 15.3047)
(-9.2953e-13 -13.8458 15.1571)
(-1.84486e-13 -12.3016 14.9144)
(5.16029e-13 -7.67841 9.08055)
)
;

boundaryField
{
    inletFace
    {
        type            zeroGradient;
    }
    inlet
    {
        type            fixedValue;
        value           uniform (0 8.7 15);
    }
    inletWalls
    {
        type            noSlip;
    }
    outletInlet
    {
        type            zeroGradient;
    }
}


// ************************************************************************* //
