/*--------------------------------*- C++ -*----------------------------------*\
| =========                 |                                                 |
| \\      /  F ield         | OpenFOAM: The Open Source CFD Toolbox           |
|  \\    /   O peration     | Version:  4.1                                   |
|   \\  /    A nd           | Web:      www.OpenFOAM.org                      |
|    \\/     M anipulation  |                                                 |
\*---------------------------------------------------------------------------*/
FoamFile
{
    version     2.0;
    format      ascii;
    class       volScalarField;
    location    "2";
    object      epsilon;
}
// * * * * * * * * * * * * * * * * * * * * * * * * * * * * * * * * * * * * * //

dimensions      [0 2 -3 0 0 0 0];

internalField   nonuniform List<scalar> 
6785
(
0.056578
0.304582
0.298257
0.298261
0.298303
0.29823
0.298259
0.298295
0.298225
0.298254
0.298287
0.298207
0.29851
0.501448
0.0814555
0.0820153
0.0066025
0.000168802
0.000152106
0.000145388
0.000138457
0.00013213
0.00012568
0.000119098
0.000112484
0.000105991
0.000110368
0.00144732
0.0180086
0.01225
0.113517
0.00284702
3.20254e-06
1.07734e-06
1.16052e-06
1.06941e-06
1.23848e-06
1.9623e-06
3.4671e-06
8.09647e-06
3.78885e-05
0.000212868
0.00163044
0.006315
0.000425106
0.155902
0.00485857
7.84866e-05
1.39299e-06
1.51254e-07
1.20477e-07
2.70649e-07
6.48632e-07
1.31111e-06
4.1543e-06
2.14059e-05
0.000100895
0.000308467
0.00146495
0.000114654
0.202959
0.00914446
0.00016641
2.84195e-06
2.70029e-07
3.07039e-07
1.01927e-06
1.77003e-06
4.13935e-06
1.78012e-05
1.7861e-05
6.6488e-05
9.35857e-05
0.000720537
0.000295208
0.254022
0.00771793
9.78182e-05
2.32947e-06
6.80851e-07
1.75255e-07
2.73583e-06
3.72766e-05
0.000147399
0.00026748
6.1936e-05
0.000223124
0.0001772
0.000264741
0.00114417
0.313222
0.00819474
8.66697e-05
3.21564e-06
9.47948e-06
7.41424e-05
0.000359368
0.00125965
0.00269998
0.00258157
0.00165427
0.00268571
0.00375965
0.0015774
0.0019638
0.360347
0.0166087
0.000139075
3.98152e-06
2.15379e-05
8.12235e-05
0.000402038
0.00127509
0.00276605
0.003876
0.00454727
0.00416934
0.00336276
0.0031766
0.00168553
0.381707
0.0437947
0.00124237
2.75671e-05
1.65395e-05
7.24577e-05
0.000240123
0.00069893
0.0014714
0.00274613
0.00413104
0.00728175
0.0127872
0.0109213
0.00254097
0.375551
0.0795714
0.00575452
0.000419283
7.00143e-05
7.64142e-05
0.000153311
0.000318652
0.000615146
0.00121001
0.00159371
0.00387549
0.0070181
0.0271366
0.00304553
0.353294
0.116716
0.0125167
0.00162309
0.00024992
7.46054e-05
0.000121499
0.000239648
0.000322787
0.000597232
0.000771788
0.00199707
0.00415283
0.0331279
0.00362607
0.327741
0.166084
0.0185425
0.00364728
0.000702235
0.000206394
0.00017501
0.000229833
0.000226305
0.000354879
0.000489631
0.00134931
0.00352717
0.0372368
0.00372037
0.307288
0.231703
0.0291332
0.00770761
0.00150577
0.000173155
0.000190037
0.000240908
0.000231536
0.000294837
0.000399258
0.000974109
0.0030735
0.0326129
0.00449738
0.283621
0.347937
0.0538615
0.0149367
0.00396507
0.0014767
0.000395958
0.000321614
0.000254963
0.000284781
0.000355192
0.000934563
0.00256129
0.0304454
0.00405743
0.263463
0.753768
0.248877
0.0613357
0.00288341
0.00172497
0.000683627
0.000328432
0.000179286
0.000104669
0.000176411
0.000418766
0.0013055
0.016249
0.0042627
0.00736933
0.00315482
0.00525788
0.00490703
0.00454892
0.00212544
0.00360974
0.00344162
0.00326827
0.00162935
0.00279453
0.00270345
0.00141915
0.00245148
0.00240023
0.00235138
0.00127586
0.00222128
0.00219088
0.00121005
0.00212752
0.00211501
0.00210096
0.00117198
0.00207802
0.00207456
0.00206417
0.0011503
0.0020398
0.00203276
0.00113421
0.00202451
0.00202624
0.00201749
0.0011191
0.00199937
0.00200004
0.00112082
0.00202054
0.00203588
0.00203899
0.00114406
0.00207923
0.00210823
0.0021261
0.00121321
0.0022158
0.00226053
0.00134393
0.00246371
0.00254089
0.00261843
0.00161903
0.00293822
0.00303441
0.00314341
0.00204082
0.00358369
0.0036439
0.00245588
0.00401031
0.0039298
0.0038449
0.0023106
0.00369703
0.00355431
0.0018847
0.00285762
0.00253512
0.00216762
0.000788393
0.000768662
0.000549836
0.000411719
0.000173174
0.0002848
0.000287945
0.000164549
0.000291702
0.00029765
0.00183341
0.00160561
0.00150182
0.0014228
0.00133085
0.00118204
0.000962574
0.000823579
0.000614931
0.000420139
0.000219785
0.000142285
0.000213184
6.11111e-05
4.74674e-05
3.85402e-05
3.56158e-05
4.08921e-05
5.46488e-05
7.80649e-05
0.000116534
0.000482745
0.0012055
0.0012997
0.0014131
0.0015288
0.00165322
0.00177693
0.001913
0.00206878
0.00222933
0.00330638
0.0049675
0.00524703
0.00599007
0.00664951
0.00748989
0.00836427
0.00921201
0.0101399
0.0164966
0.0192443
0.0204902
0.0232858
0.0248393
0.0275786
0.0300161
0.0330194
0.0351866
0.0493493
0.0496358
0.0526192
0.056595
0.0598455
0.0611155
0.0652853
0.0682656
0.0722599
0.0840671
0.0879865
0.0917686
0.102224
0.112785
0.127143
0.146893
0.151629
0.171493
0.187085
0.205371
0.21352
0.174516
0.172693
0.141648
0.11272
0.0651982
0.042131
0.0445149
0.0221947
0.0164968
0.00310466
0.000178907
9.85942e-05
9.34182e-05
0.000157375
9.69658e-05
0.00016392
0.000101152
0.00010268
0.000172188
0.000106273
0.000107714
0.000180414
0.00011141
0.000187641
0.000116981
0.000118737
0.00019925
0.000123144
0.000207878
0.000129594
0.000131882
0.00022231
0.000137543
0.000140285
0.000237034
0.000146668
0.000249258
0.000155806
0.000159688
0.000270978
0.000167754
0.000286184
0.000178938
0.000184001
0.000313603
0.000194266
0.000200071
0.00034159
0.0002116
0.000363064
0.000227108
0.000234843
0.000402323
0.000249305
0.000429086
0.000268453
0.000278333
0.000478364
0.00029665
0.000307669
0.00052925
0.000328166
0.000566916
0.000354823
0.000369023
0.000635435
0.000394036
0.000680648
0.000425835
0.000441932
0.000758624
0.000469986
0.000484998
0.00082772
0.000511747
0.000875168
0.000545604
0.000561667
0.000953904
0.000588609
0.00100554
0.000626204
0.000644645
0.00109571
0.000675736
0.000693764
0.00117843
0.000725731
0.0012398
0.000770564
4.48631e-06
3.61124e-06
2.92461e-06
2.39942e-06
1.99407e-06
1.74224e-06
1.54395e-06
1.40295e-06
1.39325e-06
1.55828e-06
1.79819e-06
1.4371e-06
1.94046e-06
1.51132e-06
1.26624e-06
1.24395e-06
1.16382e-06
1.19645e-06
1.04438e-06
1.14212e-06
1.10182e-06
1.0783e-06
1.02781e-06
9.98166e-07
1.06063e-06
1.3541e-06
1.22258e-06
1.11025e-06
1.381e-06
1.35932e-06
1.42208e-06
1.32501e-06
1.15253e-06
1.22378e-06
1.32698e-06
1.2815e-06
1.32913e-06
1.44054e-06
1.82918e-06
3.27895e-06
8.6864e-06
9.34834e-06
4.35963e-06
3.17141e-06
2.48317e-06
2.27316e-06
2.41773e-06
2.67763e-06
2.8627e-06
3.43949e-06
4.91777e-06
7.32422e-06
1.04473e-05
1.47161e-05
1.98474e-05
2.55516e-05
3.13351e-05
3.65807e-05
4.07784e-05
4.36792e-05
4.53426e-05
4.61011e-05
4.59316e-05
4.52966e-05
4.39282e-05
4.21118e-05
3.9684e-05
3.70679e-05
3.45684e-05
3.348e-05
3.4478e-05
2.87784e-05
2.03492e-05
1.18152e-05
7.28804e-06
7.11546e-06
7.68403e-06
1.15163e-05
0.000166054
4.44212e-06
3.56711e-06
2.9235e-06
2.4103e-06
2.00544e-06
1.76158e-06
1.56849e-06
1.43081e-06
1.41673e-06
1.59972e-06
1.89138e-06
1.46526e-06
2.15652e-06
1.52983e-06
1.26548e-06
1.24491e-06
1.1696e-06
1.19655e-06
1.04617e-06
1.14175e-06
1.10233e-06
1.08094e-06
1.02979e-06
1.003e-06
1.06286e-06
1.3534e-06
1.21776e-06
1.12039e-06
1.38519e-06
1.36296e-06
1.42164e-06
1.32384e-06
1.15099e-06
1.22202e-06
1.32417e-06
1.27666e-06
1.32334e-06
1.43652e-06
1.8315e-06
3.31624e-06
8.78296e-06
9.26575e-06
4.40786e-06
3.09285e-06
2.48283e-06
2.27681e-06
2.43709e-06
2.68783e-06
2.86086e-06
3.38698e-06
5.02982e-06
7.63727e-06
1.09475e-05
1.54278e-05
2.07732e-05
2.67862e-05
3.28921e-05
3.84278e-05
4.28411e-05
4.58657e-05
4.7589e-05
4.83827e-05
4.81188e-05
4.73484e-05
4.57956e-05
4.37582e-05
4.10237e-05
3.81107e-05
3.53816e-05
3.45239e-05
3.65349e-05
2.88922e-05
2.39135e-05
1.239e-05
7.33105e-06
7.06154e-06
7.59596e-06
1.16386e-05
0.000167527
4.30465e-06
3.47163e-06
2.88417e-06
2.42084e-06
2.03646e-06
1.80836e-06
1.62329e-06
1.49459e-06
1.49986e-06
1.71374e-06
1.99551e-06
1.52111e-06
2.13017e-06
1.69224e-06
1.3749e-06
1.26504e-06
1.14126e-06
1.21074e-06
1.06141e-06
1.14813e-06
1.10822e-06
1.08084e-06
1.02864e-06
9.99134e-07
1.06295e-06
1.35779e-06
1.22688e-06
1.11167e-06
1.37519e-06
1.35703e-06
1.41726e-06
1.32105e-06
1.14954e-06
1.218e-06
1.31788e-06
1.27327e-06
1.32511e-06
1.44287e-06
1.85525e-06
3.51105e-06
9.22266e-06
9.44426e-06
4.37505e-06
3.02036e-06
2.53046e-06
2.27366e-06
2.4473e-06
2.68623e-06
2.77067e-06
3.58764e-06
5.06945e-06
8.27296e-06
1.20675e-05
1.68357e-05
2.27416e-05
2.94207e-05
3.62137e-05
4.23783e-05
4.72894e-05
5.06433e-05
5.25227e-05
5.33621e-05
5.30225e-05
5.21291e-05
5.03607e-05
4.8041e-05
4.49682e-05
4.17123e-05
3.84557e-05
3.71498e-05
3.88312e-05
3.05365e-05
2.81518e-05
1.37064e-05
7.4682e-06
7.0931e-06
7.63699e-06
1.18208e-05
0.000164435
4.16919e-06
3.39708e-06
2.86642e-06
2.44229e-06
2.07939e-06
1.8639e-06
1.68526e-06
1.56632e-06
1.57823e-06
1.82729e-06
2.08679e-06
1.59804e-06
2.11609e-06
1.85118e-06
1.52006e-06
1.28079e-06
1.10815e-06
1.23926e-06
1.08918e-06
1.16292e-06
1.12317e-06
1.07937e-06
1.03189e-06
9.98935e-07
1.06583e-06
1.3563e-06
1.23583e-06
1.10398e-06
1.36156e-06
1.34274e-06
1.40828e-06
1.31549e-06
1.14612e-06
1.21214e-06
1.30991e-06
1.27226e-06
1.32721e-06
1.45297e-06
1.89805e-06
3.80097e-06
1.00983e-05
9.4433e-06
4.38877e-06
3.03932e-06
2.61971e-06
2.34025e-06
2.53045e-06
2.6601e-06
2.88095e-06
3.49197e-06
5.53038e-06
8.90046e-06
1.29589e-05
1.82091e-05
2.47249e-05
3.21185e-05
3.96567e-05
4.64897e-05
5.19273e-05
5.56434e-05
5.77254e-05
5.8612e-05
5.81712e-05
5.71129e-05
5.50638e-05
5.24035e-05
4.8929e-05
4.52638e-05
4.1474e-05
3.9738e-05
4.1541e-05
3.22913e-05
3.10386e-05
1.55784e-05
7.75237e-06
7.16338e-06
7.62426e-06
1.19814e-05
0.000163765
4.04923e-06
3.3351e-06
2.86151e-06
2.46348e-06
2.1236e-06
1.9217e-06
1.74906e-06
1.6423e-06
1.67432e-06
1.96313e-06
2.19312e-06
1.70572e-06
2.11164e-06
1.98991e-06
1.64151e-06
1.30356e-06
1.05615e-06
1.27579e-06
1.1288e-06
1.17663e-06
1.13715e-06
1.08078e-06
1.03306e-06
1.00085e-06
1.06942e-06
1.35433e-06
1.24425e-06
1.10275e-06
1.34517e-06
1.3326e-06
1.39914e-06
1.30885e-06
1.14253e-06
1.20746e-06
1.30225e-06
1.27063e-06
1.33285e-06
1.4695e-06
1.94597e-06
4.20838e-06
1.06445e-05
9.29908e-06
4.37122e-06
3.05069e-06
2.7044e-06
2.3985e-06
2.61946e-06
2.75819e-06
2.98854e-06
3.74039e-06
6.03562e-06
9.6143e-06
1.39955e-05
1.9765e-05
2.69535e-05
3.51369e-05
4.34984e-05
5.10863e-05
5.712e-05
6.12307e-05
6.35002e-05
6.44252e-05
6.38624e-05
6.26103e-05
6.02394e-05
5.71935e-05
5.32725e-05
4.91465e-05
4.47639e-05
4.24619e-05
4.45203e-05
3.40242e-05
3.26571e-05
1.76616e-05
8.10331e-06
7.22027e-06
7.60255e-06
1.18778e-05
0.000160604
3.94483e-06
3.2835e-06
2.87757e-06
2.49139e-06
2.17462e-06
1.98752e-06
1.82043e-06
1.7281e-06
1.78071e-06
2.10879e-06
2.30674e-06
1.82838e-06
2.08196e-06
2.11583e-06
1.76248e-06
1.36479e-06
1.05181e-06
1.31698e-06
1.18597e-06
1.21035e-06
1.16819e-06
1.08797e-06
1.04616e-06
9.98433e-07
1.07201e-06
1.35156e-06
1.25385e-06
1.10525e-06
1.33738e-06
1.32803e-06
1.39229e-06
1.30351e-06
1.13904e-06
1.19878e-06
1.29514e-06
1.26491e-06
1.33433e-06
1.4811e-06
2.01029e-06
4.77976e-06
1.14532e-05
8.849e-06
4.3295e-06
3.08777e-06
2.75843e-06
2.50521e-06
2.70554e-06
2.8446e-06
3.11082e-06
3.99477e-06
6.55742e-06
1.03475e-05
1.5091e-05
2.14257e-05
2.9354e-05
3.84116e-05
4.76857e-05
5.61066e-05
6.27976e-05
6.73457e-05
6.98245e-05
7.07806e-05
7.00646e-05
6.85738e-05
6.58217e-05
6.2332e-05
5.7904e-05
5.32526e-05
4.82197e-05
4.51994e-05
4.76654e-05
3.57655e-05
3.356e-05
2.00997e-05
8.64189e-06
7.28744e-06
7.63254e-06
1.15008e-05
0.000157934
3.85836e-06
3.24037e-06
2.92009e-06
2.51841e-06
2.23275e-06
2.06078e-06
1.89821e-06
1.8228e-06
1.90099e-06
2.26781e-06
2.43136e-06
1.96448e-06
2.0432e-06
2.22034e-06
1.88463e-06
1.4745e-06
1.06492e-06
1.36713e-06
1.27489e-06
1.26567e-06
1.22303e-06
1.10891e-06
1.06064e-06
9.93496e-07
1.07477e-06
1.34885e-06
1.25603e-06
1.11247e-06
1.32871e-06
1.32203e-06
1.38756e-06
1.29785e-06
1.13641e-06
1.19206e-06
1.29022e-06
1.26906e-06
1.34503e-06
1.51003e-06
2.12821e-06
5.54107e-06
1.19148e-05
8.14383e-06
4.25118e-06
3.11459e-06
2.80516e-06
2.60855e-06
2.79395e-06
2.93553e-06
3.2397e-06
4.26591e-06
7.0879e-06
1.11022e-05
1.62458e-05
2.31927e-05
3.19311e-05
4.19501e-05
5.22284e-05
6.15676e-05
6.89824e-05
7.40103e-05
7.67145e-05
7.76895e-05
7.67843e-05
7.50056e-05
7.18097e-05
6.78199e-05
6.28262e-05
5.75873e-05
5.18529e-05
4.79193e-05
5.09841e-05
3.7419e-05
3.393e-05
2.21275e-05
9.47047e-06
7.42915e-06
7.69433e-06
1.10066e-05
0.000153949
3.78765e-06
3.20228e-06
2.93936e-06
2.55478e-06
2.29779e-06
2.14286e-06
1.98383e-06
1.92792e-06
2.03406e-06
2.43822e-06
2.5673e-06
2.11252e-06
2.01948e-06
2.28427e-06
1.99538e-06
1.63499e-06
1.11287e-06
1.41481e-06
1.37056e-06
1.34396e-06
1.29621e-06
1.14752e-06
1.09691e-06
9.90062e-07
1.07813e-06
1.34581e-06
1.26726e-06
1.13075e-06
1.33174e-06
1.31556e-06
1.38238e-06
1.29481e-06
1.13367e-06
1.1886e-06
1.28509e-06
1.2738e-06
1.35187e-06
1.53468e-06
2.25785e-06
6.4038e-06
1.25172e-05
7.29495e-06
4.13925e-06
3.14378e-06
2.84687e-06
2.71239e-06
2.88252e-06
3.0291e-06
3.37674e-06
4.55148e-06
7.61912e-06
1.18795e-05
1.74587e-05
2.50682e-05
3.46928e-05
4.57677e-05
5.71507e-05
6.75005e-05
7.57116e-05
8.12646e-05
8.42108e-05
8.51899e-05
8.40517e-05
8.19272e-05
7.82268e-05
7.36661e-05
6.80375e-05
6.21426e-05
5.56459e-05
5.05747e-05
5.44723e-05
4.02398e-05
3.35084e-05
2.3876e-05
1.11151e-05
7.62679e-06
7.81112e-06
1.0606e-05
0.000147134
3.73255e-06
3.17162e-06
2.96326e-06
2.60556e-06
2.37301e-06
2.2346e-06
2.07806e-06
2.04421e-06
2.17997e-06
2.62007e-06
2.71548e-06
2.24511e-06
2.03588e-06
2.31646e-06
2.1039e-06
1.77121e-06
1.19538e-06
1.45615e-06
1.47057e-06
1.42825e-06
1.39109e-06
1.21029e-06
1.13168e-06
9.85707e-07
1.0713e-06
1.34447e-06
1.27117e-06
1.14974e-06
1.33254e-06
1.31366e-06
1.37908e-06
1.28978e-06
1.1315e-06
1.17882e-06
1.2834e-06
1.2867e-06
1.37247e-06
1.58485e-06
2.48413e-06
7.32882e-06
1.25949e-05
6.63691e-06
4.00896e-06
3.17827e-06
2.8867e-06
2.81545e-06
2.97113e-06
3.12526e-06
3.5206e-06
4.84789e-06
8.14329e-06
1.268e-05
1.87292e-05
2.70552e-05
3.76479e-05
4.98806e-05
6.24771e-05
7.39377e-05
8.30235e-05
8.91493e-05
9.2353e-05
9.33192e-05
9.18945e-05
8.93652e-05
8.50885e-05
7.98818e-05
7.3544e-05
6.69213e-05
5.96066e-05
5.4257e-05
5.78043e-05
4.37559e-05
3.3998e-05
2.52571e-05
1.27712e-05
8.02258e-06
7.93488e-06
1.0244e-05
0.00014233
3.70208e-06
3.16543e-06
2.99251e-06
2.69007e-06
2.45889e-06
2.33704e-06
2.18186e-06
2.17251e-06
2.33928e-06
2.81326e-06
2.87683e-06
2.38105e-06
2.08672e-06
2.32352e-06
2.22304e-06
1.93075e-06
1.29801e-06
1.48142e-06
1.58724e-06
1.54477e-06
1.49221e-06
1.28034e-06
1.19339e-06
9.8143e-07
1.06879e-06
1.3413e-06
1.28446e-06
1.19112e-06
1.34276e-06
1.31327e-06
1.37384e-06
1.28682e-06
1.12906e-06
1.17554e-06
1.27462e-06
1.29301e-06
1.38567e-06
1.63624e-06
2.73182e-06
8.32436e-06
1.24194e-05
6.12261e-06
3.8749e-06
3.21746e-06
2.92291e-06
2.91776e-06
3.0592e-06
3.22377e-06
3.67068e-06
5.15267e-06
8.66505e-06
1.35045e-05
2.00573e-05
2.91576e-05
4.08063e-05
5.43069e-05
6.82353e-05
8.09157e-05
9.09605e-05
9.77093e-05
0.000101184
0.000102119
0.000100345
9.7345e-05
9.24124e-05
8.6477e-05
7.93508e-05
7.19253e-05
6.37456e-05
5.82457e-05
6.11079e-05
4.82318e-05
3.46968e-05
2.65975e-05
1.44998e-05
8.49424e-06
8.15115e-06
1.00097e-05
0.000135969
3.69096e-06
3.19283e-06
3.02903e-06
2.78867e-06
2.55558e-06
2.45148e-06
2.29633e-06
2.3138e-06
2.51265e-06
3.018e-06
3.05221e-06
2.55171e-06
2.17164e-06
2.32548e-06
2.40109e-06
2.05305e-06
1.45933e-06
1.54391e-06
1.69903e-06
1.65968e-06
1.61618e-06
1.38674e-06
1.25681e-06
9.79197e-07
1.07077e-06
1.33671e-06
1.29362e-06
1.2343e-06
1.36045e-06
1.31865e-06
1.36997e-06
1.28134e-06
1.12533e-06
1.17622e-06
1.27922e-06
1.30858e-06
1.41857e-06
1.70706e-06
3.07985e-06
9.33409e-06
1.19739e-05
5.71286e-06
3.81128e-06
3.2608e-06
2.95243e-06
3.01882e-06
3.14582e-06
3.3241e-06
3.82572e-06
5.4626e-06
9.1829e-06
1.43524e-05
2.14431e-05
3.13792e-05
4.41783e-05
5.90659e-05
7.44547e-05
8.84732e-05
9.9568e-05
0.000106992
0.000110748
0.000111633
0.000109436
0.000105893
0.000100218
9.34632e-05
8.54658e-05
7.71617e-05
6.80741e-05
6.25931e-05
6.43606e-05
5.37058e-05
3.71074e-05
2.79535e-05
1.593e-05
9.18903e-06
8.37408e-06
9.75371e-06
0.000127836
3.68785e-06
3.20558e-06
3.07181e-06
2.8951e-06
2.66434e-06
2.57939e-06
2.42277e-06
2.46913e-06
2.70016e-06
3.23509e-06
3.24239e-06
2.74026e-06
2.32312e-06
2.34811e-06
2.46982e-06
2.19601e-06
1.59363e-06
1.59362e-06
1.81898e-06
1.79901e-06
1.73641e-06
1.47765e-06
1.34798e-06
9.85601e-07
1.07614e-06
1.3291e-06
1.31412e-06
1.31864e-06
1.39757e-06
1.32751e-06
1.36644e-06
1.27828e-06
1.12277e-06
1.18083e-06
1.28984e-06
1.31907e-06
1.44161e-06
1.82637e-06
3.73512e-06
1.00745e-05
1.14878e-05
5.39002e-06
3.81528e-06
3.35034e-06
2.97058e-06
3.11881e-06
3.23069e-06
3.42587e-06
3.98462e-06
5.77478e-06
9.69571e-06
1.52218e-05
2.28867e-05
3.37238e-05
4.77745e-05
6.41777e-05
8.11669e-05
9.6652e-05
0.000108895
0.000117048
0.000121092
0.000121912
0.000119206
0.000115039
0.000108525
0.000100854
9.18997e-05
8.26417e-05
7.26155e-05
6.74144e-05
6.75341e-05
6.03509e-05
4.06975e-05
2.92263e-05
1.67046e-05
9.8023e-06
8.68042e-06
9.61205e-06
0.000120841
3.74092e-06
3.2592e-06
3.10899e-06
3.00486e-06
2.786e-06
2.72249e-06
2.56264e-06
2.63934e-06
2.89933e-06
3.46506e-06
3.44824e-06
2.95021e-06
2.56931e-06
2.41978e-06
2.52925e-06
2.30124e-06
1.82353e-06
1.67636e-06
1.8914e-06
1.91221e-06
1.88712e-06
1.6189e-06
1.43738e-06
1.00143e-06
1.08129e-06
1.3299e-06
1.32832e-06
1.42804e-06
1.46017e-06
1.34779e-06
1.35946e-06
1.27289e-06
1.11732e-06
1.18373e-06
1.30379e-06
1.34201e-06
1.49502e-06
1.94808e-06
4.62607e-06
1.07094e-05
1.08109e-05
5.13223e-06
3.8273e-06
3.41629e-06
3.11469e-06
3.21041e-06
3.31336e-06
3.52831e-06
4.14598e-06
6.08638e-06
1.02027e-05
1.61092e-05
2.43879e-05
3.61952e-05
5.16055e-05
6.96637e-05
8.84052e-05
0.000105497
0.000118993
0.000127931
0.000132267
0.000133003
0.000129693
0.000124815
0.000117359
0.000108666
9.86686e-05
8.83844e-05
7.74095e-05
7.10968e-05
7.07539e-05
6.72465e-05
4.52921e-05
3.29816e-05
1.94475e-05
1.0665e-05
8.97064e-06
9.4747e-06
0.00011206
3.76354e-06
3.33895e-06
3.157e-06
3.11364e-06
2.92071e-06
2.88268e-06
2.71757e-06
2.82533e-06
3.1086e-06
3.70752e-06
3.6703e-06
3.19075e-06
2.83055e-06
2.56263e-06
2.54414e-06
2.42541e-06
1.9731e-06
1.73951e-06
1.94463e-06
2.06434e-06
2.01841e-06
1.73556e-06
1.56901e-06
1.03176e-06
1.08965e-06
1.33939e-06
1.40607e-06
1.57822e-06
1.53165e-06
1.37509e-06
1.35976e-06
1.26961e-06
1.11428e-06
1.19034e-06
1.31485e-06
1.36212e-06
1.53979e-06
2.20731e-06
5.69498e-06
1.11196e-05
1.00043e-05
4.87673e-06
3.80947e-06
3.48652e-06
3.29024e-06
3.30897e-06
3.39295e-06
3.63094e-06
4.3085e-06
6.39486e-06
1.07034e-05
1.70104e-05
2.59468e-05
3.87967e-05
5.56826e-05
7.55461e-05
9.62049e-05
0.000115054
0.000129921
0.0001397
0.000144331
0.000144969
0.000140937
0.000135256
0.000126751
0.000116921
0.000105796
9.44198e-05
8.24799e-05
7.49667e-05
7.39509e-05
7.42354e-05
5.08007e-05
3.42532e-05
2.06397e-05
1.13253e-05
9.31346e-06
9.40641e-06
0.000104044
3.79032e-06
3.38858e-06
3.20516e-06
3.19724e-06
3.06833e-06
3.06162e-06
2.8894e-06
3.02764e-06
3.32765e-06
3.96227e-06
3.90841e-06
3.45364e-06
3.0935e-06
2.71883e-06
2.63485e-06
2.54553e-06
2.14638e-06
1.85469e-06
1.99096e-06
2.15546e-06
2.18455e-06
1.89558e-06
1.67914e-06
1.0649e-06
1.09446e-06
1.36253e-06
1.46197e-06
1.77007e-06
1.68984e-06
1.41739e-06
1.36178e-06
1.2642e-06
1.10816e-06
1.1959e-06
1.32999e-06
1.39161e-06
1.62608e-06
2.46953e-06
6.78405e-06
1.14829e-05
9.10373e-06
4.78596e-06
3.78675e-06
3.54515e-06
3.51664e-06
3.42176e-06
3.46909e-06
3.73297e-06
4.47077e-06
6.69782e-06
1.1197e-05
1.79216e-05
2.75631e-05
4.15317e-05
6.0017e-05
8.18486e-05
0.000104604
0.000125376
0.000141739
0.000152417
0.000157345
0.000157862
0.000152997
0.000146404
0.000136736
0.000125651
0.000113314
0.000100792
8.78889e-05
7.90011e-05
7.69084e-05
8.1554e-05
5.69985e-05
3.4357e-05
2.07549e-05
1.21003e-05
9.64153e-06
9.33179e-06
9.55235e-05
3.82671e-06
3.54133e-06
3.2613e-06
3.2874e-06
3.17224e-06
3.21277e-06
3.07775e-06
3.2465e-06
3.55954e-06
4.22853e-06
4.15949e-06
3.73099e-06
3.3537e-06
2.877e-06
2.7328e-06
2.62657e-06
2.33226e-06
1.94654e-06
2.02862e-06
2.25589e-06
2.31433e-06
2.0375e-06
1.86117e-06
1.13626e-06
1.11381e-06
1.38291e-06
1.55887e-06
2.41931e-06
1.89304e-06
1.48649e-06
1.36973e-06
1.2612e-06
1.10475e-06
1.20217e-06
1.34138e-06
1.43461e-06
1.72386e-06
2.9436e-06
8.15137e-06
1.2023e-05
7.99235e-06
4.58634e-06
3.77805e-06
3.64117e-06
3.61047e-06
3.5752e-06
3.54188e-06
3.83384e-06
4.63148e-06
6.99311e-06
1.16828e-05
1.88375e-05
2.92361e-05
4.44029e-05
6.46202e-05
8.85958e-05
0.000113642
0.000136516
0.000154513
0.000166151
0.000171375
0.00017175
0.000165926
0.000158314
0.000147359
0.000134896
0.00012127
0.000107565
9.37184e-05
8.32774e-05
8.3865e-05
8.94188e-05
6.36852e-05
3.84494e-05
2.15171e-05
1.26224e-05
9.97774e-06
9.26813e-06
8.6938e-05
3.86028e-06
3.60815e-06
3.31841e-06
3.37442e-06
3.27666e-06
3.38062e-06
3.28211e-06
3.48047e-06
3.80582e-06
4.50762e-06
4.42165e-06
4.0201e-06
3.60933e-06
3.07245e-06
2.82334e-06
2.77964e-06
2.35954e-06
2.03308e-06
2.06014e-06
2.29019e-06
2.49103e-06
2.19274e-06
1.99265e-06
1.19462e-06
1.12484e-06
1.45908e-06
1.77246e-06
4.06327e-06
2.25657e-06
1.59943e-06
1.38349e-06
1.25786e-06
1.0972e-06
1.21209e-06
1.36454e-06
1.46637e-06
1.85795e-06
3.41544e-06
9.32037e-06
1.20802e-05
6.92484e-06
4.36504e-06
3.76543e-06
3.72167e-06
3.87257e-06
3.77251e-06
3.61437e-06
3.93268e-06
4.78928e-06
7.27867e-06
1.21598e-05
1.97517e-05
3.09649e-05
4.7413e-05
6.9504e-05
9.58134e-05
0.000123361
0.000148533
0.000168313
0.000180978
0.000186498
0.00018671
0.000179794
0.00017105
0.000158677
0.000144715
0.000129729
0.000114824
0.000100084
8.7676e-05
8.93398e-05
9.75751e-05
7.11717e-05
3.9636e-05
2.28399e-05
1.33568e-05
1.0317e-05
9.20675e-06
7.94615e-05
3.92542e-06
3.65006e-06
3.37541e-06
3.47797e-06
3.36934e-06
3.55829e-06
3.5001e-06
3.72709e-06
4.07196e-06
4.79581e-06
4.72668e-06
4.31741e-06
3.86077e-06
3.31728e-06
2.92099e-06
2.81383e-06
2.44765e-06
2.03598e-06
2.07497e-06
2.35026e-06
2.60536e-06
2.34543e-06
2.20079e-06
1.31111e-06
1.20741e-06
1.84105e-06
5.20478e-06
1.87338e-05
3.09477e-06
1.69194e-06
1.40893e-06
1.25926e-06
1.09473e-06
1.21767e-06
1.37635e-06
1.54638e-06
2.05169e-06
4.34478e-06
1.03088e-05
1.18648e-05
6.09534e-06
4.40804e-06
3.74674e-06
3.80401e-06
4.00323e-06
3.87138e-06
3.69696e-06
4.0286e-06
4.9429e-06
7.55263e-06
1.2627e-05
2.06563e-05
3.2748e-05
5.05642e-05
7.468e-05
0.000103528
0.000133807
0.00016149
0.000183216
0.000196982
0.000202792
0.000202834
0.000194684
0.000184682
0.000170764
0.000155187
0.00013878
0.000122688
0.000107139
9.43721e-05
9.54756e-05
0.000105951
7.94186e-05
4.15039e-05
2.32611e-05
1.37736e-05
1.06285e-05
9.1654e-06
7.2224e-05
3.97428e-06
3.67813e-06
3.42767e-06
3.54392e-06
3.50178e-06
3.74758e-06
3.73103e-06
3.98305e-06
4.3558e-06
5.0974e-06
5.0677e-06
4.62085e-06
4.10708e-06
3.60485e-06
3.08546e-06
2.93927e-06
2.53697e-06
2.0797e-06
2.12808e-06
2.3746e-06
2.73303e-06
2.49037e-06
2.36613e-06
1.42858e-06
1.29806e-06
2.15207e-06
1.48299e-05
0.000113837
8.06714e-06
2.07735e-06
1.45099e-06
1.26514e-06
1.08961e-06
1.23367e-06
1.41124e-06
1.59188e-06
2.27896e-06
5.37501e-06
1.07661e-05
1.12781e-05
5.518e-06
4.34625e-06
3.77701e-06
3.90457e-06
4.12407e-06
3.98213e-06
3.78183e-06
4.12161e-06
5.09109e-06
7.81316e-06
1.30835e-05
2.15649e-05
3.45828e-05
5.38579e-05
8.016e-05
0.000111768
0.000145029
0.000175456
0.000199308
0.000214255
0.000220356
0.000220208
0.000210705
0.000199311
0.000183717
0.000166417
0.000148543
0.000131314
0.000115119
0.00010193
0.000102785
0.000114077
8.79931e-05
4.72823e-05
2.69515e-05
1.45017e-05
1.10088e-05
9.11011e-06
6.50917e-05
4.04862e-06
3.71022e-06
3.48797e-06
3.58256e-06
3.59943e-06
3.94549e-06
3.97518e-06
4.25314e-06
4.65852e-06
5.41349e-06
5.43086e-06
4.93494e-06
4.34708e-06
3.9097e-06
3.33103e-06
2.99151e-06
2.65142e-06
2.12021e-06
2.17071e-06
2.34721e-06
2.86452e-06
2.6256e-06
2.58923e-06
1.59399e-06
1.54313e-06
6.41392e-06
8.40637e-05
0.000324464
3.01199e-05
3.07105e-06
1.50752e-06
1.27438e-06
1.09145e-06
1.24138e-06
1.42994e-06
1.71107e-06
2.65033e-06
6.4471e-06
1.10734e-05
1.03879e-05
5.02035e-06
4.14063e-06
3.84499e-06
3.99317e-06
4.22697e-06
4.0942e-06
3.87381e-06
4.21131e-06
5.2327e-06
8.05847e-06
1.35269e-05
2.24749e-05
3.64648e-05
5.72954e-05
8.59555e-05
0.000120563
0.000157077
0.000190506
0.000216684
0.000232904
0.0002393
0.000238978
0.000227931
0.00021506
0.00019766
0.000178543
0.000159176
0.000140908
0.000124295
0.000110877
0.000111641
0.000122383
9.75752e-05
4.86606e-05
2.84726e-05
1.49497e-05
1.13171e-05
9.08842e-06
5.92703e-05
4.1418e-06
3.76821e-06
3.66485e-06
3.72912e-06
3.72186e-06
4.14744e-06
4.23922e-06
4.54123e-06
4.97982e-06
5.74559e-06
5.81422e-06
5.27711e-06
4.56951e-06
4.28156e-06
3.55432e-06
3.06744e-06
2.75059e-06
2.21333e-06
2.18692e-06
2.3356e-06
2.90436e-06
2.76532e-06
2.77942e-06
1.75738e-06
1.8558e-06
1.05395e-05
9.01874e-05
0.000161093
6.00392e-05
5.82187e-06
1.68131e-06
1.29246e-06
1.09709e-06
1.26194e-06
1.47795e-06
1.79404e-06
3.00111e-06
7.56909e-06
1.15479e-05
9.35527e-06
4.90686e-06
4.22012e-06
3.84289e-06
4.00451e-06
4.29076e-06
4.20763e-06
3.97595e-06
4.2979e-06
5.36668e-06
8.28684e-06
1.39544e-05
2.33814e-05
3.83876e-05
6.08766e-05
9.20777e-05
0.000129941
0.000170008
0.000206723
0.000235447
0.000253046
0.000259746
0.000259279
0.000246545
0.000232077
0.000212753
0.000191745
0.000170893
0.000151737
0.000135017
0.000121651
0.000122476
0.000132579
0.000107917
5.63349e-05
3.03475e-05
1.54811e-05
1.17365e-05
9.09374e-06
5.33712e-05
4.23997e-06
3.82657e-06
4.00098e-06
3.98094e-06
3.89455e-06
4.3521e-06
4.55102e-06
4.84839e-06
5.31808e-06
6.09633e-06
6.21685e-06
5.62796e-06
4.88126e-06
4.7404e-06
3.8587e-06
3.15474e-06
2.83836e-06
2.35075e-06
2.22527e-06
2.34822e-06
2.86512e-06
2.8402e-06
3.05311e-06
1.97265e-06
2.22335e-06
1.3932e-05
8.50712e-05
0.000111766
6.80847e-05
1.13238e-05
2.01715e-06
1.31114e-06
1.10542e-06
1.27902e-06
1.50973e-06
1.97037e-06
3.51541e-06
8.61715e-06
1.16617e-05
8.22176e-06
4.80613e-06
4.08839e-06
3.896e-06
4.08389e-06
4.28738e-06
4.3036e-06
4.09339e-06
4.38217e-06
5.49211e-06
8.49673e-06
1.43629e-05
2.42794e-05
4.03431e-05
6.46005e-05
9.85373e-05
0.000139936
0.000183881
0.000224195
0.000255714
0.000274816
0.000281841
0.000281283
0.000266725
0.000250555
0.000229204
0.000206259
0.000183971
0.000164148
0.000147734
0.000134884
0.000135798
0.000145259
0.000120662
5.6888e-05
3.15653e-05
1.58908e-05
1.20366e-05
9.12333e-06
4.84234e-05
4.34216e-06
3.87444e-06
4.10266e-06
4.06351e-06
4.01215e-06
4.55219e-06
4.89098e-06
5.17443e-06
5.67067e-06
6.46823e-06
6.63402e-06
6.0054e-06
5.21992e-06
5.22405e-06
4.25825e-06
3.32009e-06
2.91873e-06
2.49948e-06
2.28149e-06
2.37391e-06
2.92095e-06
2.94572e-06
3.25304e-06
2.19835e-06
2.48627e-06
1.57715e-05
7.72735e-05
9.75684e-05
7.71423e-05
1.79326e-05
2.7341e-06
1.36562e-06
1.11888e-06
1.30647e-06
1.58287e-06
2.11346e-06
4.11032e-06
9.4537e-06
1.15572e-05
7.10873e-06
4.67379e-06
4.01938e-06
4.00547e-06
4.20998e-06
4.40515e-06
4.44841e-06
4.08791e-06
4.46973e-06
5.60829e-06
8.68671e-06
1.4749e-05
2.51634e-05
4.23237e-05
6.8465e-05
0.000105344
0.000150577
0.000198758
0.000243023
0.000277617
0.000298368
0.000305755
0.000305197
0.0002887
0.000270737
0.000247278
0.000222389
0.000198774
0.000178584
0.000163007
0.000151428
0.000152264
0.000161253
0.000134368
6.13242e-05
3.17582e-05
1.63e-05
1.24478e-05
9.19401e-06
4.38033e-05
4.45874e-06
3.93694e-06
4.21035e-06
4.14999e-06
4.28628e-06
4.71939e-06
5.18882e-06
5.52463e-06
6.06057e-06
6.86378e-06
7.06276e-06
6.3945e-06
5.593e-06
5.70544e-06
4.67584e-06
3.51114e-06
3.02914e-06
2.62585e-06
2.33728e-06
2.40526e-06
2.87555e-06
3.02484e-06
3.51523e-06
2.42574e-06
2.76414e-06
1.59033e-05
7.10686e-05
0.000105685
8.10273e-05
2.31329e-05
3.42543e-06
1.41216e-06
1.13248e-06
1.33835e-06
1.62888e-06
2.37692e-06
4.95817e-06
1.00455e-05
1.11908e-05
6.21754e-06
4.42235e-06
3.96246e-06
4.0941e-06
4.36136e-06
4.52186e-06
4.56896e-06
4.15255e-06
4.54862e-06
5.71528e-06
8.85557e-06
1.51092e-05
2.60274e-05
4.43209e-05
7.24667e-05
0.000112508
0.0001619
0.000214709
0.000263315
0.000301303
0.000323882
0.00033169
0.000331267
0.000312758
0.000292931
0.000267314
0.000240526
0.000215772
0.000195615
0.000181542
0.000172377
0.000172725
0.000181491
0.000150164
6.824e-05
3.03969e-05
1.65933e-05
1.27678e-05
9.28207e-06
3.95114e-05
4.58141e-06
4.04224e-06
4.34271e-06
4.22634e-06
4.42516e-06
4.84457e-06
5.50364e-06
5.88904e-06
6.46855e-06
7.28342e-06
7.50203e-06
6.78657e-06
6.00639e-06
6.18034e-06
5.07658e-06
3.75639e-06
3.17029e-06
2.79132e-06
2.41099e-06
2.44525e-06
2.82044e-06
3.05876e-06
3.6839e-06
2.68012e-06
2.9942e-06
1.86643e-05
7.94918e-05
0.000101597
8.9402e-05
2.71503e-05
4.53711e-06
1.50992e-06
1.15268e-06
1.3708e-06
1.73858e-06
2.61849e-06
5.85759e-06
1.02484e-05
1.0539e-05
5.52594e-06
4.15669e-06
3.99893e-06
4.16315e-06
4.51838e-06
4.6231e-06
4.6046e-06
4.23666e-06
4.62408e-06
5.81289e-06
9.00233e-06
1.544e-05
2.68649e-05
4.63245e-05
7.66008e-05
0.000120036
0.000173938
0.000231807
0.000285191
0.000326939
0.000351566
0.00035982
0.000359624
0.00033921
0.000317528
0.000289747
0.000261174
0.000235574
0.000215974
0.000204318
0.000198586
0.000198435
0.000206954
0.000171204
7.75019e-05
3.0901e-05
1.7048e-05
1.31346e-05
9.35843e-06
3.6023e-05
4.70877e-06
4.17065e-06
4.47306e-06
4.45022e-06
4.83325e-06
5.02602e-06
5.8176e-06
6.26441e-06
6.89152e-06
7.72604e-06
7.95079e-06
7.23478e-06
6.46423e-06
6.64656e-06
5.49429e-06
4.01526e-06
3.29484e-06
2.9554e-06
2.48888e-06
2.49709e-06
2.83597e-06
3.14334e-06
3.87862e-06
2.90624e-06
3.27555e-06
1.94366e-05
7.53041e-05
0.000122143
0.000115469
2.90393e-05
4.8711e-06
1.57768e-06
1.17466e-06
1.42316e-06
1.81102e-06
3.00091e-06
6.70302e-06
1.05185e-05
9.75255e-06
5.01423e-06
4.23839e-06
4.0239e-06
4.20744e-06
4.67532e-06
4.72709e-06
4.75164e-06
4.31654e-06