/*--------------------------------*- C++ -*----------------------------------*\
| =========                 |                                                 |
| \\      /  F ield         | OpenFOAM: The Open Source CFD Toolbox           |
|  \\    /   O peration     | Version:  4.1                                   |
|   \\  /    A nd           | Web:      www.OpenFOAM.org                      |
|    \\/     M anipulation  |                                                 |
\*---------------------------------------------------------------------------*/
FoamFile
{
    version     2.0;
    format      ascii;
    class       volScalarField;
    location    "2";
    object      k;
}
// * * * * * * * * * * * * * * * * * * * * * * * * * * * * * * * * * * * * * //

dimensions      [0 2 -2 0 0 0 0];

internalField   nonuniform List<scalar> 
6785
(
0.412329
0.000195694
0.000187425
0.0001874
0.00018743
0.000187385
0.000187406
0.000187424
0.00018738
0.0001874
0.000187414
0.000187357
0.000187665
0.000536108
0.550472
0.527209
0.000841524
5.83145e-07
5.09138e-07
4.88162e-07
4.66025e-07
4.46859e-07
4.26574e-07
4.05897e-07
3.85149e-07
3.63853e-07
4.3427e-07
6.81476e-05
0.00796059
0.15453
0.654842
0.00573399
3.06469e-07
4.34235e-08
5.32311e-08
5.03184e-08
7.31774e-08
1.94683e-07
7.33448e-07
4.71709e-06
4.09899e-05
0.000318575
0.00222939
0.0148164
0.0138935
0.809843
0.0240351
5.477e-05
1.86998e-07
8.97975e-08
8.03796e-08
3.27771e-07
1.17068e-06
3.71996e-06
9.61419e-06
3.24457e-05
0.000179842
0.00113423
0.00498862
0.00585337
0.963674
0.0400131
0.00086011
1.54486e-05
1.88489e-06
2.51446e-06
2.77462e-05
0.000113018
0.000414585
0.000734227
0.000764924
0.000753916
0.0013677
0.00400516
0.00912407
1.11613
0.03614
0.000582746
2.17063e-05
0.000112462
0.000480771
0.0018641
0.00499253
0.00974024
0.010618
0.00555235
0.00702566
0.00749034
0.00630719
0.0230545
1.28013
0.0388775
0.000839088
0.000109755
0.000515286
0.00163007
0.00465668
0.0105179
0.0201653
0.0273816
0.0253455
0.0301697
0.0379296
0.0300892
0.040532
1.41969
0.107844
0.00377806
0.000303074
0.000736494
0.00186623
0.00433929
0.00801522
0.0146771
0.02671
0.0395334
0.0491621
0.0519135
0.0562381
0.0419577
1.49002
0.240427
0.0269515
0.00341481
0.0013685
0.00176322
0.00342378
0.00507849
0.00740218
0.0122235
0.0188296
0.026821
0.0501852
0.0947861
0.0328232
1.4818
0.398909
0.0714633
0.0156653
0.00501296
0.00273926
0.00323369
0.00387608
0.00459174
0.00642751
0.00984976
0.0132798
0.0246334
0.111494
0.056507
1.42088
0.582286
0.12077
0.0351885
0.0124906
0.00538208
0.00404174
0.00359317
0.00358163
0.00432624
0.0065746
0.0100329
0.0224802
0.136652
0.0763684
1.34449
0.825236
0.175389
0.0629456
0.0235509
0.00911712
0.00545906
0.00375155
0.00323001
0.00357329
0.00535612
0.00924725
0.0227828
0.155684
0.0790747
1.28072
1.13835
0.247765
0.107326
0.0455207
0.0179858
0.00906098
0.00501616
0.00348414
0.00335799
0.00484389
0.00904407
0.0222339
0.147861
0.0844773
1.21018
1.46665
0.328693
0.153613
0.0680314
0.025501
0.0127552
0.00660261
0.00416861
0.00349547
0.00462326
0.00850729
0.0204946
0.134892
0.072944
1.15694
2.24781
0.812767
0.413719
0.286197
0.198824
0.135513
0.0916088
0.0632686
0.0450352
0.0327093
0.0248428
0.0246682
0.0718673
0.0758609
0.366061
0.307385
0.293563
0.280688
0.26743
0.239316
0.230684
0.223608
0.216577
0.203216
0.196733
0.192493
0.186524
0.18057
0.177492
0.175011
0.173397
0.168773
0.166769
0.166438
0.162599
0.161129
0.159971
0.16073
0.158111
0.157289
0.156441
0.15715
0.155047
0.154338
0.154913
0.153578
0.153314
0.15273
0.152995
0.151986
0.151787
0.152647
0.152623
0.153117
0.153146
0.154167
0.155038
0.15617
0.156877
0.159239
0.161035
0.163023
0.169942
0.17241
0.175866
0.179549
0.19244
0.194686
0.199177
0.204579
0.227391
0.226141
0.229875
0.26325
0.248231
0.244916
0.241372
0.254335
0.236092
0.230133
0.222695
0.199984
0.185017
0.167134
0.126786
0.0860376
0.0695958
0.0581179
0.0488939
0.046586
0.0471277
0.0480112
0.0479987
0.0488397
0.0494755
0.0479651
0.048662
0.0471135
0.0463797
0.0462761
0.0457009
0.0457415
0.0458188
0.0459245
0.0461647
0.0470349
0.0501737
0.0499585
0.0523234
0.0559387
0.0607176
0.0672591
0.0763354
0.0882814
0.102756
0.138853
0.148873
0.156048
0.163297
0.170965
0.178869
0.186663
0.194856
0.204211
0.214105
0.232092
0.237174
0.245616
0.254572
0.263989
0.273849
0.283766
0.294049
0.304857
0.321061
0.336068
0.346265
0.355097
0.364237
0.374553
0.385395
0.397519
0.407891
0.422548
0.447558
0.458219
0.468753
0.479232
0.489295
0.502745
0.519488
0.539224
0.572687
0.597604
0.616309
0.64109
0.668625
0.701467
0.737075
0.751365
0.765433
0.777942
0.79942
0.829789
0.784031
0.713339
0.619131
0.510288
0.38119
0.282134
0.241668
0.191685
0.14084
0.0877552
0.031877
0.0293547
0.028366
0.0291486
0.0291401
0.0300207
0.0300386
0.0303799
0.0311277
0.0311437
0.0314543
0.0321946
0.0322154
0.0330848
0.033318
0.0336634
0.0344779
0.0345119
0.0354812
0.0357197
0.0361359
0.0371073
0.0371623
0.0376442
0.0387102
0.0387669
0.0400167
0.0403449
0.0409901
0.0422611
0.0423298
0.0437974
0.0441585
0.0449571
0.0464788
0.046571
0.0474576
0.0491219
0.0492166
0.051113
0.0515458
0.052671
0.0546382
0.0547553
0.0569772
0.0574661
0.0588175
0.0611424
0.0613024
0.0627582
0.0652744
0.0654414
0.0682585
0.0688616
0.070616
0.0734802
0.073666
0.0768067
0.0774565
0.0792878
0.0823014
0.0824524
0.0840758
0.0869469
0.086992
0.0901082
0.0906659
0.0923833
0.0953089
0.0952575
0.0986542
0.0992084
0.101086
0.104344
0.104247
0.106035
0.109401
0.109198
0.11309
0.113575
0.00777563
0.00708523
0.00619177
0.00557538
0.00514841
0.00481407
0.00454362
0.00431279
0.00410417
0.00388295
0.0035747
0.00332588
0.00377612
0.00297221
0.0019959
0.000744957
0.000331151
0.00146697
0.00196611
0.00186778
0.0019198
0.00190494
0.00191249
0.00179289
0.0017739
0.00183615
0.00189824
0.00202279
0.00198262
0.00196684
0.00191812
0.00182815
0.00176855
0.00173468
0.00172819
0.00176921
0.00175705
0.00174922
0.00178234
0.00205942
0.004237
0.00699489
0.00882632
0.00895298
0.00802968
0.00824367
0.0090838
0.0104667
0.0124494
0.0152425
0.019185
0.0244951
0.0311633
0.0389795
0.0474377
0.0558212
0.0634083
0.0695866
0.0739751
0.0764733
0.0771807
0.0763128
0.0740681
0.0706403
0.0661481
0.060664
0.054042
0.046989
0.0402321
0.0344907
0.0306647
0.030039
0.0165104
0.0038247
0.0022514
0.00253747
0.0021424
0.00296621
0.0290999
0.00775259
0.0070617
0.00619868
0.00560722
0.00520053
0.00488305
0.00462431
0.00440186
0.00420194
0.00399
0.00367645
0.00337807
0.00410116
0.00312658
0.00208282
0.000770237
0.000326361
0.00142645
0.00194531
0.00185582
0.00190795
0.00188707
0.00189874
0.00177712
0.00175933
0.00182285
0.0018859
0.00203537
0.00199064
0.001972
0.00191941
0.00182777
0.0017668
0.00173234
0.0017249
0.00176602
0.00175327
0.00174713
0.00178902
0.0021388
0.00457743
0.00756504
0.00923162
0.00886284
0.00803435
0.00829882
0.00918289
0.0106075
0.012633
0.0154961
0.0195626
0.0250509
0.0319306
0.0399939
0.0487224
0.0573795
0.0652158
0.0715966
0.0761288
0.0787119
0.0794534
0.0785761
0.0762789
0.072769
0.0681605
0.0625282
0.0556873
0.0484472
0.0414589
0.0354692
0.031338
0.0302979
0.0210348
0.0053106
0.00237391
0.0025298
0.00213985
0.00313002
0.029764
0.00765332
0.00700533
0.00620066
0.00565518
0.00528462
0.00499561
0.00475741
0.0045505
0.00436467
0.00416397
0.00383962
0.00348274
0.0041471
0.00337957
0.00235089
0.000883563
0.000346152
0.00143224
0.00197391
0.00188033
0.00192574
0.00189119
0.00190071
0.00176946
0.00174626
0.00180501
0.00185607
0.00202689
0.00198005
0.00196258
0.00190987
0.00181888
0.00175907
0.00172585
0.00171977
0.00176382
0.00175422
0.00175476
0.00181494
0.00228054
0.00511639
0.00821756
0.0094737
0.00880128
0.00809187
0.00842244
0.00936543
0.0108525
0.0129553
0.0159416
0.0202044
0.0259638
0.0331748
0.0416221
0.0507748
0.0598615
0.0680889
0.0747882
0.0795469
0.0822642
0.0830583
0.0821618
0.079778
0.0761283
0.0713274
0.0654509
0.0582734
0.0507116
0.0433532
0.0369829
0.0324206
0.0309678
0.0245522
0.0072895
0.00261473
0.00255182
0.00215593
0.00323323
0.0301742
0.00754002
0.0069526
0.00621946
0.00572706
0.0053968
0.00513913
0.00492389
0.00473485
0.00456569
0.00437978
0.00405096
0.00365846
0.00422173
0.00361045
0.00260591
0.0010231
0.000377547
0.00142826
0.00199663
0.00190223
0.00194129
0.00189255
0.00190134
0.00175981
0.00173312
0.00178861
0.00182774
0.00202239
0.00197193
0.00195575
0.00190228
0.00181166
0.00175242
0.00172014
0.0017148
0.0017614
0.00175441
0.00176138
0.00184265
0.00246018
0.00568859
0.00872603
0.00969126
0.00882926
0.00819697
0.00858218
0.00958166
0.0111312
0.0133251
0.0164486
0.0209335
0.0269894
0.0345607
0.0434382
0.0530731
0.0626484
0.0713218
0.078386
0.0834059
0.0862798
0.087138
0.0862233
0.0837459
0.0799401
0.0749234
0.0687699
0.0612256
0.0532908
0.0455149
0.0387236
0.033717
0.0318785
0.0273468
0.00964435
0.00298468
0.00258214
0.00217075
0.00332125
0.0307151
0.00743298
0.00691028
0.00625238
0.00581483
0.00552527
0.00529911
0.00510708
0.00493655
0.00478386
0.0046114
0.00427654
0.00385282
0.00426247
0.00381839
0.00285494
0.00118777
0.000423892
0.00141422
0.00201417
0.00192408
0.00195665
0.00189201
0.00190056
0.00174782
0.00171936
0.00177215
0.00180014
0.002022
0.00196628
0.00195136
0.00189648
0.00180597
0.00174669
0.00171503
0.00170985
0.00175851
0.00175366
0.00176702
0.00187444
0.00268536
0.00625763
0.00913745
0.00984345
0.00886225
0.00830769
0.00874983
0.00980663
0.0114229
0.0137151
0.016987
0.0217123
0.0280662
0.036017
0.0453581
0.0555126
0.0656157
0.0747718
0.0822322
0.0875368
0.0905815
0.0915105
0.0905786
0.0880024
0.0840294
0.0787794
0.0723232
0.0643961
0.0560459
0.0478157
0.04057
0.0351012
0.0328505
0.0295213
0.0122588
0.00353225
0.00262686
0.00218337
0.00335179
0.0306549
0.00734154
0.00688358
0.00630091
0.00591857
0.00566955
0.00547503
0.00530634
0.00515521
0.00501979
0.00486072
0.00452197
0.00407152
0.00430434
0.00400584
0.0031063
0.00138973
0.000493393
0.0013998
0.00203518
0.00195564
0.00198147
0.00189773
0.00190412
0.00173732
0.00170708
0.00175673
0.00177374
0.00202621
0.00196223
0.00194818
0.00189147
0.00180096
0.00174151
0.00171064
0.00170562
0.00175664
0.00175437
0.00177549
0.0019189
0.0029677
0.00681969
0.0095047
0.00994784
0.00890449
0.00842386
0.00892347
0.0100375
0.0117235
0.0141162
0.0175496
0.0225137
0.0291738
0.0375218
0.0473503
0.0580525
0.0687134
0.0783802
0.0862603
0.0918672
0.0950932
0.0960976
0.0951499
0.092472
0.0883242
0.0828291
0.0760504
0.0677329
0.0589337
0.0502217
0.0424976
0.0365594
0.033874
0.0312503
0.0150083
0.00431415
0.00270542
0.00219974
0.00334882
0.0308051
0.0072736
0.00687716
0.00636701
0.0060389
0.00582975
0.00566674
0.0055212
0.00539018
0.00527265
0.00512631
0.00478586
0.0043114
0.00436265
0.00418782
0.00335579
0.00163015
0.000591647
0.00138687
0.00205698
0.00199655
0.00201705
0.00191196
0.00191345
0.00172867
0.00169577
0.00174178
0.00174794
0.00203528
0.00195959
0.00194563
0.00188667
0.00179611
0.00173649
0.00170663
0.00170193
0.00175574
0.00175665
0.00178742
0.00198077
0.00330758
0.00736929
0.00983289
0.0100112
0.00894884
0.0085423
0.00910098
0.0102717
0.0120286
0.0145246
0.0181247
0.0233294
0.030306
0.0390691
0.0494084
0.0606864
0.0719353
0.0821411
0.0904641
0.0963903
0.0998077
0.100891
0.0999285
0.0971453
0.0928145
0.0870614
0.0799453
0.0712184
0.0619396
0.0527173
0.0444881
0.0380694
0.0349236
0.0326712
0.0177477
0.00535767
0.00283721
0.00222248
0.00332137
0.0306219
0.00723112
0.00689268
0.00645162
0.00617597
0.00600606
0.00587457
0.00575207
0.00564191
0.00554312
0.00541013
0.00506911
0.00457342
0.0044536
0.00436569
0.00360107
0.00190474
0.000722058
0.00137705
0.00207526
0.00204285
0.0020607
0.00193412
0.0019284
0.0017213
0.00168434
0.00172629
0.00172167
0.00204931
0.00195845
0.00194344
0.00188179
0.00179114
0.0017313
0.00170268
0.00169842
0.00175536
0.00176003
0.00180285
0.00206445
0.00370213
0.00790122
0.0101137
0.0100422
0.00899486
0.0086631
0.00928114
0.0105086
0.0123369
0.0149381
0.0187083
0.0241558
0.0314599
0.040656
0.05153
0.0634125
0.0752802
0.0860539
0.0948431
0.101106
0.104724
0.105892
0.104914
0.102022
0.0974995
0.0914753
0.0840085
0.0748492
0.0650607
0.0552986
0.0465363
0.0396258
0.036007
0.0338759
0.0203611
0.0066542
0.00304398
0.00225391
0.00329206
0.0301265
0.00721475
0.00693108
0.00655513
0.00633024
0.00619885
0.0060989
0.0059995
0.00591092
0.00583162
0.00571306
0.00537232
0.0048576
0.00458316
0.00452217
0.00384132
0.0022059
0.000887102
0.00137521
0.00208894
0.00209212
0.00210996
0.0019634
0.00194944
0.00171568
0.00167296
0.00171047
0.00169542
0.00207023
0.0019603
0.00194203
0.00187709
0.00178621
0.00172608
0.00169891
0.00169518
0.00175565
0.00176466
0.00182285
0.00217644
0.0041512
0.00841602
0.0103397
0.0100474
0.00904175
0.00878631
0.00946371
0.0107477
0.0126475
0.0153554
0.0192978
0.0249907
0.0326336
0.0422809
0.0537142
0.0662312
0.0787499
0.0901213
0.0994006
0.106017
0.109847
0.111101
0.110109
0.107104
0.102381
0.096072
0.0882406
0.078624
0.0682939
0.0579609
0.0486384
0.0412175
0.0371272
0.0349464
0.0227932
0.00817838
0.00334939
0.00229884
0.00326585
0.029721
0.00722342
0.00699215
0.00667758
0.0065019
0.00640824
0.00633994
0.00626392
0.00619765
0.00613845
0.00603566
0.00569642
0.00516424
0.00475674
0.00466076
0.0040749
0.0025242
0.00108826
0.00138793
0.00209875
0.00214324
0.00216324
0.00199871
0.00197675
0.0017125
0.00166205
0.00169498
0.00167068
0.00210144
0.00196759
0.00194214
0.00187294
0.00178154
0.001721
0.00169548
0.00169245
0.00175696
0.00177117
0.00184972
0.00232587
0.00465329
0.00890538
0.0105096
0.0100333
0.00908971
0.00891236
0.0096487
0.0109887
0.0129597
0.0157752
0.0198911
0.0258323
0.0338253
0.0439423
0.0559604
0.0691431
0.0823463
0.0943464
0.10414
0.111127
0.115179
0.116525
0.115518
0.112395
0.107463
0.100853
0.0926424
0.0825424
0.0716371
0.060699
0.0507903
0.0428336
0.0382751
0.0359481
0.025031
0.00988881
0.00377446
0.00236365
0.00323935
0.0290779
0.00725614
0.00707552
0.00681886
0.00669099
0.00663423
0.00659791
0.0065458
0.00650253
0.00646388
0.00637823
0.00604236
0.00549516
0.00497638
0.00480131
0.00429959
0.00285401
0.00132687
0.0014215
0.00210593
0.00219543
0.00221974
0.00203878
0.00201004
0.00171215
0.00165171
0.00168029
0.00164861
0.0021474
0.00198358
0.00194457
0.00186956
0.00177718
0.00171606
0.0016924
0.00169027
0.00175953
0.00178008
0.00188663
0.00252165
0.00520255
0.00935704
0.0106253
0.0100055
0.00913963
0.00904188
0.0098363
0.0112311
0.0132728
0.0161961
0.0204861
0.0266789
0.035033
0.0456383
0.0582677
0.072149
0.0860714
0.0987323
0.109066
0.116441
0.120725
0.122165
0.121143
0.117899
0.112747
0.105821
0.0972136
0.0866034
0.0750868
0.0635068
0.0529794
0.0444618
0.0394401
0.03692
0.0270787
0.0117435
0.00433336
0.00245584
0.00321232
0.0283426
0.00731274
0.00718114
0.00697874
0.00689703
0.00687675
0.00687305
0.00684561
0.00682601
0.00680824
0.00674098
0.00641083
0.00585182
0.00524272
0.00496392
0.00451001
0.00319053
0.00160233
0.00148164
0.00211232
0.00224743
0.00227928
0.00208301
0.00204843
0.00171541
0.00164175
0.00166599
0.00162666
0.00221236
0.00201255
0.00195063
0.00186723
0.00177316
0.00171124
0.00168966
0.00168866
0.00176357
0.00179218
0.00193788
0.00277112
0.00578685
0.00975921
0.0106909
0.00996862
0.00919281
0.00917592
0.0100268
0.0114749
0.013586
0.0166168
0.0210811
0.0275283
0.0362543
0.0473669
0.0606349
0.0752489
0.0899271
0.103282
0.114182
0.121963
0.126488
0.128026
0.126988
0.123617
0.118235
0.110975
0.101953
0.0908052
0.0786393
0.0663772
0.0551942
0.0460888
0.040608
0.03789
0.0289369
0.0136795
0.00503312
0.00258321
0.00318965
0.0275851
0.00739347
0.00730888
0.00715691
0.00711955
0.00713566
0.0071656
0.00716381
0.00716853
0.00717198
0.00712427
0.00680244
0.00623454
0.00555788
0.00518442
0.00471384
0.00352421
0.0019101
0.00157306
0.00212177
0.0022982
0.00234177
0.00213117
0.00209164
0.00172294
0.00163218
0.00165054
0.00160288
0.00230245
0.00205937
0.00196253
0.00186641
0.00176959
0.00170656
0.00168728
0.0016877
0.00176932
0.00180841
0.00200912
0.0030794
0.00638783
0.0101051
0.0107118
0.00992609
0.0092496
0.00931594
0.0102207
0.0117197
0.0138986
0.0170359
0.0216738
0.0283787
0.0374867
0.0491259
0.0630607
0.0784429
0.093915
0.107999
0.119492
0.127696
0.132471
0.13411
0.133055
0.129552
0.123928
0.116315
0.106859
0.0951453
0.0822893
0.0693017
0.0574196
0.0477009
0.0417601
0.0388586
0.030654
0.0156505
0.00586924
0.00275397
0.00316769
0.0267783
0.0074986
0.0074586
0.00735291
0.0073581
0.00741084
0.00747567
0.00750073
0.00753048
0.00755563
0.00752865
0.00721773
0.00664393
0.00592048
0.00547509
0.00492836
0.0038447
0.00224349
0.00170008
0.00213982
0.00234732
0.00240716
0.00218378
0.00213989
0.00173533
0.00162359
0.00163274
0.00158485
0.00243915
0.0021296
0.00198353
0.00186781
0.00176662
0.00170207
0.0016853
0.00168749
0.00177704
0.00183023
0.00210634
0.00344682
0.00698625
0.010391
0.0106949
0.00987986
0.00930803
0.00946262
0.0104182
0.0119656
0.0142101
0.0174522
0.0222623
0.0292276
0.0387274
0.0509126
0.0655431
0.0817303
0.0980361
0.112885
0.124999
0.133643
0.138677
0.14042
0.139345
0.135704
0.129827
0.121842
0.111927
0.0996202
0.0860306
0.0722716
0.0596408
0.0492835
0.0428709
0.0398027
0.0322499
0.0176494
0.00683841
0.00297569
0.00315201
0.0259484
0.00762702
0.00762919
0.00756644
0.00761232
0.00770222
0.00780334
0.00785672
0.00791219
0.00795972
0.00795472
0.00765719
0.00708043
0.00632396
0.00579402
0.00514897
0.00414771
0.00259301
0.00186435
0.00217196
0.00239605
0.00247532
0.00224123
0.00219392
0.00175341
0.00161773
0.00161563
0.00159858
0.00269538
0.00223182
0.00201798
0.00187245
0.00176446
0.00169784
0.00168373
0.00168817
0.0017869
0.00185947
0.00223602
0.00386786
0.00756349
0.0106158
0.0106471
0.00983177
0.00936905
0.00961462
0.0106201
0.0122127
0.0145199
0.0178644
0.0228447
0.0300726
0.0399735
0.0527242
0.0680802
0.0851104
0.102291
0.117943
0.130707
0.139809
0.145108
0.146955
0.145858
0.142073
0.135932
0.127553
0.117152
0.104225
0.0898558
0.0752763
0.06185
0.0508204
0.043921
0.0407061
0.0336817
0.0196145
0.00792706
0.00325475
0.00314287
0.0251456
0.00777804
0.00781969
0.00779732
0.00788244
0.00800944
0.00814821
0.00823219
0.00831402
0.00838489
0.00840311
0.00812137
0.00754422
0.00676395
0.0061233
0.00537665
0.00443837
0.00295219
0.00206486
0.00222263
0.00244621
0.00254654
0.0023043
0.00225439
0.00177807
0.00161753
0.00161106
0.00170978
0.00330999
0.00239072
0.00207143
0.00188187
0.00176339
0.00169395
0.00168262
0.00168995
0.00179918
0.0018986
0.00240273
0.00433224
0.00810615
0.0107787
0.010576
0.00978485
0.00943615
0.00977195
0.0108265
0.0124612
0.0148275
0.0182711
0.0234187
0.0309113
0.0412217
0.0545576
0.0706693
0.0885817
0.106681
0.123176
0.136619
0.146196
0.151766
0.153716
0.152595
0.148658
0.142241
0.133446
0.122527
0.108955
0.093756
0.0783041
0.0640343
0.052297
0.0448914
0.0415605
0.0349892
0.0214972
0.00911424
0.00359559
0.00314218
0.0242746
0.00795043
0.00802955
0.00804563
0.00816921
0.00833265
0.00851072
0.00862784
0.00873655
0.00883187
0.00887448
0.00861082
0.00803564
0.00723833
0.00648718
0.00562556
0.00472455
0.00331487
0.00229931
0.00229564
0.00250013
0.002621
0.00237358
0.00232237
0.00181065
0.00162728
0.00164386
0.0020533
0.00473328
0.0026627
0.00215305
0.00189818
0.00176379
0.00169055
0.00168203
0.00169292
0.00181447
0.00195052
0.0026101
0.00482995
0.00860489
0.010879
0.0104894
0.00974168
0.0095071
0.00993508
0.011038
0.0127115
0.0151328
0.0186712
0.0239825
0.0317408
0.0424688
0.0564092
0.0733077
0.0921429
0.111205
0.128585
0.142738
0.152805
0.158651
0.160703
0.159554
0.155459
0.148752
0.139518
0.128043
0.113802
0.0977209
0.0813417
0.0661775
0.0537034
0.0457632
0.0423401
0.0362048
0.0232979
0.0103775
0.00400025
0.00315716
0.023419
0.00814269
0.00825622
0.00831139
0.0084731
0.00867321
0.00889253
0.00904456
0.00918056
0.00930161
0.00936958
0.00912673
0.00855523
0.00774471
0.00690158
0.00592122
0.00500969
0.00367481
0.00256493
0.00239411
0.0025593
0.00269902
0.00244982
0.00239838
0.00185222
0.00165301
0.00176655
0.00294785
0.00792662
0.00312126
0.00227739
0.00192438
0.00176616
0.00168777
0.00168209
0.0016973
0.0018334
0.00201832
0.00285812
0.00534908
0.00905031
0.0109211
0.0103917
0.0097052
0.00958398
0.0101054
0.011254
0.0129641
0.0154356
0.0190637
0.024534
0.0325584
0.0437114
0.0582753
0.0759923
0.0957919
0.115864
0.134172
0.149065
0.159639
0.165764
0.167915
0.166733
0.162472
0.155463
0.145763
0.133688
0.118759
0.101739
0.084375
0.0682646
0.0550113
0.0465091
0.0430185
0.0372997
0.0249863
0.0116964
0.00446958
0.00318792
0.0226296
0.00835394
0.0085
0.00859502
0.00879443
0.0090325
0.00929459
0.00948329
0.00964696
0.00979506
0.00988932
0.00967058
0.00910363
0.00828139
0.00737218
0.00628295
0.00530458
0.00402838
0.00285577
0.00251983
0.00262562
0.00278008
0.0025336
0.00248318
0.00190385
0.00170385
0.00208471
0.00507729
0.0146603
0.00382845
0.00245694
0.00196448
0.00177118
0.0016858
0.0016829
0.00170323
0.00185717
0.00210533
0.00314703
0.00587768
0.0094366
0.0109128
0.0102864
0.00967909
0.00967405
0.010282
0.0114755
0.0132198
0.015736
0.0194478
0.0250711
0.0333609
0.0449458
0.0601518
0.0787193
0.0995266
0.120656
0.139936
0.155604
0.166699
0.173104
0.175348
0.174126
0.169694
0.162367
0.152176
0.139451
0.123815
0.105796
0.087387
0.0702797
0.0562069
0.0471015
0.0435693
0.0382954
0.0265644
0.0130411
0.00500102
0.0032366
0.0218131
0.0085831
0.00876153
0.00889768
0.00913392
0.00941165
0.00971771
0.00994509
0.0101368
0.010313
0.0104347
0.010243
0.00968194
0.00884801
0.00786705
0.00668724
0.00561727
0.00437209
0.00316279
0.0026737
0.00270181
0.00286365
0.00262511
0.00257698
0.00196597
0.00178145
0.002557
0.00746943
0.0231168
0.00511256
0.00272732
0.00202311
0.00177965
0.00168479
0.00168467
0.00171109
0.00188686
0.00221448
0.00347409
0.00640174
0.00976092
0.0108649
0.0101814
0.00966744
0.00978167
0.0104679
0.011705
0.0134795
0.0160344
0.0198225
0.025592
0.0341453
0.0461681
0.0620342
0.0814846
0.103344
0.125581
0.14588
0.162354
0.173986
0.18067
0.182999
0.18173
0.177119
0.16946
0.158749
0.145329
0.128949
0.109878
0.0903606
0.0722017
0.0572755
0.0475119
0.0439533
0.0391783
0.0280513
0.0143987
0.00559093
0.00331149
0.021041
0.0088299
0.00904164
0.00922204
0.00949487
0.00981161
0.0101626
0.0104311
0.0106512
0.0108564
0.0110066
0.0108445
0.0102918
0.0094453
0.00840164
0.00712759
0.00595065
0.00471006
0.00347815
0.00285459
0.00279059
0.00294951
0.00272391
0.00268005
0.00203848
0.00187761
0.00298981
0.00818084
0.0177462
0.00629621
0.00307138
0.00210216
0.00179233
0.00168494
0.00168752
0.00172117
0.00192423
0.00234869
0.00383437
0.00690917
0.0100229
0.0107882
0.0100809
0.00967367
0.00990516
0.0106647
0.0119442
0.0137442
0.0163313
0.0201875
0.0260948
0.034908
0.047374
0.0639172
0.0842837
0.107242
0.130637
0.152004
0.169319
0.1815
0.188459
0.190863
0.189538
0.18474
0.176734
0.165475
0.151313
0.13414
0.113967
0.0932774
0.0740138
0.0582037
0.0477144
0.0441392
0.0399189
0.0294179
0.0157466
0.00623232
0.00340803
0.0202964
0.00909392
0.00934046
0.00957009
0.00987989
0.0102345
0.0106295
0.0109424
0.0111913
0.0114261
0.0116057
0.0114753
0.0109341
0.0100768
0.00898623
0.00765339
0.00632095
0.00505162
0.0037997
0.00305942
0.002894
0.00303781
0.00282915
0.0027921
0.00212155
0.00198537
0.00335552
0.00850887
0.0140925
0.00707834
0.00343847
0.00219941
0.00180976
0.00168642
0.00169168
0.001734
0.00197075
0.00250947
0.00422242
0.00739177
0.0102241
0.0106906
0.00998952
0.00969874
0.0100429
0.0108739
0.0121951
0.0140151
0.0166277
0.0205426
0.0265777
0.0356458
0.0485586
0.0657955
0.0871113
0.111215
0.135823
0.158306
0.176498
0.189241
0.196469
0.198933
0.197541
0.192548
0.184179
0.172343
0.157389
0.139366
0.118045
0.0961187
0.0757009
0.0589813
0.047692
0.0440875
0.0405043
0.0306672
0.0170696
0.00691786
0.00353293
0.0195942
0.00937497
0.00965719
0.00993627
0.010284
0.0106794
0.0111182
0.0114794
0.0117576
0.0120231
0.0122331
0.0121358
0.0116095
0.010746
0.00962528
0.0082866
0.00675006
0.00540454
0.00412744
0.00328532
0.00301332
0.00312887
0.00293951
0.00291273
0.0022154
0.00210081
0.00365751
0.00881537
0.0134004
0.00763885
0.00379417
0.00230957
0.00183187
0.00168935
0.00169733
0.00175003
0.00202844
0.00269778
0.00463189
0.00784166
0.0103664
0.0105788
0.00991108
0.0097434
0.0101981
0.0110989
0.0124599
0.014294
0.0169247
0.0208877
0.0270391
0.0363549
0.0497168
0.067663
0.0899615
0.11526
0.141137
0.164788
0.183891
0.197208
0.204694
0.207203
0.20573
0.200533
0.191785
0.17934
0.163542
0.144599
0.122093
0.0988655
0.0772509
0.0596012
0.0474334
0.0437763
0.0408887
0.0317791
0.0183501
0.00763771
0.00368268
0.0189598
0.00967403
0.00999182
0.0103154
0.0107041
0.0111475
0.0116282
0.0120403
0.0123507
0.0126486
0.0128896
0.0128262
0.0123193
0.0114526
0.0103157
0.00896708
0.00723708
0.00577673
0.00445973
0.00352931
0.00314913
0.00322363
0.00305417
0.00304039
0.00232013
0.00221807
0.00388973
0.00905562
0.0131572
0.00807669
0.00412217
0.00242752
0.00185841
0.00169381
0.00170468
0.00177003
0.00209881
0.00291325
0.00505606
0.0082527
0.0104533
0.0104592
0.00984936
0.00980924
0.0103749
0.0113439
0.0127404
0.014584
0.0172244
0.0212233
0.0274776
0.0370319
0.0508431
0.0695131
0.0928278
0.119371
0.146575
0.171449
0.1915
0.2054
0.213132
0.215663
0.214093
0.208683
0.199539
0.186456
0.169757
0.149809
0.126091
0.101499
0.078655
0.0600602
0.0469333
0.0431857
0.0410618
0.0327284
0.0195694
0.00838096
0.00385428
0.0183239
0.00999259
0.0103465
0.0107127
0.0111447
0.0116398
0.0121593
0.0126247
0.012971
0.0133036
0.0135762
0.013547
0.0130637
0.0121977
0.0110529
0.00966004
0.00776124
0.00617547
0.00479759
0.00378764
0.0033014
0.00332256
0.00317203
0.00317306
0.00243643
0.00232911
0.00402598
0.0090348
0.0131168
0.00856631
0.00442586
0.00254754
0.00188849
0.0016998
0.00171395
0.00179457
0.00218382
0.00315544
0.00548773
0.00862016
0.0104911
0.010339
0.00980751
0.00989892
0.0105765
0.0116108
0.0130393
0.0148891
0.0175288
0.0215502
0.0278923
0.037673
0.0519317
0.0713387
0.095703
0.123543
0.152135
0.178288
0.199325
0.213815
0.221775
0.224302
0.222616
0.216984
0.20743
0.193674
0.176015
0.154962
0.130018
0.104002
0.0799085
0.0603578
0.0461993
0.0422911
0.0410005
0.0335059
0.0207061
0.00913316
0.00405184
0.0177355
0.0103311
0.0107224
0.0111302
0.0116101
0.0121581
0.0127157
0.0132349
0.0136189
0.0139881
0.0142935
0.0142993
0.0138441
0.0129827
0.011835
0.010389
0.00833503
0.0066064
0.00514751
0.00405791
0.0034695
0.00342635
0.00329162
0.00330764
0.00256546
0.00243783
0.00407873
0.00903919
0.0133105
0.0100159
0.00478489
0.00267205
0.00192158
0.00170728
0.00172533
0.00182464
0.00228476
0.00342274
0.00591841
0.00894095
0.0104882
0.0102232
0.00978883
0.0100154
0.0108047
0.0119023
0.0133612
0.0152121
0.0178407
0.0218699
0.0282825
0.038275
0.0529767
0.0731322
0.098579
0.127768
0.15781
0.185303
0.207365
0.222452
0.230618
0.23311
0.231283
0.225419
0.215441
0.20098
0.1823
0.160017
0.133851
0.106355
0.0810094
0.0604972
0.045252
0.0410413
0.0406677
0.0341177
0.0217466
0.00988048
0.00426557
0.0172192
0.010689
0.0111189
0.0115682
0.0121026
0.0127041
0.0133034
0.0138725
0.0142949
0.0147024
0.0150422
0.0150843
0.0146627
0.0138088
0.0126591
0.0111684
0.00898408
0.00708301
0.00551594
0.00434055
0.00365292
0.00353614
0.00341194
0.00344133
0.00270736
0.00254959
0.00406332
0.00920404
0.0142261
0.0156038
0.00544554
0.00280821
0.00195686
0.00171614
0.0017391
0.00186098
0.00240322
0.00371255
0.00634161
0.00921426
0.0104544
0.0101183
0.00979615
0.0101596
0.0110608
0.0122216
0.0137105
0.0155566
0.0181632
0.0221841
0.0286479
0.0388346
0.0539722
0.0748856
0.101447
0.132038
0.163597
0.192492
0.21562
0.23131
0.239654
0.242073
0.240078
0.233972
0.223557
0.208359
0.188591
0.164937
0.137555
0.108538
0.0819637
0.0604854
0.0441207
0.0394567
0.0400321
0.0345599
0.0226827
0.0106089
0.00448877
0.0167144
0.0110656
0.0115357
0.012027
0.0126192
0.0132728
0.0139225
0.01454
0.0150002
0.0154467
0.0158225
0.0159029
0.0155206
0.0146765
0.0135222
0.011954
0.00968586
0.00761386
0.00590833
0.00463611
0.00385151
0.00365308
0.00353192
0.003572
0.00286099
0.00266456
0.00399412
0.00947998
0.0155501
0.0241702
0.00648113
0.00296594
0.00199399
0.00172625
0.00175543
0.00190476
0.00253987
0.00402247
0.00675212
0.00944108
0.0103994
0.0100295
0.00983065
0.0103334
0.0113482
0.0125725
0.0140892
0.0159269
0.0185001
0.0224951
0.0289887
0.0393491
0.0549119
0.0765907
0.104298
0.136345
0.169487
0.199852
0.224091
0.240386
0.248876
0.251178
0.248986
0.242626
0.231761
0.215794
0.194869
0.169732
0.141043
0.110532
0.0827749
0.0603339
0.0428569
0.0376005
0.0390743
0.0348219
0.0235087
0.011306
0.00472493
0.0162602
0.0114603
0.0119726
0.012507
0.0131575
0.013869
0.014575
0.0152401
0.0157359
0.0162216
0.0166355
0.0167567
0.0164184
0.0155864
0.014423
0.0127797
0.0104258
0.00818696
0.00633152
0.00494589
0.00406422
0.00377823
0.00365089
0.0036979
0.00302352
0.00278756
0.00388368
0.00995282
0.0164752
0.0308918
0.00736488
0.00312845
0.00203177
0.00173748
0.00177469
0.00195682
0.00269518
0.00434931
0.00714477
0.0096236
0.0103317
0.00996064
0.00989508
0.0105401
0.0116704
0.0129598
0.0145016
0.0163279
0.0188554
0.0228059
0.0293058
0.0398158
0.0557899
0.0782391
0.107122
0.140678
0.175474
0.20738
0.232778
0.249681
0.258278
0.260414
0.257989
0.251364
0.24004
0.223269
0.201113
0.174382
0.144236
0.11231
0.0834346
0.0600549
0.0415158
0.0354336
0.0377822
0.0348905
0.024219
0.0119596
0.00495646
0.0158443
0.0118725
0.0124283
0.0130086
0.0137168
0.0144954
0.0152705
0.015978
0.0165035
0.0170283
0.0174822
0.0176473
0.0173564
0.0165395
0.0153616
0.0136632
0.0112758
0.0088135
0.00679276
0.00527591
0.0042905
0.00391185
0.00376842
0.00381741
0.00319204
0.00292275
0.00377493
0.0102566
0.016204
0.0298686
0.00754732
0.00326193
0.00206796
0.00174962
0.00179712
0.00201842
0.00286932
0.00468984
0.00751506
0.00976363
0.0102579
0.00991403
0.00999143
0.0107827
0.0120319
0.013389
0.0149542
0.0167639
0.0192339
0.02312
0.0296005
0.0402326
0.0565998
0.0798216
0.109908
0.145028
0.181549
0.21507
0.241679
0.259193
0.267853
0.269768
0.267073
0.26017
0.248379
0.23077
0.2073
0.178856
0.147041
0.113848
0.0839487
0.0596765
0.0401441
0.0332929
0.0362216
0.0347612
0.0248125
0.0125605
0.00518684
0.0154708
0.0123018
0.0129018
0.0135323
0.0143034
0.0151535
0.0160008
0.0167581
0.0173055
0.0178691
0.0183646
0.0185763
0.0183356
0.0175373
0.0163392
0.0146147
0.012285