/*--------------------------------*- C++ -*----------------------------------*\
| =========                 |                                                 |
| \\      /  F ield         | OpenFOAM: The Open Source CFD Toolbox           |
|  \\    /   O peration     | Version:  4.1                                   |
|   \\  /    A nd           | Web:      www.OpenFOAM.org                      |
|    \\/     M anipulation  |                                                 |
\*---------------------------------------------------------------------------*/
FoamFile
{
    version     2.0;
    format      ascii;
    class       volScalarField;
    location    "2";
    object      p;
}
// * * * * * * * * * * * * * * * * * * * * * * * * * * * * * * * * * * * * * //

dimensions      [0 2 -2 0 0 0 0];

internalField   nonuniform List<scalar> 
6785
(
565.075
498.543
447.507
397.442
351.115
307.578
266.702
228.225
191.973
157.459
124.236
93.6341
65.8138
32.3745
-1.7219
14.2921
-3.65909
-0.0379076
-4.88224
-8.12334
-11.5701
-14.5444
-16.869
-18.3402
-18.8446
-18.4632
-16.9429
-13.4614
-9.601
-8.40533
-31.5815
-37.2766
-27.4276
-28.6254
-25.2497
-23.2466
-20.9643
-18.876
-16.9282
-15.1449
-13.5946
-12.464
-11.7828
-10.631
-8.58549
22.3763
20.6456
25.938
22.4416
23.721
22.6533
22.182
21.5314
20.9436
20.4025
19.9286
19.5705
19.3462
19.7342
22.0488
34.2002
33.3791
36.7915
34.216
36.5936
36.3767
37.3764
38.1302
39.0555
39.9305
40.6981
41.462
42.4567
43.5934
45.1457
37.7172
36.6906
39.2905
37.2466
39.507
38.9879
39.8814
40.063
40.3202
40.2194
39.8736
39.4441
39.0448
38.6408
38.2314
32.0653
30.1665
31.439
28.9021
29.824
28.1961
28.0441
27.0707
26.3967
25.5234
24.7033
23.8477
22.7663
21.4637
20.1447
13.0658
10.8817
11.144
8.54359
8.6289
6.56983
5.82991
4.36962
3.25974
2.18721
1.39695
0.68601
-0.258293
-0.97097
-0.882158
-1.67854
-2.91253
-2.44108
-4.33342
-3.98063
-5.40811
-5.75191
-6.61407
-7.23159
-7.73812
-7.99398
-8.0754
-8.08416
-7.78853
-6.79448
-2.12751
-1.91431
-0.945422
-1.78917
-0.916356
-1.36725
-1.05167
-1.06905
-0.972403
-0.839391
-0.626612
-0.350613
0.0585979
0.544915
1.55022
6.21899
7.24493
8.31558
8.14518
9.21766
9.28173
9.9522
10.3438
10.8343
11.3159
11.8121
12.2954
12.824
13.2762
13.9299
14.2231
15.425
16.191
16.224
17.1281
17.195
17.8036
18.0995
18.5112
18.8727
19.2349
19.5661
19.9152
20.1628
20.5383
22.8802
23.7862
24.1156
23.9682
24.4595
24.2633
24.5344
24.5408
24.6698
24.769
24.8912
25.0045
25.172
25.238
25.4821
28.1049
29.1441
28.5075
27.7937
27.795
27.4624
27.5097
27.2937
27.1536
26.9799
26.8382
26.7053
26.7
26.6645
26.9029
48.1777
46.524
42.63
40.2643
39.9459
38.8732
37.692
36.3646
35.063
34.0793
33.6009
33.3104
32.3994
31.711
31.2063
16.9433
17.0513
16.9991
16.9836
16.9562
17.0294
16.9504
16.8926
16.8341
16.8769
16.805
16.6743
16.7357
16.6203
16.4866
16.3826
16.4054
16.3273
16.1228
16.1701
16.0575
15.8721
15.7399
15.7705
15.6681
15.4714
15.3337
15.3491
15.295
15.0386
15.0842
15.0022
14.8037
14.6712
14.6986
14.6704
14.4216
14.501
14.4435
14.27
14.1705
14.2751
14.2214
14.0665
14.0085
14.1243
14.1395
13.9306
14.1672
14.1621
14.038
14.0765
14.3604
14.3245
14.2203
14.3343
14.6716
14.606
14.3864
14.9051
14.8684
14.5471
14.6391
14.9078
15.4145
15.1662
15.0179
16.2509
16.1049
16.0121
16.3917
16.5271
15.9005
16.0104
16.9022
11.7332
12.2573
13.8967
-1.89707
0.730969
2.58246
1.92949
2.32233
-8.81638
1.05251
2.82348
2.77979
2.4558
2.08541
1.95851
2.55664
2.82122
-5.87876
1.36616
1.92353
5.36298
9.14273
15.7762
23.5706
34.5983
43.9719
41.2409
43.5814
44.8406
46.0307
47.3778
49.2948
50.5714
51.3866
53.0448
52.1207
47.7869
50.5665
51.4342
52.418
53.155
54.2017
55.5813
56.6291
54.6231
47.4629
52.2104
53.6508
54.715
54.991
55.1259
55.5619
56.5007
54.524
49.2738
51.9369
51.5466
52.482
52.7768
51.848
50.8478
48.8829
45.5926
49.1834
46.0597
42.3315
39.3159
35.8225
33.7046
31.0688
27.6963
23.9745
20.2216
20.0662
19.9609
15.1036
12.5921
9.86576
5.93547
0.359951
-1.51796
-0.461582
-8.1934
1.90081
-1.11124
-4.1595
-0.257224
-4.17734
-3.13675
-4.09831
-2.59177
-1.08281
-4.72187
-2.70658
-1.27299
-4.13415
-3.69421
-4.62088
-3.49191
-1.81644
-4.71134
-4.26868
-5.1409
-3.96208
-2.62981
-5.90209
-4.11977
-2.81362
-5.30506
-4.86899
-5.57878
-4.56761
-3.03112
-5.42221
-4.95476
-5.55838
-4.53415
-3.31088
-5.87397
-4.35746
-3.20914
-5.11637
-4.68048
-5.12748
-4.28305
-2.99758
-4.78534
-4.34278
-4.71818
-3.90025
-2.88381
-4.76453
-3.57925
-2.65709
-4.04754
-3.66357
-3.94003
-3.28774
-2.27873
-3.5918
-3.20796
-3.45136
-2.80961
-1.99742
-3.41291
-2.4556
-1.71253
-2.8003
-2.44281
-2.65173
-2.04873
-1.17422
-2.30763
-1.93386
-2.14814
-1.49081
-0.696476
-2.09944
-1.09727
-0.28999
-1.46928
-1.06911
-1.36135
-0.686298
1.0791
0.00084879
0.00115158
0.00114454
0.000145438
-0.00125954
-0.00349772
-0.00639959
-0.010012
-0.0142203
-0.0188478
-0.0233775
-0.0267724
-0.0287131
-0.0824494
-0.191471
-0.267441
-0.308441
-0.344929
-0.365273
-0.368981
-0.336157
-0.302916
-0.20047
-0.150141
-0.00899485
0.0936891
0.162186
0.24203
0.263954
0.261755
0.24629
0.229306
0.176884
0.127189
0.0521479
-0.0179696
-0.0899443
-0.145839
-0.179114
-0.17141
-0.144018
-0.11607
-0.0632994
-0.0630543
-0.06859
-0.0664587
-0.0593554
-0.0479611
-0.0325581
-0.0136378
0.00822689
0.0325163
0.0574275
0.0803115
0.099862
0.115972
0.128944
0.138897
0.145691
0.14917
0.149017
0.14562
0.138632
0.127694
0.11282
0.0939064
0.0716423
0.0475456
0.0235095
0.00296691
-0.011897
-0.0155112
-0.0200224
-0.0782141
-0.184069
-0.209205
-0.286472
-0.233935
-0.24254
0.00345892
0.0041359
0.00414462
0.00107864
-0.00326542
-0.0101297
-0.0191172
-0.0305144
-0.0438655
-0.0584729
-0.0729364
-0.0849678
-0.093887
-0.201426
-0.381953
-0.511904
-0.602501
-0.669506
-0.710097
-0.71764
-0.65802
-0.593961
-0.40075
-0.293152
-0.0193191
0.170092
0.320652
0.470997
0.499011
0.494847
0.462871
0.430433
0.330103
0.235739
0.091499
-0.0428796
-0.181548
-0.289032
-0.356677
-0.355755
-0.328364
-0.280783
-0.203251
-0.210205
-0.225347
-0.216154
-0.188036
-0.148329
-0.0973232
-0.034277
0.0392746
0.122631
0.20864
0.288947
0.358435
0.416454
0.462902
0.498312
0.522562
0.535141
0.535391
0.52444
0.501158
0.464465
0.41433
0.350646
0.274997
0.191816
0.106901
0.0305996
-0.028301
-0.0536413
-0.0757801
-0.195121
-0.396022
-0.476758
-0.599544
-0.573196
-0.638744
0.00662584
0.0073895
0.00730675
0.00184165
-0.00581883
-0.0178738
-0.0336368
-0.0536399
-0.0771124
-0.103007
-0.129053
-0.152334
-0.17523
-0.300741
-0.485359
-0.626229
-0.725336
-0.800089
-0.846419
-0.851728
-0.776504
-0.696622
-0.462799
-0.324934
0.0020688
0.236668
0.422553
0.605252
0.61902
0.609866
0.568771
0.529497
0.40996
0.299238
0.126826
-0.033272
-0.201347
-0.333675
-0.422605
-0.439006
-0.4286
-0.392325
-0.355406
-0.382691
-0.403177
-0.384071
-0.33438
-0.264495
-0.173919
-0.0610299
0.0732606
0.227858
0.38879
0.540047
0.671658
0.781988
0.87044
0.937602
0.982987
1.00573
1.00461
0.981462
0.935016
0.86309
0.765662
0.643938
0.500804
0.345248
0.188132
0.0476057
-0.0598194
-0.107904
-0.148288
-0.273877
-0.496815
-0.594996
-0.722257
-0.726264
-0.776473
0.00907762
0.00977372
0.00985412
0.00221902
-0.00849391
-0.0255078
-0.0478833
-0.0764431
-0.110118
-0.147533
-0.185668
-0.221465
-0.259874
-0.398585
-0.586383
-0.739869
-0.851356
-0.938501
-0.993247
-0.995877
-0.905067
-0.810508
-0.535452
-0.371091
0.00829047
0.290202
0.506417
0.727622
0.727134
0.714048
0.664235
0.619439
0.48062
0.353885
0.153317
-0.0322504
-0.229549
-0.386539
-0.495932
-0.529551
-0.536272
-0.512832
-0.509302
-0.558643
-0.58519
-0.555446
-0.483259
-0.382092
-0.250622
-0.0868463
0.108535
0.332554
0.564009
0.780534
0.968673
1.12615
1.25221
1.34803
1.41301
1.44585
1.44499
1.41223
1.34645
1.24424
1.10483
0.930611
0.725007
0.500407
0.27164
0.0640036
-0.0961968
-0.1741
-0.236041
-0.369768
-0.610977
-0.717758
-0.852339
-0.864085
-0.898327
0.0114193
0.0119669
0.0123491
0.00259912
-0.0111034
-0.0330938
-0.062182
-0.0995049
-0.143745
-0.19325
-0.244377
-0.294123
-0.349158
-0.499977
-0.697344
-0.871931
-1.01164
-1.11685
-1.18074
-1.18287
-1.07562
-0.965995
-0.642429
-0.450611
-0.00692063
0.327022
0.578859
0.849993
0.837581
0.823328
0.764884
0.715259
0.552767
0.405897
0.17034
-0.0468279
-0.279241
-0.464849
-0.596541
-0.646929
-0.668844
-0.651554
-0.67371
-0.743471
-0.774746
-0.733027
-0.637963
-0.504148
-0.329883
-0.11311
0.145481
0.440095
0.742138
1.02377
1.26844
1.4733
1.63754
1.76271
1.84777
1.89105
1.89067
1.84812
1.76273
1.62997
1.44815
1.22091
0.951996
0.65682
0.35365
0.0743106
-0.143335
-0.257058
-0.341166
-0.494014
-0.761814
-0.880989
-1.02948
-1.04892
-1.11288
0.0134239
0.0137423
0.0145533
0.00282458
-0.0137485
-0.0406375
-0.0764578
-0.122681
-0.177782
-0.239863
-0.304819
-0.369841
-0.442755
-0.60439
-0.814411
-1.01391
-1.18492
-1.30698
-1.3764
-1.37725
-1.25145
-1.12519
-0.749957
-0.528287
-0.0180658
0.373453
0.660192
0.988704
0.959818
0.943884
0.877054
0.823064
0.635966
0.468053
0.195287
-0.0557347
-0.326244
-0.543566
-0.701349
-0.77334
-0.81354
-0.803459
-0.84898
-0.937166
-0.971638
-0.916854
-0.798078
-0.629991
-0.411143
-0.139406
0.184077
0.549854
0.921837
1.26758
1.5679
1.81952
2.02168
2.17618
2.28153
2.33565
2.33648
2.28483
2.1805
2.01823
1.79503
1.51559
1.18363
0.817075
0.437004
0.0809471
-0.199726
-0.355298
-0.465469
-0.635778
-0.924822
-1.05248
-1.21084
-1.23506
-1.29178
0.0152363
0.0152941
0.0166167
0.0030609
-0.016291
-0.0480291
-0.0906368
-0.14594
-0.212258
-0.28747
-0.367149
-0.448729
-0.54075
-0.710838
-0.937782
-1.16386
-1.36311
-1.50003
-1.57297
-1.57151
-1.42535
-1.28106
-0.852435
-0.599022
-0.0231463
0.432615
0.751829
1.14375
1.09106
1.07106
0.995714
0.937705
0.726167
0.537691
0.227606
-0.057609
-0.367459
-0.618464
-0.805747
-0.90443
-0.966703
-0.968651
-1.03635
-1.1412
-1.17677
-1.10762
-0.964114
-0.760058
-0.494648
-0.165836
0.224373
0.662048
1.10367
1.51281
1.86811
2.16611
2.40612
2.59005
2.71592
2.78127
2.7839
2.7238
2.60096
2.40994
2.14611
1.81502
1.41997
0.980863
0.521056
0.0827621
-0.267137
-0.471248
-0.61187
-0.795048
-1.09754
-1.22573
-1.38718
-1.41283
-1.48663
0.0168575
0.0166448
0.0185466
0.00332855
-0.0187093
-0.055235
-0.104685
-0.169253
-0.247154
-0.33607
-0.431372
-0.530751
-0.642954
-0.821067
-1.06982
-1.32193
-1.54717
-1.69978
-1.77658
-1.77304
-1.60556
-1.44252
-0.958591
-0.672505
-0.0311982
0.494935
0.845697
1.30734
1.22351
1.19712
1.11325
1.05191
0.815892
0.60725
0.259646
-0.0600491
-0.410212
-0.696284
-0.915526
-1.04415
-1.13064
-1.14919
-1.23673
-1.35633
-1.39079
-1.30597
-1.13636
-0.894472
-0.580407
-0.192339
0.266411
0.77669
1.28772
1.75961
2.16927
2.51334
2.79114
3.0046
3.15123
3.22826
3.23335
3.16573
3.02489
2.80595
2.50239
2.12032
1.66218
1.14925
0.606647
0.0801262
-0.34605
-0.605978
-0.783133
-0.977722
-1.28933
-1.41102
-1.5699
-1.59832
-1.66248
0.0183458
0.0178814
0.0204237
0.00370385
-0.0209296
-0.0621788
-0.118532
-0.192569
-0.282445
-0.385683
-0.497541
-0.615919
-0.749285
-0.938269
-1.21032
-1.48811
-1.73839
-1.90922
-1.99068
-1.9853
-1.79542
-1.61275
-1.07113
-0.751246
-0.0444012
0.557987
0.939483
1.478
1.35627
1.32145
1.22976
1.16618
0.905486
0.676708
0.290796
-0.06428
-0.456309
-0.77928
-1.0332
-1.19467
-1.30729
-1.34652
-1.45098
-1.5834
-1.61439
-1.51254
-1.3152
-1.03345
-0.668492
-0.218891
0.310246
0.893875
1.47421
2.0083
2.4718
2.86173
3.17728
3.42036
3.58804
3.67721
3.68535
3.61123
3.45306
3.20689
2.8646
2.43227
1.911
1.32285
0.694106
0.0729828
-0.437422
-0.76115
-0.981551
-1.18739
-1.50405
-1.61242
-1.7626
-1.782
-1.83237
0.0197143
0.0190534
0.0222957
0.0042391
-0.0228943
-0.0687999
-0.132116
-0.215837
-0.318099
-0.436315
-0.565694
-0.704243
-0.859748
-1.06311
-1.35759
-1.66208
-1.93777
-2.12932
-2.21586
-2.20832
-1.99454
-1.79102
-1.18911
-0.833639
-0.0612042
0.623804
1.03465
1.65768
1.49159
1.44608
1.34798
1.28353
0.997948
0.748878
0.323564
-0.0682811
-0.50429
-0.866663
-1.1587
-1.3565
-1.49788
-1.5614
-1.67971
-1.8231
-1.84826
-1.72799
-1.50099
-1.17718
-0.758952
-0.245451
0.355937
1.0137
1.66334
2.25916
2.77611
3.21172
3.56495
3.83777
4.02681
4.1286
4.14033
4.06064
3.88608
3.61331
3.23346
2.75177
2.16733
1.50254
0.784022
0.0615394
-0.541971
-0.938266
-1.20912
-1.42623
-1.742
-1.82919
-1.96395
-1.97163
-2.03579
0.0209672
0.0201952
0.0242289
0.00500022
-0.0245344
-0.0750286
-0.145362
-0.238994
-0.354072
-0.487949
-0.635828
-0.795719
-0.974291
-1.19422
-1.51102
-1.84279
-2.14592
-2.36038
-2.45251
-2.44233
-2.20314
-1.9776
-1.31286
-0.919632
-0.0814879
0.693202
1.13232
1.84677
1.63008
1.57121
1.46857
1.40485
1.09418
0.824647
0.35883
-0.0713328
-0.553648
-0.958305
-1.29228
-1.53029
-1.70348
-1.79441
-1.92345
-2.07604
-2.09313
-1.95298
-1.69413
-1.32587
-0.851834
-0.271971
0.403567
1.1363
1.85533
2.51252
3.08264
3.56376
3.95462
4.25734
4.4681
4.58298
4.59883
4.51429
4.32452
4.02581
3.60965
3.07961
2.43208
1.68918
0.877029
0.0459712
-0.660342
-1.13859
-1.46817
-1.69668
-2.00468
-2.06188
-2.17399
-2.17199
-2.21111
0.0221183
0.0213283
0.0262848
0.0060522
-0.0257806
-0.0807914
-0.158192
-0.261969
-0.390309
-0.540557
-0.707928
-0.890331
-1.09274
-1.33025
-1.6708
-2.03082
-2.36355
-2.6026
-2.70146
-2.68832
-2.42239
-2.17378
-1.44383
-1.01048
-0.106454
0.765327
1.23237
2.04412
1.77099
1.69608
1.59118
1.53007
1.19411
0.903944
0.396512
-0.0736322
-0.604732
-1.05485
-1.43474
-1.71707
-1.92515
-2.04601
-2.18267
-2.34284
-2.34976
-2.18816
-1.89504
-1.47971
-0.947178
-0.298392
0.45323
1.26185
2.05042
2.76872
3.3918
3.91827
4.34676
4.67959
4.91248
5.04093
5.06142
4.97268
4.76886
4.44518
3.99396
3.4166
2.70617
1.8837
0.973872
0.0265407
-0.792939
-1.3634
-1.7618
-2.00166
-2.29487
-2.31222
-2.39361
-2.36776
-2.37371
0.0232142
0.0225114
0.0285358
0.00746479
-0.0265574
-0.0860068
-0.170518
-0.284678
-0.42674
-0.594095
-0.781966
-0.988056
-1.21492
-1.47018
-1.83604
-2.22745
-2.5914
-2.85641
-2.96377
-2.94742
-2.65354
-2.38076
-1.58327
-1.10728
-0.137183
0.839075
1.33567
2.24764
1.9132
1.82019
1.71582
1.6596
1.2981
0.98708
0.436803
-0.0752259
-0.657876
-1.15701
-1.58709
-1.91802
-2.164
-2.3167
-2.45836
-2.62435
-2.61895
-2.4342
-2.10415
-1.63889
-1.04502
-0.324645
0.505045
1.39051
2.24889
3.02816
3.70403
4.27571
4.74187
5.10511
5.36054
5.50303
5.52871
5.43637
5.21956
4.87223
4.38715
3.76356
2.99056
2.08709
1.07537
0.00358875
-0.939975
-1.61492
-2.09336
-2.34492
-2.61546
-2.58157
-2.62378
-2.5725
-2.56636
0.0242888
0.0238154
0.0310642
0.00930984
-0.0267814
-0.0905861
-0.182243
-0.307025
-0.463281
-0.648507
-0.857908
-1.08888
-1.34103
-1.61518
-2.00806
-2.43369
-2.83027
-3.1226
-3.24045
-3.2207
-2.89771
-2.59951
-1.73217
-1.21087
-0.174329
0.911124
1.43966
2.45391
2.05533
1.94334
1.84271
1.79417
1.40677
1.07455
0.480053
-0.0760485
-0.713359
-1.26546
-1.75036
-2.13424
-2.42128
-2.60718
-2.75249
-2.92148
-2.90171
-2.69175
-2.32189
-1.80362
-1.14537
-0.350644
0.559149
1.5225
2.45102
3.2912
4.01975
4.63654
5.14051
5.53447
5.81282
5.96983
6.00128
5.90594
5.67709
5.30778
4.7899
4.12134
3.28623
2.30038
1.18243
-0.0224273
-1.10171
-1.89601
-2.4664
-2.73116
-2.96926
-2.87084
-2.86458
-2.78182
-2.72866
0.0253608
0.0252947
0.0339371
0.0116625
-0.0263557
-0.0944317
-0.193259
-0.328902
-0.499834
-0.703718
-0.935703
-1.19283
-1.47174
-1.76881
-2.19159
-2.65224
-3.08171
-3.40223
-3.53239
-3.5093
-3.15598
-2.83097
-1.89148
-1.32213
-0.218486
0.978587
1.54247
2.65696
2.19486
2.06529
1.97198
1.93443
1.52063
1.16679
0.526511
-0.07612
-0.771516
-1.38087
-1.92552
-2.36665
-2.69856
-2.91806
-3.0668
-3.23514
-3.19918
-2.96149
-2.54871
-1.97409
-1.24825
-0.376287
0.615701
1.65805
2.65712
3.55827
4.33939
5.00126
5.54323
5.96817
6.26982
6.44183
6.47966
6.38192
6.14189
5.75245
5.20289
4.49077
3.59421
2.5247
1.29604
-0.0509304
-1.27855
-2.20939
-2.8851
-3.16538
-3.35901
-3.18077
-3.11603
-2.99583
-2.91722
0.0264528
0.027
0.0372107
0.0146043
-0.0251733
-0.0974351
-0.203448
-0.350185
-0.536287
-0.759633
-1.01528
-1.29998
-1.60772
-1.93367
-2.38753
-2.88404
-3.34699
-3.69637
-3.84043
-3.81459
-3.42963
-3.07621
-2.06234
-1.44211
-0.270969
1.03852
1.63641
2.84839
2.32977
2.18569
2.10375
2.08105
1.64021
1.26422
0.576439
-0.075445
-0.832652
-1.50385
-2.1134
-2.61612
-2.99791
-3.2498
-3.4023
-3.5671
-3.51231
-3.24414
-2.78507
-2.15048
-1.35365
-0.401453
0.674886
1.79743
2.86754
3.82977
4.66339
5.3704
5.95056
6.4067
6.73195
6.91944
6.96429
6.86482
6.61416
6.20644
5.62682
4.87267
3.91553
2.76118
1.41725
-0.0812652
-1.47088
-2.55829
-3.35353
-3.65247
-3.78751
-3.51224
-3.37831
-3.21864
-3.07992
0.0275827
0.0289692
0.0409516
0.0182261
-0.0231307
-0.0994751
-0.212681
-0.370739
-0.572514
-0.81614
-1.09657
-1.41036
-1.74937
-2.10933
-2.59276
-3.12742
-3.6267
-4.00606
-4.16571
-4.13809
-3.72012
-3.33638
-2.24603
-1.57183
-0.333491
1.08589
1.70759
3.01004
2.45644
2.30484
2.23841
2.23484
1.7662
1.36742
0.630222
-0.0739153
-0.896954
-1.63482
-2.31471
-2.88369
-3.32127
-3.60348
-3.75996
-3.91953
-3.842
-3.54041
-3.03142
-2.33299
-1.46156
-0.426001
0.736918
1.94092
3.08264
4.10615
4.99223
5.74447
6.36297
6.85042
7.19953
7.40298
7.45555
7.35507
7.09445
6.67002
6.0623
5.26781
4.25125
3.01101
1.54716
-0.112676
-1.67915
-2.94642
-3.87668
-4.19801
-4.25798
-3.86608
-3.65141
-3.4351
-3.23131
0.0287698
0.0312378
0.045242
0.0226293
-0.0201322
-0.100421
-0.220812
-0.390413
-0.608374
-0.873114
-1.17948
-1.52399
-1.89686
-2.29457
-2.80395
-3.38021
-3.92106
-4.33287
-4.50959
-4.4813
-4.02905
-3.61267
-2.44392
-1.71234
-0.408179
1.11486
1.74778
3.13545
2.57223
2.42142
2.37677
2.39672
1.89944
1.47705
0.688351
-0.0713361
-0.964507
-1.77418
-2.53023
-3.17052
-3.67005
-3.98068
-4.14102
-4.29306
-4.18935
-3.85104
-3.28823
-2.5218
-1.57192
-0.449764
0.802038
2.08886
3.30283
4.38785
5.32638
6.12396
6.78084
7.29969
7.67289
7.89273
7.95372
7.85296
7.5837
7.14371
6.50983
5.67693
4.60238
3.2754
1.68698
-0.144241
-1.90385
-3.37801
-4.46049
-4.80903
-4.77428
-4.2432
-3.93582
-3.65706
-3.41594
0.0300495
0.0338715
0.0501822
0.027942
-0.0160655
-0.100139
-0.22768
-0.409041
-0.64371
-0.930411
-1.2639
-1.64088
-2.0502
-2.48803
-3.0211
-3.64294
-4.23046
-4.67858
-4.87343
-4.84561
-4.35811
-3.90632
-2.65745
-1.86495
-0.496707
1.12624
1.72723
3.21761
2.70105
2.53296
2.5197
2.56769
2.04089
1.59381
0.751351
-0.0674879
-1.03536
-1.92236
-2.76072
-3.4779
-4.04521
-4.38252
-4.54674
-4.68682
-4.55538
-4.17675
-3.55594
-2.71708
-1.68468
-0.472547
0.870522
2.24159
3.52852
4.67533
5.66636
6.50933
7.20455
7.75481
8.15234
8.38899
8.45901
8.35857
8.08228
7.62793
6.96976
6.10072
4.96983
3.55548
1.83795
-0.174836
-2.14555
-3.85785
-5.1106
-5.49498
-5.34114
-4.6446
-4.23174
-3.88958
-3.56868
0.0314457
0.0369444
0.0558964
0.034343
-0.0107519
-0.0984829
-0.233109
-0.426437
-0.678352
-0.987864
-1.34973
-1.76096
-2.20927
-2.6891
-3.24904
-3.92164
-4.5572
-5.04435
-5.25858
-5.23234
-4.70906
-4.21858
-2.888
-2.03081
-0.59938
1.11381
1.61806
3.23749
2.84334
2.64369
2.66758
2.74862
2.19157
1.71841
0.81975
-0.0621531
-1.10957
-2.07985
-3.00695
-3.80729
-4.44724
-4.80934
-4.97778
-5.1007
-4.94097
-4.51827
-3.83501
-2.91898
-1.79975
-0.494128
0.942682
2.3995
3.76019
4.96907
6.01265
6.90099
7.63441
8.21612
8.6382
8.89205
8.97164
8.87221
8.58995
8.12276
7.44236
6.53973
5.35439
3.85229
2.00126
-0.203153
-2.40491
-4.39078
-5.83381
-6.267
-5.96413
-5.07102
-4.53887
-4.11138
-3.70648
0.0329629
0.0405114
0.0625095
0.0420305
-0.00393738
-0.0952783
-0.236908
-0.442401
-0.712106
-1.04528
-1.43679
-1.8841
-2.37389
-2.89795
-3.49036
-4.21859
-4.90332
-5.43058
-5.66605
-5.64261
-5.08376
-4.5508
-3.13691
-2.21061
-0.716374
1.07485
1.54468
3.1719
2.88023
2.75446
2.82264
2.94041
2.35263
1.85158
0.894102
-0.055101
-1.18717
-2.24713
-3.26971
-4.16034
-4.87647
-5.26215
-5.43498
-5.53644
-5.34734
-4.87623
-4.12585
-3.12764
-1.91701
-0.514252
1.01887
2.56303
3.99831
5.26957
6.36574
7.29931
8.07075
8.68396
9.13083
9.40221
9.49184
9.3943
9.10671
8.6281
7.92772
6.99427
5.75668
4.16676
2.1781
-0.227701
-2.68251
-4.98168
-6.63816
-7.13629
-6.64924
-5.52312
-4.85748
-4.33917
-3.87592
0.0346117
0.0446086
0.0701047
0.0511484
0.00463378
-0.0903219
-0.238866
-0.456717
-0.744753
-1.10244
-1.52491
-2.01015
-2.54392
-3.11465
-3.74269
-4.52931
-5.26846
-5.83821
-6.09686
-6.07745
-5.48393
-4.90435
-3.40549
-2.40485
-0.847998
1.00569
1.54396
2.98833
2.80555
2.86264
2.98766
3.14405
2.52536
1.99411
0.975007
-0.0460739
-1.2682
-2.42469
-3.54996
-4.53911
-5.33312
-5.74295
-5.9205
-5.99668
-5.77604
-5.25142
-4.42882
-3.34319
-2.03633
-0.532627
1.09947
2.73262
4.2434
5.57733
6.72612
7.70466
8.51392
9.1587
9.63052
9.91973
10.0198
9.92498
9.63273
9.14371
8.42577
7.46449
6.17717
4.49979
2.36966
-0.24685
-2.97874
-5.63534
-7.53192
-8.11436
-7.40253
-6.00147
-5.18736
-4.56567
-4.00408
0.0364017
0.0492709
0.0787397
0.0618008
0.0151891
-0.0833958
-0.238756
-0.469141
-0.776037
-1.15908
-1.61389
-2.13892
-2.71922
-3.33919
-4.00623
-4.85092
-5.65036
-6.26856
-6.55283
-6.53819
-5.91105
-5.28046
-3.69493
-2.61381
-0.995644
0.908175
1.53182
2.68314
2.70154
2.97037
3.16629
3.36061
2.71119
2.14678
1.06312
-0.0347687
-1.35267
-2.61307
-3.84884
-4.94573
-5.81755
-6.25426
-6.43748
-6.484
-6.2286
-5.64501
-4.74434
-3.56573
-2.15754
-0.548926
1.18492
2.90877
4.49597
5.89288
7.09425
8.11742
8.96428
9.64063
10.1375
10.4448
10.5556
10.4641
10.1678
9.66929
8.93625
7.95038
6.61617
4.85221
2.57718
-0.258895
-3.29359
-6.35648
-8.5243
-9.21434
-8.23037
-6.50638
-5.52796
-4.79037
-4.16172
0.0383372
0.0545517
0.0884898
0.0741165
0.0279822
-0.0742434
-0.236331
-0.4794
-0.805665
-1.21495
-1.70351
-2.27019
-2.89973
-3.57202
-4.28558
-5.18727
-6.05073
-6.72281
-7.03627
-7.02663
-6.36663
-5.68043
-4.00628
-2.83733
-1.15997
0.784934
1.48445
2.28101
2.64158
3.07965
3.36391
3.59112
2.9118
2.3104
1.15916
-0.0208342
-1.4406
-2.81282
-4.16766
-5.38196
-6.33125
-6.79921
-6.98918
-7.00073
-6.70652
-6.05847
-5.07301
-3.79532
-2.28041
-0.562776
1.27568
3.09201
4.75656
6.21675
7.47057
8.53797
9.42215
10.13
10.652
10.9774
11.0993
11.0116
10.7116
10.2043
9.45864
8.45166
7.07384
5.22483
2.80195
-0.261986
-3.62668
-7.15034
-9.62498
-10.4521
-9.13898
-7.03773
-5.87869
-5.01729
-4.28033
0.0404343
0.0605172
0.0994434
0.0882414
0.0432701
-0.0625536
-0.231329
-0.48719
-0.833322
-1.26974
-1.79355
-2.40377
-3.08546
-3.81392
-4.5846
-5.54366
-6.47553
-7.20283
-7.54901
-7.54454
-6.85225
-6.10569
-4.34059
-3.07481
-1.3384
0.627853
1.38447
1.83183
2.70735
3.19079
3.58704
3.83642
3.12899
2.48578
1.26391
-0.00387384
-1.53199
-3.02454
-4.50789
-5.84909
-6.87673
-7.38059
-7.5781
-7.54906
-7.2114
-6.49311
-5.41556
-4.03206
-2.40472
-0.573762
1.37228
3.28289
5.02574
6.54947
7.85553
8.96671
9.88784
10.627
11.1738
11.5175
11.6506
11.5671
11.2636
10.748
9.99223
8.96777
7.55014
5.61837
3.04535
-0.253814
-3.97709
-8.02211
-10.8459
-11.8472
-10.1345
-7.5948
-6.23831
-5.22432
-4.37641
0.0427096
0.0672301
0.111692
0.104315
0.0612447
-0.0479638
-0.223464
-0.492186
-0.858662
-1.32316
-1.88375
-2.5395
-3.27639
-4.06535
-4.90317
-5.91796
-6.92512
-7.71088
-8.09237
-8.09324
-7.36932
-6.55745
-4.69886
-3.32508
-1.52638
0.441051
1.18067
1.40091
2.97549
3.2975
3.84251
4.09711
3.36477
2.67377
1.37823
0.0165547
-1.62683
-3.24888
-4.8711
-6.34836
-7.45667
-8.00106
-8.20646
-8.1315
-7.74514
-6.94984
-5.77261
-4.27604
-2.53018
-0.581417
1.47526
3.48201
5.30407
6.8916
8.24958
9.404
10.3616
11.1316
11.703
12.065
12.2092
12.1298
11.8227
11.2993
10.5362
9.49788
8.04467
6.03311
3.30875
-0.231485
-4.34319
-8.97695
-12.2022
-13.4234
-11.2236
-8.1764
-6.60597
-5.4266
-4.50711
0.0451808
0.0747433
0.125358
0.122481
0.0820494
-0.0301364
-0.212419
-0.494037
-0.881304
-1.37485
-1.9738
-2.67724
-3.47239
-4.32646
-5.23935
-6.30639
-7.3938
-8.24674
-8.66813
-8.6744
-7.91935
-7.03669
-5.0819
-3.58628
-1.71997
0.251079
0.805151
1.04975
3.444
3.37017
4.13713
4.3735
3.6212
2.87517
1.50305
0.0409382
-1.72509
-3.48655
-5.25897
-6.88105
-8.07324
-8.6639
-8.87705
-8.75092
-8.30991
-7.42973
-6.1447
-4.52733
-2.65648
-0.585226
1.58523
3.68999
5.59218
7.24368
8.65318
9.85021
10.8436
11.6437
12.2393
12.6196
12.7746
12.699
12.3879
11.8575
11.0897
10.0409
8.55656
6.46867
3.59346
-0.191388
-4.7223
-10.0196
-13.7078
-15.2067
-12.414
-8.78098
-6.97999
-5.62821
-4.58519
0.047875
0.0830918
0.140607
0.142908
0.105871
-0.00872287
-0.197822
-0.49236
-0.90082
-1.42442
-2.06336
-2.81678
-3.67332
-4.59718
-5.59093
-6.71192
-7.88379
-8.81073
-9.27785
-9.29037
-8.50381
-7.54437
-5.49037
-3.85628
-1.91637
0.0807619
0.21806
0.794362
3.98273
3.34564
4.4783
4.6657
3.90039
3.09081
1.63935
0.0697817
-1.82675
-3.73836
-5.67335
-7.44838
-8.72868
-9.37261
-9.59228
-9.41006
-8.90779
-7.93435
-6.53244
-4.78596
-2.78325
-0.584616
1.70284
3.90751
5.89068
7.6063
9.06679
10.3057
11.3339
12.1634
12.7827
13.1809
13.3464
13.2738
12.9583
12.4218
11.6513
10.5954
9.08451
6.9242
3.90084
-0.129091
-5.11034
-11.1518
-15.3822
-17.2272
-13.7141
-9.40626
-7.35751
-5.79709
-4.63311
0.0508266
0.0923114
0.157575
0.165799
0.132962
0.0168088
-0.179162
-0.48673
-0.916738
-1.47145
-2.15205
-2.95786
-3.87896
-4.87733
-5.95656
-7.13737
-8.40329
-9.40771
-9.92288
-9.94372
-9.12448
-8.0816
-5.92471
-4.1335
-2.1126
-0.0592386
-0.584492
0.536181
4.4587
3.12524
4.87711
4.97385
4.20441
3.32152
1.78825
0.103605
-1.93176
-4.00527
-6.1163
-8.05167
-9.42644
-10.1304
-10.3544
-10.1118
-9.54087
-8.465
-6.93642
-5.05197
-2.91009
-0.578963
1.82878
4.13526
6.20025
7.98004
9.49089
10.7707
11.8326
12.6905
13.3328
13.7486
13.9239
13.8533
13.5329
12.9907
12.2197
11.1598
9.62687
7.39887
4.23257
-0.0398846
-5.50134
-12.3736
-17.2527
-19.5206
-15.1321
-10.0493
-7.73623
-5.95448
-4.71118
0.0540851
0.10248
0.176295
0.191352
0.163541
0.0469608
-0.15581
-0.476633
-0.928552
-1.51545
-2.23943
-3.1001
-4.08897
-5.16666
-6.33495
-7.5787
-8.94879
-10.0403
-10.6063
-10.6366
-9.78331
-8.64964
-6.38516
-4.41709
-2.30441
-0.169683
-1.56064
0.180932
4.78473
2.79749
5.35075
5.29828
4.53515
3.56816
1.9509
0.142969
-2.04008
-4.28841
-6.58987
-8.69232
-10.1703
-10.9406
-11.1667
-10.8595
-10.2115
-9.0224
-7.35712
-5.32531
-3.03656
-0.567588
1.9638
4.37401
6.52156
8.3655
9.92596
11.2455
12.3398
13.2248
13.8896
14.3226
14.5067
14.4365
14.1103
13.5629
12.7935
11.7322
10.1819
7.89236
4.59092
0.0807409
-5.8875
-13.6836
-19.3401
-22.1223
-16.6763
-10.7068
-8.11245
-6.08737
-4.72245
0.0577068
0.113706
0.196794
0.219706
0.197759
0.0819445
-0.127214
-0.461435
-0.935724
-1.55584
-2.32495
-3.24305
-4.303
-5.46483
-6.72469
-8.03507
-9.51169
-10.7043
-11.3301
-11.371
-10.4822
-9.24988
-6.87182
-4.70675
-2.48528
-0.232759
-2.57893
-0.246456
5.02141
2.7102
5.91237
5.64032
4.89422
3.83172
2.12858
0.188494
-2.15167
-4.58896
-7.09572
-9.37207
-10.9635
-11.8075
-12.0333
-11.657
-10.9215
-9.60761
-7.79496
-5.6059
-3.16216
-0.549757
2.10868
4.62453
6.85534
8.76333
10.3725
11.7304
12.8553
13.7663
14.4531
14.9026
15.0947
15.0226
14.6894
14.1369
13.3707
12.3106
10.7483
8.40525
4.97904
0.237549
-6.25971
-15.0728
-21.6672
-25.0637
-18.3549
-11.3747
-8.48142
-6.19153
-4.75937
0.0617328
0.126088
0.219241
0.250956
0.235775
0.121894
-0.0929088
-0.440484
-0.937681
-1.59202
-2.40802
-3.3862
-4.52072
-5.77146
-7.12601
-8.51394
-10.0958
-11.4006
-12.095
-12.1492
-11.224
-9.88377
-7.38424
-5.00243
-2.64682
-0.207616
-3.3275
-0.585755
5.35737
3.22588
6.55438
6.00313
5.28272
4.11332
2.32259
0.24087
-2.26646
-4.90819
-7.63525
-10.0934
-11.8095
-12.7362
-12.9583
-12.5084
-11.672
-10.222
-8.25026
-5.8936
-3.28635
-0.524689
2.26429
4.88765
7.20234
9.17419
10.831
12.2255
13.3793
14.3149
15.0231
15.4885
15.6874
15.611
15.2693
14.7112
13.9494
12.8931
11.3248
8.93812
5.40107
0.436791
-6.60862
-16.5293
-24.2686
-28.3813
-20.1761
-12.0484
-8.83743
-6.2694
-4.73318
0.0662064
0.139724
0.243831
0.285224
0.277705
0.166889
-0.0525251
-0.413249
-0.933849
-1.62329
-2.48798
-3.52901
-4.74173
-6.0863
-7.54025
-9.0214
-10.7064
-12.1371
-12.9062
-12.9733
-12.0111
-10.5533
-7.92163
-5.30402
-2.77914
-0.0461497
-3.37138
-0.527351
5.87157
4.50176
7.24118
6.39145
5.70107
4.41428
2.5343
0.300871
-2.38439
-5.24732
-8.20997
-10.8595
-12.7133
-13.7315
-13.9458
-13.4178
-12.4647
-10.8669
-8.72327
-6.18816
-3.40853
-0.491555
2.4315
5.16425
7.56333
9.59874
11.3019
12.7311
13.9116
14.8706
15.5996
16.08
16.2846
16.2013
15.8495
15.2842
14.5271
13.4777
11.9102
9.49075
5.86211
0.68739
-6.92421
-18.0368
-27.1603
-32.1099
-22.1453
-12.7223
-9.17286
-6.28821
-4.66747
0.0711981
0.154744
0.270748
0.322681
0.323554
0.216866
-0.00591805
-0.379314
-0.923669
-1.64894
-2.5641
-3.67076
-4.96548
-6.40918
-7.96798
-9.55827
-11.3374
-12.9097
-13.7658
-13.8464
-12.8456
-11.261
-8.4837
-5.61159
-2.87252
0.248014
-2.53662
0.10039
6.44932
6.33108
7.91674
6.81049
6.14886
4.73616
2.76503
0.369384
-2.50538
-5.60757
-8.82151
-11.6741
-13.6802
-14.7977
-15.0002
-14.3858
-13.3034
-11.5432
-9.21412
-6.48921
-3.52803
-0.449483
2.61125
5.45525
7.93913
10.0377
11.7858
13.2474
14.4523
15.4334
16.1826
16.677
16.886
16.7932
16.4292
15.854
15.1015
14.0624
12.5021
10.0616
6.36416
0.996931
-7.19003
-19.5601
-30.3111
-36.2544
-24.2607
-13.3891
-9.47988
-6.26762
-4.6314
0.0767808
0.171353
0.300285
0.363657
0.373353
0.271816
0.0469347
-0.338242
-0.906513
-1.66826
-2.63556
-3.81068
-5.19135
-6.73968
-8.40962
-10.1235
-11.9876
-13.7093
-14.6702
-14.7711
-13.73
-12.0098
-9.07089
-5.9259
-2.92225
0.635226
-1.14485
1.12433
7.19831
8.11224
8.53281
7.26365
6.62486
5.08084
3.01615
0.447414
-2.62931
-5.99019
-9.47127
-12.5404
-14.715
-15.9388
-16.1253
-15.4129
-14.1913
-12.252
-9.72295
-6.79622
-3.64412
-0.397561
2.80453
5.76158
8.33059
10.4918
12.2831
13.7745
15.0013
16.0033
16.7721
17.2791
17.4911
17.3866
17.0065
16.4188
15.67
14.6453
13.0971
10.6474
6.9037
1.36755
-7.37866
-21.0367
-33.6433
-40.7678
-26.5112
-14.041
-9.74848
-6.2109
-4.51485
0.0829842
0.189768
0.332805
0.408565
0.427388
0.33192
0.106159
-0.289574
-0.881556
-1.68048
-2.70155
-3.94799
-5.41856
-7.07693
-8.86608
-10.7147
-12.6669
-14.5431
-15.624
-15.7511
-14.6673
-12.8025
-9.6843
-6.24796
-2.93351
1.09215
0.365636
2.42082
7.99577
9.26121
9.07784
7.75027
7.12733
5.45044
3.28909
0.536094
-2.75611
-6.39633
-10.1606
-13.4626
-15.8227
-17.157
-17.3235
-16.5017
-15.1293
-12.9948
-10.2502
-7.10854
-3.75597
-0.334841
3.01233
6.08426
8.73859
10.9617
12.7945
14.3126
15.5589
16.5803
17.368
17.8863
18.0994
17.9803
17.5796
16.9762
16.2302
15.2231
13.6905
11.2428
7.4729
1.79141
-7.46442
-22.3608
-37.0256
-45.5421