/*--------------------------------*- C++ -*----------------------------------*\
| =========                 |                                                 |
| \\      /  F ield         | OpenFOAM: The Open Source CFD Toolbox           |
|  \\    /   O peration     | Version:  4.1                                   |
|   \\  /    A nd           | Web:      www.OpenFOAM.org                      |
|    \\/     M anipulation  |                                                 |
\*---------------------------------------------------------------------------*/
FoamFile
{
    version     2.0;
    format      ascii;
    class       volVectorField;
    location    "2";
    object      U;
}
// * * * * * * * * * * * * * * * * * * * * * * * * * * * * * * * * * * * * * //

dimensions      [0 1 -1 0 0 0 0];

internalField   nonuniform List<vector> 
6785
(
(1.28478e-14 -0.839495 16.1631)
(1.02551e-14 -6.7078 12.538)
(-2.9677e-15 -4.78494 12.9358)
(3.99962e-15 -4.29139 12.6815)
(8.66989e-16 -3.66486 12.5103)
(-1.24387e-16 -3.1879 12.2807)
(2.37643e-15 -2.79351 12.0215)
(6.2853e-16 -2.50068 11.7245)
(-4.16468e-16 -2.31271 11.3943)
(2.03149e-15 -2.20697 11.0514)
(1.07321e-16 -2.17191 10.7194)
(-5.3475e-16 -2.38389 10.3138)
(6.39993e-16 -2.86873 9.72377)
(-2.08687e-16 -2.22231 9.15599)
(-2.17535e-16 0.76472 7.19919)
(1.9185e-14 -7.76618 26.3052)
(1.47272e-14 -16.5878 21.9954)
(-3.4832e-15 -11.555 22.4599)
(4.63077e-15 -11.8982 20.9978)
(8.02554e-16 -10.8672 20.0174)
(3.92337e-16 -10.152 18.9574)
(2.58807e-15 -9.40959 17.9078)
(3.30182e-16 -8.69664 16.8474)
(-7.06426e-18 -8.01358 15.7662)
(1.72794e-15 -7.35832 14.685)
(-7.76457e-17 -6.71519 13.6815)
(-3.858e-16 -6.10397 12.6313)
(4.05088e-16 -5.20982 10.5301)
(-7.23051e-17 -2.65844 5.5853)
(2.31823e-16 1.12652 -1.59514)
(1.98724e-14 -10.431 28.0714)
(1.32876e-14 -17.7031 24.2407)
(-2.62679e-15 -11.8397 24.7598)
(5.80076e-15 -12.9008 22.4954)
(6.7275e-16 -11.2973 21.3874)
(1.18383e-15 -10.5931 19.9123)
(2.93406e-15 -9.70772 18.5402)
(1.34282e-16 -8.92184 17.1546)
(4.94173e-16 -8.16813 15.7934)
(2.02711e-15 -7.46793 14.467)
(-1.06006e-16 -6.8292 13.2072)
(2.13382e-17 -6.02443 11.6437)
(1.13929e-15 -3.88981 7.98634)
(1.56644e-16 0.641337 -0.0475221)
(7.29158e-16 0.603917 -4.53099)
(2.11179e-14 -11.1446 26.7994)
(1.2695e-14 -17.4529 23.6641)
(-2.2094e-15 -11.6098 24.0591)
(5.71291e-15 -13.4407 21.1447)
(3.05398e-16 -11.4241 20.1675)
(1.85986e-15 -10.9873 18.4079)
(3.18651e-15 -10.1104 16.9109)
(-3.14269e-16 -9.38757 15.3956)
(4.64992e-16 -8.72731 13.9919)
(1.25752e-15 -8.1551 12.7239)
(-1.11662e-15 -7.64236 11.5436)
(-1.34211e-15 -7.07281 10.2339)
(-2.21287e-16 -5.92392 8.08193)
(-1.09219e-15 -3.50706 4.39088)
(-4.63722e-16 -1.98689 0.0441681)
(2.1129e-14 -11.4208 25.81)
(1.12711e-14 -16.9123 23.3116)
(-2.84006e-15 -11.4488 23.5537)
(4.83503e-15 -13.4705 20.3872)
(-8.93591e-16 -11.0607 19.5661)
(1.24644e-15 -10.813 17.5853)
(2.1821e-15 -9.73267 16.0755)
(-2.77291e-15 -8.96507 14.4981)
(-1.63622e-15 -8.26068 13.1152)
(-6.64089e-16 -7.7227 11.8749)
(-4.25962e-15 -7.2694 10.7294)
(-2.91267e-15 -6.83058 9.65571)
(-1.37529e-16 -6.28385 8.55835)
(-1.85797e-15 -4.96248 6.94847)
(-4.56194e-15 -3.50426 3.77103)
(2.18945e-14 -12.0591 25.7908)
(9.6085e-15 -16.1999 23.3447)
(-8.80811e-16 -11.5032 23.5449)
(3.78604e-15 -13.082 20.5297)
(-2.44912e-16 -10.5283 19.7136)
(2.09662e-15 -10.2697 17.6883)
(5.07885e-16 -8.91194 16.2379)
(4.90735e-17 -7.85901 14.2872)
(4.39767e-15 -6.42797 11.8994)
(4.53988e-15 -5.25893 9.51608)
(2.56998e-15 -5.00738 8.45687)
(1.94628e-15 -5.69131 8.88056)
(-9.18719e-16 -6.33768 9.53767)
(-1.69219e-15 -6.36869 9.7897)
(-1.65647e-15 -5.17684 8.28677)
(2.19834e-14 -12.7918 26.3796)
(8.86176e-15 -16.334 24.5468)
(1.56603e-16 -11.9781 24.295)
(3.17754e-15 -13.1974 21.6091)
(4.71647e-16 -10.6815 20.7771)
(2.42826e-15 -10.4287 18.84)
(3.12401e-16 -8.91413 17.4752)
(3.09217e-15 -7.61858 15.1575)
(9.11313e-15 -5.35774 11.7648)
(1.1136e-14 -2.99677 7.87249)
(7.84935e-15 -1.57864 5.45359)
(2.9011e-15 -1.76881 5.34492)
(-1.48025e-16 -3.33815 7.23025)
(-1.19498e-15 -5.13706 9.67772)
(1.82963e-16 -4.4929 9.01737)
(1.9586e-14 -12.8269 25.7883)
(1.02849e-14 -17.4511 26.844)
(-3.50662e-16 -12.8581 25.4159)
(3.12573e-15 -13.9967 22.7886)
(3.87479e-16 -11.5152 22.0196)
(1.60803e-15 -11.4609 20.0818)
(6.76083e-16 -9.9812 18.8707)
(2.64146e-15 -8.94792 16.7786)
(7.75477e-15 -6.84515 13.7401)
(1.1872e-14 -4.26335 9.72954)
(1.03449e-14 -1.7819 6.00032)
(6.38897e-15 0.227795 2.94207)
(4.44662e-15 1.24626 1.32708)
(2.24468e-15 0.28925 2.20521)
(-1.20122e-16 -1.17455 3.83229)
(1.73171e-14 -12.0409 23.4373)
(1.29238e-14 -18.0158 28.2498)
(9.23741e-16 -14.0652 26.1754)
(2.73193e-15 -14.4301 23.3078)
(1.19922e-15 -12.4674 22.2866)
(1.56927e-15 -12.2567 20.4797)
(1.27048e-15 -11.1357 19.2043)
(1.98734e-15 -10.3427 17.5113)
(4.43354e-15 -9.02448 15.3839)
(7.20527e-15 -7.25699 12.5824)
(8.40491e-15 -5.08317 9.36164)
(8.06907e-15 -2.4455 5.60353)
(5.90533e-15 0.782963 1.30087)
(4.80543e-16 3.04901 -2.23095)
(-3.3448e-15 1.07823 -2.64072)
(1.55989e-14 -10.9227 20.4632)
(1.52089e-14 -17.6804 28.2087)
(3.1184e-15 -14.6692 26.2224)
(2.6498e-15 -14.2774 23.0529)
(2.05462e-15 -12.6859 21.6911)
(1.74077e-15 -12.2503 19.9825)
(1.44357e-15 -11.3458 18.594)
(1.6525e-15 -10.602 17.0516)
(2.36878e-15 -9.69851 15.3644)
(2.61465e-15 -8.58256 13.41)
(2.88858e-15 -7.21727 11.1454)
(3.77577e-15 -5.47421 8.4584)
(3.72622e-15 -3.2851 5.12704)
(3.62843e-15 -0.644759 1.65592)
(-8.24753e-15 0.421881 -2.83033)
(1.40187e-14 -10.0141 18.1999)
(1.64588e-14 -17.0439 27.6755)
(4.15193e-15 -14.6535 25.9161)
(2.63061e-15 -13.8675 22.5771)
(2.61667e-15 -12.3623 21.0461)
(8.13101e-16 -11.8259 19.3686)
(2.65647e-16 -10.9349 17.9525)
(7.38567e-16 -10.1741 16.4489)
(-4.80541e-16 -9.35469 14.9138)
(-1.14365e-15 -8.44646 13.2844)
(-8.88543e-16 -7.42495 11.4778)
(-1.73977e-15 -6.1555 9.39905)
(-7.41702e-16 -4.59347 6.75989)
(-1.64055e-15 -2.42469 3.54447)
(-1.02992e-14 -0.301515 -1.74933)
(1.28132e-14 -9.42893 16.836)
(1.672e-14 -16.4935 27.1743)
(3.19187e-15 -14.4241 25.5198)
(1.86616e-15 -13.4378 22.1044)
(2.11271e-15 -11.9099 20.5686)
(-1.84563e-15 -11.3946 18.8979)
(-2.03387e-15 -10.4501 17.5203)
(-1.05638e-15 -9.70021 16.0237)
(-3.58578e-15 -8.88119 14.5577)
(-4.12197e-15 -8.03701 13.058)
(-3.34071e-15 -7.14409 11.4522)
(-5.1146e-15 -6.0737 9.66327)
(-1.38954e-15 -4.78716 7.40236)
(-3.36342e-15 -2.97419 4.60717)
(-7.13519e-15 -0.713521 -0.670555)
(1.09406e-14 -9.10046 16.1114)
(1.46735e-14 -16.1877 26.8909)
(2.82843e-15 -14.6277 25.5998)
(3.17493e-16 -13.4666 22.1827)
(1.77027e-15 -11.8914 20.4312)
(-2.21752e-15 -11.3105 18.7226)
(-4.06033e-15 -10.3465 17.3487)
(-1.19521e-15 -9.58806 15.869)
(-4.66421e-15 -8.76007 14.4401)
(-4.7789e-15 -7.92963 13.0057)
(-2.31114e-15 -7.08386 11.51)
(-4.72846e-15 -6.10936 9.91748)
(-1.26521e-15 -5.00755 7.95232)
(7.07379e-16 -3.45394 5.61095)
(-5.14405e-15 -1.40162 1.42322)
(1.00587e-14 -8.57198 14.5522)
(1.30213e-14 -15.3652 25.569)
(-9.5222e-16 -14.3055 24.7152)
(-6.07424e-15 -12.9178 21.5397)
(-4.88878e-15 -11.427 19.879)
(-8.12908e-15 -10.8725 18.3099)
(-7.85648e-15 -9.99324 17.0265)
(-3.35178e-15 -9.28988 15.6008)
(-4.87669e-15 -8.51544 14.2257)
(-2.45331e-15 -7.73451 12.8543)
(1.09274e-15 -6.95614 11.4373)
(1.86525e-15 -6.0084 9.87806)
(7.45945e-15 -4.92536 7.91934)
(8.58067e-15 -3.35182 5.68536)
(-1.02576e-15 -1.22818 1.47469)
(8.5289e-15 -7.73354 13.4878)
(1.8474e-14 -16.2051 25.8055)
(1.40754e-14 -17.7506 27.0909)
(1.26125e-14 -16.6041 24.105)
(1.84283e-14 -14.5124 20.873)
(3.01426e-14 -13.1103 18.5026)
(3.2124e-14 -12.1345 16.7773)
(2.84748e-14 -11.3574 15.4007)
(3.24257e-14 -10.6219 14.1028)
(3.02718e-14 -9.83759 12.8527)
(2.5412e-14 -8.97897 11.5606)
(2.30317e-14 -8.22112 10.5134)
(2.06417e-14 -7.42481 9.70798)
(2.4617e-14 -6.14816 8.36972)
(5.40403e-14 -3.25128 4.66762)
(7.1326e-18 -0.0068633 -0.000351378)
(2.958e-17 0.083941 0.0271121)
(2.7853e-17 0.126657 0.0275331)
(2.57901e-17 0.134548 0.00880452)
(3.53074e-17 0.11557 -0.0017367)
(9.36539e-17 0.249677 0.0134276)
(8.64091e-17 0.243957 0.055303)
(-5.87853e-18 0.265391 0.0269304)
(-1.12909e-15 0.234872 0.00757458)
(3.72873e-15 0.386849 0.0219205)
(4.65675e-15 0.358769 0.078452)
(3.16216e-15 0.348863 0.0422758)
(2.36243e-15 0.525403 0.0741946)
(6.9484e-16 0.431429 0.0945212)
(2.82011e-16 0.473422 0.0508649)
(1.24689e-16 0.426489 0.0225868)
(-9.39495e-18 0.611242 0.0640696)
(1.52867e-16 0.507478 0.0880051)
(1.15566e-16 0.505015 0.0481713)
(1.30835e-16 0.699302 0.0913326)
(4.62022e-17 0.538984 0.0793893)
(-8.62556e-18 0.594132 0.0363384)
(6.38414e-17 0.54033 0.0145495)
(1.28242e-16 0.751943 0.0514551)
(1.09394e-16 0.566255 0.0537455)
(4.67073e-16 0.627628 0.0296932)
(-6.84405e-16 0.573601 0.022221)
(-1.69246e-15 0.756328 0.034183)
(-9.99534e-16 0.599461 0.0282984)
(-5.93349e-16 0.603407 0.0216846)
(-3.62591e-16 0.80014 0.0175191)
(-2.06063e-16 0.589511 -0.000118943)
(-1.47273e-16 0.658631 -0.00811601)
(-1.73733e-16 0.603328 0.0119408)
(-2.22352e-16 0.773915 -0.0260007)
(-9.23021e-17 0.614636 -0.0339898)
(-4.97157e-17 0.621243 -0.00782173)
(-1.89105e-17 0.809564 -0.0716493)
(1.08096e-18 0.600089 -0.0927828)
(-3.77562e-18 0.679693 -0.0723583)
(7.39434e-17 0.619421 -0.00441799)
(1.60689e-16 0.817521 -0.111237)
(8.56117e-17 0.615311 -0.178874)
(3.51884e-17 0.700591 -0.141426)
(-1.33054e-17 0.643161 -0.0202303)
(3.52905e-17 0.798136 -0.167697)
(-4.03113e-17 0.66938 -0.257129)
(-1.04503e-16 0.695559 -0.175022)
(8.15012e-17 0.874398 -0.410075)
(2.49055e-16 0.691634 -0.502797)
(2.23729e-16 0.807804 -0.494239)
(1.55177e-16 0.75993 -0.292917)
(6.15449e-16 0.974309 -0.48035)
(6.54684e-16 0.806877 -0.505709)
(6.73882e-16 0.922746 -0.534946)
(7.24706e-16 0.878203 -0.3678)
(1.56453e-15 1.08673 -0.54978)
(8.54066e-16 0.976495 -0.394207)
(6.14034e-16 1.04261 -0.361332)
(8.03901e-16 1.19775 -0.540615)
(8.18895e-16 1.02502 -0.578964)
(9.5603e-16 1.15152 -0.624067)
(6.52701e-16 1.13896 -0.444404)
(7.12119e-16 1.14096 -0.489895)
(1.47332e-15 0.833696 -0.713589)
(8.71987e-17 0.95295 -0.593309)
(4.36552e-15 0.785377 -1.68842)
(6.07018e-15 0.322613 -1.4512)
(4.69599e-15 0.502568 -0.594968)
(5.4132e-15 0.461617 -0.169999)
(-7.46286e-15 0.570718 1.69966)
(-4.3266e-14 -0.543321 5.61344)
(-4.22962e-14 -0.765769 5.35576)
(-4.2689e-14 -1.02265 5.41762)
(-7.34377e-14 -1.90595 8.75222)
(-7.29985e-14 -2.85689 8.27338)
(-7.82184e-14 -3.0192 8.41269)
(-1.16144e-13 -4.77924 12.3347)
(-9.29927e-14 -5.09744 10.0081)
(-9.71034e-14 -5.44543 10.6288)
(-1.04106e-13 -6.17341 12.561)
(-1.04917e-13 -5.99834 12.1387)
(-1.07384e-13 -6.11147 12.2988)
(-1.37718e-13 -6.93465 13.9862)
(-1.10841e-13 -6.6035 12.9336)
(-1.09533e-13 -6.71517 13.3703)
(-1.02936e-13 -6.7285 13.4208)
(-9.69382e-14 -6.75635 13.4182)
(-9.18972e-14 -6.81213 13.4401)
(-8.79337e-14 -6.85105 13.4588)
(-8.49795e-14 -6.88372 13.5372)
(-8.34735e-14 -6.92895 13.6451)
(-1.07723e-13 -7.09086 14.658)
(-9.67826e-14 -7.32546 14.1315)
(-9.95612e-14 -7.32268 14.178)
(-1.03187e-13 -7.3778 14.1847)
(-1.05733e-13 -7.44685 14.2584)
(-1.09208e-13 -7.47326 14.2262)
(-1.13325e-13 -7.57361 14.1907)
(-1.1393e-13 -7.60334 14.1627)
(-1.08958e-13 -7.7028 14.1196)
(-9.14383e-14 -7.86116 14.7537)
(-7.99421e-14 -8.05407 14.1378)
(-7.50536e-14 -8.08911 14.1535)
(-7.00214e-14 -8.12661 14.1205)
(-6.46549e-14 -8.14647 14.1162)
(-5.96199e-14 -8.16637 14.1875)
(-5.72127e-14 -8.20564 14.3096)
(-5.96438e-14 -8.20611 14.3147)
(-6.48276e-14 -8.18764 14.3293)
(-7.33131e-14 -8.28811 14.3253)
(-1.16038e-13 -8.1705 14.8993)
(-9.71102e-14 -8.60597 14.4475)
(-1.0056e-13 -8.59725 14.5131)
(-9.8075e-14 -8.61197 14.5744)
(-9.43174e-14 -8.61721 14.6727)
(-8.89964e-14 -8.62047 14.801)
(-8.41747e-14 -8.63312 15.0441)
(-8.08873e-14 -8.59554 15.178)
(-8.15771e-14 -8.7137 15.2695)
(-1.16038e-13 -8.30821 15.5537)
(-1.01647e-13 -8.87196 15.3106)
(-1.11081e-13 -8.82547 15.6635)
(-1.1841e-13 -8.83869 16.0045)
(-1.2506e-13 -8.80113 16.2447)
(-1.30415e-13 -8.82008 16.5575)
(-1.33878e-13 -8.80683 16.9034)
(-1.35344e-13 -8.77966 17.3313)
(-1.35413e-13 -8.97836 17.9527)
(-1.54505e-13 -7.92842 17.9133)
(-1.20599e-13 -8.74067 18.027)
(-1.09445e-13 -8.64565 18.6355)
(-9.52128e-14 -8.61583 19.1765)
(-8.26914e-14 -8.62909 19.9569)
(-7.07438e-14 -8.60819 20.4852)
(-6.08705e-14 -8.58186 20.9279)
(-5.39156e-14 -8.6229 21.3527)
(-4.98787e-14 -8.72748 21.6531)
(-5.11991e-14 -6.80075 20.6123)
(-3.98576e-14 -7.8036 20.6901)
(-3.59887e-14 -7.61073 20.5618)
(-3.10286e-14 -7.66127 20.2466)
(-2.41143e-14 -7.611 19.8128)
(-1.64614e-14 -7.53628 19.2568)
(-8.38591e-15 -7.53132 18.8671)
(-2.18252e-15 -7.31976 17.733)
(3.44789e-15 -7.22973 16.6547)
(6.52703e-15 -7.04834 15.4198)
(7.8118e-15 -3.62431 9.23511)
(7.91307e-15 -5.33312 11.723)
(6.35813e-15 -4.83713 10.4703)
(3.32624e-15 -4.88505 9.89861)
(1.78062e-15 -4.59098 8.90028)
(9.42658e-16 -4.51811 7.62752)
(6.89411e-16 -4.31302 5.55603)
(1.08734e-15 -3.90948 3.62109)
(2.42704e-15 -3.8803 3.40742)
(9.53511e-16 -2.54367 0.117191)
(2.12294e-15 -3.18525 2.28682)
(1.37389e-15 -3.0161 1.21217)
(-1.72677e-15 -1.8123 -1.77925)
(1.70485e-16 -3.85117 -0.280385)
(1.15999e-17 -2.81315 -0.620699)
(-1.48383e-17 -2.66171 -0.32685)
(8.31733e-17 -3.4485 -0.48563)
(2.32402e-17 -2.35371 -0.275543)
(1.38609e-17 -3.23502 -0.409627)
(-6.77355e-17 -2.97891 -0.309537)
(-1.5647e-16 -2.40199 -0.214746)
(-2.20905e-16 -3.07531 -0.315281)
(-2.04031e-16 -2.83934 -0.251975)
(-1.56008e-16 -2.47217 -0.174397)
(-2.03173e-16 -3.33523 -0.24033)
(-1.45118e-16 -2.26609 -0.142256)
(-2.53665e-16 -3.08524 -0.200707)
(-2.36775e-16 -2.75542 -0.169019)
(-2.05535e-16 -2.43233 -0.115878)
(-2.60139e-16 -3.2688 -0.163703)
(-2.36816e-16 -2.21118 -0.0960709)
(-3.14743e-16 -3.07222 -0.139211)
(-2.06761e-16 -2.81897 -0.133413)
(-9.90692e-17 -2.27849 -0.0899484)
(-3.03364e-17 -2.92138 -0.14263)
(1.03828e-16 -2.68144 -0.132339)
(4.48309e-17 -2.33189 -0.0862134)
(1.17257e-16 -3.144 -0.129527)
(7.99946e-17 -2.13254 -0.0750527)
(6.3538e-18 -2.90143 -0.113229)
(-1.45823e-16 -2.56515 -0.110157)
(-1.93557e-16 -2.25777 -0.0688042)
(-3.31218e-16 -3.02623 -0.106855)
(-2.60596e-16 -2.04376 -0.0577747)
(-3.20215e-16 -2.82856 -0.090292)
(-2.65992e-16 -2.56715 -0.0959978)
(-2.08244e-16 -2.07562 -0.0593161)
(-2.79756e-16 -2.65339 -0.106666)
(-4.36404e-16 -2.41475 -0.106636)
(-5.25209e-16 -2.09355 -0.0651219)
(-8.60105e-16 -2.81503 -0.105442)
(-7.86227e-16 -1.90539 -0.059237)
(-1.21788e-15 -2.586 -0.0960907)
(-9.26075e-16 -2.27097 -0.0982759)
(-5.38789e-16 -1.99254 -0.059476)
(-3.98285e-16 -2.66542 -0.0958173)
(1.39827e-16 -1.798 -0.0500808)
(5.74984e-16 -2.47846 -0.0803733)
(9.80543e-16 -2.23816 -0.0844414)
(8.25856e-16 -1.81091 -0.0498952)
(1.30612e-15 -2.30908 -0.0917851)
(1.13345e-15 -2.09557 -0.0902782)
(8.25975e-16 -1.81314 -0.0532816)
(9.40008e-16 -2.43798 -0.089756)
(4.71624e-16 -1.64999 -0.0483521)
(3.88393e-16 -2.23761 -0.0799396)
(-1.05571e-17 -1.96707 -0.0798381)
(3.30574e-17 -1.72489 -0.046147)
(2.2282e-16 -2.31402 -0.075749)
(5.04221e-16 -1.56432 -0.0354899)
(1.20897e-15 -2.15835 -0.053977)
(1.58694e-15 -1.96958 -0.0534511)
(1.4445e-15 -1.5976 -0.0254468)
(2.14585e-15 -2.04853 -0.045368)
(1.73775e-15 -1.89187 -0.0387148)
(1.37219e-15 -1.64379 -0.010734)
(1.63186e-15 -2.23335 -0.0197682)
(9.61695e-16 -1.52599 0.0056757)
(1.26145e-15 -2.08526 0.01547)
(8.40609e-16 -1.88499 0.0132439)
(6.66999e-16 -1.66175 0.0313998)
(8.91794e-16 -2.25773 0.0425518)
(6.42073e-16 -1.54838 0.0525278)
(1.00921e-15 -2.15192 0.0894394)
(9.57245e-16 -2.02246 0.0732979)
(9.11322e-16 -1.64917 0.0800291)
(1.35686e-15 -2.1367 0.119083)
(1.22796e-15 -2.0176 0.108225)
(1.02037e-15 -1.76699 0.113233)
(1.43145e-15 -2.43568 0.1613)
(1.11761e-15 -1.71292 0.145726)
(1.75801e-15 -2.24623 0.260184)
(-6.6969e-59 0.201642 0.167125)
(-5.25912e-58 0.314149 0.165433)
(-3.11694e-57 0.388386 0.166798)
(-1.52043e-56 0.443549 0.162402)
(-6.18614e-56 0.487929 0.156444)
(-2.15032e-55 0.514959 0.145639)
(-6.46524e-55 0.52525 0.131031)
(-1.77991e-54 0.515702 0.112332)
(-4.73689e-54 0.484618 0.0916703)
(-1.19387e-53 0.427517 0.0674896)
(-2.73412e-53 0.334797 0.0380121)
(-4.80778e-53 0.173492 0.00202711)
(-4.37616e-53 -0.196878 -0.059579)
(-1.62879e-53 -0.351734 -0.0993303)
(-6.2467e-54 -0.540833 -0.101313)
(-2.43251e-54 -0.757645 -0.181627)
(-4.1166e-55 -0.896324 -0.126137)
(-2.84426e-56 -1.03291 -0.101742)
(-1.27451e-57 -1.14911 -0.0967565)
(-4.50695e-58 -1.26817 -0.093263)
(-2.36723e-58 -1.36245 -0.0782555)
(-1.141e-57 -1.45589 -0.0615048)
(1.60439e-56 -1.46577 -0.051023)
(-3.31409e-55 -1.56329 -0.01639)
(-3.55614e-54 -1.42616 -0.0471693)
(1.24572e-52 -1.45432 -0.0147596)
(-5.882e-52 -1.196 -0.0218865)
(-1.27774e-52 -1.31919 -0.051696)
(1.08291e-53 -1.46566 -0.0379007)
(1.22982e-54 -1.61412 -0.0259896)
(-3.73667e-51 -1.79585 -0.0143351)
(-2.43274e-47 -1.89695 -0.00154763)
(-3.31497e-44 -1.96422 0.00911808)
(-2.82114e-41 -1.97106 0.0187243)
(-3.83334e-38 -1.93353 0.0266119)
(-4.20311e-35 -1.82516 0.0349877)
(-3.50921e-32 -1.69274 0.0433253)
(-2.37696e-29 -1.52236 0.0535455)
(-1.29475e-26 -1.29998 0.0643499)
(-4.93048e-24 -1.01958 0.0903523)
(-9.17522e-22 -0.714941 0.170586)
(-5.75201e-20 -0.509572 0.376218)
(-1.37869e-22 -0.263619 0.4292)
(5.75139e-22 0.215078 0.454127)
(-7.72265e-21 0.552574 0.473161)
(-8.05813e-20 0.785804 0.497553)
(-1.99863e-19 1.00834 0.486159)
(-3.25881e-19 1.2363 0.454119)
(-4.03366e-19 1.43432 0.423365)
(-5.27511e-19 1.60627 0.388774)
(-6.34713e-19 1.74988 0.358362)
(-7.49238e-19 1.8656 0.330221)
(-1.00638e-18 1.95922 0.308101)
(-1.18105e-18 2.03371 0.291429)
(-1.25044e-18 2.09128 0.27947)
(-1.34694e-18 2.13351 0.270716)
(-1.31388e-18 2.16554 0.264285)
(-1.23852e-18 2.18874 0.260803)
(-1.15623e-18 2.2036 0.257975)
(-8.79781e-19 2.21174 0.255131)
(-4.612e-19 2.21184 0.249655)
(-2.50529e-19 2.20154 0.23909)
(-1.24402e-19 2.18028 0.221564)
(-1.15078e-19 2.14478 0.194997)
(-1.67854e-19 2.08976 0.15638)
(-2.23493e-19 2.00834 0.103632)
(-1.48679e-19 1.89509 0.0342175)
(4.78991e-19 1.73795 -0.0522322)
(1.49332e-18 1.5218 -0.150651)
(2.73146e-18 1.23531 -0.252636)
(5.21147e-18 0.867048 -0.339762)
(2.12719e-17 0.432747 -0.40162)
(2.87103e-17 -0.27836 -0.318155)
(3.30093e-18 -0.871197 -0.318956)
(5.59371e-20 -1.38294 -0.184669)
(2.08427e-20 -1.61891 -0.217151)
(-2.58864e-19 -1.95325 0.0314574)
(4.22083e-18 -2.28846 -0.103408)
(2.05952e-16 -2.24441 0.314469)
(-1.48359e-58 0.200802 0.204501)
(-1.20824e-57 0.313544 0.195258)
(-7.28753e-57 0.388463 0.19399)
(-3.59937e-56 0.445066 0.185866)
(-1.47307e-55 0.490786 0.176238)
(-5.14188e-55 0.51955 0.160907)
(-1.54478e-54 0.531557 0.141431)
(-4.23156e-54 0.523611 0.117294)
(-1.12078e-53 0.494246 0.090257)
(-2.81241e-53 0.439706 0.0592181)
(-6.43382e-53 0.35071 0.023367)
(-1.12549e-52 0.195776 -0.0188709)
(-1.01541e-52 -0.121728 -0.0916575)
(-2.79416e-53 -0.392822 -0.158667)
(-7.2188e-54 -0.615819 -0.154505)
(-2.28744e-54 -0.837026 -0.207164)
(-3.97786e-55 -0.98281 -0.142297)
(-2.75468e-56 -1.10927 -0.108878)
(-1.1197e-57 -1.21759 -0.0994759)
(-4.18165e-58 -1.33186 -0.0905506)
(-2.31847e-58 -1.41698 -0.0722321)
(-1.14813e-57 -1.50196 -0.0493675)
(1.60748e-56 -1.49739 -0.0369292)
(-4.80502e-55 -1.58206 0.000453933)
(-2.49493e-53 -1.42517 -0.0251465)
(-1.14715e-50 -1.44061 0.000822191)
(8.61847e-51 -1.16049 -0.00530952)
(-1.37987e-51 -1.27636 -0.0427378)
(-1.15087e-51 -1.43063 -0.0370154)
(-2.0846e-53 -1.58276 -0.0276623)
(-9.65141e-50 -1.76981 -0.0168635)
(-3.46543e-46 -1.87398 -0.00627448)
(-1.28162e-42 -1.94733 0.00250184)
(-1.82921e-39 -1.95867 0.010653)
(-2.38841e-36 -1.92875 0.0169866)
(-2.08905e-33 -1.82776 0.0249565)
(-1.34064e-30 -1.70462 0.0335265)
(-6.19454e-28 -1.54351 0.0457606)
(-2.01738e-25 -1.33235 0.0608794)
(-3.97578e-23 -1.06741 0.0928178)
(-3.41582e-21 -0.791771 0.188936)
(-1.00958e-19 -0.585317 0.411721)
(-2.85661e-22 -0.270045 0.48007)
(5.02962e-22 0.227682 0.517813)
(-6.63942e-21 0.557109 0.547204)
(-7.15313e-20 0.791872 0.57674)
(-1.78553e-19 1.02061 0.560772)
(-2.80498e-19 1.24954 0.52351)
(-3.7497e-19 1.44627 0.486146)
(-4.84561e-19 1.6164 0.444734)
(-6.34881e-19 1.75713 0.407497)
(-7.80303e-19 1.8696 0.372988)
(-9.66466e-19 1.95956 0.345022)
(-1.20233e-18 2.03074 0.32321)
(-1.35679e-18 2.08562 0.307173)
(-1.4675e-18 2.12579 0.295126)
(-1.4627e-18 2.15607 0.285948)
(-1.33584e-18 2.17806 0.279743)
(-1.00158e-18 2.19238 0.274163)
(-7.37746e-19 2.20073 0.268668)
(4.11564e-20 2.20206 0.260452)
(3.53662e-19 2.19388 0.246687)
(5.11675e-19 2.17553 0.224969)
(4.4705e-19 2.144 0.193014)
(4.30579e-19 2.09399 0.14756)
(2.52499e-19 2.01857 0.0861777)
(1.59687e-19 1.91202 0.00610025)
(4.6357e-19 1.76115 -0.0927493)
(1.04782e-18 1.54938 -0.204562)
(1.87835e-18 1.26327 -0.320112)
(3.74109e-18 0.891264 -0.418122)
(1.53562e-17 0.430564 -0.483704)
(4.39433e-17 -0.285417 -0.372767)
(9.0938e-18 -0.901684 -0.345591)
(3.74338e-19 -1.4219 -0.201568)
(1.93865e-20 -1.67093 -0.225258)
(-2.60107e-19 -1.99741 0.0268201)
(3.8049e-18 -2.34115 -0.103295)
(2.16802e-16 -2.31395 0.271895)
(-4.15095e-58 0.203641 0.232357)
(-3.23418e-57 0.315999 0.216262)
(-1.88554e-56 0.390353 0.212008)
(-9.12949e-56 0.447304 0.200635)
(-3.67188e-55 0.493419 0.187914)
(-1.26369e-54 0.522748 0.169105)
(-3.74477e-54 0.53522 0.145886)
(-1.01246e-53 0.527626 0.118053)
(-2.64913e-53 0.498506 0.0866568)
(-6.57488e-53 0.444131 0.0507903)
(-1.4939e-52 0.355148 0.0101672)
(-2.60332e-52 0.199882 -0.037557)
(-2.44818e-52 -0.10969 -0.118533)
(-6.94062e-53 -0.384269 -0.199532)
(-1.42195e-53 -0.594505 -0.208523)
(-2.40503e-54 -0.822069 -0.250507)
(-2.83262e-55 -0.975653 -0.179187)
(-9.95532e-57 -1.09649 -0.125637)
(-4.16038e-58 -1.20198 -0.107646)
(-5.13016e-58 -1.31946 -0.0910226)
(-2.37045e-58 -1.40763 -0.0686476)
(-1.14747e-57 -1.49584 -0.0370832)
(1.37566e-56 -1.49415 -0.022792)
(-9.45709e-54 -1.57918 0.0200972)
(9.8502e-53 -1.4233 -0.00119298)
(2.07572e-49 -1.44404 0.016542)
(4.6976e-49 -1.16134 0.0154473)
(1.55989e-49 -1.27878 -0.0295617)
(1.46105e-50 -1.44018 -0.0325711)
(-2.53018e-51 -1.59199 -0.0280976)
(-1.47073e-49 -1.77851 -0.0189401)
(-3.92654e-46 -1.88134 -0.0116148)
(-9.5517e-43 -1.95364 -0.00569928)
(-2.06499e-39 -1.96294 0.000640702)
(-3.60619e-36 -1.93167 0.00503398)
(-3.74222e-33 -1.82881 0.0129656)
(-2.60092e-30 -1.70423 0.022528)
(-1.14946e-27 -1.54162 0.0380833)
(-3.11436e-25 -1.33084 0.0594369)
(-4.38899e-23 -1.0735 0.100229)
(-2.23233e-21 -0.815721 0.22383)
(-3.10922e-20 -0.60516 0.452634)
(-9.68738e-23 -0.289369 0.506673)
(5.47456e-22 0.209171 0.55847)
(-5.67891e-21 0.545031 0.595866)
(-6.54807e-20 0.786601 0.627069)
(-1.75953e-19 1.02261 0.607828)
(-2.66798e-19 1.25439 0.567878)
(-3.81963e-19 1.4524 0.526934)
(-4.81126e-19 1.62347 0.481864)
(-6.34608e-19 1.76472 0.441056)
(-8.14436e-19 1.87784 0.403179)
(-1.02607e-18 1.96827 0.37191)
(-1.40715e-18 2.03984 0.346837)
(-1.46939e-18 2.09505 0.327931)
(-1.5455e-18 2.13562 0.313398)
(-1.62554e-18 2.16624 0.30199)
(-1.44272e-18 2.18857 0.293717)
(-1.03998e-18 2.20325 0.285799)
(-7.92775e-19 2.21198 0.277819)
(1.91531e-19 2.21395 0.267241)
(3.59628e-19 2.20671 0.250927)
(5.60745e-19 2.18953 0.22606)
(6.84324e-19 2.15942 0.190171)
(6.41178e-19 2.11114 0.139928)
(2.1332e-19 2.03775 0.0726682)
(8.40146e-20 1.93321 -0.0144064)
(3.71731e-19 1.78366 -0.121048)
(6.28967e-19 1.57177 -0.241446)
(1.68715e-18 1.28282 -0.365992)
(3.35318e-18 0.90442 -0.472229)
(1.35302e-17 0.423376 -0.539867)
(4.78106e-17 -0.301303 -0.449553)
(1.52702e-17 -0.915679 -0.386171)
(1.08139e-18 -1.42996 -0.226162)
(2.14887e-20 -1.6886 -0.237506)
(-2.63281e-19 -2.00416 0.0181061)
(3.90508e-18 -2.36089 -0.105602)
(2.17186e-16 -2.32528 0.208222)
(-1.16195e-57 0.205308 0.260504)
(-8.63205e-57 0.317781 0.239096)
(-4.84853e-56 0.391877 0.232115)
(-2.29607e-55 0.449706 0.217479)
(-9.08648e-55 0.496793 0.201734)
(-3.08363e-54 0.527361 0.179393)
(-9.01505e-54 0.540952 0.152234)
(-2.40689e-53 0.534384 0.120351)
(-6.22444e-53 0.506348 0.0843772)
(-1.52881e-52 0.453251 0.043385)
(-3.44716e-52 0.365923 -0.00260136)
(-5.97936e-52 0.213638 -0.0563202)
(-5.89394e-52 -0.0808819 -0.143805)
(-1.81241e-52 -0.374781 -0.231429)
(-3.63584e-53 -0.577883 -0.251686)
(-3.96092e-54 -0.809358 -0.293802)
(-4.97925e-56 -0.970382 -0.232711)
(6.21521e-56 -1.08873 -0.158042)
(5.192e-57 -1.19107 -0.125321)
(-8.88953e-58 -1.30986 -0.0964945)
(-2.80182e-58 -1.39993 -0.0685908)
(-1.01331e-57 -1.49071 -0.026845)
(2.73728e-55 -1.49062 -0.0115821)
(5.96153e-52 -1.5763 0.0386195)
(1.3798e-51 -1.42051 0.0200715)
(-1.98509e-48 -1.44479 0.0295627)
(-9.89644e-48 -1.16106 0.0369978)
(-2.64219e-48 -1.27694 -0.015155)
(-3.47868e-50 -1.44685 -0.0251623)
(4.99789e-50 -1.59877 -0.0266831)
(-1.34744e-49 -1.7852 -0.0197662)
(-3.08936e-46 -1.88653 -0.0163135)
(-6.35494e-43 -1.95807 -0.0139219)
(-1.32238e-39 -1.96538 -0.00951391)
(-2.54862e-36 -1.9331 -0.00722062)
(-3.79064e-33 -1.82868 0.00107283)
(-3.15699e-30 -1.70326 0.0123034)
(-1.39091e-27 -1.53999 0.0320997)
(-3.21264e-25 -1.33054 0.0609742)
(-3.34816e-23 -1.08321 0.114062)
(-1.11475e-21 -0.842499 0.269806)
(-9.525e-21 -0.626851 0.487272)
(8.51e-24 -0.296428 0.536784)
(5.75739e-22 0.200403 0.607235)
(-3.158e-21 0.538727 0.652778)
(-4.62753e-20 0.786349 0.684544)
(-1.76724e-19 1.02978 0.661064)
(-2.86246e-19 1.26355 0.617937)
(-3.95163e-19 1.46185 0.572632)
(-4.82147e-19 1.63266 0.523295)
(-6.36445e-19 1.77295 0.478255)
(-8.68792e-19 1.88498 0.436506)
(-1.07965e-18 1.97387 0.401476)
(-1.44502e-18 2.04375 0.372817)
(-1.48252e-18 2.0974 0.350872)
(-1.64008e-18 2.13677 0.333765)
(-1.68791e-18 2.16634 0.320044)
(-1.56836e-18 2.18803 0.309642)
(-1.1181e-18 2.20253 0.299535)
(-8.41614e-19 2.21151 0.289029)
(2.07869e-19 2.21444 0.276056)
(3.60839e-19 2.20887 0.257144)
(6.22475e-19 2.19401 0.22903)
(7.08886e-19 2.16692 0.188989)
(6.18607e-19 2.12235 0.133603)
(7.30622e-20 2.05332 0.0599473)
(-1.32876e-20 1.95341 -0.0348739)
(1.72366e-19 1.8079 -0.150452)
(4.99845e-19 1.59833 -0.281031)
(1.40044e-18 1.30832 -0.416412)
(2.95406e-18 0.924234 -0.533285)
(1.1658e-17 0.424522 -0.60697)
(4.45489e-17 -0.318227 -0.534475)
(2.01107e-17 -0.935366 -0.439804)
(2.12317e-18 -1.44056 -0.256573)
(7.616e-20 -1.70482 -0.252473)
(-2.68862e-19 -2.00979 0.00672643)
(4.17962e-18 -2.37286 -0.108431)
(2.23544e-16 -2.33851 0.218533)
(-3.21605e-57 0.208446 0.287415)
(-2.28345e-56 0.32101 0.261357)
(-1.23604e-55 0.394592 0.25183)
(-5.71213e-55 0.453105 0.233893)
(-2.22891e-54 0.501018 0.215234)
(-7.46481e-54 0.532693 0.189453)
(-2.15437e-53 0.547263 0.158463)
(-5.68486e-53 0.54159 0.122522)
(-1.45414e-52 0.514521 0.0820633)
(-3.53765e-52 0.462461 0.0360621)
(-7.91612e-52 0.37643 -0.0153207)
(-1.36906e-51 0.226903 -0.0748785)
(-1.41245e-51 -0.0543717 -0.167309)
(-4.78009e-52 -0.363593 -0.26237)
(-9.89235e-53 -0.570188 -0.293107)
(-9.48094e-54 -0.808973 -0.331237)
(4.83568e-55 -0.982985 -0.294026)
(3.25609e-55 -1.10251 -0.207725)
(3.18566e-56 -1.20073 -0.156294)
(-2.66378e-57 -1.3189 -0.110923)
(-5.70422e-58 -1.40859 -0.0744391)
(-6.1918e-57 -1.50006 -0.0197419)
(-3.8604e-54 -1.49788 -0.0037239)
(-7.41035e-51 -1.583 0.055989)
(-5.19255e-50 -1.42164 0.0395526)
(8.42297e-48 -1.44784 0.0418349)
(7.51954e-47 -1.16131 0.0601009)
(1.9345e-47 -1.27036 -0.00170772)
(-8.4885e-49 -1.44831 -0.0166017)
(-4.46824e-49 -1.60017 -0.0245431)
(-9.9573e-50 -1.78752 -0.0200358)
(-1.91082e-46 -1.88752 -0.0206412)
(-3.72117e-43 -1.96002 -0.0221463)
(-7.4265e-40 -1.96664 -0.0195162)
(-1.429e-36 -1.93559 -0.019276)
(-2.66845e-33 -1.83184 -0.0100613)
(-3.02349e-30 -1.70813 0.00368274)
(-1.365e-27 -1.54678 0.0288777)
(-2.72507e-25 -1.34144 0.0669216)
(-2.12322e-23 -1.10725 0.136517)
(-4.93427e-22 -0.881306 0.320804)
(-2.89391e-21 -0.654147 0.516772)
(2.16905e-23 -0.308077 0.572507)
(3.46025e-22 0.186379 0.656705)
(4.79519e-22 0.53027 0.709695)
(-1.20712e-20 0.785735 0.740548)
(-1.77758e-19 1.03673 0.712601)
(-3.21258e-19 1.27257 0.666506)
(-4.04019e-19 1.47158 0.616825)
(-4.96662e-19 1.64239 0.563368)
(-6.27182e-19 1.78203 0.514129)
(-8.62111e-19 1.8933 0.468649)
(-1.05683e-18 1.98106 0.429985)
(-1.47113e-18 2.04962 0.397866)
(-1.51272e-18 2.10205 0.372986)
(-1.73194e-18 2.14056 0.353433)
(-1.6835e-18 2.16944 0.337538)
(-1.60778e-18 2.19077 0.325111)
(-1.23348e-18 2.2053 0.313056)
(-8.90493e-19 2.21458 0.300173)
(1.66787e-19 2.21833 0.284925)
(3.81235e-19 2.21429 0.263625)
(6.71371e-19 2.20155 0.232556)
(6.8402e-19 2.17719 0.1887)
(4.41423e-19 2.13597 0.128562)
(3.32185e-20 2.07093 0.0489435)
(-2.05621e-19 1.97521 -0.0531857)
(6.67194e-20 1.83331 -0.177413)
(3.52798e-19 1.62565 -0.318189)
(1.07254e-18 1.33419 -0.464771)
(2.52846e-18 0.943478 -0.593292)
(1.02238e-17 0.425007 -0.674423)
(3.93579e-17 -0.335496 -0.617611)
(2.32989e-17 -0.965789 -0.508985)
(3.48214e-18 -1.46422 -0.29672)
(1.68657e-19 -1.7325 -0.270741)
(-2.66479e-19 -2.02674 -0.00748095)
(4.92543e-18 -2.3921 -0.114437)
(2.15686e-16 -2.35825 0.155608)
(-8.78591e-57 0.211737 0.313244)
(-5.9755e-56 0.324495 0.283483)
(-3.1227e-55 0.397617 0.271664)
(-1.40646e-54 0.456891 0.250449)
(-5.41897e-54 0.505726 0.22895)
(-1.79277e-53 0.538667 0.199798)
(-5.11114e-53 0.55436 0.1651)
(-1.33424e-52 0.549712 0.125046)
(-3.37845e-52 0.523773 0.080075)
(-8.14788e-52 0.47294 0.0290762)
(-1.80989e-51 0.388387 -0.0277393)
(-3.12704e-51 0.241879 -0.0931339)
(-3.36813e-51 -0.0272107 -0.18929)
(-1.2707e-51 -0.351345 -0.294227)
(-2.78122e-52 -0.564426 -0.335333)
(-2.67614e-53 -0.808424 -0.366247)
(1.76646e-54 -0.996293 -0.356215)
(1.10927e-54 -1.12074 -0.270362)
(1.39426e-55 -1.21534 -0.200176)
(-4.2586e-57 -1.3321 -0.1372)
(-2.23661e-57 -1.42067 -0.0900246)
(-2.53469e-57 -1.51204 -0.0185357)
(-2.35317e-53 -1.50651 -0.000189326)
(1.62849e-50 -1.59107 0.0721444)
(5.13363e-49 -1.42184 0.0584587)
(1.51785e-47 -1.45032 0.0561345)
(-1.22564e-46 -1.16058 0.0861353)
(-3.56403e-47 -1.25998 0.00843518)
(7.24562e-48 -1.44752 -0.00929375)
(1.29872e-48 -1.599 -0.0230822)
(-9.96591e-50 -1.78777 -0.0205808)
(-1.062e-46 -1.88623 -0.024882)
(-1.90619e-43 -1.9603 -0.0302538)
(-3.64799e-40 -1.96648 -0.0289403)
(-7.29794e-37 -1.93734 -0.0304669)
(-1.47807e-33 -1.83495 -0.0196479)
(-2.58855e-30 -1.71384 -0.00247391)
(-1.16612e-27 -1.5554 0.0293792)