/*--------------------------------*- C++ -*----------------------------------*\
| =========                 |                                                 |
| \\      /  F ield         | OpenFOAM: The Open Source CFD Toolbox           |
|  \\    /   O peration     | Version:  4.1                                   |
|   \\  /    A nd           | Web:      www.OpenFOAM.org                      |
|    \\/     M anipulation  |                                                 |
\*---------------------------------------------------------------------------*/
FoamFile
{
    version     2.0;
    format      ascii;
    class       volSymmTensorField;
    location    "3";
    object      turbulenceProperties:R;
}
// * * * * * * * * * * * * * * * * * * * * * * * * * * * * * * * * * * * * * //

dimensions      [0 2 -2 0 0 0 0];

internalField   nonuniform List<symmTensor> 
6785
(
(0.753313 1.29303e-19 6.9352e-20 0.753189 0.000165733 0.753498)
(0.753354 -1.05552e-19 -4.97061e-20 0.75332 5.94866e-06 0.753326)
(0.753325 -3.13507e-20 -2.40066e-20 0.753359 3.81208e-05 0.753316)
(0.753334 2.24125e-20 1.69837e-20 0.753344 2.58796e-05 0.753322)
(0.753332 -2.54445e-20 -6.29298e-21 0.753346 2.64338e-05 0.753323)
(0.753333 1.10939e-20 -2.88103e-21 0.753342 2.34331e-05 0.753325)
(0.753332 2.49378e-21 4.14422e-21 0.753341 2.1813e-05 0.753327)
(0.753333 -1.65305e-20 -4.48568e-21 0.753338 2.01375e-05 0.753329)
(0.753333 6.56949e-21 -1.14399e-21 0.753336 1.86332e-05 0.753332)
(0.753333 -1.29299e-21 3.55723e-21 0.753333 1.72546e-05 0.753334)
(0.753332 -1.22049e-20 -9.2946e-22 0.753332 1.6096e-05 0.753335)
(0.753334 3.01643e-21 -2.40504e-21 0.753329 1.21285e-05 0.753337)
(0.753334 1.50401e-21 5.62572e-21 0.753329 7.99577e-06 0.753337)
(0.753319 1.23869e-21 4.87736e-21 0.75336 1.51939e-05 0.753321)
(0.753347 -1.96484e-21 -6.64137e-21 0.753389 -7.31643e-05 0.753264)
(0.75333 1.70634e-19 1.03855e-19 0.753011 0.000217384 0.753659)
(0.753351 -1.22122e-19 -7.05874e-20 0.75334 -1.56158e-05 0.753309)
(0.753325 -5.03417e-20 -3.04115e-20 0.753378 1.17103e-05 0.753297)
(0.753341 1.24734e-20 2.01083e-20 0.753353 -6.33633e-06 0.753307)
(0.753333 -2.02036e-20 -1.0762e-20 0.753362 1.14147e-06 0.753305)
(0.753336 3.01664e-21 7.55349e-22 0.753356 -2.71522e-06 0.753308)
(0.753334 -5.05259e-21 8.71118e-21 0.753357 -1.94468e-06 0.753309)
(0.753335 -8.98991e-21 -4.19257e-21 0.753355 -3.06384e-06 0.753311)
(0.753334 -3.22012e-21 -1.99881e-21 0.753353 -4.15383e-06 0.753312)
(0.753334 -6.77475e-21 6.64665e-21 0.753351 -6.98925e-06 0.753315)
(0.753334 -2.48133e-21 -5.40436e-21 0.753348 -1.22318e-05 0.753318)
(0.753334 4.98008e-21 -9.13161e-21 0.753344 -2.03215e-05 0.753322)
(0.753336 9.09531e-21 -3.65958e-21 0.753348 -3.09294e-05 0.753317)
(0.753334 4.24795e-21 -5.93228e-21 0.753374 -4.21025e-05 0.753292)
(0.753331 -8.08829e-21 -6.1024e-21 0.753394 -4.12693e-05 0.753275)
(0.753329 1.94083e-19 5.78386e-20 0.752968 0.000224508 0.753702)
(0.753339 -1.25006e-19 -7.06448e-20 0.753349 -1.43682e-05 0.753312)
(0.753325 -3.40479e-20 -2.04762e-20 0.753371 -3.41532e-07 0.753304)
(0.753337 2.39353e-20 -2.95352e-20 0.753352 -1.41041e-05 0.753311)
(0.75333 -1.3074e-20 -9.97985e-21 0.753361 -5.11128e-06 0.753309)
(0.753334 8.83124e-21 5.21241e-21 0.753354 -9.4538e-06 0.753312)
(0.753332 1.68766e-21 -3.15468e-20 0.753355 -6.79118e-06 0.753313)
(0.753333 -6.16358e-21 -4.29497e-21 0.753355 -8.75947e-06 0.753312)
(0.753333 1.3207e-20 8.12704e-21 0.753364 -1.38181e-05 0.753303)
(0.753333 3.54451e-20 -9.98417e-22 0.753383 -2.7181e-05 0.753284)
(0.753333 8.12728e-20 4.15291e-20 0.753401 -4.31376e-05 0.753266)
(0.753333 8.01017e-20 3.71597e-20 0.753387 -4.36634e-05 0.75328)
(0.753332 -2.68847e-20 -3.1555e-20 0.753348 -2.40958e-05 0.753321)
(0.75333 -9.64394e-20 -7.45862e-20 0.753323 -7.7435e-06 0.753347)
(0.753333 -7.83705e-20 -4.67257e-20 0.753314 -1.0693e-06 0.753353)
(0.753332 1.60964e-19 1.1505e-19 0.752949 0.000224914 0.753719)
(0.753337 -1.06229e-19 -9.84045e-20 0.753349 -1.29653e-05 0.753314)
(0.753329 -4.1611e-20 -3.04042e-21 0.753365 -7.18676e-06 0.753306)
(0.753337 1.4849e-20 8.0663e-21 0.75335 -1.65579e-05 0.753312)
(0.75333 -1.32401e-20 -4.23208e-20 0.75336 -7.16368e-06 0.75331)
(0.753335 2.11166e-21 1.24758e-20 0.75335 -1.28403e-05 0.753314)
(0.753332 5.55945e-21 2.64038e-21 0.753353 -8.07279e-06 0.753315)
(0.753334 -3.78666e-21 -2.91178e-20 0.753351 -1.06761e-05 0.753315)
(0.753333 -2.99721e-21 8.63387e-21 0.753359 -1.31168e-05 0.753308)
(0.753333 4.30685e-20 2.51848e-20 0.753378 -2.32937e-05 0.753288)
(0.753334 6.40436e-20 2.5475e-20 0.753408 -3.69212e-05 0.753259)
(0.753334 9.71377e-20 6.58189e-20 0.753413 -3.63967e-05 0.753253)
(0.753332 8.91059e-20 5.70776e-20 0.753392 -2.2745e-05 0.753275)
(0.753338 -1.2194e-19 -6.76683e-20 0.753354 -2.00931e-05 0.753308)
(0.753333 -1.66005e-19 -9.51487e-20 0.753271 2.80489e-05 0.753396)
(0.753332 1.96316e-19 9.32183e-20 0.752944 0.000220816 0.753723)
(0.753336 -9.24412e-20 -9.62706e-20 0.753342 -8.85657e-06 0.753322)
(0.75333 -4.12625e-20 -3.76552e-20 0.753368 -1.41429e-05 0.753302)
(0.753337 3.2706e-20 6.16238e-21 0.753351 -1.92638e-05 0.753312)
(0.753331 -1.30889e-20 -3.35662e-20 0.753358 -1.0279e-05 0.753311)
(0.753336 -2.55985e-21 -1.1904e-20 0.75335 -1.64817e-05 0.753314)
(0.753332 2.19486e-20 2.27008e-21 0.753353 -1.16917e-05 0.753314)
(0.753334 4.3743e-21 -2.27946e-20 0.75335 -1.41021e-05 0.753316)
(0.753333 -4.95645e-21 -1.72011e-20 0.753353 -1.40118e-05 0.753314)
(0.753334 2.81899e-20 6.10824e-21 0.753361 -1.78745e-05 0.753306)
(0.753333 3.79603e-20 7.3981e-21 0.753377 -2.25326e-05 0.753289)
(0.753334 2.22596e-20 1.34309e-20 0.753391 -2.47521e-05 0.753275)
(0.753331 4.10562e-20 3.64204e-20 0.753403 -2.30171e-05 0.753266)
(0.753338 -2.58721e-20 5.16363e-21 0.753398 -3.66121e-05 0.753264)
(0.753331 -1.00702e-19 -5.10222e-20 0.753302 2.54569e-05 0.753366)
(0.753333 1.79655e-19 1.28448e-19 0.752956 0.000210758 0.753711)
(0.753335 -1.16857e-19 -4.75227e-20 0.753331 -1.6174e-06 0.753334)
(0.753331 -7.59011e-20 -1.1865e-20 0.753374 -1.97207e-05 0.753295)
(0.753336 3.05532e-20 2.47655e-20 0.753355 -2.03274e-05 0.753309)
(0.753331 -2.9211e-20 -6.12263e-21 0.753358 -1.1994e-05 0.753311)
(0.753335 -2.53682e-20 1.86346e-20 0.753352 -1.73907e-05 0.753313)
(0.753332 1.94655e-20 1.23323e-20 0.753355 -1.32804e-05 0.753313)
(0.753334 -8.66123e-21 6.15729e-21 0.753352 -1.52988e-05 0.753314)
(0.753333 -2.2888e-20 8.50662e-21 0.753353 -1.4254e-05 0.753314)
(0.753333 1.27415e-20 3.7695e-21 0.753355 -1.56362e-05 0.753312)
(0.753333 1.20995e-20 1.5078e-20 0.753361 -1.72358e-05 0.753305)
(0.753333 -5.50196e-21 1.10008e-20 0.753371 -2.013e-05 0.753296)
(0.753332 5.65666e-21 5.5115e-21 0.753386 -2.33214e-05 0.753282)
(0.753336 -3.63812e-20 -1.46057e-20 0.753396 -3.36708e-05 0.753268)
(0.75333 -2.92184e-21 -4.16299e-21 0.753341 9.16699e-06 0.753329)
(0.753333 1.65446e-19 1.20374e-19 0.752971 0.000202189 0.753696)
(0.753334 -1.00288e-19 -4.49711e-20 0.753319 6.744e-06 0.753347)
(0.753332 -8.59021e-20 -1.59057e-20 0.753379 -2.27351e-05 0.75329)
(0.753335 2.33232e-20 1.46893e-20 0.753359 -2.00913e-05 0.753306)
(0.753331 -2.97627e-20 1.75462e-21 0.753359 -1.21008e-05 0.75331)
(0.753335 -2.27784e-20 8.1468e-21 0.753354 -1.63142e-05 0.753311)
(0.753332 2.35463e-20 1.35704e-20 0.753357 -1.27079e-05 0.753311)
(0.753334 -6.59313e-21 6.17903e-21 0.753354 -1.45039e-05 0.753312)
(0.753333 -2.21607e-20 7.28899e-21 0.753354 -1.29701e-05 0.753313)
(0.753333 1.48882e-20 7.28969e-21 0.753354 -1.3528e-05 0.753313)
(0.753333 1.21554e-20 1.6037e-20 0.753356 -1.38283e-05 0.753311)
(0.753333 -5.30611e-21 5.66817e-21 0.753362 -1.60859e-05 0.753305)
(0.753333 8.21357e-21 1.00093e-21 0.753373 -2.04634e-05 0.753293)
(0.753335 2.85557e-21 -4.00818e-21 0.75339 -3.05922e-05 0.753276)
(0.753331 -4.18592e-20 -3.73142e-20 0.753359 -8.56913e-06 0.753309)
(0.753333 1.71143e-19 8.65379e-20 0.752984 0.000196026 0.753683)
(0.753334 -7.71342e-20 -4.57629e-20 0.753305 1.44856e-05 0.753361)
(0.753332 -6.51851e-20 -5.28737e-20 0.75338 -2.36059e-05 0.753288)
(0.753335 2.10294e-20 1.29786e-20 0.753363 -2.02672e-05 0.753302)
(0.753332 -1.52236e-20 -1.01443e-20 0.753358 -1.21108e-05 0.75331)
(0.753335 -8.6972e-21 -1.91119e-20 0.753354 -1.50426e-05 0.753311)
(0.753332 2.43219e-20 1.18054e-20 0.753357 -1.18935e-05 0.753311)
(0.753334 5.06941e-21 3.24855e-22 0.753355 -1.35308e-05 0.753311)
(0.753333 -5.72493e-21 -1.85452e-20 0.753355 -1.1907e-05 0.753312)
(0.753334 1.57835e-20 5.18556e-21 0.753354 -1.2302e-05 0.753312)
(0.753333 2.1173e-20 9.02933e-21 0.753355 -1.20195e-05 0.753312)
(0.753333 2.73179e-21 -7.80626e-21 0.753358 -1.3708e-05 0.753309)
(0.753333 8.97101e-21 1.51059e-21 0.753368 -1.78666e-05 0.753299)
(0.753334 4.75348e-20 2.3815e-20 0.753394 -3.40424e-05 0.753272)
(0.753333 -1.18839e-19 -7.55585e-20 0.753361 -1.2639e-05 0.753306)
(0.753333 1.77328e-19 9.73656e-20 0.752996 0.000189835 0.75367)
(0.753334 -7.03176e-20 -4.64743e-20 0.753292 2.05204e-05 0.753374)
(0.753332 -7.64351e-20 -7.89173e-20 0.753377 -2.30425e-05 0.753291)
(0.753334 1.74525e-20 9.38596e-21 0.753366 -2.14736e-05 0.753299)
(0.753332 6.82569e-21 1.79537e-21 0.753358 -1.29785e-05 0.753309)
(0.753334 4.93565e-21 -2.59267e-20 0.753354 -1.43329e-05 0.753312)
(0.753333 1.74824e-20 7.08584e-21 0.753355 -1.1559e-05 0.753312)
(0.753334 1.519e-20 6.73208e-21 0.753354 -1.26624e-05 0.753312)
(0.753333 4.67331e-21 -2.27664e-20 0.753354 -1.12617e-05 0.753312)
(0.753334 4.60779e-21 -2.15917e-22 0.753354 -1.14582e-05 0.753313)
(0.753333 1.70913e-20 9.97851e-21 0.753355 -1.10007e-05 0.753312)
(0.753334 8.64819e-21 -6.52569e-21 0.753356 -1.22794e-05 0.75331)
(0.753333 5.29336e-21 3.53266e-21 0.753363 -1.47109e-05 0.753304)
(0.753335 2.53869e-20 1.50463e-20 0.753386 -3.10683e-05 0.753278)
(0.753332 -1.22413e-19 -6.76936e-20 0.753379 -1.94554e-05 0.753289)
(0.753333 2.59635e-19 1.17653e-19 0.753011 0.000182736 0.753656)
(0.753334 -7.77247e-20 -5.71408e-20 0.753285 2.37088e-05 0.753382)
(0.753333 -1.0462e-19 -8.22349e-20 0.753371 -2.1763e-05 0.753296)
(0.753334 1.52684e-20 -2.83219e-20 0.753367 -2.26688e-05 0.753299)
(0.753332 1.78138e-20 9.42724e-21 0.753358 -1.44408e-05 0.753309)
(0.753334 -2.00945e-21 -1.24088e-20 0.753353 -1.40225e-05 0.753313)
(0.753333 9.93631e-21 -1.34268e-20 0.753353 -1.13497e-05 0.753315)
(0.753334 1.32466e-20 1.16149e-20 0.753351 -1.15238e-05 0.753315)
(0.753333 6.67936e-22 -6.41169e-21 0.753352 -1.02617e-05 0.753315)
(0.753333 -8.08452e-21 -1.64679e-20 0.753352 -1.00583e-05 0.753315)
(0.753333 -3.7967e-21 6.57351e-21 0.753353 -9.54601e-06 0.753314)
(0.753334 1.92493e-21 5.79291e-21 0.753355 -1.06224e-05 0.753311)
(0.753333 1.51535e-20 7.69118e-21 0.753361 -1.17964e-05 0.753307)
(0.753335 2.45617e-20 2.38873e-20 0.753385 -2.87855e-05 0.75328)
(0.753332 -8.88435e-20 -4.42224e-20 0.753394 -2.7056e-05 0.753274)
(0.753333 3.41893e-19 1.87206e-19 0.753024 0.000175776 0.753643)
(0.753334 -7.83075e-20 -3.46e-20 0.753284 2.38679e-05 0.753382)
(0.753333 -1.24989e-19 -1.49175e-19 0.753366 -2.06806e-05 0.753301)
(0.753334 -4.26022e-20 -1.84102e-20 0.753366 -2.29084e-05 0.7533)
(0.753333 -1.77377e-20 6.3871e-21 0.753358 -1.53931e-05 0.75331)
(0.753334 -6.35565e-21 -4.99112e-20 0.753351 -1.35127e-05 0.753315)
(0.753333 -1.72453e-20 3.24706e-21 0.75335 -1.06361e-05 0.753317)
(0.753333 -1.86225e-21 2.30363e-20 0.753348 -9.90831e-06 0.753318)
(0.753333 5.69433e-21 -1.89041e-20 0.753348 -8.59647e-06 0.753318)
(0.753333 -3.28927e-20 -2.31806e-21 0.753349 -8.04607e-06 0.753318)
(0.753333 -3.15235e-20 1.08205e-20 0.75335 -7.49729e-06 0.753317)
(0.753334 1.12987e-21 -7.10537e-21 0.753352 -8.40838e-06 0.753314)
(0.753333 1.70865e-20 3.03591e-20 0.753357 -9.15109e-06 0.75331)
(0.753334 5.58041e-20 2.90865e-20 0.753381 -2.48242e-05 0.753285)
(0.753332 1.27685e-20 1.90291e-20 0.753416 -3.92837e-05 0.753252)
(0.753333 3.27406e-19 2.12426e-19 0.753035 0.00016854 0.753631)
(0.753333 -2.23177e-20 6.64907e-21 0.753288 2.34096e-05 0.753379)
(0.753333 -1.62805e-19 -1.31873e-19 0.753365 -2.0769e-05 0.753302)
(0.753334 -9.00941e-20 -5.21526e-20 0.753365 -2.23775e-05 0.753301)
(0.753333 -8.04662e-20 -2.52771e-20 0.753356 -1.50478e-05 0.753311)
(0.753334 -7.22002e-20 -4.48574e-20 0.753349 -1.22734e-05 0.753317)
(0.753333 -2.76245e-20 6.32854e-21 0.753347 -9.1621e-06 0.75332)
(0.753333 -6.27198e-21 2.88321e-20 0.753345 -7.92391e-06 0.753321)
(0.753333 -2.45036e-20 2.74028e-22 0.753345 -6.56367e-06 0.753322)
(0.753333 -4.46589e-20 -2.9929e-21 0.753345 -5.90217e-06 0.753322)
(0.753333 -3.97528e-20 -6.64359e-22 0.753346 -5.37859e-06 0.753321)
(0.753334 -1.03393e-20 5.94577e-21 0.753348 -6.12585e-06 0.753318)
(0.753333 2.9012e-20 4.73651e-20 0.753353 -6.75182e-06 0.753314)
(0.753334 9.45895e-20 7.02737e-20 0.753377 -2.13482e-05 0.753289)
(0.753333 1.39343e-19 9.66221e-20 0.753437 -5.19815e-05 0.75323)
(0.753333 1.18002e-19 9.02479e-20 0.753043 0.000162359 0.753624)
(0.753333 1.41963e-19 1.10883e-19 0.753287 2.48015e-05 0.75338)
(0.753333 -1.16158e-19 -3.47972e-20 0.753368 -2.16677e-05 0.753299)
(0.753334 -1.22285e-19 -8.66857e-20 0.753365 -2.30121e-05 0.753301)
(0.753333 -1.5051e-19 -6.62049e-20 0.753354 -1.51325e-05 0.753313)
(0.753334 -1.40102e-19 -5.35899e-20 0.753347 -1.11079e-05 0.75332)
(0.753333 -2.16118e-20 2.14205e-21 0.753344 -7.2907e-06 0.753323)
(0.753333 -5.50591e-23 5.28242e-20 0.753342 -5.6479e-06 0.753325)
(0.753333 -3.74452e-20 -1.07989e-20 0.753341 -4.40654e-06 0.753325)
(0.753333 -4.31205e-20 -3.91009e-21 0.753341 -3.89038e-06 0.753325)
(0.753333 -4.83909e-20 2.75937e-21 0.753342 -3.54582e-06 0.753324)
(0.753333 -2.26162e-20 -1.2646e-21 0.753344 -4.12422e-06 0.753322)
(0.753333 4.83702e-20 4.93209e-20 0.753347 -4.75013e-06 0.75332)
(0.753333 1.27319e-19 9.79181e-20 0.753372 -1.818e-05 0.753295)
(0.753333 2.79081e-19 1.7007e-19 0.75346 -6.71445e-05 0.753207)
(0.753334 -3.24905e-19 -1.62943e-19 0.753058 0.000149492 0.753608)
(0.753333 1.80247e-19 1.40894e-19 0.753279 3.12286e-05 0.753388)
(0.753333 5.44084e-20 1.30979e-20 0.753378 -2.09132e-05 0.753288)
(0.753334 -9.77834e-20 -8.32636e-20 0.753375 -2.06453e-05 0.753291)
(0.753333 -1.73478e-19 -1.25328e-19 0.753353 -9.50362e-06 0.753314)
(0.753334 -1.15394e-19 -6.93464e-20 0.753341 -6.11847e-06 0.753326)
(0.753333 1.90549e-20 2.60928e-20 0.753338 -4.1856e-06 0.753329)
(0.753334 3.53338e-20 1.81359e-20 0.753338 -3.98332e-06 0.753329)
(0.753333 -3.04523e-20 -5.18572e-21 0.753339 -3.03643e-06 0.753328)
(0.753334 -3.72724e-20 -1.94119e-21 0.753339 -2.69445e-06 0.753327)
(0.753333 -4.70226e-20 -2.8222e-20 0.75334 -2.18952e-06 0.753326)
(0.753334 -2.88319e-20 -9.16296e-22 0.753342 -2.64061e-06 0.753324)
(0.753333 5.6065e-20 5.16523e-20 0.753345 -2.76458e-06 0.753322)
(0.753334 1.52494e-19 1.05603e-19 0.753369 -1.58679e-05 0.753297)
(0.753334 3.94878e-19 2.45773e-19 0.75347 -7.36271e-05 0.753196)
(0.753332 -5.46689e-19 -3.47735e-19 0.753067 0.000135421 0.753602)
(0.753333 3.55105e-19 1.78638e-19 0.753216 3.43649e-05 0.75345)
(0.753334 3.90407e-19 3.16753e-19 0.753344 -1.97256e-05 0.753322)
(0.753333 4.0111e-20 4.15615e-20 0.753384 -3.25944e-05 0.753283)
(0.753333 -2.49414e-19 -1.62658e-19 0.753379 -2.62764e-05 0.753288)
(0.753334 -2.88533e-19 -1.86178e-19 0.753361 -1.60818e-05 0.753305)
(0.753333 -1.10832e-19 -9.38509e-20 0.753346 -6.5342e-06 0.75332)
(0.753333 -4.5196e-20 -5.17897e-20 0.753338 -1.11127e-06 0.753329)
(0.753333 -4.96286e-20 -4.81278e-20 0.753336 4.38476e-07 0.75333)
(0.753333 -2.1855e-20 -4.55277e-20 0.753337 6.76151e-07 0.75333)
(0.753333 -9.26912e-20 -9.53164e-20 0.753338 -6.32996e-08 0.753329)
(0.753333 -5.44035e-20 -5.59169e-20 0.753339 -1.88605e-07 0.753328)
(0.753333 -1.51605e-20 -3.72849e-20 0.753338 -7.20172e-07 0.753328)
(0.753332 9.63154e-20 3.17844e-20 0.753366 -1.4208e-05 0.753301)
(0.753333 5.92532e-19 3.40158e-19 0.753507 -9.14185e-05 0.75316)
(0.753364 -2.64004e-20 -1.66104e-21 0.753277 2.23629e-05 0.753359)
(0.753327 -2.46866e-20 -2.96731e-21 0.753343 2.01972e-05 0.75333)
(0.753333 -1.17501e-20 -7.56486e-21 0.753329 -7.2847e-06 0.753338)
(0.753334 -9.06701e-21 -8.80797e-21 0.753328 -1.19649e-05 0.753338)
(0.753333 2.337e-21 -8.93708e-21 0.753332 -5.86961e-06 0.753335)
(0.753333 1.04749e-20 1.89862e-21 0.753332 -1.48001e-06 0.753335)
(0.753333 3.20599e-21 -6.35295e-21 0.753332 -2.81829e-06 0.753335)
(0.753334 -2.18084e-20 -7.06544e-21 0.753332 -1.8384e-06 0.753335)
(0.753334 -2.84382e-20 -1.01286e-20 0.753332 -1.34874e-06 0.753334)
(0.753333 -1.23078e-20 2.99502e-21 0.753332 -4.94333e-07 0.753334)
(0.753333 -7.84808e-21 -1.21791e-20 0.753333 -2.01344e-06 0.753334)
(0.753334 -1.42658e-20 -1.34584e-20 0.753331 -5.91245e-07 0.753335)
(0.753333 9.43717e-21 2.3235e-21 0.753333 1.28639e-07 0.753334)
(0.753333 3.48292e-20 -1.18075e-20 0.753333 -1.19253e-06 0.753334)
(0.753334 3.03784e-20 -8.08655e-21 0.753332 -1.76337e-06 0.753334)
(0.753334 1.45778e-20 -6.07299e-21 0.753332 -2.21158e-06 0.753334)
(0.753333 6.9596e-21 1.2476e-21 0.753333 -5.52245e-07 0.753334)
(0.753333 1.91948e-20 -4.84016e-21 0.753334 -1.7724e-06 0.753333)
(0.753334 1.16918e-20 -3.07101e-21 0.753331 -8.0957e-07 0.753335)
(0.753333 1.13401e-20 -6.86051e-22 0.753333 1.47682e-07 0.753334)
(0.753333 3.19968e-20 -1.34462e-21 0.753333 -1.39707e-06 0.753334)
(0.753333 3.41896e-20 2.23437e-21 0.753332 -2.56477e-06 0.753334)
(0.753334 2.31053e-20 5.165e-21 0.753332 -3.14113e-06 0.753334)
(0.753333 2.60063e-21 -7.3233e-22 0.753333 -5.01134e-07 0.753334)
(0.753333 -1.31682e-20 5.68225e-21 0.753333 -1.00854e-06 0.753333)
(0.753334 -2.02299e-20 3.95192e-21 0.753333 -1.57634e-06 0.753334)
(0.753334 -1.53292e-20 2.21146e-21 0.753333 -2.11087e-06 0.753334)
(0.753333 -5.97385e-21 -1.08616e-21 0.753333 2.48392e-07 0.753334)
(0.753333 -1.06639e-20 1.23596e-21 0.753334 -1.45659e-06 0.753333)
(0.753334 -1.07044e-20 3.55066e-23 0.753331 -1.10653e-06 0.753335)
(0.753333 -5.4696e-21 -8.51225e-22 0.753333 5.22589e-07 0.753334)
(0.753333 -1.05528e-21 -1.22707e-21 0.753333 -1.44075e-06 0.753334)
(0.753334 7.43455e-21 -1.16289e-21 0.753332 -3.03369e-06 0.753334)
(0.753334 9.63318e-21 -1.11672e-22 0.753333 -2.8347e-06 0.753334)
(0.753333 5.912e-21 -7.52723e-22 0.753333 5.28409e-07 0.753334)
(0.753332 4.72353e-21 1.07328e-21 0.753334 -2.30152e-06 0.753333)
(0.753334 4.33462e-22 1.39295e-21 0.75333 -1.64062e-06 0.753335)
(0.753333 -3.85895e-21 -3.87328e-22 0.753333 4.85349e-07 0.753334)
(0.753333 -1.06509e-20 8.58439e-22 0.753333 -3.00059e-06 0.753334)
(0.753333 -1.14967e-20 -3.31537e-22 0.753332 -4.86925e-06 0.753334)
(0.753334 -9.28693e-21 -1.4987e-21 0.753332 -3.51294e-06 0.753334)
(0.753333 -2.48817e-21 -6.37661e-22 0.753333 9.81686e-07 0.753334)
(0.753333 2.872e-21 -2.03625e-21 0.753333 -1.90657e-06 0.753334)
(0.753333 4.70246e-21 -1.65496e-21 0.753332 -4.21969e-06 0.753334)
(0.753333 2.44011e-21 -1.33817e-21 0.753333 -3.16603e-06 0.753334)
(0.753333 2.31449e-21 -9.88541e-22 0.753333 1.10654e-06 0.753334)
(0.753332 6.37701e-21 -7.67236e-22 0.753335 -3.9046e-06 0.753333)
(0.753334 2.3899e-21 -3.31787e-22 0.753331 -3.0304e-06 0.753335)
(0.753333 -1.71794e-21 -1.42345e-21 0.753334 6.20883e-07 0.753333)
(0.753333 -1.00358e-20 -4.89626e-22 0.753334 -4.76963e-06 0.753334)
(0.753333 -1.86824e-20 -1.75167e-21 0.753333 -6.86369e-06 0.753334)
(0.753334 -1.99885e-20 -3.92019e-21 0.753333 -4.29017e-06 0.753333)
(0.753333 -3.85002e-21 -2.09932e-21 0.753334 1.40395e-06 0.753332)
(0.753333 1.2273e-20 -4.61076e-21 0.753334 -3.69191e-06 0.753333)
(0.753333 1.95121e-20 -2.93885e-21 0.753334 -6.50059e-06 0.753333)
(0.753333 1.77384e-20 -9.1811e-22 0.753334 -3.43253e-06 0.753332)
(0.753334 1.09672e-20 -1.159e-21 0.753335 2.49445e-06 0.753331)
(0.753332 1.26308e-20 1.1817e-21 0.753337 -3.6458e-06 0.753332)
(0.753334 1.09031e-20 2.48334e-21 0.753333 -2.17435e-06 0.753333)
(0.753334 5.63455e-21 5.95935e-23 0.753336 2.88776e-06 0.75333)
(0.753332 -6.58069e-22 3.83426e-21 0.753335 -5.6015e-06 0.753333)
(0.753333 -2.81401e-21 3.69531e-21 0.753334 -8.437e-06 0.753333)
(0.753333 -2.91067e-21 3.37558e-21 0.753333 2.31158e-06 0.753333)
(0.753334 -1.27227e-20 3.28062e-21 0.753338 4.58413e-06 0.753328)
(0.75333 -3.64224e-20 2.84474e-22 0.753338 -9.95537e-06 0.753332)
(0.753333 -5.25123e-20 -4.58295e-21 0.753334 -9.91824e-06 0.753333)
(0.753334 -8.85708e-21 7.37539e-21 0.753341 -1.02607e-05 0.753325)
(0.753331 3.19124e-20 -8.68758e-21 0.753343 -1.25967e-05 0.753326)
(0.753335 3.91348e-20 -4.5559e-21 0.753339 -1.85521e-06 0.753326)
(0.753333 8.06206e-20 2.81731e-21 0.753345 -1.53631e-05 0.753322)
(0.753333 7.80072e-20 1.5948e-20 0.753348 -1.25298e-05 0.753318)
(0.753332 1.09582e-19 1.95307e-20 0.753353 -6.75361e-06 0.753314)
(0.753335 1.10629e-19 3.16989e-20 0.753351 -9.78457e-06 0.753314)
(0.753335 1.09824e-19 4.38657e-20 0.753359 -3.12886e-05 0.753307)
(0.753332 1.1928e-20 1.83084e-20 0.753357 -1.65382e-05 0.753311)
(0.753338 -1.0664e-19 4.18098e-20 0.753359 -3.50941e-06 0.753303)
(0.753335 -5.78054e-20 3.29709e-20 0.753373 -4.6009e-05 0.753292)
(0.753331 -4.74367e-20 1.43683e-20 0.753361 -1.41493e-05 0.753307)
(0.753342 -3.69093e-20 2.22251e-20 0.753366 6.68246e-06 0.753291)
(0.753332 2.34499e-19 2.53781e-20 0.753395 -0.000103143 0.753273)
(0.75333 2.13449e-19 -2.43628e-20 0.753348 -7.1512e-05 0.753321)
(0.753339 7.59592e-20 -2.45814e-20 0.753327 3.17463e-06 0.753334)
(0.75333 6.17727e-20 -2.46268e-20 0.75335 -2.95038e-05 0.75332)
(0.753334 3.29278e-20 3.8589e-21 0.753337 -1.20922e-05 0.75333)
(0.753334 4.00318e-19 -5.18259e-20 0.753333 -5.33547e-05 0.753333)
(0.753333 3.71441e-19 -5.94241e-20 0.75333 -7.05824e-05 0.753337)
(0.753334 7.53727e-20 -4.66727e-20 0.753331 -2.16282e-05 0.753334)
(0.753334 6.43177e-20 -4.44296e-20 0.753334 -4.18138e-06 0.753332)
(0.753333 9.30784e-21 -4.34045e-20 0.753335 7.34269e-06 0.753332)
(0.753335 -5.09529e-20 -4.52735e-20 0.753331 1.25407e-05 0.753334)
(0.753334 -6.26851e-20 -4.44865e-20 0.753333 7.95632e-06 0.753334)
(0.753335 -1.24978e-19 -4.63007e-20 0.753331 -4.37753e-06 0.753334)
(0.753333 -9.74329e-20 -1.1373e-20 0.753336 -8.95287e-06 0.753331)
(0.753333 -2.67456e-19 -2.72303e-20 0.753332 -3.12212e-05 0.753335)
(0.753335 -3.79484e-19 -2.69157e-20 0.753328 -4.40399e-05 0.753337)
(0.753333 -1.03399e-19 -4.78197e-20 0.753336 -2.862e-05 0.753331)
(0.753334 2.4639e-21 -5.86731e-20 0.753336 -1.6786e-05 0.75333)
(0.753333 1.27545e-19 -5.62005e-20 0.753338 -6.60336e-06 0.753329)
(0.753335 3.0341e-19 -4.73678e-20 0.753334 4.01208e-07 0.753331)
(0.753333 2.61924e-19 -4.07828e-20 0.753337 2.35358e-06 0.75333)
(0.753334 -1.80845e-20 -5.4714e-20 0.753336 -6.40045e-06 0.75333)
(0.753333 -5.30796e-20 -3.79023e-20 0.753338 -5.27778e-06 0.753329)
(0.753333 7.99375e-21 -4.35652e-20 0.753338 -1.17698e-05 0.75333)
(0.753334 -1.14428e-19 -3.56257e-20 0.753334 -2.30169e-05 0.753332)
(0.753333 -1.47322e-19 -3.77707e-20 0.753338 -2.02815e-05 0.753329)
(0.753334 -1.38224e-19 -4.23673e-20 0.753337 -1.48222e-05 0.753329)
(0.753333 -9.11345e-20 -4.50227e-20 0.75334 -8.46591e-06 0.753327)
(0.753333 -4.35708e-20 -4.41886e-20 0.753339 -4.38608e-06 0.753327)
(0.753335 -9.39285e-20 -4.84782e-20 0.753335 -2.36303e-06 0.75333)
(0.753333 -1.60029e-19 -5.56568e-20 0.75334 -2.30317e-06 0.753327)
(0.753334 -1.8132e-19 -6.2685e-20 0.75334 -1.16916e-05 0.753326)
(0.753333 -3.8725e-20 1.27673e-20 0.753339 -4.7494e-06 0.753327)
(0.753332 1.59291e-19 -6.00013e-20 0.753342 -2.86191e-06 0.753325)
(0.753334 2.92716e-19 -6.02916e-20 0.753339 -8.2136e-06 0.753327)
(0.753333 3.89404e-19 -5.3999e-20 0.753341 -1.32979e-06 0.753326)
(0.753333 3.76651e-19 -4.19047e-20 0.75334 3.56319e-06 0.753327)
(0.753333 3.36536e-19 -3.13582e-20 0.753341 6.91445e-06 0.753327)
(0.753335 3.63716e-19 -1.35137e-20 0.753335 3.70787e-06 0.753329)
(0.753332 4.03297e-19 2.5881e-21 0.753342 -3.89036e-06 0.753326)
(0.753333 2.2543e-19 -1.21813e-21 0.753343 -1.54118e-05 0.753324)
(0.753333 3.03993e-20 2.32778e-20 0.75334 -4.17496e-06 0.753327)
(0.753332 -1.37082e-19 -5.90679e-21 0.753344 4.14185e-06 0.753324)
(0.753333 -3.88992e-19 2.52451e-21 0.753341 -1.07688e-07 0.753326)
(0.753333 -4.9849e-19 -5.02059e-21 0.75334 4.61256e-06 0.753327)
(0.753333 -5.09463e-19 -2.04952e-20 0.75334 5.36e-06 0.753327)
(0.753332 -4.7982e-19 -3.54001e-20 0.753341 1.35241e-06 0.753326)
(0.753336 -4.23734e-19 -4.82759e-20 0.753335 -9.93047e-06 0.753329)
(0.753331 -4.78288e-19 -6.51833e-20 0.753347 -3.09623e-05 0.753322)
(0.753333 -2.12041e-19 -3.50479e-20 0.753342 -2.96978e-05 0.753325)
(0.753334 9.42093e-20 3.58486e-20 0.753334 4.75551e-07 0.753333)
(0.753331 1.09497e-19 -2.13472e-20 0.753343 7.42102e-07 0.753326)
(0.753335 8.07177e-20 -1.71223e-20 0.753334 -1.02807e-05 0.753332)
(0.753333 -1.68872e-19 -7.51919e-21 0.753336 -2.7387e-05 0.753331)
(0.753332 -8.18051e-20 1.30222e-20 0.753334 -3.3595e-05 0.753333)
(0.753334 2.8551e-19 2.58375e-20 0.75333 -2.37421e-05 0.753335)
(0.753334 4.21252e-19 3.88612e-20 0.753332 -3.30475e-05 0.753334)
(0.75333 5.07831e-19 5.67929e-20 0.753343 -4.21136e-05 0.753327)
(0.75334 5.22107e-19 7.30667e-20 0.753323 -2.21447e-05 0.753337)
(0.753333 1.01876e-19 6.47919e-20 0.753319 -2.93098e-06 0.753348)
(0.753332 -1.01429e-19 7.09306e-20 0.753325 -3.06897e-05 0.753344)
(0.753336 -1.12718e-20 6.1099e-20 0.753315 -4.79966e-05 0.753349)
(0.753331 1.96454e-19 5.54381e-20 0.753327 -5.19871e-05 0.753342)
(0.753337 8.92942e-19 5.2234e-20 0.753319 -5.79162e-05 0.753345)
(0.753332 1.91674e-18 8.83915e-20 0.753331 -8.12537e-05 0.753337)
(0.753334 2.51411e-18 1.38619e-19 0.753321 -4.1338e-05 0.753345)
(0.753336 2.45434e-18 2.13198e-19 0.753312 2.12603e-05 0.753352)
(0.753328 2.00539e-18 2.54631e-19 0.753322 5.02848e-05 0.75335)
(0.753347 8.95025e-19 2.10633e-19 0.75327 9.32507e-05 0.753382)
(0.753332 -3.63624e-19 -1.30359e-20 0.753301 4.59118e-05 0.753367)
(0.753332 -2.44734e-18 2.12047e-19 0.753326 0.000108098 0.753343)
(0.75334 -3.99724e-18 1.89812e-19 0.753314 0.000240231 0.753346)
(0.753332 -3.40699e-18 5.92284e-20 0.753316 0.000261494 0.753352)
(0.753336 -2.01763e-18 -4.29166e-20 0.75329 0.000279106 0.753373)
(0.753328 -5.63123e-19 -7.06143e-20 0.753288 0.000271849 0.753383)
(0.753337 5.14924e-19 -4.55214e-20 0.753268 0.000220204 0.753395)
(0.753338 7.89978e-19 -2.17302e-20 0.753296 5.06445e-05 0.753366)
(0.75333 3.58774e-19 -3.7437e-20 0.753317 -1.59383e-05 0.753352)
(0.753334 1.20815e-19 -3.15683e-20 0.753325 2.95945e-06 0.753341)
(0.753326 2.42886e-19 -6.91985e-20 0.753327 3.30041e-05 0.753346)
(0.753344 -1.59205e-19 -4.53465e-20 0.753298 0.000104715 0.753358)
(0.753337 -2.36942e-19 -4.91194e-23 0.753324 5.15898e-05 0.753339)
(0.75333 2.49144e-20 5.24324e-21 0.753346 -2.14787e-06 0.753324)
(0.753337 -3.07107e-21 -7.71149e-22 0.753328 4.16412e-06 0.753335)
(0.753329 -6.3926e-21 -2.37817e-21 0.753342 1.04038e-05 0.75333)
(0.753335 3.09001e-21 -6.24971e-22 0.753333 6.10002e-06 0.753333)
(0.753334 -2.61406e-22 -2.71147e-21 0.75333 1.06947e-05 0.753336)
(0.75333 1.98613e-21 -4.31395e-22 0.75334 6.32968e-06 0.753329)
(0.753337 5.77094e-21 -1.49159e-22 0.753327 4.36078e-06 0.753336)
(0.753333 1.48282e-21 -9.65154e-22 0.753334 1.04586e-05 0.753334)
(0.753331 -3.40513e-22 -2.16446e-22 0.753338 6.01828e-06 0.753331)
(0.753336 7.00635e-22 -1.25409e-22 0.753327 4.80093e-06 0.753337)
(0.75333 -1.86176e-22 -7.72485e-22 0.753339 1.13688e-05 0.753331)
(0.753334 4.04818e-23 -1.09296e-22 0.753331 5.97417e-06 0.753335)
(0.753335 -4.68814e-22 -8.14046e-22 0.753328 1.01488e-05 0.753337)
(0.753331 7.97474e-22 2.36247e-23 0.753337 6.05069e-06 0.753332)
(0.753336 -8.83104e-23 -2.33784e-23 0.753326 4.00423e-06 0.753338)
(0.75333 -2.20637e-21 -1.14275e-21 0.753338 1.0088e-05 0.753332)
(0.753334 1.58474e-21 -6.82622e-23 0.75333 5.03943e-06 0.753336)
(0.753335 -3.58208e-23 -1.21924e-21 0.753328 8.39766e-06 0.753337)
(0.753331 -1.51187e-21 -2.89748e-22 0.753337 5.31075e-06 0.753332)
(0.753336 2.90285e-22 -1.52132e-22 0.753326 3.44036e-06 0.753338)
(0.753333 -1.93709e-21 -1.74256e-21 0.753332 9.10949e-06 0.753335)
(0.753332 -9.38494e-22 -3.25471e-22 0.753335 5.46152e-06 0.753334)
(0.753335 4.07667e-21 -3.54727e-22 0.753327 3.21044e-06 0.753338)
(0.753331 1.96928e-21 -1.19644e-21 0.753335 7.73127e-06 0.753334)
(0.753334 3.74065e-22 -1.72528e-22 0.75333 3.94083e-06 0.753336)
(0.753335 5.45853e-22 -8.58104e-22 0.753328 6.70066e-06 0.753337)
(0.753331 1.03684e-21 1.88625e-22 0.753335 4.90993e-06 0.753334)
(0.753335 -2.4122e-22 -6.51895e-23 0.753327 2.72209e-06 0.753338)
(0.753331 -1.98884e-21 -1.10366e-21 0.753334 6.68002e-06 0.753335)
(0.753334 -2.31776e-22 -2.35549e-22 0.75333 3.37854e-06 0.753336)
(0.753334 4.17535e-22 -1.2836e-21 0.753328 4.89767e-06 0.753338)
(0.753332 -2.67781e-22 -1.96851e-22 0.753334 4.45492e-06 0.753334)
(0.753335 1.51955e-21 1.69573e-22 0.753328 2.35139e-06 0.753338)
(0.753333 -4.80275e-22 -1.11226e-21 0.75333 5.21707e-06 0.753337)
(0.753332 5.603e-22 -2.23749e-22 0.753333 3.60114e-06 0.753335)
(0.753334 3.89118e-21 -2.43182e-22 0.753328 1.11996e-06 0.753337)
(0.753332 2.31418e-21 1.63437e-22 0.753333 2.95051e-06 0.753336)
(0.753334 7.19399e-22 -2.90829e-23 0.75333 2.70767e-06 0.753336)
(0.753334 4.65348e-21 9.74023e-22 0.753328 4.00329e-06 0.753338)
(0.753332 3.24614e-21 3.76308e-22 0.753333 4.39567e-06 0.753335)
(0.753334 -4.8305e-21 2.07505e-22 0.753328 9.81951e-07 0.753337)
(0.753331 -9.94609e-21 2.81428e-22 0.753333 1.65031e-06 0.753336)
(0.753334 3.31643e-22 1.39287e-23 0.753329 1.86878e-06 0.753337)
(0.753335 4.56931e-21 -1.9822e-23 0.753327 -1.98435e-07 0.753339)
(0.753332 -6.21674e-22 8.63718e-23 0.753333 5.02494e-06 0.753335)
(0.753334 2.1375e-22 5.02345e-22 0.753328 8.54782e-07 0.753338)
(0.753334 4.02178e-21 2.20452e-22 0.753328 -2.75782e-06 0.753339)
(0.753333 2.82083e-21 1.50262e-22 0.753331 3.86418e-06 0.753336)
(0.753334 6.16337e-22 2.04954e-22 0.753329 -4.9949e-08 0.753337)
(0.753333 1.19089e-21 1.60723e-21 0.753328 -3.57056e-06 0.753338)
(0.753333 1.60472e-22 7.05171e-23 0.75333 9.93494e-07 0.753336)
(0.753333 -4.48097e-21 1.30569e-21 0.75333 -4.70157e-06 0.753337)
(0.753334 -3.55796e-21 4.11179e-22 0.75333 2.59359e-06 0.753336)