/*--------------------------------*- C++ -*----------------------------------*\
| =========                 |                                                 |
| \\      /  F ield         | OpenFOAM: The Open Source CFD Toolbox           |
|  \\    /   O peration     | Version:  4.1                                   |
|   \\  /    A nd           | Web:      www.OpenFOAM.org                      |
|    \\/     M anipulation  |                                                 |
\*---------------------------------------------------------------------------*/
FoamFile
{
    version     2.0;
    format      ascii;
    class       volVectorField;
    location    "28";
    object      U;
}
// * * * * * * * * * * * * * * * * * * * * * * * * * * * * * * * * * * * * * //

dimensions      [0 1 -1 0 0 0 0];

internalField   nonuniform List<vector> 
6785
(
(1.44054e-14 -2.25424 16.392)
(1.13816e-14 -7.90205 12.8599)
(-2.98623e-15 -5.12215 13.6511)
(4.51436e-15 -5.08698 13.1433)
(8.90672e-16 -4.30758 12.9875)
(-2.03465e-16 -3.89977 12.683)
(2.6233e-15 -3.494 12.3888)
(6.68675e-16 -3.21638 12.0738)
(-7.59819e-16 -3.03369 11.7686)
(1.54586e-15 -2.97033 11.4612)
(3.07876e-16 -2.97298 11.1511)
(-4.32144e-16 -3.01308 10.8084)
(9.16806e-16 -3.4296 10.1388)
(5.1013e-17 -3.48377 9.08722)
(-3.0061e-16 0.00248135 7.41596)
(1.9166e-14 -10.1811 26.5672)
(1.29761e-14 -16.0706 23.0057)
(-2.62428e-15 -11.0377 23.3504)
(4.52706e-15 -11.7654 21.5398)
(7.69188e-16 -10.0269 20.7032)
(9.22402e-16 -9.36588 19.494)
(1.86677e-15 -8.35466 18.4565)
(1.8375e-16 -7.54748 17.387)
(-4.55783e-17 -6.72277 16.3397)
(4.75991e-16 -5.97032 15.2332)
(-4.10814e-16 -5.29653 13.9859)
(-4.07351e-16 -4.75315 12.4342)
(3.25033e-17 -4.38428 10.3529)
(-4.53892e-16 -3.72978 7.25498)
(-4.53974e-16 -1.26425 2.29428)
(2.07755e-14 -12.9891 28.3238)
(1.05194e-14 -16.753 25.3431)
(-1.45878e-15 -12.1276 25.2708)
(3.8945e-15 -13.0364 22.8748)
(6.53237e-16 -10.9257 21.9054)
(1.46904e-15 -10.4414 20.2788)
(1.19966e-15 -9.31037 19.0725)
(4.30337e-18 -8.55285 17.759)
(4.39125e-16 -7.54449 16.2844)
(3.75367e-16 -6.07222 13.8115)
(3.65531e-16 -3.52768 9.37884)
(1.17822e-15 -0.405212 3.37998)
(-2.68241e-16 1.49314 -0.806975)
(-2.43262e-15 1.54412 -1.53539)
(-2.82564e-15 0.981083 -1.12174)
(2.1167e-14 -14.0814 28.7825)
(1.02982e-14 -17.4124 26.2817)
(-1.48652e-15 -13.0541 25.8886)
(3.9534e-15 -14.4319 23.1609)
(9.69373e-16 -11.994 22.3167)
(1.23266e-15 -12.0207 20.3803)
(1.22098e-15 -10.7698 19.2179)
(9.06278e-16 -10.2877 17.7847)
(-1.48575e-17 -9.41134 16.3868)
(4.76059e-16 -8.24987 14.1947)
(1.84816e-15 -5.95195 10.3459)
(8.39094e-16 -2.45636 4.50095)
(4.393e-15 0.551229 -0.0745096)
(7.75843e-15 2.89407 -3.12377)
(-8.186e-16 2.30059 -5.06751)
(2.08267e-14 -14.0339 27.6027)
(1.24272e-14 -17.8605 27.2343)
(-8.20346e-16 -13.5729 25.8252)
(3.81411e-15 -14.6904 22.9732)
(2.0757e-15 -12.4152 22.0083)
(1.5182e-15 -12.4021 19.9357)
(1.65832e-15 -11.2011 18.6008)
(1.8456e-15 -10.6626 17.0083)
(7.44943e-16 -9.8884 15.5345)
(7.93457e-16 -9.03245 13.7684)
(1.8424e-15 -7.73221 11.3384)
(1.23499e-15 -5.59778 7.96521)
(1.55398e-15 -3.28841 4.32433)
(2.26602e-15 0.133255 0.381978)
(6.292e-15 1.82535 -5.30946)
(1.94162e-14 -13.29 25.2684)
(1.40507e-14 -17.6161 27.4431)
(1.0251e-16 -13.6164 25.1641)
(2.99783e-15 -14.0765 22.1633)
(2.26345e-15 -12.0886 21.0257)
(1.3954e-15 -11.8359 18.9475)
(1.54182e-15 -10.6648 17.4682)
(1.72141e-15 -9.96225 15.7646)
(9.25881e-16 -9.12783 14.1923)
(4.58427e-16 -8.2907 12.5788)
(9.05679e-16 -7.3748 10.7816)
(1.17353e-15 -6.03773 8.65732)
(2.83617e-16 -4.50341 5.98639)
(-4.05776e-16 -1.82208 2.57094)
(7.11546e-15 0.389888 -2.80287)
(1.94348e-14 -12.4652 23.2017)
(1.57413e-14 -17.0535 27.2026)
(2.47891e-15 -13.5936 24.5907)
(2.3736e-15 -13.4457 21.4773)
(2.65194e-15 -11.7407 20.1728)
(2.70367e-15 -11.3081 18.2046)
(1.92561e-15 -10.2343 16.6896)
(2.05208e-15 -9.47894 15.0594)
(2.80093e-15 -8.66603 13.5629)
(1.39729e-15 -7.86973 12.1148)
(1.09838e-15 -7.09884 10.6439)
(2.75225e-15 -6.1445 9.12267)
(1.80838e-15 -5.08805 7.26101)
(-1.33914e-15 -3.23116 4.84262)
(7.60195e-15 -0.82264 -0.0293965)
(1.87802e-14 -11.9133 22.0897)
(1.68844e-14 -16.373 26.517)
(3.72853e-15 -13.3565 23.9776)
(2.06105e-15 -12.9358 20.7752)
(2.81755e-15 -11.3307 19.3882)
(3.21211e-15 -10.9017 17.5014)
(2.34128e-15 -9.95296 16.1068)
(2.25829e-15 -9.3377 14.6156)
(2.69381e-15 -8.64946 13.2127)
(2.14841e-15 -7.9887 11.8524)
(1.6297e-15 -7.37058 10.602)
(1.66834e-15 -6.74026 9.57814)
(2.15957e-15 -6.11088 8.63666)
(-3.92366e-16 -4.94982 7.42112)
(2.24313e-15 -2.55947 3.39346)
(1.93564e-14 -11.8153 21.8648)
(1.58237e-14 -15.4145 25.4241)
(2.03211e-15 -12.6928 22.9823)
(2.49179e-15 -12.1798 19.8915)
(2.70564e-15 -10.4293 18.5059)
(1.26769e-15 -9.91105 16.3904)
(2.43036e-15 -8.67243 14.7761)
(1.84353e-15 -8.07789 12.97)
(-4.38189e-16 -7.44142 11.5714)
(1.54124e-15 -7.17299 10.5028)
(1.42108e-15 -7.15291 10.0924)
(-1.53194e-15 -7.43444 10.385)
(9.65777e-16 -7.58726 11.0421)
(-1.99238e-16 -7.21966 11.0226)
(-2.5055e-15 -4.86907 7.93876)
(1.86609e-14 -12.8168 23.4917)
(1.13455e-14 -14.691 24.9273)
(-1.83283e-16 -12.3135 22.8469)
(1.27157e-15 -11.7378 20.6456)
(1.23849e-15 -9.9662 19.1039)
(-1.36333e-16 -8.6174 16.4005)
(8.35581e-16 -6.53547 13.5239)
(1.10056e-15 -5.00232 10.633)
(2.07048e-16 -3.74092 8.51385)
(6.53512e-16 -3.34164 7.46289)
(-5.3053e-16 -4.03889 8.25258)
(-3.30465e-15 -5.81836 10.684)
(-2.80886e-15 -7.70839 13.4564)
(-2.03021e-15 -8.7734 14.5446)
(-4.18243e-15 -6.25182 11.3888)
(1.79992e-14 -13.9906 25.3448)
(1.05551e-14 -16.6207 27.6836)
(-2.04175e-15 -13.3734 24.7415)
(1.02918e-15 -12.9701 23.1519)
(5.97032e-16 -11.35 21.905)
(-5.21878e-16 -9.82378 19.2083)
(9.48174e-16 -7.35788 16.0253)
(2.37989e-15 -5.23462 12.7904)
(2.98163e-15 -3.14822 9.96997)
(4.23668e-15 -1.37112 7.32639)
(5.96258e-15 -0.075443 5.32502)
(4.94323e-15 -0.0989417 4.9299)
(2.34947e-15 -2.03779 6.97883)
(-8.45484e-16 -4.88574 10.0072)
(-2.94885e-15 -4.51267 9.24283)
(1.59047e-14 -12.4324 21.8396)
(1.42533e-14 -18.8676 30.2197)
(2.9376e-15 -16.5139 28.1021)
(1.22758e-15 -15.2478 25.4061)
(-3.01475e-17 -13.7695 23.9367)
(9.82323e-16 -12.6925 21.7913)
(1.19904e-15 -10.7237 19.1373)
(8.00065e-16 -8.78409 16.0485)
(4.0263e-15 -6.65553 13.0454)
(4.35667e-15 -4.55646 9.88958)
(6.76914e-15 -2.30618 6.58928)
(8.84892e-15 -0.102896 3.0514)
(3.80955e-15 1.87354 -0.201281)
(2.73929e-15 1.96339 -0.892057)
(2.17064e-16 -0.0336291 1.02053)
(1.18604e-14 -8.19975 13.6393)
(1.69035e-14 -17.7471 27.5564)
(9.96438e-15 -18.7551 29.6463)
(4.70516e-15 -17.4054 27.0517)
(1.09047e-15 -15.8067 24.5011)
(1.08598e-15 -14.7504 22.2372)
(1.52376e-15 -13.5651 20.0948)
(8.34935e-17 -12.3033 17.8267)
(1.79083e-15 -10.868 15.501)
(2.32675e-15 -9.30213 13.0883)
(2.32131e-15 -7.56827 10.552)
(4.19165e-15 -5.59026 7.84571)
(3.22806e-15 -3.41572 4.83508)
(1.91141e-15 -0.6215 1.75433)
(1.55258e-15 1.21511 -3.82847)
(7.42607e-15 -2.27546 2.6738)
(1.70297e-14 -13.7799 21.7309)
(1.26591e-14 -17.5406 28.11)
(5.07952e-15 -16.1909 25.7673)
(8.5897e-16 -14.0553 22.3199)
(6.40829e-16 -12.7182 19.894)
(1.179e-15 -11.8063 18.2077)
(1.22085e-15 -11.0061 16.673)
(1.72114e-15 -10.1528 15.0722)
(1.74361e-15 -9.18112 13.3865)
(1.16444e-15 -8.14087 11.6347)
(1.10801e-15 -6.93597 9.84236)
(1.30117e-15 -5.6345 7.79029)
(1.11775e-15 -3.70035 5.41283)
(8.41692e-17 -1.5495 1.08538)
(3.59805e-15 -2.64725 5.67486)
(1.70396e-14 -13.3902 22.1515)
(1.70205e-14 -18.5776 29.1913)
(1.09259e-14 -19.6075 28.617)
(4.62932e-15 -18.3711 25.2104)
(1.51991e-15 -16.5307 21.6773)
(2.24197e-16 -14.8926 18.8538)
(-3.03124e-16 -13.5153 16.6247)
(-1.70001e-17 -12.1969 14.7623)
(3.56105e-16 -10.9343 13.1938)
(8.07019e-17 -9.69004 11.69)
(-3.41227e-16 -8.33205 10.1287)
(-8.38748e-16 -6.88848 8.65321)
(-1.61334e-15 -5.41758 6.95609)
(-2.8697e-15 -2.18496 3.35596)
(-9.32186e-18 15.6625 68.5351)
(-4.36739e-16 0.182641 8.41367)
(-4.6928e-16 -0.733757 -3.37042)
(-4.61728e-16 -0.498332 -2.11171)
(-4.68506e-16 -0.345998 -2.57473)
(-6.44483e-16 0.47904 -3.49264)
(-4.83161e-16 0.11625 -2.26473)
(-4.40483e-16 0.419731 -2.16855)
(-5.79055e-16 0.526604 -2.01992)
(3.74793e-16 1.18343 -2.94006)
(8.50246e-16 0.955685 -2.03698)
(8.68515e-16 1.13969 -1.9125)
(5.71635e-16 1.80194 -2.53311)
(2.60461e-16 1.44518 -1.73657)
(1.88249e-16 1.72505 -1.72528)
(1.70357e-16 1.73126 -1.71043)
(-3.63274e-17 2.30886 -2.15649)
(8.84439e-17 1.94399 -1.51149)
(9.32068e-17 2.12965 -1.47203)
(-3.07157e-17 2.72749 -1.76732)
(-2.24067e-17 2.16517 -1.24712)
(-5.20918e-17 2.47083 -1.23842)
(-4.9997e-17 2.40518 -1.22786)
(-1.34108e-16 2.99341 -1.37292)
(-2.3404e-17 2.37715 -0.961724)
(3.51442e-17 2.66513 -0.928307)
(-3.30077e-17 2.58614 -0.908627)
(-9.69397e-17 3.06616 -0.907241)
(-2.688e-17 2.4784 -0.626786)
(-3.94584e-17 2.62402 -0.606756)
(-1.27691e-16 3.08213 -0.461619)
(-6.2294e-17 2.35182 -0.341393)
(-8.0754e-17 2.59465 -0.313617)
(-9.38688e-17 2.49642 -0.323215)
(-1.99418e-16 2.84168 -0.0932689)
(-1.42261e-16 2.22125 -0.0890702)
(-1.34815e-16 2.33241 -0.118455)
(-2.09515e-16 2.63963 0.184558)
(-7.0756e-17 1.95531 0.0742261)
(-3.64098e-17 2.13315 0.0806751)
(2.72788e-17 2.03637 0.0442917)
(1.77273e-16 2.30131 0.362038)
(2.79599e-16 1.71849 0.20879)
(3.56851e-16 1.86476 0.209468)
(3.86227e-16 1.76968 0.164377)
(6.42969e-16 2.01805 0.442379)
(4.54831e-16 1.64056 0.376643)
(3.6438e-16 1.67936 0.323133)
(3.68136e-16 1.86988 0.657408)
(2.82502e-16 1.44472 0.476737)
(3.3214e-16 1.52327 0.478891)
(3.35562e-16 1.44367 0.44544)
(4.30874e-16 1.49284 0.718695)
(3.41832e-16 1.08583 0.399948)
(2.70235e-16 1.12605 0.384544)
(4.83417e-16 1.09145 0.41739)
(7.44186e-16 0.972325 0.197503)
(8.4733e-16 0.591256 -0.368367)
(3.83723e-16 0.530689 -0.144774)
(5.76181e-16 1.11037 -1.99769)
(5.58518e-16 -0.188915 -2.35232)
(5.95795e-16 -0.0571117 -1.92)
(6.42854e-16 0.374852 -1.57108)
(-5.05542e-16 0.249657 -0.528922)
(-1.75142e-15 -1.05604 1.92139)
(-1.67202e-15 -0.718855 1.79636)
(-1.97907e-15 -1.6833 4.23872)
(-1.18023e-15 -2.30082 4.4893)
(-9.62818e-16 -2.61245 4.44618)
(-7.94323e-16 -2.58975 4.57089)
(-5.10702e-16 -4.14019 7.5023)
(-1.4982e-16 -4.4323 6.35758)
(-1.67792e-16 -5.04887 6.55601)
(-2.23238e-16 -4.93824 6.78489)
(-2.71123e-16 -7.25588 10.5664)
(-2.651e-16 -7.30059 8.46776)
(-4.82764e-16 -7.42065 9.10673)
(-6.46651e-16 -10.0811 13.3486)
(-6.39516e-16 -9.77007 10.3996)
(-9.30576e-16 -10.2216 11.3535)
(-1.48277e-15 -10.9854 13.4226)
(-1.30769e-15 -10.8873 13.2769)
(-1.24709e-15 -10.9872 13.6237)
(1.10929e-16 -12.5508 16.023)
(-4.2173e-16 -11.5585 14.4823)
(9.34141e-17 -11.8181 14.9257)
(2.87698e-16 -11.8021 14.932)
(4.83611e-16 -11.9041 14.9233)
(6.35108e-16 -11.9632 14.933)
(7.59451e-16 -12.0476 14.9885)
(8.97716e-16 -12.1348 15.1578)
(1.02032e-15 -12.1764 15.4141)
(1.8052e-15 -12.9323 16.8525)
(1.25096e-15 -12.4627 15.8977)
(1.38848e-15 -12.6159 16.1685)
(1.52393e-15 -12.5827 16.3289)
(1.7583e-15 -12.7348 16.6718)
(1.83608e-15 -12.7239 16.7358)
(1.95487e-15 -12.8217 16.8571)
(2.03211e-15 -12.878 16.9436)
(2.12245e-15 -12.9306 17.031)
(3.09579e-15 -13.3669 18.116)
(2.48493e-15 -12.9774 17.2772)
(2.55512e-15 -13.0847 17.4037)
(2.58056e-15 -13.1072 17.4828)
(2.65254e-15 -13.1707 17.6318)
(2.74363e-15 -13.2044 17.8386)
(2.84327e-15 -13.2874 18.0546)
(2.91764e-15 -13.3015 18.1065)
(3.01608e-15 -13.3576 18.2284)
(3.1215e-15 -13.4435 18.3597)
(4.09206e-15 -13.3058 18.9837)
(3.42936e-15 -13.1566 18.6343)
(3.51902e-15 -13.2084 18.9156)
(3.47572e-15 -13.2256 19.0986)
(3.45815e-15 -13.2834 19.2749)
(3.45061e-15 -13.3049 19.4055)
(3.44355e-15 -13.3715 19.6197)
(3.47905e-15 -13.3585 19.6205)
(3.51841e-15 -13.4738 19.5288)
(4.38252e-15 -12.5661 18.582)
(3.53974e-15 -12.6994 18.4712)
(3.6506e-15 -12.6942 18.4411)
(3.77348e-15 -12.7292 18.5444)
(3.9371e-15 -12.6853 18.4637)
(4.17456e-15 -12.7104 18.5201)
(4.43456e-15 -12.7052 18.6237)
(4.71634e-15 -12.6411 18.8411)
(5.13868e-15 -12.8648 19.3382)
(5.95612e-15 -10.7104 17.0201)
(5.56889e-15 -11.3853 18.2105)
(5.82921e-15 -11.2617 18.1601)
(5.92574e-15 -11.2457 18.1541)
(6.25592e-15 -11.2113 18.272)
(6.2298e-15 -11.1511 17.9344)
(6.03553e-15 -11.0371 17.3368)
(5.81069e-15 -10.9122 16.6092)
(5.56784e-15 -10.9338 15.7114)
(4.9637e-15 -7.75838 10.314)
(5.5425e-15 -8.90394 13.1664)
(5.10814e-15 -8.56598 11.7655)
(4.96688e-15 -8.5764 11.1243)
(4.85525e-15 -8.33733 10.4104)
(4.93047e-15 -8.24585 9.92237)
(5.71083e-15 -7.98958 9.59524)
(5.24365e-15 -7.81693 9.17482)
(5.23697e-15 -7.58663 8.81863)
(5.01955e-15 -7.45243 8.27588)
(2.2476e-15 -3.60863 2.28165)
(4.81543e-15 -5.44219 7.18605)
(4.25828e-15 -4.84431 5.66899)
(3.96697e-15 -5.01805 5.15525)
(3.48517e-15 -4.64351 4.06131)
(2.86989e-15 -4.57266 2.77689)
(1.5432e-15 -4.34215 0.525879)
(2.80144e-16 -3.96982 -1.57839)
(6.27372e-16 -3.93211 -1.48778)
(-1.64075e-16 -3.28502 -3.63214)
(1.94129e-16 -3.27064 -1.50886)
(1.30849e-16 -3.13331 -2.19829)
(-3.46192e-16 -2.40254 -2.78849)
(-1.70168e-16 -2.98842 -3.10718)
(-2.83904e-16 -1.96055 -2.325)
(-2.53294e-16 -1.64869 -1.56193)
(-3.04319e-16 -1.62062 -2.12423)
(-2.13388e-16 -1.04158 -1.22896)
(-2.41362e-16 -1.01258 -1.85606)
(-1.09599e-16 -0.647572 -1.26114)
(2.16219e-17 -0.43371 -0.993587)
(-1.17168e-17 -0.264181 -1.41954)
(3.145e-19 -0.151502 -1.02036)
(4.11199e-18 0.0617133 -0.618176)
(-1.33932e-17 0.170166 -0.883965)
(5.13352e-17 0.282616 -0.666291)
(-1.7481e-16 0.412016 -0.800587)
(-3.42045e-16 0.595031 -0.881896)
(-1.81673e-16 0.578219 -0.578471)
(-3.32246e-16 0.878449 -0.766206)
(-2.38412e-16 0.78604 -0.537605)
(-2.33744e-16 0.974518 -0.651659)
(-2.28798e-16 1.13181 -0.702214)
(-1.5957e-16 1.04132 -0.4502)
(-1.56242e-16 1.26452 -0.544631)
(-3.37768e-16 1.4725 -0.568388)
(-2.38849e-16 1.21421 -0.351354)
(-3.30438e-16 1.7352 -0.457575)
(-2.5785e-16 1.40448 -0.287076)
(-3.83032e-16 1.60927 -0.347101)
(-4.92804e-16 1.87801 -0.345647)
(-3.59799e-16 1.50742 -0.205145)
(-5.06751e-16 2.12942 -0.287585)
(-4.07987e-16 1.67634 -0.177016)
(-4.999e-16 1.94563 -0.238445)
(-7.11409e-16 2.13504 -0.237405)
(-5.25093e-16 1.81982 -0.124429)
(-6.40789e-16 2.14414 -0.167998)
(-8.23225e-16 2.39082 -0.125404)
(-5.91801e-16 1.87376 -0.0557343)
(-8.52949e-16 2.63674 -0.0664009)
(-6.77931e-16 2.0416 0.00494754)
(-8.55718e-16 2.29582 0.00159941)
(-1.00302e-15 2.61276 0.0962396)
(-6.61112e-16 2.02498 0.100078)
(-9.09691e-16 2.83388 0.157288)
(-6.90293e-16 2.15087 0.169091)
(-8.22317e-16 2.45047 0.20451)
(-1.11938e-15 2.63943 0.329814)
(-8.79821e-16 2.16855 0.269212)
(-1.15459e-15 2.52843 0.316973)
(-1.6093e-15 2.74275 0.43917)
(-1.21307e-15 2.08332 0.291687)
(-1.80619e-15 2.91006 0.367377)
(-1.42194e-15 2.17846 0.266605)
(-1.79896e-15 2.44641 0.279112)
(-2.23257e-15 2.69796 0.318016)
(-1.49865e-15 2.05316 0.17335)
(-2.00184e-15 2.8839 0.163712)
(-1.42022e-15 2.13747 0.0825015)
(-1.66604e-15 2.4779 0.0321805)
(-1.87595e-15 2.56402 -0.00546118)
(-1.25675e-15 2.07749 -0.0519222)
(-1.52686e-15 2.51763 -0.126056)
(-1.64356e-15 2.56144 -0.169669)
(-1.06445e-15 1.93836 -0.168102)
(-1.40578e-15 2.77921 -0.279928)
(-9.69281e-16 2.04265 -0.22849)
(-1.10461e-15 2.36031 -0.314454)
(-1.174e-15 2.47825 -0.364723)
(-6.73351e-16 1.89216 -0.273048)
(-7.52914e-16 2.72261 -0.400258)
(-4.25524e-16 2.00787 -0.29773)
(-4.18749e-16 2.36304 -0.389942)
(-2.95872e-16 2.41234 -0.443791)
(-1.51996e-16 1.98001 -0.310374)
(-2.23226e-16 2.42357 -0.40433)
(-4.14277e-16 2.50634 -0.454426)
(-3.63769e-16 1.92306 -0.323614)
(-7.16805e-16 2.78933 -0.48103)
(-6.3847e-16 2.07456 -0.342237)
(-1.04087e-15 2.48144 -0.504743)
(2.58207e-15 1.13034 6.12165)
(2.31881e-15 1.25122 6.36351)
(1.99963e-15 1.32065 6.36167)
(1.6901e-15 1.42104 6.38314)
(1.39312e-15 1.52238 6.35874)
(1.14676e-15 1.62882 6.31983)
(9.62055e-16 1.73802 6.25942)
(8.4588e-16 1.84781 6.1785)
(7.94654e-16 1.95586 6.07393)
(7.92399e-16 2.0569 5.94446)
(8.01561e-16 2.14314 5.7923)
(7.46971e-16 2.20166 5.62823)
(4.9711e-16 2.21436 5.47762)
(-1.35611e-16 2.15986 5.38348)
(-1.33632e-15 2.02357 5.3961)
(-3.16634e-15 1.81616 5.54438)
(-5.472e-15 1.57837 5.80618)
(-7.8259e-15 1.31048 6.07817)
(-9.31471e-15 0.863211 6.11067)
(-8.94378e-15 0.122494 5.65877)
(-7.80914e-15 -0.527887 5.18415)
(-7.22484e-15 -0.890006 4.99995)
(-6.77385e-15 -1.15487 4.86724)
(-6.34895e-15 -1.43176 4.73846)
(-5.93838e-15 -1.73001 4.61448)
(-5.53872e-15 -2.03617 4.49532)
(-5.14506e-15 -2.34146 4.37892)
(-4.7555e-15 -2.63866 4.26472)
(-4.36699e-15 -2.92181 4.15136)
(-3.9794e-15 -3.18701 4.03861)
(-3.59327e-15 -3.43171 3.92654)
(-3.20745e-15 -3.65322 3.81415)
(-2.82373e-15 -3.84982 3.70147)
(-2.44452e-15 -4.021 3.58888)
(-2.07043e-15 -4.16716 3.47626)
(-1.70142e-15 -4.28855 3.36327)
(-1.33724e-15 -4.38594 3.2497)
(-9.76976e-16 -4.46025 3.13533)
(-6.17809e-16 -4.51218 3.01957)
(-2.55484e-16 -4.54119 2.90158)
(1.13622e-16 -4.5473 2.78116)
(4.92034e-16 -4.53272 2.65895)
(8.83655e-16 -4.4998 2.53482)
(1.29258e-15 -4.44717 2.40752)
(1.71724e-15 -4.37194 2.27627)
(2.14795e-15 -4.27531 2.14183)
(2.56887e-15 -4.16247 2.00511)
(2.96019e-15 -4.03614 1.8658)
(3.297e-15 -3.89344 1.72287)
(3.54985e-15 -3.72884 1.57548)
(3.6898e-15 -3.53805 1.42361)
(3.69659e-15 -3.31836 1.26698)
(3.56151e-15 -3.07078 1.10648)
(3.29311e-15 -2.79286 0.941284)
(2.91782e-15 -2.47794 0.769599)
(2.47383e-15 -2.15961 0.59425)
(1.99337e-15 -1.88389 0.41484)
(1.49336e-15 -1.64319 0.234409)
(9.98454e-16 -1.17227 0.0482667)
(5.52382e-16 -0.697923 -0.111713)
(2.4088e-16 -0.387223 -0.258957)
(8.31104e-17 -0.184563 -0.360829)
(1.97174e-17 -0.112984 -0.413036)
(-4.75989e-18 -0.152611 -0.44076)
(-1.20325e-17 -0.289231 -0.460438)
(-1.23372e-17 -0.472679 -0.497747)
(-1.09073e-17 -0.602762 -0.567368)
(-8.95811e-18 -0.634707 -0.640451)
(-6.57754e-18 -0.597471 -0.691568)
(-4.04441e-18 -0.52684 -0.727758)
(-2.06524e-18 -0.442472 -0.76137)
(-9.63223e-19 -0.338039 -0.787644)
(-5.01097e-19 -0.274895 -0.811937)
(-5.49623e-19 -0.0208035 -0.843545)
(-3.29557e-19 0.445328 -0.704787)
(-9.5225e-19 1.13629 -0.794539)
(7.14477e-18 2.50752 0.230088)
(-1.35323e-16 2.5862 0.718832)
(-4.33128e-16 1.79081 0.116557)
(2.29317e-15 1.09196 6.40249)
(1.81072e-15 1.21984 6.48969)
(1.49205e-15 1.32022 6.44776)
(1.20303e-15 1.42366 6.43053)
(9.74663e-16 1.53407 6.38216)
(8.21365e-16 1.64601 6.32375)
(7.42186e-16 1.76192 6.24458)
(7.32519e-16 1.87884 6.14351)
(7.77756e-16 1.99476 6.01679)
(8.475e-16 2.10339 5.86447)
(8.79598e-16 2.19482 5.6933)
(7.55624e-16 2.25214 5.52394)
(2.80439e-16 2.25177 5.39847)
(-7.9102e-16 2.1684 5.37863)
(-2.62124e-15 1.9906 5.51836)
(-5.09586e-15 1.74221 5.81356)
(-7.80171e-15 1.4857 6.18368)
(-1.01852e-14 1.25673 6.4981)
(-1.13766e-14 0.930976 6.52023)
(-1.02179e-14 0.284599 5.91878)
(-7.79508e-15 -0.460009 5.09707)
(-6.91626e-15 -0.877397 4.87092)
(-6.57677e-15 -1.1466 4.79115)
(-6.22471e-15 -1.42809 4.68188)
(-5.84176e-15 -1.73129 4.56749)
(-5.45728e-15 -2.04004 4.45742)
(-5.07582e-15 -2.34625 4.34925)
(-4.69571e-15 -2.6429 4.24184)
(-4.31445e-15 -2.92441 4.13385)
(-3.93262e-15 -3.18741 4.02538)
(-3.55098e-15 -3.42928 3.9167)
(-3.16895e-15 -3.64749 3.807)
(-2.78862e-15 -3.84065 3.69643)
(-2.41235e-15 -4.00829 3.58549)
(-2.04078e-15 -4.15081 3.47408)
(-1.67394e-15 -4.26849 3.36196)
(-1.31163e-15 -4.36215 3.24899)
(-9.52868e-16 -4.43271 3.135)
(-5.94782e-16 -4.48079 3.01941)
(-2.33186e-16 -4.50588 2.90141)
(1.3541e-16 -4.50826 2.7809)
(5.13554e-16 -4.49015 2.65856)
(9.05202e-16 -4.45362 2.53423)
(1.31421e-15 -4.39715 2.40662)
(1.73861e-15 -4.31813 2.275)
(2.16842e-15 -4.21804 2.1402)
(2.58764e-15 -4.10191 2.00317)
(2.97634e-15 -3.97212 1.86357)
(3.30949e-15 -3.82564 1.72031)
(3.5577e-15 -3.657 1.57254)
(3.69249e-15 -3.46192 1.42014)
(3.69407e-15 -3.23779 1.26282)
(3.55441e-15 -2.98548 1.10136)
(3.28275e-15 -2.70203 0.93445)
(2.90599e-15 -2.38139 0.759724)
(2.4624e-15 -2.05861 0.579614)
(1.98401e-15 -1.78115 0.391668)
(1.48782e-15 -1.54432 0.199143)
(9.98236e-16 -1.0813 0.000421067)
(5.60491e-16 -0.617603 -0.167974)
(2.56598e-16 -0.323457 -0.319545)
(9.99649e-17 -0.149126 -0.427709)
(3.13049e-17 -0.0992976 -0.475388)
(2.19324e-19 -0.151085 -0.489413)
(-1.131e-17 -0.29276 -0.491736)
(-1.26268e-17 -0.475619 -0.512499)
(-1.11903e-17 -0.606129 -0.566322)
(-9.22748e-18 -0.642314 -0.62757)
(-6.90363e-18 -0.608635 -0.672172)
(-4.41296e-18 -0.536918 -0.704346)
(-2.37371e-18 -0.449754 -0.734248)
(-1.15118e-18 -0.340724 -0.761694)
(-5.62985e-19 -0.273729 -0.783373)
(-1.02548e-18 -0.0371182 -0.885291)
(-1.03284e-18 0.436635 -0.788679)
(-1.23881e-18 0.98763 -0.908717)
(2.82753e-18 2.25884 0.170995)
(-1.40449e-16 2.59307 0.767014)
(-3.71186e-16 1.99655 0.245681)
(1.98884e-15 1.10311 6.43728)
(1.49927e-15 1.23062 6.48099)
(1.24486e-15 1.32985 6.44512)
(1.01551e-15 1.43254 6.4206)
(8.56293e-16 1.54452 6.36726)
(7.68823e-16 1.6583 6.30013)
(7.49174e-16 1.77735 6.20995)
(7.89068e-16 1.89787 6.09566)
(8.69078e-16 2.01755 5.95478)
(9.48457e-16 2.12889 5.78984)
(9.43015e-16 2.21978 5.61319)
(6.9575e-16 2.2698 5.45563)
(-3.44038e-17 2.2519 5.37293)
(-1.50115e-15 2.14152 5.43447)
(-3.76586e-15 1.93692 5.67694)
(-6.50245e-15 1.67668 6.04836)
(-9.14016e-15 1.43026 6.42634)
(-1.12164e-14 1.2355 6.69984)
(-1.21986e-14 0.984697 6.71803)
(-1.10562e-14 0.432782 6.15216)
(-8.0809e-15 -0.323685 5.12239)
(-6.64557e-15 -0.822287 4.72263)
(-6.27385e-15 -1.11552 4.66395)
(-6.02617e-15 -1.38946 4.59535)
(-5.7076e-15 -1.6894 4.50089)
(-5.35022e-15 -1.99805 4.40289)
(-4.98446e-15 -2.30465 4.30574)
(-4.61673e-15 -2.60192 4.20825)
(-4.24567e-15 -2.88439 4.10854)
(-3.87193e-15 -3.14869 4.00665)
(-3.49651e-15 -3.39204 3.90318)
(-3.11968e-15 -3.61182 3.79762)
(-2.74393e-15 -3.80671 3.69035)
(-2.3716e-15 -3.97616 3.58197)
(-2.00338e-15 -4.12047 3.47249)
(-1.6394e-15 -4.23988 3.36176)
(-1.27954e-15 -4.33521 3.24977)
(-9.2274e-16 -4.40731 3.1364)
(-5.66073e-16 -4.45673 3.0211)
(-2.05455e-16 -4.48303 2.90315)
(1.6244e-16 -4.4866 2.78257)
(5.402e-16 -4.46967 2.66006)
(9.31818e-16 -4.4341 2.53543)
(1.34084e-15 -4.37835 2.40736)
(1.76483e-15 -4.30005 2.27523)
(2.19341e-15 -4.20079 2.13993)
(2.61044e-15 -4.08552 2.00245)
(2.99584e-15 -3.95641 1.86239)
(3.32443e-15 -3.81043 1.71862)
(3.56698e-15 -3.64226 1.57026)
(3.69549e-15 -3.44768 1.4171)
(3.69085e-15 -3.22422 1.25884)
(3.54583e-15 -2.97261 1.09601)
(3.27048e-15 -2.68963 0.926755)
(2.89228e-15 -2.36949 0.747924)
(2.44953e-15 -2.04668 0.561199)
(1.97405e-15 -1.76731 0.361002)
(1.48299e-15 -1.52634 0.150969)
(1.00078e-15 -1.06396 -0.0663316)
(5.74169e-16 -0.603635 -0.249399)
(2.79337e-16 -0.311657 -0.413033)
(1.23918e-16 -0.143118 -0.537137)
(4.97916e-17 -0.0964988 -0.593286)
(1.04827e-17 -0.148838 -0.598364)
(-8.57051e-18 -0.287271 -0.566761)
(-1.29402e-17 -0.461659 -0.550748)
(-1.19554e-17 -0.584759 -0.57821)
(-1.0034e-17 -0.619818 -0.625055)
(-7.81548e-18 -0.589014 -0.664392)
(-5.38971e-18 -0.520152 -0.692146)
(-3.22381e-18 -0.435563 -0.715157)
(-1.77793e-18 -0.329518 -0.741566)
(-1.04779e-18 -0.253422 -0.769044)
(-1.8488e-18 -0.0192912 -0.923812)
(-1.7282e-18 0.441061 -0.848403)
(-1.98465e-18 0.921318 -0.964569)
(4.52349e-18 2.12878 0.0955989)
(-1.81987e-16 2.57698 0.791757)
(-4.407e-16 2.08604 0.294214)
(1.68224e-15 1.09059 6.49659)
(1.20034e-15 1.2246 6.49698)
(1.00801e-15 1.3344 6.45573)
(8.37563e-16 1.44011 6.41447)
(7.46136e-16 1.55794 6.34907)
(7.23746e-16 1.67635 6.26721)
(7.63854e-16 1.80103 6.16133)
(8.53699e-16 1.92734 6.02994)
(9.66545e-16 2.05266 5.87219)
(1.04544e-15 2.16767 5.69422)
(9.73494e-16 2.25695 5.51646)
(5.42041e-16 2.29511 5.38337)
(-5.37332e-16 2.25127 5.36591)
(-2.49016e-15 2.10431 5.53393)
(-5.20262e-15 1.86727 5.88944)
(-8.10374e-15 1.59547 6.3221)
(-1.05305e-14 1.36165 6.68107)
(-1.21813e-14 1.20386 6.89173)
(-1.28739e-14 1.03684 6.89159)
(-1.18509e-14 0.600782 6.39775)
(-8.71042e-15 -0.172808 5.26191)
(-6.56727e-15 -0.770686 4.61041)
(-5.97398e-15 -1.10769 4.51134)
(-5.76567e-15 -1.37933 4.47672)
(-5.53207e-15 -1.67411 4.41392)
(-5.22525e-15 -1.98102 4.33468)
(-4.88268e-15 -2.28703 4.25093)
(-4.52859e-15 -2.58353 4.16552)
(-4.1689e-15 -2.86513 4.07661)
(-3.80469e-15 -3.12876 3.98363)
(-3.43673e-15 -3.37156 3.88719)
(-3.06602e-15 -3.59093 3.78723)
(-2.69555e-15 -3.78558 3.68445)
(-2.3277e-15 -3.9549 3.57955)
(-1.96327e-15 -4.09913 3.47268)
(-1.60253e-15 -4.21848 3.36387)
(-1.2454e-15 -4.31377 3.25322)
(-8.9078e-16 -4.38579 3.14071)
(-5.35697e-16 -4.43502 3.02584)
(-1.76196e-16 -4.46109 2.90801)
(1.90884e-16 -4.46451 2.78736)
(5.68176e-16 -4.44747 2.66465)
(9.5969e-16 -4.41164 2.53962)
(1.36863e-15 -4.35546 2.41097)
(1.79205e-15 -4.27677 2.27818)
(2.21922e-15 -4.1773 2.14225)
(2.63387e-15 -4.06187 2.00415)
(3.01572e-15 -3.93245 1.86347)
(3.33952e-15 -3.786 1.71899)
(3.57618e-15 -3.61726 1.56984)
(3.69828e-15 -3.42209 1.41573)
(3.68736e-15 -3.19806 1.25627)
(3.53704e-15 -2.94576 1.09169)
(3.25821e-15 -2.66161 0.919544)
(2.87889e-15 -2.34006 0.735716)
(2.43739e-15 -2.01534 0.540786)
(1.9654e-15 -1.73294 0.325254)
(1.48032e-15 -1.48955 0.0933929)
(1.00701e-15 -1.02996 -0.147301)
(5.93521e-16 -0.574483 -0.350728)
(3.08767e-16 -0.285217 -0.534136)
(1.55033e-16 -0.125547 -0.6823)
(7.58124e-17 -0.0894688 -0.759481)
(2.77613e-17 -0.152994 -0.770068)
(-1.03562e-18 -0.296175 -0.714068)
(-1.14151e-17 -0.464515 -0.660402)
(-1.24485e-17 -0.57967 -0.661218)
(-1.12018e-17 -0.611732 -0.695561)
(-9.42921e-18 -0.582212 -0.730375)
(-7.25096e-18 -0.515349 -0.750877)
(-4.98221e-18 -0.431324 -0.760218)
(-3.24111e-18 -0.32362 -0.78)
(-2.307e-18 -0.233597 -0.809818)
(-3.17419e-18 -0.00845654 -0.998323)
(-2.56369e-18 0.439405 -0.932708)
(-3.29203e-18 0.818876 -1.05119)
(1.04004e-17 1.92677 -0.0142838)
(-1.98096e-16 2.55895 0.820617)
(-5.13482e-16 2.22685 0.261838)
(1.38296e-15 1.09935 6.5153)
(9.60756e-16 1.23452 6.48687)
(8.39785e-16 1.34553 6.4435)
(7.3548e-16 1.45293 6.38793)
(7.10555e-16 1.57415 6.31085)
(7.46964e-16 1.69624 6.21355)
(8.37158e-16 1.82568 6.09101)
(9.64267e-16 1.95686 5.9419)
(1.09211e-15 2.08624 5.76821)
(1.14106e-15 2.20192 5.58171)
(9.50508e-16 2.28417 5.41419)
(2.52157e-16 2.30233 5.32667)
(-1.26979e-15 2.22412 5.40225)
(-3.73876e-15 2.03855 5.69476)
(-6.78262e-15 1.77976 6.14936)
(-9.61483e-15 1.51707 6.59877)
(-1.16169e-14 1.31358 6.89231)
(-1.27197e-14 1.19133 7.0086)
(-1.30518e-14 1.08286 6.96896)
(-1.22122e-14 0.757165 6.57235)
(-9.46905e-15 0.0305108 5.49216)
(-6.73548e-15 -0.675252 4.55815)
(-5.77841e-15 -1.09203 4.35847)
(-5.48891e-15 -1.37438 4.33204)
(-5.31115e-15 -1.66515 4.30181)
(-5.0725e-15 -1.96925 4.24974)
(-4.76925e-15 -2.27442 4.18413)
(-4.43403e-15 -2.5703 4.11308)
(-4.08647e-15 -2.85094 4.03717)
(-3.73242e-15 -3.11349 3.95548)
(-3.37294e-15 -3.35518 3.86822)
(-3.00928e-15 -3.57349 3.7756)
(-2.64473e-15 -3.76722 3.67866)
(-2.28182e-15 -3.9357 3.57832)
(-1.92155e-15 -4.0791 3.47491)
(-1.56432e-15 -4.19766 3.36864)
(-1.21016e-15 -4.29217 3.25979)
(-8.57876e-16 -4.36336 3.14845)
(-5.04504e-16 -4.41168 3.0342)
(-1.46236e-16 -4.43679 2.91659)
(2.19932e-16 -4.43938 2.79592)
(5.96682e-16 -4.42156 2.67298)
(9.88014e-16 -4.38481 2.54745)
(1.39676e-15 -4.32753 2.41811)
(1.81947e-15 -4.2478 2.28451)
(2.24509e-15 -4.14751 2.14779)
(2.6572e-15 -4.03132 2.00891)
(3.03538e-15 -3.90098 1.86739)
(3.35428e-15 -3.75338 1.722)
(3.58502e-15 -3.58335 1.57183)
(3.70074e-15 -3.3868 1.41651)
(3.68368e-15 -3.16134 1.25555)
(3.52829e-15 -2.9073 1.08881)
(3.24628e-15 -2.62063 0.913141)
(2.86617e-15 -2.29602 0.723326)
(2.42632e-15 -1.96739 0.518506)
(1.95838e-15 -1.67988 0.284584)
(1.48013e-15 -1.43393 0.0265202)
(1.01744e-15 -0.97833 -0.242741)
(6.19262e-16 -0.528915 -0.473284)
(3.46365e-16 -0.245209 -0.683971)
(1.95453e-16 -0.0990614 -0.861916)
(1.11478e-16 -0.077694 -0.966965)
(5.42278e-17 -0.156698 -0.994532)
(1.47354e-17 -0.309283 -0.941303)
(-4.21768e-18 -0.473401 -0.876847)
(-9.86974e-18 -0.579729 -0.863642)
(-1.09561e-17 -0.607742 -0.885751)
(-1.06352e-17 -0.579463 -0.908079)
(-9.31336e-18 -0.515279 -0.911959)
(-7.27984e-18 -0.431279 -0.899089)
(-5.35162e-18 -0.319792 -0.902065)
(-4.16253e-18 -0.213505 -0.916714)
(-4.72376e-18 0.0101119 -1.09688)
(-3.41706e-18 0.440401 -1.02139)
(-5.14323e-18 0.738531 -1.13407)
(1.83595e-17 1.7401 -0.175942)
(-1.83313e-16 2.51832 0.831366)
(-5.80645e-16 2.34853 0.385862)
(1.12594e-15 1.10022 6.51885)
(7.89331e-16 1.23994 6.46948)
(7.34745e-16 1.3556 6.41955)
(6.93092e-16 1.46677 6.34715)
(7.26539e-16 1.59303 6.25538)
(8.1269e-16 1.72003 6.13995)
(9.43373e-16 1.85501 5.99881)
(1.09643e-15 1.99132 5.83127)
(1.22156e-15 2.12398 5.64355)
(1.20655e-15 2.23757 5.45565)
(8.33892e-16 2.30692 5.31432)
(-2.25061e-16 2.29637 5.29848)
(-2.26747e-15 2.17652 5.494)
(-5.21577e-15 1.95393 5.91473)
(-8.39416e-15 1.68597 6.43369)
(-1.09148e-14 1.44723 6.84874)
(-1.23547e-14 1.28101 7.04459)
(-1.28837e-14 1.19026 7.05563)
(-1.28167e-14 1.12394 6.95928)
(-1.20566e-14 0.892796 6.6394)
(-9.93789e-15 0.248003 5.71095)
(-7.09418e-15 -0.544284 4.5717)
(-5.75729e-15 -1.06107 4.22463)
(-5.26592e-15 -1.36927 4.17613)
(-5.06654e-15 -1.65906 4.16647)
(-4.88465e-15 -1.9591 4.14477)
(-4.63548e-15 -2.26174 4.10341)
(-4.33093e-15 -2.55624 4.05028)
(-3.99926e-15 -2.83572 3.98941)
(-3.65581e-15 -3.09704 3.92103)
(-3.30529e-15 -3.33749 3.84512)
(-2.94953e-15 -3.55472 3.7618)
(-2.5916e-15 -3.74758 3.67226)
(-2.23412e-15 -3.91533 3.5777)
(-1.87835e-15 -4.05808 3.47869)
(-1.52493e-15 -4.17604 3.37571)
(-1.17393e-15 -4.27 3.26921)
(-8.24137e-16 -4.34062 3.15942)
(-4.72598e-16 -4.38829 3.04604)
(-1.15674e-16 -4.41275 2.92882)
(2.49491e-16 -4.4148 2.80821)
(6.25628e-16 -4.39649 2.68505)
(1.0167e-15 -4.35909 2.55899)
(1.42514e-15 -4.30099 2.42884)
(1.847e-15 -4.22052 2.29434)
(2.27093e-15 -4.11972 2.15669)
(2.68036e-15 -4.00305 2.01685)
(3.05474e-15 -3.87205 1.87431)
(3.36868e-15 -3.72357 1.72779)
(3.59348e-15 -3.55254 1.57639)
(3.70289e-15 -3.35487 1.41961)
(3.67983e-15 -3.12822 1.25688)
(3.51959e-15 -2.87259 1.08759)
(3.23466e-15 -2.58342 0.907861)
(2.85407e-15 -2.25549 0.711222)
(2.41623e-15 -1.92197 0.495054)
(1.95291e-15 -1.62752 0.24017)
(1.48245e-15 -1.37732 -0.047859)
(1.03221e-15 -0.925342 -0.350365)
(6.51862e-16 -0.482172 -0.614323)
(3.93412e-16 -0.203518 -0.858362)
(2.47195e-16 -0.0693989 -1.06927)
(1.59066e-16 -0.0618304 -1.20563)
(9.22823e-17 -0.156681 -1.25855)