/*--------------------------------*- C++ -*----------------------------------*\
| =========                 |                                                 |
| \\      /  F ield         | OpenFOAM: The Open Source CFD Toolbox           |
|  \\    /   O peration     | Version:  4.1                                   |
|   \\  /    A nd           | Web:      www.OpenFOAM.org                      |
|    \\/     M anipulation  |                                                 |
\*---------------------------------------------------------------------------*/
FoamFile
{
    version     2.0;
    format      ascii;
    class       surfaceScalarField;
    location    "4";
    object      phi;
}
// * * * * * * * * * * * * * * * * * * * * * * * * * * * * * * * * * * * * * //

dimensions      [0 3 -1 0 0 0 0];

internalField   nonuniform List<scalar> 
13220
(
-906.855
2206.75
-1504.52
1897.86
-1984.84
1780.22
-2354.69
1669.74
-2630.15
1575.66
-2818.69
1488.44
-2923.58
1404.79
-2944.65
1321.26
-2880.56
1235.81
-2728.18
1147.52
-2482.85
1054.87
-2127.86
944.911
-1627.27
799.306
-956.266
629.19
343.634
423.341
1783.4
466.145
1855.04
449.669
1796.68
409.71
1709.68
377.013
1608.34
350.868
1514.57
331.56
1424.08
319.785
1333.02
312.377
1243.2
303.209
1156.68
284.026
1074.04
241.019
987.9
164.704
875.601
87.771
706.101
431.404
183.379
1600.01
22.4234
2015.99
-140.108
1959.2
-259.669
1829.23
-364.123
1712.78
-461.321
1611.76
-548.636
1511.38
-626.335
1410.71
-692.541
1309.39
-744.686
1208.8
-778.403
1107.74
-775.211
984.677
-685.111
785.46
-433.841
454.782
-2.43687
215.727
1384.27
134.874
2096.83
0.833218
2093.23
-93.3769
1923.43
-168.362
1787.75
-227.728
1671.11
-266.847
1550.49
-285.841
1429.69
-287.093
1310.63
-271.269
1192.97
-236.932
1073.39
-179.194
926.927
-96.6552
702.902
-6.85136
364.954
-9.28865
276.873
1107.39
343.264
2030.43
322.911
2113.58
305.432
1940.9
297.897
1795.28
295.5
1673.5
296.65
1549.33
301.616
1424.71
308.749
1303.49
315.798
1185.91
322.248
1066.94
322.849
926.303
298.612
727.114
217.439
446.098
208.151
250.617
856.768
365.085
1915.96
378.757
2099.9
359.989
1959.66
343.695
1811.57
331.076
1686.11
318.062
1562.34
302.131
1440.64
284.214
1321.4
264.604
1205.52
242.112
1089.43
215.207
953.226
174.214
768.125
107.404
512.927
315.555
140.916
715.845
228.569
1828.3
251.94
2076.52
225.335
1986.26
197.561
1839.34
174.597
1709.07
153.472
1583.46
133.062
1461.05
113.571
1340.89
96.9492
1222.13
83.1437
1103.24
71.7794
964.555
59.1275
780.745
43.3104
528.713
358.865
43.3861
672.459
94.6563
1777.03
131.251
2039.93
116.953
2000.56
99.1783
1857.12
86.748
1721.51
75.0241
1595.19
64.4261
1471.65
55.7586
1349.56
48.3253
1229.58
42.5479
1109.02
40.1703
966.979
36.4615
784.499
29.9274
535.29
388.793
14.9983
657.465
54.6672
1737.36
98.0495
1996.55
98.099
2000.51
90.3623
1864.85
85.2204
1726.65
80.4141
1600
74.494
1477.57
68.7696
1355.29
62.8376
1235.51
55.5963
1116.26
51.2256
971.317
45.9815
789.715
32.731
548.515
421.524
36.5331
620.945
87.9096
1686
130.441
1954.03
135.388
1995.57
128.538
1871.71
120.112
1735.09
111.436
1608.68
102.407
1486.61
91.9446
1365.76
80.744
1246.73
68.764
1128.25
59.7329
980.398
51.1084
798.388
33.7247
565.944
455.249
68.3922
552.571
138.751
1615.65
179.819
1912.98
185.052
1990.35
173.643
1883.14
159.955
1748.79
144.958
1623.7
129.805
1501.78
114.194
1381.39
97.2382
1263.7
80.3166
1145.19
68.1411
992.585
56.2479
810.3
34.4147
587.796
489.664
86.4824
466.107
173.053
1529.09
210.207
1875.83
211.582
1988.99
189.391
1905.34
163.948
1774.25
141.536
1646.12
120.868
1522.46
102.06
1400.21
84.8519
1280.92
67.9246
1162.13
55.6316
1004.91
44.476
821.484
24.8943
607.404
514.558
96.5264
369.593
202.459
1423.17
254.313
1823.99
269.869
1973.44
265.46
1909.76
252.072
1787.64
233.931
1664.27
211.741
1544.66
185.159
1426.8
157.038
1309.05
130.389
1188.78
107.258
1028.05
82.1768
846.583
39.79
649.808
554.348
29.2258
340.375
79.9058
1372.49
103.674
1800.22
81.2683
1995.85
30.7092
1960.32
-21.7133
1840.06
-57.3956
1699.96
-74.9435
1562.21
-78.3822
1430.25
-74.8958
1305.57
-65.1096
1179
-53.8417
1016.78
-40.496
833.228
-30.2301
639.533
524.118
-187.52
191.673
610.989
989.982
1179.33
1240.22
1165.9
1036.08
864.996
697.456
526.877
367.234
211.322
77.1601
-0.00118713
360.247
-360.25
360.245
360.243
360.242
554.767
-194.527
554.765
554.764
554.762
652.506
-97.7451
652.504
652.502
700.908
-48.4073
700.906
700.905
700.903
707.653
-6.75194
707.651
707.65
695.604
12.0447
695.602
695.6
695.599
647.029
48.5683
647.027
647.026
647.025
571.126
75.8967
571.124
571.123
486.095
85.0263
486.093
486.092
486.09
418.155
67.933
418.153
418.151
357.603
60.546
357.602
357.6
357.598
311.342
46.2541
311.34
311.338
311.337
272.125
39.2096
272.123
272.121
248.67
23.4494
248.667
248.666
248.663
286.208
-37.5465
286.205
286.204
286.201
333.323
-47.1234
333.32
333.319
311.34
21.9754
311.339
311.336
311.335
170.425
140.906
170.423
170.42
-238.275
408.694
-238.279
-238.28
-238.284
-1140.4
902.118
-1140.41
-1140.4
-1140.41
-2526.88
1386.48
-2526.89
-2526.88
-4333.61
1806.73
-4333.6
-4333.61
-4233.16
-4121.2
-4005.59
-6118.95
2229.16
-5997.96
-5866.42
-5723.44
-5579.37
-5435.21
-5288.09
-5124.85
-4943.62
-7404.35
2642.79
-7210.15
-7021.53
-6833.49
-6619.06
-6402.63
-6184.24
-5959.59
-5731.73
-8426.77
2933.13
-8172.59
-7918.56
-7664.25
-7409.56
-7148.35
-6875.75
-6601.08
-6320.7
-6037.78
-8775.2
3011.28
-8477.02
-8177.37
-7876.34
-7575.56
-7275.62
-6961.93
-6637.25
-6311.04
-8751.03
2750.51
-8438.74
-8119.74
-7786.97
-7452.61
-7118.54
-6786.82
-6455.07
-6105.86
-7959.92
2186.85
-7628.68
-7299.71
-6973.36
-6637.47
-6297.89
-5960.93
-5627.54
-5300.03
-6327.53
1343.13
-6019.66
-5713.4
-5410.8
-5112.47
-4819.9
-4548.16
-4280.14
-4020.12
-3766.71
-3897.54
383.034
-3688.42
-3494.81
-3309.74
-3126.59
-2941.74
-2783.07
-2688.99
-2589.67
-2345.19
-135.261
-2262.41
-2169.79
-2169.79
-2040.94
-128.847
-1875.09
-165.852
-1875.09
-1714.11
-160.981
-1714.11
-1561.35
-152.769
-1406.97
-154.381
-1406.97
-1257.25
-149.715
-1107.65
-149.602
-1107.65
-965.411
-142.244
-965.412
-843.229
-122.184
-722.315
-120.916
-722.315
-612.939
-109.378
-612.939
-500.382
-112.559
-355.967
-144.414
-355.969
-204.079
-151.888
-81.2057
-122.876
-81.2046
19.3116
-100.518
19.3131
172.521
-153.21
304.894
-132.371
304.893
406.606
-101.71
406.605
517.679
-111.071
614.325
-96.6476
614.328
723.974
-109.646
829.23
-105.253
829.231
909.447
-80.2126
909.447
998.065
-88.6142
1078.96
-80.9002
1078.97
1139.23
-60.2667
1139.24
1200.15
-60.9135
1251.02
-50.8653
1251.02
1316.29
-65.2654
1380.87
-64.5892
1380.88
1440.43
-59.5532
1440.43
1504.6
-64.1645
1560.05
-55.4547
1560.05
1609.94
-49.8855
1609.94
1661.89
-51.9434
1696.18
-34.293
1696.18
1739.3
-43.1236
1773.8
-34.4949
1773.8
1813.02
-39.216
1813.02
1865.71
-52.689
1916.22
-50.5092
1916.22
1985.42
-69.1971
1985.42
2091.98
-106.561
2234.86
-142.88
2234.86
2449.68
-214.82
2614.76
-165.076
2614.76
2766.73
-151.969
2766.73
-97.2862
-529.58
-80.3526
-527.838
-95.2724
-525.003
-92.1396
-523.46
-95.1902
-521.592
-90.7603
-519.619
-82.388
-517.615
-69.4664
-516.947
-57.6248
-516.457
-48.7872
-516.426
-43.9417
-515.71
-35.1671
-515.31
-21.0889
-515.706
-3.39172
-516.118
6.58952
-518.692
25.0154
-521.794
58.4072
-527.806
66.146
-532.783
70.1493
-540.825
115.468
-554.16
144.437
-571.905
180.011
-596.218
231.925
-626.828
287.841
-660.989
358.743
-696.422
439.556
-729.633
532.171
-757.699
629.148
-780.346
731.221
-800.869
851.4
-824.844
1002.19
-857.95
1194.71
-904.236
1429.88
-963.874
1711.63
-1032.42
2039.4
-1103.18
2408.88
-1171.68
2815.45
-1236.44
3261.14
-1299.23
3752.89
-1365.13
4276.34
-1442.53
4804.41
-1536.68
5285.76
-1549.52
5373.82
-1073.47
3946.68
-45.5573
53.2529
800.821
-1534.94
681.434
-1852.01
-93.3613
-710.129
-605.286
1177.42
-666.728
2947.85
-760.928
3769.68
-892.091
3960.32
-1053.03
4145.28
-1243.3
4744.14
-1474.33
5709.84
-1795.37
6956.64
-2240.38
8343.33
-2710.59
9479.65
-2980.2
9704.71
-2845.53
8169.73
-2374.15
4198.41
-2209.73
-723.517
-2269.12
-2125.49
-2278.53
-4174.62
-2271.83
-6323.63
-2206.66
-8170.34
-1957.04
-9184.59
-1293.7
-7928.44
-367.658
-2545.48
15.6443
3284.78
-10.0797
3092.77
126.024
4135.17
176.913
4235.81
253.009
4868.29
279.334
4427.21
187.821
2224.64
108.424
406.598
60.9309
-1499.22
23.1257
-3158.1
-913.511
-555.35
-76.3209
-553.115
-97.5069
-549.348
-95.9075
-546.162
-98.3758
-543.49
-93.4328
-541.151
-84.7269
-538.119
-72.4983
-536.915
-58.8294
-535.66
-50.0423
-535.332
-44.2697
-534.256
-36.2437
-534.486
-20.8589
-536.808
-1.07048
-539.248
9.02956
-543.985
29.7518
-546.174
60.5952
-552.581
72.5528
-563.343
80.9105
-574.528
126.652
-590.38
160.29
-611.409
201.038
-635.235
255.751
-664.076
316.682
-693.998
388.665
-722.892
468.449
-748.265
557.543
-769.341
650.223
-788.931
750.811
-811.218
873.686
-840.316
1031.29
-878.613
1233.01
-928.295
1479.57
-988.441
1771.77
-1054.84
2105.8
-1122.97
2477
-1190.47
2882.94
-1257.28
3327.96
-1324.97
3820.58
-1397.4
4348.78
-1479.23
4886.24
-1547.35
5353.87
-1403.91
5230.39
-496.634
3039.4
409.202
-852.584
852.366
-1978.1
490.945
-1490.59
-191.947
-27.2379
-601.224
1586.7
-710.172
3056.8
-773.034
3832.54
-884.781
4072.06
-1053.48
4313.98
-1267.75
4958.41
-1538.28
5980.38
-1901.09
7319.45
-2359.8
8802.04
-2802.86
9922.72
-2985.09
9886.94
-2679.32
7863.95
-2132.05
3651.14
-2221.31
-634.252
-2282.43
-2064.37
-2286.92
-4170.14
-2298.03
-6312.51
-2260.82
-8207.55
-2065.67
-9379.74
-1473.75
-8520.36
-480.267
-3538.97
22.7937
2781.72
-47.8003
3163.36
85.3591
4002.01
199.03
4122.14
319.527
4747.79
359.578
4387.16
247.694
2336.53
136.178
518.118
57.1163
-1420.15
-71.3596
-3029.62
-1136.83
-579.535
-72.4278
-577.58
-99.4621
-574.403
-99.0847
-571.658
-101.12
-569.613
-95.4776
-567.781
-86.5588
-565.119
-75.1595
-563.845
-60.1039
-562.78
-51.1066
-562.574
-44.4758
-562
-36.8175
-562.824
-20.0339
-566.264
2.37017
-570.445
13.2109
-575.773
35.0804
-579.736
64.5583
-589.704
82.5204
-602.259
93.4658
-615.778
140.171
-634.009
178.521
-655.332
222.361
-678.546
278.965
-703.993
342.128
-728.659
413.331
-750.918
490.708
-769.72
576.344
-786.308
666.811
-804.808
769.311
-829.201
898.078
-862.526
1064.62
-905.547
1276.03
-958.532
1532.55
-1019.13
1832.37
-1083.38
2170.05
-1148.19
2541.81
-1212.91
2947.67
-1278.79
3393.84
-1348.45
3890.23
-1428.01
4428.33
-1518.49
4976.72
-1558.05
5393.44
-1260.65
4932.99
-196.612
1975.36
663.021
-1712.22
819.957
-2135.04
317.105
-987.74
-232.228
522.096
-611.261
1965.73
-726.267
3171.8
-794.431
3900.7
-904.107
4181.74
-1073.97
4483.84
-1298.87
5183.32
-1596.46
6277.96
-1997.33
7720.31
-2475.11
9279.83
-2878.28
10325.9
-2943.9
9952.56
-2524.85
7444.9
-2066.29
3192.58
-2233.47
-467.07
-2276.65
-2021.2
-2286.9
-4159.89
-2305.69
-6293.73
-2284.17
-8229.06
-2124.58
-9539.33
-1594.37
-9050.57
-515.491
-4617.84
118.137
2148.09
-66.1364
3347.64
60.0085
3875.87
187.979
3994.17
319.884
4615.89
369.809
4337.24
272.276
2434.06
161.555
628.839
55.4302
-1314.03
-112.855
-2861.34
-1414.76
-605.903
-69.9737
-604.172
-101.194
-601.973
-101.284
-600.35
-102.744
-599.212
-96.6151
-598.216
-87.555
-596.719
-76.6567
-595.68
-61.1433
-595.461
-51.3258
-595.786
-44.1513
-596.388
-36.2153
-598.231
-18.1911
-602.065
6.2033
-607.547
18.693
-613.152
40.6845
-618.912
70.3179
-630.299
93.9064
-643.79
106.956
-658.079
154.46
-676.154
196.596
-696.171
242.378
-716.996
299.79
-737.89
363.021
-757.276
432.716
-774.111
507.543
-788.694
590.926
-803.487
681.604
-823.17
788.994
-850.898
925.805
-888.546
1102.27
-935.549
1323.03
-990.628
1587.63
-1050.65
1892.4
-1112.25
2231.64
-1173.66
2603.22
-1235.58
3009.59
-1300.87
3459.13
-1373.98
3963.34
-1462.66
4517.01
-1556.63
5070.68
-1536.98
5373.79
-1072.95
4468.97
-5.98623
908.391
701.559
-2419.76
716.188
-2149.67
189.902
-461.455
-300.619
1012.62
-626.966
2292.08
-740.869
3285.71
-814.621
3974.45
-925.679
4292.8
-1098.26
4656.42
-1335.39
5420.45
-1661.89
6604.47
-2098.31
8156.73
-2582.86
9764.37
-2924.01
10667
-2865.4
9893.96
-2386.25
6965.75
-2052.9
2859.24
-2237.23
-282.737
-2266.2
-1992.22
-2283.77
-4142.32
-2309.08
-6268.41
-2303.93
-8234.21
-2182.8
-9660.46
-1732.85
-9500.52
-666.559
-5684.14
87.1432
1394.39
-76.9941
3511.78
37.5425
3761.33
174.411
3857.3
314.088
4476.21
373.522
4277.8
290.034
2517.55
182.349
736.528
65.4433
-1197.12
-175.672
-2620.22
-1805.25
-633.268
-70.6081
-631.639
-102.822
-630.523
-102.4
-630.176
-103.091
-630.121
-96.6698
-630.135
-87.5406
-630.071
-76.7211
-629.549
-61.6646
-630.076
-50.7987
-631.185
-43.0421
-633.196
-34.2038
-636.346
-15.0409
-640.356
10.2141
-646.556
24.893
-652.452
46.5809
-659.426
77.2922
-670.927
105.409
-684.489
120.518
-698.087
168.059
-714.496
213.004
-731.917
259.799
-749.303
317.176
-765.605
379.322
-780.45
447.562
-793.588
520.68
-806.243
603.582
-821.707
697.067
-844.141
811.428
-875.849
957.512
-917.38
1143.8
-967.278
1372.93
-1023.15
1643.5
-1081.75
1951
-1140.47
2290.35
-1198.67
2661.43
-1258.26
3069.18
-1323.93
3524.81
-1402.66
4042.07
-1500.86
4615.22
-1586.1
5155.92
-1475.35
5263.04
-805.413
3799.03
261.018
-158.041
724.985
-2883.73
578.048
-2002.73
58.3549
58.2389
-373.695
1444.67
-644.052
2562.43
-754.604
3396.26
-833.584
4053.43
-947.284
4406.5
-1124.15
4833.29
-1376.34
5672.64
-1733.68
6961.81
-2200.39
8623.44
-2675.66
10239.6
-2935.86
10927.2
-2761.99
9720.09
-2275.95
6479.71
-2060.96
2644.25
-2230.05
-113.643
-2251.95
-1970.33
-2275.94
-4118.33
-2305.8
-6238.56
-2313.96
-8226.05
-2226.37
-9748.06
-1855.71
-9871.18
-922.927
-6616.92
-64.0886
535.55
-79.384
3527.07
17.672
3664.28
159.658
3715.32
305.183
4330.69
373.639
4209.35
305.068
2586.13
199.796
841.8
83.0654
-1080.39
-128.29
-2408.87
-2076.41
-660.571
-74.0895
-659.252
-104.141
-659.192
-102.46
-660.056
-102.227
-661.086
-95.6396
-662.191
-86.4356
-663.439
-75.4738
-663.723
-61.381
-664.718
-49.8033
-666.577
-41.1835
-669.85
-30.9314
-674.038
-10.8533
-678.045
14.2208
-684.395
31.2432
-690.537
52.7218
-698.041
84.7958
-708.842
116.209
-721.661
133.336
-733.817
180.215
-747.821
227.008
-762.193
274.17
-776.08
331.062
-788.599
391.84
-800.17
459.133
-811.578
532.088
-824.303
616.305
-842.117
714.881
-868.151
837.461
-903.862
993.223
-948.533
1188.47
-1000.09
1424.48
-1055.57
1698.99
-1112.04
2007.47
-1167.76
2346.07
-1223.04
2716.7
-1281.02
3127.16
-1348.51
3592.31
-1435.06
4128.61
-1540.61
4720.77
-1598.78
5214.09
-1357.65
5021.9
-388.084
2829.46
613.146
-1159.27
713.663
-2984.25
386.785
-1675.85
-103.012
548.036
-443.389
1785.04
-661.275
2780.32
-767.985
3502.97
-851.569
4137.02
-968.487
4523.42
-1151.55
5016.36
-1421.97
5943.05
-1810.93
7350.77
-2299.93
9112.45
-2748.41
10688.1
-2915.14
11094
-2647.18
9452.13
-2196.27
6028.8
-2076.82
2524.79
-2216.63
26.1676
-2235.83
-1951.12
-2264.18
-4089.99
-2297.32
-6205.42
-2316.54
-8206.83
-2256.99
-9807.6
-1948.15
-10180
-1112.22
-7452.85
-141.452
-435.222
-54.2182
3439.84
3.98696
3606.07
144.397
3574.91
293.78
4181.3
370.447
4132.68
317.544
2639.03
215.26
944.086
104.716
-969.84
-56.1404
-2248.01
-2239.11
-687.166
-79.2416
-686.297
-105.01
-687.131
-101.626
-688.997
-100.361
-691
-93.6363
-693.16
-84.275
-695.478
-73.1559
-696.712
-60.1472
-698.157
-48.3574
-700.644
-38.6967
-704.856
-26.7188
-709.711
-5.99762
-713.618
18.1283
-719.624
37.2497
-725.824
58.9224
-733.185
92.1566
-742.719
125.744
-754.343
144.96
-764.736
190.608
-776.229
238.501
-787.736
285.678
-798.688
342.014
-808.641
401.794
-818.469
468.961
-829.842
543.46
-844.35
630.814
-865.507
736.038
-895.41
867.365
-934.6
1032.41
-981.439
1235.31
-1033.42
1476.46
-1087.54
1753.11
-1141.39
2061.32
-1194.11
2398.79
-1246.85
2769.44
-1304.19
3184.5
-1375.4
3663.51
-1471.32
4224.53
-1579.79
4829.24
-1593.17
5227.47
-1211.57
4640.31
-141.081
1758.97
699.507
-1999.86
619.238
-2903.98
201.544
-1258.16
-220.705
970.286
-502.412
2066.75
-678.256
2956.16
-781.391
3606.1
-868.714
4224.34
-989.265
4643.97
-1180.68
5207.78
-1472.56
6234.92
-1892.43
7770.64
-2393.39
9613.41
-2798.06
11092.8
-2866.45
11162.4
-2532.35
9118.03
-2143.12
5639.57
-2092.58
2474.25
-2199.42
133.004
-2218.09
-1932.45
-2248.59
-4059.48
-2283.9
-6170.11
-2312.11
-8178.62
-2277.36
-9842.35
-2023.09
-10434.3
-1267.56
-8208.38
-216.689
-1486.09
-33.8781
3257.03
-6.56049
3578.75
129.566
3438.78
280.226
4030.64
364.352
4048.55
327.185
2676.2
230.172
1041.1
127.923
-867.592
-21.1048
-2098.98
-2329.41
-712.874
-85.2559
-712.485
-105.399
-714.039
-100.072
-716.631
-97.7687
-719.434
-90.8337
-722.467
-81.2421
-725.572
-70.0506
-727.666
-58.0543
-729.618
-46.405
-732.612
-35.7028
-737.337
-21.9943
-742.471
-0.863688
-746.331
21.9879
-751.747
42.6655
-757.842
65.017
-764.634
98.9481
-772.571
133.681
-782.808
155.196
-791.512
199.312
-800.724
247.713
-809.958
294.911
-818.88
350.936
-827.532
410.445
-837.176
478.604
-849.911
556.195
-867.336
648.238
-892.249
760.95
-925.786
900.901
-967.576
1074.2
-1015.48
1283.21
-1066.81
1527.78
-1118.85
1805.16
-1169.81
2112.28
-1219.65
2448.64
-1270.49
2820.28
-1328.48
3242.49
-1405.27
3740.3
-1510.39
4329.66
-1612.38
4931.23
-1554.61
5169.7
-1020.65
4106.35
29.7841
708.53
636.049
-2606.13
448.303
-2716.23
42.8807
-852.735
-309.974
1323.14
-550.212
2306.99
-694.947
3100.9
-794.999
3706.16
-885.05
4314.39
-1009.71
4768.63
-1211.94
5410
-1528.28
6551.26
-1976.59
8218.95
-2477.29
10114.1
-2823.12
11438.6
-2795.9
11135.1
-2425.64
8747.78
-2110.05
5323.97
-2103.54
2467.74
-2179.6
209.071
-2198.65
-1913.4
-2229.57
-4028.57
-2266.04
-6133.63
-2301.06
-8143.6
-2287.73
-9855.68
-2084.13
-10637.9
-1407.12
-8885.39
-279.293
-2613.92
9.51613
2968.22
-18.5644
3606.84
114.8
3305.42
265.104
3880.34
356.033
3957.63
333.687
2698.54
245.377
1129.41
152.028
-774.237
5.48729
-1952.44
-2374.43
-737.651
-91.7812
-737.754
-105.296
-739.893
-97.9324
-742.998
-94.6637
-746.423
-87.4082
-750.077
-77.5885
-753.693
-66.4341
-756.44
-55.307
-758.898
-43.947
-762.286
-32.3141
-767.155
-17.1254
-772.201
4.18294
-776.053
25.8406
-780.857
47.4702
-786.69
70.8504
-792.761
105.019
-799.085
140.006
-807.912
164.023
-815.232
206.632
-822.631
255.112
-830.383
302.663
-838.346
358.899
-846.96
419.06
-857.765
489.409
-872.924
571.355
-893.771
669.085
-922.289
789.468
-958.788
937.4
-1002.15
1117.56
-1050.08
1331.15
-1099.91
1577.61
-1149.39
1854.64
-1197.36
2160.25
-1244.65
2495.92
-1294.44
2870.07
-1354.54
3302.59
-1438.23
3823.99
-1549.94
4441.37
-1631.3
5012.6
-1473.35
5011.74
-753.138
3386.14
257.94
-302.547
564.732
-2912.92
256.863
-2408.36
-111.087
-484.785
-394.735
1606.79
-590.407
2502.66
-711.329
3221.82
-808.708
3803.54
-900.485
4406.17
-1029.99
4898.14
-1245.94
5625.95
-1589.15
6894.47
-2061.37
8691.17
-2548.28
10601
-2823.54
11713.9
-2710.21
11021.8
-2331.83
8369.39
-2090.38
5082.52
-2107.2
2484.57
-2157.66
259.53
-2177.24
-1893.82
-2207.46
-3998.35
-2244.28
-6096.81
-2284.11
-8103.76
-2288.48
-9851.32
-2128.82
-10797.6
-1531.41
-9482.8
-378.728
-3766.6
34.8622
2554.63
-34.3355
3676.03
99.5607
3171.52
249.155
3730.75
345.988
3860.79
336.972
2707.56
258.828
1207.55
174.492
-689.901
28.5542
-1806.5
-2398.57
-761.459
-98.5022
-762.079
-104.676
-764.679
-95.3323
-768.169
-91.1747
-772.061
-83.5157
-776.104
-73.5458
-779.988
-62.55
-783.154
-52.1411
-786.031
-41.0702
-789.677
-28.6688
-794.452
-12.3501
-799.192
8.92229
-803.061
29.7099
-807.386
51.794
-812.814
76.2788
-818.128
110.332
-823.092
144.969
-830.632
171.563
-837.039
213.039
-843.312
261.385
-850.487
309.838
-858.571
366.983
-868.307
428.795
-881.258
502.359
-899.404
589.501
-923.664
693.344
-955.195
820.998
-993.717
975.922
-1037.64
1161.48
-1084.71
1378.22
-1132.48
1625.37
-1179.12
1901.29
-1224.18
2205.3
-1269.36
2541.1
-1319.13
2919.84
-1382.84
3366.29
-1473.71
3914.86
-1586.52
4554.18
-1629.58
5055.66
-1339.21
4721.36
-374.516
2421.45
544.656
-1221.72
486.933
-2855.19
69.2406
-1990.67
-252.045
-163.499
-468.936
1823.68
-624.527
2658.25
-727.266
3324.56
-822.166
3898.44
-914.957
4498.96
-1050.5
5033.68
-1283.52
5858.97
-1654.96
7265.91
-2144.21
9180.42
-2603.35
11060.1
-2800.71
11911.2
-2616.04
10837.1
-2252.74
8006.09
-2078.08
4907.86
-2102.89
2509.37
-2133.77
290.415
-2153.53
-1874.06
-2182.52
-3969.36
-2219.12
-6060.22
-2262.27
-8060.61
-2281.85
-9831.73
-2164.17
-10915.2
-1646.54
-10000.4
-513.571
-4899.58
23.1846
2017.88
-51.1795
3750.4
84.3644
3035.98
233.061
3582.05
334.598
3759.26
337.278
2704.88
268.62
1276.21
193.147
-614.422
49.6813
-1663.03
-2388.1
-784.327
-104.874
-785.478
-103.524
-788.421
-92.3893
-792.202
-87.3936
-796.406
-79.3117
-800.645
-69.3067
-804.618
-58.5768
-808.025
-48.7334
-811.229
-37.8667
-815.011
-24.8856
-819.582
-7.77912
-823.955
13.2953
-827.784
33.5394
-831.8
55.8105
-836.79
81.2698
-841.436
114.979
-845.461
148.994
-852.023
178.124
-858.089
219.105
-864.079
267.376
-871.589
317.349
-880.741
376.134
-892.464
440.519
-908.127
518.022
-929.312
610.686
-956.572
720.605
-990.303
854.73
-1029.84
1015.46
-1073.44
1205.08
-1118.99
1423.77
-1164.32
1670.7
-1208.05
1945.02
-1250.39
2247.65
-1294.07
2584.77
-1344.99
2970.77
-1413.64
3434.94
-1510.85
4012.07
-1617.45
4660.78
-1607.2
5045.41
-1182.71
4296.87
-185.947
1424.68
537.15
-1944.82
361.146
-2679.19
-111.709
-1517.82
-391.851
116.643
-531.872
1963.7
-653.369
2779.75
-742.671
3413.86
-834.892
3990.66
-928.522
4592.59
-1071.97
5177.13
-1325.51
6112.51
-1724.89
7665.29
-2222.08
9677.61
-2640.17
11478.2
-2757.36
12028.4
-2519.33
10599.1
-2187.87
7674.63
-2068.24
4788.24
-2091.03
2532.16
-2107.83
307.212
-2127.21
-1854.67
-2154.82
-3941.76
-2190.81
-6024.23
-2235.93
-8015.48
-2268.23
-9799.44
-2190.63
-10992.8
-1759.02
-10432
-682.193
-5976.4
-5.34942
1341.03
-73.3422
3818.39
69.0962
2893.54
217.261
3433.89
322.376
3654.14
335.01
2692.25
276.841
1334.38
209.736
-547.317
73.5755
-1526.87
-2349.02
-806.37
-110.136
-808.065
-101.828
-811.251
-89.2042
-815.231
-83.4136
-819.599
-74.9438
-823.883
-65.0225
-827.823
-54.6364
-831.351
-45.2059
-834.788
-34.4296
-838.629
-21.0447
-842.986
-3.42234
-847.05
17.3589
-850.775
37.2637
-854.646
59.6816
-859.294
85.917
-863.512
119.197
-867.121
152.602
-873.223
184.226
-879.532
225.414
-886.094
273.938
-894.724
325.978
-905.632
387.042
-919.8
454.686
-938.305
536.527
-962.209
634.589
-991.796
750.191
-1026.87
889.808
-1066.52
1055.1
-1109.09
1247.65
-1152.63
1467.31
-1195.33
1713.4
-1236.21
1985.9
-1276.19
2287.63
-1319.11
2627.69
-1372.39
3024.04
-1446.8
3509.35
-1547.73
4113.01
-1637.19
4750.24
-1551.64
4959.86
-988.819
3734.05
-61.1126
496.977
418.852
-2424.78
192.952
-2453.29
-231.051
-1093.81
-497.928
383.52
-582.419
2048.19
-677.778
2875.11
-757.43
3493.51
-846.509
4079.74
-941.441
4687.52
-1095.37
5331.06
-1372.48
6389.62
-1797.37
8090.19
-2291.69
10171.9
-2657.52
11844.1
-2697.28
12068.2
-2424.78
10326.6
-2135.12
7384.97
-2057.25
4710.37
-2072.5
2547.41
-2079.53
314.237
-2098.03
-1836.17
-2124.38
-3915.41
-2159.53
-5989.07
-2205.37
-7969.64
-2247.39
-9757.42
-2205.47
-11034.8
-1861.34
-10776.2
-941.779
-6895.96
-133.083
532.338
-92.2874
3777.6
52.9793
2748.28
202.269
3284.6
309.768
3546.65
330.73
2671.29
283.824
1381.29
223.786
-487.273
94.4803
-1397.56
-2297.67
-827.708
-113.495
-829.976
-99.5593
-833.334
-85.8459
-837.423
-79.3248
-841.835
-70.5322
-846.065
-60.7923
-849.922
-50.7788
-853.516
-41.6112
-857.12
-30.826
-860.986
-17.1781
-865.196
0.78846
-869.055
21.2183
-872.709
40.9181
-876.616
63.5892
-881.156
90.4569
-885.297
123.339
-889.042
156.347
-895.322
190.507
-902.407
232.499
-910.233
281.764
-920.549
336.294
-933.561
400.055
-950.239
471.365
-971.354
557.642
-997.434
660.67
-1028.58
781.333
-1064.2
925.433
-1103.22
1094.12
-1144.2
1288.63
-1185.42
1508.54
-1225.42
1753.4
-1263.68
2024.16
-1301.82
2325.76
-1344.89
2670.76
-1401.59
3080.74
-1481.69
3589.45
-1581.66
4212.99
-1639.77
4808.34
-1455.49
4775.58
-733.431
3011.99
108.02
-344.473
312.336
-2629.1
32.7542
-2173.71
-300.292
-760.768
-552.301
635.531
-621.432
2117.32
-698.566
2952.24
-771.313
3566.26
-856.905
4165.33
-954.244
4784.86
-1121.71
5498.53
-1424.44
6692.34
-1870.1
8535.85
-2350.05
10651.9
-2655.45
12149.5
-2624.75
12037.5
-2335.62
10037.5
-2091.63
7140.98
-2042.74
4661.47
-2048.12
2552.8
-2048.46
314.567
-2065.77
-1818.86
-2091.16
-3890.01
-2125.47
-5954.76
-2171
-7924.12
-2219.56
-9708.86
-2206.75
-11047.6
-1934.44
-11048.5
-1122.57
-7707.83
-228.891
-361.346
-108.891
3657.6
37.3202
2602.07
188.609
3133.31
297.054
3438.2
325.238
2643.1
287.088
1419.44
230.717
-430.902
114.247
-1281.1
-2217.71
-848.466
-114.359
-851.348
-96.6771
-854.866
-82.328
-859.017
-75.1741
-863.4
-66.1496
-867.541
-56.6513
-871.329
-46.9909
-874.981
-37.9587
-878.711
-27.0964
-882.657
-13.2324
-886.841
4.97189
-890.65
25.0271
-894.38
44.6481
-898.54
67.7492
-903.297
95.2134
-907.751
127.793
-912.155
160.751
-919.201
197.553
-927.485
240.783
-936.986
291.265
-949.275
348.582
-964.43
415.209
-983.382
490.316
-1006.64
580.903
-1034.27
688.297
-1066.21
813.272
-1101.69
960.909
-1139.53
1131.97
-1178.53
1327.63
-1217.26
1547.27
-1254.61
1790.75
-1290.61
2060.16
-1327.61
2362.76
-1371.85
2715.01
-1432.77
3141.66
-1517.27
3673.95
-1609.16
4304.87
-1618.84
4818.03
-1308.49
4465.23
-376.157
2079.65
348.43
-1069.06
227.564
-2508.23
-96.6742
-1849.47
-363.887
-493.555
-586.42
858.063
-651.712
2182.62
-716.302
3016.83
-784.029
3633.99
-866.244
4247.54
-967.663
4886.28
-1151.82
5682.69
-1480.68
7021.2
-1940.34
8995.51
-2394.81
11106.4
-2635.21
12389.9
-2544.02
11946.3
-2253.59
9747.04
-2054.4
6941.8
-2023.38
4630.45
-2018.51
2547.94
-2014.23
310.28
-2030.27
-1802.82
-2055.1
-3865.18
-2088.79
-5921.07
-2133.36
-7879.55
-2185.72
-9656.5
-2196.03
-11037.3
-1985.79
-11258.7
-1261.96
-8431.66
-304.297
-1319.01
-113.173
3466.47
25.3994
2463.49
176.464
2982.25
284.739
3329.93
319.006
2608.83
285.836
1452.61
222.61
-367.666
135.049
-1193.53
-2134.6
-868.852
-112.494
-872.37
-93.1582
-876.079
-78.6194
-880.323
-70.9295
-884.676
-61.7967
-888.75
-52.5773
-892.517
-43.2236
-896.258
-34.2178
-900.128
-23.2261
-904.269
-9.09053
-908.58
9.28343
-912.545
28.9926
-916.58
48.6836
-921.246
72.415
-926.554
100.522
-931.682
132.921
-937.177
166.247
-945.403
205.779
-955.134
250.515
-966.438
302.57
-980.708
362.852
-997.825
432.326
-1018.64
511.135
-1043.49
605.75
-1072.05
716.858
-1104.13
845.351
-1138.89
995.67
-1175.15
1168.23
-1211.9
1364.38
-1248.1
1583.46
-1282.99
1825.64
-1317.24
2094.41
-1354
2399.52
-1400.48
2761.49
-1466.03
3207.21
-1552.63
3760.55
-1628.61
4380.85
-1578
4767.42
-1148.37
4035.6
-225.857
1157.14
327.134
-1622.05
137.754
-2318.85
-197.021
-1514.7
-429.274
-261.301
-616.61
1045.4
-676.075
2242.08
-731.415
3072.18
-795.394
3697.97
-874.876
4327.02
-982.503
4993.91
-1186.09
5886.27
-1539.84
7374.95
-2005.34
9461.01
-2424.56
11525.6
-2598.93
12564.2
-2458.9
11806.3
-2179.16
9467.31
-2020.61
6783.25
-1998.57
4608.4
-1984.09
2533.46
-1976.53
302.722
-1991.39
-1787.96
-2016.1
-3840.47
-2049.54
-5887.64
-2092.89
-7836.2
-2146.85
-9602.54
-2175.06
-11009
-2019.03
-11414.7
-1375.25
-9075.44
-366.016
-2328.25
-96.893
3197.35
16.6243
2349.98
165.735
2833.14
273.35
3222.31
312.296
2569.89
283.065
1481.84
207.61
-292.213
152.06
-1137.98
-2032.43
-889.053
-108.039
-893.243
-88.9687
-897.191
-74.6707
-901.589
-66.5323
-905.975
-57.4108
-910.07
-48.482
-913.925
-39.3684
-917.845
-30.2982
-921.926
-19.1451
-926.389
-4.62786
-931.002
13.8967
-935.361
33.3508
-939.955
53.277
-945.366
77.826
-951.499
106.656
-957.586
139.007
-964.449
173.109
-974.06
215.39
-985.314
261.768
-998.349
315.604
-1014.4
378.899
-1033.17
451.098
-1055.39
533.361
-1081.25
631.61
-1110.2
745.802
-1141.89
877.037
-1175.48
1029.26
-1209.89
1202.65
-1244.25
1398.74
-1277.96
1617.17
-1310.74
1858.42
-1343.9
2127.57
-1381.45
2437.07
-1431.12
2811.16
-1500.99
3277.08
-1585.71
3845.27
-1635.15
4430.3
-1506.55
4638.82
-961.494
3490.54
-134.948
330.595
219.01
-1976.01
25.0298
-2124.87
-281.303
-1208.36
-499.612
-42.9928
-642.801
1188.59
-695.959
2295.24
-744.28
3120.5
-805.413
3759.1
-883.254
4404.87
-999.498
5110.15
-1224.45
6111.22
-1600.1
7750.61
-2062.66
9923.56
-2438.88
11901.8
-2549.25
12674.6
-2372.45
11629.5
-2111.91
9206.76
-1987.91
6659.25
-1968.17
4588.66
-1945.12
2510.4
-1935.17
292.779
-1949.08
-1774.04
-1974.08
-3815.47
-2007.74
-5853.99
-2049.88
-7794.06
-2103.67
-9548.74
-2145.29
-10967.4
-2037.43
-11522.6
-1471.12
-9641.76
-428.781
-3370.58
-67.7338
2836.3
10.5043
2271.74
155.969
2687.67
263.127
3115.16
305.349
2527.67
284.1
1503.09
210.991
-219.096
164.584
-1091.57
-1923.3
-909.119
-101.44
-914.025
-84.0622
-918.345
-70.3506
-922.995
-61.8824
-927.535
-52.871
-931.801
-44.2158
-935.893
-35.2759
-940.104
-26.0872
-944.548
-14.7003
-949.47
0.29485
-954.546
18.9727
-959.526
38.331
-964.903
58.6547
-971.24
84.1639
-978.376
113.792
-985.601
146.233
-993.946
181.454
-1004.97
226.414
-1017.68
274.478
-1032.27
330.196
-1049.78
396.414
-1069.85
471.165
-1093.06
556.568
-1119.42
657.971
-1148.28
774.662
-1179.17
907.927
-1211.26
1061.35
-1243.65
1235.04
-1275.6
1430.7
-1306.98
1648.54
-1338.11
1889.55
-1370.98
2160.44
-1410.34
2476.43
-1463.8
2864.62
-1536.6
3349.88
-1613.56
3922.24
-1623.45
4440.18
-1398.63
4414.01
-734.03
2825.94
-28.1605
-375.274
114.582
-2118.75
-92.0271
-1918.26
-363.279
-937.112
-576.082
169.812
-664.561
1277.07
-712.158
2342.84
-755.291
3163.63
-814.204
3818.01
-891.859
4482.52
-1019.17
5237.47
-1266.36
6358.41
-1659.43
8143.67
-2110.39
10374.5
-2438.16
12229.6
-2488.96
12725.4
-2286.97
11427.5
-2050.78
8970.57
-1954.42
6562.9
-1932.31
4566.55
-1901.82
2479.9
-1890.1
281.067
-1903.34
-1760.81
-1928.98
-3789.82
-1963.34
-5819.63
-2004.56
-7752.85
-2056.82
-9496.47
-2107.4
-10916.8
-2041.54
-11588.5
-1554.69
-10128.6
-479.547
-4445.73
3.84963
2352.91
9.50178
2266.09
147.147
2550.03
254.25
3008.05
298.175
2483.74
283.918
1517.35
213.712
-148.893
162.584
-1040.44
-1824.88
-929.187
-93.2745
-934.809
-78.4403
-939.662
-65.4976
-944.69
-56.8543
-949.527
-48.0338
-954.111
-39.6318
-958.586
-30.8017
-963.219
-21.454
-968.204
-9.71548
-973.727
5.81776
-979.428
24.6733
-985.219
44.1218
-991.549
64.984
-998.913
91.5284
-1007.13
122.007
-1015.57
154.676
-1025.39
191.269
-1037.73
238.759
-1051.74
288.486
-1067.68
346.14
-1086.33
415.06
-1107.34
492.168
-1131.16
580.39
-1157.58
684.395
-1185.97
803.049