/*--------------------------------*- C++ -*----------------------------------*\
| =========                 |                                                 |
| \\      /  F ield         | OpenFOAM: The Open Source CFD Toolbox           |
|  \\    /   O peration     | Version:  4.1                                   |
|   \\  /    A nd           | Web:      www.OpenFOAM.org                      |
|    \\/     M anipulation  |                                                 |
\*---------------------------------------------------------------------------*/
FoamFile
{
    version     2.0;
    format      ascii;
    class       volVectorField;
    location    "4";
    object      U;
}
// * * * * * * * * * * * * * * * * * * * * * * * * * * * * * * * * * * * * * //

dimensions      [0 1 -1 0 0 0 0];

internalField   nonuniform List<vector> 
6785
(
(1.94684e-14 0.684858 15.7405)
(9.35816e-15 -5.13049 12.0541)
(-2.37721e-15 -4.29332 12.1849)
(4.28122e-15 -3.72489 12.0228)
(5.74837e-16 -3.12045 11.9016)
(-1.75015e-16 -2.66742 11.7161)
(2.00831e-15 -2.31847 11.4891)
(3.44279e-16 -2.07419 11.2179)
(-9.10848e-16 -1.90855 10.9149)
(1.20447e-15 -1.81768 10.5854)
(5.03948e-16 -1.92276 10.166)
(-1.83279e-17 -2.37196 9.56101)
(5.33339e-16 -2.68975 8.97066)
(1.96916e-16 -1.33566 8.92687)
(-5.21499e-16 1.73249 7.64158)
(1.96261e-14 -5.63971 22.1884)
(1.58367e-14 -14.7768 21.3414)
(5.71008e-16 -13.2561 20.4995)
(1.01065e-14 -11.8308 19.6242)
(2.14456e-15 -11.2306 18.6009)
(1.85804e-17 -10.7131 17.6081)
(1.59643e-15 -10.1254 16.6547)
(1.67727e-15 -9.54786 15.6981)
(-9.49896e-16 -8.9804 14.7302)
(3.53241e-15 -8.37655 13.7543)
(1.61136e-15 -7.75098 12.7764)
(8.41725e-17 -7.2772 11.7864)
(1.16214e-15 -7.01462 10.699)
(6.91749e-16 -5.78637 8.98048)
(-3.72585e-16 -1.73174 4.8541)
(1.52627e-14 -7.90398 22.1836)
(1.74456e-14 -16.7666 24.7123)
(1.28818e-15 -13.817 23.9983)
(4.36316e-15 -12.4842 22.6654)
(2.29196e-15 -11.8203 21.2681)
(7.31795e-16 -10.9792 20.0243)
(3.05807e-15 -10.0948 18.7934)
(1.33387e-16 -9.24597 17.5414)
(-3.84626e-16 -8.42321 16.2757)
(2.46619e-15 -7.60945 15.0209)
(9.61163e-16 -6.78702 13.8007)
(-2.71107e-16 -5.95623 12.4273)
(-7.4032e-17 -4.97447 10.3141)
(3.55384e-16 -3.25432 6.86735)
(-3.20171e-16 -0.647035 2.37399)
(1.59167e-14 -8.12752 17.9513)
(1.72546e-14 -16.3177 24.4614)
(2.91523e-15 -13.3967 23.9687)
(4.43671e-15 -12.4926 22.1273)
(1.12822e-15 -11.7794 20.6108)
(4.30746e-15 -10.8343 19.2757)
(1.97937e-15 -9.956 17.9154)
(5.04153e-17 -9.12994 16.5497)
(4.08759e-16 -8.34273 15.1946)
(-3.86506e-17 -7.60118 13.8628)
(-6.9731e-17 -6.84674 12.5156)
(2.20947e-15 -5.88521 10.8463)
(1.34401e-16 -4.39233 8.18726)
(-3.62337e-15 -2.24792 3.98399)
(8.04985e-15 0.00990366 -1.37545)
(1.23187e-14 -7.30519 13.9082)
(1.54174e-14 -15.3336 23.7189)
(5.03405e-15 -13.8707 24.0391)
(4.0508e-15 -13.0951 21.9302)
(-5.97144e-16 -12.3252 20.3091)
(-2.17332e-16 -11.4011 18.9423)
(1.00592e-15 -10.5849 17.5358)
(-2.34266e-15 -9.79765 16.1337)
(-2.62512e-15 -9.01159 14.7646)
(-8.86065e-16 -8.24818 13.4306)
(-4.30194e-15 -7.4775 12.0788)
(1.09978e-15 -6.52949 10.4461)
(-1.88237e-15 -5.05652 8.04948)
(-7.1032e-15 -3.18289 4.5924)
(-5.5438e-15 -1.18544 1.50523)
(1.29164e-14 -6.14181 10.9136)
(1.63035e-14 -14.1937 22.6921)
(8.21024e-15 -14.3804 24.3183)
(5.724e-15 -13.5931 22.4447)
(3.92563e-16 -12.6279 20.7361)
(1.07151e-15 -11.669 19.324)
(3.13908e-15 -10.8433 17.9037)
(-1.22377e-15 -10.0244 16.492)
(1.0438e-15 -9.1868 15.1143)
(-3.13936e-15 -8.36278 13.7713)
(-1.85123e-15 -7.5419 12.4189)
(-1.74421e-15 -6.61243 10.8344)
(-1.03737e-15 -5.22369 8.64935)
(-2.09247e-15 -3.66687 5.61509)
(-4.17905e-15 -1.45623 3.0565)
(1.34091e-14 -5.1433 8.84658)
(1.8538e-14 -13.0418 21.5617)
(1.07257e-14 -14.3645 24.2282)
(3.68886e-15 -13.6355 22.8868)
(1.32041e-15 -12.5513 21.1583)
(4.65188e-15 -11.5866 19.6732)
(7.58424e-16 -10.7565 18.2306)
(-1.23887e-16 -9.91593 16.811)
(8.86973e-16 -9.06614 15.4184)
(-2.20001e-16 -8.24468 14.0552)
(-1.6577e-15 -7.43297 12.6888)
(7.62428e-16 -6.54595 11.1018)
(-1.47689e-16 -5.16984 8.98314)
(-3.89279e-15 -3.93476 6.08291)
(6.47378e-15 -1.53682 3.98178)
(1.05681e-14 -4.60971 7.92866)
(1.78316e-14 -12.1893 20.7708)
(1.02906e-14 -14.0543 23.8076)
(4.16304e-15 -13.4504 23.0516)
(1.45227e-15 -12.4159 21.357)
(1.23581e-15 -11.5041 19.8093)
(3.35578e-15 -10.6896 18.3498)
(-2.1626e-16 -9.85314 16.9267)
(4.30959e-16 -9.0243 15.5231)
(2.86028e-15 -8.23359 14.1453)
(-1.83737e-15 -7.4424 12.7678)
(4.68946e-15 -6.57609 11.1532)
(3.00499e-15 -5.1083 9.04324)
(-4.10319e-15 -4.0768 6.13858)
(-9.31252e-17 -1.54324 4.33928)
(9.99337e-15 -4.42572 7.68799)
(1.66712e-14 -11.6545 20.2611)
(1.00494e-14 -13.7604 23.2586)
(4.69884e-15 -13.3239 23.0606)
(1.61799e-15 -12.4355 21.4386)
(-1.36421e-15 -11.5699 19.862)
(5.31739e-16 -10.7547 18.4034)
(-3.49156e-16 -9.91962 16.9862)
(-3.55457e-15 -9.10357 15.5822)
(-5.75961e-17 -8.32419 14.2037)
(-3.96066e-16 -7.52712 12.826)
(5.23582e-15 -6.65874 11.1754)
(2.3729e-15 -5.06111 9.07068)
(-3.46194e-15 -4.21642 6.22082)
(-4.34765e-15 -1.60458 4.65604)
(5.77596e-15 -4.31738 7.41884)
(1.62182e-14 -11.2646 19.7588)
(1.20857e-14 -13.5792 22.7364)
(4.91649e-15 -13.3306 23.021)
(1.75411e-15 -12.5965 21.5168)
(5.90311e-16 -11.7328 19.9386)
(-7.09673e-16 -10.8893 18.4883)
(-1.02545e-15 -10.0435 17.0804)
(2.07721e-15 -9.22211 15.6828)
(-2.03785e-15 -8.43117 14.3113)
(-6.68235e-16 -7.60757 12.9391)
(-1.96095e-15 -6.734 11.2454)
(-2.81816e-15 -5.02795 9.14175)
(-2.53212e-15 -4.3877 6.40059)
(-8.4468e-15 -1.73973 5.04085)
(2.82217e-15 -4.09688 6.82391)
(1.73572e-14 -10.8508 19.0865)
(7.49642e-15 -13.4538 22.2892)
(4.98858e-15 -13.4161 22.9966)
(3.05084e-15 -12.8158 21.6714)
(-2.35261e-15 -11.9317 20.1102)
(-1.15435e-15 -11.0499 18.6587)
(-1.80956e-15 -10.1905 17.2498)
(-4.76484e-15 -9.35684 15.8532)
(-2.68212e-15 -8.54786 14.4836)
(4.23018e-16 -7.69223 13.1135)
(-5.82442e-15 -6.8219 11.3755)
(-3.18807e-15 -5.04936 9.26966)
(-1.06152e-14 -4.59871 6.63794)
(-9.25275e-15 -1.9142 5.4452)
(2.4648e-15 -3.69539 5.8473)
(1.16344e-14 -10.3084 18.1569)
(6.77479e-15 -13.2743 21.8313)
(4.76194e-15 -13.4532 22.9279)
(6.01038e-15 -12.952 21.8078)
(-3.72135e-15 -12.0347 20.2728)
(-1.35682e-15 -11.1209 18.8199)
(2.7525e-15 -10.2599 17.4145)
(-2.80707e-15 -9.42535 16.0259)
(-2.86596e-15 -8.61307 14.6617)
(6.00625e-16 -7.73847 13.2903)
(-1.06259e-14 -6.87547 11.4958)
(-2.82834e-15 -5.05077 9.38936)
(-1.39825e-14 -4.80975 6.89488)
(-1.29536e-14 -2.08284 5.8317)
(-2.47613e-15 -3.3097 5.0534)
(1.26182e-14 -9.77369 17.1789)
(8.1802e-15 -13.128 21.5087)
(4.35599e-15 -13.6277 23.0383)
(3.52637e-15 -13.274 22.2184)
(-2.86031e-15 -12.3858 20.7231)
(-2.03576e-15 -11.4394 19.2001)
(2.45721e-15 -10.5481 17.7272)
(-4.91438e-15 -9.67687 16.2876)
(-3.43942e-15 -8.83156 14.8805)
(5.44079e-16 -7.90835 13.4872)
(-1.00428e-14 -7.04293 11.6527)
(-4.81657e-15 -5.17983 9.52943)
(-8.87045e-15 -4.94865 7.0793)
(-1.18036e-14 -2.22282 6.01017)
(-8.82531e-15 -2.29086 2.56958)
(1.1145e-14 -8.69286 15.3789)
(7.5319e-15 -12.4026 20.3959)
(4.62032e-15 -12.9994 22.3748)
(2.74771e-15 -12.6799 21.7335)
(-2.84047e-15 -11.7635 20.4023)
(-6.85413e-16 -10.9009 19.0985)
(2.60742e-15 -10.1368 17.8296)
(-4.62454e-15 -9.38917 16.5624)
(-2.42528e-15 -8.64204 15.2698)
(-1.26696e-15 -7.7984 13.8996)
(-8.04309e-15 -6.94986 12.0338)
(-4.78682e-15 -5.21246 9.99082)
(-1.13581e-14 -5.2916 7.90221)
(-9.99673e-15 -2.43322 6.77605)
(-2.82542e-15 -5.36908 9.38817)
(1.06203e-14 -10.3423 18.1122)
(1.02868e-14 -13.9693 22.3772)
(4.56666e-15 -15.3012 24.4064)
(3.16488e-15 -15.3913 23.9929)
(-4.28821e-16 -14.55 22.2867)
(-1.83804e-15 -13.2808 20.1642)
(1.05145e-15 -11.9095 18.1056)
(-1.98874e-15 -10.5479 16.1815)
(-3.23431e-15 -9.30202 14.4082)
(-2.63885e-15 -7.98874 12.7737)
(-6.57518e-15 -6.80771 10.6911)
(-7.02894e-15 -4.65903 8.40036)
(-1.12115e-14 -4.12179 5.68664)
(-9.02621e-15 -1.20803 4.05809)
(-2.81007e-15 0.0631923 -1.07249)
(-5.67291e-15 0.233486 -2.27369)
(-4.4988e-15 0.362801 -1.65051)
(-4.67454e-15 0.488325 -1.46792)
(-4.61928e-15 0.535455 -1.34784)
(-6.73934e-15 0.795348 -1.63377)
(-4.84256e-15 0.679707 -1.12624)
(-4.86494e-15 0.778415 -0.995832)
(-4.99342e-15 0.808839 -0.891417)
(-6.25737e-15 1.0142 -0.951599)
(-1.99152e-15 0.844914 -0.679059)
(-1.92114e-15 0.878301 -0.597759)
(-3.68587e-15 1.13235 -0.545392)
(-2.80612e-15 0.891802 -0.392728)
(-2.52038e-15 0.952898 -0.341348)
(-2.13618e-15 0.947399 -0.299795)
(-2.60082e-15 1.1551 -0.232531)
(-8.72741e-16 0.90828 -0.239034)
(-3.83421e-16 0.930768 -0.243698)
(5.32856e-16 1.16467 -0.196072)
(1.13014e-15 0.873199 -0.175171)
(9.55118e-16 0.940848 -0.127346)
(1.65966e-15 0.903626 -0.0903553)
(2.04184e-15 1.09708 0.096679)
(1.52532e-15 0.838756 0.0876538)
(9.88933e-16 0.871413 0.113982)
(4.17834e-16 0.821613 0.126581)
(-1.73833e-15 0.949999 0.316437)
(-3.24098e-15 0.753433 0.179307)
(-3.53068e-15 0.755009 0.156614)
(-5.56343e-15 0.792063 0.313599)
(-5.22385e-15 0.622425 0.131125)
(-5.08994e-15 0.693729 0.0656901)
(-5.64451e-15 0.61793 0.0241694)
(-7.68147e-15 0.662077 0.139314)
(-5.21412e-15 0.56852 -0.0165448)
(-4.61931e-15 0.581033 -0.0664566)
(-5.38164e-15 0.5237 0.0369212)
(-3.36933e-15 0.441644 -0.115804)
(-2.45173e-15 0.536064 -0.152898)
(-7.23562e-16 0.435034 -0.167345)
(1.27377e-16 0.553498 -0.0232714)
(7.22765e-16 0.400984 -0.137028)
(1.27165e-15 0.472108 -0.14946)
(1.58672e-15 0.378573 -0.144989)
(2.88204e-15 0.466577 0.0047515)
(9.47638e-16 0.379097 -0.102003)
(1.20878e-15 0.375598 -0.121285)
(2.89321e-15 0.385163 -0.0677123)
(4.79075e-15 0.297661 -0.152644)
(5.008e-15 0.397575 -0.16151)
(4.85263e-15 0.30389 -0.181056)
(6.01023e-15 0.473716 -0.294504)
(4.61493e-15 0.373202 -0.221054)
(4.65843e-15 0.445856 -0.19211)
(5.6839e-15 0.393351 -0.181947)
(7.21134e-15 0.485451 -0.284508)
(4.74697e-15 0.451744 -0.211775)
(2.96076e-15 0.486364 -0.184163)
(2.86153e-15 0.479853 -0.220022)
(1.87568e-15 0.39293 -0.22317)
(1.82172e-15 0.451898 -0.211311)
(2.49008e-15 0.438695 -0.22282)
(1.0333e-14 0.381965 -0.515895)
(6.59262e-15 0.210925 -0.340531)
(4.35717e-15 0.279603 -0.207392)
(-4.07311e-16 0.0709473 0.254788)
(-3.23207e-15 -0.255444 1.44124)
(-2.72628e-15 -0.3082 1.63092)
(-3.0317e-15 -0.345597 1.71298)
(-5.30048e-15 -0.925479 3.35178)
(-4.77339e-15 -1.38815 3.64411)
(-4.89145e-15 -1.54913 3.77391)
(-5.10982e-15 -1.69046 3.93665)
(-4.6234e-15 -3.00062 6.48009)
(-4.27658e-15 -3.22213 5.67834)
(-4.95054e-15 -3.49758 6.03442)
(-6.87111e-15 -5.51592 9.25205)
(-5.13843e-15 -5.39296 7.51241)
(-5.69715e-15 -5.59138 8.09588)
(-7.4567e-15 -6.14271 9.69716)
(-6.91788e-15 -6.10619 9.70717)
(-6.78491e-15 -6.33543 9.99015)
(-5.26587e-15 -7.52132 12.5871)
(-6.08293e-15 -7.04124 11.534)
(-5.77994e-15 -7.36226 11.9813)
(-5.7433e-15 -7.38223 12.1567)
(-5.65151e-15 -7.4542 12.349)
(-5.50155e-15 -7.51321 12.5536)
(-5.36713e-15 -7.55302 12.7895)
(-5.17721e-15 -7.63706 13.1697)
(-4.86525e-15 -7.81683 13.6314)
(-3.4022e-15 -8.51042 15.752)
(-4.06804e-15 -8.52093 14.7992)
(-3.85311e-15 -8.65099 15.1066)
(-3.68305e-15 -8.61899 15.3071)
(-3.29436e-15 -8.85002 15.8023)
(-3.11715e-15 -8.78367 15.8925)
(-2.97634e-15 -8.83818 16.1124)
(-2.77087e-15 -8.87419 16.3192)
(-2.49208e-15 -8.99882 16.5722)
(-1.3221e-15 -9.46914 18.6266)
(-7.40203e-16 -9.50695 17.6944)
(-5.94996e-16 -9.60878 17.9552)
(-5.61452e-16 -9.64405 18.095)
(-5.27018e-16 -9.68183 18.293)
(-5.78667e-16 -9.73934 18.5675)
(-6.04953e-16 -9.82583 18.8701)
(-4.20724e-16 -9.80084 19.0068)
(-3.01694e-16 -9.84921 19.2066)
(-1.37553e-16 -9.94069 19.4091)
(1.03865e-15 -9.91606 20.598)
(4.01131e-16 -10.1326 19.8221)
(5.43627e-16 -10.1646 20.0159)
(6.11728e-16 -10.1977 20.1125)
(7.13111e-16 -10.2352 20.2496)
(8.53355e-16 -10.2344 20.4083)
(1.22826e-15 -10.2913 20.7225)
(1.30251e-15 -10.295 20.8571)
(1.33316e-15 -10.3624 20.9122)
(2.16955e-15 -9.61653 20.5691)
(1.51474e-15 -10.0117 20.0976)
(1.35063e-15 -9.9561 20.2855)
(1.19302e-15 -9.98952 20.4226)
(1.43437e-15 -9.93289 20.3483)
(1.56482e-15 -9.95318 20.3273)
(1.7421e-15 -9.92346 20.2869)
(1.97469e-15 -9.86793 20.2739)
(2.48616e-15 -9.92502 20.4397)
(2.62081e-15 -8.07799 17.9484)
(2.96222e-15 -9.0946 18.5225)
(3.15948e-15 -8.89911 18.2538)
(3.33636e-15 -8.8654 18.0922)
(3.79388e-15 -8.79347 18.0097)
(3.82143e-15 -8.70517 17.7489)
(3.76997e-15 -8.6171 17.4023)
(3.76378e-15 -8.54423 17.0245)
(3.72204e-15 -8.39111 16.5619)
(4.26071e-15 -6.14859 12.5597)
(3.92283e-15 -7.15398 14.371)
(3.81706e-15 -6.84957 13.6921)
(3.76081e-15 -6.84206 13.2772)
(3.71009e-15 -6.72554 12.7241)
(3.74702e-15 -6.64742 12.1053)
(4.24563e-15 -6.39379 11.2257)
(3.76204e-15 -6.37647 10.7783)
(3.48718e-15 -6.23634 10.1398)
(3.13221e-15 -6.03555 9.44457)
(1.26779e-15 -3.24208 4.55484)
(2.40289e-15 -4.89499 7.07634)
(1.9299e-15 -4.35752 5.95082)
(1.6065e-15 -4.35969 5.51983)
(1.19455e-15 -4.08775 4.83498)
(6.41439e-16 -4.02332 4.0546)
(-6.3177e-16 -3.96691 2.79206)
(-1.95426e-15 -3.73473 1.52691)
(-1.60513e-15 -3.68266 1.32754)
(-8.8251e-16 -1.98568 -1.03584)
(-1.92654e-15 -3.43996 0.303809)
(-1.74977e-15 -3.105 -0.374344)
(-7.26699e-16 -1.92741 -2.32052)
(-8.38896e-16 -3.47542 -1.72081)
(-1.30605e-15 -2.72694 -1.68736)
(-1.19643e-15 -2.2769 -1.3268)
(-1.55757e-15 -2.80136 -1.70829)
(-9.74571e-16 -1.80789 -1.24678)
(-1.13842e-15 -2.39033 -1.70297)
(-2.22854e-15 -1.98247 -1.37557)
(-1.46191e-15 -1.44848 -1.12589)
(-1.82281e-15 -1.80098 -1.52668)
(-1.77076e-15 -1.47816 -1.22453)
(-1.57459e-15 -1.14884 -1.00011)
(-2.19105e-15 -1.56892 -1.30318)
(-1.75478e-15 -0.820177 -0.964635)
(-2.43918e-15 -1.07227 -1.2889)
(-1.95595e-15 -0.844763 -1.10756)
(-2.30378e-15 -0.652643 -0.923964)
(-3.01942e-15 -0.941656 -1.11623)
(-1.06491e-15 -0.434403 -0.949454)
(-2.07184e-15 -0.573301 -1.12511)
(-2.2817e-15 -0.610523 -1.11685)
(-2.2209e-15 -0.442949 -1.05395)
(-3.59265e-15 -0.107535 -1.15443)
(-1.13183e-14 0.20353 -1.05606)
(-2.14126e-15 0.118312 -1.12726)
(-2.10112e-15 -0.141723 -0.990161)
(-1.42439e-15 -0.363237 -1.00506)
(-9.47653e-15 0.0762965 -0.982256)
(-3.78016e-15 0.589751 -0.783255)
(-2.34338e-15 0.522136 -0.794333)
(-2.57364e-15 0.49297 -0.607254)
(-1.78172e-15 0.199165 -0.63548)
(-2.75942e-15 0.650484 -0.556376)
(-5.15021e-15 0.882703 -0.581941)
(-2.52845e-15 0.320595 -0.569764)
(-1.77422e-15 0.576446 -0.501063)
(-3.61739e-15 1.02123 -0.572464)
(-2.96164e-15 0.917472 -0.560209)
(-3.5122e-15 1.34216 -0.42908)
(-2.63487e-15 0.663746 -0.453126)
(-2.6382e-15 0.993785 -0.327561)
(-6.08283e-16 1.36276 -0.396615)
(2.2189e-16 1.13393 -0.425266)
(-2.35764e-16 1.68635 -0.292732)
(-3.86869e-16 0.984802 -0.337086)
(-6.86263e-16 1.45026 -0.1705)
(-2.59906e-15 1.73934 -0.228533)
(-2.01569e-15 1.13219 -0.276495)
(-1.91229e-15 1.56151 -0.160661)
(-1.05616e-15 1.87595 -0.244466)
(-1.32501e-15 1.45567 -0.268241)
(-1.35989e-15 2.1915 -0.212701)
(-4.23212e-16 1.40101 -0.228428)
(2.05095e-15 1.9143 -0.144752)
(-8.23516e-16 2.23796 -0.175556)
(3.05573e-16 1.67863 -0.180505)
(-2.2012e-15 2.47618 -0.140726)
(-4.44813e-16 1.65382 -0.141506)
(-1.27288e-15 2.22034 -0.0907677)
(-1.08536e-15 2.53509 -0.112217)
(-4.25459e-16 1.82301 -0.0814044)
(-1.98145e-15 2.40108 -0.052818)
(-1.15332e-15 2.71006 -0.10003)
(-4.76431e-16 2.02166 -0.0376453)
(-6.81143e-16 2.8298 -0.11849)
(-4.02901e-16 2.04881 -0.0528212)
(5.66275e-16 2.62091 -0.084832)
(5.02261e-16 2.98481 -0.177725)
(1.89164e-16 2.24231 -0.0481786)
(1.70848e-16 3.10771 -0.210858)
(2.81994e-16 2.37679 -0.0982789)
(6.45269e-17 2.9659 -0.19962)
(-4.30976e-17 3.48439 -0.338683)
(-3.94961e-17 2.74538 -0.158727)
(-5.70473e-16 3.48112 -0.300515)
(2.6851e-16 4.05114 -0.516372)
(1.57111e-16 3.12424 -0.277457)
(3.58543e-16 4.25683 -0.575137)
(2.40729e-16 3.22442 -0.359049)
(4.40976e-16 4.51065 -0.596454)
(-2.70929e-15 0.13138 3.5217)
(-2.7131e-15 0.120476 3.53166)
(-2.68015e-15 0.0683528 3.49927)
(-2.66535e-15 0.0492471 3.49546)
(-2.64624e-15 0.0529502 3.48642)
(-2.62473e-15 0.0754053 3.47283)
(-2.60413e-15 0.0782334 3.45671)
(-2.58952e-15 0.0719895 3.44897)
(-2.58077e-15 0.0896418 3.44721)
(-2.57434e-15 0.114466 3.4464)
(-2.56829e-15 0.153568 3.44461)
(-2.56439e-15 0.178928 3.4425)
(-2.56329e-15 0.196778 3.4381)
(-2.56435e-15 0.155431 3.43261)
(-2.56774e-15 0.0313967 3.43761)
(-2.57896e-15 -0.116638 3.46133)
(-2.60675e-15 -0.157842 3.50226)
(-2.64563e-15 -0.0963213 3.53271)
(-2.70493e-15 -0.155612 3.56966)
(-2.81519e-15 -0.194597 3.64348)
(-2.97687e-15 -0.218066 3.74276)
(-3.20297e-15 -0.303727 3.88194)
(-3.49711e-15 -0.354191 4.06936)
(-3.82946e-15 -0.446315 4.28827)
(-4.16095e-15 -0.552899 4.52606)
(-4.43622e-15 -0.671764 4.76117)
(-4.61925e-15 -0.795943 4.96994)
(-4.71751e-15 -0.916533 5.13669)
(-4.80234e-15 -1.05938 5.27171)
(-4.95989e-15 -1.24602 5.40894)
(-5.22795e-15 -1.49421 5.58971)
(-5.56945e-15 -1.79885 5.84956)
(-5.87859e-15 -2.17253 6.2062)
(-6.0191e-15 -2.61164 6.64557)
(-5.9223e-15 -3.10949 7.1207)
(-5.66727e-15 -3.65725 7.58952)
(-5.41409e-15 -4.26021 8.0334)
(-5.29885e-15 -4.93583 8.45115)
(-5.35677e-15 -5.67058 8.86811)
(-5.5162e-15 -6.41476 9.32825)
(-5.72679e-15 -7.09976 9.89815)
(-5.97721e-15 -7.33921 10.5866)
(-5.65435e-15 -5.9321 10.0976)
(-3.13084e-15 -0.942587 4.27537)
(-2.02943e-17 1.98056 -4.1541)
(1.36184e-15 3.08347 -6.44376)
(1.22939e-15 2.31696 -2.76594)
(3.01423e-17 -0.887446 4.01801)
(1.89639e-16 -3.63306 4.17354)
(3.11258e-16 -4.88251 4.66767)
(4.22655e-16 -5.15116 5.4675)
(8.04253e-16 -5.26444 6.44483)
(1.49133e-15 -5.90464 7.60951)
(2.16773e-15 -7.09348 8.97132)
(2.19016e-15 -8.71295 10.6776)
(9.96015e-16 -10.5749 13.2385)
(-1.22955e-15 -12.2182 16.6149)
(-3.42163e-15 -12.8813 19.5208)
(-4.39469e-15 -11.4747 20.2035)
(-3.10401e-15 -6.66186 17.7446)
(4.71357e-16 0.859245 14.1948)
(4.1628e-16 3.03144 15.064)
(2.00706e-16 5.5747 15.1788)
(2.38597e-16 8.3586 15.1874)
(1.14459e-16 10.7021 15.0861)
(-1.56244e-16 11.7934 14.3212)
(-6.51556e-16 9.60962 11.7751)
(-1.34406e-15 1.86151 5.50751)
(-1.74283e-15 -5.32145 -0.857923)
(-1.60439e-15 -4.381 0.686673)
(-1.67798e-15 -5.94011 -0.556605)
(-2.00208e-15 -6.19662 -1.16664)
(-2.80609e-15 -6.99076 -1.16502)
(-2.75653e-15 -6.20776 -2.17267)
(-2.98464e-16 -3.10508 -1.52852)
(1.38186e-15 -0.670925 -0.919784)
(1.28335e-15 3.0311 -0.748006)
(9.8038e-16 4.7702 -0.0117348)
(5.6461e-16 -0.00922275 -0.510178)
(-2.86647e-15 0.0862573 3.68429)
(-2.875e-15 0.0900067 3.69596)
(-2.84181e-15 0.0748179 3.66352)
(-2.82548e-15 0.0747512 3.65404)
(-2.80328e-15 0.0700619 3.63801)
(-2.78106e-15 0.0569418 3.61747)
(-2.76194e-15 0.0293095 3.59602)
(-2.74865e-15 0.00368616 3.58593)
(-2.74025e-15 -0.00384923 3.58236)
(-2.733e-15 0.000943982 3.57897)
(-2.72629e-15 0.0052958 3.57359)
(-2.72374e-15 -0.00586231 3.57122)
(-2.72874e-15 -0.0259177 3.57056)
(-2.74238e-15 -0.0525756 3.56688)
(-2.76359e-15 -0.107422 3.57743)
(-2.79989e-15 -0.16996 3.61694)
(-2.85837e-15 -0.169907 3.67569)
(-2.92906e-15 -0.1317 3.72455)
(-3.02227e-15 -0.171012 3.78191)
(-3.16837e-15 -0.211716 3.87792)
(-3.35615e-15 -0.266946 3.99633)
(-3.5884e-15 -0.336951 4.14699)
(-3.85838e-15 -0.405659 4.32988)
(-4.1347e-15 -0.505405 4.52859)
(-4.38473e-15 -0.604807 4.73148)
(-4.57462e-15 -0.71727 4.91941)
(-4.69693e-15 -0.837393 5.08014)
(-4.78319e-15 -0.963462 5.21406)
(-4.89961e-15 -1.12119 5.34256)
(-5.09963e-15 -1.32884 5.49847)
(-5.38565e-15 -1.59355 5.71097)
(-5.7009e-15 -1.9141 6.00078)
(-5.94103e-15 -2.29544 6.37349)
(-5.9993e-15 -2.73494 6.80878)
(-5.85069e-15 -3.2268 7.26696)
(-5.59302e-15 -3.76887 7.71907)
(-5.37477e-15 -4.36672 8.1553)
(-5.30298e-15 -5.03298 8.58023)
(-5.38678e-15 -5.74517 9.01994)
(-5.56227e-15 -6.45471 9.5163)
(-5.80038e-15 -7.0827 10.1178)
(-5.97491e-15 -7.04594 10.5511)
(-5.11793e-15 -4.57005 8.56497)
(-1.33438e-15 1.5539 -1.10895)
(5.90726e-16 2.9996 -5.52762)
(1.47863e-15 2.61048 -5.80619)
(1.04652e-15 0.700771 -1.24885)
(3.64715e-17 -1.67259 3.98802)
(2.09726e-16 -4.02922 4.25302)
(3.20776e-16 -5.07896 4.826)
(4.66328e-16 -5.30088 5.54267)
(9.13206e-16 -5.56288 6.49371)
(1.63175e-15 -6.41777 7.71514)
(2.22419e-15 -7.79155 9.2032)
(2.03588e-15 -9.55085 11.1422)
(6.13613e-16 -11.4663 13.9377)
(-1.69038e-15 -12.9713 17.3441)
(-3.70667e-15 -13.135 19.9)
(-4.1253e-15 -10.7505 19.7023)
(-1.99918e-15 -5.0488 16.3371)
(8.50544e-16 0.952038 13.7831)
(2.14184e-16 2.64395 15.2434)
(2.93582e-16 5.52451 15.1586)
(3.07864e-16 8.34988 15.292)
(2.4511e-16 10.8129 15.3012)
(2.14072e-17 12.2436 14.7877)
(-4.58718e-16 10.8132 12.7138)
(-1.20211e-15 3.70757 6.94299)
(-1.78219e-15 -5.22652 -1.20658)
(-1.60189e-15 -4.45135 0.811867)
(-1.6798e-15 -5.7911 -0.417976)
(-1.99244e-15 -5.91449 -1.105)
(-2.78369e-15 -6.65327 -1.28428)
(-2.79881e-15 -5.98256 -2.31592)
(-5.42589e-16 -2.97584 -1.80001)
(1.20579e-15 -0.331199 -1.12556)
(1.18532e-15 2.10219 -0.853958)
(9.88029e-16 3.93442 -0.0362013)
(5.72463e-16 1.67012 -0.407889)
(-3.02924e-15 0.0961191 3.83864)
(-3.0522e-15 0.105232 3.85445)
(-3.02998e-15 0.106157 3.83118)
(-3.02378e-15 0.13155 3.82736)
(-3.01066e-15 0.154386 3.8132)
(-2.99741e-15 0.158415 3.79286)
(-2.98593e-15 0.143285 3.77264)
(-2.97825e-15 0.117053 3.76555)
(-2.9748e-15 0.100719 3.766)
(-2.97217e-15 0.107682 3.76405)
(-2.97083e-15 0.101388 3.75778)
(-2.97502e-15 0.0727016 3.75311)
(-2.99035e-15 0.000510229 3.75505)
(-3.01839e-15 -0.0706546 3.75944)
(-3.0573e-15 -0.126584 3.78)
(-3.11656e-15 -0.169229 3.83942)
(-3.19844e-15 -0.150765 3.9209)
(-3.29396e-15 -0.126059 3.9826)
(-3.41265e-15 -0.158026 4.04989)
(-3.57818e-15 -0.224474 4.16029)
(-3.77156e-15 -0.290834 4.29002)
(-3.98706e-15 -0.364677 4.44279)
(-4.21063e-15 -0.441721 4.61027)
(-4.41558e-15 -0.545251 4.78023)
(-4.58078e-15 -0.637087 4.94323)
(-4.69716e-15 -0.748526 5.0836)
(-4.78297e-15 -0.862916 5.20504)
(-4.88193e-15 -0.988834 5.31872)
(-5.04225e-15 -1.15462 5.45019)
(-5.28041e-15 -1.3763 5.63004)
(-5.56703e-15 -1.65246 5.87689)
(-5.83249e-15 -1.98565 6.19683)
(-5.98407e-15 -2.37937 6.58283)
(-5.95343e-15 -2.8261 7.01031)
(-5.75887e-15 -3.32046 7.44712)
(-5.51084e-15 -3.86261 7.87618)
(-5.33876e-15 -4.46105 8.29564)
(-5.31577e-15 -5.13365 8.71964)
(-5.4289e-15 -5.86094 9.18752)
(-5.63041e-15 -6.58365 9.75045)
(-5.89256e-15 -7.1716 10.4061)
(-5.91364e-15 -6.74629 10.4404)
(-4.48938e-15 -3.47103 6.78119)
(-5.95032e-16 1.54577 -3.49184)
(9.26501e-16 3.03792 -5.98056)
(1.46519e-15 1.99897 -4.98127)
(9.29452e-16 0.0560362 -0.353498)
(4.6783e-17 -2.21297 3.9757)
(2.3286e-16 -4.163 4.31969)
(3.36175e-16 -5.12533 4.99615)
(5.31134e-16 -5.4077 5.68256)
(1.05609e-15 -5.78363 6.61078)
(1.79466e-15 -6.74794 7.85718)
(2.25627e-15 -8.23575 9.45737)
(1.79396e-15 -10.1312 11.6558)
(1.1024e-16 -12.1531 14.7222)
(-2.23658e-15 -13.581 18.1132)
(-3.93902e-15 -13.2922 20.1293)
(-3.61342e-15 -10.1248 18.9281)
(-9.27375e-16 -4.23309 15.1434)
(7.18363e-16 0.514455 13.9755)
(1.10737e-16 2.63686 15.223)
(2.74728e-16 5.49447 15.1226)
(2.97877e-16 8.32627 15.3027)
(2.84807e-16 10.8442 15.3672)
(1.06136e-16 12.445 15.0014)
(-3.41418e-16 11.4487 13.253)
(-1.09786e-15 4.85347 7.9576)
(-1.8459e-15 -6.11408 -1.96805)
(-1.59655e-15 -4.79516 0.718967)
(-1.68137e-15 -5.87994 -0.230685)
(-1.98314e-15 -6.02646 -0.970308)
(-2.75806e-15 -6.65531 -1.23829)
(-2.84445e-15 -6.03293 -2.26341)
(-8.10204e-16 -3.22972 -1.90318)
(9.99221e-16 -0.634043 -1.31364)
(1.09236e-15 2.06919 -0.891646)
(9.94336e-16 4.07654 -0.109743)
(5.83763e-16 2.4348 -0.250785)
(-3.20964e-15 0.0563079 4.00946)
(-3.25084e-15 0.0674882 4.02716)
(-3.24219e-15 0.0654091 4.0151)
(-3.25048e-15 0.0926137 4.02182)
(-3.25092e-15 0.123767 4.01318)
(-3.25091e-15 0.142777 3.99628)
(-3.25124e-15 0.148304 3.97905)
(-3.25341e-15 0.134693 3.9756)
(-3.25898e-15 0.117747 3.98426)
(-3.26527e-15 0.134641 3.98914)
(-3.27323e-15 0.143832 3.98449)
(-3.28699e-15 0.119133 3.97659)
(-3.31284e-15 0.0294561 3.9779)
(-3.35249e-15 -0.0699894 3.99229)
(-3.40359e-15 -0.130319 4.02663)
(-3.47485e-15 -0.162891 4.10124)
(-3.56633e-15 -0.15095 4.19496)
(-3.67171e-15 -0.142077 4.2621)
(-3.79538e-15 -0.166206 4.32963)
(-3.9552e-15 -0.23997 4.44096)
(-4.12916e-15 -0.302438 4.56926)
(-4.30689e-15 -0.378403 4.70993)
(-4.47388e-15 -0.464106 4.85348)
(-4.61201e-15 -0.560316 4.99167)
(-4.71456e-15 -0.647286 5.11664)
(-4.79246e-15 -0.75925 5.22174)
(-4.87761e-15 -0.870964 5.32231)
(-5.00957e-15 -1.00937 5.43287)
(-5.21087e-15 -1.19025 5.57934)
(-5.46726e-15 -1.42841 5.78753)
(-5.73007e-15 -1.71936 6.06619)
(-5.92834e-15 -2.06652 6.40909)
(-5.98981e-15 -2.46743 6.80055)
(-5.88448e-15 -2.91538 7.21517)
(-5.66317e-15 -3.40938 7.62929)
(-5.43848e-15 -3.94996 8.03596)
(-5.31604e-15 -4.5463 8.43993)
(-5.3382e-15 -5.21812 8.86642)
(-5.48149e-15 -5.96117 9.37629)
(-5.71574e-15 -6.70144 10.0214)
(-5.96964e-15 -7.18285 10.6456)
(-5.72339e-15 -6.27097 9.961)
(-3.7461e-15 -2.23535 4.70329)
(-1.90579e-16 2.74595 -4.01025)
(1.07789e-15 3.14914 -5.58121)
(1.47454e-15 1.27097 -4.06828)
(8.11621e-16 -0.602712 0.45674)
(5.91271e-17 -2.70504 4.00964)
(2.54357e-16 -4.29343 4.40164)
(3.58016e-16 -5.16737 5.15691)
(6.13272e-16 -5.53252 5.82231)
(1.21452e-15 -6.03595 6.73843)
(1.94722e-15 -7.1025 8.01676)
(2.2379e-15 -8.68104 9.75249)
(1.47818e-15 -10.6765 12.2261)
(-4.44823e-16 -12.7378 15.5253)
(-2.75781e-15 -13.9862 18.7796)
(-4.01752e-15 -13.1664 20.0913)
(-2.93132e-15 -9.37575 17.9621)
(-1.29991e-16 -3.70928 14.3138)
(4.69066e-16 0.237224 14.2597)
(6.39479e-17 2.60467 15.1215)
(2.37128e-16 5.46984 15.0817)
(2.91799e-16 8.30104 15.2842)
(3.2758e-16 10.8755 15.409)
(2.02164e-16 12.6646 15.1949)
(-2.04926e-16 12.1703 13.7994)
(-9.64241e-16 6.44254 9.18712)
(-1.86238e-15 -5.20415 -0.878998)
(-1.59548e-15 -4.98957 0.470548)
(-1.68339e-15 -5.79766 -0.0712854)
(-1.97689e-15 -5.89083 -0.818189)
(-2.73447e-15 -6.4398 -1.14222)
(-2.88453e-15 -5.94601 -2.16886)
(-1.05639e-15 -3.39746 -1.96221)
(7.86467e-16 -0.858567 -1.45294)
(9.87297e-16 1.79165 -0.979612)
(9.93197e-16 3.75499 -0.203407)
(6.54797e-16 4.11963 -0.105531)
(-3.39328e-15 0.0452032 4.18935)
(-3.45242e-15 0.0600241 4.20474)
(-3.45838e-15 0.0509916 4.20444)
(-3.48272e-15 0.068185 4.2225)
(-3.49825e-15 0.0904949 4.22175)
(-3.51282e-15 0.108056 4.21129)
(-3.52641e-15 0.119438 4.19884)
(-3.54018e-15 0.113278 4.19861)
(-3.55611e-15 0.0952285 4.21493)
(-3.57287e-15 0.103252 4.22929)
(-3.59137e-15 0.117252 4.22787)
(-3.61486e-15 0.0931228 4.21645)
(-3.64894e-15 0.00363017 4.21631)
(-3.6956e-15 -0.0992919 4.23968)
(-3.7528e-15 -0.163429 4.28781)
(-3.82643e-15 -0.196776 4.37237)
(-3.91659e-15 -0.200836 4.47111)
(-4.01837e-15 -0.200584 4.53958)
(-4.13139e-15 -0.212745 4.60144)
(-4.26782e-15 -0.275348 4.70296)
(-4.40711e-15 -0.331974 4.81875)
(-4.53863e-15 -0.410781 4.93735)
(-4.65226e-15 -0.499312 5.05338)
(-4.74056e-15 -0.593774 5.16246)
(-4.81031e-15 -0.680001 5.25848)
(-4.88382e-15 -0.782002 5.34297)
(-4.99342e-15 -0.895372 5.43835)
(-5.16323e-15 -1.04758 5.55913)
(-5.3904e-15 -1.24538 5.72892)
(-5.64049e-15 -1.49826 5.96611)
(-5.85797e-15 -1.80229 6.27093)
(-5.98016e-15 -2.15774 6.628)
(-5.95972e-15 -2.56173 7.01707)
(-5.79993e-15 -3.01009 7.41491)
(-5.57181e-15 -3.50427 7.80652)
(-5.38106e-15 -4.04547 8.19358)
(-5.30778e-15 -4.64392 8.58735)
(-5.37057e-15 -5.32115 9.02584)
(-5.54642e-15 -6.08435 9.59367)
(-5.81192e-15 -6.82757 10.3128)
(-6.00314e-15 -7.10124 10.7547)
(-5.39072e-15 -5.55867 9.05745)
(-2.82526e-15 -0.721288 2.01972)
(2.36552e-16 3.60323 -4.69581)
(1.19241e-15 2.99719 -5.00567)
(1.4531e-15 0.405715 -2.97218)
(6.73361e-16 -1.32003 1.2249)
(7.41855e-17 -3.16235 4.06709)
(2.73968e-16 -4.44597 4.50024)
(3.88217e-16 -5.2592 5.30185)
(7.12166e-16 -5.7093 5.94818)
(1.38079e-15 -6.32402 6.86392)
(2.07538e-15 -7.47769 8.19331)
(2.15876e-15 -9.14744 10.0965)
(1.09598e-15 -11.242 12.8485)
(-1.01984e-15 -13.3064 16.3079)
(-3.20258e-15 -14.299 19.278)
(-3.91554e-15 -12.915 19.7765)
(-2.17253e-15 -8.66818 16.9335)
(3.47746e-16 -3.40163 13.8566)
(2.19156e-16 0.0690355 14.4628)
(1.19038e-17 2.589 14.9773)
(1.66374e-16 5.44168 15.018)
(2.58131e-16 8.26543 15.2292)
(3.45001e-16 10.8791 15.4007)
(2.79976e-16 12.8158 15.3133)
(-7.42869e-17 12.7536 14.2323)
(-8.12895e-16 7.98258 10.3511)
(-1.71498e-15 -2.54998 1.66859)
(-1.59241e-15 -5.12334 0.077396)
(-1.6847e-15 -5.65451 0.0543717)
(-1.97453e-15 -5.65914 -0.637129)
(-2.71452e-15 -6.1548 -1.02187)
(-2.91808e-15 -5.80264 -2.06713)
(-1.27476e-15 -3.49406 -2.00529)
(5.76215e-16 -1.01148 -1.56588)
(8.76077e-16 1.60702 -1.078)
(9.83847e-16 3.44001 -0.346693)
(7.12399e-16 3.75201 0.205723)
(-3.57141e-15 0.0633416 4.36915)
(-3.64649e-15 0.078656 4.38236)
(-3.66613e-15 0.0654879 4.39319)
(-3.7048e-15 0.0734995 4.42144)
(-3.73385e-15 0.0867978 4.42968)
(-3.76137e-15 0.101668 4.42732)
(-3.78681e-15 0.115735 4.42105)
(-3.81126e-15 0.118204 4.4246)
(-3.83661e-15 0.109834 4.44633)
(-3.86267e-15 0.111298 4.46872)
(-3.89001e-15 0.12044 4.47093)
(-3.921e-15 0.0960534 4.45631)
(-3.9599e-15 0.0162547 4.45368)
(-4.0088e-15 -0.080088 4.48264)
(-4.06632e-15 -0.149761 4.54018)
(-4.13551e-15 -0.197387 4.62903)
(-4.21694e-15 -0.230627 4.7286)
(-4.30591e-15 -0.245376 4.79616)
(-4.39972e-15 -0.256074 4.84952)
(-4.5056e-15 -0.309476 4.93512)
(-4.60712e-15 -0.365637 5.03211)
(-4.69685e-15 -0.44693 5.12632)
(-4.77131e-15 -0.536157 5.21691)
(-4.83334e-15 -0.633024 5.30325)
(-4.89867e-15 -0.725889 5.38327)
(-4.99167e-15 -0.823509 5.46156)
(-5.13523e-15 -0.944147 5.56358)
(-5.33398e-15 -1.10605 5.70337)
(-5.56573e-15 -1.31701 5.89991)
(-5.78659e-15 -1.57943 6.16367)
(-5.94381e-15 -1.89046 6.48745)
(-5.98928e-15 -2.24872 6.84962)
(-5.901e-15 -2.65467 7.22895)
(-5.70787e-15 -3.10578 7.60688)
(-5.4901e-15 -3.60366 7.97654)
(-5.34005e-15 -4.15171 8.3472)
(-5.31353e-15 -4.76149 8.73821)
(-5.41414e-15 -5.45728 9.20367)
(-5.62484e-15 -6.23962 9.84304)
(-5.90612e-15 -6.94185 10.5935)
(-5.96188e-15 -6.87813 10.6583)
(-4.87398e-15 -4.45829 7.59861)
(-1.41137e-15 1.48847 -1.99088)
(6.48907e-16 4.04393 -5.2585)
(1.22981e-15 2.5536 -4.18809)
(1.33992e-15 -0.430909 -1.56011)
(5.3752e-16 -1.99935 1.95355)
(9.11142e-17 -3.55586 4.14097)
(2.92909e-16 -4.60138 4.6142)
(4.29146e-16 -5.38466 5.42983)
(8.27421e-16 -5.91117 6.06031)
(1.54858e-15 -6.61741 6.98931)
(2.16889e-15 -7.84952 8.39402)
(2.01308e-15 -9.62574 10.4937)
(6.55371e-16 -11.827 13.5093)
(-1.58933e-15 -13.8599 17.0311)