/*--------------------------------*- C++ -*----------------------------------*\
| =========                 |                                                 |
| \\      /  F ield         | OpenFOAM: The Open Source CFD Toolbox           |
|  \\    /   O peration     | Version:  4.1                                   |
|   \\  /    A nd           | Web:      www.OpenFOAM.org                      |
|    \\/     M anipulation  |                                                 |
\*---------------------------------------------------------------------------*/
FoamFile
{
    version     2.0;
    format      ascii;
    class       surfaceScalarField;
    location    "15";
    object      phi;
}
// * * * * * * * * * * * * * * * * * * * * * * * * * * * * * * * * * * * * * //

dimensions      [0 3 -1 0 0 0 0];

internalField   nonuniform List<scalar> 
420
(
-949.879
2249.78
-1573.95
1924.28
-2054
1779.95
-2424.23
1670.13
-2699.86
1575.82
-2888.38
1488.42
-2993.05
1404.58
-3013.85
1321
-2949.61
1235.66
-2797.23
1147.52
-2551.16
1054.13
-2193
941.734
-1687.16
794.065
-1012.67
625.708
287.226
373.336
1876.44
442.749
1854.86
437.301
1785.39
406.698
1700.74
380.579
1601.94
359.9
1509.1
345.291
1419.19
337.534
1328.76
333.48
1239.71
326.952
1154.05
309.606
1071.48
267.467
983.877
191.428
870.103
111.452
705.683
398.678
33.5761
1842.87
-97.3886
1985.83
-253.613
1941.62
-371.119
1818.24
-473.183
1704.01
-567.531
1603.45
-651.748
1503.4
-725.794
1402.81
-788.073
1301.99
-837.306
1203.28
-868.226
1102.4
-856.09
971.74
-740.338
754.35
-434.287
399.631
-35.6082
28.7764
1814.09
-100.652
2115.26
-225.559
2066.53
-304.495
1897.18
-368.156
1767.67
-416.953
1652.24
-446.229
1532.68
-457.016
1413.59
-451.854
1296.83
-430.155
1181.59
-387.227
1059.47
-311.873
896.387
-192.865
635.342
-48.4077
255.174
-84.0159
169.627
1644.47
146.159
2138.73
123.733
2088.95
122.871
1898.04
126.942
1763.6
135.805
1643.38
149.102
1519.38
166.59
1396.1
186.941
1276.48
208.13
1160.4
229.131
1038.47
243.823
881.694
233.005
646.16
155.23
332.949
71.2139
223.079
1421.39
244.184
2117.62
234.746
2098.39
236.023
1896.76
240.371
1759.25
244.305
1639.45
246.547
1517.14
245.25
1397.4
241.161
1280.57
233.986
1167.57
221.38
1051.08
199.138
903.938
156.141
689.159
78.3023
410.79
149.516
203.321
1218.07
238.377
2082.57
213.623
2123.14
191.412
1918.98
177.205
1773.46
163.775
1652.88
150.042
1530.88
135.901
1411.54
121.075
1295.39
106.923
1181.72
92.8242
1065.17
75.7751
920.992
52.0277
712.909
19.024
443.796
168.54
171.856
1046.21
221.99
2032.43
199.432
2145.7
170.416
1947.99
152.066
1791.81
137.685
1667.26
122.796
1545.76
108.599
1425.74
95.6037
1308.39
83.1267
1194.2
71.5052
1076.79
58.6535
933.844
40.3359
731.223
15.7537
468.375
184.294
146.1
900.113
210.066
1968.47
196.883
2158.89
170.063
1974.81
152.414
1809.46
139.544
1680.13
127.08
1558.23
113.874
1438.95
101.33
1320.93
89.4304
1206.1
76.9977
1089.23
63.1009
947.74
44.3174
750.006
19.1735
493.519
203.467
116.764
783.351
184.856
1900.38
179.632
2164.11
154.315
2000.13
137.225
1826.55
124.004
1693.35
111.375
1570.86
98.9633
1451.36
86.1095
1333.79
73.8667
1218.35
62.1025
1100.99
49.025
960.819
32.8573
766.177
13.1858
513.193
216.653
83.1609
700.19
143.13
1840.41
144.685
2162.56
122.758
2022.06
106.152
1843.16
94.4645
1705.04
82.5848
1582.74
71.1758
1462.77
60.3926
1344.57
49.4672
1229.28
39.4267
1111.03
29.7502
970.508
18.0873
777.847
5.2427
526.043
221.896
51.2363
648.95
97.9083
1793.73
102.699
2157.77
87.3691
2037.38
73.1456
1857.38
63.1386
1715.04
54.2455
1591.63
44.8717
1472.14
36.1649
1353.27
28.1952
1237.25
20.4476
1118.77
13.7
977.246
6.74433
784.785
-0.413353
533.185
221.482
25.1124
623.833
57.6858
1761.15
63.4729
2151.97
53.4328
2047.42
43.8538
1866.95
36.1378
1722.75
29.5122
1598.26
23.4679
1478.18
17.0313
1359.71
11.2899
1242.98
6.60657
1123.46
2.46852
981.362
-1.07871
788.319
-3.69169
535.787
217.791
1.42014
622.411
24.0534
1738.52
33.3453
2142.68
27.7097
2053.05
20.3476
1874.31
15.0364
1728.06
9.49834
1603.79
4.53061
1483.14
-0.014843
1364.26
-4.89714
1247.85
-8.40341
1126.97
-9.70598
982.672
-9.74923
788.388
-7.14299
533.204
210.648
-11.7124
-3.10243
1.4907
-0.356446
-5.04841
-8.79104
-11.74
-15.1813
-18.046
-20.1876
-21.7551
-21.0979
-18.1145
-12.3844
)
;

boundaryField
{
    inletFace
    {
        type            calculated;
        value           nonuniform List<scalar> 
450
(
-1.6299e-14
5.85514e-13
-2.27479e-13
-1.25974e-13
1.50959e-13
-1.92493e-13
-6.4721e-14
6.8106e-14
-1.05729e-13
-3.52787e-14
4.27377e-14
-5.50184e-14
-2.48373e-15
1.3337e-14
1.68987e-16
-2.11646e-12
-2.27575e-12
-5.58872e-14
-6.06321e-13
-2.7676e-13
2.46705e-14
-2.87391e-13
-1.46395e-13
1.1329e-15
-1.43476e-13
-6.83641e-14
1.43141e-14
-7.24483e-14
-1.19308e-14
-2.59153e-16
-2.28605e-12
-2.4129e-12
-2.43078e-13
-6.07961e-13
-2.46261e-13
-1.03767e-13
-2.81946e-13
-1.13153e-13
-1.02991e-13
-1.26993e-13
-4.7572e-14
-5.77107e-14
-4.71705e-14
6.67288e-15
4.60675e-15
-2.58304e-12
-2.28179e-12
-3.44658e-13
-7.92914e-13
-2.17909e-13
-2.12839e-13
-3.93443e-13
-8.54398e-14
-1.72339e-13
-2.0859e-13
-5.10014e-14
-9.6541e-14
-9.88894e-14
4.47821e-14
1.03739e-13
-2.40022e-12
-2.32138e-12
-4.58075e-13
-7.37386e-13
-2.27297e-13
-2.23678e-13
-3.60961e-13
-9.06445e-14
-1.61176e-13
-1.90156e-13
-6.59829e-14
-7.60684e-14
-8.12911e-14
1.23797e-14
9.65385e-14
-2.11381e-12
-2.35439e-12
-6.39617e-13
-6.50002e-13
-2.3279e-13
-1.7827e-13
-3.15503e-13
-9.31084e-14
-1.13366e-13
-1.67276e-13
-6.24765e-14
-4.89852e-14
-6.49766e-14
8.2001e-15
5.24683e-14
-1.89912e-12
-2.42652e-12
-8.8718e-13
-6.31417e-13
-2.84724e-13
-2.02117e-13
-3.08452e-13
-1.34832e-13
-1.46565e-13
-1.65267e-13
-9.13742e-14
-1.07408e-13
-7.63084e-14
-7.62697e-14
-1.86553e-13
-1.66533e-12
-2.44448e-12
-1.10652e-12
-6.38691e-13
-3.22679e-13
-2.29645e-13
-2.93733e-13
-1.66193e-13
-1.86427e-13
-1.65393e-13
-1.29047e-13
-1.75454e-13
-8.22155e-14
-3.56042e-14
-2.58492e-13
-1.40978e-12
-2.41817e-12
-1.272e-12
-6.65342e-13
-3.48308e-13
-2.17846e-13
-2.85982e-13
-1.84381e-13
-1.62466e-13
-1.70788e-13
-1.37737e-13
-1.38188e-13
-9.66535e-14
-4.00427e-14
-7.73074e-14
-1.20568e-12
-2.35712e-12
-1.397e-12
-7.11885e-13
-3.67538e-13
-2.03938e-13
-2.68663e-13
-1.91478e-13
-1.36657e-13
-1.60859e-13
-1.34723e-13
-1.11229e-13
-9.11728e-14
-5.19541e-14
3.27219e-14
-9.90817e-13
-2.28256e-12
-1.49356e-12
-7.44206e-13
-3.86663e-13
-1.92721e-13
-2.25115e-13
-1.93676e-13
-1.13374e-13
-1.1426e-13
-1.34264e-13
-9.19303e-14
-2.33466e-14
-3.34079e-14
7.41682e-14
-8.60647e-13
-2.22112e-12
-1.53847e-12
-7.83602e-13
-4.10763e-13
-1.63372e-13
-2.27267e-13
-2.03965e-13
-7.12403e-14
-1.10124e-13
-1.42581e-13
-4.07533e-14
-1.98121e-14
6.49562e-14
9.2619e-14
-7.94885e-13
-2.15868e-12
-1.57215e-12
-8.15562e-13
-4.26692e-13
-1.58903e-13
-2.19689e-13
-2.23134e-13
-6.48688e-14
-1.07934e-13
-1.40634e-13
-1.4629e-14
-2.28359e-14
7.79265e-14
9.90375e-14
-7.44081e-13
-2.10662e-12
-1.59311e-12
-8.3111e-13
-4.34687e-13
-1.6579e-13
-2.11997e-13
-2.38349e-13
-6.35434e-14
-1.09124e-13
-1.4254e-13
-8.0755e-15
-1.92542e-14
6.64509e-14
9.21009e-14
-7.37135e-13
-2.03205e-12
-1.58479e-12
-8.42257e-13
-4.33768e-13
-1.77735e-13
-2.14082e-13
-2.25029e-13
-7.48481e-14
-1.13236e-13
-1.26187e-13
-1.74662e-14
-1.50057e-14
6.90897e-14
4.64016e-14
1.6299e-14
-5.85514e-13
2.27479e-13
1.25974e-13
-1.50959e-13
1.92493e-13
6.4721e-14
-6.8106e-14
1.05729e-13
3.52787e-14
-4.27377e-14
5.50184e-14
2.48373e-15
-1.3337e-14
-1.68987e-16
2.11646e-12
2.27575e-12
5.58872e-14
6.06321e-13
2.7676e-13
-2.46705e-14
2.87391e-13
1.46395e-13
-1.1329e-15
1.43476e-13
6.83641e-14
-1.43141e-14
7.24483e-14
1.19308e-14
2.59153e-16
2.28605e-12
2.4129e-12
2.43078e-13
6.07961e-13
2.46261e-13
1.03767e-13
2.81946e-13
1.13153e-13
1.02991e-13
1.26993e-13
4.7572e-14
5.77107e-14
4.71705e-14
-6.67288e-15
-4.60675e-15
2.58304e-12
2.28179e-12
3.44658e-13
7.92914e-13
2.17909e-13
2.12839e-13
3.93443e-13
8.54398e-14
1.72339e-13
2.0859e-13
5.10014e-14
9.6541e-14
9.88894e-14
-4.47821e-14
-1.03739e-13
2.40022e-12
2.32138e-12
4.58075e-13
7.37386e-13
2.27297e-13
2.23678e-13
3.60961e-13
9.06445e-14
1.61176e-13
1.90156e-13
6.59829e-14
7.60684e-14
8.12911e-14
-1.23797e-14
-9.65385e-14
2.11381e-12
2.35439e-12
6.39617e-13
6.50002e-13
2.3279e-13
1.7827e-13
3.15503e-13
9.31084e-14
1.13366e-13
1.67276e-13
6.24765e-14
4.89852e-14
6.49766e-14
-8.2001e-15
-5.24683e-14
1.89912e-12
2.42652e-12
8.8718e-13
6.31417e-13
2.84724e-13
2.02117e-13
3.08452e-13
1.34832e-13
1.46565e-13
1.65267e-13
9.13742e-14
1.07408e-13
7.63084e-14
7.62697e-14
1.86553e-13
1.66533e-12
2.44448e-12
1.10652e-12
6.38691e-13
3.22679e-13
2.29645e-13
2.93733e-13
1.66193e-13
1.86427e-13
1.65393e-13
1.29047e-13
1.75454e-13
8.22155e-14
3.56042e-14
2.58492e-13
1.40978e-12
2.41817e-12
1.272e-12
6.65342e-13
3.48308e-13
2.17846e-13
2.85982e-13
1.84381e-13
1.62466e-13
1.70788e-13
1.37737e-13
1.38188e-13
9.66535e-14
4.00427e-14
7.73074e-14
1.20568e-12
2.35712e-12
1.397e-12
7.11885e-13
3.67538e-13
2.03938e-13
2.68663e-13
1.91478e-13
1.36657e-13
1.60859e-13
1.34723e-13
1.11229e-13
9.11728e-14
5.19541e-14
-3.27219e-14
9.90817e-13
2.28256e-12
1.49356e-12
7.44206e-13
3.86663e-13
1.92721e-13
2.25115e-13
1.93676e-13
1.13374e-13
1.1426e-13
1.34264e-13
9.19303e-14
2.33466e-14
3.34079e-14
-7.41682e-14
8.60647e-13
2.22112e-12
1.53847e-12
7.83602e-13
4.10763e-13
1.63372e-13
2.27267e-13
2.03965e-13
7.12403e-14
1.10124e-13
1.42581e-13
4.07533e-14
1.98121e-14
-6.49562e-14
-9.2619e-14
7.94885e-13
2.15868e-12
1.57215e-12
8.15562e-13
4.26692e-13
1.58903e-13
2.19689e-13
2.23134e-13
6.48688e-14
1.07934e-13
1.40634e-13
1.4629e-14
2.28359e-14
-7.79265e-14
-9.90375e-14
7.44081e-13
2.10662e-12
1.59311e-12
8.3111e-13
4.34687e-13
1.6579e-13
2.11997e-13
2.38349e-13
6.35434e-14
1.09124e-13
1.4254e-13
8.0755e-15
1.92542e-14
-6.64509e-14
-9.21009e-14
7.37135e-13
2.03205e-12
1.58479e-12
8.42257e-13
4.33768e-13
1.77735e-13
2.14082e-13
2.25029e-13
7.48481e-14
1.13236e-13
1.26187e-13
1.74662e-14
1.50057e-14
-6.90897e-14
-4.64016e-14
)
;
    }
    inlet
    {
        type            calculated;
        value           nonuniform List<scalar> 
15
(
-1299.9
-1300.2
-1299.9
-1299.9
-1300.2
-1299.9
-1299.9
-1300.2
-1299.9
-1299.9
-1300.2
-1299.9
-1299.9
-1300.2
-1299.9
)
;
    }
    inletWalls
    {
        type            calculated;
        value           uniform 0;
    }
    outletInlet
    {
        type            calculated;
        value           nonuniform List<scalar> 
15
(
198.263
527.474
785.404
982.012
1128.54
1249.99
1367.12
1486.58
1606.74
1731.8
1879
2054.9
2138.09
1729.91
634.127
)
;
    }
}


// ************************************************************************* //
