/*--------------------------------*- C++ -*----------------------------------*\
| =========                 |                                                 |
| \\      /  F ield         | OpenFOAM: The Open Source CFD Toolbox           |
|  \\    /   O peration     | Version:  4.1                                   |
|   \\  /    A nd           | Web:      www.OpenFOAM.org                      |
|    \\/     M anipulation  |                                                 |
\*---------------------------------------------------------------------------*/
FoamFile
{
    version     2.0;
    format      ascii;
    class       volVectorField;
    location    "15";
    object      U;
}
// * * * * * * * * * * * * * * * * * * * * * * * * * * * * * * * * * * * * * //

dimensions      [0 1 -1 0 0 0 0];

internalField   nonuniform List<vector> 
225
(
(1.1144e-14 0.852192 15.7946)
(9.23009e-15 -4.89458 12.1215)
(-2.23509e-15 -4.19551 12.1321)
(4.31164e-15 -3.60118 11.9966)
(5.58465e-16 -3.00468 11.8778)
(-2.00283e-16 -2.55319 11.6992)
(1.94432e-15 -2.20881 11.4769)
(2.73033e-16 -1.96603 11.2116)
(-2.36627e-17 -1.79855 10.916)
(1.0274e-15 -1.71239 10.5882)
(1.20165e-16 -1.83746 10.1561)
(-7.68449e-17 -2.28568 9.53761)
(-3.52425e-18 -2.51302 8.96377)
(-9.23296e-17 -1.06553 8.91357)
(-1.16987e-18 1.76574 7.47092)
(1.53414e-14 -5.35014 22.493)
(1.57564e-14 -14.6049 21.394)
(3.86896e-16 -13.2708 20.3411)
(6.2526e-15 -11.7697 19.5066)
(1.91618e-15 -11.1561 18.5044)
(-1.70789e-16 -10.6594 17.5174)
(2.1003e-15 -10.0901 16.5714)
(1.01358e-15 -9.525 15.6236)
(-7.84287e-18 -8.96544 14.6638)
(9.60545e-16 -8.36731 13.6946)
(4.73325e-16 -7.75709 12.7178)
(-9.90934e-17 -7.30335 11.7194)
(4.93863e-16 -7.01706 10.6244)
(8.26043e-17 -5.73098 9.16117)
(1.79406e-18 -2.30499 4.58321)
(1.78716e-14 -7.71562 23.9801)
(1.63084e-14 -16.7731 24.6729)
(1.68298e-15 -13.7365 23.9372)
(5.72814e-15 -12.3062 22.6249)
(1.70482e-15 -11.6447 21.2414)
(7.18443e-16 -10.814 20.0013)
(3.09185e-15 -9.94025 18.7738)
(5.9188e-16 -9.10011 17.5247)
(7.13073e-16 -8.28338 16.2655)
(1.6683e-15 -7.47525 15.0263)
(3.29332e-16 -6.66762 13.8177)
(3.99567e-16 -5.84165 12.4301)
(8.09874e-16 -4.81388 10.2752)
(-4.61952e-17 -3.12623 6.68439)
(-3.18954e-17 -0.832087 1.68986)
(1.78749e-14 -8.50255 22.0462)
(1.57966e-14 -16.6211 24.332)
(2.59063e-15 -12.93 23.7971)
(5.48988e-15 -12.1536 21.9985)
(1.43735e-15 -11.4201 20.5028)
(1.49778e-15 -10.4936 19.1722)
(2.72407e-15 -9.63388 17.8167)
(5.12498e-16 -8.82359 16.459)
(1.22093e-15 -8.05363 15.123)
(1.42931e-15 -7.32378 13.8165)
(3.44945e-16 -6.55248 12.4394)
(6.49626e-16 -5.49088 10.583)
(6.59852e-16 -3.78523 7.50865)
(-1.17398e-16 -1.49361 2.76596)
(-1.1803e-15 0.153304 -1.77303)
(1.64048e-14 -8.47609 19.748)
(1.74546e-14 -16.3601 24.312)
(2.99284e-15 -13.099 23.6602)
(4.91016e-15 -12.628 21.5365)
(1.26264e-15 -11.8565 20.0248)
(2.4275e-15 -10.9574 18.6637)
(2.38199e-15 -10.1698 17.2587)
(3.78905e-16 -9.40277 15.8711)
(9.83452e-16 -8.65259 14.5236)
(1.2459e-15 -7.93051 13.2136)
(-4.52161e-16 -7.16588 11.8292)
(4.41943e-16 -6.11615 9.99627)
(4.56426e-16 -4.42401 7.15552)
(-4.43888e-16 -2.30526 3.28785)
(-3.95838e-16 -0.787169 0.317701)
(1.48577e-14 -8.02185 17.5536)
(1.6341e-14 -16.0195 24.5278)
(4.55554e-15 -13.6434 24.0462)
(4.49988e-15 -12.9943 21.7651)
(1.6607e-15 -12.1264 20.2158)
(1.85852e-15 -11.2247 18.847)
(1.68557e-15 -10.439 17.4341)
(7.03866e-16 -9.64888 16.0434)
(9.7617e-16 -8.86035 14.6933)
(1.15803e-15 -8.09325 13.3817)
(5.07995e-16 -7.29729 12.0171)
(5.97924e-16 -6.28457 10.2818)
(4.49825e-16 -4.73298 7.72086)
(3.00842e-16 -2.7561 4.3724)
(1.01843e-15 -0.949369 1.29731)
(1.32816e-14 -7.33733 15.2534)
(1.6607e-14 -15.491 24.3551)
(6.22641e-15 -14.0226 24.4218)
(4.37173e-15 -13.1279 22.0676)
(2.02142e-15 -12.1448 20.4401)
(1.50695e-15 -11.2358 19.0547)
(2.13562e-15 -10.4361 17.6437)
(1.62366e-15 -9.61985 16.2576)
(5.37041e-16 -8.81018 14.9066)
(1.14426e-15 -8.02725 13.5919)
(7.9745e-16 -7.22396 12.2368)
(1.12256e-15 -6.24027 10.5488)
(5.28335e-16 -4.78752 8.10748)
(1.5319e-16 -2.91411 4.94713)
(1.57195e-15 -1.01086 1.79737)
(1.13436e-14 -6.55612 13.0328)
(1.69243e-14 -14.847 23.8163)
(7.61796e-15 -14.2639 24.6691)
(4.37497e-15 -13.2372 22.3215)
(2.23406e-15 -12.1674 20.5832)
(1.48137e-15 -11.2657 19.1667)
(2.61753e-15 -10.4651 17.7587)
(1.15063e-15 -9.64319 16.3766)
(1.15297e-15 -8.83499 15.0246)
(1.14496e-15 -8.05535 13.7074)
(8.93453e-16 -7.25506 12.3577)
(1.02437e-15 -6.28696 10.6996)
(5.69151e-16 -4.89107 8.33103)
(2.46504e-16 -3.08527 5.26772)
(1.29289e-15 -1.12219 2.04392)
(9.7597e-15 -5.77818 11.1235)
(1.67407e-14 -14.1745 23.0905)
(8.68103e-15 -14.4413 24.8463)
(4.60608e-15 -13.3964 22.6149)
(2.4113e-15 -12.2528 20.7554)
(1.34698e-15 -11.3493 19.2955)
(1.97982e-15 -10.5477 17.8904)
(1.27645e-15 -9.72547 16.511)
(9.2096e-16 -8.91947 15.1562)
(1.18235e-15 -8.14027 13.8352)
(9.53534e-16 -7.34 12.4864)
(-1.6557e-16 -6.38022 10.8513)
(6.6912e-16 -5.02358 8.5468)
(2.77211e-16 -3.26582 5.55838)
(-8.92747e-17 -1.23752 2.24765)
(8.62833e-15 -5.08475 9.59892)
(1.63181e-14 -13.5191 22.3)
(9.20748e-15 -14.535 24.9523)
(4.83741e-15 -13.5531 22.9353)
(2.54442e-15 -12.3448 20.9699)
(1.30416e-15 -11.4251 19.4566)
(2.26584e-15 -10.6174 18.0506)
(1.32558e-15 -9.79447 16.6721)
(1.49065e-15 -8.98828 15.3136)
(8.90557e-16 -8.20622 13.9874)
(9.3267e-16 -7.40472 12.6356)
(6.7641e-16 -6.45147 11.0132)
(1.44313e-15 -5.12525 8.75513)
(3.59672e-16 -3.40657 5.81957)
(-5.2672e-16 -1.31906 2.43092)
(6.39849e-15 -4.53845 8.46181)
(1.56052e-14 -12.9254 21.5502)
(1.0211e-14 -14.5349 24.9758)
(5.12893e-15 -13.6654 23.2211)
(2.72739e-15 -12.4128 21.1812)
(1.11675e-15 -11.4736 19.6121)
(1.03173e-15 -10.659 18.2004)
(1.40418e-15 -9.837 16.8209)
(5.09824e-16 -9.0321 15.4586)
(7.90987e-16 -8.2486 14.1269)
(1.01251e-15 -7.4465 12.7692)
(-5.91336e-16 -6.49774 11.1498)
(1.61621e-16 -5.19263 8.91851)
(-2.68268e-16 -3.50194 6.01064)
(-1.71938e-15 -1.36381 2.54254)
(5.95815e-15 -4.17016 7.70227)
(1.54024e-14 -12.4376 20.9276)
(1.039e-14 -14.4734 24.9366)
(5.42478e-15 -13.7316 23.4379)
(2.86907e-15 -12.4592 21.3594)
(1.04868e-15 -11.5039 19.7405)
(1.57334e-15 -10.6833 18.3207)
(1.50794e-15 -9.86362 16.9392)
(7.71177e-16 -9.06125 15.573)
(7.62378e-16 -8.27773 14.2365)
(9.87073e-16 -7.47504 12.8711)
(1.39272e-16 -6.52696 11.2467)
(1.95645e-16 -5.23319 9.02668)
(-5.32689e-16 -3.5581 6.12632)
(-8.33067e-16 -1.37731 2.57263)
(5.40428e-15 -3.97318 7.27933)
(1.49174e-14 -12.0681 20.4611)
(1.09061e-14 -14.3843 24.8627)
(5.49443e-15 -13.7599 23.5828)
(2.95394e-15 -12.4875 21.4969)
(1.10007e-15 -11.5229 19.8406)
(1.49115e-15 -10.6965 18.412)
(1.64157e-15 -9.87987 17.0278)
(4.14036e-16 -9.08047 15.6584)
(7.47304e-16 -8.29717 14.317)
(1.01576e-15 -7.49315 12.9422)
(5.33265e-17 -6.54217 11.3062)
(1.58109e-16 -5.25097 9.0844)
(-4.56961e-16 -3.57875 6.17538)
(-8.3363e-16 -1.36501 2.53859)
(5.10381e-15 -3.90371 7.11019)
(1.45713e-14 -11.8314 20.1819)
(1.10059e-14 -14.2998 24.7902)
(5.74168e-15 -13.7667 23.6686)
(2.99661e-15 -12.5018 21.5898)
(1.14771e-15 -11.5319 19.9095)
(1.48266e-15 -10.7002 18.4745)
(1.63392e-15 -9.88532 17.0883)
(4.3989e-16 -9.0877 15.7171)
(7.74651e-16 -8.30382 14.3728)
(9.65815e-16 -7.49757 12.9905)
(5.5904e-17 -6.5429 11.3432)
(1.62319e-16 -5.25315 9.11698)
(-5.00929e-16 -3.58341 6.20125)
(-6.37584e-16 -1.3499 2.50607)
(5.08829e-15 -4.03903 7.28601)
(1.40606e-14 -11.627 19.952)
(1.09783e-14 -14.1917 24.6681)
(5.83085e-15 -13.7464 23.7083)
(2.99641e-15 -12.5066 21.6737)
(1.23761e-15 -11.5393 19.9773)
(1.48206e-15 -10.6995 18.535)
(1.54976e-15 -9.887 17.1438)
(5.26955e-16 -9.09054 15.7694)
(7.83922e-16 -8.30496 14.4183)
(8.68383e-16 -7.48989 13.0147)
(1.26817e-16 -6.51525 11.328)
(1.03883e-16 -5.20589 9.0611)
(-4.88479e-16 -3.50158 6.08271)
(-3.02143e-16 -1.25246 2.30719)
)
;

boundaryField
{
    inletFace
    {
        type            zeroGradient;
    }
    inlet
    {
        type            fixedValue;
        value           uniform (0 8.7 15);
    }
    inletWalls
    {
        type            noSlip;
    }
    outletInlet
    {
        type            zeroGradient;
    }
}


// ************************************************************************* //
