/*--------------------------------*- C++ -*----------------------------------*\
| =========                 |                                                 |
| \\      /  F ield         | OpenFOAM: The Open Source CFD Toolbox           |
|  \\    /   O peration     | Version:  4.1                                   |
|   \\  /    A nd           | Web:      www.OpenFOAM.org                      |
|    \\/     M anipulation  |                                                 |
\*---------------------------------------------------------------------------*/
FoamFile
{
    version     2.0;
    format      ascii;
    class       volScalarField;
    location    "23";
    object      p;
}
// * * * * * * * * * * * * * * * * * * * * * * * * * * * * * * * * * * * * * //

dimensions      [0 2 -2 0 0 0 0];

internalField   nonuniform List<scalar> 
6785
(
584.029
508.37
460.568
408.314
361.737
317.203
275.524
236.06
198.719
163.342
129.102
96.2246
68.5217
38.7811
-1.61303
-8.00775
-26.2234
-17.3632
-23.9284
-24.0266
-26.4104
-27.348
-27.9456
-27.5948
-26.2592
-24.0047
-20.6647
-15.2565
-10.1829
-8.64242
-13.6505
-19.5608
-11.0447
-16.1776
-13.6042
-15.3215
-15.5598
-16.8047
-17.9953
-19.533
-21.1882
-22.437
-22.9176
-23.3249
-22.8668
-7.19536
-10.842
-8.17328
-13.8649
-13.1556
-16.826
-18.2893
-20.7039
-22.6156
-24.513
-26.0029
-26.8039
-25.8556
-24.892
-22.827
-6.77849
-8.27211
-4.70168
-7.20418
-3.70339
-4.28504
-2.35398
-1.3057
0.245307
1.82653
3.61971
5.33828
7.52315
9.00835
11.5214
16.2738
16.6056
20.1635
19.0852
22.5634
22.7491
24.8457
26.1269
27.6447
29.0984
30.5657
31.9148
33.4538
34.5966
36.1689
37.1311
37.8959
40.3587
39.4631
41.9346
41.6902
43.0844
43.4289
44.0061
44.3973
44.8953
45.5699
46.4748
47.183
48.1085
47.5491
48.0263
49.5103
48.759
50.5437
50.1834
51.2484
51.3442
51.7509
51.8116
51.7159
51.3962
50.9499
50.9724
50.8083
55.0741
53.3821
54.3506
52.5434
53.2719
51.7903
51.6171
50.1098
48.6702
46.4167
43.9996
41.7328
40.3808
39.8745
37.6624
27.77
23.3243
22.5611
19.0756
17.9045
14.9586
13.4213
11.27
10.0821
8.87465
8.15945
7.79339
7.69417
6.73085
4.056
-8.40663
-12.6068
-13.3837
-16.2941
-17.5115
-20.1046
-21.65
-23.649
-25.1734
-26.8424
-28.365
-29.5548
-30.7196
-31.6117
-30.5761
-19.3798
-20.1133
-19.8725
-21.1672
-21.1118
-22.1412
-22.5519
-23.3463
-23.8387
-24.1983
-24.0828
-23.4565
-22.0364
-20.5912
-17.9972
6.65338
7.71395
8.39867
8.30436
9.06756
9.16082
9.63906
10.0432
10.6337
11.373
12.3832
13.5215
15.0334
16.2891
18.1571
17.5645
20.3229
20.6637
20.4524
20.7476
21.0397
21.7647
22.4537
23.2339
23.9785
24.6958
25.2771
25.8386
26.1463
26.4546
68.8098
67.5375
63.1539
55.8564
49.835
45.0946
40.1456
35.7742
32.1303
28.8406
25.989
23.6514
21.5117
19.9906
17.363
33.7511
34.1127
34.7499
34.6363
34.8483
35.6208
36.5148
36.2814
36.1542
35.9528
36.8995
36.2102
35.7109
36.3418
35.3168
34.9376
34.883
35.2461
33.4811
33.7735
34.1211
32.4261
32.0738
33.022
33.1121
31.3212
31.0907
32.2821
32.8331
30.7203
32.0189
32.7532
31.248
31.1292
32.3889
33.1296
31.6062
32.5932
33.4814
32.5428
32.4878
33.35
33.9135
33.2112
33.1876
33.8202
34.0789
33.4373
33.9209
34.3047
33.9483
33.9663
34.3077
34.9568
34.7808
34.7684
34.922
35.8895
35.7658
35.857
35.9796
35.9663
36.0076
35.8684
36.3491
36.7088
37.9696
35.9001
34.1379
35.9758
38.2413
27.9424
23.9058
28.4514
32.153
3.8116
16.0458
22.6261
-28.8715
-13.4209
-6.02451
-8.59885
-4.19793
-12.3114
-9.16111
-4.40025
-4.33557
-3.70823
-3.23501
-2.67134
-1.93025
1.3651
2.0042
-2.95473
-1.40813
0.388791
2.39821
2.69975
3.40266
3.38086
5.22339
8.94085
4.84589
6.2127
5.9186
6.81985
8.7612
9.69347
9.60011
9.50417
8.90078
12.7663
12.3061
12.7355
12.5861
12.0962
12.9287
14.536
14.2975
11.2232
11.726
17.1932
18.6754
19.1893
18.3503
17.6924
17.0103
18.5751
15.695
15.8313
25.7089
22.8877
23.7699
23.8387
22.0751
20.6724
18.895
13.1642
19.0099
26.7192
20.5216
17.6959
13.56
10.1138
6.91434
4.63166
1.89621
-2.22456
-3.66892
6.83272
1.80343
1.04069
-0.591349
-2.96609
-9.15768
-11.1266
-8.27625
-18.5658
-2.33423
-4.72686
-5.37821
0.0374032
-0.626522
1.53239
2.25592
3.19986
3.97342
4.18776
4.46878
4.55639
4.64436
4.61527
4.42033
4.48112
4.26506
4.45601
4.16192
3.91981
4.00679
3.68628
4.26216
3.77447
3.07351
4.25574
3.41135
2.91904
3.26823
2.6701
4.21589
2.97817
2.44416
2.86331
2.21675
4.06011
2.83619
1.46169
4.10906
2.48173
1.71272
2.33174
1.50357
4.02002
2.17616
1.40309
2.0629
1.20413
3.7715
2.19728
0.442111
3.76772
1.88408
0.873267
1.67241
0.736547
3.49231
1.66722
0.568218
1.47146
0.416506
3.04541
1.74442
-0.366339
2.95762
1.55924
-0.00665823
1.14945
-0.0161258
2.66989
1.2084
-0.213499
0.846761
-0.313722
2.25113
1.00762
-1.25071
2.11004
0.547765
-1.06397
-0.234174
-1.14795
-0.00402092
0.0828391
0.0367986
0.0326202
0.0219042
0.0148028
0.00883103
0.00402318
-0.000377747
-0.00503049
-0.0103568
-0.0164377
-0.0228057
-0.0284213
-0.0318767
-0.0321032
-0.0292564
-0.0250518
-0.0255725
-0.0492216
-0.107676
-0.102137
-0.208636
-0.322227
-0.353725
-0.477835
-0.62454
-0.758194
-0.868843
-0.950732
-0.996348
-1.00597
-0.982959
-0.928206
-0.845893
-0.741632
-0.620919
-0.488924
-0.348782
-0.203679
-0.0584354
0.0839279
0.222478
0.356198
0.483058
0.602141
0.71311
0.814573
0.905992
0.988537
1.06132
1.12106
1.16577
1.19409
1.20342
1.18517
1.12731
1.01462
0.832236
0.580311
0.31074
0.122668
0.0287754
0.00291306
-0.00203383
-0.00517172
-0.0134711
-0.0239868
-0.0262354
-0.0184199
-0.0101033
-0.00499974
0.00983421
0.0193674
0.0711445
0.117455
0.0899923
-0.0696062
0.0155126
-0.107869
0.0203724
-0.0157722
-0.00172
0.00595136
0.0157668
0.024552
0.0317552
0.0368826
0.0387555
0.0361047
0.0270455
0.00968367
-0.0169647
-0.0510123
-0.0867474
-0.117143
-0.13813
-0.1529
-0.177864
-0.232007
-0.178491
-0.232885
-0.43242
-0.506976
-0.746913
-1.00942
-1.24672
-1.44057
-1.58019
-1.65222
-1.65736
-1.60138
-1.48614
-1.32054
-1.11499
-0.878169
-0.618372
-0.343226
-0.0612288
0.22051
0.498544
0.769676
1.0291
1.27405
1.50458
1.71792
1.91082
2.08522
2.24361
2.38062
2.48937
2.56912
2.61518
2.62108
2.56403
2.42141
2.16457
1.77064
1.24505
0.680522
0.28227
0.0749026
0.00913975
-0.00738286
-0.0168542
-0.0342334
-0.0537003
-0.0589434
-0.0459787
-0.0297018
-0.0183581
0.0189961
0.055855
0.183417
0.0910949
-0.0425115
0.176497
0.117311
-0.0938119
0.0772542
0.0151339
0.0279483
0.0287796
0.0347774
0.0405227
0.0451048
0.0472273
0.0446675
0.0353639
0.0168721
-0.0124871
-0.0522634
-0.0977371
-0.140468
-0.173456
-0.195413
-0.213752
-0.253671
-0.348504
-0.303476
-0.142259
-0.439157
-0.529296
-0.812609
-1.1211
-1.39934
-1.62608
-1.78907
-1.87132
-1.87444
-1.80518
-1.66532
-1.4657
-1.21823
-0.933019
-0.620433
-0.289987
0.0487195
0.387615
0.722014
1.04752
1.35892
1.6531
1.92945
2.18497
2.41676
2.62637
2.81522
2.97769
3.10708
3.20172
3.25458
3.25606
3.17938
2.99837
2.68012
2.19626
1.55615
0.86753
0.376776
0.111349
0.0166864
-0.0159405
-0.0367431
-0.0617122
-0.0839276
-0.0858181
-0.0665856
-0.0421457
-0.0210271
0.0387259
0.0940232
0.295607
0.195617
0.127607
0.37593
0.125516
-0.111863
0.0523189
0.000153123
0.0196751
0.0285637
0.0418069
0.0542339
0.0639193
0.0694481
0.0677764
0.0561103
0.0310404
-0.00965483
-0.0648781
-0.127447
-0.186071
-0.232967
-0.26756
-0.296927
-0.34297
-0.436764
-0.398154
-0.0933771
-0.534655
-0.637557
-0.969786
-1.348
-1.68708
-1.96185
-2.15882
-2.25653
-2.25787
-2.17121
-1.99859
-1.75336
-1.44973
-1.10009
-0.717544
-0.313811
0.100051
0.514287
0.92253
1.31918
1.69861
2.05707
2.39314
2.70362
2.98582
3.24068
3.46877
3.66436
3.82054
3.93434
3.99661
3.99468
3.89758
3.6744
3.28616
2.69935
1.92804
1.09577
0.494955
0.158811
0.027216
-0.0284039
-0.0651857
-0.0968866
-0.118892
-0.115423
-0.0889298
-0.0540366
-0.0231439
0.0556514
0.131183
0.389299
0.228825
0.179496
0.541989
0.172049
-0.0876892
0.0516075
0.0103039
0.02995
0.0414332
0.0562944
0.0708514
0.0818817
0.0877566
0.0843524
0.0680298
0.0345477
-0.018259
-0.0875163
-0.162703
-0.230471
-0.284306
-0.325931
-0.363477
-0.417685
-0.513513
-0.489384
-0.115014
-0.584826
-0.749398
-1.13166
-1.58866
-1.99531
-2.3243
-2.56053
-2.67684
-2.67759
-2.5727
-2.36445
-2.06903
-1.70332
-1.28213
-0.821372
-0.335332
0.162833
0.661551
1.15296
1.63008
2.08633
2.5173
2.92101
3.29374
3.63264
3.93853
4.21151
4.44505
4.63152
4.7671
4.84057
4.8362
4.71736
4.44768
3.98048
3.27869
2.35962
1.36251
0.634218
0.215206
0.0387032
-0.0471427
-0.10534
-0.144317
-0.162677
-0.150752
-0.11447
-0.0644922
-0.0210564
0.0747469
0.168368
0.47062
0.270763
0.269728
0.705963
0.233315
-0.0688644
0.0273517
0.0078723
0.0286301
0.0473658
0.0668777
0.0864852
0.101094
0.109105
0.105286
0.0851712
0.0437062
-0.0209463
-0.103598
-0.190521
-0.267728
-0.330825
-0.38312
-0.432445
-0.49599
-0.589242
-0.580119
-0.222571
-0.559112
-0.874108
-1.28791
-1.81907
-2.28771
-2.66521
-2.93631
-3.06766
-3.06586
-2.94217
-2.69891
-2.35515
-1.93016
-1.44101
-0.906261
-0.34259
0.234929
0.813062
1.38252
1.93505
2.46321
2.962
3.42889
3.85972
4.25151
4.60499
4.91971
5.18843
5.403
5.55886
5.64278
5.63626
5.49747
5.18513
4.64477
3.83741
2.78306
1.6322
0.781918
0.278677
0.0507157
-0.0733815
-0.158233
-0.204599
-0.214702
-0.190716
-0.142863
-0.0760379
-0.0171484
0.093966
0.20574
0.53461
0.30615
0.309919
0.786185
0.288659
-0.037308
0.00844122
0.0134824
0.032828
0.0581047
0.0808039
0.104485
0.121798
0.131233
0.126274
0.10154
0.0512747
-0.0253861
-0.12012
-0.216486
-0.301411
-0.372924
-0.435428
-0.496729
-0.571558
-0.666979
-0.671957
-0.363898
-0.475523
-1.02788
-1.45667
-2.06121
-2.59286
-3.0175
-3.32199
-3.4665
-3.46066
-3.31684
-3.03746
-2.64464
-2.15994
-1.60274
-0.994244
-0.353451
0.302737
0.959423
1.60589
2.23265
2.83151
3.39689
3.92569
4.41337
4.8569
5.2568
5.61208
5.91495
6.1568
6.33234
6.42653
6.41825
6.26087
5.90846
5.29916
4.39226
3.21074
1.91349
0.942913
0.350878
0.062263
-0.109856
-0.226215
-0.279902
-0.277487
-0.238019
-0.175647
-0.0897922
-0.0108365
0.114349
0.243763
0.580864
0.349422
0.339887
0.905425
0.321701
-0.00766594
-0.0162584
0.016336
0.0340743
0.067607
0.0944204
0.123236
0.144018
0.15542
0.149509
0.119953
0.0605703
-0.0276871
-0.132943
-0.237435
-0.330322
-0.411534
-0.485939
-0.561114
-0.649167
-0.750035
-0.76592
-0.506638
-0.417649
-1.19606
-1.63851
-2.31356
-2.91176
-3.38368
-3.72116
-3.87776
-3.86697
-3.70192
-3.38513
-2.94194
-2.39622
-1.76972
-1.08627
-0.367229
0.368655
1.1048
1.82906
2.53075
3.20091
3.83338
4.42451
4.96938
5.46488
5.91137
6.30736
6.64448
6.9137
7.1091
7.21391
7.20453
7.02965
6.63856
5.96349
4.95946
3.65276
2.21139
1.11836
0.43077
0.0714145
-0.159029
-0.311007
-0.371358
-0.352185
-0.293623
-0.213354
-0.106393
-0.00310731
0.135777
0.282986
0.608785
0.401187
0.335686
0.980804
0.376903
0.0238728
-0.0385936
0.0222205
0.0376391
0.0796859
0.110417
0.144369
0.16853
0.181697
0.174336
0.139136
0.070012
-0.0292515
-0.143487
-0.255384
-0.356642
-0.448183
-0.535199
-0.62522
-0.728154
-0.83893
-0.868846
-0.660518
-0.467308
-1.34126
-1.8366
-2.57426
-3.24189
-3.76081
-4.12974
-4.29628
-4.27894
-4.09122
-3.73566
-3.24097
-2.63334
-1.93686
-1.17803
-0.380483
0.435176
1.2507
2.05255
2.82888
3.56998
4.26913
4.92216
5.52376
6.07079
6.56342
6.99968
7.37069
7.66702
7.88219
7.99787
7.98807
7.79698
7.36888
6.6318
5.53352
4.10421
2.52246
1.30489
0.517691
0.0760838
-0.223545
-0.414902
-0.480827
-0.440963
-0.35943
-0.257013
-0.125589
0.00467849
0.158689
0.323392
0.621637
0.468485
0.304441
0.990605
0.432142
0.0531629
-0.0609426
0.0282191
0.0415099
0.0928112
0.127949
0.16756
0.195411
0.210343
0.201032
0.15931
0.0801023
-0.0291377
-0.151179
-0.270603
-0.380994
-0.483735
-0.584545
-0.690855
-0.810505
-0.935241
-0.985406
-0.838193
-0.634686
-1.42218
-2.05738
-2.84604
-3.58494
-4.15167
-4.55051
-4.7245
-4.6986
-4.48636
-4.09037
-3.54283
-2.87216
-2.10491
-1.2702
-0.393888
0.501584
1.39633
2.27545
3.12598
3.93751
4.70278
5.41708
6.07481
6.67276
7.21094
7.6869
8.09128
8.41434
8.64916
8.77588
8.76629
8.56027
8.09672
7.30098
6.1111
4.56216
2.84476
1.49888
0.610134
0.0729833
-0.305984
-0.540258
-0.610173
-0.545758
-0.436912
-0.307532
-0.147562
0.0110049
0.183582
0.365234
0.62653
0.549203
0.263459
1.01967
0.447094
0.0810379
-0.080814
0.0359952
0.0475425
0.108382
0.148181
0.193642
0.225172
0.241445
0.229178
0.179764
0.0903873
-0.0277463
-0.157174
-0.28465
-0.404677
-0.519229
-0.634798
-0.75863
-0.896748
-1.03917
-1.11562
-1.03381
-0.865994
-1.42851
-2.30728
-3.13277
-3.94126
-4.55825
-4.98595
-5.16491
-5.1283
-4.88946
-4.45111
-3.8491
-3.11401
-2.2749
-1.36352
-0.407931
0.567638
1.54167
2.49797
3.42247
4.3041
5.13509
5.91023
6.62364
7.27205
7.85531
8.3705
8.80786
9.15739
9.41176
9.54979
9.54103
9.32129
8.82344
7.97159
6.6917
5.02517
3.17678
1.69764
0.703892
0.0578899
-0.409016
-0.689722
-0.761612
-0.668904
-0.527786
-0.366114
-0.172985
0.0158255
0.211305
0.408778
0.631561
0.622563
0.238716
1.0108
0.497429
0.106411
-0.0983618
0.0449262
0.0556007
0.126265
0.171179
0.222726
0.257864
0.274767
0.258182
0.199979
0.100807
-0.0254171
-0.162434
-0.298345
-0.428226
-0.55522
-0.686604
-0.829283
-0.987702
-1.15107
-1.25807
-1.23793
-1.11264
-1.39812
-2.59275
-3.44002
-4.31037
-4.98134
-5.43732
-5.61881
-5.56917
-5.30128
-4.81838
-4.16003
-3.35895
-2.44675
-1.45781
-0.422334
0.633664
1.68709
2.72047
3.7187
4.6701
5.5664
6.40192
7.17054
7.86897
8.49683
9.0508
9.52074
9.89646
10.1703
10.3199
10.3126
10.0803
9.54899
8.64295
7.27352
5.49045
3.51547
1.89821
0.79456
0.0269685
-0.535651
-0.866312
-0.937618
-0.812941
-0.633863
-0.434081
-0.202765
0.0197467
0.241338
0.453783
0.641418
0.684067
0.26478
0.971665
0.522771
0.129356
-0.112439
0.0556206
0.0665881
0.147139
0.197558
0.255193
0.293506
0.309772
0.287123
0.219339
0.110965
-0.0231596
-0.168099
-0.312345
-0.452124
-0.592184
-0.74035
-0.903112
-1.08363
-1.27088
-1.41154
-1.44689
-1.36069
-1.41658
-2.91488
-3.77385
-4.69208
-5.42167
-5.90587
-6.08766
-6.02259
-5.72293
-5.19295
-4.47613
-3.60725
-2.62056
-1.55303
-0.436994
0.699809
1.83273
2.94308
4.01477
5.03557
5.99673
6.89214
7.71547
8.46341
9.13536
9.72761
10.2297
10.6313
10.9247
11.0861
11.0808
10.837
10.2726
9.3136
7.8539
5.95452
3.85625
2.09971
0.877751
-0.0235661
-0.689079
-1.07328
-1.14105
-0.980729
-0.757218
-0.512919
-0.237825
0.0228777
0.271542
0.497393
0.658817
0.744001
0.342867
0.957697
0.606882
0.149373
-0.122473
0.0681106
0.0808564
0.17122
0.227528
0.29103
0.331656
0.345459
0.314964
0.237359
0.12022
-0.0220134
-0.174699
-0.326746
-0.476508
-0.630299
-0.796174
-0.980216
-1.18461
-1.39853
-1.57566
-1.6642
-1.62917
-1.56418
-3.2474
-4.139
-5.08734
-5.87999
-6.39273
-6.57283
-6.49013
-6.15577
-5.57587
-4.79811
-3.8594
-2.79662
-1.64933
-0.45192
0.766143
1.97872
3.16595
4.31086
5.40068
6.42623
7.38101
8.25854
9.05548
9.77102
10.401
10.9349
11.3621
11.6748
11.8483
11.8455
11.5912
10.9938
9.98209
8.42995
6.41375
4.18953
2.3035
0.949349
-0.0973942
-0.872702
-1.31414
-1.37547
-1.17558
-0.900215
-0.604225
-0.278901
0.0249573
0.301247
0.537552
0.68382
0.803182
0.442378
0.955362
0.649349
0.166127
-0.127529
0.0827295
0.098975
0.19887
0.261309
0.330049
0.371496
0.380531
0.340787
0.253517
0.127621
-0.0226856
-0.182204
-0.341433
-0.50142
-0.669601
-0.85403
-1.06047
-1.29047
-1.53372
-1.75026
-1.89419
-1.93471
-1.86547
-3.54178
-4.54062
-5.49876
-6.3572
-6.89883
-7.07542
-6.97312
-6.60108
-5.96816
-5.12671
-4.11584
-2.97518
-1.74677
-0.46707
0.832794
2.12523
3.38929
4.60716
5.76562
6.85507
7.86871
8.79991
9.64534
10.4039
11.0712
11.6363
12.0889
12.4209
12.6067
12.6069
12.3429
11.712
10.6468
8.99838
6.86466
4.50521
2.50528
1.00451
-0.197473
-1.09006
-1.59274
-1.64551
-1.40135
-1.06546
-0.709631
-0.326702
0.0252503
0.330737
0.575647
0.714365
0.857508
0.544685
1.01775
0.714162
0.179075
-0.126806
0.0996396
0.121292
0.230218
0.298805
0.371603
0.411704
0.413599
0.363906
0.267113
0.132352
-0.0251254
-0.190123
-0.356149
-0.526749
-0.709954
-0.91371
-1.1436
-1.40088
-1.67602
-1.93495
-2.13817
-2.27273
-2.27844
-3.76278
-4.98343
-5.93113
-6.85465
-7.42521
-7.59629
-7.47269
-7.06013
-6.37091
-5.46267
-4.37704
-3.15645
-1.84542
-0.482387
0.899898
2.27245
3.6133
4.90388
6.13057
7.28344
8.35537
9.3397
10.2331
11.0341
11.7381
12.3341
12.8117
13.1628
13.3611
13.3648
13.0919
12.4265
11.3057
9.5555
7.30334
4.79999
2.6955
1.03751
-0.326876
-1.34486
-1.91329
-1.95662
-1.66219
-1.25566
-0.830814
-0.38212
0.0228777
0.358522
0.612593
0.749065
0.907703
0.645693
1.09236
0.853576
0.18769
-0.119478
0.119027
0.148097
0.265273
0.339634
0.414594
0.450657
0.44354
0.383766
0.27735
0.134242
-0.0286037
-0.19784
-0.370636
-0.552319
-0.751131
-0.974925
-1.22927
-1.51543
-1.82497
-2.12928
-2.39592
-2.63157
-2.74107
-3.89247
-5.47556
-6.3927
-7.37386
-7.97311
-8.13633
-7.98977
-7.53402
-6.78519
-5.80682
-4.64351
-3.34073
-1.94538
-0.497828
0.967591
2.42056
3.83819
5.20124
6.49574
7.71148
8.84113
9.87803
10.8188
11.6618
12.4018
13.0283
13.5305
13.9006
14.1117
14.1192
13.8382
13.1368
11.957
10.0973
7.72248
5.0812
2.86791
1.04468
-0.48866
-1.64096
-2.28021
-2.31412
-1.96216
-1.47349
-0.969533
-0.446346
0.0163773
0.383138
0.648057
0.787022
0.957449
0.745032
1.16454
0.935937
0.191414
-0.104854
0.140973
0.179481
0.303771
0.382966
0.457428
0.486753
0.469634
0.399756
0.283779
0.13401
-0.0320778
-0.204819
-0.384643
-0.577893
-0.792842
-1.03734
-1.31711
-1.63374
-1.98013
-2.33287
-2.66643
-2.99858
-3.19691
-3.96765
-6.03766
-6.89254
-7.91651
-8.54424
-8.69657
-8.52511
-8.02371
-7.21203
-6.15998
-4.91582
-3.5283
-2.04673
-0.513348
1.03601
2.56977
4.06419
5.49945
6.86133
8.1394
9.32617
10.415
11.4026
12.2868
13.0624
13.7188
14.2453
14.6343
14.8582
14.87
14.5814
13.8425
12.5985
10.6199
8.10542
5.35842
3.02056
1.02376
-0.685707
-1.98219
-2.69802
-2.723
-2.30515
-1.72165
-1.12774
-0.520925
0.00393238
0.40336
0.681846
0.827663
1.00881
0.84239
1.25538
1.04932
0.189735
-0.0823748
0.165482
0.215338
0.345132
0.427481
0.498258
0.518814
0.491409
0.411305
0.286799
0.133003
-0.0346045
-0.210685
-0.397946
-0.60322
-0.834787
-1.10061
-1.40677
-1.75544
-2.14115
-2.5454
-2.94879
-3.36833
-3.63046
-4.08754
-6.68659
-7.44105
-8.48452
-9.1401
-9.27852
-9.07949
-8.52996
-7.65233
-6.52298
-5.19455
-3.7195
-2.1496
-0.528902
1.10531
2.72029
4.29155
5.79877
7.22756
8.56737
9.81063
10.9508
11.9846
12.9094
13.7199
14.4056
14.956
15.3637
15.6006
15.6171
15.3215
14.5431
13.2275
11.1203
8.43926
5.62506
3.1494
0.972684
-0.920897
-2.37222
-3.17126
-3.18809
-2.69499
-2.00296
-1.30765
-0.607752
-0.0163822
0.418306
0.713919
0.870568
1.06241
0.93875
1.34115
1.19259
0.182169
-0.0516642
0.192434
0.255287
0.388345
0.471399
0.535393
0.546217
0.508402
0.418365
0.287736
0.132649
-0.0355443
-0.215193
-0.410338
-0.628044
-0.876666
-1.16443
-1.49794
-1.88026
-2.30777
-2.7667
-3.24287
-3.74497
-4.06996
-4.36028
-7.4282
-8.04687
-9.07802
-9.76293
-9.88414
-9.65388
-9.05348
-8.10682
-6.89656
-5.48029
-3.91468
-2.25411
-0.544447
1.17563
2.87233
4.52051
6.09945
7.59468
8.99561
10.2947
11.4856
12.5648
13.5296
14.3743
15.0888
15.6627
16.0887
16.3389
16.3603
16.0583
15.2379
13.841
11.5941
8.74133
5.8652
3.24822
0.889541
-1.19675
-2.81449
-3.70447
-3.71431
-3.13566
-2.32041
-1.51175
-0.709014
-0.0463777
0.427465
0.74436
0.915541
1.11855
1.03484
1.42486
1.2791
0.168241
-0.0125297
0.221559
0.298607
0.431915
0.512764
0.567727
0.568639
0.520281
0.421846
0.288382
0.134022
-0.0345562
-0.218188
-0.421632
-0.652119
-0.918196
-1.22851
-1.59036
-2.00794
-2.47975
-2.99659
-3.54902
-4.137
-4.56169
-4.86528
-8.23046
-8.71206
-9.69963
-10.4141
-10.5159
-10.2496
-9.59499
-8.5761
-7.28135
-5.7736
-4.1142
-2.36039
-0.559947
1.24715
3.02614
4.75137
6.40178
7.96295
9.42434
10.7785
12.0194
13.1435
14.1475
15.0256
15.7684
16.3653
16.8093
17.0727
17.0995
16.7915
15.9267
14.4359
12.0199
9.04017
6.07949
3.31592
0.773138
-1.51548
-3.31229
-4.30228
-4.30692
-3.63148
-2.6771
-1.74278
-0.827078
-0.0876018
0.43064
0.773402
0.962576
1.17723
1.13079
1.51778
1.44358
0.147422
0.0350273
0.252373
0.344147
0.473939
0.54992
0.5948
0.585765
0.527347
0.423536
0.290348
0.137716
-0.0314935
-0.219552
-0.431639
-0.675196
-0.959099
-1.29256
-1.68376
-2.13822
-2.6568
-3.23474
-3.86724
-4.55019
-5.12804
-5.6231
-9.04053
-9.43917
-10.348
-11.0952
-11.1766
-10.8685
-10.1554
-9.06073
-7.67783
-6.07497
-4.31841
-2.46862
-0.575373
1.32002
3.18196
4.98439
6.70604
8.33264
9.8538
11.2624
12.5525
13.7206
14.7631
15.6739
16.4443
17.0637
17.5253
17.8019
17.8347
17.521
16.6088
15.012
12.3807
9.33614
6.26988
3.35282
0.62241
-1.87911
-3.86876
-4.96946
-4.97172
-4.18699
-3.07616
-2.00366
-0.964359
-0.141263
0.427899
0.801405
1.01174
1.23837
1.22623
1.59834
1.5301
0.119046
0.090798
0.284094
0.390288
0.512427
0.581925
0.616428
0.597454
0.530919
0.425478
0.294682
0.143966
-0.0262966
-0.219165
-0.440153
-0.697009
-0.999084
-1.3563
-1.77787
-2.27083
-2.83856
-3.48062
-4.19702
-4.98593
-5.76428
-6.59176
-9.8042
-10.2144
-11.0283
-11.8078
-11.8689
-11.5126
-10.7361
-9.56133
-8.08638
-6.38476
-4.52764
-2.57894
-0.590695
1.39441
3.34005
5.21988
7.01255
8.70404
10.2843
11.7464
13.085
14.2964
15.3765
16.3191
17.1164
17.7579
18.2366
18.5264
18.5656
18.2469
17.2837
15.5663
12.7064
9.60005
6.4279
3.35765
0.43658
-2.28912
-4.4868
-5.71095
-5.71488
-4.80684
-3.52065
-2.29741
-1.12318
-0.208212
0.419543
0.828842
1.06306
1.30183
1.32136
1.69584
1.63886
0.0822088
0.154322
0.315536
0.435053
0.545833
0.608499
0.632393
0.604294
0.533086
0.429307
0.301869
0.152817
-0.0189148
-0.216873
-0.44693
-0.717266
-1.03784
-1.41942
-1.87237
-2.40541
-3.02455
-3.7335
-4.53733
-5.44273
-6.45308
-7.6918
-10.4524
-11.0462
-11.7421
-12.5522
-12.5959
-12.1843
-11.3386
-10.0788
-8.50738
-6.70323
-4.74212
-2.69149
-0.605886
1.4705
3.50068
5.45817
7.32164
9.07747
10.716
12.2309
13.6171
14.871
15.9878
16.9614
17.7848
18.4477
18.9429
19.2457
19.2922
18.969
17.952
16.0605
13.0466
9.83136
6.55191
3.33035
0.215609
-2.74632
-5.16874
-6.53154
-6.54273
-5.49565
-4.01357
-2.62708
-1.30565
-0.288959
0.406075
0.856254
1.11662
1.3672
1.41543
1.78518
1.77919
0.0356729
0.224798
0.34507
0.476481
0.573409
0.629545
0.642698
0.607908
0.53599
0.435964
0.312038
0.16427
-0.00925337
-0.212464
-0.45168
-0.735635
-1.07503
-1.48157
-1.9669
-2.54152
-3.21414
-3.99243
-4.88672
-5.91639
-7.16681
-8.83062
-10.9992
-11.9136
-12.4939
-13.3308
-13.3597
-12.8858
-11.9647
-10.6141
-8.94125
-7.03054
-4.96198
-2.80636
-0.620901
1.54847
3.66415
5.69959
7.63366
9.45326
11.1493
12.7162
14.1491
15.4445
16.5971
17.6007
18.4494
19.1331
19.644
19.9597
20.0145
19.687
18.6224
16.4473
13.4062
10.0369
6.64476
3.27166
-0.039897
-3.25062
-5.91594
-7.43532
-7.46124
-6.25776
-4.55783
-2.99565
-1.51358
-0.383715
0.388173
0.884232
1.17243
1.4342
1.50848
1.86875
1.86426
-0.0221789
0.300946
0.370781
0.513148
0.595032
0.644873
0.648181
0.610572
0.541192
0.445821
0.325182
0.178359
0.00285451
-0.205662
-0.454063
-0.751755
-1.11027
-1.54237
-2.06105
-2.67865
-3.40657
-4.25622
-5.24324
-6.40097
-7.87808
-9.90304
-11.4188
-12.817
-13.2958
-14.1421
-14.1623
-13.6195
-12.6162
-11.1687
-9.38863
-7.36685
-5.18727
-2.92356
-0.635673
1.62853
3.83076
5.94451
7.94898
9.83177
11.5846
13.2024
14.6812
16.0171
17.2046
18.2372
19.1103
19.8139
20.3397
20.668
20.7325
20.3993
19.3236
16.7651
13.7276
10.2079
6.7057
3.18235
-0.328243
-3.80036
-6.72798
-8.42484
-8.47518
-7.09677
-5.15605
-3.4059
-1.74838
-0.492425
0.366659
0.9134
1.23056
1.50238
1.60052
1.96273
1.96058
-0.0932351
0.380854
0.39093
0.544424
0.610651
0.654592
0.650723
0.614422
0.54951
0.458947
0.341292
0.195197
0.0176546
-0.196135
-0.45371
-0.765244
-1.14319
-1.60142
-2.15434
-2.81617
-3.60093
-4.52347
-5.60452
-6.89004
-8.55959
-10.8201
-11.7867
-13.772
-14.1429
-14.9873
-15.0045
-14.3872
-13.295
-11.744
-9.85034
-7.7124
-5.41798
-3.04304
-0.650087
1.71088
4.00083
6.19333
8.26801
10.2134
12.0221
13.69
15.2135
16.5891
17.8103
18.8708
19.7673
20.4902
21.0298
21.3701
21.4468
21.0999
20.0418
17.0991
13.991
10.3437
6.73453
3.06405
-0.646111
-4.39188
-7.60225
-9.50048
-9.5872
-8.0149
-5.81023
-3.86028
-2.01111
-0.614802
0.34248
0.944427
1.29112
1.57122
1.69103
2.04968
2.07692
-0.179208
0.461916
0.404524
0.570126
0.620126
0.659753
0.652723
0.620892
0.561231
0.475324
0.360425
0.214984
0.0354572
-0.183518
-0.450238
-0.775721
-1.1734
-1.65829
-2.24625
-2.95339
-3.79617
-4.79248
-5.96765
-7.37615
-9.19419
-11.5742
-12.2019
-14.7367
-15.0495
-15.8631
-15.8862
-15.1905
-14.0025
-12.3415
-10.3274
-8.06754
-5.65408
-3.16465
-0.663974
1.79578
4.17473
6.44647
8.59117
10.5985
12.4622
14.1792
15.7465
17.1606
18.4145
19.5017
20.4204
21.1619
21.7141
22.0655
22.1581
21.7813
20.6559
17.5229
14.2186
10.4495
6.73245
2.91962
-0.988666
-5.01955
-8.534
-10.6602
-10.7972
-9.01226
-6.52136
-4.36078
-2.30246
-0.750365
0.316697
0.978042
1.35427
1.64033
1.78022
2.13329
2.15047
-0.280574
0.540877
0.411495
0.589959
0.623774
0.662421
0.656267
0.630671
0.5764
0.494964
0.382725
0.237993
0.0566082
-0.167441
-0.443284
-0.782828
-1.20051
-1.71256
-2.33626
-3.08953
-3.99106
-5.06133
-6.3292
-7.85214
-9.77244
-12.1583
-12.6977
-15.7476
-16.0038
-16.7662
-16.8057
-16.0303
-14.74
-12.9625
-10.8207
-8.43275
-5.89562
-3.28824
-0.677104
1.88351
4.35281
6.70438
8.91896
10.9876
12.9054
14.6703
16.2805
17.732
19.0175
20.13
21.0698
21.8288
22.3922
22.7537
22.8684
22.4533
21.0563
17.9834
14.3993
10.5246
6.70032
2.75301
-1.34972
-5.67594
-9.51651
-11.8994
-12.102
-10.0864
-7.28898
-4.90871
-2.62278
-0.898462
0.290486
1.01507
1.42027
1.7092
1.86826
2.22153
2.25863
-0.394743
0.613861
0.412238
0.603502
0.623006
0.665
0.662661
0.643978
0.595018
0.517954
0.408415
0.264536
0.0814517
-0.147568
-0.432527
-0.786246
-1.2242
-1.76381
-2.42379
-3.22374
-4.18426
-5.32774
-6.68525
-8.31149
-10.2992
-12.6681
-13.3377
-16.743
-16.9968
-17.6917
-17.7595
-16.9067
-15.508
-13.6078
-11.3313
-8.80859
-6.14272
-3.41361
-0.689198
1.97439
4.53549
6.96753
9.25188
11.3811
13.352
15.1639
16.8157
18.3035
19.6193
20.7559
21.7153
22.491
23.0641
23.4344
23.5806
23.1853
21.3087
18.3782
14.5224
10.567
6.64005
2.56946
-1.72186
-6.35225
-10.5417
-13.2119
-13.4954
-11.2321
-8.11085
-5.5046
-2.97207
-1.05829
0.265154
1.05647
1.4895
1.77721
1.95527
2.30022
2.33327
-0.513863
0.676081
0.407085
0.610885
0.620224
0.669411
0.672498
0.660846
0.617129
0.54446
0.437765
0.294924
0.110293
-0.123618
-0.417704
-0.78571
-1.24415
-1.81163
-2.50825
-3.3551
-4.37421
-5.58912
-7.03132
-8.74776
-10.7808
-13.1691
-14.1866
-17.6331
-18.0086
-18.6328
-18.7425
-17.8187
-16.3067
-14.2781
-11.8598
-9.19559
-6.39557
-3.54065
-0.699947
2.06877
4.72318
7.23643
9.5905
11.7796
13.8025
15.6602
17.3524
18.8754
20.2204
21.3796
22.3571
23.1484
23.7294
24.107
24.2904
24.0431
21.5394
18.6748
14.603
10.5775
6.55464
2.37514
-2.09717
-7.03951
-11.6019
-14.5912
-14.9693
-12.4411
-8.98273
-6.14802
-3.35001
-1.22889
0.242168
1.10338
1.56244
1.84389
2.0411
2.38787
2.41575
-0.623754
0.721529
0.396549
0.613338
0.618003
0.676744
0.685969
0.681291
0.642843
0.574697
0.471046
0.329426
0.143369
-0.0953864
-0.398626
-0.781015
-1.26011
-1.85566
-2.58903
-3.48257
-4.55919
-5.84251
-7.36256
-9.15506
-11.2206
-13.657
-15.1494
-18.3467
-19.0151
-19.5856
-19.7484
-18.7638
-17.1349
-14.9731
-12.4066
-9.59414
-6.65439
-3.66924
-0.709034
2.16705
4.91632
7.51161
9.9354
12.1837
14.2575
16.1598
17.8913
19.4482
20.8211
22.0014
22.9953
23.8011
24.3878
24.7712
24.9749
24.8954
21.8903
18.9075
14.6541
10.5575
6.44772
2.17631
-2.46861
-7.73053
-12.6926
-16.0336
-16.5167
-13.7035
-9.89831
-6.83743
-3.7559
-1.40916
0.223184
1.15719
1.63975
1.90823
2.12431
2.46935
2.50654
-0.705917
0.74357
0.382169
0.612903
0.618299
0.687434
0.703133
0.705371
0.672325
0.608893
0.50849
0.368236
0.180831
-0.0627533
-0.375177
-0.772018
-1.27185
-1.89552
-2.66552
-3.60506
-4.73725
-6.08467
-7.6741
-9.52878
-11.6217
-14.1243
-16.1157
-18.8314
-20.0079
-20.5498
-20.771
-19.738
-17.9904
-15.6919
-12.9716
-10.0044
-6.91932
-3.79934
-0.716154
2.26966
5.11539
7.7936
10.2872
12.5941
14.7177
16.6632
18.4325
20.0221
21.4218
22.6215
23.6298
24.4492
25.0388
25.4291
25.6137
25.5257
22.358
19.0752
14.6777
10.5075
6.32326
1.97815
-2.83135
-8.42142
-13.8143
-17.5409
-18.1346
-15.009
-10.8496
-7.57012
-4.18862
-1.59782
0.21009
1.21959
1.7222
1.96983
2.20433
2.54782
2.58362
-0.743077
0.737075
0.366909
0.611608
0.622215
0.701596
0.724038
0.733192
0.705761
0.64724
0.550254
0.411457
0.222736
-0.0256838
-0.347317
-0.758636
-1.2792
-1.93087
-2.73702
-3.72131
-4.90623
-6.31223
-7.96154
-9.86627
-11.9872
-14.5567
-16.9733
-19.0793
-20.9946
-21.5328
-21.8052
-20.7364
-18.8699
-16.4324
-13.5539
-10.4261
-7.19037
-3.93085
-0.72101
2.37702
5.32085
8.08291
10.6465
13.0113
15.1836
17.1709
18.9768
20.5977
22.0227
23.2404
24.261
25.0927
25.6818
26.0861
26.2264
25.8373
22.8444
19.1609
14.6741
10.4299
6.18485
1.78396
-3.18319
-9.11163
-14.9721
-19.1218
-19.8264
-16.3491
-11.8272
-8.34223
-4.64666
-1.79339
0.205062
1.29265
1.81073
2.0286
2.28242
2.63126
2.66165
-0.725748
0.701129
0.35446
0.610861
0.63024
0.719254
0.74876
0.764886
0.743306
0.68986
0.596397
0.459092
0.269051
0.0157777
-0.315072
-0.740841
-1.28202
-1.96135
-2.80284
-3.82999
-5.06389
-6.52198
-8.22164
-10.1673
-12.3199
-14.9384
-17.6312
-19.1946
-22.0135
-22.5469
-22.8487
-21.7543
-19.7693
-17.1915
-14.1519
-10.8587
-7.46725
-4.06361
-0.723301
2.48958
5.53322
8.38008
11.0138
13.4361
15.656
17.6838
19.5246
21.1754
22.6245
23.8584
24.8889
25.732
26.3167
26.7531
26.9547
25.9522
23.2525
19.1819
14.6467
10.327
6.03448
1.59504
-3.52387
-9.80289
-16.1752
-20.791
-21.6024
-17.7175
-12.8214
-9.14885
-5.12802
-1.99415
0.210639
1.37891
1.90652
2.08403
2.35973
2.71116
2.74655
-0.655896
0.640376
0.347952
0.611463
0.642553
0.740435
0.777392
0.800569
0.785053
0.736779
0.64688
0.51105
0.319659
0.0615158
-0.278531
-0.718657
-1.28021
-1.98664
-2.86219
-3.92966
-5.20797
-6.71128
-8.45294
-10.434
-12.6234
-15.2707
-18.1059
-19.4121
-23.0748
-23.608
-23.9025
-22.7888
-20.6845
-17.9654
-14.7631
-11.3006
-7.74933
-4.19727
-0.722684
2.60781
5.753
8.68563
11.3898
13.8692
16.1356
18.2024
20.0768
21.7559
23.2276
24.4761
25.5138
26.3672
26.9429
27.4288
27.9279
26.0506
23.5721
19.1688
14.598
10.2
5.87231
1.41142
-3.85406
-10.4985
-17.4368
-22.5702
-23.4801
-19.1107
-13.8223
-9.98418
-5.63025
-2.19803
0.22982
1.48149
2.01094
2.13567
2.43711
2.79047
2.82069
-0.545644
0.56388
0.349071
0.613932
0.659205
0.76519
0.810015
0.8403
0.831
0.78792
0.701567
0.56716
0.374377
0.111351
-0.237841
-0.692163
-1.2737
-2.00639