/*--------------------------------*- C++ -*----------------------------------*\
| =========                 |                                                 |
| \\      /  F ield         | OpenFOAM: The Open Source CFD Toolbox           |
|  \\    /   O peration     | Version:  4.1                                   |
|   \\  /    A nd           | Web:      www.OpenFOAM.org                      |
|    \\/     M anipulation  |                                                 |
\*---------------------------------------------------------------------------*/
FoamFile
{
    version     2.0;
    format      ascii;
    class       surfaceScalarField;
    location    "23";
    object      phi;
}
// * * * * * * * * * * * * * * * * * * * * * * * * * * * * * * * * * * * * * //

dimensions      [0 3 -1 0 0 0 0];

internalField   nonuniform List<scalar> 
13220
(
-796.596
2096.5
-1238.69
1742.29
-1685.13
1746.34
-2012.29
1627.06
-2274.64
1562.55
-2459.79
1485.05
-2574.5
1414.61
-2619.28
1344.98
-2597.22
1277.84
-2504.61
1207.3
-2331.07
1126.66
-2050.52
1019.35
-1606.35
855.733
-944.452
638.298
355.448
-188.007
2284.5
-434.099
1988.39
-717.081
2029.32
-950.491
1860.48
-1178.59
1790.66
-1371.01
1677.46
-1541.82
1585.43
-1686.54
1489.69
-1806.33
1397.63
-1881.31
1282.28
-1842.18
1087.53
-1557.58
734.75
-984.963
283.116
-389.531
42.8691
-34.0827
-173.473
2457.98
-410.279
2225.2
-590.963
2210.01
-714.226
1983.74
-827.082
1903.51
-898.402
1748.78
-950.139
1637.17
-977.591
1517.14
-984.816
1404.86
-967.48
1264.95
-907.563
1027.62
-764.384
591.574
-554.798
73.5379
-351.779
-160.14
-385.861
76.3671
2381.61
17.2532
2284.31
26.9452
2200.32
61.5191
1949.17
102.127
1862.91
162.478
1688.43
235.769
1563.88
327.216
1425.7
433.342
1298.73
536.802
1161.49
582.48
981.943
463.101
710.957
158.126
378.523
-38.7724
36.7708
-424.633
166.173
2215.44
158.28
2292.21
216.281
2142.32
281.848
1883.6
356.397
1788.36
431.384
1613.44
512.064
1483.2
596.655
1341.11
685.362
1210.03
764.98
1081.87
804.54
942.382
737.659
777.845
550.132
566.057
276.96
309.954
-147.674
133.943
2081.5
166.893
2259.26
225.616
2083.6
291.407
1817.81
361.328
1718.44
431.026
1543.75
498.491
1415.74
559.147
1280.46
613.131
1156.04
657.81
1037.19
677.702
922.491
641.884
813.658
518.736
689.199
297.59
531.088
149.916
55.1007
2026.4
124.805
2189.56
187.474
2020.93
248.18
1757.11
309.614
1657.01
381.607
1471.76
464.387
1332.96
572.648
1172.19
684.574
1044.12
778.69
943.077
819.191
881.99
774.036
858.818
614.164
849.076
350.692
794.566
500.609
-52.3087
2078.71
-8.67262
2145.92
15.2563
1997
-2.09224
1774.46
-20.467
1675.38
-29.0522
1480.34
17.2956
1286.61
144.091
1045.4
326.377
861.83
524.012
745.439
673.966
732.036
703.259
829.517
569.163
983.165
311.903
1051.82
812.511
-133.058
2211.77
-272.017
2284.88
-385.676
2110.66
-547.753
1936.53
-720.121
1847.75
-899.299
1659.52
-1037.17
1424.48
-1113.93
1122.16
-1117.2
865.093
-1030.64
658.877
-832.353
533.752
-534.714
531.883
-228.633
677.087
-39.3711
862.562
773.14
67.9915
2143.77
-164.569
2517.44
-359.332
2305.42
-530.9
2108.1
-697.619
2014.47
-887.768
1849.67
-1109.05
1645.76
-1357.61
1370.72
-1600.82
1108.3
-1788.03
846.084
-1838.07
583.794
-1650.43
344.242
-1169.02
195.666
-498.914
192.448
274.226
384.161
1759.61
324.152
2577.44
184.002
2445.57
113.109
2178.99
98.9081
2028.67
78.3884
1870.18
15.9674
1708.18
-111.05
1497.73
-276.504
1273.76
-464.941
1034.52
-659.384
778.233
-811.674
496.532
-798.626
182.616
-532.731
-73.4498
-258.505
489.004
1270.6
628.132
2438.31
613.238
2460.46
631.57
2160.66
717.708
1942.53
821.787
1766.1
914.669
1615.29
958.89
1453.51
951.348
1281.3
885.966
1099.9
756.516
907.682
550.407
702.636
269.001
464.014
-2.1084
197.649
-260.614
385.179
885.424
572.552
2250.94
646.989
2386.02
733.096
2074.55
856.388
1819.23
979.445
1643.04
1083.58
1511.15
1151.32
1385.77
1174.58
1258.04
1147.48
1126.99
1064.05
991.113
916.142
850.543
693.596
686.559
394.847
496.396
134.233
318.949
566.474
500.327
2069.56
525.942
2360.41
469.783
2130.71
433.84
1855.18
432.486
1644.4
455.985
1487.65
489.137
1352.62
518.407
1228.77
535.725
1109.67
536.278
990.56
510.566
876.254
424.718
772.405
262.187
658.926
396.42
185.301
1080.44
1908.51
2376.1
2495.43
2500.25
2402.81
2221.59
1998.73
1754.82
1479.31
1174.67
856.964
468.357
5.72763e-07
-323.572
323.572
-323.572
-323.572
-323.572
266.939
-590.51
266.939
266.939
266.939
814.315
-547.376
814.315
814.315
1280.16
-465.843
1280.16
1280.16
1280.16
1641.09
-360.93
1641.09
1641.09
1884.1
-243.012
1884.1
1884.1
1884.1
2005.74
-121.636
2005.74
2005.74
2005.74
2015.45
-9.71131
2015.45
2015.45
1931
84.4457
1931
1931
1931
1771.29
159.709
1771.29
1771.29
1559.67
211.625
1559.67
1559.67
1559.67
1342.34
217.329
1342.34
1342.34
1342.34
1224.33
118.005
1224.33
1224.33
1061.37
162.966
1061.37
1061.37
1061.37
784.458
276.909
784.458
784.458
784.458
396.841
387.617
396.841
396.841
-3.40313
400.244
-3.40318
-3.40309
-3.40318
-714.349
710.946
-714.349
-714.349
-2007.91
1293.56
-2007.91
-2007.91
-2007.91
-3719.57
1711.66
-3719.57
-3719.57
-3719.57
-5699.88
1980.31
-5699.88
-5699.88
-7907.96
2208.08
-7907.96
-7907.96
-7746.89
-7587.97
-7428.05
-9632.09
2364.12
-9463.53
-9276.98
-9080.15
-8883.19
-8686
-8488.63
-8291.09
-8088.76
-10349.2
2458.02
-10140.8
-9932.37
-9723.54
-9504.96
-9283.83
-9061.11
-8837.79
-8613.52
-10886.4
2496.86
-10648.4
-10409.5
-10170.4
-9931.08
-9686.41
-9431.6
-9175.57
-8917.84
-8659.65
-10819.8
2405.8
-10551.2
-10280.9
-10009
-9735.85
-9461.15
-9174.05
-8879.75
-8585.34
-10546.4
2240.17
-10261.2
-9971.45
-9672.28
-9374.72
-9077.78
-8782.14
-8486.09
-8169.95
-9621.53
1756.42
-9315.84
-9010.67
-8705.13
-8381.69
-8050.66
-7721.44
-7393.31
-7069.6
-7872.62
1124.08
-7545.5
-7228.66
-6919.65
-6619.56
-6328.17
-6030.46
-5740.4
-5455.49
-5177.9
-4642.24
-246.036
-4392.29
-4161.91
-3936.53
-3718.15
-3506.61
-3342.67
-3271.88
-3202.72
-2432.24
-695.647
-2366.73
-2304.74
-2304.74
-1797.37
-507.374
-1315.59
-481.772
-1315.59
-895.463
-420.132
-895.463
-539.3
-356.163
-260.746
-278.554
-260.746
5.13535
-265.881
228.445
-223.31
228.445
413.292
-184.847
413.292
567.89
-154.598
706.368
-138.477
706.368
824.787
-118.419
824.787
935.867
-111.08
1038.36
-102.491
1038.36
1137.55
-99.1949
1224.8
-87.2483
1224.8
1308.3
-83.4947
1308.3
1387.67
-79.3781
1449.99
-62.3136
1449.99
1507.85
-57.8644
1507.85
1564.77
-56.9216
1604.51
-39.7398
1604.51
1650.35
-45.8332
1676.83
-26.4848
1676.83
1705.49
-28.6637
1705.49
1737.54
-32.0417
1753.01
-15.4766
1753.01
1773.47
-20.4526
1773.47
1796.76
-23.2943
1800.5
-3.74344
1800.5
1809.96
-9.45361
1796.28
13.6759
1796.28
1786.04
10.2416
1786.04
1780.28
5.76068
1758.51
21.7708
1758.51
1745.57
12.9336
1745.57
1737.15
8.4229
1717.96
19.1927
1717.96
1708.51
9.44537
1693.82
14.6954
1693.82
1691.4
2.42203
1691.4
1697.65
-6.25619
1703.8
-6.1512
1703.8
1720.8
-16.9987
1720.8
1748.4
-27.5953
1766.83
-18.4291
1766.83
1801.69
-34.8674
1816.35
-14.6601
1816.35
1858.65
-42.2995
1858.65
-95.6889
-805.084
-881.964
-859.145
-967.59
-884.68
-990.878
-902.315
-1061.16
-909.442
-1126.69
-909.706
-1202.05
-904.375
-1277.6
-894.717
-1353.51
-881.381
-1426.5
-864.926
-1494
-846.106
-1551.76
-826.383
-1593.82
-808.374
-1611.92
-795.963
-1596.59
-793.465
-1540.53
-803.669
-1444.07
-825.983
-1318.47
-856.52
-1183.66
-888.031
-1059.37
-902.98
-934.827
-871.646
-706.006
-800.41
-224.95
-746.856
338.903
-721.287
662.939
-700.613
875.371
-680.443
1085.9
-660.822
1312.5
-641.728
1546.69
-622.847
1780.92
-604.083
2009.04
-585.486
2226.43
-567.053
2429.82
-548.724
2617.06
-530.479
2786.23
-512.365
2936.2
-494.44
3067.11
-476.623
3179.9
-458.7
3274.74
-440.574
3350.56
-422.367
3407.41
-404.07
3447.98
-385.469
3473.59
-366.42
3482.7
-347.022
3474.57
-327.304
3451.91
-307.112
3415.61
-286.466
3363.85
-265.514
3299.35
-244.126
3226.99
-222.004
3143.48
-199.16
3041.11
-175.789
2922.91
-151.801
2797.62
-127.156
2662.69
-101.685
2509.29
-75.7477
2314.34
-49.7381
2073.84
-24.341
1786.11
-0.21173
1485.15
21.5395
1181.97
39.1711
773.944
52.7627
396.183
61.7251
133.313
67.4656
22.3568
73.8509
-5.8204
84.124
8.99285
99.5864
49.6986
116.999
85.9554
130.976
97.4358
137.497
80.1124
130.878
2.5534
112.468
-134.96
88.7922
-308.977
81.4869
-362.795
48.7878
-364.326
-54.0981
-1678.61
-148.941
-2371.2
-51.2834
-1096.74
-439.059
-880.234
-850.559
-914.085
-933.738
-923.148
-981.815
-927.607
-1056.71
-924.514
-1129.78
-917.422
-1209.14
-906.661
-1288.36
-892.842
-1367.32
-876.102
-1443.24
-856.851
-1513.25
-836.124
-1572.48
-816.217
-1613.72
-801.119
-1627.02
-796.202
-1601.5
-806.266
-1530.47
-832.303
-1418.03
-869.628
-1281.15
-910.198
-1143.08
-945.705
-1023.86
-960.706
-919.825
-920.798
-745.914
-815.93
-329.818
-731.68
254.653
-704.827
636.086
-690.008
860.552
-672.357
1068.25
-654.117
1294.26
-636.33
1528.91
-618.619
1763.2
-600.846
1991.27
-583.052
2208.64
-565.252
2412.02
-547.429
2599.23
-529.582
2768.38
-511.783
2918.4
-494.097
3049.43
-476.449
3162.26
-458.636
3256.92
-440.586
3332.51
-422.429
3389.25
-404.157
3429.71
-385.554
3454.99
-366.491
3463.64
-347.076
3455.16
-327.333
3432.16
-307.105
3395.38
-286.426
3343.17
-265.448
3278.37
-244.029
3205.57
-221.855
3121.31
-198.944
3018.19
-175.497
2899.47
-151.411
2773.54
-126.609
2637.89
-100.854
2483.53
-74.4326
2287.92
-47.6165
2047.02
-20.957
1759.45
4.87807
1459.32
28.6034
1158.25
47.7286
754.819
62.7084
381.203
73.4264
122.595
84.8147
10.9685
100.004
-21.0097
114.927
-5.93054
128.815
35.8114
142.821
71.9487
155.551
84.7066
163.067
72.5963
156.1
9.51967
133.842
-112.701
103.599
-278.735
90.3412
-349.537
54.2855
-328.27
-77.8923
-1546.44
-185.978
-2263.12
-117.337
-1165.38
-598.696
-901.427
-827.478
-923.746
-911.419
-927.613
-977.949
-928.449
-1055.87
-923.145
-1135.09
-914.547
-1217.74
-902.496
-1300.41
-887.402
-1382.42
-869.396
-1461.25
-849.148
-1533.5
-828.261
-1593.37
-809.976
-1632.01
-799.44
-1637.55
-802.693
-1598.25
-823.589
-1509.57
-860.058
-1381.57
-903.681
-1237.52
-944.522
-1102.24
-975.96
-992.425
-988.551
-907.235
-952.364
-782.102
-839.295
-442.888
-725.36
140.719
-684.235
594.96
-672.989
849.307
-660.34
1055.6
-644.683
1278.61
-628.59
1512.81
-612.45
1747.06
-596.123
1974.94
-579.542
2192.06
-562.712
2395.19
-545.658
2582.18
-528.427
2751.15
-511.116
2901.09
-493.804
3032.11
-476.42
3144.87
-458.784
3239.29
-440.858
3314.58
-422.785
3371.18
-404.552
3411.48
-385.949
3436.39
-366.869
3444.56
-347.429
3435.72
-327.646
3412.38
-307.368
3375.11
-286.643
3322.45
-265.624
3257.35
-244.149
3184.1
-221.898
3099.05
-198.895
2995.19
-175.338
2875.91
-151.101
2749.3
-126.05
2612.83
-99.869
2457.35
-72.7388
2260.79
-44.7622
2019.04
-16.2946
1730.98
11.9543
1431.07
38.4312
1131.77
60.111
733.139
77.807
363.507
92.5471
107.855
109.963
-6.44762
130.782
-41.8284
149.019
-24.1675
162.978
21.8521
173.34
61.5871
180.233
77.813
181.727
71.1031
171.156
20.0899
147.274
-88.8193
114.991
-246.452
98.0798
-332.625
58.1878
-288.378
-86.0331
-1402.22
-195.097
-2154.05
-132.859
-1227.62
-746.215
-925.095
-811.97
-937.031
-899.483
-935.489
-979.491
-931.964
-1059.39
-923.495
-1143.56
-912.347
-1228.89
-898.056
-1314.7
-880.912
-1399.56
-861.121
-1481.04
-839.726
-1554.89
-819.112
-1613.99
-803.738
-1647.38
-800.01
-1641.28
-814.17
-1584.09
-847.929
-1475.81
-895
-1334.49
-943.271
-1189.25
-982.103
-1063.41
-1007.46
-967.072
-1015.86
-898.827
-984.254
-813.71
-873.067
-554.075
-732.196
-0.151875
-666.467
529.231
-652.076
834.916
-644.216
1047.74
-632.646
1267.04
-619.024
1499.19
-604.761
1732.8
-590.187
1960.37
-575.171
2177.04
-559.629
2379.65
-543.604
2566.16
-527.193
2734.74
-510.533
2884.43
-493.718
3015.3
-476.687
3127.84
-459.293
3221.89
-441.539
3296.83
-423.58
3353.22
-405.398
3393.3
-386.796
3417.79
-367.694
3425.46
-348.219
3416.24
-328.381
3392.54
-308.036
3354.76
-287.248
3301.66
-266.168
3236.27
-244.614
3162.54
-222.261
3076.7
-199.141
2972.07
-175.438
2852.2
-150.998
2724.86
-125.621
2587.46
-98.9011
2430.63
-70.8873
2232.78
-41.4774
1989.63
-10.7925
1700.29
20.4196
1399.86
50.3497
1101.84
75.4823
708.007
97.0644
341.925
116.872
88.0471
140.437
-30.0128
165.154
-66.5448
184.701
-43.7152
197.222
9.33142
203.584
55.2257
205.348
76.0489
202.534
73.9167
189.798
32.8255
164.336
-63.3568
129.507
-211.623
109.747
-312.865
66.8874
-245.519
-92.0608
-1243.27
-200.529
-2045.58
-120.085
-1308.07
-901.168
-938.302
-803.418
-942.063
-895.722
-937.068
-984.486
-930.553
-1065.91
-919.947
-1154.16
-906.884
-1241.95
-890.753
-1330.83
-871.851
-1418.47
-850.641
-1502.25
-828.787
-1576.74
-809.772
-1633
-799.515
-1657.64
-805.461
-1635.34
-832.924
-1556.63
-879.753
-1428.98
-934.662
-1279.58
-983.046
-1140.87
-1015.58
-1030.88
-1031.63
-951.019
-1033.22
-897.241
-1006.01
-840.92
-907.586
-652.5
-750.729
-157.008
-654.518
433.02
-630.017
810.415
-624.304
1042.03
-617.285
1260.02
-607.253
1489.16
-595.478
1721.03
-582.962
1947.85
-569.815
2163.89
-555.899
2365.73
-541.206
2551.46
-525.86
2719.39
-510.043
2868.61
-493.872
2999.13
-477.305
3111.27
-460.235
3204.82
-442.711
3279.3
-424.9
3335.41
-406.787
3375.18
-388.192
3399.19
-369.064
3406.33
-349.543
3396.72
-329.632
3372.63
-309.201
3334.33
-288.33
3280.79
-267.165
3215.1
-245.505
3140.88
-223.022
3054.22
-199.755
2948.8
-175.867
2828.32
-151.169
2700.16
-125.386
2561.67
-98.0029
2403.25
-68.9176
2203.69
-37.7848
1958.5
-4.4623
1666.97
30.2843
1365.11
64.4114
1067.71
93.9049
678.513
120.47
315.359
145.703
62.8142
174.465
-58.7743
201.452
-93.532
220.919
-63.1824
231.123
-0.87262
233.38
52.969
230.284
79.1454
223.183
81.0169
208.412
47.5965
182.129
-37.0736
145.848
-175.342
122.99
-290.007
78.1529
-200.682
-91.7052
-1073.41
-203.382
-1933.91
-129.821
-1381.63
-1049.42
-945.876
-800.314
-943.742
-897.856
-936.243
-991.985
-927.191
-1074.96
-914.575
-1166.78
-899.506
-1257.02
-881.407
-1348.93
-860.721
-1439.15
-838.363
-1524.6
-816.891
-1598.22
-801.199
-1648.69
-798.75
-1660.09
-817.335
-1616.75
-859.621
-1514.34
-917.971
-1370.63
-976.436
-1221.12
-1020.21
-1097.09
-1043.3
-1007.8
-1048.49
-945.828
-1041.49
-904.24
-1015.86
-866.552
-933.198
-735.156
-774.033
-316.174
-649.746
308.733
-609.543
770.212
-602.155
1034.64
-598.592
1256.46
-592.79
1483.36
-584.353
1712.59
-574.359
1937.86
-563.353
2152.89
-551.349
2353.73
-538.3
2538.41
-524.295
2705.39
-509.538
2853.85
-494.178
2983.77
-478.203
3095.3
-461.557
3188.18
-444.335
3262.08
-426.72
3317.79
-408.702
3357.16
-390.127
3380.62
-370.976
3387.18
-351.4
3377.15
-331.402
3352.63
-310.867
3313.79
-289.894
3259.82
-268.622
3193.83
-246.831
3119.09
-224.193
3031.58
-200.749
2925.36
-176.643
2804.21
-151.64
2675.16
-125.38
2535.41
-97.2299
2375.1
-66.9122
2173.38
-33.8098
1925.4
2.50257
1630.66
41.2578
1326.35
80.2034
1028.77
114.821
643.896
147.245
282.936
177.899
32.1602
210.576
-91.4515
238.609
-121.565
257.13
-81.7034
264.625
-8.36743
262.956
54.6374
255.364
86.7379
244.24
92.1406
227.559
64.2772
200.901
-10.4155
163.907
-138.348
138.304
-264.403
93.552
-155.93
-85.6127
-894.245
-203.651
-1815.87
-121.638
-1463.64
-1198.65
-948.5
-801.531
-942.078
-904.278
-932.603
-1001.46
-921.273
-1086.29
-906.704
-1181.35
-889.591
-1274.13
-869.538
-1368.98
-847.27
-1461.42
-824.393
-1547.48
-804.684
-1617.93
-794.735
-1658.64
-803.321
-1651.5
-837.212
-1582.86
-894.273
-1457.28
-960.476
-1304.43
-1017.02
-1164.57
-1051.76
-1062.35
-1063.3
-996.257
-1057.18
-951.947
-1040.78
-920.638
-1013.49
-893.844
-945.405
-803.244
-796.904
-464.675
-652.043
163.873
-592.91
711.078
-579.728
1021.46
-577.366
1254.09
-575.424
1481.41
-570.987
1708.15
-564.17
1931.04
-555.671
2144.39
-545.839
2343.89
-534.715
2527.29
-522.341
2693.01
-508.892
2840.41
-494.534
2969.41
-479.301
3080.07
-463.195
3172.07
-446.362
3245.25
-429.002
3300.43
-411.117
3339.28
-392.582
3362.08
-373.416
3368.01
-353.783
3357.51
-333.687
3332.54
-313.032
3293.14
-291.939
3238.73
-270.537
3172.43
-248.592
3097.15
-225.774
3008.76
-202.129
2901.72
-177.774
2779.86
-152.425
2649.81
-125.63
2508.62
-96.6276
2346.1
-64.9447
2141.69
-29.6746
1890.13
9.90508
1591.08
53.0498
1283.21
97.3235
984.495
137.696
603.523
176.688
243.944
212.785
-3.93692
248.406
-127.072
276.48
-149.639
293.388
-98.6118
297.938
-12.9169
292.487
60.0878
280.589
98.6367
265.424
107.305
246.713
82.9886
220.162
16.1358
183.383
-101.57
155.249
-236.269
113.273
-113.954
-71.4259
-709.546
-204.173
-1683.12
-136.905
-1530.91
-1352.55
-947.352
-806.004
-937.82
-913.809
-926.534
-1012.75
-912.978
-1099.85
-896.376
-1197.95
-877.141
-1293.37
-855.195
-1390.93
-831.724
-1484.89
-809.323
-1569.88
-793.352
-1633.9
-792.227
-1659.77
-815.222
-1628.51
-865.959
-1532.12
-935.458
-1387.78
-1003.9
-1235.99
-1052.81
-1115.66
-1075.23
-1039.93
-1074.5
-996.991
-1057.73
-968.711
-1032.35
-946.026
-1001.11
-925.083
-943.809
-860.542
-815.254
-593.229
-660.012
8.63077
-580.718
631.784
-558.561
999.298
-554.838
1250.37
-555.454
1482.03
-555.083
1707.78
-552.062
1928.02
-546.591
2138.92
-539.243
2336.55
-530.3
2518.35
-519.834
2682.55
-507.963
2828.54
-494.831
2956.28
-480.513
3065.75
-465.084
3156.64
-448.745
3228.91
-431.714
3283.4
-414.01
3321.58
-395.546
3343.62
-376.38
3348.85
-356.691
3337.82
-336.488
3312.33
-315.701
3272.35
-294.469
3217.49
-272.917
3150.88
-250.792
3075.02
-227.77
2985.74
-203.899
2877.84
-179.269
2755.23
-153.54
2624.08
-126.16
2481.24
-96.232
2316.17
-63.0698
2108.53
-25.4665
1852.53
17.6217
1547.99
65.4907
1235.34
115.528
934.457
162.222
556.83
207.734
198.432
249.616
-45.8189
287.311
-164.768
314.807
-177.134
329.648
-113.453
331.091
-14.3601
321.969
69.2096
305.935
114.671
286.698
126.542
265.49
104.196
239.248
42.3781
203.719
-66.0403
173.45
-206.001
137.67
-78.1742
-46.2608
-525.615
-197.33
-1532.05
-140.539
-1587.7
-1499.24
-943.133
-813.052
-931.106
-925.836
-917.939
-1025.91
-902.101
-1115.68
-883.361
-1216.69
-861.999
-1314.73
-838.392
-1414.54
-814.425
-1508.86
-794.04
-1590.27
-784.513
-1643.42
-795.83
-1648.45
-836.128
-1588.21
-903.226
-1465.03
-980.277
-1310.73
-1044.25
-1172.02
-1080.71
-1079.2
-1089.18
-1031.46
-1076.68
-1009.49
-1050.65
-994.744
-1017.54
-979.136
-981.565
-961.058
-930.698
-911.409
-823.522
-700.405
-668.09
-146.802
-571.331
535.025
-539.381
967.349
-532.312
1243.3
-533.638
1483.36
-536.674
1710.82
-537.739
1929.08
-535.852
2137.03
-531.412
2332.11
-524.928
2511.86
-516.622
2674.24
-506.595
2818.51
-494.936
2944.62
-481.739
3052.55
-467.147
3142.05
-451.424
3213.19
-434.812
3266.79
-417.352
3304.11
-398.999
3325.26
-379.857
3329.7
-360.12
3318.09
-339.808
3292.02
-318.877
3251.42
-297.491
3196.11
-275.765
3129.15
-253.437
3052.7
-230.188
2962.49
-206.067
2853.72
-181.136
2730.29
-154.996
2597.94
-126.991
2453.23
-96.0757
2285.25
-61.3385
2073.79
-21.2611
1812.45
25.5513
1501.18
78.4454
1182.45
134.623
878.28
188.238
503.214
239.526
147.143
286.692
-92.9845
326.236
-204.313
353.228
-204.125
365.911
-126.136
364.164
-12.6132
351.396
81.9768
331.321
134.746
307.957
149.907
283.682
128.471
257.513
68.5464
224.237
-32.7639
192.053
-173.817
165.224
-51.3445
-7.37981
-353.012
-179.098
-1360.33
-140.706
-1626.09
-1646.21
-936.188
-822.255
-921.915
-940.108
-906.7
-1041.13
-888.5
-1133.89
-867.565
-1237.63
-844.201
-1338.09
-819.413
-1439.32
-796.091
-1532.18
-779.933
-1606.43
-780.289
-1643.07
-807.779
-1620.96
-866.838
-1529.15
-947.024
-1384.84
-1024.62
-1233.13
-1077.6
-1119.04
-1098.61
-1058.19
-1093.24
-1036.83
-1070.44
-1032.29
-1036.92
-1028.26
-997.842
-1018.22
-957.614
-1001.29
-909.975
-959.048
-819.912
-790.468
-670.928
-295.785
-562.287
426.383
-522.075
927.137
-510.918
1232.15
-511.054
1483.49
-516.172
1715.93
-521.091
1934
-523.181
2139.12
-522.142
2331.07
-518.47
2508.19
-512.575
2668.34
-504.635
2810.57
-494.703
2934.69
-482.856
3040.71
-469.29
3128.48
-454.328
3198.22
-438.242
3250.7
-421.102
3286.98
-402.916
3307.08
-383.831
3310.62
-364.062
3298.32
-343.641
3271.6
-322.56
3230.34
-301.006
3174.55
-279.087
3107.23
-256.532
3030.14
-233.03
2938.99
-208.638
2829.33
-183.383
2705.04
-156.805
2571.36
-128.141
2424.57
-96.1897
2253.3
-59.7977
2037.4
-17.1246
1769.78
33.6097
1450.44
91.8047
1124.25
154.453
815.632
215.69
441.978
272.364
90.4685
323.46
-144.08
364.611
-245.464
391.4
-230.915
402.127
-136.862
397.205
-7.69137
380.755
98.4273
356.646
158.855
329.094
177.458
301.362
156.203
274.692
95.2163
244.151
-2.22295
210.023
-139.689
190.352
-31.6732
42.4377
-205.098
-143.831
-1174.06
-143.011
-1626.91
-1786.8
-926.629
-833.44
-910.096
-956.64
-892.664
-1058.56
-872.055
-1154.49
-848.979
-1260.7
-823.941
-1363.13
-798.802
-1464.46
-777.847
-1553.14
-768.914
-1615.36
-783.144
-1628.84
-829.861
-1574.24
-906.625
-1452.39
-993.673
-1297.79
-1063.9
-1162.91
-1100.96
-1081.98
-1105.75
-1053.4
-1088.08
-1054.5
-1057.02
-1063.36
-1018
-1067.27
-974.846
-1061.37
-931.565
-1044.57
-885.566
-1005.05
-808.619
-867.415
-669.276
-435.128
-551.708
308.816
-505.622
881.05
-491.117
1217.64
-488.846
1481.22
-494.338
1721.43
-502.288
1941.95
-508.405
2145.24
-511.2
2333.86
-510.763
2507.75
-507.575
2665.16
-501.953
2804.95
-493.985
2926.72
-483.733
3030.45
-471.409
3116.16
-457.376
3184.19
-441.941
3235.27
-425.216
3270.25
-407.264
3289.13
-388.283
3291.64
-368.506
3278.54
-347.986
3251.08
-326.753
3209.11
-305.019
3152.82
-282.889
3085.1
-260.082
3007.33
-236.306
2915.21
-211.62
2804.65
-186.019
2679.44
-158.982
2544.33
-129.63
2395.22
-96.6027
2220.27
-58.4886
1999.29
-13.1099
1724.4
41.7394
1395.59
105.504
1060.49
174.939
746.197
244.584
372.333
306.649
28.4032
360.504
-197.934
402.544
-287.505
429.155
-257.525
438.192
-145.9
430.206
0.295075
410.004
118.629
381.793
187.067
349.976
209.275
318.581
187.598
290.764
123.033
262.526
26.0144
226.643
-103.806
207.63
-12.6596
94.1201
-91.5883
-89.9153
-990.03
-126.179
-1590.65
-1898.28
-914.404
-846.572
-895.488
-975.556
-875.741
-1078.31
-852.77
-1177.46
-827.777
-1285.7
-801.67
-1389.24
-777.482
-1488.65
-761.34
-1569.28
-763.407
-1613.29
-795.534
-1596.71
-862.723
-1507.05
-952.837
-1362.27
-1038.31
-1212.32
-1094.03
-1107.19
-1112.78
-1063.24
-1102.64
-1063.54
-1075.14
-1082
-1038.13
-1100.37
-995.581
-1109.82
-950.184
-1106.77
-905.227
-1089.52
-860.248
-1050.03
-793.461
-934.202
-665.477
-563.112
-539.053
182.391
-488.471
830.468
-472.286
1201.46
-467.726
1476.66
-472.131
1725.83
-481.815
1951.64
-491.539
2154.96
-498.39
2340.71
-501.611
2510.97
-501.486
2665.03
-498.433
2801.89
-492.65
2920.94
-484.23
3022.03
-473.38
3105.31
-460.473
3171.28
-445.839
3220.64
-429.641
3254.05
-412.008
3271.49
-393.188
3272.82
-373.437
3258.79
-352.836
3230.48
-331.456
3187.73
-309.537
3130.9
-287.177
3062.74
-264.099
2984.26
-240.025
2891.14
-215.023
2779.64
-189.056
2653.47
-161.539
2516.81
-131.478
2365.16
-97.3427
2186.14
-57.4469
1959.39
-9.25644
1676.21
49.9126
1336.43
119.526
990.873
196.08
669.644
274.687
293.725
342.532
-39.4416
398.245
-253.647
440.347
-329.607
466.491
-283.668
473.993
-153.403
463.1
11.1883
439.09
142.639
406.656
219.501
370.444
245.488
335.362
222.68
305.842
152.553
278.256
53.6009
239.801
-65.3507
217.478
9.66333
140.157
-14.2668
-26.0008
-823.872
-95.2288
-1521.42
-1984.06
-899.426
-861.68
-877.997
-996.984
-855.956
-1100.35
-830.809
-1202.61
-804.349
-1312.16
-778.151
-1415.44
-756.825
-1509.98
-748.768
-1577.33
-766.15
-1595.91
-819.285
-1543.57
-905.173
-1421.17
-1000.98
-1266.46
-1075.89
-1137.41
-1112.37
-1070.71
-1113.16
-1062.44
-1090.85
-1085.85
-1056.39
-1116.46
-1015.71
-1141.04
-971.45
-1154.08
-925.358
-1152.86
-879.89
-1134.99
-835.664
-1094.25
-776.738
-993.127
-662.177
-677.673
-526.847
47.0608
-469.404
773.025
-452.999
1185.05
-447.586
1471.25
-450.377
1728.62
-460.408
1961.67
-472.848
2167.4
-483.635
2351.5
-490.821
2518.16
-494.139
2668.35
-493.955
2801.71
-490.584
2917.57
-484.216
3015.66
-475.075
3096.17
-463.509
3159.72
-449.851
3206.98
-434.315
3238.52
-417.103
3254.28
-398.517
3254.23
-378.84
3239.11
-358.184
3209.82
-336.67
3166.21
-314.563
3108.79
-291.962
3040.14
-268.591
2960.89
-244.199
2866.75
-218.86
2754.31
-192.509
2627.12
-164.495
2488.8
-133.706
2334.37
-98.4364
2150.87
-56.703
1917.66
-5.58902
1625.09
58.1338
1272.7
133.912
915.095
218.053
585.502
304.283
207.496
378.171
-113.33
436.008
-311.484
478.088
-371.688
503.467
-309.047
509.428
-159.364
495.775
24.8415
467.911
170.503
431.09
256.322
390.378
286.2
351.823
261.234
320.088
184.288
290.321
83.3679
246.97
-21.9988
218.755
37.8782
170.211
34.2774
34.0095
-687.671
-60.0147
-1427.39
-2024.89
-881.649
-878.776
-857.661
-1020.97
-833.496
-1124.52
-806.542
-1229.56
-779.358
-1339.34
-754.531
-1440.26
-738.729
-1525.78
-742.827
-1573.24
-779.757
-1558.98
-854.795
-1468.54
-953.807
-1322.15
-1045.49
-1174.78
-1102.38
-1080.53
-1118.13
-1054.95
-1103.6
-1076.97
-1072.59
-1116.85
-1033.96
-1155.09
-991.66
-1183.35
-947.183
-1198.56
-901.516
-1198.52
-856.276
-1180.23
-812.478
-1138.05
-759.171
-1046.43
-658.131
-778.713
-516.178
-94.8923
-447.863
704.71
-431.84
1169.03
-427.597
1467
-429.444
1730.47
-438.868
1971.09
-452.847
2181.38
-467.028
2365.68
-478.257
2529.39
-485.353
2675.44
-488.373
2804.73
-487.676
2916.87
-483.579
3011.57
-476.366
3088.96
-466.364
3149.72
-453.88
3194.49
-439.165
3223.8
-422.495
3237.61
-404.232
3235.97
-384.689
3219.57
-364.018
3189.15
-342.39
3144.58
-320.101
3086.51
-297.25
3017.29
-273.571
2937.21
-248.842
2842.02
-223.147
2728.61
-196.393
2600.36
-167.867
2460.27
-136.335
2302.83
-99.908
2114.44
-56.2801
1874.03
-2.11442
1570.93
66.4468
1204.14
148.765
832.777
241.373
492.893
333.264
115.605
411.758
-191.823
472.515
-372.241
515.414
-414.587
540.101
-333.734
544.43
-163.694
528.113
41.1588
496.327
202.289
454.954
297.695
409.793
331.361
367.918
303.109
332.759
219.447
297.174
118.952
246.929
28.2461
212.884
71.9239
181.36
65.8013
78.7715
-585.083
-17.6496
-1330.97
-2034.11
-861.146
-897.806
-834.685
-1047.43
-808.734
-1150.47
-780.565
-1257.73
-753.772
-1366.13
-732.397
-1461.64
-725.63
-1532.55
-746.462
-1552.4
-805.993
-1499.45
-900.286
-1374.24
-1003.31
-1219.13
-1081.04
-1097.05
-1115.68
-1045.89
-1112.42
-1058.21
-1086.51
-1102.88
-1050.3
-1153.07
-1009.93
-1195.45
-967.609
-1225.67
-923.941
-1242.23
-879.286
-1243.18
-834.509
-1225.01
-790.595
-1181.96
-740.572
-1096.46
-650.469
-868.817
-504.825
-240.537
-424.244
624.129
-408.02
1152.8
-406.676
1465.66
-409.083
1732.88
-417.795
1979.81
-432.213
2195.8
-448.865
2382.33
-463.886
2544.41
-474.961
2686.52
-481.521
2811.29
-483.801
2919.15
-482.214
3009.98
-477.14
3083.88
-468.915
3141.49
-457.816
3183.39
-444.104
3210.09
-428.121
3221.63
-410.288
3218.14
-390.956
3200.24
-370.321
3168.52
-348.611
3122.87
-326.153
3064.05
-303.049
2994.19
-279.05
2913.21
-253.967
2816.93
-227.899
2702.54
-200.725
2573.19
-171.673
2431.22
-139.386
2270.55
-101.779
2076.84
-56.1936
1828.45
1.18168
1513.55
74.9424
1130.38
164.274
743.445
266.755
390.412
363.616
18.7443
444.374
-272.581
507.459
-435.327
551.835
-458.962
576.251
-358.151
578.955
-166.397
559.988
60.1257
524.192
238.085
478.153
343.734
428.673
380.842
383.247
348.534
343.1
259.594
298.852
163.2
241.532
85.5658
204.516
108.94
183.161
87.1568
106.068
-507.99
10.0252
-1234.93
-2011.15
-838.14
-918.619
-809.457
-1076.12
-782.243
-1177.68
-753.727
-1286.25
-728.919
-1390.94
-713.841
-1476.71
-720.428
-1525.96
-762.349
-1510.48
-844.875
-1416.92
-951.536
-1267.58
-1047.52
-1123.15
-1103.85
-1040.72
-1115.98
-1033.76
-1097.69
-1076.5
-1064.68
-1135.89
-1026.26
-1191.49
-986.003
-1235.71
-944.702
-1266.97
-902.311
-1284.62
-858.713
-1286.78
-814.179
-1269.54
-769.461
-1226.68
-720.6
-1145.32
-639.079
-950.338
-493.136
-386.479
-399.184
530.177
-381.507
1135.13
-383.887
1468.04
-388.532
1737.52
-397.361
1988.63
-411.608
2210.04
-429.643
2400.37
-447.83
2562.6
-462.858
2701.55
-473.228
2821.66
-478.813
2924.73
-480.012
3011.18
-477.295
3081.16
-471.048
3135.25
-461.541
3173.89
-449.034
3197.58
-433.906
3206.5
-416.63
3200.86
-397.601
3181.21
-377.069
3147.98
-355.321
3101.13
-332.716
3041.44
-309.363
2970.83
-285.037
2888.88
-259.588
2791.49
-233.132
2676.09
-205.524
2545.58
-175.932
2401.63
-142.877
2237.49
-104.069
2038.03
-56.4503
1780.83
4.33794
1452.76
83.7672
1050.95
180.742
646.47
294.08
277.075
396.181
-83.3575
477.409
-353.809
541.323
-499.24
587.049
-504.688
611.617
-382.719
612.883
-167.663
591.259
81.7497
551.375
277.968
500.608
394.501
446.85
434.599
397.3
398.084
350.673
306.222
297.232
216.641
234.785
148.013
197.252
146.473
182.591
101.817
121.814
-447.212
33.9752
-1147.09
-1955.41
-813.027
-940.946
-782.542
-1106.6
-754.788
-1205.43
-727.145
-1313.89
-706.532
-1411.55
-701.466
-1481.78
-726.184
-1501.24
-792.064
-1444.6
-893.93
-1315.06
-1002.42
-1159.09
-1080.99
-1044.58
-1112.6
-1009.12
-1105.38
-1040.98
-1077.03
-1104.85
-1040.73
-1172.19
-1002.35
-1229.87
-963.318
-1274.74
-923.46
-1306.83
-882.267
-1325.81
-839.314
-1329.73
-794.482
-1314.37
-748.25
-1272.91
-698.769
-1194.8
-623.46
-1025.65
-480.05
-529.889
-372.184
422.311
-352.741
1115.68
-358.624
1473.92
-366.849
1745.75
-377.197
1998.98
-391.451
2224.3
-409.976
2418.89
-430.398
2583.02
-449.044
2720.19
-463.354
2835.97
-472.551
2933.93
-476.847
3015.47
-476.734
3081.05
-472.662
3131.17
-464.942
3166.17
-453.846
3186.49
-439.761
3192.41
-423.193
3184.29
-404.578
3162.59
-384.23
3127.64
-362.501
3079.4
-339.781
3018.72
-316.193
2947.24
-291.539
2864.23
-265.717
2765.66
-238.86
2649.23
-210.804
2517.53
-180.662
2371.49
-146.829
2203.66
-106.793
1997.99
-57.0514
1731.08
7.41531
1388.3
93.1343
965.233
198.82
540.784
320.715
155.18
427.787
-190.43
510.319
-436.341
574.467
-563.388
621.005
-551.226
645.896
-407.61
645.976
-167.743
621.747
105.978
577.76
321.955
522.248
450.014
464.085
492.762
409.626
452.543
355.499
360.349
293.788
278.352
228.819
212.982
192.343
182.948
182.137
112.024
131.572
-396.648
52.4263
-1067.95
-1897.22
-786.353
-964.412
-754.66
-1138.29
-727.326
-1232.77
-702.241
-1338.98
-688.814
-1424.98
-698.284
-1472.31
-745.523
-1454
-835.119
-1355.01
-948.066
-1202.11
-1046.33
-1060.83
-1100.45
-990.456
-1108.47
-1001.1
-1087.13
-1062.32
-1053.49
-1138.49
-1016.76
-1208.91
-979.743
-1266.89
-942.347
-1312.13
-903.77
-1345.41
-863.254
-1366.33
-820.238
-1372.75
-774.426
-1360.19
-726.074
-1321.26
-674.681
-1246.19
-603.743