/*--------------------------------*- C++ -*----------------------------------*\
| =========                 |                                                 |
| \\      /  F ield         | OpenFOAM: The Open Source CFD Toolbox           |
|  \\    /   O peration     | Version:  4.1                                   |
|   \\  /    A nd           | Web:      www.OpenFOAM.org                      |
|    \\/     M anipulation  |                                                 |
\*---------------------------------------------------------------------------*/
FoamFile
{
    version     2.0;
    format      ascii;
    class       volScalarField;
    location    "28";
    object      p;
}
// * * * * * * * * * * * * * * * * * * * * * * * * * * * * * * * * * * * * * //

dimensions      [0 2 -2 0 0 0 0];

internalField   nonuniform List<scalar> 
6785
(
648.247
594.05
542.184
493.475
448.309
406
366.361
329.101
293.782
260.14
228.793
200.367
171.511
136.568
106.074
175.103
153.231
148.543
145.018
139.653
134.137
129.182
124.982
121.691
119.423
118.386
119.009
121.297
123.446
123.397
76.9804
71.3382
77.2777
80.9988
83.7685
87.0877
90.6885
94.3368
97.9667
101.431
104.515
107.308
110.172
112.496
113.081
121.481
121.392
125.786
125.903
125.746
125.797
125.573
125.087
124.417
123.589
122.574
121.394
120.362
120.01
120.244
134.801
135.71
137.449
135.709
134.411
133.34
132.065
130.796
129.651
128.671
127.872
127.226
126.727
126.634
126.758
124.321
125.093
126.201
125.728
125.83
126.054
126.169
126.371
126.668
127.017
127.398
127.78
128.041
128.291
128.217
120.251
121.041
122.499
123.38
124.208
124.828
125.306
125.785
126.225
126.593
126.887
127.107
127.123
127.151
126.711
122.388
122.927
124.377
125.562
126.128
126.394
126.569
126.722
126.819
126.863
126.869
126.851
126.628
126.562
126.017
124.687
124.8
125.863
126.855
126.977
126.934
126.892
126.85
126.784
126.709
126.632
126.567
126.249
126.181
125.623
125.131
124.992
125.689
126.526
126.437
126.329
126.255
126.179
126.095
126.02
125.943
125.895
125.53
125.468
124.9
124.039
123.874
124.392
125.231
125.16
125.141
125.136
125.108
125.072
125.041
124.989
124.972
124.59
124.546
123.967
122.059
121.998
122.497
123.416
123.48
123.633
123.762
123.856
123.933
124.002
124.026
124.077
123.719
123.731
123.182
119.823
119.811
120.362
121.428
121.646
121.991
122.285
122.549
122.797
123.042
123.222
123.437
123.168
123.301
122.897
115.138
115.554
116.587
118.091
118.916
120.032
121.114
122.18
123.211
124.151
124.967
125.596
125.694
126.084
125.529
116.071
113.671
112.237
111.908
111.531
112.178
113.29
114.855
116.588
118.497
120.309
121.984
123.542
125.558
126.924
141.567
141.658
141.544
141.213
141.298
141.332
140.922
140.29
140.243
140.503
140.099
139.057
139.041
138.93
137.94
137.815
139.083
138.979
137.197
137.734
138.253
136.873
136.636
139.101
139.315
137.304
137.032
140.077
140.812
138.037
139.269
141.008
139.288
138.91
142.445
143.895
140.991
142.466
144.778
143.09
142.65
146.299
147.922
145.801
145.474
149.114
151.037
148.636
149.893
152.437
151.327
151.133
153.842
155.677
154.5
154.516
156.856
158.658
157.608
158.366
160.296
159.971
160.132
161.183
162.573
162.379
162.621
163.801
163.803
164.064
164.115
164.909
164.98
165.27
164.984
165.666
166.204
165.723
164.98
165.467
166.349
166.341
165.574
172.14
164.689
165.348
165.507
165.577
165.763
166.24
166.26
165.342
170.161
160.741
160.76
161.414
161.866
161.867
162.26
162.021
160.635
162.42
153.996
153.559
153.116
153.134
153.424
153.43
153.382
152.698
150.399
146.718
139.407
138.48
137.5
136.558
136.416
136.696
135.611
132.009
119.326
117.762
117.816
117.269
115.711
114.017
112.766
111.644
108.212
90.975
90.0501
88.2134
88.0833
87.5451
85.561
82.6981
79.0424
74.7018
55.3276
60.5544
57.6255
55.5685
53.5265
51.7593
49.1103
45.0935
40.8025
37.6257
17.6561
27.8712
24.3981
22.4096
20.0795
16.4523
12.0454
11.5096
14.5295
0.567739
14.8117
12.0686
9.45666
11.8826
12.4638
13.1561
13.4064
13.7757
13.7749
13.9395
14.0964
13.4425
13.8862
13.9666
13.272
13.3074
12.9036
13.8556
14.0456
13.251
13.1256
12.4348
13.2798
13.5371
12.3394
12.9026
12.9659
11.9317
11.529
10.6288
11.3479
11.4624
10.4819
10.0392
9.1195
9.90688
10.283
9.22115
10.0641
10.3572
9.59162
9.35015
8.70312
9.88134
10.1912
9.5475
9.42346
8.88595
10.2669
10.7049
9.86471
11.1614
11.2801
10.5851
10.3967
9.91113
11.5788
11.6774
10.9808
10.6376
9.96904
11.545
11.4232
10.2527
11.6794
11.3609
10.4587
10.0124
9.23114
10.7192
9.95439
8.74566
8.4975
7.99231
9.51143
8.38678
6.22692
7.12067
5.22094
2.87463
1.20746
-0.262763
-0.00134463
-0.00408968
-0.00388234
-0.00280911
-0.00147029
-8.91355e-05
0.00139328
0.00274103
0.00409406
0.00544571
0.00676858
0.00840858
0.0107243
0.0132159
0.0160424
0.0191445
0.0224891
0.0258809
0.0292621
0.0325295
0.0358086
0.0386313
0.0406389
0.0412944
0.0399744
0.0361476
0.028942
0.0172377
-0.000186975
-0.0241308
-0.054842
-0.0921586
-0.135139
-0.181896
-0.227907
-0.267169
-0.294445
-0.305229
-0.296219
-0.272596
-0.252057
-0.27242
-0.404217
-0.759391
-1.48713
-2.74565
-4.6498
-7.19646
-10.0985
-12.4
-13.138
-16.3517
-26.1932
-14.5628
0.859121
7.09975
1.32056
8.07513
6.73969
6.80185
5.99267
5.74568
4.64034
3.25468
2.16169
1.26159
0.407867
-0.182652
-1.71209
-3.02054
-4.27601
-4.8763
-4.90971
-4.4426
-3.38546
-2.09766
-0.733505
0.41916
0.806376
0.000479833
-0.00573576
-0.00443004
-0.00116259
0.0029491
0.00723279
0.0117135
0.0161215
0.0207506
0.0256914
0.03101
0.03768
0.0460057
0.0546215
0.06405
0.0742986
0.0851516
0.0962437
0.107667
0.119275
0.131105
0.141839
0.15047
0.155942
0.157044
0.152149
0.138568
0.113263
0.0734964
0.0169404
-0.0592922
-0.157888
-0.280795
-0.427737
-0.594827
-0.777652
-0.971857
-1.16542
-1.34862
-1.51715
-1.6716
-1.83882
-2.09011
-2.55862
-3.42441
-4.84162
-6.82336
-9.1347
-11.1761
-11.67
-9.51203
-10.3607
-21.5969
-15.1442
-2.377
6.05041
5.92952
11.2176
9.81466
10.106
8.85665
7.77829
5.99381
3.82765
1.95939
0.477616
-0.948144
-2.05365
-3.91351
-5.61142
-7.16615
-7.99849
-8.10557
-7.43464
-5.74015
-3.66339
-1.38659
0.69917
2.14953
0.00509528
-0.000844466
0.00295753
0.00845775
0.0151871
0.0222991
0.0296958
0.0374502
0.0459773
0.0556778
0.0670992
0.0810593
0.0965637
0.112932
0.13068
0.150276
0.171366
0.193942
0.218322
0.244561
0.272503
0.300552
0.327663
0.353389
0.376872
0.396138
0.407885
0.408728
0.397099
0.371137
0.326867
0.261184
0.172014
0.061266
-0.066383
-0.207846
-0.35908
-0.499232
-0.620124
-0.716869
-0.779232
-0.839718
-0.974923
-1.32996
-2.09495
-3.41645
-5.26847
-7.35159
-9.0048
-8.90583
-6.04673
-6.26644
-15.1927
-11.3423
-3.64303
6.43974
9.71071
12.0392
11.3999
12.093
10.6679
8.76391
6.52908
3.87615
1.42923
-0.517528
-2.38679
-3.88605
-5.85927
-7.60162
-9.02786
-9.79122
-9.78926
-8.74808
-6.69247
-4.20684
-1.55164
1.05086
3.23035
0.00879699
0.00479916
0.0118132
0.020088
0.0296327
0.0396244
0.050008
0.0611398
0.0737231
0.0886003
0.107097
0.129027
0.152258
0.177844
0.205261
0.235195
0.267719
0.303633
0.343775
0.388821
0.438025
0.489158
0.540906
0.594282
0.650149
0.706914
0.75994
0.805065
0.842274
0.872908
0.89353
0.899067
0.887524
0.864484
0.841173
0.817599
0.793082
0.798112
0.852763
0.94353
1.0783
1.22575
1.28868
1.10746
0.475387
-0.768528
-2.63061
-4.88419
-6.96819
-7.60118
-5.8226
-6.84735
-12.2873
-8.70344
-3.52985
7.9826
11.8509
13.3085
13.8473
14.6655
12.7968
10.2507
7.45397
4.20082
1.07791
-1.4311
-3.69265
-5.53914
-7.56505
-9.25308
-10.4548
-11.1569
-11.1047
-9.73171
-7.33505
-4.47089
-1.50327
1.47296
4.01049
0.00955991
0.00773023
0.0178267
0.0290102
0.0415555
0.0546487
0.0684021
0.0833217
0.100459
0.120944
0.146205
0.175567
0.207456
0.243061
0.28098
0.321542
0.365729
0.414944
0.470975
0.535649
0.607726
0.684338
0.76336
0.846252
0.93571
1.03189
1.12984
1.22393
1.31364
1.40281
1.49125
1.57175
1.63886
1.69974
1.77452
1.86619
1.96211
2.08882
2.28754
2.53909
2.82705
3.1212
3.30675
3.20974
2.6062
1.30091
-0.77829
-3.51679
-6.44949
-8.25926
-7.87049
-9.41991
-10.8144
-7.33068
-2.79804
9.89625
12.7694
14.9098
16.6391
17.4749
15.1527
11.9653
8.59413
4.71875
0.912841
-2.15641
-4.82372
-6.98589
-9.0533
-10.6108
-11.536
-12.2136
-12.1927
-10.5678
-7.85835
-4.62311
-1.34527
1.92878
4.6742
0.00971949
0.0100246
0.0226436
0.0362321
0.0514051
0.0674385
0.0845559
0.103396
0.125315
0.151584
0.18312
0.219711
0.261058
0.307134
0.35636
0.408589
0.465269
0.528065
0.599813
0.683647
0.778391
0.881144
0.989089
1.10307
1.22644
1.36075
1.50218
1.64473
1.78639
1.93104
2.08193
2.23229
2.37165
2.5045
2.65609
2.84004
3.0366
3.25221
3.53929
3.89479
4.28066
4.65232
4.89438
4.81688
4.17945
2.74164
0.357167
-2.95641
-6.75673
-9.58585
-10.1491
-11.4191
-9.37339
-6.20757
-1.57204
11.5564
13.5957
16.9464
19.4705
20.2099
17.5512
13.7106
9.77666
5.31277
0.855905
-2.74723
-5.81533
-8.23968
-10.3314
-11.7335
-12.3277
-12.9766
-13.0391
-11.2346
-8.2564
-4.68169
-1.11504
2.3961
5.23426
0.0102124
0.0130323
0.0277957
0.0434397
0.0609163
0.0795832
0.099767
0.122211
0.148479
0.180029
0.217607
0.261541
0.312165
0.368726
0.429782
0.494955
0.565474
0.643135
0.731443
0.834415
0.951391
1.08018
1.21803
1.36516
1.52456
1.69786
1.882
2.07202
2.26565
2.46558
2.67606
2.8925
3.10249
3.30549
3.52551
3.78717
4.07647
4.37853
4.73728
5.17033
5.63974
6.08182
6.38782
6.35493
5.72209
4.20241
1.57546
-2.20976
-6.67418
-10.2027
-11.3573
-11.391
-7.77859
-5.16081
-0.381301
12.8102
14.479
19.2993
22.0842
22.6752
19.7755
15.3797
10.9173
5.93545
0.876762
-3.21581
-6.67319
-9.31353
-11.4076
-12.6226
-12.8409
-13.4647
-13.6531
-11.7293
-8.52872
-4.65466
-0.834644
2.85785
5.82936
0.0112413
0.0171827
0.0340583
0.0518753
0.0717852
0.093156
0.116429
0.142406
0.172717
0.208976
0.252195
0.303077
0.362111
0.428598
0.501335
0.579954
0.665307
0.759235
0.865515
0.988475
1.12788
1.28257
1.45058
1.63224
1.83002
2.04496
2.2736
2.51203
2.75906
3.01694
3.28898
3.57195
3.85453
4.13262
4.42535
4.76318
5.14588
5.54859
5.99525
6.51601
7.08781
7.64084
8.06431
8.15079
7.61299
6.11879
3.37753
-0.705771
-5.59519
-9.6038
-11.3567
-10.0176
-6.45323
-4.19991
0.598924
13.4703
15.064
21.6348
24.2681
24.7998
21.7509
16.9415
11.9731
6.55685
0.93347
-3.59874
-7.42069
-10.2479
-12.2793
-13.2782
-13.162
-13.7164
-14.0521
-12.0606
-8.69208
-4.55957
-0.51655
3.31235
6.42192
0.0123964
0.0219021
0.0410514
0.0613743
0.084075
0.108558
0.135351
0.165266
0.199908
0.240907
0.289519
0.346821
0.413486
0.489196
0.573047
0.664858
0.765349
0.87641
1.00191
1.14617
1.309
1.49015
1.68868
1.90551
2.14315
2.40204
2.67799
2.96719
3.26993
3.58926
3.92745
4.28069
4.63893
4.99712
5.36953
5.78771
6.26639
6.7835
7.3428
7.97813
8.68347
9.39721
10.0009
10.2856
9.93592
8.57261
5.8394
1.60968
-3.5347
-7.95622
-10.4951
-8.31635
-5.72128
-3.40742
1.58089
13.5521
15.5654
23.7734
26.0033
26.5738
23.4611
18.351
12.9193
7.14023
0.983257
-3.92838
-8.07342
-11.0539
-12.9496
-13.7288
-13.4496
-13.7819
-14.2462
-12.2373
-8.76412
-4.41524
-0.169785
3.75367
6.92105
0.0135391
0.0267735
0.0484386
0.0715709
0.0973732
0.125399
0.156217
0.190633
0.230165
0.276402
0.330685
0.394349
0.468374
0.552865
0.647292
0.751765
0.867161
0.995545
1.14094
1.30755
1.49512
1.704
1.93407
2.18697
2.46544
2.76971
3.09499
3.43724
3.79788
4.18155
4.59025
5.0186
5.45643
5.89841
6.35496
6.85639
7.43102
8.06927
8.76029
9.53384
10.3993
11.3087
12.1446
12.6929
12.6101
11.4631
8.83041
4.55384
-0.762672
-5.63494
-9.15037
-6.82593
-5.21925
-2.72475
2.58844
13.3513
16.4273
25.6884
27.3536
27.988
24.8995
19.5737
13.7388
7.63168
1.0027
-4.22703
-8.64183
-11.7394
-13.4339
-14.007
-13.781
-13.724
-14.2379
-12.2652
-8.75287
-4.2304
0.190647
4.17134
7.37829
0.0145797
0.0315168
0.0559436
0.0821337
0.111283
0.14319
0.178486
0.217963
0.263031
0.315233
0.375908
0.446469
0.528172
0.621513
0.726334
0.843066
0.972942
1.11843
1.28384
1.47298
1.68615
1.92406
2.18712
2.47751
2.79794
3.14859
3.52434
3.92103
4.34084
4.79014
5.27176
5.77929
6.30125
6.83122
7.37553
7.96099
8.62712
9.3843
10.2161
11.1408
12.1819
13.3054
14.4073
15.2668
15.5095
14.6389
12.1618
7.88493
2.40015
-3.02433
-7.33143
-5.58723
-4.75281
-2.28657
3.35752
13.2222
17.8551
27.8166
28.5205
29.0541
26.0422
20.5864
14.4155
7.97723
0.980478
-4.51998
-9.14669
-12.3233
-13.7664
-14.1337
-14.0832
-13.6677
-14.0259
-12.1456
-8.66192
-4.00445
0.550361
4.55976
7.76639
0.015584
0.0361148
0.0634539
0.0928326
0.125443
0.161399
0.201448
0.246418
0.297629
0.356582
0.424595
0.503035
0.593307
0.696213
0.811907
0.941075
1.08539
1.24788
1.43312
1.64442
1.8833
2.15101
2.44838
2.77776
3.14159
3.53974
3.96684
4.41865
4.89794
5.41265
5.9672
6.55547
7.16523
7.78829
8.42563
9.09714
9.84823
10.7136
11.6846
12.765
13.9885
15.3355
16.7193
17.9168
18.5183
17.9521
15.644
11.3626
5.62969
-0.534427
-5.03923
-4.67105
-4.19104
-1.99176
3.77094
13.3723
19.6693
30.2159
29.6659
29.8183
26.8679
21.3523
14.9312
8.11934
0.892381
-4.83082
-9.61348
-12.8301
-13.9766
-14.1283
-14.2422
-13.764
-13.6364
-11.8826
-8.49741
-3.73862
0.908588
4.91418
8.0777
0.0167628
0.0408454
0.0712028
0.103809
0.139865
0.179859
0.224709
0.27535
0.333075
0.39937
0.475573
0.562973
0.663017
0.776705
0.904427
1.04699
1.20647
1.38651
1.59173
1.82495
2.08952
2.38741
2.72004
3.08981
3.4987
3.94586
4.42558
4.93326
5.47209
6.05117
6.67669
7.34429
8.04273
8.76278
9.49973
10.2631
11.0957
12.0542
13.1534
14.3886
15.7962
17.3731
19.043
20.5855
21.553
21.2882
19.1263
14.7901
8.66154
1.48083
-2.94265
-4.21605
-3.64469
-1.80016
3.97071
13.7966
21.6022
32.505
30.7611
30.2985
27.3466
21.8189
15.252
8.01235
0.703244
-5.17265
-10.0617
-13.2851
-14.0978
-14.0057
-14.1978
-13.9878
-13.1673
-11.4972
-8.26779
-3.43482
1.27309
5.2364
8.35774
0.0182256
0.0459465
0.0794984
0.115407
0.154895
0.198865
0.248451
0.304751
0.369102
0.443033
0.527975
0.625181
0.73608
0.861808
1.00296
1.16038
1.33649
1.53531
1.76125
2.01707
2.30781
2.63646
3.00535
3.41699
3.87291
4.37124
4.90581
5.47123
6.07054
6.71342
7.40743
8.15063
8.93486
9.75195
10.5934
11.4573
12.3748
13.4148
14.6251
16.0088
17.5984
19.4081
21.3659
23.2495
24.5725
24.5866
22.5265
18.0556
11.3666
2.91212
-1.70052
-4.00726
-3.22093
-1.70182
4.15506
14.4593
23.5045
34.4332
31.6983
30.5145
27.4486
21.9565
15.3272
7.65037
0.370911
-5.55956
-10.5057
-13.7121
-14.1821
-13.8407
-14.0862
-14.1509
-12.68
-11.0208
-7.98231
-3.09384
1.64995
5.53338
8.53427
0.0200028
0.0515108
0.0884835
0.127818
0.170788
0.218727
0.273037
0.334993
0.406026
0.487755
0.581748
0.689284
0.81177
0.950486
1.10627
1.28007
1.47445
1.69358
1.94155
2.22157
2.5397
2.9003
3.30675
3.7621
4.26746
4.81986
5.41266
6.03945
6.70216
7.41018
8.17153
8.98642
9.85085
10.7603
11.7064
12.6783
13.6905
14.8097
16.1145
17.6345
19.3999
21.4408
23.6902
25.9121
27.5767
27.842
25.8355
21.139
13.7382
4.07072
-1.11174
-3.74106
-3.00378
-1.56019
4.48437
15.2823
25.3136
35.827
32.3534
30.509
27.1966
21.7612
15.0858
7.07703
-0.155235
-6.02385
-10.9531
-14.1261
-14.2873
-13.7466
-13.9584
-14.0163
-12.2096
-10.4562
-7.65186
-2.72411
2.03985
5.80972
8.6633
0.0222087
0.0576434
0.0982278
0.141094
0.187616
0.239576
0.298683
0.366394
0.44424
0.533952
0.637254
0.75551
0.890105
1.04248
1.2138
1.40521
1.61935
1.86027
2.13182
2.43795
2.78521
3.1794
3.6251
4.1262
4.68374
5.29373
5.94897
6.64239
7.37385
8.15118
8.98166
9.86665
10.8058
11.7999
12.8447
13.9266
15.0447
16.2509
17.6408
19.2825
21.2157
23.4815
26.0262
28.5913
30.5914
31.0848
29.0848
24.0494
15.8007
5.56601
-0.722046
-3.42193
-2.91651
-1.39631
4.99277
16.2411
26.9815
36.608
32.7053
30.3419
26.6883
21.2414
14.4713
6.32623
-0.875002
-6.61341
-11.4142
-14.5373
-14.4741
-13.7171
-13.7842
-13.606
-11.7998
-9.83426
-7.29328
-2.33912
2.43728
6.07219
8.73508
0.0250097
0.0645581
0.108941
0.155422
0.205563
0.261581
0.325533
0.399096
0.483911
0.581835
0.694756
0.824163
0.971413
1.13811
1.32575
1.53582
1.77097
2.03498
2.33166
2.66566
3.04393
3.47351
3.96024
4.50907
5.12139
5.79263
6.5149
7.28087
8.08833
8.94207
9.84718
10.8047
11.8162
12.8874
14.0207
15.2069
16.4365
17.7422
19.2194
20.972
23.0659
25.5502
28.3899
31.3075
33.6468
34.3525
32.3072
26.7943
17.5431
7.26136
-0.374662
-3.21304
-2.8888
-1.30531
5.56293
17.3041
28.4821
36.88
32.7589
30.0709
26.0584
20.4381
13.4899
5.34366
-1.76484
-7.39219
-11.9264
-14.964
-14.7585
-13.6951
-13.5153
-13.0692
-11.4809
-9.23232
-6.92268
-1.94376
2.83619
6.3191
8.76923
0.0284938
0.0725024
0.12097
0.171222
0.225084
0.285168
0.353912
0.433302
0.525132
0.631429
0.754259
0.895276
1.05583
1.23764
1.44248
1.67224
1.92958
2.21798
2.54136
2.90488
3.31603
3.78278
4.31224
4.91048
5.57966
6.31524
7.10892
7.95313
8.84424
9.78333
10.7719
11.8088
12.8954
14.0397
15.251
16.5294
17.867
19.2818
20.8565
22.7172
24.9671
27.6676
30.7995
34.0751
36.7613
37.6675
35.5174
29.39
18.9903
8.61732
-0.00996982
-3.11442
-2.94516
-1.24577
6.17041
18.3944
29.7529
36.7402
32.6357
29.7458
25.395
19.4391
12.2156
4.06289
-2.87342
-8.38663
-12.5557
-15.4239
-15.1161
-13.6872
-13.2099
-12.5178
-11.1679
-8.69864
-6.54156
-1.52979
3.23625
6.54989
8.80862
0.0325816
0.0815669
0.134579
0.188938
0.24676
0.310981
0.384426
0.469498
0.568243
0.68292
0.815802
0.968746
1.1432
1.34094
1.564
1.81462
2.0954
2.4097
2.76156
3.15647
3.60248
4.10829
4.68217
5.33125
6.05879
6.86088
7.72942
8.65674
9.63822
10.6716
11.7539
12.8805
14.0502
15.2698
16.5527
17.9094
19.3427
20.8668
22.5496
24.5235
26.9273
29.8446
33.2661
36.8994
39.937
41.0318
38.7075
31.8358
20.324
9.51756
0.54914
-3.02764
-3.14111
-1.08498
6.88325
19.4428
30.6378
36.3626
32.5035
29.3945
24.7127
18.301
10.7142
2.47568
-4.25458
-9.58582
-13.3739
-15.9294
-15.5402
-13.7332
-12.9087
-11.9563
-10.7513
-8.27182
-6.13255
-1.09024
3.64393
6.77903
8.83102
0.0370105
0.0915521
0.149726
0.208738
0.270981
0.339632
0.41783
0.508485
0.614012
0.736946
0.87979
1.0447
1.23339
1.44773
1.68998
1.96266
2.26831
2.61026
2.99268
3.42135
3.90458
4.45176
5.07206
5.77352
6.56056
7.43059
8.37623
9.39023
10.4672
11.6022
12.7881
14.0159
15.28
16.5832
17.9382
19.3635
20.8762
22.499
24.2931
26.3871
28.9442
32.0782
35.788
39.7761
43.165
44.4289
41.8321
34.0861
21.9552
10.3007
1.2469
-2.99967
-3.47465
-0.728526
7.72622
20.3771
31.0273
35.8821
32.3898
28.9878
23.8659
16.9487
8.96227
0.581012
-5.99785
-11.0467
-14.4307
-16.5252
-16.018
-13.8449
-12.6039
-11.3563
-10.1295
-7.95504
-5.65575
-0.620942
4.06665
7.01384
8.83619
0.0414083
0.102007
0.166029
0.230407
0.297772
0.37145
0.454768
0.55113
0.663437
0.794494
0.947088
1.12379
1.32673
1.55798
1.82014
2.11591
2.44782
2.81927
3.2346
3.69982
4.22323
4.81475
5.48417
6.24018
7.08816
8.02726
9.0514
10.1542
11.3301
12.5721
13.8691
15.2082
16.5787
17.9772
19.4118
20.9032
22.4816
24.1862
26.0836
28.2991
31.0088
34.356
38.3531
42.6946
46.4318
47.8323
44.8266
36.0452
23.7758
11.1029
1.85779
-3.02098
-3.80671
-0.170781
8.61958
21.0732
30.9174
35.3068
32.1792
28.3335
22.5665
15.2231
6.85686
-1.65292
-8.1583
-12.8147
-15.6665
-17.2454
-16.522
-14.0112
-12.2886
-10.7754
-9.41046
-7.69017
-5.04266
-0.126289
4.50679
7.25205
8.86019
0.0454405
0.112439
0.182952
0.253463
0.326796
0.406338
0.495485
0.598032
0.717399
0.856638
1.01887
1.20715
1.42411
1.67225
1.95462
2.27412
2.63345
3.03609
3.4867
3.99145
4.55852
5.19799
5.92015
6.73393
7.64526
8.65506
9.75902
10.9517
12.2282
13.5801
14.9934
16.4513
17.9381
19.4438
20.9691
22.5316
24.169
25.9386
27.9226
30.2521
33.1102
36.6643
40.9466
45.6433
49.7269
51.222
47.6642
37.6728
25.2062
11.939
2.35088
-3.03628
-3.99173
0.470782
9.45447
21.387
30.43
34.5912
31.7058
27.2287
20.5038
12.7857
4.1988
-4.34738
-10.735
-14.857
-16.9827
-18.0171
-17.0163
-14.2276
-11.9993
-10.2614
-8.75403
-7.3953
-4.28801
0.385326
4.96139
7.49738
8.88769
0.0489503
0.122522
0.200021
0.277343
0.357485
0.443827
0.539763
0.649336
0.776389
0.924208
1.09627
1.29609
1.52687
1.79175
2.09429
2.43776
2.82524
3.2604
3.74834
4.29544
4.90976
5.60126
6.38049
7.2564
8.23489
9.3182
10.5041
11.7881
13.1657
14.6284
16.1604
17.7413
19.351
20.9732
22.6003
24.243
25.9404
27.7633
29.8153
32.2434
35.2408
38.9941
43.5582
48.6154
53.0477
54.5882
50.3318
39.1109
26.1724
12.8578
2.85906
-2.98837
-3.96363
1.07701
10.0926
21.2337
29.6548
33.7027
30.8995
25.5004
17.4402
9.11775
0.668154
-7.63619
-13.7088
-17.2624
-18.6018
-18.8661
-17.4649
-14.4567
-11.7615
-9.80317
-8.17616
-6.99816
-3.46372
0.918416
5.43145
7.75884
8.96818
0.0519797
0.132169
0.216975
0.301617
0.389272
0.483286
0.587052
0.704734
0.840396
0.997572
1.18004
1.39172
1.6364
1.91799
2.24058
2.60803
3.024
3.49256
4.01938
4.61115
5.27604
6.02368
6.86465
7.80779
8.85864
10.0199
11.2913
12.6694
14.1493
15.7227
17.3732
19.0782
20.8136
22.5574
24.2942
26.0268
27.7899
29.6619
31.7669
34.2751
37.3982
41.3414
46.1837
51.6095
56.3934
57.9024
52.7998
40.7341
27.0169
13.8588
3.45372
-2.85106
-3.72702
1.61134
10.4601
20.7236
28.6825
32.7138
29.666
22.8686
13.1932
4.20698
-3.64351
-11.2649
-16.8945
-19.916
-20.521
-19.9161
-17.9366
-14.6492
-11.561
-9.36672
-7.61843
-6.46138
-2.62892
1.48506
5.92257
8.04921
9.08721
0.0547127
0.14151
0.233821
0.326128
0.421784
0.524172
0.636721
0.763625
0.908975
1.07657
1.2704
1.49468
1.7538
2.05238
2.39511
2.78661
3.23123
3.73376
4.30047
4.93867
5.65683
6.46432
7.37154
8.38726
9.51653
10.7617
12.1236
13.6001
15.1855
16.8706
18.6389
20.4668
22.3271
24.1932
26.0432
27.8719
29.7073
31.6297
33.7781
36.3498
39.5826
43.7051
48.8229
54.6262
59.7582
61.1255
54.9823
42.3811
27.8645
14.8098
4.0761
-2.62791
-3.3239
2.12883
10.5814
20.0185
27.6067
31.5647
27.6855
19.1357
7.90447
-1.57514
-8.58722
-15.1487
-20.1636
-22.6793
-22.5881
-21.1395
-18.559
-14.8216
-11.3588
-8.90926
-7.00271
-5.73437
-1.89435
2.08514
6.43894
8.36136
9.25366
0.0573975
0.150825
0.250799
0.351001
0.454943
0.566202
0.688288
0.825369
0.981485
1.16068
1.36705
1.60504
1.87959
2.1959
2.55931
2.97524
3.44885
3.98585
4.59318
5.27904
6.05242
6.9228
7.9003
8.99357
10.2075
11.5434
13.0022
14.5828
16.279
18.0791
19.966
21.9153
23.8981
25.8837
27.8456
29.7717
31.6833
33.6579
35.8446
38.4664
41.7928
46.0833
51.474
57.6621
63.1287
64.2251
56.8329
43.599
28.696
15.6846
4.67905
-2.24138
-2.82055
2.64637
10.5793
19.2442
26.4478
29.9373
24.6673
14.4926
1.73871
-8.32387
-14.5984
-19.6256
-23.5585
-25.5525
-24.7998
-22.4821
-19.3139
-15.0579
-11.1453
-8.42562
-6.2851
-4.81855
-1.27401
2.72096
6.98353
8.68472
9.47725
0.0602676
0.160455
0.26827
0.376548
0.488956
0.60941
0.74155
0.889517
1.05733
1.24922
1.46934
1.72237
2.01366
2.34888
2.73406
3.1753
3.67868
4.25091
4.89965
5.63415
6.46417
7.39975
8.4508
9.62591
10.93
12.364
13.9272
15.6185
17.4316
19.3525
21.3614
23.4327
25.5356
27.6367
29.7057
31.7258
33.7124
35.7383
37.9588
40.6188
44.0234
48.4697
54.13
60.7062
66.4737
67.1362
58.4232
44.3938
29.5713
16.4953
5.32322
-1.63032
-2.23315
3.12813
10.542
18.4533
25.1432
27.5217
20.9049
9.1078
-5.22775
-16.064
-21.8601
-25.2497
-27.5498
-28.5435
-27.1474
-23.9708
-20.1077
-15.4258
-10.9484
-7.93986
-5.50582
-3.77803
-0.703846
3.42233
7.54651
9.0343
9.72757
0.063479
0.170706
0.286596
0.403155
0.52421
0.654095
0.796622
0.955945
1.13617
1.34163
1.57661
1.846
2.15544
2.51105
2.91949
3.38749
3.92203
4.53074
5.22211
6.0064
6.89435
7.89687
9.02407
10.2845
11.6834
13.2218
14.8973
16.7069
18.6436
20.6919
22.8287
25.0252
27.2482
29.4615
31.6318
33.739
35.7941
37.8659
40.1125
42.7983
46.2648
50.853
56.7767
63.7349
69.7304
69.7691
59.9978
45.044
30.4228
17.2192
6.02173
-0.850116
-1.62602
3.58352
10.5227
17.669
23.5508
24.5395
16.7728
3.23782
-12.519
-23.9909
-29.4383
-31.5567
-32.3513
-31.9352
-29.6015
-25.6074
-20.9368
-15.9045
-10.8467
-7.43008
-4.68669
-2.71505
-0.0738824
4.2084
8.10822
9.41651
10.0179
0.0670729
0.181769
0.306042
0.431163
0.561142
0.700712
0.853871
1.02487
1.21801
1.43767
1.68837
1.97526
2.3042
2.68177
3.11519
3.61177
4.17938
4.82642
5.56228
6.39805
7.34553
8.4167
9.62225
10.9709
12.4681
14.116
15.911
17.8469
19.9147
22.0974
24.3686
26.6957
29.0414
31.366
33.6328
35.819
37.9327
40.0399
42.2999
44.9959
48.5056
53.219
59.3966
66.7164
72.8208
71.9892
61.3321
45.6019
31.0436
17.9647
6.8944
0.0525693
-0.959884
4.01749
10.495
16.9479
21.656
21.4557
12.3493
-2.76934
-19.7351
-31.5607
-36.7061
-37.8722
-37.4974
-35.8106
-32.2419
-27.3774
-21.8677
-16.4114
-10.8913
-6.84886
-3.84298
-1.66019
0.638699
5.06949
8.66297
9.82556
10.3553
0.0709832
0.193691
0.32673
0.460803
0.600123
0.749719
0.913779
1.09676
1.30314
1.53744
1.80451
2.10976
2.45932
2.86029
3.32042
3.84761
4.4505
5.13818
5.92097
6.8106
7.81991
8.96188
10.2481
11.6877
13.2865
15.0474
16.9674
19.0372
21.2441
23.5684
25.981
28.445
30.9181
33.3554
35.716
37.9738
40.1351
42.2631
44.5196
47.2051
50.7358
55.5551
61.974
69.6178
75.6558
73.6927
62.122
46.1251
31.7925
18.9582
8.017
0.974127
-0.303837
4.37154
10.4555
16.2673
19.6772
18.3441
7.66841
-8.85223
-26.8238
-38.633
-43.393
-43.7777
-42.5259
-39.8623
-35.1449
-29.2641
-22.8782
-16.8909
-11.0733
-6.24688
-3.00458
-0.591209
1.48295
5.9856
9.22999
10.2646
10.7201
0.0750808
0.206374
0.348623
0.492152
0.641354
0.801445
0.97679
1.17211
1.39203
1.64133
1.92524
2.24949
2.62055
3.04611
3.53448
4.09426
4.7347
5.46556
6.29807
7.24453
8.31871
9.53439
10.9042
12.438
14.1419
16.0191
18.0677
20.2773
22.6307
25.1042
27.6654
30.273
32.8791
35.4327
37.8868
40.2109
42.4088
44.5415
46.7739
49.4242
52.9496
57.8533
64.497
72.3997
78.1233
74.8639
62.392
46.4443
32.2465
19.7366
9.0961
1.83416
0.27819
4.60327
10.4127
15.4216
17.7569
14.963
2.82826
-15.1077
-33.6869
-45.0115
-49.2523
-48.9898
-47.116
-43.7674
-38.1899
-31.2348
-24.0016
-17.378
-11.3446
-5.76115
-2.17016
0.457644
2.43384
6.92456
9.82505
10.7509
11.1288
0.0792277
0.219634
0.371562
0.525122
0.684823
0.856008
1.04317
1.25131
1.48519
1.74989
2.05106
2.3948
2.78805
3.23912
3.75699
4.35109
5.03119
5.80778
6.69287
7.69942
8.84202
10.1351
11.592
13.2237
15.037
17.0347
19.2154
21.5689
24.0748
26.7047
29.4216
32.1797
34.9249
37.5995
40.1487
42.5358
44.7608
46.8825
49.0683
51.6556
55.1459
60.1094
66.9521
75.0068
80.1154
75.499
62.2953
46.6618
32.5565
20.543
10.1316
2.64529
0.789931
4.7489
10.3249
14.2894
15.732
11.2314
-2.18491
-21.4804
-40.0363
-50.4744
-54.1121
-53.3646
-51.0729
-47.2738
-41.1562
-33.3488
-25.2342
-17.847
-11.6002
-5.45484
-1.23442
1.49177
3.47113
7.83805
10.4343
11.3008
11.5639
0.0833301
0.233298
0.395354
0.559518
0.730351
0.913301
1.11294
1.33451
1.58293
1.86361
2.18253
2.54626
2.96234
3.43966
3.98803
4.61782
5.33941
6.16405
7.10445
8.17438
9.38911
10.7636
12.312
14.046
15.9736
18.0972
20.4147
22.9157
25.5787
28.371
31.2505
34.1656
37.0563
39.8571
42.5042
44.9531
47.1975
49.2937
51.4098
53.9037
57.3251
62.3186
69.3199
77.3576
81.5223
75.5446
62.0229
47.0752
33.3126
21.5192
11.0585
3.43464
1.19018
4.80864
10.0992
13.0706
13.4686
7.29443
-7.40411
-27.7161
-45.5801
-54.9457
-57.9587
-56.9053
-54.3438
-50.2572
-43.8468
-35.4735
-26.4595
-18.3563
-11.7763
-5.31393
-0.192271
2.53708
4.60848
8.70365
11.0369
11.9046
12.0579
0.0873889
0.247292
0.419873
0.595151
0.777686
0.973062
1.18589
1.42159
1.68528
1.98269
2.32006
2.70444
3.14403
3.64834
4.22809
4.89467
5.65922
6.53391
7.53207
8.66843
9.9589
11.4191
13.0635
14.9046
16.9517
19.2074
21.6678
24.3217
27.1463
30.1061
33.1541
36.2326
39.2751
42.2074
44.9561
47.4661
49.7244
51.7812
53.805
56.1726
59.486
64.4711
71.5668
79.3661
82.3331
75.1185
61.4657
46.9892
33.5965
22.2013
11.8322
4.169
1.45232
4.77366
9.69855
11.9384
10.8979
3.27649
-12.7494
-33.5119
-50.1901
-58.5185
-60.9589
-59.7324
-56.9838
-52.6949
-46.1423
-37.4731
-27.7489
-18.945
-11.8352
-5.27991
0.806675
3.62678
5.79742
9.48509
11.6216
12.5484
12.6238
0.0915084
0.261688
0.445137
0.631935
0.826623
1.035
1.26167
1.5122
1.79198
2.10699
2.46373
2.86966
3.33366
3.86585
4.47793
5.18223
5.99095
6.91733
7.97537
9.18088
10.5504
12.1003
13.8455
15.799
17.9708
20.3646
22.9752
25.7888
28.7809
31.9137
35.1357
38.3836
41.5836
44.6529
47.5068
50.0782
52.345
54.3494
56.2571
58.4622
61.6204
66.5471
73.6481
80.9599
82.5293
74.2266
60.6986
46.5567
33.666
22.6491
12.4722
4.85882
1.66509
4.71092
9.30573
10.7997
8.10886
-0.774356
-18.0379
-38.6536
-53.9258
-61.3817
-63.3708
-62.0303
-59.1177
-54.647
-48.0086
-39.2229
-29.0168
-19.4227
-11.8033
-5.19401
1.65848
4.84034
7.0065
10.1796
12.1814
13.211
13.2074
0.0958656
0.276698
0.471319
0.669949
0.877115
1.0989
1.33994
1.60592
1.90254
2.23608
2.61323
3.04186
3.53139
4.09263
4.73819
5.48125
6.3353
7.31473
8.43449
9.71146
11.163
12.8061
14.6567
16.728
19.0302
21.5679
24.3356
27.3168
30.4839
33.7962
37.1984
40.6217
43.9849
47.1963
50.1588
52.7919
55.0613
57
58.7654
60.7659
63.7133
68.523
75.5146
82.0859
82.1335
73.1459
59.883
46.1531
33.824
23.0898
13.1232
5.47592
1.85668
4.71876
9.21476
9.56617
5.28106
-4.81213
-23.0597
-43.0648
-56.9656
-63.7442
-65.4181
-63.9754
-60.885
-56.2137
-49.4722
-40.6491
-30.1693
-19.8398
-11.7316
-4.91161
2.30185
6.19898
8.22962
10.861
12.7425
13.8634
13.7827
0.100653
0.292598
0.498698
0.709417
0.929283
1.16475
1.42051
1.70241
2.01653
2.36941
2.76801
3.22056
3.73695
4.32868
5.00913
5.79231
6.69301
7.72683
8.91
10.2604
11.7965
13.5361
15.496
17.6905
20.1292
22.8169
25.7481
28.9045
32.2549
35.7546
39.3442
42.9493
46.4817
49.84
52.9142
55.6082
57.8739
59.7314
61.3247
63.071
65.7446
70.3683
77.0976
82.7
81.2765
71.9831
59.0845
45.9392
34.204
23.7012
13.8902
6.0065
2.06019
4.8994
9.55985
8.39344
2.57458
-8.75534
-27.6495
-46.7843
-59.5133
-65.7864
-67.2439
-65.6923
-62.4022
-57.4997
-50.6003
-41.7382
-31.1262
-20.2087
-11.4502
-4.40121
2.74923
7.58201
9.44803
11.5936
13.3611
14.5078
14.314
0.106027
0.309666
0.527591
0.75065
0.98339
1.23268
1.50336
1.80154
2.13365
2.50653
2.92747
3.40509
3.9497
4.57347
5.29048
6.11548
7.0645
8.15433
9.40265
10.8285
12.4513
14.2902
16.363
18.6852
21.2667
24.111
27.2124
30.5513
34.0933
37.789
41.5739
45.368
49.0758
52.586
55.7748
58.5279
60.7815
62.5392
63.9252
65.3609
67.6947
72.05
78.3482
82.7602
80.0225
70.6753
58.1739
45.8379
34.7648
24.5832
14.8711
6.58976
2.38782
5.32579
10.3167
7.33025
0.0618648
-12.5048
-31.713
-49.907
-61.7275
-67.6349
-68.9281
-67.2475
-63.744
-58.588
-51.472
-42.5157
-31.8305
-20.4626
-10.8688
-3.70354
3.22261
8.85525
10.6078
12.3626
14.0557
15.1627
14.848
0.112077
0.328127
0.558295
0.793978
1.03977
1.30298
1.58867
1.90335
2.25379
2.64716
3.09116
3.59483
4.16889
4.82622
5.58148
6.45024
7.4496
8.59745
9.91298
11.4163
13.1281
15.069
17.258
19.7118
22.4415
25.4494
28.7282
32.2571
35.9987
39.899
43.888
47.8791
51.7689
55.4361
58.7417
61.5511