/*--------------------------------*- C++ -*----------------------------------*\
| =========                 |                                                 |
| \\      /  F ield         | OpenFOAM: The Open Source CFD Toolbox           |
|  \\    /   O peration     | Version:  4.1                                   |
|   \\  /    A nd           | Web:      www.OpenFOAM.org                      |
|    \\/     M anipulation  |                                                 |
\*---------------------------------------------------------------------------*/
FoamFile
{
    version     2.0;
    format      ascii;
    class       volVectorField;
    location    "28";
    object      U;
}
// * * * * * * * * * * * * * * * * * * * * * * * * * * * * * * * * * * * * * //

dimensions      [0 1 -1 0 0 0 0];

internalField   nonuniform List<vector> 
6785
(
(9.54256e-15 0.684595 15.7418)
(5.87252e-15 -5.13029 12.0537)
(-2.99274e-15 -4.2925 12.1841)
(4.54223e-15 -3.72376 12.0221)
(9.52018e-16 -3.11931 11.901)
(-2.49489e-15 -2.66647 11.7153)
(5.05126e-15 -2.31761 11.4881)
(9.48007e-16 -2.07344 11.2168)
(-1.29469e-16 -1.90795 10.9139)
(1.97738e-15 -1.81721 10.5843)
(9.60957e-17 -1.92243 10.165)
(-1.22767e-15 -2.3718 9.56009)
(3.27689e-15 -2.68973 8.96979)
(-1.08114e-16 -1.33552 8.92612)
(-1.97832e-15 1.73303 7.64141)
(2.65422e-14 -5.63788 22.1818)
(2.3707e-14 -14.767 21.3399)
(1.39038e-15 -13.2426 20.4985)
(7.96126e-15 -11.8214 19.622)
(4.17645e-15 -11.2269 18.5971)
(-1.52083e-15 -10.7092 17.6049)
(3.95026e-15 -10.1209 16.6522)
(2.35815e-15 -9.54483 15.6955)
(-3.11558e-16 -8.9791 14.7276)
(5.40014e-15 -8.37634 13.7518)
(2.9084e-15 -7.75128 12.7738)
(-1.36867e-15 -7.27679 11.7832)
(5.99986e-15 -7.01218 10.6939)
(1.35588e-15 -5.78434 8.97429)
(-1.9615e-15 -1.73337 4.85349)
(2.05201e-14 -7.89599 22.1871)
(2.34569e-14 -16.7498 24.7016)
(1.05974e-15 -13.8114 23.9907)
(2.81716e-15 -12.4976 22.6552)
(8.95073e-15 -11.833 21.2612)
(-3.99398e-16 -10.989 20.0207)
(4.77561e-15 -10.1074 18.7901)
(2.08528e-15 -9.26101 17.5388)
(-1.75043e-15 -8.43686 16.2753)
(-7.88982e-15 -7.62018 15.0228)
(3.6726e-15 -6.79707 13.8036)
(-3.33518e-15 -5.96863 12.4327)
(2.91095e-17 -4.99131 10.327)
(9.92935e-15 -3.27578 6.89127)
(-1.53515e-15 -0.66288 2.4003)
(2.25173e-14 -8.14296 17.987)
(1.92316e-14 -16.3386 24.455)
(6.01758e-15 -13.4361 23.9539)
(1.782e-15 -12.5306 22.1186)
(-1.57628e-15 -11.7971 20.6141)
(3.06508e-15 -10.8464 19.2822)
(2.61841e-15 -9.96759 17.922)
(-4.3505e-16 -9.13809 16.5572)
(-1.10655e-15 -8.34533 15.204)
(-5.44543e-16 -7.5964 13.8759)
(-4.22684e-15 -6.83601 12.5327)
(-2.6776e-15 -5.87463 10.8639)
(-3.97465e-15 -4.38633 8.19813)
(-1.07536e-14 -2.24463 3.97686)
(2.39719e-14 0.0135066 -1.35117)
(1.61736e-14 -7.32247 13.9169)
(1.556e-14 -15.3602 23.7138)
(5.87582e-15 -13.9047 24.0467)
(1.06748e-15 -13.0907 21.9525)
(-6.28985e-15 -12.2991 20.3348)
(-4.79688e-16 -11.3796 18.9615)
(-9.93102e-16 -10.5629 17.552)
(-5.91349e-15 -9.76995 16.1492)
(6.22444e-15 -8.98444 14.7763)
(-2.00176e-15 -8.22678 13.4377)
(-8.95964e-15 -7.46124 12.0841)
(7.90822e-16 -6.51695 10.4502)
(-5.9036e-15 -5.04623 8.04609)
(-2.47552e-14 -3.17202 4.57072)
(-2.89911e-14 -1.17658 1.48121)
(1.82222e-14 -6.12172 10.8671)
(1.72586e-14 -14.1686 22.6777)
(9.12361e-15 -14.3402 24.3344)
(2.07754e-15 -13.5265 22.4684)
(-3.75649e-15 -12.5724 20.7486)
(6.19405e-16 -11.6376 19.3228)
(-4.95415e-16 -10.8167 17.9003)
(-4.38382e-15 -9.99773 16.4888)
(3.2899e-15 -9.17168 15.1061)
(-9.34958e-16 -8.36571 13.7563)
(-7.45161e-15 -7.55855 12.4013)
(-3.07264e-15 -6.63355 10.8196)
(-6.42133e-15 -5.23913 8.63843)
(-1.49315e-14 -3.66685 5.60158)
(-7.61643e-15 -1.44487 3.03324)
(2.53481e-14 -5.11702 8.83417)
(1.27249e-14 -13.0037 21.5816)
(1.51647e-14 -14.2998 24.2377)
(4.89843e-15 -13.5817 22.8805)
(1.0691e-15 -12.54 21.1366)
(5.50365e-15 -11.6024 19.6455)
(1.32232e-15 -10.7723 18.209)
(-1.54764e-15 -9.93365 16.7937)
(7.24723e-15 -9.09438 15.4011)
(1.18625e-15 -8.28097 14.0388)
(-2.74191e-15 -7.47016 12.6763)
(-1.0414e-14 -6.57771 11.0971)
(-4.03855e-15 -5.18788 8.98948)
(-1.39374e-14 -3.93067 6.09409)
(1.47803e-14 -1.52251 3.98142)
(1.27857e-14 -4.64288 8.03871)
(2.10512e-14 -12.2071 20.846)
(1.56641e-14 -14.043 23.8098)
(3.45588e-15 -13.4653 23.0231)
(1.44821e-15 -12.4675 21.3223)
(6.48116e-15 -11.5578 19.7839)
(-8.87322e-16 -10.7286 18.3377)
(-3.31508e-17 -9.88992 16.9198)
(6.93377e-15 -9.05962 15.5204)
(-1.7921e-15 -8.25652 14.1509)
(-1.04674e-17 -7.44984 12.7815)
(7.8772e-15 -6.57476 11.1714)
(-2.29559e-15 -5.10171 9.06408)
(-1.08326e-14 -4.06895 6.15572)
(5.57661e-15 -1.53729 4.35227)
(1.24698e-14 -4.52619 7.89027)
(1.98046e-14 -11.735 20.3704)
(1.06794e-14 -13.8031 23.2622)
(4.41168e-15 -13.3751 23.0325)
(6.82267e-16 -12.4903 21.4173)
(7.60665e-16 -11.5973 19.8593)
(2.22174e-16 -10.7601 18.4112)
(7.03707e-16 -9.9227 16.993)
(2.57371e-15 -9.09869 15.5906)
(-8.59847e-16 -8.29981 14.2189)
(1.53433e-16 -7.48696 12.8451)
(3.43969e-16 -6.61919 11.1873)
(-2.7201e-15 -5.03226 9.06833)
(-9.22972e-15 -4.21376 6.20106)
(-1.14826e-14 -1.60938 4.64519)
(4.89711e-15 -4.46671 7.68808)
(1.848e-14 -11.3849 19.9242)
(9.8066e-15 -13.6213 22.7601)
(1.38335e-15 -13.3412 23.0101)
(8.33212e-16 -12.5816 21.512)
(-1.67004e-15 -11.6828 19.9524)
(-3.54696e-15 -10.8287 18.5021)
(-6.69117e-16 -9.9895 17.0827)
(3.1564e-17 -9.1652 15.6796)
(-6.63989e-15 -8.36483 14.307)
(-1.83036e-15 -7.53819 12.9292)
(-6.43695e-15 -6.6747 11.2154)
(-2.23463e-14 -4.98123 9.08699)
(-5.92942e-15 -4.37559 6.32604)
(-1.71059e-14 -1.73469 4.98451)
(4.1602e-15 -4.31507 7.23208)
(1.93588e-14 -11.0175 19.4026)
(1.94591e-15 -13.4556 22.3549)
(4.78357e-16 -13.3288 23.0073)
(2.18819e-15 -12.6927 21.6519)
(-1.04081e-14 -11.7833 20.0973)
(-1.1122e-14 -10.912 18.6339)
(2.24908e-15 -10.0693 17.2058)
(-1.56936e-14 -9.2402 15.797)
(-5.63531e-15 -8.43606 14.4165)
(3.35919e-16 -7.589 13.0308)
(-3.11595e-14 -6.73031 11.2584)
(-6.75233e-15 -4.94897 9.11816)
(-4.09817e-14 -4.52758 6.46449)
(-3.06388e-14 -1.86033 5.31212)
(-6.59038e-15 -4.1381 6.7444)
(1.9518e-14 -10.6429 18.9415)
(-4.08017e-15 -13.2368 22.0271)
(2.91233e-15 -13.2222 22.9915)
(-5.9631e-15 -12.6906 21.7599)
(-1.98192e-14 -11.773 20.2319)
(1.78076e-15 -10.8988 18.7673)
(5.80414e-15 -10.0595 17.3364)
(-1.83162e-14 -9.23268 15.9298)
(-5.03687e-15 -8.4355 14.5465)
(-5.22774e-16 -7.5769 13.145)
(-1.83885e-14 -6.71349 11.2964)
(-7.03626e-15 -4.86949 9.15572)
(-3.1126e-14 -4.68861 6.65566)
(-3.13813e-14 -1.98361 5.63261)
(-1.59018e-14 -4.19526 6.81726)
(1.75397e-14 -10.4749 18.8266)
(5.25286e-16 -13.1736 21.8873)
(2.72639e-16 -13.2404 23.1384)
(5.60011e-15 -12.8196 21.9602)
(-7.85451e-15 -11.8702 20.4105)
(-3.69209e-15 -10.9676 18.8795)
(1.67443e-14 -10.0976 17.3987)
(-1.6081e-14 -9.23183 15.9379)
(-8.57793e-15 -8.40347 14.4962)
(2.57369e-15 -7.48219 13.0464)
(-2.61464e-14 -6.60844 11.0639)
(-8.77869e-15 -4.58824 8.84014)
(-2.61401e-14 -4.57484 6.35384)
(-2.99792e-14 -1.90339 5.54819)
(-1.31851e-15 -4.09886 6.46002)
(1.14766e-14 -9.83073 18.1914)
(-3.83014e-15 -12.2985 21.5141)
(-2.76014e-15 -12.3795 22.8119)
(2.13447e-15 -12.0173 21.8454)
(-9.42444e-15 -11.1655 20.499)
(2.59804e-16 -10.3683 19.1373)
(8.10039e-15 -9.58709 17.7322)
(-1.52871e-14 -8.80988 16.3597)
(-2.87946e-15 -8.06177 14.9749)
(-5.4221e-15 -7.24374 13.453)
(-2.46338e-14 -6.28353 11.3807)
(-8.44627e-15 -4.71056 9.18858)
(-2.85968e-14 -4.84248 7.10485)
(-2.65074e-14 -1.98966 5.79767)
(-8.86042e-15 -7.09668 14.9732)
(7.76466e-15 -12.8484 23.3705)
(-1.97155e-15 -14.8468 24.6074)
(-2.62526e-15 -14.4456 25.1142)
(-2.9873e-15 -13.5786 22.8228)
(-6.71525e-15 -11.9107 20.687)
(2.08177e-16 -10.5546 18.4205)
(-2.95503e-15 -9.21929 16.6065)
(-1.11277e-14 -8.01393 14.7301)
(-6.12725e-15 -6.85345 12.8855)
(-1.51205e-14 -5.46083 10.5783)
(-1.94166e-14 -3.90375 7.97516)
(-1.88586e-14 -2.33717 5.66478)
(-3.01996e-14 -1.95538 3.9137)
(-1.13773e-14 -0.432208 2.27521)
(-3.24402e-15 0.132918 -0.49769)
(-4.20103e-15 0.243268 -0.632735)
(-3.00402e-15 0.584753 1.08095)
(-3.0191e-15 0.69852 0.931231)
(-2.90588e-15 0.610395 1.13741)
(-4.15267e-15 0.995348 0.354806)
(-3.05708e-15 1.22244 1.03183)
(-3.2617e-15 1.36801 0.835665)
(-4.02388e-15 1.30676 0.930725)
(-6.06199e-15 1.64104 0.354278)
(2.21003e-15 1.74443 0.786885)
(1.30093e-15 1.84591 0.823311)
(-5.77013e-16 2.36749 0.371357)
(-3.93659e-16 2.1676 0.722667)
(-6.89622e-16 2.31552 0.62268)
(-7.77585e-16 2.24555 0.673144)
(-2.15242e-15 2.62298 0.282258)
(-1.18755e-15 2.40357 0.527412)
(-1.11155e-15 2.52723 0.567047)
(-2.21612e-15 3.14043 0.233499)
(-1.56358e-15 2.6328 0.464682)
(-1.68352e-15 2.82881 0.407217)
(-1.31342e-15 2.7451 0.44019)
(-2.2677e-15 3.22285 0.126423)
(-1.60299e-15 2.6729 0.320176)
(-1.57097e-15 2.95875 0.280798)
(-1.79279e-15 2.87486 0.306297)
(-2.72998e-15 3.30327 0.0206509)
(-2.31026e-15 2.74467 0.18008)
(-2.16899e-15 2.91565 0.227518)
(-3.1503e-15 3.63933 0.00727703)
(-2.57886e-15 2.81325 0.175997)
(-2.51509e-15 3.0674 0.15918)
(-2.64163e-15 2.99303 0.17723)
(-3.84793e-15 3.45754 -0.0127159)
(-2.83566e-15 2.76253 0.1128)
(-2.62326e-15 2.92578 0.149785)
(-3.82601e-15 3.73062 0.038261)
(-2.74681e-15 2.75066 0.158944)
(-2.76091e-15 3.02579 0.159981)
(-2.3421e-15 2.94533 0.169893)
(-3.44412e-15 3.50496 0.12509)
(-2.45875e-15 2.59504 0.190207)
(-2.44112e-15 2.9338 0.199069)
(-2.32363e-15 2.84948 0.199506)
(-3.33486e-15 3.32255 0.226769)
(-2.7612e-15 2.47591 0.260204)
(-2.58098e-15 2.6217 0.265315)
(-3.84082e-15 3.37602 0.410111)
(-2.39963e-15 2.31674 0.38714)
(-2.36791e-15 2.54496 0.405384)
(-2.25311e-15 2.47733 0.389718)
(-3.30141e-15 2.88572 0.617071)
(-2.31555e-15 1.99537 0.50889)
(-2.35421e-15 2.24187 0.533152)
(-1.91728e-15 2.17094 0.510561)
(-2.7798e-15 2.43034 0.813939)
(-1.87585e-15 1.65122 0.65825)
(-2.14077e-15 1.75809 0.627448)
(-3.04863e-15 2.12555 1.03905)
(-2.17461e-15 1.28087 0.794379)
(-2.27371e-15 1.40699 0.821357)
(-2.87611e-15 1.38031 0.795637)
(4.46402e-15 1.38779 1.24011)
(1.99389e-15 0.793476 0.957983)
(1.31087e-15 0.887169 0.918817)
(9.47404e-16 0.887779 1.40955)
(-3.89498e-16 0.355524 1.06196)
(-5.36255e-16 0.394123 1.0706)
(-6.25867e-16 0.43483 1.05762)
(-8.80692e-16 0.120359 1.52741)
(-5.93287e-16 -0.169602 1.206)
(-5.28543e-16 -0.226161 1.19751)
(-8.4873e-16 -0.0646317 1.20324)
(-2.37729e-14 -0.829574 2.03766)
(-5.00559e-15 -0.733313 1.95469)
(-4.65268e-15 -0.444046 1.82378)
(-6.42509e-15 -1.60595 2.37944)
(-5.6542e-15 -1.3568 1.71659)
(-5.84568e-15 -1.74008 1.69188)
(-7.53355e-15 -1.38013 2.18992)
(-7.94276e-15 -1.47769 2.4414)
(-8.44741e-15 -1.85969 2.77781)
(-1.11699e-14 -3.16367 5.05932)
(-1.50846e-14 -1.98434 5.04595)
(-1.72693e-14 -2.43801 5.42751)
(-1.76055e-14 -2.37141 5.6271)
(-1.70565e-14 -2.41696 5.82582)
(-1.66602e-14 -2.42993 6.04948)
(-1.61175e-14 -2.39442 6.31692)
(-1.51433e-14 -2.44759 6.70663)
(-1.41262e-14 -2.76018 7.17869)
(-6.64184e-15 -3.62546 9.58109)
(-1.2844e-14 -3.30836 9.32324)
(-1.24985e-14 -3.60409 9.65533)
(-1.20827e-14 -3.55027 9.90274)
(-1.15e-14 -3.70415 10.4537)
(-1.17907e-14 -3.65101 10.5824)
(-1.16929e-14 -3.65082 10.8408)
(-1.16043e-14 -3.70133 11.1136)
(-1.14611e-14 -3.96711 11.4543)
(-8.29323e-15 -4.38673 14.2873)
(-7.37814e-15 -4.63461 13.873)
(-6.89366e-15 -4.79449 14.1667)
(-6.44478e-15 -4.82417 14.3601)
(-5.82194e-15 -4.8589 14.6227)
(-4.82585e-15 -4.90448 15.0082)
(-3.94281e-15 -4.97268 15.4257)
(-4.07466e-15 -4.89975 15.5816)
(-3.85988e-15 -4.94972 15.8382)
(-3.68211e-15 -5.18723 16.1209)
(9.62479e-16 -5.14367 18.4101)
(-4.05515e-15 -5.86328 17.9625)
(-3.89491e-15 -5.91178 18.2235)
(-3.84102e-15 -5.96194 18.3993)
(-3.73109e-15 -6.01508 18.6249)
(-3.69634e-15 -6.01697 18.8879)
(-3.52772e-15 -6.03835 19.3183)
(-3.35004e-15 -6.03929 19.566)
(-3.08941e-15 -6.26124 19.7603)
(-2.08432e-15 -5.90874 21.3109)
(-2.94412e-15 -6.8382 20.6193)
(-2.36688e-15 -6.79388 21.0042)
(-1.9306e-15 -6.85736 21.2788)
(-2.24088e-15 -6.82214 21.3795)
(-2.37622e-15 -6.86689 21.5457)
(-2.55749e-15 -6.85269 21.717)
(-2.80074e-15 -6.84121 21.9448)
(-3.55198e-15 -7.11473 22.415)
(-2.08605e-15 -5.94686 22.7984)
(-1.75259e-15 -7.47489 22.2268)
(-1.67829e-15 -7.30475 22.3151)
(-1.63997e-15 -7.28837 22.3611)
(-1.56412e-15 -7.2891 22.5692)
(-1.47105e-15 -7.21996 22.5417)
(-1.31954e-15 -7.15724 22.4198)
(-1.18066e-15 -7.16152 22.2848)
(-1.051e-15 -7.20009 22.1162)
(4.60989e-16 -5.60538 21.4731)
(7.56493e-16 -7.30607 21.1768)
(7.92238e-16 -6.94673 20.7852)
(8.56802e-16 -6.95645 20.4258)
(9.30335e-16 -6.81341 19.9836)
(1.0827e-15 -6.67065 19.4719)
(1.43153e-15 -6.56448 18.8343)
(1.27787e-15 -6.44949 18.2218)
(1.22052e-15 -6.36982 17.4849)
(1.1727e-15 -6.13965 16.6621)
(1.88565e-15 -3.67861 12.24)
(1.31137e-15 -5.54452 12.7782)
(1.05196e-15 -4.89642 11.5723)
(4.85959e-16 -4.92832 10.6852)
(-2.01756e-17 -4.69767 9.58212)
(-7.4749e-16 -4.66704 8.31757)
(-2.12939e-15 -4.54265 6.55191)
(-3.2881e-15 -4.11036 4.85072)
(-2.63654e-15 -3.68542 4.32281)
(-2.21405e-15 -1.68693 0.484094)
(-2.15573e-15 -3.44399 3.16723)
(-1.62448e-15 -2.89427 1.54252)
(5.28975e-16 -1.11313 -2.50178)
(-7.68182e-17 -3.72606 -0.433175)
(-1.20591e-15 -2.42022 -0.55574)
(-1.07053e-15 -2.16542 -0.263794)
(-6.25463e-16 -2.72183 -0.284204)
(-8.91333e-16 -1.94108 -0.0977448)
(-2.20413e-15 -2.72673 0.0753868)
(-1.2719e-15 -2.37265 0.126154)
(-4.79766e-16 -1.97064 0.0443918)
(-9.64727e-16 -2.76 0.360814)
(-9.91293e-16 -2.51439 0.210513)
(-9.02513e-16 -2.05907 0.142306)
(-1.21711e-15 -2.85701 0.3922)
(-1.12721e-15 -2.16178 0.224781)
(-2.15181e-15 -3.06209 0.437095)
(-1.02566e-15 -2.69108 0.332646)
(-1.01462e-15 -2.10171 0.296821)
(-6.85072e-16 -3.03792 0.434246)
(-7.41173e-16 -2.23235 0.266627)
(-1.32758e-15 -3.27546 0.459343)
(-1.18261e-15 -2.84093 0.350696)
(-9.83332e-16 -2.22958 0.305329)
(-1.49759e-15 -3.29951 0.411533)
(-7.29491e-16 -2.9122 0.323125)
(-8.63786e-16 -2.31039 0.282938)
(-1.3057e-15 -3.35981 0.358259)
(-1.02279e-15 -2.45425 0.265903)
(-1.23545e-15 -3.61386 0.377091)
(-1.14495e-15 -3.12494 0.304709)
(-1.02675e-15 -2.50533 0.273991)
(-1.38942e-15 -3.53073 0.318508)
(-1.09097e-15 -2.61874 0.266302)
(-1.69067e-15 -3.77882 0.311984)
(-1.94011e-15 -3.22366 0.278685)
(-9.89098e-16 -2.5943 0.279208)
(-1.66081e-15 -3.6379 0.239808)
(-1.90575e-15 -3.11751 0.255905)
(-9.21222e-16 -2.48106 0.274451)
(-1.38616e-15 -3.41712 0.219286)
(-1.05094e-15 -2.50715 0.273868)
(-1.61099e-15 -3.55504 0.177045)
(-3.78826e-16 -2.93374 0.226593)
(-1.13844e-15 -2.32205 0.273131)
(-2.07315e-15 -3.14966 0.16363)
(-9.85602e-16 -2.31022 0.267626)
(-1.68866e-15 -3.23848 0.101356)
(-2.01001e-15 -2.58124 0.175442)
(-8.85021e-16 -1.9938 0.231599)
(-1.44998e-15 -2.7701 -0.00488841)
(-1.1892e-15 -2.18751 0.0771215)
(-9.88579e-16 -1.64174 0.156336)
(-2.15013e-15 -2.27977 -0.0637315)
(-1.34743e-15 -1.64439 0.116966)
(-2.71317e-15 -2.2916 -0.183634)
(-1.24754e-15 -1.61831 -0.0946627)
(-6.29465e-16 -1.07181 0.0538232)
(-1.77197e-15 -1.52523 -0.241104)
(-3.01715e-16 -1.11947 0.0378279)
(-6.97989e-16 -1.56411 -0.364373)
(-2.93895e-16 -0.88692 -0.151171)
(-6.70955e-18 -0.442619 0.133801)
(1.27531e-15 -0.845693 -0.346739)
(5.13685e-16 -0.255226 -0.097932)
(4.25093e-16 0.562372 0.11146)
(9.91086e-16 0.156259 -0.235813)
(-1.26267e-15 -0.360687 0.0433206)
(-1.41392e-15 -0.509328 -0.398601)
(-4.47871e-15 -0.704269 -0.464727)
(-3.90696e-16 0.38396 -0.0392889)
(-1.02242e-15 1.05599 -0.408417)
(-5.2618e-16 1.26961 -0.205896)
(-1.63967e-15 0.991448 -0.289561)
(-9.75918e-16 0.759182 -0.450081)
(-3.17338e-16 0.914461 -0.143351)
(2.70384e-16 1.58445 -0.498527)
(-9.47317e-16 1.88197 -1.17592)
(-5.88016e-16 1.63613 -0.607622)
(-6.89039e-16 2.77403 -1.59261)
(-4.55785e-16 2.38531 -1.03748)
(-7.59699e-16 3.00263 -2.26897)
(1.40226e-16 -0.101951 7.04326)
(1.39843e-16 -0.118607 7.04611)
(1.3955e-16 -0.124377 7.04776)
(1.39146e-16 -0.133405 7.04995)
(1.38702e-16 -0.143771 7.05246)
(1.38177e-16 -0.156033 7.05551)
(1.37577e-16 -0.170445 7.0591)
(1.36893e-16 -0.187102 7.06333)
(1.36116e-16 -0.206157 7.06834)
(1.35228e-16 -0.227915 7.07424)
(1.34212e-16 -0.252681 7.08121)
(1.3305e-16 -0.280952 7.08946)
(1.31716e-16 -0.313454 7.09924)
(1.3018e-16 -0.350977 7.11093)
(1.28404e-16 -0.394197 7.12496)
(1.26341e-16 -0.443929 7.14189)
(1.23932e-16 -0.501154 7.16243)
(1.211e-16 -0.566871 7.18746)
(1.17748e-16 -0.642228 7.21813)
(1.13746e-16 -0.728594 7.25579)
(1.0892e-16 -0.827613 7.30218)
(1.03038e-16 -0.941467 7.35928)
(9.57716e-17 -1.07209 7.4294)
(8.6671e-17 -1.22185 7.5152)
(7.51048e-17 -1.39345 7.6196)
(6.0191e-17 -1.59001 7.74574)
(4.07e-17 -1.81498 7.89678)
(1.49287e-17 -2.07183 8.07589)
(-1.94604e-17 -2.36422 8.28618)
(-6.56504e-17 -2.69616 8.53063)
(-1.27941e-16 -3.07186 8.81245)
(-2.12085e-16 -3.49573 9.13521)
(-3.25675e-16 -3.97225 9.50305)
(-4.78491e-16 -4.50615 9.92066)
(-6.82587e-16 -5.10271 10.3929)
(-9.51672e-16 -5.76758 10.9242)
(-1.29919e-15 -6.50592 11.5181)
(-1.7345e-15 -7.32169 12.1755)
(-2.2573e-15 -8.21775 12.8932)
(-2.85154e-15 -9.19352 13.6627)
(-3.48169e-15 -10.2437 14.4689)
(-4.09521e-15 -11.3591 15.2923)
(-4.63379e-15 -12.5302 16.1142)
(-5.05185e-15 -13.7517 16.9211)
(-5.33429e-15 -15.0235 17.7021)
(-5.50019e-15 -16.3349 18.4311)
(-5.58299e-15 -17.6305 19.0365)
(-5.59287e-15 -18.7686 19.3755)
(-5.48498e-15 -19.4973 19.2397)
(-5.15647e-15 -19.4527 18.4196)
(-4.49325e-15 -18.1217 16.6883)
(-3.55995e-15 -15.027 13.2373)
(-2.91468e-15 -11.1616 6.36018)
(-3.22053e-15 -8.32933 -4.16836)
(-3.28558e-15 -5.50688 -4.76109)
(-3.35759e-15 -3.96797 -6.99582)
(-3.42321e-15 2.74103 -1.99709)
(-3.2984e-15 3.7129 -3.08054)
(-2.99014e-15 5.10248 -0.912438)
(-2.58405e-15 7.09168 0.145272)
(-2.24864e-15 8.08219 2.21046)
(-2.07154e-15 7.85515 3.18877)
(-1.92999e-15 7.45991 3.29283)
(-1.75213e-15 6.91279 3.11399)
(-1.53682e-15 6.0504 2.74881)
(-1.30082e-15 4.78977 2.14487)
(-1.06769e-15 2.73301 1.1923)
(-8.80251e-16 -1.19941 -0.500855)
(-1.08468e-15 -0.992688 -1.475)
(-1.26959e-15 -1.78173 -2.5462)
(-1.42087e-15 -2.22168 -3.64833)
(-1.45805e-15 -2.99287 -4.55163)
(-1.38638e-15 -3.52274 -5.12982)
(-1.22727e-15 -3.58121 -5.18068)
(-1.0688e-15 -3.39235 -4.93197)
(-9.63261e-16 -3.00476 -4.69256)
(-9.20155e-16 -2.45582 -4.4411)
(-9.05721e-16 -1.67416 -4.30403)
(-8.95517e-16 0.512857 -4.52981)
(1.37041e-16 -0.117588 7.06543)
(1.36688e-16 -0.13466 7.06922)
(1.3633e-16 -0.14061 7.07182)
(1.35863e-16 -0.149761 7.07485)
(1.35342e-16 -0.159755 7.07833)
(1.34731e-16 -0.171286 7.0825)
(1.34037e-16 -0.184514 7.08732)
(1.33247e-16 -0.199714 7.09293)
(1.32349e-16 -0.217227 7.09946)
(1.31328e-16 -0.237505 7.10705)
(1.30169e-16 -0.261002 7.11587)
(1.2885e-16 -0.288491 7.12618)
(1.27345e-16 -0.32053 7.1383)
(1.25621e-16 -0.357776 7.15262)
(1.23636e-16 -0.401038 7.16957)
(1.21338e-16 -0.451219 7.18971)
(1.18661e-16 -0.509254 7.21379)
(1.15519e-16 -0.576211 7.24272)
(1.11799e-16 -0.653406 7.27766)
(1.07356e-16 -0.742349 7.31998)
(1.0199e-16 -0.844707 7.37148)
(9.54381e-17 -0.962742 7.43396)
(8.73325e-17 -1.09841 7.50978)
(7.71708e-17 -1.25412 7.60148)
(6.42566e-17 -1.43263 7.71186)
(4.76256e-17 -1.63702 7.84396)
(2.59481e-17 -1.87066 8.00083)
(-2.60279e-18 -2.13697 8.1856)
(-4.05156e-17 -2.43945 8.40143)
(-9.11593e-17 -2.78205 8.65143)
(-1.59063e-16 -3.16889 8.93898)
(-2.50256e-16 -3.60431 9.26786)
(-3.72646e-16 -4.09276 9.64236)
(-5.36295e-16 -4.63888 10.0672)
(-7.53371e-16 -5.24783 10.5471)
(-1.03731e-15 -5.92499 11.086)
(-1.40058e-15 -6.67516 11.6869)
(-1.85062e-15 -7.50184 12.3495)
(-2.38425e-15 -8.4072 13.0695)
(-2.98209e-15 -9.3899 13.8369)
(-3.60594e-15 -10.4444 14.6355)
(-4.20268e-15 -11.5627 15.4457)
(-4.71661e-15 -12.7382 16.2499)
(-5.10778e-15 -13.9692 17.0366)
(-5.36741e-15 -15.256 17.7953)
(-5.5179e-15 -16.581 18.4973)
(-5.59014e-15 -17.8723 19.065)
(-5.58675e-15 -18.9679 19.3512)
(-5.45377e-15 -19.6006 19.1569)
(-5.08217e-15 -19.3811 18.2796)
(-4.37293e-15 -17.7204 16.4013)
(-3.45537e-15 -14.1993 12.6139)
(-2.90856e-15 -10.2178 5.75364)
(-3.21531e-15 -7.82335 -3.61781)
(-3.28369e-15 -5.11077 -4.15435)
(-3.33894e-15 -2.88044 -6.62772)
(-3.37052e-15 3.23139 2.27165)
(-3.37093e-15 4.76395 -1.31395)
(-3.12376e-15 4.21976 -0.381225)
(-2.62755e-15 6.0217 0.618794)
(-2.26287e-15 6.97706 2.83242)
(-2.0769e-15 7.03245 3.81626)
(-1.92437e-15 6.87061 4.01263)
(-1.73017e-15 6.50179 3.82964)
(-1.49546e-15 5.79767 3.41187)
(-1.23934e-15 4.67002 2.72267)
(-9.86173e-16 2.73307 1.6403)
(-7.78471e-16 -1.02594 -0.185283)
(-1.0509e-15 -1.53407 -1.56633)
(-1.20324e-15 -2.78114 -2.38685)
(-1.39594e-15 -2.78168 -3.47098)
(-1.45628e-15 -3.49947 -4.32431)
(-1.40772e-15 -3.96318 -4.96496)
(-1.25955e-15 -4.04252 -5.06487)
(-1.09701e-15 -3.77481 -4.84579)
(-9.80893e-16 -3.27616 -4.60405)
(-9.27251e-16 -2.58443 -4.35817)
(-9.12496e-16 -1.58761 -4.21898)
(-9.17945e-16 0.297856 -3.61548)
(1.31883e-16 -0.115229 7.11183)
(1.31623e-16 -0.131627 7.11401)
(1.31275e-16 -0.138157 7.11696)
(1.3081e-16 -0.148027 7.12014)
(1.30278e-16 -0.158761 7.12402)
(1.29638e-16 -0.171043 7.12881)
(1.28898e-16 -0.18495 7.13449)
(1.28042e-16 -0.200734 7.14119)
(1.27057e-16 -0.218808 7.14902)
(1.25929e-16 -0.239737 7.15812)
(1.24638e-16 -0.264295 7.16868)
(1.23162e-16 -0.293033 7.18105)
(1.21472e-16 -0.326199 7.19563)
(1.19531e-16 -0.365166 7.21273)
(1.17291e-16 -0.410322 7.23284)
(1.14695e-16 -0.46259 7.25654)
(1.11665e-16 -0.522774 7.28462)
(1.08102e-16 -0.592061 7.318)
(1.03878e-16 -0.671802 7.35784)
(9.88217e-17 -0.763678 7.40546)
(9.27047e-17 -0.869531 7.46263)
(8.52235e-17 -0.991659 7.53112)
(7.59582e-17 -1.13197 7.61319)
(6.43407e-17 -1.29281 7.7113)
(4.95923e-17 -1.47701 7.82804)
(3.0646e-17 -1.6878 7.9663)
(6.0453e-18 -1.92862 8.12906)
(-2.61921e-17 -2.20283 8.31945)
(-6.87451e-17 -2.51383 8.54068)
(-1.25219e-16 -2.8656 8.796)
(-2.00434e-16 -3.26245 9.08902)
(-3.00783e-16 -3.70888 9.42381)
(-4.3452e-16 -4.20935 9.80491)
(-6.12005e-16 -4.76839 10.2372)
(-8.45473e-16 -5.39111 10.7251)
(-1.14785e-15 -6.08278 11.2723)
(-1.53021e-15 -6.8476 11.8811)
(-1.99743e-15 -7.68794 12.5504)
(-2.54273e-15 -8.60478 13.2743)
(-3.14276e-15 -9.59552 14.0412)
(-3.75648e-15 -10.6531 14.8339)
(-4.33068e-15 -11.7696 15.6327)
(-4.81353e-15 -12.9391 16.4212)
(-5.17218e-15 -14.1612 17.1888)
(-5.40516e-15 -15.4343 17.9244)
(-5.53792e-15 -16.7326 18.5937)
(-5.59725e-15 -17.9706 19.1104)
(-5.57595e-15 -18.9722 19.3232)
(-5.40867e-15 -19.4619 19.0465)
(-4.98104e-15 -19.0289 18.0795)
(-4.22104e-15 -17.031 15.9747)
(-3.33571e-15 -13.078 11.7002)
(-2.90483e-15 -8.73475 4.78922)
(-3.20808e-15 -7.11089 -3.14148)
(-3.28068e-15 -5.68949 -3.77838)
(-3.32147e-15 -3.90047 -6.00749)
(-3.35595e-15 3.75035 6.43783)
(-3.41134e-15 3.89427 1.19076)
(-3.14092e-15 4.00645 0.668052)
(-2.60665e-15 6.10922 1.28057)
(-2.24459e-15 7.13214 3.39581)
(-2.07394e-15 7.12296 4.27649)
(-1.91769e-15 6.95422 4.49148)
(-1.71581e-15 6.60184 4.28437)
(-1.4723e-15 5.94466 3.81529)
(-1.20676e-15 4.86709 3.0595)
(-9.44074e-16 2.97654 1.89135)
(-7.25753e-16 -0.616264 0.0198586)
(-9.8862e-16 -1.8377 -1.42936)
(-1.12742e-15 -2.9366 -2.24373)
(-1.34197e-15 -3.04583 -3.29025)
(-1.44401e-15 -3.62034 -4.16345)
(-1.43079e-15 -4.10646 -4.8246)
(-1.30111e-15 -4.21902 -4.99038)
(-1.13466e-15 -3.97965 -4.77913)
(-1.00314e-15 -3.48959 -4.49022)
(-9.34831e-16 -2.81715 -4.20093)
(-9.18102e-16 -1.88841 -4.00962)
(-9.05642e-16 0.14092 -3.00719)
(1.25096e-16 -0.111796 7.17952)
(1.2496e-16 -0.127156 7.18023)
(1.24662e-16 -0.133459 7.18305)
(1.24238e-16 -0.143155 7.18601)
(1.23737e-16 -0.153857 7.18991)
(1.23109e-16 -0.166088 7.19496)
(1.22365e-16 -0.180077 7.20116)
(1.21484e-16 -0.196001 7.20868)
(1.20454e-16 -0.214284 7.21763)
(1.19255e-16 -0.23546 7.22816)
(1.17867e-16 -0.260314 7.24043)
(1.16263e-16 -0.289288 7.25475)
(1.1441e-16 -0.323047 7.27151)
(1.12265e-16 -0.362869 7.29109)
(1.09774e-16 -0.409098 7.31407)
(1.06869e-16 -0.462472 7.34107)
(1.03461e-16 -0.523946 7.37285)
(9.94365e-17 -0.594606 7.41035)
(9.4646e-17 -0.675823 7.45467)
(8.88925e-17 -0.769453 7.50705)
(8.19138e-17 -0.877474 7.56919)
(7.33626e-17 -1.00228 7.64307)
(6.27623e-17 -1.14574 7.73074)
(4.94744e-17 -1.31008 7.83457)
(3.26326e-17 -1.49806 7.95698)
(1.10601e-17 -1.71301 8.10069)
(-1.68346e-17 -1.95852 8.26869)
(-5.32004e-17 -2.23795 8.46419)
(-1.00923e-16 -2.55467 8.69044)
(-1.63866e-16 -2.91252 8.95081)
(-2.47166e-16 -3.31599 9.24914)
(-3.57564e-16 -3.76984 9.58975)
(-5.0368e-16 -4.27857 9.97749)
(-6.96124e-16 -4.84657 10.4172)
(-9.47051e-16 -5.47871 10.9132)
(-1.26867e-15 -6.18028 11.4687)
(-1.67034e-15 -6.95526 12.0853)
(-2.15407e-15 -7.80503 12.7609)
(-2.70926e-15 -8.72922 13.4881)
(-3.30873e-15 -9.7247 14.254)
(-3.90903e-15 -10.784 15.0404)
(-4.45769e-15 -11.8993 15.8278)
(-4.90761e-15 -13.0661 16.601)
(-5.23349e-15 -14.2846 17.3502)
(-5.44072e-15 -15.5499 18.062)
(-5.55654e-15 -16.8277 18.6952)
(-5.60232e-15 -18.0198 19.1542)
(-5.56003e-15 -18.9409 19.2868)
(-5.35256e-15 -19.3107 18.9223)
(-4.86448e-15 -18.6915 17.839)
(-4.06222e-15 -16.3923 15.4346)
(-3.22571e-15 -12.068 10.6415)
(-2.90579e-15 -7.40576 3.77553)
(-3.19983e-15 -6.30127 -2.70239)
(-3.27799e-15 -5.7535 -3.44145)
(-3.31125e-15 -4.14815 -5.47908)
(-3.34951e-15 4.68588 10.0656)
(-3.45754e-15 4.44965 2.39246)
(-3.12386e-15 4.61987 1.16912)
(-2.57868e-15 6.09771 1.83326)
(-2.23698e-15 6.81376 3.98421)
(-2.07781e-15 6.91303 4.80819)
(-1.91887e-15 6.82034 5.03798)
(-1.70967e-15 6.56953 4.8091)
(-1.45606e-15 6.01527 4.28631)
(-1.17903e-15 5.02226 3.46786)
(-9.04711e-16 3.19699 2.21776)
(-6.76936e-16 -0.260867 0.285524)
(-9.31696e-16 -2.2646 -1.28603)
(-1.04936e-15 -3.13426 -2.05075)
(-1.27574e-15 -3.08828 -3.06799)
(-1.41724e-15 -3.63831 -3.95994)
(-1.4468e-15 -4.13373 -4.66585)
(-1.34561e-15 -4.29146 -4.9113)
(-1.18153e-15 -4.07892 -4.73802)
(-1.03353e-15 -3.59035 -4.39941)
(-9.45428e-16 -2.91874 -4.03977)
(-9.17236e-16 -2.02863 -3.77782)
(-9.05482e-16 -0.0660988 -2.94495)
(1.16797e-16 -0.112921 7.26843)
(1.16798e-16 -0.12756 7.2681)
(1.16563e-16 -0.133611 7.27048)
(1.16195e-16 -0.142854 7.2731)
(1.15739e-16 -0.153152 7.27684)
(1.15138e-16 -0.165021 7.28197)
(1.14403e-16 -0.178711 7.28849)
(1.13511e-16 -0.194459 7.2966)
(1.12447e-16 -0.212699 7.30643)
(1.11188e-16 -0.233907 7.31814)
(1.09711e-16 -0.258536 7.33184)
(1.07983e-16 -0.287367 7.34776)
(1.05964e-16 -0.321547 7.36633)
(1.03607e-16 -0.361679 7.38809)
(1.00848e-16 -0.408492 7.41359)
(9.76077e-17 -0.462694 7.44352)
(9.37848e-17 -0.525287 7.47859)
(8.92474e-17 -0.59721 7.51971)
(8.38238e-17 -0.679862 7.56792)
(7.72881e-17 -0.775089 7.6244)
(6.93421e-17 -0.88495 7.69079)
(5.95922e-17 -1.01198 7.76919)
(4.7503e-17 -1.15818 7.86152)
(3.23628e-17 -1.32585 7.97011)
(1.32149e-17 -1.51761 8.09721)
(-1.12308e-17 -1.73668 8.24543)
(-4.27061e-17 -1.98668 8.41779)
(-8.35342e-17 -2.27115 8.6176)
(-1.36819e-16 -2.59365 8.84826)
(-2.06692e-16 -2.95791 9.11327)
(-2.98609e-16 -3.36835 9.41659)
(-4.19657e-16 -3.83 9.7628)
(-5.78787e-16 -4.3475 10.157)
(-7.86775e-16 -4.92525 10.6041)
(-1.05553e-15 -5.56758 11.1078)
(-1.39632e-15 -6.27947 11.6712)
(-1.81652e-15 -7.0649 12.2951)
(-2.3151e-15 -7.9247 12.9763)
(-2.87762e-15 -8.8567 13.7059)
(-3.47338e-15 -9.85701 14.4695)
(-4.0572e-15 -10.9186 15.2485)
(-4.57826e-15 -12.0339 16.024)
(-4.99484e-15 -13.2001 16.7817)
(-5.28919e-15 -14.4172 17.5121)
(-5.47269e-15 -15.6765 18.1981)
(-5.57293e-15 -16.9349 18.7905)
(-5.60462e-15 -18.0834 19.1856)
(-5.53817e-15 -18.9306 19.2346)
(-5.28551e-15 -19.1897 18.7789)
(-4.73669e-15 -18.3853 17.5465)
(-3.90541e-15 -15.78 14.7725)
(-3.13096e-15 -11.1148 9.48458)
(-2.91111e-15 -6.27092 2.83185)
(-3.19288e-15 -5.63921 -2.317)
(-3.2773e-15 -5.63086 -3.09456)
(-3.30586e-15 -4.31981 -4.99043)
(-3.34595e-15 4.75246 10.045)
(-3.41162e-15 5.82216 1.94001)
(-3.08022e-15 4.84915 1.37896)
(-2.54544e-15 5.79452 2.48613)
(-2.23222e-15 6.41506 4.65132)
(-2.08483e-15 6.69611 5.41173)
(-1.92443e-15 6.74743 5.62337)
(-1.70909e-15 6.59524 5.35427)
(-1.44574e-15 6.12493 4.7776)
(-1.15722e-15 5.20625 3.90605)
(-8.71061e-16 3.44241 2.58195)
(-6.32662e-16 0.0626164 0.558395)
(-8.52964e-16 -2.98616 -1.11498)
(-9.6982e-16 -3.4748 -1.90287)
(-1.19993e-15 -3.21019 -2.85133)
(-1.37498e-15 -3.64792 -3.75138)
(-1.44976e-15 -4.15858 -4.46679)
(-1.3853e-15 -4.34719 -4.7887)
(-1.23445e-15 -4.17721 -4.68586)
(-1.07544e-15 -3.69539 -4.33221)
(-9.6549e-16 -3.01269 -3.90367)
(-9.17867e-16 -2.13265 -3.5807)
(-9.53538e-16 -0.198726 -2.33071)
(1.06849e-16 -0.114894 7.37998)
(1.07007e-16 -0.129494 7.37842)
(1.06847e-16 -0.135772 7.38023)
(1.06544e-16 -0.145008 7.38236)
(1.06142e-16 -0.15529 7.38577)
(1.05576e-16 -0.167058 7.3908)
(1.04856e-16 -0.180617 7.39737)
(1.03957e-16 -0.196247 7.40574)
(1.0286e-16 -0.214395 7.416)
(1.01539e-16 -0.235553 7.42832)
(9.99655e-17 -0.260192 7.44286)
(9.8101e-17 -0.289132 7.45987)
(9.58999e-17 -0.32331 7.47985)
(9.33051e-17 -0.363485 7.50333)
(9.02437e-17 -0.410528 7.53085)
(8.6624e-17 -0.465322 7.56315)
(8.23286e-17 -0.528803 7.60094)
(7.72061e-17 -0.602002 7.64508)
(7.10603e-17 -0.686256 7.69657)
(6.36336e-17 -0.783267 7.75649)
(5.45909e-17 -0.895084 7.82649)
(4.34896e-17 -1.02426 7.90855)
(2.97335e-17 -1.17306 8.00465)
(1.25355e-17 -1.34399 8.11704)
(-9.15451e-18 -1.53975 8.2479)
(-3.67433e-17 -1.76339 8.39978)
(-7.21087e-17 -2.01837 8.57572)
(-1.17755e-16 -2.30834 8.77913)
(-1.77013e-16 -2.63709 9.0136)
(-2.54287e-16 -3.00852 9.28279)
(-3.5535e-16 -3.42691 9.59076)
(-4.87618e-16 -3.89729 9.94228)
(-6.60318e-16 -4.4246 10.3426)
(-8.84273e-16 -5.01334 10.7967)
(-1.17097e-15 -5.66742 11.308)
(-1.53048e-15 -6.39097 11.8787)
(-1.968e-15 -7.18776 12.5091)
(-2.47925e-15 -8.05856 13.1949)
(-3.04614e-15 -8.99972 13.9258)
(-3.63485e-15 -10.0058 14.686)
(-4.19929e-15 -11.0702 15.4566)
(-4.69111e-15 -12.1866 16.2195)
(-5.07453e-15 -13.3527 16.9615)
(-5.33911e-15 -14.5679 17.6722)
(-5.50108e-15 -15.8192 18.3296)
(-5.58692e-15 -17.0545 18.8757)
(-5.60353e-15 -18.1556 19.2011)
(-5.50921e-15 -18.9264 19.1653)
(-5.20692e-15 -19.0659 18.6117)
(-4.60011e-15 -18.0486 17.187)
(-3.75538e-15 -15.1012 13.9846)
(-3.05389e-15 -10.097 8.25742)
(-2.9234e-15 -5.20083 1.99521)
(-3.19252e-15 -5.13655 -1.90062)
(-3.27895e-15 -5.46091 -2.60814)
(-3.30676e-15 -4.46772 -4.43297)
(-3.32839e-15 4.38604 8.94947)
(-3.25487e-15 5.04733 1.88863)
(-3.02379e-15 4.66231 1.61315)