/*--------------------------------*- C++ -*----------------------------------*\
| =========                 |                                                 |
| \\      /  F ield         | OpenFOAM: The Open Source CFD Toolbox           |
|  \\    /   O peration     | Version:  4.1                                   |
|   \\  /    A nd           | Web:      www.OpenFOAM.org                      |
|    \\/     M anipulation  |                                                 |
\*---------------------------------------------------------------------------*/
FoamFile
{
    version     2.0;
    format      ascii;
    class       volScalarField;
    location    "8";
    object      p;
}
// * * * * * * * * * * * * * * * * * * * * * * * * * * * * * * * * * * * * * //

dimensions      [0 2 -2 0 0 0 0];

internalField   nonuniform List<scalar> 
6785
(
585.703
519.353
468.467
418.495
372.223
328.684
287.744
249.149
212.72
177.889
144.044
112.495
83.6634
49.3988
14.5241
41.1158
23.1611
27.0168
22.3329
19.3932
16.2306
13.5938
11.6372
10.6031
10.5633
11.3923
13.7304
18.4295
22.2285
22.5617
-4.15892
-10.4698
-0.765732
-2.21118
1.07823
2.96027
5.15846
7.16957
9.06832
10.7973
12.3875
13.9924
15.2172
15.9261
16.8822
31.3961
28.2617
32.4343
27.8574
27.8998
25.449
23.5975
21.4119
19.2543
17.0692
15.0136
13.5956
13.4438
14.012
15.3301
26.8445
24.442
27.4694
23.9564
25.5927
24.5305
24.571
24.4814
24.5446
24.7362
25.0814
25.5984
26.6091
27.5699
29.083
32.6861
31.8931
35.117
33.3993
35.969
36.1916
37.4205
38.5105
39.6166
40.756
41.9169
43.0081
44.1546
45.0044
46.0611
46.7421
47.0944
49.9131
48.6721
50.8593
50.9301
51.8832
52.586
53.2646
53.9406
54.6208
55.2789
56.001
56.5832
57.3847
58.6551
59.5481
61.6358
60.6201
62.4288
62.2932
63.113
63.4988
63.9223
64.2807
64.6602
65.1021
65.6193
66.0769
66.7146
67.4981
68.2707
69.667
68.7589
70.1827
69.8314
70.4858
70.5424
70.7041
70.6627
70.6171
70.626
70.7064
70.9057
71.056
70.8788
70.7353
71.5857
70.3868
71.1821
70.3652
70.5297
70.0048
69.5875
68.8337
68.0884
67.4606
67.024
66.7274
66.0312
63.9322
62.6927
62.7235
61.1043
61.1357
59.8375
59.4525
58.4714
57.7094
56.669
55.7547
54.9992
54.2877
53.3441
51.9445
46.9033
45.2758
44.5318
42.7408
42.0489
40.3183
39.3279
37.9109
36.859
35.7946
35.0241
34.4516
33.7215
32.8472
32.2088
36.4633
35.3144
34.2418
32.39
31.4827
29.7569
28.6374
27.4019
26.5723
25.952
25.5942
25.4364
25.3696
25.4301
26.0181
34.6893
36.1567
35.7694
34.5187
34.0557
33.3322
33.0509
32.7312
32.5466
32.4288
32.3508
32.2767
32.4053
32.6185
33.262
73.2062
72.3407
68.7696
63.6191
58.9334
54.6044
50.7532
47.525
44.5629
41.7554
39.19
37.9389
37.5337
37.328
37.1607
62.3315
62.2992
62.3298
62.3256
62.3227
62.3001
62.3197
62.301
62.305
62.2745
62.2983
62.2278
62.3121
62.2559
62.203
62.2111
62.1977
62.234
62.1147
62.279
62.1875
62.1036
62.1075
62.1514
62.1542
62.0528
62.0559
62.0941
62.1304
61.9602
62.1751
62.0773
61.9489
61.9374
61.9824
62.0118
61.832
62.018
61.9209
61.7906
61.7357
61.7824
61.759
61.6219
61.54
61.5561
61.5446
61.3366
61.4339
61.261
61.0812
60.897
60.8785
60.7859
60.5913
60.386
60.3247
60.4557
60.2382
60.0857
60.5236
60.2814
60.1936
60.064
60.312
60.2107
60.5129
60.4875
59.5092
60.2042
60.7502
56.892
54.7432
56.5711
56.0058
44.1237
49.4549
49.0322
22.5077
29.6173
33.2441
32.1921
34.1075
26.954
29.7051
33.5339
34.0584
34.7455
35.1637
36.079
38.212
40.4567
38.6969
35.8379
37.4821
39.9257
42.2602
43.1156
44.3371
45.4464
46.7017
47.8301
46.1956
48.0944
48.8534
50.6891
53.4321
55.1892
56.0451
56.7577
56.3906
60.104
58.9379
59.9809
60.2603
60.3954
61.8664
63.9381
63.9282
61.4092
62.6892
64.8785
66.3918
66.7542
65.9435
65.1809
64.6649
64.8705
62.5993
67.1788
67.6433
65.0147
64.8208
64.1052
62.1235
60.2643
57.1044
52.5346
59.7045
61.7872
56.8038
53.5524
49.3858
45.7487
42.3582
39.1348
35.1289
31.311
29.5237
33.6903
28.9533
27.4527
25.6679
22.3968
16.4068
14.7341
16.7906
7.03707
20.0058
17.5555
15.8335
20.4815
17.3721
18.9332
18.6609
20.0614
21.5587
19.3623
20.7359
21.6237
20.199
20.5404
20.1781
20.5927
21.2351
20.0355
20.1999
19.8056
20.0684
20.4001
19.2236
19.5985
19.7892
18.9445
18.9672
18.5925
18.6539
18.8484
18.0768
18.0741
17.6892
17.7741
17.896
17.0492
17.2611
17.3538
16.7172
16.7354
16.3387
16.4562
16.6403
15.926
15.9733
15.4873
15.7878
15.9945
14.8372
15.3973
15.7041
14.595
14.7661
13.9653
14.6975
15.4412
13.5558
13.8149
12.5447
14.1102
15.1953
10.6921
13.5396
15.6821
10.2332
10.6839
7.48283
11.4483
16.6938
5.28045
5.56758
-0.101614
7.72096
15.7844
-12.3887
3.15313
18.2851
-17.061
-16.2461
-32.2158
-19.913
35.2597
-0.00619798
-0.00849495
-0.0139992
-0.0172551
-0.0198478
-0.0197501
-0.0177835
-0.0133262
-0.00712622
0.00070791
0.00917569
0.0165043
0.0216985
0.0251201
0.0286267
0.0307966
0.0320092
0.0341632
0.0409436
0.0541712
0.0790204
0.108525
0.138676
0.0857165
-0.0538083
-0.132548
-0.139828
-0.109243
-0.0720683
-0.0478297
-0.0183348
0.013778
0.0337051
0.0366249
0.0376407
0.041466
0.0420432
0.0354869
0.0358394
0.0429765
0.0391272
0.0288161
0.0288233
0.0318828
0.0305733
0.0204403
0.000346085
-0.00948449
-0.00759468
-0.00367566
-0.00401397
-0.00810563
-0.0151977
-0.0245917
-0.0356381
-0.0475024
-0.0597988
-0.0718146
-0.0832713
-0.0947459
-0.105424
-0.119108
-0.138679
-0.167083
-0.19244
-0.217768
-0.22095
-0.21285
-0.176319
-0.11513
-0.0231598
0.165453
0.384412
0.49164
1.05629
1.01696
0.767181
1.58332
2.1986
-0.0154054
-0.0202667
-0.0404001
-0.0502401
-0.0573134
-0.0564183
-0.050444
-0.0368218
-0.0158714
0.0134684
0.0486196
0.081631
0.105255
0.118969
0.126358
0.130447
0.136691
0.142515
0.151887
0.163352
0.185248
0.19967
0.204795
0.0784658
-0.176427
-0.232708
-0.142892
-0.0405424
0.000702467
-0.0313004
-0.0288939
0.00231297
0.0429615
0.0608962
0.0729463
0.0807473
0.0875801
0.09026
0.0888717
0.0937012
0.0996256
0.0899995
0.0871841
0.0821653
0.0626333
0.0313919
0.00821362
0.0133332
0.0112606
-0.00226806
-0.0212631
-0.0441897
-0.0702745
-0.0972405
-0.122738
-0.143366
-0.156316
-0.157721
-0.145998
-0.12382
-0.0912435
-0.0643821
-0.0506089
-0.0748479
-0.117999
-0.225702
-0.326124
-0.469426
-0.520898
-0.370645
-0.0675506
0.417256
1.09083
1.58411
2.88542
2.14399
1.2878
0.19993
3.09489
-0.0294157
-0.0396992
-0.0741606
-0.0911317
-0.102724
-0.0999068
-0.0879366
-0.0632208
-0.0273168
0.0207004
0.0779617
0.13395
0.1768
0.203496
0.219549
0.227778
0.236545
0.24634
0.266865
0.29343
0.342216
0.380086
0.397634
0.166848
-0.276471
-0.388778
-0.265395
-0.120629
-0.0547373
-0.0902022
-0.0580942
0.0145399
0.0901174
0.12172
0.144006
0.160235
0.173849
0.179123
0.186644
0.199545
0.207158
0.197567
0.192334
0.181072
0.160999
0.133197
0.108525
0.0897847
0.0649986
0.0378362
0.00222735
-0.0428302
-0.0948934
-0.150042
-0.204023
-0.25101
-0.286225
-0.303481
-0.300878
-0.28377
-0.251611
-0.231488
-0.233134
-0.301642
-0.397643
-0.602485
-0.773412
-1.00371
-1.02297
-0.66444
-0.0795184
0.803763
2.05351
3.20051
5.18316
3.76643
2.67368
1.65413
8.49169
-0.0416983
-0.0567925
-0.106305
-0.131139
-0.147868
-0.143529
-0.125332
-0.0889517
-0.0370083
0.0312726
0.112187
0.192296
0.255085
0.294387
0.316984
0.327826
0.339419
0.352337
0.37883
0.410922
0.469071
0.505487
0.505786
0.185935
-0.37402
-0.489431
-0.307364
-0.126601
-0.0631753
-0.131627
-0.0918718
0.00909971
0.116221
0.161708
0.193864
0.215852
0.236837
0.247815
0.256459
0.268445
0.278756
0.265499
0.26209
0.248422
0.221715
0.180407
0.139315
0.114222
0.0846528
0.04192
-0.01313
-0.0798346
-0.155768
-0.235571
-0.313377
-0.380987
-0.43143
-0.455562
-0.450539
-0.423534
-0.373237
-0.337939
-0.329187
-0.415713
-0.545933
-0.843076
-1.10128
-1.45594
-1.49218
-0.961167
-0.119551
1.1228
2.84769
4.40978
6.83322
5.13565
4.34383
4.39168
12.3382
-0.0550541
-0.075909
-0.14033
-0.173509
-0.195589
-0.189771
-0.164867
-0.116034
-0.0473901
0.0410503
0.145109
0.249285
0.33264
0.385252
0.415081
0.428537
0.442075
0.458008
0.491289
0.530144
0.600103
0.641309
0.635026
0.234486
-0.444145
-0.580293
-0.354661
-0.152159
-0.102943
-0.1995
-0.138363
0.00308156
0.147263
0.207396
0.249987
0.279005
0.308042
0.324437
0.340368
0.35729
0.371989
0.356934
0.350734
0.330289
0.299185
0.255264
0.213421
0.17706
0.125557
0.0633088
-0.0130227
-0.105871
-0.211561
-0.323059
-0.432599
-0.529393
-0.604236
-0.644967
-0.647977
-0.621959
-0.564004
-0.522839
-0.511076
-0.62457
-0.799567
-1.20121
-1.55542
-2.03525
-2.06789
-1.33115
-0.191136
1.42519
3.59479
5.60372
8.48117
6.61401
5.89844
6.42378
12.4359
-0.0680568
-0.0953106
-0.174784
-0.217093
-0.245027
-0.238067
-0.20623
-0.144289
-0.0579288
0.0516775
0.17946
0.308165
0.412717
0.479
0.515642
0.53103
0.546059
0.564492
0.602729
0.645179
0.721121
0.759707
0.736177
0.263385
-0.496888
-0.638816
-0.367447
-0.154093
-0.134672
-0.266629
-0.18809
-0.00801986
0.172966
0.247267
0.299698
0.334777
0.372042
0.393877
0.41347
0.42996
0.446168
0.430035
0.426713
0.403625
0.367779
0.314305
0.257774
0.204699
0.143172
0.0647013
-0.033087
-0.151199
-0.285583
-0.427728
-0.568093
-0.693391
-0.792115
-0.848787
-0.858825
-0.831655
-0.761953
-0.708635
-0.684588
-0.817001
-1.03423
-1.54494
-2.00302
-2.62122
-2.65375
-1.69858
-0.279543
1.69812
4.27718
6.70005
9.83546
8.08869
7.47333
8.26397
13.8296
-0.0812473
-0.115932
-0.210099
-0.262207
-0.296412
-0.288719
-0.249926
-0.174405
-0.0694708
0.0621217
0.214249
0.367958
0.494214
0.574679
0.618247
0.635153
0.650975
0.671609
0.714245
0.759255
0.839251
0.875062
0.835844
0.305813
-0.520425
-0.673484
-0.361719
-0.148843
-0.169767
-0.336272
-0.237537
-0.0181836
0.199304
0.287272
0.349493
0.390887
0.436782
0.464361
0.491049
0.510536
0.530929
0.511125
0.507065
0.478934
0.438257
0.378454
0.316239
0.253486
0.173789
0.0732106
-0.0489671
-0.196144
-0.363399
-0.540584
-0.716274
-0.874613
-1.00185
-1.0791
-1.10086
-1.07655
-0.99753
-0.932445
-0.894195
-1.04673
-1.31388
-1.94783
-2.5231
-3.2919
-3.32011
-2.13155
-0.407001
1.93257
4.89109
7.70493
11.0135
9.60373
9.10262
9.99564
14.4356
-0.0944162
-0.137538
-0.245844
-0.30844
-0.349409
-0.341487
-0.295867
-0.206478
-0.0821692
0.0724581
0.249909
0.429242
0.577721
0.672811
0.723266
0.741179
0.757149
0.779592
0.825645
0.871722
0.952603
0.982762
0.923056
0.349252
-0.520519
-0.68085
-0.331963
-0.127075
-0.194711
-0.393516
-0.276504
-0.0233769
0.225866
0.325423
0.39657
0.443823
0.498335
0.53122
0.56355
0.582661
0.605278
0.585989
0.583688
0.552177
0.506793
0.438699
0.364643
0.283623
0.188994
0.0699553
-0.0762443
-0.252215
-0.452468
-0.665247
-0.877222
-1.07004
-1.22779
-1.32798
-1.364
-1.34411
-1.25524
-1.17561
-1.11807
-1.28941
-1.61224
-2.383
-3.0872
-4.01812
-4.03388
-2.57853
-0.560448
2.12768
5.44293
8.61317
11.9902
11.0747
10.7348
11.6705
15.0547
-0.108138
-0.160262
-0.281722
-0.35533
-0.40361
-0.396115
-0.344003
-0.240683
-0.0963581
0.0823075
0.286175
0.491913
0.66311
0.773286
0.830736
0.849245
0.86466
0.888568
0.937419
0.983823
1.0635
1.0872
1.00615
0.405504
-0.497302
-0.659739
-0.284954
-0.0919245
-0.206581
-0.42966
-0.295927
-0.0174441
0.255478
0.363503
0.442616
0.495618
0.558804
0.596988
0.636923
0.657674
0.683682
0.661882
0.660025
0.624601
0.574461
0.49865
0.415641
0.322196
0.210852
0.0687051
-0.104228
-0.31186
-0.548079
-0.799469
-1.05081
-1.2814
-1.47344
-1.60084
-1.65559
-1.64343
-1.54574
-1.4504
-1.37078
-1.5633
-1.95186
-2.87806
-3.72844
-4.83796
-4.83279
-3.08211
-0.751067
2.27858
5.93399
9.41297
12.7974
12.465
12.3244
13.3902
15.0365
-0.123358
-0.183868
-0.317104
-0.402031
-0.458236
-0.452037
-0.394008
-0.276942
-0.112149
0.091489
0.32304
0.556143
0.750524
0.876172
0.940767
0.959518
0.97369
0.998686
1.04972
1.09596
1.17247
1.18854
1.08584
0.469771
-0.454128
-0.608431
-0.221912
-0.0427464
-0.199173
-0.434194
-0.287072
0.00481798
0.289625
0.401571
0.487104
0.545477
0.61713
0.660114
0.707096
0.727624
0.75666
0.735488
0.734767
0.695922
0.641139
0.557284
0.463516
0.353485
0.223664
0.0603734
-0.139324
-0.379106
-0.652305
-0.943771
-1.23638
-1.50733
-1.73729
-1.89648
-1.9748
-1.97373
-1.86782
-1.75521
-1.65098
-1.86777
-2.33262
-3.434
-4.44977
-5.75733
-5.71683
-3.6213
-0.974024
2.38405
6.36618
10.1018
13.4881
13.7187
13.7694
14.7643
14.4915
-0.14053
-0.207822
-0.351245
-0.44739
-0.512146
-0.508405
-0.445379
-0.31506
-0.129591
0.0997958
0.360391
0.62201
0.840068
0.981451
1.0534
1.07217
1.08441
1.11009
1.16279
1.20871
1.28062
1.28842
1.16643
0.543233
-0.38606
-0.53064
-0.145422
0.0180018
-0.171337
-0.402913
-0.246265
0.0463261
0.329745
0.44038
0.530522
0.593941
0.673875
0.721364
0.77639
0.797848
0.829904
0.808113
0.808227
0.766081
0.706798
0.615014
0.510952
0.386358
0.238254
0.0514006
-0.177125
-0.451257
-0.763779
-1.09781
-1.43443
-1.74916
-2.02183
-2.21883
-2.32676
-2.34089
-2.22767
-2.09679
-1.9668
-2.21247
-2.76586
-4.06513
-5.27104
-6.80453
-6.71313
-4.22035
-1.23422
2.44329
6.74166
10.6842
14.0933
14.8229
15.0459
15.9092
14.6322
-0.158543
-0.231342
-0.3837
-0.49009
-0.563818
-0.563974
-0.497317
-0.35463
-0.148584
0.107147
0.39814
0.68961
0.931938
1.08921
1.16863
1.18734
1.19701
1.2229
1.27675
1.32221
1.38831
1.38714
1.24724
0.624687
-0.293623
-0.430304
-0.0577961
0.0878343
-0.124701
-0.337875
-0.17608
0.106159
0.375958
0.48008
0.572775
0.640792
0.728643
0.780252
0.842915
0.86468
0.900031
0.879171
0.880265
0.835099
0.771528
0.671911
0.557127
0.416581
0.248243
0.038098
-0.219941
-0.529522
-0.882963
-1.26157
-1.64472
-2.00693
-2.32798
-2.57007
-2.7146
-2.74834
-2.6285
-2.47852
-2.32233
-2.60176
-3.25673
-4.77906
-6.20459
-7.99981
-7.83818
-4.8769
-1.53167
2.45685
7.06262
11.1676
14.6194
15.7759
16.1712
17.0042
14.6332
-0.175648
-0.253819
-0.414076
-0.529103
-0.611683
-0.617157
-0.548712
-0.395027
-0.168904
0.11355
0.436202
0.759005
1.02631
1.19959
1.28649
1.30517
1.31165
1.3372
1.39163
1.43634
1.4956
1.48518
1.32857
0.714551
-0.181235
-0.312493
0.03744
0.163195
-0.0639157
-0.247568
-0.0843792
0.179961
0.427195
0.520675
0.613927
0.686079
0.781417
0.837172
0.907486
0.930321
0.96851
0.948806
0.950873
0.902975
0.835377
0.728085
0.602523
0.446293
0.258035
0.0228859
-0.266124
-0.613062
-1.00957
-1.43518
-1.86784
-2.28202
-2.65849
-2.95444
-3.14357
-3.20147
-3.07559
-2.9059
-2.72346
-3.04173
-3.81271
-5.58736
-7.2687
-9.37155
-9.11932
-5.60597
-1.86953
2.42613
7.33149
11.5605
15.067
16.5789
17.125
17.8652
14.1994
-0.190589
-0.274722
-0.441527
-0.563856
-0.654559
-0.666349
-0.598155
-0.43537
-0.190184
0.119124
0.474523
0.83025
1.12337
1.31272
1.40705
1.42575
1.42849
1.45302
1.50739
1.55074
1.60221
1.58222
1.41041
0.810624
-0.0542525
-0.183844
0.136282
0.240303
0.00561167
-0.143478
0.019949
0.261926
0.481488
0.56174
0.653819
0.729604
0.831981
0.891972
0.969211
0.993328
1.03449
1.01692
1.02008
0.969772
0.898434
0.783654
0.647207
0.474914
0.265998
0.0047199
-0.316321
-0.702127
-1.14367
-1.61868
-2.10404
-2.5755
-3.01594
-3.376
-3.61852
-3.70499
-3.57347
-3.38345
-3.17444
-3.53677
-4.44006
-6.5013
-8.48182
-10.9486
-10.5831
-6.41353
-2.24937
2.35338
7.55069
11.871
15.4377
17.2362
17.9107
18.5374
14.2579
-0.202794
-0.293422
-0.464963
-0.59384
-0.691611
-0.710342
-0.644181
-0.47457
-0.211902
0.124085
0.513093
0.90341
1.22329
1.42876
1.53042
1.54915
1.54765
1.57036
1.62396
1.665
1.70779
1.67774
1.49251
0.911195
0.0827612
-0.0500664
0.234989
0.31564
0.0775409
-0.0359842
0.129282
0.346797
0.536812
0.602563
0.69224
0.77122
0.880195
0.944712
1.0283
1.05442
1.09839
1.08353
1.08795
1.03558
0.960802
0.838731
0.691357
0.502882
0.272966
-0.0156529
-0.369933
-0.796519
-1.2853
-1.81232
-2.35404
-2.8892
-3.40384
-3.83966
-4.14494
-4.26395
-4.12716
-3.91571
-3.67925
-4.09171
-5.14689
-7.53453
-9.86614
-12.7656
-12.2617
-7.31166
-2.67286
2.24143
7.72295
12.1076
15.7356
17.7581
18.5435
19.0357
14.2399
-0.212371
-0.309264
-0.483398
-0.618343
-0.722083
-0.748085
-0.685504
-0.511526
-0.233312
0.128771
0.552002
0.978576
1.32623
1.54782
1.6567
1.67537
1.66924
1.68921
1.74132
1.77879
1.81206
1.77117
1.57407
1.01482
0.225849
0.0851272
0.330842
0.386843
0.146012
0.0683265
0.237295
0.430689
0.591294
0.642179
0.728836
0.810679
0.925799
0.995299
1.08436
1.11317
1.1603
1.14863
1.15455
1.10049
1.02259
0.893437
0.735151
0.530358
0.27896
-0.0377576
-0.427112
-0.896207
-1.43449
-2.01626
-2.61853
-3.22512
-3.82594
-4.35042
-4.72795
-4.88299
-4.74121
-4.50629
-4.2411
-4.7113
-5.94235
-8.70158
-11.446
-14.861
-14.19
-8.31052
-3.14037
2.0937
7.85171
12.2788
15.9668
18.1576
19.0374
19.4117
14.4069
-0.219979
-0.321877
-0.496216
-0.636627
-0.745306
-0.778355
-0.720833
-0.544948
-0.253415
0.133655
0.591463
1.05588
1.43237
1.67002
1.78598
1.8044
1.79332
1.80955
1.85946
1.89194
1.91484
1.8622
1.65434
1.12002
0.371826
0.219177
0.422098
0.452844
0.208243
0.16568
0.33916
0.510597
0.643014
0.679495
0.763144
0.847696
0.968546
1.04364
1.1374
1.16975
1.22034
1.21224
1.21998
1.16462
1.08389
0.947899
0.778754
0.55751
0.284111
-0.0615484
-0.48773
-1.00117
-1.59133
-2.23083
-2.89851
-3.58575
-4.28652
-4.91362
-5.37255
-5.56655
-5.41977
-5.15807
-4.86298
-5.40053
-6.83584
-10.0172
-13.2475
-17.2786
-16.4064
-9.42239
-3.65121
1.9142
7.94134
12.3937
16.1386
18.4499
19.414
19.7378
14.5208
-0.226439
-0.331582
-0.50316
-0.648138
-0.760767
-0.800091
-0.748578
-0.573236
-0.271045
0.139371
0.631793
1.1355
1.54186
1.79549
1.91834
1.93627
1.91996
1.93137
1.97832
2.00439
2.01606
1.95077
1.73274
1.22477
0.517211
0.349734
0.507793
0.513771
0.264262
0.254373
0.431917
0.583999
0.690037
0.713376
0.79458
0.881903
1.00816
1.08954
1.18729
1.22408
1.27846
1.27438
1.28429
1.22802
1.14482
1.00225
0.82235
0.584567
0.288744
-0.0866947
-0.551372
-1.11129
-1.75585
-2.45631
-3.19514
-3.97388
-4.79006
-5.53456
-6.08326
-6.31872
-6.16607
-5.87308
-5.54761
-6.16412
-7.83558
-11.4945
-15.2971
-20.0656
-18.9508
-10.6591
-4.20321
1.70766
7.99719
12.4617
16.2593
18.6521
19.6862
19.9481
14.5961
-0.23245
-0.339162
-0.504501
-0.652679
-0.768097
-0.812761
-0.767211
-0.594734
-0.284845
0.146736
0.673409
1.21766
1.65485
1.92432
2.05386
2.07107
2.0492
2.05471
2.09783
2.11616
2.1157
2.03714
1.80908
1.32708
0.658077
0.474549
0.587694
0.570481
0.315367
0.334307
0.514795
0.648971
0.730769
0.742741
0.822465
0.912866
1.04439
1.13271
1.234
1.27607
1.33465
1.33505
1.34754
1.29079
1.20547
1.05663
0.866113
0.611706
0.292978
-0.113197
-0.617776
-1.22672
-1.92817
-2.69315
-3.50988
-4.39259
-5.34125
-6.2184
-6.86417
-7.14328
-6.9824
-6.65278
-6.29749
-7.006
-8.94785
-13.1441
-17.6204
-23.2716
-21.8634
-12.0318
-4.7928
1.47982
8.02551
12.4924
16.3379
18.7805
19.8732
20.0777
14.857
-0.238427
-0.345403
-0.501199
-0.650524
-0.767301
-0.816179
-0.775786
-0.607863
-0.2933
0.156758
0.716839
1.30264
1.77149
2.05661
2.1926
2.2089
2.18108
2.17963
2.21791
2.22728
2.21377
2.12171
1.88359
1.4255
0.791231
0.592074
0.662255
0.624117
0.363419
0.406202
0.588527
0.704293
0.764234
0.766664
0.846072
0.940088
1.07705
1.1728
1.27756
1.32565
1.38891
1.39427
1.40976
1.35298
1.26596
1.11117
0.910229
0.639151
0.297108
-0.140697
-0.686832
-1.34742
-2.10828
-2.94182
-3.84437
-4.8451
-5.94487
-6.96991
-7.71893
-8.04337
-7.87014
-7.49822
-7.11458
-7.92866
-10.1764
-14.973
-20.2404
-26.945
-25.1856
-13.5491
-5.41485
1.23707
8.03374
12.4961
16.3836
18.8513
19.9983
20.1945
15.0929
-0.244505
-0.35087
-0.494519
-0.642508
-0.758875
-0.810349
-0.77404
-0.61122
-0.294866
0.170614
0.762724
1.39074
1.89192
2.19244
2.3346
2.34981
2.31564
2.30624
2.33847
2.33775
2.31033
2.20482
1.9567
1.51948
0.915267
0.701876
0.732451
0.676055
0.41021
0.471178
0.653491
0.749663
0.789998
0.784441
0.864688
0.963034
1.10592
1.20952
1.3181
1.37272
1.44125
1.45205
1.47101
1.41467
1.32637
1.16605
0.954885
0.667117
0.301341
-0.169044
-0.758412
-1.47294
-2.29626
-3.20296
-4.2005
-5.33476
-6.6057
-7.79336
-8.65075
-9.02133
-8.82999
-8.4101
-7.99998
-8.9327
-11.522
-16.9842
-23.1749
-31.1281
-28.9642
-15.2156
-6.06241
0.987059
8.02987
12.483
16.4057
18.8797
20.0754
20.2709
15.2928
-0.250641
-0.355833
-0.485633
-0.629816
-0.743644
-0.795747
-0.762193
-0.603887
-0.288049
0.189615
0.81182
1.48234
2.01627
2.3319
2.47987
2.49389
2.45302
2.4347
2.45952
2.4476
2.40547
2.28655
2.02867
1.60922
1.03037
0.804287
0.799429
0.727794
0.456984
0.529977
0.709774
0.785244
0.807845
0.795557
0.87767
0.981159
1.13083
1.24254
1.35576
1.41723
1.49171
1.50843
1.53133
1.47591
1.38685
1.22141
1.00028
0.695843
0.305964
-0.197921
-0.83228
-1.60312
-2.49229
-3.47733
-4.58026
-5.86488
-7.32833
-8.69238
-9.66239
-10.0786
-9.86222
-9.38874
-8.95362
-10.0166
-12.9824
-19.1746
-26.4305
-35.8463
-33.2372
-17.0295
-6.72631
0.739599
8.021
12.4623
16.4128
18.8796
20.1201
20.3224
15.5704
-0.256729
-0.360346
-0.475399
-0.613657
-0.722667
-0.773329
-0.740669
-0.585614
-0.271496
0.215128
0.864994
1.57783
2.14469
2.475
2.62841
2.64117
2.59337
2.56519
2.58111
2.55687
2.49928
2.36693
2.09969
1.69529
1.13731
0.899798
0.864153
0.780846
0.505021
0.582857
0.757531
0.810995
0.817549
0.79961
0.884479
0.993943
1.15159
1.27164
1.39073
1.45912
1.54037
1.56342
1.59078
1.53682
1.44752
1.27742
1.04663
0.725579
0.311252
-0.227074
-0.908222
-1.73796
-2.69653
-3.76581
-4.9857
-6.43872
-8.11702
-9.67004
-10.756
-11.2156
-10.9668
-10.4339
-9.97404
-11.1765
-14.5509
-21.5327
-29.9932
-41.0907
-37.9963
-18.9776
-7.39487
0.506996
8.01312
12.4428
16.4132
18.8632
20.1464
20.3589
15.8511
-0.262676
-0.364317
-0.464273
-0.595035
-0.697114
-0.744128
-0.71014
-0.556728
-0.244207
0.248485
0.923198
1.67762
2.2773
2.62175
2.78015
2.79168
2.7368
2.6979
2.70349
2.6657
2.59189
2.4461
2.17004
1.77828
1.23668
0.98878
0.92722
0.83664
0.555873
0.630518
0.796638
0.826589
0.818737
0.796216
0.884675
1.00093
1.16808
1.29667
1.42312
1.49838
1.5873
1.61707
1.64944
1.59749
1.50853
1.33428
1.09415
0.756597
0.317517
-0.256171
-0.985927
-1.87723
-2.90906
-4.06948
-5.41893
-7.0595
-8.97549
-10.7289
-11.9331
-12.4325
-12.1435
-11.5448
-11.0583
-12.4063
-16.2164
-24.0347
-33.8125
-46.7948
-43.1603
-21.0278
-8.0532
0.302957
8.01223
12.4325
16.4143
18.8413
20.1657
20.3933
16.1741
-0.268399
-0.367572
-0.452395
-0.574608
-0.668058
-0.709137
-0.671639
-0.517829
-0.205746
0.290929
0.987427
1.78213
2.41421
2.77208
2.93499
2.94537
2.88337
2.83302
2.82704
2.77429
2.68344
2.52415
2.24005
1.85872
1.32898
1.07146
0.988805
0.896241
0.611171
0.67438
0.826873
0.831548
0.810877
0.784976
0.877902
1.00174
1.18016
1.31758
1.453
1.53513
1.63257
1.66944
1.70742
1.65807
1.57005
1.39218
1.1431
0.789188
0.325088
-0.284873
-1.06508
-2.02063
-3.13007
-4.38973
-5.88223
-7.73221
-9.9069
-11.8709
-13.1946
-13.7286
-13.3919
-12.7196
-12.2021
-13.6973
-17.9628
-26.6397
-37.7837
-52.8038
-48.5529
-23.1245
-8.68273
0.140604
8.02603
12.4391
16.4229
18.823
20.188
20.4489
16.4709
-0.273826
-0.369915
-0.439716
-0.552691
-0.636323
-0.669332
-0.626279
-0.469607
-0.156281
0.343477
1.05867
1.89174
2.55546
2.92587
3.09276
3.10218
3.03311
2.97077
2.95218
2.88284
2.77411
2.60121
2.31001
1.93709
1.41466
1.14796
1.04867
0.96012
0.672356
0.716343
0.848354
0.825495
0.793429
0.765476
0.86386
0.996094
1.18774
1.33443
1.48051
1.56959
1.67622
1.72061
1.76483
1.71873
1.63227
1.45135
1.19371
0.82366
0.334326
-0.312787
-1.14529
-2.16785
-3.36003
-4.72904
-6.38061
-8.46749
-10.9156
-13.0977
-14.5404
-15.1032
-14.7111
-13.956
-13.3998
-15.0387
-19.7676
-29.2848
-41.7337
-58.8491
-53.8754
-25.1805
-9.26339
0.0326682
8.06317
12.4688
16.4447
18.8159
20.2197
20.5054
16.7931
-0.27888
-0.371164
-0.426102
-0.529363
-0.602414
-0.625591
-0.575027
-0.412968
-0.0964509
0.406752
1.13785
2.0068
2.70099
3.0829
3.25324
3.26196
3.18598
3.11138
3.07936
2.9917
2.86414
2.67751
2.38026
2.01387
1.49412
1.21827
1.10623
1.0281
0.74038
0.758505
0.861808
0.808378
0.766049
0.737365
0.842308
0.983824
1.19077
1.34736
1.50568
1.60211
1.71831
1.77071
1.8218
1.77966
1.69541
1.512
1.24629
0.860346
0.345618
-0.339489
-1.22611
-2.31852
-3.59926
-5.09035
-6.92234
-9.27659
-12.0091
-14.4109
-15.9704
-16.5556
-16.0999
-15.2507
-14.6443
-16.4174
-21.5996
-31.8826
-45.4265
-64.5397
-58.7056
-27.0766
-9.77448
-0.00796888
8.13133
12.527
16.4847
18.8258
20.2675
20.5693
17.1593
-0.283481
-0.371177
-0.411386
-0.504564
-0.566571
-0.578612
-0.51871
-0.348992
-0.0270422
0.480908
1.22575
2.12753
2.85059
3.24286
3.41614
3.42452
3.34188
3.25507
3.20899
3.10148
2.9539
2.75348
2.45113
2.08958
1.5678
1.2822
1.16055
1.09945
0.815626
0.802794
0.868656
0.780574
0.728715
0.700441
0.813081
0.964873
1.18926
1.3566
1.52844
1.63309
1.75885
1.81988
1.87852
1.84108
1.75968
1.57441
1.30111
0.899598
0.359381
-0.364511
-1.30705
-2.47223
-3.84773
-5.4742
-7.51113
-10.1605
-13.1904
-15.8116
-17.4838
-18.0846
-17.5568
-16.5999
-15.9278
-17.8174
-23.4224
-34.3258
-48.6051
-69.4192
-62.5349
-28.6801
-10.176
0.0317665
8.23719
12.6179
16.5468
18.8573
20.3368
20.6624
17.5041
-0.287549
-0.369845
-0.395411
-0.47818
-0.528856
-0.528842
-0.458008
-0.278678
0.0511336
0.56559
1.32286
2.25406
3.00389
3.40535
3.58105
3.58958
3.50066
3.40202
3.34147
3.21294
3.04395
2.82966
2.52299
2.16471
1.63597
1.33925
1.2104
1.1731
0.898017
0.850765
0.87074
0.742877
0.681728
0.654723
0.776137
0.9393
1.18332
1.36241
1.54901
1.66281
1.79793
1.86831
1.93518
1.90325
1.82534
1.63883
1.35848
0.94179
0.37606
-0.387341
-1.38756
-2.62852
-4.10555
-5.88079
-8.14623
-11.1158
-14.4554
-17.3
-19.08
-19.6894
-19.0797
-17.9991
-17.2416
-19.2207
-25.1988
-36.5019
-51.0761
-73.1221
-64.9016
-29.8808
-10.3967
0.164754
8.38671
12.7444
16.6343
18.9137
20.4297
20.7693
17.8822
-0.291012
-0.367082
-0.378044
-0.450088
-0.489217
-0.476513
-0.393478
-0.202861
0.137127
0.660056
1.42939
2.38633
3.16031
3.56984
3.74755
3.75678
3.66211
3.55234
3.47709
3.32686
3.13503
2.90663
2.59627
2.23973
1.69871
1.38854
1.25424
1.2478
0.987221
0.903626
0.869927
0.696487
0.625663
0.600466
0.731588
0.907293
1.17314
1.36517
1.56782
1.69151
1.83564
1.91622
1.99203
1.96644
1.89265
1.70554
1.41875
0.987318
0.396132
-0.407424
-1.46699
-2.78683
-4.37273
-6.31135
-8.82971
-12.144
-15.8026
-18.8756
-20.7579
-21.3686
-20.6661
-19.4436
-18.5768
-20.608
-26.8913
-38.3333
-52.7489
-75.2256
-65.7159
-30.5589
-10.3839
0.399197
8.58461
12.9082
16.7492
18.9972
20.5491
20.8946
18.251
-0.293803
-0.362816
-0.359189
-0.420167
-0.447559
-0.421724
-0.325535
-0.122199
0.229927
0.763462
1.54519
2.5241
3.31907
3.73566
3.9151
3.92571
3.82595
3.706
3.61604
3.44393
3.22789
2.98499
2.67142
2.31501
1.75575
1.42873
1.29018
1.32219
1.08285
0.962304
0.867931
0.642918
0.561357
0.538172
0.67973
0.869186
1.15906
1.36532
1.58521
1.71939
1.87214
1.96386
2.04935
2.03093
1.96188
1.77485
1.48223
1.03659
0.420103
-0.424159
-1.54466
-2.9466
-4.64919
-6.7667
-9.56391
-13.246
-17.2324
-20.5374
-22.5171
-23.1211
-22.3132
-20.9283
-19.9236
-21.9602
-28.4603
-39.7789
-53.5724
-75.3157
-65.1878
-30.559
-10.1436
0.73882
8.83346
13.1097
16.8929
19.109
20.6959
21.0373
18.6375
-0.295863
-0.356985
-0.338775
-0.388318
-0.403787
-0.364482
-0.254433
-0.0371913
0.328661
0.874938
1.66975
2.66688
3.47926
3.902
4.08314
4.09584
3.99189
3.86289
3.75841
3.56476
3.3233
3.0654
2.74891
2.39075
1.80643
1.45803
1.31596
1.39487
1.18458
1.02752
0.866305
0.583852
0.489928
0.468603
0.621076
0.82548
1.14147
1.36339
1.60148
1.7466
1.90764
2.01148
2.10744
2.09703
2.03332
1.84704
1.54929
1.09005
0.448504
-0.4369
-1.61982
-3.10717
-4.9347
-7.24738
-10.3496
-14.4205
-18.7434
-22.2845
-24.3568
-24.9457
-24.0182
-22.448
-21.2715
-23.2585
-29.8717
-40.8074
-53.5849
-73.5974
-63.4677
-29.8181
-9.68619
1.18437
9.13347
13.348
17.0657
19.2494
20.8708
21.1991
19.0321
-0.297132
-0.349528
-0.316745
-0.354474
-0.357816
-0.304738
-0.180307
0.0517736
0.432605
0.99354
1.80236
2.81397
3.63983
4.06795
4.25108
4.26662
4.15955
4.02277
3.90421
3.68984
3.42199
3.14857
2.82913
2.46695
1.84964
1.47416
1.32882
1.4643
1.29217
1.09987
0.866476
0.521107
0.412818
0.392808
0.556406
0.776873
1.12087
1.35993
1.61703
1.77325
1.94238
2.05938
2.16666
2.16505
2.10726
1.92242
1.62028
1.14813
0.481897
-0.444954
-1.69165
-3.26782
-5.22893
-7.75393
-11.1872
-15.6662
-20.3342
-24.1157
-26.277
-26.8414
-25.7782
-23.9972
-22.6093
-24.4844
-31.0991
-41.4141
-52.8962
-70.6752
-60.7584
-28.4976
-9.01444
1.73109
9.48291
13.621
17.2671
19.4179
21.0736
21.3916
19.3912
-0.297555
-0.340385
-0.293045
-0.318593
-0.309566
-0.242431
-0.103229
0.144407
0.541183
1.11838
1.94211
2.96442
3.7996
4.2325
4.41829
4.43744
4.32851
4.18528
4.05329
3.81948
3.5246
3.23512
2.91236
2.54334
1.88386
1.47428
1.32542
1.52873
1.40547
1.17989
0.869795
0.45668
0.331852
0.312203
0.486798
0.724284
1.09798
1.35554
1.63221
1.79942
1.97666
2.1079
2.22736
2.23532
2.18399
2.0013
1.69556
1.21128
0.520865
-0.447585
-1.75927
-3.42775
-5.53139
-8.28666
-12.077
-16.982
-22.0036
-26.0303
-28.2774
-28.8072
-27.5905
-25.5704
-23.9264
-25.6208
-32.1227
-41.6137
-51.5825
-67.0149
-57.3647
-26.7982
-8.13764
2.36934
9.87845
13.9258
17.4955
19.6132
21.3031
21.5984
19.7925
-0.297078
-0.329497
-0.267628
-0.280646
-0.258972
-0.177514
-0.0232041
0.240525
0.653981
1.24869
2.08789
3.117
3.95733
4.39459
4.58417
4.60763
4.49829
4.34997
4.20547
3.95384
3.6317
3.32561
2.99879
2.61947
1.90713
1.45488
1.30161
1.58606
1.52434
1.26801
0.877585
0.392796
0.249276
0.228597
0.413665
0.668867
1.07364
1.35082
1.6474
1.82518
2.01081
2.1574
2.28993
2.30812
2.26378
2.08398
1.77549
1.27998
0.566015
-0.444011
-1.82172
-3.58608
-5.84143
-8.84555
-13.0183
-18.3659
-23.7501
-28.0276
-30.3586
-30.8424
-29.4523
-27.1627
-25.2128
-26.6527
-32.9304
-41.429
-49.7184
-62.8378
-53.4381
-24.7954
-7.07584
3.08805
10.3152
14.2585
17.7489
19.8336
21.5588
21.8196
20.2103
-0.295646
-0.316803
-0.240443
-0.240612
-0.205986
-0.109928
0.0598102
0.340018
0.770694
1.38376
2.23831
3.27022
4.11179
4.55319
4.74805
4.77654
4.66837
4.5163
4.36059
4.09293
3.74374
3.4204
3.08848
2.69474
1.91707
1.41166
1.25232
1.63374
1.64852
1.36441
0.89119
0.331924
0.167707
0.144171
0.338737
0.612034
1.04883
1.34644
1.66295
1.85059
2.04524
2.20831
2.35477
2.38376
2.34691
2.17074
1.86041
1.35469
0.617973
-0.433409
-1.87801
-3.74179
-6.1582
-9.43026
-14.0099
-19.8157
-25.5725
-30.1075
-32.5209
-32.9466
-31.3612
-28.7695
-26.4592
-27.5668
-33.5174
-40.8943
-47.3922
-58.2444
-49.072
-22.5116
-5.85599
3.87587
10.7869
14.6148
18.0244
20.0768
21.8396
22.0708
20.587
-0.293201
-0.302237
-0.21144
-0.19847
-0.150562
-0.0395989
0.145858
0.442839
0.891092
1.52295
2.39191
3.42235
4.26178
4.70741
4.90921
4.94348
4.83815
4.6837
4.51845
4.23657
3.86108
3.51972
3.18143
2.76842
1.91074
1.33941
1.17144
1.66868
1.77756
1.46887
0.911957
0.276692