/*--------------------------------*- C++ -*----------------------------------*\
| =========                 |                                                 |
| \\      /  F ield         | OpenFOAM: The Open Source CFD Toolbox           |
|  \\    /   O peration     | Version:  4.1                                   |
|   \\  /    A nd           | Web:      www.OpenFOAM.org                      |
|    \\/     M anipulation  |                                                 |
\*---------------------------------------------------------------------------*/
FoamFile
{
    version     2.0;
    format      ascii;
    class       surfaceScalarField;
    location    "8";
    object      phi;
}
// * * * * * * * * * * * * * * * * * * * * * * * * * * * * * * * * * * * * * //

dimensions      [0 3 -1 0 0 0 0];

internalField   nonuniform List<scalar> 
13220
(
-879.858
2179.76
-1358.29
1778.63
-1812.69
1754.3
-2153.92
1641.14
-2414.11
1560.38
-2594.01
1479.8
-2695.67
1401.56
-2718.99
1323.52
-2664.48
1245.39
-2536.22
1171.64
-2345.71
1109.69
-2084.35
1038.54
-1683.09
898.646
-1026.17
643.274
273.735
-27.9753
2207.74
-98.399
1849.06
-253.967
1909.87
-379.981
1767.15
-510.281
1690.69
-623.679
1593.2
-721.846
1499.73
-803.445
1405.12
-871.436
1313.38
-917.332
1217.54
-889.011
1081.37
-697.351
846.879
-333.945
535.242
-8.74381
318.076
264.991
-179.703
2387.44
-420.455
2089.81
-643.576
2132.99
-799.061
1922.64
-948.17
1839.8
-1062.48
1707.51
-1158.83
1596.08
-1239.52
1485.81
-1309.38
1383.24
-1355.21
1263.37
-1323.63
1049.79
-1131.71
654.966
-768.583
172.123
-385.813
-64.6811
-120.821
8.30997
2379.13
-88.1923
2186.32
-137.625
2182.42
-153.417
1938.43
-169.898
1856.28
-164.82
1702.43
-148.337
1579.6
-116.664
1454.14
-71.4586
1338.04
-20.7623
1212.68
0.686526
1028.34
-59.5146
715.171
-168.634
281.252
-178.209
-55.0946
-299.03
147.153
2231.98
121.252
2212.22
163.875
2139.8
217.324
1884.99
273.055
1800.55
333.716
1641.77
398.846
1514.47
469.837
1383.15
550.04
1257.84
628.811
1133.91
666.321
990.833
583.17
798.328
338.796
525.633
54.2705
229.442
-244.76
148.685
2083.29
145.105
2215.8
184.912
2099.99
227.68
1842.22
275.136
1753.09
318.786
1598.13
363.739
1469.52
407.378
1339.51
452.258
1212.96
494.4
1091.77
517.266
967.966
484.221
831.368
360.846
649.001
179.397
410.872
-65.3624
100.497
1982.8
139.149
2177.15
180.616
2058.53
224.469
1798.37
270.645
1706.92
314.107
1554.66
354.641
1428.98
389.131
1305.02
415.234
1186.86
434.285
1072.72
442.175
960.076
423.598
849.948
349.035
723.568
202.82
557.097
137.457
41.9621
1940.84
113.818
2105.29
165.683
2006.66
217.914
1746.14
264.507
1660.32
321.755
1497.42
373.866
1376.87
431.285
1247.6
486.855
1131.29
533.134
1026.43
553.228
939.982
528.83
874.341
434.27
818.121
263.363
727.994
400.82
-24.3531
1965.19
27.424
2053.52
67.0825
1967
88.0891
1725.13
109.513
1638.9
145.66
1461.27
207.61
1314.92
321.363
1133.84
462.565
990.084
588.737
900.263
652.175
876.544
623.921
902.598
494.296
947.75
286.07
936.225
686.89
-59.8687
2025.06
-120.219
2113.87
-144.081
1990.87
-204.477
1785.53
-256.722
1691.14
-300.885
1505.43
-298.168
1312.2
-225.266
1060.94
-104.627
869.443
34.0303
761.604
166.861
743.713
256.093
813.359
257.243
946.595
155.986
1037.48
842.876
19.883
2005.17
-171.802
2305.55
-293.343
2112.4
-419.223
1911.4
-545.019
1816.94
-675.355
1635.77
-799.228
1436.07
-900.887
1162.6
-964.555
933.11
-961.194
758.241
-852.099
634.616
-620.451
581.713
-321.097
647.241
-85.3241
801.702
757.552
217.203
1787.97
76.217
2446.53
-89.1538
2277.77
-218.291
2040.54
-324.688
1923.33
-444.8
1755.88
-591.996
1583.27
-777.482
1348.08
-964.805
1120.43
-1113.25
906.685
-1179.39
700.756
-1097.97
500.289
-803.973
353.235
-335.221
332.943
422.331
420.402
1367.56
505.891
2361.04
433.129
2350.53
394.258
2079.41
408.304
1909.28
403.231
1760.95
361.379
1625.12
253.511
1455.95
100.222
1273.72
-77.3676
1084.27
-260.479
883.866
-418.662
658.471
-474.678
409.247
-322.541
180.803
99.7895
506.187
861.376
719.941
2147.29
689.912
2380.56
593.448
2175.87
557.062
1945.67
564.871
1753.14
596.58
1593.41
614.159
1438.37
610.461
1277.42
585.602
1109.13
525.389
944.078
395.779
788.08
194.196
610.829
-18.7259
393.721
81.0637
367.146
1222.94
1900.31
2321.04
2498.18
2552.94
2507.66
2396.99
2211.17
1988.12
1721.9
1402.88
1023.86
546.361
1.90084e-06
111.142
-111.142
111.142
111.142
111.142
196.992
-85.8495
196.992
196.992
196.992
264.72
-67.7282
264.72
264.72
322.852
-58.132
322.852
322.852
322.852
373.342
-50.4901
373.342
373.342
414.197
-40.8551
414.197
414.197
414.197
444.94
-30.7429
444.94
444.94
444.94
463.912
-18.9717
463.912
463.912
468.289
-4.37715
468.289
468.289
468.289
459.11
9.1792
459.11
459.11
436.902
22.208
436.902
436.902
436.902
407.387
29.5146
407.387
407.387
407.387
381.705
25.6821
381.705
381.705
399.785
-18.0803
399.785
399.785
399.785
425.355
-25.5698
425.355
425.355
425.355
354.685
70.6703
354.685
354.685
186.427
168.258
186.427
186.427
186.427
-118.608
305.036
-118.608
-118.608
-934.139
815.531
-934.139
-934.139
-934.139
-2291.13
1356.99
-2291.13
-2291.13
-2291.13
-4065.64
1774.51
-4065.64
-4065.64
-6186.56
2120.92
-6186.56
-6186.56
-6070.95
-5955.6
-5837.05
-8093.04
2372.82
-7970.84
-7822.4
-7658.18
-7493.71
-7329.11
-7166.03
-6998.4
-6815.85
-9159.67
2523.81
-8968.96
-8778.86
-8588.76
-8383.03
-8175.8
-7967.75
-7759.07
-7548.71
-9956.84
2621.09
-9730.4
-9502.58
-9273.85
-9043.79
-8806.64
-8557.17
-8306.42
-8053.47
-7798.97
-10184
2629.63
-9912.81
-9639.6
-9365.07
-9089.86
-8813.94
-8525.1
-8228.63
-7932.29
-10049.2
2400.14
-9761.51
-9467.22
-9160.85
-8854.04
-8546.4
-8238.74
-7929.85
-7600.67
-9262.82
1978.78
-8946.03
-8630.4
-8315.64
-7984.34
-7646.88
-7311.83
-6978.36
-6650.21
-7598.21
1275.77
-7263.33
-6933.22
-6605.93
-6282.22
-5962.24
-5632.3
-5306.85
-4985.67
-4673.32
-4675.32
317.728
-4401.13
-4146.32
-3898.9
-3659.46
-3427.44
-3244.09
-3152.43
-3061.45
-2624.94
-337.433
-2541.57
-2459.74
-2459.74
-2221.39
-238.347
-1994.5
-226.886
-1994.5
-1799.93
-194.573
-1799.93
-1630.63
-169.303
-1493.81
-136.816
-1493.81
-1364.67
-129.137
-1259.61
-105.066
-1259.61
-1160.05
-99.5622
-1160.05
-1069.82
-90.2224
-996.654
-73.1683
-996.654
-925.677
-70.9769
-925.677
-860.324
-65.353
-806.506
-53.8189
-806.506
-752.916
-53.5897
-710.252
-42.6634
-710.252
-669.314
-40.9381
-669.314
-632.664
-36.6504
-606.067
-26.5969
-606.067
-582.36
-23.7073
-582.36
-564.575
-17.7851
-556.452
-8.1221
-556.452
-553.991
-2.46132
-562.827
8.83585
-562.827
-579.504
16.6771
-579.504
-607.498
27.9942
-647.041
39.5427
-647.041
-697.677
50.6361
-697.677
-764.178
66.501
-842.814
78.6357
-842.814
-941.04
98.2267
-1054.93
113.885
-1054.93
-1190.35
135.428
-1190.35
-1356
165.65
-1540.29
184.288
-1540.29
-1756.87
216.582
-1756.87
-2018.96
262.087
-2300.55
281.588
-2300.55
-2645.19
344.636
-3012.88
367.697
-3012.88
-3441.98
429.092
-3441.98
-3956.03
514.058
-4484.64
528.605
-4484.64
-5097.12
612.48
-5097.12
-5823.08
725.963
-6538.61
715.526
-6538.61
-7414.57
875.958
-8263.46
848.9
-8263.46
-9239.06
975.599
-9239.06
1162.26
-57.9217
-532.58
-51.547
-547.535
-46.3086
-521.443
-40.787
-590.454
-34.2532
-685.631
-28.0247
-820.106
-23.3165
-975.77
-20.3065
-1140.63
-18.0197
-1307.36
-14.9021
-1465.32
-8.11873
-1585.28
2.75281
-1651.73
15.2357
-1672.27
27.406
-1663.48
37.5965
-1636.97
46.8681
-1609.7
57.4917
-1616.78
68.3433
-1641.58
75.1628
-1628.59
70.8753
-1555.74
45.2478
-1431.27
-5.63254
-1274.73
-80.9855
-1038.57
-144.346
-716.839
-147.321
-738.91
-96.3487
-1268.55
-26.1346
-1858.95
40.6044
-2279.29
88.8426
-2325.45
113.324
-2003.9
115.47
-1615.17
97.2324
-1318.53
71.9099
-1170.13
50.1025
-1088.13
31.4313
-1028.42
10.1429
-961.431
-10.425
-926.235
-23.0614
-790.881
-38.8296
-564.937
-64.1668
-428.295
-87.9562
-247.855
-105.854
-80.1126
-120.778
24.7221
-135.127
136.522
-152.283
184.789
-172.606
130.413
-190.46
6.01832
-202.154
-128.024
-212.564
-235.474
-225.637
-325.53
-239.946
-418.11
-253.591
-521.421
-265.541
-640.941
-275.012
-782.866
-281.261
-950.371
-283.516
-1144.65
-280.859
-1363.74
-272.204
-1603.81
-256.436
-1856.17
-232.55
-2108.09
-199.847
-2341.83
-157.544
-2531.26
-104.249
-2649.1
-40.1125
-2659.8
32.5272
-2533.02
107.172
-2255.43
175.752
-1821.02
227.095
-1244.32
251.499
-534.667
256.198
77.9246
248.324
481.665
224.846
609.469
179.68
287.718
93.4235
-376.943
-101.585
-1685.56
-382.013
-1487.29
-620.488
1582.53
-938.312
4963.86
8926.02
-55.7449
-533.862
-51.6525
-551.628
-47.4267
-525.669
-42.5482
-595.332
-35.4487
-692.731
-27.6135
-827.941
-20.8903
-982.494
-16.2691
-1145.25
-13.6041
-1310.03
-11.7623
-1467.16
-6.87208
-1590.17
2.59223
-1661.2
14.2083
-1683.88
25.7176
-1674.99
35.679
-1646.93
45.171
-1619.19
56.3314
-1627.94
68.3193
-1653.57
76.9848
-1637.25
74.3315
-1553.09
49.212
-1406.15
-1.42923
-1224.09
-74.926
-965.073
-135.455
-656.31
-133.078
-741.287
-75.4109
-1326.21
-3.33885
-1931.02
62.3535
-2344.98
109.817
-2372.91
130.989
-2025.07
127.433
-1611.62
103.72
-1294.81
74.2943
-1140.7
50.7855
-1064.62
32.2586
-1009.89
11.0519
-940.225
-10.6807
-904.503
-23.6404
-777.922
-37.1581
-551.419
-59.5175
-405.936
-81.8008
-225.572
-99.5336
-62.3798
-114.911
40.0997
-129.267
150.878
-144.251
199.773
-159.878
146.04
-173.484
19.6244
-185.912
-115.596
-201.159
-220.228
-219.093
-307.596
-237.259
-399.943
-254.35
-504.33
-269.536
-625.755
-282.127
-770.275
-291.384
-941.114
-296.495
-1139.54
-296.485
-1363.75
-290.224
-1610.07
-276.665
-1869.73
-254.923
-2129.83
-224.238
-2372.52
-183.172
-2572.33
-129.111
-2703.16
-61.3005
-2727.61
18.2148
-2612.53
102.109
-2339.32
181.405
-1900.32
242.252
-1305.16
269.217
-561.633
265.318
81.824
246.101
500.883
216.351
639.219
162.627
341.442
68.9372
-283.253
-123.089
-1493.53
-398.638
-1211.74
-646.016
1829.91
-951.262
5269.11
8950.36
-52.8739
-532.939
-51.1525
-553.349
-48.2354
-528.586
-44.5738
-598.994
-38.0108
-699.294
-29.6934
-836.259
-21.4381
-990.749
-14.858
-1151.83
-10.7366
-1314.15
-8.5444
-1469.35
-4.46718
-1594.25
3.68788
-1669.35
14.238
-1694.43
24.9225
-1685.68
34.5196
-1656.53
44.0801
-1628.76
55.6634
-1639.52
68.4121
-1666.32
77.9722
-1646.81
76.1544
-1551.27
51.748
-1381.75
1.95533
-1174.3
-67.6428
-895.475
-120.734
-603.218
-111.759
-750.262
-53.4806
-1384.49
14.054
-1998.56
75.4749
-2406.41
121.827
-2419.26
141.834
-2045.08
134.814
-1604.6
108.062
-1268.06
76.3454
-1108.99
51.4298
-1039.7
32.7056
-991.168
11.8524
-919.371
-10.6709
-881.979
-25.0346
-763.558
-38.9853
-537.469
-60.1954
-384.725
-80.5433
-205.224
-97.0976
-45.8254
-111.896
54.8982
-125.819
164.8
-139.591
213.545
-153.626
160.075
-168.132
34.13
-184.945
-98.7828
-204.174
-200.998
-223.791
-287.979
-242.907
-380.828
-261.012
-486.225
-277.347
-609.42
-291.19
-756.432
-301.758
-930.546
-308.199
-1133.1
-309.529
-1362.42
-304.71
-1614.89
-292.947
-1881.49
-273.613
-2149.17
-245.744
-2400.39
-206.809
-2611.27
-152.697
-2757.28
-81.9557
-2798.35
2.92808
-2697.42
93.2022
-2429.6
179.241
-1986.35
246.099
-1372.02
275.996
-591.53
269.603
88.2171
241.942
528.544
202.926
678.235
138.35
406.018
37.2762
-182.179
-154.46
-1301.79
-425.268
-940.929
-675.861
2080.5
-935.452
5528.7
8863.81
-49.0698
-529.581
-50.014
-552.405
-48.4095
-530.191
-45.9716
-601.432
-40.1445
-705.121
-31.8056
-844.598
-22.4618
-1000.09
-13.9807
-1160.31
-8.02439
-1320.11
-4.90656
-1472.47
-1.28104
-1597.88
5.5527
-1676.18
14.831
-1703.71
24.5211
-1695.37
33.6213
-1665.63
43.1684
-1638.3
55.2658
-1651.62
68.8782
-1679.93
79.2419
-1657.18
78.2669
-1550.3
55.003
-1358.48
6.83171
-1126.13
-58.4473
-830.196
-104.422
-557.243
-89.1972
-765.487
-31.0439
-1442.65
31.6061
-2061.21
88.3461
-2463.15
132.028
-2462.94
150.686
-2063.74
141.09
-1595
111.641
-1238.61
77.9007
-1075.25
51.8004
-1013.6
33.0419
-972.409
12.7722
-899.102
-10.4265
-858.781
-25.8494
-748.135
-39.9478
-523.37
-60.977
-363.696
-80.5855
-185.616
-96.3723
-30.0385
-110.512
69.0374
-123.82
178.109
-136.703
226.429
-150.278
173.65
-166.531
50.3835
-186.353
-78.9611
-207.22
-180.131
-227.517
-267.682
-247.617
-360.728
-266.953
-466.889
-284.65
-591.723
-299.964
-741.118
-312.083
-918.426
-320.14
-1125.04
-323.204
-1359.36
-320.423
-1617.67
-311.357
-1890.56
-295.576
-2164.95
-271.542
-2424.42
-235.022
-2647.79
-180.063
-2812.24
-104.764
-2873.65
-12.7706
-2789.41
85.0735
-2527.44
177.906
-2079.19
249.913
-1444.03
282.508
-624.125
274.283
96.4422
238.126
564.701
188.775
727.586
114.839
479.953
6.14703
-73.4867
-190.59
-1105.06
-459.096
-672.424
-707.481
2328.88
-937.826
5759.04
8801.94
-43.7429
-523.414
-47.9193
-548.228
-47.8557
-530.254
-46.7971
-602.49
-41.9688
-709.949
-34.0628
-852.504
-24.1423
-1010.01
-13.995
-1170.46
-5.9062
-1328.2
-1.11994
-1477.26
2.70304
-1601.7
8.39845
-1681.88
16.244
-1711.56
24.7399
-1703.86
33.1712
-1674.06
42.5817
-1647.71
55.1586
-1664.19
69.4794
-1694.25
80.2085
-1667.91
79.7908
-1549.88
58.0643
-1336.76
12.5845
-1080.65
-46.8827
-770.729
-84.6982
-519.427
-63.7309
-786.454
-7.78854
-1498.59
47.9936
-2116.99
98.4037
-2513.56
137.367
-2501.91
154.156
-2080.53
143.546
-1584.39
113.187
-1208.25
78.6049
-1040.66
51.8325
-986.828
33.2227
-953.799
13.8178
-879.697
-9.91789
-835.045
-26.6048
-731.448
-40.9032
-509.072
-61.5365
-343.063
-80.4633
-166.689
-95.8239
-14.6779
-109.559
82.7724
-122.484
191.034
-134.972
238.916
-148.724
187.402
-166.343
68.0018
-187.628
-57.676
-209.361
-158.398
-230.629
-246.415
-251.909
-339.447
-272.492
-446.306
-291.558
-572.657
-308.354
-724.322
-322.05
-904.731
-331.795
-1115.3
-336.796
-1354.36
-336.536
-1617.93
-331.03
-1896.06
-319.895
-2176.08
-300.453
-2443.86
-266.101
-2682.14
-208.963
-2869.37
-127.3
-2955.31
-26.6813
-2890.03
79.3331
-2633.46
177.993
-2177.85
252.694
-1518.73
286.035
-657.466
276.647
105.83
233.936
607.411
174.658
786.864
91.8492
562.762
-25.4602
43.8227
-228.88
-901.637
-496
-405.304
-734.32
2567.21
-916.834
5941.56
8600.63
-36.4144
-514.138
-44.3694
-540.273
-46.1252
-528.499
-46.5991
-602.017
-42.9846
-713.563
-35.8954
-859.593
-25.9539
-1019.95
-14.6311
-1181.78
-4.45371
-1338.37
2.5005
-1484.21
7.20589
-1606.4
12.1594
-1686.83
18.5476
-1717.95
25.6937
-1711.01
33.2716
-1681.64
42.3948
-1656.84
55.3588
-1677.16
70.1468
-1709.04
80.778
-1678.54
80.7205
-1549.82
61.1316
-1317.17
19.5562
-1039.07
-33.1816
-717.991
-62.8348
-489.774
-37.3869
-811.902
14.8044
-1550.78
62.5536
-2164.74
104.906
-2555.91
136.898
-2533.9
150.979
-2094.61
141.074
-1574.49
112.135
-1179.32
78.2792
-1006.81
51.5412
-960.09
33.3076
-935.566
14.9754
-861.365
-9.12006
-810.95
-26.9821
-713.586
-41.5237
-494.53
-62.0847
-322.502
-80.5873
-148.186
-95.516
0.250892
-108.797
96.053
-121.323
203.561
-133.488
251.081
-147.475
201.39
-166.238
86.7642
-188.81
-35.1036
-211.567
-135.642
-233.859
-224.122
-256.209
-317.098
-278.005
-424.51
-298.442
-552.22
-316.731
-706.033
-332.037
-889.424
-343.583
-1103.75
-350.835
-1347.1
-353.764
-1615
-352.875
-1896.95
-347.454
-2181.5
-332.885
-2458.43
-299.607
-2715.42
-238.138
-2930.84
-147.847
-3045.6
-36.8543
-3001.02
78.2034
-2748.51
182.12
-2281.76
256.934
-1593.54
288.37
-688.902
277.497
116.703
229.46
655.449
161.024
855.3
70.5983
653.187
-55.1707
169.592
-267.338
-689.47
-531.505
-141.137
-752.271
2787.97
-893.334
6082.62
8433.26
-26.5307
-501.535
-38.8046
-528
-42.7982
-524.505
-45.0597
-599.755
-42.9194
-715.704
-36.9793
-865.533
-27.5064
-1029.43
-15.5721
-1193.72
-3.58665
-1350.36
5.7771
-1493.58
12.0017
-1612.63
16.7569
-1691.59
21.8011
-1722.99
27.4785
-1716.68
34.0058
-1688.17
42.6619
-1665.49
55.8231
-1690.32
70.7084
-1723.93
80.6997
-1688.53
80.7535
-1549.88
63.8959
-1300.31
27.467
-1002.64
-17.5338
-672.99
-38.8467
-468.462
-10.8551
-839.894
35.8812
-1597.52
74.693
-2203.55
106.796
-2588.01
129.309
-2556.41
139.579
-2104.88
132.215
-1567.12
107.662
-1154.76
76.6397
-975.785
50.8877
-934.338
33.2912
-917.969
16.2002
-844.274
-8.06999
-786.679
-27.1479
-694.508
-41.987
-479.691
-62.3327
-302.156
-80.3682
-130.151
-94.9921
14.8749
-107.922
108.983
-120.109
215.748
-132.136
263.108
-146.642
215.897
-166.477
106.598
-189.939
-11.6413
-213.515
-112.066
-236.809
-200.828
-260.257
-293.65
-283.309
-401.458
-305.15
-530.38
-324.971
-686.212
-341.954
-872.441
-355.473
-1090.23
-365.401
-1337.18
-372.37
-1608.03
-377.267
-1892.06
-378.404
-2180.37
-368.285
-2468.55
-334.111
-2749.59
-265.655
-2999.3
-164.536
-3146.72
-41.7998
-3123.76
82.876
-2873.19
191.691
-2390.58
264.272
-1666.12
290.261
-714.891
276.448
130.515
224.23
707.667
147.889
931.641
51.042
750.034
-82.7011
303.335
-303.492
-468.679
-562.314
117.686
-762.071
2987.73
-863.284
6183.83
8182.46
-13.7117
-485.735
-30.5216
-511.19
-37.2603
-517.766
-41.7046
-595.311
-41.4262
-715.982
-37.0119
-869.947
-28.4632
-1037.98
-16.4881
-1205.69
-3.14495
-1363.7
8.60997
-1505.33
16.8666
-1620.89
22.0492
-1696.77
26.0169
-1726.96
30.1737
-1720.84
35.4517
-1693.44
43.4258
-1673.47
56.5146
-1703.41
71.0807
-1738.49
79.9138
-1697.36
79.8161
-1549.78
66.2781
-1286.77
36.222
-972.589
-0.301176
-636.467
-13.2763
-455.486
15.0711
-868.241
54.6109
-1637.06
83.7301
-2232.67
103.295
-2607.57
113.92
-2567.04
119.352
-2110.31
116.326
-1564.1
99.3154
-1137.75
73.5423
-950.012
49.9184
-910.714
33.2255
-901.276
17.4663
-828.514
-6.71351
-762.5
-26.8912
-674.33
-42.1071
-464.475
-62.3899
-281.873
-80.0961
-112.445
-94.347
29.1258
-106.863
121.499
-118.712
227.597
-130.725
275.121
-145.853
231.024
-166.603
127.349
-190.891
12.6472
-215.397
-87.5601
-239.717
-176.508
-264.249
-269.118
-288.557
-377.149
-311.816
-507.121
-333.194
-664.834
-351.924
-853.711
-367.63
-1074.52
-380.792
-1324.01
-392.824
-1596
-404.687
-1880.19
-412.774
-2172.28
-405.801
-2475.53
-368.017
-2787.37
-289.844
-3077.47
-176.18
-3260.39
-40.9881
-3258.95
93.457
-3007.63
207.16
-2504.28
276.035
-1735
293.004
-731.859
274.065
149.454
218.252
763.479
135.224
1014.67
33.1292
852.129
-106.249
442.712
-332.313
-242.615
-584.011
369.384
-762.819
3166.54
-818.447
6239.46
7892.62
1.97608
-467.555
-18.8138
-490.4
-28.7558
-507.824
-35.9051
-588.161
-38.0514
-713.836
-35.6647
-872.334
-28.5236
-1045.12
-17.0608
-1217.15
-2.90739
-1377.86
10.9976
-1519.24
21.6251
-1631.51
27.8655
-1703.01
31.1555
-1730.25
33.8206
-1723.51
37.6654
-1697.29
44.7106
-1680.51
57.391
-1716.09
71.2427
-1752.34
78.5141
-1704.63
77.9629
-1549.23
68.1381
-1276.95
45.4252
-949.876
17.9386
-608.98
13.4712
-451.019
40.4332
-895.203
70.9635
-1667.59
89.2319
-2250.94
94.1346
-2612.48
90.9693
-2563.87
90.9673
-2110.31
93.8417
-1566.97
87.1436
-1131.05
68.9911
-931.86
48.73
-890.453
33.195
-885.741
18.7631
-814.083
-5.06306
-738.673
-26.2852
-653.108
-41.9595
-448.801
-62.0734
-261.76
-79.4573
-95.0609
-93.3752
43.0438
-105.49
133.613
-117.064
239.172
-129.27
287.326
-145.2
246.954
-166.799
148.948
-191.753
37.6015
-217.124
-62.1894
-242.458
-151.174
-268.097
-243.479
-293.695
-351.551
-318.41
-482.406
-341.388
-641.855
-361.961
-833.138
-380.153
-1056.33
-397.267
-1306.9
-415.543
-1577.72
-435.403
-1860.33
-450.149
-2157.53
-444.118
-2481.56
-399.642
-2831.85
-309.506
-3167.61
-182.469
-3387.42
-34.8562
-3406.56
109.115
-3151.6
227.931
-2623.1
292.832
-1799.9
297.76
-736.787
270.667
176.547
211.339
822.807
122.889
1103.12
16.7022
958.316
-124.973
584.387
-351.186
-16.4013
-594.564
612.762
-754.655
3326.63
-776.703
6261.51
7629.97
20.0452
-448.529
-3.19386
-467.161
-16.5033
-494.515
-26.8918
-577.773
-32.2031
-708.524
-32.532
-872.005
-27.3802
-1050.27
-16.9894
-1227.54
-2.62172
-1392.22
13.0239
-1534.88
26.1665
-1644.66
34.0323
-1710.88
37.1333
-1733.35
38.4262
-1724.8
40.6872
-1699.55
46.5306
-1686.35
58.4255
-1727.98
71.2616
-1765.18
76.7902
-1710.16
75.4922
-1547.93
69.4747
-1270.93
54.71
-935.111
36.57
-590.84
40.485
-454.934
65.3064
-920.025
85.4814
-1687.76
91.1768
-2256.64
79.8258
-2601.13
62.1313
-2546.18
56.9989
-2105.17
66.7847
-1576.76
71.9983
-1136.27
63.2651
-923.127
47.5203
-874.708
33.3588
-871.58
20.1342
-800.858
-3.06922
-715.47
-25.2164
-630.961
-41.4643
-432.553
-61.4159
-241.808
-78.5335
-77.9434
-92.0643
56.5746
-103.763
145.312
-115.174
250.583
-127.793
299.945
-144.601
263.763
-166.905
171.252
-192.458
63.1541
-218.733
-35.9142
-245.107
-124.801
-271.877
-216.709
-298.787
-324.641
-324.981
-456.212
-349.595
-617.241
-372.13
-810.603
-393.198
-1035.27
-415.159
-1284.94
-440.935
-1551.95
-469.464
-1831.8
-489.728
-2137.27
-481.721
-2489.56
-427.654
-2885.92
-324.291
-3270.97
-184.054
-3527.66
-24.6161
-3566
128.485
-3304.71
252.793
-2747.41
314.38
-1861.48
305.285
-727.692
266.901
214.931
203.521
886.187
110.739
1195.9
1.54169
1067.51
-139.628
725.557
-363.003
206.973
-596.962
846.721
-738.364
3468.03
-730.827
6253.97
7328.24
39.943
-430.263
16.1962
-443.414
-0.0398901
-478.279
-13.9008
-563.912
-23.1821
-699.243
-27.1071
-868.08
-24.6815
-1052.69
-15.9748
-1236.25
-2.01269
-1406.18
14.8467
-1551.74
30.4496
-1660.26
40.394
-1720.82
43.8326
-1736.79
43.9597
-1724.93
44.5389
-1700.13
48.8968
-1690.71
59.6115
-1738.7
71.257
-1776.83
75.146
-1714.05
72.8891
-1545.67
70.3861
-1268.43
63.7266
-928.452
55.0188
-582.132
66.7235
-466.639
89.3706
-942.672
98.6042
-1697
90.0187
-2248.05
61.8273
-2572.94
30.6533
-2515
21.8709
-2096.39
38.6457
-1593.53
55.516
-1153.14
56.9137
-924.524
46.5492
-864.344
33.9129
-858.944
21.6509
-788.596
-0.737111
-693.082
-23.7309
-607.967
-40.6535
-415.631
-60.3265
-222.135
-77.1941
-61.0757
-90.3654
69.7458
-101.706
156.652
-113.119
261.996
-126.363
313.189
-144.07
281.469
-166.97
194.152
-193.053
89.2374
-220.208
-8.75864
-247.642
-97.3673
-275.568
-188.782
-303.819
-296.391
-331.525
-428.505
-357.82
-590.946
-382.479
-785.944
-406.94
-1010.8
-434.813
-1257.07
-469.3
-1517.46
-506.59
-1794.51
-530.344
-2113.51
-517.135
-2502.77
-451.335
-2951.72
-334.688
-3387.62
-182.209
-3680.14
-11.7456
-3736.46
150.216
-3466.67
280.508
-2877.7
339.898
-1920.87
315.841
-703.635
263.235
267.537
194.788
954.634
98.6103
1292.08
-12.5859
1178.71
-151.644
864.615
-369.68
425.01
-592.707
1069.75
-715.231
3590.55
-678.62
6217.36
7017.31
61.0827
-413.852
38.4386
-420.77
20.3571
-460.197
3.4713
-547.026
-10.3238
-685.448
-18.8066
-859.597
-20.0153
-1051.49
-13.7078
-1242.56
-0.798066
-1419.09
16.6733
-1569.21
34.4955
-1678.08
46.8248
-1733.15
51.1174
-1741.08
50.36
-1724.17
49.2247
-1698.99
51.8213
-1693.31
60.97
-1747.85
71.369
-1787.23
73.9967
-1716.68
70.7456
-1542.42
71.1203
-1268.8
72.2288
-929.56
72.7972
-582.701
91.1913
-485.033
111.692
-963.172
110.26
-1695.56
86.6052
-2224.4
42.4811
-2528.81
0.892972
-2473.42
-9.13558
-2086.36
13.5026
-1616.17
39.7992
-1179.43
50.6968
-935.422
46.1038
-859.751
35.0618
-847.902
23.41
-776.944
1.93676
-671.609
-21.8174
-584.213
-39.5171
-397.931
-58.8295
-202.823
-75.4758
-44.4294
-88.3296
82.5996
-99.4214
167.744
-111.027
273.602
-125.036
327.198
-143.572
300.005
-166.954
217.534
-193.531
115.815
-221.551
19.2612
-250.066
-68.8521
-279.191
-159.657
-308.813
-266.769
-338.055
-399.263
-366.079
-562.922
-393.076
-758.947
-421.595
-982.285
-456.586
-1222.07
-500.772
-1473.27
-546.145
-1749.14
-570.625
-2089.03
-549.215
-2524.18
-470.712
-3030.22
-341.796
-3516.53
-178.363
-3843.57
2.45454
-3917.28
173.266
-3637.48
310.144
-3014.58
368.344
-1979.07
329.128
-664.42
260.071
336.594
185.211
1029.49
86.3541
1390.94
-25.8894
1290.95
-161.965
1000.69
-372.455
635.5
-582.929
1280.22
-687.102
3694.73
-630.033
6160.29
6731.92
82.9216
-399.849
62.5099
-400.358
43.816
-441.503
24.8604
-528.071
6.70202
-667.29
-7.0702
-845.825
-12.9164
-1045.64
-9.85556
-1245.62
1.3046
-1430.25
18.737
-1586.64
38.3796
-1697.72
53.2344
-1748.01
58.8477
-1746.69
57.5437
-1722.87
54.7313
-1696.18
55.3204
-1693.9
62.5499
-1755.08
71.7262
-1796.4
73.6587
-1718.61
69.6188
-1538.38
72.0175
-1271.2
80.0323
-937.575
89.5241
-592.193
113.303
-508.811
131.396
-981.265
120.194
-1684.36
82.1065
-2186.31
24.6027
-2471.31
-22.8778
-2425.94
-31.7215
-2077.52
-5.43719
-1642.46
26.8108
-1211.68
45.4414
-954.052
46.4432
-860.752
36.973
-838.431
25.5149
-765.486
4.91428
-651.008
-19.5512
-559.748
-38.0869
-379.395
-56.9153
-183.994
-73.3755
-27.9693
-86.0321
95.2562
-97.0457
178.757
-109.02
285.576
-123.839
342.017
-143.083
319.25
-166.867
241.317
-193.918
142.865
-222.768
48.1118
-252.387
-39.2331
-282.747
-129.297
-313.764
-235.753
-344.564
-368.463
-374.38
-533.106
-404.01
-729.317
-437.416
-948.879
-480.792
-1178.7
-535.244
-1418.82
-587.166
-1697.22
-609.202
-2067
-577.346
-2556.04
-486.441
-3121.12
-346.898
-3656.07
-173.671
-4016.8
17.1082
-4108.06
196.975
-3817.35
341.149
-3158.75
398.803
-2036.73
344.543
-610.16
257.545
423.593
174.841
1112.2
73.8199
1491.96
-38.5744
1403.35
-170.942
1133.06
-372.146
836.703
-568.849
1476.93
-654.964
3780.84
-579.444
6084.77
6434.06
104.99
-388.396
87.5762
-382.945
69.3806
-423.308
49.3511
-508.041
27.6346
-645.573
8.44095
-826.631
-2.91722
-1034.28
-4.05361
-1244.48
4.58316
-1438.89
21.2867
-1603.35
42.2263
-1718.66
59.5743
-1765.35
66.8916
-1754.01
65.4137
-1721.39
61.0321
-1691.8
59.4145
-1692.28
64.423
-1760.09
72.4294
-1804.41
74.2875
-1720.47
69.9022
-1534
73.4317
-1274.73
87.038
-951.181
104.938
-610.093
133.03
-536.904
148.326
-996.561
128.517
-1664.55
77.9026
-2135.69
10.7676
-2404.17
-37.9828
-2377.19
-44.1324
-2071.37
-16.7706
-1669.82
17.8993
-1246.35
41.9031
-978.056
47.7751
-866.624
39.7592
-830.415
28.0554
-753.782
8.16505
-631.118
-16.9814
-534.601
-36.3953
-359.981
-54.6291
-165.76
-70.9407
-11.6577
-83.5626
107.878
-94.6996
189.895
-107.177
298.054
-122.765
357.604
-142.577
339.062
-166.709
265.45
-194.223
170.38
-223.86
77.7481
-254.589
-8.50403
-286.234
-97.6524
-318.673
-203.314
-351.05
-336.087
-382.74
-501.416
-415.398
-696.659
-454.684
-909.593
-507.654
-1125.73
-572.323
-1354.15
-628.462
-1641.08
-644.938
-2050.52
-601.509
-2599.47
-499.527
-3223.11
-351.084
-3804.52
-168.835
-4199.05
31.7211
-4308.62
220.924
-4006.55
373.217
-3311.04
430.595
-2094.11
361.353
-540.918
255.582
529.365
163.713
1204.07
60.8601
1594.81
-50.8408
1515.05
-178.815
1261.03
-369.291
1027.18
-551.207
1658.84
-619.855
3849.49
-530.618
5995.53
6165.53
126.912
-379.353
112.941
-368.974
96.222
-406.588
76.0473
-487.867
51.8725
-621.398
27.7205
-802.479
10.3548
-1016.92
4.08459
-1238.21
9.34208
-1444.15
24.5826
-1618.59
46.2031
-1740.28
65.8437
-1784.99
75.1351
-1763.3
73.8662
-1720.12
68.0892
-1686.02
64.1277
-1688.32
66.6743
-1762.63
73.5475
-1811.28
75.8779
-1722.8
71.7452
-1529.86
75.6426
-1278.63
93.2424
-968.781
118.826
-635.676
150.676
-568.754
163.03
-1008.92
135.845
-1637.37
75.3744
-2075.22
2.67297
-2331.47
-43.79
-2330.72
-46.8674
-2068.29
-20.5698
-1696.12
13.779
-1280.7
40.6841
-1004.96
50.2576
-876.198
43.4741
-823.632
31.0989
-741.407
11.6603
-611.679
-14.1611
-508.78
-34.4863
-339.656
-52.0109
-148.236
-68.2044
4.53583
-80.9858
120.66
-92.4535
201.362
-105.519
311.119
-121.78
373.865
-142.031
359.313
-166.483
289.901
-194.447
198.344
-224.817
108.118
-256.656
23.3353
-289.641
-64.6675
-323.534
-169.421
-357.501
-302.12
-391.183
-467.734
-427.388
-660.454
-473.683
-863.298
-537.242
-1062.17
-611.33
-1280.06
-668.783
-1583.63
-677.101
-2042.2
-622.175
-2654.39
-510.993
-3334.29
-355.053
-3960.46
-164.215
-4389.89
45.9416
-4518.77
244.735
-4205.34
406.1
-3472.41
463.28
-2151.29
378.87
-456.507
253.893
654.341
151.807
1306.15
47.3245
1699.29
-62.8861
1625.26
-185.806
1383.95
-364.414
1205.79
-530.921
1825.35
-583.146
3901.71
-483.664
5896.05
5898.45
148.393
-372.428
137.983
-358.564
123.55
-392.155
104.135
-468.452
78.7556
-596.019
50.6022
-774.326
27.1588
-993.473
14.9478
-1226
15.9095
-1445.11
28.8958
-1631.58
50.5125
-1761.9
72.0915
-1806.57
83.4911
-1774.7
82.794
-1719.42
75.8526
-1679.08
69.4849
-1681.95
69.3889
-1762.54
75.122
-1817.01
78.3137
-1725.99
75.0544
-1526.61
78.8138
-1282.39
98.7516
-988.719
130.947
-667.871
166.361
-604.168
176.095
-1018.65
142.931
-1604.2
75.6464
-2007.94
0.905625
-2256.73
-41.2406
-2288.58
-41.4995
-2068.03
-17.5506
-1720.06
14.7236
-1312.97
42.2192
-1032.46
54.014
-887.993
48.1184
-817.736
34.7037
-727.992
15.3791
-592.355
-11.1371
-482.263
-32.3921
-318.401
-49.1189
-131.509
-65.1996
20.6165
-78.3309
133.791
-90.3192
213.35
-104.015
324.816
-120.842
390.691
-141.437
379.908
-166.196
314.661
-194.598
226.746
-225.656
139.176
-258.583
56.2622
-292.952
-30.2982
-328.336
-134.038
-363.907
-266.548
-399.749
-431.892
-440.163
-620.041
-494.667
-808.794
-569.419
-987.419
-651.353
-1198.13
-706.993
-1527.99
-705.441
-2043.76
-640.097
-2719.74
-521.638
-3452.75
-359.163
-4122.93
-160.083
-4588.97
59.2859
-4738.14
267.849
-4413.91
439.389
-3643.95
496.488
-2208.39
396.457
-356.476
252.038
798.76
139.035
1419.16
33.06
1805.27
-74.9009
1733.22
-192.134
1501.19
-358.03
1371.68
-508.851
1976.17
-545.787
3938.65
-437.277
5787.54
5645.46
169.163
-367.213
162.094
-351.495
150.536
-380.597
132.786
-450.702
107.505
-570.739
76.7405
-743.561
47.6934
-964.426
28.9395
-1207.25
24.6394
-1440.81
34.5088
-1641.44
55.3818
-1782.77
78.4132
-1829.6
91.9048
-1788.19
92.0895
-1719.61
84.2581
-1671.25
75.5079
-1673.2
72.6404
-1759.67
77.1703
-1821.54
81.4297
-1730.25
79.563
-1524.74
82.9907
-1285.81
103.759
-1009.49
140.999
-705.111
179.704
-642.873
187.603
-1026.55
150.275
-1566.88
79.3861
-1937.05
5.06212
-2182.41
-32.2563
-2251.26
-30.0136
-2070.28
-8.71345
-1741.36
20.6217
-1342.31
46.7448
-1058.58
59.1314
-900.379
53.645
-812.25
38.899
-713.246
19.2982
-572.754
-7.9416
-455.024
-30.1161
-296.227
-46.0089
-115.616
-61.9525
36.5601
-75.595
147.433
-88.2665
226.022
-102.61
339.16
-119.91
407.991
-140.79
400.788
-165.851
339.722
-194.675
255.57
-226.398
170.899
-260.381
90.2457
-296.156
5.47641
-333.063
-97.1306
-370.262
-229.349
-408.502
-393.652
-453.928
-574.614
-517.814
-744.907
-603.817
-901.417
-691.337
-1110.61
-742.219
-1477.11
-730.137
-2055.84
-656.08
-2793.79
-531.963
-3576.86
-363.613
-4291.28
-156.841
-4795.74
71.0301
-4966.01
289.46
-4632.34
472.393
-3826.88
529.715
-2265.71
413.465
-240.226
249.449
962.776
125.221
1543.38
17.9155
1912.57
-87.0632
1838.2
-198.014
1612.14
-350.64
1524.31
-485.787
2111.31
-508.729
3961.59
-394.762
5673.57
5416.35
189.039
-363.185
184.756
-347.212
176.352
-372.193
161.103
-435.452
137.193
-546.829
105.454
-711.822
71.8756
-930.847
46.3833
-1181.76
35.9052