/*--------------------------------*- C++ -*----------------------------------*\
| =========                 |                                                 |
| \\      /  F ield         | OpenFOAM: The Open Source CFD Toolbox           |
|  \\    /   O peration     | Version:  4.1                                   |
|   \\  /    A nd           | Web:      www.OpenFOAM.org                      |
|    \\/     M anipulation  |                                                 |
\*---------------------------------------------------------------------------*/
FoamFile
{
    version     2.0;
    format      ascii;
    class       volVectorField;
    location    "8";
    object      U;
}
// * * * * * * * * * * * * * * * * * * * * * * * * * * * * * * * * * * * * * //

dimensions      [0 1 -1 0 0 0 0];

internalField   nonuniform List<vector> 
6785
(
(1.18811e-14 -0.830506 16.1296)
(1.05345e-14 -6.75056 12.4941)
(-2.74233e-15 -4.83438 12.896)
(4.38527e-15 -4.36578 12.639)
(8.15777e-16 -3.75886 12.4642)
(-1.88411e-16 -3.30451 12.2315)
(2.36777e-15 -2.93325 11.9672)
(5.49896e-16 -2.6629 11.6575)
(-6.1314e-16 -2.49393 11.2967)
(2.07328e-15 -2.39456 10.9039)
(2.65403e-16 -2.3393 10.5177)
(-3.60484e-16 -2.50598 10.0545)
(7.67446e-16 -2.93034 9.36555)
(-1.73495e-16 -2.2171 8.69712)
(-5.2464e-16 0.889745 7.03105)
(1.78978e-14 -7.76903 26.1329)
(1.61548e-14 -16.562 21.8443)
(-3.19042e-15 -11.5147 22.3191)
(5.78788e-15 -11.8645 20.8501)
(7.96321e-16 -10.7963 19.878)
(8.03258e-16 -10.0645 18.8085)
(2.91788e-15 -9.28473 17.7498)
(2.13825e-16 -8.53333 16.6736)
(1.06513e-16 -7.82638 15.6084)
(1.72933e-15 -7.20821 14.6798)
(1.2597e-16 -6.71367 14.0098)
(3.77265e-16 -6.44965 13.2533)
(1.54808e-15 -6.4147 11.5823)
(-2.84239e-16 -5.82034 8.86109)
(-2.07812e-17 -3.31892 5.2275)
(1.89042e-14 -10.7264 28.1232)
(1.41361e-14 -17.4886 24.493)
(-1.70393e-15 -11.87 24.9362)
(5.24425e-15 -12.6962 22.7625)
(7.89991e-16 -11.0512 21.6603)
(1.55618e-15 -10.2371 20.2191)
(1.70992e-15 -9.25851 18.8846)
(1.53085e-16 -8.38599 17.5819)
(5.36379e-16 -7.55293 16.3338)
(4.43487e-16 -6.58814 14.8432)
(1.00613e-17 -5.01573 12.1917)
(-4.2264e-16 -2.46225 7.41573)
(-2.80725e-15 0.379603 1.82376)
(-4.0812e-15 1.41083 -0.705437)
(-2.61612e-15 -0.0959803 0.177785)
(2.00766e-14 -11.8379 27.8122)
(1.21448e-14 -17.5638 24.574)
(-8.98099e-16 -12.009 24.9559)
(5.4583e-15 -13.6511 22.2119)
(1.25038e-16 -11.5439 21.2695)
(2.30353e-15 -11.1308 19.5444)
(1.78165e-15 -10.1378 18.181)
(-5.74461e-16 -9.42168 16.7897)
(1.24052e-15 -8.71672 15.5325)
(7.61764e-16 -7.94384 14.1156)
(-3.69049e-16 -6.56495 11.6947)
(4.22688e-16 -3.86673 7.13466)
(-8.78965e-16 0.293349 0.767656)
(-9.42077e-15 4.70718 -3.94275)
(-5.26788e-15 1.97067 -4.67745)
(1.98556e-14 -12.0139 26.6)
(1.24789e-14 -17.7057 25.3099)
(-7.50505e-16 -12.4333 24.8484)
(4.4615e-15 -14.0465 21.9399)
(-2.26504e-16 -11.9425 21.0046)
(1.56539e-15 -11.6105 19.1765)
(1.55145e-15 -10.673 17.7307)
(-8.9803e-16 -9.94562 16.2457)
(-1.42945e-18 -9.24436 14.8522)
(2.39313e-16 -8.54199 13.4429)
(-9.26114e-16 -7.63278 11.6755)
(-1.03556e-15 -6.03402 9.01311)
(-1.18187e-15 -3.70448 5.24549)
(-4.46268e-15 -0.656012 1.80762)
(-2.45657e-16 0.732594 -3.02091)
(2.03424e-14 -11.7616 24.8409)
(1.39909e-14 -17.439 25.6884)
(1.83389e-16 -12.6338 24.5026)
(3.66641e-15 -13.7343 21.5374)
(5.1249e-16 -11.7871 20.5372)
(1.50866e-15 -11.3639 18.7177)
(1.82113e-15 -10.4291 17.2291)
(-9.87364e-17 -9.62041 15.7016)
(-7.4748e-17 -8.83942 14.214)
(2.90503e-16 -8.06447 12.7674)
(-4.52934e-16 -7.26967 11.2512)
(-5.18604e-16 -6.21707 9.49259)
(-1.55739e-15 -4.80256 7.02646)
(-1.97562e-15 -2.44401 3.87583)
(1.46642e-14 -0.323705 -1.8582)
(2.23438e-14 -11.4187 23.2955)
(1.58778e-14 -16.8849 25.4886)
(2.45426e-15 -12.667 24.0268)
(3.35188e-15 -13.3019 21.0416)
(1.28949e-15 -11.5539 19.9655)
(3.05106e-15 -11.0645 18.2137)
(2.46167e-15 -10.1715 16.7231)
(1.09655e-15 -9.3599 15.2347)
(2.97608e-15 -8.59985 13.7985)
(9.46331e-16 -7.84119 12.439)
(5.3685e-17 -7.09999 11.0814)
(2.79276e-15 -6.257 9.68357)
(9.57071e-16 -5.28611 7.93251)
(-3.05e-15 -3.56919 5.57935)
(1.32763e-14 -1.33028 0.310761)
(2.25286e-14 -11.2353 22.4785)
(1.62532e-14 -16.2209 24.777)
(2.85651e-15 -12.4311 23.4929)
(3.15327e-15 -12.9877 20.4777)
(1.59899e-15 -11.2168 19.4484)
(2.8734e-15 -10.8213 17.6775)
(2.47697e-15 -9.92785 16.2769)
(1.99607e-15 -9.25046 14.9141)
(3.02813e-15 -8.61508 13.625)
(1.87947e-15 -7.97601 12.3729)
(8.32093e-16 -7.34359 11.143)
(2.71899e-15 -6.68397 10.0106)
(2.91533e-15 -5.99966 8.86591)
(-1.39536e-15 -4.81239 7.41029)
(4.16e-15 -2.73967 3.19882)
(2.25753e-14 -11.4872 22.3833)
(1.49713e-14 -15.4254 23.9051)
(8.65614e-16 -12.0224 22.9026)
(3.59921e-15 -12.6643 19.9172)
(1.73938e-15 -10.6286 18.9939)
(2.02965e-16 -10.4256 17.0324)
(2.59645e-15 -9.29286 15.6697)
(2.081e-15 -8.69764 14.0927)
(-9.80752e-17 -8.06716 12.7242)
(1.78278e-15 -7.63604 11.5703)
(1.74022e-15 -7.35093 10.8139)
(-5.59763e-16 -7.16274 10.4336)
(2.98302e-15 -6.9356 10.2758)
(2.02664e-16 -6.34045 9.70893)
(-3.43724e-15 -4.44851 6.58792)
(2.11591e-14 -12.2457 23.1649)
(1.19776e-14 -14.8855 23.6697)
(-3.99998e-16 -11.9199 22.678)
(1.82311e-15 -12.263 20.1063)
(1.3019e-15 -10.2598 19.0399)
(-1.85769e-16 -9.75159 16.9252)
(-3.13409e-16 -8.1195 14.9245)
(-1.08698e-16 -6.9218 12.3466)
(-4.00789e-15 -5.89213 10.4357)
(-3.08714e-15 -5.65252 9.55033)
(-1.45024e-15 -5.98107 9.7725)
(-3.57656e-15 -6.76819 10.7676)
(-8.2919e-16 -7.50636 11.9474)
(1.21919e-15 -7.77918 12.2579)
(-4.04779e-15 -5.75989 9.69347)
(1.84407e-14 -12.7681 23.8192)
(1.1933e-14 -15.7263 25.3454)
(-3.85025e-15 -12.3484 23.4806)
(1.89447e-15 -12.5539 21.3341)
(1.0814e-15 -10.6054 20.2234)
(-3.60293e-15 -9.85736 18.049)
(-7.31327e-16 -7.83267 15.6036)
(-2.02757e-15 -6.01788 12.3909)
(-7.31183e-15 -4.28278 9.87627)
(-4.95294e-15 -3.31461 8.26493)
(-8.18588e-15 -2.97693 7.61558)
(-1.26097e-14 -3.65471 8.24605)
(-8.69752e-15 -5.31001 10.2171)
(-7.5279e-15 -6.84829 12.0366)
(-5.2241e-15 -5.29669 10.0972)
(1.68866e-14 -12.1249 22.3712)
(1.49942e-14 -17.2366 27.7951)
(-3.28466e-15 -13.6958 25.1805)
(1.63106e-15 -13.4599 22.6651)
(1.82039e-15 -11.571 21.5893)
(-4.08987e-15 -10.9825 19.5598)
(-3.65788e-16 -9.03865 17.364)
(-1.19371e-15 -7.24949 14.2374)
(-6.05799e-15 -5.17568 11.4256)
(-4.85362e-15 -3.55278 8.9803)
(-9.24214e-15 -2.12241 6.78507)
(-1.36048e-14 -1.06239 4.94054)
(-1.21204e-14 -0.936478 4.42946)
(-1.10957e-14 -2.26719 5.97503)
(-4.16735e-15 -2.82721 6.6135)
(1.3147e-14 -10.3713 18.6754)
(1.67166e-14 -17.7202 28.4812)
(3.05262e-15 -15.8808 27.2117)
(1.0259e-15 -14.8802 24.2244)
(1.7233e-15 -13.2974 22.5659)
(-1.43425e-15 -12.6517 20.7241)
(-1.20316e-15 -11.3545 18.9203)
(7.14546e-16 -10.0181 16.5888)
(-2.83253e-15 -8.32574 14.1186)
(-3.26004e-15 -6.57574 11.568)
(-4.53228e-15 -4.67495 8.87991)
(-9.62419e-15 -2.56255 5.86761)
(-9.88362e-15 -0.256521 2.72402)
(-7.29275e-15 1.244 0.351287)
(-5.7291e-15 -0.0282941 1.14833)
(8.9805e-15 -7.40671 12.2006)
(1.69814e-14 -16.0596 25.6921)
(6.61767e-15 -16.2595 26.7645)
(3.16907e-16 -14.6549 23.5121)
(5.52832e-16 -12.9488 21.2535)
(-1.31942e-16 -12.1966 19.6904)
(-4.32717e-16 -11.4169 18.4043)
(1.06445e-15 -10.5964 16.8645)
(3.00394e-16 -9.61268 15.1504)
(-5.48493e-16 -8.54691 13.3577)
(-1.49428e-15 -7.39279 11.4481)
(-2.79092e-15 -5.96723 9.26078)
(-3.15453e-15 -4.23319 6.64121)
(-4.30599e-15 -1.97907 3.68588)
(-3.94451e-15 -0.608119 0.686086)
(4.13653e-15 -5.46578 9.79379)
(1.60466e-14 -15.5006 24.6)
(1.40067e-14 -18.8856 28.6661)
(7.17344e-15 -18.9294 27.041)
(2.21433e-15 -17.4805 23.9244)
(5.90596e-16 -15.9412 20.9665)
(-5.43467e-16 -14.5115 18.4942)
(-9.51573e-16 -13.1993 16.4274)
(2.84262e-16 -11.8136 14.4144)
(5.66015e-16 -10.2551 12.3115)
(-1.24429e-15 -8.78183 10.3833)
(-1.83017e-15 -7.54128 8.93077)
(-1.96572e-15 -6.20392 7.49003)
(-2.96479e-15 -4.43178 5.51859)
(-1.99699e-15 -1.38452 1.52108)
(-7.35637e-16 -0.0111259 -0.031683)
(-5.19174e-15 0.0807506 -0.526003)
(-4.22594e-15 0.105433 -0.528955)
(-3.02595e-15 0.155733 -0.478602)
(-1.97142e-15 0.158144 -0.315909)
(-4.20201e-15 0.2427 -0.426342)
(-2.989e-15 0.242382 -0.24912)
(-2.45221e-15 0.274759 -0.24421)
(-2.14569e-15 0.27148 -0.209067)
(2.21427e-16 0.343411 -0.324267)
(1.01018e-15 0.341846 -0.240356)
(1.05141e-15 0.360646 -0.204234)
(-7.66021e-16 0.433906 -0.297805)
(-6.78411e-16 0.401504 -0.200576)
(-6.8679e-16 0.447119 -0.194968)
(-4.62602e-16 0.427323 -0.171236)
(-2.11081e-15 0.523566 -0.251575)
(-1.59296e-15 0.480152 -0.182236)
(-1.14823e-15 0.501302 -0.158783)
(-2.41604e-15 0.589587 -0.224168)
(-1.42261e-15 0.514599 -0.158378)
(-1.14142e-15 0.574929 -0.152555)
(-6.55295e-16 0.536447 -0.130675)
(-1.49785e-15 0.677335 -0.176152)
(-6.0961e-16 0.559921 -0.119265)
(-3.61826e-17 0.61627 -0.104808)
(-5.79315e-16 0.580087 -0.0807447)
(-1.51321e-15 0.692394 -0.101295)
(-8.40735e-16 0.600416 -0.0563288)
(-6.01969e-16 0.618497 -0.0355756)
(-1.16675e-15 0.708262 -0.0310553)
(-4.80321e-16 0.594278 -0.00486768)
(-5.42583e-16 0.649277 0.0165772)
(-6.69087e-16 0.600856 0.0337127)
(-1.65721e-15 0.711401 0.0632172)
(-1.59196e-15 0.598411 0.0717139)
(-1.63115e-15 0.606674 0.0802712)
(-2.75765e-15 0.6915 0.121258)
(-1.95002e-15 0.561961 0.105179)
(-1.84433e-15 0.608292 0.121025)
(-1.55835e-15 0.553364 0.123782)
(-2.14948e-15 0.675799 0.167271)
(-1.07522e-15 0.525809 0.140734)
(-7.84366e-16 0.560885 0.147316)
(-6.46378e-16 0.514751 0.138777)
(-9.1817e-16 0.609801 0.162047)
(-5.69031e-16 0.503575 0.146014)
(-6.08968e-16 0.490812 0.145207)
(-1.33959e-15 0.623207 0.0977784)
(-1.39195e-15 0.518246 0.0975834)
(-1.15634e-15 0.555356 0.0910805)
(-8.17473e-16 0.50157 0.12086)
(-1.01819e-15 0.654898 -0.0512308)
(-2.35469e-16 0.547265 -0.0814716)
(-7.38407e-17 0.583658 -0.123986)
(1.17259e-15 0.557009 -0.106987)
(1.63104e-15 0.654018 -0.403677)
(1.88115e-15 0.438021 -0.384922)
(1.63229e-15 0.49134 -0.278151)
(3.31255e-15 0.444565 -1.38794)
(3.6449e-15 0.130168 -1.33388)
(3.51892e-15 0.27527 -1.11255)
(2.97062e-15 0.291704 -0.875954)
(-3.7592e-16 0.537072 -2.39687)
(-1.08946e-14 -0.356814 -0.308777)
(-1.00076e-14 -0.0127208 -0.5253)
(-1.24987e-14 -0.531462 1.02717)
(-8.26701e-15 -1.13221 2.52796)
(-6.71446e-15 -1.27048 2.56322)
(-5.32138e-15 -1.24297 2.78987)
(-5.04997e-15 -2.25562 5.2143)
(-2.94078e-15 -2.83834 5.03383)
(-2.62414e-15 -3.19821 5.09732)
(-2.35978e-15 -3.16744 5.27943)
(-2.77189e-15 -5.15135 8.56402)
(-1.76909e-15 -5.29691 7.20108)
(-2.01693e-15 -5.34762 7.69876)
(-2.57966e-15 -7.91771 11.625)
(-1.95578e-15 -7.69078 9.22734)
(-2.15448e-15 -8.01612 9.97559)
(-2.57643e-15 -8.75654 11.6271)
(-2.25834e-15 -8.6427 11.4654)
(-2.1203e-15 -8.78059 11.7684)
(-1.07007e-15 -10.448 14.5741)
(-1.36654e-15 -9.60954 12.9863)
(-1.09289e-15 -9.87189 13.5589)
(-9.88452e-16 -9.87181 13.6457)
(-7.9235e-16 -9.96213 13.6987)
(-6.48283e-16 -10.0412 13.7504)
(-5.43361e-16 -10.1256 13.8217)
(-4.34906e-16 -10.1991 14.0044)
(-3.08361e-16 -10.2896 14.2858)
(5.22926e-16 -11.1668 16.0958)
(-1.70478e-17 -10.8303 14.9625)
(1.99756e-17 -10.9796 15.1918)
(-1.38415e-17 -10.9684 15.3222)
(2.11515e-17 -11.1154 15.6369)
(1.0882e-16 -11.1224 15.719)
(1.45454e-16 -11.2125 15.836)
(1.92886e-16 -11.2707 15.9542)
(2.54573e-16 -11.3462 16.0954)
(1.3651e-15 -12.0136 17.6929)
(9.80296e-16 -11.6437 16.6128)
(1.07946e-15 -11.7724 16.8347)
(1.15561e-15 -11.8029 16.9362)
(1.32191e-15 -11.8672 17.1235)
(1.61889e-15 -11.9106 17.4001)
(1.94127e-15 -12.0063 17.7131)
(2.05244e-15 -12.0165 17.8243)
(2.2918e-15 -12.0934 18.0018)
(2.523e-15 -12.1907 18.17)
(3.47061e-15 -12.2082 19.1134)
(2.82144e-15 -12.0949 18.4134)
(3.04129e-15 -12.1609 18.6204)
(3.11229e-15 -12.1833 18.7324)
(3.14668e-15 -12.2461 18.8889)
(3.08684e-15 -12.2551 19.0474)
(2.90556e-15 -12.3211 19.3469)
(2.93043e-15 -12.3365 19.4452)
(3.02941e-15 -12.4493 19.4667)
(4.01149e-15 -11.6054 18.9501)
(3.16114e-15 -11.8206 18.7189)
(3.34537e-15 -11.8131 18.9022)
(3.50303e-15 -11.852 19.0822)
(3.66665e-15 -11.8185 19.0731)
(3.85193e-15 -11.8465 19.1308)
(4.06663e-15 -11.835 19.1764)
(4.28773e-15 -11.8136 19.2701)
(4.62868e-15 -11.9903 19.5853)
(5.54134e-15 -9.96451 17.3852)
(5.14425e-15 -10.768 18.2038)
(5.28158e-15 -10.6509 18.0858)
(5.30344e-15 -10.6283 18.0748)
(5.4712e-15 -10.6164 18.235)
(5.47651e-15 -10.5469 18.0809)
(5.4199e-15 -10.4472 17.7913)
(5.37845e-15 -10.4054 17.4639)
(5.38144e-15 -10.4003 17.0313)
(5.90406e-15 -7.56912 13.2484)
(6.13555e-15 -8.76346 15.4446)
(6.1129e-15 -8.43774 14.7104)
(6.23913e-15 -8.43859 14.3731)
(6.42927e-15 -8.27838 13.9358)
(6.75364e-15 -8.17735 13.5817)
(7.77615e-15 -8.01534 13.3894)
(7.24476e-15 -7.82724 12.7912)
(7.21065e-15 -7.68064 12.2561)
(6.91317e-15 -7.47962 11.5216)
(4.66481e-15 -3.81288 5.62701)
(6.31014e-15 -5.734 9.39459)
(5.81786e-15 -5.13231 8.0361)
(5.381e-15 -5.23199 7.47421)
(4.80641e-15 -4.88033 6.44668)
(4.06655e-15 -4.81706 5.22743)
(2.74891e-15 -4.61246 3.12675)
(1.55098e-15 -4.18089 1.14784)
(1.77781e-15 -4.15914 1.08523)
(1.00484e-15 -3.28099 -1.70429)
(1.66727e-15 -3.57381 0.320742)
(1.46075e-15 -3.41349 -0.537286)
(4.39371e-16 -2.35196 -2.39358)
(1.44417e-15 -3.86332 -1.82553)
(6.3313e-16 -2.78819 -1.67269)
(4.69274e-16 -2.51016 -1.14469)
(5.35529e-16 -3.0743 -1.60894)
(5.55035e-16 -2.01765 -1.00514)
(1.18529e-15 -2.62745 -1.51169)
(8.59341e-16 -2.23592 -1.10898)
(8.47024e-16 -1.76704 -0.828284)
(1.26001e-15 -2.15874 -1.21422)
(8.94406e-16 -1.85829 -0.905585)
(6.03952e-16 -1.5552 -0.667135)
(8.49448e-16 -2.04568 -0.929444)
(5.36903e-16 -1.28881 -0.592138)
(1.36271e-15 -1.74419 -0.90026)
(1.1078e-15 -1.43094 -0.676178)
(5.86491e-16 -1.22102 -0.4994)
(9.43628e-16 -1.64023 -0.704033)
(1.11154e-15 -1.00018 -0.452035)
(1.65488e-15 -1.41603 -0.696355)
(1.25994e-15 -1.21284 -0.5409)
(9.42835e-16 -0.934898 -0.402517)
(1.60232e-15 -1.20324 -0.611701)
(9.24007e-16 -1.04248 -0.477499)
(1.11172e-15 -0.859737 -0.348853)
(1.49586e-15 -1.21978 -0.498776)
(8.30612e-16 -0.719818 -0.324788)
(1.37732e-15 -1.04291 -0.503223)
(1.91129e-15 -0.860286 -0.397863)
(1.35225e-15 -0.730432 -0.291414)
(2.00434e-15 -1.06011 -0.415509)
(1.27127e-15 -0.606374 -0.271773)
(2.02059e-15 -0.917834 -0.416737)
(1.56485e-15 -0.841308 -0.336447)
(1.63915e-15 -0.635003 -0.247785)
(2.41673e-15 -0.841844 -0.365505)
(1.98898e-15 -0.808807 -0.288833)
(1.98477e-15 -0.674091 -0.213602)
(2.7507e-15 -1.02066 -0.284003)
(1.92679e-15 -0.622721 -0.190764)
(3.08443e-15 -0.915026 -0.263487)
(2.46445e-15 -0.894792 -0.213985)
(1.45138e-15 -0.781202 -0.161823)
(2.24288e-15 -1.18588 -0.200199)
(1.85347e-15 -0.743651 -0.13653)
(2.8737e-15 -1.1243 -0.165743)
(2.57109e-15 -1.2526 -0.136521)
(2.44221e-15 -0.963676 -0.0980053)
(3.71349e-15 -1.31438 -0.0970205)
(3.32097e-15 -1.45371 -0.0568687)
(2.68446e-15 -1.27753 -0.0262816)
(3.88042e-15 -1.92787 0.0137449)
(2.61293e-15 -1.32853 0.0338604)
(4.27729e-15 -1.91633 0.131997)
(4.17782e-15 -2.07741 0.172822)
(3.59565e-15 -1.88172 0.182703)
(5.10526e-15 -2.79665 0.32505)
(4.01785e-15 -1.9617 0.29882)
(6.43554e-15 -2.92217 0.562997)
(6.04614e-15 -3.29041 0.602221)
(5.11576e-15 -2.66613 0.572786)
(7.97476e-15 -3.68205 0.979759)
(7.58366e-15 -4.01208 1.0409)
(6.23861e-15 -3.6641 0.966845)
(9.10415e-15 -5.38242 1.47212)
(6.96498e-15 -3.93434 1.24509)
(1.10747e-14 -5.63967 2.0699)
(1.03642e-14 -5.93228 2.07058)
(8.70827e-15 -5.49487 1.8627)
(1.2582e-14 -7.96684 2.75261)
(9.69028e-15 -5.84509 2.26861)
(1.52559e-14 -8.58873 3.65593)
(1.42127e-14 -9.13834 3.51697)
(1.20826e-14 -7.66772 3.10814)
(1.85244e-14 -10.5187 4.83571)
(1.70017e-14 -10.901 4.61856)
(1.42207e-14 -10.0061 4.04086)
(2.03166e-14 -14.4144 5.83254)
(1.56749e-14 -10.9261 4.67071)
(2.4934e-14 -14.9144 7.58076)
(-2.1585e-37 0.70589 0.409947)
(-1.25366e-36 0.722211 0.361819)
(-4.0873e-36 0.688524 0.325724)
(-1.18665e-35 0.78037 0.291713)
(-2.82749e-35 0.906211 0.252216)
(-5.5135e-35 1.08603 0.204481)
(-8.69168e-35 1.29552 0.169192)
(-1.11163e-34 1.51751 0.141669)
(-1.10151e-34 1.74089 0.129071)
(-8.51262e-35 1.95073 0.111156)
(-4.75615e-35 2.10649 0.0875012)
(-1.54521e-35 2.19037 0.0207265)
(-3.04477e-36 2.216 -0.0574393)
(-3.9531e-37 2.20478 -0.14569)
(-2.51236e-38 2.17179 -0.219745)
(5.15676e-39 2.13649 -0.281537)
(-9.28897e-40 2.14428 -0.343348)
(2.50253e-37 2.17701 -0.423153)
(-3.52085e-36 2.16435 -0.488057)
(2.16003e-35 2.0801 -0.514047)
(-5.68125e-35 1.93882 -0.431082)
(-5.19558e-33 1.75881 -0.172343)
(-1.61758e-31 1.47171 0.246391)
(1.48818e-30 1.02934 0.83351)
(1.17895e-29 0.989344 1.0931)
(3.56103e-29 1.63318 0.871124)
(1.51882e-29 2.39824 0.412978)
(-5.73439e-28 2.96266 -0.0648309)
(-4.02607e-27 3.04557 -0.476673)
(-2.93868e-27 2.64451 -0.707697)
(-2.3778e-27 2.15212 -0.803337)
(8.62818e-27 1.77995 -0.736464)
(-1.30437e-25 1.58989 -0.560094)
(2.44334e-24 1.47632 -0.398511)
(-5.75087e-23 1.3932 -0.269434)
(1.56347e-21 1.3071 -0.149727)
(-6.44497e-20 1.25958 0.0144279)
(-1.10297e-18 1.07009 0.124767)
(-2.17819e-18 0.77284 0.182725)
(-2.16978e-18 0.602261 0.334755)
(-2.0939e-18 0.360732 0.520857)
(-1.64447e-18 0.130775 0.652136)
(-8.94169e-19 -0.0129527 0.759191)
(-4.05624e-19 -0.163674 0.851089)
(-1.12078e-19 -0.22508 0.950567)
(4.68555e-20 -0.148235 1.07989)
(-3.27933e-18 0.0165573 1.22178)
(-1.43812e-17 0.188488 1.31764)
(-3.24428e-17 0.329341 1.37763)
(-5.34005e-17 0.451759 1.45651)
(-7.27876e-17 0.576105 1.552)
(-9.85266e-17 0.712574 1.64729)
(-1.4678e-16 0.869526 1.73393)
(-2.2579e-16 1.05553 1.80662)
(-3.81293e-16 1.27486 1.86021)
(-6.88801e-16 1.52907 1.88993)
(-8.34675e-16 1.81538 1.89028)
(-9.04878e-16 2.12846 1.8545)
(-8.52945e-16 2.45667 1.77488)
(-6.03091e-16 2.78315 1.64428)
(-1.54827e-16 3.08457 1.45637)
(5.00195e-16 3.32596 1.20825)
(1.05093e-15 3.47022 0.892322)
(1.09154e-15 3.47162 0.497752)
(5.93826e-16 3.29222 0.0370736)
(-3.17535e-16 2.9189 -0.47064)
(-1.26285e-15 2.3457 -0.958399)
(-1.33795e-15 1.5956 -1.38485)
(-7.95707e-16 0.680324 -1.64315)
(-3.82782e-16 -0.111692 -1.71012)
(-1.2765e-16 -0.632582 -1.70555)
(-3.17784e-16 -0.785689 -1.60608)
(-3.97775e-16 -0.328197 -1.39295)
(-1.7021e-16 0.61456 -0.997916)
(1.23279e-16 2.4804 -0.259587)
(2.0869e-15 2.30831 1.62068)
(4.41742e-15 -1.83364 3.48455)
(8.23739e-15 -6.26517 4.77668)
(1.77852e-14 -11.6339 7.78956)
(-2.75114e-37 0.713324 0.380955)
(-1.82797e-36 0.735921 0.361045)
(-6.28523e-36 0.700852 0.328474)
(-1.90155e-35 0.793356 0.303776)
(-4.6758e-35 0.921354 0.263729)
(-9.35445e-35 1.10033 0.208869)
(-1.51197e-34 1.30628 0.159364)
(-1.9844e-34 1.52422 0.119164)
(-2.00771e-34 1.74544 0.0977826)
(-1.5682e-34 1.95632 0.0835842)
(-8.85136e-35 2.11929 0.0731034)
(-2.92843e-35 2.21132 0.0183566)
(-5.83644e-36 2.23979 -0.0529806)
(-7.61836e-37 2.22747 -0.136459)
(-5.07565e-38 2.19021 -0.206428)
(8.81278e-39 2.15302 -0.269243)
(5.86396e-39 2.16374 -0.333073)
(2.43857e-37 2.19714 -0.417984)
(-4.595e-36 2.17626 -0.492972)
(2.89588e-35 2.06913 -0.533393)
(-6.34282e-35 1.88381 -0.457876)
(-3.95135e-33 1.65266 -0.198331)
(-2.43305e-31 1.31562 0.216291)
(1.05569e-30 0.896467 0.782839)
(1.24327e-29 0.981856 1.026)
(4.96821e-29 1.73732 0.747763)
(6.69068e-29 2.54053 0.25659)
(-8.04791e-28 3.09728 -0.212493)
(-6.67248e-27 3.1426 -0.618767)
(-4.99382e-27 2.6926 -0.844607)
(-3.34494e-27 2.15391 -0.902004)
(5.04534e-27 1.74011 -0.797336)
(-5.41839e-26 1.53624 -0.585975)
(1.32147e-24 1.43045 -0.404495)
(-4.34625e-23 1.35365 -0.272632)
(1.29988e-21 1.2616 -0.157447)
(-4.96187e-20 1.21484 0.0100579)
(-1.0737e-18 1.04144 0.132349)
(-2.25934e-18 0.736767 0.182947)
(-2.22665e-18 0.544502 0.312456)
(-2.10607e-18 0.303435 0.480985)
(-1.78958e-18 0.0843777 0.609847)
(-1.03207e-18 -0.0512917 0.717227)
(-4.50861e-19 -0.197817 0.81484)
(-2.63293e-19 -0.263748 0.90877)
(-8.19732e-20 -0.19504 1.01471)
(-1.40249e-18 -0.0306114 1.11708)
(-7.9999e-18 0.15196 1.1958)
(-2.43752e-17 0.297812 1.28302)
(-4.91715e-17 0.416798 1.39912)
(-7.21757e-17 0.540055 1.52212)
(-9.7311e-17 0.679333 1.64134)
(-1.39296e-16 0.84103 1.75)
(-2.04967e-16 1.03313 1.84382)
(-3.41707e-16 1.25986 1.91789)
(-6.24424e-16 1.52284 1.96724)
(-7.86681e-16 1.8196 1.98604)
(-8.53233e-16 2.14522 1.96709)
(-7.37858e-16 2.48816 1.90255)
(-3.53394e-16 2.83142 1.78631)
(2.8533e-16 3.15107 1.61261)
(1.14723e-15 3.4125 1.37721)
(1.67899e-15 3.57992 1.065)
(1.296e-15 3.60478 0.656566)
(1.73328e-16 3.44453 0.16061)
(-1.42993e-15 3.07805 -0.403199)
(-2.90355e-15 2.49499 -0.958483)
(-3.00003e-15 1.71223 -1.45975)
(-1.84457e-15 0.740822 -1.76996)
(-9.84832e-16 -0.0982723 -1.81986)
(-4.17059e-16 -0.654192 -1.7178)
(-3.59045e-16 -0.838826 -1.56402)
(-3.76643e-16 -0.437778 -1.32253)
(-1.19691e-16 0.3769 -0.842861)
(1.65252e-16 2.03844 -0.092339)
(2.47825e-15 1.73114 1.74948)
(4.78432e-15 -2.28428 3.56829)
(9.11125e-15 -6.83312 5.06121)
(1.83289e-14 -12.0758 7.48145)
(-3.16092e-37 0.711239 0.347755)
(-2.47147e-36 0.736343 0.355043)
(-9.03332e-36 0.702416 0.328324)
(-2.80929e-35 0.796092 0.314674)
(-7.04356e-35 0.928011 0.280007)
(-1.43026e-34 1.10942 0.226722)
(-2.35236e-34 1.31521 0.169254)
(-3.15423e-34 1.53092 0.11653)
(-3.26046e-34 1.74899 0.0815765)
(-2.58175e-34 1.95732 0.0615362)
(-1.48112e-34 2.12273 0.0522019)
(-5.06788e-35 2.22015 0.00711031)
(-1.04414e-35 2.25187 -0.0564083)
(-1.39465e-36 2.24007 -0.133432)
(-9.70079e-38 2.20202 -0.198871)
(1.41946e-38 2.16498 -0.261319)
(1.05321e-38 2.1777 -0.326425)
(1.95944e-37 2.21257 -0.415669)
(-5.29523e-36 2.18919 -0.496564)
(3.58869e-35 2.07041 -0.542888)
(-8.22166e-35 1.86135 -0.472867)
(-2.83737e-33 1.60426 -0.217263)
(-3.26971e-31 1.24835 0.189132)
(6.43062e-31 0.846627 0.713257)
(1.26536e-29 0.994064 0.901121)
(6.23206e-29 1.80323 0.587941)
(1.51807e-28 2.61533 0.123375)
(-1.12487e-27 3.1632 -0.311314)
(-1.04321e-26 3.19093 -0.694867)
(-7.91571e-27 2.71124 -0.928163)
(-4.76934e-27 2.14477 -0.963196)
(5.53053e-27 1.71117 -0.834769)
(-5.66783e-26 1.50285 -0.606653)
(1.34344e-24 1.40567 -0.411015)
(-3.93739e-23 1.33655 -0.274685)
(1.06994e-21 1.2425 -0.161351)
(-3.84074e-20 1.1941 0.00326256)
(-1.04547e-18 1.03052 0.139108)
(-2.23216e-18 0.730507 0.194721)
(-2.32116e-18 0.534156 0.325002)
(-2.1039e-18 0.294626 0.477516)
(-1.83398e-18 0.078376 0.596546)
(-1.08696e-18 -0.0589811 0.698037)
(-4.79903e-19 -0.207551 0.7939)
(-3.60799e-19 -0.272646 0.883708)
(-9.58679e-20 -0.199184 0.977568)
(-5.79705e-19 -0.0266317 1.07079)
(-7.4992e-18 0.153412 1.17088)
(-2.74413e-17 0.287593 1.29505)
(-5.43332e-17 0.401473 1.42723)
(-7.65541e-17 0.524417 1.55664)
(-1.04036e-16 0.663628 1.68212)
(-1.48842e-16 0.82595 1.79804)
(-2.14027e-16 1.01954 1.89992)
(-3.49448e-16 1.24877 1.98262)
(-6.36755e-16 1.51537 2.04082)
(-7.97082e-16 1.81704 2.0685)
(-8.16598e-16 2.14892 2.05855)
(-5.81702e-16 2.49916 2.00422)
(-1.46831e-17 2.85043 1.90174)
(8.66471e-16 3.17894 1.74633)
(1.8476e-15 3.45148 1.53023)
(2.14247e-15 3.63414 1.22707)
(1.19137e-15 3.67568 0.809056)
(-6.48429e-16 3.52987 0.283399)
(-2.95488e-15 3.16825 -0.321899)
(-5.00845e-15 2.5798 -0.921211)
(-5.28565e-15 1.77411 -1.46767)
(-3.37708e-15 0.759341 -1.81323)
(-1.66993e-15 -0.121346 -1.86747)
(-8.90061e-16 -0.68574 -1.72724)
(-5.43436e-16 -0.875685 -1.49923)
(-3.97671e-16 -0.494449 -1.20916)
(-1.25482e-16 0.32775 -0.63476)
(2.31068e-16 1.90379 0.115624)
(2.93697e-15 1.46363 1.97423)
(5.35469e-15 -2.63387 3.69657)
(1.01084e-14 -7.2576 5.34553)
(1.83167e-14 -11.895 6.9845)
(-3.30611e-37 0.70957 0.306704)
(-3.20169e-36 0.73855 0.344534)
(-1.25553e-35 0.706713 0.324159)
(-4.03844e-35 0.801248 0.321126)
(-1.03806e-34 0.937195 0.292362)
(-2.15007e-34 1.12131 0.242815)
(-3.60872e-34 1.32757 0.18135)
(-4.95006e-34 1.54135 0.118048)
(-5.2423e-34 1.75598 0.0683375)
(-4.22401e-34 1.96131 0.0385858)
(-2.46738e-34 2.12872 0.0265918)
(-8.73686e-35 2.23131 -0.00985488)
(-1.86315e-35 2.26629 -0.0643813)
(-2.54633e-36 2.25466 -0.133378)
(-1.83877e-37 2.21507 -0.193566)
(2.18056e-38 2.17807 -0.25461)
(1.41627e-38 2.19396 -0.320981)
(1.19604e-37 2.23055 -0.415796)
(-5.84097e-36 2.20218 -0.502697)
(4.46117e-35 2.06677 -0.553637)
(-1.35264e-34 1.82487 -0.490431)
(-1.05437e-33 1.53011 -0.243142)
(-3.65555e-31 1.14383 0.14946)
(-7.24015e-32 0.765544 0.630692)
(9.45594e-30 1.00684 0.767289)
(6.47788e-29 1.88639 0.420469)
(2.94125e-28 2.7106 -0.0088861)
(-1.65136e-27 3.25041 -0.413124)
(-1.62701e-26 3.25814 -0.7645)
(-1.20954e-26 2.74139 -0.994025)
(-6.55474e-27 2.13438 -1.0155)
(7.26407e-27 1.6714 -0.866328)
(-5.86958e-26 1.45571 -0.623058)
(9.9576e-25 1.36806 -0.415244)
(-2.47967e-23 1.30776 -0.275404)
(6.75738e-22 1.21055 -0.16506)
(-2.53499e-20 1.1592 -0.00532283)
(-1.00741e-18 1.00676 0.144409)
(-2.213e-18 0.70442 0.200306)
(-2.41252e-18 0.494015 0.3323)
(-2.1011e-18 0.254904 0.480558)
(-1.84501e-18 0.0463364 0.59416)
(-1.09916e-18 -0.0852747 0.690691)
(-4.94176e-19 -0.230234 0.782785)
(-3.97713e-19 -0.294941 0.868158)
(-2.93914e-20 -0.225033 0.954653)
(-4.06084e-19 -0.0609823 1.04913)
(-8.69976e-18 0.112375 1.17111)
(-3.06573e-17 0.249738 1.31354)
(-5.70113e-17 0.367698 1.44938)
(-7.96095e-17 0.492292 1.58416)
(-1.10613e-16 0.633953 1.71739)
(-1.56426e-16 0.799907 1.84199)
(-2.20552e-16 0.998067 1.95334)
(-3.56929e-16 1.23284 2.04618)
(-6.44352e-16 1.50605 2.11494)
(-7.88065e-16 1.81558 2.15362)
(-7.32981e-16 2.1566 2.15576)
(-3.39906e-16 2.5169 2.11651)
(4.57246e-16 2.87902 2.03491)
(1.65276e-15 3.21996 1.90597)
(2.626e-15 3.50929 1.71457)
(2.48606e-15 3.71545 1.41881)
(8.26753e-16 3.78294 0.982243)
(-1.756e-15 3.65912 0.414178)
(-4.7184e-15 3.30639 -0.243129)
(-7.4353e-15 2.71278 -0.891774)
(-8.1771e-15 1.88065 -1.47881)
(-5.62952e-15 0.814322 -1.85273)
(-2.77291e-15 -0.117251 -1.91527)
(-1.38497e-15 -0.726332 -1.74188)
(-8.17775e-16 -0.936211 -1.43401)
(-5.12827e-16 -0.591288 -1.08679)
(-1.99308e-16 0.16474 -0.443067)
(3.31415e-16 1.58281 0.333255)
(3.43597e-15 1.05769 2.25194)
(5.9776e-15 -2.94193 3.86876)
(1.09266e-14 -7.53876 5.58663)
(1.85249e-14 -11.7836 6.87188)
(-2.99107e-37 0.702815 0.253013)
(-3.93738e-36 0.734664 0.326388)
(-1.67952e-35 0.70738 0.314807)
(-5.62128e-35 0.803205 0.323092)
(-1.4884e-34 0.944074 0.301573)
(-3.15826e-34 1.13209 0.257943)
(-5.42503e-34 1.34048 0.196348)
(-7.62261e-34 1.55382 0.125416)
(-8.29112e-34 1.76516 0.0611183)
(-6.82285e-34 1.96605 0.0175284)
(-4.06779e-34 2.13301 -0.00288312)
(-1.49435e-34 2.23909 -0.0335835)
(-3.30704e-35 2.27729 -0.0786734)
(-4.63374e-36 2.26647 -0.13794)
(-3.46287e-37 2.2266 -0.191922)
(3.22699e-38 2.19064 -0.25022)
(1.68946e-38 2.21024 -0.317536)
(1.72667e-38 2.24909 -0.417795)
(-6.07549e-36 2.2166 -0.508763)
(5.46066e-35 2.06674 -0.560408)
(-2.23963e-34 1.7967 -0.504107)
(1.2696e-33 1.47122 -0.270334)
(-3.30276e-31 1.06749 0.099336)
(-9.00513e-31 0.717816 0.526939)
(2.52782e-30 1.03332 0.6091)
(4.86993e-29 1.96089 0.238796)
(5.1058e-28 2.7867 -0.137848)
(-2.52978e-27 3.31896 -0.502707)
(-2.5202e-26 3.31096 -0.808798)
(-1.76839e-26 2.76311 -1.02046)
(-8.32152e-27 2.11966 -1.03551)
(1.05861e-26 1.63156 -0.879274)
(-6.67176e-26 1.41111 -0.630962)
(5.63454e-25 1.33421 -0.416576)
(-7.40261e-24 1.28459 -0.274494)
(2.38027e-22 1.18621 -0.168337)
(-1.24566e-20 1.13005 -0.0160208)
(-9.61356e-19 0.987499 0.148369)
(-2.22916e-18 0.690086 0.206385)
(-2.50601e-18 0.474296 0.33898)
(-2.10018e-18 0.238353 0.481295)
(-1.84488e-18 0.0319124 0.591823)
(-1.0978e-18 -0.100164 0.6857)
(-5.00448e-19 -0.245641 0.775125)
(-3.95803e-19 -0.309828 0.857999)
(6.01244e-20 -0.239544 0.941714)
(-5.12635e-19 -0.075708 1.04129)
(-1.00058e-17 0.0960988 1.17647)
(-3.27004e-17 0.229396 1.32525)
(-5.85936e-17 0.345083 1.46619)
(-8.3058e-17 0.46866 1.60883)
(-1.17051e-16 0.610218 1.74995)
(-1.62849e-16 0.777298 1.88327)
(-2.27312e-16 0.977684 2.00417)
(-3.67758e-16 1.21589 2.10724)
(-6.53059e-16 1.49381 2.18677)
(-7.65046e-16 1.8093 2.23718)
(-6.02772e-16 2.1573 2.25343)
(4.82944e-18 2.5249 2.23367)
(1.0856e-15 2.89473 2.18006)
(2.54003e-15 3.24595 2.08503)
(3.37359e-15 3.55253 1.92098)
(2.61286e-15 3.78513 1.6267)
(2.18638e-16 3.88171 1.15974)
(-3.02148e-15 3.78109 0.537027)
(-6.47452e-15 3.43551 -0.180253)
(-9.7671e-15 2.83366 -0.878268)
(-1.12689e-14 1.97188 -1.49295)
(-8.4796e-15 0.850745 -1.87551)
(-4.2535e-15 -0.140357 -1.94002)
(-2.0244e-15 -0.781888 -1.74882)
(-1.1025e-15 -1.00876 -1.37156)
(-6.34663e-16 -0.695571 -0.961461)
(-2.42973e-16 0.0196765 -0.261877)
(4.69216e-16 1.34357 0.567437)
(3.9684e-15 0.721272 2.53966)
(6.64213e-15 -3.26882 4.07154)
(1.16651e-14 -7.81342 5.7275)
(1.81605e-14 -11.6109 6.36988)
(-2.07535e-37 0.692819 0.183937)
(-4.53688e-36 0.727052 0.297)
(-2.14848e-35 0.706516 0.297234)
(-7.5462e-35 0.803749 0.317613)
(-2.07103e-34 0.949828 0.304578)
(-4.52627e-34 1.14226 0.268518)
(-7.9862e-34 1.35398 0.210248)
(-1.15154e-33 1.56842 0.135639)
(-1.28922e-33 1.77752 0.0593297)
(-1.08717e-33 1.97391 -9.7826e-05)
(-6.6344e-34 2.13865 -0.0335762)
(-2.53344e-34 2.2462 -0.0630082)
(-5.83258e-35 2.28695 -0.0994723)
(-8.40292e-36 2.2771 -0.147875)
(-6.4893e-37 2.23742 -0.194702)
(4.65793e-38 2.20309 -0.248744)
(2.09066e-38 2.22738 -0.31651)
(-9.85021e-38 2.26865 -0.421487)
(-5.90266e-36 2.2309 -0.514017)
(6.47073e-35 2.06612 -0.562712)
(-3.36568e-34 1.76807 -0.514309)
(3.36967e-33 1.41096 -0.301087)
(-2.28304e-31 0.988742 0.0367282)
(-1.46075e-30 0.668124 0.407227)
(-5.63702e-30 1.06336 0.437884)
(1.31824e-29 2.03435 0.0585557)
(8.14965e-28 2.85747 -0.259372)
(-4.00273e-27 3.38292 -0.575297)
(-3.8655e-26 3.36033 -0.822633)
(-2.44217e-26 2.78487 -0.999992)
(-9.06144e-27 2.10558 -1.01379)
(1.54867e-26 1.59078 -0.868215)
(-7.53002e-26 1.36423 -0.62822)
(5.18891e-26 1.29751 -0.414814)
(1.07263e-23 1.25906 -0.272368)
(-1.95501e-22 1.1599 -0.171536)
(-7.955e-22 1.097 -0.0283007)
(-8.9126e-19 0.963295 0.150022)
(-2.26323e-18 0.667991 0.209741)
(-2.59568e-18 0.441441 0.34395)
(-2.09745e-18 0.207284 0.483596)
(-1.83566e-18 0.00833577 0.59125)
(-1.09422e-18 -0.119896 0.68209)
(-5.0485e-19 -0.263414 0.768597)
(-3.764e-19 -0.326933 0.849032)
(1.41141e-19 -0.259536 0.930891)
(-6.7996e-19 -0.104302 1.03548)
(-1.09019e-17 0.059191 1.18091)
(-3.37532e-17 0.193838 1.33651)
(-5.99467e-17 0.312589 1.48435)
(-8.69591e-17 0.436983 1.63375)
(-1.23078e-16 0.580227 1.78236)
(-1.68161e-16 0.749921 1.92438)
(-2.3314e-16 0.953821 2.05484)
(-3.77804e-16 1.19656 2.16825)