/*--------------------------------*- C++ -*----------------------------------*\
| =========                 |                                                 |
| \\      /  F ield         | OpenFOAM: The Open Source CFD Toolbox           |
|  \\    /   O peration     | Version:  4.1                                   |
|   \\  /    A nd           | Web:      www.OpenFOAM.org                      |
|    \\/     M anipulation  |                                                 |
\*---------------------------------------------------------------------------*/
FoamFile
{
    version     2.0;
    format      ascii;
    class       surfaceScalarField;
    location    "27";
    object      phi;
}
// * * * * * * * * * * * * * * * * * * * * * * * * * * * * * * * * * * * * * //

dimensions      [0 3 -1 0 0 0 0];

internalField   nonuniform List<scalar> 
13220
(
-797.13
2097.03
-1250.44
1753.5
-1714.17
1763.64
-2056.9
1642.62
-2338.81
1582.11
-2543.51
1504.6
-2679.17
1435.57
-2745.42
1366.45
-2746.43
1300.91
-2679.4
1232.87
-2530.26
1151.06
-2258.88
1028.52
-1778.8
819.815
-1007.1
528.503
292.798
-219.569
2316.6
-489.338
2023.27
-784.091
2058.39
-1020.02
1878.55
-1246.78
1808.86
-1428.47
1686.29
-1583.08
1590.17
-1702.86
1486.23
-1793.63
1391.69
-1848.29
1287.52
-1836.96
1139.73
-1687.46
879.018
-1280.07
412.42
-596.789
-154.778
-303.991
-125.26
2441.85
-321.336
2219.34
-452.807
2189.86
-527.829
1953.57
-588.499
1869.53
-606.824
1704.61
-601.832
1585.18
-567.096
1451.49
-505.915
1330.5
-421.339
1202.94
-323.392
1041.78
-227.618
783.232
-139.374
324.151
-107.215
-186.964
-411.206
109.654
2332.2
92.2169
2236.78
138.853
2143.22
206.203
1886.22
280.579
1795.15
370.294
1614.9
471.201
1484.27
582.148
1340.54
700.029
1212.62
816.296
1086.67
908.522
949.55
912.684
779.071
703.857
532.98
220.671
296.224
-190.535
125.401
2206.8
164.977
2197.2
237.036
2071.16
315.919
1807.33
394.499
1716.57
484.099
1525.29
569.503
1398.86
655.479
1254.56
734.371
1133.73
802.101
1018.94
840.715
910.936
811.535
808.248
652.166
692.347
382.137
566.248
191.602
42.1136
2164.68
93.9917
2145.32
142.429
2022.72
177.577
1772.19
211.161
1682.99
247.857
1488.6
303.765
1342.95
417.924
1140.4
584.846
966.804
763.624
840.163
877.362
797.198
865.324
820.293
694.476
863.202
407.559
853.174
599.161
-87.4437
2252.13
-124.049
2181.93
-171.54
2070.21
-264.33
1864.98
-360.824
1779.48
-477.751
1605.52
-554.996
1420.2
-542.87
1128.28
-429.95
853.885
-238.977
649.191
-6.47159
564.694
198.796
615.021
283.868
778.127
207.1
929.94
806.262
-84.1322
2336.26
-298.053
2395.85
-461.063
2233.22
-648.183
2052.1
-843.787
1975.09
-1062.32
1824.06
-1288.26
1646.14
-1504.54
1344.56
-1681.86
1031.2
-1771.49
738.828
-1697.66
490.867
-1394.74
312.103
-889.445
272.837
-347.578
388.082
458.684
197.322
2138.94
4.24808
2588.93
-139.827
2377.3
-236.087
2148.36
-304.422
2043.42
-374.872
1894.51
-472.5
1743.77
-634.061
1506.12
-845.145
1242.29
-1072.7
966.388
-1266.57
684.732
-1335.92
381.452
-1160.39
97.3093
-678.154
-94.1582
-219.471
420.995
1717.94
434.9
2575.02
395.224
2416.97
423.583
2120
511.967
1955.04
609.082
1797.4
695.494
1657.36
716.624
1484.99
662.835
1296.07
537.875
1091.35
349.947
872.66
98.9515
632.455
-142.051
338.327
-168.208
-67.9845
-387.679
343.645
1374.3
446.372
2472.3
479.509
2383.84
545.635
2053.88
656.086
1844.59
776.499
1676.99
894.632
1539.22
985.55
1394.07
1036.36
1245.26
1035.82
1091.89
978.253
930.226
850.08
760.628
627.886
560.522
242.053
317.849
-145.626
161.46
1212.84
249.232
2384.53
307.298
2325.77
358.008
2003.17
417.747
1784.85
477.432
1617.3
533.931
1482.73
577.249
1350.76
602.421
1220.09
604.005
1090.31
576.698
957.534
515.109
822.22
405.812
669.822
233.775
489.897
88.1488
115.155
1097.69
220.005
2279.68
306.722
2239.06
401.093
1908.8
507.404
1678.54
600.276
1524.43
669.357
1413.65
711.068
1309.05
722.639
1208.52
704.414
1108.54
655.154
1006.79
571.95
905.425
445.563
796.21
260.444
675.018
348.593
256.035
841.654
438.362
2097.35
442.916
2234.5
363.355
1988.36
297.568
1744.33
259.197
1562.81
249.439
1423.4
265.755
1292.73
305.905
1168.37
367.816
1046.63
439.569
935.041
481.599
863.395
425.626
852.184
253.703
846.941
602.296
393.961
1394.98
2203.81
2534.15
2557.91
2491.42
2300.76
2054.92
1790.98
1520.8
1224.85
936.673
657.746
356.868
-5.94126e-07
-310.989
310.989
-310.989
-310.989
-310.989
263.609
-574.598
263.609
263.609
263.609
786.022
-522.413
786.022
786.022
1224.29
-438.273
1224.29
1224.29
1224.29
1563.11
-338.815
1563.11
1563.11
1791.38
-228.266
1791.38
1791.38
1791.38
1910.86
-119.482
1910.86
1910.86
1910.86
1931.84
-20.9782
1931.84
1931.84
1864.52
67.316
1864.52
1864.52
1864.52
1727.26
137.261
1727.26
1727.26
1534.93
192.327
1534.93
1534.93
1534.93
1328.43
206.498
1328.43
1328.43
1328.43
1201.27
127.166
1201.27
1201.27
1035.67
165.593
1035.67
1035.67
1035.67
751.876
283.797
751.876
751.876
751.876
354.053
397.823
354.053
354.053
-65.3905
419.444
-65.3905
-65.3906
-65.3905
-785.878
720.487
-785.878
-785.878
-2094.12
1308.24
-2094.12
-2094.12
-2094.12
-3872.01
1777.89
-3872.01
-3872.01
-3872.01
-5933.12
2061.1
-5933.12
-5933.12
-8160.22
2227.1
-8160.22
-8160.22
-7981.47
-7804.73
-7627.18
-9782.76
2335
-9598.75
-9395.8
-9182.28
-8967.32
-8750.58
-8531.85
-8317.16
-8108.17
-10379.9
2476.86
-10163.9
-9947.24
-9730.67
-9518.93
-9303.99
-9086.51
-8868.02
-8648.4
-10936.1
2502.8
-10705.1
-10472
-10237.8
-10003.7
-9764.8
-9515.86
-9266.28
-9015.41
-8764.3
-10884.8
2357.65
-10618.8
-10351.4
-10082.9
-9814.01
-9544.09
-9259.69
-8966.69
-8672.91
-10552.4
2158.5
-10263.2
-9967.02
-9660.21
-9355.73
-9053.08
-8753.36
-8455.05
-8139.37
-9478.66
1640.79
-9174.05
-8870.91
-8567.54
-8248.96
-7923.61
-7599.01
-7273.77
-6950.36
-7847.49
1217.99
-7519.35
-7200.72
-6891.05
-6592.58
-6306.52
-6018.76
-5744.03
-5480.33
-5227.16
-4500.36
-462.07
-4270.87
-4059.01
-3850.09
-3646.17
-3446.54
-3288.04
-3207.6
-3125.85
-2312.89
-721.386
-2233.44
-2158.7
-2158.7
-1639.76
-518.936
-1161
-478.761
-1161
-747.966
-413.038
-747.966
-403.387
-344.578
-145.023
-258.365
-145.023
101.333
-246.356
320.354
-219.022
320.354
500.322
-179.967
500.322
654.516
-154.195
794.378
-139.862
794.378
916.93
-122.552
916.93
1028.58
-111.654
1125.16
-96.5749
1125.16
1217.01
-91.847
1293.36
-76.3564
1293.36
1368.41
-75.0484
1368.41
1445.91
-77.4965
1508.59
-62.6833
1508.59
1570.7
-62.1079
1570.7
1633.9
-63.2023
1677.93
-44.0314
1677.93
1727.19
-49.2602
1753.8
-26.6133
1753.8
1780.33
-26.5233
1780.33
1808.37
-28.0384
1813.29
-4.92004
1813.29
1819.11
-5.82847
1819.11
1828.76
-9.64411
1816.91
11.8529
1816.91
1817.64
-0.731285
1796.48
21.1555
1796.48
1783
13.4825
1783
1774.09
8.90858
1746.85
27.242
1746.85
1725.44
21.4069
1725.44
1707.11
18.3277
1679.15
27.9605
1679.15
1661.13
18.0238
1637.31
23.816
1637.31
1624.48
12.8381
1624.48
1618.76
5.71723
1611.12
7.63397
1611.12
1612.22
-1.09393
1612.22
1619.53
-7.307
1623.7
-4.17329
1623.7
1637.75
-14.0537
1646.33
-8.57725
1646.33
1663.68
-17.3476
1663.68
-26.322
-707.163
-833.877
-795.978
-907.42
-851.524
-868.476
-893.493
-920.2
-918.86
-965.046
-932.444
-1031.94
-937.29
-1103.1
-936.136
-1179.87
-930.492
-1258.29
-921.093
-1337.15
-908.105
-1414.22
-891.474
-1486.89
-871.255
-1551.25
-848.047
-1601.79
-823.534
-1631.07
-800.983
-1630
-785.167
-1589.87
-781.101
-1506.39
-791.921
-1384.7
-816.865
-1243.47
-846.208
-1103.69
-850.496
-921.843
-800.374
-527.48
-735.302
112.871
-702.576
567.295
-680.551
802.488
-660.099
1001.64
-640.377
1219.51
-621.36
1449.96
-602.907
1683.78
-584.906
1915.21
-567.149
2138.91
-549.552
2350.2
-532.12
2546.47
-514.83
2725.9
-497.642
2887.41
-480.528
3030.8
-463.399
3156.5
-446.071
3264.91
-428.374
3355.46
-410.273
3427.26
-391.772
3480.71
-372.853
3516.68
-353.476
3535.86
-333.609
3538.47
-313.254
3524.94
-292.387
3496.01
-271.041
3452.35
-249.192
3395.61
-226.736
3325.26
-203.571
3237.34
-179.818
3128.49
-155.594
3004.22
-130.658
2867.72
-105.001
2705.73
-78.9887
2516
-52.8243
2312.63
-26.8031
2076.37
-1.9751
1755.32
20.273
1348.65
38.5792
867.567
52.7851
434.588
62.0159
137.49
69.9994
16.2037
82.9933
-22.6238
97.8411
-23.8528
109.791
2.34212
117.623
35.1081
122.964
58.3054
127.103
75.2788
125.879
53.6235
110.306
-75.1793
84.7159
-294.349
80.5763
-432.543
101.332
-8.84394
41.6452
-206.97
-55.9512
-2053.86
-55.9561
-2140.9
-1272.2
-822.35
-776.505
-893.559
-836.211
-925.158
-836.877
-945.667
-899.691
-953.316
-957.397
-954.39
-1030.86
-950.889
-1106.6
-944.303
-1186.46
-934.869
-1267.72
-922.42
-1349.59
-906.543
-1430.1
-886.945
-1506.49
-863.788
-1574.4
-838.269
-1627.31
-813.34
-1656
-794.182
-1649.16
-787.413
-1596.64
-798.198
-1495.6
-826.72
-1356.17
-867.287
-1202.91
-906.799
-1064.18
-912.678
-915.964
-841.796
-598.362
-735.837
6.9127
-687.096
518.554
-669.251
784.643
-651.947
984.332
-633.587
1201.15
-615.848
1432.22
-598.596
1666.52
-581.621
1898.24
-564.682
2121.97
-547.736
2333.25
-530.828
2529.56
-513.95
2709.02
-497.083
2870.55
-480.213
3013.93
-463.262
3139.55
-446.055
3247.7
-428.437
3337.84
-410.387
3409.21
-391.914
3462.24
-373.007
3497.78
-353.625
3516.47
-333.745
3518.59
-313.367
3504.56
-292.473
3475.12
-271.101
3430.98
-249.226
3373.74
-226.737
3302.77
-203.525
3214.13
-179.718
3104.69
-155.422
2979.92
-130.346
2842.65
-104.427
2679.81
-77.9747
2489.55
-51.0371
2285.69
-23.7372
2049.07
2.85645
1728.72
27.1023
1324.41
47.2443
847.425
63.3744
418.458
75.4807
125.383
91.6619
0.0224708
114.536
-45.4983
134.491
-43.8071
146.707
-9.8741
150.986
30.8288
151.348
57.9435
152.833
73.7936
151.513
54.9434
133.64
-57.3055
100.973
-261.682
83.2962
-414.867
110.516
-36.0641
54.7614
-151.215
-59.3015
-1939.8
-67.2795
-2132.93
-1356.83
-867.597
-729.632
-919.904
-783.904
-939.492
-817.289
-952.491
-886.691
-956.083
-953.805
-955.373
-1031.57
-951.02
-1110.95
-943.778
-1193.7
-933.48
-1278.02
-919.821
-1363.25
-902.399
-1447.52
-881.072
-1527.82
-856.388
-1599.09
-830.326
-1653.37
-807.135
-1679.19
-793.508
-1662.78
-796.67
-1593.48
-819.947
-1472.33
-859.113
-1317.01
-904.347
-1157.67
-943.319
-1025.2
-950.219
-909.064
-879.553
-669.029
-748.98
-123.66
-673.08
442.655
-652.287
763.85
-639.537
971.582
-623.985
1185.59
-607.991
1416.22
-592.315
1650.85
-576.793
1882.71
-561.089
2106.26
-545.142
2317.3
-529.035
2513.45
-512.794
2692.78
-496.427
2854.18
-479.941
2997.44
-463.271
3122.88
-446.258
3230.69
-428.771
3320.36
-410.808
3391.24
-392.386
3443.82
-373.5
3478.89
-354.117
3497.09
-334.218
3498.69
-313.808
3484.15
-292.876
3454.19
-271.462
3409.56
-249.542
3351.82
-226.994
3280.22
-203.708
3190.85
-179.817
3080.79
-155.398
2955.5
-130.105
2817.35
-103.804
2653.51
-76.7027
2462.45
-48.6419
2257.63
-19.5299
2019.96
9.5454
1699.65
36.6634
1297.29
59.7751
824.313
79.2783
398.955
96.7322
107.93
119.927
-23.1719
146.323
-71.8945
166.104
-63.5885
176.236
-20.0061
178.233
28.8317
176.008
60.1688
173.427
76.3748
167.877
60.4931
148.124
-37.5528
113.844
-227.402
89.6412
-390.664
113.258
-59.6814
62.1187
-100.075
-58.087
-1819.59
-68.96
-2122.05
-1434.37
-913.63
-693.082
-949.104
-748.429
-958.475
-807.918
-964.451
-880.716
-963.487
-954.769
-959.818
-1035.24
-953.266
-1117.5
-944.127
-1202.84
-931.932
-1290.22
-916.235
-1378.95
-896.615
-1467.14
-873.113
-1551.32
-846.816
-1625.39
-820.813
-1679.38
-801.053
-1698.95
-795.826
-1668.01
-812.116
-1577.19
-849.676
-1434.77
-898.688
-1268
-945.885
-1110.48
-981.383
-989.705
-987.985
-902.462
-921.916
-735.097
-773.739
-271.837
-665.591
334.506
-633.752
732.012
-623.381
961.21
-611.616
1173.83
-598.213
1402.82
-584.453
1637.09
-570.67
1868.93
-556.544
2092.14
-541.933
2302.69
-526.903
2498.42
-511.516
2677.4
-495.824
2838.49
-479.859
2981.48
-463.571
3106.59
-446.825
3213.94
-429.524
3303.06
-411.682
3373.4
-393.333
3425.47
-374.479
3460.04
-355.096
3477.71
-335.174
3478.77
-314.721
3463.7
-293.735
3433.2
-272.261
3388.09
-250.271
3329.83
-227.636
3257.58
-204.248
3167.46
-180.236
3056.78
-155.645
2930.91
-130.064
2791.77
-103.277
2626.72
-75.357
2434.53
-45.8986
2228.17
-14.555
1988.61
17.5903
1667.5
48.3608
1266.52
75.4538
797.22
99.7038
374.705
123.185
84.4486
152.49
-52.4769
181.012
-100.416
200.144
-82.7209
207.912
-27.7746
206.829
29.9149
201.011
65.9871
194.705
82.6808
186.649
68.5493
166.117
-17.0212
129.843
-191.127
99.8842
-360.705
120.13
-79.9272
73.7702
-53.7152
-57.0739
-1688.75
-70.0805
-2109.05
-1518.5
-944.404
-667.611
-964.986
-727.848
-967.603
-805.302
-969.144
-879.175
-965.669
-958.243
-960.354
-1040.56
-952.374
-1125.48
-941.711
-1213.5
-927.734
-1304.19
-909.974
-1396.71
-888.124
-1488.99
-862.597
-1576.85
-835.331
-1652.65
-810.957
-1703.75
-797.428
-1712.48
-804.14
-1661.3
-836.021
-1545.31
-887.075
-1383.71
-941.65
-1213.42
-985.071
-1067.06
-1011.9
-962.874
-1015.25
-899.119
-958.707
-791.637
-806.71
-423.834
-667.048
194.844
-616.601
681.565
-604.701
949.311
-596.204
1165.33
-586.16
1392.78
-574.914
1625.84
-563.181
1857.2
-550.927
2079.88
-537.986
2289.75
-524.348
2484.78
-510.075
2663.12
-495.261
2823.67
-479.976
2966.19
-464.192
3090.8
-447.806
3197.55
-430.756
3286.01
-413.083
3355.73
-394.835
3407.22
-376.028
3441.23
-356.65
3458.33
-336.699
3458.82
-316.193
3443.19
-295.137
3412.15
-273.582
3366.53
-251.497
3307.74
-228.745
3234.83
-205.219
3143.93
-181.046
3032.61
-156.229
2906.1
-130.284
2765.83
-102.9
2599.34
-73.9905
2405.62
-42.8592
2197.04
-8.86153
1954.61
26.9618
1631.68
62.1938
1231.29
94.2654
765.149
124.595
344.375
154.246
54.7978
188.066
-86.2972
217.348
-129.698
235.104
-100.478
240.188
-32.8584
235.913
34.1903
226.456
75.4442
216.243
92.8933
205.29
79.503
184.453
3.81497
147.795
-154.469
113.896
-326.806
127.356
-93.3876
85.8847
-12.2439
-54.6407
-1548.22
-78.6661
-2085.02
-1601.34
-964.932
-651.55
-974.549
-718.231
-973.245
-806.605
-971.85
-880.57
-966.574
-963.519
-959.678
-1047.46
-950.031
-1135.13
-937.474
-1226.06
-921.328
-1320.34
-901.181
-1416.86
-876.946
-1513.23
-849.621
-1604.17
-822.372
-1679.9
-801.825
-1724.3
-797.979
-1716.32
-820.096
-1639.18
-868.51
-1496.89
-929.905
-1322.32
-984.37
-1158.96
-1018.93
-1032.5
-1033.57
-948.23
-1030.41
-902.276
-984.099
-837.949
-843.978
-563.956
-679.731
30.5979
-603.115
604.948
-585.105
931.301
-578.259
1158.48
-571.582
1386.1
-563.462
1617.72
-554.237
1847.97
-544.133
2069.78
-533.142
2278.76
-521.202
2472.84
-508.325
2650.25
-494.621
2809.97
-480.196
2951.77
-465.057
3075.67
-449.139
3181.64
-432.422
3269.29
-414.974
3338.28
-396.867
3389.12
-378.129
3422.49
-358.765
3438.97
-338.788
3438.84
-318.221
3422.62
-297.083
3391.01
-275.429
3344.88
-253.226
3285.54
-230.329
3211.94
-206.635
3120.24
-182.264
3008.24
-157.172
2881
-130.8
2739.45
-102.726
2571.26
-72.6838
2375.58
-39.653
2164.01
-2.65539
1917.62
37.3499
1591.67
77.7204
1190.92
115.591
727.278
153.033
306.933
188.78
19.0512
225.709
-123.226
254.752
-158.742
270.708
-116.433
272.992
-35.1424
265.451
41.7308
252.297
88.5984
238.135
107.056
224.194
93.4434
203.255
24.7541
167.215
-118.428
130.149
-289.74
136.515
-99.7537
98.4378
25.8333
-50.3765
-1399.41
-79.328
-2056.07
-1687.98
-977.163
-642.983
-979.232
-716.162
-975.731
-810.106
-972.163
-884.138
-965.359
-970.324
-956.806
-1056.01
-945.288
-1146.65
-930.576
-1240.77
-912.009
-1338.91
-889.305
-1439.56
-862.756
-1539.78
-834.255
-1632.67
-808.68
-1705.48
-795.056
-1737.92
-804.913
-1706.47
-845.126
-1598.97
-908.649
-1433.37
-974.814
-1256.15
-1022.85
-1110.92
-1044.58
-1010.77
-1045.15
-947.664
-1032.72
-914.706
-993.478
-877.189
-875.977
-681.457
-700.829
-144.55
-594.887
499.007
-565.999
902.413
-558.68
1151.17
-554.589
1382.01
-549.823
1612.96
-543.634
1841.78
-536.052
2062.2
-527.267
2269.98
-517.297
2462.87
-506.107
2639.06
-493.77
2797.63
-480.412
2938.41
-466.079
3061.33
-450.756
3166.31
-434.468
3253
-417.317
3321.13
-399.398
3371.2
-380.762
3403.86
-361.429
3419.63
-341.43
3418.84
-320.8
3401.99
-299.571
3369.78
-277.803
3323.11
-255.46
3263.2
-232.394
3188.87
-208.503
3096.35
-183.9
2983.64
-158.492
2855.6
-131.637
2712.6
-102.797
2542.42
-71.5067
2344.29
-36.3922
2128.9
3.88326
1877.34
48.4826
1547.07
94.5579
1144.84
138.918
682.918
184.054
261.798
226.102
-22.9972
265.09
-162.214
293.123
-186.774
306.851
-130.161
306.202
-34.4937
295.343
52.5902
278.427
105.515
260.179
125.303
242.89
110.732
221.837
45.8081
187.471
-84.063
147.963
-250.232
147.548
-99.339
109.314
64.0676
-44.2478
-1245.85
-88.7943
-2011.52
-1777.86
-983.447
-639.777
-980.843
-718.766
-976.009
-814.94
-970.563
-889.584
-962.162
-978.725
-951.681
-1066.49
-937.966
-1160.36
-920.77
-1257.96
-899.516
-1360.16
-874.157
-1464.92
-845.589
-1568.35
-817.021
-1661.24
-795.59
-1726.91
-792.833
-1740.68
-820.358
-1678.94
-879.44
-1539.89
-953.647
-1359.16
-1017.31
-1192.49
-1053.25
-1074.97
-1060.04
-1003.98
-1046.6
-961.111
-1023.67
-937.636
-986.499
-914.358
-891.476
-776.48
-720.665
-315.361
-591.648
369.99
-548.718
859.483
-538.507
1140.96
-535.675
1379.18
-533.94
1611.22
-531.119
1838.96
-526.505
2057.59
-520.241
2263.71
-512.49
2455.12
-503.255
2629.82
-492.56
2786.94
-480.504
2926.35
-467.165
3047.99
-452.583
3151.73
-436.84
3237.26
-420.072
3304.36
-402.403
3353.53
-383.908
3385.36
-364.632
3400.36
-344.622
3398.83
-323.931
3381.3
-302.604
3348.45
-280.709
3301.21
-258.208
3240.7
-234.948
3165.61
-210.834
3072.23
-185.97
2958.77
-160.208
2829.83
-132.822
2685.21
-103.153
2512.75
-70.5186
2311.66
-33.1689
2091.55
10.6192
1833.55
60.1802
1497.51
112.465
1092.56
163.994
631.389
216.341
209.45
264.697
-71.3531
305.261
-202.778
332.097
-213.61
343.367
-141.431
339.648
-30.774
325.399
66.8385
304.686
126.228
282.263
147.727
261.29
131.705
239.762
67.3362
207.777
-52.078
166.801
-209.256
158.841
-91.3791
120.954
101.955
-34.446
-1090.45
-90.5708
-1955.4
-1860.8
-985.704
-640.262
-980.259
-724.21
-974.226
-820.973
-966.836
-896.973
-956.562
-988.999
-943.813
-1079.24
-927.573
-1176.6
-907.61
-1277.93
-883.5
-1384.27
-855.581
-1492.84
-825.681
-1598.25
-798.86
-1688.06
-785.009
-1740.76
-797.653
-1728.04
-845.763
-1630.83
-921.496
-1464.15
-999.18
-1281.48
-1052.81
-1138.86
-1072.79
-1055
-1064.47
-1012.29
-1038.53
-987.05
-1005.62
-970.541
-966.651
-953.331
-888.923
-854.208
-733.357
-470.927
-591.044
227.677
-534.029
802.467
-518.777
1125.7
-515.575
1375.97
-516.07
1611.72
-516.572
1839.46
-515.281
2056.29
-511.917
2260.35
-506.66
2449.87
-499.621
2622.78
-490.829
2778.14
-480.332
2915.86
-468.203
3035.86
-454.534
3138.06
-439.468
3222.19
-423.186
3288.08
-405.843
3336.19
-387.542
3367.06
-368.354
3381.17
-348.353
3378.83
-327.607
3360.56
-306.179
3327.03
-284.147
3279.18
-261.471
3218.02
-237.998
3142.14
-213.638
3047.87
-188.485
2933.62
-162.337
2803.69
-134.383
2657.26
-103.832
2482.2
-69.7787
2277.6
-30.0719
2051.84
17.4383
1786.04
72.2999
1442.65
131.244
1033.61
190.724
571.909
249.442
150.733
302.949
-124.861
345.175
-245.004
371.25
-239.685
380.168
-150.349
373.281
-23.8867
355.517
84.602
330.935
150.81
304.232
174.429
279.317
156.621
256.803
89.8504
227.333
-22.6087
185.716
-167.639
169.402
-75.0651
133.729
137.628
-20.086
-936.633
-88.0382
-1887.45
-1943.12
-985.064
-643.285
-977.733
-731.541
-970.241
-828.464
-960.682
-906.533
-948.184
-1001.5
-932.822
-1094.6
-913.755
-1195.67
-890.804
-1300.88
-863.803
-1411.27
-833.702
-1522.94
-803.702
-1628.25
-781.335
-1710.43
-779.448
-1742.64
-811.91
-1695.57
-881.143
-1561.6
-967.748
-1377.55
-1040.08
-1209.15
-1077.58
-1101.36
-1080.13
-1052.45
-1058.12
-1034.3
-1022.06
-1023.11
-981.023
-1011.58
-938.677
-995.677
-872.856
-920.028
-738.106
-605.677
-590.302
79.8739
-521.2
733.365
-500.27
1104.77
-495.149
1370.85
-496.695
1613.26
-500.091
1842.86
-502.227
2058.43
-502.114
2260.23
-499.677
2447.43
-495.083
2618.19
-488.429
2771.49
-479.744
2907.17
-469.063
3025.18
-456.505
3125.51
-442.274
3207.96
-426.598
3272.4
-409.671
3319.26
-391.629
3349.02
-372.574
3362.11
-352.608
3358.87
-331.819
3339.77
-310.292
3305.5
-288.115
3257
-265.25
3195.16
-241.545
3118.43
-216.919
3023.25
-191.456
2908.16
-164.896
2777.13
-136.342
2628.71
-104.874
2450.74
-69.3443
2242.07
-27.1809
2009.68
24.2424
1734.62
84.7268
1382.17
150.758
967.582
219.113
503.553
283.921
85.9249
341.028
-181.967
384.519
-288.495
410.211
-265.378
417.112
-157.25
407.067
-13.8413
385.621
106.048
357.037
179.394
325.932
205.534
296.951
185.602
272.935
113.866
245.327
4.99873
203.273
-125.584
178.107
-49.8997
146.821
168.915
-0.768434
-789.044
-88.6472
-1799.57
-2018.93
-982.094
-648.264
-973.115
-740.52
-963.723
-837.857
-951.689
-918.567
-936.602
-1016.58
-918.321
-1112.88
-896.195
-1217.8
-870.158
-1326.91
-840.453
-1440.98
-808.966
-1554.43
-780.845
-1656.37
-766.682
-1724.59
-781.763
-1727.56
-837.145
-1640.19
-924.431
-1474.31
-1013.02
-1288.96
-1071.48
-1150.68
-1089.44
-1083.4
-1075.51
-1066.38
-1042.32
-1067.5
-998.841
-1066.59
-952.119
-1058.3
-906.729
-1041.07
-848.705
-978.052
-735.159
-719.224
-587.372
-67.9133
-508.331
654.324
-482.956
1079.4
-475.205
1363.1
-476.44
1614.5
-481.952
1848.37
-487.332
2063.81
-490.666
2263.57
-491.388
2448.15
-489.525
2616.32
-485.235
2767.2
-478.591
2900.53
-469.603
3016.19
-458.381
3114.28
-445.165
3194.75
-430.237
3257.47
-413.834
3302.86
-396.13
3331.31
-377.264
3343.25
-357.367
3338.97
-336.555
3318.95
-314.938
3283.88
-292.613
3234.68
-269.547
3172.09
-245.595
3094.48
-220.685
2998.34
-194.892
2882.36
-167.9
2750.13
-138.725
2599.53
-106.315
2418.33
-69.2689
2205.03
-24.5652
1964.97
30.9575
1679.1
97.3895
1315.73
170.949
894.022
249.267
425.235
320.269
14.9233
379.649
-241.348
423.51
-332.356
448.787
-290.655
453.999
-162.462
440.927
-0.769256
415.637
131.338
382.851
212.179
347.205
241.18
314.262
218.545
288.234
139.894
260.856
32.3774
216.872
-81.6003
183.147
-16.1751
158.241
193.821
23.6659
-654.469
-78.1138
-1697.79
-2073.23
-976.842
-655.034
-966.021
-751.34
-954.27
-849.608
-939.456
-933.381
-921.464
-1034.58
-900.036
-1134.31
-874.731
-1243.1
-845.693
-1355.95
-813.788
-1472.88
-782.291
-1585.92
-758.975
-1679.68
-757.777
-1725.79
-794.629
-1690.71
-873.176
-1561.64
-971.312
-1376.18
-1051.56
-1208.71
-1089.94
-1112.31
-1088.12
-1085.22
-1060.44
-1094.05
-1019.12
-1108.83
-970.971
-1114.73
-921.075
-1108.2
-873.882
-1088.26
-821.125
-1030.81
-725.01
-815.338
-580.253
-212.67
-493.217
567.287
-465.664
1051.85
-456.122
1353.56
-456.035
1614.41
-462.588
1854.93
-470.735
2071.96
-477.5
2270.33
-481.631
2452.28
-482.813
2617.51
-481.138
2765.53
-476.746
2896.14
-469.68
3009.13
-460.029
3104.63
-448.037
3182.75
-434.02
3243.46
-418.268
3287.1
-400.998
3314.04
-382.39
3324.64
-362.61
3319.19
-341.804
3298.15
-320.108
3262.19
-297.637
3212.21
-274.364
3148.82
-250.151
3070.27
-224.944
2973.13
-198.807
2856.23
-171.366
2722.69
-141.556
2569.72
-108.191
2384.96
-69.6028
2166.44
-22.2842
1917.66
37.534
1619.28
110.263
1243
191.852
812.434
280.509
336.578
358.347
-62.9144
419.15
-302.151
462.491
-375.697
486.958
-315.121
490.629
-166.133
474.729
15.1305
445.467
160.601
408.227
249.419
367.999
281.407
331.434
255.111
302.626
168.702
272.585
62.4187
223.561
-32.5765
182.64
24.7456
166.025
210.435
50.9744
-539.418
-59.4722
-1587.34
-2114.68
-969.079
-663.711
-956.006
-764.414
-941.504
-864.109
-923.646
-951.24
-902.52
-1055.7
-877.836
-1158.99
-849.4
-1271.54
-817.699
-1387.65
-784.54
-1506.04
-755.176
-1615.29
-740.676
-1694.18
-757.838
-1708.62
-819.678
-1628.87
-917.412
-1463.91
-1015.85
-1277.74
-1078.41
-1146.14
-1094.12
-1096.61
-1075.02
-1104.32
-1037.32
-1131.75
-991.022
-1155.13
-940.748
-1165.01
-889.884
-1159.06
-842.199
-1135.95
-793.196
-1079.81
-710.403
-898.131
-569.627
-353.446
-474.69
472.35
-446.696
1023.85
-437.538
1344.4
-436.115
1612.99
-442.594
1861.4
-452.718
2082.08
-462.659
2280.27
-470.295
2459.92
-474.799
2622.01
-476.021
2766.75
-474.105
2894.22
-469.167
3004.19
-461.315
3096.78
-450.771
3172.21
-437.855
3230.54
-422.901
3272.15
-406.179
3297.32
-387.914
3306.38
-368.31
3299.59
-347.548
3277.39
-325.796
3240.44
-303.186
3189.6
-279.702
3125.33
-255.219
3045.78
-229.703
2947.61
-203.21
2829.73
-175.31
2694.79
-144.859
2539.27
-110.537
2350.64
-70.3912
2126.29
-20.3852
1867.65
43.9507
1554.94
123.376
1163.58
213.761
722.048
310.907
239.433
395.431
-147.439
458.459
-365.179
501.467
-418.706
524.793
-338.448
526.819
-168.158
508.285
33.6649
474.971
193.914
433.046
291.344
388.348
326.105
348.337
295.122
315.147
201.892
278.02
99.5453
221.349
24.0951
176.59
69.5048
169.938
217.087
78.6797
-448.16
-40.0371
-1468.62
-2126.75
-958.441
-674.537
-942.659
-780.196
-925.129
-881.639
-904.048
-972.321
-879.694
-1080.06
-851.808
-1186.88
-820.503
-1302.84
-786.814
-1421.34
-753.929
-1538.93
-729.802
-1639.42
-729.176
-1694.81
-769.798
-1668
-856.516
-1542.15
-964.803
-1355.62
-1051.83
-1190.72
-1090.65
-1107.32
-1084.91
-1102.34
-1052.79
-1136.44
-1009
-1175.54
-960.6
-1203.53
-910.31
-1215.3
-860.123
-1209.25
-812.843
-1183.23
-766.376
-1126.28
-693.859
-970.648
-557.933
-489.373
-453.012
367.429
-424.786
995.626
-418.352
1337.97
-416.822
1611.46
-422.608
1867.19
-433.719
2093.19
-446.304
2292.86
-457.35
2470.96
-465.348
2630.01
-469.75
2771.15
-470.563
2895.03
-467.957
3001.59
-462.111
3090.94
-453.238
3163.34
-441.635
3218.94
-427.652
3258.17
-411.61
3281.28
-393.789
3288.56
-374.435
3280.23
-353.768
3256.72
-331.991
3218.66
-309.256
3166.86
-285.563
3101.64
-260.805
3021.03
-234.973
2921.78
-208.115
2802.88
-179.749
2666.43
-148.656
2508.18
-113.384
2315.37
-71.6735
2084.58
-18.901
1814.88
50.2204
1485.82
136.822
1076.98
237.352
621.518
341.088
135.697
430.087
-236.438
496.197
-431.289
539.971
-462.48
562.31
-360.787
562.493
-168.341
541.37
54.7875
503.986
231.298
457.245
338.085
408.19
375.16
364.36
338.952
324.923
241.329
277.018
147.45
212.221
88.8921
167.979
113.747
170.637
214.429
104.441
-381.963
-10.7156
-1353.47
-2119.14
-944.571
-687.77
-925.695
-799.073
-904.996
-902.337
-880.642
-996.675
-853.133
-1107.56
-822.296
-1217.72
-788.65
-1336.49
-754.075
-1455.92
-723.745
-1569.26
-709.055
-1654.11
-727.991
-1675.87
-795.327
-1600.67
-902.013
-1435.47
-1008.73
-1248.91
-1074.42
-1125.03
-1088
-1093.74
-1064.96
-1125.38
-1024.64
-1176.76
-978.298
-1221.89
-930.119
-1251.71
-881.292
-1264.12
-832.69
-1257.85
-786.1
-1229.82
-740.859
-1171.52
-675.991
-1035.52
-546.642
-618.722
-429.13
249.917
-399.468
965.964
-397.122
1335.62
-397.536
1611.87
-403.01
1872.66
-414.279
2104.46
-428.721
2307.3
-442.86
2485.1
-454.377
2641.53
-462.18
2778.95
-465.998
2898.85
-465.956
3001.54
-462.31
3087.29
-455.316
3156.34
-445.242
3208.86
-432.425
3245.35
-417.221
3266.07
-399.963
3271.3
-380.949
3261.22
-360.441
3236.21
-338.679
3196.9
-315.842
3144.03
-291.947
3077.75
-266.915
2995.99
-240.761
2895.63
-213.532
2775.65
-184.697
2637.59
-152.969
2476.45
-116.762
2279.16
-73.482
2041.3
-17.8475
1759.24
56.3937
1411.58
150.784
982.588
263.515
508.787
373.445
25.7679
464.077
-327.07
532.236
-499.447
577.413
-507.658
599.306
-382.68
597.633
-166.668
573.818
78.6024
532.363
272.753
480.776
389.672
427.306
428.63
378.825
387.433
331.414
288.74
272.473
206.391
202.451
158.914
160.729
155.47
169.232
205.926
124.041
-336.772
11.3948
-1240.82
-2086.34
-927.22
-703.61
-905.005
-821.288
-881.16
-926.182
-853.643
-1024.19
-823.245
-1137.96
-789.922
-1251.04
-754.776
-1371.63
-720.962
-1489.73
-696.403
-1593.81
-696.413
-1654.1
-740.219
-1632.07
-833.759
-1507.13
-950.406
-1318.82
-1042.67
-1156.65
-1081.41
-1086.29
-1072.55
-1102.6
-1037.81
-1160.12
-993.782
-1220.78
-947.654
-1268.02
-901.238
-1298.12
-854.577
-1310.78
-807.697
-1304.73
-761.488
-1276.03
-716.061
-1216.95
-656.353
-1095.22
-536.371
-738.704
-404.819
118.365
-371.113
932.258
-372.661
1337.17
-377.052
1616.26
-383.641
1879.25
-394.883
2115.7
-410.324
2322.74
-426.98
2501.76
-441.869
2656.41
-453.192
2790.28
-460.272
2905.93
-463.058
3004.33
-461.822
3086.05
-456.895
3151.41
-448.556
3200.53
-437.114
3233.91
-422.926
3251.89
-406.373
3254.74
-387.805
3242.65
-367.535
3215.94
-345.842
3175.2
-322.935
3121.12
-298.853
3053.66
-273.551
2970.69
-247.076
2869.15
-219.475
2748.05
-190.17
2608.29
-157.816
2444.09
-120.694
2242.04
-75.8423
1996.45
-17.2224
1700.62
62.5647
1331.79
165.536
879.616
292.106
382.217
408.895
-91.0214
499.001
-417.176
567.203
-567.649
613.449
-553.904
635.379
-404.61
632.063
-163.351
605.467
105.198
559.955
318.265
503.559
446.068
445.431
486.758
391.287
441.578
334.944
345.082
266.914
274.422
195.466
230.362
156.732
194.203
167.462
195.196
137.095
-306.405
35.9222
-1139.65
-2023.18
-906.324
-722.14
-880.715
-846.898
-853.916
-952.981
-823.521
-1054.59
-790.686
-1170.8
-755.571
-1286.16
-720.138
-1407.07
-689.432
-1520.44
-674.957
-1608.29
-695.563
-1633.49
-767.468
-1560.16
-881.39
-1393.2
-994.465
-1205.75
-1062.05
-1089.06
-1073.59
-1074.75
-1047.99
-1128.2
-1007.16
-1200.95
-962.914
-1265.03
-918.77
-1312.16
-874.783
-1342.11
-830.214
-1355.35
-784.537
-1350.41
-737.987
-1322.58
-691.039
-1263.89
-634.047
-1152.22
-525.783
-846.968
-383.342
-24.076
-340.863
889.78
-344.612
1340.92
-354.177
1625.83
-363.789
1888.86
-375.722
2127.64
-391.595
2338.61
-409.992
2520.16
-427.885
2674.31
-442.712
2805.1
-453.245
2916.46
-459.136
3010.22
-460.555
3087.47
-457.885
3148.75
-451.469
3194.11
-441.606
3224.04
-428.632
3238.91
-412.946
3239.06
-394.951
3224.66
-375.012
3196
-353.456
3153.65
-330.521
3098.18
-306.277
3029.42
-280.716
2945.13
-253.924
2842.36
-225.951
2720.07
-196.178
2578.51
-163.213
2411.13
-125.205
2204.03
-78.7733
1950.02
-17.0029
1638.85
68.879
1245.91
181.742
766.753
319.436
244.523
442.769
-214.355
533.916
-508.323
601.512
-635.245
648.04
-600.432
670.153
-426.724
665.494
-158.692
636.134
134.559
586.615
367.784
525.481
507.202
462.345
549.894
401.628
502.295
336.351
410.359
262.011
348.762
192.198
300.174
156.387
230.014
166.537
185.046
144.892
-284.76
58.0721
-1052.83
-1956.2
-882.053
-743.306
-853.196
-875.755
-823.798
-982.378
-790.972
-1087.41
-756.323
-1205.45
-720.353
-1322.13
-686.321
-1441.1
-661.984
-1544.77
-662.989
-1607.29
-709.641
-1586.84
-808.713
-1461.09
-931.75
-1270.17
-1027.47
-1110.03
-1065.44
-1051.1
-1054.16
-1086.03
-1018.46
-1163.9
-976.127
-1243.28
-933.881
-1307.28
-892.437
-1353.6
-850.712
-1383.84
-807.53
-1398.54
-762.115
-1395.82
-714.339
-1370.35
-664.798
-1313.44
-608.179