/*--------------------------------*- C++ -*----------------------------------*\
| =========                 |                                                 |
| \\      /  F ield         | OpenFOAM: The Open Source CFD Toolbox           |
|  \\    /   O peration     | Version:  4.1                                   |
|   \\  /    A nd           | Web:      www.OpenFOAM.org                      |
|    \\/     M anipulation  |                                                 |
\*---------------------------------------------------------------------------*/
FoamFile
{
    version     2.0;
    format      ascii;
    class       volScalarField;
    location    "8";
    object      p;
}
// * * * * * * * * * * * * * * * * * * * * * * * * * * * * * * * * * * * * * //

dimensions      [0 2 -2 0 0 0 0];

internalField   nonuniform List<scalar> 
225
(
523.379
469.982
418.15
369.739
324.848
282.831
243.476
206.472
171.378
138.014
107.072
78.9336
49.9047
14.9859
-14.1662
56.9445
34.6835
28.9249
25.2146
19.7406
14.0331
8.88021
4.49145
1.00754
-1.45121
-2.6425
-2.14084
-0.044402
1.82712
2.08731
-45.8378
-52.4808
-46.7138
-42.5669
-39.4763
-35.881
-31.9947
-28.0573
-24.1529
-20.4371
-17.0915
-14.0244
-10.9476
-8.29476
-7.06052
0.296002
-2.12204
2.47069
2.7948
2.84836
3.06358
2.97448
2.5972
2.01566
1.25649
0.299758
-0.809573
-1.71985
-1.87207
-1.5616
16.7236
14.3908
15.9445
13.8466
12.4279
11.1845
9.77452
8.39267
7.13525
6.04419
5.14318
4.43062
3.95302
3.92031
4.16518
7.49595
5.47306
6.44726
5.22813
5.02512
5.00921
4.92129
4.95452
5.11004
5.35348
5.67272
6.03557
6.35523
6.61194
6.78669
4.02532
2.86995
3.95542
3.63198
4.01837
4.41223
4.71112
5.06177
5.41834
5.74314
6.03291
6.28691
6.46521
6.54626
6.56196
5.70175
5.1437
5.99754
5.76812
5.96661
6.07941
6.1037
6.14929
6.1741
6.16946
6.14591
6.11819
6.08454
6.03867
5.99017
6.00777
5.6823
6.1932
5.91784
5.96147
5.93126
5.85648
5.80942
5.75376
5.69308
5.63366
5.58032
5.53345
5.4873
5.43611
4.6905
4.48317
4.82965
4.65409
4.72719
4.73585
4.72236
4.73
4.72697
4.71984
4.70995
4.69505
4.67275
4.63745
4.57971
3.32254
3.20654
3.50439
3.4501
3.56869
3.61428
3.64212
3.67671
3.69316
3.69997
3.698
3.68559
3.66165
3.62343
3.55785
2.34558
2.28502
2.53831
2.5383
2.65559
2.69668
2.72605
2.75367
2.76173
2.76005
2.74899
2.72838
2.69866
2.65985
2.59513
1.56223
1.52684
1.72833
1.74172
1.84139
1.86886
1.89231
1.91022
1.91102
1.90443
1.88996
1.86771
1.83807
1.80327
1.74534
0.877321
0.865286
1.02657
1.03233
1.11073
1.12534
1.14354
1.15547
1.15458
1.14928
1.13803
1.12063
1.09544
1.06428
1.0101
0.438082
0.399196
0.456234
0.42522
0.4617
0.442572
0.435407
0.420603
0.39921
0.37628
0.34957
0.320871
0.2905
0.260653
0.217697
)
;

boundaryField
{
    inletFace
    {
        type            zeroGradient;
    }
    inlet
    {
        type            zeroGradient;
    }
    inletWalls
    {
        type            zeroGradient;
    }
    outletInlet
    {
        type            fixedValue;
        value           uniform 0;
    }
}


// ************************************************************************* //
