/*--------------------------------*- C++ -*----------------------------------*\
| =========                 |                                                 |
| \\      /  F ield         | OpenFOAM: The Open Source CFD Toolbox           |
|  \\    /   O peration     | Version:  4.1                                   |
|   \\  /    A nd           | Web:      www.OpenFOAM.org                      |
|    \\/     M anipulation  |                                                 |
\*---------------------------------------------------------------------------*/
FoamFile
{
    version     2.0;
    format      ascii;
    class       surfaceScalarField;
    location    "8";
    object      phi;
}
// * * * * * * * * * * * * * * * * * * * * * * * * * * * * * * * * * * * * * //

dimensions      [0 3 -1 0 0 0 0];

internalField   nonuniform List<scalar> 
420
(
-949.879
2249.78
-1573.96
1924.28
-2054
1779.95
-2424.23
1670.13
-2699.86
1575.82
-2888.38
1488.42
-2993.06
1404.58
-3013.86
1321
-2949.61
1235.66
-2797.23
1147.52
-2551.17
1054.13
-2193
941.735
-1687.17
794.065
-1012.67
625.703
287.231
373.335
1876.44
442.748
1854.86
437.301
1785.39
406.697
1700.73
380.579
1601.94
359.9
1509.1
345.291
1419.19
337.535
1328.76
333.482
1239.71
326.952
1154.05
309.608
1071.48
267.466
983.877
191.428
870.103
111.447
705.683
398.678
33.5745
1842.87
-97.3891
1985.83
-253.613
1941.62
-371.12
1818.24
-473.183
1704.01
-567.533
1603.45
-651.749
1503.4
-725.797
1402.8
-788.075
1301.99
-837.308
1203.28
-868.227
1102.4
-856.088
971.738
-740.334
754.348
-434.283
399.632
-35.6054
28.7732
1814.09
-100.655
2115.25
-225.562
2066.52
-304.499
1897.18
-368.161
1767.67
-416.958
1652.24
-446.233
1532.68
-457.021
1413.59
-451.858
1296.82
-430.16
1181.58
-387.231
1059.47
-311.876
896.382
-192.867
635.338
-48.4093
255.173
-84.0147
169.626
1644.47
146.157
2138.72
123.732
2088.95
122.868
1898.04
126.94
1763.59
135.803
1643.38
149.101
1519.38
166.59
1396.1
186.942
1276.47
208.131
1160.39
229.133
1038.47
243.823
881.69
233.004
646.156
155.228
332.947
71.2131
223.074
1421.4
244.177
2117.62
234.742
2098.39
236.023
1896.76
240.372
1759.25
244.309
1639.44
246.552
1517.14
245.257
1397.4
241.167
1280.56
233.994
1167.57
221.386
1051.07
199.144
903.936
156.147
689.157
78.3073
410.791
149.52
203.302
1218.09
238.359
2082.57
213.608
2123.14
191.406
1918.97
177.199
1773.45
163.77
1652.88
150.035
1530.87
135.893
1411.54
121.068
1295.39
106.915
1181.72
92.8187
1065.17
75.7684
920.987
52.0233
712.903
19.0225
443.792
168.543
171.847
1046.24
221.978
2032.43
199.42
2145.69
170.4
1947.98
152.048
1791.81
137.66
1667.26
122.772
1545.76
108.569
1425.74
95.5768
1308.38
83.0963
1194.2
71.4794
1076.79
58.631
933.834
40.3223
731.211
15.749
468.365
184.292
146.118
900.124
210.074
1968.47
196.891
2158.88
170.054
1974.81
152.406
1809.45
139.531
1680.13
127.072
1558.22
113.867
1438.94
101.327
1320.92
89.4295
1206.09
77.0031
1089.22
63.1008
947.727
44.3134
749.993
19.1662
493.507
203.458
116.766
783.372
184.844
1900.39
179.621
2164.11
154.308
2000.13
137.225
1826.54
124.016
1693.34
111.391
1570.85
98.9927
1451.35
86.1396
1333.78
73.9053
1218.34
62.1329
1100.99
49.0633
960.816
32.896
766.177
13.2186
513.2
216.677
83.1188
700.266
143.088
1840.44
144.648
2162.55
122.75
2022.05
106.148
1843.15
94.4782
1705.03
82.5951
1582.74
71.1905
1462.77
60.4041
1344.57
49.4785
1229.27
39.4368
1111.03
29.7593
970.51
18.1016
777.851
5.25899
526.057
221.936
51.2062
649.052
97.9014
1793.76
102.699
2157.75
87.3879
2037.37
73.1609
1857.37
63.1499
1715.05
54.2492
1591.64
44.8604
1472.15
36.1505
1353.28
28.1692
1237.25
20.4258
1118.78
13.6778
977.246
6.73194
784.785
-0.417825
533.197
221.518
25.1459
623.889
57.7461
1761.15
63.5373
2151.96
53.4823
2047.41
43.8959
1866.96
36.1621
1722.77
29.5323
1598.27
23.477
1478.2
17.0327
1359.72
11.286
1242.99
6.58328
1123.47
2.46432
981.371
-1.07719
788.331
-3.68747
535.81
217.83
1.4608
622.428
24.0896
1738.51
33.3793
2142.67
27.7161
2053.06
20.3514
1874.32
15.0402
1728.07
9.50658
1603.8
4.5588
1483.14
0.0150614
1364.26
-4.85245
1247.86
-8.35717
1126.98
-9.6777
982.677
-9.75552
788.397
-7.17408
533.218
210.656
-11.7286
-3.14278
1.4427
-0.422192
-5.12351
-8.87189
-11.8235
-15.2552
-18.113
-20.2385
-21.7982
-21.1301
-18.1368
-12.395
)
;

boundaryField
{
    inletFace
    {
        type            calculated;
        value           nonuniform List<scalar> 
450
(
-2.06706e-13
5.93553e-13
-2.98337e-13
-2.26767e-13
1.66931e-13
-1.88465e-13
-6.48931e-14
6.68252e-14
-1.07512e-13
-3.68853e-14
4.82636e-14
-6.20713e-14
-1.56683e-14
1.5783e-14
2.75146e-16
-2.01533e-12
-2.14696e-12
-2.416e-14
-6.80186e-13
-3.32451e-13
6.20256e-15
-2.91835e-13
-1.88849e-13
-6.05351e-15
-1.81943e-13
-7.01503e-14
2.29917e-14
-6.32524e-14
-8.22717e-15
-3.39687e-15
-1.96289e-12
-2.21848e-12
-2.37816e-13
-5.33316e-13
-9.28747e-14
-1.2396e-13
-2.54063e-13
-5.88778e-14
-6.41869e-14
-5.07199e-14
-6.17994e-14
-6.52969e-14
-3.65319e-14
2.18193e-14
2.52294e-15
-2.53793e-12
-2.13547e-12
-2.89457e-13
-7.6038e-13
-1.09782e-13
-1.9771e-13
-3.63093e-13
9.7419e-15
-1.20095e-13
-1.07571e-13
-7.03534e-14
-1.1214e-13
-1.16476e-13
4.65828e-14
1.0896e-13
-2.34604e-12
-2.29396e-12
-4.39533e-13
-6.84661e-13
-2.6303e-13
-2.17012e-13
-3.17004e-13
-8.53558e-14
-1.12305e-13
-1.75577e-13
-2.96658e-14
-4.05514e-14
-8.6116e-14
-1.81085e-14
8.67014e-14
-2.04316e-12
-2.41395e-12
-6.07786e-13
-6.21402e-13
-2.34498e-13
-2.01897e-13
-2.97654e-13
-1.09342e-13
-8.71158e-14
-1.03812e-13
1.42124e-14
1.20129e-14
-5.66764e-14
6.05999e-15
8.18414e-14
-1.83449e-12
-2.41637e-12
-8.3767e-13
-5.79998e-13
-2.87856e-13
-2.25149e-13
-2.66178e-13
-1.3851e-13
-1.10082e-13
-9.98741e-14
-5.53594e-14
-6.88257e-14
-9.01073e-14
-6.3316e-14
-1.21246e-13
-1.63494e-12
-2.4328e-12
-1.06943e-12
-6.10031e-13
-3.26731e-13
-2.42321e-13
-2.96318e-13
-1.59834e-13
-1.60083e-13
-1.68992e-13
-1.02486e-13
-1.19842e-13
-1.65865e-14
-9.77787e-15
-2.42814e-13
-1.38469e-12
-2.40477e-12
-1.23843e-12
-6.49489e-13
-3.45648e-13
-2.42631e-13
-3.13822e-13
-1.85616e-13
-1.19606e-13
-1.66382e-13
-1.0982e-13
-1.19681e-13
8.32561e-16
-6.97981e-15
-6.94144e-14
-1.16831e-12
-2.35362e-12
-1.36584e-12
-6.45318e-13
-3.6874e-13
-2.34743e-13
-2.75881e-13
-1.96309e-13
-7.24236e-14
-1.29674e-13
-1.13284e-13
-1.66145e-13
-1.55559e-13
-1.95808e-14
6.24329e-14
-9.94746e-13
-2.26554e-12
-1.46626e-12
-6.59965e-13
-3.46132e-13
-2.02178e-13
-2.47302e-13
-1.97191e-13
-6.89301e-14
-1.08384e-13
-1.18833e-13
-1.12346e-13
-4.28653e-14
-7.5184e-14
1.08902e-13
-8.72268e-13
-2.19345e-12
-1.49621e-12
-7.16844e-13
-3.4221e-13
-1.69269e-13
-2.4097e-13
-2.08311e-13
-5.90012e-14
-1.0573e-13
-1.25868e-13
3.653e-16
4.76503e-14
4.01802e-14
1.57211e-13
-7.91544e-13
-2.15039e-12
-1.52211e-12
-7.52022e-13
-3.85343e-13
-1.76875e-13
-2.32851e-13
-2.27454e-13
-7.11518e-14
-1.03975e-13
-1.18169e-13
1.45433e-14
-1.15893e-14
1.09814e-13
1.3364e-13
-7.38972e-13
-2.0983e-12
-1.54931e-12
-7.60752e-13
-3.92663e-13
-1.7796e-13
-2.25815e-13
-2.44719e-13
-6.92247e-14
-1.0487e-13
-1.21961e-13
1.54637e-14
-1.07421e-14
7.44021e-14
1.101e-13
-7.422e-13
-2.0226e-12
-1.53851e-12
-7.70282e-13
-3.89257e-13
-1.87132e-13
-2.28279e-13
-2.34963e-13
-7.93028e-14
-1.10188e-13
-1.09571e-13
4.08434e-15
-7.83134e-15
7.53605e-14
6.20819e-14
2.06706e-13
-5.93553e-13
2.98337e-13
2.26767e-13
-1.66931e-13
1.88465e-13
6.48931e-14
-6.68252e-14
1.07512e-13
3.68853e-14
-4.82636e-14
6.20713e-14
1.56683e-14
-1.5783e-14
-2.75146e-16
2.01533e-12
2.14696e-12
2.416e-14
6.80186e-13
3.32451e-13
-6.20256e-15
2.91835e-13
1.88849e-13
6.05351e-15
1.81943e-13
7.01503e-14
-2.29917e-14
6.32524e-14
8.22717e-15
3.39687e-15
1.96289e-12
2.21848e-12
2.37816e-13
5.33316e-13
9.28747e-14
1.2396e-13
2.54063e-13
5.88778e-14
6.41869e-14
5.07199e-14
6.17994e-14
6.52969e-14
3.65319e-14
-2.18193e-14
-2.52294e-15
2.53793e-12
2.13547e-12
2.89457e-13
7.6038e-13
1.09782e-13
1.9771e-13
3.63093e-13
-9.7419e-15
1.20095e-13
1.07571e-13
7.03534e-14
1.1214e-13
1.16476e-13
-4.65828e-14
-1.0896e-13
2.34604e-12
2.29396e-12
4.39533e-13
6.84661e-13
2.6303e-13
2.17012e-13
3.17004e-13
8.53558e-14
1.12305e-13
1.75577e-13
2.96658e-14
4.05514e-14
8.6116e-14
1.81085e-14
-8.67014e-14
2.04316e-12
2.41395e-12
6.07786e-13
6.21402e-13
2.34498e-13
2.01897e-13
2.97654e-13
1.09342e-13
8.71158e-14
1.03812e-13
-1.42124e-14
-1.20129e-14
5.66764e-14
-6.05999e-15
-8.18414e-14
1.83449e-12
2.41637e-12
8.3767e-13
5.79998e-13
2.87856e-13
2.25149e-13
2.66178e-13
1.3851e-13
1.10082e-13
9.98741e-14
5.53594e-14
6.88257e-14
9.01073e-14
6.3316e-14
1.21246e-13
1.63494e-12
2.4328e-12
1.06943e-12
6.10031e-13
3.26731e-13
2.42321e-13
2.96318e-13
1.59834e-13
1.60083e-13
1.68992e-13
1.02486e-13
1.19842e-13
1.65865e-14
9.77787e-15
2.42814e-13
1.38469e-12
2.40477e-12
1.23843e-12
6.49489e-13
3.45648e-13
2.42631e-13
3.13822e-13
1.85616e-13
1.19606e-13
1.66382e-13
1.0982e-13
1.19681e-13
-8.32561e-16
6.97981e-15
6.94144e-14
1.16831e-12
2.35362e-12
1.36584e-12
6.45318e-13
3.6874e-13
2.34743e-13
2.75881e-13
1.96309e-13
7.24236e-14
1.29674e-13
1.13284e-13
1.66145e-13
1.55559e-13
1.95808e-14
-6.24329e-14
9.94746e-13
2.26554e-12
1.46626e-12
6.59965e-13
3.46132e-13
2.02178e-13
2.47302e-13
1.97191e-13
6.89301e-14
1.08384e-13
1.18833e-13
1.12346e-13
4.28653e-14
7.5184e-14
-1.08902e-13
8.72268e-13
2.19345e-12
1.49621e-12
7.16844e-13
3.4221e-13
1.69269e-13
2.4097e-13
2.08311e-13
5.90012e-14
1.0573e-13
1.25868e-13
-3.653e-16
-4.76503e-14
-4.01802e-14
-1.57211e-13
7.91544e-13
2.15039e-12
1.52211e-12
7.52022e-13
3.85343e-13
1.76875e-13
2.32851e-13
2.27454e-13
7.11518e-14
1.03975e-13
1.18169e-13
-1.45433e-14
1.15893e-14
-1.09814e-13
-1.3364e-13
7.38972e-13
2.0983e-12
1.54931e-12
7.60752e-13
3.92663e-13
1.7796e-13
2.25815e-13
2.44719e-13
6.92247e-14
1.0487e-13
1.21961e-13
-1.54637e-14
1.07421e-14
-7.44021e-14
-1.101e-13
7.422e-13
2.0226e-12
1.53851e-12
7.70282e-13
3.89257e-13
1.87132e-13
2.28279e-13
2.34963e-13
7.93028e-14
1.10188e-13
1.09571e-13
-4.08434e-15
7.83134e-15
-7.53605e-14
-6.20819e-14
)
;
    }
    inlet
    {
        type            calculated;
        value           nonuniform List<scalar> 
15
(
-1299.9
-1300.2
-1299.9
-1299.9
-1300.2
-1299.9
-1299.9
-1300.2
-1299.9
-1299.9
-1300.2
-1299.9
-1299.9
-1300.2
-1299.9
)
;
    }
    inletWalls
    {
        type            calculated;
        value           uniform 0;
    }
    outletInlet
    {
        type            calculated;
        value           nonuniform List<scalar> 
15
(
198.261
527.482
785.41
982.013
1128.54
1249.99
1367.12
1486.58
1606.75
1731.82
1879.02
2054.92
2138.09
1729.91
634.169
)
;
    }
}


// ************************************************************************* //
