/*--------------------------------*- C++ -*----------------------------------*\
| =========                 |                                                 |
| \\      /  F ield         | OpenFOAM: The Open Source CFD Toolbox           |
|  \\    /   O peration     | Version:  4.1                                   |
|   \\  /    A nd           | Web:      www.OpenFOAM.org                      |
|    \\/     M anipulation  |                                                 |
\*---------------------------------------------------------------------------*/
FoamFile
{
    version     2.0;
    format      ascii;
    class       volVectorField;
    location    "8";
    object      U;
}
// * * * * * * * * * * * * * * * * * * * * * * * * * * * * * * * * * * * * * //

dimensions      [0 1 -1 0 0 0 0];

internalField   nonuniform List<vector> 
225
(
(2.12984e-14 0.85219 15.7946)
(9.17444e-15 -4.89458 12.1215)
(-1.74455e-15 -4.19551 12.1321)
(5.00949e-15 -3.60118 11.9966)
(4.47898e-16 -3.00468 11.8778)
(-2.2817e-16 -2.55319 11.6992)
(1.94551e-15 -2.20881 11.4769)
(2.81899e-16 -1.96603 11.2116)
(-1.13233e-17 -1.79855 10.916)
(1.03853e-15 -1.71238 10.5882)
(8.19101e-17 -1.83746 10.1561)
(-2.80187e-17 -2.28567 9.53762)
(8.77587e-17 -2.51301 8.96378)
(-1.09263e-16 -1.06552 8.91357)
(-1.90478e-18 1.76574 7.47091)
(1.9211e-14 -5.35016 22.493)
(1.48647e-14 -14.6049 21.394)
(1.67255e-16 -13.2708 20.3411)
(3.21412e-15 -11.7697 19.5066)
(2.30176e-15 -11.1561 18.5043)
(-4.29391e-17 -10.6594 17.5174)
(2.13107e-15 -10.0901 16.5714)
(1.30752e-15 -9.525 15.6236)
(4.19072e-17 -8.96543 14.6638)
(1.39038e-15 -8.36731 13.6946)
(4.85692e-16 -7.75709 12.7179)
(-1.59167e-16 -7.30335 11.7194)
(4.30202e-16 -7.01705 10.6244)
(5.69616e-17 -5.73093 9.16113)
(2.35159e-17 -2.30501 4.58319)
(1.56344e-14 -7.71565 23.9801)
(1.53581e-14 -16.7731 24.6729)
(1.64655e-15 -13.7365 23.9372)
(1.41304e-15 -12.3062 22.6249)
(6.42954e-16 -11.6447 21.2414)
(8.58254e-16 -10.814 20.0013)
(2.89882e-15 -9.94024 18.7738)
(2.13069e-15 -9.1001 17.5247)
(4.44405e-16 -8.28337 16.2654)
(2.91586e-15 -7.47523 15.0262)
(4.27826e-16 -6.66761 13.8176)
(4.52091e-16 -5.84164 12.4301)
(-4.72079e-16 -4.81389 10.2752)
(-1.51051e-16 -3.12625 6.68442)
(-1.74678e-17 -0.832132 1.6899)
(1.75627e-14 -8.50259 22.0462)
(1.47836e-14 -16.621 24.3319)
(2.00387e-15 -12.93 23.7971)
(5.26463e-15 -12.1536 21.9985)
(6.88801e-16 -11.42 20.5028)
(1.39304e-15 -10.4936 19.1722)
(2.51394e-15 -9.63386 17.8167)
(-1.46433e-16 -8.82357 16.459)
(8.59251e-16 -8.05361 15.123)
(7.29883e-16 -7.32376 13.8164)
(4.78916e-16 -6.55244 12.4394)
(7.57615e-16 -5.49085 10.583)
(7.81618e-16 -3.78521 7.50861)
(-1.29864e-16 -1.49362 2.76596)
(-1.06904e-15 0.153296 -1.773)
(1.60297e-14 -8.47615 19.748)
(1.3981e-14 -16.3601 24.312)
(2.86447e-15 -13.099 23.6602)
(4.54516e-15 -12.628 21.5365)
(1.51003e-15 -11.8565 20.0248)
(1.28254e-15 -10.9574 18.6637)
(2.07769e-15 -10.1698 17.2587)
(3.42288e-16 -9.40275 15.8711)
(6.45135e-16 -8.65257 14.5235)
(1.14498e-15 -7.93049 13.2135)
(7.35637e-16 -7.16585 11.8292)
(9.57958e-16 -6.11611 9.99621)
(4.89827e-16 -4.42397 7.15546)
(-2.32805e-16 -2.30523 3.2878)
(-3.27745e-16 -0.787161 0.317674)
(1.35526e-14 -8.02192 17.5536)
(1.67533e-14 -16.0195 24.5277)
(4.33515e-15 -13.6434 24.0461)
(4.30189e-15 -12.9943 21.7651)
(1.67253e-15 -12.1264 20.2157)
(1.03373e-15 -11.2247 18.847)
(2.61464e-15 -10.439 17.4341)
(8.16248e-16 -9.64887 16.0433)
(1.36822e-15 -8.86035 14.6933)
(7.18676e-16 -8.09324 13.3817)
(-2.29128e-17 -7.29729 12.0171)
(1.75593e-16 -6.28457 10.2818)
(-7.09674e-16 -4.73298 7.72084)
(3.15654e-16 -2.75611 4.37241)
(1.45179e-15 -0.949388 1.29735)
(1.28342e-14 -7.33746 15.2536)
(1.67495e-14 -15.4909 24.355)
(5.88365e-15 -14.0225 24.4218)
(4.01572e-15 -13.1278 22.0675)
(2.0431e-15 -12.1448 20.4401)
(1.6664e-15 -11.2358 19.0547)
(1.84293e-15 -10.4361 17.6437)
(1.64913e-15 -9.61984 16.2576)
(8.98543e-16 -8.81016 14.9066)
(6.91496e-16 -8.02722 13.5919)
(5.48125e-16 -7.22394 12.2368)
(-9.20148e-17 -6.24024 10.5488)
(6.23874e-16 -4.78749 8.10745)
(6.35087e-17 -2.91409 4.94711)
(2.11184e-15 -1.01087 1.79741)
(1.11333e-14 -6.55634 13.0332)
(1.68434e-14 -14.847 23.8164)
(7.3612e-15 -14.2638 24.669)
(4.22305e-15 -13.2372 22.3215)
(2.26211e-15 -12.1674 20.5832)
(1.56912e-15 -11.2657 19.1667)
(2.10972e-15 -10.4651 17.7586)
(1.10661e-15 -9.64312 16.3766)
(9.70592e-16 -8.83491 15.0245)
(1.24508e-15 -8.05526 13.7073)
(7.09555e-16 -7.25496 12.3576)
(6.39378e-16 -6.28685 10.6995)
(1.31198e-15 -4.89095 8.3309)
(6.76968e-17 -3.08518 5.26762)
(1.18421e-15 -1.1222 2.04394)
(9.58601e-15 -5.77839 11.1238)
(1.66479e-14 -14.1745 23.0906)
(8.44861e-15 -14.4413 24.8462)
(4.49633e-15 -13.3963 22.6148)
(2.39288e-15 -12.2528 20.7553)
(1.51858e-15 -11.3492 19.2955)
(2.17255e-15 -10.5476 17.8904)
(1.285e-15 -9.72538 16.5109)
(6.24209e-16 -8.9194 15.1561)
(1.15184e-15 -8.1402 13.8351)
(7.60273e-16 -7.33993 12.4863)
(-2.93707e-16 -6.38013 10.8512)
(-5.76372e-18 -5.02347 8.54664)
(4.83204e-17 -3.26571 5.55821)
(-4.56223e-16 -1.23747 2.24755)
(7.88922e-15 -5.08486 9.59902)
(1.62939e-14 -13.5191 22.2999)
(9.41338e-15 -14.5349 24.9522)
(4.78807e-15 -13.553 22.9353)
(2.55274e-15 -12.3446 20.9698)
(1.57126e-15 -11.4249 19.4565)
(1.21461e-15 -10.6173 18.0505)
(1.35902e-15 -9.79444 16.672)
(3.65234e-16 -8.98827 15.3135)
(7.49038e-16 -8.20623 13.9873)
(7.84254e-16 -7.40476 12.6356)
(1.05659e-15 -6.45151 11.0132)
(8.45079e-16 -5.12529 8.7551)
(1.35556e-16 -3.4066 5.81957)
(-7.3239e-16 -1.31912 2.431)
(6.73631e-15 -4.53866 8.46227)
(1.59577e-14 -12.9255 21.5504)
(1.02147e-14 -14.5348 24.9757)
(4.56872e-15 -13.6653 23.2209)
(2.89986e-15 -12.4128 21.1811)
(1.18222e-15 -11.4736 19.612)
(1.71199e-15 -10.6591 18.2003)
(1.42852e-15 -9.83702 16.8209)
(2.02155e-16 -9.03211 15.4585)
(7.5031e-16 -8.24862 14.1269)
(9.0568e-16 -7.44653 12.7692)
(1.34438e-15 -6.49778 11.1498)
(1.46065e-15 -5.19267 8.91854)
(-1.64421e-15 -3.50202 6.01075)
(-1.31243e-15 -1.36395 2.5429)
(6.03861e-15 -4.1707 7.70336)
(1.52368e-14 -12.4379 20.928)
(1.02938e-14 -14.4733 24.9366)
(4.96262e-15 -13.7316 23.4378)
(2.41989e-15 -12.4593 21.3594)
(1.08951e-15 -11.5041 19.7405)
(1.66821e-15 -10.6834 18.3207)
(1.53803e-15 -9.86367 16.9392)
(3.73765e-16 -9.06125 15.573)
(7.31955e-16 -8.2777 14.2365)
(8.71371e-16 -7.47498 12.871)
(-9.77904e-17 -6.52688 11.2466)
(-2.71388e-16 -5.23313 9.02663)
(-3.61166e-16 -3.55814 6.1264)
(-9.56576e-16 -1.37749 2.57305)
(5.51723e-15 -3.97381 7.28041)
(1.486e-14 -12.0684 20.4615)
(1.05596e-14 -14.3844 24.8626)
(5.05451e-15 -13.76 23.5828)
(2.66768e-15 -12.4877 21.497)
(1.22449e-15 -11.523 19.8407)
(1.58228e-15 -10.6966 18.4121)
(1.67148e-15 -9.87994 17.028)
(4.57532e-16 -9.08054 15.6585)
(7.19886e-16 -8.29722 14.3171)
(8.60241e-16 -7.49314 12.9422)
(-1.4863e-16 -6.54213 11.3062)
(8.02404e-17 -5.25102 9.08446)
(-6.77715e-16 -3.57896 6.17565)
(-1.07316e-15 -1.36535 2.53913)
(4.98252e-15 -3.90391 7.11049)
(1.45137e-14 -11.8314 20.1817)
(1.07028e-14 -14.2999 24.79)
(5.361e-15 -13.7668 23.6686)
(2.70566e-15 -12.5019 21.5899)
(1.23196e-15 -11.5319 19.9096)
(1.57832e-15 -10.7002 18.4746)
(1.67802e-15 -9.88536 17.0884)
(4.7922e-16 -9.08783 15.7173)
(7.45197e-16 -8.304 14.373)
(8.23342e-16 -7.49777 12.9907)
(-1.0705e-16 -6.5431 11.3434)
(1.03391e-16 -5.25339 9.11728)
(-5.55973e-16 -3.58367 6.20166)
(-7.62185e-16 -1.35009 2.50643)
(5.12334e-15 -4.03919 7.2864)
(1.39952e-14 -11.6269 19.9519)
(1.06579e-14 -14.1917 24.668)
(5.33257e-15 -13.7463 23.7084)
(2.68826e-15 -12.5064 21.6738)
(1.30267e-15 -11.5391 19.9773)
(1.58035e-15 -10.6994 18.535)
(1.61853e-15 -9.88686 17.1437)
(5.57797e-16 -9.09042 15.7694)
(7.62816e-16 -8.30488 14.4183)
(7.53351e-16 -7.48985 13.0147)
(-2.23925e-17 -6.51523 11.328)
(5.42154e-17 -5.20588 9.06117)
(-5.31891e-16 -3.50156 6.08276)
(-4.10708e-16 -1.25238 2.30715)
)
;

boundaryField
{
    inletFace
    {
        type            zeroGradient;
    }
    inlet
    {
        type            fixedValue;
        value           uniform (0 8.7 15);
    }
    inletWalls
    {
        type            noSlip;
    }
    outletInlet
    {
        type            zeroGradient;
    }
}


// ************************************************************************* //
