/*--------------------------------*- C++ -*----------------------------------*\
| =========                 |                                                 |
| \\      /  F ield         | OpenFOAM: The Open Source CFD Toolbox           |
|  \\    /   O peration     | Version:  4.1                                   |
|   \\  /    A nd           | Web:      www.OpenFOAM.org                      |
|    \\/     M anipulation  |                                                 |
\*---------------------------------------------------------------------------*/
FoamFile
{
    version     2.0;
    format      ascii;
    class       volScalarField;
    location    "20";
    object      p;
}
// * * * * * * * * * * * * * * * * * * * * * * * * * * * * * * * * * * * * * //

dimensions      [0 2 -2 0 0 0 0];

internalField   nonuniform List<scalar> 
6785
(
579.765
501.052
453.948
400.445
353.624
308.556
266.609
226.963
189.577
154.307
120.366
87.381
59.4117
30.7013
-9.58722
-38.3393
-56.2636
-46.5151
-53.7766
-53.3652
-55.9589
-56.7902
-57.4429
-57.1446
-55.9849
-53.806
-50.8434
-46.7402
-41.7889
-37.9929
-19.664
-22.8914
-13.6195
-17.6163
-13.5172
-14.129
-12.8915
-12.7011
-12.3099
-12.2112
-12.1605
-12.3052
-12.0218
-11.4642
-8.64141
18.6419
17.8674
21.5869
17.7382
20.6187
18.7385
19.6653
19.2751
19.5738
19.4255
19.2697
19.0511
19.6255
20.4238
22.4262
24.8552
23.8777
26.3521
23.9481
26.8989
25.6062
27.227
27.105
27.7506
27.9153
28.1998
28.4104
28.5361
28.8673
28.6202
21.246
18.0176
19.5708
16.5126
17.9122
15.7689
16.3054
15.1192
14.924
13.9109
12.7112
11.1153
9.88606
8.48914
5.39067
-14.4867
-19.0932
-19.247
-23.2003
-23.9628
-27.673
-29.4739
-32.9315
-35.4604
-38.151
-39.9549
-41.0221
-41.7809
-42.7509
-42.5435
-39.2473
-41.7338
-40.7344
-43.1821
-42.4698
-44.4844
-44.4482
-45.6643
-45.8475
-45.8318
-44.8978
-43.552
-41.751
-40.3629
-37.909
-20.8093
-19.9579
-17.6936
-17.7611
-15.4053
-14.9309
-13.0759
-11.9499
-10.4173
-9.02888
-7.53419
-6.22704
-4.63261
-3.45913
-0.932215
1.52274
3.14012
4.96236
5.40982
7.34021
7.99128
9.49144
10.4752
11.6677
12.7201
13.8053
14.7532
15.8228
16.5751
17.6272
15.7423
16.9852
18.0957
18.3232
19.5625
19.8461
20.7502
21.2609
21.9376
22.5332
23.1945
23.7987
24.5637
25.0997
26.005
25.3627
26.6235
27.4245
27.6923
28.705
28.9961
29.8107
30.3309
31.0067
31.6425
32.3227
32.9724
33.774
34.3164
35.2489
45.4701
45.6892
45.393
45.332
45.7226
45.4207
45.4208
44.8898
44.3069
43.5279
42.8247
42.5428
42.6312
42.9435
43.0698
41.1419
41.4486
39.4525
37.2619
35.4125
33.6799
32.751
31.9453
31.601
31.3152
31.2005
31.1633
31.0504
31.2227
30.5492
74.8674
71.4646
63.9161
56.8162
51.6358
46.0051
41.67
38.3648
34.8934
32.2748
29.9332
27.8888
26.2303
25.4661
24.0132
40.1619
40.6599
41.0859
41.0569
41.2483
41.884
42.8232
42.5785
42.4598
42.3464
42.8726
42.224
42.1275
42.2581
41.4398
41.2687
41.5289
41.4838
40.1918
40.9886
40.7994
39.6761
39.5674
40.4872
40.3344
39.1736
39.1265
40.0512
40.3305
38.8711
40.0547
40.3909
39.3169
39.3404
40.2559
40.8047
39.6701
40.6039
41.2175
40.4737
40.5462
41.2666
41.8262
41.2665
41.3683
41.9494
42.3818
41.8802
42.5409
42.8086
42.5162
42.7367
43.2435
43.9006
43.7578
43.947
44.2945
45.2979
45.2781
45.3925
46.3108
46.2894
46.2515
46.1515
46.9279
47.1274
48.0644
48.3548
47.6308
49.3119
51.1838
46.1725
43.9873
48.4453
53.6898
31.5696
44.2946
52.4471
8.50696
24.5509
35.7684
36.704
42.1056
35.5827
38.8825
46.5119
47.6679
49.6712
50.9959
51.8691
50.7289
53.0882
60.2951
44.2784
44.7997
42.6347
40.7477
39.4093
38.0218
34.9067
36.7919
49.5856
26.9982
26.0108
22.8044
21.3132
21.8077
20.8807
18.3621
15.7961
15.7675
32.7371
17.3452
15.3691
12.8455
10.0071
9.98862
11.2272
9.57143
5.99254
12.2036
13.0973
14.2727
13.6693
10.7033
8.41431
5.62323
7.07723
3.58106
9.26273
16.9047
11.653
11.4148
10.1241
7.57439
5.64918
4.27048
-2.7505
0.373714
15.7876
11.1937
10.173
7.92656
5.04553
3.01583
2.85539
2.40617
0.0108944
-5.83537
8.11532
5.14229
6.01638
5.86624
5.29016
0.949925
0.312451
2.93165
-11.4215
6.43415
3.29006
0.960095
8.54765
1.63138
5.28973
3.84163
6.32382
9.47798
4.70639
7.66819
9.60066
6.54418
7.97901
7.18935
8.27149
9.93932
7.4607
8.50137
7.80827
8.60762
9.70629
7.56855
8.66646
9.28692
7.88432
8.37643
7.94155
8.28689
8.81635
7.69097
8.02549
7.65594
7.88092
8.17275
7.22901
7.56543
7.65816
7.01746
7.11647
6.87305
6.90535
6.95415
6.44186
6.47362
6.2647
6.2497
6.20704
5.7761
5.80039
5.68935
5.35222
5.2886
5.11664
5.09006
5.01011
4.59984
4.53491
4.49693
4.24203
4.1986
3.96207
3.81291
3.78192
3.48453
3.34304
3.24196
3.0632
2.95444
2.72374
2.57587
2.46288
2.30616
2.18675
1.92324
1.68575
1.53385
1.2378
0.924548
0.680037
0.381439
0.123783
0.00215186
0.00380281
0.00541807
0.00683348
0.0081005
0.00941841
0.0106493
0.0119618
0.0132412
0.0145563
0.0158448
0.0171692
0.0185946
0.0202763
0.0223355
0.0248024
0.0276286
0.0307971
0.0342298
0.0378443
0.0415201
0.0450509
0.0481906
0.0507237
0.052677
0.0545431
0.0572792
0.0618507
0.0684527
0.0760159
0.0824334
0.0853081
0.0828917
0.074778
0.0619984
0.0464417
0.0299039
0.0134313
-0.00279818
-0.0192177
-0.0363508
-0.054199
-0.07348
-0.100445
-0.162552
-0.224036
-0.687613
-0.727394
-0.624092
-0.746949
-0.87572
-1.00646
-1.11947
-1.20676
-1.23992
-1.20667
-1.1172
-0.967651
-0.745321
-0.467756
-0.169289
0.0930104
0.301702
0.458036
0.566607
0.632187
0.66445
0.657884
0.628754
0.563499
0.485904
0.396024
0.287473
0.272135
0.115187
0.127909
0.158268
0.128486
0.354024
0.00558314
0.00957585
0.0138225
0.0175599
0.0207089
0.0240735
0.0271135
0.0303994
0.0335588
0.0368113
0.0399656
0.0432026
0.0467044
0.0509122
0.0561608
0.0625112
0.0697972
0.0779579
0.0867659
0.096012
0.105418
0.114485
0.122496
0.128357
0.130626
0.127766
0.118731
0.103729
0.0846303
0.0646635
0.0473287
0.0349269
0.0278553
0.0248735
0.0238708
0.0226659
0.019385
0.0125903
0.00121381
-0.0155823
-0.0387516
-0.0706569
-0.115697
-0.166965
-0.249695
-0.43632
-0.982634
-1.08904
-0.936817
-1.14189
-1.34428
-1.55421
-1.7353
-1.86081
-1.8774
-1.78056
-1.58339
-1.28713
-0.905201
-0.478057
-0.0438317
0.345501
0.67082
0.927792
1.11558
1.23499
1.29572
1.28843
1.23122
1.10951
0.953488
0.78325
0.58917
0.568775
0.319674
0.391082
0.434204
0.370029
1.11565
0.00880763
0.0158851
0.0232814
0.0297707
0.0352998
0.041164
0.0464959
0.0522335
0.057764
0.0634487
0.0689678
0.0746225
0.0807225
0.0880176
0.09708
0.108015
0.120551
0.134587
0.149743
0.165666
0.181882
0.197565
0.211594
0.222397
0.228159
0.227294
0.219206
0.204925
0.187021
0.168689
0.152366
0.138494
0.125769
0.112346
0.0967686
0.0782167
0.0560144
0.0292357
-0.00343124
-0.0436133
-0.0932508
-0.155454
-0.235615
-0.331433
-0.511367
-0.863543
-0.941597
-1.22002
-1.03421
-1.27537
-1.51571
-1.7659
-1.98043
-2.12664
-2.13842
-2.01538
-1.77173
-1.41179
-0.959201
-0.464486
0.0327859
0.480253
0.858124
1.16046
1.38446
1.52913
1.60412
1.59741
1.52968
1.38302
1.1959
0.988515
0.769084
0.7438
0.543302
0.64344
0.724522
0.635573
1.38635
0.0116633
0.0215977
0.0318746
0.0409751
0.0486648
0.0568488
0.0642657
0.0722537
0.0799447
0.0878449
0.0954998
0.103325
0.111756
0.121853
0.134424
0.149605
0.167004
0.186483
0.207505
0.229592
0.252086
0.273835
0.293235
0.308001
0.315456
0.313226
0.300298
0.277901
0.249441
0.219409
0.191681
0.167933
0.14772
0.129428
0.110993
0.0903302
0.0652418
0.0334285
-0.00748683
-0.0599509
-0.126747
-0.212165
-0.322541
-0.454961
-0.699683
-1.19719
-0.846169
-1.52089
-1.24945
-1.52467
-1.82472
-2.13299
-2.39731
-2.57806
-2.59142
-2.43927
-2.13882
-1.69665
-1.14294
-0.539712
0.066258
0.612314
1.07452
1.44556
1.72174
1.90142
1.99595
1.98997
1.90934
1.73037
1.50382
1.24742
0.989886
0.951106
0.760121
0.8983
1.001
0.897775
1.64968
0.0142455
0.027279
0.0404603
0.0522912
0.0622215
0.0728232
0.0824155
0.0927507
0.1027
0.112911
0.122788
0.132857
0.143682
0.15665
0.172824
0.192362
0.214752
0.239818
0.266867
0.295298
0.324245
0.35217
0.376885
0.395319
0.404065
0.400444
0.383863
0.356627
0.323345
0.28918
0.257878
0.230384
0.205508
0.181202
0.15525
0.125544
0.0897729
0.0453072
-0.0108009
-0.0817771
-0.171327
-0.284445
-0.427608
-0.601529
-0.91146
-1.48427
-0.737493
-1.85658
-1.48252
-1.78276
-2.15023
-2.52193
-2.84133
-3.05983
-3.07291
-2.88702
-2.52248
-1.98847
-1.32478
-0.6061
0.113506
0.763161
1.31512
1.76002
2.09275
2.31059
2.42655
2.42178
2.32677
2.1124
1.84117
1.53043
1.22812
1.17364
0.981006
1.14952
1.27742
1.17037
1.9274
0.016543
0.032728
0.0486641
0.0632289
0.0753305
0.0883207
0.10004
0.112685
0.12485
0.137328
0.149369
0.161599
0.174716
0.190456
0.210146
0.233954
0.261235
0.291783
0.324734
0.359369
0.394577
0.428344
0.457764
0.478888
0.487626
0.481202
0.459657
0.426363
0.386799
0.346421
0.308933
0.275264
0.244451
0.214655
0.183497
0.148286
0.105831
0.0525466
-0.0154429
-0.10225
-0.212484
-0.351774
-0.526451
-0.739508
-1.09152
-1.67312
-0.722179
-2.20724
-1.71438
-2.01542
-2.45083
-2.88386
-3.25653
-3.51147
-3.52245
-3.30281
-2.87594
-2.25353
-1.48532
-0.657834
0.168178
0.914649
1.55055
2.06443
2.45003
2.70366
2.84
2.83676
2.72863
2.48117
2.168
1.80532
1.46203
1.392
1.20217
1.4007
1.54913
1.44638
2.23949
0.0185893
0.0380904
0.0566731
0.0740311
0.0882871
0.103692
0.117547
0.132524
0.146927
0.161689
0.175896
0.190266
0.205632
0.224104
0.247302
0.275382
0.307561
0.343599
0.382453
0.423266
0.464593
0.503806
0.537146
0.559811
0.567333
0.557363
0.531112
0.493201
0.449686
0.405807
0.364771
0.327106
0.291752
0.256868
0.219908
0.177826
0.126885
0.0628352
-0.0189549
-0.123428
-0.256046
-0.422844
-0.629808
-0.882226
-1.26365
-1.82795
-0.907813
-2.57489
-1.97504
-2.24761
-2.75656
-3.25238
-3.68022
-3.97359
-3.98209
-3.72801
-3.2381
-2.52638
-1.65242
-0.71409
0.220593
1.06565
1.7866
2.36986
2.80839
3.09782
3.25482
3.25369
3.13328
2.85353
2.49914
2.08428
1.7003
1.61318
1.42599
1.6504
1.81889
1.72656
2.48088
0.0203901
0.0433428
0.0644158
0.0846038
0.10096
0.118779
0.134747
0.152052
0.168686
0.185724
0.202068
0.218517
0.236046
0.257171
0.283831
0.316148
0.353188
0.394676
0.439357
0.486185
0.53324
0.577117
0.613144
0.635863
0.640891
0.626865
0.596381
0.554934
0.508464
0.46152
0.416783
0.374686
0.334473
0.294579
0.252362
0.204298
0.145892
0.0720325
-0.0227998
-0.14441
-0.299036
-0.492976
-0.7318
-1.02156
-1.4199
-1.97103
-1.33602
-2.90205
-2.26173
-2.47848
-3.06949
-3.6305
-4.11614
-4.45081
-4.45626
-4.16618
-3.61115
-2.80738
-1.82485
-0.772579
0.273628
1.2196
2.0275
2.68132
3.17354
3.49932
3.67763
3.67933
3.54716
3.23539
2.83931
2.37105
1.94489
1.83896
1.65162
1.8995
2.08691
2.00813
2.67153
0.0219613
0.0485363
0.0719391
0.0950068
0.113413
0.133654
0.151723
0.171363
0.190234
0.209553
0.228017
0.246491
0.266096
0.289801
0.319891
0.356428
0.398316
0.445226
0.495633
0.548194
0.600322
0.647706
0.684861
0.706084
0.707735
0.68995
0.656599
0.613427
0.565681
0.516976
0.469518
0.423735
0.379231
0.334692
0.28734
0.233172
0.166978
0.082838
-0.0255987
-0.164931
-0.34203
-0.563274
-0.833791
-1.15898
-1.56841
-2.12806
-1.9657
-3.09362
-2.56422
-2.70272
-3.38579
-4.01473
-4.55952
-4.93777
-4.93917
-4.61121
-3.98911
-3.09093
-1.99791
-0.830109
0.329206
1.37685
2.27227
2.99671
3.54255
3.90467
4.10463
4.10989
3.96666
3.62358
3.1857
2.66337
2.19393
2.06784
1.87912
2.14756
2.35466
2.29057
2.90911
0.0233088
0.0536828
0.0792339
0.105228
0.125619
0.148285
0.168432
0.190408
0.21152
0.233119
0.253679
0.274109
0.295686
0.321877
0.355361
0.396097
0.442806
0.495069
0.550977
0.60872
0.664846
0.714146
0.750626
0.768987
0.767062
0.746622
0.712202
0.669026
0.621196
0.571333
0.521342
0.471876
0.423101
0.374055
0.32184
0.261916
0.188269
0.0940999
-0.0277988
-0.184761
-0.384111
-0.632133
-0.933486
-1.29152
-1.71065
-2.29646
-2.64691
-3.04889
-2.87423
-2.92089
-3.70663
-4.40855
-5.01336
-5.43717
-5.43346
-5.06545
-4.37397
-3.37863
-2.17277
-0.88766
0.387037
1.53726
2.52092
3.31604
3.91537
4.31377
4.53573
4.54541
4.39191
4.01839
3.53852
2.96149
2.44748
2.29996
2.1084
2.3948
2.62254
2.57369
3.18678
0.0244397
0.0588096
0.086316
0.115288
0.137593
0.162686
0.184888
0.209204
0.232562
0.256448
0.279081
0.301394
0.324822
0.3534
0.390245
0.43516
0.486654
0.544129
0.605109
0.667106
0.725711
0.775007
0.809046
0.823806
0.819077
0.79782
0.764363
0.72282
0.67598
0.625565
0.573388
0.520488
0.4677
0.41443
0.357609
0.292104
0.211053
0.106777
-0.0287421
-0.203444
-0.424868
-0.699014
-1.03007
-1.4186
-1.84965
-2.45806
-3.16989
-2.81393
-3.20182
-3.13846
-4.032
-4.81535
-5.48136
-5.95202
-5.94197
-5.53137
-4.76774
-3.67182
-2.35017
-0.945395
0.447253
1.70143
2.7741
3.6401
4.2928
4.72746
4.97184
4.98687
4.82393
4.42088
3.89861
3.26613
2.70584
2.53577
2.33973
2.64119
2.89045
2.85767
3.4895
0.0253565
0.0639343
0.0931882
0.125191
0.14933
0.176848
0.201078
0.227736
0.253348
0.279527
0.304211
0.328323
0.353465
0.384318
0.42449
0.473556
0.52975
0.592133
0.657418
0.722285
0.781438
0.828664
0.858944
0.870366
0.864517
0.844625
0.81403
0.775433
0.730322
0.679669
0.625398
0.569095
0.5124
0.455119
0.393978
0.323171
0.234919
0.120634
-0.0284632
-0.220755
-0.463738
-0.76296
-1.12217
-1.53908
-1.98548
-2.59902
-3.44598
-2.64423
-3.56487
-3.36699
-4.36056
-5.23696
-5.96684
-6.48459
-6.4662
-6.01004
-5.1711
-3.97063
-2.52986
-1.00279
0.510343
1.87022
3.03238
3.96915
4.67505
5.14577
5.41297
5.43438
5.26289
4.83136
4.2661
3.57743
2.96889
2.77536
2.57331
2.88688
3.15815
3.14191
3.78515
0.0260599
0.0690777
0.0998581
0.134947
0.160832
0.190773
0.217
0.246004
0.273879
0.302364
0.329075
0.354895
0.381594
0.414599
0.458065
0.511225
0.571929
0.63864
0.707025
0.772938
0.830433
0.87376
0.899927
0.909384
0.904656
0.888272
0.862129
0.827487
0.784635
0.733951
0.67765
0.618004
0.557568
0.496556
0.431419
0.35558
0.260268
0.135992
-0.026691
-0.236391
-0.500301
-0.82341
-1.20914
-1.65288
-2.11902
-2.73009
-3.59866
-2.80674
-3.87323
-3.61343
-4.69033
-5.67428
-6.47367
-7.03808
-7.00822
-6.50287
-5.58508
-4.2755
-2.71186
-1.05955
0.576839
2.04426
3.29676
4.30361
5.06213
5.56872
5.85906
5.88796
5.70888
5.25006
4.6411
3.89543
3.23648
3.01875
2.80933
3.13185
3.42597
3.42341
4.02156
0.0265472
0.0742584
0.10633
0.144564
0.172099
0.204457
0.232647
0.263999
0.294149
0.324956
0.353674
0.381101
0.409182
0.444196
0.490911
0.548038
0.612852
0.68291
0.752743
0.817523
0.871152
0.909552
0.932508
0.942168
0.940868
0.929805
0.909327
0.879358
0.839099
0.788453
0.730082
0.667075
0.603028
0.538563
0.46978
0.389201
0.286984
0.152749
-0.023466
-0.250267
-0.534341
-0.880092
-1.29077
-1.76035
-2.25082
-2.8652
-3.7384
-3.339
-3.92177
-3.87127
-5.01926
-6.12717
-7.0058
-7.61642
-7.57066
-7.01159
-6.01098
-4.58706
-2.89632
-1.11546
0.647257
2.22412
3.56814
4.64457
5.45441
5.99625
6.31008
6.34768
6.16209
5.6773
5.02375
4.2202
3.50839
3.26593
3.04786
3.3762
3.694
3.70313
4.31236
0.026813
0.0794963
0.112607
0.15405
0.183131
0.217895
0.248012
0.281713
0.314156
0.347308
0.378017
0.40694
0.436199
0.473061
0.522942
0.583759
0.651942
0.723925
0.793181
0.854447
0.902542
0.93631
0.95802
0.97028
0.974406
0.970059
0.95612
0.931326
0.893863
0.843239
0.782708
0.716301
0.64879
0.581193
0.509144
0.424103
0.315075
0.170849
-0.0188644
-0.262437
-0.565928
-0.933231
-1.36756
-1.86241
-2.38107
-3.00946
-3.88008
-3.90332
-3.65113
-4.16488
-5.35362
-6.59476
-7.5671
-8.22477
-8.15686
-7.53792
-6.45012
-4.90592
-3.08331
-1.17022
0.722155
2.41046
3.84712
4.99298
5.85269
6.42845
6.766
6.81355
6.62258
6.11331
5.41411
4.5517
3.78431
3.51674
3.28884
3.61989
3.96173
3.97955
4.51729
0.0268488
0.0848112
0.118693
0.16341
0.193924
0.231084
0.263086
0.299139
0.333896
0.369423
0.40211
0.432411
0.462613
0.50112
0.553992
0.617945
0.68834
0.760463
0.8268
0.882375
0.924511
0.955281
0.978168
0.995161
1.00625
1.00961
1.00283
0.983556
0.948992
0.898297
0.835443
0.76555
0.694719
0.624337
0.549409
0.460144
0.344313
0.189985
-0.0132215
-0.273242
-0.59549
-0.983494
-1.44058
-1.96041
-2.50981
-3.16078
-4.01234
-4.23104
-3.4031
-4.54199
-5.71494
-7.07585
-8.15899
-8.86693
-8.77103
-8.08409
-6.90381
-5.23274
-3.27295
-1.2235
0.802134
2.60397
4.13436
5.34931
6.2577
6.86569
7.22645
7.28542
7.09037
6.55826
5.81219
4.88978
4.0638
3.77087
3.53205
3.86294
4.23006
4.24991
4.77075
0.0266426
0.0902245
0.124591
0.172653
0.204479
0.244018
0.27786
0.316267
0.353362
0.391304
0.425966
0.457514
0.48838
0.528249
0.583747
0.64989
0.720996
0.791151
0.852097
0.900788
0.938118
0.968284
0.994595
1.01796
1.03709
1.04886
1.04966
1.03617
1.00454
0.95361
0.888207
0.81471
0.740718
0.667926
0.590497
0.497143
0.374363
0.20969
-0.0070849
-0.28329
-0.623753
-1.03186
-1.5112
-2.05603
-2.63777
-3.31723
-4.15108
-4.44916
-3.56969
-4.8679
-6.11694
-7.56813
-8.78523
-9.5471
-9.41718
-8.65285
-7.37355
-5.56819
-3.46535
-1.27496
0.88783
2.80537
4.43056
5.71402
6.66987
7.30839
7.69147
7.76314
7.5654
7.01229
6.21794
5.23422
4.34632
4.02787
3.77712
4.10534
4.49831
4.51761
5.1077
0.0261784
0.0957592
0.1303
0.181783
0.214792
0.256689
0.292323
0.333084
0.37255
0.412958
0.4496
0.482247
0.513425
0.554219
0.611652
0.678683
0.748754
0.814474
0.868095
0.910398
0.94522
0.977156
1.00861
1.03948
1.06739
1.08806
1.09676
1.08927
1.06055
1.00915
0.940898
0.86364
0.786665
0.711863
0.63225
0.534768
0.404669
0.229227
-0.0012699
-0.293411
-0.651602
-1.07941
-1.58083
-2.15102
-2.76625
-3.4786
-4.31247
-4.70188
-4.20092
-4.88025
-6.56423
-8.07232
-9.45244
-10.2753
-10.1013
-9.24729
-7.86126
-5.91298
-3.66069
-1.32427
0.979912
3.01543
4.73646
6.08766
7.08936
7.75694
8.16138
8.2464
8.04758
7.47546
6.63126
5.58468
4.63124
4.2871
4.02355
4.34701
4.76556
4.78329
5.38102
0.0254358
0.10144
0.135821
0.190808
0.22486
0.26909
0.306464
0.349579
0.391454
0.434392
0.473028
0.506597
0.537609
0.578606
0.636924
0.70337
0.770281
0.82907
0.874992
0.912993
0.947838
0.983391
1.02115
1.06024
1.09745
1.12739
1.14429
1.14297
1.11709
1.06491
0.993424
0.912222
0.832479
0.756076
0.674463
0.572536
0.434439
0.247619
0.00324497
-0.304492
-0.679878
-1.12704
-1.65063
-2.24686
-2.89666
-3.64475
-4.4965
-4.98137
-4.81216
-4.61097
-7.11456
-8.60254
-10.1623
-11.0594
-10.8318
-9.87288
-8.36899
-6.26796
-3.85915
-1.37105
1.07909
3.23497
5.05282
6.47071
7.5163
8.21133
8.63594
8.73478
8.5367
7.94781
7.05201
5.94075
4.91787
4.54775
4.27074
4.58787
5.03131
5.04688
5.64976
0.0243898
0.107296
0.141154
0.199732
0.234679
0.28121
0.320269
0.365736
0.410065
0.455612
0.496262
0.530514
0.560647
0.600733
0.658748
0.722928
0.784036
0.834479
0.874326
0.910749
0.947658
0.988031
1.03279
1.08058
1.12748
1.16704
1.1924
1.19742
1.17425
1.12089
1.04571
0.960369
0.878126
0.800505
0.716834
0.609721
0.46259
0.263714
0.00549335
-0.317265
-0.709189
-1.17537
-1.72133
-2.34457
-3.03027
-3.8164
-4.6976
-5.26687
-5.19681
-4.47703
-7.80187
-9.187
-10.9122
-11.9008
-11.6159
-10.5358
-8.90013
-6.63417
-4.0609
-1.41493
1.18611
3.46486
5.38044
6.86371
7.95083
8.67138
9.1153
9.22843
9.03257
8.42931
7.47998
6.30189
5.20542
4.80883
4.51801
4.82779
5.29525
5.31095
5.91114
0.0230091
0.113359
0.146298
0.208561
0.244246
0.293041
0.333722
0.381538
0.428373
0.476619
0.519292
0.553856
0.582009
0.619813
0.67643
0.735969
0.788873
0.831731
0.868368
0.90557
0.945856
0.991729
1.04388
1.10072
1.15768
1.20719
1.2413
1.25285
1.2322
1.17715
1.09771
1.00805
0.923643
0.845092
0.758884
0.645279
0.487812
0.276405
0.00477647
-0.332117
-0.739766
-1.22457
-1.79315
-2.44457
-3.16805
-3.99538
-4.91493
-5.57021
-5.58129
-4.86025
-8.52116
-9.85198
-11.7012
-12.7996
-12.4569
-11.242
-9.45998
-7.01278
-4.26626
-1.45552
1.30178
3.70601
5.72017
7.26718
8.39302
9.13682
9.59948
9.72744
9.53497
8.91991
7.91494
6.66745
5.49304
5.06914
4.76458
5.06657
5.55667
5.57375
6.22914
0.0212562
0.119663
0.15125
0.2173
0.253556
0.304569
0.346807
0.396965
0.446364
0.497402
0.542053
0.576273
0.600938
0.635264
0.689053
0.740863
0.785017
0.823035
0.859269
0.89879
0.943158
0.994863
1.05466
1.12086
1.18827
1.24812
1.29126
1.30954
1.29113
1.23379
1.14943
1.05531
0.969148
0.889724
0.799802
0.677799
0.508784
0.284937
0.00086961
-0.348972
-0.771397
-1.27437
-1.86582
-2.54678
-3.31046
-4.18352
-5.15021
-5.90167
-6.09005
-5.83024
-9.13261
-10.603
-12.5319
-13.7583
-13.3552
-11.9964
-10.0535
-7.40628
-4.47565
-1.49242
1.42692
3.95939
6.0729
7.68165
8.84291
9.60732
10.0879
10.2312
10.0434
9.41946
8.35659
7.03665
5.77981
5.32734
5.0096
5.30384
5.81452
5.83636
6.4877
0.0190854
0.12625
0.156008
0.225954
0.262602
0.31578
0.359504
0.411991
0.464009
0.51791
0.564331
0.597108
0.616795
0.646719
0.695048
0.736775
0.774325
0.810803
0.848569
0.891219
0.939971
0.997662
1.06531
1.14121
1.21953
1.29015
1.34266
1.36786
1.35135
1.29093
1.20091
1.10227
1.01484
0.934062
0.838266
0.705686
0.52456
0.289164
-0.00587726
-0.367253
-0.803399
-1.32402
-1.93867
-2.65072
-3.4575
-4.38192
-5.40526
-6.26483
-6.71368
-7.09634
-9.50594
-11.4414
-13.4121
-14.7813
-14.3107
-12.8009
-10.6845
-7.81821
-4.6895
-1.52521
1.56244
4.22606
6.43958
8.10767
9.30048
10.0825
10.5801
10.7392
10.5577
9.92776
8.8046
7.40855
6.06474
5.58193
5.25206
5.53895
6.06833
6.09833
6.77756
0.016442
0.133168
0.160568
0.234526
0.271381
0.326659
0.371788
0.426582
0.481258
0.538001
0.585611
0.615534
0.6294
0.653204
0.692822
0.724691
0.759382
0.796863
0.837197
0.883299
0.936529
1.00031
1.07604
1.16205
1.25181
1.33369
1.39595
1.42831
1.4132
1.34876
1.25218
1.14917
1.06093
0.977213
0.872431
0.727613
0.53494
0.289652
-0.0145519
-0.385903
-0.834652
-1.37243
-2.0107
-2.75563
-3.60884
-4.59089
-5.68121
-6.66098
-7.40077
-8.33832
-9.64685
-12.3929
-14.354
-15.8742
-15.3253
-13.6555
-11.3568
-8.25141
-4.90889
-1.55357
1.70927
4.50713
6.82119
8.5458
9.76565
10.5618
11.0752
11.2516
11.0784
10.4446
9.25854
7.78208
6.34679
5.83127
5.49072
5.77113
6.3168
6.35464
7.05766
0.0132601
0.14047
0.164928
0.24302
0.279886
0.337187
0.383632
0.440688
0.498003
0.557312
0.604993
0.631042
0.638394
0.652263
0.681721
0.707173
0.742508
0.782277
0.825639
0.875271
0.933009
1.003
1.08711
1.18373
1.28556
1.37928
1.4517
1.49146
1.47709
1.40739
1.30328
1.19641
1.1073
1.01738
0.900365
0.743084
0.540612
0.287611
-0.023758
-0.403458
-0.863685
-1.4182
-2.08073
-2.86064
-3.76394
-4.81009
-5.97793
-7.08926
-8.10541
-9.3419
-9.7662
-13.5244
-15.3715
-17.0406
-16.4027
-14.5594
-12.0722
-8.70763
-5.13618
-1.57723
1.86841
4.80381
7.21882
8.99662
10.2383
11.0447
11.5726
11.7677
11.6054
10.9696
9.71795
8.15599
6.62485
6.07367
5.72437
5.99965
6.55934
6.60826
7.29905
0.00946067
0.148219
0.169084
0.251439
0.28811
0.347339
0.394993
0.454225
0.514011
0.575084
0.621521
0.643724
0.643054
0.643642
0.664113
0.686429
0.724922
0.767626
0.814148
0.867297
0.929601
1.00599
1.09885
1.20668
1.32134
1.42755
1.51062
1.55802
1.54345
1.4668
1.35425
1.24455
1.15289
1.05197
0.920873
0.752747
0.543048
0.284749
-0.0317316
-0.418161
-0.888824
-1.45983
-2.14754
-2.9648
-3.92204
-5.03862
-6.29413
-7.54734
-8.81234
-10.1507
-10.1068
-14.8778
-16.4842
-18.281
-17.5467
-15.5131
-12.8311
-9.18818
-5.37333
-1.59593
2.0409
5.11741
7.63362
9.46072
10.7182
11.5305
12.0711
12.2868
12.1384
11.5026
10.1822
8.52882
6.89771
6.3076
5.95187
6.22364
6.79532
6.85854
7.58233
0.00494879
0.156488
0.173033
0.259782
0.296044
0.357084
0.405811
0.467047
0.52877
0.590197
0.634792
0.653173
0.639934
0.62264
0.642362
0.66506
0.707363
0.75306
0.802866
0.859558
0.926549
1.00959
1.11167
1.23143
1.35982
1.4793
1.57355
1.62878
1.61253
1.5266
1.40534
1.29376
1.19502
1.07854
0.934203
0.758278
0.544249
0.283093
-0.0364902
-0.428138
-0.908389
-1.49595
-2.21005
-3.06722
-4.08222
-5.27507
-6.62747
-8.03196
-9.52547
-10.9305
-10.8694
-16.3397
-17.7141
-19.5952
-18.7595
-16.5186
-13.6328
-9.69435
-5.62065
-1.60965
2.22783
5.44935
8.06682
9.93874
11.2051
12.0185
12.57
12.8078
12.6768
12.0428
10.6507
8.89888
7.16407
6.53161
6.17202
6.44176
7.02355
7.09987
7.85412
-0.000389948
0.165361
0.176771
0.268046
0.303674
0.366376
0.41599
0.478853
0.541373
0.601691
0.644309
0.656004
0.623978
0.595285
0.618272
0.642487
0.690052
0.738755
0.791956
0.852282
0.924154
1.01417
1.12604
1.25861
1.40179
1.53544
1.64146
1.70451
1.68411
1.58604
1.45721
1.34266
1.22981
1.09618
0.942111
0.76199
0.546492
0.284811
-0.036024
-0.431612
-0.920917
-1.52542
-2.2674
-3.16708
-4.24341
-5.51765
-6.97486
-8.53819
-10.2449
-11.7423
-12.1219
-17.818
-19.0826
-20.9866
-20.041
-17.5782
-14.4768
-10.2264
-5.87781
-1.61894
2.43034
5.80119
8.51978
10.4313
11.6987
12.5077
13.0678
13.3299
13.2203
12.5895
11.1224
9.26416
7.42244
6.74426
6.38319
6.65213
7.2434
7.33777
8.07304
-0.00669378
0.174938
0.180297
0.276223
0.310976
0.375146
0.425359
0.489057
0.550773
0.609402
0.649448
0.649652
0.597024
0.568275
0.593559
0.620272
0.673147
0.724844
0.781667
0.84577
0.922774
1.02017
1.14254
1.28896
1.44822
1.59708
1.71544
1.7857
1.75706
1.64448
1.51031
1.38719
1.25408
1.10626
0.947291
0.766431
0.552105
0.291998
-0.0285208
-0.427131
-0.925347
-1.54751
-2.31898
-3.26363
-4.40442
-5.76433
-7.33278
-9.05972
-10.9663
-12.6095
-13.8113
-19.236
-20.6009
-22.4637
-21.3903
-18.6938
-15.3632
-10.7835
-6.14486
-1.62408
2.64961
6.17466
8.99397
10.9392
12.1986
12.9972
13.5635
13.8519
13.7694
13.1428
11.5962
9.62231
7.671
6.94448
6.584
6.85339
7.45417
7.56462
8.35031
-0.0141306
0.18533
0.183604
0.284294
0.317915
0.383287
0.433584
0.496781
0.55661
0.614723
0.651717
0.630018
0.56864
0.540758
0.56711
0.598356
0.656674
0.711601
0.772285
0.840356
0.922806
1.02808
1.16179
1.32333
1.50021
1.66542
1.79652
1.87201
1.82911
1.70214
1.56293
1.4216
1.26746
1.11192
0.952682
0.774091
0.563241
0.306457
-0.0125941
-0.413752
-0.921126
-1.56189
-2.36444
-3.3562
-4.56403
-6.01297
-7.69746
-9.58931
-11.6838
-13.5435
-15.8233
-20.47
-22.2503
-24.0381
-22.8083
-19.8668
-16.2922
-11.3646
-6.42183
-1.62464
2.88697
6.57171
9.49106
11.463
12.7041
13.4858
14.0555
14.3726
14.3239
13.7025
12.0706
9.97051
7.90753
7.13223
6.77487
7.04565
7.65519
7.78651
8.56427
-0.0229055
0.196666
0.186684
0.292224
0.324426
0.390607
0.440092
0.501364
0.559761
0.619493
0.645819
0.605324
0.541326
0.511847
0.539453
0.576907
0.640844
0.699302
0.764118
0.836402
0.924682
1.03845
1.18453
1.36271
1.55899
1.74179
1.88536
1.96142
1.89764
1.7597
1.60937
1.44169
1.27299
1.11682
0.961014
0.787174
0.58166
0.329471
0.0125407
-0.391134
-0.908195
-1.56855
-2.40356
-3.44413
-4.72094
-6.26134
-8.06484
-10.1194
-12.3915
-14.5326
-17.9208
-21.3468
-23.982
-25.7221
-24.2981
-21.0982
-17.2638
-11.9684
-6.70836
-1.61921
3.14405
6.99466
10.0129
12.0037
13.2148
13.9724
14.5422
14.8905
14.8837
14.2676
12.544
10.3053
8.12922
7.30728
6.95754
7.22902
7.84679
8.0012
8.79914
-0.0332706
0.209089
0.189522
0.299956
0.330403
0.396765
0.444231
0.503261
0.562238
0.623093
0.628825
0.583141
0.512987
0.482807
0.510904
0.556273
0.62591
0.688253
0.757484
0.83428
0.928854
1.05185
1.21154
1.40815
1.62593
1.82743
1.98148
2.04966
1.96154
1.81552
1.64148
1.44811
1.27556
1.12421
0.974563
0.80738
0.608519
0.36165
0.0470056
-0.35948
-0.886847
-1.56764
-2.43613
-3.5267
-4.87379
-6.50705
-8.43063
-10.6426
-13.0846
-15.5364
-19.7514
-21.7978
-25.7673
-27.5278
-25.8639
-22.3903
-18.2775
-12.5934
-7.00337
-1.6056
3.42275
7.44624
10.5618
12.562
13.7298
14.4556
15.022
15.404
15.4484
14.8369
13.0137
10.6225
8.3325
7.46833
7.13309
7.40295
8.02872
8.19823
9.02285
-0.0455376
0.222753
0.192084
0.307397
0.335656
0.401281
0.445959
0.504722
0.568176
0.617788
0.611339
0.561598
0.483897
0.454277
0.481436
0.536817
0.612074
0.678769
0.752707
0.83437
0.935779
1.06888
1.24363
1.46081
1.70243
1.92314
2.08207
2.13128
2.02165
1.86253
1.65393
1.44637
1.27973
1.13657
0.994979
0.835725
0.644244
0.402896
0.0903527
-0.319351
-0.857518
-1.55927
-2.46181
-3.60304
-5.02103
-6.74751
-8.79017
-11.1521
-13.7591
-16.5066
-21.0459
-22.0695
-27.6703
-29.4757
-27.5094
-23.7466
-19.3325
-13.2377
-7.30479
-1.58143
3.72535
7.92973
11.1404
13.139
14.2483
14.9339
15.493
15.9113
16.0175
15.4089
13.4768
10.9169
8.51283
7.61358
7.30157
7.56702
8.20141
8.38744
9.18742
-0.0600924
0.237812
0.194317
0.314398
0.339879
0.403816
0.446266
0.507389
0.574745
0.605938
0.597359
0.539149
0.455162
0.426869
0.45144
0.519061
0.599635
0.671166
0.750085
0.837028
0.945891
1.09011
1.28161
1.52181
1.7898
2.0285
2.18086
2.20288
2.07731
1.89013
1.64889
1.44359
1.28868
1.15551
1.02312
0.87244
0.68853
0.452545
0.141798
-0.271405
-0.820551
-1.54337
-2.48008
-3.67212
-5.16097
-6.97984
-9.1386
-11.6423
-14.4123
-17.4239
-21.909
-22.5554
-29.7799
-31.6087
-29.2377
-25.1709
-20.4286
-13.8988
-7.60971
-1.5445
4.05451
8.44908
11.752
13.7356
14.7692
15.4057
15.9531
16.4105
16.5909
15.9814
13.929
11.1822
8.66442
7.74082
7.46294
7.72113
8.36525
8.56553
9.37959
-0.0774095
0.254403
0.196129
0.320722
0.342751
0.404811
0.447585
0.514334
0.573509
0.596776
0.58408
0.516605
0.427171
0.401335
0.421728
0.503361
0.588828
0.665738
0.749898
0.842567
0.959563
1.11605
1.32623
1.59226
1.88897
2.14035
2.26913
2.26545
2.12121
1.89173
1.63513
1.44521
1.30406
1.18175
1.05902
0.917024
0.740526
0.509638
0.200523
-0.216138
-0.77603
-1.51958
-2.49016
-3.73272
-5.29173
-7.20089
-9.4711
-12.1091
-15.044
-18.2995
-22.6717
-23.6482
-31.9876
-33.9957
-31.0549
-26.6673
-21.5672
-14.5744
-7.91474
-1.4923
4.41326
9.00897
12.4009
14.3533
15.2914
15.8693
16.4001
16.8993
17.1684
16.5516
14.3646
11.4101
8.77972
7.84734
7.61731
7.86565
8.52014
8.72143
9.56022
-0.0980544
0.272608
0.197381
0.326059
0.344236
0.405496
0.451308
0.522581
0.568314
0.591037
0.570724
0.494695
0.400228
0.378387
0.393435
0.490201
0.579975
0.66276
0.752373
0.851236
0.977075
1.14707
1.37811
1.6731
1.99982
2.25125
2.34035
2.32074
2.14053
1.87117
1.62251
1.45369
1.32637
1.21507
1.10197
0.968481
0.799157
0.573261
0.265945
-0.153717
-0.7237
-1.4873
-2.49111
-3.78351
-5.41125
-7.40731
-9.78349
-12.5506
-15.6544
-19.1461
-23.5147
-25.5881
-34.1636
-36.691
-32.9697
-28.2401
-22.7512
-15.2629
-8.21632
-1.42141
4.80503
9.61484
13.0926
14.9939
15.8134
16.3227
16.8317
17.3756
17.7499
17.1157
14.776
11.5906
8.84916
7.92978
7.76502
8.00132
8.66648
8.86756
9.67546
-0.122653
0.292388
0.19788
0.330173
0.344966
0.407792
0.459181
0.52576
0.566434
0.586156
0.558155
0.473571
0.374795
0.358208
0.367787
0.479871
0.573395
0.662477
0.757698
0.863198
0.998589
1.18343
1.43774
1.76499
2.11978
2.34969
2.39537
2.36348
2.12652
1.84106
1.61697
1.46931
1.35515
1.2546
1.15087
1.02568
0.863481
0.642809
0.337878
-0.0839123
-0.662983
-1.44565
-2.48184
-3.82311
-5.51735
-7.5958
-10.073
-12.9669
-16.2445
-19.9735
-24.5133
-28.2545
-36.0697
-39.6851
-34.9914
-29.8937
-23.9854
-15.9648
-8.51129
-1.32758