/*--------------------------------*- C++ -*----------------------------------*\
| =========                 |                                                 |
| \\      /  F ield         | OpenFOAM: The Open Source CFD Toolbox           |
|  \\    /   O peration     | Version:  4.1                                   |
|   \\  /    A nd           | Web:      www.OpenFOAM.org                      |
|    \\/     M anipulation  |                                                 |
\*---------------------------------------------------------------------------*/
FoamFile
{
    version     2.0;
    format      ascii;
    class       surfaceScalarField;
    location    "20";
    object      phi;
}
// * * * * * * * * * * * * * * * * * * * * * * * * * * * * * * * * * * * * * //

dimensions      [0 3 -1 0 0 0 0];

internalField   nonuniform List<scalar> 
13220
(
-802.084
2101.98
-1255.68
1753.79
-1720.4
1764.62
-2062.5
1642.01
-2343.09
1580.78
-2545.07
1501.88
-2675.61
1430.44
-2732.1
1356.69
-2716.84
1284.65
-2629.49
1212.55
-2468.55
1139.26
-2214.52
1045.87
-1787.16
872.544
-1057.84
570.878
242.059
-183.892
2285.88
-415.021
1984.92
-670.686
2020.28
-859.906
1831.23
-1038.95
1759.83
-1168.73
1631.67
-1269
1530.71
-1332.91
1420.6
-1368.13
1319.86
-1374.96
1219.38
-1343.91
1108.22
-1246.31
948.259
-1024.2
650.441
-612.361
159.034
-370.302
-90.0384
2375.91
-231.519
2126.4
-322.222
2110.99
-349.809
1858.81
-368.606
1778.62
-337.833
1600.89
-288.094
1480.97
-214.005
1346.51
-129.006
1234.86
-32.5647
1122.94
75.0417
1000.61
177.117
846.183
223.983
603.573
151.818
231.196
-218.484
51.9626
2323.95
57.1471
2121.21
91.2453
2076.89
136.08
1813.98
180.846
1733.86
239.329
1542.41
299.349
1420.94
389.522
1256.34
529.809
1094.57
717.149
935.593
890.284
827.472
976.345
760.12
895.635
684.28
570.008
556.819
351.524
-23.9222
2347.87
-62.9478
2160.24
-91.2508
2105.19
-150.055
1872.78
-208.923
1792.72
-289.119
1622.6
-377.069
1508.89
-422.763
1302.03
-360.598
1032.41
-172.484
747.475
84.1044
570.882
324.194
520.024
432.042
576.427
306.597
682.259
658.121
-70.005
2417.87
-241.18
2331.41
-366.313
2230.32
-516.933
2023.4
-672.612
1948.4
-847.069
1797.06
-1035.2
1697.03
-1221.89
1488.72
-1376.44
1186.95
-1448.88
819.916
-1386.43
508.428
-1140.33
273.925
-735.424
171.523
-301.62
248.457
356.501
115.86
2302.01
-57.2088
2504.48
-144.266
2317.38
-211.047
2090.18
-262.063
1999.42
-309.594
1844.59
-352.26
1739.69
-426.435
1562.89
-568.678
1329.2
-774.705
1025.94
-982.911
716.635
-1104.02
395.032
-1019.01
86.4977
-646.535
-124.021
-290.034
310.819
1991.19
273.213
2542.09
277.247
2313.34
328.728
2038.7
415.9
1912.24
508.989
1751.5
620.021
1628.66
706.969
1475.94
727.972
1308.19
643.534
1110.38
469.882
890.286
218.757
646.161
-46.4975
351.761
-131.18
-39.33
-421.214
285.435
1705.76
335.154
2492.37
371.418
2277.08
441.673
1968.44
538.808
1815.11
636.75
1653.56
744.267
1521.14
842.829
1377.38
916.533
1234.49
939.818
1087.09
900.393
929.712
787.462
759.085
586.201
553.014
251.212
295.646
-170.002
155.512
1550.25
216.136
2431.74
253.897
2239.32
302.291
1920.05
366.147
1751.25
425.14
1594.56
481.698
1464.59
529.704
1329.38
563.68
1200.51
576.532
1074.24
560.028
946.217
504.343
814.777
396.673
660.693
223.435
468.904
53.4338
51.0499
1499.2
121.448
2361.35
177.243
2183.52
224.082
1873.21
282.518
1692.82
336.834
1540.25
383.608
1417.81
420.687
1292.3
449.366
1171.84
469.12
1054.49
474.296
941.043
448.492
840.581
364.954
744.23
201.061
632.798
254.495
-11.9782
1511.18
71.9122
2277.46
183.465
2071.97
265.513
1791.16
330.494
1627.84
392.441
1478.3
455.218
1355.04
519.176
1228.34
584.969
1106.05
646.476
992.985
679.59
907.93
650.211
869.966
521.801
872.645
296.264
858.343
550.759
42.461
1468.72
64.0477
2255.87
86.4804
2049.54
153.594
1724.05
264.247
1517.19
400.811
1341.74
553.714
1202.14
718.577
1063.48
870.663
953.96
969.581
894.068
965.73
911.782
834.449
1001.25
587.02
1120.07
287.214
1158.15
837.973
369.298
1099.42
550.386
2074.78
443.526
2156.4
208.655
1958.92
-30.9161
1756.76
-236.668
1547.49
-377.126
1342.6
-451.895
1138.25
-460.36
962.425
-407
840.709
-305.778
810.56
-196.118
891.588
-135.849
1059.81
-104.359
1126.66
733.615
623.074
1679.03
2323.35
2530.49
2526.18
2349.25
1991.98
1594.51
1130.96
683.096
314.952
102.089
43.0569
83.37
-2.83171e-06
-283.717
283.717
-283.717
-283.717
-283.717
334.231
-617.948
334.231
334.231
334.231
828.878
-494.648
828.878
828.878
1198.6
-369.721
1198.6
1198.6
1198.6
1437.29
-238.687
1437.29
1437.29
1577.82
-140.534
1577.82
1577.82
1577.82
1642.77
-64.9473
1642.77
1642.77
1642.77
1648.08
-5.31479
1648.08
1648.08
1595.74
52.346
1595.74
1595.74
1595.74
1499.2
96.5362
1499.2
1499.2
1364.64
134.557
1364.64
1364.64
1364.64
1215.9
148.747
1215.9
1215.9
1215.9
1131.78
84.1201
1131.78
1131.78
1077.64
54.1388
1077.64
1077.64
1077.64
885.614
192.024
885.614
885.614
885.614
549.936
335.678
549.936
549.936
130.749
419.187
130.749
130.749
130.749
-390.957
521.706
-390.957
-390.957
-1527.04
1136.09
-1527.04
-1527.04
-1527.04
-3200.2
1673.16
-3200.2
-3200.2
-3200.2
-5284.69
2084.49
-5284.69
-5284.69
-7595.43
2310.74
-7595.43
-7595.43
-7447.27
-7299.31
-7146.19
-9416.03
2428.44
-9260.06
-9076.58
-8875.83
-8674.25
-8469.77
-8260.41
-8052.6
-7850.78
-10229.8
2582.82
-10016.5
-9801.49
-9583.01
-9376.4
-9169.17
-8959.12
-8750.51
-8544.86
-10953.5
2610.25
-10732.2
-10509.1
-10284
-10058.4
-9825.43
-9579.01
-9331.37
-9084.1
-8839.97
-11082
2469.23
-10814.6
-10547
-10279.3
-10012.4
-9746.24
-9461.95
-9168.5
-8876.7
-10689.6
2089.99
-10401.4
-10101.9
-9783.32
-9463.86
-9143.25
-8824.2
-8506.67
-8167.2
-9463.15
1617.51
-9140.04
-8821.47
-8505.34
-8176.78
-7843.93
-7513.4
-7182.81
-6854.09
-7618.9
1094.03
-7285.48
-6953.68
-6623.86
-6298.84
-5981.59
-5673.67
-5374.71
-5088
-4815.41
-4582.92
37.2322
-4358.11
-4158.36
-3964.91
-3779.06
-3597.54
-3451.13
-3369.46
-3282.61
-2910.78
-269.864
-2828
-2743.54
-2743.54
-2563.77
-179.772
-2381.16
-182.602
-2381.16
-2221.61
-159.556
-2221.61
-2080.58
-141.026
-1952.81
-127.77
-1952.81
-1832.68
-120.136
-1723.08
-109.595
-1723.08
-1618.15
-104.928
-1618.15
-1520.25
-97.9045
-1430.69
-89.5536
-1430.69
-1342.76
-87.9365
-1342.76
-1259.27
-83.4887
-1181.77
-77.5017
-1181.77
-1103.37
-78.4019
-1031.94
-71.4306
-1031.94
-959.736
-72.1998
-959.736
-889.041
-70.6945
-825.424
-63.617
-825.424
-760.006
-65.4182
-760.006
-694.89
-65.1156
-635.945
-58.9449
-635.945
-573.083
-62.8621
-517.407
-55.6761
-517.407
-459.633
-57.7745
-459.633
-401.245
-58.3873
-349.944
-51.3012
-349.944
-296.549
-53.3953
-296.549
-241.588
-54.9608
-192.04
-49.5479
-192.04
-137.717
-54.3237
-89.1927
-48.5239
-89.1927
-40.2819
-48.9108
-40.2819
7.56781
-47.8498
58.6591
-51.0912
58.659
99.5177
-40.8587
99.5177
130.35
-30.8321
167.86
-37.5102
167.86
201.439
-33.5791
239.581
-38.142
239.581
277.132
-37.5506
277.132
309.986
-32.8538
341.693
-31.7078
341.693
370.313
-28.6192
370.313
403.043
-32.7306
443.559
-40.5155
443.559
483.295
-39.7368
532.98
-49.6842
532.98
588.811
-55.8314
588.811
-57.8561
-150.804
-597.94
-151.551
-673.069
-152.767
-712.023
-154.25
-753.576
-156.079
-790.68
-158.182
-825.895
-160.574
-858.817
-163.234
-890.391
-166.158
-920.517
-169.336
-949.698
-172.762
-977.91
-176.437
-1005.42
-180.369
-1032.35
-184.581
-1059.12
-189.1
-1086.21
-193.958
-1114.22
-199.184
-1143.59
-204.804
-1174.72
-210.828
-1207.88
-217.248
-1243.18
-224.042
-1280.58
-231.234
-1319.72
-239.056
-1359.65
-248.249
-1398.36
-260.41
-1432.44
-278.11
-1457.08
-304.449
-1467.06
-341.938
-1458.6
-391.163
-1431.23
-449.987
-1388.67
-513.763
-1338.21
-576.491
-1288.96
-632.397
-1249.43
-677.307
-1225.3
-709.306
-1218.24
-728.516
-1226.15
-736.302
-1244.74
-734.428
-1268.93
-724.476
-1293.79
-707.568
-1314.29
-684.414
-1324.59
-656.083
-1318.61
-624.663
-1296.68
-586.814
-1265.16
-516.989
-1141.83
-404.067
-562.879
-326.461
545.827
-296.952
1151.04
-270.974
1468.27
-244.473
1759.54
-217.566
2061.6
-190.268
2368.46
-163.175
2674.89
-135.791
2979.87
-107.68
3272.18
-79.471
3535.84
-51.3549
3769.5
-23.7941
3961.13
1.10283
4071.78
20.9282
4077.43
34.2419
3992.16
42.0986
3877.64
46.2514
3763.71
48.2082
3648.07
49.0586
3517.81
49.5111
3357.69
49.8401
3155.64
50.4839
2923.63
50.9369
2630.33
51.6451
2322.78
51.224
1885.77
51.0658
1514.57
50.3096
786.823
54.1356
486.119
35.5804
-874.825
37.8392
-1274.38
27.2183
-1372.28
20.5576
-1815.22
2692.68
-158.418
-597.973
-159.012
-672.475
-160.203
-710.832
-161.683
-752.097
-163.56
-788.803
-165.737
-823.718
-168.236
-856.318
-171.025
-887.601
-174.1
-917.442
-177.446
-946.353
-181.056
-974.3
-184.936
-1001.54
-189.102
-1028.18
-193.587
-1054.63
-198.425
-1081.37
-203.649
-1108.99
-209.285
-1137.95
-215.348
-1168.66
-221.834
-1201.39
-228.719
-1236.29
-236.016
-1273.28
-243.943
-1311.8
-253.277
-1350.31
-265.808
-1385.83
-284.564
-1413.69
-313.311
-1428.34
-355.101
-1425.27
-410.444
-1403.26
-476.262
-1365.41
-546.431
-1318.5
-613.62
-1271.03
-671.41
-1231.17
-715.778
-1205.06
-745.527
-1195.56
-761.688
-1202.07
-766.423
-1221.42
-762.006
-1249.15
-750.281
-1280.66
-732.531
-1311.54
-709.526
-1337.3
-681.638
-1352.48
-649.488
-1350.76
-615.293
-1330.87
-578.871
-1301.58
-516.212
-1204.49
-393.044
-686.048
-309.066
461.85
-289.868
1131.84
-268.162
1446.57
-241.397
1732.78
-214.882
2035.09
-188.222
2341.8
-161.752
2648.42
-135.048
2953.16
-107.568
3244.7
-79.8852
3508.15
-52.2034
3741.81
-24.9762
3933.9
-0.277077
4047.08
19.488
4057.67
32.8779
3978.77
40.8976
3869.62
45.2566
3759.35
47.4392
3645.89
48.5235
3516.72
49.212
3357
49.8054
3155.05
50.7317
2922.7
51.5325
2629.53
52.6017
2321.71
52.5849
1885.78
52.8934
1514.26
52.4084
787.308
57.4395
481.087
34.1287
-851.514
34.2877
-1274.54
26.5051
-1364.5
19.3291
-1808.04
2656.18
-162.592
-598.081
-163.127
-671.94
-164.31
-709.65
-165.797
-750.609
-167.709
-786.891
-169.937
-821.491
-172.503
-853.752
-175.372
-884.732
-178.538
-914.276
-181.984
-942.907
-185.704
-970.58
-189.705
-997.535
-194.011
-1023.88
-198.66
-1049.98
-203.689
-1076.35
-209.129
-1103.55
-215.002
-1132.08
-221.313
-1162.35
-228.046
-1194.66
-235.197
-1229.14
-242.907
-1265.57
-251.782
-1302.92
-263.376
-1338.72
-280.566
-1368.64
-307.237
-1387.02
-346.901
-1388.67
-400.644
-1371.53
-465.765
-1338.13
-536.215
-1294.96
-604.604
-1250.11
-664.481
-1211.15
-711.755
-1183.9
-744.999
-1171.81
-764.897
-1175.66
-773.291
-1193.68
-772.289
-1222.42
-763.708
-1257.73
-748.903
-1295.46
-728.817
-1331.62
-704.073
-1362.04
-675.026
-1381.52
-642.215
-1383.57
-607.718
-1365.37
-573
-1336.3
-518.35
-1259.14
-396.059
-808.339
-293.324
359.115
-275.39
1113.91
-263.275
1434.45
-237.677
1707.18
-211.131
2008.54
-185.275
2315.95
-159.663
2622.81
-133.878
2927.38
-107.316
3218.13
-80.4268
3481.27
-53.3836
3714.77
-26.6349
3907.15
-2.22066
4022.66
17.4496
4038
30.9093
3965.31
39.1191
3861.41
43.7414
3754.73
46.2289
3643.4
47.6404
3515.31
48.6748
3355.97
49.6447
3154.08
50.9885
2921.36
52.2775
2628.24
53.8601
2320.13
54.4252
1885.22
55.1255
1513.56
55.3219
787.112
59.3473
477.062
33.8731
-826.04
33.08
-1273.75
27.3825
-1358.8
19.4821
-1800.14
2625.98
-167.601
-598.252
-168.087
-671.454
-169.269
-708.467
-170.774
-749.104
-172.733
-784.932
-175.025
-819.199
-177.676
-851.101
-180.646
-881.762
-183.925
-910.996
-187.495
-939.337
-191.349
-966.725
-195.498
-993.387
-199.972
-1019.4
-204.817
-1045.14
-210.073
-1071.09
-215.77
-1097.86
-221.922
-1125.93
-228.522
-1155.75
-235.556
-1187.62
-243.104
-1221.59
-251.616
-1257.06
-262.416
-1292.12
-278.21
-1322.92
-303.038
-1343.81
-341.016
-1349.04
-394.063
-1335.63
-460.006
-1305.59
-532.688
-1265.45
-604.15
-1223.5
-667.343
-1186.92
-717.803
-1160.69
-753.916
-1147.79
-776.262
-1149.47
-786.666
-1165.25
-787.321
-1193.03
-780.201
-1229.54
-766.817
-1271.12
-748.239
-1314.04
-725.22
-1354.64
-698.316
-1388.95
-667.932
-1411.91
-634.656
-1416.85
-600.542
-1399.48
-568.116
-1368.73
-521.492
-1305.76
-405.785
-924.046
-281.339
234.669
-257.183
1089.75
-254.178
1431.45
-233.301
1686.3
-206.775
1982.02
-181.525
2290.7
-156.954
2598.24
-132.28
2902.71
-106.872
3192.73
-81.0225
3455.42
-54.8273
3688.58
-28.7235
3881.05
-4.71352
3998.65
14.7964
4018.49
28.3144
3951.79
36.743
3852.98
41.6889
3749.79
44.5627
3640.53
46.3952
3513.48
47.8769
3354.48
49.33
3152.62
51.2032
2919.48
53.1051
2626.34
55.3336
2317.9
56.6084
1883.94
57.8407
1512.33
58.455
786.497
62.1415
473.376
34.5944
-798.493
32.1175
-1271.27
27.4403
-1354.12
18.7669
-1791.47
2605.01
-172.48
-598.462
-172.939
-670.994
-174.13
-707.277
-175.661
-747.573
-177.674
-782.919
-180.036
-816.836
-182.778
-848.359
-185.852
-878.688
-189.249
-907.599
-192.946
-935.64
-196.938
-962.734
-201.236
-989.088
-205.881
-1014.76
-210.923
-1040.1
-216.408
-1065.6
-222.359
-1091.9
-228.781
-1119.51
-235.657
-1148.87
-243.023
-1180.26
-251.19
-1213.43
-261.234
-1247.02
-275.62
-1277.73
-298.426
-1300.12
-334.337
-1307.9
-386.232
-1297.14
-452.677
-1269.18
-527.485
-1230.78
-601.969
-1190.97
-668.247
-1157.22
-721.4
-1133.76
-759.769
-1122.32
-784.068
-1123.49
-796.241
-1137.29
-798.559
-1162.94
-793.06
-1198.52
-781.316
-1241.29
-764.439
-1287.99
-743.211
-1335.27
-718.25
-1379.6
-690.129
-1417.07
-659.425
-1442.61
-626.921
-1449.35
-594.686
-1431.72
-565.826
-1397.59
-528.248
-1343.34
-425.491
-1026.8
-278.166
87.3433
-238.345
1049.93
-240.028
1433.13
-226.838
1673.11
-201.946
1957.13
-177.021
2265.77
-153.539
2574.76
-130.199
2879.37
-106.174
3168.7
-81.6214
3430.86
-56.5106
3663.47
-31.2378
3855.77
-7.76661
3975.18
11.5007
3999.22
25.0474
3938.25
33.7106
3844.32
39.0343
3744.46
42.3783
3637.18
44.7318
3511.13
46.7723
3352.44
48.8248
3150.57
51.3517
2916.96
53.9996
2623.69
57.0198
2314.88
59.1449
1881.82
61.0561
1510.42
62.0197
785.534
65.3337
470.062
36.2241
-769.383
31.9283
-1266.98
27.8123
-1350
18.1486
-1781.8
2582.64
-177.455
-598.689
-177.905
-670.544
-179.114
-706.067
-180.682
-746.006
-182.756
-780.845
-185.198
-814.394
-188.038
-845.52
-191.226
-875.501
-194.749
-904.076
-198.583
-931.806
-202.72
-958.597
-207.176
-984.631
-211.998
-1009.94
-217.247
-1034.85
-222.967
-1059.88
-229.175
-1085.7
-235.862
-1112.82
-243.031
-1141.7
-250.879
-1172.41
-260.232
-1204.07
-273.246
-1234
-293.902
-1257.08
-327.371
-1266.65
-377.609
-1257.67
-444.24
-1230.51
-521.29
-1192.13
-599.288
-1152.78
-669.201
-1121.06
-725.345
-1101.08
-765.916
-1093.19
-791.861
-1096.37
-805.419
-1109.93
-809.047
-1133.67
-804.872
-1167.11
-794.511
-1208.89
-779.1
-1256.7
-759.428
-1307.67
-736.112
-1358.59
-709.759
-1405.96
-681.089
-1445.74
-650.966
-1472.74
-620.493
-1479.82
-591.788
-1460.42
-568.076
-1421.3
-540.218
-1371.2
-453.718
-1113.3
-288.64
-77.7341
-222.177
983.468
-221.813
1432.76
-216.674
1667.97
-196.166
1936.62
-171.948
2241.55
-149.378
2552.19
-127.56
2857.55
-105.143
3146.28
-82.1235
3407.84
-58.3385
3639.68
-34.0971
3831.53
-11.3139
3952.4
7.6091
3980.3
21.133
3924.72
30.0282
3835.42
35.7681
3738.72
39.6552
3633.3
42.6238
3508.16
45.3295
3349.74
48.0933
3147.81
51.3916
2913.66
54.9093
2620.17
58.8512
2310.94
61.9584
1878.71
64.6283
1507.75
65.9342
784.228
68.8485
467.147
38.5463
-739.081
32.3553
-1260.79
28.698
-1346.35
17.9864
-1771.09
2567.9
-182.484
-598.916
-182.94
-670.088
-184.179
-704.829
-185.792
-744.392
-187.936
-778.701
-190.466
-811.864
-193.412
-842.574
-196.722
-872.191
-200.38
-900.418
-204.358
-927.828
-208.648
-954.307
-213.269
-980.01
-218.276
-1004.93
-223.737
-1029.39
-229.694
-1053.93
-236.153
-1079.24
-243.104
-1105.87
-250.649
-1134.16
-259.381
-1163.68
-271.095
-1192.36
-289.529
-1215.57
-320.176
-1226.43
-368.114
-1218.71
-434.357
-1191.42
-513.539
-1151.33
-595.486
-1110.18
-669.733
-1078.53
-729.421
-1061.37
-772.343
-1058.16
-799.679
-1065.86
-814.123
-1081.93
-818.522
-1105.53
-815.222
-1136.97
-805.921
-1176.41
-791.757
-1223.05
-773.492
-1274.96
-751.699
-1329.46
-726.941
-1383.35
-699.936
-1432.96
-671.681
-1473.99
-643.435
-1500.98
-616.643
-1506.62
-593.354
-1483.71
-576.426
-1438.23
-558.683
-1388.94
-487.543
-1184.44
-309.633
-255.644
-211.342
885.176
-201.679
1423.1
-202.044
1668.34
-188.222
1922.79
-166.282
2219.61
-144.518
2530.42
-124.268
2837.3
-103.698
3125.71
-82.4399
3386.59
-60.222
3617.46
-37.2332
3808.54
-15.3107
3930.48
3.14512
3961.84
16.5743
3911.29
25.6843
3826.31
31.8686
3732.54
36.3644
3628.8
40.0383
3504.48
43.5129
3346.26
47.0966
3144.22
51.2799
2909.47
55.7831
2615.67
60.7679
2305.95
64.9793
1874.5
68.4703
1504.26
70.0994
782.599
72.6661
464.581
41.3585
-707.773
33.1801
-1252.61
30.1586
-1343.33
18.582
-1759.51
2557.86
-187.585
-599.126
-188.062
-669.61
-189.34
-703.551
-191.009
-742.723
-193.232
-776.478
-195.858
-809.237
-198.92
-839.512
-202.36
-868.751
-206.161
-896.616
-210.293
-923.697
-214.744
-949.856
-219.537
-975.217
-224.735
-999.733
-230.412
-1023.71
-236.603
-1047.74
-243.304
-1072.54
-250.554
-1098.62
-258.74
-1125.97
-269.271
-1153.15
-285.495
-1176.13
-313.004
-1188.06
-357.922
-1181.51
-422.951
-1153.68
-503.849
-1110.52
-590.023
-1065.16
-669.386
-1030.82
-733.467
-1014.45
-779.29
-1015.55
-808.113
-1029.33
-823.15
-1050.82
-827.804
-1077.28
-824.824
-1108.51
-816.11
-1145.68
-802.847
-1189.68
-785.75
-1240.15
-765.311
-1295.4
-742.004
-1352.77
-716.474
-1408.87
-689.706
-1459.73
-663.105
-1500.59
-638.377
-1525.71
-617.196
-1527.8
-601.22
-1499.69
-592.38
-1447.07
-584.611
-1396.71
-527.116
-1241.94
-339.661
-443.099
-207.347
752.863
-182.102
1397.86
-183.477
1669.71
-176.752
1916.07
-159.475
2202.34
-139.043
2509.99
-120.264
2818.52
-101.751
3107.2
-82.4974
3367.33
-62.0845
3597.05
-40.5859
3787.04
-19.7204
3909.61
-1.87473
3944
11.3684
3898.05
20.6595
3817.02
27.3068
3725.89
32.47
3623.64
36.9363
3500.02
41.2824
3341.92
45.794
3139.71
50.9759
2904.29
56.5779
2610.07
62.7294
2299.8
68.1637
1869.07
72.5629
1499.86
74.502
780.66
76.7723
462.31
44.4912
-675.492
34.2845
-1242.4
31.5999
-1340.64
19.2384
-1747.15
2545.39
-192.762
-599.302
-193.273
-669.099
-194.601
-702.223
-196.336
-740.987
-198.646
-774.168
-201.378
-806.505
-204.564
-836.327
-208.144
-865.171
-212.099
-892.661
-216.393
-919.403
-221.014
-945.235
-225.986
-970.244
-231.38
-994.339
-237.272
-1017.82
-243.687
-1041.32
-250.636
-1065.59
-258.343
-1090.91
-267.837
-1116.48
-281.963
-1139.02
-306.142
-1151.96
-347.33
-1146.87
-410.105
-1118.74
-491.941
-1071.84
-582.324
-1020.14
-667.524
-979.959
-737.024
-961.32
-786.63
-964.845
-817.436
-984.739
-833.112
-1013.66
-837.691
-1046.24
-834.47
-1080.5
-825.721
-1117.26
-812.814
-1158.59
-796.48
-1206.01
-777.123
-1259.5
-755.088
-1317.44
-730.892
-1376.96
-705.42
-1434.35
-680.076
-1485.07
-656.771
-1523.9
-637.583
-1544.9
-624.091
-1541.29
-617.016
-1506.76
-616.789
-1447.3
-618.06
-1395.44
-573.089
-1286.91
-380.508
-635.68
-212.019
584.374
-165.408
1351.24
-162.652
1666.96
-161.038
1914.45
-150.477
2191.78
-132.863
2492.38
-115.563
2801.22
-99.2059
3090.84
-82.2215
3350.35
-63.852
3578.68
-44.0872
3767.28
-24.4952
3890.02
-7.42273
3926.92
5.52467
3885.1
14.9453
3807.6
22.062
3718.77
27.9429
3617.76
33.2833
3494.68
38.601
3336.6
44.147
3134.17
50.441
2898
57.254
2603.26
64.6995
2292.35
71.4748
1862.29
76.9036
1494.43
79.1596
778.404
81.2004
460.269
48.0222
-642.314
35.68
-1230.06
32.6
-1337.56
19.455
-1734.01
2531.99
-198.023
-599.431
-198.581
-668.541
-199.969
-700.835
-201.78
-739.176
-204.187
-771.761
-207.034
-803.659
-210.354
-833.007
-214.084
-861.44
-218.203
-888.543
-222.669
-914.937
-227.468
-940.436
-232.626
-965.086
-238.217
-988.748
-244.314
-1011.72
-250.944
-1034.69
-258.219
-1058.32
-266.835
-1082.29
-279.062
-1104.25
-299.884
-1118.2
-336.744
-1115.1
-396.099
-1087.52
-477.724
-1037.11
-571.903
-977.666
-663.454
-928.589
-739.433
-903.98
-793.92
-906.833
-827.536
-931.229
-844.297
-967.977
-848.846
-1009.11
-845.067
-1050.02
-835.712
-1089.85
-822.494
-1130.48
-806.318
-1174.76
-787.587
-1224.74
-766.52
-1280.57
-743.457
-1340.5
-719.119
-1401.3
-694.808
-1458.66
-672.481
-1507.4
-654.54
-1541.84
-643.159
-1556.28
-639.246
-1545.2
-641.914
-1504.09
-649.67
-1439.54
-657.936
-1387.17
-624.552
-1320.29
-434.314
-825.917
-227.497
377.557
-153.354
1277.1
-141.871
1655.47
-141.48
1914.06
-138.124
2188.42
-125.478
2479.73
-110.205
2785.94
-95.9941
3076.63
-81.5258
3335.88
-65.4563
3562.61
-47.6678
3749.49
-29.5816
3871.93
-13.4668
3910.81
-0.941324
3872.58
8.53986
3798.12
16.1194
3711.19
22.7597
3611.12
29.0492
3488.39
35.4346
3330.21
42.1189
3127.48
49.6371
2890.48
57.773
2595.12
66.6426
2283.49
74.8779
1854.06
81.4821
1487.83
84.0962
775.79
86.0041
458.362
52.0849
-608.395
37.4662
-1215.44
33.4435
-1333.54
19.408
-1719.97
2513.85
-203.375
-599.499
-203.991
-667.926
-205.451
-699.374
-207.348
-737.279
-209.862
-769.247
-212.833
-800.687
-216.296
-829.544
-220.188
-857.549
-224.481
-884.25
-229.13
-910.288
-234.116
-935.45
-239.464
-959.739
-245.245
-982.967
-251.534
-1005.43
-258.404
-1027.82
-266.284
-1050.44
-276.873
-1071.7
-294.486
-1086.64
-326.624
-1086.06
-381.395
-1060.32
-461.338
-1007.58
-558.428
-940.024
-656.515
-879.58
-739.951
-845.153
-800.515
-843.415
-837.974
-869.374
-856.576
-912.627
-861.549
-963.005
-857.321
-1013.34
-847.103
-1060.24
-833.007
-1103.95
-816.272
-1147.21
-797.484
-1193.55
-776.855
-1245.37
-754.569
-1302.86
-731.127
-1363.94
-707.641
-1424.79
-685.997
-1480.3
-668.754
-1524.64
-658.587
-1552.01
-657.211
-1557.65
-664.105
-1538.31
-676.183
-1492.01
-689.977
-1425.75
-702.159
-1374.99
-679.41
-1343.04
-504.179
-1001.15
-257.758
131.136
-147.166
1166.51
-123.285
1631.59
-119.564
1910.34
-121.678
2190.53
-115.955
2474.01
-104.087
2774.08
-92.1012
3064.65
-80.3134
3324.09
-66.8301
3549.13
-51.2626
3733.92
-34.9236
3855.59
-19.9713
3895.86
-8.01143
3860.62
1.44672
3788.66
9.46808
3703.17
16.9008
3603.68
24.2068
3481.08
31.7506
3322.67
39.674
3119.56
48.5259
2881.63
58.0964
2585.55
68.5217
2273.06
78.3379
1844.24
86.2725
1479.89
89.3256
772.736
91.2205
456.467
56.7352
-573.909
39.6989
-1198.4
34.7241
-1328.56
19.7949
-1705.04
2495.5
-208.827
-599.493
-209.51
-667.242
-211.054
-697.831
-213.047
-735.286
-215.677
-766.617
-218.784
-797.581
-222.401
-825.927
-226.465
-853.485
-230.944
-879.771
-235.788
-905.444
-240.968
-930.269
-246.504
-954.203
-252.461
-977.009
-258.937
-998.955
-266.198
-1020.56
-275.423
-1041.21
-290.131
-1057
-317.416
-1059.35
-366.584
-1036.89
-443.154
-983.754
-541.779
-908.951
-646.151
-835.652
-737.835
-787.895
-805.68
-777.309
-848.105
-800.99
-869.452
-848.028
-875.564
-906.515
-871.413
-967.156
-860.563
-1024.19
-845.434
-1075.37
-827.604
-1121.78
-808.001
-1166.82
-787.05
-1214.5
-764.931
-1267.49
-741.959
-1325.83
-718.995
-1386.91
-697.745
-1446.04
-680.785
-1497.26
-671.13
-1534.3
-671.212
-1551.93
-681.468
-1547.4
-699.208
-1520.57
-718.944
-1472.28
-735.713
-1408.98
-748.151
-1362.55
-734.385
-1356.81
-590.261
-1145.27
-310.376
-148.749
-147.751
1003.88
-108.118
1591.96
-97.3592
1899.58
-101.279
2194.45
-103.196
2475.92
-96.7809
2767.66
-87.5349
3055.4
-78.4986
3315.06
-67.8962
3538.52
-54.8114
3720.84
-40.463
3841.25
-26.8964
3882.29
-15.6649
3849.39
-6.32785
3779.33
2.10063
3694.74
10.3496
3595.43
18.732
3472.7
27.5174
3313.89
36.776
3110.3
47.0678
2871.34
58.1834
2574.43
70.2975
2260.95
81.819
1832.72
91.2376
1470.47
94.8416
769.132
96.8651
454.443
61.9663
-539.011
42.3899
-1178.83
36.4455
-1322.62
20.5633
-1689.16
2482.49
-214.385
-599.401
-215.147
-666.48
-216.784
-696.193
-218.884
-733.185
-221.641
-763.86
-224.894
-794.328
-228.677
-822.144
-232.925
-849.237
-237.603
-875.093
-242.652
-900.395
-248.031
-924.889
-253.745
-948.49
-259.861
-970.892
-266.588
-992.229
-274.711
-1012.44
-286.914
-1029.01
-309.502
-1034.41
-352.326
-1016.53
-423.766
-965.453
-522.076
-885.444
-631.956
-799.071
-732.406
-735.201
-808.688
-711.613
-857.227
-728.77
-882.244
-775.973
-890.277
-839.994
-886.934
-909.858
-876.106
-977.985
-860.346
-1039.95
-841.405
-1094.31
-820.509
-1142.67
-798.453
-1188.87
-775.663
-1237.29
-752.46
-1290.69
-729.5
-1348.79
-708.236
-1408.17
-691.134
-1463.14
-681.403
-1506.99
-682.053
-1533.65
-694.419
-1539.56
-716.756
-1525.06
-743.811
-1493.51
-768.15
-1447.94
-784.248
-1392.88
-793.225
-1353.58
-784.913
-1365.12
-672.52
-1257.67
-375.197
-446.071
-156.51
785.197
-96.3696
1531.82
-76.8709
1880.08
-78.1021
2195.68
-86.4176
2484.24
-87.4738
2768.72
-82.2039
3050.13
-76.0284
3308.88
-68.5577
3531.05
-58.2545
3710.54
-46.1419
3829.13
-34.1981
3870.35
-23.8781
3839.07
-14.7763
3770.22
-5.98806
3685.96
3.09297
3586.35
12.6046
3463.19
22.7059
3303.78
33.3898
3099.62
45.2229
2859.5
57.9927
2561.66
71.9306
2247.01
85.2863
1819.36
96.3395
1459.42
100.622
764.85
102.939
452.127
67.7765
-503.848
45.544
-1156.59
38.2553
-1315.33
21.661
-1672.57
2466.64
-220.058
-599.21
-220.908
-665.63
-222.651
-694.45
-224.869
-730.968
-227.763
-760.966
-231.172
-790.919
-235.132
-818.183
-239.578
-844.791
-244.468
-870.203
-249.732
-895.132
-255.309
-919.312
-261.182
-942.617
-267.47
-964.604
-274.716
-984.982
-284.86
-1002.29
-303.148
-1010.72
-339.272
-998.286
-403.95
-951.852
-499.704
-869.699
-613.702
-771.446
-723.061
-689.712
-808.869
-649.393
-864.69
-655.792
-894.27
-699.19
-904.927
-765.317
-903.09
-841.831
-893.073
-919.875
-877.492
-993.565
-858.041
-1059.4
-836.011
-1116.34
-812.463
-1166.22
-788.218
-1213.12
-763.88
-1261.63
-740.126
-1314.45
-718.211
-1370.7
-700.406
-1425.97
-689.977
-1473.57
-690.393
-1506.57
-703.803
-1520.24
-729.376
-1513.99
-762.545
-1491.89
-795.791
-1460.27
-820.873
-1422.86
-832.824
-1380.93
-835.175
-1351.22
-828.176
-1372.12
-743.311
-1342.53
-448.26
-741.122
-176.63
513.567
-87.4571
1442.65
-59.4846
1852.11
-54.1177
2190.32
-65.615
2495.74
-75.1516
2778.25
-75.7743
3050.75
-72.8784
3305.98
-68.7061
3526.88
-61.5196
3703.35
-51.9037
3819.52
-41.8278
3860.27
-32.6236
3829.86
-23.8879
3761.49
-14.7998
3676.87
-4.88073
3576.43
5.80777
3452.5
17.2916
3292.3
29.4825
3087.43
42.9536
2846.03
57.4843
2547.13
73.3838
2231.11
88.709
1804.04
101.547
1446.58
106.64
759.756
109.423
449.343
74.1633
-468.588
49.166
-1131.6
40.2115
-1306.38
22.8557
-1655.21
2458.66
-225.854
-598.907
-226.801
-664.683
-228.662
-692.589
-231.008
-728.622
-234.051
-757.923
-237.629
-787.342
-241.779
-814.033
-246.436
-840.134
-251.551
-865.088
-257.035
-889.647
-262.798
-913.549
-268.821
-936.594
-275.409
-958.015
-283.934
-976.458
-298.505
-987.721
-327.991
-981.235
-384.601
-941.676
-475.321
-861.132
-591.381
-753.639
-709.277
-653.55
-805.589
-593.4
-869.933
-585.049
-904.97
-620.756
-918.827
-685.333
-919.015
-765.129
-910.462
-850.384
-895.922
-934.415
-876.931
-1012.56
-854.575
-1081.75
-829.893
-1141.02
-803.936
-1192.18
-777.714
-1239.34
-752.213
-1287.13
-728.737
-1337.92
-709.429
-1390.01
-697.525
-1437.88
-696.838
-1474.25
-710.274
-1493.14
-737.916
-1492.6
-775.851
-1476.05
-816.734
-1451.01
-851.901
-1425.1
-873.81
-1400.95
-878.946
-1375.79
-872.55
-1357.62
-862.768
-1381.9
-802.629
-1402.67
-537.226
-1006.52
-215.406
191.747
-81.4997
1308.74
-45.5214
1816.13
-31.5024
2176.3
-41.7864
2506.02
-59.0059
2795.47
-67.6097
3059.36
-69.0071
3307.38
-68.2553
3526.13
-64.5095
3699.6
-57.6884
3812.7
-49.7319
3852.31
-41.8679
3822
-33.6477
3753.27
-24.3317
3667.55
-13.5795
3565.68
-1.67191
3440.59
11.2552
3279.37
25.0267
3073.65
40.2256
2830.83
56.6212
2530.74
74.6238
2213.11
92.0614
1786.6
106.837
1431.81
112.866
753.728
116.289
445.919
81.1123
-433.411
53.2611
-1103.75
42.4877
-1295.6
24.3563
-1637.08
2442.16
-231.782
-598.482
-232.835
-663.63
-234.826
-690.597
-237.312
-726.137
-240.515
-754.719
-244.274
-783.584
-248.627
-809.679
-253.509
-835.252
-258.86
-859.738
-264.564
-883.942
-270.5
-907.614
-276.719
-930.376
-284.06
-950.674
-295.6
-964.918
-318.918
-964.403
-366.651
-933.502
-449.86
-858.466
-565.257
-745.735
-690.624
-628.272
-798.212
-545.962
-872.448
-519.164
-913.933
-543.565
-931.487
-603.201
-934.003
-682.817
-927.304
-771.827
-914.433
-863.255
-896.824
-952.024
-875.256
-1034.12
-850.452
-1106.56
-823.357
-1168.12
-795.154
-1220.38
-767.219
-1267.28
-741.19
-1313.16
-719.331
-1359.78
-704.929
-1404.41
-702.087
-1440.72
-714.424
-1461.92
-742.977
-1464.59
-784.547
-1451.03
-831.876
-1428.72
-875.852
-1407.03
-908.322
-1392.63
-923.788
-1385.48
-920.539
-1379.04
-904.386
-1373.77
-888.077
-1398.21
-847.171
-1443.58
-642.348
-1211.35
-284.085
-166.516
-80.3101
1104.97
-33.954
1769.78
-11.9522
2154.3
-16.7714
2510.84
-38.8161
2817.52
-56.7954
3077.34
-64.2354
3314.82
-67.1818
3529.08
-67.1068
3699.53
-63.4192
3809.01
-57.8509
3846.75
-51.5695
3815.72
-44.0352
3745.73
-34.5752
3658.09
-23.0072
3554.11
-9.84377
3427.43
4.58605
3264.94
20.0008
3058.24
37.009
2813.83
55.3709
2512.38
75.6219
2192.85
95.3243
1766.9
112.198
1414.93
119.274
746.652
123.499
441.694
88.601
-398.513
57.8215
-1072.97
44.6493
-1282.43
25.8616
-1618.29
2416.93
-237.851
-597.921
-239.019
-662.462
-241.153
-688.464
-243.789
-723.5
-247.165
-751.343
-251.117
-779.632
-255.688
-805.109
-260.809
-830.131
-266.402
-854.144
-272.32
-878.024
-278.438
-901.495
-285.094
-923.719
-294.35
-941.418
-312.309
-946.959
-350.983
-925.729
-424.489
-859.996
-535.944
-747.011
-666.819
-614.86
-786.057
-509.034
-871.698
-460.321
-920.854
-470.007
-942.639
-521.78
-947.617
-598.224
-942.88
-687.554
-931.981
-782.727
-916.358
-878.878
-896.538
-971.844
-872.843
-1057.82
-845.812
-1133.59
-816.424
-1197.51
-786.143
-1250.66
-756.951
-1296.47
-731.487
-1338.63
-713.34
-1377.93
-707.021
-1410.73
-716.905
-1430.84
-745.059
-1433.76
-789.123
-1420.52
-841.975
-1398.18
-893.845
-1376.85
-935.64
-1365.24
-961.321
-1366.95
-968.102
-1378.7
-955.849
-1391.3
-929.74
-1399.88
-903.723
-1424.23
-871.816
-1475.48
-725.119
-1358.04
-360.226
-531.41
-86.7451
831.485
-22.8503
1705.88
3.95415
2127.49
7.2925
2507.5
-15.1434
2839.95
-42.2594
3104.45
-58.0207
3330.58
-65.4878
3536.54
-69.2052
3703.25
-68.9908
3808.79
-66.1142
3843.87
-61.6779
3811.28
-55.0229
3739.08
-45.5164
3648.59
-33.1598
3541.76
-18.7126
3412.98
-2.72824
3248.96
14.3866
3041.12
33.2806
2794.93
53.7055
2491.95
76.3547
2170.21
98.4847
1744.77
117.624
1395.79
125.847
738.429
131.009
436.532
96.6099
-364.114
62.8575
-1039.21
46.9316
-1266.5
26.9267
-1598.29
2396.01
-244.072
-597.212
-245.363
-661.17
-247.652
-686.175
-250.451