/*--------------------------------*- C++ -*----------------------------------*\
| =========                 |                                                 |
| \\      /  F ield         | OpenFOAM: The Open Source CFD Toolbox           |
|  \\    /   O peration     | Version:  4.1                                   |
|   \\  /    A nd           | Web:      www.OpenFOAM.org                      |
|    \\/     M anipulation  |                                                 |
\*---------------------------------------------------------------------------*/
FoamFile
{
    version     2.0;
    format      ascii;
    class       volSymmTensorField;
    location    "20";
    object      turbulenceProperties:R;
}
// * * * * * * * * * * * * * * * * * * * * * * * * * * * * * * * * * * * * * //

dimensions      [0 2 -2 0 0 0 0];

internalField   nonuniform List<symmTensor> 
6785
(
(0.753313 1.47845e-19 7.7336e-20 0.753188 0.000167421 0.753499)
(0.753354 -1.14024e-19 -5.70624e-20 0.75332 6.78167e-06 0.753325)
(0.753325 -3.62284e-20 -2.67667e-20 0.75336 3.86654e-05 0.753315)
(0.753334 2.19496e-20 1.54875e-20 0.753345 2.66673e-05 0.753321)
(0.753331 -2.96044e-20 -9.04515e-21 0.753347 2.71628e-05 0.753322)
(0.753332 1.19527e-20 -3.18025e-21 0.753343 2.4131e-05 0.753324)
(0.753332 3.80394e-21 7.51785e-21 0.753342 2.22914e-05 0.753326)
(0.753333 -2.0631e-20 -3.76255e-21 0.75334 2.03232e-05 0.753328)
(0.753333 6.03324e-21 -5.00467e-21 0.753337 1.86657e-05 0.75333)
(0.753333 4.19478e-21 9.56239e-21 0.753334 1.76269e-05 0.753333)
(0.753332 -1.31013e-20 -2.93035e-21 0.753331 1.73184e-05 0.753336)
(0.753334 4.0084e-21 -1.85012e-21 0.753326 1.37692e-05 0.75334)
(0.753334 -1.24617e-23 5.14126e-21 0.753325 7.77132e-06 0.753341)
(0.753319 -5.8143e-21 2.089e-21 0.753357 9.31938e-06 0.753324)
(0.753346 2.92998e-21 -2.44318e-21 0.75339 -7.88495e-05 0.753264)
(0.75333 1.92039e-19 1.24754e-19 0.753005 0.000220382 0.753665)
(0.753351 -1.35132e-19 -7.94777e-20 0.753339 -1.63205e-05 0.753309)
(0.753325 -5.49323e-20 -3.21788e-20 0.753377 1.14258e-05 0.753297)
(0.753341 2.02109e-20 2.22149e-20 0.753351 -6.84906e-06 0.753308)
(0.753333 -1.93743e-20 -1.12651e-20 0.753361 7.32604e-07 0.753306)
(0.753336 6.65248e-21 2.56719e-21 0.753354 -3.24194e-06 0.75331)
(0.753335 -7.94686e-21 6.46987e-21 0.753355 -2.67233e-06 0.753311)
(0.753335 -1.10013e-20 -6.10297e-21 0.753353 -3.76055e-06 0.753312)
(0.753335 2.89262e-21 7.8839e-22 0.753352 -4.19918e-06 0.753314)
(0.753334 -5.48671e-21 7.55653e-21 0.753351 -5.39031e-06 0.753315)
(0.753334 -5.90865e-21 -3.64731e-21 0.753355 -8.9747e-06 0.753311)
(0.753334 -2.25045e-21 -1.83709e-21 0.753367 -1.96748e-05 0.753299)
(0.753334 -4.04986e-21 2.8108e-21 0.753389 -3.88838e-05 0.753277)
(0.753335 -8.5965e-22 -5.15954e-22 0.753394 -5.28724e-05 0.753271)
(0.753332 7.50071e-21 5.79529e-21 0.753322 -9.81593e-06 0.753346)
(0.75333 2.21375e-19 6.47608e-20 0.752969 0.000219236 0.753701)
(0.753339 -1.38505e-19 -7.96798e-20 0.753347 -1.7193e-05 0.753314)
(0.753325 -4.97127e-20 -2.97322e-20 0.75337 -2.87658e-06 0.753305)
(0.753338 4.19944e-20 -1.27867e-20 0.753348 -1.82641e-05 0.753314)
(0.753329 -2.30584e-20 -1.06464e-20 0.75336 -8.02839e-06 0.753311)
(0.753334 6.50615e-21 2.99463e-21 0.753351 -1.39664e-05 0.753315)
(0.753332 5.48561e-21 -2.87254e-20 0.753353 -1.08573e-05 0.753315)
(0.753333 -9.93766e-21 -5.15316e-21 0.753349 -1.17565e-05 0.753318)
(0.753333 6.6834e-21 3.55708e-21 0.753349 -1.06285e-05 0.753319)
(0.753333 1.26633e-20 -2.02153e-20 0.753349 -1.14248e-05 0.753318)
(0.753333 -1.18048e-20 -3.12791e-21 0.753354 -1.38586e-05 0.753313)
(0.753333 -1.93114e-21 -8.66393e-22 0.753368 -2.24299e-05 0.753299)
(0.753331 4.30323e-21 -9.44756e-21 0.7534 -3.43391e-05 0.753269)
(0.75334 -1.39284e-20 -3.69193e-21 0.75341 -5.23854e-05 0.753251)
(0.753329 1.31092e-20 9.61883e-21 0.753315 2.66684e-05 0.753356)
(0.753332 1.96143e-19 1.34471e-19 0.752972 0.0002089 0.753696)
(0.753336 -1.2198e-19 -1.0299e-19 0.753348 -1.52537e-05 0.753316)
(0.753329 -5.88528e-20 -1.35098e-20 0.753366 -1.05162e-05 0.753306)
(0.753338 1.45027e-20 9.68864e-21 0.75335 -2.10623e-05 0.753312)
(0.75333 -2.51268e-21 -2.40385e-20 0.753361 -1.04578e-05 0.753309)
(0.753336 -8.31366e-22 1.27174e-20 0.753352 -1.78565e-05 0.753312)
(0.753332 -1.42343e-20 -6.3493e-21 0.753355 -1.25336e-05 0.753313)
(0.753334 1.01917e-21 -1.95319e-20 0.753349 -1.43563e-05 0.753317)
(0.753333 2.67031e-22 1.09284e-20 0.753347 -1.32229e-05 0.75332)
(0.753334 -1.36766e-20 -6.95769e-21 0.753345 -1.48869e-05 0.753322)
(0.753333 3.48441e-21 -1.48598e-20 0.753348 -1.51243e-05 0.753319)
(0.753334 6.00245e-21 7.93744e-21 0.753354 -1.60749e-05 0.753312)
(0.753333 -1.80451e-20 -9.33871e-21 0.753371 -1.69037e-05 0.753296)
(0.753335 -1.2761e-20 -9.29448e-21 0.753385 -1.95343e-05 0.75328)
(0.753331 3.96391e-20 2.5794e-20 0.753397 -1.05151e-05 0.753271)
(0.753333 1.9587e-19 9.17566e-20 0.752977 0.000208252 0.75369)
(0.753335 -1.1738e-19 -9.84801e-20 0.75335 -1.30659e-05 0.753314)
(0.75333 -4.03346e-20 -3.50181e-20 0.753366 -1.08863e-05 0.753304)
(0.753337 9.45698e-21 -3.24236e-21 0.753356 -1.83478e-05 0.753307)
(0.75333 2.73575e-21 -2.13899e-20 0.753363 -9.3915e-06 0.753306)
(0.753336 5.39557e-21 -6.60384e-21 0.753357 -1.56494e-05 0.753307)
(0.753332 -1.16814e-20 -1.50821e-20 0.753364 -1.26954e-05 0.753304)
(0.753334 1.21722e-20 -1.40369e-20 0.753366 -2.00193e-05 0.7533)
(0.753333 1.11799e-20 5.86218e-22 0.753365 -2.24576e-05 0.753302)
(0.753334 1.4288e-22 -7.54262e-21 0.753349 -2.02413e-05 0.753317)
(0.753333 1.05296e-20 -8.59703e-21 0.75333 -1.22111e-05 0.753336)
(0.753333 -3.39435e-21 -9.36571e-21 0.753323 -6.64548e-06 0.753344)
(0.753334 -4.21789e-20 -2.77162e-20 0.753329 -5.22553e-06 0.753337)
(0.753333 -1.01617e-20 -1.69767e-20 0.753349 -4.38843e-06 0.753318)
(0.753333 6.2653e-20 3.43922e-20 0.753455 -5.80748e-05 0.753212)
(0.753332 1.67082e-19 1.18743e-19 0.752963 0.000218342 0.753704)
(0.753336 -1.39581e-19 -5.77453e-20 0.753354 -1.04328e-05 0.75331)
(0.75333 -4.8722e-20 3.94871e-21 0.753365 -7.40055e-06 0.753305)
(0.753336 4.6201e-21 9.49089e-21 0.753357 -1.30535e-05 0.753307)
(0.753331 -1.12919e-20 4.39385e-21 0.753362 -5.86557e-06 0.753307)
(0.753335 -1.69e-20 1.55282e-20 0.753358 -1.01743e-05 0.753308)
(0.753332 -9.18915e-21 -4.75333e-21 0.753369 -1.10735e-05 0.753299)
(0.753334 1.08173e-20 1.71162e-20 0.753384 -2.26526e-05 0.753283)
(0.753333 2.02057e-20 2.35254e-20 0.753396 -2.93577e-05 0.753271)
(0.753333 1.39795e-20 5.8225e-21 0.753387 -2.90966e-05 0.75328)
(0.753333 -1.59881e-20 -8.05523e-21 0.753362 -2.02163e-05 0.753305)
(0.753333 -3.82967e-20 -1.67908e-20 0.753324 -7.83506e-06 0.753342)
(0.753334 -3.07207e-20 -1.90836e-20 0.75329 4.54162e-06 0.753377)
(0.75333 1.24729e-21 4.80185e-21 0.753299 4.9212e-06 0.753371)
(0.753335 3.93693e-20 3.03548e-20 0.753426 -7.19855e-05 0.753239)
(0.753332 1.6138e-19 1.16759e-19 0.752938 0.000226349 0.75373)
(0.753336 -1.4479e-19 -6.89926e-20 0.753345 -4.61058e-06 0.753319)
(0.753331 -5.62458e-20 9.46707e-21 0.75337 -1.16024e-05 0.753299)
(0.753336 3.79838e-21 2.42828e-21 0.753354 -1.27761e-05 0.75331)
(0.753331 -1.83986e-20 7.90486e-21 0.753357 -6.54043e-06 0.753311)
(0.753335 -1.37291e-20 2.45515e-20 0.753352 -1.0363e-05 0.753313)
(0.753332 -5.51059e-21 -4.16338e-21 0.753361 -9.65738e-06 0.753307)
(0.753334 -4.84851e-21 7.59652e-21 0.753373 -1.91046e-05 0.753292)
(0.753333 1.48898e-20 3.12803e-20 0.753393 -2.43721e-05 0.753274)
(0.753334 1.69976e-20 6.25295e-21 0.7534 -2.72732e-05 0.753267)
(0.753334 -1.4577e-20 -4.34421e-21 0.753399 -2.66873e-05 0.753267)
(0.753334 -4.40867e-21 -2.38988e-21 0.753393 -2.68419e-05 0.753274)
(0.753333 -2.5279e-20 -1.97292e-20 0.753366 -1.90446e-05 0.753302)
(0.753334 -4.49533e-20 -2.97252e-20 0.753316 -7.61955e-06 0.753351)
(0.753334 6.92063e-20 3.83841e-20 0.753285 2.24254e-06 0.753381)
(0.753332 1.92081e-19 9.20001e-20 0.752941 0.000216487 0.753727)
(0.753335 -1.0911e-19 -6.84015e-20 0.753318 6.88642e-06 0.753347)
(0.753332 -5.42896e-20 -5.63518e-20 0.753376 -1.9625e-05 0.753293)
(0.753335 -1.0466e-20 -1.06231e-21 0.753357 -1.88595e-05 0.753308)
(0.753332 -8.52479e-21 -6.50106e-21 0.753355 -1.14524e-05 0.753313)
(0.753335 7.92539e-21 -9.89814e-21 0.75335 -1.47788e-05 0.753316)
(0.753333 -7.91414e-21 -3.8297e-21 0.753353 -1.26341e-05 0.753314)
(0.753334 -2.48844e-21 -3.39096e-21 0.753357 -1.67334e-05 0.753309)
(0.753333 1.25971e-20 -4.89559e-21 0.753367 -1.77972e-05 0.7533)
(0.753334 7.4285e-21 5.34767e-21 0.753376 -1.93358e-05 0.75329)
(0.753333 6.46276e-22 3.50649e-22 0.753385 -1.92099e-05 0.753282)
(0.753333 6.22498e-21 -5.37609e-22 0.753392 -2.08481e-05 0.753274)
(0.75333 6.89212e-21 5.09051e-21 0.753411 -2.21518e-05 0.753259)
(0.753341 -1.96112e-20 -1.70677e-20 0.753388 -3.68671e-05 0.753271)
(0.753332 -3.78178e-21 -5.58218e-21 0.753279 3.06782e-05 0.753388)
(0.753333 1.92491e-19 1.13503e-19 0.75297 0.000197969 0.753697)
(0.753334 -8.23823e-20 -5.14419e-20 0.753291 2.01838e-05 0.753375)
(0.753332 -6.56038e-20 -8.40722e-20 0.753377 -2.39533e-05 0.753291)
(0.753335 -1.17084e-20 -6.69273e-21 0.753364 -2.37002e-05 0.753301)
(0.753332 -2.06797e-21 -2.47483e-21 0.753357 -1.52265e-05 0.753311)
(0.753334 1.17609e-20 -1.81641e-20 0.753352 -1.68065e-05 0.753314)
(0.753333 -1.18718e-21 -1.65997e-21 0.753353 -1.49358e-05 0.753314)
(0.753334 -1.98753e-21 -2.7739e-21 0.753353 -1.653e-05 0.753313)
(0.753333 1.24961e-20 -1.79354e-20 0.753356 -1.62579e-05 0.753311)
(0.753333 3.67519e-21 2.12818e-21 0.75336 -1.66937e-05 0.753307)
(0.753333 1.74309e-22 -4.80514e-22 0.753365 -1.65234e-05 0.753302)
(0.753333 4.79994e-21 -9.03852e-21 0.753372 -1.78899e-05 0.753295)
(0.753332 1.11398e-20 7.95324e-21 0.753385 -1.8762e-05 0.753283)
(0.753337 -2.18714e-20 -1.29416e-20 0.753397 -3.11078e-05 0.753266)
(0.75333 -2.55835e-21 2.27734e-21 0.753345 9.38595e-06 0.753325)
(0.753334 2.04296e-19 9.87786e-20 0.752998 0.000185778 0.753668)
(0.753333 -6.5877e-20 -4.02869e-20 0.753278 2.90861e-05 0.753389)
(0.753333 -8.42764e-20 -7.15189e-20 0.753375 -2.45604e-05 0.753292)
(0.753334 -1.7403e-21 -3.49499e-20 0.753369 -2.47408e-05 0.753297)
(0.753332 1.1183e-21 -8.4884e-23 0.753359 -1.59479e-05 0.753309)
(0.753334 5.57249e-21 -9.42935e-21 0.753354 -1.59306e-05 0.753312)
(0.753333 1.21105e-20 -1.63637e-20 0.753354 -1.40746e-05 0.753313)
(0.753334 5.98562e-22 -3.04088e-22 0.753354 -1.46195e-05 0.753313)
(0.753333 6.60927e-23 -9.8091e-21 0.753354 -1.37566e-05 0.753313)
(0.753333 9.61832e-21 -1.03174e-20 0.753355 -1.35925e-05 0.753312)
(0.753333 7.11027e-23 4.51219e-22 0.753357 -1.33513e-05 0.75331)
(0.753334 -7.82324e-21 -9.01768e-21 0.753361 -1.45677e-05 0.753306)
(0.753333 1.49853e-20 5.85139e-22 0.753371 -1.68281e-05 0.753296)
(0.753336 -1.06169e-20 -1.56088e-21 0.753389 -3.02818e-05 0.753275)
(0.75333 -3.16524e-21 2.62925e-21 0.753372 -8.57366e-06 0.753298)
(0.753334 1.93514e-19 1.04724e-19 0.753014 0.00018134 0.753653)
(0.753333 -6.37326e-20 -1.71049e-20 0.753273 3.16899e-05 0.753394)
(0.753333 -7.01198e-20 -1.08112e-19 0.753373 -2.43279e-05 0.753294)
(0.753334 -1.70406e-20 -8.84827e-21 0.75337 -2.4829e-05 0.753296)
(0.753333 -9.64068e-21 6.38534e-21 0.753359 -1.6038e-05 0.753308)
(0.753334 1.5347e-20 -3.62289e-20 0.753353 -1.47514e-05 0.753313)
(0.753333 3.03888e-21 6.3433e-21 0.753353 -1.2722e-05 0.753314)
(0.753334 -9.40089e-21 4.74292e-21 0.753352 -1.27851e-05 0.753314)
(0.753333 1.16923e-21 -3.64976e-20 0.753352 -1.18601e-05 0.753315)
(0.753333 7.01481e-21 7.30304e-21 0.753352 -1.15717e-05 0.753315)
(0.753333 -9.25864e-21 7.97614e-21 0.753353 -1.10541e-05 0.753314)
(0.753334 -5.95214e-21 -2.35231e-20 0.753354 -1.11708e-05 0.753312)
(0.753333 -8.29836e-21 -2.23108e-21 0.753361 -1.13808e-05 0.753306)
(0.753335 -2.4902e-20 -2.47693e-20 0.753383 -2.40271e-05 0.753283)
(0.753332 6.46023e-20 4.42599e-20 0.753398 -2.66247e-05 0.753269)
(0.753334 1.99674e-19 1.16039e-19 0.753025 0.000177591 0.753641)
(0.753333 -7.56125e-20 -2.23469e-20 0.753278 2.91577e-05 0.753389)
(0.753333 -1.04688e-19 -8.64955e-20 0.753368 -2.42063e-05 0.753299)
(0.753334 8.30443e-22 1.75488e-21 0.753369 -2.49348e-05 0.753297)
(0.753333 -1.84049e-20 1.07724e-21 0.753359 -1.65798e-05 0.753308)
(0.753334 -1.58327e-20 -2.99586e-20 0.753352 -1.41061e-05 0.753314)
(0.753333 2.25583e-20 1.62854e-20 0.753351 -1.20304e-05 0.753316)
(0.753334 -1.9658e-21 8.69235e-21 0.75335 -1.21597e-05 0.753316)
(0.753333 -2.88901e-20 -2.74814e-20 0.75335 -1.16672e-05 0.753317)
(0.753333 -7.83591e-21 -1.81168e-21 0.753349 -1.10068e-05 0.753317)
(0.753333 -3.37899e-21 -2.04281e-22 0.753348 -8.74931e-06 0.753319)
(0.753334 -3.13793e-21 -1.63958e-20 0.753346 -5.43853e-06 0.753321)
(0.753333 -1.7655e-20 -1.00466e-21 0.753349 -2.42846e-06 0.753318)
(0.753334 -3.80734e-20 -2.46862e-20 0.753373 -1.48378e-05 0.753293)
(0.753333 9.86281e-20 6.27392e-20 0.753435 -4.4566e-05 0.753233)
(0.753333 1.97207e-19 9.61589e-20 0.753022 0.000177007 0.753645)
(0.753333 -7.07703e-20 -6.08792e-20 0.753296 2.15906e-05 0.753371)
(0.753333 -1.21586e-19 -4.69984e-20 0.753372 -2.32548e-05 0.753294)
(0.753333 3.44052e-20 -4.51033e-22 0.753362 -2.03854e-05 0.753304)
(0.753333 -1.44278e-20 -5.7342e-21 0.753353 -1.58399e-05 0.753314)
(0.753333 -4.50714e-20 -2.39333e-20 0.75335 -1.68615e-05 0.753317)
(0.753333 5.93016e-20 2.08014e-20 0.753349 -1.63457e-05 0.753318)
(0.753333 7.97319e-21 2.57446e-20 0.753348 -1.71063e-05 0.753319)
(0.753333 -5.72479e-20 -4.45028e-20 0.753347 -1.57623e-05 0.75332)
(0.753333 -7.13042e-21 -6.00311e-21 0.753344 -1.1766e-05 0.753323)
(0.753333 -8.78367e-21 2.37436e-21 0.753338 -4.14225e-06 0.753329)
(0.753333 -2.12146e-20 -1.72114e-20 0.753332 4.83883e-06 0.753334)
(0.753333 -8.37774e-21 -2.85053e-21 0.753334 8.84831e-06 0.753333)
(0.753333 -4.50459e-20 -1.69784e-20 0.753362 -4.80614e-06 0.753304)
(0.753333 1.1739e-19 6.20614e-20 0.753486 -7.64277e-05 0.753181)
(0.753335 1.61498e-19 9.32211e-20 0.753028 0.000160448 0.753637)
(0.753333 -4.62359e-20 -3.4897e-20 0.753271 3.17805e-05 0.753397)
(0.753334 -1.20368e-19 -1.06385e-19 0.753383 -2.18133e-05 0.753283)
(0.753334 3.66221e-21 -1.52938e-20 0.753396 -2.35354e-05 0.75327)
(0.753333 4.25543e-21 -7.25864e-21 0.753382 -1.41396e-05 0.753285)
(0.753334 1.31643e-20 4.71653e-21 0.753369 -9.70583e-06 0.753297)
(0.753333 5.71218e-20 3.44482e-20 0.753363 -8.07749e-06 0.753304)
(0.753334 -7.45108e-21 -6.80991e-21 0.753355 -7.69981e-06 0.753312)
(0.753333 -3.89124e-20 -2.45314e-20 0.753342 -3.19145e-06 0.753325)
(0.753334 -2.2435e-20 -1.26813e-20 0.753323 3.56581e-06 0.753343)
(0.753333 -2.80475e-20 -2.22123e-20 0.753307 1.02883e-05 0.753359)
(0.753333 -1.97831e-20 -1.36351e-20 0.753302 1.31669e-05 0.753365)
(0.753334 -2.47224e-20 -4.37631e-21 0.753313 7.39889e-06 0.753353)
(0.753333 -2.64607e-20 -2.35939e-20 0.753362 -1.67004e-05 0.753306)
(0.753334 1.23732e-19 6.83766e-20 0.753508 -0.000106169 0.753158)
(0.753332 8.82032e-20 5.89939e-20 0.753076 0.000124656 0.753592)
(0.753333 4.69901e-20 1.85651e-20 0.753187 4.16401e-05 0.753481)
(0.753333 -5.05205e-20 -1.162e-20 0.753282 1.44992e-06 0.753384)
(0.753333 -4.04335e-20 -3.29681e-20 0.753335 -1.21742e-05 0.753331)
(0.753333 -1.71373e-20 -2.81355e-20 0.753362 -1.53511e-05 0.753306)
(0.753333 -1.57722e-20 -3.60006e-21 0.753378 -1.83323e-05 0.753289)
(0.753333 1.10379e-20 3.88105e-21 0.753389 -1.65515e-05 0.753278)
(0.753333 1.01531e-20 -3.59497e-21 0.753391 -1.44337e-05 0.753276)
(0.753333 -4.75213e-21 5.63872e-21 0.753391 -1.18592e-05 0.753276)
(0.753333 -1.77898e-20 -1.36636e-20 0.753383 -7.36387e-06 0.753284)
(0.753333 -2.45543e-20 -2.44523e-20 0.753362 1.2916e-06 0.753305)
(0.753333 -2.64873e-20 -1.669e-20 0.753331 1.3476e-05 0.753336)
(0.753334 -4.37143e-20 -3.17832e-20 0.753314 1.50352e-05 0.753351)
(0.753332 -2.0686e-20 -2.6227e-20 0.75336 -1.03972e-05 0.753308)
(0.753335 1.05464e-19 5.67488e-20 0.753455 -6.41498e-05 0.75321)
(0.753801 4.69808e-21 2.96699e-22 0.752678 0.00053191 0.753521)
(0.753232 3.84487e-21 6.69563e-22 0.753486 0.000567615 0.753282)
(0.753332 -4.53651e-22 1.29385e-21 0.753335 8.88895e-05 0.753333)
(0.753335 -7.89021e-23 1.25164e-21 0.753314 -1.35976e-05 0.753351)
(0.753335 2.21306e-21 1.41862e-21 0.753311 2.21968e-05 0.753354)
(0.753333 1.5856e-22 5.14383e-22 0.753325 -4.47513e-06 0.753342)
(0.753331 -2.68913e-21 1.44596e-21 0.753322 -1.67896e-05 0.753347)
(0.753336 1.94622e-21 1.34614e-21 0.753315 -1.07923e-05 0.75335)
(0.753334 -9.2543e-21 4.63868e-22 0.753317 -3.20711e-07 0.753348)
(0.753333 -8.86022e-21 -2.05254e-21 0.753327 -2.91886e-06 0.75334)
(0.753331 2.16148e-21 -1.49136e-21 0.753325 -1.92743e-05 0.753344)
(0.753337 1.92975e-21 -1.26699e-21 0.753316 -4.76304e-06 0.753347)
(0.753333 1.59347e-21 4.62204e-22 0.753329 -4.34274e-06 0.753338)
(0.753332 1.08898e-21 -9.04432e-22 0.753326 -1.58544e-05 0.753342)
(0.753335 -4.23486e-22 -8.29292e-22 0.753323 -1.10792e-05 0.753342)
(0.753334 6.43844e-23 -8.34526e-22 0.753325 -6.34286e-06 0.753341)
(0.753333 -2.76804e-22 5.09533e-22 0.75333 -3.96655e-06 0.753337)
(0.753331 -3.30536e-22 -1.38699e-21 0.753331 -1.31009e-05 0.753337)
(0.753337 1.21153e-22 -9.19206e-22 0.753321 -6.86418e-06 0.753342)
(0.753333 3.44755e-22 4.10566e-22 0.753332 -3.22177e-06 0.753335)
(0.753333 1.67484e-21 -8.94338e-22 0.753331 -9.5934e-06 0.753336)
(0.753335 -1.29796e-21 -7.60517e-22 0.753328 -5.91654e-06 0.753338)
(0.753334 -1.88072e-21 -1.25703e-21 0.753329 -5.75944e-06 0.753337)
(0.753333 9.23536e-22 3.59223e-22 0.753333 -2.45708e-06 0.753334)
(0.753333 2.99588e-21 -7.81279e-22 0.753333 -7.69889e-06 0.753335)
(0.753335 6.9507e-21 -2.96815e-22 0.753328 -4.84179e-06 0.753337)
(0.753334 6.19821e-21 7.32713e-22 0.75333 -5.71169e-06 0.753336)
(0.753333 3.15867e-21 2.8757e-22 0.753335 -2.04116e-06 0.753332)
(0.753331 3.66486e-21 1.16365e-21 0.753336 -6.14756e-06 0.753333)
(0.753337 5.22669e-21 1.5914e-21 0.753324 -6.5496e-06 0.753339)
(0.753333 3.13389e-21 1.29023e-22 0.753337 -1.95316e-06 0.753331)
(0.753332 1.71833e-21 2.28857e-21 0.753335 -5.53182e-06 0.753333)
(0.753335 6.40752e-21 2.68213e-21 0.753329 -3.89688e-06 0.753336)
(0.753334 9.64672e-21 3.85325e-21 0.753331 -6.23555e-06 0.753335)
(0.753333 3.07022e-21 3.95686e-22 0.753337 -1.72933e-06 0.75333)
(0.753331 -1.66457e-21 4.25436e-21 0.753337 -3.97686e-06 0.753332)
(0.753337 8.31265e-21 4.54241e-21 0.753325 -6.35859e-06 0.753338)
(0.753333 2.82312e-21 6.74117e-22 0.753338 -1.5825e-06 0.753329)
(0.753332 -9.90342e-22 5.37134e-21 0.753336 -3.54934e-06 0.753332)
(0.753335 1.52116e-22 5.27697e-21 0.75333 -2.73243e-06 0.753336)
(0.753334 5.5763e-21 5.60612e-21 0.753332 -5.79706e-06 0.753334)
(0.753333 2.062e-21 1.58437e-21 0.753338 -1.20287e-06 0.753329)
(0.753332 -5.07479e-21 6.22329e-21 0.753335 -2.80804e-06 0.753332)
(0.753335 1.41704e-22 5.84252e-21 0.75333 -2.52119e-06 0.753335)
(0.753334 8.20344e-21 6.58376e-21 0.753332 -5.26779e-06 0.753334)
(0.753333 3.16746e-21 2.57739e-21 0.753336 -1.13166e-06 0.753331)
(0.753332 -8.86114e-21 7.10254e-21 0.753336 -2.82181e-06 0.753332)
(0.753336 7.62539e-21 7.07146e-21 0.753328 -5.44158e-06 0.753336)
(0.753333 -1.07709e-22 2.00481e-21 0.753335 -8.17869e-07 0.753332)
(0.753333 -1.13313e-20 7.43262e-21 0.753335 -3.45386e-06 0.753332)
(0.753334 -4.76282e-21 6.28047e-21 0.753332 -2.8279e-06 0.753334)
(0.753333 3.41763e-21 6.38601e-21 0.753334 -6.39599e-06 0.753332)
(0.753333 -1.75659e-21 1.23672e-21 0.753338 3.19627e-07 0.753328)
(0.753332 -1.24187e-20 6.01133e-21 0.753337 -1.37068e-06 0.753331)
(0.753334 -1.51311e-20 4.51945e-21 0.753332 -2.92644e-06 0.753333)
(0.753333 -1.07666e-20 3.3484e-21 0.753336 -4.58098e-06 0.753331)
(0.753334 -6.67774e-21 6.42235e-22 0.753342 4.8865e-06 0.753324)
(0.753332 -8.61329e-21 1.93007e-21 0.753337 2.1954e-07 0.753331)
(0.753334 -4.83652e-21 1.27424e-21 0.753331 4.89587e-06 0.753335)
(0.753334 -8.66327e-21 6.67004e-22 0.753347 1.48872e-05 0.753319)
(0.753328 -1.23967e-20 -6.26688e-22 0.753338 6.03531e-06 0.753334)
(0.753337 -1.60404e-20 -2.11033e-21 0.753319 -1.957e-07 0.753344)
(0.753335 -1.34998e-20 -3.66698e-21 0.753321 6.59941e-06 0.753344)
(0.753333 2.83401e-20 -1.82438e-21 0.753353 -9.59383e-06 0.753315)
(0.753332 1.93006e-20 3.86559e-21 0.753335 -2.12666e-05 0.753333)
(0.753337 -1.41632e-20 4.26141e-21 0.75333 -1.95181e-05 0.753333)
(0.753333 -7.09097e-22 5.98732e-22 0.75336 -2.32606e-05 0.753308)
(0.753331 -6.6065e-21 2.391e-21 0.753356 -5.27628e-06 0.753312)
(0.753337 2.20428e-22 3.6183e-21 0.753347 -3.51333e-07 0.753316)
(0.753332 7.38958e-21 4.16844e-21 0.753363 -3.38754e-05 0.753305)
(0.753333 6.85006e-22 -2.17302e-22 0.753365 -1.28363e-05 0.753302)
(0.753333 -9.1136e-22 4.22491e-21 0.753371 1.31839e-05 0.753296)
(0.753337 4.22089e-21 4.32592e-21 0.753364 6.53785e-07 0.753299)
(0.753334 3.967e-21 4.769e-21 0.75338 -3.33886e-05 0.753287)
(0.753331 -4.75419e-21 -7.76387e-21 0.753373 -5.82648e-06 0.753296)
(0.753347 -1.09642e-20 3.34058e-21 0.753357 3.06179e-05 0.753296)
(0.75333 -6.73302e-21 2.3839e-21 0.753395 -3.15901e-05 0.753274)
(0.753331 -8.58111e-21 -2.3231e-21 0.753374 2.76185e-06 0.753296)
(0.753347 -1.19087e-20 5.70152e-22 0.753366 4.7317e-05 0.753287)
(0.75333 1.64246e-20 7.80738e-24 0.753401 -5.82772e-05 0.753269)
(0.753328 1.43687e-20 -9.40034e-21 0.753362 -5.79114e-05 0.75331)
(0.753339 -7.49574e-21 -1.01063e-20 0.753339 -1.16415e-05 0.753322)
(0.753323 -2.32706e-20 -1.18939e-20 0.753378 -4.30522e-05 0.753299)
(0.753334 -2.12988e-20 8.91343e-21 0.75335 -3.43014e-06 0.753316)
(0.753336 1.03566e-20 -1.17332e-20 0.753344 -7.31645e-06 0.75332)
(0.753327 -2.03228e-21 -1.15163e-20 0.753351 -3.89853e-05 0.753322)
(0.753336 -1.36927e-21 -1.20591e-20 0.753335 -1.22263e-05 0.753329)
(0.753332 -1.49661e-21 -1.2064e-20 0.753342 -1.93192e-05 0.753325)
(0.753334 1.1446e-21 -1.2089e-20 0.753342 -2.69485e-05 0.753325)
(0.753331 -1.37125e-20 -1.26942e-20 0.753349 -2.82494e-05 0.75332)
(0.753335 -3.78473e-20 -1.25842e-20 0.753343 -2.35434e-05 0.753322)
(0.753331 -3.7417e-20 -9.75482e-21 0.753357 -2.76633e-05 0.753312)
(0.753333 -1.18273e-20 1.11291e-20 0.753344 -4.39789e-06 0.753323)
(0.753337 6.18599e-21 -8.09243e-21 0.75334 4.17019e-06 0.753323)
(0.753331 -6.73008e-21 -7.12576e-21 0.753349 -2.52047e-05 0.75332)
(0.753334 -3.05592e-20 -6.6896e-21 0.753345 -7.75564e-06 0.753321)
(0.753334 -2.77549e-20 -4.47145e-21 0.753352 3.12407e-06 0.753315)
(0.753334 -5.42233e-21 -5.27904e-21 0.753352 -2.34395e-06 0.753314)
(0.753331 -4.79195e-21 -5.37856e-21 0.753358 -7.75291e-06 0.753311)
(0.753336 2.74458e-21 -5.12671e-21 0.753351 -1.31852e-05 0.753313)
(0.753334 -7.34989e-21 -5.90732e-21 0.753358 -2.84187e-05 0.753308)
(0.753333 7.47635e-21 -2.52263e-20 0.753339 -8.37911e-06 0.753329)
(0.75334 -5.04669e-21 -3.78687e-21 0.753343 8.25965e-06 0.753317)
(0.753331 -7.81434e-21 -3.6902e-21 0.753356 -1.87577e-05 0.753313)
(0.753334 -2.14474e-21 -4.1825e-21 0.753352 -1.8146e-05 0.753314)
(0.753334 -1.01662e-20 -4.16786e-21 0.753354 -3.10894e-05 0.753312)
(0.753333 -2.57515e-20 -3.45588e-21 0.753357 -3.68019e-05 0.75331)
(0.753334 -1.87041e-20 -1.70303e-21 0.753354 -1.63556e-05 0.753313)
(0.753333 -2.77702e-21 -1.58743e-21 0.753354 4.11395e-06 0.753313)
(0.753333 1.92842e-21 -1.32812e-21 0.753353 7.70343e-06 0.753313)
(0.753339 3.51354e-21 -1.15531e-21 0.753344 6.25969e-07 0.753317)
(0.753332 -1.20595e-20 2.27814e-20 0.753326 -5.44708e-06 0.753342)
(0.753339 -3.29869e-23 -9.59305e-22 0.753338 1.35447e-05 0.753323)
(0.753333 -5.23296e-21 -6.99553e-22 0.753348 7.60465e-06 0.753319)
(0.753333 -7.47629e-21 -8.33736e-22 0.753348 4.7892e-06 0.753319)
(0.753334 -1.08096e-20 -1.05387e-21 0.753345 -2.29281e-06 0.75332)
(0.753334 -1.13077e-20 -1.39459e-21 0.753347 -2.22464e-05 0.753319)
(0.753333 -1.65669e-20 -2.05834e-21 0.753346 -2.11218e-05 0.753321)
(0.753332 -2.28993e-20 -2.9832e-21 0.753342 4.37054e-06 0.753325)
(0.75334 -1.75851e-20 -3.18431e-21 0.753325 1.62128e-05 0.753335)
(0.753333 -7.08336e-21 8.0316e-21 0.753311 -4.6416e-06 0.753357)
(0.753337 -1.4557e-20 -1.26569e-21 0.753328 -3.44218e-05 0.753335)
(0.753333 -2.17686e-20 -1.55549e-21 0.753333 -5.54925e-05 0.753334)
(0.753333 -1.5068e-20 -3.2504e-21 0.753333 -3.15422e-05 0.753334)
(0.753335 -1.9816e-20 -3.66414e-21 0.753332 -9.19655e-06 0.753334)
(0.753332 -1.96074e-20 -4.27409e-21 0.753338 -2.38718e-06 0.75333)
(0.753337 -1.75015e-20 -4.78768e-21 0.753326 1.15517e-05 0.753337)
(0.753329 -5.17123e-21 -4.53233e-21 0.753343 5.36078e-06 0.753328)
(0.753341 -2.10017e-21 -5.61937e-21 0.753303 3.61838e-05 0.753355)
(0.753333 1.09215e-20 -1.38389e-20 0.753295 9.65186e-06 0.753373)
(0.75333 8.03755e-22 -5.5839e-21 0.753329 3.64139e-06 0.753341)
(0.753338 -1.11768e-20 -4.91073e-21 0.753317 3.77892e-05 0.753344)
(0.753332 -2.83717e-20 -4.76727e-21 0.753325 4.89361e-06 0.753343)
(0.753333 -2.76516e-20 -3.79303e-21 0.753317 5.01089e-06 0.753349)
(0.753334 -1.75816e-20 -3.77693e-21 0.753313 1.49748e-05 0.753353)
(0.753336 -2.72105e-20 -4.66828e-21 0.753308 1.14392e-05 0.753356)
(0.753328 -3.69076e-20 -6.0267e-21 0.753322 1.42946e-05 0.75335)
(0.753346 -3.07335e-20 -6.61573e-21 0.75328 4.72118e-05 0.753375)
(0.753333 -9.09629e-21 1.08615e-21 0.753289 -6.95993e-06 0.753378)
(0.75333 -1.67824e-20 -2.05727e-21 0.753311 -3.32194e-05 0.753359)
(0.753339 -2.092e-20 -2.24107e-21 0.753301 2.06829e-05 0.75336)
(0.753332 -6.10247e-21 -3.40347e-21 0.753314 3.82461e-05 0.753354)
(0.753334 1.05847e-20 -3.84448e-21 0.753309 7.71408e-05 0.753358)
(0.753333 4.4154e-22 -3.74561e-21 0.753303 0.000105643 0.753363)
(0.753334 4.31354e-20 3.50402e-21 0.753294 0.000115994 0.753372)
(0.753334 9.97294e-20 7.29848e-21 0.753284 0.00013849 0.753382)
(0.753332 1.06497e-19 1.09645e-20 0.753274 0.000173456 0.753395)
(0.753342 9.29618e-20 1.27765e-20 0.753242 0.000167668 0.753416)
(0.753333 1.37577e-20 9.21388e-21 0.753294 2.68704e-05 0.753373)
(0.753331 4.286e-20 6.23571e-21 0.753302 6.28608e-05 0.753367)
(0.753342 9.04743e-20 5.88638e-21 0.753289 0.000146486 0.753369)
(0.75333 7.47939e-20 9.26381e-21 0.753298 8.04606e-05 0.753372)
(0.753337 8.45039e-20 1.14845e-20 0.753279 8.86574e-05 0.753384)
(0.753328 9.87907e-20 1.45824e-20 0.75329 0.000105052 0.753382)
(0.753338 1.06108e-19 1.42871e-20 0.753271 0.000127255 0.753391)
(0.753339 2.98126e-20 5.11142e-21 0.753293 3.50644e-05 0.753368)
(0.753331 -9.83228e-21 3.07213e-21 0.753312 -3.8496e-07 0.753358)
(0.753334 7.49463e-21 2.45338e-21 0.753322 1.11966e-06 0.753345)
(0.753328 -1.08225e-20 4.75779e-21 0.753316 -1.08353e-05 0.753356)
(0.753344 -2.93931e-21 4.14848e-21 0.753289 4.85782e-05 0.753366)
(0.753336 6.26182e-21 1.53031e-21 0.753319 4.27752e-05 0.753345)
(0.75333 3.05801e-22 2.00651e-22 0.753339 5.96773e-07 0.753331)
(0.753337 -7.09959e-22 1.20537e-22 0.753324 -6.29546e-07 0.753339)
(0.753329 9.59824e-22 2.12614e-21 0.753335 8.73854e-06 0.753336)
(0.753334 1.15636e-21 8.86398e-22 0.753329 2.60352e-06 0.753336)
(0.753334 1.2258e-22 2.15381e-21 0.753326 7.17395e-06 0.75334)
(0.753331 6.52505e-22 9.31164e-22 0.753336 4.45448e-06 0.753333)
(0.753336 -1.69346e-21 4.24995e-22 0.753327 1.81899e-07 0.753337)
(0.753332 1.09547e-21 1.89408e-21 0.75333 7.82042e-06 0.753337)
(0.753332 1.05973e-21 2.23977e-22 0.753335 4.15782e-06 0.753333)
(0.753335 -1.00857e-21 1.57526e-22 0.753328 7.23663e-07 0.753337)
(0.753331 1.48136e-21 2.02525e-21 0.753334 6.72488e-06 0.753335)
(0.753334 6.96687e-22 2.555e-22 0.753331 2.98329e-06 0.753335)
(0.753334 1.2029e-21 2.47779e-21 0.753328 5.71513e-06 0.753338)
(0.753332 1.61934e-21 6.75295e-22 0.753335 4.14268e-06 0.753333)
(0.753335 -2.04922e-21 1.34614e-22 0.753329 1.07789e-06 0.753336)
(0.753331 8.2925e-22 2.00459e-21 0.753334 5.70159e-06 0.753335)
(0.753334 -7.67398e-22 2.42339e-22 0.753331 2.94496e-06 0.753335)
(0.753334 -1.08427e-22 1.80592e-21 0.753329 4.77352e-06 0.753337)
(0.753332 1.32264e-21 3.02277e-22 0.753335 4.00546e-06 0.753333)
(0.753335 -1.03935e-21 1.50432e-22 0.753329 1.33295e-06 0.753336)
(0.753333 1.21161e-21 1.97454e-21 0.753332 5.01068e-06 0.753336)
(0.753332 9.6984e-22 2.71548e-22 0.753334 3.74536e-06 0.753333)
(0.753335 -1.39447e-21 5.99119e-22 0.75333 1.37947e-06 0.753335)
(0.753332 -5.37995e-23 1.69157e-21 0.753334 4.22245e-06 0.753335)
(0.753334 5.01618e-22 2.21515e-22 0.753332 2.8655e-06 0.753335)
(0.753334 8.17411e-22 1.91507e-21 0.75333 3.56316e-06 0.753337)
(0.753332 1.07109e-21 6.09858e-22 0.753334 3.70674e-06 0.753333)
(0.753334 -1.32663e-21 1.07745e-22 0.75333 1.3967e-06 0.753335)
(0.753332 1.44424e-21 1.72604e-21 0.753334 3.4494e-06 0.753334)
(0.753334 4.32681e-22 2.31706e-22 0.753332 2.79974e-06 0.753335)
(0.753334 1.5554e-21 2.12053e-21 0.75333 2.82838e-06 0.753336)
(0.753332 1.6262e-21 3.83624e-22 0.753334 3.65501e-06 0.753333)
(0.753334 -2.07757e-21 4.48934e-22 0.75333 1.50591e-06 0.753335)
(0.753333 -2.59233e-22 1.89341e-21 0.753332 2.94275e-06 0.753335)
(0.753333 8.89287e-22 3.00818e-22 0.753334 3.47215e-06 0.753334)
(0.753334 -2.30022e-21 4.31551e-22 0.753331 1.51559e-06 0.753335)
(0.753332 -2.27385e-22 1.41487e-21 0.753334 2.23328e-06 0.753334)
(0.753334 2.09668e-22 2.15992e-22 0.753332 2.764e-06 0.753334)
(0.753333 9.00559e-23 1.46957e-21 0.753331 1.78712e-06 0.753336)
(0.753333 7.46168e-22 2.2679e-22 0.753334 3.50023e-06 0.753333)
(0.753334 9.49034e-22 -1.42819e-22 0.753331 1.53911e-06 0.753335)
(0.753332 3.22699e-21 2.2324e-21 0.753334 1.54935e-06 0.753334)
(0.753334 -1.63273e-21 5.35221e-22 0.753332 2.74668e-06 0.753334)
(0.753333 -1.04097e-21 1.73844e-21 0.753331 1.1921e-06 0.753335)
(0.753333 1.5627e-21 4.0743e-22 0.753334 3.56051e-06 0.753333)
(0.753334 -5.05255e-21 5.9759e-22 0.753331 1.67875e-06 0.753335)
(0.753332 -5.28445e-21 2.43777e-22 0.753333 1.19637e-06 0.753335)
(0.753333 -1.46643e-22 5.22246e-23 0.753334 3.49227e-06 0.753333)
(0.753334 -6.62704e-22 5.1452e-24 0.753331 1.61613e-06 0.753335)
(0.753331 1.35576e-21 -2.84589e-22 0.753336 2.20445e-07 0.753333)
(0.753334 1.18207e-20 -4.14568e-22 0.753331 2.77231e-06 0.753335)
(0.753334 2.43589e-20 5.6333e-21 0.753331 -1.3682e-07 0.753335)
(0.75333 2.92114e-21 1.5448e-21 0.753339 4.21983e-06 0.753331)
(0.753337 -1.44019e-20 1.37492e-21 0.753326 2.35906e-06 0.753337)