/*--------------------------------*- C++ -*----------------------------------*\
| =========                 |                                                 |
| \\      /  F ield         | OpenFOAM: The Open Source CFD Toolbox           |
|  \\    /   O peration     | Version:  4.1                                   |
|   \\  /    A nd           | Web:      www.OpenFOAM.org                      |
|    \\/     M anipulation  |                                                 |
\*---------------------------------------------------------------------------*/
FoamFile
{
    version     2.0;
    format      ascii;
    class       volVectorField;
    location    "20";
    object      U;
}
// * * * * * * * * * * * * * * * * * * * * * * * * * * * * * * * * * * * * * //

dimensions      [0 1 -1 0 0 0 0];

internalField   nonuniform List<vector> 
6785
(
(1.36594e-14 -2.33917 16.5223)
(1.09957e-14 -7.91075 13.0313)
(-3.04829e-15 -5.12328 13.8228)
(4.35444e-15 -5.04288 13.3387)
(9.02767e-16 -4.23974 13.203)
(-1.73523e-16 -3.79471 12.9154)
(2.52749e-15 -3.34744 12.6203)
(6.22639e-16 -3.01447 12.2751)
(-6.95177e-16 -2.77036 11.9117)
(1.44431e-15 -2.65405 11.5477)
(1.65266e-16 -2.63997 11.2481)
(-5.39947e-16 -2.73664 11.0482)
(6.53954e-16 -3.28978 10.609)
(-2.00916e-16 -3.46529 9.61991)
(-1.31782e-16 -0.14089 7.52844)
(1.91202e-14 -10.2952 27.0068)
(1.31482e-14 -16.4126 23.3425)
(-3.10447e-15 -11.2825 23.7083)
(4.11408e-15 -12.1348 21.8619)
(9.02055e-16 -10.4295 21.0086)
(9.27646e-16 -9.85188 19.7719)
(1.99623e-15 -8.91098 18.6817)
(3.02793e-16 -8.18023 17.5364)
(1.86876e-16 -7.43958 16.4181)
(7.78568e-16 -6.77165 15.2977)
(-3.33911e-17 -6.07768 14.0746)
(-1.93209e-16 -5.09122 12.269)
(-4.03528e-16 -3.36899 8.84182)
(-6.88769e-16 -0.618841 3.16074)
(-5.44912e-16 1.42271 -2.22426)
(2.02708e-14 -12.6119 28.0525)
(1.27296e-14 -17.0264 24.7898)
(-2.50913e-15 -11.9458 24.8044)
(4.5535e-15 -13.3517 22.0975)
(9.86933e-16 -11.0934 21.1146)
(1.44303e-15 -10.8403 19.2514)
(2.05698e-15 -9.73076 17.878)
(2.98882e-16 -9.12726 16.3788)
(4.22463e-16 -8.41526 15.0619)
(1.39808e-15 -7.80643 13.7384)
(4.58863e-16 -7.11211 12.2714)
(1.38612e-16 -6.05333 10.2592)
(1.41255e-16 -4.27434 6.71888)
(-1.76791e-16 -0.393398 1.0213)
(-1.97901e-15 1.49893 -5.63628)
(2.09487e-14 -12.9721 26.9665)
(1.26722e-14 -16.6815 24.4387)
(-1.84223e-15 -12.0147 24.0397)
(4.35621e-15 -13.622 20.9244)
(5.42987e-16 -11.0001 20.0227)
(1.89677e-15 -11.0209 17.7762)
(1.77051e-15 -9.65491 16.3674)
(-4.44304e-16 -9.11971 14.7418)
(5.74011e-16 -8.43127 13.4776)
(2.81761e-16 -7.98868 12.2077)
(-1.67534e-15 -7.51294 10.8505)
(-5.09278e-16 -6.80886 9.32993)
(-3.47025e-16 -5.82044 7.32218)
(-3.4771e-15 -3.71391 4.5797)
(-3.12786e-15 -1.72773 1.05228)
(2.06355e-14 -13.3038 26.587)
(1.02169e-14 -15.9875 24.4289)
(-1.39826e-15 -12.0733 23.8054)
(2.90137e-15 -13.0939 20.8719)
(-5.2472e-16 -10.5136 19.9354)
(1.30487e-15 -10.3852 17.7647)
(-3.1949e-16 -8.76241 16.39)
(-1.2985e-15 -7.75293 14.229)
(3.18141e-16 -6.15073 11.7795)
(1.99184e-16 -5.09779 9.44819)
(5.99091e-19 -4.86806 8.43073)
(1.24881e-15 -5.33204 8.482)
(-1.23987e-15 -5.66818 8.67987)
(-6.0294e-15 -5.71201 8.43287)
(-3.93436e-15 -4.32551 7.1893)
(2.1032e-14 -14.2516 27.7137)
(7.81322e-15 -16.0773 25.5515)
(-5.61047e-16 -12.7366 24.9005)
(1.84657e-15 -13.2424 22.4612)
(-4.83417e-16 -10.9769 21.5536)
(6.71376e-16 -10.7089 19.7934)
(-1.2164e-15 -9.08787 18.53)
(-8.39913e-16 -7.64614 15.9189)
(1.2448e-15 -4.98931 12.1399)
(3.16542e-15 -2.43704 7.87557)
(3.37346e-15 -0.537724 4.77709)
(5.78557e-16 -0.0418725 3.49681)
(-2.88777e-15 -1.27709 4.64394)
(-4.47408e-15 -3.65819 7.40198)
(-2.34168e-15 -3.79543 8.0418)
(1.96468e-14 -14.669 27.9363)
(8.25699e-15 -17.6906 28.0803)
(-1.43861e-15 -13.8775 26.3882)
(1.73421e-15 -14.5016 24.0302)
(-8.13903e-16 -12.3504 23.1773)
(-6.0965e-16 -12.3728 21.4258)
(-1.0256e-15 -10.9387 20.3478)
(-1.51596e-15 -10.025 18.0953)
(-1.14091e-15 -7.72017 14.8565)
(2.29711e-15 -5.13089 10.5841)
(1.31355e-15 -2.32384 6.44747)
(-1.00403e-16 0.268915 2.27391)
(4.39181e-16 2.54665 -1.34858)
(-4.42851e-15 3.00166 -2.51111)
(-6.78376e-15 1.08304 -0.975776)
(1.83839e-14 -13.5785 25.0215)
(1.1845e-14 -18.6346 29.5806)
(4.38944e-16 -15.0346 26.944)
(1.55209e-15 -14.9883 24.0648)
(8.18401e-17 -13.2702 22.8371)
(1.50044e-16 -13.0863 21.0164)
(2.11602e-17 -12.0504 19.7055)
(-4.69509e-16 -11.4062 17.9075)
(-3.88106e-16 -10.1731 15.7851)
(9.20309e-16 -8.62444 13.1047)
(8.33712e-16 -6.69013 10.119)
(1.0266e-15 -4.39641 6.81518)
(1.51651e-15 -1.84059 3.05728)
(2.33067e-15 2.34111 -1.63465)
(-1.70889e-15 2.02834 -5.86187)
(1.66521e-14 -11.7694 21.0395)
(1.50082e-14 -18.0884 29.192)
(3.10284e-15 -15.2653 26.5701)
(1.48988e-15 -14.3875 23.121)
(1.17717e-15 -12.8543 21.4532)
(1.14975e-15 -12.3413 19.5814)
(1.06494e-15 -11.3997 18.0586)
(9.54492e-16 -10.6653 16.3561)
(7.38051e-16 -9.7802 14.624)
(9.63185e-16 -8.76821 12.7558)
(1.34252e-15 -7.60351 10.7014)
(9.91875e-16 -6.11411 8.44792)
(1.1087e-15 -4.47101 5.73423)
(2.8241e-15 -1.76394 2.45314)
(-2.48832e-15 0.505966 -2.94456)
(1.55509e-14 -10.4076 18.3937)
(1.66829e-14 -17.171 28.3566)
(4.71563e-15 -14.9754 26.0219)
(1.45736e-15 -13.6452 22.3486)
(1.70074e-15 -12.1365 20.4639)
(1.64128e-15 -11.4686 18.6125)
(1.25305e-15 -10.5123 17.0738)
(1.58656e-15 -9.71253 15.4449)
(1.35148e-15 -8.86437 13.8814)
(9.15328e-16 -7.99993 12.3437)
(1.56904e-15 -7.12239 10.7591)
(9.26985e-16 -6.04453 9.08309)
(-3.9975e-16 -4.87558 7.04728)
(2.7094e-15 -2.9346 4.39944)
(-2.14616e-15 -0.470393 -0.766173)
(1.40228e-14 -9.79632 17.374)
(1.78055e-14 -16.5174 27.7534)
(4.90519e-15 -14.732 25.6308)
(8.1634e-16 -13.2185 21.9409)
(2.10234e-15 -11.7391 19.9256)
(5.95061e-16 -11.0425 18.1466)
(5.34008e-16 -10.1517 16.689)
(1.77692e-15 -9.3993 15.1915)
(-3.2998e-16 -8.61667 13.7685)
(-7.59077e-16 -7.84432 12.3914)
(8.23699e-16 -7.09956 11.0129)
(-1.59967e-15 -6.24634 9.63949)
(-2.20147e-15 -5.38174 8.10461)
(-2.96451e-15 -3.96927 6.2779)
(-7.66132e-15 -1.45575 1.56746)
(1.40678e-14 -9.69213 17.1293)
(1.87738e-14 -15.6937 26.6918)
(2.9965e-15 -14.2407 24.7119)
(1.91675e-16 -12.8117 21.2278)
(3.13325e-15 -11.3584 19.0922)
(-1.47098e-15 -10.6451 17.3529)
(-1.51721e-15 -9.84274 15.982)
(2.23933e-15 -9.17806 14.5967)
(-4.76125e-16 -8.48511 13.2466)
(-3.19431e-15 -7.81163 11.9182)
(-1.76479e-15 -7.20127 10.6921)
(-3.74996e-15 -6.64554 9.75286)
(-3.64521e-15 -6.21135 9.06625)
(-5.97167e-15 -5.36754 8.32845)
(-1.02482e-14 -3.01536 4.33135)
(1.32317e-14 -10.2707 17.9513)
(1.78365e-14 -15.3035 25.9868)
(2.27138e-16 -13.3245 23.2443)
(-7.97269e-16 -12.0854 20.2716)
(3.83916e-15 -10.9369 18.6432)
(-3.17057e-15 -10.382 16.945)
(-3.574e-15 -9.61006 15.4682)
(5.90042e-15 -9.0205 13.9131)
(-2.16762e-16 -8.38449 12.4334)
(-4.19741e-15 -7.86069 11.139)
(-1.38948e-15 -7.50198 10.3841)
(-4.96015e-15 -7.47101 10.4456)
(-5.56088e-15 -7.58423 11.1917)
(-6.33801e-15 -7.40958 11.612)
(-1.22877e-14 -5.18674 8.59594)
(9.56894e-15 -9.34308 15.5994)
(1.69933e-14 -15.8711 25.8871)
(6.00368e-16 -14.4744 23.8603)
(-4.1676e-15 -11.7986 19.3035)
(-1.61731e-16 -9.33368 16.1203)
(-4.14987e-15 -7.83636 13.7559)
(2.00372e-15 -6.43191 12.037)
(5.58617e-15 -5.43099 10.414)
(4.3719e-16 -4.72607 9.39637)
(-8.13704e-16 -4.766 9.34939)
(-2.91167e-15 -5.56179 10.5429)
(-5.76767e-15 -6.92086 12.553)
(-6.16535e-15 -8.16023 14.5471)
(-9.15164e-15 -8.5943 14.9908)
(-1.11994e-14 -5.7583 10.5305)
(2.89194e-15 -6.24196 10.8872)
(1.16154e-14 -14.7791 22.4624)
(9.25658e-15 -18.2636 26.2462)
(4.67078e-15 -18.9908 26.2014)
(2.60649e-15 -18.106 24.7563)
(4.8796e-16 -16.6124 22.262)
(1.37682e-15 -14.4021 19.2128)
(2.30339e-15 -12.0075 16.1038)
(2.36463e-15 -9.58044 13.0414)
(2.20399e-15 -7.26753 10.2148)
(-5.61365e-16 -5.45562 8.25839)
(-2.17559e-15 -4.88046 7.9712)
(-4.57656e-15 -5.63341 9.72401)
(-9.36542e-15 -6.499 10.7954)
(-8.32004e-15 -3.36934 6.22174)
(-1.30724e-17 13.9337 60.9437)
(-4.59957e-16 0.0595418 7.39098)
(-4.53573e-16 -0.644959 -3.45405)
(-4.38352e-16 -0.415233 -2.41159)
(-4.50466e-16 -0.240017 -2.86858)
(-6.31711e-16 0.496752 -3.87741)
(-4.68632e-16 0.209267 -2.61154)
(-4.30251e-16 0.501828 -2.50199)
(-5.4527e-16 0.630958 -2.2439)
(6.12843e-16 1.13768 -3.06847)
(5.17617e-16 0.991486 -2.08907)
(4.71924e-16 1.17869 -1.84971)
(3.9874e-16 1.70318 -2.32742)
(2.89363e-16 1.41649 -1.4877)
(2.91761e-16 1.66339 -1.37109)
(3.06039e-16 1.64501 -1.2287)
(2.65425e-16 2.1077 -1.44722)
(3.37752e-16 1.8102 -0.892293)
(3.20826e-16 1.93199 -0.813283)
(3.50188e-16 2.43052 -0.892096)
(2.81328e-16 1.94344 -0.561457)
(2.43883e-16 2.17742 -0.545569)
(3.32439e-16 2.07978 -0.55886)
(3.8896e-16 2.58143 -0.567254)
(2.26631e-16 2.04998 -0.389529)
(1.7586e-16 2.26977 -0.398979)
(-4.70732e-17 2.17736 -0.442821)
(-1.89677e-16 2.58549 -0.405412)
(-4.08957e-16 2.09768 -0.302466)
(-5.0039e-16 2.20665 -0.345889)
(-7.76692e-16 2.59701 -0.232537)
(-8.59435e-16 1.99045 -0.216666)
(-9.30741e-16 2.19364 -0.240981)
(-1.11175e-15 2.10996 -0.297842)
(-1.68365e-15 2.41749 -0.151161)
(-1.4635e-15 1.89988 -0.16989)
(-1.48909e-15 2.00833 -0.228493)
(-2.21798e-15 2.28057 -0.0297656)
(-1.81253e-15 1.70108 -0.111782)
(-1.94138e-15 1.86913 -0.142608)
(-1.81852e-15 1.80351 -0.203102)
(-2.64572e-15 2.02952 -0.00108226)
(-2.05476e-15 1.518 -0.0999043)
(-2.09957e-15 1.66563 -0.129454)
(-2.06034e-15 1.61383 -0.180108)
(-2.93542e-15 1.80219 -0.000704498)
(-2.42323e-15 1.43879 -0.0279618)
(-2.30528e-15 1.51834 -0.0730642)
(-3.31553e-15 1.7031 0.137127)
(-2.29294e-15 1.37066 0.104833)
(-2.25112e-15 1.46787 0.0935591)
(-2.10539e-15 1.42369 0.057958)
(-2.7825e-15 1.47515 0.370127)
(-1.90414e-15 1.12906 0.202877)
(-1.77874e-15 1.18821 0.192203)
(-1.30831e-15 1.1729 0.187992)
(-1.37478e-15 1.07192 0.331931)
(-5.43253e-16 0.674256 -0.0599934)
(-5.48314e-16 0.73016 0.0108977)
(-9.89207e-17 0.760247 -0.82444)
(4.44222e-16 -0.0132078 -1.27838)
(7.0753e-16 0.117753 -1.34904)
(1.07586e-15 0.330208 -1.28699)
(1.47024e-15 0.485347 -2.18197)
(-2.14712e-15 -0.812923 0.430955)
(-1.40963e-15 -0.327442 0.246744)
(-1.84389e-15 -1.17077 2.68359)
(-1.32839e-15 -1.85885 3.74111)
(-1.24375e-15 -2.06309 3.68278)
(-1.33707e-15 -2.06114 3.9756)
(-1.81455e-15 -3.50385 7.14723)
(-1.41555e-15 -3.93052 6.42982)
(-1.54484e-15 -4.50281 6.62088)
(-1.58176e-15 -4.45248 6.89125)
(-1.86992e-15 -6.77141 10.8191)
(-1.03708e-15 -6.88503 8.65396)
(-9.50109e-16 -7.03084 9.10498)
(-5.19745e-16 -9.77082 13.068)
(3.30138e-17 -9.50477 9.79606)
(2.73125e-16 -9.98761 10.3346)
(-3.43843e-16 -10.6261 12.3327)
(-2.18123e-16 -10.5283 12.2406)
(-2.28272e-16 -10.6201 12.6471)
(1.67719e-15 -12.3582 14.8653)
(6.24818e-16 -11.3123 13.2114)
(6.68923e-16 -11.5778 13.7923)
(6.56146e-16 -11.4953 13.9126)
(6.90028e-16 -11.5718 14.0756)
(6.79229e-16 -11.5725 14.3029)
(6.72386e-16 -11.6323 14.5865)
(8.90797e-16 -11.7093 14.8386)
(1.25609e-15 -11.6904 15.0539)
(2.34899e-15 -12.8206 16.8172)
(1.61747e-15 -12.1632 15.5112)
(1.66376e-15 -12.3091 15.8227)
(1.72127e-15 -12.2986 16.0143)
(2.1347e-15 -12.3901 16.0641)
(2.14897e-15 -12.4346 16.1029)
(2.21835e-15 -12.5309 16.242)
(2.2229e-15 -12.6401 16.3704)
(2.17606e-15 -12.6524 16.5942)
(3.00332e-15 -13.5382 18.5221)
(2.86571e-15 -12.9109 17.2384)
(2.97017e-15 -13.0576 17.4988)
(2.98619e-15 -13.0972 17.6556)
(3.00323e-15 -13.192 17.9153)
(3.14303e-15 -13.2487 18.2753)
(3.40038e-15 -13.3754 18.6174)
(3.43141e-15 -13.4029 18.6433)
(3.44318e-15 -13.5355 18.6761)
(3.40165e-15 -13.5564 18.6498)
(3.33621e-15 -13.6811 19.3594)
(3.11209e-15 -13.2762 18.7625)
(3.156e-15 -13.3508 18.7398)
(3.1928e-15 -13.3861 18.7096)
(3.2713e-15 -13.4675 18.7341)
(3.35942e-15 -13.4718 18.8159)
(3.4456e-15 -13.5719 19.1522)
(3.61497e-15 -13.5736 19.1886)
(3.79879e-15 -13.6461 19.1192)
(4.24973e-15 -12.6609 18.2787)
(4.08164e-15 -12.6911 18.855)
(4.3388e-15 -12.6189 19.2912)
(4.41745e-15 -12.6864 19.7092)
(4.57104e-15 -12.6142 19.7443)
(4.7229e-15 -12.6613 19.8193)
(4.87346e-15 -12.6607 19.7488)
(4.99285e-15 -12.5788 19.6051)
(4.95322e-15 -12.7726 19.6415)
(5.32522e-15 -10.2429 16.0474)
(5.00634e-15 -11.0984 17.8605)
(5.05569e-15 -10.921 17.3481)
(5.1786e-15 -10.9392 17.1835)
(5.49308e-15 -10.8687 17.1683)
(5.60503e-15 -10.8155 16.9829)
(5.76424e-15 -10.7028 16.8)
(6.02443e-15 -10.5968 16.6628)
(6.33316e-15 -10.6605 16.4399)
(7.18611e-15 -7.70516 12.8913)
(7.46328e-15 -8.74962 16.077)
(7.66825e-15 -8.40597 15.7883)
(7.78572e-15 -8.45455 15.5844)
(7.76233e-15 -8.2726 15.0055)
(7.6225e-15 -8.26185 14.2011)
(7.75544e-15 -8.04064 13.1751)
(6.95731e-15 -7.94913 12.2172)
(6.21725e-15 -7.65786 10.8276)
(5.31477e-15 -7.49883 9.3159)
(2.57324e-15 -4.3055 2.35597)
(3.9458e-15 -5.83246 6.08791)
(3.0186e-15 -5.31629 4.21323)
(2.5502e-15 -5.42717 3.67769)
(1.86577e-15 -5.06741 2.80038)
(1.24765e-15 -4.97358 2.13487)
(3.41952e-16 -4.77875 0.991151)
(-3.88991e-16 -4.45627 0.0166255)
(-1.17897e-16 -4.42417 0.398072)
(-7.35803e-16 -3.82254 -1.78592)
(-4.36721e-16 -3.9065 0.0318485)
(-3.27758e-16 -3.80091 -0.191263)
(-5.40223e-16 -2.73563 -2.03402)
(-8.21104e-16 -4.30298 -1.70136)
(-8.19643e-16 -3.31353 -1.46114)
(-6.98482e-16 -2.98054 -1.04516)
(-9.45952e-16 -3.71542 -1.44694)
(-6.70503e-16 -2.5492 -0.920403)
(-9.62083e-16 -3.2028 -1.35503)
(-7.22851e-16 -2.89988 -1.05304)
(-6.10455e-16 -2.35712 -0.787541)
(-8.67015e-16 -2.77216 -1.15223)
(-7.68142e-16 -2.54528 -0.914414)
(-6.68536e-16 -2.12467 -0.683567)
(-9.63083e-16 -2.76744 -0.953879)
(-7.88506e-16 -1.8537 -0.628713)
(-1.12138e-15 -2.37718 -0.940029)
(-7.46113e-16 -2.06618 -0.75983)
(-6.74367e-16 -1.76028 -0.576183)
(-8.55242e-16 -2.29637 -0.809756)
(-5.42219e-16 -1.5162 -0.541763)
(-8.40973e-16 -1.96877 -0.813002)
(-7.46211e-16 -1.7629 -0.673777)
(-6.38224e-16 -1.41325 -0.5168)
(-9.05654e-16 -1.69199 -0.772172)
(-7.71603e-16 -1.53726 -0.635573)
(-5.18333e-16 -1.2633 -0.48337)
(-7.64523e-16 -1.68716 -0.685072)
(-6.04713e-16 -1.07521 -0.462228)
(-8.72094e-16 -1.42741 -0.702088)
(-6.098e-16 -1.20286 -0.574879)
(-5.77849e-16 -1.00511 -0.438767)
(-7.99856e-16 -1.35313 -0.625248)
(-6.52357e-16 -0.826511 -0.42294)
(-1.00454e-15 -1.1321 -0.648231)
(-9.0823e-16 -0.966965 -0.536927)
(-5.65836e-16 -0.739493 -0.412499)
(-8.74115e-16 -0.927191 -0.625298)
(-6.67028e-16 -0.794686 -0.510244)
(-4.26066e-16 -0.616945 -0.384825)
(-6.37105e-16 -0.895683 -0.550674)
(-4.62171e-16 -0.467298 -0.370212)
(-6.48956e-16 -0.725962 -0.573921)
(-5.71141e-16 -0.524467 -0.465485)
(-8.21254e-16 -0.40058 -0.348032)
(-9.95812e-16 -0.646906 -0.499986)
(-4.83311e-16 -0.247189 -0.334521)
(-8.58821e-16 -0.514205 -0.528882)
(-7.16783e-16 -0.32874 -0.440509)
(4.68639e-17 -0.152877 -0.329732)
(-2.137e-17 -0.378849 -0.516572)
(1.03421e-16 -0.181947 -0.428146)
(1.24052e-16 -0.0132321 -0.294984)
(-7.49968e-17 -0.526126 -0.420146)
(-1.9399e-15 0.299505 -0.241156)
(-3.28062e-15 -0.328743 -0.426943)
(-2.12455e-15 -0.499018 -0.44939)
(-4.822e-16 0.517784 -0.276407)
(-2.20332e-15 -0.450462 -0.363841)
(-1.56269e-15 0.245943 -0.206487)
(-6.89286e-16 0.231416 -0.219034)
(4.20935e-17 0.0165445 -0.311398)
(5.04657e-16 0.29754 -0.237408)
(-5.33794e-16 0.261694 -0.26242)
(6.35182e-17 0.142109 -0.313516)
(4.78466e-16 0.389165 -0.221739)
(2.05067e-15 0.250765 -0.299171)
(2.19803e-15 0.394411 -0.217517)
(2.9311e-15 0.416182 -0.225815)
(2.58786e-15 0.38561 -0.202618)
(1.39557e-15 0.47612 -0.0971136)
(1.11617e-15 0.454379 -0.14361)
(3.33739e-16 0.502687 -0.121391)
(-3.38736e-16 0.542943 -0.177701)
(-6.94877e-16 0.534818 -0.264676)
(-6.03852e-16 0.592657 -0.189327)
(-6.41767e-16 0.654469 -0.230769)
(-5.26177e-16 0.63472 -0.345177)
(-2.56961e-16 0.704353 -0.232157)
(-1.71396e-16 0.763976 -0.398484)
(-5.15061e-17 0.776018 -0.291872)
(2.14803e-17 0.876068 -0.424298)
(-4.76017e-29 0.797353 1.00436)
(-1.91667e-28 0.898249 1.00641)
(-3.5587e-28 0.950768 1.01427)
(-2.95441e-28 1.00649 1.02263)
(1.03341e-27 1.05638 1.03404)
(8.00116e-27 1.10367 1.04702)
(3.84716e-26 1.14791 1.06207)
(1.4339e-25 1.19033 1.07891)
(3.54787e-25 1.23081 1.09754)
(1.16986e-25 1.27002 1.1179)
(-3.95498e-24 1.30794 1.13992)
(-2.22127e-23 1.34491 1.16358)
(-6.63338e-23 1.38113 1.18891)
(-7.983e-23 1.41715 1.21602)
(3.15294e-22 1.45364 1.24506)
(2.26535e-21 1.49138 1.27627)
(7.32983e-21 1.53098 1.30983)
(1.22536e-20 1.57296 1.34595)
(-9.56851e-21 1.61765 1.38476)
(-1.43723e-19 1.66518 1.42627)
(-5.47375e-19 1.7155 1.47036)
(-1.27082e-18 1.76817 1.51686)
(-1.50605e-18 1.82221 1.56625)
(2.26021e-18 1.87562 1.62116)
(1.93822e-17 1.92488 1.68883)
(6.84599e-17 1.96476 1.7833)
(1.78188e-16 1.98884 1.92484)
(3.82128e-16 1.99121 2.13448)
(7.0652e-16 1.96876 2.42467)
(1.15569e-15 1.9231 2.79082)
(1.70337e-15 1.86104 3.20899)
(2.29578e-15 1.79328 3.64117)
(2.86528e-15 1.73167 4.04538)
(3.34734e-15 1.68588 4.3866)
(3.69321e-15 1.66087 4.64419)
(3.875e-15 1.65624 4.81324)
(3.88469e-15 1.66761 4.90031)
(3.73074e-15 1.68861 4.91706)
(3.43446e-15 1.71235 4.87532)
(3.02721e-15 1.73161 4.78436)
(2.54755e-15 1.73807 4.64987)
(2.03359e-15 1.72406 4.47565)
(1.49887e-15 1.69134 4.27209)
(9.13752e-16 1.64227 4.05655)
(3.63768e-16 1.44011 3.76793)
(4.70947e-16 0.612918 3.11828)
(1.56605e-15 -0.754839 2.28484)
(2.1687e-15 -1.54174 2.06156)
(2.65557e-15 -1.97013 1.89594)
(3.06403e-15 -2.35914 1.71811)
(3.35274e-15 -2.7623 1.54153)
(3.49467e-15 -3.17189 1.3594)
(3.46789e-15 -3.58049 1.17751)
(3.27296e-15 -3.98804 0.998207)
(2.93081e-15 -4.37974 0.812338)
(2.48514e-15 -4.73296 0.623349)
(1.98839e-15 -5.04625 0.436255)
(1.46396e-15 -5.30327 0.248489)
(9.44107e-16 -5.45025 0.0687276)
(4.79788e-16 -5.45476 -0.0834942)
(1.588e-16 -5.33652 -0.195651)
(2.56406e-17 -5.18022 -0.260937)
(-1.90715e-18 -5.0263 -0.30037)
(-1.62072e-18 -4.87138 -0.3163)
(-2.13499e-19 -4.6978 -0.326461)
(1.81848e-20 -4.48488 -0.327628)
(7.6573e-21 -4.21616 -0.33253)
(4.73076e-22 -3.90767 -0.331963)
(-1.08786e-22 -3.51684 -0.341192)
(-3.20355e-23 -3.10708 -0.337899)
(-3.37967e-23 -2.52342 -0.350702)
(4.30808e-23 -2.02874 -0.332326)
(-2.19627e-22 -1.05987 -0.347615)
(1.5516e-21 -0.669537 -0.32597)
(-2.23764e-20 1.18911 -0.391289)
(1.75865e-19 1.69665 -0.0856454)
(-6.20301e-19 1.8417 -0.419748)
(1.64654e-18 2.42861 0.0596051)
(-6.88539e-19 -3.63925 -0.337088)
(-1.61624e-28 0.79722 1.0562)
(-3.96065e-28 0.896813 1.05619)
(-2.68607e-28 0.948259 1.06396)
(1.34233e-27 1.0034 1.07208)
(8.13191e-27 1.05253 1.0837)
(3.32574e-26 1.09921 1.09709)
(1.17402e-25 1.14283 1.11275)
(3.12728e-25 1.18466 1.13039)
(2.9104e-25 1.22458 1.14995)
(-2.55752e-24 1.26324 1.17138)
(-1.78023e-23 1.30062 1.19456)
(-6.22794e-23 1.33705 1.21952)
(-1.09864e-22 1.37271 1.24629)
(1.40571e-22 1.40813 1.27507)
(1.80204e-21 1.44395 1.30609)
(6.97605e-21 1.48095 1.33958)
(1.4817e-20 1.51976 1.37574)
(3.80031e-21 1.56089 1.41473)
(-1.09908e-19 1.60471 1.45658)
(-5.10812e-19 1.6514 1.5012)
(-1.35704e-18 1.70092 1.54839)
(-2.05965e-18 1.7527 1.59849)
(7.11753e-19 1.80521 1.65408)
(1.67326e-17 1.85518 1.72294)
(6.66764e-17 1.8971 1.82116)
(1.83876e-16 1.92362 1.97303)
(4.08425e-16 1.92748 2.20446)
(7.71587e-16 1.90465 2.53025)
(1.27632e-15 1.85682 2.94237)
(1.88597e-15 1.79182 3.40781)
(2.53003e-15 1.72161 3.87795)
(3.12457e-15 1.65915 4.30365)
(3.59575e-15 1.61496 4.64846)
(3.89511e-15 1.59465 4.89523)
(4.00273e-15 1.59808 5.04511)
(3.92229e-15 1.62071 5.11073)
(3.67421e-15 1.65586 5.10824)
(3.29039e-15 1.6967 5.05184)
(2.81029e-15 1.73694 4.95191)
(2.27697e-15 1.77038 4.81518)
(1.73291e-15 1.78964 4.64517)
(1.21286e-15 1.78633 4.44333)
(7.2143e-16 1.75973 4.21661)
(1.96492e-16 1.72239 3.98712)
(-3.67373e-16 1.58646 3.73041)
(-2.7916e-16 0.859916 3.14718)
(1.50201e-15 -0.704973 2.12265)
(2.28364e-15 -1.54556 1.97808)
(2.70176e-15 -1.95706 1.88177)
(3.08796e-15 -2.34463 1.69692)
(3.3649e-15 -2.74742 1.52154)
(3.49692e-15 -3.15627 1.34378)
(3.46388e-15 -3.56478 1.16591)
(3.26585e-15 -3.97065 0.990939)
(2.92316e-15 -4.3587 0.809586)
(2.47874e-15 -4.70849 0.624511)
(1.98381e-15 -5.01811 0.440554)
(1.46135e-15 -5.27171 0.255392)
(9.43342e-16 -5.41853 0.07746)
(4.80252e-16 -5.42687 -0.0739)
(1.59569e-16 -5.3149 -0.186118)
(2.59349e-17 -5.16341 -0.252299)
(-1.93324e-18 -5.01184 -0.292994)
(-1.66681e-18 -4.85732 -0.310401)
(-2.22973e-19 -4.68291 -0.322091)
(1.90232e-20 -4.46854 -0.324823)
(8.20464e-21 -4.19826 -0.33136)
(5.1532e-22 -3.88805 -0.332611)
(-1.20595e-22 -3.49654 -0.34388)
(-3.45842e-23 -3.08616 -0.343049)
(-3.37815e-23 -2.50383 -0.358154)
(4.29181e-23 -2.00861 -0.343099)
(-2.24949e-22 -1.03587 -0.358832)
(1.74242e-21 -0.625059 -0.349086)
(-2.29459e-20 1.1478 -0.405791)
(1.761e-19 1.70097 -0.0548575)
(-6.2809e-19 1.82077 -0.403224)
(1.63387e-18 2.41366 0.0577144)
(-4.37075e-19 -3.55539 -0.328741)
(-3.00291e-28 0.797357 1.08445)
(-2.93633e-28 0.896343 1.08365)
(1.13084e-27 0.947118 1.09136)
(6.65532e-27 1.00197 1.09943)
(2.40293e-26 1.05068 1.11121)
(7.70142e-26 1.09706 1.12489)
(2.10961e-25 1.14033 1.14094)
(3.10456e-25 1.18188 1.15909)
(-1.05924e-24 1.2215 1.17922)
(-1.03468e-23 1.25989 1.20129)
(-4.31704e-23 1.29701 1.22517)
(-1.01595e-22 1.33317 1.25089)
(-2.28988e-23 1.36853 1.27852)
(9.74591e-22 1.4036 1.3083)
(4.84218e-21 1.43904 1.3405)
(1.29534e-20 1.47563 1.37535)
(1.40521e-20 1.514 1.41303)
(-5.13426e-20 1.55469 1.45365)
(-3.44159e-19 1.5981 1.49717)
(-1.08949e-18 1.64442 1.54343)
(-2.09127e-18 1.69349 1.59252)
(-1.11175e-18 1.74435 1.64623)
(9.56602e-18 1.79451 1.71085)
(4.79631e-17 1.83918 1.80083)
(1.45587e-16 1.87136 1.94005)
(3.43474e-16 1.88349 2.15646)
(6.77367e-16 1.87069 2.46891)
(1.1566e-15 1.83361 2.87304)
(1.74981e-15 1.77897 3.33719)
(2.38882e-15 1.71722 3.81236)
(2.98906e-15 1.65945 4.24903)
(3.47437e-15 1.61492 4.6107)
(3.79339e-15 1.58963 4.87935)
(3.92366e-15 1.58562 5.05397)
(3.86714e-15 1.60119 5.14466)
(3.64328e-15 1.63204 5.16589)
(3.2834e-15 1.6727 5.1313)
(2.82649e-15 1.71755 5.05147)
(2.31493e-15 1.7611 4.93389)
(1.78951e-15 1.7976 4.78367)
(1.2841e-15 1.81995 4.60396)
(8.19615e-16 1.81962 4.39638)
(3.85994e-16 1.79393 4.16658)
(-9.91215e-17 1.75458 3.93582)
(-7.10887e-16 1.6375 3.70338)
(-8.28948e-16 0.994372 3.21187)
(1.16492e-15 -0.543768 2.07853)
(2.38936e-15 -1.49359 1.82444)
(2.78635e-15 -1.91481 1.83947)
(3.11868e-15 -2.29026 1.67475)
(3.37891e-15 -2.69391 1.49408)
(3.4996e-15 -3.1031 1.32127)
(3.45852e-15 -3.51221 1.14913)
(3.25667e-15 -3.9185 0.979906)
(2.9134e-15 -4.30669 0.804966)
(2.47058e-15 -4.65779 0.625751)
(1.97794e-15 -4.96926 0.446509)
(1.45795e-15 -5.22559 0.265126)
(9.42245e-16 -5.37821 0.089804)
(4.80718e-16 -5.39583 -0.0603343)
(1.60455e-16 -5.2952 -0.172504)
(2.62844e-17 -5.15351 -0.239662)
(-1.96217e-18 -5.00908 -0.281918)
(-1.7218e-18 -4.85929 -0.301275)
(-2.34578e-19 -4.68779 -0.31508)
(2.00095e-20 -4.47505 -0.320053)
(8.88701e-21 -4.20578 -0.328974)
(5.70842e-22 -3.89568 -0.332838)
(-1.35666e-22 -3.50482 -0.347093)
(-3.79978e-23 -3.09417 -0.349721)
(-3.37726e-23 -2.5137 -0.368257)
(4.27634e-23 -2.01817 -0.357375)
(-2.32291e-22 -1.0493 -0.374075)
(1.93741e-21 -0.637659 -0.371713)
(-2.3431e-20 1.12092 -0.410168)
(1.76291e-19 1.69877 -0.0467439)
(-6.2653e-19 1.8164 -0.396079)
(1.58991e-18 2.40676 0.0398674)
(9.79634e-19 -3.51447 -0.311674)
(-3.3744e-28 0.797534 1.11822)
(8.70205e-28 0.895541 1.11672)
(5.75775e-27 0.945348 1.12441)
(1.93582e-26 0.999735 1.1325)
(5.41938e-26 1.0478 1.14451)
(1.38351e-25 1.0937 1.15857)
(2.4296e-25 1.13647 1.17511)
(-3.62965e-25 1.17755 1.19389)
(-5.71453e-24 1.21672 1.21473)
(-2.82262e-23 1.2547 1.2376)
(-8.21608e-23 1.29139 1.26233)
(-9.44793e-23 1.32713 1.28899)
(4.40058e-22 1.36203 1.31766)
(3.12347e-21 1.39658 1.34864)
(1.03217e-20 1.43145 1.38225)
(1.78304e-20 1.46742 1.41872)
(-1.3053e-20 1.50514 1.45821)
(-2.12505e-19 1.54518 1.50074)
(-8.27113e-19 1.58796 1.5462)
(-1.93428e-18 1.63362 1.59453)
(-2.19272e-18 1.68172 1.64684)
(4.24656e-18 1.73047 1.70803)
(3.28022e-17 1.7758 1.79083)
(1.13106e-16 1.81096 1.91862)
(2.87438e-16 1.82786 2.12188)
(5.97256e-16 1.82032 2.42502)
(1.06015e-15 1.78773 2.82919)
(1.65107e-15 1.73629 3.30427)
(2.30265e-15 1.67654 3.79828)
(2.92587e-15 1.61951 4.25708)
(3.43754e-15 1.57415 4.64083)
(3.77987e-15 1.54651 4.92987)
(3.92654e-15 1.53967 5.12232)
(3.87864e-15 1.55357 5.22782)
(3.65694e-15 1.58534 5.26105)
(3.29503e-15 1.63024 5.23656)
(2.83419e-15 1.68283 5.16611)
(2.31889e-15 1.73778 5.05812)
(1.79159e-15 1.78995 4.9184)
(1.28677e-15 1.83398 4.7512)
(8.25379e-16 1.8631 4.55967)
(4.10263e-16 1.86853 4.34609)
(1.30068e-17 1.84547 4.11611)
(-4.67988e-16 1.80677 3.89041)
(-1.16492e-15 1.71761 3.6833)
(-1.54643e-15 1.16804 3.2821)
(5.01777e-16 -0.413539 2.10461)
(2.35747e-15 -1.47128 1.66676)
(2.88906e-15 -1.90642 1.74792)
(3.16451e-15 -2.25773 1.64612)
(3.39165e-15 -2.65786 1.46453)
(3.5016e-15 -3.06858 1.29276)
(3.45254e-15 -3.47798 1.12766)
(3.2466e-15 -3.8841 0.96532)
(2.90283e-15 -4.27149 0.79819)
(2.46177e-15 -4.62235 0.626571)
(1.97155e-15 -4.93386 0.453602)
(1.45417e-15 -5.19088 0.277241)
(9.40882e-16 -5.34676 0.105488)
(4.81036e-16 -5.37067 -0.0428072)
(1.61275e-16 -5.27819 -0.154692)
(2.66245e-17 -5.14344 -0.222885)
(-1.98785e-18 -5.00387 -0.267012)
(-1.77595e-18 -4.8571 -0.28881)
(-2.46412e-19 -4.68724 -0.305326)
(2.09664e-20 -4.47521 -0.31319)
(9.60109e-21 -4.2062 -0.325209)
(6.32839e-22 -3.89574 -0.33238)
(-1.51933e-22 -3.50499 -0.350443)
(-4.19144e-23 -3.09397 -0.357335)
(-3.37802e-23 -2.51476 -0.380305)
(4.26631e-23 -2.01916 -0.37426)
(-2.40687e-22 -1.05121 -0.393064)
(2.11511e-21 -0.636275 -0.394379)
(-2.40136e-20 1.08305 -0.424715)
(1.74395e-19 1.69779 -0.0426231)
(-6.06103e-19 1.80789 -0.387627)
(1.47796e-18 2.39425 0.0312341)
(2.04362e-18 -3.48764 -0.293614)
(2.57149e-28 0.797804 1.15096)
(4.97006e-27 0.894976 1.14907)
(1.68793e-26 0.943859 1.15676)
(4.25271e-26 0.997825 1.16496)
(9.27703e-26 1.04529 1.17723)
(1.56845e-25 1.09076 1.19172)
(-1.21109e-25 1.13305 1.20879)
(-3.07934e-24 1.17372 1.22823)
(-1.74673e-23 1.21249 1.2498)
(-5.99796e-23 1.25009 1.27351)
(-1.09413e-22 1.28642 1.29912)
(1.29687e-22 1.32177 1.32673)
(1.84102e-21 1.35624 1.35644)
(7.53359e-21 1.3903 1.38864)
(1.72741e-20 1.42462 1.42366)
(8.80639e-21 1.46001 1.46176)
(-1.14511e-19 1.49713 1.50302)
(-5.84166e-19 1.5366 1.54738)
(-1.63934e-18 1.57881 1.59471)
(-2.6394e-18 1.62372 1.64558)
(5.57619e-19 1.67018 1.7036)
(2.0599e-17 1.71492 1.7795)
(8.44681e-17 1.75172 1.89541)
(2.34541e-16 1.77226 2.08358)
(5.17338e-16 1.76928 2.37425)
(9.59257e-16 1.74103 2.77553)
(1.54279e-15 1.69342 3.26021)
(2.20232e-15 1.63766 3.77298)
(2.84453e-15 1.58525 4.25333)
(3.37928e-15 1.54432 4.65666)
(3.74273e-15 1.51934 4.96201)
(3.90522e-15 1.51227 5.16823)
(3.86721e-15 1.52349 5.28599)
(3.65071e-15 1.5518 5.33054)
(3.29122e-15 1.59441 5.3169)
(2.83188e-15 1.64732 5.25722)
(2.31858e-15 1.70607 5.16032)
(1.79509e-15 1.76603 5.0322)
(1.29712e-15 1.82251 4.87728)
(8.46152e-16 1.87031 4.69939)
(4.44448e-16 1.90273 4.50234)
(7.26442e-17 1.91076 4.29)
(-3.1793e-16 1.88774 4.06904)
(-8.44139e-16 1.84483 3.85927)
(-1.67874e-15 1.76813 3.68419)
(-2.38855e-15 1.30447 3.37669)
(-5.44895e-16 -0.253464 2.23003)
(2.11909e-15 -1.43637 1.54037)
(2.94405e-15 -1.91092 1.61499)
(3.23136e-15 -2.23741 1.59158)
(3.40794e-15 -2.62583 1.43321)
(3.50133e-15 -3.03829 1.25971)
(3.44601e-15 -3.44906 1.10069)
(3.23602e-15 -3.85502 0.946827)
(2.89182e-15 -4.24128 0.788868)
(2.45259e-15 -4.59118 0.626552)
(1.96483e-15 -4.90173 0.461573)
(1.45007e-15 -5.15829 0.291663)
(9.39235e-16 -5.31631 0.124538)
(4.81134e-16 -5.34554 -0.0211753)
(1.61957e-16 -5.26038 -0.132408)
(2.6931e-17 -5.13183 -0.201613)
(-2.00841e-18 -4.9964 -0.247852)
(-1.8258e-18 -4.85198 -0.272571)
(-2.57782e-19 -4.68319 -0.292435)
(2.18369e-20 -4.47136 -0.303889)
(1.0312e-20 -4.20216 -0.319792)
(6.9922e-22 -3.89097 -0.331035)
(-1.68753e-22 -3.50001 -0.353794)
(-4.62603e-23 -3.08848 -0.365843)
(-3.38131e-23 -2.51042 -0.39428)
(4.26317e-23 -2.01497 -0.39394)
(-2.49945e-22 -1.04742 -0.415838)
(2.2797e-21 -0.628018 -0.419312)
(-2.44981e-20 1.04617 -0.441995)
(1.68501e-19 1.6927 -0.0478606)
(-5.70077e-19 1.80291 -0.38018)
(1.32319e-18 2.38277 0.0192933)
(4.16463e-18 -3.4587 -0.273015)
(2.81367e-27 0.798097 1.18422)
(1.51457e-26 0.894348 1.18216)
(3.70505e-26 0.942221 1.18989)
(6.93953e-26 0.995712 1.19828)
(9.18991e-26 1.04251 1.21086)
(-8.58758e-26 1.08748 1.22585)
(-1.74745e-24 1.12925 1.24349)
(-1.04855e-23 1.16946 1.26366)
(-4.06222e-23 1.20778 1.28603)
(-9.62558e-23 1.24497 1.31061)
(-2.48328e-23 1.28089 1.33716)
(9.71469e-22 1.31582 1.36577)
(5.08217e-21 1.3498 1.39659)
(1.45174e-20 1.3833 1.43006)
(1.87701e-20 1.417 1.46656)
(-4.77934e-20 1.45174 1.50632)
(-3.80163e-19 1.48822 1.54933)
(-1.28873e-18 1.52706 1.59547)
(-2.63629e-18 1.56855 1.64493)
(-1.75329e-18 1.61209 1.70011)
(1.12254e-17 1.65521 1.76964)
(5.99928e-17 1.69239 1.87362)
(1.85787e-16 1.71528 2.04505)
(4.39318e-16 1.71552 2.31988)
(8.5644e-16 1.68984 2.71492)
(1.42916e-15 1.64357 3.20832)
(2.09523e-15 1.58886 3.74228)
(2.7572e-15 1.53858 4.24829)
(3.31718e-15 1.50117 4.67444)
(3.70438e-15 1.47972 4.99686)
(3.88518e-15 1.47438 5.21535)
(3.85903e-15 1.48474 5.34279)
(3.64891e-15 1.51042 5.39611)
(3.29219e-15 1.55045 5.39116)
(2.83389e-15 1.60262 5.34046)
(2.32151e-15 1.66353 5.25301)
(1.8001e-15 1.72913 5.13497)
(1.30675e-15 1.79505 4.99073)
(8.64577e-16 1.85662 4.8241)
(4.77107e-16 1.90861 4.63936)
(1.24539e-16 1.94422 4.44183)
(-2.35872e-16 1.95411 4.23774)
(-6.71416e-16 1.93007 4.03558)
(-1.3071e-15 1.88192 3.85413)
(-2.33696e-15 1.81417 3.71979)
(-3.41149e-15 1.43225 3.50219)
(-1.98778e-15 -0.0334323 2.46659)
(1.63543e-15 -1.36452 1.46426)
(2.87712e-15 -1.91351 1.46628)
(3.29586e-15 -2.22496 1.49853)
(3.43735e-15 -2.59396 1.39129)
(3.49952e-15 -3.00467 1.22453)
(3.43816e-15 -3.41794 1.06826)
(3.22509e-15 -3.82439 0.923842)
(2.88051e-15 -4.20978 0.776579)
(2.44319e-15 -4.55894 0.625046)
(1.95788e-15 -4.86861 0.469743)
(1.4457e-15 -5.12478 0.307809)
(9.37281e-16 -5.28504 0.146467)
(4.80966e-16 -5.31973 0.00416861)
(1.62458e-16 -5.2421 -0.105889)
(2.71886e-17 -5.11998 -0.175945)
(-2.02313e-18 -4.98895 -0.224422)
(-1.86931e-18 -4.84714 -0.252446)
(-2.68235e-19 -4.67964 -0.276248)
(2.25926e-20 -4.46821 -0.291954)
(1.09978e-20 -4.19897 -0.3125)
(7.68555e-22 -3.88711 -0.328548)
(-1.85733e-22 -3.49593 -0.356839)