/*--------------------------------*- C++ -*----------------------------------*\
| =========                 |                                                 |
| \\      /  F ield         | OpenFOAM: The Open Source CFD Toolbox           |
|  \\    /   O peration     | Version:  4.1                                   |
|   \\  /    A nd           | Web:      www.OpenFOAM.org                      |
|    \\/     M anipulation  |                                                 |
\*---------------------------------------------------------------------------*/
FoamFile
{
    version     2.0;
    format      ascii;
    class       volScalarField;
    location    "13";
    object      p;
}
// * * * * * * * * * * * * * * * * * * * * * * * * * * * * * * * * * * * * * //

dimensions      [0 2 -2 0 0 0 0];

internalField   nonuniform List<scalar> 
6785
(
6735.45
6670.85
6619.4
6569.56
6523.31
6479.89
6439.13
6400.79
6364.63
6330.14
6297.08
6266.8
6238.58
6204.62
6172.43
6194.16
6175.97
6178.36
6173.51
6169.65
6165.74
6162.27
6159.47
6157.55
6156.58
6156.51
6157.98
6161.75
6164.34
6163.64
6131.84
6125.34
6134.76
6133.81
6136.76
6138.79
6140.95
6142.95
6144.77
6146.39
6147.73
6148.74
6149.35
6150.08
6151.45
6177.24
6174.55
6179.37
6175.55
6175.9
6174.22
6172.87
6171.3
6169.72
6168.14
6166.63
6165.34
6164.77
6165.4
6167.34
6184.2
6182.2
6185.56
6182.34
6184
6183.38
6183.57
6183.77
6184.13
6184.68
6185.41
6186.33
6187.54
6188.65
6189.99
6188.84
6188
6191.1
6189.3
6191.6
6191.81
6192.83
6193.79
6194.77
6195.79
6196.82
6197.8
6198.81
6199.53
6200.21
6199.23
6199.32
6201.89
6200.49
6202.41
6202.33
6203.07
6203.59
6204.1
6204.6
6205.12
6205.6
6206.13
6206.54
6207.07
6208.22
6208.81
6210.73
6209.61
6211.26
6211.03
6211.74
6212.04
6212.37
6212.61
6212.89
6213.2
6213.57
6213.97
6214.44
6216.23
6216.49
6217.83
6216.8
6218.09
6217.67
6218.22
6218.22
6218.31
6218.21
6218.15
6218.14
6218.2
6218.37
6218.43
6212.84
6212.79
6213.74
6212.68
6213.46
6212.73
6212.9
6212.57
6212.54
6212.34
6212.2
6212.11
6212.15
6212.41
6212.54
6218.07
6217.34
6217.61
6216.38
6216.76
6215.93
6216.42
6216.37
6216.39
6216.03
6215.75
6215.68
6215.84
6215.48
6214.17
6191.37
6191.6
6191.1
6189.41
6188.56
6186.23
6184.62
6182.35
6180
6177.24
6174.81
6172.69
6169.58
6166.47
6167.78
6231.85
6226.93
6218.36
6206.61
6195.78
6184.35
6173.91
6163.43
6153.61
6144.32
6136.08
6128.79
6123.26
6116.45
6115.51
6091.65
6093.1
6081.07
6061.55
6050.2
6042.85
6036.52
6031.35
6028.24
6027.32
6028.49
6030.7
6035.99
6037.55
6038.26
6301.84
6292.81
6293.21
6304.97
6314.74
6323.75
6327.56
6324.91
6313.59
6295.82
6271.97
6239.38
6194.67
6150.7
6066.7
5966.57
5970.47
5970.06
5967.83
5971.87
5962.45
5958.67
5954.61
5963.24
5939.2
5929.69
5948.92
5925.74
5885.57
5876.84
5906
5847.48
5800.04
5863.94
5824.37
5698.87
5679.12
5764.24
5719.35
5540.28
5528.87
5626.89
5498.73
5343.87
5534.5
5464.19
5155.16
5150.3
5320.85
5145.18
4902.7
5213.38
5145.53
4683.98
4674.75
4973.7
4931.05
4426.01
4449.2
4730.84
4513.98
4176.97
4643.52
4581.4
3993.57
4011.33
4414.35
4401.18
3808.84
3862.18
4214.92
4022.68
3661.67
4193.57
4158.19
3587.27
3651.91
4017.6
3879.16
3526.22
4064.5
4106.35
3529.58
3584.59
3999
4111.35
3562.38
3645.79
3983.52
3940.72
3649.38
4097.53
4064.18
3711.62
4118.59
4295.7
4341.25
4479.66
4107.26
4604.21
4675.11
4711.01
4746.02
4775.12
4778.58
4802.63
4886.5
4586.43
4902.51
4931.7
4961.18
4990.34
5017.59
5036.19
5070.95
5161.53
4877.04
5142.69
5175.41
5208.47
5236.76
5264.62
5291.57
5307.2
5335.59
5397.48
5198.66
5397.85
5420.21
5444.76
5469.07
5490.61
5503.71
5530.98
5584.39
5412.5
5578.13
5598.52
5618.18
5634.87
5653.77
5667.28
5683.37
5724.36
5580.63
5690.79
5699.85
5719.87
5727.15
5739
5752.04
5758.2
5787.3
5647.5
5747.32
5744.06
5776.45
5800.22
5822.47
5860.3
5913.5
5953.18
6017.1
5987.2
6022.88
6077.27
6184.66
6252.85
6331.98
6423.38
6518.93
6618.79
6728.59
6640.06
6774.23
6955.39
6718.5
6770.61
6831.53
6950.59
6906.27
6906.84
6988.91
6876.29
6885.2
7212.05
6798.83
6784.3
6868.44
6701.96
7429.7
6499.72
6204.14
6378.01
6082.07
7427.87
6156.09
4833.79
7221.69
5622.45
4586.09
4971.32
4553.73
7158.85
4925.79
3717.18
4198.54
3822.85
6699.95
4661.66
2464.14
6087.29
4145.12
2717.3
3193.32
2819.08
5836
3560.73
2149.44
2636.76
2272.24
4966.59
3185.66
1110.19
4170.9
2646.34
1280.89
1705.46
1278.91
3709.17
1990.5
708.312
1154.42
750.538
2941.14
1596.83
-205.749
2365.77
1173.81
-62.411
375.239
-66.8227
2134.36
661.477
-551.094
-66.5227
-497.039
1676.34
417.829
-1435.47
1292.88
68.1765
-1247.05
-794.306
-1107.22
-2.81208
0.92763
0.392047
2.44625
3.02593
4.25612
4.87749
5.68202
6.30343
7.04565
7.8301
8.77864
9.84992
11.0826
12.3722
13.5782
14.5873
15.3555
15.9489
16.3525
16.4756
16.1539
14.9904
12.6877
9.80443
7.88788
7.65298
8.8121
9.3703
3.92607
-4.84251
-15.142
-39.9963
-62.1481
16.9872
-325.685
-189.472
-237.441
-247.953
-194.685
-124.991
-71.3778
-24.3917
-16.9576
-25.1947
1.49432
71.1487
111.259
138.406
159.044
137.688
115.616
111.946
114.426
90.0515
29.4328
-27.8908
-50.7844
-42.1021
-32.0886
-0.986936
35.4388
18.9433
4.30533
4.81972
8.79414
11.3618
13.5892
19.4182
25.3842
16.5528
11.7496
7.76903
21.3473
43.3727
70.8026
82.6914
57.5749
-2.35994
-7.65755
5.17174
4.37806
9.45928
10.4866
13.3426
14.937
17.2066
19.101
21.3373
23.5685
25.9429
28.197
30.3687
32.2307
33.5935
34.322
34.1793
33.0194
30.6105
26.9247
22.2613
16.6832
10.2684
3.50685
-3.04853
-10.4236
-16.2523
-14.8676
-19.3093
-31.0462
-30.4734
-8.06524
35.0005
85.0277
-517.984
-356.724
-431.059
-425.05
-335.561
-221.469
-118.76
-25.7996
26.2786
57.5908
98.2559
160.341
204.673
258.689
306.105
284.9
256.605
254.766
282.18
287.501
207.144
72.6879
-36.3641
-65.4497
-42.0957
17.4636
75.7814
37.1701
16.3189
16.2424
25.2919
27.2151
28.2561
32.8114
42.8137
59.8277
76.3977
60.707
98.7834
131.58
113.133
137.721
142.427
94.3847
-11.7404
7.7849
6.498
15.2527
17.4147
22.5183
25.4174
29.3538
32.6248
36.4144
40.1742
44.1904
48.0867
51.9773
55.4861
58.2395
59.9344
60.1834
58.8711
55.7174
50.6232
43.9022
35.418
24.9559
13.1865
1.95018
-9.0526
-17.0587
-15.56
-25.8909
-49.7816
-57.5512
-39.8463
-28.5466
-9.25966
-513.721
-399.812
-477.778
-453.031
-356.821
-235.968
-119.122
-12.1345
63.224
124.429
179.429
228.665
253.124
289.33
329.098
316.994
301.132
310.081
345.155
360.204
293.997
164.964
48.7638
7.72057
20.7922
53.5745
92.4019
69.8042
59.5218
44.7639
43.2501
45.2632
51.0725
65.043
82.4346
97.8996
125.689
115.484
160.662
205.929
213.132
258.681
253.798
197.56
-14.9357
10.8546
9.38414
21.4516
24.6141
31.7003
35.809
41.31
45.9086
51.1895
56.4007
61.906
67.1778
72.3802
77.012
80.563
82.637
82.689
80.5515
75.8237
68.3221
58.5237
46.4454
31.9469
15.6557
-0.409016
-16.8243
-30.5269
-30.4983
-43.4037
-75.3699
-86.4167
-64.2325
-105.138
-225.643
-514.564
-461.947
-529.817
-495.104
-390.012
-256.766
-125.018
-4.01553
85.5876
166.031
241.429
298.743
313.612
328.943
352.921
342.874
335.388
352.186
392.516
407.491
348.68
231.34
119.291
69.6229
64.7925
82.8098
113.977
87.8306
77.8104
64.9425
60.9376
63.0052
71.2098
90.3533
113.392
137.529
176.428
170.471
220.758
273.972
287.957
353.783
359.128
273.802
-17.4151
13.4667
12.107
27.4731
31.797
40.8916
46.2502
53.3012
59.2153
65.9469
72.5639
79.5022
86.0993
92.5809
98.3404
102.722
105.213
105.092
102.169
95.9746
86.2401
73.5773
58.124
39.7515
18.9645
-1.89985
-23.4041
-43.1306
-46.3755
-62.8013
-103.379
-122.745
-112.694
-230.099
-515.279
-529.076
-569.931
-615.983
-575.293
-453.666
-297.907
-143.273
-0.708141
106.906
207.011
303.289
372.496
384.908
388.75
403.983
392.938
387.98
406.402
457.931
477.678
419.805
298.184
174.937
111.898
94.8451
106.679
132.645
115.596
107.124
87.2374
78.8221
81.9731
93.8347
119.684
146.643
174.025
220.471
217.772
272.723
338.97
369.047
454.335
467.191
400.999
-19.0369
15.9862
15.0158
33.54
39.0722
50.0971
56.6943
65.2469
72.4492
80.5806
88.5434
96.8227
104.624
112.232
118.946
123.969
126.68
126.177
122.251
114.376
102.168
86.3892
67.3838
45.1403
19.977
-5.72015
-32.6263
-59.4668
-67.9123
-87.6191
-135.725
-165.205
-172.289
-348.199
-733.571
-485.572
-693.544
-708.124
-656.876
-516.318
-337.193
-158.966
6.08354
133.712
254.849
369.821
446.157
454.357
448.638
458.531
447.614
444.392
460.274
525.305
553.772
498.044
370.024
232.221
153.959
123.856
127.046
146.582
133.26
129.354
108.151
96.9244
101.615
116.971
148.379
178.577
209.915
260.81
264.132
323.637
400.387
444.668
550.033
569.857
477.364
-19.8729
18.2614
17.9759
39.5686
46.3984
59.3138
67.1552
77.1686
85.6332
95.1103
104.356
113.891
122.799
131.427
138.993
144.551
147.368
146.347
141.286
131.63
116.866
97.9006
75.3138
49.2367
19.7707
-10.7362
-43.0178
-77.3068
-92.8425
-116.554
-171.967
-214.07
-239.985
-433.978
-778.061
-364.839
-825.102
-800.72
-731.428
-571.679
-370.449
-170.036
16.2323
162.903
304.187
436.94
519.157
522.45
506.233
510.549
500.423
499.364
508.605
585.609
623.998
572.682
441.285
289.942
194.226
147.968
143.005
161.695
156.199
151.976
128.707
115.574
122.349
141.634
178.341
210.683
244.324
297.77
308.62
372.252
460.165
519.961
645.939
688.937
572.798
-19.9335
20.3595
21.0292
45.5875
53.7861
68.5405
77.6239
89.051
98.7474
109.511
119.97
130.671
140.583
150.118
158.418
164.379
167.15
165.44
159.076
147.502
130.052
107.771
81.508
51.5723
17.8519
-17.466
-55.1826
-97.0682
-121.289
-149.803
-212.505
-268.445
-309.513
-479.157
-679.782
-256.568
-968.976
-900.923
-807.972
-627.773
-403.702
-180.832
26.8937
192.004
352.469
503.093
592.472
592.698
566.417
565.697
556.595
557.912
557.081
640.847
690.306
645.08
511.182
345.131
229.194
165.747
154.355
171.769
174.684
172.691
148.962
134.529
144.014
167.465
208.798
242.45
278.06
333.301
351.755
419.809
518.467
593.413
740.749
799.405
734.089
-19.3091
22.2778
24.1519
51.5824
61.2254
77.7728
88.098
100.89
111.784
123.769
135.368
147.143
157.962
168.306
177.233
183.474
186.053
183.488
175.661
162.043
141.803
116.102
86.0919
52.2626
14.3151
-25.807
-68.963
-118.288
-152.331
-186.842
-257.531
-327.881
-380.748
-507.752
-592.563
-276.237
-1110.28
-1012.1
-890.654
-686.936
-438.354
-192.041
38.0892
221.81
401.109
569.489
666.683
665.466
630.169
625.888
618.628
622.819
611.388
691.998
754.113
717.228
581.034
398.858
260.257
178.654
162.035
183.223
194.525
192.891
169.016
154.089
166.795
194.622
240.004
273.995
311.125
367.391
394.232
466.564
575.673
665.966
835.533
909.091
828.609
-18.1048
24.057
27.3456
57.554
68.7116
87.0054
98.571
112.675
124.73
137.865
150.522
163.279
174.916
185.974
195.42
201.816
204.047
200.453
190.992
175.195
152.056
122.827
88.9866
51.207
9.04127
-35.8912
-84.5053
-140.952
-185.421
-227.401
-307.328
-391.975
-455.71
-547.552
-617.785
-513.655
-1230.47
-1138.41
-979.177
-747.193
-472.715
-202.36
50.8582
253.307
451.181
636.882
741.809
740.121
696.724
690.054
685.957
693.767
674.294
735.871
813.052
788.283
650.954
452.445
289.036
187.706
167.067
192.854
213.223
212.697
189.037
174.113
190.643
222.983
271.708
305.194
343.645
400.664
436.102
512.439
631.373
737.573
931.132
1032.67
947.272
-16.4564
25.7378
30.6048
63.4968
76.2369
96.2316
109.036
124.397
137.571
151.777
165.407
179.055
191.426
203.109
212.974
219.396
221.115
216.315
205.046
186.927
160.786
127.929
90.1778
48.3786
1.9897
-47.7516
-101.837
-165.015
-220.056
-271.192
-361.689
-460.456
-536.649
-613.49
-753.949
-952.362
-1329.56
-1288.93
-1074.34
-807.636
-506.151
-211.469
65.3785
286.463
502.564
705.147
817.783
816.639
766.194
757.771
758.327
770.543
746.881
773.158
864.879
856.731
720.363
506.502
316.663
194.302
170.943
203.833
231.835
232.613
209.193
194.734
215.643
252.488
303.789
335.979
375.559
433.527
477.409
557.275
685.228
808.566
1027.73
1153.04
1119.71
-14.5048
27.3748
33.9309
69.4071
83.7929
105.443
119.484
136.043
150.288
165.483
179.996
194.444
207.473
219.698
229.88
236.199
237.232
231.039
217.785
197.193
167.944
131.37
89.6358
43.7432
-6.89768
-61.441
-121.012
-190.589
-256.047
-317.872
-419.647
-533.23
-625.083
-708.826
-954.617
-1450.25
-1384.83
-1470.87
-1178.79
-868.708
-538.927
-219.682
81.4765
321.075
555.095
774.179
894.694
895.271
839.107
829.285
835.979
853.379
828.773
816.767
910.731
921.12
788.597
561.481
344.453
200.31
174.908
215.54
249.984
252.799
229.634
215.953
241.782
282.979
336.008
366.216
406.819
466.096
518.151
601.016
737.086
879.272
1125.84
1277.39
1232.59
-12.3872
29.0258
37.3273
75.2811
91.3701
114.631
129.906
147.599
162.863
178.957
194.259
209.42
223.037
235.727
246.127
252.206
252.372
244.59
229.165
205.937
173.48
133.114
87.3446
37.3039
-17.624
-76.9639
-142.031
-217.816
-293.379
-366.898
-479.884
-610.208
-721.346
-827.42
-1155.43
-1792.55
-1327.27
-1682.21
-1296.22
-930.994
-571.041
-227.032
99.2307
357.228
608.931
844.081
972.598
976.136
915.715
904.773
918.843
942.233
918.917
879.28
954.397
980.706
854.964
617.515
373.686
207.544
179.814
228.404
268.07
273.393
250.484
237.821
269.074
314.253
368.102
395.756
437.359
498.421
558.301
643.738
787.141
950.079
1225.69
1403.8
1431.28
-10.242
30.7501
40.8026
81.1158
98.9585
123.784
140.287
159.05
175.273
192.17
208.166
223.957
238.102
251.181
261.697
267.399
266.502
256.922
239.129
213.094
177.33
133.125
83.2896
29.078
-30.1508
-94.2792
-164.853
-246.795
-332.088
-417.684
-541.598
-690.687
-824.575
-958.163
-1305.03
-1834.8
-1148.31
-1919
-1428.63
-995.025
-602.236
-233.365
118.872
395.086
664.263
914.925
1051.42
1059.1
995.937
984.311
1006.47
1036.67
1016.49
961.087
1000.19
1036.25
919.056
674.425
405.476
217.372
186.173
242.018
286.176
294.469
271.833
260.372
297.483
346.018
399.765
424.428
467.112
530.527
597.832
685.553
835.692
1021.42
1327.64
1528.04
1536.44
-8.18601
32.6044
44.3688
86.9097
106.548
132.892
150.614
170.376
187.49
205.092
221.687
238.03
252.648
266.044
276.572
281.751
279.591
267.993
247.62
218.593
179.418
131.358
77.4668
19.1066
-44.4005
-113.291
-189.369
-277.501
-372.132
-469.818
-604.766
-773.3
-933.094
-1092.02
-1392.87
-1650.57
-988.426
-2176.95
-1574.74
-1061.39
-632.338
-238.711
140.685
434.724
721.172
986.692
1131.08
1143.9
1079.46
1067.92
1098.25
1135.98
1120.65
1058.17
1053.65
1090.27
981.247
732.357
440.993
230.692
194.312
255.901
304.294
315.997
293.715
283.629
326.932
377.891
430.678
452.044
496.013
562.425
636.741
726.569
883.055
1093.71
1432.71
1668.82
1680
-6.26194
34.6355
48.0419
92.6634
114.128
141.944
160.869
181.555
199.485
217.691
234.793
251.613
266.656
280.298
290.728
295.234
291.602
277.757
254.579
222.367
179.674
127.768
69.8815
7.45359
-60.257
-133.852
-215.408
-309.777
-413.374
-523.114
-669.634
-856.953
-1044.75
-1226.13
-1452.12
-1480.08
-1010.71
-2428.61
-1736.22
-1130.47
-661.282
-243.128
164.931
476.18
779.687
1059.33
1211.43
1230.31
1165.92
1155.38
1193.39
1239.35
1230.1
1167.55
1122.13
1147.35
1043.35
792.248
481.622
248.33
204.559
269.701
322.452
337.93
316.122
307.587
357.266
409.394
460.515
478.398
524.01
594.123
675.06
766.893
929.592
1167.35
1540.4
1802.74
1897.51
-4.46343
36.8691
51.8397
98.3801
121.69
150.927
171.032
192.562
211.226
229.934
247.455
264.684
280.106
293.921
304.138
307.814
302.501
286.175
259.962
224.358
178.043
122.331
60.5586
-5.79463
-77.5718
-155.761
-242.725
-343.344
-455.633
-577.479
-736.099
-941.325
-1157.37
-1360.76
-1523.15
-1474.94
-1338.57
-2638.99
-1922.84
-1202.28
-689.121
-246.491
191.79
519.484
839.879
1132.77
1292.22
1318.04
1255
1246.13
1291.02
1345.95
1343.36
1285.94
1212
1213.24
1108.54
855.742
529.091
271.569
217.354
283.413
340.751
360.263
339.059
332.187
388.222
439.973
488.959
503.268
551.077
625.63
712.847
806.653
975.781
1242.89
1651.01
1936.26
2021.12
-2.7956
39.3148
55.7802
104.066
129.225
159.83
181.082
203.368
222.676
241.787
259.647
277.217
292.974
306.886
316.771
319.456
312.252
293.215
263.734
224.527
174.487
115.055
49.5604
-20.5216
-96.1699
-178.774
-271.006
-377.811
-498.639
-632.621
-803.557
-1026.29
-1269.4
-1496.12
-1628.33
-1648.06
-1968.81
-2809.12
-2148.48
-1276.33
-715.971
-248.612
221.43
564.745
901.752
1206.92
1373.16
1406.75
1346.27
1339.35
1390.15
1455
1459.28
1410.48
1323.66
1292.28
1179.69
924.391
585.106
302.203
233.499
297.495
359.384
382.989
362.532
357.308
419.424
469.034
515.71
526.423
577.204
656.96
750.207
846.01
1022.23
1320.84
1765.3
2084.63
2178.84
-1.26774
41.9757
59.8755
109.728
136.727
168.642
190.995
213.944
233.8
253.218
271.343
289.191
305.238
319.164
328.594
330.123
320.826
298.851
265.877
222.859
169.003
105.97
36.9884
-36.5692
-115.839
-202.615
-299.88
-412.693
-541.904
-687.844
-871.082
-1111.13
-1379.86
-1631.86
-1773.64
-1951.01
-2746.22
-2918.96
-2424.57
-1352.76
-741.894
-249.318
254.024
612.229
965.148
1281.7
1453.93
1495.99
1439.09
1434.37
1489.89
1565.63
1577.23
1539.42
1449.86
1386.63
1258.65
998.726
650.008
341.92
254.304
312.893
378.628
406.081
386.475
382.768
450.421
495.98
540.479
547.628
602.388
688.147
787.295
885.178
1069.7
1401.64
1882.89
2228.48
2384.63
0.149511
44.8475
64.1294
115.377
144.192
177.353
200.743
224.256
244.557
264.197
282.523
300.586
316.865
330.718
339.572
339.787
328.207
303.071
266.384
219.365
161.643
95.1542
22.9863
-53.7281
-136.314
-226.959
-328.931
-447.426
-584.688
-742.152
-937.534
-1194.24
-1487.39
-1766.54
-1949.89
-2296.3
-3406.47
-2901.78
-2749.29
-1432.97
-766.819
-248.429
289.737
662.157
1029.92
1356.95
1534.2
1585.28
1532.68
1530.54
1589.61
1676.96
1696.93
1671.09
1582.77
1497.74
1348.22
1079.2
722.846
391.452
281.425
330.916
398.843
429.479
410.773
408.318
480.715
520.249
562.963
566.653
626.61
719.251
824.302
924.431
1119.09
1485.78
2004.01
2374.3
2513.96
1.49531
47.918
68.5437
121.022
151.615
185.95
210.3
234.27
254.91
274.695
293.17
311.378
327.816
341.507
349.676
348.435
334.395
305.886
265.265
214.087
152.505
82.7583
7.75745
-71.7258
-157.265
-251.414
-357.678
-481.364
-626.067
-794.398
-1001.54
-1273.49
-1589.8
-1897.71
-2139.09
-2594.85
-3696.34
-2695.3
-3111.14
-1519.15
-790.643
-245.73
328.731
714.631
1096.02
1432.58
1613.67
1674.11
1626.06
1626.97
1688.96
1788.09
1818.05
1804
1719.07
1624.49
1452.53
1168.92
804.089
451.423
317.003
353.027
420.458
453.147
435.302
433.632
509.755
541.339
582.811
583.263
649.817
750.364
861.436
964.136
1171.38
1573.64
2128.28
2520.95
2765.31
2.79065
51.1542
73.1303
126.67
158.995
194.421
219.638
243.95
264.821
284.689
303.271
321.548
338.047
351.485
358.878
356.068
339.408
307.333
262.562
207.119
141.754
69.0153
-8.41753
-90.2173
-178.281
-275.498
-385.54
-513.76
-665
-843.265
-1061.45
-1346.54
-1684.12
-2021.29
-2322.25
-2793.29
-3532.58
-2363.23
-3511.75
-1613.66
-813.325
-240.979
371.165
769.741
1163.53
1508.41
1692.09
1761.89
1718.15
1722.66
1787.91
1898.36
1940.05
1937.18
1857.25
1760.39
1572.73
1273.14
897.303
524.278
363.869
380.866
443.891
477.111
459.852
458.29
536.915
558.801
599.566
597.199
671.921
781.595
898.899
1004.78
1227.61
1665.58
2255.38
2660.75
2884.02
4.05282
54.4909
77.9072
132.331
166.326
202.752
228.727
253.261
274.26
294.158
312.811
331.073
347.511
360.606
367.158
362.696
343.274
307.461
258.365
198.621
129.637
54.2529
-25.1617
-108.778
-198.88
-298.657
-411.869
-543.8
-700.345
-887.199
-1115.4
-1411.07
-1767.1
-2131.95
-2484.45
-2892.61
-3104.13
-2101.86
-3956.76
-1719.88
-834.712
-233.912
417.199
827.59
1232.55
1584.17
1769.26
1848.07
1807.91
1816.81
1886.64
2007.55
2062.14
2070.03
1995.76
1897.82
1704.14
1393.37
1006.23
612.709
424.226
416.06
469.479
501.232
484.063
481.766
561.452
572.216
612.617
608.141
692.812
813.036
936.867
1046.96
1288.69
1761.66
2386.08
2818.5
3053.56
5.2996
57.9041
82.8551
138.02
173.603
210.926
237.537
262.169
283.199
303.083
321.77
339.929
356.166
368.828
374.496
368.318
346.027
306.333
252.793
188.808
116.47
38.8733
-42.0126
-126.903
-218.505
-320.283
-436.004
-570.717
-730.999
-924.494
-1161.24
-1464.89
-1835.85
-2224.89
-2617.74
-2934.94
-2723.97
-2080.77
-4405.79
-1844.46
-854.144
-224.204
466.99
888.272
1303.07
1659.78
1845.08
1932.19
1894.41
1908.91
1985.35
2115.84
2183.52
2202.31
2133.93
2033.41
1839.9
1524.75
1129.96
716.418
497.642
459.101
497.354
525.139
507.435
503.513
582.593
581.176
621.159
615.696
712.377
844.725
975.498
1091.38
1355.35
1861.68
2519.02
2963.34
3284.64
6.54163
61.4082
87.9346
143.738
180.814
218.92
246.035
270.643
291.617
311.448
330.125
348.082
363.986
376.133
380.875
372.912
347.668
304.014
245.98
177.915
102.607
23.309
-58.4772
-144.045
-236.54
-339.691
-457.261
-593.882
-756.233
-953.734
-1196.83
-1506.13
-1887.72
-2296.05
-2718.14
-2959.39
-2539.1
-2429.3
-4818.77
-1995.3
-870.319
-211.391
520.685
951.869
1375.02
1735.24
1919.51
2013.84
1976.94
1998.66
2083.83
2223.62
2303.68
2334.01
2271.76
2167.88
1974.57
1659.98
1262.92
831.658
581.328
508.972
527.532
548.604
529.58
523.142
599.631
585.251
624.185
619.404
730.526
876.637
1014.97
1138.75
1427.99
1965.35
2653.8
3102.12
3433.39
7.78709
64.9987
93.1112
149.484
187.945
226.71
254.185
278.65
299.495
319.238
337.847
355.501
370.959
382.524
386.303
376.469
348.172
300.536
238.085
166.202
88.4134
7.98808
-74.0834
-159.684
-252.388
-356.168
-474.835
-612.612
-775.715
-974.368
-1220.57
-1533.18
-1920.63
-2342.44
-2783.33
-2984.51
-2566.71
-3151.1
-5195.81
-2177.43
-881.035
-194.767
578.43
1018.46
1448.29
1810.51
1992.6
2092.72
2055.12
2086.07
2181.19
2331.37
2422.78
2464.89
2408.8
2302.24
2104.76
1794.01
1398.85
953.472
672.05
564.061
560.047
571.661
550.231
540.507
611.956
583.948
620.49
618.806
747.221
908.705
1055.5
1189.65
1506.58
2071.91
2790.27
3258.36
3634.17
9.04228
68.6709
98.3298
155.252
194.974
234.261
261.944
286.159
306.822
326.443
344.906
362.153
377.082
388.019
390.797
379.007
347.536
295.913
229.276
153.96
74.2568
-6.67578
-88.3997
-173.363
-265.531
-369.072
-487.876
-625.933
-788.861
-986.446
-1232.02
-1544.99
-1933.49
-2362.78
-2813.42
-3015.09
-2770.53
-4124.85
-5535.88
-2388.89
-883.034
-173.443
640.372
1088.11
1522.79
1885.48
2064.6
2168.63
2128.71
2171.36
2277.11
2439.48
2541.29
2594.5
2544.37
2436.38
2231.24
1925.21
1533.64
1077.75
767.176
623.068
594.975
594.579
569.253
555.676
618.846
576.552
608.685
613.564
762.513
940.889
1097.36
1244.44
1590.61
2180.2
2926.91
3405.44
3867.42
10.3112
72.4124
103.544
161.029
201.869
241.534
269.272
293.135
313.587
333.044
351.271
368.014
382.355
392.63
394.352
380.529
345.804
290.217
219.723
141.5
60.5153
-20.2804
-101.034
-184.697
-275.563
-377.921
-495.706
-632.844
-794.559
-989.569
-1231.28
-1541.35
-1926.3
-2356.84
-2809.93
-3045.78
-3073.86
-5130.14
-5821.89
-2617.45
-871.948
-146.404
706.635
1160.84
1598.43
1960.2
2135.8
2241.58
2197.31
2254.92
2372.04
2548.16
2659.43
2722.36
2678.93
2570.16
2357.31
2053.8
1665.95
1201.82
864.894
685.292
632.402
617.784
586.743
568.809
619.226
562.212
587.279
603.619
776.598
973.234
1140.79
1303.16
1679.02
2288.81
3062.9
3551.91
4040.94
11.5965
76.2063
108.726
166.785
208.598
248.487
276.127
299.544
319.778
339.017
356.911
373.078
386.791
396.356
396.941
381.014
343.029
283.596
209.652
129.15
47.5748
-32.4352
-111.628
-193.372
-282.184
-382.403
-497.941
-632.725
-791.813
-982.824
-1218.16
-1522.34
-1899.81
-2325.3
-2775.1
-3065.34
-3390.96
-5940.91
-6007.96
-2843.05
-845.507
-112.784
777.305
1236.63
1675.1
2034.76
2206.27
2312.04
2260.31
2337.37
2466.25
2657.41
2777.53
2848.54
2812.93
2703.72
2484.56
2180.48
1796.11
1324.57
964.184
750.384
672.368
641.729
602.836
579.826
612.168
539.905
554.931
589.364
789.86
1005.86
1185.91
1365.39
1770.19
2396.04
3196.52
3698.72
4324.46
12.8994
80.0329
113.851
172.49
215.114
255.096
282.484
305.364
325.374
344.335
361.801
377.348
390.411
399.201
398.545
380.452
339.273
276.251
199.347
117.267
35.8165
-42.7667
-119.841
-199.115
-285.192
-382.356
-494.436
-625.361
-780.181
-965.569
-1192.28
-1487.8
-1854.7
-2269.41
-2711.47
-3062.19
-3655.6
-6437.46
-6050.51
-3041.62
-805.064
-71.74
852.392
1315.45
1752.71
2109.26
2276.08
2380.55
2317.38
2419.34
2560.15
2767.38
2896.19
2973.92
2945.73
2837.21
2613
2306.04
1924.62
1446.1
1064.56
818.128
714.969
666.87
617.651
588.544
597.252
507.605
510.842
571.788
802.859
1038.91
1232.71
1430.24
1862.07
2500.14
3326.06
3831.87
4501.82
14.2195
83.8693
118.891
178.112
221.357
261.337
288.336
310.596
330.354
348.964
365.932
380.849
393.243
401.177
399.166
378.864
334.622
268.385
189.128
106.214
25.6065
-50.9297
-125.361
-201.667
-284.439
-377.727
-485.196
-610.792
-759.621
-937.675
-1153.6
-1437.58
-1791.29
-2190.55
-2621.25
-3028.29
-3831.8
-6627.33
-5955.63
-3198.3
-754.175
-22.3579
931.786
1397.21
1831.22
2183.74
2345.46
2447.25
2368.89
2500.92
2654.6
2878.36
3015.75
3099.26
3076.72
2970.59
2742.16
2431.07
2051.47
1566.91
1165.83
888.49
760.314
693.421
631.271
594.809
573.94
461.919
455.387
552.552
816.238
1072.45
1280.88
1496.36
1952.37
2599.24
3450.63
3986.01
4720.21
15.5552
87.6898
123.821
183.613
227.263
267.15
293.656
315.236
334.704
352.876
369.315
383.623
395.332
402.318
398.834
376.314
329.214
260.218
179.325
96.3606
17.2956
-56.6129
-127.904
-200.782
-279.766
-368.518
-470.366
-589.256
-730.37
-899.377
-1102.59
-1371.96
-1709.92
-2090
-2506.23
-2959.77
-3908.36
-6578.66
-5758.29
-3315.72
-696.683
36.1947
1015.28
1481.76
1910.54
2258.25
2414.74
2511.88
2416.04
2582.01
2750.65
2990.63
3136.16
3224.55
3205.88
3103.75
2871.6
2555.87
2176.53
1687.29
1267.89
961.481
808.392
721.233
643.704
598.398
541.072
400.181
389.812
533.915
830.574
1106.44
1329.76
1562.1
2038.69
2691.42
3568.05
4124.22
4979.03
16.9036
91.466
128.614
188.953
232.794
272.466
298.395
319.264
338.398
356.067
371.99
385.729
396.737
402.669
397.606
372.913
323.246
252.029
170.279
88.0666
11.2164
-59.5306
-127.221
-196.237
-270.991
-354.686
-450.145
-561.182
-693.004
-851.299
-1040.2
-1291.94
-1611.28
-1969.13
-2368.02
-2855.74
-3889.4
-6374.83
-5526.32
-3400.81
-634.512
104.491
1102.6
1569.04
1990.65
2332.77
2484.26
2573.78
2460.79
2663.05
2849.3
3104.57
3257.46
3349.67
3333.58
3236.52
3001.31
2680.51
2299.87
1807.26
1370.64
1036.99
859.023
750.017
654.919
599.095
497.329
322.996
315.129
518.319
846.232
1140.67
1378.39
1625.64
2118.81
2775.24
3676.99
4250.44
5176.68
18.2605
95.1681
133.241
194.084
237.932
277.26
302.509
322.667
341.419
358.554
374.013
387.238
397.522
402.292
395.576
368.818
316.959
244.133
162.326
81.6626
7.66449
-59.4214
-123.084
-187.828
-257.936
-336.124
-424.648
-527.046
-648.395
-794.507
-967.935
-1199.4
-1496.81
-1829.76
-2208.57
-2717.7
-3788.2
-6074.57
-5299.16
-3451.99
-566.262
183.031
1193.45
1658.99
2071.51
2407.23
2554.27
2631.62
2506.05
2745.01
2951.48
3220.65
3379.74
3475.02
3460.58
3368.27
3131.65
2805.01
2421.71
1926.67
1473.94
1114.79
911.938
779.657
664.863
596.771
441.582
233.808
231.283
507.449
863.281
1174.59
1425.7
1685.19
2190.83
2849.26
3776.22
4391
5387.96
19.621
98.766
137.675
198.951
242.647
281.531
305.982
325.442
343.766
360.385
375.46
388.225
397.743
401.251
392.858
364.232
310.635
236.86
155.785
77.4408
6.89206
-56.0568
-115.289
-175.375
-240.453
-312.734
-393.906
-487.198
-597.413
-730.313
-887.678
-1097.06
-1369.05
-1674.48
-2030.58
-2549.1
-3622.01
-5721.17
-5091.3
-3477.54
-486.743
272.316
1287.57
1751.48
2153.06
2481.6
2624.66
2682.97
2555.13
2829.47
3058.2
3339.46
3503.05
3601.91
3588.18
3497.73
3262.5
2929.43
2542.28
2045.27
1577.62
1194.55
966.759
810.029
673.479
591.422
372.615
136.47
136.88
501.074
881.406
1207.5
1470.57
1739.16
2253.14
2911.98
3864.04
4516.81
5622.66
20.9792
102.23
141.892
203.504
246.905
285.263
308.814
327.596
345.468
361.626
376.411
388.75
397.449
399.612
389.571
359.359
304.547
230.536
150.964
75.6589
9.11754
-49.2488
-103.677
-158.757
-218.455
-284.498
-358.017
-441.956
-540.773
-659.952
-801.173
-987.887
-1231.72
-1506.8
-1837.65
-2354.97
-3408.32
-5356.9
-4928.53
-3476.09
-390.14
372.859
1384.76
1846.46
2235.3
2555.86
2694.78
2724.11
2610.56
2918.47
3170.38
3461.77
3628.08
3732.29
3717.66
3623.38
3392.89
3053.79
2661.84
2162.78
1681.47
1275.84
1023.04
840.743
680.686
582.979
289.198
32.0145
31.7545
496.84
899.933
1238.72
1511.99
1786.25
2304.39
2961.98
3938.76
4632.3
5810.72
22.3287
105.533
145.867
207.698
250.675
288.424
311.017
329.146
346.576
362.36
376.94
388.861
396.69
397.443
385.823
354.376
298.925
225.445
148.139
76.5447
14.5286
-38.8578
-88.1682
-137.962
-192
-251.55
-317.244
-391.771
-479.205
-584.55
-709.766
-874.271
-1088.83
-1330.87
-1634.23
-2141.57
-3162.71
-4995.76
-4790.54
-3446.68
-273.151
486.262
1484.81
1943.9
2318.35
2629.88
2763.7
2750.71
2673.09
3014.18
3288.5
3587.62
3756.43
3866.14
3848.28
3745.52
3521.81
3177.8
2780.49
2278.86
1785.18
1358.16
1080.34
871.421
686.319
570.978
190.835
-79.6652
-80.0746
491.543
918.06
1267.7
1549.08
1825.31
2343.29
2997.59
3998.12
4740.29
6011.88
23.6627
108.649
149.574
211.491
253.923
290.991
312.603
330.119
347.152
362.667
377.101
388.596
395.515
394.819
381.717
349.439
294.022
221.89
147.555
80.3037
23.2759
-24.8115
-68.7944
-113.142
-161.358
-214.264
-272.086
-337.3
-413.573
-505.237
-614.592
-757.781
-943.58
-1151
-1425.13
-1915.66
-2898.69
-4644.46
-4639.53
-3387.35
-136.83
615.261
1587.37
2043.66
2402.33
2703.43
2829.87
2759.6
2742.97
3118.03
3412.62
3716.94
3888.94
4000.46
3978.38
3868.75
3649.17
3300.99
2898.05
2393.14
1888.36
1440.99
1138.25
901.863
690.135
554.647
79.062
-195.022
-189.882
482.762
935.081
1294
1581.12
1855.29
2368.59
3017.27
4040.51
4818.4
6183.85
24.9743
111.56
152.994
214.851
256.628
292.966
313.586
330.555
347.268
362.619
376.937
387.99
393.982
391.833
377.352
344.651
290.063
220.176
149.48
87.1141
35.4402
-7.16523
-45.7653
-84.6706
-127.049
-173.283
-223.296
-279.407
-344.852
-423.137
-516.748
-639.504
-797.847
-970.966
-1214.94
-1683.67
-2627.6
-4310.37
-4455.68
-3275.39
10.3454
765.046
1692.26
2145.44
2487.24
2776.27
2891.09
2751.82
2822.3
3230.24
3542.22
3851.59
4024.29
4132.55
4108.33
3998.17
3775.34
3423.08
3014.42
2505.21
1990.55
1523.86
1196.4
931.96
692.108
533.43
-42.34
-307.749
-288.483
469.698
950.438
1317.3
1607.49
1875.32
2379.3
3019.74
4063.34
4895.27
6331.83
26.2561
114.248
156.113
217.759
258.793
294.367
313.989
330.502
347.001
362.272
376.478
387.08
392.154
388.597
372.839
340.072
287.168
220.483
154.152
97.0806
50.9249
13.7567
-19.5905
-53.2021
-89.8465
-129.479
-171.815
-219.076
-274.049
-339.285
-417.233
-520.269
-652.58
-793.375
-1007.34
-1451.2
-2358.2
-3995.65
-4235.75
-3100.68
160.789
938.269
1799.43
2248.77
2572.96
2848.29
2945.84