/*--------------------------------*- C++ -*----------------------------------*\
| =========                 |                                                 |
| \\      /  F ield         | OpenFOAM: The Open Source CFD Toolbox           |
|  \\    /   O peration     | Version:  4.1                                   |
|   \\  /    A nd           | Web:      www.OpenFOAM.org                      |
|    \\/     M anipulation  |                                                 |
\*---------------------------------------------------------------------------*/
FoamFile
{
    version     2.0;
    format      ascii;
    class       surfaceScalarField;
    location    "13";
    object      phi;
}
// * * * * * * * * * * * * * * * * * * * * * * * * * * * * * * * * * * * * * //

dimensions      [0 3 -1 0 0 0 0];

internalField   nonuniform List<scalar> 
13220
(
-912.684
2212.61
-1419.1
1806.64
-1893.55
1774.37
-2257.39
1663.76
-2538.44
1581.27
-2740.16
1501.64
-2865.01
1424.77
-2913.6
1348.8
-2885.51
1271.82
-2781.18
1195.59
-2609.15
1128.18
-2362.11
1052.88
-1961.15
898.952
-1242.54
581.614
57.3611
-9.05899
2221.71
-54.508
1852.13
-196.039
1915.95
-313.284
1781.05
-436.062
1704.09
-545.907
1611.53
-642.317
1521.21
-722.859
1429.37
-790.089
1339.07
-848.858
1254.38
-886.292
1165.63
-835.672
1002.28
-571.67
634.992
-112.221
122.306
-54.8495
-144.502
2366.24
-355.896
2063.56
-557.939
2118.02
-685.808
1908.96
-805.195
1823.52
-888.708
1695.08
-949.159
1581.7
-987.5
1467.76
-1007.08
1358.7
-1008.44
1255.81
-974.51
1131.75
-855.64
883.562
-602.878
382.521
-338.046
-142.075
-392.895
39.9602
2326.32
-35.8243
2139.39
-65.3112
2147.55
-56.4553
1900.15
-48.0574
1815.17
-16.9767
1664.06
28.4103
1536.38
91.1018
1405.13
170.706
1279.17
268.071
1158.49
370.095
1029.78
420.665
833.017
326.627
476.615
60.8041
123.833
-332.087
144.41
2181.94
123.699
2160.13
165.015
2106.26
215.03
1850.17
264.524
1765.71
316.852
1611.76
369.832
1483.43
422.776
1352.2
477.376
1224.58
532.565
1103.34
578.586
983.746
569.811
841.929
432.438
614.148
212.009
344.544
-120.084
131.477
2050.48
126.516
2165.12
158.959
2073.85
190.896
1818.26
224.518
1732.1
253.856
1582.45
281.602
1455.69
304.574
1329.25
323.291
1205.86
338.009
1088.6
347.009
974.74
333.676
855.139
259.09
688.58
135.685
467.481
15.6071
87.185
1963.31
123.15
2129.17
158.942
2038.07
197.002
1780.21
234.641
1694.47
271.785
1545.31
304.116
1423.37
328.994
1304.37
343.883
1190.98
351.962
1080.54
352.985
973.711
336.928
871.315
275.029
750.598
155.425
587.341
171.025
36.0776
1927.23
104.263
2060.98
154.221
1988.1
203.711
1730.71
247.924
1650.24
304.142
1489.07
359.267
1368.21
425.223
1238.4
489.835
1126.35
538.836
1031.49
555.271
957.268
522.738
903.665
421.524
851.633
252.569
756.012
423.595
-32.117
1959.34
-9.68454
2038.53
11.5839
1966.82
14.4319
1727.85
18.8529
1645.81
38.8551
1469.06
86.3481
1320.71
188.963
1135.76
317.921
997.38
432.831
916.59
499.772
890.311
498.552
904.986
414.416
935.846
249.564
920.958
673.157
-16.6736
1975.98
-86.7484
2108.58
-106.951
1986.99
-148.864
1769.73
-182.361
1679.27
-220.52
1507.19
-237.705
1337.86
-184.847
1082.89
-58.5527
871.046
77.2684
780.704
176.227
791.324
203.084
877.94
150.078
988.693
50.2779
1020.58
723.434
50.4024
1925.53
-109.447
2268.38
-211.056
2088.55
-322.665
1881.29
-439.817
1796.38
-564.892
1632.23
-697.87
1470.81
-830.615
1215.59
-918.238
958.627
-955.603
818.029
-934.33
769.998
-832.15
775.77
-633.894
790.419
-316.06
702.719
407.371
228.496
1696.98
95.052
2401.77
-60.3638
2243.91
-168.535
1989.4
-247.413
1875.2
-362.279
1747.04
-526.555
1635.04
-764.128
1453.12
-1035.55
1229.99
-1268.51
1050.93
-1411.18
912.641
-1419.73
784.2
-1263.95
634.521
-1068.03
506.635
-660.655
336.493
1360.44
856.757
1881.48
1077.47
2023.17
1088.94
1977.89
1068.53
1895.58
1031.45
1784.11
994.478
1671.98
899.833
1547.74
725.303
1404.5
518.959
1257.25
336.099
1095.47
192.278
927.993
98.6082
728.13
-20.7737
625.943
-681.429
1463.45
-103.029
3542.61
-197.697
5151.81
413.952
5610.78
1518.91
5520.68
1985.67
5344.72
1960.06
5206.32
1810.38
5048.78
1705.27
4801.89
1651.39
4476.81
1582.32
4030.37
1541.91
3449.34
1509
2718
1459.47
2010.73
1333.19
1329.3
1061.76
1698.07
1994.74
2055.13
1817.09
1635.8
1382.88
1301.93
1386.85
1271.28
1372.56
1398.2
1155.61
876.169
8.96885e-05
-1247.84
1247.84
-1247.84
-1247.84
-1247.84
-2976.11
1728.27
-2976.11
-2976.11
-2976.11
-5130.73
2154.62
-5130.73
-5130.73
-7698.93
2568.2
-7698.93
-7698.93
-7698.93
-10569.8
2870.9
-10569.8
-10569.8
-13660.4
3090.58
-13660.4
-13660.4
-13660.4
-16861.6
3201.19
-16861.6
-16861.6
-16861.6
-20007.9
3146.32
-20007.9
-20007.9
-23011.8
3003.83
-23011.8
-23011.8
-23011.8
-25729.7
2717.96
-25729.7
-25729.7
-28123.5
2393.81
-28123.5
-28123.5
-28123.5
-30114.8
1991.26
-30114.8
-30114.8
-30114.8
-31629.4
1514.65
-31629.4
-31629.4
-32759.6
1130.2
-32759.6
-32759.6
-32759.6
-33544.7
785.109
-33544.7
-33544.7
-33544.7
-34010.6
465.878
-34010.6
-34010.6
-34268
257.358
-34268
-34268
-34268
-34461.5
193.529
-34461.5
-34461.5
-34590.2
128.741
-34590.2
-34590.2
-34590.2
-34354.7
-235.59
-34354.7
-34354.7
-34354.7
-33586.8
-767.874
-33586.8
-33586.8
-32622.1
-964.703
-32622.1
-32622.1
-32191.2
-31835.4
-31394.6
-28675.9
-2186.34
-28369.7
-28079
-27779.1
-27479.3
-27155.7
-26826.4
-26564.1
-26240.7
-23449.6
-2386.62
-23174.7
-22881.7
-22589.6
-22306.4
-22017.6
-21739.8
-21522.7
-21241.1
-18335.6
-2551.06
-18103.8
-17861
-17605.1
-17333.9
-17051.6
-16757
-16444.4
-16150.6
-15819.2
-13836.5
-1623.96
-13541.9
-13244
-12948.7
-12658.3
-12366.3
-12075.9
-11791.8
-11450.1
-10000.9
-1068.9
-9663.83
-9309.11
-8934.15
-8552.25
-8159.94
-7756.63
-7365.37
-6951.63
-5530.02
-1024.82
-5120.54
-4726.48
-4329.8
-3923.56
-3518.42
-3109.02
-2702.13
-2241.63
-1267.41
-596.202
-963.091
-677.52
-416.162
-154.064
99.2261
123.458
138.29
138.391
191.414
730.778
-497.591
709.917
549.607
361.925
205.495
30.3382
-188.977
-504.512
-707.943
-484.998
-280.305
-654.094
-968.952
-968.956
-129.062
-839.9
1255.12
-1384.18
1255.12
3706.48
-2451.36
3706.48
7102.64
-3396.16
11395.5
-4292.9
11395.5
16171
-4775.42
21630.7
-5459.79
21630.7
27277.8
-5647.06
27277.8
32920.7
-5642.9
38647.4
-5726.68
38647.4
44124.5
-5477.07
44124.5
49274.8
-5150.33
54001.1
-4726.32
54001.1
58439.9
-4438.81
62224
-3784.1
62224
65700.2
-3476.2
65700.2
68823.6
-3123.39
71078.2
-2254.6
71078.2
73117.1
-2038.94
73117.1
74886.9
-1769.73
75645.4
-758.482
75645.4
76548.6
-903.238
76358.2
190.429
76358.2
76173.6
184.532
76173.6
75950.5
223.17
74770.1
1180.41
74770.1
73833.1
937.007
73833.1
73023.7
809.35
71494.7
1529.03
71494.7
70522.5
972.222
68915.4
1607.1
68915.4
67722.4
1192.95
67722.4
66781.4
940.967
65407.8
1373.63
65407.8
64478.7
929.138
64478.7
63800.3
678.335
62839.4
960.921
62839.4
62372.8
466.576
61644.4
728.388
61644.4
61321.1
323.318
61321.1
61224.2
96.9472
60972.5
251.642
60972.5
61110.5
-138.006
61110.5
61440.9
-330.378
61672.8
-231.848
61672.8
62260.6
-587.848
62723
-462.428
62723
63511.5
-788.412
63511.5
-1026.5
-1933.18
-14929.2
-1892.95
-17253
-1745.45
-16810.2
-1649.6
-16686.1
-1590.74
-16084.3
-1585.5
-15840.3
-1604.53
-15701.8
-1640.84
-15876.7
-1683.63
-16289.9
-1732.5
-17030.2
-1792.18
-18014.1
-1877.96
-19180.5
-2009.23
-20444.9
-2202.47
-21771.4
-2463.29
-23103.3
-2787.83
-24400.3
-3172.28
-25636.5
-3625.03
-26740.1
-4165.41
-27616.8
-4808.92
-28171.2
-5552.7
-28395.7
-6366.72
-28433.3
-7191.73
-28487.4
-7958.14
-28663.3
-8644.12
-29024.2
-9328.27
-29872.8
-10133.8
-31685
-11069.5
-34580.2
-11941.5
-37902
-12539.3
-40855
-12807.4
-44027.8
-12454.1
-47947.6
-10319.9
-48833.7
-4961.54
-35184.5
-192.242
1110.04
120.681
27405.5
177.41
35721.6
349.645
43731.1
654.697
52065.2
866.913
55858.3
972.067
56900.2
1075.64
57672.8
1194.48
57729.8
1505.08
62056.8
1983.26
68318.3
2341.39
67706.3
2282.76
54774.3
1993.78
38067
1905.27
33175.9
2047.63
43300.1
2260.72
55091.3
2470.45
61771.5
2653.14
62122.6
2984.17
64667.3
3531.1
76096.5
4092.4
88314.7
4439.79
91128.6
4471.54
80808.8
4262.27
61223.2
4069.78
39335.4
3971.17
18192.8
3565.9
-45.6689
2759.43
-8388.27
2055.67
-5123.21
1750.01
-920.389
1689
-2806.67
1491.69
-9427.96
1157.74
-16871.8
583.439
-22582.9
-383.234
-26294.9
-586.933
-26583.9
315.607
-21337.2
1653.78
-13313.2
3221.95
-11764.1
3585.04
-31848.9
2423.09
-55821.9
1064.28
-71309.6
382.793
-86950.1
-103233
-1852.59
-14770.8
-1885.38
-17220.2
-1749.99
-16945.6
-1657.42
-16778.7
-1598.18
-16143.5
-1595.97
-15842.5
-1621.8
-15676
-1668.85
-15829.6
-1725.21
-16233.5
-1790.79
-16964.6
-1870.54
-17934.4
-1980.8
-19070.2
-2141.33
-20284.4
-2366.37
-21546.4
-2657.28
-22812.4
-3008.84
-24048.7
-3421.64
-25223.7
-3910.71
-26251
-4497.36
-27030.2
-5191.1
-27477.5
-5978.35
-27608.5
-6821.19
-27590.5
-7662.6
-27646
-8442.27
-27883.7
-9139.85
-28326.7
-9822.39
-29190.2
-10613.1
-30894.3
-11554.8
-33638.5
-12475.7
-36981.2
-13127.3
-40203.3
-13449
-43706.1
-13254.1
-48142.6
-11531.8
-50555.9
-6575.84
-40140.5
-755.937
-4709.86
136.336
26513.3
185.865
35672.1
342.648
43574.4
631.188
51776.6
836.493
55653
944.463
56792.3
1051.96
57565.3
1177.98
57603.8
1490.86
61743.9
1967.19
67841.9
2325.03
67348.4
2271.1
54828.2
1978.21
38359.9
1888.17
33265.9
2046.78
43141.5
2266.1
54872
2472.66
61565
2645.87
61949.4
2972.83
64340.3
3528.95
75540.4
4100.6
87743
4452.8
90776.4
4482.52
80779.1
4263.2
61442.5
4046.91
39551.7
3840.26
18399.4
3324.63
469.966
2520.6
-7584.25
1916.39
-4519
1718.35
-722.346
1683.98
-2772.3
1505.13
-9249.11
1249.54
-16616.2
883.151
-22216.5
19.4867
-25431.2
-534.318
-26030.1
36.3938
-21907.9
1479
-14755.8
3129.31
-13414.5
3492.87
-32212.4
2460.51
-54789.5
1126.6
-69975.7
238.222
-86061.8
-103783
-1774.84
-14557.5
-1860.62
-17134.4
-1743.63
-17062.6
-1656.63
-16865.7
-1600.17
-16199.9
-1600.19
-15842.5
-1630.37
-15645.8
-1684
-15776
-1748.86
-16168.7
-1825.42
-16888.1
-1919.14
-17840.6
-2046.37
-18943
-2225.62
-20105.1
-2468.52
-21303.5
-2774.46
-22506.5
-3139.89
-23683.3
-3569.95
-24793.7
-4082.65
-25738.3
-4697.47
-26415.3
-5417.83
-26757.1
-6223.53
-26802.8
-7074.08
-26739.9
-7917.13
-26803
-8701.18
-27099.6
-9408.6
-27619.2
-10097.2
-28501.7
-10880
-30111.4
-11808.9
-32709.7
-12737.2
-36052.9
-13413.4
-39527
-13762.9
-43356.6
-13655
-48250.5
-12246.2
-51964.7
-7854.69
-44532
-1488.6
-11075.9
310.569
24714.1
187.563
35795.1
333.682
43428.2
600.283
51510
796.898
55456.3
905.257
56683.9
1017.5
57453
1149.52
57471.8
1464.7
61428.7
1942.28
67364.4
2306.03
66984.7
2260.92
54873.3
1968.43
38652.4
1875.52
33358.8
2041.36
42975.6
2268.3
54645
2473.82
61359.4
2638.31
61784.9
2959.14
64019.5
3523.06
74976.4
4107.73
87158.3
4468.22
90415.9
4498.28
80749
4270.45
61670.3
4026.53
39795.7
3822.27
18603.7
3341.17
951.067
2537.01
-6780.09
1934.02
-3916
1745.64
-533.974
1705.94
-2732.6
1551.46
-9094.63
1336.67
-16401.4
1063.89
-21943.7
394.905
-24762.3
-254.544
-25380.6
5.69454
-22168.1
1343.9
-16094
2972.52
-15043.1
3379.92
-32619.8
2466.67
-53876.3
1174.28
-68683.3
238.691
-85126.2
-104007
-1676.72
-14284.7
-1825.67
-16985.5
-1732.19
-17156.1
-1652.91
-16944.9
-1600.22
-16252.6
-1603.2
-15839.5
-1638.42
-15610.6
-1699.85
-15714.6
-1774.79
-16093.7
-1864.56
-16798.3
-1975.07
-17730.1
-2122.26
-18795.8
-2322.93
-19904.5
-2586.21
-21040.2
-2910.17
-22182.5
-3293.41
-23300
-3745.45
-24341.6
-4286.7
-25197.1
-4934.4
-25767.6
-5685.76
-26005.8
-6513.68
-25974.8
-7375.16
-25878.4
-8222.92
-25955.2
-9014.33
-26308.2
-9733.36
-26900.2
-10426.9
-27808.1
-11198.1
-29340.2
-12110.3
-31797.4
-13048
-35115.2
-13757.5
-38817.5
-14144.8
-42969.4
-14126.5
-48268.7
-12984.5
-53106.7
-8971.1
-48545.5
-2039.95
-18007.1
622.893
22051.2
244.656
36173.3
325.204
43347.7
565.279
51269.9
751.326
55270.3
859.742
56575.5
975.55
57337.2
1113.82
57333.5
1431.17
61111.4
1910.29
66885.2
2282.71
66612.3
2253.87
54902.2
1968.28
38937.9
1869.83
33457.3
2035.5
42810
2267.24
54413.3
2473.85
61152.8
2630.83
61627.9
2944.79
63705.5
3514.87
74406.4
4112
86561.2
4482.59
90045.3
4516.63
80715
4286.39
61900.6
4020.58
40061.5
3826.45
18797.8
3379.63
1397.88
2572.67
-5973.13
1967.54
-3310.86
1784.12
-350.561
1740.7
-2689.18
1608.16
-8962.09
1436.15
-16229.4
1225.73
-21733.3
728.705
-24265.2
107.353
-24759.3
193.03
-22253.8
1379.92
-17280.9
2884.62
-16547.8
3286.56
-33021.8
2480.95
-53070.6
1226
-67428.3
204.557
-84104.7
-104390
-1561.41
-13956.6
-1776.71
-16770.2
-1713.32
-17219.5
-1644.66
-17013.6
-1597.53
-16299.8
-1603.99
-15833
-1644.17
-15570.4
-1713.48
-15645.3
-1798.7
-16008.5
-1902.26
-16694.8
-2030.55
-17601.8
-2198.46
-18627.9
-2420.28
-19682.7
-2702.73
-20757.7
-3043.63
-21841.6
-3444.74
-22898.9
-3919.82
-23866.5
-4490.48
-24626.4
-5170.61
-25087.5
-5950.86
-25225.5
-6797.87
-25127.8
-7667.32
-25009
-8518.12
-25104.4
-9316.85
-25509.5
-10048.9
-26168.1
-10749.2
-27107.8
-11506.8
-28582.7
-12392.2
-30912
-13326.1
-34181.3
-14066
-38077.6
-14492.8
-42542.7
-14554.5
-48206.9
-13650.1
-54011.2
-10003.4
-52192.1
-2558.12
-25452.4
1029.08
18464
369.354
36833
313.319
43403.7
525.004
51058.3
697.533
55097.8
805.384
56467.6
924.612
57218
1069.89
57188.2
1389.77
60791.5
1870.87
66404.1
2254.09
66229.1
2246.62
54909.7
1973.27
39211.3
1868.68
33561.9
2030.18
42648.5
2264.24
54179.2
2473.44
60943.6
2623.15
61478.2
2929.88
63398.8
3505.83
73830.4
4116.03
85951
4498.16
89663.2
4538.25
80674.9
4307.83
62131
4033.01
40336.3
3844.43
18986.4
3413.6
1828.72
2623.01
-5182.54
2031.04
-2718.9
1839.06
-158.575
1784.2
-2634.32
1674.57
-8852.45
1543.55
-16098.4
1365.15
-21554.9
998.677
-23898.8
486.004
-24246.6
490.196
-22258
1481.67
-18272.3
2811.26
-17877.4
3193.4
-33403.9
2492.8
-52370
1283.13
-66218.7
163.426
-82985
-104459
-1431.11
-13578.4
-1714.07
-16487.2
-1686.9
-17246.6
-1631.76
-17068.7
-1591.96
-16339.6
-1602.62
-15822.4
-1647.9
-15525.1
-1725.48
-15567.7
-1821.65
-15912.3
-1940.03
-16576.4
-2087.39
-17454.5
-2276.96
-18438.3
-2519.93
-19439.7
-2821.09
-20456.6
-3179.15
-21483.5
-3599.64
-22478.4
-4099.92
-23366.2
-4701.57
-24024.8
-5414.54
-24374.5
-6223.1
-24417
-7088.28
-24262.6
-7965.41
-24131.9
-8819.96
-24249.8
-9627.36
-24702.1
-10373.9
-25421.6
-11081.6
-26400.1
-11823.6
-27840.7
-12674
-30061.6
-13591.4
-33263.9
-14358
-37310.9
-14828.6
-42072.1
-14964.8
-48070.7
-14270.1
-54705.9
-11013.2
-55449.1
-3222.33
-33243.2
1406.89
13834.8
536.381
37703.5
296.018
43644.1
478.945
50875.3
634.6
54942.1
740.806
56361.4
863.63
57095.2
1016.46
57035.4
1339.65
60468.3
1823.93
65919.9
2220.41
65832.6
2238.37
54891.7
1981.38
39468.3
1870.43
33672.8
2024.6
42494.3
2259.28
53944.5
2472.02
60730.9
2615.91
61334.3
2915.31
63099.4
3496.13
73249.6
4120.52
85326.6
4515.72
89268
4563.44
80627.2
4334.23
62360.2
4063.68
40606.8
3885.01
19165.1
3454.58
2259.14
2671.28
-4399.24
2094.89
-2142.51
1901.58
34.7311
1838.13
-2570.88
1749.96
-8764.28
1654.87
-16003.3
1490.18
-21390.2
1190.52
-23599.1
808.414
-23864.5
807.357
-22256.9
1615.39
-19080.4
2765.36
-19027.3
3112.04
-33750.6
2506.26
-51764.2
1345.9
-65058.3
178.362
-81817.5
-104611
-1288.62
-13158
-1637.47
-16138.4
-1652.39
-17231.7
-1613.87
-17107.3
-1583.23
-16370.2
-1598.9
-15806.7
-1649.4
-15474.6
-1735.71
-15481.4
-1843.54
-15804.5
-1977.74
-16442.2
-2145.25
-17287
-2357.05
-18226.5
-2620.88
-19175.9
-2940.25
-20137.2
-3315.93
-21107.9
-3757.38
-22037
-4284.73
-22838.9
-4918.59
-23390.9
-5664.54
-23628.6
-6500.77
-23580.7
-7383.4
-23380
-8268.14
-23247.1
-9127.14
-23390.8
-9944.12
-23885.1
-10705.9
-24659.8
-11422
-25684
-12147.2
-27115.5
-12954.8
-29254
-13840.6
-32378.1
-14625.9
-36525.6
-15142.6
-41555.5
-15349.6
-47863.7
-14842.1
-55213.4
-12041.9
-58249.3
-4427.38
-40857.7
1510.94
7896.49
720.663
38493.8
285.243
44079.5
427.143
50733.4
562.662
54806.6
666.004
56258.1
792.523
56968.6
953.356
56874.6
1280.69
60141
1769.47
65431.1
2181.65
65420.4
2228.89
54844.4
1992.18
39705
1874.72
33790.3
2018.34
42350.7
2252.15
53710.7
2468.98
60514.1
2609.46
61193.8
2901.73
62807.1
3485.47
72665.8
4124.92
84687.2
4535.03
88857.9
4592.45
80569.7
4366.13
62586.5
4105.44
40867.5
3935.96
19334.6
3504.47
2690.63
2733.63
-3628.4
2169.1
-1577.98
1970.8
233.031
1899.53
-2499.6
1831.54
-8696.29
1765.28
-15937
1606.28
-21231.2
1327.92
-23320.7
1052.27
-23588.8
1092.42
-22297.1
1758.44
-19746.4
2734.49
-20003.4
3035.97
-34052.1
2521.71
-51250
1412.32
-63948.9
89.1614
-80494.3
-104660
-1137.98
-12705.4
-1547.44
-15728.9
-1609.4
-17169.8
-1590.66
-17126
-1570.99
-16389.9
-1592.6
-15785.1
-1648.51
-15418.7
-1744.12
-15385.8
-1864.55
-15684.1
-2015.62
-16291.1
-2204.17
-17098.4
-2438.48
-17992.2
-2722.76
-18891.6
-3060.12
-19799.8
-3454.32
-20713.7
-3918.59
-21572.7
-4474.89
-22282.6
-5142.08
-22723.7
-5921.27
-22849.4
-6784.95
-22717.1
-7685
-22480
-8577.98
-22354.1
-9442.4
-22526.4
-10269.4
-23058.1
-11046.3
-23882.8
-11771
-24959.4
-12479.6
-26406.8
-13239.6
-28494
-14079.4
-31538.4
-14870.9
-35734.1
-15433.3
-40993
-15710.3
-47586.8
-15377.3
-55546.4
-13100.1
-60526.5
-6535.08
-47422.7
877.728
483.679
958.199
38413.3
309.805
44727.9
369.362
50673.9
481.661
54694.3
580.865
56158.9
711.153
56838.4
880.536
56705.2
1212.84
59808.6
1707.27
64936.7
2137.22
64990.4
2217.23
54764.4
2004.62
39917.6
1880.72
33914.2
2011.11
42220.3
2242.92
53478.9
2464.02
60293
2604.74
61053.1
2890.08
62521.8
3473.89
72082
4129.04
84032
4556.14
88430.8
4625.59
80500.3
4403.69
62808.4
4154.59
41116.6
3996.02
19493.1
3562.67
3123.98
2801.65
-2867.38
2247.91
-1024.23
2046.19
434.75
1968.62
-2422.03
1918.42
-8646.09
1870.87
-15889.4
1708.66
-21069
1429.83
-23041.9
1224.13
-23383.1
1322.99
-22395.9
1892.32
-20315.7
2705.16
-20816.2
2963.73
-34310.7
2540.76
-50827
1489.87
-62898
117.378
-79121.9
-104291
-983.73
-12232.9
-1445.03
-15267.6
-1557.72
-17057.1
-1561.87
-17121.8
-1554.86
-16396.9
-1583.44
-15756.5
-1645.06
-15357.1
-1750.66
-15280.2
-1884.84
-15549.9
-2053.86
-16122.1
-2264.1
-16888.2
-2520.85
-17735.4
-2825.14
-18587.3
-3180.62
-19444.4
-3594.62
-20299.7
-4083.65
-21083.7
-4670.63
-21695.6
-5372.2
-22022.2
-6185.06
-22036.5
-7076.41
-21825.7
-7994.36
-21562
-8896.52
-21452
-9766.99
-21656
-10603.2
-22221.9
-11393.7
-23092.4
-12126.5
-24226.6
-12820
-25713.2
-13531.5
-27782.6
-14313.1
-30756.8
-15094.1
-34953.1
-15697.6
-40389.5
-16044.3
-47240.1
-15879.8
-55711
-14090.1
-62316.2
-8522.51
-52990.3
-356.476
-7682.36
1293.03
36763.8
399.878
45621
305.02
50768.7
391.276
54608
485.03
56065.1
619.141
56704.2
797.704
56526.6
1135.86
59470.5
1637
64435.5
2086.52
64540.9
2202.26
54648.7
2017.08
40102.8
1887.04
34044.2
2002.13
42105.2
2231.33
53249.7
2456.94
60067.4
2603.82
60906.2
2882.17
62243.4
3461.96
71502.2
4132.93
83361.1
4579.23
87984.5
4663.07
80416.4
4447.19
63024.3
4210.71
41353.1
4064.52
19639.3
3632.59
3555.92
2880.92
-2115.71
2333.63
-476.948
2127.51
640.867
2044.94
-2339.47
2009.18
-8610.32
1967.8
-15848.1
1789.83
-20891.1
1504.6
-22756.7
1340.39
-23218.9
1490.08
-22545.6
1991.9
-20817.6
2662.85
-21487.2
2895.34
-34543.2
2563.89
-50495.6
1576.41
-61910.6
150.706
-77696.2
-104043
-830.587
-11753.5
-1331.87
-14766.3
-1497.24
-16891.7
-1527.27
-17091.8
-1534.41
-16389.8
-1571.05
-15719.9
-1638.87
-15289.3
-1755.34
-15163.7
-1904.62
-15400.6
-2092.69
-15934
-2324.97
-16655.9
-2603.79
-17456.6
-2927.73
-18263.3
-3301.83
-19070.3
-3737.21
-19864.3
-4252.96
-20567.9
-4872.22
-21076.4
-5609.24
-21285.1
-6456.46
-21189.3
-7376.11
-20906
-8312.84
-20625.3
-9225.12
-20539.7
-10101.6
-20779.5
-10945
-21378.5
-11745.3
-22292.1
-12484.2
-23487.6
-13165
-25032.4
-13831.2
-27116.4
-14547.5
-30040.5
-15299
-34201.6
-15933.9
-39754.6
-16348.6
-46825.3
-16337.9
-55721.7
-14943.6
-63710.5
-9958.92
-57974.9
-1216.59
-16424.7
1685.3
33861.9
568.793
46737.6
234.402
51103.1
291.059
54551.4
378.212
55978
516.113
56566.3
704.545
56338.2
1049.46
59125.6
1558.39
63926.6
2029.09
64070.2
2182.95
54494.8
2027.84
40257.9
1892.11
34180
1990.31
42007
2216.68
53023.3
2447.51
59836.5
2606.1
60747.6
2876.45
61973.1
3449.93
70928.8
4136.6
82674.4
4604.42
87516.7
4705.16
80315.7
4496.86
63232.6
4275.69
41574.3
4143.6
19771.4
3710.78
3988.74
2966.41
-1371.34
2425.14
64.3235
2215.31
850.703
2128.7
-2252.86
2102.39
-8584.01
2052.3
-15798
1843.57
-20682.3
1551.09
-22464.2
1417.52
-23085.4
1595.8
-22723.9
2037.28
-21259
2602.26
-22052.1
2834.42
-34775.3
2593.06
-50254.2
1668.82
-60986.3
100.637
-76128
-103619
-682.912
-11280.6
-1210.12
-14239.1
-1428.05
-16673.8
-1486.68
-17033.2
-1509.27
-16367.2
-1555.09
-15674.1
-1629.81
-15214.6
-1758.21
-15035.3
-1924.15
-15234.7
-2132.33
-15725.9
-2386.71
-16401.5
-2687
-17156.3
-3030.4
-17919.9
-3423.99
-18676.7
-3882.51
-19405.8
-4426.87
-20023.6
-5079.89
-20423.3
-5853.52
-20511.5
-6736.03
-20306.8
-7684.9
-19957.2
-8641.43
-19668.8
-9564.5
-19616.6
-10446.1
-19897.8
-11292.9
-20531.8
-12097.4
-21487.5
-12838.5
-22746.5
-13508.3
-24362.7
-14135.8
-26488.8
-14786.3
-29390
-15490.3
-33497.6
-16142
-39102.8
-16621.4
-46346
-16751.2
-55591.9
-15697.6
-64764.1
-11201.6
-62470.9
-2041.31
-25585
2074.87
29745.8
802.102
48010.3
161.453
51743.8
180.207
54532.6
260.228
55897.9
401.795
56424.8
600.828
56139.2
953.445
58773
1471.23
63408.8
1964.51
63576.9
2158.25
54301.1
2035.12
40381
1894.4
34320.7
1974.58
41926.8
2198.04
52799.9
2435.19
59599.4
2607.27
60575.5
2870.48
61709.9
3439.06
70360.2
4140.23
81973.2
4631.76
87025.2
4752.01
80195.4
4552.99
63431.6
4350.06
41777.2
4229.55
19891.9
3790.49
4427.8
3054.39
-635.235
2522.27
596.444
2310.18
1062.79
2220.18
-2162.86
2196.19
-8560.03
2120.16
-15721.9
1866.61
-20428.8
1567.69
-22165.3
1468.21
-22985.9
1657.06
-22912.7
2036.53
-21638.5
2531.77
-22547.4
2785.74
-35029.3
2629.91
-50098.4
1773.51
-60129.9
162.552
-74517
-102728
-544.208
-10826
-1082.3
-13701
-1350.46
-16405.6
-1440
-16943.6
-1479.07
-16328.1
-1535.23
-15617.9
-1617.88
-15131.9
-1759.5
-14893.7
-1943.79
-15050.4
-2173.03
-15496.6
-2449.24
-16125.3
-2770.3
-16835.3
-3133.16
-17557.1
-3547.43
-18262.4
-4030.92
-18922.3
-4605.65
-19448.9
-5293.9
-19735.1
-6105.36
-19700.1
-7024.27
-19387.9
-8003.3
-18978.1
-8980.37
-18691.7
-9914.33
-18682.7
-10799.2
-19012.9
-11644.2
-19686.8
-12445.5
-20686.3
-13182.9
-22009.1
-13841.8
-23703.7
-14438.4
-25892.2
-15029.2
-28799.3
-15674.1
-32852.7
-16324.8
-38452.1
-16860.9
-45809.8
-17118.1
-55334.7
-16368.4
-65513.8
-12344.1
-66495.3
-2930.19
-34998.9
2411.19
24404.4
1069.77
49351.7
97.5745
52716
57.5547
54572.6
130.934
55824.6
275.975
56279.7
486.373
55928.8
847.663
58411.7
1375.32
62881.1
1892.34
63059.9
2127.01
54066.4
2037.11
40470.9
1892.37
34465.4
1953.98
41865.2
2174.53
52579.3
2419.85
59354.1
2604.3
60391.1
2864.64
61449.5
3429.99
69794.8
4144.12
81259.1
4661.31
86508
4803.63
80053.1
4616.48
63618.8
4432.4
41961.3
4313.67
20010.7
3860.31
4881.16
3138.55
86.519
2624.29
1110.71
2413.19
1273.89
2319.72
-2069.38
2288.12
-8528.43
2166.82
-15600.6
1857.41
-20119.4
1556.35
-21864.2
1500.33
-22929.9
1695.9
-23108.3
2016.11
-21958.7
2465.84
-22997.1
2753.71
-35317.2
2675.57
-50020.2
1887.72
-59342.1
220.464
-72849.8
-102041
-416.743
-10399.3
-951.192
-13166.6
-1265.04
-16091.8
-1387.2
-16821.5
-1443.58
-16271.7
-1511.23
-15550.2
-1603.24
-15039.9
-1759.6
-14737.3
-1963.99
-14846
-2215.01
-15245.6
-2512.55
-15827.8
-2853.62
-16494.2
-3236.24
-17174.5
-3672.56
-17826.1
-4182.78
-18412.1
-4789.56
-18842.1
-5514.5
-19010.2
-6365.07
-18849.5
-7321.4
-18431.6
-8331.13
-17968.4
-9328.74
-17694.1
-10272.7
-17738.7
-11157.9
-18127.7
-11995.2
-18849.5
-12784.8
-19896.7
-13510.9
-21283
-14157.4
-23057.3
-14729.9
-25319.6
-15272
-28257.3
-15855.9
-32268.9
-16486.8
-37821.2
-17065.6
-45230.9
-17435.5
-54964.9
-16959.6
-65989.6
-13444.9
-70010
-3966.08
-44477.7
2644.03
17794.3
1344.04
50651.7
62.3737
53997.6
-77.323
54712.3
-9.76973
55757
138.547
56131.4
361.029
55706.3
731.989
58040.7
1270.5
62342.6
1812.13
62518.3
2088.1
53790.4
2032.01
40527
1884.48
34613
1927.72
41822
2145.52
52361.5
2400.88
59098.7
2596.5
60195.5
2860.17
61185.8
3422.48
69232.5
4148.44
80533.1
4692.96
85963.4
4859.85
79886.2
4688.54
63790.1
4519.3
42130.5
4384.74
20145.2
3910.51
5355.39
3214.78
782.242
2730.88
1594.61
2525.59
1479.18
2427.35
-1971.15
2375
-8476.08
2187.88
-15413.5
1815.9
-19747.4
1522.43
-21570.7
1519.26
-22926.7
1724.48
-23313.5
1993.15
-22227.4
2413.55
-23417.5
2742
-35645.6
2732.33
-50010.6
2012.03
-58621.8
280.367
-71118.1
-100800
-301.236
-10006.4
-819.558
-12648.3
-1172.65
-15738.7
-1328.41
-16665.7
-1402.7
-16197.4
-1482.97
-15470
-1586.23
-14936.6
-1759.15
-14564.4
-1985.33
-14619.8
-2258.56
-14972.4
-2576.64
-15509.7
-2937.07
-16133.8
-3339.98
-16771.5
-3799.79
-17366.3
-4338.36
-17873.5
-4978.78
-18201.6
-5741.92
-18247
-6632.84
-17958.6
-7627.13
-17437.3
-8667.12
-16928.4
-9684.03
-16677.2
-10635.7
-16787
-11517.4
-17246
-12340.6
-18026.3
-13110.2
-19127.2
-13817.1
-20576
-14447.4
-22427
-15000.7
-24766.3
-15506.7
-27751.3
-16036.2
-31739.4
-16632.3
-37225.1
-17234.2
-44629.1
-17699.6
-54499.6
-17468.7
-66220.4
-14542.6
-72936.1
-5548.86
-53471.5
2558.07
9687.35
1602.13
51607.7
77.4546
55522.3
-222.122
55011.9
-162.176
55697.1
-10.5615
55979.8
224.687
55471
606.348
57659.1
1156.68
61792.3
1723.5
61951.5
2040.38
53473.6
2018.06
40549.3
1869.17
34761.9
1895.1
41796
2110.64
52146
2377.35
58832
2584.47
59988.3
2856.36
60914
3415.84
68673
4152.94
79796
4726.19
85390.2
4920.21
79692.2
4769.47
63940.8
4606.28
42293.7
4434.22
20317.3
3936.6
5853.01
3282.05
1436.79
2842.38
2034.29
2648.55
1673
2542.41
-1865
2453.08
-8386.76
2179.65
-15140.1
1743.99
-19311.7
1473.16
-21299.9
1529.71
-22983.2
1743.81
-23527.6
1969.29
-22452.9
2378.01
-23826.2
2754.28
-36021.9
2802.44
-50058.7
2146.95
-57966.3
415.537
-69386.7
-99706
-196.886
-9649.34
-689.956
-12155.2
-1074.48
-15354.2
-1263.91
-16476.3
-1356.58
-16104.8
-1450.6
-15376
-1567.45
-14819.8
-1759.01
-14372.8
-2008.48
-14370.3
-2303.98
-14676.9
-2641.65
-15172
-3020.91
-15754.5
-3444.82
-16347.6
-3929.48
-16881.6
-4497.84
-17305.1
-5173.4
-17526.1
-5976.25
-17444.2
-6908.46
-17026.3
-7940.36
-16405.4
-9008.63
-15860.2
-10041.8
-15644
-10997.6
-15831.2
-11871
-16372.6
-12674.1
-17223.2
-13416.2
-18385.1
-14096.1
-19896.1
-14705.5
-21817.6
-15241.3
-24230.5
-15722
-27270.6
-16207.8
-31253.5
-16761.3
-36671.5
-17365.1
-44025.4
-17906.6
-53958
-17901
-66226
-15637.1
-75200.1
-8067.52
-61041
1617.49
2.33336
1857.65
51367.5
153.995
57226
-371.71
55537.6
-326.667
55652
-171.389
55824.5
77.3335
55222.3
470.742
57265.6
1033.82
61229.2
1626.12
61359.2
1982.82
53116.9
1993.52
40538.6
1844.87
34910.5
1855.36
41785.5
2069.57
51931.8
2348.71
58552.8
2568.78
59768.3
2849.81
60632.9
3407.05
68115.8
4156.21
79046.9
4759.79
84786.6
4983.8
79468.2
4857.94
64066.7
4689.25
42462.4
4459.59
20547
3940.09
6372.5
3341.85
2035.04
2959.52
2416.62
2782.52
1850
2663.04
-1745.53
2518.27
-8241.98
2139.86
-14761.7
1645.95
-18817.8
1416.18
-21070.1
1535.27
-23102.3
1751.92
-23744.3
1943.04
-22644
2362.18
-24245.4
2794.79
-36454.5
2889.13
-50153.1
2286.55
-57363.7
448.54
-67548.7
-98328.3
-102.461
-9326.53
-564.535
-11693.1
-972.03
-14946.7
-1194.24
-16254.1
-1305.64
-15993.4
-1414.52
-15267.1
-1547.75
-14686.5
-1760.25
-14160.3
-2034.21
-14096.4
-2351.58
-14359.5
-2707.77
-14815.8
-3105.5
-15356.8
-3551.17
-15902
-4061.89
-16370.9
-4661.29
-16705.7
-5373.43
-16813.9
-6217.34
-16600.3
-7191.15
-16052.5
-8258.74
-15337.8
-9351.17
-14767.7
-10395.4
-14599.8
-11349.8
-14876.8
-12209.6
-15512.8
-12987.4
-16445.4
-13696.3
-17676.1
-14342.6
-19249.9
-14925.2
-21235
-15442.3
-23713.3
-15904
-26809
-16355.9
-30801.6
-16866.2
-36161.3
-17454.1
-43437.4
-18048.8
-53363.4
-18251.6
-66023.2
-16604.6
-76847.1
-10278.3
-67367.3
4.68609
-10280.7
2130.84
49241.4
284.623
59072.2
-520.378
56342.6
-503.445
55635.1
-344.019
55665.1
-81.0755
54959.4
325.203
56859.4
902.004
60652.4
1519.83
60741.3
1914.47
52722.2
1956.74
40496.4
1810.11
35057.1
1807.69
41788
2021.9
51717.6
2314.73
58260
2549.35
59533.7
2837.55
60344.7
3393.44
67559.9
4156.08
78284.2
4791.69
84151
5048.97
79210.9
4951.2
64164.4
4765.83
42647.8
4464.59
20848.2
3927.31
6909.79
3397.2
2565.14
3082.53
2731.29
2926.33
2006.2
2786.16
-1605.36
2566.69
-8022.51
2068.23
-14263.2
1528.24
-18277.8
1358.07
-20900
1536.98
-23281.2
1747.39
-23954.7
1916.21
-22812.8
2371.27
-24700.4
2868.12
-36951.3
2995.89
-50280.8
2440.69
-56808.5
619.291
-65727.3
-96335.4
-17.0647
-9035.13
-444.959
-11265.2
-867.023
-14524.6
-1120.18
-16000.9
-1250.61
-15862.9
-1375.5
-15142.2
-1528.27
-14533.8
-1764.07
-13924.5
-2063.25
-13797.2
-2401.7
-14021.1
-2775.3
-14442.2
-3191.24
-14940.8
-3659.38
-15433.8
-4197.11
-15833.2
-4828.61
-16074.2
-5578.66
-16063.9
-6464.62
-15714.3
-7479.15
-15038
-8578.35
-14238.6
-9688.02
-13658
-10735.6
-13552.2
-11681.6
-13930.8
-12522
-14672.4
-13270.1
-15697.2
-13942.1
-17004.2
-14550.1
-18641.9
-15100.1
-20685
-15593.8
-23219.7
-16037
-26365.8
-16461
-30377.7
-16930.5
-35691.8
-17490.7
-42877.2
-18114.4
-52739.7
-18495
-65642.6
-17359.2
-77982.9
-11806.2
-72920.2
-1170.61
-20916.3
2355.23
45715.5
445.778
60981.6
-663.375
57451.8
-692.303
55664
-528.523
55501.3
-250.515
54681.4
169.846
56439
761.423
60060.8
1404.49
60098.3
1834.48
52292.2
1906.11
40424.7
1763.48
35199.8
1751.39
41800
1967.18
51501.8
2275.08
57952.1
2525.55
59283.2
2818.75
60051.5
3375.03
67003.6
4151.33
77507.9
4819.48
83482.9
5113.13
78917.3
5045.75
64231.8
4835.64
42857.9
4456.92
21226.9
3906.98
7459.74
3451.78
3020.34
3210.8
2972.27
3077.07
2139.93
2907.81
-1436.09
2595.47
-7710.17
1966.96
-13634.7
1398.7
-17709.6
1303.2
-20804.5
1532.43
-23510.5
1728.29
-24150.6
1893.01
-22977.5
2412.13
-25219.5
2978.88
-37518.1
3124.86
-50426.8
2605.46
-56289.1
814.52
-63936.3
-94579.9
60.5785
-8771.4
-332.397
-10872.2
-761.307
-14095.7
-1042.79
-15719.4
-1192.58
-15713.1
-1334.7
-15000.1
-1510.36
-14358.1
-1771.72
-13663.2
-2096.24
-13472.7
-2454.56
-13662.7
-2844.52
-14052.3
-3278.48
-14506.9
-3769.56
-14942.7
-4335.01
-15267.7
-4999.51
-15409.7
-5788.6
-15274.8
-6716.83
-14786.1
-7769.49
-13985.4
-8893.45
-13114.6
-10010.2
-12541.3
-11050.5
-12511.9
-11979.3
-13002
-12794.2
-13857.5
-13509.2
-14982.2
-14142.3
-16371.1
-14709.5
-18074.7
-15222
-20172.5
-15685.2
-22756.4
-16104.4
-25946.6
-16501.1
-29981
-16931.4
-35261.5
-17456.1
-42352.4
-18089
-52106.7
-18615.5
-65116.1
-17925.3
-78673.1
-13057.5
-77788
-2276
-31697.8
2484.77
40954.8