/*--------------------------------*- C++ -*----------------------------------*\
| =========                 |                                                 |
| \\      /  F ield         | OpenFOAM: The Open Source CFD Toolbox           |
|  \\    /   O peration     | Version:  4.1                                   |
|   \\  /    A nd           | Web:      www.OpenFOAM.org                      |
|    \\/     M anipulation  |                                                 |
\*---------------------------------------------------------------------------*/
FoamFile
{
    version     2.0;
    format      ascii;
    class       volVectorField;
    location    "13";
    object      U;
}
// * * * * * * * * * * * * * * * * * * * * * * * * * * * * * * * * * * * * * //

dimensions      [0 1 -1 0 0 0 0];

internalField   nonuniform List<vector> 
6785
(
(1.22859e-13 -0.605677 16.1066)
(1.38867e-13 -6.49438 12.4983)
(-4.65572e-14 -4.72954 12.8355)
(6.5938e-14 -4.19219 12.6182)
(2.53058e-14 -3.57762 12.4604)
(-1.734e-14 -3.10205 12.2515)
(6.67441e-14 -2.71267 12.012)
(1.55847e-14 -2.42336 11.7302)
(-2.21639e-14 -2.22803 11.404)
(6.48834e-14 -2.09578 11.0479)
(1.09388e-14 -2.03537 10.6756)
(-3.89074e-14 -2.23412 10.2151)
(5.61207e-14 -2.63165 9.61828)
(-2.63651e-14 -1.84516 9.06548)
(-1.36666e-13 0.924029 6.98493)
(3.14687e-13 -7.38089 26.1792)
(2.1166e-13 -16.5764 21.8458)
(-3.6214e-14 -11.6825 22.3153)
(2.48362e-13 -11.8775 20.9461)
(1.19357e-14 -10.9298 19.9732)
(4.45899e-14 -10.1982 18.9493)
(1.81138e-13 -9.45445 17.9362)
(1.37413e-14 -8.73327 16.9142)
(8.0573e-14 -8.03502 15.8709)
(2.15625e-13 -7.35938 14.8732)
(3.05083e-14 -6.74365 14.0801)
(1.2806e-13 -6.30005 13.2158)
(2.12248e-13 -5.62511 10.9358)
(-1.07209e-13 -3.1196 6.09039)
(-1.70988e-13 1.07302 0.433923)
(1.45117e-13 -10.257 28.2846)
(2.03924e-13 -17.7763 24.4973)
(-5.54515e-14 -12.0299 25.067)
(3.07996e-14 -12.8252 22.9481)
(4.31851e-14 -11.3378 21.82)
(-1.7925e-14 -10.5214 20.4243)
(-3.31834e-14 -9.61707 19.0936)
(5.62396e-14 -8.78017 17.775)
(-1.77753e-14 -8.00369 16.5085)
(-1.17591e-13 -7.28448 15.304)
(3.58447e-14 -6.42232 13.7994)
(-1.0432e-13 -4.69681 10.6152)
(-3.31859e-13 -1.00803 3.98027)
(-1.51473e-13 3.26728 -3.84519)
(-7.1064e-13 2.02792 -4.13038)
(2.34229e-13 -11.2213 27.414)
(9.9379e-14 -17.734 24.2491)
(5.38874e-14 -11.882 24.7384)
(-3.76757e-14 -13.5779 21.9656)
(-5.27005e-14 -11.6045 20.9838)
(7.83525e-14 -11.129 19.2922)
(-1.10639e-13 -10.2205 17.8756)
(-9.66299e-14 -9.49018 16.4213)
(9.69554e-14 -8.79382 15.0514)
(-1.09432e-13 -8.17355 13.7654)
(-1.95192e-13 -7.47233 12.3122)
(-1.78338e-14 -6.10723 9.73042)
(-5.71852e-14 -3.32079 4.80093)
(-9.57015e-13 -0.286947 0.507637)
(-1.41094e-12 1.23178 -4.66148)
(1.51899e-13 -11.3519 25.9183)
(-6.28313e-14 -17.6032 24.6898)
(-4.78677e-14 -12.12 24.3992)
(-1.38301e-13 -13.7775 21.4522)
(-3.02407e-13 -11.7531 20.4985)
(-2.48072e-14 -11.3327 18.7157)
(-1.92646e-13 -10.4364 17.2391)
(-3.93638e-13 -9.66406 15.7332)
(-1.05419e-13 -8.90947 14.2769)
(-2.24837e-13 -8.19103 12.8868)
(-5.20496e-13 -7.46927 11.4852)
(-3.15924e-13 -6.45074 9.65817)
(-2.83986e-13 -4.68281 6.55099)
(-1.09739e-12 -2.11588 3.1292)
(-1.4027e-12 -0.0931373 -1.99582)
(2.70362e-13 -11.1759 24.324)
(1.76425e-14 -17.2592 25.0613)
(4.93959e-14 -12.314 24.1341)
(-1.96682e-13 -13.5009 21.1763)
(-2.65262e-13 -11.5904 20.1952)
(3.91429e-14 -11.114 18.4402)
(-2.351e-13 -10.2111 16.9588)
(-3.22865e-13 -9.37945 15.454)
(-6.73992e-14 -8.56786 13.9711)
(-2.10904e-13 -7.77313 12.5565)
(-3.71043e-13 -7.01369 11.1932)
(-2.06541e-13 -6.13171 9.72331)
(-4.50795e-13 -4.90761 7.51902)
(-5.14443e-13 -2.83499 4.60706)
(9.76521e-13 -0.536584 -1.06822)
(5.19281e-13 -10.9445 23.0309)
(9.27355e-14 -16.7723 24.931)
(2.79936e-13 -12.3906 23.7842)
(-1.58953e-13 -13.1939 20.8378)
(-2.22385e-13 -11.4478 19.8155)
(2.96676e-13 -10.9515 18.1215)
(-1.25942e-13 -10.0945 16.6642)
(-2.75396e-13 -9.29989 15.2361)
(1.59246e-13 -8.5588 13.8638)
(-2.31697e-14 -7.81736 12.5582)
(-1.9282e-13 -7.0958 11.2681)
(1.74279e-13 -6.291 9.95844)
(-1.14775e-13 -5.36652 8.29184)
(-6.28571e-13 -3.78396 6.06832)
(1.12723e-12 -1.6029 1.04598)
(4.13167e-13 -10.8855 22.2896)
(1.0418e-13 -16.1775 24.2448)
(3.06282e-13 -12.1666 23.285)
(-1.51794e-13 -12.9837 20.2872)
(-2.36879e-13 -11.1424 19.3454)
(2.65695e-13 -10.7984 17.5939)
(-3.87595e-14 -9.9295 16.2525)
(-2.1884e-13 -9.30141 14.9508)
(1.66386e-13 -8.7054 13.7121)
(2.02607e-13 -8.10002 12.4966)
(1.97739e-14 -7.5164 11.3388)
(4.88071e-14 -6.8941 10.3024)
(1.08651e-13 -6.21686 9.21691)
(-3.33478e-13 -5.07266 7.75416)
(7.12932e-14 -3.06575 3.61748)
(3.87702e-13 -11.3682 22.4442)
(1.07125e-13 -15.4481 23.6028)
(1.20709e-13 -11.8855 22.8713)
(-1.31504e-13 -12.6686 19.9573)
(-1.55825e-13 -10.6084 19.0713)
(6.15313e-14 -10.3614 17.137)
(-6.79743e-16 -9.20421 15.7209)
(-1.5711e-13 -8.58689 14.1123)
(-1.46693e-13 -8.01018 12.8287)
(1.21098e-13 -7.68488 11.8601)
(-5.73463e-14 -7.48869 11.2914)
(-3.39421e-13 -7.38061 11.0685)
(2.05145e-13 -7.22951 10.9433)
(-1.41384e-13 -6.71115 10.2909)
(-4.97268e-13 -4.83941 7.12535)
(2.6506e-13 -11.9816 22.8605)
(8.68905e-14 -15.0799 23.5421)
(1.25651e-14 -11.8076 22.6116)
(-2.80721e-13 -12.369 20.0218)
(-7.66766e-14 -10.3243 19.0118)
(-9.94712e-14 -9.87638 16.8784)
(-3.02668e-13 -8.20221 14.8724)
(-4.20953e-13 -6.9375 12.2233)
(-8.49698e-13 -5.89861 10.3439)
(-1.07455e-12 -5.6833 9.47294)
(-8.59565e-13 -5.84691 9.43978)
(-7.06774e-13 -6.31065 10.0066)
(-2.06978e-14 -6.77567 10.8457)
(2.85501e-13 -6.97049 11.1896)
(-6.26353e-13 -5.23412 8.6882)
(6.53448e-14 -12.3471 23.3504)
(1.05871e-13 -16.086 25.6508)
(-3.37059e-13 -12.4448 23.7726)
(-2.95612e-13 -12.7699 21.3874)
(-3.0553e-14 -10.7195 20.3119)
(-5.42996e-13 -10.169 18.3948)
(-4.37081e-13 -8.4193 16.442)
(-6.43356e-13 -6.58655 13.2733)
(-1.82166e-12 -4.57179 10.4039)
(-1.80993e-12 -3.87291 9.27271)
(-2.16369e-12 -4.03575 9.60114)
(-2.41004e-12 -5.0884 11.0947)
(-1.52458e-12 -6.5183 12.9354)
(-1.2234e-12 -7.11187 13.4705)
(-6.51791e-13 -4.65763 9.58288)
(3.96667e-14 -10.9737 20.0426)
(2.50851e-13 -16.1845 25.9222)
(-5.45177e-13 -12.6436 23.5997)
(-2.88627e-13 -12.7478 21.1834)
(6.84571e-14 -10.8702 20.3647)
(-8.52705e-13 -10.527 18.6176)
(-4.05087e-13 -8.94454 16.9621)
(-5.09363e-13 -7.3115 14.2217)
(-1.89474e-12 -4.93607 11.0488)
(-2.0955e-12 -3.35544 8.90319)
(-3.05323e-12 -2.34107 7.51686)
(-3.29696e-12 -1.57419 6.21725)
(-2.51155e-12 -0.513581 4.64959)
(-2.15806e-12 1.01989 1.82064)
(-1.10019e-12 1.76167 -1.81949)
(-2.03432e-13 -11.6379 21.3996)
(2.17838e-13 -19.5455 30.8987)
(-2.13368e-13 -18.2369 29.567)
(-4.77384e-13 -17.1271 26.1449)
(-2.79753e-14 -15.4629 24.2044)
(-5.97713e-13 -14.8953 22.7658)
(-6.71197e-13 -14.0464 21.6089)
(-8.76606e-14 -13.1834 20.1063)
(-9.81272e-13 -11.8904 18.1923)
(-1.48173e-12 -10.4788 16.2315)
(-2.0885e-12 -9.15848 14.3834)
(-3.02254e-12 -7.69157 12.643)
(-3.32173e-12 -7.03149 10.7368)
(-2.87638e-12 -3.96566 10.5036)
(-2.38029e-12 3.93608 -12.813)
(-3.78261e-13 -4.14444 5.35773)
(-2.63997e-13 -9.8137 10.3853)
(-2.62996e-13 -15.3551 15.4848)
(-3.82141e-13 -18.5184 17.811)
(-3.03625e-13 -18.6387 17.7115)
(-3.62595e-13 -17.6841 16.6213)
(-4.91851e-13 -16.6423 15.2748)
(-3.58597e-13 -15.6619 13.8639)
(-3.6731e-13 -14.5742 12.3993)
(-4.87766e-13 -13.2957 10.9687)
(-6.17548e-13 -11.7728 9.15235)
(-9.46132e-13 -9.5056 6.9768)
(-1.37885e-12 -7.23251 3.99362)
(-1.82097e-12 -3.8881 1.7987)
(-1.99487e-12 -0.195675 -4.45458)
(-2.37654e-13 0.256172 -8.6689)
(-4.85337e-13 2.86803 -12.1319)
(-3.71857e-13 -3.02967 -1.7356)
(-3.58328e-13 -15.9396 21.2373)
(-5.04114e-13 -22.2533 32.1441)
(-3.90029e-13 -22.2508 33.3682)
(-4.70594e-13 -21.0483 32.0392)
(-6.4136e-13 -20.1589 31.4895)
(-3.5732e-13 -20.6438 32.289)
(-3.13875e-13 -20.9948 32.7497)
(-4.88597e-13 -22.4208 35.669)
(-4.61947e-13 -24.3869 37.8487)
(-7.02758e-13 -23.9021 39.9299)
(-1.41145e-12 -30.0113 41.3853)
(-2.3132e-12 -16.4424 50.5484)
(1.13646e-15 1.17282 -0.107233)
(1.85999e-14 -2.6401 -0.386881)
(2.19363e-14 -1.70741 1.17088)
(2.39192e-14 -1.8129 0.284174)
(2.7106e-14 -1.13958 -0.316516)
(4.13754e-14 -3.21415 0.718703)
(3.26884e-14 -4.19257 0.893065)
(3.17625e-14 -4.03725 0.478405)
(2.53543e-14 -3.35001 0.188832)
(4.01784e-14 -6.86189 2.02895)
(1.05247e-14 -7.15802 1.30794)
(1.33717e-14 -6.00942 1.37569)
(1.73174e-14 -10.3263 3.93705)
(1.35412e-14 -10.2722 2.38191)
(1.43858e-14 -10.4735 2.59002)
(1.47054e-14 -9.37789 2.64724)
(1.94295e-14 -15.6965 5.78886)
(1.3783e-14 -14.2187 3.29199)
(1.19429e-14 -12.9265 3.86163)
(1.48861e-14 -19.5497 7.2973)
(9.72959e-15 -17.9153 4.21511)
(9.11098e-15 -18.7249 4.82778)
(7.83703e-15 -16.8426 4.9886)
(5.46993e-15 -25.191 8.83962)
(2.90728e-15 -22.0982 4.96501)
(1.75077e-15 -23.0414 5.64321)
(6.64102e-16 -21.1587 5.78887)
(5.15304e-15 -31.8908 9.51002)
(-6.96798e-16 -26.4705 5.08178)
(-3.96675e-16 -25.1086 5.91904)
(-2.81087e-15 -35.1793 9.18379)
(-2.57817e-15 -30.0736 4.85585)
(-2.49088e-15 -31.3684 5.54357)
(-3.49577e-15 -28.8502 5.55493)
(-4.81872e-15 -42.0473 8.55821)
(-4.64874e-15 -33.892 4.0841)
(-5.88797e-15 -32.328 4.74928)
(-9.72716e-15 -43.955 6.95227)
(-7.96492e-15 -36.8269 3.14461)
(-9.24167e-15 -38.5979 3.72183)
(-1.00614e-14 -34.9466 3.60244)
(-1.55551e-14 -48.5948 5.46926)
(-1.0884e-14 -39.3941 1.95436)
(-1.11498e-14 -41.1647 2.45304)
(-1.05139e-14 -37.6992 2.38391)
(-1.25886e-14 -53.3393 3.53029)
(-6.98711e-15 -41.6279 0.584417)
(-4.90777e-15 -39.8854 1.07168)
(-3.52746e-15 -52.8465 1.60362)
(1.4733e-15 -43.0592 -0.260696)
(3.32179e-15 -45.0558 0.346129)
(5.74284e-15 -40.6846 0.489559)
(1.02113e-14 -55.5413 1.08341)
(9.97645e-15 -43.8822 -0.401891)
(1.15588e-14 -45.9181 0.30422)
(1.19747e-14 -41.9722 0.654869)
(1.33066e-14 -58.3718 1.15735)
(8.19864e-15 -44.6071 -0.0367835)
(5.38043e-15 -43.0851 0.776979)
(-4.22729e-16 -56.2231 1.34411)
(-9.38191e-15 -44.7999 0.883425)
(-2.04097e-14 -46.9057 2.04601)
(-3.37969e-14 -43.0838 2.88216)
(-6.81533e-14 -59.3309 4.4319)
(-7.28245e-14 -45.0302 3.56937)
(-9.55585e-14 -43.8467 4.72808)
(-1.53019e-13 -56.5632 6.1922)
(-1.33391e-13 -44.9458 4.76902)
(-1.55074e-13 -47.5557 5.31582)
(-1.69454e-13 -43.4372 5.09739)
(-2.34563e-13 -57.8717 5.14358)
(-1.80923e-13 -44.5811 3.30168)
(-1.93922e-13 -47.1148 3.12015)
(-1.99256e-13 -43.4205 2.75473)
(-2.64535e-13 -58.5568 2.13238)
(-2.05953e-13 -43.606 1.96499)
(-2.2789e-13 -43.1061 2.11088)
(-3.12131e-13 -55.3446 1.87527)
(-2.55087e-13 -42.808 2.58715)
(-3.33126e-13 -42.4185 3.65708)
(-6.28921e-13 -44.7465 9.26576)
(-5.368e-13 -42.9121 6.19117)
(-5.21689e-13 -41.911 4.6939)
(-1.02961e-13 -46.4055 -10.1098)
(-4.9155e-13 -38.1901 -0.560124)
(-3.49494e-13 -38.1462 -4.01029)
(-3.52278e-13 -37.5503 -4.11946)
(-3.63448e-13 -36.9322 -4.1302)
(-3.76642e-13 -36.4261 -3.75361)
(-3.83511e-13 -36.2124 -3.29378)
(-3.50202e-13 -35.5958 -2.87299)
(-2.97437e-13 -34.1553 -2.66011)
(-2.41666e-13 -37.9437 -11.8601)
(-3.41051e-13 -31.7687 -3.1058)
(-3.0371e-13 -30.9762 -3.04719)
(-2.71241e-13 -30.567 -2.71222)
(-2.09135e-13 -30.0739 -2.93099)
(-1.93083e-13 -29.6358 -2.7542)
(-1.65091e-13 -29.3162 -2.85922)
(-1.48404e-13 -28.8533 -2.82048)
(-1.50207e-13 -27.7229 -2.87279)
(-1.75737e-13 -30.6525 -12.9634)
(-2.71449e-13 -24.9944 -4.37949)
(-2.83269e-13 -24.2841 -3.89839)
(-3.02358e-13 -23.8657 -2.32209)
(-2.89193e-13 -23.4179 -0.642962)
(-2.58524e-13 -23.0162 1.49508)
(-2.18769e-13 -22.6511 3.79849)
(-2.09718e-13 -22.6444 6.04479)
(-2.14437e-13 -22.3303 7.17884)
(-2.37121e-13 -21.2803 7.26608)
(-2.46475e-13 -24.073 -1.64386)
(-3.21601e-13 -18.2068 5.63337)
(-3.16838e-13 -17.6553 5.48862)
(-3.10225e-13 -17.4479 5.51711)
(-2.82109e-13 -17.0959 5.10732)
(-2.62183e-13 -16.8366 4.95198)
(-2.77986e-13 -16.7641 5.44927)
(-2.95697e-13 -16.4979 7.29767)
(-3.27387e-13 -15.5634 10.1356)
(-2.90254e-13 -18.7562 5.31875)
(-3.70106e-13 -12.6636 11.6265)
(-3.24907e-13 -11.9659 12.973)
(-3.37449e-13 -11.9146 14.886)
(-3.58174e-13 -11.5361 15.7875)
(-3.45891e-13 -11.501 16.8907)
(-3.21245e-13 -11.3651 17.938)
(-2.74333e-13 -11.3385 18.3801)
(-2.17262e-13 -9.92783 17.4988)
(-1.79663e-13 -13.2402 6.46302)
(-2.72128e-13 -6.36799 17.7041)
(-2.77257e-13 -5.03246 16.2254)
(-2.94458e-13 -5.94351 16.7195)
(-3.28297e-13 -4.89748 17.8485)
(-3.44715e-13 -5.15588 18.533)
(-3.48436e-13 -4.77962 19.017)
(-3.48618e-13 -5.51076 19.5065)
(-3.69734e-13 -2.26351 23.7579)
(-2.08261e-13 -11.3803 12.4334)
(-2.61863e-13 -1.49431 16.3498)
(-2.58005e-13 0.456322 15.1143)
(-2.54037e-13 -0.609539 14.5264)
(-2.4867e-13 -0.301723 14.2097)
(-2.6009e-13 -0.480824 14.4178)
(-2.46829e-13 -0.333358 11.2074)
(-2.41031e-13 -0.764979 11.3165)
(-2.39811e-13 -1.46217 11.2206)
(-2.52088e-13 0.169828 12.9284)
(-1.28347e-13 -6.64401 11.0025)
(-2.19281e-13 0.825579 9.45637)
(-2.43249e-13 1.35226 8.24552)
(-2.51063e-13 -0.223256 8.7713)
(-2.51397e-13 -0.174157 9.56041)
(-2.47655e-13 -0.403994 10.6851)
(-2.25401e-13 -1.16206 12.0148)
(-1.98909e-13 -1.64047 10.4802)
(-2.0971e-13 -1.65651 10.2797)
(-2.35523e-13 -8.35473 13.7256)
(-2.263e-13 0.324596 10.9724)
(-2.29332e-13 -0.54392 10.8569)
(-1.73239e-13 -8.69556 11.8334)
(-1.26331e-13 6.31213 17.5248)
(-1.3524e-13 3.55079 14.0856)
(-9.67327e-14 1.2706 10.0997)
(-1.29229e-13 1.48365 5.07197)
(-9.41424e-14 4.99166 4.03218)
(-1.0515e-13 6.47091 -1.22538)
(-1.01287e-13 13.597 -9.77194)
(-7.94804e-14 15.5589 -6.03392)
(-8.05804e-14 17.186 -11.6753)
(-7.91593e-14 28.8044 -19.1673)
(-5.47593e-14 25.5245 -11.7319)
(-6.808e-14 39.7077 -19.8817)
(-5.19533e-14 34.326 -12.9603)
(-6.46301e-14 40.4066 -18.0362)
(-7.46561e-14 55.5133 -22.2594)
(-5.25396e-14 44.9645 -13.1885)
(-7.43502e-14 68.3174 -19.3587)
(-5.72482e-14 54.9673 -12.0016)
(-6.93693e-14 64.7399 -15.6377)
(-8.32226e-14 78.3049 -16.6908)
(-6.19283e-14 64.8429 -9.01819)
(-7.53786e-14 79.9371 -11.4039)
(-1.01947e-13 94.8602 -10.6719)
(-7.3452e-14 70.838 -5.31159)
(-1.08922e-13 105.627 -6.75568)
(-8.78973e-14 81.3208 -2.69829)
(-1.13904e-13 92.4394 -3.43855)
(-1.55099e-13 109.171 -0.351336)
(-1.12163e-13 81.2291 1.52054)
(-1.70303e-13 119.439 3.2022)
(-1.36437e-13 89.9212 4.47059)
(-1.7622e-13 102.614 5.50669)
(-2.37282e-13 115.195 10.4201)
(-1.76105e-13 89.1795 9.24686)
(-2.2402e-13 109.327 11.6025)
(-2.94194e-13 121.861 17.2633)
(-2.06258e-13 86.9157 12.6155)
(-2.98889e-13 126.407 17.6259)
(-2.2741e-13 93.6214 13.8365)
(-2.86738e-13 105.253 16.4581)
(-3.53034e-13 117.954 21.0697)
(-2.41185e-13 85.1385 14.3925)
(-3.42744e-13 123.272 18.8993)
(-2.55994e-13 90.274 13.9917)
(-3.18547e-13 102.284 15.9252)
(-3.88524e-13 110.667 18.8791)
(-2.70987e-13 83.6444 12.995)
(-3.3289e-13 102.948 14.7081)
(-4.00916e-13 111.225 17.1346)
(-2.69936e-13 77.9793 11.0484)
(-3.74081e-13 113.651 13.4458)
(-2.74417e-13 83.066 9.44245)
(-3.36583e-13 93.756 10.1325)
(-4.00932e-13 103.45 11.4257)
(-2.67259e-13 73.8698 7.16184)
(-3.66445e-13 108.435 8.16881)
(-2.6495e-13 78.8494 5.57794)
(-3.22979e-13 90.1291 5.34361)
(-3.73942e-13 97.1061 5.64585)
(-2.52298e-13 73.1123 3.61516)
(-3.03763e-13 91.2851 3.22979)
(-3.49597e-13 98.9129 3.31898)
(-2.28348e-13 69.0338 1.77544)
(-3.0911e-13 102.789 0.83642)
(-2.20495e-13 75.2196 0.280703)
(-2.66346e-13 85.7527 -0.953811)
(-3.09776e-13 95.7584 -1.6121)
(-2.0194e-13 68.3855 -1.43142)
(-2.74146e-13 102.481 -3.45335)
(-1.94838e-13 74.8785 -2.73572)
(-2.36502e-13 86.5311 -4.70686)
(-2.71809e-13 94.4845 -5.96789)
(-1.81144e-13 71.6876 -4.13004)
(-2.19508e-13 90.3885 -6.09005)
(-2.57346e-13 99.602 -7.38122)
(-1.67228e-13 69.8096 -5.12301)
(-2.31387e-13 106.131 -8.53795)
(-1.62191e-13 77.3583 -6.09326)
(-2.15792e-13 92.6673 -10.0028)
(2.70923e-20 20.0107 12.4126)
(1.16411e-20 22.9646 13.337)
(2.12411e-21 22.2443 11.9151)
(-6.60138e-22 22.1376 11.3503)
(-1.6703e-22 21.3788 10.6482)
(9.40689e-23 21.1164 10.5592)
(-2.26976e-23 20.9608 10.5822)
(5.07117e-24 21.2143 10.8106)
(-9.65951e-24 21.7727 11.0676)
(-4.66859e-23 22.7666 11.3803)
(-6.57448e-23 24.0905 11.7196)
(4.13642e-22 25.6756 12.1759)
(3.45026e-21 27.4147 12.8635)
(1.4519e-20 29.2561 13.926)
(2.78771e-20 31.1116 15.4403)
(-1.43687e-19 32.9161 17.4039)
(-1.77856e-18 34.6354 19.7675)
(-1.03698e-17 36.1881 22.5299)
(-4.32502e-17 37.4617 25.804)
(-1.42829e-16 38.324 29.7351)
(-3.8727e-16 38.743 34.3842)
(-8.68134e-16 38.8775 39.6524)
(-1.60825e-15 38.9658 45.2383)
(-2.48952e-15 39.135 50.6532)
(-3.32128e-15 39.5211 55.4569)
(-3.99781e-15 40.6459 59.7979)
(-4.51174e-15 43.203 64.5786)
(-4.78212e-15 47.2216 70.539)
(-4.60525e-15 51.5865 77.0527)
(-3.96695e-15 55.2028 82.1699)
(-3.19389e-15 59.0409 85.0213)
(-2.41694e-15 63.5647 85.7404)
(-1.77542e-15 62.7857 80.35)
(-1.94757e-15 40.8046 57.3205)
(-3.93896e-15 -11.2959 6.14735)
(-4.97246e-15 -35.9322 -1.26305)
(-5.51603e-15 -47.3112 -0.691173)
(-5.57299e-15 -58.032 -1.55949)
(-5.02448e-15 -69.3589 -3.09946)
(-3.99631e-15 -74.4201 -5.64301)
(-2.56156e-15 -75.8122 -5.92507)
(-1.37963e-15 -76.9217 -7.03175)
(-3.92521e-16 -77.0831 -7.31869)
(-1.06467e-17 -83.0715 -8.60036)
(2.76956e-17 -91.5832 -11.4546)
(-1.99137e-17 -90.6488 -14.9858)
(-9.27423e-17 -73.0361 -16.2501)
(-9.92929e-17 -50.6376 -14.182)
(-4.24169e-17 -44.4784 -12.3993)
(-5.12527e-18 -58.2441 -13.0194)
(3.95682e-19 -73.9366 -14.2681)
(-8.54578e-19 -82.7681 -15.8694)
(-1.49775e-18 -83.1854 -17.0727)
(-1.32401e-18 -86.7466 -18.3109)
(-7.69133e-19 -102.181 -21.4797)
(-3.01805e-19 -118.405 -25.5938)
(-5.22364e-20 -121.843 -28.9659)
(4.71258e-20 -107.684 -30.2304)
(7.35341e-20 -81.2814 -29.3949)
(7.39457e-20 -52.1013 -27.4289)
(7.74832e-20 -24.044 -26.8348)
(7.26391e-20 0.405095 -26.1934)
(3.98578e-20 12.1375 -21.289)
(1.50038e-20 7.77239 -15.4853)
(-1.04961e-20 1.6863 -11.924)
(2.26101e-20 3.82705 -11.4247)
(1.97301e-19 12.7969 -11.0921)
(-6.7907e-19 22.8827 -8.79151)
(-4.64138e-18 30.7819 -6.64336)
(4.53901e-18 36.191 -1.15706)
(-1.60752e-16 35.7318 6.28007)
(-2.70008e-17 27.4643 1.54402)
(7.65196e-16 16.2447 -5.73454)
(2.21058e-15 14.0463 -16.2814)
(-6.06785e-17 42.0549 -26.697)
(-8.28615e-15 75.7731 -21.1149)
(-3.71836e-14 96.6561 -11.2077)
(-6.85375e-14 116.755 -2.98583)
(-2.15935e-13 136.941 -2.44147)
(3.38053e-20 19.8157 11.3483)
(1.73137e-20 23.0205 13.2779)
(4.26364e-21 22.5425 11.8916)
(-6.37912e-22 22.3315 11.4251)
(-3.47766e-22 21.496 10.6835)
(1.34116e-22 21.1199 10.6201)
(-2.75591e-23 20.9109 10.6625)
(6.30831e-24 21.1256 10.9592)
(-1.47851e-23 21.6683 11.2929)
(-7.79748e-23 22.6482 11.7089)
(-1.08643e-22 23.9496 12.1682)
(7.81464e-22 25.4814 12.7718)
(6.24434e-21 27.1274 13.6393)
(2.41497e-20 28.8421 14.9123)
(3.26099e-20 30.5605 16.6402)
(-3.26575e-19 32.2365 18.7913)
(-3.23123e-18 33.8344 21.3276)
(-1.73337e-17 35.2466 24.2957)
(-6.76427e-17 36.3382 27.8487)
(-2.08737e-16 36.9872 32.1183)
(-5.2793e-16 37.2007 37.0988)
(-1.10952e-15 37.1923 42.6144)
(-1.94965e-15 37.2572 48.3365)
(-2.9013e-15 37.5451 53.8329)
(-3.75138e-15 38.1017 58.7314)
(-4.36396e-15 39.2431 63.1331)
(-4.70556e-15 41.5554 67.836)
(-4.7219e-15 45.2875 73.6785)
(-4.28811e-15 49.7585 80.3795)
(-3.47323e-15 53.9438 85.9615)
(-2.65567e-15 58.4671 89.0779)
(-1.89704e-15 64.1874 90.2435)
(-1.23922e-15 66.7384 86.4807)
(-1.27717e-15 50.8133 67.1802)
(-3.2591e-15 -1.33822 17.1331)
(-4.99888e-15 -37.1389 -2.59047)
(-5.51486e-15 -48.0929 -0.476233)
(-5.57379e-15 -58.6618 -1.62696)
(-5.02898e-15 -69.638 -2.98883)
(-4.00602e-15 -74.6396 -5.44217)
(-2.57508e-15 -75.9915 -5.73242)
(-1.39055e-15 -76.9447 -6.85001)
(-4.01373e-16 -76.9455 -7.18671)
(-1.26348e-17 -82.5796 -8.5057)
(2.8563e-17 -90.8335 -11.3545)
(-1.85519e-17 -90.0786 -14.8626)
(-9.15443e-17 -73.0252 -16.1466)
(-1.00031e-16 -50.7821 -14.1102)
(-4.45187e-17 -43.9978 -12.2757)
(-5.77291e-18 -57.3426 -12.9552)
(4.69504e-19 -73.1182 -14.2964)
(-7.92895e-19 -82.0927 -15.8987)
(-1.4899e-18 -82.6006 -17.0659)
(-1.33537e-18 -85.8853 -18.2379)
(-7.83871e-19 -101.007 -21.426)
(-3.11137e-19 -117.357 -25.613)
(-5.63043e-20 -121.319 -29.0364)
(4.58438e-20 -107.82 -30.3153)
(7.34617e-20 -81.8981 -29.4538)
(7.41767e-20 -52.7317 -27.3902)
(7.75729e-20 -24.4596 -26.5736)
(6.22843e-20 -0.202423 -24.7146)
(2.8939e-20 10.3811 -19.5342)
(8.59677e-21 5.96577 -14.0741)
(-1.03393e-20 0.855457 -11.4701)
(1.45941e-20 3.69926 -11.4628)
(2.69467e-19 12.4198 -10.9838)
(-1.88015e-19 22.2277 -9.08053)
(-7.45151e-18 29.6496 -7.57494)
(2.25999e-17 34.1967 -4.20424)
(-1.71365e-16 35.1908 3.95106)
(-1.20387e-16 29.1588 3.13446)
(8.319e-16 18.7163 -3.58248)
(1.9296e-15 16.9843 -16.1081)
(-6.90669e-16 42.7684 -25.6786)
(-7.17919e-15 73.4201 -20.8405)
(-3.23776e-14 93.8851 -11.9889)
(-6.33694e-14 115.233 -3.05066)
(-2.16755e-13 138.2 -0.506241)
(3.72042e-20 19.5705 10.4917)
(2.13768e-20 22.9129 13.0584)
(6.39338e-21 22.6673 11.7999)
(-3.70539e-22 22.4241 11.421)
(-5.20452e-22 21.5593 10.683)
(1.52044e-22 21.1237 10.6433)
(-2.58665e-23 20.8838 10.6975)
(6.39475e-24 21.0743 11.037)
(-2.21928e-23 21.6059 11.4175)
(-1.20901e-22 22.5735 11.8988)
(-1.46106e-22 23.8561 12.4399)
(1.43543e-21 25.3506 13.1479)
(1.04291e-20 26.9387 14.1377)
(3.55228e-20 28.5838 15.5379)
(1.87197e-20 30.2357 17.3769)
(-6.59817e-19 31.8513 19.6177)
(-5.30291e-18 33.3828 22.2494)
(-2.58925e-17 34.7062 25.3522)
(-9.4124e-17 35.6863 29.0856)
(-2.72241e-16 36.2221 33.5505)
(-6.47332e-16 36.349 38.691)
(-1.28682e-15 36.3027 44.2925)
(-2.16051e-15 36.3865 50.0315)
(-3.10789e-15 36.7432 55.5334)
(-3.92156e-15 37.3812 60.4849)
(-4.47064e-15 38.5433 64.9633)
(-4.7165e-15 40.7589 69.6701)
(-4.61159e-15 44.331 75.4059)
(-4.06928e-15 48.7916 82.0381)
(-3.19866e-15 53.242 87.7917)
(-2.39345e-15 58.0999 91.0677)
(-1.67918e-15 64.2663 92.4366)
(-1.03217e-15 68.2062 89.6005)
(-9.34741e-16 55.9971 73.4974)
(-2.66371e-15 8.67789 28.838)
(-5.09605e-15 -34.8284 -4.98257)
(-5.51804e-15 -47.9413 -0.431117)
(-5.57468e-15 -58.2459 -1.68905)
(-5.0345e-15 -69.0398 -2.83123)
(-4.01768e-15 -74.203 -5.17257)
(-2.59128e-15 -75.7459 -5.46975)
(-1.40372e-15 -76.7318 -6.59083)
(-4.12099e-16 -76.7356 -6.97989)
(-1.51553e-17 -82.0972 -8.33337)
(2.96023e-17 -90.0994 -11.1875)
(-1.68669e-17 -89.5276 -14.7033)
(-9.01665e-17 -73.1294 -16.0449)
(-1.00855e-16 -51.3206 -14.0723)
(-4.70003e-17 -44.3239 -12.175)
(-6.60396e-18 -57.2767 -12.8795)
(5.49377e-19 -72.8989 -14.3087)
(-7.12492e-19 -81.8591 -15.9195)
(-1.47862e-18 -82.4098 -17.0622)
(-1.34913e-18 -85.4736 -18.1383)
(-8.02199e-19 -100.242 -21.3418)
(-3.22951e-19 -116.528 -25.6221)
(-6.15129e-20 -120.771 -29.123)
(4.41877e-20 -107.704 -30.4325)
(7.33483e-20 -82.1099 -29.5449)
(7.45219e-20 -52.9058 -27.4022)
(7.6694e-20 -24.6712 -26.2829)
(6.143e-20 -0.934233 -24.7405)
(2.85827e-20 9.80835 -19.7492)
(6.87228e-21 5.91072 -14.0994)
(-9.69911e-21 0.92972 -11.6665)
(1.32013e-21 3.68208 -11.6181)
(2.94334e-19 12.2425 -11.1261)
(4.77183e-19 22.0453 -9.55583)
(-8.9652e-18 29.5001 -8.26637)
(3.28283e-17 33.489 -5.93314)
(-1.26971e-16 34.2754 0.700459)
(-2.33301e-16 29.419 2.64782)
(7.97655e-16 20.5886 -2.71129)
(1.65353e-15 18.9902 -15.1368)
(-1.14905e-15 43.2381 -24.5586)
(-6.72431e-15 72.5295 -20.4697)
(-2.94435e-14 92.5347 -12.4569)
(-5.93897e-14 114.179 -3.21279)
(-2.15434e-13 138.488 0.409489)
(4.06362e-20 19.2465 9.46495)
(2.59265e-20 22.7729 12.7423)
(9.1118e-21 22.8261 11.6658)
(1.32404e-22 22.5462 11.3932)
(-7.2354e-22 21.6378 10.6665)
(1.58256e-22 21.1216 10.6572)
(-1.94728e-23 20.8372 10.7255)
(5.88962e-24 20.993 11.1149)
(-3.32877e-23 21.5075 11.5512)
(-1.84705e-22 22.4573 12.1103)
(-1.81901e-22 23.7144 12.7502)
(2.55518e-21 25.1606 13.5831)
(1.69285e-20 26.6748 14.7147)
(5.00722e-20 28.2302 16.2587)
(-2.25781e-20 29.7928 18.2259)
(-1.22866e-18 31.3225 20.5788)
(-8.44987e-18 32.7591 23.3359)
(-3.79461e-17 33.9622 26.6067)
(-1.29234e-16 34.7957 30.5527)
(-3.52143e-16 35.1817 35.2438)
(-7.9066e-16 35.188 40.5717)
(-1.4908e-15 35.0773 46.2819)
(-2.39383e-15 35.1686 52.0576)
(-3.32769e-15 35.6051 57.5855)
(-4.09429e-15 36.3512 62.6091)
(-4.57088e-15 37.5432 67.1696)
(-4.71638e-15 39.6281 71.8617)
(-4.49028e-15 42.9924 77.4592)
(-3.83711e-15 47.4477 84.0023)
(-2.89698e-15 52.2556 89.9713)
(-2.09303e-15 57.5856 93.4828)
(-1.42496e-15 64.3955 95.1095)
(-8.04833e-16 70.1323 93.149)
(-6.03567e-16 62.2858 79.7441)
(-2.12749e-15 20.1818 38.568)
(-5.26781e-15 -30.7219 -8.30747)
(-5.53511e-15 -47.9804 -1.16643)
(-5.57513e-15 -57.8302 -1.73599)
(-5.0402e-15 -68.4787 -2.66232)
(-4.02938e-15 -73.7886 -4.86792)
(-2.60745e-15 -75.4962 -5.16679)
(-1.41698e-15 -76.5218 -6.28492)
(-4.22952e-16 -76.5398 -6.72486)
(-1.7847e-17 -81.6886 -8.10847)
(3.06386e-17 -89.4857 -10.9663)
(-1.51214e-17 -89.0586 -14.5046)
(-8.82613e-17 -73.2046 -15.9375)
(-1.01589e-16 -51.7768 -14.085)
(-4.94761e-17 -44.61 -12.148)
(-7.50917e-18 -57.2433 -12.8189)
(6.17424e-19 -72.7375 -14.2987)
(-6.23674e-19 -81.6951 -15.9198)
(-1.4647e-18 -82.2888 -17.0641)
(-1.36315e-18 -85.1665 -18.0382)
(-8.2152e-19 -99.6022 -21.245)
(-3.35654e-19 -115.817 -25.6103)
(-6.71892e-20 -120.3 -29.1947)
(4.23639e-20 -107.623 -30.5537)
(7.31956e-20 -82.3523 -29.6679)
(7.49593e-20 -53.2029 -27.4881)
(7.54671e-20 -24.9232 -26.1142)
(6.02469e-20 -1.62853 -24.9658)
(2.80555e-20 8.3527 -20.0354)
(6.19377e-21 4.68149 -14.2902)
(-8.70131e-21 0.569182 -11.9285)
(-1.50745e-20 3.61909 -11.8646)
(2.80167e-19 12.0259 -11.3436)
(1.05076e-18 21.7253 -10.0935)
(-9.75964e-18 29.0702 -9.05838)
(3.48427e-17 32.605 -7.29613)
(-7.54363e-17 33.4347 -2.37882)
(-3.30735e-16 29.7059 0.890904)
(6.88608e-16 22.4333 -3.4303)
(1.32223e-15 21.2044 -14.9036)
(-1.63503e-15 43.7748 -23.6353)
(-6.21549e-15 71.2211 -20.1418)
(-2.61698e-14 90.6923 -12.9853)
(-5.48451e-14 112.828 -3.38906)
(-2.14078e-13 138.976 0.19939)
(4.3185e-20 18.8407 8.34681)
(3.0271e-20 22.5249 12.2954)
(1.22664e-20 22.9265 11.4732)
(9.62097e-22 22.642 11.3259)
(-9.28496e-22 21.7031 10.6285)
(1.3964e-22 21.1156 10.6566)
(-5.66824e-24 20.7881 10.7382)
(4.41808e-24 20.9077 11.1777)
(-4.98482e-23 21.4029 11.6704)
(-2.7684e-22 22.3308 12.3093)
(-1.96159e-22 23.558 13.0539)
(4.42018e-21 24.9538 14.019)
(2.66762e-20 26.3972 15.295)
(6.68124e-20 27.872 16.9765)
(-1.15636e-19 29.3578 19.0622)
(-2.16379e-18 30.811 21.5227)
(-1.31018e-17 32.1552 24.4105)
(-5.44249e-17 33.2373 27.8582)
(-1.74049e-16 33.9291 32.0194)
(-4.47661e-16 34.1822 36.9278)
(-9.50855e-16 34.0974 42.424)
(-1.70228e-15 33.9543 48.2202)
(-2.61359e-15 34.0705 54.016)
(-3.50659e-15 34.5789 59.564)
(-4.20155e-15 35.4153 64.6654)
(-4.59433e-15 36.6459 69.3219)
(-4.64968e-15 38.6457 74.0073)
(-4.33317e-15 41.8329 79.4334)
(-3.60856e-15 46.232 85.7863)
(-2.62561e-15 51.3131 91.8954)
(-1.82892e-15 57.0555 95.6755)
(-1.21475e-15 64.3544 97.5489)
(-6.36906e-16 71.4733 96.3619)
(-3.56904e-16 67.5377 85.4386)
(-1.63104e-15 31.1401 47.7332)
(-5.4217e-15 -25.1066 -11.8994)
(-5.55998e-15 -48.6424 -2.90811)
(-5.5751e-15 -57.8388 -1.72289)
(-5.04577e-15 -68.2157 -2.48239)
(-4.04056e-15 -73.5842 -4.51385)
(-2.62276e-15 -75.3749 -4.80524)
(-1.42963e-15 -76.3836 -5.91853)
(-4.33406e-16 -76.3666 -6.41206)
(-2.05945e-17 -81.2871 -7.83061)
(3.16235e-17 -88.8772 -10.6913)
(-1.34101e-17 -88.5783 -14.2582)
(-8.62449e-17 -73.2257 -15.805)
(-1.0219e-16 -52.1189 -14.119)
(-5.18612e-17 -44.706 -12.1723)
(-8.45772e-18 -57.0033 -12.7743)
(6.68495e-19 -72.4207 -14.2752)
(-5.29546e-19 -81.4185 -15.9059)
(-1.44817e-18 -82.0878 -17.0673)
(-1.37686e-18 -84.7594 -17.9407)
(-8.41217e-19 -98.8514 -21.1424)
(-3.48888e-19 -115.03 -25.5918)
(-7.31863e-20 -119.815 -29.2666)
(4.04165e-20 -107.592 -30.688)
(7.30007e-20 -82.6826 -29.8208)
(7.54596e-20 -53.5973 -27.6189)
(7.47283e-20 -25.189 -26.1509)
(5.91187e-20 -2.07873 -25.1567)
(2.73422e-20 7.55438 -20.3089)
(5.76984e-21 4.07491 -14.6999)
(-7.32573e-21 0.352018 -12.3538)
(-3.1233e-20 3.56293 -12.1672)
(2.33809e-19 11.8768 -11.6255)
(1.49722e-18 21.5506 -10.6963)
(-9.73964e-18 28.8695 -9.8938)
(3.16998e-17 32.0916 -8.31825)
(-3.25473e-17 32.6329 -4.94515)
(-3.79993e-16 29.7063 -1.5967)
(5.20959e-16 23.7884 -4.8903)
(1.02821e-15 22.9984 -14.8113)
(-2.12202e-15 44.3044 -22.7534)
(-5.86371e-15 70.284 -19.783)
(-2.30705e-14 89.0989 -13.5098)
(-5.00475e-14 111.42 -3.62278)
(-2.12121e-13 139.222 1.89012)
(4.49371e-20 18.3677 7.15919)
(3.41665e-20 22.1954 11.7243)
(1.57004e-20 22.9911 11.2199)
(2.16011e-21 22.727 11.2196)
(-1.09957e-21 21.7624 10.567)
(8.58694e-23 21.1045 10.6413)
(1.70758e-23 20.7309 10.7367)
(1.82719e-24 20.8095 11.2278)
(-7.44274e-23 21.2817 11.7806)
(-4.06278e-22 22.1828 12.5046)
(-1.50952e-22 23.3743 13.3622)
(7.43649e-21 24.7154 14.4685)
(4.07863e-20 26.0866 15.8927)
(8.29846e-20 27.4815 17.708)
(-2.98205e-19 28.8898 19.9092)
(-3.64656e-18 30.2607 22.4834)
(-1.98192e-17 31.5018 25.5161)
(-7.65344e-17 32.4517 29.1551)
(-2.30301e-16 32.9951 33.5383)
(-5.6016e-16 33.1163 38.6626)
(-1.12783e-15 32.9474 44.3207)
(-1.92019e-15 32.7797 50.1972)
(-2.82081e-15 32.922 56.0146)
(-3.651e-15 33.4965 61.5906)
(-4.25541e-15 34.4187 66.7799)
(-4.55465e-15 35.6963 71.5407)
(-4.52639e-15 37.6319 76.2206)
(-4.14466e-15 40.6575 81.4489)
(-3.38343e-15 44.9792 87.5293)
(-2.38044e-15 50.299 93.6887)
(-1.58862e-15 56.4575 97.7774)
(-1.02794e-15 64.2371 99.9175)
(-5.01646e-16 72.6076 99.4374)
(-1.77574e-16 72.2884 90.7214)
(-1.16821e-15 41.1954 56.8187)
(-5.33439e-15 -19.8301 -14.1096)
(-5.56747e-15 -49.7686 -5.36208)
(-5.57852e-15 -58.0841 -1.65193)
(-5.05123e-15 -68.0102 -2.28119)
(-4.05097e-15 -73.4079 -4.10412)
(-2.63681e-15 -75.2595 -4.37544)
(-1.44136e-15 -76.2389 -5.48405)
(-4.43206e-16 -76.1747 -6.033)
(-2.33317e-17 -80.8589 -7.49314)
(3.25351e-17 -88.2323 -10.3609)
(-1.17141e-17 -88.0572 -13.9667)
(-8.42194e-17 -73.2147 -15.6475)
(-1.02656e-16 -52.4569 -14.1635)
(-5.41352e-17 -44.8149 -12.2291)
(-9.43508e-18 -56.7515 -12.7387)
(7.00957e-19 -72.0769 -14.2389)
(-4.31768e-19 -81.1132 -15.8791)
(-1.42897e-18 -81.8701 -17.0654)
(-1.39008e-18 -84.3302 -17.8562)
(-8.61138e-19 -98.0558 -21.0336)
(-3.62595e-19 -114.191 -25.5711)
(-7.94847e-20 -119.294 -29.3459)
(3.83511e-20 -107.54 -30.8405)
(7.27598e-20 -82.9981 -30.0033)
(7.60185e-20 -53.9648 -27.7872)
(7.45397e-20 -25.4321 -26.3923)
(5.80638e-20 -2.76018 -25.4476)
(2.66205e-20 6.33097 -20.5716)
(5.42174e-21 3.22195 -15.0881)
(-5.57599e-21 0.0895069 -12.8153)
(-4.56019e-20 3.47465 -12.533)
(1.68211e-19 11.7373 -11.9832)