/*--------------------------------*- C++ -*----------------------------------*\
| =========                 |                                                 |
| \\      /  F ield         | OpenFOAM: The Open Source CFD Toolbox           |
|  \\    /   O peration     | Version:  4.1                                   |
|   \\  /    A nd           | Web:      www.OpenFOAM.org                      |
|    \\/     M anipulation  |                                                 |
\*---------------------------------------------------------------------------*/
FoamFile
{
    version     2.0;
    format      ascii;
    class       volScalarField;
    location    "20";
    object      p;
}
// * * * * * * * * * * * * * * * * * * * * * * * * * * * * * * * * * * * * * //

dimensions      [0 2 -2 0 0 0 0];

internalField   nonuniform List<scalar> 
225
(
1222.08
1168.75
1116.86
1066.5
1020.08
978.616
941.296
906.019
871.163
837.35
806.806
779.557
750.317
715.078
687.678
741.323
716.668
688.995
697.331
727.957
741.85
726.494
701.24
691.304
700.921
713.958
711.9
705.639
711.039
712.068
691.875
701.255
732.709
756.74
733.265
687.232
669.926
691.251
719.929
724.369
708.148
695.953
704.635
713.817
704.106
699.397
687.631
681.631
676.317
677.801
673.4
670.029
659.093
656.399
669.488
676.577
662.279
647.653
650.703
651.184
693.382
677.404
665.334
641.989
634.357
663.392
677.321
661.11
642.653
639.512
651.993
656.686
661.941
656.777
667.416
640.507
652.229
677.08
700.558
679.414
662.137
683.334
700.895
680.653
664.107
648.764
652.003
735.889
743.6
714.199
674.091
694.462
701.219
656.453
634.926
655.028
675.516
686.743
701.393
719.703
757.419
789.483
772.847
741.212
718.224
670.459
652.753
666.193
693.618
716.03
717.733
714.664
724.774
730.119
714.447
701.388
687.579
634.52
571.522
570.656
722.644
714.674
715.871
675.846
604.908
563.072
571.619
582.349
567.966
517.062
464.823
447.981
459.859
459.16
473.311
426.792
417.284
427.91
404.932
385.837
394.857
411.479
414.549
393.872
360.126
354.604
394.049
447.899
482.548
500.427
447.216
452.718
505.664
585.597
651.733
679.19
677.561
685.939
724.205
782.817
816.629
788.259
757.814
820.796
872.302
917.268
865.639
856.507
873.212
894.316
922.03
919.967
888.586
872.052
886.155
921.543
930.906
889.138
893.557
944.846
672.228
631.967
659.285
684.425
694.833
695.261
669.858
574.907
446.753
405.342
422.133
438.705
476.325
547.488
585.865
808.564
667.807
677.358
628.518
538.316
424.231
289.073
161.748
47.9319
-70.6502
-147.954
-114.613
-64.9297
-14.9224
105.989
-2057.93
-1317.23
-1222.05
-1275.23
-879.428
-923.684
-1017.58
-1109.86
-1173.26
-1207.48
-1018.17
-749.528
-548.847
-713.913
-744.498
)
;

boundaryField
{
    inletFace
    {
        type            zeroGradient;
    }
    inlet
    {
        type            zeroGradient;
    }
    inletWalls
    {
        type            zeroGradient;
    }
    outletInlet
    {
        type            fixedValue;
        value           uniform 0;
    }
}


// ************************************************************************* //
