/*--------------------------------*- C++ -*----------------------------------*\
| =========                 |                                                 |
| \\      /  F ield         | OpenFOAM: The Open Source CFD Toolbox           |
|  \\    /   O peration     | Version:  4.1                                   |
|   \\  /    A nd           | Web:      www.OpenFOAM.org                      |
|    \\/     M anipulation  |                                                 |
\*---------------------------------------------------------------------------*/
FoamFile
{
    version     2.0;
    format      ascii;
    class       surfaceScalarField;
    location    "20";
    object      phi;
}
// * * * * * * * * * * * * * * * * * * * * * * * * * * * * * * * * * * * * * //

dimensions      [0 3 -1 0 0 0 0];

internalField   nonuniform List<scalar> 
420
(
-966.527
2266.46
-1550.53
1884.24
-2030.65
1780.05
-2486.59
1755.87
-2858.05
1671.69
-3067.46
1509.34
-3117.73
1350.21
-3062.25
1244.74
-2975.96
1213.63
-2865.52
1189.49
-2650.75
1085.45
-2278.22
927.397
-1772.22
793.934
-1135.79
663.806
164.114
428.035
1838.62
474.513
1837.99
466.798
1788
469.142
1753.76
563.827
1577.24
698.619
1374.78
754.824
1294.23
680.32
1319.45
611.897
1282.26
624.202
1177.38
667.912
1041.88
634.481
961.082
455.38
973.308
252.947
866.539
417.07
-58.5905
1897.38
-199.97
1979.55
-486.522
2074.71
-550.915
1818.34
-277.531
1304.11
73.4341
1024.1
77.156
1290.77
-162.205
1559.04
-383.258
1503.55
-409.291
1203.75
-279.261
912.126
-164.37
846.875
-70.6763
880.441
190.907
605.763
607.976
95.9119
1801.58
130.637
1944.95
212.719
1992.76
248.861
1782.34
-48.6866
1601.81
-496.355
1471.94
-707.898
1502.44
-657.406
1508.69
-570.421
1416.71
-638.701
1272.13
-825.227
1098.79
-947.244
968.801
-884.312
817.433
-572.543
293.914
35.4361
586.7
1214.9
1122.31
1409.35
1227.33
1887.76
1057.23
1952.46
788.286
1870.77
415.58
1844.66
80.3293
1837.71
-55.7037
1644.71
-69.2737
1430.28
-123.156
1326.03
-276.489
1252.01
-711.862
1404.46
-1199.77
1305.58
-1237.55
331.939
-1202.12
437.731
777.186
903.952
943.136
1315.58
1476.14
1559.48
1708.53
1620.64
1809.57
1551.35
1913.92
1451.85
1937.14
1328.18
1768.33
1241.34
1517.05
1172.52
1394.71
1012.35
1412.18
699.645
1716.66
419.51
1585.08
420.368
330.307
-781.751
-351.303
1128.35
73.6385
518.028
1102.25
447.452
1732.93
1077.78
1948.76
1593.69
1920.13
1942.49
1766.13
2091.08
1519.34
2015.04
1244.69
1791.62
887.918
1751.42
395.775
1904.18
383.288
1729.3
937.881
1030.58
994.017
274.235
212.264
92.5055
1035.66
281.306
328.986
367.956
360.669
415.619
1030.01
455.282
1553.93
315.819
2081.87
13.9919
2392.81
-193.415
2222.38
-97.2207
1695.33
240.884
1413.21
520.412
1624.64
686.269
1563.12
638.737
1077.6
251.986
660.545
464.251
-291.819
1327.26
-206.655
243.59
-153.191
307.071
-46.6368
923.373
7.0161
1500.22
137.323
1951.51
324.491
2205.61
513.558
2033.26
739.667
1469.16
1231.08
921.761
1727.51
1128.16
1870.31
1420.39
1424.61
1523.36
161.147
1924.05
625.396
1069.67
257.503
1972.99
-659.8
3137.87
-857.851
3746.54
314.668
3781.99
1464.73
3768.75
1964.73
3812.45
2161.88
3681.74
2163.95
3178.85
1972.03
2477.4
1623.15
2208.52
1397.01
2155.45
1473.25
1544.84
2133.81
576.1
2892.66
1201.5
2264.66
-2007.26
2743
-1138.27
2443.92
-558.915
2039.39
719.074
1802.49
1701.53
1858.35
1908.77
2141.54
1878.61
2308.06
1997.35
1972.99
2307.02
1124.12
2471.95
600.537
1920.49
873.587
1200.16
1175.95
1831.39
1075.5
2993.07
2277
-179.286
-1828.06
-1661.9
344.274
-3212.46
991.606
-4055.16
1561.73
-4154.96
1801.28
-3979.55
1733.33
-3577.56
1476.56
-2528.94
948.656
-851.211
629.168
185.469
1435.15
-15.8644
2121.75
-663.542
1847.66
-801.077
1968.79
31.1718
2160.72
2308.17
-1083.24
-744.876
-2502.61
1763.62
-3994.6
2483.57
-5114.16
2681.28
-5604.92
2292.01
-5488.41
1616.8
-5100.82
1088.94
-4766
613.819
-4949.09
812.249
-5538.76
2024.8
-6102.7
2685.68
-6405.62
2150.58
-4522.58
85.7479
-1345.8
-1016.07
962.37
-2051.25
1306.34
-2615.67
2328.02
-2837.13
2705.01
-3450.81
3294.94
-4705.77
3546.94
-5484.92
2395.94
-6171.28
1775.27
-6737.4
1179.93
-6749.96
824.787
-6066.98
1341.81
-5028.47
1647.17
-3901.42
1023.5
-862.012
-2953.68
878.407
-2756.5
1840.78
-565.869
-1157.21
-2055.92
-2153.04
-2398.96
-2527.12
-2207
-1274.23
75.3598
1821.34
3611.01
4439.95
2192.69
-525.425
)
;

boundaryField
{
    inletFace
    {
        type            calculated;
        value           nonuniform List<scalar> 
450
(
-6.23173e-11
4.99716e-11
3.44415e-12
3.51299e-12
9.94291e-13
-2.8244e-12
1.50058e-12
4.23003e-12
4.36302e-12
1.40181e-11
2.65782e-11
2.99533e-11
2.99852e-11
-1.45827e-12
-1.55524e-10
3.64181e-10
-2.63752e-10
-8.83952e-11
-3.10026e-11
-8.06364e-12
-2.32391e-12
1.01963e-11
1.7065e-12
-2.42552e-12
3.66863e-11
-3.34046e-11
-1.50262e-10
-3.58167e-10
-4.79784e-10
2.35437e-09
-1.83932e-09
1.78474e-09
-4.88873e-11
5.57601e-11
2.93306e-12
-2.57918e-11
-1.56838e-11
1.8848e-11
2.6121e-11
-2.89856e-12
-1.70728e-10
-5.16691e-10
-9.44295e-10
-8.88926e-10
3.17278e-09
-5.60359e-09
6.21689e-09
-1.2153e-10
-3.37633e-10
-3.99323e-11
2.45209e-11
3.91712e-12
3.3173e-13
-4.33215e-11
-1.68186e-10
-3.04628e-10
-2.24792e-10
2.0747e-10
8.27793e-10
2.20952e-09
-9.87837e-09
5.18475e-09
3.62721e-09
9.79165e-10
-2.49752e-11
-7.59428e-11
7.45347e-11
8.92263e-11
3.33187e-11
-1.34304e-10
-3.44597e-10
-2.77017e-10
-2.22447e-11
-5.10721e-10
-1.40093e-10
-1.9748e-08
1.39242e-09
4.84988e-09
3.01705e-09
1.05383e-09
-5.77617e-12
-2.77521e-10
-1.90688e-10
-5.69677e-11
-4.24311e-11
-1.2337e-10
-1.31193e-10
-3.05996e-11
-5.59471e-10
-1.19142e-09
-1.81902e-08
1.61769e-08
1.00763e-08
6.91379e-09
4.06478e-09
1.88792e-09
5.9455e-10
2.40947e-11
-1.23493e-10
-6.75793e-11
2.50268e-11
-9.82417e-11
-1.84445e-11
-3.62847e-10
-8.04771e-10
-2.92551e-08
2.57466e-08
2.4125e-08
1.21846e-08
6.23461e-09
3.06185e-09
1.05241e-09
1.30278e-10
-2.00084e-10
-2.34904e-10
-8.06946e-12
-1.26378e-12
-2.63344e-10
-1.91124e-10
-1.18345e-09
-1.77054e-08
4.08348e-08
1.68e-08
7.40884e-09
3.603e-09
1.19669e-09
-2.95835e-10
-8.89674e-10
-1.01119e-09
-7.73731e-10
-3.10108e-10
-8.90826e-11
-5.37272e-10
-1.10947e-09
-1.35734e-09
-1.10828e-08
-8.18356e-09
-1.0037e-09
2.28297e-09
3.69422e-09
3.94173e-09
3.24624e-09
2.43301e-09
2.04475e-09
2.80656e-09
2.66797e-09
5.26653e-10
-1.34358e-09
-1.26637e-09
-2.79932e-09
1.4106e-08
2.04477e-08
2.50423e-08
1.32786e-08
3.04896e-09
2.1968e-09
2.59436e-09
8.64391e-10
-7.55936e-10
-2.76132e-09
-4.9399e-09
-7.60001e-09
-9.09636e-09
-6.38653e-09
-6.00984e-09
2.70923e-08
1.3878e-08
1.33996e-08
1.07501e-08
4.80399e-09
4.77883e-10
2.14022e-09
4.17269e-09
3.24716e-09
-2.29144e-09
-5.71823e-09
4.46344e-10
2.41436e-08
1.83997e-08
-2.86685e-09
2.83158e-08
2.09979e-08
1.30531e-08
6.01904e-09
2.27531e-09
-1.05766e-09
-6.6476e-10
6.97454e-09
1.11664e-08
-2.7926e-09
-2.72914e-08
-4.77578e-08
-7.1833e-08
-7.3062e-08
-8.33494e-08
1.79411e-08
-7.41488e-09
-1.45782e-08
-2.5934e-08
-3.52858e-08
-4.46212e-08
-5.43768e-08
-6.96354e-08
-9.17022e-08
-1.01103e-07
-1.21861e-07
-1.56975e-07
-1.94021e-07
-2.32291e-07
-2.13457e-07
1.48721e-08
6.53362e-10
-1.8248e-08
-3.63922e-08
-4.90151e-08
-5.24129e-08
-5.24633e-08
-5.20902e-08
-5.35172e-08
-5.58834e-08
-5.92459e-08
-6.7352e-08
-7.57133e-08
-7.61208e-08
-2.03756e-07
6.23173e-11
-4.99716e-11
-3.44415e-12
-3.51299e-12
-9.94291e-13
2.8244e-12
-1.50058e-12
-4.23003e-12
-4.36302e-12
-1.40181e-11
-2.65782e-11
-2.99533e-11
-2.99852e-11
1.45827e-12
1.55524e-10
-3.64181e-10
2.63752e-10
8.83952e-11
3.10026e-11
8.06364e-12
2.32391e-12
-1.01963e-11
-1.7065e-12
2.42552e-12
-3.66863e-11
3.34046e-11
1.50262e-10
3.58167e-10
4.79784e-10
-2.35437e-09
1.83932e-09
-1.78474e-09
4.88873e-11
-5.57601e-11
-2.93306e-12
2.57918e-11
1.56838e-11
-1.8848e-11
-2.6121e-11
2.89856e-12
1.70728e-10
5.16691e-10
9.44295e-10
8.88926e-10
-3.17278e-09
5.60359e-09
-6.21689e-09
1.2153e-10
3.37633e-10
3.99323e-11
-2.45209e-11
-3.91712e-12
-3.3173e-13
4.33215e-11
1.68186e-10
3.04628e-10
2.24792e-10
-2.0747e-10
-8.27793e-10
-2.20952e-09
9.87837e-09
-5.18475e-09
-3.62721e-09
-9.79165e-10
2.49752e-11
7.59428e-11
-7.45347e-11
-8.92263e-11
-3.33187e-11
1.34304e-10
3.44597e-10
2.77017e-10
2.22447e-11
5.10721e-10
1.40093e-10
1.9748e-08
-1.39242e-09
-4.84988e-09
-3.01705e-09
-1.05383e-09
5.77617e-12
2.77521e-10
1.90688e-10
5.69677e-11
4.24311e-11
1.2337e-10
1.31193e-10
3.05996e-11
5.59471e-10
1.19142e-09
1.81902e-08
-1.61769e-08
-1.00763e-08
-6.91379e-09
-4.06478e-09
-1.88792e-09
-5.9455e-10
-2.40947e-11
1.23493e-10
6.75793e-11
-2.50268e-11
9.82417e-11
1.84445e-11
3.62847e-10
8.04771e-10
2.92551e-08
-2.57466e-08
-2.4125e-08
-1.21846e-08
-6.23461e-09
-3.06185e-09
-1.05241e-09
-1.30278e-10
2.00084e-10
2.34904e-10
8.06946e-12
1.26378e-12
2.63344e-10
1.91124e-10
1.18345e-09
1.77054e-08
-4.08348e-08
-1.68e-08
-7.40884e-09
-3.603e-09
-1.19669e-09
2.95835e-10
8.89674e-10
1.01119e-09
7.73731e-10
3.10108e-10
8.90826e-11
5.37272e-10
1.10947e-09
1.35734e-09
1.10828e-08
8.18356e-09
1.0037e-09
-2.28297e-09
-3.69422e-09
-3.94173e-09
-3.24624e-09
-2.43301e-09
-2.04475e-09
-2.80656e-09
-2.66797e-09
-5.26653e-10
1.34358e-09
1.26637e-09
2.79932e-09
-1.4106e-08
-2.04477e-08
-2.50423e-08
-1.32786e-08
-3.04896e-09
-2.1968e-09
-2.59436e-09
-8.64391e-10
7.55936e-10
2.76132e-09
4.9399e-09
7.60001e-09
9.09636e-09
6.38653e-09
6.00984e-09
-2.70923e-08
-1.3878e-08
-1.33996e-08
-1.07501e-08
-4.80399e-09
-4.77883e-10
-2.14022e-09
-4.17269e-09
-3.24716e-09
2.29144e-09
5.71823e-09
-4.46344e-10
-2.41436e-08
-1.83997e-08
2.86685e-09
-2.83158e-08
-2.09979e-08
-1.30531e-08
-6.01904e-09
-2.27531e-09
1.05766e-09
6.6476e-10
-6.97454e-09
-1.11664e-08
2.7926e-09
2.72914e-08
4.77578e-08
7.1833e-08
7.3062e-08
8.33494e-08
-1.79411e-08
7.41488e-09
1.45782e-08
2.5934e-08
3.52858e-08
4.46212e-08
5.43768e-08
6.96354e-08
9.17022e-08
1.01103e-07
1.21861e-07
1.56975e-07
1.94021e-07
2.32291e-07
2.13457e-07
-1.48721e-08
-6.53362e-10
1.8248e-08
3.63922e-08
4.90151e-08
5.24129e-08
5.24633e-08
5.20902e-08
5.35172e-08
5.58834e-08
5.92459e-08
6.7352e-08
7.57133e-08
7.61208e-08
2.03756e-07
)
;
    }
    inlet
    {
        type            calculated;
        value           nonuniform List<scalar> 
15
(
-1299.9
-1300.2
-1299.9
-1299.9
-1300.2
-1299.9
-1299.9
-1300.2
-1299.9
-1299.9
-1300.2
-1299.9
-1299.9
-1300.2
-1299.9
)
;
    }
    inletWalls
    {
        type            calculated;
        value           uniform 0;
    }
    outletInlet
    {
        type            calculated;
        value           nonuniform List<scalar> 
15
(
1315.35
-38.3196
-706.334
194.605
-142.47
-404.144
-524.744
247.191
1455.2
2524.12
3792.91
3392.12
3603.86
2919.5
1872.4
)
;
    }
}


// ************************************************************************* //
