/*--------------------------------*- C++ -*----------------------------------*\
| =========                 |                                                 |
| \\      /  F ield         | OpenFOAM: The Open Source CFD Toolbox           |
|  \\    /   O peration     | Version:  4.1                                   |
|   \\  /    A nd           | Web:      www.OpenFOAM.org                      |
|    \\/     M anipulation  |                                                 |
\*---------------------------------------------------------------------------*/
FoamFile
{
    version     2.0;
    format      ascii;
    class       volScalarField;
    location    "7";
    object      epsilon;
}
// * * * * * * * * * * * * * * * * * * * * * * * * * * * * * * * * * * * * * //

dimensions      [0 2 -3 0 0 0 0];

internalField   nonuniform List<scalar> 
6785
(
0.0570333
0.27297
0.265611
0.265704
0.265743
0.26566
0.26568
0.265765
0.2657
0.265731
0.26582
0.265744
0.26362
0.422027
0.0870884
0.08344
0.00412873
6.01736e-05
5.62724e-05
5.35261e-05
5.07484e-05
4.80602e-05
4.53941e-05
4.2672e-05
4.00715e-05
3.77748e-05
3.79519e-05
0.000138165
0.00439778
0.032826
0.110234
0.00172245
2.85931e-07
1.07342e-07
2.27473e-06
2.80874e-05
0.000102127
0.000140141
0.000194676
0.000283695
0.000465377
0.000739388
0.00155333
0.00749426
0.0132321
0.148627
0.00219823
3.08977e-07
3.05932e-08
1.31307e-06
1.95771e-05
0.000141512
0.000304524
0.000863731
0.00222979
0.00372556
0.00358538
0.00244573
0.00443251
0.00649099
0.199771
0.00461793
1.70256e-05
1.09793e-07
9.38362e-07
4.40891e-06
0.000108704
0.000323197
0.00091764
0.00238053
0.00416235
0.00424132
0.00189949
0.00198689
0.00229568
0.251289
0.0148442
0.00016311
3.26177e-05
2.50742e-06
1.64591e-06
4.12308e-05
0.000187056
0.000545684
0.00128253
0.0019292
0.00248481
0.00233086
0.00123383
0.000263958
0.293951
0.028561
0.00103381
3.54616e-05
5.8077e-06
3.25216e-06
1.05412e-05
9.0049e-05
0.000233948
0.000558371
0.000788716
0.000889547
0.00142208
0.00103531
0.000161042
0.323156
0.0398384
0.00244442
0.000126928
1.23711e-05
5.79432e-06
7.99925e-06
4.41869e-05
0.000106708
0.000269794
0.000375324
0.000381287
0.00090333
0.00138593
0.000125631
0.340857
0.0509095
0.00374108
0.000302147
2.91846e-05
8.95151e-06
9.82649e-06
2.40288e-05
5.77881e-05
0.000138822
0.000219848
0.00021546
0.000634508
0.0013035
0.000115769
0.352298
0.0516019
0.00638931
0.000660922
8.59373e-05
1.4597e-05
1.29851e-05
2.324e-05
4.25698e-05
0.000101382
0.000150716
0.000153595
0.000362592
0.00106962
0.000196317
0.357811
0.0508759
0.00681702
0.00117641
0.000184792
3.53435e-05
4.36307e-05
4.60639e-05
6.53085e-05
9.83779e-05
0.000127461
0.00012166
0.000179459
0.000813924
0.00043087
0.376405
0.0243622
0.00687617
0.00119051
0.000445472
0.000170552
0.000190797
0.000183635
0.000222456
0.000155375
0.000120406
0.000104887
0.000120318
0.000622343
0.00121988
0.388707
0.0564301
0.00859401
0.00157264
0.000792014
0.000877526
0.00442707
0.00259149
0.000508213
0.000225
0.000317693
0.000421569
0.000315385
0.00076264
0.00299101
0.356828
0.0629299
0.000672158
0.00174718
0.00408336
0.0133565
0.00908982
0.00467061
0.00241096
0.000311789
0.000302905
0.00136132
0.00128478
0.00202798
0.00432426
0.365132
1.64483
0.677661
0.178165
0.00178992
0.00547912
0.0033258
0.0026222
0.00339438
0.00735335
0.010102
0.0114826
0.0103394
0.0240565
0.00716059
0.038406
0.0230991
0.0375762
0.0368816
0.036646
0.0217906
0.0356535
0.0350294
0.0348159
0.0207274
0.0342274
0.0337722
0.0198195
0.0324701
0.0317857
0.0314095
0.0184785
0.0304866
0.0299482
0.0174205
0.0284904
0.0277675
0.0272432
0.015818
0.0258372
0.0251421
0.0246075
0.0142378
0.0232278
0.0226054
0.0129538
0.0210507
0.0204319
0.0199125
0.0114662
0.0185771
0.018039
0.0103489
0.0166331
0.016086
0.0156051
0.00898102
0.0143354
0.0138637
0.0134597
0.00783302
0.012547
0.0122508
0.00730254
0.0116448
0.0113904
0.0112531
0.00698251
0.0106868
0.0101505
0.00968248
0.00562578
0.00842138
0.00795629
0.0044095
0.0064446
0.00593693
0.0055019
0.00286854
0.00412742
0.00381645
0.00201284
0.00340158
0.00345954
0.00361601
0.00222406
0.00410691
0.00425217
0.00444322
0.00262791
0.00478089
0.00491831
0.0028468
0.00513599
0.00525617
0.0200279
0.0194293
0.0195173
0.0189724
0.0205256
0.020682
0.0204412
0.0203634
0.0202727
0.0201906
0.0199357
0.0198186
0.0198028
0.0221936
0.0225996
0.0235322
0.0239695
0.0249627
0.0256082
0.0266144
0.0273285
0.0316774
0.0349928
0.0361724
0.0367661
0.0377593
0.0383477
0.0390843
0.0400967
0.0410842
0.0423179
0.0498
0.051909
0.0547107
0.055439
0.0582572
0.0600534
0.0633334
0.0663775
0.0710183
0.0938693
0.0924418
0.0991268
0.105554
0.114641
0.125521
0.139705
0.156285
0.173784
0.190502
0.200819
0.216016
0.247864
0.275436
0.303057
0.336221
0.367578
0.398128
0.41494
0.453642
0.4731
0.520063
0.52318
0.546955
0.542639
0.552977
0.531407
0.516259
0.508882
0.544353
0.483154
0.375049
0.286195
0.17803
0.071704
0.0537576
0.0531392
0.0121893
0.0195504
0.00767223
0.00131137
0.000809425
0.000658047
0.00084107
0.000517045
0.000695801
0.000436722
0.000377599
0.000530946
0.000334405
0.000302956
0.000446451
0.000281421
0.000424387
0.000271023
0.000256973
0.000396099
0.000251582
0.000392342
0.000251838
0.000245735
0.000389637
0.000248526
0.000245212
0.000393364
0.000251214
0.000404743
0.000260689
0.000261169
0.000424707
0.000271374
0.000441114
0.000283987
0.000285233
0.000465178
0.000297264
0.000298796
0.000487087
0.000310607
0.000506674
0.000325555
0.000328055
0.000535636
0.000340889
0.00055716
0.000357235
0.000360173
0.000588994
0.000377139
0.000380488
0.000622149
0.000394134
0.000645609
0.000411966
0.000415198
0.000679439
0.000428558
0.000702755
0.000446501
0.000449016
0.000735591
0.000465052
0.000466967
0.000764651
0.00047844
0.00078517
0.00049518
0.000495825
0.000812315
0.000505786
0.000830438
0.00052156
0.000520707
0.000853724
0.000530986
0.000529158
0.000867117
0.000536792
0.000881465
0.000551086
0.000254064
0.000233144
0.000206026
0.000191122
0.000177278
0.000168034
0.00016464
0.000166925
0.000177729
0.000187608
0.000192044
0.000194059
0.000199656
0.000208321
0.000222839
0.000250163
0.00029084
0.000334557
0.000395391
0.000530324
0.000729177
0.000986802
0.00124769
0.00138884
0.00158444
0.00207102
0.00276668
0.00365022
0.00414603
0.00436292
0.00423094
0.00362828
0.00273918
0.00202392
0.00158089
0.00135004
0.00123061
0.00113555
0.00108467
0.00113201
0.00126987
0.00151691
0.00197052
0.00268765
0.00377431
0.00531757
0.00726377
0.00954571
0.0122564
0.0155937
0.0195676
0.0241955
0.0294945
0.0354489
0.0419663
0.0488644
0.0558567
0.0625513
0.0684775
0.0731718
0.0760207
0.0771299
0.0765635
0.0738729
0.070093
0.0662238
0.0632479
0.0610112
0.0568665
0.048475
0.0360293
0.0241448
0.0156359
0.00975202
0.00572976
0.00638197
0.00424953
0.00125237
0.000685156
0.000273515
0.00025068
0.000221333
0.000204457
0.000188079
0.00017543
0.000170001
0.000171515
0.00018275
0.000193281
0.000197678
0.000198857
0.000203906
0.000212466
0.000228089
0.000257516
0.000300158
0.000346279
0.000409482
0.000548001
0.000741567
0.00098826
0.00123689
0.00136626
0.0015665
0.00206175
0.00277181
0.00370812
0.00425407
0.00449651
0.00433866
0.00370283
0.00277871
0.00204621
0.00159922
0.00136804
0.00124825
0.00114594
0.00108701
0.00112814
0.00126518
0.00151672
0.00197765
0.0027044
0.00379889
0.00534182
0.00728724
0.00959482
0.0123709
0.0157611
0.0197981
0.0245165
0.0299375
0.0360503
0.0427668
0.0499052
0.0571721
0.0641589
0.0703652
0.0752906
0.0782757
0.0794401
0.0787824
0.0758236
0.0716859
0.0674656
0.0642198
0.0617802
0.0573793
0.0486926
0.0362498
0.0242738
0.0158039
0.00979973
0.00585565
0.00624339
0.00376848
0.00120862
0.000690453
0.000295979
0.000272127
0.000239475
0.000221113
0.000202968
0.000186854
0.000177999
0.000176587
0.000186535
0.000198979
0.000206059
0.00020856
0.000214487
0.00022367
0.000240349
0.000271695
0.000316918
0.000365585
0.000429304
0.000569558
0.000756756
0.000993988
0.00123129
0.00134798
0.00154557
0.0020432
0.00277004
0.00378839
0.00435954
0.00460817
0.00443022
0.00376997
0.00282196
0.00207658
0.00162807
0.00139722
0.00127844
0.0011671
0.00109784
0.0011295
0.00126428
0.00152108
0.00199054
0.00272901
0.003837
0.00539579
0.00737698
0.00976567
0.0126408
0.0161153
0.0202658
0.0251405
0.0307639
0.037129
0.0441501
0.0516419
0.0592978
0.0666833
0.073255
0.0784616
0.0815881
0.0827955
0.0819786
0.0786391
0.0740169
0.069331
0.0657484
0.0630692
0.058333
0.0492287
0.0366578
0.024522
0.015967
0.009834
0.00596904
0.00630318
0.00346662
0.00117322
0.000695598
0.000319472
0.000293923
0.000258238
0.000238247
0.000218469
0.000199155
0.000185929
0.000182139
0.000190709
0.000203963
0.000212461
0.000215913
0.000222814
0.000233209
0.000251793
0.000285753
0.000333844
0.000385487
0.000450019
0.000591943
0.000770906
0.000996557
0.00121955
0.00132252
0.00152209
0.00202103
0.00277421
0.00388324
0.00448915
0.00473538
0.00452855
0.00383073
0.00286123
0.00210646
0.00165858
0.00142868
0.00131221
0.00119293
0.00111297
0.0011339
0.00126453
0.00152568
0.0020032
0.00275383
0.00387806
0.00546239
0.00750053
0.0099875
0.0129704
0.0165561
0.0208611
0.0259456
0.0318369
0.0385312
0.0459439
0.0538833
0.0620251
0.0699018
0.0769173
0.0824562
0.0857386
0.0869911
0.0859774
0.0821882
0.0770027
0.0717747
0.0678109
0.0648667
0.0597374
0.0500883
0.0371987
0.0248192
0.0161302
0.0098606
0.00606635
0.00625607
0.00325368
0.00116449
0.000697558
0.000345033
0.000317533
0.000278179
0.000256548
0.000235636
0.000214155
0.000195995
0.000188824
0.000195194
0.000209271
0.000219973
0.000224682
0.000232437
0.000243777
0.000264063
0.000300712
0.000351957
0.000406684
0.000472528
0.000616274
0.000785915
0.000998073
0.00120615
0.00129651
0.00149639
0.00199544
0.00277824
0.00398903
0.004616
0.00485184
0.00462171
0.00388223
0.00289712
0.00213793
0.00169273
0.00146395
0.00134971
0.00122337
0.00113231
0.00114264
0.00126821
0.00153241
0.00201773
0.00278117
0.00392541
0.00554612
0.00765833
0.010255
0.0133544
0.0170808
0.0215769
0.0269118
0.0331181
0.0401937
0.0480531
0.0564959
0.0651764
0.0735897
0.0810791
0.0869523
0.0903616
0.0916286
0.090365
0.0860723
0.0802793
0.074473
0.0701146
0.0669164
0.0614061
0.051148
0.0378392
0.0251657
0.0162846
0.00988264
0.00614981
0.00620633
0.00314119
0.00116059
0.000697104
0.000372592
0.000342559
0.000299038
0.000275443
0.000253501
0.000230353
0.000207494
0.000196439
0.000200114
0.000214205
0.000226641
0.000232893
0.000241824
0.00025448
0.000276759
0.000316378
0.000371056
0.000429062
0.000496535
0.000641697
0.000800473
0.000998293
0.00118923
0.00126872
0.00147031
0.00196831
0.00279027
0.00409325
0.00475824
0.00496397
0.00471075
0.00392453
0.00292856
0.00217013
0.00172932
0.00150153
0.0013888
0.00125672
0.00115385
0.00115351
0.0012731
0.00154002
0.00203317
0.0028105
0.00397847
0.00564373
0.00783841
0.0105478
0.0137792
0.0176754
0.022391
0.0280102
0.0345709
0.0420714
0.0504239
0.0594177
0.0686836
0.0776751
0.0856677
0.0918749
0.0953807
0.0966319
0.0950754
0.0902388
0.0838019
0.0773775
0.0725969
0.0691516
0.0633055
0.0524217
0.0385869
0.0255549
0.0164293
0.00990094
0.00622552
0.00614975
0.00308119
0.00116228
0.000694167
0.000402871
0.000369647
0.000321064
0.00029503
0.000272011
0.000247851
0.00022107
0.000205576
0.000205925
0.000219593
0.000233708
0.000241581
0.000251709
0.000265696
0.000289984
0.000332756
0.000391194
0.000452593
0.000522306
0.000668627
0.000815035
0.000997209
0.00117031
0.00124172
0.00144473
0.00194127
0.00281313
0.00420078
0.0049171
0.00507056
0.00479216
0.00395731
0.00295662
0.00220444
0.00176957
0.00154223
0.00142958
0.00129285
0.00117754
0.00116716
0.00128026
0.00154896
0.0020499
0.00284226
0.00403788
0.00575543
0.00804014
0.0108691
0.0142495
0.0183359
0.0232955
0.0292272
0.0361741
0.0441341
0.0530166
0.0625997
0.0724888
0.0820923
0.0906092
0.0971359
0.100694
0.101888
0.0999988
0.0945873
0.0874687
0.0803685
0.0751112
0.0714205
0.0653201
0.0538309
0.039415
0.0259761
0.0165675
0.00992312
0.00629329
0.00607848
0.00303681
0.00116896
0.000696507
0.000436592
0.000399258
0.000344474
0.000315318
0.000290804
0.000265809
0.000236243
0.000215833
0.000212653
0.000225279
0.000240625
0.000250249
0.00026183
0.000277344
0.000303737
0.000349851
0.000412391
0.000477319
0.000549397
0.000696896
0.000829325
0.000992415
0.00114967
0.0012161
0.00142334
0.00191666
0.00284428
0.00431222
0.0051004
0.00517905
0.00486589
0.00398133
0.00298255
0.0022416
0.00181389
0.00158599
0.00147148
0.00133116
0.00120264
0.00118228
0.00128866
0.001559
0.00206798
0.00287687
0.00410425
0.00588066
0.00825963
0.0112127
0.0147561
0.0190527
0.0242789
0.0305487
0.0379108
0.0463627
0.0558104
0.0660209
0.0765725
0.0868235
0.0958875
0.102711
0.106274
0.107365
0.105124
0.0991207
0.0912679
0.0833934
0.077564
0.0736198
0.0673785
0.0553612
0.0403145
0.0264232
0.0166995
0.00994892
0.00635202
0.00599421
0.00300076
0.00117916
0.000693713
0.000474995
0.000432238
0.000369642
0.000336536
0.000309892
0.000283986
0.000252971
0.000226945
0.000220009
0.000231783
0.00024802
0.000259279
0.000272425
0.000289559
0.000318061
0.000367664
0.000434672
0.00050325
0.000577941
0.000726686
0.000843701
0.000985853
0.00112835
0.00119305
0.00140605
0.0018974
0.00288321
0.0044306
0.00528968
0.00529662
0.00493346
0.00399899
0.00300881
0.00228299
0.00186329
0.00163332
0.00151454
0.00137142
0.00122911
0.001199
0.00129858
0.00157023
0.00208765
0.0029149
0.00417823
0.00601891
0.00849525
0.0115792
0.0153002
0.0198236
0.0253366
0.0319672
0.039771
0.0487445
0.0587911
0.069667
0.0809207
0.0918539
0.101486
0.108566
0.112082
0.113027
0.110441
0.103841
0.0951704
0.0863644
0.0798234
0.0756139
0.0693746
0.0569582
0.0412597
0.0268866
0.0168254
0.00997683
0.00640096
0.00589959
0.00297306
0.00118924
0.000683854
0.000519944
0.000469737
0.000397007
0.000358933
0.000329369
0.000302095
0.000270294
0.00023996
0.000227317
0.0002384
0.000255939
0.000268703
0.000283553
0.000302415
0.000333013
0.000386216
0.000458043
0.000530412
0.000608152
0.00075808
0.000858415
0.000978415
0.00110711
0.00117311
0.00139259
0.00188842
0.0029318
0.00455839
0.00548031
0.00543211
0.00499958
0.00401605
0.00303881
0.00233011
0.00191866
0.00168463
0.00155872
0.00141325
0.0012565
0.0012166
0.00130968
0.00158273
0.00210931
0.0029571
0.00426039
0.00616935
0.00874525
0.0119668
0.0158772
0.0206432
0.0264627
0.0334764
0.0417475
0.0512727
0.0619531
0.0735346
0.0855328
0.0971816
0.107399
0.114676
0.118097
0.118864
0.115982
0.108781
0.0991558
0.0891903
0.0817623
0.0772772
0.0712041
0.0585936
0.0422299
0.0273565
0.0169436
0.0100039
0.00643647
0.00578485
0.00294349
0.00119987
0.000680211
0.000569062
0.000513574
0.000427164
0.000382825
0.00034947
0.000320146
0.000287638
0.000255079
0.000235593
0.000244362
0.00026438
0.000278832
0.000295455
0.000316066
0.000348678
0.000405538
0.000482506
0.000558831
0.000640345
0.000791278
0.000873974
0.000971206
0.00108693
0.00115702
0.00138322
0.00188859
0.00299267
0.0046991
0.00567558
0.0055874
0.00507457
0.00404239
0.00307711
0.00238489
0.00198105
0.00174053
0.00160421
0.00145625
0.00128467
0.00123493
0.00132193
0.00159668
0.00213345
0.00300413
0.00435094
0.00633083
0.00900849
0.0123749
0.016486
0.0215099
0.0276544
0.0350727
0.0438364
0.0539432
0.0652936
0.0776236
0.0904102
0.102803
0.113603
0.121018
0.1243
0.124883
0.121792
0.113968
0.103183
0.0917643
0.0832556
0.0784859
0.0727585
0.0602064
0.0431984
0.0278215
0.017052
0.0100252
0.0064463
0.00562911
0.00291338
0.00120902
0.000672814
0.000617398
0.000566643
0.000460971
0.000408589
0.000370432
0.000338287
0.000304793
0.000271088
0.000245166
0.000250554
0.000271369
0.000289877
0.000308367
0.000330694
0.000365183
0.000425677
0.000508078
0.00058857
0.000674612
0.000826791
0.000891077
0.000965464
0.0010689
0.00114554
0.00137925
0.00190207
0.00306855
0.00485667
0.00587896
0.00576563
0.00516953
0.00409113
0.00312916
0.00244944
0.00205136
0.00180153
0.00165118
0.00149989
0.00131329
0.00125353
0.00133522
0.00161229
0.00216056
0.00305649
0.00444961
0.0065021
0.00928419
0.0128027
0.0171246
0.0224209
0.0289088
0.0367534
0.0460353
0.0567549
0.0688134
0.0819379
0.0955583
0.108714
0.120065
0.127564
0.130686
0.131115
0.127938
0.119424
0.107203
0.0939939
0.0841894
0.0791062
0.0739345
0.0617354
0.0441407
0.0282692
0.0171474
0.0100328
0.00644263
0.00545069
0.00288394
0.00121459
0.000659631
0.000660667
0.000623035
0.000499851
0.000436765
0.00039251
0.000356737
0.000321765
0.000287303
0.000256669
0.000257101
0.000277632
0.000299959
0.000322206
0.000346551
0.000382691
0.000446702
0.000534808
0.000619771
0.000711048
0.000865166
0.000910696
0.000964137
0.00105431
0.00113997
0.00138065
0.00192837
0.00316122
0.00503619
0.00609559
0.0059708
0.00529924
0.00417225
0.00320115
0.00252592
0.00213024
0.00186797
0.00169976
0.00154358
0.00134218
0.00127215
0.00134944
0.00162978
0.00219104
0.00311434
0.00455577
0.006682
0.0095718
0.0132492
0.0177916
0.0233746
0.0302243
0.0385171
0.048343
0.0597077
0.072515
0.086483
0.100982
0.114905
0.126742
0.134278
0.137267
0.137623
0.134484
0.125157
0.111168
0.0958204
0.0845475
0.0792048
0.0746281
0.063101
0.0450324
0.028687
0.0172259
0.0100282
0.00643069
0.00526133
0.00285287
0.00121938
0.00064992
0.000691504
0.000675949
0.000546042
0.000468197
0.000416024
0.000375729
0.00033869
0.000303539
0.000270392
0.000264264
0.000283552
0.000309201
0.000335264
0.000363563
0.000401405
0.000468711
0.000562789
0.000652675
0.000749849
0.000906777
0.000933925
0.000968331
0.00104464
0.00114098
0.00139031
0.0019679
0.00327189
0.00524374
0.00633252
0.00619564
0.00547755
0.00429695
0.00329959
0.00261628
0.00221781
0.00193984
0.00174995
0.00158682
0.00137109
0.00129048
0.00136451
0.00164934
0.00222514
0.00317757
0.00466859
0.00686964
0.00987093
0.0137137
0.0184857
0.0243695
0.0315993
0.0403631
0.0507596
0.0628028
0.076402
0.0912655
0.106684
0.121359
0.133575
0.141129
0.144081
0.144491
0.141491
0.131164
0.115052
0.0972349
0.0844547
0.0787036
0.0748156
0.06422
0.0458533
0.0290626
0.0172832
0.01002
0.00640782
0.00506782
0.00282093
0.00122259
0.000634406
0.000701788
0.000718789
0.000599897
0.000504273
0.00044148
0.000395515
0.00035572
0.000319704
0.000285254
0.000272178
0.000289568
0.000317851
0.000347743
0.000380291
0.000421619
0.000491843
0.000592167
0.000687617
0.000791421
0.000951752
0.000961823
0.000977692
0.00104212
0.00114966
0.00140996
0.0020208
0.00340228
0.0054866
0.00659841
0.00642292
0.00567415
0.00445693
0.00343045
0.00272195
0.00231364
0.00201671
0.00180161
0.00162915
0.00139985
0.00130831
0.0013803
0.00167105
0.00226297
0.0032459
0.00478728
0.00706445
0.0101812
0.0141952
0.0192059
0.0254044
0.0330328
0.0422906
0.0532852
0.0660419
0.0804789
0.0962915
0.112663
0.128047
0.140501
0.148096
0.151195
0.151817
0.149009
0.137449
0.118865
0.0982702
0.0837963
0.0775533
0.0744734
0.0649987
0.0465915
0.029384
0.0173143
0.00999884
0.00636842
0.00487383
0.00278407
0.00122209
0.000624215
0.000698547
0.000737577
0.000649899
0.000547366
0.000469698
0.000416433
0.00037307
0.00033583
0.000300536
0.000281283
0.000296273
0.000325962
0.000359603
0.000396807
0.000443108
0.000516214
0.000623143
0.000724978
0.000836496
0.000999795
0.000995131
0.000993685
0.00104836
0.00116668
0.00144154
0.00208709
0.0035443
0.00571586
0.00685154
0.00665466
0.00588456
0.00464052
0.00358386
0.00284363
0.00241672
0.00209771
0.00185452
0.00167005
0.00142832
0.00132547
0.00139666
0.00169491
0.0023045
0.00331897
0.00491123
0.00726608
0.0105021
0.0146931
0.0199513
0.0264783
0.0345244
0.0442996
0.0559204
0.069427
0.0847504
0.101566
0.11891
0.134926
0.147464
0.155179
0.158698
0.159694
0.157067
0.144032
0.122648
0.098984
0.0826385
0.0757965
0.0735703
0.0653375
0.047252
0.0296371
0.0173107
0.00995736
0.00630788
0.00468108
0.00273985
0.00121793
0.00061189
0.000668882
0.000738407
0.000689232
0.000598494
0.00050199
0.000438984
0.000391015
0.000351992
0.000316034
0.000292162
0.000303999
0.00033386
0.000370876
0.00041296
0.000464936
0.000542099
0.000655986
0.000765129
0.000885726
0.00105042
0.0010343
0.00101726
0.00106472
0.00119318
0.0014863
0.00216636
0.0036857
0.00591562
0.00708212
0.0069023
0.0061198
0.00485302
0.00375834
0.0029817
0.00252553
0.00218147
0.00190834
0.001709
0.00145643
0.00134184
0.00141342
0.00172084
0.00234962
0.00339649
0.00504006
0.00747433
0.0108333
0.0152065
0.0207211
0.0275903
0.0360732
0.0463895
0.058666
0.0729604
0.0892211
0.107091
0.125403
0.14194
0.154439
0.162401
0.166688
0.1682
0.165686
0.150963
0.126469
0.0994415
0.081045
0.0734862
0.0721276
0.0652122
0.0477839
0.0298044
0.0172837
0.00989389
0.0062262
0.00449046
0.002688
0.00120792
0.000592991
0.000630649
0.000709259
0.000704086
0.000644231
0.000540481
0.000463908
0.000409907
0.000368382
0.000331705
0.000305274
0.00031305
0.000341779
0.000381745
0.000428679
0.000487164
0.000569927
0.000691026
0.00080838
0.000936575
0.00110352
0.00107856
0.00104865
0.00109224
0.00123043
0.00154532
0.00225813
0.00382086
0.00608097
0.00729126
0.0071822
0.0063962
0.00510509
0.00395684
0.00313552
0.00263809
0.00226616
0.0019625
0.00174547
0.001484
0.00135734
0.00143042
0.00174865
0.00239817
0.00347824
0.00517358
0.00768906
0.0111741
0.0157347
0.0215142
0.0287393
0.0376783
0.0485598
0.0615222
0.0766441
0.0938948
0.112862
0.132107
0.149016
0.161438
0.169854
0.175262
0.177393
0.174895
0.158316
0.130403
0.0997044
0.0790736
0.07068
0.0701705
0.0646219
0.0481309
0.0298665
0.0172214
0.00980513
0.00612349
0.00430242
0.00262792
0.00119592
0.00058102
0.000590279
0.000662196
0.000703599
0.000677967
0.000588084
0.000492346
0.000430212
0.000385203
0.000347568
0.000319613
0.000323413
0.000350099
0.000392425
0.000443991
0.000509622
0.000600242
0.000728643
0.000855013
0.000989129
0.00115799
0.00112714
0.00108817
0.001131
0.00127997
0.0016198
0.0023622
0.00394635
0.00621255
0.0074853
0.00751325
0.00672952
0.0054082
0.00418378
0.00330265
0.00275202
0.00234958
0.00201614
0.001779
0.00151064
0.00137188
0.00144751
0.00177816
0.00244999
0.00356408
0.00531173
0.00791006
0.011524
0.0162768
0.0223297
0.029924
0.0393382
0.0508095
0.0644894
0.0804801
0.0987741
0.118868
0.138966
0.156075
0.168457
0.177702
0.184512
0.187312
0.184737
0.166183
0.134527
0.0998277
0.0767787
0.0674416
0.0677241
0.0635192
0.048239
0.0298267
0.0171184
0.00968796
0.00600013
0.00411723
0.00256139
0.00118128
0.000566543
0.000554244
0.000611146
0.000677228
0.000688257
0.000631173
0.000526178
0.000452564
0.000402738
0.000363732
0.000334692
0.00033499
0.000359236
0.000403175
0.000458974
0.000532178
0.000633729
0.000769262
0.000905304
0.00104368
0.00121343
0.00117936
0.00113565
0.00118085
0.00134351
0.00171134
0.00247888
0.0040614
0.00631744
0.00767053
0.00785358
0.00713377
0.00576842
0.00444374
0.00347844
0.00286467
0.00242931
0.00206812
0.00180917
0.0015357
0.00138539
0.00146455
0.00180918
0.0025049
0.00365392
0.00545444
0.00813706
0.0118822
0.0168317
0.0231665
0.0311431
0.0410514
0.0531378
0.0675676
0.0844697
0.103859
0.125088
0.14591
0.163048
0.175553
0.186108
0.194532
0.197988
0.195275
0.174664
0.138918
0.099864
0.0742152
0.0638252
0.0648107
0.0619429
0.048111
0.0296947
0.0169716
0.00953972
0.00585716
0.00393509
0.00248971
0.00116523
0.000549849
0.000526102
0.00056676
0.000636903
0.000686469
0.000663523
0.000568274
0.000477842
0.000421328
0.000380357
0.0003503
0.000347721
0.000369578
0.000414274
0.000473766
0.000554658
0.000668678
0.000813349
0.000959533
0.00110089
0.00127
0.00123482
0.00119068
0.00124164
0.00142276
0.00182189
0.00260893
0.00416799
0.0064053
0.00785381
0.00819147
0.00754667
0.00614782
0.00471717
0.00365632
0.00297319
0.00250302
0.00211699
0.00183555
0.00155843
0.00139779
0.00148144
0.00184157
0.00256277
0.00374767
0.00560164
0.00836965
0.0122479
0.0173985
0.0240231
0.0323951
0.0428166
0.0555437
0.0707557
0.0886137
0.109145
0.131486
0.152856
0.16989
0.182827
0.195211
0.205378
0.209452
0.206589
0.183871
0.143655
0.0998677
0.0714434
0.059898
0.0614533
0.0599693
0.0477349
0.0294421
0.0167771
0.0093581
0.00569604
0.00375599
0.00241195
0.00115012
0.000536239
0.000507353
0.000534171
0.000594844
0.000664825
0.000677222
0.000609456
0.00050728
0.000441419
0.00039764
0.000366375
0.000361595
0.0003815
0.000425937
0.00048852
0.000576933
0.000704565
0.000861607
0.001018
0.00116165
0.00132835
0.00129362
0.00125281
0.00131322
0.00151863
0.0019524
0.00275414
0.00427062
0.00648771
0.00804629
0.00852974
0.00795055
0.00652391
0.0049884
0.00382953
0.0030748
0.00256859
0.00216117
0.00185764
0.00157806
0.00140911
0.00149812
0.00187525
0.00262347
0.00384521
0.00575313
0.00860731
0.0126203
0.017976
0.0248983
0.0336786
0.0446324
0.0580256
0.074052
0.0929114
0.114621
0.138011
0.159718
0.176593
0.190408
0.205107
0.217083
0.221745
0.218771
0.193919
0.148823
0.0998969
0.0685274
0.0557505
0.0577027
0.0576979
0.0470316
0.0290979
0.0165342
0.0091423
0.00551769
0.00357985
0.00232854
0.00113724
0.000523728
0.000498705
0.000514848
0.000558654
0.000632458
0.0006788
0.000641392
0.000543006
0.000463597
0.000415821
0.000383303
0.000376884
0.000395202
0.000438384
0.000503404
0.000598926
0.000741225
0.000914967
0.00108101
0.00122703
0.00138947
0.00135636
0.00132187
0.00139525
0.00163126
0.00210232
0.00291593
0.0043773
0.00657552
0.00825913
0.00888227
0.00834798
0.00688722
0.00524744
0.00399222
0.00316686
0.00262436
0.00219905
0.00187498
0.00159384
0.00141944
0.00151461
0.00191021
0.00268688
0.00394633
0.00590862
0.0088494
0.0129985
0.018563
0.0257904
0.0349919
0.0464967
0.0605804
0.077454
0.0973603
0.12027
0.144597
0.166417
0.183211
0.198436
0.215846
0.229672
0.234919
0.231923
0.204933
0.154516
0.100011
0.0655353
0.0514956
0.0536487
0.0552607
0.0459838
0.0286701
0.0162413
0.0088932
0.00532352
0.00340678
0.00224172
0.00112574
0.000509693
0.000496218
0.000506018
0.000533875
0.000598114
0.000668661
0.000662397
0.00058239
0.000488634
0.000435197
0.000401154
0.000393639
0.000410541
0.000451975
0.000518614
0.000620627
0.000778348
0.000974635
0.00114885
0.00129825
0.00145452
0.00142399
0.00139809
0.00148739
0.00176
0.00227198
0.00309678
0.00449511
0.00667479
0.00850252
0.0092685
0.00875404
0.00724165
0.00549053
0.00414016
0.00324707
0.00266918
0.00222916
0.0018871
0.00160512
0.0014289
0.00153098
0.00194647
0.0027529
0.00405076
0.00606767
0.00909518
0.0133812
0.0191579
0.0266979
0.036333
0.0484069
0.0632043
0.0809584
0.101955
0.126062
0.151165
0.172898
0.189839
0.207039
0.227435
0.243169
0.24904
0.246152
0.217047
0.160836
0.100272
0.0625391
0.0472667
0.0494678
0.0526525
0.0446362
0.0281719
0.0158972
0.00862058
0.00511518
0.00323711
0.00215327
0.00111437
0.000499908
0.000498394
0.000504195
0.000521302
0.000567846
0.000645862
0.000670433
0.000615343
0.000517805
0.000456149
0.000420015
0.000411891
0.000427432
0.000466894
0.000534398
0.000642094
0.00081565
0.00103793
0.0012218
0.00137663
0.00152528
0.00149765
0.00148199
0.00158969
0.00190461
0.0024622
0.00329971
0.00463071
0.00678754
0.00878405
0.00970722
0.009189
0.00759926
0.005719
0.00427096
0.00331354
0.00270227
0.00225033
0.00189345
0.00161132
0.00143761
0.00154746
0.00198412
0.00282143
0.00415813
0.00622975
0.00934381
0.0137674
0.0197593
0.0276188
0.0376997
0.0503598
0.0658935
0.0845617
0.106686
0.131956
0.157631
0.179141
0.1966
0.216311
0.239846
0.257601
0.26419
0.261566
0.230401
0.167896
0.10074
0.0596156
0.0432122
0.0453619
0.0498877
0.0430597
0.0276021
0.0155011
0.00833542
0.0048926
0.003071
0.00206464
0.00110344
0.000492268
0.000505983
0.000508966
0.000517384
0.000546501
0.000616341
0.000670094
0.000639587
0.000552726
0.000479151
0.000440311
0.000431504
0.000445804
0.000483185
0.000550845
0.000663448
0.000852963
0.00110444
0.0013004
0.00146368
0.00160289
0.00157849
0.00157427
0.00170262
0.00206529
0.00267442
0.00352429
0.00478998
0.0069164
0.00910443
0.0102147
0.0096673
0.00797324
0.00593645
0.00438367
0.00336478
0.00272276
0.00226141
0.0018945
0.00161245
0.00144542
0.00156435
0.00202327
0.00289232
0.00426797
0.00639416
0.00959432
0.0141558
0.0203655
0.0285511
0.0390893
0.0523521
0.0686441
0.0882588
0.111537
0.137897
0.163912
0.185162
0.203633
0.226312
0.253031
0.273001
0.280461
0.278268
0.245146
0.175816
0.101481
0.056845
0.0394842
0.0415327
0.047048
0.0413625
0.0269578
0.0150516
0.00803634
0.00467276
0.00290911
0.00197696
0.0010909
0.000478923
0.000515851
0.00051777
0.000517957
0.000534731
0.000586894
0.000660446
0.000654651
0.000585945
0.000504826
0.000462031
0.000452417
0.000465479
0.000500806
0.000568012
0.000684877
0.000890239
0.00117423
0.00138549
0.00155638
0.00168846
0.0016683
0.00167631
0.00182656
0.0022426
0.00291043
0.00377238
0.00497826
0.00706539
0.00945836
0.0107557
0.0102008
0.00837098
0.00614536
0.00447785
0.0033997
0.00273119
0.00226384
0.00188965
0.00160835
0.00145207
0.00158203
0.00206411
0.0029654
0.00437974
0.00656015
0.00984568
0.014545
0.0209747
0.0294925
0.040499
0.0543801
0.0714514
0.0920422
0.116485
0.143821
0.169942
0.19102
0.211066
0.237058
0.266936
0.2894
0.297954
0.29636
0.261443
0.184095
0.102558
0.0543066
0.0362245
0.0382093
0.0443169
0.039764
0.0262403
0.0145473
0.00772258
0.00445642
0.00275313
0.00189124
0.00107681
0.00047163
0.000526662
0.000527577
0.000524423
0.000531208
0.000565221
0.000641608
0.000660076
0.000612884
0.00053453
0.000485486
0.000474269
0.000486164
0.000519577
0.0005859
0.00070662
0.000927574
0.00124711
0.00147821
0.00165386
0.00178346
0.00176756
0.00178967
0.00196184
0.00243744
0.00317221
0.00404722
0.00520029
0.00724075
0.00984534
0.0113176
0.0108022
0.00879177
0.00634494
0.00455283
0.00341635
0.00272982
0.00225688
0.00187811
0.00159909
0.00145733
0.00160087
0.00210688
0.00304043
0.00449282
0.00672685
0.0100968
0.0149336
0.0215851
0.0304406
0.0419256
0.0564397
0.0743105
0.0959024
0.1215
0.149655
0.17568
0.196817
0.219008
0.248534
0.281516
0.30682
0.316774
0.315938
0.278939
0.192353
0.103315
0.0520788
0.033547
0.0357032
0.0419751
0.0383338
0.0254521
0.0139876
0.00739369
0.00424161
0.00260377
0.00180831
0.00106128
0.00046082
0.000537555
0.000538038
0.000533254
0.000531559
0.000552135
0.000616027
0.000659812
0.000632105
0.000562939
0.000511047
0.000496644
0.000507439
0.000539215
0.000604444
0.000729045
0.000965213
0.00132284
0.00158025
0.00175595
0.00188962
0.00187565
0.00191107
0.00210864
0.0026512
0.00346188
0.00435312
0.00546013
0.00745066
0.0102692
0.0119107
0.0114233
0.00922717
0.00653073
0.00460727
0.00341932
0.00271509