/*--------------------------------*- C++ -*----------------------------------*\
| =========                 |                                                 |
| \\      /  F ield         | OpenFOAM: The Open Source CFD Toolbox           |
|  \\    /   O peration     | Version:  4.1                                   |
|   \\  /    A nd           | Web:      www.OpenFOAM.org                      |
|    \\/     M anipulation  |                                                 |
\*---------------------------------------------------------------------------*/
FoamFile
{
    version     2.0;
    format      ascii;
    class       volScalarField;
    location    "7";
    object      k;
}
// * * * * * * * * * * * * * * * * * * * * * * * * * * * * * * * * * * * * * //

dimensions      [0 2 -2 0 0 0 0];

internalField   nonuniform List<scalar> 
6785
(
0.414313
0.000190666
0.000182433
0.000182423
0.000182446
0.000182407
0.000182431
0.00018244
0.000182399
0.000182421
0.000182428
0.000182378
0.000183104
0.000472787
0.425219
0.534293
0.00112561
3.31584e-07
3.09732e-07
2.94872e-07
2.79583e-07
2.64881e-07
2.50045e-07
2.35129e-07
2.21063e-07
2.08837e-07
2.13724e-07
3.93239e-06
0.00445566
0.294217
0.646554
0.0060514
1.02651e-08
4.05263e-09
1.75959e-06
0.000146305
0.000624461
0.00145973
0.00265448
0.00412297
0.00562684
0.00721562
0.0101287
0.0247685
0.116069
0.785571
0.0109773
1.41929e-06
9.10272e-10
5.49587e-07
0.000176475
0.00101761
0.00284636
0.00592597
0.0113235
0.0191044
0.0240833
0.0223324
0.0303247
0.0771398
0.956939
0.0297524
0.000105118
2.50438e-07
1.70277e-06
9.15715e-05
0.000708481
0.00248523
0.0050729
0.00881396
0.0139348
0.0198982
0.0254696
0.0324261
0.0565995
1.11804
0.0843465
0.00302768
0.000121871
1.5262e-05
5.31999e-05
0.000324222
0.00163082
0.00336519
0.00506029
0.00651155
0.00741615
0.00789548
0.003523
0.0116251
1.24405
0.154662
0.0136804
0.00138579
0.000223513
7.62646e-05
0.000192015
0.00101474
0.00229096
0.00316134
0.00334155
0.00358699
0.00467061
0.00704081
0.0080455
1.32553
0.217349
0.0289512
0.00430722
0.000912684
0.000239209
0.000183149
0.000706662
0.00173953
0.00232919
0.00209434
0.00233024
0.00369525
0.00710602
0.00747185
1.36991
0.257849
0.0452838
0.00894746
0.0023883
0.000698634
0.000324678
0.000614577
0.00145899
0.0019949
0.00165034
0.00186713
0.00314228
0.0064985
0.00645043
1.39318
0.273877
0.0579525
0.0147814
0.00497751
0.00172177
0.000826485
0.00082627
0.00146247
0.00194354
0.00166705
0.00172026
0.00261104
0.00589786
0.00859211
1.40398
0.260358
0.0649578
0.0196948
0.00848088
0.0037157
0.00300695
0.00258683
0.00263989
0.00261654
0.00210952
0.00179644
0.00218242
0.00569859
0.0133633
1.43103
0.253379
0.0673797
0.0217971
0.0143579
0.0119263
0.0163303
0.010998
0.00651112
0.00412093
0.00281288
0.00221791
0.0020218
0.00673655
0.0252986
1.47431
0.300393
0.0834369
0.0252062
0.027237
0.0360707
0.0493731
0.0313649
0.0156354
0.00626341
0.00489903
0.00724981
0.00590078
0.0115824
0.0499266
1.38782
0.643943
0.263363
0.104006
0.0495841
0.0455185
0.0690982
0.0452827
0.0253809
0.0145955
0.0143571
0.0196354
0.0251888
0.0369176
0.0713032
1.41709
3.85964
1.77226
0.808535
0.526645
0.405006
0.34466
0.299141
0.257839
0.217507
0.184728
0.159384
0.139027
0.199189
0.0896152
1.12726
1.18027
1.11022
1.09645
1.09171
1.13498
1.07168
1.05906
1.05468
1.09736
1.04257
1.03328
1.06498
1.00647
0.99226
0.984421
1.01632
0.965028
0.953648
0.977206
0.922523
0.906894
0.895507
0.916569
0.864573
0.849008
0.836963
0.854628
0.805387
0.790841
0.802121
0.753944
0.739025
0.726392
0.739273
0.693524
0.680052
0.690591
0.644447
0.630285
0.617764
0.629042
0.584483
0.571814
0.560961
0.576075
0.536891
0.528957
0.552718
0.513515
0.506577
0.503098
0.54054
0.48822
0.472162
0.45791
0.471607
0.419407
0.404382
0.404945
0.353739
0.335566
0.31986
0.308438
0.268398
0.256265
0.249391
0.241802
0.244976
0.252309
0.26794
0.273919
0.279878
0.287486
0.296885
0.300238
0.305254
0.31078
0.312473
0.316527
0.320126
0.322433
0.329728
0.331718
0.333838
0.341592
0.34449
0.350621
0.356255
0.361986
0.367314
0.373132
0.381002
0.390156
0.400754
0.409718
0.418091
0.427078
0.438628
0.449912
0.462488
0.477482
0.490093
0.503903
0.515474
0.528416
0.541405
0.553827
0.56764
0.583619
0.600074
0.623069
0.638695
0.655636
0.671347
0.688046
0.705637
0.723101
0.740645
0.759733
0.788675
0.806186
0.825134
0.841878
0.860374
0.881627
0.903879
0.92888
0.951911
0.986559
0.999402
1.02075
1.04769
1.07266
1.09778
1.12723
1.15897
1.19051
1.24212
1.25354
1.2662
1.29443
1.31909
1.34836
1.3788
1.3599
1.3352
1.30374
1.27902
1.25894
1.13548
1.00762
0.841892
0.665142
0.468938
0.33451
0.298998
0.2563
0.21635
0.166463
0.120224
0.120311
0.10433
0.0890359
0.0887086
0.0784423
0.079283
0.0719583
0.0654677
0.0663457
0.0620893
0.0582586
0.0590603
0.0562778
0.0575528
0.0555055
0.0536517
0.0546703
0.0532637
0.0546596
0.0537271
0.0529206
0.0540795
0.0535548
0.0531615
0.0543737
0.0541387
0.0556887
0.0557547
0.0558992
0.0572031
0.0573378
0.0589696
0.0591487
0.0594188
0.0608232
0.0610416
0.0613061
0.0626526
0.0629549
0.0646618
0.0650063
0.0653589
0.0667055
0.0671175
0.0688388
0.0692295
0.0696827
0.0714015
0.0718394
0.0723033
0.0735573
0.0741241
0.0757711
0.0761767
0.0767121
0.0778067
0.0784655
0.079969
0.0802771
0.0809002
0.0821821
0.0824093
0.0830259
0.0837483
0.0845012
0.0856864
0.0857608
0.0864298
0.0868971
0.0877035
0.0886881
0.0885852
0.0893231
0.0897536
0.0895459
0.090258
0.0903952
0.0912433
0.0919866
0.0804869
0.0771892
0.0729393
0.0687068
0.0651971
0.0620398
0.0595747
0.0578772
0.0575697
0.0587339
0.0629112
0.0728863
0.0870154
0.10359
0.120046
0.133747
0.144981
0.157008
0.173136
0.201508
0.257733
0.341217
0.424795
0.459106
0.479326
0.524641
0.579511
0.633886
0.696341
0.723619
0.699615
0.633559
0.550219
0.474818
0.423182
0.398326
0.393556
0.399442
0.413486
0.441605
0.47985
0.533064
0.617665
0.739403
0.904048
1.11111
1.34483
1.58899
1.8419
2.11379
2.40134
2.70088
3.00912
3.32173
3.63228
3.93251
4.21262
4.46193
4.66973
4.82629
4.92445
4.96115
4.95194
4.91808
4.86583
4.80714
4.7698
4.70445
4.47533
4.01475
3.34157
2.63439
1.99917
1.50107
1.06809
0.847693
0.474668
0.195415
0.119746
0.0836105
0.0799217
0.0749803
0.0703466
0.0666304
0.0634069
0.060869
0.0590488
0.0586896
0.0598583
0.0640754
0.0742013
0.088679
0.105632
0.122355
0.136305
0.147772
0.159759
0.175442
0.203002
0.258211
0.340994
0.423676
0.456845
0.477918
0.525588
0.583004
0.640795
0.705173
0.731112
0.705071
0.637682
0.552709
0.476296
0.424464
0.399783
0.395158
0.400406
0.413461
0.440614
0.47884
0.532783
0.618481
0.741518
0.907032
1.1139
1.34723
1.59278
1.84957
2.12375
2.41342
2.71582
3.02758
3.34433
3.65956
3.96486
4.25018
4.50452
4.71672
4.87661
4.97641
5.0128
5.0015
4.96379
4.90662
4.84183
4.79975
4.73027
4.49344
4.02383
3.35362
2.64414
2.00451
1.5035
1.07636
0.833871
0.452296
0.191946
0.121784
0.0880946
0.0837955
0.0779269
0.0726346
0.0684735
0.0650349
0.0623645
0.0603755
0.0599627
0.0611319
0.0654086
0.075787
0.0908408
0.108468
0.125734
0.140133
0.151954
0.163986
0.179224
0.205679
0.259465
0.341476
0.423177
0.455153
0.477103
0.527019
0.586887
0.648739
0.714951
0.739963
0.711427
0.642928
0.556531
0.479161
0.427373
0.40311
0.398923
0.403252
0.414965
0.440618
0.478532
0.533259
0.620124
0.744602
0.911537
1.11981
1.35593
1.60678
1.8691
2.14679
2.44059
2.7483
3.06634
3.39017
3.71311
4.02649
4.31987
4.58167
4.8001
4.96431
5.06565
5.10044
5.08491
5.0409
4.97665
4.90334
4.85553
4.78103
4.5328
4.0491
3.3758
2.66062
2.01331
1.508
1.08338
0.826517
0.435317
0.191496
0.123396
0.0933658
0.0883875
0.0814088
0.0752947
0.070532
0.0667777
0.0639412
0.0617527
0.0612755
0.0624699
0.0668511
0.0775029
0.0932336
0.111666
0.129596
0.144544
0.156798
0.168912
0.183675
0.208839
0.26083
0.341685
0.421949
0.45261
0.475998
0.528821
0.591911
0.659061
0.726563
0.750694
0.718805
0.648456
0.560664
0.482524
0.431038
0.407379
0.403863
0.407254
0.417483
0.441421
0.47864
0.53398
0.622043
0.748145
0.916969
1.12774
1.36843
1.62614
1.89477
2.17769
2.47786
2.79342
3.12053
3.45439
3.78807
4.11253
4.41676
4.68847
4.91501
5.08463
5.18765
5.21997
5.19864
5.14671
5.07421
4.991
4.93716
4.85725
4.59462
4.09124
3.40672
2.68154
2.0237
1.51229
1.08857
0.809319
0.423987
0.192633
0.124558
0.0991724
0.0934751
0.0853002
0.0782631
0.0727557
0.0685472
0.0654892
0.0630893
0.0625556
0.0637913
0.0683108
0.0792413
0.0957031
0.115024
0.133714
0.149274
0.162009
0.174256
0.188586
0.212374
0.262311
0.341697
0.420295
0.449883
0.475088
0.530678
0.597348
0.670756
0.738513
0.761614
0.726296
0.653623
0.564743
0.48628
0.435436
0.41255
0.409814
0.412323
0.420993
0.443199
0.479555
0.535273
0.624505
0.752387
0.923626
1.13803
1.38483
1.65038
1.92611
2.21612
2.52471
2.85014
3.18842
3.53444
3.88094
4.21842
4.53521
4.81813
5.05349
5.22856
5.33243
5.36069
5.33166
5.27033
5.18895
5.09535
5.03577
4.95098
4.6729
4.14563
3.44473
2.70656
2.0363
1.51697
1.09178
0.792522
0.418502
0.194173
0.125645
0.105464
0.0990393
0.0895921
0.0815634
0.0752098
0.0704048
0.0670273
0.0643868
0.0637969
0.0650926
0.0697903
0.0810076
0.0982275
0.118496
0.138012
0.154233
0.167491
0.179916
0.193841
0.216133
0.263697
0.341195
0.417909
0.446767
0.474236
0.532467
0.603498
0.684093
0.75148
0.772466
0.733569
0.658139
0.56846
0.490229
0.440362
0.418367
0.416412
0.418161
0.42517
0.445569
0.480894
0.536943
0.62739
0.757266
0.93144
1.15038
1.40414
1.67799
1.96214
2.26113
2.57981
2.91686
3.26811
3.62809
3.98913
4.34121
4.6719
4.96698
5.21158
5.39179
5.4954
5.51795
5.47948
5.40778
5.31734
5.21336
5.14829
5.05939
4.76621
4.21235
3.48972
2.7351
2.05102
1.52228
1.09284
0.777829
0.41589
0.196624
0.126489
0.112199
0.105054
0.0942775
0.0852109
0.0779431
0.0724063
0.0685693
0.0656328
0.0649774
0.0663448
0.0712621
0.0827841
0.10078
0.122049
0.142464
0.159394
0.173212
0.185871
0.199437
0.220115
0.264978
0.340178
0.414902
0.443555
0.473605
0.534122
0.610484
0.698791
0.765868
0.783005
0.740218
0.661836
0.571733
0.494398
0.44586
0.424825
0.423547
0.424672
0.429956
0.44858
0.482811
0.539059
0.630752
0.762835
0.940467
1.16478
1.42623
1.70904
2.00297
2.31228
2.64245
2.99255
3.35821
3.73351
4.11038
4.4782
4.82371
5.13153
5.38533
5.56989
5.67168
5.68656
5.63694
5.55417
5.45457
5.34005
5.26915
5.17692
4.87035
4.28819
3.54029
2.7664
2.06741
1.52799
1.09199
0.76432
0.414252
0.199605
0.128133
0.119344
0.111508
0.0993503
0.0892129
0.0809976
0.0746307
0.0701735
0.0668457
0.0660926
0.0675325
0.0727094
0.0845617
0.103348
0.125666
0.147053
0.164749
0.179168
0.192116
0.20537
0.224305
0.266119
0.338619
0.411259
0.440308
0.47316
0.535703
0.618621
0.714826
0.782218
0.793531
0.746059
0.664678
0.574573
0.49883
0.451956
0.431878
0.431083
0.431725
0.435177
0.452003
0.485112
0.541578
0.634602
0.769147
0.95076
1.18112
1.45071
1.74296
2.0479
2.36881
2.71177
3.07616
3.45745
3.84926
4.24304
4.62756
4.98866
5.30961
5.57238
5.76021
5.85828
5.86347
5.8013
5.70718
5.59829
5.47202
5.3941
5.2992
4.98235
4.37203
3.59563
2.79987
2.08501
1.53391
1.08949
0.751704
0.413235
0.202986
0.128934
0.126843
0.11838
0.104798
0.0935627
0.0843851
0.077133
0.0719102
0.0680596
0.0671466
0.0686417
0.0741048
0.0863203
0.105915
0.129331
0.151768
0.170295
0.185364
0.198663
0.211644
0.228712
0.267141
0.33662
0.407079
0.437202
0.472946
0.537393
0.627772
0.732416
0.800812
0.804517
0.751124
0.666746
0.577119
0.503655
0.45876
0.439559
0.438974
0.439245
0.440773
0.455831
0.487814
0.544512
0.638979
0.776272
0.962372
1.19933
1.47738
1.77968
2.09667
2.43036
2.78719
3.16693
3.56488
3.97416
4.38574
4.78778
5.16514
5.49951
5.77077
5.96035
6.05249
6.04608
5.97047
5.86501
5.74613
5.60516
5.51785
5.42085
5.09802
4.46127
3.65433
2.83475
2.10328
1.53971
1.08555
0.739907
0.412776
0.206851
0.129264
0.134609
0.125641
0.110605
0.0982485
0.0880981
0.079942
0.0738524
0.0693298
0.0681607
0.0696723
0.0754254
0.0880344
0.108463
0.133025
0.156595
0.176035
0.191814
0.205527
0.218261
0.233347
0.268082
0.334251
0.402508
0.43436
0.472978
0.539494
0.637617
0.751825
0.821756
0.816514
0.755776
0.668318
0.579639
0.509055
0.466396
0.447912
0.447187
0.447147
0.446635
0.459921
0.490849
0.547867
0.643938
0.78429
0.975336
1.21928
1.50602
1.81892
2.14876
2.49642
2.86813
3.26417
3.67968
4.10731
4.53752
4.95786
5.35211
5.70009
5.97911
6.16853
6.25234
6.23285
6.14367
6.02691
5.89618
5.73543
5.63522
5.53665
5.21315
4.554
3.71515
2.87026
2.12163
1.54493
1.0803
0.728901
0.412599
0.210768
0.130183
0.142479
0.133232
0.11675
0.103255
0.0921155
0.0830549
0.0760477
0.0707231
0.0691699
0.0706362
0.0766398
0.0896872
0.110971
0.136728
0.161516
0.181968
0.198538
0.21273
0.225227
0.238235
0.269016
0.33166
0.397762
0.431949
0.473324
0.542152
0.648102
0.773061
0.844942
0.829954
0.760665
0.669922
0.582543
0.515276
0.475017
0.457013
0.455727
0.455352
0.452708
0.464229
0.494201
0.551661
0.649541
0.793274
0.98964
1.24081
1.53646
1.86054
2.20401
2.5667
2.95418
3.36737
3.80125
4.24801
4.69763
5.13706
5.54882
5.9105
6.19621
6.38308
6.45623
6.42302
6.32092
6.19246
6.04633
5.85857
5.74107
5.64136
5.32285
4.64753
3.7766
2.90551
2.13943
1.549
1.07391
0.718666
0.412578
0.214651
0.130471
0.150145
0.141048
0.123199
0.108564
0.0964131
0.0864481
0.0785112
0.0722998
0.0702233
0.0715547
0.0777389
0.0912619
0.113416
0.140417
0.166512
0.188095
0.205556
0.220289
0.232553
0.243422
0.270059
0.329043
0.393109
0.430141
0.474094
0.545148
0.659502
0.795969
0.870081
0.845084
0.76666
0.672371
0.586391
0.522612
0.484767
0.466937
0.464607
0.463768
0.458918
0.468661
0.497836
0.555919
0.655849
0.803261
1.00522
1.26375
1.56857
1.90436
2.26212
2.64091
3.04497
3.47608
3.9291
4.39576
4.86558
5.3249
5.7548
6.13005
6.42092
6.60249
6.66305
6.61674
6.50304
6.36141
6.19442
5.97078
5.83119
5.7304
5.42227
4.73915
3.83719
2.93952
2.156
1.55115
1.06675
0.709077
0.412572
0.218605
0.130499
0.157103
0.148885
0.129885
0.114147
0.100967
0.0900884
0.0812298
0.0741001
0.0713607
0.0724501
0.0787442
0.0927515
0.11578
0.144069
0.171566
0.194416
0.212885
0.228208
0.240238
0.248972
0.271372
0.326641
0.3889
0.429147
0.475223
0.548579
0.671857
0.820205
0.896673
0.861991
0.774749
0.676721
0.591875
0.531378
0.495766
0.477742
0.473844
0.472307
0.465214
0.47316
0.501726
0.560661
0.662904
0.814253
1.02198
1.28795
1.60221
1.95021
2.32286
2.71869
3.1402
3.58997
4.06285
4.55016
5.04101
5.52107
5.9697
6.35807
6.65202
6.82532
6.87238
6.81509
6.6912
6.53337
6.33843
6.06929
5.90272
5.80014
5.50687
4.82555
3.89525
2.97128
2.17062
1.55065
1.05912
0.699974
0.412448
0.22236
0.130412
0.162637
0.156336
0.136682
0.119955
0.10575
0.093942
0.0841743
0.076135
0.0726228
0.0733557
0.0796829
0.0941576
0.118055
0.147666
0.176657
0.200927
0.220535
0.236471
0.248263
0.254953
0.273151
0.324721
0.385576
0.429119
0.476617
0.552727
0.685069
0.845237
0.924017
0.880686
0.785985
0.684156
0.599751
0.541882
0.508077
0.489447
0.483438
0.480891
0.471543
0.477664
0.50584
0.5659
0.670726
0.826213
1.03979
1.3133
1.6373
1.99793
2.38601
2.7995
3.2396
3.70879
4.20223
4.71096
5.22369
5.72541
6.19323
6.5938
6.8881
7.05041
7.08463
7.01991
6.88672
6.70792
6.47696
6.15287
5.95434
5.84807
5.57304
4.90311
3.94907
2.99977
2.18257
1.5473
1.05071
0.691151
0.412186
0.225943
0.130147
0.165868
0.162744
0.143366
0.125896
0.11072
0.0979762
0.0873101
0.0783945
0.0740423
0.0743075
0.0805917
0.0954965
0.120242
0.151192
0.181769
0.207623
0.228508
0.245042
0.256571
0.261406
0.275597
0.323552
0.383389
0.430049
0.478648
0.557771
0.698936
0.870368
0.951266
0.901185
0.801387
0.695782
0.61073
0.554372
0.521686
0.502022
0.493376
0.489452
0.477866
0.482129
0.510146
0.571635
0.679314
0.839087
1.05855
1.33968
1.67373
2.04739
2.45137
2.88319
3.34301
3.83232
4.34702
4.87796
5.41351
5.93781
6.42508
6.83627
7.12763
7.27707
7.30117
7.23351
7.09073
6.88476
6.60957
6.22176
5.9859
5.8725
5.61819
4.96805
3.99678
3.02394
2.1911
1.54085
1.04125
0.682405
0.411676
0.229235
0.13011
0.165982
0.167196
0.149538
0.131816
0.115812
0.102154
0.0906011
0.080856
0.075635
0.0753377
0.0815109
0.0967972
0.122355
0.154641
0.186891
0.214494
0.236801
0.253876
0.265077
0.268325
0.278877
0.32337
0.382551
0.432016
0.481653
0.563823
0.713176
0.89475
0.977528
0.923567
0.821676
0.712322
0.625309
0.568997
0.536504
0.515379
0.503631
0.49792
0.484157
0.48652
0.514608
0.577848
0.688644
0.85281
1.07816
1.36702
1.7114
2.09842
2.5188
2.9696
3.45032
3.96042
4.49708
5.05105
5.6104
6.15821
6.66481
7.08426
7.36908
7.50535
7.52431
7.45835
7.30416
7.06405
6.73683
6.27739
5.99797
5.87236
5.64045
5.01675
4.03648
3.04277
2.19547
1.53101
1.03052
0.673556
0.410824
0.232218
0.129466
0.16284
0.168627
0.154545
0.137457
0.120918
0.106426
0.0940098
0.0834894
0.0774
0.0764709
0.0824774
0.0980949
0.124421
0.158017
0.192012
0.221527
0.245401
0.262931
0.273686
0.275639
0.283086
0.324354
0.383218
0.43515
0.485896
0.57092
0.727431
0.917487
1.00204
0.947902
0.847023
0.733895
0.643605
0.585763
0.552369
0.529373
0.514161
0.50622
0.490399
0.490815
0.519193
0.58451
0.698681
0.867326
1.09856
1.39528
1.75021
2.15092
2.58812
3.05853
3.56103
4.09295
4.6523
5.23014
5.81436
6.38652
6.9118
7.33627
7.61122
7.73632
7.75703
7.69663
7.52787
7.24657
6.86013
6.32188
5.9915
5.84692
5.63832
5.04614
4.06624
3.05525
2.19492
1.51752
1.01834
0.664448
0.409551
0.234951
0.12865
0.157129
0.166337
0.157561
0.142414
0.125876
0.110724
0.0974956
0.0862615
0.0793232
0.0777243
0.0835222
0.0994269
0.126475
0.161336
0.197128
0.228707
0.254296
0.272187
0.282316
0.283239
0.288233
0.326618
0.385501
0.439609
0.491593
0.579058
0.74135
0.937915
1.02441
0.9741
0.876692
0.760013
0.665338
0.604519
0.569069
0.543806
0.524897
0.514275
0.496572
0.494999
0.523866
0.591581
0.709383
0.882586
1.1197
1.42438
1.79007
2.20473
2.6592
3.14979
3.67473
4.2298
4.81259
5.41521
6.02538
6.62256
7.16511
7.59063
7.85345
7.97208
8.00255
7.9502
7.76277
7.4337
6.98137
6.3577
5.9676
5.79565
5.61032
5.05395
4.08413
3.06038
2.18866
1.50026
1.00462
0.654959
0.407813
0.237298
0.128127
0.149883
0.160577
0.157733
0.14608
0.130446
0.114953
0.101012
0.0891387
0.0813808
0.0791066
0.0846693
0.100829
0.12856
0.164627
0.202241
0.236022
0.263466
0.281645
0.290926
0.291005
0.294251
0.330216
0.389455
0.445598
0.498921
0.588256
0.754702
0.95579
1.04504
1.00195
0.9087
0.78954
0.68991
0.624965
0.586349
0.558435
0.535738
0.522008
0.502631
0.499059
0.528601
0.599019
0.720705
0.898545
1.14155
1.45427
1.83086
2.25974
2.73187
3.24323
3.79133
4.3709
4.97789
5.60623
6.24347
6.86599
7.42349
7.84569
8.09607
8.21564
8.26396
8.22048
8.01004
7.62729
7.1027
6.38744
5.92755
5.71821
5.5549
5.03869
4.08835
3.05718
2.17576
1.47938
0.989295
0.644999
0.405605
0.239267
0.127142
0.142132
0.152599
0.15461
0.147812
0.134306
0.118982
0.104509
0.0920817
0.083543
0.0806144
0.0859368
0.102336
0.130721
0.167929
0.207357
0.243456
0.272897
0.291331
0.299532
0.298853
0.301037
0.335155
0.395107
0.453359
0.508048
0.598575
0.767427
0.971342
1.06447
1.03051
0.941794
0.820771
0.71652
0.646668
0.603932
0.572991
0.546542
0.52935
0.508497
0.502971
0.533376
0.606786
0.732603
0.915163
1.16405
1.48488
1.87248
2.31581
2.806
3.33866
3.91067
4.51622
5.14816
5.80321
6.46859
7.11623
7.68535
8.10011
8.34047
8.4706
8.54384
8.50864
8.27112
7.82948
7.22635
6.41389
5.87288
5.61458
5.47066
4.99947
4.07744
3.04471
2.15497
1.45565
0.972405
0.634508
0.402917
0.240921
0.126084
0.134682
0.143778
0.14896
0.146963
0.137029
0.122637
0.107942
0.095036
0.085776
0.0822341
0.0873371
0.103982
0.133007
0.171289
0.21249
0.250999
0.282576
0.30129
0.308208
0.306765
0.308499
0.341419
0.402495
0.463099
0.519109
0.610116
0.779665
0.985084
1.08334
1.05895
0.974746
0.852372
0.744264
0.669099
0.621531
0.587205
0.557139
0.536247
0.514057
0.506733
0.538179
0.614853
0.745031
0.932392
1.18716
1.51612
1.91482
2.37281
2.88143
3.43594
4.03254
4.66471
5.32332
6.00612
6.7006
7.37244
7.94889
8.35313
8.58913
8.74068
8.84417
8.81574
8.54776
8.0426
7.35461
6.43998
5.80545
5.48528
5.35654
4.93596
4.05038
3.02209
2.12569
1.42941
0.953988
0.623447
0.399758
0.242177
0.125018
0.128097
0.135301
0.141897
0.143879
0.138057
0.125711
0.111243
0.0979496
0.0880444
0.0839447
0.0888759
0.105801
0.135466
0.17476
0.21766
0.258632
0.292494
0.311576
0.31706
0.314797
0.316595
0.349001
0.411663
0.474907
0.532178
0.623017
0.791728
0.997739
1.10247
1.08696
1.00667
0.883341
0.772203
0.691687
0.638861
0.600831
0.567333
0.542636
0.519201
0.510358
0.543006
0.623203
0.757947
0.950179
1.21081
1.5479
1.95775
2.43059
2.95801
3.5349
4.15679
4.8164
5.50331
6.21496
6.93924
7.63341
8.21227
8.60491
8.84534
9.02923
9.16632
9.14287
8.84192
8.26904
7.48987
6.46879
5.72752
5.33151
5.21219
4.84831
4.00667
2.9885
2.08806
1.40042
0.934071
0.611801
0.396163
0.243095
0.123934
0.122695
0.127993
0.134549
0.139216
0.137386
0.127878
0.114249
0.100764
0.0903113
0.0857203
0.0905518
0.107823
0.138146
0.178398
0.222895
0.266344
0.302655
0.322249
0.326209
0.323054
0.325346
0.357927
0.422623
0.488755
0.547279
0.637448
0.804061
1.01024
1.12264
1.11496
1.03736
0.913327
0.799593
0.713911
0.655656
0.613661
0.576922
0.548449
0.523816
0.513866
0.547865
0.631828
0.771308
0.968457
1.23494
1.58012
2.00115
2.48902
3.03557
3.63538
4.28325
4.97114
5.68813
6.42967
7.18406
7.89766
8.47391
8.85665
9.11281
9.33894
9.5112
9.49126
9.15576
8.51126
7.6346
6.5034
5.6418
5.1554
5.03835
4.73724
3.94628
2.94316
2.04255
1.36861
0.9127
0.599572
0.392147
0.243656
0.123111
0.118589
0.122276
0.127814
0.133723
0.135215
0.128957
0.116793
0.10341
0.0925384
0.0875334
0.092357
0.110076
0.141097
0.182263
0.228231
0.27413
0.313065
0.333368
0.335777
0.331667
0.334822
0.36826
0.43537
0.504598
0.564429
0.653601
0.817156
1.02349
1.14449
1.1439
1.06748
0.942601
0.826056
0.73538
0.671686
0.625537
0.585714
0.553612
0.527803
0.517276
0.552781
0.640727
0.785073
0.987148
1.25944
1.61266
2.04488
2.54794
3.11396
3.7372
4.4117
5.12868
5.87733
6.65011
7.43437
8.16348
8.73278
9.11054
9.39521
9.67173
9.87948
9.8623
9.4915
8.77171
7.79128
6.5467
5.55138
4.9602
4.83726
4.60423
3.86971
2.88511
1.99035
1.33407
0.88994
0.586784
0.387734
0.24391
0.121915
0.11569
0.118198
0.122245
0.128122
0.131904
0.128867
0.118734
0.105812
0.0946844
0.0893559
0.0942792
0.112576
0.144366
0.186416
0.233718
0.281993
0.323735
0.344992
0.345878
0.340771
0.345117
0.380087
0.449929
0.522428
0.583657
0.671668
0.831486
1.0379
1.16876
1.17495
1.09854
0.971607
0.851617
0.755877
0.686763
0.636343
0.593541
0.55805
0.531078
0.5206
0.557798
0.649909
0.799196
1.00616
1.28421
1.6454
2.08881
2.6072
3.19302
3.84016
4.54191
5.2887
6.06984
6.87601
7.68922
8.4291
8.98869
9.36952
9.69576
10.0287
10.2717
10.2576
9.85142
9.05283
7.96241
6.60127
5.45987
4.75053
4.61296
4.45185
3.77791
2.81265
1.93429
1.29705
0.865881
0.573474
0.382953
0.243906
0.120785
0.11376
0.115509
0.118045
0.122974
0.127894
0.127647
0.11993
0.107885
0.0967042
0.0911593
0.0963034
0.115338
0.148
0.190918
0.239412
0.289947
0.334663
0.35717
0.356621
0.350491
0.356338
0.393504
0.466348
0.542267
0.604998
0.691807
0.847462
1.05378
1.19584
1.2095
1.13144
1.00115
0.876586
0.775341
0.700744
0.645991
0.60027
0.561686
0.533592
0.523826
0.562973
0.659385
0.813624
1.0254
1.30913
1.67821
2.13279
2.66663
3.27254
3.94408
4.67364
5.45094
6.26557
7.10697
7.94737
8.69295
9.24238
9.63693
10.0169
10.4104
10.6886
10.6787
10.2377
9.35697
8.15042
6.66929
5.37132
4.53244
4.37177
4.28412
3.67214
2.72697
1.87464
1.25778
0.840638
0.559684
0.377843
0.243602
0.120021
0.112523
0.113834
0.115132
0.118629
0.123644
0.125482
0.120294
0.109548
0.098548
0.0929163
0.0984145
0.118365
0.152039
0.195831
0.245379
0.298016
0.345849
0.369944
0.368107
0.360944
0.368586
0.4086
0.484688
0.564137
0.628481
0.714119
0.865434
1.07141
1.22576
1.2483
1.16699
1.0319
0.901337
0.793803
0.713519
0.654404
0.605803
0.56445
0.535321
0.526926
0.568371
0.669174
0.828297
1.04474
1.33407
1.71095
2.17667
2.72608
3.35237
4.04872
4.80666
5.61512
6.46415
7.3425
8.20739
8.95396
9.49565
9.91607
10.3603
10.8168
11.1308
11.1274
10.6525
9.68648
8.35754
6.75248
5.29007
4.3133
4.12242
4.10665
3.55355
2.63015
1.81168
1.21653
0.814368
0.545478
0.372456
0.243071
0.119004
0.111719
0.112803
0.113228
0.11522
0.119545
0.122646
0.119814
0.110714
0.100162
0.0945983
0.100598
0.121659
0.156514
0.201212
0.251685
0.306232
0.357285
0.383336
0.380414
0.37224
0.381961
0.425458
0.505018
0.588042
0.654106
0.738658
0.885699
1.09117
1.25842
1.29147
1.20579
1.06419
0.926125
0.811312
0.725001
0.661515
0.610077
0.566286
0.536263
0.529886
0.574052
0.679297
0.843146
1.06408
1.35891
1.74349
2.22031
2.78536
3.43229
4.15389
4.94069
5.7809
6.66495
7.57972
8.46766
9.21184
9.75117
10.2099
10.7267
11.2478
11.5992
11.6055
11.0979
10.0436
8.58544
6.85163
5.2204
4.10123
3.87529
3.92612
3.42227
2.52613
1.74592
1.1736
0.787262
0.530944
0.366844
0.242368
0.118104
0.111137
0.11211
0.112016
0.112713
0.115884
0.119448
0.118557
0.111307
0.101495
0.0961766
0.102843
0.125222
0.16145
0.207114
0.258399
0.314639
0.368966
0.397356
0.393601
0.384482
0.396558
0.444138
0.527403
0.613976
0.681844
0.765446
0.908514
1.11348
1.29385
1.33878
1.24819
1.09808
0.950989
0.82787
0.73511
0.667252
0.613049
0.567151
0.536476
0.53269
0.580076
0.689778
0.858093
1.0833
1.38351
1.77567
2.26353
2.8443
3.51211
4.25935
5.07549
5.94799
6.86739
7.81686
8.72366
9.46324
10.0113
10.5207
11.1163
11.703
12.0946
12.1146
11.5757
10.4302
8.8355
6.966
5.16575
3.90435
3.6417
3.74901
3.27932
2.41876
1.6779
1.12935
0.75954
0.516191
0.361073
0.241479
0.117368
0.110624
0.111541
0.111204
0.110947
0.112817
0.116166
0.116672
0.11129
0.102485
0.0976227
0.10514
0.129056
0.166864
0.213576
0.265586
0.323284
0.380881
0.411995
0.407701
0.397758
0.41245
0.464668
0.5519
0.64194
0.711654
0.794499
0.934098
1.13886
1.33226
1.38997
1.29424
1.13346
0.97577
0.843389
0.743776
0.671543
0.614685
0.567023
0.536032
0.535329
0.586511
0.700632
0.873052
1.10227
1.40774
1.80734
2.30619
2.90273
3.59164
4.36488
5.21081
6.11609
7.07098
8.05281
8.97283
9.70818
10.2759
10.8501
11.5286
12.182
12.6179
12.6563
12.0882
10.8482
9.10912
7.09355
5.12805
3.73013
3.43248
3.57978
3.12896
2.30904
1.60816
1.08414
0.731444
0.501341
0.355224
0.240485
0.116805
0.110081
0.110964
0.110571
0.109702
0.110373
0.113027
0.114354
0.110672
0.103081
0.0989016
0.107481
0.133168
0.172769
0.22063
0.273307
0.332225
0.393023
0.427228
0.422718
0.412102
0.42968
0.487062
0.57856
0.671967
0.743505
0.825841
0.962635
1.16779
1.37407
1.44491
1.3438
1.17004
1.00017
0.857689
0.750906
0.674319
0.614963
0.565894
0.535021
0.537836
0.593405
0.711857
0.887933
1.12088
1.43146
1.83838
2.34812
2.96046
3.67067
4.47026
5.34639
6.28494
7.27525
8.28667
9.21531
9.94925
10.5485
11.1986
11.9629
12.6848
13.1698
13.2321
12.6375
11.2994
9.40774
7.23118
5.10715
3.58494
3.25681
3.41715
2.97761
2.19814
1.53729
1.03836
0.703231
0.486537
0.349377
0.239405
0.116644
0.109455
0.110308
0.109955
0.108767
0.108484
0.110193
0.111808
0.109504
0.103249
0.0999817
0.109866
0.137571
0.179176
0.228301
0.281618
0.341522
0.405387
0.443005
0.438628
0.427512
0.448262
0.511316
0.607439
0.704128
0.7774
0.859512
0.994276
1.20068
1.41974
1.50361
1.39657
1.20748
1.02378
0.870531
0.756385
0.675527
0.613874
0.563766
0.533542
0.540278
0.600789
0.723428
0.902636
1.13901
1.45454
1.86863
2.38916
3.01731
3.74899
4.57524
5.482
6.45427
7.47969
8.51767
9.45153
10.189
10.8317
11.5663
12.4183
13.211
13.7511
13.8433
13.2256
11.7858
9.73285
7.37666
5.09929
3.47372
3.11163
3.25913
2.82712
2.0872
1.46589
0.992447
0.675167
0.471932
0.343621
0.238324
0.116368
0.108724
0.109545
0.109268
0.107976
0.107038
0.10775
0.109211
0.107896
0.102982
0.10084
0.1123
0.142288
0.186099
0.236602
0.290567
0.351242
0.417972
0.459265
0.455382
0.443952
0.468177
0.537409
0.638604
0.73853
0.813384
0.895576
1.02914
1.23786
1.46973
1.56623
1.45219
1.2453
1.04617
0.881631
0.760088
0.675126
0.611433
0.560695
0.53171
0.542758
0.608686
0.735287
0.917056
1.15655
1.47687
1.89796
2.42916
3.0731
3.82638
4.6796
5.61741
6.62381
7.68378
8.74511
9.68216
10.4298
11.1271
11.9528
12.8937
13.7604
14.3623
14.4913
13.8544
12.31
10.0864
7.53623
5.10312
3.38777
2.97936
3.10341
2.67796
1.97719
1.39459
0.946803
0.647527
0.457686
0.338044
0.237289
0.116365
0.107886
0.108672
0.108476
0.107219
0.105891
0.105714
0.106704
0.105983
0.102293
0.101469
0.114802
0.147352
0.193556
0.245546
0.3002
0.361459
0.430783
0.475937
0.472906
0.461351
0.489367
0.565289
0.672123
0.775297
0.85154
0.934125
1.06734
1.27957
1.52443
1.63295
1.51024
1.28297
1.06688
0.890692
0.76189
0.673094
0.607681
0.556782
0.529651
0.545403
0.617114
0.747347
0.93108
1.1734
1.49832
1.92624
2.46797
3.12764
3.90265
4.78311
5.75238
6.79329
7.88695
8.96845
9.908
10.6734
11.4355
12.3572
13.3881
14.3329
15.0039
15.1773
14.5258
12.8743
10.4702
7.713
5.11998
3.31665
2.85117
2.94894
2.53055
1.86896
1.324
0.901845
0.620596
0.443967
0.332741
0.236295
0.1168
0.106951
0.107704
0.107582
0.106431
0.104916
0.104036
0.104389
0.103898
0.101232
0.101885
0.117406
0.152808
0.201574
0.255148
0.310561
0.372248
0.443835
0.492946
0.491111
0.479619
0.511738
0.594866
0.708025
0.814535
0.891974
0.975279
1.10897
1.32599
1.58416
1.70395
1.57027
1.31985
1.08547
0.897442
0.761686
0.669437
0.60269
0.552151
0.527507
0.548352
0.626085
0.75949
0.944588
1.18946
1.5188
1.95335
2.50542
3.18075
3.97758
4.88554
5.88667
6.96236
8.0886
9.18728
10.13
10.9215
11.7573
12.7781
13.9002
14.928
15.6765
15.9028
15.2422
13.4815
10.8861
7.90813
5.15011
3.25653
2.72666
2.79638
2.38565
1.76327
1.25473
0.857997
0.594665
0.430944
0.327818
0.235456
0.117194
0.105939
0.106664
0.106603
0.10558
0.104025
0.102661
0.102314
0.101762
0.0998848
0.10213
0.120171
0.158717
0.210187
0.265428
0.321696
0.383692
0.457157
0.510212
0.50989
0.498643
0.535168
0.626026
0.746275
0.856292
0.934794
1.01917
1.15414
1.37726
1.64922
1.7793
1.63174
1.3552
1.1014
0.901644
0.759426
0.664193
0.596557
0.546952
0.525433
0.551752
0.635598
0.771573
0.95746
1.20465
1.53821
1.97916
2.54137
3.23224
4.05094
4.98666
6.02003
7.13067
8.2881
9.40131
10.3492
11.1751
12.0921
13.2143
14.4288
15.5452
16.3801
16.669
16.0055
14.1345
11.3362
8.12263
5.19377
3.20678
2.6055
2.64542
2.24406
1.66084
1.18739
0.815693
0.570032
0.418784
0.323367
0.234836
0.117918
0.104876
0.105578
0.105567
0.104664
0.103162
0.101483
0.100482
0.0996534
0.0983563
0.102283
0.123185
0.165162
0.219444
0.276418
0.333657
0.39587
0.470784
0.527654
0.529128
0.518301
0.559511
0.658633
0.78679
0.900561
0.980112
1.06595
1.20292
1.43347
1.71988
1.85905
1.69408
1.38821