/*--------------------------------*- C++ -*----------------------------------*\
| =========                 |                                                 |
| \\      /  F ield         | OpenFOAM: The Open Source CFD Toolbox           |
|  \\    /   O peration     | Version:  4.1                                   |
|   \\  /    A nd           | Web:      www.OpenFOAM.org                      |
|    \\/     M anipulation  |                                                 |
\*---------------------------------------------------------------------------*/
FoamFile
{
    version     2.0;
    format      ascii;
    class       volScalarField;
    location    "7";
    object      nut;
}
// * * * * * * * * * * * * * * * * * * * * * * * * * * * * * * * * * * * * * //

dimensions      [0 2 -1 0 0 0 0];

internalField   nonuniform List<scalar> 
6785
(
0.270876
1.1986e-08
1.12773e-08
1.12721e-08
1.12732e-08
1.1272e-08
1.1274e-08
1.12716e-08
1.12693e-08
1.12707e-08
1.12678e-08
1.12648e-08
1.14462e-08
4.76687e-08
0.186856
0.307912
2.76187e-05
1.64446e-10
1.53434e-10
1.46199e-10
1.38625e-10
1.31389e-10
1.2396e-10
1.16603e-10
1.09759e-10
1.03909e-10
1.08322e-10
1.00729e-08
0.000406288
0.237334
0.341299
0.00191341
3.31673e-11
1.37704e-11
1.225e-07
6.85881e-05
0.000343649
0.00136843
0.00325753
0.00539276
0.00612303
0.00633749
0.00594413
0.0073674
0.0916321
0.373694
0.00493357
5.86756e-07
2.43759e-12
2.07026e-08
0.000143173
0.000658584
0.00239441
0.00365917
0.00517535
0.00881693
0.0145593
0.0183529
0.0186718
0.0825067
0.412551
0.017252
5.84103e-05
5.14122e-08
2.78088e-07
0.000171171
0.000415578
0.00171993
0.00252396
0.00293705
0.00419861
0.00840175
0.0307362
0.0476276
0.12559
0.447698
0.0431341
0.00505803
4.09819e-05
8.36061e-06
0.000154759
0.00022946
0.00127963
0.00186776
0.00179691
0.00197803
0.00199207
0.00240704
0.00090534
0.0460788
0.473856
0.0753762
0.0162929
0.00487394
0.000774185
0.000160959
0.00031479
0.00102914
0.0020191
0.00161087
0.00127414
0.00130177
0.00138059
0.0043094
0.036175
0.489341
0.106722
0.0308603
0.0131546
0.00606003
0.00088878
0.000377399
0.00101712
0.00255218
0.00180976
0.00105179
0.00128172
0.00136046
0.00327909
0.0399948
0.495514
0.117537
0.0493324
0.0238464
0.0175901
0.00490733
0.000965495
0.0014147
0.00331517
0.00258002
0.00111497
0.00145621
0.00140054
0.00291581
0.0323466
0.495849
0.130824
0.0473078
0.0297525
0.0259468
0.018278
0.00473442
0.00264394
0.00452185
0.00335327
0.00165951
0.00173402
0.0016922
0.00292685
0.0338442
0.495806
0.119914
0.0557071
0.0296747
0.0350301
0.0351571
0.018651
0.0130743
0.00960384
0.00626327
0.0031422
0.00238735
0.00238866
0.00359082
0.0373011
0.489652
0.237173
0.0594229
0.0359175
0.041649
0.0750575
0.125794
0.0592811
0.0171518
0.00983675
0.00591421
0.00422094
0.00305764
0.00656278
0.047219
0.503268
0.143916
0.0729059
0.0363604
0.0843
0.133442
0.0495572
0.0341648
0.0432927
0.0156921
0.00679917
0.0112209
0.0099362
0.0158313
0.0750047
0.485791
0.593035
9.28711
0.557209
0.0541889
0.0139613
0.0472738
0.0395124
0.0240474
0.0614925
0.061245
0.0254895
0.0444457
0.0604846
0.105815
0.494981
0.815106
0.417143
0.330231
13.9458
2.69436
3.21462
3.07135
1.76271
0.579034
0.304019
0.199109
0.168247
0.148437
0.100939
2.97778
5.42761
2.9522
2.93365
2.92703
5.3205
2.89912
2.88174
2.87546
5.22872
2.85809
2.84523
5.15031
2.80777
2.7878
2.77679
5.03079
2.74925
2.73305
4.93349
2.68843
2.66574
2.64925
4.77994
2.60375
2.58027
2.56205
4.61693
2.5133
2.49006
4.47017
2.43027
2.40576
2.38484
4.28978
2.33017
2.30736
4.14755
2.24721
2.22264
2.20101
3.9653
2.14475
2.12263
2.10413
3.81304
2.06764
2.0555
3.76509
2.03807
2.02766
2.0243
3.76605
2.00736
1.97668
1.94902
3.55812
1.87989
1.84976
3.34692
1.74748
1.70701
1.6736
2.98482
1.57081
1.54868
2.78095
1.54697
1.56125
1.58445
2.90517
1.64426
1.65794
1.67409
3.01862
1.69693
1.7051
3.05345
1.71097
1.71552
0.460522
0.481577
0.501342
0.521985
0.488672
0.507766
0.522503
0.543333
0.563448
0.584087
0.609098
0.632261
0.659736
0.617294
0.639584
0.642022
0.656334
0.657603
0.676168
0.684514
0.704414
0.647751
0.617762
0.631769
0.650442
0.665535
0.687935
0.7063
0.723236
0.746151
0.765823
0.701594
0.707273
0.707125
0.731681
0.731355
0.746222
0.743032
0.743776
0.731465
0.596368
0.632769
0.618159
0.60432
0.581137
0.557307
0.526322
0.496873
0.469274
0.459821
0.447629
0.434106
0.398557
0.375963
0.357892
0.340128
0.328882
0.320393
0.334643
0.311748
0.304995
0.289964
0.299322
0.299157
0.315306
0.300989
0.30193
0.296318
0.289323
0.262044
0.24017
0.24364
0.222891
0.223655
0.276013
0.187336
0.151414
0.485019
0.215477
0.325053
0.991979
1.60946
1.48869
0.848282
1.36976
0.7959
1.29538
1.23416
0.726518
1.18466
1.14524
0.684208
1.11552
0.671667
1.09994
1.07901
0.654043
1.06921
0.650788
1.06771
1.05722
0.64689
1.0591
1.05268
0.646609
1.05919
0.651745
1.07067
1.07123
0.662161
1.08521
0.670771
1.10205
1.10391
0.68308
1.12005
1.12233
0.694454
1.13739
0.704
1.15588
1.15933
0.717764
1.17477
0.727669
1.19386
1.19761
0.741963
1.21662
1.22075
0.756247
1.23552
0.765935
1.25426
1.25786
0.779508
1.27135
0.78849
1.28903
1.29171
0.800765
1.30706
1.30891
0.811346
1.31937
0.818474
1.33445
1.33503
0.827648
1.34365
0.833623
1.35728
1.35635
0.841109
1.36541
1.36379
0.845544
1.37002
0.850039
1.38189
2.29483
2.30002
2.32404
2.22296
2.15797
2.06151
1.94014
1.80607
1.67832
1.65489
1.8548
2.46377
3.41313
4.63599
5.82031
6.43556
6.50449
6.63158
6.82324
6.89108
8.19878
10.6187
13.0166
13.659
13.0506
11.9614
10.9246
9.90707
10.5258
10.8015
10.4118
9.95669
9.947
10.0254
10.1952
10.5773
11.3276
12.6457
14.1862
15.5046
16.319
16.8593
17.4248
18.3076
19.4889
20.8949
22.4086
23.8055
24.9121
25.7879
26.5224
27.1344
27.6299
28.0135
28.2945
28.4832
28.5938
28.6452
28.6602
28.65
28.7095
28.72
28.8251
29.4678
30.4005
31.4052
32.374
32.6476
31.6982
29.9255
27.8925
25.8691
23.0048
20.7945
17.9194
10.1336
4.7718
2.74426
1.88355
2.30029
2.29325
2.28608
2.17834
2.12445
2.06259
1.96148
1.82962
1.69632
1.66841
1.86925
2.49187
3.471
4.72657
5.90715
6.49321
6.54757
6.63357
6.76508
6.76805
8.09174
10.5892
13.0611
13.7482
13.1226
12.0586
11.0363
9.96615
10.5203
10.6988
10.3122
9.88364
9.89446
9.97805
10.1395
10.5146
11.2586
12.5916
14.154
15.488
16.3107
16.8438
17.4078
18.2985
19.4908
20.9047
22.4164
23.7968
24.8875
25.755
26.4781
27.0761
27.5562
27.9224
28.1835
28.3499
28.4363
28.4631
28.4554
28.4274
28.474
28.4684
28.5768
29.2459
30.2255
31.2737
32.2857
32.5961
31.6698
29.9267
27.9231
25.9222
22.8821
20.7605
17.8065
10.0235
4.88564
2.74355
1.93324
2.35983
2.32226
2.28222
2.14741
2.07903
2.0372
1.96653
1.85783
1.73479
1.69033
1.86862
2.47857
3.46261
4.73411
5.91977
6.50496
6.55722
6.62014
6.73398
6.68474
8.0065
10.558
13.0896
13.8316
13.2549
12.2344
11.1909
9.99836
10.5525
10.6939
10.282
9.86803
9.87803
9.95075
10.0968
10.4671
11.2032
12.5396
14.1165
15.4697
16.3013
16.8254
17.3871
18.2846
19.4894
20.916
22.4305
23.7931
24.8732
25.7386
26.4527
27.0393
27.5068
27.8594
28.1052
28.2549
28.3233
28.3317
28.3078
28.2685
28.3065
28.2782
28.3862
29.0817
30.1152
31.2104
32.2724
32.6188
31.7001
29.9737
27.9789
25.9808
22.8476
20.812
17.697
9.75409
4.91979
2.81308
1.9701
2.45575
2.39216
2.30976
2.14163
2.04939
2.01518
1.97905
1.88431
1.77192
1.722
1.89313
2.5038
3.51112
4.81212
6.00322
6.58037
6.62795
6.66124
6.74702
6.63112
7.94249
10.5437
13.139
13.9408
13.3972
12.4534
11.3662
10.067
10.5834
10.7106
10.2685
9.87919
9.88771
9.9478
10.0817
10.4545
11.1868
12.5129
14.0941
15.4659
16.3055
16.8201
17.3843
18.2926
19.5136
20.9545
22.4695
23.8287
24.9117
25.7796
26.4886
27.0677
27.5276
27.8723
28.1094
28.2492
28.3063
28.302
28.2662
28.2188
28.2493
28.1905
28.2903
29.0063
30.0935
31.2353
32.3518
32.7342
31.8049
30.0757
28.0794
26.075
22.8504
20.8743
17.5805
9.42281
4.97247
2.86793
2.00174
2.56545
2.47654
2.35406
2.14876
2.02179
1.97467
1.96942
1.89713
1.80429
1.75008
1.9092
2.51523
3.54642
4.88462
6.09377
6.66898
6.71167
6.71991
6.77385
6.58675
7.87955
10.5284
13.181
14.0497
13.5752
12.7018
11.5592
10.1509
10.6339
10.7598
10.2723
9.90413
9.90782
9.95457
10.081
10.4633
11.199
12.5072
14.0872
15.4714
16.3204
16.8274
17.3961
18.3188
19.5592
21.0166
22.5373
23.9043
25.0025
25.8775
26.5875
27.1664
27.6267
27.9721
28.2095
28.3482
28.4019
28.3911
28.3476
28.2961
28.321
28.2262
28.3117
29.0439
30.1854
31.3756
32.5511
32.968
32.004
30.2409
28.2235
26.1981
22.9165
20.9567
17.4442
9.10815
5.01815
2.92376
2.03814
2.68671
2.57704
2.41577
2.17371
2.00822
1.93666
1.94868
1.89936
1.83048
1.78023
1.93417
2.53594
3.59095
4.96589
6.19404
6.76693
6.8043
6.7899
6.81058
6.5517
7.8182
10.4952
13.2172
14.1592
13.7665
12.9639
11.7476
10.2897
10.6815
10.8186
10.281
9.9332
9.93088
9.9668
10.0922
10.4912
11.237
12.5225
14.1
15.4899
16.3486
16.849
17.4239
18.3635
19.6262
21.1039
22.638
24.0247
25.1465
26.0331
26.7513
27.3373
27.8052
28.1586
28.4029
28.5462
28.6007
28.5855
28.5341
28.4781
28.4958
28.3581
28.4219
29.1667
30.3653
31.6128
32.8587
33.3147
32.2959
30.4634
28.4044
26.346
23.0444
21.0647
17.2654
8.85428
5.05219
2.99368
2.07436
2.81226
2.68706
2.49154
2.21497
2.01007
1.90372
1.91413
1.88587
1.84527
1.804
1.95563
2.55313
3.63156
5.04574
6.29906
6.87167
6.90252
6.86998
6.85378
6.52168
7.75329
10.444
13.2383
14.2599
13.973
13.2263
11.9234
10.4618
10.736
10.8822
10.2904
9.96193
9.95026
9.97925
10.1105
10.5321
11.2937
12.5546
14.1291
15.5164
16.3869
16.8839
17.4673
18.4264
19.7141
21.2154
22.7698
24.1852
25.3392
26.2435
26.9765
27.5764
28.0582
28.4252
28.6811
28.8322
28.8891
28.8691
28.8068
28.7446
28.7516
28.5641
28.5979
29.3527
30.6133
31.9336
33.2674
33.7724
32.6826
30.7438
28.6192
26.5153
23.2188
21.1757
17.0531
8.64963
5.08574
3.06751
2.12148
2.93607
2.80283
2.57884
2.27169
2.03042
1.88585
1.87599
1.86325
1.84874
1.822
1.97734
2.57168
3.67139
5.12464
6.40758
6.98238
7.00575
6.95923
6.90921
6.49757
7.68543
10.3985
13.2404
14.3478
14.1563
13.4756
12.1093
10.6646
10.7968
10.9426
10.295
9.98704
9.96197
9.99054
10.135
10.5843
11.3661
12.6017
14.1722
15.5527
16.4358
16.9324
17.5267
18.5072
19.8222
21.3504
22.9322
24.3842
25.5794
26.5061
27.2595
27.8784
28.3786
28.7627
29.0323
29.1921
29.2508
29.2234
29.1449
29.0739
29.064
28.8196
28.8133
29.5748
30.9055
32.3151
33.7614
34.3296
33.158
31.0744
28.8623
26.7013
23.429
21.2847
16.8182
8.48407
5.12159
3.14487
2.15673
3.04853
2.91796
2.67402
2.34108
2.06806
1.8855
1.83972
1.83697
1.84438
1.82952
1.99273
2.58643
3.70608
5.19891
6.51772
7.09898
7.11428
7.05817
6.9754
6.47849
7.61266
10.3445
13.2177
14.4195
14.3174
13.6983
12.3019
10.8967
10.9112
10.998
10.2923
10.0049
9.96275
10.0001
10.1656
10.6464
11.4509
12.6616
14.2259
15.5966
16.4923
16.994
17.6019
18.6057
19.9497
21.5082
23.1235
24.6176
25.8585
26.8164
27.5947
28.2368
28.7584
29.1614
29.4453
29.6131
29.672
29.6341
29.5328
29.4505
29.4155
29.1077
29.0489
29.8133
31.2242
32.7403
34.3283
34.9764
33.7167
31.4487
29.1295
26.8991
23.6632
21.3859
16.569
8.35172
5.15785
3.23809
2.19903
3.13642
3.02447
2.77327
2.42037
2.12077
1.90392
1.81608
1.80279
1.83941
1.83255
2.00051
2.59582
3.734
5.26632
6.6273
7.22118
7.22932
7.16749
7.04987
6.46444
7.53493
10.277
13.1705
14.4745
14.4577
13.8713
12.4804
11.16
11.0898
11.0459
10.2824
10.0094
9.9507
10.0091
10.2037
10.7182
11.5466
12.7329
14.2884
15.6481
16.5567
17.0681
17.6925
18.7211
20.0956
21.6875
23.3418
24.8824
26.1726
27.1706
27.9773
28.6451
29.1899
29.6123
29.91
30.0843
30.1411
30.09
29.9582
29.863
29.7914
29.4147
29.2893
30.0524
31.5548
33.1938
34.9552
35.7014
34.3508
31.855
29.4155
27.1035
23.9099
21.473
16.3188
8.26586
5.20517
3.3321
2.24239
3.21058
3.11067
2.87186
2.50648
2.18523
1.93921
1.80954
1.76478
1.82774
1.83765
1.9995
2.59633
3.75118
5.32326
6.7336
7.34853
7.35236
7.28819
7.1297
6.45543
7.45245
10.1934
13.1004
14.5133
14.577
14.007
12.6319
11.446
11.321
11.0953
10.262
9.99199
9.92557
10.0197
10.251
10.7999
11.6517
12.8145
14.3578
15.7059
16.628
17.1542
17.7981
18.8525
20.2588
21.8872
23.585
25.1755
26.5187
27.5648
28.4023
29.0974
29.6661
30.1077
30.418
30.5969
30.6497
30.5834
30.4162
30.3007
30.1807
29.7316
29.5246
30.2821
31.8873
33.6629
35.6299
36.4938
35.0467
32.2883
29.7151
27.309
24.1582
21.5405
16.1017
8.25765
5.25845
3.42985
2.27708
3.28625
3.15987
2.96334
2.59614
2.25843
1.98824
1.82012
1.73543
1.81027
1.83915
2.00428
2.58588
3.75423
5.36604
6.83323
7.48026
7.48466
7.42044
7.21491
6.4501
7.36621
10.0928
13.0116
14.5362
14.6666
14.0619
12.7568
11.7407
11.5894
11.148
10.2329
9.94528
9.88982
10.0354
10.3102
10.8922
11.7658
12.9058
14.4329
15.7697
16.7057
17.2514
17.9178
18.9991
20.4383
22.106
23.8509
25.4941
26.8938
27.996
28.8655
29.5886
30.1813
30.6412
30.9627
31.1444
31.1914
31.1089
30.9043
30.756
30.5746
30.0523
29.7493
30.4969
32.2134
34.1353
36.3495
37.3596
35.7896
32.7424
30.0212
27.5094
24.3973
21.5837
15.8965
8.30191
5.31197
3.54105
2.32357
3.36224
3.20209
3.03753
2.68489
2.3375
2.04754
1.84559
1.72005
1.78561
1.83746
2.01007
2.5812
3.74432
5.39038
6.92237
7.6153
7.62666
7.56264
7.30512
6.4483
7.27779
9.95969
12.9108
14.5399
14.7216
14.0453
12.8512
12.0222
11.8712
11.1999
10.1942
9.87851
9.84909
10.0608
10.3841
10.9966
11.8885
13.0065
14.5124
15.8387
16.7889
17.3586
18.0507
19.16
20.6331
22.3428
24.1373
25.8354
27.2944
28.4588
29.363
30.1141
30.7305
31.208
31.5391
31.7218
31.7617
31.663
31.4217
31.2236
30.9665
30.3735
29.9628
30.6946
32.5256
34.5988
37.0891
38.2268
36.5721
33.2123
30.3242
27.6978
24.6167
21.5798
15.6992
8.3813
5.3666
3.64936
2.35515
3.44261
3.25422
3.07923
2.76597
2.41926
2.11392
1.88278
1.71868
1.75548
1.83262
2.0153
2.58056
3.74129
5.39787
6.99715
7.75198
7.7777
7.71085
7.39761
6.45152
7.19012
9.8003
12.8084
14.5252
14.7052
13.9721
12.9096
12.2619
12.1346
11.2667
10.1504
9.80376
9.81127
10.1011
10.4756
11.1145
12.0198
13.1162
14.5955
15.9124
16.8769
17.4748
18.196
19.3344
20.8424
22.5961
24.4422
26.197
27.7172
28.9438
29.8916
30.6706
31.31
31.804
32.1435
32.3257
32.3577
32.2434
31.9681
31.6997
31.3523
30.6947
30.1675
30.8747
32.8163
35.0409
37.7821
39.1086
37.3625
33.6912
30.6098
27.8666
24.8058
21.5042
15.506
8.48334
5.42046
3.758
2.40296
3.52829
3.31629
3.08359
2.82879
2.49911
2.18435
1.92869
1.73008
1.7297
1.82581
2.0187
2.58222
3.74194
5.40984
7.05285
7.88797
7.93601
7.8592
7.48601
6.46177
7.10717
9.63671
12.6942
14.478
14.6241
13.8558
12.9225
12.4264
12.3426
11.3799
10.1865
9.77583
9.78564
10.1617
10.5868
11.2472
12.1601
13.2343
14.6817
15.9903
16.9691
17.5991
18.3529
19.5219
21.0656
22.8646
24.7636
26.5766
28.1596
29.4497
30.449
31.2552
31.9168
32.4265
32.7732
32.9539
32.9775
32.8482
32.5427
32.1819
31.7314
31.0185
30.3678
31.037
33.0777
35.4525
38.4837
40.021
38.1447
34.1752
30.8571
28.0078
24.9553
21.3703
15.3221
8.59918
5.47867
3.86991
2.44077
3.54952
3.41102
3.0967
2.85694
2.56998
2.25531
1.98025
1.75205
1.71314
1.81603
2.01828
2.58702
3.74684
5.4239
7.09429
8.02126
8.09879
8.00129
7.56004
6.48115
7.03376
9.47094
12.5635
14.3976
14.4838
13.7084
12.9153
12.6056
12.552
11.536
10.3259
9.84077
9.81931
10.2469
10.7192
11.3959
12.3094
13.3607
14.7703
16.0722
17.065
17.7305
18.5206
19.7217
21.3019
23.147
25.0996
26.9721
28.6192
29.9743
31.0339
31.8658
32.5487
33.0732
33.4263
33.605
33.6202
33.4761
33.1423
32.6701
32.1074
31.3501
30.5703
31.1811
33.3036
35.8291
39.1804
40.9467
38.9196
34.6677
31.0333
28.1154
25.0601
21.1861
15.1519
8.72255
5.54406
3.98483
2.46535
3.56792
3.46578
3.11879
2.84131
2.62138
2.32214
2.03421
1.78226
1.70605
1.80141
2.01391
2.594
3.75665
5.44179
7.13684
8.14735
8.26232
8.13189
7.61112
6.5097
6.9732
9.30786
12.4137
14.2828
14.2962
13.5414
12.9213
12.8068
12.7599
11.7159
10.551
9.98844
9.91937
10.3567
10.873
11.5616
12.4676
13.4951
14.8612
16.1576
17.1644
17.8684
18.6983
19.9332
21.5504
23.4418
25.4485
27.3816
29.0938
30.5148
31.6379
32.5009
33.2041
33.7429
34.1019
34.2784
34.2859
34.1262
33.7594
33.1682
32.4885
31.697
30.7822
31.3067
33.4905
36.1716
39.8646
41.8689
39.668
35.1425
31.142
28.1875
25.0866
20.9481
14.9902
8.84857
5.61603
4.11299
2.51196
3.52345
3.51089
3.17332
2.83339
2.63845
2.37846
2.08702
1.81794
1.70722
1.78101
2.00555
2.60318
3.77118
5.46479
7.17902
8.26007
8.42221
8.24823
7.65899
6.54283
6.93243
9.15573
12.2455
14.1358
14.0746
13.3641
12.9458
13.0196
12.9534
11.8903
10.8147
10.1831
10.0688
10.4894
11.048
11.7447
12.6352
13.637
14.9546
16.2466
17.2671
18.0122
18.8853
20.1557
21.8101
23.7477
25.8088
27.8032
29.5814
31.0692
32.2553
33.1593
33.8819
34.4346
34.7992
34.9742
34.9755
34.7989
34.3841
33.6752
32.886
32.0673
31.0098
31.4143
33.6385
36.4862
40.5332
42.7711
40.3703
35.5733
31.1901
28.2234
25.034
20.6597
14.8335
8.97342
5.69576
4.2377
2.5429
3.42525
3.50447
3.18246
2.83281
2.60415
2.41554
2.13454
1.85646
1.71493
1.76215
1.99497
2.6135
3.79049
5.49378
7.22324
8.35256
8.57389
8.34974
7.70111
6.58169
6.91353
9.0187
12.0696
13.9615
13.8308
13.1843
12.9896
13.2342
13.131
12.0256
11.0433
10.3738
10.239
10.6437
11.2435
11.9453
12.8123
13.7855
15.0515
16.3392
17.3731
18.1615
19.0807
20.388
22.0797
24.0631
26.1789
28.2353
30.0802
31.6357
32.886
33.8407
34.5815
35.1477
35.5183
35.693
35.6904
35.4955
35.0189
34.1848
33.3115
32.4692
31.2577
31.5063
33.7504
36.7829
41.1863
43.635
41.0065
35.9727
31.1847
28.202
24.8887
20.3315
14.6802
9.09401
5.7806
4.36171
2.56794
3.28038
3.42926
3.17673
2.85702
2.57207
2.42144
2.17206
1.89481
1.72695
1.74752
1.98412
2.62373
3.81453
5.52976
7.27147
8.41747
8.71299
8.43767
7.73678
6.62431
6.91567
8.90201
11.8981
13.7685
13.5743
13.0084
13.0509
13.4414
13.2948
12.1698
11.1901
10.5107
10.398
10.8198
11.4589
12.1634
12.9992
13.9395
15.1535
16.4345
17.4826
18.316
19.2836
20.6291
22.358
24.3868
26.5572
28.6761
30.5885
32.2126
33.5287
34.5453
35.3027
35.8821
36.2592
36.4357
36.4321
36.2168
35.6628
34.6981
33.772
32.9098
31.53
31.5868
33.8315
37.0746
41.8265
44.4514
41.56
36.3161
31.101
28.0967
24.6266
19.9904
14.5295
9.20793
5.86848
4.48313
2.60207
3.10306
3.28269
3.13552
2.83162
2.54689
2.38193
2.19453
1.92929
1.74093
1.73742
1.97428
2.63301
3.8433
5.57364
7.32648
8.47948
8.83558
8.51437
7.76583
6.66886
6.93658
8.81098
11.7427
13.5663
13.3118
12.8412
13.126
13.6348
13.4491
12.3206
11.331
10.636
10.5685
11.0199
11.6935
12.3982
13.1963
14.0995
15.2609
16.5333
17.5959
18.4755
19.4931
20.8775
22.6436
24.7172
26.9424
29.1243
31.1049
32.7986
34.1812
35.2579
36.0451
36.6379
37.0227
37.2037
37.2025
36.9636
36.3163
35.2231
34.2769
33.3945
31.8303
31.6609
33.8877
37.3754
42.4572
45.2093
42.0209
36.5642
30.9314
27.9183
24.2397
19.6503
14.3799
9.31359
5.96307
4.5895
2.62318
2.91077
3.08437
3.04641
2.80241
2.53296
2.33371
2.19554
1.95613
1.75451
1.73102
1.96602
2.64074
3.87753
5.62658
7.39053
8.54449
8.93652
8.58268
7.78846
6.71414
6.97341
8.7501
11.6142
13.3662
13.0553
12.684
13.2101
13.8097
13.5952
12.4663
11.4715
10.7644
10.7583
11.2439
11.9464
12.6489
13.4039
14.2658
15.3741
16.636
17.7135
18.6398
19.7081
21.1317
22.9347
25.053
27.3329
29.5783
31.628
33.3921
34.8425
35.9805
36.809
37.4154
37.8095
37.9985
38.0028
37.7366
36.9816
35.7736
34.8342
33.9276
32.1623
31.7346
33.9252
37.6996
43.0836
45.8874
42.3727
36.6659
30.7199
27.624
23.7327
19.3065
14.2313
9.41017
6.06605
4.67673
2.63948
2.71676
2.86376
2.91649
2.75796
2.50255
2.2946
2.16342
1.9711
1.76531
1.72531
1.95807
2.64757
3.91799
5.68995
7.46568
8.61348
9.01015
8.6456
7.8051
6.75993
7.02361
8.72255
11.5212
13.1796
12.8222
12.5417
13.2927
13.9689
13.7338
12.5962
11.6017
10.9006
10.9656
11.4899
12.217
12.9144
13.6221
14.4384
15.4937
16.7427
17.8357
18.8087
19.9274
21.39
23.2299
25.3926
27.7274
30.0367
32.1562
33.9919
35.5113
36.7133
37.5957
38.2154
38.6211
38.8223
38.834
38.5327
37.6639
36.3658
35.4491
34.5122
32.5303
31.814
33.9502
38.0605
43.7122
46.4512
42.5853
36.5491
30.4799
27.192
23.1189
18.9558
14.0832
9.49688
6.17388
4.74634
2.67624
2.55069
2.65925
2.75398
2.69075
2.46087
2.25952
2.10795
1.96963
1.77093
1.71901
1.95022
2.65624
3.96426
5.76496
7.55374
8.68922
9.05046
8.70616
7.81602
6.80659
7.08536
8.73005
11.4693
13.0203
12.62
12.4153
13.3694
14.1245
13.8651
12.706
11.7154
11.0423
11.1853
11.7557
12.505
13.1938
13.8507
14.617
15.62
16.8533
17.963
18.982
20.1499
21.6506
23.5274
25.7345
28.1244
30.4982
32.6883
34.5966
36.1865
37.4547
38.4008
39.0383
39.459
39.6772
39.6969
39.3501
38.3711
37.0164
36.1246
35.1504
32.9389
31.9049
33.9685
38.4688
44.35
46.8474
42.5715
36.2358
30.1934
26.592
22.4274
18.5809
13.9349
9.57288
6.28366
4.80478
2.67586
2.41693
2.4938
2.57996
2.60171
2.42447
2.22932
2.06193
1.94602
1.76886
1.7109
1.94219
2.66852
4.0175
5.8525
7.65646
8.77437
9.08773
8.76722
7.82115
6.85201
7.15759
8.77331
11.4609
12.897
12.4518
12.3049
13.4371
14.2838
13.9959
12.7994
11.8196
11.1803
11.4133
12.0398
12.8104
13.4864
14.0896
14.8025
15.7535
16.9672
18.0957
19.1593
20.3742
21.9119
23.8255
26.0772
28.5225
30.9613
33.223
35.205
36.8668
38.203
39.2124
39.8848
40.3253
40.5661
40.5921
40.1877
39.1135
37.74
36.8624
35.8438
33.3933
32.013
33.9854
38.931
45.0036
47.0024
42.2193
35.7544
29.8315
25.7949
21.7232
18.1647
13.7917
9.63809
6.39278
4.85219
2.66729
2.3019
2.3593
2.42397
2.49046
2.38847
2.18842
2.02395
1.89518
1.75655
1.69858
1.93438
2.68559
4.07995
5.95532
7.77551
8.87055
9.12677
8.82907
7.82007
6.89749
7.23976
8.8524
11.496
12.8141
12.3175
12.2219
13.4943
14.4498
14.1364
12.8892
11.918
11.3137
11.6494
12.3421
13.1342
13.7939
14.3402
14.9877
15.8919
17.0852
18.234
19.3405
20.5988
22.172
24.1225
26.4193
28.9204
31.4249
33.7591
35.8158
37.5508
38.9567
40.0319
40.7561
41.2225
41.4922
41.5202
41.0462
39.9028
38.5482
37.6635
36.5937
33.8989
32.1432
34.0052
39.4475
45.6785
46.8255
41.4159
35.1096
29.341
24.8267
21.0134
17.7171
13.6109
9.69099
6.49932
4.89579
2.70704
2.20903
2.25242
2.30326
2.36858
2.34438
2.14568
1.9894
1.84329
1.7314
1.68173
1.92673
2.70886
4.15416
6.0764
7.91233
8.97873
9.16769
8.8902
7.83567
6.94432
7.32902
8.96363
11.5753
12.772
12.2143
12.1666
13.5404
14.6225
14.2968
13.0388
12.0156
11.4482
11.8979
12.6648
13.4776
14.1118
14.5901
15.1744
16.0358
17.2089
18.3777
19.5248
20.8224
22.4291
24.4168
26.7592
29.3167
31.8876
34.2952
36.428
38.2375
39.7145
40.8581
41.6542
42.1533
42.4593
42.4829
41.9279
40.7506
39.4489
38.5299
37.4011
34.461
32.2996
34.1473
40.013
46.3781
46.2231
40.0293
34.249
28.5809
23.7265
20.3059
17.2474
13.3936
9.72681
6.60157
4.93822
2.7025
2.13288
2.17067
2.20023
2.24922
2.27556
2.10999
1.95732
1.79997
1.68918
1.65895
1.92044
2.74
4.24327
6.21912
8.06811
9.09904
9.21232
8.94676
7.87512
6.99238
7.4286
9.10294
11.7002
12.7681
12.1388
12.1331
13.5765
14.7993
14.4765
13.2634
12.1137
11.5931
12.1662
13.0118
13.847
14.4274
14.8424
15.3671
16.1855
17.34
18.5263
19.7117
21.0432
22.6816
24.7067
27.0955
29.71
32.3482
34.8303
37.0402
38.9254
40.4747
41.6876
42.5571
43.12
43.4722
43.4804
42.8376
41.667
40.4459
39.4653
38.2667
35.0847
32.5471
34.488
40.8946
47.0966
45.125
37.8567
33.0505
27.4973
22.5647
19.6131
16.7658
13.1508
9.74398
6.69781
4.98154
2.72419
2.06794
2.1024
2.11773
2.151
2.189
2.0845
1.91723
1.76399
1.64691
1.629
1.91668
2.78114
4.35069
6.3871
8.24271
9.23089
9.26207
8.99238
7.94042
7.04078
7.54576
9.28969
11.8721
12.7968
12.0865
12.1135
13.6051
14.9767
14.6714
13.5431
12.2747
11.7609
12.4633
13.3882
14.2235
14.7584
15.1053
15.5655
16.3425
17.4797
18.6797
19.9
21.2598
22.9278
24.9908
27.4268
30.0991
32.8055
35.3631
37.6515
39.6136
41.236
42.5178
43.4572
44.0944
44.4978
44.506
43.7814
42.659
41.5385
40.4759
39.1911
35.7706
32.9404
35.0219
42.1126
47.8002
43.5393
35.2046
31.3715
26.1364
21.4054
18.9488
16.2832
12.894
9.74462
6.78661
5.02648
2.73776
2.00972
2.04218
2.04387
2.06953
2.09798
2.05196
1.87434
1.73525
1.6074
1.6002
1.91712
2.83478
4.48128
6.58322
8.43488
9.37293
9.31837
9.01834
8.03272
7.12243
7.70094
9.53211
12.0898
12.8508
12.0522
12.1004
13.6308
15.1516
14.8776
13.8538
12.506
12.0024
12.7973
13.8064
14.6188
15.1047
15.3772
15.7693
16.5079
17.6284
18.8381
20.0886
21.4705
23.1663
25.2676
27.7518
30.4828
33.2582
35.8926
38.2607
40.3009
41.9972
43.3475
44.3542
45.0634
45.5243
45.5319
44.7656
43.731
42.7203
41.5652
40.1789
36.5127
33.4745
35.7311
43.5265
48.7859
41.6497
32.6971
29.5398
24.6252
20.28
18.3275
15.8109
12.6293
9.70962
6.86714
5.0757
2.78057
1.955
1.98621
1.98552
1.9973
2.01314
2.00406
1.83665
1.70996
1.57018
1.57367
1.92301
2.90384
4.64096
6.80935
8.64484
9.52317
9.38256
9.04435
8.15224
7.24212
7.89903
9.83191
12.3496
12.9223
12.0306
12.0931
13.6591
15.3227
15.093
14.1728
12.7989
12.3286
13.1923
14.2534
15.0442
15.4666
15.6569
15.9778
16.6823
17.787
19.0015
20.276
21.6737
23.3958
25.5359
28.0692
30.8597
33.7051
36.4175
38.8667
40.9864
42.7574
44.1765
45.2502
46.0335
46.5568
46.5654
45.7972
44.8844
43.9821
42.7298
41.2524
37.3524
34.1393
36.5957
45.0225
50.0938
39.9943
30.7119
27.7778
23.1135
19.2236
17.765
15.3604
12.3634
9.65072
6.93915
5.12856
2.83387
1.9018
1.93204
1.93127
1.92894
1.93564
1.93991
1.80612
1.67361
1.53822
1.54996
1.93633
2.99218
4.83478
7.07302
8.86762
9.67891
9.45532
9.07346
8.29752
7.39941
8.14104
10.1868
12.6451
13.0039
12.0163
12.0973
13.6958
15.4906
15.3183
14.4804
13.1409
12.7416
13.6693
14.7344
15.498
15.8433
15.9434
16.1902
16.8659
17.9528
19.1695
20.4602
21.8678
23.615
25.7945
28.3779
31.2287
34.1451
36.9368
39.4686
41.6692
43.5159
45.0043
46.147
47.0094
47.5983
47.6127
46.8835
46.1194
45.3164
43.9681
42.4178
38.3251
34.9254
37.5911
46.6748
51.5678
38.7099
29.1625
26.2159
21.6683
18.2694
17.2764
14.9443
12.1038
9.57916
7.00227
5.18566
2.88327
1.84903
1.8783
1.87776
1.86562
1.87374
1.86898
1.77829
1.63168
1.51609
1.53023
1.95936
3.10438
5.06889
7.37716
9.09729
9.83869
9.53711
9.10487
8.46528
7.59465
8.42627
10.5921
12.9674
13.0887
12.0048
12.1143
13.7455
15.6573
15.556
14.7577
13.5199
13.2395
14.2162
15.2663
15.9805
16.234
16.236
16.4073
17.0585
18.1251
19.3413
20.639
22.0514
23.8229
26.0424
28.6766
31.5886
34.5771
37.4494
40.0653
42.3484
44.272
45.8311
47.0464
47.9943
48.6508
48.6796
48.0309
47.4352
46.7173
45.2823
43.6693
39.4329
35.8167
38.686
48.1457
53.0113
37.735
27.6695
24.7927
20.3119
17.4398
16.8726
14.5759
11.8657
9.50531
7.05614
5.24634
2.95869
1.79623
1.82446
1.82465
1.80948
1.81479
1.80099
1.74079
1.59177
1.49425
1.51563
1.99509
3.24626
5.34989
7.72205
9.32744
10.0005
9.62814
9.13905
8.65073
7.82513
8.75253
11.0413
13.3058
13.1719
11.9926
12.1447
13.8105
15.8256
15.8096
15.0245
13.9273
13.8161
14.8095
15.8427
16.4909
16.6378
16.5337
16.6307
17.2598
18.3096
19.5154
20.8101
22.2229
24.0184
26.2787
28.9645
31.9383
34.9998
37.9542
40.656
43.0231
45.0252
46.657
47.9498
48.9904
49.7153
49.7717
49.2439
48.8309
48.1851
46.6757
44.9954
40.6754
36.8085
39.8522
49.6403
54.2536
36.9421
26.1721
23.4691
19.0584
16.7719
16.541
14.2674
11.6652
9.43863
7.10043
5.30977
3.02118
1.74328
1.77048
1.77215
1.75926
1.75408
1.728
1.69604
1.55261
1.46381
1.51096
2.04741
3.4251
5.68464
8.1052
9.55167
10.1616
9.72827
9.17627
8.84706
8.08679
9.11641
11.526
13.6489
13.2504
11.9776
12.1891
13.8922
16.0094
16.0744
15.301
14.3535
14.4611
15.4806
16.4621
17.0282
17.0534
16.8356
16.8613
17.4682
18.5076
19.6885
20.9708
22.3811
24.2008
26.5025
29.2406
32.2768
35.4122
38.4501
41.2394
43.6925
45.7747
47.4821
48.8586
49.9989
50.7925
50.894
50.525
50.3047
49.7273
48.153
46.4102
42.0525
37.8963
41.0548
50.9738
55.3133
36.3405
24.7525
22.2398
17.9289
16.295
16.2964
14.0332
11.5148
9.38742
7.13419
5.37706
3.08477
1.69028
1.71654
1.71964
1.70852
1.69281
1.67341
1.64261
1.52145
1.42659
1.51227
2.12432
3.64985
6.07945
8.52018
9.76512
10.3229
9.8372
9.2169
9.04447
8.37576
9.51374
12.0371
13.9845
13.3234
11.9587
12.2486
13.9946
16.2199
16.3456
15.5869
14.7829
15.1651
16.2072
17.1206
17.5912
17.4795
17.1405
17.0994
17.6836
18.712
19.858
21.1186
22.5246
24.3694
26.7131
29.5039
32.603
35.8132
38.9359
41.8148
44.3557
46.5201
48.3065
49.7739
51.0201
51.883
52.0509
51.8747
51.8535
51.3463
49.72
47.9423
43.5643
39.0762
42.2614
52.0612
56.4401
35.9589
23.4381
20.968
16.9578
16.0461
16.1581
13.8911
11.4252
9.33698
7.15686
5.44668
3.16714
1.63746
1.6629
1.66722
1.65694
1.63867
1.61511
1.57363
1.4889
1.39787
1.51737
2.2259
3.93095
6.53866
8.95672
9.96598
10.4761
9.95431
9.26137
9.23354
8.68609
9.94017
12.5654
14.2999
13.3917
11.9356
12.3252
14.1237
16.461
16.6215
15.8822
15.1933
15.8861
16.9623
17.8143
18.1787
17.9148
17.4468
17.3452
17.9048
18.9105
20.0213
21.2507
22.6526
24.5234
26.9098
29.7537
32.9159
36.2016
39.4107
42.381
45.0119
47.2608
49.1304
50.6963
52.0538
52.9875
53.2455
53.291
53.473
53.0416
51.3751
49.5953
45.2099
40.3452
43.4434
52.8262
57.524
35.9367
22.2439
19.6933
16.1914
16.0536
16.1515
13.8616
11.407
9.29963
7.16813
5.52043
3.23584
1.58514
1.60988
1.61467
1.60604
1.58789
1.55514
1.52613
1.45426
1.36528
1.52446
2.34557
4.26957
7.05992
9.40097
10.1544
10.61
10.0799
9.31026
9.4013
9.01247
10.3923
13.1012
14.5951
13.4498
11.9087
12.4219
14.2837
16.7363
16.9004
16.1881
15.5731
16.5909
17.7104
18.5407
18.7898
18.3581
17.7545
17.5981
18.1299
19.099
20.1747
21.3647
22.764
24.6622
27.0921
29.9891
33.2145
36.5764
39.8732
42.9369
45.6601
47.9963
49.954
51.6264
53.0993
54.1067
54.4801
54.7704
55.1578
54.8117
53.1124
51.3685
46.9874
41.701
44.5791
53.2151
58.7299
36.3531
21.2567
18.4738
15.6853
16.3513
16.3002
13.9653
11.4666
9.27429
7.16729
5.59705
3.32783
1.53369
1.55771
1.56297
1.55533
1.53931
1.49644
1.48068
1.40838
1.3421
1.5556
2.50256
4.66674
7.64408
9.82784
10.327
10.7228
10.2158
9.36279
9.52471
9.35535
10.867
13.6345
14.8728
13.4916
11.8792
12.5428
14.479
17.0492
17.1802
16.5052
15.9935
17.2574
18.4718
19.3022
19.424
18.8079
18.0662
17.8568
18.356
19.2768
20.3128
21.4582
22.8578
24.785
27.2591
30.2096
33.498
36.9364
40.3223
43.4816
46.2995
48.7261
50.7774
52.5645
54.1559
55.2416
55.7554
56.3081
56.9015
56.6543
54.9433
53.261
48.8941
43.1422
45.6588
53.4653
60.1108
37.2244
20.5526
17.3616
15.351
16.8507
16.5551
14.2017
11.5803
9.25834
7.1559
5.68303
3.42224
1.4834
1.5067
1.51207
1.5058
1.48841
1.44902
1.42121
1.35989
1.32427
1.60978
2.73637
5.18758
8.28777
10.2019
10.4815
10.8135
10.3628
9.42193
9.65713
9.72355
11.3508
14.1553
15.1329
13.514
11.8497
12.6931
14.7149
17.4032
17.4583
16.8301
16.4709
17.9176
19.2628
20.1015
20.0806
19.2627
18.3806
18.1182
18.5791
19.4409
20.4259
21.5288
22.9326
24.8903
27.4098
30.4141
33.7655
37.2807
40.7569
44.0138
46.9291
49.4498
51.6007
53.5107
55.2228
56.3932
57.0715
57.8982
58.6968
58.5648
56.9126