/*--------------------------------*- C++ -*----------------------------------*\
| =========                 |                                                 |
| \\      /  F ield         | OpenFOAM: The Open Source CFD Toolbox           |
|  \\    /   O peration     | Version:  4.1                                   |
|   \\  /    A nd           | Web:      www.OpenFOAM.org                      |
|    \\/     M anipulation  |                                                 |
\*---------------------------------------------------------------------------*/
FoamFile
{
    version     2.0;
    format      ascii;
    class       volScalarField;
    location    "7";
    object      p;
}
// * * * * * * * * * * * * * * * * * * * * * * * * * * * * * * * * * * * * * //

dimensions      [0 2 -2 0 0 0 0];

internalField   nonuniform List<scalar> 
6785
(
572.559
506.445
455.732
405.999
359.993
316.778
276.23
238.111
202.252
168.087
134.978
104.171
76.1288
42.3833
6.65053
30.7728
13.4299
17.4603
13.0804
10.3162
7.3159
4.76831
2.82295
1.70993
1.56227
2.26803
4.09249
7.8853
12.1401
13.4786
-5.67386
-11.3177
-1.26025
-2.29464
1.43824
3.71751
6.31517
8.66425
10.8285
12.767
14.4812
16.0567
17.4552
18.5315
18.9165
39.9099
36.6379
40.925
36.3425
36.4329
34.0785
32.3495
30.294
28.2889
26.3188
24.7522
23.8506
23.0222
22.0719
21.3684
19.142
15.6431
17.2895
13.0809
13.4926
11.3731
10.4388
9.24379
8.29291
7.45499
6.88194
6.51684
5.71246
4.91729
5.10161
1.04747
-1.35918
0.568052
-2.14605
-0.694469
-1.8434
-1.72043
-1.98047
-2.1328
-2.27996
-2.3502
-2.25907
-2.19927
-1.92542
-0.945252
4.24389
3.45994
5.65111
3.99101
5.70807
5.15287
5.68662
5.85823
6.06836
6.27741
6.50938
6.77948
7.25273
7.75908
8.99236
14.9243
15.277
17.3316
16.35
18.0985
18.0362
18.8751
19.4511
20.0745
20.7334
21.4268
22.1047
22.9116
23.5881
24.5761
25.5545
26.5283
28.2988
27.6756
29.288
29.41
30.2545
30.8791
31.5328
32.2081
32.9036
33.5751
34.3318
34.939
35.7635
35.9596
37.3225
38.7464
38.3494
39.7735
39.884
40.6436
41.1368
41.6744
42.2203
42.7983
43.3878
44.0571
44.5862
45.3556
46.6623
48.0812
49.0328
48.7929
49.971
49.9929
50.6536
50.9134
51.2546
51.5368
51.8445
52.1996
52.6187
53.0025
53.4868
53.7175
54.5372
55.0451
54.6401
55.362
55.0546
55.3435
55.2029
55.1657
54.9853
54.8187
54.6927
54.6529
54.7746
54.7263
57.0461
56.7088
56.3323
55.4261
55.3856
54.4814
54.1539
53.4506
52.8643
52.0901
51.3179
50.6293
50.1582
49.8884
49.1257
48.5317
48.4669
47.0619
44.8745
43.065
40.8569
39.3455
37.7698
36.6836
35.7491
35.1442
34.9028
34.9796
34.7278
33.7068
63.508
59.7146
53.0221
46.1759
39.9727
34.1629
30.8531
29.6645
28.679
28.0978
27.6659
27.2074
26.6796
25.9116
24.8619
50.2632
50.2241
50.2533
50.2482
50.2442
50.2309
50.2416
50.2254
50.2273
50.2035
50.2268
50.1491
50.2472
50.186
50.1308
50.1372
50.1344
50.1734
50.0407
50.2207
50.1292
50.0399
50.0413
50.1059
50.1043
50.0003
50.002
50.0617
50.1049
49.9251
50.1606
50.0706
49.9495
49.943
50.0108
50.0578
49.8819
50.0813
50.0155
49.906
49.8735
49.9497
49.9533
49.8527
49.8121
49.8498
49.9048
49.7443
49.8849
49.8066
49.7248
49.6607
49.7335
49.7005
49.6181
49.5707
49.6108
49.8472
49.7647
49.6953
50.2973
50.2517
50.2678
50.3806
50.7938
50.7099
51.1178
51.6829
51.1909
51.9208
52.3318
50.4969
49.3019
51.1531
50.9476
42.511
47.5378
47.9104
26.9252
32.6017
36.3853
36.7525
39.085
35.3185
33.9311
37.4018
37.6459
38.0627
37.6022
37.4019
38.7794
41.1457
42.6718
32.5579
32.5314
34.469
35.8763
34.9535
34.9517
35.0197
36.1636
40.0973
33.4201
33.9497
33.4882
34.4526
36.6599
37.5574
37.6744
38.2348
37.754
44.1665
39.6745
39.954
39.6643
39.3601
40.7239
43.1317
43.3941
40.2713
43.2723
44.09
45.7248
45.9279
44.6116
43.428
42.8393
43.3806
40.5468
47.61
46.4676
43.2422
42.7217
41.6878
39.5967
38.024
35.0378
29.7986
38.4755
41.4049
36.739
34.0842
30.4573
26.952
23.9851
21.6942
18.3745
14.6961
14.1283
18.8582
14.6555
13.664
12.4305
9.81163
4.43317
3.34101
5.50779
-4.01482
8.68355
6.12128
3.71507
8.48452
5.22474
6.73504
6.39183
7.91533
9.51611
7.06441
8.72043
9.83764
8.14966
8.63249
8.2134
8.96327
9.97577
8.4062
8.76145
8.29904
8.98871
9.70113
7.93493
8.90553
9.55033
8.17967
8.43691
7.94154
8.50397
9.27887
7.8369
8.08339
7.54112
8.18295
8.82501
6.98853
7.9569
8.60754
7.09382
7.34051
6.71877
7.36247
8.23456
6.50663
6.7711
6.05859
6.8903
7.68275
5.2549
6.57434
7.48917
5.33284
5.65892
4.71148
5.79747
7.23522
4.37888
4.7638
3.53489
5.19887
6.77034
1.86586
4.73831
7.01316
1.93515
2.46699
0.219262
3.22511
7.57279
-0.892445
-0.317867
-3.77832
1.41956
7.09868
-10.4148
-0.486191
8.80715
-11.5411
-10.327
-18.923
-11.1013
20.1877
-0.00411249
-0.00803594
-0.00883868
-0.00971752
-0.0105574
-0.0102706
-0.00690944
-0.000608631
0.0071903
0.013637
0.0199833
0.0251489
0.0271714
0.0275147
0.028856
0.0284621
0.0274177
0.0318468
0.0408875
0.0507944
0.0625009
0.0754982
0.0939292
0.0877935
0.0099805
-0.0661344
-0.104944
-0.0963117
-0.0710163
-0.0331294
-0.0046661
0.00938618
0.0186387
0.0238001
0.0294413
0.0330397
0.0324404
0.0279138
0.0286567
0.0343834
0.0301375
0.0284187
0.0337018
0.037669
0.0374423
0.0314137
0.0177432
-0.00251151
-0.0111474
-0.0104531
-0.0102115
-0.0145937
-0.0227651
-0.0337637
-0.0467975
-0.0606533
-0.0746195
-0.0876987
-0.0999108
-0.111657
-0.123482
-0.135827
-0.152771
-0.172417
-0.192997
-0.20933
-0.22083
-0.213735
-0.203384
-0.1597
-0.127254
-0.0170439
0.126733
0.26299
0.527711
0.409953
0.561391
0.667242
0.41752
-0.0064189
-0.0169525
-0.0263248
-0.0295155
-0.0282338
-0.0192973
-0.00421498
0.0159454
0.039364
0.0639689
0.0879988
0.10484
0.115346
0.118448
0.119041
0.119241
0.121129
0.124528
0.128903
0.141677
0.150697
0.145909
0.124063
0.0456753
-0.121571
-0.196608
-0.174951
-0.0611784
0.0363623
0.0511665
0.032786
0.0360167
0.0464396
0.0533883
0.0638148
0.0713083
0.0769924
0.0777882
0.0780919
0.0848065
0.0898
0.0824975
0.0869216
0.0867134
0.0753706
0.0489133
0.015612
-0.0060547
-0.00685832
-0.0211337
-0.0449632
-0.0735679
-0.106157
-0.14019
-0.173002
-0.200551
-0.220104
-0.227631
-0.222516
-0.205748
-0.181366
-0.156653
-0.149402
-0.16448
-0.21346
-0.292942
-0.414466
-0.528465
-0.662186
-0.609242
-0.511376
-0.28102
0.0324374
0.388243
1.03926
0.979637
1.42596
0.107921
0.295665
-0.0136625
-0.031498
-0.0459736
-0.0501943
-0.0489983
-0.0358407
-0.0113807
0.0226863
0.0629759
0.104638
0.145849
0.177101
0.198127
0.207519
0.213373
0.215321
0.216604
0.222997
0.235731
0.260757
0.28308
0.284278
0.249869
0.103052
-0.203753
-0.345538
-0.322949
-0.152739
0.00910128
0.0600183
0.0520851
0.0660826
0.0901509
0.10456
0.124733
0.13954
0.150865
0.154954
0.165576
0.181641
0.189773
0.180106
0.182986
0.17622
0.159749
0.131123
0.100282
0.0703351
0.0398269
-0.000278442
-0.0474158
-0.105676
-0.17278
-0.243668
-0.313382
-0.374444
-0.42199
-0.448943
-0.454742
-0.441813
-0.417802
-0.395539
-0.405652
-0.455792
-0.562877
-0.716132
-0.933743
-1.12054
-1.32325
-1.17284
-0.915965
-0.462205
0.0682684
0.657406
1.5603
1.97994
2.50421
0.931254
3.00054
-0.0204316
-0.0447305
-0.0654755
-0.0701564
-0.0674136
-0.0485221
-0.0144041
0.0331443
0.0897849
0.149286
0.208241
0.253467
0.285014
0.299822
0.308066
0.31077
0.312559
0.318931
0.332726
0.363599
0.390789
0.384649
0.321405
0.0932889
-0.332391
-0.495261
-0.432862
-0.192825
0.0276781
0.0857542
0.0718085
0.0911488
0.123866
0.142624
0.169344
0.18977
0.207913
0.216274
0.228164
0.244568
0.254515
0.249387
0.254845
0.246196
0.22437
0.184255
0.136116
0.0848866
0.0435792
-0.0116386
-0.0829945
-0.168844
-0.266396
-0.368958
-0.469471
-0.557291
-0.625321
-0.663101
-0.669562
-0.647931
-0.60904
-0.572199
-0.580629
-0.647102
-0.796978
-1.02044
-1.34604
-1.6379
-1.94632
-1.71503
-1.32577
-0.674474
0.077071
0.909538
2.08811
2.80797
3.48279
2.40366
5.03042
-0.028907
-0.0594213
-0.0859903
-0.0905456
-0.0861197
-0.061927
-0.0185658
0.0422639
0.115424
0.192888
0.269709
0.329592
0.372181
0.393024
0.404482
0.407695
0.408986
0.415927
0.432752
0.469667
0.504082
0.495636
0.409693
0.100482
-0.451789
-0.64475
-0.549492
-0.254807
0.0134479
0.0844702
0.0794359
0.111536
0.15796
0.183109
0.218032
0.244998
0.270624
0.284558
0.304571
0.328041
0.342295
0.331075
0.334981
0.321151
0.29319
0.245835
0.192358
0.135234
0.0759149
-0.00746872
-0.107326
-0.226289
-0.361159
-0.50283
-0.641995
-0.764494
-0.860843
-0.916986
-0.931467
-0.908494
-0.862075
-0.817958
-0.831857
-0.921962
-1.12114
-1.42157
-1.86311
-2.26611
-2.6783
-2.35414
-1.78631
-0.910747
0.0602289
1.11953
2.53966
3.47279
4.43178
3.52547
5.09817
-0.0382936
-0.0747542
-0.10761
-0.111526
-0.104377
-0.0740457
-0.0214053
0.0523625
0.141818
0.237505
0.332559
0.407425
0.461479
0.488534
0.502468
0.50563
0.50623
0.512445
0.530082
0.570357
0.609423
0.594809
0.482181
0.0846081
-0.583888
-0.785742
-0.645832
-0.303739
-0.000708689
0.0722083
0.0788445
0.126653
0.187847
0.219028
0.26142
0.294337
0.328045
0.347239
0.370541
0.394433
0.411612
0.405782
0.411215
0.394194
0.360656
0.304196
0.23779
0.16107
0.0801677
-0.0222857
-0.148589
-0.299258
-0.469942
-0.649618
-0.826597
-0.98313
-1.10716
-1.18063
-1.20145
-1.17456
-1.11678
-1.06063
-1.07348
-1.17997
-1.42137
-1.79691
-2.36005
-2.89069
-3.42334
-2.99824
-2.26312
-1.16422
0.0330385
1.31139
2.94004
4.0399
5.30045
4.49187
5.85435
-0.0490186
-0.0913321
-0.130878
-0.133886
-0.123283
-0.085998
-0.0237471
0.0628299
0.168498
0.282498
0.396103
0.486508
0.552509
0.586136
0.602411
0.604939
0.604137
0.609304
0.627512
0.669592
0.712826
0.692554
0.554584
0.0679466
-0.707988
-0.911725
-0.726982
-0.350967
-0.0287344
0.0396938
0.065135
0.135143
0.215272
0.253517
0.304065
0.343097
0.385652
0.411016
0.441946
0.470348
0.489795
0.481559
0.487061
0.466262
0.426921
0.361617
0.284773
0.196316
0.098025
-0.0308925
-0.188366
-0.374699
-0.585405
-0.807184
-1.02596
-1.22023
-1.37524
-1.46867
-1.49776
-1.46823
-1.39954
-1.33095
-1.34076
-1.46104
-1.74288
-2.19622
-2.89001
-3.56492
-4.23337
-3.70968
-2.78225
-1.44562
-0.0142356
1.47419
3.2869
4.5291
6.04818
5.32801
6.25309
-0.0610135
-0.109211
-0.15611
-0.158134
-0.143285
-0.0979682
-0.0253624
0.0741075
0.195919
0.328259
0.460772
0.567237
0.645691
0.686212
0.704412
0.705674
0.702862
0.706212
0.723875
0.765645
0.811347
0.783816
0.619851
0.0435321
-0.82322
-1.01643
-0.784474
-0.389305
-0.0655635
-0.011185
0.037756
0.136375
0.239288
0.28512
0.343879
0.388785
0.440715
0.47196
0.508408
0.537507
0.561652
0.555775
0.56216
0.537848
0.49274
0.418363
0.329565
0.224059
0.101944
-0.0502042
-0.237464
-0.459396
-0.710498
-0.975301
-1.23714
-1.47052
-1.65785
-1.77206
-1.80964
-1.77695
-1.69572
-1.61185
-1.61337
-1.74076
-2.0579
-2.59008
-3.42222
-4.25802
-5.07775
-4.44519
-3.32852
-1.75405
-0.0816198
1.6061
3.57165
4.94267
6.67422
6.07386
6.65196
-0.0743678
-0.128662
-0.183648
-0.184853
-0.165139
-0.11077
-0.0267241
0.0860973
0.224157
0.374771
0.526517
0.64964
0.741086
0.788856
0.808669
0.80796
0.802367
0.803405
0.819824
0.859306
0.906095
0.870827
0.681788
0.0201275
-0.917763
-1.09458
-0.816478
-0.417915
-0.112907
-0.0822981
-0.00518568
0.129482
0.260167
0.314498
0.381867
0.432666
0.494547
0.531993
0.576661
0.607877
0.634936
0.629097
0.636296
0.60857
0.557768
0.474173
0.373343
0.252187
0.109511
-0.0688436
-0.288997
-0.549234
-0.843506
-1.15412
-1.46178
-1.73689
-1.95886
-2.09554
-2.14264
-2.10716
-2.01279
-1.91161
-1.9001
-2.02853
-2.37761
-2.99389
-3.9756
-4.99133
-5.97814
-5.23078
-3.90984
-2.09246
-0.169547
1.7083
3.79799
5.28589
7.19518
6.80808
6.71779
-0.089035
-0.149863
-0.213723
-0.214458
-0.189407
-0.125035
-0.0283046
0.0987051
0.253362
0.422159
0.593429
0.733832
0.838819
0.894192
0.915292
0.91188
0.902721
0.900897
0.915187
0.950277
0.99634
0.952547
0.739053
-0.000199364
-0.986397
-1.14315
-0.820286
-0.432326
-0.167637
-0.171699
-0.0631158
0.114513
0.277836
0.341435
0.417599
0.474233
0.546397
0.589785
0.642231
0.674098
0.706489
0.701393
0.709581
0.678505
0.622119
0.52931
0.416148
0.277887
0.112074
-0.0932009
-0.34645
-0.645915
-0.984804
-1.3431
-1.69872
-2.01774
-2.27649
-2.43727
-2.49496
-2.45717
-2.34923
-2.22866
-2.19875
-2.32151
-2.6994
-3.40798
-4.55269
-5.76878
-6.93553
-6.0536
-4.52092
-2.46174
-0.278923
1.78069
3.9715
5.56642
7.59874
7.33317
6.50041
-0.104897
-0.172996
-0.246522
-0.247279
-0.216603
-0.141378
-0.0307251
0.111608
0.283537
0.470503
0.66151
0.81983
0.938898
1.00224
1.02439
1.01751
1.00396
0.99885
1.01019
1.03885
1.08235
1.02988
0.792862
-0.0113876
-1.02386
-1.16045
-0.795764
-0.430968
-0.226356
-0.275324
-0.133539
0.0925642
0.292716
0.366223
0.451369
0.513885
0.59654
0.645845
0.707512
0.740073
0.777144
0.772604
0.781915
0.747619
0.685836
0.583861
0.458097
0.302349
0.113727
-0.119909
-0.407611
-0.748415
-1.13419
-1.54269
-1.94891
-2.31448
-2.61258
-2.79958
-2.86955
-2.83071
-2.70968
-2.56832
-2.51492
-2.62603
-3.03156
-3.84521
-5.17072
-6.61213
-7.97056
-6.92865
-5.16356
-2.86248
-0.409712
1.82384
4.09736
5.79004
7.89389
7.72291
6.62943
-0.121683
-0.198149
-0.282142
-0.283531
-0.247089
-0.160275
-0.0345396
0.124396
0.314629
0.52005
0.730912
0.907612
1.04126
1.11294
1.13598
1.12491
1.10617
1.0974
1.10494
1.12529
1.16426
1.10322
0.843417
-0.00895758
-1.02988
-1.14559
-0.744976
-0.412061
-0.283445
-0.384952
-0.210475
0.0664648
0.305527
0.38906
0.48319
0.551642
0.644769
0.699651
0.770758
0.803733
0.846486
0.842663
0.853251
0.815897
0.748956
0.637938
0.499372
0.325639
0.113431
-0.149939
-0.473241
-0.856915
-1.29161
-1.7527
-2.2122
-2.6271
-2.96748
-3.18334
-3.268
-3.23027
-3.09762
-2.93484
-2.85298
-2.94709
-3.38093
-4.3168
-5.84483
-7.54172
-9.10207
-7.861
-5.8374
-3.29445
-0.561416
1.83907
4.18119
5.96313
8.10324
8.09859
6.68161
-0.138953
-0.225264
-0.320564
-0.323327
-0.2811
-0.182113
-0.0402032
0.136653
0.346542
0.57111
0.801902
0.997158
1.14576
1.22613
1.25006
1.23412
1.20942
1.19674
1.19969
1.21025
1.24277
1.17357
0.891794
0.0124159
-1.00814
-1.09577
-0.672117
-0.374673
-0.331919
-0.488453
-0.284364
0.0408881
0.317504
0.410353
0.513256
0.587742
0.690991
0.751467
0.832376
0.865803
0.914377
0.911526
0.923589
0.883394
0.811573
0.691666
0.540107
0.347935
0.111421
-0.182817
-0.54282
-0.971298
-1.45722
-1.97359
-2.48932
-2.95667
-3.34278
-3.59093
-3.69367
-3.66045
-3.51887
-3.3348
-3.21959
-3.29236
-3.75742
-4.83729
-6.59392
-8.58355
-10.3573
-8.86632
-6.54504
-3.75696
-0.733039
1.82852
4.22841
6.09287
8.23103
8.35585
6.43253
-0.156095
-0.254066
-0.36156
-0.36664
-0.318738
-0.207168
-0.048043
0.148017
0.379055
0.623744
0.874653
1.08851
1.25227
1.34159
1.36652
1.34516
1.31382
1.29706
1.29479
1.2947
1.31899
1.24205
0.939471
0.054999
-0.960511
-1.01102
-0.580068
-0.319055
-0.363875
-0.570567
-0.34266
0.0220786
0.330318
0.430607
0.541716
0.622247
0.735101
0.801278
0.891713
0.925926
0.980674
0.979156
0.992951
0.950197
0.873796
0.74517
0.580486
0.369569
0.108269
-0.217529
-0.616308
-1.09145
-1.63103
-2.20549
-2.78063
-3.30393
-3.73987
-4.02477
-4.15031
-4.12643
-3.97977
-3.77486
-3.62123
-3.66932
-4.17073
-5.4207
-7.43618
-9.76369
-11.7658
-9.95897
-7.28989
-4.2489
-0.923023
1.79513
4.24389
6.1845
8.29186
8.52953
6.48992
-0.172401
-0.284019
-0.40456
-0.413208
-0.359961
-0.235599
-0.0583059
0.158186
0.411857
0.677839
0.949248
1.18175
1.36074
1.4591
1.48518
1.45805
1.41948
1.39854
1.39069
1.37989
1.39439
1.31003
0.989726
0.115248
-0.88243
-0.897685
-0.471226
-0.246419
-0.371876
-0.61568
-0.372211
0.0168057
0.345888
0.450466
0.568776
0.655227
0.777128
0.849071
0.948602
0.984072
1.04526
1.04554
1.06139
1.01641
0.935747
0.798582
0.620687
0.390696
0.103842
-0.254667
-0.693806
-1.21746
-1.81325
-2.44884
-3.08684
-3.67003
-4.16077
-4.48817
-4.64283
-4.63473
-4.48764
-4.26197
-4.06444
-4.08564
-4.63076
-6.08111
-8.39011
-11.11
-13.362
-11.1576
-8.0765
-4.76896
-1.12926
1.74169
4.23314
6.24403
8.30008
8.62072
6.47674
-0.18732
-0.314266
-0.4485
-0.462416
-0.404527
-0.26743
-0.0711829
0.166924
0.444669
0.733323
1.02577
1.27693
1.47111
1.57855
1.60584
1.57279
1.52649
1.50132
1.48781
1.46709
1.47055
1.37865
1.04537
0.189075
-0.775212
-0.76295
-0.349096
-0.158939
-0.350717
-0.612
-0.362875
0.0307298
0.365947
0.470602
0.59462
0.686669
0.816999
0.894871
1.00276
1.04012
1.10804
1.11067
1.12896
1.08215
0.997547
0.852045
0.660907
0.41159
0.0986441
-0.293489
-0.775089
-1.34919
-2.00401
-2.70395
-3.40856
-4.05617
-4.60779
-4.98504
-5.17706
-5.19269
-5.05002
-4.80236
-4.55503
-4.54841
-5.14676
-6.83178
-9.47399
-12.6518
-15.1832
-12.4822
-8.90923
-5.31578
-1.34905
1.67057
4.20228
6.27697
8.26838
8.66619
6.57532
-0.201489
-0.343573
-0.491731
-0.513121
-0.451905
-0.302514
-0.0867792
0.174053
0.477254
0.790092
1.10425
1.37412
1.58331
1.69982
1.72828
1.68935
1.63493
1.60547
1.58641
1.55728
1.54874
1.44885
1.10674
0.275912
-0.646682
-0.614244
-0.21841
-0.0602624
-0.299558
-0.555792
-0.311113
0.0666534
0.391526
0.49154
0.619392
0.716511
0.854649
0.938671
1.05395
1.09403
1.16896
1.17456
1.1957
1.14749
1.05931
0.905705
0.701343
0.43245
0.0927408
-0.334228
-0.859846
-1.48678
-2.20354
-2.97127
-3.7466
-4.46386
-5.08381
-5.52011
-5.75979
-5.80838
-5.67427
-5.40133
-5.09804
-5.06408
-5.72741
-7.68564
-10.707
-14.4215
-17.271
-13.956
-9.79163
-5.88794
-1.57904
1.58441
4.15744
6.28883
8.21119
8.72141
6.63963
-0.216456
-0.370101
-0.532038
-0.56353
-0.501167
-0.340491
-0.105092
0.179448
0.509441
0.848024
1.1847
1.47337
1.69731
1.82283
1.85239
1.80769
1.74485
1.71097
1.68659
1.65083
1.6297
1.52112
1.17348
0.374133
-0.502414
-0.458914
-0.0845428
0.0444182
-0.222675
-0.453329
-0.221408
0.123481
0.422617
0.513455
0.643118
0.744617
0.889939
0.980395
1.10205
1.1459
1.22796
1.23723
1.26166
1.21253
1.12115
0.959716
0.742197
0.453514
0.086459
-0.376406
-0.947758
-1.63027
-2.41201
-3.25122
-4.10179
-4.89481
-5.59222
-6.09887
-6.39862
-6.49007
-6.36689
-6.06298
-5.69768
-5.63834
-6.38075
-8.65548
-12.1096
-16.4556
-19.6707
-15.6046
-10.7259
-6.48379
-1.81531
1.48651
4.1043
6.28553
8.135
8.72219
6.64441
-0.232222
-0.392074
-0.566965
-0.611233
-0.550879
-0.380743
-0.125985
0.183059
0.54112
0.907005
1.26714
1.57477
1.81307
1.94745
1.97808
1.92772
1.85625
1.81775
1.7883
1.74747
1.71351
1.59535
1.24539
0.481189
-0.346557
-0.302307
0.0474468
0.149288
-0.127138
-0.319948
-0.10371
0.196426
0.458152
0.536064
0.665652
0.770776
0.922695
1.01989
1.14692
1.19581
1.28502
1.29867
1.32687
1.27731
1.18316
1.01424
0.783672
0.475012
0.0800027
-0.419939
-1.03886
-1.7798
-2.62965
-3.54427
-4.47506
-5.3511
-6.13707
-6.72765
-7.10166
-7.24558
-7.13313
-6.79033
-6.35737
-6.27614
-7.11429
-9.75385
-13.7037
-18.7956
-22.4317
-17.4566
-11.7131
-7.10104
-2.05339
1.38063
4.04812
6.27227
8.0497
8.69317
6.78937
-0.247
-0.409227
-0.594341
-0.653546
-0.599055
-0.422339
-0.149169
0.184917
0.57223
0.966941
1.35157
1.67838
1.93059
2.07358
2.10527
2.04931
1.96909
1.92567
1.89138
1.84642
1.79978
1.67092
1.32149
0.594724
-0.184295
-0.148383
0.173368
0.249271
-0.0225329
-0.173304
0.0294371
0.27859
0.496279
0.558648
0.686636
0.794678
0.952703
1.05692
1.18855
1.24371
1.34012
1.35893
1.39135
1.34191
1.24547
1.06944
0.825976
0.49719
0.0736514
-0.464514
-1.13301
-1.93539
-2.85663
-3.85086
-4.8675
-5.83516
-6.72301
-7.41351
-7.87722
-8.08173
-7.97668
-7.58541
-7.07986
-6.98152
-7.93483
-10.9925
-15.5118
-21.4865
-25.6066
-19.5424
-12.7528
-7.7363
-2.2883
1.27076
3.99386
6.25409
7.96641
8.69192
6.92278
-0.2599
-0.422406
-0.613052
-0.68823
-0.64333
-0.463993
-0.174206
0.185123
0.602746
1.02778
1.43803
1.7843
2.04989
2.20114
2.23388
2.17234
2.08331
2.03459
1.99552
1.94667
1.88777
1.74719
1.40011
0.711548
-0.0217485
-0.000717748
0.290087
0.340751
0.0799494
-0.0264019
0.165114
0.363046
0.534671
0.580143
0.705497
0.815903
0.979672
1.09118
1.22708
1.28942
1.39327
1.418
1.45514
1.40638
1.30819
1.12548
0.869328
0.520305
0.0676779
-0.509905
-1.23005
-2.09678
-3.09316
-4.17152
-5.28035
-6.34985
-7.35532
-8.16413
-8.73336
-9.00393
-8.8997
-8.44944
-7.86716
-7.75751
-8.84801
-12.381
-17.5544
-24.5761
-29.2496
-21.8933
-13.8434
-8.38468
-2.51561
1.16243
3.94627
6.23616
7.88834
8.67657
6.97949
-0.271362
-0.43244
-0.623381
-0.714137
-0.681538
-0.504146
-0.200485
0.183869
0.632691
1.08955
1.52659
1.89263
2.17102
2.33003
2.36388
2.29676
2.19882
2.14437
2.10041
2.04726
1.97657
1.82394
1.47962
0.8274
0.135181
0.137785
0.395794
0.422582
0.173234
0.112126
0.292937
0.443898
0.570822
0.599254
0.721471
0.833927
1.00332
1.12232
1.26262
1.33279
1.4445
1.4759
1.51829
1.47082
1.37146
1.18257
0.913955
0.544632
0.0623876
-0.555806
-1.32971
-2.264
-3.33949
-4.50675
-5.71507
-6.89845
-8.03985
-8.98762
-9.6773
-10.0159
-9.90296
-9.38292
-8.72052
-8.60578
-9.85755
-13.9258
-19.8486
-28.1108
-33.4127
-24.5378
-14.9815
-9.03932
-2.7317
1.06278
3.90971
6.22261
7.82174
8.66222
7.13078
-0.282039
-0.440201
-0.626365
-0.731003
-0.712217
-0.541203
-0.227144
0.181453
0.662144
1.15229
1.61735
2.00346
2.29404
2.46019
2.49521
2.4226
2.31555
2.25487
2.20571
2.14741
2.06536
1.90056
1.55884
0.93952
0.282852
0.265443
0.490251
0.496232
0.254873
0.236958
0.406496
0.516385
0.602363
0.614619
0.733673
0.848136
1.02338
1.15
1.2954
1.37368
1.49388
1.53265
1.58087
1.53534
1.43542
1.24089
0.960105
0.570468
0.0581069
-0.60191
-1.4318
-2.43708
-3.59584
-4.85713
-6.17339
-7.48463
-8.78294
-9.89209
-10.715
-11.1198
-10.9862
-10.3857
-9.64021
-9.52632
-10.9645
-15.6284
-22.4043
-32.1305
-38.1381
-27.4982
-16.1619
-9.6911
-2.93208
0.978224
3.88827
6.21764
7.77102
8.64652
7.24718
-0.292336
-0.446621
-0.623318
-0.738987
-0.734366
-0.573399
-0.253014
0.178299
0.691251
1.21614
1.71047
2.11694
2.41907
2.59158
2.62781
2.5499
2.43344
2.36599
2.31111
2.24651
2.15357
1.97643
1.63704
1.04664
0.419905
0.381814
0.574648
0.564206
0.324839
0.345914
0.50325
0.576885
0.627257
0.624963
0.741184
0.857877
1.03962
1.17391
1.32563
1.41198
1.54146
1.58827
1.64295
1.60005
1.50027
1.30066
1.00804
0.598129
0.0551901
-0.647867
-1.53604
-2.61591
-3.86235
-5.22329
-6.6573
-8.1124
-9.59136
-10.8852
-11.8505
-12.3159
-12.1483
-11.4569
-10.6254
-10.5172
-12.1664
-17.484
-25.2206
-36.6595
-43.4433
-30.7846
-17.3762
-10.3286
-3.11104
0.91382
3.8857
6.22493
7.7395
8.63879
7.41558
-0.302563
-0.452392
-0.615702
-0.738617
-0.747023
-0.598888
-0.276701
0.174987
0.72024
1.28122
1.80613
2.23322
2.54621
2.7242
2.7616
2.67867
2.55249
2.47767
2.41635
2.34413
2.24075
2.05123
1.71375
1.14822
0.546244
0.487399
0.651052
0.628436
0.385361
0.439105
0.583314
0.623254
0.644079
0.629189
0.743141
0.862506
1.05182
1.19386
1.35336
1.44788
1.58728
1.64282
1.70464
1.66513
1.56618
1.36211
1.05805
0.627958
0.054021
-0.693295
-1.64213
-2.80025
-4.13918
-5.606
-7.16909
-8.78605
-10.4722
-11.9737
-13.0865
-13.6033
-13.3878
-12.5952
-11.6742
-11.5744
-13.4572
-19.4807
-28.2794
-41.6902
-49.2984
-34.3844
-18.6114
-10.9383
-3.26248
0.874235
3.90544
6.24766
7.73069
8.66712
7.568
-0.312965
-0.457763
-0.604853
-0.730801
-0.749781
-0.616034
-0.296593
0.172285
0.749441
1.34774
1.90455
2.35249
2.6756
2.85805
2.89652
2.80895
2.67286
2.5899
2.52118
2.43996
2.32667
2.12483
1.78877
1.24426
0.662335
0.583215
0.721635
0.690525
0.440552
0.518275
0.647104
0.655191
0.65205
0.626402
0.738796
0.86143
1.05978
1.20974
1.37845
1.48162
1.63138
1.69639
1.76607
1.73078
1.6334
1.42551
1.11043
0.660322
0.0550157
-0.737771
-1.74969
-2.98983
-4.4265
-6.0062
-7.71125
-9.51012
-11.4324
-13.1631
-14.4236
-14.98
-14.7028
-13.7985
-12.7832
-12.6917
-14.8268
-21.5971
-31.5364
-47.1591
-55.5932
-38.2456
-19.8483
-11.5052
-3.37924
0.864321
3.95053
6.28874
7.74458
8.69446
7.68797
-0.32365
-0.462674
-0.591771
-0.71666
-0.742979
-0.623505
-0.311013
0.171199
0.77929
1.41593
2.00598
2.47499
2.8074
2.9932
3.0325
2.94072
2.79478
2.70268
2.6255
2.53379
2.41121
2.19721
1.86212
1.33504
0.76878
0.670414
0.788183
0.752565
0.494374
0.585692
0.695571
0.673323
0.650734
0.615909
0.727531
0.854142
1.06337
1.22151
1.40108
1.51348
1.67379
1.74909
1.82741
1.79722
1.70215
1.49113
1.16553
0.695615
0.0586248
-0.780825
-1.85834
-3.18437
-4.7244
-6.42506
-8.28644
-10.2895
-12.4791
-14.457
-15.8612
-16.4434
-16.0912
-15.0641
-13.948
-13.8607
-16.2598
-23.8004
-34.9105
-52.912
-62.0926
-42.2509
-21.059
-12.0131
-3.4536
0.888697
4.02351
6.35037
7.78298
8.72721
7.8713
-0.334595
-0.46696
-0.577051
-0.697335
-0.727348
-0.620449
-0.318346
0.172978
0.810353
1.48608
2.11069
2.60101
2.94177
3.12973
3.16951
3.07394
2.91848
2.81607
2.72943
2.62554
2.49432
2.26849
1.93396
1.42101
0.866116
0.750012
0.851859
0.816676
0.549969
0.64381
0.730524
0.678246
0.639863
0.597188
0.708859
0.840231
1.06244
1.22928
1.42149
1.54386
1.71452
1.80109
1.88884
1.86472
1.77271
1.55927
1.22368
0.734259
0.0653351
-0.821946
-1.96758
-3.38352
-5.03299
-6.86461
-8.89755
-11.1298
-13.6183
-15.8579
-17.3977
-17.9905
-17.5504
-16.3887
-15.1629
-15.0707
-17.7354
-26.0422
-38.2753
-58.6643
-68.393
-46.1852
-22.2045
-12.4452
-3.47861
0.951369
4.12643
6.43442
7.84819
8.79778
8.04472
-0.345706
-0.470444
-0.560939
-0.673875
-0.703761
-0.606657
-0.317097
0.17904
0.843358
1.55858
2.219
2.7308
3.07892
3.26774
3.3075
3.20853
3.04418
2.93011
2.83329
2.7152
2.57602
2.33892
2.00462
1.50271
0.954863
0.822744
0.913116
0.884468
0.610318
0.69569
0.753674
0.670555
0.619271
0.569856
0.682407
0.819412
1.05691
1.23324
1.43982
1.57305
1.75357
1.85262
1.95062
1.93357
1.84538
1.63025
1.28528
0.776704
0.0756707
-0.860573
-2.0769
-3.58687
-5.35238
-7.32799
-9.55039
-12.0427
-14.8579
-17.3666
-19.0307
-19.6185
-19.0777
-17.7686
-16.4212
-16.3081
-19.2287
-28.258
-41.4628
-63.9653
-73.9169
-49.7113
-23.2413
-12.7776
-3.44836
1.05563
4.26087
6.54252
7.93844
8.87421
8.18113
-0.356872
-0.472946
-0.543455
-0.647107
-0.673199
-0.582491
-0.305975
0.190865
0.879226
1.63393
2.33125
2.86464
3.21901
3.40735
3.44647
3.34435
3.17205
3.04487
2.93759
2.80297
2.65647
2.4089
2.07455
1.58077
1.0356
0.888959
0.971737
0.957023
0.67823
0.744443
0.766774
0.651045
0.588913
0.533654
0.647932
0.791538
1.04679
1.23373
1.45622
1.60128
1.79108
1.90394
2.01304
2.0041
1.92047
1.70441
1.3507
0.823427
0.0901935
-0.896095
-2.1857
-3.79396
-5.68283
-7.8177
-10.2548
-13.0457
-16.21
-18.9834
-20.7573
-21.3244
-20.6698
-19.199
-17.7157
-17.5575
-20.7128
-30.3711
-44.2881
-68.2139
-78.0137
-52.4014
-24.1262
-12.9786
-3.35697
1.20408
4.42777
6.67532
8.05458
8.96612
8.36257
-0.367976
-0.474285
-0.524513
-0.617553
-0.636698
-0.548661
-0.284044
0.209903
0.919049
1.71276
2.44781
3.00276
3.36222
3.54868
3.5864
3.48125
3.3022
3.1604
3.04286
2.88934
2.73601
2.479
2.14435
1.6559
1.10886
0.948537
1.02693
1.03479
0.755759
0.792887
0.771943
0.620762
0.548988
0.488476
0.605337
0.756613
1.03218
1.23105
1.47093
1.62868
1.82725
1.95532
2.07642
2.07663
1.9983
1.7821
1.42037
0.874931
0.109503
-0.927847
-2.29328
-4.00424
-6.02463
-8.3351
-11.0178
-14.1487
-17.6819
-20.708
-22.5749
-23.1055
-22.3233
-20.6746
-19.038
-18.8032
-22.1599
-32.3048
-46.5918
-70.8779
-80.1656
-53.8634
-24.7984
-13.0212
-3.19908
1.39838
4.62751
6.83334
8.19606
9.06771
8.51781
-0.378906
-0.47429
-0.50399
-0.585448
-0.595232
-0.506
-0.250881
0.237515
0.964045
1.79579
2.56907
3.14537
3.50868
3.69183
3.72728
3.61902
3.43464
3.27685
3.14968
2.9751
2.81518
2.54987
2.21472
1.72881
1.17495
1.00082
1.0774
1.11744
0.844048
0.843651
0.771489
0.581027
0.499973
0.434415
0.55469
0.71481
1.01325
1.22567
1.48428
1.65539
1.86235
2.00707
2.14113
2.15152
2.07922
1.8637
1.49473
0.931744
0.134237
-0.955111
-2.39891
-4.21709
-6.37808
-8.88195
-11.8418
-15.351
-19.2705
-22.5386
-24.4807
-24.9593
-24.0342
-22.1892
-20.378
-20.0292
-23.5431
-34.0098
-48.2827
-71.9224
-80.5307
-54.0945
-25.1788
-12.8916
-2.97059
1.63906
4.85986
7.01649
8.36214
9.18059
8.70986
-0.389562
-0.472805
-0.48174
-0.550847
-0.549576
-0.455378
-0.206604
0.27493
1.01551
1.88378
2.6954
3.2926
3.65846
3.83688
3.86909
3.75746
3.56926
3.39445
3.25859
3.06115
2.89462
2.62216
2.28648
1.80016
1.2338
1.04461
1.12141
1.20403
0.943521
0.899081
0.76778
0.533462
0.44256
0.371805
0.49625
0.666482
0.990306
1.2181
1.49663
1.68148
1.8967
2.05952
2.20759
2.22914
2.16357
1.94956
1.5742
0.994413
0.16507
-0.97711
-2.50174
-4.43183
-6.74344
-9.46027
-12.7304
-16.6537
-20.9707
-24.4728
-26.4722
-26.8832
-25.7984
-23.7365
-21.7252
-21.2199
-24.833
-35.4526
-49.3664
-71.7778
-79.7063
-53.5833
-25.2073
-12.5958
-2.66898
1.92524
5.12392
7.22418
8.55246
9.32552
8.89295
-0.399857
-0.469684
-0.457605
-0.513713
-0.500236
-0.397682
-0.151712
0.323169
1.07471
1.97759
2.82712
3.44447
3.81153
3.98384
4.01175
3.89634
3.70579
3.51343
3.37002
3.14847
2.9751
2.69657
2.3605
1.87049
1.28487
1.07812
1.15677
1.2932
1.05413
0.961165
0.763212
0.479966
0.377636
0.301233
0.430509
0.612182
0.963905
1.20883
1.50831
1.70702
1.93065
2.11307
2.27623
2.30985
2.25172
2.04008
1.65925
1.06351
0.202712
-0.993009
-2.60085
-4.64773
-7.12089
-10.0719
-13.6885
-18.0594
-22.7808
-26.508
-28.5473
-28.8751
-27.6118
-25.31
-23.0683
-22.3594
-26.0019
-36.6007
-49.837
-70.7457
-77.9615
-52.6365
-24.8797
-12.1451
-2.29389
2.25486
5.41824
7.45548
8.7643
9.47157
9.05922
-0.409703
-0.464786
-0.43143
-0.473971
-0.447477
-0.333779
-0.0869032
0.382888
1.14287
2.07807
2.96452
3.6009
3.96774
4.13265
4.15507
4.0354
3.84385
3.63397
3.48423
3.23797
3.05741
2.77383
2.43753
1.94014
1.32708
1.09895
1.18079
1.38335
1.17561
1.03159
0.760158
0.422675
0.306361
0.223573
0.358244
0.552677
0.934716
1.1984
1.51973
1.73209
1.96463
2.16814
2.34751
2.39402
2.34399
2.13563
1.75033
1.13961
0.247907
-1.00192
-2.69523
-4.86397
-7.51053
-10.7184
-14.719
-19.5683
-24.6985
-28.6418
-30.7045
-30.9324
-29.4696
-26.9029
-24.3964
-23.4325
-27.0254
-37.4355
-49.6916
-68.834
-75.2694
-51.1268
-24.2041
-11.548
-1.84759
2.62497
5.74077
7.70876
8.99669
9.62139
9.27272
-0.419007
-0.457974
-0.403067
-0.431524
-0.391392
-0.26442
-0.012931
0.454285
1.22104
2.18603
3.10773
3.76158
4.12678
4.28308
4.29873
4.17437
3.98289
3.75624
3.60131
3.33055
3.14233
2.85463
2.51809
2.00908
1.35886
1.10411
1.19013
1.47272
1.30769
1.11177
0.760963
0.363954
0.230251
0.140081
0.280565
0.488987
0.903548
1.18741
1.53127
1.75677
1.99917
2.2252
2.4219
2.48199
2.44073
2.23656
1.84789
1.22331
0.30143
-1.00288
-2.78377
-5.07968
-7.91235
-11.4013
-15.8237
-21.1784
-26.7207
-30.8725
-32.9427
-33.0529
-31.3673
-28.5076
-25.6982
-24.424
-27.8842
-37.9505
-48.977
-66.0995
-71.7175
-48.9664
-23.1982
-10.8141
-1.33489
3.03199
6.08898
7.98203
9.24901
9.80236
9.47658
-0.427666
-0.449111
-0.372381
-0.386261
-0.331961
-0.190126
0.0694429
0.53714
1.31008
2.30218
3.25673
3.92602
4.28813
4.43473
4.44229
4.31296
4.12227