/*--------------------------------*- C++ -*----------------------------------*\
| =========                 |                                                 |
| \\      /  F ield         | OpenFOAM: The Open Source CFD Toolbox           |
|  \\    /   O peration     | Version:  4.1                                   |
|   \\  /    A nd           | Web:      www.OpenFOAM.org                      |
|    \\/     M anipulation  |                                                 |
\*---------------------------------------------------------------------------*/
FoamFile
{
    version     2.0;
    format      ascii;
    class       surfaceScalarField;
    location    "7";
    object      phi;
}
// * * * * * * * * * * * * * * * * * * * * * * * * * * * * * * * * * * * * * //

dimensions      [0 3 -1 0 0 0 0];

internalField   nonuniform List<scalar> 
13220
(
-882.824
2182.72
-1363.53
1780.9
-1821.33
1757.71
-2166.33
1644.9
-2430.24
1564.11
-2614
1483.66
-2718.95
1404.85
-2744.36
1325.62
-2690.2
1245.74
-2557.4
1167.1
-2350.95
1093.75
-2066.06
1015.01
-1658.88
892.717
-1047.71
689.031
252.191
3.36514
2179.36
-29.0667
1813.33
-142.773
1871.41
-220.407
1722.53
-298.978
1642.68
-355.714
1540.39
-392.103
1441.24
-404.959
1338.47
-394.817
1235.59
-362.156
1134.44
-308.4
1039.99
-248.78
955.384
-210.139
854.075
-159.283
638.17
92.9074
-140.966
2320.32
-349.048
2021.41
-540.431
2062.79
-671.427
1853.52
-794.24
1765.49
-883.953
1630.1
-955.148
1512.43
-1008.03
1391.36
-1031.81
1259.37
-984.52
1087.14
-805.229
860.701
-493.828
643.973
-183.353
543.587
-6.31801
461.099
86.5895
-66.592
2386.91
-191.147
2145.97
-289.405
2161.05
-360.672
1924.79
-438.771
1843.59
-498.284
1689.61
-556.913
1571.06
-610.81
1445.25
-656.85
1305.41
-658.644
1088.94
-538.93
740.985
-247.7
352.748
85.6871
210.205
262.955
283.837
349.544
35.8914
2351.02
-56.9425
2238.8
-96.8073
2200.92
-130.912
1958.9
-174.44
1887.11
-212.389
1727.56
-256.901
1615.57
-305.533
1493.88
-367.924
1367.8
-461.944
1182.96
-591.831
870.875
-693.637
454.55
-613.614
130.179
-356.807
27.0274
-7.26236
135.647
2215.38
67.9629
2306.49
72.5805
2196.3
83.7101
1947.77
99.6257
1871.2
116.721
1710.47
139.625
1592.67
165.128
1468.38
187.341
1345.59
171.994
1198.3
58.457
984.411
-166.105
679.124
-340.027
304.12
-273.36
-39.6206
-280.622
179.226
2036.15
161.735
2323.98
191.209
2166.83
231.864
1907.11
285.468
1817.6
336.143
1659.8
394.297
1534.52
458.358
1404.32
526.062
1277.89
578.646
1145.72
574.706
988.352
464.869
788.961
243.933
525.058
-2.13542
206.452
-282.757
153.679
1882.47
169.762
2307.9
199.962
2136.63
236.422
1870.65
285.887
1768.13
329.745
1615.94
374.518
1489.75
419.606
1359.23
464.482
1233.01
500.888
1109.32
512.593
976.648
473.728
827.829
362.258
636.529
179.694
389.021
-103.063
102.614
1779.86
147.686
2262.83
182.189
2102.13
217.646
1835.2
262.979
1722.8
301.368
1577.55
336.615
1454.5
364.45
1331.4
386.305
1211.16
401.364
1094.26
402.42
975.592
377.463
852.788
307.021
706.974
173.529
522.521
70.4658
48.2693
1731.59
125.4
2185.69
178.176
2049.35
228.679
1784.7
281.139
1670.34
330.59
1528.1
373.049
1412.04
410.117
1294.33
440.58
1180.69
463.13
1071.71
467.933
970.79
439.812
880.907
358.653
788.132
212.023
669.148
282.489
-16.5212
1748.11
70.4333
2098.74
141.661
1978.12
196.227
1730.13
248.131
1618.44
314.371
1461.86
388.967
1337.45
475.713
1207.59
557.004
1099.4
617.536
1011.18
636.914
951.412
593.327
924.495
468.335
913.125
275.478
862.007
557.967
-32.0195
1780.13
-38.0176
2104.74
4.79895
1935.3
14.4594
1720.47
22.7734
1610.12
64.2103
1420.42
152.712
1248.94
277.91
1082.39
406.048
971.264
512.787
904.438
567.738
896.461
543.371
948.859
426.049
1030.44
240.88
1047.17
798.846
110.515
1669.62
-6.18048
2221.43
-89.4253
2018.55
-136.75
1767.8
-175.274
1648.65
-209.374
1454.52
-211.994
1251.56
-180.912
1051.31
-129.9
920.251
-61.4998
836.038
16.3471
818.614
83.7922
881.414
109.143
1005.09
68.3536
1087.96
867.2
398.053
1271.56
405.152
2214.33
168.65
2255.05
-109.424
2045.87
-339.818
1879.04
-558.808
1673.51
-761.215
1453.97
-943.143
1233.23
-1073.65
1050.76
-1136.05
898.436
-1101.27
783.837
-941.762
721.903
-662.582
725.915
-323.959
749.339
543.241
669.914
1597.63
2142.18
2398.3
2479.16
2412.54
2189.44
1865.42
1465.97
1050.6
647.456
319.864
128.658
59.9102
2.1892e-06
117.346
-117.346
117.346
117.346
117.346
200.723
-83.3777
200.723
200.723
200.723
272.254
-71.5311
272.254
272.254
332.868
-60.6135
332.868
332.868
332.868
386.621
-53.7532
386.621
386.621
429.591
-42.9701
429.591
429.591
429.591
460.091
-30.5001
460.091
460.091
460.091
475.765
-15.674
475.765
475.765
474.469
1.29621
474.469
474.469
474.469
459.847
14.6223
459.847
459.847
432.232
27.6153
432.232
432.232
432.232
400.961
31.2701
400.961
400.961
400.962
377.162
23.7991
377.162
377.162
397.195
-20.0321
397.195
397.195
397.195
457.817
-60.6221
457.817
457.817
457.817
404.188
53.629
404.188
404.188
248.54
155.648
248.54
248.54
248.54
-24.7091
273.249
-24.7091
-24.709
-743.685
718.976
-743.685
-743.685
-743.685
-1992.33
1248.65
-1992.33
-1992.33
-1992.33
-3746.5
1754.16
-3746.5
-3746.5
-5890.8
2144.31
-5890.8
-5890.8
-5782.61
-5676.78
-5566.23
-7870.16
2422.1
-7749.9
-7610.69
-7457.03
-7301.85
-7145.27
-6991.72
-6837.35
-6671.33
-9105.89
2599.57
-8924.54
-8746.84
-8570.93
-8375.83
-8178.62
-7981.11
-7783.42
-7584.71
-10065
2684.59
-9841.73
-9617.24
-9391.96
-9167
-8934.62
-8687.98
-8440.09
-8189.61
-7938.16
-10359.1
2660.08
-10089
-9817.46
-9545.02
-9272.78
-9000.94
-8712.73
-8415.47
-8118.2
-10229.7
2395.56
-9939.29
-9640.5
-9327.06
-9013.3
-8698.46
-8383.26
-8067.08
-7728.78
-9363.2
1959.08
-9038.46
-8715.62
-8393.81
-8057.08
-7715.15
-7375.61
-7036.63
-6702.2
-7651.98
1282.5
-7312.97
-6976.86
-6641.98
-6309.5
-5980.68
-5645.15
-5314.89
-4990.37
-4676.75
-4703.72
338.581
-4428.69
-4173.4
-3926.89
-3690.02
-3461.36
-3276.66
-3168.99
-3058.84
-2635.76
-298.348
-2531.43
-2428.1
-2428.1
-2234.25
-193.852
-2049.62
-184.637
-2049.62
-1898.34
-151.277
-1898.34
-1774.69
-123.654
-1676.05
-98.6325
-1676.05
-1591.36
-84.6967
-1523.64
-67.7173
-1523.64
-1464.99
-58.6459
-1464.99
-1419.38
-45.6128
-1383.31
-36.0747
-1383.31
-1352.69
-30.6166
-1352.69
-1331.54
-21.1488
-1313.8
-17.742
-1313.8
-1302.41
-11.3829
-1293.37
-9.04711
-1293.37
-1287.53
-5.83907
-1287.53
-1288.42
0.890848
-1289.28
0.858952
-1289.28
-1292.81
3.53082
-1292.81
-1302.76
9.9536
-1310.79
8.02509
-1310.79
-1325.52
14.7356
-1339.98
14.4518
-1339.98
-1358.82
18.8404
-1358.82
-1386.34
27.5207
-1414.06
27.7243
-1414.06
-1448.35
34.2882
-1448.35
-1494.46
46.1129
-1541.25
46.789
-1541.25
-1603.82
62.5734
-1670.58
66.7539
-1670.58
-1751.81
81.2328
-1751.81
-1855.4
103.588
-1964.82
109.421
-1964.82
-2096.25
131.426
-2096.25
-2260.23
163.979
-2430.11
169.883
-2430.11
-2645.81
215.698
-2870.81
225.003
-2870.81
-3138.06
267.253
-3138.06
-3464.7
326.635
-3795.5
330.801
-3795.5
-4184.33
388.829
-4184.33
-4652.39
468.063
-5109.17
456.778
-5109.17
-5678.59
569.421
-6227.48
548.896
-6227.48
-6864.66
637.179
-6864.66
767.752
-72.9818
-529.94
-63.8827
-584.648
-61.2898
-618.415
-60.7781
-695.902
-59.2672
-796.352
-52.8131
-896.063
-42.9817
-1005.68
-32.8808
-1111.25
-23.2822
-1202.08
-10.6727
-1255.33
3.71226
-1276.07
16.8793
-1288.58
29.9744
-1291.8
41.4993
-1292.69
49.3795
-1288.03
56.5062
-1266.78
65.5576
-1267.43
71.1757
-1306.03
68.0942
-1308.09
57.3593
-1260.91
35.7086
-1211.68
-0.26515
-1161.66
-57.1855
-1074.96
-129.142
-885.233
-173.601
-844.987
-165.551
-1150.81
-119.293
-1563.88
-54.3967
-1910.61
10.894
-1977.27
51.7546
-1725.05
62.0741
-1453.47
58.1303
-1260.99
48.9268
-1128.16
37.3137
-1024.1
23.1243
-946.937
6.35449
-881.737
-8.47834
-838.858
-17.6715
-676.101
-31.8469
-429.619
-55.6957
-305.024
-75.9371
-116.521
-89.4087
78.9998
-101.961
174.929
-114.118
278.388
-127.074
344.919
-143.144
306.397
-162.106
177.15
-178.664
13.1055
-190.335
-127.605
-201.923
-241.805
-215.166
-353.678
-227.967
-474.989
-238.912
-609.544
-247.083
-762.816
-251.665
-937.034
-251.943
-1132.32
-247.201
-1345.7
-236.641
-1572.44
-219.332
-1804.58
-194.211
-2032.36
-160.411
-2241.99
-117.571
-2414.54
-65.59
-2524.46
-5.70883
-2549.7
59.2303
-2453.03
124.448
-2228.28
183.673
-1851.08
228.222
-1343.28
248.938
-683.972
248.554
-13.2992
233.45
508.361
201.752
824.871
155.34
936.31
98.0932
834.386
42.5242
986.35
-126.054
-339.15
-358.414
-172.55
-611.267
2924.96
6481.42
-73.0919
-538.485
-62.0662
-595.674
-57.4714
-623.01
-56.0703
-697.303
-56.1158
-796.306
-52.2316
-899.948
-44.2093
-1013.7
-35.2217
-1120.23
-26.1143
-1211.19
-13.0341
-1268.41
1.91992
-1291.02
15.472
-1302.13
28.9533
-1305.28
40.943
-1304.68
49.3979
-1296.49
56.9488
-1274.33
66.3869
-1276.86
72.6911
-1312.34
70.9573
-1306.36
61.2067
-1251.16
38.6091
-1189.09
-0.0728396
-1122.98
-62.3124
-1012.72
-139.058
-808.487
-182.551
-801.494
-167.806
-1165.56
-113.1
-1618.59
-43.0847
-1980.62
22.96
-2043.32
64.978
-1767.06
74.072
-1462.57
64.9862
-1251.9
52.3832
-1115.56
39.4452
-1011.17
25.0965
-932.588
7.3654
-864.006
-9.1266
-822.366
-18.1448
-667.083
-29.7118
-418.052
-51.5628
-283.173
-72.7235
-95.3598
-87.3553
93.6316
-100.078
187.652
-112.281
290.591
-124.455
357.093
-138.056
319.998
-152.606
191.701
-166.532
27.0308
-180.947
-113.19
-197.369
-225.382
-214.37
-336.678
-230.285
-459.074
-243.987
-595.842
-254.68
-752.124
-261.583
-930.131
-263.962
-1129.94
-261.042
-1348.62
-251.924
-1581.56
-235.558
-1820.95
-210.746
-2057.17
-176.498
-2276.24
-132.438
-2458.6
-78.4011
-2578.5
-15.4796
-2612.63
54.0136
-2522.53
125.676
-2299.95
192.929
-1918.33
245.112
-1395.46
268.238
-707.098
260.992
-6.05309
236.197
533.155
199.92
861.148
152.095
984.135
93.591
892.89
40.6255
1039.32
-125.097
-173.428
-362.877
65.2307
-616.865
3178.95
6501.73
-73.1315
-546.966
-61.4487
-607.356
-55.0516
-629.407
-51.7499
-700.604
-51.5703
-796.486
-49.359
-902.159
-43.2885
-1019.77
-35.6301
-1127.89
-27.1635
-1219.66
-14.0967
-1281.48
0.943741
-1306.06
14.446
-1315.63
27.8269
-1318.66
39.8969
-1316.75
48.6188
-1305.21
56.4513
-1282.17
66.2188
-1286.63
73.1276
-1319.24
72.5578
-1305.79
63.5517
-1242.15
40.0899
-1165.63
-1.03895
-1081.85
-67.2417
-946.522
-144.531
-731.198
-182.014
-764.011
-158.66
-1188.91
-97.8239
-1679.42
-26.5126
-2051.93
35.2987
-2105.13
74.7511
-1806.52
83.4986
-1471.31
70.8958
-1239.3
55.3889
-1100.05
41.3817
-997.159
26.9256
-918.132
8.46551
-845.546
-9.55544
-804.345
-19.6714
-656.967
-31.2174
-406.506
-51.6081
-262.782
-71.7739
-75.194
-86.3669
108.225
-98.962
200.247
-111.089
302.718
-122.769
368.774
-135.004
332.233
-148.438
205.134
-164.324
42.9173
-182.522
-94.9925
-201.261
-206.643
-219.45
-318.489
-236.368
-442.156
-251.106
-581.103
-262.866
-740.363
-270.836
-922.161
-274.228
-1126.55
-272.203
-1350.65
-263.784
-1589.98
-247.87
-1836.86
-223.262
-2081.78
-189.015
-2310.49
-144.803
-2502.81
-90.3642
-2632.94
-26.4749
-2676.52
45.1961
-2594.2
120.773
-2375.52
193.819
-1991.38
252.617
-1454.26
279.085
-733.567
270.144
2.88838
239.247
564.052
196.928
903.467
146.867
1034.2
86.012
953.746
28.8664
1096.46
-147.074
2.51241
-388.422
306.579
-600.069
3390.6
6450.56
-73.7506
-555.205
-61.6837
-619.423
-53.5879
-637.503
-47.9469
-706.245
-46.5187
-797.914
-45.3386
-903.339
-41.328
-1023.78
-35.2783
-1133.94
-27.6742
-1227.26
-14.9483
-1294.2
-0.0503045
-1320.96
13.3938
-1329.07
26.6611
-1331.92
38.7581
-1328.84
47.7039
-1314.16
55.8178
-1290.28
65.9651
-1296.78
73.732
-1327.01
74.6569
-1306.72
66.4861
-1233.98
42.0962
-1141.24
-1.72866
-1038.03
-71.5658
-876.684
-148.18
-654.584
-178.152
-734.04
-145.386
-1221.68
-79.0644
-1745.75
-6.65339
-2124.35
51.1598
-2162.94
86.4149
-1841.77
93.505
-1478.4
77.3103
-1223.11
58.5778
-1081.32
43.3194
-981.9
28.6665
-903.479
9.63562
-826.515
-9.81697
-784.892
-20.7598
-646.024
-32.3871
-394.879
-52.4896
-242.679
-72.0734
-55.6102
-86.2082
122.359
-98.4298
212.468
-110.304
314.592
-121.496
379.966
-132.933
343.67
-146.656
218.857
-164.953
61.2141
-185.494
-74.451
-205.277
-186.861
-224.358
-299.408
-242.371
-424.142
-258.292
-565.183
-271.274
-727.382
-280.469
-912.966
-285.04
-1121.98
-284.093
-1351.59
-276.595
-1597.48
-261.43
-1852.02
-237.449
-2105.76
-203.802
-2344.13
-160.175
-2546.44
-106.014
-2687.1
-41.5089
-2741.02
32.4547
-2668.16
112.509
-2455.58
192.23
-2071.1
258.676
-1520.7
289.951
-764.841
280.186
12.6536
243.086
601.152
193.645
952.908
140.215
1087.63
76.3299
1017.63
15.4628
1157.33
-166.3
184.276
-411.714
551.992
-597.603
3576.49
6422.38
-74.5328
-562.774
-62.6957
-631.26
-53.3121
-646.886
-45.2007
-714.357
-41.375
-801.74
-40.0645
-904.649
-37.8708
-1025.98
-33.6316
-1138.18
-27.1573
-1233.74
-15.2603
-1306.1
-0.859753
-1335.36
12.4294
-1342.36
25.4512
-1344.95
37.3917
-1340.78
46.4495
-1323.21
54.8462
-1298.68
65.3393
-1307.27
74.027
-1335.7
76.678
-1309.37
69.4304
-1226.74
44.0908
-1115.9
-2.31987
-991.616
-74.4982
-804.506
-147.807
-581.274
-168.178
-713.67
-126.298
-1263.56
-56.8222
-1815.22
15.1703
-2196.34
69.2782
-2217.05
99.3102
-1871.8
103.337
-1482.43
83.6372
-1203.41
61.6298
-1059.31
45.0266
-965.297
30.1927
-888.645
10.9248
-807.247
-9.81
-764.158
-21.8737
-633.96
-33.5928
-383.16
-53.2059
-223.066
-72.1787
-36.6374
-86.0724
136.253
-97.9929
224.389
-109.603
326.202
-120.44
390.803
-131.675
354.905
-146.341
233.523
-166.293
81.1654
-187.934
-52.81
-208.601
-166.193
-228.791
-279.219
-247.967
-404.966
-265.096
-548.053
-279.33
-713.148
-289.788
-902.507
-295.589
-1116.18
-295.799
-1351.38
-289.366
-1603.91
-275.228
-1866.16
-252.381
-2128.61
-220.143
-2376.37
-178.114
-2588.47
-125.159
-2740.05
-60.5484
-2805.63
15.6838
-2744.39
100.482
-2540.37
187.035
-2157.65
261.186
-1594.85
297.734
-801.389
288.424
21.9631
246.745
642.831
190.397
1009.26
132.787
1145.24
65.7391
1084.68
1.02606
1222.04
-184.764
370.065
-426.511
793.739
-577.88
3727.85
6301.28
-75.406
-569.353
-64.3248
-642.342
-54.2391
-656.972
-44.0456
-724.55
-37.124
-808.662
-34.2633
-907.51
-33.0844
-1027.16
-30.5895
-1140.68
-25.4787
-1238.85
-14.9562
-1316.62
-1.44752
-1348.87
11.6143
-1355.42
24.3001
-1357.63
35.9144
-1352.4
44.9808
-1332.28
53.6633
-1307.36
64.5063
-1318.11
74.2127
-1345.4
78.7774
-1313.93
72.5417
-1220.5
46.3273
-1089.68
-2.3646
-942.924
-75.4499
-731.421
-143.242
-513.482
-152.737
-704.176
-102.959
-1313.34
-32.9828
-1885.2
37.1926
-2266.51
88.8194
-2268.68
113.79
-1896.77
113.248
-1481.89
89.8959
-1180.06
64.5967
-1034.01
46.5273
-947.228
31.5517
-873.67
12.3917
-788.087
-9.4039
-742.362
-22.6172
-620.747
-34.5418
-371.235
-54.0334
-203.575
-72.4802
-18.1906
-85.958
149.731
-97.5128
235.944
-108.803
337.492
-119.326
401.325
-130.643
366.223
-146.353
249.233
-167.596
102.409
-190.29
-30.1163
-212.034
-144.449
-233.284
-257.968
-253.581
-384.669
-271.933
-529.702
-287.446
-697.635
-299.205
-890.748
-306.294
-1109.09
-307.765
-1349.91
-302.596
-1609.08
-289.868
-1878.89
-268.827
-2149.65
-238.981
-2406.22
-199.617
-2627.83
-148.556
-2791.11
-83.7643
-2870.42
-4.46751
-2823.69
86.0922
-2630.93
179.881
-2251.44
261.315
-1676.29
303.131
-843.205
295.255
29.8392
250.128
687.959
187.266
1072.12
124.999
1207.5
54.9897
1154.69
-13.2736
1290.31
-198.819
555.61
-431.718
1026.64
-557.345
3853.48
6211.99
-76.1316
-574.63
-66.2858
-652.187
-56.0719
-667.186
-44.4807
-736.141
-34.4113
-818.731
-28.7445
-913.177
-27.3097
-1028.59
-26.1289
-1141.86
-22.5039
-1242.47
-13.8722
-1325.26
-1.67273
-1361.07
11.0362
-1368.13
23.2733
-1369.87
34.3788
-1363.5
43.3487
-1341.25
52.3134
-1316.32
63.5407
-1329.34
74.3463
-1356.21
80.8755
-1320.46
75.6457
-1215.27
48.6906
-1062.73
-1.67574
-892.558
-73.8856
-659.211
-133.955
-453.413
-131.821
-706.31
-76.2651
-1368.89
-8.55158
-1952.91
58.3963
-2333.46
108.381
-2318.66
129.167
-1917.56
123.101
-1475.82
95.8588
-1152.81
67.3771
-1005.53
47.7849
-927.636
32.7734
-858.658
14.0755
-769.389
-8.65253
-719.634
-23.2118
-606.188
-35.3038
-359.143
-54.5577
-184.321
-72.4848
-0.263464
-85.6396
162.886
-96.8345
247.139
-107.76
348.418
-118.061
411.626
-129.807
377.968
-146.71
266.136
-168.972
124.671
-192.499
-6.5889
-215.266
-121.682
-237.58
-235.654
-259.054
-363.196
-278.681
-510.075
-295.527
-680.788
-308.649
-877.626
-317.106
-1100.63
-319.976
-1347.04
-316.343
-1612.71
-305.544
-1889.69
-287.178
-2168.01
-260.873
-2432.52
-225.189
-2663.52
-176.294
-2840.01
-110.511
-2936.21
-26.5255
-2907.68
71.4179
-2728.88
172.843
-2352.86
260.351
-1763.8
306.271
-889.124
300.161
35.9492
252.775
735.344
184.095
1140.8
117.044
1274.55
44.4475
1227.29
-26.834
1361.59
-209.377
738.153
-430.781
1248.04
-533.582
3956.28
6067.24
-76.4936
-578.314
-68.3102
-660.371
-58.4406
-677.055
-46.1887
-748.393
-33.5211
-831.398
-24.3367
-922.361
-21.1714
-1031.76
-20.4517
-1142.58
-18.2115
-1244.71
-11.8295
-1331.64
-1.32516
-1371.57
10.8176
-1380.28
22.4624
-1381.51
32.8852
-1373.93
41.6442
-1350.01
50.8732
-1325.55
62.6029
-1341.07
74.624
-1368.23
83.0044
-1328.84
78.6577
-1210.92
51.198
-1035.27
0.0628847
-841.423
-69.363
-589.785
-119.965
-402.811
-106.227
-720.048
-47.5085
-1427.61
15.6069
-2016.03
78.2148
-2396.07
126.548
-2367
144.164
-1935.18
132.513
-1464.17
101.304
-1121.6
69.8976
-974.122
48.8214
-906.559
33.9032
-843.74
15.9883
-751.474
-7.4916
-696.154
-23.4448
-590.234
-35.772
-346.816
-54.9037
-165.189
-72.322
17.1549
-85.0638
175.627
-95.8391
257.914
-106.377
358.956
-116.62
421.869
-129.086
390.435
-147.142
284.192
-170.208
147.736
-194.58
17.7833
-218.429
-97.8333
-241.842
-212.241
-264.517
-340.521
-285.454
-489.138
-303.678
-662.564
-318.215
-863.089
-328.128
-1090.72
-332.568
-1342.6
-330.828
-1614.45
-322.642
-1897.87
-308.019
-2182.64
-286.479
-2454.06
-255.206
-2694.79
-208.033
-2887.18
-139.536
-3004.7
-48.4166
-2998.8
59.0667
-2836.36
168.621
-2462.42
260.417
-1855.59
308.046
-936.753
303.24
40.755
254.556
784.028
180.777
1214.58
109.028
1346.3
34.2589
1302.05
-39.4059
1435.25
-217.075
915.822
-424.584
1455.55
-498.881
4030.58
5899.16
-76.2223
-580.082
-70.1367
-666.456
-60.9619
-686.23
-48.6414
-760.714
-34.245
-845.795
-21.5606
-935.046
-15.4198
-1037.9
-13.986
-1144.01
-12.7196
-1245.98
-8.66292
-1335.69
-0.141754
-1380.1
11.1202
-1391.54
21.9757
-1392.37
31.5489
-1383.5
39.9724
-1358.43
49.4277
-1335.01
61.8313
-1353.47
75.1885
-1381.59
85.1472
-1338.8
81.4441
-1207.22
53.818
-1007.64
3.07592
-790.681
-61.6542
-525.055
-101.541
-362.924
-77.0894
-744.499
-17.9596
-1486.74
38.8186
-2072.81
96.1254
-2453.38
141.822
-2412.69
156.902
-1950.26
140.563
-1447.83
105.828
-1086.87
72.0044
-940.298
49.6203
-884.175
34.9299
-829.049
18.0665
-734.611
-5.97138
-672.116
-23.3679
-572.838
-35.9294
-334.255
-54.8654
-146.253
-71.8007
34.0902
-84.1173
187.944
-94.431
268.228
-104.623
369.148
-115.06
432.306
-128.496
403.871
-147.632
303.328
-171.368
171.472
-196.57
42.9847
-221.499
-72.904
-246.028
-187.712
-269.942
-316.606
-292.244
-466.837
-311.901
-642.907
-327.919
-847.07
-339.39
-1079.25
-345.625
-1336.37
-346.261
-1613.82
-341.571
-1902.56
-331.938
-2192.27
-316.295
-2469.71
-289.583
-2721.5
-242.728
-2934.04
-168.906
-3078.52
-67.7406
-3099.96
51.5032
-2955.61
169.683
-2580.6
263.89
-1949.8
309.85
-982.713
304.598
46.0064
255.228
833.398
177.166
1292.64
100.981
1422.49
24.4627
1378.57
-50.8513
1510.57
-221.905
1086.88
-414.251
1647.9
-469.377
4085.71
5756.42
-74.975
-579.554
-71.5008
-669.931
-63.3076
-694.423
-51.321
-772.701
-36.0432
-861.073
-20.4764
-950.613
-10.7063
-1047.67
-7.31374
-1147.4
-6.29378
-1247
-4.27053
-1337.72
2.14998
-1386.52
12.1474
-1401.54
21.957
-1402.18
30.5151
-1392.06
38.4616
-1366.38
48.0828
-1344.63
61.3314
-1366.72
76.0652
-1396.32
87.1762
-1349.91
83.8368
-1203.88
56.5306
-980.334
7.54336
-741.694
-50.7303
-466.781
-79.2493
-334.405
-46.0964
-777.652
10.9474
-1543.78
60.4732
-2122.33
111.323
-2504.23
152.612
-2453.98
165.182
-1962.83
145.823
-1428.47
108.841
-1049.89
73.4916
-904.949
50.1536
-860.837
35.8192
-814.715
20.2191
-719.011
-4.07086
-647.826
-22.8635
-554.045
-35.7357
-321.382
-54.4389
-127.55
-70.8857
50.537
-82.7372
199.796
-92.5881
278.078
-102.568
379.128
-113.49
443.228
-128.035
418.416
-148.109
323.403
-172.426
195.789
-198.451
69.0098
-224.467
-46.8888
-250.17
-162.008
-275.375
-291.401
-299.089
-443.122
-320.23
-621.767
-337.792
-829.508
-350.946
-1066.09
-359.27
-1328.04
-362.922
-1610.16
-362.827
-1902.66
-359.523
-2195.57
-350.568
-2478.66
-327.685
-2744.38
-278.701
-2983.02
-196.325
-3160.9
-82.3033
-3213.98
50.3717
-3088.28
177.525
-2707.75
272.757
-2045.03
313.342
-1023.3
304.722
54.6263
254.682
883.439
173.139
1374.18
92.8949
1502.73
15.0343
1456.43
-61.105
1586.7
-224.193
1249.96
-400.316
1824.02
-438.323
4123.71
5585.35
-72.2885
-576.277
-72.0817
-670.137
-65.1904
-701.315
-53.8227
-784.068
-38.2884
-876.607
-20.7329
-968.168
-7.37365
-1061.03
-1.02156
-1153.76
0.692098
-1248.71
1.33722
-1338.36
5.75982
-1390.94
14.1152
-1409.89
22.5796
-1410.64
29.9493
-1399.43
37.2573
-1373.69
46.9548
-1354.33
61.1366
-1380.9
77.0927
-1412.28
88.7756
-1361.59
85.5643
-1200.67
59.2593
-954.03
13.5156
-695.95
-36.8046
-416.461
-53.7565
-317.454
-15.0014
-816.407
37.6805
-1596.47
79.7955
-2164.45
122.603
-2547.03
157.177
-2488.56
166.694
-1972.34
146.497
-1408.28
109.53
-1012.92
74.1017
-869.52
50.4034
-837.139
36.5543
-800.866
22.3592
-704.816
-1.79855
-623.668
-21.8996
-533.944
-35.173
-308.109
-53.5325
-109.19
-69.5053
66.5098
-80.913
211.203
-90.3826
287.548
-100.361
389.106
-112.023
454.89
-127.682
434.075
-148.536
344.256
-173.393
220.646
-200.242
95.8595
-227.364
-19.767
-254.282
-135.09
-280.817
-264.867
-305.996
-417.943
-328.672
-599.091
-347.848
-810.333
-362.841
-1051.1
-373.649
-1317.24
-381.153
-1602.66
-386.957
-1896.86
-391.254
-2191.28
-389.126
-2480.79
-368.247
-2765.26
-313.83
-3037.44
-219.617
-3255.11
-90.6614
-3342.94
56.1061
-3235.05
192.305
-2843.95
288.094
-2140.82
320.092
-1055.3
304.275
70.4434
252.835
934.879
168.562
1458.45
84.7275
1586.57
5.92393
1535.24
-70.1961
1662.82
-224.254
1404.02
-383.615
1983.38
-402.198
4142.3
5408.15
-67.5465
-569.734
-71.4402
-666.244
-66.3126
-706.442
-55.8497
-794.531
-40.4626
-891.994
-21.776
-986.855
-5.38253
-1077.42
4.46045
-1163.6
7.83487
-1252.09
8.01532
-1338.54
10.7653
-1393.69
17.2052
-1416.33
24.0251
-1417.46
30.0226
-1405.43
36.5066
-1380.17
46.1526
-1363.97
61.2154
-1395.97
77.9759
-1429.04
89.4981
-1373.12
86.2803
-1197.45
61.878
-929.627
20.9111
-654.983
-20.3184
-375.232
-25.7578
-312.014
15.1311
-857.296
61.1512
-1642.49
95.7665
-2199.06
128.528
-2579.79
153.734
-2513.76
159.306
-1977.92
140.753
-1389.72
106.984
-979.153
73.5819
-836.118
50.4237
-813.981
37.1973
-787.64
24.4568
-692.075
0.864317
-600.076
-20.4235
-512.656
-34.2401
-294.292
-52.133
-91.2975
-67.6461
82.0228
-78.6934
222.251
-87.9525
296.807
-98.1743
399.328
-110.73
467.445
-127.398
450.744
-148.895
365.753
-174.289
246.04
-201.938
123.509
-230.165
8.45914
-258.357
-106.897
-286.28
-236.944
-312.975
-391.248
-337.237
-574.83
-358.1
-789.469
-375.134
-1034.07
-388.957
-1303.41
-401.371
-1590.24
-414.517
-1883.71
-427.377
-2178.42
-431.27
-2476.89
-409.482
-2787.05
-345.958
-3100.96
-237.279
-3363.79
-92.5014
-3487.72
67.9562
-3395.51
213.031
-2989.03
309.81
-2237.6
331.139
-1076.63
304.091
97.491
249.711
989.26
163.299
1544.86
76.4147
1673.45
-2.93219
1614.58
-78.2423
1738.13
-222.474
1548.25
-365.729
2126.64
-371.804
4148.37
5252.05
-59.972
-559.401
-68.9636
-657.252
-66.2944
-709.111
-57.1354
-803.69
-42.212
-906.917
-23.0669
-1006
-4.40918
-1096.08
8.95982
-1176.97
14.811
-1257.94
15.5122
-1339.24
17.0746
-1395.25
21.5161
-1420.77
26.4544
-1422.4
30.8933
-1409.86
36.3417
-1385.62
45.76
-1373.39
61.4987
-1411.71
78.4137
-1445.95
88.9233
-1383.63
85.6407
-1194.17
64.2052
-908.192
29.4901
-620.268
-1.93542
-343.806
3.79743
-317.747
43.9835
-897.482
81.1492
-1679.65
107.358
-2225.27
127.739
-2600.17
140.793
-2526.82
141.496
-1978.62
127.22
-1375.45
100.425
-952.358
71.7461
-807.439
50.3621
-792.597
37.9069
-775.184
26.5513
-680.72
3.91197
-577.437
-18.4441
-490.3
-32.9504
-279.786
-50.2346
-74.0133
-65.3198
97.1081
-76.1605
233.091
-85.4452
306.092
-96.1376
410.021
-109.622
480.93
-127.136
468.257
-149.175
387.792
-175.113
271.977
-203.552
151.949
-232.899
37.8058
-262.41
-77.3864
-291.767
-207.586
-320.027
-362.988
-345.922
-548.935
-368.562
-766.829
-387.908
-1014.72
-405.449
-1285.87
-424.056
-1571.64
-445.991
-1861.77
-467.766
-2156.64
-475.74
-2468.92
-449.339
-2813.45
-373.378
-3176.92
-248.848
-3488.32
-88.628
-3647.94
84.4168
-3568.55
238.155
-3142.77
336.9
-2336.34
346.795
-1086.52
304.953
139.333
245.407
1048.81
157.212
1633.06
67.8696
1762.79
-11.6085
1694.06
-85.4052
1811.93
-219.441
1682.29
-346.799
2254
-339.873
4141.44
5082.06
-48.6788
-544.842
-63.835
-642.096
-64.6044
-708.342
-57.3596
-810.935
-43.2824
-920.995
-24.1906
-1025.09
-4.03685
-1116.23
12.5068
-1193.51
21.3713
-1266.8
23.4936
-1341.37
24.4572
-1396.21
27.0406
-1423.36
29.9832
-1425.34
32.6939
-1412.58
36.8751
-1389.8
45.8307
-1382.35
61.9109
-1427.79
78.2411
-1462.28
86.8678
-1392.25
83.4464
-1190.75
66.0447
-890.79
38.8606
-593.084
17.5766
-322.522
33.3647
-333.535
71.2424
-935.36
98.1587
-1706.57
113.881
-2240.99
119.357
-2605.65
117.748
-2525.21
113.057
-1973.93
105.66
-1368.05
89.5835
-936.282
68.556
-786.411
50.4344
-774.475
38.9098
-763.66
28.7373
-670.547
7.3123
-556.012
-16.0203
-466.968
-31.3355
-264.471
-47.8673
-57.4815
-62.5582
111.799
-73.393
243.926
-82.9654
315.664
-94.3032
421.358
-108.662
495.289
-126.851
486.446
-149.38
410.321
-175.876
298.473
-205.093
181.165
-235.556
68.2688
-266.427
-46.5151
-297.278
-176.735
-327.149
-333.117
-354.723
-521.361
-379.251
-742.302
-401.277
-992.695
-423.445
-1263.7
-449.72
-1545.36
-481.674
-1829.82
-511.811
-2126.51
-520.83
-2459.9
-485.899
-2848.38
-395.221
-3267.6
-254.939
-3628.6
-80.6001
-3822.27
103.773
-3752.92
266.153
-3305.14
367.945
-2438.13
366.692
-1085.27
307.437
198.588
240.089
1116.15
150.164
1722.98
58.9884
1853.97
-20.1948
1773.25
-91.8232
1883.56
-215.328
1805.79
-327.415
2366.08
-310.614
4124.64
4935.42
-32.8445
-525.91
-55.046
-619.894
-60.5091
-702.879
-56.0879
-815.356
-43.4213
-933.661
-24.8393
-1043.67
-3.88085
-1137.19
15.2441
-1212.64
27.3303
-1278.89
31.6019
-1345.64
32.6158
-1397.23
33.6819
-1424.42
34.6672
-1426.33
35.5215
-1413.43
38.1981
-1392.48
46.3941
-1390.54
62.3867
-1443.78
77.4968
-1477.39
83.53
-1398.29
79.7882
-1187.01
67.2482
-878.25
48.5512
-574.387
37.5293
-311.5
61.3358
-357.342
96.0354
-970.059
112.385
-1722.92
115.115
-2243.72
103.42
-2593.96
85.6295
-2507.42
75.9549
-1964.25
77.658
-1369.75
75.0715
-933.695
64.2014
-775.541
50.8645
-761.138
40.4445
-753.24
31.0974
-661.2
11.0133
-535.927
-13.2083
-442.746
-29.4401
-248.239
-45.0794
-41.8422
-59.3971
126.117
-70.4407
254.97
-80.5523
325.776
-92.6487
433.455
-107.785
510.425
-126.518
505.179
-149.513
433.317
-176.571
325.531
-206.548
211.143
-238.119
99.8393
-270.398
-14.2362
-302.81
-144.323
-334.335
-301.592
-363.636
-492.06
-390.195
-715.742
-415.403
-967.487
-443.338
-1235.77
-478.839
-1509.86
-521.547
-1787.11
-558.387
-2089.67
-564.627
-2453.66
-517.768
-2895.24
-411.602
-3373.76
-256.943
-3783.26
-70.1871
-4009.03
124.538
-3947.65
295.866
-3476.47
401.634
-2543.9
390.033
-1073.67
311.761
276.86
233.941
1193.97
142.031
1814.89
49.6572
1946.34
-28.7925
1851.69
-97.6634
1952.43
-210.508
1918.64
-308.218
2463.79
-283.671
4100.1
4783.18
-12.1315
-503.178
-41.5085
-590.517
-53.0714
-691.316
-52.7339
-815.694
-42.3114
-944.084
-24.7484
-1061.24
-3.60368
-1158.33
17.4033
-1233.64
32.6141
-1294.1
39.5406
-1352.56
41.2622
-1398.95
41.2919
-1424.45
40.5005
-1425.54
39.4301
-1412.36
40.3772
-1393.42
47.4633
-1397.63
62.8796
-1459.2
76.39
-1490.91
79.4787
-1401.37
75.1229
-1182.65
67.7955
-870.923
58.1717
-564.763
57.3986
-310.727
86.7849
-386.728
117.411
-1000.69
123.509
-1729.02
111.364
-2231.58
81.2775
-2563.87
47.6864
-2473.82
34.749
-1951.31
46.7945
-1381.8
58.5185
-945.419
59.1575
-776.18
51.8429
-753.824
42.7156
-744.112
33.7206
-652.205
14.96
-517.167
-10.0636
-417.722
-27.3125
-230.99
-41.9329
-27.2219
-55.8721
140.056
-67.3192
266.417
-78.1891
336.646
-91.1095
446.375
-106.927
526.243
-126.122
524.374
-149.582
456.777
-177.2
353.149
-207.924
241.866
-240.58
132.496
-274.308
19.4913
-308.355
-110.277
-341.573
-268.373
-372.652
-460.981
-401.445
-686.948
-430.502
-938.43
-465.567
-1200.7
-511.77
-1463.66
-565.171
-1733.71
-605.932
-2048.91
-605.341
-2454.25
-544.337
-2956.25
-423.46
-3494.64
-256.514
-3950.21
-58.876
-4206.67
145.679
-4152.2
326.587
-3657.38
437.07
-2654.39
415.862
-1052.46
317.747
374.975
227.111
1284.61
132.703
1909.3
39.7551
2039.29
-37.5076
1928.96
-103.107
2018.03
-205.341
2020.87
-289.564
2548.02
-256.127
4066.66
4636.47
12.6408
-478.689
-22.3393
-555.537
-41.2407
-672.415
-46.548
-810.386
-39.5423
-951.089
-23.6559
-1077.12
-2.90393
-1179.09
19.277
-1255.82
37.2675
-1312.09
47.1185
-1362.42
50.1646
-1402
49.7068
-1423.99
47.4215
-1423.25
44.4268
-1409.36
43.4466
-1392.44
49.0408
-1403.22
63.373
-1473.53
75.2052
-1502.74
75.4813
-1401.65
70.2142
-1177.38
67.8424
-868.551
67.4035
-564.324
76.77
-320.094
109.669
-419.627
135.143
-1026.16
131.3
-1725.17
103.573
-2203.85
55.6883
-2515.99
9.2528
-2427.39
-4.15965
-1937.9
17.7657
-1403.72
42.2356
-969.889
54.1744
-788.119
53.5281
-753.178
45.8708
-736.455
36.7145
-643.049
19.0991
-499.551
-6.64283
-391.98
-24.9796
-212.653
-38.494
-13.7075
-52.0224
153.584
-64.022
278.416
-75.8306
348.454
-89.6156
460.16
-106.045
542.672
-125.665
543.994
-149.591
480.703
-177.763
381.321
-209.228
273.332
-242.969
166.236
-278.171
54.6934
-313.903
-74.5444
-348.852
-233.424
-381.77
-428.064
-413.079
-655.639
-446.854
-904.655
-490.582
-1156.98
-548.638
-1405.6
-611.638
-1670.71
-652.647
-2007.9
-641.631
-2465.27
-565.821
-3032.06
-432.169
-3628.29
-255.08
-4127.3
-47.6223
-4414.13
166.618
-4366.44
357.938
-3848.7
473.775
-2770.22
443.256
-1021.94
324.869
493.362
219.648
1389.83
122.083
2006.87
29.1582
2132.22
-46.443
2004.56
-108.335
2079.92
-200.151
2112.69
-272.044
2619.91
-233.415
4028.03
4506.65
39.943
-455.364
2.58934
-518.184
-24.1
-645.725
-36.6678
-797.819
-34.6011
-953.156
-21.2831
-1090.44
-1.51461
-1198.86
21.1728
-1278.51
41.4288
-1332.35
54.251