/*--------------------------------*- C++ -*----------------------------------*\
| =========                 |                                                 |
| \\      /  F ield         | OpenFOAM: The Open Source CFD Toolbox           |
|  \\    /   O peration     | Version:  4.1                                   |
|   \\  /    A nd           | Web:      www.OpenFOAM.org                      |
|    \\/     M anipulation  |                                                 |
\*---------------------------------------------------------------------------*/
FoamFile
{
    version     2.0;
    format      ascii;
    class       volVectorField;
    location    "7";
    object      U;
}
// * * * * * * * * * * * * * * * * * * * * * * * * * * * * * * * * * * * * * //

dimensions      [0 1 -1 0 0 0 0];

internalField   nonuniform List<vector> 
6785
(
(1.47947e-14 -0.82059 16.1153)
(1.02987e-14 -6.70718 12.4817)
(-2.83296e-15 -4.7967 12.8733)
(3.19995e-15 -4.31846 12.6163)
(8.41449e-16 -3.70919 12.442)
(-1.96705e-16 -3.2503 12.2112)
(2.39833e-15 -2.87377 11.946)
(5.65291e-16 -2.5929 11.6242)
(-8.2831e-16 -2.40406 11.2309)
(1.37644e-15 -2.27862 10.7865)
(2.66925e-16 -2.2072 10.3461)
(-4.86792e-16 -2.39632 9.85563)
(7.01622e-16 -2.93359 9.21699)
(-1.18945e-16 -2.31863 8.82121)
(-4.49256e-16 0.865122 7.41187)
(1.75987e-14 -7.58441 26.0646)
(1.55682e-14 -16.6047 21.6916)
(-3.90776e-15 -11.4844 22.1842)
(5.6866e-15 -11.9207 20.689)
(9.10403e-16 -10.9135 19.6962)
(5.0807e-16 -10.2462 18.6113)
(3.36345e-15 -9.53746 17.5255)
(4.00651e-16 -8.85763 16.4221)
(-1.05608e-16 -8.23909 15.346)
(1.9739e-15 -7.72876 14.3781)
(1.6114e-16 -7.25426 13.5434)
(3.69977e-16 -6.76916 12.6611)
(2.01835e-15 -6.36077 11.2312)
(-2.57437e-16 -4.99429 8.26651)
(-6.08483e-16 -0.98878 1.94203)
(1.88272e-14 -10.3736 27.5363)
(1.39316e-14 -17.3518 23.9195)
(-2.53879e-15 -11.6095 24.3463)
(5.08136e-15 -12.5303 22.1152)
(8.61466e-16 -10.8705 20.9949)
(1.26621e-15 -10.0784 19.4983)
(1.96954e-15 -9.09282 18.0971)
(3.42315e-16 -8.18866 16.6742)
(3.31622e-16 -7.28976 15.2291)
(5.03871e-16 -6.41323 13.7098)
(-1.58696e-16 -5.68843 12.2061)
(-3.54029e-16 -5.36336 10.9574)
(-2.4927e-16 -5.34817 9.82153)
(-8.5007e-16 -4.64251 7.35825)
(-1.17195e-15 -1.22401 0.58262)
(1.96826e-14 -11.7202 27.2175)
(1.10743e-14 -16.9515 23.9758)
(-1.04137e-15 -11.7499 24.3187)
(4.25548e-15 -13.0445 21.6756)
(2.59601e-16 -11.02 20.6477)
(2.08704e-15 -10.4336 18.9426)
(8.32128e-16 -9.37723 17.5422)
(-3.90012e-16 -8.5106 16.0857)
(1.05418e-15 -7.45956 14.4286)
(-5.08098e-16 -5.96149 11.9395)
(-1.15751e-15 -3.91563 8.24234)
(-2.3419e-16 -2.27282 4.6854)
(-1.4819e-15 -2.45094 4.04413)
(-2.52004e-15 -3.47225 5.08312)
(1.22317e-15 -2.5981 4.5936)
(1.96143e-14 -12.4434 27.4332)
(1.0214e-14 -17.3397 25.0533)
(-1.02194e-15 -12.2495 25.062)
(3.97165e-15 -13.9228 22.2635)
(-4.31605e-16 -11.5347 21.4357)
(2.24472e-15 -11.2696 19.5978)
(6.73039e-16 -10.1166 18.3019)
(-9.11095e-16 -9.3498 16.8863)
(7.98125e-16 -8.33979 15.3457)
(-5.84073e-16 -6.78497 12.8674)
(-1.34568e-15 -4.11136 8.49191)
(6.55264e-16 -0.594262 2.86558)
(5.77194e-15 1.85444 -0.303048)
(9.16391e-15 1.30988 -0.126917)
(4.67976e-15 -0.171252 1.28858)
(1.90774e-14 -12.5196 26.5375)
(1.16854e-14 -17.7866 26.3214)
(-8.46561e-16 -12.8369 25.4437)
(3.61903e-15 -14.3044 22.6267)
(-1.14531e-16 -12.0288 21.7994)
(1.66479e-15 -11.8319 19.9364)
(1.1823e-15 -10.761 18.6193)
(-4.52187e-16 -10.0607 17.2031)
(2.38901e-16 -9.25849 15.7965)
(-2.37111e-17 -8.18077 13.9399)
(-7.49159e-16 -6.36954 10.9809)
(-4.71944e-16 -3.53365 6.6017)
(2.72057e-15 0.546996 1.48576)
(7.07129e-15 3.66278 -2.7518)
(5.7494e-15 1.20013 -3.52731)
(1.89323e-14 -12.0833 24.542)
(1.37949e-14 -17.7492 26.8474)
(4.9362e-16 -13.2236 25.2025)
(3.23146e-15 -14.1152 22.2808)
(9.14407e-16 -12.1509 21.3179)
(1.72515e-15 -11.8445 19.4745)
(1.69743e-15 -10.8707 18.0633)
(5.35599e-16 -10.1476 16.588)
(8.38901e-16 -9.42262 15.1571)
(5.89001e-16 -8.60637 13.6033)
(2.07715e-16 -7.52328 11.6205)
(1.13788e-15 -5.8903 8.96172)
(1.71091e-15 -3.65156 5.49354)
(3.93102e-17 -0.757951 1.86904)
(-2.22986e-15 0.5599 -3.29018)
(1.8355e-14 -11.4921 22.4792)
(1.54388e-14 -17.3174 26.8086)
(2.13052e-15 -13.3707 24.8258)
(2.93621e-15 -13.688 21.7749)
(1.58509e-15 -11.9355 20.6711)
(2.11907e-15 -11.5122 18.8742)
(1.98197e-15 -10.5601 17.4148)
(1.21908e-15 -9.7754 15.8962)
(1.63122e-15 -9.00738 14.4201)
(8.45543e-16 -8.21046 12.9521)
(6.91706e-16 -7.35091 11.3375)
(1.91886e-15 -6.20508 9.44693)
(1.82257e-15 -4.78598 6.95438)
(-5.07996e-16 -2.47323 3.75688)
(-8.04899e-15 -0.385212 -1.92202)
(1.79037e-14 -11.0031 20.9567)
(1.64922e-14 -16.7148 26.452)
(2.70111e-15 -13.4173 24.4899)
(2.91565e-15 -13.2846 21.3946)
(2.00198e-15 -11.7018 20.1394)
(1.28818e-15 -11.1854 18.4273)
(2.18818e-15 -10.2783 16.9677)
(1.85803e-15 -9.47745 15.4828)
(7.42272e-16 -8.70184 14.0466)
(1.24665e-15 -7.91032 12.6537)
(1.44239e-15 -7.11573 11.2105)
(1.12668e-16 -6.16318 9.66468)
(1.55022e-15 -5.09436 7.73675)
(7.80906e-16 -3.2867 5.22264)
(-1.33442e-14 -0.958278 -0.411938)
(1.73032e-14 -10.7291 20.0985)
(1.7028e-14 -16.0414 25.7453)
(3.45584e-15 -13.283 24.0174)
(1.3768e-15 -12.9479 20.9465)
(2.14553e-15 -11.4676 19.5982)
(1.36329e-15 -10.9396 17.9667)
(3.27779e-16 -10.1227 16.5856)
(1.9926e-15 -9.4032 15.2262)
(1.09266e-15 -8.70335 13.8944)
(-1.04582e-15 -7.98425 12.5917)
(5.07775e-16 -7.27392 11.2898)
(4.7182e-17 -6.48896 10.0065)
(-1.01258e-15 -5.67793 8.57096)
(1.50247e-15 -4.30918 6.82468)
(-6.06658e-15 -2.08393 1.99539)
(1.52984e-14 -10.8238 19.9368)
(1.70581e-14 -15.2643 24.7733)
(1.87549e-16 -12.8911 23.3428)
(3.24952e-16 -12.6147 20.3255)
(3.16378e-15 -11.0647 19.0447)
(-2.69001e-15 -10.6674 17.3939)
(-7.42101e-16 -9.84902 16.1177)
(3.45066e-15 -9.25684 14.7739)
(-3.89818e-15 -8.64776 13.4864)
(-4.16715e-15 -8.07685 12.2939)
(1.41596e-15 -7.5712 11.277)
(-3.60085e-15 -7.10822 10.4975)
(-4.721e-15 -6.62946 9.81459)
(-4.20937e-15 -5.71983 8.86669)
(-8.59153e-15 -3.68933 5.02869)
(1.56438e-14 -11.4181 20.5114)
(1.52486e-14 -14.447 23.7762)
(-4.21206e-15 -12.3087 22.4222)
(1.44168e-15 -12.0775 19.7291)
(2.9189e-15 -10.4149 18.4514)
(-6.40996e-15 -9.91626 16.5096)
(1.22195e-16 -8.79868 14.936)
(3.08163e-15 -8.23432 13.3328)
(-7.62344e-15 -7.70484 12.1523)
(-4.31469e-15 -7.44865 11.319)
(-1.48853e-18 -7.3475 10.9591)
(-9.06142e-15 -7.43911 11.1021)
(-4.14525e-15 -7.51606 11.4981)
(-7.74064e-15 -7.22525 11.3102)
(-1.12856e-14 -5.26978 8.26331)
(1.37064e-14 -11.8475 20.8502)
(1.35741e-14 -15.2485 25.0208)
(-4.88495e-15 -12.3755 22.4871)
(8.41683e-16 -12.1355 20.2612)
(1.14088e-15 -10.5133 19.0043)
(-5.37652e-15 -9.6089 16.6051)
(-2.22493e-16 -7.89558 14.2561)
(1.68824e-15 -6.82667 12.0537)
(-6.65511e-15 -6.02534 10.7002)
(-3.05335e-15 -5.75995 9.99952)
(-3.26638e-15 -5.93159 10.1516)
(-9.29078e-15 -6.65789 11.1865)
(-4.15269e-15 -7.59372 12.6515)
(-7.25629e-15 -8.14186 13.2505)
(-1.23606e-14 -6.07342 10.6335)
(1.03102e-14 -10.314 17.5171)
(1.41008e-14 -16.2712 26.1732)
(-2.40972e-15 -13.9167 24.0184)
(-2.39489e-15 -12.2259 20.468)
(-8.39803e-16 -10.3125 18.9676)
(-4.3038e-15 -9.29086 16.8818)
(7.45188e-17 -7.33864 14.547)
(-1.00408e-15 -5.84146 12.0983)
(-3.85824e-15 -4.5526 10.4156)
(-2.77409e-15 -3.71887 9.17189)
(-4.90928e-15 -3.33093 8.61633)
(-5.03873e-15 -3.74542 9.04758)
(-5.17107e-15 -4.98951 10.5079)
(-8.26498e-15 -6.24593 11.8509)
(-8.13006e-15 -4.77093 9.28125)
(4.85089e-15 -7.21905 12.8696)
(1.38888e-14 -16.3925 25.323)
(9.9861e-15 -19.1071 28.2677)
(5.21306e-15 -19.1445 26.9041)
(2.35776e-15 -17.8058 24.5279)
(7.05322e-17 -16.4175 21.8587)
(-3.48909e-16 -14.6481 19.1437)
(-9.92195e-16 -12.7578 16.5468)
(-1.60861e-15 -10.6181 13.9913)
(-1.68891e-15 -8.65769 11.67)
(-2.83006e-15 -6.74939 9.55122)
(-2.34397e-15 -4.99941 7.58262)
(-2.87957e-15 -3.70994 6.05843)
(-5.77237e-15 -3.06288 5.05513)
(-1.95814e-15 -1.1888 2.65916)
(-5.84997e-16 -0.010364 -0.0269865)
(-4.80616e-15 0.0810758 -0.578253)
(-3.49261e-15 0.111311 -0.561326)
(-2.2325e-15 0.166598 -0.447765)
(-1.3522e-15 0.161726 -0.254548)
(-3.41156e-15 0.249871 -0.353191)
(-2.47276e-15 0.248321 -0.226759)
(-1.91284e-15 0.280003 -0.242113)
(-1.53838e-15 0.275768 -0.200464)
(8.42832e-16 0.350283 -0.314939)
(1.03074e-15 0.352689 -0.234173)
(1.10527e-15 0.369785 -0.189068)
(-3.33742e-16 0.44845 -0.268965)
(-2.91934e-16 0.415195 -0.18477)
(-3.88246e-16 0.461673 -0.189687)
(-2.00319e-16 0.44001 -0.165121)
(-1.82634e-15 0.540301 -0.236793)
(-7.42663e-16 0.498472 -0.174477)
(-2.93377e-16 0.518753 -0.148774)
(-1.20109e-15 0.613663 -0.199598)
(-4.032e-16 0.535119 -0.142394)
(-1.13473e-16 0.598048 -0.133333)
(6.60971e-16 0.555163 -0.10565)
(1.90689e-16 0.702155 -0.128588)
(4.29405e-16 0.581538 -0.0728993)
(6.31511e-16 0.638521 -0.0529385)
(1.99676e-17 0.596302 -0.0300343)
(-3.8634e-16 0.709001 -0.0229743)
(-1.13554e-16 0.619308 0.00605545)
(2.07594e-17 0.632247 0.0246851)
(-3.30561e-16 0.723958 0.0671442)
(-9.88733e-16 0.606783 0.0664775)
(-1.18156e-15 0.659797 0.0823671)
(-1.58819e-15 0.606876 0.0906406)
(-2.68351e-15 0.709967 0.148841)
(-1.92592e-15 0.603298 0.125104)
(-1.6168e-15 0.608405 0.127984)
(-2.30447e-15 0.686162 0.205892)
(-1.28129e-15 0.560171 0.152737)
(-1.16452e-15 0.604398 0.157063)
(-4.80109e-16 0.549171 0.149927)
(-7.20731e-16 0.658145 0.214078)
(-4.33008e-16 0.518111 0.154839)
(-4.65624e-16 0.556304 0.157351)
(-4.65368e-16 0.50917 0.142942)
(-5.56543e-16 0.581748 0.187596)
(-1.20025e-15 0.500743 0.136331)
(-1.15847e-15 0.491641 0.117095)
(-2.08275e-15 0.59986 0.0771556)
(-6.03728e-16 0.513297 0.0785858)
(-1.24655e-16 0.558388 0.0847268)
(2.98916e-17 0.504278 0.0829148)
(1.72716e-16 0.651997 -0.233585)
(5.87918e-16 0.586458 -0.148947)
(3.82539e-16 0.638539 -0.0754309)
(9.61616e-16 0.600005 -0.012666)
(1.17851e-15 0.646168 -0.26321)
(2.25455e-15 0.511493 -0.410368)
(9.34582e-16 0.575174 -0.256604)
(2.57699e-15 0.425661 -1.08443)
(3.92273e-15 0.238807 -1.20862)
(3.68433e-15 0.356861 -0.96407)
(3.81321e-15 0.37634 -0.87162)
(4.701e-15 0.597446 -2.23119)
(-8.71525e-15 -0.197376 -0.0891768)
(-8.58035e-15 0.090288 -0.310243)
(-1.56942e-14 -0.367901 0.382366)
(-1.56385e-14 -0.915904 1.98639)
(-1.52463e-14 -1.00236 1.8158)
(-1.49373e-14 -0.962257 1.88914)
(-1.96927e-14 -1.90627 4.13638)
(-1.48165e-14 -2.47046 4.38976)
(-1.42857e-14 -2.77051 4.51222)
(-1.32291e-14 -2.75796 4.7852)
(-1.58412e-14 -4.65843 8.10558)
(-1.01862e-14 -4.86717 6.98791)
(-9.48742e-15 -4.93056 7.46509)
(-1.00108e-14 -7.46865 11.4262)
(-6.0391e-15 -7.26739 9.03521)
(-5.30978e-15 -7.69036 9.55555)
(-5.22709e-15 -8.29431 10.9621)
(-4.08142e-15 -8.25199 10.9132)
(-3.58835e-15 -8.36657 11.2466)
(-2.25589e-15 -10.3462 14.4516)
(-1.91469e-15 -9.32408 12.5801)
(-1.76672e-15 -9.61571 13.1471)
(-1.52225e-15 -9.59314 13.1906)
(-1.19988e-15 -9.6985 13.2795)
(-9.74546e-16 -9.78502 13.391)
(-7.76719e-16 -9.88972 13.5413)
(-5.57757e-16 -9.9891 13.8161)
(-3.09473e-16 -10.0483 14.1462)
(6.56083e-16 -11.1699 16.3358)
(2.63829e-16 -10.7656 14.8813)
(3.88587e-16 -10.9495 15.0948)
(4.30852e-16 -10.9235 15.2027)
(5.00035e-16 -11.1244 15.6032)
(5.69107e-16 -11.1046 15.5988)
(6.47594e-16 -11.2326 15.7382)
(7.34308e-16 -11.2983 15.8521)
(8.42458e-16 -11.3552 16.0195)
(1.98392e-15 -12.1644 17.9912)
(1.7208e-15 -11.7763 16.8592)
(1.92334e-15 -11.9057 17.1049)
(2.04434e-15 -11.9515 17.2096)
(2.15628e-15 -12.0215 17.3816)
(2.27095e-15 -12.0766 17.6512)
(2.39781e-15 -12.1982 17.9658)
(2.45286e-15 -12.2069 18.0602)
(2.49403e-15 -12.292 18.2166)
(2.53017e-15 -12.3731 18.3443)
(3.4091e-15 -12.3983 19.2893)
(2.60702e-15 -12.3251 18.6254)
(2.67383e-15 -12.3914 18.7849)
(2.67807e-15 -12.4236 18.8403)
(2.72836e-15 -12.4942 18.9393)
(2.7908e-15 -12.5035 19.0639)
(2.91521e-15 -12.5832 19.3994)
(3.05773e-15 -12.5931 19.5317)
(3.20432e-15 -12.7104 19.5589)
(4.28613e-15 -11.7856 18.9877)
(3.6352e-15 -12.0506 18.9195)
(3.94519e-15 -12.0323 19.177)
(4.1364e-15 -12.0787 19.4283)
(4.27869e-15 -12.0351 19.432)
(4.4115e-15 -12.0673 19.5137)
(4.52322e-15 -12.0509 19.5781)
(4.63807e-15 -12.0137 19.6779)
(4.81337e-15 -12.2183 19.9899)
(5.5641e-15 -9.94155 17.3885)
(5.17363e-15 -10.8841 18.4638)
(5.25555e-15 -10.7525 18.2808)
(5.34574e-15 -10.7341 18.221)
(5.68572e-15 -10.7135 18.3214)
(5.82078e-15 -10.6418 18.1243)
(5.96039e-15 -10.5301 17.8517)
(6.17893e-15 -10.4815 17.5924)
(6.42162e-15 -10.5012 17.2479)
(7.15906e-15 -7.54498 13.4929)
(7.43576e-15 -8.7815 16.023)
(7.60942e-15 -8.44657 15.5273)
(7.77479e-15 -8.44881 15.3726)
(7.91759e-15 -8.28965 15.0424)
(8.12972e-15 -8.2147 14.6967)
(8.81089e-15 -8.04993 14.3746)
(8.24189e-15 -7.88409 13.722)
(7.98609e-15 -7.72192 12.998)
(7.46968e-15 -7.54011 12.0318)
(5.2757e-15 -3.91357 5.67729)
(6.71602e-15 -5.76299 9.31954)
(6.07896e-15 -5.18928 7.71912)
(5.55341e-15 -5.29054 6.99618)
(4.88651e-15 -4.92682 5.82727)
(4.10576e-15 -4.85299 4.58334)
(2.84451e-15 -4.64022 2.69446)
(1.75718e-15 -4.21337 1.14454)
(1.93554e-15 -4.19954 1.36701)
(1.0454e-15 -3.20289 -1.4813)
(1.75474e-15 -3.54346 0.728528)
(1.4925e-15 -3.37676 0.120676)
(4.06589e-16 -2.18543 -2.10286)
(1.33998e-15 -3.90188 -1.48333)
(8.06874e-16 -2.8303 -1.33484)
(7.12475e-16 -2.56556 -0.899141)
(8.85401e-16 -3.20869 -1.2564)
(6.04216e-16 -2.13266 -0.764143)
(1.08414e-15 -2.82321 -1.14199)
(9.72847e-16 -2.48037 -0.827316)
(8.08097e-16 -1.97746 -0.604041)
(1.15064e-15 -2.46096 -0.87699)
(9.03318e-16 -2.19974 -0.647273)
(7.01429e-16 -1.87531 -0.464923)
(9.79148e-16 -2.50072 -0.637899)
(6.65604e-16 -1.64645 -0.393816)
(9.47988e-16 -2.23268 -0.585287)
(9.37647e-16 -1.95214 -0.437142)
(7.32573e-16 -1.69847 -0.314526)
(1.09803e-15 -2.29294 -0.432162)
(8.68559e-16 -1.502 -0.26672)
(1.33131e-15 -2.10395 -0.394475)
(1.11257e-15 -1.93534 -0.308476)
(8.88536e-16 -1.53455 -0.22236)
(1.3724e-15 -1.98479 -0.327097)
(1.18417e-15 -1.84049 -0.26005)
(1.0643e-15 -1.58026 -0.183918)
(1.50238e-15 -2.18352 -0.25461)
(1.1054e-15 -1.44191 -0.160381)
(1.86011e-15 -2.00144 -0.234846)
(1.60579e-15 -1.80663 -0.197927)
(1.27665e-15 -1.57781 -0.141132)
(1.85546e-15 -2.18377 -0.19652)
(1.33351e-15 -1.43341 -0.124934)
(2.1525e-15 -2.04194 -0.1811)
(1.81052e-15 -1.93143 -0.165726)
(1.55491e-15 -1.52586 -0.117855)
(2.40464e-15 -2.00026 -0.175627)
(2.04987e-15 -1.89512 -0.155909)
(1.73976e-15 -1.63347 -0.106775)
(2.48641e-15 -2.29122 -0.1468)
(1.78057e-15 -1.52137 -0.0926803)
(2.81581e-15 -2.12983 -0.127274)
(2.44017e-15 -1.96956 -0.117237)
(1.86188e-15 -1.72927 -0.0757942)
(2.68651e-15 -2.42549 -0.101261)
(2.01539e-15 -1.60764 -0.0566755)
(3.15896e-15 -2.31308 -0.0676288)
(2.72637e-15 -2.25679 -0.0645989)
(2.33092e-15 -1.79212 -0.0284798)
(3.56598e-15 -2.37878 -0.0293581)
(3.11809e-15 -2.3271 -0.01156)
(2.54084e-15 -2.03616 0.0241406)
(3.61617e-15 -2.89215 0.0511406)
(2.61927e-15 -1.97243 0.0699879)
(4.2527e-15 -2.7816 0.145525)
(3.78417e-15 -2.68937 0.156085)
(3.12972e-15 -2.40614 0.172225)
(4.51701e-15 -3.41626 0.269816)
(3.38903e-15 -2.35444 0.251152)
(5.36177e-15 -3.41708 0.438649)
(4.80963e-15 -3.48766 0.438316)
(4.0048e-15 -2.83447 0.424523)
(6.20017e-15 -3.82282 0.692521)
(5.69802e-15 -3.88616 0.707758)
(4.68894e-15 -3.49904 0.668436)
(6.76735e-15 -5.008 0.99773)
(5.11256e-15 -3.58153 0.844809)
(8.05565e-15 -5.07295 1.38856)
(7.33043e-15 -5.08027 1.35789)
(6.1117e-15 -4.65439 1.23143)
(8.78476e-15 -6.63222 1.80744)
(6.69415e-15 -4.78676 1.49057)
(1.05129e-14 -6.95633 2.39743)
(9.7109e-15 -7.18317 2.27898)
(8.24586e-15 -5.99732 2.02469)
(1.25689e-14 -8.14442 3.14284)
(1.14268e-14 -8.28663 2.98391)
(9.57419e-15 -7.55496 2.62393)
(1.36905e-14 -10.8008 3.78932)
(1.0488e-14 -8.09409 3.03959)
(1.66763e-14 -10.9867 4.95669)
(-2.48432e-39 0.697816 0.537192)
(-7.64646e-39 0.768784 0.435815)
(-1.70176e-38 0.821403 0.415881)
(-3.3954e-38 0.927349 0.40131)
(-5.40248e-38 1.06046 0.409105)
(-6.71799e-38 1.18786 0.381183)
(-6.66976e-38 1.33012 0.323008)
(-5.88422e-38 1.47053 0.250038)
(-4.60213e-38 1.59222 0.188309)
(-3.05438e-38 1.65967 0.122136)
(-1.41372e-38 1.68537 0.0201308)
(-4.47553e-39 1.70368 -0.069664)
(-1.03846e-39 1.70836 -0.155345)
(-1.58934e-40 1.7116 -0.244255)
(-6.83247e-41 1.70969 -0.309123)
(5.48945e-40 1.68224 -0.349277)
(-4.99186e-39 1.68082 -0.404056)
(3.26936e-38 1.73613 -0.470045)
(-1.42659e-37 1.74882 -0.479017)
(1.10615e-36 1.69473 -0.428911)
(-1.85972e-35 1.64157 -0.335947)
(3.97951e-34 1.59119 -0.14015)
(1.22229e-32 1.49899 0.143241)
(3.87347e-32 1.26267 0.618726)
(-3.72827e-32 1.1774 1.10431)
(-1.42796e-30 1.52508 1.21086)
(-9.70976e-30 2.03202 0.996531)
(-3.81702e-29 2.47302 0.593643)
(-8.50892e-29 2.56186 0.131545)
(-2.38485e-29 2.25388 -0.277006)
(-1.43034e-28 1.92704 -0.413168)
(5.42177e-27 1.68682 -0.414452)
(-2.16249e-25 1.51558 -0.360609)
(6.04661e-24 1.37947 -0.291678)
(-1.12906e-22 1.27953 -0.205867)
(1.80549e-21 1.19572 -0.102498)
(-7.72591e-20 1.13653 0.0177741)
(-1.03411e-18 0.913133 0.0954212)
(-1.8756e-18 0.590928 0.140191)
(-2.10246e-18 0.436859 0.284194)
(-2.14757e-18 0.182114 0.458611)
(-1.96002e-18 -0.0874817 0.554004)
(-1.29963e-18 -0.217349 0.637988)
(-5.52638e-19 -0.356429 0.721455)
(-4.30354e-19 -0.444497 0.800102)
(-3.69274e-19 -0.389348 0.894205)
(-3.59051e-19 -0.212764 1.0144)
(-5.93317e-18 0.00492117 1.14723)
(-2.10804e-17 0.187096 1.23488)
(-4.23894e-17 0.33828 1.3028)
(-6.25438e-17 0.488527 1.38947)
(-7.85849e-17 0.649072 1.47943)
(-1.12261e-16 0.825747 1.56014)
(-1.9933e-16 1.02645 1.62536)
(-2.96645e-16 1.25425 1.66909)
(-4.03061e-16 1.50943 1.68645)
(-5.66805e-16 1.788 1.6728)
(-6.76576e-16 2.08356 1.62322)
(-7.49563e-16 2.38529 1.53199)
(-7.8231e-16 2.68 1.39243)
(-7.51304e-16 2.9495 1.19705)
(-6.2521e-16 3.16907 0.94174)
(-4.04265e-16 3.30491 0.625884)
(-3.45169e-17 3.32918 0.248663)
(2.67372e-16 3.19388 -0.172521)
(4.05938e-16 2.89316 -0.617206)
(2.23396e-16 2.39615 -1.04203)
(-1.28402e-17 1.73512 -1.40702)
(-1.29709e-16 0.882512 -1.63572)
(-1.76645e-16 0.0123033 -1.68384)
(-1.41394e-16 -0.662641 -1.62958)
(-1.76187e-16 -1.06589 -1.48353)
(-5.79025e-17 -1.19979 -1.20695)
(1.60246e-16 -1.05231 -0.862965)
(1.46144e-16 -1.2687 -0.450372)
(1.61081e-16 0.664959 -0.101765)
(1.768e-15 0.483086 1.76627)
(4.31533e-15 -3.60793 3.01837)
(1.0736e-14 -8.44555 5.1795)
(-4.49333e-39 0.713876 0.544436)
(-1.46018e-38 0.788419 0.430002)
(-3.3511e-38 0.827813 0.397777)
(-6.92057e-38 0.92886 0.368454)
(-1.1308e-37 1.0632 0.379299)
(-1.42459e-37 1.20036 0.368909)
(-1.40394e-37 1.34964 0.327511)
(-1.22472e-37 1.49059 0.261879)
(-9.52514e-38 1.61119 0.20768)
(-6.32684e-38 1.68478 0.140403)
(-2.96393e-38 1.7137 0.0332225)
(-9.43728e-39 1.72889 -0.0588257)
(-2.17881e-39 1.73273 -0.147465)
(-3.36873e-40 1.73221 -0.238495)
(-6.4166e-41 1.72256 -0.307399)
(5.14482e-40 1.6934 -0.351234)
(-6.52124e-39 1.69604 -0.408085)
(5.3687e-38 1.74471 -0.477064)
(-2.68194e-37 1.73989 -0.492073)
(1.934e-36 1.67011 -0.454138)
(-3.00178e-35 1.59425 -0.362151)
(5.15766e-34 1.51456 -0.152693)
(1.27119e-32 1.38076 0.153326)
(6.08312e-32 1.11517 0.677325)
(1.82301e-31 1.08764 1.1785)
(-9.12634e-31 1.54311 1.25558)
(-1.21354e-29 2.12779 0.981671)
(-6.10073e-29 2.60572 0.525474)
(-1.61314e-28 2.69371 0.0484621)
(-4.7951e-29 2.33538 -0.354232)
(-2.46745e-28 1.94566 -0.511707)
(5.17545e-27 1.67589 -0.476077)
(-1.5764e-25 1.49444 -0.390536)
(3.57532e-24 1.35389 -0.307849)
(-5.84055e-23 1.24878 -0.21815)
(1.19658e-21 1.15921 -0.116463)
(-6.62234e-20 1.10339 0.0182266)
(-1.02092e-18 0.891468 0.103499)
(-2.11624e-18 0.557056 0.138498)
(-2.13232e-18 0.379991 0.257588)
(-2.12982e-18 0.130301 0.429805)
(-2e-18 -0.121253 0.540087)
(-1.35948e-18 -0.246596 0.624512)
(-5.69618e-19 -0.382975 0.709815)
(-4.37636e-19 -0.471731 0.787252)
(-5.01858e-19 -0.423216 0.872226)
(-2.51773e-19 -0.254972 0.968631)
(-3.19421e-18 -0.0378328 1.06614)
(-1.44364e-17 0.152778 1.15406)
(-3.70811e-17 0.306765 1.2586)
(-6.14123e-17 0.455944 1.37302)
(-7.91099e-17 0.619324 1.48524)
(-1.09453e-16 0.801438 1.58523)
(-1.71007e-16 1.00908 1.66794)
(-2.59724e-16 1.24516 1.72781)
(-3.74875e-16 1.50978 1.75998)
(-5.27162e-16 1.799 1.75953)
(-6.47372e-16 2.10661 1.72102)
(-7.39426e-16 2.42216 1.63795)
(-7.44297e-16 2.73283 1.5028)
(-6.46314e-16 3.02013 1.3071)
(-4.44594e-16 3.2584 1.04613)
(-1.0791e-16 3.41342 0.719676)
(3.05956e-16 3.4547 0.325636)
(5.82046e-16 3.33135 -0.119243)
(4.52324e-16 3.03338 -0.600957)
(-8.66077e-17 2.52685 -1.07454)
(-5.19617e-16 1.83813 -1.49791)
(-6.02452e-16 0.939027 -1.76939)
(-5.99354e-16 0.0254877 -1.80778)
(-4.01145e-16 -0.689832 -1.67179)
(-2.60198e-16 -1.12585 -1.47794)
(-9.81912e-17 -1.28511 -1.18838)
(1.3634e-16 -1.15632 -0.837271)
(1.29605e-16 -1.35294 -0.421435)
(1.54571e-16 0.279093 -0.100275)
(2.08131e-15 0.00939449 1.71052)
(4.89302e-15 -4.08214 3.19665)
(1.11194e-14 -8.77147 4.92605)
(-7.81303e-39 0.72327 0.544578)
(-2.66791e-38 0.801309 0.4302)
(-6.297e-38 0.834384 0.389453)
(-1.3295e-37 0.93129 0.344418)
(-2.21451e-37 1.06145 0.345838)
(-2.81643e-37 1.20135 0.341794)
(-2.74426e-37 1.35574 0.316335)
(-2.35059e-37 1.49871 0.260733)
(-1.8071e-37 1.62038 0.214208)
(-1.20237e-37 1.69936 0.147827)
(-5.75042e-38 1.73064 0.0398865)
(-1.8737e-38 1.74452 -0.0525243)
(-4.40068e-39 1.74873 -0.140101)
(-6.93712e-40 1.74721 -0.230802)
(-6.64872e-41 1.73445 -0.301176)
(2.94899e-40 1.7044 -0.347058)
(-7.00299e-39 1.70882 -0.405551)
(7.76237e-38 1.75445 -0.477321)
(-4.62509e-37 1.74223 -0.497657)
(3.19757e-36 1.66393 -0.469905)
(-4.55613e-35 1.5729 -0.37781)
(6.00224e-34 1.47487 -0.156916)
(1.07304e-32 1.31315 0.170073)
(1.11091e-31 1.0338 0.726245)
(6.40286e-31 1.04626 1.2039)
(4.06887e-31 1.56632 1.22293)
(-1.35099e-29 2.19311 0.892172)
(-9.08218e-29 2.68287 0.410975)
(-2.90867e-28 2.76207 -0.0582194)
(-1.0363e-28 2.38079 -0.412053)
(-3.50711e-28 1.95547 -0.584072)
(4.39e-27 1.66214 -0.529408)
(-1.0615e-25 1.47907 -0.416103)
(2.18924e-24 1.34072 -0.322288)
(-4.16635e-23 1.23584 -0.229579)
(1.17336e-21 1.14222 -0.129421)
(-5.89719e-20 1.08715 0.0165051)
(-1.0208e-18 0.885211 0.111026)
(-2.20196e-18 0.554684 0.151248)
(-2.22974e-18 0.371452 0.264866)
(-2.11863e-18 0.120556 0.423144)
(-2.01586e-18 -0.131702 0.53412)
(-1.38156e-18 -0.256714 0.617253)
(-5.75398e-19 -0.394375 0.702251)
(-4.50215e-19 -0.483043 0.778923)
(-5.75932e-19 -0.433447 0.858066)
(-9.99077e-20 -0.26074 0.941999)
(-2.51428e-18 -0.0386657 1.03716)
(-1.58584e-17 0.146579 1.15377)
(-4.19917e-17 0.292389 1.27986)
(-6.54801e-17 0.439993 1.40359)
(-8.35437e-17 0.603231 1.52241)
(-1.17432e-16 0.786194 1.62917)
(-1.72699e-16 0.995749 1.71892)
(-2.5526e-16 1.23486 1.78598)
(-3.73813e-16 1.50363 1.82518)
(-5.26213e-16 1.79815 1.83122)
(-6.6131e-16 2.11235 1.79814)
(-7.47168e-16 2.43585 1.71896)
(-6.99258e-16 2.7559 1.58594)
(-5.18743e-16 3.05366 1.39082)
(-2.19212e-16 3.30264 1.12926)
(2.74732e-16 3.46836 0.801403)
(7.37149e-16 3.51908 0.403408)
(8.4658e-16 3.40286 -0.050393)
(3.45899e-16 3.10755 -0.552247)
(-7.24299e-16 2.59614 -1.05771)
(-1.35459e-15 1.8895 -1.52664)
(-1.23995e-15 0.951359 -1.84005)
(-9.97006e-16 -0.00697515 -1.88228)
(-7.5777e-16 -0.732635 -1.71934)
(-4.37892e-16 -1.17506 -1.4715)
(-1.52011e-16 -1.34666 -1.15513)
(1.09309e-16 -1.23329 -0.800585)
(1.11003e-16 -1.43147 -0.357837)
(1.87019e-16 0.119217 -0.0119974)
(2.55131e-15 -0.248156 1.91506)
(5.54761e-15 -4.42893 3.35524)
(1.11545e-14 -8.6483 4.53849)
(-1.31756e-38 0.735332 0.54735)
(-4.74964e-38 0.818204 0.435464)
(-1.15615e-37 0.844401 0.387532)
(-2.49942e-37 0.937368 0.326721)
(-4.26241e-37 1.0628 0.312906)
(-5.51109e-37 1.20453 0.30737)
(-5.34069e-37 1.36379 0.297168)
(-4.50318e-37 1.50914 0.253732)
(-3.42105e-37 1.63217 0.216481)
(-2.27724e-37 1.7178 0.152295)
(-1.10892e-37 1.75188 0.046679)
(-3.69844e-38 1.76344 -0.0460935)
(-8.84042e-39 1.7673 -0.132537)
(-1.41136e-39 1.76384 -0.222791)
(-1.15069e-40 1.74611 -0.293979)
(-4.64997e-41 1.71477 -0.342038)
(-6.19376e-39 1.72217 -0.40212)
(1.04918e-37 1.76373 -0.477344)
(-7.61448e-37 1.74056 -0.505661)
(5.08898e-36 1.64961 -0.489928)
(-6.516e-35 1.53684 -0.397087)
(5.99956e-34 1.41199 -0.164491)
(3.07338e-33 1.21351 0.186578)
(1.74315e-31 0.919457 0.767581)
(1.36276e-30 0.993591 1.21241)
(2.9835e-30 1.60413 1.16252)
(-1.23233e-29 2.28339 0.775285)
(-1.3012e-28 2.78616 0.277508)
(-5.08879e-28 2.84898 -0.189752)
(-2.17839e-28 2.43527 -0.491707)
(-5.29124e-28 1.96779 -0.659783)
(4.02511e-27 1.64287 -0.587202)
(-6.77335e-26 1.45493 -0.443939)
(1.23467e-24 1.31911 -0.336919)
(-2.9267e-23 1.21349 -0.240819)
(1.02456e-21 1.11368 -0.141374)
(-4.87927e-20 1.05881 0.0128146)
(-9.97025e-19 0.867675 0.118195)
(-2.18311e-18 0.531008 0.158611)
(-2.33537e-18 0.331591 0.273122)
(-2.11496e-18 0.0823833 0.426642)
(-2.0201e-18 -0.155198 0.534597)
(-1.37933e-18 -0.276004 0.614639)
(-5.73069e-19 -0.41199 0.697779)
(-4.62283e-19 -0.499547 0.77292)
(-5.77181e-19 -0.451277 0.847104)
(2.95612e-20 -0.284088 0.925363)
(-2.91656e-18 -0.0728473 1.03012)
(-1.87077e-17 0.108617 1.16908)
(-4.56434e-17 0.259821 1.30417)
(-6.75316e-17 0.410324 1.43286)
(-8.81588e-17 0.576613 1.55858)
(-1.25375e-16 0.763866 1.67305)
(-1.77677e-16 0.978675 1.77086)
(-2.52161e-16 1.22402 1.84615)
(-3.67565e-16 1.49997 1.89345)
(-5.26688e-16 1.80272 1.90712)
(-6.66318e-16 2.12643 1.88077)
(-7.26098e-16 2.46094 1.80713)
(-6.06229e-16 2.79365 1.67855)
(-3.34105e-16 3.10538 1.48734)
(1.48244e-16 3.36883 1.22986)
(8.28075e-16 3.54962 0.905722)
(1.24115e-15 3.61469 0.50773)
(9.85215e-16 3.511 0.0457195)
(-9.69564e-17 3.22305 -0.478498)
(-1.86504e-15 2.71015 -1.02112)
(-2.77935e-15 1.98489 -1.54203)
(-2.26722e-15 1.0016 -1.90471)
(-1.55489e-15 -0.00436464 -1.96312)
(-1.12223e-15 -0.773575 -1.77237)
(-6.6654e-16 -1.23567 -1.46996)
(-2.40119e-16 -1.41415 -1.11317)
(7.93119e-17 -1.31383 -0.753558)
(9.5062e-17 -1.5051 -0.277694)
(2.21029e-16 -0.116563 0.0897864)
(2.84403e-15 -0.58612 2.07918)
(6.07238e-15 -4.65686 3.48591)
(1.13416e-14 -8.58644 4.45273)
(-2.15691e-38 0.745673 0.548457)
(-8.2472e-38 0.83401 0.444495)
(-2.0747e-37 0.856159 0.392192)
(-4.59257e-37 0.946503 0.318273)
(-8.03381e-37 1.06564 0.284801)
(-1.0626e-36 1.20516 0.266893)
(-1.03112e-36 1.36718 0.267344)
(-8.58714e-37 1.51554 0.237442)
(-6.44644e-37 1.64126 0.210773)
(-4.28824e-37 1.73398 0.151049)
(-2.12227e-37 1.77108 0.0519983)
(-7.25116e-38 1.78092 -0.0406641)
(-1.7659e-38 1.78454 -0.125141)
(-2.8542e-39 1.77972 -0.214026)
(-2.79627e-40 1.75821 -0.284514)
(-4.04184e-40 1.72587 -0.334755)
(-3.34946e-39 1.73588 -0.396419)
(1.29844e-37 1.77489 -0.474676)
(-1.18808e-36 1.7437 -0.512264)
(7.76653e-36 1.64057 -0.510269)
(-8.67225e-35 1.5056 -0.416169)
(4.6176e-34 1.35476 -0.172132)
(-1.20371e-32 1.12252 0.201742)
(2.31938e-31 0.824206 0.791681)
(2.28023e-30 0.962932 1.18457)
(6.93313e-30 1.6538 1.05698)
(-7.05508e-30 2.37251 0.625957)
(-1.83692e-28 2.87991 0.130164)
(-8.66738e-28 2.92032 -0.333475)
(-4.34585e-28 2.47725 -0.589318)
(-7.94965e-28 1.97512 -0.734113)
(3.40622e-27 1.6189 -0.644017)
(-3.18163e-26 1.42837 -0.471598)
(5.61179e-25 1.29889 -0.349878)
(-2.3083e-23 1.19523 -0.250661)
(9.29806e-22 1.0897 -0.151858)
(-3.80582e-20 1.03357 0.00607407)
(-9.66293e-19 0.854322 0.124882)
(-2.13752e-18 0.52075 0.166742)
(-2.44877e-18 0.313774 0.281055)
(-2.11908e-18 0.0638929 0.428178)
(-2.01794e-18 -0.172107 0.534594)
(-1.36926e-18 -0.291244 0.612768)
(-5.70162e-19 -0.427326 0.69385)
(-4.7119e-19 -0.514032 0.7675)
(-5.30703e-19 -0.465725 0.838464)
(1.12522e-19 -0.300716 0.917209)
(-3.6509e-18 -0.0924227 1.03401)
(-2.10697e-17 0.0881853 1.18309)
(-4.7618e-17 0.237405 1.32273)
(-6.92084e-17 0.387198 1.45859)
(-9.341e-17 0.553716 1.59196)
(-1.32941e-16 0.74277 1.71429)
(-1.84005e-16 0.960685 1.82035)
(-2.57223e-16 1.21042 1.9041)
(-3.68827e-16 1.49201 1.95976)
(-5.30235e-16 1.80173 1.98146)
(-6.64651e-16 2.13387 1.96252)
(-6.75347e-16 2.47831 1.89566)
(-4.59127e-16 2.8224 1.77397)
(-4.52414e-17 3.14651 1.59098)
(6.90538e-16 3.42273 1.34404)
(1.48004e-15 3.61721 1.0307)
(1.6969e-15 3.69617 0.637989)
(9.15986e-16 3.60573 0.169299)
(-9.99466e-16 3.32697 -0.378491)
(-3.64228e-15 2.81471 -0.960623)
(-4.94334e-15 2.07227 -1.53322)
(-3.9299e-15 1.03976 -1.94624)
(-2.39696e-15 -0.0280092 -2.02585)
(-1.511e-15 -0.829815 -1.81972)
(-9.21007e-16 -1.30699 -1.47173)
(-3.63561e-16 -1.48872 -1.06826)
(3.28957e-17 -1.40223 -0.699216)
(8.09811e-17 -1.58858 -0.192423)
(2.51182e-16 -0.368928 0.20158)
(3.10686e-15 -0.909413 2.21168)
(6.54686e-15 -4.8793 3.53845)
(1.11636e-14 -8.48453 4.06662)
(-3.42492e-38 0.755322 0.548051)
(-1.39709e-37 0.849586 0.456203)
(-3.63952e-37 0.869404 0.402443)
(-8.24695e-37 0.959004 0.320275)
(-1.47997e-36 1.07286 0.267439)
(-2.01155e-36 1.20768 0.227553)
(-1.96981e-36 1.36926 0.229354)
(-1.62741e-36 1.52012 0.211604)
(-1.20817e-36 1.64918 0.196016)
(-8.02512e-37 1.74926 0.143362)
(-4.03109e-37 1.78999 0.0555412)
(-1.4124e-37 1.79863 -0.036415)
(-3.50982e-38 1.80181 -0.11856)
(-5.75826e-39 1.79555 -0.205237)
(-6.83838e-40 1.77029 -0.273578)
(-5.1449e-40 1.73723 -0.32608)
(1.83182e-39 1.75014 -0.38931)
(1.43013e-37 1.78702 -0.470655)
(-1.74499e-36 1.74807 -0.518761)
(1.13599e-35 1.63099 -0.531753)
(-1.07129e-34 1.47034 -0.436343)
(2.14339e-34 1.28981 -0.181893)
(-3.44812e-32 1.02315 0.211709)
(2.53526e-31 0.7266 0.794743)
(3.18232e-30 0.940744 1.12175)
(1.19714e-29 1.71539 0.913358)
(4.5141e-30 2.46727 0.458001)
(-2.61565e-28 2.97631 -0.0197409)
(-1.44952e-27 2.99156 -0.477208)
(-8.3072e-28 2.51445 -0.705796)
(-1.17557e-27 1.97827 -0.810786)
(3.32521e-27 1.59037 -0.699581)
(-1.79105e-26 1.39658 -0.499605)
(3.97991e-25 1.27537 -0.361343)
(-2.05488e-23 1.17467 -0.259242)
(7.35623e-22 1.06316 -0.161362)
(-2.59827e-20 1.00436 -0.00403639)
(-9.4126e-19 0.836452 0.129585)
(-2.1352e-18 0.501623 0.171942)
(-2.56493e-18 0.282133 0.288557)
(-2.12619e-18 0.0349406 0.431713)
(-2.00501e-18 -0.190958 0.535029)
(-1.35552e-18 -0.307061 0.610801)
(-5.70115e-19 -0.44259 0.689434)
(-4.77204e-19 -0.528185 0.761239)
(-4.64376e-19 -0.480687 0.829863)
(1.56715e-19 -0.321673 0.912031)
(-4.29287e-18 -0.123021 1.03937)
(-2.24267e-17 0.0537187 1.19511)
(-4.85149e-17 0.206331 1.34207)
(-7.1249e-17 0.357724 1.48503)
(-9.90719e-17 0.526361 1.62543)
(-1.39597e-16 0.718704 1.75568)
(-1.89049e-16 0.9409 1.87012)
(-2.62357e-16 1.19601 1.96255)