/*--------------------------------*- C++ -*----------------------------------*\
| =========                 |                                                 |
| \\      /  F ield         | OpenFOAM: The Open Source CFD Toolbox           |
|  \\    /   O peration     | Version:  4.1                                   |
|   \\  /    A nd           | Web:      www.OpenFOAM.org                      |
|    \\/     M anipulation  |                                                 |
\*---------------------------------------------------------------------------*/
FoamFile
{
    version     2.0;
    format      ascii;
    class       surfaceScalarField;
    location    "29";
    object      phi;
}
// * * * * * * * * * * * * * * * * * * * * * * * * * * * * * * * * * * * * * //

dimensions      [0 3 -1 0 0 0 0];

internalField   nonuniform List<scalar> 
13220
(
-949.878
2249.78
-1573.95
1924.28
-2054
1779.95
-2424.23
1670.13
-2699.86
1575.82
-2888.37
1488.42
-2993.05
1404.58
-3013.85
1321
-2949.61
1235.66
-2797.23
1147.52
-2551.16
1054.13
-2192.99
941.735
-1687.16
794.065
-1012.66
625.706
287.235
373.342
1876.44
442.755
1854.87
437.304
1785.39
406.703
1700.74
380.581
1601.94
359.905
1509.1
345.293
1419.19
337.538
1328.76
333.484
1239.71
326.956
1154.05
309.611
1071.48
267.471
983.881
191.432
870.109
111.451
705.693
398.686
33.5979
1842.84
-97.3739
1985.84
-253.595
1941.61
-371.093
1818.24
-473.152
1704
-567.493
1603.45
-651.705
1503.4
-725.745
1402.81
-788.019
1301.99
-837.245
1203.29
-868.166
1102.4
-856.034
971.762
-740.302
754.394
-434.275
399.685
-35.5888
28.8496
1813.99
-100.576
2115.28
-225.481
2066.52
-304.404
1897.17
-368.063
1767.66
-416.846
1652.24
-446.123
1532.68
-456.899
1413.59
-451.737
1296.83
-430.033
1181.59
-387.113
1059.49
-311.775
896.434
-192.805
635.436
-48.3902
255.281
-83.9789
169.833
1644.15
146.408
2138.71
123.979
2088.94
123.135
1898.03
127.216
1763.57
136.105
1643.36
149.402
1519.37
166.902
1396.1
187.245
1276.48
208.431
1160.41
229.41
1038.51
244.072
881.787
233.197
646.332
155.343
333.154
71.3638
223.729
1420.42
245.051
2117.4
235.578
2098.39
236.849
1896.77
241.204
1759.2
245.174
1639.41
247.396
1517.13
246.107
1397.41
241.982
1280.59
234.783
1167.62
222.118
1051.17
199.766
904.13
156.575
689.508
78.4934
411.222
149.857
205.036
1215.37
240.888
2081.57
216.059
2123.21
193.706
1919.14
179.488
1773.4
166.076
1652.83
152.299
1530.9
138.106
1411.61
123.192
1295.5
108.935
1181.88
94.67
1065.43
77.3588
921.468
53.1645
713.729
19.5757
444.835
169.433
175.794
1039.55
228.287
2029.1
205.72
2145.73
176.232
1948.65
157.714
1791.87
143.29
1667.28
128.232
1545.92
113.867
1426
100.609
1308.74
87.8435
1194.65
75.8212
1077.44
62.3059
934.956
42.9233
733.078
16.9756
470.753
186.409
154.113
885.402
223.988
1959.24
211.273
2158.42
183.224
1976.72
165.047
1810.02
151.953
1680.4
139.097
1558.76
125.387
1439.73
112.18
1321.93
99.5198
1207.34
86.0817
1090.87
70.7866
950.314
49.9035
754.033
22.0475
498.674
208.456
132.339
752.987
213.043
1878.56
209.665
2161.7
181.466
2004.96
162.322
1829.08
147.975
1694.8
134.117
1572.55
120.459
1453.44
106.152
1336.2
92.4247
1221.09
78.8424
1104.44
63.1
966.029
42.8323
774.256
17.9168
523.55
226.374
110.742
642.054
197.157
1792.14
204.188
2154.51
178.027
2031.13
158.704
1848.26
145.945
1707.57
132.493
1585.9
118.848
1467.08
105.127
1349.88
90.7022
1235.53
76.2631
1118.86
60.7655
981.663
40.9824
794.187
17.589
547.077
243.962
99.8712
541.818
189.062
1702.95
204.873
2138.36
178.369
2057.66
151.569
1874.76
133.554
1725.65
118.784
1600.46
104.645
1481.31
91.4741
1362.92
79.5223
1247.5
67.2318
1131.1
53.413
995.36
34.6998
812.77
12.2736
569.394
256.24
95.2533
446.224
234.245
1564.02
280.011
2092.37
272.599
2065.14
267.183
1880.08
266.488
1726.39
260.791
1606.19
248.488
1493.56
230.067
1381.48
207.799
1269.84
182.017
1157.1
150.048
1027.65
109.758
853.547
57.7287
621.902
313.981
134.866
311.015
256.069
1443.4
298.613
2049.59
244.686
2119.61
166.015
1958.65
108.388
1784.68
77.5954
1637.05
64.8924
1507.11
62.1443
1384.54
64.1716
1268.49
66.8523
1154.9
64.5474
1030.6
46.5725
872.796
18.8869
650.851
332.918
-198.026
255.479
866.64
1328.71
1562.08
1658.68
1635.93
1556.65
1420.92
1256.08
1067.52
854.17
619.526
328.738
0.158112
916.055
-915.712
916.352
916.618
916.785
1748.52
-831.611
1748.68
1748.83
1748.94
2417.1
-668.034
2417.25
2417.35
2929.23
-511.786
2929.34
2929.47
2929.55
3281.33
-351.681
3281.44
3281.52
3495.9
-214.266
3496
3496.16
3496.23
3559.93
-63.5626
3560.05
3560.19
3560.26
3503.22
57.2089
3503.36
3503.49
3356.18
147.403
3356.35
3356.45
3356.58
3118.18
238.479
3118.33
3118.4
2824
294.508
2824.13
2824.24
2824.32
2477.28
347.125
2477.39
2477.54
2477.59
2135.07
342.78
2135.2
2135.47
1857.28
278.181
1857.57
1857.59
1857.83
1521.47
336.306
1521.79
1521.74
1522.08
1073.82
448.209
1074.15
1073.97
514.968
559.341
514.96
515.284
515.062
-80.5218
596.238
-80.2057
-79.4054
-1139.46
1059.47
-1138.95
-1139.43
-1138.89
-2755.4
1615.94
-2754.94
-2755.53
-2754.96
-4750.85
1995.15
-4750.66
-4751.73
-7005.79
2254.29
-7006.9
-7006.61
-6892.83
-6770.25
-6636.6
-8938.03
2430.93
-8817.41
-8665.51
-8488.72
-8307.98
-8127.47
-7951.93
-7770.33
-7565.18
-9915.73
2554.71
-9700.44
-9489.7
-9280.8
-9050.49
-8817.33
-8582.94
-8348.34
-8113.12
-10443.3
2569.47
-10190.2
-9936.65
-9683
-9430.57
-9172.88
-8904.05
-8632.77
-8359.62
-8087.29
-10281
2454.89
-9996.92
-9711.31
-9424.69
-9139.88
-8856.08
-8559.05
-8253.17
-7949.43
-9813.35
2153.59
-9520.5
-9221.3
-8909.91
-8597.95
-8286.26
-7974.78
-7664.01
-7337.25
-8705.58
1683.41
-8389.98
-8076.13
-7764.61
-7440.42
-7110.83
-6781.96
-6455.59
-6137.73
-6814.95
991.99
-6499.16
-6186.47
-5876.96
-5570.2
-5269.64
-4984.78
-4705.56
-4434.78
-4174.73
-3872.55
-37.9705
-3658.13
-3465.67
-3281.33
-3098.06
-2915.62
-2759.18
-2669.6
-2579.01
-1974.83
-501.55
-1886.43
-1793.71
-1793.29
-1397.36
-395.789
-1032.15
-364.486
-1031.92
-695.591
-335.714
-695.542
-397.3
-297.471
-149.526
-247.269
-148.078
106.106
-253.019
363.085
-255.983
363.527
606.088
-241.944
606.254
832.307
-225.495
1058.4
-226.095
1058.85
1271.87
-212.92
1272.38
1466.6
-193.973
1648.61
-181.554
1648.59
1816.39
-167.351
1967.2
-151.015
1967.6
2107.93
-140.474
2108.42
2234.5
-126.018
2338.33
-103.301
2338.33
2440.37
-101.542
2440.27
2532.9
-92.1068
2600.58
-67.814
2601.08
2674.26
-73.0972
2725.56
-50.7423
2725.65
2780.72
-54.5964
2780.8
2833.41
-52.1525
2860.7
-27.2364
2861.03
2899.2
-38.0989
2899.51
2938.38
-38.6723
2953.06
-14.4061
2953.18
2984.76
-31.3212
2994.56
-9.67353
2994.72
3015.8
-20.9584
3015.94
3040.7
-24.5882
3041.01
-0.230177
3041.16
3057.51
-16.3005
3057.62
3078.65
-20.9717
3076.02
2.74004
3076.01
3094.95
-18.8137
3092.71
2.23315
3092.8
3105.17
-12.3967
3105.25
3124.14
-18.9225
3119.67
4.50524
3119.64
3134.04
-14.3677
3134
3155.55
-21.4971
3154.82
0.674235
3154.85
3178.48
-23.6619
3183.31
-4.78594
3183.29
3206.37
-23.0735
3206.38
-32.4509
-59.5458
600.993
-55.8034
563.823
-51.2233
528.011
-46.0974
486.294
-34.8634
415.215
-10.2117
292.171
8.11162
429.168
49.3962
403.109
65.8533
180.518
58.6991
194.214
52.8828
265.569
43.432
460.175
21.0094
291.938
27.036
935.421
39.2681
1055.42
27.8114
533.05
-5.06054
-37.829
-8.58829
275.064
14.4753
388.156
3.41419
229.563
8.89848
688.985
34.2915
368.188
41.6609
149.292
36.578
11.009
34.7894
156.271
38.9705
-199.027
35.6362
-280.288
33.5165
-452.421
26.3355
-364.376
13.4525
-428.784
-0.227151
-414.681
16.2453
1050.14
29.0151
3969.8
29.4547
3863.64
33.1161
3407.58
33.913
2764.3
31.1138
2142.07
13.5473
979.063
-58.8051
-565.277
-61.4848
33.1087
-62.3956
327.454
-54.1573
461.309
-43.7818
492.401
-32.7226
494.429
-27.3503
494.639
-7.93605
794.23
14.7577
407.91
-18.1149
-726.462
-69.6074
-1541.87
-100.717
-1991.56
-102.418
-2102.65
-83.0149
-2114.96
-56.0719
-2135.16
-23.8613
-1690.43
-25.791
438.337
-18.4879
4057.15
-9.50821
3741.59
-35.4542
-111.745
-35.7929
-775.94
-43.2286
-581.748
-52.2507
-463.826
-60.4256
-320.363
-68.2826
-200.149
-66.9088
12.6702
-72.1525
174.243
-79.2982
313.102
-86.8902
461.753
-92.7724
618.382
-94.4876
758.255
-89.9998
850.632
-78.5092
865.108
-61.5002
789.017
-43.3712
648.278
-26.6863
502.362
-22.5496
331.486
-6.64823
-204.106
5.62035
-588.866
19.0833
-908.855
-2212.83
-57.1808
599.545
-53.9683
561.213
-49.7622
524.684
-43.3353
480.977
-29.3429
402.608
-18.0548
282.876
8.71638
403.736
51.457
361.954
63.8657
170.701
48.0653
211.924
38.392
276.35
38.7287
460.689
17.6891
314.804
29.0119
924.994
40.4391
1044.71
29.3004
545.427
-8.62782
4.12095
-6.249
275.38
9.85262
374.417
7.94819
234.266
16.6242
681.844
29.3408
358.279
42.895
139.676
39.7707
18.9121
60.2755
139.388
40.7993
-171.608
28.1542
-263.995
32.2854
-448.447
21.687
-351.438
8.46259
-413.297
-3.0793
-401.273
14.4349
1033.47
27.9876
3956.49
28.3143
3863.57
31.911
3404.25
32.8713
2763.67
29.8827
2145.33
14.9782
994.373
-66.2974
-482.624
-68.6759
38.097
-64.176
324.166
-50.0168
448.525
-32.6316
475.966
-11.1996
473.992
-18.3363
502.393
-1.39808
777.504
30.9799
376.031
-0.324662
-694.963
-56.1628
-1485.33
-94.5894
-1952.45
-101.83
-2094.93
-87.2086
-2129.05
-60.8349
-2161.03
-37.797
-1712.72
-31.3649
434.662
-11.2431
4037.43
-5.31633
3735.7
-36.3865
-79.5667
-38.1548
-773.83
-43.9825
-575.377
-51.3067
-456.113
-58.9966
-312.186
-70.8008
-187.384
-69.1159
12.4517
-71.9677
177.883
-78.0236
319.639
-85.0464
469.015
-90.3052
623.728
-91.4294
759.334
-86.5175
845.575
-74.9359
853.297
-58.5799
772.321
-43.1343
632.329
-35.3693
493.874
-27.4547
322.72
-7.52606
-224.407
3.21422
-600.202
11.9377
-918.107
-2224.18
-55.2298
597.63
-51.5644
557.71
-46.8613
520.209
-41.0381
475.407
-32.8093
394.681
-21.6733
272.191
9.03052
372.916
49.4464
319.226
64.927
152.203
51.3067
225.617
39.3209
288.329
36.6416
463.475
16.3378
335.681
28.3421
913.322
38.7284
1034.5
26.63
557.819
-6.85758
38.4498
-4.88814
274.114
10.6004
359.639
9.60342
235.908
17.0789
674.898
26.9062
349.403
40.2293
127.261
40.7941
19.2207
58.7463
122.289
39.4331
-153.132
32.7529
-259.301
24.4292
-443.056
17.9439
-346.858
6.34706
-404.011
-2.93265
-393.956
13.9765
1016.55
28.0456
3942.46
28.1313
3863.55
31.4784
3400.97
32.3905
2762.86
29.6591
2148.05
8.53954
1015.27
-56.7047
-418.462
-68.0683
49.6986
-60.8339
316.886
-44.5358
432.593
-26.6412
458.127
-10.0407
457.565
-16.1169
508.464
5.80727
755.084
39.0193
343.283
9.78554
-666.026
-44.2147
-1431.97
-85.4124
-1911.98
-97.2958
-2083.67
-88.8098
-2138.17
-63.225
-2187.18
-35.8068
-1740.94
-29.8361
429.251
-7.75593
4015.44
3.33451
3724.67
-37.7798
-39.4018
-39.9163
-771.881
-44.882
-570.808
-51.1344
-450.264
-58.1149
-305.729
-67.8377
-178.507
-68.6141
13.1689
-71.5944
180.926
-77.5515
325.672
-84.4381
475.946
-89.4443
628.769
-90.1834
760.085
-84.7977
840.188
-72.8162
841.304
-56.526
756.002
-42.3179
618.033
-36.8652
488.292
-26.7014
312.522
-8.71634
-241.958
1.87008
-610.217
15.0824
-930.78
-2213.66
-54.2053
595.5
-50.0611
554.013
-44.9149
515.742
-39.0691
470.454
-33.0051
389.77
-25.5516
266.621
5.05139
344.563
46.3521
279.09
63.5012
137.001
54.5004
236.448
42.0379
301.963
36.9376
469.529
16.8502
357.496
27.1463
903.976
37.0658
1025.34
25.0205
571.074
-5.20114
72.0428
-3.35258
274.816
11.3137
347.278
10.6439
239.052
16.7336
670.199
24.8141
343.89
36.9055
118.897
39.1268
21.2567
55.845
109.022
37.8112
-128.877
34.8511
-252.209
20.0532
-422.139
14.2792
-338.716
4.02607
-391.577
-2.95988
-385.282
13.5959
1000.73
28.0258
3928.25
28.1204
3863.7
31.1607
3398.19
31.9387
2762.41
29.1737
2151.08
5.70162
1038.78
-50.4305
-360.569
-64.1035
65.6566
-56.028
310.314
-39.5295
417.964
-23.2216
443.38
-9.96472
445.978
-11.5597
511.354
14.8373
729.374
48.1135
310.665
21.0368
-638.821
-31.5837
-1378.63
-76.2677
-1866.65
-92.2566
-2067.28
-85.7177
-2144.24
-63.4688
-2208.95
-34.552
-1769.15
-26.5779
424.049
-3.50211
3992.78
8.886
3712.31
-39.8659
11.2976
-41.4243
-769.857
-45.6496
-565.956
-51.0488
-444.474
-57.3014
-299.011
-65.2561
-169.564
-67.7981
17.017
-71.4153
185.254
-77.4995
332.199
-84.2903
482.962
-89.0054
633.576
-89.2856
760.331
-83.3339
834.108
-70.8891
828.642
-54.6346
739.409
-41.0222
603.908
-35.5018
482.025
-24.6601
300.816
-9.82424
-257.007
0.602979
-621.22
10.3154
-941.034
-2227.24
-53.3493
592.959
-48.7754
549.481
-43.2694
510.28
-36.8433
464.042
-31.1999
384.158
-32.9961
268.59
-1.43591
312.283
45.0822
230.339
60.8829
118.145
56.4054
240.592
44.0329
314.041
38.1194
475.342
18.3608
377.476
26.1873
896.329
35.2341
1016.32
23.9476
582.361
-3.36236
99.4107
-1.75042
273.375
11.6071
334.175
10.5812
240.147
16.2186
664.811
23.2455
337.309
33.5314
108.703
36.2951
18.4389
51.1379
94.2763
36.612
-116.277
34.7539
-252.629
16.5219
-407.676
10.8133
-335.061
1.88605
-385.034
-3.39714
-382.09
13.2701
983.848
27.9069
3913.59
28.0927
3863.52
30.8986
3395.4
31.619
2761.73
28.7869
2153.79
6.84023
1060.41
-50.1168
-305.29
-59.646
74.8693
-51.443
301.748
-35.3649
402.026
-20.4386
428.314
-8.52905
434.079
-5.06269
507.728
24.5797
698.996
56.4264
279.231
32.0716
-614.841
-18.0449
-1329.17
-65.9118
-1819.54
-86.4705
-2047.4
-82.4363
-2148.96
-64.4972
-2227.53
-35.4464
-1799.07
-21.9422
410.446
1.32725
3969.5
12.9086
3700.78
-43.2605
65.8608
-42.6781
-770.658
-46.3581
-562.668
-51.0633
-440.205
-56.5892
-294.034
-63.2333
-163.806
-67.056
20.4729
-71.3299
189.406
-77.5831
338.424
-84.2443
489.616
-88.5989
637.953
-88.338
760.099
-81.7552
827.563
-68.8481
815.784
-52.6599
723.281
-39.3283
590.61
-33.2774
476.019
-22.7381
290.519
-10.7554
-268.517
-0.206012
-631.192
13.7872
-954.441
-2212.54
-52.534
590.241
-47.5592
544.904
-41.7631
505.078
-34.4247
457.49
-28.0773
378.844
-30.8674
273.147
2.93548
280.752
46.7024
187.721
58.7219
107.611
57.4212
243.493
45.5659
326.943
39.0522
482.778
19.5832
398.488
25.3625
891.478
33.3047
1009.12
22.9193
593.84
-1.78352
126.952
-0.310526
274.256
11.7469
324.284
10.04
243.991
15.7457
660.376
22.0668
333.293
30.8813
103.206
33.4793
19.5065
47.2039
83.7418
35.332
-99.5078
34.1564
-246.978
13.9373
-382.876
8.10254
-326.852
0.253805
-374.958
-4.16933
-376.107
12.9887
967.3
27.7491
3899.01
28.0298
3863.46
30.672
3392.98
31.3827
2761.3
28.5075
2156.86
10.4649
1078.36
-53.7104
-239.195
-55.4493
78.442
-47.0834
294.706
-31.4256
388.167
-17.2377
415.639
-5.75767
424.27
2.129
501.151
35.0504
666.857
64.5283
250.367
42.7854
-593.073
-4.08185
-1281.58
-54.3596
-1768.65
-80.305
-2021.16
-81.1057
-2147.78
-66.5961
-2241.62
-37.1663
-1827.84
-16.679
392.67
6.53092
3946.71
17.0073
3690.38
-44.7063
129.979
-43.6025
-771.116
-47.0015
-558.55
-51.2366
-435.556
-56.1206
-288.668
-61.7035
-157.171
-66.4656
26.3487
-71.3301
194.897
-77.7454
345.248
-84.2323
496.323
-88.1654
641.997
-87.2983
759.233
-80.0513
820.238
-66.7044
802.282
-50.5945
706.911
-37.2846
576.895
-30.3344
468.465
-20.6875
280.243
-11.3739
-277.895
-1.12784
-641.991
11.5845
-967.707
-2222.72
-51.7575
587.092
-46.4214
539.54
-40.405
498.997
-32.057
449.02
-22.6668
369.288
-15.8113
266.232
17.964
245.482
49.7934
153.731
57.1932
97.3641
57.6862
242.336
46.6678
337.396
39.6692
489.449
20.461
417.636
24.5068
887.452
31.3418
1002.15
21.7724
603.142
-0.444923
148.704
0.933906
272.6
12.1974
312.848
9.39781
246.42
15.1885
654.604
21.2673
327.244
28.4715
95.3742
30.5383
16.6588
42.6294
71.0644
33.5784
-92.903
32.2038
-248.389
11.6026
-366.392
5.96382
-323.381
-0.830652
-370.581
-5.01836
-374.053
12.712
949.216
27.5429
3884.11
27.9498
3863.02
30.4883
3390.41
31.2281
2760.54
28.2906
2159.61
10.8365
1095.44
-51.7175
-178.453
-51.251
77.3176
-42.7272
285.483
-27.5008
372.769
-13.516
401.192
-2.10225
412.567
8.81872
489.775
45.2016
629.395
72.43
223.479
53.1253
-574.187
10.0226
-1239.11
-41.569
-1717.8
-72.7129
-1990.7
-78.9396
-2142.22
-68.6433
-2252.6
-39.3508
-1858.03
-11.2196
363.967
12.0427
3923.36
18.5962
3683.82
-39.5705
185.925
-44.0901
-766.911
-47.5237
-555.53
-51.4853
-432.077
-55.8234
-284.913
-60.6113
-153.341
-66.0928
31.2387
-71.4624
199.994
-77.9909
351.664
-84.2435
502.525
-87.691
645.454
-86.1579
757.737
-78.2236
812.369
-64.4539
788.607
-48.4035
690.992
-34.9256
563.549
-26.9755
460.706
-18.4325
272.149
-11.6682
-284.193
-1.97946
-651.128
5.88394
-974.952
-2230.94
-51.058
583.774
-45.4033
534.262
-39.1361
493.272
-29.8268
440.411
-16.962
357.38
-3.40013
254.373
27.7514
215.68
52.3861
130.268
55.808
94.9784
57.3377
242.081
47.2733
348.289
39.9665
497.549
21.1069
437.806
23.5761
885.821
29.3734
997.011
20.5515
612.871
0.680991
170.911
2.11939
273.243
12.8822
304.004
8.80415
252.255
14.7586
649.78
20.7344
323.276
26.6302
92.251
27.9754
18.3322
39.0308
62.8256
32.0718
-82.1099
30.9929
-242.869
10.3103
-342.351
4.64491
-315.482
-1.49187
-362.204
-5.76425
-368.423
12.4224
931.502
27.2626
3869.41
27.861
3862.6
30.3539
3388.09
31.1711
2759.95
28.1901
2162.74
10.6458
1112.9
-48.2151
-118.423
-47.302
77.9114
-38.4768
277.643
-23.4848
359.275
-9.31331
388.224
2.5805
402.076
16.1996
477.192
55.5487
590.661
80.3392
199.088
63.0083
-556.987
23.9952
-1199.41
-27.8248
-1665.44
-63.9866
-1954.37
-75.7169
-2130.24
-70.1165
-2257.89
-41.7819
-1885.86
-5.71692
330.336
17.9133
3900.1
22.015
3679.81
-36.9495
246.495
-44.4019
-758.751
-48.0006
-551.179
-51.8863
-427.791
-55.8404
-280.493
-59.9449
-148.165
-65.9583
38.1428
-71.7399
206.292
-78.3178
358.597
-84.2706
508.68
-87.1622
648.468
-84.9084
755.514
-76.2695
803.702
-62.0948
774.35
-46.081
674.82
-32.2727
549.485
-23.0384
451.078
-15.8714
264.695
-11.6596
-288.314
-2.25206
-661.039
12.0717
-989.8
-2214.63
-50.4464
580.028
-44.4996
528.226
-37.8404
486.448
-27.6321
429.97
-12.9627
342.438
4.37618
236.616
33.8206
184.545
54.8159
107.035
54.9031
92.1935
56.4749
239.581
47.3752
356.605
39.8866
504.511
21.4836
455.929
22.5472
884.633
27.3596
991.92
19.2538
620.489
1.60779
187.721
3.13704
271.081
13.2895
293.316
7.76041
257.093
14.3212
643.062
20.2908
317.011
24.6955
86.6408
25.3651
16.3389
35.1227
51.9427
30.2167
-80.0117
28.6165
-244.877
9.0882
-327.247
3.65107
-312.408
-2.16344
-358.898
-6.46623
-366.344
12.1302
912.447
26.9034
3854.54
27.7585
3861.67
30.2695
3385.51
31.2244
2758.93
28.2322
2165.5
10.2348
1130.5
-43.8227
-65.9946
-43.3074
76.4769
-34.1591
267.478
-19.2053
343.827
-4.86193
373.063
7.5324
389.056
23.9982
459.943
65.6605
547.504
88.3114
176.584
72.6306
-541.81
37.732
-1165.16
-13.3203
-1615.17
-54.367
-1914.06
-72.0494
-2113.27
-71.2988
-2259.4
-44.2513
-1913.9
-0.198906
285.094
24.0635
3875.64
27.3816
3676.4
-34.0931
305.672
-44.4699
-748.809
-48.4059
-547.704
-52.3185
-424.41
-56.0054
-277.424
-59.6783
-145.549
-66.0963
43.8054
-72.1823
211.99
-78.7283
364.962
-84.304
514.165
-86.5611
650.72
-83.5321
752.524
-74.1737
794.431
-59.6056
759.919
-43.5745
658.988
-29.3433
535.486
-18.955
441.038
-13.2166
259.616
-11.3435
-289.689
-2.68279
-669.143
9.68075
-1001.48
-2223.57
-49.9565
576.163
-43.7249
522.359
-36.471
479.704
-25.7779
419.918
-10.5016
328.078
9.18272
218.915
38.5738
156.116
56.7546
90.0045
53.9896
95.6447
55.2391
239.332
46.9722
365.525
39.3989
512.76
21.5658
474.884
21.4054
885.546
25.3118
988.593
17.9435
628.613
2.33663
205.302
4.01012
271.29
13.1822
285.854
6.4055
265.344
14.0866
636.433
19.7206
313.169
22.855
85.8349
23.1102
18.6585
32.3381
45.2782
29.1493
-73.6329
27.6578
-239.108
9.03867
-306.024
3.41464
-304.638
-2.50523
-350.688
-6.97754
-360.685
11.8298
894.018
26.4704
3840.01
27.6395
3860.66
30.2342
3383.05
31.392
2757.94
28.4481
2168.54
10.2099
1148.66
-39.9123
-15.2544
-39.532
77.2791
-29.9145
258.512
-14.6923
329.778
-0.155124
359.367
13.0302
376.937
32.9417
440.741
76.1873
504.537
96.5341
156.298
82.061
-527.664
51.0719
-1133.56
1.77846
-1565.43
-43.8289
-1868.44
-68.2332
-2088.77
-72.548
-2254.93
-46.701
-1939.48
5.33356
235.002
30.4119
3850.86
33.7186
3673.19
-31.1101
371.415
-44.4276
-734.776
-48.8052
-542.566
-52.8675
-419.951
-56.4532
-273.362
-59.7409
-141.15
-66.478
51.2729
-72.7721
218.716
-79.2025
371.706
-84.3221
519.47
-85.8694
652.398
-82.0176
748.73
-71.9337
784.366
-56.9863
744.961
-40.9006
642.852
-26.2414
520.736
-14.834
429.475
-10.7396
255.614
-10.687
-289.496
-3.02567
-677.247
5.07544
-1010.05
-2231.15
-49.5926
571.897
-43.1069
515.737
-34.8231
471.209
-23.4253
408.22
-6.37865
310.67
15.7943
195.949
43.3999
126.728
59.0519
72.0081
53.7623
98.5378
53.8203
238.217
46.1008
372.328
38.5042
519.687
21.3394
491.64
20.1323
886.524
23.2214
985.117
16.5972
634.596
2.80509
218.057
4.59058
268.614
12.6812
276.952
4.96016
272.191
13.8566
627.243
19.1472
307.345
20.7832
82.6148
20.7003
17.084
29.2704
35.1734
27.5324
-74.8404
25.1559
-241.239
8.59573
-293.931
3.4254
-301.88
-2.52426
-347.234
-7.21288
-358.221
11.519
874.777
25.9659
3825.44
27.4986
3859.03
30.2471
3380.22
31.6805
2756.42
28.853
2171.12
10.3205
1166.78
-36.0116
29.6961
-35.711
75.9756
-25.5517
247.17
-9.9893
313.546
4.68097
343.672
19.0041
361.813
42.3521
416.43
85.9885
459.18
104.835
137.521
91.5215
-514.871
63.9987
-1106.64
17.2365
-1519.41
-32.1807
-1819.75
-63.7578
-2057.87
-73.4189
-2246.04
-48.7913
-1965.1
10.6471
174.068
36.8662
3824.38
38.7387
3671.14
-28.0788
436.051
-44.2549
-719.145
-49.0658
-538.264
-53.3805
-416.228
-56.9697
-270.443
-60.1179
-139.179
-67.1078
57.43
-73.5033
224.65
-79.7237
377.698
-84.3008
523.925
-85.0672
653.142
-80.3488
744.041
-69.5375
773.643
-54.2212
729.791
-38.043
626.894
-23.0097
505.966
-10.1992
417.078
-7.7742
253.88
-9.7535
-287.041
-2.92055
-683.557
10.0746
-1022.34
-2218.52
-49.4059
567.615
-42.7493
509.417
-33.1098
462.019
-18.4859
394.176
3.39483
289.734
27.0093
173.982
47.5974
106.891
60.5968
59.9033
53.3719
106.131
52.2659
240.066
44.8018
380.274
37.2276
527.801
20.7985
509.009
18.716
889.255
21.118
983.201
15.1572
641.151
2.96659
231.898
5.01038
268.235
11.9792
271.449
3.68656
281.707
13.8362
618.061
18.8341
303.919
19.2529
84.0955
18.791
19.7379
27.3943
28.8996
27.3262
-72.0622
24.4449
-234.553
9.23758
-276.69
3.71579
-294.409
-2.41416
-338.864
-7.11593
-352.557
11.1777
856.766
25.384
3811.31
27.3337
3857.2
30.3081
3377.34
32.0946
2754.76
29.4706
2173.79
10.7557
1185.38
-32.6571
73.339
-32.0975
76.2471
-21.2391
236.637
-5.21065
298.365
9.76079
329.166
25.84
346.451
53.0214
389.607
96.2202
415.85
113.392
120.028
101.083
-503.097
76.5318
-1081.58
32.8473
-1475.39
-19.3429
-1767.71
-58.0791
-2019.23
-73.7199
-2230.43
-50.8772
-1987.95
15.8715
108.664
43.4194
3797.02
42.5384
3672.08
-27.1078
506.046
-44.0334
-701.592
-49.2644
-532.324
-53.9888
-411.148
-57.7469
-266.24
-60.7358
-135.087
-67.9359
65.2003
-74.3406
231.398
-80.2618
383.885
-84.2159
528.039
-84.1388
653.194
-78.5206
738.494
-66.9881
762.166
-51.3189
714.172
-35.0266
610.647
-19.8172
490.815
-6.20851
403.544
-5.09495
253.188
-8.52254
-283.218
-2.72819
-689.719
7.14022
-1032.59
-2230.43
-49.3981
563.019
-42.5283
502.335
-31.4248
450.656
-13.1968
375.624
12.7781
263.076
36.4005
149.278
51.1029
90.2741
61.7588
46.5787
53.4012
112.338
50.671
241.663
43.1381
386.794
35.5781
534.577
19.9111
524.167
17.1444
891.706
19.0116
980.857
13.6227
645.781
2.82184
241.515
5.10593
264.857
10.9867
264.537
2.51533
289.183
13.868
606.309
18.7882
298.289
17.8072
83.2605
16.8582
18.816
25.0979
18.8049
26.1261
-76.1677
21.7993
-235.897
8.92699
-268.337
3.06131
-291.012
-2.94918
-335.435
-6.82336
-350.981
10.81
838.578
24.7169
3797.27
27.1365
3854.68
30.4152
3373.95
32.6422
2752.43
30.3185
2175.86
11.4337
1203.84
-29.4156
112.983
-28.4508
74.175
-16.8077
223.642
-0.28571
281.013
15.1286
312.553
32.9791
327.642
63.1732
358.257
105.148
371.944
121.832
103.311
110.903
-492.736
88.7765
-1060.03
48.3564
-1435.72
-5.52192
-1714.58
-51.2596
-1974.17
-73.5424
-2208.94
-52.7092
-2009.79
20.9503
32.9722
50.0269
3767.61
46.5363
3675.32
-25.5576
576.103
-43.4955
-684.315
-49.2658
-527.127
-54.5073
-406.558
-58.5284
-262.93
-61.6146
-133.293
-68.9498
71.6567
-75.2639
237.194
-80.7925
389.145
-84.043
531.136
-83.0642
652.173
-76.5189
731.965
-64.2735
750.003
-48.2657
698.317
-31.86
594.475
-16.7247
475.969
-2.98542
390.259
-2.4693
253.409
-7.04733
-278.172
-1.99804
-694.258
12.3007
-1046.14
-2215.03
-49.5834
558.528
-42.2591
495.303
-29.6314
438.389
-9.8262
356.342
17.9852
236.375
42.5108
126.011
53.5958
79.8051
61.4109
39.36
52.919
121.031
48.9525
246.203
41.1241
394.992
33.5852
542.559
18.7209
539.837
15.4293
895.564
16.9168
979.788
12.1265
651.055
2.57924
252.491
5.03153
263.923
9.81613
261.037
1.55141
298.524
14.1171
594.687
18.9943
294.86
16.925
86.9731
15.6654
22.0769
24.065
12.6832
26.9834
-76.5876
21.3085
-227.147
9.48563
-254.758
3.31475
-283.018
-2.54478
-327.318
-6.10956
-346.637
10.4083
822.276
23.9512
3783.79
26.9015
3851.83
30.5666
3370.36
33.326
2749.76
31.4154
2177.78
12.4298
1222.67
-26.5416
151.932
-25.0135
73.1378
-12.5238
211.178
4.64302
264.401
20.8951
296.43
40.6009
308.324
73.4643
325.371
114.025
330.787
130.297
86.3426
120.997
-484.191
100.87
-1039.51
63.5885
-1398.22
9.05307
-1660.39
-43.2229
-1922.19
-72.4091
-2180
-54.3496
-2028.17
26.0719
-46.8803
56.6596
3737.09
52.4345
3679.54
-21.7679
650.235
-42.7511
-662.824
-49.2188
-520.01
-55.0922
-400.346
-59.5375
-258.033
-62.6588
-129.11
-70.084
79.5426
-76.2306
243.622
-81.283
394.425
-83.7598
533.749
-81.8301
650.369
-74.3414
724.557
-61.3996
737.147
-45.0787
682.102
-28.6005
578.131
-13.7649
461.335
-0.71866
377.512
-0.422529
253.866
-5.30204
-272.761
-1.2837
-698.564
11.7768
-1059.48
-2224.41
-49.9446
553.793
-41.8077
486.907
-27.7383
424.045
-4.64247
332.873
25.3951
205.335
48.829
101.424
56.1047
70.4992
60.3633
32.1077
52.8639
126.682
47.2027
250.751
38.8386
402.312
31.3028
549.246
17.221
553.372
13.5655
898.857
14.8254
977.995
10.6155
654.441
2.15625
259.723
4.65244
260.21
8.41302
256.122
0.740431
305.154
14.2289
580.711
19.0936
289.166
16.0038
88.1577
14.523
21.5902
22.4764
2.64231
25.9724
-83.2481
18.8477
-226.313
9.50052
-249.83
4.26229
-280.225
-1.21584
-324.469
-4.82293
-345.256
9.98193
806.906
23.074
3770.57
26.6167
3848.18
30.7592
3366.11
34.1506
2746.27
32.7744
2178.91
13.7433
1241.29
-23.7009
188.415
-21.6177
69.9997
-8.24507
196.4
9.64535
245.674
27.0295
277.825
48.4105
285.976
82.6234
289.941
121.203
290.307
138.458
69.1105
131.496
-477.76
113.041
-1021.53
78.5668
-1364.43
24.2368
-1606.77
-33.8469
-1864.71
-70.1181
-2144.46
-55.4631
-2043.75
31.0672
-135.594
63.2403
3704.56
58.1965
3684.29
-16.8623
723.568
-41.7231
-638.689
-48.9426
-513.4
-55.5123
-394.487
-60.4363
-253.887
-63.8759
-127.086
-71.3135
86.1074
-77.2143
248.98
-81.705
398.627
-83.3404
535.208
-80.4174
647.384
-71.975
716.109
-58.3551
723.589
-41.7442
665.62
-25.2339
561.827
-10.7461
447.096
2.03181
365.128
2.26279
254.31
-3.23682
-266.853
-0.3573
-700.99
8.00939
-1067.1
-2232.35
-50.5429
549.301
-40.9803
477.569
-24.896
408.199
3.91373
304.558
35.9634
174.216
53.465
84.9365
57.9402
66.4713
57.9977
32.244
52.2719
132.511
45.2475
258.206
36.2748
411.546
28.7649
557.093
15.4348
567.377
11.5577
903.213
12.753
977.144
9.01849
658.545
1.49371
268.47
4.10683
258.95
6.95134
254.365
0.153063
312.89
14.4005
567.365
19.2119
285.678
15.6312
93.1725
14.3027
24.7661
22.4187
-3.27066
27.1356
-85.709
18.8121
-215.919
10.7818
-240.311
5.99229
-273.784
0.527656
-316.735
-3.32919
-340.828
9.48528
794.234
22.0673
3758.03
26.2742
3844.06
30.9904
3361.43
35.1163
2742.2
34.4063
2179.6
15.419
1260.09
-21.0913
224.752
-18.5087
67.5829
-4.11876
181.752
14.6152
227.24
33.5062
258.777
57.0129
262.562
92.3925
254.161
128.658
253.014
146.708
50.108
142.406
-474.412
125.451
-1004.29
93.343
-1332.21
39.8873
-1553.83
-23.2853
-1802.02
-67.5057
-2100.69
-57.2209
-2054.62
36.0106
-229.391
69.7674
3670.75
63.4171
3690.57
-12.4725
799.115
-40.7055
-610.09
-48.6467
-504.891
-55.9658
-386.866
-61.4194
-247.996
-65.1477
-122.435
-72.5785
93.8783
-78.1699
254.786
-82.0255
402.668
-82.7645
536.052
-78.8166
643.548
-69.4219
706.792
-55.1489
709.416
-38.2784
648.894
-21.7829
545.53
-7.66438
433.29
4.7369
353.187
4.84508
255.253
-0.896173
-260.489
1.31346
-703.414
16.0164
-1081.98
-2216.69
-51.3512
544.612
-39.744
465.641
-18.8766
387.053
14.4877
270.565
44.3315
143.259
56.317
71.7037
60.8486
59.7344
57.573
32.4821
52.0017
136.489
43.1486
265.983
33.4396
420.196
25.9212
563.714
13.3166
579.399
9.41481
906.709
10.7076
975.271
7.31947
661.058
0.536661
273.987
3.23997
254.93
5.34746
251.009
-0.293663
317.444
14.5424
551.965
19.3229
279.985
15.2987
95.2676
14.1057
23.9241
21.8323
-13.2992
26.4851
-93.6698
17.7807
-213.75
11.4287
-238.411
7.41972
-272.243
2.44141
-314.59
-1.74497
-338.804
8.88111
783.031
20.9137
3745.87
25.8595
3839.01
31.2565
3355.93
36.2268
2737.14
36.3208
2179.27
17.5037
1278.51
-18.442
259.939
-15.5938
63.717
0.014105
164.687
19.6794
206.744
40.2052
237.01
65.8513
235.919
101.413
217.284
134.929
217.577
154.874
30.2449
153.924
-473.975
138.272
-989.013
107.905
-1302.45
55.839
-1502.47
-11.3546
-1735.38
-64.3647
-2048.34
-59.509
-2060.28
40.5956
-332.116
76.2198
3634.79
68.3433
3698.13
-8.13064
874.149
-39.56
-579.441
-48.0948
-497.02
-56.1894
-379.554
-62.121
-242.897
-66.543
-119.693
-73.8624
100.329
-79.0673
259.424
-82.2159
405.504
-82.0068
535.642
-77.0106
638.466
-66.6703
696.423
-51.7687
694.554
-34.6625
631.894
-18.2019
529.245
-4.38716
419.686
7.97535
341.147
8.07622
255.781
1.75973
-253.82
3.02839
-704.281
15.761
-1093.99
-2225.17
-52.0482
539.928
-37.9113
451.594
-13.5335
362.803
23.2078
234.364
51.1308
116.039
58.9813
64.6746
63.5629
55.4167
57.5408
38.4219
50.9353
143.186
40.7193
276.559
30.3254
430.785
22.8399
571.462
10.9179
591.904
7.15858
910.887
8.69724
974.027
5.67853
664.374
-0.462256
281.215
2.28159
253.436
3.80707
250.452
-0.462848
322.587
15.0014
537.409
19.7289
276.541
15.7047
100.671
14.8737
26.61
22.9698
-19.1781
28.4019
-97.0031
19.1394
-203.249
13.2136
-231.202
9.26605
-266.743
4.31115
-307.476
-0.317082
-333.776
8.1128
774.693
19.5906
3734.43
25.3629
3833.31
31.5541
3349.77
37.482
2731.25
38.5272
2178.19
20.0389
1296.81
-15.8866
295.621
-13.0993
60.8087
3.87463
147.193
24.6359
186.076
46.9828
214.264
75.3618
207.357
111.442
180.424
142.112
185.436
163.456
7.79786
166.087
-477.762
151.649
-974.39
122.403
-1273.19
71.9585
-1452.71
2.23188
-1666.32
-59.8019
-1986.96
-62.8065
-2058.15
45.0543
-442.599
82.5786
3597.04
73.5736
3706.98
-3.80192
951.065
-38.5743
-544.43
-47.576
-487.512