/*--------------------------------*- C++ -*----------------------------------*\
| =========                 |                                                 |
| \\      /  F ield         | OpenFOAM: The Open Source CFD Toolbox           |
|  \\    /   O peration     | Version:  4.1                                   |
|   \\  /    A nd           | Web:      www.OpenFOAM.org                      |
|    \\/     M anipulation  |                                                 |
\*---------------------------------------------------------------------------*/
FoamFile
{
    version     2.0;
    format      ascii;
    class       volVectorField;
    location    "29";
    object      U;
}
// * * * * * * * * * * * * * * * * * * * * * * * * * * * * * * * * * * * * * //

dimensions      [0 1 -1 0 0 0 0];

internalField   nonuniform List<vector> 
6785
(
(9.85214e-15 0.852195 15.7946)
(9.20555e-15 -4.89458 12.1215)
(-1.71563e-15 -4.19551 12.1321)
(8.11544e-16 -3.60119 11.9966)
(4.11124e-16 -3.00468 11.8778)
(-1.18618e-16 -2.5532 11.6992)
(2.12652e-15 -2.20882 11.4769)
(5.32688e-16 -1.96604 11.2116)
(-1.00962e-15 -1.79856 10.916)
(8.17756e-16 -1.71239 10.5882)
(2.17616e-16 -1.83747 10.1561)
(-5.65157e-16 -2.28569 9.53762)
(4.72165e-16 -2.51303 8.96378)
(-2.31584e-16 -1.06553 8.91358)
(-2.18585e-16 1.76575 7.47094)
(1.43099e-14 -5.35014 22.4929)
(1.49962e-14 -14.6049 21.394)
(-1.66199e-16 -13.2708 20.3411)
(5.38883e-15 -11.7697 19.5066)
(2.46408e-15 -11.1561 18.5043)
(1.49473e-16 -10.6595 17.5174)
(4.13427e-16 -10.0901 16.5714)
(1.63345e-15 -9.52501 15.6236)
(-4.63169e-16 -8.96545 14.6638)
(2.28527e-15 -8.36732 13.6946)
(5.56634e-16 -7.7571 12.7178)
(-7.10042e-16 -7.30335 11.7194)
(1.26742e-15 -7.01705 10.6243)
(2.18393e-16 -5.73094 9.1611)
(-2.42774e-16 -2.30498 4.5832)
(1.82995e-14 -7.71561 23.98)
(1.36188e-14 -16.7731 24.673)
(1.57845e-15 -13.7366 23.9372)
(4.92344e-15 -12.3062 22.6249)
(3.1168e-15 -11.6448 21.2414)
(1.18438e-15 -10.8141 20.0013)
(4.03085e-15 -9.94032 18.7738)
(1.26116e-15 -9.10019 17.5247)
(9.54397e-17 -8.28347 16.2655)
(1.34765e-15 -7.47534 15.0263)
(1.17052e-17 -6.66773 13.8177)
(-2.09443e-16 -5.84178 12.4301)
(2.57702e-16 -4.81406 10.2754)
(-1.02487e-16 -3.12644 6.68464)
(6.89138e-17 -0.832197 1.69003)
(1.8587e-14 -8.5024 22.0456)
(1.69154e-14 -16.6212 24.3322)
(2.09213e-15 -12.9301 23.797)
(4.47458e-15 -12.1537 21.9985)
(7.08775e-16 -11.4202 20.5027)
(2.37203e-15 -10.4938 19.1722)
(3.80247e-15 -9.63405 17.8167)
(7.87438e-16 -8.82378 16.459)
(1.18836e-15 -8.05384 15.123)
(7.55011e-16 -7.32401 13.8165)
(-5.57982e-16 -6.55277 12.4395)
(-1.29024e-15 -5.49131 10.5834)
(-3.48888e-16 -3.78584 7.50944)
(-1.07152e-15 -1.49423 2.76683)
(9.97434e-16 0.153081 -1.77305)
(1.74153e-14 -8.47559 19.7461)
(1.65342e-14 -16.3602 24.3122)
(2.55327e-15 -13.0995 23.66)
(3.41146e-15 -12.6282 21.5364)
(-1.80046e-15 -11.8569 20.0246)
(1.68571e-16 -10.9578 18.6636)
(2.7613e-15 -10.1703 17.2586)
(6.12424e-17 -9.40327 15.8711)
(2.89137e-15 -8.65311 14.5236)
(6.0153e-16 -7.93107 13.2137)
(-1.15685e-15 -7.16653 11.8295)
(-1.77756e-16 -6.11703 9.99699)
(-6.96859e-16 -4.42523 7.15694)
(-3.38699e-15 -2.30653 3.28957)
(-4.48318e-15 -0.788041 0.318872)
(1.55767e-14 -8.02008 17.5479)
(1.71995e-14 -16.0192 24.5271)
(5.58175e-15 -13.6454 24.046)
(3.14828e-15 -12.9951 21.7649)
(6.38024e-16 -12.1275 20.2153)
(3.74549e-15 -11.2259 18.8466)
(2.33062e-15 -10.4402 17.4339)
(2.68473e-16 -9.65019 16.0433)
(-1.25841e-15 -8.86172 14.6934)
(5.32891e-16 -8.09466 13.382)
(-3.26765e-16 -7.29884 12.0177)
(2.02081e-16 -6.28645 10.2831)
(3.80544e-15 -4.73534 7.72335)
(-1.86971e-15 -2.75843 4.3754)
(5.61997e-16 -0.950873 1.29969)
(1.42705e-14 -7.33144 15.2365)
(1.96003e-14 -15.4891 24.3506)
(6.13414e-15 -14.0284 24.4221)
(3.21302e-15 -13.1308 22.068)
(3.355e-15 -12.148 20.4394)
(1.02911e-15 -11.2391 19.0543)
(2.95028e-15 -10.4395 17.6438)
(3.26286e-15 -9.62349 16.258)
(4.48732e-15 -8.81391 14.9073)
(2.12727e-16 -8.03104 13.5929)
(5.02046e-16 -7.22796 12.2386)
(2.60926e-15 -6.24488 10.5522)
(-2.04629e-16 -4.7932 8.1135)
(-1.56971e-15 -2.92015 4.95489)
(3.04193e-15 -1.01476 1.8041)
(1.20902e-14 -6.53813 12.9864)
(1.8178e-14 -14.8384 23.797)
(7.67525e-15 -14.2776 24.6696)
(1.41822e-15 -13.2461 22.3244)
(1.57962e-15 -12.1758 20.5821)
(3.23135e-15 -11.2739 19.1657)
(4.19415e-15 -10.4734 17.7588)
(9.78812e-16 -9.65189 16.3775)
(1.44884e-15 -8.84379 15.0262)
(5.55562e-16 -8.06422 13.7099)
(5.59459e-16 -7.26434 12.3617)
(2.68778e-15 -6.29746 10.7072)
(2.5775e-16 -4.90355 8.34401)
(-9.02387e-16 -3.09815 5.28411)
(3.57509e-15 -1.13036 2.05853)
(1.04147e-14 -5.73347 11.0175)
(1.80337e-14 -14.1489 23.0334)
(7.36208e-15 -14.4699 24.8471)
(3.61046e-15 -13.4214 22.6281)
(1.62392e-15 -12.2752 20.7591)
(8.25525e-18 -11.37 19.2982)
(1.77772e-15 -10.5687 17.8953)
(1.19852e-15 -9.74716 16.5175)
(3.37781e-15 -8.94112 15.1643)
(7.15668e-16 -8.16177 13.8449)
(7.1078e-16 -7.36207 12.4993)
(4.99401e-16 -6.40477 10.8718)
(-5.45872e-17 -5.05275 8.57947)
(-9.80768e-16 -3.29755 5.6009)
(5.10585e-16 -1.25935 2.28824)
(6.15407e-15 -4.97703 9.35758)
(1.75383e-14 -13.4452 22.1408)
(1.05101e-14 -14.5817 24.9382)
(2.67187e-15 -13.6074 22.9637)
(1.41879e-15 -12.3896 20.9769)
(3.35331e-15 -11.4629 19.4579)
(1.31159e-15 -10.6551 18.0559)
(1.12463e-15 -9.83348 16.6815)
(-5.40293e-17 -9.0272 15.3266)
(-3.01603e-15 -8.2451 14.0041)
(4.64858e-16 -7.44501 12.6588)
(-1.3809e-16 -6.49634 11.0503)
(-5.81678e-15 -5.17748 8.81325)
(-6.08395e-16 -3.46178 5.89331)
(-4.38993e-15 -1.35657 2.50245)
(5.87473e-15 -4.33041 8.02309)
(1.70201e-14 -12.7695 21.2138)
(1.18895e-14 -14.6178 24.9407)
(4.99033e-15 -13.7954 23.311)
(9.53471e-16 -12.5307 21.2404)
(1.17542e-16 -11.575 19.6523)
(-1.6684e-15 -10.7591 18.2425)
(6.66448e-16 -9.93863 16.8683)
(-1.22979e-15 -9.13195 15.5104)
(-3.13896e-15 -8.34616 14.1831)
(7.1013e-16 -7.54449 12.8359)
(-1.44839e-15 -6.60411 11.2445)
(-8.89369e-16 -5.31624 9.06061)
(-3.41327e-15 -3.63798 6.19498)
(-8.74627e-15 -1.463 2.72767)
(5.27881e-15 -3.69609 6.70259)
(1.65537e-14 -12.0394 20.1161)
(1.06013e-14 -14.5409 24.7611)
(5.18552e-15 -13.9199 23.5335)
(3.73487e-15 -12.6108 21.3943)
(-2.63786e-17 -11.6118 19.736)
(9.92584e-16 -10.7889 18.3306)
(-7.74428e-17 -9.97668 16.9723)
(-1.29765e-15 -9.17878 15.6266)
(-3.81876e-16 -8.40054 14.3095)
(6.90938e-16 -7.60781 12.9714)
(-2.15747e-15 -6.67981 11.3967)
(-5.85439e-16 -5.41393 9.24854)
(-4.87197e-15 -3.75898 6.41153)
(-5.69709e-15 -1.52518 2.8742)
(2.01883e-15 -3.35759 6.09853)
(1.52478e-14 -11.518 19.2678)
(1.144e-14 -14.5919 24.6475)
(4.0779e-15 -14.3161 24.0057)
(3.50393e-15 -13.0706 21.9143)
(5.97748e-16 -12.0371 20.141)
(8.15095e-16 -11.1847 18.6549)
(3.4965e-15 -10.3564 17.2523)
(-8.6713e-16 -9.53476 15.8703)
(-5.73654e-16 -8.72539 14.521)
(8.85922e-16 -7.90447 13.1652)
(-2.22258e-15 -6.96549 11.6138)
(-1.02992e-15 -5.71875 9.5535)
(-4.30979e-15 -4.07367 6.78816)
(-6.39336e-15 -1.71483 3.1558)
(-1.29787e-15 -1.86345 2.64332)
(1.25986e-14 -9.88441 16.3812)
(1.16805e-14 -13.9086 23.3427)
(5.56392e-15 -13.9547 23.416)
(2.58238e-15 -12.584 21.2651)
(5.77227e-16 -11.4654 19.5155)
(1.01473e-15 -10.7003 18.2802)
(2.87727e-15 -10.0074 17.1327)
(-5.9546e-16 -9.32329 15.9718)
(-2.42387e-16 -8.6489 14.8006)
(5.94381e-16 -7.95806 13.5997)
(-2.09944e-15 -7.15151 12.2006)
(4.076e-16 -6.03405 10.2939)
(-5.97183e-15 -4.55936 7.78098)
(-4.59092e-15 -2.25354 4.45383)
(2.25305e-15 -4.37321 9.10285)
(1.29207e-14 -10.8908 18.6034)
(1.46316e-14 -15.1877 24.9583)
(9.32721e-15 -16.7588 26.1199)
(3.83037e-15 -16.3123 24.4547)
(3.30831e-15 -15.1827 22.0246)
(4.62967e-16 -13.911 19.7493)
(8.9404e-16 -12.6832 17.7968)
(9.17504e-17 -11.4916 16.01)
(-5.85763e-16 -10.3239 14.3924)
(-4.67366e-16 -9.17831 12.8814)
(-1.62593e-15 -7.96304 11.3066)
(-2.2957e-15 -6.55062 9.46968)
(-3.30879e-15 -4.62894 6.74156)
(-4.33385e-15 -1.0781 2.44604)
(1.23422e-16 0.707209 -3.67188)
(1.56926e-16 0.758498 -5.80444)
(1.11717e-16 0.746818 -4.17957)
(1.58817e-16 1.22158 -4.11787)
(1.59835e-16 1.67171 -3.91082)
(1.63603e-16 2.34694 -5.37824)
(1.0526e-16 2.02125 -3.74016)
(1.36624e-16 2.44295 -3.67409)
(1.04872e-16 2.71248 -3.51157)
(4.004e-16 3.69147 -4.60234)
(3.86117e-16 3.02002 -3.21065)
(4.00281e-16 3.29837 -3.0192)
(4.65897e-16 4.68061 -3.84578)
(3.39253e-16 3.61929 -2.6541)
(3.48885e-16 3.96926 -2.60944)
(3.45696e-16 4.06625 -2.52332)
(3.86899e-16 5.30984 -3.13653)
(3.31629e-16 4.14487 -2.19181)
(3.23903e-16 4.30073 -2.08942)
(3.89837e-16 5.82741 -2.49783)
(3.07489e-16 4.3828 -1.74043)
(3.02576e-16 4.6772 -1.71356)
(3.02582e-16 4.69582 -1.68269)
(3.85995e-16 5.96961 -1.92991)
(3.09029e-16 4.46532 -1.38098)
(3.0927e-16 4.79984 -1.35371)
(2.17708e-16 4.81481 -1.33994)
(5.20481e-16 5.9313 -1.43562)
(4.42531e-16 4.46933 -1.06136)
(3.77526e-16 4.52843 -1.04793)
(4.62636e-16 5.86652 -0.957693)
(3.70572e-16 4.28067 -0.733147)
(3.56906e-16 4.46273 -0.717425)
(3.24653e-16 4.45977 -0.738642)
(4.17134e-16 5.38791 -0.542508)
(3.27964e-16 3.98278 -0.455955)
(3.06831e-16 4.00193 -0.488728)
(3.91224e-16 5.02868 -0.159641)
(3.03352e-16 3.61878 -0.193113)
(2.88146e-16 3.73098 -0.187789)
(3.02422e-16 3.72749 -0.233645)
(4.02853e-16 4.39715 0.166899)
(3.00309e-16 3.14276 0.0221648)
(2.93744e-16 3.27864 0.0254938)
(2.76401e-16 3.28725 -0.0249375)
(3.88548e-16 3.79269 0.428798)
(2.26946e-16 2.7267 0.247458)
(2.08456e-16 2.72789 0.17867)
(2.59665e-16 3.35068 0.729329)
(2.44325e-16 2.41511 0.522855)
(2.42981e-16 2.45002 0.526412)
(2.31414e-16 2.42808 0.457809)
(2.99097e-16 2.77674 1.07509)
(2.39717e-16 1.95212 0.727637)
(2.10558e-16 1.99149 0.723641)
(3.11941e-16 1.9724 0.658438)
(4.34647e-16 2.09958 1.19909)
(5.80802e-16 1.36967 0.689395)
(3.69982e-16 1.31079 0.63075)
(4.44209e-17 1.4118 0.70803)
(2.71367e-16 0.628281 0.0817778)
(2.95237e-16 0.57045 0.0542989)
(2.5834e-16 0.658178 0.082516)
(1.52826e-15 1.16418 -1.32416)
(-4.15759e-16 -0.542032 -0.055213)
(-8.45177e-16 -0.0381606 0.245121)
(-1.54124e-15 -0.207012 1.94385)
(-1.25658e-15 -1.496 3.66562)
(-1.1371e-15 -1.48898 3.62295)
(-1.17169e-15 -1.50019 3.8052)
(-1.48667e-15 -2.96643 6.80408)
(-1.0818e-15 -3.43188 6.36639)
(-1.14567e-15 -3.70449 6.49419)
(-1.18821e-15 -3.87464 6.67912)
(-1.30602e-15 -6.56226 10.3564)
(-6.83907e-16 -5.96748 8.40638)
(-8.58493e-16 -6.27672 8.89879)
(-8.75632e-16 -9.69133 12.9925)
(-5.83293e-16 -8.67925 10.0381)
(-7.33795e-16 -9.0617 10.7703)
(-1.32166e-15 -9.92733 12.5226)
(-1.14937e-15 -9.79218 12.4336)
(-1.09324e-15 -9.95955 12.7158)
(2.42396e-16 -12.0223 15.5037)
(-5.13262e-16 -10.6235 13.709)
(-3.23733e-16 -10.9917 14.3892)
(-2.47462e-16 -10.9781 14.5363)
(-1.5409e-16 -11.053 14.66)
(-6.09778e-17 -11.1462 14.8062)
(5.6534e-17 -11.2256 14.977)
(2.67668e-16 -11.3151 15.2906)
(5.25958e-16 -11.4366 15.6766)
(1.41036e-15 -12.2683 17.0815)
(8.14984e-16 -11.7348 16.0596)
(9.36768e-16 -11.8782 16.2866)
(9.89275e-16 -11.8598 16.4122)
(1.08357e-15 -12.0242 16.7825)
(1.13387e-15 -11.9993 16.8182)
(1.21142e-15 -12.0814 16.9619)
(1.28553e-15 -12.1379 17.0855)
(1.40056e-15 -12.1972 17.2341)
(2.52507e-15 -12.6325 18.2889)
(2.01483e-15 -12.2002 17.5429)
(2.14085e-15 -12.3021 17.715)
(2.20861e-15 -12.3338 17.7957)
(2.29165e-15 -12.3744 17.921)
(2.3701e-15 -12.417 18.1141)
(2.44707e-15 -12.4898 18.3311)
(2.53104e-15 -12.4925 18.3918)
(2.6229e-15 -12.5616 18.5029)
(2.7318e-15 -12.6109 18.5959)
(4.00759e-15 -12.3448 18.7652)
(3.06626e-15 -12.2203 18.4932)
(3.19194e-15 -12.2517 18.5837)
(3.26423e-15 -12.2802 18.6335)
(3.35748e-15 -12.3127 18.7027)
(3.45526e-15 -12.3001 18.7924)
(3.62113e-15 -12.354 19.0233)
(3.74883e-15 -12.3803 19.0869)
(3.87818e-15 -12.417 19.0644)
(4.17618e-15 -11.3259 17.9393)
(3.99595e-15 -11.5491 18.2612)
(4.14279e-15 -11.5053 18.3586)
(4.19715e-15 -11.5384 18.4847)
(4.33525e-15 -11.4789 18.3921)
(4.46435e-15 -11.4735 18.3576)
(4.61231e-15 -11.447 18.3042)
(4.77684e-15 -11.4324 18.2805)
(5.13902e-15 -11.5052 18.4439)
(6.38763e-15 -9.27778 15.5553)
(5.41017e-15 -10.144 17.0116)
(5.57885e-15 -9.96919 16.721)
(5.7694e-15 -9.9326 16.6163)
(6.21643e-15 -9.88848 16.6264)
(6.24342e-15 -9.78053 16.3974)
(6.17344e-15 -9.67556 16.0631)
(6.14706e-15 -9.63112 15.7048)
(6.09226e-15 -9.50923 15.2526)
(5.65068e-15 -6.63732 11.0633)
(6.25992e-15 -7.89184 13.7947)
(6.01634e-15 -7.53412 13.0283)
(5.85199e-15 -7.47182 12.5967)
(5.65401e-15 -7.32072 12.0015)
(5.51019e-15 -7.24383 11.355)
(5.8762e-15 -6.94965 10.5241)
(5.35029e-15 -6.89742 9.95391)
(4.99822e-15 -6.70454 9.22747)
(4.53495e-15 -6.41665 8.42812)
(1.6089e-15 -3.23094 2.76963)
(3.77394e-15 -4.91438 6.53115)
(3.07582e-15 -4.35841 5.23021)
(2.75618e-15 -4.36869 4.84278)
(2.29913e-15 -4.12237 4.16287)
(1.74709e-15 -4.06761 3.40154)
(6.82743e-16 -3.90233 2.13765)
(-3.94124e-16 -3.52164 0.885713)
(-2.83221e-16 -3.43887 0.77877)
(-1.19086e-15 -2.10785 -1.60259)
(-5.89088e-16 -2.75583 0.621007)
(-7.95987e-16 -2.50926 -0.0314426)
(-1.10901e-15 -1.33227 -1.95277)
(-2.21482e-15 -2.60946 -1.62772)
(-2.08859e-15 -1.59468 -1.35222)
(-2.0827e-15 -1.31541 -0.833479)
(-2.74362e-15 -1.34749 -1.35478)
(-3.03171e-15 -0.771435 -0.658346)
(1.37359e-15 -0.778673 -1.29665)
(8.2755e-15 -0.533125 -0.844007)
(9.38965e-17 -0.207715 -0.488598)
(-3.39355e-16 0.0716624 -1.25762)
(-4.83166e-16 0.298539 -1.32284)
(-2.58383e-16 0.317138 -0.675711)
(-5.06803e-16 0.846215 -1.09186)
(-3.37584e-16 0.743515 -0.660728)
(-6.03767e-16 1.09045 -0.907148)
(-9.29032e-16 1.50676 -1.05309)
(-6.80414e-16 1.14761 -0.593017)
(-1.11454e-15 1.96693 -0.909565)
(-7.93842e-16 1.57951 -0.57465)
(-9.95783e-16 1.99059 -0.771381)
(-1.0607e-15 2.47161 -0.857613)
(-7.15404e-16 1.87909 -0.499747)
(-8.49136e-16 2.52904 -0.651569)
(-1.03413e-15 3.08587 -0.714198)
(-7.2306e-16 2.17743 -0.409074)
(-9.28854e-16 3.3882 -0.60358)
(-7.0146e-16 2.59006 -0.385246)
(-8.95327e-16 3.08264 -0.516368)
(-9.02027e-16 3.67717 -0.536607)
(-6.18287e-16 2.58541 -0.310919)
(-8.15537e-16 4.00347 -0.446386)
(-6.11213e-16 2.99926 -0.282134)
(-6.93847e-16 3.54444 -0.389751)
(-8.89481e-16 4.05964 -0.389221)
(-6.4482e-16 2.97622 -0.222994)
(-7.55168e-16 3.81889 -0.289483)
(-9.24876e-16 4.41222 -0.282668)
(-6.36472e-16 3.04288 -0.157724)
(-8.65258e-16 4.55793 -0.237495)
(-6.37381e-16 3.409 -0.146451)
(-6.90848e-16 3.96419 -0.218144)
(-6.44541e-16 4.55575 -0.194544)
(-6.99209e-16 3.18276 -0.111002)
(-8.46304e-16 4.7903 -0.16292)
(-6.23266e-16 3.55801 -0.0994064)
(-6.79501e-16 4.13865 -0.163767)
(-1.01505e-15 4.63442 -0.139273)
(-7.42144e-16 3.38682 -0.0742832)
(-8.11978e-16 4.28198 -0.10429)
(-9.31756e-16 4.87553 -0.0771958)
(-6.54651e-16 3.35726 -0.0384712)
(-8.89559e-16 4.95547 -0.0708089)
(-6.24284e-16 3.69568 -0.0388892)
(-8.15349e-16 4.26713 -0.0854795)
(-1.23844e-15 4.84935 -0.0486598)
(-6.09725e-16 3.39336 -0.0257141)
(-7.95952e-16 5.05275 -0.0451011)
(-6.00085e-16 3.75198 -0.0241212)
(-7.13286e-16 4.34082 -0.0715497)
(-8.64073e-16 4.82862 -0.0392499)
(-6.2153e-16 3.53178 -0.0149127)
(-7.27886e-16 4.44333 -0.0323289)
(-7.41763e-16 5.04232 0.000406864)
(-5.00708e-16 3.47247 0.00639157)
(-8.33327e-16 5.10755 -0.0117817)
(-5.4285e-16 3.80362 -0.000384894)
(-6.77048e-16 4.38609 -0.0409115)
(-8.40067e-16 4.97405 -0.00569092)
(-5.65201e-16 3.48543 -0.000161936)
(-7.92522e-16 5.17838 -0.0176146)
(-5.49278e-16 3.84536 -0.00629238)
(-6.01441e-16 4.44501 -0.0553296)
(-8.3305e-16 4.94769 -0.0331618)
(-5.45304e-16 3.62668 -0.0123753)
(-7.00965e-16 4.55321 -0.0367011)
(-8.22281e-16 5.18646 -0.0225147)
(-5.86513e-16 3.57361 -0.00905624)
(-8.9797e-16 5.28988 -0.0515499)
(-5.16707e-16 3.88628 -0.0284695)
(-7.39351e-16 4.6942 -0.100047)
(-9.08812e-16 -0.802083 0.40706)
(-9.07353e-16 -0.748889 0.387372)
(-9.0639e-16 -0.69507 0.356628)
(-9.05284e-16 -0.631706 0.325621)
(-9.04207e-16 -0.524871 0.288631)
(-9.027e-16 -0.320565 0.190273)
(-8.98977e-16 -0.596395 -0.071535)
(-8.97554e-16 -0.579006 -0.146462)
(-8.95908e-16 -0.220629 -0.419253)
(-8.96462e-16 -0.281904 -0.4396)
(-8.97955e-16 -0.354069 -0.334418)
(-8.98537e-16 -0.625219 -0.380012)
(-8.98527e-16 -0.38749 -0.190936)
(-8.98534e-16 -1.27203 -0.0996671)
(-8.98505e-16 -1.41625 -0.249137)
(-8.98137e-16 -0.721283 -0.283582)
(-8.97877e-16 -0.0740214 -0.0934219)
(-8.97708e-16 -0.433228 0.166285)
(-8.97668e-16 -0.57455 -0.0435923)
(-8.97861e-16 -0.361063 -0.156116)
(-8.97868e-16 -0.955341 0.109317)
(-8.98084e-16 -0.524861 -0.21537)
(-8.98239e-16 -0.26506 -0.255128)
(-8.98347e-16 -0.109718 -0.298505)
(-8.98335e-16 -0.266708 -0.189564)
(-8.98366e-16 0.115428 -0.259853)
(-8.98347e-16 0.377943 -0.259152)
(-8.98564e-16 0.437632 -0.241974)
(-8.97757e-16 0.491893 -0.186952)
(-8.99139e-16 0.586423 -0.166866)
(-8.84878e-16 0.56983 -0.00218251)
(-7.91021e-16 -1.42282 -0.00812151)
(-7.72394e-16 -5.30743 -0.207237)
(-7.66153e-16 -5.15137 -0.179429)
(-7.61354e-16 -4.54791 -0.213018)
(-7.58203e-16 -3.69224 -0.229082)
(-7.56376e-16 -2.86609 -0.222672)
(-7.55359e-16 -1.33068 -0.198457)
(-7.55101e-16 0.79002 0.201993)
(-7.5511e-16 -0.18177 0.393817)
(-7.55087e-16 -0.505763 0.435154)
(-7.55045e-16 -0.670612 0.397029)
(-7.5501e-16 -0.696412 0.324497)
(-7.55084e-16 -0.671605 0.261012)
(-7.55392e-16 -0.633669 0.180013)
(-7.56093e-16 -1.07936 0.178613)
(-7.55758e-16 -0.539508 -0.100582)
(-7.55408e-16 1.02423 -0.0618711)
(-7.51235e-16 2.1216 0.300019)
(-7.44661e-16 2.6896 0.624187)
(-7.39574e-16 2.80279 0.720632)
(-7.35758e-16 2.79496 0.644774)
(-7.32078e-16 2.81805 0.460007)
(-7.26665e-16 2.23689 0.303708)
(-7.12415e-16 -0.743449 -0.0128226)
(-6.45038e-16 -5.43358 0.368471)
(-3.54285e-16 -4.98517 -0.115758)
(5.34851e-16 0.190576 0.247613)
(7.17735e-16 1.0381 0.215807)
(7.38759e-16 0.783943 0.257485)
(7.44531e-16 0.627316 0.320388)
(7.4693e-16 0.434813 0.376462)
(7.4757e-16 0.275381 0.451372)
(7.47249e-16 -0.0623226 0.435105)
(7.46471e-16 -0.246352 0.459371)
(7.4367e-16 -0.416978 0.502833)
(7.35362e-16 -0.60354 0.555011)
(7.13867e-16 -0.806842 0.603685)
(6.65656e-16 -0.992519 0.633398)
(5.77036e-16 -1.11799 0.626466)
(4.50991e-16 -1.13979 0.573599)
(3.25655e-16 -1.03728 0.473293)
(2.59348e-16 -0.840812 0.346996)
(2.58417e-16 -0.633852 0.2322)
(2.60162e-16 -0.392197 0.124563)
(2.45051e-16 0.241888 0.135889)
(2.78089e-16 0.771333 -0.00731145)
(2.72216e-16 1.19766 -0.0714035)
(2.61997e-18 2.9389 -0.242173)
(-9.08754e-16 -0.80193 0.39307)
(-9.07283e-16 -0.757835 0.373013)
(-9.06321e-16 -0.716395 0.346035)
(-9.05226e-16 -0.667266 0.309115)
(-9.04139e-16 -0.583146 0.262621)
(-9.0237e-16 -0.457828 0.199306)
(-8.99077e-16 -0.549309 -0.00326324)
(-8.97123e-16 -0.495554 -0.209606)
(-8.95289e-16 -0.245569 -0.401699)
(-8.96011e-16 -0.218484 -0.4009)
(-8.97751e-16 -0.33789 -0.250066)
(-8.98516e-16 -0.58785 -0.321593)
(-8.9854e-16 -0.371509 -0.160281)
(-8.98534e-16 -1.22274 -0.10106)
(-8.98508e-16 -1.39383 -0.256886)
(-8.98154e-16 -0.689012 -0.289184)
(-8.97887e-16 0.183384 -0.085824)
(-8.97707e-16 -0.296326 0.162658)
(-8.97667e-16 -0.468734 -0.0354073)
(-8.97855e-16 -0.240217 -0.156468)
(-8.97866e-16 -0.882117 0.0741903)
(-8.98071e-16 -0.460825 -0.229254)
(-8.98219e-16 -0.127212 -0.239657)
(-8.98327e-16 0.0843358 -0.30991)
(-8.98334e-16 -0.139786 -0.25738)
(-8.98352e-16 0.419021 -0.394198)
(-8.98307e-16 0.368363 -0.242516)
(-8.98524e-16 0.790489 -0.213651)
(-8.97576e-16 0.47138 -0.155074)
(-8.98785e-16 0.558234 -0.129939)
(-8.81937e-16 0.53774 0.0269566)
(-7.91473e-16 -1.38597 0.00387107)
(-7.72401e-16 -5.28445 -0.200619)
(-7.66168e-16 -5.1497 -0.172788)
(-7.6138e-16 -4.53784 -0.205155)
(-7.58224e-16 -3.67723 -0.221479)
(-7.56391e-16 -2.84364 -0.215477)
(-7.55372e-16 -1.27247 -0.21878)
(-7.551e-16 0.666414 0.195234)
(-7.55106e-16 0.0995696 0.502745)
(-7.55082e-16 -0.358429 0.454923)
(-7.5504e-16 -0.550342 0.387628)
(-7.5501e-16 -0.603117 0.273293)
(-7.55095e-16 -0.623817 0.148718)
(-7.5544e-16 -0.660616 0.0752608)
(-7.56097e-16 -1.03563 0.151556)
(-7.55534e-16 -0.536405 -0.186658)
(-7.55991e-16 0.931425 -0.178808)
(-7.53235e-16 2.00683 0.176489)
(-7.47215e-16 2.62945 0.561247)
(-7.42098e-16 2.80405 0.703782)
(-7.38204e-16 2.83909 0.653816)
(-7.34264e-16 2.86974 0.504466)
(-7.27625e-16 2.25469 0.336142)
(-7.12606e-16 -0.43673 0.0917896)
(-6.44382e-16 -5.38339 0.347956)
(-3.52488e-16 -4.99736 -0.141285)
(5.04492e-16 0.15953 0.220648)
(7.14357e-16 1.03187 0.228972)
(7.36111e-16 0.769715 0.27012)
(7.43704e-16 0.611189 0.320227)
(7.46644e-16 0.418641 0.364129)
(7.47485e-16 0.253333 0.4424)
(7.47097e-16 0.0310155 0.468267)
(7.46176e-16 -0.212974 0.463705)
(7.4296e-16 -0.41175 0.497711)
(7.33702e-16 -0.620623 0.544825)
(7.10303e-16 -0.83531 0.589748)
(6.59198e-16 -1.02466 0.615356)
(5.67764e-16 -1.14888 0.605046)
(4.41323e-16 -1.16947 0.550144)
(3.19665e-16 -1.07195 0.451093)
(2.58261e-16 -0.893818 0.334229)
(2.58583e-16 -0.713887 0.253091)
(2.58553e-16 -0.496553 0.198612)
(2.44003e-16 0.298859 0.131709)
(2.78147e-16 0.795334 0.0096899)
(2.76107e-16 1.21947 -0.0609839)
(2.32713e-18 2.96062 -0.158101)
(-9.08686e-16 -0.797548 0.38233)
(-9.07199e-16 -0.745029 0.357932)
(-9.0624e-16 -0.695921 0.328877)
(-9.05155e-16 -0.637596 0.287947)
(-9.04062e-16 -0.532885 0.255307)
(-9.02029e-16 -0.392615 0.245972)
(-8.99136e-16 -0.508002 0.0106369)
(-8.96731e-16 -0.462939 -0.222528)
(-8.94766e-16 -0.235512 -0.391483)
(-8.95494e-16 -0.296501 -0.412786)
(-8.97454e-16 -0.380616 -0.274614)
(-8.98468e-16 -0.618813 -0.3126)
(-8.98556e-16 -0.443402 -0.141826)
(-8.98535e-16 -1.22583 -0.0998329)
(-8.98511e-16 -1.3969 -0.253371)
(-8.98173e-16 -0.740988 -0.264891)
(-8.97897e-16 -0.0264352 -0.0814944)
(-8.97707e-16 -0.363535 0.143093)
(-8.97666e-16 -0.489607 -0.0382507)
(-8.97845e-16 -0.318171 -0.162226)
(-8.97864e-16 -0.902985 0.058372)
(-8.98057e-16 -0.477718 -0.221077)
(-8.98201e-16 -0.182124 -0.215745)
(-8.98319e-16 -0.0256038 -0.297932)
(-8.98347e-16 -0.172329 -0.277329)
(-8.98362e-16 0.206412 -0.372779)
(-8.98253e-16 0.328379 -0.250323)
(-8.98375e-16 0.572821 -0.2018)
(-8.97293e-16 0.466083 -0.116271)
(-8.98403e-16 0.544218 -0.109814)
(-8.79866e-16 0.530435 0.0297633)
(-7.9198e-16 -1.36313 0.00636581)
(-7.72414e-16 -5.26507 -0.200678)
(-7.66186e-16 -5.15415 -0.173711)
(-7.61413e-16 -4.54023 -0.202245)
(-7.58251e-16 -3.6875 -0.218206)
(-7.56409e-16 -2.86447 -0.211736)
(-7.55385e-16 -1.33758 -0.206558)
(-7.55102e-16 0.580136 0.193233)
(-7.55103e-16 -0.0603576 0.476742)
(-7.55077e-16 -0.433063 0.437295)
(-7.55035e-16 -0.594898 0.357197)
(-7.55012e-16 -0.63192 0.230027)
(-7.55112e-16 -0.632866 0.114316)
(-7.55462e-16 -0.693741 0.0897667)
(-7.55933e-16 -1.02601 0.105913)
(-7.55377e-16 -0.480141 -0.235921)
(-7.55736e-16 0.909071 -0.226359)
(-7.53827e-16 1.94644 0.088418)
(-7.48595e-16 2.57703 0.485167)
(-7.43749e-16 2.78698 0.65875)
(-7.40003e-16 2.84412 0.639122)
(-7.35945e-16 2.88909 0.536973)
(-7.2826e-16 2.30422 0.327336)
(-7.12719e-16 -0.532365 0.0852284)
(-6.43632e-16 -5.36877 0.326715)
(-3.51616e-16 -4.97594 -0.155419)
(4.78442e-16 0.0804893 0.17503)
(7.11889e-16 1.03124 0.234202)
(7.34119e-16 0.764306 0.281501)
(7.42856e-16 0.60449 0.323114)
(7.4635e-16 0.412428 0.359055)
(7.47386e-16 0.243462 0.429057)
(7.46929e-16 -0.0176325 0.458216)
(7.45815e-16 -0.240828 0.460993)
(7.42077e-16 -0.433317 0.49472)
(7.31604e-16 -0.634565 0.541262)
(7.05796e-16 -0.840276 0.585147)
(6.51091e-16 -1.01796 0.608536)
(5.56278e-16 -1.12785 0.59534)
(4.29569e-16 -1.1324 0.537092)
(3.12564e-16 -1.02048 0.436067)
(2.57065e-16 -0.835311 0.322287)
(2.58741e-16 -0.658141 0.251875)
(2.56987e-16 -0.428535 0.214108)
(2.43121e-16 0.311325 0.12627)
(2.78021e-16 0.806489 0.0198724)
(2.78224e-16 1.23186 -0.0530079)
(4.56689e-18 2.95911 -0.1128)
(-9.08613e-16 -0.795002 0.377879)
(-9.07112e-16 -0.7398 0.348865)
(-9.06156e-16 -0.688342 0.317629)
(-9.0508e-16 -0.627406 0.273643)
(-9.04025e-16 -0.517947 0.24601)
(-9.01948e-16 -0.348905 0.251945)
(-8.99589e-16 -0.492407 0.0696186)
(-8.96345e-16 -0.407672 -0.225373)
(-8.94209e-16 -0.200964 -0.368146)
(-8.9498e-16 -0.319058 -0.416908)
(-8.97138e-16 -0.396977 -0.305019)
(-8.98395e-16 -0.622859 -0.318492)
(-8.98569e-16 -0.465379 -0.144081)
(-8.98536e-16 -1.2117 -0.0975606)
(-8.98514e-16 -1.37489 -0.248014)
(-8.9819e-16 -0.75677 -0.242587)
(-8.97907e-16 -0.0804715 -0.0836246)
(-8.97708e-16 -0.370048 0.126008)
(-8.97665e-16 -0.473768 -0.044683)
(-8.97839e-16 -0.321335 -0.165195)
(-8.97865e-16 -0.899199 0.0494855)
(-8.98049e-16 -0.46608 -0.211756)
(-8.98195e-16 -0.169324 -0.195368)
(-8.98327e-16 -0.0340145 -0.273129)
(-8.98369e-16 -0.158293 -0.275118)
(-8.98378e-16 0.178615 -0.352684)
(-8.98167e-16 0.348562 -0.250731)
(-8.9815e-16 0.584485 -0.196622)
(-8.96939e-16 0.460957 -0.0849379)
(-8.97971e-16 0.530498 -0.090195)
(-8.77816e-16 0.519092 0.0359952)
(-7.92424e-16 -1.3425 0.00941543)
(-7.72433e-16 -5.24618 -0.201)
(-7.66204e-16 -5.1517 -0.175145)
(-7.61447e-16 -4.53285 -0.200237)
(-7.58278e-16 -3.68391 -0.215657)
(-7.56428e-16 -2.86675 -0.207757)
(-7.55396e-16 -1.37171 -0.197812)
(-7.55102e-16 0.517325 0.186176)
(-7.55101e-16 -0.0860613 0.443945)
(-7.55072e-16 -0.423898 0.404813)
(-7.55032e-16 -0.572846 0.322582)
(-7.55016e-16 -0.606183 0.197786)
(-7.55129e-16 -0.607729 0.102323)
(-7.55428e-16 -0.68881 0.0923462)
(-7.55776e-16 -0.992013 0.0474381)
(-7.55306e-16 -0.439552 -0.296389)
(-7.55624e-16 0.865792 -0.281396)
(-7.54471e-16 1.87227 -0.00500662)
(-7.50065e-16 2.52109 0.405961)
(-7.45549e-16 2.7688 0.616196)
(-7.41879e-16 2.85583 0.614776)
(-7.37334e-16 2.94521 0.518785)
(-7.2893e-16 2.34266 0.339363)
(-7.12806e-16 -0.578669 0.063774)
(-6.42968e-16 -5.33884 0.30038)
(-3.51383e-16 -4.95589 -0.172662)
(4.57531e-16 0.017858 0.158278)
(7.08665e-16 1.02771 0.23612)
(7.31768e-16 0.757721 0.290729)
(7.41863e-16 0.596395 0.326274)
(7.45967e-16 0.403366 0.354902)
(7.47249e-16 0.232845 0.417856)
(7.46738e-16 -0.0217845 0.446109)
(7.45399e-16 -0.245208 0.458755)
(7.4107e-16 -0.439308 0.494059)
(7.29237e-16 -0.639843 0.540726)
(7.008e-16 -0.841891 0.583539)
(6.4231e-16 -1.01338 0.604387)
(5.44157e-16 -1.11518 0.587732)
(4.17553e-16 -1.11127 0.525538)
(3.05605e-16 -0.993827 0.422165)
(2.56024e-16 -0.810675 0.310727)
(2.58914e-16 -0.642121 0.244033)
(2.55831e-16 -0.400857 0.201826)
(2.42169e-16 0.335459 0.124612)
(2.77809e-16 0.82121 0.0285502)
(2.80489e-16 1.24836 -0.0476579)
(7.37837e-18 2.95886 -0.154472)
(-9.08537e-16 -0.792388 0.374496)
(-9.07021e-16 -0.735937 0.341001)
(-9.06071e-16 -0.68448 0.307999)
(-9.05007e-16 -0.623998 0.261736)
(-9.0404e-16 -0.517914 0.229288)
(-9.02323e-16 -0.352217 0.246604)
(-9.00573e-16 -0.461728 0.17763)
(-8.95895e-16 -0.347375 -0.240078)
(-8.9356e-16 -0.178047 -0.347969)
(-8.94463e-16 -0.325226 -0.414354)
(-8.96819e-16 -0.412922 -0.324431)
(-8.98304e-16 -0.629287 -0.322978)
(-8.98576e-16 -0.489028 -0.159346)
(-8.98538e-16 -1.19894 -0.0967732)
(-8.98516e-16 -1.35874 -0.241509)
(-8.98206e-16 -0.768887 -0.223037)
(-8.97916e-16 -0.114875 -0.0888008)
(-8.9771e-16 -0.365495 0.108917)
(-8.97665e-16 -0.453748 -0.0516302)
(-8.97837e-16 -0.31854 -0.159151)
(-8.97868e-16 -0.890247 0.0433624)
(-8.98046e-16 -0.454523 -0.202973)
(-8.98199e-16 -0.153149 -0.179415)
(-8.98341e-16 -0.0293055 -0.244387)
(-8.98387e-16 -0.137674 -0.261505)
(-8.98379e-16 0.151555 -0.326983)
(-8.98046e-16 0.330424 -0.248183)
(-8.97848e-16 0.54344 -0.184426)
(-8.96523e-16 0.446712 -0.056856)
(-8.97526e-16 0.51546 -0.0743686)
(-8.76089e-16 0.510456 0.0461802)
(-7.92825e-16 -1.32391 0.0118253)
(-7.72456e-16 -5.22797 -0.200457)
(-7.66222e-16 -5.15077 -0.175884)
(-7.61482e-16 -4.52788 -0.198551)
(-7.58305e-16 -3.68166 -0.213758)
(-7.56446e-16 -2.86905 -0.204997)
(-7.55408e-16 -1.39988 -0.19455)
(-7.55103e-16 0.478686 0.18503)
(-7.55099e-16 -0.0980473 0.420203)
(-7.55069e-16 -0.409616 0.372637)
(-7.5503e-16 -0.54799 0.291887)
(-7.55021e-16 -0.58296 0.17278)
(-7.55138e-16 -0.589828 0.0903861)
(-7.55387e-16 -0.686321 0.0770576)
(-7.55654e-16 -0.95589 -0.0193171)
(-7.55254e-16 -0.395118 -0.355649)
(-7.55439e-16 0.833464 -0.331175)
(-7.54862e-16 1.80385 -0.0987361)
(-7.51385e-16 2.45842 0.315947)
(-7.47335e-16 2.74486 0.566965)
(-7.43791e-16 2.86338 0.587792)
(-7.38703e-16 2.95196 0.501507)
(-7.29717e-16 2.3745 0.362262)
(-7.12815e-16 -0.567347 0.0428417)
(-6.42423e-16 -5.30696 0.270791)
(-3.51579e-16 -4.94088 -0.193907)
(4.44786e-16 -0.068962 0.163636)
(7.05155e-16 1.02728 0.235624)
(7.29231e-16 0.752417 0.298357)
(7.4069e-16 0.5898 0.329848)
(7.45474e-16 0.395338 0.351724)
(7.47062e-16 0.221893 0.40851)
(7.46507e-16 -0.0250561 0.436035)
(7.44899e-16 -0.249481 0.457048)
(7.39885e-16 -0.446665 0.494324)
(7.26515e-16 -0.647981 0.541129)
(6.95246e-16 -0.847303 0.582441)
(6.32894e-16 -1.01331 0.600194)
(5.31645e-16 -1.10767 0.57948)
(4.05671e-16 -1.09643 0.513005)
(2.99086e-16 -0.97556 0.407523)
(2.55192e-16 -0.797028 0.298383)
(2.59113e-16 -0.638842 0.232458)
(2.54936e-16 -0.392822 0.184277)
(2.4124e-16 0.351615 0.124405)
(2.77435e-16 0.835123 0.035601)
(2.8288e-16 1.26406 -0.0415208)
(9.09551e-18 2.95956 -0.0791332)
(-9.08457e-16 -0.788963 0.371357)
(-9.06925e-16 -0.729962 0.333459)
(-9.05986e-16 -0.677494 0.298866)
(-9.0495e-16 -0.615417 0.251164)
(-9.04039e-16 -0.510978 0.207933)
(-9.02986e-16 -0.363738 0.228865)
(-9.01162e-16 -0.385887 0.163749)
(-8.95382e-16 -0.270475 -0.273344)
(-8.92767e-16 -0.144273 -0.340746)
(-8.93918e-16 -0.325549 -0.408971)
(-8.96497e-16 -0.42985 -0.337494)
(-8.98199e-16 -0.638972 -0.32571)
(-8.98576e-16 -0.516385 -0.171814)
(-8.9854e-16 -1.19056 -0.0964123)
(-8.98519e-16 -1.34856 -0.234072)
(-8.9822e-16 -0.783195 -0.205254)
(-8.97925e-16 -0.149403 -0.0928364)
(-8.97713e-16 -0.364102 0.0937313)
(-8.97665e-16 -0.437552 -0.0577717)
(-8.97837e-16 -0.320731 -0.150282)
(-8.97872e-16 -0.883052 0.0391976)
(-8.98046e-16 -0.445983 -0.195677)
(-8.98206e-16 -0.13863 -0.167998)
(-8.9835e-16 -0.0227874 -0.220392)
(-8.98393e-16 -0.117709 -0.244571)
(-8.98363e-16 0.148518 -0.306693)
(-8.97879e-16 0.338924 -0.24479)
(-8.97474e-16 0.532803 -0.172471)
(-8.96055e-16 0.44376 -0.0356402)
(-8.97105e-16 0.507008 -0.0633781)
(-8.7509e-16 0.505843 0.057774)
(-7.93192e-16 -1.30202 0.0136666)
(-7.72483e-16 -5.20883 -0.199322)
(-7.6624e-16 -5.15113 -0.176103)
(-7.61517e-16 -4.5252 -0.197041)
(-7.58333e-16 -3.68165 -0.212259)
(-7.56465e-16 -2.87341 -0.203146)
(-7.55419e-16 -1.42579 -0.193755)