/*--------------------------------*- C++ -*----------------------------------*\
| =========                 |                                                 |
| \\      /  F ield         | OpenFOAM: The Open Source CFD Toolbox           |
|  \\    /   O peration     | Version:  4.1                                   |
|   \\  /    A nd           | Web:      www.OpenFOAM.org                      |
|    \\/     M anipulation  |                                                 |
\*---------------------------------------------------------------------------*/
FoamFile
{
    version     2.0;
    format      ascii;
    class       volScalarField;
    location    "21";
    object      p;
}
// * * * * * * * * * * * * * * * * * * * * * * * * * * * * * * * * * * * * * //

dimensions      [0 2 -2 0 0 0 0];

internalField   nonuniform List<scalar> 
6785
(
694.674
640.478
588.611
539.903
494.737
452.428
412.789
375.529
340.211
306.569
275.222
246.796
217.941
182.998
152.504
221.532
199.659
194.972
191.447
186.082
180.565
175.611
171.411
168.12
165.852
164.815
165.438
167.726
169.875
169.827
123.411
117.769
123.708
127.429
130.199
133.518
137.119
140.768
144.398
147.862
150.946
153.739
156.603
158.927
159.512
167.915
167.826
172.22
172.338
172.18
172.232
172.008
171.522
170.852
170.024
169.009
167.829
166.798
166.446
166.68
181.24
182.149
183.889
182.149
180.851
179.78
178.505
177.237
176.092
175.113
174.314
173.668
173.169
173.077
173.2
170.767
171.54
172.648
172.176
172.278
172.503
172.619
172.82
173.118
173.468
173.85
174.232
174.493
174.744
174.67
166.705
167.496
168.954
169.836
170.665
171.286
171.765
172.244
172.685
173.053
173.348
173.568
173.585
173.613
173.174
168.85
169.39
170.842
172.027
172.594
172.861
173.037
173.191
173.289
173.334
173.341
173.323
173.102
173.037
172.493
171.155
171.269
172.333
173.327
173.45
173.408
173.368
173.328
173.263
173.19
173.114
173.051
172.734
172.668
172.112
171.602
171.462
172.162
173.002
172.916
172.812
172.742
172.669
172.589
172.517
172.443
172.397
172.035
171.976
171.41
170.483
170.319
170.848
171.696
171.634
171.626
171.629
171.61
171.581
171.557
171.512
171.501
171.124
171.085
170.51
168.411
168.36
168.885
169.83
169.922
170.103
170.258
170.376
170.476
170.565
170.607
170.673
170.325
170.346
169.805
165.826
165.816
166.425
167.561
167.855
168.287
168.663
169.008
169.332
169.646
169.888
170.149
169.911
170.069
169.687
159.122
159.746
161.078
162.959
164.201
165.734
167.206
168.639
170.001
171.235
172.288
173.066
173.251
173.672
173.099
156.282
153.32
152.037
152.285
152.754
154.334
156.364
158.775
161.288
163.878
166.267
168.441
170.484
172.894
174.491
243.59
243.323
242.972
242.319
241.697
240.801
240.748
240.197
239.647
239.052
239.591
239.419
239.387
239.801
239.578
239.403
239.38
239.612
239.183
239.466
239.574
239.159
239.039
239.44
239.368
238.871
238.838
239.324
239.322
238.513
239.278
239.133
238.411
238.392
239.15
239.097
238.12
239.147
238.993
238.041
237.964
238.944
238.713
237.832
237.921
238.814
238.581
237.415
238.399
238.451
237.518
237.343
238.129
238.043
237.27
237.274
237.902
237.912
237.107
237.611
237.842
237.325
237.187
237.459
237.697
237.374
237.546
237.756
237.561
237.553
237.515
237.67
237.635
237.768
237.537
237.514
237.817
237.214
235.684
235.948
236.181
235.622
234.419
240.735
230.534
230.472
230.024
229.541
229.139
228.92
228.184
226.694
231.12
219.526
219.048
219.24
219.277
218.83
218.68
217.867
216.054
218.029
208.284
207.749
207.216
207.083
207.117
206.759
206.243
205.049
202.355
199.006
190.526
189.517
188.289
186.887
186.103
185.688
183.939
179.79
166.771
163.792
163.414
162.061
159.519
156.897
154.882
153.021
148.799
129.484
128.628
126.54
125.193
122.74
118.83
114.543
109.783
104.056
78.1992
84.0098
80.9652
78.1589
74.5815
70.7152
65.9302
60.3479
54.7907
49.4843
17.873
27.2833
22.9502
20.2664
17.1779
12.5316
6.72072
4.09885
3.81183
-23.5268
-4.30098
-6.88242
-9.71224
-7.7906
-8.12906
-6.7158
-5.30911
-3.96122
-2.73899
-3.24235
-2.0597
-1.37504
-2.355
-2.07119
-1.84618
-0.997442
-0.530849
-1.92908
-1.78743
-1.7898
-0.978541
-0.671847
-2.00562
-0.760689
-0.491486
-2.29527
-2.13698
-2.24838
-1.26289
-0.933877
-2.96779
-2.759
-2.88604
-1.96223
-1.81636
-3.67189
-2.38632
-2.21238
-4.2277
-4.144
-4.46466
-3.82651
-3.76944
-5.68659
-5.62229
-5.9158
-5.43937
-5.59253
-7.05686
-6.4171
-6.45469
-7.40571
-7.02341
-6.83761
-5.90694
-5.29918
-5.18032
-4.05329
-3.15138
-1.54227
-0.328039
0.915853
2.66545
3.69015
5.34413
6.73888
7.64079
9.12266
10.0126
12.4016
12.3638
11.7341
12.4272
12.4985
15.8302
13.5003
8.82574
13.0483
8.1339
2.07635
-1.30404
-3.12086
-0.00251393
0.00457668
0.00530048
0.00864405
0.0121578
0.0160314
0.0203386
0.0252269
0.0307651
0.0368628
0.0434488
0.050752
0.0589701
0.0677227
0.0773483
0.0876776
0.0984502
0.109292
0.119664
0.128659
0.135251
0.1375
0.133047
0.118841
0.090913
0.0445333
-0.0257441
-0.125629
-0.260369
-0.43346
-0.644907
-0.889403
-1.15458
-1.42051
-1.65993
-1.83905
-1.91662
-1.838
-1.52299
-0.848906
0.366065
2.36891
5.44879
9.85108
15.6002
22.3729
29.4418
32.4576
18.9444
-3.18819
-7.00743
-1.47572
-1.87673
-1.8084
-2.48416
-5.10183
-7.01582
-7.19799
-6.1761
-4.64598
-3.63304
-3.22233
-2.84928
-1.89562
-1.72263
-1.429
-0.928525
-0.66712
-0.60082
0.333122
0.904807
0.929747
0.708373
-0.239844
-0.922931
-1.08525
-1.04787
-0.433459
1.38398
-0.00433871
0.0129238
0.0179758
0.0281548
0.0393182
0.0517365
0.0655238
0.0811115
0.0986359
0.117982
0.139164
0.163013
0.189739
0.218698
0.251126
0.286933
0.325541
0.36644
0.409026
0.45199
0.493931
0.531543
0.561085
0.57765
0.574645
0.544331
0.477684
0.365055
0.196842
-0.0346892
-0.334006
-0.700777
-1.1289
-1.60845
-2.12605
-2.6647
-3.19694
-3.66645
-3.95646
-3.84858
-2.98284
-0.839915
3.21866
9.7956
19.1397
30.8091
43.3462
50.5473
36.6588
6.03238
-5.53293
-3.34829
-4.82173
-5.6771
-7.19768
-11.6333
-14.7023
-15.6557
-14.7021
-12.6391
-11.0467
-10.0031
-8.96864
-6.98702
-5.71667
-4.31844
-2.80715
-1.90906
-1.46098
0.318365
1.89621
2.34682
2.02063
0.548377
-0.548198
-1.01935
-0.81664
0.590659
3.27985
0.000323723
0.0268005
0.037824
0.0555721
0.0750333
0.097145
0.121869
0.150044
0.18203
0.218096
0.258877
0.305212
0.356271
0.412559
0.475845
0.547026
0.625765
0.712041
0.805722
0.906362
1.01307
1.12314
1.23333
1.33939
1.43515
1.51309
1.56438
1.57912
1.54689
1.45864
1.30726
1.08928
0.805352
0.458308
0.0551926
-0.389986
-0.844718
-1.23446
-1.40773
-1.09504
0.124075
2.82103
7.64643
15.1324
25.323
37.3666
48.9743
52.7392
35.0588
3.8254
-6.07556
-4.39345
-5.40093
-7.46538
-10.0175
-15.9323
-20.3111
-22.6741
-22.5618
-20.8778
-19.1563
-17.6127
-15.7887
-12.9403
-10.5604
-8.02545
-5.50475
-3.78376
-2.59991
-0.0303456
2.20144
2.813
2.23491
0.637277
-0.475664
-0.870153
-0.214029
1.65859
4.9883
0.00476817
0.0403016
0.0587108
0.0846836
0.112752
0.144505
0.179995
0.220417
0.266584
0.319468
0.380808
0.450838
0.528151
0.615587
0.714587
0.826936
0.953135
1.09417
1.25053
1.42316
1.61188
1.8153
2.0311
2.25609
2.48505
2.71106
2.92563
3.11854
3.27822
3.39342
3.45374
3.45176
3.38411
3.2515
3.06439
2.84844
2.65856
2.60131
2.86329
3.73906
5.64319
9.0818
14.5484
22.3008
31.9842
42.2002
49.8051
47.2058
26.2921
-2.38033
-8.58794
-6.22078
-7.22376
-10.453
-14.3606
-21.3297
-26.8329
-30.6035
-31.1917
-29.6862
-27.7891
-25.8081
-23.2339
-19.5143
-15.9427
-12.1416
-8.57704
-5.79662
-3.68092
-0.318982
2.32884
3.02487
2.25307
0.577226
-0.5934
-1.00546
-0.170458
2.03503
5.84072
0.00837973
0.0528294
0.0801306
0.115601
0.153598
0.196111
0.243377
0.296779
0.357569
0.427199
0.507753
0.599339
0.701756
0.818792
0.952021
1.10371
1.27576
1.46996
1.68764
1.93117
2.20083
2.4965
2.8167
3.15884
3.51807
3.88737
4.25756
4.61684
4.95119
5.24575
5.48589
5.65994
5.76115
5.79084
5.76553
5.72438
5.74255
5.94896
6.54531
7.81983
10.1407
13.9069
19.4257
26.6848
34.9918
42.5307
45.6776
38.2275
17.9594
-6.25693
-9.58498
-8.03615
-10.1091
-14.2574
-19.7307
-27.8147
-34.4615
-39.4532
-40.5292
-39.0355
-36.9474
-34.5807
-31.3061
-26.7085
-21.9047
-16.8197
-12.0806
-8.06197
-4.89096
-0.691689
2.24623
3.00479
2.1112
0.458249
-0.7514
-1.25785
-0.478538
1.92341
6.14369
0.00942647
0.0617717
0.0985157
0.14398
0.192827
0.247317
0.307789
0.37579
0.452948
0.540988
0.641566
0.755417
0.884057
1.03072
1.19775
1.38782
1.60403
1.84884
2.1246
2.43495
2.78037
3.1619
3.57872
4.0285
4.50628
5.00441
5.51231
6.01591
6.49805
6.93977
7.3221
7.62926
7.85174
7.99236
8.07249
8.14092
8.28447
8.64037
9.4073
10.8486
13.2742
16.9798
22.1196
28.4875
35.1783
40.1474
39.83
30.6067
13.7902
-5.88988
-8.06869
-9.10694
-12.8855
-18.3775
-25.5106
-34.7819
-42.8121
-48.9413
-50.3443
-48.7717
-46.5046
-43.8206
-39.9048
-34.4209
-28.3745
-22.0195
-15.953
-10.5963
-6.27725
-1.27571
1.90581
2.74528
1.80406
0.233295
-0.956652
-1.54066
-0.864508
1.59695
6.02532
0.0102342
0.0693379
0.115405
0.170679
0.230552
0.29738
0.371656
0.455057
0.549555
0.657202
0.779549
0.917962
1.07483
1.25306
1.45573
1.68607
1.94774
2.24396
2.57811
2.95474
3.37462
3.83971
4.34976
4.90254
5.49286
6.11226
6.74859
7.38541
8.00238
8.57668
9.08525
9.50873
9.83557
10.0694
10.2348
10.3864
10.6165
11.0629
11.9148
13.409
15.8049
19.3186
23.9957
29.5066
34.8269
37.8373
35.5231
27.0849
14.068
-2.23775
-5.02959
-9.30524
-15.1456
-22.4814
-31.3855
-42.048
-51.6663
-58.8104
-60.4171
-58.7096
-56.2841
-53.3366
-48.837
-42.5
-35.2822
-27.678
-20.1947
-13.4811
-7.90711
-2.12129
1.39573
2.37218
1.46172
-0.00350238
-1.14611
-1.77888
-1.19789
1.19617
5.51596
0.0116401
0.0766877
0.131835
0.196669
0.267518
0.346716
0.435023
0.534231
0.646583
0.774487
0.919883
1.08462
1.27135
1.48322
1.72385
1.99705
2.3068
2.65704
3.05217
3.4973
3.99358
4.54371
5.14794
5.80403
6.50653
7.24619
8.00934
8.77733
9.52693
10.2318
10.8652
11.4048
11.8376
12.1673
12.4209
12.6568
12.9703
13.4987
14.4224
15.9576
18.3261
21.6859
26.0065
30.8781
35.2087
36.9157
33.8579
27.3962
16.921
2.5979
-1.90757
-9.15347
-17.026
-26.3696
-37.2886
-49.6252
-60.8736
-68.8088
-70.4737
-68.5927
-66.0463
-62.8713
-57.8514
-50.763
-42.5327
-33.7231
-24.8299
-16.7413
-9.79862
-3.21142
0.774932
1.94918
1.13161
-0.225931
-1.31046
-1.96203
-1.4619
0.753328
4.7815
0.0146413
0.0852229
0.149264
0.22335
0.304878
0.39618
0.498382
0.613454
0.7439
0.892443
1.06151
1.25347
1.47121
1.71836
1.99891
2.31723
2.67764
3.08473
3.54389
4.06057
4.63627
5.27433
5.97538
6.73709
7.55371
8.41516
9.30633
10.2065
11.0899
11.927
12.688
13.3479
13.8927
14.3263
14.678
15.0094
15.4189
16.0436
17.0582
18.6634
21.0521
24.3362
28.4267
32.8551
36.4856
37.3519
34.2992
29.7601
20.2604
6.91729
0.390092
-9.17862
-18.7889
-30.1495
-43.2011
-57.3852
-70.2205
-78.6433
-80.1907
-78.1504
-75.537
-72.176
-66.737
-59.0732
-50.0237
-40.0972
-29.8616
-20.3647
-11.9683
-4.50903
0.0641883
1.50735
0.82995
-0.40333
-1.42569
-2.09611
-1.68872
0.277913
3.82774
0.0197372
0.0960685
0.169192
0.252416
0.344361
0.447408
0.5631
0.693697
0.842037
1.0112
1.20406
1.42353
1.67291
1.95632
2.27818
2.64336
3.0566
3.52307
4.04919
4.64046
5.29872
6.02791
6.82887
7.69913
8.63251
9.61808
10.6392
11.6733
12.6921
13.6635
14.555
15.3394
16.0019
16.547
17.0065
17.4452
17.9645
18.7023
19.8287
21.5315
23.9779
27.2394
31.1774
35.2738
38.3582
38.6287
35.8425
32.487
22.8682
10.0098
1.63949
-9.6075
-20.6698
-33.9496
-49.0812
-65.1565
-79.4086
-87.9716
-89.2495
-87.1539
-84.5365
-81.0508
-75.3339
-67.3009
-57.6249
-46.7271
-35.2531
-24.3298
-14.4483
-6.01352
-0.74181
1.0442
0.5502
-0.552383
-1.52032
-2.21107
-1.91482
-0.246337
2.68852
0.0265973
0.109363
0.192215
0.284899
0.387393
0.502103
0.631022
0.776785
0.942637
1.13209
1.3485
1.59527
1.87627
2.19617
2.55997
2.97303
3.44059
3.96847
4.56406
5.23255
5.9764
6.79992
7.70407
8.68619
9.7395
10.8522
12.0061
13.1765
14.3332
15.4415
16.4668
17.3802
18.166
18.8296
19.4051
19.9601
20.5986
21.4591
22.7074
24.5188
27.0364
30.2951
34.1118
37.9218
40.5187
40.2808
37.6897
34.6311
24.432
11.9306
2.06713
-10.4543
-22.8508
-37.8385
-54.8505
-72.7562
-88.1014
-96.4455
-97.3845
-95.4151
-92.8637
-89.3276
-83.482
-75.2804
-65.1854
-53.514
-40.94
-28.622
-17.2805
-7.74445
-1.67044
0.54892
0.284382
-0.686087
-1.60707
-2.32743
-2.16231
-0.82696
1.42836
0.034386
0.124401
0.217929
0.320816
0.434464
0.561216
0.703529
0.864445
1.04765
1.25711
1.49669
1.77032
2.08251
2.43859
2.84419
3.30529
3.82777
4.41827
5.08494
5.83251
6.66447
7.58523
8.59575
9.69315
10.87
12.1134
13.4038
14.7145
16.013
17.2625
18.4264
19.4744
20.3902
21.1796
21.8784
22.5564
23.3192
24.3049
25.675
27.5926
30.1788
33.4356
37.1394
40.6759
42.7922
42.0401
39.4115
35.9313
25.1511
13.0567
2.05591
-11.5452
-25.3258
-41.8444
-60.471
-79.9292
-95.9794
-103.835
-104.468
-102.803
-100.395
-96.8793
-91.0342
-82.8394
-72.5483
-60.3374
-46.8391
-33.2157
-20.455
-9.70321
-2.73898
0.0125579
0.0237372
-0.816247
-1.70437
-2.47248
-2.43809
-1.45056
0.117628
0.0421243
0.140018
0.245241
0.359314
0.485064
0.62467
0.78103
0.957577
1.15842
1.38798
1.65062
1.95084
2.29379
2.6855
3.13236
3.64102
4.21817
4.87147
5.6096
6.43701
7.35858
8.37857
9.49798
10.7137
12.0175
13.3956
14.8267
16.2826
17.7282
19.1249
20.4342
21.6244
22.6784
23.6025
24.4327
25.2402
26.131
27.2419
28.7298
30.7471
33.3948
36.6455
40.2378
43.4996
45.1163
43.8019
40.8793
36.5256
25.3849
13.7698
1.89987
-12.6818
-27.955
-45.9226
-65.8675
-86.4016
-102.761
-110.055
-110.532
-109.291
-107.09
-103.631
-97.8832
-89.8302
-79.5553
-67.0581
-52.8482
-38.062
-23.9319
-11.8758
-3.94835
-0.57583
-0.252088
-0.962122
-1.82292
-2.64795
-2.74922
-2.10954
-1.23314
0.049035
0.155026
0.272791
0.399021
0.537935
0.691468
0.862911
1.05602
1.27529
1.52553
1.81161
2.13861
2.51228
2.93934
3.42692
3.98247
4.61362
5.32905
6.13783
7.0448
8.05613
9.17602
10.4055
11.7414
13.1748
14.6907
16.2666
17.8724
19.4713
21.0221
22.4849
23.8265
25.029
26.098
27.0697
28.0149
29.0389
30.2767
31.88
33.9918
36.6952
39.9366
43.4166
46.395
47.4826
45.5555
42.1437
36.6959
25.4519
14.3091
1.6795
-13.8664
-30.7066
-50.0577
-70.9203
-92.0011
-108.259
-115.089
-115.738
-114.985
-112.977
-109.574
-103.986
-96.1602
-86.0709
-73.5271
-58.8467
-43.0913
-27.6791
-14.3013
-5.32229
-1.21606
-0.540708
-1.12325
-1.96718
-2.85713
-3.09131
-2.78318
-2.55357
0.0547943
0.168626
0.299442
0.438534
0.591523
0.76004
0.947732
1.1586
1.39744
1.66943
1.9799
2.33444
2.7394
3.20208
3.73035
4.33245
5.01696
5.79354
6.67161
7.65721
8.75732
9.97639
11.3157
12.7719
14.3358
15.9914
17.7148
19.4746
21.2318
22.9438
24.5683
26.0711
27.433
28.6587
29.7832
30.8759
32.0404
33.4087
35.1273
37.33
40.0845
43.3135
46.6785
49.3608
49.8923
47.3297
43.323
36.7048
25.5516
14.734
1.28153
-15.2403
-33.6649
-54.2742
-75.5539
-96.6719
-112.495
-119.097
-120.3
-120.035
-118.162
-114.815
-109.392
-101.833
-92.0247
-79.613
-64.707
-48.221
-31.6644
-17.0051
-6.86824
-1.92135
-0.855955
-1.31288
-2.13746
-3.0943
-3.46261
-3.4513
-3.80385
0.0595745
0.180615
0.324635
0.47691
0.644533
0.828806
1.03373
1.26352
1.52319
1.81825
2.15441
2.53778
2.97521
3.47448
4.04414
4.69317
5.43102
6.26815
7.2145
8.27764
9.46503
10.7817
12.2294
13.8047
15.4984
17.2937
19.1657
21.0815
23.0008
24.8793
26.6729
28.3457
29.8774
31.271
32.5593
33.8092
35.1214
36.6238
38.4571
40.7461
43.5454
46.7576
50.0037
52.378
52.3398
49.16
44.5255
36.7291
25.7616
14.9596
0.51643
-16.9558
-36.8983
-58.5703
-79.7683
-100.457
-115.728
-122.412
-124.436
-124.623
-122.837
-119.551
-114.251
-106.944
-97.4388
-85.2411
-70.3134
-53.3578
-35.8446
-19.9621
-8.56673
-2.6965
-1.20052
-1.52727
-2.32915
-3.3556
-3.85619
-4.10153
-4.91513
0.0638816
0.191323
0.348462
0.513888
0.696308
0.896695
1.11946
1.36899
1.65056
1.96992
2.33317
2.74688
3.21834
3.75576
4.36823
5.06539
5.85747
6.75551
7.77008
8.91013
10.1837
11.5966
13.1508
14.8435
16.6652
18.5988
20.6188
22.6911
24.7743
26.8226
28.7905
30.6404
32.3503
33.921
35.3822
36.7969
38.2614
39.8985
41.8424
44.2098
47.045
50.2343
53.3586
55.4184
54.8177
51.0774
45.8151
36.8621
26.0675
14.8399
-0.769356
-19.154
-40.4272
-62.8833
-83.6602
-103.539
-118.323
-125.403
-128.381
-128.971
-127.228
-123.962
-118.748
-111.617
-102.382
-90.4029
-75.5825
-58.3973
-40.1498
-23.1338
-10.411
-3.55562
-1.58299
-1.76991
-2.5363
-3.63356
-4.25719
-4.70952
-5.83525
0.068344
0.201389
0.371506
0.549836
0.746917
0.963396
1.20416
1.47381
1.7779
2.12246
2.51394
2.95935
3.46644
4.04376
4.7009
5.44805
6.29605
7.25642
8.34033
9.55776
10.9175
12.426
14.0858
15.8944
17.8425
19.913
22.0797
24.308
26.5556
28.7756
30.9212
32.9531
34.8473
36.6017
38.242
39.8257
41.4434
43.2116
45.2578
47.6919
50.552
53.713
56.7154
58.4626
57.3287
53.1091
47.2126
37.1506
26.4113
14.2554
-2.6336
-21.9349
-44.253
-67.1553
-87.3474
-106.197
-120.686
-128.429
-132.32
-133.239
-131.498
-128.206
-123.032
-115.963
-106.889
-95.1017
-80.464
-63.2386
-44.489
-26.4682
-12.4209
-4.51744
-2.00814
-2.02277
-2.75063
-3.91799
-4.65525
-5.25667
-6.55992
0.0735253
0.211519
0.394577
0.585514
0.796987
1.02929
1.28787
1.5776
1.90437
2.27451
2.69488
3.17294
3.71689
4.33568
5.03933
5.83851
6.74457
7.76947
8.92485
10.2215
11.6687
13.2737
15.0396
16.9642
19.0384
21.2451
23.5582
25.9424
28.355
30.7482
33.0741
35.2918
37.3749
39.3177
41.1407
42.8948
44.6631
46.5551
48.6918
51.1786
54.0525
57.1821
60.0666
61.5112
59.8923
55.2815
48.7139
37.6301
26.7432
13.1667
-5.039
-25.3112
-48.3543
-71.3159
-90.893
-108.721
-123.153
-131.714
-136.361
-137.508
-135.778
-132.462
-127.243
-120.102
-111.016
-99.337
-84.9235
-67.8012
-48.7708
-29.9127
-14.5992
-5.58275
-2.46358
-2.27292
-2.96865
-4.19699
-5.02959
-5.72294
-7.06617
0.0797822
0.222256
0.418437
0.621772
0.847394
1.09519
1.37123
1.68074
2.02998
2.42567
2.87507
3.38616
3.96765
4.62894
5.38052
6.23351
7.19976
8.2916
9.52116
10.8997
12.4371
14.1411
16.0151
18.0575
20.2596
22.6041
25.0649
27.6068
30.1865
32.7558
35.2656
37.6733
39.9497
42.0851
44.0935
46.0177
47.9321
49.9383
52.1515
54.6764
57.5541
60.6516
63.4256
64.5838
62.5417
57.6191
50.3084
38.3451
27.0458
11.6179
-7.91992
-29.2176
-52.6743
-75.3147
-94.3233
-111.355
-125.881
-135.307
-140.526
-141.827
-140.136
-136.743
-131.397
-124.091
-114.869
-103.166
-88.9457
-72.0234
-52.913
-33.4158
-16.926
-6.73974
-2.92303
-2.49823
-3.18426
-4.45986
-5.36134
-6.09951
-7.34914
0.0872003
0.233836
0.443579
0.659281
0.898954
1.16198
1.45516
1.78407
2.15542
2.57632
3.05453
3.59858
4.21772
4.92192
5.72218
6.63017
7.65822
8.81913
10.1255
11.5889
13.2199
15.0263
17.0122
19.1762
21.5098
23.996
26.6086
29.3125
32.0642
34.8149
37.5146
40.1185
42.5944
44.9275
47.1244
49.2184
51.2738
53.3836
55.6587
58.2065
61.0791
64.146
66.8178
67.7091
65.3132
60.1374
51.9928
39.3548
27.3258
9.72337
-11.2175
-33.5453
-57.1324
-79.1678
-97.6756
-114.23
-128.894
-139.154
-144.77
-146.191
-144.504
-140.972
-135.481
-127.961
-118.519
-106.678
-92.5486
-75.8541
-56.837
-36.9161
-19.3798
-7.982
-3.37312
-2.70468
-3.39271
-4.69124
-5.64324
-6.38744
-7.42719
0.0956195
0.246154
0.470121
0.698355
0.952179
1.23038
1.54053
1.88857
2.28168
2.72741
3.23404
3.81067
4.4672
5.21417
6.06323
7.02668
8.11745
9.34891
10.7341
12.2852
14.0131
15.9259
18.028
20.3185
22.789
25.4229
28.1939
31.0669
33.9984
36.9391
39.8376
42.647
45.331
47.8691
50.2592
52.5236
54.7152
56.9178
59.2393
61.7947
64.6536
67.6911
70.2679
70.9133
68.2344
62.8346
53.7774
40.7081
27.5889
7.63155
-14.8639
-38.1903
-61.6405
-82.8996
-100.948
-117.316
-132.184
-143.137
-149.002
-150.505
-148.75
-145.13
-139.503
-131.734
-121.996
-109.941
-95.7761
-79.2702
-60.471
-40.3457
-21.923
-9.29849
-3.81272
-2.89507
-3.57543
-4.88202
-5.86756
-6.57355
-7.33138
0.104726
0.258829
0.497824
0.73891
1.00719
1.30072
1.62789
1.99499
2.40967
2.87996
3.41466
4.0235
4.71698
5.50633
6.40389
7.42269
8.57641
9.8791
11.3445
12.9852
14.8126
16.8354
19.0583
21.4807
24.0946
26.8834
29.8211
32.8725
35.9942
39.1361
42.2456
45.2726
48.1764
50.9291
53.5189
55.9553
58.2786
60.563
62.9148
65.4617
68.2972
71.3046
73.7904
74.2108
71.3151
65.6844
55.6811
42.4125
27.8292
5.45872
-18.7615
-43.0134
-66.0901
-86.4983
-104.099
-120.468
-135.706
-147.116
-153.136
-154.667
-152.82
-149.207
-143.466
-135.473
-125.378
-113.006
-98.6845
-82.2867
-63.7626
-43.6375
-24.5067
-10.6693
-4.24063
-3.05214
-3.70876
-5.02606
-6.03528
-6.65463
-7.11043
0.114163
0.271349
0.526214
0.78056
1.06372
1.37293
1.71737
2.10367
2.53997
3.03478
3.59743
4.23824
4.96835
5.79968
6.7453
7.81908
9.03554
10.4095
11.9555
13.687
15.6159
17.7515
20.0991
22.6586
25.4222
28.3738
31.4874
34.728
38.0519
41.4085
44.7432
48.0023
51.1395
54.1186
56.9158
59.5265
61.9768
64.3311
66.6961
69.2168
72.0175
74.9908
77.385
77.6003
74.5423
68.6346
57.7253
44.4275
28.0558
3.27554
-22.7925
-47.8357
-70.3828
-89.9295
-107.078
-123.515
-139.309
-151.024
-157.113
-158.617
-156.737
-153.193
-147.411
-139.234
-128.738
-115.936
-101.329
-84.9342
-66.6811
-46.7222
-27.076
-12.0848
-4.662
-3.1484
-3.77781
-5.11198
-6.14078
-6.65305
-6.78471
0.123624
0.283205
0.554744
0.82276
1.12129
1.44661
1.80871
2.21455
2.67275
3.19227
3.783
4.45582
5.22249
6.09561
7.089
8.21742
9.49629
10.9414
12.568
14.3907
16.4222
18.6727
21.1481
23.849
26.7683
29.8902
33.1891
36.6299
40.1688
43.7543
47.3296
50.8366
54.2222
57.4403
60.4532
63.2402
65.8118
68.223
70.5823
73.0575
75.8093
78.7399
81.0371
81.0653
77.8809
71.6148
59.9289
46.6676
28.2872
1.12884
-26.8376
-52.487
-74.4429
-93.1608
-109.848
-126.365
-142.791
-154.849
-160.926
-162.32
-160.483
-157.059
-151.295
-142.97
-132.083
-118.783
-103.764
-87.2403
-69.2127
-49.5318
-29.5759
-13.541
-5.08347
-3.15763
-3.77022
-5.1337
-6.17345
-6.56229
-6.37226
0.132919
0.294016
0.582938
0.864967
1.1793
1.52118
1.90141
2.32724
2.80774
3.35237
3.97154
4.67671
5.48019
6.39525
7.43645
8.61943
9.96057
11.4766
13.1839
15.098
17.2329
19.5995
22.2051
25.0511
28.1312
31.4303
34.9232
38.5749
42.3415
46.1704
50.0018
53.7726
57.4216
60.8913
64.128
67.0923
69.778
72.2306
74.5636
76.9717
79.6568
82.5313
84.7215
84.5783
81.2794
74.5533
62.3113
49.0347
28.5391
-0.942928
-30.7815
-56.8151
-78.1951
-96.1936
-112.433
-128.998
-146.001
-158.567
-164.56
-165.763
-164.022
-160.731
-155.016
-146.594
-135.364
-121.567
-106.041
-89.2419
-71.3523
-52.0129
-31.9498
-15.0162
-5.48922
-3.05383
-3.67925
-5.09704
-6.12353
-6.36937
-5.92678
0.141999
0.303603
0.61049
0.906767
1.23727
1.5961
1.9949
2.44118
2.94447
3.5147
4.16284
4.90088
5.74172
6.69921
7.78863
9.02652
10.4302
12.0174
13.8057
15.8116
18.0503
20.5344
23.2721
26.2662
29.5117
32.9942
36.6891
40.5619
44.5682
48.6543
52.757
56.807
60.7338
64.4666
67.9341
71.0753
73.8657
76.3417
78.6249
80.9414
83.5384
86.3378
88.4077
88.1067
84.6806
77.394
64.8774
51.4334
28.8252
-2.9004
-34.493
-60.7047
-81.5416
-99.0169
-114.902
-131.439
-148.936
-162.126
-167.943
-168.965
-167.328
-164.176
-158.559
-150.092
-138.552
-124.271
-108.196
-90.9919
-73.1085
-54.1319
-34.1367
-16.4701
-5.81667
-2.80186
-3.49841
-4.99919
-6.00138
-6.09908
-5.45179
0.150941
0.311998
0.637304
0.947946
1.29485
1.67092
2.08866
2.55582
3.08238
3.67874
4.35643
5.12801
6.00691
7.00758
8.14599
9.43953
10.9065
12.5657
14.4356
16.5342
18.8779
21.4807
24.3525
27.4977
30.9127
34.5843
38.4889
42.5922
46.8498
51.2063
55.5947
59.9384
64.1561
68.1625
71.866
75.1819
78.0653
80.5442
82.7511
84.9481
87.4309
90.1314
92.0656
91.6184
88.0309
80.1097
67.6234
53.787
29.1564
-4.7066
-37.8498
-64.0936
-84.4082
-101.589
-117.287
-133.764
-151.669
-165.457
-171.045
-171.947
-170.399
-167.394
-161.915
-153.441
-141.64
-126.893
-110.238
-92.5367
-74.51
-55.8667
-36.0702
-17.8416
-6.01716
-2.3753
-3.20545
-4.83133
-5.81801
-5.77436
-4.95857
0.159898
0.319404
0.663474
0.988504
1.35191
1.74541
2.18236
2.67075
3.22101
3.84401
4.55183
5.35762
6.27537
7.32012
8.50849
9.85875
11.3902
13.1225
15.0755
17.2683
19.7186
22.4422
25.4506
28.7502
32.339
36.2056
40.3272
44.6702
49.19
53.8296
58.5173
63.1684
67.6893
71.978
75.9212
79.4078
82.3704
84.829
86.9301
88.9757
91.3137
93.8869
95.6697
95.0873
91.283
82.7088
70.5186
56.046
29.5228
-6.34996
-40.7669
-66.9462
-86.792
-103.883
-119.618
-136.048
-154.227
-168.49
-173.927
-174.691
-173.215
-170.361
-165.043
-156.596
-144.594
-129.424
-112.173
-93.906
-75.5955
-57.2011
-37.6903
-19.0658
-6.09656
-1.78489
-2.78041
-4.58765
-5.5729
-5.3988
-4.51132
0.169052
0.32616
0.689244
1.02862
1.40855
1.81955
2.27586
2.78576
3.36007
4.01015
4.74865
5.58929
6.54667
7.63643
8.87584
10.2841
11.8814
13.6886
15.7265
18.0155
20.575
23.422
26.5704
30.0283
33.796
37.8637
42.2102
46.8022
51.5952
56.5302
61.5307
66.5023
71.3376
75.9164
80.1012
83.7526
86.7789
89.1919
91.1544
93.0131
95.171
97.5846
99.2043
98.4946
94.3985
85.241
73.4994
58.1906
29.897
-7.81017
-43.1933
-69.2402
-88.7345
-105.91
-121.898
-138.311
-156.621
-171.187
-176.611
-177.187
-175.76
-173.068
-167.929
-159.54
-147.388
-131.842
-114.01
-95.1161
-76.4083
-58.129
-38.9582
-20.0894
-6.0669
-1.04963
-2.19683
-4.26536
-5.27438
-4.98298
-4.04918
0.178553
0.33266
0.714929
1.06859
1.465
1.8935
2.36929
2.90087
3.49954
4.17708
4.94671
5.82278
6.82051
7.95618
9.24774
10.7153
12.3801
14.264
16.3891
18.7771
21.4486
24.4227
27.7151
31.3363
35.2887
39.5648
44.1444
48.9955
54.0729
59.316
64.6426
69.9477
75.1082
79.9839
84.4113
88.2201
91.2926
93.6329
95.422
97.0546
98.992
101.211
102.662
101.82
97.3629
87.7719
76.5008
60.2208
30.2516
-9.07887
-45.137
-70.9718
-90.2348
-107.656
-124.066
-140.499
-158.847
-173.593
-179.083
-179.431
-178.043
-175.524
-170.573
-162.265
-150
-134.122
-115.739
-96.1857
-76.9776
-58.6698
-39.8505
-20.8802
-5.94729
-0.174602
-1.41473
-3.85437
-4.92799
-4.54116
-3.61596
0.188459
0.339274
0.740835
1.10875
1.52157
1.96759
2.46291
3.01636
3.63961
4.34494
5.1461
6.0581
7.09685
8.27927
9.62404
11.1522
12.8861
14.8488
17.0636
19.5534
22.3406
25.4459
28.8873
32.6774
36.8215
41.3139
46.1363
51.2572
56.6312
62.1955
67.8619
73.5136
79.0099
84.1889
88.8589
92.8166
95.9168
98.1555
99.7343
101.098
102.769
104.762
106.043
105.049
100.185
90.3526
79.4908
62.1509
30.5608
-10.1699
-46.6274
-72.1847
-91.2989
-109.098
-126.073
-142.54
-160.861
-175.763
-181.336
-181.434
-180.081
-177.736
-172.979
-164.767
-152.415
-136.242
-117.343
-97.1266
-77.3221
-58.8786
-40.34
-21.4183
-5.71833
0.902166
-0.387186
-3.34237
-4.53091
-4.07769
-3.19451
0.198715
0.346331
0.767218
1.1494
1.57861
2.04219
2.55715
3.13261
3.78066
4.51405
5.34712
6.29552
7.37589
8.60586
10.0048
11.5949
13.3995
15.443
17.7499
20.3448
23.2515
26.4927
30.0884
34.0542
38.3976
43.1155
48.1911
53.5935
59.277
65.1764
71.197
77.2087
83.0517
88.5402
93.4525
97.5499
100.658
102.765
104.095
105.143
106.5
108.238
109.339
108.176
102.873
93.0342
82.451
64.0004
30.8262
-11.0983
-47.7189
-72.9265
-91.9713
-110.242
-127.911
-144.422
-162.618
-177.716
-183.359
-183.206
-181.89
-179.71
-175.149
-167.041
-154.623
-138.184
-118.805
-97.9392
-77.4795
-58.8103
-40.4222
-21.6897
-5.30022
2.30674
0.939148
-2.72038
-4.08966
-3.59286
-2.75945
0.209167
0.354081
0.794232
1.19079
1.63643
2.11768
2.65242
3.2501
3.92319
4.68493
5.55026
6.53552
7.65809
8.93635
10.3905
12.0436
13.9205
16.0468
18.4485
21.1516
24.1818
27.5636
31.3197
35.4681
40.0193
44.9726
50.3128
56.0095
62.0164
68.2655
74.6551
81.0408
87.2416
93.0456
98.1997
102.427
105.522
107.466
108.505
109.186
110.181
111.634
112.557
111.195
105.427
95.8539
85.3683
65.7873
31.0757
-11.8633
-48.5104
-73.3019
-92.3372
-111.144
-129.594
-146.171
-164.112
-179.455
-185.133
-184.751
-183.485
-181.45
-177.083
-169.087
-156.615
-139.931
-120.108
-98.6198
-77.481
-58.4851
-40.1445
-21.6626
-4.62695
4.09018
2.60914
-1.95852
-3.60673
-3.09619
-2.34951
0.219572
0.362691
0.821922
1.23305
1.69523
2.19437
2.74913
3.36928
4.06773
4.85818
5.75617
6.77877
7.94411
9.27137
10.7817
12.4991
14.4498
16.6609
19.1599
21.9745
25.1321
28.6595
32.582
36.9204
41.6882
46.8873
52.5042
58.5088
64.8535
71.4676
78.2417
85.0158
91.5855
97.7113
103.107
107.454
110.515
112.262
112.964
113.225
113.808
114.935
115.699
114.082
107.896
98.7972
88.2303
67.5052
31.3158
-12.4494
-49.0592
-73.4471
-92.5022
-111.874
-131.115
-147.811
-165.366
-180.97
-186.639
-186.07
-184.885
-182.963
-178.781
-170.905
-158.392
-141.475
-121.235
-99.1602
-77.3419
-57.9416
-39.5842
-21.2744
-3.69692
6.21988
4.62352
-1.00907
-3.05831
-2.5923
-1.93192
0.229648
0.372295
0.850267
1.27621
1.75511
2.27242
2.84753
3.49056
4.21477
5.03439
5.96556
7.02602
8.2347
9.61169
11.1791
12.962
14.9881
17.286
19.8849
22.8141
26.1032
29.7813
33.8762
38.4121
43.4056
48.8613
54.7674
61.0937
67.7914
74.7861
81.9606
89.1377
96.0877
102.541
108.177
112.635
115.64
117.155
117.47
117.252
117.363
118.146
118.743
116.823
110.328
101.82
91.0377
69.1455
31.5298
-12.8723
-49.3779
-73.461
-92.5531
-112.49
-132.46
-149.336
-166.418
-182.25
-187.869
-187.166
-186.112
-184.262
-180.243
-172.497
-159.952
-142.808
-122.174
-99.5505
-77.0691
-57.23
-38.778
-20.5093
-2.57551
8.58438
6.91159
0.19042
-2.42232
-2.06649
-1.48081
0.239144
0.383037
0.879214
1.32024
1.81605
2.35191
2.94779
3.61416
4.36472
5.21413
6.17909
7.27802
8.5307
9.95815
11.5836
13.4333
15.5364
17.9231
20.6245
23.6716
27.0961
30.9298
35.2034
39.9443
45.1726
50.8959
57.1038
63.7663
70.8322
78.2234
85.814
93.4089
100.751
107.538
113.412
117.97
120.897
122.141
122.018
121.257
120.831
121.264
121.663
119.433
112.758
104.883
93.8018
70.7202
31.711
-13.1903
-49.5043
-73.389
-92.5431
-113.019
-133.623
-150.727
-167.304
-183.292
-188.84
-188.049
-187.197
-185.376
-181.475
-173.862
-161.301
-143.932
-122.912
-99.7782
-76.6612
-56.3713
-37.7271
-19.448
-1.33905
11.0409
9.3487
1.71531
-1.7264
-1.50477
-1.0509
0.247861
0.395115
0.908737
1.3651
1.878
2.43277
3.0499
3.74025
4.51786
5.39782
6.39734
7.53548
8.83287
10.3116
11.996
13.9138
16.0955
18.5732
21.3796
24.548
28.1121
32.1064
36.5648
41.5182
46.9906
52.9923
59.5149
66.5278
73.9772
81.7807
89.8033
97.8307
105.575
112.701
118.813
123.461
126.285
127.219
126.602
125.215
124.206
124.26
124.451
121.909
115.221
107.954
96.5275
72.2573
31.8954
-13.4608
-49.5193
-73.25
-92.5052
-113.455
-134.606
-151.963
-168.07
-184.121
-189.602
-188.742
-188.171
-186.352
-182.49
-175
-162.44
-144.85
-123.445
-99.8294
-76.1114
-55.3714
-36.4764
-18.2019
-0.00786675
13.524
12.0069
3.65754
-1.04872
-0.917433
-0.560078
0.255693
0.408788
0.938856
1.41074
1.94085
2.51491
3.1538
3.8688
4.6743
5.58573
6.62072
7.79895
9.14189
10.6728
12.4173
14.4044
16.6665
19.2373
22.1516
25.4445
29.1523
33.3123
37.9616
43.1351
48.8605