/*--------------------------------*- C++ -*----------------------------------*\
| =========                 |                                                 |
| \\      /  F ield         | OpenFOAM: The Open Source CFD Toolbox           |
|  \\    /   O peration     | Version:  4.1                                   |
|   \\  /    A nd           | Web:      www.OpenFOAM.org                      |
|    \\/     M anipulation  |                                                 |
\*---------------------------------------------------------------------------*/
FoamFile
{
    version     2.0;
    format      ascii;
    class       volVectorField;
    location    "21";
    object      U;
}
// * * * * * * * * * * * * * * * * * * * * * * * * * * * * * * * * * * * * * //

dimensions      [0 1 -1 0 0 0 0];

internalField   nonuniform List<vector> 
6785
(
(1.61433e-14 0.684591 15.7417)
(4.59639e-15 -5.13029 12.0538)
(-2.77394e-15 -4.29248 12.1841)
(4.75879e-15 -3.72373 12.0221)
(1.63e-15 -3.11928 11.901)
(-4.22556e-16 -2.66642 11.7153)
(3.96536e-15 -2.31757 11.4882)
(1.38014e-16 -2.07339 11.2168)
(-5.28902e-16 -1.90789 10.9139)
(1.35827e-15 -1.81715 10.5844)
(6.76628e-16 -1.92237 10.165)
(-3.28753e-16 -2.37172 9.56013)
(2.32098e-16 -2.68964 8.96983)
(-3.25805e-16 -1.33544 8.92611)
(-1.96063e-15 1.73297 7.64127)
(2.90148e-14 -5.63792 22.1818)
(2.38975e-14 -14.7671 21.3398)
(1.21337e-15 -13.2425 20.4984)
(2.34622e-16 -11.8213 19.6219)
(2.80971e-15 -11.2268 18.5971)
(-7.21699e-16 -10.7091 17.6048)
(5.37513e-15 -10.1208 16.6521)
(2.58031e-15 -9.5447 15.6955)
(6.95746e-18 -8.97895 14.7275)
(5.48031e-16 -8.37619 13.7517)
(4.88353e-15 -7.75114 12.7738)
(1.17349e-16 -7.27669 11.7831)
(7.50764e-15 -7.01216 10.694)
(1.51891e-15 -5.7842 8.97423)
(-1.97426e-15 -1.73313 4.85298)
(1.59604e-14 -7.89606 22.187)
(2.55556e-14 -16.7499 24.7013)
(3.84284e-15 -13.8112 23.9904)
(3.55581e-15 -12.4975 22.6549)
(-2.36756e-15 -11.8329 21.2609)
(-1.83451e-15 -10.9888 20.0203)
(-2.57379e-15 -10.1071 18.7898)
(2.78519e-15 -9.26073 17.5384)
(-6.25886e-16 -8.43654 16.2749)
(1.0593e-14 -7.61981 15.0223)
(3.983e-15 -6.79661 13.8031)
(-1.21912e-15 -5.96797 12.4318)
(-1.22592e-14 -4.99019 10.3253)
(1.41304e-15 -3.27413 6.88842)
(-1.37919e-15 -0.661741 2.39719)
(2.10666e-14 -8.14299 17.9865)
(1.61492e-14 -16.3386 24.4545)
(2.06557e-14 -13.4358 23.9533)
(2.98957e-15 -12.5304 22.118)
(-3.77909e-15 -11.7969 20.6134)
(1.40026e-14 -10.8461 19.2814)
(-1.09023e-15 -9.96723 17.9212)
(-1.41006e-14 -9.13767 16.5563)
(2.4709e-15 -8.34484 15.203)
(-4.25858e-15 -7.59582 13.8748)
(-1.26747e-14 -6.83528 12.5313)
(1.82549e-14 -5.87349 10.8616)
(-2.83582e-15 -4.38433 8.19389)
(-3.41311e-14 -2.24186 3.97012)
(3.27146e-14 0.0133099 -1.35382)
(1.6065e-14 -7.32234 13.9158)
(1.41812e-14 -15.3601 23.713)
(-6.02721e-15 -13.9044 24.0459)
(1.29602e-15 -13.0905 21.9516)
(-1.80448e-15 -12.2989 20.3338)
(-5.03383e-15 -11.3792 18.9604)
(-3.67608e-15 -10.5626 17.5508)
(-2.1008e-15 -9.76954 16.1479)
(-5.67654e-15 -8.98401 14.7748)
(-7.33093e-15 -8.2263 13.436)
(-1.47498e-14 -7.46068 12.0821)
(-9.96185e-15 -6.51611 10.4475)
(-7.06239e-15 -5.04477 8.04186)
(-6.86367e-15 -3.17022 4.56497)
(-2.32921e-14 -1.17584 1.47706)
(2.88258e-14 -6.12144 10.8656)
(1.42364e-14 -14.1683 22.6765)
(5.06492e-15 -14.3398 24.3334)
(-5.05107e-15 -13.5261 22.4673)
(-2.4857e-15 -12.5719 20.7473)
(-3.25553e-15 -11.6371 19.3215)
(2.62163e-15 -10.8161 17.8988)
(6.53143e-16 -9.99705 16.4871)
(-8.20321e-15 -9.17093 15.1042)
(-4.68016e-16 -8.36489 13.7542)
(-1.15285e-14 -7.55762 12.3989)
(-1.4176e-14 -6.6324 10.8165)
(-7.06557e-15 -5.23768 8.63421)
(-2.28933e-14 -3.6654 5.5965)
(-7.19473e-15 -1.4441 3.02899)
(2.83113e-14 -5.11667 8.83232)
(1.92654e-14 -13.0033 21.5804)
(1.70781e-14 -14.2991 24.2365)
(5.39944e-15 -13.581 22.8792)
(6.56003e-15 -12.5393 21.1352)
(2.69512e-15 -11.6016 19.6439)
(4.2318e-15 -10.7714 18.2072)
(7.79093e-15 -9.93276 16.7917)
(-9.26911e-15 -9.09344 15.3989)
(2.56471e-15 -8.27999 14.0363)
(1.25641e-14 -7.46911 12.6734)
(2.6932e-14 -6.57644 11.0936)
(-5.44758e-15 -5.18615 8.98491)
(-1.72481e-14 -3.9287 6.08856)
(1.9645e-14 -1.5212 3.97673)
(1.76536e-14 -4.64257 8.03703)
(1.93371e-14 -12.2067 20.8451)
(1.53597e-14 -14.0421 23.8086)
(-2.44394e-15 -13.4643 23.0217)
(-3.54144e-16 -12.4664 21.3207)
(5.98024e-16 -11.5566 19.7822)
(1.12527e-15 -10.7273 18.3357)
(-3.06871e-15 -9.88853 16.9176)
(1.06041e-14 -9.05811 15.5179)
(1.10861e-16 -8.25491 14.1481)
(-2.43387e-15 -7.44808 12.7783)
(3.60767e-15 -6.57274 11.1675)
(-5.73299e-15 -5.09932 9.05902)
(-1.42997e-14 -4.06639 6.14976)
(5.84827e-15 -1.53575 4.34704)
(7.14157e-15 -4.52595 7.8897)
(1.85732e-14 -11.7345 20.3705)
(9.03961e-15 -13.8018 23.2615)
(8.93973e-15 -13.3735 23.0314)
(2.75696e-15 -12.4887 21.416)
(-6.6669e-15 -11.5956 19.8578)
(1.81583e-15 -10.7583 18.4094)
(1.36256e-16 -9.92073 16.9907)
(-3.30762e-15 -9.09661 15.5879)
(3.6023e-15 -8.29762 14.2158)
(-1.86104e-15 -7.48462 12.8414)
(-2.19194e-14 -6.61649 11.1827)
(-1.81982e-15 -5.02883 9.06241)
(-1.18605e-14 -4.2099 6.19389)
(-5.42294e-15 -1.60669 4.63893)
(-3.92069e-15 -4.46826 7.69301)
(1.63132e-14 -11.3848 19.9283)
(8.49628e-15 -13.6186 22.7609)
(3.16639e-16 -13.3372 23.0096)
(1.07892e-15 -12.5772 21.5105)
(-3.58314e-15 -11.6781 19.9506)
(-1.96752e-15 -10.824 18.4999)
(-2.36633e-17 -9.98467 17.0799)
(-1.74583e-14 -9.16029 15.6762)
(-1.11179e-14 -8.35987 14.3028)
(-3.4073e-15 -7.53311 12.9241)
(-2.46432e-14 -6.66912 11.2086)
(4.5884e-15 -4.97486 9.0781)
(-8.61678e-15 -4.3695 6.3156)
(-2.39325e-14 -1.73037 4.97587)
(-2.60175e-14 -4.32617 7.26914)
(1.03619e-14 -11.0234 19.4298)
(-1.51224e-15 -13.4516 22.3665)
(-8.72738e-16 -13.3209 23.0141)
(-2.7667e-15 -12.6839 21.6538)
(-3.37371e-14 -11.7739 20.0971)
(6.25653e-15 -10.9024 18.6317)
(1.99347e-15 -10.0596 17.2013)
(-2.96686e-14 -9.23028 15.7903)
(-1.34675e-14 -8.42624 14.4077)
(1.50554e-14 -7.57904 13.0201)
(-5.5657e-14 -6.72104 11.2442)
(-2.24302e-14 -4.93705 9.10087)
(-5.08179e-14 -4.51786 6.44489)
(-3.27933e-14 -1.85361 5.296)
(-1.56819e-14 -4.19318 6.87065)
(1.57279e-14 -10.669 19.0497)
(-1.15704e-14 -13.2188 22.0484)
(4.67979e-15 -13.1823 23.0044)
(8.27782e-15 -12.6493 21.7547)
(-1.84022e-14 -11.7303 20.23)
(-5.82935e-15 -10.8594 18.7658)
(1.19004e-14 -10.0217 17.3337)
(-3.52059e-14 -9.1971 15.9255)
(-7.11744e-15 -8.40173 14.5401)
(-2.318e-15 -7.54618 13.1304)
(-2.15707e-14 -6.67511 11.2732)
(-1.87353e-14 -4.83959 9.12659)
(-3.92987e-14 -4.67192 6.62278)
(-4.09832e-14 -1.96517 5.61713)
(-2.64468e-14 -4.40642 7.45676)
(2.18098e-14 -10.5985 19.1829)
(2.42347e-15 -13.1837 22.0551)
(-3.65206e-15 -13.1819 23.2357)
(7.4984e-15 -12.7418 21.9677)
(-1.84198e-14 -11.772 20.3949)
(-9.72611e-15 -10.8703 18.8426)
(3.30519e-14 -9.99671 17.3323)
(-2.03689e-14 -9.12968 15.8408)
(-8.21588e-15 -8.29797 14.3773)
(-8.93703e-17 -7.39423 12.8884)
(-2.92674e-14 -6.47884 10.8644)
(-1.80084e-14 -4.49301 8.60774)
(-3.28932e-14 -4.49331 6.13426)
(-4.04394e-14 -1.84244 5.35854)
(-8.21721e-15 -4.23975 7.0949)
(1.27035e-14 -9.87307 18.6901)
(-4.40691e-15 -12.1599 21.8664)
(-1.62154e-15 -12.157 23.0254)
(6.95201e-16 -11.7427 21.9785)
(-1.39897e-14 -10.8579 20.6327)
(-2.25538e-15 -10.0605 19.2597)
(3.20627e-15 -9.27699 17.8729)
(-1.61918e-14 -8.52367 16.5241)
(-5.00976e-15 -7.80154 15.1408)
(-1.2218e-14 -7.00102 13.536)
(-3.01482e-14 -6.01677 11.4494)
(-1.95903e-14 -4.71396 9.30818)
(-3.95668e-14 -4.84633 7.34113)
(-3.54109e-14 -2.02474 5.96865)
(-1.58069e-14 -8.64613 20.2434)
(8.37875e-15 -13.7806 26.6181)
(-3.92201e-15 -14.5928 26.5635)
(-1.00295e-15 -13.5498 25.8189)
(-4.85295e-15 -12.2077 22.9127)
(-8.50188e-15 -10.4859 20.5302)
(-1.52022e-15 -9.06427 18.0758)
(-7.80405e-15 -7.68939 15.9123)
(-1.42577e-14 -6.35458 13.5594)
(-1.51603e-14 -4.9354 10.9768)
(-2.61472e-14 -3.28958 7.88303)
(-2.78874e-14 -1.61089 4.51601)
(-2.9656e-14 -0.415068 1.70837)
(-3.10837e-14 -0.171407 -0.256039)
(-1.12379e-14 0.00779749 -0.439411)
(-2.51573e-15 0.00693724 -2.22385)
(-3.79075e-15 0.749646 -6.19573)
(-2.76621e-15 0.792671 -5.55409)
(-2.65648e-15 1.22452 -5.35361)
(-2.54815e-15 1.45153 -5.07396)
(-3.33128e-15 2.08226 -5.75735)
(-2.10283e-15 1.56927 -4.4238)
(-1.07446e-15 1.83579 -4.22495)
(-1.96681e-15 2.00963 -4.05212)
(-2.21564e-17 2.54868 -4.30672)
(8.38816e-16 1.8313 -3.45979)
(7.38838e-16 1.91027 -3.34521)
(2.79674e-15 2.21806 -3.39403)
(3.09642e-15 1.60961 -2.69257)
(4.16269e-15 1.71619 -2.36795)
(4.78789e-15 1.76592 -2.19901)
(8.37018e-15 2.10288 -1.78347)
(5.81146e-15 1.46316 -1.32837)
(5.63561e-15 1.52075 -1.229)
(8.17414e-15 1.7782 -0.632435)
(6.58337e-15 1.26477 -0.320997)
(6.68879e-15 1.39356 -0.15922)
(5.92522e-15 1.33695 -0.156802)
(7.06272e-15 1.61929 0.289248)
(5.64744e-15 1.20962 0.330415)
(5.93776e-15 1.35595 0.333243)
(4.38052e-15 1.28101 0.247153)
(4.70428e-15 1.51648 0.421313)
(4.17757e-15 1.28496 0.387943)
(3.75269e-15 1.3649 0.292491)
(3.2921e-15 1.75945 0.263242)
(3.08269e-15 1.40031 0.280839)
(2.89476e-15 1.58563 0.219522)
(3.19809e-15 1.52502 0.12691)
(3.96473e-15 1.84429 0.0485745)
(2.86e-15 1.61868 0.128285)
(2.59546e-15 1.69437 0.0582371)
(1.80512e-15 2.23402 -0.0272197)
(1.3608e-15 1.76652 0.0697397)
(1.22964e-15 1.97124 0.0232897)
(2.89652e-16 1.9051 -0.060638)
(-1.55467e-15 2.42121 -0.135251)
(-1.17921e-15 1.96935 -0.023507)
(-1.34113e-15 2.14744 -0.0548276)
(-1.51689e-15 2.05567 -0.13731)
(-2.82175e-15 2.63845 -0.145353)
(-1.30302e-15 2.16783 -0.0417061)
(-1.1605e-15 2.23403 -0.116758)
(-1.21251e-15 2.89978 -0.0195505)
(-1.50336e-15 2.21143 0.0168967)
(-1.31084e-15 2.3885 -0.00306813)
(-1.01294e-15 2.32498 -0.0890609)
(-1.05971e-15 2.9353 0.096871)
(-3.42468e-16 2.27752 0.0665403)
(-6.81308e-16 2.41594 0.0458557)
(1.49747e-16 2.33377 -0.0502585)
(4.51023e-16 2.89731 0.245372)
(1.86318e-16 2.25853 0.142572)
(6.72539e-16 2.2928 0.0298799)
(1.17444e-15 2.84998 0.44834)
(4.65082e-16 2.10027 0.239828)
(2.29926e-16 2.19981 0.203383)
(-5.89685e-16 2.15424 0.0918158)
(8.12803e-15 2.56362 0.636058)
(5.82278e-15 1.9038 0.316115)
(4.00755e-15 1.91264 0.169032)
(4.26094e-15 2.25328 0.796893)
(1.84626e-15 1.59957 0.288845)
(1.46195e-15 1.62636 0.25403)
(1.58715e-15 1.6215 0.14331)
(2.43699e-15 1.7505 0.938166)
(2.56507e-15 1.22843 0.298778)
(2.82983e-15 1.16122 0.355375)
(3.80996e-15 1.27116 0.233883)
(-1.40479e-14 0.829974 1.37132)
(-9.11785e-15 0.769404 0.855423)
(-8.1577e-15 1.03002 1.00681)
(-9.36796e-15 0.0519724 3.28851)
(-6.92283e-15 0.306998 2.41103)
(-7.24222e-15 -0.245269 2.51845)
(-9.04912e-15 0.116276 2.42916)
(-9.16245e-15 0.0366706 2.49302)
(-9.01099e-15 -0.855959 2.7409)
(-7.56822e-15 -1.51739 5.81111)
(-1.62108e-14 -0.852044 5.30973)
(-1.74958e-14 -1.33379 5.65559)
(-1.79422e-14 -1.35054 5.79124)
(-1.78271e-14 -1.45997 5.9755)
(-1.7825e-14 -1.54029 6.17121)
(-1.77986e-14 -1.5852 6.39996)
(-1.76913e-14 -1.75883 6.7584)
(-1.74455e-14 -2.24035 7.22801)
(-1.4606e-14 -2.25562 9.85193)
(-1.76961e-14 -2.56042 8.83785)
(-1.73739e-14 -2.86178 9.21586)
(-1.73672e-14 -2.86054 9.45863)
(-1.71389e-14 -3.01174 10.0622)
(-1.71723e-14 -3.01419 10.2242)
(-1.71454e-14 -3.06958 10.5239)
(-1.71345e-14 -3.20849 10.842)
(-1.7146e-14 -3.58842 11.2231)
(-4.17656e-15 -3.30364 14.0118)
(-1.17235e-14 -3.85074 13.1022)
(-1.14904e-14 -4.01792 13.4447)
(-1.10373e-14 -4.06145 13.6589)
(-1.04246e-14 -4.10593 13.9538)
(-9.26865e-15 -4.17099 14.4077)
(-7.96638e-15 -4.27346 14.9207)
(-7.87494e-15 -4.23607 15.1233)
(-7.41618e-15 -4.35505 15.4436)
(-6.82154e-15 -4.70349 15.7913)
(-4.74532e-15 -4.0094 17.9946)
(-7.61666e-15 -4.95578 17.2653)
(-7.16375e-15 -4.99259 17.5484)
(-7.02017e-15 -5.04073 17.7387)
(-6.82027e-15 -5.10477 17.9885)
(-6.51117e-15 -5.12808 18.2889)
(-5.65016e-15 -5.18378 18.798)
(-5.27255e-15 -5.23895 19.1034)
(-5.0476e-15 -5.56824 19.3368)
(-1.03161e-15 -4.51227 20.768)
(-4.87873e-15 -5.75073 19.9284)
(-4.33307e-15 -5.67901 20.348)
(-3.93477e-15 -5.74454 20.6704)
(-4.28695e-15 -5.7299 20.7918)
(-4.49079e-15 -5.80378 20.9936)
(-4.7953e-15 -5.81425 21.2137)
(-5.25294e-15 -5.84318 21.5092)
(-6.38306e-15 -6.23544 22.0737)
(-5.01586e-15 -4.38251 22.4487)
(-4.56558e-15 -6.24112 21.8424)
(-4.58025e-15 -6.01849 21.9918)
(-4.4784e-15 -5.99101 22.1261)
(-4.10432e-15 -6.02842 22.4533)
(-3.97006e-15 -6.01526 22.5293)
(-3.90817e-15 -6.00413 22.5142)
(-3.79078e-15 -6.07683 22.5056)
(-3.67529e-15 -6.2733 22.4676)
(-3.15296e-15 -3.67436 22.3133)
(-2.62698e-15 -6.40935 22.1842)
(-2.72455e-15 -5.90842 21.9839)
(-2.71997e-15 -5.90652 21.8427)
(-2.69871e-15 -5.75863 21.632)
(-2.68006e-15 -5.65703 21.3922)
(-2.73816e-15 -5.67254 21.1545)
(-2.55736e-15 -5.57054 20.6935)
(-2.4235e-15 -5.54704 20.1273)
(-2.28377e-15 -5.45486 19.428)
(-7.5589e-16 -1.70846 16.3538)
(-7.23678e-16 -5.6925 16.7122)
(-5.17245e-16 -4.84328 15.8132)
(-1.12737e-15 -4.87786 15.1095)
(-1.68483e-15 -4.58016 14.1342)
(-2.54459e-15 -4.49426 12.9257)
(-4.34765e-15 -4.32854 11.1594)
(-6.08554e-15 -3.94067 9.30145)
(-5.47553e-15 -3.68994 8.29868)
(-3.01399e-15 0.339263 3.70905)
(-4.46497e-15 -4.44377 4.31951)
(-3.7712e-15 -3.49748 2.18008)
(-9.34354e-16 -1.21149 -3.74374)
(-3.2035e-15 -4.50099 -1.48886)
(-2.24582e-15 -3.65075 -1.50968)
(-1.88507e-15 -3.04741 -1.01771)
(-2.18313e-15 -3.83344 -1.43832)
(-1.64153e-15 -2.47724 -0.587968)
(-2.0132e-15 -3.37193 -1.01403)
(-2.02751e-15 -2.67923 -0.41778)
(-2.04973e-15 -2.11892 -0.209211)
(-2.81553e-15 -2.82697 -0.353484)
(-2.39074e-15 -2.47306 -0.151735)
(-1.95672e-15 -2.12885 -0.0336613)
(-2.70644e-15 -2.81918 -0.110135)
(-2.00864e-15 -1.82682 0.0269883)
(-2.6294e-15 -2.67384 -0.0489864)
(-2.38437e-15 -2.38425 0.0434638)
(-1.78021e-15 -2.09768 0.118466)
(-2.20059e-15 -2.81613 0.0908088)
(-1.7246e-15 -1.87904 0.152589)
(-2.62369e-15 -2.80512 0.152677)
(-2.07813e-15 -2.54654 0.163256)
(-1.55907e-15 -1.98024 0.162004)
(-2.26086e-15 -2.83559 0.202254)
(-1.97018e-15 -2.70238 0.170895)
(-1.68277e-15 -2.3437 0.157829)
(-2.15458e-15 -3.2405 0.213644)
(-1.40138e-15 -2.15727 0.147874)
(-1.9487e-15 -3.24863 0.233821)
(-1.652e-15 -3.04218 0.161137)
(-1.25951e-15 -2.61794 0.122339)
(-1.79512e-15 -3.63122 0.187347)
(-1.12587e-15 -2.45328 0.104525)
(-1.7787e-15 -3.70974 0.190483)
(-1.25079e-15 -3.4143 0.104914)
(-1.05218e-15 -2.71226 0.043719)
(-1.51238e-15 -3.86752 0.103215)
(-1.08748e-15 -3.62556 0.0260688)
(-8.97433e-16 -3.06241 -0.0149382)
(-1.20362e-15 -4.24197 0.0259599)
(-6.88978e-16 -2.95423 -0.04834)
(-1.24476e-15 -4.3027 -0.00873118)
(-8.12193e-16 -3.95909 -0.081727)
(-2.20607e-16 -3.3688 -0.109568)
(-2.42931e-16 -4.51995 -0.103182)
(-1.56218e-16 -3.27887 -0.133205)
(-3.33098e-16 -4.61564 -0.162904)
(3.84349e-17 -4.21195 -0.195006)
(-2.21318e-16 -3.54015 -0.18841)
(-1.52059e-16 -4.67544 -0.302347)
(3.49386e-17 -4.30411 -0.276518)
(-2.1831e-16 -3.6964 -0.201289)
(-4.25281e-16 -4.60896 -0.352262)
(3.94444e-16 -3.52726 -0.196134)
(7.78942e-16 -4.56954 -0.483865)
(5.70401e-16 -4.07245 -0.387033)
(5.27301e-17 -3.44888 -0.255709)
(6.6636e-16 -4.18307 -0.551265)
(1.48629e-17 -3.06928 -0.28863)
(2.0376e-16 -3.92643 -0.757931)
(1.83554e-16 -3.31654 -0.64512)
(-3.71161e-16 -2.56673 -0.507916)
(-1.70145e-16 -3.24997 -1.03661)
(-1.64427e-15 -2.67759 -1.00276)
(-1.89325e-16 -1.91349 -0.917042)
(-1.24633e-15 -2.72733 -1.43599)
(-5.64149e-16 -1.31599 -1.2227)
(-6.41242e-16 -1.70295 -2.05546)
(-6.43253e-16 -1.05654 -1.66367)
(-1.06384e-15 -0.363482 -1.62529)
(-5.33178e-16 -0.752151 -2.59928)
(-5.40149e-16 -0.939856 -1.79197)
(-9.30716e-16 -0.726761 -2.79873)
(-1.11586e-15 0.131388 -3.89139)
(-4.64285e-16 0.895946 -2.51304)
(-4.70876e-16 1.55404 -3.56398)
(-2.27071e-17 2.64969 -4.75836)
(-3.48434e-17 2.37164 -3.12747)
(-3.91465e-17 4.24821 -4.92997)
(-3.19548e-17 3.82329 -3.52898)
(-1.1351e-16 5.00276 -5.26347)
(-4.11143e-15 -0.155466 11.7201)
(-4.09733e-15 -0.160649 11.759)
(-4.08951e-15 -0.171435 11.7801)
(-4.07978e-15 -0.18282 11.8068)
(-4.06992e-15 -0.198338 11.8334)
(-4.05939e-15 -0.217585 11.8619)
(-4.04814e-15 -0.241293 11.8922)
(-4.03601e-15 -0.270013 11.9248)
(-4.0228e-15 -0.304474 11.9602)
(-4.00832e-15 -0.345482 11.9988)
(-3.99235e-15 -0.393913 12.0413)
(-3.97462e-15 -0.450844 12.0882)
(-3.95487e-15 -0.517568 12.1404)
(-3.93276e-15 -0.595551 12.1985)
(-3.90794e-15 -0.686517 12.2634)
(-3.88002e-15 -0.792566 12.3359)
(-3.84857e-15 -0.916078 12.4172)
(-3.81315e-15 -1.05968 12.5081)
(-3.77327e-15 -1.22642 12.6097)
(-3.72848e-15 -1.41969 12.723)
(-3.67834e-15 -1.64332 12.8488)
(-3.62249e-15 -1.90168 12.9876)
(-3.56069e-15 -2.19921 13.1397)
(-3.49293e-15 -2.54073 13.3047)
(-3.41948e-15 -2.93113 13.4815)
(-3.34104e-15 -3.37511 13.6681)
(-3.25884e-15 -3.87686 13.8615)
(-3.17483e-15 -4.43961 14.0572)
(-3.09179e-15 -5.06517 14.2503)
(-3.01348e-15 -5.75349 14.4353)
(-2.94481e-15 -6.50257 14.6079)
(-2.89206e-15 -7.30904 14.7669)
(-2.86311e-15 -8.16981 14.9169)
(-2.86776e-15 -9.08522 15.0721)
(-2.91795e-15 -10.0632 15.2576)
(-3.02762e-15 -11.1233 15.5105)
(-3.21163e-15 -12.2977 15.8738)
(-3.48337e-15 -13.6256 16.3873)
(-3.85099e-15 -15.1403 17.0732)
(-4.31295e-15 -16.8502 17.9241)
(-4.85385e-15 -18.7193 18.897)
(-5.44167e-15 -20.6522 19.9151)
(-6.02716e-15 -22.4861 20.877)
(-6.54613e-15 -23.9893 21.6674)
(-6.9245e-15 -24.8683 22.1711)
(-7.08914e-15 -24.7769 22.2968)
(-6.98912e-15 -23.2266 22.0125)
(-6.4962e-15 -19.0215 20.9796)
(-4.74933e-15 -10.2364 16.8998)
(-8.86553e-16 -2.22487 8.21156)
(1.20803e-16 -5.48368 7.65964)
(-9.08503e-16 -6.96505 11.2916)
(-1.03124e-15 -7.3985 11.5446)
(-1.42851e-15 -6.37051 11.5797)
(-2.64914e-15 -5.52618 13.4149)
(-4.0744e-15 -5.56386 15.78)
(-4.87387e-15 -5.46955 17.1341)
(-5.20119e-15 -4.66535 17.522)
(-5.4249e-15 -3.31734 17.6801)
(-5.55757e-15 -1.82327 17.7766)
(-5.59862e-15 -0.267819 17.7785)
(-5.56269e-15 1.572 17.6122)
(-5.37763e-15 3.25064 16.9725)
(-5.05763e-15 4.68989 15.9546)
(-4.59895e-15 5.789 14.6254)
(-4.01326e-15 6.55662 13.0395)
(-3.33961e-15 6.93364 11.2416)
(-2.63701e-15 6.84366 9.30589)
(-1.97154e-15 6.32531 7.29277)
(-1.39845e-15 5.62128 5.23069)
(-9.49913e-16 4.85076 3.28209)
(-6.46637e-16 4.14978 1.79825)
(-5.22675e-16 3.66963 1.0014)
(-4.84789e-16 2.78953 -0.510172)
(-4.48073e-16 0.771974 -5.2016)
(-3.83011e-16 -0.752342 -7.04334)
(-3.38885e-16 -0.984437 -7.51243)
(-2.88618e-16 -0.594529 -7.41664)
(-3.14055e-16 -0.00151155 -8.04985)
(-4.0587e-15 -0.165469 11.8701)
(-4.04389e-15 -0.172595 11.9107)
(-4.03573e-15 -0.18358 11.9323)
(-4.0256e-15 -0.19622 11.9597)
(-4.01538e-15 -0.212806 11.9868)
(-4.00451e-15 -0.233346 12.0157)
(-3.99293e-15 -0.25846 12.0463)
(-3.98048e-15 -0.288774 12.0791)
(-3.96699e-15 -0.325018 12.1145)
(-3.95225e-15 -0.368042 12.153)
(-3.93605e-15 -0.418782 12.1953)
(-3.91815e-15 -0.478466 12.2418)
(-3.89824e-15 -0.54833 12.2934)
(-3.87605e-15 -0.629802 12.3506)
(-3.85122e-15 -0.724703 12.4144)
(-3.82338e-15 -0.835155 12.4855)
(-3.79213e-15 -0.963507 12.5649)
(-3.75704e-15 -1.11244 12.6534)
(-3.71767e-15 -1.28506 12.752)
(-3.67359e-15 -1.48478 12.8616)
(-3.62441e-15 -1.71543 12.983)
(-3.56982e-15 -1.98132 13.1164)
(-3.50965e-15 -2.28683 13.2621)
(-3.44393e-15 -2.63667 13.4197)
(-3.37302e-15 -3.03552 13.5878)
(-3.29766e-15 -3.48781 13.7647)
(-3.21917e-15 -3.99742 13.9472)
(-3.13953e-15 -4.56722 14.1314)
(-3.06158e-15 -5.19865 14.3125)
(-2.98911e-15 -5.8915 14.486)
(-2.92709e-15 -6.64388 14.6485)
(-2.88185e-15 -7.45307 14.8002)
(-2.86139e-15 -8.31731 14.9474)
(-2.87563e-15 -9.23892 15.1057)
(-2.93665e-15 -10.2281 15.3018)
(-3.05836e-15 -11.306 15.5729)
(-3.25529e-15 -12.5045 15.9613)
(-3.54008e-15 -13.8595 16.5039)
(-3.91967e-15 -15.3972 17.2189)
(-4.39094e-15 -17.1164 18.0949)
(-4.93679e-15 -18.9701 19.0849)
(-5.52358e-15 -20.8529 20.1096)
(-6.1008e-15 -22.5932 21.0649)
(-6.60336e-15 -23.9535 21.8333)
(-6.9574e-15 -24.6406 22.3004)
(-7.09531e-15 -24.3099 22.3825)
(-6.96291e-15 -22.3861 21.9648)
(-6.28977e-15 -17.3428 20.2314)
(-3.95818e-15 -7.74326 14.4995)
(-6.56456e-17 -2.2459 6.6496)
(-6.85898e-17 -6.24758 8.69486)
(-9.58813e-16 -7.34714 11.4805)
(-1.10254e-15 -7.37773 11.4712)
(-1.72858e-15 -6.52927 11.8305)
(-3.10472e-15 -6.16132 13.9339)
(-4.39726e-15 -6.37723 16.1777)
(-5.05049e-15 -6.13418 17.3383)
(-5.38751e-15 -5.17717 17.8477)
(-5.69377e-15 -3.72181 18.4377)
(-5.92283e-15 -2.01995 19.0533)
(-6.02662e-15 -0.217427 19.3464)
(-6.00307e-15 1.79523 19.1677)
(-5.86224e-15 3.53556 18.5304)
(-5.59747e-15 5.0419 17.5078)
(-5.18194e-15 6.26228 16.1309)
(-4.60647e-15 7.11032 14.4409)
(-3.89653e-15 7.54529 12.4873)
(-3.10971e-15 7.52074 10.3615)
(-2.32474e-15 6.98946 8.15771)
(-1.62091e-15 6.0317 5.90272)
(-1.05247e-15 4.84459 3.72899)
(-6.52885e-16 3.65386 1.9866)
(-4.57671e-16 2.75515 0.739103)
(-4.2515e-16 2.51194 0.0931184)
(-4.59678e-16 1.50624 -2.93279)
(-4.14923e-16 -0.273477 -5.52436)
(-3.7164e-16 -0.972456 -6.77314)
(-3.16392e-16 -0.860681 -7.01247)
(-3.51118e-16 -0.462913 -7.55855)
(-3.99304e-15 -0.169074 12.071)
(-3.97783e-15 -0.177277 12.1123)
(-3.96948e-15 -0.187865 12.1342)
(-3.95915e-15 -0.201132 12.162)
(-3.94872e-15 -0.218172 12.1893)
(-3.93764e-15 -0.239274 12.2183)
(-3.92586e-15 -0.264942 12.2488)
(-3.9132e-15 -0.295818 12.2814)
(-3.89949e-15 -0.332651 12.3164)
(-3.88454e-15 -0.376364 12.3543)
(-3.86813e-15 -0.428094 12.3957)
(-3.85002e-15 -0.488968 12.4411)
(-3.82995e-15 -0.56008 12.4914)
(-3.80765e-15 -0.643315 12.547)
(-3.78279e-15 -0.740254 12.6087)
(-3.75502e-15 -0.853038 12.6774)
(-3.72397e-15 -0.983956 12.7537)
(-3.68925e-15 -1.13575 12.8387)
(-3.65046e-15 -1.31144 12.933)
(-3.60724e-15 -1.51442 13.0375)
(-3.55925e-15 -1.74846 13.1528)
(-3.50625e-15 -2.01772 13.2792)
(-3.44813e-15 -2.32647 13.4166)
(-3.38501e-15 -2.67924 13.5645)
(-3.31732e-15 -3.08047 13.7217)
(-3.24588e-15 -3.53439 13.8862)
(-3.17207e-15 -4.04459 14.0551)
(-3.09795e-15 -4.61375 14.2247)
(-3.02639e-15 -5.24326 14.3909)
(-2.96123e-15 -5.93306 14.55)
(-2.90752e-15 -6.68188 14.6999)
(-2.87169e-15 -7.48816 14.8424)
(-2.86186e-15 -8.35206 14.9857)
(-2.88812e-15 -9.27837 15.1474)
(-2.96265e-15 -10.28 15.3556)
(-3.09929e-15 -11.3799 15.6476)
(-3.3121e-15 -12.6101 16.0641)
(-3.61273e-15 -14.0034 16.6386)
(-4.00658e-15 -15.5804 17.3848)
(-4.4886e-15 -17.3317 18.2861)
(-5.03961e-15 -19.2018 19.2918)
(-5.62405e-15 -21.0777 20.3196)
(-6.18984e-15 -22.7822 21.2635)
(-6.67091e-15 -24.0754 22.0043)
(-6.99498e-15 -24.6671 22.433)
(-7.10195e-15 -24.2027 22.4738)
(-6.9121e-15 -21.9625 21.876)
(-5.95467e-15 -16.176 19.2299)
(-3.01461e-15 -6.39697 11.8385)
(4.16418e-16 -2.96446 5.74998)
(-3.07821e-16 -6.62457 9.63439)
(-1.01552e-15 -7.61404 11.6262)
(-1.23999e-15 -7.37431 11.4918)
(-2.14223e-15 -6.73358 12.3102)
(-3.62542e-15 -6.63962 14.6015)
(-4.76317e-15 -6.80217 16.6328)
(-5.31881e-15 -6.36028 17.753)
(-5.69216e-15 -5.26542 18.6014)
(-5.99515e-15 -3.72556 19.4958)
(-6.13643e-15 -2.00282 20.0587)
(-6.15e-15 -0.216097 20.1319)
(-6.11489e-15 1.80703 19.89)
(-6.01172e-15 3.62406 19.2825)
(-5.80443e-15 5.20267 18.3126)
(-5.44845e-15 6.49187 16.9776)
(-4.9191e-15 7.40707 15.2955)
(-4.22913e-15 7.89906 13.3074)
(-3.42907e-15 7.92632 11.1031)
(-2.59764e-15 7.44111 8.77334)
(-1.82078e-15 6.49584 6.35476)
(-1.16909e-15 5.2318 4.00526)
(-6.91396e-16 3.86434 2.04825)
(-4.26269e-16 2.58013 0.648642)
(-3.51162e-16 2.19822 0.305482)
(-4.29337e-16 2.067 -0.767712)
(-4.37443e-16 0.699288 -3.71061)
(-4.09195e-16 -0.184236 -5.56788)
(-3.51159e-16 -0.308254 -6.30975)
(-4.00803e-16 -0.145547 -6.71752)
(-3.92067e-15 -0.173266 12.2903)
(-3.90558e-15 -0.181806 12.3309)
(-3.89727e-15 -0.191972 12.3525)
(-3.88702e-15 -0.2056 12.38)
(-3.87669e-15 -0.223034 12.4069)
(-3.86571e-15 -0.244663 12.4354)
(-3.85402e-15 -0.27096 12.4655)
(-3.84147e-15 -0.302494 12.4975)
(-3.82788e-15 -0.339971 12.532)
(-3.81306e-15 -0.384258 12.5692)
(-3.7968e-15 -0.436479 12.6097)
(-3.77887e-15 -0.497687 12.654)
(-3.75903e-15 -0.569214 12.7028)
(-3.73699e-15 -0.652939 12.7566)
(-3.71244e-15 -0.750449 12.8161)
(-3.68507e-15 -0.863831 12.882)
(-3.65452e-15 -0.995501 12.9551)
(-3.62046e-15 -1.14815 13.036)
(-3.58252e-15 -1.32479 13.1256)
(-3.54039e-15 -1.52878 13.2244)
(-3.4938e-15 -1.76382 13.333)
(-3.4426e-15 -2.034 13.4515)
(-3.38673e-15 -2.34349 13.5798)
(-3.32642e-15 -2.69663 13.7172)
(-3.26215e-15 -3.09771 13.8626)
(-3.19486e-15 -3.55075 14.0139)
(-3.12598e-15 -4.05916 14.1684)
(-3.05764e-15 -4.6255 14.3229)
(-2.99278e-15 -5.25119 14.4737)
(-2.93529e-15 -5.93645 14.6182)
(-2.89031e-15 -6.68066 14.7557)
(-2.86436e-15 -7.48347 14.8896)
(-2.86572e-15 -8.34674 15.0303)
(-2.90463e-15 -9.27736 15.197)
(-2.99338e-15 -10.2901 15.4191)
(-3.14561e-15 -11.4092 15.7338)
(-3.37484e-15 -12.6655 16.1798)
(-3.6916e-15 -14.0888 16.7869)
(-4.09964e-15 -15.6941 17.5637)
(-4.59192e-15 -17.4651 18.4887)
(-5.14712e-15 -19.3403 19.507)
(-5.72773e-15 -21.2016 20.5334)
(-6.28005e-15 -22.8692 21.4596)
(-6.73741e-15 -24.1051 22.1662)
(-7.03113e-15 -24.6267 22.5528)
(-7.10641e-15 -24.0552 22.535)
(-6.82632e-15 -21.4997 21.6445)
(-5.51157e-15 -15.1379 17.925)
(-2.10392e-15 -5.89665 9.40123)
(4.67193e-16 -4.39527 6.07149)
(-5.31948e-16 -7.08477 10.4225)
(-1.07466e-15 -7.78748 11.6894)
(-1.44765e-15 -7.43148 11.6005)
(-2.61972e-15 -7.07492 12.8858)
(-4.14263e-15 -7.19849 15.2782)
(-5.13808e-15 -7.22415 17.1822)
(-5.62717e-15 -6.59085 18.4225)
(-5.97271e-15 -5.39855 19.5156)
(-6.17487e-15 -3.81855 20.4008)
(-6.22059e-15 -2.05619 20.8059)
(-6.20971e-15 -0.205248 20.8249)
(-6.18563e-15 1.87477 20.5764)
(-6.13479e-15 3.76272 20.0295)
(-6.00245e-15 5.42526 19.1426)
(-5.72453e-15 6.7977 17.8772)
(-5.25673e-15 7.78862 16.2234)
(-4.59574e-15 8.34754 14.2152)
(-3.7844e-15 8.42282 11.9411)
(-2.90312e-15 7.96012 9.4959)
(-2.04801e-15 6.98221 6.94669)
(-1.30853e-15 5.62416 4.45627)
(-7.5007e-16 4.13192 2.31456)
(-4.22381e-16 2.75487 0.678554)
(-2.90371e-16 2.01041 0.0554123)
(-3.58264e-16 1.6792 -0.214137)
(-4.35409e-16 1.02264 -2.19179)
(-4.37176e-16 0.236493 -4.22068)
(-3.85755e-16 -0.0302462 -5.33258)
(-4.5749e-16 -0.112788 -6.15881)
(-3.84427e-15 -0.178003 12.522)
(-3.82964e-15 -0.186306 12.561)
(-3.82153e-15 -0.195773 12.5818)
(-3.81159e-15 -0.209264 12.6081)
(-3.80153e-15 -0.226665 12.6339)
(-3.79085e-15 -0.248547 12.6613)
(-3.77946e-15 -0.275314 12.6902)
(-3.76721e-15 -0.307558 12.7211)
(-3.75395e-15 -0.345955 12.7543)
(-3.73947e-15 -0.391306 12.7902)
(-3.72359e-15 -0.444501 12.8292)
(-3.70611e-15 -0.506732 12.8719)
(-3.68676e-15 -0.579542 12.9187)
(-3.66527e-15 -0.664369 12.9702)
(-3.64137e-15 -0.762989 13.0272)
(-3.61474e-15 -0.877455 13.0901)
(-3.58506e-15 -1.01022 13.1596)
(-3.55203e-15 -1.16391 13.2363)
(-3.51532e-15 -1.34155 13.3209)
(-3.47466e-15 -1.54652 13.4138)
(-3.42985e-15 -1.78244 13.5153)
(-3.38077e-15 -2.05337 13.6257)
(-3.32746e-15 -2.3634 13.7446)
(-3.27022e-15 -2.7168 13.8712)
(-3.20962e-15 -3.11773 14.0044)
(-3.14667e-15 -3.57007 14.1423)
(-3.08288e-15 -4.07717 14.2823)
(-3.02046e-15 -4.64153 14.4215)
(-2.9624e-15 -5.26469 14.5572)
(-2.9127e-15 -5.94721 14.6876)
(-2.87655e-15 -6.68921 14.8136)
(-2.86064e-15 -7.49147 14.9403)
(-2.87336e-15 -8.35741 15.0799)
(-2.92515e-15 -9.29574 15.2536)
(-3.02827e-15 -10.3228 15.4916)
(-3.19619e-15 -11.4632 15.8305)
(-3.44173e-15 -12.7467 16.307)
(-3.77424e-15 -14.1997 16.9465)
(-4.19579e-15 -15.8319 17.7527)
(-4.69732e-15 -17.6214 18.699)
(-5.25543e-15 -19.5008 19.7263)
(-5.83066e-15 -21.3478 20.7463)
(-6.36777e-15 -22.9808 21.6483)
(-6.80029e-15 -24.1654 22.3149)
(-7.06496e-15 -24.6242 22.6557)
(-7.10493e-15 -23.9279 22.5474)
(-6.69472e-15 -20.9965 21.2336)
(-4.98254e-15 -14.1206 16.3824)
(-1.30874e-15 -5.58245 7.448)
(2.85024e-16 -5.16433 7.01436)
(-7.13917e-16 -7.40999 11.0077)
(-1.14963e-15 -7.91467 11.6827)
(-1.73762e-15 -7.61768 11.8079)
(-3.15184e-15 -7.55607 13.542)
(-4.64936e-15 -7.80221 15.9946)
(-5.4951e-15 -7.65868 17.8537)
(-5.89775e-15 -6.86892 19.207)
(-6.14879e-15 -5.59457 20.3436)
(-6.22368e-15 -3.9583 21.0738)
(-6.186e-15 -2.13659 21.3247)
(-6.14233e-15 -0.230746 21.264)
(-6.13153e-15 1.90004 21.0126)
(-6.14237e-15 3.85525 20.5549)
(-6.10109e-15 5.60126 19.7955)
(-5.92347e-15 7.06177 18.6531)
(-5.54362e-15 8.1407 17.0824)
(-4.93888e-15 8.77907 15.0962)
(-4.14007e-15 8.90892 12.7739)
(-3.22457e-15 8.47734 10.2274)
(-2.29719e-15 7.48356 7.55502)
(-1.46726e-15 6.0752 4.92884)
(-8.24701e-16 4.49622 2.64436)
(-4.34918e-16 3.04111 0.883941)
(-2.75858e-16 2.22773 -0.0706259)
(-3.16275e-16 1.71952 -0.0961513)
(-4.03235e-16 1.03506 -0.812653)
(-4.46212e-16 0.419761 -2.76491)
(-4.04491e-16 0.0508551 -4.23093)
(-3.25667e-16 -0.191465 -5.18955)
(-3.76547e-15 -0.184447 12.7643)
(-3.75161e-15 -0.192456 12.8012)
(-3.74384e-15 -0.201269 12.8206)
(-3.73436e-15 -0.214411 12.8453)
(-3.72473e-15 -0.231475 12.8696)
(-3.71448e-15 -0.25316 12.8954)
(-3.70355e-15 -0.279871 12.9227)
(-3.69178e-15 -0.312248 12.9518)
(-3.679e-15 -0.350989 12.983)
(-3.66505e-15 -0.396927 13.0169)
(-3.64974e-15 -0.450967 13.0538)
(-3.63286e-15 -0.514311 13.094)
(-3.61417e-15 -0.588363 13.1382)
(-3.59342e-15 -0.674587 13.1869)
(-3.57036e-15 -0.774758 13.2406)
(-3.54469e-15 -0.890928 13.2999)
(-3.51613e-15 -1.02544 13.3653)
(-3.48438e-15 -1.18091 13.4372)
(-3.44919e-15 -1.36033 13.5163)
(-3.4103e-15 -1.56705 13.6028)
(-3.36756e-15 -1.80465 13.697)
(-3.32092e-15 -2.07712 13.7989)
(-3.27048e-15 -2.38849 13.908)
(-3.21661e-15 -2.74294 14.0237)
(-3.15994e-15 -3.14456 14.1446)
(-3.10157e-15 -3.59714 14.2689)
(-3.04307e-15 -4.10398 14.3943)
(-2.98673e-15 -4.66761 14.5186)
(-2.93562e-15 -5.28975 14.6396)
(-2.89381e-15 -5.97138 14.7568)
(-2.86661e-15 -6.71337 14.8724)
(-2.86084e-15 -7.51763 14.9934)
(-2.88507e-15 -8.3891 15.1339)
(-2.94984e-15 -9.33816 15.3165)
(-3.06741e-15 -10.3824 15.5721)
(-3.25092e-15 -11.5469 15.9367)
(-3.51247e-15 -12.8599 16.4439)
(-3.86015e-15 -14.3446 17.1151)
(-4.29432e-15 -16.0057 17.9487)
(-4.80393e-15 -17.8155 18.9131)
(-5.36353e-15 -19.7011 19.9453)
(-5.93173e-15 -21.536 20.9537)
(-6.45198e-15 -23.1367 21.8256)
(-6.8592e-15 -24.2729 22.4486)
(-7.09612e-15 -24.6644 22.7393)
(-7.09162e-15 -23.8 22.4964)
(-6.50852e-15 -20.4082 20.6391)
(-4.3937e-15 -13.0207 14.7196)
(-6.74602e-16 -5.08099 6.12681)
(3.62714e-17 -5.2966 8.05681)
(-8.52896e-16 -7.53624 11.3608)
(-1.26742e-15 -7.99486 11.6367)
(-2.12605e-15 -7.88662 12.1422)
(-3.72597e-15 -8.10353 14.2905)
(-5.1201e-15 -8.37389 16.7612)