/*--------------------------------*- C++ -*----------------------------------*\
| =========                 |                                                 |
| \\      /  F ield         | OpenFOAM: The Open Source CFD Toolbox           |
|  \\    /   O peration     | Version:  4.1                                   |
|   \\  /    A nd           | Web:      www.OpenFOAM.org                      |
|    \\/     M anipulation  |                                                 |
\*---------------------------------------------------------------------------*/
FoamFile
{
    version     2.0;
    format      ascii;
    class       volScalarField;
    location    "26";
    object      k;
}
// * * * * * * * * * * * * * * * * * * * * * * * * * * * * * * * * * * * * * //

dimensions      [0 2 -2 0 0 0 0];

internalField   nonuniform List<scalar> 
6785
(
0.412283
0.000185846
0.000177581
0.000177587
0.00017761
0.000177568
0.000177589
0.000177609
0.000177569
0.000177591
0.00017761
0.00017756
0.000177822
0.000506684
0.520321
0.526937
0.000832773
2.58006e-07
2.41243e-07
2.29828e-07
2.18174e-07
2.06982e-07
1.95833e-07
1.844e-07
1.72877e-07
1.61948e-07
2.034e-07
6.37248e-05
0.00754774
0.142605
0.653855
0.00543902
1.09418e-08
4.46579e-09
1.0675e-07
4.42502e-07
9.66887e-07
1.89381e-06
5.63007e-06
2.74793e-05
0.000151602
0.000779321
0.00383345
0.0180091
0.0141057
0.809675
0.0226943
0.000193086
3.87632e-07
2.45772e-07
1.00354e-06
4.0961e-06
8.70605e-06
1.87968e-05
4.13529e-05
0.000131597
0.00053281
0.0023383
0.00666156
0.00725664
0.964659
0.0388569
0.000530498
8.17444e-06
3.88494e-06
1.41087e-05
0.000125833
0.000414299
0.00124053
0.0021614
0.0023198
0.00216185
0.0033669
0.00568603
0.0102335
1.12143
0.035618
0.00016411
9.993e-05
0.000801352
0.00358916
0.0112231
0.0241132
0.0422404
0.0459688
0.0215785
0.00512556
0.0041476
0.00462199
0.0212074
1.28568
0.0402354
0.000279823
0.000844776
0.00436159
0.0145639
0.0377641
0.074361
0.117582
0.114601
0.0493046
0.0127778
0.0120122
0.0121342
0.0353865
1.42108
0.106082
0.00163302
0.00134302
0.00652085
0.0199773
0.0486346
0.087457
0.127731
0.127053
0.0748581
0.0385935
0.0273095
0.0240147
0.0336834
1.49511
0.219603
0.0175613
0.00277616
0.00666614
0.0190649
0.0475743
0.0823924
0.114488
0.114307
0.0749421
0.0381592
0.0242433
0.010913
0.0183241
1.50186
0.344327
0.0476957
0.00882643
0.00756795
0.0178512
0.0446412
0.0776436
0.10781
0.10941
0.071378
0.0374031
0.021385
0.0134154
0.0129681
1.46442
0.459447
0.0777429
0.0185051
0.0103096
0.0173225
0.0429043
0.0759027
0.107057
0.11157
0.0695683
0.0348829
0.0183749
0.0153804
0.013096
1.41251
0.570909
0.105236
0.0306103
0.0147864
0.0181042
0.0423124
0.0759835
0.107481
0.112215
0.064262
0.0300354
0.0154943
0.0148469
0.0119637
1.37396
0.669417
0.148446
0.0570439
0.0283123
0.0225262
0.0391048
0.0667084
0.0958124
0.105136
0.0748594
0.0396555
0.019487
0.0156547
0.0144771
1.26937
0.578277
0.125875
0.0578492
0.0318983
0.0273761
0.0418373
0.0642295
0.102616
0.117823
0.0725025
0.037556
0.0198483
0.0205022
0.0310286
1.42743
0.665751
0.25173
0.161642
0.0524284
1.5e-15
0.0615415
0.214679
0.340372
0.349658
0.0860445
0.0218224
0.0064592
0.0298468
0.0302503
1.05217
1.02983
0.961027
0.942795
0.927682
0.936578
0.885314
0.875686
0.866889
0.883295
0.839039
0.83231
0.850311
0.809085
0.803495
0.797601
0.81696
0.777162
0.772817
0.794951
0.759574
0.75766
0.756609
0.785837
0.748743
0.747048
0.747513
0.781568
0.740576
0.737885
0.769603
0.719592
0.712177
0.709001
0.743152
0.692179
0.685355
0.715762
0.657619
0.645908
0.639109
0.671506
0.620441
0.613699
0.612963
0.659825
0.609781
0.60485
0.647846
0.583899
0.5706
0.563115
0.605689
0.539151
0.526119
0.518569
0.566982
0.4988
0.488912
0.538753
0.45663
0.442228
0.434262
0.490384
0.406496
0.396775
0.451973
0.37274
0.364817
0.363476
0.413431
0.38107
0.388269
0.397922
0.434781
0.418549
0.426354
0.446656
0.431727
0.436592
0.441493
0.436379
0.427892
0.42169
0.388096
0.385494
0.373824
0.368771
0.366765
0.371379
0.38087
0.381236
0.380602
0.350802
0.351211
0.345429
0.355872
0.370818
0.379337
0.386009
0.384681
0.376908
0.342814
0.343388
0.341202
0.342363
0.342507
0.33707
0.328135
0.321998
0.310847
0.29925
0.286315
0.281885
0.274978
0.268415
0.261358
0.253303
0.247341
0.241226
0.235048
0.229091
0.22367
0.216828
0.215065
0.214329
0.213176
0.212848
0.208335
0.215668
0.226693
0.233043
0.241991
0.25085
0.258606
0.268154
0.279977
0.29355
0.312658
0.341785
0.353567
0.369001
0.38451
0.403642
0.422968
0.441513
0.465117
0.488763
0.519748
0.569317
0.581182
0.593611
0.603737
0.615687
0.627178
0.629683
0.60986
0.577637
0.573443
0.548372
0.530432
0.551102
0.577195
0.609167
0.634946
0.671291
0.702122
0.735604
0.77595
0.807396
0.845202
0.892732
0.929306
0.988924
1.03522
1.09538
1.17186
1.22605
1.30254
1.37097
1.4574
1.54408
1.63364
1.70674
1.72074
1.84503
1.8214
1.98607
2.03973
1.92489
1.98853
1.90078
1.98444
2.03482
1.94274
1.98256
1.98633
1.88801
1.8628
1.77816
1.746
1.70603
1.62276
1.59022
1.52207
1.57836
1.85487
1.80886
2.64516
2.84925
2.6772
2.39739
2.27208
2.07281
1.95941
1.85631
1.74795
1.66373
1.58047
1.5026
1.42873
1.35605
1.27448
1.03743
0.248996
0.102201
0.0966715
0.0964402
0.0958349
0.095428
0.0960678
0.0956772
0.0949401
0.0957397
0.0953605
0.0946262
0.095368
0.0949974
0.0942411
0.0946907
0.531529
0.558024
0.587441
0.620005
0.654642
0.691956
0.733976
0.782941
0.840669
0.906414
0.980406
1.05952
1.14287
1.22852
1.31495
1.40099
1.48266
1.56633
1.66519
1.78514
1.92823
2.09746
2.27999
2.47659
2.66049
2.81552
2.94532
3.05872
3.16685
3.28426
3.4165
3.58001
3.80763
4.1053
4.4632
4.88872
5.37214
5.92564
6.51845
7.10845
7.63378
8.02857
8.2409
8.26547
8.18311
8.1179
8.13433
8.09836
7.80028
7.25377
6.63047
6.03498
5.48588
4.98622
4.54062
4.15901
3.85369
3.63303
3.49888
3.44687
3.46986
3.54744
3.64993
3.74946
3.81934
3.82877
3.76883
3.6215
3.36962
3.01533
2.59142
2.15432
1.74843
1.39587
1.0815
0.766704
0.40576
0.173478
0.116606
0.542802
0.570334
0.601028
0.634664
0.670095
0.707786
0.749843
0.798822
0.85694
0.923329
0.998285
1.07816
1.1626
1.24982
1.33831
1.42699
1.51028
1.59448
1.69317
1.81271
1.95573
2.12685
2.31136
2.51292
2.70315
2.86326
2.99674
3.11194
3.21844
3.33299
3.46121
3.61977
3.84658
4.1469
4.50738
4.9384
5.42691
5.99114
6.59815
7.20805
7.75741
8.17925
8.41761
8.45999
8.38517
8.30827
8.29018
8.218
7.89747
7.33056
6.68045
6.05896
5.49135
4.98096
4.52942
4.14271
3.83108
3.60056
3.45072
3.37274
3.35778
3.38944
3.44097
3.48551
3.50593
3.48021
3.39871
3.24776
3.01533
2.70687
2.34906
1.98136
1.63408
1.31738
1.01513
0.698107
0.361489
0.161778
0.117142
0.557625
0.587243
0.620132
0.655713
0.692864
0.731924
0.77506
0.825109
0.88439
0.952651
1.02935
1.11076
1.19683
1.286
1.37685
1.46813
1.55402
1.64005
1.73865
1.85763
2.00099
2.17431
2.36213
2.56771
2.76387
2.92693
3.06277
3.18087
3.28867
3.40287
3.53192
3.6926
3.92516
4.23422
4.60385
5.04729
5.54852
6.13142
6.7599
7.39682
7.9757
8.42871
8.69438
8.74963
8.66474
8.5512
8.47749
8.35207
7.98832
7.37618
6.67672
6.01356
5.41985
4.89652
4.44171
4.05426
3.74317
3.51243
3.35928
3.27033
3.23214
3.22967
3.24225
3.24969
3.23938
3.19325
3.10211
2.95521
2.74517
2.47643
2.17045
1.8542
1.54677
1.25146
0.953581
0.635912
0.324056
0.153674
0.118226
0.573712
0.605653
0.641073
0.678931
0.718156
0.758979
0.803755
0.855508
0.916301
0.986985
1.06586
1.14906
1.23686
1.32793
1.421
1.51433
1.60329
1.69176
1.78994
1.9081
2.05139
2.2263
2.41852
2.62724
2.82766
2.9928
3.1311
3.25259
3.36308
3.47805
3.60999
3.77624
4.01766
4.33737
4.71819
5.17703
5.694
6.29836
6.95049
7.61608
8.22598
8.71235
9.00976
9.08555
8.99812
8.85327
8.72162
8.52896
8.10737
7.44217
6.6896
5.98242
5.3615
4.82567
4.3669
3.97785
3.66142
3.41937
3.25005
3.1416
3.08057
3.05242
3.03923
3.02664
2.9996
2.94461
2.85324
2.71663
2.52976
2.29596
2.03074
1.75257
1.47249
1.18981
0.892862
0.577624
0.292258
0.148409
0.119103
0.589882
0.624367
0.662614
0.703014
0.744546
0.787319
0.833997
0.887859
0.950721
1.02387
1.10518
1.19025
1.27973
1.37266
1.46789
1.56335
1.65541
1.74629
1.8442
1.96097
2.1041
2.28026
2.47678
2.68716
2.89107
3.05933
3.20023
3.32504
3.43833
3.55476
3.69037
3.86346
4.11425
4.44455
4.83706
5.31265
5.84681
6.47368
7.15033
7.84444
8.48518
9.00513
9.33605
9.43584
9.34987
9.17655
8.9901
8.73117
8.24764
7.52252
6.70998
5.95281
5.30072
4.75089
4.28821
3.90039
3.58273
3.33394
3.15185
3.02635
2.94557
2.89687
2.8633
2.83474
2.79576
2.73554
2.64664
2.52158
2.35537
2.15032
1.9169
1.66623
1.40444
1.12873
0.831603
0.52289
0.265414
0.145087
0.120821
0.606158
0.643287
0.684672
0.727882
0.771927
0.816771
0.86546
0.921607
0.986902
1.06254
1.14612
1.23341
1.3247
1.41955
1.51696
1.61476
1.70984
1.80272
1.90069
2.01555
2.15828
2.33498
2.53411
2.74625
2.95421
3.12581
3.26932
3.39716
3.5134
3.63206
3.77177
3.95206
4.21237
4.55252
4.95648
5.44866
6.00179
6.65176
7.35335
8.07565
8.74648
9.29955
9.66497
9.79251
9.71398
9.51916
9.28318
8.95916
8.41073
7.62117
6.74336
5.93072
5.24251
4.67544
4.20846
3.82215
3.50515
3.25234
3.06048
2.92097
2.82405
2.75983
2.71316
2.67666
2.62978
2.56625
2.48045
2.36542
2.21661
2.03428
1.82391
1.59203
1.34133
1.06843
0.771177
0.473133
0.243747
0.143774
0.123543
0.622478
0.66228
0.707115
0.753435
0.800233
0.847275
0.89808
0.95663
1.02451
1.10277
1.18875
1.27858
1.37208
1.46907
1.5688
1.66899
1.76656
1.86083
1.95893
2.07244
2.21387
2.39071
2.59116
2.80526
3.0169
3.19306
3.33847
3.46903
3.58841
3.70993
3.85413
4.04186
4.31163
4.66066
5.07553
5.58313
6.1573
6.83075
7.55745
8.30753
9.00748
9.59243
9.99212
10.1501
10.0839
9.87425
9.59528
9.21039
8.59735
7.74101
6.79403
5.92068
5.19075
4.6023
4.12906
3.74445
3.43068
3.17804
2.98123
2.8326
2.72419
2.64791
2.59119
2.5482
2.49588
2.43072
2.34824
2.2419
2.10628
1.9404
1.74616
1.52635
1.28149
1.00873
0.712609
0.429066
0.22693
0.144327
0.127242
0.638921
0.681294
0.729882
0.779644
0.829478
0.878862
0.931883
0.992925
1.0635
1.14448
1.2331
1.32567
1.42171
1.52105
1.62317
1.72563
1.82505
1.92042
2.01874
2.13148
2.27156
2.44814
2.64845
2.86474
3.07923
3.26039
3.40775
3.54099
3.66327
3.78818
3.93723
4.13254
4.41154
4.76895
5.19435
5.71615
6.31255
7.00952
7.76129
8.53846
9.26652
9.88167
10.3148
10.505
10.456
10.2387
9.92421
9.48418
8.80873
7.88522
6.86661
5.92786
5.15035
4.53507
4.05178
3.66745
3.35783
3.10833
2.91077
2.75767
2.64259
2.55859
2.4954
2.44522
2.3888
2.32279
2.24307
2.1432
2.01742
1.86285
1.67894
1.4661
1.22332
0.949353
0.65669
0.390793
0.214358
0.14662
0.132521
0.655584
0.700367
0.752891
0.806437
0.85964
0.911545
0.966894
1.03051
1.10385
1.18759
1.27889
1.37434
1.47311
1.57488
1.67935
1.78394
1.88502
1.98137
2.07988
2.192
2.3313
2.50665
2.70624
2.92435
3.14064
3.32626
3.47659
3.6125
3.73788
3.86665
4.02084
4.22365
4.51188
4.87774
5.31371
5.84867
6.46729
7.18753
7.96429
8.76737
9.5224
10.1659
10.631
10.8538
10.8258
10.6078
10.2659
9.77818
9.04491
8.05588
6.96456
5.95637
5.12537
4.47727
3.97927
3.5926
3.28675
3.0422
2.84713
2.69327
2.5752
2.4864
2.41883
2.36301
2.30339
2.23678
2.15915
2.06357
1.94412
1.79664
1.61886
1.40925
1.16595
0.890609
0.604279
0.358212
0.205514
0.150586
0.139397
0.672576
0.719628
0.776075
0.833738
0.890685
0.94533
1.00313
1.06942
1.14556
1.23213
1.32611
1.42454
1.52618
1.63046
1.73725
1.84383
1.94635
2.04353
2.14221
2.25386
2.39237
2.56668
2.76505
2.98343
3.20105
3.39045
3.54468
3.68321
3.81203
3.94515
4.10468
4.3148
4.61212
4.98687
5.43413
5.98184
6.62158
7.36433
8.16603
8.99351
9.77399
10.4437
10.9384
11.193
11.1891
10.9768
10.6159
10.0891
9.30475
8.25412
7.09077
6.01013
5.11998
4.43266
3.91442
3.52168
3.21795
2.97848
2.78796
2.63617
2.51811
2.42708
2.35695
2.29693
2.2348
2.16754
2.09067
1.99776
1.88191
1.7383
1.56372
1.35451
1.10901
0.833138
0.556124
0.331121
0.2002
0.157394
0.156708
0.690018
0.739222
0.799431
0.86147
0.922548
0.980199
1.04059
1.10967
1.18866
1.27811
1.3748
1.47625
1.58086
1.68771
1.79675
1.90517
2.00891
2.10672
2.20549
2.31698
2.45478
2.62835
2.82483
3.0436
3.26085
3.45302
3.61183
3.75294
3.88563
4.02354
4.18849
4.40566
4.71181
5.09606
5.5558
6.11663
6.77575
7.53974
8.3662
9.21641
10.0204
10.7138
11.235
11.5195
11.5411
11.3399
10.9685
10.4121
9.5856
8.47977
7.24721
6.09259
5.13822
4.40516
3.8605
3.45702
3.15265
2.9174
2.73211
2.58449
2.46842
2.37741
2.30627
2.24351
2.17941
2.11143
2.0345
1.94235
1.82802
1.68599
1.51198
1.30102
1.05249
0.777698
0.512768
0.30939
0.199049
0.17178
0.216348
0.70806
0.759312
0.823095
0.889593
0.955142
1.01611
1.07925
1.15131
1.23321
1.32557
1.42499
1.52947
1.6371
1.74654
1.85775
1.96783
2.07255
2.1708
2.26961
2.38109
2.5182
2.69044
2.88646
3.10437
3.31947
3.51389
3.67749
3.82162
3.95859
4.10164
4.27203
4.49595
4.81054
5.20478
5.67822
6.25299
6.93028
7.71408
8.56444
9.43558
10.2608
10.9749
11.5188
11.8299
11.8771
11.6912
11.3169
10.7412
9.88308
8.73109
7.43473
6.20653
5.18392
4.3988
3.82115
3.40137
3.09255
2.85954
2.67908
2.53633
2.42367
2.33413
2.26357
2.1993
2.13371
2.06455
1.98695
1.89444
1.78018
1.63822
1.4626
1.2483
0.996664
0.725054
0.474566
0.292937
0.202462
0.193343
0.285526
0.726882
0.780096
0.847278
0.91812
0.988369
1.05299
1.11904
1.19425
1.27916
1.37449
1.47672
1.58422
1.69486
1.80689
1.92014
2.03166
2.13711
2.23563
2.33456
2.44617
2.58254
2.75299
2.9494
3.16458
3.37732
3.5735
3.74162
3.88921
4.0308
4.17925
4.35506
4.58533
4.9079
5.31248
5.80059
6.39037
7.08571
7.88799
8.76058
9.65065
10.4943
11.2258
11.7879
12.1211
12.1925
12.0242
11.6537
11.0686
10.191
9.00444
7.65261
6.35376
5.2605
4.41765
3.80035
3.35819
3.04022
2.80643
2.62925
2.49122
2.38252
2.29584
2.22721
2.16222
2.09538
2.02491
1.94612
1.85257
1.73747
1.59377
1.41496
1.19615
0.941983
0.675909
0.44174
0.281678
0.210584
0.221118
0.357179
0.746744
0.801769
0.8722
0.947134
1.02213
1.09074
1.15986
1.23834
1.32641
1.42486
1.53
1.6405
1.75407
1.86863
1.98377
2.09649
2.2024
2.30105
2.40019
2.51224
2.64812
2.81632
3.01232
3.22517
3.43484
3.63187
3.80428
3.95574
4.10216
4.25612
4.43736
4.67364
5.00371
5.41883
5.92216
6.52831
7.24232
8.06206
8.95478
9.86145
10.7206
11.4654
12.0409
12.3907
12.4828
12.3325
11.9708
11.3857
10.5011
9.29399
7.8982
6.53468
5.37058
4.46547
3.80221
3.33138
2.9991
2.76087
2.58461
2.45014
2.34511
2.26164
2.19556
2.13029
2.06242
1.99078
1.91079
1.81577
1.6987
1.55196
1.36848
1.14455
0.889012
0.630857
0.414392
0.275524
0.223514
0.255277
0.438923
0.76791
0.824556
0.898095
0.976709
1.05634
1.12924
1.2016
1.28347
1.3749
1.47668
1.58484
1.6983
1.81467
1.93166
2.04849
2.16212
2.26824
2.36685
2.46626
2.57906
2.715
2.88124
3.07493
3.28517
3.49285
3.68973
3.86572
4.02123
4.17259
4.332
4.51872
4.76085
5.09809
5.52395
6.04232
6.66653
7.40026
8.23686
9.14743
10.0681
10.9393
11.6931
12.2763
12.6364
12.7438
12.6099
12.26
11.6826
10.8037
9.59152
8.16642
6.74772
5.51547
4.54538
3.83055
3.32484
2.97278
2.72608
2.54804
2.41571
2.314
2.23389
2.16894
2.10346
2.03491
1.96206
1.88054
1.78361
1.66324
1.51218
1.32285
1.09364
0.838353
0.590367
0.392546
0.274383
0.241226
0.294992
0.520532
0.790624
0.848766
0.925281
1.00705
1.09085
1.16833
1.24413
1.32955
1.42458
1.52989
1.64121
1.75758
1.8766
1.99582
2.11411
2.22834
2.33438
2.4328
2.53249
2.64624
2.78266
2.94773
3.13835
3.34505
3.55124
3.7478
3.92633
4.08573
4.24203
4.40668
4.59891
4.84703
5.19152
5.62846
6.16102
6.80505
7.5598
8.41302
9.33907
10.2712
11.1507
11.9086
12.4933
12.8562
12.9721
12.8504
12.513
11.9491
11.0872
9.88645
8.44947
6.98885
5.69469
4.65934
3.88863
3.34217
2.96466
2.70479
2.52178
2.38925
2.28965
2.21227
2.14781
2.08211
2.0126
1.93849
1.85523
1.75518
1.6308
1.47398
1.2778
1.0437
0.790584
0.554782
0.376166
0.278174
0.263742
0.340265
0.607055
0.815046
0.874703
0.954122
1.03867
1.12581
1.20789
1.28731
1.37646
1.47538
1.58442
1.69903
1.81827
1.93974
2.06097
2.18043
2.29493
2.40061
2.49866
2.5986
2.71332
2.85038
3.01464
3.20298
3.40605
3.60988
3.80589
3.986
4.14934
4.31046
4.48008
4.67779
4.93231
5.28465
5.73343
6.27996
6.94462
7.72125
8.59139
9.53051
10.4714
11.3554
12.1122
12.6915
13.049
13.1646
13.0489
12.722
12.1748
11.3395
10.1661
8.73667
7.25107
5.90527
4.80769
3.97877
3.3865
2.97795
2.70007
2.5083
2.37295
2.27402
2.19835
2.13354
2.06661
1.99583
1.91996
1.83404
1.73034
1.60095
1.4369
1.23322
0.995092
0.746245
0.524353
0.365212
0.286945
0.291709
0.395711
0.758359
0.841189
0.902471
0.984732
1.0718
1.16152
1.24763
1.33099
1.42412
1.52722
1.6402
1.75822
1.88026
2.00396
2.12691
2.24724
2.36165
2.4667
2.56421
2.66429
2.77985
2.91753
3.08084
3.26737
3.46723
3.66804
3.86303
4.04491
4.21216
4.37777
4.55216
4.75528
5.01682
5.37815
5.83999
6.4015
7.08641
7.88509
8.77268
9.72275
10.67
11.5545
12.3046
12.8713
13.2143
13.3197
13.2014
12.8801
12.35
11.5479
10.4165
9.01471
7.52414
6.14119
4.98835
4.10181
3.46028
3.01558
2.7146
2.50972
2.36785
2.26692
2.19142
2.12567
2.05751
1.98508
1.90675
1.81743
1.70905
1.57297
1.40045
1.18899
0.948212
0.70584
0.499277
0.359758
0.301369
0.3293
0.492474
1.41907
0.869181
0.931981
1.0169
1.10627
1.19793
1.28708
1.37501
1.47243
1.58002
1.69712
1.81864
1.94339
2.0691
2.19345
2.31429
2.42827
2.53243
2.62926
2.72936
2.84547
2.98341
3.14585
3.33057
3.52717
3.7251
3.91931
4.10312
4.27425
4.44404
4.62297
4.83138
5.10069
5.47254
5.94875
6.52672
7.23168
8.0521
8.95733
9.91692
10.8685
11.7495
12.4874
13.0338
13.3525
13.4365
13.3051
12.9819
12.466
11.7006
10.6229
9.26832
7.79479
6.39302
5.19618
4.25625
3.56448
3.0798
2.75112
2.529
2.37729
2.27156
2.19478
2.12662
2.05616
1.98105
1.8994
1.80541
1.69089
1.5463
1.36433
1.14516
0.90355
0.669827
0.479831
0.360485
0.32501
0.396869
0.782173
5.2239
0.899169
0.963191
1.05048
1.14232
1.23509
1.32664
1.41941
1.52131
1.63372
1.75507
1.88015
2.0075
2.13496
2.26035
2.38131
2.49454
2.59759
2.69365
2.7937
2.91013
3.04826
3.20972
3.39242
3.58578
3.78106
3.97477
4.16067
4.3356
4.50938
4.6925
4.90608
5.18402
5.56813
6.05992
6.6557
7.38102
8.22293
9.14545
10.1142
11.0683
11.9423
12.6626
13.181
13.4653
13.5158
13.359
13.0238
12.516
11.7872
10.7714
9.48135
8.0474
6.64807
5.42265
4.43759
3.69783
3.17135
2.81122
2.56783
2.40251
2.28914
2.20935
2.1372
2.06312
1.98438
1.89791
1.7978
1.67504
1.52049
1.32799
1.10196
0.861621
0.638685
0.466466
0.368668
0.362331
0.506396
1.22845
9.16216
0.931189
0.996258
1.08561
1.17983
1.27328
1.36697
1.46405
1.57072
1.68825
1.81392
1.94257
2.07237
2.2013
2.32735
2.44805
2.56021
2.66199
2.75721
2.85714
2.97389
3.11223
3.2723
3.45281
3.64302
3.83601
4.02949
4.21756
4.39616
4.57371
4.7607
4.9793
5.26697
5.66497
6.17337
6.78867
7.53544
8.39799
9.33753
10.3161
11.2714
12.1353
12.8331
13.3158
13.5555
13.5599
13.3639
13.0043
12.4957
11.7996
10.8497
9.63809
8.26512
6.89116
5.65606
4.6382
3.85639
3.28916
2.89554
2.62783
2.44557
2.32143
2.23691
2.15872
2.07944
1.99495
1.90194
1.79355
1.66043
1.49422
1.29114
1.05969
0.823025
0.612907
0.459705
0.385383
0.414306
0.64163
1.59563
6.87505
0.965355
1.03137
1.12238
1.21831
1.31267
1.40833
1.50916
1.62076
1.74355
1.8735
2.00568
2.13777
2.26787
2.39416
2.51422
2.62504
2.72544
2.81978
2.91945
3.03675
3.17464
3.33347
3.51174
3.69898
3.89005
4.08354
4.27376
4.45584
4.63697
4.82753
5.05086
5.34974
5.76304
6.28913
6.92543
7.69431
8.57743
9.53495
10.5238
11.4797
12.3312
13.0021
13.4423
13.6273
13.5726
13.3228
12.9246
12.4035
11.7329
10.8485
9.72462
8.43124
7.10556
5.88209
4.84743
4.03332
3.42981
3.00333
2.71015
2.5089
2.37247
2.27817
2.19165
2.10472
2.01246
1.91067
1.79153
1.64593
1.46668
1.25351
1.01883
0.788397
0.592976
0.460017
0.411163
0.479409
0.785856
1.8377
4.02712
1.00196
1.06875
1.1609
1.2578
1.35332
1.45086
1.55509
1.67167
1.79953
1.93361
2.06921
2.20342
2.33438
2.46051
2.57951
2.68878
2.78774
2.88122
2.98043
3.09818
3.23539
3.39317
3.56921
3.75375
3.94328
4.13695
4.32924
4.51455
4.69903
4.89295
5.12064
5.43239
5.86224
6.40702
7.06529
7.8572
8.76252
9.73908
10.7391
11.6955
12.5332
13.174
13.5655
13.6863
13.5598
13.2409
12.7886
12.2413
11.5858
10.7621
9.73014
8.53062
7.27427
6.08463
5.05192
4.21864
3.58631
3.13019
2.81152
2.59058
2.44035
2.33312
2.23564
2.13843
2.03557
1.92226
1.78984
1.6298
1.43719
1.21524
0.980071
0.75838
0.579311
0.467777
0.446179
0.556167
0.936258
2.056
2.83429
1.04119
1.10853
1.20126
1.29806
1.39486
1.49426
1.60214
1.72352
1.85607
1.99407
2.13289
2.26904
2.40054
2.52606
2.64364
2.75118
2.84873
2.94146
3.0401
3.15816
3.29433
3.4512
3.6253
3.80744
3.99578
4.18977
4.38395
4.57217
4.75976
4.95692
5.18897
5.5151
5.96259
6.52706
7.20871
8.02513
8.95432
9.9512
10.9635
11.9214
12.7449
13.3533
13.6911
13.7393
13.5289
13.126
12.6033
12.0145
11.361
10.5892
9.64808
8.5513
7.38162
6.24694
5.23629
4.39981
3.74929
3.26913
2.9268
2.68572
2.52031
2.39806
2.28726
2.17776
2.06175
1.93419
1.78629
1.61072
1.40537
1.17695
0.944104
0.73356
0.572304
0.48328
0.490515
0.644112
1.09717
2.3232
2.52331
1.0829
1.15057
1.24319
1.33918
1.43693
1.5384
1.65055
1.77631
1.91306
2.0547
2.19646
2.33432
2.46602
2.59051
2.70631
2.812
2.90817
3.00034
3.09878
3.21667
3.35139
3.50776
3.68008
3.86016
4.04761
4.24197
4.43783
4.62861
4.81903
5.01935
5.25673
5.59814
6.0639
6.64913
7.35614
8.19888
9.15372
10.1726
11.199
12.1598
12.9701
13.5454
13.8262
13.7947
13.4894
12.9881
12.3788
11.7321
11.0656
10.3335
9.47692
8.4858
7.41502
6.35348
5.38446
4.56223
3.90697
3.41157
3.05006
2.79045
2.60968
2.47053
2.34423
2.21946
2.08778
1.94363
1.77878
1.58771
1.37124
1.13923
0.911733
0.714507
0.572312
0.506789
0.544351
0.743797
1.27638
2.71533
2.53908
1.127
1.19484
1.28672
1.3813
1.47921
1.58321
1.69994
1.82989
1.9704
2.11534
2.25968
2.39894
2.5305
2.65354
2.76726
2.871
2.96584
3.05758
3.15626
3.27352
3.40762
3.56308
3.73363
3.912
4.09879
4.2935
4.49078
4.68379
4.87669
5.08001
5.32352
5.68092
6.16563
6.77281
7.50776
8.37893
9.36145
10.4044
11.4473
12.4134
13.2128
13.7559
13.9782
13.862
13.4526
12.8398
12.128
11.4068
10.7108
10.0034
9.22056
8.33214
7.3666
6.39188
5.48165
4.69069
4.04535
3.5458
3.17218
2.89734
2.70244
2.54512
2.40221
2.25926
2.10978
1.9476
1.76559
1.56028
1.33532
1.10304
0.883737
0.70174
0.579677
0.538604
0.60819
0.857479
1.48873
3.37288
2.66401
1.17338
1.24131
1.33162
1.424
1.5217
1.62874
1.7502
1.88429
2.02813
2.17587
2.32234
2.46257
2.59365
2.71487
2.82625
2.92801
3.02156
3.11287
3.21191
3.32881
3.46288
3.61719
3.78606
3.96303
4.14929
4.34424
4.54265
4.73762
4.93267
5.13877
5.38896
5.76342
6.26742
6.89774
7.66331
8.56552
9.57817
10.6477
11.71
12.6849
13.477
13.9909
14.1555
13.9519
13.4311
12.6955
11.8667
11.0544
10.3116
9.6119
8.88819
8.09404
7.23398
6.35443
5.51642
4.77166
4.15012
3.65806
3.28196
2.99796
2.79026
2.61554
2.45444
2.29208
2.12387
1.94369
1.7457
1.52868
1.29858
1.06936
0.860983
0.695787
0.59474
0.579136
0.682998
0.9889
1.75239
4.45115
2.81349
1.22183
1.28961
1.37745
1.46703
1.5644
1.6751
1.80154
1.93959
2.08616
2.23611
2.3842
2.52488
2.65514
2.77422
2.88308
2.98289
3.07526
3.16609
3.26509
3.38214
3.51682
3.67018
3.83748
4.01332
4.19909
4.39404
4.59319
4.78985
4.98689
5.19563
5.45494
5.84662
6.36978
7.02411
7.82256
8.75882
9.80432
10.9032
11.9885
12.9766
13.7668
14.2563
14.3665
14.0756
13.439
12.5716
11.6129
10.6936
9.88646
9.17587
8.49378
7.78075
7.02054
6.23872
5.48179
4.79522
4.2094
3.73439
3.36306
3.07676
2.85907
2.67037
2.4919
2.31261
2.12696
1.9303
1.71897
1.49371
1.26231
1.03947
0.844245
0.697089
0.617866
0.628899
0.769884
1.14024
2.0586
5.57712
2.89341
1.27214
1.33941
1.42393
1.51032
1.60736
1.72222
1.85393
1.99568
2.14437
2.29586
2.44504
2.58556
2.71465
2.83135
2.93759
3.03556
3.12694
3.21741
3.31606
3.43351
3.56941
3.72213
3.88804
4.06291
4.24813
4.44277
4.64213
4.84004
5.03918
5.2508
5.52116
5.93019
6.47343
7.15258
7.98545
8.9587
10.0399
11.1712
12.2838
13.2908
14.0859
14.5581
14.6201
14.2448
13.4911
12.4854
11.386
10.3453
9.45621
8.71539
8.05534
7.40658
6.73534
6.04803
5.37585
4.75559
4.21536
3.76723
3.40793
3.12467
2.90337
2.70352
2.51116
2.31792
2.11707
1.90711
1.68614
1.45677
1.22794
1.01441
0.834184
0.706098
0.649428
0.688391
0.869387
1.30904
2.36494
5.70027
2.81841
1.32416
1.39046
1.47098
1.55414
1.65089
1.77015
1.90716
2.05243
2.20266
2.35493
2.50461
2.64439
2.77191
2.88606
2.98965
3.08595
3.17661
3.26706
3.36599
3.48327
3.62039
3.77307
3.93786
4.11185
4.29637
4.49033
4.68929
4.88788
5.08918
5.30485
5.58594
6.01359
6.57862
7.28413
8.15207
9.16484
10.2846
11.4519
12.5969
13.6293
14.4377
14.9019
14.9245
14.4713
13.6021
12.455
11.2065
10.0312
9.04328
8.25265
7.59391
6.99005
6.39287
5.79174
5.20286
4.65289
4.16531
3.75218
3.41269
3.13868
2.91875
2.71254
2.51089
2.30644
2.09422
1.87496
1.64876
1.41959
1.19696
0.995289
0.831529
0.723227
0.689772
0.757935
0.9811
1.4895
2.63848
4.98465
2.68623
1.37776
1.44255
1.51854
1.59867
1.69526
1.81891
1.96111
2.10971
2.26081
2.41312
2.56274
2.70118
2.82666
2.93819
3.03919
3.13401
3.22423
3.31501
3.41504
3.5323
3.67067
3.82336
3.98702
4.16016
4.34381
4.53667
4.73457
4.93308
5.13607
5.35678
5.64954
6.09661
6.68498
7.41876
8.32223
9.37671
10.5377
11.745
12.9283
13.9938
14.8249
15.2924
15.2875
14.7663
13.787
12.4983
11.0949
9.77361
8.67063
7.81083
7.13235
6.55269
6.0119
5.48465
4.97322
4.4938
4.06368
3.69239
3.38042
3.12251
2.90666
2.69845
2.4908
2.27873
2.05957
1.83575
1.60896
1.38411
1.17086
0.98308
0.836786
0.748844
0.739205
0.837756
1.10485
1.68313
2.9379
4.24873
2.5507
1.43287
1.49547
1.5663
1.64378
1.74078
1.86869
2.01562
2.16725
2.31864
2.47028
2.61921
2.75579
2.87876
2.98763
3.08617
3.17975
3.26981
3.36118
3.46233
3.58052
3.72032
3.873
4.0356
4.20785
4.39041
4.58179
4.77796
4.97546
5.17907
5.40414
5.71243
6.17926
6.79162
7.556
8.49647
9.59397
10.7986
12.0501
13.2778
14.3849
15.2495
15.7336
15.7158
15.1399
14.0596
12.6327
11.071
9.59411
8.36083
7.41294
6.69388
6.11733
5.61368
5.14498
4.7008
4.28695
3.91387
3.58779
3.30899
3.07285
2.86601
2.66069
2.45209
2.23685
2.01566
1.79219
1.56924
1.35234
1.15105
0.97865
0.850492
0.783282
0.798025
0.928191
1.24175
1.89929
3.38447
3.80291
2.44243
1.48947
1.54919
1.61435
1.6898
1.78794
1.9197
2.0706
2.22473
2.376
2.52622
2.67385
2.80812
2.92816
3.03431
3.13062
3.2232
3.31347
3.40585
3.50826
3.62781
3.76889
3.92201
4.08363
4.25492
4.43618
4.62578
4.81964
5.01526
5.21828
5.44784
5.77453
6.26143
6.89845
7.69538
8.67535
9.81637
11.0665
12.3663
13.6448
14.8025
15.7125
16.2282
16.2148
15.6011
14.4326
12.874
11.1535
9.51309
8.13526
7.08091
6.30096
5.7067
5.22046
4.79334
4.40349
4.04674
3.72629
3.44423
3.19971
2.98903
2.79612
2.59884
2.39535
2.18377
1.96599
1.74749
1.53224
1.32622
1.13879
0.982737
0.873094
0.826851
0.866563
1.02982
1.39406
2.15165
4.11674
3.67361
2.3556
1.54757
1.60384
1.66314
1.73736
1.83716
1.97209
2.12591
2.2818
2.4327
2.58087
2.72652
2.85807
2.97489
3.07822
3.17259
3.26441
3.35527
3.44927
3.55368
3.67509
3.81728
3.97056
4.13115
4.3013
4.48105
4.66867
4.85988
5.05302
5.25448
5.48898
5.83499
6.34273
7.00532
7.83658
8.85844
10.0429
11.3405
12.6927
14.0282
15.2458
16.2138
16.7776
16.7881
16.1571
14.9172
13.2368
11.3593
9.54921
8.01358
6.83488
5.97429
5.34211
4.85378
4.45076
4.10095
3.7909
3.51648
3.27511
3.0642
2.88086
2.70521
2.5204
2.3268
2.12398
1.91444
1.70486
1.50046
1.3075
1.13516
0.995965
0.904969
0.87986
0.945214
1.14352
1.5652
2.45722
5.32307
3.66655
2.25086
1.60714
1.65961
1.71308
1.78697
1.88875
2.02602
2.18147
2.33821
2.48849
2.63419
2.77711
2.90557
3.01894
3.11946
3.21219
3.30349
3.39521
3.49131
3.59838
3.72247
3.86556
4.01854
4.17815
4.34691
4.52491
4.71041
4.89884
5.08922
5.28879
5.52636
5.89287
6.42295
7.11202
7.97885
9.04322
10.2719
11.6192
13.0276
14.4265
15.7132
16.7524
17.3817
17.4376
16.8126
15.5222
13.7331
11.7034
9.71919
8.01345
6.69285
5.73222
5.04258
4.53327
4.13697
3.81227
3.53721
3.3006
3.09493
2.91559
2.75941
2.60285
2.4336
2.2534
2.06309
1.86527
1.66755
1.47619
1.29766
1.14106
1.01885
0.946455
0.942627
1.03445
1.27035
1.7574
2.80975
6.82056
3.61631
2.08816
1.6681
1.71676
1.76469
1.83914
1.94306
2.08167
2.23733
2.3938
2.54307
2.68612
2.8256
2.95056
3.06033
3.15819
3.24962
3.34066
3.43346
3.53195
3.64208
3.7694
3.91336
4.06598
4.22459
4.39166
4.56762
4.75086
4.93653
5.12399
5.32148
5.56182
5.9486
6.50163
7.21783
8.12039
9.22745
10.5021
11.9012
13.3695
14.8374
16.2026
17.3261
18.0388
18.1629
17.57
16.254
14.3729
12.1987
10.0377
8.15047
6.67057
5.5905
4.82426
4.2758
3.86938
3.55479
3.30216
3.0938
2.91764
2.7666
2.63524
2.49865
2.34635
2.18189
2.00633
1.82241
1.63842
1.46141
1.29798
1.15723
1.05182
0.997854
1.01547
1.13473
1.41078
1.96643
3.15936
7.32903
3.36077
1.85438
1.73038
1.77554
1.81889
1.89436
2.00045
2.13917
2.29364
2.44856
2.59605
2.73652
2.87198
2.99305
3.0992
3.19463
3.28513
3.37621
3.47035
3.57148
3.68496
3.81579
3.96053
4.11284
4.27038
4.43548
4.60903
4.78981
4.9728
5.15741
5.35286
5.59837
6.00305
6.57749
7.32112
8.26028
9.41033
10.732
12.1847
13.7164
15.2588
16.7109
17.9317
18.7457
18.9616
18.4289
17.1156
15.1638
12.856
10.5177
8.43847
6.7819
5.56249
4.70035
4.09498
3.66234
3.34337
3.10045
2.90985
2.75533
2.62731
2.51888
2.4008
2.26577
2.11785
1.9579
1.78915
1.6199
1.45776
1.30945
1.18423
1.09521
1.05944
1.09867
1.24627
1.56429
2.18812
3.48442
6.35658
2.89222
1.57908
1.79391
1.83609
1.87623
1.95279
2.06108
2.19863
2.35062
2.50282
2.64783
2.78546
2.91624
3.03313
3.13582
3.22907
3.31902
3.41054
3.50632
3.61044
3.72753
3.8616
4.00691
4.15897
4.31539
4.47831
4.64906
4.82705
5.00738
5.18969
5.3847
5.63582
6.05538
6.64999
7.42128
8.39806
9.59081
10.9598
12.4675
14.0659
15.6879
17.2348
18.565
19.4978
19.8292
19.3864
18.1076
16.1112
13.684
11.1706
8.89
7.03945
5.65987
4.68162
4.0013
3.52678
3.18999
2.94509
2.76186
2.61949
2.507
2.41886
2.31642
2.19778
2.06597
1.92212
1.76837
1.61402
1.46651
1.33282
1.22252
1.14932
1.13145
1.19242
1.36914
1.73037
2.42274
3.82064
5.11958
2.42627
1.31264
1.85874
1.8984
1.93619
2.01489
2.12491
2.26002
2.40844
2.55705
2.69893
2.83298
2.95845
3.07086
3.17036
3.26181
3.35162
3.44403
3.54176
3.64903
3.76981
3.90655
4.05235
4.20413
4.35946
4.5201
4.68772
4.8625
5.04001
5.22057
5.41646
5.67303
6.10651
6.72003
7.51904
8.53332
9.7678
11.1841
12.7478
14.4152
16.1214
17.77
19.2208
20.2889
20.7593
20.4371
19.2279
17.2182
14.6899
12.0065
9.51693
7.45549
5.89388
4.77769
4.00299
3.47024
3.10239
2.84528
2.66165
2.52564
2.42306
2.34405
2.2521
2.14855
2.03179
1.90151
1.76262
1.62241
1.4887
1.36872
1.27245
1.21436
1.21408
1.29683
1.50306
1.90747
2.67074
4.24517
4.37222
2.05898
1.0692
1.92519
1.96216
1.99871
2.0802
2.19097
2.32313
2.46711
2.61135
2.74933
2.87905
2.99874
3.10637
3.20295
3.29316
3.38329
3.47709