/*--------------------------------*- C++ -*----------------------------------*\
| =========                 |                                                 |
| \\      /  F ield         | OpenFOAM: The Open Source CFD Toolbox           |
|  \\    /   O peration     | Version:  4.1                                   |
|   \\  /    A nd           | Web:      www.OpenFOAM.org                      |
|    \\/     M anipulation  |                                                 |
\*---------------------------------------------------------------------------*/
FoamFile
{
    version     2.0;
    format      ascii;
    class       volScalarField;
    location    "26";
    object      p;
}
// * * * * * * * * * * * * * * * * * * * * * * * * * * * * * * * * * * * * * //

dimensions      [0 2 -2 0 0 0 0];

internalField   nonuniform List<scalar> 
6785
(
71826.8
71760.5
71709.5
71659.6
71613.4
71569.9
71529.1
71490.7
71454.6
71420.2
71387.1
71356.6
71328.8
71295.1
71260.9
71278.9
71261.2
71265
71260.3
71257.2
71253.9
71251
71248.8
71247.3
71246.8
71247.2
71248.6
71252
71256.1
71257.4
71237
71231.5
71241.5
71240.4
71243.9
71246.1
71248.5
71250.7
71252.7
71254.6
71256.2
71257.5
71258.4
71259.8
71261.4
71291.7
71289.6
71294.7
71291
71292
71290.7
71290
71289.1
71288.3
71287.7
71287.1
71286.6
71286
71285.6
71286.8
71293.4
71291.3
71294.1
71291
71292.6
71291.7
71292.1
71292.2
71292.6
71293.1
71293.6
71294
71294.2
71294.3
71294.7
71282.4
71280.3
71282.3
71279.8
71281.5
71280.4
71281.2
71281.3
71281.8
71282.2
71282.9
71283.1
71282.7
71282.2
71282.1
71274.2
71272.7
71274.2
71272
71273.3
71271.8
71272
71271.5
71271.2
71270.9
71270.9
71270.8
71270.5
71270.5
71271.3
71273.7
71273.3
71274.8
71273.3
71274.6
71273.8
71274.1
71274
71274
71274
71274
71274.2
71274.6
71275.2
71276.5
71282.5
71283.2
71284.9
71284.2
71285.7
71285.6
71286.5
71287
71287.6
71288.2
71288.9
71289.6
71290.4
71291.1
71292.1
71292.8
71294.1
71295.4
71295.1
71296.5
71296.6
71297.5
71298
71298.6
71299.3
71300
71300.6
71301.3
71301.8
71302.5
71301.2
71302.6
71303.6
71303.4
71304.6
71304.6
71305.3
71305.7
71306.1
71306.6
71307.1
71307.6
71308.1
71308.5
71309.1
71308.8
71310.2
71310.9
71310.8
71311.8
71311.8
71312.4
71312.6
71313
71313.4
71313.8
71314.2
71314.7
71315
71315.4
71315.7
71316.9
71317.4
71317.4
71318.2
71318.3
71318.9
71319.1
71319.4
71319.6
71319.7
71319.7
71319.9
71320.2
71320.6
71322.9
71323.8
71324.2
71324.6
71326
71326.6
71327.6
71327.8
71327.6
71327
71326.4
71325.5
71325
71325.2
71324.6
71294
71283.7
71279.4
71276.1
71273.5
71270.8
71269.1
71268.2
71268.2
71270.3
71273.1
71277.3
71283.7
71293.2
71301.7
71483.4
71483.4
71483.4
71483.4
71483.4
71483.4
71483.4
71483.3
71483.3
71483.3
71483.3
71483.2
71483.2
71483.2
71483.1
71483.1
71483.1
71483
71482.9
71482.9
71482.9
71482.8
71482.7
71482.6
71482.6
71482.5
71482.4
71482.4
71482.3
71482.2
71482.1
71482.2
71482.1
71482
71481.9
71481.9
71481.8
71481.7
71481.8
71481.7
71481.6
71481.6
71481.6
71481.5
71481.4
71481.4
71481.4
71481.4
71481.3
71481.4
71481.3
71481.3
71481.3
71481.4
71481.4
71481.4
71481.4
71481.5
71481.5
71481.6
71481.7
71481.8
71481.9
71481.9
71482.2
71482.2
71482.2
71482.7
71482.6
71482.8
71483
71483.1
71483.1
71483.2
71483.3
71482.7
71482.6
71482.3
71479.6
71479.8
71480.8
71480.2
71476.2
71503.8
71471.8
71472.2
71471.1
71470.6
71470.4
71470.3
71467.9
71463.5
71491.1
71455.6
71454.4
71449.6
71445.9
71443.8
71440.7
71435.8
71431.1
71451.6
71406.1
71400
71392.6
71387
71383.9
71379.4
71373.9
71369.1
71363.4
71371.6
71341.4
71336.5
71331.8
71327.2
71323.9
71321.8
71318.7
71312.1
71303.2
71288.1
71285.9
71283
71278.7
71274.3
71271.2
71270.8
71265.5
71243.9
71236.1
71230.8
71228.8
71226
71221.5
71217.5
71214.1
71206.8
71173.6
71177.3
71169.9
71164.6
71158.4
71154.8
71149.4
71142.9
71137.6
71129.7
71074.9
71095.8
71085.6
71078.5
71071.1
71062.7
71052.2
71047.5
71046.2
70981.4
71022.5
71009.4
70999.4
71002.8
70975.7
70972.4
70956.9
70961.9
70966.8
70930.8
70942.6
70953.4
70927.6
70931.2
70926.5
70932.2
70951.3
70942.3
70950.8
70955.3
70961.4
70979.1
70990.4
70997.6
71010
71034.9
71047
71069.9
71078.3
71070.7
71149.7
71166.1
71156
71199.1
71191.9
71297.6
71294.1
71222
71415.7
71362.8
71273.9
71348
71270.9
71555.6
71398.7
71245.3
71323.5
71230.2
71606.6
71303.1
70918.9
71327.4
70644.4
69958.7
69870.3
69284.3
70140
69822.1
68972.1
69716.5
69520.4
71338.8
72432.8
72003.1
75243
76121.8
75541.6
79874.1
80794.4
83976
87003
77724.3
97324.3
104834
45255.5
85820.1
127700
-10664.2
-27105.5
-123680
-98642.4
132727
0.460375
1.53602
3.34297
5.16334
7.12423
8.84009
10.2294
11.3213
12.4178
13.7372
15.2556
16.8969
18.6175
20.5718
22.8066
25.2524
27.7612
30.2247
33.4521
37.4809
42.2453
46.9564
50.8724
53.6783
55.7779
58.1051
60.9344
67.5811
78.4476
91.5552
106.502
122.599
136.475
148.182
158.208
166.101
171.696
177.316
180.891
180.762
174.784
159.241
137.668
122.034
122.132
134.358
147.603
152.787
151.073
145.331
136.723
126.728
116.695
106.871
97.0693
87.9066
80.9273
77.0029
75.0027
72.7982
68.7223
62.1243
57.4125
60.5471
70.5803
86.3089
109.86
144.884
197.395
277.774
404.837
613.054
969.892
1616.66
2837.28
5328.56
10063.5
14034.2
17239.6
2.32463
5.6844
10.4524
14.7646
19.1024
23.116
26.8653
30.4001
34.0595
38.0704
42.2212
46.4783
50.6692
55.0656
59.6149
64.3722
69.2625
74.1105
80.6552
88.46
97.5123
106.914
115.262
121.248
126.097
133.625
144.262
164.579
196.262
235.107
278.255
323.381
362.605
396.926
427.479
452.528
471.317
491.934
506.804
517.734
523.932
520.765
512.596
499.779
484.926
475.102
475.336
472.037
461.709
443.21
417.671
388.037
357.409
327.33
298.837
273.641
253.226
237.187
224.095
212.746
200.352
183.103
168.327
166.222
174.023
188.553
209.165
236.823
272.634
317.425
371.884
433.752
495.737
530.067
406.512
120.353
-1007.79
-7042.6
50117.7
4.57864
10.645
18.9824
26.6022
34.3321
41.5331
48.188
54.4019
60.8565
67.9564
75.377
83.0449
90.7027
98.7961
107.221
116.08
125.245
134.53
146.746
161.164
177.569
194.073
209.311
220.632
230.279
244.6
265.656
304.575
363.041
433.023
510.123
588.908
656.18
714.551
765.791
807.685
839.236
877.016
902.549
918.988
921.561
900.286
864.495
827.908
807.464
804.648
814.076
809.275
788.721
753.337
707.694
657.095
606.083
556.741
510.378
469.377
435.875
409.386
387.419
367.284
344.881
316.528
295.371
295.169
310.655
338.298
377.667
430.914
500.773
590.311
703.117
840.845
1002.88
1173.73
1226.99
1426.46
1866.3
-1119.09
94664
6.57919
15.3627
26.9902
37.5583
48.2216
58.1648
67.4681
76.3176
85.5769
95.5511
105.988
116.754
127.588
138.849
150.479
162.646
175.212
187.953
204.511
224.1
245.914
268.17
289.585
305.539
319.536
340.29
371.383
426.855
509.529
608.122
716.554
826.937
921.313
1003.49
1075.62
1135.17
1181.71
1235.01
1272.33
1297.67
1304.07
1280.84
1237.27
1190.46
1160.34
1149.33
1154.72
1144.1
1113.33
1062.58
998.658
928.579
858.38
790.864
727.834
672.143
625.989
588.38
556.274
526.488
493.679
454.433
428.136
432.005
458.345
504.339
570.768
662.734
787.872
957.418
1188.33
1506.72
1959.44
2632.29
3616.88
5868.41
11544.4
17701.7
109119
8.52279
20.1595
35.0513
48.6351
62.3096
75.1053
87.1432
98.71
110.809
123.702
137.223
151.168
165.282
179.828
194.802
210.44
226.592
242.967
264.061
288.943
316.109
344.35
372.431
393.37
412.289
440.015
482.004
555.056
662.615
790.302
930.734
1072.81
1194.12
1299.87
1392.49
1469.86
1533.27
1601.31
1651.19
1685.83
1695.79
1668.61
1613.12
1552.32
1512.84
1496.99
1499.8
1483.67
1441.83
1375.44
1293.34
1204.39
1116.13
1031.77
953.446
884.184
826.165
778.019
736.124
696.587
652.961
602.64
571.251
578.782
614.91
677.652
768.672
895.255
1068.61
1306.33
1634.98
2098.02
2774.98
3826.17
5522.46
9300.64
18592.8
29726.8
96244.5
10.3321
24.9113
42.9168
59.4404
75.991
91.5471
106.256
120.546
135.473
151.262
167.807
184.852
202.135
219.822
237.955
256.845
276.339
296.03
321.27
350.912
382.747
416.652
450.845
476.517
500.523
535.436
588.701
678.818
810.576
966.621
1138.46
1311.57
1459.35
1588.31
1701.07
1796.11
1877.51
1960.74
2024.23
2069.83
2086.48
2060.34
1999.02
1928.11
1878.15
1853.37
1848.94
1825.09
1771.66
1690.16
1590.62
1483.8
1378.57
1278.65
1186.32
1104.48
1035.1
976.491
924.675
875.156
820.645
760.256
725.69
738.646
786.182
867.325
984.775
1147.95
1371.23
1677.62
2101.82
2700.75
3580.79
4970.22
7315.3
12385.6
24178.8
39386.4
91523.7
12.0276
29.6742
50.6702
70.1238
89.495
107.809
125.198
142.25
160.013
178.701
198.256
218.383
238.803
259.583
280.802
302.865
325.621
348.501
377.738
411.911
448.088
487.36
527.026
557.414
587.275
629.812
694.988
802.186
958.35
1142.67
1345.93
1549.78
1723.64
1875.38
2007.72
2119.72
2220.78
2319.78
2397.87
2455.61
2480.59
2457.47
2392.05
2311.8
2251.03
2216.71
2203.31
2170.21
2104.25
2007.34
1890.76
1766.97
1645.94
1531.93
1427.02
1333.74
1253.74
1185.1
1123.61
1064.04
998.282
928.183
891.649
911.424
972.261
1074.29
1221.56
1426.1
1706.12
2090.55
2623.45
3378.05
4496.39
6296.96
9452.52
16067.9
30374.6
48720.7
79264.3
13.575
34.4388
58.2676
80.6275
102.732
123.77
143.825
163.654
184.249
205.823
228.352
251.517
275.009
298.791
322.97
348.061
373.921
399.779
432.764
471.133
511.265
555.329
599.778
634.95
671.32
721.789
798.972
923.264
1103.77
1316.07
1550.48
1784.7
1984.22
2158.26
2309.75
2438.35
2560.69
2675.76
2769.43
2840.71
2876.18
2859.15
2793.12
2705.9
2634.14
2588.46
2563.44
2519.18
2439.73
2327.09
2193.74
2053.74
1918.11
1791.42
1675.35
1571.78
1481.82
1403.46
1332.46
1262.83
1185.85
1107.1
1070.22
1097.9
1173.56
1298.38
1477.93
1727.12
2068.44
2537.02
3186.88
4110.87
5496.9
7774.56
11875.1
20156.9
36554.6
56953.8
71755.2
14.9568
39.2164
65.7126
90.9688
115.732
139.48
162.203
184.829
208.253
232.702
258.175
284.34
310.846
337.551
364.578
392.562
421.376
450.045
486.585
528.846
572.622
620.97
669.623
709.885
753.268
811.922
901.106
1042.87
1247.78
1487.87
1753.04
2017.41
2242.13
2437.98
2608.57
2754.74
2898.31
3029.84
3139.98
3226.15
3273.96
3265.51
3201.58
3109.3
3026.73
2968.64
2930.12
2872.91
2778.86
2649.97
2499.9
2344.28
2195.11
2057.14
1931.39
1818.75
1719.68
1632.09
1551.82
1472.05
1383.67
1297.48
1262.16
1299.1
1391.38
1541.1
1755.5
2052.43
2458.72
3015.82
3788.21
4892.02
6570.88
9380.33
14506.9
24402.4
42289.2
64142.1
65119.8
16.1484
43.9968
72.9876
101.134
128.478
154.923
180.311
205.747
231.992
259.299
287.681
316.799
346.252
375.789
405.542
436.261
467.854
499.19
539.074
584.89
632.015
684.191
736.538
782.262
833.021
899.955
1001.14
1160.67
1389.93
1657.64
1953.35
2247.38
2496.61
2713.54
2903.77
3069.23
3232.89
3381.47
3508.98
3611.38
3673.47
3676.18
3617.34
3522.33
3429.47
3357.85
3304.07
3232.05
3122.22
2976.46
2809.55
2638.73
2476.93
2328.99
2195.01
2074.59
1967.3
1871.01
1781.8
1691.92
1592.14
1499.86
1468.08
1515.89
1626.83
1803.89
2056.15
2404.42
2879.83
3530.45
4433.14
5732.93
7740.81
11150.5
17374
28786.4
47579.8
69954.2
61665.8
17.1341
48.7754
80.0829
111.119
140.97
170.108
198.163
226.421
255.476
285.621
316.873
348.893
381.223
413.503
445.86
479.154
513.352
547.258
590.253
639.285
689.491
745.06
800.705
852.178
910.532
986.024
1099.27
1276.77
1530.28
1825.65
2152.21
2474.7
2747.61
2984.54
3195.31
3380.74
3564.25
3730.74
3876.52
3996.47
4074.67
4090.96
4040.03
3944.64
3842.34
3756.48
3685.99
3597.42
3470.57
3307.16
3123.13
2937.31
2763.65
2606.91
2466.11
2339.24
2224.79
2120.52
2022.76
1922.87
1811.83
1714.86
1688.72
1749.2
1880.99
2087.95
2381.16
2784.4
3333.18
4082.94
5126.3
6644.77
9029.13
13117.5
20488.1
33276.4
52341.5
73703.8
65302.6
17.9016
53.5466
86.9881
120.917
153.203
185.036
215.757
246.845
278.696
311.655
345.731
380.597
415.729
450.66
485.501
521.206
557.839
594.225
640.068
691.992
745.028
803.548
862.288
919.794
985.656
1070.14
1195.5
1391.09
1668.89
1991.92
2349.52
2699.2
2994.9
3251.24
3482.82
3688.13
3892.07
4077.37
4242.39
4381.13
4477.26
4509.48
4469.31
4376.05
4265.54
4165.01
4076.57
3969.81
3824.68
3642.78
3441.18
3240.36
3055.37
2890.86
2744.56
2612.56
2492.08
2380.72
2274.96
2165.25
2043.33
1943.2
1924.91
1999.99
2154.91
2394.36
2731.55
3193.2
3819.61
4675.11
5872.58
7638.52
10454.3
15297.1
23821.6
37767.6
56438.8
74769.4
72283.1
18.4445
58.3087
93.6981
130.521
165.174
199.709
233.099
267.022
301.649
337.392
374.246
411.895
449.748
487.239
524.448
562.406
601.3
640.061
688.489
743
798.655
859.776
921.749
985.368
1058.48
1152.22
1289.79
1503.83
1806.26
2156.79
2544.9
2920.94
3238.41
3514.48
3765.7
3991.45
4216.19
4421.21
4606.46
4765.18
4881
4931.38
4904.74
4816.19
4699.01
4583.82
4476.46
4350.07
4185.4
3984.11
3764.35
3548.35
3352.34
3180.89
3030.26
2894.42
2769.1
2651.65
2538.56
2419.34
2287.13
2185.57
2177.4
2269.12
2449.51
2724.02
3108.12
3631.66
4340.46
5310.32
6679.72
8728.76
12036.3
17698.2
27335.7
42157.3
59950.8
73531.4
74989.2
18.7623
63.0615
100.21
139.93
176.883
214.131
250.187
286.946
324.327
362.82
402.398
442.763
483.254
523.212
562.682
602.742
643.718
684.733
735.483
792.292
850.385
913.915
979.317
1048.73
1129.07
1232.2
1382.13
1615.13
1942.52
2320.4
2738.21
3139.63
3477.53
3773.62
4043.02
4290.75
4536.37
4762
4968.47
5148.33
5285.52
5356.19
5345.8
5264.65
5142.65
5013.18
4886.24
4739.01
4553.64
4332.04
4093.44
3861.88
3654.94
3477.14
3323.19
3184.66
3055.7
2933.24
2813.57
2685.23
2543.6
2442.54
2446.82
2557.3
2765.47
3077.59
3511.51
4100.75
4897.94
5993.7
7558.23
9933.03
13795.2
20323
30985.6
46333.6
62869
71784.7
75455.3
18.8593
67.803
106.524
149.14
188.331
228.306
267.025
306.612
346.721
387.926
430.17
473.179
516.219
558.553
600.183
642.21
685.09
728.21
781.015
839.867
900.221
966.056
1034.86
1109.69
1197.35
1310.04
1472.54
1725.09
2077.52
2482.54
2929.28
3354.71
3712.76
4028.16
4315.11
4585.94
4852.45
5099.51
5328.15
5530.27
5690.42
5783.41
5791.88
5720.86
5596.19
5453.25
5306.45
5137.44
4930.33
4687.55
4429.39
4181.74
3963.71
3779.91
3623.39
3483.19
3351.71
3225.35
3099.85
2962.85
2812.96
2714.56
2733.58
2864.99
3103.26
3455.54
3942.4
4601.89
5495.42
6732.39
8521.01
11270
15747.4
23161.7
34717.1
50219.9
65230.7
70414.8
74513.5
18.7444
72.5288
112.64
158.152
199.521
242.236
283.609
326.014
368.819
412.693
457.542
503.116
548.614
593.233
636.931
680.807
725.422
770.45
825.046
885.736
948.176
1016.21
1088.28
1168.29
1263.2
1385.61
1561.09
1833.93
2211.29
2643.04
3118.05
3566.63
3945.67
4278.28
4583.45
4876.76
5164.29
5433.46
5685.19
5910.65
6095.22
6212.43
6242.28
6184.16
6059.21
5904.03
5737.5
5546.09
5316.42
5051.71
4773.26
4508.88
4279.4
4089.67
3931.06
3789.99
3656.99
3527.8
3397.16
3251.95
3095.31
3001.98
3037.94
3192.53
3463.28
3858.49
4401.89
5137.46
6137.87
7535.75
9583.07
12758.3
17903
26192.1
38467
53767
67063.4
69591.2
73695.6
18.4303
77.2299
118.557
166.967
210.458
255.925
299.938
345.139
390.607
437.103
484.491
532.546
580.409
627.222
672.901
718.524
764.715
811.41
867.551
929.92
994.282
1064.41
1139.64
1224.63
1326.67
1458.83
1647.92
1941.83
2343.81
2802.14
3304.71
3776.58
4175.56
4523.34
4848.65
5162.82
5471.72
5763.58
6039.24
6289.06
6499.37
6642.59
6696.2
6653.74
6531.11
6365.35
6179.66
5965.63
5712.87
5425.65
5126.26
4844.46
4602.99
4407.1
4246.56
4105.17
3971.5
3840.43
3705.24
3552.22
3390.62
3305.11
3360.08
3540.21
3846.05
4287.41
4891.89
5711.17
6832.15
8415.36
10760.9
14414.7
20264.4
29380.6
42169.5
56946
68417.6
69202.4
73018.1
17.9336
81.892
124.273
175.584
221.151
269.373
316.003
363.974
412.068
461.135
510.991
561.44
611.57
660.489
708.069
755.347
802.964
851.072
908.533
972.446
1038.58
1110.69
1188.98
1278.79
1387.84
1529.76
1733.13
2048.54
2475.02
2960.01
3489.48
3984.3
4400.41
4763.59
5109.77
5443.78
5774.51
6089.59
6389.91
6665.05
6902.28
7073.15
7152.71
7128.64
7011.14
6836.86
6633.05
6396.62
6120.59
5810.53
5489.72
5189.83
4935.67
4733.13
4570.51
4429.03
4295.27
4163.08
4023.77
3863.2
3698.92
3624.36
3700.19
3908.44
4252.31
4743.81
5415.35
6328.31
7587.25
9384.76
12071.6
16252.6
22825
32684.3
45760.5
59739.7
69395.9
69333.3
72277
17.2742
86.4957
129.784
184.003
231.606
282.578
331.796
382.503
433.181
484.766
537.015
589.767
642.066
693.002
742.404
791.256
840.163
889.441
948.01
1013.35
1081.12
1155.1
1236.35
1330.83
1446.75
1598.44
1816.67
2153.81
2604.95
3116.78
3672.61
4188.67
4620.27
5000.11
5365.74
5719.51
6072.41
6411.19
6736.8
7038.14
7303.29
7503.27
7610.8
7607.76
7498.33
7317.98
7097.6
6839.49
6540.43
6207.56
5865.06
5546.53
5278.93
5068.99
4903.82
4762.15
4628.59
4495.79
4352.56
4184.65
4020.35
3960.06
4058.72
4298.02
4683.4
5230.02
5976.4
6995.91
8414.07
10458.9
13531.4
18280.1
25568.6
36053.8
49182.4
62146.6
70048.5
69981.8
71764.1
16.4753
91.0169
135.084
192.221
241.834
295.535
347.303
400.705
453.924
507.972
562.537
617.498
671.864
724.725
775.876
826.231
876.311
926.536
986.01
1052.67
1121.96
1197.71
1281.8
1380.8
1503.44
1664.93
1898.59
2257.95
2733.72
3272.1
3853.54
4389.1
4836.02
5232.17
5616.15
5989.88
6365.18
6728.06
7079.48
7407.79
7701.71
7932.07
8069.33
8089.88
7991.52
7807.94
7573.03
7294.53
6973.18
6617.9
6253.8
5916.23
5634.45
5416.25
5247.76
5105.52
4972.17
4839.01
4691.98
4516.98
4355.31
4312.64
4436.61
4710.31
5141.53
5749.58
6580.69
7722.73
9325.14
11653.3
15154.2
20498.5
28469.4
39435.5
52389.2
64177
70362
71046.5
71467.5
15.5652
95.4292
140.164
200.234
251.842
308.238
362.512
418.56
474.272
530.723
587.527
644.602
700.933
755.627
808.452
860.247
911.407
962.385
1022.58
1090.47
1161.16
1238.55
1325.38
1428.77
1557.92
1729.32
1979.12
2361.38
2861.28
3425.09
4030.98
4585.14
5047.15
5458.54
5860.92
6254.74
6652.52
7039.86
7417.49
7773.42
8096.81
8358.56
8527.07
8573.62
8489.41
8305.74
8058.88
7761.85
7419.49
7042.71
6657.46
6300.76
6004.17
5776.74
5604
5460.56
5327.2
5193.69
5042.81
4861.21
4704.78
4683.13
4835.37
5147.47
5629.95
6307.42
7235.58
8519.29
10334.2
12983.1
16950.1
22901.3
31493.9
42776.4
55341.4
65841.2
70400.1
72123.9
71086.5
14.5782
99.7068
145.018
208.029
261.64
320.681
377.405
436.043
494.198
552.991
611.956
671.05
729.246
785.678
840.097
893.272
945.438
997.011
1057.77
1126.79
1198.79
1277.72
1367.15
1474.75
1610.22
1791.75
2058.41
2463.89
2987.05
3575.63
4204.44
4776.7
5252.85
5679.34
6099.88
6513.92
6934.15
7346.24
7750.38
8134.42
8487.83
8781.74
8982.73
9057.49
8990.5
8810.2
8554.47
8241.38
7879.92
7483.06
7077.6
6702.03
6390.18
6152.6
5974.54
5829.1
5695.33
5561.22
5406.3
5218.79
5070.3
5073.23
5257.26
5612.61
6153.07
6909.89
7949.97
9397.42
11455.6
14461.8
18924.2
25473.9
34602.3
46026.4
58014.6
67197.7
70228.3
72099.5
70604.3
13.5556
103.827
149.633
215.597
271.24
332.858
391.967
453.134
513.675
574.747
635.794
696.816
756.777
814.851
870.779
925.261
978.361
1030.44
1091.68
1161.73
1234.91
1315.25
1407.16
1518.8
1660.4
1852.21
2136.27
2564.86
3110.44
3723.78
4374.16
4963.36
5452.57
5894.61
6332.66
6767.17
7209.78
7646.82
8077.7
8490.2
8874
9200.57
9434.96
9539.93
9493.17
9319.94
9058.91
8732.84
8354.83
7939.95
7515.72
7121.97
6794.71
6546.15
6361.72
6213.41
6078.68
5943.52
5784.24
5591.75
5454.11
5485.42
5705.49
6109.95
6716.62
7564.76
8734.14
10369.8
12703.2
16099.8
21075.2
28193.9
37750.9
49141.2
60391.5
68269.2
70048.2
71658.4
70276.9
12.5454
107.774
154.009
222.978
280.656
344.761
406.179
469.81
532.675
595.958
659.012
721.874
783.505
843.127
900.474
956.175
1010.14
1062.73
1124.42
1195.37
1269.56
1351.24
1445.46
1560.96
1708.54
1910.71
2212.58
2664.33
3231.52
3868.86
4539
5143.69
5644.98
6103.71
6558.81
7014.18
7479.18
7941.26
8399.01
8840.14
9254.54
9613.99
9882.4
10019.3
9995.71
9833.44
9571.12
9235.79
8844.42
8414.2
7973.25
7562.53
7220.08
6959.92
6768.12
6616.06
6479.81
6343.06
6179
5982.78
5859.21
5923.04
6184.26
6644.86
7327.59
8281.15
9599.54
11449.5
14089.1
17903.4
23394.9
31032.5
40894.2
52082.1
62468.2
69091.6
69991.8
71296.8
70115.4
11.5974
111.544
158.184
230.213
289.863
356.379
420.026
486.05
551.174
616.598
681.583
746.204
809.415
870.493
929.172
986.004
1040.78
1093.92
1156.1
1227.79
1302.81
1385.74
1482.13
1601.28
1754.68
1967.33
2287.62
2762.51
3350.11
4009.76
4697.65
5316.54
5829.6
6305.76
6778.09
7254.63
7742.1
8229.18
8713.87
9183.65
9628.68
10021
10323.7
10494
10496.4
10349.1
10089.9
9749.57
9348.7
8906.47
8451.47
8025.57
7668.63
7396.56
7196.58
7040
6901.69
6762.74
6593.46
6395.21
6289.47
6390.29
6698.74
7223.78
7994.14
9069.17
10558.2
12649.2
15623.2
19873.7
25868.4
33955.2
43987.3
54817.8
64254.8
69712.6
70049.1
71061.6
70112.2
10.757
115.133
162.195
237.261
298.823
367.698
433.49
501.835
569.149
636.642
703.485
769.786
834.496
896.946
956.873
1014.76
1070.32
1124.09
1186.8
1259.03
1334.72
1418.8
1517.2
1639.77
1798.9
2022.22
2361.56
2859.01
3465.53
4146.27
4850.76
5481.8
6007.86
6499.73
6990.61
7488.21
7998.28
8510.24
9021.8
9520.15
9995.67
10420.5
10757.6
10962.4
10993.3
10865.1
10613.8
10273.3
9867.43
9417.19
8951.46
8512.8
8142.61
7858.74
7650.09
7488.41
7347.65
7205.93
7030.95
6832.97
6749.59
6892.27
7255.06
7854.18
8725.36
9939.58
11621.9
13980.1
17311.8
22006.2
28474.6
36924.2
46988
57325.1
65767.2
70173.8
70199.6
70907.5
70225.5
10.0609
118.535
166.057
244.068
307.523
378.696
446.555
517.147
586.582
656.07
724.7
792.61
858.744
922.485
983.585
1042.47
1098.8
1153.29
1216.54
1289.11
1365.35
1450.49
1550.72
1676.48
1841.29
2075.38
2434.44
2953.64
3578.3
4279.45
4998.59
5640.54
6180.31
6685.89
7196.55
7714.67
8247.43
8784.13
9322.33
9849.04
10354.8
10811.6
11183
11422.9
11484.9
11379.8
11141.5
10806.1
10400.2
9946.5
9474.03
9025.71
8644.07
8349.06
8131.64
7964.54
7821.21
7676.23
7495.03
7300.49
7244.99
7434.81
7860.2
8544.32
9530.96
10903.3
12801.8
15450.5
19156.7
24289.9
31186.3
39900
49858.8
59589.8
67026.2
70506.6
70417.8
70809.5
70402.6
9.53177
121.757
169.798
250.621
315.949
389.355
459.205
531.97
603.459
674.87
745.215
814.668
882.16
947.12
1009.32
1069.15
1126.25
1181.52
1245.33
1318.08
1394.77
1480.84
1582.72
1711.5
1881.91
2126.88
2506.33
3046.43
3689
4409.04
5139.84
5793.75
6346.35
6865.96
7395.7
7933.88
8489.27
9050.55
9614.99
10169.7
10705.3
11193.4
11598.7
11874.2
11969.5
11891.4
11671.3
11346.6
10946.2
10494.3
10019.7
9565.42
9174.77
8869.9
8644.15
8471.75
8326.07
8177.49
7989.71
7802.57
7781.28
8024.38
8521.7
9302.95
10420.8
11970.5
14106.9
17065.6
21154.5
26708.5
33972.4
42843
52568.4
61606.3
68056.2
70729
70687
70781
70593.4
9.17672
124.82
173.448
256.907
324.079
399.654
471.423
546.29
619.768
693.034
765.028
835.961
904.753
970.867
1034.1
1094.82
1152.7
1208.83
1273.2
1346
1423.03
1509.92
1613.25
1744.94
1920.85
2176.93
2577.22
3137.05
3796.88
4533.27
5274.48
5940.76
6505.8
7039.9
7587.47
8145.71
8723.55
9309.18
9899.36
10481.6
11046.2
11564.7
12004
12315
12445.5
12398.4
12201.8
11893.6
11504.5
11060
10588.5
10132.7
9736.15
9423.41
9190.38
9013.39
8865.94
8713.79
8519.73
8344.39
8364.21
8667.88
9247.41
10138.9
11404.3
13150.5
15544.1
18826.8
23296.4
29240.6
36799.2
45716
55092.4
63376.6
68883.4
70864.7
70976.7
70767.9
70728.5
8.99689
127.75
177.017
262.907
331.887
409.569
483.196
560.096
635.501
710.558
784.143
856.499
926.54
993.754
1057.96
1119.54
1178.2
1235.27
1300.18
1372.91
1450.19
1537.76
1642.36
1776.88
1958.19
2225.78
2646.93
3225.12
3901.07
4651.81
5403.39
6080.61
6658.91
7206.49
7771.52
8350.1
8950.08
9559.74
10175.1
10783.9
11376.8
11924.7
12398.2
12744.3
12911.8
12899.2
12731.3
12445.7
12074
11642.8
11180.1
10727.7
10329.3
10011.4
9772.87
9592.6
9444.34
9289.17
9089.99
8931.42
8999.87
9372.31
10045.1
11060.5
12489.9
14450.2
17117
20730.8
25568.7
31859.9
39631.8
48485.2
57413.2
64909.1
69538.8
70935.2
71158
70738
70803.2
8.98563
130.572
180.502
268.609
339.341
419.075
494.509
573.374
650.651
727.443
802.568
876.299
947.548
1015.82
1080.95
1143.34
1202.81
1260.86
1326.3
1398.83
1476.31
1564.4
1670.14
1807.37
1994.08
2273.61
2715.3
3310.49
4001.19
4765.03
5525.71
6214.24
6805.78
7365.61
7948.09
8547.15
9168.75
9802.04
10441.9
11076.2
11696.3
12273.1
12780.8
13161.3
13367.1
13392.3
13258.4
13001.2
12653.2
12241.5
11793.6
11350.3
10954.7
10635.2
10393.7
10212.1
10064.5
9907.36
9705.09
9569
9694.2
10144.4
10922.2
12075.3
13684.2
15874.2
18825.2
22769.6
27952.8
34537.1
42435.5
51121.7
59520.6
66216.8
70050.1
70970.8
71206
70711.6
70848.6
9.11529
133.301
183.907
274.002
346.41
428.145
505.345
586.115
665.21
743.693
820.318
895.384
967.807
1037.1
1103.12
1166.29
1226.58
1285.66
1351.56
1423.81
1501.43
1589.9
1696.69
1836.47
2028.71
2320.5
2782.27
3393.17
4097.46
4872.27
5640.71
6342.53
6945.64
7517.69
8117.91
8736.92
9379.39
10035.9
10699.8
11358.4
12004.7
12610.1
13150.5
13565.4
13810.4
13876.6
13781.5
13558.8
13240.5
12854.6
12427.8
11999.5
11612.2
11295.5
11054.4
10874.3
10729.4
10571.6
10369.2
10262.2
10452.7
10990.2
11884.9
13189.3
14991.8
17423.7
20664.5
24930.5
30426.6
37241.3
45177.5
53601.7
61410.4
67316.3
70440.2
71006.1
71228.2
70720.2
70874.5
9.33418
135.955
187.24
279.091
353.064
436.75
515.69
598.305
679.171
759.31
837.409
913.782
987.355
1057.64
1124.52
1188.47
1249.59
1309.72
1375.96
1447.86
1525.61
1614.33
1722.07
1864.3
2062.13
2366.51
2847.82
3473.06
4190
4974.03
5750.55
6465.44
7078.23
7663.11
8281.06
8919.19
9581.83
10261.4
10948.5
11630.5
12302.2
12935.3
13505.9
13955.5
14240.6
14350.9
14299.2
14116.6
13834.1
13480.3
13080.9
12673.9
12300.7
11992
11755.7
11580.7
11441.2
11284.7
11086.1
11015.5
11280.2
11914.9
12938.3
14406.4
16414.6
19096.5
22626.4
27197
32964.8
39941.4
47828
55907.4
63084.4
68227.4
70731.7
71053.2
71243.4
70759.8
70889.3
9.58042
138.552
190.506
283.9
359.296
444.862
525.526
609.932
692.526
774.299
853.858
931.522
1006.23
1077.5
1145.22
1209.93
1271.9
1333.02
1399.45
1471.06
1548.87
1637.77
1746.39
1890.98
2094.35
2411.82
2911.75
3549.91
4278.97
5072.05
5857.07
6582.72
7203.54
7801.86
8437.13
9093.98
9776.28
10478.5
11188
11892.5
12588.6
13248.2
13847.3
14330.6
14656.8
14814.2
14810.1
14673.1
14432.2
14116.5
13750.8
13371.4
13018.6
12723.7
12497.3
12331.8
12201.1
12048.6
11859
11833.3
12180.8
12922.3
14085.5
15728.4
17951.2
20886.7
24698.2
29548.7
35540.2
42607.1
50361.3
58026.6
64549.7
68971.8
70944
71118
71251.8
70818.8
70903
9.78674
141.107
193.708
288.477
365.131
452.461
534.836
620.987
705.268
788.663
869.686
948.635
1024.47
1096.71
1165.27
1230.74
1293.52
1355.52
1422.07
1493.45
1571.3
1660.33
1769.77
1916.59
2125.49
2456.66
2973.84
3623.69
4364.59
5166.41
5958.71
6692.53
7320.82
7933.94
8586.13
9261.57
9963.31
10687.2
11417.7
12144.5
12864
13549
14175.8
14691.4
15059.8
15265.8
15313
15226.5
15032.7
14760.9
14435
14089.6
13763.5
13488.5
13277.7
13126.8
13008.8
12863.4
12689.9
12718.5
13157.3
14015
15327.7
17154.3
19597.4
22784.9
26864
31962.6
38124.4
45209.8
52756.1
59953.1
65817
69571.7
71093.8
71197.9
71257.8
70891.7
70909
9.89103
143.646
196.832
292.862
370.614
459.539
543.603
631.458
717.395
802.41
884.909
965.15
1042.11
1115.31
1184.7
1250.9
1314.46
1377.23
1443.88
1515.08
1592.94
1682.08
1792.29
1941.16
2155.73
2501.04
3033.95
3694.45
4446.6
5255.53
6052.8
6793.03
7430.07
8059.4
8728.25
9422.11
10142.9
10887
11637.9
12386.8
13128.5
13837.9
14491.8
15039.4
15450.4
15705.7
15806.9
15775
15633.4
15411
15130.7
14825.2
14532.2
14283.4
14094.4
13963.7
13862.4
13727.7
13578.8
13672.7
14210.5
15193.2
16663.6
18680.3
21345.5
24778.3
29105
34414
40689.5
47724.2
54995.9
61686
66901.2
70048
71191.8
71297.3
71284.1
70980.6
70910.5
9.84607
146.213
199.865
297.063
375.783
466.103
551.817
641.338
728.904
815.547
899.547
981.1
1059.19
1133.35
1203.55
1270.46
1334.73
1398.18
1464.92
1536.02
1613.86
1703.09
1814.03
1964.82
2185.33
2544.92
3092.02
3762.14
4524.41
5338.58
6139.88
6884.95
7532.2
8178.38
8863.63
9575.64
10314.9
11078.8
11849.8
12619.4
13382.4
14115
14795.2
15375.2
15829.2
16133.6
16290.4
16317
16232.3
16064.2
15834.9
15575.1
15321.3
15105
14944
14839.2
14758.9
14638.7
14524.7
14695.5
15339.4
16455
18089.3
20299.9
23184.9
26851.3
31400.2
36877.7
43209.5
50128.4
57069.4
63228.6
67818.4
70418.3
71249.8
71408.2
71306.8
71051
70910.8
9.63206
148.838
202.782
301.085
380.677
472.181
559.476
650.625
739.802
828.087
913.623
996.514
1075.74
1150.86
1221.86
1289.45
1354.38
1418.43
1485.27
1556.31
1634.11
1723.44
1835.12
1987.83
2214.49
2588.19
3148
3826.64
4597.75
5416.26
6221.11
6969.23
7627.97
8291.18
8992.6
9722.43
10479.9
11263.6
12053.6
12842.6
13625.8
14380.4
15086
15698.5
16195.4
16547.8
16762.4
16850.7
16827
16717.8
16544.2
16335.5
16126.6
15949
15822.1
15749.3
15694.6
15593.4
15524.7
15783.8
16541
17796
19598.5
22003.6
25102.3
28986
33727.3
39328.5
45660.2
52404.1
58969.9
64587.5
68584.7
70701.2
71278.6
71467.2
71309.2
71087.5
70909.1
9.24872
151.485
205.592
304.966
385.337
477.822
566.588
659.323
750.097
840.051
927.16
1011.43
1091.82
1167.89
1239.67
1307.92
1373.45
1438.03
1504.99
1576
1653.74
1743.21
1855.69
2010.38
2243.26
2630.65
3201.68
3887.78
4666.5
5488.86
6296.07
7046.21
7717.83
8398.16
9115.58
9862.75
10638
11441
12248.6
13056.2
13858.5
14634.6
15365
16009.5
16547.2
16947.9
17222.4
17374.6
17415.5
17369.1
17255.5
17102.6
16944
16810.8
16724.1
16689.1
16664.9
16588.1
16575.2
16933.5
17810.7
19209.9
21182.5
23779.8
27082.4
31163.1
36063.5
41742.7
48020.4
54537.4
60695.2
65772.3
69217.1
70913.8
71291.4
71466
71300
71110.7
70906.1
8.67778
154.1
208.341
308.75
389.823
483.117
573.183
667.445
759.809
851.463
940.187
1025.87
1107.46
1184.49
1257.03
1325.9
1391.99
1457.05
1524.13
1595.12
1672.83
1762.48
1875.82
2032.5
2271.65
2672.11
3252.89
3945.46
4730.68
5556.45
6364.83
7117.3
7802.54
8499.7
9232.96
9996.84
10789
11609.7
12434.6
13260
14080.9
14878.3
15632.2
16308.1
16884.7
17334.7
17669.6
17887.1
17995.6
18015.3
17965.4
17872.3
17768.8
17685.5
17644.9
17653.3
17664.6
17618.2
17671.2
18138.8
19141.9
20688.6
22830.8
25614.8
29107.9
33362
38386.5
44097.9
50271.9
56518.9
62247.2
66796
69733.3
71069.9
71302.3
71451.8
71297.8
71128.2
70903.6
7.90092
156.661
211.014
312.413
394.182
488.209
579.347
675.011
768.957
862.35
952.737
1039.88
1122.69
1200.68
1273.98
1343.44
1410.04
1475.53
1542.74
1613.75
1691.43
1781.28
1895.56
2054.28
2299.86
2712.35
3301.4
3999.67
4790.66
5619.04
6427.42
7183.19
7882.27
8596.21
9345.06
10125.1
10933
11770.2
12612.1
13454.6
14293.8
15111.6
15887.6
16594
17208.8
17708.3
18103.3
18386.7
18565.3
18653.7
18670.5
18640.6
18596.3
18567.7
18578.8
18635.8
18687.5
18678.5
18807.3
19392.9
20526.8
22222.5
24531.3
27493.7
31160.8
35562.2
40674.6
46374.7
52400.6
58343.2
63630.9
67672.6
70150.2
71181.5
71317.1
71438.2
71305.5
71144
70903.1
6.93726
159.136
213.566
315.913