/*--------------------------------*- C++ -*----------------------------------*\
| =========                 |                                                 |
| \\      /  F ield         | OpenFOAM: The Open Source CFD Toolbox           |
|  \\    /   O peration     | Version:  4.1                                   |
|   \\  /    A nd           | Web:      www.OpenFOAM.org                      |
|    \\/     M anipulation  |                                                 |
\*---------------------------------------------------------------------------*/
FoamFile
{
    version     2.0;
    format      ascii;
    class       surfaceScalarField;
    location    "26";
    object      phi;
}
// * * * * * * * * * * * * * * * * * * * * * * * * * * * * * * * * * * * * * //

dimensions      [0 3 -1 0 0 0 0];

internalField   nonuniform List<scalar> 
13220
(
-893.015
2193.02
-1384.45
1791.73
-1852.07
1767.6
-2208.01
1655.91
-2483.5
1575.76
-2680.14
1496.61
-2799.7
1419.52
-2842.08
1342.64
-2806.32
1264.2
-2689.61
1183.24
-2493.99
1104.62
-2218.67
1024.66
-1819.31
900.618
-1163.23
644.234
136.68
-14.8419
2208.02
-60.0376
1837.11
-191.564
1899.3
-285.486
1750.01
-380.829
1671.28
-454.528
1570.47
-507.931
1473.09
-538.095
1372.94
-549.367
1275.61
-550.237
1184.24
-546.459
1100.95
-540.5
1018.84
-501.128
861.419
-289.287
432.839
-152.577
-106.62
2314.77
-272.681
2003.3
-425.163
2051.91
-504.011
1828.99
-573.713
1741.13
-602.959
1599.86
-604.891
1475.17
-578.687
1346.9
-527.84
1224.92
-460.008
1116.66
-384.226
1025.42
-294.032
929.033
-188.77
756.967
-80.6163
326.627
-233.194
3.28875
2311.58
-33.0589
2039.76
-55.143
2074.11
-46.5453
1820.52
-41.6532
1736.36
-14.291
1572.65
19.7127
1441.33
66.9209
1299.87
139.879
1152.19
273.745
982.926
476.232
823.102
679.758
725.465
778.688
658.023
582.434
522.882
349.242
6.37858
2305.27
-39.4931
2085.69
-61.6689
2096.34
-86.0109
1844.92
-121.524
1771.94
-156.247
1607.42
-208.357
1493.49
-264.009
1355.55
-304.001
1192.21
-278.104
957.087
-127.493
672.449
136.693
461.56
306.418
488.497
239.124
590.369
588.358
23.4907
2281.82
-103.801
2213.03
-167.475
2160.07
-238.095
1915.58
-317.586
1851.46
-397.319
1687.16
-487.945
1584.12
-585.033
1452.63
-696.591
1303.75
-819.978
1080.4
-918.711
771.162
-856.418
398.929
-570.46
202.129
-227.543
246.903
360.821
123.349
2158.5
9.73639
2326.66
-27.7402
2197.56
-60.631
1948.5
-84.7172
1875.56
-109.518
1711.98
-125.934
1600.54
-141.534
1468.25
-173.11
1335.33
-252.148
1159.51
-418.524
937.521
-643.33
624.079
-679.514
238.726
-441.207
9.10658
-80.3936
193.788
1964.73
159.832
2360.64
169.1
2188.32
191.185
1926.43
233.592
1833.15
273.159
1672.42
325.919
1547.77
383.531
1410.63
439.974
1278.88
467.062
1132.38
434.317
970.274
274.909
783.269
0.764532
512.453
-169.422
178.621
-249.8
165.436
1799.32
182.087
2344.02
204.684
2165.74
237.177
1893.98
284.681
1785.69
328.346
1628.8
378.768
1497.39
431.063
1358.38
484.06
1225.91
524.823
1091.72
542.833
952.281
510.468
815.948
382.613
640.702
159.592
402.497
-90.2276
94.7322
1704.59
133.25
2305.52
156.91
2142.09
180.268
1870.64
215.206
1750.74
244.222
1599.8
273.711
1467.9
300.891
1331.2
323.383
1203.4
336.82
1078.18
341.117
947.947
331.763
824.969
283.431
688.63
168.816
515.945
78.5931
40.9814
1663.57
101.083
2245.39
142.623
2100.49
173.5
1839.71
208.271
1715.9
237.021
1570.98
257.504
1447.33
268.902
1319.71
272.594
1199.62
269.038
1081.69
260.469
956.371
249.643
835.983
217.744
720.627
133.738
600.117
212.308
-7.13929
1670.58
53.7532
2184.4
102.837
2051.27
144.849
1797.57
185.871
1674.69
227.59
1529.11
266.015
1408.7
302.997
1282.57
336.064
1166.37
357.996
1059.5
355.595
958.638
324.008
866.973
259.561
784.448
155.497
703.178
367.806
11.0989
1659.3
140.868
2054.49
258.576
1933.38
327.01
1728.98
393.285
1608.24
471.716
1450.52
564.889
1315.39
670.445
1176.88
772.947
1063.77
847.655
984.733
853.167
953.043
748.823
971.403
543.487
989.837
297.547
949.182
665.35
-317.732
1976.87
-597.532
2334.22
-784.182
2119.9
-968.012
1912.76
-1089.24
1729.36
-1134.19
1495.44
-1094.54
1275.64
-999.492
1081.8
-800.387
864.579
-402.573
586.791
135.895
414.491
348.491
758.477
280.765
1057.36
148.782
1080.94
814.139
172.676
192.468
-15.4174
-293.156
-571.011
-844.305
-1130.67
-1373.25
-1623.48
-1740.57
-1750.36
-1488.89
-1121.89
-608.157
-0.0139989
-32.2519
32.22
-32.2702
-32.2869
-32.3056
-54.5855
22.2622
-54.6042
-54.6206
-54.6397
-90.5569
35.8997
-90.5785
-90.5954
-108.473
17.8568
-108.49
-108.51
-108.527
-108.498
-0.0513484
-108.518
-108.54
-94.434
-14.1247
-94.4559
-94.4726
-94.4952
-57.5989
-36.9146
-57.6215
-57.6385
-57.6615
-8.5944
-49.0858
-8.62008
-8.63757
37.1922
-45.8552
37.1753
37.1503
37.1334
87.5081
-50.4028
87.489
87.4622
135.665
-48.2204
135.639
135.623
135.596
171.111
-35.5318
171.083
171.069
171.041
218.769
-47.7405
218.738
218.727
266.332
-47.6359
266.321
266.29
266.28
308.902
-42.6554
308.893
308.86
308.854
350.07
-41.2537
350.061
350.023
397.051
-47.0329
397.013
397.009
396.969
439.335
-42.3613
439.295
439.304
477.352
-38.096
477.362
477.32
477.333
227.9
249.381
227.916
227.862
227.899
-418.386
646.209
-418.344
-418.457
-1258.76
840.339
-1258.87
-1258.85
-1233.3
-1193.65
-1164.36
-2282.86
1151.26
-2218.5
-2133.59
-2031.18
-1927.11
-1820.73
-1709.23
-1595.59
-1492.7
-3102.18
1727.73
-2962.42
-2817.11
-2667.21
-2573.46
-2480.29
-2385.8
-2291.05
-2201.88
-4469.58
2323.69
-4385.59
-4298.69
-4211.04
-4124.01
-4019.53
-3882.05
-3745.03
-3606.49
-3470.44
-5926.34
2573.38
-5723.57
-5517.14
-5308.05
-5096.89
-4884.36
-4649.91
-4400.72
-4150.3
-6732.65
2816.88
-6474.73
-6204.51
-5915.19
-5622.89
-5328.57
-5035.28
-4737.19
-4402.89
-7109.32
3023.93
-6776.79
-6440.99
-6104.32
-5742.3
-5368.31
-4993.93
-4614.53
-4229.62
-7092.26
3244.73
-6688.88
-6278.39
-5865.55
-5451.39
-5036.19
-4592.02
-4151.03
-3711.25
-3271.65
-5844.91
2999.71
-5411.53
-4964.32
-4524.72
-4091.24
-3664.68
-3262.58
-2900.34
-2541.34
-3727.55
1539.59
-3426.14
-3140.67
-3140.68
-4186.64
1045.91
-4988.19
801.579
-4988.22
-5613.58
625.386
-5613.6
-6090.86
477.273
-6318.65
227.764
-6318.63
-6409.03
90.3772
-6290.23
-118.787
-6290.24
-6023.04
-267.192
-6023.06
-5627.47
-395.578
-5091.99
-535.507
-5091.98
-4431.72
-660.28
-4431.72
-3666
-765.734
-2825.4
-840.599
-2825.41
-1867.73
-957.691
-818.646
-1049.1
-818.647
362.121
-1180.8
362.123
1874.94
-1512.84
3612.33
-1737.38
3612.32
5511.29
-1898.97
5511.28
7540.57
-2029.28
9804.61
-2264.05
9804.62
12176.6
-2371.94
14555.4
-2378.83
14555.4
16811.5
-2256.09
16811.5
18861
-2049.51
20601.8
-1740.77
20601.8
22346.9
-1745.09
22346.9
24354.3
-2007.43
27733.4
-3379.09
27733.4
33420.4
-5687
38800.9
-5380.48
38800.9
42715.3
-3914.44
42715.3
44164.3
-1448.97
43704.1
460.157
43704.1
40437.4
3266.67
40437.4
33850.3
6587.13
25487.5
8362.82
25487.5
13344.9
12142.6
-1539.36
14884.3
-1539.36
-26948.8
25409.5
-26948.8
-65087.9
38139.1
-115800
50712.4
-115800
-178331
62530.4
-178331
-255804
77473
-340273
84469.8
-340273
-441996
101722
-546191
104195
-546191
-664146
117955
-664146
136373
-3102.26
-15183.3
-3107.15
-17703.5
-3146.03
-19132.6
-3227.77
-20490.5
-3357.14
-21622.4
-3514.97
-22584.8
-3677.64
-23546.2
-3829.75
-24592.5
-3973.85
-25763
-4120.78
-27026.4
-4279.99
-28372.1
-4455.67
-29765.6
-4652.95
-31158.6
-4881.18
-32484.8
-5150.85
-33690.1
-5466.33
-34746.2
-5825.04
-35681.5
-6222.6
-36589.3
-6664.17
-37586.1
-7166.63
-38706.4
-7746.24
-39977.7
-8391.73
-41384.8
-9072.68
-42757.6
-9765.05
-43982.8
-10456.7
-45152.2
-11130.7
-46499.4
-11772.3
-48160.8
-12405.6
-50256.8
-13052.4
-52827.6
-13709.2
-55730.4
-14384.3
-58810.1
-15085.8
-61975.6
-15803
-65102.2
-16517.3
-68202.3
-17210
-71249.2
-17872.4
-74195.8
-18498.6
-77088.3
-19089.7
-79950.8
-19635.4
-82708.7
-20082.5
-85080.6
-20330.9
-86364
-20230.6
-85484.8
-19673.5
-81553.3
-18779.5
-75180.7
-17928.9
-68995.6
-17445
-65514.6
-17318.5
-64480
-17360.8
-63984.9
-17442.8
-62807.7
-17517.7
-60720.4
-17569.1
-57775.4
-17601.1
-54062.4
-17629.8
-49640.4
-17661.9
-44494.8
-17679
-38601.5
-17648
-32144.1
-17570.1
-25644.2
-17523.2
-19724.8
-17605.4
-14645
-17830.7
-10190.6
-18133.5
-6058.31
-18465.3
-2158.2
-18863.7
1499.93
-19432
5081.98
-20234.6
8908.29
-21300.9
13254.8
-22685.7
18410.2
-24460.1
24737.1
-26722
32722.5
-29607.8
43042
-33311.9
56677.2
-38118.7
75127.2
-44454.6
100775
-52980.4
137578
-64742.9
192234
-81352.6
275647
-104589
403895
-131574
584972
769590
-3200.63
-15192.4
-3209.11
-17695
-3257.69
-19084
-3352.43
-20395.7
-3495.84
-21479
-3663.12
-22417.6
-3829.32
-23380
-3982.28
-24439.6
-4128.55
-25616.7
-4279.8
-26875.1
-4445.41
-28206.5
-4629.91
-29581.1
-4839.57
-30949
-5084.72
-32239.6
-5375.91
-33398.9
-5716.22
-34405.9
-6100.98
-35296.7
-6523.9
-36166.4
-6986.98
-37123.1
-7506.73
-38186.6
-8106.47
-39378
-8780.19
-40711.1
-9491.44
-42046.4
-10204.7
-43269.5
-10910
-44446.9
-11600.1
-45809.2
-12258.1
-47502.8
-12899.6
-49615.2
-13549.7
-52177.5
-14206.3
-55073.8
-14875.4
-58141
-15571.2
-61279.8
-16291
-64382.3
-17017.7
-67475.6
-17726.6
-70540.3
-18406
-73516.4
-19050.2
-76444.1
-19655
-79346
-20214.7
-82149
-20682.7
-84612.5
-20965
-86081.8
-20920.7
-85529.1
-20432.9
-82041.1
-19581
-76032.6
-18707.3
-69869.3
-18152.7
-66069.2
-17960.8
-64671.9
-17972.3
-63973.4
-18054.8
-62725.2
-18150.6
-60624.6
-18233.2
-57692.7
-18298.3
-53997.3
-18357.5
-49581.2
-18419
-44433.3
-18467.8
-38552.7
-18466.5
-32145.3
-18391.7
-25719
-18285.3
-19831.2
-18244.9
-14685.3
-18340.4
-10095.2
-18567.5
-5831.16
-18896.2
-1829.51
-19341.2
1944.95
-19962.2
5702.99
-20810.3
9756.31
-21924.9
14369.5
-23364
19849.2
-25202.4
26575.6
-27541.3
35061.4
-30520.9
46021.6
-34341.5
60497.9
-39293.9
80079.7
-45810.2
107291
-54566.8
146335
-66714
204381
-84190.9
293124
-108574
428278
-133356
609753
754190
-3258.57
-15201.7
-3271.77
-17681.8
-3329.44
-19026.3
-3434.23
-20291
-3586
-21327.2
-3757.19
-22246.4
-3923.83
-23213.4
-4077.1
-24286.3
-4225.92
-25467.9
-4381.65
-26719.4
-4553.11
-28035
-4745.36
-29388.9
-4965.89
-30728.4
-5225.58
-31980
-5534.11
-33090.4
-5892.7
-34047.3
-6295.04
-34894.4
-6735.2
-35726.2
-7213.85
-36644.4
-7745.11
-37655.4
-8353.96
-38769.1
-9040.69
-40024.4
-9769.57
-41317.5
-10495.3
-42543.8
-11204.8
-43737.4
-11900.9
-45113.1
-12571.7
-46832
-13224.1
-48962.8
-13879.2
-51522.4
-14537.7
-54415.4
-15203
-57475.7
-15891.6
-60591.2
-16608.1
-63665.7
-17339.3
-66744.4
-18057.2
-69822.4
-18745.6
-72828.1
-19402.7
-75787
-20019.7
-78729
-20588.8
-81579.9
-21069.3
-84132.1
-21369.4
-85781.7
-21353.8
-85544.6
-20903.4
-82491.5
-20077.9
-76858.1
-19196.3
-70750.9
-18601.7
-66663.8
-18364.5
-64909.2
-18346.7
-63991.1
-18417.8
-62654.2
-18516.2
-60526.2
-18612.6
-57596.3
-18698.2
-53911.7
-18779.5
-49500
-18861.5
-44351.2
-18930.5
-38483.7
-18955.4
-32120.4
-18919.4
-25755
-18857.6
-19892.9
-18846.9
-14696.1
-18946.7
-9995.35
-19169.6
-5608.24
-19509.2
-1489.93
-19987.2
2422.94
-20651.4
6367.22
-21547
10651.9
-22716.8
15539.2
-24219.8
21352.2
-26134.3
28490
-28565.1
37492.2
-31657.2
49113.7
-35616.4
64457.1
-40736
85199.3
-47451.8
114007
-56499.9
155383
-69299.1
217180
-88222.8
312048
-113591
453646
-132530
628693
725854
-3323.24
-15210.9
-3341.93
-17663.1
-3410.11
-18958.1
-3526.43
-20174.6
-3687.54
-21166.1
-3863.33
-22070.6
-4031.22
-23045.5
-4185.52
-24132
-4337.24
-25316.2
-4497.82
-26558.8
-4676.02
-27856.8
-4877.53
-29187.3
-5110.71
-30495.3
-5386.84
-31703.8
-5714.84
-32762.4
-6093.82
-33668.4
-6515.27
-34472.9
-6973.45
-35268.1
-7469.97
-36147.9
-8016.72
-37108.6
-8637.56
-38148.3
-9338.14
-39323.8
-10085.5
-40570.1
-10825.9
-41803.4
-11539.6
-43023.7
-12237.7
-44415
-12916.8
-46152.9
-13578.5
-48301.1
-14239.2
-50861.6
-14900.8
-53753.8
-15565.1
-56811.5
-16249.4
-59906.9
-16964.4
-62950.7
-17702.3
-66006.5
-18433.5
-69091.2
-19134.4
-72127.1
-19806
-75115.5
-20438.6
-78096.3
-21021.5
-80997
-21519
-83634.5
-21844.4
-85456.4
-21866.8
-85522.2
-21463.5
-82894.8
-20670.5
-77651
-19779.6
-71641.9
-19138.4
-67304.9
-18849.4
-65198.1
-18798.4
-64042.1
-18856.7
-62595.9
-18958.1
-60424.8
-19070.3
-57484.1
-19180.1
-53801.9
-19288.8
-49391.3
-19397.5
-44242.6
-19490.3
-38390.8
-19537.7
-32073.1
-19525.9
-25766.8
-19489.9
-19929
-19500.3
-14685.7
-19613.1
-9882.53
-19845.8
-5375.49
-20201.8
-1133.92
-20708.9
2929.96
-21411.7
7070.11
-22353.6
11593.7
-23579.4
16765
-25149.4
22922.3
-27144.3
30484.9
-29673.5
40021.3
-32886.7
52327
-36992
68562.3
-42280.8
90488.1
-49213.7
120940
-58681.2
164850
-72478.5
230977
-93004
332574
-118310
478952
-131540
641924
696036
-3384.25
-15219.5
-3409.26
-17638.1
-3489
-18878.4
-3617.32
-20046.3
-3787.1
-20996.3
-3966.43
-21891.3
-4135.23
-22876.7
-4290.98
-23976.3
-4446.23
-25160.9
-4612.35
-26392.7
-4798.08
-27671.1
-5009.93
-28975.5
-5257.03
-30248.2
-5550.64
-31410.2
-5898.64
-32414.4
-6298.02
-33269
-6738.03
-34032.9
-7213.02
-34793.1
-7726.77
-35634.1
-8289.74
-36545.7
-8922.76
-37515.2
-9635.27
-38611.3
-10397.4
-39807.9
-11150.5
-41050.3
-11867.8
-42306.5
-12564.2
-43718.6
-13247.4
-45469.7
-13917
-47631.5
-14583.5
-50195
-15249.8
-53087.5
-15915.3
-56146.1
-16596.7
-59225.5
-17309.6
-62237.8
-18052.6
-65263.5
-18798.1
-68345.8
-19515
-71410.2
-20201.9
-74428.5
-20851.1
-77447.2
-21450
-80398.1
-21966.4
-83118
-22318.6
-85104.3
-22380
-85460.7
-22025.4
-83249.4
-21269.6
-78406.8
-20375
-72536.5
-19689.4
-67990.5
-19346.2
-65541.3
-19256.8
-64131.5
-19296.8
-62555.9
-19396.4
-60325.1
-19521.1
-57359.4
-19654.6
-53668.4
-19792.8
-49253.1
-19931.2
-44104.2
-20050.5
-38271.4
-20122.7
-32000.9
-20139.5
-25750
-20136.8
-19931.6
-20178.7
-14643.9
-20314.9
-9746.27
-20565.2
-5125.22
-20940.5
-758.636
-21475.3
3464.77
-22215
7809.8
-23201.6
12580.3
-24482.8
18046.3
-26120.8
24560.2
-28198.9
32563
-30830.2
42652.7
-34167.1
55663.8
-38414.3
72809.5
-43867.5
95941.3
-51062.5
128135
-61147.3
174935
-76250.5
246081
-98184.8
354508
-122112
502879
-127872
647684
652634
-3444.58
-15226.8
-3476.63
-17606
-3568.84
-18786.2
-3709.61
-19905.6
-3887.76
-20818.2
-4070.14
-21708.9
-4239.87
-22707
-4397.57
-23818.6
-4557.04
-25001.5
-4729.41
-26220.3
-4923.53
-27477
-5146.8
-28752.2
-5409.03
-29985.9
-5721.09
-31098.1
-6089.5
-32046
-6509.31
-32849.2
-6967.87
-33574.4
-7459.37
-34301.6
-7990.12
-35103.4
-8570.11
-35965.7
-9216.19
-36869.2
-9939.15
-37888.3
-10712
-39035.1
-11474.6
-40287.8
-12195
-41586
-12888.5
-43025.2
-13572.3
-44785.9
-14247.7
-46956.1
-14920.2
-49522.5
-15593
-52414.7
-16262.9
-55476.2
-16944.3
-58544.1
-17656
-61526
-18402.7
-64516.9
-19162
-67586.4
-19897.5
-70674.6
-20602.2
-73723.8
-21270.1
-76779.4
-21887.7
-79780.5
-22426.1
-82579.6
-22808.2
-84722.1
-22911.7
-85357.2
-22609.1
-83552.1
-21894.9
-79120.9
-21001.8
-73429.7
-20273.9
-68718.4
-19874.3
-65940.9
-19741.7
-64264.2
-19758.3
-62539.3
-19851.8
-60231.6
-19985.8
-57225.4
-20141.9
-53512.4
-20311.1
-49083.8
-20482.4
-43932.9
-20631.1
-38122.7
-20728.5
-31903.5
-20771.9
-25706.7
-20801.1
-19902.4
-20876.7
-14568.3
-21042.4
-9580.57
-21316.3
-4851.3
-21713.7
-361.261
-22276.1
4027.18
-23051.9
8585.57
-24082.2
13610.7
-25418.2
19382.3
-27124.9
26266.9
-29288
34726.1
-32022.4
45387.1
-35477.5
59118.9
-39854.6
77186.7
-45478.4
101565
-53030.5
135687
-63970.4
185875
-80534.1
262644
-103289
377263
-124434
524023
-122808
646058
607298
-3504.3
-15232.3
-3544.18
-17566.2
-3649.65
-18680.7
-3803.12
-19752.1
-3989.15
-20632.1
-4173.99
-21524.1
-4344.63
-22536.3
-4504.83
-23658.4
-4669.21
-24837.1
-4848.65
-26040.9
-5052.14
-27273.5
-5288.07
-28516.3
-5566.68
-29707.3
-5898.02
-30766.8
-6286.88
-31657.1
-6726.77
-32409.3
-7203.75
-33097.4
-7711.72
-33793.6
-8259.29
-34555.8
-8856.56
-35368.4
-9516.09
-36209.6
-10246.3
-37158.2
-11023.4
-38258
-11791.7
-39519.4
-12515.6
-40862.2
-13206.9
-42333.9
-13889.3
-44103.5
-14568.4
-46277
-15246.8
-48844.1
-15927.5
-51734
-16605.2
-54798.4
-17290.4
-57858.9
-18003
-60813.5
-18752.2
-63767.7
-19523.5
-66815.2
-20278.9
-69919.2
-21003.9
-72998.8
-21692.7
-76090.5
-22331.6
-79141.7
-22894.2
-82016.9
-23308.7
-84307.7
-23456.5
-85209.4
-23209
-83799.6
-22542.1
-79787.7
-21658
-74313.8
-20892.3
-69484.1
-20434.8
-66398.4
-20253.3
-64445.6
-20240.1
-62552.5
-20321.7
-60150
-20460.6
-57086.4
-20637
-53336
-20837.6
-48883.2
-21044.1
-43726.4
-21225.2
-37941.7
-21350.1
-31778.5
-21420.5
-25636.4
-21480.7
-19842.1
-21589.9
-14459.1
-21787.5
-9382.96
-22089.6
-4549.23
-22512.9
62.0428
-23105
4619.33
-23918.3
9398.81
-24993.2
14685.6
-26385
20774.1
-28161.3
28043.2
-30410
36974.8
-33243.4
48220.4
-36805.5
62681
-41304.9
81686.1
-47138.4
107399
-55198.9
143747
-67223.4
197900
-85204.8
280626
-108006
400064
-125307
541325
-116040
636791
553789
-3564.15
-15235
-3612.78
-17517.5
-3732.08
-18561.4
-3898.19
-19586
-4091.49
-20438.8
-4278.27
-21337.3
-4449.93
-22364.7
-4613.23
-23495.1
-4783.29
-24667
-4970.67
-25853.5
-5184.63
-27059.5
-5434.52
-28266.4
-5730.77
-29411.1
-6082.07
-30415.5
-6491.16
-31248
-6950.4
-31950
-7445.51
-32602.3
-7970.17
-33269
-8534.56
-33991.4
-9148.75
-34754.2
-9821.29
-35537.1
-10556
-36423.5
-11330.8
-37483.2
-12100.3
-38749.8
-12827.3
-40135.1
-13517.6
-41643.6
-14197.9
-43423.2
-14879
-45596
-15562.9
-48160.1
-16252.5
-51044.4
-16941.3
-54109.6
-17634.6
-57165.6
-18351.2
-60096.8
-19103.2
-63015.7
-19883.9
-66034.5
-20659.5
-69143.6
-21407.1
-72251.2
-22119.1
-75378.6
-22781.8
-78478.9
-23371.2
-81427.5
-23820.4
-83858.5
-24015.1
-85014.8
-23825.8
-83988.9
-23212
-80401.5
-22345.1
-75180.7
-21547.9
-70281.3
-21032.9
-66913.4
-20797.8
-64680.7
-20747.7
-62602.6
-20810.3
-60087.4
-20948.3
-56948.4
-21141.3
-53143
-21372.1
-48652.4
-21615
-43483.5
-21831
-37725.7
-21985.9
-31623.5
-22084.1
-25538.2
-22174.4
-19751.8
-22315.9
-14317.6
-22545.2
-9153.61
-22877.2
-4217.23
-23331.2
516.006
-23957.4
5245.61
-24810.4
10251.8
-25932.4
15807.6
-27381.9
22223.6
-29228.7
29890
-31560
39306.2
-34483.4
51143.8
-38141.2
66338.8
-42773.1
86318
-48899.4
113525
-57657.3
152505
-70928.7
211171
-90075.6
299773
-112033
422021
-124608
553900
-107933
620117
496568
-3624.78
-15233.9
-3683.23
-17459.1
-3816.69
-18427.9
-3995.03
-19407.6
-4194.83
-20239
-4383.12
-21149
-4556.01
-22191.8
-4723.06
-23328
-4899.62
-24490.5
-5095.89
-25657.3
-5321.55
-26833.9
-5586.78
-28001.2
-5901.88
-29096
-6273.7
-30043.7
-6702.57
-30819.1
-7180.11
-31472.5
-7692.76
-32089.6
-8234.38
-32727.3
-8815.8
-33410
-9446.33
-34123.7
-10130.3
-34853.1
-10867.6
-35686.2
-11635.8
-36715
-12400.7
-37985
-13128.8
-39407
-13818.5
-40953.9
-14496.7
-42745.1
-15179.1
-44913.5
-15868.4
-47470.9
-16567
-50345.8
-17269.3
-53407.4
-17975
-56459.9
-18699.9
-59371.9
-19456.7
-62258.9
-20245.2
-65246
-21040
-68348.8
-21811.7
-71479.5
-22548.6
-74641.6
-23237.7
-77789.9
-23856.3
-80808.9
-24342.5
-83372.2
-24586.3
-84771
-24458.4
-84116.8
-23903.8
-80956.2
-23063.7
-76020.8
-22243.2
-71101.8
-21672.8
-67483.8
-21380.4
-64973.1
-21286.6
-62696.4
-21322.5
-60051.5
-21452.4
-56818.5
-21656.5
-52938.8
-21914.5
-48394.5
-22193.2
-43204.8
-22445.7
-37473.2
-22633.4
-31435.8
-22761.5
-25410.2
-22881.7
-19631.6
-23054
-14145.3
-23313.9
-8893.71
-23676.7
-3854.47
-24165.5
1004.83
-24830.1
5910.2
-25725.4
11147
-26897.4
16979.6
-28406.7
23732.9
-30322.8
31806.1
-32730
41713.4
-35731.6
54145.4
-39481.7
70088.9
-44285.1
91121.5
-50829.9
120070
-60475.8
162151
-75039.5
225735
-94913.9
319647
-115139
442247
-122416
561177
-98830.3
596531
435877
-3686.83
-15227.6
-3756.36
-17389.6
-3904.07
-18280.2
-4093.86
-19217.8
-4299.21
-20033.7
-4488.68
-20959.5
-4663.14
-22017.3
-4834.67
-23156.5
-5018.6
-24306.5
-5224.84
-25451
-5463.51
-26595.2
-5745.49
-27719.2
-6080.58
-28760.9
-6473.33
-29651
-6921.4
-30371.1
-7415.97
-30977.9
-7945.24
-31560.3
-8503.92
-32168.7
-9102.46
-32811.5
-9748.66
-33477.5
-10442.3
-34159.4
-11179.9
-34948.6
-11939.3
-35955.6
-12695.3
-37229
-13420.4
-38681.9
-14108.8
-40265.5
-14785.1
-42068.8
-15468.5
-44230.1
-16162.9
-46776.5
-16870.4
-49638.2
-17587.5
-52690.3
-18309.3
-55738.1
-19046.7
-58634.5
-19812.1
-61493.5
-20609.5
-64448.6
-21421.9
-67536.4
-22217.5
-70683.8
-22981
-73878.2
-23698.6
-77072.3
-24348.9
-80158.6
-24874.5
-82846.5
-25169.8
-84475.8
-25106.5
-84180
-24617.1
-81445.6
-23813.6
-76824.3
-22979.9
-71935.6
-22358.7
-68105
-22006.8
-65325
-21863.1
-62840
-21864.4
-60050.3
-21977.9
-56705
-22186
-52730.8
-22466
-48114.5
-22778
-42892.8
-23067
-37184.2
-23290.1
-31212.7
-23451.7
-25248.6
-23604.3
-19478.9
-23808.3
-13941.3
-24099.2
-8602.82
-24493.7
-3460.02
-25018.6
1529.78
-25723.4
6615.04
-26663.6
12087.2
-27888
18204
-29456.8
25301.7
-31437.4
33786.7
-33909.8
44185.8
-36980.6
57216.2
-40837.2
73945.5
-45886.4
96170.7
-53003.3
127187
-63689.7
172837
-79449
241494
-99479.5
339678
-117168
459935
-118854
562863
-89032
566708
372254
-3750.93
-15214.5
-3832.96
-17307.5
-3994.81
-18118.4
-4194.88
-19017.8
-4404.63
-19823.9
-4595.05
-20769.1
-4771.59
-21840.8
-4948.44
-22979.6
-5140.69
-24114.3
-5358.04
-25233.7
-5611.11
-26342.1
-5911.25
-27419
-6267.35
-28404.8
-6681.27
-29237
-7147.9
-29904.4
-7658.22
-30467.6
-8202.99
-31015.6
-8778.43
-31593.2
-9393.7
-32196.2
-10054.5
-32816.7
-10755.8
-33458
-11490.7
-34213.8
-12239.5
-35206.8
-12984.5
-36484
-13703.4
-37963
-14388.8
-39580
-15062.8
-41394.9
-15746.6
-43546.3
-16446.2
-46076.8
-17163
-48921.5
-17895.1
-51958.2
-18635.6
-54997.6
-19389.3
-57880.7
-20167.5
-60715.4
-20976.3
-63639.8
-21805.6
-66707.1
-22624.8
-69864.6
-23415.9
-73087
-24164.1
-76324.1
-24848.4
-79474.3
-25415.8
-82279.2
-25764.9
-84126.7
-25769.3
-84175.6
-25351
-81863.9
-24594.6
-77580.8
-23759.2
-72770.9
-23093.9
-68770.2
-22682.4
-65736.5
-22483.8
-63038.7
-22442.7
-60091.4
-22530.8
-56616.8
-22734.2
-52527.5
-23029.2
-47819.4
-23369.8
-42552.2
-23693.6
-36860.4
-23953.6
-30952.7
-24152.7
-25049.5
-24342.1
-19289.5
-24580.7
-13702.7
-24903.9
-8279.71
-25330.3
-3033.61
-25891.6
2091.07
-26637.7
7361.18
-27624
13073.5
-28900
19480
-30524
26925.7
-32560.1
35822.7
-35088
46713.7
-38230.9
60359.1
-42234.8
77949.3
-47636.4
101572
-55483.9
135034
-67288.7
184642
-84004.1
258209
-103549
359223
-118042
474428
-114116
558937
-79104.2
531697
308034
-3817.72
-15192.8
-3913.78
-17211.5
-4089.42
-17942.7
-4298.25
-18809
-4511.11
-19611.1
-4702.34
-20577.9
-4881.65
-21661.5
-5064.77
-22796.5
-5266.36
-23912.7
-5496.05
-25004
-5764.96
-26073.2
-6084.63
-27099.4
-6462.57
-28026.8
-6897.76
-28801.9
-7382.29
-29419.9
-7907.21
-29942.7
-8466.34
-30456.4
-9057.76
-31001.8
-9688.55
-31565.4
-10362.1
-32143.2
-11069.3
-32750.9
-11798.5
-33484.5
-12534.3
-34471
-13266.4
-35751.9
-13977.7
-37251.7
-14659.6
-38898.2
-15330.4
-40724
-16013.5
-42863.2
-16717.9
-45372.4
-17444.6
-48194.7
-18192
-51210.9
-18952.6
-54237
-19725.6
-57107.7
-20520.7
-59920.3
-21343.8
-62816.6
-22190.4
-65860.6
-23033.4
-69021.6
-23853.2
-72267.2
-24633.9
-75543.4
-25354.4
-78753.7
-25965.7
-81667.9
-26371.1
-83721.3
-26446.2
-84100.5
-26104.9
-82205.2
-25405.8
-78279.9
-24581.5
-73595.3
-23881.1
-69470.6
-23412
-66205.6
-23154.9
-63295.8
-23064.4
-60181.8
-23118.2
-56563
-23306.9
-52338.8
-23608.1
-47518.3
-23970.5
-42189.9
-24325.2
-36505.7
-24621.9
-30656
-24861.5
-24809.9
-25091.9
-19059.1
-25368.6
-13426
-25725.9
-7922.33
-26185.2
-2574.33
-26782.9
2688.82
-27570.1
8148.33
-28600.9
14104.3
-29924.3
20803.4
-31595.9
28597.4
-33678.7
37905.5
-36260.2
49295.2
-39496.8
63595.7
-43717
82169.5
-49599
107454
-58311.5
143747
-71215.1
197546
-88527.3
275521
-106933
377628
-117688
485183
-108172
549422
-69383.9
492908
250793
-3887.87
-15160.7
-3999.5
-17099.8
-4188.35
-17753.9
-4404.13
-18593.2
-4618.68
-19396.5
-4810.7
-20385.8
-4993.62
-21478.5
-5184.08
-22606.1
-5396.15
-23700.6
-5639.48
-24760.6
-5925.69
-25787
-6266.12
-26758.9
-6666.55
-27626.4
-7122.87
-28345.5
-7624.65
-28918.1
-8163.17
-29404.2
-8735.46
-29884.1
-9341.66
-30395.6
-9986.12
-30920.9
-10669.7
-31459.6
-11380.4
-32040.1
-12102.7
-32762.3
-12824.7
-33749
-13541.7
-35034.9
-14243
-36550.5
-14921.1
-38220
-15588.8
-40056.3
-16270.4
-42181.7
-16978.3
-44664.5
-17714.7
-47458.3
-18477.7
-50447.9
-19259.8
-53454.9
-20055.4
-56312.1
-20871
-59104.7
-21711.4
-61976.3
-22575.9
-64996
-23443.2
-68154.4
-24292.6
-71417.8
-25107.4
-74728.7
-25866.4
-77994.8
-26523.7
-81010.5
-26987.8
-83257.3
-27136.8
-83951.5
-26878
-82464
-26246.4
-78911.4
-25446.3
-74395.4
-24721.7
-70195.2
-24199.5
-66727.8
-23882.3
-63613.1
-23736.8
-60327.3
-23747.5
-56552.3
-23911
-52175.3
-24207.5
-47221.8
-24582.8
-41814.6
-24962.5
-36126
-25293.3
-30325.2
-25574.1
-24529.1
-25848
-18785.2
-26165.5
-13108.6
-26559
-7528.76
-27052
-2081.32
-27686.1
3322.85
-28512.9
8975.16
-29584.6
15175.9
-30949.2
22168
-32661
30309.2
-34786.9
40031.4
-37433.1
51941.4
-40806.9
66969.5
-45336.9
86699.5
-51830.9
113948
-61492.8
153408
-75370.1
211423
-92833.6
292985
-109473
394267
-116093
491803
-101298
534626
-59923
451534
199233
-3962.06
-15116.3
-4090.73
-16971.2
-4291.96
-17552.6
-4512.68
-18372.5
-4727.45
-19181.7
-4920.31
-20193
-5107.82
-21291
-5306.82
-22407.1
-5530.6
-23476.8
-5788.95
-24502.3
-6093.85
-25482.1
-6456.14
-26396.6
-6879.43
-27203.1
-7356.56
-27868.4
-7874.9
-28399.8
-8426.16
-28852.9
-9010.34
-29300
-9629.72
-29776.2
-10285.6
-30265.1
-10975.6
-30769.6
-11686.6
-31329.1
-12401.2
-32047.7
-13110.1
-33040
-13811.4
-34333.6
-14500.3
-35861.5
-15173.2
-37547.1
-15838.2
-39391.2
-16518.7
-41501.3
-17229.3
-43953.9
-17973.9
-46713.7
-18752.3
-49669.5
-19556.8
-52650.4
-20378.4
-55490.6
-21217.5
-58265.6
-22078
-61115.8
-22962.3
-64111.6
-23854.2
-67262.5
-24734.2
-70537.8
-25584.4
-73878.4
-26383.7
-77195.6
-27089.3
-80304.9
-27614.4
-82732.2
-27840.3
-83725.6
-27669.2
-82635.1
-27114.8
-79465.8
-26352.6
-75157.6
-25616.2
-70931.6
-25047.6
-67296.3
-24670.9
-63989.8
-24466.4
-60531.8
-24426.3
-56592.4
-24553.7
-52047.8
-24833.4
-46942.1
-25210.5
-41437.5
-25607
-35729.5
-25967.1
-29965.2
-26287.2
-24209
-26604.9
-18467.5
-26964.6
-12748.9
-27395.6
-7097.8
-27922.4
-1554.47
-28591.6
3992.08
-29455.7
9839.28
-30563.7
16283.9
-31963.9
23568.2
-33712.4
32057.8
-35887.6
42206.6
-38626.8
54680.6
-42203.4
70546.2
-47150.9
91647
-54371.1
121169
-64997.4
164035
-79624.5
226050
-96743.5
310104
-111053
408577
-113303
494053
-93698.9
515022
-50883.5
408718
154936
-4040.95
-15057.7
-4187.95
-16824.2
-4400.47
-17340.1
-4624
-18148.9
-4837.58
-18968.2
-5031.44
-19999.1
-5224.63
-21097.8
-5433.48
-22198.2
-5670.3
-23240
-5945.07
-24227.5
-6270
-25157.2
-6655
-26011.6
-7101.24
-26756.9
-7598.62
-27371
-8132.81
-27865.6
-8696.07
-28289.7
-9290.86
-28705.2
-9921.3
-29145.8
-10585.8
-29600.6
-11278.4
-30076.9
-11985.6
-30621.8
-12690.5
-31342.8
-13386
-32344.6
-14073
-33646.6
-14750.5
-35184
-15417.1
-36880.6
-16079
-38729.3
-16758.4
-40821.9
-17471.4
-43240.9
-18223.5
-45961.6
-19016.5
-48876.5
-19843.5
-51823.3
-20693
-54641.1
-21558.2
-57400.4
-22442.1
-60231.9
-23349
-63204.8
-24266.1
-66345.3
-25177.5
-69626.4
-26064.5
-72991.4
-26905.7
-76354.3
-27661.7
-79549
-28250.4
-82143.5
-28556.1
-83419.8
-28477.6
-82713.6
-28009.6
-79933.9
-27298.6
-75868.6
-26564
-71666.2
-25958
-67902.3
-25524.8
-64423
-25259.2
-60797.4
-25161.8
-56689.9
-25242.7
-51966.9
-25492.4
-46692.4
-25858.5
-41071.4
-26261.4
-35326.5
-26643.6
-29583
-26998.8
-23853.8
-27358.3
-18107.9
-27759.7
-12347.5
-28227.9
-6629.6
-28787.6
-994.851
-29489.9
4694.36
-30388.6
10738
-31529.5
17424.8
-32963.2
25001.9
-34752.9
33847.5
-36996.6
44450.3
-39874.7
57558.7
-43736.2
74407.7
-49209.5
97120.2
-57233.4
129193
-68760
175561
-83830.7
241121
-100095
326368
-111606
420089
-109427
491874
-85663.6
491258
-42326.3
365381
115877
-4125.2
-14983.3
-4291.42
-16658
-4513.87
-17117.7
-4738.11
-17924.7
-4949.31
-18757
-5144.5
-19803.9
-5344.51
-20897.8
-5564.58
-21978.1
-5815.85
-22988.8
-6108.44
-23934.9
-6454.56
-24811.1
-6862.83
-25603.4
-7331.79
-26287.9
-7848.68
-26854.1
-8397.92
-27316.4
-8972.47
-27715.1
-9576.52
-28101.1
-10215.4
-28506.9
-10885.3
-28930.8
-11576.7
-29385.5
-12276.1
-29922.5
-12968.4
-30650.5
-13649.7
-31663.3
-14323.7
-32972.6
-14992
-34515.8
-15653.1
-36219.4
-16312.4
-38070.1
-16990.8
-40143.5
-17705.5
-42526.2
-18464.3
-45202.7
-19271.3
-48069.6
-20121.7
-50972.9
-21001
-53761.7
-21894.3
-56507.1
-22803.6
-59322.5
-23735.1
-62273.3
-24678.7
-65401.8
-25622.3
-68682.8
-26547.1
-72066.7
-27431.9
-75469.4
-28240.2
-78740.8
-28894.8
-81488.8
-29283.5
-83031.1
-29302.1
-82695
-28928.6
-80307.3
-28281.9
-76515.4
-27563.4
-72384.7
-26930.9
-68534.8
-26446.6
-64907.3
-26120.2
-61123.8
-25960.9
-56849.2
-25985.7
-51942.1
-26192.1
-46486
-26532.6
-40731
-26929.5
-34929.5
-27324.7
-29187.8
-27708.8
-23469.8
-28106.2
-17710.5
-28546.7
-11907
-29050.3
-6125.98
-29640.8
-404.401
-30374
5427.6
-31306
11670
-32479.7
18598.4
-33951.2
26473.4
-35796.4
35692.7
-38141.6
46795.6
-41219.4
60636.4
-45455.9
78644.2
-51548.4
103213
-60401.8
138046
-72685.4
187845
-87834.6
256270
-102752
341285
-111112
428449
-104619
485381
-77434.9
464075
-34404.8
322351
81932
-4215.36
-14891.9
-4401.14
-16472.2
-4631.93
-16886.9
-4854.98
-17701.6
-5062.92
-18549
-5259.98
-19606.9
-5467.99
-20689.8
-5700.67
-21745.5
-5967.82
-22721.6
-6279.61
-23623.1
-6647.9
-24442.8
-7079.63
-25171.6
-7570.71
-25796.8
-8106.13
-26318.7
-8669.56
-26752.9
-9254.51
-27130.2
-9866.21
-27489.4
-10510.6
-27862.5
-11182.1
-28259.3
-11868.7
-28698.9
-12556.8
-29234.4
-13234.4
-29972.8
-13901
-30996.8
-14562.9
-32310.7
-15223.1
-33855.6
-15880.3
-35562.1
-16538.8
-37411.6
-17217.7
-39464.6
-17933.8
-41810.1
-18698.7
-44437.8
-19518.9
-47249.4
-20393.1
-50098.7
-21303.3
-52851.5
-22227
-55583.4
-23163.3
-58386.2
-24120.3
-61316.2
-25091.5
-64430.6
-26067.9
-67706.4
-27031.5
-71103.1
-27961.4
-74539.5
-28823.8
-77878.3
-29546.8
-80765.8
-30021.2
-82556.7
-30141.1
-82575.2
-29869.8
-80578.6
-29299.5
-77085.6
-28611.8
-73072.5
-27965.3
-69181.3
-27437.7
-65434.9
-27053.2
-61508.3
-26829.8
-57072.6
-26790.8
-51981.1
-26941.1
-46335.7
-27240.7
-40431.4
-27617.3
-34552.9
-28014.1
-28791
-28418.7
-23065.2
-28848.3
-17281
-29323.9
-11431.4
-29860.2
-5589.68
-30479.6
215.064
-31243
6190.97
-32209.4
12636.4
-33420.1
19809.2
-34941.3
27994.5
-36866.9
37618.4
-39359.1
49287.7
-42707.6
63985
-47406.6
83343.1
-54182.5
109989
-63830.2
147694
-76657.1
200672
-91486.8
271100
-104614
354412
-109598
433433
-99049.2
474832