/*--------------------------------*- C++ -*----------------------------------*\
| =========                 |                                                 |
| \\      /  F ield         | OpenFOAM: The Open Source CFD Toolbox           |
|  \\    /   O peration     | Version:  4.1                                   |
|   \\  /    A nd           | Web:      www.OpenFOAM.org                      |
|    \\/     M anipulation  |                                                 |
\*---------------------------------------------------------------------------*/
FoamFile
{
    version     2.0;
    format      ascii;
    class       volSymmTensorField;
    location    "26";
    object      R;
}
// * * * * * * * * * * * * * * * * * * * * * * * * * * * * * * * * * * * * * //

dimensions      [0 2 -2 0 0 0 0];

internalField   nonuniform List<symmTensor> 
6785
(
(0.264028 3.37726e-15 3.77248e-15 0.191333 0.0371634 0.369204)
(0.000123837 1.95949e-20 2.33972e-20 0.000123355 2.31484e-07 0.000124499)
(0.000118385 -6.31739e-22 -5.40826e-22 0.000118394 1.11636e-08 0.000118383)
(0.000118391 5.52998e-22 -1.48052e-22 0.000118395 8.63555e-09 0.000118388)
(0.000118406 -7.04552e-22 -4.1062e-22 0.00011841 8.26154e-09 0.000118404)
(0.000118378 3.86908e-22 1.6586e-22 0.000118382 7.54942e-09 0.000118377)
(0.000118392 9.80532e-23 -3.53667e-22 0.000118395 6.94631e-09 0.000118391)
(0.000118406 -7.36255e-22 -5.37928e-22 0.000118408 6.33975e-09 0.000118405)
(0.000118379 4.08394e-22 8.23894e-23 0.00011838 5.82871e-09 0.000118379)
(0.000118393 3.49667e-22 -2.07037e-22 0.000118394 5.48498e-09 0.000118394)
(0.000118406 -5.03823e-22 -4.57161e-22 0.000118406 4.88281e-09 0.000118407)
(0.000118374 4.21396e-22 7.47192e-23 0.000118371 3.68056e-09 0.000118375)
(0.000118549 2.44814e-22 -5.89345e-22 0.000118545 -3.53356e-09 0.00011855)
(0.00034793 1.97567e-18 -2.52242e-19 0.000323743 -3.49757e-05 0.000341695)
(0.388794 8.50572e-15 -8.78514e-16 0.280967 -0.156514 0.370883)
(0.331601 5.16246e-15 1.31118e-14 0.134775 -0.00353836 0.587497)
(0.000546846 2.78769e-18 1.10326e-17 0.00036729 -1.44392e-05 0.00075141)
(1.71985e-07 1.33683e-24 3.19566e-24 1.72087e-07 4.59834e-11 1.71941e-07)
(1.60841e-07 1.42547e-24 1.15687e-24 1.60857e-07 -2.72764e-12 1.60788e-07)
(1.53222e-07 -9.02797e-24 -7.0586e-24 1.53256e-07 7.38459e-12 1.53178e-07)
(1.45453e-07 1.36292e-23 8.23595e-24 1.4548e-07 3.41375e-12 1.45414e-07)
(1.37991e-07 -3.01545e-24 -1.46556e-24 1.38016e-07 2.1473e-12 1.37956e-07)
(1.30558e-07 -7.53858e-24 -4.57818e-24 1.30581e-07 3.81004e-13 1.30527e-07)
(1.22936e-07 1.08812e-23 6.65526e-24 1.22956e-07 -9.23023e-13 1.22909e-07)
(1.15253e-07 -2.19065e-24 -4.20152e-25 1.15271e-07 -1.02159e-12 1.1523e-07)
(1.07967e-07 -1.46416e-24 -1.61864e-24 1.07982e-07 -9.24497e-12 1.07947e-07)
(1.35913e-07 -1.63157e-22 9.59583e-23 1.35811e-07 -1.1787e-08 1.35075e-07)
(4.3101e-05 -2.98382e-19 1.49636e-19 4.24238e-05 -1.92637e-05 4.19247e-05)
(0.00514015 -2.50622e-17 1.7394e-17 0.00482097 -0.00209249 0.00513435)
(0.10695 3.34391e-15 5.48504e-16 0.0685421 -0.0575157 0.109719)
(0.405927 3.0694e-15 1.60876e-14 0.130114 -0.0685702 0.771668)
(0.00365256 -1.6096e-17 7.73344e-17 0.00170645 -0.000771892 0.00551903)
(7.29213e-09 -2.41687e-23 8.1856e-23 6.52147e-09 -9.17108e-10 8.06998e-09)
(2.97775e-09 1.00786e-24 1.35518e-24 2.984e-09 -7.42723e-12 2.96983e-09)
(7.09234e-08 -3.47569e-23 4.75608e-23 7.26786e-08 -3.98622e-10 6.98978e-08)
(2.93608e-07 -1.05448e-21 -6.44741e-22 3.0646e-07 -5.1486e-09 2.84934e-07)
(6.36553e-07 1.83165e-21 5.35348e-21 6.83247e-07 -2.94406e-08 6.13975e-07)
(1.23263e-06 8.03187e-21 5.41483e-20 1.36292e-06 -2.85348e-07 1.19208e-06)
(3.55971e-06 5.60675e-20 5.24578e-19 4.16739e-06 -3.01319e-06 3.53305e-06)
(1.64848e-05 6.87154e-19 3.786e-18 2.10636e-05 -2.32667e-05 1.74102e-05)
(8.55393e-05 4.48697e-18 2.20055e-17 0.000119224 -0.0001275 9.84413e-05)
(0.000417617 3.18008e-17 1.26399e-16 0.000617375 -0.00061515 0.00052365)
(0.00198497 3.75301e-16 7.81838e-16 0.0029402 -0.00297373 0.00274172)
(0.00907277 3.47244e-15 7.77609e-15 0.0117331 -0.0141245 0.0152123)
(0.00735735 2.10996e-14 4.85528e-14 0.00226719 -0.00363474 0.0185868)
(0.501003 1.3759e-15 1.77488e-14 0.157644 -0.139925 0.960703)
(0.0148899 -1.16728e-16 4.28229e-16 0.0058172 -0.00492196 0.0246814)
(0.00012803 -3.08316e-19 -1.3827e-19 6.91211e-05 -5.19674e-06 0.000189021)
(2.57772e-07 -9.16186e-21 -5.79498e-21 1.48679e-07 -6.40687e-08 3.68813e-07)
(1.54248e-07 7.14444e-21 3.41002e-21 1.9049e-07 -1.03129e-08 1.46805e-07)
(6.30371e-07 1.64326e-20 5.76538e-21 7.55105e-07 -7.76548e-08 6.216e-07)
(2.37274e-06 -3.85645e-19 -4.88861e-20 3.34774e-06 -3.77749e-07 2.47172e-06)
(5.00966e-06 5.66276e-19 2.69998e-19 6.91899e-06 -9.42369e-07 5.48345e-06)
(1.06769e-05 6.67387e-19 3.95283e-19 1.48351e-05 -2.52192e-06 1.20816e-05)
(2.37865e-05 -3.60164e-18 5.79537e-19 3.2098e-05 -1.07315e-05 2.68213e-05)
(7.34272e-05 3.54677e-18 3.46064e-18 0.000103869 -3.76818e-05 8.58984e-05)
(0.000288139 2.34056e-17 1.04005e-17 0.000427767 -0.000203611 0.000349714)
(0.00122436 -3.956e-16 1.43595e-16 0.00193587 -0.000843542 0.00151638)
(0.0033414 -2.63397e-15 2.73254e-15 0.00487423 -0.00362799 0.00510749)
(0.00387291 3.67305e-14 6.12916e-14 0.00550134 -0.00188828 0.00513903)
(0.597702 -6.44308e-16 1.2276e-14 0.196162 -0.204396 1.13545)
(0.0254005 -3.6026e-16 4.71799e-16 0.0109606 -0.0111293 0.0413527)
(0.00034841 -1.40196e-17 1.67235e-17 0.000170086 -0.000368971 0.000542501)
(5.38496e-06 -1.70827e-19 1.17971e-18 2.73871e-06 -1.53825e-05 8.22521e-06)
(1.92574e-06 -4.12784e-21 1.6855e-19 3.63519e-06 -1.70843e-06 2.20895e-06)
(6.78566e-06 2.38349e-18 1.67066e-19 1.18353e-05 -3.2536e-06 9.59641e-06)
(5.63451e-05 -2.77785e-17 1.90514e-18 0.000115184 -4.58298e-05 8.01382e-05)
(0.000176948 -2.46361e-17 2.32037e-18 0.000372805 -0.000142109 0.000278845)
(0.000536687 1.33904e-16 1.7236e-17 0.00111391 -0.000486672 0.000830454)
(0.00095972 -1.7054e-16 1.62128e-16 0.0018391 -0.00128294 0.00152397)
(0.00103643 -3.06197e-16 3.33128e-17 0.00191087 -0.000657561 0.0016923)
(0.00100917 -4.03509e-17 7.54481e-17 0.00178545 -0.000708459 0.00152907)
(0.00161738 -7.60896e-16 3.18367e-16 0.00303029 -0.00123341 0.00208614)
(0.00285823 -3.57537e-15 2.27479e-15 0.00463107 -0.00286149 0.00388277)
(0.00557045 1.23353e-15 2.14442e-15 0.00826208 -0.00373023 0.00663447)
(0.696544 -3.96941e-16 9.47265e-15 0.23767 -0.260023 1.30865)
(0.0237364 -4.07543e-16 -8.43253e-17 0.0113792 -0.0113572 0.0361203)
(0.000107692 -9.96486e-18 1.98019e-18 5.95271e-05 -0.000202344 0.000161001)
(4.52959e-05 -1.0841e-17 6.24461e-19 7.63588e-05 -3.07321e-05 7.82053e-05)
(0.000354755 7.00849e-17 -5.95101e-18 0.000688184 -0.000132188 0.000559765)
(0.00165569 -2.17685e-17 2.19184e-17 0.00273715 -0.00121365 0.00278548)
(0.00519794 -3.26922e-15 -9.19462e-16 0.00962898 -0.00473107 0.0076193)
(0.0114796 6.14574e-16 -1.00192e-15 0.0215949 -0.0116879 0.0151519)
(0.0206152 3.81139e-15 -3.65076e-15 0.039176 -0.0363051 0.0246896)
(0.022793 -7.03393e-15 7.72183e-15 0.0404105 -0.0452409 0.028734)
(0.0104691 4.23001e-15 7.05815e-15 0.0161554 -0.0279222 0.0165326)
(0.00243786 3.02647e-16 -2.23402e-16 0.00319823 -0.0109915 0.00461503)
(0.0020416 -2.99022e-16 1.92289e-16 0.0028441 -0.0048608 0.0034095)
(0.00241397 -1.79608e-15 1.06894e-15 0.00382086 -0.00316989 0.00300914)
(0.011899 6.22664e-15 -1.66232e-15 0.015065 -0.00956022 0.0154509)
(0.800908 1.77205e-15 2.00314e-14 0.280672 -0.305853 1.48979)
(0.0276979 -5.9183e-16 -7.4266e-16 0.013403 -0.0108456 0.0393698)
(0.000159227 -8.41416e-18 -6.07353e-18 0.000191522 -0.000132822 0.000208898)
(0.00037517 -1.06145e-16 3.32059e-17 0.000747949 -0.000375592 0.000566432)
(0.00193817 9.84388e-16 -2.56425e-16 0.0040026 -0.00237103 0.00278241)
(0.00657901 -4.73785e-16 1.58723e-16 0.0131001 -0.00931468 0.00944874)
(0.0169805 -6.97571e-15 1.69721e-15 0.0359163 -0.0266837 0.0226314)
(0.0336258 1.02825e-14 -6.49881e-15 0.0717196 -0.0516765 0.0433765)
(0.0531251 7.49169e-17 -2.40043e-15 0.115338 -0.0863687 0.0667021)
(0.0519267 -5.38344e-15 7.64214e-15 0.110494 -0.0813459 0.0667818)
(0.0227642 1.16337e-14 1.27264e-15 0.0430114 -0.0412973 0.0328336)
(0.00637185 4.20335e-15 -5.69785e-16 0.00630787 -0.0160915 0.0128759)
(0.00608422 6.47818e-16 -4.9903e-16 0.00491711 -0.00735188 0.0130232)
(0.00662382 -1.97797e-15 3.16787e-16 0.00726784 -0.00444196 0.0103768)
(0.0201666 5.67481e-15 -3.36952e-15 0.0218243 -0.0216599 0.0287821)
(0.889742 4.20608e-16 2.50821e-14 0.318241 -0.346672 1.63418)
(0.0710832 -9.96046e-16 -1.58651e-15 0.0307662 -0.0137352 0.110314)
(0.000898756 -7.28191e-17 5.7975e-18 0.00144213 -0.000469461 0.000925149)
(0.000596216 -2.95935e-17 6.3149e-17 0.00119352 -0.00127322 0.000896311)
(0.00289748 8.32144e-16 -7.32675e-16 0.00602539 -0.00576675 0.00411882)
(0.00904938 -2.30057e-15 1.5822e-15 0.0180483 -0.016468 0.012857)
(0.0221093 -4.75641e-15 2.71663e-15 0.0462582 -0.0366085 0.0289018)
(0.040386 5.3951e-15 -5.61079e-15 0.0836809 -0.0610256 0.050847)
(0.059485 -1.10483e-14 6.18342e-15 0.125235 -0.0852014 0.0707417)
(0.0594728 -1.5837e-14 1.07787e-14 0.126114 -0.0786923 0.0685196)
(0.0353803 -1.71082e-14 6.71926e-15 0.0731749 -0.0404015 0.041161)
(0.018666 -7.77756e-15 4.84758e-15 0.0322683 -0.0125281 0.0262527)
(0.0143772 6.593e-17 6.07126e-15 0.0167423 -0.0072127 0.0234995)
(0.0137759 1.96358e-15 1.67037e-15 0.0116198 -0.00908628 0.0226337)
(0.0198889 4.66513e-15 -3.33086e-15 0.0188854 -0.0278812 0.0285926)
(0.943735 -3.41256e-16 2.73262e-14 0.343856 -0.373925 1.70262)
(0.141032 -5.68812e-15 -8.01785e-15 0.0621227 -0.032045 0.236051)
(0.0111023 -7.85558e-16 3.51266e-18 0.00940507 -0.00180037 0.0146152)
(0.00148506 -3.72945e-17 6.75748e-17 0.00211818 -0.0020044 0.00194908)
(0.00296506 1.46845e-16 -9.73394e-17 0.00616189 -0.00723716 0.00420534)
(0.00862707 -2.2316e-15 1.89573e-15 0.0169375 -0.0174431 0.0125653)
(0.0215861 -3.52885e-15 2.43975e-15 0.0447463 -0.0341621 0.0288163)
(0.0382037 -7.71656e-15 4.94231e-15 0.0773482 -0.0464973 0.049233)
(0.0542095 -2.93811e-14 1.9451e-14 0.109844 -0.0624736 0.0649227)
(0.0552239 -6.65584e-14 3.51419e-14 0.111563 -0.0586567 0.0618267)
(0.036684 -7.6889e-14 2.81112e-14 0.0750527 -0.0397096 0.0381474)
(0.018796 -2.09615e-14 1.00364e-14 0.037423 -0.0198632 0.0200993)
(0.0121171 2.28594e-15 7.20416e-15 0.0230632 -0.0123387 0.0133063)
(0.00651561 -8.34688e-16 -3.6877e-15 0.00818825 -0.0116092 0.00712209)
(0.0103964 2.4523e-15 -3.59379e-15 0.0118748 -0.0233346 0.0143769)
(0.957705 -2.30721e-15 2.67786e-14 0.35394 -0.382406 1.69207)
(0.21169 -7.87246e-15 -1.51623e-14 0.0970941 -0.0617742 0.37987)
(0.0295532 -5.78893e-15 -7.94048e-16 0.0248261 -0.00919983 0.0410121)
(0.00508182 -2.58488e-16 1.58281e-16 0.00600412 -0.00353039 0.00656693)
(0.00349706 6.90899e-17 6.51556e-18 0.00677178 -0.00723085 0.00486707)
(0.00806173 -2.14645e-15 2.17762e-15 0.0157053 -0.0155117 0.0119354)
(0.0201437 -1.81242e-15 2.26499e-15 0.0415349 -0.0296802 0.0276038)
(0.0357047 -7.10954e-15 7.32339e-15 0.0720399 -0.0374589 0.0475425)
(0.0506286 -3.22063e-14 2.35709e-14 0.101729 -0.0475098 0.0632616)
(0.0526776 -6.27323e-14 3.86564e-14 0.104481 -0.0492231 0.0616607)
(0.0353952 -8.27471e-14 3.61033e-14 0.0690404 -0.0331364 0.0383205)
(0.0189544 -4.68239e-14 1.45535e-14 0.0361788 -0.0164979 0.019673)
(0.0108701 -1.20652e-14 -9.73249e-16 0.0210706 -0.0102443 0.0108292)
(0.00704439 7.69e-15 -1.37773e-14 0.015208 -0.0106523 0.00457844)
(0.00620351 1.95256e-14 -7.3087e-15 0.0144305 -0.00668175 0.00530207)
(0.942909 -4.43842e-15 1.70287e-14 0.351065 -0.373993 1.63486)
(0.270513 -6.60696e-15 -2.22396e-14 0.130236 -0.0862203 0.518146)
(0.0467994 -1.19992e-14 -7.10677e-16 0.0432892 -0.019809 0.0653973)
(0.0104219 -5.58314e-16 2.89132e-16 0.0131534 -0.00763916 0.0134349)
(0.00492832 -1.59154e-16 2.09778e-16 0.00900143 -0.00794703 0.00668942)
(0.00783923 -2.48496e-15 2.58004e-15 0.0151545 -0.0139008 0.0116512)
(0.0192625 2.51578e-15 -7.48246e-16 0.0397072 -0.0262206 0.026839)
(0.0345749 -7.5831e-15 5.45958e-15 0.0702141 -0.0376876 0.0470164)
(0.0496386 -2.88926e-14 1.91417e-14 0.100488 -0.046115 0.0639869)
(0.0529264 -1.46119e-14 2.07394e-14 0.105696 -0.0463498 0.0645171)
(0.0343029 -6.004e-14 3.45072e-14 0.0660187 -0.031322 0.0388149)
(0.0177566 -4.26065e-14 2.16867e-14 0.0330466 -0.0157607 0.0189625)
(0.0094373 -2.77744e-14 1.06947e-14 0.0177751 -0.00789434 0.00953744)
(0.00791272 2.08118e-14 1.66367e-15 0.0160602 -0.00720522 0.00678778)
(0.00727834 1.1945e-13 4.17211e-14 0.0129869 0.000556139 0.00592676)
(0.91588 -3.83891e-15 1.08538e-14 0.341644 -0.35576 1.56749)
(0.324134 -9.08614e-15 -4.54587e-14 0.159738 -0.103771 0.657947)
(0.0615781 -1.94555e-14 -2.73108e-15 0.0637769 -0.0319927 0.0851162)
(0.0165552 1.38885e-15 -2.76114e-16 0.0233525 -0.0141238 0.0213129)
(0.00707559 -9.38557e-16 7.60668e-16 0.0129834 -0.0100932 0.00951374)
(0.00820159 -3.13832e-15 3.07959e-15 0.015801 -0.0135229 0.0122059)
(0.0189296 7.29717e-15 -3.45779e-15 0.0390248 -0.0261484 0.0266705)
(0.0343989 -8.49816e-15 4.12983e-15 0.0702793 -0.0371438 0.0472888)
(0.0494261 -3.42706e-14 1.72767e-14 0.100767 -0.0506773 0.0647699)
(0.052706 5.2117e-15 7.94574e-15 0.106 -0.0484072 0.0657247)
(0.0315848 -2.76573e-14 1.89585e-14 0.0603177 -0.0297253 0.0366215)
(0.0153247 -2.35879e-14 1.39039e-14 0.0280543 -0.0138036 0.0166918)
(0.00797553 -1.61562e-14 8.15864e-15 0.0148488 -0.00705358 0.00816414)
(0.00756591 -7.19389e-15 2.93084e-15 0.0148134 -0.00707752 0.0073145)
(0.00690728 1.66857e-13 3.36916e-14 0.0110171 -0.006466 0.00600299)
(0.89429 -5.14952e-15 1.97982e-16 0.3341 -0.338778 1.51953)
(0.371529 -1.78924e-15 -2.89243e-14 0.191277 -0.118233 0.776027)
(0.0851742 -2.61593e-14 -4.23106e-15 0.086641 -0.0423319 0.125077)
(0.0304842 2.53705e-15 -9.9405e-16 0.0431163 -0.0246583 0.0404872)
(0.0138956 -1.02276e-15 6.91999e-16 0.0241214 -0.0156662 0.0186077)
(0.0104164 -5.109e-15 4.00882e-15 0.01957 -0.0150877 0.015066)
(0.0175402 9.54617e-15 -4.80365e-15 0.0358371 -0.0245674 0.0248322)
(0.0300634 9.376e-16 1.62455e-16 0.0616922 -0.0341756 0.0416612)
(0.0437301 -3.68814e-14 1.62025e-14 0.0898343 -0.0479166 0.0580603)
(0.0488056 2.45325e-15 4.57354e-15 0.0995495 -0.0489661 0.0619179)
(0.0357386 -1.06685e-14 9.39913e-15 0.0713464 -0.0341933 0.0426338)
(0.0195874 -1.68192e-14 9.35625e-15 0.0378804 -0.0173374 0.0218432)
(0.0098796 -9.57836e-15 5.3208e-15 0.0188869 -0.00872655 0.0102075)
(0.00792775 -7.40625e-15 3.05794e-15 0.0154715 -0.00761753 0.00791009)
(0.00817124 2.79912e-14 -2.69698e-15 0.0135315 -0.00706659 0.00725146)
(0.826677 -6.62258e-15 -1.56431e-14 0.307389 -0.2987 1.40468)
(0.322625 -1.21285e-15 -1.25044e-14 0.173192 -0.0791278 0.660738)
(0.0726025 -2.81414e-14 -6.56799e-16 0.0839659 -0.0423163 0.0951819)
(0.0301794 8.16409e-15 -2.72504e-15 0.0472723 -0.0273407 0.0382468)
(0.0153814 -2.11826e-15 1.38167e-15 0.0281736 -0.0171405 0.0202416)
(0.0127568 -5.12684e-15 3.62073e-15 0.0243014 -0.0165096 0.017694)
(0.0190131 1.49015e-14 -9.21445e-15 0.037591 -0.0292863 0.0270704)
(0.0295992 4.1555e-15 -4.73585e-16 0.0577633 -0.0333499 0.0410966)
(0.0477128 -4.61414e-14 2.12595e-14 0.0931578 -0.0541603 0.0643622)
(0.0571324 -3.07675e-16 1.51246e-15 0.0860564 -0.0510829 0.092457)
(0.035791 -9.60969e-15 6.83059e-15 0.069166 -0.0296908 0.040048)
(0.0187331 -1.07612e-14 6.04976e-15 0.0337829 -0.0159626 0.022596)
(0.0100435 -5.40771e-15 3.09699e-15 0.0185508 -0.00854292 0.0111024)
(0.0102028 -9.47511e-15 4.67287e-15 0.0195039 -0.00893191 0.0112977)
(0.0173372 6.44919e-15 -1.05944e-15 0.0274655 -0.016962 0.0172544)
(0.914721 -6.94746e-15 -4.74553e-14 0.33886 -0.332258 1.60127)
(0.374744 6.89312e-15 3.72528e-14 0.201339 -0.130786 0.755419)
(0.139001 -3.77657e-14 4.33103e-15 0.159215 -0.0905934 0.205244)
(0.081786 7.30785e-15 -3.33254e-15 0.139724 -0.0853841 0.101774)
(0.0279412 1.33187e-15 -1.717e-15 0.0709553 -0.0498283 0.00596024)
(1e-15 1.31559e-19 -4.53933e-20 1e-15 4.3587e-05 1e-15)
(0.0384473 1.73185e-14 -1.36164e-14 0.0846357 -0.0450439 1e-15)
(0.104763 -5.71123e-15 6.2663e-15 0.189122 -0.0914251 0.135472)
(0.176655 -1.04252e-13 3.08606e-14 0.281183 -0.130289 0.222907)
(0.185953 -5.54028e-14 9.16488e-15 0.30751 -0.130502 0.205854)
(1e-15 -1.04254e-14 4.36113e-15 0.172089 -0.0557904 1e-15)
(1e-15 -5.06521e-15 3.1318e-15 0.0436447 -0.0122332 1e-15)
(0.00299388 -9.58465e-16 6.80452e-16 0.00660427 -0.00443879 0.00332025)
(0.0153502 7.28644e-15 -3.88417e-15 0.0252093 -0.0154295 0.0191342)
(0.0177397 1.72085e-14 3.19975e-14 0.0252926 0.0237423 0.0174683)
(0.791394 -4.45796e-15 -1.86879e-15 0.699942 -0.00132255 0.613011)
(0.780244 -2.20947e-14 1.60798e-15 0.715473 -0.00299732 0.563935)
(0.739924 -2.61346e-14 -3.86148e-15 0.680829 -0.00352233 0.501301)
(0.728993 -3.37575e-14 -5.52855e-15 0.675689 -0.00321911 0.480908)
(0.71958 -3.60268e-14 -6.58981e-15 0.672469 -0.00367164 0.463315)
(0.723585 -4.93654e-14 -3.77156e-15 0.69195 -0.0057997 0.457619)
(0.692186 -3.33443e-14 -1.38272e-14 0.661536 -0.00672161 0.416905)
(0.685776 -2.80081e-14 -1.61652e-14 0.658675 -0.00652915 0.406922)
(0.679642 -1.36078e-14 -1.75173e-14 0.656913 -0.00535032 0.397222)
(0.687422 2.67578e-14 -1.172e-15 0.676958 -0.00431911 0.40221)
(0.659427 2.66778e-14 -5.75021e-15 0.647457 -0.00101078 0.371194)
(0.654339 2.0196e-14 -4.42326e-15 0.644614 0.000531383 0.365666)
(0.663107 2.31498e-14 1.27906e-15 0.663038 0.00343207 0.374477)
(0.636508 9.92563e-15 -2.68289e-15 0.631262 0.00331365 0.350401)
(0.632053 7.13063e-15 -2.56829e-15 0.627747 0.00262012 0.347191)
(0.627176 4.34757e-15 -2.11907e-15 0.624837 0.00255132 0.343188)
(0.636754 1.42129e-14 4.47251e-15 0.645272 -0.00301402 0.351893)
(0.610464 1.36029e-14 -7.49329e-16 0.613348 -0.00180255 0.330512)
(0.606645 1.57074e-14 7.54959e-17 0.611113 -0.00268173 0.327876)
(0.618234 2.24554e-14 3.48562e-15 0.633599 -0.00517484 0.338068)
(0.594526 1.91147e-14 9.72547e-16 0.603117 -0.00696108 0.321504)
(0.592228 2.37424e-14 1.22123e-15 0.602207 -0.0112391 0.320886)
(0.590313 3.02543e-14 1.62017e-15 0.603041 -0.0142211 0.319864)
(0.606225 3.94229e-14 5.21796e-15 0.632792 -0.0283558 0.332656)
(0.581164 1.88551e-14 5.72914e-15 0.600829 -0.0211919 0.315493)
(0.57894 1.23965e-14 5.80007e-15 0.600652 -0.0243031 0.314505)
(0.577926 4.92038e-15 5.9723e-15 0.603114 -0.0264417 0.313985)
(0.596606 -4.05879e-15 3.58649e-15 0.637193 -0.0453923 0.329338)
(0.569073 -1.0371e-14 7.3554e-15 0.602452 -0.0309848 0.309626)
(0.566019 -1.61694e-14 8.66623e-15 0.601248 -0.0335045 0.308503)
(0.582718 -2.60633e-14 1.01734e-14 0.631147 -0.0584428 0.325341)
(0.549503 -3.05265e-14 1.37562e-14 0.587137 -0.0380559 0.302545)
(0.54365 -3.70835e-14 1.31722e-14 0.581707 -0.0396365 0.298995)
(0.540161 -4.63038e-14 1.38182e-14 0.579776 -0.0407888 0.298064)
(0.557707 -8.67457e-14 1.8274e-14 0.609804 -0.068139 0.318793)
(0.524107 -5.001e-14 1.03329e-14 0.566363 -0.0441518 0.293889)
(0.518169 -4.38392e-14 9.67251e-15 0.56033 -0.0460144 0.292211)
(0.533256 -5.58142e-14 1.59717e-14 0.585656 -0.0780606 0.312614)
(0.495234 -4.08468e-14 9.18801e-15 0.53616 -0.0527176 0.283845)
(0.48649 -4.26441e-14 9.14149e-15 0.526545 -0.0562814 0.27878)
(0.480952 -3.33208e-14 7.48433e-15 0.521567 -0.0538669 0.2757)
(0.496828 -3.15699e-14 1.99824e-14 0.545667 -0.083152 0.300517)
(0.46425 -1.59256e-14 9.37375e-15 0.506456 -0.0510265 0.270175)
(0.458449 -1.24614e-14 8.87884e-15 0.500341 -0.0508856 0.268608)
(0.456083 -1.12867e-14 9.16734e-15 0.497997 -0.0521179 0.271845)
(0.479007 -1.70355e-14 1.79325e-14 0.525672 -0.0855411 0.314971)
(0.447158 -2.60636e-14 1.77958e-14 0.488594 -0.0532752 0.28381)
(0.442019 -3.92118e-14 2.21637e-14 0.482372 -0.0538116 0.285308)
(0.461274 -8.26397e-14 4.07844e-14 0.501819 -0.0920149 0.332599)
(0.423498 -4.65862e-14 2.2083e-14 0.464307 -0.0550311 0.279993)
(0.414288 -3.7904e-14 1.98052e-14 0.455792 -0.0536106 0.27112)
(0.40842 -3.18177e-14 1.80392e-14 0.450264 -0.0526588 0.267547)
(0.427059 -4.35498e-14 3.15961e-14 0.46792 -0.0907341 0.3164)
(0.388743 -2.79673e-14 1.50656e-14 0.432356 -0.0517147 0.257204)
(0.379651 -2.79057e-14 1.43312e-14 0.424071 -0.0497877 0.248516)
(0.373643 -2.77663e-14 1.38192e-14 0.418133 -0.0488839 0.245362)
(0.393933 -3.71265e-14 3.28905e-14 0.434544 -0.0895141 0.305488)
(0.355484 -2.0417e-14 1.46953e-14 0.400037 -0.0483661 0.24208)
(0.34792 -1.92808e-14 1.48082e-14 0.39288 -0.0468124 0.237024)
(0.36734 -3.74066e-14 3.3473e-14 0.407919 -0.0889661 0.302246)
(0.321796 -2.59748e-14 1.54447e-14 0.368796 -0.0441477 0.222668)
(0.31151 -2.79577e-14 1.46491e-14 0.359836 -0.0429361 0.21311)
(0.304825 -2.98587e-14 1.40168e-14 0.354012 -0.0436989 0.209686)
(0.326778 -4.53871e-14 3.14859e-14 0.372227 -0.0914491 0.281763)
(0.27919 -1.80477e-14 -6.14116e-15 0.330281 -0.0485847 0.203521)
(0.270364 -1.35649e-14 -3.45621e-15 0.322217 -0.0518002 0.200969)
(0.288954 -5.98172e-15 2.05891e-15 0.338608 -0.111708 0.276383)
(0.244857 -1.35376e-15 2.21059e-15 0.307832 -0.0642286 0.192791)
(0.237522 3.34124e-15 -1.05746e-15 0.305983 -0.0679288 0.186129)
(0.23389 8.72855e-15 -4.60333e-15 0.308798 -0.0726089 0.184263)
(0.2512 2.73611e-14 -2.29908e-14 0.335092 -0.133402 0.240569)
(0.233558 2.21363e-14 -1.4583e-14 0.331806 -0.094357 0.196776)
(0.23336 2.61157e-14 -1.82521e-14 0.333155 -0.108293 0.210023)
(0.233742 2.98625e-14 -2.20284e-14 0.333676 -0.12233 0.228426)
(0.245031 4.2985e-14 -3.53024e-14 0.346367 -0.184287 0.278163)
(0.234182 3.75622e-14 -3.0388e-14 0.338824 -0.146327 0.264093)
(0.235693 4.16478e-14 -3.30069e-14 0.342688 -0.164153 0.274326)
(0.242069 5.11534e-14 -3.81896e-14 0.351877 -0.21642 0.299366)
(0.233152 4.37656e-14 -3.12459e-14 0.344584 -0.174066 0.285717)
(0.233864 4.57008e-14 -3.2029e-14 0.347242 -0.191046 0.292078)
(0.235011 4.31263e-14 -2.80478e-14 0.351232 -0.195779 0.296743)
(0.232985 3.6083e-14 -2.47825e-14 0.349199 -0.196743 0.290575)
(0.228881 3.42748e-14 -2.65305e-14 0.338018 -0.201871 0.288885)
(0.226562 3.85018e-14 -3.2228e-14 0.32335 -0.2053 0.293468)
(0.209561 3.02398e-14 -2.07098e-14 0.285805 -0.176137 0.280827)
(0.208786 2.62776e-14 -1.78779e-14 0.279746 -0.171941 0.282456)
(0.204808 2.10313e-14 -1.2548e-14 0.271834 -0.160659 0.271007)
(0.203728 1.72514e-14 -9.41976e-15 0.271293 -0.156954 0.26252)
(0.203577 1.57683e-14 -8.57862e-15 0.271414 -0.15817 0.25854)
(0.205763 1.54405e-14 -8.19892e-15 0.275665 -0.162677 0.26133)
(0.209582 1.53543e-14 -7.2921e-15 0.282123 -0.164494 0.270035)
(0.209747 1.43829e-14 -5.6494e-15 0.279042 -0.155423 0.273684)
(0.211431 1.32221e-14 -4.48184e-15 0.276702 -0.144482 0.273071)
(0.198824 5.23191e-15 1.75672e-15 0.253654 -0.123821 0.249126)
(0.199963 3.59362e-15 2.07544e-15 0.254227 -0.125409 0.248231)
(0.198166 3.5953e-15 7.33275e-16 0.252016 -0.127901 0.240676)
(0.202345 7.51241e-15 -2.15786e-15 0.259303 -0.137098 0.250096)
(0.208058 1.06111e-14 -4.06096e-15 0.26626 -0.143294 0.267318)
(0.211043 1.02493e-14 -3.79511e-15 0.270787 -0.145056 0.276845)
(0.212921 8.77585e-15 -2.86412e-15 0.276284 -0.145734 0.282813)
(0.211047 5.42997e-15 -1.1278e-15 0.276888 -0.142166 0.281427)
(0.207408 1.82866e-15 3.22757e-16 0.276695 -0.136968 0.269714)
(0.190868 2.45165e-15 -3.20025e-16 0.247097 -0.123855 0.247662)
(0.18959 1.73139e-15 -2.83325e-16 0.252458 -0.125677 0.244728)
(0.187513 -1.55476e-16 3.52653e-16 0.255309 -0.124464 0.239581)
(0.187379 -2.92164e-15 1.38027e-15 0.259294 -0.123815 0.238053)
(0.187718 -6.54971e-15 2.64497e-15 0.260879 -0.121485 0.236417)
(0.185837 -1.03941e-14 3.85889e-15 0.256585 -0.116785 0.231717)
(0.180949 -1.27613e-14 4.5976e-15 0.248956 -0.111448 0.226365)
(0.177052 -1.45705e-14 5.1562e-15 0.242551 -0.107139 0.224394)
(0.171224 -1.65183e-14 5.70962e-15 0.230646 -0.10077 0.219823)
(0.165277 -1.79147e-14 5.96485e-15 0.218955 -0.0926 0.214268)
(0.159429 -2.35558e-14 8.2549e-15 0.200635 -0.0840897 0.212565)
(0.156814 -2.27463e-14 7.97922e-15 0.195552 -0.0814612 0.211405)
(0.153146 -2.20941e-14 7.48702e-15 0.189807 -0.0774665 0.207003)
(0.149606 -2.08085e-14 6.65743e-15 0.183889 -0.074047 0.203335)
(0.145866 -1.81862e-14 5.1743e-15 0.177587 -0.0704636 0.199264)
(0.141743 -1.30683e-14 2.65961e-15 0.17068 -0.0658311 0.194183)
(0.13902 -8.11474e-15 4.60908e-17 0.165467 -0.0612406 0.190194)
(0.136628 -4.36757e-15 -1.96963e-15 0.159319 -0.0568241 0.186505)
(0.134438 -1.56947e-15 -3.63188e-15 0.153626 -0.0516448 0.182032)
(0.132351 2.10943e-16 -4.90732e-15 0.139558 -0.0469718 0.186272)
(0.13034 1.17663e-15 -5.70035e-15 0.134943 -0.0448066 0.182057)
(0.127914 1.01918e-15 -5.74945e-15 0.13042 -0.0420307 0.175322)
(0.127764 -3.95845e-16 -5.08666e-15 0.128702 -0.0411956 0.173665)
(0.12814 -1.17142e-15 -4.75434e-15 0.127404 -0.040636 0.173113)
(0.128495 -1.92985e-15 -4.37673e-15 0.125619 -0.0395513 0.172237)
(0.129307 -2.88181e-15 -3.92286e-15 0.12526 -0.0380513 0.17113)
(0.128631 -4.20406e-15 -3.38856e-15 0.121469 -0.0347231 0.16657)
(0.132652 -4.70219e-15 -3.57299e-15 0.125446 -0.0354524 0.173238)
(0.139291 -4.44231e-15 -3.77261e-15 0.122433 -0.0358237 0.191662)
(0.142558 -4.80288e-15 -3.84743e-15 0.125228 -0.0376928 0.1983)
(0.146823 -5.14797e-15 -3.98045e-15 0.130241 -0.0393457 0.206918)
(0.151003 -5.00664e-15 -4.31699e-15 0.134038 -0.0404468 0.21666)
(0.155315 -4.71488e-15 -4.75968e-15 0.136613 -0.0403597 0.225284)
(0.16087 -4.82693e-15 -5.06667e-15 0.1397 -0.0404626 0.235737)
(0.167572 -5.09136e-15 -5.34436e-15 0.143919 -0.0405361 0.248463)
(0.175385 -5.3895e-15 -5.63058e-15 0.147737 -0.0404018 0.263979)
(0.185935 -5.85174e-15 -5.94442e-15 0.15533 -0.0403971 0.28405)
(0.202655 -8.26557e-15 -5.5821e-15 0.157079 -0.0316643 0.323836)
(0.20938 -9.35297e-15 -5.32039e-15 0.158935 -0.0294974 0.33882)
(0.217802 -1.06601e-14 -4.96958e-15 0.163317 -0.0277858 0.356882)
(0.22652 -1.21002e-14 -4.58908e-15 0.165972 -0.0256483 0.376527)
(0.237016 -1.36472e-14 -4.22659e-15 0.170879 -0.0233403 0.39939)
(0.247914 -1.47925e-14 -4.04973e-15 0.174682 -0.0188356 0.42334)
(0.258047 -1.31081e-14 -4.33633e-15 0.179068 -0.0146433 0.445912)
(0.27058 -1.14715e-14 -4.44659e-15 0.186718 -0.0120665 0.472937)
(0.283448 -9.23269e-15 -4.58029e-15 0.193567 -0.00853804 0.500511)
(0.30009 -5.84458e-15 -4.60714e-15 0.205409 -0.00472146 0.533997)
(0.326808 -2.08145e-15 -3.27529e-15 0.209186 0.0201115 0.602641)
(0.33302 -8.21105e-16 -4.99054e-15 0.214517 0.0284725 0.614827)
(0.338551 -4.60258e-16 -7.77003e-15 0.225467 0.0355427 0.623205)
(0.343216 -9.24995e-16 -1.09495e-14 0.234305 0.0428576 0.629953)
(0.348778 -1.83359e-15 -1.46851e-14 0.245752 0.0493693 0.636845)
(0.354348 -5.54033e-15 -1.98206e-14 0.257248 0.0528367 0.64276)
(0.352367 -1.27525e-14 -2.40791e-14 0.272313 0.0555517 0.634687)
(0.333755 -1.68041e-14 -2.23156e-14 0.286109 0.0658334 0.599857)
(0.306194 -1.53638e-14 -1.65392e-14 0.301667 0.086281 0.547414)
(0.295758 -6.94083e-15 -4.11302e-15 0.318845 0.105229 0.532283)
(0.274731 -5.94563e-15 -6.20918e-17 0.326988 0.117903 0.495026)
(0.255983 -1.50545e-15 6.98092e-15 0.355487 0.115077 0.449394)
(0.26413 -6.3884e-16 8.3577e-15 0.372903 0.113772 0.465171)
(0.272719 -1.17564e-15 8.05032e-15 0.384965 0.121326 0.496705)
(0.285102 -1.08048e-15 8.07047e-15 0.405325 0.124777 0.527906)
(0.295198 -1.22252e-15 8.09907e-15 0.420303 0.12475 0.554392)
(0.308843 -1.22759e-15 7.5588e-15 0.442682 0.128152 0.591056)
(0.318979 -1.58839e-15 6.27908e-15 0.456136 0.105286 0.629129)
(0.330766 -1.73562e-15 6.05076e-15 0.473762 0.107891 0.666679)
(0.346113 -1.48018e-15 6.02887e-15 0.50089 0.11409 0.704898)
(0.35752 -1.71085e-15 5.54741e-15 0.518659 0.103585 0.738613)
(0.370536 -1.91853e-15 5.30701e-15 0.539498 0.109787 0.780371)
(0.387972 -1.84317e-15 5.21785e-15 0.571498 0.121435 0.825994)
(0.401185 -2.10419e-15 4.70927e-15 0.593594 0.118129 0.863833)
(0.42544 -3.36789e-15 4.77252e-16 0.643184 0.140979 0.909224)
(0.44525 -4.8387e-15 -4.70395e-15 0.683373 0.0761145 0.941811)
(0.465505 -5.32548e-15 -5.38224e-15 0.721599 0.0840758 1.00366)
(0.491954 -5.21093e-15 -5.11411e-15 0.777067 0.109576 1.07469)
(0.5109 -5.92989e-15 -6.95253e-15 0.813175 0.105112 1.12802)
(0.545642 -4.86634e-15 -7.98013e-15 0.900946 0.164837 1.15848)
(0.574931 -5.31109e-15 -1.17897e-14 0.967281 0.137947 1.19972)
(0.602891 -5.88095e-15 -1.11822e-14 1.03494 0.160881 1.27697)
(0.637429 -5.01898e-15 -7.75163e-15 1.13023 0.206265 1.32051)
(0.684205 -9.38759e-15 -1.91283e-14 1.25232 0.120232 1.33076)
(0.713707 -1.04135e-14 -1.84218e-14 1.33863 0.106861 1.36115)
(0.721869 -4.44429e-15 -1.11565e-14 1.37464 0.132585 1.34497)
(0.764373 -4.35058e-15 -1.59982e-14 1.48368 0.158677 1.442)
(0.734917 7.34761e-15 1.16657e-15 1.40567 0.17036 1.50222)
(0.832298 -1.36854e-14 -2.61686e-14 1.69759 0.118493 1.44225)
(0.869939 -2.10321e-14 -3.17757e-14 1.82335 0.0513221 1.38617)
(0.828879 -1.68463e-14 -2.27539e-14 1.72363 0.0127123 1.29728)
(0.859286 -2.28335e-14 -3.07514e-14 1.82721 -0.013354 1.29056)
(0.827423 -1.86731e-14 -2.38901e-14 1.75171 -0.0472112 1.22243)
(0.873244 -2.28624e-14 -2.77192e-14 1.89598 -0.0730616 1.19966)
(0.903656 -2.44668e-14 -2.76051e-14 1.99283 -0.130614 1.17315)
(0.852372 -2.1696e-14 -2.22046e-14 1.85714 -0.196124 1.17597)
(0.88406 -2.36803e-14 -2.35637e-14 1.96056 -0.212367 1.12051)
(0.895782 -2.37054e-14 -2.31301e-14 2.00715 -0.235114 1.06972)
(0.853347 -2.06405e-14 -2.01755e-14 1.90338 -0.240463 1.01929)
(0.845738 -2.16478e-14 -2.11007e-14 1.89583 -0.274227 0.984033)
(0.80962 -1.92245e-14 -1.8624e-14 1.80838 -0.274086 0.938313)
(0.800974 -2.00763e-14 -1.87964e-14 1.79702 -0.271513 0.894005)
(0.788806 -2.02424e-14 -1.83911e-14 1.77321 -0.252897 0.850044)
(0.751601 -1.81745e-14 -1.65767e-14 1.68288 -0.258816 0.811036)
(0.740867 -1.85425e-14 -1.70445e-14 1.65934 -0.233692 0.780246)
(0.710944 -1.6813e-14 -1.54381e-14 1.58768 -0.231902 0.745527)
(0.749257 -1.7743e-14 -1.56511e-14 1.68687 -0.0814044 0.720597)
(0.901369 -1.86322e-14 -1.57701e-14 2.06518 0.262361 0.743191)
(0.882812 -1.65411e-14 -1.394e-14 2.02164 0.248097 0.713275)
(1.34111 -1.66162e-14 -1.2815e-14 3.15652 0.810071 0.792692)
(1.45919 -1.53407e-14 -1.05564e-14 3.48225 0.609399 0.757058)
(1.37063 -1.41153e-14 -9.44139e-15 3.26598 0.61646 0.717787)
(1.22571 -1.32879e-14 -8.65129e-15 2.91814 0.542996 0.650929)