/*--------------------------------*- C++ -*----------------------------------*\
| =========                 |                                                 |
| \\      /  F ield         | OpenFOAM: The Open Source CFD Toolbox           |
|  \\    /   O peration     | Version:  4.1                                   |
|   \\  /    A nd           | Web:      www.OpenFOAM.org                      |
|    \\/     M anipulation  |                                                 |
\*---------------------------------------------------------------------------*/
FoamFile
{
    version     2.0;
    format      ascii;
    class       volVectorField;
    location    "26";
    object      U;
}
// * * * * * * * * * * * * * * * * * * * * * * * * * * * * * * * * * * * * * //

dimensions      [0 1 -1 0 0 0 0];

internalField   nonuniform List<vector> 
6785
(
(1.66454e-12 -0.834591 16.1421)
(1.32739e-12 -6.69262 12.5168)
(-3.71336e-13 -4.77713 12.9096)
(5.15505e-13 -4.28285 12.6552)
(2.0266e-13 -3.65942 12.4837)
(-1.69083e-13 -3.18348 12.2548)
(4.91815e-13 -2.78746 11.9925)
(1.50669e-13 -2.48678 11.6822)
(-1.60245e-13 -2.28546 11.3254)
(4.87662e-13 -2.16861 10.951)
(1.15594e-13 -2.13534 10.5949)
(-2.1333e-13 -2.36324 10.1724)
(5.49313e-13 -2.85771 9.57965)
(-9.98691e-14 -2.1825 9.07888)
(-1.09134e-12 0.765057 7.17813)
(3.29358e-12 -7.68101 26.2514)
(1.9009e-12 -16.6125 21.8976)
(-2.54099e-13 -11.5385 22.3813)
(2.26979e-12 -11.9282 20.9128)
(1.30935e-13 -10.9214 19.9322)
(4.45841e-13 -10.2394 18.8739)
(2.15374e-12 -9.53169 17.823)
(5.98556e-14 -8.85449 16.7593)
(7.94321e-13 -8.20612 15.6738)
(2.40709e-12 -7.57258 14.5676)
(5.93967e-14 -6.91151 13.4967)
(1.09956e-12 -6.28801 12.4574)
(2.69792e-12 -5.5911 10.7543)
(-1.15386e-12 -3.41784 6.50663)
(-1.34226e-12 0.65101 -1.13227)
(1.0222e-12 -10.2883 27.8253)
(2.01868e-12 -17.6439 24.0201)
(-5.35737e-13 -11.7273 24.5411)
(-7.11164e-13 -12.8287 22.2546)
(3.33805e-13 -11.2112 21.1496)
(-4.84807e-14 -10.5179 19.6537)
(-1.2828e-12 -9.63001 18.2539)
(3.18678e-13 -8.84952 16.8427)
(-1.40933e-13 -8.14299 15.5137)
(-1.05711e-12 -7.55732 14.3117)
(1.78742e-13 -7.04343 13.2198)
(4.51249e-13 -6.43728 12.0397)
(-3.51221e-12 -5.12535 9.67517)
(-5.76554e-13 -1.83086 3.35188)
(-2.16523e-12 -0.172006 -4.04139)
(2.28211e-12 -11.2455 26.7132)
(6.57591e-13 -17.1493 23.4171)
(4.61625e-13 -11.5391 23.8507)
(-5.35794e-13 -13.2076 20.9876)
(-8.70195e-13 -11.1547 19.98)
(1.18897e-12 -10.6882 18.1743)
(-9.9339e-13 -9.70774 16.6513)
(-1.30806e-12 -8.91666 15.0679)
(1.30508e-12 -8.16273 13.5863)
(-1.59203e-12 -7.5943 12.297)
(-1.77171e-12 -7.23413 11.2482)
(2.54467e-12 -6.9036 10.1711)
(-1.97252e-14 -6.20563 8.65913)
(-5.91883e-12 -4.57835 5.76939)
(-2.28477e-12 -3.47643 2.46309)
(1.52111e-12 -11.9798 26.5296)
(-2.11875e-12 -16.7094 23.5404)
(-4.75429e-13 -11.6887 23.8936)
(-1.73867e-12 -13.3482 20.932)
(-2.98908e-12 -10.9648 20.0289)
(-4.94793e-13 -10.6045 18.0833)
(-2.51954e-12 -9.38746 16.6203)
(-3.42123e-12 -8.46932 14.9814)
(-1.82197e-12 -7.2674 13.0909)
(-6.5349e-12 -5.77858 10.5521)
(-9.74619e-12 -4.48238 8.06755)
(-6.59115e-12 -4.45897 7.24416)
(-8.67027e-12 -5.11778 7.54035)
(-1.82316e-11 -5.15967 7.34399)
(-7.34517e-12 -4.88839 6.67961)
(2.42723e-12 -12.566 26.7286)
(-1.3706e-12 -16.8861 24.6833)
(4.78182e-13 -12.0285 24.5695)
(-2.15605e-12 -13.609 21.7246)
(-2.47262e-12 -11.0283 20.9515)
(3.6517e-13 -10.8669 19.0777)
(-2.82569e-12 -9.55921 17.8825)
(-2.57096e-12 -8.72944 16.334)
(-3.09426e-13 -7.3865 14.4466)
(-6.34031e-12 -5.54214 11.5205)
(-7.5696e-12 -2.98334 7.39915)
(1.89694e-12 -0.470581 3.32234)
(1.25858e-11 -0.958666 3.63569)
(9.19658e-12 -2.87765 6.13835)
(1.83401e-12 -3.32351 6.5507)
(4.51786e-12 -12.5768 25.8603)
(4.08597e-13 -17.5179 26.3008)
(2.3595e-12 -12.6384 25.1809)
(-1.9318e-12 -14.0751 22.3599)
(-8.97661e-13 -11.5674 21.6226)
(3.06337e-12 -11.5409 19.701)
(-1.86478e-12 -10.2837 18.4987)
(-9.99974e-13 -9.58376 16.974)
(2.40782e-12 -8.54471 15.3872)
(-3.25793e-12 -7.17208 13.1198)
(-3.46366e-12 -5.25931 10.0397)
(3.68076e-12 -2.08446 5.31986)
(3.31292e-12 1.68431 0.0647507)
(-4.66157e-12 2.44984 -1.77379)
(5.92646e-13 0.277282 0.10261)
(2.94675e-12 -12.0152 23.7715)
(6.11857e-13 -17.7029 27.2166)
(2.27773e-12 -13.3835 25.3395)
(-1.31925e-12 -14.112 22.4023)
(-1.59679e-12 -12.0823 21.4444)
(2.48961e-12 -11.8513 19.5732)
(-3.54104e-13 -10.788 18.1989)
(-1.35168e-12 -10.0709 16.6535)
(1.24701e-12 -9.27264 15.158)
(-2.50801e-13 -8.32617 13.388)
(-1.21067e-12 -7.20251 11.3573)
(3.94641e-13 -5.57731 8.78781)
(1.34316e-12 -3.00456 5.00292)
(-4.53603e-12 0.129068 0.963559)
(-3.02396e-11 0.723077 -3.1484)
(2.75193e-12 -11.3014 21.5437)
(1.07091e-12 -17.3218 27.2473)
(1.08797e-13 -13.7214 25.1604)
(-5.47193e-13 -13.7801 22.0556)
(-1.5194e-12 -12.0446 20.8732)
(-3.74697e-13 -11.6143 19.0482)
(5.73175e-13 -10.6143 17.5532)
(-6.05224e-13 -9.81345 15.9558)
(-1.99506e-12 -9.02318 14.4338)
(3.18598e-13 -8.17348 12.8411)
(4.356e-13 -7.28343 11.1688)
(-2.90756e-12 -6.28084 9.47874)
(-9.42076e-14 -4.93263 7.15463)
(-6.59089e-14 -2.6431 4.0458)
(-2.7887e-11 -0.658038 -1.27918)
(4.48827e-13 -10.7854 20.0254)
(9.92485e-13 -16.7006 26.8681)
(1.05048e-13 -13.7439 24.862)
(-1.99587e-12 -13.379 21.7046)
(-1.72363e-12 -11.7722 20.3798)
(-1.51055e-12 -11.2378 18.6006)
(-2.17381e-12 -10.2386 17.0698)
(-7.46046e-13 -9.3822 15.4567)
(-2.913e-12 -8.55371 13.9369)
(-3.09274e-12 -7.71062 12.4419)
(-3.20401e-13 -6.85953 10.903)
(-3.55002e-12 -5.98494 9.46458)
(-5.09112e-12 -5.07635 7.76123)
(7.10423e-13 -3.42284 5.42513)
(-1.61324e-11 -1.05463 -0.122838)
(-1.54853e-12 -10.5456 19.2997)
(1.4805e-12 -16.1083 26.3298)
(-2.6709e-12 -13.6988 24.5576)
(-2.51539e-12 -13.1146 21.4582)
(-9.28749e-13 -11.6097 20.0134)
(-5.28467e-12 -11.022 18.3002)
(-2.79367e-12 -10.0662 16.7923)
(1.88498e-14 -9.21961 15.2482)
(-7.20231e-12 -8.40376 13.8072)
(-5.39107e-12 -7.58715 12.4131)
(6.7288e-13 -6.74294 10.9369)
(-7.5177e-12 -5.86124 9.52122)
(-6.26025e-12 -5.10233 8.06785)
(-1.06715e-11 -3.83978 6.38464)
(-2.41029e-11 -1.59607 1.51501)
(-1.50093e-12 -10.5398 19.0893)
(2.3698e-12 -15.403 25.4966)
(-5.42486e-12 -13.3408 23.9229)
(-2.32068e-12 -12.7676 20.9908)
(4.65117e-13 -11.3153 19.5884)
(-8.14496e-12 -10.805 17.9539)
(-4.16904e-12 -9.94222 16.5999)
(3.42856e-12 -9.23367 15.2093)
(-5.81895e-12 -8.52399 13.8785)
(-6.56604e-12 -7.7975 12.5491)
(-4.33482e-13 -7.0179 11.1388)
(-7.08008e-12 -6.1754 9.77874)
(-4.77244e-12 -5.49 8.57083)
(-1.00824e-11 -4.57797 7.48646)
(-2.1589e-11 -2.6319 3.42634)
(-2.89795e-12 -10.9021 19.4395)
(1.58051e-12 -15.1132 24.9006)
(-4.92389e-12 -13.3139 23.4105)
(-4.92588e-12 -12.808 20.4876)
(7.93071e-13 -11.3131 19.0492)
(-8.24037e-12 -10.8813 17.3305)
(-5.11713e-12 -9.97522 15.9127)
(7.98878e-12 -9.32572 14.392)
(-4.16075e-12 -8.6989 13.0564)
(-9.29207e-12 -8.20599 11.9362)
(-3.86499e-12 -7.77234 11.0313)
(-9.25571e-12 -7.30628 10.3121)
(-7.84796e-12 -6.72805 9.64323)
(-5.32952e-12 -5.82613 8.88177)
(-1.63732e-11 -3.83406 5.33812)
(-4.22446e-12 -10.9702 19.3836)
(-9.18193e-13 -12.8524 23.0018)
(-6.23377e-12 -11.2503 21.702)
(-4.38797e-12 -10.5293 19.951)
(-3.22421e-12 -9.05386 18.626)
(-7.42376e-12 -8.1543 16.7466)
(-7.02729e-12 -7.04114 15.114)
(-9.13212e-12 -6.32219 13.4999)
(-1.31743e-11 -5.76861 12.283)
(-1.00616e-11 -5.87725 11.6834)
(-8.43066e-12 -6.92811 12.1475)
(-9.60376e-12 -8.36743 13.3901)
(-6.48827e-12 -8.96281 14.2108)
(-6.23161e-12 -8.77957 13.9216)
(-1.56501e-11 -6.5169 11.0473)
(-6.08457e-12 -14.735 28.1081)
(-2.66955e-12 -19.3078 31.9135)
(-5.5059e-12 -16.1076 27.7333)
(-4.20306e-12 -14.0916 24.3926)
(-5.44649e-12 -11.4742 21.1019)
(-6.89352e-12 -9.06317 17.2812)
(-1.37583e-11 -6.4119 13.5128)
(-2.11954e-11 -4.28611 10.462)
(-1.86282e-11 -1.6348 6.58388)
(-1.41911e-11 2.1115 0.543776)
(-5.86199e-12 5.32836 -4.65329)
(-3.7344e-12 1.58842 1.34849)
(-8.94062e-12 -2.52315 7.75732)
(-1.06003e-11 -3.97502 8.41698)
(-8.71708e-12 -2.77874 3.62489)
(2.34211e-14 0.0340278 -0.159076)
(8.35177e-14 -0.0845126 -0.0978542)
(1.06668e-13 -0.0323428 0.0448702)
(1.87146e-13 -0.0502675 0.0631976)
(3.86311e-13 -0.0383843 0.029318)
(1.14137e-12 -0.058951 0.0475955)
(1.43591e-12 -0.0651108 0.188482)
(2.41809e-12 -0.0743823 0.259523)
(4.48428e-12 -0.0954429 0.260835)
(9.07682e-12 -0.0924813 0.354446)
(1.93882e-13 -0.113678 0.290558)
(2.08667e-13 -0.135277 0.274361)
(2.43621e-13 -0.128349 0.280062)
(2.41095e-13 -0.129743 0.181252)
(3.24177e-13 -0.151648 0.148106)
(4.72976e-13 -0.148071 0.102682)
(8.70508e-13 -0.135878 0.132746)
(8.23407e-13 -0.14644 0.0545078)
(-5.46846e-14 -0.145573 0.0448848)
(1.0754e-13 -0.132121 0.0294431)
(1.15807e-13 -0.125155 -0.038291)
(1.80794e-13 -0.133398 -0.0574148)
(3.27011e-13 -0.116047 -0.0781165)
(-1.14681e-12 -0.110014 -0.12761)
(-9.66231e-13 -0.0780775 -0.134742)
(-1.42458e-12 -0.0819555 -0.124003)
(-2.20891e-12 -0.0635298 -0.139844)
(-5.5308e-13 -0.0165931 -0.24548)
(-1.5608e-12 -0.0245942 -0.20573)
(-5.16148e-13 -0.00149702 -0.198847)
(-1.15711e-12 0.0259922 -0.267259)
(-1.90774e-12 0.034894 -0.238171)
(-7.99033e-13 0.0464179 -0.220983)
(-1.54881e-12 0.0639423 -0.259246)
(1.30983e-13 0.136116 -0.327564)
(1.40342e-14 0.0882916 -0.274256)
(2.73825e-14 0.136115 -0.16815)
(8.59115e-14 0.104441 -0.256859)
(3.36557e-14 0.144005 -0.54455)
(1.88325e-13 0.16781 -0.512225)
(2.03716e-12 0.205157 -0.262994)
(1.62476e-12 0.194663 -0.130505)
(4.95823e-13 0.216545 -0.221348)
(2.0307e-13 0.223402 -0.35286)
(8.67644e-14 0.259258 -0.366685)
(4.14197e-13 0.289669 -0.332814)
(-9.46736e-13 0.268503 -0.328345)
(-6.86006e-13 0.310356 -0.336181)
(-8.65393e-13 0.340151 -0.367354)
(4.81295e-13 0.321182 -0.310326)
(3.93431e-13 0.359993 -0.322935)
(3.06505e-13 0.368305 -0.283651)
(3.19438e-13 0.4299 -0.316962)
(1.58011e-13 0.382089 -0.240692)
(-6.38984e-14 0.426404 -0.238579)
(1.28834e-12 0.424516 -0.210514)
(1.71969e-12 0.476395 -0.268637)
(1.17035e-12 0.442486 -0.303214)
(2.49863e-13 0.490097 -0.259644)
(1.73139e-13 0.529686 -0.319985)
(-2.23701e-14 0.47354 -0.414496)
(5.61179e-14 0.547529 -0.512999)
(-5.43054e-13 0.55632 -0.495841)
(3.84429e-12 0.632296 -0.462044)
(4.47392e-12 0.515129 -0.669666)
(4.33448e-12 0.647553 -0.768062)
(5.75335e-12 0.606517 -1.11499)
(2.12228e-12 0.484068 -1.39228)
(5.82975e-13 0.672306 -0.633478)
(-9.78087e-14 0.622596 0.298972)
(-4.02303e-13 0.575987 1.33078)
(-4.87692e-13 0.385142 2.32516)
(-5.43543e-13 0.291751 3.00305)
(-4.99575e-13 0.0777995 3.05191)
(-2.50667e-12 -0.178666 4.33383)
(-6.10252e-13 -0.464285 4.02686)
(-8.23951e-13 -0.666458 3.95714)
(-4.79056e-13 -1.09593 5.10282)
(2.223e-13 -1.53494 3.52822)
(7.67225e-13 -1.65937 3.06568)
(2.67063e-15 -1.76392 3.64555)
(-4.92621e-13 -1.70766 4.07311)
(-1.06328e-12 -2.7537 4.31597)
(-8.80344e-13 -1.12866 5.99631)
(-2.52889e-12 -1.99232 6.22853)
(-2.54661e-12 -2.68267 6.44744)
(-2.53863e-12 -2.50715 6.6589)
(-2.71388e-12 -2.59323 6.91021)
(-2.96353e-12 -2.5218 7.13945)
(-3.20925e-12 -2.44607 7.33512)
(-3.12746e-12 -2.52808 7.25296)
(-2.91905e-12 -3.20657 7.26147)
(-2.31756e-12 -2.7461 10.2656)
(-3.81769e-12 -2.71718 10.1196)
(-4.51761e-12 -3.17151 10.8743)
(-5.09898e-12 -3.21607 11.0596)
(-4.28438e-12 -3.07959 10.0131)
(-4.02348e-12 -3.30042 9.96589)
(-3.80229e-12 -3.31004 9.84457)
(-3.43681e-12 -3.53448 9.75522)
(-3.4662e-12 -3.91543 10.0979)
(-4.74134e-12 -4.16492 14.7411)
(-4.68269e-12 -4.53386 12.7445)
(-4.4533e-12 -4.89043 13.0842)
(-4.12555e-12 -5.05837 13.1695)
(-3.73209e-12 -5.22773 13.3674)
(-3.96078e-12 -5.35075 13.9685)
(-4.74956e-12 -5.62198 14.7234)
(-4.61101e-12 -5.61374 14.6057)
(-4.34976e-12 -5.84995 14.6632)
(-3.94388e-12 -6.11877 14.6795)
(-6.96658e-13 -5.77393 17.7463)
(-3.72322e-12 -6.52477 17.0714)
(-3.73879e-12 -6.62817 17.4354)
(-4.04523e-12 -6.72118 17.6661)
(-4.32112e-12 -6.85141 17.9389)
(-4.67464e-12 -6.92383 18.2152)
(-5.32481e-12 -7.06876 18.7418)
(-5.95362e-12 -7.12041 18.9477)
(-6.19883e-12 -7.40645 19.0689)
(-2.75491e-12 -6.33931 20.5415)
(-4.95098e-12 -7.33333 19.9409)
(-4.12011e-12 -7.31921 20.511)
(-3.29303e-12 -7.44716 20.9297)
(-3.66252e-12 -7.43967 21.0491)
(-3.75443e-12 -7.58008 21.2672)
(-3.96481e-12 -7.62483 21.4612)
(-4.08354e-12 -7.57949 21.7471)
(-3.25113e-12 -8.01363 22.4648)
(-2.58906e-12 -5.82241 22.3525)
(-2.67711e-12 -7.62459 22.2353)
(-2.8097e-12 -7.44812 22.5)
(-2.93347e-12 -7.498 22.7723)
(-3.02468e-12 -7.55238 23.3854)
(-3.11347e-12 -7.57081 23.6183)
(-3.20857e-12 -7.52986 23.7346)
(-3.30572e-12 -7.50546 23.8838)
(-3.38808e-12 -7.6655 24.0018)
(-2.63496e-12 -5.31321 23.9705)
(-2.50245e-12 -7.37292 24.3078)
(-2.40586e-12 -6.93908 24.532)
(-2.32419e-12 -7.09256 24.7352)
(-2.26095e-12 -7.00036 24.9006)
(-2.26224e-12 -6.93494 25.0661)
(-2.46235e-12 -7.04471 25.4813)
(-2.47888e-12 -6.85024 24.9902)
(-2.53216e-12 -6.75409 24.6536)
(-2.59801e-12 -6.66798 24.0992)
(-2.18207e-12 -3.50552 21.3231)
(-2.62866e-12 -6.42209 22.2172)
(-2.65889e-12 -5.67944 21.7456)
(-2.83004e-12 -5.80939 21.0859)
(-2.93792e-12 -5.49709 20.1898)
(-3.05008e-12 -5.45014 18.9933)
(-3.2701e-12 -5.30742 17.2929)
(-3.44498e-12 -4.86948 15.5044)
(-3.18343e-12 -4.43128 14.2059)
(-1.85073e-12 -1.46011 7.49505)
(-1.54634e-12 -4.78482 8.68388)
(-1.18408e-12 -4.02764 5.73482)
(2.06296e-13 -2.2276 -2.58546)
(-9.31599e-13 -6.27647 2.14311)
(-1.34927e-12 -6.2495 2.00195)
(-1.13661e-12 -6.19495 1.9291)
(-1.61438e-12 -8.6521 2.43349)
(-1.04829e-12 -6.57996 1.83158)
(-1.53305e-12 -9.06311 2.51928)
(-1.01697e-12 -8.98645 1.77364)
(-7.21963e-13 -7.63477 1.38449)
(-1.16012e-12 -9.52079 1.69057)
(-1.03365e-12 -8.75763 0.933787)
(-8.77159e-13 -7.83322 0.7187)
(-1.28242e-12 -9.77988 0.666802)
(-9.74435e-13 -7.24154 0.386346)
(-1.45285e-12 -8.75252 0.224559)
(-1.03941e-12 -7.21046 -0.15042)
(-9.25571e-13 -6.50492 -0.0893894)
(-1.21534e-12 -7.15488 -0.52054)
(-6.88492e-13 -5.61001 -0.297577)
(-1.17983e-12 -5.62976 -0.83673)
(-1.0844e-12 -4.14707 -0.732938)
(-9.84593e-13 -4.09511 -0.512719)
(-1.53258e-12 -2.53611 -1.17941)
(-1.81076e-12 -1.73252 -1.16873)
(-6.72051e-13 -2.34592 -1.20675)
(-1.12335e-12 4.58027 -1.89698)
(-1.22568e-12 -2.49439 -2.513)
(-1.9704e-12 3.7897 -4.05594)
(-1.56171e-12 6.76334 -5.21826)
(-8.68497e-13 2.14833 -3.01987)
(-8.92537e-13 10.1057 -5.19386)
(-5.74797e-13 6.24432 -3.57303)
(-5.64014e-13 9.29453 -5.15602)
(-7.71314e-13 14.4482 -6.45191)
(-5.52388e-13 10.9572 -3.97815)
(-5.86449e-13 15.9374 -5.43384)
(-7.46037e-13 22.1585 -5.75835)
(-5.08378e-13 15.5759 -3.39753)
(-6.59602e-13 27.3456 -4.50461)
(-4.67428e-13 20.3133 -2.75047)
(-5.64814e-13 25.2541 -3.2692)
(-5.18942e-13 31.4446 -2.10351)
(-2.94389e-13 22.866 -0.646892)
(-4.33982e-13 36.3831 -1.38059)
(-3.10397e-13 27.3058 -0.328587)
(-3.34648e-13 31.9077 -0.961183)
(-4.53781e-13 40.4575 -9.89448)
(-3.16097e-13 32.7519 -4.95313)
(-4.06079e-13 42.732 -17.5166)
(-4.94078e-13 54.8188 -35.4636)
(-3.33904e-13 44.3904 -24.21)
(-4.13291e-13 65.4515 -40.3173)
(-2.855e-13 53.4005 -29.7404)
(-3.65493e-13 62.8814 -39.2403)
(-4.77369e-13 65.0889 -52.0527)
(-3.26435e-13 50.336 -35.616)
(-4.75222e-13 68.497 -55.0865)
(-3.59226e-13 51.3286 -41.6255)
(-4.40523e-13 57.9926 -59.3381)
(-5.44705e-13 44.409 -90.8184)
(-3.56157e-13 27.0097 -64.5772)
(-6.13672e-13 34.1884 -104.957)
(-7.31222e-13 39.8875 -150.709)
(-3.99555e-13 -25.9039 -58.1064)
(-4.73097e-13 11.6597 -86.4232)
(-4.8682e-14 -43.8954 -10.7932)
(1.57971e-14 -33.9259 6.44661)
(4.42009e-13 -136.471 97.4482)
(5.39967e-13 -144.357 115.629)
(8.26997e-13 -239.17 182.715)
(8.00227e-13 -209.151 182.535)
(1.31465e-12 -328.75 304.182)
(1.48163e-12 -458.991 348.686)
(1.30209e-12 -396.165 316.29)
(2.051e-12 -578.209 502.77)
(2.05286e-12 -687.65 517.335)
(1.74405e-12 -654.168 452.297)
(2.51687e-12 -986.334 654.603)
(1.9883e-12 -797.327 529.819)
(3.15859e-12 -1121.77 847.895)
(2.26398e-21 20.2406 20.7329)
(1.11583e-20 23.6146 20.6305)
(8.45511e-21 25.5601 20.7972)
(-1.21088e-19 27.4197 21.1497)
(-7.12108e-19 28.9842 21.8868)
(-2.02629e-18 30.3006 22.875)
(-3.26517e-18 31.5884 23.9914)
(-3.41578e-18 32.9715 25.044)
(-3.95433e-18 34.5233 26.0193)
(-5.21262e-18 36.2119 26.9651)
(-6.19446e-18 38.0209 27.9784)
(-4.05501e-18 39.8984 29.088)
(3.61618e-18 41.7812 30.3209)
(2.54813e-17 43.5856 31.7182)
(7.83903e-17 45.2409 33.3638)
(1.8483e-16 46.7022 35.3139)
(3.61114e-16 47.9995 37.5704)
(5.96216e-16 49.2553 40.0972)
(8.11658e-16 50.635 42.8705)
(7.99182e-16 52.1981 45.9846)
(1.72577e-16 53.9821 49.5695)
(-1.45721e-15 55.9346 53.713)
(-3.99775e-15 57.8069 58.1767)
(-6.68985e-15 59.4539 62.7928)
(-8.48656e-15 61.0133 67.4085)
(-8.59428e-15 62.7915 72.0149)
(-6.44853e-15 64.973 76.3952)
(-1.49257e-15 67.7621 80.5691)
(7.26952e-15 71.2094 84.8373)
(2.07743e-14 75.0947 89.1938)
(3.96211e-14 79.2238 93.5952)
(6.40277e-14 83.4752 98.1936)
(9.28294e-14 87.6618 102.95)
(1.23998e-13 91.7916 107.756)
(1.55513e-13 95.8283 112.474)
(1.85962e-13 99.7211 116.994)
(2.15196e-13 103.536 121.305)
(2.43453e-13 107.314 125.343)
(2.71254e-13 110.94 129.186)
(2.97571e-13 113.99 132.619)
(3.19547e-13 115.473 135.147)
(3.32062e-13 113.897 135.933)
(3.29332e-13 108.121 133.812)
(3.11432e-13 99.2228 128.503)
(2.89281e-13 91.015 121.887)
(2.77603e-13 86.7921 117.16)
(2.79648e-13 85.8295 115.438)
(2.88471e-13 85.3689 115.478)
(2.97993e-13 83.8469 116.002)
(3.06434e-13 81.0549 116.57)
(3.13431e-13 77.1 117)
(3.18973e-13 72.1268 117.255)
(3.23313e-13 66.2276 117.427)
(3.26614e-13 59.3735 117.637)
(3.28432e-13 51.5026 117.856)
(3.27913e-13 42.8389 117.865)
(3.24835e-13 34.1112 117.441)
(3.20924e-13 26.2392 116.825)
(3.19396e-13 19.6017 116.816)
(3.21871e-13 13.8236 117.922)
(3.27104e-13 8.40937 119.82)
(3.33244e-13 3.2584 121.966)
(3.39932e-13 -1.52887 124.246)
(3.49024e-13 -6.12068 127.265)
(3.62919e-13 -10.9776 131.824)
(3.81758e-13 -16.4936 137.97)
(4.06621e-13 -23.0275 146.042)
(4.38805e-13 -31.0461 156.434)
(4.80136e-13 -41.1698 169.701)
(5.33126e-13 -54.2585 186.594)
(6.01393e-13 -71.5581 208.178)
(6.90256e-13 -94.9703 235.985)
(8.07826e-13 -127.517 272.274)
(9.66892e-13 -174.22 320.468)
(1.18826e-12 -243.579 385.966)
(1.50524e-12 -349.487 477.285)
(1.96577e-12 -513.133 607.262)
(2.6084e-12 -750.084 787.252)
(3.3065e-12 -1019.98 969.221)
(3.27796e-21 20.2441 21.3968)
(1.1038e-20 23.589 21.2797)
(-4.00182e-21 25.4621 21.5066)
(-1.6429e-19 27.2325 21.9291)
(-8.01214e-19 28.698 22.7695)
(-2.25685e-18 29.9549 23.8414)
(-3.80451e-18 31.2321 25)
(-4.00135e-18 32.6361 26.0576)
(-4.93187e-18 34.2027 27.0394)
(-6.40375e-18 35.8827 28.0075)
(-7.10947e-18 37.6645 29.0563)
(-3.54492e-18 39.5065 30.2156)
(8.4552e-18 41.3438 31.5165)
(4.05242e-17 43.083 33.0109)
(1.13158e-16 44.6518 34.7852)
(2.49541e-16 46.0177 36.8933)
(4.56991e-16 47.2247 39.3225)
(7.01138e-16 48.3992 42.0245)
(8.67228e-16 49.6882 44.9601)
(7.06639e-16 51.1276 48.1991)
(-1.79713e-16 52.7515 51.8896)
(-2.13022e-15 54.5658 56.1956)
(-4.87958e-15 56.3634 60.8729)
(-7.46401e-15 57.988 65.6801)
(-8.7492e-15 59.5472 70.3841)
(-8.05848e-15 61.3543 75.0819)
(-4.93856e-15 63.5925 79.5881)
(1.11053e-15 66.3874 83.8519)
(1.11172e-14 69.795 88.1404)
(2.60189e-14 73.649 92.5204)
(4.61903e-14 77.7333 96.8954)
(7.16848e-14 81.9266 101.439)
(1.01216e-13 86.0786 106.176)
(1.3276e-13 90.2126 111.038)
(1.64332e-13 94.2946 115.864)
(1.94484e-13 98.2519 120.49)
(2.2333e-13 102.143 124.925)
(2.51234e-13 105.99 129.075)
(2.78662e-13 109.708 132.992)
(3.04895e-13 112.958 136.537)
(3.27235e-13 114.845 139.232)
(3.40873e-13 113.984 140.302)
(3.40213e-13 109.154 138.64)
(3.2446e-13 100.974 133.799)
(3.02845e-13 92.7065 127.282)
(2.89764e-13 87.7441 122.149)
(2.9025e-13 86.0391 119.883)
(2.98608e-13 85.2235 119.594)
(3.08575e-13 83.6181 120.038)
(3.17909e-13 80.845 120.695)
(3.25952e-13 76.9437 121.316)
(3.32526e-13 72.0143 121.796)
(3.37782e-13 66.124 122.183)
(3.41876e-13 59.2595 122.585)
(3.44456e-13 51.4097 123.003)
(3.44779e-13 42.8374 123.234)
(3.42467e-13 34.2198 122.984)
(3.3841e-13 26.3243 122.237)
(3.34954e-13 19.4587 121.567)
(3.3431e-13 13.3885 121.697)
(3.36974e-13 7.78157 122.838)
(3.4211e-13 2.52504 124.74)
(3.49187e-13 -2.40546 127.224)
(3.59392e-13 -7.27813 130.653)
(3.74164e-13 -12.5198 135.505)
(3.93998e-13 -18.4822 141.962)
(4.19964e-13 -25.5628 150.368)
(4.53458e-13 -34.2548 161.149)
(4.96383e-13 -45.2229 174.88)
(5.5134e-13 -59.3924 192.334)
(6.22081e-13 -78.1101 214.607)
(7.14151e-13 -103.432 243.275)
(8.35958e-13 -138.63 280.637)
(1.0007e-12 -189.137 330.146)
(1.2301e-12 -264.144 397.418)
(1.56051e-12 -378.622 492.052)
(2.04746e-12 -554.024 630.28)
(2.72209e-12 -797.718 820.418)
(3.30884e-12 -1030.47 946.427)
(4.60249e-21 20.2647 21.7827)
(1.08796e-20 23.5871 21.6683)
(-2.13305e-20 25.4132 21.9523)
(-2.21794e-19 27.1335 22.4397)
(-8.57989e-19 28.5496 23.3492)
(-2.24125e-18 29.7896 24.4636)
(-3.95291e-18 31.0762 25.6321)
(-4.20395e-18 32.4974 26.6858)
(-5.52771e-18 34.0698 27.6754)
(-7.00712e-18 35.7441 28.6695)
(-6.67157e-18 37.5103 29.752)
(-1.47235e-18 39.3313 30.9555)
(1.55251e-17 41.1388 32.3158)
(5.83404e-17 42.8371 33.8956)
(1.49354e-16 44.3543 35.7783)
(3.09077e-16 45.6673 38.0092)
(5.33054e-16 46.8291 40.5594)
(7.6235e-16 47.967 43.3753)
(8.5329e-16 49.2212 46.4261)
(5.37493e-16 50.608 49.7575)
(-5.61015e-16 52.1492 53.5087)
(-2.69484e-15 53.8804 57.876)
(-5.47306e-15 55.6379 62.6649)
(-7.83848e-15 57.2714 67.5968)
(-8.66002e-15 58.8501 72.3426)
(-7.36356e-15 60.6749 77.0543)
(-3.53323e-15 62.9516 81.6269)
(3.35128e-15 65.784 85.9938)
(1.42877e-14 69.2003 90.3226)
(3.02089e-14 73.0615 94.7298)
(5.13091e-14 77.1478 99.1017)
(7.74181e-14 81.3169 103.599)
(1.07162e-13 85.4344 108.288)
(1.38655e-13 89.5489 113.153)
(1.70071e-13 93.6419 118.037)
(1.99949e-13 97.626 122.725)
(2.28505e-13 101.55 127.22)
(2.56361e-13 105.444 131.478)
(2.83644e-13 109.209 135.452)
(3.09838e-13 112.547 139.066)
(3.32342e-13 114.613 141.858)
(3.46449e-13 114.056 143.071)
(3.46756e-13 109.652 141.65)
(3.32151e-13 101.849 137.064)
(3.11121e-13 93.6576 130.639)
(2.97603e-13 88.4246 125.308)
(2.97269e-13 86.3567 122.709)
(3.05132e-13 85.2995 122.155)
(3.15068e-13 83.5833 122.472)
(3.24626e-13 80.7663 123.102)
(3.33065e-13 76.8594 123.784)
(3.40139e-13 71.9401 124.388)
(3.45908e-13 66.056 124.924)
(3.50447e-13 59.1921 125.471)
(3.53407e-13 51.359 126.019)
(3.54169e-13 42.8431 126.389)
(3.52591e-13 34.3158 126.348)
(3.49635e-13 26.4906 125.908)
(3.47209e-13 19.607 125.526)
(3.46948e-13 13.4182 125.763)
(3.49397e-13 7.64752 126.857)
(3.54364e-13 2.22398 128.757)
(3.61717e-13 -2.92039 131.385)
(3.72728e-13 -8.07507 135.101)
(3.88404e-13 -13.6549 140.244)
(4.09356e-13 -20.012 147.045)
(4.36636e-13 -27.5681 155.842)
(4.71714e-13 -36.8447 167.085)
(5.16572e-13 -48.5463 181.368)
(5.73938e-13 -63.6567 199.495)
(6.47726e-13 -83.6109 222.595)
(7.43742e-13 -110.599 252.284)
(8.7063e-13 -148.094 290.853)
(1.04212e-12 -201.893 341.815)
(1.28218e-12 -281.96 411.551)
(1.63429e-12 -404.612 512.439)
(2.16029e-12 -590.388 663.649)
(2.84054e-12 -831.53 855.213)
(3.2108e-12 -988.998 899.968)
(6.06714e-21 20.2745 22.2114)
(1.1269e-20 23.5619 22.1028)
(-3.92553e-20 25.3223 22.4524)
(-2.88945e-19 26.9745 23.015)
(-9.25694e-19 28.3235 24.0029)
(-2.15525e-18 29.5357 25.1635)
(-4.01977e-18 30.8281 26.3471)
(-3.99336e-18 32.2673 27.4025)
(-5.68518e-18 33.845 28.4041)
(-7.14335e-18 35.5081 29.4248)
(-6.2494e-18 37.2505 30.5454)
(2.54656e-18 39.0403 31.8008)
(2.61875e-17 40.8056 33.2326)
(8.24333e-17 42.4459 34.9097)
(1.94835e-16 43.8914 36.9144)
(3.78788e-16 45.1319 39.2827)
(6.13689e-16 46.2304 41.9673)
(8.14209e-16 47.3125 44.904)
(8.0679e-16 48.5088 48.0738)
(3.07883e-16 49.8199 51.524)
(-1.02069e-15 51.2512 55.3633)
(-3.32619e-15 52.8696 59.8024)
(-6.095e-15 54.5615 64.7035)
(-8.18481e-15 56.1987 69.7717)
(-8.48601e-15 57.8029 74.5764)
(-6.53057e-15 59.6453 79.2848)
(-1.94168e-15 61.9507 83.8882)
(5.82812e-15 64.801 88.3336)
(1.77562e-14 68.2103 92.7061)
(3.47552e-14 72.0634 97.1453)
(5.68453e-14 76.138 101.527)
(8.36406e-14 80.2754 106)
(1.13633e-13 84.3544 110.658)
(1.45067e-13 88.4469 115.533)
(1.76341e-13 92.559 120.495)
(2.06005e-13 96.5877 125.283)
(2.34244e-13 100.553 129.847)
(2.6201e-13 104.505 134.227)
(2.89153e-13 108.342 138.289)
(3.15309e-13 111.807 141.997)
(3.38024e-13 114.133 144.923)
(3.52788e-13 114.039 146.339)
(3.54374e-13 110.274 145.222)
(3.41303e-13 103.031 140.959)
(3.21065e-13 94.9341 134.646)
(3.07011e-13 89.2861 129.079)
(3.05626e-13 86.6949 126.092)
(3.12852e-13 85.315 125.237)
(3.22738e-13 83.4698 125.413)
(3.32565e-13 80.6135 126.016)
(3.41474e-13 76.707 126.765)
(3.49136e-13 71.8001 127.511)
(3.55518e-13 65.9193 128.227)
(3.60623e-13 59.0525 128.959)
(3.64082e-13 51.2362 129.676)
(3.6534e-13 42.7782 130.196)
(3.64351e-13 34.3258 130.304)
(3.62093e-13 26.5182 130.039)
(3.60272e-13 19.5469 129.825)
(3.60316e-13 13.2012 130.175)
(3.62815e-13 7.27087 131.331)
(3.67825e-13 1.70847 133.308)
(3.75443e-13 -3.58827 136.072)
(3.87137e-13 -8.9624 140.031)
(4.03666e-13 -14.8242 145.45)
(4.25717e-13 -21.522 152.592)
(4.54341e-13 -29.4952 161.796)
(4.91052e-13 -39.2889 173.525)
(5.37916e-13 -51.6409 188.395)
(5.97809e-13 -67.5862 207.247)
(6.74803e-13 -88.6352 231.238)
(7.74859e-13 -117.082 261.986)
(9.0681e-13 -156.581 301.758)
(1.08555e-12 -213.366 354.417)
(1.3395e-12 -298.45 428.077)
(1.72014e-12 -429.339 538.409)
(2.27953e-12 -622.253 701.372)
(2.92078e-12 -849.452 879.502)
(3.11846e-12 -946.619 867.832)
(7.28017e-21 20.2876 22.6127)
(1.27501e-20 23.5347 22.5154)
(-5.12602e-20 25.2269 22.937)
(-3.50763e-19 26.8162 23.582)
(-1.00827e-18 28.1096 24.6474)
(-2.01244e-18 29.3076 25.8462)
(-3.57673e-18 30.6137 27.0391)
(-3.95838e-18 32.0711 28.0972)
(-5.88395e-18 33.6508 29.1152)
(-7.14414e-18 35.3009 30.1669)
(-4.22269e-18 37.0191 31.3302)
(7.99272e-18 38.7768 32.6433)
(4.02297e-17 40.4986 34.1553)
(1.12512e-16 42.0805 35.9377)
(2.48054e-16 43.4567 38.0701)
(4.53931e-16 44.6308 40.5774)
(6.89558e-16 45.6761 43.395)
(8.40918e-16 46.7127 46.4467)
(7.07941e-16 47.8606 49.7249)
(2.72403e-18 49.1091 53.2963)
(-1.55397e-15 50.4479 57.2313)
(-3.98629e-15 51.962 61.7368)
(-6.6671e-15 53.5906 66.7295)
(-8.39477e-15 55.2405 71.9044)
(-8.13286e-15 56.8893 76.7726)
(-5.51934e-15 58.7557 81.4646)
(-2.08999e-16 61.0833 86.0612)
(8.40744e-15 63.9582 90.5676)
(2.12783e-14 67.3742 94.9825)
(3.92981e-14 71.23 99.4583)
(6.23289e-14 75.306 103.866)
(8.97447e-14 79.42 108.328)
(1.19885e-13 83.456 112.959)
(1.51128e-13 87.5112 117.834)
(1.82171e-13 91.6246 122.865)
(2.11676e-13 95.6915 127.775)
(2.39693e-13 99.6954 132.429)
(2.67364e-13 103.696 136.924)
(2.94435e-13 107.597 141.092)
(3.20598e-13 111.17 144.907)
(3.43551e-13 113.709 147.978)
(3.58991e-13 113.99 149.607)
(3.61854e-13 110.759 148.799)
(3.5037e-13 104.023 144.876)
(3.3108e-13 96.088 138.716)
(3.16661e-13 90.1568 132.948)
(3.14243e-13 87.1214 129.569)
(3.20718e-13 85.4192 128.384)
(3.30393e-13 83.4128 128.379)
(3.40353e-13 80.4842 128.918)
(3.49624e-13 76.552 129.707)
(3.57804e-13 71.6406 130.58)
(3.64779e-13 65.7584 131.484)
(3.70455e-13 58.8927 132.422)
(3.74432e-13 51.1004 133.329)
(3.76203e-13 42.7055 134.012)
(3.75849e-13 34.3339 134.288)
(3.74403e-13 26.5654 134.235)
(3.73393e-13 19.5455 134.254)
(3.73994e-13 13.074 134.79)
(3.76765e-13 6.97935 136.074)
(3.81934e-13 1.22949 138.165)
(3.89808e-13 -4.29538 141.065)
(4.02126e-13 -9.94502 145.253)
(4.19461e-13 -16.1329 150.937)
(4.42561e-13 -23.215 158.41)
(4.72515e-13 -31.6518 168.023)
(5.10871e-13 -42.016 180.25)
(5.59781e-13 -55.0843 195.73)
(6.22252e-13 -71.9441 215.335)
(7.02457e-13 -94.1786 240.222)
(8.06387e-13 -124.188 271.967)
(9.43326e-13 -165.878 312.938)
(1.13059e-12 -226.164 367.9)
(1.40287e-12 -317.389 447.498)
(1.81622e-12 -457.394 569.329)
(2.39771e-12 -654.812 739.443)
(2.971e-12 -861.694 890.793)
(2.94221e-12 -902.519 806.917)
(7.47274e-21 20.298 23.0064)
(1.46843e-20 23.4963 22.9258)
(-5.02466e-20 25.1116 23.4246)
(-3.78443e-19 26.6353 24.1586)
(-1.07643e-18 27.875 25.3013)
(-1.93989e-18 29.0629 26.5342)
(-3.27591e-18 30.3841 27.7339)
(-3.95545e-18 31.8582 28.7975)
(-5.88288e-18 33.4371 29.836)
(-7.32302e-18 35.0713 30.9234)
(-1.53019e-18 36.7618 32.1343)
(1.56807e-17 38.4825 33.5116)
(5.8678e-17 40.1545 35.1117)
(1.49592e-16 41.6715 37.0078)
(3.09166e-16 42.973 39.2726)
(5.32457e-16 44.0777 41.9195)
(7.55504e-16 45.0693 44.8699)
(8.35544e-16 46.0595 48.0365)
(5.51659e-16 47.1542 51.4194)
(-3.76487e-16 48.336 55.1126)
(-2.15211e-15 49.5827 59.1535)
(-4.66446e-15 50.9903 63.7265)
(-7.18445e-15 52.5514 68.7904)
(-8.48005e-15 54.214 74.0386)
(-7.62417e-15 55.9149 78.9598)
(-4.3532e-15 57.8129 83.6412)
(1.6446e-15 60.1533 88.2089)
(1.10669e-14 63.042 92.7517)
(2.48385e-14 66.4609 97.2063)
(4.38367e-14 70.3161 101.722)
(6.77925e-14 74.3942 106.175)
(9.58191e-14 78.4896 110.652)
(1.26075e-13 82.4841 115.271)
(1.57054e-13 86.4958 120.141)
(1.87776e-13 90.6002 125.226)
(2.17137e-13 94.7038 130.268)
(2.45008e-13 98.7499 135.036)
(2.7261e-13 102.8 139.655)
(2.99653e-13 106.769 143.947)
(3.25858e-13 110.451 147.888)
(3.4909e-13 113.209 151.126)
(3.65248e-13 113.877 152.988)
(3.69455e-13 111.206 152.508)
(3.59677e-13 105.023 148.95)
(3.41516e-13 97.299 142.979)
(3.26873e-13 91.1071 137.041)
(3.23408e-13 87.6138 133.269)
(3.29011e-13 85.5606 131.726)
(3.38341e-13 83.3693 131.504)
(3.48337e-13 80.3515 131.95)
(3.57894e-13 76.3765 132.75)
(3.66542e-13 71.4451 133.734)
(3.74095e-13 65.5513 134.828)
(3.80362e-13 58.6837 135.99)
(3.84898e-13 50.9181 137.111)
(3.87211e-13 42.587 137.971)
(3.87467e-13 34.2852 138.407)
(3.86764e-13 26.5341 138.548)
(3.86532e-13 19.4496 138.798)
(3.87767e-13 12.856 139.553)
(3.9096e-13 6.62111 141.014)
(3.96402e-13 0.714908 143.248)
(4.04575e-13 -5.02219 146.289)
(4.17519e-13 -10.9542 150.702)
(4.35639e-13 -17.482 156.645)
(4.59751e-13 -24.9704 164.441)
(4.91018e-13 -33.8989 174.462)
(5.31034e-13 -44.8692 187.196)
(5.82033e-13 -58.6989 203.305)
(6.47074e-13 -76.5254 223.655)
(7.30343e-13 -99.9994 249.373)
(8.37921e-13 -131.655 282.02)
(9.80222e-13 -175.784 324.367)
(1.17849e-12 -240.255 382.723)
(1.47392e-12 -338.696 470.324)
(1.91984e-12 -487.745 603.618)
(2.50372e-12 -685.82 773.219)
(2.97547e-12 -865.255 887.145)
(2.74614e-12 -840.956 746.947)
(5.85851e-21 20.307 23.3921)
(1.46023e-20 23.449 23.3352)