/*--------------------------------*- C++ -*----------------------------------*\
| =========                 |                                                 |
| \\      /  F ield         | OpenFOAM: The Open Source CFD Toolbox           |
|  \\    /   O peration     | Version:  4.1                                   |
|   \\  /    A nd           | Web:      www.OpenFOAM.org                      |
|    \\/     M anipulation  |                                                 |
\*---------------------------------------------------------------------------*/
FoamFile
{
    version     2.0;
    format      ascii;
    class       volScalarField;
    location    "14";
    object      p;
}
// * * * * * * * * * * * * * * * * * * * * * * * * * * * * * * * * * * * * * //

dimensions      [0 2 -2 0 0 0 0];

internalField   nonuniform List<scalar> 
225
(
-922107
-369120
256194
353503
302045
170004
6043.68
-118370
-167774
-107447
-24128.9
5522.41
-4920.74
25508.6
40462.4
1.19643e+06
132681
-567977
-539011
-278687
-16460.4
83040.9
50164.1
-40549.4
-85262.6
-122966
-170918
-190296
-199741
-231832
99690.6
50475.5
15764.5
8666.09
14426.6
-9020.86
-48673.2
-58050.1
-43139.8
-22868.8
-20238.6
27893.3
121717
210991
211107
136469
160842
179968
205935
218756
165380
53198.3
-27919.8
-22533.8
18499.2
28021.4
23247.6
37759.7
55225.1
89564
129003
130486
92131.6
65166
77393.7
100672
93658.8
61389.7
30624.9
9765.73
-7755.6
-92044.8
-223947
-221033
-126903
61598.9
75020.4
73335.2
58516.8
42565.3
45722
78697.9
108717
119914
115950
114153
124036
139253
163521
176464
64885
54972.2
30669.5
12009.6
22569.9
48887
50983.2
20315.3
-3171.22
-16601.7
-3288.87
32970
43657.9
18855.8
4483.68
63421
24393.3
-23749
-46172.9
-62319.7
-60583.5
-40925.3
-52062.5
-65624.8
-53668.9
-44203.9
-51471.1
-42761.8
-22706.4
-11159.5
-22869.6
-28978.9
-48484.5
-69511.4
-80740.9
-76057.5
-54328.5
-34721.8
-33600.9
-47822.7
-63280.3
-75100.4
-85452.2
-71022
-56314.6
-13244.7
-6109.37
5425.17
14623.4
18536.1
15294.5
4730.14
-6813.89
-13763.2
-9374.49
-4625.83
-8631.33
5518.04
30608.3
42598.8
18669.6
15723
13483.7
14387.2
10546.5
-1017.4
-11757.6
-8837.59
-3001.97
-4562.84
-1600.76
-597.181
-7036.43
-15845
-10290.6
5023.37
3097.64
1529
2591.92
3459.58
3902.92
7872.49
12721.7
10246.6
2542.5
-2292.51
1943.89
15001.5
22802.7
24714.3
554.12
6276.1
13212.8
16461.2
12103.6
6622.82
3033.04
-129.835
1641.38
10291.5
19562.6
22817
21426.5
23713.8
25973.3
50432.3
39711.1
29943.6
32246
39359.4
43034.9
40603.1
36762.3
34258.2
31030
25362.9
24057.2
34803.7
51668.2
43960.2
-6056.24
-6157.71
-5888.92
-12906
-16571.7
-16065
-13936.6
-12816
-11224.9
-5800.36
-416.203
8266.67
8505.52
1304.08
6282.54
)
;

boundaryField
{
    inletFace
    {
        type            zeroGradient;
    }
    inlet
    {
        type            zeroGradient;
    }
    inletWalls
    {
        type            zeroGradient;
    }
    outletInlet
    {
        type            fixedValue;
        value           uniform 0;
    }
}


// ************************************************************************* //
