/*--------------------------------*- C++ -*----------------------------------*\
| =========                 |                                                 |
| \\      /  F ield         | OpenFOAM: The Open Source CFD Toolbox           |
|  \\    /   O peration     | Version:  4.1                                   |
|   \\  /    A nd           | Web:      www.OpenFOAM.org                      |
|    \\/     M anipulation  |                                                 |
\*---------------------------------------------------------------------------*/
FoamFile
{
    version     2.0;
    format      ascii;
    class       surfaceScalarField;
    location    "14";
    object      phi;
}
// * * * * * * * * * * * * * * * * * * * * * * * * * * * * * * * * * * * * * //

dimensions      [0 3 -1 0 0 0 0];

internalField   nonuniform List<scalar> 
420
(
77727
-76419.5
147358
-68322.1
92969.4
55698.3
88185.5
6090.15
85666.7
3822.4
59996.9
26972.1
44491.8
16807.5
46979.9
-1185.24
51472.3
-3187.08
50532
2249.55
48379.5
3458.26
38963.3
10729.5
28494.9
11780.1
33665.9
-3858.58
34965.8
-78333.2
1919.46
-143029
-3620.24
-112154
24831.2
-105690
-368.239
-113975
12109.8
-134202
47201.4
-138638
21246.1
-123229
-16591.2
-101629
-24781.5
-70799.2
-28574.6
-38210.4
-29122.5
99.2755
-27576.8
26173.4
-14288.8
14664.6
7654.37
49630.8
35427
-33501.3
35857.6
-4046.95
59528
1164.75
72269.8
-13106.6
90502.5
-6119.4
129163
8542.95
143694
6716.98
118641
8463.56
83673.2
10190.2
40837.3
14268.1
-3171.02
14887.9
-35189.5
4464.4
-53069.6
3611.57
-50759.4
5365.94
-1128.82
-231742
198241
-303714
67925.5
-338809
36260
-377094
25179.1
-410843
27628.5
-439814
37515
-477600
44503.9
-517069
47934.3
-548809
41931.7
-562931
28388.7
-556931
8891.43
-535810
-16668.3
-492006
-40201.4
-433939
-52711.5
-435068
73704.3
124531
131206
10421.5
203608
-36144.4
261294
-32507.9
284542
4379.22
310647
11408.6
336119
19030.1
378775
5275.7
431656
-10951.2
479381
-19337.4
517817
-29547.3
549134
-47985.7
558928
-49997.6
554183
-47986.9
119114
65659.5
58865.8
79253.8
-3176.89
73875.1
-30769.5
66850.4
-25491.5
72243.2
-1023.5
86622.7
-2977.6
94620.4
11028.1
94744.6
5147.36
95126.2
-11336.7
96002.9
-20219.4
76282.9
-9827.85
31392.4
-3102.29
-21728.6
3118.32
-76178.6
6452.11
42935.7
40960.8
17902.6
44243.5
-6461.71
22514.2
-9042.46
3903.57
-6883.71
3581.91
-704.793
352.053
250.147
6140.49
5237.79
2961.6
8324.64
-7838.37
-538.368
-22370.9
-5688.37
-36963.9
4763.07
-45878.5
5811.27
-47744
4981.08
-43372.4
2076.05
-436.785
37912.3
-20011.3
37353.2
-5903.63
28640.1
-330.017
20981.8
773.726
11204.2
9072
-6707.75
18161.2
-17873
16402.2
-20558.4
11009.2
-30327.5
9230.03
-45266.6
9249.79
-49144.1
8640.32
-41730.7
-1604.48
-24582
-12169.8
-6281.12
-16227.9
-6717.92
-31812.8
11798
-61594.6
23875.7
-85135.9
23209.1
-104738
20373.2
-115813
20145.2
-116240
18585.8
-111936
12096.5
-104263
3334.39
-90962.3
-4074.05
-65182.8
-16532.7
-40661.9
-15881.9
-28365.7
-13902.9
-20883.1
-19654
-11590.3
-25522.4
-18308.2
11146.9
649.278
27751
7270.37
41757.1
9202.15
55032.9
7096.56
75953.8
-776.236
101201
-6661.81
117889
-4592.31
125384
-4160.39
126152
-4842.58
112490
-2871.37
100453
-3845.23
86250.1
300.535
73323.3
-6727.06
44345.7
3455.36
26037.4
8279.38
-7631.01
28976.1
-13427.1
47394.3
-9216.42
63265.1
-8774.82
73942.5
-11453.9
78450.2
-11170
78013.5
-4156.31
68517
5335.1
44988.2
18685
24327.8
17788
13219.7
7262.27
6757.08
6761.79
2434.8
-2406.11
-3666.34
9555.01
22371.1
4304.23
-11935.8
5833.18
-14956.7
1498.45
-4882.05
4246.94
-11523.8
3707.19
-10914.7
-762.295
-6701.21
-264.774
-4655.1
9405.52
-4338.22
21737.3
6349.23
21678.5
17844.1
25363.5
3575.88
22779.3
9346.01
7596.89
12776.3
-2785.94
19937.7
19585.1
8779.45
-20716.4
16156.1
-22333.4
1228.92
10044.3
-13496.5
3201.67
-21139
-3272.76
-25530.9
-2309.09
-30683.9
497.212
-36277.5
1255.74
-34273.1
4344.25
-22774.9
6346.1
-25558.3
6358.96
-25523
9310.86
-25694.4
12947.5
-18203.8
12447.1
1381.38
-17116.8
-3598.82
-38389
-1058.82
-37664.6
9319.78
-38586
4124.25
-37975.4
-3883.57
-33915.7
-6367.95
-29703.2
-3715.13
-26781.2
-1665.02
-22039.8
-396.112
-14788.6
-902.82
-8570.9
144.178
-5871.44
6613.89
-3113.27
10193.5
1644.88
7693.81
3026.75
5193.14
17912.3
34151
44345.9
50454.4
55161.7
58860.2
59845.5
57618.5
50208.5
38044.1
24840.1
11188.8
4416.69
)
;

boundaryField
{
    inletFace
    {
        type            calculated;
        value           nonuniform List<scalar> 
450
(
-2.18818e-06
-1.91173e-06
-6.96509e-07
-2.08761e-06
-2.68188e-06
-3.38937e-06
-4.08995e-06
-4.05418e-06
-4.12887e-06
-3.95024e-06
-3.82533e-06
-3.55214e-06
-2.63263e-06
-2.47531e-06
-1.56425e-06
-3.16054e-06
-3.17611e-06
-2.45955e-06
-3.48707e-06
-4.02623e-06
-4.56632e-06
-4.43814e-06
-4.36521e-06
-4.27513e-06
-4.01739e-06
-3.7948e-06
-3.19005e-06
-2.71109e-06
-2.76775e-06
-1.4542e-06
-2.62826e-06
-3.15632e-06
-2.88733e-06
-3.21807e-06
-3.58666e-06
-3.85811e-06
-3.78347e-06
-3.71293e-06
-3.64891e-06
-3.66717e-06
-3.70327e-06
-3.71675e-06
-3.60405e-06
-3.58482e-06
-3.03183e-06
-4.36137e-06
-3.97562e-06
-3.39736e-06
-3.52301e-06
-3.5919e-06
-3.50982e-06
-3.46794e-06
-3.44887e-06
-3.43543e-06
-3.42453e-06
-3.41044e-06
-3.38022e-06
-3.29183e-06
-3.03367e-06
-1.78871e-06
-1.2433e-06
-4.02215e-06
-4.92232e-06
-5.11487e-06
-5.03739e-06
-4.9302e-06
-4.77356e-06
-4.61094e-06
-4.53572e-06
-4.4518e-06
-4.37139e-06
-4.25051e-06
-4.11632e-06
-3.84e-06
-1.39784e-06
-2.69073e-06
-4.59431e-06
-4.84444e-06
-5.03222e-06
-4.87795e-06
-4.78487e-06
-4.6137e-06
-4.44607e-06
-4.30843e-06
-4.1646e-06
-4.10811e-06
-4.22148e-06
-4.40662e-06
-4.15692e-06
-1.74775e-06
-4.29725e-06
-5.11745e-06
-5.27777e-06
-5.29766e-06
-5.348e-06
-5.16562e-06
-4.94663e-06
-4.90779e-06
-4.98234e-06
-4.5425e-06
-4.05143e-06
-3.94695e-06
-4.31339e-06
-4.53909e-06
-3.23907e-06
-5.56938e-06
-5.65575e-06
-5.41227e-06
-5.27719e-06
-5.20571e-06
-5.18919e-06
-5.18943e-06
-5.29011e-06
-5.46477e-06
-5.45759e-06
-5.55384e-06
-6.11482e-06
-6.12017e-06
-4.63457e-06
-3.83891e-06
-5.82606e-06
-6.05524e-06
-5.91897e-06
-5.73922e-06
-5.7032e-06
-5.62051e-06
-5.66007e-06
-5.77738e-06
-5.78459e-06
-5.97769e-06
-6.09422e-06
-6.10669e-06
-6.26728e-06
-6.59679e-06
-6.59024e-06
-2.75341e-06
-3.97579e-06
-5.43947e-06
-5.72585e-06
-5.97954e-06
-6.14939e-06
-6.24675e-06
-6.28916e-06
-6.29625e-06
-6.29345e-06
-6.31383e-06
-6.33534e-06
-6.47581e-06
-6.5941e-06
-5.47441e-06
-3.01146e-06
-6.44858e-06
-7.2159e-06
-7.30066e-06
-7.12071e-06
-6.92821e-06
-6.86864e-06
-6.87459e-06
-6.81877e-06
-6.69255e-06
-6.62633e-06
-6.64062e-06
-6.62302e-06
-6.1564e-06
-3.4596e-06
-4.49967e-06
-6.05783e-06
-6.84969e-06
-7.17785e-06
-6.83752e-06
-6.52597e-06
-6.72533e-06
-6.88085e-06
-6.81819e-06
-6.38036e-06
-6.55e-06
-6.62435e-06
-6.30926e-06
-5.8499e-06
-4.26329e-06
-3.41324e-06
-6.40443e-06
-7.71148e-06
-8.02937e-06
-7.40549e-06
-6.72129e-06
-6.38817e-06
-6.3781e-06
-6.46395e-06
-6.54371e-06
-6.66138e-06
-6.84928e-06
-6.72229e-06
-6.47044e-06
-3.93116e-06
-3.61503e-06
-7.48472e-06
-8.45219e-06
-8.83779e-06
-8.54225e-06
-8.16466e-06
-7.73085e-06
-7.55618e-06
-7.36497e-06
-7.22882e-06
-7.10072e-06
-7.00821e-06
-6.9954e-06
-6.77324e-06
-5.13319e-06
-4.97667e-06
-7.36213e-06
-8.53984e-06
-9.22274e-06
-9.45074e-06
-9.26904e-06
-9.11727e-06
-9.06661e-06
-9.09452e-06
-9.11026e-06
-9.05461e-06
-8.8491e-06
-8.52598e-06
-8.18821e-06
-6.61343e-06
2.18818e-06
1.91173e-06
6.96509e-07
2.08761e-06
2.68188e-06
3.38937e-06
4.08995e-06
4.05418e-06
4.12887e-06
3.95024e-06
3.82533e-06
3.55214e-06
2.63263e-06
2.47531e-06
1.56425e-06
3.16054e-06
3.17611e-06
2.45955e-06
3.48707e-06
4.02623e-06
4.56632e-06
4.43814e-06
4.36521e-06
4.27513e-06
4.01739e-06
3.7948e-06
3.19005e-06
2.71109e-06
2.76775e-06
1.4542e-06
2.62826e-06
3.15632e-06
2.88733e-06
3.21807e-06
3.58666e-06
3.85811e-06
3.78347e-06
3.71293e-06
3.64891e-06
3.66717e-06
3.70327e-06
3.71675e-06
3.60405e-06
3.58482e-06
3.03183e-06
4.36137e-06
3.97562e-06
3.39736e-06
3.52301e-06
3.5919e-06
3.50982e-06
3.46794e-06
3.44887e-06
3.43543e-06
3.42453e-06
3.41044e-06
3.38022e-06
3.29183e-06
3.03367e-06
1.78871e-06
1.2433e-06
4.02215e-06
4.92232e-06
5.11487e-06
5.03739e-06
4.9302e-06
4.77356e-06
4.61094e-06
4.53572e-06
4.4518e-06
4.37139e-06
4.25051e-06
4.11632e-06
3.84e-06
1.39784e-06
2.69073e-06
4.59431e-06
4.84444e-06
5.03222e-06
4.87795e-06
4.78487e-06
4.6137e-06
4.44607e-06
4.30843e-06
4.1646e-06
4.10811e-06
4.22148e-06
4.40662e-06
4.15692e-06
1.74775e-06
4.29725e-06
5.11745e-06
5.27777e-06
5.29766e-06
5.348e-06
5.16562e-06
4.94663e-06
4.90779e-06
4.98234e-06
4.5425e-06
4.05143e-06
3.94695e-06
4.31339e-06
4.53909e-06
3.23907e-06
5.56938e-06
5.65575e-06
5.41227e-06
5.27719e-06
5.20571e-06
5.18919e-06
5.18943e-06
5.29011e-06
5.46477e-06
5.45759e-06
5.55384e-06
6.11482e-06
6.12017e-06
4.63457e-06
3.83891e-06
5.82606e-06
6.05524e-06
5.91897e-06
5.73922e-06
5.7032e-06
5.62051e-06
5.66007e-06
5.77738e-06
5.78459e-06
5.97769e-06
6.09422e-06
6.10669e-06
6.26728e-06
6.59679e-06
6.59024e-06
2.75341e-06
3.97579e-06
5.43947e-06
5.72585e-06
5.97954e-06
6.14939e-06
6.24675e-06
6.28916e-06
6.29625e-06
6.29345e-06
6.31383e-06
6.33534e-06
6.47581e-06
6.5941e-06
5.47441e-06
3.01146e-06
6.44858e-06
7.2159e-06
7.30066e-06
7.12071e-06
6.92821e-06
6.86864e-06
6.87459e-06
6.81877e-06
6.69255e-06
6.62633e-06
6.64062e-06
6.62302e-06
6.1564e-06
3.4596e-06
4.49967e-06
6.05783e-06
6.84969e-06
7.17785e-06
6.83752e-06
6.52597e-06
6.72533e-06
6.88085e-06
6.81819e-06
6.38036e-06
6.55e-06
6.62435e-06
6.30926e-06
5.8499e-06
4.26329e-06
3.41324e-06
6.40443e-06
7.71148e-06
8.02937e-06
7.40549e-06
6.72129e-06
6.38817e-06
6.3781e-06
6.46395e-06
6.54371e-06
6.66138e-06
6.84928e-06
6.72229e-06
6.47044e-06
3.93116e-06
3.61503e-06
7.48472e-06
8.45219e-06
8.83779e-06
8.54225e-06
8.16466e-06
7.73085e-06
7.55618e-06
7.36497e-06
7.22882e-06
7.10072e-06
7.00821e-06
6.9954e-06
6.77324e-06
5.13319e-06
4.97667e-06
7.36213e-06
8.53984e-06
9.22274e-06
9.45074e-06
9.26904e-06
9.11727e-06
9.06661e-06
9.09452e-06
9.11026e-06
9.05461e-06
8.8491e-06
8.52598e-06
8.18821e-06
6.61343e-06
)
;
    }
    inlet
    {
        type            calculated;
        value           nonuniform List<scalar> 
15
(
-1299.9
-1300.2
-1299.9
-1299.9
-1300.2
-1299.9
-1299.9
-1300.2
-1299.9
-1299.9
-1300.2
-1299.9
-1299.9
-1300.2
-1299.9
)
;
    }
    inletWalls
    {
        type            calculated;
        value           uniform 0;
    }
    outletInlet
    {
        type            calculated;
        value           nonuniform List<scalar> 
15
(
7443.44
14495.5
23872.1
19836.2
12321.1
6516.8
1842.46
-2645.43
-7409.1
-11073.6
-9989.9
-6068.88
-6916.61
-13776.9
-8790.23
)
;
    }
}


// ************************************************************************* //
