/*--------------------------------*- C++ -*----------------------------------*\
| =========                 |                                                 |
| \\      /  F ield         | OpenFOAM: The Open Source CFD Toolbox           |
|  \\    /   O peration     | Version:  4.1                                   |
|   \\  /    A nd           | Web:      www.OpenFOAM.org                      |
|    \\/     M anipulation  |                                                 |
\*---------------------------------------------------------------------------*/
FoamFile
{
    version     2.0;
    format      ascii;
    class       volVectorField;
    location    "14";
    object      U;
}
// * * * * * * * * * * * * * * * * * * * * * * * * * * * * * * * * * * * * * //

dimensions      [0 1 -1 0 0 0 0];

internalField   nonuniform List<vector> 
225
(
(1.51504e-08 -782.597 -647.028)
(1.32345e-08 -380.296 -1153.22)
(4.8218e-09 523.226 164.143)
(1.44536e-08 -275.522 -451.788)
(1.85662e-08 163.716 -308.517)
(2.3464e-08 175.293 -382.945)
(2.83172e-08 69.6834 -480.318)
(2.80663e-08 295.449 -316.493)
(2.85836e-08 226.419 -346.474)
(2.73497e-08 17.0823 -352.418)
(2.64815e-08 -9.07666 -257.303)
(2.45913e-08 55.7491 -184.46)
(1.82269e-08 368.294 -170.042)
(1.71358e-08 -128.102 -529.655)
(1.08294e-08 199.964 3.54226)
(2.18799e-08 -245.355 108.039)
(2.19901e-08 713.072 275.203)
(1.70269e-08 67.2822 498.677)
(2.41402e-08 -487.711 44.3768)
(2.7876e-08 -424.382 -104.189)
(3.16117e-08 621.026 347.12)
(3.07243e-08 322.818 -29.7009)
(3.0223e-08 162.13 -370.8)
(2.95959e-08 358.722 -361.251)
(2.78111e-08 146.194 -453.139)
(2.62737e-08 209.637 -458.265)
(2.20841e-08 111.881 -318.025)
(1.87672e-08 -99.2551 -328.111)
(1.91628e-08 -65.5919 -167.802)
(1.00672e-08 481.031 507.374)
(1.81946e-08 360.295 -20.492)
(2.18506e-08 -279.502 154.86)
(1.99908e-08 -248.082 144.939)
(2.22779e-08 -167.505 -214.393)
(2.48298e-08 -129.913 -234.311)
(2.6712e-08 72.9991 -145.211)
(2.61923e-08 -72.365 -420.437)
(2.5704e-08 -51.2262 -496.629)
(2.52637e-08 -60.5572 -491.182)
(2.53874e-08 -77.5601 -360.434)
(2.56371e-08 29.7823 -342.545)
(2.57333e-08 126.076 -649.814)
(2.49506e-08 249.383 -663.443)
(2.48174e-08 205.305 -545.637)
(2.09912e-08 434.123 69.6712)
(3.01973e-08 584.879 212.45)
(2.75224e-08 280.492 278.765)
(2.35199e-08 251.53 420.526)
(2.43922e-08 305.226 363.353)
(2.4866e-08 355.722 331.786)
(2.42982e-08 416.375 371.34)
(2.40108e-08 481.295 382.303)
(2.38759e-08 517.521 370.382)
(2.37832e-08 507.944 338.999)
(2.37103e-08 496.479 317.655)
(2.36101e-08 517.054 336.371)
(2.34009e-08 502.484 297.001)
(2.27915e-08 481.066 193.754)
(2.10019e-08 416.285 114.537)
(1.23829e-08 427.449 -161.567)
(8.60684e-09 -384.847 2656.7)
(2.78469e-08 212.583 447.542)
(3.40756e-08 37.705 -93.2404)
(3.54085e-08 -203.885 -157.108)
(3.4876e-08 -294.491 -57.2134)
(3.41301e-08 -290.113 38.727)
(3.30457e-08 -313.838 53.1676)
(3.19235e-08 -333.15 20.4676)
(3.13992e-08 -392.683 -151.86)
(3.08183e-08 -412.572 -337.308)
(3.02649e-08 -388.93 -477.31)
(2.94249e-08 -395.327 -604.194)
(2.8496e-08 -582.112 -778.647)
(2.65859e-08 -1188.88 -1261.71)
(9.6774e-09 564.799 -6424.65)
(1.86276e-08 -277.281 936.902)
(3.18059e-08 115.475 285.859)
(3.35414e-08 77.8275 -129.891)
(3.48374e-08 -20.4915 51.0004)
(3.37695e-08 223.874 766.32)
(3.31292e-08 -71.9129 325.69)
(3.19404e-08 35.4784 350.165)
(3.07797e-08 -121.61 131.168)
(2.98298e-08 -101.756 61.8879)
(2.8831e-08 -50.4846 10.8672)
(2.844e-08 -95.6042 -17.2425)
(2.92284e-08 -90.9083 -49.9963)
(3.05065e-08 91.0785 115.915)
(2.87779e-08 -291.209 -77.4767)
(1.21013e-08 296.177 748.3)
(2.97525e-08 -459.196 465.613)
(3.54274e-08 -23.948 69.7988)
(3.65372e-08 -38.7415 -18.7226)
(3.66794e-08 -16.1054 40.2075)
(3.70234e-08 55.3877 196.119)
(3.57609e-08 -51.227 61.6404)
(3.42489e-08 22.955 145.014)
(3.3976e-08 21.9133 252.087)
(3.44922e-08 -187.684 215.109)
(3.14508e-08 -145.236 157.398)
(2.80477e-08 -77.4774 263.256)
(2.73244e-08 -177.101 354.136)
(2.98646e-08 -100.549 392.121)
(3.14235e-08 -122.147 491.2)
(2.24242e-08 -310.742 336.56)
(3.85552e-08 -670.922 394.73)
(3.91575e-08 -242.741 330.014)
(3.74674e-08 -206.005 223.063)
(3.65323e-08 -155.575 184.106)
(3.60416e-08 -136.193 180.064)
(3.59231e-08 -124.697 175.463)
(3.59247e-08 -95.078 178.198)
(3.66259e-08 -50.4185 200.936)
(3.78308e-08 -23.2162 136.934)
(3.77811e-08 12.7816 57.4841)
(3.84518e-08 106.166 65.0369)
(4.23309e-08 181.841 -103.467)
(4.2368e-08 199.332 -161.856)
(3.20873e-08 80.4399 -205.211)
(2.65754e-08 88.0161 -74.897)
(4.03331e-08 -517.48 -137.296)
(4.19197e-08 -182.201 130.709)
(4.09812e-08 -121.858 147.624)
(3.9732e-08 -32.3181 83.5234)
(3.94826e-08 4.15509 134.438)
(3.89147e-08 -5.61663 225.003)
(3.9184e-08 -19.9307 198.709)
(3.99961e-08 -13.0788 137.932)
(4.00512e-08 105.538 157.346)
(4.13828e-08 66.5336 160.366)
(4.21895e-08 55.8465 209.972)
(4.22811e-08 34.9858 248.234)
(4.33876e-08 -104.37 87.1963)
(4.56688e-08 79.5512 -33.9611)
(4.56287e-08 117.352 -164.433)
(1.90639e-08 -311.023 275.698)
(2.75239e-08 -369.939 454.757)
(3.76569e-08 -279.01 390.948)
(3.96441e-08 -236.027 296.927)
(4.13956e-08 -212.283 170.426)
(4.25715e-08 -188.358 84.2167)
(4.32505e-08 -197.75 43.4485)
(4.35391e-08 -214.552 30.4523)
(4.35882e-08 -223.642 42.7503)
(4.35738e-08 -220.258 36.3657)
(4.37099e-08 -194.296 19.2739)
(4.38588e-08 -144.085 64.602)
(4.48364e-08 -160.06 -39.3505)
(4.56502e-08 -86.4592 -93.8264)
(3.78987e-08 40.896 53.8608)
(2.08476e-08 17.0068 -104.564)
(4.46465e-08 25.0271 -166.589)
(4.99535e-08 32.1881 -152.723)
(5.05401e-08 34.9631 -144.193)
(4.93e-08 -13.9609 -168.192)
(4.79618e-08 -29.5081 -192.651)
(4.75494e-08 -7.63413 -108.64)
(4.7596e-08 -79.717 -68.8222)
(4.72044e-08 -52.1139 -36.7442)
(4.63303e-08 -14.3883 1.457)
(4.58772e-08 -21.7253 13.5884)
(4.5971e-08 6.44095 79.0847)
(4.5849e-08 -41.7951 3.60688)
(4.26237e-08 -19.0013 115.818)
(2.39498e-08 83.3397 305.992)
(3.11507e-08 -15.005 -91.5741)
(4.19375e-08 29.5649 -109.078)
(4.74252e-08 94.9154 -108.725)
(4.96914e-08 62.9334 -133.134)
(4.73353e-08 45.1779 -106.281)
(4.51839e-08 75.967 -67.7663)
(4.65586e-08 64.8927 -80.345)
(4.76351e-08 -46.1916 -49.3106)
(4.72074e-08 94.596 283.311)
(4.41705e-08 187.943 400.23)
(4.53448e-08 -7.85069 79.2438)
(4.5865e-08 -51.9464 130.404)
(4.36783e-08 -169.442 147.761)
(4.04982e-08 -83.8087 214.567)
(2.95176e-08 50.7769 243.359)
(2.36326e-08 11.3295 -100.139)
(4.43372e-08 -137.729 -93.9697)
(5.33856e-08 35.358 73.0539)
(5.55928e-08 23.7806 -29.9902)
(5.12673e-08 17.9245 -24.1741)
(4.65307e-08 13.7858 0.055935)
(4.42297e-08 48.3498 4.92031)
(4.41546e-08 48.9237 -3.12958)
(4.47492e-08 18.5944 26.7294)
(4.53065e-08 -19.1988 60.8794)
(4.61158e-08 -42.3713 87.0326)
(4.74168e-08 -37.0943 122.5)
(4.65429e-08 -82.418 181.834)
(4.47941e-08 -80.2449 215.612)
(2.72149e-08 9.54559 116.334)
(2.50243e-08 109.03 -140.432)
(5.18209e-08 -66.1995 28.2012)
(5.85117e-08 -5.85687 246.415)
(6.11813e-08 -8.93153 103.275)
(5.9142e-08 3.64425 13.2395)
(5.65213e-08 -13.618 10.9299)
(5.35182e-08 -33.6974 51.9869)
(5.2315e-08 -50.7869 37.826)
(5.09853e-08 -68.017 12.6161)
(5.00428e-08 -82.5281 -45.3259)
(4.91616e-08 -72.2625 -141.457)
(4.85155e-08 -56.8348 -107.903)
(4.84266e-08 -121.904 -99.6589)
(4.68946e-08 -95.4316 -43.4997)
(3.55354e-08 43.8999 -45.533)
(3.44529e-08 46.7641 0.833636)
(5.09672e-08 -28.7941 -95.2284)
(5.91271e-08 -11.6784 -52.6617)
(6.38479e-08 -35.5552 -17.4629)
(6.54263e-08 -68.492 -60.7063)
(6.41759e-08 -58.1879 -72.132)
(6.31178e-08 -71.9172 -38.9557)
(6.2767e-08 -94.9952 -6.30796)
(6.29676e-08 -100.212 3.05897)
(6.30692e-08 -109.434 -1.18902)
(6.2684e-08 -124.403 18.2071)
(6.12684e-08 -115.73 51.0103)
(5.90244e-08 -71.0516 95.2201)
(5.6686e-08 -156.906 31.1647)
(4.57892e-08 -81.9054 54.2472)
)
;

boundaryField
{
    inletFace
    {
        type            zeroGradient;
    }
    inlet
    {
        type            fixedValue;
        value           uniform (0 8.7 15);
    }
    inletWalls
    {
        type            noSlip;
    }
    outletInlet
    {
        type            zeroGradient;
    }
}


// ************************************************************************* //
