/*--------------------------------*- C++ -*----------------------------------*\
| =========                 |                                                 |
| \\      /  F ield         | OpenFOAM: The Open Source CFD Toolbox           |
|  \\    /   O peration     | Version:  4.1                                   |
|   \\  /    A nd           | Web:      www.OpenFOAM.org                      |
|    \\/     M anipulation  |                                                 |
\*---------------------------------------------------------------------------*/
FoamFile
{
    version     2.0;
    format      ascii;
    class       volScalarField;
    location    "12";
    object      p;
}
// * * * * * * * * * * * * * * * * * * * * * * * * * * * * * * * * * * * * * //

dimensions      [0 2 -2 0 0 0 0];

internalField   nonuniform List<scalar> 
6785
(
592.357
514.141
467.48
414.295
367.74
322.821
280.929
241.201
203.591
168.005
133.759
100.645
72.9489
44.4803
2.78151
-12.1642
-30.5381
-20.5357
-27.9232
-27.2477
-29.7683
-30.3671
-30.8353
-30.271
-28.7669
-26.2933
-22.7959
-17.4028
-12.4059
-10.7649
-9.74795
-15.4361
-7.41676
-13.3038
-10.8794
-13.4944
-14.1899
-16.1952
-18.0235
-20.2579
-22.5316
-24.2919
-24.8764
-25.3109
-24.6374
-9.79233
-13.2134
-10.7138
-16.3847
-15.3495
-19.1492
-20.2371
-22.582
-24.2089
-25.8907
-27.068
-27.6515
-26.4307
-25.3244
-22.9399
-5.50323
-6.55809
-2.89437
-5.10768
-1.2138
-1.73996
0.676115
1.86242
3.75554
5.56976
7.63647
9.56452
11.9749
13.5164
16.2603
20.0094
20.6052
24.1271
23.1286
26.7578
26.8234
29.1002
30.2985
31.8742
33.3098
34.7884
36.1475
37.7611
38.9265
40.6404
42.5288
43.3662
45.7507
44.8953
47.4264
47.1017
48.6022
48.8318
49.4191
49.806
50.3939
51.2145
52.2909
53.0925
54.1522
52.9436
53.5439
55.0691
54.4785
56.3803
56.1339
57.3187
57.4788
57.9907
58.1015
57.9665
57.4735
56.763
56.6942
56.4703
64.0442
62.1993
62.9528
60.9696
61.4266
59.6653
59.0805
57.0007
54.8369
51.7176
48.4154
45.382
43.6284
43.045
40.0981
24.6536
19.2081
18.2012
14.0232
12.2355
8.66649
6.56392
4.00497
2.52706
1.18628
0.477382
0.17559
0.048362
-1.1756
-4.22982
-20.5888
-25.3231
-25.8357
-29.0323
-30.3094
-33.1656
-34.8962
-37.0757
-38.8316
-40.738
-42.4461
-43.7264
-44.7073
-45.3813
-43.4858
-28.2169
-28.6178
-27.9454
-29.0293
-28.5813
-29.4871
-29.6787
-30.2919
-30.5445
-30.6047
-30.0288
-28.8605
-26.6713
-24.6379
-21.1781
3.63893
5.49563
6.759
7.23703
8.58149
9.16956
10.2251
11.1959
12.3932
13.7331
15.3457
17.0037
19.0008
20.5428
22.8282
24.3562
27.3445
27.1385
27.011
27.4046
27.8833
28.8235
29.6696
30.6088
31.465
32.2748
32.8988
33.5424
33.9345
34.5064
71.6846
70.0541
63.9904
56.5353
50.5984
46.4877
42.422
39.1667
36.9896
35.5019
34.1202
33.0105
31.9663
31.0698
29.1603
44.7907
44.7761
46.0001
44.5532
44.6236
44.9647
44.5426
44.1792
44.1065
44.0665
43.8761
43.3211
43.4845
43.2419
42.7342
42.5869
42.7954
42.6788
42.0278
42.3698
42.2489
41.7953
41.6912
41.9532
41.906
41.5162
41.4422
41.6284
41.7261
41.3326
41.5033
41.6315
41.3786
41.3392
41.4391
41.5881
41.3781
41.4217
41.5905
41.4632
41.4388
41.454
41.5673
41.4857
41.4605
41.4654
41.4817
41.4071
41.3888
41.3612
41.3222
41.2932
41.2966
41.3161
41.3027
41.2888
41.2995
41.2943
41.2989
41.2491
41.4028
41.3701
41.4957
41.4199
41.4819
41.8447
42.2603
40.8457
39.6834
41.061
41.8932
35.4308
32.6857
36.2254
37.9357
18.7429
27.934
31.3556
-4.63057
7.14863
12.6759
10.528
14.2265
4.23127
8.9057
12.7503
13.1205
13.8913
14.6113
15.2805
15.9777
19.0213
16.6322
15.6077
18.1806
19.967
22.2038
23.5486
24.9062
25.8625
28.5723
32.008
27.8381
30.6301
31.1861
33.1091
35.7665
37.4838
38.0743
38.6494
38.8929
47.279
40.9976
42.4351
42.3772
42.3812
43.6097
45.7267
45.8146
43.1485
49.2058
46.9548
49.0541
49.1958
48.3382
47.503
46.5053
48.1127
44.8639
49.9245
52.5514
49.6288
50.1774
50.2872
47.9968
46.2326
44.2959
37.5889
48.3073
50.4294
44.0993
40.8999
36.2656
33.3348
29.9743
26.7683
23.6957
17.4964
15.5957
23.7768
17.9078
16.4641
14.0246
10.9243
3.79751
1.64653
3.69508
-8.7005
8.60159
4.55405
1.6289
10.2508
2.6589
6.6158
5.02614
7.53512
11.0088
5.6111
8.73294
10.9983
7.23759
8.75816
7.69027
8.84762
11.2433
7.57882
8.87293
7.74485
8.84417
11.1295
6.82963
8.91067
10.8113
7.27011
8.41902
7.2619
8.23758
10.7596
6.69671
7.99727
6.63152
7.84427
10.4745
5.35531
7.79328
9.96215
5.75526
7.11482
5.67641
6.86623
9.58643
5.02416
6.53084
4.95708
6.34629
8.91783
3.71186
6.22468
8.16702
4.17809
5.50819
4.15574
5.26449
7.5056
3.61254
4.91184
3.59526
4.71825
6.60589
2.61613
4.50025
5.75824
2.87167
3.79801
2.81127
3.53715
4.7945
2.24007
3.01775
2.12234
2.73689
3.54288
1.21701
2.15355
2.47308
0.848446
1.19096
0.492682
0.702689
1.40345
0.000541007
0.000922879
0.00153451
0.0019747
0.00249865
0.00297689
0.00348739
0.00398992
0.00450917
0.00503316
0.00557023
0.00611734
0.00667771
0.00725091
0.0078382
0.00843933
0.00905398
0.00968055
0.0103164
0.010957
0.0115961
0.0122251
0.0128335
0.0134088
0.0139377
0.0144073
0.014807
0.0151307
0.0153783
0.015557
0.0156817
0.015774
0.0158593
0.0159625
0.0161023
0.0162875
0.0165196
0.0168041
0.0171691
0.0176786
0.0184226
0.0194792
0.0208564
0.0224331
0.0239724
0.0252498
0.0260571
0.0261992
0.0255895
0.0241479
0.0218181
0.0184822
0.0138852
0.0076311
-0.000782341
-0.011883
-0.0256228
-0.0427828
-0.0615443
-0.0790747
-0.126001
-0.210713
-0.356507
-0.458251
-0.586893
-0.709482
-0.770377
-0.770187
-0.704777
-0.585659
-0.415095
-0.261794
-0.0681806
0.011874
0.18893
0.145474
0.236546
0.370283
-0.237537
0.00156306
0.00264189
0.0043647
0.00563916
0.00711281
0.00846761
0.00989458
0.0112983
0.0127381
0.014187
0.0156649
0.0171655
0.0186968
0.0202581
0.0218524
0.0234791
0.0251367
0.0268203
0.0285218
0.0302282
0.0319209
0.0335751
0.0351603
0.0366409
0.0379791
0.0391387
0.040091
0.0408197
0.0413268
0.0416356
0.0417914
0.0418583
0.0419118
0.0420249
0.0422521
0.0426192
0.0431303
0.0438013
0.0447145
0.0460574
0.0480931
0.0510545
0.0549757
0.0595255
0.064051
0.0679635
0.0707394
0.0719111
0.071347
0.0689522
0.0647282
0.0585181
0.0497737
0.0374975
0.020253
-0.00373175
-0.0350551
-0.0775284
-0.128362
-0.184873
-0.330438
-0.432073
-0.699311
-0.882772
-1.1326
-1.37156
-1.49127
-1.48766
-1.36691
-1.1368
-0.835877
-0.535317
-0.212075
0.0165241
0.275391
0.382113
0.547006
0.712227
0.698431
0.00243653
0.00426543
0.00719968
0.00935782
0.0118606
0.0141575
0.0165795
0.0189614
0.0214064
0.0238673
0.0263788
0.0289301
0.0315346
0.0341916
0.0369063
0.0396775
0.0425032
0.0453755
0.0482807
0.0511974
0.0540944
0.0569306
0.0596544
0.062206
0.0645217
0.0665403
0.0682127
0.069511
0.0704375
0.0710304
0.0713649
0.0715483
0.0717069
0.0719633
0.0724088
0.073086
0.0740001
0.0751756
0.0767487
0.0790349
0.0824789
0.0874757
0.0940831
0.101735
0.109316
0.115819
0.120331
0.122036
0.12067
0.116027
0.108055
0.0964173
0.0801111
0.0573652
0.0256769
-0.0179337
-0.0744694
-0.149953
-0.23845
-0.335568
-0.566769
-0.589461
-0.914634
-1.10839
-1.41615
-1.70932
-1.85245
-1.84117
-1.68813
-1.39885
-1.03011
-0.657742
-0.269086
0.0239818
0.330002
0.485712
0.71837
0.824853
1.1013
0.00327382
0.00584294
0.00993725
0.0129684
0.016467
0.0196825
0.0230662
0.0263943
0.0298072
0.0332415
0.0367445
0.040302
0.0439325
0.0476351
0.0514171
0.0552771
0.0592122
0.0632115
0.0672561
0.0713159
0.0753478
0.0792941
0.083083
0.0866308
0.0898482
0.0926498
0.0949664
0.0967592
0.0980311
0.0988358
0.0992786
0.0995101
0.099708
0.100045
0.100648
0.101577
0.102835
0.104453
0.106618
0.109774
0.114552
0.121516
0.130759
0.141484
0.15212
0.161265
0.167641
0.17012
0.168347
0.162053
0.151192
0.135315
0.113028
0.0818205
0.0380982
-0.0224235
-0.101517
-0.207879
-0.332857
-0.472128
-0.772782
-0.737951
-1.16388
-1.39949
-1.78184
-2.14493
-2.31848
-2.29808
-2.10374
-1.73913
-1.27947
-0.815029
-0.33436
0.0315131
0.409551
0.599883
0.909779
0.995475
1.32304
0.00403141
0.00736457
0.0126241
0.0165443
0.021052
0.0252012
0.0295607
0.0338498
0.0382453
0.0426682
0.0471782
0.051758
0.056431
0.0611966
0.0660641
0.071032
0.0760968
0.0812446
0.0864515
0.0916791
0.096872
0.101956
0.10684
0.111415
0.115565
0.119182
0.122174
0.124491
0.126136
0.127178
0.127752
0.128052
0.128309
0.128746
0.129528
0.130729
0.13235
0.134421
0.137179
0.141198
0.147304
0.156247
0.168164
0.18202
0.195761
0.207585
0.21582
0.219015
0.216711
0.208565
0.19453
0.174032
0.145257
0.104905
0.0482143
-0.0304363
-0.133719
-0.272837
-0.435727
-0.61868
-0.971729
-0.885539
-1.43586
-1.7181
-2.18536
-2.62661
-2.83353
-2.8018
-2.5623
-2.1141
-1.55645
-0.989937
-0.411451
0.040303
0.490523
0.73345
1.11777
1.18314
1.73294
0.0047409
0.00884823
0.0152468
0.0200592
0.0255666
0.0306466
0.0359742
0.0412176
0.0465869
0.0519893
0.057496
0.0630869
0.0687904
0.0746062
0.0805456
0.0866073
0.092787
0.0990682
0.105422
0.111802
0.11814
0.124347
0.13031
0.135897
0.140965
0.145381
0.149032
0.151855
0.153855
0.155113
0.155796
0.156143
0.156437
0.156955
0.1579
0.159359
0.161326
0.163825
0.167139
0.171976
0.179368
0.190267
0.204871
0.221899
0.238795
0.253358
0.263516
0.267505
0.264771
0.254917
0.237928
0.213132
0.178316
0.129371
0.0603079
-0.0358732
-0.16298
-0.334715
-0.53539
-0.76424
-1.16364
-1.04091
-1.73357
-2.0333
-2.5844
-3.10099
-3.337
-3.28984
-3.00422
-2.47196
-1.81933
-1.15331
-0.481985
0.0537845
0.570204
0.865463
1.31894
1.3679
2.01766
0.00539712
0.0102974
0.0178178
0.0235308
0.0300365
0.0360518
0.0423484
0.0485488
0.0548927
0.0612759
0.0677796
0.0743822
0.0811164
0.0879826
0.0949941
0.10215
0.109445
0.116861
0.124363
0.131897
0.139385
0.146719
0.153767
0.160372
0.166366
0.171587
0.175902
0.179235
0.18159
0.183062
0.18385
0.184238
0.184564
0.185159
0.186266
0.187985
0.190295
0.19321
0.197052
0.202667
0.211307
0.224153
0.241479
0.26175
0.28187
0.299245
0.311375
0.316183
0.313022
0.301452
0.281514
0.252453
0.211666
0.154196
0.072769
-0.0410108
-0.192257
-0.396941
-0.635448
-0.91298
-1.35734
-1.21304
-2.07368
-2.36304
-2.99957
-3.59275
-3.85453
-3.7871
-3.45222
-2.83167
-2.08192
-1.31434
-0.549445
0.0709382
0.652475
0.998777
1.51719
1.54704
2.30724
0.00601061
0.0117198
0.0203375
0.0269567
0.0344538
0.0414053
0.0486672
0.0558223
0.0631371
0.0704972
0.0779933
0.0856025
0.0933617
0.101272
0.10935
0.117593
0.125998
0.134542
0.143187
0.151871
0.160504
0.168962
0.177092
0.184713
0.19163
0.197654
0.202629
0.206466
0.209167
0.210842
0.21172
0.212132
0.212473
0.213132
0.214393
0.216365
0.21901
0.222321
0.226652
0.23299
0.24283
0.257605
0.277692
0.301284
0.324713
0.344986
0.359156
0.364834
0.361291
0.348059
0.325272
0.292125
0.245638
0.179983
0.0865492
-0.0444474
-0.219585
-0.456788
-0.732559
-1.06136
-1.54133
-1.41856
-2.43431
-2.71239
-3.43846
-4.11254
-4.39624
-4.30264
-3.91435
-3.19952
-2.3492
-1.4763
-0.616167
0.0918341
0.737073
1.13732
1.7157
1.72401
2.60632
0.00658386
0.0131198
0.0228115
0.0303432
0.038826
0.0467155
0.05494
0.0630494
0.0713326
0.0796676
0.0881531
0.096766
0.105547
0.114499
0.123638
0.132966
0.142476
0.152146
0.161932
0.171764
0.181541
0.191124
0.200339
0.20898
0.216823
0.223652
0.229288
0.233627
0.236667
0.238536
0.239491
0.239912
0.240255
0.240967
0.242375
0.244599
0.247573
0.251258
0.256035
0.263038
0.274021
0.290708
0.313607
0.340618
0.367453
0.390728
0.407008
0.413603
0.409701
0.394829
0.369253
0.332147
0.280181
0.206623
0.101492
-0.0463376
-0.245013
-0.513963
-0.826246
-1.20797
-1.70991
-1.66258
-2.78739
-3.07873
-3.90027
-4.66132
-4.9612
-4.83369
-4.38728
-3.5718
-2.61794
-1.63649
-0.680499
0.117593
0.823842
1.28133
1.91313
1.91971
2.84238
0.00712207
0.0145022
0.0252429
0.0336922
0.0431532
0.0519814
0.0611648
0.0702267
0.0794747
0.0887814
0.0982522
0.107864
0.117662
0.12765
0.137847
0.148254
0.158865
0.169655
0.180578
0.191556
0.202477
0.213185
0.223486
0.233148
0.241919
0.249555
0.255851
0.260687
0.264059
0.266108
0.267125
0.267537
0.267862
0.268612
0.27016
0.272632
0.275929
0.279966
0.28514
0.292736
0.304795
0.323373
0.349142
0.379688
0.410044
0.436437
0.454907
0.462472
0.458241
0.441757
0.413463
0.372559
0.315387
0.234291
0.117909
-0.0461386
-0.267627
-0.566986
-0.914904
-1.35008
-1.86047
-1.94018
-3.1108
-3.46219
-4.3879
-5.24518
-5.55425
-5.38287
-4.87255
-3.94898
-2.88808
-1.79454
-0.741895
0.148848
0.913039
1.43138
2.10916
2.10726
3.09821
0.00762852
0.0158705
0.0276355
0.0370075
0.0474388
0.0572063
0.0673447
0.0773575
0.0875667
0.0978418
0.108294
0.118901
0.129711
0.14073
0.151979
0.163461
0.175169
0.187077
0.199134
0.211256
0.223319
0.235154
0.246543
0.25723
0.266934
0.275378
0.282335
0.287665
0.291362
0.293578
0.294638
0.29502
0.295308
0.296082
0.297762
0.300481
0.304095
0.30846
0.313975
0.322084
0.335142
0.355585
0.384294
0.418505
0.452513
0.482158
0.502908
0.511496
0.506955
0.488874
0.457918
0.41336
0.351249
0.26299
0.135862
-0.0436475
-0.28695
-0.61499
-0.997787
-1.48551
-1.99632
-2.25853
-3.39235
-3.8648
-4.90476
-5.87171
-6.18221
-5.95441
-5.37299
-4.33255
-3.16045
-1.95063
-0.800247
0.186003
1.00511
1.58809
2.30462
2.2865
3.37763
0.00810666
0.0172278
0.0299923
0.0402916
0.0516848
0.0623916
0.0734804
0.0844417
0.095608
0.106848
0.118277
0.129875
0.141692
0.153737
0.166033
0.178584
0.191384
0.204405
0.217593
0.230858
0.244064
0.257026
0.269507
0.281224
0.291863
0.301121
0.308738
0.314558
0.31857
0.32094
0.322023
0.322352
0.32258
0.323359
0.325163
0.328128
0.332055
0.336723
0.342518
0.351048
0.365014
0.387292
0.419022
0.457049
0.494857
0.527902
0.551027
0.560696
0.555861
0.536185
0.502608
0.454525
0.387732
0.2927
0.155402
-0.0386549
-0.302499
-0.657226
-1.07423
-1.61219
-2.12939
-2.63957
-3.62963
-4.2939
-5.45413
-6.54798
-6.85172
-6.55206
-5.89064
-4.72315
-3.43513
-2.10445
-0.855249
0.229871
1.09983
1.7532
2.49944
2.49616
3.60899
0.00855929
0.0185768
0.0323165
0.0435472
0.0558933
0.0675393
0.0795735
0.0914808
0.1036
0.115801
0.128201
0.140785
0.153604
0.16667
0.180008
0.193623
0.20751
0.22164
0.235957
0.250362
0.264711
0.278804
0.292381
0.305132
0.316713
0.326787
0.335066
0.341373
0.345691
0.348198
0.349282
0.349532
0.349674
0.350441
0.352361
0.355573
0.359811
0.364755
0.370763
0.379609
0.394377
0.418453
0.453296
0.49531
0.537083
0.573695
0.5993
0.610109
0.604982
0.583691
0.547491
0.49596
0.424692
0.323239
0.176365
-0.0312431
-0.31419
-0.693559
-1.14408
-1.72947
-2.27444
-3.07743
-3.81582
-4.75147
-6.0393
-7.28171
-7.57021
-7.18035
-6.42785
-5.12146
-3.71221
-2.25569
-0.906041
0.280555
1.19876
1.92622
2.69342
2.68336
3.8573
0.00898896
0.0199196
0.0346108
0.0467767
0.0600664
0.0726507
0.0856251
0.0984755
0.111543
0.1247
0.138067
0.151631
0.165447
0.179528
0.193901
0.208575
0.223544
0.23878
0.254222
0.269767
0.28526
0.300485
0.315163
0.328954
0.341484
0.352379
0.361322
0.368112
0.372725
0.375352
0.376413
0.376555
0.376584
0.377316
0.379344
0.382806
0.387357
0.39255
0.398696
0.407739
0.423186
0.449018
0.487079
0.53327
0.579194
0.619556
0.647754
0.659761
0.65433
0.63136
0.592465
0.537464
0.461823
0.35422
0.19833
-0.0218083
-0.322348
-0.724434
-1.20775
-1.83843
-2.43381
-3.48318
-3.93348
-5.23283
-6.66348
-8.08134
-8.34606
-7.84469
-6.98768
-5.52839
-3.99197
-2.40476
-0.951082
0.336677
1.30633
2.1062
2.88725
2.89013
4.11274
0.00939787
0.0212582
0.0368778
0.0499823
0.0642061
0.0777277
0.0916366
0.105427
0.119437
0.133546
0.147874
0.162413
0.177219
0.192309
0.207713
0.22344
0.239486
0.255823
0.272387
0.28907
0.305708
0.32207
0.337854
0.352693
0.366179
0.377901
0.387509
0.394779
0.399677
0.402405
0.403417
0.40342
0.403304
0.403978
0.406105
0.409824
0.41469
0.420107
0.42631
0.435415
0.451398
0.478932
0.520333
0.570914
0.621195
0.66551
0.69642
0.709679
0.703895
0.679105
0.637316
0.578665
0.498584
0.384953
0.220527
-0.0111475
-0.327792
-0.750922
-1.26639
-1.94136
-2.60024
-3.75883
-4.03088
-5.76241
-7.33051
-8.95595
-9.18823
-8.55107
-7.57374
-5.94501
-4.27474
-2.55225
-0.989484
0.397869
1.42435
2.29365
3.08082
3.0909
4.32166
0.00978797
0.0225942
0.03912
0.053166
0.0683142
0.0827716
0.097609
0.112335
0.127283
0.142339
0.157623
0.173131
0.188921
0.205014
0.221442
0.238215
0.255334
0.272767
0.29045
0.308271
0.326055
0.343557
0.360453
0.376349
0.390799
0.403355
0.413631
0.421377
0.426549
0.429358
0.430293
0.430122
0.429825
0.430417
0.432635
0.436618
0.441809
0.447425
0.453596
0.462611
0.478965
0.508136
0.553014
0.608222
0.66309
0.71158
0.745327
0.759873
0.753618
0.726733
0.681653
0.618941
0.53412
0.414405
0.241841
-0.000400986
-0.331732
-0.774556
-1.32176
-2.0413
-2.77339
-3.96508
-4.17442
-6.29984
-8.04729
-9.91557
-10.1062
-9.30592
-8.19029
-6.37251
-4.5608
-2.6979
-1.0209
0.464981
1.55268
2.48729
3.27797
3.28425
4.60171
0.0101609
0.023929
0.0413395
0.0563298
0.0723925
0.0877837
0.103543
0.119202
0.135081
0.151079
0.167312
0.183783
0.200551
0.21764
0.235085
0.2529
0.271084
0.28961
0.30841
0.327367
0.346299
0.364945
0.382961
0.399922
0.415346
0.428744
0.439692
0.447911
0.453345
0.456214
0.45704
0.456657
0.456142
0.456622
0.458923
0.463183
0.468713
0.474505
0.480549
0.489302
0.505833
0.536566
0.585077
0.645175
0.704884
0.757789
0.794494
0.810314
0.803342
0.773877
0.724839
0.657356
0.567229
0.44123
0.260911
0.00907921
-0.335612
-0.797124
-1.37607
-2.14201
-2.95656
-4.15924
-4.45522
-6.83069
-8.83374
-10.9715
-11.1097
-10.116
-8.84217
-6.81257
-4.85028
-2.8412
-1.04486
0.538675
1.6919
2.68661
3.48252
3.51268
4.8621
0.0105182
0.0252639
0.0435383
0.0594752
0.0764424
0.0927653
0.109441
0.126027
0.142832
0.159765
0.176942
0.194369
0.212108
0.230187
0.248642
0.267492
0.286736
0.306349
0.326263
0.346356
0.366437
0.386233
0.405377
0.423413
0.439822
0.454071
0.465696
0.474385
0.480068
0.482973
0.483657
0.483021
0.482245
0.482582
0.484959
0.489513
0.495402
0.50135
0.507164
0.515462
0.531947
0.56415
0.616473
0.681751
0.746583
0.804157
0.843911
0.860887
0.852739
0.819913
0.765914
0.692625
0.596417
0.463913
0.276318
0.0159348
-0.340875
-0.820393
-1.4316
-2.24705
-3.15193
-4.38001
-4.93611
-7.39405
-9.72131
-12.1355
-12.2085
-10.9881
-9.53465
-7.26732
-5.14347
-2.98179
-1.06082
0.61953
1.84266
2.89239
3.6947
3.73321
5.07312
0.010861
0.0266
0.0457182
0.0626039
0.0804656
0.0977176
0.115302
0.132811
0.150535
0.168399
0.186512
0.204889
0.223591
0.242652
0.262111
0.281988
0.302287
0.322983
0.344007
0.365234
0.386468
0.407419
0.4277
0.446822
0.464228
0.479339
0.491645
0.500801
0.506722
0.509639
0.510145
0.509209
0.508125
0.508285
0.51073
0.5156
0.521878
0.527967
0.533441
0.541067
0.557244
0.590807
0.647147
0.717926
0.788191
0.850682
0.893498
0.911312
0.901216
0.863885
0.803568
0.723182
0.620071
0.481008
0.286811
0.0190125
-0.348746
-0.845866
-1.49039
-2.35938
-3.36135
-4.65776
-5.64948
-7.97815
-10.7206
-13.4196
-13.4116
-11.9289
-10.2733
-7.73902
-5.44079
-3.1193
-1.06829
0.708239
2.00546
3.10502
3.91548
3.94614
5.3599
0.0111904
0.0279382
0.047881
0.0657173
0.0844633
0.102641
0.121127
0.139555
0.158192
0.176979
0.196021
0.215341
0.234999
0.255035
0.27549
0.296388
0.317735
0.339508
0.361639
0.384001
0.406389
0.428501
0.449928
0.47015
0.488565
0.504549
0.517543
0.527165
0.533309
0.536213
0.536502
0.535217
0.533774
0.533719
0.536224
0.541439
0.548143
0.554363
0.559382
0.566092
0.581658
0.616451
0.677043
0.753674
0.829701
0.89731
0.943025
0.961042
0.947826
0.904465
0.836201
0.747367
0.636739
0.491386
0.291511
0.0175406
-0.360053
-0.874598
-1.55392
-2.48113
-3.58685
-5.00237
-6.50029
-8.51956
-11.818
-14.8346
-14.7286
-12.9451
-11.0638
-8.22991
-5.74279
-3.2533
-1.06676
0.80555
2.18076
3.32532
4.14613
4.21188
5.633
0.0115072
0.0292795
0.050028
0.0688166
0.0884369
0.107538
0.126918
0.146258
0.165801
0.185505
0.205469
0.225724
0.246331
0.267334
0.288777
0.310688
0.333077
0.355921
0.379156
0.402651
0.426196
0.449477
0.47206
0.493395
0.512836
0.529706
0.543394
0.55348
0.559835
0.562699
0.562728
0.56104
0.559181
0.558868
0.561426
0.567021
0.574201
0.580552
0.584992
0.590513
0.605115
0.640986
0.706101
0.788962
0.871073
0.943866
0.992007
1.00915
0.991202
0.939993
0.86212
0.763744
0.645406
0.494423
0.290037
0.0112385
-0.375127
-0.907099
-1.62301
-2.61352
-3.83024
-5.40514
-7.32354
-9.05643
-13.0654
-16.3944
-16.1702
-14.0428
-11.9119
-8.74215
-6.05024
-3.38338
-1.05574
0.912226
2.36898
3.55348
4.38567
4.44906
5.84923
0.0118123
0.0306245
0.0521608
0.071903
0.0923875
0.112408
0.132675
0.152922
0.173363
0.193978
0.214856
0.236038
0.257585
0.279547
0.30197
0.324886
0.348309
0.372221
0.396555
0.421183
0.445888
0.470343
0.494095
0.516557
0.53704
0.55481
0.569202
0.579751
0.586302
0.589097
0.588823
0.586673
0.584335
0.583717
0.586321
0.592339
0.60006
0.606549
0.610283
0.614307
0.627534
0.664304
0.734254
0.823732
0.912178
0.989941
1.03957
1.05424
1.02957
0.968673
0.879895
0.771407
0.645665
0.490081
0.282554
0.000342541
-0.393793
-0.943322
-1.69775
-2.75675
-4.09241
-5.85705
-8.1016
-9.69337
-14.5158
-18.1221
-17.7486
-15.2277
-12.8232
-9.27776
-6.36415
-3.50911
-1.03474
1.02904
2.5705
3.78982
4.63636
4.71862
6.14483
0.0121061
0.031974
0.0542805
0.0749776
0.096316
0.117252
0.138398
0.159546
0.180878
0.202395
0.22418
0.246281
0.26876
0.291672
0.315066
0.33898
0.36343
0.388402
0.413833
0.439593
0.46546
0.491097
0.516029
0.539636
0.561178
0.579865
0.594971
0.605981
0.612716
0.615412
0.614786
0.612111
0.609223
0.608247
0.61089
0.617384
0.625725
0.632374
0.635271
0.637453
0.648827
0.686288
0.761422
0.85787
0.952701
1.03475
1.08432
1.09441
1.06093
0.988971
0.888707
0.770146
0.637753
0.478887
0.269731
-0.0144492
-0.415425
-0.982723
-1.77758
-2.9101
-4.37332
-6.35528
-8.89051
-10.5596
-16.1474
-20.0532
-19.4747
-16.5042
-13.8023
-9.83844
-6.68572
-3.6301
-1.00325
1.15679
2.78571
4.03482
4.898
4.98026
6.34517
0.0123891
0.0333288
0.0563881
0.0780411
0.100223
0.12207
0.144087
0.16613
0.188345
0.210758
0.23344
0.256452
0.279854
0.303707
0.328064
0.352967
0.378437
0.404463
0.430985
0.457875
0.484908
0.511736
0.537861
0.56263
0.585251
0.604872
0.620703
0.632175
0.639079
0.641646
0.640618
0.637348
0.633834
0.63244
0.635115
0.642146
0.651205
0.658051
0.659978
0.659935
0.668899
0.706803
0.787491
0.891126
0.992007
1.07702
1.12432
1.12737
1.08346
1.00005
0.888541
0.760433
0.622462
0.461828
0.252628
-0.0320988
-0.439063
-1.02436
-1.86143
-3.07206
-4.67197
-6.89755
-9.71267
-11.7021
-17.9553
-22.2245
-21.3599
-17.8751
-14.8527
-10.4257
-7.01601
-3.74596
-0.960818
1.29623
3.01492
4.28876
5.17172
5.23595
6.63562
0.0126617
0.0346894
0.0584848
0.0810946
0.104111
0.126864
0.149744
0.172674
0.195765
0.219065
0.242636
0.26655
0.290865
0.315651
0.340961
0.366844
0.393325
0.420398
0.448008
0.476027
0.504229
0.532255
0.559588
0.585537
0.609259
0.629834
0.646402
0.658339
0.665398
0.667804
0.666319
0.662379
0.658152
0.656274
0.658972
0.666616
0.676513
0.683611
0.684435
0.681738
0.68764
0.725688
0.812265
0.923001
1.029
1.11486
1.15702
1.15087
1.09609
1.00201
0.880124
0.743269
0.600983
0.440201
0.232539
-0.0513804
-0.463546
-1.067
-1.94774
-3.24041
-4.98635
-7.47987
-10.5764
-13.139
-19.9219
-24.674
-23.4178
-19.342
-15.9769
-11.0405
-7.35553
-3.85636
-0.906966
1.44811
3.25843
4.55237
5.45884
5.54479
6.92037
0.012924
0.0360565
0.0605712
0.0841387
0.107978
0.131634
0.155368
0.179179
0.203136
0.227315
0.251767
0.276573
0.301793
0.3275
0.353754
0.380607
0.408091
0.436205
0.464897
0.494044
0.523417
0.55265
0.581206
0.608356
0.633202
0.654753
0.672073
0.684475
0.691676
0.693887
0.69189
0.687197
0.682164
0.679726
0.682437
0.69078
0.70166
0.70909
0.708685
0.702855
0.704927
0.742728
0.835381
0.95261
1.06203
1.14567
1.17966
1.16339
1.09892
0.995823
0.864701
0.719977
0.574716
0.415418
0.210817
-0.0710187
-0.487607
-1.10921
-2.03464
-3.41237
-5.31333
-8.09459
-11.4825
-14.8888
-22.035
-27.4557
-25.667
-20.9059
-17.1758
-11.6835
-7.70436
-3.96101
-0.841253
1.61312
3.5165
4.82605
5.75794
5.83099
7.1172
0.0131761
0.0374305
0.0626482
0.087174
0.111827
0.136379
0.160959
0.185644
0.210459
0.235508
0.260831
0.28652
0.312634
0.339254
0.36644
0.394255
0.422732
0.451878
0.481648
0.511921
0.542468
0.572917
0.602711
0.631084
0.657079
0.67963
0.697719
0.71059
0.71792
0.719902
0.717332
0.711798
0.705852
0.702767
0.70548
0.714624
0.72666
0.734532
0.732779
0.723279
0.720607
0.757606
0.856188
0.97864
1.08877
1.16631
1.19004
1.16478
1.09308
0.983007
0.843769
0.691974
0.545074
0.388851
0.188754
-0.0897704
-0.509918
-1.14935
-2.11986
-3.58455
-5.6483
-8.72864
-12.4261
-16.968
-24.2717
-30.6368
-28.1313
-22.568
-18.4492
-12.3538
-8.06217
-4.0596
-0.763232
1.79189
3.78932
5.11003
6.07043
6.10615
7.40364
0.013418
0.0388123
0.0647165
0.090201
0.115657
0.141101
0.166518
0.192068
0.217732
0.243643
0.269827
0.296389
0.323387
0.350908
0.379017
0.407782
0.437244
0.467414
0.498255
0.529651
0.561376
0.59305
0.624098
0.653718
0.68089
0.704467
0.723342
0.736687
0.744133
0.745853
0.742645
0.736174
0.7292
0.72537
0.728069
0.738132
0.75153
0.759988
0.756786
0.74301
0.734475
0.76981
0.873727
0.999312
1.10605
1.17374
1.1875
1.1563
1.08039
0.965292
0.818841
0.660591
0.513327
0.36171
0.167512
-0.106436
-0.529083
-1.18562
-2.20085
-3.75307
-5.98497
-9.36362
-13.3981
-19.3288
-26.5256
-34.2533
-30.8359
-24.3292
-19.7955
-13.0494
-8.42809
-4.15156
-0.672413
1.98499
4.07708
5.40523
6.39813
6.44626
7.70189
0.0136497
0.0402021
0.0667764
0.0932203
0.119469
0.145798
0.172044
0.198452
0.224955
0.251718
0.278753
0.306179
0.334049
0.362461
0.391482
0.421187
0.451622
0.482808
0.514714
0.54723
0.580134
0.613043
0.645363
0.676254
0.704634
0.729265
0.748947
0.762773
0.770322
0.771743
0.767833
0.760322
0.752189
0.747501
0.750168
0.761283
0.77629
0.78552
0.780788
0.762034
0.746203
0.778593
0.886885
1.01206
1.11015
1.16641
1.17324
1.14007
1.06285
0.944359
0.791262
0.626925
0.480517
0.33501
0.148144
-0.119816
-0.543602
-1.21604
-2.27483
-3.91368
-6.31574
-9.97989
-14.3957
-21.7937
-28.6812
-38.3207
-33.8015
-26.1906
-21.2116
-13.7669
-8.80071
-4.23597
-0.568207
2.19295
4.37985
5.71217
6.73779
6.74953
7.88499
0.0138708
0.0416007
0.0688286
0.0962322
0.123263
0.150472
0.177536
0.204794
0.232128
0.259733
0.287609
0.315886
0.344619
0.37391
0.403831
0.434464
0.465862
0.498055
0.531018
0.564652
0.598737
0.63289
0.6665
0.698689
0.728308
0.754025
0.774538
0.78885
0.796493
0.797581
0.792898
0.784234
0.774798
0.769123
0.771733
0.784057
0.800958
0.811194
0.804876
0.780283
0.755243
0.783209
0.894316
1.01312
1.09821
1.14512
1.14976
1.11846
1.04234
0.921667
0.762101
0.591781
0.447435
0.309605
0.13166
-0.128658
-0.551883
-1.23859
-2.33901
-4.0622
-6.63274
-10.5628
-15.4187
-24.1308
-30.8389
-42.9504
-37.045
-28.1522
-22.6937
-14.5015
-9.17798
-4.31145
-0.449834
2.41627
4.69766
6.03111
7.09227
7.08718
8.20408
0.0140812
0.0430085
0.0708732
0.0992369
0.127039
0.155122
0.182996
0.211094
0.239248
0.267686
0.296392
0.32551
0.355093
0.385252
0.416061
0.44761
0.47996
0.513149
0.547162
0.581909
0.617178
0.652583
0.687503
0.721018
0.751911
0.778749
0.800117
0.814926
0.822651
0.82337
0.817843
0.807907
0.797008
0.790198
0.792717
0.806426
0.825556
0.837086
0.829128
0.797507
0.760924
0.783396
0.893543
0.99827
1.07002
1.11268
1.1199
1.09363
1.02048
0.898376
0.732118
0.555677
0.414681
0.286268
0.119095
-0.131644
-0.552331
-1.25142
-2.39105
-4.19522
-6.92924
-11.1026
-16.4648
-26.2674
-33.202
-48.2381
-40.5829
-30.2113
-24.2374
-15.2475
-9.55714
-4.37613
-0.316233
2.65548
5.0305
6.3627
7.46034
7.4111
8.41191
0.0142805
0.0444261
0.0729107
0.102235
0.130798
0.159748
0.188422
0.217351
0.246316
0.275575
0.305101
0.335049
0.36547
0.396483
0.428168
0.460621
0.493911
0.528085
0.56314
0.598995
0.635448
0.672116
0.708364
0.743236
0.77544
0.803436
0.825687
0.841004
0.848802
0.849119
0.842674
0.831336
0.818795
0.810679
0.813067
0.828361
0.850105
0.863257
0.853515
0.813084
0.763114
0.778953
0.880178
0.965229
1.02834
1.07253
1.08621
1.06735
0.998527
0.875343
0.70179
0.518895
0.382737
0.265768
0.111538
-0.127464
-0.543584
-1.25333
-2.42975
-4.31119
-7.20129
-11.5965
-17.5375
-28.2314
-35.9724
-54.1019
-44.4312
-32.3608
-25.838
-15.9984
-9.9344
-4.42758
-0.165964
2.91122
5.37827
6.70722
7.84249
7.73182
8.71334
0.0144682
0.045854
0.0749411
0.105226
0.134539
0.16435
0.193813
0.223565
0.253329
0.2834
0.313734
0.344499
0.375747
0.407602
0.44015
0.473493
0.50771
0.542857
0.578944
0.615902
0.653539
0.691479
0.729075
0.765336
0.798891
0.828087
0.851251
0.867089
0.874954
0.874835
0.867395
0.854517
0.840136
0.830518
0.832719
0.849823
0.874614
0.889718
0.877646
0.826135
0.762783
0.767537
0.849488
0.91538
0.977434
1.0277
1.05072
1.041
0.977434
0.853185
0.671383
0.481557
0.352038
0.2489
0.110086
-0.115
-0.524911
-1.24437
-2.45598
-4.41162
-7.44921
-12.0493
-18.6422
-30.0353
-39.2268
-60.464
-48.6023
-34.5898
-27.4897
-16.7475
-10.3048
-4.46285
0.0028391
3.1843
5.74084
7.06508
8.23991
8.10948
9.02237
0.0146438
0.0472928
0.0769647
0.10821
0.138262
0.168926
0.199169
0.229734
0.260288
0.291159
0.322289
0.353859
0.38592
0.418604
0.452
0.486221
0.521351
0.55746
0.594568
0.632622
0.671443
0.710663
0.749629
0.787311
0.822262
0.852701
0.876812
0.893186
0.901112
0.900525
0.892014
0.877449
0.861007
0.84966
0.851605
0.870765
0.899062
0.916258
0.900435
0.83661
0.760933
0.744528
0.801016
0.853113
0.921256
0.980492
1.01492
1.01559
0.957929
0.832358
0.641009
0.443668
0.323004
0.236468
0.115717
-0.0936644
-0.496813
-1.22667
-2.47363
-4.50206
-7.67815
-12.4726
-19.7829
-31.6885
-43.0638
-67.2302
-53.1004
-36.884
-29.1853
-17.4876
-10.6624
-4.47855
0.192471
3.47579
6.11808
7.43641
8.64961
8.46093
9.24288
0.0148066
0.0487429
0.0789813
0.111187
0.141967
0.173478
0.20449
0.235858
0.267189
0.298849
0.330763
0.363127
0.395987
0.429486
0.463717
0.4988
0.534829
0.571886
0.610004
0.649146
0.689151
0.729659
0.770014
0.809155
0.845547
0.877278
0.902372
0.919299
0.927282
0.926198
0.916539
0.900129
0.881383
0.868046
0.86964
0.891115
0.923327
0.942043
0.920396
0.845946
0.755467
0.699518
0.735975
0.784178
0.862434
0.932488
0.979927
0.991867
0.940614
0.813237
0.610671
0.405132
0.29603
0.229208
0.129035
-0.063922
-0.461766
-1.2053
-2.49045
-4.59207
-7.89734
-12.8828
-20.9602
-33.2086
-47.5898
-74.2747
-57.9189
-39.2253
-30.9148
-18.2116
-11.0003
-4.47088
0.405599
3.78715
6.50982
7.82083
9.07273
8.80489
9.56397
0.014956
0.0502049
0.080991
0.114158
0.145654
0.178003
0.209774
0.241934
0.274032
0.306469
0.339155
0.372298
0.405945
0.440245
0.475295
0.511225
0.548139
0.586129
0.625244
0.665466
0.706651
0.748455
0.790222
0.830857
0.868741
0.901815
0.927933
0.945431
0.953472
0.951865
0.94098
0.922561
0.901239
0.885607
0.886723
0.91076
0.946957
0.965247
0.936752
0.853537