/*--------------------------------*- C++ -*----------------------------------*\
| =========                 |                                                 |
| \\      /  F ield         | OpenFOAM: The Open Source CFD Toolbox           |
|  \\    /   O peration     | Version:  4.1                                   |
|   \\  /    A nd           | Web:      www.OpenFOAM.org                      |
|    \\/     M anipulation  |                                                 |
\*---------------------------------------------------------------------------*/
FoamFile
{
    version     2.0;
    format      ascii;
    class       surfaceScalarField;
    location    "12";
    object      phi;
}
// * * * * * * * * * * * * * * * * * * * * * * * * * * * * * * * * * * * * * //

dimensions      [0 3 -1 0 0 0 0];

internalField   nonuniform List<scalar> 
13220
(
-788.552
2088.45
-1226.28
1737.92
-1675.67
1749.29
-2004.18
1628.41
-2272.42
1568.44
-2463.85
1491.33
-2587.38
1423.43
-2642.97
1355.79
-2633.71
1290.64
-2552.74
1218.93
-2383.02
1130.47
-2092.56
1009.44
-1624.38
831.724
-933.5
609.322
366.4
-236.195
2324.65
-521.519
2023.25
-829.343
2057.12
-1083.94
1883.01
-1330.13
1814.63
-1536.28
1697.48
-1719.73
1606.88
-1874.19
1510.25
-1999.57
1416.02
-2072.75
1292.11
-2026.81
1084.54
-1730.41
713.04
-1122.68
223.99
-479.896
-33.4547
-113.497
-182.435
2507.08
-406.342
2247.16
-573.22
2224
-685.622
1995.42
-785.902
1914.91
-843.743
1755.32
-881.778
1644.92
-893.719
1522.19
-884.309
1406.62
-851.316
1259.12
-785.315
1018.54
-657.716
585.446
-485.852
52.1348
-333.138
-186.158
-446.635
62.7955
2444.29
19.0408
2290.91
41.1742
2201.86
85.7232
1950.87
136.957
1863.68
207.923
1684.36
292.004
1560.84
394.704
1419.49
510.746
1290.57
621.356
1148.51
674.109
965.785
559.502
700.053
234.083
377.555
-3.50243
51.4288
-450.137
144.229
2300.06
138.988
2296.15
201.955
2138.9
269.758
1883.07
346.713
1786.72
423.858
1607.21
506.928
1477.77
593.243
1333.18
682.255
1201.56
759.738
1071.03
796.935
928.587
733.418
763.573
556.129
554.847
303.107
304.454
-147.03
121.821
2178.24
156.207
2261.77
222.205
2072.9
294.38
1810.89
371.871
1709.23
447.496
1531.59
519.926
1405.34
584.707
1268.4
643.118
1143.15
691.409
1022.74
712.385
907.611
675.079
800.875
546.689
683.233
317.027
534.109
169.997
55.4656
2122.78
126.583
2190.65
196.64
2002.84
262.905
1744.63
332.869
1639.27
415.262
1449.2
516.788
1303.81
647.764
1137.42
780.654
1010.26
888.816
914.578
931.499
864.928
874.371
858.005
688.381
869.224
391.417
831.075
561.414
-54.0299
2176.81
-12.5933
2149.21
-0.576946
1990.83
-36.3798
1780.43
-69.6631
1672.55
-82.4593
1461.99
-23.2802
1244.63
117.38
996.758
314.203
813.438
531.307
697.472
703.396
692.838
747.744
813.654
612.416
1004.55
333.533
1109.95
894.947
-200.143
2376.95
-346.989
2296.06
-501.462
2145.3
-713.819
1992.79
-934.705
1893.44
-1153.78
1681.06
-1322.86
1413.72
-1433.3
1107.2
-1464.64
844.779
-1387.64
620.468
-1171
476.194
-821.07
463.73
-424.585
608.066
-123.2
808.572
771.747
-20.9267
2397.87
-280.481
2555.61
-477.098
2341.91
-657.854
2173.54
-841.448
2077.03
-1052.53
1892.15
-1296.91
1658.09
-1564.32
1374.61
-1824.87
1105.33
-2030.91
826.511
-2094.29
539.577
-1901.61
271.046
-1387.56
94.0086
-637.663
58.6737
134.084
335.096
2062.78
209.219
2681.49
96.8314
2454.3
70.7028
2199.67
88.7629
2058.97
88.8704
1892.04
37.2978
1709.66
-73.6799
1485.59
-219.811
1251.46
-393.333
1000.03
-582.149
728.391
-744.005
432.902
-760.427
110.43
-542.598
-159.157
-408.514
461.762
1601.01
548.457
2594.8
543.361
2459.4
605.87
2137.16
736.43
1928.41
876.277
1752.19
992.882
1593.05
1057.17
1421.3
1068.68
1239.95
1017.57
1051.14
893.24
852.717
681.503
644.637
383.475
408.454
80.2123
144.101
-328.302
344.219
1256.79
501.29
2437.72
585.407
2375.28
700.666
2021.9
846.609
1782.46
981.842
1616.96
1089
1485.89
1153.25
1357.05
1167.89
1225.31
1129.62
1089.42
1034.03
948.3
877.558
801.112
658.522
627.49
379.181
423.44
50.879
273.833
982.961
427.819
2283.74
421.587
2381.51
358.595
2084.89
336.49
1804.57
357.127
1596.32
404.858
1438.16
464.991
1296.92
527.693
1162.61
581.101
1036.01
614.554
914.847
607.68
807.985
510.011
725.158
310.162
623.289
361.041
424.167
1344.97
2083.2
2477.78
2528.81
2474.59
2333.22
2104.66
1814.23
1532.08
1254.89
964.458
685.021
376.727
4.22664e-06
329.194
-329.194
329.194
329.194
329.194
645.444
-316.25
645.444
645.444
645.444
859.883
-214.439
859.883
859.883
973.697
-113.815
973.697
973.697
973.697
996.358
-22.6604
996.358
996.358
955.384
40.9738
955.384
955.384
955.384
884.302
71.0816
884.302
884.302
884.302
799.783
84.5186
799.783
799.783
700.77
99.0131
700.77
700.77
700.77
591.426
109.344
591.426
591.426
465.09
126.336
465.09
465.09
465.09
336.998
128.092
336.998
336.998
336.998
276.439
60.5595
276.439
276.439
245.704
30.7344
245.704
245.704
245.704
120.986
124.718
120.986
120.986
120.986
12.7299
108.256
12.7299
12.7299
-134.103
146.833
-134.103
-134.103
-134.103
-679.841
545.738
-679.841
-679.841
-1660.49
980.653
-1660.49
-1660.49
-1660.49
-3006.26
1345.77
-3006.26
-3006.26
-3006.26
-4614.56
1608.3
-4614.56
-4614.56
-6523.25
1908.69
-6523.25
-6523.25
-6388.24
-6255.95
-6121.9
-8153.38
2172.63
-8008.4
-7845.19
-7671.79
-7497.18
-7321.28
-7144.15
-6967.18
-6786.83
-9080.91
2477
-8888.63
-8693.8
-8496.55
-8294.8
-8089.47
-7882.41
-7674.78
-7465.37
-9957.65
2702.2
-9733.81
-9509.11
-9284.02
-9057.9
-8824.96
-8580.08
-8331.85
-8080.03
-7826.03
-10345.7
2761
-10077.1
-9806.23
-9533.88
-9260.39
-8985.61
-8697.67
-8402.72
-8108.51
-10334.5
2500.77
-10051.6
-9764.58
-9467.62
-9172.07
-8876.32
-8580.87
-8284.04
-7965.86
-9662.43
2000.86
-9354.13
-9045.71
-8736.77
-8408.9
-8073.09
-7739.47
-7407.44
-7080.56
-8095.03
1336.03
-7763.42
-7442.45
-7128.73
-6823.03
-6524.17
-6208.51
-5898.94
-5592.28
-5291.47
-5196.01
215.773
-4917.53
-4652.18
-4391.03
-4136.26
-3888.8
-3690.91
-3582.76
-3476.89
-3088.28
-278.921
-2992.67
-2902.12
-2902.12
-2706.93
-195.195
-2503.28
-203.649
-2503.28
-2344.39
-158.893
-2344.39
-2218.77
-125.613
-2115.99
-102.786
-2115.99
-2034.73
-81.2534
-1969.64
-65.0926
-1969.64
-1921.58
-48.0571
-1921.58
-1895.64
-25.9462
-1877.37
-18.2648
-1877.37
-1872.87
-4.50783
-1872.87
-1885.64
12.7733
-1893.85
8.21176
-1893.85
-1915.96
22.1057
-1930.19
14.2283
-1930.19
-1950.17
19.9833
-1950.17
-1978.29
28.1176
-1994.22
15.9387
-1994.22
-2014.06
19.8343
-2014.06
-2039.97
25.9142
-2049.13
9.15677
-2049.13
-2064.24
15.115
-2064.1
-0.141815
-2064.1
-2062.48
-1.6241
-2062.48
-2061.29
-1.19096
-2046.14
-15.1437
-2046.14
-2029.12
-17.0228
-2029.12
-2013.4
-15.7196
-1984.45
-28.9509
-1984.45
-1956.96
-27.4956
-1919.84
-37.1186
-1919.84
-1880.4
-39.4415
-1880.4
-1841.02
-39.373
-1793.42
-47.6038
-1793.42
-1742.48
-50.94
-1742.48
-1691.14
-51.3424
-1631.91
-59.2274
-1631.91
-1569.67
-62.2376
-1502.82
-66.8499
-1502.82
-1431.28
-71.5367
-1431.28
-1357.01
-74.2712
-1280.02
-76.9941
-1280.02
-1197.28
-82.7425
-1197.28
-1110.92
-86.3591
-1023.23
-87.6848
-1023.23
-927.392
-95.8408
-833.739
-93.6534
-833.739
-734.585
-99.1537
-734.585
-103.394
-40.5059
-186.925
-40.4492
-230.12
-40.6764
-257.179
-40.9766
-283.82
-41.4252
-309.725
-41.968
-334.264
-42.6255
-358.331
-43.3818
-381.677
-44.2422
-404.647
-45.2014
-427.234
-46.2603
-449.591
-47.4168
-471.769
-48.671
-493.859
-50.0218
-515.918
-51.4692
-538.01
-53.0125
-560.187
-54.6518
-582.495
-56.3863
-604.972
-58.2157
-627.65
-60.1388
-650.546
-62.1543
-673.67
-64.2599
-697.013
-66.4526
-720.556
-68.7287
-744.258
-71.0831
-768.065
-73.5103
-791.909
-76.0039
-815.709
-78.5572
-839.384
-81.1637
-862.856
-83.8171
-886.062
-86.5121
-908.964
-89.2448
-931.554
-92.0119
-953.859
-94.8115
-975.944
-97.6414
-997.898
-100.5
-1019.82
-103.383
-1041.83
-106.29
-1064.01
-109.22
-1086.49
-112.176
-1109.47
-115.165
-1133.23
-118.19
-1158.16
-121.246
-1184.68
-124.306
-1213.08
-127.321
-1243.34
-130.212
-1275.16
-132.871
-1307.98
-135.166
-1341.04
-136.93
-1373.47
-137.963
-1404.34
-138.016
-1432.65
-136.778
-1457.18
-133.855
-1476.31
-128.767
-1487.63
-120.949
-1487.54
-109.783
-1470.87
-94.6605
-1430.25
-75.0502
-1354.47
-50.7935
-1228.58
-22.3554
-1019.12
17.3279
-652.105
45.6547
269.634
50.6167
837.788
53.5361
1248.92
55.8266
1622.44
57.2663
1991.56
57.9871
2325.26
58.5384
2613.11
58.3119
2825.96
57.8172
2981.16
55.1798
3022.84
52.8083
3054.36
46.758
2943.85
46.1063
3018.97
38.8749
2755.66
45.7238
3150.75
50.7379
2655.11
53.5409
3245.78
4555.52
-43.7687
-187.278
-43.6047
-230.284
-43.7923
-256.992
-44.0657
-283.547
-44.5099
-309.28
-45.0587
-333.715
-45.7345
-357.655
-46.5178
-380.893
-47.414
-403.751
-48.4164
-426.231
-49.5259
-448.481
-50.7397
-470.555
-52.0575
-492.541
-53.4781
-514.497
-55.001
-536.487
-56.6253
-558.562
-58.3506
-580.77
-60.1757
-603.147
-62.0996
-625.726
-64.1205
-648.525
-66.236
-671.554
-68.4429
-694.807
-70.7369
-718.262
-73.113
-741.882
-75.565
-765.613
-78.0862
-789.387
-80.6697
-813.125
-83.3085
-836.745
-85.9965
-860.168
-88.7285
-883.33
-91.5008
-906.192
-94.3115
-928.743
-97.1597
-951.011
-100.045
-973.059
-102.967
-994.976
-105.923
-1016.87
-108.911
-1038.84
-111.931
-1060.99
-114.985
-1083.44
-118.083
-1106.37
-121.236
-1130.08
-124.451
-1154.95
-127.715
-1181.42
-130.989
-1209.8
-134.204
-1240.13
-137.262
-1272.1
-140.039
-1305.2
-142.391
-1338.69
-144.142
-1371.72
-145.082
-1403.4
-144.951
-1432.78
-143.411
-1458.72
-140.03
-1479.69
-134.276
-1493.38
-125.527
-1496.29
-113.116
-1483.28
-96.4186
-1446.95
-74.8918
-1376
-48.4119
-1255.06
-17.3473
-1050.19
27.3908
-696.843
56.8492
240.176
55.0582
839.579
56.1104
1247.87
57.6056
1620.94
58.1564
1991.01
58.0685
2325.35
58.0115
2613.17
57.3157
2826.66
56.5543
2981.92
53.8416
3025.55
51.4742
3056.73
45.5892
2949.74
45.0436
3019.51
38.0687
2762.64
44.8436
3143.98
49.9278
2650.02
53.2309
3242.47
4509.6
-45.5225
-187.691
-45.3198
-230.486
-45.4834
-256.828
-45.7449
-283.285
-46.1866
-308.839
-46.7399
-333.162
-47.4263
-356.969
-48.2251
-380.095
-49.1415
-402.835
-50.1682
-425.205
-51.3059
-447.344
-52.5516
-469.309
-53.9047
-491.188
-55.364
-513.038
-56.9286
-534.923
-58.5976
-556.893
-60.3701
-578.997
-62.245
-601.272
-64.2206
-623.75
-66.2948
-646.451
-68.4646
-669.384
-70.7262
-692.545
-73.0747
-715.913
-75.5043
-739.452
-78.0083
-763.109
-80.5794
-786.816
-83.2105
-810.494
-85.8947
-834.06
-88.6262
-857.436
-91.4007
-880.556
-94.2157
-903.377
-97.0702
-925.888
-99.9646
-948.117
-102.899
-970.124
-105.874
-992.001
-108.887
-1013.85
-111.937
-1035.79
-115.022
-1057.9
-118.149
-1080.31
-121.331
-1103.19
-124.582
-1126.83
-127.91
-1151.62
-131.298
-1178.03
-134.696
-1206.41
-138.024
-1236.8
-141.176
-1268.95
-144.02
-1302.36
-146.407
-1336.3
-148.159
-1369.96
-149.065
-1402.49
-148.856
-1432.99
-147.181
-1460.4
-143.587
-1483.29
-137.514
-1499.46
-128.321
-1505.48
-115.341
-1496.26
-97.9833
-1464.31
-75.7572
-1398.22
-48.5827
-1282.23
-16.4435
-1082.33
29.1408
-742.427
65.4447
203.872
62.2679
842.756
60.1142
1250.03
60.3206
1620.74
59.6771
1991.65
58.3648
2326.66
57.3675
2614.17
55.96
2828.06
54.7632
2983.11
51.8935
3028.42
49.5257
3059.1
43.8085
2955.45
43.4453
3019.87
36.7346
2769.35
43.5189
3137.19
48.5899
2644.95
53.0945
3237.97
4469.04
-47.5902
-188.159
-47.3511
-230.725
-47.4933
-256.686
-47.7448
-283.034
-48.1868
-308.397
-48.7481
-332.6
-49.4491
-356.268
-50.2685
-379.275
-51.2107
-401.893
-52.2682
-424.147
-53.4412
-446.171
-54.7264
-468.024
-56.1233
-489.791
-57.6302
-511.531
-59.2462
-533.307
-60.9701
-555.169
-62.8008
-577.166
-64.7367
-599.336
-66.776
-621.711
-68.9159
-644.311
-71.1529
-667.147
-73.4825
-690.215
-75.8989
-713.497
-78.3956
-736.956
-80.9651
-760.54
-83.5995
-784.182
-86.2912
-807.802
-89.0332
-831.318
-91.8203
-854.649
-94.6487
-877.727
-97.5171
-900.508
-100.426
-922.979
-103.377
-945.165
-106.373
-967.129
-109.412
-988.962
-112.494
-1010.77
-115.616
-1032.67
-118.78
-1054.74
-121.994
-1077.1
-125.274
-1099.91
-128.64
-1123.46
-132.102
-1148.16
-135.637
-1174.5
-139.187
-1202.86
-142.66
-1233.33
-145.935
-1265.68
-148.874
-1299.42
-151.321
-1333.85
-153.094
-1368.19
-153.979
-1401.61
-153.699
-1433.27
-151.889
-1462.21
-148.073
-1487.1
-141.669
-1505.86
-132.033
-1515.12
-118.525
-1509.76
-100.629
-1482.21
-77.9275
-1420.92
-50.3858
-1309.78
-17.3951
-1115.32
28.6595
-788.482
75.3293
157.202
71.7979
846.287
65.939
1255.88
64.1323
1622.55
61.9134
1993.87
58.9695
2329.61
56.6791
2616.46
54.3
2830.44
52.4784
2984.94
49.3685
3031.53
46.9678
3061.5
41.4639
2960.96
41.3185
3020.02
34.9685
2775.7
41.8321
3130.33
46.8933
2639.89
50.9403
3233.92
4424.14
-49.5643
-188.666
-49.3025
-230.987
-49.4273
-256.561
-49.6727
-282.788
-50.1172
-307.952
-50.688
-332.03
-51.405
-355.551
-52.2458
-378.435
-53.2144
-400.924
-54.303
-423.059
-55.5114
-444.962
-56.8363
-466.699
-58.2767
-488.35
-59.8308
-509.977
-61.4977
-531.64
-63.2759
-553.391
-65.164
-575.278
-67.1603
-597.34
-69.2623
-619.609
-71.4671
-642.106
-73.7704
-664.844
-76.1671
-687.819
-78.6507
-711.013
-81.2137
-734.393
-83.8479
-757.906
-86.5449
-781.485
-89.2966
-805.051
-92.096
-828.519
-94.9382
-851.807
-97.8202
-874.845
-100.742
-897.587
-103.705
-920.016
-106.713
-942.157
-109.769
-964.073
-112.873
-985.858
-116.024
-1007.62
-119.22
-1029.47
-122.462
-1051.5
-125.761
-1073.8
-129.139
-1096.53
-132.62
-1119.98
-136.215
-1144.56
-139.901
-1170.81
-143.605
-1199.15
-147.225
-1229.71
-150.631
-1262.27
-153.672
-1296.38
-156.19
-1331.34
-157.999
-1366.38
-158.883
-1400.72
-158.559
-1433.59
-156.65
-1464.12
-152.667
-1491.09
-146.028
-1512.5
-136.127
-1525.02
-122.413
-1523.48
-104.491
-1500.13
-82.0332
-1443.38
-54.9794
-1336.83
-21.9477
-1148.35
22.138
-832.567
86.3308
93.0092
83.0252
849.593
74.2741
1264.64
69.4304
1627.39
65.0191
1998.28
59.9943
2334.63
56.0027
2620.45
52.3486
2834.1
49.6926
2987.59
46.2248
3035
43.765
3063.96
38.4801
2966.24
38.6408
3019.86
32.6775
2781.66
39.764
3123.24
44.7545
2634.9
49.5799
3229.1
4386.03
-51.5395
-189.2
-51.2636
-231.263
-51.3753
-256.45
-51.6183
-282.545
-52.0677
-307.503
-52.6505
-331.447
-53.3854
-354.816
-54.2495
-377.57
-55.2465
-399.927
-56.368
-421.937
-57.6137
-443.717
-58.98
-465.333
-60.4658
-486.865
-62.0691
-508.374
-63.7888
-529.92
-65.6233
-551.557
-67.5709
-573.331
-69.6297
-595.281
-71.7969
-617.442
-74.0689
-639.834
-76.441
-662.472
-78.9073
-685.352
-81.4607
-708.46
-84.0928
-731.761
-86.7947
-755.204
-89.5572
-778.722
-92.3717
-802.236
-95.2314
-825.659
-98.1315
-848.907
-101.07
-871.907
-104.047
-894.609
-107.067
-916.996
-110.135
-939.09
-113.254
-960.954
-116.426
-982.686
-119.649
-1004.4
-122.92
-1026.2
-126.243
-1048.17
-129.63
-1070.41
-133.108
-1093.06
-136.708
-1116.38
-140.443
-1140.83
-144.285
-1166.97
-148.154
-1195.28
-151.933
-1225.93
-155.48
-1258.72
-158.639
-1293.22
-161.243
-1328.73
-163.107
-1364.52
-164.011
-1399.82
-163.668
-1433.93
-161.696
-1466.09
-157.612
-1495.17
-150.879
-1519.23
-140.993
-1534.9
-127.56
-1536.91
-110.328
-1517.36
-89.0013
-1464.71
-63.3336
-1362.5
-30.9051
-1180.78
12.1429
-875.616
90.3029
14.8493
94.6931
845.202
85.2847
1274.04
76.577
1636.1
69.1136
2005.74
61.5329
2342.21
55.4247
2626.56
50.1772
2839.34
46.4673
2991.3
42.5103
3038.96
39.9478
3066.52
34.8836
2971.31
35.4152
3019.33
29.8731
2787.2
37.3056
3115.81
42.2048
2630
46.3097
3224.99
4345.98
-53.4975
-189.752
-53.2155
-231.545
-53.3184
-256.347
-53.5624
-282.301
-54.0192
-307.046
-54.6161
-330.85
-55.3708
-354.061
-56.26
-376.681
-57.2869
-398.9
-58.4429
-420.781
-59.7274
-442.432
-61.1366
-463.924
-62.6693
-485.332
-64.3233
-506.72
-66.0972
-528.146
-67.9895
-549.665
-69.9982
-571.322
-72.121
-593.159
-74.3549
-615.208
-76.6958
-637.494
-79.1386
-660.029
-81.6765
-682.815
-84.3017
-705.835
-87.0051
-729.057
-89.7767
-752.432
-92.6068
-775.892
-95.4865
-799.357
-98.4086
-822.737
-101.369
-845.947
-104.365
-868.91
-107.4
-891.574
-110.479
-913.917
-113.609
-935.961
-116.793
-957.77
-120.035
-979.444
-123.332
-1001.1
-126.682
-1022.85
-130.088
-1044.77
-133.565
-1066.93
-137.145
-1089.48
-140.865
-1112.66
-144.744
-1136.95
-148.751
-1162.96
-152.792
-1191.24
-156.741
-1221.98
-160.443
-1255.02
-163.733
-1289.93
-166.439
-1326.03
-168.374
-1362.58
-169.317
-1398.88
-168.982
-1434.27
-167
-1468.07
-162.938
-1499.23
-156.376
-1525.79
-146.998
-1544.28
-134.615
-1549.29
-119.075
-1532.9
-99.9478
-1483.84
-76.5376
-1385.91
-45.1685
-1212.15
-0.693552
-920.09
84.2632
-70.1075
105.893
823.572
98.6844
1281.25
85.9684
1648.81
74.4149
2017.3
63.6797
2352.95
55.0308
2635.21
47.8489
2846.53
42.8511
2996.3
38.2591
3043.55
35.5341
3069.25
30.6874
2976.15
31.6443
3018.37
26.5637
2792.28
34.4576
3107.92
39.3183
2625.14
42.939
3221.37
4306.18
-55.445
-190.312
-55.1637
-231.826
-55.2617
-256.249
-55.5103
-282.053
-55.9769
-306.579
-56.5902
-330.237
-57.3666
-353.285
-58.2828
-375.765
-59.3414
-397.841
-60.5336
-419.589
-61.8586
-441.107
-63.3123
-462.47
-64.8934
-483.751
-66.5997
-505.013
-68.4296
-526.316
-70.3813
-547.713
-72.4528
-569.25
-74.6415
-590.97
-76.944
-612.905
-79.3559
-635.082
-81.8714
-657.514
-84.4832
-680.203
-87.1825
-703.135
-89.9595
-726.28
-92.8034
-749.588
-95.7037
-772.992
-98.6509
-796.409
-101.638
-819.75
-104.66
-842.925
-107.717
-865.853
-110.813
-888.478
-113.953
-910.777
-117.145
-932.768
-120.398
-954.517
-123.712
-976.129
-127.087
-997.726
-130.518
-1019.42
-134.009
-1041.28
-137.578
-1063.37
-141.262
-1085.79
-145.106
-1108.82
-149.135
-1132.92
-153.313
-1158.78
-157.538
-1187.02
-161.668
-1217.85
-165.539
-1251.15
-168.975
-1286.49
-171.799
-1323.2
-173.821
-1360.56
-174.823
-1397.88
-174.534
-1434.56
-172.641
-1469.97
-168.838
-1503.04
-162.921
-1531.71
-154.846
-1552.36
-144.605
-1559.53
-131.971
-1545.53
-116.095
-1499.71
-95.5037
-1406.5
-65.2452
-1242.4
-19.4208
-965.915
75.0067
-164.535
116.076
782.503
113.829
1283.5
97.9169
1664.72
81.2803
2033.93
66.5562
2367.67
54.9017
2646.86
45.4183
2856.01
38.8775
3002.84
33.4874
3048.94
30.525
3072.21
25.8827
2980.8
27.3185
3016.94
22.7334
2796.87
31.2347
3099.42
36.0625
2620.31
41.0071
3216.43
4270.19
-57.3832
-190.874
-57.1082
-232.101
-57.2055
-256.151
-57.462
-281.796
-57.9409
-306.1
-58.5729
-329.605
-59.373
-352.485
-60.318
-374.82
-61.4101
-396.749
-62.6402
-418.359
-64.0073
-439.74
-65.5072
-460.97
-67.1384
-482.12
-68.8986
-503.253
-70.7862
-524.429
-72.7991
-545.7
-74.9351
-567.114
-77.1916
-588.713
-79.5647
-610.532
-82.0496
-632.597
-84.64
-654.923
-87.328
-677.515
-90.1039
-700.359
-92.957
-723.427
-95.8758
-746.669
-98.8488
-770.019
-101.866
-793.392
-104.92
-816.696
-108.007
-839.838
-111.127
-862.733
-114.285
-885.321
-117.488
-907.573
-120.747
-929.509
-124.07
-951.195
-127.46
-972.739
-130.915
-994.271
-134.43
-1015.9
-138.008
-1037.7
-141.671
-1059.7
-145.461
-1082
-149.432
-1104.85
-153.616
-1128.74
-157.974
-1154.43
-162.394
-1182.6
-166.72
-1213.52
-170.774
-1247.1
-174.37
-1282.9
-177.326
-1320.25
-179.451
-1358.43
-180.537
-1396.79
-180.369
-1434.73
-178.764
-1471.57
-175.662
-1506.14
-171.192
-1536.18
-165.588
-1557.96
-158.865
-1566.26
-150.384
-1554.01
-138.509
-1511.59
-120.737
-1424.27
-91.1655
-1271.98
-43.3279
-1013.75
62.5933
-270.456
124.543
720.553
129.873
1278.17
112.482
1682.12
90.1438
2056.27
70.3434
2387.47
55.1175
2662.09
42.9411
2868.19
34.5795
3011.2
28.2128
3055.31
24.923
3075.5
20.4627
2985.26
22.4271
3014.97
18.3674
2800.93
27.6094
3090.17
32.4496
2615.47
36.2075
3212.67
4232.13
-59.3143
-191.431
-59.0505
-232.365
-59.1509
-256.051
-59.4186
-281.528
-59.9124
-305.607
-60.5653
-328.952
-61.3912
-351.659
-62.367
-373.844
-63.4943
-395.622
-64.7641
-417.089
-66.1751
-438.329
-67.7229
-459.422
-69.406
-480.437
-71.2219
-501.437
-73.1688
-522.482
-75.2447
-543.624
-77.4472
-564.912
-79.7734
-586.387
-82.2191
-608.086
-84.7792
-630.037
-87.4469
-652.256
-90.2134
-674.748
-93.0686
-697.504
-96.0005
-720.495
-98.9968
-743.673
-102.045
-766.97
-105.136
-790.302
-108.26
-813.572
-111.414
-836.684
-114.599
-859.548
-117.821
-882.099
-121.09
-904.305
-124.418
-926.181
-127.814
-947.798
-131.282
-969.271
-134.821
-990.733
-138.423
-1012.3
-142.091
-1034.03
-145.848
-1055.95
-149.746
-1078.1
-153.848
-1100.74
-158.193
-1124.39
-162.742
-1149.88
-167.368
-1177.97
-171.904
-1208.99
-176.157
-1242.84
-179.929
-1279.13
-183.029
-1317.15
-185.272
-1356.19
-186.494
-1395.57
-186.604
-1434.62
-185.685
-1472.49
-184.065
-1507.76
-182.267
-1537.98
-180.665
-1559.56
-178.928
-1567.99
-175.553
-1557.39
-167.803
-1519.34
-152.112
-1439.96
-122.222
-1301.87
-71.3193
-1064.65
47.0357
-388.811
130.794
636.795
145.982
1262.98
129.393
1698.7
101.401
2084.26
75.3202
2413.55
55.7703
2681.64
40.475
2883.48
29.9933
3021.68
22.4564
3062.84
18.7348
3079.22
14.4258
2989.57
16.9645
3012.43
13.4572
2804.43
23.5744
3080.06
28.535
2610.51
31.6109
3209.59
4192.2
-61.2402
-191.978
-60.9919
-232.614
-61.0992
-255.944
-61.3812
-281.246
-61.8924
-305.095
-62.5687
-328.275
-63.4223
-350.805
-64.4309
-372.836
-65.5954
-394.457
-66.9067
-415.778
-68.3633
-436.873
-69.9608
-457.825
-71.6975
-478.7
-73.5709
-499.564
-75.579
-520.474
-77.7198
-541.483
-79.9908
-562.641
-82.3887
-583.989
-84.9092
-605.566
-87.5469
-627.399
-90.2942
-649.508
-93.1419
-671.9
-96.0789
-694.567
-99.0925
-717.482
-102.169
-740.596
-105.296
-763.843
-108.462
-787.136
-111.659
-810.375
-114.883
-833.46
-118.136
-856.295
-121.425
-878.81
-124.762
-900.968
-128.16
-922.783
-131.632
-944.326
-135.183
-965.72
-138.808
-987.108
-142.5
-1008.61
-146.26
-1030.27
-150.115
-1052.09
-154.123
-1074.1
-158.359
-1096.51
-162.872
-1119.88
-167.621
-1145.13
-172.468
-1173.12
-177.23
-1204.23
-181.696
-1238.38
-185.655
-1275.17
-188.912
-1313.89
-191.305
-1353.8
-192.779
-1394.09
-193.507
-1433.89
-194.009
-1471.99
-195.125
-1506.64
-197.671
-1535.43
-201.779
-1555.45
-206.23
-1563.54
-208.235
-1555.38
-203.867
-1523.71
-188.773
-1455.06
-157.09
-1333.55
-101.964
-1119.78
29.4114
-520.186
135.486
530.72
161.605
1236.86
148.109
1712.2
115.284
2117.09
81.8676
2446.97
56.9945
2706.51
38.0804
2902.4
25.1591
3034.61
16.2427
3071.76
11.9724
3083.49
7.77578
2993.76
10.9297
3009.28
8.0011
2807.36
19.1757
3068.88
24.2926
2605.4
29.1446
3204.74
4154.5
-63.1628
-192.51
-62.9337
-232.843
-63.0516
-255.826
-63.3509
-280.947
-63.8821
-304.564
-64.584
-327.573
-65.4676
-349.922
-66.511
-371.792
-67.7145
-393.254
-69.0692
-414.423
-70.5733
-435.369
-72.2224
-456.176
-74.0146
-476.908
-75.9473
-497.631
-78.0186
-518.402
-80.2262
-539.276
-82.5677
-560.299
-85.0394
-581.518
-87.6371
-602.968
-90.3547
-624.681
-93.1843
-646.679
-96.1159
-668.969
-99.1376
-691.545
-102.236
-714.383
-105.396
-737.436
-108.605
-760.635
-111.849
-783.891
-115.121
-807.103
-118.418
-830.163
-121.741
-852.972
-125.099
-875.451
-128.507
-897.56
-131.979
-919.31
-135.53
-940.775
-139.166
-962.085
-142.881
-983.393
-146.667
-1004.82
-150.522
-1026.41
-154.476
-1048.14
-158.595
-1069.98
-162.968
-1092.13
-167.657
-1115.19
-172.619
-1140.16
-177.702
-1168.04
-182.705
-1199.22
-187.399
-1233.68
-191.555
-1271.01
-194.985
-1310.46
-197.608
-1351.18
-199.608
-1392.09
-201.621
-1431.88
-204.787
-1468.82
-210.429
-1501
-219.279
-1526.58
-230.595
-1544.14
-241.702
-1552.44
-248.363
-1548.72
-245.734
-1526.33
-229.211
-1471.58
-194.033
-1368.73
-133.667
-1180.15
10.5015
-664.354
138.958
402.263
176.14
1199.68
168.018
1720.32
131.781
2153.32
90.4082
2488.34
59.0032
2737.92
35.8268
2925.57
20.1217
3050.31
9.60084
3082.28
4.65417
3088.44
0.519931
2997.9
4.3329
3005.47
1.99978
2809.7
14.3782
3056.5
19.6733
2600.1
22.7058
3201.71
4114.96
-65.0839
-193.024
-64.8774
-233.049
-65.0093
-255.694
-65.3289
-280.628
-65.8827
-304.01
-66.6126
-326.844
-67.5283
-349.006
-68.6085
-370.712
-69.8531
-392.009
-71.2532
-413.023
-72.8067
-433.815
-74.5092
-454.473
-76.3588
-475.058
-78.3528
-495.637
-80.4893
-516.266
-82.7658
-536.999
-85.1799
-557.885
-87.7278
-578.97
-90.405
-600.291
-93.205
-621.881
-96.1195
-643.764
-99.138
-665.95
-102.247
-688.436
-105.433
-711.197
-108.68
-734.189
-111.974
-757.342
-115.3
-780.565
-118.651
-803.752
-122.023
-826.791
-125.419
-849.576
-128.849
-872.021
-132.33
-894.08
-135.879
-915.761
-139.512
-937.142
-143.236
-958.36
-147.046
-979.583
-150.929
-1000.94
-154.882
-1022.46
-158.937
-1044.08
-163.169
-1065.75
-167.683
-1087.62
-172.555
-1110.32
-177.743
-1134.98
-183.077
-1162.71
-188.338
-1193.96
-193.268
-1228.75
-197.631
-1266.65
-201.284
-1306.81
-204.345
-1348.12
-207.45
-1388.99
-211.938
-1427.39
-219.636
-1461.12
-232.014
-1488.62
-249.01
-1509.59
-268.263
-1524.89
-285.351
-1535.35
-294.866
-1539.21
-291.658
-1529.54
-271.48
-1491.76
-231.105
-1409.1
-164.803
-1246.45
-11.4495
-817.708
139.107
251.707
188.716
1150.07
188.55
1720.49
150.62
2191.25
101.295
2537.67
62.1105
2777.1
33.8095
2953.87
14.9281
3069.19
2.56283
3094.64
-3.20721
3094.21
-7.3217
3002.01
-2.83216
3000.98
-4.54314
2811.41
9.23816
3042.72
14.7952
2594.54
19.2217
3197.28
4074.96
-67.0054
-193.514
-66.8244
-233.23
-66.9737
-255.545
-67.3165
-280.285
-67.8955
-303.431
-68.6557
-326.083
-69.6058
-348.056
-70.725
-369.593
-72.0127
-390.722
-73.4601
-411.575
-75.065
-432.21
-76.823
-452.715
-78.732
-473.149
-80.7893
-493.58
-82.9929
-514.062
-85.3406
-534.651
-87.8295
-555.396
-90.4559
-576.343
-93.2151
-597.532
-96.1003
-618.996
-99.1026
-640.762
-102.211
-662.842
-105.411
-685.235
-108.688
-707.92
-112.026
-730.852
-115.407
-753.961
-118.818
-777.154
-122.251
-800.32
-125.701
-823.341
-129.173
-846.104
-132.678
-868.516
-136.234
-890.524
-139.863
-912.133
-143.582
-933.423
-147.399
-954.543
-151.307
-975.675
-155.291
-996.956
-159.345
-1018.41
-163.503
-1039.92
-167.849
-1061.4
-172.508
-1082.96
-177.573
-1105.26
-183.001
-1129.55
-188.602
-1157.11
-194.131
-1188.43
-199.305
-1223.58
-203.902
-1262.05
-207.925
-1302.78
-211.9
-1344.14
-217.209
-1383.68
-226.064
-1418.53
-240.732
-1446.46
-262.073
-1467.28
-288.292
-1483.37
-314.916
-1498.26
-336.01
-1514.25
-345.736
-1529.48
-339.363
-1535.92
-313.454
-1517.67
-266.331
-1456.23
-194.216
-1318.57
-42.2489
-969.675
132.947
76.511
198.851
1084.17
209.216
1710.12
171.285
2229.19
114.695
2594.26
66.713
2825.08
32.1774
2988.41
9.62821
3091.74
-4.8306
3109.1
-11.5901
3100.97
-15.7208
3006.14
-10.5834
2995.84
-11.625
2812.45
3.78033
3027.32
9.56015
2588.76
12.5653
3194.28
4036.18
-68.9289
-193.979
-68.7763
-233.383
-68.9463
-255.375
-69.315
-279.916
-69.9218
-302.825
-70.7148
-325.29
-71.7015
-347.069
-72.8618
-368.432
-74.1948
-389.389
-75.6917
-410.079
-77.35
-430.552
-79.1655
-450.9
-81.1359
-471.179
-83.2586
-491.457
-85.5316
-511.789
-87.9526
-532.231
-90.5187
-552.83
-93.2262
-573.636
-96.0699
-594.688
-99.043
-616.023
-102.136
-637.669
-105.337
-659.641
-108.632
-681.941
-112.004
-704.549
-115.435
-727.421
-118.908
-750.488
-122.408
-773.654
-125.926
-796.802
-129.458
-819.809
-133.008
-842.553
-136.591
-864.933
-140.225
-886.889
-143.936
-908.422
-147.744
-929.615
-151.658
-950.629
-155.67
-971.663
-159.759
-992.867
-163.918
-1014.25
-168.18
-1035.66
-172.642
-1056.94
-177.45
-1078.15
-182.717
-1099.99
-188.399
-1123.87
-194.28
-1151.23
-200.085
-1182.63
-205.515
-1218.15
-210.44
-1257.12
-215.204
-1298.02
-221.067
-1338.28
-230.432
-1374.31
-246.274
-1402.69
-270.549
-1422.18
-302.374
-1435.46
-337.455
-1448.29
-369.332
-1466.38
-391.4
-1492.18
-398.326
-1522.56
-386.372
-1547.87
-353.06
-1550.98
-297.93
-1511.36
-220.161
-1396.34
-87.2469
-1102.59
109.042
-119.778
207.96
985.25
229.769
1688.31
193.122
2265.83
130.515
2656.87
73.2191
2882.38
31.1653
3030.46
4.28754
3118.62
-12.5383
3125.93
-20.4676
3108.89
-24.6589
3010.33
-18.9286
2990.11
-19.2135
2812.73
-1.95738
3010.06
4.06653
2582.74
6.51761
3191.82
3991.76
-70.8564
-194.415
-70.7347
-233.504
-70.9285
-255.181
-71.3259
-279.519
-71.9631
-302.187
-72.7914
-324.462
-73.8169
-346.044
-75.0207
-367.229
-76.401
-388.008
-77.9494
-408.53
-79.6634
-428.838
-81.5385
-449.025
-83.5725
-469.145
-85.7628
-489.267
-88.1075
-509.445
-90.6041
-529.734
-93.2498
-550.185
-96.0409
-570.845
-98.972
-591.757
-102.036
-612.959
-105.223
-634.481
-108.521
-656.343
-111.914
-678.548
-115.384
-701.078
-118.912
-723.893
-122.481
-746.92
-126.073
-770.061
-129.679
-793.196
-133.296
-816.192
-136.929
-838.92
-140.591
-861.271
-144.307
-883.173
-148.103
-904.626
-152.004
-925.714
-156.02
-946.613
-160.141
-967.542
-164.341
-988.667
-168.607
-1009.98
-172.976
-1031.29
-177.555
-1052.36
-182.515
-1073.19
-187.995
-1094.51
-193.943
-1117.92
-200.112
-1145.06
-206.197
-1176.54
-211.936
-1212.41
-217.457
-1251.6
-223.782
-1291.7
-233.284
-1328.78
-249.441
-1358.16
-275.312
-1376.82
-311.249
-1386.24
-353.528
-1393.18
-395.272
-1406.54
-428.957
-1432.7
-448.483
-1472.66
-449.773
-1521.27
-430.303
-1567.34
-388.443
-1592.84
-324.486
-1575.31
-239.954
-1480.87
-117.058
-1225.49
86.4515
-323.287
219.605
852.096
250.399
1657.52
215.471
2300.76
148.401
2723.94
81.9456
2948.83
31.1071
3081.3
-0.995762
3150.72
-20.5225
3145.46
-29.8109
3118.18
-34.1198
3014.64
-27.8624
2983.85
-27.2531
2812.12
-7.9488
2990.76
-1.74153
2576.53
3.55309
3186.53
3947.71
-72.7895
-194.82
-72.7011
-233.593
-72.9218
-254.96
-73.3506
-279.09
-74.021
-301.517
-74.8869
-323.596
-75.9537
-344.977
-77.2031
-365.979
-78.6331
-386.578
-80.2353
-406.928
-82.007
-427.066
-83.944
-447.088
-86.0438
-467.045
-88.304
-487.007
-90.7227
-507.026
-93.2974
-527.159
-96.0253
-547.457
-98.9026
-567.967
-101.924
-588.735
-105.082
-609.801
-108.366
-631.197
-111.764
-652.946
-115.259
-675.053
-118.831
-697.506
-122.461
-720.263
-126.129
-743.252
-129.818
-766.372
-133.517
-789.497
-137.222
-812.487
-140.939
-835.203
-144.685
-857.525
-148.485
-879.373
-152.37
-900.741
-156.368
-921.716
-160.491
-942.49
-164.726
-963.308
-169.042
-984.351
-173.421
-1005.6
-177.898
-1026.82
-182.595
-1047.66
-187.711
-1068.08
-193.411
-1088.81
-199.633
-1111.7
-206.092
-1138.6
-212.48
-1170.16
-218.703
-1206.19
-225.474
-1244.83
-234.947
-1282.22
-250.848
-1312.87
-277.21
-1331.8
-315.781
-1338.25
-363.833
-1338.19
-414.39
-1342.62
-458.934
-1362
-490.33
-1401.3
-503.99
-1459
-497.388
-1527.87
-469.095
-1595.63
-418.107
-1643.83
-345.002
-1648.42
-252.577
-1573.29
-131.572
-1346.49
79.6967
-534.555
235.211
696.581
270.803
1621.93
237.636
2333.93
167.852
2793.72
93.0305
3023.65
32.4124