/*--------------------------------*- C++ -*----------------------------------*\
| =========                 |                                                 |
| \\      /  F ield         | OpenFOAM: The Open Source CFD Toolbox           |
|  \\    /   O peration     | Version:  4.1                                   |
|   \\  /    A nd           | Web:      www.OpenFOAM.org                      |
|    \\/     M anipulation  |                                                 |
\*---------------------------------------------------------------------------*/
FoamFile
{
    version     2.0;
    format      ascii;
    class       volVectorField;
    location    "12";
    object      U;
}
// * * * * * * * * * * * * * * * * * * * * * * * * * * * * * * * * * * * * * //

dimensions      [0 1 -1 0 0 0 0];

internalField   nonuniform List<vector> 
6785
(
(1.40513e-14 -2.28625 16.4663)
(1.12166e-14 -7.906 12.9133)
(-2.95949e-15 -5.11194 13.7205)
(4.25902e-15 -5.06456 13.2251)
(8.75298e-16 -4.26888 13.0838)
(-6.47769e-17 -3.84291 12.7921)
(3.27373e-15 -3.41389 12.5072)
(6.28021e-16 -3.10895 12.1979)
(-6.59449e-16 -2.90341 11.9114)
(1.54479e-15 -2.84244 11.6661)
(2.68942e-16 -2.88923 11.4841)
(-3.56889e-16 -3.01956 11.2931)
(9.87386e-16 -3.5712 10.6752)
(2.04468e-17 -3.73207 9.5003)
(-3.71216e-16 -0.0927141 7.68815)
(2.00602e-14 -10.3742 26.9426)
(1.25827e-14 -16.1554 23.2999)
(-2.58132e-15 -11.1334 23.6508)
(4.21226e-15 -11.8308 21.8676)
(6.48313e-16 -10.0902 21.0491)
(6.84982e-16 -9.41838 19.865)
(1.65127e-15 -8.40903 18.8517)
(2.87412e-18 -7.60751 17.8182)
(-2.05651e-16 -6.78008 16.7868)
(3.69895e-16 -5.91986 15.5559)
(-5.29617e-16 -4.86582 13.8555)
(-7.33828e-16 -3.63249 11.4033)
(-2.10607e-16 -2.55554 8.11361)
(-4.51079e-16 -1.74508 4.65701)
(-7.28272e-16 -0.683663 1.73683)
(2.16601e-14 -13.2418 28.9486)
(1.03559e-14 -17.0151 25.5816)
(-1.62042e-15 -12.2957 25.5645)
(4.11198e-15 -13.344 23.1024)
(3.77407e-16 -11.1973 22.133)
(1.2417e-15 -10.8027 20.4438)
(1.26337e-15 -9.68701 19.2051)
(-3.92095e-16 -9.03284 17.8762)
(4.06541e-16 -8.22066 16.5982)
(4.98135e-16 -7.26162 14.8302)
(-6.47469e-16 -5.42685 11.6218)
(2.28213e-15 -1.96729 5.37175)
(5.27968e-15 2.47852 -2.86424)
(-9.35744e-16 4.0574 -5.46461)
(-3.35408e-15 2.61907 -4.69085)
(2.23917e-14 -14.1399 28.8765)
(1.07029e-14 -17.5084 26.1883)
(-1.56128e-15 -13.0344 25.6437)
(4.14787e-15 -14.4607 22.8099)
(1.01157e-15 -12.1055 21.8773)
(1.19702e-15 -12.065 19.8639)
(1.58914e-15 -10.9112 18.5323)
(5.18585e-16 -10.3796 17.0012)
(2.1936e-16 -9.66108 15.6103)
(9.70809e-16 -8.91054 13.9702)
(9.02116e-16 -7.70534 11.617)
(7.6337e-16 -5.43921 7.83569)
(1.78837e-15 -2.91955 3.56479)
(5.33248e-15 0.60855 0.151101)
(-4.74081e-15 2.22025 -6.14688)
(2.21116e-14 -13.993 27.4648)
(1.22673e-14 -17.4703 26.6107)
(-1.12542e-15 -13.2311 25.1178)
(3.4872e-15 -14.2306 22.1892)
(1.48729e-15 -12.0494 21.1394)
(8.97111e-16 -11.888 19.0376)
(1.5764e-15 -10.7128 17.5621)
(9.11504e-16 -10.0312 15.8669)
(-8.6923e-17 -9.22016 14.3112)
(2.59539e-16 -8.42213 12.7157)
(4.79624e-16 -7.51733 10.8964)
(-1.76266e-16 -6.1111 8.62264)
(-6.37785e-16 -4.46463 5.71026)
(-6.64437e-16 -1.58032 2.28587)
(-1.40805e-15 0.514963 -3.27597)
(2.19143e-14 -13.4501 25.6891)
(1.40247e-14 -16.9757 26.4668)
(2.67184e-16 -13.144 24.3351)
(2.66356e-15 -13.5635 21.3536)
(2.08758e-15 -11.6783 20.1814)
(1.49795e-15 -11.3388 18.1387)
(1.64852e-15 -10.2422 16.6085)
(1.50376e-15 -9.50401 14.9661)
(9.98473e-16 -8.71963 13.4725)
(3.34231e-16 -7.95336 12.0372)
(7.03995e-16 -7.20312 10.5604)
(1.36868e-15 -6.24189 9.0116)
(3.30888e-16 -5.15701 7.08572)
(7.11093e-17 -3.23784 4.70456)
(6.90188e-15 -0.942912 -0.0988337)
(2.33181e-14 -12.9762 24.6211)
(1.58901e-14 -16.2854 25.7539)
(2.48057e-15 -12.7852 23.5359)
(2.46791e-15 -12.9599 20.467)
(3.00003e-15 -11.0958 19.2786)
(3.95364e-15 -10.7916 17.2241)
(2.06823e-15 -9.72849 15.8368)
(2.36657e-15 -9.18491 14.3059)
(4.29039e-15 -8.54478 12.9131)
(1.90378e-15 -7.96866 11.5692)
(1.2388e-15 -7.42799 10.3818)
(3.66108e-15 -6.87466 9.47003)
(2.47654e-15 -6.29561 8.67877)
(-1.24883e-15 -5.17442 7.60984)
(6.59988e-15 -2.91751 3.96298)
(2.21121e-14 -12.9311 24.3227)
(1.44247e-14 -15.3167 24.7702)
(1.65819e-15 -12.2135 22.6423)
(2.93032e-15 -12.1409 19.7715)
(2.86067e-15 -10.1684 18.5384)
(2.79171e-15 -9.5952 16.2145)
(2.18728e-15 -7.98638 14.2767)
(2.38653e-15 -7.1436 12.0129)
(2.03446e-15 -6.39402 10.5141)
(1.71161e-15 -6.29139 9.66805)
(1.06071e-15 -6.54463 9.68277)
(1.19167e-15 -7.18733 10.4029)
(1.04539e-15 -7.65874 11.4396)
(-2.35118e-15 -7.60127 11.6362)
(2.12611e-15 -5.42165 9.07438)
(2.11179e-14 -14.0368 26.1299)
(9.80222e-15 -14.872 25.0518)
(-1.8024e-16 -12.3988 23.5212)
(2.51208e-15 -12.0185 21.5282)
(1.32005e-15 -10.2097 20.2701)
(2.82026e-16 -8.8873 17.7264)
(1.43293e-15 -6.49134 14.6366)
(1.43248e-15 -4.46102 11.1806)
(1.06806e-15 -2.64634 8.42497)
(3.12077e-15 -1.6312 6.54446)
(3.14777e-15 -1.71379 6.38127)
(1.46926e-15 -3.35183 8.4286)
(1.27058e-15 -5.9491 11.8144)
(-5.03811e-16 -8.08143 14.1138)
(-6.2644e-16 -6.20747 11.7279)
(2.02664e-14 -15.5202 28.6166)
(8.23915e-15 -16.7066 27.8068)
(-6.00659e-16 -13.7514 25.8556)
(2.00153e-15 -13.6498 24.319)
(4.69182e-16 -12.0457 23.2697)
(1.09813e-16 -10.8821 20.9167)
(1.06429e-15 -8.44532 17.8319)
(1.57034e-15 -6.1508 14.2062)
(2.90288e-15 -3.72723 10.9181)
(5.29992e-15 -1.5109 7.63396)
(6.90509e-15 0.603287 4.47777)
(6.39696e-15 1.86372 2.15861)
(2.84429e-15 1.33601 2.1231)
(8.13555e-16 -0.996335 4.42652)
(2.4496e-16 -2.40691 5.88658)
(1.95449e-14 -14.7811 26.5509)
(1.16454e-14 -19.1241 31.0295)
(2.83679e-15 -15.8008 28.0296)
(2.09796e-15 -15.2984 25.6801)
(-1.12796e-16 -13.9614 24.4953)
(2.12448e-15 -13.2985 22.5591)
(1.60418e-15 -11.6455 20.2234)
(5.6477e-16 -9.93333 17.243)
(4.79995e-15 -7.83887 14.1842)
(4.31186e-15 -5.6778 10.8688)
(4.70582e-15 -3.26392 7.25426)
(1.22838e-14 -0.740174 3.23713)
(1.18417e-14 2.04647 -1.02813)
(1.67663e-14 3.9448 -4.19039)
(1.22186e-15 2.21161 -4.22192)
(1.76761e-14 -12.1097 20.9392)
(1.52488e-14 -19.0517 30.8044)
(6.85817e-15 -16.9554 28.5744)
(2.83151e-15 -15.5038 25.0324)
(-7.4217e-17 -14.1098 22.9857)
(2.11676e-15 -13.4412 21.0764)
(2.1298e-15 -12.458 19.2063)
(4.73974e-16 -11.396 17.0455)
(2.35756e-15 -10.1167 14.7479)
(2.60517e-15 -8.69221 12.3317)
(1.90687e-15 -7.12631 9.77809)
(4.23436e-15 -5.27457 7.07524)
(3.64245e-15 -3.3022 4.0374)
(4.21256e-15 -0.462914 0.939337)
(-1.01504e-15 1.35026 -4.56202)
(1.59213e-14 -9.65806 16.2315)
(1.72033e-14 -17.7589 29.1976)
(9.49266e-15 -17.0124 28.3293)
(3.65972e-15 -15.2126 24.4549)
(6.54239e-16 -13.6346 21.6861)
(1.07813e-15 -12.718 19.5489)
(1.28909e-15 -11.8392 17.7585)
(1.89362e-15 -10.9442 15.9685)
(1.63734e-15 -9.94641 14.1175)
(1.25187e-15 -8.81851 12.2173)
(1.61896e-15 -7.61435 10.2435)
(1.1856e-15 -6.20617 8.2299)
(9.10881e-16 -4.75335 5.97111)
(2.30885e-15 -2.57564 3.35493)
(-1.85442e-15 -0.371713 -1.64785)
(1.42912e-14 -7.84124 12.5551)
(1.76778e-14 -16.172 26.9713)
(8.35032e-15 -15.8687 26.3953)
(1.66051e-15 -13.445 22.134)
(1.9851e-16 -11.6682 19.3887)
(1.05142e-15 -10.7925 17.7133)
(1.67179e-15 -10.111 16.5081)
(2.15563e-15 -9.53064 15.3393)
(1.65131e-15 -8.94677 14.1505)
(1.25057e-15 -8.30741 12.9192)
(1.90269e-16 -7.65856 11.6271)
(-9.25993e-16 -6.82589 10.2206)
(-8.24675e-16 -5.82602 8.44028)
(-6.84223e-16 -4.19938 6.27827)
(-2.69809e-15 -1.99968 2.52642)
(1.00524e-14 -6.51054 11.3344)
(1.85163e-14 -16.4478 26.1541)
(1.52095e-14 -19.2768 28.8418)
(7.90705e-15 -18.7078 26.1571)
(1.76101e-15 -16.7862 22.3918)
(-4.67392e-17 -14.8987 19.2188)
(-7.87788e-16 -13.2951 16.7266)
(-1.3035e-15 -11.8094 14.5982)
(-6.47586e-16 -10.2709 12.655)
(6.48396e-16 -8.8299 10.9373)
(1.80513e-15 -7.5396 9.43856)
(3.42028e-15 -6.53493 8.38239)
(3.50466e-15 -5.97638 8.26265)
(1.90365e-15 -5.60883 8.08943)
(4.72264e-17 -3.17624 5.65724)
(2.31863e-16 16.989 1.32526)
(-7.93496e-15 4.50985 -0.950846)
(-6.8476e-15 -0.386508 -1.11599)
(-6.33707e-15 0.696064 -1.12278)
(-5.25929e-15 0.551157 -1.00471)
(-8.09057e-15 0.745493 -1.44759)
(-5.21458e-15 0.757024 -0.891875)
(-4.56943e-15 0.927023 -0.815039)
(-3.78957e-15 0.896148 -0.718791)
(-4.52087e-15 1.22967 -0.880662)
(-2.18031e-15 1.09591 -0.473165)
(-1.34509e-15 1.15418 -0.40256)
(-2.03164e-15 1.5214 -0.359924)
(-5.71822e-16 1.2164 -0.115293)
(-8.81239e-17 1.35336 -0.0686178)
(4.60594e-16 1.26822 -0.0583327)
(5.33149e-16 1.57588 0.132519)
(1.49392e-15 1.28533 0.200066)
(1.83738e-15 1.3135 0.149617)
(2.62864e-15 1.61332 0.388928)
(2.71602e-15 1.21671 0.294488)
(2.89541e-15 1.3264 0.250929)
(3.18341e-15 1.23308 0.156171)
(4.40155e-15 1.49421 0.354968)
(3.72219e-15 1.11869 0.21758)
(3.82294e-15 1.21928 0.16805)
(3.44807e-15 1.14957 0.075739)
(4.60849e-15 1.33684 0.234731)
(3.35606e-15 1.01857 0.124891)
(3.05552e-15 1.06394 0.0455531)
(4.14209e-15 1.22243 0.205775)
(2.76025e-15 0.880329 0.0877257)
(2.7213e-15 0.96302 0.0578816)
(2.27635e-15 0.922284 -0.00391412)
(3.00291e-15 1.02822 0.138095)
(2.26203e-15 0.745564 0.0482607)
(2.1171e-15 0.793459 -0.000324073)
(2.87597e-15 0.863769 0.154912)
(2.14051e-15 0.580201 0.0526419)
(1.98328e-15 0.635238 0.0487725)
(2.26476e-15 0.618895 0.0146584)
(3.02734e-15 0.650604 0.161483)
(2.06136e-15 0.415753 0.0652622)
(1.93522e-15 0.461365 0.0766845)
(1.72831e-15 0.443882 0.048196)
(2.37629e-15 0.501853 0.272368)
(3.14248e-16 0.354303 0.257905)
(6.66043e-17 0.357959 0.203493)
(-2.87793e-16 0.454808 0.49665)
(7.79534e-16 0.346478 0.547377)
(1.01153e-15 0.34614 0.601726)
(1.08187e-15 0.284108 0.555651)
(1.46377e-15 0.312478 0.709128)
(1.47402e-15 0.181152 0.577894)
(2.22462e-17 0.149787 0.552458)
(4.12672e-15 0.106775 0.736416)
(5.46921e-15 0.223963 -0.99696)
(-5.21763e-16 -0.161087 -2.22247)
(-1.70769e-14 0.608009 -2.48855)
(2.88161e-15 -0.0465782 -2.8333)
(1.36874e-15 -0.354354 -1.35906)
(2.07607e-15 -0.183501 -1.36261)
(2.42983e-15 -0.00323943 -1.23614)
(1.75004e-15 -0.474755 -0.3471)
(-9.19327e-16 -1.01226 0.870052)
(-8.71463e-16 -0.779166 0.934793)
(-3.4831e-15 -1.64761 2.73506)
(-4.3239e-15 -2.03117 2.98798)
(-4.94509e-15 -2.25998 3.03623)
(-5.74226e-15 -2.182 3.1627)
(-9.6868e-15 -3.53842 5.41136)
(-8.08537e-15 -3.75442 4.53057)
(-8.33868e-15 -4.20713 4.51093)
(-8.30503e-15 -4.0286 4.54732)
(-1.12278e-14 -6.05892 7.24416)
(-7.93665e-15 -6.07684 5.79738)
(-7.97124e-15 -6.04085 6.26667)
(-1.0141e-14 -8.43444 9.72276)
(-7.11202e-15 -8.24397 7.66988)
(-7.26523e-15 -8.47674 8.43956)
(-8.13696e-15 -9.13943 10.2824)
(-7.89839e-15 -8.9799 10.0091)
(-8.60077e-15 -9.03234 10.3094)
(-1.14911e-14 -10.4549 12.4853)
(-1.11168e-14 -9.81449 11.7187)
(-1.22708e-14 -9.95308 12.3298)
(-1.31073e-14 -9.93 12.5349)
(-1.37897e-14 -9.98381 12.7269)
(-1.41265e-14 -10.0158 12.8707)
(-1.42016e-14 -10.0748 12.9824)
(-1.4036e-14 -10.1378 13.1106)
(-1.38433e-14 -10.1301 13.3343)
(-1.52089e-14 -11.2105 15.3784)
(-1.27591e-14 -10.7575 14.5259)
(-1.26865e-14 -10.8759 14.9314)
(-1.27313e-14 -10.8755 15.214)
(-1.28783e-14 -10.9681 15.5553)
(-1.30539e-14 -11.0147 15.8871)
(-1.30752e-14 -11.0978 16.0632)
(-1.29856e-14 -11.1901 16.2405)
(-1.27186e-14 -11.2267 16.4413)
(-1.20726e-14 -12.1339 18.3334)
(-9.2871e-15 -11.6009 17.0306)
(-7.52566e-15 -11.7638 17.2274)
(-5.65906e-15 -11.7879 17.2398)
(-3.74778e-15 -11.8819 17.4255)
(-1.95045e-15 -11.9284 17.7781)
(-3.77415e-16 -12.0382 18.243)
(1.07243e-15 -12.0834 18.562)
(2.23913e-15 -12.1969 18.9097)
(3.07044e-15 -12.2899 19.1931)
(5.04594e-15 -12.5635 20.5217)
(4.26236e-15 -12.2247 19.4206)
(4.70768e-15 -12.3463 19.6783)
(4.78862e-15 -12.3672 19.79)
(4.88916e-15 -12.4689 19.9923)
(4.87257e-15 -12.5006 20.2101)
(4.84936e-15 -12.609 20.567)
(5.0359e-15 -12.6397 20.6773)
(5.26801e-15 -12.7657 20.6631)
(6.69377e-15 -12.1417 20.2512)
(5.2884e-15 -12.1317 19.5124)
(5.23543e-15 -12.1879 19.4348)
(5.11943e-15 -12.2414 19.3876)
(5.0024e-15 -12.2345 19.2059)
(4.95255e-15 -12.2795 19.1817)
(5.07271e-15 -12.3014 19.2134)
(5.32234e-15 -12.2653 19.3457)
(5.69414e-15 -12.4832 19.7297)
(6.83931e-15 -10.718 17.9702)
(6.12782e-15 -11.2451 18.6587)
(6.42483e-15 -11.1787 18.7006)
(6.59344e-15 -11.1646 18.8329)
(6.9096e-15 -11.167 19.1642)
(7.02288e-15 -11.1346 19.1627)
(6.99636e-15 -11.0712 18.9737)
(6.89354e-15 -11.0098 18.6623)
(6.74254e-15 -11.0824 18.1416)
(6.7739e-15 -8.45956 14.203)
(6.52373e-15 -9.36814 15.8674)
(5.99238e-15 -9.13335 14.605)
(5.70829e-15 -9.16869 13.8092)
(5.58648e-15 -9.02394 12.934)
(5.73837e-15 -8.90856 12.2575)
(6.73229e-15 -8.78258 11.9946)
(6.11373e-15 -8.55054 11.2907)
(6.1109e-15 -8.35778 10.8685)
(5.88823e-15 -8.25408 10.3278)
(3.56004e-15 -4.70341 4.95275)
(5.9294e-15 -6.38778 9.29259)
(5.71647e-15 -5.81378 8.3665)
(5.46051e-15 -5.91129 8.06758)
(5.06099e-15 -5.55799 7.29536)
(4.43159e-15 -5.4691 6.26294)
(3.31081e-15 -5.25342 4.27255)
(2.28532e-15 -4.87401 2.25249)
(2.32234e-15 -4.85504 2.00518)
(2.81723e-16 -3.81344 -1.31535)
(1.88249e-15 -4.07351 0.927966)
(1.39905e-15 -4.01196 -0.0891569)
(-7.13794e-16 -2.86317 -2.34371)
(3.38357e-16 -4.6128 -1.4422)
(-1.76065e-16 -3.41969 -1.44365)
(-1.32167e-16 -3.15479 -0.937407)
(-2.53813e-16 -3.88016 -1.34863)
(-2.07857e-16 -2.70956 -0.806324)
(-2.88283e-16 -3.39636 -1.18883)
(-1.55438e-16 -3.1071 -0.847917)
(-9.67544e-17 -2.56073 -0.595826)
(-1.19491e-16 -3.03935 -0.851849)
(-5.77963e-17 -2.84301 -0.59077)
(-1.93675e-17 -2.42184 -0.39072)
(-1.1117e-17 -3.20485 -0.522797)
(-3.63486e-17 -2.22346 -0.267428)
(-7.91696e-17 -2.89603 -0.361676)
(8.04489e-17 -2.62465 -0.20757)
(5.44505e-18 -2.30643 -0.101023)
(-2.44762e-17 -3.09293 -0.132449)
(3.6008e-18 -2.16246 -0.0189917)
(-1.2562e-16 -2.86291 -0.00335879)
(-2.17521e-16 -2.72418 0.0256326)
(-2.37332e-16 -2.28499 0.0631723)
(-4.52785e-16 -2.8159 0.078666)
(-4.94817e-16 -2.71491 0.0711367)
(-3.85455e-16 -2.35573 0.0891922)
(-6.11796e-16 -3.20876 0.093282)
(-4.89803e-16 -2.26405 0.0960185)
(-7.11119e-16 -2.99403 0.144671)
(-3.97738e-16 -2.76819 0.0986598)
(-3.35864e-16 -2.44474 0.103972)
(-4.2015e-16 -3.3173 0.109256)
(-2.83987e-16 -2.32969 0.0966671)
(-4.00105e-16 -3.09305 0.141208)
(-3.19191e-16 -2.95692 0.060225)
(-2.11113e-16 -2.46954 0.0618032)
(-3.33462e-16 -3.04186 0.0416483)
(-2.74868e-16 -2.92459 -0.0268741)
(-1.91629e-16 -2.52054 -0.0138206)
(-3.01847e-16 -3.42284 -0.0743656)
(-2.37921e-16 -2.38468 -0.0567322)
(-3.75815e-16 -3.1418 -0.104481)
(-3.44974e-16 -2.87403 -0.155808)
(-3.70851e-16 -2.50861 -0.115583)
(-5.0781e-16 -3.38138 -0.204778)
(-3.28431e-16 -2.32925 -0.144225)
(-5.07226e-16 -3.07702 -0.221907)
(-4.16827e-16 -2.90056 -0.254888)
(-2.99153e-16 -2.38439 -0.192171)
(-4.41923e-16 -2.91385 -0.31567)
(-3.84735e-16 -2.76581 -0.316273)
(-3.32158e-16 -2.34461 -0.239249)
(-4.84224e-16 -3.1722 -0.361708)
(-4.10004e-16 -2.15786 -0.253882)
(-5.37728e-16 -2.84213 -0.383979)
(-3.83973e-16 -2.55151 -0.376424)
(-3.01098e-16 -2.19446 -0.291405)
(-3.92825e-16 -2.95579 -0.431138)
(-2.51898e-16 -1.97823 -0.305559)
(-3.81172e-16 -2.62331 -0.457736)
(-3.17496e-16 -2.41913 -0.447124)
(-2.74119e-16 -1.94833 -0.351249)
(-3.66664e-16 -2.38074 -0.541241)
(-2.46054e-16 -2.2107 -0.506149)
(-2.98058e-16 -1.82855 -0.396832)
(-3.83525e-16 -2.49465 -0.571485)
(-3.38113e-16 -1.61109 -0.411113)
(-4.98829e-16 -2.15758 -0.621797)
(-4.47567e-16 -1.86355 -0.57791)
(-3.29922e-16 -1.55313 -0.459748)
(-4.53724e-16 -2.12819 -0.656703)
(-3.43659e-16 -1.31053 -0.47641)
(-5.08573e-16 -1.79982 -0.719853)
(-3.9583e-16 -1.57599 -0.670392)
(-4.20366e-16 -1.18629 -0.540565)
(-6.15845e-16 -1.49631 -0.816129)
(-6.00524e-16 -1.30352 -0.741508)
(-5.12147e-16 -0.986001 -0.587229)
(-7.20469e-16 -1.47558 -0.823036)
(-5.97991e-16 -0.753104 -0.596093)
(-9.11765e-16 -1.03789 -0.91081)
(2.68635e-45 0.248916 0.271464)
(9.35274e-45 0.306711 0.268675)
(7.58791e-45 0.343141 0.270626)
(-6.13531e-44 0.378753 0.271738)
(-3.22114e-43 0.413473 0.27461)
(-6.01877e-43 0.446306 0.277729)
(1.19294e-42 0.478534 0.281842)
(1.09421e-41 0.50978 0.2865)
(2.59029e-41 0.540532 0.291924)
(-3.17488e-41 0.570765 0.297973)
(-3.98403e-40 0.600693 0.304711)
(-9.6659e-40 0.63038 0.312092)
(1.33786e-39 0.65995 0.320132)
(1.50616e-38 0.689476 0.328814)
(3.17492e-38 0.719048 0.338143)
(-7.04603e-38 0.74873 0.348112)
(-5.56539e-37 0.778588 0.358722)
(-8.44421e-37 0.808672 0.369968)
(3.59131e-36 0.839021 0.381849)
(1.89102e-35 0.869661 0.39436)
(1.351e-35 0.900602 0.407491)
(-1.60553e-34 0.931834 0.421232)
(-5.57397e-34 0.963328 0.435566)
(2.0326e-34 0.99503 0.450469)
(6.12384e-33 1.02687 0.465913)
(1.32408e-32 1.05874 0.481862)
(-2.79549e-32 1.09056 0.498276)
(-1.98901e-31 1.1222 0.51511)
(-2.11876e-31 1.15356 0.53232)
(1.43299e-30 1.18455 0.549863)
(5.63733e-30 1.21514 0.567699)
(4.31514e-32 1.2453 0.585797)
(-5.60742e-29 1.27508 0.604134)
(-1.511e-28 1.30457 0.622692)
(1.4036e-28 1.33388 0.641461)
(1.91862e-27 1.36314 0.660425)
(4.41076e-27 1.39251 0.679569)
(-4.89898e-27 1.42211 0.698873)
(-5.79354e-26 1.45212 0.718328)
(-1.45969e-25 1.48279 0.73794)
(3.26145e-26 1.51451 0.757744)
(1.39788e-24 1.54779 0.777786)
(4.59014e-24 1.58319 0.798077)
(4.61666e-24 1.62105 0.818527)
(-2.02313e-23 1.66135 0.838886)
(-1.07991e-22 1.70363 0.858726)
(-2.39176e-22 1.74712 0.877429)
(-9.6272e-23 1.79077 0.894192)
(1.29462e-21 1.83338 0.908021)
(5.41671e-21 1.87368 0.917714)
(1.19019e-20 1.91026 0.921794)
(1.1285e-20 1.94144 0.918424)
(-2.87945e-20 1.96494 0.90528)
(-1.78891e-19 1.97746 0.879456)
(-5.39327e-19 1.97409 0.83744)
(-1.13494e-18 1.94788 0.775224)
(-1.54723e-18 1.88904 0.688541)
(2.12163e-20 1.78267 0.573623)
(8.64739e-18 1.60941 0.427106)
(3.52332e-17 1.32532 0.249716)
(9.21364e-17 0.824428 0.0479619)
(8.44811e-17 -0.349239 -0.27756)
(-1.09555e-18 -1.10414 -0.329533)
(-2.9363e-18 -1.65374 -0.346233)
(-5.60113e-19 -2.15142 -0.367411)
(-1.38296e-20 -2.64286 -0.376756)
(1.36745e-20 -3.08797 -0.386842)
(1.65895e-21 -3.47304 -0.386342)
(-2.39632e-22 -3.75775 -0.394227)
(-7.06652e-23 -3.96651 -0.383291)
(-6.49964e-23 -4.02197 -0.387782)
(1.11484e-22 -4.06639 -0.347814)
(-4.39758e-22 -3.9173 -0.356685)
(2.12955e-21 -4.02479 -0.266231)
(-1.37025e-20 -3.66865 -0.349353)
(1.97297e-19 -4.21091 -0.168069)
(-3.16918e-18 -3.54923 -0.441774)
(3.93725e-17 -4.33611 -0.236547)
(-4.61493e-17 -6.12919 -0.471896)
(6.30331e-45 0.249517 0.294009)
(2.39117e-44 0.306943 0.289743)
(2.52363e-44 0.342721 0.291593)
(-1.29895e-43 0.378167 0.292336)
(-7.6826e-43 0.412556 0.295192)
(-1.61188e-42 0.445181 0.29828)
(2.08406e-42 0.477157 0.302498)
(2.49228e-41 0.508189 0.307298)
(6.60112e-41 0.538715 0.312938)
(-4.42627e-41 0.568734 0.319249)
(-8.78705e-40 0.598448 0.326302)
(-2.42447e-39 0.627924 0.334042)
(1.85304e-39 0.657284 0.342486)
(3.25983e-38 0.686603 0.351613)
(8.0821e-38 0.715967 0.361427)
(-1.09586e-37 0.745444 0.371918)
(-1.19901e-36 0.775097 0.383085)
(-2.32395e-36 0.804977 0.394922)
(6.04453e-36 0.835123 0.407421)
(4.13258e-35 0.865563 0.420573)
(5.19233e-35 0.896308 0.434366)
(-2.79643e-34 0.927349 0.44878)
(-1.27579e-33 0.958658 0.463791)
(-6.46857e-34 0.990184 0.479367)
(1.06155e-32 1.02186 0.495472)
(3.38479e-32 1.05358 0.512061)
(-9.80153e-33 1.08526 0.529089)
(-3.2376e-31 1.11677 0.546508)
(-7.13832e-31 1.14802 0.564273)
(9.3874e-31 1.17892 0.582347)
(7.59567e-30 1.20941 0.6007)
(8.25048e-30 1.2395 0.619312)
(-4.20356e-29 1.26921 0.638176)
(-1.29625e-28 1.29862 0.657287)
(2.04275e-28 1.32786 0.676645)
(1.85415e-27 1.35707 0.696241)
(2.17206e-27 1.38637 0.71606)
(-1.64035e-26 1.41593 0.736087)
(-8.16235e-26 1.44588 0.756325)
(-1.06262e-25 1.47649 0.776813)
(4.84118e-25 1.50813 0.797628)
(2.89598e-24 1.54133 0.81885)
(6.27078e-24 1.57665 0.840486)
(-2.87983e-24 1.6145 0.862374)
(-6.63028e-23 1.65491 0.884145)
(-2.29152e-22 1.69746 0.905237)
(-3.41118e-22 1.74146 0.924916)
(4.68877e-22 1.7859 0.942279)
(4.34199e-21 1.82966 0.956268)
(1.33948e-20 1.87153 0.965625)
(2.20071e-20 1.91022 0.96881)
(-3.15757e-21 1.94418 0.963868)
(-1.53402e-19 1.9713 0.948269)
(-5.85761e-19 1.98848 0.918791)
(-1.40596e-18 1.99099 0.871546)
(-2.21225e-18 1.97198 0.802159)
(-9.65639e-19 1.92164 0.706036)
(8.19576e-18 1.82494 0.579588)
(3.83835e-17 1.66167 0.419075)
(1.13023e-16 1.38683 0.225254)
(2.52236e-16 0.912839 0.009077)
(2.03465e-16 -0.352216 -0.377726)
(8.61446e-18 -1.12967 -0.372566)
(-4.09138e-18 -1.67837 -0.36566)
(-6.69992e-19 -2.1769 -0.381533)
(-1.15006e-20 -2.6697 -0.385844)
(1.53597e-20 -3.1142 -0.389732)
(1.88992e-21 -3.49659 -0.384702)
(-2.52343e-22 -3.77907 -0.388927)
(-7.7374e-23 -3.98393 -0.375573)
(-6.50857e-23 -4.0386 -0.378857)
(1.11133e-22 -4.07819 -0.33896)
(-4.39681e-22 -3.93094 -0.347951)
(2.1388e-21 -4.02573 -0.259293)
(-1.39359e-20 -3.67696 -0.342243)
(2.01924e-19 -4.1938 -0.164255)
(-3.23682e-18 -3.53291 -0.433916)
(3.92113e-17 -4.32011 -0.232597)
(-4.38288e-17 -6.03901 -0.477001)
(1.15677e-44 0.249925 0.306033)
(4.67253e-44 0.307153 0.301191)
(5.6947e-44 0.342553 0.30297)
(-2.17355e-43 0.377906 0.303528)
(-1.41937e-42 0.412117 0.306377)
(-3.2138e-42 0.444635 0.309456)
(2.80257e-42 0.476481 0.313735)
(4.4164e-41 0.507403 0.318618)
(1.26348e-40 0.537814 0.324381)
(-4.03122e-41 0.567726 0.330839)
(-1.50798e-39 0.597331 0.338069)
(-4.5366e-39 0.626702 0.346009)
(1.77013e-39 0.655957 0.354677)
(5.47852e-38 0.685173 0.364052)
(1.49848e-37 0.714434 0.374133)
(-1.35881e-37 0.743809 0.384913)
(-2.00018e-36 0.773361 0.396387)
(-4.36383e-36 0.803141 0.408547)
(8.59057e-36 0.83319 0.421385)
(6.9757e-35 0.863535 0.434889)
(1.05233e-34 0.894187 0.449041)
(-4.26284e-34 0.92514 0.46382)
(-2.25249e-33 0.956367 0.479196)
(-1.9645e-33 0.987817 0.495133)
(1.68045e-32 1.01942 0.51159)
(6.64024e-32 1.05108 0.52852)
(3.10938e-32 1.0827 0.545873)
(-5.10934e-31 1.11417 0.563602)
(-1.73952e-30 1.14537 0.581663)
(-8.91317e-31 1.17623 0.600022)
(1.03521e-29 1.20669 0.618656)
(3.51382e-29 1.23674 0.637554)
(3.94409e-29 1.26641 0.656716)
(-3.6764e-29 1.29578 0.676146)
(-1.61399e-28 1.32498 0.695846)
(-7.27604e-28 1.35415 0.71581)
(-6.07813e-27 1.38342 0.736022)
(-2.77261e-26 1.41293 0.756468)
(-4.62403e-26 1.44284 0.777161)
(1.76331e-25 1.47339 0.798163)
(1.39491e-24 1.50495 0.819578)
(4.0962e-24 1.53807 0.841507)
(2.63855e-24 1.57332 0.863944)
(-2.981e-23 1.61116 0.886677)
(-1.47691e-22 1.65164 0.909258)
(-3.35148e-22 1.69438 0.931058)
(-9.59923e-23 1.73869 0.951284)
(2.33743e-21 1.7836 0.968992)
(1.00754e-20 1.828 0.983108)
(2.2731e-20 1.87073 0.99236)
(1.86253e-20 1.91053 0.995183)
(-8.11186e-20 1.94596 0.989561)
(-4.44664e-19 1.975 0.972843)
(-1.26171e-18 1.99465 0.941634)
(-2.3517e-18 2.00029 0.891868)
(-2.0883e-18 1.98511 0.819091)
(4.73547e-18 1.93919 0.718754)
(3.02218e-17 1.84743 0.587775)
(9.73692e-17 1.68915 0.422487)
(2.41706e-16 1.41896 0.223546)
(4.8717e-16 0.958658 0.0036128)
(4.62948e-16 -0.293107 -0.412729)
(3.23955e-17 -1.12037 -0.43874)
(-6.61099e-18 -1.66373 -0.39724)
(-9.45113e-19 -2.16072 -0.402792)
(-4.12157e-21 -2.65501 -0.400621)
(1.83394e-20 -3.10134 -0.395283)
(2.19928e-21 -3.48501 -0.383177)
(-2.71471e-22 -3.77004 -0.381877)
(-8.65551e-23 -3.97698 -0.364663)
(-6.52498e-23 -4.03646 -0.365912)
(1.10727e-22 -4.07766 -0.325991)
(-4.396e-22 -3.93748 -0.334913)
(2.15026e-21 -4.02645 -0.248669)
(-1.42175e-20 -3.68863 -0.331461)
(2.0757e-19 -4.18683 -0.157167)
(-3.31603e-18 -3.52949 -0.424137)
(3.9025e-17 -4.32001 -0.222243)
(-4.18265e-17 -5.98089 -0.48823)
(2.06774e-44 0.250566 0.32013)
(8.92707e-44 0.307468 0.314744)
(1.23127e-43 0.342323 0.316464)
(-3.46979e-43 0.377524 0.316852)
(-2.55709e-42 0.411463 0.319709)
(-6.24639e-42 0.443811 0.322799)
(3.02302e-42 0.475456 0.327164)
(7.58144e-41 0.506208 0.332161)
(2.35143e-40 0.536442 0.338082)
(4.77937e-42 0.566188 0.344728)
(-2.48529e-39 0.595626 0.352179)
(-8.18412e-39 0.624834 0.360369)
(2.91188e-40 0.653927 0.369315)
(8.76074e-38 0.682983 0.378994)
(2.62991e-37 0.712086 0.389407)
(-1.39742e-37 0.741305 0.400541)
(-3.1477e-36 0.770701 0.412392)
(-7.43652e-36 0.800327 0.42495)
(1.20967e-35 0.830225 0.438204)
(1.10381e-34 0.860421 0.45214)
(1.72888e-34 0.89093 0.466737)
(-6.90035e-34 0.921745 0.481967)
(-3.72547e-33 0.952841 0.497798)
(-3.16762e-33 0.984169 0.514187)
(3.01332e-32 1.01566 0.531087)
(1.22607e-31 1.04722 0.548447)
(6.70681e-32 1.07875 0.566213)
(-1.01091e-30 1.11014 0.584337)
(-3.9179e-30 1.14127 0.602775)
(-3.62518e-30 1.17207 0.621498)
(2.25193e-29 1.20246 0.640488)
(1.10123e-28 1.23245 0.659743)
(2.16986e-28 1.26206 0.679273)
(-5.25202e-29 1.29137 0.699092)
(-1.97633e-27 1.32051 0.719208)
(-8.31848e-27 1.34962 0.739617)
(-2.10549e-26 1.37884 0.760302)
(-1.81704e-26 1.4083 0.781251)
(1.44207e-25 1.43814 0.802489)
(9.2297e-25 1.46861 0.824098)
(2.82659e-24 1.50007 0.846219)
(3.20853e-24 1.53306 0.868976)
(-1.46329e-23 1.56823 0.892363)
(-9.59028e-23 1.60605 0.916117)
(-2.75391e-22 1.64663 0.939704)
(-3.04024e-22 1.68964 0.962416)
(1.09629e-21 1.73441 0.983385)
(7.02031e-21 1.78001 1.00162)
(2.01004e-20 1.82536 1.01601)
(2.89086e-20 1.86935 1.02526)
(-2.75915e-20 1.91082 1.0278)
(-3.0985e-19 1.94844 1.02152)
(-1.06408e-18 1.98035 1.00366)
(-2.32378e-18 2.00371 0.970634)
(-2.92558e-18 2.014 0.91827)
(1.62545e-18 2.00445 0.842178)
(2.26122e-17 1.96501 0.738111)
(8.22668e-17 1.8804 0.603726)
(2.16991e-16 1.72935 0.435508)
(4.75271e-16 1.4666 0.234308)
(8.81075e-16 1.02323 0.00866133)
(9.83032e-16 -0.244102 -0.439417)
(8.5121e-17 -1.12549 -0.519327)
(-1.12063e-17 -1.66667 -0.444777)
(-1.59775e-18 -2.15862 -0.432525)
(6.3509e-21 -2.65374 -0.421489)
(2.36001e-20 -3.10109 -0.404295)
(2.5988e-21 -3.48439 -0.382316)
(-2.9557e-22 -3.7701 -0.37358)
(-9.7451e-23 -3.97698 -0.350949)
(-6.55383e-23 -4.03877 -0.349238)
(1.1034e-22 -4.07968 -0.309018)
(-4.39526e-22 -3.944 -0.317877)
(2.16207e-21 -4.02671 -0.234355)
(-1.44995e-20 -3.69711 -0.317611)
(2.13314e-19 -4.17897 -0.147065)
(-3.39299e-18 -3.52399 -0.412498)
(3.88389e-17 -4.31562 -0.210378)
(-3.94117e-17 -5.93054 -0.467058)
(3.5339e-44 0.251198 0.333499)
(1.64537e-43 0.307798 0.327762)
(2.54856e-43 0.342159 0.32943)
(-5.06954e-43 0.377213 0.329691)
(-4.41389e-42 0.410902 0.332566)
(-1.17225e-41 0.443093 0.335684)
(1.03937e-42 0.474556 0.340143)
(1.23032e-40 0.505154 0.345261)
(4.2074e-40 0.535228 0.351344)
(1.67369e-40 0.564824 0.358182)
(-3.79643e-39 0.594112 0.365855)
(-1.40515e-38 0.623175 0.374295)
(-5.36464e-39 0.652123 0.383519)
(1.26693e-37 0.681037 0.393501)
(4.29613e-37 0.709999 0.404241)
(-3.65824e-38 0.739078 0.415726)
(-4.35596e-36 0.768336 0.42795)
(-1.11443e-35 0.797827 0.440901)
(1.494e-35 0.827592 0.454567)
(1.49393e-34 0.85766 0.468929)
(2.07429e-34 0.888045 0.483964)
(-1.10834e-33 0.918743 0.49964)
(-5.19201e-33 0.949729 0.515919)
(-1.33876e-33 0.980958 0.532755)
(5.7158e-32 1.01236 0.550093)
(1.92893e-31 1.04384 0.567879)
(-3.07563e-32 1.0753 0.586054)
(-2.27141e-30 1.10663 0.604569)
(-7.6113e-30 1.13771 0.623381)
(-3.4368e-30 1.16845 0.642464)
(6.48977e-29 1.1988 0.661808)
(2.79031e-28 1.22874 0.681419)
(4.55454e-28 1.25829 0.701317)
(-8.26056e-28 1.28754 0.721525)
(-7.64429e-27 1.31662 0.742059)
(-2.44487e-26 1.34567 0.762914)
(-3.34111e-26 1.37483 0.784073)
(8.72295e-26 1.40423 0.805525)
(7.18037e-25 1.43401 0.827303)
(2.38935e-24 1.46438 0.849515)
(3.72887e-24 1.49571 0.872334)
(-6.5552e-24 1.52857 0.89592)
(-6.47429e-23 1.56363 0.920265)
(-2.22262e-22 1.60143 0.945053)
(-3.73779e-22 1.64212 0.96967)
(3.51396e-22 1.68539 0.993325)
(4.6305e-21 1.73062 1.01508)
(1.64433e-20 1.77687 1.0339)
(3.18739e-20 1.82311 1.04864)
(8.06562e-21 1.86827 1.05802)
(-1.94531e-19 1.91126 1.06042)
(-8.43976e-19 1.95087 1.0537)
(-2.14364e-18 1.9854 1.03496)
(-3.39286e-18 2.01213 1.00057)
(-9.30803e-19 2.02662 0.946438)
(1.54823e-17 2.02203 0.868593)
(6.73019e-17 1.98815 0.763521)
(1.90868e-16 1.90955 0.629862)
(4.3708e-16 1.76453 0.464138)
(8.62842e-16 1.50895 0.266947)
(1.48525e-15 1.08002 0.038291)
(1.84613e-15 -0.190846 -0.445862)
(1.88737e-16 -1.1354 -0.601387)
(-1.72382e-17 -1.68021 -0.513105)
(-3.13576e-18 -2.16569 -0.474872)
(-1.63428e-20 -2.66087 -0.449543)
(3.409e-20 -3.10904 -0.417719)
(3.4228e-21 -3.49095 -0.382666)
(-3.29576e-22 -3.77618 -0.364218)
(-1.1131e-22 -3.98165 -0.334445)
(-6.59755e-23 -4.04443 -0.328653)
(1.09992e-22 -4.08379 -0.287742)
(-4.39443e-22 -3.95164 -0.296487)
(2.17355e-21 -4.02681 -0.215972)
(-1.47644e-20 -3.70504 -0.300326)
(2.18863e-19 -4.16925 -0.133591)
(-3.46372e-18 -3.51658 -0.399035)
(3.86724e-17 -4.30877 -0.193676)
(-3.84883e-17 -5.87247 -0.473239)
(5.73958e-44 0.251906 0.346813)
(2.92799e-43 0.308162 0.340839)
(5.09272e-43 0.341997 0.342469)
(-6.39827e-43 0.37688 0.342642)
(-7.27719e-42 0.410294 0.345548)
(-2.13544e-41 0.442309 0.348712)
(-7.27643e-42 0.473569 0.353278)
(1.86344e-40 0.503995 0.358532)
(7.28181e-40 0.533892 0.364789)
(6.26617e-40 0.563322 0.371831)
(-5.19531e-39 0.592444 0.379739)
(-2.31355e-38 0.621346 0.388442)
(-2.22615e-38 0.650134 0.397956)
(1.53839e-37 0.678891 0.408253)
(6.57725e-37 0.707697 0.419333)
(4.34747e-37 0.736622 0.431182)
(-4.5937e-36 0.765729 0.443793)
(-1.43521e-35 0.795071 0.457151)
(8.71173e-36 0.82469 0.471242)
(1.35413e-34 0.854617 0.486046)
(9.49375e-35 0.884866 0.501536)
(-1.50781e-33 0.915436 0.517675)
(-4.42781e-33 0.946304 0.534421)
(1.09164e-32 0.977424 0.551721)
(1.01591e-31 1.00873 0.569516)
(2.00898e-31 1.04013 0.587746)
(-6.35646e-31 1.07151 0.60635)
(-4.96982e-30 1.10277 0.625275)
(-1.13022e-29 1.1338 0.644481)
(1.39909e-29 1.16449 0.663943)
(1.81318e-28 1.19478 0.683658)
(5.69855e-28 1.22466 0.703643)
(3.98724e-28 1.25415 0.723926)
(-4.17052e-27 1.28334 0.744541)
(-2.11853e-26 1.31235 0.76551)
(-4.77845e-26 1.34133 0.786831)
(2.64864e-27 1.37043 0.808484)
(4.7055e-25 1.39977 0.830457)
(2.01101e-24 1.42946 0.852792)
(4.28794e-24 1.45972 0.875622)
(-2.27097e-25 1.4909 0.89916)
(-4.09297e-23 1.52359 0.923601)
(-1.75634e-22 1.55852 0.948944)
(-3.89644e-22 1.59629 0.974825)
(-1.2676e-22 1.6371 1.00054)
(2.78044e-21 1.68067 1.02522)
(1.27197e-20 1.7264 1.04785)
(3.08594e-20 1.77339 1.06735)
(3.02698e-20 1.82061 1.08257)
(-1.02111e-19 1.86704 1.0922)
(-6.29409e-19 1.9117 1.09461)
(-1.87186e-18 1.95349 1.08762)
(-3.54415e-18 1.99087 1.06831)
(-2.86643e-18 2.02124 1.03315)
(9.11014e-18 2.04013 0.978531)
(5.26686e-17 2.04062 0.901387)
(1.6409e-16 2.01226 0.79934)
(3.96031e-16 1.93959 0.671916)