/*--------------------------------*- C++ -*----------------------------------*\
| =========                 |                                                 |
| \\      /  F ield         | OpenFOAM: The Open Source CFD Toolbox           |
|  \\    /   O peration     | Version:  4.1                                   |
|   \\  /    A nd           | Web:      www.OpenFOAM.org                      |
|    \\/     M anipulation  |                                                 |
\*---------------------------------------------------------------------------*/
FoamFile
{
    version     2.0;
    format      ascii;
    class       volScalarField;
    location    "19";
    object      p;
}
// * * * * * * * * * * * * * * * * * * * * * * * * * * * * * * * * * * * * * //

dimensions      [0 2 -2 0 0 0 0];

internalField   nonuniform List<scalar> 
6785
(
3949.35
3883.26
3832.58
3782.88
3736.91
3693.73
3653.22
3615.12
3579.27
3545.09
3511.92
3481.03
3452.9
3419.15
3383.38
3408.01
3390.64
3394.69
3390.32
3387.58
3384.6
3382.09
3380.19
3379.14
3379.05
3379.81
3381.74
3385.7
3389.99
3391.39
3371.53
3365.81
3375.86
3374.81
3378.55
3380.84
3383.46
3385.84
3388.04
3390.01
3391.77
3393.42
3394.76
3395.6
3396.01
3413.95
3410.58
3414.75
3410.03
3409.98
3407.44
3405.52
3403.25
3401
3398.76
3396.89
3395.75
3394.77
3393.76
3393.28
3393.14
3389.63
3391.38
3387.11
3387.53
3385.38
3384.36
3383.09
3382.04
3381.13
3380.52
3380.29
3379.94
3379.64
3380.21
3380.41
3378.31
3380.51
3377.97
3379.63
3378.76
3379.09
3379.12
3379.24
3379.4
3379.65
3380.01
3380.49
3380.95
3382.14
3388.75
3388.34
3390.75
3389.31
3391.24
3391.01
3391.81
3392.33
3392.89
3393.48
3394.11
3394.74
3395.52
3396.16
3397.28
3400.37
3400.92
3403.04
3402.08
3403.86
3403.87
3404.74
3405.37
3406.03
3406.72
3407.45
3408.14
3408.93
3409.57
3410.4
3410.42
3411.44
3413.16
3412.44
3414.05
3414.08
3414.88
3415.42
3416
3416.6
3417.21
3417.81
3418.47
3418.99
3419.74
3419.93
3421.21
3422.47
3422.04
3423.42
3423.4
3424.15
3424.51
3424.95
3425.35
3425.79
3426.25
3426.76
3427.17
3427.76
3428.74
3429.78
3430.62
3430.26
3431.33
3431.17
3431.75
3431.84
3432.04
3432.11
3432.19
3432.3
3432.46
3432.68
3432.9
3432.81
3433.04
3433.44
3432.79
3433.38
3432.83
3432.98
3432.63
3432.4
3431.96
3431.52
3431.13
3430.88
3430.81
3430.45
3432.65
3431.59
3430.87
3429.62
3429.22
3427.99
3427.44
3426.54
3425.87
3425.03
3424.23
3423.52
3423
3422.56
3421.69
3419.51
3419.96
3419.34
3417.82
3416.65
3414.92
3413.66
3412.15
3410.93
3409.78
3408.96
3408.52
3408.39
3407.98
3407.13
3450.06
3446.83
3440.47
3432.09
3423.51
3415.53
3408.72
3403.15
3399.33
3398.19
3399.35
3399.86
3399.49
3398.61
3398.05
3464.61
3464.53
3464.62
3464.61
3464.65
3464.54
3464.66
3464.64
3464.69
3464.66
3464.64
3464.68
3464.62
3464.67
3464.65
3464.69
3464.76
3464.64
3464.72
3464.69
3464.72
3464.7
3464.76
3464.76
3464.77
3464.77
3464.82
3464.91
3464.81
3464.9
3464.84
3464.88
3464.89
3464.93
3464.92
3464.88
3464.93
3464.8
3464.82
3464.82
3464.85
3464.75
3464.72
3464.75
3464.8
3464.74
3464.84
3464.9
3464.91
3465.09
3465.11
3465.22
3465.22
3465.39
3465.37
3465.42
3465.47
3465.61
3465.53
3465.51
3465.8
3465.68
3465.7
3465.65
3465.9
3465.79
3466.07
3465.77
3465.11
3465.39
3465.18
3461.2
3459.31
3460.3
3458.11
3445.77
3450.08
3446.67
3418.75
3424.01
3426.69
3425.84
3426.5
3417.05
3413.16
3417.1
3416.95
3416.96
3416.15
3416.26
3418.75
3420.07
3412.15
3403.74
3403.95
3406.84
3409.12
3408.49
3409.07
3410.11
3410.22
3400.1
3398.51
3399.42
3399.58
3400.93
3403.54
3404.77
3405.33
3406.84
3405.56
3392.47
3395.56
3396.47
3397.11
3397.59
3399.51
3402.42
3404.26
3401.83
3383.48
3394.16
3397.05
3398.95
3399.4
3399.71
3400.5
3403.54
3402.44
3385.99
3397.73
3396.85
3398.88
3400.57
3400.71
3401.35
3401.98
3398.58
3383.12
3402.34
3400.84
3401.29
3400.78
3400.5
3400.4
3401.02
3401.89
3399.64
3379.88
3399.43
3397.84
3400.33
3403.19
3402.26
3394.39
3393.51
3398.85
3379.44
3398.15
3391.06
3390.82
3408.82
3360.62
3378.58
3362.3
3397.9
3417.36
3392.74
3433.64
3451.74
3454.74
3479.92
3487.04
3504.7
3506.12
3518.86
3518.83
3495.4
3498.07
3473.22
3488.48
3458.76
3398.59
3454.27
3411.02
3352.94
3371.28
3337.99
3422.36
3367.25
3308.2
3340.17
3317.34
3413.26
3373.12
3299.68
3409.5
3381.75
3334.55
3366.15
3357.48
3426.63
3401.72
3372.78
3395.84
3392.92
3432.29
3419.43
3399.65
3433.72
3411.11
3406.18
3388
3372.29
3394.87
3359.55
3326.88
3341.36
3326.84
3392.82
3418.12
3389.51
3505.7
3559.79
3559.28
3616.7
3598.57
3824.54
3976.15
3717.33
4364.49
4540.49
2763.5
4080.05
5419.54
594.454
-113.85
-3808.41
-3185.29
4701.37
0.0229546
0.0570633
0.0800177
0.107599
0.134929
0.162383
0.190446
0.218532
0.245506
0.271695
0.298004
0.326145
0.361803
0.412159
0.478575
0.560261
0.652745
0.74823
0.846669
0.951256
1.04338
1.12798
1.25666
1.48776
1.78163
2.0908
2.36743
2.45368
2.34157
2.35811
2.5276
2.73093
2.94529
3.19887
3.50149
3.84709
4.23829
4.69953
5.26442
5.94676
6.72419
7.55039
8.38567
9.2307
10.1117
11.0661
12.117
13.2292
14.3325
15.376
16.3543
17.2898
18.1719
18.8711
19.079
18.3309
16.0523
11.5864
4.87826
0.0712442
1.54807
3.02278
5.00971
6.1686
6.48578
6.24936
5.79961
5.94691
7.3955
9.99648
14.6315
22.9899
38.1187
67.2042
123.002
234.234
438.071
604.921
808.073
0.0712157
0.176865
0.249209
0.334702
0.418867
0.503347
0.590215
0.677988
0.763224
0.846326
0.930505
1.02355
1.13885
1.29428
1.49351
1.73354
2.00286
2.28328
2.57617
2.88621
3.17162
3.44847
3.81999
4.34812
4.92075
5.40295
5.63439
5.86379
6.18952
6.70542
7.25741
7.80599
8.44807
9.19608
10.0312
10.9545
11.9953
13.2044
14.6227
16.2696
18.1019
20.0485
22.0628
24.186
26.4765
28.9689
31.6415
34.3623
37.0012
39.5606
42.1901
45.0072
47.9125
50.5035
52.0134
51.2317
46.4822
36.0361
20.2449
8.47189
9.2381
9.80032
12.7277
14.1114
14.9207
15.5878
15.7261
15.5744
16.2606
17.293
18.7845
20.6076
22.0548
22.8008
18.7916
13.6291
-1.17068
-140.086
2360.96
0.119782
0.298133
0.42093
0.564753
0.706103
0.848071
0.994166
1.14171
1.28518
1.42547
1.56935
1.73361
1.93889
2.21128
2.5546
2.96152
3.41381
3.88733
4.38837
4.92034
5.42969
5.95431
6.64176
7.57547
8.57055
9.41433
9.98319
10.4415
10.9095
11.6779
12.5841
13.5289
14.6274
15.9004
17.3396
18.9556
20.7976
22.9613
25.5028
28.4412
31.6919
35.1393
38.7183
42.5031
46.5891
51.0346
55.7923
60.6277
65.3326
69.9045
74.569
79.4896
84.4747
88.8188
91.1779
89.449
80.7464
61.9895
33.3738
10.6631
11.5388
16.3133
22.6429
24.6659
25.5148
25.9365
26.1726
27.2667
30.0384
33.5303
38.2337
44.4184
51.5867
60.4792
67.4413
87.604
149.515
163.139
4121.19
0.166908
0.417678
0.590688
0.792315
0.990282
1.18947
1.39484
1.60251
1.80517
2.00374
2.20752
2.44111
2.73304
3.11773
3.59938
4.16755
4.79815
5.4598
6.16155
6.90777
7.6306
8.38351
9.35175
10.6223
11.9479
13.05
13.8235
14.4774
15.2277
16.3688
17.646
18.9691
20.5087
22.2903
24.3033
26.5656
29.1455
32.1699
35.7006
39.762
44.2426
48.9938
53.9414
59.1931
64.877
71.0608
77.6633
84.3727
90.9176
97.2993
103.831
110.75
117.805
124.032
127.583
125.556
113.965
88.6291
49.8477
18.3026
18.1593
24.3907
32.3093
34.8637
35.8982
36.4522
37.0687
39.3176
44.2016
51.075
61.041
75.7318
96.862
130.295
182.605
297.41
585.344
968.252
4596.77
0.213328
0.536819
0.760398
1.0196
1.27372
1.52982
1.79437
2.06222
2.32447
2.58191
2.84604
3.14934
3.5289
4.02701
4.64749
5.37647
6.18459
7.03398
7.93648
8.89707
9.83501
10.8198
12.0681
13.6697
15.319
16.6793
17.7111
18.6008
19.62
21.0973
22.7296
24.4414
26.4273
28.7155
31.3049
34.2232
37.555
41.4539
45.9867
51.1838
56.9059
62.9742
69.3071
76.0427
83.3382
91.2709
99.7315
108.347
116.792
125.065
133.54
142.504
151.648
159.77
164.552
162.323
148.06
116.535
68.0262
27.3982
25.4326
33.2255
43.0594
46.3786
47.4416
47.8591
48.8264
52.4015
59.1985
68.8612
83.0135
104.265
135.912
187.588
274.751
461.504
910.009
1506.4
4058.86
0.258846
0.655323
0.929701
1.2462
1.55597
1.86862
2.19218
2.52025
2.84249
3.15937
3.48406
3.85647
4.3228
4.9334
5.69125
6.5791
7.56285
8.59823
9.69897
10.8706
12.0193
13.2276
14.7402
16.6436
18.5814
20.1744
21.4475
22.5702
23.8841
25.726
27.721
29.8227
32.2489
35.0358
38.1928
41.7557
45.8227
50.566
56.0559
62.3307
69.2274
76.5424
84.1898
92.3367
101.168
110.769
121.005
131.456
141.747
151.875
162.269
173.268
184.521
194.625
200.833
198.763
182.416
145.604
88.5389
39.3908
34.8267
43.3101
54.3926
58.4728
59.6046
60.0005
61.4881
66.6655
75.7387
88.5799
107.19
135.004
176.684
245.377
365.055
613.449
1174.94
1952.72
3842.82
0.303492
0.773378
1.09896
1.47261
1.83761
2.20644
2.58878
2.97704
3.35943
3.73609
4.12136
4.56246
5.11517
5.83826
6.73318
7.77897
8.93719
10.1576
11.4554
12.8356
14.1916
15.6169
17.382
19.5674
21.7723
23.5875
25.1087
26.4808
28.0989
30.3048
32.6604
35.1567
38.0213
41.302
45.0225
49.227
54.0245
59.599
66.0248
73.3471
81.382
89.9052
98.8289
108.348
118.674
129.897
141.864
154.119
166.247
178.247
190.587
203.65
217.05
229.208
236.992
235.364
217.409
176.03
111.255
53.762
45.7774
54.537
66.658
71.6061
72.7631
73.1269
75.1983
82.1378
93.7
110.117
133.823
169.262
222.98
312.695
472.906
793.893
1467.84
2387.88
3358.24
0.34731
0.891027
1.26829
1.69894
2.11877
2.54347
2.98434
3.43271
3.87529
4.3119
4.75748
5.26645
5.90473
6.74009
7.77175
8.9746
10.3062
11.7108
13.2039
14.7893
16.3472
17.9803
19.9825
22.4271
24.8781
26.907
28.6727
30.2989
32.2314
34.8061
37.5271
40.4227
43.7212
47.4904
51.7694
56.61
62.1283
68.514
75.8456
84.1746
93.2996
102.979
113.126
123.963
135.724
148.508
162.146
176.157
190.097
203.965
218.267
233.42
249.012
263.317
272.865
272.017
253.004
207.861
136.32
70.7919
58.5937
67.0804
79.7934
85.5991
86.7855
87.2495
90.0631
98.9408
113.161
133.349
162.451
206.146
273.455
387.597
594.646
992.977
1758.51
2764.02
3126.64
0.390355
1.00835
1.43785
1.92539
2.39967
2.87997
3.37918
3.88759
4.39027
4.88675
5.39215
5.96775
6.69058
7.63827
8.80676
10.1663
11.6704
13.2586
14.9455
16.7323
18.4857
20.3168
22.5401
25.2234
27.9058
30.145
32.1516
34.0388
36.2951
39.2359
42.3239
45.623
49.3521
53.6062
58.44
63.9125
70.1439
77.3232
85.5349
94.8337
105.005
115.794
127.117
139.22
152.362
166.649
181.903
197.626
213.357
229.102
245.395
262.679
280.522
297.071
308.568
308.833
289.305
241.188
163.791
90.5217
73.3025
81.0204
93.9441
100.59
101.772
102.448
106.16
117.134
134.22
158.422
193.265
245.895
328.354
469.913
727.355
1199.43
2027.41
3083.52
3013.04
0.432742
1.12556
1.60776
2.15207
2.68042
3.21611
3.77353
4.34196
4.90463
5.46061
6.02517
6.6657
7.47156
8.53155
9.83737
11.3534
13.0296
14.801
16.6798
18.6631
20.6044
22.6219
25.0495
27.9524
30.8548
33.3023
35.5438
37.6972
40.2848
43.5865
47.0428
50.749
54.9066
59.6434
65.0289
71.1291
78.0646
86.0191
95.0838
105.314
116.487
128.334
140.782
154.097
168.561
184.29
201.1
218.488
235.987
253.614
271.93
291.394
311.552
330.453
344.095
345.821
326.34
276.064
193.758
113.134
90.1206
96.5074
109.177
116.55
117.684
118.71
123.548
136.752
156.917
185.435
226.557
289.225
389.078
561.716
872.232
1412.17
2278.38
3348.61
3132.02
0.47464
1.24294
1.77806
2.37901
2.96104
3.55196
4.16762
4.79618
5.4187
6.03353
6.65633
7.35974
8.24673
9.41877
10.8627
12.5358
14.3836
16.3378
18.4061
20.5801
22.7004
24.8916
27.5071
30.6148
33.7294
36.3811
38.852
41.2768
44.203
47.8572
51.6799
55.7951
60.3817
65.6009
71.5357
78.2598
85.8905
94.602
104.493
115.616
127.746
140.604
154.126
168.599
184.325
201.433
219.738
238.741
257.986
277.505
297.883
319.584
342.133
363.498
379.48
383.014
364.149
312.538
226.297
138.795
109.272
113.709
125.644
133.565
134.577
136.038
142.255
157.829
181.311
214.512
262.637
336.827
456.856
664.486
1029.45
1629.01
2500.62
3473.5
3464.1
0.516277
1.36084
1.94889
2.60613
3.24151
3.88753
4.56158
5.25053
5.93286
6.60572
7.28545
8.04925
9.01524
10.2989
11.8817
13.7126
15.7321
17.8687
20.1234
22.4812
24.7701
27.1217
29.9093
33.2128
36.5342
39.3818
42.0771
44.7776
48.0482
52.0471
56.2312
60.755
65.773
71.4764
77.9589
85.3027
93.6194
103.07
113.759
125.738
138.78
152.6
167.143
182.717
199.645
218.065
237.802
258.37
279.335
300.759
323.243
347.246
372.268
396.214
414.733
420.421
402.744
350.638
261.475
167.701
131.06
132.843
143.517
151.704
152.516
154.467
162.313
180.43
207.52
245.902
301.996
389.557
532.853
778.948
1197.38
1844.24
2690.94
3453.58
3657.93
0.557883
1.47974
2.12053
2.83332
3.52169
4.22274
4.95547
5.70531
6.4475
7.17748
7.91233
8.73352
9.77611
11.171
12.8933
14.8831
17.0744
19.3925
21.8295
24.3631
26.8096
29.3089
32.2544
35.7492
39.2719
42.3053
45.2207
48.2005
51.8209
56.1583
60.6981
65.6274
71.0783
77.2694
84.2981
92.2575
101.25
111.42
122.882
135.677
149.587
164.319
179.832
196.451
214.517
234.183
255.286
277.366
300.028
323.37
348.008
374.387
401.97
428.614
449.863
458.046
442.128
390.378
299.345
200.042
155.835
154.18
163.038
171.118
171.639
174.105
183.803
204.679
235.752
279.994
345.326
448.489
618.3
905.449
1373.68
2051.4
2855.04
3391.76
3658.43
0.599722
1.60009
2.29339
3.0606
3.80128
4.55744
5.34928
6.16074
6.96301
7.74918
8.53676
9.41176
10.5282
12.0339
13.8962
16.0463
18.4094
20.9076
23.5216
26.2221
28.8148
31.4497
34.5444
38.2277
41.9432
45.1533
48.2847
51.5487
55.5231
60.1939
65.0851
70.4154
76.2984
82.98
90.5535
99.1238
108.782
119.653
131.857
145.433
160.165
175.76
192.19
209.797
228.937
249.78
272.184
295.723
320.056
345.333
372.177
401.009
431.246
460.705
484.871
495.881
482.287
431.752
339.937
236
183.986
178.054
184.507
192.005
192.134
195.13
206.889
230.798
266.342
317.34
393.497
514.817
714.31
1043.81
1555.66
2245.26
2990.16
3351.29
3624.5
0.641836
1.72233
2.46798
3.2882
4.0799
4.89133
5.74293
6.61698
7.47973
8.32115
9.15845
10.0831
11.2703
12.8864
14.8895
17.2006
19.7353
22.4114
25.1956
28.0537
30.7815
33.5417
36.7835
40.6522
44.5488
47.9283
51.2729
54.827
59.158
64.1565
69.3979
75.1242
81.4371
88.6091
96.7258
105.902
116.214
127.767
140.684
155.001
170.512
186.921
204.217
222.753
242.903
264.854
288.491
313.437
339.42
366.648
395.754
427.119
460.104
492.493
519.752
533.908
523.195
474.733
383.261
275.728
215.921
204.869
208.3
214.654
214.265
217.793
231.829
259.125
299.771
358.66
447.534
589.757
821.677
1193.13
1740.13
2422.89
3097.36
3339.78
3568.54
0.68391
1.84676
2.64478
3.51651
4.35741
5.22397
6.13623
7.07411
7.99796
8.89363
9.7771
10.7465
12.0008
13.727
15.8717
18.3437
21.0498
23.9003
26.847
29.8532
32.7058
35.5857
38.9763
43.0253
47.0903
50.6333
54.1893
58.0401
62.7274
68.0471
73.6415
79.7582
86.4979
94.1576
102.816
112.592
123.545
135.76
149.361
164.382
180.627
197.802
215.91
235.317
256.413
279.403
304.207
330.51
358.121
387.32
418.745
452.726
488.55
523.978
554.493
572.096
564.806
519.275
429.294
319.345
252.044
235.096
234.868
239.441
238.388
242.442
258.998
290.133
336.68
404.841
508.573
674.447
940.76
1351.76
1923.42
2581.74
3179.09
3362.29
3520.82
0.725497
1.97335
2.82427
3.74585
4.63398
5.55487
6.52887
7.53213
8.51784
9.46665
10.3923
11.4008
12.7184
14.5541
16.8411
19.473
22.3496
25.3699
28.4707
31.6153
34.5848
37.5856
41.1267
45.3482
49.5699
53.272
57.0383
61.1911
66.2313
71.8669
77.8181
84.3196
91.483
99.6269
108.826
119.195
130.776
143.631
157.886
173.574
190.508
208.4
227.269
247.491
269.467
293.429
319.337
346.948
376.171
407.362
441.164
477.837
516.589
555.152
589.074
610.406
607.061
565.307
477.98
366.917
292.726
269.262
264.737
266.844
264.953
269.536
288.899
324.446
377.864
456.901
577.787
769.819
1071.38
1517.48
2101.88
2720.88
3237.32
3409.09
3481.72
0.766232
2.10166
3.0067
3.97639
4.90976
5.88383
6.92036
7.99091
9.03932
10.0398
11.0029
12.0447
13.4216
15.3662
17.7957
20.5856
23.6309
26.8151
30.0611
33.3355
36.418
39.5461
43.2379
47.6217
51.9901
55.8478
59.8238
64.2818
69.6695
75.6181
81.9288
88.8096
96.3933
105.019
114.756
125.712
137.906
151.379
166.257
182.574
200.155
218.717
238.295
259.274
282.069
306.936
333.887
362.764
393.586
426.792
463.027
502.464
544.219
586.004
623.464
648.785
649.885
612.732
529.223
418.454
338.281
307.918
298.496
297.428
294.49
299.644
322.169
362.831
424.256
515.94
656.29
876.477
1212.74
1687.59
2272.33
2839.47
3270
3496.37
3466.38
0.805879
2.23107
3.19182
4.20808
5.18464
6.21083
7.31017
8.45015
9.56189
10.6117
11.6071
12.6762
14.1092
16.162
18.7333
21.6786
24.889
28.2304
31.6132
35.0103
38.2083
41.4714
45.3112
49.8464
54.3537
58.3641
62.5492
67.3126
73.0415
79.304
85.9748
93.2301
101.23
110.335
120.609
132.144
144.935
159.004
174.472
191.381
209.565
228.751
248.988
270.669
294.221
319.932
347.871
377.978
410.39
445.635
484.352
526.616
571.439
616.513
657.621
687.166
693.186
661.429
582.889
473.898
388.938
351.614
336.781
331.835
327.593
333.436
359.573
406.184
476.886
583.067
745.023
994.575
1363.47
1859.19
2431.74
2936.03
3277.25
3599.95
3445.07
0.844268
2.36107
3.37921
4.44048
5.45836
6.53574
7.6979
8.90921
10.0842
11.1794
12.2012
13.2931
14.7807
16.941
19.6523
22.7492
26.1189
29.6107
33.1227
36.6393
39.9609
43.3645
47.347
52.0236
56.6631
60.8235
65.2171
70.2831
76.3463
82.9262
89.9584
97.583
105.997
115.579
126.387
138.492
151.862
166.504
182.53
199.994
218.739
238.503
259.351
281.679
305.931
332.428
361.307
392.613
426.612
463.921
505.163
550.303
598.236
646.649
691.494
725.475
736.854
711.246
638.798
533.12
444.831
400.849
380.248
370.77
364.927
371.666
401.983
455.501
536.823
659.305
844.628
1123.75
1521.67
2029.31
2578.02
3014.76
3263.83
3591.31
3407.02
0.881246
2.4914
3.56858
4.67283
5.7305
6.85795
8.08326
9.36693
10.6034
11.7369
12.7787
13.8914
15.4358
17.7035
20.5515
23.7947
27.3166
30.9523
34.5875
38.2257
41.6808
45.2266
49.3453
54.1542
58.9205
63.2284
67.8296
73.1923
79.5834
86.4846
93.8798
101.87
110.695
120.752
132.091
144.757
158.689
173.878
190.43
208.412
227.675
247.973
269.384
292.309
317.207
344.438
374.215
406.699
442.288
481.681
525.48
573.528
624.594
676.37
725.019
763.62
780.763
762.008
696.73
595.92
505.975
456.033
429.529
414.967
407.222
415.156
450.35
511.818
605.098
745.481
955.347
1263.08
1685.03
2195.16
2709.21
3076.37
3248.41
3516.19
3375.47
0.916663
2.62215
3.76001
4.90446
6.00027
7.17668
8.46573
9.82143
11.1134
12.274
13.3298
14.4655
16.0748
18.4514
21.4313
24.8141
28.4795
32.2532
36.0085
39.7758
43.3719
47.0576
51.306
56.2394
61.1275
65.5807
70.3879
76.0399
82.7519
89.9775
97.7375
106.09
115.327
125.858
137.723
150.939
165.414
181.124
198.17
216.633
236.374
257.164
279.092
302.565
328.059
355.979
386.62
420.268
457.451
498.948
545.322
596.289
650.485
705.626
758.122
801.502
824.771
813.51
756.424
662.028
572.261
517.436
485.178
465.13
455.226
464.756
505.64
576.143
682.605
842.132
1076.95
1411.16
1851.04
2354.1
2824.15
3121.86
3244.05
3446.42
3348.51
0.950359
2.75371
3.95409
5.13486
6.26668
7.49112
8.84394
10.269
11.6034
12.7758
13.8404
15.0078
16.699
19.1878
22.2934
25.8079
29.6078
33.5142
37.3904
41.2963
45.0365
48.8567
53.2288
58.2802
63.2852
67.8819
72.8931
78.8264
85.8518
93.4025
101.529
110.244
119.895
130.898
143.285
157.041
172.038
188.242
205.749
224.657
244.836
266.076
288.479
312.454
338.499
367.07
398.55
433.353
472.139
515.751
564.704
618.574
675.874
734.355
790.718
839.008
868.719
865.525
817.585
731.111
643.459
585.161
547.609
521.871
509.645
521.289
568.774
649.365
770.002
949.413
1208.71
1566.14
2017.01
2503.87
2923.1
3154.58
3246.63
3391.74
3325.61
0.982163
2.88667
4.15189
5.36377
6.52868
7.80005
9.21538
10.7021
12.0568
13.2248
14.2947
15.5207
17.3153
19.9172
23.1411
26.7787
30.7042
34.7394
38.7407
42.7925
46.6745
50.6229
55.1131
60.2771
65.3944
70.1332
75.3457
81.5529
88.8837
96.7575
105.25
114.328
124.397
135.874
148.778
163.061
178.56
195.23
213.165
232.482
253.061
274.713
297.549
321.985
348.542
377.731
410.032
445.989
486.384
532.113
583.63
640.365
700.715
762.485
822.715
876.017
912.436
917.806
879.889
802.778
719.215
659.12
617.046
585.645
571.074
585.481
640.537
732.166
867.628
1067.05
1349.41
1725.83
2180.31
2642.64
3006.95
3178.13
3250.12
3346.82
3306.72
1.01189
3.0217
4.35482
5.59134
6.78529
8.1016
9.5755
11.1059
12.454
13.6057
14.6921
16.0188
17.9312
20.6449
23.9795
27.731
31.7738
35.9361
40.067
44.2668
48.2856
52.3552
56.9584
62.2305
67.4553
72.3354
77.7465
84.2208
91.8492
100.042
108.901
118.343
128.834
140.786
154.203
169.002
184.98
202.086
220.418
240.107
261.05
283.077
306.309
331.167
358.201
387.984
421.095
458.206
500.214
548.052
602.097
661.633
724.951
789.937
854.012
912.401
955.739
970.094
942.988
876.593
799.066
739.027
693.481
656.695
639.934
657.886
721.502
824.946
975.443
1194.33
1497.44
1887.84
2338.46
2769.14
3076.85
3195.14
3252.54
3313.02
3292.12
1.0393
3.1594
4.56441
5.81796
7.03559
8.39304
9.91541
11.4588
12.782
13.9116
15.052
16.511
18.5477
21.3752
24.815
28.6719
32.8248
37.1122
41.3742
45.7196
49.8689
54.0525
58.7637
64.1403
69.4681
74.4887
80.0957
86.8318
94.7512
103.259
112.479
122.287
133.205
145.635
159.562
174.864
191.298
208.81
227.505
247.532
268.804
291.17
314.763
340.01
367.493
397.85
431.765
470.032
513.651
563.575
620.091
682.34
748.519
816.628
884.506
948.027
998.437
1022.12
1006.52
952.079
882.453
824.407
776.662
735.027
716.427
738.826
811.957
927.762
1093.02
1330.1
1650.85
2049.72
2489.3
2882.7
3134.27
3207.72
3253.83
3289.13
3277.39
1.06405
3.30026
4.78225
6.04397
7.27866
8.67
10.2188
11.7431
13.0356
14.1542
15.3965
16.9956
19.1611
22.1089
25.6528
29.6083
33.8647
38.2733
42.6649
47.1504
51.4232
55.7133
60.5283
66.0062
71.4325
76.5932
82.3937
89.3872
97.5924
106.411
115.984
126.161
137.513
150.424
164.858
180.646
197.511
215.399
234.426
254.757
276.323
298.997
322.919
348.525
376.433
407.351
442.065
481.489
526.71
578.681
637.592
702.44
771.354
842.474
914.094
982.758
1040.34
1073.61
1070.12
1028.73
968.735
914.611
866.091
820.389
800.498
828.34
911.861
1040.3
1219.58
1472.89
1807.5
2209.06
2631.04
2983.2
3181.02
3217.61
3252.67
3272
3263.39
1.08562
3.44456
5.0098
6.26936
7.51319
8.92469
10.4643
11.9561
13.2132
14.3656
15.7386
17.4726
19.7702
22.845
26.4942
30.5439
34.8979
39.422
43.9396
48.5589
52.9475
57.3366
62.2515
67.8278
73.3479
78.6485
84.6409
91.8883
100.376
109.503
119.42
129.968
141.76
155.155
170.091
186.348
203.619
221.853
241.178
261.782
283.611
306.561
330.782
356.721
385.036
416.506
452.018
492.596
539.398
593.36
654.568
721.884
793.386
867.393
942.676
1016.46
1081.25
1124.31
1133.41
1106.01
1057.21
1008.85
961.05
912.288
891.838
926.149
1020.81
1161.89
1354.01
1620.97
1965.13
2363.6
2762.32
3071.02
3218.94
3226.05
3249.06
3260.63
3252.27
1.10324
3.59228
5.24832
6.49376
7.73618
9.14376
10.6411
12.0999
13.332
14.5751
16.0841
17.9452
20.3764
23.5831
27.3383
31.4793
35.9252
40.5584
45.1986
49.9446
54.4404
58.9213
63.9324
69.6041
75.2136
80.6538
86.8376
94.3364
103.104
112.536
122.79
133.71
145.949
159.829
175.261
191.971
209.622
228.17
247.762
268.606
290.667
313.866
338.361
364.611
393.318
425.332
461.64
503.364
551.715
607.597
670.985
740.618
814.55
891.303
970.153
1049
1120.98
1173.95
1196.03
1183.4
1147.15
1106.25
1060.65
1010.04
989.921
1031.67
1138.04
1291.49
1494.9
1772.43
2121.51
2511.35
2882.24
3146.89
3249.77
3234.05
3244.46
3252.73
3244.24
1.1158
3.74295
5.49876
6.71587
7.94028
9.3121
10.7581
12.1745
13.4278
14.7968
16.4333
18.4168
20.9822
24.3236
28.184
32.4129
36.946
41.6824
46.4414
51.3067
55.9006
60.4659
65.5701
71.334
77.0287
82.6081
88.9841
96.7328
105.779
115.513
126.099
137.391
150.083
164.45
180.37
197.515
215.518
234.348
254.177
275.23
297.496
320.917
345.661
372.203
401.29
433.845
470.946
513.801
563.655
621.371
686.807
758.593
834.784
914.134
996.435
1080.25
1159.36
1222.29
1257.63
1260.36
1237.78
1205.84
1163.86
1112.82
1094.06
1144.04
1262.42
1427.68
1640.48
1925.23
2274.48
2650.62
2990.34
3211.85
3275.22
3241.98
3239.16
3247.66
3238.49
1.12171
3.89556
5.76172
6.93177
8.11078
9.42662
10.82
12.2001
13.5289
15.0315
16.7849
18.8889
21.5899
25.0678
29.0305
33.3437
37.9591
42.7934
47.6674
52.6437
57.3264
61.969
67.1634
73.0161
78.7921
84.5107
91.0813
99.0791
108.404
118.435
129.351
141.018
154.168
169.019
185.42
202.98
221.307
240.388
260.421
281.655
304.097
327.717
352.689
379.507
408.967
442.058
479.945
523.908
575.21
634.657
701.994
775.759
854.032
935.823
1021.44
1110.1
1196.23
1269.13
1317.88
1336.38
1328.36
1306.65
1269.57
1219.7
1203.43
1262.16
1392.48
1568.72
1788.74
2077.21
2422.04
2780.1
3086.55
3267.12
3296.71
3250.21
3235.74
3245.06
3237.54
1.11873
4.04846
6.03668
7.13107
8.23216
9.49371
10.8226
12.2117
13.6466
15.2736
17.1382
19.363
22.2018
25.8168
29.8775
34.2705
38.9636
43.8909
48.8753
53.9537
58.7158
63.4286
68.7109
74.6489
80.503
86.3612
93.1298
101.377
110.982
121.307
132.552
144.595
158.205
173.538
190.411
208.366
226.988
246.289
266.495
287.881
310.475
334.27
359.452
386.534
416.359
449.982
488.645
533.685
586.368
647.431
716.514
792.076
872.249
956.319
1045.11
1138.45
1231.45
1314.26
1376.48
1410.97
1418.17
1407.65
1376.57
1329.6
1317.11
1384.74
1526.56
1712.65
1937.53
2226.23
2562.42
2898.86
3171.16
3314.03
3315.52
3258.72
3234.97
3244.97
3239.87
1.10384
4.19949
6.31936
7.29361
8.30563
9.50217
10.7853
12.2323
13.7794
15.5186
17.4942
19.8409
22.82
26.5711
30.7243
35.1926
39.9585
44.974
50.0636
55.2347
60.0664
64.8429
70.211
76.2305
82.1603
88.1596
95.1307
103.629
113.517
124.131
135.706
148.128
162.199
178.01
195.344
213.673
232.561
252.049
272.399
293.91
316.632
340.582
365.957
393.291
423.476
457.626
497.05
543.127
597.113
659.67
730.334
807.508
889.401
975.585
1067.38
1165.22
1264.92
1357.51
1433.16
1483.71
1506.51
1507.91
1483.63
1441.24
1434.04
1510.35
1662.85
1857.42
2084.81
2370.29
2694.14
3006.31
3244.75
3353.93
3332.65
3267.44
3236.34
3247.01
3243.95
1.07308
4.34573
6.59509
7.40378
8.33548
9.4457
10.7383
12.2683
13.9209
15.7664
17.8541
20.3241
23.4465
27.331
31.5705
36.1094
40.9431
46.0421
51.2299
56.4841
61.3756
66.2096
71.6621
77.7593
83.7631
89.9061
97.0853
105.838
116.011
126.911
138.816
151.621
166.149
182.434
200.219
218.9
238.023
257.667
278.133
299.744
322.571
346.657
372.209
399.786
430.325
464.995
505.161
552.231
607.434
671.353
743.429
822.028
905.462
993.596
1088.22
1190.36
1296.53
1398.75
1487.68
1554.2
1592.79
1606.54
1589.68
1553.38
1552.94
1637.46
1799.55
2001.03
2228.67
2507.68
2816.06
3102.24
3308.08
3388.1
3348.99
3276.25
3238.28
3249.05
3250.02
1.02111
4.47965
6.83299
7.47163
8.30387
9.35116
10.7009
12.3167
14.0666
16.0191
18.2194
20.8146
24.0827
28.096
32.4157
37.0205
41.917
47.094
52.3718
57.6989
62.6403
67.5266
73.0623
79.2333
85.3109
91.6013
98.995
108.007
118.469
129.65
141.886
155.078
170.059
186.812
205.035
224.047
243.375
263.145
283.698
305.383
328.294
352.499
378.213
406.026
436.914
472.094
512.978
560.989
617.316
682.462
755.78
835.621
920.419
1010.34
1107.61
1213.82
1326.21
1437.85
1539.84
1622.1
1676.44
1702.78
1693.88
1664.92
1672.5
1764.62
1934.87
2141.61
2367.38
2636.97
2927.4
3186.72
3362.08
3417.69
3365.18
3285.29
3241.01
3251.15
3258.54
0.939206
4.57621
7.00051
7.49414
8.20805
9.25185
10.6768
12.3719
14.2171
16.2787
18.5916
21.3147
24.7301
28.8654
33.2594
37.9258
42.8797
48.1289
53.4865
58.8757
63.8569
68.7914
74.4098
80.6508
86.803
93.2463
100.862
110.141
120.893
132.353
144.916
158.502
173.929
191.142
209.791
229.111
248.614
268.481
289.095
310.831
333.805
358.112
383.977
412.018
443.249
478.927
520.501
569.395
626.75
692.983
767.375
848.276
934.268
1025.81
1125.54
1235.57
1353.93
1474.72
1589.46
1687.11
1756.98
1795.96
1795.58
1775.02
1791.45
1890.41
2067.13
2277.41
2499.44
2757.09
3027.7
3260.1
3407.74
3443.7
3381.81
3294.87
3244.85
3253.24
3268.69
0.809846
4.59127
7.07013
7.42361
8.07685
9.16606
10.6616
12.4313
14.3752
16.5458
18.9723
21.827
25.3894
29.6383
34.1013
38.8249
43.8313
49.1456
54.5714
60.0105
65.0216
70.0019
75.7027
82.0098
88.239
94.8422
102.688
112.242
123.287
135.021
147.909
161.895
177.757
195.423
214.485
234.09
253.74
273.677
294.326
316.089
339.109
363.502
389.505
417.766
449.333
485.495
527.728
577.442
635.725
702.907
778.206
859.994
947.016
1040.03
1142.02
1255.62
1379.66
1509.3
1636.41
1749
1834.01
1885.46
1894.2
1882.96
1908.65
2013.52
2194.77
2406.89
2623.62
2867.29
3116.82
3322.93
3446.04
3467.01
3399.5
3305.28
3250.01
3256.09
3279.69
0.592844
4.439
7.02044
7.26079
7.9286
9.08808
10.6511
12.4969
14.5419
16.8208
19.3637
22.3537
26.0608
30.4134
34.9409
39.7182
44.7717
50.1425
55.6229
61.0988
66.1304
71.1557
76.9389
83.3083
89.6184
96.391
104.476
114.316
125.653
137.657
150.869
165.256
181.541
199.651
219.113
238.983
258.752
278.731
299.392
321.161
344.208
368.672
394.802
423.277
455.17
491.8
534.655
585.127
644.236
712.231
788.275
870.782
958.676
1053
1157.07
1273.96
1403.39
1541.55
1680.6
1807.61
1907.22
1970.77
1989.31
1988.15
2023.06
2132.76
2316.48
2528.74
2738.94
2967.13
3194.9
3375.92
3477.92
3488.18
3418.55
3317.82
3256.68
3258.85
3292.08
0.37085
4.08053
6.7981
7.05454
7.7727
9.01756
10.6437
12.572
14.7173
17.105
19.768
22.8968
26.7434
31.1892
35.778
40.6058
45.7006
51.1175
56.6375
62.136
67.1798
72.2512
78.1164
84.5443
90.9409
97.8946
106.23
116.367
127.994
140.264
153.8
168.586
185.279
203.824
223.673
243.786
263.647
283.645
304.294
326.049
349.108
373.629
399.875
428.555
460.765
497.841
541.281
592.445
652.278
720.952
797.588
880.655
969.272
1064.76
1170.7
1290.63
1425.13
1571.47
1721.98
1862.82
1976.38
2051.49
2080.52
2090.07
2133.74
2247.07
2431.18
2641.86
2844.68
3056.46
3262.3
3419.9
3504.3
3507.68
3438.81
3331.65
3263.17
3260.28
3300.02
0.27257
3.70269
6.41281
6.84746
7.61496
8.95289
10.6417
12.658
14.902
17.3998
20.188
23.4577
27.4356
31.964
36.6127
41.4878
46.6173
52.0681
57.6111
63.118
68.1666
73.2868
79.2331
85.7159
92.2065
99.3558
107.954
118.398
130.312
142.845
156.707
171.885
188.968
207.937
228.16
248.497
268.424
288.418
309.035
330.757
353.812
378.376
404.729
433.605
466.119
503.619
547.603
599.391
659.851
729.076
806.157
889.635
978.833
1075.33
1182.97
1305.66
1444.93
1599.06
1760.54
1914.58
2041.33
2127.26
2167.52
2188.28
2239.85
2355.6
2538.06
2745.45
2940.38
3135.36
3319.57
3455.76
3525.96
3525.84
3459.88
3345.71
3268.07
3258.28
3300.84
0.333248
3.45812
6.00013
6.62931
7.47199
8.89
10.6495
12.7546
15.0969
17.7072
20.627
24.0367
28.135
32.7362
37.4453
42.3646
47.5203
52.991
58.5405
64.0416
69.0888
74.2619
80.2872
86.8212
93.4161
100.778
109.651
120.414
132.609
145.403
159.597
175.153
192.605
211.985
232.569
253.111
273.082
293.051
313.615
335.288
358.325
382.92
409.37
438.432
471.235
509.134
553.62
605.966
666.955
736.611
814
897.75
987.394
1084.77
1193.9
1319.08
1462.8
1624.37
1796.28