/*--------------------------------*- C++ -*----------------------------------*\
| =========                 |                                                 |
| \\      /  F ield         | OpenFOAM: The Open Source CFD Toolbox           |
|  \\    /   O peration     | Version:  4.1                                   |
|   \\  /    A nd           | Web:      www.OpenFOAM.org                      |
|    \\/     M anipulation  |                                                 |
\*---------------------------------------------------------------------------*/
FoamFile
{
    version     2.0;
    format      ascii;
    class       volScalarField;
    location    "26";
    object      p;
}
// * * * * * * * * * * * * * * * * * * * * * * * * * * * * * * * * * * * * * //

dimensions      [0 2 -2 0 0 0 0];

internalField   nonuniform List<scalar> 
6785
(
582.744
504.473
457.774
404.684
358.263
313.599
272.038
232.735
195.572
160.343
126.355
93.2111
64.3966
34.6396
-5.94275
-25.5886
-42.8279
-32.688
-39.4337
-38.5545
-40.7335
-41.2013
-41.5904
-41.0901
-39.7325
-37.2681
-34.1099
-29.8107
-23.5984
-19.662
3.77735
0.681683
10.3812
6.61441
11.1979
10.9041
12.5958
13.1466
13.9666
14.6076
15.3685
16.054
16.4839
16.8099
18.6261
37.8781
35.048
37.9911
33.0469
34.6023
31.7082
31.3803
29.8051
28.9469
27.9806
27.2095
26.5018
25.9658
25.1638
23.831
1.80038
-2.65421
-1.74589
-6.14091
-5.55317
-8.78161
-9.28776
-11.3859
-12.469
-13.8821
-14.7829
-15.4582
-16.3911
-17.9051
-18.8662
-27.8974
-31.2306
-29.77
-32.9369
-31.813
-34.4288
-34.4011
-36.149
-36.9273
-37.9734
-38.3697
-38.4717
-38.3618
-38.3951
-36.4767
-19.7485
-20.2926
-17.6881
-19.1409
-16.6288
-17.4852
-16.0167
-15.9848
-15.2766
-14.8639
-14.1524
-13.3575
-11.8366
-10.2009
-7.10104
5.53514
6.49862
8.92927
8.6296
11.2987
11.578
13.5613
14.6495
16.231
17.6802
19.2812
20.789
22.5128
23.8
25.6183
22.9403
24.0338
25.7487
25.6134
27.5827
27.7887
29.1697
29.8979
30.9152
31.8184
32.7979
33.6961
34.7543
35.4928
36.6042
36.4263
37.605
38.9842
38.9654
40.53
40.7012
41.8127
42.4225
43.2845
44.1112
44.9728
45.779
46.7302
47.3623
48.4788
52.2346
53.5827
54.6254
55.0514
56.4263
56.8205
57.7513
57.8822
57.8541
57.304
56.6109
56.3512
56.62
57.1455
57.503
60.6771
60.2728
60.5196
59.6339
59.4159
58.1608
57.243
55.7412
54.316
52.799
51.5457
50.6707
50.0191
50.0753
48.958
55.0954
51.4389
49.7969
47.1716
45.8959
43.9377
42.5832
40.7451
38.8466
36.4942
33.9782
31.5863
30.2055
29.6966
26.5313
21.1188
17.9298
14.5829
10.0041
5.61788
0.767403
-3.62555
-7.85948
-11.3516
-14.017
-15.5704
-16.0634
-15.6174
-15.2768
-16.1467
40.6414
37.5046
30.0611
21.8132
12.6394
3.5785
-2.23414
-5.82849
-7.57507
-6.64417
-4.56509
-2.26291
-0.160279
0.797473
0.387705
25.9347
25.9423
33.6601
27.025
27.541
29.6118
27.9191
26.6712
26.7053
26.4282
26.1207
24.5424
24.9666
24.6988
22.9466
22.8141
23.5857
23.6978
21.2133
22.8612
23.1113
21.0126
20.8649
22.6136
23.0309
21.0262
20.9459
22.5604
23.4449
21.1434
22.8788
23.7383
22.0996
22.0405
23.3561
24.2592
22.5321
23.7883
24.4521
23.3315
23.2449
24.3628
24.4094
23.468
23.4346
24.3627
24.5086
23.5224
24.4171
24.7666
24.2444
24.2208
24.7794
25.5151
25.2505
25.2018
25.4536
26.6153
26.4574
26.4237
27.4408
27.3845
27.2946
27.1773
27.7826
27.8943
29.169
27.9431
26.2743
27.7102
29.613
21.5296
17.5362
21.3907
27.0539
-0.766461
10.2768
19.6595
-30.668
-18.9176
-13.5225
-15.8589
-10.6961
-13.6905
-17.318
-10.8046
-10.8698
-9.61329
-9.34345
-8.20473
-5.26148
-0.512854
3.95593
-5.90067
-3.95702
0.351462
4.69764
5.00898
7.01694
8.22595
10.5671
20.0117
13.87
17.2588
18.0897
20.8094
25.2658
27.9291
29.1365
31.3082
29.7434
42.8204
37.6423
39.3987
39.9192
40.4076
42.3906
45.863
47.7204
42.109
49.4774
51.3246
53.8421
54.5267
53.2112
51.7725
50.3053
52.3489
45.3013
54.708
55.6798
50.03
49.1214
47.2422
43.4764
40.7606
38.3856
27.5489
35.9067
43.0723
35.9747
32.9821
28.1589
22.3023
17.1069
14.5899
10.9308
4.41415
7.23741
9.22373
4.12585
3.81781
2.44443
0.846387
-4.76804
-6.34294
-4.22435
-10.5034
1.38465
-1.43288
-3.64817
3.01303
1.65307
3.93576
4.45528
5.30192
5.94419
6.12613
6.30452
6.31096
6.36977
6.27873
6.02131
6.03787
5.74775
5.95275
5.5791
5.24794
5.34209
4.89534
5.53871
4.99924
4.20366
5.44121
4.55422
4.05888
4.40364
3.77182
5.24841
4.08966
3.61629
4.02206
3.34909
5.06426
3.97304
2.73984
5.16772
3.70957
3.04487
3.68207
2.86845
5.10575
3.63941
2.86371
3.62411
2.68459
4.89268
3.89131
2.1068
4.96331
3.87551
2.42219
3.60141
2.39478
4.75107
3.55479
2.15703
3.15637
1.89269
4.27617
3.25965
0.931735
4.33093
2.93266
1.13761
2.39442
0.929505
3.91003
2.20573
0.772415
1.72399
0.465761
3.07537
1.47102
-0.589865
2.57835
0.384677
-0.646946
-0.368219
-1.26729
-0.0243841
0.0711014
0.0505585
0.0782646
0.0859991
0.0944542
0.0911066
0.081286
0.0664314
0.0510652
0.0374062
0.0264429
0.0176807
0.0101069
0.00263463
-0.00548299
-0.014456
-0.02383
-0.0324801
-0.0388623
-0.0417916
-0.0412722
-0.038016
-0.0348534
-0.0514585
-0.124863
-0.141106
-0.292111
-0.344504
-0.331576
-0.454363
-0.59762
-0.734804
-0.849595
-0.938176
-0.99089
-1.00658
-0.989558
-0.940255
-0.863908
-0.764607
-0.645384
-0.510678
-0.36452
-0.211416
-0.0560832
0.0971327
0.245485
0.387498
0.522806
0.651406
0.77111
0.87951
0.974902
1.0562
1.11699
1.14878
1.13775
1.06742
0.912356
0.683587
0.437419
0.209394
0.0705694
0.0133929
0.00399697
-0.00365307
-0.00462163
-0.00132598
0.00441042
0.0130175
0.0248433
0.0281769
0.092382
0.025142
0.00258011
0.077063
-0.355899
-0.0968748
-0.109671
0.124304
0.0156991
0.03585
0.00962401
0.00708231
0.00346067
0.00963978
0.0190529
0.0311556
0.0430112
0.0535479
0.0616239
0.0663944
0.0667676
0.0614974
0.0493035
0.0293939
0.00236423
-0.0290935
-0.0612872
-0.0921054
-0.120621
-0.145471
-0.182084
-0.288134
-0.29313
-0.37386
-0.445273
-0.44643
-0.682041
-0.933831
-1.17653
-1.37814
-1.53092
-1.61541
-1.63046
-1.58404
-1.47535
-1.31358
-1.10724
-0.863426
-0.592033
-0.301647
-0.000870945
0.302164
0.601601
0.893326
1.17506
1.44524
1.70025
1.93479
2.14538
2.33044
2.48159
2.58258
2.61713
2.5542
2.35736
1.98126
1.46213
0.932722
0.45897
0.173957
0.0480186
0.024358
-0.00368421
-0.0149675
-0.0118325
0.00551535
0.0357207
0.0737693
0.0880289
0.218003
0.0374988
-0.0180034
0.162089
-1.0704
-0.174961
-0.178913
0.235539
0.0686958
0.123826
0.0953305
0.100808
0.0932594
0.0924999
0.090855
0.0919442
0.0940454
0.0967699
0.0982078
0.0962852
0.0884862
0.0724309
0.0463429
0.0100156
-0.0339439
-0.0797985
-0.121684
-0.158068
-0.189927
-0.217499
-0.266386
-0.429939
-0.484823
-0.272992
-0.455277
-0.466459
-0.747492
-1.04702
-1.33624
-1.57475
-1.7559
-1.85404
-1.86902
-1.81001
-1.67513
-1.47618
-1.22344
-0.925789
-0.595419
-0.242561
0.122744
0.4912
0.856102
1.21236
1.5567
1.88639
2.19697
2.48268
2.73937
2.96367
3.14483
3.26356
3.29952
3.21327
2.96087
2.49121
1.85019
1.19735
0.613413
0.25834
0.0906716
0.0434581
-0.00865003
-0.0256216
-0.0171893
0.0113894
0.0593954
0.120891
0.14824
0.282312
0.0894598
0.0229609
0.296469
-1.66832
-0.119831
-0.261415
0.309544
0.072435
0.139091
0.0915865
0.0938349
0.0835857
0.0876146
0.0938573
0.104913
0.116727
0.127871
0.135569
0.137142
0.129347
0.109027
0.0738028
0.023605
-0.0373918
-0.100628
-0.158193
-0.209127
-0.255885
-0.29813
-0.358845
-0.533738
-0.620892
-0.189017
-0.567088
-0.560383
-0.894272
-1.26751
-1.62499
-1.91775
-2.14017
-2.2589
-2.27525
-2.20033
-2.03162
-1.78421
-1.47083
-1.1026
-0.694605
-0.259288
0.191223
0.645771
1.09613
1.53586
1.96054
2.36633
2.74802
3.09914
3.41457
3.68913
3.90996
4.05437
4.09735
3.99035
3.68042
3.10885
2.33018
1.53017
0.815256
0.363133
0.145487
0.065667
-0.0133346
-0.0385765
-0.0264361
0.0139322
0.081053
0.165451
0.206227
0.342101
0.13728
0.0696211
0.40944
-2.1462
-0.00909018
-0.339257
0.37955
0.086576
0.173749
0.120509
0.129001
0.119966
0.125904
0.132345
0.143519
0.155365
0.166624
0.173946
0.173776
0.161725
0.133555
0.0862924
0.0204994
-0.0571685
-0.134688
-0.202666
-0.261942
-0.317137
-0.368409
-0.43819
-0.615432
-0.72424
-0.182588
-0.63897
-0.648828
-1.03736
-1.49177
-1.92251
-2.27413
-2.54216
-2.68368
-2.70223
-2.61067
-2.4057
-2.1058
-1.72636
-1.28103
-0.788107
-0.262583
0.281041
0.829532
1.37315
1.90408
2.41684
2.90647
3.3666
3.78971
4.16977
4.50022
4.76547
4.93875
4.99037
4.86191
4.49035
3.80603
2.87299
1.90706
1.05061
0.479378
0.20864
0.0881026
-0.0211982
-0.0543437
-0.0368073
0.0157115
0.101179
0.207226
0.259235
0.398934
0.199708
0.148112
0.533524
-2.37364
0.24126
-0.408988
0.425356
0.0858759
0.185874
0.124717
0.136009
0.128105
0.138348
0.149755
0.166738
0.184241
0.200492
0.211382
0.212514
0.19846
0.16397
0.105582
0.0248205
-0.0685786
-0.159048
-0.236834
-0.30552
-0.371741
-0.435802
-0.516957
-0.687652
-0.807453
-0.30178
-0.612667
-0.745906
-1.17394
-1.70765
-2.20724
-2.61241
-2.92221
-3.08284
-3.10155
-2.99259
-2.7518
-2.40113
-1.95838
-1.4396
-0.86614
-0.255297
0.37622
1.01329
1.64478
2.2616
2.85722
3.4256
3.95933
4.45002
4.89077
5.27376
5.58097
5.78206
5.84328
5.69701
5.2715
4.4851
3.40992
2.28749
1.30466
0.604785
0.281453
0.110318
-0.032674
-0.0743035
-0.0506435
0.0151095
0.119312
0.246116
0.309456
0.448778
0.264581
0.244162
0.661667
-2.37319
0.534221
-0.458376
0.450445
0.0844602
0.19733
0.13507
0.152493
0.148136
0.162668
0.177566
0.19798
0.218665
0.237726
0.250449
0.251511
0.234266
0.192299
0.121742
0.0256823
-0.0821925
-0.183076
-0.268549
-0.345492
-0.421849
-0.498278
-0.591911
-0.758581
-0.880639
-0.473515
-0.483071
-0.876888
-1.3195
-1.93458
-2.50495
-2.96325
-3.31467
-3.493
-3.51077
-3.38316
-3.1054
-2.70311
-2.19642
-1.60384
-0.949731
-0.253644
0.465522
1.19079
1.90961
2.61162
3.28925
3.93542
4.5418
5.09913
5.59978
6.0347
6.38373
6.61331
6.68613
6.52578
6.05261
5.17192
3.96221
2.68639
1.58529
0.744872
0.362007
0.129099
-0.0496985
-0.0994758
-0.0680911
0.0121837
0.13519
0.280972
0.354008
0.492071
0.334158
0.358216
0.805726
-2.20798
0.93672
-0.480675
0.450765
0.0785901
0.19968
0.138344
0.160773
0.160204
0.179478
0.19915
0.22461
0.250235
0.273732
0.289669
0.291693
0.271862
0.222561
0.139763
0.0289796
-0.091377
-0.200489
-0.293179
-0.379254
-0.466999
-0.557469
-0.665573
-0.831855
-0.948591
-0.628453
-0.373962
-1.03328
-1.47475
-2.16954
-2.81412
-3.32588
-3.71933
-3.91433
-3.93039
-3.78304
-3.46699
-3.01178
-2.43987
-1.77226
-1.03637
-0.253995
0.553747
1.36803
2.17488
2.96265
3.72279
4.44719
5.12658
5.75091
6.31182
6.79921
7.19088
7.45033
7.53707
7.36607
6.8502
5.88003
4.53885
3.10866
1.88789
0.904582
0.448272
0.143118
-0.0735493
-0.131252
-0.0902721
0.00635131
0.148699
0.311825
0.391207
0.530272
0.405334
0.483411
0.965845
-1.80087
1.41859
-0.472531
0.4299
0.0729621
0.199174
0.142829
0.170894
0.175286
0.199485
0.223871
0.254004
0.284186
0.311798
0.330718
0.333463
0.310634
0.253313
0.157703
0.0329318
-0.097564
-0.213252
-0.313453
-0.409498
-0.50926
-0.614445
-0.738151
-0.908739
-1.02313
-0.774018
-0.413512
-1.14693
-1.64392
-2.41151
-3.13351
-3.69839
-4.13329
-4.34294
-4.3559
-4.18729
-3.83154
-3.32225
-2.68416
-1.94088
-1.12283
-0.253999
0.642284
1.54539
2.43995
3.31308
4.15523
4.95732
5.70919
6.40004
7.02085
7.56061
7.99527
8.28565
8.3886
8.21071
7.6577
6.6038
5.13503
3.55172
2.20286
1.08523
0.537199
0.149855
-0.106336
-0.171065
-0.11789
-0.00260387
0.159548
0.337262
0.419342
0.564314
0.47758
0.615287
1.13246
-1.22712
1.94004
-0.437085
0.391826
0.0675926
0.194562
0.145567
0.178531
0.188271
0.217514
0.24716
0.282613
0.318141
0.35065
0.373243
0.377144
0.351304
0.285462
0.176816
0.0395765
-0.0986279
-0.220434
-0.329338
-0.436522
-0.549405
-0.670532
-0.811215
-0.990428
-1.1114
-0.933621
-0.603202
-1.14454
-1.83722
-2.66402
-3.46541
-4.08389
-4.55975
-4.78178
-4.79001
-4.59837
-4.20122
-3.63637
-2.93091
-2.11109
-1.21032
-0.254731
0.730158
1.72196
2.70396
3.66203
4.5857
5.46491
6.28867
7.04551
7.7258
8.31777
8.79572
9.1181
9.23965
9.05883
8.4744
7.34281
5.75003
4.0166
2.5239
1.28297
0.624638
0.147189
-0.149934
-0.220389
-0.151806
-0.0149279
0.168161
0.355859
0.439329
0.594991
0.549538
0.742507
1.30535
-0.60003
2.4575
-0.38135
0.342771
0.064009
0.188005
0.148847
0.186444
0.202235
0.236709
0.27194
0.31294
0.354099
0.391797
0.41831
0.423371
0.394013
0.318689
0.196923
0.0492542
-0.0950059
-0.223765
-0.342728
-0.461973
-0.588964
-0.727135
-0.886087
-1.07771
-1.21387
-1.10432
-0.842713
-1.04669
-2.07015
-2.93274
-3.81044
-4.48433
-5.00085
-5.23294
-5.23465
-5.01795
-4.5775
-3.95539
-3.18106
-2.28356
-1.29924
-0.256353
0.817428
1.89802
2.96738
4.01016
5.01501
5.97092
6.86616
7.6886
8.42809
9.07225
9.59389
9.94947
10.0921
9.91244
9.30216
8.09855
6.38414
4.50505
2.84663
1.4921
0.706604
0.132776
-0.206652
-0.280905
-0.192838
-0.0308482
0.174907
0.366773
0.455186
0.623297
0.620873
0.855794
1.47938
0.125978
2.93138
-0.314082
0.288113
0.0621751
0.179685
0.152081
0.193753
0.216083
0.255968
0.297271
0.344336
0.391759
0.435272
0.466193
0.472458
0.438831
0.352908
0.21858
0.0627449
-0.087306
-0.224556
-0.354545
-0.486589
-0.628771
-0.785266
-0.964027
-1.17151
-1.32928
-1.28125
-1.07529
-0.979091
-2.34974
-3.22573
-4.16831
-4.90105
-5.45808
-5.69772
-5.69091
-5.44679
-4.96086
-4.27956
-3.43469
-2.4582
-1.3894
-0.258588
0.904406
2.07388
3.23049
4.35774
5.4434
6.4756
7.44185
8.32948
9.12787
9.82416
10.3899
10.7799
10.9462
10.7718
10.1412
8.87097
7.03651
5.01817
3.1671
1.707
0.779645
0.104027
-0.278932
-0.354299
-0.241736
-0.0503627
0.179092
0.371956
0.470275
0.650787
0.691607
0.955906
1.62362
0.762715
3.2814
-0.243016
0.232246
0.0622332
0.170568
0.155991
0.201416
0.230895
0.276471
0.324349
0.377961
0.432203
0.482045
0.517655
0.524736
0.485433
0.38769
0.242078
0.0796139
-0.0774058
-0.224442
-0.365839
-0.511289
-0.669695
-0.845777
-1.04601
-1.27272
-1.45717
-1.46707
-1.31681
-1.06917
-2.64441
-3.54934
-4.53867
-5.33529
-5.93321
-6.17781
-6.1603
-5.88608
-5.3522
-4.6095
-3.69219
-2.63522
-1.48086
-0.261411
0.991174
2.24964
3.49341
4.70487
5.87097
6.97897
8.01576
8.96814
9.82509
10.5734
11.1837
11.6092
11.8018
11.637
10.9913
9.65965
7.70617
5.55696
3.48583
1.92165
0.84046
0.0581158
-0.369476
-0.442406
-0.299271
-0.0730755
0.178104
0.374154
0.484812
0.678561
0.7618
1.0454
1.75156
1.40368
3.48004
-0.173653
0.177863
0.063894
0.1611
0.160624
0.20954
0.246739
0.298336
0.353371
0.414127
0.475864
0.53261
0.573055
0.580028
0.533004
0.42268
0.267532
0.0984752
-0.0671673
-0.224321
-0.377111
-0.53655
-0.712185
-0.909127
-1.13261
-1.38191
-1.59742
-1.66614
-1.59403
-1.35882
-2.89027
-3.90871
-4.92242
-5.78799
-6.4279
-6.67496
-6.64443
-6.33718
-5.75256
-4.94594
-3.95408
-2.81494
-1.57376
-0.264825
1.07782
2.42546
3.75632
5.05174
6.29789
7.48124
8.58806
9.60475
10.5199
11.3202
11.9753
12.4376
12.659
12.5081
11.8526
10.4641
8.39228
6.11548
3.81349
2.13053
0.885402
-0.00799323
-0.481188
-0.54714
-0.366148
-0.0991226
0.170045
0.373218
0.497352
0.706914
0.83125
1.127
1.82355
1.81134
3.53343
-0.108942
0.126396
0.0669918
0.15192
0.166401
0.218743
0.264286
0.322326
0.38515
0.453684
0.523579
0.587669
0.632629
0.637638
0.58038
0.457623
0.294173
0.117138
-0.0579419
-0.224607
-0.388715
-0.562728
-0.756523
-0.975536
-1.22405
-1.49918
-1.74965
-1.87973
-1.90548
-1.78506
-3.02988
-4.31084
-5.32319
-6.25993
-6.94353
-7.19078
-7.14488
-6.8014
-6.16298
-5.2896
-4.22078
-2.99759
-1.66818
-0.26878
1.16448
2.60152
4.01944
5.39857
6.72439
7.9826
9.15896
10.2395
11.2124
12.0645
12.7648
13.2648
13.5176
13.3851
12.7248
11.2834
9.09443
6.67366
4.16391
2.33033
0.910874
-0.0975856
-0.617159
-0.670734
-0.442998
-0.131835
0.153313
0.366679
0.506556
0.735572
0.899632
1.20264
1.88354
2.09427
3.50337
-0.0498369
0.0783446
0.0713749
0.143549
0.173633
0.229483
0.283996
0.348964
0.420257
0.497251
0.575948
0.647586
0.695987
0.696089
0.626356
0.492156
0.320192
0.133706
-0.0500597
-0.225252
-0.400737
-0.589898
-0.802715
-1.04494
-1.3202
-1.62425
-1.91324
-2.10754
-2.23764
-2.25614
-3.05398
-4.77021
-5.74832
-6.75192
-7.48126
-7.72674
-7.66317
-7.28014
-6.58458
-5.64124
-4.49279
-3.18344
-1.76421
-0.273235
1.25128
2.778
4.28297
5.74557
7.15066
8.48324
9.7286
10.8724
11.9028
12.8064
13.5521
14.0909
14.3776
14.268
13.6078
12.1163
9.81379
7.21063
4.53414
2.51594
0.913681
-0.214171
-0.780755
-0.81558
-0.533074
-0.17705
0.125532
0.353126
0.511515
0.763824
0.966631
1.27496
1.91615
2.34705
3.4412
0.00394633
0.0337897
0.0770457
0.136578
0.182769
0.242377
0.3065
0.378951
0.459414
0.545549
0.633547
0.712413
0.76198
0.753389
0.670076
0.525254
0.343308
0.147444
-0.0430875
-0.226039
-0.413123
-0.617975
-0.850602
-1.1171
-1.42074
-1.7566
-2.08748
-2.34836
-2.57587
-2.69795
-3.04195
-5.31022
-6.20847
-7.26502
-8.04204
-8.28413
-8.20074
-7.77481
-7.01851
-6.00171
-4.77062
-3.37276
-1.86195
-0.278156
1.33836
2.9551
4.54712
6.09296
7.57692
8.98335
10.2971
11.5038
12.591
13.5458
14.3372
14.9157
15.2386
15.1566
14.5012
12.9612
10.5533
7.71583
4.90818
2.68049
0.89066
-0.361447
-0.975649
-0.984979
-0.642379
-0.238755
0.0855054
0.331485
0.51148
0.79057
1.03202
1.34521
1.90838
2.45037
3.38358
0.0531949
-0.00728737
0.0841052
0.131586
0.19426
0.258013
0.332378
0.412906
0.503238
0.599128
0.69663
0.781495
0.828495
0.807573
0.710893
0.554997
0.362027
0.158985
-0.03626
-0.226669
-0.425674
-0.646726
-0.899879
-1.19163
-1.52519
-1.89558
-2.27167
-2.60114
-2.91529
-3.10076
-3.13358
-5.9451
-6.71507
-7.80056
-8.62708
-8.86417
-8.75882
-8.28678
-7.46597
-6.37189
-5.05485
-3.56586
-1.9615
-0.283503
1.42585
3.13301
4.81212
6.44097
8.00337
9.48311
10.8648
12.1336
13.2771
14.2828
15.1199
15.7388
16.1003
16.0506
15.4042
13.8167
11.3168
8.19296
5.27194
2.82037
0.838667
-0.543343
-1.20573
-1.18322
-0.775653
-0.318751
0.0321155
0.300588
0.505776
0.814366
1.09426
1.40657
1.88946
2.57768
3.26098
0.0986972
-0.0447739
0.0927511
0.129173
0.208596
0.277003
0.362218
0.451437
0.552284
0.658383
0.765013
0.853248
0.892806
0.857348
0.747767
0.579326
0.376565
0.169748
-0.0288635
-0.22683
-0.438117
-0.675839
-0.950179
-1.26811
-1.63308
-2.04062
-2.46524
-2.86552
-3.26138
-3.51402
-3.45442
-6.64763
-7.2769
-8.36033
-9.23765
-9.46824
-9.33842
-8.81729
-7.92819
-6.7527
-5.3461
-3.76307
-2.06297
-0.289233
1.51391
3.31195
5.07822
6.78984
8.43024
9.98274
11.4316
12.7621
13.9612
15.0173
15.9
16.56
16.9621
16.9496
16.316
14.681
12.0993
8.66641
5.61446
2.93355
0.754606
-0.764061
-1.47472
-1.4155
-0.93736
-0.419838
-0.0362143
0.2594
0.493764
0.834208
1.15056
1.46041
1.8676
2.63074
3.14722
0.140963
-0.0783519
0.103225
0.129921
0.226243
0.299902
0.396525
0.495035
0.606938
0.723375
0.837765
0.925027
0.952387
0.902058
0.778949
0.597456
0.388703
0.181169
-0.0203684
-0.226218
-0.450148
-0.704974
-1.00112
-1.34612
-1.74397
-2.1912
-2.66769
-3.14134
-3.62123
-3.98082
-4.05852
-7.35666
-7.8949
-8.94604
-9.87591
-10.0983
-9.94045
-9.36741
-8.40629
-7.14508
-5.64502
-3.96476
-2.16648
-0.295307
1.60266
3.49213
5.34567
7.13982
8.85779
10.4825
11.9979
13.3893
14.6434
15.7493
16.6775
17.3788
17.8234
17.8534
17.2354
15.5529
12.8612
9.16675
5.93336
3.0172
0.635291
-1.02788
-1.78745
-1.68843
-1.1316
-0.544742
-0.120965
0.207075
0.474786
0.850055
1.20064
1.51529
1.87321
2.61496
3.03445
0.180145
-0.107511
0.115776
0.134372
0.247618
0.32719
0.435712
0.544064
0.667366
0.793688
0.912956
0.993575
1.00579
0.940915
0.80282
0.610693
0.400772
0.194248
-0.0104276
-0.224567
-0.461478
-0.733806
-1.05233
-1.4253
-1.85748
-2.34693
-2.87859
-3.42842
-3.99934
-4.51359
-4.90454
-7.99981
-8.56691
-9.56148
-10.5438
-10.7568
-10.566
-9.93798
-8.90128
-7.54995
-5.95229
-4.17135
-2.27221
-0.301688
1.69228
3.67378
5.61473
7.4912
9.28627
10.9825
12.5638
14.0154
15.3237
16.4786
17.4519
18.1947
18.6835
18.7615
18.1603
16.4351
13.5551
9.69095
6.22458
3.06873
0.477541
-1.3389
-2.14965
-2.00808
-1.36123
-0.695153
-0.22303
0.14305
0.448167
0.862218
1.24752
1.57724
1.9142
2.61078
2.95697
0.216086
-0.131629
0.130616
0.14299
0.273051
0.359235
0.480058
0.598705
0.733417
0.868171
0.98758
1.05607
1.05264
0.972511
0.819377
0.621875
0.414638
0.209498
0.00116767
-0.221658
-0.471845
-0.762031
-1.10349
-1.50532
-1.97333
-2.50749
-3.09758
-3.72657
-4.39772
-5.10548
-5.90515
-8.51873
-9.28708
-10.2096
-11.2441
-11.4471
-11.2166
-10.5298
-9.41397
-7.96817
-6.26859
-4.38326
-2.38033
-0.308355
1.78291
3.85713
5.88567
7.84426
9.71595
11.4831
13.1296
14.6405
16.0021
17.2051
18.2232
19.0074
19.5416
19.6736
19.089
17.3356
14.1611
10.2065
6.47957
3.08594
0.278521
-1.70106
-2.56695
-2.38015
-1.62993
-0.872882
-0.34312
0.0669158
0.41321
0.870634
1.29362
1.64643
1.97107
2.61212
2.8874
0.24843
-0.150077
0.147891
0.156138
0.30277
0.396277
0.529697
0.658928
0.804488
0.944682
1.05808
1.1112
1.09254
0.995676
0.830881
0.633968
0.431307
0.227094
0.0145315
-0.217313
-0.481008
-0.789365
-1.1543
-1.58588
-2.09125
-2.67257
-3.32425
-4.03557
-4.81598
-5.7359
-6.94619
-8.88762
-10.0559
-10.9001
-11.9785
-12.1726
-11.8944
-11.1439
-9.94502
-8.40043
-6.59455
-4.60094
-2.49104
-0.315302
1.87471
4.04243
6.15878
8.19929
10.1471
11.9845
13.6954
15.2648
16.6786
17.9287
18.991
19.816
20.3966
20.5893
20.0193
18.2704
14.7124
10.6873
6.69909
3.06709
0.0354676
-2.11827
-3.04524
-2.81135
-1.94184
-1.07978
-0.481875
-0.0217068
0.369168
0.874742
1.33923
1.71962
2.03835
2.66801
2.85937
0.276741
-0.162303
0.167668
0.174065
0.33689
0.438431
0.58461
0.724427
0.879293
1.02003
1.1216
1.159
1.12443
1.01102
0.840924
0.648959
0.451073
0.24703
0.0297353
-0.211359
-0.488722
-0.815516
-1.20444
-1.66669
-2.21096
-2.84184
-3.55816
-4.35507
-5.25215
-6.37991
-7.9137
-9.15581
-10.8862
-11.6394
-12.7482
-12.9364
-12.6018
-11.7816
-10.4951
-8.84723
-6.93071
-4.82482
-2.60456
-0.322536
1.96783
4.22992
6.43435
8.55661
10.5801
12.4871
14.2615
15.8886
17.3535
18.6494
19.7551
20.6201
21.2475
21.5084
20.9484
19.2276
15.2711
11.1189
6.88614
3.01095
-0.254394
-2.59457
-3.5908
-3.3087
-2.30066
-1.31736
-0.639729
-0.123207
0.315197
0.87379
1.38368
1.79645
2.11324
2.72847
2.89649
0.300589
-0.167882
0.189939
0.196913
0.375433
0.485691
0.644607
0.794497
0.955596
1.09056
1.1771
1.19951
1.14742
1.02147
0.852771
0.667651
0.473851
0.269242
0.0468655
-0.20359
-0.494702
-0.840159
-1.25357
-1.74743
-2.33212
-3.01488
-3.79873
-4.68448
-5.70343
-7.01692
-8.74232
-9.42855
-11.7988
-12.4425
-13.5541
-13.7411
-13.3415
-12.4445
-11.0649
-9.30897
-7.27746
-5.05527
-2.72111
-0.330072
2.06243
4.41986
6.71269
8.91654
11.0152
12.9911
14.8282
16.5118
18.0267
19.367
20.5151
21.4189
22.093
22.4303
21.8744
20.1101
15.8885
11.5095
7.03966
2.91627
-0.593475
-3.13406
-4.21033
-3.87964
-2.7099
-1.58684
-0.816899
-0.237991
0.250335
0.867031
1.42578
1.87692
2.19239
2.78852
2.91934
0.319588
-0.166516
0.21464
0.22473
0.418333
0.537932
0.70927
0.867801
1.03015
1.15355
1.22509
1.23184
1.16249
1.03102
0.868307
0.690069
0.499444
0.29371
0.0660778
-0.19373
-0.498605
-0.862914
-1.30131
-1.82769
-2.45432
-3.19115
-4.0452
-5.02281
-6.16646
-7.63714
-9.43339
-9.82977
-12.835
-13.3155
-14.395
-14.5879
-14.116
-13.1348
-11.6556
-9.78601
-7.63502
-5.29257
-2.84085
-0.337924
2.15865
4.61251
6.99412
9.27942
11.4528
13.4968
15.3957
17.1349
18.6984
20.0815
21.2708
22.2117
22.9319
23.354
22.8044
20.8252
16.5336
11.8527
7.1584
2.78254
-0.983498
-3.74074
-4.911
-4.53228
-3.17292
-1.88911
-1.01334
-0.366483
0.173506
0.853706
1.46405
1.95883
2.27491
2.86745
2.97886
0.333404
-0.158011
0.241671
0.257479
0.465448
0.594886
0.777831
0.942092
1.09935
1.20833
1.26589
1.25518
1.17291
1.04299
0.888088
0.715936
0.527702
0.320516
0.087633
-0.181414
-0.500012
-0.883344
-1.34721
-1.90703
-2.57705
-3.36997
-4.29657
-5.36851
-6.63766
-8.2407
-10.0707
-10.449
-13.9597
-14.2622
-15.2699
-15.4769
-14.9274
-13.8544
-12.2687
-10.2789
-8.0035
-5.53685
-2.96392
-0.34609
2.25664
4.80816
7.27897
9.6456
11.8933
14.0047
15.9645
17.7581
19.3687
20.7928
22.022
22.9976
23.7629
24.2783
23.7632
21.3525
17.1521
12.1419
7.24224
2.61053
-1.42509
-4.41793
-5.69991
-5.27487
-3.69276
-2.22464
-1.22869
-0.509122
0.083527
0.832998
1.49786
2.03832
2.3601
2.94465
3.06972
0.341761
-0.142269
0.270904
0.295041
0.516546
0.65609
0.848935
1.01416
1.16069
1.2558
1.29861
1.27068
1.18285
1.05908
0.911953
0.744979
0.558611
0.349886
0.111906
-0.166193
-0.498449
-0.900966
-1.39078
-1.98492
-2.6997
-3.55049
-4.55153
-5.71935
-7.1122
-8.82693
-10.7109
-11.355
-15.0869
-15.2726
-16.1746
-16.4068
-15.7773
-14.6049
-12.9056
-10.7882
-8.38296
-5.7881
-3.09033
-0.354532
2.35658
5.00709
7.56761
10.0155
12.3369
14.5151
16.5348
18.3816
20.0379
21.5008
22.7683
23.7759
24.5849
25.201
24.8183
21.7997
17.6987
12.3917
7.29161
2.40163
-1.91753
-5.16764
-6.5833
-6.11485
-4.2717
-2.59335
-1.46222
-0.666355
-0.0208878
0.804066
1.52755
2.11317
2.44755
3.02109
3.13454
0.34446
-0.1193
0.30218
0.337209
0.571284
0.72076
0.920348
1.08053
1.21389
1.29636
1.32238
1.28179
1.19555
1.07966
0.93956
0.777069
0.592331
0.382186
0.139364
-0.147565
-0.493407
-0.915271
-1.43151
-2.0608
-2.82156
-3.7317
-4.80842
-6.07231
-7.58371
-9.38982
-11.3459
-12.4626
-16.1283
-16.3208
-17.1043
-17.3745
-16.6664
-15.3878
-13.5678
-11.3151
-8.77359
-6.04621
-3.21999
-0.363152
2.45865
5.20962
7.86043
10.3894
12.7841
15.0284
17.107
19.0058
20.7061
22.2057
23.5097
24.5457
25.3966
26.1123
25.9854
22.2943
18.1584
12.6117
7.30756
2.15807
-2.45864
-5.99034
-7.56578
-7.05778
-4.91072
-2.99439
-1.71267
-0.838619
-0.141157
0.7661
1.55319
2.18424
2.53766
3.10767
3.24039
0.341413
-0.0892315
0.335302
0.383682
0.629152
0.787559
0.988927
1.13902
1.26012
1.32894
1.33843
1.29273
1.21254
1.1045
0.97067
0.812269
0.629188
0.417884
0.170529
-0.125007
-0.484375
-0.925755
-1.46886
-2.13408
-2.94184
-3.91238
-5.06518
-6.42349
-8.04446
-9.92202
-11.9665
-13.6679
-16.9995
-17.3782
-18.0513
-18.3752
-17.5945
-16.2037
-14.2565
-11.8604
-9.17569
-6.31104
-3.35267
-0.371765
2.56308
5.41609
8.15784
10.7679
13.2354
15.545
17.6816
19.6311
21.3737
22.9074
24.246
25.3058
26.1964
26.9952
27.055
22.924
18.5553
12.8009
7.29207
1.88361
-3.04469
-6.8846
-8.64955
-8.10628
-5.6089
-3.42595
-1.97816
-1.02632
-0.278882
0.718348
1.57449
2.25237
2.63018
3.18452
3.32008
0.332637
-0.0523221
0.370035
0.434047
0.689356
0.854311
1.0514
1.18973
1.29967
1.35262
1.35039
1.30663
1.23407
1.1333
1.00523
0.850834
0.66963
0.457502
0.205921
-0.0980226
-0.47088
-0.931945
-1.50233
-2.20412
-3.05968
-4.09111
-5.31924
-6.76804
-8.48579
-10.4171
-12.5627
-14.8602
-17.6396
-18.4125
-19.0083
-19.4022
-18.5598
-17.0522
-14.9724
-12.425
-9.58971
-6.5825
-3.48806
-0.380087
2.67016
5.62684
8.46032
11.1514
13.6912
16.0653
18.259
20.2579
22.041
23.606
24.9772
26.0554
26.9828
27.8485
27.8197
23.6002
18.8689
12.96
7.24897
1.58345
-3.67009
-7.84662
-9.83349
-9.25906
-6.36288
-3.88495
-2.25601
-1.22981
-0.435896
0.660075
1.59118
2.31748
2.72491
3.27383
3.4127
0.318222
-0.00892961
0.406097
0.487744
0.750579
0.918007
1.10594
1.23395
1.33123
1.36875
1.36246
1.32483
1.25993
1.16589
1.0434
0.893156
0.714156
0.501547
0.246014
-0.0661765
-0.452509
-0.933422
-1.53144
-2.2703
-3.17409
-4.2662
-5.5675
-7.10022
-8.89905
-10.8714
-13.1219
-15.9248
-18.008
-19.407
-19.9731
-20.4486
-19.5586
-17.9319
-15.7152
-13.0095
-10.0161
-6.86063
-3.62584
-0.38774
2.78023
5.84227
8.76832
11.5405
14.1521
16.59
18.8396
20.8866
22.7084
24.3019
25.7034
26.7939
27.7557
28.7066
28.2284
24.2496
19.0937
13.0921
7.18326
1.26383
-4.32765
-8.8704
-11.1128
-10.51
-7.16609
-4.36674
-2.54259
-1.44936
-0.614322
0.590516
1.60319
2.37884
2.82133
3.35722
3.51886
0.29824
0.0405341
0.443143
0.543963
0.810703
0.975664
1.15299
1.27172
1.35381
1.38111
1.37761
1.34754
1.28988
1.20231
1.08547
0.939693
0.763247
0.550462
0.291195
-0.0291259
-0.428939
-0.929841
-1.55576
-2.33199
-3.28401
-4.43564
-5.80627
-7.41375
-9.27687
-11.2837
-13.6291
-16.7652
-18.1387
-20.3754
-20.9526
-21.508
-20.5859
-18.8396
-16.4837
-13.6137
-10.4551
-7.14549
-3.7657
-0.394284
2.89371
6.0628
9.08234
11.9358
14.6187
17.1194
19.424
21.5177
23.3765
24.9952
26.4247
27.5212
28.518
29.6969
28.4511
24.8238
19.2596
13.1985
7.09939
0.931097
-5.00987
-9.94924
-12.48
-11.8484
-8.0082
-4.86475
-2.83307
-1.68517
-0.816639
0.508874
1.61048
2.43621
2.91834
3.437
3.6084
0.272635
0.095653
0.480717
0.601428
0.866855
1.02589
1.19387
1.30142
1.36901
1.39394
1.39704
1.37457
1.32385
1.24277
1.13186
0.99089
0.817309
0.604582
0.341738
0.013362
-0.399944
-0.920939
-1.57491
-2.38854
-3.38821
-4.5971
-6.03137
-7.70249
-9.61469
-11.6558
-14.0729
-17.3329
-18.2003
-21.3686
-21.9627
-22.5773
-21.6362
-19.7711
-17.2751
-14.2366
-10.9066
-7.43712
-3.9074
-0.399249
3.01109
6.2889
9.4029
12.3379
15.0917
17.6544
20.0127
22.1517
24.0457
25.6864
27.1412
28.2374
29.2639
30.9838
28.6686
25.2854
19.3908
13.2798
7.00125
0.590248
-5.71094
-11.0784
-13.9275
-13.2613
-8.87518
-5.3701
-3.12129
-1.93732
-1.04577
0.414328
1.61308
2.4898
3.0142
3.52213
3.70242
0.241077
0.156041
0.518131
0.658138
0.916349
1.0695
1.22831
1.32211
1.38086
1.41002
1.42092
1.40578
1.36195
1.28759
1.18296
1.04711
0.876626
0.664113
0.397788
0.0614002
-0.365408
-0.90654
-1.58856
-2.43928
-3.48529
-4.74791
-6.23849
-7.96159
-9.91189
-11.9921
-14.4605
-17.7045
-18.449
-22.3998
-23.0221
-23.6576
-22.7052
-20.7217
-18.0858
-14.8762
-11.3699
-7.73535
-4.05069
-0.402173
3.13289
6.52107
9.7305
12.7474
15.5718
18.1958
20.6066
22.7893
24.7167
26.3759
27.853
28.9424
29.9591
32.3845
29.0338
25.6674
19.494
13.3361
6.89175
0.243762
-6.42809
-12.2577
-15.4516
-14.7379
-9.75018
-5.87151
-3.39949
-2.20578
-1.30517
0.30603
1.61116
2.54105
3.10833
3.60225
3.80472
0.202802
0.221334
0.554235
0.711475
0.958249
1.10775
1.25444
1.33572
1.39358
1.43042
1.44911
1.44117
1.4044
1.3371
1.23907
1.10858
0.94134
0.72912
0.459359
0.114981
-0.325322
-0.886559
-1.59644
-2.48349
-3.5737
-4.88519
-6.4238
-8.18882
-10.1719
-12.299
-14.8135
-18.0277
-19.0803
-23.3598
-24.1424
-24.7543
-23.7917
-21.6876
-18.9113
-15.5293
-11.8432
-8.03957
-4.19526
-0.4026
3.25967
6.75982
10.0657
13.1649
16.0598
18.7444
21.2064
23.4313
25.3902
27.0644
28.5598
29.6371
30.5674
33.5752
29.4959
25.9623
19.5732
13.3671
6.77211
-0.108311
-7.16138
-13.492
-17.0546
-16.2725
-10.6152
-6.35541
-3.65829
-2.49036
-1.59892
0.183095
1.60512
2.5921
3.20292
3.68068
3.90571
0.156432
0.291085
0.587193
0.759188
0.993733
1.14003
1.27146
1.34652
1.40982
1.45527
1.48152
1.48086
1.45146
1.39159
1.30041
1.17541
1.01145
0.799534
0.526339
0.173978
-0.279786
-0.861002
-1.5983
-2.52042
-3.65171
-5.00618
-6.58488
-8.38523
-10.4009
-12.5831
-15.1497
-18.3843
-20.0829
-24.07
-25.3274
-25.8793
-24.8981
-22.6671
-19.7475