/*--------------------------------*- C++ -*----------------------------------*\
| =========                 |                                                 |
| \\      /  F ield         | OpenFOAM: The Open Source CFD Toolbox           |
|  \\    /   O peration     | Version:  4.1                                   |
|   \\  /    A nd           | Web:      www.OpenFOAM.org                      |
|    \\/     M anipulation  |                                                 |
\*---------------------------------------------------------------------------*/
FoamFile
{
    version     2.0;
    format      ascii;
    class       surfaceScalarField;
    location    "26";
    object      phi;
}
// * * * * * * * * * * * * * * * * * * * * * * * * * * * * * * * * * * * * * //

dimensions      [0 3 -1 0 0 0 0];

internalField   nonuniform List<scalar> 
13220
(
-797.243
2097.14
-1234.12
1737.08
-1683.74
1749.51
-2007.21
1623.37
-2267.75
1560.74
-2447.34
1479.49
-2555.07
1407.63
-2590.9
1336.03
-2560.64
1269.64
-2463.51
1202.77
-2294.29
1130.98
-2042.7
1048.31
-1660.76
917.954
-1022.24
661.679
277.662
-165.356
2262.5
-373.582
1945.3
-600.345
1976.27
-764.006
1787.03
-915.022
1711.75
-1018.68
1583.15
-1092.42
1481.37
-1127.54
1371.14
-1122.57
1264.67
-1072.46
1152.66
-982.09
1040.61
-858.712
924.934
-688.274
747.514
-411.214
384.616
-133.552
-134.727
2397.22
-315.058
2125.63
-443.23
2104.44
-532.86
1876.66
-613.294
1792.18
-665.334
1635.19
-707.81
1523.84
-719.342
1382.67
-658.533
1203.85
-471.448
965.567
-172.766
741.924
139.652
612.503
355.865
531.286
355.956
384.502
222.403
-90.2284
2487.45
-200.168
2235.57
-292.507
2196.78
-388.389
1972.54
-490.608
1894.4
-592.06
1736.64
-706.84
1638.62
-814.615
1490.44
-882.722
1271.96
-836.964
919.809
-641.625
546.582
-334.572
305.452
-18.1387
214.855
130.256
236.109
352.659
-36.8826
2524.33
-159.478
2358.17
-236.86
2274.17
-316.345
2052.03
-397.635
1975.69
-473.986
1812.99
-555.819
1720.46
-643.722
1578.35
-761.838
1390.08
-918.717
1076.69
-1069.39
697.253
-1119.01
355.075
-981.384
77.2234
-584.276
-161.002
-231.616
132.583
2391.75
48.8111
2441.94
57.5483
2265.43
83.8796
2025.7
123.844
1935.73
172.312
1764.52
238.47
1654.3
304.254
1512.56
334.494
1359.84
262.734
1148.45
80.8197
879.168
-132.086
567.999
-231.467
176.622
-249.443
-143.014
-481.06
218.628
2173.12
206.829
2453.74
263.885
2208.37
345.798
1943.79
446.727
1834.8
547.809
1663.44
666.227
1535.88
789.183
1389.61
900.608
1248.42
956.259
1092.8
919.93
915.499
774.108
713.82
486.065
464.665
169.148
173.903
-311.911
175.631
1997.49
198.861
2430.51
244.648
2162.59
305.974
1882.46
382.453
1758.32
452.56
1593.34
524.699
1463.74
592.261
1322.05
650.932
1189.74
684.782
1058.95
677.295
922.986
612.608
778.511
474.758
602.518
266.174
382.495
-45.7373
106.65
1890.84
156.343
2380.82
199.324
2119.61
252.089
1829.7
316.81
1693.6
371.077
1539.07
419.856
1414.97
458.042
1283.86
489.216
1158.57
511.846
1036.32
516.777
918.056
485.94
809.349
391.438
697.022
214.738
559.2
169.001
45.7867
1845.06
130.099
2296.51
205.625
2044.08
282.914
1752.41
366.505
1610.01
449.7
1455.88
534.313
1330.36
620.635
1197.54
705.054
1074.15
777.483
963.892
807.919
887.621
759.617
857.651
601.827
854.812
343.3
817.726
512.301
-69.4568
1914.51
30.2118
2196.84
112.085
1962.21
153.489
1711.01
215.17
1548.33
319.524
1351.52
470.585
1179.29
662.288
1005.84
867.886
868.556
1032.27
799.511
1083.23
836.656
979.626
961.257
724.965
1109.47
385.239
1157.45
897.541
-158.052
2072.57
-236.813
2275.6
-275.786
2001.18
-373.499
1808.72
-458.419
1633.25
-490.738
1383.84
-459.586
1148.14
-376.514
922.765
-248.297
740.339
-87.8682
639.083
80.6916
668.096
207.271
834.676
229.011
1087.73
132.043
1254.42
1029.58
139.031
1933.54
-63.855
2478.49
-323.19
2260.52
-551.074
2036.6
-761.323
1843.5
-978.618
1601.14
-1192.99
1362.51
-1396.43
1126.21
-1560.49
904.391
-1623.91
702.503
-1517.18
561.37
-1212.48
529.972
-754.557
629.817
-290.067
789.93
739.517
737.702
1195.83
969.428
2246.76
756.804
2473.14
434.237
2359.17
129.321
2148.42
-156.78
1887.24
-420.024
1625.75
-673.349
1379.54
-915.495
1146.54
-1136.12
923.126
-1292.2
717.451
-1300.48
538.254
-1069.61
398.943
-592.705
313.029
146.812
883.538
2010.61
2745.69
3255.69
3567.97
3650.27
3567.87
3384.66
3055.61
2622.92
2119.47
1561.75
994.9
469.68
1.14985e-05
506.281
-506.281
506.281
506.281
506.281
1127.63
-621.352
1127.63
1127.63
1127.63
1597.81
-470.181
1597.81
1597.81
1934.77
-336.961
1934.77
1934.77
1934.77
2148.72
-213.949
2148.72
2148.72
2243.03
-94.3067
2243.03
2243.03
2243.03
2226.76
16.2726
2226.76
2226.76
2226.76
2141.14
85.6139
2141.14
2141.14
2010.48
130.665
2010.48
2010.48
2010.48
1856.09
154.388
1856.09
1856.09
1705
151.093
1705
1705
1705
1612.67
92.3307
1612.67
1612.67
1612.67
1500.57
112.099
1500.57
1500.57
1299.56
201.004
1299.56
1299.56
1299.56
984.178
315.386
984.178
984.178
984.178
568.159
416.019
568.159
568.159
144.704
423.456
144.704
144.704
144.704
-501.732
646.436
-501.732
-501.732
-1712.41
1210.68
-1712.41
-1712.41
-1712.41
-3350.45
1638.04
-3350.45
-3350.45
-3350.45
-5361.66
2011.21
-5361.66
-5361.66
-7649.53
2287.86
-7649.53
-7649.53
-7528.66
-7412.79
-7299.91
-9613.36
2421.54
-9492.11
-9348.46
-9190.86
-9033.28
-8874.91
-8717.41
-8554.23
-8374.92
-10727
2524.37
-10539.3
-10352.9
-10167.8
-9962.6
-9756.79
-9550.7
-9344.34
-9137.06
-11462.8
2537.89
-11234
-11003.9
-10772.9
-10541.1
-10301.7
-10048.2
-9793.02
-9534.63
-9274.41
-11534.5
2507.97
-11257.3
-10979.5
-10702.3
-10426.4
-10151.4
-9861.17
-9562.27
-9263.9
-11082.9
2105.37
-10793.4
-10494.2
-10177
-9858.51
-9537.54
-9215.36
-8890.43
-8537.05
-9926.62
1730.58
-9590.03
-9257.19
-8927.32
-8581.34
-8231.21
-7886.28
-7543.52
-7204.86
-7780.04
920.091
-7434.47
-7090.6
-6744.97
-6398.6
-6052.71
-5713.66
-5377.84
-5046.62
-4725.84
-4605.86
196.588
-4344.71
-4116.89
-3899.14
-3694.81
-3503.28
-3362.91
-3307.49
-3251.83
-2474.9
-711.281
-2421.32
-2369.83
-2369.83
-1816.03
-553.799
-1302.69
-513.34
-1302.69
-846.229
-456.465
-846.229
-456.442
-389.787
-159.227
-297.215
-159.227
101.796
-261.023
320.633
-218.838
320.633
490.802
-170.169
490.802
627.192
-136.39
747.9
-120.708
747.9
858.387
-110.487
858.387
959.131
-100.744
1044.41
-85.2802
1044.41
1125.12
-80.705
1188.81
-63.6917
1188.81
1245.38
-56.5774
1245.38
1300.88
-55.4974
1343.07
-42.1858
1343.07
1387.84
-44.7748
1387.84
1435.95
-48.103
1468.1
-32.1552
1468.1
1504.19
-36.0847
1518.51
-14.3235
1518.51
1530.2
-11.6876
1530.2
1540.4
-10.2048
1530.15
10.2563
1530.15
1523.19
6.95983
1523.19
1519.43
3.75446
1503.65
15.7822
1503.65
1499.59
4.06078
1494.6
4.98901
1494.6
1506.2
-11.6033
1506.2
1535.82
-29.6193
1564.37
-28.5469
1564.37
1620.47
-56.103
1620.47
1678.46
-57.992
1696.89
-18.4228
1696.89
1729.24
-32.3523
1745.7
-16.4649
1745.7
1774.08
-28.3786
1774.08
1785.48
-11.3979
1795.11
-9.63382
1795.11
1813.09
-17.9806
1813.09
1825.13
-12.0373
1836
-10.8638
1836
1860.57
-24.5747
1877.18
-16.6052
1877.18
1911.24
-34.0674
1911.24
-33.9758
-384.967
-994.876
-433.568
-1163.7
-497.905
-1076.18
-577.022
-1073.47
-660.527
-1031.59
-739.096
-1017.38
-804.343
-1019.06
-852.649
-1046.28
-884.188
-1092.27
-901.63
-1152.36
-908.26
-1220.1
-906.911
-1290.73
-899.529
-1360.06
-887.264
-1424.41
-870.777
-1479.97
-850.646
-1522.55
-827.823
-1547.55
-804.051
-1550.64
-782.075
-1529.04
-765.362
-1483.13
-757.213
-1416.65
-759.728
-1334.45
-773.462
-1241.42
-796.292
-1146.16
-814.77
-1042.23
-794.906
-821.628
-728.665
-287.968
-673.179
369.482
-645.612
720.404
-622.936
925.922
-601.046
1132.04
-579.836
1358.48
-559.355
1596.16
-539.549
1837.1
-520.271
2075.4
-501.382
2305.77
-482.783
2523.98
-464.405
2727.93
-446.099
2916.21
-427.641
3087.61
-408.884
3240.54
-389.758
3373.63
-370.274
3485.7
-350.499
3576.3
-330.518
3646
-310.388
3696.79
-290.042
3731.63
-269.347
3752.78
-248.106
3761.09
-226.115
3754.64
-203.367
3729.51
-179.961
3685.64
-155.933
3626.5
-131.097
3551.63
-105.574
3448.82
-79.7597
3312.64
-54.0408
3143.79
-28.9948
2925.58
-5.52434
2617.47
15.0664
2168.19
31.6892
1571.27
44.9975
985.357
56.0895
492.903
70.2313
90.2544
87.3361
-132.009
101.679
-260.448
110.073
-299.542
108.336
-306.798
96.7947
-319.514
83.5523
-336.54
75.2038
-319.192
71.1476
-276.355
71.6237
-249.317
96.685
245.561
64.5253
-556.221
51.04
-2045.61
34.6996
-3035.8
26.1557
-1527.86
1662.15
-448.59
-956.193
-522.445
-1089.84
-607.632
-990.991
-698.911
-982.187
-780.952
-949.551
-845.886
-952.442
-890.227
-974.722
-916.266
-1020.24
-928.338
-1080.19
-930.851
-1149.84
-926.949
-1224
-918.427
-1299.25
-906.031
-1372.45
-889.936
-1440.5
-870.197
-1499.71
-847.221
-1545.52
-822.291
-1572.48
-798.044
-1574.89
-778.545
-1548.54
-768.471
-1493.21
-771.312
-1413.81
-787.663
-1318.09
-815.263
-1213.82
-849.535
-1111.89
-875.714
-1016.05
-852.258
-845.084
-752.166
-388.06
-663.014
280.331
-632.087
689.477
-614.036
907.871
-593.776
1111.78
-573.628
1338.33
-554.388
1576.92
-535.71
1818.42
-517.391
2057.09
-499.277
2287.65
-481.293
2506
-463.405
2710.04
-445.474
2898.28
-427.298
3069.44
-408.753
3221.99
-389.784
3354.66
-370.414
3466.33
-350.721
3556.61
-330.795
3626.08
-310.699
3676.69
-290.37
3711.3
-269.68
3732.09
-248.432
3739.85
-226.423
3732.63
-203.651
3706.73
-180.217
3662.21
-156.152
3602.44
-131.251
3526.73
-105.611
3423.18
-79.5998
3286.63
-53.5355
3117.73
-27.8877
2899.94
-3.41624
2592.99
18.5839
2146.19
36.9714
1552.88
52.6729
969.656
67.6649
477.911
88.8716
69.0477
114.086
-157.224
130.742
-277.104
138.153
-306.952
134.593
-303.238
120.389
-305.31
102.58
-318.73
88.9757
-305.588
79.3634
-266.742
72.6717
-242.625
103.474
214.758
71.4854
-524.232
54.5413
-2028.66
30.1277
-3011.39
16.3185
-1514.05
1644.4
-504.033
-905.737
-591.407
-1002.47
-679.756
-902.641
-764.529
-897.415
-832.63
-881.449
-881.442
-903.631
-911.824
-944.34
-928.046
-1004.02
-934.278
-1073.96
-933.745
-1150.38
-928.311
-1229.44
-918.824
-1308.74
-905.483
-1385.79
-888.239
-1457.75
-867.181
-1520.77
-843.029
-1569.67
-817.727
-1597.78
-794.944
-1597.67
-779.855
-1563.63
-777.567
-1495.5
-790.493
-1400.88
-816.638
-1291.95
-850.824
-1179.64
-887.278
-1075.43
-914.279
-989.047
-894.366
-864.997
-784.361
-498.065
-662.757
158.726
-615.68
642.401
-600.084
892.274
-583.412
1095.11
-565.03
1319.95
-547.266
1559.16
-530.089
1801.24
-513.157
2040.15
-496.206
2270.7
-479.162
2488.95
-462.022
2692.9
-444.672
2880.93
-426.939
3051.7
-408.728
3203.78
-390.006
3335.94
-370.818
3447.14
-351.253
3537.05
-331.415
3606.24
-311.372
3656.65
-291.071
3691
-270.386
3711.41
-249.124
3718.58
-227.085
3710.59
-204.272
3683.92
-180.793
3638.73
-156.661
3578.31
-131.649
3501.72
-105.827
3397.35
-79.5153
3260.32
-52.943
3091.15
-26.4355
2873.43
-0.59737
2567.16
23.3132
2122.28
44.1858
1532.01
63.0347
950.807
83.035
457.911
108.331
43.7513
135.377
-184.269
151.603
-293.331
157.074
-312.423
151.627
-297.791
136.105
-289.788
116.648
-299.273
101.028
-289.968
88.5068
-254.221
77.2192
-231.337
106.883
185.095
75.0338
-492.383
53.704
-2007.33
20.8844
-2978.57
-6.00331
-1487.16
1621.79
-574.5
-843.792
-672.328
-904.64
-758.205
-816.764
-832.269
-823.351
-885.142
-828.577
-918.931
-869.841
-937.127
-926.145
-944.647
-996.5
-945.077
-1073.53
-940.705
-1154.75
-932.554
-1237.59
-920.87
-1320.43
-905.484
-1401.18
-886.191
-1477.04
-863.168
-1543.79
-837.574
-1595.27
-812.281
-1623.07
-792.304
-1617.65
-783.996
-1571.94
-792.308
-1487.18
-817.388
-1375.8
-853.66
-1255.68
-893.06
-1140.24
-929.5
-1038.99
-955.387
-963.159
-940.166
-880.218
-829.955
-608.276
-676.914
5.68519
-602.645
568.131
-583.124
872.754
-569.901
1081.89
-554.381
1304.43
-538.515
1543.29
-523.013
1785.74
-507.755
2024.89
-492.312
2255.26
-476.519
2473.16
-460.379
2676.76
-443.809
2864.36
-426.679
3034.57
-408.924
3186.03
-390.543
3317.56
-371.603
3428.2
-352.214
3517.66
-332.493
3586.52
-312.519
3636.68
-292.248
3670.73
-271.563
3690.72
-250.273
3697.29
-228.187
3688.51
-205.315
3661.05
-181.766
3615.18
-157.535
3554.08
-132.37
3476.55
-106.308
3371.29
-79.6125
3233.62
-52.4084
3063.95
-24.8583
2845.88
2.61202
2539.69
28.8261
2096.07
52.7463
1508.09
75.4435
928.11
101.656
431.698
131.02
14.3875
159.806
-213.055
175.704
-309.229
179.47
-316.19
172.097
-290.418
154.885
-272.576
133.31
-277.698
115.019
-271.678
98.9765
-238.178
83.4733
-215.834
111.621
156.947
79.1655
-459.927
50.7537
-1978.92
6.40033
-2934.22
-26.0068
-1454.75
1571.21
-652.198
-774.107
-752.099
-804.739
-827.089
-741.774
-885.313
-765.127
-921.788
-792.101
-942.24
-849.39
-951.127
-917.257
-952.827
-994.801
-949.786
-1076.57
-943.239
-1161.3
-933.438
-1247.39
-920.168
-1333.7
-903.041
-1418.31
-881.854
-1498.23
-857.084
-1568.56
-830.642
-1621.71
-806.723
-1646.99
-791.969
-1632.4
-793.57
-1570.34
-815.039
-1465.71
-852.662
-1338.18
-896.754
-1211.58
-937.309
-1099.68
-969.211
-1007.09
-989.987
-942.384
-979.316
-890.889
-881.269
-706.322
-706.17
-169.414
-595.884
457.845
-565.439
842.309
-553.532
1069.98
-541.233
1292.13
-527.991
1530.05
-514.477
1772.23
-501.095
2011.51
-487.459
2241.62
-473.25
2458.95
-458.402
2661.91
-442.847
2848.81
-426.506
3018.23
-409.356
3168.88
-391.428
3299.63
-372.819
3409.59
-353.663
3498.5
-334.096
3566.95
-314.211
3616.79
-293.976
3650.5
-273.286
3670.03
-251.955
3675.96
-229.804
3666.36
-206.85
3638.09
-183.204
3591.53
-158.84
3529.71
-133.476
3451.19
-107.114
3344.93
-79.951
3206.46
-51.9916
3035.99
-23.2165
2817.1
6.15891
2510.31
35.0816
2067.14
62.6128
1480.56
89.8412
900.881
123.662
397.877
156.387
-18.3372
185.67
-242.338
200.697
-324.255
202.645
-318.138
193.293
-281.065
174.526
-253.81
151.304
-254.475
130.655
-251.029
111.11
-218.633
91.0116
-195.735
115.926
132.032
82.7786
-426.78
44.5618
-1940.7
-13.8491
-2875.81
-55.5425
-1413.06
1504.8
-731.956
-702.226
-824.87
-711.825
-883.541
-683.103
-924.908
-723.76
-947.146
-769.862
-957.633
-838.903
-960.28
-914.61
-958.278
-996.803
-952.917
-1081.93
-944.616
-1169.6
-933.144
-1258.86
-918.045
-1348.79
-898.873
-1437.48
-875.587
-1521.51
-849.184
-1594.96
-822.68
-1648.21
-802.009
-1667.67
-795.497
-1638.91
-810.244
-1555.59
-846.439
-1429.52
-895.137
-1289.48
-943.152
-1163.57
-980.454
-1062.38
-1004.15
-983.399
-1016.44
-930.094
-1007.54
-899.79
-927.12
-786.738
-744.858
-351.676
-597.646
310.633
-548.99
793.653
-535.445
1056.44
-525.593
1282.28
-515.412
1519.87
-504.411
1761.23
-493.146
2000.25
-481.521
2230
-469.185
2446.61
-455.932
2648.66
-441.653
2834.53
-426.311
3002.89
-409.933
3152.5
-392.591
3282.29
-374.412
3391.41
-355.559
3479.65
-336.194
3547.59
-316.425
3597.02
-296.239
3630.31
-275.544
3649.34
-254.164
3654.58
-231.932
3644.13
-208.877
3615.04
-185.11
3567.77
-160.583
3505.19
-134.984
3425.59
-108.274
3318.22
-80.5768
3178.76
-51.7664
3007.18
-21.6253
2786.96
9.86935
2478.82
41.8236
2035.19
73.4139
1448.97
105.675
868.62
147.335
356.218
183.622
-54.6247
212.573
-271.289
226.637
-338.32
226.954
-318.455
215.618
-269.729
195.161
-233.353
170.408
-229.722
147.642
-228.263
124.822
-195.813
99.7781
-170.692
119.903
111.907
86.0952
-392.972
35.3973
-1890
-38.9418
-2801.47
-84.5168
-1367.49
1408.25
-806.932
-634.348
-885.158
-633.599
-925.649
-642.613
-951.868
-697.541
-963.138
-758.593
-966.792
-835.249
-965.43
-915.972
-961.01
-1001.22
-953.906
-1089.04
-943.997
-1179.51
-930.771
-1272.09
-913.663
-1365.9
-892.284
-1458.86
-866.915
-1546.88
-839.374
-1622.5
-814.241
-1673.35
-799.565
-1682.34
-804.977
-1633.5
-835.73
-1524.84
-886.468
-1378.78
-942.601
-1233.35
-989.42
-1116.75
-1019.22
-1032.58
-1032.02
-970.602
-1033.24
-928.868
-1021.89
-911.14
-959.39
-849.24
-787.951
-523.114
-610.002
132.684
-535.551
719.201
-516.719
1037.6
-507.96
1273.52
-500.613
1512.52
-492.582
1753.2
-483.835
1991.5
-474.425
2220.59
-464.176
2436.37
-452.801
2637.28
-440.08
2821.81
-425.975
2988.79
-410.56
3137.09
-393.954
3265.68
-376.322
3373.78
-357.86
3461.19
-338.756
3528.48
-319.142
3577.41
-299.025
3610.19
-278.331
3628.64
-256.896
3633.15
-234.572
3621.8
-211.4
3591.87
-187.491
3543.86
-162.777
3480.47
-136.912
3399.73
-109.817
3291.13
-81.5364
3150.48
-51.8059
2977.45
-20.1971
2755.35
13.5778
2445.04
48.8207
1999.95
84.831
1412.96
122.586
830.865
171.271
307.533
211.883
-95.2372
240.432
-299.838
253.449
-351.336
252.187
-317.193
238.864
-256.407
216.651
-211.139
190.475
-203.547
165.809
-203.597
139.912
-169.916
109.699
-140.479
123.716
97.8897
89.1242
-358.38
23.8592
-1824.74
-68.1379
-2709.47
-108.868
-1326.76
1281.4
-871.344
-575.742
-930.407
-574.535
-954.275
-618.745
-968.679
-683.137
-972.431
-754.84
-971.8
-835.88
-967.926
-919.847
-961.765
-1007.38
-953.082
-1097.72
-941.448
-1191.14
-926.223
-1287.31
-906.843
-1385.28
-883.098
-1482.6
-855.82
-1574.16
-828.058
-1650.27
-806.482
-1694.92
-801.408
-1687.42
-822.594
-1612.32
-870.843
-1476.59
-933.439
-1316.19
-991.415
-1175.37
-1031.62
-1076.55
-1050.6
-1013.6
-1051.23
-969.975
-1040.31
-939.793
-1022.47
-928.975
-973.551
-898.161
-829.282
-667.383
-634.149
-62.4483
-527.05
612.102
-498.152
1008.71
-488.945
1264.31
-483.746
1507.32
-478.773
1748.22
-472.986
1985.71
-466.103
2213.71
-458.128
2428.39
-448.856
2628.01
-437.973
2810.93
-425.369
2976.18
-411.135
3122.85
-395.439
3249.99
-378.492
3356.83
-360.524
3443.22
-341.758
3509.72
-322.348
3558
-302.33
3590.17
-281.649
3607.96
-260.159
3611.66
-237.734
3599.38
-214.432
3568.57
-190.364
3519.79
-165.44
3455.55
-139.284
3373.57
-111.776
3263.62
-82.8765
3121.58
-52.1763
2946.75
-19.0235
2722.2
17.1628
2408.85
55.9218
1961.19
96.6749
1372.2
140.495
787.044
195.585
252.443
240.42
-140.072
269.026
-328.445
281.022
-363.332
278.22
-314.391
262.929
-241.116
238.892
-187.103
211.32
-175.974
184.836
-177.113
155.945
-141.025
120.612
-105.145
127.799
90.7027
92.0612
-322.643
10.6924
-1743.37
-99.8659
-2598.91
-143.629
-1282.99
1128.14
-921.789
-529.595
-961.012
-535.313
-971.986
-607.771
-978.191
-676.933
-977.233
-755.797
-973.956
-839.157
-968.3
-925.503
-960.565
-1015.12
-950.17
-1108.12
-936.553
-1204.76
-919.041
-1304.83
-897.158
-1407.16
-871.03
-1508.73
-842.359
-1602.83
-815.955
-1676.67
-801.089
-1709.79
-809.941
-1678.56
-850.115
-1572.14
-914.94
-1411.76
-984.032
-1247.09
-1037.26
-1122.15
-1066.21
-1047.59
-1072.45
-1007.36
-1060.88
-981.548
-1038.15
-962.518
-1011.38
-955.746
-968.942
-940.601
-855.226
-781.099
-661.078
-256.597
-524.351
475.375
-480.888
965.244
-469.172
1252.6
-465.178
1503.33
-462.978
1746.03
-460.399
1983.13
-456.432
2209.74
-450.974
2422.93
-443.985
2621.02
-435.177
2802.12
-424.347
2965.35
-411.541
3110.05
-396.955
3235.4
-380.851
3340.73
-363.502
3425.87
-345.163
3491.38
-326.022
3538.86
-306.142
3570.29
-285.495
3587.31
-263.957
3590.12
-241.428
3576.85
-217.985
3545.12
-193.743
3495.55
-168.592
3430.4
-142.125
3347.1
-114.182
3235.67
-84.6404
3092.04
-52.9374
2915.05
-18.185
2687.45
20.5225
2370.15
63.0085
1918.7
108.813
1326.4
159.427
736.431
220.418
191.452
269.085
-188.738
298.177
-357.537
309.279
-374.433
304.957
-310.069
287.714
-223.873
261.815
-161.203
232.85
-147.01
204.426
-148.69
172.203
-108.801
131.847
-64.7889
132.276
90.2738
95.1172
-285.484
-2.90089
-1645.35
-130.702
-2471.11
-170.336
-1243.36
946.404
-957.612
-496.684
-979.391
-513.533
-981.784
-605.378
-982.767
-675.949
-978.978
-759.587
-973.892
-844.243
-966.664
-932.731
-957.229
-1024.55
-944.857
-1120.49
-928.947
-1220.67
-908.864
-1324.91
-884.324
-1431.7
-856.016
-1537.04
-826.961
-1631.89
-804.374
-1699.26
-800.384
-1713.78
-827.64
-1651.31
-888.169
-1511.61
-965.465
-1334.47
-1033.64
-1178.92
-1075.87
-1079.93
-1090.56
-1032.9
-1083.56
-1014.36
-1060.66
-1004.45
-1027.54
-995.642
-991.518
-991.765
-949.514
-982.605
-859.19
-871.422
-680.012
-435.775
-525.201
320.564
-465.918
905.961
-449.437
1236.11
-445.351
1499.24
-445.379
1746.05
-445.978
1983.73
-445.239
2209
-442.627
2420.32
-438.119
2616.51
-431.572
2795.57
-422.762
2956.54
-411.645
3098.93
-398.396
3222.15
-383.317
3325.65
-366.73
3409.28
-348.929
3473.58
-330.134
3520.06
-310.445
3550.61
-289.863
3566.73
-268.291
3568.55
-245.66
3554.22
-222.07
3521.53
-197.643
3471.12
-172.249
3405
-145.456
3320.31
-117.064
3207.28
-86.8654
3061.84
-54.1401
2882.32
-17.7483
2651.06
23.5758
2328.82
69.9951
1872.28
121.173
1275.22
179.548
678.056
245.932
125.068
297.759
-240.564
327.691
-387.469
338.139
-384.882
332.33
-304.259
313.136
-204.679
285.362
-133.429
255.01
-116.658
224.294
-117.974
187.843
-72.3503
142.609
-19.5554
137.203
95.6807
98.5971
-246.879
-15.4318
-1531.32
-158.689
-2327.85
-183.818
-1218.23
734.208
-980.401
-475.793
-988.822
-505.112
-986.317
-607.884
-984.057
-678.209
-978.425
-765.219
-971.762
-850.905
-962.832
-941.662
-951.411
-1035.98
-936.731
-1135.17
-918.214
-1239.18
-895.328
-1347.79
-868.129
-1458.9
-838.204
-1566.96
-810.5
-1659.59
-795.274
-1714.48
-807.137
-1701.92
-856.381
-1602.06
-935.507
-1432.49
-1018
-1251.97
-1077.25
-1119.67
-1103.89
-1053.28
-1103.29
-1033.5
-1083.81
-1033.84
-1051.04
-1037.21
-1009.48
-1037.21
-965.609
-1035.64
-921.124
-1027.09
-846.903
-945.643
-689.887
-592.79
-526.122
156.799
-453.062
832.901
-430.595
1213.65
-424.848
1493.5
-426.238
1747.44
-429.762
1987.26
-432.377
2211.62
-432.942
2420.88
-431.19
2614.76
-427.079
2791.46
-420.487
2949.95
-411.308
3089.75
-399.644
3210.49
-385.798
3311.81
-370.137
3393.62
-353.002
3456.44
-334.65
3501.71
-315.218
3531.17
-294.742
3546.26
-273.159
3546.97
-250.436
3531.49
-226.699
3497.8
-202.078
3446.5
-176.428
3379.35
-149.296
3293.18
-120.446
3178.43
-89.5836
3030.98
-55.8264
2848.56
-17.7657
2613
26.2659
2284.79
76.8336
1821.71
133.753
1218.3
201.211
610.598
272.559
53.7191
326.58
-294.584
357.451
-418.341
367.507
-394.938
360.258
-297.01
339.1
-183.522
309.488
-103.816
277.713
-84.8827
243.972
-84.2337
201.516
-29.8942
152.184
29.7769
142.646
105.218
102.81
-207.043
-25.3609
-1403.15
-181.275
-2171.94
-209.121
-1190.38
508.622
-992.928
-464.558
-992.343
-505.697
-987.392
-612.835
-982.914
-682.687
-975.759
-772.374
-967.381
-859.283
-956.451
-952.591
-942.702
-1049.72
-925.387
-1152.48
-903.989
-1260.58
-878.175
-1373.61
-848.568
-1488.51
-818.137
-1597.39
-794.492
-1683.24
-791.325
-1717.65
-824.135
-1669.11
-896.572
-1529.63
-988.61
-1340.45
-1066.97
-1173.62
-1110.47
-1076.17
-1119.43
-1044.31
-1104.33
-1048.6
-1074.02
-1064.15
-1033.26
-1077.98
-985.476
-1084.99
-936.024
-1085.09
-888.697
-1074.42
-825.112
-1009.23
-693.357
-724.546
-526.85
-9.70821
-441.046
747.097
-412.997
1185.6
-404.424
1484.92
-405.92
1748.94
-411.881
1993.22
-417.795
2217.53
-421.761
2424.85
-423.083
2616.08
-421.638
2790.02
-417.432
2945.74
-410.402
3082.72
-400.571
3200.66
-388.19
3299.43
-373.643
3379.07
-357.322
3440.12
-339.526
3483.92
-320.433
3512.08
-300.119
3525.94
-278.558
3525.41
-255.758
3508.69
-231.879
3473.92
-207.06
3421.68
-181.144
3353.44
-153.664
3265.7
-124.349
3149.12
-92.8224
2999.45
-58.0312
2813.77
-18.2775
2573.24
28.5554
2237.96
83.5044
1766.76
146.606
1155.2
224.995
532.209
300.914
-22.2001
355.811
-349.482
387.361
-449.89
397.246
-404.823
388.647
-288.41
365.518
-160.393
334.172
-72.4704
300.805
-51.5157
262.536
-45.9649
212.828
19.8144
161.312
81.2924
148.826
117.705
108.044
-166.261
-31.5961
-1263.51
-193.851
-2009.69
-206.888
-1177.35
269.382
-998.137
-460.344
-992.169
-511.665
-985.964
-619.04
-979.593
-689.057
-970.81
-781.157
-960.394
-869.7
-947.112
-965.874
-930.694
-1066.14
-910.454
-1172.72
-885.989
-1285.04
-857.306
-1402.29
-825.937
-1519.88
-796.893
-1626.44
-781.213
-1698.92
-795.694
-1703.17
-853.386
-1611.41
-946.333
-1436.68
-1041.96
-1244.82
-1106.83
-1108.75
-1130.47
-1052.53
-1122.2
-1052.59
-1094.7
-1076.09
-1055.82
-1103.04
-1009.21
-1124.59
-957.515
-1136.68
-904.935
-1137.67
-855.729
-1123.62
-799.08
-1065.88
-689.833
-833.793
-525.168
-174.373
-427.407
649.336
-395.753
1153.94
-384.673
1473.84
-384.995
1749.26
-392.548
2000.77
-401.527
2226.51
-408.97
2432.29
-413.648
2620.76
-415.163
2791.53
-413.537
2944.12
-408.827
3078.01
-401.05
3192.88
-390.374
3288.75
-377.155
3365.85
-361.818
3424.78
-344.71
3466.81
-326.055
3493.43
-305.97
3505.86
-284.476
3503.91
-261.627
3485.84
-237.616
3449.91
-212.6
3396.67
-186.413
3327.25
-158.577
3237.86
-128.795
3119.33
-96.6064
2967.26
-60.7841
2777.95
-19.3159
2531.77
30.4214
2188.22
90.0098
1707.18
159.838
1085.37
249.84
442.207
330.703
-103.063
385.601
-404.38
417.369
-481.659
427.219
-414.672
417.391
-278.582
392.332
-135.333
359.443
-39.5819
323.883
-15.9556
279.137
-1.21855
222.609
76.3423
170.978
132.923
155.811
132.872
114.528
-124.978
-33.4869
-1115.5
-200.619
-1842.55
-218.725
-1159.24
32.234
-998.446
-460.882
-989.53
-520.581
-982.3
-626.27
-973.947
-697.411
-963.216
-791.887
-950.385
-882.531
-934.408
-981.851
-915.032
-1085.52
-891.659
-1196.1
-864.085
-1312.62
-832.877
-1433.5
-800.979
-1551.78
-776.26
-1651.16
-773.719
-1701.46
-811.517
-1665.37
-895.079
-1527.85
-1001.16
-1330.6
-1089.12
-1156.86
-1133.4
-1064.47
-1136.4
-1049.53
-1113.31
-1075.68
-1076.3
-1113.1
-1031.38
-1147.95
-981.228
-1174.74
-927.827
-1190.08
-874.292
-1191.2
-824.398
-1173.52
-772.24
-1118.04
-679.645
-926.388
-518.74
-335.278
-410.371
540.968
-377.156
1120.73
-365.538
1462.23
-364.14
1747.86
-372.133
2008.76
-383.672
2238.05
-394.524
2443.15
-402.733
2628.97
-407.521
2796.32
-408.735
2945.33
-406.515
3075.79
-400.972
3187.34
-392.228
3280.01
-380.567
3354.19
-366.406
3410.62
-350.138
3450.54
-332.037
3475.33
-312.268
3486.09
-290.899
3482.54
-268.036
3462.98
-243.915
3425.79
-218.707
3371.46
-192.245
3300.79
-164.05
3209.67
-133.801
3089.09
-100.958
2934.42
-64.112
2741.1
-20.9074
2488.57
31.8531
2135.46
96.3706
1642.66
173.734
1008.01
273.545
342.396
359.964
-189.482
415.696
-460.111
447.51
-513.473
457.314
-424.476
446.359
-267.627
419.502
-108.477
385.125
-5.20435
345.791
23.3786
293.32
51.2516
231.977
137.686
181.367
183.532
163.475
150.765
122.358
-83.8609
-31.3228
-961.817
-197.389
-1676.49
-180.81
-1175.82
-206.568
-995.438
-464.593
-984.828
-531.191
-976.239
-634.859
-965.622
-708.028
-952.556
-804.954
-936.959
-898.127
-918.005
-1000.81
-895.466
-1108.06
-868.882
-1222.68
-838.377
-1343.12
-805.416
-1466.46
-775.04
-1582.15
-758.868
-1667.33
-775.6
-1684.72
-840.939
-1600.03
-946.69
-1422.1
-1054.5
-1222.79
-1124.27
-1087.09
-1144.69
-1044.05
-1129.28
-1064.94
-1094.95
-1110
-1051.56
-1156.49
-1003.21
-1196.3
-951.721
-1226.23
-898.497
-1243.31
-845.603
-1244.1
-795.858
-1223.26
-746.416
-1167.48
-666.25
-1006.55
-510.579
-490.949
-390.129
420.519
-355.885
1086.48
-346.228
1452.57
-343.802
1745.44
-351.192
2016.15
-364.424
2251.28
-378.438
2457.16
-390.24
2640.77
-398.554
2804.63
-402.921
2949.7
-403.41
3076.28
-400.257
3184.18
-393.639
3273.39
-383.763
3344.32
-370.993
3397.85
-355.738
3435.28
-338.326
3457.91
-318.974
3466.73
-297.802
3461.37
-274.975
3440.15
-250.773
3401.58
-225.386
3346.07
-198.652
3274.05
-170.097
3181.11
-139.385
3058.37
-105.899
2900.93
-68.0403
2703.24
-23.0751
2443.6
32.8497
2079.54
102.635
1572.87
188.884
921.757
296.764
234.516
387.898
-280.615
445.659
-517.872
477.776
-545.59
487.444
-434.145
475.422
-255.605
446.839
-79.8943
410.08
31.5549
364.887
68.5714
305.041
111.098
241.454
201.274
192.396
232.589
171.639
171.522
131.501
-43.7235
-24.9301
-805.386
-198.011
-1503.41
-170.309
-1203.52
-432.98
-989.887
-470.612
-977.914
-543.164
-967.415
-645.357
-954.208
-721.235
-938.44
-820.721
-919.808
-916.759
-897.694
-1022.92
-871.916
-1133.84
-842.228
-1252.37
-809.283
-1376.07
-775.941
-1499.8
-750.227
-1607.87
-748.169
-1669.39
-790.334
-1642.56
-883.924
-1506.44
-1002.75
-1303.27
-1099.18
-1126.36
-1143.7
-1042.57
-1141.18
-1046.58
-1111.54
-1094.58
-1069.94
-1151.6
-1023.21
-1203.22
-973.805
-1245.71
-922.824
-1277.21
-871.079
-1295.05
-819.67
-1295.51
-770.326
-1272.6
-721.959
-1215.85
-650.846
-1077.67
-502.923
-638.872
-367.896
285.492
-331.491
1050.08
-325.5
1446.58
-323.844
1743.78
-330.311
2022.62
-344.162
2265.13
-360.791
2473.79
-376.122
2656.1
-388.12
2816.63
-395.942
2957.52
-399.428
3079.76
-398.85
3183.61
-394.515
3269.05
-386.628
3336.43
-375.471
3386.7
-361.425
3421.24
-344.858
3441.35
-326.041
3447.92
-305.156
3440.48
-282.427
3417.43
-258.183
3377.34
-232.639
3320.53
-205.642
3247.06
-176.731
3152.2
-145.565
3027.21
-111.452
2866.82
-72.5941
2664.39
-25.8394
2396.85
33.4187
2020.28
108.892
1497.4
206.154
824.494
320.988
119.683
414.949
-374.577
475.124
-578.047
508.015
-578.481
517.508
-443.638
504.559
-242.656
473.879
-49.2146
433.099
72.3349
381.078
120.592
315.5
176.676
251.413
265.36
203.903
280.099
180.108
195.317
141.909
-5.52477
-12.9443
-650.532
-195.594
-1320.76
-179.786
-1219.33
-641.313
-981.944
-478.65
-968.371
-556.738
-955.421
-658.307
-939.336
-737.32
-920.593
-839.463
-898.771
-938.582
-873.451
-1048.24
-844.53
-1162.76
-812.089
-1284.81
-777.625
-1410.53
-746.097
-1531.33
-729.505
-1624.46
-748.144
-1650.75
-820.178
-1570.53
-937.293
-1389.33
-1055.74
-1184.82
-1129.37
-1052.73
-1146.6
-1025.35
-1125.33
-1067.85
-1086.44
-1133.46
-1041.29
-1196.76
-993.847
-1250.66
-945.288
-1294.26
-896.05
-1326.45
-846.354
-1344.75
-796.497
-1345.36
-747.236
-1321.86
-698.367
-1264.71
-633.311
-1142.72
-497.118
-775.065
-345.624
133.998
-304.169
1008.62
-302.072
1444.48
-303.464
1745.17
-309.8
2028.96
-323.444
2278.77
-341.804
2492.15
-360.384
2674.68
-376.119
2832.37
-387.628
2969.03
-394.439
3086.57
-396.688
3185.85
-394.794
3267.16
-389.063
3330.7
-379.729
3377.36
-367.104
3408.61
-351.557
3425.8
-333.413
3429.78
-312.92
3419.99
-290.368
3394.87
-266.135
3353.1
-240.464
3294.86
-213.219
3219.81
-183.963
3122.95
-152.356
2995.6
-117.635
2832.1
-77.7985
2624.55
-29.2189
2348.27
33.5728
1957.49
115.272
1415.7
226.911
712.856
348.025
-1.43156
441.783
-468.335
503.822
-640.086
537.948
-612.607
547.366
-453.056
533.722
-229.012
500.597
-16.0889
454.556
118.376
395.503
179.645
325.578
246.601
261.941
328.997
215.687
326.354
188.737
222.267
153.267
29.9448
6.82885
-504.093
-182.135
-1131.79
-172.198
-1229.27
-843.131
-971.398
-488.783
-955.738
-572.397
-939.93
-674.116
-920.771
-756.479
-898.913
-861.322
-873.897
-963.597
-845.49
-1076.65
-813.728
-1194.52
-779.193
-1319.34
-744.707
-1445.02
-718.265
-1557.77
-716.66
-1626.06
-762.548
-1604.86
-864.831
-1468.24
-994.644
-1259.51