/*--------------------------------*- C++ -*----------------------------------*\
| =========                 |                                                 |
| \\      /  F ield         | OpenFOAM: The Open Source CFD Toolbox           |
|  \\    /   O peration     | Version:  4.1                                   |
|   \\  /    A nd           | Web:      www.OpenFOAM.org                      |
|    \\/     M anipulation  |                                                 |
\*---------------------------------------------------------------------------*/
FoamFile
{
    version     2.0;
    format      ascii;
    class       volVectorField;
    location    "26";
    object      U;
}
// * * * * * * * * * * * * * * * * * * * * * * * * * * * * * * * * * * * * * //

dimensions      [0 1 -1 0 0 0 0];

internalField   nonuniform List<vector> 
6785
(
(1.36479e-14 -2.31442 16.532)
(1.11563e-14 -7.92139 12.9761)
(-2.85213e-15 -5.12615 13.7702)
(4.15096e-15 -5.07632 13.2714)
(8.71155e-16 -4.29256 13.1285)
(-1.47639e-16 -3.88109 12.8392)
(2.62382e-15 -3.46999 12.5475)
(6.43989e-16 -3.16758 12.1945)
(-7.08772e-16 -2.92751 11.7913)
(1.5795e-15 -2.78096 11.3484)
(2.75725e-16 -2.71793 10.935)
(-4.25042e-16 -2.75813 10.6076)
(8.73393e-16 -3.23883 10.1139)
(-1.72794e-16 -3.37465 9.26314)
(-3.58295e-16 -0.0802448 7.439)
(2.07436e-14 -10.1695 26.8894)
(1.36079e-14 -16.3338 22.9892)
(-2.68174e-15 -11.1273 23.3787)
(5.00542e-15 -12.0574 21.4561)
(7.55399e-16 -10.3313 20.5737)
(1.11604e-15 -9.78575 19.2815)
(2.37181e-15 -8.86429 18.177)
(2.37642e-16 -8.21174 17.0892)
(1.87046e-16 -7.61317 16.1418)
(1.16124e-15 -7.13671 15.2224)
(9.33428e-17 -6.64066 14.1544)
(3.80177e-16 -5.93719 12.7406)
(8.15903e-16 -4.82075 10.4124)
(-4.63373e-16 -2.78175 5.77715)
(-6.18897e-16 0.250278 -0.765569)
(2.09582e-14 -12.5819 27.7184)
(1.19652e-14 -16.5172 24.3551)
(-1.90058e-15 -11.6366 24.25)
(3.86083e-15 -12.7629 21.6252)
(7.6206e-16 -10.5524 20.5881)
(1.15815e-15 -10.1221 18.777)
(8.40667e-16 -8.93865 17.4058)
(1.39452e-16 -8.13181 15.8581)
(-6.51638e-17 -7.16808 14.2657)
(-4.84355e-16 -6.36483 12.5348)
(-3.68778e-16 -5.8668 10.9925)
(-1.10801e-15 -5.65331 9.71965)
(-3.29656e-15 -4.98819 7.87313)
(-2.08725e-15 -2.94878 4.23397)
(-1.37456e-15 -1.1658 -0.37307)
(2.1478e-14 -13.7341 27.8885)
(9.09163e-15 -16.2632 24.953)
(-1.05843e-15 -12.2803 24.5296)
(2.68637e-15 -13.1693 21.89)
(-3.93193e-17 -10.8817 20.9344)
(1.21262e-15 -10.56 19.1113)
(-2.20788e-16 -9.24134 17.8892)
(-6.89143e-16 -8.27972 16.1535)
(6.24446e-18 -6.55781 13.6143)
(-3.37255e-16 -4.38867 9.84503)
(8.13531e-16 -2.45502 6.23068)
(2.17955e-15 -1.92252 4.56341)
(2.07021e-17 -2.66904 4.83063)
(-1.86366e-15 -3.6221 5.57284)
(1.12764e-15 -3.41683 6.27905)
(2.22777e-14 -14.793 29.2772)
(8.00349e-15 -16.9021 26.3698)
(-6.40003e-16 -13.2247 25.8998)
(2.59082e-15 -14.1412 23.3661)
(2.11129e-16 -11.7758 22.5231)
(1.43464e-15 -11.74 20.6949)
(-6.67417e-17 -10.3387 19.6697)
(3.41464e-18 -9.63629 17.9853)
(5.10772e-16 -7.81697 15.4682)
(1.0053e-15 -5.1835 11.0799)
(4.86594e-15 -1.91812 5.99968)
(9.25851e-15 0.547928 1.95697)
(1.14253e-14 2.1223 -0.694374)
(8.81457e-15 2.29094 -1.51054)
(3.81855e-15 0.580499 0.147878)
(2.16598e-14 -14.9529 28.8391)
(9.63527e-15 -17.909 27.9237)
(-1.10359e-15 -13.9551 26.4527)
(2.5456e-15 -14.8736 23.8344)
(5.23309e-16 -12.6644 22.9232)
(6.85754e-16 -12.7401 20.9852)
(4.64035e-16 -11.498 19.857)
(2.76337e-16 -11.033 18.2596)
(-1.40745e-16 -9.88146 16.4136)
(4.46264e-16 -8.25841 13.5183)
(2.04172e-15 -5.82595 9.72628)
(3.21351e-15 -2.9479 5.50858)
(5.41791e-15 0.376548 0.580472)
(-1.39852e-15 3.44242 -3.54974)
(2.82627e-15 2.41758 -6.20265)
(2.06806e-14 -14.1236 26.3866)
(1.26625e-14 -18.0635 28.4556)
(-1.90907e-17 -14.1841 25.8784)
(2.0658e-15 -14.5049 22.97)
(1.5151e-15 -12.6643 21.8026)
(1.23027e-15 -12.4628 19.8101)
(1.09823e-15 -11.3865 18.4011)
(1.0194e-15 -10.7956 16.7305)
(1.10776e-15 -9.96343 15.0752)
(9.37357e-16 -8.98177 13.1245)
(8.56861e-16 -7.68716 10.7774)
(1.68421e-15 -5.90389 8.05739)
(3.14749e-15 -3.87177 4.78078)
(1.32572e-15 -0.930763 1.31643)
(-1.35298e-16 1.24562 -4.20765)
(1.9412e-14 -13.0608 23.8595)
(1.50743e-14 -17.5834 28.2544)
(1.78574e-15 -14.0537 25.1644)
(1.59486e-15 -13.7211 21.989)
(2.18582e-15 -12.0787 20.6434)
(2.24798e-15 -11.6416 18.682)
(1.58241e-15 -10.5732 17.1628)
(1.53683e-15 -9.82487 15.4689)
(2.09959e-15 -8.97405 13.8731)
(1.83835e-15 -8.1052 12.2596)
(1.26697e-15 -7.18809 10.5465)
(1.50822e-15 -5.97564 8.6579)
(2.43986e-15 -4.61062 6.28247)
(1.67753e-15 -2.30743 3.26881)
(-5.26998e-15 -0.00192787 -2.08219)
(1.86172e-14 -12.2909 22.2235)
(1.64603e-14 -16.9886 27.8296)
(2.6689e-15 -13.9591 24.7327)
(1.71402e-15 -13.164 21.4287)
(2.44336e-15 -11.6612 19.9144)
(1.6535e-15 -11.1119 18.062)
(2.16616e-15 -10.1148 16.5755)
(2.29989e-15 -9.35225 14.9977)
(9.19674e-16 -8.53817 13.529)
(2.13223e-15 -7.74017 12.1034)
(2.50142e-15 -6.96849 10.6648)
(-4.03355e-17 -6.04395 9.19109)
(1.72705e-15 -5.06678 7.45244)
(2.46591e-15 -3.39137 5.27948)
(-8.24732e-15 -0.913752 0.32677)
(1.73945e-14 -11.8655 21.3797)
(1.73376e-14 -16.3305 27.0764)
(3.71625e-15 -13.7406 24.1578)
(-6.93055e-17 -12.7223 20.7671)
(2.35103e-15 -11.3275 19.1321)
(1.53816e-15 -10.8016 17.426)
(-1.66414e-16 -9.97116 16.0501)
(1.69931e-15 -9.31857 14.5981)
(6.99852e-16 -8.61995 13.1854)
(-1.72692e-15 -7.93153 11.7949)
(-4.07322e-16 -7.29372 10.5047)
(-5.70884e-16 -6.66768 9.4792)
(-2.44271e-15 -6.10931 8.63137)
(1.0941e-15 -5.0464 7.62484)
(-5.10291e-15 -2.71335 3.61706)
(1.57938e-14 -11.7801 21.2572)
(1.71216e-14 -15.3956 25.9796)
(-4.86324e-16 -13.0646 23.0684)
(-6.506e-16 -11.9513 19.7546)
(3.2153e-15 -10.5008 18.1145)
(-4.01056e-15 -9.93673 16.2694)
(-1.76296e-15 -9.03702 14.7642)
(2.26681e-15 -8.47154 13.1498)
(-5.17913e-15 -7.90331 11.7037)
(-4.44331e-15 -7.55723 10.5488)
(9.19013e-16 -7.46647 10.0735)
(-4.99594e-15 -7.66499 10.4031)
(-5.32153e-15 -7.82342 11.19)
(-5.9364e-15 -7.4463 11.3569)
(-8.22373e-15 -5.21404 8.38013)
(1.56249e-14 -12.7924 22.9387)
(1.2581e-14 -14.3023 24.7394)
(-4.65755e-15 -12.2297 22.2312)
(7.33835e-16 -11.1706 19.7342)
(8.23931e-16 -9.40949 17.6199)
(-3.89608e-15 -8.01632 14.9147)
(2.80704e-15 -6.42448 12.4338)
(5.38727e-15 -5.24916 10.0579)
(1.14896e-15 -4.38872 8.36192)
(2.5305e-15 -4.42232 7.9672)
(7.84404e-17 -5.47325 9.35345)
(-6.65988e-15 -7.22963 11.9092)
(-4.34897e-15 -8.71833 14.4852)
(-9.07912e-15 -9.42925 15.3974)
(-9.71728e-15 -6.9218 12.3558)
(1.38865e-14 -14.1905 25.014)
(1.04936e-14 -16.6322 27.8585)
(-4.84438e-15 -13.3304 24.0455)
(6.16854e-17 -12.3429 22.1055)
(-2.89005e-16 -10.5716 20.1721)
(-9.00572e-16 -8.71041 17.1424)
(4.74496e-15 -6.54444 14.1956)
(8.18065e-15 -4.66102 11.3718)
(7.80856e-15 -2.86588 8.86233)
(6.79443e-15 -1.55386 6.91105)
(2.7157e-15 -1.11562 6.16987)
(-1.34458e-15 -2.14565 7.42051)
(-2.99138e-15 -4.67517 10.6723)
(-5.98961e-15 -7.33266 13.6379)
(-6.69922e-15 -5.94329 11.5032)
(1.07807e-14 -11.4786 19.2663)
(1.34841e-14 -18.534 29.1253)
(2.33947e-15 -17.3428 27.9004)
(-4.31116e-16 -15.2426 24.6658)
(-1.34224e-15 -13.0683 22.0946)
(-1.07969e-15 -11.238 19.4469)
(2.87991e-15 -9.20348 16.8248)
(6.21726e-15 -7.37374 14.1749)
(7.88886e-15 -5.46118 11.5541)
(7.53885e-15 -3.59027 8.85281)
(5.86233e-15 -1.82929 6.34797)
(2.72923e-15 -0.541222 4.37909)
(6.42795e-16 -0.163657 3.42282)
(-4.13283e-16 -1.08296 4.0636)
(-2.20955e-15 -1.96481 4.65484)
(4.56592e-15 -5.42202 9.00981)
(1.37981e-14 -15.5586 22.9953)
(1.40908e-14 -20.6007 29.3609)
(1.0628e-14 -21.8896 29.9153)
(6.59837e-15 -21.1292 27.6461)
(3.36553e-15 -19.5327 24.2701)
(1.83139e-15 -17.5292 20.8575)
(1.45695e-15 -15.5783 17.8584)
(1.50785e-15 -13.6433 15.1176)
(1.70941e-15 -11.6501 12.6978)
(1.96863e-15 -9.66673 10.5099)
(1.77039e-15 -7.62522 8.39078)
(1.43704e-15 -5.51079 6.20701)
(1.26743e-15 -3.20471 3.73811)
(4.19331e-16 -0.0265627 -0.118037)
(-1.33563e-15 46.4791 7.19346)
(-2.4785e-15 13.6659 -0.5771)
(-1.96706e-15 -1.70676 -2.56824)
(-1.99164e-15 1.3815 -2.79087)
(-1.93687e-15 1.00235 -2.59584)
(-2.85346e-15 1.08362 -3.82744)
(-2.1626e-15 1.26272 -2.70518)
(-2.18646e-15 1.63938 -2.6328)
(-2.19707e-15 1.67832 -2.47468)
(-2.79629e-15 2.18402 -3.20209)
(-2.03551e-15 1.99548 -2.22553)
(-1.9066e-15 2.22789 -2.07321)
(-2.82548e-15 2.77968 -2.58251)
(-2.12511e-15 2.34535 -1.78076)
(-2.15997e-15 2.66762 -1.72203)
(-2.10187e-15 2.64324 -1.63795)
(-3.08414e-15 3.17911 -1.95522)
(-2.28612e-15 2.70998 -1.34175)
(-2.13354e-15 2.89829 -1.24566)
(-3.07575e-15 3.46271 -1.38222)
(-2.22939e-15 2.76465 -0.948749)
(-2.19847e-15 3.07804 -0.893077)
(-2.01853e-15 2.97469 -0.847806)
(-2.88363e-15 3.52806 -0.844745)
(-2.09017e-15 2.78367 -0.606943)
(-2.05857e-15 3.06389 -0.572746)
(-2.00067e-15 2.9608 -0.572948)
(-2.76318e-15 3.3955 -0.496418)
(-2.12402e-15 2.72775 -0.398447)
(-1.96781e-15 2.86681 -0.420808)
(-2.74994e-15 3.29067 -0.277021)
(-1.91931e-15 2.51708 -0.273865)
(-1.79811e-15 2.75546 -0.278894)
(-1.65403e-15 2.65988 -0.314198)
(-2.26953e-15 2.99251 -0.14177)
(-1.51175e-15 2.36487 -0.159717)
(-1.32752e-15 2.47532 -0.195163)
(-1.77145e-15 2.82794 0.0270653)
(-1.15594e-15 2.1464 -0.0123993)
(-1.08305e-15 2.34139 -0.00730832)
(-9.00056e-16 2.23119 -0.0307793)
(-1.14248e-15 2.5986 0.206454)
(-7.47463e-16 2.05203 0.187394)
(-6.6248e-16 2.21308 0.212865)
(-5.39617e-16 2.0979 0.20116)
(-6.22389e-16 2.37546 0.510042)
(-3.90014e-16 1.94557 0.441476)
(-2.4231e-16 1.9835 0.415254)
(-1.79362e-16 2.18455 0.801375)
(6.90104e-17 1.69027 0.576537)
(9.23144e-17 1.77609 0.592169)
(9.01171e-17 1.67957 0.582665)
(1.33492e-16 1.73428 0.91839)
(1.82018e-16 1.27786 0.539033)
(1.66455e-16 1.31869 0.530264)
(3.73932e-16 1.26699 0.571771)
(5.36586e-16 1.15696 0.468015)
(3.89486e-16 0.723733 -0.171033)
(3.04422e-16 0.709272 -0.0307895)
(2.18921e-16 0.956434 -1.50433)
(-6.26578e-19 -0.04444 -2.16313)
(-1.1573e-16 0.108741 -2.25259)
(-5.78226e-17 0.425518 -2.40103)
(-5.09557e-16 0.55916 -1.13822)
(-1.11368e-15 -0.909963 1.70226)
(-8.84425e-16 -0.515377 1.38465)
(-7.82455e-16 -1.40091 3.56928)
(-3.11324e-16 -2.06186 4.02331)
(-2.51971e-16 -2.31767 3.98152)
(-3.19229e-16 -2.29575 4.16209)
(-3.90808e-16 -3.76185 7.13712)
(-3.51756e-16 -4.12202 6.26461)
(-5.30432e-16 -4.70806 6.50593)
(-6.40947e-16 -4.62563 6.74848)
(-7.59855e-16 -6.88098 10.5719)
(-4.875e-16 -6.99977 8.55146)
(-5.89858e-16 -7.13262 9.18792)
(-4.83164e-16 -9.78122 13.5223)
(-2.80017e-16 -9.5039 10.5432)
(-2.06734e-16 -10.0289 11.3175)
(-6.48017e-17 -10.72 12.8485)
(1.24831e-16 -10.6882 12.5697)
(2.75921e-16 -10.766 12.7137)
(1.06096e-15 -12.7578 15.5337)
(9.33556e-16 -11.5674 13.5272)
(1.15319e-15 -11.8957 14.0318)
(1.24465e-15 -11.8778 14.0896)
(1.33106e-15 -12.011 14.149)
(1.42334e-15 -12.0955 14.2342)
(1.54115e-15 -12.2079 14.3447)
(1.67932e-15 -12.3188 14.5894)
(1.82296e-15 -12.4013 14.9294)
(2.49189e-15 -13.3692 16.8209)
(2.27327e-15 -12.8522 15.4837)
(2.39516e-15 -13.0779 15.6433)
(2.40089e-15 -13.0311 15.6743)
(2.46396e-15 -13.24 16.002)
(2.55525e-15 -13.2124 15.9539)
(2.66027e-15 -13.3352 16.0301)
(2.78851e-15 -13.3909 16.1001)
(2.92292e-15 -13.4711 16.2316)
(3.55391e-15 -14.0651 17.7924)
(3.24172e-15 -13.6218 16.8462)
(3.39786e-15 -13.7665 17.0829)
(3.48871e-15 -13.7866 17.1786)
(3.602e-15 -13.8658 17.339)
(3.67167e-15 -13.9002 17.6139)
(3.70799e-15 -14.0081 17.9681)
(3.76656e-15 -14.0182 18.1394)
(3.82163e-15 -14.0857 18.3829)
(3.88712e-15 -14.2224 18.5756)
(4.30842e-15 -13.9485 19.1788)
(3.60832e-15 -13.871 18.6271)
(3.63791e-15 -13.9577 18.6836)
(3.62614e-15 -13.9664 18.5963)
(3.63019e-15 -14.0317 18.5343)
(3.63481e-15 -14.0336 18.5029)
(3.66817e-15 -14.094 18.7293)
(3.72251e-15 -14.0467 18.7673)
(3.81745e-15 -14.2104 18.7161)
(4.35032e-15 -12.9099 17.5235)
(3.93101e-15 -13.2655 17.8982)
(4.26027e-15 -13.2209 18.2)
(4.48062e-15 -13.2353 18.5812)
(4.6269e-15 -13.1631 18.6771)
(4.78767e-15 -13.1791 18.8927)
(4.9348e-15 -13.1579 19.0868)
(5.10115e-15 -13.0591 19.3155)
(5.42275e-15 -13.3472 19.7698)
(5.27167e-15 -10.5441 16.4176)
(5.3114e-15 -11.6747 17.9518)
(5.22874e-15 -11.5118 17.5545)
(5.20644e-15 -11.4954 17.3027)
(5.50068e-15 -11.4241 17.2293)
(5.46753e-15 -11.3389 16.7931)
(5.42751e-15 -11.1879 16.2976)
(5.51656e-15 -11.0231 15.8881)
(5.65978e-15 -11.1262 15.4485)
(5.62536e-15 -7.57488 11.006)
(6.83351e-15 -9.08733 14.647)
(6.9886e-15 -8.66409 14.3477)
(7.26513e-15 -8.65936 14.5268)
(7.55089e-15 -8.40977 14.5274)
(7.90644e-15 -8.36387 14.4918)
(8.53325e-15 -8.12125 14.2018)
(8.16021e-15 -8.01399 13.836)
(7.96091e-15 -7.78344 13.2239)
(7.42125e-15 -7.71954 12.2295)
(4.29497e-15 -3.62483 5.19159)
(6.16522e-15 -5.65937 8.9641)
(5.19376e-15 -5.11243 6.88448)
(4.6758e-15 -5.3087 5.95985)
(3.92631e-15 -4.93877 4.45795)
(3.07884e-15 -4.86596 2.88527)
(1.77405e-15 -4.63021 0.629501)
(7.14139e-16 -4.2657 -1.22969)
(9.05843e-16 -4.27443 -1.13035)
(-1.73249e-16 -3.24024 -3.83011)
(5.06697e-16 -3.44498 -1.43038)
(2.70612e-16 -3.35651 -1.94786)
(-4.95311e-16 -2.37486 -2.94415)
(-8.82388e-17 -3.33049 -3.49694)
(-3.52392e-16 -1.9739 -2.78398)
(-2.97407e-16 -1.7288 -1.96764)
(-4.09692e-16 -1.53215 -2.75163)
(-3.1878e-16 -0.989372 -1.66269)
(-4.06218e-16 -0.800424 -2.45656)
(-2.20402e-16 -0.399674 -1.58673)
(3.24617e-17 -0.225849 -1.09656)
(-4.20738e-18 0.08004 -1.63944)
(-7.37881e-18 0.214897 -1.49049)
(7.73508e-19 0.352199 -0.91734)
(-1.75438e-17 0.659742 -1.03032)
(3.15938e-17 0.630527 -0.654015)
(-1.91664e-16 0.800438 -0.699951)
(-3.062e-16 1.01921 -0.715598)
(-2.30417e-16 0.878808 -0.489364)
(-4.39911e-16 1.30376 -0.657825)
(-4.54817e-16 1.07906 -0.465991)
(-6.26362e-16 1.30776 -0.545723)
(-7.59992e-16 1.46128 -0.539501)
(-5.341e-16 1.28033 -0.339257)
(-5.4854e-16 1.54822 -0.401207)
(-6.66082e-16 1.74146 -0.361583)
(-4.71763e-16 1.38668 -0.21005)
(-6.34627e-16 1.97775 -0.241634)
(-4.82375e-16 1.54519 -0.135985)
(-6.82825e-16 1.75937 -0.163534)
(-8.06518e-16 2.00549 -0.136761)
(-5.35245e-16 1.57426 -0.087284)
(-6.53877e-16 2.22536 -0.12889)
(-4.41208e-16 1.71188 -0.076618)
(-4.48185e-16 1.98208 -0.111962)
(-5.69369e-16 2.14073 -0.0733174)
(-4.70043e-16 1.78782 -0.0253531)
(-5.9404e-16 2.11919 -0.0401964)
(-1.03491e-15 2.3005 0.0326551)
(-8.73277e-16 1.76975 0.0248169)
(-1.4007e-15 2.49863 0.0405422)
(-1.18087e-15 1.88215 0.037024)
(-1.62919e-15 2.14178 0.0277917)
(-2.1501e-15 2.32377 0.0397944)
(-1.58927e-15 1.78416 -0.0242119)
(-2.36733e-15 2.51116 -0.123704)
(-1.77732e-15 1.86437 -0.17237)
(-2.06511e-15 2.20082 -0.310235)
(-2.25506e-15 2.20263 -0.487127)
(-1.45522e-15 1.79793 -0.438915)
(-1.65687e-15 2.24962 -0.62901)
(-1.96318e-15 2.19664 -0.810233)
(-1.34224e-15 1.7038 -0.617954)
(-1.87113e-15 2.4726 -0.891664)
(-1.38381e-15 1.86 -0.685693)
(-1.72139e-15 2.19652 -0.863276)
(-2.16002e-15 2.27674 -1.01938)
(-1.41723e-15 1.81522 -0.722509)
(-1.91655e-15 2.605 -1.02953)
(-1.30867e-15 2.01905 -0.773846)
(-1.47398e-15 2.41523 -0.977607)
(-1.45294e-15 2.43211 -1.15014)
(-8.33321e-16 2.04735 -0.804405)
(-8.79018e-16 2.54576 -0.986593)
(-7.02308e-16 2.53233 -1.06667)
(-4.03008e-16 2.01636 -0.707555)
(-6.04634e-16 2.85611 -0.898328)
(-5.59651e-16 2.20604 -0.601121)
(-8.42281e-16 2.53725 -0.68313)
(-1.42688e-15 2.64436 -0.624503)
(-1.15673e-15 2.10569 -0.378905)
(-1.76023e-15 2.92427 -0.418049)
(-1.33991e-15 2.25121 -0.244155)
(-1.65037e-15 2.57857 -0.246641)
(-1.60039e-15 2.66021 -0.145003)
(-9.32421e-16 2.24815 -0.051844)
(-9.15899e-16 2.62933 -0.036825)
(-8.46159e-16 2.81012 0.0558441)
(-5.15342e-16 2.21988 0.0569318)
(-8.11883e-16 3.04902 0.0595851)
(-6.97644e-16 2.35751 0.0708461)
(-1.39926e-15 2.73574 0.056626)
(8.58211e-16 1.35494 2.4158)
(2.07404e-15 1.61188 2.71434)
(3.53556e-15 1.51388 3.06815)
(5.47441e-15 1.52741 3.56994)
(7.65568e-15 1.47555 4.12389)
(9.74104e-15 1.44938 4.68305)
(1.13999e-14 1.43473 5.17163)
(1.24077e-14 1.45041 5.55297)
(1.27043e-14 1.49184 5.81573)
(1.23726e-14 1.55553 5.97347)
(1.15847e-14 1.63342 6.04826)
(1.05463e-14 1.71847 6.06186)
(9.4569e-15 1.80398 6.03027)
(8.48545e-15 1.88414 5.96344)
(7.75501e-15 1.95328 5.86675)
(7.32724e-15 2.00577 5.74361)
(7.18172e-15 2.03598 5.59834)
(7.18964e-15 2.03912 5.4393)
(7.09219e-15 2.01272 5.28138)
(6.50894e-15 1.95817 5.14629)
(5.00798e-15 1.88018 5.05854)
(2.23671e-15 1.78368 5.03762)
(-1.97761e-15 1.6732 5.09205)
(-7.67907e-15 1.55702 5.22062)
(-1.46517e-14 1.41353 5.39636)
(-2.10423e-14 1.07367 5.46832)
(-2.23025e-14 0.302553 5.12718)
(-1.85687e-14 -0.530165 4.59408)
(-1.62958e-14 -0.976068 4.37935)
(-1.45886e-14 -1.24761 4.22771)
(-1.30135e-14 -1.5198 4.07891)
(-1.15213e-14 -1.81916 3.93517)
(-1.01003e-14 -2.13424 3.79604)
(-8.75274e-15 -2.45449 3.66201)
(-7.46855e-15 -2.77192 3.53197)
(-6.2377e-15 -3.07943 3.40494)
(-5.0487e-15 -3.3712 3.28011)
(-3.88644e-15 -3.64424 3.15698)
(-2.72948e-15 -3.89675 3.03506)
(-1.54559e-15 -4.1271 2.9129)
(-2.9815e-16 -4.33305 2.78896)
(1.04322e-15 -4.51267 2.66281)
(2.50116e-15 -4.66426 2.53395)
(4.07959e-15 -4.78715 2.40302)
(5.757e-15 -4.88204 2.27029)
(7.47845e-15 -4.9516 2.1366)
(9.16154e-15 -4.99991 2.0019)
(1.07006e-14 -5.03005 1.86533)
(1.19751e-14 -5.04324 1.72596)
(1.28737e-14 -5.03693 1.58211)
(1.33075e-14 -5.00569 1.43274)
(1.32307e-14 -4.94934 1.27881)
(1.26635e-14 -4.87253 1.12067)
(1.16754e-14 -4.77491 0.958428)
(1.0374e-14 -4.6399 0.789524)
(8.88732e-15 -4.45991 0.618118)
(7.3042e-15 -4.2358 0.445316)
(5.65065e-15 -3.94503 0.27519)
(3.93943e-15 -3.53311 0.111337)
(2.291e-15 -2.93102 -0.0376655)
(9.48494e-16 -2.13042 -0.163021)
(2.35822e-16 -1.34452 -0.259269)
(7.12422e-18 -0.682351 -0.339637)
(-2.53413e-17 -0.144833 -0.405698)
(-2.76095e-17 0.156987 -0.531855)
(-1.72376e-17 0.331437 -0.636002)
(-7.34299e-18 0.38998 -0.719576)
(-1.75939e-18 0.41154 -0.748177)
(2.79807e-19 0.440336 -0.696372)
(4.78258e-19 0.465208 -0.594235)
(2.3966e-19 0.436234 -0.51976)
(7.52825e-20 0.373343 -0.483582)
(8.61586e-21 0.33166 -0.4614)
(5.89871e-21 -0.369614 -0.500621)
(2.83113e-21 0.779618 -0.784233)
(-1.22986e-19 2.74437 -0.0764146)
(2.40965e-18 4.06777 -0.60725)
(7.34273e-17 2.04833 0.153491)
(-2.26299e-17 -2.22412 -0.515277)
(1.81288e-15 1.30137 2.7377)
(3.8775e-15 1.4986 3.23527)
(5.95803e-15 1.36717 3.73516)
(8.31984e-15 1.3507 4.36496)
(1.04962e-14 1.29394 4.95448)
(1.20895e-14 1.28326 5.45799)
(1.28841e-14 1.30099 5.82056)
(1.28771e-14 1.35466 6.04906)
(1.22307e-14 1.4318 6.1678)
(1.11815e-14 1.52441 6.21002)
(9.97382e-15 1.62388 6.20132)
(8.82158e-15 1.72466 6.158)
(7.89226e-15 1.82212 6.08769)
(7.29963e-15 1.91213 5.99272)
(7.09536e-15 1.98999 5.87309)
(7.25235e-15 2.05008 5.72953)
(7.63546e-15 2.0858 5.56675)
(7.96375e-15 2.09048 5.39715)
(7.78955e-15 2.05935 5.24346)
(6.54627e-15 1.99218 5.13717)
(3.7138e-15 1.89426 5.10913)
(-9.3982e-16 1.77357 5.17503)
(-7.23769e-15 1.63845 5.32714)
(-1.47889e-14 1.50283 5.5429)
(-2.306e-14 1.36877 5.78381)
(-2.98347e-14 1.11418 5.89393)
(-2.91462e-14 0.453303 5.46625)
(-1.98882e-14 -0.460095 4.57055)
(-1.54554e-14 -0.961407 4.26396)
(-1.39494e-14 -1.23243 4.16209)
(-1.26275e-14 -1.50861 4.02744)
(-1.12361e-14 -1.81335 3.88975)
(-9.86925e-15 -2.1321 3.7588)
(-8.56476e-15 -2.45424 3.63295)
(-7.31457e-15 -2.77213 3.50984)
(-6.10892e-15 -3.07877 3.38856)
(-4.93839e-15 -3.3687 3.26833)
(-3.78949e-15 -3.63929 3.14883)
(-2.64137e-15 -3.88869 3.02978)
(-1.4624e-15 -4.11527 2.90978)
(-2.17141e-16 -4.31704 2.78746)
(1.12382e-15 -4.49227 2.66251)
(2.58193e-15 -4.63945 2.53455)
(4.15988e-15 -4.75808 2.40426)
(5.83479e-15 -4.84893 2.27199)
(7.55082e-15 -4.91467 2.13859)
(9.22511e-15 -4.95918 2.00404)
(1.07519e-14 -4.9854 1.86755)
(1.20116e-14 -4.99444 1.72818)
(1.2894e-14 -4.98368 1.58424)
(1.3312e-14 -4.94804 1.43473)
(1.3222e-14 -4.88756 1.28061)
(1.26454e-14 -4.80681 1.12229)
(1.16524e-14 -4.70497 0.959715)
(1.03506e-14 -4.56595 0.790242)
(8.86662e-15 -4.3828 0.617846)
(7.28772e-15 -4.15647 0.443357)
(5.63928e-15 -3.86492 0.270281)
(3.93458e-15 -3.45433 0.101298)
(2.29347e-15 -2.85684 -0.0555882)
(9.5736e-16 -2.06347 -0.19117)
(2.44804e-16 -1.28468 -0.300767)
(1.07197e-17 -0.63101 -0.397509)
(-2.80368e-17 -0.0889688 -0.496656)
(-3.25477e-17 0.195555 -0.697425)
(-2.328e-17 0.361003 -0.82994)
(-1.16606e-17 0.407317 -0.912582)
(-3.80291e-18 0.407359 -0.929575)
(-2.3853e-19 0.414555 -0.865014)
(5.67627e-19 0.434979 -0.74026)
(3.96018e-19 0.416352 -0.627584)
(1.5955e-19 0.362922 -0.560444)
(3.53424e-20 0.32961 -0.490945)
(5.2284e-21 -0.295025 -0.499213)
(1.35567e-20 0.710167 -0.863404)
(-2.37106e-19 2.71323 -0.0908197)
(5.10829e-18 4.03059 -0.644869)
(1.07532e-16 2.03136 0.270033)
(-1.92796e-17 -2.20543 -0.520216)
(2.83896e-15 1.24702 3.0323)
(5.45914e-15 1.40288 3.67413)
(7.67235e-15 1.26878 4.21902)
(9.86028e-15 1.25913 4.84152)
(1.15343e-14 1.22708 5.35326)
(1.24507e-14 1.24476 5.74807)
(1.25836e-14 1.2872 6.00465)
(1.20719e-14 1.35679 6.15293)
(1.11399e-14 1.44194 6.22104)
(1.00245e-14 1.53745 6.23599)
(8.93639e-15 1.63776 6.21394)
(8.04393e-15 1.73923 6.16352)
(7.46677e-15 1.83815 6.08745)
(7.27106e-15 1.93052 5.98565)
(7.45834e-15 2.01129 5.85753)
(7.94124e-15 2.07399 5.70488)
(8.50218e-15 2.11064 5.53551)
(8.74598e-15 2.11267 5.36755)
(8.0924e-15 2.07355 5.23175)
(5.88979e-15 1.99277 5.16636)
(1.69226e-15 1.87814 5.2012)
(-4.43709e-15 1.7424 5.33869)
(-1.19048e-14 1.59801 5.54981)
(-1.99883e-14 1.46037 5.7943)
(-2.81143e-14 1.33876 6.0354)
(-3.45545e-14 1.1412 6.15713)
(-3.38313e-14 0.588222 5.76835)
(-2.25249e-14 -0.306089 4.68622)
(-1.51825e-14 -0.888566 4.15322)
(-1.30782e-14 -1.19647 4.05261)
(-1.20072e-14 -1.46646 3.9513)
(-1.08382e-14 -1.76817 3.82774)
(-9.57241e-15 -2.08728 3.70623)
(-8.32133e-15 -2.41002 3.59053)
(-7.11351e-15 -2.72876 3.47732)
(-5.94181e-15 -3.03656 3.36458)
(-4.79626e-15 -3.32794 3.25133)
(-3.66506e-15 -3.60019 3.1374)
(-2.52855e-15 -3.85124 3.02275)
(-1.35617e-15 -4.07932 2.9061)
(-1.14024e-16 -4.28248 2.78634)
(1.22605e-15 -4.45906 2.66328)
(2.68399e-15 -4.60764 2.53674)
(4.26088e-15 -4.72775 2.40745)
(5.93217e-15 -4.82015 2.27589)
(7.64099e-15 -4.88746 2.14296)
(9.30392e-15 -4.93338 2.00866)
(1.08151e-14 -4.96076 1.87228)
(1.20562e-14 -4.97062 1.73287)
(1.29185e-14 -4.96036 1.58877)
(1.33171e-14 -4.92517 1.43902)
(1.32109e-14 -4.86523 1.2846)
(1.2623e-14 -4.78497 1.12596)
(1.16241e-14 -4.6833 0.962819)
(1.0322e-14 -4.54454 0.792431)
(8.84137e-15 -4.36205 0.61852)
(7.26778e-15 -4.13663 0.441517)
(5.62582e-15 -3.84633 0.264182)
(3.92946e-15 -3.43767 0.0879953)
(2.29776e-15 -2.84356 -0.0798198)
(9.69919e-16 -2.05505 -0.229776)
(2.57224e-16 -1.27935 -0.358099)
(1.60592e-17 -0.624167 -0.477516)
(-3.01922e-17 -0.0758601 -0.619536)
(-3.62372e-17 0.22576 -0.837326)
(-2.72756e-17 0.379795 -0.973793)
(-1.48116e-17 0.413009 -1.04632)
(-5.65082e-18 0.401703 -1.04836)
(-9.74546e-19 0.398667 -0.973527)
(4.68386e-19 0.413952 -0.841305)
(4.8764e-19 0.398271 -0.714128)
(2.40695e-19 0.347821 -0.63542)
(7.07068e-20 0.314502 -0.538353)
(5.595e-21 -0.265478 -0.51329)
(1.86356e-20 0.681653 -0.893243)
(-3.15485e-19 2.69414 -0.107661)
(8.10354e-18 3.99793 -0.621695)
(1.30596e-16 2.00567 0.387811)
(-1.89428e-17 -2.18403 -0.330138)
(4.22653e-15 1.16943 3.4289)
(7.33259e-15 1.27207 4.21147)
(9.46975e-15 1.14134 4.76366)
(1.12779e-14 1.13842 5.34179)
(1.23261e-14 1.12905 5.75661)
(1.25579e-14 1.1711 6.04473)
(1.21017e-14 1.23698 6.20789)
(1.11863e-14 1.32564 6.28702)
(1.00626e-14 1.42577 6.30828)
(8.95433e-15 1.53276 6.29271)
(8.03932e-15 1.64218 6.25002)
(7.44444e-15 1.75134 6.18402)
(7.24461e-15 1.85726 6.09424)
(7.45834e-15 1.95629 5.97888)
(8.03212e-15 2.04323 5.837)
(8.80506e-15 2.11067 5.6719)
(9.45148e-15 2.14876 5.49576)
(9.42608e-15 2.14632 5.33469)
(7.99304e-15 2.09468 5.22943)
(4.45528e-15 1.99393 5.2239)
(-1.42378e-15 1.8566 5.34022)
(-9.12323e-15 1.70237 5.55827)
(-1.7581e-14 1.54793 5.82386)
(-2.58309e-14 1.40834 6.08342)
(-3.33752e-14 1.29964 6.3092)
(-3.91063e-14 1.16519 6.43127)
(-3.85731e-14 0.740484 6.10786)
(-2.6679e-14 -0.13161 4.9421)
(-1.58831e-14 -0.815389 4.09892)
(-1.24571e-14 -1.17847 3.92912)
(-1.12562e-14 -1.44901 3.84946)
(-1.03149e-14 -1.74664 3.74966)
(-9.22766e-15 -2.06547 3.64235)
(-8.05711e-15 -2.38851 3.53768)
(-6.89326e-15 -2.70718 3.43584)
(-5.75722e-15 -3.01458 3.33398)
(-4.64013e-15 -3.30558 3.22997)
(-3.52914e-15 -3.57757 3.12349)
(-2.40562e-15 -3.82833 3.01471)
(-1.24072e-15 -4.05599 2.90261)
(-2.30466e-18 -4.2587 2.78633)
(1.33639e-15 -4.43484 2.66589)
(2.79364e-15 -4.58308 2.54128)
(4.36885e-15 -4.703 2.41337)
(6.03573e-15 -4.79537 2.28277)
(7.73636e-15 -4.86274 2.15045)
(9.38678e-15 -4.90865 2.01646)
(1.08812e-14 -4.93588 1.88017)
(1.21024e-14 -4.94533 1.74067)
(1.29435e-14 -4.93444 1.5963)
(1.33218e-14 -4.89864 1.44619)
(1.31988e-14 -4.83821 1.29134)
(1.25992e-14 -4.75747 1.1322)
(1.15946e-14 -4.65501 0.968234)
(1.02921e-14 -4.51555 0.796611)
(8.81523e-15 -4.3327 0.620736)
(7.2473e-15 -4.1071 0.440555)
(5.61232e-15 -3.81686 0.257969)
(3.92504e-15 -3.40882 0.073131)
(2.30369e-15 -2.81666 -0.107703)
(9.85059e-16 -2.03124 -0.275189)
(2.7207e-16 -1.257 -0.426437)
(2.30945e-17 -0.597588 -0.574016)
(-3.08494e-17 -0.0395049 -0.767045)
(-3.925e-17 0.265452 -0.997926)
(-3.12951e-17 0.402866 -1.13849)
(-1.84406e-17 0.420423 -1.20266)
(-8.0336e-18 0.393059 -1.19082)
(-2.07855e-18 0.375183 -1.10412)
(2.06382e-19 0.385035 -0.961146)
(5.47877e-19 0.375436 -0.816564)
(3.35842e-19 0.329668 -0.720269)
(1.21724e-19 0.300028 -0.59356)
(8.81069e-21 -0.228652 -0.542455)
(2.47046e-20 0.632208 -0.925436)
(-4.04796e-19 2.65928 -0.130414)
(1.26001e-17 3.9457 -0.563467)
(1.52675e-16 1.96528 0.537988)
(-1.91114e-17 -2.13776 -0.262509)
(5.86417e-15 1.08085 3.89843)
(9.17799e-15 1.13941 4.77274)
(1.09176e-14 1.0355 5.26879)
(1.21065e-14 1.05527 5.75413)
(1.24383e-14 1.07795 6.05186)
(1.20479e-14 1.14551 6.23795)
(1.11677e-14 1.22976 6.3255)
(1.00587e-14 1.32907 6.35607)
(8.95461e-15 1.43495 6.34831)
(8.03891e-15 1.54517 6.31548)
(7.44142e-15 1.65722 6.26103)
(7.24062e-15 1.76943 6.18479)
(7.46471e-15 1.8792 6.0841)
(8.08452e-15 1.98273 5.95642)
(8.98905e-15 2.07401 5.80162)
(9.93304e-15 2.14401 5.62617)
(1.04594e-14 2.1802 5.44908)
(9.84761e-15 2.16826 5.30729)
(7.22326e-15 2.09805 5.25238)
(1.96788e-15 1.97274 5.32861)
(-5.7252e-15 1.81289 5.53857)
(-1.47281e-14 1.64655 5.83022)
(-2.35867e-14 1.49284 6.1265)
(-3.13059e-14 1.36208 6.37077)
(-3.76119e-14 1.26838 6.55139)
(-4.21004e-14 1.18176 6.65021)
(-4.18257e-14 0.881457 6.41228)
(-3.13742e-14 0.102115 5.31712)
(-1.76175e-14 -0.69009 4.12065)
(-1.2389e-14 -1.1491 3.81384)
(-1.06034e-14 -1.43487 3.72953)
(-9.68926e-15 -1.7304 3.65166)
(-8.80114e-15 -2.04847 3.56505)
(-7.76614e-15 -2.37193 3.4746)
(-6.66299e-15 -2.69105 3.38512)
(-5.56194e-15 -2.99811 3.29582)
(-4.47369e-15 -3.28832 3.20337)
(-3.38486e-15 -3.55944 3.10648)
(-2.27566e-15 -3.80918 3.00531)
(-1.11892e-15 -4.03564 2.89915)
(1.15235e-16 -4.23705 2.78746)
(1.45205e-15 -4.41191 2.67049)
(2.90806e-15 -4.55896 2.54846)
(4.48095e-15 -4.67785 2.42239)
(6.14266e-15 -4.76935 2.29306)
(7.83428e-15 -4.83598 2.16152)
(9.47135e-15 -4.88112 2.02793)
(1.09482e-14 -4.90743 1.89174)
(1.21489e-14 -4.91574 1.75207)
(1.29683e-14 -4.90344 1.60732)
(1.33259e-14 -4.86626 1.45671)
(1.3186e-14 -4.80461 1.30128)
(1.25748e-14 -4.72264 1.14142)
(1.15644e-14 -4.61861 0.976387)
(1.02619e-14 -4.4776 0.80319)
(8.78884e-15 -4.29353 0.62489)
(7.22676e-15 -4.06683 0.440869)
(5.59908e-15 -3.77564 0.252046)
(3.92138e-15 -3.36714 0.0570935)
(2.31118e-15 -2.77608 -0.138913)
(1.00258e-15 -1.9931 -0.327149)
(2.89356e-16 -1.21995 -0.505483)
(3.2241e-17 -0.554456 -0.686753)
(-2.91546e-17 0.00604808 -0.940625)
(-4.11742e-17 0.303936 -1.17086)
(-3.49022e-17 0.422669 -1.30972)
(-2.21717e-17 0.423623 -1.36443)
(-1.08024e-17 0.381971 -1.33827)
(-3.58905e-18 0.351909 -1.23947)
(-3.11201e-19 0.355641 -1.08772)
(5.15824e-19 0.349252 -0.930019)
(4.2241e-19 0.304988 -0.816072)
(1.84335e-19 0.274097 -0.659746)
(1.68822e-20 -0.191774 -0.577268)
(3.0202e-20 0.591617 -0.946798)
(-4.8359e-19 2.61694 -0.157409)
(1.86821e-17 3.87867 -0.456342)
(1.65113e-16 1.91178 0.711745)
(-2.73236e-17 -2.0575 -0.0226574)
(7.59964e-15 0.983905 4.41804)
(1.07478e-14 1.00697 5.31237)
(1.18413e-14 0.94334 5.70169)
(1.23201e-14 0.986184 6.07317)
(1.20038e-14 1.03576 6.26103)
(1.1165e-14 1.12117 6.36678)
(1.00718e-14 1.2179 6.40195)
(8.96882e-15 1.32519 6.40163)
(8.04715e-15 1.43706 6.37543)
(7.44009e-15 1.55243 6.33009)
(7.22856e-15 1.66965 6.26478)
(7.44605e-15 1.78735 6.17712)
(8.07863e-15 1.90302 6.06346)
(9.05185e-15 2.01249 5.92149)
(1.01919e-14 2.10868 5.75299)
(1.11498e-14 2.18036 5.56947)
(1.13029e-14 2.21156 5.39964)
(9.73411e-15 2.18457 5.29389)
(5.49252e-15 2.08928 5.31284)
(-1.75397e-15 1.93561 5.49048)
(-1.11371e-14 1.75539 5.79534)
(-2.08973e-14 1.58423 6.13978)
(-2.94353e-14 1.43968 6.43559)
(-3.60004e-14 1.32369 6.63697)
(-4.06247e-14 1.24487 6.75113)
(-4.34565e-14 1.19361 6.80281)
(-4.30336e-14 1.00198 6.63579)
(-3.48785e-14 0.351057 5.70878)
(-2.02349e-14 -0.521155 4.24027)
(-1.3e-14 -1.09879 3.71945)
(-1.02753e-14 -1.41828 3.604)
(-9.0863e-15 -1.71516 3.53653)
(-8.28795e-15 -2.03195 3.47163)
(-7.41881e-15 -2.35457 3.40023)
(-6.41638e-15 -2.67375 3.32529)
(-5.35994e-15 -2.98051 3.24959)
(-4.29898e-15 -3.2699 3.17039)
(-3.23242e-15 -3.54003 3.08523)
(-2.13883e-15 -3.78868 2.9936)
(-9.9111e-16 -4.01398 2.89492)
(2.38289e-16 -4.21422 2.78907)
(1.57273e-15 -4.38796 2.67656)
(3.02696e-15 -4.53403 2.55788)
(4.59686e-15 -4.65214 2.4342)
(6.25266e-15 -4.74306 2.30653)
(7.93445e-15 -4.80923 2.17602)
(9.55735e-15 -4.85388 2.04296)
(1.10159e-14 -4.87956 1.90689)
(1.21954e-14 -4.88698 1.76702)
(1.29926e-14 -4.87357 1.62181)
(1.33294e-14 -4.8353 1.47059)
(1.31725e-14 -4.7727 1.31442)
(1.25497e-14 -4.68974 1.15369)
(1.15337e-14 -4.58431 0.987361)
(1.02312e-14 -4.44188 0.812312)
(8.76214e-15 -4.2566 0.63122)
(7.20606e-15 -4.02862 0.44284)
(5.58592e-15 -3.736 0.247024)
(3.91825e-15 -3.32622 0.0408212)
(2.31997e-15 -2.73526 -0.172076)
(1.02226e-15 -1.95364 -0.383675)
(3.09144e-16 -1.18046 -0.592284)
(4.39758e-17 -0.504853 -0.811633)
(-2.42109e-17 0.049686 -1.12741)
(-4.15355e-17 0.342971 -1.35154)
(-3.78862e-17 0.442639 -1.48662)
(-2.58859e-17 0.425427 -1.53328)
(-1.39186e-17 0.368197 -1.49376)
(-5.53807e-18 0.325528 -1.38187)