/*--------------------------------*- C++ -*----------------------------------*\
| =========                 |                                                 |
| \\      /  F ield         | OpenFOAM: The Open Source CFD Toolbox           |
|  \\    /   O peration     | Version:  4.1                                   |
|   \\  /    A nd           | Web:      www.OpenFOAM.org                      |
|    \\/     M anipulation  |                                                 |
\*---------------------------------------------------------------------------*/
FoamFile
{
    version     2.0;
    format      ascii;
    class       volScalarField;
    location    "30";
    object      p;
}
// * * * * * * * * * * * * * * * * * * * * * * * * * * * * * * * * * * * * * //

dimensions      [0 2 -2 0 0 0 0];

internalField   nonuniform List<scalar> 
6785
(
9.1257e+127
9.1257e+127
9.1257e+127
9.12569e+127
9.12569e+127
9.12569e+127
9.12569e+127
9.12569e+127
9.12569e+127
9.12569e+127
9.12569e+127
9.12569e+127
9.12568e+127
9.12568e+127
9.12568e+127
9.12566e+127
9.12566e+127
9.12565e+127
9.12565e+127
9.12565e+127
9.12565e+127
9.12564e+127
9.12564e+127
9.12564e+127
9.12564e+127
9.12564e+127
9.12564e+127
9.12564e+127
9.12564e+127
9.12564e+127
9.12563e+127
9.12563e+127
9.12563e+127
9.12563e+127
9.12563e+127
9.12562e+127
9.12562e+127
9.12562e+127
9.12562e+127
9.12562e+127
9.12562e+127
9.12562e+127
9.12562e+127
9.12562e+127
9.12562e+127
9.12562e+127
9.12562e+127
9.12562e+127
9.12562e+127
9.12562e+127
9.12562e+127
9.12562e+127
9.12562e+127
9.12562e+127
9.12562e+127
9.12562e+127
9.12562e+127
9.12562e+127
9.12562e+127
9.12562e+127
9.12562e+127
9.12562e+127
9.12562e+127
9.12562e+127
9.12562e+127
9.12562e+127
9.12562e+127
9.12562e+127
9.12562e+127
9.12562e+127
9.12562e+127
9.12562e+127
9.12562e+127
9.12562e+127
9.12562e+127
9.12562e+127
9.12562e+127
9.12562e+127
9.12562e+127
9.12562e+127
9.12562e+127
9.12562e+127
9.12562e+127
9.12562e+127
9.12562e+127
9.12562e+127
9.12562e+127
9.12562e+127
9.12562e+127
9.12562e+127
9.12562e+127
9.12561e+127
9.12561e+127
9.12561e+127
9.12561e+127
9.12561e+127
9.12561e+127
9.12561e+127
9.12561e+127
9.12561e+127
9.12561e+127
9.12561e+127
9.12561e+127
9.12561e+127
9.12561e+127
9.12561e+127
9.12561e+127
9.12561e+127
9.12561e+127
9.12561e+127
9.12561e+127
9.12561e+127
9.1256e+127
9.1256e+127
9.1256e+127
9.1256e+127
9.1256e+127
9.1256e+127
9.1256e+127
9.1256e+127
9.1256e+127
9.1256e+127
9.1256e+127
9.1256e+127
9.1256e+127
9.1256e+127
9.1256e+127
9.1256e+127
9.1256e+127
9.1256e+127
9.12559e+127
9.12559e+127
9.12559e+127
9.12559e+127
9.12559e+127
9.12559e+127
9.12559e+127
9.12559e+127
9.12559e+127
9.12558e+127
9.12558e+127
9.12558e+127
9.12558e+127
9.12558e+127
9.12558e+127
9.12558e+127
9.12558e+127
9.12558e+127
9.12558e+127
9.12558e+127
9.12557e+127
9.12557e+127
9.12557e+127
9.12557e+127
9.12557e+127
9.12557e+127
9.12557e+127
9.12557e+127
9.12557e+127
9.12557e+127
9.12557e+127
9.12557e+127
9.12557e+127
9.12557e+127
9.12557e+127
9.12554e+127
9.12554e+127
9.12553e+127
9.12553e+127
9.12553e+127
9.12553e+127
9.12553e+127
9.12554e+127
9.12554e+127
9.12555e+127
9.12556e+127
9.12556e+127
9.12557e+127
9.12557e+127
9.12558e+127
9.12535e+127
9.12532e+127
9.12532e+127
9.12534e+127
9.12537e+127
9.12543e+127
9.1255e+127
9.12557e+127
9.12562e+127
9.12566e+127
9.12568e+127
9.12569e+127
9.12569e+127
9.12569e+127
9.12569e+127
9.12492e+127
9.12516e+127
9.12542e+127
9.12557e+127
9.1256e+127
9.12554e+127
9.12542e+127
9.12526e+127
9.12508e+127
9.12489e+127
9.12469e+127
9.12451e+127
9.12437e+127
9.12428e+127
9.12434e+127
9.12887e+127
9.12839e+127
9.12714e+127
9.1259e+127
9.12455e+127
9.1232e+127
9.12182e+127
9.1205e+127
9.11922e+127
9.118e+127
9.11678e+127
9.11538e+127
9.11351e+127
9.11078e+127
9.10803e+127
9.51407e+127
9.51307e+127
9.51381e+127
9.51791e+127
9.52254e+127
9.52066e+127
9.52237e+127
9.52229e+127
9.52207e+127
9.52074e+127
9.52563e+127
9.52632e+127
9.52473e+127
9.5285e+127
9.52693e+127
9.52383e+127
9.51733e+127
9.51948e+127
9.51446e+127
9.50465e+127
9.5049e+127
9.49729e+127
9.4877e+127
9.4753e+127
9.47432e+127
9.46388e+127
9.45143e+127
9.43737e+127
9.43719e+127
9.42347e+127
9.40628e+127
9.40492e+127
9.39084e+127
9.3746e+127
9.36091e+127
9.36331e+127
9.34696e+127
9.33025e+127
9.33121e+127
9.31567e+127
9.29756e+127
9.28665e+127
9.29051e+127
9.27512e+127
9.25694e+127
9.24765e+127
9.25513e+127
9.23737e+127
9.22415e+127
9.22909e+127
9.21315e+127
9.19427e+127
9.18827e+127
9.19636e+127
9.18112e+127
9.16274e+127
9.15835e+127
9.16998e+127
9.15222e+127
9.14286e+127
9.15083e+127
9.13527e+127
9.11679e+127
9.11481e+127
9.12828e+127
9.11079e+127
9.10362e+127
9.11276e+127
9.09761e+127
9.07937e+127
9.07979e+127
9.0914e+127
9.07698e+127
9.05937e+127
9.06071e+127
9.07497e+127
9.05774e+127
9.05207e+127
9.06619e+127
9.04714e+127
9.06158e+127
9.08771e+127
9.10678e+127
9.14729e+127
9.14739e+127
9.14376e+127
9.14007e+127
9.13688e+127
9.13408e+127
9.13133e+127
9.12879e+127
9.12577e+127
9.12375e+127
9.13348e+127
9.13319e+127
9.13155e+127
9.1295e+127
9.12738e+127
9.1251e+127
9.12295e+127
9.12035e+127
9.11879e+127
9.12941e+127
9.12941e+127
9.12804e+127
9.12624e+127
9.12431e+127
9.1224e+127
9.12042e+127
9.1185e+127
9.11614e+127
9.1144e+127
9.12498e+127
9.12497e+127
9.12364e+127
9.12189e+127
9.12002e+127
9.11807e+127
9.1163e+127
9.11417e+127
9.11244e+127
9.12281e+127
9.12283e+127
9.12158e+127
9.11989e+127
9.11811e+127
9.1162e+127
9.11442e+127
9.11228e+127
9.11009e+127
9.12054e+127
9.12061e+127
9.11948e+127
9.11787e+127
9.11602e+127
9.11401e+127
9.11215e+127
9.10997e+127
9.10729e+127
9.11742e+127
9.11733e+127
9.11605e+127
9.11437e+127
9.11258e+127
9.11042e+127
9.10772e+127
9.10515e+127
9.10233e+127
9.09703e+127
9.10749e+127
9.10714e+127
9.10541e+127
9.10307e+127
9.1004e+127
9.09676e+127
9.09047e+127
9.08091e+127
9.05415e+127
9.06162e+127
9.05775e+127
9.03689e+127
9.02407e+127
9.05051e+127
9.05042e+127
9.04371e+127
9.04317e+127
9.04001e+127
9.06225e+127
9.0632e+127
9.0555e+127
9.07242e+127
9.07089e+127
9.06506e+127
9.06444e+127
9.06176e+127
9.07779e+127
9.07521e+127
9.06868e+127
9.06637e+127
9.06181e+127
9.07601e+127
9.0748e+127
9.06617e+127
9.07754e+127
9.07269e+127
9.06724e+127
9.06533e+127
9.06601e+127
9.09769e+127
9.10285e+127
9.11303e+127
9.11035e+127
9.09661e+127
9.1091e+127
9.06482e+127
8.99326e+127
8.99156e+127
8.94734e+127
8.8838e+127
8.85899e+127
8.82306e+127
8.88745e+127
8.9406e+127
8.95284e+127
9.02294e+127
9.05968e+127
9.20741e+127
9.36479e+127
9.46103e+127
9.64999e+127
9.69277e+127
9.71081e+127
9.86696e+127
9.99467e+127
1.01851e+128
1.03635e+128
1.04707e+128
1.07135e+128
1.0788e+128
1.04882e+128
1.06332e+128
1.04117e+128
9.08715e+127
8.71832e+127
8.17128e+127
8.00671e+127
7.28383e+127
3.68386e+127
2.72615e+127
1.65676e+127
1.40498e+127
5.34311e+126
-5.51641e+127
-5.51128e+127
-7.16675e+127
-1.64442e+128
-1.73857e+128
-1.67564e+128
-9.73632e+127
7.9281e+127
1.21624e+122
4.04451e+122
1.27668e+122
5.67793e+122
1.40749e+123
1.73052e+123
9.01177e+122
1.69504e+123
2.86986e+123
5.79649e+123
5.1879e+123
5.35488e+123
8.34082e+123
2.26576e+123
2.48542e+122
1.81152e+123
1.97526e+123
2.11055e+123
-1.15613e+123
-3.31899e+123
-4.44196e+123
-3.17347e+123
8.54624e+122
8.27448e+122
-4.26704e+122
-7.8667e+122
-4.16168e+122
-4.40206e+121
1.14747e+122
1.37354e+122
-1.13491e+122
2.51052e+122
1.5236e+123
9.1044e+122
-4.49946e+122
2.06302e+122
3.69614e+122
1.22329e+123
-4.73846e+122
6.61612e+122
5.80251e+122
1.06412e+123
7.44772e+122
-2.15364e+123
5.07684e+122
-6.90702e+122
-4.82065e+122
2.5012e+121
-1.29311e+123
-1.0352e+123
-1.25241e+122
4.65646e+122
5.88931e+122
8.36637e+122
1.0929e+121
-5.91728e+122
-4.78285e+122
-3.39417e+122
-4.06743e+122
-5.79606e+122
-7.57868e+122
-8.80551e+122
-1.0117e+123
-1.20465e+123
-1.52757e+123
-2.06071e+123
-2.92588e+123
-4.29715e+123
-6.42634e+123
-9.65747e+123
-1.41314e+124
-1.97525e+124
-2.18235e+124
-1.4655e+124
-2.00753e+123
3.93226e+124
-7.56331e+124
-1.57939e+126
-1.65406e+127
7.06443e+121
3.29548e+122
1.81945e+122
6.4998e+122
1.41721e+123
1.47424e+123
6.90757e+122
1.6934e+123
3.39456e+123
6.85526e+123
5.66337e+123
6.72011e+123
9.97405e+123
4.39355e+123
1.89915e+122
1.01583e+123
9.4929e+122
5.08699e+122
-2.51565e+123
-4.96408e+123
-5.4923e+123
-4.36637e+123
9.53287e+122
8.78815e+122
1.57834e+119
-7.96196e+122
-8.46349e+122
-2.23265e+122
1.00363e+122
2.67539e+122
-1.9677e+122
3.9131e+122
1.9746e+123
1.02887e+123
-1.50798e+122
2.96702e+122
3.73598e+122
1.21849e+123
-2.13788e+122
1.02909e+123
1.01594e+123
1.25153e+123
-8.45127e+121
-2.13389e+123
-3.56721e+122
-1.01271e+123
-1.71508e+123
-6.93797e+122
-1.70692e+123
-1.20001e+123
-2.90457e+122
4.23321e+122
3.70418e+122
8.71001e+122
-3.82992e+122
-1.06546e+123
-9.16266e+122
-7.01584e+122
-7.18533e+122
-9.21529e+122
-1.17134e+123
-1.36405e+123
-1.57555e+123
-1.87819e+123
-2.36818e+123
-3.16328e+123
-4.44401e+123
-6.47127e+123
-9.62696e+123
-1.44419e+124
-2.12433e+124
-3.01186e+124
-3.58079e+124
-3.15196e+124
-2.98872e+124
-1.6262e+125
-1.79882e+126
-9.13922e+126
-3.11218e+127
2.229e+121
2.92337e+122
2.37807e+122
6.72094e+122
1.32749e+123
1.24323e+123
8.66632e+122
1.85587e+123
3.73669e+123
7.18061e+123
5.93455e+123
7.42865e+123
1.07345e+124
6.13395e+123
2.82523e+122
-7.00901e+120
-3.65144e+122
-1.41777e+123
-3.52737e+123
-5.91533e+123
-5.85475e+123
-4.62848e+123
8.34354e+122
1.07954e+123
3.82039e+122
-5.75459e+122
-1.01712e+123
-3.89891e+122
7.53694e+121
3.47283e+122
-1.02546e+122
5.37611e+122
2.01215e+123
1.1767e+123
2.885e+122
4.72815e+122
4.50102e+122
1.13562e+123
-5.73292e+121
1.26576e+123
1.23844e+123
1.2213e+123
-6.75917e+122
-1.98547e+123
-9.23996e+122
-1.40442e+123
-2.69167e+123
-1.48575e+123
-1.78043e+123
-1.23357e+123
-4.45032e+122
3.50989e+122
9.19276e+121
7.78232e+122
-3.92432e+122
-1.12267e+123
-1.00126e+123
-8.09735e+122
-8.27946e+122
-1.02809e+123
-1.28525e+123
-1.48674e+123
-1.71006e+123
-2.03278e+123
-2.55866e+123
-3.41595e+123
-4.80063e+123
-6.9986e+123
-1.04312e+124
-1.57036e+124
-2.32689e+124
-3.35632e+124
-4.26109e+124
-4.42436e+124
-5.02045e+124
-2.75941e+125
-2.60575e+126
-1.07505e+127
-2.31571e+127
2.86265e+121
3.44469e+122
3.57074e+122
8.25371e+122
1.39727e+123
1.26525e+123
1.29519e+123
2.29785e+123
4.31175e+123
7.62393e+123
6.49982e+123
8.43434e+123
1.16415e+124
7.58055e+123
6.19811e+122
-6.89732e+122
-1.50073e+123
-3.22754e+123
-4.47106e+123
-6.2607e+123
-6.04823e+123
-4.26892e+123
7.68952e+122
1.24271e+123
5.05226e+122
-3.75687e+122
-1.0279e+123
-4.08612e+122
1.00024e+122
4.60592e+122
5.70701e+121
7.36688e+122
2.03204e+123
1.32318e+123
6.74528e+122
6.36085e+122
6.27015e+122
1.21825e+123
9.62955e+121
1.54648e+123
1.30467e+123
1.33547e+123
-9.23232e+122
-2.01077e+123
-1.39625e+123
-1.79349e+123
-3.52458e+123
-2.35353e+123
-1.84792e+123
-1.28486e+123
-5.57818e+122
3.4308e+122
-1.81188e+122
6.34499e+122
-3.20013e+122
-1.08339e+123
-1.00567e+123
-8.73156e+122
-9.13778e+122
-1.10496e+123
-1.35273e+123
-1.54592e+123
-1.76296e+123
-2.08432e+123
-2.61763e+123
-3.49679e+123
-4.92544e+123
-7.20417e+123
-1.07794e+124
-1.63209e+124
-2.44279e+124
-3.60234e+124
-4.92712e+124
-5.91191e+124
-6.91013e+124
-3.45103e+125
-2.86557e+126
-8.31347e+126
-1.89861e+126
5.03528e+121
4.06885e+122
4.88688e+122
1.01272e+123
1.52103e+123
1.38562e+123
1.75393e+123
2.81535e+123
4.88268e+123
8.0751e+123
7.04579e+123
9.32429e+123
1.25287e+124
8.42774e+123
8.15797e+122
-1.27603e+123
-2.94719e+123
-5.0824e+123
-5.41014e+123
-6.98451e+123
-6.27713e+123
-3.86491e+123
7.39768e+122
1.14526e+123
4.00454e+122
-2.36352e+122
-1.01343e+123
-3.75631e+122
1.96816e+122
5.96832e+122
1.98403e+122
9.04685e+122
2.08945e+123
1.4228e+123
9.21142e+122
7.70377e+122
8.13622e+122
1.39323e+123
4.05581e+122
1.8126e+123
1.20853e+123
1.55293e+123
-9.56094e+122
-2.22932e+123
-1.89436e+123
-2.28917e+123
-4.28204e+123
-3.25466e+123
-2.0852e+123
-1.39369e+123
-6.92879e+122
3.03321e+122
-4.49108e+122
4.55579e+122
-2.5674e+122
-1.02256e+123
-9.99624e+122
-9.35659e+122
-1.00645e+123
-1.18942e+123
-1.42431e+123
-1.60435e+123
-1.81047e+123
-2.12616e+123
-2.66279e+123
-3.55969e+123
-5.0282e+123
-7.38402e+123
-1.11007e+124
-1.69209e+124
-2.56208e+124
-3.86692e+124
-5.66324e+124
-7.58779e+124
-8.80145e+124
-3.94976e+125
-2.73755e+126
-3.54971e+126
2.02637e+127
7.99802e+121
4.85827e+122
6.52865e+122
1.2257e+123
1.70087e+123
1.61734e+123
2.29742e+123
3.44055e+123
5.51204e+123
8.54105e+123
7.59414e+123
1.01621e+124
1.33575e+124
8.94706e+123
1.01024e+123
-1.77791e+123
-4.43186e+123
-6.62626e+123
-6.38657e+123
-7.64882e+123
-6.51944e+123
-3.53729e+123
7.46911e+122
9.97879e+122
2.39061e+122
-1.90172e+122
-1.00681e+123
-2.78284e+122
3.36828e+122
7.59052e+122
3.25271e+122
1.02862e+123
2.1371e+123
1.53375e+123
1.11612e+123
9.04378e+122
1.05804e+123
1.65744e+123
7.24662e+122
2.00006e+123
1.04243e+123
1.70819e+123
-8.13022e+122
-2.60184e+123
-2.39709e+123
-2.94002e+123
-5.04145e+123
-4.09506e+123
-2.45229e+123
-1.55721e+123
-8.65351e+122
2.52635e+122
-6.8217e+122
2.46487e+122
-2.14286e+122
-9.44748e+122
-9.87842e+122
-9.9285e+122
-1.10148e+123
-1.27961e+123
-1.50114e+123
-1.66507e+123
-1.85717e+123
-2.16463e+123
-2.70272e+123
-3.61646e+123
-5.12531e+123
-7.56125e+123
-1.14274e+124
-1.75457e+124
-2.68892e+124
-4.1471e+124
-6.41027e+124
-9.316e+124
-1.08214e+125
-4.39599e+125
-2.28991e+126
2.54066e+126
4.2368e+127
1.12392e+122
5.78569e+122
8.46449e+122
1.45372e+123
1.92672e+123
1.94517e+123
2.92069e+123
4.16005e+123
6.20084e+123
9.02292e+123
8.19043e+123
1.10626e+124
1.41196e+124
9.26012e+123
1.11142e+123
-2.26048e+123
-5.79672e+123
-7.9691e+123
-7.37431e+123
-8.32429e+123
-6.7732e+123
-3.28201e+123
8.07737e+122
8.75989e+122
2.7316e+121
-2.85045e+122
-9.98153e+122
-1.00186e+122
4.84897e+122
9.33042e+122
4.5687e+122
1.13156e+123
2.18069e+123
1.64483e+123
1.28353e+123
1.05013e+123
1.36257e+123
1.97851e+123
1.03945e+123
2.07419e+123
9.02448e+122
1.78652e+123
-5.97671e+122
-2.97985e+123
-2.96253e+123
-3.84869e+123
-5.9177e+123
-4.91256e+123
-3.00924e+123
-1.8055e+123
-1.08198e+123
1.7421e+122
-8.67815e+122
1.46651e+121
-1.98855e+122
-8.66846e+122
-9.74278e+122
-1.04529e+123
-1.19494e+123
-1.3719e+123
-1.58055e+123
-1.72572e+123
-1.90071e+123
-2.19718e+123
-2.73448e+123
-3.66335e+123
-5.2115e+123
-7.72765e+123
-1.17459e+124
-1.81689e+124
-2.81748e+124
-4.42831e+124
-7.11463e+124
-1.09772e+125
-1.31894e+125
-4.83015e+125
-1.57189e+126
9.00586e+126
6.14373e+127
1.46448e+122
6.83717e+122
1.06216e+123
1.69012e+123
2.19282e+123
2.36268e+123
3.61453e+123
4.95946e+123
6.94284e+123
9.53766e+123
8.86777e+123
1.20458e+124
1.48263e+124
9.43331e+123
1.08578e+123
-2.78322e+123
-7.06936e+123
-9.21923e+123
-8.27885e+123
-8.99927e+123
-7.04576e+123
-3.09747e+123
8.45943e+122
7.97866e+122
-1.39192e+122
-4.55733e+122
-8.97242e+122
1.74739e+122
6.5174e+122
1.07583e+123
5.79621e+122
1.23566e+123
2.23449e+123
1.75013e+123
1.42656e+123
1.21009e+123
1.69423e+123
2.32348e+123
1.34082e+123
2.02369e+123
8.3257e+122
1.90528e+123
-3.70497e+122
-3.31921e+123
-3.72715e+123
-5.04594e+123
-6.98896e+123
-6.02165e+123
-3.8218e+123
-2.16495e+123
-1.33402e+123
4.15207e+121
-9.81602e+122
-2.24525e+122
-2.05724e+122
-7.98855e+122
-9.63216e+122
-1.09868e+123
-1.28638e+123
-1.46434e+123
-1.66054e+123
-1.78417e+123
-1.93866e+123
-2.22105e+123
-2.75482e+123
-3.69638e+123
-5.28169e+123
-7.87622e+123
-1.20452e+124
-1.87706e+124
-2.94318e+124
-4.70015e+124
-7.75366e+124
-1.24367e+125
-1.62405e+125
-5.19613e+125
-5.73131e+125
1.57091e+127
7.70791e+127
1.82438e+122
8.01362e+122
1.29608e+123
1.93512e+123
2.49628e+123
2.85942e+123
4.37473e+123
5.8292e+123
7.73562e+123
1.00999e+124
9.64915e+123
1.30443e+124
1.54045e+124
9.49036e+123
9.62635e+122
-3.37127e+123
-8.25931e+123
-1.03425e+124
-9.06123e+123
-9.61873e+123
-7.33185e+123
-3.04047e+123
7.42391e+122
7.70479e+122
-1.97493e+122
-5.96507e+122
-6.81299e+122
5.28122e+122
8.63551e+122
1.19957e+123
7.06377e+122
1.33455e+123
2.27419e+123
1.8393e+123
1.55615e+123
1.41003e+123
2.0412e+123
2.67765e+123
1.60126e+123
1.88445e+123
8.17204e+122
2.12108e+123
-1.41365e+122
-3.66139e+123
-4.69209e+123
-6.54518e+123
-8.2414e+123
-7.3422e+123
-4.73492e+123
-2.61059e+123
-1.61346e+123
-1.348e+122
-1.01626e+123
-4.55123e+122
-2.25539e+122
-7.44157e+122
-9.61205e+122
-1.15902e+123
-1.37871e+123
-1.55739e+123
-1.74139e+123
-1.84068e+123
-1.97135e+123
-2.23664e+123
-2.76424e+123
-3.71613e+123
-5.3363e+123
-8.00674e+123
-1.23234e+124
-1.93429e+124
-3.0634e+124
-4.9563e+124
-8.32982e+124
-1.35913e+125
-2.03238e+125
-5.33121e+125
7.40639e+125
2.25098e+127
9.00507e+127
2.21237e+122
9.32139e+122
1.54657e+123
2.19557e+123
2.83346e+123
3.42032e+123
5.19865e+123
6.76088e+123
8.57337e+123
1.07146e+124
1.05336e+124
1.39646e+124
1.57496e+124
9.44712e+123
7.60922e+122
-4.03775e+123
-9.35651e+123
-1.13525e+124
-9.75417e+123
-1.01655e+124
-7.59691e+123
-3.06445e+123
5.58015e+122
8.9944e+122
-2.30345e+122
-6.45522e+122
-3.94147e+122
8.48232e+122
1.08792e+123
1.33828e+123
8.40369e+122
1.4461e+123
2.31753e+123
1.92471e+123
1.69677e+123
1.67058e+123
2.3918e+123
3.02929e+123
1.82805e+123
1.69924e+123
8.63609e+122
2.44013e+123
5.78287e+121
-4.0067e+123
-5.74694e+123
-8.24747e+123
-9.558e+123
-8.58071e+123
-5.60583e+123
-3.13914e+123
-1.92489e+123
-3.57241e+122
-1.02329e+123
-6.77708e+122
-2.57358e+122
-7.10214e+122
-9.78518e+122
-1.22764e+123
-1.47357e+123
-1.65116e+123
-1.82232e+123
-1.89397e+123
-1.99715e+123
-2.24207e+123
-2.76059e+123
-3.72012e+123
-5.37245e+123
-8.11554e+123
-1.25748e+124
-1.98757e+124
-3.17569e+124
-5.19141e+124
-8.85385e+124
-1.44425e+125
-2.56296e+125
-4.96369e+125
2.37755e+126
2.89314e+127
9.87789e+127
2.64035e+122
1.07741e+123
1.81384e+123
2.47839e+123
3.20146e+123
4.03652e+123
6.0837e+123
7.74548e+123
9.44774e+123
1.13765e+124
1.14976e+124
1.47381e+124
1.58243e+124
9.30915e+123
4.82173e+122
-4.79421e+123
-1.03793e+124
-1.22769e+124
-1.03809e+124
-1.06314e+124
-7.81015e+123
-3.08141e+123
3.94617e+122
1.15891e+123
-3.25142e+122
-6.4009e+122
-1.04733e+122
1.11712e+123
1.30835e+123
1.48688e+123
9.88187e+122
1.56645e+123
2.37274e+123
2.02615e+123
1.85584e+123
1.93651e+123
2.72966e+123
3.37111e+123
2.03145e+123
1.50997e+123
9.93759e+122
2.75558e+123
1.50992e+122
-4.34512e+123
-6.82234e+123
-9.90153e+123
-1.08169e+124
-9.72161e+123
-6.42202e+123
-3.78242e+123
-2.26212e+123
-6.40996e+122
-1.07476e+123
-8.93901e+122
-2.97788e+122
-7.02069e+122
-1.01924e+123
-1.30459e+123
-1.57286e+123
-1.74757e+123
-1.90461e+123
-1.94504e+123
-2.01703e+123
-2.23841e+123
-2.74514e+123
-3.70982e+123
-5.39168e+123
-8.20393e+123
-1.27999e+124
-2.03661e+124
-3.27882e+124
-5.40231e+124
-9.33178e+124
-1.50795e+125
-3.20747e+125
-3.75302e+125
4.35437e+126
3.49837e+127
1.04158e+128
3.1174e+122
1.23837e+123
2.0987e+123
2.78527e+123
3.59879e+123
4.70482e+123
7.02585e+123
8.77515e+123
1.03534e+124
1.20711e+124
1.24692e+124
1.53425e+124
1.56294e+124
9.07631e+123
1.28701e+122
-5.64398e+123
-1.13479e+124
-1.30974e+124
-1.09606e+124
-1.10078e+124
-7.97586e+123
-3.08612e+123
2.0524e+122
1.31617e+123
-4.74137e+122
-6.1407e+122
1.72591e+122
1.3702e+123
1.52298e+123
1.63637e+123
1.16471e+123
1.68432e+123
2.42455e+123
2.15275e+123
2.02093e+123
2.16968e+123
3.05135e+123
3.706e+123
2.20052e+123
1.36304e+123
1.19884e+123
2.94851e+123
1.27328e+122
-4.68288e+123
-7.91208e+123
-1.13359e+124
-1.19822e+124
-1.08187e+124
-7.18406e+123
-4.5217e+123
-2.60328e+123
-9.90847e+122
-1.17658e+123
-1.10365e+123
-3.37604e+122
-7.19026e+122
-1.07991e+123
-1.38914e+123
-1.677e+123
-1.84709e+123
-1.98769e+123
-1.99252e+123
-2.02913e+123
-2.22345e+123
-2.71538e+123
-3.68239e+123
-5.39072e+123
-8.26794e+123
-1.29931e+124
-2.08058e+124
-3.37115e+124
-5.58646e+124
-9.75219e+124
-1.56659e+125
-3.92146e+125
-1.31686e+125
6.68259e+126
4.06582e+127
1.07164e+128
3.64779e+122
1.41486e+123
2.4018e+123
3.11613e+123
4.02502e+123
5.42261e+123
8.01608e+123
9.84511e+123
1.12882e+124
1.27801e+124
1.33514e+124
1.57612e+124
1.51607e+124
8.75163e+123
-2.87795e+122
-6.56948e+123
-1.22755e+124
-1.37939e+124
-1.15347e+124
-1.13248e+124
-8.13703e+123
-3.16532e+123
-1.05362e+122
1.18668e+123
-6.46768e+122
-5.73385e+122
4.20437e+122
1.60423e+123
1.72876e+123
1.77706e+123
1.34485e+123
1.82405e+123
2.4777e+123
2.30721e+123
2.17614e+123
2.38605e+123
3.36068e+123
4.0399e+123
2.33218e+123
1.27205e+123
1.4142e+123
2.92941e+123
1.83668e+121
-5.03214e+123
-9.00593e+123
-1.25126e+124
-1.31023e+124
-1.18566e+124
-7.90029e+123
-5.31509e+123
-2.93328e+123
-1.40597e+123
-1.34129e+123
-1.32157e+123
-3.70968e+122
-7.63511e+122
-1.15867e+123
-1.48187e+123
-1.78814e+123
-1.95223e+123
-2.07336e+123
-2.0378e+123
-2.03474e+123
-2.19859e+123
-2.6729e+123
-3.63965e+123
-5.37157e+123
-8.30957e+123
-1.31559e+124
-2.11953e+124
-3.45216e+124
-5.74455e+124
-1.00797e+125
-1.64044e+125
-4.62333e+125
2.75325e+125
9.36166e+126
4.57735e+127
1.06926e+128
4.23579e+122
1.60609e+123
2.72362e+123
3.47248e+123
4.47999e+123
6.18731e+123
9.04569e+123
1.09524e+124
1.22488e+124
1.34861e+124
1.41005e+124
1.59776e+124
1.44141e+124
8.33818e+123
-7.64335e+122
-7.54534e+123
-1.31574e+124
-1.43559e+124
-1.2113e+124
-1.16429e+124
-8.3542e+123
-3.36743e+123
-4.51251e+122
7.94121e+122
-7.8205e+122
-5.04168e+122
6.0335e+122
1.82114e+123
1.93201e+123
1.89946e+123
1.49952e+123
1.98164e+123
2.55104e+123
2.47392e+123
2.31918e+123
2.59976e+123
3.6796e+123
4.37032e+123
2.44125e+123
1.18062e+123
1.54526e+123
2.73549e+123
-1.75665e+122
-5.41651e+123
-1.00816e+124
-1.3447e+124
-1.423e+124
-1.28148e+124
-8.59723e+123
-6.15428e+123
-3.16688e+123
-1.87646e+123
-1.6083e+123
-1.56903e+123
-4.03758e+122
-8.28602e+122
-1.25009e+123
-1.58155e+123
-1.90676e+123
-2.06359e+123
-2.16109e+123
-2.0794e+123
-2.03181e+123
-2.16141e+123
-2.61503e+123
-3.57863e+123
-5.33086e+123
-8.32487e+123
-1.32834e+124
-2.15285e+124
-3.52054e+124
-5.879e+124
-1.02616e+125
-1.76308e+125
-5.18181e+125
8.83519e+125
1.23753e+127
5.03651e+127
1.05103e+128
4.88487e+122
1.81143e+123
3.06476e+123
3.85693e+123
4.96668e+123
6.99613e+123
1.01121e+124
1.20937e+124
1.3229e+124
1.41696e+124
1.46934e+124
1.59494e+124
1.34924e+124
7.83274e+123
-1.31576e+123
-8.57611e+123
-1.40033e+124
-1.4765e+124
-1.26771e+124
-1.19808e+124
-8.66408e+123
-3.67407e+123
-7.19116e+122
3.6064e+122
-8.66583e+122
-4.23879e+122
7.29588e+122
2.02071e+123
2.14682e+123
1.9941e+123
1.63077e+123
2.13312e+123
2.65168e+123
2.62472e+123
2.47468e+123
2.81131e+123
4.03286e+123
4.68515e+123
2.5429e+123
1.06633e+123
1.57452e+123
2.38056e+123
-4.55136e+122
-5.87059e+123
-1.11691e+124
-1.42449e+124
-1.53181e+124
-1.36986e+124
-9.34176e+123
-7.09093e+123
-3.35284e+123
-2.39683e+123
-1.96934e+123
-1.85497e+123
-4.5417e+122
-8.82176e+122
-1.34286e+123
-1.69213e+123
-2.0353e+123
-2.18395e+123
-2.25306e+123
-2.11895e+123
-2.02185e+123
-2.11355e+123
-2.54365e+123
-3.50151e+123
-5.27105e+123
-8.31656e+123
-1.33783e+124
-2.18094e+124
-3.57603e+124
-5.99684e+124
-1.02174e+125
-1.98684e+125
-5.40584e+125
1.72733e+126
1.57065e+127
5.44224e+127
1.0169e+128
5.59792e+122
2.03055e+123
3.42613e+123
4.27213e+123
5.49152e+123
7.84538e+123
1.12145e+124
1.32651e+124
1.42197e+124
1.48111e+124
1.51098e+124
1.56811e+124
1.26708e+124
7.27613e+123
-1.9517e+123
-9.66892e+123
-1.48156e+124
-1.5001e+124
-1.32176e+124
-1.23359e+124
-9.04912e+123
-4.01952e+123
-9.16184e+122
-2.46526e+121
-9.81025e+122
-3.01296e+122
8.53107e+122
2.18866e+123
2.3801e+123
2.06077e+123
1.76463e+123
2.29097e+123
2.77388e+123
2.74596e+123
2.64742e+123
3.02104e+123
4.38376e+123
4.98395e+123
2.63673e+123
9.49794e+122
1.4312e+123
1.77499e+123
-8.53326e+122
-6.41921e+123
-1.22625e+124
-1.49895e+124
-1.62834e+124
-1.45126e+124
-1.02145e+124
-8.04495e+123
-3.68454e+123
-2.91524e+123
-2.40017e+123
-2.18734e+123
-5.38116e+122
-9.21186e+122
-1.43491e+123
-1.8202e+123
-2.17572e+123
-2.31392e+123
-2.34875e+123
-2.15475e+123
-2.00253e+123
-2.05229e+123
-2.4558e+123
-3.4051e+123
-5.18862e+123
-8.28074e+123
-1.34364e+124
-2.20346e+124
-3.61756e+124
-6.10754e+124
-9.89514e+124
-2.34971e+125
-5.059e+125
2.83619e+126
1.93294e+127
5.80621e+127
9.81937e+127
6.3767e+122
2.26337e+123
3.80901e+123
4.72003e+123
6.05807e+123
8.7318e+123
1.23512e+124
1.44614e+124
1.52119e+124
1.53999e+124
1.53616e+124
1.52646e+124
1.20046e+124
6.68259e+123
-2.66634e+123
-1.07627e+124
-1.55461e+124
-1.50961e+124
-1.37293e+124
-1.27107e+124
-9.47394e+123
-4.36382e+123
-1.07216e+123
-3.54185e+122
-1.09786e+123
-9.27939e+121
1.00322e+123
2.32153e+123
2.61478e+123
2.11495e+123
1.91784e+123
2.46777e+123
2.90458e+123
2.85937e+123
2.82814e+123
3.23742e+123
4.70396e+123
5.25614e+123
2.70493e+123
7.89074e+122
1.03899e+123
9.5516e+122
-1.3659e+123
-7.07311e+123
-1.3379e+124
-1.56925e+124
-1.70708e+124
-1.52131e+124
-1.10896e+124
-8.75367e+123
-4.0575e+123
-3.36739e+123
-2.89524e+123
-2.5744e+123
-6.75691e+122
-9.94418e+122
-1.5351e+123
-1.97045e+123
-2.33235e+123
-2.45678e+123
-2.45069e+123
-2.18852e+123
-1.97546e+123
-1.9794e+123
-2.3536e+123
-3.29188e+123
-5.0864e+123
-8.22071e+123
-1.34613e+124
-2.22105e+124
-3.64569e+124
-6.22075e+124
-9.39135e+124
-2.83913e+125
-3.86729e+125
4.23424e+126
2.32297e+127
6.14815e+127
9.50064e+127
7.22064e+122
2.5097e+123
4.21476e+123
5.20192e+123
6.66596e+123
9.65267e+123
1.35188e+124
1.56777e+124
1.61983e+124
1.59354e+124
1.54789e+124
1.47594e+124
1.13856e+124
6.0249e+123
-3.44251e+123
-1.17867e+124
-1.61782e+124
-1.51645e+124
-1.42181e+124
-1.31114e+124
-9.91266e+123
-4.71083e+123
-1.19391e+123
-6.16253e+122
-1.17076e+123
1.37081e+122
1.1713e+123
2.43865e+123
2.81424e+123
2.17216e+123
2.08688e+123
2.65613e+123
3.0341e+123
2.99109e+123
3.01944e+123
3.47793e+123
5.015e+123
5.49647e+123
2.7352e+123
5.58692e+122
5.7459e+122
2.10511e+122
-1.91448e+123
-7.84659e+123
-1.45204e+124
-1.63092e+124
-1.7669e+124
-1.56957e+124
-1.17362e+124
-9.1434e+123
-4.32387e+123
-3.72346e+123
-3.4739e+123
-3.05035e+123
-9.07114e+122
-1.12959e+123
-1.64176e+123
-2.14291e+123
-2.50645e+123
-2.61315e+123
-2.55832e+123
-2.21837e+123
-1.93808e+123
-1.89201e+123
-2.234e+123
-3.15861e+123
-4.96096e+123
-8.1328e+123
-1.34495e+124
-2.2335e+124
-3.66122e+124
-6.33101e+124
-8.97285e+124
-3.37923e+125
-1.51863e+125
5.9404e+126
2.74013e+127
6.49558e+127
9.22333e+127
8.12698e+122
2.76906e+123
4.6446e+123
5.71857e+123
7.31431e+123
1.0605e+124
1.4714e+124
1.69089e+124
1.7173e+124
1.64207e+124
1.54897e+124
1.42111e+124
1.08156e+124
5.3284e+123
-4.26317e+123
-1.27482e+124
-1.67419e+124
-1.53003e+124
-1.46989e+124
-1.35462e+124
-1.03391e+124
-5.07713e+123
-1.28633e+123
-8.1809e+122
-1.23061e+123
3.3895e+122
1.34739e+123
2.54877e+123
2.97339e+123
2.24527e+123
2.2668e+123
2.83667e+123
3.14991e+123
3.15683e+123
3.22295e+123
3.75746e+123
5.33022e+123
5.70639e+123
2.72956e+123
2.92738e+122
1.77421e+122
-4.49943e+122
-2.53594e+123
-8.74774e+123
-1.56544e+124
-1.67974e+124
-1.81145e+124
-1.59959e+124
-1.21074e+124
-9.27114e+123
-4.45923e+123
-4.02744e+123
-4.10386e+123
-3.6467e+123
-1.28235e+123
-1.29227e+123
-1.75321e+123
-2.33907e+123
-2.70009e+123
-2.78605e+123
-2.67422e+123
-2.24602e+123
-1.8921e+123
-1.79201e+123
-2.09931e+123
-3.00811e+123
-4.81551e+123
-8.02087e+123
-1.34062e+124
-2.24138e+124
-3.66801e+124
-6.40503e+124
-8.97182e+124
-3.84887e+125
2.31687e+125
7.96886e+126
3.18373e+127
6.86881e+127
8.99998e+127
9.09228e+122
3.04022e+123
5.09852e+123
6.27027e+123
8.00197e+123
1.15852e+124
1.59318e+124
1.81505e+124
1.81322e+124
1.68603e+124
1.54165e+124
1.36394e+124
1.02973e+124
4.61318e+123
-5.11478e+123
-1.36776e+124
-1.72483e+124
-1.55123e+124
-1.51816e+124
-1.40244e+124
-1.07574e+124
-5.43511e+123
-1.37649e+123
-9.88668e+122
-1.27346e+123
5.2472e+122
1.52212e+123
2.6498e+123
3.10239e+123
2.33289e+123
2.45569e+123
2.99856e+123
3.25982e+123
3.35756e+123
3.44906e+123
4.07396e+123
5.65277e+123
5.88919e+123
2.70069e+123
7.90639e+120
-2.78787e+122
-1.1119e+123
-3.28824e+123
-9.77094e+123
-1.67883e+124
-1.71866e+124
-1.8444e+124
-1.61683e+124
-1.23014e+124
-9.22261e+123
-4.41146e+123
-4.31015e+123
-4.66402e+123
-4.23051e+123
-1.69157e+123
-1.439e+123
-1.86258e+123
-2.55909e+123
-2.91252e+123
-2.97513e+123
-2.79729e+123
-2.2692e+123
-1.83466e+123
-1.67626e+123
-1.94633e+123
-2.83704e+123
-4.64661e+123
-7.88134e+123
-1.33288e+124
-2.24411e+124
-3.67131e+124
-6.3818e+124
-9.6645e+124
-4.10821e+125
7.96538e+125
1.03291e+127
3.64528e+127
7.24408e+127
8.85075e+127
1.01144e+123
3.32111e+123
5.57481e+123
6.85702e+123
8.72738e+123
1.25884e+124
1.71632e+124
1.93985e+124
1.90736e+124
1.72591e+124
1.52779e+124
1.30556e+124
9.8323e+123
3.89369e+123
-5.985e+123
-1.4572e+124
-1.76812e+124
-1.57907e+124
-1.56704e+124
-1.45367e+124
-1.11987e+124
-5.72758e+123
-1.50888e+123
-1.15047e+123
-1.26221e+123
7.07001e+122
1.6804e+123
2.73857e+123
3.19613e+123
2.42606e+123
2.64889e+123
3.14387e+123
3.38517e+123
3.58457e+123
3.72422e+123
4.41417e+123
5.97869e+123
6.05244e+123
2.66437e+123
-2.8816e+122
-8.3041e+122
-1.7576e+123
-4.15307e+123
-1.08864e+124
-1.79003e+124
-1.75766e+124
-1.87166e+124
-1.62399e+124
-1.22739e+124
-9.05812e+123
-4.22313e+123
-4.4204e+123
-5.09106e+123
-4.6899e+123
-1.93874e+123
-1.58037e+123
-1.96613e+123
-2.8123e+123
-3.14803e+123
-3.18277e+123
-2.92956e+123
-2.28959e+123
-1.76745e+123
-1.54676e+123
-1.77759e+123
-2.64849e+123
-4.45782e+123
-7.71834e+123
-1.32237e+124
-2.2418e+124
-3.67961e+124
-6.21289e+124
-1.14527e+125
-3.97199e+125
1.57369e+126
1.30218e+127
4.11096e+127
7.58306e+127
8.79888e+127
1.11936e+123
3.60964e+123
6.07153e+123
7.47862e+123
9.48876e+123
1.36089e+124
1.83995e+124
2.06499e+124
1.99961e+124
1.76222e+124
1.50948e+124
1.24858e+124
9.42379e+123
3.1809e+123
-6.86139e+123
-1.54258e+124
-1.80354e+124
-1.61267e+124
-1.61657e+124
-1.50642e+124
-1.16608e+124
-5.93453e+123
-1.67384e+123
-1.30522e+123
-1.18732e+123
8.90209e+122
1.81759e+123
2.8129e+123
3.2525e+123
2.52374e+123
2.83591e+123
3.28827e+123
3.54511e+123
3.82313e+123
4.04437e+123
4.76904e+123
6.30732e+123
6.20875e+123
2.63242e+123
-5.91693e+122
-1.43527e+123
-2.39193e+123
-5.10433e+123
-1.20801e+124
-1.89547e+124
-1.80376e+124
-1.8976e+124
-1.62289e+124
-1.19972e+124
-8.76217e+123
-3.97747e+123
-4.2217e+123
-5.29073e+123
-4.94818e+123
-1.99308e+123
-1.79234e+123
-2.14325e+123
-3.12375e+123
-3.4127e+123
-3.40803e+123
-3.06907e+123