/*--------------------------------*- C++ -*----------------------------------*\
| =========                 |                                                 |
| \\      /  F ield         | OpenFOAM: The Open Source CFD Toolbox           |
|  \\    /   O peration     | Version:  4.1                                   |
|   \\  /    A nd           | Web:      www.OpenFOAM.org                      |
|    \\/     M anipulation  |                                                 |
\*---------------------------------------------------------------------------*/
FoamFile
{
    version     2.0;
    format      ascii;
    class       surfaceScalarField;
    location    "30";
    object      phi;
}
// * * * * * * * * * * * * * * * * * * * * * * * * * * * * * * * * * * * * * //

dimensions      [0 3 -1 0 0 0 0];

internalField   nonuniform List<scalar> 
13220
(
-3.07932e+63
2.99907e+63
-5.02073e+63
1.88597e+63
-6.45834e+63
1.39642e+63
-7.53163e+63
1.03576e+63
-8.31179e+63
7.48014e+62
-8.82671e+63
4.86364e+62
-9.03751e+63
1.85216e+62
-8.84108e+63
-2.20348e+62
-8.07728e+63
-7.86977e+62
-6.7755e+63
-1.33075e+63
-4.95796e+63
-1.84397e+63
-2.75174e+63
-2.26498e+63
-5.73454e+62
-2.26688e+63
1.27954e+63
-1.97677e+63
1.28024e+63
3.00198e+62
2.64421e+63
1.35078e+62
1.99313e+63
-1.63243e+62
1.64688e+63
-5.8691e+62
1.41264e+63
-1.11853e+63
1.24608e+63
-1.74299e+63
1.0739e+63
-2.41884e+63
8.32924e+62
-3.17186e+63
5.0699e+62
-4.12212e+63
1.44601e+62
-5.37993e+63
-7.7872e+61
-7.01552e+63
-2.19248e+62
-9.05456e+63
-2.06422e+62
-8.72663e+63
-2.57973e+63
-5.63213e+63
-5.05156e+63
-4.35256e+63
6.71534e+62
1.97841e+63
9.20245e+62
1.74332e+63
1.17416e+63
1.39836e+63
1.38508e+63
1.19345e+63
1.54678e+63
1.07584e+63
1.65337e+63
9.48553e+62
1.68298e+63
7.86012e+62
1.53739e+63
6.20656e+62
1.15281e+63
4.88024e+62
5.64997e+62
4.40628e+62
-1.72831e+62
4.66888e+62
-1.04973e+63
5.45964e+62
-2.91649e+63
-7.77324e+62
-3.25553e+63
-4.75681e+63
-7.60749e+63
5.42018e+62
1.51734e+63
6.74383e+62
1.66264e+63
7.0324e+62
1.42841e+63
7.16686e+62
1.22163e+63
7.4676e+62
1.10125e+63
7.35036e+62
9.93074e+62
6.82635e+62
8.77945e+62
5.41032e+62
7.90414e+62
3.29267e+62
7.39777e+62
1.39333e+62
6.81063e+62
5.91718e+61
5.7296e+62
3.07544e+62
4.16449e+62
-2.02381e+62
-1.68566e+62
-5.19474e+62
-4.37509e+63
-8.12638e+63
1.60566e+62
1.61425e+63
1.80974e+62
1.79688e+63
9.3904e+61
1.68545e+63
-5.29183e+61
1.51743e+63
-1.87799e+62
1.40765e+63
-3.68172e+62
1.3256e+63
-5.74747e+62
1.25972e+63
-8.49002e+62
1.22671e+63
-1.17059e+63
1.23567e+63
-1.52155e+63
1.1918e+63
-1.7563e+63
9.78023e+62
-1.77399e+63
5.30225e+62
-7.70907e+62
-1.05952e+63
-6.22277e+61
-5.01289e+63
-8.18722e+63
2.44002e+62
1.81823e+63
3.24944e+62
1.98103e+63
3.48418e+62
1.94969e+63
2.96114e+62
1.81262e+63
3.02216e+62
1.69691e+63
2.7204e+62
1.60693e+63
2.81263e+62
1.54198e+63
2.44206e+62
1.50088e+63
2.68841e+62
1.48642e+63
2.73966e+62
1.42478e+63
2.02102e+62
1.24303e+63
2.50355e+62
7.97525e+62
1.80229e+62
-7.31488e+62
-2.59296e+62
-4.4187e+63
-8.44551e+63
3.83792e+62
2.00915e+63
5.78373e+62
2.1258e+63
6.97207e+62
2.17184e+63
7.16542e+62
2.07006e+63
7.71329e+62
1.95364e+63
7.86013e+62
1.84708e+63
8.35513e+62
1.76814e+63
8.42007e+62
1.72537e+63
8.39633e+62
1.72113e+63
7.7585e+62
1.69937e+63
6.24873e+62
1.58818e+63
3.97749e+62
1.24672e+63
-9.65234e+61
-2.88888e+61
-3.09279e+62
-4.0845e+63
-8.75382e+63
4.51157e+62
2.36716e+63
6.98856e+62
2.31393e+63
9.14216e+62
2.41909e+63
9.28941e+62
2.36394e+63
9.76739e+62
2.27561e+63
9.00246e+62
2.17676e+63
8.56347e+62
2.10899e+63
7.09578e+62
2.08083e+63
5.98684e+62
2.08608e+63
4.20348e+62
2.07456e+63
2.36329e+62
1.97211e+63
3.18471e+61
1.66144e+63
-4.29483e+61
2.40532e+62
-2.51857e+62
-3.75082e+63
-9.00318e+63
4.45634e+62
2.97068e+63
6.51414e+62
2.70454e+63
7.88349e+62
2.81303e+63
8.41754e+62
2.764e+63
9.12928e+62
2.69748e+63
8.95622e+62
2.6073e+63
8.95448e+62
2.54319e+63
8.33262e+62
2.52059e+63
7.49192e+62
2.52154e+63
6.81156e+62
2.50104e+63
4.8909e+62
2.38872e+63
5.49906e+62
2.11098e+63
4.85444e+62
7.72856e+62
-2.58358e+62
-2.69404e+63
-9.26146e+63
3.42573e+62
3.89772e+63
5.28634e+62
3.20919e+63
7.58125e+62
3.2992e+63
8.3322e+62
3.16634e+63
9.90101e+62
3.07488e+63
1.01547e+63
2.96632e+63
1.1401e+63
2.86774e+63
1.16979e+63
2.78961e+63
1.28426e+63
2.74324e+63
1.26755e+63
2.69001e+63
1.32118e+63
2.5781e+63
1.08879e+63
2.30651e+63
7.97264e+62
1.08604e+63
-1.61049e+62
-1.71864e+63
-9.41993e+63
3.9346e+61
4.57713e+63
-5.56217e+62
4.0749e+63
-1.21612e+63
4.2584e+63
-2.03425e+63
4.0711e+63
-2.62019e+63
3.79673e+63
-3.1347e+63
3.47391e+63
-3.39394e+63
3.15118e+63
-3.51953e+63
2.84207e+63
-3.384e+63
2.54654e+63
-2.91975e+63
2.28117e+63
-2.71376e+63
2.08392e+63
-1.15112e+63
1.48802e+63
3.84436e+62
7.82708e+61
6.57495e+62
-1.66558e+63
-8.77222e+63
-4.43356e+63
9.20721e+63
-8.69335e+63
8.24244e+63
-1.25308e+64
8.19361e+63
-1.41999e+64
5.5602e+63
-1.39023e+64
3.42334e+63
-1.26452e+64
1.93742e+63
-1.05695e+64
7.93893e+62
-8.00718e+63
-1.02738e+62
-5.09515e+63
-7.98801e+62
-2.27905e+63
-1.38399e+63
1.4074e+63
-1.99019e+63
3.10924e+63
-1.83525e+63
3.61341e+63
-1.58795e+63
2.44175e+63
-1.42099e+63
-6.31143e+63
-5.62667e+63
1.35391e+64
-4.31668e+63
5.12913e+63
2.45563e+63
-3.15809e+61
1.18602e+64
-4.9678e+63
2.14428e+64
-6.64335e+63
3.01273e+64
-7.22364e+63
3.77876e+64
-7.05922e+63
4.3806e+64
-6.33874e+63
4.7953e+64
-5.06035e+63
4.98389e+64
-3.20262e+63
4.82888e+64
-6.83784e+62
4.47552e+64
2.47025e+63
3.74271e+64
6.32283e+63
2.48107e+64
1.19118e+64
1.84525e+64
2.65624e+64
-1.40327e+64
5.04402e+64
-1.95097e+64
6.53759e+64
-1.54394e+64
7.40973e+64
-1.4242e+64
7.9957e+64
-1.29673e+64
8.39908e+64
-1.1774e+64
8.64002e+64
-9.95071e+63
8.7639e+64
-8.09997e+63
8.73307e+64
-5.20451e+63
8.55591e+64
-2.18396e+63
8.22279e+64
2.31738e+63
7.50426e+64
8.07704e+63
6.28462e+64
1.68461e+64
3.85911e+64
3.41981e+64
5.70115e+64
-1.0253e+65
-1.43838e+65
-1.74659e+65
-1.92629e+65
-2.09473e+65
-2.18308e+65
-2.26183e+65
-2.27612e+65
-2.24443e+65
-2.17474e+65
-2.00955e+65
-1.81229e+65
-1.48927e+65
-1.03847e+65
-7.43821e+62
-5.10711e+65
5.09688e+65
-5.112e+65
-5.11739e+65
-5.11896e+65
-1.92519e+65
-3.19424e+65
-1.9252e+65
-1.92565e+65
-1.92543e+65
7.02899e+64
-2.62864e+65
7.03011e+64
7.02683e+64
3.09269e+65
-2.38984e+65
3.09238e+65
3.09246e+65
3.09212e+65
5.32731e+65
-2.2351e+65
5.32705e+65
5.32718e+65
7.33417e+65
-2.00728e+65
7.33424e+65
7.33389e+65
7.334e+65
9.11891e+65
-1.78525e+65
9.11891e+65
9.11857e+65
9.11865e+65
1.06813e+66
-1.56291e+65
1.06812e+66
1.06809e+66
1.1998e+66
-1.31702e+65
1.19976e+66
1.19976e+66
1.19973e+66
1.31284e+66
-1.13111e+65
1.31281e+66
1.31282e+66
1.40538e+66
-9.25961e+64
1.40538e+66
1.40534e+66
1.40535e+66
1.4839e+66
-7.85838e+64
1.48391e+66
1.48386e+66
1.48389e+66
1.55018e+66
-6.63408e+64
1.55019e+66
1.55014e+66
1.60222e+66
-5.20602e+64
1.60216e+66
1.60218e+66
1.60212e+66
1.64596e+66
-4.38079e+64
1.64588e+66
1.64591e+66
1.64582e+66
1.68254e+66
-3.66961e+64
1.68246e+66
1.6825e+66
1.70957e+66
-2.71642e+64
1.70958e+66
1.70948e+66
1.70951e+66
1.73283e+66
-2.34297e+64
1.73282e+66
1.7327e+66
1.74919e+66
-1.64493e+64
1.74904e+66
1.74906e+66
1.74892e+66
1.76401e+66
-1.50398e+64
1.76385e+66
1.76389e+66
1.76371e+66
1.77797e+66
-1.41593e+64
1.77776e+66
1.778e+66
1.79158e+66
-1.37421e+64
1.79185e+66
1.79178e+66
1.78602e+66
1.77056e+66
1.75884e+66
1.72814e+66
2.16336e+64
1.72221e+66
1.71902e+66
1.71661e+66
1.7143e+66
1.71222e+66
1.7104e+66
1.70882e+66
1.70634e+66
1.67846e+66
2.52361e+64
1.67456e+66
1.67136e+66
1.66869e+66
1.66606e+66
1.66374e+66
1.66162e+66
1.65985e+66
1.65778e+66
1.62104e+66
3.4271e+64
1.61757e+66
1.61467e+66
1.61221e+66
1.61003e+66
1.60802e+66
1.60625e+66
1.60463e+66
1.60332e+66
1.60176e+66
1.55782e+66
4.20534e+64
1.55524e+66
1.55323e+66
1.5516e+66
1.55029e+66
1.54909e+66
1.54812e+66
1.54735e+66
1.54641e+66
1.49628e+66
4.88613e+64
1.49438e+66
1.493e+66
1.49212e+66
1.49145e+66
1.49106e+66
1.49079e+66
1.49079e+66
1.49064e+66
1.43527e+66
5.48453e+64
1.43407e+66
1.43336e+66
1.4331e+66
1.43321e+66
1.4337e+66
1.43432e+66
1.43524e+66
1.43589e+66
1.3762e+66
6.00624e+64
1.37598e+66
1.37641e+66
1.37725e+66
1.3784e+66
1.37983e+66
1.38216e+66
1.38497e+66
1.38813e+66
1.39108e+66
1.33124e+66
6.23074e+64
1.33306e+66
1.33598e+66
1.33974e+66
1.34405e+66
1.34933e+66
1.35755e+66
1.37315e+66
1.38976e+66
1.35603e+66
5.0173e+64
1.37128e+66
1.39042e+66
1.39034e+66
1.35144e+66
3.90396e+64
1.30391e+66
4.7332e+64
1.30392e+66
1.26246e+66
4.12465e+64
1.26245e+66
1.22688e+66
3.53684e+64
1.18412e+66
4.27379e+64
1.18395e+66
1.14758e+66
3.62645e+64
1.10395e+66
4.34653e+64
1.10388e+66
1.06591e+66
3.78376e+64
1.06583e+66
1.05257e+66
1.31248e+64
1.0457e+66
6.79938e+63
1.0456e+66
1.04311e+66
2.4166e+63
1.04302e+66
1.04084e+66
2.08312e+63
1.02441e+66
1.63599e+64
1.02434e+66
1.01729e+66
6.98088e+63
1.01132e+66
5.90112e+63
1.01127e+66
1.04352e+66
-3.23097e+64
1.04348e+66
1.12919e+66
-8.57772e+64
1.32104e+66
-1.91872e+65
1.32099e+66
1.63171e+66
-3.10727e+65
1.63167e+66
1.86994e+66
-2.38282e+65
2.04035e+66
-1.70453e+65
2.04036e+66
2.1387e+66
-9.83859e+64
2.19168e+66
-5.29583e+64
2.19166e+66
2.18065e+66
1.10256e+64
2.18063e+66
2.09242e+66
8.82442e+64
1.95138e+66
1.41004e+65
1.9514e+66
1.71905e+66
2.32321e+65
1.71908e+66
1.39459e+66
3.24457e+65
1.00744e+66
3.87175e+65
1.00743e+66
5.01811e+65
5.0566e+65
-5.60152e+64
5.57877e+65
-5.58553e+64
-7.26033e+65
6.70131e+65
-7.2598e+65
-1.58122e+66
8.55226e+65
-2.59994e+66
1.01876e+66
-2.59995e+66
-3.76437e+66
1.16447e+66
-3.76438e+66
-5.10276e+66
1.33842e+66
-6.49941e+66
1.39664e+66
-6.49937e+66
-8.07359e+66
1.57422e+66
-9.64611e+66
1.57256e+66
-9.64611e+66
-1.13526e+67
1.70653e+66
-1.13526e+67
-1.32101e+67
1.85753e+66
-1.49774e+67
1.76729e+66
-1.49774e+67
-1.68883e+67
1.91089e+66
-1.68882e+67
-1.89642e+67
2.07599e+66
-2.08719e+67
1.9077e+66
-2.08719e+67
-2.30297e+67
2.15779e+66
-2.49603e+67
1.93063e+66
-2.49603e+67
-2.71023e+67
2.14203e+66
-2.71023e+67
2.64201e+66
-1.9213e+64
2.42887e+63
-1.67235e+64
-8.79178e+63
-2.06127e+64
-1.08748e+65
-2.00144e+64
-9.32611e+64
-2.2666e+64
-1.10863e+65
-1.79692e+64
-5.61859e+64
-2.05061e+64
-9.70499e+64
-1.59691e+64
-4.24239e+64
-7.43659e+63
7.18578e+63
-1.38569e+64
1.10179e+63
-1.18328e+64
1.95766e+64
-8.43679e+63
9.83107e+64
-6.54863e+63
7.48789e+64
-9.14568e+63
-9.29133e+64
-9.51844e+63
-1.94923e+64
-8.57029e+63
3.24887e+64
-8.22783e+63
9.20111e+64
-2.66877e+63
1.82086e+65
-6.79989e+63
2.25323e+65
-7.1654e+63
8.66507e+64
-7.83969e+63
1.01026e+65
-7.59149e+63
1.447e+65
-1.88672e+63
6.50509e+64
-2.29611e+62
-3.94629e+64
-4.91307e+63
-7.99569e+63
-7.64823e+63
3.24928e+64
-5.85425e+63
1.84218e+64
-8.21699e+63
-4.6415e+64
-7.34409e+63
1.96615e+64
7.94676e+63
4.17563e+64
-1.33002e+64
-2.05556e+65
-9.97593e+63
-9.02778e+64
-3.637e+63
2.78854e+64
8.1412e+62
-1.23648e+65
-8.91442e+63
-1.7858e+65
-1.12102e+64
-1.14384e+65
-3.87976e+63
-1.30167e+65
-3.43207e+63
-6.34586e+63
-3.92364e+63
-5.0909e+64
-4.28676e+63
9.34209e+64
1.4178e+63
7.80505e+64
-3.95262e+63
1.26065e+65
-7.96028e+62
2.63975e+64
-1.72793e+63
2.44104e+64
7.00437e+63
1.09731e+65
-6.00695e+63
8.84135e+64
5.53736e+63
2.17457e+65
3.35973e+63
1.27154e+65
1.50469e+63
6.77573e+64
2.63212e+63
6.243e+64
3.42331e+63
4.05606e+64
4.71774e+63
-1.89618e+64
3.83588e+63
-7.08969e+63
2.12317e+63
2.21221e+64
1.79023e+63
6.91588e+64
2.61406e+63
7.02925e+64
2.46315e+63
6.2326e+64
1.30207e+63
4.95327e+64
4.94678e+62
4.73962e+64
3.06102e+62
6.06151e+64
2.71118e+62
7.10116e+64
2.84027e+62
7.90405e+64
3.39245e+62
8.71267e+64
4.35401e+62
9.6641e+64
5.73558e+62
1.09048e+65
7.57403e+62
1.2554e+65
9.86502e+62
1.47551e+65
1.25614e+63
1.7642e+65
1.52346e+63
2.13501e+65
1.69852e+63
2.5998e+65
1.36284e+63
3.14022e+65
-2.87933e+62
3.72545e+65
-6.71687e+63
3.90363e+65
-2.80163e+64
2.99807e+65
-8.91938e+64
4.94197e+65
-2.6967e+65
1.75705e+66
-7.52019e+65
5.32217e+66
-1.70187e+66
1.29036e+67
2.48722e+67
-2.49923e+64
1.36522e+63
-1.90984e+64
-1.46857e+64
-2.37218e+64
-1.04124e+65
-2.35216e+64
-9.34613e+64
-2.8086e+64
-1.06298e+65
-1.74328e+64
-6.68391e+64
-2.16234e+64
-9.28593e+64
-1.76727e+64
-4.63746e+64
-8.39926e+63
-2.08762e+63
-1.40395e+64
6.74199e+63
-7.8412e+63
1.33783e+64
-7.85589e+63
9.83253e+64
-6.70991e+63
7.37329e+64
-8.54203e+63
-9.10812e+64
-8.85785e+63
-1.91765e+64
-8.32983e+63
3.19607e+64
-8.55095e+63
9.22322e+64
1.74669e+63
1.71788e+65
3.18617e+63
2.23884e+65
-7.75143e+63
9.75883e+64
-1.25779e+64
1.05853e+65
-6.64357e+63
1.38765e+65
-7.65601e+62
5.91729e+64
-1.32495e+64
-2.69791e+64
-1.12367e+64
-1.00087e+64
-8.10169e+63
2.93577e+64
-1.06026e+63
1.13802e+64
-9.41039e+63
-3.80652e+64
-6.09795e+63
1.63489e+64
6.62012e+63
2.90381e+64
-1.70038e+64
-1.81933e+65
-1.7877e+64
-8.9405e+64
-5.19238e+63
1.52005e+64
5.10416e+63
-1.33945e+65
-9.31817e+63
-1.64158e+65
-2.2461e+64
-1.01241e+65
-1.72872e+64
-1.35344e+65
2.59197e+63
-2.62257e+64
-1.25812e+63
-4.70591e+64
-3.93295e+63
9.60949e+64
5.62784e+63
6.84887e+64
-6.44906e+63
1.3814e+65
-9.76607e+62
2.09234e+64
-1.65748e+63
2.50883e+64
2.27159e+64
8.53563e+64
-1.97524e+64
1.30866e+65
2.752e+63
1.94946e+65
3.28055e+63
1.26623e+65
-1.88017e+63
7.28791e+64
2.4081e+62
6.0265e+64
1.67159e+63
3.9063e+64
2.27929e+63
-1.96917e+64
3.15254e+63
-8.11582e+63
3.24611e+63
2.19227e+64
4.20238e+63
6.81351e+64
4.99546e+63
6.94304e+64
4.57422e+63
6.26641e+64
2.80222e+63
5.11976e+64
1.203e+63
4.88791e+64
5.33502e+62
6.11977e+64
2.38794e+62
7.12299e+64
2.31101e+62
7.89848e+64
3.95973e+62
8.69044e+64
6.58937e+62
9.63304e+64
9.76021e+62
1.08688e+65
1.34113e+63
1.2514e+65
1.75873e+63
1.47102e+65
2.23379e+63
1.75921e+65
2.72842e+63
2.12981e+65
3.08516e+63
2.59606e+65
2.84101e+63
3.14246e+65
5.27347e+62
3.74846e+65
-7.7084e+63
3.98577e+65
-2.95439e+64
3.21617e+65
-8.54214e+64
5.5006e+65
-2.60693e+65
1.93232e+66
-7.7072e+65
5.8322e+66
-1.73882e+66
1.38717e+67
2.52754e+67
-2.62682e+64
-2.76943e+61
-2.15496e+64
-1.94043e+64
-2.53154e+64
-1.00359e+65
-2.46951e+64
-9.40816e+64
-2.77388e+64
-1.03254e+65
-1.883e+64
-7.57479e+64
-2.15095e+64
-9.01798e+64
-1.83892e+64
-4.94949e+64
-9.98794e+63
-1.04888e+64
-1.34471e+64
1.02011e+64
-6.94614e+63
6.87739e+63
-6.20006e+63
9.75793e+64
-2.74192e+63
7.02748e+64
-8.00064e+63
-8.58224e+64
-8.92519e+63
-1.8252e+64
-9.37582e+63
3.24113e+64
-9.96944e+63
9.28258e+64
-6.1831e+63
1.68002e+65
-3.75661e+62
2.18076e+65
-8.53724e+63
1.0575e+65
-1.33481e+64
1.10664e+65
-6.95349e+63
1.32371e+65
-1.3239e+63
5.35433e+64
-9.91886e+63
-1.83842e+64
-1.07017e+64
-9.22586e+63
-7.54307e+63
2.61991e+64
-2.71502e+63
6.55218e+63
-9.80078e+63
-3.09794e+64
-6.41331e+63
1.29614e+64
2.94555e+63
1.96793e+64
-1.51273e+64
-1.63859e+65
-1.61157e+64
-8.84161e+64
-5.74068e+63
4.8254e+63
2.51505e+63
-1.42201e+65
-8.35502e+63
-1.53287e+65
-1.6003e+64
-9.35922e+64
-1.60023e+64
-1.35345e+65
-2.51434e+63
-3.97137e+64
-2.56778e+63
-4.70055e+64
-1.40388e+63
9.4931e+64
5.49077e+63
6.1596e+64
-4.38918e+63
1.4802e+65
-1.59778e+62
1.66967e+64
-1.36473e+63
2.62982e+64
2.16191e+64
6.23825e+64
-1.96401e+64
1.72135e+65
-2.03409e+61
1.75353e+65
2.68386e+63
1.23918e+65
-7.48997e+62
7.63065e+64
2.85738e+62
5.92273e+64
1.07389e+63
3.82671e+64
1.47589e+63
-2.0099e+64
2.71707e+63
-9.36585e+63
3.14778e+63
2.14899e+64
4.31504e+63
6.69652e+64
5.07361e+63
6.86721e+64
4.69431e+63
6.30427e+64
3.0382e+63
5.28572e+64
1.43976e+63
5.04819e+64
6.94996e+62
6.19493e+64
3.44028e+62
7.15854e+64
3.12827e+62
7.90262e+64
4.90014e+62
8.6737e+64
7.94515e+62
9.60395e+64
1.17583e+63
1.08319e+65
1.62371e+63
1.24707e+65
2.14111e+63
1.46596e+65
2.73225e+63
1.75346e+65
3.35273e+63
2.12372e+65
3.82756e+63
2.59147e+65
3.61364e+63
3.14472e+65
1.20142e+63
3.77277e+65
-7.18707e+63
4.0698e+65
-2.76811e+64
3.4214e+65
-7.81756e+64
6.0058e+65
-2.6629e+65
2.12045e+66
-8.30396e+65
6.39632e+66
-1.7863e+66
1.48276e+67
2.54198e+67
-2.71192e+64
-1.635e+63
-2.34612e+64
-2.30623e+64
-2.73779e+64
-9.64418e+64
-2.56111e+64
-9.58484e+64
-2.721e+64
-1.01655e+65
-1.98641e+64
-8.30938e+64
-2.18168e+64
-8.82271e+64
-1.91018e+64
-5.22099e+64
-1.08429e+64
-1.87476e+64
-1.24423e+64
1.18005e+64
-5.96503e+63
4.00119e+62
-6.40294e+63
9.80172e+64
5.88813e+63
5.79837e+64
-7.36216e+63
-7.25722e+64
-8.967e+63
-1.66471e+64
-9.6388e+63
3.30831e+64
-1.1007e+64
9.4194e+64
-1.09046e+64
1.679e+65
-3.42721e+63
2.10599e+65
-1.00076e+64
1.1233e+65
-1.42279e+64
1.14884e+65
-6.99632e+63
1.25139e+65
-2.35134e+63
4.88983e+64
-8.55918e+63
-1.21764e+64
-1.09463e+64
-6.83879e+63
-7.46598e+63
2.27187e+64
-4.26655e+63
3.35269e+63
-1.01904e+64
-2.50556e+64
-6.86662e+63
9.63754e+63
8.81291e+62
1.19312e+64
-1.38775e+64
-1.49101e+65
-1.51937e+64
-8.71001e+64
-5.82132e+63
-4.54713e+63
1.56308e+63
-1.49586e+65
-7.83306e+63
-1.43891e+65
-1.16092e+64
-8.98161e+64
-1.43249e+64
-1.32631e+65
-5.20898e+63
-4.88298e+64
-3.5529e+63
-4.86615e+64
2.9367e+63
8.84408e+64
5.08423e+63
5.94478e+64
-2.41578e+63
1.55518e+65
1.12563e+63
1.31541e+64
-1.6266e+63
2.90477e+64
1.72104e+64
4.35468e+64
-2.09651e+64
2.1029e+65
-1.89815e+63
1.56285e+65
1.13138e+63
1.20883e+65
-5.21302e+62
7.79414e+64
2.7653e+62
5.84136e+64
8.54679e+62
3.7666e+64
1.12993e+63
-2.04129e+64
2.73068e+63
-1.1023e+64
3.41486e+63
2.07687e+64
4.56945e+63
6.57897e+64
5.17888e+63
6.80449e+64
4.73099e+63
6.347e+64
3.11159e+63
5.4454e+64
1.52141e+63
5.20492e+64
7.52687e+62
6.2706e+64
3.88628e+62
7.19403e+64
3.63278e+62
7.90513e+64
5.68094e+62
8.6535e+64
9.18081e+62
9.56986e+64
1.36034e+63
1.07887e+65
1.88388e+63
1.24198e+65
2.493e+63
1.46e+65
3.19288e+63
1.74662e+65
3.93723e+63
2.1164e+65
4.54513e+63
2.58557e+65
4.43572e+63
3.14596e+65
2.17605e+63
3.79558e+65
-5.77108e+63
4.14945e+65
-2.42814e+64
3.6068e+65
-7.14224e+64
6.47743e+65
-2.85468e+65
2.3345e+66
-9.16384e+65
7.02724e+66
-1.88331e+66
1.57945e+67
2.56943e+67
-2.79914e+64
-3.29491e+63
-2.50731e+64
-2.59807e+64
-2.91458e+64
-9.23691e+64
-2.65724e+64
-9.84218e+64
-2.70448e+64
-1.01183e+65
-2.09331e+64
-8.92055e+64
-2.2209e+64
-8.69512e+64
-1.98152e+64
-5.46037e+64
-1.28947e+64
-2.56681e+64
-1.09499e+64
9.85565e+63
-6.32051e+63
-4.22927e+63
-9.96116e+63
1.01658e+65
7.46689e+63
4.05556e+64
-7.09314e+63
-5.80121e+64
-9.25515e+63
-1.44851e+64
-1.03223e+64
3.41503e+64
-1.23548e+64
9.62266e+64
-1.41089e+64
1.69654e+65
-6.05007e+63
2.0254e+65
-1.13143e+64
1.17594e+65
-1.4659e+64
1.18228e+65
-7.10354e+63
1.17584e+65
-2.94336e+63
4.47381e+64
-7.92417e+63
-7.19555e+63
-1.10718e+64
-3.69108e+63
-7.69e+63
1.93369e+64
-5.53753e+63
1.20026e+63
-1.04562e+64
-2.01369e+64
-7.23995e+63
6.42135e+63
-2.90958e+62
4.98228e+63
-1.25231e+64
-1.36868e+65
-1.40159e+64
-8.56068e+64
-5.70316e+63
-1.28599e+64
5.4457e+62
-1.55833e+65
-8.09529e+63
-1.3525e+65
-1.00727e+64
-8.78378e+64
-1.36883e+64
-1.29014e+65
-7.55803e+63
-5.49599e+64
-4.44878e+63
-5.17706e+64
8.3829e+63
7.56098e+64
4.9222e+63
6.29103e+64
-1.07917e+63
1.6152e+65
2.32665e+63
9.751e+63
-2.26138e+63
3.36411e+64
3.62434e+63
3.76698e+64
-1.17023e+64
2.25642e+65
-4.3306e+63
1.48956e+65
-4.77832e+62
1.17032e+65
-6.63083e+62
7.81282e+64
1.8915e+61
5.77409e+64
5.40771e+62
3.71548e+64
7.98301e+62
-2.06412e+64
2.75024e+63
-1.29419e+64
3.69522e+63
1.98513e+64
4.89165e+63
6.46107e+64
5.36877e+63
6.75897e+64
4.81352e+63
6.40501e+64
3.17668e+63
5.61262e+64
1.57038e+63
5.36933e+64
7.79432e+62
6.35306e+64
4.08887e+62
7.23392e+64
3.97023e+62
7.9095e+64
6.36432e+62
8.63255e+64
1.03705e+63
9.53298e+64
1.54332e+63
1.07409e+65
2.14435e+63
1.23626e+65
2.84709e+63
1.45322e+65
3.65961e+63
1.73878e+65
4.53802e+63
2.10784e+65
5.30704e+63
2.57815e+65
5.38672e+63
3.14538e+65
3.47515e+63
3.81497e+65
-3.65245e+63
4.22098e+65
-1.98788e+64
3.76946e+65
-6.69418e+64
6.94837e+65
-3.22296e+65
2.58987e+66
-1.02958e+66
7.73454e+66
-1.97899e+66
1.67439e+67
2.5623e+67
-2.8817e+64
-4.87762e+63
-2.64947e+64
-2.8303e+64
-3.04439e+64
-8.84198e+64
-2.75724e+64
-1.01293e+65
-2.70142e+64
-1.01741e+65
-2.19597e+64
-9.426e+64
-2.26043e+64
-8.63066e+64
-2.03536e+64
-5.68544e+64
-1.53186e+64
-3.07031e+64
-1.09646e+64
5.50168e+63
-6.29343e+63
-8.90044e+63
-9.92825e+63
1.05293e+65
4.0466e+63
2.65808e+64
-7.05605e+63
-4.69095e+64
-9.7753e+63
-1.17659e+64
-1.1222e+64
3.5597e+64
-1.32917e+64
9.82962e+64
-1.6205e+64
1.72567e+65
-8.44499e+63
1.9478e+65
-1.26366e+64
1.21786e+65
-1.50001e+64
1.20592e+65
-7.3957e+63
1.09979e+65
-3.50607e+63
4.08485e+64
-7.56108e+63
-3.14057e+63
-1.10759e+64
-1.76284e+62
-8.01926e+63
1.62803e+64
-6.59625e+63
-2.22782e+62
-1.05936e+64
-1.61395e+64
-7.50744e+63
3.33512e+63
-1.20312e+63
-1.32213e+63
-1.15077e+64
-1.26564e+65
-1.29545e+64
-8.416e+64
-5.24961e+63
-2.0565e+64
-1.89691e+62
-1.60894e+65
-8.43284e+63
-1.27007e+65
-9.57483e+63
-8.66959e+64
-1.33952e+64
-1.25194e+65
-9.1166e+63
-5.92386e+64
-7.86139e+63
-5.30259e+64
6.88913e+63
6.08588e+64
5.4188e+63
6.43802e+64
-1.77088e+62
1.67115e+65
3.56477e+63
6.00825e+63
-2.83218e+63
4.00354e+64
-2.69835e+63
3.75359e+64
-8.48144e+63
2.31409e+65
-8.17206e+63
1.48657e+65
-2.44918e+63
1.11302e+65
-1.43884e+63
7.7107e+64
-2.26737e+62
5.65233e+64
4.53232e+62
3.64674e+64
5.81723e+62
-2.07776e+64
2.79699e+63
-1.51758e+64
3.98664e+63
1.86517e+64
5.24274e+63
6.33517e+64
5.60827e+63
6.72261e+64
4.93092e+63
6.47303e+64
3.25033e+63
5.78146e+64
1.61229e+63
5.53415e+64
7.94634e+62
6.43625e+64
4.1895e+62
7.27292e+64
4.23969e+62
7.91114e+64
7.01698e+62
8.60714e+64
1.15622e+63
9.49038e+64
1.72925e+63
1.06864e+65
2.41051e+63
1.22976e+65
3.21055e+63
1.4455e+65
4.14212e+63
1.72976e+65
5.16752e+63
2.09784e+65
6.12808e+63
2.56883e+65
6.4782e+63
3.14213e+65
5.06354e+63
3.82944e+65
-9.97166e+62
4.28188e+65
-1.46702e+64
3.90662e+65
-6.67834e+64
7.4698e+65
-3.77131e+65
2.90023e+66
-1.15571e+66
8.51313e+66
-2.08026e+66
1.76685e+67
2.56187e+67
-2.96371e+64
-6.26718e+63
-2.78633e+64
-3.00769e+64
-3.14848e+64
-8.47983e+64
-2.86574e+64
-1.04121e+65
-2.7172e+64
-1.03227e+65
-2.31791e+64
-9.82528e+64
-2.31353e+64
-8.63505e+64
-2.09774e+64
-5.90124e+64
-1.68261e+64
-3.48543e+64
-1.12571e+64
-6.73934e+61
-6.1189e+63
-1.40386e+64
-8.55591e+63
1.0773e+65
2.48173e+63
1.55431e+64
-7.24862e+63
-3.71791e+64
-1.04576e+64
-8.55685e+63
-1.21351e+64
3.72746e+64
-1.43925e+64
1.00554e+65
-1.83327e+64
1.76507e+65
-1.08371e+64
1.87284e+65
-1.40349e+64
1.24984e+65
-1.53667e+64
1.21924e+65
-7.83543e+63
1.02448e+65
-4.35755e+63
3.73706e+64
-7.80434e+63
3.06233e+62
-1.11338e+64
3.15329e+63
-8.43711e+63
1.35836e+64
-7.59039e+63
-1.06943e+63
-1.07331e+64
-1.29967e+64
-7.77011e+63
3.72187e+62
-1.99875e+63
-7.09344e+63
-1.08313e+64
-1.17731e+65
-1.20675e+64
-8.29233e+64
-4.34934e+63
-2.82832e+64
-9.33524e+62
-1.64309e+65
-8.91794e+63
-1.19022e+65
-9.58351e+63
-8.60296e+64
-1.32476e+64
-1.21529e+65
-1.00635e+64
-6.24226e+64
-1.00753e+64
-5.30139e+64
3.56998e+63
4.72144e+64
6.34887e+63
6.16031e+64
5.82533e+62
1.72882e+65
4.67692e+63
1.91622e+63
-3.38799e+63
4.81056e+64
-3.95513e+63
3.81096e+64
-6.7823e+63
2.34257e+65
-6.24926e+63
1.48159e+65
-4.13798e+63
1.09195e+65
-2.23889e+63
7.52111e+64
-1.72946e+62
5.44699e+64
7.20604e+62
3.55881e+64
4.97014e+62
-2.05172e+64
2.89849e+63
-1.75341e+64
4.30898e+63
1.72765e+64
5.62787e+63
6.20552e+64
5.88591e+63
6.69948e+64
5.06885e+63
6.55774e+64
3.31996e+63
5.96035e+64
1.64042e+63
5.70625e+64
7.94284e+62
6.52449e+64
4.16269e+62
7.31376e+64
4.42991e+62
7.91175e+64
7.63696e+62
8.57811e+64
1.27587e+63
9.44231e+64
1.91853e+63
1.06249e+65
2.68282e+63
1.2224e+65
3.584e+63
1.43673e+65
4.64126e+63
1.71945e+65
5.82668e+63
2.0862e+65
7.00736e+63
2.55728e+65
7.69844e+63
3.13543e+65
6.8867e+63
3.83782e+65
2.00574e+63
4.33092e+65
-8.66419e+63
4.01367e+65
-7.3077e+64
8.11417e+65
-4.49996e+65
3.27716e+66
-1.29345e+66
9.35659e+66
-2.17911e+66
1.85542e+67
2.53505e+67
-3.04613e+64
-7.39969e+63
-2.91435e+64
-3.13947e+64
-3.23047e+64
-8.16371e+64
-2.97994e+64
-1.06626e+65
-2.75474e+64
-1.05479e+65
-2.45166e+64
-1.01284e+65
-2.37841e+64
-8.7083e+64
-2.16674e+64
-6.11291e+64
-1.79607e+64
-3.85611e+64
-1.19251e+64
-6.10303e+63
-6.38088e+63
-1.95828e+64
-4.95982e+63
1.06309e+65
1.46292e+63
9.12038e+63
-7.66528e+63
-2.80509e+64
-1.13096e+64
-4.91259e+63
-1.31261e+64
3.90911e+64
-1.57402e+64
1.03168e+65
-2.04817e+64
1.81249e+65
-1.32064e+64
1.80009e+65
-1.55478e+64
1.27325e+65
-1.57701e+64
1.22146e+65
-7.83099e+63
9.45089e+64
-4.69648e+63
3.42361e+64
-8.17919e+63
3.78893e+63
-1.12627e+64
6.23679e+63
-8.95696e+63
1.12778e+64
-8.60549e+63
-1.42091e+63
-1.09992e+64
-1.0603e+64
-8.07563e+63
-2.55142e+63
-2.62658e+63
-1.25426e+64
-1.02603e+64
-1.10097e+65
-1.12875e+64
-8.18961e+64
-2.83305e+63
-3.67377e+64
-1.72326e+63
-1.65419e+65
-9.37629e+63
-1.11369e+65
-9.86931e+63
-8.55366e+64
-1.33067e+64
-1.18093e+65
-1.0918e+64
-6.48113e+64
-1.0972e+64
-5.296e+64
1.77584e+63
3.44664e+64
7.41916e+63
5.59598e+64
1.91097e+63
1.7839e+65
5.71836e+63
-1.89217e+63
-4.04055e+63
5.7862e+64
-4.13823e+63
3.82062e+64
-5.31722e+63
2.35424e+65
-3.8521e+63
1.46695e+65
-4.5729e+63
1.09912e+65
-2.26941e+63
7.28999e+64
-2.86817e+62
5.24861e+64
9.4898e+62
3.43508e+64
4.0553e+62
-1.99699e+64
2.93657e+63
-2.00679e+64
4.67859e+63
1.5537e+64
6.05813e+63
6.06807e+64
6.20365e+63
6.68589e+64
5.22648e+63
6.65662e+64
3.38286e+63
6.14657e+64
1.652e+63
5.88148e+64
7.76126e+62
6.61435e+64
3.98537e+62
7.35371e+64
4.52084e+62
7.90922e+64
8.21014e+62
8.54424e+64
1.39506e+63
9.38835e+64
2.11052e+63
1.05567e+65
2.9608e+63
1.21425e+65
3.96693e+63
1.42698e+65
5.15635e+63
1.70789e+65
6.51407e+63
2.0729e+65
7.94001e+63
2.54334e+65
9.02801e+63
3.12483e+65
8.90515e+63
3.83939e+65
4.98127e+63
4.37048e+65
-1.88916e+63
4.0828e+65
-8.81042e+64
8.97658e+65
-5.41015e+65
3.73009e+66
-1.43889e+66
1.02545e+67
-2.24953e+66
1.93648e+67
2.48683e+67
-3.12958e+64
-8.2511e+63
-3.03477e+64
-3.23428e+64
-3.29363e+64
-7.90485e+64
-3.10475e+64
-1.08515e+65
-2.81757e+64
-1.0835e+65
-2.57477e+64
-1.03712e+65
-2.45216e+64
-8.83091e+64
-2.24018e+64
-6.32489e+64
-1.8956e+64
-4.20068e+64
-1.30425e+64
-1.20164e+64
-9.34291e+63
-2.32824e+64
-1.7595e+63
9.87252e+64
6.31188e+62
6.7297e+63
-8.32457e+63
-1.90951e+64
-1.23318e+64
-9.05308e+62
-1.42969e+64
4.10562e+64
-1.7217e+64
1.06088e+65
-2.25278e+64
1.8656e+65
-1.55356e+64
1.73017e+65
-1.70327e+64
1.28823e+65
-1.6083e+64
1.21196e+65
-7.32883e+63
8.57548e+64
-4.11892e+63
3.10262e+64
-8.93861e+63
8.60865e+63
-1.21365e+64
9.43473e+63
-9.52421e+63
8.6656e+63
-9.60134e+63
-1.3437e+63
-1.12561e+64
-8.94809e+63
-8.28111e+63
-5.52639e+63
-3.12905e+63
-1.76946e+64
-9.77745e+63
-1.03448e+65
-1.07019e+64
-8.09712e+64
-1.15122e+63
-4.62884e+64
-2.9384e+63
-1.63631e+65
-9.57815e+63
-1.04728e+65
-1.00896e+64
-8.50244e+64
-1.35585e+64
-1.14623e+65
-1.17109e+64
-6.66587e+64
-1.13773e+64
-5.32934e+64
4.09592e+62
2.26804e+64
8.93184e+63
4.74393e+64
5.32474e+63
1.81999e+65
6.65919e+63
-3.22455e+63
-4.37489e+63
6.89017e+64
-4.15071e+63
3.79872e+64
-5.29651e+63
2.36589e+65
-2.99377e+63
1.44414e+65
-4.82944e+63
1.11755e+65
-2.64807e+63
7.07226e+64
-1.07516e+63
5.09264e+64
7.50358e+62
3.25398e+64
-4.33891e+61
-1.91388e+64
2.75459e+63
-2.28215e+64
5.12772e+63
1.32024e+64
6.54408e+63
5.92881e+64
6.56458e+63
6.68659e+64
5.40339e+63
6.77576e+64
3.43985e+63
6.34674e+64
1.64679e+63
6.06463e+64
7.39903e+62
6.70841e+64
3.65339e+62
7.39397e+64
4.50794e+62
7.90367e+64
8.73279e+62
8.50474e+64
1.51348e+63
9.32715e+64
2.30484e+63
1.048e+65
3.24389e+63
1.20511e+65
4.35862e+63
1.41604e+65
5.68622e+63
1.69484e+65
7.22741e+63
2.05767e+65
8.91958e+63
2.52663e+65
1.04459e+64
3.10974e+65
1.10894e+64
3.83319e+65
7.88045e+63
4.40276e+65
5.28672e+63
4.10901e+65
-1.14539e+65
1.0175e+66
-6.4822e+65
4.26378e+66
-1.58339e+66
1.11896e+67
-2.315e+66
2.00964e+67
2.44108e+67
-3.21355e+64
-8.83031e+63
-3.14676e+64
-3.30107e+64
-3.34088e+64
-7.71073e+64
-3.22788e+64
-1.09645e+65
-2.89983e+64
-1.11631e+65
-2.68597e+64
-1.0585e+65
-2.53247e+64
-8.9844e+64
-2.3162e+64
-6.54115e+64
-1.98888e+64
-4.52801e+64
-1.44138e+64
-1.74914e+64
-1.26956e+64
-2.50006e+64
-1.10691e+63
8.71365e+64
-2.4771e+62
5.8705e+63
-9.24357e+63
-1.00993e+64
-1.3507e+64
3.35814e+63
-1.56288e+64
4.3178e+64
-1.87922e+64
1.09251e+65
-2.44872e+64
1.92255e+65
-1.77665e+64
1.66296e+65
-1.83261e+64
1.29382e+65
-1.62176e+64
1.19088e+65
-7.57554e+63
7.71128e+64
-6.55933e+63
3.001e+64
-1.18614e+64
1.39107e+64
-1.28901e+64
1.04634e+64
-1.03092e+64
6.0847e+63
-1.05126e+64
-1.14027e+63
-1.13378e+64
-8.12286e+63
-8.2751e+63
-8.58915e+63
-3.55074e+63
-2.2419e+64
-9.44439e+63
-9.75545e+64
-1.04406e+64
-7.99749e+64
-1.02084e+63
-5.57082e+64
-5.30204e+63
-1.5935e+65
-9.79686e+63
-1.00233e+65
-9.97616e+63
-8.4845e+64
-1.37218e+64
-1.10877e+65
-1.22662e+64
-6.81144e+64
-1.15264e+64
-5.40334e+64
-1.01741e+63
1.21714e+64
1.10221e+64
3.54001e+64
1.55741e+64
1.77447e+65
7.31719e+63
5.03093e+63
-4.30305e+63
8.05195e+64
-4.5249e+63
3.82076e+64
-6.4534e+63
2.38508e+65
-3.52729e+63
1.41489e+65
-6.11955e+63
1.14347e+65
-3.86497e+63
6.84623e+64
-1.9163e+63
4.89789e+64
4.33547e+62
3.01914e+64
-7.89455e+62
-1.79064e+64
2.55767e+63
-2.61621e+64
5.6769e+63
1.00949e+64
7.0983e+63
5.78764e+64
6.97268e+63
6.70053e+64
5.60003e+63
6.9146e+64
3.49256e+63
6.5598e+64
1.62451e+63
6.25404e+64
6.84759e+62
6.80501e+64
3.1585e+62
7.4334e+64
4.38394e+62
7.89456e+64
9.20016e+62
8.45994e+64
1.6308e+63
9.25982e+64
2.50115e+63
1.03966e+65
3.53164e+63
1.19518e+65
4.75833e+63
1.40411e+65
6.22958e+63
1.68048e+65
7.9639e+63
2.04063e+65
9.93892e+63
2.50722e+65
1.19329e+64
3.09009e+65
1.34005e+64
3.81886e+65
1.09623e+64
4.42747e+65
1.16791e+64
4.10224e+65
-1.54684e+65
1.18388e+66
-7.6966e+65
4.87876e+66
-1.72651e+66
1.21465e+67
-2.36754e+66
2.07375e+67
2.37498e+67
-3.29795e+64
-9.16416e+63
-3.25232e+64
-3.3467e+64
-3.39277e+64
-7.57029e+64
-3.34065e+64
-1.10166e+65
-2.99531e+64
-1.15084e+65
-2.79111e+64
-1.07892e+65
-2.61817e+64
-9.15734e+64
-2.39492e+64
-6.7644e+64
-2.08089e+64
-4.84204e+64
-1.59356e+64
-2.23647e+64
-1.49508e+64
-2.59854e+64
-1.26704e+63
7.34527e+64
-1.26621e+63
5.86968e+63
-1.04279e+64
-9.3757e+62
-1.48201e+64
7.75035e+63
-1.71271e+64
4.5485e+64
-2.05007e+64
1.12625e+65
-2.63684e+64
1.98122e+65
-1.98881e+64
1.59816e+65
-1.94537e+64
1.28948e+65
-1.6458e+64
1.16092e+65
-9.72806e+63
7.03829e+64
-1.20329e+64
3.23148e+64
-1.52971e+64
1.7175e+64
-1.29858e+64
8.15214e+63
-1.13167e+64
4.41568e+63
-1.13363e+64
-1.12061e+63
-1.13434e+64
-8.11556e+63
-8.24936e+63