/*--------------------------------*- C++ -*----------------------------------*\
| =========                 |                                                 |
| \\      /  F ield         | OpenFOAM: The Open Source CFD Toolbox           |
|  \\    /   O peration     | Version:  4.1                                   |
|   \\  /    A nd           | Web:      www.OpenFOAM.org                      |
|    \\/     M anipulation  |                                                 |
\*---------------------------------------------------------------------------*/
FoamFile
{
    version     2.0;
    format      ascii;
    class       volVectorField;
    location    "30";
    object      U;
}
// * * * * * * * * * * * * * * * * * * * * * * * * * * * * * * * * * * * * * //

dimensions      [0 1 -1 0 0 0 0];

internalField   nonuniform List<vector> 
6785
(
(-1.82642e+59 7.09923e+60 1.58059e+60)
(-3.60135e+59 1.23617e+61 -5.26492e+60)
(-4.45364e+59 1.61311e+61 -9.56087e+60)
(-5.1117e+59 1.95486e+61 -1.32109e+61)
(-5.59964e+59 2.24857e+61 -1.64989e+61)
(-5.9631e+59 2.50709e+61 -1.96694e+61)
(-6.22759e+59 2.73402e+61 -2.2866e+61)
(-6.37124e+59 2.91928e+61 -2.61775e+61)
(-6.3561e+59 3.0494e+61 -2.9757e+61)
(-6.29076e+59 3.17455e+61 -3.3735e+61)
(-6.15057e+59 3.27406e+61 -3.76408e+61)
(-5.89009e+59 3.32628e+61 -4.08377e+61)
(-5.42003e+59 3.18056e+61 -4.03355e+61)
(-4.74555e+59 2.8036e+61 -3.74247e+61)
(-2.77446e+59 1.25148e+61 -3.99469e+60)
(-2.84305e+59 5.1622e+60 1.64467e+61)
(-5.52646e+59 6.17983e+60 8.24359e+60)
(-6.79088e+59 8.2441e+60 5.4755e+60)
(-7.47822e+59 9.36844e+60 3.48083e+60)
(-7.61301e+59 9.97081e+60 2.05617e+60)
(-7.37314e+59 1.06443e+61 4.24182e+59)
(-7.0853e+59 1.187e+61 -2.59754e+60)
(-7.02482e+59 1.46538e+61 -8.05443e+60)
(-7.17124e+59 1.93476e+61 -1.5791e+61)
(-7.19234e+59 2.43443e+61 -2.35097e+61)
(-7.1374e+59 2.96746e+61 -3.14153e+61)
(-7.02221e+59 3.54371e+61 -4.01528e+61)
(-6.68001e+59 3.9788e+61 -4.94542e+61)
(-5.44937e+59 3.97009e+61 -5.45228e+61)
(-2.6503e+59 1.95614e+61 -2.86835e+61)
(-2.66018e+59 1.84085e+60 1.86357e+61)
(-5.37395e+59 -1.15025e+60 1.4774e+61)
(-6.76522e+59 -1.29086e+60 1.11103e+61)
(-7.52962e+59 -1.04034e+60 9.69576e+60)
(-7.85725e+59 -1.45709e+60 9.21725e+60)
(-7.88834e+59 -2.07274e+60 8.54518e+60)
(-7.76536e+59 -2.19511e+60 7.26389e+60)
(-7.56832e+59 -1.7759e+60 5.72347e+60)
(-7.40679e+59 -1.28451e+60 4.74016e+60)
(-7.31127e+59 -1.97517e+60 5.95447e+60)
(-7.14988e+59 -3.0586e+60 8.82286e+60)
(-7.37013e+59 -4.92144e+60 1.37689e+61)
(-8.97098e+59 1.42316e+61 -2.25271e+61)
(-8.78925e+59 4.21921e+61 -6.90968e+61)
(-5.70954e+59 4.10841e+61 -8.07813e+61)
(-2.02267e+59 -2.05063e+59 1.51073e+61)
(-4.45e+59 -4.90819e+60 1.71719e+61)
(-5.87826e+59 -6.38972e+60 1.42581e+61)
(-6.70882e+59 -6.15622e+60 1.23617e+61)
(-7.17193e+59 -6.14551e+60 1.15024e+61)
(-7.44726e+59 -6.38275e+60 1.06462e+61)
(-7.61593e+59 -6.39298e+60 9.55926e+60)
(-7.64225e+59 -6.24899e+60 8.65358e+60)
(-7.5591e+59 -6.18843e+60 8.14406e+60)
(-7.46434e+59 -6.26085e+60 7.85571e+60)
(-7.32032e+59 -6.58589e+60 7.86845e+60)
(-7.31411e+59 -6.97927e+60 8.3137e+60)
(-7.13222e+59 -9.5632e+60 1.03385e+61)
(-8.11951e+59 2.4198e+61 -3.73839e+61)
(-6.71258e+59 4.36196e+61 -9.30437e+61)
(-1.51544e+59 -1.22655e+60 1.27107e+61)
(-3.6868e+59 -6.28291e+60 1.72222e+61)
(-5.16167e+59 -8.06644e+60 1.59581e+61)
(-6.07417e+59 -7.60612e+60 1.41235e+61)
(-6.63468e+59 -6.99193e+60 1.29734e+61)
(-7.04274e+59 -6.65164e+60 1.2005e+61)
(-7.36308e+59 -6.35513e+60 1.10762e+61)
(-7.52087e+59 -6.14339e+60 1.05127e+61)
(-7.48821e+59 -6.12892e+60 1.04481e+61)
(-7.36799e+59 -5.91546e+60 9.92126e+60)
(-7.25529e+59 -4.33849e+60 7.50169e+60)
(-7.26553e+59 -2.28231e+60 3.1459e+60)
(-7.68113e+59 8.38525e+60 -1.30805e+61)
(-8.64566e+59 4.22634e+61 -6.27343e+61)
(-6.74707e+59 4.27739e+61 -9.45099e+61)
(-1.20678e+59 -2.04987e+60 1.34299e+61)
(-3.24285e+59 -7.34755e+60 1.81455e+61)
(-4.74348e+59 -9.17138e+60 1.785e+61)
(-5.73305e+59 -8.65134e+60 1.62255e+61)
(-6.3904e+59 -7.91142e+60 1.4949e+61)
(-6.89617e+59 -7.58684e+60 1.39965e+61)
(-7.27957e+59 -7.47369e+60 1.32668e+61)
(-7.43365e+59 -7.53191e+60 1.28578e+61)
(-7.36694e+59 -7.72517e+60 1.26831e+61)
(-7.22107e+59 -7.39589e+60 1.17072e+61)
(-7.11604e+59 -5.71727e+60 9.09753e+60)
(-7.24892e+59 -2.14099e+60 2.82495e+60)
(-8.01738e+59 1.31651e+61 -1.92674e+61)
(-8.77756e+59 3.75228e+61 -5.74928e+61)
(-6.82162e+59 4.27471e+61 -9.64237e+61)
(-9.08149e+58 -2.25562e+60 1.38124e+61)
(-2.61757e+59 -8.01495e+60 1.91432e+61)
(-4.15111e+59 -1.04536e+61 2.00611e+61)
(-5.29613e+59 -1.03587e+61 1.89824e+61)
(-6.07736e+59 -9.72547e+60 1.76605e+61)
(-6.66593e+59 -9.38433e+60 1.6594e+61)
(-7.11247e+59 -9.31288e+60 1.58622e+61)
(-7.33149e+59 -9.41629e+60 1.55591e+61)
(-7.31057e+59 -9.65736e+60 1.56001e+61)
(-7.16803e+59 -9.55103e+60 1.52431e+61)
(-7.02935e+59 -8.33694e+60 1.36046e+61)
(-7.06933e+59 -5.50824e+60 9.18102e+60)
(-7.61215e+59 5.06755e+60 -5.10319e+60)
(-8.60209e+59 3.1294e+61 -4.72391e+61)
(-6.99413e+59 4.27345e+61 -9.98378e+61)
(-6.87053e+58 -2.22981e+60 1.51876e+61)
(-1.94517e+59 -8.45647e+60 2.01458e+61)
(-3.35948e+59 -1.16822e+61 2.21599e+61)
(-4.62771e+59 -1.22355e+61 2.17897e+61)
(-5.53813e+59 -1.18801e+61 2.0795e+61)
(-6.21894e+59 -1.14566e+61 1.96891e+61)
(-6.75193e+59 -1.12014e+61 1.88597e+61)
(-7.09258e+59 -1.10957e+61 1.84435e+61)
(-7.19556e+59 -1.11384e+61 1.85004e+61)
(-7.11843e+59 -1.10475e+61 1.84713e+61)
(-6.98868e+59 -1.01115e+61 1.74829e+61)
(-6.98763e+59 -7.39965e+60 1.37356e+61)
(-7.58886e+59 3.47158e+60 -1.98049e+60)
(-8.5756e+59 3.33955e+61 -4.93239e+61)
(-7.2095e+59 4.24824e+61 -1.03261e+62)
(-5.46234e+58 -2.61548e+60 1.86916e+61)
(-1.44648e+59 -9.19935e+60 2.22225e+61)
(-2.77147e+59 -1.28285e+61 2.49782e+61)
(-4.16525e+59 -1.37185e+61 2.53645e+61)
(-5.21529e+59 -1.36024e+61 2.48459e+61)
(-5.99609e+59 -1.32638e+61 2.39594e+61)
(-6.60031e+59 -1.30338e+61 2.33083e+61)
(-6.99151e+59 -1.29053e+61 2.30775e+61)
(-7.10012e+59 -1.28067e+61 2.30256e+61)
(-7.01656e+59 -1.24111e+61 2.25431e+61)
(-6.91527e+59 -1.09122e+61 2.06862e+61)
(-6.99551e+59 -8.26473e+60 1.65205e+61)
(-7.68889e+59 4.13822e+60 -1.42421e+60)
(-8.42954e+59 2.93176e+61 -4.19763e+61)
(-7.44469e+59 4.20269e+61 -1.06688e+62)
(-5.60266e+58 -3.7893e+60 2.51965e+61)
(-1.24934e+59 -1.07315e+61 2.71074e+61)
(-2.34875e+59 -1.43618e+61 2.9248e+61)
(-3.66367e+59 -1.52131e+61 2.89385e+61)
(-4.72382e+59 -1.526e+61 2.81597e+61)
(-5.541e+59 -1.49316e+61 2.69112e+61)
(-6.20523e+59 -1.4646e+61 2.57803e+61)
(-6.7072e+59 -1.45499e+61 2.50961e+61)
(-6.96353e+59 -1.45861e+61 2.50101e+61)
(-6.98032e+59 -1.45208e+61 2.49609e+61)
(-6.8857e+59 -1.35385e+61 2.40628e+61)
(-6.8655e+59 -1.13286e+61 2.11537e+61)
(-7.44569e+59 -9.1062e+59 6.85343e+60)
(-8.08312e+59 1.95887e+61 -2.74827e+61)
(-7.6744e+59 4.06144e+61 -1.09996e+62)
(-4.23369e+58 -3.16646e+60 3.53861e+61)
(-3.33012e+58 -1.29312e+61 3.19886e+61)
(-1.4839e+59 -1.64188e+61 3.59812e+61)
(-3.23473e+59 -1.79283e+61 3.66977e+61)
(-4.68374e+59 -1.76297e+61 3.70941e+61)
(-5.69249e+59 -1.70447e+61 3.67187e+61)
(-6.32563e+59 -1.63016e+61 3.60113e+61)
(-6.66194e+59 -1.55591e+61 3.5041e+61)
(-6.77477e+59 -1.48116e+61 3.38449e+61)
(-6.76254e+59 -1.40776e+61 3.22091e+61)
(-6.74431e+59 -1.32045e+61 2.98093e+61)
(-6.86308e+59 -1.12256e+61 2.50592e+61)
(-7.40794e+59 -7.61275e+58 8.23042e+60)
(-7.43583e+59 5.19995e+60 -1.70835e+61)
(-7.83769e+59 3.669e+61 -1.09215e+62)
(-6.64041e+58 -1.73725e+61 5.13721e+61)
(-2.20679e+59 -1.29494e+61 5.40332e+61)
(-4.10352e+59 -1.06563e+61 5.37221e+61)
(-5.43802e+59 -5.80415e+60 5.13293e+61)
(-6.17303e+59 -4.43859e+60 4.52125e+61)
(-6.54862e+59 -3.4663e+60 3.79125e+61)
(-6.76511e+59 -3.67941e+60 3.04124e+61)
(-6.91115e+59 -5.2826e+60 2.31997e+61)
(-7.0262e+59 -8.61488e+60 1.62405e+61)
(-7.12448e+59 -1.13809e+61 9.45397e+60)
(-7.22372e+59 -1.30831e+61 3.21409e+60)
(-7.30228e+59 -1.42622e+61 -1.8333e+60)
(-7.44963e+59 -1.1613e+61 -9.58851e+60)
(-7.62679e+59 -1.31692e+61 -1.50034e+61)
(-7.95137e+59 2.62359e+61 -9.02245e+61)
(-1.13157e+59 8.62681e+60 9.79071e+61)
(-3.97238e+59 -2.18778e+61 7.85032e+61)
(-5.71122e+59 -1.93454e+61 5.9445e+61)
(-6.83969e+59 -5.00187e+61 2.5498e+61)
(-7.63273e+59 -5.73546e+61 6.43934e+60)
(-8.17904e+59 -5.87453e+61 -5.6084e+60)
(-8.57748e+59 -5.98799e+61 -1.29529e+61)
(-8.87184e+59 -6.25942e+61 -1.5824e+61)
(-9.083e+59 -6.59048e+61 -1.39329e+61)
(-9.21466e+59 -6.94769e+61 -7.94019e+60)
(-9.25937e+59 -7.10794e+61 2.09471e+60)
(-9.21671e+59 -7.15561e+61 1.47701e+61)
(-9.08839e+59 -6.9877e+61 2.85747e+61)
(-8.81481e+59 -6.56224e+61 4.37452e+61)
(-8.37654e+59 -1.88926e+61 1.3935e+61)
(-3.9266e+59 -1.90045e+62 4.37233e+61)
(-7.84985e+59 -1.13347e+62 -3.33482e+61)
(-9.73998e+59 -7.55959e+61 -6.98185e+61)
(-1.08714e+60 -4.76651e+61 -1.01884e+62)
(-1.15914e+60 -3.18473e+61 -1.21419e+62)
(-1.20954e+60 -2.08014e+61 -1.32207e+62)
(-1.24287e+60 -1.93159e+61 -1.3157e+62)
(-1.26455e+60 -2.06511e+61 -1.21549e+62)
(-1.27519e+60 -2.81381e+61 -1.01581e+62)
(-1.27798e+60 -3.87844e+61 -7.09837e+61)
(-1.27232e+60 -5.52187e+61 -2.80923e+61)
(-1.25102e+60 -7.82189e+61 2.86215e+61)
(-1.20846e+60 -1.10092e+62 1.07143e+62)
(-1.11315e+60 -1.5362e+62 2.33644e+62)
(-9.59976e+59 -2.6671e+62 4.37354e+62)
(-1.37351e+60 -2.65584e+61 3.8083e+62)
(-1.71855e+60 4.35556e+62 -1.30785e+62)
(-1.67452e+60 4.12253e+62 -1.38796e+62)
(-1.6875e+60 4.73088e+62 -1.91747e+62)
(-1.67798e+60 4.89148e+62 -1.87185e+62)
(-1.67429e+60 5.12703e+62 -2.03085e+62)
(-1.66394e+60 5.16264e+62 -2.02068e+62)
(-1.65576e+60 5.2451e+62 -1.99057e+62)
(-1.64168e+60 5.1515e+62 -2.04493e+62)
(-1.62504e+60 5.01876e+62 -1.87141e+62)
(-1.60618e+60 4.8456e+62 -1.94379e+62)
(-1.56917e+60 4.4668e+62 -1.59807e+62)
(-1.51701e+60 4.33108e+62 -1.29171e+62)
(-1.37681e+60 4.27061e+62 -4.74522e+61)
(-9.52295e+59 4.412e+62 1.26408e+62)
(-2.65203e+60 1.13465e+64 1.78572e+63)
(-3.49218e+60 2.8976e+63 5.39384e+63)
(-2.45805e+60 -1.67269e+63 4.48041e+63)
(-2.41498e+60 -4.20419e+63 3.74351e+63)
(-2.33617e+60 -5.20699e+63 3.30508e+63)
(-4.41607e+60 2.70479e+62 -1.70198e+63)
(-3.13253e+60 -1.39143e+62 -1.20647e+63)
(-2.89557e+60 -1.38698e+62 -1.17443e+63)
(-2.73011e+60 -2.35406e+61 -1.19406e+63)
(-3.97287e+60 1.1972e+62 -1.49566e+63)
(-2.97832e+60 1.43662e+62 -1.10416e+63)
(-2.78972e+60 1.45643e+62 -1.10167e+63)
(-3.98225e+60 4.34147e+62 -1.4241e+63)
(-2.92402e+60 3.42818e+62 -1.09112e+63)
(-2.89437e+60 4.02789e+62 -1.11125e+63)
(-2.74984e+60 4.2939e+62 -1.08299e+63)
(-3.89089e+60 8.37692e+62 -1.41555e+63)
(-2.91548e+60 6.48078e+62 -1.09797e+63)
(-2.72015e+60 6.53431e+62 -1.06338e+63)
(-3.85195e+60 1.14316e+63 -1.35665e+63)
(-2.83879e+60 8.46111e+62 -1.03871e+63)
(-2.80824e+60 9.35159e+62 -1.03697e+63)
(-2.66603e+60 9.39274e+62 -1.00432e+63)
(-3.77926e+60 1.48254e+63 -1.26271e+63)
(-2.78827e+60 1.10182e+63 -9.65621e+62)
(-2.75786e+60 1.19291e+63 -9.58146e+62)
(-2.62017e+60 1.18945e+63 -9.25594e+62)
(-3.69546e+60 1.7536e+63 -1.14946e+63)
(-2.77352e+60 1.35276e+63 -8.86084e+62)
(-2.58818e+60 1.33059e+63 -8.48488e+62)
(-3.65873e+60 1.97231e+63 -1.03864e+63)
(-2.70038e+60 1.47666e+63 -7.96334e+62)
(-2.67095e+60 1.56617e+63 -7.88691e+62)
(-2.53785e+60 1.54412e+63 -7.63002e+62)
(-3.57739e+60 2.16377e+63 -9.29532e+62)
(-2.68708e+60 1.67252e+63 -7.19113e+62)
(-2.50782e+60 1.63204e+63 -6.89828e+62)
(-3.54417e+60 2.32933e+63 -8.28336e+62)
(-2.61747e+60 1.74867e+63 -6.39882e+62)
(-2.58958e+60 1.83463e+63 -6.34413e+62)
(-2.45894e+60 1.79351e+63 -6.15127e+62)
(-3.48175e+60 2.48349e+63 -7.38986e+62)
(-2.57325e+60 1.87129e+63 -5.71684e+62)
(-2.54555e+60 1.95267e+63 -5.64656e+62)
(-2.41873e+60 1.90747e+63 -5.46831e+62)
(-3.40966e+60 2.58659e+63 -6.54641e+62)
(-2.5626e+60 2.00211e+63 -5.1074e+62)
(-2.39171e+60 1.94e+63 -4.90923e+62)
(-3.38103e+60 2.69364e+63 -5.76781e+62)
(-2.49783e+60 2.02792e+63 -4.51731e+62)
(-2.47131e+60 2.10638e+63 -4.47384e+62)
(-2.34648e+60 2.04756e+63 -4.34488e+62)
(-3.32405e+60 2.77947e+63 -5.13652e+62)
(-2.45688e+60 2.09986e+63 -4.02691e+62)
(-2.43046e+60 2.17385e+63 -3.96901e+62)
(-2.30915e+60 2.11367e+63 -3.84802e+62)
(-3.2573e+60 2.82323e+63 -4.55407e+62)
(-2.44776e+60 2.18861e+63 -3.59229e+62)
(-2.28419e+60 2.11242e+63 -3.46261e+62)
(-3.23173e+60 2.89347e+63 -3.99341e+62)
(-2.38653e+60 2.18379e+63 -3.18232e+62)
(-2.3608e+60 2.25479e+63 -3.14688e+62)
(-2.24268e+60 2.1885e+63 -3.05843e+62)
(-3.16564e+60 2.90686e+63 -3.57289e+62)
(-2.37781e+60 2.2553e+63 -2.85281e+62)
(-2.21856e+60 2.17316e+63 -2.76529e+62)
(-3.14143e+60 2.96134e+63 -3.14359e+62)
(-2.31833e+60 2.23728e+63 -2.54374e+62)
(-2.29367e+60 2.30649e+63 -2.52711e+62)
(-2.1771e+60 2.23201e+63 -2.45876e+62)
(-3.09027e+60 2.9877e+63 -2.86172e+62)
(-2.28079e+60 2.26491e+63 -2.30626e+62)
(-2.25621e+60 2.33111e+63 -2.27242e+62)
(-2.14275e+60 2.25767e+63 -2.19902e+62)
(-3.02995e+60 2.98519e+63 -2.61157e+62)
(-2.27236e+60 2.31778e+63 -2.10296e+62)
(-2.12215e+60 2.23658e+63 -2.02793e+62)
(-2.98355e+60 2.97623e+63 -2.36187e+62)
(-2.27114e+60 2.35038e+63 -1.92126e+62)
(-2.0026e+60 2.12925e+63 -1.85989e+62)
(-2.55795e+60 2.51284e+63 -2.03448e+62)
(-2.60774e+60 2.43612e+63 -2.10284e+62)
(-2.58902e+60 2.38584e+63 -2.16388e+62)
(-2.88415e+60 2.41087e+63 -1.85379e+62)
(-2.58295e+60 2.27084e+63 -1.82612e+62)
(-2.5974e+60 2.27644e+63 -1.96671e+62)
(-2.6096e+60 2.28032e+63 -2.06274e+62)
(-2.60219e+60 2.28175e+63 -2.0692e+62)
(-2.59252e+60 2.28381e+63 -2.05608e+62)
(-2.57972e+60 2.28213e+63 -2.03995e+62)
(-2.57585e+60 2.29071e+63 -2.01662e+62)
(-2.56307e+60 2.27117e+63 -2.11919e+62)
(-2.75517e+60 2.47415e+63 -1.1031e+62)
(-2.55602e+60 2.22499e+63 -1.65869e+62)
(-2.5416e+60 2.21696e+63 -1.67027e+62)
(-2.52888e+60 2.21741e+63 -1.65884e+62)
(-2.52359e+60 2.21761e+63 -1.67138e+62)
(-2.51387e+60 2.21827e+63 -1.64966e+62)
(-2.50184e+60 2.21581e+63 -1.63163e+62)
(-2.49527e+60 2.22251e+63 -1.58358e+62)
(-2.4707e+60 2.20286e+63 -1.61854e+62)
(-2.64395e+60 2.39389e+63 -4.461e+61)
(-2.46357e+60 2.15234e+63 -1.18001e+62)
(-2.4492e+60 2.14369e+63 -1.19232e+62)
(-2.43813e+60 2.14312e+63 -1.18414e+62)
(-2.42754e+60 2.14289e+63 -1.17091e+62)
(-2.41711e+60 2.14198e+63 -1.15149e+62)
(-2.40846e+60 2.14286e+63 -1.11807e+62)
(-2.39711e+60 2.13985e+63 -1.10207e+62)
(-2.39071e+60 2.14561e+63 -1.05568e+62)
(-2.36766e+60 2.12669e+63 -1.1019e+62)
(-2.52592e+60 2.31108e+63 1.45707e+61)
(-2.35711e+60 2.07283e+63 -6.82134e+61)
(-2.34352e+60 2.06483e+63 -7.01886e+61)
(-2.33297e+60 2.0646e+63 -6.99201e+61)
(-2.32292e+60 2.06428e+63 -6.91331e+61)
(-2.31289e+60 2.06444e+63 -6.77861e+61)
(-2.30278e+60 2.06223e+63 -6.66798e+61)
(-2.29735e+60 2.06785e+63 -6.24103e+61)
(-2.27576e+60 2.04982e+63 -6.83196e+61)
(-2.42216e+60 2.22724e+63 6.35718e+61)
(-2.26168e+60 1.99379e+63 -2.57474e+61)
(-2.24876e+60 1.98603e+63 -2.844e+61)
(-2.23945e+60 1.98549e+63 -2.90637e+61)
(-2.22982e+60 1.98532e+63 -2.89132e+61)
(-2.22051e+60 1.98596e+63 -2.80394e+61)
(-2.21001e+60 1.98374e+63 -2.79548e+61)
(-2.20328e+60 1.98937e+63 -2.40856e+61)
(-2.18415e+60 1.9723e+63 -3.11748e+61)
(-2.31852e+60 2.14773e+63 1.08092e+62)
(-2.16826e+60 1.91538e+63 1.0686e+61)
(-2.15588e+60 1.9078e+63 7.54871e+60)
(-2.14597e+60 1.90836e+63 6.58996e+60)
(-2.13674e+60 1.90726e+63 7.66048e+60)
(-2.12793e+60 1.90789e+63 9.12033e+60)
(-2.11763e+60 1.90644e+63 9.14466e+60)
(-2.11145e+60 1.91259e+63 1.26974e+61)
(-2.09181e+60 1.89626e+63 5.54972e+60)
(-2.21516e+60 2.07501e+63 1.48194e+62)
(-2.07468e+60 1.83904e+63 4.58813e+61)
(-2.06278e+60 1.83277e+63 4.24021e+61)
(-2.05332e+60 1.83391e+63 4.13668e+61)
(-2.04405e+60 1.83404e+63 4.19415e+61)
(-2.03535e+60 1.83721e+63 4.0084e+61)
(-2.02496e+60 1.83397e+63 4.76259e+61)
(-2.01473e+60 1.83514e+63 4.89287e+61)
(-2.00859e+60 1.84434e+63 5.28893e+61)
(-1.99002e+60 1.82889e+63 4.67105e+61)
(-2.10257e+60 2.02917e+63 1.81407e+62)
(-1.9729e+60 1.78072e+63 8.43115e+61)
(-1.96357e+60 1.77685e+63 8.13818e+61)
(-1.95518e+60 1.78052e+63 8.04724e+61)
(-1.94615e+60 1.7833e+63 8.12307e+61)
(-1.93953e+60 1.79187e+63 7.92957e+61)
(-1.92435e+60 1.79455e+63 8.86921e+61)
(-1.88871e+60 1.79137e+63 1.40222e+62)
(-1.86188e+60 1.7754e+63 1.52661e+62)
(-2.01824e+60 2.22033e+63 1.9248e+62)
(-1.83353e+60 1.81418e+63 1.79388e+62)
(-1.85557e+60 1.831e+63 1.86138e+62)
(-1.45855e+60 1.69972e+63 1.22765e+62)
(-1.75833e+60 2.01241e+63 1.37314e+62)
(-2.03348e+60 2.17775e+63 1.64527e+62)
(-1.33605e+60 1.48747e+63 1.0508e+62)
(-1.83641e+60 2.07153e+63 1.42302e+62)
(-1.31743e+60 1.51713e+63 1.02576e+62)
(-1.62862e+60 1.80116e+63 1.14336e+62)
(-1.88427e+60 1.94855e+63 1.33375e+62)
(-1.26841e+60 1.38074e+63 8.93213e+61)
(-1.55593e+60 1.66793e+63 1.03916e+62)
(-1.80395e+60 1.83756e+63 1.23606e+62)
(-1.1808e+60 1.25314e+63 7.78128e+61)
(-1.62494e+60 1.75563e+63 1.02687e+62)
(-1.16114e+60 1.28046e+63 7.48753e+61)
(-1.43762e+60 1.52023e+63 7.86e+61)
(-1.70134e+60 1.72112e+63 1.17902e+62)
(-1.11803e+60 1.17048e+63 7.51383e+61)
(-1.56055e+60 1.69768e+63 1.39813e+62)
(-1.12207e+60 1.23618e+63 9.90784e+61)
(-1.39712e+60 1.50314e+63 1.48222e+62)
(-1.63701e+60 1.66787e+63 2.75292e+62)
(-1.10563e+60 1.17367e+63 1.73045e+62)
(-1.36157e+60 1.4489e+63 2.74904e+62)
(-1.60931e+60 1.67163e+63 3.94958e+62)
(-1.06031e+60 1.11266e+63 2.73724e+62)
(-1.4699e+60 1.69604e+63 3.07007e+62)
(-1.05932e+60 1.23832e+63 2.42508e+62)
(-1.30517e+60 1.48148e+63 1.89395e+62)
(-1.39773e+60 2.19789e+63 -4.77412e+62)
(-9.46344e+59 1.49567e+63 -2.32079e+62)
(-1.05141e+60 2.50273e+63 -1.1355e+63)
(-7.27863e+59 1.98761e+63 -8.61627e+62)
(-8.10396e+59 2.49802e+63 -1.35249e+63)
(-9.55882e+59 2.96678e+63 -1.84204e+63)
(-6.16965e+59 2.29337e+63 -1.25591e+63)
(-7.93999e+59 2.85209e+63 -1.63744e+63)
(-1.00737e+60 3.24026e+63 -2.07969e+63)
(-6.16973e+59 2.40463e+63 -1.38287e+63)
(-9.30872e+59 3.36349e+63 -2.03575e+63)
(-6.20724e+59 2.63603e+63 -1.49094e+63)
(-8.03555e+59 3.12713e+63 -1.93999e+63)
(-8.76509e+59 3.20844e+63 -2.34101e+63)
(-4.99223e+59 2.39501e+63 -1.67133e+63)
(-6.128e+59 2.98991e+63 -2.25386e+63)
(-3.43904e+59 2.32643e+63 -1.78754e+63)
(-3.26838e+59 2.68557e+63 -2.24237e+63)
(2.58803e+59 2.60456e+63 -2.63832e+63)
(3.08074e+59 1.69104e+63 -2.13351e+63)
(1.06865e+60 2.12237e+63 -2.7858e+63)
(4.07415e+60 4.74137e+63 -4.1495e+63)
(2.28471e+60 -1.63747e+63 -2.37093e+63)
(2.43188e+60 2.69332e+63 -2.59114e+63)
(-1.15237e+59 -5.97029e+62 -7.24925e+62)
(-3.93948e+59 -9.80611e+60 -4.23778e+62)
(-2.38446e+60 -2.83023e+63 1.3722e+63)
(-2.57296e+60 -2.99e+63 1.65022e+63)
(-3.87375e+60 -4.66496e+63 2.69037e+63)
(-3.60483e+60 -4.32279e+63 2.64342e+63)
(-5.72853e+60 -6.89706e+63 4.39534e+63)
(-6.16921e+60 -8.61226e+63 4.95738e+63)
(-5.35021e+60 -7.67199e+63 4.40462e+63)
(-8.20701e+60 -1.17477e+64 6.82432e+63)
(-8.03409e+60 -1.31416e+64 6.86202e+63)
(-6.7316e+60 -1.17794e+64 5.94777e+63)
(-9.51081e+60 -1.6947e+64 8.39221e+63)
(-7.3696e+60 -1.34932e+64 6.69577e+63)
(-1.12487e+61 -2.03681e+64 1.01625e+64)
(-1.03663e+61 -2.08679e+64 9.51533e+63)
(-8.55797e+60 -1.84311e+64 8.14205e+63)
(-1.19476e+61 -2.59627e+64 1.12647e+64)
(-9.05111e+60 -2.00678e+64 8.81283e+63)
(-1.36864e+61 -2.9849e+64 1.31924e+64)
(-1.22872e+61 -2.90546e+64 1.20078e+64)
(-1.01538e+61 -2.49414e+64 1.02288e+64)
(-1.49527e+61 -3.5834e+64 1.48408e+64)
(-1.32984e+61 -3.47896e+64 1.34995e+64)
(-1.08891e+61 -3.01739e+64 1.1592e+64)
(-1.50265e+61 -4.21682e+64 1.57619e+64)
(-1.12611e+61 -3.05557e+64 1.22338e+64)
(-1.7429e+61 -4.21689e+64 1.90867e+64)
(-4.27508e+58 -1.56091e+61 1.27236e+62)
(-4.21123e+58 -1.40032e+61 1.25411e+62)
(-3.96008e+58 7.50136e+61 1.31401e+62)
(-3.91745e+58 6.60646e+61 1.36259e+62)
(-3.87526e+58 7.69992e+61 1.39153e+62)
(-3.85412e+58 6.63792e+60 1.25086e+62)
(-3.73343e+58 9.11067e+61 1.42593e+62)
(-3.60725e+58 5.38846e+61 1.32844e+62)
(-3.26994e+58 2.10214e+61 7.73485e+61)
(-3.17524e+58 -2.13626e+61 6.86294e+61)
(-3.50761e+58 2.79188e+60 1.04243e+62)
(-3.22968e+58 -1.30584e+62 8.59058e+61)
(-2.82976e+58 -1.14939e+62 2.02568e+61)
(-5.1845e+58 1.66517e+62 5.63701e+61)
(-5.10914e+58 9.02965e+61 6.91481e+61)
(-4.60186e+58 2.56011e+61 5.5513e+61)
(-4.1301e+58 -2.20867e+61 6.30424e+61)
(-3.47461e+58 -1.01603e+62 3.63191e+61)
(-3.15758e+58 -8.56986e+61 4.67963e+61)
(-2.58247e+58 -9.1465e+61 5.51693e+61)
(-2.47022e+58 -1.01788e+62 4.02744e+61)
(-1.96908e+58 -1.80828e+62 6.23347e+61)
(-2.11976e+58 -7.96713e+61 3.74801e+61)
(-4.15593e+58 5.77632e+61 -1.03129e+61)
(-4.22375e+58 1.48181e+61 3.75039e+60)
(-3.91513e+58 -4.75444e+61 5.73717e+61)
(-3.60223e+58 -4.5857e+61 4.41342e+61)
(-3.27957e+58 1.27025e+61 3.81379e+61)
(-2.85241e+58 -4.42651e+61 7.06288e+61)
(-2.10345e+58 -8.24834e+61 2.79769e+61)
(-3.34403e+58 1.06128e+62 2.72516e+61)
(-3.5258e+58 -4.82926e+60 6.20848e+61)
(-3.29586e+58 -6.55052e+61 2.9728e+61)
(-3.07194e+58 2.34898e+61 1.74807e+61)
(-2.92185e+58 1.09164e+62 4.98192e+61)
(-2.95049e+58 6.34001e+61 7.03013e+61)
(-2.81651e+58 -1.32259e+61 3.51739e+61)
(-2.65443e+58 -4.37962e+61 1.0196e+60)
(-2.81341e+58 6.96786e+61 5.51237e+61)
(-2.45612e+58 -1.15211e+62 1.90584e+60)
(-2.87173e+58 -5.09686e+61 2.91815e+61)
(-2.67642e+58 -1.4177e+62 4.23193e+60)
(-3.4518e+58 4.29952e+61 6.24094e+60)
(-3.42228e+58 4.26771e+61 1.13651e+61)
(-3.09316e+58 -3.65758e+61 -1.42054e+61)
(-2.09174e+58 -7.46585e+60 1.17836e+61)
(-2.76213e+58 -1.61906e+62 -1.44571e+61)
(-2.55029e+58 -1.66138e+62 -4.1842e+61)
(-1.37236e+58 -8.12288e+61 -2.35582e+60)
(-1.1045e+58 -8.83531e+61 -2.00995e+61)
(-1.08358e+58 -6.84156e+61 -1.61233e+61)
(-1.22948e+58 -6.6782e+60 -3.01458e+61)
(-1.57111e+58 -3.04478e+61 -3.30429e+61)
(-4.69462e+57 -5.68219e+61 -1.90571e+61)
(-2.68768e+57 -1.0682e+62 -8.17281e+60)
(-3.10942e+57 -1.04358e+62 -1.46982e+61)
(-3.37326e+57 -9.02615e+61 -1.96119e+61)
(-3.60274e+57 -7.06849e+61 -1.26219e+61)
(-7.75311e+56 -6.54673e+61 -4.18826e+60)
(1.38005e+55 -8.13617e+61 -2.1432e+60)
(2.15691e+54 -9.44325e+61 -1.87013e+60)
(-9.83508e+51 -1.05011e+62 -1.81255e+60)
(1.51419e+51 -1.15718e+62 -2.03497e+60)
(2.3598e+51 -1.2805e+62 -2.51729e+60)
(8.54352e+50 -1.43821e+62 -3.27114e+60)
(1.51587e+49 -1.64609e+62 -4.32164e+60)
(-2.19242e+50 -1.92364e+62 -5.68698e+60)
(-2.26507e+50 -2.2889e+62 -7.34365e+60)
(-2.23139e+50 -2.75963e+62 -9.24578e+60)
(-7.11966e+50 -3.35077e+62 -1.08245e+61)
(4.69946e+52 -4.03574e+62 -1.15259e+61)
(-7.43127e+54 -4.77071e+62 -5.91035e+60)
(5.00034e+57 -4.94408e+62 1.0355e+61)
(2.62043e+58 -3.60211e+62 7.87037e+61)
(-5.83024e+58 -5.86102e+62 2.95778e+62)
(-4.78569e+59 -2.1332e+63 8.87168e+62)
(-1.83164e+60 -6.5055e+63 2.70295e+63)
(-5.30257e+60 -1.59893e+64 7.29941e+63)
(-1.19086e+61 -3.17265e+64 1.56053e+64)
(-4.20017e+58 -1.08858e+61 1.49496e+62)
(-4.10429e+58 2.54904e+60 1.42388e+62)
(-3.94005e+58 5.28424e+61 1.51922e+62)
(-3.89923e+58 4.44286e+61 1.56323e+62)
(-3.85344e+58 5.27548e+61 1.60164e+62)
(-3.81964e+58 5.84941e+61 1.47308e+62)
(-3.76213e+58 8.51728e+61 1.5314e+62)
(-3.64315e+58 5.23393e+61 1.47017e+62)
(-3.3449e+58 6.53013e+60 9.64902e+61)
(-3.24883e+58 2.58768e+61 7.26534e+61)
(-3.57362e+58 3.26333e+60 1.08994e+62)
(-3.08712e+58 -1.22465e+62 6.24276e+61)
(-2.84267e+58 -7.94189e+61 1.72603e+61)
(-5.37891e+58 1.49087e+62 5.77917e+61)
(-5.28259e+58 9.17465e+61 6.25785e+61)
(-4.86422e+58 3.95864e+61 5.01279e+61)
(-4.15753e+58 -4.38402e+61 6.43006e+61)
(-3.4142e+58 -1.27895e+62 4.38213e+61)
(-2.93744e+58 -2.16502e+62 1.34147e+60)
(-2.54817e+58 -1.1054e+62 4.97682e+61)
(-2.45492e+58 -1.26719e+62 4.68332e+61)
(-1.94842e+58 -1.86866e+62 6.99429e+61)
(-2.3268e+58 -7.22264e+61 3.22883e+61)
(-4.11968e+58 4.60443e+61 -7.91167e+60)
(-4.26104e+58 1.4963e+61 4.49733e+61)
(-3.89624e+58 -5.23358e+61 6.28784e+61)
(-3.57171e+58 -3.6469e+61 3.93533e+61)
(-3.14672e+58 2.30636e+61 4.02379e+61)
(-2.69092e+58 -4.08166e+61 6.4528e+61)
(-2.1209e+58 -6.29107e+61 2.21088e+61)
(-3.34135e+58 7.51043e+61 3.8901e+61)
(-3.53343e+58 3.50285e+61 8.87534e+61)
(-3.26992e+58 -4.26457e+61 3.52753e+61)
(-3.01495e+58 1.13178e+62 1.71634e+61)
(-2.9453e+58 1.12648e+62 5.78789e+61)
(-3.01798e+58 6.28013e+61 7.9543e+61)
(-2.97505e+58 9.22489e+61 1.01642e+62)
(-3.06031e+58 2.12171e+61 3.19549e+61)
(-2.88043e+58 6.63961e+61 6.67541e+61)
(-2.47034e+58 -1.19182e+62 -6.38169e+60)
(-2.93707e+58 -5.61312e+61 3.16199e+61)
(-2.67736e+58 -1.53361e+62 -1.32624e+60)
(-3.53875e+58 3.89151e+61 8.77092e+60)
(-3.60433e+58 5.05095e+61 5.57332e+60)
(-3.34575e+58 -2.3818e+61 -1.32691e+61)
(-2.09629e+58 -6.62557e+61 1.2261e+60)
(-2.86042e+58 -1.62383e+62 -1.35667e+61)
(-2.56252e+58 -1.68056e+62 -4.10015e+61)
(-1.50468e+58 -1.02749e+62 -5.23792e+60)
(-1.10246e+58 -8.90123e+61 -1.06919e+61)
(-1.08034e+58 -6.3436e+61 -9.25053e+60)
(-1.24369e+58 6.50298e+60 -2.20621e+61)
(-1.54281e+58 -1.4834e+61 -2.75839e+61)
(-4.54512e+57 -4.49676e+61 -1.92146e+61)
(-2.6916e+57 -1.0124e+62 -1.33182e+61)
(-3.10167e+57 -1.01288e+62 -2.15774e+61)
(-3.36622e+57 -8.93639e+61 -2.57883e+61)
(-3.62489e+57 -7.15742e+61 -1.8517e+61)
(-9.01523e+56 -6.70138e+61 -8.15554e+60)
(1.06039e+55 -8.30967e+61 -3.7748e+60)
(4.85198e+54 -9.66852e+61 -2.40898e+60)
(7.7123e+51 -1.07369e+62 -1.88946e+60)
(-2.87893e+51 -1.18167e+62 -2.24615e+60)
(2.32208e+51 -1.30792e+62 -3.19611e+60)
(8.6942e+50 -1.47158e+62 -4.56811e+60)
(1.89305e+49 -1.68882e+62 -6.29996e+60)
(-2.18955e+50 -1.97925e+62 -8.39759e+60)
(-2.26857e+50 -2.36116e+62 -1.08554e+61)
(-2.21979e+50 -2.85295e+62 -1.36482e+61)
(-8.18849e+50 -3.47094e+62 -1.6044e+61)
(5.87898e+52 -4.19104e+62 -1.73211e+61)
(-8.31521e+54 -4.97484e+62 -1.03708e+61)
(5.57565e+57 -5.21325e+62 1.03126e+61)
(2.86376e+58 -3.98343e+62 8.49567e+61)
(-6.29498e+58 -6.75728e+62 2.79723e+62)
(-5.16711e+59 -2.41351e+63 8.395e+62)
(-2.00365e+60 -7.30699e+63 2.77803e+63)
(-5.83853e+60 -1.76804e+64 7.7522e+63)
(-1.25338e+61 -3.37614e+64 1.53494e+64)
(-4.15802e+58 -1.40315e+61 1.55851e+62)
(-4.05874e+58 -1.31638e+60 1.50382e+62)
(-3.96377e+58 5.6762e+61 1.59542e+62)
(-3.93397e+58 5.01637e+61 1.63213e+62)
(-3.89086e+58 5.87944e+61 1.6581e+62)
(-3.85472e+58 5.05633e+61 1.56294e+62)
(-3.84061e+58 8.0522e+61 1.55575e+62)
(-3.75579e+58 5.04825e+61 1.52234e+62)
(-3.51804e+58 1.67961e+61 1.09626e+62)
(-3.38637e+58 1.36726e+61 8.3978e+61)
(-3.67044e+58 -1.12018e+61 1.06747e+62)
(-2.94612e+58 -1.22804e+62 4.9221e+61)
(-2.89852e+58 -6.86102e+61 -2.13475e+60)
(-5.57189e+58 1.48055e+62 6.38046e+61)
(-5.39752e+58 8.96145e+61 5.76109e+61)
(-4.88105e+58 2.45638e+61 5.48287e+61)
(-4.166e+58 -4.30258e+61 6.75693e+61)
(-3.37825e+58 -1.24275e+62 6.35172e+61)
(-2.84621e+58 -1.70799e+62 2.78486e+61)
(-2.50602e+58 -1.18872e+62 5.23039e+61)
(-2.36232e+58 -1.3795e+62 5.22818e+61)
(-1.95566e+58 -1.77203e+62 7.46484e+61)
(-2.48555e+58 -6.61072e+61 3.45645e+61)
(-4.15625e+58 1.52605e+61 -1.06774e+61)
(-4.27635e+58 1.2382e+61 3.28528e+61)
(-3.84881e+58 -5.74884e+61 5.92416e+61)
(-3.51842e+58 -3.91956e+61 3.90669e+61)
(-2.99287e+58 -8.32603e+60 5.10603e+61)
(-2.57354e+58 -4.97709e+61 6.22098e+61)
(-2.17102e+58 -5.98604e+61 2.42523e+61)
(-3.32749e+58 6.86164e+61 4.76275e+61)
(-3.52416e+58 1.24368e+61 8.53318e+61)
(-3.26496e+58 -3.85906e+61 3.82543e+61)
(-3.00746e+58 8.58766e+61 2.5202e+61)
(-2.99526e+58 1.09475e+62 5.46525e+61)
(-3.06337e+58 6.52871e+61 8.23184e+61)
(-3.06327e+58 8.24025e+61 9.46566e+61)
(-3.06095e+58 3.60016e+61 5.36866e+61)
(-2.95198e+58 7.57525e+61 7.51885e+61)
(-2.52117e+58 -1.16389e+62 -5.40315e+60)
(-2.99836e+58 -4.08878e+61 3.12197e+61)
(-2.68286e+58 -1.49048e+62 -6.38071e+60)
(-3.65069e+58 4.07169e+61 6.03203e+60)
(-3.76964e+58 4.61555e+61 -3.61184e+60)
(-3.57966e+58 -8.91652e+60 -1.3064e+61)
(-2.15272e+58 -7.62846e+61 -4.41483e+60)
(-2.95024e+58 -1.54501e+62 -1.48947e+61)
(-2.59523e+58 -1.60003e+62 -3.28389e+61)
(-1.58271e+58 -1.15112e+62 -1.43332e+61)
(-1.10317e+58 -9.37677e+61 -1.19525e+61)
(-1.0763e+58 -6.9454e+61 -8.57543e+60)
(-1.25233e+58 -7.8292e+60 -1.57534e+61)
(-1.51648e+58 -3.02679e+61 -2.39671e+61)
(-4.63816e+57 -5.54346e+61 -1.65393e+61)
(-2.68659e+57 -1.05379e+62 -1.31672e+61)
(-3.09651e+57 -1.04166e+62 -2.10955e+61)
(-3.3612e+57 -9.2426e+61 -2.5107e+61)
(-3.64489e+57 -7.53082e+61 -1.90845e+61)
(-1.01646e+57 -6.95441e+61 -9.78378e+60)
(4.00154e+54 -8.41662e+61 -5.10617e+60)
(7.75976e+54 -9.75106e+61 -3.34721e+60)
(6.30239e+52 -1.0809e+62 -2.54284e+60)
(-8.71213e+51 -1.1881e+62 -2.8309e+60)
(2.14662e+51 -1.3132e+62 -3.91343e+60)
(8.84823e+50 -1.47499e+62 -5.5902e+60)
(2.47942e+49 -1.68968e+62 -7.76791e+60)
(-2.18385e+50 -1.97699e+62 -1.04322e+61)
(-2.27372e+50 -2.35562e+62 -1.35635e+61)
(-2.19797e+50 -2.84443e+62 -1.71358e+61)
(-1.02457e+51 -3.46121e+62 -2.02947e+61)
(8.12167e+52 -4.18547e+62 -2.225e+61)
(-1.13628e+55 -4.9887e+62 -1.49005e+61)
(6.28172e+57 -5.27424e+62 8.2356e+60)
(3.16086e+58 -4.14183e+62 8.5388e+61)
(-6.67457e+58 -7.46484e+62 2.45238e+62)
(-5.64841e+59 -2.67188e+63 7.91121e+62)
(-2.25623e+60 -8.09435e+63 2.98673e+63)
(-6.51928e+60 -1.92413e+64 8.4293e+63)
(-1.29408e+61 -3.43103e+64 1.49848e+64)
(-4.14463e+58 -1.11486e+61 1.59068e+62)
(-4.0528e+58 5.47436e+60 1.55141e+62)
(-4.00901e+58 6.56568e+61 1.69471e+62)
(-3.98862e+58 6.20521e+61 1.70645e+62)
(-3.9531e+58 6.92449e+61 1.70009e+62)
(-3.92094e+58 6.58145e+61 1.60669e+62)
(-3.9306e+58 9.05139e+61 1.60974e+62)
(-3.89298e+58 6.42993e+61 1.58651e+62)
(-3.76106e+58 3.69386e+61 1.21962e+62)
(-3.62733e+58 2.0387e+61 9.0583e+61)
(-3.8477e+58 1.8072e+61 1.07229e+62)
(-2.99728e+58 -1.03567e+62 3.69964e+61)
(-3.66889e+58 3.62995e+60 -1.49672e+61)
(-5.78429e+58 1.4858e+62 6.3827e+61)
(-5.52111e+58 9.51481e+61 5.63697e+61)
(-4.96554e+58 3.299e+61 5.38567e+61)
(-4.20501e+58 -3.76197e+61 6.87097e+61)
(-3.36753e+58 -1.20313e+62 7.53651e+61)
(-2.79897e+58 -1.69516e+62 4.72704e+61)
(-2.46765e+58 -1.24346e+62 5.64844e+61)
(-2.2684e+58 -1.45178e+62 6.23366e+61)
(-1.98725e+58 -1.64513e+62 7.75064e+61)
(-2.63615e+58 -6.0059e+61 3.45965e+61)
(-4.29363e+58 1.51868e+61 -6.70659e+60)
(-4.23676e+58 2.70487e+60 2.95582e+61)
(-3.79701e+58 -4.94392e+61 5.84575e+61)
(-3.44406e+58 -3.53213e+61 4.23489e+61)
(-2.88772e+58 -1.52756e+61 5.93134e+61)
(-2.52361e+58 -5.03561e+61 6.07755e+61)
(-2.28244e+58 -5.24562e+61 2.87475e+61)
(-3.31498e+58 6.24041e+61 5.11095e+61)
(-3.47565e+58 1.64988e+61 8.18463e+61)
(-3.25322e+58 -2.95357e+61 4.06789e+61)
(-3.01374e+58 9.38371e+61 2.57133e+61)