/*--------------------------------*- C++ -*----------------------------------*\
| =========                 |                                                 |
| \\      /  F ield         | OpenFOAM: The Open Source CFD Toolbox           |
|  \\    /   O peration     | Version:  4.1                                   |
|   \\  /    A nd           | Web:      www.OpenFOAM.org                      |
|    \\/     M anipulation  |                                                 |
\*---------------------------------------------------------------------------*/
FoamFile
{
    version     2.0;
    format      ascii;
    class       volScalarField;
    location    "5";
    object      p;
}
// * * * * * * * * * * * * * * * * * * * * * * * * * * * * * * * * * * * * * //

dimensions      [0 2 -2 0 0 0 0];

internalField   nonuniform List<scalar> 
225
(
2.00763e+10
2.47868e+10
2.88061e+10
2.36596e+10
1.42221e+10
6.06253e+09
1.69256e+09
-3.28991e+08
-2.40545e+09
-5.41802e+09
-8.82545e+09
-9.82559e+09
-5.31011e+09
6.5302e+09
1.42803e+10
1.11373e+11
7.35112e+10
4.09752e+10
2.74088e+10
2.47804e+10
2.35987e+10
2.10788e+10
2.04942e+10
2.14963e+10
2.23863e+10
2.35603e+10
2.33823e+10
2.24993e+10
2.12759e+10
1.92841e+10
5.7226e+10
5.4904e+10
5.44956e+10
5.45632e+10
5.34337e+10
5.18868e+10
5.13326e+10
5.24582e+10
5.3707e+10
5.22643e+10
4.892e+10
4.63752e+10
4.85855e+10
5.38616e+10
5.69188e+10
7.0835e+10
7.07937e+10
6.9308e+10
6.70383e+10
6.44756e+10
6.17214e+10
5.82325e+10
5.49941e+10
5.4292e+10
5.55526e+10
5.73012e+10
5.97682e+10
6.08659e+10
6.09628e+10
6.194e+10
7.91275e+10
7.92304e+10
7.78161e+10
7.62216e+10
7.54761e+10
7.55023e+10
7.42627e+10
7.163e+10
7.07527e+10
7.10946e+10
7.07796e+10
7.07016e+10
7.15317e+10
7.2543e+10
7.37298e+10
8.30469e+10
8.33632e+10
8.19206e+10
8.05219e+10
7.95996e+10
7.93947e+10
8.01186e+10
8.03814e+10
8.04616e+10
7.9861e+10
7.82551e+10
7.61475e+10
7.37418e+10
7.16817e+10
7.12193e+10
8.04153e+10
8.02457e+10
7.94882e+10
7.86791e+10
7.81208e+10
7.65933e+10
7.50533e+10
7.57004e+10
7.76836e+10
7.84447e+10
7.65715e+10
7.4027e+10
7.17628e+10
7.07149e+10
7.07313e+10
7.67281e+10
7.63789e+10
7.51761e+10
7.43201e+10
7.43048e+10
7.39816e+10
7.30999e+10
7.25366e+10
7.24961e+10
7.34488e+10
7.48866e+10
7.57313e+10
7.66534e+10
7.68711e+10
7.80583e+10
7.49297e+10
7.39699e+10
7.40033e+10
7.33673e+10
7.25954e+10
7.21114e+10
7.20324e+10
7.21702e+10
7.20522e+10
7.13742e+10
7.03997e+10
6.91966e+10
6.83959e+10
6.73277e+10
6.70573e+10
7.01833e+10
6.9258e+10
6.95049e+10
7.02655e+10
7.05917e+10
7.03994e+10
7.01264e+10
7.01456e+10
7.03874e+10
7.03985e+10
7.01814e+10
7.01913e+10
7.07458e+10
7.13497e+10
7.08078e+10
6.97959e+10
6.9795e+10
6.97108e+10
6.9405e+10
6.91455e+10
6.89786e+10
6.85519e+10
6.7788e+10
6.70858e+10
6.67332e+10
6.69169e+10
6.71618e+10
6.6715e+10
6.61893e+10
6.55507e+10
6.33911e+10
6.31917e+10
6.29813e+10
6.25496e+10
6.18582e+10
6.10937e+10
6.03839e+10
5.99435e+10
5.98403e+10
5.96961e+10
5.93576e+10
5.89598e+10
5.84257e+10
5.7878e+10
5.75811e+10
5.75126e+10
5.68855e+10
5.67662e+10
5.67595e+10
5.67835e+10
5.67425e+10
5.64472e+10
5.59698e+10
5.53186e+10
5.48262e+10
5.47059e+10
5.44929e+10
5.38892e+10
5.33743e+10
5.27467e+10
5.76228e+10
5.40954e+10
5.01063e+10
4.79656e+10
4.87446e+10
4.97573e+10
4.95879e+10
4.85506e+10
4.74316e+10
4.6712e+10
4.62477e+10
4.561e+10
4.46151e+10
4.36488e+10
4.22795e+10
4.24898e+10
4.31684e+10
2.73657e+10
1.63837e+10
2.11076e+10
2.19399e+10
1.95194e+10
1.85379e+10
1.89037e+10
1.82241e+10
1.59964e+10
1.12997e+10
5.75466e+09
4.85444e+09
1.92074e+09
)
;

boundaryField
{
    inletFace
    {
        type            zeroGradient;
    }
    inlet
    {
        type            zeroGradient;
    }
    inletWalls
    {
        type            zeroGradient;
    }
    outletInlet
    {
        type            fixedValue;
        value           uniform 0;
    }
}


// ************************************************************************* //
