/*--------------------------------*- C++ -*----------------------------------*\
| =========                 |                                                 |
| \\      /  F ield         | OpenFOAM: The Open Source CFD Toolbox           |
|  \\    /   O peration     | Version:  4.1                                   |
|   \\  /    A nd           | Web:      www.OpenFOAM.org                      |
|    \\/     M anipulation  |                                                 |
\*---------------------------------------------------------------------------*/
FoamFile
{
    version     2.0;
    format      ascii;
    class       volVectorField;
    location    "5";
    object      U;
}
// * * * * * * * * * * * * * * * * * * * * * * * * * * * * * * * * * * * * * //

dimensions      [0 1 -1 0 0 0 0];

internalField   nonuniform List<vector> 
225
(
(1.01464e-07 179079 -265061)
(1.6542e-07 131443 -685115)
(2.15607e-07 24900.8 178429)
(2.26097e-07 15571.8 86256.6)
(2.35742e-07 87522.6 44520.6)
(2.46724e-07 152243 1773.1)
(2.54673e-07 194814 -42094.2)
(2.61101e-07 206514 -92453.3)
(2.64353e-07 189351 -111190)
(2.67716e-07 185008 -98985)
(2.67044e-07 176157 -113271)
(2.6516e-07 137414 -107422)
(2.34239e-07 106491 -78732.8)
(1.73455e-07 -9725.62 -222943)
(1.26103e-07 -31247.7 -383728)
(8.60811e-08 -62135.5 651747)
(1.35667e-07 -422342 889254)
(1.47408e-07 -476271 743203)
(1.66044e-07 -471302 652709)
(1.80345e-07 -433693 530230)
(1.9064e-07 -381154 348238)
(1.98189e-07 -396449 -62552.8)
(2.51287e-07 -266288 -726500)
(2.85957e-07 -15722.7 -428126)
(2.78486e-07 -25345.1 -375177)
(2.86029e-07 -11751.4 -346059)
(2.93813e-07 -2167.12 -307706)
(2.98358e-07 28471.5 -347965)
(2.84572e-07 19727.1 -485896)
(2.27183e-07 124.299 -578434)
(8.36924e-08 -55290.8 -179900)
(1.5653e-07 -625312 -393841)
(1.83447e-07 -646249 -305874)
(2.08133e-07 -617719 -171933)
(2.15935e-07 -597215 -140726)
(2.2068e-07 -566338 -252342)
(2.28174e-07 -607995 -604227)
(2.67731e-07 -379978 -753800)
(2.87094e-07 -134775 -227487)
(2.84261e-07 -142925 -101619)
(2.8144e-07 -119706 -110291)
(2.83992e-07 -79127.2 -152125)
(2.86945e-07 -56548.1 -227097)
(2.95006e-07 -43479.7 -297300)
(2.94511e-07 8663.24 -487965)
(3.37329e-08 -46171.1 -558898)
(1.92875e-07 -285887 124162)
(2.26996e-07 -308353 181248)
(2.24723e-07 -290232 126401)
(2.24317e-07 -258493 119712)
(2.28597e-07 -252099 105262)
(2.33863e-07 -242834 122758)
(2.43183e-07 -229861 116585)
(2.51477e-07 -211798 72178.6)
(2.59549e-07 -196654 507.882)
(2.66138e-07 -182925 -60410.4)
(2.72654e-07 -198366 -136383)
(2.78378e-07 -199288 -188658)
(3.01001e-07 -164416 -277126)
(3.05301e-07 -119690 -1.09424e+06)
(7.62845e-08 37950.1 -381678)
(1.88954e-07 -69906.5 -43207.9)
(2.51801e-07 -98593.8 3540.83)
(2.60782e-07 -115298 4628.29)
(2.60678e-07 -124040 5195.63)
(2.63648e-07 -141787 9016.14)
(2.66298e-07 -149766 10103)
(2.68599e-07 -148870 -24421.7)
(2.70446e-07 -142765 -62247.3)
(2.73009e-07 -149092 -109458)
(2.78884e-07 -163148 -82922.7)
(2.81441e-07 -165143 -80721.7)
(2.80858e-07 -143206 -147690)
(2.84568e-07 -122218 -195062)
(3.2148e-07 -41737.4 -270066)
(2.92061e-07 29492.9 -88036.7)
(2.93102e-07 28091.6 -41605.6)
(2.77485e-07 15105.3 -2104.19)
(2.63539e-07 15811 14178.4)
(2.46307e-07 40125.8 -11283)
(2.39909e-07 36564.4 -38335.7)
(2.44704e-07 25410.1 -34682.7)
(2.41335e-07 16193.1 -25890.9)
(2.36076e-07 10851.9 -29053)
(2.32526e-07 12372.3 -51060.6)
(2.31872e-07 -2565.19 -41365.9)
(2.33562e-07 -46428.9 -14398)
(2.43668e-07 -100953 53430.7)
(2.51218e-07 -153846 123833)
(2.33286e-07 -59182.7 41736.7)
(2.89222e-07 44968 59750.3)
(2.79712e-07 39196.1 8676.17)
(2.68185e-07 39771.7 17030.5)
(2.61556e-07 42526 -7913.48)
(2.49593e-07 68328.5 -45957.6)
(2.42901e-07 91139 -97649.1)
(2.40806e-07 106741 -112394)
(2.34491e-07 109537 -127064)
(2.24939e-07 117067 -153849)
(2.17405e-07 141228 -168501)
(2.01534e-07 180176 -198782)
(1.80793e-07 204010 -238959)
(1.74222e-07 197366 -242318)
(1.36525e-07 124476 -150605)
(8.72425e-08 -9724.46 35300.4)
(3.03199e-07 16736.2 79884.5)
(2.64991e-07 12059.8 75177.3)
(2.68338e-07 7456.13 102165)
(2.67439e-07 22942.3 74621.7)
(2.64249e-07 26161.3 32234.4)
(2.6199e-07 30586.1 39895.9)
(2.60086e-07 44267.2 62361.6)
(2.55128e-07 63072.6 69598.9)
(2.47217e-07 42668.6 19032.1)
(2.44029e-07 44738.9 597.04)
(2.45209e-07 16165.3 298732)
(2.31386e-07 95372.3 125314)
(1.91109e-07 198059 -256564)
(1.68278e-07 184534 -259041)
(1.14224e-07 127780 -93314.3)
(3.10305e-07 -20615.2 137214)
(2.87823e-07 -35591.7 152747)
(2.84362e-07 -20286.3 100705)
(2.85163e-07 24773 68148.8)
(2.77298e-07 52266.3 7360.28)
(2.66007e-07 87338.6 -28534)
(2.58779e-07 101105 -49821.5)
(2.51923e-07 111368 -86209.4)
(2.44794e-07 116942 -101927)
(2.35369e-07 119635 -98706.8)
(2.17042e-07 129999 -123308)
(1.98739e-07 159142 -175163)
(1.98634e-07 182149 -278618)
(1.88151e-07 196179 -278153)
(1.53406e-07 141809 -80934.6)
(2.05953e-07 -19398.3 107427)
(3.25615e-07 -65762.7 155954)
(3.36104e-07 -70312.7 118031)
(3.16673e-07 -37833 97094.7)
(3.07722e-07 -23196.2 83016.3)
(3.03529e-07 -9556.89 69283.2)
(3.00693e-07 150.313 51488.5)
(2.95206e-07 9526.61 40393.2)
(3.0638e-07 8747.24 58002.5)
(3.22178e-07 -8023.4 102313)
(2.65157e-07 30181.3 54930.1)
(2.04117e-07 130541 -125999)
(1.94553e-07 184056 -274078)
(1.79715e-07 205142 -278992)
(1.59541e-07 149202 -58927.6)
(2.5479e-07 -53248.8 160239)
(3.35078e-07 -85114.9 178288)
(3.23568e-07 -70792.9 166277)
(3.13963e-07 -59060.3 143386)
(3.06996e-07 -47241.3 114459)
(2.95197e-07 -38756.7 87385.8)
(2.82641e-07 -27385.2 73311.4)
(2.76024e-07 -20121.1 84771.3)
(2.73836e-07 -23886.4 118300)
(2.73443e-07 -46131.6 152993)
(2.18318e-07 66659.9 -59585.7)
(1.96438e-07 149403 -226980)
(1.8966e-07 188416 -333677)
(1.74108e-07 203607 -308799)
(1.53249e-07 134663 -77081)
(2.7081e-07 -72061.4 185569)
(3.20697e-07 -67866.6 179403)
(3.00057e-07 -46838.6 148334)
(2.85221e-07 -15444.4 96572.1)
(2.61914e-07 28636 33934.9)
(2.33031e-07 71441.4 -19034.7)
(2.17082e-07 104209 -49235.4)
(2.13787e-07 117761 -73329.6)
(2.12158e-07 127886 -103067)
(2.06857e-07 140024 -146564)
(2.00757e-07 157303 -203948)
(1.95907e-07 193561 -277269)
(1.93451e-07 226259 -345756)
(1.84041e-07 217194 -304701)
(1.01456e-07 75929.1 -99.6901)
(2.92357e-07 -99048.8 233564)
(3.4635e-07 -77700.7 202854)
(3.11935e-07 -55237.4 152757)
(2.82028e-07 -24475.4 88782)
(2.52426e-07 17990.4 20081.8)
(2.43701e-07 31262.3 4147.74)
(2.48828e-07 29497.7 14015.7)
(2.51847e-07 31856.2 17522.3)
(2.46902e-07 36552.3 31732.1)
(2.35346e-07 55813.3 25247.6)
(2.15356e-07 106873 -66256.7)
(2.07591e-07 160968 -174095)
(2.08741e-07 227864 -303125)
(2.03792e-07 247070 -369859)
(1.81006e-07 192641 -82291.3)
(2.58865e-07 -85575.1 205334)
(3.21778e-07 -96515.7 225279)
(3.28663e-07 -115993 186520)
(3.26605e-07 -120646 152936)
(3.15757e-07 -99716.7 148804)
(3.1081e-07 -73755.5 147873)
(3.08551e-07 -82178 158583)
(2.97083e-07 -107602 199818)
(2.87833e-07 -216064 326564)
(2.35977e-07 -51218 60391.9)
(2.21094e-07 105842 -177760)
(2.1565e-07 159767 -272820)
(2.10351e-07 213277 -356990)
(1.93499e-07 227205 -380918)
(1.78501e-07 203359 -59735.9)
(2.75761e-07 -189030 388962)
(2.91238e-07 -95375 294236)
(2.81916e-07 3023.17 252635)
(2.72704e-07 39775.8 193813)
(2.58186e-07 72142.8 129937)
(2.44249e-07 113303 74402.2)
(2.38615e-07 145750 27347.1)
(2.3873e-07 171629 -30424.9)
(2.37838e-07 184968 -124904)
(2.33564e-07 208838 -214695)
(2.25421e-07 247622 -314021)
(2.12675e-07 311435 -417454)
(1.98592e-07 322076 -488955)
(1.68186e-07 246233 -410261)
(7.27259e-08 108606 -61088.9)
)
;

boundaryField
{
    inletFace
    {
        type            zeroGradient;
    }
    inlet
    {
        type            fixedValue;
        value           uniform (0 8.7 15);
    }
    inletWalls
    {
        type            noSlip;
    }
    outletInlet
    {
        type            zeroGradient;
    }
}


// ************************************************************************* //
