/*--------------------------------*- C++ -*----------------------------------*\
| =========                 |                                                 |
| \\      /  F ield         | OpenFOAM: The Open Source CFD Toolbox           |
|  \\    /   O peration     | Version:  4.1                                   |
|   \\  /    A nd           | Web:      www.OpenFOAM.org                      |
|    \\/     M anipulation  |                                                 |
\*---------------------------------------------------------------------------*/
FoamFile
{
    version     2.0;
    format      ascii;
    class       volScalarField;
    location    "18";
    object      p;
}
// * * * * * * * * * * * * * * * * * * * * * * * * * * * * * * * * * * * * * //

dimensions      [0 2 -2 0 0 0 0];

internalField   nonuniform List<scalar> 
6785
(
594.772
516.474
469.625
416.322
369.646
324.632
282.665
242.888
205.257
169.666
135.41
102.311
74.7838
46.5228
4.96845
-13.3797
-31.7537
-21.8977
-29.3528
-28.8253
-31.4547
-32.1955
-32.791
-32.3676
-30.9991
-28.6616
-25.4028
-20.2534
-15.4244
-13.7749
-10.8269
-16.3005
-8.15969
-13.8997
-11.3358
-13.8067
-14.3544
-16.2036
-17.8675
-19.943
-22.0777
-23.912
-24.514
-24.6595
-23.5996
-5.24586
-8.48736
-5.67467
-11.1651
-9.81206
-13.3219
-14.1088
-16.1053
-17.3897
-18.7109
-19.5811
-20.0149
-18.7942
-17.3866
-14.624
1.8489
1.02686
4.79256
2.71956
6.68248
6.35231
8.82673
10.1804
12.1621
14.1124
16.2841
18.3679
20.8174
22.463
25.0142
27.3533
28
31.3358
30.299
33.7411
33.7074
35.8427
36.8865
38.33
39.6503
40.983
42.1875
43.5714
44.5656
45.9846
46.2191
47.231
49.4227
48.8054
51.2966
51.1554
52.8127
53.0915
53.6443
53.5233
53.2965
53.3041
53.7782
54.3823
55.0223
56.5318
56.3371
57.5143
56.2133
57.5125
56.3146
56.6682
55.663
55.1032
54.2009
53.5353
52.9908
52.4741
52.4772
51.5542
51.3531
48.0298
48.4654
45.8246
45.9583
43.9535
43.5099
41.8393
40.5249
38.3844
36.0642
33.7486
32.549
31.789
28.3179
8.03119
2.60082
1.20502
-2.89681
-5.09312
-9.11723
-11.974
-15.5012
-18.0333
-20.2883
-21.5386
-21.8369
-21.8821
-22.6192
-23.5043
-24.6827
-27.7055
-28.1195
-30.5828
-31.2237
-33.246
-34.0365
-35.0447
-35.0843
-34.7898
-34.0546
-33.2059
-32.2841
-31.5097
-29.5213
-14.7983
-13.6971
-12.3898
-12.2459
-10.9117
-10.4628
-9.43588
-8.74284
-7.90874
-7.18837
-6.41071
-5.76897
-4.65927
-3.65139
-0.99423
14.3497
16.0185
17.0159
17.5125
18.5346
18.9247
19.6257
20.1724
20.8178
21.4814
22.2783
23.074
24.1403
25.0071
26.2553
24.2149
26.9392
26.7873
26.4689
26.4546
26.544
27.0234
27.4372
27.9741
28.4498
28.8945
29.2002
29.4869
29.6069
29.7134
71.7311
70.252
64.9661
57.2476
51.0919
46.3964
41.4346
37.3263
34.1004
31.1853
28.6615
26.687
24.8454
23.597
21.3836
41.8004
42.0811
42.2242
42.2153
42.2754
42.5208
42.8865
42.7874
42.7384
42.7037
43.0212
42.7086
42.6488
42.8289
42.3681
42.2366
42.2846
42.4237
41.6257
41.8924
41.9897
41.2148
41.0887
41.4966
41.5673
40.7266
40.6469
41.1235
41.4099
40.3688
41.0466
41.3936
40.5809
40.5604
41.1253
41.5858
40.7193
41.3022
41.7953
41.1978
41.1904
41.6847
42.0275
41.5764
41.5674
41.9848
42.0833
41.6282
42.0171
41.9737
41.7399
41.7348
42.0079
42.1915
42.0868
42.0745
42.2197
42.7075
42.6269
42.7569
42.7776
42.7749
42.7933
42.69
43.0988
43.3718
44.1272
43.0426
41.612
43.0975
44.8166
36.8223
33.0462
37.0661
41.6709
14.6929
25.7656
33.9624
-16.1083
-2.02276
4.99992
2.18408
6.48069
0.103838
1.48819
5.99671
5.92571
6.53905
7.01048
7.6203
8.06092
11.2653
13.5164
7.44649
9.28319
10.7323
12.6444
13.0938
13.9044
13.8732
15.8664
22.1661
15.2978
16.9147
16.4791
17.3972
19.2885
20.1795
19.9964
19.764
19.0801
26.7672
22.4208
22.7955
22.3005
21.5668
22.143
23.5706
22.9716
19.4781
24.3803
25.6321
27.0018
27.0555
25.8821
24.9529
23.8805
25.3571
21.9824
24.5603
32.82
29.9547
30.7281
30.7645
28.878
27.3651
25.8136
19.5783
26.18
33.2102
27.3571
24.8866
21.0678
18.2336
15.4243
13.3229
11.2362
6.8676
1.85692
13.1492
8.38621
7.87766
6.29029
4.09841
-2.16984
-3.99001
-1.26339
-14.3382
2.51303
-0.502854
-1.78828
5.19567
-1.05118
2.46944
1.2704
3.61865
6.60951
2.17957
4.96785
6.75464
3.89772
5.25541
4.52488
5.57724
7.1573
4.76168
5.78795
5.11738
5.94469
7.06229
4.88388
6.05396
6.75373
5.26374
5.83266
5.38579
5.82557
6.51745
5.23407
5.68577
5.2865
5.6441
6.1448
4.95762
5.50573
5.79795
4.95761
5.19728
4.91445
5.07784
5.36357
4.62315
4.78507
4.52771
4.63036
4.80651
4.12226
4.31811
4.37851
3.87824
3.92749
3.74497
3.7489
3.80005
3.37457
3.39357
3.2301
3.21846
3.21623
2.83839
2.86973
2.819
2.55088
2.52777
2.4127
2.39304
2.34311
2.06039
2.01343
1.868
1.86353
1.85748
1.58477
1.47079
1.47648
1.07802
0.881424
0.751747
0.42513
0.267283
0.00172068
0.00272199
0.00413079
0.00506342
0.00603146
0.00684972
0.00761711
0.00832534
0.00899144
0.00963956
0.0102793
0.0109343
0.0116138
0.0123321
0.0130922
0.0138956
0.0147381
0.0156245
0.0165849
0.0177012
0.0191106
0.0209629
0.0233174
0.0260837
0.0291379
0.0323556
0.0355296
0.0384766
0.0409609
0.04273
0.0435681
0.0433678
0.0422916
0.0409156
0.0402578
0.0415013
0.045387
0.0515325
0.0580937
0.0623044
0.0616563
0.0549438
0.0425035
0.0255596
0.00534494
-0.0169616
-0.039458
-0.0625291
-0.0980085
-0.161746
-0.13961
-0.76922
-0.800207
-0.831499
-1.00447
-1.13861
-1.26392
-1.36433
-1.34793
-1.22395
-1.01118
-0.753446
-0.501079
-0.267848
-0.0587143
0.115369
0.248386
0.341011
0.401701
0.422773
0.432712
0.398616
0.374862
0.319839
0.246862
0.260429
0.118407
0.0860297
0.243251
0.0046807
0.00713739
0.0109025
0.0133954
0.0158616
0.0179479
0.0198299
0.0215511
0.0231271
0.0246493
0.0261357
0.0276604
0.0292473
0.0309385
0.0327416
0.0346603
0.0366817
0.0388161
0.0411459
0.0438997
0.0474641
0.0522592
0.058438
0.0657165
0.0737332
0.0821438
0.0903782
0.0979595
0.104285
0.108724
0.110721
0.10982
0.105793
0.098663
0.0887126
0.0764361
0.0625361
0.047976
0.0337436
0.0206741
0.00918783
-0.00101769
-0.0110531
-0.0226494
-0.0376542
-0.0577502
-0.0857819
-0.127465
-0.173977
-0.212433
-0.247615
-1.0565
-1.23371
-1.311
-1.58897
-1.8025
-1.99795
-2.14137
-2.1398
-1.98483
-1.69083
-1.31763
-0.899606
-0.491255
-0.107716
0.223579
0.481674
0.668801
0.784138
0.830471
0.834733
0.776255
0.717324
0.621666
0.514482
0.516175
0.330648
0.276255
0.797145
0.00732171
0.0116811
0.0181929
0.0225176
0.026825
0.0304728
0.0337876
0.0368253
0.0396227
0.0423273
0.0449731
0.0476831
0.0504989
0.053491
0.056673
0.060051
0.0636023
0.067343
0.0714103
0.0761906
0.0823407
0.090579
0.101169
0.113634
0.127369
0.141791
0.155938
0.168998
0.179939
0.18769
0.191332
0.190226
0.184336
0.174357
0.16166
0.147875
0.1343
0.121471
0.10875
0.0947071
0.0777417
0.0564481
0.0296771
-0.00373276
-0.045071
-0.0956955
-0.158161
-0.239283
-0.335395
-0.470182
-0.674282
-1.02416
-1.42901
-1.50367
-1.83191
-2.08569
-2.31849
-2.48819
-2.49919
-2.33252
-2.00254
-1.57513
-1.07948
-0.588546
-0.121316
0.285142
0.603335
0.836242
0.97907
1.03848
1.04366
0.971558
0.902337
0.77457
0.682446
0.64954
0.529744
0.476284
1.06632
0.00974396
0.0158854
0.0249423
0.031019
0.0370225
0.0421225
0.046738
0.0509684
0.0548551
0.0586106
0.0622804
0.066038
0.0699416
0.0740901
0.0785024
0.0831861
0.0881071
0.0932829
0.0988993
0.105495
0.113996
0.125423
0.140145
0.157476
0.176574
0.196622
0.216287
0.234446
0.249664
0.260449
0.2655
0.263898
0.255558
0.241395
0.223193
0.202919
0.181922
0.160633
0.138453
0.114469
0.087852
0.0575944
0.0221697
-0.0206736
-0.0736393
-0.139715
-0.223717
-0.33419
-0.464066
-0.660317
-1.05684
-0.938742
-1.79324
-1.82747
-2.21615
-2.53098
-2.81789
-3.02871
-3.05069
-2.85408
-2.45728
-1.93789
-1.32904
-0.72365
-0.144904
0.359401
0.754737
1.045
1.22334
1.29873
1.30743
1.21781
1.13756
0.970982
0.881477
0.824947
0.732279
0.675858
1.33901
0.0119247
0.0200033
0.0316296
0.0395383
0.0472992
0.0539193
0.0598974
0.0653824
0.0704181
0.0752833
0.0800354
0.084899
0.0899495
0.095315
0.10102
0.107073
0.113426
0.120093
0.127304
0.135749
0.146638
0.161317
0.180271
0.202585
0.227186
0.253019
0.278375
0.301822
0.321501
0.335457
0.341943
0.339712
0.328677
0.310209
0.286929
0.261635
0.236108
0.210724
0.184433
0.155683
0.122889
0.084255
0.0375764
-0.0199643
-0.0916224
-0.181107
-0.294115
-0.439781
-0.615508
-0.888631
-1.36813
-0.810859
-2.22614
-2.18529
-2.62128
-3.00347
-3.3496
-3.60417
-3.64096
-3.41386
-2.94762
-2.33186
-1.6004
-0.87065
-0.170031
0.44142
0.921171
1.27431
1.49082
1.58359
1.59471
1.48651
1.39276
1.18742
1.09253
1.01543
0.92396
0.871651
1.48382
0.0139079
0.0239629
0.0380574
0.0478057
0.0572839
0.0654105
0.0727218
0.0794375
0.0855929
0.091539
0.0973424
0.103281
0.109446
0.115996
0.122962
0.130351
0.138098
0.146206
0.154942
0.165147
0.178324
0.196175
0.219298
0.246529
0.276567
0.308115
0.339096
0.367777
0.391854
0.40887
0.416556
0.41328
0.398964
0.375513
0.346414
0.315163
0.283721
0.252298
0.219598
0.183962
0.143701
0.0967144
0.0402102
-0.0294955
-0.116721
-0.226497
-0.365959
-0.544694
-0.764226
-1.09545
-1.56408
-0.785376
-2.70119
-2.55025
-2.99911
-3.44542
-3.84997
-4.14659
-4.19984
-3.94291
-3.41077
-2.70288
-1.85338
-1.00495
-0.18764
0.525659
1.08536
1.4979
1.75007
1.85913
1.87245
1.74616
1.64036
1.39718
1.29901
1.19739
1.10704
1.0679
1.73372
0.0157022
0.0278371
0.0443349
0.0559642
0.0671575
0.0768123
0.0854645
0.0934235
0.100706
0.107741
0.114602
0.121622
0.128909
0.136653
0.144889
0.153624
0.16277
0.172315
0.18255
0.194464
0.209874
0.230873
0.258182
0.290354
0.325868
0.363179
0.399843
0.433819
0.462309
0.482271
0.490825
0.485939
0.467686
0.43874
0.403663
0.366711
0.330017
0.293662
0.256083
0.215276
0.169008
0.114456
0.0480293
-0.0348114
-0.139301
-0.271592
-0.439871
-0.654023
-0.921528
-1.30645
-1.74172
-1.00527
-3.20556
-2.95915
-3.38047
-3.89158
-4.35738
-4.6976
-4.76906
-4.47969
-3.87919
-3.07561
-2.10508
-1.13645
-0.201315
0.613814
1.25306
1.72434
2.01159
2.13666
2.15242
2.00792
1.89087
1.60944
1.50758
1.37906
1.28475
1.2571
1.8349
0.0173274
0.0316243
0.0504301
0.0639666
0.076849
0.0880361
0.0980166
0.107213
0.115611
0.123724
0.13163
0.139719
0.148116
0.157042
0.166539
0.176611
0.187144
0.198096
0.209774
0.223314
0.240864
0.264956
0.296441
0.333548
0.374545
0.417628
0.459984
0.49924
0.532024
0.554607
0.563426
0.556143
0.533215
0.498339
0.457208
0.414661
0.37278
0.331446
0.288859
0.242743
0.190416
0.128432
0.0524276
-0.0430543
-0.16431
-0.318788
-0.515849
-0.765906
-1.08192
-1.51345
-1.93831
-1.52314
-3.69555
-3.41677
-3.76911
-4.34589
-4.87677
-5.2632
-5.35565
-5.03106
-4.35933
-3.45571
-2.35957
-1.26742
-0.211536
0.706995
1.4266
1.95687
2.27902
2.42007
2.43815
2.27521
2.14695
1.82694
1.71984
1.56274
1.45882
1.44272
1.98191
0.0187961
0.0353542
0.0563756
0.0718524
0.0864024
0.0991321
0.110434
0.120867
0.130375
0.139561
0.148506
0.157658
0.16716
0.177265
0.188022
0.199431
0.211346
0.223686
0.236756
0.251833
0.271429
0.298567
0.334238
0.376298
0.422813
0.471704
0.51977
0.564248
0.601072
0.625715
0.633956
0.623372
0.595148
0.554235
0.507389
0.459767
0.413247
0.367547
0.320669
0.270015
0.212323
0.143392
0.0579912
-0.0502998
-0.188845
-0.366354
-0.593282
-0.880817
-1.24654
-1.72249
-2.18295
-2.30161
-4.09814
-3.91328
-4.16054
-4.80369
-5.40318
-5.83757
-5.95416
-5.59143
-4.84605
-3.83854
-2.61301
-1.39507
-0.216615
0.805713
1.60548
2.19415
2.55039
2.70712
2.72725
2.54583
2.40643
2.04764
1.93484
1.75025
1.63089
1.63229
2.20951
0.0201208
0.0390375
0.062173
0.0796204
0.0958087
0.110087
0.122697
0.134362
0.144968
0.155217
0.165189
0.175393
0.185991
0.197268
0.20928
0.222023
0.235311
0.249013
0.263412
0.279924
0.301449
0.331578
0.371447
0.418475
0.470545
0.525263
0.578998
0.628491
0.668829
0.694649
0.701235
0.686461
0.652627
0.606008
0.554112
0.502049
0.451364
0.401682
0.350857
0.295979
0.233195
0.157545
0.0629189
-0.0580991
-0.213992
-0.414772
-0.672029
-0.997954
-1.41304
-1.93237
-2.47205
-3.20102
-4.30546
-4.43946
-4.55321
-5.26698
-5.93966
-6.42366
-6.56782
-6.16331
-5.34114
-4.22485
-2.8655
-1.51906
-0.215965
0.910537
1.79015
2.4365
2.82588
2.99795
3.01982
2.81994
2.66942
2.27157
2.15298
1.94422
1.80544
1.82787
2.40954
0.0213116
0.0426908
0.0678374
0.0872868
0.105083
0.120916
0.13482
0.147713
0.159405
0.170706
0.181694
0.19294
0.204623
0.217065
0.230329
0.244405
0.259063
0.274101
0.289765
0.307593
0.330919
0.36398
0.408068
0.460091
0.517759
0.578295
0.637549
0.691606
0.734588
0.760387
0.764152
0.744572
0.705355
0.65387
0.597866
0.542096
0.48778
0.434601
0.380325
0.321717
0.254279
0.17224
0.0685569
-0.0652155
-0.238701
-0.463191
-0.751385
-1.11655
-1.58029
-2.14356
-2.78025
-3.99236
-4.28264
-4.99842
-4.95241
-5.737
-6.48901
-7.02514
-7.20175
-6.75022
-5.84738
-4.61633
-3.11789
-1.63949
-0.209199
1.02211
1.98136
2.68461
3.10612
3.29316
3.31638
3.09809
2.93632
2.49903
2.37458
2.14359
1.98651
2.02727
2.57059
0.0223776
0.0463254
0.0733768
0.0948592
0.114228
0.13162
0.146803
0.160915
0.17368
0.18602
0.198009
0.210283
0.223041
0.236639
0.251152
0.266562
0.282585
0.298935
0.315789
0.334802
0.359777
0.395708
0.444047
0.501094
0.564385
0.630641
0.695046
0.752853
0.797212
0.821561
0.821488
0.797049
0.753341
0.698231
0.639157
0.580363
0.522875
0.466599
0.409264
0.347307
0.275542
0.187364
0.074773
-0.0717334
-0.262934
-0.511373
-0.830813
-1.23552
-1.74653
-2.35412
-3.07639
-4.50831
-4.18178
-5.58913
-5.3682
-6.21607
-7.06001
-7.64705
-7.85975
-7.35449
-6.36637
-5.01359
-3.37009
-1.75588
-0.195642
1.14103
2.17959
2.93881
3.39119
3.5928
3.61684
3.38026
3.20694
2.72982
2.59957
2.34729
2.17324
2.22836
2.75606
0.023326
0.049953
0.0788016
0.102348
0.123254
0.142208
0.158651
0.173973
0.187794
0.20116
0.214134
0.227423
0.241242
0.255989
0.271747
0.288492
0.30588
0.323517
0.341483
0.36153
0.387985
0.426721
0.479351
0.541444
0.610335
0.682039
0.750883
0.811184
0.855297
0.876756
0.872344
0.843804
0.797097
0.73979
0.678628
0.617395
0.557131
0.498141
0.438154
0.37326
0.297532
0.203498
0.0821595
-0.0770614
-0.286098
-0.558676
-0.9095
-1.35362
-1.9103
-2.56267
-3.34916
-4.7935
-4.21899
-6.17528
-5.81033
-6.70282
-7.66262
-8.29829
-8.54572
-7.9789
-6.90006
-5.41743
-3.62239
-1.86797
-0.17456
1.26819
2.38541
3.19931
3.68121
3.89683
3.92107
3.66641
3.48113
2.96377
2.82783
2.55499
2.36466
2.43216
2.96043
0.0241631
0.0535833
0.08412
0.109762
0.132165
0.152683
0.170365
0.186888
0.201747
0.216122
0.230064
0.244351
0.259218
0.275103
0.292104
0.310187
0.328942
0.347845
0.366839
0.387752
0.415491
0.456962
0.513931
0.581063
0.655405
0.731979
0.804095
0.865188
0.907235
0.924726
0.916356
0.885295
0.837422
0.779297
0.71686
0.653639
0.590915
0.529556
0.467298
0.399858
0.320515
0.220895
0.0909722
-0.0809238
-0.307855
-0.604616
-0.986664
-1.4695
-2.0701
-2.76781
-3.60237
-4.98944
-4.59595
-6.69805
-6.2845
-7.19073
-8.29903
-8.98684
-9.26526
-8.62678
-7.45092
-5.82907
-3.87539
-1.97562
-0.145237
1.40461
2.59988
3.4666
3.97619
4.20531
4.22903
3.95655
3.75876
3.20074
3.05914
2.76652
2.56014
2.64148
3.1717
0.0248937
0.0572257
0.0893405
0.117109
0.140969
0.163052
0.181951
0.199661
0.215539
0.230905
0.245795
0.261063
0.276963
0.293975
0.312215
0.331643
0.35177
0.371919
0.391853
0.413442
0.442246
0.486377
0.547725
0.619808
0.699212
0.779644
0.853374
0.913194
0.951493
0.964799
0.953893
0.922445
0.87525
0.817467
0.754366
0.689481
0.624555
0.561154
0.497016
0.427448
0.34486
0.239944
0.101606
-0.0829207
-0.327772
-0.648643
-1.06148
-1.58191
-2.2246
-2.96796
-3.84247
-5.18391
-5.35036
-7.05777
-6.78757
-7.67378
-8.96872
-9.71982
-10.0259
-9.30195
-8.0216
-6.24996
-4.12943
-2.07832
-0.106885
1.55111
2.82399
3.74156
4.27636
4.5182
4.54058
4.25063
4.03962
3.44054
3.2932
2.98099
2.75961
2.85213
3.39054
0.0255216
0.0608885
0.0944704
0.124398
0.14967
0.173317
0.193411
0.212294
0.229168
0.245506
0.261323
0.277553
0.294467
0.312595
0.332072
0.352853
0.374364
0.395744
0.416525
0.438579
0.468195
0.514898
0.580629
0.657396
0.741094
0.823872
0.897095
0.953454
0.987033
0.997145
0.985935
0.956367
0.911458
0.854896
0.791543
0.725207
0.658289
0.593169
0.52756
0.456302
0.370855
0.260936
0.114335
-0.0827941
-0.345566
-0.690347
-1.13327
-1.68984
-2.37281
-3.16181
-4.07609
-5.40861
-6.25793
-7.08583
-7.31386
-8.14938
-9.6688
-10.5037
-10.8365
-10.0094
-8.61504
-6.68148
-4.38474
-2.17553
-0.0586648
1.70848
3.05835
4.02482
4.58212
4.83533
4.85552
4.54855
4.32345
3.6829
3.52961
3.19715
2.96379
3.06078
3.60114
0.0260496
0.0645801
0.0995167
0.131636
0.158275
0.183485
0.204746
0.224787
0.242634
0.259921
0.276642
0.293813
0.311724
0.330954
0.351665
0.37381
0.396721
0.419325
0.440858
0.463138
0.493276
0.542434
0.612447
0.69332
0.780077
0.863193
0.93343
0.984564
1.01373
1.02275
1.01378
0.988138
0.946778
0.892034
0.828672
0.76101
0.692283
0.625779
0.559143
0.486674
0.398775
0.284131
0.129374
-0.080386
-0.361087
-0.729495
-1.20166
-1.79279
-2.51436
-3.34884
-4.30696
-5.64315
-6.93384
-6.86242
-7.88412
-8.62577
-10.3937
-11.3439
-11.7056
-10.7554
-9.23475
-7.12498
-4.64159
-2.26672
0.000297412
1.87762
3.30364
4.31684
4.89392
5.15681
5.17365
4.85016
4.60996
3.9275
3.76788
3.4144
3.17158
3.27337
3.80056
0.0264792
0.068308
0.104486
0.138829
0.166789
0.193559
0.215961
0.237142
0.255936
0.274148
0.291749
0.309836
0.328724
0.349042
0.370985
0.394507
0.418843
0.442672
0.46486
0.487098
0.517411
0.568834
0.642808
0.726788
0.814908
0.895859
0.960668
1.00602
1.0325
1.04307
1.03872
1.01866
0.981757
0.929188
0.865924
0.796992
0.72662
0.659095
0.591924
0.51876
0.428816
0.309671
0.146759
-0.0757679
-0.374457
-0.766183
-1.26671
-1.89095
-2.64977
-3.52953
-4.53574
-5.86931
-7.27065
-6.76208
-8.49174
-9.1282
-11.1373
-12.2446
-12.6413
-11.5472
-9.88515
-7.582
-4.9003
-2.35137
0.0709335
2.05943
3.56055
4.61795
5.21216
5.48283
5.49459
5.1553
4.89879
4.17402
4.0074
3.63241
3.3808
3.49142
4.02264
0.0268112
0.07208
0.109383
0.145984
0.175217
0.203543
0.227057
0.249358
0.269072
0.288183
0.306636
0.325617
0.345458
0.366848
0.390019
0.414938
0.44073
0.465795
0.488544
0.510431
0.540491
0.593828
0.671094
0.756772
0.844072
0.919985
0.977823
1.01851
1.04493
1.05965
1.06184
1.04859
1.01677
0.966543
0.903373
0.833167
0.761314
0.693168
0.626009
0.552698
0.461078
0.337537
0.166291
-0.0693094
-0.386146
-0.800932
-1.32905
-1.98521
-2.78036
-3.70544
-4.76373
-6.09933
-7.51381
-7.17667
-9.01032
-9.67827
-11.8943
-13.2082
-13.6506
-12.3921
-10.5717
-8.05447
-5.16133
-2.42889
0.154232
2.25488
3.8298
4.92847
5.53687
5.81335
5.81816
5.46374
5.18958
4.42209
4.24747
3.85014
3.5911
3.7055
4.25425
0.0270451
0.0759036
0.114214
0.153109
0.183563
0.213441
0.238035
0.261436
0.282041
0.302023
0.3213
0.341146
0.361916
0.38436
0.408757
0.435094
0.462385
0.488712
0.511926
0.533097
0.562329
0.616939
0.696475
0.782079
0.865742
0.934083
0.985219
1.02371
1.0528
1.07376
1.08395
1.07842
1.05207
1.00419
0.941013
0.869476
0.796308
0.727986
0.661443
0.588531
0.4955
0.367457
0.187432
-0.0617742
-0.39706
-0.83475
-1.38984
-2.07706
-2.90806
-3.87872
-4.99234
-6.34626
-7.80349
-8.11012
-9.19411
-10.2735
-12.6597
-14.2364
-14.74
-13.2967
-11.3006
-8.54492
-5.42521
-2.49867
0.251239
2.46497
4.11212
5.2487
5.86797
6.14839
6.14463
5.77527
5.48195
4.67135
4.48729
4.06643
3.80324
3.92093
4.46908
0.0271794
0.0797864
0.118983
0.160208
0.191832
0.223255
0.248898
0.273375
0.29484
0.315663
0.335733
0.356416
0.378089
0.401566
0.427185
0.454965
0.483811
0.511441
0.535023
0.555016
0.582585
0.637469
0.718067
0.801206
0.878034
0.937878
0.984464
1.02364
1.05765
1.08639
1.10561
1.10844
1.08779
1.04213
0.978777
0.905792
0.831483
0.763481
0.698199
0.626178
0.531799
0.398819
0.209227
-0.0543746
-0.40855
-0.869052
-1.45058
-2.16824
-3.03498
-4.0516
-5.22268
-6.61361
-8.13518
-8.99444
-8.97649
-10.9506
-13.4397
-15.3308
-15.9149
-14.267
-12.0782
-9.05652
-5.69267
-2.56013
0.363056
2.69074
4.40823
5.57887
6.20532
6.48783
6.47384
6.08961
5.77549
4.92142
4.72601
4.28027
4.01479
4.13969
4.71489
0.0272118
0.0837364
0.123695
0.167287
0.200027
0.232989
0.259648
0.285176
0.307467
0.329099
0.349929
0.371419
0.393965
0.418451
0.445288
0.474543
0.50501
0.534002
0.557836
0.576006
0.600693
0.654696
0.734902
0.812183
0.879889
0.932684
0.977793
1.02009
1.0606
1.09819
1.12719
1.13887
1.12404
1.08037
1.01655
0.941941
0.866675
0.799536
0.736169
0.665382
0.569379
0.43059
0.23025
-0.0487676
-0.422311
-0.905438
-1.5128
-2.2604
-3.163
-4.22609
-5.45596
-6.8974
-8.4695
-9.46775
-8.8019
-11.772
-14.2763
-16.4961
-17.1805
-15.3084
-12.9108
-9.59303
-5.96472
-2.61262
0.490848
2.93329
4.7189
5.91921
6.54875
6.83143
6.80546
6.40652
6.06978
5.17193
4.9627
4.49057
4.22376
4.34883
4.94401
0.0271386
0.0877619
0.128352
0.174352
0.208152
0.242645
0.270284
0.296837
0.31992
0.342326
0.363882
0.386145
0.409533
0.435002
0.463049
0.493815
0.525985
0.556403
0.580308
0.595675
0.615974
0.668095
0.745444
0.813152
0.871973
0.92086
0.967299
1.0144
1.06243
1.10956
1.14894
1.16989
1.16091
1.11885
1.05421
0.977707
0.901686
0.835995
0.775146
0.705651
0.607257
0.461257
0.248615
-0.046923
-0.440109
-0.945363
-1.57775
-2.35475
-3.29343
-4.40368
-5.69382
-7.19568
-8.81717
-9.84456
-9.1953
-12.6107
-15.2215
-17.7389
-18.5422
-16.4257
-13.8044
-10.1585
-6.24287
-2.65553
0.635842
3.19375
5.04488
6.26987
6.89799
7.1789
7.13968
6.726
6.36445
5.42252
5.19638
4.69616
4.42982
4.5478
5.1744
0.0269551
0.0918714
0.132959
0.181408
0.21621
0.252225
0.280809
0.308358
0.332195
0.355338
0.377584
0.400585
0.424781
0.451203
0.480452
0.512767
0.546727
0.578623
0.602227
0.613371
0.628064
0.676961
0.747473
0.803658
0.856543
0.904826
0.954541
1.00744
1.06359
1.12079
1.17106
1.20167
1.19849
1.15756
1.09159
1.01286
0.93631
0.872673
0.814793
0.746189
0.643994
0.488815
0.2621
-0.0508177
-0.4634
-0.98981
-1.64615
-2.45191
-3.42687
-4.58522
-5.93779
-7.50855
-9.19655
-10.3563
-10.3801
-13.2103
-16.2767
-19.0672
-20.0074
-17.6232
-14.7647
-10.7571
-6.52912
-2.68823
0.799328
3.47331
5.38696
6.63095
7.25271
7.52978
7.47636
7.04805
6.65916
5.67287
5.42611
4.8961
4.6296
4.72434
5.39677
0.0266553
0.0960745
0.137517
0.188461
0.224205
0.261731
0.291222
0.319737
0.344289
0.368131
0.391027
0.41473
0.439696
0.467036
0.497475
0.531378
0.567212
0.600535
0.623052
0.628499
0.637039
0.67948
0.739293
0.785384
0.836372
0.886419
0.940521
0.999724
1.06439
1.13207
1.19375
1.23443
1.23694
1.19647
1.12855
1.04715
0.970356
0.909365
0.854605
0.78582
0.67764
0.510859
0.268477
-0.061997
-0.492988
-1.03908
-1.71803
-2.55172
-3.56306
-4.77067
-6.18866
-7.83594
-9.61256
-10.9943
-11.7687
-13.3717
-17.4447
-20.4933
-21.5849
-18.9055
-15.7969
-11.3931
-6.82548
-2.71013
0.98266
3.7732
5.74593
7.00246
7.61249
7.88359
7.81496
7.37261
6.95355
5.92266
5.651
5.09017
4.82073
4.86844
5.56909
0.0262317
0.100381
0.142029
0.195514
0.232137
0.271166
0.301524
0.330972
0.356199
0.380697
0.404203
0.428569
0.454265
0.482483
0.514092
0.549612
0.587357
0.621746
0.641912
0.641032
0.642222
0.672707
0.721103
0.76129
0.813681
0.866788
0.925832
0.99157
1.06502
1.14362
1.21729
1.26847
1.27649
1.23561
1.16497
1.08038
1.00367
0.945834
0.893845
0.822897
0.705739
0.524879
0.266011
-0.0811632
-0.528808
-1.09268
-1.79262
-2.65321
-3.70081
-4.959
-6.44617
-8.17811
-10.0633
-11.6883
-12.835
-13.4131
-18.8075
-22.0465
-23.2842
-20.2778
-16.9056
-12.0703
-7.13372
-2.72089
1.18725
4.09471
6.1226
7.38436
7.97681
8.23973
8.15487
7.69961
7.24708
6.17155
5.87029
5.27865
5.00158
4.97636
5.70977
0.0256754
0.104802
0.146496
0.202572
0.24001
0.280529
0.311715
0.342062
0.36792
0.393031
0.417105
0.442093
0.468475
0.497522
0.530267
0.567402
0.606918
0.641394
0.658171
0.651343
0.641661
0.656073
0.695729
0.733925
0.789875
0.846602
0.910796
0.983181
1.06568
1.15569
1.24199
1.30418
1.31744
1.27507
1.20075
1.11235
1.03617
0.981807
0.931457
0.855177
0.725519
0.52882
0.253974
-0.10796
-0.569893
-1.14931
-1.86834
-2.7545
-3.83805
-5.14821
-6.70898
-8.53526
-10.5483
-12.4161
-13.7094
-13.7652
-20.3629
-23.7715
-25.1111
-21.7454
-18.0948
-12.7925
-7.45555
-2.72051
1.41456
4.43916
6.51779
7.7765
8.34506
8.59754
8.4955
8.02903
7.53948
6.41912
6.08338
5.46284
5.17158
5.04787
5.82367
0.0249754
0.109351
0.150918
0.20964
0.247825
0.289822
0.321794
0.353004
0.379448
0.405125
0.429724
0.455291
0.48231
0.512126
0.545947
0.584602
0.625278
0.658286
0.672076
0.658931
0.631215
0.627118
0.666353
0.705446
0.765558
0.826195
0.89563
0.974754
1.06663
1.1686
1.2683
1.34209
1.3602
1.31498
1.23583
1.14295
1.06783
1.01695
0.965838
0.879779
0.734442
0.521747
0.232915
-0.140988
-0.614422
-1.20684
-1.94276
-2.85285
-3.97184
-5.33545
-6.97479
-8.90668
-11.0683
-13.1879
-14.6618
-14.7787
-22.0037
-25.7149
-27.0676
-23.3114
-19.3677
-13.5632
-7.7926
-2.7092
1.6661
4.80789
6.93234
8.17862
8.71653
8.95624
8.83621
8.36081
7.83119
6.66487
6.28984
5.64501
5.33365
5.09714
5.8897
0.024119
0.114039
0.155297
0.216722
0.255582
0.299044
0.33176
0.363795
0.390777
0.416972
0.442049
0.468151
0.495751
0.526256
0.561038
0.600855
0.641299
0.671594
0.683158
0.659219
0.604457
0.592534
0.632963
0.676259
0.74113
0.805723
0.880505
0.966524
1.06816
1.18275
1.29676
1.38284
1.40531
1.35553
1.27017
1.17209
1.09879
1.0507
0.994462
0.893555
0.731074
0.504249
0.204603
-0.177958
-0.659806
-1.2624
-2.01268
-2.9448
-4.09865
-5.51747
-7.24082
-9.2905
-11.6218
-14.0065
-15.756
-16.5243
-23.6999
-27.9197
-29.155
-24.9751
-20.726
-14.3857
-8.14648
-2.68722
1.94347
5.2023
7.3671
8.59035
9.09039
9.31496
9.1763
8.69501
8.12251
6.90824
6.48932
5.82775
5.49374
5.14252
6.02233
0.023091
0.118884
0.159632
0.223821
0.263283
0.308196
0.341613
0.374431
0.401902
0.428564
0.454071
0.480659
0.508773
0.539852
0.575353
0.615385
0.653716
0.681089
0.689144
0.646504
0.567966
0.558062
0.597093
0.647145
0.716689
0.785417
0.86567
0.958786
1.07065
1.19865
1.32805
1.42725
1.45342
1.39697
1.30369
1.19972
1.12944
1.08175
1.01373
0.894116
0.715779
0.47839
0.171759
-0.215863
-0.7028
-1.31245
-2.07435
-3.02657
-4.21496
-5.69116
-7.50438
-9.68393
-12.2042
-14.8687
-17.0061
-18.9435
-25.3829
-30.4303
-31.3832
-26.7338
-22.1686
-15.2619
-8.51894
-2.65462
2.24843
5.62385
7.8229
9.01118
9.46567
9.67272
9.51508
9.03188
8.41321
7.14845
6.68152
6.01332
5.65408
5.19783
6.15787
0.0218733
0.1239
0.163922
0.230941
0.270928
0.317276
0.351349
0.384909
0.412818
0.439891
0.465776
0.492795
0.521336
0.552814
0.588456
0.626986
0.662334
0.688095
0.688891
0.616687
0.531435
0.522772
0.560073
0.618414
0.692403
0.76555
0.851426
0.951907
1.07455
1.21692
1.36302
1.47634
1.50535
1.43956
1.33609
1.22607
1.16023
1.10701
1.01978
0.881063
0.690787
0.447299
0.137766
-0.251169
-0.739692
-1.35315
-2.12397
-3.09469
-4.31786
-5.85418
-7.76324
-10.0837
-12.8086
-15.7663
-18.3883
-21.7649
-26.8836
-33.2611
-33.7752
-28.587
-23.6926
-16.1921
-8.91177
-2.61106
2.58301
6.07406
8.30061
9.44044
9.8413
10.0284
9.85176
9.37177
8.70289
7.38445
6.86605
6.20308
5.81428
5.27341
6.31503
0.0204448
0.129109
0.168165
0.238086
0.278515
0.326284
0.360968
0.395224
0.423516
0.450942
0.477148
0.504529
0.533378
0.564925
0.59952
0.634828
0.668932
0.696076
0.674338
0.582821
0.494118
0.485915
0.522097
0.590007
0.668538
0.746468
0.838128
0.946307
1.0804
1.23827
1.40268
1.53134
1.56207
1.48326
1.36669
1.25213
1.19046
1.12128
1.01039
0.856493
0.659642
0.414726
0.1064
-0.28005
-0.766642
-1.38084
-2.15831
-3.14663
-4.40553
-6.00514
-8.01562
-10.4861
-13.4269
-16.6878
-19.853
-24.5155
-28.0611
-36.4203
-36.3604
-30.5403
-25.2953
-17.1743
-9.32654
-2.55585
2.94962
6.55457
8.80108
9.87729
10.216
10.3808
10.1856
9.7152
8.99108
7.61492
7.04243
6.39748
5.97483
5.3673
6.49208
0.0187802
0.134532
0.172358
0.245258
0.286045
0.335216
0.370466
0.405371
0.433988
0.461701
0.488161
0.515814
0.544784
0.57573
0.607588
0.639558
0.675159
0.699714
0.649059
0.550936
0.454253
0.449026
0.483724
0.562479
0.645393
0.728512
0.82616
0.94246
1.08881
1.26358
1.44824
1.59376
1.62453
1.52733
1.39476
1.2797
1.21606
1.11909
0.986664
0.824391
0.6265
0.38467
0.0815535
-0.298737
-0.780163
-1.39255
-2.17522
-3.1811
-4.47728
-6.14328
-8.25973
-10.8867
-14.0501
-17.6219
-21.3503
-26.8319
-29.1333
-40.0744
-39.1743
-32.6029
-26.9761
-18.2057
-9.76433
-2.48739
3.35136
7.06725
9.32521
10.3207
10.5885
10.7286
10.5156
10.0628
9.27736
7.83826
7.21007
6.59675
6.13522
5.4756
6.62939
0.0168501
0.140192
0.1765
0.252459
0.293514
0.34407
0.379839
0.415342
0.444222
0.472146
0.498774
0.526572
0.555317
0.584506
0.612639
0.64456
0.684973
0.688315
0.625847
0.517561
0.412576
0.412162
0.445105
0.536027
0.623285
0.712086
0.815944
0.940891
1.10048
1.29386
1.50117
1.66533
1.69335
1.56959
1.42082
1.30934
1.22884
1.09818
0.952929
0.789479
0.595614
0.361068
0.066884
-0.303977
-0.777643
-1.38655
-2.17387
-3.19793
-4.53311
-6.26802
-8.49345
-11.2806
-14.6692
-18.5586
-22.8543
-28.7754
-30.4819
-44.4469
-42.2613
-34.7814
-28.736
-19.2831
-10.2254
-2.4022
3.79198
7.61435
9.87391
10.7694
10.9571
11.0703
10.8411
10.4152
9.56127
8.05261
7.36828
6.7969
6.29345
5.59292
6.79824
0.0146191
0.146121
0.180585
0.25969
0.300921
0.352842
0.389084
0.42513
0.454199
0.482242
0.508924
0.536666
0.564543
0.590724
0.61615
0.652051
0.691279
0.671348
0.605171
0.482014
0.370073
0.375596
0.40714
0.511102
0.602586
0.697581
0.80793
0.942177
1.1162
1.33025
1.56317
1.74796
1.7678
1.60643
1.44786
1.33589
1.22008
1.06175
0.914982
0.756362
0.570979
0.347446
0.0653919
-0.293496
-0.75772
-1.36241
-2.15454
-3.19769
-4.5732
-6.37846
-8.71407
-11.6623
-15.2758
-19.4908
-24.3611
-30.5745
-32.487
-49.3709
-45.6573
-37.0716
-30.5732
-20.403
-10.7086
-2.29521
4.27594
8.19863
10.4482
11.2218
11.3202
11.4044
11.161
10.7732
9.84227
8.25598
7.51633
6.9918
6.44815
5.7148
6.98846
0.0120457
0.152349
0.184609
0.266952
0.308263
0.361525
0.398194
0.434719
0.463892
0.491933
0.518507
0.545835
0.571927
0.595003
0.621535
0.664099
0.685617
0.659119
0.58358
0.445581
0.326916
0.339255
0.37037
0.487988
0.583681
0.685418
0.802596
0.946937
1.13684
1.37408
1.63621
1.84324
1.84434
1.63521
1.47902
1.3465
1.18701
1.01709
0.878292
0.729124
0.556003
0.346537
0.0790076
-0.266316
-0.720364
-1.32082
-2.11822
-3.18107
-4.59745
-6.47319
-8.91837
-12.0263
-15.8626
-20.4139
-25.8684
-32.3347
-35.3695
-54.667
-49.3897
-39.4619
-32.4795
-21.5594
-11.2112
-2.16176
4.80847
8.8236
11.0494
11.6762
11.6759
11.7292
11.4742
11.1378
10.1197
8.44628
7.65346
7.17909
6.59926
5.84308
7.12725
0.00908036
0.158915
0.188567
0.274245
0.315535
0.370114
0.407157
0.444085
0.473254
0.501134
0.527352
0.553693
0.577344
0.599106
0.630639
0.67367
0.67808
0.64949
0.561189
0.408921
0.283507
0.302992
0.335815
0.466989
0.566998
0.676002