/*--------------------------------*- C++ -*----------------------------------*\
| =========                 |                                                 |
| \\      /  F ield         | OpenFOAM: The Open Source CFD Toolbox           |
|  \\    /   O peration     | Version:  4.1                                   |
|   \\  /    A nd           | Web:      www.OpenFOAM.org                      |
|    \\/     M anipulation  |                                                 |
\*---------------------------------------------------------------------------*/
FoamFile
{
    version     2.0;
    format      ascii;
    class       surfaceScalarField;
    location    "18";
    object      phi;
}
// * * * * * * * * * * * * * * * * * * * * * * * * * * * * * * * * * * * * * //

dimensions      [0 3 -1 0 0 0 0];

internalField   nonuniform List<scalar> 
13220
(
-787.002
2086.9
-1230.78
1743.98
-1685.15
1754.26
-2018.8
1633.56
-2292
1573.39
-2488.41
1496.31
-2616.68
1428.17
-2676.74
1360.25
-2672.05
1295.22
-2596.67
1224.52
-2433.04
1136.56
-2144.76
1011.62
-1665.53
820.666
-945.267
579.94
354.633
-226.277
2313.18
-507.308
2025.01
-812.376
2059.33
-1062.53
1883.71
-1303.98
1814.84
-1503.69
1696.03
-1679.27
1603.74
-1824.38
1505.37
-1941.42
1412.25
-2013.29
1296.39
-1987.13
1110.4
-1744.5
768.996
-1177.21
253.371
-509.615
-87.6567
-154.982
-154.777
2467.95
-373.71
2243.94
-530.252
2215.87
-631.706
1985.16
-720.095
1903.23
-765.619
1741.55
-789.847
1627.97
-786.342
1501.86
-759.744
1385.65
-710.534
1247.18
-638.974
1038.84
-532.445
662.459
-388.875
109.788
-276.661
-199.885
-431.643
96.444
2371.51
52.6928
2287.69
80.5228
2188.04
130.236
1935.45
187.862
1845.6
262.618
1666.79
350.434
1540.15
455.488
1396.81
574.508
1266.63
692.239
1129.44
766.656
964.421
695.306
733.809
381.98
423.114
49.5709
132.523
-382.072
160.12
2211.39
163.337
2284.47
225.384
2125.99
293.365
1867.47
369.574
1769.39
445.712
1590.65
525.188
1460.68
604.01
1317.99
681.611
1189.03
747.774
1063.28
781.757
930.438
732.751
782.812
562.416
593.446
317.275
377.658
-64.7967
115.235
2096.15
163.55
2236.16
229.537
2060
302.019
1794.98
376.425
1694.98
456.016
1511.06
531.809
1384.88
605.476
1244.32
672.964
1121.54
729.641
1006.6
754.995
905.084
718.16
819.652
579.224
732.386
339.326
617.566
274.529
23.3838
2072.77
92.6219
2166.92
147.647
2004.98
185.615
1757.02
224.715
1655.88
274.222
1461.55
358.519
1300.59
502.291
1100.55
679.291
944.539
844.12
841.775
927.704
821.5
883.051
864.302
689.988
925.448
386.873
920.677
661.402
-108.297
2181.06
-128.384
2187.01
-164.545
2041.14
-256.467
1848.94
-353.038
1752.45
-448.476
1556.99
-478.453
1330.57
-419.032
1041.13
-282.765
808.273
-90.6803
649.692
123.406
607.414
289.549
698.165
324.226
890.774
205.96
1038.95
867.362
-101.809
2282.87
-324.023
2409.22
-502.739
2219.85
-706.243
2052.44
-923.796
1970.01
-1160.02
1793.22
-1390.1
1560.65
-1598.71
1249.73
-1756.57
966.14
-1812.19
705.312
-1691.56
486.782
-1347.31
353.913
-829.276
372.735
-314.448
524.117
552.913
215.625
2067.25
20.167
2604.68
-162.566
2402.59
-289.286
2179.17
-387.041
2067.76
-501.583
1907.76
-659.086
1718.15
-870.034
1460.67
-1106.23
1202.34
-1337.43
936.514
-1510.46
659.807
-1525.88
369.334
-1269.36
116.226
-690.208
-55.0312
-137.295
478.085
1589.16
519.803
2562.96
448.768
2473.62
447.541
2180.39
518.681
1996.62
595.004
1831.44
636.437
1676.72
605.923
1491.19
514.603
1293.66
366.514
1084.6
166.4
859.923
-75.188
610.923
-263.544
304.588
-236.563
-82.0075
-373.857
418.483
1170.68
564.412
2417.04
590.786
2447.25
638.169
2133.01
737.853
1896.94
854.132
1715.16
964.235
1566.62
1039.23
1416.2
1073.58
1259.32
1061.32
1096.87
994.604
926.636
857.065
748.465
619.479
542.179
234.22
303.258
-139.638
255.422
915.261
394.455
2278
484.041
2357.67
584.652
2032.4
702.77
1778.82
811.121
1606.81
897.787
1479.95
952.924
1361.06
969.847
1242.39
944.822
1121.89
873.864
997.594
753.435
868.894
576.621
718.993
337.952
541.929
198.315
220.015
695.247
366.976
2131.04
382.297
2342.35
323.636
2091.06
282.576
1819.88
272.544
1616.84
287.706
1464.79
318.29
1330.48
353.862
1206.82
387.524
1088.23
414.652
970.466
420.925
862.622
364.915
775.004
223.485
683.36
421.799
236.178
1150.22
1969.68
2413.59
2507.65
2495.43
2370.94
2155.54
1907.7
1656.51
1383.31
1095.57
802.949
440.617
-4.52504e-06
-154.382
154.382
-154.382
-154.382
-154.382
218.951
-373.332
218.951
218.951
218.951
556.348
-337.397
556.348
556.348
840.686
-284.338
840.686
840.686
840.686
1063.87
-223.187
1063.87
1063.87
1219.82
-155.942
1219.82
1219.82
1219.82
1315.15
-95.3331
1315.15
1315.15
1315.15
1356.16
-41.0158
1356.16
1356.16
1343.94
12.226
1343.94
1343.94
1343.94
1284.46
59.4779
1284.46
1284.46
1179.81
104.646
1179.81
1179.81
1179.81
1040.73
139.086
1040.73
1040.73
1040.73
946.307
94.4207
946.307
946.307
848.7
97.6065
848.7
848.7
848.7
632.633
216.067
632.633
632.633
632.633
312.997
319.636
312.997
312.997
4.26343
308.734
4.26345
4.26337
4.26344
-540.476
544.739
-540.476
-540.476
-1696.1
1155.62
-1696.1
-1696.1
-1696.1
-3340.26
1644.16
-3340.26
-3340.26
-3340.26
-5295.83
1955.57
-5295.83
-5295.83
-7502.3
2206.47
-7502.3
-7502.3
-7341.33
-7182.88
-7024.13
-9238.98
2373.89
-9070.06
-8883.1
-8686.36
-8489.6
-8292.87
-8096.2
-7900.64
-7703.1
-9969.97
2460.19
-9765.54
-9561.24
-9356.4
-9144.4
-8929.38
-8712.42
-8494.45
-8275.4
-10579.2
2522.33
-10345.3
-10110.3
-9874.99
-9639.53
-9398.54
-9146.97
-8893.8
-8638.36
-8382.18
-10585.2
2446.1
-10316.7
-10046.2
-9773.89
-9500.03
-9224.17
-8934.98
-8638.03
-8340.94
-10344.8
2283.7
-10056.5
-9763.92
-9462.5
-9163.64
-8866.2
-8570.7
-8275.37
-7960.88
-9396.76
1737.64
-9092.63
-8789.2
-8485.22
-8163.77
-7834.76
-7507.34
-7180.87
-6858.68
-7730.94
1191.18
-7405.42
-7091.01
-6785.01
-6488.71
-6201.76
-5906.68
-5619.64
-5337.59
-5061.78
-4779.7
8.66827
-4529.41
-4294.35
-4062.05
-3834.45
-3611.63
-3435.45
-3349.06
-3262.33
-2895.35
-275.145
-2817.86
-2743.54
-2743.54
-2530.3
-213.245
-2320.84
-209.456
-2320.84
-2142.77
-178.07
-2142.77
-1989.38
-153.39
-1862.61
-126.775
-1862.61
-1744.12
-118.487
-1644.88
-99.242
-1644.88
-1550.24
-94.6378
-1550.24
-1464.49
-85.7496
-1391.13
-73.3583
-1391.13
-1318.93
-72.2006
-1318.93
-1252.57
-66.3572
-1193.24
-59.3381
-1193.24
-1133.81
-59.4238
-1080.83
-52.9805
-1080.83
-1027.61
-53.2231
-1027.61
-977.371
-50.2377
-931.825
-45.5459
-931.825
-885.529
-46.2965
-885.529
-841.669
-43.8596
-800.43
-41.2385
-800.43
-758.009
-42.4219
-718.272
-39.7363
-718.272
-677.322
-40.9498
-677.322
-637.157
-40.165
-599.148
-38.0099
-599.148
-560.03
-39.1175
-560.03
-521.33
-38.6999
-484.108
-37.2224
-484.108
-444.989
-39.1182
-408.248
-36.7418
-408.248
-371.587
-36.6612
-371.587
-334.87
-36.7165
-300.074
-34.7965
-300.074
-265.744
-34.3298
-265.744
-231.6
-34.1438
-198.956
-32.6443
-198.956
-168.389
-30.5669
-140.882
-27.5065
-140.882
-115.117
-25.7653
-115.117
-85.2363
-29.8807
-52.8953
-32.341
-52.8953
-26.8397
-26.0557
-26.8397
-6.66511
-20.1746
29.2445
-35.9096
29.2445
64.5896
-35.3451
121.41
-56.8199
121.41
189.369
-67.959
189.369
-69.8365
-114.815
-478.657
-115.207
-549.845
-116.036
-589.28
-117.054
-629.825
-118.349
-667.158
-119.84
-701.995
-121.545
-734.783
-123.437
-765.67
-125.517
-794.87
-127.774
-822.594
-130.206
-848.994
-132.809
-874.272
-135.583
-898.582
-138.525
-922.106
-141.635
-944.991
-144.913
-967.377
-148.357
-989.377
-151.969
-1011.09
-155.756
-1032.63
-159.735
-1054.19
-163.933
-1076.11
-168.384
-1098.92
-173.124
-1123.23
-178.179
-1149.57
-183.565
-1178.23
-189.277
-1209.29
-195.289
-1242.59
-201.548
-1277.7
-207.975
-1313.96
-214.493
-1350.45
-221.117
-1385.97
-228.13
-1418.87
-236.347
-1446.95
-247.363
-1467.33
-263.552
-1476.77
-287.587
-1472.47
-321.413
-1453.45
-365.008
-1421.94
-415.675
-1383.72
-468.476
-1346.56
-517.721
-1317.43
-558.628
-1300.09
-588.273
-1294.3
-605.529
-1296.58
-610.352
-1301.04
-603.243
-1299.77
-585.984
-1285.31
-561.852
-1259.28
-524.331
-1225.01
-436.093
-1073.24
-295.826
-431.805
-207.901
630.055
-174.956
1238.53
-144.679
1605.85
-113.715
1950.93
-83.1052
2289.61
-52.4647
2624.88
-21.4512
2955.85
5.59664
3220.04
26.4864
3421.1
40.3412
3558.19
47.2463
3639.23
50.4696
3715.6
51.4929
3764.29
51.429
3769.66
51.0826
3721.75
50.7333
3614.12
50.768
3450.7
50.5622
3215.57
50.604
2938.7
49.2134
2553.31
48.3531
2200.05
44.9066
1624.17
44.3017
1459.98
40.1504
366.558
47.3306
1111.37
44.6399
-205.589
42.91
-740.242
3357.39
-121.155
-478.903
-121.384
-549.616
-122.154
-588.509
-123.127
-628.852
-124.411
-665.874
-125.905
-700.501
-127.632
-733.056
-129.561
-763.741
-131.691
-792.74
-134.013
-820.273
-136.523
-846.484
-139.219
-871.576
-142.099
-895.702
-145.162
-919.043
-148.407
-941.746
-151.831
-963.953
-155.434
-985.774
-159.219
-1007.31
-163.197
-1028.65
-167.394
-1050
-171.848
-1071.66
-176.603
-1094.16
-181.693
-1118.14
-187.138
-1144.12
-192.94
-1172.42
-199.079
-1203.15
-205.504
-1236.17
-212.138
-1271.06
-218.892
-1307.2
-225.757
-1343.59
-233
-1378.73
-241.489
-1410.38
-253.015
-1435.42
-270.353
-1450
-296.729
-1450.4
-334.573
-1434.63
-383.963
-1404.06
-441.638
-1364.27
-501.496
-1323.86
-556.563
-1291.49
-601.278
-1272.72
-632.725
-1268.65
-650.436
-1276.59
-655.354
-1291.66
-648.728
-1307.67
-631.49
-1317.01
-605.018
-1311.78
-573
-1291.3
-534.434
-1263.57
-453.494
-1154.18
-290.902
-594.397
-188.752
527.904
-168.766
1218.55
-141.917
1579
-111.296
1920.31
-81.4586
2259.78
-51.4932
2594.92
-21.2288
2925.59
5.10246
3193.71
25.4565
3400.74
39.0071
3544.64
45.7595
3632.48
48.9871
3712.37
50.1016
3763.17
50.2024
3769.56
50.0782
3721.87
49.9671
3614.23
50.2539
3450.41
50.3003
3215.52
50.5787
2938.42
49.4577
2554.43
48.7848
2200.72
45.6636
1627.29
45.3987
1460.24
40.6999
371.257
52.7757
1099.29
39.9053
-192.719
31.9969
-732.334
3321.43
-124.593
-479.232
-124.759
-549.45
-125.497
-587.771
-126.451
-627.898
-127.733
-664.592
-129.234
-698.999
-130.979
-731.311
-132.932
-761.788
-135.096
-790.576
-137.458
-817.911
-140.018
-843.924
-142.771
-868.823
-145.716
-892.757
-148.853
-915.907
-152.178
-938.421
-155.689
-960.441
-159.386
-982.077
-163.272
-1003.42
-167.363
-1024.56
-171.689
-1045.67
-176.297
-1067.05
-181.233
-1089.22
-186.531
-1112.84
-192.202
-1138.45
-198.243
-1166.38
-204.619
-1196.78
-211.266
-1229.52
-218.097
-1264.23
-225.063
-1300.24
-232.329
-1336.32
-240.583
-1370.47
-251.412
-1399.56
-267.471
-1419.37
-292.081
-1425.39
-328.077
-1414.4
-376.197
-1386.51
-433.886
-1346.37
-495.456
-1302.7
-553.836
-1265.48
-602.96
-1242.37
-639.326
-1236.35
-662.056
-1245.92
-671.949
-1266.7
-670.408
-1293.2
-658.678
-1319.4
-637.478
-1338.21
-607.592
-1341.67
-572.01
-1326.88
-532.884
-1302.7
-462.432
-1224.63
-296.338
-760.491
-169.257
400.823
-154.159
1203.45
-137.774
1562.62
-107.888
1890.43
-78.9404
2230.83
-49.988
2565.96
-20.6794
2896.28
4.6826
3168.35
24.2447
3381.18
37.2722
3531.61
43.7127
3626.04
46.836
3709.25
48.0229
3761.98
48.3204
3769.26
48.4922
3721.7
48.7273
3614
49.3839
3449.75
49.8038
3215.1
50.4442
2937.78
49.6915
2555.19
49.3087
2201.1
46.5805
1630.02
46.2889
1460.53
41.6793
375.867
51.2725
1089.7
36.817
-178.263
28.4606
-723.978
3293.07
-128.706
-479.639
-128.814
-549.342
-129.524
-587.061
-130.464
-626.958
-131.749
-663.307
-133.264
-697.485
-135.033
-729.542
-137.02
-759.801
-139.227
-788.369
-141.642
-815.496
-144.263
-841.303
-147.086
-865.999
-150.112
-889.731
-153.338
-912.681
-156.761
-934.997
-160.38
-956.823
-164.191
-978.266
-168.2
-999.411
-172.426
-1020.34
-176.906
-1041.19
-181.695
-1062.26
-186.846
-1084.07
-192.389
-1107.3
-198.333
-1132.51
-204.661
-1160.05
-211.324
-1190.12
-218.241
-1222.6
-225.34
-1257.13
-232.699
-1292.88
-240.844
-1328.18
-251.163
-1360.15
-266.198
-1384.52
-289.395
-1396.17
-324.033
-1390.75
-371.546
-1366.89
-430.085
-1327.97
-494.337
-1282.12
-557.01
-1240.03
-611.293
-1211.2
-652.837
-1200.82
-680.218
-1208.97
-694.114
-1232.02
-696.11
-1264.7
-687.838
-1301.47
-670.53
-1336.7
-644.82
-1363.92
-611.159
-1375.33
-571.865
-1366.18
-530.725
-1343.84
-468.124
-1287.23
-309.667
-918.947
-153.341
244.496
-132.822
1182.93
-130.213
1560.01
-103.853
1864.07
-75.5028
2202.48
-47.8743
2538.34
-19.7781
2868.18
4.37429
3144.19
22.8753
3362.68
35.1488
3519.34
41.1162
3620.07
44.0287
3706.33
45.2544
3760.76
45.7733
3768.74
46.3055
3721.17
46.9844
3613.32
48.1177
3448.62
49.0244
3214.19
50.1327
2936.67
49.8517
2555.47
49.8509
2201.11
47.5536
1632.32
47.3599
1460.73
42.6569
380.57
50.3485
1082.01
34.6198
-162.534
25.5364
-714.894
3283.26
-132.684
-480.096
-132.755
-549.271
-133.445
-586.37
-134.38
-626.024
-135.673
-662.013
-137.207
-695.951
-139.005
-727.744
-141.03
-757.776
-143.284
-786.115
-145.754
-813.026
-148.439
-838.618
-151.336
-863.102
-154.445
-886.622
-157.763
-909.363
-161.287
-931.473
-165.015
-953.096
-168.942
-974.339
-173.075
-995.278
-177.437
-1015.98
-182.071
-1036.56
-187.041
-1057.29
-192.407
-1078.71
-198.197
-1101.51
-204.413
-1126.29
-211.025
-1153.44
-217.965
-1183.18
-225.153
-1215.41
-232.602
-1249.69
-240.687
-1284.79
-250.584
-1318.28
-264.674
-1346.06
-286.46
-1362.73
-319.603
-1363.03
-366.169
-1344.18
-424.974
-1308.09
-491.123
-1261.82
-557.273
-1215.97
-616.059
-1181.24
-662.351
-1164.91
-694.136
-1169.04
-711.89
-1191.22
-717.311
-1226.6
-712.265
-1269.75
-698.293
-1315.45
-676.455
-1358.54
-647.257
-1393.11
-610.89
-1411.7
-568.95
-1408.12
-525.767
-1387.02
-469.968
-1343.03
-332.178
-1056.74
-147.448
59.7663
-108.393
1143.87
-117.023
1568.64
-98.6953
1845.74
-71.1784
2174.96
-44.9899
2512.15
-18.4436
2841.64
4.24998
3121.5
21.4062
3345.52
32.6579
3508.08
37.9519
3614.78
40.5214
3703.76
41.7293
3759.55
42.4848
3767.99
43.4373
3720.22
44.6585
3612.1
46.3847
3446.89
47.8964
3212.68
49.5934
2934.97
49.8843
2555.18
50.3737
2200.62
48.5483
1634.14
48.5858
1460.69
43.7367
385.419
50.5831
1075.16
34.055
-146.006
24.44
-705.279
3271.79
-136.716
-480.587
-136.766
-549.221
-137.445
-585.691
-138.381
-625.088
-139.689
-660.705
-141.248
-694.392
-143.081
-725.911
-145.15
-755.707
-147.455
-783.81
-149.986
-810.495
-152.741
-835.863
-155.718
-860.125
-158.915
-883.425
-162.331
-905.947
-165.963
-927.841
-169.805
-949.254
-173.855
-970.288
-178.119
-991.015
-182.621
-1011.48
-187.414
-1031.76
-192.572
-1052.13
-198.161
-1073.12
-204.208
-1095.46
-210.703
-1119.79
-217.601
-1146.54
-224.823
-1175.95
-232.337
-1207.9
-240.388
-1241.63
-249.936
-1275.25
-263.154
-1305.06
-283.551
-1325.67
-315.136
-1331.15
-360.605
-1317.56
-419.42
-1285.37
-487.09
-1240.42
-556.284
-1192.63
-619.234
-1153.02
-670.125
-1130.35
-706.295
-1128.74
-727.895
-1147.44
-736.638
-1182.47
-734.597
-1228.64
-723.54
-1280.81
-704.769
-1334.22
-679.145
-1384.17
-647.082
-1425.18
-608.66
-1450.12
-564.956
-1451.82
-520.117
-1431.86
-469.182
-1393.97
-356.223
-1169.7
-156.016
-140.441
-84.7649
1072.62
-97.6805
1581.56
-91.0612
1839.12
-66.0875
2149.99
-41.2063
2487.27
-16.5651
2816.99
4.40822
3100.53
19.9532
3329.98
29.8966
3498.14
34.2927
3610.38
36.365
3701.69
37.4716
3758.44
38.4595
3767
39.8758
3718.8
41.7242
3610.25
44.1517
3444.47
46.3809
3210.45
48.783
2932.57
49.7446
2554.22
50.8255
2199.53
49.5213
1635.45
49.8493
1460.36
44.919
390.349
50.9928
1069.08
33.871
-128.885
23.3471
-694.755
3274.97
-140.767
-481.095
-140.809
-549.179
-141.485
-585.015
-142.431
-624.142
-143.761
-659.375
-145.351
-692.803
-147.224
-724.038
-149.341
-753.59
-151.704
-781.447
-154.301
-807.899
-157.131
-833.033
-160.192
-857.064
-163.483
-880.134
-167.003
-902.428
-170.747
-924.097
-174.71
-945.29
-178.889
-966.11
-183.287
-986.616
-187.935
-1006.83
-192.892
-1026.81
-198.244
-1046.78
-204.062
-1067.3
-210.371
-1089.15
-217.148
-1113.02
-224.329
-1139.36
-231.856
-1168.43
-239.865
-1199.89
-249.099
-1232.4
-261.492
-1262.85
-280.487
-1286.07
-310.419
-1295.73
-354.654
-1286.91
-413.334
-1258.88
-482.319
-1216.38
-554.231
-1168.51
-620.941
-1125.91
-676.088
-1097.87
-716.433
-1090.01
-741.742
-1103.43
-753.655
-1135.53
-754.404
-1181.72
-745.991
-1237.05
-729.908
-1296.89
-707.189
-1356.94
-678.516
-1412.84
-644.247
-1459.45
-604.46
-1489.91
-559.925
-1496.35
-514.32
-1477.47
-466.93
-1441.36
-373.284
-1263.34
-169.233
-344.491
-65.5211
968.909
-73.5796
1589.61
-79.3149
1844.86
-59.9752
2130.65
-36.4728
2463.76
-13.9832
2794.5
4.93773
3081.6
18.6074
3316.31
26.9419
3489.81
30.1911
3607.13
31.5958
3700.29
32.4977
3757.54
33.6955
3765.8
35.6078
3716.89
38.1564
3607.7
41.3873
3441.23
44.4424
3207.4
47.6639
2929.35
49.3967
2552.48
51.1728
2197.76
50.4468
1636.17
51.1317
1459.67
46.1836
395.297
51.7202
1063.55
34.7295
-111.894
23.9583
-683.984
3272.87
-144.851
-481.604
-144.899
-549.132
-145.58
-584.333
-146.543
-623.179
-147.901
-658.018
-149.528
-691.176
-151.447
-722.118
-153.619
-751.418
-156.044
-779.021
-158.712
-805.231
-161.623
-830.122
-164.773
-853.914
-168.164
-876.743
-171.793
-898.798
-175.657
-920.234
-179.748
-941.2
-184.06
-961.797
-188.6
-982.076
-193.398
-1002.03
-198.524
-1021.68
-204.074
-1041.23
-210.129
-1061.25
-216.703
-1082.58
-223.756
-1105.96
-231.226
-1131.89
-239.16
-1160.49
-248.097
-1190.95
-259.691
-1220.81
-277.24
-1245.3
-305.356
-1257.95
-348.146
-1252.94
-406.563
-1228.5
-476.834
-1188.61
-551.381
-1141.83
-621.603
-1098.28
-680.645
-1066.87
-724.844
-1053.67
-753.647
-1061.2
-768.575
-1088.5
-771.947
-1132.15
-765.959
-1187.71
-752.297
-1250.72
-732.131
-1317.06
-706.255
-1382.81
-675.223
-1443.87
-639.392
-1495.28
-598.953
-1530.35
-554.607
-1540.7
-509.539
-1522.54
-465.47
-1485.42
-386.776
-1342.04
-185.767
-545.5
-53.5763
836.719
-47.5915
1583.63
-62.4774
1859.74
-52.0371
2120.21
-30.8097
2442.54
-10.5078
2774.2
5.95495
3065.14
17.4566
3304.81
23.8702
3483.39
25.6933
3605.31
26.2396
3699.74
26.8163
3756.97
28.1833
3764.44
30.6143
3714.46
33.9264
3604.39
38.0579
3437.1
42.0454
3203.41
46.2006
2925.2
48.8083
2549.87
51.3897
2195.18
51.3076
1636.25
52.4246
1458.56
47.5256
400.196
53.0422
1058.03
33.9373
-92.789
22.9694
-673.016
3263.5
-148.971
-482.103
-149.035
-549.068
-149.731
-583.638
-150.72
-622.189
-152.112
-656.626
-153.782
-689.506
-155.753
-720.147
-157.985
-749.187
-160.479
-776.527
-163.224
-802.486
-166.22
-827.126
-169.466
-850.668
-172.963
-873.246
-176.708
-895.053
-180.697
-916.245
-184.922
-936.975
-189.376
-957.344
-194.062
-977.389
-199.016
-997.076
-204.315
-1016.38
-210.069
-1035.48
-216.363
-1054.95
-223.199
-1075.74
-230.524
-1098.64
-238.332
-1124.08
-246.972
-1151.85
-257.788
-1180.14
-273.836
-1204.76
-299.908
-1219.23
-340.908
-1216.95
-398.821
-1195.03
-470.404
-1156.91
-547.765
-1111.24
-621.547
-1068.05
-684.273
-1035.56
-731.951
-1019.19
-763.895
-1021.73
-781.573
-1043.52
-787.355
-1082.72
-783.577
-1135.93
-772.09
-1199.2
-754.198
-1268.61
-730.78
-1340.47
-702.457
-1411.14
-669.724
-1476.6
-633.024
-1531.98
-592.782
-1570.59
-549.836
-1583.65
-506.985
-1565.39
-467.112
-1525.3
-401.225
-1407.92
-207.661
-739.064
-49.857
678.915
-23.1256
1556.9
-40.8477
1877.46
-41.0859
2120.44
-24.1914
2425.64
-6.00672
2756.02
7.63349
3051.5
16.6075
3295.83
20.7714
3479.23
20.8605
3605.22
20.3316
3700.27
20.4459
3756.85
21.9223
3762.96
24.8834
3711.5
29.0129
3600.26
34.1344
3431.98
39.1578
3198.39
44.3594
2919.99
47.9472
2546.29
51.4485
2191.68
52.0848
1635.62
53.7101
1456.93
48.9156
404.991
54.1696
1052.78
33.7502
-72.3696
21.951
-661.217
3255.57
-153.133
-482.578
-153.224
-548.977
-153.942
-582.92
-154.965
-621.167
-156.398
-655.193
-158.119
-687.785
-160.148
-718.118
-162.446
-746.889
-165.014
-773.959
-167.842
-799.658
-170.93
-824.038
-174.277
-847.32
-177.885
-869.638
-181.753
-891.186
-185.874
-912.123
-190.241
-932.608
-194.843
-952.742
-199.683
-972.549
-204.797
-991.962
-210.274
-1010.91
-216.236
-1029.51
-222.767
-1048.42
-229.854
-1068.65
-237.466
-1091.03
-245.797
-1115.75
-255.866
-1141.79
-270.38
-1165.62
-294.156
-1180.98
-332.877
-1180.51
-389.823
-1160
-462.622
-1122.23
-543.118
-1076.42
-620.871
-1033.49
-687.4
-1001.52
-738.312
-984.648
-772.954
-984.551
-792.96
-1001.72
-800.828
-1035.66
-799.007
-1084.54
-789.46
-1145.48
-773.595
-1215.06
-752.364
-1289.84
-726.429
-1366.41
-696.316
-1441.25
-662.566
-1510.35
-625.83
-1568.71
-586.893
-1609.53
-546.861
-1623.68
-508.203
-1604.04
-473.981
-1559.52
-420.103
-1461.8
-238.081
-921.087
-55.1638
495.997
-3.43089
1505.16
-16.1552
1890.19
-25.797
2130.09
-16.2288
2416.07
-0.464488
2740.25
10.1865
3040.85
16.195
3289.83
17.7457
3477.68
15.7652
3607.2
13.9134
3702.12
13.4113
3757.35
14.9185
3761.45
18.4081
3708.01
23.4002
3595.27
29.5924
3425.79
35.7512
3192.23
42.1087
2913.64
46.7823
2541.61
51.3216
2187.14
52.7581
1634.18
54.9745
1454.72
50.337
409.628
54.7061
1048.41
35.4743
-53.1378
22.5715
-648.314
3252.37
-157.342
-483.018
-157.47
-548.849
-158.219
-582.17
-159.284
-620.102
-160.765
-653.712
-162.542
-686.008
-164.636
-716.024
-167.007
-744.518
-169.655
-771.31
-172.571
-796.742
-175.757
-820.852
-179.212
-843.865
-182.939
-865.912
-186.935
-887.189
-191.197
-907.862
-195.712
-928.093
-200.47
-947.984
-205.47
-967.549
-210.751
-986.681
-216.408
-1005.25
-222.577
-1023.34
-229.335
-1041.66
-236.667
-1061.32
-244.662
-1083.03
-254.027
-1106.39
-267.024
-1128.79
-288.29
-1144.36
-324.156
-1145.12
-379.405
-1125.26
-453.032
-1086.38
-536.921
-1038.34
-619.321
-994.017
-690.225
-962.589
-744.47
-947.275
-781.473
-947.645
-803.274
-962.75
-812.732
-992.265
-812.485
-1035.9
-804.591
-1092.43
-790.505
-1159.56
-771.217
-1234.35
-747.406
-1313.65
-719.602
-1394.21
-688.353
-1472.5
-654.384
-1544.32
-618.705
-1604.39
-582.554
-1645.68
-547.297
-1658.94
-514.937
-1636.41
-487.873
-1586.58
-445.923
-1503.75
-282.641
-1084.37
-72.3489
285.705
8.51815
1424.3
8.68224
1890.02
-5.28028
2144.05
-5.71838
2416.51
6.13247
2728.4
13.781
3033.2
16.383
3287.22
14.9059
3479.16
10.4888
3611.62
7.03132
3705.58
5.73892
3758.65
7.18197
3760.01
11.1846
3704.01
17.0772
3589.37
24.4118
3418.45
31.8007
3184.84
39.4203
2906.02
45.2847
2535.75
50.9835
2181.44
53.3076
1631.86
56.2099
1451.81
51.8017
414.037
55.3391
1044.87
36.8889
-34.6876
23.2131
-634.639
3248.08
-161.603
-483.414
-161.777
-548.674
-162.567
-581.38
-163.681
-618.989
-165.217
-652.175
-167.059
-684.166
-169.224
-713.859
-171.673
-742.069
-174.407
-768.576
-177.418
-793.731
-180.708
-817.563
-184.278
-840.295
-188.129
-862.06
-192.263
-883.056
-196.672
-903.452
-201.345
-923.42
-206.267
-943.063
-211.434
-962.381
-216.886
-981.229
-222.725
-999.409
-229.09
-1016.98
-236.058
-1034.69
-243.671
-1053.71
-252.375
-1074.33
-263.934
-1094.83
-282.575
-1110.15
-315.013
-1111.92
-367.61
-1092.52
-441.281
-1051.59
-528.527
-999.131
-616.31
-950.561
-692.557
-917.77
-750.746
-904.401
-790.115
-907.905
-813.258
-924.503
-823.676
-952.332
-824.433
-991.508
-817.758
-1042.58
-805.137
-1105.05
-787.538
-1177.16
-765.615
-1256.28
-739.87
-1339.4
-710.821
-1423.26
-679.181
-1504.14
-646.036
-1577.47
-612.894
-1637.54
-581.449
-1677.12
-553.096
-1687.29
-528.964
-1660.54
-510.072
-1605.48
-479.743
-1534.08
-345.527
-1218.58
-105.72
45.8972
11.4287
1307.15
29.85
1871.6
19.5708
2154.33
9.23121
2426.85
14.1802
2723.45
18.4727
3028.91
17.3428
3288.35
12.3823
3484.12
5.12228
3618.88
-0.262173
3710.96
-2.54189
3760.93
-1.27267
3758.74
3.21379
3699.52
10.0378
3582.55
18.5778
3409.91
27.2853
3176.13
36.2697
2897.03
43.4275
2528.59
50.4099
2174.46
53.7141
1628.55
57.4105
1448.12
53.3124
418.135
56.2224
1041.96
38.0422
-16.5074
23.1579
-619.754
3240.67
-165.922
-483.755
-166.151
-548.445
-166.989
-580.542
-168.161
-617.817
-169.761
-650.575
-171.673
-682.254
-173.916
-711.616
-176.45
-739.535
-179.278
-765.748
-182.39
-790.619
-185.79
-814.162
-189.481
-836.605
-193.465
-858.076
-197.743
-878.778
-202.308
-898.887
-207.148
-918.58
-212.243
-937.968
-217.585
-957.038
-223.211
-975.603
-229.224
-993.396
-235.766
-1010.44
-242.942
-1027.52
-251.015
-1045.64
-261.262
-1064.08
-277.299
-1078.79
-305.849
-1081.6
-354.717
-1063.05
-427.233
-1020
-517.335
-961.487
-611.041
-905.426
-693.807
-867.794
-757.044
-854.534
-799.322
-862.122
-823.695
-883.533
-834.515
-913.682
-835.562
-951.286
-829.463
-997.606
-817.824
-1054.22
-801.575
-1121.3
-781.281
-1197.46
-757.366
-1280.19
-730.275
-1366.49
-700.665
-1452.87
-669.606
-1535.2
-638.721
-1608.35
-610.084
-1666.17
-585.65
-1701.55
-566.337
-1706.6
-551.752
-1675.12
-541.022
-1616.21
-520.603
-1554.5
-414.719
-1324.47
-155.263
-213.559
5.89346
1145.99
44.5793
1832.92
45.4728
2153.44
29.6452
2442.68
24.8163
2728.28
24.3438
3029.38
19.2176
3293.48
10.3198
3493.01
-0.22896
3629.43
-7.90128
3718.64
-11.3966
3764.42
-10.4299
3757.77
-5.50465
3694.59
2.2776
3574.77
12.0814
3400.11
22.1891
3166.02
32.6368
2886.59
41.1871
2520.04
49.5782
2166.06
53.9582
1624.17
58.5684
1443.51
54.8651
421.838
57.3497
1039.48
39.3621
1.4802
23.2472
-603.639
3231.27
-170.304
-484.032
-170.597
-548.153
-171.493
-579.645
-172.73
-616.58
-174.401
-648.905
-176.392
-680.263
-178.719
-709.289
-181.346
-736.908
-184.273
-762.821
-187.493
-787.399
-191.011
-810.645
-194.829
-832.786
-198.953
-853.952
-203.384
-874.348
-208.115
-894.156
-213.131
-913.564
-218.408
-932.691
-223.933
-951.514
-229.732
-969.805
-235.901
-987.227
-242.597
-1003.74
-250.056
-1020.06
-259.133
-1036.56
-272.722
-1050.49
-297.135
-1054.38
-341.226
-1037.51
-411.041
-993.235
-502.927
-928.118
-602.68
-861.734
-693.104
-815.001
-762.817
-798.082
-809.087
-808.264
-835.124
-836.085
-846.148
-872.509
-846.856
-912.974
-840.547
-957.595
-829.174
-1008.98
-813.735
-1069.66
-794.702
-1140.34
-772.352
-1219.81
-746.996
-1305.55
-719.178
-1394.3
-689.89
-1482.16
-660.769
-1564.32
-634.105
-1635.02
-612.42
-1687.86
-597.45
-1716.53
-588.862
-1715.19
-584.053
-1679.93
-580.081
-1620.18
-566.447
-1568.13
-478.788
-1412.13
-208.212
-484.135
-6.45146
944.233
52.6011
1773.86
68.4471
2137.59
54.4807
2456.65
39.5112
2743.25
31.8023
3037.09
22.1261
3303.16
8.86721
3506.27
-5.44499
3643.74
-15.8121
3729
-20.7875
3769.4
-20.2701
3757.26
-14.9687
3689.29
-6.21009
3566.01
4.9164
3388.98
16.5012
3154.44
28.505
2874.58
38.5431
2510
48.4674
2156.14
54.021
1618.62
59.6714
1437.86
56.4542
425.055
58.5316
1037.4
41.0131
18.9987
23.5212
-586.148
3220.65
-174.756
-484.237
-175.12
-547.789
-176.083
-578.682
-177.394
-615.269
-179.143
-647.156
-181.22
-678.186
-183.639
-706.869
-186.365
-734.182
-189.399
-759.787
-192.734
-784.063
-196.377
-807.002
-200.331
-828.832
-204.603
-849.68
-209.195
-869.756
-214.101
-889.249
-219.304
-908.361
-224.774
-927.22
-230.486
-945.802
-236.447
-963.843
-242.745
-980.929
-249.604
-996.882
-257.658
-1012
-269.052
-1025.17
-289.329
-1030.22
-327.794
-1015.91
-393.16
-972.141
-485.166
-901.228
-590.506
-822.778
-689.479
-762.762
-767.199
-737.28
-818.907
-746.374
-847.588
-779.583
-859.182
-824.491
-859.327
-872.364
-852.147
-920.153
-840.188
-969.554
-824.765
-1024.4
-806.386
-1088.03
-785.193
-1161.53
-761.294
-1243.7
-735.043
-1331.8
-707.28
-1422.07
-679.566
-1509.87
-654.288
-1589.59
-634.372
-1654.93
-622.372
-1699.86
-618.995
-1719.9
-621.793
-1712.39
-625.561
-1676.16
-625.661
-1620.08
-615.274
-1578.52
-540.962
-1486.44
-266.443
-758.654
-25.2224
703.012
55.5796
1693.06
85.8503
2107.32
80.8412
2461.65
58.9935
2765.1
41.7109
3054.37
26.2477
3318.62
8.16869
3524.35
-10.3945
3662.3
-23.912
3742.52
-30.6721
3776.16
-30.7708
3757.35
-25.1704
3683.69
-15.4275
3556.27
-2.92412
3376.48
10.2127
3141.3
23.8631
2860.93
35.4785
2498.39
47.0588
2144.56
53.8839
1611.79
60.708
1431.03
58.0791
427.684
59.7085
1035.77
43.405
35.3022
24.5664
-567.309
3210.89
-179.283
-484.361
-179.727
-547.346
-180.765
-577.644
-182.158
-613.875
-183.994
-645.32
-186.165
-676.015
-188.684
-704.35
-191.517
-731.35
-194.664
-756.64
-198.122
-780.606
-201.896
-803.228
-205.993
-824.735
-210.422
-845.251
-215.185
-864.993
-220.277
-884.157
-225.678
-902.96
-231.351
-921.547
-237.249
-939.905
-243.35
-957.742
-249.752
-974.528
-256.918
-989.716
-266.439
-1002.48
-282.828
-1008.78
-315.154
-997.89
-374.331
-956.737
-464.249
-882.223
-574.003
-791.475
-681.993
-714.788
-769.197
-675.557
-827.947
-678.531
-860.58
-713.741
-873.637
-766.526
-873.603
-824.525
-865.377
-880.59
-852.177
-933.353
-835.854
-985.877
-817.243
-1043.01
-796.52
-1108.76
-773.621
-1184.43
-748.638
-1268.69
-722.159
-1358.28
-695.569
-1448.66
-671.233
-1534.21
-652.344
-1608.48
-642.136
-1665.14
-642.388
-1699.61
-651.765
-1710.52
-665.078
-1699.08
-674.778
-1666.46
-675.476
-1619.38
-664.677
-1589.32
-601.973
-1549.14
-336.666
-1023.96
-53.4361
419.782
55.6905
1583.94
97.2693
2065.74
105.36
2453.56
82.4798
2787.98
55.0446
3081.81
31.9515
3341.71
8.37703
3547.93
-14.9417
3685.62
-32.1109
3759.69
-41.0033
3785.05
-41.9069
3758.26
-36.0967
3677.88
-25.3724
3545.54
-11.4446
3362.55
3.31802
3126.54
18.7036
2845.55
31.9808
2485.11
45.3364
2131.2
53.53
1603.6
61.6706
1422.89
59.7333
429.621
61.0464
1034.46
45.9759
50.3727
25.8559
-547.189
3201.95
-183.892
-484.395
-184.423
-546.815
-185.545
-576.521
-187.03
-612.391
-188.96
-643.39
-191.233
-673.742
-193.86
-701.723
-196.807
-728.403
-200.075
-753.371
-203.663
-777.018
-207.577
-799.314
-211.826
-820.486
-216.42
-840.658
-221.364
-860.049
-226.653
-878.867
-232.265
-897.348
-238.147
-915.666
-244.22
-933.832
-250.43
-951.532
-256.975
-967.983
-264.963
-981.727
-277.93
-989.517
-304.025
-982.682
-355.522
-946.393
-440.749
-871.51
-552.922
-770.051
-669.81
-674.587
-767.82
-616.778
-835.269
-608.109
-873.263
-640.536
-888.918
-698.085
-889.597
-765.848
-880.823
-833.299
-866.323
-895.091
-848.484
-951.192
-828.672
-1005.69
-807.432
-1064.25
-784.752
-1131.44
-760.517
-1208.66
-734.986
-1294.22
-709.24
-1384.02
-685.48
-1472.42
-667.022
-1552.67
-657.647
-1617.86
-660.132
-1662.66
-674.342
-1685.4
-696.005
-1688.86
-717.238
-1677.85
-729.191
-1654.51
-726.974
-1621.6
-712.426
-1603.87
-660.475
-1601.09
-429.356
-1255.08
-101.248
91.6738
53.9622
1428.73
104.046
2015.66
125.686
2431.92
107.845
2805.82
72.2475
3117.41
39.8312
3374.13
9.69733
3578.06
-18.9518
3714.27
-40.3133
3781.05
-51.7296
3796.47
-53.6516
3760.18
-47.7316
3671.96
-36.0383
3533.85
-20.6488
3347.16
-4.19165
3110.08
13.0217
2828.33
28.0444
2470.09
43.2878
2115.96
52.9439
1593.94
62.5528
1413.28
61.3993
430.775
62.5506
1033.31
48.3872
64.5361
26.4966
-525.298
3191.73