/*--------------------------------*- C++ -*----------------------------------*\
| =========                 |                                                 |
| \\      /  F ield         | OpenFOAM: The Open Source CFD Toolbox           |
|  \\    /   O peration     | Version:  4.1                                   |
|   \\  /    A nd           | Web:      www.OpenFOAM.org                      |
|    \\/     M anipulation  |                                                 |
\*---------------------------------------------------------------------------*/
FoamFile
{
    version     2.0;
    format      ascii;
    class       surfaceScalarField;
    location    "23";
    object      phi;
}
// * * * * * * * * * * * * * * * * * * * * * * * * * * * * * * * * * * * * * //

dimensions      [0 3 -1 0 0 0 0];

internalField   nonuniform List<scalar> 
13220
(
-801.007
2100.91
-1243.1
1742.3
-1698
1754.8
-2027.86
1629.77
-2295.51
1567.85
-2483.05
1487.44
-2598.99
1415.84
-2642.18
1343.39
-2616.4
1274.12
-2519.56
1203.07
-2348.09
1128.73
-2093.53
1045.34
-1701.18
907.547
-1036.34
635.365
263.561
-171.525
2272.43
-380.629
1951.4
-610.448
1984.62
-772.753
1792.07
-921.944
1717.04
-1020.01
1585.51
-1086.27
1482.11
-1114.96
1372.07
-1114.1
1273.26
-1087.27
1176.25
-1034.88
1076.33
-942.592
953.057
-777.95
742.906
-484.988
342.405
-221.426
-110.38
2382.81
-263.906
2104.93
-363.872
2084.58
-418.12
1846.32
-461.635
1760.56
-470.5
1594.37
-465.276
1476.88
-425.314
1332.11
-323.166
1171.12
-137.148
990.23
91.9564
847.228
292.054
752.965
401.766
633.202
331.787
412.397
110.361
-54.6752
2437.49
-132.679
2182.93
-190.666
2142.57
-256.873
1912.53
-327.272
1830.96
-402.422
1669.52
-489.284
1563.75
-556.622
1399.45
-547.215
1161.71
-394.806
837.822
-117.443
569.868
188.324
447.199
410.239
411.287
391.436
431.201
501.797
-83.1927
2520.68
-217.228
2316.97
-323.359
2248.7
-443.938
2033.11
-571.977
1958.99
-705.195
1802.74
-855.609
1714.16
-1012.13
1555.97
-1168.38
1317.96
-1278.91
948.36
-1278.55
569.507
-1101.96
270.606
-759.806
69.1375
-357.955
29.3543
143.842
60.4441
2460.24
-65.7373
2443.15
-108.907
2291.87
-139.843
2064.05
-161.237
1980.39
-172.994
1814.5
-172.818
1713.99
-181.526
1564.68
-241.573
1378.01
-390.67
1097.46
-590.065
768.902
-750.926
431.46
-769.845
88.0503
-571.493
-169.005
-427.651
223.004
2237.24
185.245
2480.91
231.723
2245.4
307.718
1988.05
406.486
1881.62
508.618
1712.37
633.02
1589.59
755.229
1442.47
841.748
1291.49
829.658
1109.54
701.535
897.025
474.427
658.572
188.26
374.222
-13.37
32.6312
-441.021
214.875
2022.36
231.748
2464.04
283.698
2193.45
358.527
1913.22
450.687
1789.46
539.467
1623.59
635.828
1493.22
729.811
1348.48
810.654
1210.64
850.199
1070
828.098
919.126
732.127
754.538
553.886
552.457
287.574
298.933
-153.446
137.482
1884.88
178.632
2422.89
216.822
2155.25
267.694
1862.35
332.45
1724.7
389.279
1566.76
443.414
1439.09
487.863
1304.03
522.43
1176.08
541.297
1051.13
535.21
925.213
491.933
797.818
392.657
651.735
220.315
471.281
66.8685
73.415
1811.46
141.79
2354.51
197.691
2099.35
259.505
1800.53
330.612
1653.6
391.828
1505.54
447.052
1383.86
495.392
1255.69
539.306
1132.16
577.64
1012.8
595.657
907.195
566.202
827.269
457.084
760.85
254.298
674.058
321.167
-13.9589
1825.42
90.3292
2250.22
182.045
2007.64
258.404
1724.17
346.654
1565.35
452.96
1399.23
575.133
1261.69
710.93
1119.9
845.817
997.276
952.578
906.034
985.985
873.787
906.738
906.517
694.527
973.059
387.204
981.381
708.371
-124.452
1949.87
-79.5693
2205.34
-11.1059
1939.17
-4.61741
1717.68
14.7393
1545.99
85.9309
1328.04
214.657
1132.96
388.973
945.578
585.408
800.839
759.864
731.577
848.46
785.189
796.837
958.138
592.571
1177.32
297.801
1276.15
1006.17
-8.16654
1958.04
-190.186
2387.36
-371.632
2120.62
-529.912
1875.96
-653.689
1669.76
-749.529
1423.88
-814.42
1197.85
-848.214
979.371
-839.147
791.772
-768.885
661.314
-623.494
639.798
-418.917
753.56
-210.879
969.284
-73.6636
1138.93
932.508
568.945
1389.09
670.799
2285.5
415.142
2376.27
58.4033
2232.7
-301.772
2029.94
-654.3
1776.41
-981.442
1524.99
-1286.22
1284.15
-1551.76
1057.31
-1740.61
850.163
-1784.17
683.355
-1609.78
579.169
-1193.29
552.797
-612.95
558.591
319.558
912.899
2053.6
2734.26
3134.36
3339.04
3307.76
3096.66
2802.96
2389.88
1897.2
1380.62
896.879
520.567
261.18
5.16106e-06
422.14
-422.14
422.14
422.14
422.14
950.19
-528.05
950.19
950.19
950.19
1365.84
-415.653
1365.84
1365.84
1674.45
-308.607
1674.45
1674.45
1674.45
1889.05
-214.603
1889.05
1889.05
2007.64
-118.59
2007.64
2007.64
2007.64
2033.74
-26.0968
2033.74
2033.74
2033.74
1978
55.7427
1978
1978
1855.51
122.485
1855.51
1855.51
1855.51
1688.36
167.153
1688.36
1688.36
1499.95
188.412
1499.95
1499.95
1499.95
1340.65
159.295
1340.65
1340.65
1340.65
1303.21
37.4389
1303.21
1303.21
1193.55
109.658
1193.55
1193.55
1193.55
965.276
228.279
965.276
965.276
965.276
625.716
339.561
625.716
625.716
241.883
383.833
241.883
241.883
241.883
-289.481
531.363
-289.481
-289.481
-1438.7
1149.22
-1438.7
-1438.7
-1438.7
-3058.45
1619.75
-3058.45
-3058.45
-3058.45
-5073.34
2014.89
-5073.34
-5073.34
-7375.31
2301.97
-7375.31
-7375.31
-7261.9
-7154.59
-7050.62
-9387.6
2439.57
-9270.96
-9131.72
-8977.96
-8824.18
-8669.24
-8515
-8357.14
-8185.83
-10567.6
2546.5
-10385.5
-10205.5
-10027.3
-9828.04
-9628.11
-9427.88
-9227.79
-9027.4
-11379.6
2558.78
-11154.3
-10928
-10700.7
-10472.9
-10236.8
-9984.94
-9731.49
-9475.3
-9218.07
-11493.3
2519.6
-11217.1
-10940.7
-10664.8
-10389.8
-10115.5
-9824.37
-9523.51
-9222.91
-11099.3
2165.53
-10805.8
-10501.6
-10178.7
-9854.45
-9527.85
-9200.68
-8871.64
-8515.91
-9950.97
1776.62
-9613.51
-9280.82
-8951.54
-8608.18
-8261.33
-7919.14
-7578.26
-7240.64
-7932.29
1035.03
-7589.32
-7247.45
-6904.18
-6561.05
-6219.9
-5885.71
-5556.31
-5233.41
-4922.17
-4904.64
290.14
-4647.14
-4418.16
-4197.75
-3988.6
-3788.99
-3633.2
-3550.54
-3464.43
-3040.27
-323.618
-2957.19
-2872.33
-2872.33
-2656.79
-215.534
-2408.27
-248.519
-2408.27
-2175.7
-232.575
-2175.7
-1944.63
-231.066
-1706.98
-237.658
-1706.98
-1464.36
-242.612
-1220.9
-243.467
-1220.9
-974.738
-246.159
-974.738
-726.524
-248.214
-494.194
-232.33
-494.194
-265.495
-228.698
-265.495
-45.266
-220.229
139.182
-184.448
139.182
293.273
-154.09
421.758
-128.485
421.758
513.07
-91.3127
513.07
555.899
-42.8289
559.792
-3.89276
559.792
550.511
9.28151
550.511
549.953
0.557221
581.586
-31.6329
581.586
639.677
-58.0905
710.309
-70.6326
710.309
784.191
-73.882
784.191
846.23
-62.0388
917.437
-71.2063
917.437
980.387
-62.9503
980.387
1025.29
-44.9063
1072.64
-47.3428
1072.64
1106.39
-33.7575
1137.74
-31.3447
1137.74
1162.94
-25.2001
1162.94
1176.52
-13.5842
1188.91
-12.3904
1188.91
1201.43
-12.516
1201.43
1208.17
-6.74383
1213.38
-5.20631
1213.38
1219.03
-5.64726
1220.4
-1.37848
1220.4
1227.52
-7.11306
1227.52
1234.1
-6.57838
1238.88
-4.78769
1238.88
1251.67
-12.7851
1251.67
1267.48
-15.8152
1284.99
-17.5068
1284.99
1312.62
-27.6269
1342.64
-30.0235
1342.64
1386.66
-44.0164
1386.66
-48.9043
-222.95
-793.808
-225.296
-896.932
-228.296
-931.927
-231.864
-987.801
-236
-1028.34
-240.687
-1074.28
-245.872
-1115.52
-251.582
-1158.58
-257.852
-1200.75
-264.989
-1243.65
-273.853
-1285.54
-286.388
-1324.26
-305.896
-1355.05
-336.587
-1372.33
-381.895
-1371.86
-442.188
-1354.09
-513.428
-1325.26
-588.061
-1295.04
-657.714
-1272.05
-715.947
-1260.33
-759.618
-1258.9
-788.646
-1263.67
-804.908
-1270.2
-811.043
-1275.82
-809.596
-1280.49
-802.592
-1286.26
-791.446
-1295.59
-777.097
-1309.59
-760.246
-1326.99
-741.583
-1344.39
-721.947
-1356.81
-702.426
-1357.85
-684.625
-1340.36
-670.776
-1302.79
-659.53
-1252.21
-631.974
-1125
-564.568
-624.967
-500.932
341.064
-473.286
902.743
-450.815
1163.19
-428.253
1383.62
-405.719
1626.94
-383.344
1883.24
-361.128
2145.76
-339.109
2407.66
-317.375
2662.5
-295.812
2906
-274.204
3136.06
-252.278
3350.97
-229.684
3548
-206.346
3722.47
-182.388
3871.48
-157.871
3996.43
-132.49
4099.39
-106.305
4171.63
-79.8018
4206.49
-53.4043
4204.28
-27.8477
4152.73
-4.44655
4019.68
14.9156
3762.43
28.7801
3390.08
37.9646
3015.33
43.7095
2678.46
47.2458
2384.75
49.6539
2129.47
51.6054
1898.03
53.3669
1666.36
55.3948
1469.12
57.1681
1234.08
59.7734
1055.53
61.0769
675.358
75.373
524.03
73.2884
-116.768
56.5303
-1130.79
30.847
-1909.45
21.8958
-2315.36
6.13581
-2689.8
14.7292
-2797.32
2094.68
-234.258
-792.545
-236.418
-894.771
-239.61
-928.736
-243.373
-984.039
-247.803
-1023.91
-252.831
-1069.25
-258.389
-1109.96
-264.551
-1152.42
-271.537
-1193.76
-280.234
-1234.96
-292.699
-1273.08
-312.706
-1304.25
-345.333
-1322.42
-395.014
-1322.65
-462.419
-1304.45
-542.382
-1274.12
-624.999
-1242.64
-699.563
-1220.48
-758.541
-1213.07
-799.192
-1219.68
-822.718
-1235.37
-832.38
-1254.01
-831.88
-1270.7
-824.464
-1283.23
-812.578
-1292.37
-797.839
-1300.99
-781.177
-1312.26
-763.116
-1327.65
-744.12
-1345.98
-724.897
-1363.61
-706.544
-1375.17
-690.512
-1373.88
-678.65
-1352.22
-673.255
-1308.19
-673.033
-1252.43
-655.45
-1142.58
-577.779
-702.638
-491.421
254.706
-463.928
875.25
-445.855
1145.11
-423.429
1361.2
-401.124
1604.63
-379.586
1861.7
-358.233
2124.4
-337.029
2386.46
-316.007
2641.48
-295.016
2885.01
-273.864
3114.91
-252.29
3329.4
-229.962
3525.68
-206.822
3699.33
-183.008
3847.66
-158.59
3972.01
-133.275
4074.07
-107.135
4145.49
-80.6649
4180.02
-54.2921
4177.91
-28.7376
4127.18
-5.2863
3996.22
14.2029
3742.94
28.2697
3376.01
37.7291
3005.87
43.8382
2672.35
47.8349
2380.75
50.7907
2126.51
53.3293
1895.49
55.6302
1664.06
58.1554
1466.6
60.2046
1232.03
63.2463
1052.49
63.9221
674.682
82.2791
505.673
80.2632
-114.752
58.0491
-1108.58
30.7511
-1882.15
20.8983
-2305.51
6.96651
-2675.87
14.69
-2805.05
2065.35
-240.618
-791.164
-242.644
-892.746
-245.977
-925.403
-249.846
-980.169
-254.452
-1019.31
-259.662
-1064.04
-265.442
-1104.18
-271.982
-1145.88
-279.889
-1185.85
-290.903
-1223.94
-308.421
-1255.56
-337.53
-1275.15
-383.33
-1276.62
-447.753
-1258.22
-526.774
-1225.43
-610.797
-1190.1
-688.541
-1164.9
-751.545
-1157.48
-796.294
-1168.32
-823.514
-1192.46
-836.195
-1222.69
-837.888
-1252.32
-831.799
-1276.79
-820.498
-1294.53
-805.894
-1306.98
-789.278
-1317.61
-771.435
-1330.1
-752.9
-1346.18
-734.294
-1364.59
-716.603
-1381.3
-701.255
-1390.51
-689.916
-1385.22
-684.289
-1357.84
-686.049
-1306.43
-693.51
-1244.97
-684.369
-1151.72
-606.302
-780.704
-492.995
141.398
-451.758
834.014
-437.27
1130.62
-417.221
1341.15
-395.019
1582.43
-374.207
1840.89
-354.005
2104.2
-333.953
2366.41
-313.97
2621.5
-293.852
2864.89
-273.405
3094.46
-252.378
3308.37
-230.469
3503.77
-207.642
3676.5
-184.056
3824.08
-159.792
3947.75
-134.571
4048.85
-108.483
4119.4
-82.0374
4153.57
-55.6639
4151.53
-30.0674
4101.58
-6.50441
3972.66
13.184
3723.26
27.5319
3361.66
37.3587
2996.05
43.9511
2665.76
48.5673
2376.14
52.2766
2122.8
55.6459
1892.12
58.7628
1660.94
62.0029
1463.36
64.5666
1229.46
67.9923
1049.06
68.3207
674.353
86.3002
487.693
84.4306
-112.882
60.1715
-1084.32
31.6305
-1853.61
20.5403
-2294.42
7.96028
-2663.29
10.9131
-2808
2046.24
-248.236
-789.629
-250.161
-890.821
-253.666
-921.898
-257.677
-976.158
-262.491
-1014.49
-267.931
-1058.6
-274.046
-1098.07
-281.325
-1138.6
-291.109
-1176.07
-306.471
-1208.58
-332.407
-1229.62
-374.725
-1232.83
-436.825
-1214.52
-516.153
-1178.89
-603.501
-1138.08
-686.594
-1107.01
-755.356
-1096.13
-805.004
-1107.83
-835.723
-1137.6
-850.519
-1177.66
-853.161
-1220.05
-847.061
-1258.42
-834.963
-1288.89
-818.994
-1310.5
-800.78
-1325.19
-781.491
-1336.9
-761.932
-1349.66
-742.774
-1365.34
-724.895
-1382.47
-709.619
-1396.58
-698.665
-1401.47
-693.714
-1390.17
-695.947
-1355.61
-706.024
-1296.35
-721.68
-1229.32
-721.36
-1152.04
-646.601
-855.464
-506.971
1.76906
-442.425
769.467
-425.528
1113.73
-409.013
1324.63
-388.003
1561.42
-367.709
1820.59
-348.636
2085.13
-329.999
2347.77
-311.343
2602.84
-292.368
2845.92
-272.863
3074.95
-252.576
3288.08
-231.238
3482.43
-208.842
3654.11
-185.568
3800.8
-161.508
3923.69
-136.404
4023.75
-110.375
4093.37
-83.9414
4127.14
-57.5422
4125.13
-31.8697
4075.91
-8.15301
3948.94
11.7899
3703.31
26.4933
3346.96
36.7753
2985.76
43.9571
2658.58
49.3288
2370.76
53.9656
2118.17
58.3805
1887.71
62.5494
1656.77
66.7377
1459.17
70.0004
1226.2
73.9623
1045.1
73.9881
674.328
92.2015
469.48
90.7501
-111.431
63.5843
-1057.15
33.0099
-1823.04
20.1986
-2281.6
8.23166
-2651.33
8.45521
-2808.22
2027.07
-255.734
-787.904
-257.576
-888.979
-261.261
-918.213
-265.42
-971.998
-270.439
-1009.47
-276.145
-1052.89
-282.806
-1091.41
-291.52
-1129.89
-304.855
-1162.74
-327.606
-1185.83
-366.001
-1191.23
-424.864
-1173.96
-503.375
-1136.01
-593.143
-1089.13
-681.123
-1050.1
-755.556
-1032.58
-810.227
-1041.46
-844.744
-1073.31
-862.193
-1120.15
-866.633
-1173.22
-861.667
-1225.02
-850.048
-1270.03
-833.842
-1305.09
-814.703
-1329.64
-794.034
-1345.86
-773.015
-1357.92
-752.638
-1370.03
-733.905
-1384.07
-718.111
-1398.26
-706.971
-1407.72
-702.347
-1406.09
-705.541
-1386.97
-716.653
-1344.5
-734.801
-1278.2
-757.167
-1206.95
-764.653
-1144.56
-696.905
-923.211
-534.696
-160.441
-438.022
672.793
-412.399
1088.1
-398.064
1310.3
-379.579
1542.94
-360.281
1801.3
-342.185
2067.03
-325.069
2330.65
-308.029
2585.8
-290.486
2828.37
-272.183
3056.65
-252.862
3268.76
-232.275
3461.84
-210.45
3632.28
-187.588
3777.94
-163.797
3899.9
-138.845
3998.8
-112.883
4067.41
-86.4493
4100.71
-59.9946
4098.68
-34.2017
4050.12
-10.2738
3925.02
9.99298
3683.05
25.127
3331.83
35.9503
2974.94
43.8255
2650.7
50.0878
2364.5
55.8282
2112.43
61.5083
1882.03
66.9737
1651.31
72.3591
1453.78
76.5294
1222.03
81.2111
1040.42
81.0317
674.507
98.9355
451.576
97.5942
-110.09
67.9303
-1027.49
35.0263
-1790.13
20.0227
-2266.6
8.1588
-2639.46
3.16675
-2803.23
2012.73
-263.435
-785.948
-265.211
-887.204
-269.087
-914.336
-273.405
-967.681
-278.653
-1004.23
-284.773
-1046.77
-292.51
-1083.67
-304.054
-1118.35
-323.712
-1143.08
-357.947
-1151.59
-412.805
-1136.37
-489.468
-1097.3
-580.885
-1044.59
-673.625
-996.387
-754.161
-969.566
-814.516
-972.221
-853.446
-1002.53
-874.059
-1052.7
-880.786
-1113.42
-877.537
-1176.47
-867.143
-1235.41
-851.547
-1285.63
-832.22
-1324.42
-810.504
-1351.36
-787.771
-1368.59
-765.408
-1380.28
-744.809
-1390.63
-727.494
-1401.39
-715.264
-1410.49
-710.117
-1412.86
-713.678
-1402.53
-726.286
-1374.36
-746.372
-1324.41
-771.231
-1253.34
-797.821
-1180.36
-811.098
-1131.28
-752.16
-982.149
-572.858
-339.743
-439.798
539.733
-399.749
1048.06
-384.765
1295.31
-369.027
1527.2
-351.798
1784.07
-334.838
2050.07
-319.16
2314.98
-303.914
2570.56
-288.085
2812.55
-271.249
3039.81
-253.131
3250.64
-233.496
3442.21
-212.4
3611.19
-190.07
3755.61
-166.629
3876.45
-141.876
3974.04
-115.999
4041.53
-89.5593
4074.27
-63.0224
4072.14
-37.0654
4024.16
-12.8681
3900.82
7.78984
3662.39
23.4228
3316.19
34.8616
2963.5
43.5182
2642.05
50.7855
2357.24
57.7813
2105.43
64.92
1874.89
71.9037
1644.32
78.7137
1446.97
83.9976
1216.75
89.5508
1034.86
89.3262
674.732
106.421
434.481
105.13
-108.799
73.2489
-995.606
37.6423
-1754.53
19.9433
-2248.9
7.68814
-2627.21
-1.69139
-2793.85
1995.23
-271.285
-783.724
-273
-885.489
-277.076
-910.26
-281.569
-963.188
-287.134
-998.66
-294.051
-1039.86
-303.973
-1073.75
-320.775
-1101.54
-350.729
-1113.12
-400.933
-1101.39
-474.611
-1062.69
-566.628
-1005.29
-663.686
-947.536
-750.556
-909.516
-817.135
-902.988
-860.965
-928.391
-885.047
-978.449
-894.27
-1043.48
-893.015
-1114.68
-884.342
-1185.14
-870.148
-1249.6
-851.656
-1304.12
-829.905
-1346.17
-806.102
-1375.16
-781.761
-1392.93
-758.679
-1403.37
-738.855
-1410.46
-724.47
-1415.77
-717.789
-1417.17
-720.746
-1409.91
-734.114
-1389.16
-756.603
-1351.88
-784.593
-1296.42
-813.641
-1224.3
-841.033
-1152.97
-857.331
-1114.98
-809.457
-1030.02
-621.798
-527.403
-449.346
367.281
-388.717
987.427
-370.152
1276.75
-356.026
1513.07
-341.711
1769.75
-326.609
2034.97
-312.373
2300.74
-298.928
2557.11
-285.04
2798.66
-269.943
3024.72
-253.273
3233.97
-234.809
3423.74
-214.622
3591
-192.961
3733.95
-169.968
3853.46
-145.475
3949.55
-119.714
4015.77
-93.2718
4047.82
-66.6338
4045.51
-40.4753
3998
-15.9562
3876.3
5.15487
3641.28
21.3507
3300
33.4746
2951.38
42.9937
2632.53
51.3696
2348.86
59.7577
2097.04
68.531
1866.12
77.2363
1635.62
85.6828
1438.53
92.2749
1210.15
98.8485
1028.29
98.7549
674.825
114.672
418.564
113.26
-107.387
79.4221
-961.768
40.8629
-1715.97
19.9251
-2227.96
6.72298
-2614
-5.48127
-2781.65
1976.96
-279.31
-781.191
-280.961
-883.838
-285.246
-905.975
-289.975
-958.459
-296.117
-992.518
-304.684
-1031.29
-318.847
-1059.58
-344.627
-1075.76
-389.658
-1068.09
-459.239
-1031.81
-550.571
-971.36
-651.204
-904.652
-744.451
-854.289
-817.78
-836.187
-867.065
-853.703
-894.965
-900.491
-906.843
-966.571
-907.693
-1042.63
-900.964
-1121.41
-888.642
-1197.47
-871.777
-1266.47
-851.059
-1324.84
-827.292
-1369.94
-801.733
-1400.72
-776.252
-1418.42
-753.284
-1426.33
-735.639
-1428.1
-726.193
-1425.22
-727.385
-1415.98
-740.429
-1396.86
-764.46
-1365.13
-796.043
-1320.29
-829.586
-1262.88
-859.474
-1194.41
-883.86
-1128.58
-899.679
-1099.16
-864.725
-1064.98
-683.456
-708.671
-470.738
154.563
-379.958
896.647
-355.097
1251.89
-340.892
1498.87
-329.435
1758.3
-317.177
2022.71
-304.779
2288.34
-293.095
2545.43
-281.249
2786.81
-268.145
3011.61
-253.182
3219.01
-236.121
3406.68
-217.043
3571.92
-196.21
3713.12
-173.781
3831.03
-149.627
3925.4
-124.026
3990.17
-97.5947
4021.39
-70.8447
4018.76
-44.4532
3971.61
-19.5632
3851.41
2.06037
3619.65
18.8793
3283.18
31.7556
2938.5
42.2162
2622.07
51.8001
2339.28
61.7113
2087.13
72.2865
1855.54
82.9052
1625
93.1888
1428.24
101.273
1202.07
109.015
1020.55
109.232
674.608
123.7
404.096
121.955
-105.642
86.3985
-926.212
44.6791
-1674.25
19.9864
-2203.27
5.15518
-2599.17
-12.6518
-2763.84
1959.52
-287.519
-778.307
-289.095
-882.262
-293.62
-901.45
-298.763
-953.316
-306.111
-985.17
-318.009
-1019.39
-339.767
-1037.83
-379.387
-1036.14
-443.821
-1003.66
-533.048
-942.583
-636.186
-868.222
-735.605
-805.233
-816.148
-773.746
-871.507
-780.828
-903.638
-821.572
-918.315
-885.814
-921.255
-963.631
-916.454
-1047.43
-906.134
-1131.73
-891.305
-1212.3
-872.392
-1285.38
-849.766
-1347.47
-824.189
-1395.52
-797.179
-1427.73
-771.207
-1444.39
-749.613
-1447.93
-736.155
-1441.56
-734.202
-1427.17
-745.701
-1404.48
-770.212
-1372.35
-804.498
-1330.85
-842.932
-1281.86
-878.637
-1227.17
-905.75
-1167.29
-923.589
-1110.74
-935.003
-1087.75
-912.493
-1087.49
-758.006
-863.158
-511.631
-91.812
-375.044
760.06
-339.912
1216.76
-324.342
1483.3
-314.773
1748.73
-305.994
2013.93
-296.257
2278.6
-286.492
2535.66
-276.681
2777
-265.742
3000.67
-252.747
3206.02
-237.333
3391.26
-219.58
3554.17
-199.754
3693.29
-178.025
3809.3
-154.305
3901.68
-128.922
3964.79
-102.529
3995
-75.6648
3991.89
-49.0152
3944.96
-23.7094
3826.1
-1.51748
3597.46
15.9802
3265.68
29.6729
2924.81
41.1515
2610.59
52.0388
2328.39
63.5987
2075.57
76.1355
1843
88.8495
1612.29
101.156
1415.94
110.9
1192.32
119.944
1011.51
120.641
673.911
133.436
391.3
131.117
-103.322
94.099
-889.194
49.087
-1629.24
20.2464
-2174.43
3.12973
-2582.06
-18.6597
-2742.05
1934.28
-295.921
-775.03
-297.416
-880.768
-302.289
-896.577
-308.302
-947.302
-318.174
-975.299
-336.321
-1001.24
-370.406
-1003.74
-428.899
-977.65
-514.503
-918.055
-618.788
-838.298
-723.855
-763.156
-811.947
-717.141
-874.034
-711.659
-910.897
-743.965
-928.566
-803.902
-933.559
-880.822
-930.557
-966.632
-922.156
-1055.83
-909.453
-1144.43
-892.734
-1229.01
-872.033
-1306.08
-847.596
-1371.9
-820.337
-1422.77
-792.281
-1455.79
-766.818
-1469.85
-748.459
-1466.29
-741.867
-1448.15
-750.3
-1418.74
-774.125
-1380.66
-810.232
-1336.24
-852.732
-1288.35
-894.441
-1240.15
-928.377
-1193.24
-949.451
-1146.22
-958.042
-1102.15
-961.218
-1084.57
-946.569
-1102.14
-828.345
-981.382
-567.042
-353.114
-376.804
569.822
-324.388
1164.34
-307.021
1465.93
-298.044
1739.75
-292.58
2008.47
-286.414
2272.44
-279.121
2528.37
-271.377
2769.26
-262.663
2991.96
-251.856
3195.21
-238.343
3377.75
-222.143
3537.97
-203.52
3674.67
-182.646
3788.43
-159.474
3878.51
-134.385
3939.7
-108.068
3968.68
-81.0987
3964.92
-54.1744
3918.03
-28.4142
3800.34
-5.60338
3574.65
12.6249
3247.45
27.1935
2910.24
39.764
2598.02
52.0474
2316.1
65.3788
2062.24
80.0316
1828.35
95.0141
1597.3
109.515
1401.44
121.07
1180.77
131.519
1001.06
132.844
672.586
143.837
380.308
140.707
-100.193
102.469
-850.955
54.0839
-1580.85
20.7445
-2141.09
0.7508
-2562.06
-23.0093
-2718.29
1904.16
-304.532
-771.306
-305.976
-879.324
-311.502
-891.052
-319.399
-939.406
-334.23
-960.468
-363.045
-972.428
-414.933
-951.854
-495.512
-897.07
-599.297
-814.27
-709.146
-728.448
-804.922
-667.38
-874.402
-647.661
-916.595
-669.465
-937.537
-723.024
-944.571
-796.868
-943.2
-882.193
-936.517
-973.315
-925.817
-1066.53
-911.36
-1158.89
-892.972
-1247.4
-870.494
-1328.56
-844.222
-1398.18
-815.441
-1451.56
-787.007
-1484.22
-763.605
-1493.25
-751.103
-1478.79
-754.649
-1444.61
-776.225
-1397.16
-813.244
-1343.64
-859.288
-1290.2
-906.333
-1241.3
-946.915
-1199.57
-975.254
-1164.9
-987.789
-1133.69
-985.577
-1104.37
-977.469
-1092.68
-963.409
-1116.2
-877.764
-1067.03
-627.171
-603.708
-389.446
332.097
-308.885
1083.78
-289.023
1446.07
-279.879
1730.6
-276.815
2005.41
-274.72
2270.34
-270.772
2524.42
-265.386
2763.87
-258.898
2985.47
-250.415
3186.73
-239.046
3366.38
-224.639
3523.56
-207.429
3657.46
-187.583
3768.58
-165.092
3856.02
-140.388
3914.99
-114.201
3942.49
-87.1474
3937.87
-59.9416
3890.83
-33.6968
3774.1
-10.2221
3551.18
8.78555
3228.45
24.2841
2894.74
38.0174
2584.28
51.7885
2302.33
67.0137
2047.01
83.9351
1811.43
101.355
1579.88
118.206
1384.58
131.705
1167.27
143.632
989.128
145.7
670.519
154.845
371.163
150.68
-96.0274
111.452
-811.728
59.6779
-1529.08
21.5278
-2102.94
-1.9684
-2538.57
-30.8472
-2689.41
1871.93
-313.39
-767.049
-314.944
-877.77
-321.85
-884.146
-333.61
-927.645
-357.35
-936.727
-402.459
-927.319
-476.638
-877.676
-578.162
-795.545
-691.527
-700.906
-794.868
-625.107
-872.366
-589.882
-920.586
-599.441
-945.178
-644.873
-954.3
-713.902
-954.397
-796.771
-949.186
-887.404
-940.249
-982.251
-927.913
-1078.86
-911.911
-1174.89
-891.82
-1267.49
-867.445
-1352.94
-839.305
-1426.32
-809.34
-1481.52
-781.658
-1511.9
-762.646
-1512.26
-759.436
-1482
-776.614
-1427.43
-813.157
-1360.62
-862.333
-1294.46
-914.682
-1237.85
-961.456
-1194.53
-996.443
-1164.58
-1015.99
-1145.35
-1018.36
-1131.32
-1004.86
-1117.86
-983.916
-1113.62
-963.277
-1136.84
-901.965
-1128.34
-690.02
-815.652
-419.179
61.2559
-295.813
960.413
-269.923
1420.18
-260.783
1721.46
-259.021
2003.64
-260.76
2272.08
-261.007
2524.67
-258.64
2761.5
-254.491
2981.32
-248.372
3180.61
-239.341
3357.35
-226.971
3511.19
-211.394
3641.88
-192.766
3749.95
-171.108
3834.36
-146.899
3890.78
-120.912
3916.51
-93.8071
3910.76
-66.3235
3863.35
-39.573
3747.35
-15.3956
3527
4.43502
3208.62
20.9113
2878.27
35.8743
2569.32
51.2246
2286.98
68.4682
2029.77
87.8121
1792.08
107.835
1559.86
127.184
1365.24
142.74
1151.71
156.185
975.683
159.073
667.631
166.398
363.838
160.994
-90.6243
121
-771.733
65.8876
-1473.97
22.7143
-2059.77
-4.89152
-2510.96
-35.8662
-2658.44
1830.42
-322.603
-762.087
-324.737
-875.636
-334.541
-874.342
-353.58
-908.606
-391.711
-898.596
-458.591
-860.439
-555.896
-780.371
-671.194
-680.248
-781.62
-590.48
-867.685
-539.042
-922.716
-534.85
-951.456
-570.701
-962.784
-633.545
-964.217
-712.469
-960.224
-800.764
-952.764
-894.864
-942.293
-992.722
-928.534
-1092.62
-910.929
-1192.49
-888.961
-1289.46
-862.528
-1379.37
-832.587
-1456.26
-802.123
-1511.98
-777.033
-1536.99
-765.695
-1523.6
-775.841
-1471.85
-809.61
-1393.66
-861.05
-1309.18
-918.987
-1236.53
-972.419
-1184.42
-1013.83
-1153.12
-1039.42
-1138.98
-1047.93
-1136.84
-1039.21
-1140.05
-1014.61
-1142.46
-980.886
-1147.34
-948.855
-1168.87
-899.718
-1177.48
-739.957
-975.413
-461.538
-217.162
-288.635
787.509
-249.661
1381.2
-240.792
1712.6
-239.773
2002.63
-244.466
2276.78
-249.295
2529.5
-250.858
2763.07
-249.452
2979.92
-245.733
3176.89
-239.148
3350.77
-229.041
3501.09
-215.329
3628.17
-198.121
3732.74
-177.464
3813.7
-153.878
3867.2
-128.176
3890.81
-101.068
3883.66
-73.3225
3835.6
-46.0554
3720.08
-21.1437
3502.09
-0.453006
3187.92
17.0406
2860.77
33.2961
2553.07
50.3175
2269.96
69.7078
2010.38
91.6326
1770.16
114.428
1537.07
136.411
1343.25
154.124
1134
169.096
960.711
172.841
663.886
178.428
358.252
171.615
-83.8116
131.062
-731.18
72.7302
-1415.63
24.3724
-2011.41
-8.08025
-2478.51
-42.9036
-2623.61
1782.31
-332.448
-756.045
-336.268
-871.817
-351.763
-858.847
-383.193
-877.175
-441.819
-839.971
-533.231
-769.027
-648.428
-665.174
-765.097
-563.579
-860.099
-495.478
-922.818
-476.324
-956.342
-501.325
-970.085
-556.959
-972.758
-630.873
-969.742
-715.485
-963.458
-807.048
-954.543
-903.779
-942.761
-1004.5
-927.51
-1107.88
-908.103
-1211.9
-884.025
-1313.54
-855.417
-1407.98
-823.98
-1487.69
-794.282
-1541.68
-774.595
-1556.68
-775.202
-1522.99
-802.802
-1444.25
-854.48
-1341.98
-918.047
-1245.61
-979.178
-1175.4
-1027.83
-1135.77
-1059.42
-1121.53
-1072.98
-1125.42
-1069.19
-1140.63
-1049
-1160.24
-1013.77
-1177.69
-968.446
-1192.66
-923.582
-1213.73
-875.15
-1225.91
-755.749
-1094.81
-495.555
-477.357
-288.21
580.165
-229.554
1322.55
-219.642
1702.68
-219.507
2002.49
-226.165
2283.43
-235.25
2538.58
-241.561
2769.38
-243.652
2982.01
-242.528
3175.77
-238.429
3346.67
-230.755
3493.41
-219.142
3616.56
-203.567
3717.17
-184.093
3794.23
-161.276
3844.38
-135.962
3865.49
-108.914
3856.61
-80.9361
3807.62
-53.1533
3692.3
-27.4874
3476.42
-5.90719
3166.34
12.639
2842.23
30.2441
2535.46
49.0281
2251.18
70.6989
1988.71
95.3704
1745.49
121.111
1511.33
145.863
1318.5
165.818
1114.05
182.304
944.225
186.905
659.284
190.87
354.287
182.509
-75.4513
141.584
-690.255
80.219
-1354.27
26.613
-1957.8
-11.2752
-2440.62
-48.5551
-2586.33
1727.01
-343.553
-748.14
-351.284
-864.086
-376.964
-833.167
-427.133
-827.006
-510.731
-756.373
-623.758
-656
-745.262
-543.67
-849.352
-459.489
-920.674
-424.156
-959.798
-437.2
-976.287
-484.836
-980.151
-553.095
-977.879
-633.144
-972.476
-720.889
-964.794
-814.729
-954.665
-913.909
-941.494
-1017.68
-924.535
-1124.83
-903.057
-1233.38
-876.644
-1339.95
-845.885
-1438.74
-813.676
-1519.9
-786.868
-1568.49
-776.582
-1566.97
-794.077
-1505.5
-842.176
-1396.15
-910.251
-1273.91
-980.301
-1175.56
-1037.83
-1117.86
-1076.35
-1097.25
-1095
-1102.89
-1095.16
-1125.26
-1078.69
-1157.11
-1047.14
-1191.79
-1001.94
-1222.89
-946.802
-1247.81
-890.566
-1269.97
-836.815
-1279.66
-742.212
-1189.42
-514.364
-705.205
-290.912
356.713
-211.89
1243.53
-197.571
1688.36
-198.251
2003.17
-206.387
2291.57
-218.836
2551.03
-230.214
2780.76
-236.752
2988.55
-238.727
3177.74
-237.193
3345.13
-232.045
3488.27
-222.739
3607.25
-209.021
3703.45
-190.927
3776.13
-169.04
3822.49
-144.234
3840.69
-117.324
3829.7
-89.1568
3779.46
-60.8731
3664.02
-34.4462
3449.99
-11.9529
3143.85
7.67909
2822.59
26.6815
2516.46
47.3163
2230.54
71.4081
1964.62
99.0026
1717.89
127.871
1482.46
155.525
1290.85
177.795
1091.78
195.764
926.256
201.182
653.866
203.662
351.807
193.65
-65.4393
152.502
-649.107
88.3618
-1290.13
29.4798
-1898.92
-14.4817
-2396.66
-52.328
-2548.49
1662.17
-357.174
-736.863
-372.724
-848.536
-414.729
-791.162
-489.447
-752.287
-597.654
-648.166
-722.27
-531.384
-835.148
-430.792
-916.009
-378.628
-961.735
-378.429
-981.48
-417.456
-986.561
-479.756
-984.813
-554.842
-979.99
-637.967
-973.222
-727.657
-964.406
-823.545
-952.974
-925.341
-938.184
-1032.47
-919.231
-1143.79
-895.401
-1257.21
-866.498
-1368.85
-833.881
-1471.35
-802.29
-1551.5
-781.674
-1589.11
-785.974
-1562.66
-825.113
-1466.36
-894.223
-1327.04
-973.626
-1194.5
-1042.42
-1106.77
-1089.77
-1070.51
-1114.31
-1072.72
-1118.43
-1098.77
-1104.93
-1138.75
-1076.15
-1185.9
-1033.9
-1234.03
-979.825
-1276.96
-916.977
-1310.65
-852.41
-1334.53
-792.397
-1339.67
-712.224
-1269.59
-523.589
-893.841
-294.466
127.59
-197.511
1146.57
-175.768
1666.62
-175.914
2003.32
-185.532
2301.19
-200.418
2565.92
-216.454
2796.79
-228.232
3000.32
-234.148
3183.66
-235.451
3346.44
-232.879
3485.69
-226.037
3600.41
-214.4
3691.82
-197.892
3759.63
-177.109
3801.71
-152.948
3816.52
-126.27
3803.02
-97.9721
3751.16
-69.2173
3635.26
-42.0358
3422.81
-18.6113
3120.43
2.13331
2801.85
22.5689
2496.02
45.1403
2207.97
71.8032
1937.96
102.511
1687.19
134.702
1450.26
165.394
1260.16
190.042
1067.13
209.449
906.849
215.616
647.699
216.755
350.667
205.019
-53.7032
163.746
-607.833
97.1628
-1223.55
32.999
-1834.76
-17.8556
-2345.8
-59.6737
-2506.67
1590.1
-375.542
-719.608
-404.826
-819.251
-469.759
-726.23
-571.15
-650.895
-696.263
-523.054
-817.263
-410.384
-908.441
-339.615
-961.992
-325.077
-985.728
-354.693
-992.178
-411.006
-990.762
-481.172
-986.21
-559.394
-980.029
-644.148
-972.192
-735.493
-962.14
-833.597
-949.157
-938.325
-932.45
-1049.17
-911.196
-1165.04
-884.758
-1283.65
-853.363
-1400.25
-819.644
-1505.07
-791.054
-1580.08
-781.355
-1598.8
-806.165
-1537.85
-870.017
-1402.51
-956.732
-1240.33
-1039.14
-1112.09
-1098.48
-1047.43
-1130.67
-1038.32
-1139.27
-1064.11
-1128.69
-1109.35
-1102.16
-1165.28
-1062.1
-1225.96
-1010.5
-1285.63
-949.239
-1338.22
-881.111
-1378.78
-811.643
-1404
-747.153
-1404.16
-675.311
-1341.43
-526.54
-1042.61
-299.6
-99.3499
-184.617
1031.59
-155.591
1637.59
-152.987
2000.71
-163.722
2311.92
-180.564
2582.76
-200.281
2816.51
-217.541
3017.58
-228.399
3194.51
-233.137
3351.17
-233.26
3485.82
-228.971
3596.12
-219.617
3682.46
-204.912
3744.92
-185.419
3782.22
-162.053
3793.16
-135.719
3776.69
-107.364
3722.8
-78.1833
3606.08
-50.2688
3394.9
-25.9075
3096.07
-4.03338
2779.98
17.8675
2474.12
42.4624
2183.38
71.8554
1908.56
105.883
1653.16
141.607
1414.54
175.48
1226.28
202.562
1040.05
223.349
886.062
230.169
640.88
230.108
350.728
216.603
-40.1978
175.243
-566.473
106.621
-1154.92
37.2523
-1765.39
-21.3096
-2287.24
-65.3921
-2462.59
1511.13
-402.118
-692.421
-452.531
-768.838
-544.709
-634.053
-667.915
-527.689
-795.418
-395.55
-897.53
-308.272
-960.271
-276.873
-989.03
-296.318
-997.187
-346.536
-995.98
-412.213
-991.389
-485.762
-985.45
-565.333