/*--------------------------------*- C++ -*----------------------------------*\
| =========                 |                                                 |
| \\      /  F ield         | OpenFOAM: The Open Source CFD Toolbox           |
|  \\    /   O peration     | Version:  4.1                                   |
|   \\  /    A nd           | Web:      www.OpenFOAM.org                      |
|    \\/     M anipulation  |                                                 |
\*---------------------------------------------------------------------------*/
FoamFile
{
    version     2.0;
    format      ascii;
    class       volVectorField;
    location    "23";
    object      U;
}
// * * * * * * * * * * * * * * * * * * * * * * * * * * * * * * * * * * * * * //

dimensions      [0 1 -1 0 0 0 0];

internalField   nonuniform List<vector> 
6785
(
(1.20609e-14 -2.31917 16.5289)
(1.11485e-14 -7.90851 12.9847)
(-3.19522e-15 -5.11731 13.7805)
(3.95989e-15 -5.05803 13.2892)
(1.01548e-15 -4.26957 13.1516)
(-2.27538e-18 -3.84749 12.8656)
(2.70117e-15 -3.42241 12.5705)
(5.66767e-16 -3.10265 12.2093)
(-6.547e-16 -2.85122 11.8029)
(1.73217e-15 -2.70863 11.3723)
(2.28133e-16 -2.6649 10.9885)
(-5.13234e-16 -2.73014 10.6991)
(6.95376e-16 -3.2326 10.2305)
(-2.43899e-16 -3.38175 9.35408)
(-1.61827e-16 -0.0935379 7.45329)
(1.86985e-14 -10.2156 26.9802)
(1.34509e-14 -16.3824 23.104)
(-2.99302e-15 -11.1805 23.4941)
(4.52168e-15 -12.1156 21.5882)
(1.05207e-15 -10.3985 20.7156)
(1.35035e-15 -9.86559 19.4371)
(2.36656e-15 -8.95883 18.3395)
(1.8429e-16 -8.31085 17.2379)
(1.9747e-16 -7.68202 16.2264)
(1.29916e-15 -7.12337 15.1992)
(2.46006e-16 -6.52218 14.0436)
(3.58174e-16 -5.73148 12.5723)
(4.79988e-16 -4.46494 10.0293)
(-6.44315e-16 -2.10669 4.99383)
(-7.70352e-16 0.739981 -1.38699)
(2.129e-14 -12.5451 27.8133)
(1.22807e-14 -16.6614 24.335)
(-2.24852e-15 -11.6542 24.2836)
(4.31374e-15 -12.9337 21.5713)
(1.14932e-15 -10.6745 20.5352)
(1.58027e-15 -10.3206 18.6495)
(1.44104e-15 -9.15127 17.2417)
(1.57644e-16 -8.4518 15.7193)
(9.46263e-17 -7.69892 14.3695)
(8.74274e-17 -7.19971 13.0803)
(-1.07439e-16 -6.83824 11.8638)
(-3.00422e-16 -6.30114 10.3819)
(-1.91973e-15 -5.21705 7.98562)
(-2.13434e-15 -2.64229 3.87184)
(-2.05541e-15 -0.228385 -2.21534)
(2.22794e-14 -13.4621 27.4483)
(9.81164e-15 -16.1637 24.4881)
(-1.32146e-15 -12.0279 24.034)
(3.17353e-15 -13.0495 21.2453)
(3.22239e-16 -10.6721 20.2621)
(1.51627e-15 -10.3875 18.3039)
(5.2425e-17 -9.0143 16.9782)
(-7.4606e-16 -8.04799 15.1358)
(-5.46568e-17 -6.50233 12.7688)
(-8.81598e-16 -5.00603 9.89881)
(-7.78142e-16 -4.17807 7.87592)
(2.78608e-16 -4.41791 7.38701)
(-2.86013e-15 -4.68854 7.11011)
(-5.3144e-15 -4.31735 6.1081)
(-1.65118e-15 -3.56929 5.32481)
(2.20905e-14 -14.5276 28.694)
(7.96838e-15 -16.3964 25.7573)
(-7.51603e-16 -12.8651 25.2796)
(2.3739e-15 -13.5711 22.767)
(3.13719e-16 -11.267 21.875)
(1.41433e-15 -11.0556 20.102)
(-3.83539e-16 -9.61596 19.0044)
(-3.62404e-16 -8.58857 17.0598)
(3.09447e-16 -6.36205 13.9316)
(1.24067e-15 -3.55718 9.30426)
(5.33908e-15 -0.925078 5.06182)
(8.75432e-15 0.371191 2.56183)
(8.08727e-15 0.251826 1.99676)
(4.25772e-15 -1.18897 3.50767)
(1.0397e-15 -2.36301 5.66627)
(2.09395e-14 -15.1388 29.3269)
(8.46568e-15 -17.5585 27.5636)
(-1.25273e-15 -13.757 26.455)
(2.39331e-15 -14.6803 23.9594)
(4.22619e-17 -12.3648 23.1306)
(4.80576e-16 -12.4937 21.2655)
(-2.27661e-16 -11.1156 20.2712)
(-4.584e-16 -10.5647 18.5178)
(-1.06855e-15 -8.84745 16.0741)
(5.10211e-16 -6.49592 12.0564)
(2.85638e-15 -3.46497 7.445)
(3.204e-15 -0.651823 2.94224)
(1.99248e-15 2.11525 -1.34124)
(-3.04768e-15 3.65325 -3.87261)
(-2.3355e-15 2.24179 -3.70981)
(1.92963e-14 -14.5644 27.3482)
(1.12487e-14 -18.2531 28.7149)
(-6.92733e-16 -14.3681 26.3519)
(2.03158e-15 -14.8448 23.5847)
(3.92158e-16 -12.9491 22.486)
(1.20295e-16 -12.8627 20.5431)
(4.10172e-16 -11.7771 19.2374)
(-5.65468e-17 -11.2506 17.5644)
(-6.56587e-16 -10.2764 15.7516)
(3.44768e-16 -8.99973 13.358)
(5.38564e-16 -7.23828 10.4599)
(3.60968e-16 -5.03956 7.22641)
(1.8392e-15 -2.69247 3.59018)
(3.4687e-15 0.81111 -0.251219)
(-4.58688e-15 2.03282 -5.8852)
(1.88179e-14 -13.3687 24.4092)
(1.41863e-14 -17.9144 28.6637)
(1.57755e-15 -14.3272 25.6002)
(1.72522e-15 -14.0719 22.4619)
(1.45123e-15 -12.4303 21.1153)
(1.45856e-15 -12.0344 19.1643)
(1.18334e-15 -10.9982 17.6587)
(8.92138e-16 -10.2876 15.9562)
(1.13667e-15 -9.43669 14.2991)
(1.32467e-15 -8.50495 12.5325)
(9.14534e-16 -7.43258 10.5723)
(1.02808e-15 -5.99839 8.37837)
(2.07821e-15 -4.40586 5.67559)
(2.6202e-15 -1.70135 2.32224)
(-4.88814e-15 0.547753 -3.18683)
(1.85822e-14 -12.3823 22.3095)
(1.60966e-14 -17.2917 28.2438)
(2.87956e-15 -14.1639 25.0601)
(1.91389e-15 -13.373 21.7187)
(2.16148e-15 -11.8488 20.2115)
(1.5634e-15 -11.3015 18.3263)
(2.02435e-15 -10.2773 16.8053)
(1.98781e-15 -9.49492 15.163)
(1.02178e-15 -8.64807 13.626)
(2.02358e-15 -7.80814 12.1256)
(2.40771e-15 -6.97429 10.592)
(5.34638e-16 -5.93635 8.9663)
(1.68146e-15 -4.81153 6.96437)
(2.89032e-15 -2.86912 4.36964)
(-7.88675e-15 -0.512089 -0.61431)
(1.82798e-14 -11.7911 21.1311)
(1.72497e-14 -16.653 27.6127)
(4.10684e-15 -14.026 24.6283)
(6.65662e-16 -12.9322 21.2023)
(2.06059e-15 -11.5119 19.5215)
(1.71174e-15 -10.9242 17.7671)
(8.43894e-16 -10.0269 16.3393)
(1.79517e-15 -9.30499 14.8552)
(1.50907e-15 -8.5478 13.4437)
(-9.63056e-17 -7.79911 12.0578)
(5.27956e-16 -7.08095 10.677)
(-2.04687e-17 -6.27464 9.36149)
(-1.41264e-15 -5.48462 7.98127)
(1.90327e-15 -4.12569 6.37501)
(-4.70677e-15 -1.71216 1.82876)
(1.69092e-14 -11.54 20.7209)
(1.83739e-14 -15.9359 26.7637)
(1.60156e-15 -13.6217 23.8508)
(-6.39479e-16 -12.4155 20.3957)
(3.04407e-15 -11.0591 18.6878)
(-2.25084e-15 -10.5423 17.018)
(-1.75786e-15 -9.77131 15.6493)
(2.0725e-15 -9.18341 14.1797)
(-2.64836e-15 -8.54783 12.7401)
(-4.45416e-15 -7.96252 11.3841)
(-7.87752e-16 -7.4817 10.3323)
(-3.25392e-15 -7.1379 9.80468)
(-4.34058e-15 -6.87773 9.66852)
(-4.57687e-15 -6.15359 9.29907)
(-8.29604e-15 -3.92161 5.83474)
(1.67012e-14 -11.9404 21.355)
(1.56238e-14 -14.653 25.1452)
(-3.18378e-15 -12.6765 22.4609)
(9.71785e-17 -11.4669 19.374)
(2.01705e-15 -9.9193 17.4353)
(-5.25841e-15 -9.05303 15.2919)
(2.64189e-16 -7.98353 13.5033)
(4.42425e-15 -7.30401 11.7313)
(-3.45206e-15 -6.72707 10.3465)
(-2.90945e-15 -6.58796 9.57882)
(-5.67999e-16 -6.93736 9.87071)
(-6.88253e-15 -7.77369 11.1429)
(-5.26137e-15 -8.47343 12.8017)
(-8.00716e-15 -8.53384 13.3732)
(-1.08078e-14 -6.23904 10.5281)
(1.54605e-14 -13.5153 23.8829)
(1.11632e-14 -15.186 25.9327)
(-5.37134e-15 -12.3458 22.4964)
(-4.34425e-16 -11.3662 20.4831)
(9.52346e-17 -9.66043 18.4615)
(-1.19386e-15 -8.04975 15.5961)
(4.78336e-15 -6.23325 12.8878)
(7.19348e-15 -4.75043 10.3193)
(3.36591e-15 -3.53496 8.34027)
(2.42967e-15 -3.10963 7.47752)
(-9.58e-16 -3.79967 8.40092)
(-5.08206e-15 -5.65916 11.1172)
(-5.27269e-15 -7.92664 14.5112)
(-8.83486e-15 -9.45968 16.2288)
(-1.01896e-14 -6.96988 12.8652)
(1.23339e-14 -12.3747 20.9812)
(1.2982e-14 -18.0633 28.9356)
(-1.30916e-15 -15.8658 26.1937)
(-2.72142e-15 -13.5086 22.5289)
(-2.23048e-15 -11.1215 19.7365)
(-6.21313e-16 -9.12036 16.9004)
(5.14196e-15 -7.06371 14.392)
(7.60039e-15 -5.22234 11.9097)
(7.2028e-15 -3.37696 9.55572)
(5.57062e-15 -1.8029 7.41705)
(2.59204e-15 -0.763105 6.00877)
(-2.9255e-16 -0.779536 5.92548)
(-2.22702e-15 -2.18979 7.53133)
(-4.48055e-15 -4.33896 9.72371)
(-4.99772e-15 -3.93994 8.132)
(6.01763e-15 -6.93373 11.5653)
(1.34641e-14 -16.2399 24.0378)
(1.16256e-14 -20.327 28.825)
(8.11134e-15 -21.3735 29.1515)
(5.13354e-15 -20.6592 27.3025)
(2.89376e-15 -19.0993 24.2537)
(2.1521e-15 -16.9514 20.9221)
(2.24386e-15 -14.7577 17.8579)
(2.43939e-15 -12.5799 14.97)
(2.37508e-15 -10.3575 12.3335)
(2.19989e-15 -8.1743 9.91854)
(1.81315e-15 -6.04587 7.61185)
(1.04093e-15 -4.10966 5.39763)
(1.94323e-16 -2.42418 3.36854)
(-5.39416e-16 0.20819 -0.369898)
(-1.21993e-15 40.3038 5.40553)
(-3.57149e-15 11.1548 -0.286506)
(-2.91573e-15 -1.38308 -1.68922)
(-2.85397e-15 1.16342 -1.84266)
(-2.64302e-15 0.800552 -1.67539)
(-4.01041e-15 0.957213 -2.7246)
(-2.95009e-15 1.07813 -1.88911)
(-2.8898e-15 1.379 -1.83316)
(-2.79312e-15 1.37977 -1.73607)
(-3.49779e-15 1.88742 -2.36889)
(-2.31666e-15 1.70971 -1.65948)
(-1.9778e-15 1.89014 -1.59814)
(-2.86058e-15 2.43888 -2.04169)
(-1.9771e-15 2.02898 -1.43929)
(-1.87112e-15 2.31418 -1.44019)
(-1.63546e-15 2.28366 -1.42861)
(-2.38523e-15 2.80821 -1.7187)
(-1.52344e-15 2.3784 -1.21334)
(-1.29564e-15 2.54659 -1.17569)
(-1.8918e-15 3.10668 -1.3234)
(-1.20105e-15 2.46285 -0.943338)
(-1.11172e-15 2.75944 -0.927117)
(-8.31432e-16 2.66613 -0.907196)
(-1.18737e-15 3.22304 -0.935216)
(-6.31341e-16 2.53255 -0.667069)
(-4.8199e-16 2.8063 -0.625922)
(-4.25592e-16 2.70563 -0.592889)
(-5.94847e-16 3.14392 -0.481886)
(-3.17969e-16 2.52394 -0.317061)
(-2.11214e-16 2.63876 -0.29012)
(-2.52821e-16 3.07459 -0.056902)
(-1.09075e-16 2.33361 -0.0452529)
(-1.98888e-17 2.55079 -0.0176406)
(-5.404e-17 2.43276 -0.0241454)
(-7.01111e-17 2.75928 0.253083)
(7.00438e-17 2.16591 0.161355)
(8.70024e-17 2.24059 0.123063)
(1.28869e-16 2.56114 0.431312)
(7.2843e-17 1.90493 0.256593)
(-2.60135e-17 2.06684 0.246901)
(-4.98498e-18 1.94976 0.208505)
(-1.40622e-16 2.24758 0.488503)
(-3.60859e-16 1.7069 0.32308)
(-5.43406e-16 1.8431 0.316118)
(-6.97711e-16 1.7298 0.285665)
(-1.46107e-15 2.0156 0.479745)
(-1.44929e-15 1.69544 0.407516)
(-1.57081e-15 1.72071 0.354778)
(-2.75391e-15 1.9468 0.603653)
(-2.04217e-15 1.54383 0.408502)
(-2.2355e-15 1.63525 0.380907)
(-2.37267e-15 1.55055 0.341474)
(-3.62391e-15 1.63854 0.543872)
(-2.88846e-15 1.24127 0.238238)
(-3.13383e-15 1.30177 0.19715)
(-3.05194e-15 1.26952 0.207492)
(-4.44962e-15 1.19673 0.0609743)
(-3.59828e-15 0.781936 -0.454223)
(-3.90803e-15 0.83453 -0.374205)
(-5.83491e-15 0.859264 -1.55245)
(-4.90707e-15 0.127865 -2.09216)
(-5.03568e-15 0.278646 -2.20741)
(-5.37657e-15 0.496574 -2.41099)
(-2.32798e-15 0.913259 -2.23003)
(-7.56141e-16 -0.690595 1.30573)
(-7.24493e-16 -0.219166 0.833304)
(-6.50073e-16 -0.939791 2.96933)
(-2.90172e-16 -1.73877 3.83838)
(-2.79134e-16 -1.93562 3.7543)
(-3.98072e-16 -1.94302 3.94064)
(-5.59222e-16 -3.28433 6.89553)
(-4.86824e-16 -3.75546 6.19923)
(-6.73211e-16 -4.30057 6.4029)
(-7.96033e-16 -4.25107 6.63951)
(-9.2862e-16 -6.40376 10.4685)
(-5.29687e-16 -6.62219 8.5335)
(-6.12635e-16 -6.75741 9.13732)
(-4.43464e-16 -9.36235 13.4497)
(-1.8984e-16 -9.13715 10.4666)
(-6.08131e-17 -9.68763 11.1268)
(7.972e-17 -10.3292 12.4569)
(2.61809e-16 -10.3252 12.1674)
(3.84331e-16 -10.3907 12.3203)
(1.16129e-15 -12.4894 15.4439)
(9.60759e-16 -11.2819 13.3041)
(1.17065e-15 -11.6132 13.8751)
(1.25266e-15 -11.5905 13.9481)
(1.34233e-15 -11.7309 14.0137)
(1.45084e-15 -11.8118 14.096)
(1.57467e-15 -11.9283 14.204)
(1.71458e-15 -12.0548 14.4509)
(1.86626e-15 -12.1131 14.7828)
(2.51532e-15 -13.2373 16.8167)
(2.27036e-15 -12.6484 15.3566)
(2.36145e-15 -12.8855 15.4959)
(2.38047e-15 -12.8395 15.5257)
(2.52806e-15 -13.0586 15.8768)
(2.64101e-15 -13.0294 15.813)
(2.76562e-15 -13.1629 15.8959)
(2.89523e-15 -13.2329 15.9693)
(3.01253e-15 -13.2918 16.1057)
(3.62358e-15 -14.0437 17.8371)
(3.4347e-15 -13.5125 16.8303)
(3.61913e-15 -13.6636 17.0548)
(3.72155e-15 -13.6869 17.1444)
(3.81671e-15 -13.772 17.3181)
(3.85538e-15 -13.8076 17.6254)
(3.8856e-15 -13.9249 18.0105)
(3.94337e-15 -13.9329 18.166)
(3.99205e-15 -14.0132 18.3731)
(4.04618e-15 -14.1214 18.511)
(4.26448e-15 -13.9602 19.1116)
(3.69716e-15 -13.8218 18.5751)
(3.74971e-15 -13.9076 18.5957)
(3.74527e-15 -13.9153 18.517)
(3.75959e-15 -13.9838 18.4902)
(3.78596e-15 -13.9812 18.5215)
(3.83666e-15 -14.0513 18.8354)
(3.93136e-15 -14.009 18.9317)
(4.08316e-15 -14.1636 18.9185)
(4.61033e-15 -12.9408 17.8821)
(4.25371e-15 -13.255 18.3206)
(4.57296e-15 -13.2047 18.7077)
(4.72667e-15 -13.2273 19.1232)
(4.85668e-15 -13.1537 19.2262)
(4.99546e-15 -13.1774 19.4255)
(5.12703e-15 -13.1605 19.5671)
(5.27898e-15 -13.056 19.703)
(5.5106e-15 -13.3401 20.0305)
(5.40101e-15 -10.5683 16.5069)
(5.35238e-15 -11.6997 18.0537)
(5.25435e-15 -11.5438 17.5495)
(5.26751e-15 -11.5307 17.2555)
(5.53496e-15 -11.4592 17.1317)
(5.53066e-15 -11.3789 16.7132)
(5.55906e-15 -11.2328 16.2865)
(5.70756e-15 -11.0708 15.962)
(5.89058e-15 -11.1833 15.6032)
(6.11305e-15 -7.8204 11.4721)
(7.02221e-15 -9.24862 14.9722)
(7.20106e-15 -8.86111 14.7531)
(7.45275e-15 -8.85675 14.8972)
(7.679e-15 -8.62735 14.8107)
(7.91152e-15 -8.58789 14.6148)
(8.36273e-15 -8.35558 14.1426)
(7.83647e-15 -8.25059 13.6241)
(7.42018e-15 -7.99002 12.797)
(6.71283e-15 -7.93623 11.6377)
(3.786e-15 -4.17793 4.68428)
(5.38121e-15 -6.07157 8.24998)
(4.45154e-15 -5.57477 6.31089)
(3.90168e-15 -5.70929 5.53059)
(3.11395e-15 -5.3464 4.26414)
(2.26452e-15 -5.25872 3.03837)
(1.08398e-15 -5.03184 1.28537)
(1.89894e-16 -4.66334 -0.0702769)
(3.73153e-16 -4.73406 0.287967)
(-8.35419e-16 -3.80477 -2.09131)
(8.85779e-17 -4.02134 -0.110381)
(-5.66841e-17 -4.00536 -0.215378)
(-9.22015e-16 -2.7825 -1.7421)
(-7.39334e-16 -4.56886 -1.48549)
(-9.55554e-16 -3.32927 -1.32911)
(-7.84828e-16 -3.04323 -0.954759)
(-1.07712e-15 -3.62829 -1.35639)
(-7.77453e-16 -2.54238 -0.892351)
(-1.11393e-15 -3.04782 -1.35107)
(-8.66213e-16 -2.5486 -1.10543)
(-6.42216e-16 -2.11131 -0.852067)
(-9.2485e-16 -2.28994 -1.30147)
(-8.88326e-16 -1.88899 -1.08045)
(-7.94585e-16 -1.54901 -0.830134)
(-1.02297e-15 -1.73659 -1.20338)
(-8.3268e-16 -1.14946 -0.821132)
(-1.12115e-15 -1.24921 -1.29145)
(-8.60578e-16 -0.813196 -1.05275)
(-9.78074e-16 -0.650222 -0.81118)
(-1.1367e-15 -0.547334 -1.16174)
(-3.78694e-16 -0.297554 -0.790835)
(-4.6748e-16 -0.163803 -1.22869)
(-3.15917e-16 0.0684491 -0.968407)
(-4.3756e-16 0.18913 -0.623976)
(-1.89685e-16 0.301419 -0.847203)
(-2.19713e-15 0.503193 -0.857598)
(-1.95817e-15 0.480662 -0.584663)
(-1.61661e-15 0.775449 -0.741614)
(-4.26152e-16 0.629917 -0.570039)
(-2.09602e-15 0.831644 -0.727396)
(-3.50689e-15 0.802101 -0.978767)
(-2.03179e-15 0.627619 -0.719056)
(-1.40353e-15 0.952563 -1.03556)
(-4.29183e-16 0.687198 -0.80313)
(1.83464e-17 0.890018 -1.00977)
(-4.9338e-16 0.778877 -1.21647)
(-8.39496e-16 0.697744 -0.902843)
(-1.40555e-15 0.954983 -1.12865)
(-2.67884e-15 0.902528 -1.36519)
(-1.89531e-15 0.821169 -0.939424)
(-2.13612e-15 1.18037 -1.28052)
(-1.38715e-15 0.994726 -0.92557)
(-1.80168e-15 1.21722 -1.12993)
(-1.91671e-15 1.23478 -1.28997)
(-1.18439e-15 1.08621 -0.842155)
(-1.53489e-15 1.52363 -1.10876)
(-8.55146e-16 1.24462 -0.759234)
(-4.94617e-16 1.48831 -0.901191)
(-1.61623e-16 1.48856 -0.983196)
(1.75129e-17 1.31085 -0.634054)
(-4.91688e-18 1.61011 -0.742912)
(-6.00553e-16 1.61863 -0.776971)
(-8.11198e-16 1.33184 -0.491594)
(-1.50734e-15 1.84448 -0.623133)
(-1.30192e-15 1.45261 -0.416042)
(-1.85021e-15 1.66794 -0.48595)
(-2.39896e-15 1.73343 -0.500513)
(-1.58124e-15 1.40506 -0.327115)
(-1.95507e-15 1.92317 -0.419828)
(-1.09757e-15 1.49859 -0.288673)
(-8.75581e-16 1.72663 -0.340902)
(-4.44044e-16 1.74948 -0.331283)
(-1.41928e-16 1.4816 -0.211918)
(-3.40352e-16 1.76184 -0.237731)
(-8.81621e-16 1.80261 -0.19921)
(-1.04425e-15 1.4411 -0.136468)
(-2.16092e-15 1.9564 -0.161535)
(-1.95523e-15 1.53127 -0.107887)
(-2.602e-15 1.71724 -0.117414)
(-3.00961e-15 1.83289 -0.0741357)
(-1.81261e-15 1.47706 -0.0511107)
(-1.89008e-15 1.98063 -0.0607325)
(-9.5102e-16 1.56036 -0.0403545)
(-8.5658e-16 1.76476 -0.0543653)
(-3.61145e-16 1.84342 -0.0534483)
(4.1195e-17 1.58867 -0.0423189)
(3.39883e-16 1.83789 -0.0718796)
(9.75205e-16 1.95964 -0.111253)
(9.64203e-16 1.60781 -0.0852378)
(1.67914e-15 2.15392 -0.192545)
(1.41869e-15 1.72557 -0.13617)
(1.68366e-15 2.01311 -0.25924)
(2.93478e-21 1.0598 1.47848)
(7.13144e-21 1.1986 1.49383)
(8.23493e-21 1.2461 1.51041)
(-7.52352e-21 1.32126 1.53336)
(-9.0117e-20 1.37601 1.55827)
(-3.7468e-19 1.43791 1.58835)
(-1.1401e-18 1.4935 1.62085)
(-2.70016e-18 1.55154 1.65743)
(-4.5035e-18 1.60844 1.69701)
(-1.96409e-18 1.66674 1.74101)
(2.12986e-17 1.72481 1.79218)
(1.07401e-16 1.78113 1.8592)
(3.40877e-16 1.831 1.9593)
(8.54444e-16 1.86798 2.11932)
(1.80246e-15 1.88524 2.3685)
(3.29289e-15 1.87941 2.7234)
(5.30626e-15 1.85341 3.17241)
(7.65887e-15 1.81611 3.67328)
(1.00441e-14 1.77838 4.16754)
(1.21279e-14 1.7483 4.60201)
(1.36429e-14 1.72862 4.94399)
(1.44416e-14 1.7175 5.18427)
(1.45019e-14 1.7112 5.33102)
(1.3902e-14 1.70692 5.40109)
(1.27847e-14 1.70443 5.41281)
(1.13241e-14 1.70579 5.38179)
(9.69751e-15 1.71356 5.31942)
(8.06322e-15 1.7286 5.23318)
(6.5411e-15 1.74899 5.12811)
(5.19386e-15 1.7702 5.0085)
(4.01114e-15 1.7858 4.87927)
(2.90145e-15 1.78754 4.74669)
(1.6864e-15 1.76653 4.619)
(5.23728e-17 1.72146 4.5093)
(-2.50455e-15 1.6576 4.43401)
(-6.09136e-15 1.47009 4.36004)
(-8.41782e-15 0.758204 4.06734)
(-6.26546e-15 -0.488008 3.45838)
(-4.33431e-15 -1.21167 3.22475)
(-2.91251e-15 -1.56296 3.08148)
(-1.52321e-15 -1.85596 2.93069)
(-9.2495e-17 -2.17859 2.77965)
(1.42451e-15 -2.51922 2.62992)
(3.05332e-15 -2.86864 2.4814)
(4.79451e-15 -3.21779 2.33366)
(6.60537e-15 -3.55802 2.18777)
(8.40804e-15 -3.88367 2.04386)
(1.00987e-14 -4.1919 1.90027)
(1.15474e-14 -4.48046 1.75575)
(1.26281e-14 -4.74569 1.60793)
(1.32353e-14 -4.98099 1.4545)
(1.33008e-14 -5.18223 1.29676)
(1.28319e-14 -5.35129 1.13506)
(1.18936e-14 -5.49131 0.96988)
(1.05957e-14 -5.59026 0.796654)
(9.08085e-15 -5.6388 0.620736)
(7.45539e-15 -5.63742 0.443296)
(5.75376e-15 -5.56949 0.268771)
(3.98615e-15 -5.39158 0.102525)
(2.2809e-15 -5.04628 -0.0432797)
(8.9933e-16 -4.54616 -0.155667)
(1.94708e-16 -4.0437 -0.228075)
(-1.68648e-18 -3.59285 -0.278119)
(-1.3586e-17 -3.20042 -0.304671)
(-3.26421e-18 -2.85972 -0.32526)
(-3.48619e-20 -2.55072 -0.336763)
(1.38674e-19 -2.24098 -0.351244)
(2.67241e-20 -1.97677 -0.360292)
(-1.10061e-21 -1.6611 -0.378146)
(-1.37573e-21 -1.42142 -0.384203)
(-3.00107e-22 -0.910988 -0.41215)
(5.42069e-22 -0.722354 -0.40293)
(-8.20697e-21 0.159584 -0.597232)
(2.97687e-20 1.52917 -0.383567)
(-1.30048e-19 2.57641 -0.372272)
(6.05689e-19 3.09797 -0.0371815)
(-1.90346e-18 3.6047 -0.257303)
(3.44865e-18 3.71994 0.180174)
(-3.31499e-17 -2.83986 -0.383889)
(6.44379e-21 1.05733 1.55387)
(9.19508e-21 1.19379 1.56847)
(-7.10994e-21 1.23973 1.58461)
(-8.90912e-20 1.31367 1.60967)
(-3.68247e-19 1.36716 1.6356)
(-1.12698e-18 1.42787 1.66828)
(-2.74298e-18 1.48239 1.70289)
(-4.91607e-18 1.53929 1.74226)
(-3.63751e-18 1.59494 1.78511)
(1.68489e-17 1.65118 1.83537)
(9.96607e-17 1.70499 1.90109)
(3.36085e-16 1.7523 2.00155)
(8.76799e-16 1.78538 2.16785)
(1.90542e-15 1.79615 2.43659)
(3.55506e-15 1.78034 2.83028)
(5.79803e-15 1.74228 3.33534)
(8.3914e-15 1.69493 3.89645)
(1.09394e-14 1.65419 4.43689)
(1.30376e-14 1.63131 4.89062)
(1.4403e-14 1.62892 5.22324)
(1.49253e-14 1.64209 5.43262)
(1.46467e-14 1.66257 5.53693)
(1.37101e-14 1.68294 5.56146)
(1.23088e-14 1.69929 5.53028)
(1.06491e-14 1.71189 5.46258)
(8.92464e-15 1.72411 5.3718)
(7.29748e-15 1.73985 5.26606)
(5.88004e-15 1.76103 5.14964)
(4.71722e-15 1.78617 5.02524)
(3.76897e-15 1.81068 4.89636)
(2.89926e-15 1.82772 4.76894)
(1.88157e-15 1.82847 4.65165)
(4.19222e-16 1.80293 4.5552)
(-1.88101e-15 1.74841 4.4935)
(-5.58896e-15 1.6776 4.4826)
(-1.0742e-14 1.52387 4.49151)
(-1.37492e-14 0.900617 4.25357)
(-8.18665e-15 -0.425026 3.43782)
(-3.91624e-15 -1.21621 3.12584)
(-2.56682e-15 -1.55117 3.04912)
(-1.31227e-15 -1.84344 2.90003)
(8.76529e-17 -2.17028 2.74627)
(1.58727e-15 -2.51317 2.602)
(3.199e-15 -2.86381 2.45933)
(4.92373e-15 -3.21307 2.31715)
(6.71716e-15 -3.5523 2.17645)
(8.50075e-15 -3.87582 2.03683)
(1.01704e-14 -4.18097 1.89662)
(1.15972e-14 -4.46548 1.75479)
(1.26566e-14 -4.72575 1.60899)
(1.32446e-14 -4.95579 1.45709)
(1.32951e-14 -5.15195 1.30047)
(1.28163e-14 -5.31612 1.13959)
(1.18733e-14 -5.4508 0.974916)
(1.05753e-14 -5.54462 0.802065)
(9.06345e-15 -5.589 0.626389)
(7.44219e-15 -5.58429 0.449148)
(5.7451e-15 -5.51427 0.27474)
(3.98249e-15 -5.33635 0.108381)
(2.28181e-15 -4.99388 -0.0379834)
(9.02698e-16 -4.49865 -0.151457)
(1.96905e-16 -3.99967 -0.22547)
(-1.46287e-18 -3.55056 -0.277594)
(-1.39293e-17 -3.15862 -0.306927)
(-3.41723e-18 -2.81791 -0.330854)
(-4.51336e-20 -2.5094 -0.346272)
(1.48497e-19 -2.2012 -0.364535)
(2.97274e-20 -1.93959 -0.377146)
(-1.0665e-21 -1.62849 -0.397604)
(-1.56434e-21 -1.39253 -0.405603)
(-3.63211e-22 -0.888857 -0.434832)
(6.50673e-22 -0.677773 -0.421386)
(-7.88662e-21 0.153188 -0.667813)
(2.85287e-20 1.4897 -0.4067)
(-1.21979e-19 2.52179 -0.371757)
(5.30062e-19 3.07872 -0.0346274)
(-1.58139e-18 3.57239 -0.249673)
(2.69584e-18 3.73865 0.168076)
(-3.91153e-17 -2.7583 -0.383222)
(8.17789e-21 1.05599 1.59588)
(-2.5018e-21 1.1919 1.6105)
(-6.51822e-20 1.23647 1.62615)
(-2.79235e-19 1.30989 1.65268)
(-8.72098e-19 1.36265 1.67911)
(-2.20188e-18 1.42276 1.71331)
(-4.29728e-18 1.47674 1.74901)
(-4.70017e-18 1.53299 1.79014)
(7.89551e-18 1.5875 1.83632)
(6.73727e-17 1.64103 1.89551)
(2.51229e-16 1.68874 1.98319)
(6.97797e-16 1.72431 2.12908)
(1.59215e-15 1.73913 2.37131)
(3.09237e-15 1.72797 2.73975)
(5.21196e-15 1.6937 3.23031)
(7.74197e-15 1.64889 3.79336)
(1.02958e-14 1.61025 4.35063)
(1.2457e-14 1.59042 4.82994)
(1.39238e-14 1.59306 5.19067)
(1.45701e-14 1.61372 5.42659)
(1.44261e-14 1.64393 5.5536)
(1.36257e-14 1.67512 5.59567)
(1.23542e-14 1.70127 5.57617)
(1.08123e-14 1.72013 5.51448)
(9.19075e-15 1.73337 5.4255)
(7.65179e-15 1.74529 5.31977)
(6.31196e-15 1.76047 5.20394)
(5.22405e-15 1.78104 5.08186)
(4.35938e-15 1.80535 4.9568)
(3.594e-15 1.8283 4.83377)
(2.70676e-15 1.84242 4.72094)
(1.40228e-15 1.83847 4.62913)
(-6.42309e-16 1.80629 4.56978)
(-3.78106e-15 1.74315 4.55409)
(-8.50206e-15 1.66526 4.59228)
(-1.47582e-14 1.52905 4.65513)
(-1.8525e-14 0.984697 4.4811)
(-1.13244e-14 -0.287156 3.56837)
(-4.00538e-15 -1.13923 3.03368)
(-2.05742e-15 -1.51391 2.97636)
(-9.75409e-16 -1.79773 2.85919)
(3.24463e-16 -2.12216 2.7044)
(1.7982e-15 -2.466 2.56246)
(3.38973e-15 -2.81668 2.42719)
(5.09139e-15 -3.16639 2.29293)
(6.86087e-15 -3.50671 2.15964)
(8.61908e-15 -3.83152 2.02645)
(1.02613e-14 -4.13797 1.89147)
(1.16598e-14 -4.42365 1.75378)
(1.26921e-14 -4.68477 1.61115)
(1.32559e-14 -4.91566 1.46167)
(1.32875e-14 -5.11287 1.30681)
(1.27964e-14 -5.27813 1.14722)
(1.18475e-14 -5.41345 0.983307)
(1.05496e-14 -5.50794 0.810937)
(9.04145e-15 -5.55363 0.635489)
(7.42545e-15 -5.55076 0.45834)
(5.73401e-15 -5.4836 0.283829)
(3.97763e-15 -5.31041 0.117013)
(2.28264e-15 -4.9755 -0.0303813)
(9.06627e-16 -4.49017 -0.145461)
(1.9953e-16 -3.99996 -0.221626)
(-1.17784e-18 -3.55763 -0.276503)
(-1.43371e-17 -3.17029 -0.309533)
(-3.60493e-18 -2.83199 -0.338017)
(-5.91577e-20 -2.52424 -0.358911)
(1.60677e-19 -2.21588 -0.382737)
(3.36804e-20 -1.95255 -0.400671)
(-9.82672e-22 -1.6403 -0.425248)
(-1.81598e-21 -1.40041 -0.43613)
(-4.525e-22 -0.89871 -0.467019)
(7.69481e-22 -0.660929 -0.448196)
(-7.58916e-21 0.153129 -0.695555)
(2.73832e-20 1.46481 -0.432239)
(-1.15596e-19 2.49391 -0.377451)
(4.87608e-19 3.0682 -0.0380859)
(-1.40756e-18 3.56106 -0.245262)
(2.88584e-18 3.74238 0.155503)
(-4.308e-17 -2.73548 -0.311672)
(3.62156e-21 1.05387 1.64607)
(-4.79535e-20 1.18887 1.66109)
(-2.16786e-19 1.23143 1.67635)
(-6.87246e-19 1.30406 1.70465)
(-1.77978e-18 1.3557 1.73176)
(-3.69713e-18 1.41491 1.76773)
(-5.05032e-18 1.468 1.80489)
(2.0517e-18 1.52299 1.84896)
(4.37597e-17 1.57509 1.90209)
(1.85025e-16 1.62316 1.97934)
(5.51796e-16 1.6598 2.10694)
(1.32981e-15 1.67655 2.32512)
(2.70434e-15 1.66587 2.6712)
(4.73801e-15 1.62839 3.15313)
(7.26309e-15 1.57591 3.72894)
(9.89606e-15 1.5275 4.31778)
(1.21862e-14 1.50002 4.83685)
(1.37869e-14 1.50096 5.2346)
(1.45411e-14 1.52766 5.49879)
(1.44689e-14 1.5712 5.64417)
(1.37084e-14 1.62097 5.69606)
(1.2456e-14 1.66786 5.6794)
(1.09238e-14 1.70599 5.61474)
(9.31299e-15 1.73355 5.5181)
(7.79389e-15 1.75274 5.40184)
(6.48993e-15 1.76857 5.27524)
(5.46065e-15 1.78623 5.14464)
(4.68467e-15 1.8082 5.01444)
(4.04503e-15 1.8327 4.88921)
(3.32337e-15 1.85411 4.77605)
(2.21373e-15 1.86442 4.68554)
(3.70145e-16 1.85417 4.63001)
(-2.51525e-15 1.81338 4.61956)
(-6.69566e-15 1.73954 4.65977)
(-1.25103e-14 1.65366 4.7529)
(-1.98183e-14 1.5409 4.8702)
(-2.4408e-14 1.0942 4.7617)
(-1.62397e-14 -0.122859 3.80946)
(-4.93533e-15 -1.07553 2.99701)
(-1.67015e-15 -1.49712 2.88242)
(-5.16663e-16 -1.77421 2.79769)
(6.216e-16 -2.09309 2.65695)
(2.03025e-15 -2.43849 2.51632)
(3.59948e-15 -2.79009 2.38671)
(5.2763e-15 -3.13983 2.26184)
(7.01771e-15 -3.48006 2.13796)
(8.74703e-15 -3.80462 2.01307)
(1.03588e-14 -4.11067 1.88505)
(1.17265e-14 -4.39574 1.75294)
(1.27294e-14 -4.65595 1.61461)
(1.32672e-14 -4.88597 1.46844)
(1.32788e-14 -5.08254 1.31602)
(1.27746e-14 -5.24729 1.15815)
(1.18196e-14 -5.38178 0.995234)
(1.05218e-14 -5.47559 0.823444)
(9.0177e-15 -5.52122 0.648198)
(7.40727e-15 -5.51884 0.471014)
(5.72178e-15 -5.45305 0.296197)
(3.97196e-15 -5.28279 0.128669)
(2.28302e-15 -4.95311 -0.0200758)
(9.10359e-16 -4.47484 -0.137196)
(2.02136e-16 -3.99066 -0.216046)
(-8.70636e-19 -3.5527 -0.274307)
(-1.47425e-17 -3.16802 -0.311817)
(-3.79975e-18 -2.83092 -0.345885)
(-7.56017e-20 -2.52351 -0.373544)
(1.73538e-19 -2.2153 -0.404503)
(3.81808e-20 -1.95152 -0.429341)
(-8.30164e-22 -1.63981 -0.459547)
(-2.10729e-21 -1.39829 -0.474309)
(-5.6421e-22 -0.90058 -0.507847)
(8.7775e-22 -0.63944 -0.483163)
(-7.22845e-21 0.149289 -0.740159)
(2.59301e-20 1.42795 -0.470129)
(-1.07679e-19 2.45074 -0.387364)
(4.36153e-19 3.05099 -0.0446792)
(-1.20297e-18 3.54222 -0.237224)
(3.96051e-18 3.74632 0.148048)
(-4.53661e-17 -2.7167 -0.284623)
(-2.13471e-20 1.0518 1.69526)
(-1.71762e-19 1.18655 1.71103)
(-5.49338e-19 1.22686 1.72587)
(-1.44012e-18 1.29888 1.75605)
(-3.114e-18 1.34945 1.78381)
(-4.8655e-18 1.40784 1.82155)
(-1.38529e-18 1.45998 1.86065)
(2.69075e-17 1.51307 1.90997)
(1.32827e-16 1.56086 1.97703)
(4.27451e-16 1.59946 2.08767)
(1.09057e-15 1.61891 2.2804)
(2.32718e-15 1.61067 2.59958)
(4.2485e-15 1.57248 3.06526)
(6.73716e-15 1.51483 3.64641)
(9.42369e-15 1.45824 4.26219)
(1.1827e-14 1.4234 4.8195)
(1.35534e-14 1.42138 5.25462)
(1.44128e-14 1.45113 5.54843)
(1.44149e-14 1.50352 5.71482)
(1.37032e-14 1.56678 5.78106)
(1.24849e-14 1.63028 5.77402)
(1.09828e-14 1.68612 5.71485)
(9.40609e-15 1.72973 5.61911)
(7.93108e-15 1.76029 5.49879)
(6.68571e-15 1.78067 5.36394)
(5.73392e-15 1.79639 5.2232)
(5.05951e-15 1.81302 5.08366)
(4.55144e-15 1.83308 4.9515)
(3.99584e-15 1.85443 4.83389)
(3.08447e-15 1.87077 4.74091)
(1.45262e-15 1.87363 4.68537)
(-1.24256e-15 1.85384 4.67927)
(-5.21662e-15 1.80254 4.72801)
(-1.05362e-14 1.71835 4.82741)
(-1.7318e-14 1.62549 4.96902)
(-2.53477e-14 1.53231 5.12724)
(-3.06397e-14 1.18591 5.082)
(-2.2534e-14 0.0907589 4.16002)
(-6.8113e-15 -0.969334 3.02193)
(-1.65784e-15 -1.47297 2.79281)
(-3.48415e-17 -1.75662 2.71319)
(1.00951e-15 -2.06903 2.59611)
(2.29509e-15 -2.41471 2.46477)
(3.82026e-15 -2.76846 2.33926)
(5.47199e-15 -3.11917 2.22331)
(7.18338e-15 -3.45928 2.11069)
(8.88076e-15 -3.7831 1.99611)
(1.04599e-14 -4.08804 1.87688)
(1.17951e-14 -4.37159 1.752)
(1.27673e-14 -4.62991 1.61932)
(1.32782e-14 -4.85801 1.47753)
(1.32691e-14 -5.05292 1.32834)
(1.27515e-14 -5.21614 1.17275)
(1.17903e-14 -5.34877 1.01115)
(1.04925e-14 -5.44091 0.840072)
(8.99264e-15 -5.48559 0.665009)
(7.38792e-15 -5.48287 0.48764)
(5.70851e-15 -5.41764 0.312264)
(3.96537e-15 -5.24956 0.143685)
(2.28271e-15 -4.92443 -0.00683266)
(9.1361e-16 -4.45262 -0.126481)
(2.04585e-16 -3.9738 -0.208547)
(-5.53149e-19 -3.53945 -0.270812)
(-1.51283e-17 -3.15673 -0.313569)
(-3.99492e-18 -2.82026 -0.354255)
(-9.42684e-20 -2.51301 -0.389988)
(1.86727e-19 -2.2052 -0.429691)
(4.3204e-20 -1.94174 -0.463092)
(-5.85582e-22 -1.63183 -0.500557)
(-2.43808e-21 -1.39002 -0.520413)
(-7.03056e-22 -0.898523 -0.557692)
(9.67955e-22 -0.613382 -0.527601)
(-6.78943e-21 0.148437 -0.785494)
(2.42454e-20 1.39098 -0.515304)
(-9.89634e-20 2.41023 -0.402291)
(3.86185e-19 3.03322 -0.0548275)
(-1.01243e-18 3.52764 -0.227659)
(6.62923e-18 3.74242 0.143751)
(-4.58602e-17 -2.69275 -0.20126)
(-9.61625e-20 1.04932 1.74558)
(-4.49344e-19 1.18405 1.76247)
(-1.17685e-18 1.22172 1.77684)
(-2.60024e-18 1.29311 1.80906)
(-4.42318e-18 1.34248 1.83746)
(-3.17933e-18 1.39988 1.87731)
(1.53788e-17 1.45045 1.91998)
(9.29698e-17 1.49998 1.98)
(3.24611e-16 1.53978 2.07413)
(8.78501e-16 1.56276 2.24198)
(1.97122e-15 1.55771 2.53064)
(3.76016e-15 1.51995 2.9734)
(6.18804e-15 1.45699 3.55284)
(8.91435e-15 1.38973 4.19232)
(1.14338e-14 1.34243 4.78939)
(1.33001e-14 1.33076 5.26615)
(1.42801e-14 1.35673 5.59411)
(1.43673e-14 1.41214 5.78519)
(1.37085e-14 1.48481 5.86891)
(1.25224e-14 1.5631 5.87488)
(1.10438e-14 1.63761 5.82559)
(9.49162e-15 1.70164 5.7363)
(8.05052e-15 1.7513 5.61766)
(6.85545e-15 1.78598 5.47862)
(5.97671e-15 1.80866 5.32813)
(5.40398e-15 1.82493 5.1755)
(5.03136e-15 1.84048 5.02994)
(4.64789e-15 1.85776 4.90083)
(3.94277e-15 1.87419 4.79906)
(2.53796e-15 1.88301 4.73778)
(5.89943e-17 1.8758 4.73044)
(-3.757e-15 1.8446 4.78529)
(-8.94769e-15 1.78264 4.89861)
(-1.53283e-14 1.69006 5.05309)
(-2.27657e-14 1.59291 5.22924)
(-3.10289e-14 1.51899 5.40885)
(-3.6741e-14 1.27325 5.4178)
(-2.93696e-14 0.33078 4.5711)
(-9.70838e-15 -0.809972 3.11505)
(-2.16867e-15 -1.42985 2.72043)
(2.93894e-16 -1.73751 2.61706)
(1.46854e-15 -2.04567 2.51577)
(2.62223e-15 -2.38927 2.40433)
(4.05847e-15 -2.7443 2.2866)
(5.67447e-15 -3.09675 2.17805)
(7.35597e-15 -3.43718 2.07712)
(9.01937e-15 -3.76025 1.97476)
(1.05636e-14 -4.06405 1.86618)
(1.18649e-14 -4.34611 1.75021)
(1.28054e-14 -4.6026 1.62467)
(1.32885e-14 -4.82893 1.48844)
(1.32582e-14 -5.02235 1.34342)
(1.2727e-14 -5.18422 1.19076)
(1.17594e-14 -5.31522 1.03089)
(1.04618e-14 -5.40593 0.860736)
(8.96618e-15 -5.44993 0.685891)
(7.36725e-15 -5.44713 0.508222)
(5.69399e-15 -5.38274 0.332047)
(3.95764e-15 -5.2171 0.162075)
(2.28148e-15 -4.89683 0.00935086)
(9.16202e-16 -4.43188 -0.113286)
(2.06807e-16 -3.95881 -0.199025)
(-2.31855e-19 -3.52835 -0.265824)
(-1.54881e-17 -3.14769 -0.314473)
(-4.18805e-18 -2.81179 -0.36266)
(-1.15152e-19 -2.50452 -0.407603)
(2.00144e-19 -2.197 -0.457493)
(4.87962e-20 -1.93373 -0.500967)
(-2.20259e-22 -1.62566 -0.547225)
(-2.81152e-21 -1.38332 -0.573372)
(-8.7616e-22 -0.899002 -0.615313)
(1.03395e-21 -0.58982 -0.58073)