/*--------------------------------*- C++ -*----------------------------------*\
| =========                 |                                                 |
| \\      /  F ield         | OpenFOAM: The Open Source CFD Toolbox           |
|  \\    /   O peration     | Version:  4.1                                   |
|   \\  /    A nd           | Web:      www.OpenFOAM.org                      |
|    \\/     M anipulation  |                                                 |
\*---------------------------------------------------------------------------*/
FoamFile
{
    version     2.0;
    format      ascii;
    class       volScalarField;
    location    "3";
    object      p;
}
// * * * * * * * * * * * * * * * * * * * * * * * * * * * * * * * * * * * * * //

dimensions      [0 2 -2 0 0 0 0];

internalField   nonuniform List<scalar> 
6785
(
551.967
474.299
427.804
374.97
328.692
284.079
242.458
202.974
165.549
130.054
95.8449
62.5455
33.636
3.79944
-37.5191
-47.0323
-64.6426
-54.5176
-61.4635
-60.5654
-62.8403
-63.284
-63.6656
-63.0996
-61.6447
-59.0417
-55.493
-50.3917
-44.167
-41.6454
-31.8669
-37.1361
-28.801
-34.2505
-31.2928
-33.2952
-33.3309
-34.5785
-35.5786
-36.872
-37.9607
-38.2796
-38.4454
-39.2357
-40.2337
-38.8145
-43.2229
-41.6797
-47.9213
-47.9963
-52.5922
-54.6766
-58.1144
-60.8808
-63.7589
-66.0838
-67.3796
-68.1356
-68.9298
-68.1046
-60.8497
-63.5192
-61.0601
-64.3249
-61.7822
-63.768
-62.6458
-63.1071
-62.703
-62.5045
-61.9633
-61.0849
-59.4069
-58.1666
-55.9031
-40.8204
-40.9996
-37.8701
-38.9532
-35.5578
-35.76
-33.4057
-32.4238
-30.7396
-29.3118
-27.7366
-26.3184
-24.7025
-23.5604
-21.7072
-20.8262
-20.5168
-18.4214
-19.1445
-16.7868
-17.0882
-15.4491
-15.0043
-13.9478
-13.2027
-12.3471
-11.6351
-10.8939
-10.3981
-9.90416
-13.192
-13.1734
-11.9517
-12.6892
-11.2472
-11.7853
-10.8083
-10.8449
-10.3266
-10.1218
-9.79718
-9.59204
-9.35673
-9.24919
-9.0749
-10.1376
-10.1703
-9.22259
-9.90041
-8.82696
-9.31214
-8.60922
-8.68181
-8.3028
-8.14784
-7.85917
-7.66189
-7.34107
-7.20237
-6.75518
-5.26899
-4.99882
-4.02244
-4.44517
-3.39539
-3.55075
-2.84324
-2.6283
-2.12392
-1.73206
-1.22806
-0.809722
-0.214062
0.113673
0.866031
3.24608
3.661
4.52785
4.292
5.22289
5.24238
5.85183
6.16521
6.63173
7.04363
7.52877
7.92894
8.49291
8.78313
9.48753
10.134
10.5561
11.212
11.0844
11.8426
11.8774
12.3541
12.6133
12.9731
13.2964
13.6728
13.9806
14.4173
14.6345
15.1634
19.3647
19.3878
19.6301
19.3045
19.6245
19.3597
19.4925
19.4521
19.5033
19.523
19.578
19.595
19.6789
19.6712
19.759
18.9066
18.9493
17.8389
16.8954
16.9069
16.6508
16.7511
16.5193
16.3666
16.1198
15.9538
15.7787
15.7212
15.6387
15.688
33.1036
29.9087
26.5044
26.3686
25.9224
24.7297
24.0191
23.3236
22.8541
22.636
22.3841
22.2791
22.0061
21.8805
21.0724
1.00226
1.01247
0.99968
0.954929
0.956823
0.964006
0.935965
0.909683
0.905203
0.90815
0.880245
0.827755
0.836428
0.802704
0.748561
0.72568
0.731358
0.698553
0.613407
0.631803
0.585705
0.511236
0.472485
0.499762
0.433705
0.348238
0.30471
0.324286
0.266
0.133675
0.161542
0.092646
-0.0174154
-0.0814132
-0.0615984
-0.122649
-0.296338
-0.280265
-0.367901
-0.518041
-0.632216
-0.610051
-0.751863
-0.932247
-1.06766
-1.09036
-1.20425
-1.47339
-1.53842
-1.6375
-1.83675
-2.02806
-2.06288
-2.16681
-2.34926
-2.52316
-2.5936
-2.58669
-2.77252
-2.90534
-2.78815
-2.86489
-3.00061
-3.04013
-2.87481
-2.89821
-2.97863
-3.03306
-3.22618
-3.25086
-3.22748
-4.32138
-5.23156
-5.20168
-4.43788
-10.8511
-9.82096
-6.49713
-23.8841
-19.225
-15.617
-16.1946
-15.8288
-29.9406
-15.5558
-13.4287
-13.0355
-12.9521
-12.8747
-12.8227
-12.2796
-12.8226
-23.3301
-12.7376
-12.1753
-10.8204
-9.9756
-9.37893
-8.81493
-7.76908
-8.14462
-18.2796
-7.11929
-5.95852
-4.49331
-3.31614
-1.98861
-1.06227
-0.192462
1.20443
0.812062
-8.89094
2.10904
3.72679
5.50491
7.0834
8.55191
9.94647
11.9489
11.689
2.83302
13.2133
15.3349
17.2601
18.9743
20.4235
21.7002
24.2019
24.1963
18.6776
24.5871
24.8326
26.4254
27.8512
27.7657
27.6923
27.4658
25.3297
29.3199
28.3704
25.465
23.3258
20.038
19.1005
16.6468
12.6427
8.83087
3.42558
3.10804
0.410411
-5.18145
-7.77032
-10.3996
-13.3002
-18.7131
-20.3717
-18.9891
-30.7514
-17.6264
-21.038
-23.9743
-17.2617
-26.3941
-23.0181
-26.0288
-23.0499
-18.133
-27.5614
-22.5508
-18.3114
-25.3033
-22.2897
-23.9001
-21.43
-16.4266
-22.6224
-19.5306
-20.6768
-18.2218
-14.0707
-19.3961
-15.6334
-12.7143
-15.9464
-13.7384
-14.0141
-12.3125
-9.70459
-11.9296
-10.1575
-10.2731
-8.88256
-7.26765
-8.68692
-7.11084
-6.24703
-6.84976
-6.0579
-6.09045
-5.44304
-5.02701
-5.48288
-5.22151
-5.4596
-5.43163
-5.40122
-5.89637
-6.02466
-5.98304
-6.34011
-6.57864
-6.46786
-6.47698
-6.54614
-6.04914
-6.59384
-6.43952
-6.18339
-6.3263
-5.10595
-5.87618
-6.41858
-4.13026
-5.3769
-5.47332
-4.5399
-4.93418
-1.82989
-2.97884
-3.06527
-1.74275
-2.19365
0.853062
-0.667678
-2.16804
1.49954
-1.09469
-1.54539
-1.15929
-1.71745
6.76127e-06
1.56149e-05
2.74939e-05
3.86972e-05
5.20669e-05
6.60582e-05
8.17409e-05
9.86051e-05
0.000117122
0.00013719
0.000159086
0.000182883
0.000208813
0.000237044
0.000267816
0.000301364
0.000337966
0.000377917
0.000421547
0.000469215
0.000521315
0.000578278
0.000640576
0.000708723
0.000783281
0.000864862
0.000954136
0.00105183
0.00115874
0.00127572
0.00140371
0.00154373
0.00169689
0.00186438
0.0020475
0.00224765
0.00246635
0.00270521
0.00296599
0.00325057
0.00356094
0.00389923
0.00426768
0.00466862
0.00510449
0.00557774
0.00609083
0.00664607
0.00724557
0.00789098
0.00858321
0.00932205
0.0101056
0.0109294
0.0117854
0.0126605
0.013535
0.0143795
0.0151533
0.0157999
0.0162476
0.0163981
0.0161474
0.0153396
0.0138634
0.0114941
0.00816866
0.00363503
-0.00204743
-0.00898883
-0.0162847
-0.0246253
-0.0303975
-0.0303885
-0.0832591
-0.209699
-0.196685
-0.726238
-0.617876
1.99578e-05
4.65409e-05
8.18966e-05
0.000115686
0.000155502
0.000197274
0.000243871
0.000293992
0.000348916
0.000408425
0.000473297
0.000543784
0.000620555
0.000704119
0.000795185
0.000894451
0.00100274
0.00112091
0.00124995
0.00139091
0.00154495
0.00171335
0.00189748
0.00209886
0.00231914
0.00256012
0.00282376
0.00311219
0.00342774
0.00377292
0.00415049
0.00456341
0.00501491
0.00550848
0.00604791
0.00663726
0.00728094
0.00798367
0.00875053
0.00958695
0.0104987
0.0114919
0.0125731
0.0137489
0.0150264
0.0164127
0.0179147
0.0195392
0.0212923
0.0231787
0.0252012
0.0273594
0.0296482
0.0320555
0.0345593
0.0371236
0.0396939
0.0421898
0.0444996
0.0464682
0.0479006
0.0485282
0.0480694
0.0460987
0.042314
0.0360951
0.027237
0.0150184
-0.000599005
-0.0200091
-0.0413874
-0.0671578
-0.0868963
-0.0943364
-0.185504
-0.390963
-0.436869
-0.917412
-0.907276
3.15529e-05
7.53935e-05
0.000135078
0.000191715
0.000258468
0.000328409
0.000406411
0.000490276
0.000582163
0.000681703
0.000790202
0.000908083
0.00103647
0.0011762
0.00132848
0.00149446
0.00167552
0.00187311
0.00208887
0.00232456
0.00258213
0.00286369
0.00317158
0.00350831
0.00387665
0.00427961
0.00472048
0.00520281
0.00573051
0.00630779
0.00693925
0.00762986
0.00838503
0.0092106
0.0101129
0.0110988
0.0121756
0.0133513
0.0146343
0.0160338
0.0175595
0.0192216
0.021031
0.022999
0.0251374
0.027458
0.0299726
0.0326926
0.035628
0.0387869
0.0421741
0.0457889
0.0496225
0.0536548
0.0578485
0.0621434
0.0664469
0.0706236
0.0744847
0.0777675
0.0801407
0.0811484
0.0803095
0.0768992
0.0703954
0.0597378
0.0445658
0.0236388
-0.00311949
-0.036364
-0.073297
-0.118184
-0.15179
-0.17442
-0.262153
-0.495264
-0.561738
-1.02203
-0.989532
4.29264e-05
0.000104125
0.000187887
0.000267463
0.000361042
0.000459102
0.000568354
0.000685805
0.000814435
0.000953763
0.0011056
0.00127055
0.00145018
0.00164568
0.00185871
0.00209091
0.0023442
0.0026206
0.00292242
0.0032521
0.00361238
0.00400622
0.00443687
0.00490785
0.00542304
0.00598663
0.00660323
0.00727781
0.00801582
0.00882315
0.00970621
0.010672
0.011728
0.0128824
0.0141441
0.0155226
0.0170282
0.018672
0.0204658
0.0224223
0.0245552
0.0268787
0.029408
0.0321589
0.0351478
0.0383912
0.0419058
0.0457073
0.0498099
0.054225
0.0589591
0.0640117
0.0693709
0.0750088
0.0808743
0.0868836
0.0929088
0.0987622
0.104181
0.108802
0.112162
0.113628
0.112526
0.107844
0.0988457
0.0840433
0.0629002
0.0336564
-0.00391395
-0.0507721
-0.103602
-0.168578
-0.218038
-0.2608
-0.358081
-0.631959
-0.721662
-1.27411
-1.29579
5.35501e-05
0.000132075
0.000240016
0.000342678
0.000463193
0.000589491
0.000730085
0.000881217
0.00104667
0.00122587
0.00142111
0.00163321
0.00186416
0.0021155
0.00238937
0.00268787
0.00301347
0.00336878
0.00375675
0.00418054
0.00464365
0.0051499
0.00570344
0.00630884
0.00697104
0.00769547
0.00848801
0.00935507
0.0103036
0.0113413
0.0124763
0.0137176
0.0150748
0.0165586
0.0181801
0.0199518
0.0218868
0.0239993
0.0263046
0.0288191
0.0315601
0.0345461
0.0377965
0.0413317
0.0451727
0.0493409
0.0538576
0.058743
0.0640157
0.0696902
0.0757755
0.0822708
0.0891615
0.0964122
0.103958
0.111693
0.119453
0.126999
0.133996
0.139976
0.144348
0.146295
0.14495
0.139009
0.127507
0.108523
0.0813209
0.0436004
-0.00506865
-0.0659881
-0.135646
-0.222073
-0.289232
-0.357489
-0.468909
-0.783916
-0.907295
-1.50558
-1.60272
6.38012e-05
0.000159748
0.000291717
0.000417556
0.000564981
0.000719539
0.000891436
0.00107621
0.00127842
0.00149739
0.00173595
0.00199507
0.00227719
0.00258421
0.00291874
0.00328334
0.00368103
0.00411501
0.00458886
0.00510645
0.00567207
0.00629035
0.0069664
0.00770576
0.0085145
0.00939921
0.0103671
0.011426
0.0125844
0.0138516
0.0152376
0.0167534
0.0184107
0.0202225
0.0222026
0.0243659
0.0267286
0.029308
0.0321228
0.0351928
0.0385394
0.042185
0.0461535
0.0504695
0.0551589
0.0602477
0.065762
0.0717267
0.0781643
0.0850932
0.0925242
0.100457
0.108875
0.117735
0.12696
0.136421
0.145922
0.155172
0.163766
0.171135
0.176559
0.179046
0.177531
0.170422
0.156522
0.133473
0.100322
0.0542108
-0.0055804
-0.0807399
-0.167966
-0.277037
-0.364152
-0.463249
-0.589406
-0.939383
-1.09751
-1.7343
-1.97159
7.36122e-05
0.000187089
0.000342972
0.000492079
0.000666414
0.000849272
0.00105246
0.00127088
0.0015098
0.00176853
0.00205033
0.00235641
0.00268962
0.00305224
0.00344731
0.0038779
0.00434755
0.00486004
0.00541961
0.00603084
0.00669876
0.00742887
0.00822718
0.00910025
0.0100552
0.0110999
0.0122428
0.0134931
0.0148609
0.0163572
0.0179937
0.0197834
0.0217403
0.0238795
0.0262173
0.0287714
0.0315609
0.0346062
0.0379293
0.0415538
0.0455046
0.0498085
0.0544933
0.0595886
0.0651246
0.0711321
0.0776421
0.0846841
0.0922849
0.100466
0.109242
0.118612
0.128557
0.139029
0.149937
0.161132
0.172386
0.183358
0.193573
0.202367
0.208889
0.211972
0.210353
0.202152
0.18593
0.158893
0.11984
0.065344
-0.00568879
-0.095378
-0.201028
-0.334023
-0.443623
-0.579069
-0.720962
-1.10393
-1.29964
-1.98235
-2.32008
8.31042e-05
0.000214252
0.000393873
0.000566317
0.000767519
0.000978689
0.00121313
0.00146514
0.00174072
0.00203911
0.00236405
0.00271697
0.00310114
0.00351919
0.00397465
0.00447103
0.00501243
0.00560321
0.00624825
0.00695282
0.00772274
0.00856435
0.00948456
0.0104909
0.0115917
0.0127959
0.0141132
0.0155543
0.0171309
0.0188555
0.0207418
0.0228046
0.02506
0.0275255
0.0302198
0.0331635
0.0363783
0.0398879
0.0437177
0.0478946
0.0524476
0.0574074
0.0628063
0.068678
0.0750576
0.0819809
0.0894833
0.0975991
0.10636
0.11579
0.125907
0.136712
0.148183
0.160267
0.172862
0.185798
0.198816
0.21153
0.223396
0.233653
0.241326
0.245074
0.243434
0.23424
0.215804
0.184891
0.140032
0.0772118
-0.00512262
-0.109575
-0.234469
-0.392625
-0.527555
-0.704909
-0.864759
-1.27984
-1.51939
-2.22241
-2.65696
9.23001e-05
0.000241277
0.000444455
0.000640293
0.000868311
0.00110779
0.00137343
0.001659
0.00197114
0.00230911
0.00267708
0.00307672
0.00351171
0.00398504
0.0045007
0.00506267
0.00567561
0.00634444
0.00707469
0.00787233
0.00874394
0.00969669
0.0107384
0.0118777
0.0131238
0.0144869
0.0159782
0.0176096
0.0193942
0.0213464
0.0234816
0.0258166
0.0283696
0.0311603
0.0342101
0.037542
0.0411808
0.0451532
0.0494878
0.0542154
0.0593686
0.0649822
0.0710926
0.0777383
0.0849589
0.092795
0.101287
0.110474
0.120391
0.131068
0.142524
0.154762
0.16776
0.181457
0.195743
0.21043
0.225227
0.239705
0.253254
0.26502
0.273904
0.278392
0.276823
0.266742
0.246204
0.211534
0.160968
0.0898885
-0.00380503
-0.123261
-0.268227
-0.452776
-0.616161
-0.841198
-1.0207
-1.4682
-1.75962
-2.49783
-3.02055
0.000101256
0.000268231
0.000494766
0.000714045
0.000968806
0.00123659
0.00153335
0.00185241
0.00220102
0.00257845
0.00298933
0.00343553
0.00392117
0.00444959
0.00502524
0.00565259
0.00633681
0.00708341
0.00789856
0.00878894
0.00976187
0.0108254
0.0119882
0.0132599
0.0146508
0.0161723
0.0178369
0.0196578
0.0216498
0.0238288
0.026212
0.0288181
0.0316676
0.0347824
0.0381862
0.0419049
0.045966
0.0503994
0.0552371
0.0605133
0.0662644
0.0725292
0.0793485
0.0867653
0.0948238
0.103569
0.113047
0.123301
0.134372
0.146293
0.159086
0.172755
0.187278
0.202591
0.218573
0.23502
0.251614
0.267881
0.28315
0.296475
0.306636
0.311949
0.310552
0.299705
0.277193
0.238904
0.182754
0.103506
-0.00157085
-0.136242
-0.302075
-0.514214
-0.709449
-0.988096
-1.18778
-1.67076
-2.02007
-2.80559
-3.34087
0.000110005
0.000295149
0.000544844
0.000787596
0.00106902
0.00136507
0.00169287
0.00204534
0.0024303
0.00284709
0.00330072
0.00379332
0.00432942
0.00491272
0.00554814
0.0062406
0.00699583
0.00781991
0.00871963
0.00970238
0.0107762
0.0119501
0.0132335
0.0146371
0.0161722
0.0178516
0.0196887
0.0216984
0.023897
0.0263018
0.028932
0.0318083
0.034953
0.0383905
0.0421471
0.0462509
0.0507327
0.0556253
0.0609639
0.0667864
0.073133
0.0800464
0.0875719
0.0957567
0.10465
0.114302
0.124762
0.13608
0.148301
0.161461
0.175588
0.190688
0.206736
0.223668
0.241353
0.259571
0.277979
0.296064
0.313092
0.328032
0.339543
0.345773
0.344659
0.333176
0.308833
0.267077
0.205481
0.118177
0.00172069
-0.148357
-0.335812
-0.57671
-0.807449
-1.14528
-1.36557
-1.88882
-2.29916
-3.0948
-3.62049
0.000118581
0.000322069
0.000594719
0.000860969
0.00116895
0.00149323
0.00185198
0.00223776
0.00265895
0.00311494
0.00361115
0.00414997
0.00473632
0.00537428
0.00606921
0.00682652
0.00765244
0.00855366
0.0095376
0.0106123
0.0117867
0.0130703
0.0144739
0.0160087
0.0176876
0.019524
0.021533
0.0237307
0.0261348
0.0287646
0.0316407
0.0347859
0.0382247
0.0419835
0.0460911
0.0505785
0.0554791
0.0608288
0.0666662
0.0730326
0.079972
0.0875313
0.0957599
0.104709
0.114434
0.124988
0.136427
0.148805
0.162172
0.17657
0.192028
0.208556
0.22613
0.244683
0.264077
0.284079
0.304322
0.324253
0.343084
0.359699
0.372639
0.379888
0.379179
0.367203
0.341184
0.296129
0.229245
0.134024
0.0062307
-0.159409
-0.369187
-0.639989
-0.910086
-1.31176
-1.55155
-2.12308
-2.59598
-3.41452
-3.92353
0.000127013
0.000349012
0.000644421
0.00093418
0.00126861
0.00162107
0.00201064
0.00242963
0.0028869
0.00338194
0.00392055
0.00450539
0.00514176
0.00583413
0.0065883
0.00741014
0.00830644
0.00928443
0.0103522
0.0115184
0.0127928
0.0141858
0.0157089
0.0173745
0.0191963
0.0211891
0.0233691
0.0257539
0.0283627
0.0312163
0.0343372
0.0377501
0.0414814
0.0455601
0.0500171
0.0548862
0.0602036
0.0660083
0.0723421
0.0792499
0.0867794
0.0949816
0.10391
0.113621
0.124173
0.135626
0.14804
0.161474
0.175983
0.191614
0.208401
0.226355
0.245456
0.265632
0.286743
0.308542
0.330641
0.352452
0.373133
0.391487
0.405941
0.414318
0.414145
0.40183
0.374303
0.326135
0.254142
0.151169
0.0121225
-0.169198
-0.401929
-0.703771
-1.01725
-1.48552
-1.74338
-2.37473
-2.91079
-3.73319
-4.24666
0.000135323
0.000376
0.000693972
0.00100724
0.00136801
0.00174857
0.00216884
0.00262091
0.00311411
0.00364802
0.00422884
0.00485946
0.00554561
0.00629211
0.00710522
0.00799127
0.00895759
0.010012
0.0111631
0.0124205
0.0137944
0.0152961
0.0169381
0.0187337
0.0206978
0.0228462
0.0251964
0.0277673
0.0305798
0.033656
0.0370205
0.0406997
0.0447222
0.049119
0.0539237
0.0591726
0.0649047
0.071162
0.0779897
0.0854361
0.0935529
0.102395
0.112019
0.122488
0.133864
0.146211
0.159596
0.174082
0.189729
0.20659
0.224702
0.244081
0.264708
0.286513
0.309347
0.332957
0.356935
0.380661
0.403242
0.423404
0.439463
0.449084
0.449588
0.437101
0.408249
0.357167
0.280266
0.169734
0.0195682
-0.177505
-0.433732
-0.767763
-1.12879
-1.66431
-1.94172
-2.64708
-3.24464
-4.06169
-4.5424
0.000143533
0.000403044
0.000743391
0.00108017
0.00146714
0.00187572
0.00232656
0.00281157
0.00334052
0.00391311
0.00453591
0.00521209
0.00594775
0.00674809
0.00761981
0.00856973
0.00960567
0.010736
0.0119701
0.013318
0.0147909
0.0164008
0.0181611
0.0200861
0.0221916
0.0244947
0.0270141
0.0297703
0.0327852
0.036083
0.0396897
0.0436337
0.0479457
0.052659
0.0578095
0.0634361
0.0695806
0.0762882
0.0836072
0.0915894
0.10029
0.109768
0.120086
0.131308
0.143503
0.156741
0.171092
0.186626
0.203407
0.221494
0.240928
0.261731
0.283884
0.307319
0.331886
0.357322
0.383202
0.40888
0.433413
0.455457
0.473218
0.484208
0.48554
0.473058
0.443076
0.389298
0.307708
0.189844
0.0287452
-0.1841
-0.464264
-0.831653
-1.24451
-1.84737
-2.1514
-2.94614
-3.60009
-4.40361
-4.86795
0.000151661
0.000430156
0.000792693
0.00115296
0.001566
0.00200251
0.00248376
0.00300156
0.00356607
0.00417715
0.00484169
0.00556317
0.00634804
0.00720191
0.00813191
0.0091453
0.0102505
0.0114563
0.0127729
0.0142108
0.0157821
0.0174996
0.0193774
0.021431
0.0236771
0.0261341
0.0288218
0.031762
0.0349783
0.0384963
0.0423438
0.0465512
0.051151
0.0561789
0.0616732
0.0676754
0.07423
0.0813852
0.0891926
0.0977075
0.106989
0.1171
0.128106
0.140079
0.153089
0.167213
0.182526
0.199102
0.217013
0.236321
0.257075
0.279298
0.302979
0.328048
0.354356
0.381633
0.409441
0.437108
0.463649
0.487652
0.507218
0.519708
0.522028
0.509742
0.47884
0.422597
0.336561
0.211623
0.0398367
-0.188741
-0.49316
-0.895099
-1.3642
-2.03588
-2.38103
-3.27907
-3.98062
-4.74594
-5.12754
0.000159721
0.000457339
0.000841891
0.00122562
0.00166458
0.00212892
0.00264042
0.00319085
0.00379072
0.00444005
0.00514608
0.00591258
0.00674637
0.00765343
0.00864133
0.00971781
0.0108918
0.0121727
0.0135711
0.0150986
0.0167676
0.018592
0.0205867
0.022768
0.0251539
0.0277638
0.0306187
0.0337419
0.0371582
0.0408951
0.0449819
0.049451
0.054337
0.0596776
0.0655135
0.0718889
0.0788511
0.0864512
0.0947441
0.103789
0.113647
0.124387
0.136079
0.148796
0.162618
0.177623
0.193892
0.211507
0.230542
0.251068
0.273137
0.296779
0.321987
0.348694
0.376751
0.405885
0.435648
0.465344
0.493951
0.519993
0.541473
0.555603
0.559081
0.54719
0.51559
0.457131
0.366914
0.235194
0.053031
-0.191178
-0.520026
-0.957711
-1.48758
-2.23154
-2.63957
-3.64978
-4.39011
-5.10761
-5.33266
0.000167727
0.000484599
0.000890993
0.00129816
0.00176289
0.00225494
0.00279651
0.00337938
0.00401439
0.00470174
0.005449
0.00626021
0.0071426
0.00810249
0.00914791
0.0102871
0.0115293
0.0128848
0.0143646
0.0159809
0.0177471
0.0196776
0.0217884
0.0240967
0.0266214
0.0293832
0.0324042
0.0357091
0.0393243
0.0432785
0.0476032
0.0523322
0.0575024
0.0631536
0.0693291
0.0760752
0.0834424
0.0914845
0.10026
0.10983
0.120263
0.131628
0.144
0.157459
0.172086
0.187967
0.205189
0.223836
0.243991
0.26573
0.289111
0.31417
0.340904
0.369253
0.399068
0.430075
0.461818
0.493585
0.524319
0.552485
0.575991
0.591907
0.596724
0.585441
0.553378
0.492966
0.39885
0.260677
0.0685202
-0.191136
-0.544428
-1.01904
-1.61425
-2.43546
-2.93153
-4.06005
-4.83335
-5.49339
-5.60766
0.000175688
0.000511936
0.000940007
0.00137056
0.00186091
0.00238053
0.002952
0.00356712
0.00423703
0.00496214
0.00575034
0.00660597
0.0075366
0.00854895
0.00965147
0.0108528
0.0121629
0.0135924
0.015153
0.0168576
0.0187202
0.0207562
0.0229822
0.0254166
0.0280791
0.0309917
0.0341777
0.0376631
0.0414756
0.0456458
0.0502065
0.0551937
0.0606462
0.066606
0.0731185
0.080233
0.0880023
0.0964835
0.105738
0.115831
0.126833
0.138819
0.151868
0.166063
0.181492
0.198244
0.216411
0.236086
0.257356
0.280302
0.304991
0.331464
0.359725
0.389719
0.421301
0.454197
0.487948
0.521828
0.554751
0.585129
0.610781
0.628636
0.63498
0.624528
0.59225
0.530163
0.432453
0.288191
0.0864981
-0.188307
-0.565869
-1.07859
-1.74366
-2.64817
-3.25811
-4.51161
-5.31531
-5.89872
-5.79258
0.000183613
0.00053935
0.000988936
0.00144282
0.00195862
0.00250569
0.00310684
0.00375401
0.00445857
0.00522119
0.00605002
0.00694973
0.00792824
0.00899266
0.0101519
0.0114149
0.0127924
0.0142953
0.0159361
0.0177283
0.0196866
0.0218272
0.0241676
0.0267271
0.0295265
0.0325887
0.0359386
0.039603
0.0436115
0.047996
0.0527912
0.0580347
0.0637673
0.0700334
0.0768806
0.0843607
0.0925293
0.101446
0.111176
0.121789
0.133357
0.145959
0.15968
0.174607
0.190831
0.208449
0.227557
0.248253
0.270632
0.294781
0.320774
0.348658
0.378445
0.410086
0.443444
0.478246
0.514033
0.550069
0.585245
0.617926
0.645846
0.665802
0.67387
0.664484
0.632253
0.568782
0.4678
0.317849
0.107154
-0.182342
-0.583776
-1.13575
-1.87508
-2.86989
-3.62098
-5.00615
-5.84157
-6.32922
-5.87973
0.00019151
0.000566838
0.00103778
0.00151494
0.00205603
0.00263038
0.00326101
0.00394
0.00467896
0.00547879
0.00634794
0.00729139
0.0083174
0.00943346
0.0106489
0.0119732
0.0134174
0.0149932
0.0167136
0.0185927
0.0206459
0.0228903
0.0253442
0.0280278
0.0309631
0.0341738
0.0376861
0.0415283
0.0457312
0.0503284
0.0553561
0.060854
0.0668647
0.0734347
0.080614
0.0884569
0.0970218
0.106372
0.116574
0.127701
0.139831
0.153046
0.167433
0.183086
0.200101
0.218579
0.238622
0.260334
0.283816
0.309163
0.336454
0.365746
0.397058
0.43035
0.465491
0.502216
0.540067
0.578303
0.615797
0.650874
0.68119
0.703414
0.713414
0.70534
0.673428
0.608877
0.504961
0.349756
0.130668
-0.172897
-0.597524
-1.18986
-2.00755
-3.10068
-4.02239
-5.54582
-6.42146
-6.79107
-6.16178
0.000199383
0.000594398
0.00108654
0.00158691
0.0021531
0.00275457
0.00341447
0.00412504
0.00489813
0.00573487
0.00664401
0.00763082
0.00870393
0.00987121
0.0111424
0.0125274
0.0140378
0.0156859
0.0174851
0.0194504
0.0215978
0.0239452
0.0265117
0.0293184
0.0323882
0.0357463
0.0394197
0.0434382
0.047834
0.0526421
0.0579005
0.0636506
0.0699372
0.0768086
0.0843174
0.0925203
0.101478
0.111257
0.121928
0.133566
0.146253
0.160076
0.175126
0.191499
0.209299
0.228631
0.249603
0.272324
0.296904
0.323442
0.352026
0.382723
0.415559
0.450504
0.487436
0.5261
0.566042
0.606523
0.646402
0.683971
0.716815
0.741481
0.753629
0.747124
0.715816
0.6505
0.544003
0.38401
0.157211
-0.159638
-0.606452
-1.24014
-2.13986
-3.34051
-4.46546
-6.13366
-7.0629
-7.2885
-6.29633
0.000207237
0.000622026
0.00113522
0.00165872
0.00224983
0.00287825
0.00356717
0.00430909
0.00511601
0.00598936
0.00693812
0.00796792
0.00908771
0.0103057
0.0116321
0.0130774
0.0146534
0.0163731
0.0182505
0.0203012
0.022542
0.0249914
0.0276694
0.0305982
0.0338015
0.0373056
0.0411388
0.0453321
0.0499191
0.0549363
0.0604235
0.0664237
0.0729837
0.0801541
0.0879896
0.0965493
0.105897
0.116102
0.127237
0.139382
0.152622
0.167048
0.182754
0.199843
0.218422
0.238602
0.260496
0.284221
0.30989
0.337614
0.367487
0.399584
0.433943
0.470542
0.509273
0.549891
0.591952
0.634722
0.677053
0.717213
0.752721
0.780008
0.794531
0.789862
0.759455
0.693698
0.584983
0.420696
0.186943
-0.142222
-0.609864
-1.28569
-2.27045
-3.5894
-4.95439
-6.77322
-7.77725
-7.83354
-6.69281
0.000215074
0.000649716
0.0011838
0.00173035
0.00234618
0.00300137
0.00371908
0.00449208
0.00533253
0.00624215
0.00723019
0.00830257
0.00946861
0.0107369
0.012118
0.0136229
0.015264
0.0170546
0.0190095
0.0211448
0.023478
0.0260285
0.0288171
0.0318668
0.0352025
0.0388513
0.0428428
0.0472093
0.0519857
0.0572102
0.062924
0.0691722
0.0760032
0.0834699
0.0916292
0.100543
0.110277
0.120904
0.132499
0.145147
0.158936
0.173958
0.190316
0.208115
0.227467
0.248488
0.271298
0.296019
0.322772
0.351675
0.382831
0.416323
0.452202
0.490458
0.530994
0.573582
0.617789
0.662892
0.707744
0.750593
0.788904
0.819
0.836131
0.833579
0.804379
0.738513
0.627952
0.459888
0.220005
-0.120303
-0.607057
-1.32551
-2.39744
-3.84746
-5.49344
-7.46709
-8.57714
-8.43503
-7.12586
0.000222897
0.000677465
0.00123229
0.00180179
0.00244216
0.00312391
0.00387016
0.00467396
0.00554763
0.00649318
0.0075201
0.00863466
0.00984648
0.0111646
0.0125999
0.0141638
0.0158692
0.0177301
0.0197617
0.0219808
0.0244057
0.0270563
0.0299544
0.0331238
0.0365905
0.0403826
0.044531
0.049069
0.0540331
0.0594629
0.0654014
0.0718951
0.0789947
0.0867549
0.095235
0.104499
0.114616
0.125661
0.137713
0.150859
0.165191
0.180806
0.19781
0.216313
0.236431
0.258286
0.282005
0.307715
0.335545
0.36562
0.398052
0.432936
0.470331
0.510244
0.552592
0.597163
0.643543
0.691023
0.738464
0.784104
0.82536
0.858456
0.87844
0.878294
0.85062
0.784984
0.672951
0.501642
0.25652
-0.0935351
-0.597339
-1.35855
-2.51862
-4.11483
-6.08527
-8.21576
-9.47459
-9.09681
-7.65666
0.000230706
0.000705267
0.00128068
0.00187303
0.00253772
0.00324584
0.00402035
0.00485467
0.00576124
0.00674235
0.00780776
0.00896406
0.0102212
0.0115886
0.0130775
0.0146999
0.016469
0.0183994
0.0205069
0.022809
0.0253245
0.0280742
0.0310808
0.0343688
0.0379651
0.0418992
0.0462028
0.0509107
0.0560607
0.0616938
0.0678546
0.0745915
0.081957
0.0900079
0.0988058
0.108417
0.118913
0.130372
0.142877
0.156516
0.171386
0.187589
0.205232
0.224433
0.245311
0.267994
0.292614
0.319306
0.348205
0.379444
0.413146
0.449415
0.488324
0.529894
0.574059
0.620626
0.669205
0.719105
0.769202
0.817734
0.862082
0.898376
0.921466
0.924027
0.898209
0.833145
0.720012
0.545996
0.296587
-0.061575
-0.579953
-1.38355
-2.63154
-4.39138
-6.72965
-9.0192
-10.4825
-9.83489
-8.26104
0.000238502
0.000733116
0.00132895
0.00194404
0.00263285
0.00336711
0.00416961
0.00503416
0.00597327
0.00698959
0.00809307
0.00929067
0.0105926
0.0120087
0.0135507
0.0152309
0.0170631
0.0190622
0.0212449
0.023629
0.0262342
0.029082
0.0321958
0.0356012
0.0393259
0.0434004
0.0478576
0.0527337
0.0580676
0.0639019
0.0702828
0.0772604
0.0848891
0.0932278
0.10234
0.112295
0.123167
0.135036
0.147988
0.162116
0.177519
0.194303
0.212581
0.232472
0.254104
0.277607
0.303121
0.330787
0.360748
0.393144
0.428108
0.465756
0.506175
0.5494
0.595386
0.643963
0.694763
0.747125
0.799947
0.851473
0.89906
0.938755
0.965212
0.970795
0.947171
0.883025
0.769155
0.592968
0.340273
-0.0241017
-0.553923
-1.39881
-2.7335
-4.6764
-7.42258
-9.88162
-11.6153
-10.6624
-8.94151
0.000246284
0.000761005
0.00137711
0.00201482
0.00272752
0.0034877
0.00431791
0.00521236
0.00618367
0.00723479
0.00837593
0.00961435
0.0109606
0.0124249
0.0140193
0.0157567
0.0176512
0.0197184
0.0219753
0.0244406
0.0271345
0.0300793
0.0332992
0.0368206
0.0406723
0.0448857
0.0494949
0.0545372
0.0600531
0.0660865
0.0726851
0.0799009
0.08779
0.0964134
0.105837
0.116132
0.127375
0.13965
0.153046
0.167657
0.183588
0.200948
0.219853
0.240429
0.262807
0.287124
0.313524
0.342155
0.373168
0.406713
0.442932
0.481953
0.523876
0.568754
0.616565
0.667161
0.720207
0.775072
0.830683
0.885307
0.936282
0.979586
1.00968
1.01861
0.997533
0.934649
0.82039
0.642549
0.387602
0.0191479
-0.518264
-1.40234
-2.82148
-4.96827
-8.1568
-10.8197
-12.896
-11.5723
-9.69432
0.00025405
0.00078893
0.00142513
0.00208534
0.0028217
0.00360756
0.00446518
0.00538922
0.00639235
0.00747788
0.00865623
0.00993499
0.0113251
0.012837
0.0144832
0.016277
0.0182331
0.0203676
0.0226979
0.0252434
0.028025
0.0310657
0.0343905
0.0380266
0.0420038
0.0463545
0.051114
0.0563208
0.0620165
0.0682467
0.0750607
0.0825119
0.0906586
0.0995636
0.109295
0.119926
0.131537
0.144214
0.158047
0.173138
0.189591
0.20752
0.227047
0.248301
0.271417
0.296539
0.323817
0.353406
0.385463
0.420148
0.457613
0.497999
0.54142
0.58795
0.637586
0.690212
0.745524
0.80293
0.861396
0.919218
0.973733
1.02086
1.05487
1.06749
1.04932
0.988038
0.873716
0.694707
0.438554
0.0683836
-0.472157
-1.39213
-2.89224
-5.26437
-8.92523
-11.871
-14.3567
-12.5972
-10.4787
0.000261798
0.000816882
0.00147302
0.00215558
0.00291537
0.00372665
0.00461137
0.00556466
0.00659924
0.00771877
0.00893386
0.0102525
0.0116858
0.0132447
0.0149422
0.0167918
0.0188087
0.0210095
0.0234124
0.0260372
0.0289054
0.0320408
0.0354692
0.0392187
0.0433199
0.0478064
0.0527144
0.0580836
0.0639572
0.0703819
0.0774087
0.0850927
0.0934939
0.102677
0.112713
0.123677
0.135651
0.148725
0.162992
0.178555
0.195525
0.214018
0.23416
0.256084
0.279931
0.305851
0.333998
0.364535
0.397628
0.433444
0.472146
0.513888
0.558802
0.606978
0.658441
0.713104
0.770701
0.830685
0.892068
0.953188
1.01139
1.06256
1.10078
1.11744
1.10255
1.04321
0.929119
0.749376
0.493049
0.123749
-0.414851
-1.36614
-2.94255
-5.56128
-9.72968
-13.0877
-16.0405
-13.7255
-11.3583
0.000269527
0.000844857
0.00152074
0.00222552
0.00300849
0.00384494
0.00475644
0.00573864
0.00680427
0.00795735
0.00920873
0.0105667
0.0120427
0.0136481
0.0153961
0.0173007
0.0193777
0.0216441
0.0241186
0.0268216
0.0297754
0.0330044
0.0365351
0.0403965
0.0446202
0.0492407
0.0542954
0.0598252
0.0658743
0.0724912
0.0797282
0.0876422
0.096295
0.105753
0.11609
0.127382
0.139716
0.153181
0.167877
0.183908
0.201388
0.220439
0.241189
0.263776
0.288347
0.315055
0.344063
0.375539
0.409658
0.446595
0.486525
0.529615
0.576013
0.625831
0.679119
0.735825
0.795724
0.858319
0.92268
0.987196
1.04925
1.10467
1.1474
1.16846
1.15724
1.10018
0.986575
0.806463
0.550948
0.185305
-0.345648
-1.3222
-2.96901
-5.85484
-10.5794
-14.5182
-17.9919
-14.9891
-12.3043
0.000277231
0.000872846
0.0015683
0.00229514
0.00310104
0.00396238
0.00490033
0.00591107
0.00700735
0.00819356
0.00948073
0.0108775
0.0123956
0.0140468
0.0158446
0.0178036
0.0199399
0.022271
0.0248162
0.0275964
0.0306346
0.0339559
0.0375876
0.0415595
0.0459042
0.050657
0.0558565
0.0615447
0.0677673
0.0745739
0.0820185
0.0901596
0.0990607
0.108791
0.119424
0.131041
0.143729
0.157582
0.172701
0.189195
0.20718
0.226781
0.248132
0.271375
0.296661
0.324149
0.354009
0.386415
0.421549
0.459597
0.500745
0.545173
0.593047
0.6445
0.699611
0.758363
0.820578
0.885815
0.95321
1.02122
1.08726
1.14718
1.19473
1.22057
1.21341
1.15896
1.04605
0.865838
0.612038
0.253006
-0.263952
-1.25763
-2.96657
-6.13962
-11.4811
-16.1945
-20.2577
-16.4022
-13.2317
0.000284908
0.000900845
0.00161567
0.00236441
0.00319298
0.00407893
0.00504299
0.00608189
0.0072084
0.00842728
0.00974975
0.0111848
0.0127445
0.0144408
0.0162878
0.0183004
0.0204951
0.02289
0.0255048
0.0283612
0.0314827
0.0348951
0.0386264
0.0427074
0.0471713
0.0520547
0.0573971
0.0632417