/*--------------------------------*- C++ -*----------------------------------*\
| =========                 |                                                 |
| \\      /  F ield         | OpenFOAM: The Open Source CFD Toolbox           |
|  \\    /   O peration     | Version:  4.1                                   |
|   \\  /    A nd           | Web:      www.OpenFOAM.org                      |
|    \\/     M anipulation  |                                                 |
\*---------------------------------------------------------------------------*/
FoamFile
{
    version     2.0;
    format      ascii;
    class       surfaceScalarField;
    location    "3";
    object      phi;
}
// * * * * * * * * * * * * * * * * * * * * * * * * * * * * * * * * * * * * * //

dimensions      [0 3 -1 0 0 0 0];

internalField   nonuniform List<scalar> 
13220
(
-771.49
2071.39
-1196.45
1725.16
-1631.89
1735.33
-1944.37
1612.39
-2194.76
1550.58
-2366.26
1471.4
-2468.06
1401.7
-2499.94
1332.09
-2465.56
1265.52
-2362.64
1196.98
-2186.23
1123.79
-1924.02
1037.69
-1537.27
913.148
-944.892
707.82
355.008
-199.984
2271.37
-464.59
1989.77
-750.399
2021.14
-986.754
1848.74
-1215.55
1779.38
-1407.61
1663.45
-1578.66
1572.75
-1720.73
1474.15
-1822.41
1367.2
-1835.64
1210.21
-1673.66
961.809
-1285.34
649.364
-783.344
411.153
-331.025
255.498
23.9817
-202.329
2473.7
-450.756
2238.19
-649.752
2220.13
-800.932
1999.92
-945.129
1923.58
-1052.47
1770.79
-1149.95
1670.23
-1229.39
1553.6
-1289.27
1427.08
-1293.6
1214.53
-1173.77
841.975
-868.509
344.099
-493.306
35.9339
-134.626
-103.216
-110.644
16.5503
2457.15
-74.1846
2328.93
-107.467
2253.41
-120.253
2012.7
-130.195
1933.52
-119.931
1760.52
-101.087
1651.38
-67.4722
1519.98
-34.3422
1393.95
-33.2294
1213.41
-111.898
920.639
-262.831
495.033
-364.544
137.647
-327.035
-140.727
-437.679
165.601
2291.54
126.507
2368.02
171.908
2208.01
229.574
1955.04
296.857
1866.23
372.2
1685.18
458.387
1565.19
555.558
1422.81
656.257
1293.25
722.637
1147.03
686.074
957.204
479.857
701.244
212.321
405.177
35.7476
35.8391
-401.931
197.533
2094.01
172.373
2393.18
210.518
2169.87
263.331
1902.22
322.861
1806.7
382.368
1625.67
446.431
1501.13
515.18
1354.06
586.312
1222.12
645.443
1087.9
660.505
942.142
592.131
769.628
447.861
549.46
226.805
256.915
-175.126
171.666
1922.35
155.364
2409.48
162.279
2162.95
185.602
1878.9
217.058
1775.25
242.717
1600.01
266.784
1477.07
291.641
1329.2
314.55
1199.21
334.148
1068.31
338.961
937.331
310.326
798.26
238.435
621.348
120.745
374.597
-54.3799
138.022
1784.33
139.562
2407.94
128.342
2174.17
129.253
1877.99
146.618
1757.89
155.878
1590.75
162.357
1470.59
164.359
1327.2
163.999
1199.57
161.028
1071.28
154.059
944.3
136.192
816.13
97.6976
659.848
25.0389
447.281
-29.3411
109.807
1674.52
149.962
2367.79
153.515
2170.62
159.077
1872.43
187.611
1729.35
207.521
1570.85
226.387
1451.72
233.065
1320.52
232.751
1199.88
223.961
1080.07
207.421
960.839
182.448
841.102
144.231
698.063
67.887
523.621
38.5462
78.293
1596.23
158.728
2287.35
202.092
2127.26
232.559
1841.96
282.436
1679.47
323.265
1530.02
359.805
1415.18
379.608
1300.72
383.616
1195.87
369.801
1093.88
338.9
991.74
290.951
889.055
225.715
763.302
127.617
621.729
166.163
57.0352
1539.19
145.527
2198.86
225.143
2047.64
286.799
1780.31
353.263
1613.01
409.161
1474.12
453.373
1370.97
477.982
1276.11
482.405
1191.45
463.82
1112.47
422.709
1032.85
359.454
952.309
272.644
850.113
157.277
737.096
323.441
71.61
1467.58
135.248
2135.23
217.801
1965.09
296.765
1701.35
371.245
1538.53
433.037
1412.33
478.676
1325.33
501.69
1253.1
502.281
1190.86
480.562
1134.19
435.64
1077.77
368.439
1019.51
276.251
942.303
156.279
857.074
479.719
114.7
1352.88
151.458
2098.47
208.858
1907.69
303.392
1606.81
385.68
1456.25
438.938
1359.07
465.376
1298.9
471.457
1247.02
459.041
1203.28
430.898
1162.33
387.318
1121.36
326.056
1080.78
245.704
1022.66
139.613
963.165
619.332
230.038
1122.85
269.772
2058.74
186.741
1990.72
126.026
1667.53
142.787
1439.49
205.507
1296.35
278.473
1225.93
332.357
1193.14
358.502
1177.13
357.751
1163.09
332.752
1146.36
287.957
1125.57
213.818
1096.8
112.26
1064.72
731.592
521.104
1238.09
1404.83
1390.69
1342.06
1279.71
1203.63
1101.38
976.438
839.203
698.829
552.14
417.048
269.122
-2.36867e-05
135.009
-135.009
135.009
135.009
135.009
216.405
-81.3965
216.405
216.405
216.405
270.709
-54.3042
270.709
270.709
313.411
-42.7022
313.411
313.411
313.411
348.307
-34.8951
348.307
348.307
381.638
-33.3312
381.638
381.638
381.638
408.85
-27.2125
408.85
408.85
408.85
432.918
-24.0679
432.918
432.918
460.387
-27.4685
460.387
460.387
460.387
489.685
-29.2983
489.685
489.685
525.9
-36.2154
525.9
525.9
525.9
552.556
-26.6563
552.556
552.556
552.556
575.11
-22.5534
575.11
575.11
582.744
-7.63376
582.744
582.744
582.744
548.226
34.5181
548.226
548.226
548.226
470.592
77.634
470.591
470.592
349.332
121.259
349.332
349.332
349.332
162.136
187.197
162.136
162.136
-227.741
389.877
-227.741
-227.741
-227.741
-1014.19
786.446
-1014.19
-1014.19
-1014.19
-2287.13
1272.95
-2287.13
-2287.13
-4016.5
1729.37
-4016.5
-4016.5
-3831.65
-3647.93
-3459.35
-5252.05
1980.55
-5061.94
-4845.5
-4617.35
-4388.78
-4160.56
-3933.51
-3706.99
-3479.05
-5444.2
2193.92
-5213.76
-4979.41
-4743.35
-4505.41
-4266.52
-4028.05
-3789.86
-3550.26
-5738.02
2426.11
-5498.39
-5257.4
-5015.24
-4771.78
-4527.86
-4284.22
-4040.89
-3796.89
-3551.19
-5886.81
2578.56
-5642.88
-5397.98
-5153.2
-4909.05
-4665.59
-4423.19
-4180.55
-3936.15
-6302.93
2608.75
-6059.35
-5815.19
-5570.54
-5326.46
-5082.6
-4839.33
-4594.97
-4337.88
-6571.27
2488.22
-6317.38
-6063.55
-5809.72
-5540.84
-5264.52
-4987.13
-4706.42
-4422.78
-6340.53
2209.36
-6032.22
-5720.28
-5404.71
-5085.97
-4763.96
-4409.13
-4055.56
-3703.71
-3359.77
-4473.32
1438.02
-4173.38
-3891.59
-3628.9
-3387.41
-3164.99
-2989.19
-2883.39
-2772.5
-2785.06
138.463
-2677.22
-2573.98
-2573.98
-2726.53
152.551
-2798.84
72.3132
-2798.84
-2848.18
49.3393
-2848.18
-2867.51
19.3232
-2849.5
-18.0021
-2849.5
-2823.7
-25.8001
-2770.46
-53.2475
-2770.46
-2699.2
-71.2543
-2699.2
-2620.19
-79.0138
-2522.5
-97.6878
-2522.5
-2416.99
-105.509
-2416.99
-2314.94
-102.046
-2201.26
-113.689
-2201.26
-2083.92
-117.337
-1953.59
-130.326
-1953.59
-1820.69
-132.903
-1820.69
-1689.3
-131.385
-1549.14
-140.168
-1549.14
-1402
-147.141
-1402
-1258.78
-143.217
-1108.92
-149.859
-1108.92
-952.301
-156.618
-799.999
-152.301
-799.999
-647.782
-152.218
-647.782
-482.307
-165.475
-311.891
-170.415
-311.891
-136.516
-175.375
-136.516
31.8276
-168.344
230.879
-199.052
230.879
410.63
-179.751
607.976
-197.346
607.976
781.235
-173.259
781.235
925.094
-143.859
1071.72
-146.63
1071.72
1205.48
-133.756
1205.48
1320.47
-114.994
1430.91
-110.44
1430.91
1524.29
-93.3713
1607.83
-83.5411
1607.83
1681.85
-74.0215
1681.85
1721.36
-39.5139
1741.41
-20.0452
1741.41
1772.11
-30.7036
1772.11
1813.86
-41.7518
1873.18
-59.3124
1873.18
1963.54
-90.3635
2058.63
-95.096
2058.63
2181.89
-123.254
2181.89
-127.16
-1.88845
-10.1726
-1.8416
-15.1906
-1.82902
-18.9226
-1.82015
-22.3368
-1.82369
-25.7583
-1.83414
-29.0323
-1.85394
-32.3081
-1.8815
-35.5486
-1.91758
-38.8105
-1.96164
-42.0929
-2.01393
-45.4238
-2.07425
-48.8125
-2.14269
-52.2772
-2.21923
-55.8299
-2.30393
-59.4853
-2.39685
-63.2562
-2.49811
-67.1559
-2.60785
-71.1972
-2.72626
-75.3934
-2.85354
-79.7575
-2.98997
-84.3027
-3.13583
-89.0426
-3.29147
-93.9909
-3.45726
-99.1618
-3.63362
-104.57
-3.82102
-110.23
-4.01997
-116.158
-4.23102
-122.369
-4.45479
-128.881
-4.69192
-135.711
-4.94313
-142.877
-5.20917
-150.398
-5.49088
-158.295
-5.78912
-166.587
-6.10485
-175.297
-6.43907
-184.449
-6.79286
-194.065
-7.16736
-204.172
-7.56378
-214.796
-7.98341
-225.966
-8.42759
-237.71
-8.89773
-250.06
-9.39528
-263.047
-9.92172
-276.707
-10.4786
-291.073
-11.0673
-306.183
-11.6892
-322.073
-12.3457
-338.782
-13.0376
-356.347
-13.7657
-374.805
-14.5299
-394.189
-15.3294
-414.531
-16.1621
-435.851
-17.0243
-458.162
-17.9099
-481.458
-18.8096
-505.711
-19.7096
-530.859
-20.5905
-556.794
-21.4252
-583.348
-22.1764
-610.266
-22.7947
-637.195
-23.2142
-663.622
-23.3511
-688.897
-23.0952
-712.05
-22.3179
-732.017
-20.8474
-746.95
-18.5127
-755.287
-15.0767
-753.372
-10.3855
-739.058
-4.20356
-704.762
3.29179
-648.029
12.1217
-549.866
20.846
-412.004
33.4929
-123.052
31.253
266.909
38.9212
592.947
24.9138
708.111
105.083
1235.69
1334.79
-2.28751
-10.2411
-2.22269
-15.2554
-2.20381
-18.9415
-2.19152
-22.3491
-2.19497
-25.7548
-2.20735
-29.0199
-2.23111
-32.2843
-2.26432
-35.5154
-2.30772
-38.7671
-2.36067
-42.04
-2.4234
-45.3611
-2.49567
-48.7402
-2.57757
-52.1953
-2.66905
-55.7384
-2.77018
-59.3842
-2.88104
-63.1453
-3.00174
-67.0352
-3.13246
-71.0665
-3.27339
-75.2525
-3.42478
-79.6061
-3.58693
-84.1405
-3.76018
-88.8693
-3.9449
-93.8061
-4.14154
-98.9651
-4.35057
-104.361
-4.57252
-110.008
-4.80797
-115.922
-5.05755
-122.119
-5.32195
-128.617
-5.60191
-135.431
-5.89822
-142.581
-6.21174
-150.085
-6.5434
-157.963
-6.89418
-166.236
-7.26513
-174.926
-7.65737
-184.056
-8.0721
-193.65
-8.51056
-203.734
-8.9741
-214.333
-9.46411
-225.476
-9.98204
-237.192
-10.5294
-249.512
-11.1078
-262.469
-11.7187
-276.096
-12.3636
-290.428
-13.0441
-305.502
-13.7616
-321.356
-14.517
-338.027
-15.3112
-355.553
-16.1443
-373.972
-17.0158
-393.318
-17.924
-413.622
-18.8656
-434.909
-19.835
-457.192
-20.8237
-480.469
-21.8189
-504.716
-22.8027
-529.875
-23.7495
-555.847
-24.6247
-582.473
-25.3813
-609.51
-25.9575
-636.619
-26.2719
-663.307
-26.2231
-688.946
-25.6782
-712.595
-24.4846
-733.21
-22.4399
-748.994
-19.3453
-758.382
-14.9276
-757.789
-9.01527
-744.971
-1.35663
-712.421
7.78838
-657.174
18.4744
-560.553
28.7063
-422.236
42.7367
-137.082
39.1009
270.545
42.9068
589.141
27.6962
723.321
108.111
1155.28
1319.64
-2.50685
-10.3188
-2.43554
-15.3267
-2.41293
-18.9641
-2.39915
-22.3628
-2.40264
-25.7513
-2.41635
-29.0062
-2.44249
-32.2582
-2.47906
-35.4789
-2.52672
-38.7194
-2.58482
-41.9819
-2.65354
-45.2924
-2.73264
-48.6611
-2.82218
-52.1058
-2.92213
-55.6385
-3.03256
-59.2738
-3.15352
-63.0244
-3.28517
-66.9035
-3.42767
-70.924
-3.58124
-75.0989
-3.74614
-79.4412
-3.92269
-83.964
-4.11125
-88.6807
-4.31222
-93.6052
-4.52608
-98.7513
-4.75333
-104.133
-4.99454
-109.767
-5.25031
-115.666
-5.52133
-121.848
-5.80832
-128.33
-6.11207
-135.127
-6.43342
-142.259
-6.77329
-149.745
-7.13264
-157.604
-7.51252
-165.856
-7.91403
-174.525
-8.33836
-183.632
-8.78675
-193.202
-9.26053
-203.26
-9.76108
-213.832
-10.2899
-224.947
-10.8484
-236.633
-11.4382
-248.922
-12.0609
-261.846
-12.7181
-275.439
-13.4114
-289.735
-14.1421
-304.772
-14.9116
-320.586
-15.721
-337.217
-16.5708
-354.703
-17.4609
-373.081
-18.3905
-392.388
-19.3573
-412.656
-20.3572
-433.909
-21.3837
-456.166
-22.4268
-479.426
-23.4719
-503.671
-24.4985
-528.849
-25.4776
-554.868
-26.3704
-581.58
-27.1243
-608.756
-27.671
-636.072
-27.9208
-663.058
-27.7625
-689.104
-27.0515
-713.305
-25.6222
-734.639
-23.2568
-751.36
-19.7397
-761.899
-14.7802
-762.749
-8.1909
-751.56
0.290061
-720.902
10.3783
-667.263
22.1524
-572.327
33.2552
-433.339
49.6268
-153.454
47.9551
272.216
49.8315
587.265
31.2401
741.913
93.1624
1093.36
1317.71
-2.75539
-10.4042
-2.67897
-15.4032
-2.65346
-18.9896
-2.63867
-22.3776
-2.64274
-25.7473
-2.65836
-28.9906
-2.68757
-32.229
-2.7283
-35.4381
-2.78115
-38.6666
-2.84544
-41.9176
-2.92132
-45.2165
-3.00855
-48.5739
-3.10718
-52.0071
-3.21716
-55.5285
-3.33857
-59.1524
-3.47149
-62.8914
-3.61605
-66.7589
-3.77245
-70.7676
-3.94092
-74.9304
-4.12174
-79.2603
-4.31526
-83.7705
-4.52187
-88.4741
-4.742
-93.385
-4.97614
-98.5171
-5.22487
-103.885
-5.48876
-109.503
-5.7685
-115.387
-6.06479
-121.552
-6.37842
-128.016
-6.71023
-134.795
-7.06113
-141.908
-7.43208
-149.374
-7.82412
-157.212
-8.23836
-165.442
-8.67598
-174.087
-9.13823
-183.17
-9.62643
-192.714
-10.142
-202.744
-10.6863
-213.288
-11.261
-224.372
-11.8677
-236.027
-12.5078
-248.282
-13.1832
-261.171
-13.8954
-274.726
-14.646
-288.984
-15.4365
-303.981
-16.2681
-319.755
-17.1418
-336.344
-18.058
-353.787
-19.0164
-372.123
-20.0158
-391.389
-21.0532
-411.618
-22.1239
-432.839
-23.2201
-455.07
-24.3304
-478.316
-25.438
-502.563
-26.5195
-527.767
-27.5425
-553.845
-28.4631
-580.659
-29.2228
-607.996
-29.7456
-635.549
-29.9324
-662.871
-29.6605
-689.376
-28.7723
-714.194
-27.0863
-736.325
-24.3666
-754.08
-20.3779
-765.887
-14.8059
-768.321
-7.44309
-758.923
1.99062
-730.335
13.1987
-678.471
26.2713
-585.399
38.7176
-445.785
56.2707
-171.007
56.7135
271.773
58.6824
585.296
37.1517
763.443
85.4986
1045.01
1312.85
-2.99012
-10.4945
-2.91109
-15.4822
-2.88346
-19.0172
-2.86825
-22.3928
-2.87324
-25.7423
-2.89102
-28.9728
-2.92345
-32.1965
-2.96843
-35.3931
-3.02651
-38.6085
-3.09696
-41.8472
-3.17993
-45.1336
-3.27517
-48.4787
-3.38272
-51.8996
-3.50254
-55.4087
-3.63469
-59.0202
-3.77927
-62.7469
-3.93643
-66.6018
-4.10637
-70.5977
-4.28933
-74.7475
-4.48564
-79.064
-4.69565
-83.5604
-4.91977
-88.25
-5.15848
-93.1463
-5.41232
-98.2633
-5.68186
-103.615
-5.96776
-109.217
-6.27072
-115.084
-6.5915
-121.231
-6.93094
-127.677
-7.28994
-134.436
-7.66944
-141.529
-8.07049
-148.973
-8.49418
-156.788
-8.94169
-164.995
-9.41425
-173.615
-9.9132
-182.671
-10.4399
-192.187
-10.9959
-202.188
-11.5826
-212.701
-12.2017
-223.753
-12.8548
-235.374
-13.5437
-247.593
-14.27
-260.445
-15.0353
-273.961
-15.8414
-288.178
-16.6896
-303.133
-17.5812
-318.863
-18.5172
-335.408
-19.4976
-352.806
-20.5221
-371.098
-21.589
-390.322
-22.6948
-410.512
-23.8341
-431.7
-24.9981
-453.906
-26.1738
-477.14
-27.3425
-501.394
-28.4782
-526.632
-29.545
-552.779
-30.4945
-579.71
-31.2625
-607.228
-31.7658
-635.046
-31.8964
-662.74
-31.5212
-689.751
-30.4698
-715.245
-28.5462
-738.249
-25.4973
-757.128
-21.068
-770.317
-14.9211
-774.468
-6.82603
-767.018
3.51988
-740.681
15.8298
-690.781
30.2046
-599.774
44.125
-459.705
62.9344
-189.817
65.9517
268.756
68.4125
582.835
43.7821
788.074
64.9198
1023.87
1318.45
-3.22099
-10.588
-3.14092
-15.5623
-3.11195
-19.0462
-3.09691
-22.4079
-3.10321
-25.736
-3.12346
-28.9525
-3.15938
-32.1606
-3.20886
-35.3437
-3.27238
-38.545
-3.34922
-41.7703
-3.43949
-45.0433
-3.54293
-48.3752
-3.6596
-51.7829
-3.78943
-55.2788
-3.93251
-58.8771
-4.08894
-62.5904
-4.25887
-66.4319
-4.44253
-70.414
-4.64018
-74.5498
-4.85215
-78.8521
-5.07883
-83.3338
-5.32067
-88.0082
-5.57817
-92.8888
-5.8519
-97.9896
-6.14248
-103.325
-6.4506
-108.909
-6.77701
-114.757
-7.12252
-120.886
-7.48803
-127.311
-7.87446
-134.05
-8.28285
-141.121
-8.71429
-148.541
-9.16993
-156.332
-9.65101
-164.514
-10.1588
-173.107
-10.6948
-182.135
-11.2604
-191.621
-11.8572
-201.592
-12.4867
-212.072
-13.1506
-223.089
-13.8507
-234.673
-14.5887
-246.855
-15.3664
-259.667
-16.1855
-273.142
-17.0476
-287.316
-17.9542
-302.226
-18.9065
-317.911
-19.9054
-334.409
-20.9509
-351.761
-22.0423
-370.007
-23.1777
-389.187
-24.3531
-409.337
-25.5624
-430.49
-26.7956
-452.673
-28.0385
-475.897
-29.2706
-500.162
-30.4632
-525.439
-31.5771
-551.665
-32.5596
-578.727
-33.3409
-606.447
-33.8308
-634.556
-33.9128
-662.658
-33.4434
-690.221
-32.24
-716.449
-30.092
-740.397
-26.7293
-760.491
-21.8766
-775.169
-15.1721
-781.172
-6.35885
-775.831
4.89463
-751.935
18.3291
-704.215
34.0544
-615.499
49.5718
-475.223
69.8384
-210.083
75.6811
262.913
77.9709
580.545
49.1196
816.925
38.4359
1034.56
1315.14
-3.44662
-10.6832
-3.36683
-15.642
-3.33721
-19.0758
-3.32285
-22.4222
-3.33081
-25.728
-3.35383
-28.9295
-3.39347
-32.121
-3.44766
-35.2895
-3.51681
-38.4759
-3.60019
-41.6869
-3.6979
-44.9456
-3.80969
-48.2634
-3.93558
-51.657
-4.07553
-55.1389
-4.22964
-58.723
-4.39799
-62.4221
-4.58078
-66.2491
-4.77822
-70.2166
-4.99061
-74.3374
-5.21831
-78.6244
-5.46172
-83.0904
-5.72132
-87.7486
-5.99764
-92.6125
-6.2913
-97.6959
-6.60295
-103.013
-6.93332
-108.578
-7.28321
-114.407
-7.65348
-120.516
-8.04506
-126.919
-8.45896
-133.636
-8.89625
-140.683
-9.35809
-148.08
-9.84569
-155.845
-10.3604
-163.999
-10.9035
-172.564
-11.4765
-181.562
-12.081
-191.017
-12.7186
-200.954
-13.3909
-211.399
-14.0997
-222.38
-14.8468
-233.926
-15.6339
-246.068
-16.463
-258.838
-17.3359
-272.269
-18.254
-286.398
-19.2191
-301.261
-20.2322
-316.898
-21.2941
-333.347
-22.4048
-350.65
-23.5635
-368.848
-24.7677
-387.982
-26.0132
-408.091
-27.2929
-429.211
-28.5963
-451.369
-29.9076
-474.586
-31.2046
-498.865
-32.4562
-524.187
-33.6199
-550.501
-34.639
-577.708
-35.4384
-605.648
-35.921
-634.073
-35.9622
-662.617
-35.4086
-690.774
-34.0656
-717.792
-31.7085
-742.754
-28.0505
-764.149
-22.7957
-780.424
-15.5569
-788.411
-6.04661
-785.341
6.10123
-764.083
20.6714
-718.785
37.7822
-632.61
55.003
-492.443
76.8686
-231.949
85.8961
253.886
87.4839
578.958
55.3652
849.044
22.6661
1067.25
1307.1
-3.66791
-10.7788
-3.58941
-15.7205
-3.55975
-19.1055
-3.54655
-22.4354
-3.55652
-25.7181
-3.58259
-28.9034
-3.6262
-32.0773
-3.68531
-35.2304
-3.76027
-38.4009
-3.85037
-41.5968
-3.95568
-44.8403
-4.07595
-48.1432
-4.2112
-51.5218
-4.36141
-54.9887
-4.52665
-58.5578
-4.70704
-62.2417
-4.90278
-66.0533
-5.11411
-70.0053
-5.34134
-74.1102
-5.58484
-78.3809
-5.84506
-82.8301
-6.1225
-87.4711
-6.41774
-92.3173
-6.7314
-97.3822
-7.06419
-102.68
-7.41689
-108.226
-7.79034
-114.034
-8.18544
-120.12
-8.60318
-126.502
-9.04463
-133.195
-9.51091
-140.217
-10.0032
-147.587
-10.5229
-155.325
-11.0712
-163.451
-11.6497
-171.985
-12.2599
-180.952
-12.9034
-190.373
-13.5819
-200.276
-14.2971
-210.684
-15.0509
-221.627
-15.8451
-233.132
-16.6816
-245.232
-17.5622
-257.957
-18.489
-271.343
-19.4634
-285.424
-20.4871
-300.238
-21.5613
-315.824
-22.6865
-332.222
-23.8628
-349.474
-25.0891
-367.622
-26.3627
-386.709
-27.6788
-406.775
-29.03
-427.859
-30.4046
-449.995
-31.7858
-473.205
-33.1496
-497.502
-34.4626
-522.874
-35.6794
-549.284
-36.7393
-576.648
-37.562
-604.825
-38.0442
-633.591
-38.0533
-662.608
-37.4262
-691.401
-35.9569
-719.261
-33.4069
-745.304
-29.473
-768.083
-23.8385
-786.059
-16.0897
-796.16
-5.90429
-795.527
7.12465
-777.112
22.8414
-734.502
41.3726
-651.141
60.4056
-511.477
83.9484
-255.492
96.5798
241.254
97.5658
577.972
67.3541
879.256
19.432
1115.18
1306.49
-3.88521
-10.8739
-3.80876
-15.797
-3.77963
-19.1346
-3.76805
-22.447
-3.78034
-25.7058
-3.80973
-28.8741
-3.85754
-32.0295
-3.92178
-35.1661
-4.00274
-38.3199
-4.09972
-41.4998
-4.21279
-44.7272
-4.34168
-48.0143
-4.48644
-51.377
-4.64701
-54.8281
-4.82351
-58.3813
-5.01605
-62.0492
-5.22484
-65.8445
-5.45015
-69.78
-5.6923
-73.868
-5.9517
-78.1215
-6.22882
-82.553
-6.52418
-87.1758
-6.8384
-92.003
-7.17214
-97.0485
-7.52616
-102.326
-7.90126
-107.851
-8.29833
-113.637
-8.71834
-119.7
-9.16232
-126.058
-9.63139
-132.726
-10.1267
-139.722
-10.6496
-147.064
-11.2014
-154.773
-11.7835
-162.868
-12.3975
-171.371
-13.0449
-180.304
-13.7275
-189.691
-14.447
-199.556
-15.2052
-209.926
-16.0041
-220.828
-16.8455
-232.291
-17.7314
-244.346
-18.6639
-257.025
-19.6446
-270.362
-20.6755
-284.393
-21.7581
-299.155
-22.8935
-314.688
-24.0824
-331.033
-25.3247
-348.232
-26.619
-366.328
-27.9624
-385.365
-29.35
-405.388
-30.7735
-426.436
-32.2205
-448.547
-33.6731
-471.752
-35.1056
-496.069
-36.4827
-521.497
-37.756
-548.011
-38.8611
-575.543
-39.7129
-603.973
-40.2019
-633.102
-40.1879
-662.622
-39.4986
-692.091
-37.9171
-720.842
-35.1915
-748.03
-31.0024
-772.272
-25.0121
-792.049
-16.7794
-804.392
-5.94312
-806.363
7.9512
-791.006
24.822
-751.373
44.8056
-671.125
65.7366
-532.408
91.1298
-280.885
107.809
224.576
108.743
577.037
85.7918
902.207
46.1743
1154.79
1313.15
-4.09889
-10.9678
-4.02509
-15.8708
-3.99699
-19.1627
-3.98743
-22.4566
-4.00236
-25.6908
-4.03534
-28.8411
-4.08758
-31.9773
-4.15714
-35.0966
-4.24429
-38.2328
-4.34833
-41.3958
-4.46931
-44.6062
-4.60698
-47.8766
-4.76136
-51.2226
-4.93244
-54.657
-5.12031
-58.1934
-5.3251
-61.8444
-5.54706
-65.6226
-5.78644
-69.5406
-6.04362
-73.6109
-6.31901
-77.8461
-6.6131
-82.2589
-6.92648
-86.8624
-7.25976
-91.6698
-7.61367
-96.6946
-7.98899
-101.951
-8.38658
-107.453
-8.80736
-113.216
-9.25236
-119.255
-9.72266
-125.587
-10.2194
-132.229
-10.7439
-139.197
-11.2975
-146.511
-11.8815
-154.189
-12.4975
-162.252
-13.147
-170.722
-13.8318
-179.619
-14.5536
-188.969
-15.3142
-198.795
-16.1155
-209.124
-16.9596
-219.984
-17.8484
-231.402
-18.7839
-243.41
-19.7682
-256.04
-20.8033
-269.327
-21.8908
-283.305
-23.0325
-298.013
-24.2295
-313.491
-25.4823
-329.78
-26.7909
-346.923
-28.1537
-364.965
-29.5677
-383.951
-31.0274
-403.928
-32.5242
-424.939
-34.0449
-447.027
-35.5705
-470.227
-37.074
-494.565
-38.5179
-520.053
-39.8514
-546.677
-41.0064
-574.388
-41.8933
-603.086
-42.3967
-632.599
-42.3695
-662.649
-41.6301
-692.83
-39.9513
-722.521
-37.0682
-750.913
-32.6459
-776.695
-26.3253
-798.37
-17.6367
-813.081
-6.17619
-817.824
8.56522
-805.747
26.594
-769.402
48.0596
-692.591
70.9704
-555.318
98.4347
-308.349
119.486
203.524
121.008
575.515
105.814
917.401
87.5113
1173.1
1326.64
-4.30927
-11.0598
-4.23857
-15.9415
-4.21197
-19.1893
-4.20479
-22.4638
-4.22266
-25.673
-4.25949
-28.8042
-4.31638
-31.9204
-4.39147
-35.0215
-4.48498
-38.1393
-4.59625
-41.2845
-4.7253
-44.4772
-4.87189
-47.73
-5.03605
-51.0585
-5.21775
-54.4753
-5.41711
-57.9941
-5.63428
-61.6272
-5.86951
-65.3874
-6.12307
-69.287
-6.39537
-73.3386
-6.68684
-77.5546
-6.99802
-81.9478
-7.32949
-86.5309
-7.68193
-91.3173
-8.05609
-96.3204
-8.4528
-101.554
-8.87296
-107.033
-9.31755
-112.771
-9.78763
-118.785
-10.2843
-125.091
-10.8089
-131.704
-11.3626
-138.643
-11.9469
-145.927
-12.5633
-153.573
-13.2132
-161.602
-13.8984
-170.037
-14.6207
-178.897
-15.3818
-188.208
-16.1836
-197.994
-17.0283
-208.28
-17.9177
-219.094
-18.854
-230.466
-19.8393
-242.425
-20.8757
-255.004
-21.9652
-268.237
-23.1096
-282.161
-24.3106
-296.812
-25.5694
-312.232
-26.8866
-328.463
-28.2619
-345.548
-29.6937
-363.533
-31.1789
-382.466
-32.7116
-402.395
-34.2827
-423.368
-35.8784
-445.431
-37.4788
-468.626
-39.0555
-492.989
-40.5693
-518.54
-41.9669
-545.28
-43.1768
-573.178
-44.1052
-602.158
-44.6313
-632.073
-44.6009
-662.679
-43.8242
-693.607
-42.0638
-724.282
-39.0424
-753.934
-34.41
-781.327
-27.7862
-804.993
-18.6719
-822.195
-6.61638
-829.879
8.9507
-821.314
28.1376
-788.589
51.111
-715.564
76.0901
-580.297
105.814
-338.073
131.303
178.036
133.613
573.205
123.594
927.421
107.93
1188.76
1351.03
-4.51662
-11.1496
-4.44939
-16.0087
-4.42468
-19.214
-4.42024
-22.4682
-4.44133
-25.6519
-4.48224
-28.7633
-4.544
-31.8586
-4.62482
-34.9407
-4.72489
-38.0392
-4.84356
-41.1659
-4.98084
-44.3399
-5.13649
-47.5744
-5.31056
-50.8844
-5.50302
-54.2829
-5.714
-57.7831
-5.94366
-61.3975
-6.19227
-65.1388
-6.46013
-69.0191
-6.74765
-73.051
-7.05531
-77.2469
-7.38365
-81.6194
-7.73332
-86.1813
-8.10501
-90.9456
-8.49952
-95.9259
-8.91772
-101.136
-9.36054
-106.59
-9.82902
-112.303
-10.3243
-118.29
-10.8475
-124.568
-11.4
-131.152
-11.983
-138.06
-12.5982
-145.311
-13.247
-152.924
-13.931
-160.918
-14.652
-169.315
-15.4119
-178.137
-16.2124
-187.407
-17.0557
-197.15
-17.9437
-207.392
-18.8786
-218.159
-19.8626
-229.482
-20.8979
-241.39
-21.9865
-253.915
-23.1307
-267.093
-24.3322
-280.959
-25.5929
-295.552
-26.9138
-310.911
-28.2957
-327.081
-29.7381
-344.105
-31.2396
-362.032
-32.7966
-380.909
-34.4031
-400.789
-36.0497
-421.721
-37.7219
-443.759
-39.3989
-466.949
-41.0513
-491.336
-42.6382
-516.953
-44.1038
-543.814
-45.374
-571.908
-46.3507
-601.181
-46.908
-631.516
-46.8852
-662.702
-46.0845
-694.407
-44.259
-726.107
-41.1195
-757.074
-36.3013
-786.145
-29.403
-811.892
-19.8954
-831.703
-7.27713
-842.497
9.09058
-837.682
29.4315
-808.929
53.9361
-740.069
81.0666
-607.428
113.256
-370.263
143.165
148.127
146.428
569.942
138.736
935.112
127.399
1200.1
1385.05
-4.72118
-11.2366
-4.65769
-16.0722
-4.63524
-19.2364
-4.63385
-22.4696
-4.65843
-25.6273
-4.70368
-28.7181
-4.77052
-31.7918
-4.85726
-34.8539
-4.96406
-37.9324
-5.0903
-41.0396
-5.23597
-44.1942
-5.40085
-47.4095
-5.58497
-50.7003
-5.78832
-54.0795
-6.01105
-57.5604
-6.25333
-61.1552
-6.51543
-64.8767
-6.79769
-68.7369
-7.10055
-72.7482
-7.42449
-76.923
-7.77011
-81.2738
-8.13808
-85.8133
-8.52912
-90.5546
-8.94408
-95.5109
-9.38386
-100.696
-9.84945
-106.124
-10.3419
-111.811
-10.8625
-117.77
-11.4123
-124.018
-11.9928
-130.571
-12.6053
-137.448
-13.2514
-144.665
-13.9328
-152.243
-14.651
-160.2
-15.4079
-168.559
-16.2055
-177.34
-17.0456
-186.567
-17.9304
-196.266
-18.862
-206.46
-19.8426
-217.179
-20.8745
-228.45
-21.9599
-240.304
-23.101
-252.774
-24.3001
-265.894
-25.5591
-279.7
-26.8796
-294.231
-28.2631
-309.528
-29.71
-325.634
-31.2201
-342.595
-32.7918
-360.46
-34.4213
-379.28
-36.1027
-399.107
-37.8258
-419.998
-39.576
-442.009
-41.3317
-465.194
-43.0623
-489.606
-44.7255
-515.289
-46.2636
-542.276
-47.5995
-570.572
-48.6317
-600.149
-49.2291
-630.918
-49.2253
-662.706
-48.4146
-695.218
-46.5413
-727.98
-43.3046
-760.31
-38.3263
-791.123
-31.1838
-819.034
-21.3176
-841.569
-8.17217
-855.643
8.96703
-854.821
30.4534
-830.416
56.5107
-766.126
85.8793
-636.797
120.525
-404.909
154.969
113.683
159.601
565.31
152.085
942.628
143.65
1208.53
1418.26
-4.92317
-11.3207
-4.86363
-16.1318
-4.84378
-19.2563
-4.84572
-22.4677
-4.87405
-25.599
-4.92386
-28.6683
-4.996
-31.7197
-5.08886
-34.761
-5.20259
-37.8187
-5.33656
-40.9056
-5.49079
-44.04
-5.66504
-47.2352
-5.85935
-50.506
-6.07374
-53.8651
-6.30835
-57.3257
-6.56336
-60.9002
-6.83908
-64.6009
-7.13586
-68.4401
-7.45416
-72.4299
-7.79451
-76.5826
-8.15751
-80.9108
-8.54388
-85.4269
-8.95438
-90.1441
-9.38989
-95.0754
-9.85136
-100.235
-10.3398
-105.636
-10.8564
-111.294
-11.4023
-117.224
-11.9789
-123.441
-12.5875
-129.963
-13.2296
-136.806
-13.9068
-143.988
-14.6209
-151.529
-15.3734
-159.448
-16.1664
-167.766
-17.0019
-176.504
-17.8818
-185.687
-18.8083
-195.339
-19.7836
-205.485
-20.8101
-216.152
-21.89
-227.37
-23.0257
-239.168
-24.2196
-251.58
-25.4738
-264.64
-26.7904
-278.384
-28.1712
-292.85
-29.6176
-308.082
-31.13
-324.122
-32.7083
-341.017
-34.3508
-358.818
-36.0537
-377.577
-37.8108
-397.35
-39.6118
-418.197
-41.4416
-440.179
-43.2779
-463.357
-45.0894
-487.794
-46.8325
-513.546
-48.4476
-540.661
-49.8551
-569.165
-50.9501
-599.054
-51.5972
-630.271
-51.624
-662.679
-50.8179
-696.024
-48.9146
-729.884
-45.6028
-763.622
-40.4912
-796.235
-33.1367
-826.389
-22.949
-851.757
-9.31566
-869.276
8.56119
-872.698
31.179
-853.034
58.8107
-793.758
90.5015
-668.487
127.297
-441.704
166.745
74.2347
172.929
559.127
164.502
951.054
156.447
1216.59
1459.72
-5.12278
-11.4015
-5.06736
-16.1872
-5.0504
-19.2733
-5.05595
-22.4621
-5.08827
-25.5666
-5.14287
-28.6137
-5.22051
-31.642
-5.31969
-34.6619
-5.44052
-37.6979
-5.58241
-40.7637
-5.74535
-43.8771
-5.92913
-47.0515
-6.13379
-50.3013
-6.35935
-53.6396
-6.60597
-57.0791
-6.87385
-60.6323
-7.16331
-64.3115
-7.47474
-68.1287
-7.8086
-72.096
-8.16546
-76.2258
-8.54596
-80.5303
-8.95084
-85.0221
-9.38092
-89.714
-9.83709
-94.6193
-10.3204
-99.7514
-10.8318
-105.125
-11.3726
-110.753
-11.9441
-116.652
-12.5475
-122.838
-13.1843
-129.326
-13.8561
-136.134
-14.5646
-143.28
-15.3115
-150.782
-16.0985
-158.661
-16.9278
-166.936
-17.8012
-175.631
-18.721
-184.768
-19.6894
-194.371
-20.7087
-204.466
-21.7812
-215.08
-22.9094
-226.242
-24.0957
-237.982
-25.3425
-250.333
-26.6522
-263.33
-28.0268
-277.009
-29.4682
-291.409
-30.9778
-306.572
-32.5562
-322.543
-34.2032
-339.37
-35.9172
-357.104
-37.6943
-375.8
-39.5281
-395.516
-41.4083
-416.317
-43.3193
-438.268
-45.2385
-461.438
-47.1337
-485.899
-48.9602
-511.72
-50.657
-538.964
-52.1422
-567.68
-53.3078
-597.888
-54.0143
-629.564
-54.0841
-662.609
-53.2977
-696.811
-51.3832
-731.798
-48.0191
-766.986
-42.8021
-801.452
-35.2694
-833.921
-24.8002
-862.226
-10.7222
-883.354
7.85311
-891.273
31.5828
-876.763
60.8109
-822.986
94.9004
-702.577
133.56
-480.364
178.186
29.6088
185.938
551.375
176.929
960.063
166.213
1227.3
1492.17
-5.32017
-11.4789
-5.26901
-16.2383
-5.25523
-19.287
-5.26461
-22.4527
-5.30118
-25.5301
-5.36078
-28.5541
-5.44413
-31.5587
-5.54983
-34.5562
-5.67794
-37.5697
-5.82792
-40.6138
-5.99974
-43.7052
-6.19321
-46.858
-6.40837
-50.0862
-6.64524
-53.4027
-6.90401
-56.8204
-7.1849
-60.3515
-7.48823
-64.0081
-7.81442
-67.8025
-8.16397
-71.7465
-8.53746
-75.8523
-8.93558
-80.1322
-9.35909
-84.5986
-9.80886
-89.2642
-10.2858
-94.1423
-10.791
-99.2462
-11.3256
-104.59
-11.8907
-110.188
-12.4878
-116.055
-13.1182
-122.207
-13.7834
-128.661
-14.4851
-135.432
-15.2249
-142.54
-16.0048
-150.002
-16.8265
-157.839
-17.6921
-166.071
-18.6037
-174.719
-19.5636
-183.808
-20.5741
-193.36
-21.6375
-203.402
-22.7563
-213.961
-23.933
-225.065
-25.1702
-236.745
-26.4702
-249.033
-27.8356
-261.965
-29.2685
-275.576
-30.7709
-289.907
-32.3441
-304.999
-33.989
-320.898
-35.7054
-337.653
-37.4915
-355.318
-39.3436
-373.947
-41.2552
-393.605
-43.2159
-414.356
-45.2099
-436.274
-47.2142
-459.434
-49.196
-483.917
-51.1099
-509.806
-52.8933
-537.18
-54.4625
-566.11
-55.7068
-596.644
-56.4829
-628.788
-56.6083
-662.484
-55.8574
-697.562
-53.951
-733.704
-50.5582
-770.379
-45.2651
-806.745
-37.5899
-841.597
-26.8819
-872.934
-12.4067
-897.83
6.82173
-910.502
31.637
-901.579
62.4816
-853.831
99.0509
-739.146
139.811
-521.124
188.254
-18.8347
198.445
541.184
189.748
968.76
172.178
1244.87
1517.72
-5.51551
-11.5527
-5.4687
-16.2851
-5.45835
-19.2974
-5.47181
-22.4393
-5.51284
-25.489
-5.57767
-28.4893
-5.66694
-31.4694
-5.77934
-34.4438
-5.91493
-37.4342
-6.07317
-40.4555
-6.25404
-43.5244
-6.45736
-46.6547
-6.68316
-49.8604
-6.9315
-53.1544
-7.20256
-56.5493
-7.49659
-60.0574
-7.81393
-63.6908
-8.15501
-67.4614
-8.52037
-71.3811
-8.91063
-75.462
-9.32649
-79.7163
-9.76876
-84.1563
-10.2383
-88.7947
-10.7362
-93.6444
-11.2635
-98.719
-11.8213
-104.032
-12.4109
-109.598
-13.0337
-115.432
-13.6913
-121.55
-14.385
-127.967
-15.1167
-134.7
-15.8881
-141.768
-16.701
-149.189
-17.5575
-156.982
-18.4597
-165.168
-19.4098
-173.769
-20.4099
-182.808
-21.4627
-192.307
-22.5704
-202.294
-23.7358
-212.796
-24.9612
-223.839
-26.2495
-235.457
-27.6031
-247.68
-29.0245
-260.543
-30.516
-274.085
-32.0797
-288.343
-33.7171
-303.361
-35.429
-319.186
-37.2153
-335.867
-39.0743
-353.459
-41.0023
-372.019