/*--------------------------------*- C++ -*----------------------------------*\
| =========                 |                                                 |
| \\      /  F ield         | OpenFOAM: The Open Source CFD Toolbox           |
|  \\    /   O peration     | Version:  4.1                                   |
|   \\  /    A nd           | Web:      www.OpenFOAM.org                      |
|    \\/     M anipulation  |                                                 |
\*---------------------------------------------------------------------------*/
FoamFile
{
    version     2.0;
    format      ascii;
    class       volVectorField;
    location    "3";
    object      U;
}
// * * * * * * * * * * * * * * * * * * * * * * * * * * * * * * * * * * * * * //

dimensions      [0 1 -1 0 0 0 0];

internalField   nonuniform List<vector> 
6785
(
(1.21788e-14 -2.25321 16.393)
(1.11009e-14 -7.90361 12.8588)
(-2.72712e-15 -5.12327 13.649)
(4.74025e-15 -5.08895 13.1392)
(8.56353e-16 -4.31034 12.9815)
(-2.71041e-16 -3.90387 12.675)
(2.42035e-15 -3.5011 12.3806)
(4.67743e-16 -3.22925 12.0696)
(3.7868e-17 -3.05398 11.7712)
(1.20239e-15 -2.99467 11.4652)
(-3.79434e-19 -2.99309 11.1424)
(-4.47649e-16 -3.0207 10.7771)
(1.59798e-16 -3.42112 10.0958)
(-4.69754e-17 -3.46723 9.05659)
(5.21558e-16 0.00540136 7.40229)
(1.70365e-14 -10.17 26.546)
(1.2144e-14 -16.0645 22.974)
(-2.57431e-15 -11.0308 23.3198)
(4.02143e-15 -11.7628 21.5043)
(3.72655e-16 -10.0246 20.6631)
(3.26305e-17 -9.36434 19.4474)
(9.32931e-16 -8.35286 18.4028)
(-1.34391e-16 -7.54532 17.325)
(-5.90491e-16 -6.72168 16.2704)
(-7.06887e-16 -5.98535 15.1696)
(-1.06911e-15 -5.36385 13.9618)
(-1.11562e-15 -4.90005 12.4994)
(-3.09138e-16 -4.58329 10.5376)
(7.35294e-16 -3.90092 7.44364)
(5.39298e-16 -1.27641 2.25702)
(1.97978e-14 -12.9712 28.2719)
(9.64663e-15 -16.7245 25.3082)
(-1.26983e-15 -12.1036 25.229)
(3.99551e-15 -13.0037 22.8383)
(-2.74664e-16 -10.8917 21.8674)
(8.88756e-16 -10.3988 20.2399)
(1.12247e-15 -9.26267 19.0333)
(-7.33974e-16 -8.49189 17.7121)
(1.81485e-16 -7.44196 16.1803)
(1.60503e-15 -5.87456 13.5549)
(5.75706e-15 -3.25979 8.9774)
(1.55575e-14 -0.315746 3.23229)
(1.84316e-14 1.11634 -0.248301)
(1.05893e-14 0.903973 -0.654505)
(2.59195e-15 0.552356 -0.301218)
(1.94534e-14 -14.0889 28.7969)
(9.81708e-15 -17.3836 26.2695)
(-1.91055e-15 -13.0578 25.903)
(4.19263e-15 -14.4109 23.1903)
(4.7755e-16 -11.9831 22.3457)
(1.68145e-19 -11.9942 20.4197)
(1.37801e-15 -10.7409 19.2646)
(8.48349e-16 -10.2521 17.8391)
(-1.05517e-15 -9.34011 16.4147)
(1.22148e-15 -8.07791 14.0773)
(6.71374e-15 -5.55701 9.91554)
(1.23433e-14 -1.92237 3.80075)
(2.33187e-14 0.92636 -0.464175)
(2.50608e-14 2.92572 -3.21772)
(2.44443e-15 2.22504 -4.50336)
(1.94266e-14 -14.0721 27.6851)
(1.27589e-14 -17.8606 27.2462)
(-8.62201e-16 -13.5945 25.8814)
(4.53672e-15 -14.7196 23.0468)
(3.22217e-15 -12.4447 22.09)
(7.85152e-16 -12.4362 20.029)
(2.14179e-15 -11.233 18.7013)
(3.46165e-15 -10.7015 17.1225)
(8.50057e-16 -9.92792 15.6661)
(1.15412e-15 -9.05669 13.8855)
(4.85575e-15 -7.66308 11.3619)
(6.61941e-15 -5.39386 7.79863)
(8.75109e-15 -2.94245 4.02712)
(1.47608e-14 0.574275 -0.113891)
(3.63049e-15 1.92169 -5.40306)
(1.73529e-14 -13.3123 25.3265)
(1.40915e-14 -17.7127 27.5473)
(-9.11194e-16 -13.5886 25.235)
(3.71994e-15 -14.1381 22.2385)
(3.55113e-15 -12.0743 21.1596)
(-8.73146e-17 -11.8754 19.0577)
(1.59432e-15 -10.6503 17.6131)
(3.21354e-15 -9.97964 15.9238)
(6.39238e-16 -9.14585 14.3974)
(4.30856e-16 -8.32715 12.8092)
(2.5816e-15 -7.38942 10.9857)
(3.27825e-15 -5.96989 8.71325)
(3.042e-15 -4.2925 5.83423)
(3.96028e-15 -1.50804 2.10789)
(-3.0261e-15 0.671645 -2.9484)
(1.45867e-14 -12.3667 23.0584)
(1.40989e-14 -17.4593 27.7165)
(-8.73924e-16 -13.591 24.8855)
(2.86922e-15 -13.5945 21.705)
(3.14656e-15 -11.6613 20.5641)
(-1.06201e-15 -11.3642 18.4937)
(9.24407e-16 -10.0851 17.0581)
(2.90926e-15 -9.36325 15.34)
(4.15931e-16 -8.43798 13.8224)
(3.12476e-16 -7.60342 12.3064)
(2.63863e-15 -6.76774 10.753)
(3.17246e-15 -5.70219 9.03995)
(2.45454e-15 -4.45649 6.8209)
(4.00809e-15 -2.37969 3.73599)
(2.07362e-15 0.0555741 -0.968659)
(1.2639e-14 -11.5188 21.2813)
(1.39588e-14 -17.2657 27.8662)
(-1.46415e-16 -13.8231 24.991)
(2.09414e-15 -13.3342 21.6221)
(3.19739e-15 -11.5147 20.3673)
(-5.67168e-16 -11.1534 18.3794)
(9.86177e-16 -9.88642 16.9812)
(3.6359e-15 -9.16064 15.2802)
(2.12434e-15 -8.18741 13.7847)
(2.02891e-15 -7.33908 12.2775)
(4.65246e-15 -6.50007 10.7975)
(5.59014e-15 -5.5543 9.28014)
(4.67158e-15 -4.50358 7.38825)
(6.53879e-15 -2.73585 4.68304)
(1.28231e-14 0.372548 -1.13409)
(1.2776e-14 -10.8338 19.859)
(1.53169e-14 -16.9323 27.6821)
(1.80883e-15 -14.1539 25.1617)
(1.93313e-15 -13.2423 21.6818)
(4.45645e-15 -11.5696 20.173)
(2.55015e-15 -11.0962 18.3022)
(2.78109e-15 -9.98014 16.9177)
(5.36397e-15 -9.25591 15.3152)
(5.59912e-15 -8.344 13.8637)
(5.2436e-15 -7.50635 12.4018)
(6.98995e-15 -6.67465 10.9552)
(8.61594e-15 -5.75283 9.51084)
(7.90634e-15 -4.81292 7.78815)
(9.55406e-15 -3.27144 5.57371)
(1.25472e-14 -0.619237 0.114544)
(1.70508e-14 -10.3552 18.7718)
(2.02281e-14 -16.2847 26.9413)
(6.04677e-15 -14.2453 24.9266)
(3.51567e-15 -13.0912 21.5257)
(6.60296e-15 -11.5626 19.7238)
(6.52108e-15 -10.9577 17.9487)
(5.37971e-15 -10.0366 16.5858)
(6.22026e-15 -9.34426 15.156)
(6.87546e-15 -8.5682 13.834)
(5.65476e-15 -7.80503 12.5338)
(5.32485e-15 -7.04666 11.2287)
(6.76744e-15 -6.16857 9.91961)
(7.01487e-15 -5.29338 8.35013)
(9.96308e-15 -3.91588 6.54991)
(1.17444e-14 -1.2405 1.10967)
(2.14329e-14 -10.1087 18.0923)
(2.81548e-14 -15.4762 25.8652)
(1.1739e-14 -13.9447 24.175)
(6.14021e-15 -12.7504 21.0055)
(7.96022e-15 -11.3595 19.0578)
(6.73412e-15 -10.6913 17.3774)
(3.70895e-15 -9.92904 16.0987)
(2.84837e-15 -9.32002 14.8876)
(1.56458e-15 -8.7 13.785)
(-1.24812e-15 -8.07196 12.7385)
(-2.87773e-15 -7.45033 11.688)
(-2.7461e-15 -6.7013 10.6245)
(-7.30566e-16 -5.92953 9.30022)
(4.12047e-15 -4.73847 7.84067)
(7.5006e-15 -2.13289 2.84168)
(1.83875e-14 -9.866 17.4034)
(3.12965e-14 -14.806 24.8703)
(1.35849e-14 -13.3562 23.07)
(6.32749e-15 -12.161 20.0605)
(5.32277e-15 -10.8981 18.157)
(-2.497e-16 -10.2761 16.6329)
(-5.25852e-15 -9.64929 15.5243)
(-6.0828e-15 -9.16232 14.5536)
(-9.43076e-15 -8.6898 13.7029)
(-1.44957e-14 -8.2085 12.9207)
(-1.63685e-14 -7.73288 12.1397)
(-1.6873e-14 -7.14428 11.3444)
(-1.25786e-14 -6.50923 10.3047)
(-4.85276e-15 -5.53689 9.15995)
(1.47937e-15 -3.02048 4.59231)
(2.24183e-15 -9.45679 16.5429)
(2.36748e-14 -14.5816 24.4451)
(1.46725e-14 -12.9494 22.3353)
(6.80662e-15 -11.6739 19.2641)
(9.75202e-16 -10.4954 17.4024)
(-1.14187e-14 -9.93856 16.0208)
(-1.86941e-14 -9.4133 15.12)
(-1.66247e-14 -9.04948 14.4167)
(-2.22947e-14 -8.70905 13.8379)
(-2.89556e-14 -8.36563 13.3133)
(-2.95615e-14 -8.02587 12.7879)
(-3.06909e-14 -7.60702 12.2471)
(-2.44438e-14 -7.12179 11.5081)
(-1.4819e-14 -6.4397 10.6895)
(-7.80457e-15 -4.00426 6.59441)
(-1.72827e-14 -8.53541 14.5356)
(-6.46092e-15 -14.4381 23.9106)
(-1.14711e-14 -12.63 21.6005)
(-1.63601e-14 -10.6174 17.7141)
(-2.32354e-14 -9.37189 16.0936)
(-3.28919e-14 -9.13144 15.2282)
(-3.24316e-14 -8.86012 14.7525)
(-2.862e-14 -8.72573 14.2603)
(-3.58237e-14 -8.51741 13.8231)
(-4.09276e-14 -8.28812 13.4053)
(-4.03238e-14 -8.04352 12.9804)
(-4.16998e-14 -7.71752 12.5721)
(-3.42185e-14 -7.33947 11.9668)
(-2.49444e-14 -6.79559 11.3982)
(-1.90055e-14 -4.46812 7.47931)
(-2.32375e-14 -6.79314 12.0202)
(3.65889e-15 -15.2485 23.8386)
(4.41344e-14 -16.2729 24.4643)
(5.13489e-14 -14.2386 20.8569)
(2.97146e-14 -11.9584 17.2253)
(-6.76188e-15 -10.5303 14.791)
(-2.44854e-14 -9.75569 13.6372)
(-2.31882e-14 -9.47739 13.4066)
(-3.24042e-14 -9.37529 13.4966)
(-3.79914e-14 -9.23517 13.6171)
(-4.26503e-14 -9.05797 13.6987)
(-4.928e-14 -8.86507 13.6657)
(-3.55118e-14 -8.55089 13.6428)
(-4.31137e-14 -8.44153 13.5187)
(-3.31824e-14 -5.78743 9.9172)
(7.15578e-17 1.11006 1.67942)
(2.94598e-15 0.189049 -0.905052)
(3.23588e-15 0.0836152 -0.866041)
(3.5596e-15 0.200603 -0.601372)
(3.53778e-15 0.204105 -0.37503)
(3.34771e-15 0.277574 -0.382231)
(2.25847e-15 0.26386 -0.206548)
(2.44295e-15 0.30352 -0.200506)
(2.99436e-15 0.296769 -0.174786)
(4.2996e-15 0.385366 -0.214681)
(4.4756e-15 0.346253 -0.135162)
(4.68813e-15 0.364152 -0.125312)
(5.53563e-15 0.47141 -0.188129)
(3.59855e-15 0.387852 -0.146574)
(2.99441e-15 0.434826 -0.160067)
(2.41434e-15 0.416657 -0.130607)
(2.58326e-15 0.520285 -0.129916)
(1.72441e-15 0.448639 -0.0844211)
(1.41188e-15 0.460804 -0.0841916)
(1.58953e-15 0.590346 -0.140304)
(5.58879e-16 0.473986 -0.124344)
(-2.11785e-16 0.529293 -0.139714)
(-9.85364e-16 0.497838 -0.0945502)
(-1.91454e-15 0.640821 -0.0804786)
(-1.55649e-15 0.516174 -0.0537959)
(-1.29858e-15 0.568 -0.0731862)
(-9.11471e-16 0.533243 -0.037901)
(-6.90673e-16 0.655333 -0.0322732)
(-1.28487e-16 0.563742 -0.047708)
(1.48064e-16 0.568491 -0.0449535)
(7.39581e-16 0.722471 -0.10561)
(7.35173e-16 0.577966 -0.127331)
(6.05643e-16 0.637406 -0.143805)
(2.17089e-16 0.60367 -0.0869042)
(-2.5291e-16 0.732729 -0.126605)
(-6.98532e-16 0.63636 -0.143739)
(-7.11392e-16 0.64229 -0.118901)
(-6.50502e-16 0.820979 -0.20276)
(-1.23944e-16 0.659503 -0.168331)
(1.76772e-16 0.728986 -0.140185)
(4.12344e-16 0.681739 -0.0532956)
(9.08722e-16 0.864196 -0.118005)
(7.55272e-16 0.700925 -0.146399)
(6.93311e-16 0.767237 -0.142682)
(5.43937e-16 0.722417 -0.0646945)
(6.4717e-16 0.871543 -0.153343)
(2.25518e-16 0.75595 -0.151905)
(7.5665e-17 0.747947 -0.0892074)
(1.22096e-16 0.948656 -0.175224)
(2.20474e-16 0.742396 -0.11595)
(5.81225e-16 0.808415 -0.039423)
(1.00192e-15 0.748361 0.067374)
(2.03116e-15 0.912005 0.00335162)
(1.49513e-15 0.706831 -0.0274091)
(1.22461e-15 0.757644 0.0465173)
(7.16132e-16 0.701611 0.144417)
(2.68925e-16 0.784618 0.0356068)
(-5.47198e-16 0.628213 -0.0485203)
(-6.62672e-16 0.59974 0.0480417)
(-1.17614e-15 0.692028 -0.167199)
(-1.15151e-15 0.443836 -0.185874)
(-1.09211e-15 0.481856 -0.0339078)
(-9.89071e-16 0.434348 0.118098)
(-9.39562e-16 0.5354 -0.476786)
(3.28813e-16 0.204408 -0.192675)
(1.14833e-15 0.181748 0.0490091)
(4.34292e-15 0.243061 0.326273)
(2.39905e-15 -0.251343 1.46275)
(1.98534e-15 -0.276462 1.50024)
(8.77413e-16 -0.342186 1.55343)
(-4.22738e-15 -0.761015 2.99759)
(-8.38929e-15 -1.20058 3.32524)
(-1.1108e-14 -1.42665 3.57717)
(-1.2709e-14 -1.52666 3.86651)
(-1.87857e-14 -2.43678 6.65242)
(-1.32499e-14 -2.95256 6.15898)
(-1.06036e-14 -3.14185 6.82105)
(-8.93794e-15 -4.47073 10.5218)
(-4.49833e-15 -4.8748 8.78322)
(-5.15772e-15 -5.18053 9.75487)
(-1.09709e-14 -5.8398 12.3162)
(-1.1654e-14 -5.60862 11.9766)
(-1.34661e-14 -5.73988 12.2593)
(-1.36908e-14 -5.85886 13.1904)
(-1.83668e-14 -5.87767 13.1782)
(-2.25764e-14 -5.86872 13.9965)
(-2.23877e-14 -5.85706 14.2244)
(-2.26401e-14 -5.84472 14.2778)
(-2.19575e-14 -5.85961 14.2373)
(-2.0292e-14 -5.85921 14.1145)
(-1.80941e-14 -5.82823 13.9945)
(-1.66549e-14 -5.85229 13.9441)
(-1.03545e-14 -5.57408 14.2865)
(-7.13741e-15 -5.98327 14.5213)
(-2.07022e-15 -5.90037 14.9063)
(-2.97293e-16 -5.92588 15.1541)
(-1.99691e-15 -5.92743 15.2965)
(-1.75577e-15 -5.94637 15.3581)
(-4.44922e-15 -5.96115 15.345)
(-7.83434e-15 -5.93868 15.2995)
(-1.03734e-14 -5.98781 15.2587)
(-5.0366e-15 -5.79156 15.71)
(-9.53421e-15 -6.19873 15.5247)
(-1.01392e-14 -6.1562 15.6814)
(-9.74547e-15 -6.19533 15.8231)
(-8.78795e-15 -6.1958 15.9359)
(-7.4449e-15 -6.22091 15.997)
(-6.28415e-15 -6.24718 16.0131)
(-5.41549e-15 -6.2697 16.0116)
(-3.4429e-15 -6.2475 15.9961)
(-1.51274e-15 -6.32585 15.9985)
(7.59845e-15 -6.18878 16.6591)
(3.17973e-15 -6.59218 16.2166)
(2.10619e-15 -6.58853 16.2866)
(-4.9718e-16 -6.63101 16.2876)
(-2.9787e-15 -6.64664 16.2526)
(-5.50768e-15 -6.6825 16.1817)
(-7.42844e-15 -6.70589 16.0987)
(-1.05882e-14 -6.68233 16.0756)
(-1.3093e-14 -6.78033 16.1133)
(-1.61349e-14 -6.69078 16.9098)
(-1.45819e-14 -7.04859 16.2772)
(-1.17506e-14 -7.06966 16.2831)
(-7.7329e-15 -7.10792 16.2291)
(-3.7324e-15 -7.12144 16.1619)
(-2.97898e-16 -7.15748 16.0992)
(2.20765e-15 -7.18725 16.0948)
(4.49409e-15 -7.15279 16.2023)
(7.89672e-15 -7.30433 16.5228)
(-1.09547e-15 -6.85994 16.9022)
(-4.68592e-15 -7.32436 16.2552)
(-7.30704e-15 -7.32834 16.3039)
(-7.38669e-15 -7.31867 16.36)
(-3.82487e-15 -7.34947 16.6648)
(-5.22691e-15 -7.33435 16.7939)
(-7.99717e-15 -7.32057 16.9411)
(-1.07183e-14 -7.31644 17.2157)
(-1.40748e-14 -7.42 17.5127)
(-3.33658e-14 -6.24283 17.2896)
(-1.73953e-14 -6.83987 17.4721)
(-1.54839e-14 -6.66784 17.782)
(-1.23338e-14 -6.67973 18.1036)
(-1.35281e-14 -6.63958 18.4652)
(-2.11545e-14 -6.54416 18.8823)
(-3.77918e-14 -6.63421 19.6132)
(-5.89023e-14 -6.44893 19.3556)
(-7.79586e-14 -6.44388 19.0956)
(-9.15996e-14 -6.40342 18.3969)
(-1.0473e-13 -3.55413 13.3545)
(-5.7476e-14 -5.01838 13.8704)
(-2.58962e-14 -4.6896 11.9239)
(5.47469e-15 -4.81635 10.0031)
(2.53132e-14 -4.56614 7.68507)
(3.27287e-14 -4.4628 5.45961)
(2.74366e-14 -4.25699 3.21589)
(1.77968e-14 -3.92132 1.8297)
(1.20734e-14 -3.93626 2.33991)
(5.53339e-15 -3.31783 0.607173)
(-4.48712e-16 -3.55861 2.03239)
(-5.23956e-15 -3.5205 1.19687)
(1.5013e-15 -2.44588 -1.59588)
(1.73707e-15 -4.35835 -0.182527)
(-3.51305e-17 -3.75628 -0.280083)
(9.21361e-16 -3.46421 -0.0971265)
(1.11571e-15 -4.63498 -0.283725)
(8.69694e-16 -3.29622 -0.181365)
(1.43932e-15 -4.3274 -0.340187)
(9.37356e-16 -4.13044 -0.290959)
(6.87083e-16 -3.44006 -0.172635)
(1.06202e-15 -4.19972 -0.305646)
(8.19719e-16 -3.95301 -0.284756)
(5.67415e-16 -3.39893 -0.234333)
(5.67517e-16 -4.51663 -0.441035)
(2.6466e-16 -3.12639 -0.315076)
(2.64058e-16 -4.06015 -0.48714)
(1.00318e-16 -3.57185 -0.458193)
(1.99529e-16 -3.10748 -0.360224)
(2.79833e-16 -4.06425 -0.555843)
(5.47562e-17 -2.78327 -0.370851)
(2.54565e-16 -3.6087 -0.514027)
(4.14786e-16 -3.22214 -0.45559)
(4.94106e-16 -2.66361 -0.363562)
(8.00652e-16 -3.17809 -0.60431)
(5.81238e-16 -2.86475 -0.601426)
(1.9208e-16 -2.40214 -0.479295)
(2.00161e-16 -3.13186 -0.664611)
(1.39852e-16 -2.09223 -0.450487)
(2.20334e-16 -2.694 -0.663567)
(2.14964e-16 -2.25834 -0.645476)
(3.23096e-16 -1.90552 -0.552092)
(5.53612e-16 -2.45558 -0.777194)
(4.53674e-16 -1.58074 -0.542902)
(5.90531e-16 -2.041 -0.756802)
(6.00975e-16 -1.71085 -0.739613)
(4.82328e-16 -1.31842 -0.643575)
(7.66083e-16 -1.54846 -0.887141)
(4.42542e-16 -1.2799 -0.765072)
(9.79813e-17 -0.970264 -0.621673)
(1.88584e-16 -1.3113 -0.782732)
(3.19667e-18 -0.658887 -0.598832)
(-3.84378e-16 -0.947663 -0.963834)
(-4.42803e-16 -0.595659 -0.956045)
(2.40673e-16 -0.29609 -0.740402)
(6.44493e-16 -0.760256 -1.00718)
(2.90467e-16 0.0837931 -0.676332)
(-5.87841e-17 -0.195076 -0.918497)
(1.8721e-16 -0.00602961 -1.24377)
(-8.69537e-18 0.401242 -0.791874)
(-1.60253e-16 0.370119 -0.973231)
(-2.56434e-16 0.613518 -1.21791)
(-1.6014e-16 0.790671 -0.719735)
(-2.49186e-16 0.953121 -1.0058)
(-1.33786e-16 1.03869 -0.625079)
(1.78701e-16 1.1463 -0.751283)
(7.43943e-16 1.428 -0.853792)
(6.77619e-16 1.31932 -0.476201)
(1.03681e-15 1.73645 -0.659701)
(6.69333e-16 1.54226 -0.37245)
(5.16564e-16 1.74521 -0.456615)
(-1.0267e-17 1.96295 -0.514415)
(-2.98974e-16 1.80337 -0.264966)
(-4.39686e-16 2.03984 -0.358732)
(-3.90464e-16 2.3104 -0.419799)
(-2.67022e-18 1.92674 -0.232919)
(4.15612e-16 2.5808 -0.345005)
(5.05922e-16 2.115 -0.180535)
(6.94349e-16 2.34331 -0.22946)
(4.6997e-16 2.57284 -0.215436)
(1.76431e-17 2.07546 -0.124421)
(-4.61679e-16 2.79768 -0.150405)
(-5.93324e-16 2.20526 -0.0656511)
(-8.80311e-16 2.50167 -0.0718756)
(-9.27725e-16 2.6598 -0.0300063)
(-4.72647e-16 2.3225 0.0147181)
(-3.41268e-16 2.66772 -0.0428484)
(1.59706e-16 3.01114 -0.0930157)
(3.99404e-16 2.45487 -0.0333355)
(8.24121e-16 3.37133 -0.172807)
(7.36177e-16 2.70245 -0.0907144)
(8.0897e-16 3.20501 -0.253352)
(-3.0436e-91 0.013495 0.0129035)
(-1.73502e-90 0.0201869 0.0122842)
(-3.81199e-90 0.0252063 0.0122667)
(7.08647e-89 0.0297635 0.0121218)
(1.23004e-87 0.0343404 0.0121455)
(1.01829e-86 0.0387139 0.0121705)
(2.31074e-86 0.0430925 0.012284)
(-6.36199e-85 0.0474222 0.0124351)
(-9.97096e-84 0.0517811 0.0126512)
(-5.69088e-83 0.0561667 0.0129162)
(3.5757e-82 0.0606172 0.0132387)
(1.03966e-80 0.0651445 0.0136134)
(8.09702e-80 0.0697733 0.014043)
(-2.97203e-79 0.0745193 0.014526)
(-1.33988e-77 0.0794024 0.0150634)
(-1.11047e-76 0.0844394 0.0156553)
(5.74175e-76 0.0896484 0.0163024)
(2.10697e-74 0.0950464 0.0170054)
(1.31695e-73 0.100651 0.0177656)
(-1.67926e-72 0.10648 0.0185842)
(-3.3754e-71 0.11255 0.0194628)
(-5.78705e-71 0.118881 0.0204032)
(4.21916e-69 0.125489 0.0214076)
(4.11117e-68 0.132395 0.0224783)
(-2.67294e-67 0.139618 0.0236181)
(-7.42244e-66 0.147177 0.0248298)
(-1.51877e-65 0.155094 0.0261167)
(8.62147e-64 0.16339 0.0274825)
(7.26808e-63 0.172087 0.0289308)
(-6.37867e-62 0.181208 0.030466)
(-1.24021e-60 0.190779 0.0320926)
(8.09232e-61 0.200824 0.0338154)
(1.46534e-58 0.211371 0.0356398)
(6.342e-58 0.222446 0.0375715)
(-1.28808e-56 0.23408 0.0396164)
(-1.24747e-55 0.246303 0.0417812)
(7.7357e-55 0.259147 0.0440727)
(1.54547e-53 0.272647 0.0464983)
(-1.30264e-53 0.286838 0.049066)
(-1.46479e-51 0.301757 0.051784)
(-4.04406e-51 0.317444 0.054661)
(1.10415e-49 0.33394 0.0577063)
(6.80348e-49 0.351289 0.0609295)
(-6.49e-48 0.369535 0.0643403)
(-6.84587e-47 0.388726 0.0679487)
(2.68424e-46 0.408909 0.0717648)
(5.11014e-45 0.430135 0.0757981)
(-4.75687e-45 0.452453 0.0800576)
(-2.88161e-43 0.475914 0.0845509)
(-2.02727e-43 0.500567 0.0892837)
(1.14323e-41 0.526455 0.0942584)
(-1.75278e-42 0.553618 0.0994728)
(-2.72614e-40 0.582084 0.104918)
(4.23107e-39 0.611866 0.110576)
(1.03419e-38 0.642955 0.116414)
(-5.82013e-37 0.675309 0.122384)
(-2.23044e-36 0.70884 0.12841)
(4.47281e-35 0.743398 0.134384)
(3.00929e-34 0.778748 0.140155)
(-2.04639e-33 0.814541 0.145513)
(-2.44414e-32 0.850289 0.150171)
(3.15763e-32 0.885289 0.153758)
(1.29005e-30 0.918654 0.155763)
(2.79471e-30 0.949058 0.155585)
(-4.2276e-29 0.97506 0.152349)
(-2.38181e-28 0.994144 0.145224)
(5.94809e-28 1.00423 0.132739)
(8.88892e-27 1.00036 0.114101)
(1.35955e-26 0.979764 0.0869215)
(-1.63143e-25 0.932244 0.0515726)
(-8.49193e-25 0.854972 0.0044566)
(2.06141e-25 0.722339 -0.0482601)
(1.35388e-23 0.538609 -0.113186)
(6.16018e-22 0.144655 -0.169877)
(-3.37769e-21 -0.343082 -0.273831)
(2.33375e-20 -0.785079 -0.138818)
(-1.60939e-19 -0.91681 -0.387852)
(2.71313e-18 -1.71747 0.0653492)
(-8.56619e-18 -1.78288 -1.47704)
(-1.58013e-90 0.0136197 0.0156892)
(-8.84839e-90 0.0203069 0.014834)
(-1.83306e-89 0.0252423 0.0147916)
(3.79589e-88 0.0297883 0.0145965)
(6.50824e-87 0.034336 0.01462)
(5.42062e-86 0.038693 0.0146466)
(1.2901e-85 0.0430503 0.014783)
(-3.32356e-84 0.0473623 0.0149646)
(-5.30396e-83 0.0517021 0.0152251)
(-3.09682e-82 0.05607 0.0155437)
(1.79235e-81 0.0605023 0.015931)
(5.4252e-80 0.0650118 0.0163802)
(4.29826e-79 0.0696226 0.0168946)
(-1.36413e-78 0.0743508 0.0174722)
(-6.73089e-77 0.0792159 0.0181143)
(-5.77723e-76 0.0842349 0.0188206)
(2.41532e-75 0.0894255 0.0195923)
(1.01852e-73 0.0948049 0.02043)
(7.07115e-73 0.100391 0.0213352)
(-7.02385e-72 0.1062 0.0223091)
(-1.62425e-70 0.11225 0.0233537)
(-4.757e-70 0.11856 0.0244711)
(1.82126e-68 0.125147 0.0256636)
(2.11386e-67 0.132031 0.0269341)
(-8.22048e-67 0.139231 0.0282854)
(-3.40259e-65 0.146766 0.0297211)
(-1.31159e-64 0.154657 0.0312448)
(3.47362e-63 0.162926 0.0328604)
(3.86793e-62 0.171596 0.0345725)
(-1.88468e-61 0.180688 0.0363857)
(-5.73486e-60 0.190228 0.0383052)
(-1.02979e-59 0.200241 0.0403365)
(5.95818e-58 0.210754 0.0424855)
(4.22043e-57 0.221793 0.0447586)
(-4.29755e-56 0.233389 0.0471625)
(-6.43635e-55 0.245572 0.0497045)
(1.39739e-54 0.258374 0.0523924)
(6.89137e-53 0.271828 0.0552342)
(1.56986e-52 0.285972 0.0582386)
(-5.6446e-51 0.300841 0.0614146)
(-3.5499e-50 0.316475 0.064772)
(3.46259e-49 0.332915 0.0683204)
(4.10712e-48 0.350204 0.0720702)
(-1.31024e-47 0.368388 0.0760317)
(-3.492e-46 0.387513 0.0802153)
(-1.51573e-46 0.407628 0.0846312)
(2.32809e-44 0.428782 0.0892889)
(7.66329e-44 0.451027 0.0941967)
(-1.20633e-42 0.474412 0.0993612)
(-7.59714e-42 0.498987 0.104786)
(4.45066e-41 0.524798 0.11047)
(4.80821e-40 0.551887 0.116406)
(-7.86289e-40 0.580283 0.122579)
(-1.9955e-38 0.610004 0.12896)
(-2.05888e-38 0.641045 0.135504)
(3.42184e-37 0.673372 0.142142)
(7.24788e-37 0.706907 0.148774)
(1.88886e-35 0.741512 0.155259)
(1.76818e-34 0.77697 0.161399)
(-1.50284e-33 0.812952 0.166928)
(-2.1752e-32 0.848998 0.171485)
(1.5885e-32 0.884442 0.174611)
(1.26945e-30 0.918434 0.175676)
(3.66464e-30 0.949706 0.173964)
(-4.1124e-29 0.976858 0.168405)
(-2.74272e-28 0.997466 0.158058)
(4.57768e-28 1.00945 0.141133)
(9.57137e-27 1.00799 0.116808)
(1.92045e-26 0.990156 0.0822239)
(-1.5995e-25 0.945905 0.0380236)
(-9.68419e-25 0.871559 -0.0199972)
(-1.97191e-25 0.742082 -0.0835974)
(1.43567e-24 0.558236 -0.162361)
(1.17575e-21 0.177063 -0.228083)
(-3.45076e-21 -0.370746 -0.34026)
(1.98904e-20 -0.800984 -0.170534)
(-1.51051e-19 -0.967154 -0.414637)
(3.25427e-18 -1.60889 0.0604265)
(-3.11986e-17 -1.79074 -1.5149)
(-7.12078e-90 0.013695 0.0172049)
(-4.01473e-89 0.0203768 0.0162551)
(-8.85426e-89 0.0252624 0.0162005)
(1.65559e-87 0.0298004 0.0159788)
(2.93462e-86 0.0343309 0.0160035)
(2.51898e-85 0.0386781 0.0160323)
(6.8964e-85 0.0430229 0.0161828)
(-1.43271e-83 0.0473246 0.0163829)
(-2.41453e-82 0.0516532 0.0166693)
(-1.48814e-81 0.0560106 0.0170191)
(7.11549e-81 0.0604321 0.0174437)
(2.40095e-79 0.0649311 0.0179355)
(1.97498e-78 0.0695313 0.0184982)
(-4.82118e-78 0.0742489 0.0191295)
(-2.853e-76 0.0791034 0.0198308)
(-2.55433e-75 0.0841116 0.0206018)
(8.05373e-75 0.0892913 0.0214437)
(4.11213e-73 0.0946597 0.0223571)
(3.13002e-72 0.100234 0.0233436)
(-2.37505e-71 0.106032 0.0244047)
(-6.41008e-70 0.11207 0.0255423)
(-2.59054e-69 0.118368 0.0267586)
(6.3331e-68 0.124943 0.0280563)
(8.63673e-67 0.131813 0.0294383)
(-1.55476e-66 0.138999 0.0309077)
(-1.23699e-64 0.14652 0.0324683)
(-6.86708e-64 0.154396 0.0341238)
(1.08202e-62 0.16265 0.0358786)
(1.55462e-61 0.171303 0.0377373)
(-3.24811e-61 0.180379 0.0397051)
(-2.02417e-59 0.189901 0.0417872)
(-8.001e-59 0.199895 0.0439897)
(1.8161e-57 0.210387 0.0463187)
(1.84074e-56 0.221406 0.048781)
(-9.70842e-56 0.23298 0.0513837)
(-2.3655e-54 0.245139 0.0541344)
(-1.60826e-54 0.257917 0.0570413)
(2.19989e-52 0.271346 0.060113)
(1.11711e-51 0.285462 0.0633583)
(-1.50203e-50 0.300302 0.0667869)
(-1.57887e-49 0.315906 0.0704087)
(6.35169e-49 0.332315 0.0742339)
(1.50762e-47 0.349571 0.078273)
(5.64543e-48 0.36772 0.0825367)
(-1.09789e-45 0.386808 0.0870356)
(-4.09706e-45 0.406885 0.0917798)
(6.13916e-44 0.428 0.0967787)
(4.58989e-43 0.450205 0.10204)
(-2.41462e-42 0.473549 0.10757)
(-3.42269e-41 0.498084 0.11337)
(3.71188e-41 0.523857 0.119438)
(1.92267e-39 0.550908 0.125765)
(3.4697e-39 0.579272 0.132329)
(-8.10028e-38 0.608968 0.139097)
(-3.76386e-37 0.639995 0.146015)
(2.25216e-36 0.672324 0.153004)
(2.06506e-35 0.705882 0.15995)
(-1.4078e-35 0.740541 0.166691)
(-6.83491e-34 0.776094 0.173005)
(-2.18733e-33 0.812227 0.178594)
(7.66764e-33 0.848495 0.183056)
(1.05382e-31 0.884256 0.185885)
(5.06126e-31 0.91868 0.186384)
(-9.25654e-31 0.950534 0.18378)
(-2.93401e-29 0.97844 0.176896)
(-1.14232e-28 1.00003 0.164736)
(5.58892e-28 1.01321 0.145342)
(5.80551e-27 1.01325 0.117863)
(6.14715e-27 0.997091 0.0792033)
(-1.16349e-25 0.954773 0.030077)
(-5.68766e-25 0.881996 -0.0340512)
(4.46757e-25 0.754099 -0.103861)
(-2.40329e-23 0.569182 -0.191273)
(1.82646e-21 0.19084 -0.258305)
(-5.40247e-21 -0.362465 -0.404797)
(1.74e-20 -0.783591 -0.222522)
(-1.54931e-19 -0.976879 -0.453972)
(4.76425e-18 -1.48663 0.0518104)
(-5.07305e-17 -1.75125 -1.27253)
(-3.15547e-89 0.0138153 0.0189067)
(-1.78195e-88 0.0204858 0.0178776)
(-4.13706e-88 0.0252986 0.0178166)
(7.04439e-87 0.0298223 0.0175723)
(1.29112e-85 0.0343266 0.0176014)
(1.1445e-84 0.0386579 0.017636)
(3.58878e-84 0.0429839 0.0178048)
(-5.9357e-83 0.0472697 0.0180283)
(-1.07216e-81 0.0515816 0.0183465)
(-7.03961e-81 0.0559232 0.0187339)
(2.60853e-80 0.0603287 0.0192032)
(1.03655e-78 0.0648121 0.0197459)
(8.94771e-78 0.0693966 0.0203661)
(-1.48066e-77 0.0740986 0.021061)
(-1.18288e-75 0.0789373 0.0218324)
(-1.10948e-74 0.0839297 0.0226799)
(2.4241e-74 0.0890934 0.0236046)
(1.62072e-72 0.0944454 0.0246074)
(1.33812e-71 0.100003 0.0256899)
(-7.568e-71 0.105784 0.0268536)
(-2.44321e-69 0.111805 0.0281008)
(-1.24019e-68 0.118085 0.0294338)
(2.0881e-67 0.124641 0.0308555)
(3.34292e-66 0.131492 0.0323688)
(-8.91049e-68 0.138658 0.0339774)
(-4.24072e-64 0.146158 0.035685)
(-3.08474e-63 0.154012 0.037496)
(3.04987e-62 0.162243 0.0394148)
(5.76078e-61 0.170872 0.0414465)
(1.08089e-61 0.179923 0.0435964)
(-6.5764e-59 0.189418 0.0458705)
(-4.02863e-58 0.199385 0.048275)
(4.90916e-57 0.209848 0.0508164)
(7.00016e-56 0.220836 0.0535021)
(-1.3805e-55 0.232377 0.0563396)
(-7.7504e-54 0.244503 0.059337)
(-2.46903e-53 0.257244 0.0625028)
(6.14953e-52 0.270635 0.0658462)
(5.07197e-51 0.284711 0.0693767)
(-3.18708e-50 0.299509 0.0731042)
(-5.67872e-49 0.315068 0.0770393)
(2.7959e-49 0.33143 0.0811925)
(4.59914e-47 0.348637 0.0855748)
(1.55185e-46 0.366734 0.0901972)
(-2.78164e-45 0.385769 0.0950706)
(-2.0823e-44 0.40579 0.100205)
(1.14465e-43 0.426847 0.10561)
(1.71907e-42 0.448992 0.111293)
(-1.44475e-42 0.472276 0.117259)
(-1.05058e-40 0.496751 0.123509)
(-2.39702e-40 0.522464 0.130038)
(4.85775e-39 0.54946 0.136834)
(2.6107e-38 0.577775 0.143871)
(-1.58189e-37 0.607431 0.151109)
(-1.6205e-36 0.638433 0.158487)
(2.31577e-36 0.670759 0.165912)
(7.17417e-35 0.704345 0.173255)
(1.08255e-34 0.739075 0.180332)
(-2.26623e-33 0.774757 0.186894)
(-1.00157e-32 0.811098 0.192607)
(4.22915e-32 0.847676 0.197022)
(4.21693e-31 0.88388 0.199579)
(1.50932e-31 0.918914 0.199508)
(-1.04334e-29 0.951594 0.195963)
(-3.95365e-29 0.980573 0.187652)
(1.00225e-28 1.00356 0.173503)
(1.25036e-27 1.01846 0.151368)
(2.63584e-27 1.02065 0.120346)
(-1.50837e-26 1.00694 0.0770603)
(-1.07177e-25 0.967456 0.0222641)
(-1.54525e-25 0.897127 -0.0489561)
(1.80729e-24 0.771843 -0.126362)
(-5.274e-23 0.586136 -0.223901)
(2.80669e-21 0.216399 -0.297585)
(-1.04378e-20 -0.361162 -0.456119)
(2.8799e-20 -0.77959 -0.286172)
(-2.66665e-19 -1.00006 -0.509802)
(7.11017e-18 -1.41759 0.0307314)
(-5.10354e-17 -1.75051 -1.18747)
(-1.37991e-88 0.0139284 0.0205001)
(-7.73429e-88 0.0205859 0.0194227)
(-1.85034e-87 0.0253327 0.0193594)
(2.93795e-86 0.0298414 0.0190984)
(5.53818e-85 0.0343205 0.0191341)
(5.06833e-84 0.0386361 0.0191769)
(1.80432e-83 0.0429439 0.019365)
(-2.34919e-82 0.0472141 0.0196128)
(-4.62611e-81 0.0515098 0.019963)
(-3.26111e-80 0.0558359 0.0203882)
(8.44873e-80 0.0602259 0.0209019)
(4.34467e-78 0.064694 0.0214949)
(3.98379e-77 0.0692631 0.0221715)
(-3.22595e-77 0.0739499 0.022929)
(-4.778e-75 0.0787732 0.023769)
(-4.73505e-74 0.0837501 0.0246911)
(5.88851e-74 0.0888981 0.0256966)
(6.23134e-72 0.0942343 0.0267865)
(5.55159e-71 0.0997757 0.0279624)
(-2.22788e-70 0.10554 0.029226)
(-9.00877e-69 0.111544 0.0305797)
(-5.44946e-68 0.117806 0.032026)
(6.49868e-67 0.124344 0.033568)
(1.23013e-65 0.131176 0.0352088)
(1.87778e-65 0.138322 0.0369524)
(-1.36876e-63 0.145802 0.0388027)
(-1.24534e-62 0.153635 0.0407643)
(7.51103e-62 0.161844 0.042842)
(1.97779e-60 0.17045 0.0450413)
(4.32886e-60 0.179476 0.0473678)
(-1.95705e-58 0.188946 0.0498278)
(-1.66567e-57 0.198885 0.0524278)
(1.12699e-56 0.20932 0.055175)
(2.37723e-55 0.220279 0.0580769)
(1.47974e-55 0.231789 0.0611416)
(-2.2685e-53 0.243881 0.0643777)
(-1.29239e-52 0.256588 0.0677941)
(1.46924e-51 0.269942 0.0714005)
(1.85498e-50 0.28398 0.0752067)
(-4.22937e-50 0.298737 0.0792234)
(-1.73846e-48 0.314254 0.0834614)
(-4.0488e-48 0.330571 0.0879318)
(1.18084e-46 0.347731 0.0926459)
(7.77009e-46 0.36578 0.0976152)
(-5.43402e-45 0.384764 0.102851)
(-7.39164e-44 0.404732 0.108363)
(8.70601e-44 0.425735 0.11416)
(4.96159e-42 0.447824 0.120251)
(1.18586e-41 0.471052 0.126639)
(-2.44651e-40 0.495472 0.133324)
(-1.44109e-39 0.521132 0.140299)
(8.1335e-39 0.548079 0.147548)
(9.57914e-38 0.576351 0.155043)
(-9.28984e-38 0.605976 0.162738)
(-4.48644e-36 0.636964 0.170562)
(-8.8507e-36 0.669297 0.178413)
(1.5117e-34 0.702924 0.186145)
(7.356e-34 0.737739 0.193556)
(-3.27794e-33 0.773567 0.200368)
(-3.24937e-32 0.810133 0.206216)
(1.56325e-32 0.847041 0.210606)
(9.67431e-31 0.88371 0.212928)
(2.07619e-30 0.919375 0.212342)
(-1.87422e-29 0.952899 0.207937)
(-9.73625e-29 0.982967 0.198308)
(1.4684e-28 1.00736 0.182314)
(2.35328e-27 1.02399 0.157628)
(3.77217e-27 1.02833 0.123288)
(-2.96227e-26 1.01704 0.0756525)
(-1.45282e-25 0.980358 0.0154535)
(-3.11761e-27 0.912438 -0.0625751)
(3.08655e-24 0.789678 -0.147629)
(-7.68346e-23 0.603136 -0.255385)
(4.24586e-21 0.239649 -0.337213)
(-1.68431e-20 -0.361012 -0.507093)
(2.24098e-20 -0.778869 -0.356984)
(-1.25585e-19 -1.03315 -0.56878)
(2.77106e-18 -1.36993 0.00101094)
(-4.59426e-17 -1.75302 -0.843864)
(-6.0079e-88 0.0140537 0.0220572)
(-3.29926e-87 0.0206943 0.0209508)
(-7.86762e-87 0.0253715 0.0208893)
(1.21529e-85 0.0298624 0.0206173)
(2.32435e-84 0.0343133 0.0206619)
(2.18736e-83 0.0386108 0.0207154)
(8.72334e-83 0.0428981 0.0209247)
(-8.85805e-82 0.0471507 0.0211985)
(-1.93733e-80 0.051428 0.0215823)
(-1.47425e-79 0.0557369 0.0220468)
(2.17231e-79 0.0601093 0.0226062)
(1.76345e-77 0.0645602 0.0232508)
(1.73941e-76 0.0691121 0.0239852)
(1.51264e-77 0.0737817 0.0248064)
(-1.87581e-74 0.0785878 0.0257162)
(-1.98852e-73 0.0835473 0.0267142)
(6.08248e-74 0.0886778 0.0278018)
(2.34052e-71 0.093996 0.02898)
(2.25113e-70 0.0995193 0.0302505)
(-5.81096e-70 0.105265 0.0316152)
(-3.23224e-68 0.11125 0.0330767)
(-2.25475e-67 0.117492 0.0346376)
(1.90616e-66 0.124009 0.0363011)
(4.33808e-65 0.130821 0.0380709)
(1.26074e-64 0.137945 0.0399507)
(-4.17531e-63 0.145402 0.0419452)
(-4.63393e-62 0.153211 0.0440589)
(1.49585e-61 0.161395 0.0462972)
(6.33718e-60 0.169975 0.0486657)
(2.55836e-59 0.178973 0.0511704)
(-5.31898e-58 0.188415 0.0538181)
(-6.04401e-57 0.198324 0.0566155)
(1.96783e-56 0.208728 0.0595704)
(7.30939e-55 0.219652 0.0626906)
(2.11219e-54 0.231128 0.0659847)
(-5.9222e-53 0.243183 0.0694617)
(-5.06005e-52 0.255851 0.073131)
(2.82772e-51 0.269165 0.0770028)
(5.82324e-50 0.28316 0.0810876)