/*--------------------------------*- C++ -*----------------------------------*\
| =========                 |                                                 |
| \\      /  F ield         | OpenFOAM: The Open Source CFD Toolbox           |
|  \\    /   O peration     | Version:  4.1                                   |
|   \\  /    A nd           | Web:      www.OpenFOAM.org                      |
|    \\/     M anipulation  |                                                 |
\*---------------------------------------------------------------------------*/
FoamFile
{
    version     2.0;
    format      ascii;
    class       volScalarField;
    location    "28";
    object      p;
}
// * * * * * * * * * * * * * * * * * * * * * * * * * * * * * * * * * * * * * //

dimensions      [0 2 -2 0 0 0 0];

internalField   nonuniform List<scalar> 
6785
(
591.69
513.542
466.917
413.777
367.256
322.368
280.501
240.79
203.189
167.605
133.361
100.231
72.4308
43.8507
2.15265
-11.6605
-29.9779
-19.9439
-27.2853
-26.5635
-29.0392
-29.5906
-30.0148
-29.4062
-27.8612
-25.34
-21.7705
-16.3162
-11.211
-9.52264
-8.80442
-14.5243
-6.52522
-12.4334
-10.0253
-12.6554
-13.3648
-15.3829
-17.2223
-19.4633
-21.731
-23.4141
-23.9876
-24.5152
-23.9748
-10.431
-13.9374
-11.5528
-17.2833
-16.3609
-20.2516
-21.4402
-23.8942
-25.6281
-27.4177
-28.6862
-29.299
-28.1255
-27.1448
-24.9789
-7.67859
-8.83539
-5.24397
-7.52031
-3.6951
-4.31559
-1.9627
-0.875686
0.937482
2.65257
4.62623
6.45116
8.7993
10.302
13.0666
17.5736
18.1382
21.6554
20.665
24.3015
24.3688
26.6629
27.8662
29.462
30.9155
32.4355
33.8391
35.5041
36.7005
38.4695
40.2081
41.0198
43.438
42.554
45.0967
44.7762
46.2783
46.6139
47.3542
47.9974
48.8199
49.7583
50.8744
51.6711
52.8111
51.4001
52.2529
53.8905
53.5371
55.6196
55.6723
57.097
57.5326
58.2186
58.2962
57.9493
57.283
56.6528
56.7253
56.7503
64.6938
63.3815
64.2055
62.4493
63.012
61.3237
60.748
58.6687
56.5113
53.5146
50.4885
47.796
46.1948
45.79
43.3547
31.4409
26.3926
25.6891
21.8879
20.4943
17.3852
15.7512
13.6171
12.4031
11.12
10.1883
9.48404
9.22083
8.10018
4.60583
-14.6622
-19.8315
-20.6349
-24.1553
-25.9038
-29.2432
-31.6328
-34.5654
-37.152
-39.8157
-42.004
-43.3963
-44.4171
-45.2653
-43.8454
-31.4368
-32.4344
-32.1668
-33.7363
-33.7378
-35.1305
-35.7341
-36.6571
-36.9956
-36.9134
-35.9982
-34.4093
-31.9313
-29.8137
-26.3261
4.5866
6.16968
7.06309
7.2725
8.46595
8.90636
9.8458
10.7348
11.8991
13.2446
14.8893
16.5769
18.6184
20.1966
22.6655
21.1861
24.6723
24.5758
24.3733
24.7082
25.1693
26.1302
27.0398
28.0353
28.9701
29.855
30.5591
31.2419
31.6105
32.0389
84.9885
83.2266
76.8392
68.1674
61.1769
56.1997
50.9118
46.0715
42.1565
38.6023
35.3571
32.6891
30.2975
28.5829
25.6398
39.6065
39.599
41.1404
39.8873
40.0111
40.4561
40.5775
40.1047
40.0087
39.8533
40.069
38.9486
39.0552
39.0339
37.5765
37.311
37.6787
37.7709
35.4803
36.604
36.6501
34.5598
34.3214
35.7074
35.8265
33.6652
33.5304
35.0202
35.8122
33.2145
35.0807
35.8967
34.009
33.9725
35.4592
36.4229
34.5355
35.9211
36.8571
35.6809
35.6705
36.7197
37.3112
36.4661
36.4889
37.2978
37.5843
36.8141
37.5555
37.9682
37.5524
37.6047
38.0284
38.7691
38.5792
38.5742
38.7544
39.78
39.6518
39.6914
39.9439
39.8968
39.9955
39.9298
40.2738
40.6693
42.0159
39.4317
37.3306
39.3182
41.6798
30.352
25.6116
30.6272
36.255
3.61992
16.9115
26.0519
-30.2504
-13.9451
-6.28727
-9.59052
-4.67907
-12.9639
-10.383
-5.69047
-5.81383
-5.25254
-4.8796
-4.33211
-3.75516
-0.160906
-0.880576
-5.06623
-3.45566
-1.46194
0.769635
1.00836
1.85111
1.78152
3.87453
5.90558
3.08996
4.76148
4.68213
5.81549
8.02086
9.17064
9.23798
9.51278
9.05399
10.3146
12.3396
13.37
13.7694
13.8016
15.1246
17.2036
17.6824
14.9338
13.9836
20.8808
22.9071
23.835
23.4005
23.1461
22.5832
24.8945
22.0254
21.7642
32.2471
29.1124
30.1389
30.3645
28.3721
26.7332
25.0444
18.6986
27.1083
33.7613
26.367
22.9863
17.9844
14.2539
10.5012
7.54986
4.38849
-0.923239
-2.90616
9.52438
3.62366
2.6762
0.477759
-2.0643
-8.72302
-10.9119
-8.11021
-21.4063
-1.76145
-4.87791
-6.03905
0.163556
-1.31458
1.1532
1.718
2.8052
3.81916
3.78183
4.26975
4.50253
4.56928
4.64546
4.63836
4.67098
4.62741
4.63086
4.58317
4.50194
4.5337
4.39437
4.58891
4.40287
4.09111
4.62155
4.20871
3.98536
4.17623
3.81813
4.65584
3.98073
3.68663
3.9631
3.51148
4.64377
3.91161
3.04262
4.77428
3.68527
3.23606
3.6917
3.05892
4.84261
3.55233
3.12029
3.59801
2.96368
4.82699
3.70147
2.55464
4.97766
3.55767
2.99534
3.58185
2.88216
4.91907
3.61579
2.91423
3.62097
2.78841
4.74927
3.88212
2.33652
4.85309
3.80996
2.63374
3.58976
2.52579
4.66913
3.48494
2.241
2.97371
1.74353
4.05164
2.45109
-0.0209917
3.52024
0.827718
-0.794954
-0.336175
-1.83194
0.0101047
0.0345251
0.00853366
0.00319045
-0.000693917
-0.00427677
-0.00659413
-0.0099846
-0.0141187
-0.0199276
-0.0270756
-0.0347839
-0.0409301
-0.0427547
-0.0378318
-0.0265802
-0.0208057
-0.0488851
-0.10555
-0.0664084
-0.23882
-0.272237
-0.320808
-0.446547
-0.588212
-0.716614
-0.82616
-0.909102
-0.958133
-0.976417
-0.963272
-0.91989
-0.850439
-0.759044
-0.650489
-0.529581
-0.400451
-0.267435
-0.13394
-0.00239366
0.125924
0.249653
0.367576
0.478061
0.579415
0.67019
0.749804
0.818897
0.878743
0.930306
0.972842
1.00467
1.02498
1.03324
1.02391
0.987323
0.914219
0.787943
0.591019
0.350726
0.132133
0.0244392
0.0021457
-0.00338591
-0.00905871
-0.0238424
-0.0445938
-0.0538668
-0.0501504
-0.0360232
-0.0199272
0.0126659
0.0349832
0.107581
0.172048
0.345733
-0.0142025
-0.0392094
0.569459
-0.0310239
-0.0260497
-0.00684617
-0.00998552
0.00284389
0.00725918
0.0159585
0.0218686
0.0273292
0.0284656
0.0227487
0.00516178
-0.0280687
-0.0756256
-0.124931
-0.156728
-0.168521
-0.184526
-0.207335
-0.0857427
-0.27994
-0.339928
-0.451371
-0.687902
-0.940182
-1.1676
-1.36056
-1.50299
-1.58092
-1.60164
-1.56271
-1.46743
-1.32485
-1.14219
-0.927776
-0.690927
-0.439254
-0.180489
0.0799239
0.337386
0.588238
0.828746
1.05563
1.26547
1.45553
1.62424
1.77198
1.90036
2.01152
2.10592
2.18014
2.23084
2.25695
2.25708
2.21784
2.12107
1.95119
1.67513
1.26014
0.762132
0.304411
0.0654997
0.00660098
-0.0109592
-0.0281271
-0.0609582
-0.101447
-0.116057
-0.106172
-0.0745458
-0.033483
0.0398738
0.081952
0.241344
0.460566
0.700175
-0.26096
0.33296
1.68104
0.00463982
-0.014713
-0.000226446
-0.0110896
0.0019193
0.00387307
0.0127348
0.0168457
0.0195174
0.0147364
-0.000401745
-0.031272
-0.0795825
-0.138965
-0.190749
-0.215561
-0.221413
-0.250678
-0.320563
-0.199277
-0.18174
-0.351245
-0.481985
-0.760695
-1.0607
-1.33064
-1.56057
-1.72972
-1.82092
-1.84408
-1.79514
-1.67867
-1.50537
-1.28378
-1.02392
-0.737074
-0.432104
-0.118337
0.197562
0.509567
0.812951
1.103
1.37583
1.62766
1.85576
2.05866
2.23677
2.39152
2.5246
2.63611
2.72275
2.78131
2.80964
2.80444
2.7511
2.62934
2.42004
2.08029
1.57152
0.96514
0.4059
0.101525
0.0120315
-0.0266238
-0.0648972
-0.11311
-0.16498
-0.175739
-0.152626
-0.1009
-0.0316868
0.0756018
0.169401
0.424499
0.762904
1.17975
-0.0347336
0.769496
2.30128
0.0040371
-0.049359
-0.00793363
-0.0210154
0.00184534
0.00726197
0.0220922
0.0300774
0.035952
0.0312002
0.0113802
-0.0313467
-0.0989045
-0.180858
-0.252318
-0.29184
-0.307486
-0.337638
-0.402615
-0.295572
-0.0868423
-0.445653
-0.583623
-0.920605
-1.2932
-1.62589
-1.90901
-2.11613
-2.22639
-2.25299
-2.19051
-2.04506
-1.82964
-1.55484
-1.23299
-0.878098
-0.500873
-0.11286
0.277603
0.662769
1.03673
1.39364
1.72887
2.03804
2.31813
2.56749
2.78647
2.97643
3.1389
3.27383
3.3779
3.44774
3.4802
3.47016
3.40105
3.24907
2.9907
2.57042
1.94879
1.21518
0.534982
0.149856
0.0199992
-0.0505699
-0.116692
-0.17996
-0.240555
-0.247461
-0.210322
-0.135159
-0.0341813
0.112128
0.250325
0.578711
1.0339
1.53257
0.192321
1.18731
2.81207
0.0332707
-0.0631252
-0.00602383
-0.0253381
0.00274278
0.00876327
0.0269747
0.0364386
0.0428802
0.0352596
0.00783311
-0.0485369
-0.133299
-0.229309
-0.307547
-0.350232
-0.370003
-0.406027
-0.475471
-0.390262
-0.0455489
-0.518165
-0.682868
-1.07742
-1.52767
-1.92656
-2.26721
-2.51568
-2.64713
-2.67827
-2.60189
-2.42576
-2.16541
-1.83357
-1.44505
-1.01677
-0.561527
-0.093243
0.37803
0.842759
1.29368
1.72364
2.12706
2.49879
2.83538
3.13503
3.39813
3.62615
3.82062
3.98125
4.10433
4.18613
4.2227
4.20734
4.1207
3.93481
3.62201
3.11278
2.36942
1.49786
0.683942
0.20619
0.0268689
-0.0873532
-0.190322
-0.272353
-0.336634
-0.334351
-0.277773
-0.173551
-0.0356528
0.154378
0.342526
0.733712
1.28552
1.84938
0.564422
1.60518
3.23652
0.0482337
-0.0905991
-0.00954074
-0.032824
0.00371314
0.0124323
0.0358801
0.0485014
0.0570093
0.0476759
0.0131082
-0.0569463
-0.158215
-0.267083
-0.354124
-0.406522
-0.437622
-0.481575
-0.547746
-0.48224
-0.113043
-0.529536
-0.793898
-1.2319
-1.75642
-2.21579
-2.60911
-2.89439
-3.0436
-3.0773
-2.98612
-2.7797
-2.47592
-2.08947
-1.6375
-1.13967
-0.610685
-0.0666945
0.480648
1.02011
1.54317
2.04145
2.50851
2.93854
3.32772
3.67413
3.9782
4.24146
4.46539
4.64949
4.78975
4.88219
4.92213
4.90132
4.79817
4.58086
4.21822
3.62833
2.77439
1.77728
0.840233
0.270131
0.0328038
-0.138384
-0.286172
-0.389888
-0.451489
-0.433946
-0.353406
-0.215676
-0.0372099
0.198132
0.434306
0.877313
1.50687
2.09964
0.904528
1.98669
3.46955
0.0731414
-0.111552
-0.00880465
-0.0372776
0.00657644
0.017468
0.0457294
0.0611875
0.0711915
0.0590967
0.0157771
-0.0688403
-0.184554
-0.302455
-0.395978
-0.457
-0.499322
-0.554235
-0.624497
-0.580748
-0.247712
-0.456843
-0.932217
-1.39821
-1.99854
-2.51902
-2.96488
-3.28583
-3.45151
-3.4866
-3.3793
-3.14144
-2.79319
-2.3513
-1.83522
-1.2674
-0.664393
-0.044599
0.578745
1.19272
1.78758
2.35377
2.88402
3.37187
3.81316
4.20583
4.55032
4.84824
5.101
5.30794
5.46481
5.56742
5.61043
5.58409
5.46476
5.21679
4.80559
4.13898
3.17986
2.06325
1.00578
0.344917
0.0357748
-0.207213
-0.40811
-0.537059
-0.590902
-0.551821
-0.441707
-0.264814
-0.0411116
0.241892
0.527848
1.0135
1.69629
2.29791
1.25538
2.30323
3.57323
0.0930183
-0.136141
-0.00945384
-0.0417632
0.0106367
0.0247804
0.0586829
0.0776636
0.0893884
0.0740124
0.020791
-0.0782804
-0.206003
-0.331604
-0.433279
-0.505786
-0.562436
-0.630931
-0.708629
-0.683751
-0.397962
-0.367509
-1.09835
-1.57648
-2.25036
-2.83385
-3.33268
-3.68835
-3.86954
-3.90519
-3.78064
-3.5102
-3.11632
-2.61782
-2.03656
-1.39771
-0.719745
-0.0233077
0.676789
1.36593
2.03318
2.66777
3.26164
3.80764
4.30126
4.74031
5.12524
5.45775
5.73924
5.96887
6.14217
6.25473
6.30067
6.26873
6.13331
5.85472
5.39475
4.65258
3.59062
2.35736
1.17668
0.428726
0.0322777
-0.295771
-0.558113
-0.715577
-0.756545
-0.689132
-0.543462
-0.321491
-0.047714
0.284102
0.619722
1.13954
1.8491
2.43888
1.60171
2.62891
3.57264
0.115751
-0.157735
-0.00769042
-0.0435335
0.0172633
0.0349733
0.0746665
0.0972377
0.110103
0.0899032
0.0250674
-0.0878266
-0.225359
-0.358479
-0.469289
-0.553932
-0.62585
-0.709811
-0.799568
-0.794492
-0.555077
-0.362157
-1.27319
-1.77051
-2.51052
-3.15955
-3.71145
-4.09976
-4.29449
-4.32916
-4.18582
-3.88152
-3.44088
-2.88493
-2.23785
-1.5276
-0.774476
-0.00137875
0.775346
1.53942
2.27871
2.9813
3.63833
4.24199
4.78743
5.2723
5.69712
6.06365
6.37331
6.6251
6.81435
6.93648
6.98514
6.94755
6.79629
6.48746
5.97873
5.16199
4
2.65408
1.34827
0.516833
0.0185577
-0.406638
-0.739378
-0.928822
-0.95251
-0.849577
-0.661389
-0.387695
-0.0585405
0.324223
0.709691
1.25557
1.96417
2.53285
1.85486
2.80678
3.51551
0.136372
-0.178834
-0.00530172
-0.0432631
0.0264374
0.0485632
0.0944842
0.12077
0.133872
0.106858
0.0291826
-0.0960314
-0.242199
-0.383812
-0.504894
-0.602993
-0.691994
-0.7934
-0.898597
-0.916781
-0.733021
-0.489106
-1.41327
-1.98376
-2.78027
-3.49814
-4.10446
-4.52337
-4.72952
-4.76136
-4.59739
-4.25765
-3.76885
-3.15429
-2.44052
-1.65825
-0.82958
0.0203506
0.873703
1.71255
2.52363
3.29387
4.01364
4.67449
5.27124
5.80143
6.26557
6.66555
7.00281
7.27621
7.48093
7.61224
7.66338
7.62007
7.45319
7.11429
6.5565
5.66488
4.40458
2.9492
1.51985
0.60547
-0.00888348
-0.542515
-0.954908
-1.17971
-1.18207
-1.03593
-0.797595
-0.465013
-0.0747465
0.361943
0.79704
1.36168
2.04311
2.59294
2.07413
2.9864
3.48084
0.156857
-0.196618
-0.0007157
-0.0395182
0.0390885
0.066233
0.118464
0.148038
0.159564
0.12321
0.0322337
-0.103808
-0.258797
-0.409761
-0.541472
-0.653867
-0.761216
-0.881765
-1.00567
-1.05216
-0.934822
-0.720931
-1.478
-2.22059
-3.06154
-3.84994
-4.5134
-4.96113
-5.17656
-5.20355
-5.01687
-4.63986
-4.10127
-3.42672
-2.64513
-1.79001
-0.88521
0.0419156
0.972073
1.88571
2.76847
3.60615
4.38838
5.10609
5.75376
6.32881
6.8318
7.26475
7.6291
7.92362
8.14336
8.28349
8.33692
8.28779
8.10541
7.73633
7.1297
6.16122
4.80123
3.23469
1.69654
0.691651
-0.0531334
-0.706191
-1.20821
-1.4719
-1.44918
-1.25164
-0.954733
-0.555363
-0.0977353
0.396456
0.8809
1.45992
2.09662
2.65058
2.23331
3.10268
3.39888
0.175118
-0.210986
0.0057181
-0.0320947
0.0555022
0.0883699
0.146803
0.178653
0.185956
0.137977
0.034278
-0.111861
-0.276397
-0.436726
-0.579253
-0.707056
-0.834173
-0.975623
-1.12104
-1.20003
-1.152
-0.998228
-1.46346
-2.48919
-3.35868
-4.21496
-4.9393
-5.41436
-5.637
-5.65683
-5.44503
-5.02868
-4.4384
-3.70229
-2.85162
-1.92271
-0.941129
0.0635831
1.07073
2.05917
3.01348
3.91836
4.76272
5.53689
6.23505
6.85449
7.39582
7.86119
8.25209
8.56722
8.80153
8.95012
9.00563
8.95055
8.75275
8.35309
7.69824
6.64927
5.18573
3.49865
1.88255
0.772253
-0.116923
-0.900601
-1.50296
-1.80919
-1.75781
-1.50005
-1.13549
-0.660713
-0.128939
0.426729
0.958942
1.5521
2.14327
2.71608
2.35309
3.14136
3.32046
0.191051
-0.220181
0.0147457
-0.0201285
0.0762461
0.115316
0.179295
0.211435
0.211221
0.150298
0.0348062
-0.121732
-0.295932
-0.464882
-0.618516
-0.76278
-0.910843
-1.07484
-1.24441
-1.35902
-1.37509
-1.27564
-1.42514
-2.79975
-3.6781
-4.59341
-5.38314
-5.88438
-6.11243
-6.12273
-5.88315
-5.42502
-4.78091
-3.98145
-3.06025
-2.05647
-0.997342
0.0854167
1.16977
2.23304
3.25876
4.23059
5.13675
5.96696
6.71513
7.37845
7.95757
8.4548
8.87171
9.20689
9.4553
9.61197
9.66935
9.60816
9.39495
8.96392
8.26043
7.12545
5.55371
3.73706
2.07012
0.842117
-0.202539
-1.12878
-1.84317
-2.19585
-2.11225
-1.7847
-1.3428
-0.783191
-0.169873
0.451576
1.02981
1.63947
2.197
2.76899
2.47376
3.16018
3.25241
0.203367
-0.223331
0.0264424
-0.00326862
0.10151
0.147024
0.215168
0.244603
0.233774
0.159896
0.0330007
-0.134346
-0.317074
-0.493784
-0.659145
-0.82092
-0.991039
-1.17922
-1.37548
-1.5281
-1.60117
-1.54531
-1.45786
-3.15239
-4.02684
-4.98585
-5.84581
-6.37226
-6.60427
-6.60277
-6.33259
-5.82997
-5.12956
-4.26472
-3.27132
-2.19144
-1.05387
0.107484
1.26934
2.40749
3.50453
4.54307
5.51067
6.39651
7.19421
7.90088
8.51723
9.04575
9.48807
9.84275
10.1048
10.2691
10.3282
10.2607
10.032
9.56837
8.81448
7.5858
5.89829
3.96344
2.25049
0.89646
-0.312338
-1.39389
-2.23305
-2.63648
-2.51697
-2.10921
-1.57975
-0.92503
-0.22205
0.469975
1.09458
1.72397
2.25495
2.81439
2.60114
3.15412
3.19185
0.21142
-0.219205
0.0411612
0.0189144
0.131402
0.183091
0.25298
0.276019
0.252661
0.166463
0.0278075
-0.14965
-0.33897
-0.523066
-0.700996
-0.881206
-1.07436
-1.28833
-1.51382
-1.70679
-1.83373
-1.82986
-1.63937
-3.51964
-4.40915
-5.39351
-6.32834
-6.87902
-7.1136
-7.09829
-6.79466
-6.24457
-5.48511
-4.55258
-3.48512
-2.32772
-1.11071
0.129892
1.36959
2.58273
3.751
4.856
5.8847
6.82572
7.67245
8.42192
9.07492
9.63411
10.1012
10.4749
10.75
10.9217
10.9821
10.908
10.6637
10.166
9.35865
8.02667
6.20409
4.19764
2.42386
0.93345
-0.448813
-1.6993
-2.677
-3.13598
-2.97687
-2.47745
-1.84954
-1.08854
-0.286991
0.480971
1.1544
1.80599
2.31651
2.86553
2.72073
3.18474
3.14632
0.21436
-0.20703
0.0589661
0.0465209
0.165657
0.222515
0.290639
0.303866
0.267658
0.169389
0.0188696
-0.166478
-0.360624
-0.552367
-0.743773
-0.94323
-1.16035
-1.40172
-1.659
-1.89493
-2.07733
-2.14871
-1.98829
-3.85538
-4.8273
-5.81937
-6.83226
-7.40581
-7.64135
-7.61041
-7.27064
-6.66993
-5.84837
-4.84556
-3.70195
-2.46545
-1.16784
0.152739
1.47069
2.75895
3.99837
5.16959
6.25903
7.25478
8.15001
8.9417
9.63074
10.22
10.7113
11.1032
11.391
11.5695
11.6311
11.5502
11.2901
10.7563
9.89116
8.44536
6.46984
4.43964
2.58811
0.951761
-0.6145
-2.04847
-3.17961
-3.6996
-3.49721
-2.89343
-2.15548
-1.2761
-0.366256
0.483588
1.20911
1.88378
2.38081
2.9145
2.82521
3.22193
3.14899
0.211661
-0.186143
0.0799143
0.0794821
0.203659
0.263653
0.325817
0.327249
0.278701
0.168028
0.00702863
-0.183268
-0.381349
-0.581432
-0.787153
-1.00657
-1.24855
-1.51896
-1.81065
-2.09241
-2.3349
-2.50517
-2.46522
-4.11668
-5.28511
-6.26819
-7.35941
-7.95428
-8.18845
-8.14006
-7.76167
-7.10716
-6.22022
-5.14426
-3.92214
-2.60477
-1.22528
0.17612
1.5728
2.93636
4.24687
5.48408
6.63388
7.68387
8.62706
9.46035
10.1848
10.8034
11.3182
11.7279
12.0277
12.2127
12.2751
12.1871
11.9109
11.3389
10.4101
8.83365
6.72206
4.67426
2.73649
0.949876
-0.81171
-2.44474
-3.74562
-4.33286
-4.08359
-3.36128
-2.50094
-1.49013
-0.461429
0.476899
1.25859
1.9571
2.44695
2.95994
2.91771
3.25482
3.13915
0.20286
-0.156217
0.10388
0.117395
0.244243
0.304264
0.356678
0.34616
0.28543
0.16253
-0.00590624
-0.198715
-0.40076
-0.610024
-0.83079
-1.07082
-1.33858
-1.63971
-1.96849
-2.29928
-2.60785
-2.89196
-3.00579
-4.27318
-5.78796
-6.74775
-7.91209
-8.52641
-8.75606
-8.68806
-8.26873
-7.55727
-6.60152
-5.4493
-4.14605
-2.74584
-1.28303
0.200136
1.6761
3.11518
4.49674
5.79971
7.00947
8.11321
9.10375
9.97801
10.7371
11.3844
11.9221
12.3488
12.6601
12.8511
12.914
12.8187
12.5262
11.9134
10.9143
9.16735
6.99362
4.90141
2.86723
0.927003
-1.04248
-2.89138
-4.37994
-5.04162
-4.74185
-3.88514
-2.88937
-1.73307
-0.574088
0.460121
1.30283
2.02748
2.51324
2.99966
2.99622
3.29309
3.15224
0.187622
-0.117126
0.130615
0.159499
0.285634
0.341987
0.382505
0.360772
0.287494
0.154271
-0.0179964
-0.212079
-0.418687
-0.637929
-0.874356
-1.13561
-1.43012
-1.76371
-2.13234
-2.51564
-2.89621
-3.29625
-3.54332
-4.35325
-6.35739
-7.26837
-8.49212
-9.12463
-9.34572
-9.2553
-8.79266
-8.02116
-6.99314
-5.76131
-4.37409
-2.88884
-1.34111
0.224891
1.78076
3.29563
4.74825
6.11672
7.38606
8.54301
9.58029
10.4948
11.2879
11.9631
12.5228
12.966
13.2882
13.4848
13.5479
13.445
13.1361
12.4794
11.4064
9.44838
7.27765
5.12056
2.98134
0.882385
-1.30875
-3.39158
-5.08772
-5.83211
-5.47807
-4.46916
-3.32424
-2.00742
-0.705764
0.432551
1.34174
2.09543
2.57833
3.0337
3.05949
3.32406
3.17692
0.165573
-0.0689645
0.159643
0.204526
0.325526
0.375117
0.403528
0.37089
0.285376
0.145423
-0.0278634
-0.223088
-0.43504
-0.664928
-0.91754
-1.20063
-1.5229
-1.89074
-2.30204
-2.74157
-3.19946
-3.70876
-4.04842
-4.45609
-7.01768
-7.84288
-9.10165
-9.75128
-9.95935
-9.84291
-9.33427
-8.49958
-7.39584
-6.08095
-4.60666
-3.03397
-1.39952
0.250491
1.88699
3.47797
5.00165
6.4354
7.76389
8.9735
10.0569
11.0109
11.8372
12.5395
13.1206
13.5794
13.9119
14.1136
14.1766
14.0659
13.7407
13.0364
11.8791
9.71823
7.54535
5.32377
3.07825
0.815204
-1.61218
-3.94833
-5.87426
-6.71093
-6.29875
-5.11746
-3.80915
-2.31564
-0.857932
0.393489
1.37501
2.15979
2.641
3.06628
3.10981
3.34944
3.19069
0.136205
-0.0120073
0.190169
0.250632
0.361595
0.403174
0.420061
0.376318
0.280756
0.138041
-0.0348588
-0.231709
-0.449729
-0.690796
-0.960044
-1.26559
-1.61667
-2.0206
-2.47743
-2.97708
-3.51707
-4.12841
-4.53771
-4.69721
-7.79222
-8.48273
-9.74139
-10.4085
-10.5992
-10.4524
-9.89453
-8.99321
-7.81027
-6.4088
-4.84418
-3.18142
-1.4583
0.277042
1.99498
3.66246
5.25723
6.75605
8.14325
9.40493
10.5337
11.5265
12.3852
13.1137
13.7153
14.1891
14.5313
14.7375
14.8
14.6813
14.3405
13.5856
12.285
10.0308
7.79947
5.51027
3.15788
0.725086
-1.95399
-4.56422
-6.74468
-7.68477
-7.21061
-5.83419
-4.34777
-2.66018
-1.03201
0.342202
1.40199
2.21958
2.70007
3.09918
3.15181
3.37723
3.25753
0.0987129
0.0532506
0.220912
0.29552
0.392306
0.426566
0.431955
0.37773
0.275946
0.133433
-0.0388337
-0.23796
-0.462629
-0.715276
-1.00157
-1.3302
-1.7112
-2.15305
-2.65823
-3.22189
-3.8485
-4.5593
-5.05395
-5.17219
-8.66793
-9.19983
-10.4124
-11.098
-11.2678
-11.0857
-10.4746
-9.50275
-8.23698
-6.74536
-5.08706
-3.33142
-1.51749
0.304654
2.10493
3.84936
5.51532
7.07897
8.52444
9.83756
11.0109
12.0417
12.9318
13.6857
14.307
14.7949
15.1461
15.3563
15.418
15.2914
14.9355
14.1382
12.5828
10.3811
8.04245
5.68256
3.22068
0.612198
-2.33467
-5.24085
-7.70306
-8.75956
-8.22001
-6.62321
-4.94378
-3.04345
-1.22937
0.27787
1.42177
2.27365
2.75473
3.13228
3.18989
3.39491
3.28468
0.0518585
0.126003
0.250007
0.336992
0.41739
0.44561
0.439096
0.376958
0.272966
0.132133
-0.0398399
-0.241823
-0.473555
-0.738084
-1.04179
-1.39417
-1.8062
-2.28778
-2.84401
-3.47539
-4.19267
-5.00506
-5.62727
-5.93537
-9.61915
-9.99441
-11.1143
-11.8207
-11.9675
-11.7448
-11.0761
-10.0291
-8.67645
-7.09104
-5.33564
-3.48418
-1.5771
0.333438
2.21707
4.03896
5.77623
7.40452
8.9078
10.2717
11.4889
12.5567
13.4774
14.2556
14.8956
15.3969
15.7564
15.97
16.0304
15.8962
15.5252
14.7294
12.8208
10.7094
8.26602
5.83998
3.2671
0.477513
-2.7535
-5.978
-8.75139
-9.93941
-9.33184
-7.48751
-5.6007
-3.46775
-1.45137
0.19957
1.43333
2.32095
2.80472
3.16559
3.22685
3.42122
3.32677
-0.00613921
0.204953
0.275191
0.373718
0.437338
0.460086
0.44232
0.376329
0.273004
0.134214
-0.0379372
-0.243197
-0.482261
-0.758903
-1.0804
-1.45717
-1.90134
-2.42437
-3.03419
-3.73652
-4.54771
-5.46656
-6.26604
-6.97776
-10.5771
-10.8645
-11.8479
-12.5778
-12.7007
-12.4322
-11.7009
-10.5733
-9.12923
-7.44615
-5.59019
-3.63989
-1.6372
0.363504
2.33161
4.23157
6.04031
7.73306
9.29368
10.7077
11.9678
13.0717
14.0219
14.8235
15.4812
15.9951
16.362
16.5784
16.6371
16.496
16.1046
15.3565
13.0827
10.9973
8.47081
5.98205
3.29786
0.323151
-3.2078
-6.77269
-9.88855
-11.2253
-10.5482
-8.42848
-6.32156
-3.93524
-1.69935
0.106293
1.43565
2.36096
2.85038
3.19819
3.26343
3.44434
3.38031
-0.0775588
0.288118
0.294467
0.405518
0.452403
0.469916
0.443584
0.377746
0.276502
0.139603
-0.0331126
-0.241903
-0.488456
-0.777399
-1.11704
-1.51887
-1.99625
-2.56233
-3.22795
-4.00391
-4.91118
-5.9423
-6.96392
-8.24435
-11.4889
-11.7986
-12.6113
-13.3691
-13.4697
-13.1501
-12.3509
-11.1367
-9.59601
-7.81097
-5.85088
-3.79867
-1.69779
0.39497
2.44881
4.4275
6.30793
8.06498
9.68247
11.1458
12.448
13.587
14.5656
15.3894
16.0637
16.5893
16.9629
17.1814
17.2378
17.0911
16.667
15.9068
13.4476
11.2662
8.66087
6.10883
3.31446
0.152674
-3.69238
-7.61848
-11.1094
-12.6142
-11.867
-9.44514
-7.10855
-4.44779
-1.97466
-0.00298335
1.42801
2.39377
2.89256
3.23073
3.30089
3.46763
3.41654
-0.164752
0.372748
0.306936
0.432667
0.462364
0.476072
0.445206
0.382261
0.28351
0.14825
-0.025262
-0.237696
-0.491824
-0.793242
-1.1514
-1.57893
-2.09051
-2.70107
-3.42436
-4.27582
-5.28004
-6.4282
-7.7036
-9.63355
-12.2731
-12.7662
-13.4056
-14.1948
-14.2768
-13.9007
-13.0281
-11.7211
-10.0777
-8.18582
-6.11783
-3.96058
-1.75886
0.427962
2.56889
4.62709
6.57948
8.40068
10.0746
11.5866
12.9299
14.1028
15.1086
15.9534
16.6433
17.1795
17.5589
17.7789
17.8323
17.6826
17.2191
16.2716
13.8711
11.5062
8.83505
6.22001
3.31929
-0.0286198
-4.19917
-8.50521
-12.4045
-14.0982
-13.2809
-10.5333
-7.96258
-5.00686
-2.27859
-0.129189
1.4101
2.42015
2.93248
3.26448
3.34059
3.50111
3.45802
-0.268952
0.455457
0.312986
0.454959
0.467386
0.48058
0.448973
0.39024
0.293978
0.160187
-0.0142054
-0.230301
-0.492055
-0.806123
-1.18317
-1.637
-2.18367
-2.8399
-3.62227
-4.55026
-5.65084
-6.91843
-8.45479
-10.987
-12.8632
-13.7503
-14.228
-15.0536
-15.1235
-14.6861
-13.7345
-12.328
-10.5753
-8.57117
-6.39113
-4.12561
-1.82037
0.462626
2.69213
4.8307
6.85537
8.74062
10.4704
12.0303
13.4136
14.6193
15.6511
16.5155
17.2198
17.7658
18.15
18.3707
18.4204
18.2722
17.8057
16.4872
14.2713
11.7049
8.99059
6.31579
3.3159
-0.21362
-4.71753
-9.42002
-13.7617
-15.6657
-14.7768
-11.6852
-8.88292
-5.61333
-2.61229
-0.27301
1.38214
2.44141
2.97158
3.2999
3.38261
3.53436
3.50924
-0.388008
0.532265
0.313488
0.471755
0.468842
0.485649
0.455832
0.401728
0.307892
0.175523
0.000281869
-0.219443
-0.488872
-0.815775
-1.21205
-1.69273
-2.27524
-2.97807
-3.8204
-4.82495
-6.01978
-7.40527
-9.18105
-12.1605
-13.2607
-14.7109
-15.0788
-15.9425
-16.0109
-15.5082
-14.4718
-12.9591
-11.0902
-8.96762
-6.67091
-4.29369
-1.88219
0.499134
2.81879
5.0387
7.13605
9.08527
10.8705
12.4774
13.8998
15.1369
16.1933
17.0761
17.7933
18.3481
18.7361
18.9566
19.0023
18.8596
18.5125
16.6642
14.6012
11.8737
9.12654
6.39719
3.30896
-0.393976
-5.23577
-10.3501
-15.1696
-17.3042
-16.3381
-12.8894
-9.86682
-6.26729
-2.97668
-0.434741
1.34497
2.45925
3.01135
3.33773
3.42727
3.56946
3.54736
-0.513496
0.598145
0.309009
0.48298
0.469083
0.492857
0.466121
0.416701
0.325305
0.194423
0.0184299
-0.204884
-0.482053
-0.821981
-1.23782
-1.74579
-2.36472
-3.11474
-4.01731
-5.09734
-6.38266
-7.88019
-9.84696
-13.037
-13.5107
-15.6472
-15.9561
-16.8568
-16.9381
-16.3685
-15.2414
-13.6159
-11.6236
-9.37593
-6.95743
-4.46477
-1.94415
0.537699
2.94919
5.25151
7.422
9.43514
11.2754
12.9285
14.3887
15.6559
16.7355
17.635
18.3639
18.9263
19.3171
19.5363
19.5778
19.4308
19.2698
16.9332
14.8808
12.0226
9.24191
6.46576
3.3038
-0.561507
-5.74381
-11.2865
-16.6229
-19.0045
-17.9487
-14.1319
-10.9094
-6.96785
-3.37224
-0.614154
1.30001
2.47572
3.05329
3.37882
3.47509
3.6123
3.59933
-0.629264
0.646492
0.300167
0.489773
0.470465
0.502972
0.479918
0.435167
0.346329
0.217069
0.0404373
-0.186445
-0.471441
-0.824584
-1.26025
-1.79586
-2.45155
-3.24898
-4.21134
-5.36456
-6.73492
-8.33447
-10.4297
-13.6115
-13.7392
-16.5544
-16.8587
-17.7887
-17.9021
-17.2674
-16.0442
-14.2994
-12.1764
-9.79687
-7.25103
-4.6388
-2.00608
0.578569
3.08363
5.46953
7.71373
9.79079
11.6855
13.3839
14.8808
16.1768
17.278
18.1927
18.9316
19.5005
19.8928
20.1094
20.1478
19.9694
19.8881
17.3227
15.112
12.151
9.33531
6.52361
3.3054
-0.709956
-6.23548
-12.2266
-18.1249
-20.7666
-19.5982
-15.399
-12.004
-7.71292
-3.79885
-0.810424
1.24915
2.49303
3.09884
3.42343
3.52638
3.65136
3.64282
-0.714115
0.669985
0.28869
0.494053
0.474609
0.516239
0.497249
0.457186
0.371103
0.243618
0.0664422
-0.164025
-0.456954
-0.823477
-1.27917
-1.84263
-2.53519
-3.37976
-4.40064
-5.62341
-7.07162
-8.75995
-10.9257
-13.9753
-14.09
-17.4212
-17.7827
-18.7298
-18.8971
-18.2036
-16.8804
-15.0105
-12.7497
-10.2311
-7.55214
-4.81583
-2.06775
0.622024
3.22245
5.69322
8.01179
10.1528
12.1016
13.8444
15.3767
16.6999
17.821
18.7492
19.4965
20.0707
20.4634
20.6754
20.7147
20.4818
20.2361
17.7577
15.2771
12.2573
9.40687
6.57315
3.31745
-0.835919
-6.70908
-13.174
-19.6874
-22.6009
-21.2849
-16.6787
-13.143
-8.49922
-4.25565
-1.02209
1.19472
2.5135
3.14937
3.47229
3.5812
3.69922
3.69064
-0.748999
0.663409
0.277689
0.497609
0.482337
0.532705
0.518159
0.482849
0.399753
0.274174
0.0965043
-0.137601
-0.438571
-0.818608
-1.29445
-1.88579
-2.61502
-3.50594
-4.58309
-5.8704
-7.38784
-9.15064
-11.347
-14.2436
-14.6509
-18.1909
-18.7189
-19.672
-19.9154
-19.1739
-17.7489
-15.7491
-13.3438
-10.6792
-7.86116
-4.99594
-2.129
0.668364
3.36602
5.92303
8.31675
10.5219
12.5242
14.3105
15.877
17.2257
18.365
19.3048
20.0587
20.6369
21.0287
21.2343
21.2837
21.0341
20.37
18.1738
15.3817
12.342
9.45807
6.61611
3.34197
-0.938296
-7.16607
-14.1367
-21.3289
-24.5272
-23.0149
-17.9623
-14.3184
-9.3222
-4.74089
-1.24707
1.13934
2.53954
3.20619
3.52562
3.64044
3.74503
3.7396
-0.724878
0.626782
0.270683
0.501611
0.493978
0.552389
0.542716
0.512247
0.432357
0.308765
0.130599
-0.107223
-0.416336
-0.809968
-1.30597
-1.92503
-2.69039
-3.62622
-4.75638
-6.10195
-7.67913
-9.50296
-11.7108
-14.5
-15.4342
-18.7686
-19.6566
-20.6127
-20.9495
-20.1733
-18.6469
-16.5143
-13.9586
-11.1413
-8.17836
-5.17926
-2.18967
0.717895
3.51471
6.15942
8.62919
10.8988
12.9542
14.783
16.3821
17.7548
18.9104
19.8599
20.6185
21.1992
21.589
21.7861
21.8597
21.7805
20.4417
18.5108
15.448
12.4054
9.4903
6.65323
3.37997
-1.01693
-7.60933
-15.1254
-23.0735
-26.5741
-24.8019
-19.2446
-15.523
-10.1764
-5.25194
-1.48271
1.08592
2.57362
3.27055
3.58384
3.70381
3.79098
3.78293
-0.64615
0.56629
0.270272
0.506744
0.509644
0.575327
0.570988
0.545434
0.468922
0.34733
0.168624
-0.0730102
-0.390343
-0.79759
-1.31364
-1.96004
-2.76057
-3.73917
-4.91808
-6.31478
-7.9423
-9.8164
-12.0325
-14.7657
-16.3031
-19.0787
-20.6034
-21.5578
-21.9937
-21.1961
-19.5698
-17.3037
-14.5935
-11.6173
-8.50383
-5.36584
-2.24966
0.770916
3.66891
6.40283
8.9497
11.2841
13.3923
15.2626
16.8928
18.2875
19.4575
20.4147
21.1758
21.7576
22.1441
22.3306
22.4273
22.6881
20.6271
18.7796
15.4923
12.4471
9.50466
6.68455
3.43243
-1.07145
-8.042
-16.1533
-24.9531
-28.7795
-26.6673
-20.5237
-16.7505
-11.0555
-5.78525
-1.72582
1.03757
2.61828
3.34369
3.64755
3.77253
3.84112
3.82509
-0.52787
0.492243
0.2775
0.513541
0.529345
0.601569
0.603008
0.582398
0.509365
0.389728
0.210403
-0.0351362
-0.360735
-0.781545
-1.3174
-1.9905
-2.82477
-3.84328
-5.06587
-6.50638
-8.17622
-10.0934
-12.3232
-15.0327
-17.0856
-19.1639
-21.5902
-22.5235
-23.0463
-22.2378
-20.5123
-18.1136
-15.2463
-12.1063
-8.83735
-5.55561
-2.30882
0.827718
3.829
6.65374
9.27884
11.6786
13.8394
15.7502
17.41
18.8247
20.0069
20.9696
21.7311
22.3122
22.6936
22.8684
22.9581
23.5256
20.9849
18.9906
15.5213
12.4665
9.50184
6.70989
3.50101
-1.10047
-8.46676
-17.2356
-27.0081
-31.1915
-28.6415
-21.8011
-17.9962
-11.9528
-6.33647
-1.97273
0.997619
2.67615
3.42686
3.71703
3.84869
3.88925
3.86567
-0.389386
0.415581
0.292072
0.522549
0.55303
0.631155
0.638744
0.623046
0.553521
0.435744
0.255704
0.00617443
-0.327701
-0.761948
-1.31721
-2.01608
-2.88217
-3.93705
-5.19784
-6.67559
-8.38206
-10.3388
-12.5906
-15.2861
-17.6739
-19.2489
-22.6446
-23.5317
-24.1089
-23.2958
-21.4696
-18.9392
-15.9141
-12.6068
-9.17824
-5.74833
-2.36696
0.888592
3.99539
6.91259
9.61716
12.083
14.2964
16.2467
17.9344
19.3671
20.5591
21.525
22.2845
22.8632
23.2373
23.4018
23.4432
24.0904
21.4272
19.135
15.5393
12.463
9.48184
6.72921
3.58852
-1.10097
-8.88502
-18.3885
-29.2867
-33.8697
-30.7633
-23.081
-19.2567
-12.8616
-6.9005
-2.21934
0.969643
2.75003
3.52134
3.79279
3.93248
3.93655
3.90165
-0.248329
0.345069
0.312937
0.534319
0.580583
0.664078
0.678082
0.667199
0.601147
0.485104
0.304243
0.0506482
-0.29148
-0.738962
-1.31307
-2.03646
-2.93193
-4.0192
-5.31291
-6.82287
-8.56294
-10.5583
-12.84
-15.5276
-18.1175
-19.598
-23.7103
-24.5996
-25.1866
-24.3711
-22.4386
-19.7755
-16.5927
-13.1161
-9.52523
-5.94342
-2.42379
0.953849