/*--------------------------------*- C++ -*----------------------------------*\
| =========                 |                                                 |
| \\      /  F ield         | OpenFOAM: The Open Source CFD Toolbox           |
|  \\    /   O peration     | Version:  4.1                                   |
|   \\  /    A nd           | Web:      www.OpenFOAM.org                      |
|    \\/     M anipulation  |                                                 |
\*---------------------------------------------------------------------------*/
FoamFile
{
    version     2.0;
    format      ascii;
    class       volVectorField;
    location    "28";
    object      U;
}
// * * * * * * * * * * * * * * * * * * * * * * * * * * * * * * * * * * * * * //

dimensions      [0 1 -1 0 0 0 0];

internalField   nonuniform List<vector> 
6785
(
(1.43619e-14 -2.28118 16.4577)
(1.11621e-14 -7.90481 12.9026)
(-3.12493e-15 -5.11166 13.7091)
(4.10314e-15 -5.06669 13.212)
(9.47914e-16 -4.27277 13.0691)
(-4.66025e-17 -3.84885 12.7757)
(3.27237e-15 -3.42215 12.4894)
(6.29242e-16 -3.12022 12.1799)
(-5.31164e-16 -2.91811 11.8937)
(2.01462e-15 -2.85974 11.6466)
(2.57087e-16 -2.90614 11.4561)
(-4.16708e-16 -3.03047 11.2507)
(8.41308e-16 -3.56985 10.6235)
(2.30902e-17 -3.719 9.45598)
(-3.83532e-16 -0.0795968 7.66549)
(1.81442e-14 -10.3615 26.9137)
(1.23181e-14 -16.1389 23.2704)
(-2.61888e-15 -11.1183 23.6221)
(3.99263e-15 -11.8153 21.8388)
(7.5863e-16 -10.0738 21.0206)
(8.58023e-16 -9.40098 19.8365)
(1.71504e-15 -8.38966 18.8239)
(-1.97474e-17 -7.58513 17.7894)
(-1.56499e-16 -6.75208 16.7535)
(4.93214e-16 -5.88821 15.519)
(-4.48412e-16 -4.85106 13.8393)
(-6.06427e-16 -3.68351 11.4646)
(-2.0153e-16 -2.72201 8.33028)
(-5.90808e-16 -2.01711 5.03608)
(-7.90268e-16 -0.804086 1.93027)
(1.94978e-14 -13.2382 28.9274)
(1.01757e-14 -16.9936 25.5785)
(-1.52222e-15 -12.2881 25.5553)
(4.00597e-15 -13.3191 23.1033)
(4.53237e-16 -11.1784 22.1349)
(1.36485e-15 -10.7752 20.4553)
(1.26081e-15 -9.66046 19.2235)
(-3.73384e-16 -8.99931 17.9017)
(3.93541e-16 -8.17331 16.6136)
(4.91564e-16 -7.16971 14.7881)
(-4.51181e-16 -5.2302 11.4124)
(2.43756e-15 -1.67039 4.95913)
(4.13529e-15 2.62319 -3.03338)
(-2.055e-15 3.97588 -5.26472)
(-4.16677e-15 2.52914 -4.47724)
(2.03626e-14 -14.1646 28.929)
(1.0616e-14 -17.5104 26.2111)
(-1.53626e-15 -13.0451 25.6879)
(4.09561e-15 -14.4748 22.8624)
(1.05535e-15 -12.1116 21.9388)
(1.22213e-15 -12.0789 19.9328)
(1.45056e-15 -10.9223 18.6163)
(5.50501e-16 -10.398 17.0988)
(2.94879e-16 -9.67656 15.7158)
(9.11177e-16 -8.90554 14.0507)
(1.03318e-15 -7.62843 11.5962)
(8.91363e-16 -5.23785 7.6292)
(1.75549e-15 -2.7059 3.37099)
(5.8547e-15 0.956278 -0.137872)
(-5.82042e-15 2.26693 -6.34746)
(2.06257e-14 -14.0353 27.5532)
(1.21758e-14 -17.5115 26.6711)
(-1.17115e-15 -13.2594 25.1908)
(3.383e-15 -14.2792 22.2663)
(1.57317e-15 -12.0824 21.2254)
(9.36565e-16 -11.9361 19.1206)
(1.406e-15 -10.7561 17.6573)
(8.30594e-16 -10.0876 15.969)
(-1.01025e-16 -9.28116 14.4189)
(2.49774e-16 -8.48131 12.8104)
(4.44147e-16 -7.5556 10.9452)
(-3.20843e-16 -6.08767 8.58052)
(-6.75565e-16 -4.4026 5.61035)
(-8.87577e-16 -1.42942 2.06877)
(-1.44208e-15 0.639478 -3.46363)
(2.06758e-14 -13.483 25.7268)
(1.37735e-14 -17.0356 26.571)
(3.67693e-17 -13.1843 24.4121)
(2.46566e-15 -13.6049 21.4327)
(2.04087e-15 -11.7122 20.2624)
(1.39932e-15 -11.3768 18.2174)
(1.45243e-15 -10.2694 16.6858)
(1.35124e-15 -9.52429 15.0267)
(6.32531e-16 -8.72543 13.515)
(1.09236e-16 -7.94512 12.0587)
(4.04218e-16 -7.17828 10.5531)
(8.13919e-16 -6.18218 8.95496)
(-2.32131e-18 -5.05649 6.94832)
(-2.47907e-16 -3.04896 4.42808)
(5.90674e-15 -0.775155 -0.442246)
(2.21956e-14 -12.9897 24.5823)
(1.56343e-14 -16.3781 25.9324)
(2.21836e-15 -12.8896 23.6491)
(2.04023e-15 -13.0188 20.5837)
(2.77672e-15 -11.2058 19.374)
(3.73803e-15 -10.878 17.3495)
(2.07204e-15 -9.84489 15.9476)
(2.06972e-15 -9.27148 14.4302)
(3.84737e-15 -8.61438 13.0348)
(1.83295e-15 -7.99514 11.6815)
(8.28246e-16 -7.40747 10.442)
(3.12746e-15 -6.78418 9.4275)
(2.13768e-15 -6.13905 8.47982)
(-1.47784e-15 -4.93135 7.25742)
(6.83555e-15 -2.65146 3.45275)
(2.14088e-14 -12.8502 24.1545)
(1.4786e-14 -15.4307 24.9004)
(1.48775e-15 -12.2736 22.6905)
(2.45782e-15 -12.2151 19.738)
(2.67156e-15 -10.2478 18.5137)
(2.87674e-15 -9.76155 16.2395)
(2.08011e-15 -8.2819 14.4855)
(2.11832e-15 -7.5888 12.4386)
(2.24044e-15 -6.87942 10.9916)
(1.48337e-15 -6.69553 10.0177)
(7.59098e-16 -6.81479 9.79398)
(9.97439e-16 -7.27425 10.2587)
(1.06764e-15 -7.57628 11.0642)
(-2.31539e-15 -7.33451 11.128)
(2.23571e-15 -5.15302 8.47945)
(2.12322e-14 -13.799 25.6726)
(1.02077e-14 -14.7988 24.9024)
(-2.60314e-16 -12.3066 23.2474)
(2.30546e-15 -11.8991 21.149)
(1.34485e-15 -10.0719 19.8418)
(4.05224e-16 -8.76957 17.2565)
(1.39345e-15 -6.44843 14.2266)
(1.20053e-15 -4.56087 10.8929)
(7.41869e-16 -2.9228 8.31499)
(2.7007e-15 -2.15467 6.73753)
(2.13605e-15 -2.5314 6.99885)
(4.40167e-16 -4.31828 9.31377)
(7.04553e-16 -6.72645 12.5599)
(-9.76978e-16 -8.48104 14.4356)
(-1.03089e-15 -6.36356 11.8185)
(2.10408e-14 -15.4111 28.4242)
(8.03908e-15 -16.3169 27.2964)
(-7.99914e-16 -13.5241 25.5129)
(1.75945e-15 -13.3637 23.9997)
(5.29738e-16 -11.7276 22.8868)
(6.66452e-17 -10.4359 20.4311)
(9.92903e-16 -7.93782 17.2594)
(1.53413e-15 -5.62564 13.6605)
(2.78307e-15 -3.2463 10.4362)
(5.1321e-15 -1.10864 7.26042)
(5.95474e-15 0.786969 4.38647)
(4.13626e-15 1.57802 2.73451)
(4.95778e-16 0.406703 3.60076)
(-7.06603e-16 -2.32262 6.45473)
(-5.12057e-16 -3.24617 7.35261)
(2.05465e-14 -14.995 27.0095)
(1.14555e-14 -18.9637 30.848)
(2.15175e-15 -15.5813 27.8522)
(1.99982e-15 -15.1622 25.6663)
(4.54899e-17 -13.8008 24.5485)
(1.96011e-15 -13.0669 22.5313)
(1.40934e-15 -11.2472 20.0398)
(5.40807e-16 -9.40987 16.8924)
(4.90976e-15 -7.23769 13.7448)
(4.5739e-15 -5.06152 10.3699)
(5.42747e-15 -2.65502 6.74401)
(1.2973e-14 -0.212594 2.79715)
(1.12067e-14 2.37979 -1.23445)
(1.3839e-14 3.78781 -3.83004)
(4.88444e-16 1.92586 -3.11204)
(1.86286e-14 -12.3395 21.346)
(1.5697e-14 -19.1779 30.9104)
(6.49349e-15 -17.0215 28.6505)
(2.67363e-15 -15.6299 25.2051)
(-3.59239e-17 -14.2537 23.2168)
(2.01248e-15 -13.5834 21.2954)
(1.96097e-15 -12.5425 19.363)
(2.01004e-16 -11.411 17.1092)
(2.33357e-15 -10.047 14.7228)
(2.57648e-15 -8.53895 12.2121)
(2.05161e-15 -6.87418 9.55857)
(5.06624e-15 -4.92665 6.74683)
(4.1242e-15 -2.86548 3.60406)
(4.55071e-15 0.12482 0.373171)
(-1.42118e-15 1.54082 -5.02257)
(1.6291e-14 -9.6647 16.1491)
(1.78809e-14 -17.9147 29.2241)
(9.54511e-15 -17.2551 28.5082)
(3.56304e-15 -15.4592 24.6893)
(7.24613e-16 -13.9001 21.9404)
(1.07071e-15 -13 19.8013)
(1.06134e-15 -12.1309 17.9889)
(1.57112e-15 -11.2367 16.1723)
(1.50924e-15 -10.237 14.3001)
(1.09227e-15 -9.10506 12.3798)
(1.45677e-15 -7.88575 10.3849)
(1.20394e-15 -6.44256 8.32827)
(6.83481e-16 -4.92033 6.00647)
(1.81594e-15 -2.67011 3.36568)
(-2.27848e-15 -0.507873 -1.37042)
(1.36696e-14 -7.11517 11.0354)
(1.87151e-14 -16.0264 26.3604)
(9.35677e-15 -16.2789 26.6261)
(1.63324e-15 -13.823 22.3328)
(-2.42023e-16 -11.8595 19.2652)
(6.95283e-16 -10.8694 17.4511)
(1.29464e-15 -10.1538 16.2054)
(2.06095e-15 -9.53372 15.0275)
(1.80607e-15 -8.89423 13.8114)
(1.3759e-15 -8.19388 12.5785)
(7.0101e-16 -7.49295 11.3216)
(1.13811e-16 -6.66549 10.029)
(5.67423e-16 -5.74764 8.44889)
(4.81969e-16 -4.22641 6.40945)
(-1.72995e-15 -2.12722 2.85411)
(7.9469e-15 -5.56361 9.8629)
(1.82336e-14 -15.8079 25.0727)
(1.62432e-14 -19.382 28.8035)
(9.23121e-15 -19.3071 26.7345)
(2.86068e-15 -17.5656 23.1655)
(6.64067e-16 -15.7112 20.0303)
(-2.51084e-16 -14.1735 17.605)
(-6.90517e-16 -12.7996 15.6007)
(-1.27625e-16 -11.4471 13.902)
(6.45235e-16 -10.1669 12.3626)
(2.09777e-16 -8.8986 10.8617)
(-4.0337e-16 -7.62176 9.42754)
(-1.34309e-15 -6.52367 8.50685)
(-3.03904e-15 -5.77175 7.79086)
(-4.11905e-15 -3.10222 5.57456)
(-1.35564e-15 30.2087 6.8547)
(-2.13911e-15 8.56252 2.76119)
(-1.64659e-15 -1.24461 0.643316)
(-1.66631e-15 0.685285 0.176119)
(-1.61245e-15 0.29674 -0.0634468)
(-2.27535e-15 0.749808 -2.2315)
(-1.70843e-15 0.731338 -1.97243)
(-1.70103e-15 0.989313 -2.0314)
(-1.74535e-15 1.04961 -2.03455)
(-1.73702e-15 1.64146 -2.88623)
(-1.02791e-15 1.47493 -2.05023)
(-9.2791e-16 1.68066 -1.98485)
(-1.57379e-15 2.3143 -2.5348)
(-1.22508e-15 1.91908 -1.76111)
(-1.27192e-15 2.23001 -1.75967)
(-1.2605e-15 2.21729 -1.74749)
(-2.01854e-15 2.8196 -2.11453)
(-1.51711e-15 2.39039 -1.47481)
(-1.48712e-15 2.58517 -1.43623)
(-2.28717e-15 3.22237 -1.64301)
(-1.75888e-15 2.56236 -1.15676)
(-1.82949e-15 2.89285 -1.15165)
(-1.70657e-15 2.80269 -1.15542)
(-2.52961e-15 3.44143 -1.23815)
(-1.92928e-15 2.7211 -0.882441)
(-1.94339e-15 3.03285 -0.862703)
(-1.98159e-15 2.9364 -0.86784)
(-2.87269e-15 3.45509 -0.828704)
(-2.30489e-15 2.77834 -0.587701)
(-2.18776e-15 2.9396 -0.587984)
(-3.09811e-15 3.42807 -0.388972)
(-2.38763e-15 2.60871 -0.298777)
(-2.34652e-15 2.8729 -0.275552)
(-2.30289e-15 2.76366 -0.301112)
(-3.22905e-15 3.13079 -0.00987841)
(-2.35277e-15 2.43624 -0.0327928)
(-2.1576e-15 2.56025 -0.080842)
(-3.00517e-15 2.88432 0.288671)
(-2.0704e-15 2.12968 0.142476)
(-2.03124e-15 2.32058 0.139099)
(-1.76843e-15 2.21671 0.0764626)
(-2.43588e-15 2.49145 0.451141)
(-1.58322e-15 1.86121 0.275328)
(-1.49477e-15 2.0153 0.273409)
(-1.36316e-15 1.91716 0.208851)
(-1.78502e-15 2.15415 0.584246)
(-1.3905e-15 1.71992 0.489254)
(-1.26279e-15 1.76985 0.417907)
(-1.73142e-15 1.92932 0.885507)
(-1.03227e-15 1.46429 0.648969)
(-9.59708e-16 1.53629 0.648584)
(-8.59949e-16 1.45608 0.587353)
(-1.06298e-15 1.47005 0.974792)
(-6.65565e-16 1.03408 0.584552)
(-6.43719e-16 1.06781 0.564543)
(-3.04994e-16 1.02762 0.575681)
(-2.23383e-16 0.923151 0.413943)
(1.68015e-16 0.458131 -0.198597)
(-3.36465e-16 0.427135 0.0438529)
(-4.34173e-17 1.10701 -1.97365)
(7.55552e-16 -0.564483 -1.64964)
(4.35209e-16 0.0148885 -1.64051)
(2.79404e-16 0.203522 -1.52052)
(-3.52778e-16 -0.187818 -0.0480476)
(-1.31434e-15 -1.26046 1.96896)
(-1.29538e-15 -0.956771 1.9619)
(-1.65422e-15 -2.03991 4.51038)
(-1.08225e-15 -2.58007 4.62917)
(-9.77562e-16 -2.92673 4.68492)
(-8.72868e-16 -2.88831 4.84307)
(-5.68862e-16 -4.55314 7.83457)
(-7.24251e-17 -4.775 6.44404)
(8.07989e-17 -5.42027 6.53047)
(2.11497e-16 -5.26107 6.63461)
(6.99211e-16 -7.67639 10.1625)
(6.26965e-16 -7.60788 8.02249)
(5.16986e-16 -7.68582 8.65985)
(7.02739e-16 -10.3994 12.8011)
(3.5648e-16 -10.0235 9.95249)
(1.36731e-16 -10.4135 10.9057)
(-3.92576e-16 -11.1949 13.0912)
(-2.22773e-16 -11.0446 12.8329)
(-2.72464e-16 -11.1256 13.1968)
(1.02281e-15 -12.5307 15.3451)
(3.08666e-17 -11.6313 14.2609)
(3.543e-16 -11.8288 14.7532)
(4.83928e-16 -11.8185 14.835)
(7.05304e-16 -11.9045 14.8839)
(9.52443e-16 -11.9542 14.8729)
(1.18316e-15 -12.029 14.8585)
(1.44526e-15 -12.1107 14.912)
(1.69663e-15 -12.1133 15.0799)
(2.66674e-15 -12.9871 16.5509)
(1.87038e-15 -12.4308 15.5109)
(1.93453e-15 -12.5771 15.7096)
(1.94883e-15 -12.5572 15.8768)
(2.19154e-15 -12.6843 16.2074)
(2.24822e-15 -12.6952 16.3798)
(2.4103e-15 -12.7838 16.5065)
(2.5157e-15 -12.8606 16.6333)
(2.61603e-15 -12.8901 16.7626)
(3.66727e-15 -13.4497 17.958)
(3.03942e-15 -12.9603 16.9595)
(3.15376e-15 -13.0773 17.0382)
(3.20646e-15 -13.1041 17.0107)
(3.28033e-15 -13.1744 17.1015)
(3.36765e-15 -13.2076 17.3143)
(3.45409e-15 -13.2934 17.5904)
(3.51766e-15 -13.3113 17.7073)
(3.65269e-15 -13.3855 17.8698)
(3.76048e-15 -13.443 17.9946)
(4.73956e-15 -13.3975 18.5736)
(4.08982e-15 -13.1823 18.1071)
(4.25172e-15 -13.2276 18.3457)
(4.24951e-15 -13.2478 18.5405)
(4.19232e-15 -13.3072 18.7997)
(4.07998e-15 -13.3281 19.0748)
(3.96786e-15 -13.4068 19.4477)
(4.03504e-15 -13.4175 19.585)
(4.14609e-15 -13.5182 19.5886)
(5.29344e-15 -12.7144 18.9019)
(4.22716e-15 -12.8071 18.6362)
(4.23115e-15 -12.802 18.5522)
(4.20861e-15 -12.8578 18.5266)
(4.19442e-15 -12.8239 18.3568)
(4.26635e-15 -12.8575 18.3278)
(4.45873e-15 -12.8607 18.352)
(4.72663e-15 -12.8069 18.486)
(5.10074e-15 -12.9971 18.8801)
(6.09752e-15 -11.0963 16.9386)
(5.46191e-15 -11.698 17.9879)
(5.79637e-15 -11.5736 18.0476)
(5.99723e-15 -11.5661 18.2168)
(6.38389e-15 -11.5415 18.5556)
(6.52244e-15 -11.5021 18.5484)
(6.50318e-15 -11.4229 18.3315)
(6.40159e-15 -11.3477 17.978)
(6.2392e-15 -11.388 17.4021)
(6.05509e-15 -8.52748 12.9525)
(6.04827e-15 -9.52639 14.9705)
(5.49936e-15 -9.23458 13.5347)
(5.20907e-15 -9.28606 12.6003)
(5.02816e-15 -9.10811 11.5323)
(5.07324e-15 -9.00169 10.6325)
(5.91024e-15 -8.81901 10.0654)
(5.25389e-15 -8.58945 9.20251)
(5.18321e-15 -8.3625 8.59256)
(4.91649e-15 -8.19719 7.90865)
(2.39406e-15 -4.31734 1.99056)
(5.23502e-15 -6.09151 7.42339)
(4.91792e-15 -5.43156 6.1721)
(4.71162e-15 -5.57185 5.7961)
(4.32645e-15 -5.17998 4.8835)
(3.75472e-15 -5.08667 3.77683)
(2.62313e-15 -4.85269 1.74797)
(1.56688e-15 -4.48082 -0.231805)
(1.72255e-15 -4.38549 -0.345998)
(3.49413e-17 -3.26905 -3.48705)
(1.20603e-15 -3.50142 -0.476643)
(8.0514e-16 -3.30111 -1.56805)
(-8.03266e-16 -2.38832 -3.26038)
(4.30849e-18 -3.37075 -2.94361)
(-2.93797e-16 -2.08055 -2.34466)
(-1.9939e-16 -1.8483 -1.52529)
(-2.60228e-16 -1.84031 -2.12566)
(-2.02519e-16 -1.2187 -1.24393)
(-2.58957e-16 -1.23287 -1.8953)
(-1.09873e-16 -0.84692 -1.29853)
(2.18195e-17 -0.617797 -0.972988)
(-6.77707e-18 -0.504288 -1.31422)
(-1.71252e-18 -0.313573 -0.817293)
(-1.68566e-17 -0.157396 -0.570911)
(-7.08055e-18 -0.0709894 -0.89451)
(5.93445e-17 0.0782639 -0.655898)
(-3.28054e-16 0.186805 -0.769706)
(-3.49636e-16 0.34742 -0.854593)
(-1.74506e-16 0.384089 -0.553131)
(-4.89957e-16 0.606621 -0.732349)
(-4.19051e-16 0.577578 -0.508836)
(-4.20512e-16 0.729852 -0.613903)
(-3.8877e-16 0.873588 -0.653434)
(-2.64424e-16 0.821473 -0.408688)
(-2.35491e-16 1.00011 -0.482642)
(-5.29493e-16 1.18184 -0.49685)
(-3.95733e-16 0.983115 -0.306819)
(-4.93139e-16 1.40461 -0.413863)
(-3.39665e-16 1.14636 -0.276814)
(-5.00778e-16 1.32074 -0.352053)
(-6.42855e-16 1.54305 -0.379816)
(-4.78976e-16 1.2478 -0.240235)
(-6.71328e-16 1.76801 -0.331735)
(-5.23725e-16 1.39863 -0.211659)
(-5.88881e-16 1.62989 -0.267889)
(-8.30675e-16 1.78353 -0.254031)
(-5.97742e-16 1.52158 -0.13256)
(-6.74983e-16 1.79802 -0.161691)
(-9.33139e-16 1.99075 -0.116468)
(-6.41689e-16 1.56097 -0.0562426)
(-8.52897e-16 2.19167 -0.0749978)
(-6.1697e-16 1.69603 -0.0239158)
(-7.37099e-16 1.91259 -0.0450607)
(-7.57793e-16 2.15886 -0.000902249)
(-4.3359e-16 1.68097 0.0127713)
(-5.85514e-16 2.3525 0.0189221)
(-4.68064e-16 1.79278 0.0464773)
(-5.75553e-16 2.05364 0.0475043)
(-9.09838e-16 2.19861 0.130875)
(-7.77806e-16 1.81355 0.124288)
(-1.0699e-15 2.13194 0.150381)
(-1.56921e-15 2.28215 0.254036)
(-1.21629e-15 1.74212 0.169582)
(-1.82965e-15 2.42779 0.213477)
(-1.47164e-15 1.81408 0.140558)
(-1.91873e-15 2.05327 0.124146)
(-2.4704e-15 2.20088 0.0908)
(-1.70828e-15 1.68731 -0.0109394)
(-2.32188e-15 2.36335 -0.129386)
(-1.68801e-15 1.75391 -0.178772)
(-2.02568e-15 2.06688 -0.317569)
(-2.35471e-15 2.071 -0.479126)
(-1.58542e-15 1.70239 -0.405232)
(-1.97554e-15 2.11424 -0.561053)
(-2.18824e-15 2.11294 -0.700995)
(-1.41766e-15 1.65598 -0.521878)
(-1.85072e-15 2.3812 -0.767144)
(-1.29119e-15 1.82645 -0.590261)
(-1.50905e-15 2.14196 -0.767514)
(-1.68808e-15 2.27742 -0.934416)
(-1.02087e-15 1.82758 -0.660461)
(-1.18176e-15 2.60606 -0.979985)
(-7.62916e-16 2.08403 -0.721455)
(-8.8124e-16 2.46583 -0.923346)
(-7.51663e-16 2.60441 -1.08347)
(-4.61864e-16 2.29187 -0.703266)
(-5.19118e-16 2.75259 -0.871008)
(-6.92323e-16 3.01107 -0.953477)
(-5.47238e-16 2.45749 -0.578527)
(-9.06142e-16 3.46888 -0.789189)
(-7.77943e-16 2.74524 -0.482918)
(-1.22893e-15 3.27091 -0.560983)
(1.11939e-14 1.15197 6.08579)
(1.05937e-14 1.2765 6.33872)
(9.68255e-15 1.34648 6.33984)
(8.90977e-15 1.44908 6.36263)
(8.27081e-15 1.55178 6.33723)
(7.93165e-15 1.65953 6.2958)
(7.9412e-15 1.76913 6.23157)
(8.32425e-15 1.87845 6.14579)
(9.05138e-15 1.98463 6.03565)
(1.00228e-14 2.08191 5.90084)
(1.1016e-14 2.16128 5.74586)
(1.16005e-14 2.20786 5.58615)
(1.10546e-14 2.20101 5.45432)
(8.42606e-15 2.11865 5.39985)
(2.94288e-15 1.9516 5.47)
(-5.30862e-15 1.72335 5.67419)
(-1.51223e-14 1.48457 5.96436)
(-2.44677e-14 1.23042 6.22319)
(-3.02333e-14 0.805191 6.20663)
(-2.94629e-14 0.101462 5.70568)
(-2.58911e-14 -0.515542 5.21889)
(-2.39274e-14 -0.866177 5.03172)
(-2.23862e-14 -1.12475 4.89652)
(-2.09296e-14 -1.39554 4.76514)
(-1.95185e-14 -1.68943 4.638)
(-1.81442e-14 -1.9943 4.5153)
(-1.67928e-14 -2.3001 4.3949)
(-1.54616e-14 -2.60021 4.27639)
(-1.41451e-14 -2.88804 4.1588)
(-1.28453e-14 -3.1594 4.04191)
(-1.15637e-14 -3.41115 3.92539)
(-1.0301e-14 -3.6403 3.80851)
(-9.06542e-15 -3.84482 3.69164)
(-7.86377e-15 -4.02453 3.57532)
(-6.69443e-15 -4.17915 3.45923)
(-5.55389e-15 -4.30892 3.34321)
(-4.43445e-15 -4.41454 3.22714)
(-3.32249e-15 -4.49762 3.11092)
(-2.19566e-15 -4.55949 2.99403)
(-1.02308e-15 -4.60033 2.8754)
(2.26977e-16 -4.61894 2.75419)
(1.58015e-15 -4.61418 2.63015)
(3.05204e-15 -4.58509 2.50319)
(4.63826e-15 -4.53193 2.37388)
(6.3077e-15 -4.45677 2.24264)
(7.99859e-15 -4.36358 2.11013)
(9.62411e-15 -4.25673 1.97621)
(1.10774e-14 -4.13823 1.84022)
(1.22436e-14 -4.00655 1.70117)
(1.30209e-14 -3.85545 1.55757)
(1.33333e-14 -3.67853 1.40875)
(1.31516e-14 -3.47739 1.25554)
(1.25073e-14 -3.25642 1.09828)
(1.14761e-14 -3.00908 0.936418)
(1.01663e-14 -2.71629 0.767713)
(8.69708e-15 -2.38195 0.594951)
(7.1466e-15 -2.0286 0.418058)
(5.53803e-15 -1.66688 0.238206)
(3.89227e-15 -1.30289 0.0573299)
(2.32805e-15 -0.922883 -0.113387)
(1.08489e-15 -0.475592 -0.259478)
(4.44634e-16 -0.118464 -0.367553)
(2.45656e-16 0.00916964 -0.412985)
(1.61508e-16 0.00929012 -0.475469)
(1.0798e-16 -0.0386095 -0.594493)
(5.52882e-17 -0.100584 -0.758592)
(6.90066e-18 -0.171488 -0.91865)
(-2.4493e-17 -0.223368 -1.0383)
(-3.68586e-17 -0.242408 -1.11059)
(-3.65895e-17 -0.22504 -1.14424)
(-3.2276e-17 -0.174303 -1.16432)
(-2.70241e-17 0.0109498 -1.21755)
(-1.29886e-17 0.575919 -1.13136)
(-2.89538e-18 1.25711 -0.755224)
(-3.51442e-19 1.67511 -0.420867)
(2.50665e-18 2.93578 -0.393731)
(9.9791e-17 2.65992 0.819173)
(2.20595e-16 -0.740614 0.760649)
(2.15654e-17 -1.35463 -0.739898)
(1.05062e-14 1.11183 6.37816)
(9.19347e-15 1.2431 6.47298)
(8.38945e-15 1.34558 6.42964)
(7.83933e-15 1.45183 6.41082)
(7.62622e-15 1.56419 6.3589)
(7.81911e-15 1.67786 6.29597)
(8.40714e-15 1.79452 6.21117)
(9.35552e-15 1.91124 6.1036)
(1.05729e-14 2.02532 5.97006)
(1.18768e-14 2.12966 5.81239)
(1.29073e-14 2.21248 5.64143)
(1.30055e-14 2.25405 5.48539)
(1.11463e-14 2.22803 5.39627)
(6.18656e-15 2.11032 5.44031)
(-2.32343e-15 1.8995 5.65638)
(-1.32499e-14 1.63594 6.00446)
(-2.4231e-14 1.39041 6.37776)
(-3.30037e-14 1.1877 6.6532)
(-3.71146e-14 0.889627 6.61738)
(-3.3544e-14 0.274205 5.96618)
(-2.58554e-14 -0.443282 5.12526)
(-2.28807e-14 -0.85195 4.89686)
(-2.16895e-14 -1.115 4.81764)
(-2.04878e-14 -1.39028 4.70678)
(-1.91775e-14 -1.6893 4.589)
(-1.78578e-14 -1.99699 4.47535)
(-1.65506e-14 -2.30383 4.36332)
(-1.52547e-14 -2.60367 4.25179)
(-1.39657e-14 -2.89007 4.13987)
(-1.26877e-14 -3.15933 4.02745)
(-1.14235e-14 -3.40833 3.91449)
(-1.01758e-14 -3.6343 3.80049)
(-8.9535e-15 -3.83554 3.68591)
(-7.76304e-15 -4.01186 3.57138)
(-6.60306e-15 -4.16296 3.45663)
(-5.47018e-15 -4.28919 3.34159)
(-4.3567e-15 -4.39128 3.22621)
(-3.24875e-15 -4.47084 3.11044)
(-2.1237e-15 -4.52908 2.9938)
(-9.50757e-16 -4.56612 2.87523)
(3.01285e-16 -4.58089 2.75397)
(1.65748e-15 -4.57232 2.62977)
(3.13244e-15 -4.53957 2.50259)
(4.72055e-15 -4.48298 2.37301)
(6.38934e-15 -4.40465 2.24148)
(8.076e-15 -4.30849 2.10868)
(9.69298e-15 -4.19867 1.97447)
(1.11332e-14 -4.07706 1.83821)
(1.22829e-14 -3.94192 1.69887)
(1.30414e-14 -3.78694 1.55489)
(1.33349e-14 -3.60605 1.40559)
(1.31365e-14 -3.401 1.25185)
(1.24797e-14 -3.17594 1.094)
(1.14411e-14 -2.92373 0.931072)
(1.01294e-14 -2.62562 0.760459)
(8.66266e-15 -2.28603 0.584419)
(7.11791e-15 -1.92777 0.401797)
(5.51923e-15 -1.56302 0.211596)
(3.89048e-15 -1.20235 0.0157008)
(2.35145e-15 -0.835859 -0.171951)
(1.14368e-15 -0.41114 -0.336547)
(5.41208e-16 -0.0838732 -0.468813)
(3.44952e-16 0.0308159 -0.555996)
(2.64204e-16 0.0446027 -0.6937)
(2.04377e-16 0.011243 -0.883173)
(1.37117e-16 -0.0555785 -1.05482)
(6.26359e-17 -0.140853 -1.17146)
(5.12071e-18 -0.208843 -1.23333)
(-2.59762e-17 -0.240452 -1.25807)
(-3.60468e-17 -0.227922 -1.2595)
(-3.66044e-17 -0.171212 -1.26651)
(-3.4217e-17 0.0062264 -1.34767)
(-2.04928e-17 0.49579 -1.2517)
(-6.5966e-18 1.13775 -0.843041)
(-1.47953e-18 1.61282 -0.36001)
(1.40527e-18 2.73033 -0.267502)
(9.36617e-17 2.46995 1.32181)
(2.22134e-16 -0.516255 0.888178)
(4.0105e-17 -1.113 -0.806635)
(9.65417e-15 1.1228 6.41665)
(8.42361e-15 1.25417 6.46389)
(7.95274e-15 1.35598 6.42525)
(7.73374e-15 1.46149 6.3982)
(7.88698e-15 1.57554 6.34054)
(8.42499e-15 1.69115 6.2682)
(9.31578e-15 1.81106 6.17162)
(1.05005e-14 1.93142 6.05018)
(1.18569e-14 2.04903 5.90238)
(1.31427e-14 2.15519 5.73361)
(1.38811e-14 2.23534 5.56212)
(1.32241e-14 2.2658 5.42855)
(9.96568e-15 2.21752 5.39878)
(3.05805e-15 2.07031 5.53987)
(-7.27478e-15 1.83638 5.85943)
(-1.88992e-14 1.57007 6.26333)
(-2.90374e-14 1.34241 6.61814)
(-3.61067e-14 1.17576 6.84171)
(-3.90809e-14 0.950644 6.81146)
(-3.56408e-14 0.426802 6.21028)
(-2.67026e-14 -0.306428 5.15533)
(-2.20147e-14 -0.797378 4.74197)
(-2.06459e-14 -1.0846 4.68503)
(-1.97786e-14 -1.35165 4.61736)
(-1.86994e-14 -1.64695 4.51989)
(-1.74812e-14 -1.95432 4.41815)
(-1.62315e-14 -2.26136 4.31718)
(-1.49814e-14 -2.5617 4.21579)
(-1.37308e-14 -2.84895 4.11249)
(-1.24833e-14 -3.1194 4.00695)
(-1.12431e-14 -3.36979 3.89943)
(-1.00157e-14 -3.59732 3.78986)
(-8.81107e-15 -3.80032 3.67885)
(-7.63544e-15 -3.9785 3.56708)
(-6.48777e-15 -4.13144 3.45444)
(-5.36491e-15 -4.25948 3.34093)
(-4.25916e-15 -4.36334 3.22666)
(-3.15642e-15 -4.44455 3.11163)
(-2.03372e-15 -4.50422 2.99539)
(-8.6047e-16 -4.54246 2.87696)
(3.93868e-16 -4.55826 2.75563)
(1.75356e-15 -4.55065 2.63121)
(3.23201e-15 -4.51886 2.50373)
(4.82206e-15 -4.46329 2.37376)
(6.48959e-15 -4.38603 2.24182)
(8.17057e-15 -4.29093 2.10858)
(9.77664e-15 -4.18202 1.97394)
(1.12007e-14 -4.0611 1.83725)
(1.23299e-14 -3.92638 1.69744)
(1.30654e-14 -3.77163 1.55287)
(1.3336e-14 -3.59105 1.4029)
(1.31178e-14 -3.38647 1.24841)
(1.24463e-14 -3.16187 1.08966)
(1.13995e-14 -2.90986 0.925183)
(1.00862e-14 -2.6121 0.751875)
(8.62324e-15 -2.27299 0.571174)
(7.08657e-15 -1.91455 0.380267)
(5.50176e-15 -1.54856 0.175082)
(3.89626e-15 -1.1864 -0.0426278)
(2.39141e-15 -0.818453 -0.255174)
(1.23044e-15 -0.393606 -0.448012)
(6.74603e-16 -0.0707031 -0.61411)
(4.69139e-16 0.0555165 -0.74662)
(3.6882e-16 0.0801527 -0.940536)
(2.88881e-16 0.0444907 -1.16683)
(2.07859e-16 -0.0348783 -1.34797)
(1.18934e-16 -0.13013 -1.45252)
(4.21397e-17 -0.203121 -1.48834)
(-7.49663e-18 -0.237673 -1.48034)
(-3.03929e-17 -0.225129 -1.44866)
(-3.74154e-17 -0.161582 -1.4211)
(-3.69208e-17 0.0065982 -1.43838)
(-2.5194e-17 0.45925 -1.31187)
(-1.02985e-17 1.06253 -0.898396)
(-2.79106e-18 1.55161 -0.364544)
(-7.58208e-18 2.57854 -0.117384)
(6.16809e-17 2.386 1.54626)
(2.51604e-16 -0.322012 1.12097)
(4.34016e-17 -0.92137 -0.50369)
(8.90287e-15 1.10992 6.47848)
(7.84386e-15 1.24802 6.47917)
(7.7113e-15 1.36096 6.43407)
(7.83178e-15 1.46975 6.38914)
(8.35049e-15 1.58996 6.3184)
(9.22834e-15 1.71047 6.23037)
(1.0413e-14 1.83624 6.11716)
(1.18177e-14 1.96243 5.97804)
(1.32771e-14 2.08523 5.81382)
(1.4461e-14 2.19354 5.63501)
(1.47261e-14 2.26871 5.47043)
(1.29869e-14 2.28178 5.37665)
(7.89522e-15 2.20154 5.43256)
(-1.26196e-15 2.01591 5.69369)
(-1.32621e-14 1.75572 6.11756)
(-2.49971e-14 1.48887 6.55447)
(-3.36936e-14 1.28184 6.86516)
(-3.86572e-14 1.1541 7.01878)
(-4.01312e-14 1.01106 6.9788)
(-3.69348e-14 0.601053 6.46578)
(-2.82521e-14 -0.148801 5.31409)
(-2.18126e-14 -0.743177 4.62854)
(-1.96763e-14 -1.07718 4.52536)
(-1.8864e-14 -1.34158 4.49389)
(-1.80694e-14 -1.63116 4.42976)
(-1.7039e-14 -1.93665 4.34698)
(-1.58765e-14 -2.24308 4.2593)
(-1.46771e-14 -2.54268 4.17012)
(-1.34688e-14 -2.82906 4.07797)
(-1.22569e-14 -3.09878 3.98167)
(-1.10453e-14 -3.34857 3.88151)
(-9.84157e-15 -3.57569 3.77789)
(-8.65702e-15 -3.7785 3.67169)
(-7.49809e-15 -3.95659 3.56366)
(-6.36419e-15 -4.10949 3.45386)
(-5.25247e-15 -4.23755 3.34246)
(-4.15527e-15 -4.34146 3.22969)
(-3.05825e-15 -4.42271 3.11567)
(-1.93817e-15 -4.4823 2.99998)
(-7.64771e-16 -4.52031 2.88174)
(4.91777e-16 -4.53581 2.76035)
(1.85487e-15 -4.52789 2.63567)
(3.33658e-15 -4.49587 2.5078)
(4.92816e-15 -4.44015 2.37733)
(6.59382e-15 -4.36286 2.24485)
(8.26832e-15 -4.26778 2.11105)
(9.86251e-15 -4.15882 1.97581)
(1.12693e-14 -4.03768 1.83851)
(1.23771e-14 -3.9025 1.69801)
(1.3089e-14 -3.74708 1.55265)
(1.33363e-14 -3.56589 1.40181)
(1.30981e-14 -3.36081 1.24636)
(1.24121e-14 -3.13559 1.08639)
(1.13576e-14 -2.88253 0.919892)
(1.00436e-14 -2.58353 0.743179)
(8.58535e-15 -2.24299 0.556586)
(7.05836e-15 -1.88213 0.355113)
(5.49025e-15 -1.51297 0.131156)
(3.9124e-15 -1.1493 -0.113476)
(2.44809e-15 -0.781525 -0.356966)
(1.3416e-15 -0.358397 -0.586115)
(8.41671e-16 -0.039517 -0.795273)
(6.20619e-16 0.096514 -0.976308)
(4.90831e-16 0.128126 -1.2108)
(3.84463e-16 0.0900427 -1.45644)
(2.83587e-16 -0.000908476 -1.6395)
(1.79881e-16 -0.113225 -1.72733)
(8.43104e-17 -0.199524 -1.73758)
(1.63441e-17 -0.243071 -1.69928)
(-1.98613e-17 -0.234032 -1.63507)
(-3.41215e-17 -0.167829 -1.5693)
(-3.74808e-17 -0.00982117 -1.54246)
(-2.98091e-17 0.394285 -1.39936)
(-1.50371e-17 0.957454 -0.976234)
(-4.76799e-18 1.45807 -0.394342)
(-2.58143e-17 2.36899 0.0439828)
(1.59076e-18 2.2429 1.77017)
(2.63623e-16 -0.093543 1.28851)
(3.90933e-17 -0.716993 -0.576595)
(8.26229e-15 1.11883 6.49752)
(7.59195e-15 1.25867 6.46648)
(7.83207e-15 1.37304 6.41861)
(8.31086e-15 1.48365 6.35842)
(9.17012e-15 1.60744 6.2752)
(1.03335e-14 1.73181 6.17094)
(1.17352e-14 1.86243 6.04043)
(1.32626e-14 1.99331 5.88357)
(1.46973e-14 2.11924 5.70508)
(1.55917e-14 2.22581 5.52328)
(1.50904e-14 2.28926 5.38122)
(1.18637e-14 2.27576 5.35322)
(4.58679e-15 2.15625 5.52323)
(-6.72376e-15 1.9346 5.9129)
(-1.9595e-14 1.66401 6.4121)
(-3.03273e-14 1.41852 6.83158)
(-3.6801e-14 1.24631 7.05808)
(-3.93549e-14 1.15102 7.11776)
(-3.91409e-14 1.0613 7.04775)
(-3.61429e-14 0.758865 6.64496)
(-2.92852e-14 0.060348 5.56575)
(-2.22353e-14 -0.642196 4.58488)
(-1.91408e-14 -1.06095 4.36663)
(-1.79474e-14 -1.33687 4.3427)
(-1.7284e-14 -1.62177 4.31317)
(-1.64927e-14 -1.9241 4.2586)
(-1.54793e-14 -2.22963 4.18913)
(-1.43516e-14 -2.52878 4.11429)
(-1.31882e-14 -2.81426 4.03541)
(-1.20138e-14 -3.08288 3.95073)
(-1.08344e-14 -3.33155 3.86016)
(-9.65767e-15 -3.55766 3.76432)
(-8.49539e-15 -3.7596 3.66435)
(-7.35464e-15 -3.9369 3.56119)
(-6.23565e-15 -4.08903 3.45512)
(-5.13592e-15 -4.21637 3.3465)
(-4.04786e-15 -4.31961 3.23573)
(-2.95691e-15 -4.40017 3.12305)
(-1.83969e-15 -4.45895 3.00812)
(-6.66295e-16 -4.49602 2.89018)
(5.92291e-16 -4.51053 2.76876)
(1.95854e-15 -4.50163 2.64378)
(3.44315e-15 -4.46869 2.51544)
(5.03576e-15 -4.41221 2.38437)
(6.69894e-15 -4.33429 2.25122)
(8.36627e-15 -4.23865 2.11668)
(9.94796e-15 -4.12907 1.98066)
(1.1337e-14 -4.00713 1.84254)
(1.24232e-14 -3.87087 1.70113)
(1.31114e-14 -3.71414 1.55475)
(1.33356e-14 -3.53163 1.4028)
(1.3078e-14 -3.32533 1.24612)
(1.23782e-14 -3.09863 1.08457)
(1.13168e-14 -2.84341 0.915547)
(1.00026e-14 -2.54178 0.734619)
(8.55012e-15 -2.19796 0.540785)
(7.03428e-15 -1.83221 0.326313)
(5.4857e-15 -1.45744 0.0797558)
(3.94024e-15 -1.09126 -0.196832)
(2.52319e-15 -0.724716 -0.477607)
(1.47958e-15 -0.306201 -0.751166)
(1.04692e-15 0.00311928 -1.0137)
(8.07412e-16 0.143813 -1.23787)
(6.39154e-16 0.177877 -1.49776)
(4.96545e-16 0.132078 -1.74958)
(3.68508e-16 0.0233169 -1.92637)
(2.47718e-16 -0.10906 -1.99684)
(1.32801e-16 -0.207882 -1.98142)
(4.57435e-17 -0.258508 -1.91197)
(-5.09544e-18 -0.251665 -1.81447)
(-2.7956e-17 -0.182491 -1.71299)
(-3.57536e-17 -0.0279026 -1.64282)
(-3.30596e-17 0.339619 -1.48493)
(-2.02453e-17 0.857951 -1.06175)
(-7.6089e-18 1.34375 -0.45303)
(-5.39276e-17 2.14994 0.197132)
(-9.97329e-17 2.12186 1.91528)
(2.06496e-16 0.103971 1.43798)
(2.27199e-17 -0.45298 -0.222085)
(7.88597e-15 1.12006 6.4996)
(7.71381e-15 1.2649 6.44543)
(8.29774e-15 1.38401 6.39061)
(9.10428e-15 1.49863 6.31271)
(1.02457e-14 1.62766 6.21409)
(1.16244e-14 1.75716 6.09106)
(1.31641e-14 1.89334 5.94165)
(1.47215e-14 2.0289 5.76717)
(1.60039e-14 2.15654 5.57816)
(1.64018e-14 2.25739 5.40398)
(1.48017e-14 2.30167 5.30567)
(9.6791e-15 2.25226 5.37364)
(3.1844e-17 2.08853 5.68042)
(-1.29612e-14 1.83733 6.18725)
(-2.56251e-14 1.5718 6.71407)
(-3.4371e-14 1.36045 7.06748)
(-3.82579e-14 1.22622 7.18862)
(-3.85102e-14 1.15785 7.15038)
(-3.664e-14 1.10531 7.03243)
(-3.3371e-14 0.89421 6.71334)
(-2.84548e-14 0.2807 5.79829)
(-2.27031e-14 -0.505472 4.61579)
(-1.91806e-14 -1.02755 4.23207)
(-1.7309e-14 -1.33197 4.17996)
(-1.64512e-14 -1.6157 4.1717)
(-1.58201e-14 -1.91342 4.14921)
(-1.50054e-14 -2.21617 4.10466)
(-1.3996e-14 -2.51406 4.04777)
(-1.28924e-14 -2.79844 3.98406)
(-1.1757e-14 -3.06582 3.91299)
(-1.06112e-14 -3.31323 3.83422)
(-9.46422e-15 -3.53828 3.74817)
(-8.32665e-15 -3.73939 3.65605)
(-7.20564e-15 -3.916 3.55905)
(-6.10261e-15 -4.06751 3.45772)
(-5.01566e-15 -4.19434 3.35266)
(-3.93727e-15 -4.29713 3.24449)
(-2.85273e-15 -4.37724 3.13355)
(-1.73854e-15 -4.43547 3.01966)
(-5.65323e-16 -4.47187 2.90219)
(6.95114e-16 -4.48565 2.78082)
(2.06425e-15 -4.47605 2.65556)
(3.55138e-15 -4.44251 2.5267)
(5.14449e-15 -4.38554 2.39495)
(6.80456e-15 -4.30728 2.26101)
(8.4641e-15 -4.21135 2.12559)
(1.00327e-14 -4.10141 1.98863)
(1.14036e-14 -3.97894 1.8495)
(1.24679e-14 -3.84184 1.70698)
(1.31325e-14 -3.68403 1.55935)
(1.3334e-14 -3.50047 1.40606)
(1.30575e-14 -3.29318 1.24789)
(1.23446e-14 -3.06517 1.08443)
(1.12769e-14 -2.80785 0.912408)
(9.96334e-15 -2.50345 0.726549)
(8.5174e-15 -2.15584 0.524296)
(7.01418e-15 -1.78386 0.294742)
(5.4881e-15 -1.40168 0.0223992)
(3.98023e-15 -1.03128 -0.290218)
(2.61773e-15 -0.663827 -0.613519)
(1.64632e-15 -0.247988 -0.937805)
(1.26692e-15 0.051126 -1.25141)
(1.01985e-15 0.197154 -1.5167)
(8.12283e-16 0.230741 -1.79458)
(6.26245e-16 0.175116 -2.04491)
(4.64549e-16 0.0479614 -2.20986)
(3.22243e-16 -0.104471 -2.2619)