/*--------------------------------*- C++ -*----------------------------------*\
| =========                 |                                                 |
| \\      /  F ield         | OpenFOAM: The Open Source CFD Toolbox           |
|  \\    /   O peration     | Version:  4.1                                   |
|   \\  /    A nd           | Web:      www.OpenFOAM.org                      |
|    \\/     M anipulation  |                                                 |
\*---------------------------------------------------------------------------*/
FoamFile
{
    version     2.0;
    format      ascii;
    class       surfaceScalarField;
    location    "11";
    object      phi;
}
// * * * * * * * * * * * * * * * * * * * * * * * * * * * * * * * * * * * * * //

dimensions      [0 3 -1 0 0 0 0];

internalField   nonuniform List<scalar> 
13220
(
-1.09175e+56
1.09385e+56
-1.5521e+56
4.61614e+55
-6.2026e+55
-9.30565e+55
6.68287e+55
-1.28746e+56
1.78622e+56
-1.11676e+56
2.67551e+56
-8.88369e+55
3.37308e+56
-6.96591e+55
3.82144e+56
-4.47536e+55
3.58118e+56
2.4113e+55
3.24168e+56
3.40344e+55
2.8246e+56
4.18172e+55
2.26983e+56
5.5539e+55
1.61275e+56
6.58413e+55
8.78261e+55
7.36519e+55
8.78322e+55
-1.18837e+55
1.2145e+56
2.38905e+55
1.05221e+55
6.64251e+55
-1.35444e+56
6.84667e+55
-1.30676e+56
4.75524e+55
-9.06427e+55
5.47844e+54
-4.66715e+55
-5.45068e+55
-9.57025e+54
-1.26204e+56
2.70195e+55
-1.95017e+56
9.30265e+55
-2.39726e+56
7.88574e+55
-2.53636e+56
5.5826e+55
-2.35455e+56
3.75845e+55
-1.84112e+56
1.47505e+55
-1.07077e+56
-2.9635e+54
-1.92466e+55
-1.48359e+55
1.36546e+56
4.6776e+53
-4.59933e+54
-9.17166e+55
-4.30722e+55
-2.04544e+56
-1.7705e+55
-2.98246e+56
3.19299e+54
-3.71259e+56
2.64635e+55
-4.27919e+56
4.72237e+55
-4.58549e+56
5.77587e+55
-4.17184e+56
5.17954e+55
-3.60787e+56
2.25129e+55
-2.88349e+56
-1.64441e+55
-1.9173e+56
-5.92638e+55
-8.40485e+55
-9.30253e+55
7.50291e+54
-9.46241e+55
-1.17091e+55
-4.6558e+55
1.83505e+56
-1.6775e+56
1.16953e+56
-2.99067e+56
8.86613e+55
-3.93289e+56
7.68833e+55
-4.42937e+56
5.32573e+55
-4.37198e+56
2.10545e+55
-3.85061e+56
-4.54898e+54
-3.04112e+56
-2.291e+55
-2.29768e+56
-2.22392e+55
-1.98349e+56
-8.59588e+54
-1.75138e+56
-3.94573e+55
-1.3437e+56
-9.94993e+55
-8.67842e+55
-1.39893e+56
-3.30149e+55
-1.4623e+56
-4.46826e+55
5.13166e+55
1.32755e+56
9.8047e+54
1.58996e+56
-3.14738e+55
1.30668e+56
-5.94342e+55
1.05606e+56
-7.38939e+55
6.87094e+55
-6.75362e+55
1.56655e+55
-4.73136e+55
-2.38233e+55
-2.19227e+55
-4.75933e+55
1.02639e+55
-5.38309e+55
2.15668e+55
-1.9409e+55
-2.98676e+55
1.2422e+55
-9.96972e+55
-2.94447e+55
-1.26232e+56
-1.12672e+56
-1.09093e+56
-1.61717e+56
-1.53734e+56
8.62743e+55
4.74912e+55
1.73688e+56
7.23229e+55
2.58432e+56
4.68497e+55
3.45196e+56
1.97549e+55
4.16185e+56
-1.07862e+54
4.63238e+56
-3.0317e+55
4.60373e+56
-1.96657e+55
3.89268e+56
2.4563e+55
2.97249e+56
3.92601e+55
2.23806e+56
5.48073e+55
1.65834e+56
7.08402e+55
1.29527e+56
7.62753e+54
8.91359e+55
-7.13234e+55
3.5065e+55
-1.05816e+56
-1.18637e+56
3.30188e+55
1.77264e+55
1.43747e+56
-3.62341e+55
2.72726e+56
-7.97396e+55
3.80624e+56
-8.64207e+55
4.24032e+56
-4.25488e+55
3.98639e+56
-3.79015e+54
3.24319e+56
5.54238e+55
2.12533e+56
1.36856e+56
7.98913e+55
1.72456e+56
-1.69856e+55
1.52191e+56
-1.52972e+55
6.95506e+55
2.12707e+55
-2.82507e+55
2.63337e+55
-7.51053e+55
1.31381e+55
-9.03684e+55
-1.05487e+56
1.25611e+56
-8.75503e+55
1.94488e+56
-1.01725e+56
2.20753e+56
-1.04671e+56
2.07591e+56
-7.28778e+55
1.62661e+56
2.81833e+54
8.00914e+55
7.9057e+55
-3.38989e+53
1.36267e+56
-3.97084e+55
1.76528e+56
-4.31624e+55
1.76346e+56
-1.11518e+55
1.20448e+56
2.4176e+55
3.45389e+55
2.1663e+55
-2.54771e+55
9.96651e+54
-6.29644e+55
3.25991e+54
-8.2904e+55
-1.02176e+56
1.13304e+55
-8.71015e+55
-2.28483e+55
-6.56451e+55
-6.85971e+55
-5.78663e+55
-1.08428e+56
-3.23717e+55
-1.07223e+56
2.30125e+54
-7.11741e+55
4.35358e+55
-1.14376e+55
7.71318e+55
6.71536e+55
9.84781e+55
1.49889e+56
9.41654e+55
2.10285e+56
6.0843e+55
2.21655e+56
2.3735e+55
1.98718e+56
-7.55038e+53
1.50782e+56
-1.26602e+55
9.40261e+55
-2.28173e+55
-8.14486e+54
-9.55072e+54
6.93295e+54
-5.71503e+55
-5.98987e+54
-1.0252e+56
-5.36228e+54
-1.28311e+56
-3.72844e+54
-1.29773e+56
5.26536e+54
-1.03817e+56
1.88813e+55
-5.9547e+55
3.39519e+55
-8.1696e+54
4.80297e+55
3.09423e+55
5.59652e+55
3.45612e+55
5.7881e+55
5.47679e+54
5.35849e+55
-2.36052e+55
2.83927e+55
-2.18603e+55
-1.40568e+55
-9.62385e+54
-3.44663e+55
-1.76308e+55
-5.20043e+54
2.19008e+55
-2.36818e+55
2.20412e+55
-5.17641e+55
3.0804e+55
-8.40219e+55
3.63512e+55
-1.10661e+56
3.76272e+55
-1.26118e+56
3.84909e+55
-1.31331e+56
4.20222e+55
-1.29945e+56
4.87042e+55
-1.30968e+56
5.84221e+55
-1.41153e+56
7.0282e+55
-1.61761e+56
7.45184e+55
-1.6922e+56
4.52102e+55
-1.57783e+56
-1.20949e+55
-1.33885e+56
-4.19329e+55
-1.5173e+56
-4.77727e+55
7.47968e+55
-1.0155e+56
7.992e+55
-1.37236e+56
7.20438e+55
-1.46013e+56
4.87269e+55
-1.31803e+56
2.75191e+55
-1.03075e+56
1.13233e+55
-6.13041e+55
1.91745e+54
-1.2371e+55
-4.23523e+53
4.253e+55
4.48493e+54
9.52521e+55
1.50388e+55
1.44024e+56
2.67058e+55
1.49424e+56
3.07693e+55
9.78286e+55
3.05658e+55
2.62462e+55
1.87007e+55
-1.25348e+56
-1.07559e+56
1.81664e+56
-8.63356e+55
5.54272e+55
3.64784e+54
-2.01912e+55
1.35478e+56
-8.76966e+55
2.8394e+56
-1.24896e+56
4.30579e+56
-1.40018e+56
5.64636e+56
-1.36147e+56
6.78612e+56
-1.17975e+56
7.65475e+56
-8.62114e+55
8.23393e+56
-4.14829e+55
8.28993e+56
1.53043e+55
7.92375e+56
8.23759e+55
6.77391e+56
1.56022e+56
4.55715e+56
2.50358e+56
3.30084e+56
2.31518e+56
-5.87604e+55
6.13329e+56
-3.39643e+56
8.94827e+56
-3.09937e+56
1.09076e+57
-2.96839e+56
1.22881e+57
-2.72337e+56
1.32147e+57
-2.45261e+56
1.37853e+57
-2.03407e+56
1.40923e+57
-1.60572e+56
1.40904e+57
-9.58123e+55
1.38386e+57
-3.16771e+55
1.33538e+57
5.75022e+55
1.2272e+57
1.60173e+56
1.04652e+57
3.08413e+56
6.42984e+56
6.2963e+56
9.72711e+56
-1.75412e+57
-2.53282e+57
-3.14958e+57
-3.51851e+57
-3.87124e+57
-4.05727e+57
-4.23021e+57
-4.26506e+57
-4.20821e+57
-4.08225e+57
-3.76667e+57
-3.41618e+57
-2.83468e+57
-2.10635e+57
-1.13671e+55
-6.78738e+57
6.77143e+57
-6.79553e+57
-6.80459e+57
-6.80743e+57
-2.44951e+57
-4.35926e+57
-2.45031e+57
-2.45202e+57
-2.45192e+57
2.12278e+57
-4.57548e+57
2.12269e+57
2.12197e+57
6.98202e+57
-4.85983e+57
6.9814e+57
6.98144e+57
6.98081e+57
1.15746e+58
-4.59372e+57
1.15742e+58
1.15744e+58
1.57313e+58
-4.15747e+57
1.57314e+58
1.57308e+58
1.57309e+58
1.94352e+58
-3.70488e+57
1.94352e+58
1.94346e+58
1.94347e+58
2.26858e+58
-3.25159e+57
2.26857e+58
2.26852e+58
2.54491e+58
-2.76394e+57
2.54485e+58
2.54485e+58
2.54479e+58
2.78316e+58
-2.38371e+57
2.7831e+58
2.7831e+58
2.97996e+58
-1.96917e+57
2.97996e+58
2.9799e+58
2.97991e+58
3.14755e+58
-1.67707e+57
3.14756e+58
3.14748e+58
3.14752e+58
3.28906e+58
-1.41625e+57
3.28907e+58
3.28898e+58
3.40087e+58
-1.1185e+57
3.40077e+58
3.40079e+58
3.40069e+58
3.49452e+58
-9.37912e+56
3.4944e+58
3.49443e+58
3.49429e+58
3.57218e+58
-7.78542e+56
3.57204e+58
3.57209e+58
3.62948e+58
-5.75425e+56
3.62948e+58
3.62931e+58
3.62936e+58
3.67798e+58
-4.88083e+56
3.67795e+58
3.67776e+58
3.7117e+58
-3.38952e+56
3.71146e+58
3.71147e+58
3.71125e+58
3.74158e+58
-3.026e+56
3.74131e+58
3.74136e+58
3.74106e+58
3.7687e+58
-2.74892e+56
3.76837e+58
3.76874e+58
3.79491e+58
-2.6436e+56
3.79535e+58
3.79522e+58
3.77583e+58
3.73566e+58
3.70631e+58
3.63452e+58
5.24554e+56
3.62422e+58
3.62039e+58
3.61836e+58
3.61619e+58
3.61407e+58
3.61211e+58
3.61055e+58
3.60668e+58
3.54763e+58
5.40913e+56
3.54012e+58
3.53444e+58
3.53e+58
3.52564e+58
3.52189e+58
3.51852e+58
3.51581e+58
3.51233e+58
3.43555e+58
7.20051e+56
3.42885e+58
3.42357e+58
3.41929e+58
3.41554e+58
3.41214e+58
3.40916e+58
3.40651e+58
3.40447e+58
3.4018e+58
3.30942e+58
8.8644e+56
3.30432e+58
3.30058e+58
3.29772e+58
3.29543e+58
3.2934e+58
3.29179e+58
3.29063e+58
3.28899e+58
3.18203e+58
1.04331e+57
3.1781e+58
3.17546e+58
3.17392e+58
3.17281e+58
3.17223e+58
3.17188e+58
3.1721e+58
3.17194e+58
3.05309e+58
1.17623e+57
3.05046e+58
3.04904e+58
3.04858e+58
3.0489e+58
3.04999e+58
3.05139e+58
3.05339e+58
3.05476e+58
2.92657e+58
1.28652e+57
2.92579e+58
2.92651e+58
2.9282e+58
2.93045e+58
2.93336e+58
2.93811e+58
2.94398e+58
2.95055e+58
2.95654e+58
2.82743e+58
1.33571e+57
2.83045e+58
2.83587e+58
2.84318e+58
2.85157e+58
2.86222e+58
2.87942e+58
2.91259e+58
2.94746e+58
2.87079e+58
1.06906e+57
2.89757e+58
2.93238e+58
2.93221e+58
2.84409e+58
8.82711e+56
2.73574e+58
1.08001e+57
2.73573e+58
2.63984e+58
9.55376e+56
2.63979e+58
2.55728e+58
8.21545e+56
2.45806e+58
9.91359e+56
2.45777e+58
2.38e+58
7.75795e+56
2.32759e+58
5.21234e+56
2.32746e+58
2.30054e+58
2.66983e+56
2.30041e+58
2.28243e+58
1.77601e+56
2.23568e+58
4.6627e+56
2.23551e+58
2.19253e+58
4.28546e+56
2.19238e+58
2.16833e+58
2.38903e+56
2.15046e+58
1.77435e+56
2.15035e+58
2.20573e+58
-5.55078e+56
2.37252e+58
-1.66903e+57
2.37243e+58
2.74746e+58
-3.75138e+57
2.74739e+58
3.34401e+58
-5.96738e+57
3.82856e+58
-4.84581e+57
3.82847e+58
4.17523e+58
-3.46773e+57
4.17515e+58
4.39271e+58
-2.17576e+57
4.52337e+58
-1.3075e+57
4.52339e+58
4.50819e+58
1.51093e+56
4.40439e+58
1.0384e+57
4.40433e+58
4.15225e+58
2.52133e+57
4.15218e+58
3.74108e+58
4.11151e+57
3.21597e+58
5.25024e+57
3.21601e+58
2.49562e+58
7.2034e+57
2.49568e+58
1.59371e+58
9.01945e+57
5.8258e+57
1.0113e+58
5.82587e+57
-5.64701e+57
1.14746e+58
-2.06159e+58
1.49684e+58
-2.06147e+58
-3.81636e+58
1.75485e+58
-3.81626e+58
-5.88497e+58
2.06871e+58
-8.12555e+58
2.24067e+58
-8.12555e+58
-1.06052e+59
2.47971e+58
-1.06052e+59
-1.33748e+59
2.76974e+58
-1.61591e+59
2.78421e+58
-1.6159e+59
-1.92689e+59
3.10994e+58
-2.22976e+59
3.02876e+58
-2.22976e+59
-2.55681e+59
3.27055e+58
-2.55681e+59
-2.91082e+59
3.54011e+58
-3.24186e+59
3.31039e+58
-3.24185e+59
-3.60005e+59
3.58195e+58
-3.60004e+59
-3.9896e+59
3.89561e+58
-4.34346e+59
3.53858e+58
-4.34346e+59
-4.74614e+59
4.02688e+58
-5.10305e+59
3.56909e+58
-5.10305e+59
-5.50258e+59
3.9953e+58
-5.50258e+59
4.9912e+58
-4.02332e+56
2.9539e+56
-3.73187e+56
1.22391e+57
-3.21354e+56
2.47626e+57
-3.92165e+56
7.48133e+56
-3.51115e+56
1.01976e+57
-3.33423e+56
1.27731e+57
-3.53296e+56
1.58103e+57
-2.95021e+56
5.54332e+56
-2.5429e+56
1.80767e+57
-2.91459e+56
4.91218e+56
-1.929e+56
8.30273e+56
-1.42536e+56
2.37894e+57
-1.94265e+56
9.21807e+56
-2.42367e+56
-1.81488e+57
-7.29478e+55
-8.0037e+56
-1.52668e+56
-3.21836e+57
-4.09256e+56
-5.95236e+57
-2.04748e+56
-2.90348e+57
-1.95917e+56
-2.73943e+57
-1.54181e+56
3.7294e+56
-1.55672e+56
-4.22039e+56
-1.60172e+56
-1.80336e+57
-1.10694e+56
1.56245e+57
-2.04025e+56
-2.89232e+57
-2.19686e+56
-1.00356e+57
1.05686e+55
3.95606e+56
-1.80327e+56
1.88522e+57
2.3297e+55
2.2835e+57
-1.98883e+56
1.84546e+57
1.42912e+56
3.77734e+57
1.29127e+56
-4.24365e+55
3.85335e+55
1.83226e+57
-6.88335e+55
7.35083e+56
-4.50051e+55
1.91114e+57
-2.91674e+55
8.51051e+56
3.73134e+55
-1.6653e+57
1.28756e+56
3.20774e+56
1.90051e+56
-5.45244e+56
-1.69494e+55
-1.96329e+57
4.61304e+55
7.88659e+56
-2.73802e+55
-5.3028e+56
-3.42072e+55
-4.56532e+56
-6.05383e+55
-5.69679e+56
-7.19388e+55
6.05713e+56
-7.64109e+55
1.67749e+57
-8.93773e+55
9.26569e+56
-8.33098e+55
2.37729e+57
-9.4889e+55
1.8614e+57
-3.01113e+55
1.53806e+57
4.01948e+55
1.40896e+57
2.27775e+55
1.4279e+56
1.13895e+55
-1.08931e+56
3.89304e+55
-2.49259e+55
4.79289e+55
3.98243e+56
1.30448e+55
-6.74844e+54
9.27514e+54
8.46615e+56
8.13398e+54
1.23581e+57
7.41885e+54
1.44754e+57
7.45369e+54
1.55796e+57
8.38851e+54
1.6264e+57
1.01799e+55
1.69633e+57
1.24749e+55
1.78337e+57
1.48707e+55
1.89429e+57
1.72954e+55
2.04169e+57
2.00454e+55
2.24984e+57
2.36686e+55
2.54617e+57
2.86154e+55
2.96038e+57
3.51601e+55
3.5208e+57
4.32229e+55
4.25957e+57
5.27332e+55
5.22067e+57
6.13769e+55
6.4352e+57
6.52318e+55
7.98939e+57
3.41643e+55
9.6721e+57
-1.21734e+56
1.13718e+58
-9.0862e+56
8.6084e+57
-3.86116e+57
2.50324e+58
-1.25931e+58
9.16288e+58
-3.09579e+58
2.44738e+59
4.94059e+59
-3.84305e+56
2.90709e+56
-3.14929e+56
1.15453e+57
-1.47738e+56
2.30907e+57
-2.94858e+56
8.95253e+56
-3.23495e+56
1.0484e+57
-3.19281e+56
1.2731e+57
-1.50227e+56
1.41197e+57
-3.92729e+56
7.96834e+56
-3.77181e+56
1.79212e+57
-3.5467e+56
4.68706e+56
-3.92427e+56
8.6803e+56
-2.24264e+56
2.21077e+57
-1.19236e+56
8.1678e+56
-2.52696e+56
-1.68142e+57
-2.4962e+54
-1.05057e+57
-1.03306e+56
-3.11755e+57
-4.98286e+56
-5.55738e+57
-2.51201e+56
-3.15057e+57
-3.96673e+56
-2.59396e+57
-1.62728e+56
1.38994e+56
-1.16725e+56
-4.68042e+56
-2.57268e+56
-1.66282e+57
-2.94242e+55
1.33461e+57
-1.68998e+56
-2.75275e+57
-1.87707e+56
-9.84847e+56
1.94573e+56
1.33267e+55
-2.94524e+56
2.37432e+57
2.56527e+55
1.96332e+57
-2.00502e+56
2.07161e+57
1.45926e+56
3.43091e+57
1.1206e+56
-8.57125e+54
1.8145e+55
1.92618e+57
-1.13605e+56
8.66833e+56
-2.65563e+55
1.82409e+57
5.19088e+55
7.72584e+56
-1.86564e+56
-1.42683e+57
5.2415e+55
8.17862e+55
2.47185e+56
-7.40023e+56
-2.25401e+55
-1.69357e+57
5.90732e+55
7.07044e+56
-2.31199e+55
-4.48096e+56
-1.67549e+55
-4.62911e+56
-6.64664e+55
-5.19986e+56
-8.04197e+55
6.19645e+56
-9.79088e+55
1.69491e+57
-2.14672e+56
1.0433e+57
-1.19159e+56
2.28166e+57
-7.66972e+55
1.81882e+57
-2.72992e+55
1.48843e+57
4.79268e+55
1.33347e+57
5.71993e+55
1.32746e+56
8.91033e+55
-1.41944e+56
1.49163e+56
-8.63288e+55
1.85284e+56
3.60991e+56
6.45214e+55
1.11713e+56
5.61303e+55
8.54188e+56
3.10427e+55
1.26027e+57
9.75425e+54
1.46838e+57
-1.31788e+54
1.56857e+57
-2.91729e+54
1.62766e+57
1.3817e+54
1.69168e+57
8.21771e+54
1.77627e+57
1.52337e+55
1.88702e+57
2.16379e+55
2.03511e+57
2.77154e+55
2.24355e+57
3.45743e+55
2.53918e+57
4.3154e+55
2.95163e+57
5.41526e+55
3.50972e+57
6.78534e+55
4.24573e+57
8.36223e+55
5.20485e+57
1.00138e+56
6.41858e+57
1.05932e+56
7.98359e+57
7.04365e+55
9.70751e+57
-1.55358e+56
1.15977e+58
-8.54731e+56
9.30768e+57
-3.53947e+57
2.77172e+58
-1.26838e+58
1.00773e+59
-3.1292e+58
2.63347e+59
5.02721e+59
-3.54278e+56
2.85437e+56
-2.966e+56
1.09686e+57
-1.61181e+56
2.17365e+57
-2.80751e+56
1.01482e+57
-3.14073e+56
1.08172e+57
-3.09944e+56
1.26897e+57
-2.11391e+56
1.31342e+57
-3.83661e+56
9.69105e+56
-3.3577e+56
1.74423e+57
-3.3007e+56
4.63006e+56
-3.82013e+56
9.19972e+56
-2.35896e+56
2.06466e+57
-1.29272e+56
7.10156e+56
-2.17731e+56
-1.59296e+57
-3.7203e+55
-1.2311e+57
-4.77176e+55
-3.10704e+57
-4.19184e+56
-5.18591e+57
-2.67032e+56
-3.30272e+57
-3.89556e+56
-2.47143e+57
-1.87175e+56
-6.33866e+55
-1.51546e+56
-5.0367e+56
-2.35436e+56
-1.57893e+57
-3.19458e+55
1.13112e+57
-1.37068e+56
-2.64763e+57
-1.68048e+56
-9.53866e+56
1.70445e+56
-3.25166e+56
-2.49656e+56
2.79443e+57
-2.70213e+55
1.74069e+57
-1.58894e+56
2.20348e+57
1.3848e+56
3.13354e+57
9.09294e+55
3.898e+55
-9.35579e+54
2.02647e+57
-1.25535e+56
9.83012e+56
-2.03894e+55
1.71894e+57
5.92272e+55
6.92969e+56
-1.18073e+56
-1.24951e+57
2.56082e+55
-6.18964e+55
2.08708e+56
-9.23125e+56
1.60061e+55
-1.50083e+57
4.58393e+55
6.77213e+56
-3.12109e+55
-3.71028e+56
-1.63076e+55
-4.77795e+56
-6.88312e+55
-4.67441e+56
-9.38907e+55
6.44747e+56
-1.16078e+56
1.71735e+57
-2.22443e+56
1.14968e+57
-1.27021e+56
2.18621e+57
-7.0087e+55
1.76193e+57
-2.57731e+55
1.4441e+57
3.87002e+55
1.26901e+57
4.34499e+55
1.28061e+56
9.1304e+55
-1.89654e+56
1.61802e+56
-1.56837e+56
2.0654e+56
3.16118e+56
9.24441e+55
2.26618e+56
7.22835e+55
8.74462e+56
4.16472e+55
1.29095e+57
1.57208e+55
1.49449e+57
1.27718e+54
1.58317e+57
-2.34101e+54
1.63154e+57
1.20014e+54
1.68837e+57
8.23885e+54
1.76955e+57
1.60883e+55
1.87947e+57
2.37232e+55
2.02784e+57
3.13075e+55
2.23629e+57
3.99354e+55
2.53092e+57
5.0614e+55
2.94126e+57
6.41528e+55
3.49654e+57
8.09359e+55
4.22923e+57
1.00362e+56
5.18578e+57
1.20827e+56
6.3984e+57
1.29438e+56
7.97536e+57
9.74569e+55
9.73979e+57
-1.09593e+56
1.18051e+58
-6.81437e+56
9.8801e+57
-3.45078e+57
3.04868e+58
-1.35532e+58
1.10876e+59
-3.19646e+58
2.81758e+59
5.06447e+59
-3.32018e+56
2.77803e+56
-2.78099e+56
1.04294e+57
-1.63667e+56
2.05922e+57
-2.67054e+56
1.11821e+57
-3.03854e+56
1.11852e+57
-3.02404e+56
1.26752e+57
-2.52745e+56
1.26376e+57
-3.72303e+56
1.08866e+57
-3.16608e+56
1.68854e+57
-3.33326e+56
4.79724e+56
-3.74358e+56
9.61003e+56
-2.33467e+56
1.92377e+57
-1.3197e+56
6.08659e+56
-2.05922e+56
-1.51901e+57
-8.54472e+55
-1.35157e+57
-7.93951e+54
-3.18454e+57
-3.60931e+56
-4.83292e+57
-2.78544e+56
-3.38511e+57
-3.82609e+56
-2.36737e+57
-2.10169e+56
-2.35827e+56
-1.79874e+56
-5.33964e+56
-2.09604e+56
-1.5492e+57
-3.2158e+55
9.53675e+56
-1.12768e+56
-2.56702e+57
-1.65462e+56
-9.01172e+56
9.92734e+55
-5.89902e+56
-1.85127e+56
3.07883e+57
-7.20385e+55
1.6276e+57
-1.21506e+56
2.25295e+57
1.29927e+56
2.8821e+57
6.82204e+55
1.00687e+56
-4.05214e+55
2.13521e+57
-1.48354e+56
1.09085e+57
-3.57727e+55
1.60636e+57
4.98116e+55
6.07386e+56
-7.75779e+55
-1.12212e+57
1.92741e+55
-1.5875e+56
1.93955e+56
-1.0978e+57
3.79663e+55
-1.34484e+57
4.01124e+55
6.75069e+56
-3.90225e+55
-2.91901e+56
-2.56809e+55
-4.91147e+56
-7.48547e+55
-4.18284e+56
-1.10526e+56
6.80405e+56
-1.36964e+56
1.74378e+57
-2.27765e+56
1.24049e+57
-1.36753e+56
2.09512e+57
-6.57697e+55
1.69095e+57
-2.21786e+55
1.40046e+57
3.87362e+55
1.20808e+57
3.89938e+55
1.27678e+56
1.00081e+56
-2.50902e+56
1.74251e+56
-2.31297e+56
2.22612e+56
2.67489e+56
1.12425e+56
3.36359e+56
8.2458e+55
9.04321e+56
4.74938e+55
1.32587e+57
1.87273e+55
1.52339e+57
2.65979e+54
1.59939e+57
-1.7218e+54
1.63621e+57
1.71088e+54
1.68525e+57
9.10137e+54
1.76259e+57
1.76143e+55
1.8714e+57
2.61582e+55
2.01983e+57
3.49042e+55
2.22802e+57
4.49932e+55
2.52136e+57
5.75078e+55
2.92921e+57
7.33422e+55
3.48121e+57
9.29898e+55
4.21001e+57
1.15912e+56
5.16334e+57
1.40591e+56
6.37412e+57
1.5405e+56
7.96241e+57
1.32953e+56
9.76132e+57
-3.41987e+55
1.19729e+58
-4.87583e+56
1.03342e+58
-3.59796e+57
3.35975e+58
-1.4944e+58
1.22222e+59
-3.36412e+58
3.00456e+59
5.13075e+59
-3.17075e+56
2.69086e+56
-2.67911e+56
9.93774e+56
-1.6908e+56
1.96039e+57
-2.5913e+56
1.20826e+57
-2.95514e+56
1.15491e+57
-2.95761e+56
1.26776e+57
-2.80534e+56
1.24853e+57
-3.70857e+56
1.17899e+57
-3.05873e+56
1.62355e+57
-3.39985e+56
5.13836e+56
-3.68729e+56
9.89747e+56
-2.29689e+56
1.78473e+57
-1.33789e+56
5.12758e+56
-1.98119e+56
-1.45468e+57
-1.23463e+56
-1.42623e+57
2.22671e+55
-3.33027e+57
-3.3961e+56
-4.47104e+57
-3.0006e+56
-3.42466e+57
-3.84229e+56
-2.2832e+57
-2.32062e+56
-3.87994e+56
-1.82306e+56
-5.8372e+56
-1.69278e+56
-1.56222e+57
-2.17955e+55
8.06193e+56
-8.8524e+55
-2.50029e+57
-1.64002e+56
-8.25693e+56
-1.40963e+56
-6.1294e+56
-1.35833e+56
3.0737e+57
-1.01973e+56
1.59374e+57
-9.46283e+55
2.24561e+57
1.12528e+56
2.67495e+57
4.57426e+55
1.67474e+56
-7.19712e+55
2.25293e+57
-1.68336e+56
1.18721e+57
-5.08862e+55
1.48892e+57
3.75964e+55
5.18905e+56
-6.28276e+55
-1.02167e+57
1.33595e+55
-2.34936e+56
1.90574e+56
-1.27502e+57
5.3596e+55
-1.20782e+57
4.45717e+55
6.84097e+56
-2.7526e+55
-2.19783e+56
-2.7882e+55
-4.90771e+56
-7.68816e+55
-3.6926e+56
-1.28338e+56
7.3191e+56
-1.59559e+56
1.77527e+57
-2.3404e+56
1.31499e+57
-1.45183e+56
2.00627e+57
-6.41397e+55
1.61e+57
-2.13871e+55
1.35776e+57
3.96092e+55
1.1472e+57
3.81964e+55
1.29404e+56
1.14781e+56
-3.26944e+56
1.91464e+56
-3.07541e+56
2.44191e+56
2.15022e+56
1.33768e+56
4.48083e+56
9.27877e+55
9.45675e+56
5.2236e+55
1.36666e+57
2.04255e+55
1.55556e+57
2.98385e+54
1.61716e+57
-1.76128e+54
1.64139e+57
1.93378e+54
1.68198e+57
9.93919e+54
1.75509e+57
1.92514e+55
1.86257e+57
2.87365e+55
2.01088e+57
3.86185e+55
2.21863e+57
5.01295e+55
2.51038e+57
6.44568e+55
2.91536e+57
8.25919e+55
3.46359e+57
1.05165e+56
4.18786e+57
1.31765e+56
5.13723e+57
1.61281e+56
6.34502e+57
1.81789e+56
7.94241e+57
1.75718e+56
9.76782e+57
5.54292e+55
1.20937e+58
-3.06414e+56
1.06967e+58
-4.05875e+57
3.73502e+58
-1.68706e+58
1.35034e+59
-3.53845e+58
3.1897e+59
5.13076e+59
-3.08344e+56
2.60434e+56
-2.66707e+56
9.52137e+56
-1.81477e+56
1.87516e+57
-2.56633e+56
1.28341e+57
-2.89647e+56
1.18792e+57
-2.92586e+56
1.2707e+57
-3.02697e+56
1.25864e+57
-3.72972e+56
1.24926e+57
-3.02456e+56
1.55304e+57
-3.47897e+56
5.59277e+56
-3.65698e+56
1.00755e+57
-2.28838e+56
1.64787e+57
-1.39908e+56
4.23828e+56
-1.92867e+56
-1.40172e+57
-1.40755e+56
-1.47834e+57
2.1965e+55
-3.49299e+57
-3.42422e+56
-4.10665e+57
-3.27544e+56
-3.43954e+57
-3.9289e+56
-2.21785e+57
-2.51498e+56
-5.29385e+56
-1.45789e+56
-6.89429e+56
-1.15158e+56
-1.59285e+57
2.43738e+54
6.88598e+56
-7.6663e+55
-2.42119e+57
-1.60973e+56
-7.41383e+56
-2.37839e+56
-5.36075e+56
-1.0153e+56
2.93739e+57
-1.1643e+56
1.60864e+57
-7.44462e+55
2.20362e+57
9.32304e+55
2.50727e+57
1.77876e+55
2.42917e+56
-1.04217e+56
2.37493e+57
-1.88113e+56
1.27111e+57
-6.33268e+55
1.36413e+57
2.86718e+55
4.26909e+56
-4.72402e+55
-9.45756e+56
1.27936e+55
-2.94968e+56
1.95271e+56
-1.45748e+57
6.68558e+55
-1.07939e+57
5.39405e+55
6.97018e+56
1.74042e+55
-1.83251e+56
-9.928e+54
-4.63448e+56
-8.07038e+55
-2.98499e+56
-1.47469e+56
7.9867e+56
-1.80878e+56
1.80871e+57
-2.40411e+56
1.37453e+57
-1.53463e+56
1.91927e+57
-6.34693e+55
1.52005e+57
-2.06677e+55
1.31498e+57
4.10329e+55
1.08558e+57
3.65284e+55
1.34027e+56
1.32633e+56
-4.22742e+56
2.12619e+56
-3.87274e+56
2.71126e+56
1.56684e+56
1.56046e+56
5.63479e+56
1.03607e+56
9.98266e+56
5.64498e+55
1.41399e+57
2.142e+55
1.59092e+57
2.71748e+54
1.63622e+57
-2.20362e+54
1.6468e+57
1.93863e+54
1.67836e+57
1.0704e+55
1.74696e+57
2.09052e+55
1.85304e+57
3.13728e+55
2.00116e+57
4.24091e+55
2.20829e+57
5.53614e+55
2.49817e+57
7.15409e+55
2.89984e+57
9.20479e+55
3.44377e+57
1.17675e+56
4.16283e+57
1.48218e+56
5.10733e+57
1.83191e+56
6.31062e+57
2.12688e+56
7.91357e+57
2.23671e+56
9.75744e+57
1.50921e+56
1.21671e+58
-1.68736e+56
1.10172e+58
-4.844e+57
4.20258e+58
-1.90709e+58
1.49261e+59
-3.7278e+58
3.37177e+59
5.14755e+59
-3.05158e+56
2.53052e+56
-2.71324e+56
9.18302e+56
-1.97921e+56
1.80175e+57
-2.59469e+56
1.34496e+57
-2.8827e+56
1.21672e+57
-2.93587e+56
1.27602e+57
-3.18806e+56
1.28386e+57
-3.74205e+56
1.30466e+57
-3.0459e+56
1.48342e+57
-3.56278e+56
6.10965e+56
-3.63535e+56
1.0148e+57
-2.28258e+56
1.51259e+57
-1.4747e+56
3.43041e+56
-1.9032e+56
-1.35887e+57
-1.33622e+56
-1.53504e+57
-2.59483e+55
-3.60067e+57
-3.50074e+56
-3.78253e+57
-3.57605e+56
-3.43201e+57
-4.05629e+56
-2.16983e+57
-2.67842e+56
-6.67172e+56
-7.1374e+55
-8.85896e+56
-5.26348e+55
-1.61159e+57
5.65759e+55
5.79389e+56
-7.18634e+55
-2.29275e+57
-1.61173e+56
-6.52073e+56
-2.69764e+56
-4.27484e+56
-1.14543e+56
2.78217e+57
-1.2836e+56
1.62246e+57
-6.02553e+55
2.13552e+57
7.09692e+55
2.37605e+57
-2.45206e+55
3.38408e+56
-1.3817e+56
2.48859e+57
-2.0521e+56
1.33815e+57
-7.80034e+55
1.23693e+57
1.28716e+55
3.36037e+56
-3.45967e+55
-8.98274e+56
2.19403e+55
-3.51504e+56
2.00797e+56
-1.63634e+57
7.87549e+55
-9.57313e+56
6.15756e+55
7.14204e+56
4.51468e+55
-1.66804e+56
-3.47844e+54
-4.14803e+56
-8.91135e+55
-2.1284e+56
-1.69033e+56
8.78638e+56
-2.01834e+56
1.84177e+57
-2.48009e+56
1.42072e+57
-1.61879e+56
1.83316e+57
-6.4394e+55
1.42268e+57
-1.99284e+55
1.27058e+57
4.52857e+55
1.02051e+57
4.18103e+55
1.37855e+56
1.6508e+56
-5.45301e+56
2.42254e+56
-4.63834e+56
3.05064e+56
9.4297e+55
1.78841e+56
6.90979e+56
1.14485e+56
1.06301e+57
5.9961e+55
1.46875e+57
2.16662e+55
1.62954e+57
1.90575e+54
1.65628e+57
-2.96675e+54
1.65208e+57
1.81098e+54
1.67397e+57
1.14676e+55
1.73776e+57
2.26257e+55
1.84231e+57
3.40974e+55
1.99018e+57
4.62929e+55
2.19653e+57
6.07007e+55
2.48424e+57
7.87717e+55
2.88219e+57
1.01726e+56
3.42128e+57
1.30537e+56
4.13441e+57
1.6529e+56
5.07302e+57
2.06232e+56
6.27006e+57
2.4628e+56
7.87399e+57
2.74895e+56
9.72922e+57
2.52956e+56
1.21895e+58
-1.06452e+56
1.13772e+58
-5.95907e+57
4.78786e+58
-2.15227e+58
1.64825e+59
-3.92284e+58
3.54883e+59
5.11346e+59
-3.06168e+56
2.47656e+56
-2.79413e+56
8.91547e+56
-2.16311e+56
1.73865e+57
-2.66764e+56
1.39542e+57
-2.92129e+56
1.24209e+57
-2.997e+56
1.28359e+57
-3.29352e+56
1.31352e+57
-3.72926e+56
1.34823e+57
-3.09489e+56
1.41999e+57
-3.62752e+56
6.64228e+56
-3.61822e+56
1.01387e+57
-2.31928e+56
1.3827e+57
-1.58065e+56
2.69178e+56
-1.9054e+56
-1.3264e+57
-1.32614e+56
-1.59296e+57
-1.1698e+56
-3.6163e+57
-3.60155e+56
-3.53935e+57
-3.90385e+56
-3.40177e+57
-4.23163e+56
-2.13705e+57
-2.91562e+56
-7.98774e+56
-7.49419e+55
-1.10252e+57
-4.57657e+55
-1.64077e+57
1.94051e+56
3.39573e+56
-7.72053e+55
-2.02149e+57
-1.6479e+56
-5.64488e+56
-2.83703e+56
-3.0857e+56
-1.46554e+56
2.64502e+57
-1.40478e+56
1.61639e+57
-5.08558e+55
2.0459e+57
4.44822e+55
2.28071e+57
-8.54667e+55
4.68357e+56
-1.74364e+56
2.57749e+57
-2.20125e+56
1.38391e+57
-9.55676e+55
1.11237e+57
-9.31675e+54
2.49789e+56
-2.61679e+55
-8.81418e+56
4.85775e+55
-4.26247e+56
2.08197e+56
-1.79595e+57
9.30714e+55
-8.42171e+56
7.39791e+55
7.33306e+56
6.10453e+55
-1.53873e+56
-3.85569e+54
-3.49908e+56
-1.00503e+56
-1.16204e+56
-1.9229e+56
9.70428e+56
-2.2191e+56
1.87144e+57
-2.5652e+56
1.45533e+57
-1.70299e+56
1.74691e+57
-6.68331e+55
1.31929e+57
-1.93197e+55
1.22311e+57
5.68691e+55
9.44446e+56
6.50996e+55
1.29874e+56
2.18179e+56
-6.97732e+56
2.82387e+56
-5.27435e+56
3.50276e+56
2.68607e+55
2.02149e+56
8.39736e+56
1.24947e+56
1.14043e+57
6.25412e+55
1.53138e+57
2.10282e+55
1.67143e+57
4.73944e+53
1.67723e+57
-4.09041e+54
1.65717e+57
1.53532e+54
1.66891e+57
1.22295e+55
1.72775e+57
2.4418e+55
1.83084e+57
3.69136e+55
1.97847e+57
5.0268e+55
2.18391e+57
6.61406e+55
2.46914e+57
8.61386e+55
2.86289e+57
1.11612e+56
3.39653e+57
1.43726e+56
4.10293e+57
1.82937e+56
5.0345e+57
2.30212e+56
6.22339e+57
2.82065e+56
7.82284e+57
3.27357e+56
9.68456e+57
3.71859e+56
1.21457e+58
-1.58386e+56
1.19082e+58
-7.41459e+57
5.51351e+58
-2.4162e+58
1.81572e+59
-4.06636e+58
3.71385e+59
5.03786e+59
-3.10197e+56
2.44421e+56
-2.89772e+56
8.71122e+56
-2.35836e+56
1.68471e+57
-2.7758e+56
1.43716e+57
-3.00154e+56
1.26466e+57
-3.09427e+56
1.29287e+57
-3.37958e+56
1.34205e+57
-3.71433e+56
1.38171e+57
-3.16372e+56
1.36492e+57
-3.67643e+56
7.15498e+56
-3.60207e+56
1.00644e+57
-2.37493e+56
1.25998e+57
-1.69958e+56
2.01643e+56
-1.95203e+56
-1.30115e+57
-1.51307e+56
-1.63686e+57
-2.0131e+56
-3.5663e+57
-3.74176e+56
-3.36648e+57
-4.24966e+56
-3.35098e+57
-4.42776e+56
-2.11924e+57
-3.14952e+56
-9.26597e+56
-1.29104e+56
-1.28836e+57
-1.62963e+56
-1.60691e+57
1.22378e+56
5.42336e+55
-1.01194e+56
-1.79792e+57
-1.72442e+56
-4.9324e+56
-2.90994e+56
-1.90017e+56
-1.81554e+56
2.53558e+57
-1.54376e+56
1.58921e+57
-4.51642e+55
1.93669e+57
1.38163e+55
2.22173e+57
-1.76628e+56
6.58803e+56
-2.2309e+56
2.62395e+57
-2.37142e+56
1.39796e+57
-1.13246e+56
9.88476e+56
-2.73083e+55
1.63854e+56
-1.98277e+55
-8.88887e+56
1.05485e+56
-5.51558e+56
2.21305e+56
-1.91177e+57
1.19565e+56
-7.404e+56
1.0685e+56
7.46035e+56
6.89713e+55
-1.15979e+56
-9.12315e+54
-2.71792e+56
-1.14447e+56
-1.0856e+55
-2.16795e+56
1.07282e+57
-2.40257e+56
1.89516e+57
-2.65827e+56
1.48091e+57
-1.78855e+56
1.65997e+57
-7.02834e+55
1.21083e+57
-1.94389e+55
1.17233e+57
6.459e+55
8.60567e+56
1.00702e+56
9.40971e+55
2.88986e+56
-8.85017e+56
3.3734e+56
-5.75054e+56
4.18487e+56
-5.36913e+55
2.25919e+56
1.03355e+57
1.34336e+56
1.23236e+57
6.39649e+55
1.60195e+57
1.94005e+55
1.71627e+57
-1.63332e+54
1.69851e+57
-5.60536e+54
1.66148e+57
1.09707e+54
1.66252e+57
1.29857e+55
1.71624e+57
2.62797e+55
1.8179e+57
3.9815e+55
1.96534e+57
5.43232e+55
2.16976e+57
7.1666e+55
2.4522e+57
9.36231e+55
2.84128e+57
1.21682e+56
3.36886e+57
1.57207e+56
4.06773e+57
2.01093e+56
4.99099e+57
2.54911e+56
6.16989e+57
3.19622e+56
7.75854e+57
3.7869e+56
9.62584e+57
5.21961e+56
1.20029e+58
-3.7251e+56
1.28031e+58
-9.18344e+57
6.39461e+58
-2.68333e+58
1.99222e+59
-4.20774e+58
3.86629e+59
4.9711e+59
-3.16398e+56
2.43035e+56
-3.01228e+56
8.55952e+56
-2.55485e+56
1.63897e+57
-2.90652e+56
1.47233e+57
-3.10994e+56
1.28501e+57
-3.20946e+56
1.30282e+57
-3.46031e+56
1.36713e+57
-3.70842e+56
1.40652e+57
-3.24895e+56
1.31898e+57
-3.71839e+56
7.62442e+56
-3.58618e+56
9.93218e+56
-2.41682e+56
1.14305e+57
-1.80054e+56
1.40015e+56
-2.05494e+56
-1.27571e+57
-1.75303e+56
-1.66705e+57
-2.58942e+56
-3.48266e+57
-3.90076e+56
-3.23535e+57
-4.5656e+56
-3.2845e+57
-4.577e+56
-2.1181e+57
-3.2364e+56
-1.06066e+57
-1.54213e+56
-1.45779e+57
-1.97274e+56
-1.56385e+57
-3.50824e+54
-1.39532e+56
-1.32884e+56
-1.66854e+57
-1.84271e+56
-4.41852e+56
-2.95822e+56
-7.8467e+55
-2.11073e+56
2.45084e+57
-1.70142e+56
1.54828e+57
-4.37562e+55
1.8103e+57
-2.09206e+55
2.1989e+57
-3.24323e+56
9.62206e+56
-3.02228e+56
2.60186e+57
-2.55217e+56
1.35095e+57
-1.32123e+56
8.65382e+56
-4.05119e+55
7.2246e+55
-1.68153e+55
-9.12578e+56
1.57447e+56
-7.25817e+56
1.97308e+56
-1.95162e+57
1.95695e+56
-7.38768e+56
2.2017e+56
7.21583e+56
7.12081e+55
3.29788e+55
-1.81354e+55
-1.82452e+56
-1.31803e+56
1.02805e+56
-2.42491e+56
1.18352e+57
-2.55772e+56
1.9085e+57
-2.75649e+56
1.50077e+57
-1.87598e+56
1.57189e+57
-7.47047e+55
1.09803e+57
-2.12436e+55
1.11893e+57
6.13216e+55
7.78152e+56
1.7224e+56
-1.65001e+55
3.91527e+56
-1.10305e+57
3.67511e+56
-5.50044e+56
4.48763e+56
-1.34325e+56
2.34911e+56
1.24825e+57
1.39027e+56
1.32847e+57
6.36975e+55
1.67753e+57
1.66676e+55
1.76369e+57
-4.46237e+54
1.72005e+57
-7.53886e+54
1.66509e+57
4.81228e+53
1.65509e+57
1.37302e+55
1.7037e+57
2.82077e+55
1.80416e+57
4.27961e+55
1.95157e+57
5.84484e+55
2.15486e+57
7.72632e+55
2.43417e+57
1.01208e+56
2.81805e+57
1.31917e+56
3.33889e+57
1.70941e+56
4.02936e+57
2.19689e+56
4.94295e+57
2.80098e+56
6.11011e+57
3.58585e+56
7.68077e+57
4.26067e+56
9.55901e+57
7.06669e+56
1.1723e+58
-8.01138e+56
1.43115e+58
-1.12375e+58
7.43827e+58
-2.95335e+58
2.17519e+59
-4.33506e+58
4.00446e+59
4.86465e+59
-3.24453e+56
2.4295e+56
-3.13263e+56
8.44762e+56
-2.74592e+56
1.6003e+57
-3.04772e+56
1.50251e+57
-3.23579e+56
1.30381e+57
-3.33919e+56
1.31316e+57
-3.54456e+56
1.38767e+57
-3.71414e+56
1.42348e+57
-3.35069e+56
1.28263e+57
-3.76715e+56
8.04088e+56
-3.58478e+56
9.74981e+56
-2.47864e+56
1.03243e+57
-1.90747e+56
8.2899e+55
-2.19513e+56
-1.24694e+57
-2.00101e+56
-1.68646e+57
-3.0352e+56
-3.37924e+57
-4.06472e+56
-3.1324e+57
-4.81972e+56
-3.209e+57
-4.6646e+56
-2.13361e+57
-3.22175e+56
-1.20494e+57
-1.78443e+56
-1.60152e+57
-2.18416e+56
-1.52387e+57
-6.35229e+55
-2.94425e+56
-1.64826e+56
-1.56724e+57
-2.00369e+56
-4.06309e+56
-2.99862e+56
2.1026e+55
-2.27819e+56
2.37879e+57
-1.86732e+56
1.50719e+57
-4.91734e+55