/*--------------------------------*- C++ -*----------------------------------*\
| =========                 |                                                 |
| \\      /  F ield         | OpenFOAM: The Open Source CFD Toolbox           |
|  \\    /   O peration     | Version:  4.1                                   |
|   \\  /    A nd           | Web:      www.OpenFOAM.org                      |
|    \\/     M anipulation  |                                                 |
\*---------------------------------------------------------------------------*/
FoamFile
{
    version     2.0;
    format      ascii;
    class       volScalarField;
    location    "13";
    object      p;
}
// * * * * * * * * * * * * * * * * * * * * * * * * * * * * * * * * * * * * * //

dimensions      [0 2 -2 0 0 0 0];

internalField   nonuniform List<scalar> 
6785
(
607.438
529.307
482.55
429.487
383.064
338.403
296.832
257.506
220.306
185.019
150.949
117.708
88.7594
58.8819
18.2654
-0.701159
-17.8602
-7.76544
-14.4875
-13.6275
-15.8197
-16.3107
-16.7314
-16.2681
-14.9385
-12.4771
-9.31815
-4.998
1.25663
5.01458
29.1309
25.8936
35.4671
31.5665
36.0153
35.5781
37.1177
37.497
38.1211
38.5669
39.2063
39.8339
40.1736
40.4654
41.8186
57.3371
54.0888
56.7946
51.5489
52.7714
49.5576
48.9056
47.0041
45.8422
44.5668
43.5843
42.7306
41.9823
40.7374
39.0654
19.1614
14.7473
15.4958
11.113
11.6633
8.31859
7.67279
5.37601
3.9941
2.26401
1.0759
0.323297
-0.501395
-1.68692
-1.69761
-3.3451
-6.16558
-4.38739
-7.21496
-5.58128
-7.78544
-7.20324
-8.34445
-8.48896
-8.86733
-8.56765
-7.80052
-6.66432
-5.79034
-3.91219
12.403
12.4015
15.1313
14.1527
16.9084
16.5642
18.4052
18.9663
20.1452
21.0436
22.1015
23.0559
24.4516
25.6275
28.2941
35.5643
36.6121
38.8222
38.5704
40.9701
41.1923
42.9263
43.8249
45.139
46.3064
47.583
48.7568
50.1161
51.1172
52.5086
50.1465
51.2841
52.9082
52.7977
54.6128
54.7991
56.0546
56.7069
57.6093
58.4096
59.2798
60.1018
61.1025
61.8342
62.9428
63.8806
65.1396
66.3499
66.3869
67.7823
67.8584
68.794
69.1469
69.7824
70.4248
71.1873
71.9979
72.9187
73.5399
74.4801
76.9546
77.8767
78.681
78.8786
79.968
80.2584
81.0944
81.3565
81.5992
81.2875
80.6008
79.9487
79.5497
79.7387
79.6935
84.2657
83.0809
82.9095
81.9103
81.8491
80.5772
79.6635
77.8957
75.9958
73.7039
71.5647
69.8146
68.6339
68.5235
66.9944
72.6444
68.6838
66.4188
63.5148
61.0676
58.2782
56.3005
54.3224
52.7816
51.1998
49.6476
48.0925
47.1281
46.5621
43.8147
40.8399
38.6974
36.5336
33.4171
30.3035
27.0477
24.2757
21.4271
18.6818
16.1054
14.1177
12.8805
12.5291
12.1487
11.0429
53.7509
51.3986
47.6721
41.6866
33.3908
25.3997
19.5777
14.7953
11.4418
10.717
11.394
12.7648
14.3111
15.1087
15.0121
42.8405
43.1663
43.37
43.3687
43.4595
43.7891
44.4084
44.2309
44.1332
44.0798
44.3691
43.8684
43.8514
43.8352
43.2393
43.0609
43.225
43.0987
42.1965
42.6523
42.4126
41.7037
41.5278
42.0375
41.778
41.1205
40.9799
41.423
41.3661
40.6166
41.0786
41.0423
40.5717
40.4671
40.7392
40.8264
40.3663
40.5672
40.6851
40.414
40.34
40.463
40.5617
40.3646
40.3055
40.3828
40.445
40.2568
40.3815
40.2642
40.118
40.0884
40.1664
40.2499
40.1365
40.098
40.1505
40.4793
40.419
40.3484
40.8267
40.7961
40.7393
40.6348
40.9956
41.0778
41.5746
41.2526
40.3658
41.3268
41.8366
37.6814
35.295
37.9962
39.9339
23.3261
30.908
35.0219
1.41593
9.70661
13.6618
12.1318
15.973
11.7044
9.91767
15.554
15.8647
17.2018
17.72
18.9462
21.8053
25.6849
28.0694
20.4569
22.6915
26.8217
31.024
31.5991
33.6537
35.0747
36.9627
45.2617
39.4344
42.98
43.9235
46.7285
51.0184
53.6431
54.937
57.1202
55.5629
67.6657
62.0717
63.9756
64.5247
65.1944
67.0787
70.3334
72.1058
67.0602
73.4973
74.4812
76.9387
77.5529
76.4561
75.1264
73.7642
75.417
68.9845
77.5594
76.5693
71.0918
69.9297
67.9239
63.9015
60.8161
57.8986
47.9763
55.2665
59.116
51.6171
48.0571
42.9294
36.1209
30.3917
27.7548
23.8273
18.2435
18.5575
18.8175
14.2117
14.2034
13.293
12.1104
6.91073
5.30827
7.84783
-0.256088
9.35943
7.44334
6.90649
12.7456
7.01556
9.82523
8.56508
10.4685
13.4054
8.74232
11.2921
13.1822
9.96076
11.1748
10.2663
11.1686
13.2172
10.0419
11.1105
10.1115
11.0243
12.9375
9.2285
10.975
12.5169
9.5056
10.4407
9.41819
10.2073
12.2062
8.83549
9.87367
8.67616
9.65809
11.6414
7.52224
9.43592
10.9963
7.68797
8.71011
7.51025
8.39706
10.3159
6.85437
7.92952
6.67235
7.65164
9.41103
5.57332
7.32117
8.60342
5.68302
6.56467
5.51557
6.23498
7.69859
4.89076
5.72805
4.71976
5.42817
6.61805
3.78341
4.99527
5.73471
3.67519
4.22458
3.46392
3.87198
4.58905
2.77811
3.21294
2.52371
2.84426
3.24451
1.60585
2.12756
2.20241
1.02996
1.15776
0.615895
0.669388
0.983363
0.000696457
0.00115363
0.00191005
0.0024368
0.00306616
0.00363195
0.00423391
0.00482176
0.00542611
0.00603222
0.00664942
0.0072731
0.00790518
0.00854272
0.00918354
0.00982282
0.0104545
0.0110701
0.0116597
0.0122117
0.0127141
0.0131559
0.0135282
0.0138261
0.0140502
0.0142072
0.0143105
0.0143793
0.0144373
0.0145079
0.0146096
0.0147518
0.014935
0.0151591
0.0154404
0.0158279
0.0164109
0.0173005
0.0185868
0.0202719
0.0222086
0.0241427
0.0258605
0.0271392
0.0278044
0.0277872
0.027047
0.0256052
0.0234423
0.0204267
0.0162501
0.0104286
0.00241314
-0.0083272
-0.0223181
-0.0395867
-0.0595802
-0.0855086
-0.106758
-0.131773
-0.526571
-0.495016
-0.555389
-0.708002
-0.812072
-0.867992
-0.843406
-0.762862
-0.608552
-0.431847
-0.228791
-0.0503683
0.129799
0.214882
0.355988
0.337771
0.374246
0.53805
0.0656668
0.00200464
0.00327801
0.00539299
0.00690526
0.0086577
0.0102439
0.0119069
0.0135287
0.0151822
0.0168345
0.0185073
0.0201906
0.0218882
0.0235925
0.0252965
0.0269865
0.0286447
0.0302468
0.0317641
0.0331635
0.0344111
0.0354758
0.0363333
0.0369712
0.0373927
0.0376191
0.0376904
0.0376639
0.0376083
0.0375917
0.0376675
0.0378619
0.0381749
0.0386058
0.0391996
0.0400972
0.041554
0.0438894
0.0473626
0.051982
0.0573309
0.0626976
0.067514
0.0711963
0.073314
0.0737529
0.0724939
0.0697226
0.0655411
0.0597729
0.0517684
0.0403695
0.0241442
0.00147644
-0.0296587
-0.0704224
-0.121354
-0.19305
-0.247383
-0.370156
-0.922909
-0.919052
-1.05746
-1.36142
-1.56986
-1.68189
-1.63495
-1.47587
-1.18324
-0.840938
-0.476179
-0.123932
0.177481
0.409373
0.616631
0.718705
0.828542
0.969228
0.965964
0.00312354
0.00529553
0.00890289
0.01147
0.0144537
0.0171503
0.0199811
0.0227416
0.0255586
0.0283747
0.031228
0.034101
0.0370007
0.0399144
0.0428306
0.0457266
0.0485723
0.0513276
0.0539438
0.0563655
0.0585357
0.0604013
0.0619214
0.0630744
0.0638649
0.0643277
0.0645298
0.064567
0.0645543
0.0646068
0.0648141
0.0652201
0.065824
0.0666227
0.0676904
0.0692631
0.0717724
0.0757601
0.0816681
0.0895135
0.0985875
0.10768
0.115823
0.122009
0.125495
0.126056
0.123629
0.118486
0.110744
0.100036
0.0851748
0.0641104
0.0343616
-0.00679957
-0.0626272
-0.134686
-0.223986
-0.345427
-0.429564
-0.679482
-1.1211
-1.13275
-1.30965
-1.69429
-1.95192
-2.08678
-2.02247
-1.82096
-1.45545
-1.03062
-0.584353
-0.148879
0.211852
0.506615
0.752751
0.888342
1.06469
1.13317
1.35776
0.00419271
0.00724771
0.0122778
0.0158834
0.0200525
0.0238268
0.0277801
0.0316356
0.035566
0.0394942
0.0434718
0.0474758
0.0515154
0.0555733
0.0596338
0.063665
0.0676252
0.0714583
0.0750964
0.0784621
0.0814754
0.0840622
0.086165
0.0877537
0.0888346
0.0894567
0.0897133
0.0897391
0.0896955
0.0897442
0.0900112
0.090557
0.0913781
0.0924663
0.093921
0.096071
0.0995225
0.105042
0.113262
0.124214
0.136895
0.149604
0.160992
0.169649
0.174547
0.175379
0.172076
0.165038
0.154461
0.139858
0.119577
0.0907462
0.0498819
-0.00687646
-0.0841022
-0.184002
-0.309087
-0.476515
-0.589094
-0.999152
-1.35788
-1.41954
-1.63224
-2.11997
-2.44357
-2.60757
-2.52168
-2.26698
-1.80784
-1.2776
-0.722886
-0.181086
0.263565
0.629886
0.934752
1.09481
1.33783
1.37643
1.64183
0.00515844
0.00913157
0.0155912
0.0202573
0.02563
0.0305023
0.0355974
0.0405682
0.0456323
0.0506934
0.0558169
0.0609743
0.0661772
0.071404
0.0766345
0.0818282
0.0869317
0.0918729
0.0965644
0.100907
0.104797
0.108138
0.110857
0.112913
0.114315
0.115125
0.115462
0.115501
0.115451
0.11552
0.115873
0.116587
0.117652
0.119052
0.120908
0.123639
0.128032
0.13509
0.145652
0.159775
0.176151
0.192561
0.207273
0.218447
0.224763
0.225817
0.221526
0.212422
0.198771
0.179954
0.153816
0.116605
0.0637961
-0.0096109
-0.109395
-0.238222
-0.400275
-0.61117
-0.756845
-1.3469
-1.58324
-1.73548
-1.98364
-2.58831
-2.98806
-3.18372
-3.07304
-2.75915
-2.19642
-1.55016
-0.877979
-0.218316
0.315407
0.766016
1.12926
1.32852
1.63684
1.64374
2.10094
0.00606028
0.0109654
0.0188194
0.0245497
0.0311128
0.0370791
0.0433054
0.0493828
0.0555688
0.0617512
0.0680073
0.0743042
0.0806557
0.0870361
0.093421
0.0997614
0.105992
0.112025
0.117755
0.123058
0.127808
0.131888
0.135205
0.13771
0.139413
0.140389
0.140786
0.140815
0.140735
0.140805
0.141225
0.142089
0.143382
0.145069
0.147289
0.150552
0.155825
0.164365
0.177234
0.194528
0.214618
0.234751
0.252814
0.266523
0.274281
0.275589
0.270367
0.259302
0.242765
0.220036
0.188462
0.14341
0.0793334
-0.00987755
-0.131104
-0.287458
-0.485046
-0.734765
-0.921524
-1.69791
-1.76085
-2.04308
-2.32482
-3.0483
-3.52398
-3.74676
-3.60739
-3.23358
-2.56737
-1.80845
-1.023
-0.249577
0.367688
0.900476
1.31659
1.55441
1.924
1.90054
2.4345
0.00689211
0.0127556
0.0219809
0.0287869
0.0365385
0.043605
0.050964
0.0581515
0.0654613
0.0727672
0.0801576
0.0875959
0.0950978
0.102634
0.110176
0.117667
0.125029
0.13216
0.138933
0.145204
0.150821
0.155646
0.159567
0.162525
0.164531
0.165674
0.166126
0.166142
0.166028
0.166094
0.166582
0.167601
0.169122
0.171091
0.173656
0.177413
0.183519
0.193499
0.208669
0.229178
0.253053
0.276979
0.298463
0.314754
0.323977
0.325533
0.319355
0.306308
0.286887
0.260289
0.223348
0.170526
0.0952774
-0.00955469
-0.151792
-0.33494
-0.56689
-0.851499
-1.08858
-2.02284
-1.87439
-2.34555
-2.67279
-3.52269
-4.07792
-4.32426
-4.15114
-3.71409
-2.93983
-2.06646
-1.16604
-0.277793
0.422786
1.03813
1.50546
1.78101
2.20739
2.15469
2.78913
0.00766724
0.0145109
0.0250749
0.0329638
0.0418949
0.0500626
0.0585492
0.0668444
0.075273
0.083698
0.0922172
0.100792
0.109438
0.118125
0.126819
0.135455
0.143946
0.152171
0.159985
0.167221
0.173703
0.179268
0.183789
0.187194
0.189494
0.190791
0.191286
0.191272
0.191109
0.19116
0.191707
0.192874
0.194616
0.196853
0.19973
0.203928
0.210801
0.222161
0.23961
0.263375
0.291108
0.318897
0.343875
0.362793
0.373509
0.375319
0.368186
0.353179
0.330953
0.300644
0.258568
0.198279
0.112285
-0.00751657
-0.16972
-0.378249
-0.642563
-0.958895
-1.25073
-2.26457
-1.91195
-2.63733
-3.03324
-4.02153
-4.66162
-4.92735
-4.71423
-4.20924
-3.32027
-2.32874
-1.31001
-0.303989
0.480449
1.18111
1.69754
2.01352
2.49182
2.40972
3.14195
0.00838897
0.0162376
0.0281091
0.0370894
0.0471922
0.0564634
0.0660747
0.075477
0.0850219
0.094564
0.104209
0.113917
0.123706
0.133541
0.143386
0.153167
0.162785
0.172106
0.180963
0.189167
0.196516
0.202825
0.207945
0.211795
0.214385
0.215828
0.216354
0.216298
0.216072
0.216096
0.216695
0.21801
0.219973
0.222463
0.225622
0.230204
0.237769
0.250446
0.270159
0.297236
0.328921
0.360668
0.389232
0.410835
0.423074
0.425135
0.417025
0.400044
0.375039
0.341109
0.294038
0.22648
0.130079
-0.00409568
-0.185247
-0.4178
-0.71253
-1.0589
-1.40335
-2.40095
-1.92578
-2.93822
-3.40659
-4.54602
-5.27624
-5.55474
-5.29368
-4.7155
-3.70485
-2.59207
-1.45246
-0.326712
0.541028
1.32921
1.89138
2.25085
2.7749
2.67667
3.43617
0.00906398
0.0179413
0.0310871
0.0411658
0.0524301
0.062806
0.0735369
0.0840443
0.0947013
0.105357
0.116124
0.126961
0.137888
0.148868
0.15986
0.170784
0.181529
0.191945
0.201846
0.211019
0.219238
0.22629
0.232008
0.236298
0.23917
0.240748
0.24129
0.241174
0.240869
0.240852
0.241496
0.242955
0.245135
0.247866
0.251267
0.256168
0.264339
0.278254
0.300211
0.330668
0.366416
0.402226
0.434482
0.458834
0.472632
0.474937
0.46582
0.446836
0.419058
0.381571
0.329626
0.255001
0.148589
0.000762948
-0.198164
-0.453273
-0.776496
-1.15244
-1.54721
-2.48406
-1.97564
-3.24031
-3.79901
-5.10141
-5.92883
-6.21115
-5.8921
-5.23445
-4.09397
-2.85647
-1.59299
-0.345478
0.604943
1.4829
2.08715
2.49329
3.05639
2.93907
3.76567
0.00969648
0.0196266
0.0340136
0.0451976
0.0576131
0.0690945
0.08094
0.0925507
0.104316
0.116081
0.127966
0.139929
0.15199
0.164112
0.176249
0.188314
0.200186
0.211698
0.222647
0.232792
0.241882
0.24968
0.255995
0.260722
0.263868
0.265571
0.266113
0.265919
0.265514
0.265441
0.266123
0.267725
0.270122
0.27308
0.276683
0.281829
0.290508
0.305572
0.329751
0.36367
0.403608
0.443608
0.479676
0.506853
0.522246
0.524781
0.514601
0.493538
0.462916
0.42184
0.365034
0.283449
0.167362
0.00658823
-0.208981
-0.485311
-0.835464
-1.24179
-1.68719
-2.55171
-2.12034
-3.50646
-4.21956
-5.69369
-6.62837
-6.90344
-6.51366
-5.76895
-4.48904
-3.1227
-1.73172
-0.360142
0.672667
1.64286
2.28505
2.74187
3.33704
3.19637
4.1025
0.0102909
0.0212976
0.0368925
0.0491881
0.0627434
0.0753305
0.0882847
0.100996
0.113864
0.126736
0.139734
0.152818
0.16601
0.179269
0.192549
0.205753
0.218752
0.231363
0.24336
0.254481
0.264447
0.272991
0.279904
0.285064
0.288476
0.290289
0.290814
0.29052
0.289996
0.28985
0.290559
0.292303
0.294918
0.298089
0.301852
0.307161
0.316234
0.332344
0.358721
0.396196
0.440472
0.484804
0.524821
0.554905
0.571933
0.574668
0.563329
0.540031
0.506385
0.461555
0.399766
0.311225
0.185756
0.0127335
-0.21839
-0.514757
-0.89071
-1.32901
-1.82594
-2.6289
-2.39711
-3.74739
-4.68337
-6.32823
-7.38355
-7.63838
-7.16192
-6.32099
-4.8906
-3.39085
-1.86825
-0.370132
0.744284
1.80969
2.4856
2.99732
3.61666
3.4734
4.39106
0.0108509
0.0229575
0.0397279
0.0531407
0.0678238
0.0815164
0.095573
0.109382
0.123348
0.137322
0.151427
0.165629
0.179946
0.194341
0.20876
0.223104
0.237229
0.250941
0.263991
0.276092
0.286936
0.296231
0.30374
0.30933
0.312999
0.314908
0.315397
0.31498
0.314312
0.314074
0.314801
0.31669
0.319524
0.322897
0.326773
0.332153
0.341494
0.35853
0.387074
0.428218
0.476997
0.525823
0.569943
0.603027
0.621727
0.624598
0.611929
0.586112
0.549087
0.500146
0.433075
0.337454
0.202847
0.018259
-0.227427
-0.542876
-0.944015
-1.41615
-1.96577
-2.74425
-2.84324
-3.97468
-5.20411
-7.01073
-8.20376
-8.42376
-7.84113
-6.89276
-5.2992
-3.66096
-2.00223
-0.375317
0.821229
1.98383
2.68784
3.26078
3.89508
3.736
4.71467
0.0113796
0.0246093
0.042523
0.0570583
0.0728567
0.0876541
0.102806
0.117709
0.132767
0.147839
0.163047
0.17836
0.193799
0.209325
0.224881
0.240363
0.255616
0.270431
0.284538
0.297624
0.309353
0.3194
0.327507
0.333521
0.337438
0.339429
0.33986
0.339294
0.338455
0.338104
0.33884
0.340875
0.343935
0.347498
0.351438
0.35679
0.366253
0.384076
0.414754
0.459696
0.513164
0.566667
0.615061
0.651243
0.671634
0.674517
0.660216
0.631404
0.590421
0.536783
0.46395
0.361051
0.217568
0.0221208
-0.237223
-0.571035
-0.997248
-1.50515
-2.10969
-2.90993
-3.38069
-4.14317
-5.7805
-7.74812
-9.09953
-9.26847
-8.55653
-7.48702
-5.7156
-3.93362
-2.13334
-0.376052
0.905683
2.16459
2.89497
3.53149
4.17295
4.01144
5.0217
0.01188
0.0262553
0.0452813
0.0609438
0.0778448
0.0937455
0.109986
0.125979
0.142124
0.158287
0.174593
0.191013
0.207569
0.224222
0.240913
0.257531
0.273914
0.289834
0.305003
0.319081
0.331698
0.342503
0.351208
0.357643
0.361798
0.363854
0.364203
0.36346
0.362421
0.361934
0.362667
0.364853
0.368148
0.371893
0.375847
0.38106
0.390483
0.408931
0.441702
0.490591
0.548958
0.607343
0.660197
0.699572
0.72163
0.724281
0.707849
0.675312
0.629524
0.570376
0.49118
0.380831
0.228838
0.0232894
-0.248887
-0.600577
-1.05223
-1.59801
-2.26053
-3.11293
-3.82487
-4.27259
-6.43561
-8.54671
-10.0827
-10.1823
-9.31412
-8.10697
-6.14064
-4.20953
-2.26121
-0.371951
0.998223
2.35102
3.11228
3.80839
4.44969
4.28275
5.30709
0.0123544
0.0278978
0.0480058
0.0647996
0.0827901
0.0997924
0.117113
0.134193
0.151417
0.168667
0.186063
0.203585
0.221253
0.239029
0.256852
0.274607
0.29212
0.30915
0.325387
0.340462
0.353976
0.365543
0.374846
0.381698
0.386081
0.388183
0.388426
0.387475
0.386204
0.385554
0.386275
0.388617
0.39216
0.396083
0.399997
0.404952
0.41415
0.433036
0.467854
0.520862
0.584359
0.647855
0.705365
0.748004
0.771607
0.773585
0.754251
0.716968
0.665267
0.599637
0.513507
0.3957
0.235735
0.0209166
-0.263333
-0.632616
-1.11048
-1.69658
-2.42066
-3.34271
-4.17536
-4.45178
-7.1698
-9.41597
-11.1663
-11.1756
-10.1205
-8.75642
-6.57543
-4.48893
-2.3854
-0.362408
1.09922
2.54377
3.3396
4.09248
4.72597
4.54987
5.63946
0.012805
0.0295386
0.0506991
0.0686282
0.0876948
0.105796
0.12419
0.14235
0.160647
0.178978
0.197459
0.216077
0.234851
0.253747
0.272699
0.291589
0.310234
0.328378
0.345689
0.361769
0.376187
0.388521
0.398425
0.40569
0.410289
0.41242
0.412529
0.411335
0.409796
0.408955
0.409652
0.412159
0.415969
0.420068
0.42389
0.428456
0.437222
0.45633
0.493139
0.550463
0.619347
0.688207
0.750561
0.79646
0.821304
0.821882
0.798554
0.755225
0.696327
0.623256
0.529831
0.404835
0.237634
0.0144478
-0.28117
-0.667939
-1.1731
-1.80239
-2.59286
-3.60061
-4.52337
-4.79588
-7.94994
-10.3747
-12.3633
-12.2592
-10.9826
-9.43978
-7.02118
-4.77196
-2.5055
-0.346912
1.20926
2.74344
3.57675
4.38289
5.00438
4.83829
5.94779
0.0132337
0.0311793
0.0533638
0.0724316
0.0925608
0.111759
0.131216
0.150452
0.169814
0.189221
0.208779
0.228487
0.248362
0.268373
0.288452
0.308477
0.328256
0.347518
0.365909
0.383004
0.398333
0.411441
0.421948
0.429622
0.434427
0.436566
0.436511
0.435038
0.433191
0.432128
0.432788
0.435473
0.439573
0.443853
0.447529
0.451567
0.459667
0.478745
0.51748
0.579348
0.653901
0.728391
0.795731
0.844727
0.870213
0.868302
0.839579
0.788722
0.721362
0.640134
0.539419
0.407809
0.234293
0.00369338
-0.302643
-0.706936
-1.24071
-1.91642
-2.77934
-3.88812
-4.90205
-5.36224
-8.78176
-11.4433
-13.686
-13.4437
-11.9079
-10.1621
-7.47905
-5.05871
-2.62108
-0.324945
1.32889
2.95045
3.82446
4.67872
5.28627
5.11976
6.23779
0.0136419
0.0328213
0.0560022
0.0762117
0.09739
0.117681
0.138193
0.158499
0.17892
0.199394
0.220023
0.240815
0.261785
0.282905
0.304108
0.325268
0.346183
0.366568
0.386048
0.404166
0.420418
0.434306
0.445419
0.453497
0.458496
0.460622
0.460373
0.458579
0.456382
0.455061
0.455672
0.458551
0.462972
0.467444
0.470921
0.474279
0.481451
0.500207
0.540792
0.607469
0.687993
0.768367
0.840707
0.892355
0.91748
0.911615
0.875883
0.816067
0.739278
0.649611
0.54202
0.404647
0.225872
-0.0111588
-0.327625
-0.749601
-1.31344
-2.03902
-2.98131
-4.20459
-5.33339
-6.18584
-9.67155
-12.6449
-15.1478
-14.7391
-12.9036
-10.9287
-7.95053
-5.34925
-2.73171
-0.295933
1.45862
3.1653
4.0832
4.98067
5.57321
5.39747
6.5803
0.014031
0.034466
0.0586165
0.0799704
0.102184
0.123564
0.145122
0.166492
0.187962
0.209497
0.23119
0.253058
0.275117
0.297343
0.319667
0.34196
0.364013
0.385528
0.406105
0.425257
0.442441
0.457119
0.468839
0.47732
0.482501
0.484591
0.484113
0.481955
0.47936
0.477743
0.478291
0.481382
0.486164
0.490846
0.494075
0.496591
0.502541
0.520635
0.562983
0.634771
0.721572
0.808013
0.885112
0.938534
0.961834
0.950249
0.905943
0.836132
0.749477
0.651577
0.53788
0.395794
0.212904
-0.0295827
-0.355658
-0.795573
-1.39099
-2.16997
-3.19883
-4.54791
-5.8315
-7.26976
-10.5946
-13.9945
-16.7664
-16.1559
-13.9774
-11.7456
-8.43751
-5.64375
-2.83693
-0.259288
1.59892
3.38854
4.35334
5.2895
5.86648
5.71343
6.89908
0.0144021
0.0361144
0.0612084
0.0837092
0.106944
0.12941
0.152004
0.174431
0.196942
0.219531
0.242279
0.265217
0.288358
0.311684
0.335125
0.358551
0.381746
0.404396
0.42608
0.446277
0.464405
0.47988
0.492214
0.501093
0.506443
0.508475
0.507733
0.505163
0.502116
0.500161
0.500631
0.503958
0.509149
0.51407
0.517004
0.518508
0.522904
0.539941
0.583953
0.661188
0.754535
0.847038
0.928227
0.982006
1.00157
0.98245
0.928483
0.848354
0.751983
0.646455
0.527671
0.382043
0.196213
-0.0507934
-0.386031
-0.844196
-1.47268
-2.3085
-3.43086
-4.91515
-6.39872
-8.52257
-11.4777
-15.4866
-18.5631
-17.706
-15.1369
-12.6185
-8.94209
-5.94246
-2.93628
-0.214414
1.75026
3.62072
4.63514
5.60516
6.16548
6.01295
7.19238
0.014756
0.0377676
0.0637797
0.0874294
0.111672
0.135218
0.158838
0.182315
0.20586
0.229493
0.253289
0.277288
0.301504
0.325926
0.350481
0.37504
0.399378
0.42317
0.44597
0.467226
0.48631
0.502594
0.515546
0.52482
0.530327
0.532277
0.531232
0.528198
0.524642
0.5223
0.522676
0.526269
0.531928
0.537128
0.539725
0.540037
0.542507
0.55803
0.603586
0.686624
0.786658
0.884858
0.968878
1.021
1.03467
1.00664
0.942858
0.852878
0.747386
0.635082
0.512374
0.364422
0.17681
-0.0738458
-0.417863
-0.8946
-1.55752
-2.45338
-3.67556
-5.30314
-7.02484
-9.7682
-12.3149
-17.1447
-20.5591
-19.4012
-16.3892
-13.553
-9.4663
-6.24583
-3.02927
-0.160712
1.91306
3.86242
4.92885
5.92777
6.47171
6.33634
7.52771
0.0150933
0.0394267
0.0663319
0.0911324
0.116369
0.140991
0.165627
0.190146
0.214714
0.239384
0.264218
0.289271
0.314555
0.340066
0.365731
0.391422
0.416907
0.441848
0.465776
0.488103
0.508158
0.525263
0.538837
0.548504
0.554156
0.555997
0.554609
0.551056
0.546927
0.544145
0.544409
0.548302
0.5545
0.560032
0.562262
0.561193
0.561322
0.574792
0.621743
0.710909
0.817487
0.920469
1.00536
1.05329
1.05912
1.02193
0.949264
0.850481
0.736677
0.618554
0.493141
0.34407
0.155778
-0.0977271
-0.450174
-0.945742
-1.64429
-2.60301
-3.93038
-5.70825
-7.69589
-10.9074
-13.2114
-19.039
-22.7804
-21.2534
-17.7401
-14.5541
-10.0119
-6.55449
-3.11543
-0.0975837
2.08772
4.11417
5.23464
6.25743
6.78517
6.65745
7.80042
0.0154146
0.0410925
0.0688663
0.0948194
0.121036
0.146727
0.172369
0.197922
0.223504
0.249202
0.275065
0.301163
0.327508
0.354101
0.380873
0.407694
0.434329
0.460427
0.485494
0.508909
0.52995
0.547887
0.562091
0.57215
0.577934
0.579641
0.577866
0.573733
0.568961
0.565679
0.565812
0.570045
0.576867
0.582799
0.58464
0.581999
0.579318
0.590106
0.63824
0.733715
0.846217
0.952374
1.03538
1.0764
1.07359
1.02841
0.948649
0.842351
0.721053
0.598069
0.471161
0.322125
0.134188
-0.12142
-0.481925
-0.996445
-1.73149
-2.75537
-4.19207
-6.12598
-8.40144
-11.9728
-14.287
-21.1385
-25.2632
-23.2748
-19.1941
-15.626
-10.5802
-6.86927
-3.19431
-0.0244423
2.27462
4.37654
5.55257
6.59403
7.10678
6.97512
8.14072
0.0157201
0.0427659
0.0713842
0.0984911
0.125673
0.152429
0.179065
0.205644
0.232229
0.258946
0.285828
0.312963
0.34036
0.36803
0.395904
0.423855
0.451642
0.478904
0.505124
0.529642
0.551686
0.57047
0.585312
0.595759
0.601663
0.603209
0.601003
0.596225
0.590732
0.586883
0.586863
0.591484
0.59903
0.605449
0.606893
0.602485
0.596468
0.603818
0.652796
0.754455
0.871643
0.978496
1.05617
1.08838
1.07791
1.02716
0.942425
0.82984
0.701735
0.574786
0.447554
0.299642
0.11304
-0.143921
-0.512018
-1.0454
-1.81747
-2.90811
-4.45664
-6.55106
-9.13119
-12.9779
-15.6098
-23.3597
-28.0494
-25.4802
-20.7551
-16.7721
-11.1721
-7.19102
-3.26548
0.0592824
2.47408
4.65002
5.88268
6.93779
7.4375
7.32995
8.46402
0.0160101
0.0444477
0.0738865
0.102149
0.130282
0.158096
0.185715
0.213311
0.240889
0.268615
0.296506
0.324668
0.353109
0.381847
0.410819
0.439898
0.468841
0.497276
0.524662
0.550301
0.573367
0.593013
0.6085
0.619337
0.625347
0.626705
0.62402
0.618526
0.612228
0.607737
0.607538
0.6126
0.620988
0.628004
0.629064
0.622695
0.612742
0.615727
0.664949
0.772245
0.892136
0.996053
1.06503
1.08857
1.07321
1.01984
0.932147
0.814269
0.679838
0.549724
0.423295
0.277553
0.0932659
-0.164229
-0.539291
-1.09118
-1.90037
-3.05858
-4.71965
-6.97788
-9.87272
-13.9271
-17.2014
-25.641
-31.188
-27.8874
-22.4267
-17.9946
-11.7878
-7.52044
-3.3285
0.154142
2.68637
4.93504
6.22491
7.28859
7.77669
7.67031
8.73489
0.0162846
0.0461387
0.0763742
0.105793
0.134864
0.163728
0.19232
0.220923
0.249483
0.278207
0.307097
0.336275
0.365751
0.395551
0.425615
0.45582
0.485923
0.515539
0.544106
0.570884
0.594993
0.615518
0.631661
0.642885
0.648991
0.650133
0.646919
0.640635
0.633437
0.628219
0.627811
0.633378
0.642744
0.650487
0.651199
0.642683
0.628096
0.625519
0.674018
0.786017
0.905409
1.00181
1.06053
1.07799
1.0614
1.00824
0.919294
0.796798
0.656274
0.523708
0.399193
0.25668
0.0757554
-0.181317
-0.562525
-1.13232
-1.97834
-3.2041
-4.97663
-7.40108
-10.6124
-14.841
-19.1482
-27.9685
-34.7592
-30.5165
-24.2121
-19.2944
-12.427
-7.85776
-3.38289
0.260679
2.91174
5.23197
6.57911
7.64619
8.12542
8.00117
9.07518
0.0165434
0.0478398
0.0788479
0.109424
0.139418
0.169326
0.198878
0.228479
0.25801
0.287721
0.317599
0.347783
0.378283
0.409137
0.440287
0.471618
0.502882
0.533689
0.563452
0.59139
0.616562
0.637985
0.654795
0.666408
0.672598
0.673496
0.669702
0.662545
0.654343
0.648303
0.647652
0.653794
0.664298
0.672929
0.673356
0.66251
0.642434
0.632687
0.679274
0.794473
0.908188
0.99321
1.04328
1.05886
1.0446
0.99403
0.905132
0.778352
0.631717
0.497358
0.375913
0.237776
0.0613991
-0.194122
-0.580497
-1.16745
-2.04979
-3.34234
-5.22396
-7.81628
-11.3365
-15.7648
-21.5579
-30.3158
-38.848
-33.39
-26.1143
-20.6709
-13.0882
-8.20245
-3.42804
0.379444
3.15035
5.54105
6.9451
8.01091
8.48499
8.37828
9.40259
0.0167862
0.0495516
0.0813085
0.113043
0.143945
0.17489
0.20539
0.235977
0.266468
0.297154
0.328009
0.359188
0.390702
0.422601
0.454831
0.487284
0.519714
0.55172
0.582695
0.611815
0.638076
0.660417
0.677905
0.689909
0.696171
0.696798
0.692369
0.684253
0.674934
0.667961
0.667026
0.673825
0.68565
0.695358
0.695595
0.682224
0.655508
0.636623
0.680323
0.79536
0.89682
0.969952
1.01567
1.0337
1.02473
0.978616
0.890665
0.759607
0.606612
0.471121
0.354026
0.221578
0.0511079
-0.201592
-0.592132
-1.19561
-2.11377
-3.472
-5.45979
-8.22115
-12.0356
-16.7531
-24.3733
-32.5544
-43.4894
-36.5299
-28.1349
-22.1217
-13.7687
-8.55301
-3.4631
0.511033
3.40231
5.86237
7.32259
8.38272
8.85328
8.72612
9.6664
0.0170127
0.051275
0.0837562
0.116649
0.148446
0.180419
0.211855
0.243418
0.274856
0.306506
0.338324
0.370487
0.403004
0.435938
0.469242
0.502815
0.536412
0.569628
0.601833
0.632158
0.659532
0.682814
0.700993
0.713391
0.719715
0.720043
0.714925
0.705756
0.695192
0.687165
0.685898
0.693446
0.706801
0.717806
0.717967
0.701787
0.666778
0.6372
0.676828
0.7849
0.869232
0.934328
0.980753
1.00478
1.00336
0.963085
0.87665
0.741017
0.581203
0.445322
0.334061
0.208832
0.0457867
-0.202805
-0.596759
-1.21659
-2.17061
-3.59364
-5.6851
-8.61645
-12.7091
-17.8383
-27.2081
-34.7226
-48.8196
-39.9542
-30.2739
-23.6433
-14.4651
-8.90699
-3.48687
0.656143
3.66767
6.19589
7.7112
8.76154
9.23219
9.0973
10.0065
0.0172224
0.0530106
0.0861916
0.120244
0.15292
0.185913
0.218272
0.2508
0.283172
0.315773
0.348543
0.381677
0.415186
0.449145
0.483515
0.518203
0.55297
0.587406
0.620859
0.652414
0.68093
0.705176
0.724062
0.736856
0.743234
0.743236
0.737371
0.72705
0.715103
0.705881
0.704225
0.712624
0.727749
0.740294
0.74048
0.72086
0.675567
0.635185
0.666604
0.759135
0.826518
0.889998
0.941258
0.973898
0.981651
0.948256
0.863639
0.722861
0.555587
0.420209
0.316532
0.200287
0.0462437
-0.197198
-0.594508
-1.23154
-2.22252
-3.71034
-5.90409
-9.00633
-13.3635
-19.0292
-29.7702
-37.0441
-55.0199
-43.6682
-32.5273
-25.2313
-15.173
-9.26086
-3.49766
0.815645
3.94645
6.54138
8.11049
9.14764
9.6206
9.45542
10.2655
0.0174147
0.0547593
0.0886148
0.123828
0.157367
0.191372
0.224641
0.258121
0.291414
0.324954
0.358662
0.392754
0.427242
0.462216
0.497643
0.533444
0.569383
0.605048
0.639767
0.67258
0.702267
0.727504
0.747113
0.760307
0.766731
0.766382
0.759712
0.748134
0.734649
0.724073
0.72196
0.731327
0.748485
0.762821
0.762946
0.738563
0.682022
0.63114
0.644762
0.717087
0.772649
0.840521
0.899196
0.942354
0.960466
0.934744
0.85205
0.705292
0.52974
0.395976
0.301943
0.196635
0.0530121
-0.184923
-0.586811
-1.2435
-2.27413
-3.82798
-6.12374
-9.39738
-14.0101
-20.3315
-32.1115
-39.8146
-61.9176
-47.675
-34.8852
-26.88
-15.887
-9.61021
-3.49325
0.990679
4.2387
6.89843
8.51989
9.54108
10.0185
9.80676
10.5918
0.0175887
0.0565216
0.091026
0.1274
0.161787
0.196794
0.23096
0.265381
0.299581
0.334046
0.368678
0.403714
0.439169
0.475145
0.511621
0.548529
0.585641
0.622546
0.658552
0.692651
0.723542
0.749798
0.770147
0.783746
0.79021
0.789485
0.781953
0.769005
0.753814
0.741703
0.73905
0.749512
0.768985
0.785291
0.784636
0.753813
0.687854
0.624168
0.60597
0.660481
0.711962
0.788221
0.856063
0.911053
0.940427
0.92305
0.84223
0.688371
0.503531
0.372764
0.290751
0.19839
0.0660573
-0.167318
-0.576931
-1.25786
-2.33267
-3.9546
-6.3525
-9.79708
-14.6616
-21.7458
-34.2737
-43.2403
-69.4227
-51.9904
-37.3333
-28.5821
-16.601
-9.94984
-3.47084
1.18275
4.54452
7.26646
8.93872
9.94217
10.4261
10.1991
10.911
0.0177438
0.0582985
0.0934254
0.13096
0.166181
0.20218
0.237229
0.272577
0.307671
0.343047
0.378588
0.414554
0.450962
0.487928
0.525442
0.563451
0.601737
0.639892
0.677205
0.712621
0.744751
0.772056
0.793165
0.807175
0.813674
0.812553
0.8041
0.789664
0.772579
0.758726
0.755435
0.767125
0.789188
0.807301
0.803983
0.766342
0.692887
0.60398
0.541381
0.596245
0.646534
0.734853
0.812576
0.88064
0.922041
0.913632
0.834503
0.672078
0.476713
0.350643
0.283301
0.205677
0.08435
-0.147431
-0.57039
-1.28249
-2.40719
-4.09891
-6.59856
-10.2122
-15.3299
-23.2671
-36.3049
-47.4954
-77.4308
-56.6232
-39.8547
-30.3279
-17.3078
-10.2736
-3.42711
1.39379
4.8642
7.64476
9.36619
10.351
10.8408
10.5665
11.1653
0.0178788
0.0600906
0.0958128
0.134509
0.170546
0.207528
0.243446
0.279708
0.315682
0.351953
0.388389
0.42527
0.462615
0.500558
0.5391
0.578203
0.617663
0.657077
0.695719
0.732484
0.765891
0.794279
0.816167
0.830596
0.837127
0.835589
0.82616
0.810111
0.790928
0.775097
0.771042
0.784088
0.808907
0.827732
0.819085
0.776582
0.695841
0.559176
0.463878
0.526897
0.577211
0.681324
0.769364
0.851543
0.905775
0.906976
0.829207
0.656317
0.448903
0.329581
0.279702
0.217898
0.105354
-0.130443
-0.575168
-1.32717
-2.5069
-4.26844
-6.86837
-10.6477
-16.0254
-24.8874
-38.2414
-52.6656
-85.792
-61.5628
-42.4273
-32.1046
-17.9994
-10.5744
-3.35838
1.62624
5.19826
8.03253
9.80134
10.7673
11.2626
10.9218
11.4997
0.0179927
0.0618987
0.098188
0.138045
0.174884
0.212838
0.24961
0.286772
0.32361
0.360761
0.398076
0.435856
0.474124
0.513029
0.552586
0.592775
0.633409
0.674091
0.714085
0.752234
0.786958
0.816464
0.839153
0.854009
0.860571
0.858602
0.848141
0.83035
0.808842
0.790759
0.78578
0.800276
0.827563
0.844596
0.829215
0.78404
0.686944
0.491956
0.385275
0.454435
0.507716
0.628052
0.726874
0.824269
0.892143
0.903627
0.826717
0.640902
0.419563
0.309394
0.279616