/*--------------------------------*- C++ -*----------------------------------*\
| =========                 |                                                 |
| \\      /  F ield         | OpenFOAM: The Open Source CFD Toolbox           |
|  \\    /   O peration     | Version:  4.1                                   |
|   \\  /    A nd           | Web:      www.OpenFOAM.org                      |
|    \\/     M anipulation  |                                                 |
\*---------------------------------------------------------------------------*/
FoamFile
{
    version     2.0;
    format      ascii;
    class       volScalarField;
    location    "20";
    object      p;
}
// * * * * * * * * * * * * * * * * * * * * * * * * * * * * * * * * * * * * * //

dimensions      [0 2 -2 0 0 0 0];

internalField   nonuniform List<scalar> 
6785
(
698.202
644.006
592.139
543.431
498.265
455.955
416.317
379.057
343.738
310.096
278.749
250.322
221.467
186.524
156.029
225.059
203.187
198.499
194.974
189.609
184.092
179.138
174.938
171.647
169.379
168.341
168.965
171.253
173.402
173.353
126.937
121.294
127.234
130.955
133.725
137.044
140.645
144.293
147.923
151.387
154.471
157.264
160.128
162.452
163.037
171.438
171.348
175.742
175.86
175.703
175.754
175.53
175.044
174.374
173.546
172.53
171.351
170.319
169.967
170.201
184.757
185.666
187.406
185.666
184.367
183.297
182.021
180.752
179.607
178.628
177.829
177.183
176.683
176.591
176.715
174.276
175.048
176.156
175.684
175.786
176.011
176.126
176.327
176.625
176.974
177.356
177.738
177.998
178.249
178.175
170.202
170.993
172.451
173.333
174.163
174.783
175.262
175.741
176.182
176.551
176.845
177.065
177.081
177.109
176.668
172.333
172.873
174.326
175.513
176.08
176.348
176.525
176.68
176.778
176.822
176.829
176.811
176.589
176.523
175.978
174.625
174.739
175.806
176.802
176.928
176.888
176.85
176.81
176.746
176.674
176.598
176.534
176.217
176.15
175.592
175.06
174.921
175.624
176.468
176.386
176.285
176.218
176.147
176.068
175.997
175.924
175.878
175.515
175.455
174.889
173.966
173.798
174.327
175.177
175.117
175.11
175.115
175.097
175.069
175.045
175
174.989
174.611
174.571
173.995
171.972
171.914
172.432
173.369
173.452
173.625
173.772
173.883
173.976
174.059
174.097
174.159
173.811
173.832
173.292
169.869
169.813
170.368
171.441
171.665
172.03
172.342
172.63
172.904
173.177
173.385
173.623
173.374
173.524
173.137
164.231
164.804
165.994
167.668
168.653
169.903
171.097
172.256
173.367
174.377
175.255
175.927
176.066
176.506
176.002
166.841
163.324
161.357
160.842
160.536
161.422
162.795
164.653
166.682
168.868
170.891
172.689
174.312
176.35
177.711
210.728
210.815
210.714
210.436
210.476
210.417
210.137
209.672
209.657
209.81
209.453
208.615
208.678
208.552
207.728
207.62
208.539
208.169
206.584
207.072
207.298
206.068
205.876
207.819
207.462
205.537
205.298
207.749
207.75
205.152
206.233
207.331
205.714
205.436
208.436
208.979
206.124
207.285
208.868
207.238
206.905
210.121
210.89
208.663
208.254
211.304
212.393
209.878
210.777
212.634
211.389
211.127
213.524
214.673
213.213
212.958
214.837
216.047
214.661
214.948
216.372
215.775
215.72
216.53
217.489
216.899
216.668
217.489
217.236
217.273
217.05
217.562
217.424
217.484
216.808
216.959
217.187
216.438
215.496
215.684
216.224
216.002
215.116
221.78
213.761
214.311
214.438
214.505
214.669
215.123
215.188
214.441
220.494
211.173
211.297
212.015
212.615
212.801
213.361
213.287
212.048
214.712
206.279
205.964
205.608
205.709
206.108
206.25
206.32
205.7
203.397
199.823
192.274
191.354
190.4
189.527
189.501
189.879
188.749
184.906
170.982
168.388
168.082
167.412
166.018
164.677
163.639
162.258
158.127
137.268
135.221
132.734
132.097
131.434
129.889
127.67
124.135
118.943
93.0601
96.8849
92.9123
89.926
87.1017
84.964
82.507
79.1782
75.3131
71.3293
43.1659
55.7159
52.1733
50.2243
47.9772
44.5559
40.5093
40.2252
42.7575
22.5904
42.1269
39.5002
36.5743
38.2425
37.6276
38.0903
38.6247
39.1446
39.5698
39.5281
40.0343
40.1035
40.0737
40.3313
40.3987
40.6588
40.6216
40.7439
41.051
41.1048
41.3267
41.1132
41.1927
41.7516
41.5884
41.5769
41.7521
41.7023
42.1973
42.1985
42.1544
42.4461
42.4471
42.9268
42.7683
42.7428
43.8021
43.9498
43.7944
43.9846
44.0394
44.8116
45.1314
45.1054
45.3438
45.3688
45.8268
45.6583
45.6086
46.3791
46.3966
46.3351
46.2816
46.0806
46.2971
46.0488
45.9505
45.7314
45.3267
45.222
44.5626
44.5383
44.0966
42.7243
42.4531
41.2085
39.656
38.5633
36.8242
36.7159
34.1719
31.2433
29.2089
26.6786
27.2012
23.3777
17.8056
18.5059
13.0213
7.01281
2.3914
-1.1846
0.00343911
0.016485
0.017735
0.0205143
0.0224275
0.0236487
0.0248316
0.0263504
0.0282896
0.0305421
0.0335856
0.0378427
0.0435195
0.0506636
0.0586275
0.0667816
0.0736883
0.081523
0.0903442
0.100247
0.111242
0.122878
0.13468
0.145766
0.15458
0.158743
0.154666
0.137018
0.098125
0.0274726
-0.0888496
-0.268223
-0.530663
-0.896594
-1.38214
-1.9933
-2.72199
-3.54999
-4.46612
-5.49332
-6.70701
-8.22035
-10.1245
-12.3925
-14.7686
-16.6694
-17.1391
-14.9195
-8.71169
2.23686
17.0557
32.4093
37.8899
36.2324
18.5633
3.90555
2.45756
1.33342
0.494867
0.18596
-0.231399
0.50443
1.69392
4.07859
2.59015
1.12585
0.623368
0.174029
-0.363904
-1.22308
-0.578114
0.44203
1.33067
1.83864
2.01265
2.08103
2.20978
2.3535
3.48945
0.00483182
0.0385971
0.0441208
0.052443
0.0584101
0.0626641
0.0664659
0.0707064
0.0754969
0.0807672
0.0875656
0.0968979
0.108888
0.123519
0.140303
0.158914
0.17763
0.198548
0.222191
0.24871
0.278148
0.309531
0.342105
0.374426
0.403948
0.427155
0.438852
0.431623
0.395005
0.315327
0.174815
-0.0484073
-0.379734
-0.847875
-1.48109
-2.30424
-3.33701
-4.59752
-6.1152
-7.94906
-10.1935
-12.9455
-16.2187
-19.8206
-23.2222
-25.4599
-25.1122
-20.4002
-9.48751
8.79855
33.3522
58.5571
69.3865
56.9954
27.7014
6.56513
3.31771
0.978404
0.244972
-0.0955256
-0.80174
0.108393
1.41647
4.05965
2.37417
0.911378
0.203506
-0.179835
-0.834324
-2.26183
-1.71652
-0.33155
1.19283
2.49199
3.44296
4.19837
5.22298
6.89197
8.84669
0.0117821
0.0660757
0.0772729
0.0921911
0.103356
0.112596
0.120927
0.129661
0.139086
0.14945
0.16229
0.178584
0.19742
0.219613
0.245294
0.274954
0.307277
0.343828
0.385225
0.432028
0.484505
0.541889
0.603653
0.668664
0.734529
0.797862
0.853591
0.894214
0.908949
0.883755
0.80002
0.634888
0.361664
-0.0508493
-0.633635
-1.41533
-2.42027
-3.67117
-5.19931
-7.05737
-9.31748
-12.0303
-15.1336
-18.3296
-20.967
-21.9647
-19.815
-12.7069
1.15788
22.8126
50.6825
77.3887
85.6241
67.7851
36.9546
11.0646
4.44599
0.553958
0.00494273
-0.346069
-1.09474
-0.476328
0.772815
3.208
2.0111
0.568435
-0.329674
-0.569382
-0.956752
-2.17062
-1.32324
0.454416
2.18928
3.73915
4.91402
6.08459
8.06303
11.3135
14.1694
0.0193812
0.0942072
0.112603
0.134954
0.152094
0.167141
0.181018
0.19532
0.210625
0.227606
0.24852
0.273523
0.301039
0.333916
0.372075
0.416483
0.46626
0.523091
0.587731
0.661462
0.744747
0.837644
0.940111
1.05166
1.1705
1.29385
1.41726
1.53355
1.63194
1.69798
1.71199
1.64947
1.4814
1.1741
0.696019
0.0207421
-0.868991
-1.98251
-3.33026
-4.93539
-6.83131
-9.02243
-11.399
-13.6247
-15.0322
-14.5586
-10.7528
-1.90244
13.6428
36.7086
65.2706
90.2372
93.7607
73.8951
43.5722
15.2993
5.72375
0.110376
-0.348054
-0.679058
-1.49355
-1.08367
0.189729
2.39067
1.44074
0.194666
-0.684577
-0.659852
-0.783104
-1.21693
-0.123851
2.00683
3.92982
5.61562
6.92011
8.40814
10.9342
15.256
18.7196
0.0268937
0.1216
0.148525
0.179251
0.203467
0.225457
0.246228
0.267578
0.29041
0.315625
0.345369
0.379411
0.417196
0.462229
0.51462
0.575253
0.644191
0.723128
0.813125
0.916271
1.03295
1.16432
1.31092
1.47281
1.64877
1.83655
2.03212
2.22834
2.41413
2.57414
2.6873
2.7273
2.66289
2.46031
2.09014
1.53255
0.782106
-0.153667
-1.26453
-2.55051
-4.02155
-5.66138
-7.34815
-8.74842
-9.21886
-7.74264
-2.9353
6.8201
23.0425
46.4191
74.6243
97.0789
97.2853
78.2173
49.4351
19.3345
6.90334
-0.193945
-0.642472
-1.05453
-2.00674
-1.71394
-0.273743
1.83411
1.15343
-0.0688227
-0.732944
-0.629661
-0.757218
-0.0675756
1.14637
3.56107
5.74962
7.65326
9.17438
10.9399
13.7476
18.7422
22.8286
0.0332242
0.146636
0.182727
0.222174
0.254157
0.284042
0.312932
0.342859
0.375092
0.410631
0.450823
0.495847
0.546707
0.606143
0.674944
0.75391
0.843908
0.946654
1.06368
1.19771
1.3489
1.51946
1.71049
1.92242
2.15445
2.40456
2.66873
2.93952
3.20524
3.44942
3.64979
3.77868
3.80397
3.69448
3.42534
2.98546
2.3813
1.63375
0.765676
-0.213324
-1.30768
-2.50124
-3.67927
-4.52408
-4.41741
-2.37708
2.93366
13.0552
29.4032
52.6085
80.1767
100.325
99.1024
81.5063
54.3815
23.2755
7.95934
-0.445856
-0.986181
-1.60212
-2.67969
-2.36235
-0.605402
1.51456
1.04048
-0.243027
-0.543636
-0.504717
-0.857654
0.744547
2.18772
4.88786
7.42813
9.64456
11.4376
13.4412
16.4309
21.8088
26.4264
0.0386493
0.169557
0.215021
0.263155
0.303098
0.341144
0.378607
0.417749
0.46025
0.507315
0.559888
0.618584
0.685115
0.76167
0.849705
0.950212
1.06437
1.1941
1.34145
1.50944
1.69809
1.91051
2.14824
2.41192
2.70109
3.01376
3.34565
3.68883
4.03081
4.35416
4.63584
4.84778
4.95866
4.94055
4.77415
4.45648
4.00314
3.44305
2.80454
2.09901
1.32043
0.480183
-0.315433
-0.762338
-0.263413
2.13012
7.70349
17.9171
34.1049
56.9225
83.8297
102.135
100.205
83.856
58.448
26.9568
8.88458
-0.589388
-1.45924
-2.36446
-3.5194
-3.01667
-0.840785
1.32309
0.976675
-0.309186
-0.273687
-0.38927
-0.913877
1.05252
2.95411
5.92023
8.87725
11.4881
13.5642
15.7841
18.9448
24.5088
29.6114
0.0436071
0.191127
0.246175
0.303149
0.351223
0.397513
0.443682
0.492237
0.545274
0.604302
0.670423
0.744536
0.828354
0.924067
1.03366
1.15849
1.2999
1.46009
1.64168
1.84763
2.0781
2.33681
2.62561
2.94528
3.29558
3.67453
4.0775
4.49603
4.91688
5.3218
5.68741
5.98623
6.18891
6.27051
6.21696
6.03154
5.73587
5.36292
4.94289
4.48758
3.99038
3.46114
3.00091
2.90012
3.72808
6.38554
12.0887
22.2133
38.0435
60.3396
86.6071
103.479
101.227
85.8886
61.6085
30.0307
9.65715
-0.647726
-2.05306
-3.28373
-4.51139
-3.68114
-1.04345
1.09476
0.770837
-0.359539
-0.124819
-0.318274
-0.804117
1.05424
3.41983
6.65154
10.047
13.1174
15.4923
17.9168
21.2575
26.872
32.3855
0.0484672
0.211986
0.276982
0.343194
0.399735
0.454526
0.509601
0.567772
0.631547
0.702766
0.782824
0.872934
0.974724
1.09069
1.22317
1.37399
1.54474
1.7379
1.95677
2.20419
2.4805
2.78995
3.13455
3.51511
3.93157
4.3819
4.86113
5.36034
5.8658
6.35864
6.81539
7.20974
7.51488
7.70911
7.7827
7.74358
7.61722
7.43888
7.23963
7.03254
6.81255
6.58893
6.45523
6.68069
7.79344
10.6313
16.3342
26.2086
41.532
63.231
88.8969
104.593
102.139
87.567
63.9309
32.5286
10.2051
-0.711149
-2.74848
-4.36831
-5.67012
-4.46195
-1.4203
0.572759
0.287309
-0.515175
-0.147765
-0.261877
-0.529357
1.06544
3.66331
7.11164
10.9289
14.507
17.2084
19.8323
23.3595
28.9484
34.6989
0.0534369
0.232493
0.307957
0.383982
0.449566
0.513405
0.577832
0.646019
0.720849
0.804522
0.898675
1.00482
1.12474
1.26133
1.41719
1.59462
1.79554
2.02278
2.28046
2.5712
2.89574
3.25883
3.66257
4.10775
4.59437
5.12034
5.68034
6.26513
6.8608
7.44829
8.00435
8.50402
8.92335
9.24438
9.46132
9.58576
9.64589
9.67843
9.71487
9.76921
9.83691
9.92263
10.1047
10.6211
11.9497
14.8621
20.4312
29.9236
44.6461
65.7148
90.7985
105.491
102.827
88.7686
65.5465
34.3963
10.4931
-0.847598
-3.56278
-5.66489
-6.97362
-5.41535
-2.09833
-0.3159
-0.461911
-0.828882
-0.296792
-0.213615
-0.192085
1.19749
3.81587
7.37083
11.5576
15.6684
18.7237
21.5442
25.2535
30.7774
36.6535
0.0584665
0.252617
0.33911
0.425658
0.501101
0.574822
0.649407
0.728382
0.814897
0.911476
1.01998
1.1422
1.28033
1.43755
1.61683
1.82086
2.05191
2.31329
2.60989
2.94395
3.31709
3.73442
4.19819
4.70924
5.26754
5.87095
6.51384
7.18676
7.87591
8.56263
9.22439
9.83787
10.3821
10.8431
11.2191
11.5249
11.7905
12.0531
12.3435
12.6742
13.0371
13.4257
13.8952
14.6458
16.1046
18.9846
24.3083
33.3263
47.3892
67.784
92.2162
105.992
102.962
89.4089
66.6339
35.4914
10.5869
-0.965908
-4.4155
-7.07014
-8.28574
-6.44205
-2.98083
-1.42129
-1.38826
-1.29216
-0.523742
-0.196179
0.0554367
1.41385
3.94534
7.51078
12.0107
16.6378
20.0635
23.0743
26.9479
32.3817
38.2846
0.0633747
0.272093
0.370085
0.467858
0.554034
0.638622
0.724433
0.815301
0.914527
1.02485
1.14832
1.28707
1.44372
1.62174
1.82446
2.05491
2.31578
2.61091
2.9457
3.3219
3.74248
4.2127
4.73508
5.3106
5.93919
6.61868
7.3434
8.10382
8.88641
9.67343
10.4439
11.1764
11.8531
12.4642
13.0116
13.5129
13.9991
14.5066
15.0636
15.6774
16.3314
17.0029
17.7186
18.6397
20.1473
22.9062
27.8998
36.3732
49.7162
69.3307
92.9122
105.758
102.343
89.4033
67.0614
35.8411
10.4869
-1.09632
-5.27639
-8.42398
-9.50469
-7.46671
-3.98174
-2.62008
-2.42389
-1.8664
-0.802642
-0.213534
0.22489
1.70427
4.14189
7.62868
12.371
17.4601
21.2589
24.4465
28.4525
33.779
39.5919
0.0679738
0.290636
0.400469
0.510046
0.607704
0.704095
0.802218
0.906191
1.01937
1.14461
1.28415
1.44042
1.61644
1.81587
2.04242
2.29943
2.59005
2.91864
3.29071
3.7077
4.17402
4.69489
5.27316
5.91006
6.60551
7.35736
8.16018
9.00465
9.87774
10.763
11.6416
12.4947
13.3078
14.0747
14.8012
15.5069
16.2228
16.9828
17.8105
18.7052
19.6376
20.5651
21.4847
22.5197
24.0101
26.5792
31.1735
39.0324
51.5742
70.2328
92.6665
104.572
101.005
88.9077
66.708
35.5567
10.0843
-1.53254
-6.2692
-9.72187
-10.7035
-8.53847
-5.13039
-3.90683
-3.53808
-2.51124
-1.12122
-0.254738
0.387688
2.11371
4.47795
7.81484
12.7058
18.1778
22.338
25.6822
29.7818
34.9933
40.6318
0.0721579
0.308082
0.429972
0.551796
0.661525
0.770495
0.881858
1.00001
1.1283
1.26974
1.4267
1.60188
1.79855
2.02057
2.2719
2.55622
2.87707
3.23928
3.64813
4.10521
4.61603
5.18557
5.81706
6.51205
7.27052
8.09039
8.96664
9.89062
10.8501
11.8302
12.8146
13.7878
14.7386
15.6645
16.5744
17.4897
18.4403
19.4561
20.5541
21.7239
22.9206
24.0795
25.1677
26.2722
27.6947
30.0191
34.1518
41.3205
52.9628
70.4675
91.4303
102.279
99.0213
87.9139
65.6602
34.6201
9.34473
-2.3815
-7.61972
-11.2461
-12.0623
-9.8222
-6.54131
-5.35877
-4.76107
-3.20701
-1.47446
-0.32086
0.543816
2.52119
4.88767
8.1268
13.0672
18.8333
23.3214
26.7984
30.9561
36.0461
41.4348
0.0759207
0.324377
0.458447
0.592839
0.715096
0.837247
0.962557
1.09569
1.24005
1.39879
1.57445
1.76997
1.98877
2.23486
2.5124
2.8253
3.17747
3.57403
4.01996
4.51759
5.07265
5.69001
6.37322
7.12414
7.94296
8.82774
9.77398
10.774
11.8169
12.8896
13.9786
15.0719
16.1622
17.2503
18.3482
19.4782
20.6685
21.9438
23.3127
24.7535
26.2043
27.5763
28.8061
29.9457
31.2601
33.2943
36.9108
43.3171
53.9616
70.137
89.3285
98.8866
96.3801
86.2049
64.0403
32.9898
8.22731
-3.74978
-9.50368
-13.2091
-13.8299
-11.6147
-8.37876
-7.10535
-6.1787
-3.98114
-1.87697
-0.420355
0.693029
2.85483
5.335
8.54733
13.4963
19.4567
24.2247
27.8081
31.9882
36.957
42.0824
0.0793718
0.339623
0.485927
0.633096
0.768225
0.903984
1.04374
1.19241
1.3535
1.53035
1.72571
1.94273
2.18502
2.45667
2.76197
3.105
3.48998
3.92215
4.40636
4.94587
5.5461
6.21192
6.94704
7.75369
8.63234
9.58138
10.5969
11.6724
12.7988
13.9651
15.1609
16.3777
17.6124
18.8692
20.1625
21.5153
22.9535
24.4951
26.1388
27.85
29.5484
31.1199
32.4699
33.6161
34.7887
36.4953
39.5529
45.1394
54.7015
69.3934
86.5503
94.6169
93.0673
83.5634
61.9102
30.7751
6.57056
-5.75768
-12.0006
-15.7647
-16.265
-14.1897
-10.8168
-9.21852
-7.86631
-4.90478
-2.36741
-0.565367
0.844006
3.18791
5.86841
9.07233
14.0076
20.0588
25.0617
28.7211
32.8855
37.7223
42.5946
0.0827006
0.354093
0.512653
0.672725
0.820955
0.970601
1.12512
1.28966
1.46788
1.66332
1.87903
2.11838
2.38517
2.68361
3.01804
3.3927
3.81203
4.28135
4.80557
5.38873
6.036
6.75221
7.54117
8.40538
9.34576
10.3612
11.4486
12.6029
13.8168
15.0821
16.3913
17.7399
19.1286
20.5649
22.0653
23.6531
25.3508
27.1686
29.0933
31.0755
33.0158
34.7741
36.2243
37.3509
38.3521
39.7008
42.1682
46.8939
55.2982
68.3598
83.216
89.6972
89.0952
79.968
59.0852
28.1035
4.33549
-8.41214
-15.2468
-19.1139
-19.5306
-17.4851
-13.9093
-11.6743
-9.78972
-6.03354
-2.99425
-0.761113
1.00317
3.55034
6.50566
9.67766
14.581
20.6468
25.8464
29.5435
33.658
38.3451
43.003
0.0861162
0.368174
0.53902
0.712068
0.87355
1.03725
1.20669
1.38727
1.58281
1.7971
2.03349
2.29563
2.58755
2.91361
3.27819
3.68564
4.14062
4.64855
5.21456
5.84329
6.53991
7.30923
8.15514
9.08045
10.0865
11.173
12.3379
13.5775
14.8869
16.2605
17.6943
19.1873
20.744
22.3751
24.0982
25.9359
27.9066
30.0114
32.2229
34.475
36.649
38.5788
40.1081
41.1896
41.9925
42.9568
44.8072
48.6392
55.803
67.1012
79.3743
84.2727
84.4208
75.3358
55.2823
25.0531
1.42679
-11.7832
-19.1101
-23.1875
-23.5347
-21.3807
-17.5375
-14.3997
-11.7654
-7.29802
-3.77388
-1.01923
1.16895
3.94564
7.16859
10.3376
15.1952
21.2371
26.5923
30.2826
34.3204
38.852
43.3403
0.089787
0.382254
0.565442
0.751511
0.926361
1.10422
1.28867
1.48536
1.69829
1.93153
2.18873
2.47385
2.79121
3.14534
3.54068
3.98168
4.47323
5.02092
5.63026
6.30636
7.05463
7.87998
8.78651
9.77736
10.8544
12.0183
13.2682
14.6022
16.0176
17.512
19.0844
20.7376
22.4796
24.3232
26.2865
28.3901
30.6472
33.0479
35.5492
38.0667
40.462
42.5446
44.1296
45.1402
45.7179
46.2707
47.4739
50.3704
56.2011
65.6333
75.122
78.4724
78.9843
69.7236
50.4364
21.591
-2.2317
-15.7694
-23.3684
-27.7521
-28.2043
-25.9608
-21.7137
-17.5257
-13.83
-8.6067
-4.65913
-1.36498
1.31169
4.3584
7.81027
11.0537
15.8666
21.8639
27.3039
30.9516
34.89
39.2597
43.5851
0.0938035
0.396652
0.592257
0.791383
0.979714
1.17184
1.3714
1.58427
1.81468
2.06692
2.34496
2.65311
2.99601
3.3784
3.80482
4.27981
4.80852
5.39684
6.05068
6.77568
7.57761
8.46172
9.4325
10.4936
11.6475
12.8959
14.2393
15.6779
17.2115
18.8405
20.5671
22.3976
24.3428
26.4174
28.6383
31.0228
33.577
36.2793
39.0694
41.8439
44.4442
46.6574
48.2725
49.1845
49.5077
49.6175
50.1346
52.0342
56.4472
63.9119
70.5744
72.4391
72.8318
63.3607
44.7308
17.5841
-6.42679
-20.159
-27.8357
-32.6388
-33.3902
-30.9788
-26.2444
-21.0464
-16.2257
-10.0921
-5.6176
-1.80346
1.39048
4.75753
8.45401
11.8593
16.6054
22.5504
27.9755
31.5643
35.389
39.5802
43.7224
0.0981691
0.411582
0.619699
0.831929
1.03387
1.24039
1.45523
1.68447
1.93248
2.20381
2.50276
2.834
3.2025
3.61323
4.07089
4.58017
5.14648
5.77609
6.4754
7.25057
8.10791
9.05319
10.0915
11.2273
12.4638
13.8038
15.2496
16.8033
18.4673
20.2448
22.1412
24.1657
26.3316
28.6542
31.1484
33.826
36.6849
39.6902
42.7638
45.7827
48.569
50.8879
52.5048
53.2883
53.3233
52.9525
52.737
53.5674
56.5052
61.9056
65.8429
66.3551
66.1188
56.4071
38.3157
12.8895
-10.8419
-24.7818
-32.3321
-37.6954
-38.7697
-36.2471
-31.1134
-24.9959
-19.0283
-11.9184
-6.69789
-2.31022
1.39752
5.12626
9.09874
12.7598
17.4215
23.2834
28.6053
32.1306
35.8376
39.8247
43.7561
0.102801
0.427154
0.64789
0.873296
1.08899
1.31013
1.54051
1.78637
2.05223
2.34289
2.66296
3.01747
3.41173
3.85093
4.34002
4.88391
5.4883
6.15987
6.90556
7.73214
8.64653
9.6552
10.7642
11.9786
13.3031
14.7415
16.298
17.9768
19.7829
21.7222
23.803
26.0369
28.439
31.0243
33.8044
36.7843
39.9515
43.257
46.6046
49.852
52.8024
55.2002
56.7883
57.4104
57.1188
56.2245
55.2293
54.9176
56.3485
59.6738
61.0529
60.2735
59.0176
48.9816
31.37
7.5247
-15.3947
-29.3569
-36.6272
-42.6448
-44.0662
-41.8605
-36.421
-29.4035
-22.1917
-14.1115
-7.97367
-2.90188
1.34264
5.46294
9.73237
13.701
18.3008
24.0439
29.2022
32.6603
36.2417
39.999
43.7171
0.107556
0.443379
0.676842
0.915533
1.14519
1.3812
1.62745
1.8903
2.17442
2.48482
2.82643
3.20461
3.62498
4.09301
4.61391
5.1929
5.83605
6.55045
7.34359
8.22296
9.19616
10.2705
11.4531
12.7501
14.1674
15.7106
17.3854
19.1986
21.1577
23.271
25.5493
28.0063
30.6577
33.5176
36.5931
39.8807
43.3565
46.9559
50.5641
54.0209
57.1112
59.5591
61.0863
61.5124
60.8527
59.3879
57.5699
56.0476
55.933
57.2806
56.3607
54.2522
51.7592
41.2512
24.1047
1.67258
-20.1564
-33.5175
-40.5956
-47.3045
-49.2306
-47.6794
-41.9979
-34.2954
-25.8221
-16.6476
-9.49579
-3.63999
1.21138
5.75528
10.3554
14.6328
19.2174
24.8209
29.7822
33.166
36.6005
40.1152
43.6195
0.112279
0.46022
0.706507
0.958627
1.20247
1.45366
1.71615
1.99647
2.2994
2.63017
2.99397
3.39648
3.8436
4.34109
4.89449
5.50939
6.19227
6.95067
7.79269
8.72656
9.76069
10.9034
12.1627
13.5463
15.0613
16.7151
18.5155
20.4716
22.5934
24.8918
27.3793
30.071
32.9828
36.1266
39.5035
43.1012
46.8829
50.767
54.6198
58.264
61.4684
63.9364
65.3698
65.565
64.4953
62.4131
59.7319
56.9562
55.2796
54.7778
51.9213
48.4306
44.5444
33.464
16.7885
-4.34061
-25.0513
-37.2136
-44.1516
-51.5484
-54.294
-53.3841
-47.6672
-39.477
-29.8772
-19.5438
-11.2785
-4.55244
0.981652
5.99392
10.9621
15.5557
20.172
25.6127
30.3609
33.6571
36.9188
40.1814
43.443
0.116856
0.477635
0.736816
1.00253
1.26079
1.52747
1.80663
2.10497
2.4274
2.77935
3.16622
3.59397
4.06877
4.5967
5.18364
5.83562
6.55958
7.36355
8.2563
9.24686
10.3445
11.5586
12.8984
14.3728
15.9906
17.7609
19.6938
21.8008
24.0944
26.5877
29.2949
32.2313
35.4126
38.8471
42.5291
46.4363
50.5185
54.6765
58.7563
62.5646
65.8558
68.3138
69.6214
69.5521
68.0338
65.29
61.6932
57.6399
54.4413
52.229
47.8223
42.9248
37.5034
25.9503
9.76509
-10.2702
-29.8192
-40.6684
-47.3437
-55.2667
-59.0056
-58.6719
-53.0389
-44.5083
-34.0823
-22.7469
-13.3145
-5.62101
0.639735
6.17754
11.5262
16.4679
21.1667
26.4156
30.9394
34.1333
37.2065
40.2106
43.207
0.121229
0.49561
0.767718
1.0472
1.32009
1.6026
1.89889
2.21584
2.55855
2.93262
3.34365
3.79781
4.30152
4.86118
5.48306
6.17367
6.94044
7.79199
8.73778
9.78772
10.9521
12.2413
13.6658
15.2359
16.9619
18.855
20.9273
23.1929
25.6668
28.3642
31.3
34.49
37.948
41.6783
45.667
49.8807
54.2561
58.6761
62.9651
66.9138
70.2647
72.684
73.8363
73.471
71.4707
68.0341
63.4697
58.1355
53.4625
49.7016
44.0518
37.8545
30.7412
18.9
3.28806
-15.8079
-34.0873
-44.0271
-50.2406
-58.5056
-63.1939
-63.2906
-57.7834
-49.081
-38.1465
-26.1143
-15.5918
-6.84924
0.190091
6.29218
12.0249
17.3454
22.173
27.2152
31.515
34.5931
37.4671
40.2151
42.9253
0.125396
0.514164
0.799192
1.09262
1.38034
1.67903
1.99291
2.32912
2.69294
3.09016
3.52655
4.00849
4.54261
5.13562
5.7942
6.52535
7.33707
8.23857
9.24012
10.3526
11.5873
12.9559
14.4699
16.1411
17.9815
20.0039
22.2228
24.6548
27.3173
30.2272
33.4001
36.8509
40.5916
44.6213
48.9165
53.4319
58.0916
62.7609
67.2421
71.3088
74.6937
77.0485
78.0194
77.3284
74.8244
70.6714
65.0696
58.4894
52.3939
47.2808
40.6225
33.3085
24.4645
12.4339
-2.50021
-20.5185
-37.6155
-47.1833
-52.7642
-61.5263
-66.8761
-67.2735
-62.0017
-53.2681
-41.9971
-29.4579
-18.0323
-8.26164
-0.36882
6.3143
12.452
18.1599
23.1625
28.0082
32.0931
35.0336
37.6966
40.1951
42.632
0.129373
0.533339
0.831245
1.1388
1.4416
1.75682
2.08879
2.44491
2.83069
3.25211
3.71517
4.22641
4.79263
5.42086
6.11817
6.89212
7.75127
8.7055
9.76589
10.9444
12.2535
13.706
15.3149
17.0932
19.0545
21.2133
23.5865
26.1928
29.0519
32.1824
35.5998
39.3179
43.3458
47.6769
52.2773
57.0884
62.0221
66.9279
71.5851
75.7491
79.1452
81.4146
82.179
81.1364
78.1272
73.2215
66.5601
58.7531
51.3291
45.0737
37.565
29.2875
18.9297
6.74635
-7.33467
-24.1535
-40.3825
-49.9775
-55.0274
-64.5057
-70.1883
-70.7587
-65.7294
-57.0249
-45.6143
-32.7197
-20.5118
-9.82339
-1.05529
6.23998
12.8073
18.905
24.0886
28.7669
32.6716
35.4514
37.8927
40.162
42.3449
0.133169
0.55317
0.863894
1.18583
1.50397
1.83613
2.1867
2.56338
2.97198
3.41869
3.90975
4.45185
5.05201
5.71749
6.45582
7.27509
8.18444
9.19446
10.3171
11.5655
12.9534
14.4948
16.2041
18.0958
20.1848
22.4875
25.0226
27.8111
30.875
34.2337
37.9025
41.893
46.2112
50.8447
55.7476
60.8474
66.0443
71.1732
75.9908
80.2332
83.6223
85.7879
86.3183
84.9129
81.3949
75.6907
68.0238
58.9748
50.3505
43.0925
34.8928
25.7658
14.2438
1.97395
-11.169
-26.7704
-42.3926
-52.345
-57.4827
-67.4343
-73.2079
-73.7878
-68.9006
-60.2513
-48.8664
-35.8072
-22.9547
-11.4537
-1.86072
6.08426
13.0845
19.579
24.9246
29.4662
33.2275
35.847
38.0666
40.1271
42.0353
0.136785
0.57367
0.897137
1.23379
1.56761
1.91716
2.28688
2.68484
3.11711
3.59019
4.11057
4.68515
5.3211
6.02599
6.80777
7.67506
8.63761
9.70672
10.8953
12.2176
13.6887
15.3242
17.1398
19.1512
21.375
23.8289
26.5336
29.5122
32.7884
36.3826
40.3087
44.5758
49.1862
54.1212
59.3228
64.7034
70.1521
75.4909
80.453
84.757
88.1253
90.1677
90.4437
88.6844
84.6069
78.1206
69.4746
59.2016
49.5069
41.3961
32.6569
22.7058
10.2556
-2.00686
-14.2089
-28.6177
-43.7702
-54.3092
-60.3178
-70.3584
-76.0527
-76.5077
-71.628
-62.9998
-51.685
-38.5889
-25.2934
-13.0657
-2.76126
5.86466
13.2766
20.1585
25.6897
30.126
33.7547
36.2243
38.2406
40.0954
41.7838
0.140205
0.594812
0.930938
1.28271
1.63263
2.00014
2.38966
2.80965
3.26649
3.76703
4.31806
4.92669
5.60032
6.34679
7.17448
8.09257
9.11142
10.2431
11.5014
12.9018
14.4609
16.1956
18.1231
20.2607
22.626
25.2384
28.12
31.296
34.7916
38.6277
42.8164
47.3629
52.2659
57.5
62.9949
68.6477
74.3367
79.8714
84.9627
89.3149
92.6478
94.5438
94.5641
92.438
87.7609
80.5452
70.8735
59.4602
48.833
40.0171
30.808
20.0751
6.84255
-5.38652
-16.63
-29.8978
-44.7484
-56.1058
-63.488
-73.3492
-78.8501
-79.058
-74.0362
-65.3503
-54.0693
-40.9802
-27.4145
-14.6104
-3.68858
5.57518
13.398
20.6162
26.3714
30.7669
34.2564
36.5894
38.4345
40.0886
41.579
0.14338
0.616535
0.965233
1.33261
1.69912
2.08527
2.49533
2.93821
3.42057
3.9497
4.53272
5.17699
5.89014
6.68033
7.55638
8.52801
9.60627
10.8039
12.1358
13.6187
15.2704
17.1095
19.1546
21.4243
23.9377
26.7153
29.7807
33.1607
36.882
40.9655
45.4207
50.2484
55.4424
60.9717
66.7534
72.6686
78.5854
84.3024
89.5098
93.8975
97.1737
98.9151
98.6923
96.1488
90.9041
82.9177
72.2329
59.7619
48.2897
38.9102
29.3185
17.7516
3.88281
-8.26755
-18.5649
-30.6752
-45.4709
-57.9812
-66.9015
-76.4218
-81.6442
-81.4922
-76.2101
-67.3789
-56.0568
-42.9549
-29.228
-16.0255
-4.5534
5.18417
13.5133
20.9636
26.9834
31.3858
34.7212
36.9611
38.6598
40.1223
41.3885
0.146271
0.638781
0.999943
1.38347
1.76717
2.17272
2.60416
3.07084
3.57978
4.13872
4.75511
5.43661
6.19112
7.02712
7.95388
8.98171
10.1223
11.3894
12.7986
14.368
16.1169
18.0653
20.2334
22.6412
25.3087
28.2577
31.513
35.1025
39.0546
43.3899
48.1146
53.2235
58.7057
64.5249
70.5857
76.7524
82.8834
88.7701
94.0844
98.4916
101.691
103.288
102.774
99.8267
94.0515
85.2277
73.5714
60.1158
47.847
37.9876
28.1573
15.7831
1.31695
-10.6688
-20.1216
-31.0409
-45.9524
-60.0156
-70.4067
-79.5229
-84.3943
-83.8057
-78.2004
-69.1551
-57.7069
-44.5305
-30.6817
-17.23
-5.34243
4.72036
13.6371
21.2312
27.5757
31.99
35.1435
37.3493
38.9194
40.2024
41.2392
0.148865
0.661518
1.03499
1.43527
1.83678
2.26255
2.71626
3.20778
3.74445
4.33449
4.98574
5.70612
6.50384
7.38769
8.36742
9.45395
10.6598
11.9993
13.4894
15.1493
16.9996
19.062
21.3581
23.9092
26.7364
29.8623
33.3125
37.1164
41.3033
45.8934
50.8891
56.2782
62.0443
68.1466
74.478
80.8837
87.2146
93.2611
98.6729
103.078
106.196
107.648
106.817
103.491
97.1322
87.539
74.9162
60.566
47.5609
37.181
27.1232
14.1707
-0.853917
-12.611
-21.3965
-31.0941
-46.1801
-62.2163
-73.854
-82.5673
-87.0241
-85.9693
-80.0261
-70.7327
-59.0861
-45.7568
-31.7712
-18.1634
-6.01509
4.32993
13.702
21.4832
28.1241
32.5774
35.5453
37.7567
39.2135
40.326
41.1116
0.151176
0.684731
1.07034
1.48795
1.90792
2.35474
2.83169
3.34913
3.91476
4.5373
5.22495
5.98594
6.82874
7.76247
8.79736
9.94495
11.2185
12.6334
14.2075
15.9613
17.917
20.0976
22.5263
25.2254
28.2171
31.5244
35.1738
39.1956
43.62
48.4667
53.7337
59.4008
65.4454
71.8233
78.4154
85.0469
91.5642
97.7622
103.259
107.653
110.699
111.94
110.848
107.107
100.198
89.8582
76.2636
61.1031
47.4617
36.5353
26.1201
12.8268
-2.62482
-14.1125
-22.3883
-30.9483
-46.18
-64.5347
-77.1481
-85.4765
-89.4577
-87.9441
-81.6847
-72.145
-60.254
-46.6978
-32.5233
-18.7909
-6.50599
4.05328
13.6485
21.838
28.57
33.1395
35.9621
38.182
39.5412
40.4875
41.0143
0.15326
0.708452
1.10601
1.5415
1.98055
2.44921
2.95037
3.49482
4.09071
4.74721
5.47289
6.27625
7.16602
8.15167
9.24387
10.4548
11.7985
13.2913
14.9521
16.8028
18.8671
21.1696
23.7346
26.5858
29.7459
33.2384
37.0902
41.3322
45.9956
51.0994
56.6369
62.5789
68.8957
75.5406
82.3826
89.2272
95.9189
102.257
107.826
112.21
115.158
116.184
114.848
110.628
103.243
92.1402
77.6129
61.6894
47.5131
36.1271
25.2556
11.6862
-3.97197
-15.2248
-23.0653
-30.6807
-46.0334
-66.8907
-80.2449
-88.1872
-91.6385
-89.6947
-83.1626
-73.4046
-61.2539
-47.4169
-32.9864
-19.1134
-6.7682
3.87575
13.5688
22.2615
28.8813
33.6986
36.4301
38.618
39.8939
40.6852
40.9659
0.155236
0.732719
1.14206
1.59589
2.0546
2.54586
3.07213
3.64471
4.27216
4.96411
5.72943
6.57692
7.51558
8.55517
9.7068
10.9832
12.3992
13.9721
15.722
17.6721
19.8476
22.2749
24.9794
27.9857
31.3172
34.9976
39.0538
43.5172
48.4197
53.78
59.5863
65.7995
72.3812
79.2829
86.3643
93.4109
100.264
106.727
112.37
116.752
119.563
120.433
118.76
114.118
106.217
94.3674
78.9854
62.3103
47.629
35.9665
24.6772
10.7609
-4.85764
-15.9818
-23.4359
-30.3327
-45.8167
-69.1691
-83.1162
-90.6506
-93.5417
-91.2024
-84.4419
-74.5064
-62.1088
-47.9647
-33.216
-19.1557
-6.77514
3.84657
13.6112
22.5752
29.1222
34.292
36.9731
39.0459
40.2477
40.9093
40.9271
0.157256
0.757548
1.17853
1.65111
2.12999
2.64453
3.19678
3.79855
4.45883
5.18763
5.99416
6.8875
7.8769
8.97245
10.1856
11.5296
13.0199
14.6748
16.5156
18.567
20.8559
23.41
26.2563
29.42
32.9249
36.7947
41.056
45.7407
50.8814
56.4965
62.5695
69.0492
75.8872
83.0347
90.3461
97.5848
104.583
111.161
116.882
121.213
123.944
124.652
122.621
117.601
109.09
96.5424
80.3934
62.9975
47.7801
35.9726
24.399
10.0911
-5.28472
-16.3791
-23.5598
-29.9343
-45.5843
-71.2506
-85.7149
-92.8417
-95.1807
-92.4681
-85.5114
-75.4374
-62.8239
-48.3727
-33.2638
-18.9557
-6.52972
3.99249
13.723
22.6537
29.43
34.925
37.6152
39.4723
40.5629
41.1528
40.9657
0.159504
0.782923
1.2155
1.70713
2.20666
2.7451
3.32413
3.95607
4.65031
5.41723
6.26639
7.20716
8.24908
9.4025
10.6792
12.0927
13.6592
15.3976
17.3308
19.485
21.8887
24.5711
27.5605
30.883
34.5623
38.6218
43.0878
47.9924
53.3692
59.2369
65.5737
72.3146
79.399
86.7808
94.3136
101.733
108.861
115.557
121.344
125.613
128.318
128.752
126.462
121.013
111.855
98.6801
81.8355
63.7832
48.0093
36.0153
24.3073
9.69272
-5.36998
-16.4369
-23.505
-29.5111
-45.3559
-73.0335
-87.9853
-94.7605
-96.5882
-93.5046
-86.3711
-76.1871
-63.3937
-48.6552
-33.1709
-18.5564
-6.059
4.3161
13.8776
22.6642
29.9133
35.5872
38.3702
39.9373
40.8239
41.4208
41.044
0.162161
0.808758
1.25298
1.76395
2.28453
2.84742