/*--------------------------------*- C++ -*----------------------------------*\
| =========                 |                                                 |
| \\      /  F ield         | OpenFOAM: The Open Source CFD Toolbox           |
|  \\    /   O peration     | Version:  4.1                                   |
|   \\  /    A nd           | Web:      www.OpenFOAM.org                      |
|    \\/     M anipulation  |                                                 |
\*---------------------------------------------------------------------------*/
FoamFile
{
    version     2.0;
    format      ascii;
    class       surfaceScalarField;
    location    "20";
    object      phi;
}
// * * * * * * * * * * * * * * * * * * * * * * * * * * * * * * * * * * * * * //

dimensions      [0 3 -1 0 0 0 0];

internalField   nonuniform List<scalar> 
13220
(
-906.841
2206.74
-1504.66
1898.02
-1985.11
1780.36
-2354.92
1669.71
-2630.25
1575.53
-2818.68
1488.33
-2923.48
1404.7
-2944.45
1321.17
-2880.27
1235.72
-2727.82
1147.45
-2482.44
1054.82
-2127.43
944.894
-1626.87
799.341
-956.008
629.345
343.892
423.573
1783.18
466.671
1854.93
450.487
1796.55
411.05
1709.16
378.612
1607.98
352.497
1514.46
333.24
1423.97
321.537
1332.88
314.109
1243.16
304.794
1156.78
285.451
1074.17
242.34
988.019
165.841
875.856
88.5336
706.67
432.426
181.144
1602.04
21.0084
2015.08
-139.974
1957.54
-258.555
1827.75
-362.792
1712.23
-459.812
1611.49
-546.879
1511.05
-624.39
1410.41
-690.526
1309.31
-742.838
1209.1
-777.042
1108.39
-774.42
985.418
-684.584
786.049
-432.697
454.82
-0.270244
215.89
1386.16
135.957
2095.02
1.94264
2091.57
-93.4406
1923.15
-169.544
1788.34
-229.563
1671.52
-269.431
1550.93
-289.357
1430.35
-291.331
1311.3
-275.843
1193.63
-241.671
1074.23
-184.043
927.807
-101.109
703.14
-9.74739
363.489
-10.0172
282.484
1103.69
348.998
2028.51
326.071
2114.5
305.589
1943.64
296.162
1797.78
292.624
1675.07
292.684
1550.88
296.652
1426.39
303.316
1304.64
310.745
1186.21
318.314
1066.67
320.306
925.839
297.034
726.439
215.926
444.628
205.908
248.791
854.905
359.129
1918.18
370.087
2103.55
350.808
1962.93
335.705
1812.89
324.744
1686.04
313.374
1562.26
299.316
1440.45
283.465
1320.5
265.814
1203.87
244.974
1087.51
219.042
951.757
177.758
767.71
109.12
513.254
315.028
130.984
723.929
214.01
1835.16
238.732
2078.84
216.389
1985.28
193.027
1836.26
173.328
1705.74
154.758
1580.83
136.672
1458.54
118.788
1338.38
102.494
1220.17
87.8363
1102.17
75.1742
964.448
61.2421
781.669
44.5753
529.947
359.603
35.6152
688.318
85.2343
1785.55
125.186
2038.89
115.068
1995.4
99.8118
1851.52
88.0342
1717.52
76.3206
1592.54
65.5679
1469.29
56.11
1347.84
47.0447
1229.23
39.3257
1109.89
35.7126
968.029
32.5355
784.816
28.4435
534.01
388.047
11.537
676.784
49.3028
1747.79
93.6107
1994.58
93.7436
1995.27
84.4731
1860.79
76.7146
1725.28
69.6179
1599.64
61.9624
1476.95
54.845
1354.96
48.1244
1235.96
41.1243
1116.89
38.7832
970.409
37.3885
786.246
29.0108
542.421
417.057
27.3889
649.388
68.9612
1706.21
107.604
1955.93
108.745
1994.13
99.2498
1870.28
88.8095
1735.72
79.4328
1609.02
70.8116
1485.57
61.7744
1363.99
53.3715
1244.35
45.698
1124.56
42.4579
973.605
40.398
788.264
29.139
553.64
446.196
41.3002
608.073
83.853
1663.65
116.355
1923.42
117.02
1993.45
106.64
1880.65
95.2453
1747.1
83.6677
1620.58
73.0181
1496.21
62.9182
1374.08
52.7823
1254.47
44.0865
1133.24
41.6609
976.033
39.5851
790.334
26.9397
566.279
473.136
21.6217
586.428
46.4625
1638.79
66.6057
1903.26
61.4401
1998.6
47.9141
1894.15
34.3401
1760.66
23.7165
1631.18
14.1952
1505.71
6.74062
1381.51
1.6479
1259.54
-1.66505
1136.53
3.97142
970.345
13.0085
781.245
13.2671
565.973
486.402
-5.22228
591.628
22.2755
1611.28
41.7795
1883.74
48.3599
1992.01
44.769
1897.73
33.8119
1771.6
20.1638
1644.81
7.14613
1518.71
-6.3791
1395.02
-17.8165
1270.96
-20.6676
1139.37
-11.6787
961.336
0.883383
768.661
-7.02186
573.859
479.381
-193.69
785.305
-322.062
1739.65
-399.295
1960.96
-452.847
2045.56
-476.377
1921.25
-484.057
1779.28
-477.878
1638.63
-463.709
1504.54
-439.585
1370.89
-404.234
1235.61
-333.965
1069.1
-244.118
871.497
-150.34
674.896
-81.3598
504.892
398.022
-167.221
12.6568
32.7236
9.3843
-98.6074
-218.618
-331.405
-419.012
-473.977
-465.773
-433.316
-361.102
-281.681
-184.296
0.00194099
403.67
-403.665
403.673
403.676
403.679
780.368
-376.686
780.37
780.373
780.375
1099.12
-318.742
1099.12
1099.12
1374.69
-275.567
1374.69
1374.7
1374.7
1603.27
-228.572
1603.27
1603.28
1794.95
-191.67
1794.95
1794.95
1794.95
1931.09
-136.137
1931.09
1931.09
1931.1
2013.2
-82.1026
2013.2
2013.2
2056.34
-43.1302
2056.34
2056.34
2056.34
2036.87
19.4758
2036.87
2036.87
1983.4
53.4769
1983.4
1983.4
1983.4
1871.76
111.639
1871.77
1871.77
1871.77
1721.43
150.339
1721.43
1721.44
1540.23
181.204
1540.24
1540.24
1540.24
1308.24
232.002
1308.24
1308.24
1308.25
1040.09
268.163
1040.09
1040.09
736.592
303.504
736.592
736.597
736.597
392.706
343.897
392.707
392.714
29.9619
362.752
29.9701
29.9707
29.9789
-355.579
385.557
-355.569
-355.569
-355.56
-852.029
496.465
-852.02
-852.029
-1449.11
597.084
-1449.12
-1449.11
-1418.33
-1376.06
-1341.05
-2305.43
1000.81
-2251.04
-2189.39
-2116.55
-2041.6
-1965.75
-1886.58
-1793.12
-1689.42
-3187.32
1602.79
-3065.58
-2948.83
-2831.65
-2689.61
-2545.69
-2398.46
-2242.85
-2085.2
-4209.53
2298.31
-4014.02
-3818.78
-3622.42
-3425.06
-3218.68
-2996.86
-2771.5
-2537.26
-2299.16
-4987.84
2923.72
-4724.25
-4458.49
-4190.66
-3922.43
-3654.09
-3371.3
-3073.08
-2768.82
-5826.49
3352.3
-5523.75
-5212.93
-4889.85
-4563.78
-4235.72
-3905.54
-3567.05
-3205.04
-6430.5
3575.82
-6075.2
-5717.79
-5361.98
-4992.21
-4614.55
-4234.21
-3848.96
-3460.94
-6508.19
3429.44
-6120.72
-5728.92
-5339.95
-4954.7
-4573.87
-4196.9
-3821.6
-3451.5
-3086.28
-4809.87
2073.89
-4497
-4188.57
-3890.84
-3600.3
-3317.22
-3069.6
-2887.32
-2701.19
-2302.47
-207.597
-2148.2
-1993.6
-1993.59
-1808.84
-184.751
-1712.62
-96.2186
-1712.62
-1625.79
-86.8215
-1625.79
-1607.56
-18.2315
-1611.48
3.92135
-1611.47
-1633.49
22.0161
-1662.57
29.0856
-1662.57
-1703.76
41.1948
-1703.76
-1757.23
53.4709
-1792.83
35.5978
-1792.83
-1835.47
42.6433
-1835.47
-1880.07
44.6049
-1894.47
14.3955
-1894.47
-1914.96
20.4899
-1903.15
-11.7994
-1903.15
-1891.55
-11.6012
-1891.55
-1874.1
-17.4479
-1827.06
-47.0392
-1827.06
-1777.63
-49.4296
-1777.63
-1718.89
-58.7388
-1635.25
-83.6418
-1635.25
-1544.39
-90.8582
-1431.38
-113.015
-1431.38
-1303.75
-127.624
-1303.75
-1164.59
-139.165
-1007.39
-157.195
-1007.39
-834.9
-172.493
-834.902
-645.379
-189.522
-446.556
-198.826
-446.556
-233.731
-212.828
-27.8119
-205.92
-27.8161
174.028
-201.844
174.025
391.407
-217.383
629.038
-237.634
629.038
879.542
-250.507
879.542
1142.32
-262.785
1425.23
-282.91
1425.23
1726.76
-301.524
2047.13
-320.372
2047.13
2389.41
-342.28
2389.41
2744.72
-355.316
3116
-371.283
3116
3511.27
-395.269
3511.27
3919.13
-407.86
4341.01
-421.884
4341.02
4785.26
-444.249
5250.6
-465.337
5250.6
5757.64
-507.038
5757.64
-569.07
-1407.01
-212.393
-1417.79
-253.516
-1425.16
-246.653
-1432.78
-249.97
-1439.78
-245.615
-1446.38
-238.121
-1452.67
-226.924
-1458.74
-212.186
-1464.69
-193.982
-1470.61
-172.316
-1476.56
-147.152
-1482.61
-118.412
-1488.86
-86.0366
-1495.45
-49.6639
-1502.37
-8.90095
-1510.17
35.8503
-1520.6
83.6782
-1534.25
138.926
-1551.25
202.16
-1571.86
274.678
-1596.37
358.07
-1625.04
454.268
-1658.1
565.334
-1695.75
693.72
-1738.09
842.133
-1785.05
1013.55
-1836.32
1211.1
-1891.26
1437.94
-1948.75
1697.03
-2007.17
1990.8
-2064.39
2320.87
-2117.96
2687.81
-2165.55
3091.24
-2205.76
3530.65
-2239.24
4007.19
-2269.84
4526.39
-2305.02
5101.29
-2355.02
5754.35
-2430.11
6516.74
-2536.81
7423.79
-2674.49
8506.62
-2834.08
9781.14
-2999.08
11237.3
-3148.29
12831.7
-3259.38
14486
-3312.43
16090.6
-3292.7
17511.7
-3191.28
18594.3
-3002.85
19153.9
-2722.53
18953.6
-2348.02
17690.6
-1814.99
14815.9
-581.275
6647.08
-149.307
-5440.22
-552.841
-5372.09
-587.458
-2542.45
-1028.19
-388.782
-1072.98
-104.262
-1213.86
-1182.25
-1226.43
-1387.07
-1184.17
-2121.68
-1093.34
-2461.46
-961.88
-2606.02
-758.904
-2506.83
-427.506
-1814.91
-76.2577
-205.251
36.3637
259.764
179.213
26.2316
494.971
1283.94
804.429
3166.14
1015.3
4254.53
1121.62
4566.27
1137.62
4264.61
1102.82
3555.94
1054.95
2576.78
1023.91
1469.05
1000.76
-209.942
880.605
-2164.92
-4421.11
-1473.82
-201.476
-1485.7
-241.636
-1494.26
-238.101
-1502.55
-241.678
-1509.93
-238.236
-1516.6
-231.452
-1522.63
-220.886
-1528.16
-206.665
-1533.3
-188.842
-1538.21
-167.4
-1543.09
-142.274
-1548.14
-113.361
-1553.59
-80.5862
-1559.67
-43.5882
-1566.51
-2.06209
-1574.69
44.0276
-1585.36
94.3493
-1598.65
152.214
-1614.9
218.41
-1634.47
294.248
-1657.66
381.256
-1684.74
481.355
-1715.97
596.555
-1751.47
729.222
-1791.29
881.95
-1835.26
1057.52
-1882.99
1258.82
-1933.7
1488.66
-1986.24
1749.56
-2038.98
2043.54
-2089.93
2371.82
-2136.96
2734.84
-2178.33
3132.61
-2213.48
3565.79
-2243.99
4037.69
-2274.4
4556.8
-2312.28
5139.17
-2367.06
5809.12
-2447.45
6597.14
-2558.34
7534.68
-2698.02
8646.3
-2857.18
9940.3
-3019.79
11399.9
-3165.61
12977.5
-3273.47
14593.8
-3324.6
16141.8
-3304.84
17491.9
-3204.44
18493.9
-3015.07
18964.6
-2727.09
18665.6
-2327.18
17290.7
-1610.25
14099
-211.617
5248.44
-210.843
-5441
-686.191
-4896.74
-771.089
-2457.56
-1246.58
86.6954
-1220.52
-130.329
-1365.7
-1037.07
-1352.35
-1400.42
-1309.36
-2164.68
-1224.87
-2545.95
-1098.94
-2731.95
-892.456
-2713.31
-560.333
-2147.03
-136.773
-628.813
-111.286
234.269
50.5249
-135.591
425.031
909.432
751.919
2839.25
991.646
4014.8
1119.12
4438.79
1149.64
4234.09
1121.62
3583.95
1070.9
2627.49
1033.6
1506.35
975.457
-151.799
820.491
-2009.95
-4107.66
-1532.85
-190.197
-1545.24
-229.249
-1554.92
-228.424
-1564.2
-232.401
-1572.58
-229.856
-1580.25
-223.776
-1587.28
-213.856
-1593.76
-200.182
-1599.82
-182.783
-1605.61
-161.615
-1611.31
-136.572
-1617.13
-107.541
-1623.28
-74.4333
-1629.99
-36.8806
-1637.51
5.46135
-1646.4
52.9207
-1657.5
105.444
-1670.92
165.64
-1687
234.486
-1706.06
313.313
-1728.39
403.587
-1754.25
507.211
-1783.82
626.13
-1817.2
762.602
-1854.34
919.091
-1895
1098.17
-1938.65
1302.47
-1984.46
1534.47
-2031.21
1796.32
-2077.35
2089.67
-2121.07
2415.55
-2160.71
2774.48
-2195.21
3167.11
-2224.97
3595.55
-2252.57
4065.3
-2283.31
4587.54
-2324.8
5180.67
-2385.59
5869.91
-2472.75
6684.29
-2589.17
7651.1
-2731.58
8788.71
-2889.86
10098.6
-3048.09
11558.1
-3186.92
13116.3
-3286.64
14693.5
-3330.09
16185.2
-3304.4
17466.3
-3200.16
18389.6
-3008.07
18772.5
-2716.06
18373.6
-2292.01
16866.7
-1481.63
13288.6
-157.557
3924.37
-315.082
-5283.47
-774.692
-4437.13
-948.569
-2283.68
-1175.8
313.933
-1229
-77.1308
-1391.51
-874.548
-1403.63
-1388.3
-1374.44
-2193.88
-1301.56
-2618.82
-1178.61
-2854.91
-979.019
-2912.9
-671.445
-2454.6
-208.801
-1091.46
-79.1948
104.661
-0.097538
-214.693
364.429
544.903
690.966
2512.71
949.595
3756.17
1097.38
4291
1145.8
4185.67
1129.26
3600.5
1082.35
2674.4
1032.39
1556.3
956.785
-76.1923
802.399
-1855.57
-3770.59
-1592.19
-178.542
-1605.12
-216.319
-1615.8
-217.743
-1625.98
-222.222
-1635.27
-220.572
-1643.86
-215.187
-1651.8
-205.909
-1659.2
-192.786
-1666.16
-175.823
-1672.83
-154.945
-1679.36
-130.041
-1685.91
-100.992
-1692.71
-67.6356
-1699.97
-29.6204
-1708.02
13.5141
-1717.32
62.2213
-1728.55
116.674
-1741.89
178.976
-1757.63
250.224
-1776.07
331.751
-1797.47
424.983
-1822.04
531.78
-1849.91
654.004
-1881.1
793.794
-1915.48
953.466
-1952.69
1135.39
-1992.13
1341.91
-2032.9
1575.23
-2073.76
1837.18
-2113.27
2129.18
-2149.93
2452.21
-2182.58
2807.12
-2210.95
3195.48
-2236.38
3620.98
-2262.39
4091.3
-2294.78
4619.93
-2340.98
5226.86
-2408.45
5937.39
-2502.53
6778.37
-2624.25
7772.81
-2768.83
8933.29
-2925.47
10255.2
-3078.45
11711.1
-3209.36
13247.2
-3299.97
14784.2
-3334.8
16220.1
-3302.26
17433.7
-3193.33
18280.7
-2998.23
18577.4
-2702.08
18077.5
-2248.93
16413.5
-1353.19
12392.9
-212.343
2783.52
-467.455
-5028.36
-884.689
-4019.9
-1083.21
-2085.16
-1187.53
418.242
-1281.96
17.2996
-1438.64
-717.874
-1470.25
-1356.69
-1449.5
-2214.63
-1376.97
-2691.35
-1255.24
-2976.64
-1076.6
-3091.54
-804.819
-2726.39
-375.94
-1520.34
-93.7583
-177.524
-31.4024
-277.061
291.011
222.481
623.519
2180.2
899.558
3480.13
1067.18
4123.37
1134.65
4118.2
1131.52
3603.63
1089.68
2716.23
1035.18
1610.8
941.449
17.5353
775.783
-1689.9
-3439.06
-1651.68
-166.348
-1665.13
-202.865
-1676.66
-206.211
-1687.64
-211.239
-1697.73
-210.489
-1707.11
-205.806
-1715.84
-197.176
-1724.02
-184.608
-1731.75
-168.095
-1739.15
-147.541
-1746.35
-122.845
-1753.48
-93.8582
-1760.8
-60.3163
-1768.53
-21.8881
-1777.01
21.994
-1786.6
71.8128
-1797.86
127.935
-1810.99
192.108
-1826.26
265.492
-1843.91
349.403
-1864.18
445.251
-1887.22
554.826
-1913.12
679.902
-1941.82
822.493
-1973.11
984.754
-2006.57
1168.84
-2041.52
1376.87
-2077.04
1610.74
-2111.95
1872.1
-2144.99
2162.22
-2175.02
2482.24
-2201.47
2833.57
-2224.85
3218.87
-2247.4
3643.53
-2273.34
4117.24
-2308.71
4655.3
-2360.48
5278.63
-2434.91
6011.81
-2535.62
6879.09
-2661.96
7899.14
-2807.88
9079.21
-2962.06
10409.4
-3109.08
11858.1
-3231.55
13369.7
-3312.74
14865.4
-3338.76
16246.1
-3299.22
17394.2
-3185.51
18167
-2987.54
18379.4
-2686
17775.9
-2193.7
15921.2
-1210.73
11409.9
-285.352
1858.14
-631.922
-4681.79
-997.983
-3653.83
-1194.11
-1889.03
-1232.94
457.073
-1351.06
135.428
-1493.25
-575.684
-1544.41
-1305.51
-1533.12
-2225.92
-1464.63
-2759.84
-1347.26
-3094.01
-1178.57
-3260.22
-926.666
-2978.3
-530.005
-1917
-159.625
-547.904
-83.7736
-352.914
191.012
-52.3102
552.689
1818.52
843.806
3189.01
1029.69
3937.49
1115.98
4031.91
1127.37
3592.24
1092.43
2751.17
1037.68
1665.56
927.962
127.259
755.966
-1517.91
-3104.98
-1711.28
-153.523
-1725.2
-188.947
-1737.38
-194.022
-1749.04
-199.585
-1759.82
-199.713
-1769.88
-195.744
-1779.27
-187.779
-1788.09
-175.795
-1796.41
-159.771
-1804.35
-139.6
-1812.03
-115.168
-1819.61
-86.2771
-1827.32
-52.6036
-1835.39
-13.8183
-1844.12
30.7238
-1853.85
81.5397
-1865.02
139.101
-1877.82
204.912
-1892.5
280.163
-1909.23
366.134
-1928.21
464.229
-1949.53
576.148
-1973.21
703.585
-1999.14
848.423
-2027.05
1012.65
-2056.45
1198.24
-2086.65
1407.07
-2116.76
1640.85
-2145.74
1901.07
-2172.58
2189.06
-2196.58
2506.24
-2217.8
2854.79
-2237.55
3238.61
-2258.76
3664.74
-2286.13
4144.61
-2325.68
4694.84
-2383.65
5336.6
-2464.99
6093.16
-2571.77
6985.86
-2701.79
8029.17
-2848.03
9225.45
-2998.82
10560.2
-3139.16
11998.5
-3252.75
13483.3
-3324.35
14937
-3341.61
16263.3
-3295.23
17347.8
-3177.08
18048.9
-2976.6
18178.9
-2666.58
17465.9
-2121.59
15376.2
-1040.59
10328.9
-284.799
1102.35
-748.194
-4218.39
-1103.76
-3298.27
-1296.82
-1695.98
-1295.47
455.724
-1419.53
259.484
-1548.29
-446.935
-1620.68
-1233.12
-1622.11
-2224.5
-1561.06
-2820.89
-1447.18
-3207.9
-1281.32
-3426.08
-1043.25
-3216.37
-683.326
-2276.92
-286.713
-944.519
-183.869
-455.764
50.3571
-286.552
482.231
1386.64
783.548
2887.69
985.976
3735.06
1089.92
3927.96
1116.08
3566.08
1089.51
2777.74
1034.17
1720.89
913.505
247.919
733.123
-1337.53
-2779.72
-1770.97
-140.173
-1785.26
-174.662
-1797.91
-181.369
-1810.06
-187.435
-1821.36
-188.409
-1831.95
-185.156
-1841.86
-177.871
-1851.15
-166.498
-1859.92
-151.002
-1868.26
-131.264
-1876.29
-107.138
-1884.19
-78.3703
-1892.17
-44.6297
-1900.43
-5.55914
-1909.24
39.5383
-1918.92
91.2192
-1929.81
149.996
-1942.11
217.207
-1955.99
294.045
-1971.6
381.746
-1989.08
481.705
-2008.45
595.527
-2029.69
724.822
-2052.61
871.345
-2076.89
1036.93
-2102.03
1223.38
-2127.36
1432.4
-2152.06
1665.56
-2175.3
1924.31
-2196.41
2210.17
-2215.21
2525.04
-2232.4
2871.98
-2249.96
3256.17
-2271.39
3686.17
-2301.6
4174.82
-2346.28
4739.52
-2410.79
5401.11
-2498.78
6181.14
-2610.83
7097.91
-2743.48
8161.83
-2888.92
9370.88
-3035.35
10706.6
-3168.3
12131.4
-3272.61
13587.6
-3334.53
14998.9
-3343.16
16272
-3290.24
17294.8
-3168.08
17926.7
-2965
17975.8
-2642.04
17142.9
-2032.47
14766.7
-836.126
9132.58
-266.099
532.319
-863.618
-3620.87
-1208.26
-2953.63
-1404.8
-1499.43
-1391.46
442.391
-1505.84
373.867
-1621.61
-331.152
-1704.54
-1150.19
-1715.61
-2213.43
-1659.45
-2877.04
-1546.35
-3321
-1382.53
-3589.89
-1155.85
-3443.05
-826.922
-2605.85
-429.994
-1341.44
-234.242
-651.514
-34.7814
-486.014
407.183
944.675
718.501
2576.37
937.187
3516.37
1057.45
3807.7
1097.86
3525.67
1080.32
2795.28
1024.45
1776.76
897.864
374.505
706.59
-1146.25
-2468.4
-1830.57
-126.518
-1845.12
-160.114
-1858.07
-168.412
-1870.52
-174.99
-1882.16
-176.766
-1893.09
-174.223
-1903.34
-167.624
-1912.96
-156.879
-1922.02
-141.941
-1930.62
-122.67
-1938.88
-98.8744
-1946.98
-70.2695
-1955.07
-36.5438
-1963.36
2.73225
-1972.1
48.2767
-1981.54
100.658
-1991.96
160.42
-2003.54
228.779
-2016.4
306.911
-2030.66
396.003
-2046.39
497.436
-2063.58
612.716
-2082.13
743.371
-2101.83
891.038
-2122.31
1057.42
-2143.09
1244.16
-2163.56
1452.86
-2183.04
1685.04
-2200.98
1942.24
-2217.09
2226.28
-2231.74
2539.68
-2246.23
2886.46
-2263.11
3273.05
-2286.23
3709.29
-2320.47
4209.05
-2370.97
4790.03
-2442.1
5472.25
-2536.23
6275.26
-2652.61
7214.29
-2786.76
8295.98
-2930.27
9514.39
-3071.36
10847.7
-3196.25
12256.3
-3290.93
13682.3
-3343.13
15051.1
-3343.32
16272.2
-3284.18
17235.7
-3158.43
17800.9
-2952.33
17769.8
-2611.82
16802.4
-1929.93
14084.8
-617.733
7820.39
-264.93
179.513
-977.187
-2908.62
-1315.3
-2615.51
-1521.8
-1292.94
-1522.33
442.91
-1624.58
476.117
-1722.74
-232.992
-1799.51
-1073.42
-1812.6
-2200.34
-1758.43
-2931.21
-1646.21
-3433.23
-1485.23
-3750.87
-1267.16
-3661.13
-957.909
-2915.1
-576.799
-1722.56
-284.014
-944.302
-69.0881
-700.946
317.511
558.069
646.156
2247.72
883.03
3279.49
1019.32
3671.4
1073.39
3471.6
1064.97
2803.7
1009.36
1832.37
879.388
504.477
686.669
-953.537
-2153.01
-1889.79
-112.823
-1904.45
-145.456
-1917.59
-155.276
-1930.17
-162.411
-1941.95
-164.978
-1953.04
-163.136
-1963.45
-157.216
-1973.22
-147.11
-1982.42
-132.741
-1991.15
-113.941
-1999.52
-90.4976
-2007.66
-62.1336
-2015.68
-28.5196
-2023.83
10.878
-2032.31
56.7601
-2041.31
109.663
-2051.07
170.177
-2061.71
239.421
-2073.34
318.545
-2086.02
408.683
-2099.79
511.198
-2114.57
627.5
-2130.24
759.039
-2146.55
907.352
-2163.15
1074.02
-2179.6
1260.61
-2195.39
1468.65
-2210.07
1699.71
-2223.36
1955.54
-2235.43
2238.36
-2247.17
2551.42
-2260.39
2899.69
-2278.07
3290.73
-2304.2
3735.42
-2343.38
4248.23
-2400.08
4846.73
-2477.64
5549.8
-2577.18
6374.81
-2696.87
7333.97
-2831.33
8430.44
-2971.78
9654.83
-3106.62
10982.6
-3222.81
12372.5
-3307.57
13767.1
-3350.04
15093.5
-3341.97
16264.1
-3276.98
17170.7
-3147.99
17672
-2938.27
17560
-2575.53
16439.7
-1817.86
13327.1
-396.766
6399.29
-259
41.7489
-1072.53
-2095.09
-1428.29
-2259.74
-1641.09
-1080.13
-1667.6
469.42
-1769.2
577.727
-1843.49
-158.691
-1891.41
-1025.49
-1900.01
-2191.74
-1852.33
-2978.89
-1747.68
-3537.87
-1592.97
-3905.58
-1379.93
-3874.16
-1080.75
-3214.28
-712.069
-2091.23
-395.118
-1261.25
-172.537
-923.525
209.843
175.688
565.895
1891.67
822.282
3023.11
975.163
3518.52
1042.96
3403.8
1043.88
2802.78
989.894
1886.35
858.21
636.165
660.57
-755.895
-1847.76
-1948.32
-99.3646
-1962.84
-130.939
-1975.98
-142.135
-1988.55
-149.842
-2000.33
-153.191
-2011.41
-152.056
-2021.82
-146.811
-2031.59
-137.339
-2040.79
-123.54
-2049.5
-105.231
-2057.8
-82.1987
-2065.77
-54.1628
-2073.57
-20.7205
-2081.41
18.7145
-2089.44
64.7946
-2097.82
118.036
-2106.71
179.066
-2116.22
248.932
-2126.42
328.743
-2137.32
419.587
-2148.93
522.805
-2161.15
639.717
-2173.82
771.707
-2186.7
920.234
-2199.48
1086.8
-2211.79
1272.92
-2223.29
1480.15
-2233.76
1710.19
-2243.29
1965.06
-2252.47
2247.54
-2262.64
2561.58
-2276.04
2913.09
-2295.87
3310.56
-2326.07
3765.61
-2370.82
4292.98
-2433.81
4909.72
-2517.33
5633.32
-2621.43
6478.91
-2743.28
7455.82
-2876.86
8564.02
-3013.14
9791.11
-3140.86
11110.3
-3247.78
12479.4
-3322.36
13841.6
-3355.11
15126.3
-3339
16248
-3268.51
17100.2
-3136.66
17540.1
-2922.35
17345.7
-2532.89
16050.2
-1704.88
12499.1
-280.808
4975.22
-348.176
109.113
-1187.72
-1255.54
-1554.91
-1892.55
-1749.61
-885.445
-1776.17
495.982
-1871.2
672.756
-1933.27
-96.6313
-1960.87
-997.89
-1975.79
-2176.83
-1945.32
-3009.36
-1854.72
-3628.48
-1706.36
-4053.93
-1494.07
-4086.46
-1199.4
-3508.95
-841.67
-2448.97
-522.096
-1580.83
-299.103
-1146.52
83.9847
-207.409
481.772
1493.88
755.289
2749.59
924.549
3349.26
1006.4
3321.94
1017.28
2791.9
966.651
1936.98
835.084
767.73
631.395
-552.21
-1558.65
-2005.99
-86.3274
-2020.14
-116.789
-2033.05
-129.223
-2045.41
-137.478
-2057.04
-141.57
-2067.96
-141.136
-2078.2
-136.563
-2087.82
-127.727
-2096.84
-114.515
-2105.33
-96.7425
-2113.34
-74.1839
-2120.97
-46.5373
-2128.37
-13.3155
-2135.72
26.0639
-2143.11
72.1895
-2150.66
125.587
-2158.5
186.906
-2166.71
257.136
-2175.3
337.341
-2184.29
428.571
-2193.62
532.141
-2203.2
649.298
-2212.87
781.375
-2222.41
929.778
-2231.58
1095.97
-2240.14
1281.48
-2247.94
1487.95
-2255.04
1717.28
-2261.86
1971.89
-2269.41
2255.08
-2279.38
2571.56
-2294.31
2928.02
-2317.45
3333.7
-2352.52
3800.68
-2403.15
4343.62
-2472.21
4978.78
-2561.02
5722.13
-2668.67
6586.55
-2791.49
7578.65
-2922.98
8695.51
-3054.03
9922.17
-3173.79
11230
-3270.94
12576.6
-3335.14
13905.8
-3358.23
15149.4
-3334.31
16224.1
-3258.7
17024.6
-3124.23
17405.6
-2903.78
17125.3
-2482.91
15629.4
-1596.51
11612.7
-379.278
3757.99
-587.753
317.594
-1326.49
-516.799
-1701.57
-1517.47
-1859.48
-727.53
-1841.46
477.966
-1894.78
726.083
-1969.07
-22.3311
-2013.13
-953.824
-2052.24
-2137.72
-2044.87
-3016.72
-1967.7
-3705.65
-1823.42
-4198.22
-1610.18
-4299.69
-1316.92
-3802.21
-965.444
-2800.44
-645.185
-1901.08
-396.057
-1395.65
-31.6884
-571.774
392.337
1069.85
681.893
2460.03
867.674
3163.48
963.745
3225.87
985.268
2770.38
940.028
1982.22
808.883
898.878
605.788
-349.112
-1273.23
-2062.69
-73.8354
-2076.29
-103.189
-2088.74
-116.77
-2100.67
-125.549
-2111.9
-130.334
-2122.46
-130.582
-2132.35
-126.676
-2141.59
-118.483
-2150.22
-105.883
-2158.28
-88.6826
-2165.82
-66.6472
-2172.94
-39.419
-2179.78
-6.47385
-2186.45
32.7379
-2193.03
78.7626
-2199.58
132.142
-2206.21
193.535
-2212.97
263.889
-2219.85
344.22
-2226.83
435.553
-2233.86
539.176
-2240.85
656.28
-2247.64
788.168
-2254.09
936.228
-2260.05
1101.93
-2265.43
1286.86
-2270.31
1492.82
-2275.01
1721.98
-2280.3
1977.18
-2287.5
2262.28
-2298.6
2582.65
-2316.23
2945.66
-2343.59
3361.05
-2384.01
3841.1
-2440.53
4400.14
-2515.2
5053.45
-2608.45
5815.38
-2718.52
6696.62
-2841.09
7701.22
-2969.29
8823.71
-3094.09
10047
-3205.15
11341.1
-3292.07
12663.5
-3345.75
13959.5
-3359.26
15162.9
-3327.81
16192.6
-3247.46
16944.3
-3110.37
17268.5
-2881.18
16896.1
-2423.2
15171.4
-1490.88
10680.4
-558.1
2825.2
-846.947
606.438
-1478.48
114.728
-1879.48
-1116.47
-2014.78
-592.23
-1949.71
412.889
-1927.44
703.809
-2001.53
51.7564
-2074.72
-880.631
-2143.99
-2068.46
-2153.62
-3007.1
-2085.28
-3773.98
-1944.31
-4339.19
-1730.48
-4513.52
-1435.97
-4096.73
-1084.79
-3151.62
-758.222
-2227.65
-482.554
-1671.32
-136.057
-918.274
293.521
640.27
600.693
2152.86
804.457
2959.71
915.183
3115.15
947.956
2737.6
910.171
2020
780.223
1028.82
574.917
-143.81
-999.843
-2118.08
-62.0566
-2130.94
-90.3293
-2142.75
-104.957
-2154.03
-114.273
-2164.66
-119.701
-2174.63
-120.606
-2183.96
-117.355
-2192.63
-109.808
-2200.68
-97.8343
-2208.13
-81.2343
-2215.02
-59.7519
-2221.48
-32.9632
-2227.59
-0.356173
-2233.43
38.5746
-2239.03
84.3645
-2244.45
137.565
-2249.76
198.845
-2254.98
269.111
-2260.1
349.338
-2265.1
440.549
-2269.91
543.992
-2274.46
660.831
-2278.66
792.366
-2282.43
939.997
-2285.74
1105.24
-2288.69
1289.81
-2291.56
1495.69
-2294.96
1725.38
-2299.93
1982.15
-2308.04
2270.38
-2321.41
2596.03
-2342.71
2966.95
-2374.87
3393.22
-2420.83
3887.06
-2482.97
4462.27
-2562.57
5133.05
-2659.25
5912.07
-2770.55
6807.91
-2891.62
7822.29
-3015.39
8947.47
-3132.97
10164.5
-3234.64
11442.8
-3310.96
12739.8
-3354.04
14002.6
-3358.12
15167
-3319.41
16153.9
-3234.64
16859.5
-3094.47
17128.4
-2852.86
16654.5
-2352.5
14671
-1397.38
9725.24
-803.453
2231.28
-1146.78
949.775
-1646.62
614.568
-2092.88
-670.205
-2241.44
-443.664
-2165.73
337.183
-2079.41
617.495
-2113.32
85.6699
-2179.24
-814.701
-2258.64
-1989.06
-2273.38
-2992.35
-2209.47
-3837.89
-2071.44
-4477.21
-1856.83
-4728.13
-1558.48
-4395.08
-1202.69
-3507.41
-870.38
-2559.96
-588.871
-1952.82
-254.157
-1252.98
186.338
199.776
512.571
1826.62
734.876
2737.4
860.731
2989.29
905.457
2692.88
876.725
2048.74
752.339
1153.21
545.398
63.1335
-737.355
-2171.75
-51.1513
-2183.67
-78.4122
-2194.69
-93.9396
-2205.13
-103.826
-2214.97
-109.861
-2224.19
-111.394
-2232.76
-108.779
-2240.7
-101.874
-2248
-90.5332
-2254.68
-74.5491
-2260.82
-53.6163
-2266.49
-27.2924
-2271.75
4.90027
-2276.62
43.451
-2281.15
88.8904
-2285.36
141.778
-2289.31
202.787
-2292.99
272.795
-2296.4
352.745
-2299.52
443.672
-2302.31
546.782
-2304.73
663.247
-2306.75
794.385
-2308.39
941.64
-2309.77
1106.62
-2311.15
1291.19
-2313.04
1497.58
-2316.26
1728.61
-2322.07
1987.96
-2332.19
2280.5
-2348.79
2612.63
-2374.41
2992.56
-2411.69
3430.5
-2463.07
3938.44
-2530.3
4529.51
-2613.97
5216.72
-2712.98
6011.08
-2824.28
6919.2
-2942.62
7940.64
-3060.83
9065.68
-3170.31
10274
-3261.99
11534.4
-3327.44
12805.3
-3359.88
14035
-3354.7
15161.8
-3309.03
16108.2
-3220.03
16770.5
-3075.84
16984.2
-2817.73
16396.4
-2273.83
14127.1
-1334.23
8785.63
-1050.12
1947.17
-1466.73
1366.38
-1874.59
1022.42
-2328.12
-216.677
-2514.69
-257.091
-2469.38
291.869
-2358.01
506.123
-2327.22
54.8691
-2345.6
-796.316
-2400.52
-1934.14
-2406.83
-2986.05
-2342.75
-3901.97
-2206.3
-4613.67
-1990.38
-4944.05
-1686.66
-4698.81
-1321.47
-3872.6
-978.892
-2902.53
-697.277
-2234.44
-379.61
-1570.65
57.2194
-237.059
419.883
1463.96
659.954
2497.33
800.596
2848.65
857.916
2635.56
839.383
2067.27
726.286
1266.31
520.042
269.373
-480.102
-2223.31
-41.2306
-2234.07
-67.6459
-2244.15
-83.8632
-2253.66
-94.3123
-2262.58
-100.944
-2270.89
-103.082
-2278.59
-101.081
-2285.66
-94.8027
-2292.1
-84.0904
-2297.94
-68.7089
-2303.24
-48.3193
-2308.03
-22.4955
-2312.35
9.21928
-2316.21
47.3121
-2319.63
92.3111
-2322.64
144.783
-2325.26
205.407
-2327.5
275.037
-2329.36
354.603
-2330.84
445.155
-2331.93
547.872
-2332.64
663.96
-2333.03
794.776
-2333.23
941.839
-2333.49
1106.88
-2334.24
1291.94
-2336.16
1499.5
-2340.27
1732.72
-2347.95
1995.64
-2360.98
2293.53
-2381.49
2633.13
-2411.79
3022.86
-2454.19
3472.9
-2510.61
3994.87
-2582.23
4601.12
-2668.96
5303.45
-2769.13
6111.25
-2879.17
7029.24
-2993.58
8055.05
-3105.19
9177.29
-3205.77
10374.6
-3286.96
11615.6
-3341.31
12859.6
-3363.17
14056.9
-3348.93
15147.5
-3296.57
16055.9
-3203.37
16677.3
-3053.75
16834.6
-2775.4
16118
-2192.49
13544.2
-1314.56
7907.71
-1281.48
1914.09
-1753.23
1838.14
-2121.13
1390.33
-2559.71
221.903
-2784.27
-32.5247
-2784.84
292.436
-2682.01
403.301
-2602.5
-24.6363
-2563.56
-835.246
-2571.35
-1926.35
-2556.04
-3001.36
-2486.06
-3971.95
-2349.28
-4750.44
-2131.92
-5161.41
-1822.51
-5008.22
-1444.75
-4250.35
-1086.32
-3260.96
-799.44
-2521.32
-493.383
-1876.71
-77.7149
-652.724
321.891
1064.35
579.049
2240.17
734.951
2692.74
805.586
2564.92
798.051
2074.8
700.194
1364.17
494.296
475.274
-236.312
-2272.35
-32.3529
-2281.83
-58.1704
-2290.83
-74.8591
-2299.34
-85.8092
-2307.28
-93.0016
-2314.63
-95.7343
-2321.38
-94.3281
-2327.53
-88.6537
-2333.08
-78.5433
-2338.05
-63.7361
-2342.48
-43.8912
-2346.38
-18.5979
-2349.75
12.5972
-2352.62
50.1807
-2354.99
94.6808
-2356.88
146.673
-2358.32
206.842
-2359.32
276.035
-2359.89
355.178
-2360.08
445.338
-2359.9
547.697
-2359.45
663.504
-2358.85
794.182
-2358.36
941.346
-2358.35
1106.87
-2359.39
1292.98
-2362.32
1502.43
-2368.25
1738.65
-2378.63
2006.02
-2395.22
2310.12
-2420.02
2657.92
-2455.08
3057.93
-2502.33
3520.15
-2563.22
4055.75
-2638.33
4676.23
-2727.04
5392.16
-2827.15
6211.36
-2934.7
7136.8
-3044.03
8164.38
-3148.07
9281.33
-3239.04
10465.6
-3309.32
11685.9
-3352.45
12902.7
-3363.79
14068.2
-3340.7
15124.5
-3281.89
15997.1
-3184.31
16579.7
-3027.57
16677.8
-2726.03
15816.5
-2113.24
12931.4
-1337.56
7132.02
-1502.23
2078.76
-1987.82
2323.73
-2348.19
1750.7
-2768.46
642.164
-3022.48
221.499
-3066.64
336.586
-2989.12
325.786
-2890.75
-123.018
-2808.89
-917.106
-2766.71
-1968.52
-2721.26
-3046.82
-2639.31
-4053.9
-2500.08
-4889.68
-2281.73
-5379.76
-1967.33
-5322.62
-1575
-4642.69
-1194.88
-3641.08
-896.655
-2819.54
-599.563
-2173.8
-198.416
-1053.87
220.092
645.84
492
1968.26
663.966
2520.78
748.782
2480.1
752.918
2070.67
669.635
1447.45
467.563
677.342
-6.38908
-2318.61
-24.5166
-2326.75
-50.0259
-2334.63
-66.9834
-2342.08
-78.3604
-2349.03
-86.046
-2355.44
-89.327
-2361.28
-88.4856
-2366.55
-83.3826
-2371.26
-73.8392
-2375.4
-59.5886
-2379
-40.2909
-2382.06
-15.5387
-2384.58
15.1195
-2386.57
52.1718
-2388.04
96.1495
-2389.01
147.638
-2389.5
207.337
-2389.56
276.089
-2389.21
354.837
-2388.54
444.666
-2387.63
546.782
-2386.61
662.492
-2385.73
793.3
-2385.32
940.932
-2385.86
1107.41
-2388.04
1295.17
-2392.79
1507.17
-2401.27
1747.13
-2414.94
2019.69
-2435.47
2330.65
-2464.66
2687.11
-2504.3
3097.57
-2555.91
3571.77
-2620.48
4120.32
-2698.1
4753.85
-2787.63
5481.69
-2886.46
6310.18
-2990.32
7240.66
-3093.48
8267.54
-3189.08
9376.93
-3269.82
10546.3
-3328.87
11745
-3360.7
12934.6
-3361.65
14069.2
-3329.93
15092.7
-3264.82
15932
-3162.5
16477.4
-2996.71
16512
-2670.08
15489.8
-2039.16
12300.5
-1391.37
6484.24
-1700.43
2387.82
-2176.54
2799.84
-2542.89
2117.05
-2941.15
1040.43
-3217.08
497.433
-3296.15
415.663
-3251.45
281.09
-3157.96
-216.502
-3055.19
-1019.87
-2974.68
-2049.04
-2898.55
-3122.94
-2800.97
-4151.48
-2657.45
-5033.19
-2439.15
-5598.06
-2121.88
-5639.88
-1715.21
-5049.36
-1307.93
-4048.35
-990.585
-3136.89
-704.617
-2459.77
-314.929
-1443.56
118.592
212.322
399.587
1687.27
588.18
2332.18
687.893
2380.39
704.384
2054.18
635.407
1516.43
450.221
862.53
226.451
-2362.02
-17.6492
-2368.91
-43.1363
-2375.71
-60.1793
-2382.16
-71.9089
-2388.2
-80.0132
-2393.74
-83.7806
-2398.77
-83.4558
-2403.27
-78.8821
-2407.24
-69.8738
-2410.67
-56.1584
-2413.57
-37.3934
-2415.93
-13.173
-2417.77
16.9555
-2419.08
53.4837
-2419.88
96.95
-2420.2
147.955
-2420.08
207.212
-2419.57
275.578
-2418.75