/*--------------------------------*- C++ -*----------------------------------*\
| =========                 |                                                 |
| \\      /  F ield         | OpenFOAM: The Open Source CFD Toolbox           |
|  \\    /   O peration     | Version:  4.1                                   |
|   \\  /    A nd           | Web:      www.OpenFOAM.org                      |
|    \\/     M anipulation  |                                                 |
\*---------------------------------------------------------------------------*/
FoamFile
{
    version     2.0;
    format      ascii;
    class       volVectorField;
    location    "6";
    object      U;
}
// * * * * * * * * * * * * * * * * * * * * * * * * * * * * * * * * * * * * * //

dimensions      [0 1 -1 0 0 0 0];

internalField   nonuniform List<vector> 
6785
(
(1.20361e-14 -2.25573 16.3876)
(1.10211e-14 -7.90042 12.8593)
(-3.11688e-15 -5.1213 13.6521)
(3.73812e-15 -5.08459 13.1463)
(9.3051e-16 -4.30352 12.992)
(-1.97917e-16 -3.8931 12.6887)
(2.62024e-15 -3.48382 12.395)
(6.99971e-16 -3.20235 12.081)
(-6.35576e-16 -3.01796 11.7814)
(1.87002e-15 -2.95929 11.4891)
(2.17574e-16 -2.97429 11.2032)
(-5.66332e-16 -3.03068 10.882)
(7.37943e-16 -3.46304 10.2111)
(-9.22291e-17 -3.52232 9.1304)
(-2.08302e-16 -0.00173004 7.44135)
(1.7454e-14 -10.2044 26.5955)
(1.23609e-14 -16.0742 23.0518)
(-2.89534e-15 -11.0495 23.3952)
(4.05774e-15 -11.7652 21.5942)
(7.04925e-16 -10.0261 20.7627)
(7.03043e-16 -9.35969 19.5612)
(1.65776e-15 -8.34638 18.5312)
(4.26669e-17 -7.53552 17.4693)
(-1.66491e-16 -6.69984 16.416)
(3.64617e-16 -5.90838 15.266)
(-6.79189e-16 -5.15246 13.9258)
(-7.51443e-16 -4.51812 12.2485)
(-1.38316e-16 -4.12659 10.0681)
(-3.22772e-16 -3.56584 7.06941)
(-3.25162e-16 -1.28033 2.40808)
(1.92568e-14 -13.0251 28.4126)
(1.0276e-14 -16.806 25.4056)
(-1.73594e-15 -12.1702 25.3466)
(3.70498e-15 -13.0984 22.9445)
(4.8223e-16 -10.9833 21.9768)
(1.25477e-15 -10.5134 20.3442)
(1.0161e-15 -9.38611 19.1371)
(-3.16256e-16 -8.64936 17.8289)
(4.29867e-16 -7.68304 16.406)
(5.7303e-16 -6.30105 14.0678)
(7.90921e-16 -3.79481 9.72941)
(3.4776e-15 -0.408854 3.34156)
(3.19977e-15 2.00491 -1.62598)
(-1.97887e-16 2.18625 -2.41834)
(-2.03098e-15 1.3066 -1.8531)
(1.9751e-14 -14.0612 28.7366)
(1.03965e-14 -17.4716 26.3168)
(-1.8739e-15 -13.0641 25.8796)
(3.92376e-15 -14.4761 23.1279)
(9.91898e-16 -12.0357 22.2777)
(1.06768e-15 -12.064 20.3236)
(1.17008e-15 -10.8345 19.1322)
(5.95303e-16 -10.3469 17.689)
(1.01983e-16 -9.523 16.3139)
(6.98647e-16 -8.47444 14.2867)
(2.11292e-15 -6.4298 10.7917)
(2.07533e-15 -3.14609 5.34355)
(5.33407e-15 -0.0544907 0.614123)
(1.19732e-14 2.8162 -2.93182)
(-5.8257e-16 2.26181 -5.49555)
(1.98193e-14 -13.9618 27.4361)
(1.25141e-14 -17.8302 27.1791)
(-1.12465e-15 -13.5335 25.7206)
(3.81996e-15 -14.6281 22.847)
(2.25605e-15 -12.3668 21.8659)
(1.32522e-15 -12.326 19.7825)
(1.73207e-15 -11.1309 18.4191)
(1.86635e-15 -10.5658 16.8083)
(5.73538e-16 -9.79405 15.3227)
(8.73568e-16 -8.96444 13.6083)
(2.19215e-15 -7.77798 11.3283)
(1.97974e-15 -5.80236 8.1845)
(2.03186e-15 -3.62781 4.69198)
(2.90409e-15 -0.345277 0.848918)
(4.98459e-15 1.60834 -4.8811)
(1.87979e-14 -13.2211 25.1297)
(1.432e-14 -17.5346 27.3396)
(-7.1954e-18 -13.5643 25.0538)
(3.05443e-15 -13.9922 22.0456)
(2.70825e-15 -12.0207 20.897)
(1.43609e-15 -11.747 18.8227)
(1.71159e-15 -10.5785 17.3289)
(2.15248e-15 -9.85722 15.6198)
(1.2401e-15 -9.01651 14.0463)
(5.63523e-16 -8.18145 12.458)
(1.27723e-15 -7.29687 10.7237)
(1.85087e-15 -6.03116 8.71258)
(8.66092e-16 -4.58068 6.16895)
(5.87673e-16 -2.03301 2.88693)
(5.90571e-15 0.212621 -2.46863)
(1.88839e-14 -12.4351 23.1752)
(1.60259e-14 -16.9569 27.0531)
(2.1891e-15 -13.5328 24.4788)
(2.40778e-15 -13.3828 21.3697)
(3.18833e-15 -11.6909 20.0609)
(2.8687e-15 -11.2534 18.1018)
(1.90735e-15 -10.1964 16.5937)
(2.40762e-15 -9.45049 14.9902)
(2.87586e-15 -8.65488 13.5173)
(1.26393e-15 -7.87467 12.0943)
(9.96969e-16 -7.12328 10.6555)
(2.71469e-15 -6.21015 9.1947)
(1.65962e-15 -5.20962 7.44219)
(-9.45763e-16 -3.46013 5.19397)
(6.40656e-15 -1.02128 0.38649)
(1.81863e-14 -11.929 22.1955)
(1.69495e-14 -16.2457 26.2912)
(3.10754e-15 -13.2167 23.8049)
(1.90942e-15 -12.8494 20.6114)
(3.29896e-15 -11.2054 19.2541)
(2.85361e-15 -10.8071 17.3491)
(1.47079e-15 -9.84879 15.9762)
(1.96392e-15 -9.27372 14.4762)
(2.51124e-15 -8.61072 13.0716)
(1.30125e-15 -7.99406 11.7196)
(4.69264e-16 -7.42551 10.5328)
(9.80479e-16 -6.87738 9.64511)
(1.05969e-15 -6.3308 8.90948)
(-1.12945e-15 -5.27731 7.89501)
(1.4186e-15 -2.91076 4.0542)
(1.84739e-14 -11.9489 22.1372)
(1.51513e-14 -15.242 25.1789)
(1.26219e-15 -12.5509 22.8134)
(2.28012e-15 -12.0627 19.8233)
(2.87656e-15 -10.2789 18.4251)
(1.58267e-15 -9.65645 16.1938)
(2.54754e-15 -8.27865 14.3845)
(2.394e-15 -7.61288 12.4293)
(1.66849e-16 -6.95907 11.0405)
(1.10811e-15 -6.78856 10.1216)
(5.81225e-16 -6.94272 10.0031)
(-1.65961e-15 -7.46636 10.6314)
(-1.84915e-16 -7.81178 11.5879)
(-1.4662e-15 -7.61804 11.7158)
(-2.66705e-15 -5.23547 8.71982)
(1.75905e-14 -13.1219 24.0744)
(1.0541e-14 -14.7608 25.0649)
(-9.23141e-16 -12.3447 23.0707)
(1.3364e-15 -11.8206 21.0572)
(2.47163e-15 -10.0374 19.5473)
(3.62229e-15 -8.57476 16.7765)
(5.75559e-15 -6.33452 13.7232)
(5.7889e-15 -4.6109 10.6629)
(4.81934e-15 -3.15524 8.34506)
(5.42542e-15 -2.53129 7.02295)
(4.03758e-15 -3.06148 7.56578)
(5.205e-16 -4.90515 10.0374)
(-1.2328e-15 -7.17967 13.179)
(-2.1318e-15 -8.67006 14.6972)
(-3.11829e-15 -6.24065 11.5408)
(1.69796e-14 -14.123 25.5983)
(1.04232e-14 -17.074 28.3017)
(-1.62432e-15 -13.7347 25.3172)
(1.07476e-15 -13.3401 23.6974)
(2.17241e-15 -11.7458 22.5036)
(5.41947e-15 -10.2733 19.8523)
(8.19817e-15 -7.79072 16.659)
(9.52584e-15 -5.60851 13.3451)
(1.01885e-14 -3.40749 10.3975)
(1.09493e-14 -1.44249 7.52301)
(1.5227e-14 0.202646 5.05041)
(1.67789e-14 0.724257 3.83947)
(1.25399e-14 -0.700351 5.08213)
(5.44267e-15 -3.50403 8.02635)
(-1.52535e-15 -3.80368 8.10585)
(1.50682e-14 -12.2626 21.568)
(1.37592e-14 -19 30.4163)
(4.2946e-15 -16.826 28.5643)
(2.00713e-15 -15.5627 25.8221)
(5.42708e-16 -14.0986 24.2771)
(5.02381e-15 -13.0908 22.1862)
(7.16294e-15 -11.2719 19.6607)
(6.95298e-15 -9.40991 16.6713)
(1.07574e-14 -7.29388 13.6593)
(1.04555e-14 -5.17284 10.4504)
(1.35913e-14 -2.85283 7.0114)
(1.81249e-14 -0.496072 3.21336)
(1.1411e-14 1.99089 -0.710503)
(8.60501e-15 2.87769 -2.48565)
(3.63181e-15 0.645713 -0.612056)
(1.24786e-14 -8.20957 13.7332)
(1.64328e-14 -17.6216 27.7996)
(1.03249e-14 -18.432 29.6884)
(5.61235e-15 -17.0734 26.9359)
(1.46711e-15 -15.4811 24.303)
(2.88005e-15 -14.4193 21.991)
(4.84101e-15 -13.2694 19.8679)
(3.41077e-15 -12.0736 17.6644)
(5.08864e-15 -10.7256 15.3994)
(5.7771e-15 -9.24733 13.0413)
(5.84496e-15 -7.60884 10.5509)
(8.11535e-15 -5.71943 7.89598)
(6.97595e-15 -3.63205 4.9291)
(4.84099e-15 -0.974824 2.02055)
(1.66956e-15 0.928262 -3.39737)
(1.01242e-14 -4.01422 5.92078)
(1.71095e-14 -14.8827 24.0527)
(1.20431e-14 -17.3517 28.3672)
(6.07917e-15 -15.6171 25.302)
(1.10597e-15 -13.6518 22.1305)
(7.80832e-16 -12.5455 19.9976)
(2.23356e-15 -11.6981 18.3489)
(1.6395e-15 -10.8647 16.678)
(1.63399e-15 -9.94005 14.9335)
(2.29175e-15 -8.90464 13.1288)
(2.17676e-15 -7.80506 11.2609)
(2.02273e-15 -6.52272 9.3376)
(1.81113e-15 -5.14315 7.14022)
(8.38368e-16 -3.15444 4.64323)
(-1.39941e-15 -0.893179 -0.326337)
(7.25486e-15 -2.59243 5.26166)
(1.76679e-14 -14.4287 23.5662)
(1.61231e-14 -19.0322 29.6453)
(8.72746e-15 -19.0476 28.1276)
(4.73234e-15 -17.0739 24.1794)
(5.61472e-15 -14.88 20.4713)
(5.2366e-15 -13.1422 17.777)
(3.44381e-15 -11.9528 15.955)
(1.79237e-15 -11.0025 14.4237)
(1.91477e-15 -10.0608 12.9907)
(2.77e-15 -9.02884 11.5518)
(2.866e-15 -7.88187 10.0301)
(3.15408e-15 -6.54729 8.42126)
(4.28528e-15 -4.88723 6.35939)
(5.32451e-15 -1.7921 2.3418)
(6.49006e-18 3.46433 13.4181)
(2.20398e-16 -0.423239 1.95135)
(1.67796e-16 -0.115234 -1.03951)
(1.48257e-16 -0.113839 -0.750838)
(1.39659e-16 -0.00256027 -0.869307)
(1.90326e-16 0.223921 -1.21542)
(1.41663e-16 0.141169 -0.829125)
(1.57554e-16 0.237639 -0.816214)
(1.59861e-16 0.275202 -0.77422)
(3.25902e-16 0.482589 -1.08146)
(3.50365e-16 0.428342 -0.758103)
(3.83483e-16 0.49829 -0.714902)
(5.12306e-16 0.729401 -0.957228)
(3.31653e-16 0.608121 -0.666501)
(3.39141e-16 0.716172 -0.668598)
(3.6652e-16 0.715873 -0.654889)
(6.03627e-16 0.935688 -0.841773)
(4.9637e-16 0.808859 -0.574813)
(5.30383e-16 0.875482 -0.526674)
(8.52292e-16 1.11778 -0.619586)
(6.73333e-16 0.901111 -0.380139)
(7.2831e-16 1.02 -0.337012)
(8.16782e-16 0.973385 -0.28735)
(1.35557e-15 1.22061 -0.272023)
(1.28126e-15 0.977735 -0.121173)
(1.52699e-15 1.07926 -0.0837782)
(1.72868e-15 1.02072 -0.0643991)
(2.69802e-15 1.21821 0.00578209)
(2.30943e-15 1.0047 0.0521407)
(2.24287e-15 1.03469 0.046807)
(3.10069e-15 1.22861 0.145386)
(2.26649e-15 0.955513 0.116962)
(2.13419e-15 1.03912 0.112638)
(1.85912e-15 0.977553 0.0869759)
(2.28013e-15 1.13217 0.185085)
(1.3852e-15 0.91151 0.126743)
(9.93698e-16 0.939346 0.0935624)
(9.0488e-16 1.08082 0.197167)
(1.98858e-16 0.824609 0.117148)
(-1.23354e-16 0.89468 0.103496)
(-3.69152e-16 0.844237 0.0770585)
(-7.4444e-16 0.966247 0.183394)
(-6.55271e-16 0.736677 0.102066)
(-6.12969e-16 0.795714 0.0891654)
(-4.67423e-16 0.758411 0.0580941)
(-4.15588e-16 0.837202 0.149408)
(-8.88107e-17 0.643199 0.0589763)
(3.66576e-17 0.677766 0.0191035)
(1.35904e-16 0.734588 0.0999542)
(1.34156e-16 0.536489 0.00609922)
(9.72359e-17 0.586408 -0.0224703)
(2.39447e-17 0.567573 -0.0609933)
(-7.85688e-17 0.65243 -0.00505316)
(-1.3335e-16 0.506594 -0.0391903)
(-1.1863e-16 0.557055 -0.0674647)
(-5.8093e-17 0.539035 -0.0811639)
(2.07653e-16 0.632161 -0.157584)
(3.5659e-16 0.548582 -0.139895)
(4.34022e-16 0.59168 -0.157357)
(6.19194e-16 0.575701 -0.155088)
(6.58216e-16 0.425218 -0.189579)
(6.56897e-16 0.456399 -0.208538)
(5.06354e-16 0.477872 -0.173016)
(1.54165e-15 0.419725 -0.721052)
(1.86586e-15 0.0923257 -0.900845)
(1.35128e-15 0.181939 -0.586664)
(3.79615e-15 0.317789 -2.20377)
(-1.46798e-15 -0.457193 -0.112877)
(-2.64997e-15 -0.253153 0.165895)
(-4.15226e-15 -0.293845 0.68234)
(-9.52932e-15 -0.748575 3.29322)
(-1.04052e-14 -1.54788 4.58208)
(-1.00977e-14 -1.80472 4.5245)
(-1.00484e-14 -1.91852 4.82468)
(-1.38573e-14 -3.18226 8.12362)
(-1.04549e-14 -3.82356 7.28083)
(-9.90083e-15 -3.97552 7.56468)
(-1.23731e-14 -5.81977 11.3961)
(-8.60444e-15 -6.07248 9.1992)
(-8.24044e-15 -6.52915 9.81997)
(-8.39501e-15 -7.07785 11.4893)
(-8.09733e-15 -7.03284 11.3089)
(-8.52224e-15 -7.12073 11.5316)
(-1.23746e-14 -8.55967 13.9564)
(-1.05405e-14 -7.88439 12.4018)
(-1.15403e-14 -8.11891 12.8266)
(-1.18945e-14 -8.0984 12.8354)
(-1.19246e-14 -8.18355 12.8467)
(-1.15249e-14 -8.23799 12.8954)
(-1.07752e-14 -8.31135 12.9773)
(-9.84385e-15 -8.36157 13.1705)
(-8.97136e-15 -8.43721 13.4184)
(-9.05954e-15 -9.02622 14.7887)
(-6.58904e-15 -8.9696 13.7876)
(-5.5139e-15 -9.08996 13.8222)
(-4.88752e-15 -9.06627 13.8126)
(-4.38915e-15 -9.18786 14.0225)
(-4.08894e-15 -9.16296 13.9588)
(-4.08874e-15 -9.23602 14.0072)
(-4.35237e-15 -9.24535 14.0408)
(-4.8667e-15 -9.30207 14.1153)
(-7.84899e-15 -9.77593 15.3892)
(-6.76577e-15 -9.75182 14.5836)
(-7.5102e-15 -9.81548 14.631)
(-7.47779e-15 -9.83267 14.6368)
(-7.02917e-15 -9.86715 14.7004)
(-6.05084e-15 -9.88157 14.8523)
(-4.63689e-15 -9.93377 15.0472)
(-2.86932e-15 -9.93254 15.1111)
(-1.07674e-15 -9.94736 15.2437)
(3.81685e-16 -10.02 15.3773)
(1.2949e-15 -10.1494 16.3092)
(1.88422e-15 -10.2883 15.8272)
(2.47208e-15 -10.3068 16.0375)
(2.32169e-15 -10.3103 16.2113)
(2.13972e-15 -10.3357 16.4517)
(1.75787e-15 -10.3452 16.7405)
(1.42614e-15 -10.3941 17.1838)
(9.05603e-16 -10.3808 17.5114)
(3.41795e-16 -10.506 17.8015)
(-2.12213e-15 -10.1594 18.4021)
(-1.28008e-15 -10.391 18.1381)
(-1.45884e-15 -10.3697 18.7964)
(-1.54999e-15 -10.3893 19.3454)
(-2.18539e-15 -10.3637 19.7907)
(-3.17523e-15 -10.41 20.3242)
(-4.85039e-15 -10.449 20.8747)
(-7.24828e-15 -10.4292 21.4856)
(-1.0044e-14 -10.7181 22.3086)
(-1.78742e-14 -9.14352 21.5415)
(-1.62164e-14 -9.79593 21.466)
(-1.87173e-14 -9.76113 21.6867)
(-1.79497e-14 -9.74966 21.7091)
(-1.54424e-14 -9.78324 21.9546)
(-1.07393e-14 -9.75393 21.7252)
(-4.63451e-15 -9.6929 21.3032)
(1.78882e-15 -9.62399 20.8294)
(7.06453e-15 -9.72401 20.2701)
(1.46374e-14 -7.09742 16.5826)
(1.324e-14 -8.11522 18.0156)
(1.2838e-14 -7.85851 17.3422)
(1.0314e-14 -7.86806 17.1096)
(8.6505e-15 -7.71561 16.7769)
(7.51048e-15 -7.6362 16.4786)
(8.03659e-15 -7.50649 16.2306)
(7.45511e-15 -7.32888 15.4936)
(7.72603e-15 -7.14372 14.712)
(7.80161e-15 -7.03988 13.6842)
(5.50964e-15 -3.42022 7.13734)
(7.23512e-15 -5.26909 10.1723)
(6.72875e-15 -4.75812 8.52551)
(6.1356e-15 -4.91424 7.90387)
(5.41563e-15 -4.56859 6.81072)
(4.55926e-15 -4.51141 5.58942)
(3.22983e-15 -4.30822 3.37756)
(2.12803e-15 -3.95218 1.3045)
(2.34143e-15 -4.00899 1.42864)
(8.15716e-16 -3.81765 -0.347349)
(1.73684e-15 -3.68372 0.650876)
(1.49095e-15 -3.69151 0.0540753)
(3.32182e-17 -2.92184 -1.13276)
(1.15019e-15 -4.22225 -0.531075)
(9.57946e-16 -3.66489 -0.600023)
(8.56382e-16 -3.28366 -0.348961)
(1.17102e-15 -4.33545 -0.509244)
(7.65695e-16 -3.04832 -0.274674)
(1.12235e-15 -3.98572 -0.386683)
(8.08639e-16 -3.82842 -0.308966)
(5.67731e-16 -3.17368 -0.204812)
(8.22444e-16 -3.8808 -0.309769)
(6.74638e-16 -3.73809 -0.266016)
(5.68991e-16 -3.21289 -0.176356)
(8.04366e-16 -4.32386 -0.265737)
(6.24625e-16 -3.02991 -0.161475)
(9.37865e-16 -3.9615 -0.228481)
(7.64047e-16 -3.63127 -0.23127)
(6.77291e-16 -3.17523 -0.155816)
(9.02563e-16 -4.24312 -0.228558)
(5.58514e-16 -2.96004 -0.133083)
(8.46085e-16 -3.88275 -0.165578)
(6.62912e-16 -3.6496 -0.185221)
(5.13883e-16 -3.03612 -0.116302)
(6.69066e-16 -3.69359 -0.182074)
(4.82272e-16 -3.49181 -0.197632)
(2.58408e-16 -2.996 -0.134168)
(3.74631e-16 -4.00467 -0.216271)
(2.94741e-16 -2.78827 -0.142407)
(4.84835e-16 -3.6355 -0.208808)
(4.20871e-16 -3.25972 -0.22928)
(3.99866e-16 -2.84743 -0.161304)
(5.55474e-16 -3.77764 -0.249166)
(4.11299e-16 -2.61533 -0.162356)
(5.48331e-16 -3.41951 -0.23256)
(3.55606e-16 -3.15395 -0.252246)
(1.32599e-16 -2.61766 -0.179803)
(1.39773e-16 -3.16689 -0.282397)
(-1.89027e-17 -2.95796 -0.274542)
(-1.03827e-16 -2.52498 -0.196099)
(-1.52931e-16 -3.36905 -0.289708)
(-8.5805e-17 -2.32294 -0.186448)
(-7.53694e-19 -3.03574 -0.261944)
(1.82304e-16 -2.71972 -0.246728)
(3.91892e-16 -2.37059 -0.175896)
(5.85302e-16 -3.17239 -0.241117)
(4.60825e-16 -2.18634 -0.1381)
(8.05555e-16 -2.89088 -0.139978)
(7.3696e-16 -2.72551 -0.101876)
(4.75405e-16 -2.26005 -0.0324069)
(7.37348e-16 -2.78432 -0.00317586)
(6.00348e-16 -2.64854 0.00415338)
(4.54418e-16 -2.27471 0.0352695)
(5.37871e-16 -3.08328 0.0491197)
(3.64827e-16 -2.1466 0.0539333)
(3.38805e-16 -2.83623 0.0864016)
(4.97571e-17 -2.5403 0.0158408)
(-1.06451e-16 -2.22247 0.0193687)
(-1.9329e-16 -2.98016 -0.0172496)
(-2.03319e-16 -2.0531 -0.0136037)
(-2.68286e-16 -2.71257 -0.024644)
(-2.11208e-16 -2.47561 -0.0755416)
(-1.50677e-16 -2.05465 -0.0375504)
(-1.67593e-16 -2.50709 -0.0707155)
(-8.72019e-17 -2.30822 -0.090738)
(5.39926e-17 -1.96634 -0.0599277)
(1.14964e-16 -2.64021 -0.125678)
(1.49749e-16 -1.79105 -0.0969329)
(1.96797e-16 -2.35812 -0.175233)
(1.14865e-16 -2.03676 -0.230457)
(2.53375e-17 -1.74691 -0.202282)
(-1.69794e-17 -2.32234 -0.351878)
(-5.87e-17 -1.52179 -0.2789)
(-1.15177e-16 -2.00674 -0.444587)
(-1.20879e-16 -1.73517 -0.449436)
(-6.9039e-17 -1.36977 -0.3748)
(-1.25489e-16 -1.65526 -0.626448)
(-1.299e-16 -1.41687 -0.624305)
(-1.05475e-16 -1.10557 -0.521154)
(-1.4e-16 -1.52985 -0.785076)
(-1.02117e-16 -0.846188 -0.586679)
(-1.57842e-16 -1.03592 -0.934519)
(5.49286e-69 0.0504454 0.0510878)
(6.25954e-68 0.0685795 0.0497311)
(2.45982e-67 0.0811936 0.0500073)
(3.77772e-68 0.0930309 0.0499266)
(-5.89183e-66 0.104837 0.0503713)
(-3.47912e-65 0.116093 0.0508365)
(-3.54088e-65 0.12732 0.0515834)
(7.64512e-64 0.138365 0.0524578)
(4.97044e-63 0.149427 0.0535438)
(3.34495e-63 0.160487 0.0547911)
(-1.26706e-61 0.171638 0.0562277)
(-7.02747e-61 0.1829 0.0578367)
(4.0502e-61 0.19433 0.0596277)
(2.2144e-59 0.205956 0.0615954)
(8.59128e-59 0.217821 0.063744)
(-2.58506e-58 0.229955 0.0660726)
(-3.45338e-57 0.242394 0.0685841)
(-6.8239e-57 0.255168 0.0712801)
(6.41364e-56 0.268309 0.0741635)
(4.05008e-55 0.281846 0.0772376)
(-1.40832e-55 0.29581 0.0805063)
(-9.37544e-54 0.31023 0.0839741)
(-2.18867e-53 0.325135 0.0876459)
(1.23063e-52 0.340554 0.0915274)
(4.00144e-52 0.356516 0.0956247)
(-3.02493e-51 0.373049 0.0999447)
(-3.51516e-51 0.390183 0.104495)
(1.91565e-49 0.407946 0.109282)
(7.23593e-49 0.426369 0.114316)
(-6.6258e-48 0.445481 0.119606)
(-5.83249e-47 0.465311 0.125159)
(2.06211e-47 0.48589 0.130988)
(2.2353e-45 0.507248 0.137101)
(8.497e-45 0.529416 0.143509)
(-3.877e-44 0.552423 0.150224)
(-4.21627e-43 0.5763 0.157255)
(-5.15171e-43 0.601074 0.164614)
(1.00417e-41 0.626772 0.172309)
(5.28592e-41 0.653418 0.18035)
(-6.31693e-41 0.681031 0.188743)
(-1.571e-39 0.709624 0.197492)
(-4.27085e-39 0.739198 0.206595)
(2.0948e-38 0.769744 0.216049)
(1.70098e-37 0.801234 0.225837)
(1.54121e-37 0.833618 0.235936)
(-2.92717e-36 0.866814 0.246309)
(-1.30015e-35 0.900709 0.256901)
(1.04627e-35 0.935142 0.267637)
(2.63456e-34 0.969908 0.278418)
(6.80687e-34 1.00475 0.289116)
(-1.99952e-33 1.03936 0.299572)
(-1.64238e-32 1.07339 0.309596)
(-2.20232e-32 1.10646 0.318961)
(1.52018e-31 1.13819 0.327406)
(7.16478e-31 1.1682 0.334629)
(2.5375e-31 1.19612 0.340284)
(-7.11399e-30 1.22161 0.343963)
(-2.13441e-29 1.24428 0.345168)
(1.37555e-29 1.26366 0.343267)
(2.24185e-28 1.27903 0.337441)
(4.01677e-28 1.2893 0.326572)
(-9.31693e-28 1.29259 0.309223)
(-5.2527e-27 1.28623 0.283394)
(-4.43555e-27 1.26565 0.246825)
(3.07373e-26 1.2252 0.196505)
(1.14109e-25 1.15513 0.13041)
(9.92871e-26 1.04628 0.0456778)
(-4.41296e-25 0.87643 -0.0534505)
(-2.43446e-24 0.633205 -0.165591)
(8.84461e-25 0.201933 -0.279712)
(-3.00394e-23 -0.427899 -0.359154)
(8.51724e-23 -0.884287 -0.346577)
(-2.52687e-22 -1.29555 -0.365205)
(9.52995e-22 -1.79305 -0.287324)
(-3.88226e-21 -2.10275 -0.355238)
(2.91938e-20 -2.70749 -0.171549)
(-2.32468e-19 -2.62205 -0.490193)
(3.55864e-18 -3.70608 -0.0229749)
(-1.0937e-17 -4.1225 -1.04858)
(5.12992e-69 0.0507216 0.0581421)
(2.63048e-67 0.0687919 0.0562489)
(1.44927e-66 0.081187 0.0564858)
(2.76245e-66 0.0929883 0.0562938)
(-1.94357e-65 0.104703 0.056751)
(-1.83028e-64 0.115906 0.05723)
(-5.00898e-64 0.127065 0.0580417)
(2.30227e-63 0.138054 0.0589974)
(2.60533e-62 0.149054 0.0601953)
(6.74388e-62 0.160057 0.061574)
(-4.13201e-61 0.171149 0.0631653)
(-3.95108e-60 0.182353 0.0649485)
(-6.72172e-60 0.193724 0.0669344)
(8.30662e-59 0.205293 0.0691161)
(5.67862e-58 0.217099 0.0714979)
(1.51372e-58 0.229175 0.0740784)
(-1.51795e-56 0.241554 0.0768606)
(-6.80275e-56 0.254268 0.0798458)
(1.23325e-55 0.267347 0.0830371)
(2.23332e-54 0.280823 0.0864377)
(5.63628e-54 0.294723 0.0900517)
(-3.03667e-53 0.309078 0.0938837)
(-2.28229e-52 0.323917 0.0979388)
(-1.97147e-52 0.339267 0.102223)
(2.91386e-51 0.355158 0.106743)
(9.54159e-51 0.371618 0.111505)
(1.59426e-50 0.388677 0.116518)
(3.01676e-49 0.406362 0.12179)
(1.0065e-48 0.424704 0.127328)
(-1.82219e-47 0.443732 0.133144)
(-1.61043e-46 0.463476 0.139246)
(-1.16135e-48 0.483965 0.145645)
(6.41123e-45 0.50523 0.152352)
(2.92697e-44 0.527301 0.159377)
(-8.78004e-44 0.550209 0.166731)
(-1.30277e-42 0.573982 0.174425)
(-2.77734e-42 0.59865 0.182469)
(2.59122e-41 0.624239 0.190872)
(1.78834e-40 0.650774 0.19964)
(2.52176e-41 0.678274 0.20878)
(-4.3519e-39 0.706753 0.218291)
(-1.70627e-38 0.736215 0.228169)
(3.54873e-38 0.766653 0.238401)
(5.01569e-37 0.798041 0.248965)
(1.07836e-36 0.830333 0.259827)
(-6.09338e-36 0.863454 0.270934)
(-4.18443e-35 0.897294 0.282216)
(-3.61248e-35 0.931702 0.293576)
(5.89372e-34 0.966479 0.304892)
(2.58238e-33 1.00138 0.31601)
(-3.43608e-34 1.03611 0.326746)
(-3.82586e-32 1.07032 0.336884)
(-1.20209e-31 1.10365 0.346178)
(9.6447e-32 1.13574 0.35435)
(1.72091e-30 1.1662 0.361091)
(4.32169e-30 1.19469 0.36605)
(-4.00301e-30 1.2209 0.36881)
(-5.1509e-29 1.24447 0.368854)
(-1.18339e-28 1.26498 0.365502)
(3.36748e-29 1.2818 0.357855)
(8.11825e-28 1.29393 0.344643)
(1.94408e-27 1.29963 0.324226)
(2.16788e-27 1.2964 0.294277)
(3.69036e-27 1.27979 0.252216)
(1.33589e-26 1.24414 0.194601)
(-8.57827e-27 1.17966 0.119362)
(-2.85945e-25 1.07623 0.023274)
(-1.17961e-24 0.911165 -0.0879881)
(-3.20713e-24 0.669794 -0.214663)
(2.44303e-24 0.238109 -0.343497)
(-3.0745e-23 -0.441027 -0.418114)
(8.26997e-23 -0.909463 -0.380277)
(-2.50069e-22 -1.32753 -0.386326)
(9.50721e-22 -1.82042 -0.301532)
(-3.91304e-21 -2.14167 -0.36396)
(2.96457e-20 -2.71548 -0.176457)
(-2.38431e-19 -2.66356 -0.486662)
(3.57447e-18 -3.65319 -0.0232389)
(-9.95606e-18 -4.03445 -1.02761)
(-5.44052e-68 0.0508912 0.0619328)
(7.82896e-67 0.0689211 0.0598315)
(5.90417e-66 0.0811877 0.0600452)
(1.81264e-65 0.0929652 0.0597955)
(-3.75596e-65 0.104628 0.0602606)
(-6.81071e-64 0.115801 0.0607491)
(-2.79831e-63 0.126923 0.0615979)
(3.41277e-63 0.137881 0.0626001)
(9.57968e-62 0.148848 0.0638609)
(3.94144e-61 0.15982 0.0653133)
(-7.72439e-61 0.17088 0.066991)
(-1.51403e-59 0.182054 0.0688714)
(-5.0016e-59 0.193393 0.0709654)
(2.03334e-58 0.204931 0.0732657)
(2.37081e-57 0.216706 0.0757765)
(4.88266e-57 0.22875 0.0784962)
(-4.50621e-56 0.241097 0.0814277)
(-3.30582e-55 0.253779 0.0845721)
(-1.92893e-55 0.266826 0.0879328)
(7.89152e-54 0.280268 0.0915127)
(3.75318e-53 0.294135 0.0953163)
(-4.03714e-53 0.308456 0.0993479)
(-1.03808e-51 0.323259 0.103613)
(-3.25931e-51 0.338573 0.108118)
(8.04946e-51 0.354426 0.112869)
(9.26426e-50 0.370848 0.117873)
(2.74187e-49 0.387867 0.123139)
(7.37942e-50 0.405512 0.128674)
(-4.58786e-48 0.423812 0.134489)
(-5.41465e-47 0.442796 0.140591)
(-2.98989e-46 0.462494 0.146992)
(3.58731e-46 0.482937 0.153702)
(1.49248e-44 0.504153 0.160732)
(6.75069e-44 0.526174 0.168092)
(-1.83333e-43 0.54903 0.175794)
(-3.03968e-42 0.572751 0.183848)
(-7.98847e-42 0.597364 0.192264)
(5.28271e-41 0.622898 0.20105)
(4.37246e-40 0.649377 0.210213)
(4.06556e-40 0.676821 0.219757)
(-9.1766e-39 0.705245 0.229679)
(-4.52577e-38 0.734655 0.239974)
(3.33972e-38 0.765043 0.250624)
(1.09673e-36 0.796388 0.261603)
(3.37957e-36 0.828644 0.27287)
(-9.0521e-36 0.861741 0.284365)
(-9.55143e-35 0.895571 0.296006)
(-1.81072e-34 0.929989 0.307687)
(9.63626e-34 0.9648 0.319272)
(6.25724e-33 0.999761 0.330593)
(7.21259e-33 1.03458 0.341453)
(-6.41828e-32 1.06893 0.351625)
(-3.16517e-31 1.10243 0.360854)
(-2.68014e-31 1.13473 0.368858)
(2.83836e-30 1.16545 0.375329)
(1.25626e-29 1.19426 0.379916)
(1.3055e-29 1.22086 0.382202)
(-7.68212e-29 1.24491 0.381661)
(-3.77807e-28 1.26603 0.377588)
(-6.59786e-28 1.28362 0.369038)
(6.10775e-28 1.29676 0.354654)
(6.99092e-27 1.30381 0.332683)
(2.19981e-26 1.30232 0.300607)
(3.85933e-26 1.28794 0.255655)
(4.03147e-27 1.25497 0.194143)
(-2.66828e-25 1.19355 0.113947)
(-1.16691e-24 1.09293 0.0115727)
(-2.86902e-24 0.930234 -0.106619)
(-4.64765e-24 0.688899 -0.242629)
(5.09965e-24 0.254159 -0.375566)
(-3.39155e-23 -0.42571 -0.493844)
(7.74027e-23 -0.902483 -0.440008)
(-2.46026e-22 -1.32426 -0.422492)
(9.4703e-22 -1.8114 -0.324858)
(-3.95473e-21 -2.14252 -0.377501)
(3.02353e-20 -2.69192 -0.184114)
(-2.45542e-19 -2.66803 -0.480798)
(3.59299e-18 -3.5862 -0.0175603)
(-8.88184e-18 -3.95387 -1.01172)
(-4.76252e-67 0.0511626 0.0662813)
(1.80687e-66 0.0691238 0.063994)
(2.16247e-65 0.0812045 0.0641934)
(9.1325e-65 0.0929417 0.0638943)
(1.27241e-65 0.104526 0.0643749)
(-2.25904e-63 0.115652 0.0648823)
(-1.29228e-62 0.126718 0.0657793)
(-8.69058e-63 0.137628 0.066841)
(3.12431e-61 0.148544 0.0681799)
(1.85049e-60 0.159469 0.069723)
(3.70474e-61 0.17048 0.071506)
(-5.14364e-59 0.181607 0.0735041)
(-2.58296e-58 0.1929 0.075729)
(2.66488e-58 0.20439 0.0781723)
(8.67341e-57 0.216118 0.0808385)
(3.19448e-56 0.228115 0.0837254)
(-1.01961e-55 0.240414 0.0868361)
(-1.34267e-54 0.253048 0.0901717)
(-3.06448e-54 0.266046 0.0937355)
(2.28733e-53 0.279438 0.0975305)
(1.78045e-52 0.293254 0.101561)
(1.69687e-52 0.307523 0.105832)
(-3.68888e-51 0.322273 0.110349)
(-1.95644e-50 0.337532 0.115118)
(1.78094e-51 0.35333 0.120146)
(4.3697e-49 0.369694 0.12544)
(1.90403e-48 0.386653 0.131008)
(9.00481e-50 0.404236 0.13686)
(-3.81901e-47 0.422472 0.143005)
(-2.26178e-46 0.44139 0.149451)
(-5.29761e-46 0.46102 0.156211)
(3.1811e-45 0.481392 0.163293)
(3.99021e-44 0.502536 0.170711)
(1.41883e-43 0.524481 0.178473)
(-5.18287e-43 0.547259 0.186592)
(-7.21242e-42 0.570899 0.195079)
(-1.97447e-41 0.595431 0.203942)
(1.13636e-40 0.620881 0.21319)
(1.03538e-39 0.647274 0.222828)
(1.49655e-39 0.674633 0.232859)
(-1.91216e-38 0.702973 0.243279)
(-1.1182e-37 0.732301 0.254079)
(-1.49776e-38 0.762612 0.265238)
(2.31284e-36 0.793887 0.276724)
(9.0734e-36 0.826086 0.288488)
(-1.06846e-35 0.859141 0.300463)
(-2.05976e-34 0.89295 0.312556)
(-5.63982e-34 0.927374 0.324646)
(1.38647e-33 0.962226 0.336582)
(1.3857e-32 0.997268 0.348182)
(2.84819e-32 1.03222 0.359231)
(-9.58364e-32 1.06674 0.369487)
(-7.19138e-31 1.10049 0.378684)
(-1.30558e-30 1.1331 0.386536)
(4.04735e-30 1.1642 0.392729)
(2.89324e-29 1.19348 0.396916)
(5.82106e-29 1.22065 0.398678)
(-8.65756e-29 1.24541 0.397484)
(-8.58971e-28 1.26743 0.392606)
(-2.28316e-27 1.28617 0.383051)
(-9.27557e-28 1.30082 0.367375)
(1.49826e-26 1.30985 0.343694)
(6.23902e-26 1.31094 0.309278)
(1.24133e-25 1.29987 0.261118)
(3.49048e-26 1.27086 0.195221)
(-6.93116e-25 1.21401 0.109304)
(-2.84836e-24 1.11773 -0.000465596)
(-6.39285e-24 0.959019 -0.127178)
(-8.33214e-24 0.718472 -0.274759)
(7.84573e-24 0.28643 -0.418235)
(-3.84321e-23 -0.41627 -0.566786)
(6.98341e-23 -0.909846 -0.520835)
(-2.40311e-22 -1.33481 -0.476117)
(9.417e-22 -1.8152 -0.357547)
(-4.00493e-21 -2.15345 -0.396651)
(3.08889e-20 -2.68157 -0.194548)
(-2.52753e-19 -2.68118 -0.474848)
(3.61394e-18 -3.53719 -0.0116455)
(-8.09312e-18 -3.90242 -0.945725)
(-2.64201e-66 0.05142 0.0703708)
(1.71719e-66 0.0693134 0.0679695)
(7.05575e-65 0.081225 0.0681604)
(3.95238e-64 0.0929204 0.0678261)
(6.23438e-64 0.104431 0.0683257)
(-6.46981e-63 0.115512 0.0688568)
(-5.24112e-62 0.126524 0.0698036)
(-1.08957e-61 0.13739 0.0709265)
(8.72886e-61 0.148259 0.0723434)
(7.55417e-60 0.159139 0.0739769)
(1.31734e-59 0.170106 0.0758641)
(-1.51933e-58 0.181189 0.0779784)
(-1.1145e-57 0.192437 0.0803319)
(-9.05429e-58 0.203884 0.0829154)
(2.78747e-56 0.215568 0.0857334)
(1.54095e-55 0.227521 0.0887838)
(-9.33384e-56 0.239776 0.0920694)
(-4.74478e-54 0.252365 0.0955912)
(-1.83845e-53 0.265318 0.0993527)
(4.88398e-53 0.278664 0.103357)
(7.02914e-52 0.292434 0.107608)
(1.74632e-51 0.306654 0.112112)
(-1.04815e-50 0.321355 0.116873)
(-8.82615e-50 0.336564 0.121898)
(-1.23842e-49 0.35231 0.127195)
(1.54519e-48 0.368621 0.13277)
(9.59396e-48 0.385525 0.138633)
(8.38017e-48 0.403052 0.144791)
(-1.72178e-46 0.42123 0.151256)
(-1.01942e-45 0.440088 0.158036)
(-1.37577e-45 0.459655 0.165143)
(1.64502e-44 0.479963 0.172587)
(1.2785e-43 0.50104 0.180379)
(2.99794e-43 0.522917 0.188532)
(-1.83483e-42 0.545624 0.197056)
(-1.83945e-41 0.569191 0.205961)
(-4.46984e-41 0.593648 0.215258)
(2.74637e-40 0.619023 0.224953)
(2.44706e-39 0.645341 0.235052)
(4.14342e-39 0.672624 0.245555)
(-4.04709e-38 0.700889 0.256459)
(-2.63825e-37 0.730146 0.267748)
(-1.90064e-37 0.760393 0.279402)
(4.74183e-36 0.791612 0.29138)
(2.22015e-35 0.823766 0.30363)
(-5.26656e-36 0.856793 0.316073)
(-4.2128e-34 0.890598 0.328607)
(-1.46992e-33 0.925044 0.341099)
(1.52335e-33 0.959952 0.353382)
(2.84394e-32 0.995092 0.365258)
(7.97682e-32 1.03018 0.376499)
(-1.14706e-31 1.0649 0.386846)
(-1.47235e-30 1.0989 0.396025)
(-3.76862e-30 1.13181 0.403743)
(4.32867e-30 1.16328 0.409687)
(5.81316e-29 1.193 0.413512)
(1.58766e-28 1.22069 0.414804)
(-3.16407e-29 1.2461 0.41303)
(-1.64612e-27 1.26894 0.407442)
(-5.55753e-27 1.28874 0.397012)
(-5.56462e-27 1.30478 0.380212)
(2.55147e-26 1.31567 0.355039)
(1.34513e-25 1.31919 0.318556)
(2.99699e-25 1.31126 0.267509)
(1.67161e-25 1.28604 0.197587)
(-1.30488e-24 1.23354 0.106283)
(-5.6865e-24 1.1414 -0.0106004)
(-1.27927e-23 0.986559 -0.145834)
(-1.59771e-23 0.746741 -0.305419)
(9.24222e-24 0.317081 -0.45986)
(-4.20973e-23 -0.405319 -0.635799)
(6.18623e-23 -0.922192 -0.616666)
(-2.31579e-22 -1.35567 -0.550196)
(9.33991e-22 -1.82854 -0.401953)
(-4.062e-21 -2.17281 -0.422178)
(3.15762e-20 -2.67849 -0.208421)
(-2.59707e-19 -2.70214 -0.468975)
(3.64183e-18 -3.49287 -0.00368851)
(-7.9015e-18 -3.85449 -0.919781)
(-1.20276e-65 0.0517065 0.0743989)
(-1.27947e-65 0.0695198 0.0719269)
(1.99224e-64 0.0812527 0.0721162)
(1.5242e-63 0.0928986 0.07176)
(4.18341e-63 0.104327 0.0722833)
(-1.46155e-62 0.115357 0.0728444)
(-1.90736e-61 0.126309 0.0738449)
(-6.3827e-61 0.137124 0.0750332)
(1.88228e-60 0.147941 0.076532)
(2.75559e-59 0.158771 0.0782597)
(8.54045e-59 0.169688 0.0802545)
(-3.67039e-58 0.180723 0.0824885)
(-4.23523e-57 0.191922 0.0849739)
(-9.59067e-57 0.203321 0.0877011)
(7.69165e-56 0.214956 0.0906745)
(6.29845e-55 0.22686 0.0938917)
(6.81346e-55 0.239067 0.0973556)
(-1.46714e-53 0.251606 0.101067)
(-8.41884e-53 0.264509 0.10503)
(3.18421e-53 0.277804 0.109247)
(2.41034e-51 0.291522 0.113723)
(9.58967e-51 0.305689 0.118463)
(-2.13514e-50 0.320336 0.123472)
(-3.35405e-49 0.335489 0.128758)
(-9.03865e-49 0.351178 0.134328)
(4.28268e-48 0.36743 0.140189)
(3.99007e-47 0.384274 0.146349)
(7.36e-47 0.401738 0.15282)
(-5.85689e-46 0.419851 0.159609)
(-4.27504e-45 0.438642 0.166728)
(-6.57873e-45 0.458141 0.174187)
(6.40316e-44 0.478377 0.181998)
(4.57815e-43 0.499381 0.190171)
(8.10098e-43 0.521182 0.19872)
(-6.5994e-42 0.543811 0.207654)
(-5.26306e-41 0.567298 0.216985)
(-1.04616e-40 0.591673 0.226722)
(7.52832e-40 0.616965 0.236872)
(6.06354e-39 0.643199 0.247439)
(1.03901e-38 0.670399 0.258424)
(-9.07442e-38 0.698583 0.269819)
(-6.17742e-37 0.727763 0.281608)
(-6.7601e-37 0.757939 0.293766)
(9.71285e-36 0.789097 0.30625)
(5.16565e-35 0.821204 0.318997)
(2.12889e-35 0.854204 0.331923)
(-8.3114e-34 0.888005 0.344914)
(-3.47979e-33 0.92248 0.357824)
(4.63274e-34 0.957456 0.370473)