/*--------------------------------*- C++ -*----------------------------------*\
| =========                 |                                                 |
| \\      /  F ield         | OpenFOAM: The Open Source CFD Toolbox           |
|  \\    /   O peration     | Version:  4.1                                   |
|   \\  /    A nd           | Web:      www.OpenFOAM.org                      |
|    \\/     M anipulation  |                                                 |
\*---------------------------------------------------------------------------*/
FoamFile
{
    version     2.0;
    format      ascii;
    class       surfaceScalarField;
    location    "20";
    object      phi;
}
// * * * * * * * * * * * * * * * * * * * * * * * * * * * * * * * * * * * * * //

dimensions      [0 3 -1 0 0 0 0];

internalField   nonuniform List<scalar> 
13220
(
-810.413
2110.31
-1266.03
1755.81
-1725.9
1759.77
-2066.75
1640.75
-2342.87
1576.31
-2542
1499.03
-2670.52
1428.43
-2728.78
1358.45
-2720.39
1291.51
-2643.35
1222.85
-2486.6
1143.45
-2214.05
1027.35
-1741.51
827.362
-989.312
547.995
310.588
-188.142
2298.45
-427.876
1995.55
-705.75
2037.65
-929.503
1864.5
-1147.07
1793.88
-1325.09
1677.04
-1478.05
1581.38
-1600.07
1480.48
-1696.29
1387.73
-1761.33
1287.89
-1764.3
1146.42
-1618.86
881.908
-1185.31
393.807
-521.382
-115.933
-210.794
-137.022
2435.47
-346.183
2204.7
-494.683
2186.14
-583.526
1953.34
-658.976
1869.33
-692.377
1710.44
-702.057
1591.06
-683.048
1461.47
-637.786
1342.46
-568.477
1218.58
-481.875
1059.82
-383.658
783.679
-264.875
275.003
-191.533
-189.3
-402.327
102.446
2333.02
76.5555
2230.59
114.733
2147.96
176.264
1891.81
244.344
1801.25
328.528
1626.26
425.272
1494.31
534.488
1352.25
653.857
1223.09
775.039
1097.39
873.785
961.071
872.079
785.386
628.747
518.335
165.798
273.65
-236.529
131.786
2201.24
167.602
2194.78
238.684
2076.88
317.65
1812.84
395.412
1723.49
482.515
1539.15
566.676
1410.15
649.166
1269.76
724.191
1148.06
788.257
1033.33
827.471
921.858
801.816
811.037
642.864
677.284
380.11
536.399
143.581
53.181
2148.06
106.485
2141.47
158.631
2024.74
204.63
1766.84
247.873
1680.24
298.814
1488.21
359.505
1349.46
462.848
1166.42
603.521
1007.39
747.118
889.731
830.95
838.026
811.433
830.561
651.788
836.934
386.256
801.942
529.837
-61.575
2209.63
-67.4914
2147.39
-86.2913
2043.54
-143.013
1823.56
-201.172
1738.4
-274.119
1561.16
-315.643
1390.98
-272.141
1122.92
-133.637
868.889
69.0874
687.007
280.189
626.927
424.666
686.079
421.059
840.539
262.536
960.462
792.373
-97.8102
2307.44
-281.188
2330.77
-421.2
2183.55
-593.882
1996.24
-773.972
1918.49
-976.063
1763.25
-1177.21
1592.13
-1350.65
1296.35
-1468.29
986.529
-1491.45
710.172
-1363.54
499.012
-1053.26
375.808
-614.977
402.263
-210.422
555.915
581.951
133.375
2174.07
-76.4306
2540.57
-226.991
2334.11
-344.797
2114.05
-445.151
2018.85
-551.746
1869.85
-683.091
1723.48
-869.798
1483.06
-1097.73
1214.46
-1325.65
938.095
-1488.53
661.894
-1486.3
373.576
-1206.16
122.115
-618.956
-31.2878
-37.0055
370.887
1803.18
339.924
2571.54
275.423
2398.61
275.433
2114.04
328.006
1966.28
385.259
1812.59
431.701
1677.04
413.378
1501.38
322.398
1305.44
169.876
1090.62
-26.4279
858.199
-243.117
590.275
-379.447
258.456
-325.543
-85.1805
-362.549
353.949
1449.23
443.98
2481.51
464.853
2377.74
524.617
2054.28
632.396
1858.5
750.209
1694.78
868.457
1558.79
958.119
1411.72
1005.21
1258.35
997.968
1097.86
929.44
926.728
775.305
744.408
506.445
527.317
144.476
276.789
-218.072
190.34
1258.89
282.616
2389.23
335.101
2325.26
384.63
2004.75
450.175
1792.95
518.311
1626.65
584.958
1492.14
637.518
1359.17
670.001
1225.87
675.526
1092.34
647.663
954.592
578.83
813.245
453.548
652.604
262.532
467.817
44.4596
120.89
1138.01
225.809
2284.31
318.359
2232.71
417.874
1905.24
525.355
1685.48
618.01
1533.99
687.666
1422.49
730.667
1316.16
743.2
1213.34
725.115
1110.43
674.507
1005.2
587.867
899.885
456.397
784.075
269.389
654.828
313.848
225.853
912.154
376.658
2133.51
374.549
2234.82
305.428
1974.36
255.149
1735.76
231.709
1557.43
236.379
1417.82
265.392
1287.15
315.654
1163.07
382.482
1043.6
451.998
935.686
487.176
864.709
426.738
844.513
256.43
825.137
570.279
356.235
1301.1
2050.06
2379.81
2436.05
2390.57
2212.76
1981.18
1727.04
1469.24
1192.58
920.148
649.341
353.641
-1.50861e-06
-303.393
303.393
-303.393
-303.393
-303.393
229.528
-532.921
229.528
229.528
229.528
697.865
-468.337
697.865
697.865
1081.34
-383.477
1081.34
1081.34
1081.34
1370.39
-289.047
1370.39
1370.39
1565.8
-195.407
1565.8
1565.8
1565.8
1679.89
-114.096
1679.89
1679.89
1679.89
1719.94
-40.0449
1719.94
1719.94
1686.29
33.6447
1686.29
1686.29
1686.29
1584.48
101.816
1584.48
1584.48
1422.09
162.386
1422.09
1422.09
1422.09
1220.66
201.429
1220.66
1220.66
1220.66
1071.18
149.482
1071.18
1071.18
950.307
120.872
950.307
950.307
950.307
711.037
239.27
711.037
711.037
711.037
366.114
344.922
366.114
366.114
-3.9507
370.065
-3.95065
-3.95075
-3.95065
-640.429
636.479
-640.429
-640.429
-1881.8
1241.37
-1881.8
-1881.8
-1881.8
-3610.81
1729.01
-3610.81
-3610.81
-3610.81
-5642.99
2032.18
-5642.99
-5642.99
-7859.39
2216.4
-7859.39
-7859.39
-7687.89
-7517.93
-7346.42
-9513.58
2340.46
-9336.25
-9138.94
-8930.29
-8720.37
-8508.68
-8295.18
-8085.02
-7878.89
-10166.6
2490.4
-9953.58
-9740.14
-9526.8
-9317.34
-9104.93
-8890.19
-8674.76
-8458.23
-10763.6
2517.84
-10536.1
-10306.8
-10076.3
-9845.87
-9610.5
-9365.27
-9118.82
-8870.78
-8622.3
-10802
2414.86
-10538.6
-10273.9
-10008.2
-9742.14
-9475.34
-9194.25
-8904.68
-8614.51
-10544
2204.72
-10258.8
-9966.64
-9663.67
-9362.72
-9063.38
-8766.83
-8471.74
-8159.36
-9531.7
1669.59
-9231.76
-8934.2
-8637.28
-8325.75
-8007.99
-7691.32
-7374.12
-7058.97
-7944.07
1199.23
-7621.82
-7307.49
-7000.34
-6702.24
-6414.04
-6118.37
-5833.57
-5557.62
-5290.77
-4901.23
-112.287
-4659.31
-4431.56
-4206.31
-3984.66
-3765.56
-3586.31
-3484.41
-3380.27
-2948.95
-319.265
-2852.27
-2757.79
-2757.79
-2529.6
-228.189
-2255.49
-274.116
-2255.49
-2007.91
-247.577
-2007.91
-1767.15
-240.758
-1522.78
-244.37
-1522.78
-1276.7
-246.084
-1031.55
-245.153
-1031.55
-786.905
-244.64
-786.905
-546.629
-240.276
-326.75
-219.879
-326.75
-111.835
-214.916
-111.835
84.2821
-196.117
255.676
-171.394
255.676
399.251
-143.574
551.421
-152.17
551.421
696.843
-145.422
696.843
819.911
-123.069
925.616
-105.705
925.616
1011.96
-86.346
1011.96
1076.53
-64.5642
1110.02
-33.4919
1110.02
1122.03
-12.01
1111.99
10.0415
1111.99
1101
10.9883
1101
1091.15
9.84528
1089.35
1.803
1089.35
1102.55
-13.2028
1102.55
1129.54
-26.9828
1159.67
-30.1393
1159.67
1214.78
-55.1077
1258.58
-43.7955
1258.58
1312.15
-53.5771
1312.15
1345.83
-33.6747
1377.88
-32.0496
1377.88
1409.56
-31.6854
1409.56
1425.53
-15.9688
1440.03
-14.494
1440.03
1453.08
-13.0492
1460.37
-7.28952
1460.37
1472.73
-12.3668
1472.73
1479
-6.27187
1482.86
-3.85203
1482.86
1495.78
-12.9257
1495.78
1508.87
-13.0925
1521.19
-12.3151
1521.19
1545.42
-24.2305
1567.14
-21.7234
1567.14
1606.73
-39.5895
1606.73
-45.3492
-252.859
-864.298
-256.309
-992.581
-260.642
-1027.93
-265.889
-1094.83
-272.102
-1140.36
-279.812
-1192.63
-289.822
-1236.9
-303.855
-1278.52
-324.295
-1310.98
-354.042
-1332.35
-395.389
-1339.24
-448.736
-1332.2
-511.575
-1315.15
-578.705
-1295.14
-643.659
-1279.51
-700.618
-1273.26
-745.787
-1277.59
-777.791
-1290.36
-797.23
-1307.51
-805.907
-1324.79
-806.102
-1339.09
-800.082
-1349.32
-789.817
-1356.39
-776.875
-1362.44
-762.464
-1369.26
-747.584
-1376.83
-733.203
-1382.76
-720.358
-1382.56
-710.148
-1370.32
-703.766
-1339.85
-702.427
-1289.58
-703.713
-1224.6
-688.627
-1097.51
-628.646
-675.322
-558.447
188.547
-527.053
783.171
-503.488
1055.97
-481.235
1268.5
-459.284
1501.22
-437.767
1747.9
-416.935
2000.25
-396.528
2253.41
-376.022
2501.79
-355.335
2737.77
-334.678
2957.17
-313.782
3160.29
-292.462
3343.59
-270.942
3504.74
-249.199
3647.04
-226.755
3772.61
-203.493
3875.13
-179.743
3952.01
-155.371
4010.73
-130.302
4051.09
-104.343
4070.97
-77.9802
4052.38
-51.9548
3986.15
-27.3355
3859.86
-5.02886
3672.67
13.9359
3396.06
28.0487
2998.13
37.8369
2581.71
44.2456
2193.93
48.4538
1858.82
51.5124
1588.71
54.0593
1373.16
56.253
1171.28
58.6388
1027.6
60.661
862.662
63.3604
751.812
63.937
452.32
71.5205
268.503
78.7296
5.25579
68.6072
-870.761
34.9277
-1856.07
23.8647
-2354.5
5.47577
-2868.86
17.7436
-2842.74
1549.21
-266.459
-862.174
-269.65
-989.39
-274.363
-1023.22
-280.199
-1089
-287.538
-1133.02
-297.422
-1182.74
-311.467
-1222.85
-332.538
-1257.45
-363.964
-1279.55
-408.677
-1287.64
-467.264
-1280.65
-536.665
-1262.8
-610.288
-1241.52
-680.042
-1225.38
-739.012
-1220.54
-783.271
-1229
-812.089
-1248.77
-827.004
-1275.45
-830.617
-1303.9
-825.715
-1329.69
-814.838
-1349.97
-800.156
-1364
-783.461
-1373.09
-766.191
-1379.71
-749.51
-1385.94
-734.455
-1391.89
-722.097
-1395.12
-713.571
-1391.09
-709.911
-1373.98
-711.915
-1337.84
-720.128
-1281.36
-731.667
-1213.06
-724.863
-1104.32
-654.995
-745.19
-552.593
86.145
-514.962
745.54
-496.621
1037.63
-475.624
1247.51
-453.98
1479.58
-433.397
1727.32
-413.588
1980.44
-394.057
2233.88
-374.298
2482.03
-354.235
2717.7
-334.068
2937
-313.548
3139.77
-292.515
3322.56
-271.212
3483.43
-249.614
3625.45
-227.261
3750.25
-204.055
3851.93
-180.332
3928.28
-155.971
3986.37
-130.91
4026.03
-104.958
4045.01
-78.6022
4026.03
-52.5753
3960.12
-27.9301
3835.21
-5.54592
3650.28
13.5944
3376.92
27.9864
2983.74
38.1589
2571.54
45.0612
2187.02
49.8606
1854.02
53.5759
1585
56.7387
1370
59.3554
1168.67
62.1268
1024.83
64.2125
860.576
67.3086
748.715
66.5068
453.122
77.9196
257.09
88.8855
-5.71007
73.4424
-855.318
36.215
-1818.84
24.1455
-2342.43
7.42428
-2852.14
17.2438
-2852.56
1526.86
-274.202
-859.802
-277.212
-986.381
-282.302
-1018.13
-288.779
-1082.52
-297.481
-1124.31
-310.018
-1170.21
-328.786
-1204.08
-357.317
-1228.92
-398.821
-1238.05
-454.717
-1231.74
-522.736
-1212.64
-596.756
-1188.78
-668.569
-1169.71
-730.751
-1163.2
-778.779
-1172.51
-811.45
-1196.33
-829.98
-1230.24
-836.749
-1268.68
-834.352
-1306.3
-825.168
-1338.87
-811.274
-1363.86
-794.518
-1380.76
-776.57
-1391.04
-758.924
-1397.36
-742.92
-1401.94
-729.815
-1404.99
-720.846
-1404.09
-717.145
-1394.79
-719.447
-1371.68
-727.857
-1329.43
-741.967
-1267.25
-758.696
-1196.33
-758.115
-1104.9
-690.481
-812.824
-563.244
-41.0917
-502.416
684.712
-484.89
1020.1
-467.761
1230.38
-447.008
1458.82
-427.249
1707.56
-408.697
1961.89
-390.408
2215.59
-371.742
2463.37
-352.621
2698.58
-333.209
2917.59
-313.272
3119.83
-292.697
3301.99
-271.74
3462.48
-250.377
3604.08
-228.171
3728.05
-205.056
3828.81
-181.377
3904.61
-157.03
3962.02
-131.961
4000.96
-105.989
4019.04
-79.6033
3999.64
-53.5311
3934.05
-28.8115
3810.5
-6.28466
3627.76
13.1131
3357.52
27.8831
2968.97
38.5635
2560.86
46.1221
2179.46
51.7276
1848.42
56.3561
1580.37
60.4063
1365.95
63.7545
1165.32
67.0658
1021.52
69.4293
858.212
72.6658
745.479
70.8557
454.932
81.3649
246.581
93.828
-18.1731
76.6733
-838.163
37.964
-1780.13
24.2476
-2328.72
8.45145
-2836.35
9.69902
-2853.81
1514.84
-283.478
-857.108
-286.426
-983.432
-292.129
-1012.42
-299.752
-1074.9
-310.781
-1113.29
-327.635
-1153.35
-353.551
-1178.17
-392.359
-1190.11
-446.209
-1184.2
-513.869
-1164.08
-589.682
-1136.82
-665.137
-1113.33
-731.874
-1102.97
-784.374
-1110.7
-820.792
-1136.09
-842.147
-1174.97
-850.892
-1221.5
-849.762
-1269.81
-841.204
-1314.86
-827.262
-1352.81
-809.722
-1381.4
-790.287
-1400.19
-770.664
-1410.66
-752.549
-1415.47
-737.562
-1416.93
-727.212
-1415.34
-722.822
-1408.48
-725.309
-1392.3
-734.791
-1362.2
-750.358
-1313.87
-770.486
-1247.13
-792.031
-1174.79
-797.46
-1099.47
-734.413
-875.871
-586.254
-189.25
-495.293
593.751
-470.71
995.516
-456.983
1216.65
-438.712
1440.55
-419.993
1688.84
-402.601
1944.5
-385.746
2198.74
-368.479
2446.1
-350.586
2680.69
-332.17
2899.18
-313.019
3100.68
-293.064
3282.03
-272.578
3441.99
-251.535
3583.04
-229.532
3706.04
-206.542
3805.82
-182.92
3880.98
-158.582
3937.68
-133.484
3975.86
-107.459
3993.02
-81.007
3973.19
-54.8483
3907.89
-30.0104
3785.66
-7.29505
3605.04
12.4153
3337.81
27.6441
2953.74
38.935
2549.57
47.2826
2171.12
53.8645
1841.83
59.6154
1574.62
64.7939
1360.77
69.1142
1161
73.1747
1017.46
75.9422
855.445
79.4265
741.995
76.6417
457.717
86.3305
236.892
100.024
-31.8668
81.3006
-819.44
40.3287
-1739.16
24.2405
-2312.63
8.27884
-2820.38
4.22676
-2849.76
1494.83
-292.709
-854.002
-295.762
-980.379
-302.444
-1005.74
-311.995
-1065.35
-326.758
-1098.52
-350.101
-1130.01
-385.799
-1142.47
-437.023
-1138.89
-503.464
-1117.76
-580.264
-1087.28
-658.752
-1058.33
-729.707
-1042.37
-786.55
-1046.13
-826.742
-1070.51
-851.098
-1111.74
-862.187
-1163.88
-862.934
-1220.75
-855.875
-1276.87
-842.992
-1327.74
-825.878
-1369.93
-806.03
-1401.25
-785.09
-1421.13
-764.937
-1430.81
-747.603
-1432.81
-735.086
-1429.45
-729.124
-1421.31
-730.94
-1406.66
-740.895
-1382.35
-758.106
-1344.99
-780.366
-1291.61
-804.966
-1222.53
-829.004
-1150.75
-838.827
-1089.65
-783.296
-931.403
-620.442
-352.104
-495.104
468.413
-456.674
957.085
-443.394
1203.37
-428.326
1425.48
-411.591
1672.11
-395.422
1928.33
-380.009
2183.32
-364.393
2430.49
-348.04
2664.34
-330.897
2882.03
-312.765
3082.55
-293.622
3262.89
-273.755
3422.13
-253.139
3562.42
-231.411
3684.32
-208.592
3783.01
-185.047
3857.44
-160.714
3913.35
-135.566
3950.71
-109.455
3966.91
-82.8912
3946.63
-56.5938
3881.59
-31.5826
3760.65
-8.61915
3582.08
11.4761
3317.71
27.2498
2937.97
39.2574
2537.56
48.529
2161.85
56.261
1834.1
63.3502
1567.53
69.9067
1354.22
75.4507
1155.45
80.4881
1012.42
83.8168
852.116
87.6906
738.121
84.1209
461.287
92.4907
228.522
106.216
-45.5922
86.4019
-799.626
43.2341
-1695.99
24.088
-2293.48
7.11784
-2803.41
-6.11843
-2836.52
1476.4
-302.363
-850.331
-305.831
-976.911
-314.152
-997.422
-326.902
-1052.6
-347.455
-1077.97
-379.997
-1097.47
-428.027
-1094.44
-492.62
-1074.3
-569.753
-1040.63
-650.973
-1006.06
-726.218
-983.09
-787.729
-980.86
-832.067
-1001.79
-859.72
-1042.86
-873.356
-1098.1
-876.149
-1161.09
-870.821
-1226.08
-859.384
-1288.31
-843.292
-1343.83
-823.774
-1389.44
-802.197
-1422.83
-780.33
-1443
-760.417
-1450.73
-744.976
-1448.25
-736.404
-1438.02
-736.493
-1421.22
-745.983
-1397.17
-764.217
-1364.12
-788.962
-1320.24
-816.642
-1263.93
-843.571
-1195.6
-867.445
-1126.88
-879.465
-1077.63
-833.77
-977.098
-665.254
-520.62
-503.322
306.481
-444.644
898.407
-428.228
1186.96
-415.492
1412.75
-401.62
1658.23
-387.236
1913.94
-373.266
2169.35
-359.391
2416.61
-344.845
2649.79
-329.261
2866.45
-312.398
3065.69
-294.278
3244.77
-275.199
3403.05
-255.136
3542.36
-233.776
3662.96
-211.186
3760.42
-187.75
3834
-163.431
3889.03
-138.221
3925.5
-111.992
3940.68
-85.2718
3919.91
-58.7829
3855.11
-33.5409
3735.4
-10.267
3558.8
10.2838
3297.16
26.6796
2921.57
39.4937
2524.75
49.8015
2151.54
58.8304
1825.07
67.4455
1558.91
75.6011
1346.06
82.6041
1148.45
88.8287
1006.2
92.8897
848.055
97.2564
733.754
93.2293
465.314
99.8919
221.86
112.885
-58.585
92.1737
-778.914
46.6388
-1650.46
23.7971
-2270.64
4.94795
-2784.56
-16.2545
-2815.32
1447.05
-312.551
-845.853
-316.984
-972.478
-328.032
-986.374
-345.886
-1034.75
-374.906
-1048.95
-419.475
-1052.9
-481.406
-1032.51
-558.142
-997.561
-641.548
-957.219
-720.978
-926.633
-787.35
-916.718
-836.115
-932.095
-867.266
-970.642
-883.534
-1026.59
-888.393
-1093.24
-884.85
-1164.63
-875.054
-1235.88
-860.409
-1302.95
-841.918
-1362.32
-820.588
-1410.77
-797.837
-1445.58
-775.773
-1465.06
-757.197
-1469.3
-745.207
-1460.24
-742.476
-1440.75
-750.454
-1413.24
-768.841
-1378.78
-795.484
-1337.47
-826.649
-1289.08
-857.637
-1232.94
-884.232
-1169
-904.994
-1106.12
-916.351
-1066.27
-882.044
-1011.41
-721.915
-680.749
-524.087
108.653
-435.835
810.155
-412.708
1163.83
-400.546
1400.59
-389.552
1647.24
-377.799
1902.19
-365.593
2157.15
-353.469
2404.49
-340.881
2637.2
-327.127
2852.7
-311.8
3050.36
-294.931
3227.9
-276.825
3384.94
-257.462
3523
-236.578
3642.07
-214.294
3738.13
-191.013
3810.72
-166.726
3864.75
-141.448
3900.22
-115.078
3914.31
-88.1633
3892.99
-61.4343
3828.38
-35.9074
3709.88
-12.264
3535.16
8.8065
3276.09
25.8939
2904.48
39.5938
2511.05
51.0364
2140.1
61.4913
1814.62
71.7987
1548.61
81.752
1336.11
90.4282
1139.77
98.0354
998.589
102.995
843.096
107.946
728.802
103.806
469.455
108.616
217.049
120.112
-70.0806
98.5065
-757.309
50.5194
-1602.47
23.3902
-2243.51
1.80326
-2762.98
-23.7908
-2789.72
1410.34
-323.631
-840.155
-329.979
-966.13
-345.449
-970.904
-371.006
-1009.19
-411.509
-1008.45
-470.251
-994.155
-545.625
-957.135
-630.567
-912.618
-713.9
-873.887
-785.28
-855.254
-838.782
-863.216
-873.698
-897.179
-892.725
-951.615
-899.663
-1019.65
-897.881
-1095.03
-889.754
-1172.76
-876.735
-1248.89
-859.686
-1320
-839.302
-1382.71
-816.557
-1433.52
-793.143
-1468.99
-771.747
-1486.46
-755.918
-1485.13
-749.325
-1466.83
-754.561
-1435.51
-772.086
-1395.71
-799.9
-1350.97
-834.048
-1303.32
-869.504
-1253.62
-901.039
-1201.4
-924.517
-1145.52
-939.422
-1091.21
-946.887
-1058.8
-923.099
-1035.19
-787.38
-816.467
-562.43
-116.298
-431.768
679.493
-397.278
1129.34
-384.216
1387.52
-375.227
1638.25
-366.616
1893.58
-356.878
2147.41
-346.682
2394.29
-336.092
2626.61
-324.365
2840.97
-310.848
3036.84
-295.477
3212.53
-278.551
3368.01
-260.055
3504.5
-239.776
3621.79
-217.891
3716.25
-194.825
3787.65
-170.602
3840.52
-145.26
3874.88
-118.732
3887.78
-91.5903
3865.85
-64.5766
3801.36
-38.713
3684.01
-14.6422
3511.09
7.01073
3254.44
24.8557
2886.64
39.5173
2496.39
52.1886
2127.42
64.1921
1802.61
76.349
1536.45
88.2861
1324.17
98.8338
1129.23
108.005
989.417
114.018
837.083
119.637
723.184
115.687
473.404
118.663
214.073
128.029
-79.4465
105.399
-734.68
54.8742
-1551.95
22.8817
-2211.52
-2.45417
-2737.64
-37.4269
-2754.75
1369.06
-336.188
-832.55
-345.999
-956.318
-368.307
-948.596
-404.689
-972.807
-459.326
-953.809
-532.59
-920.891
-618.125
-871.601
-704.957
-825.786
-781.363
-797.481
-839.916
-796.701
-878.907
-824.225
-900.863
-875.223
-909.893
-942.585
-909.789
-1019.76
-903.241
-1101.57
-891.84
-1184.16
-876.408
-1264.33
-857.414
-1338.99
-835.426
-1404.69
-811.597
-1457.35
-788.147
-1492.44
-768.609
-1505.99
-757.414
-1496.33
-758.575
-1465.67
-773.932
-1420.16
-802.082
-1367.56
-838.775
-1314.28
-878.35
-1263.75
-915.124
-1216.85
-944.156
-1172.37
-961.988
-1127.69
-968.869
-1084.33
-969.247
-1058.43
-951.614
-1052.83
-845.44
-922.641
-611.318
-350.42
-434.698
502.872
-382.12
1076.76
-367.087
1372.49
-358.966
1630.13
-353.299
1887.91
-346.773
2140.88
-339.015
2386.53
-330.503
2618.1
-320.891
2831.36
-309.416
3025.37
-295.807
3198.92
-280.285
3352.49
-262.84
3487.06
-243.317
3602.27
-221.943
3694.87
-199.169
3764.88
-175.053
3816.41
-149.663
3849.49
-122.969
3861.09
-95.5734
3838.45
-68.2349
3774.02
-41.9855
3657.76
-17.4303
3486.53
4.86693
3232.14
23.5324
2867.97
39.2284
2480.69
53.2189
2113.43
66.889
1788.94
81.0461
1522.29
95.1426
1310.07
107.745
1116.63
118.645
978.517
125.85
829.878
132.195
716.839
128.677
476.923
129.889
212.861
136.627
-86.1846
112.813
-710.866
59.7187
-1498.85
22.4171
-2174.22
-7.65992
-2707.56
-49.212
-2713.2
1313.57
-351.183
-821.949
-366.798
-940.704
-399.024
-916.369
-449.296
-922.535
-519.234
-883.871
-604.539
-835.586
-694.149
-781.99
-775.508
-744.428
-839.36
-733.628
-882.777
-753.284
-907.883
-799.119
-919.054
-864.051
-920.547
-941.092
-915.444
-1024.86
-905.552
-1111.47
-891.738
-1197.98
-874.346
-1281.72
-853.633
-1359.7
-830.233
-1428.09
-805.716
-1481.87
-783.131
-1515.02
-767.12
-1522.01
-762.978
-1500.47
-774.491
-1454.16
-801.704
-1392.94
-840.454
-1328.81
-884.108
-1270.62
-925.952
-1221.91
-960.6
-1182.2
-984.193
-1148.78
-994.374
-1117.51
-991.875
-1086.83
-982.67
-1067.63
-965.188
-1070.31
-885.417
-1002.41
-663.631
-572.206
-447.43
286.672
-368.21
997.541
-349.24
1353.52
-341.261
1622.15
-337.814
1884.47
-334.856
2137.92
-330.265
2381.94
-324.135
2611.97
-316.687
2823.91
-307.398
3016.08
-295.8
3187.32
-281.924
3338.62
-265.735
3470.87
-247.135
3583.67
-226.405
3674.14
-204.016
3742.49
-180.065
3792.46
-154.654
3824.08
-127.796
3834.23
-100.128
3810.78
-72.4307
3746.33
-45.7502
3631.08
-20.6549
3461.44
2.34633
3209.14
21.8908
2848.43
38.6908
2463.89
54.089
2098.03
69.5415
1773.49
85.8459
1505.99
102.269
1293.65
117.095
1101.8
129.869
965.743
138.383
821.363
145.493
709.729
142.564
479.852
142.135
213.29
145.909
-89.9588
120.729
-685.686
65.0677
-1443.19
22.0662
-2131.22
-13.6972
-2671.8
-56.9905
-2669.9
1244.22
-370.091
-806.726
-394.713
-916.083
-440.166
-870.916
-506.268
-856.433
-589.966
-800.172
-681.679
-743.874
-767.635
-696.034
-837.005
-675.058
-885.196
-685.437
-913.733
-724.746
-927.143
-785.71
-930.177
-861.017
-926.37
-944.899
-917.821
-1033.41
-905.511
-1123.78
-889.749
-1213.74
-870.59
-1300.88
-848.252
-1382.04
-823.646
-1452.7
-799.047
-1506.47
-778.671
-1535.4
-768.471
-1532.21
-774.28
-1494.66
-798.601
-1429.83
-838.392
-1353.15
-886.169
-1281.04
-933.494
-1223.3
-973.769
-1181.63
-1002.89
-1153.08
-1018.57
-1133.09
-1019.71
-1116.38
-1007.27
-1099.27
-987.202
-1087.69
-964.331
-1093.18
-904.429
-1062.31
-716.968
-759.667
-474.467
44.1709
-357.687
880.761
-330.586
1326.42
-322.456
1614.02
-320.478
1882.49
-320.86
2138.3
-320.06
2381.14
-316.895
2608.81
-311.778
2818.79
-304.744
3009.05
-295.345
3177.92
-283.36
3326.63
-268.649
3456.16
-251.16
3566.18
-231.223
3654.21
-209.33
3720.6
-185.618
3768.75
-160.227
3798.69
-133.217
3807.22
-105.266
3782.83
-77.183
3718.24
-50.0311
3603.93
-24.3422
3435.75
-0.580811
3185.38
19.896
2827.95
37.8673
2445.92
54.7622
2081.14
72.1142
1756.14
90.7136
1487.39
109.628
1274.73
126.834
1084.59
141.61
950.967
151.527
811.446
159.415
701.841
157.151
482.116
155.218
215.224
155.837
-90.5779
129.12
-658.969
70.941
-1385.01
21.876
-2082.15
-20.6162
-2629.31
-71.4366
-2619.08
1165.49
-394.965
-784.666
-432.423
-878.625
-493.685
-809.654
-575.087
-775.032
-667.612
-707.647
-757.823
-653.663
-832.731
-621.126
-886.073
-621.716
-918.354
-653.156
-934.156
-708.944
-938.706
-781.16
-936.06
-863.664
-928.665
-952.294
-917.682
-1044.39
-903.453
-1138
-885.926
-1231.26
-865.036
-1321.77
-841.143
-1405.93
-815.682
-1478.16
-791.978
-1530.17
-775.777
-1551.6
-774.345
-1533.64
-793.216
-1475.79
-832.032
-1391.02
-883.472
-1301.71
-936.979
-1227.53
-983.692
-1176.58
-1018.48
-1146.84
-1039.19
-1132.38
-1045.18
-1127.1
-1036.45
-1125.11
-1014.09
-1121.63
-983.158
-1118.63
-951.294
-1125.04
-901.707
-1111.9
-756.84
-904.534
-509.712
-202.957
-352.597
723.646
-311.632
1285.46
-302.676
1605.07
-301.724
1881.54
-304.828
2141.41
-308.012
2384.33
-308.514
2609.31
-306.141
2816.42
-301.454
3004.36
-294.363
3170.83
-284.484
3316.75
-271.485
3443.16
-255.31
3550.01
-236.335
3635.23
-215.067
3699.33
-191.685
3745.36
-166.366
3773.37
-139.229
3780.08
-110.995
3754.6
-82.5082
3689.76
-54.8506
3576.27
-28.5194
3409.42
-3.9452
3160.8
17.5153
2806.49
36.722
2426.71
55.2025
2062.66
74.5747
1736.77
95.6217
1466.34
117.192
1253.16
136.928
1064.86
153.817
934.078
165.203
800.06
173.857
693.187
172.252
483.721
168.945
218.53
166.353
-87.9863
137.96
-630.575
77.3727
-1324.43
21.9813
-2026.76
-28.0268
-2579.3
-80.2922
-2566.82
1072.15
-428.325
-753.134
-482.3
-824.65
-559.84
-732.114
-652.508
-682.363
-746.034
-614.121
-826.54
-573.157
-885.308
-562.358
-921.711
-585.312
-940.095
-634.772
-946.18
-702.86
-944.577
-782.763
-938.151
-870.089
-928.288
-962.157
-915.414
-1057.26
-899.45
-1153.97
-880.162
-1250.55
-857.519
-1344.41
-832.223
-1431.23
-806.537
-1503.85
-785.263
-1551.44
-775.973
-1560.89
-786.831
-1522.78
-821.521
-1441.1
-874.951
-1337.59
-935.036
-1241.63
-989.54
-1173.03
-1031.06
-1135.07
-1056.99
-1120.91
-1067.24
-1122.12
-1062.52
-1131.81
-1043.62
-1144.01
-1011.74
-1153.51
-970.874
-1159.49
-928.937
-1166.98
-880.899
-1159.94
-768.807
-1016.63
-536.72
-435.044
-352.108
539.034
-293.886
1227.23
-282.101
1593.28
-281.847
1881.28
-287.058
2146.62
-293.914
2391.18
-298.6
2613.99
-299.619
2817.44
-297.537
3002.28
-292.824
3166.12
-285.2
3309.13
-274.14
3432.1
-259.5
3535.37
-241.67
3617.4
-221.174
3678.83
-198.229
3722.42
-173.053
3748.2
-145.826
3752.85
-117.32
3726.09
-88.4189
3660.86
-60.2289
3548.08
-33.2125
3382.4
-7.7761
3135.37
14.7177
2784
35.2183
2406.21
55.3729
2042.5
76.8922
1715.25
100.547
1442.69
124.942
1228.77
147.352
1042.45
166.449
914.982
179.349
787.16
188.725
683.811
187.703
484.743
183.132
223.101
177.39
-82.2442
147.226
-600.411
84.4028
-1261.6
22.4661
-1964.82
-36.1842
-2520.65
-92.8293
-2510.17
964.826
-472.692
-709.6
-545.353
-751.989
-636.19
-641.277
-732.657
-585.895
-818.311
-528.467
-882.878
-508.59
-923.754
-521.482
-944.985
-564.081
-952.648
-627.109
-951.998
-703.511
-946.365
-788.395
-937.409
-879.045
-925.676
-973.89
-911.108
-1071.83
-893.395
-1171.68
-872.265
-1271.68
-847.879
-1368.8
-821.523
-1457.59
-796.692
-1528.68
-780.138
-1568
-781.32
-1559.71
-808.159
-1495.94
-860.205
-1389.05
-926.06
-1271.73
-989.777
-1177.91
-1039.86
-1122.95
-1072.1
-1102.82
-1086.79
-1106.23
-1085.49
-1123.42
-1069.77
-1147.53
-1040.9
-1172.88
-1000.21
-1194.2
-950.904
-1208.8
-899.946
-1217.94
-848.746
-1211.14
-758.179
-1107.19
-552.643
-640.58
-353.268
339.658
-278.465
1152.43
-261.442
1576.26
-260.974
1880.81
-267.888
2153.53
-277.833
2401.13
-286.792
2622.95
-291.894
2822.54
-292.925
3003.31
-290.733
3163.93
-285.448
3303.84
-276.514
3423.17
-263.636
3522.49
-247.151
3600.92
-227.591
3659.27
-205.206
3700.03
-180.258
3723.25
-152.992
3725.59
-124.237
3697.34
-94.9236
3631.54
-66.1828
3519.34
-38.4451
3354.66
-12.1014
3109.02
11.4714
2760.42
33.3194
2384.36
55.2356
2020.59
79.0361
1691.45
105.471
1416.25
132.866
1201.37
158.094
1017.22
179.479
893.596
193.912
772.727
203.942
673.781
203.37
485.315
197.616
228.855
188.876
-73.5034
156.899
-568.434
92.0759
-1196.78
23.5021
-1896.25
-44.4864
-2452.66
-102.609
-2452.05
846.248
-529.693
-652.579
-620.068
-661.613
-717.335
-544.011
-808.28
-494.951
-878.642
-458.104
-924.496
-462.736
-948.844
-497.134
-958.191
-554.734
-958.412
-626.888
-953.409
-708.513
-945.151
-796.654
-934.332
-889.863
-920.944
-987.278
-904.659
-1088.12
-885.081
-1191.26
-862.026
-1294.74
-836.028
-1394.8
-809.287
-1484.33
-787.042
-1550.92
-778.423
-1576.62
-794.296
-1543.84
-840.194
-1450.04
-908.882
-1320.36
-982.349
-1198.27
-1043.37
-1116.89
-1083.94
-1082.37
-1103.99
-1082.77
-1106.21
-1104
-1093.18
-1136.45
-1066.82
-1173.89
-1028.69
-1211.02
-980.301
-1242.59
-924.374
-1264.73
-866.625
-1275.69
-811.152
-1266.61
-734.153
-1184.19
-561.111
-813.621
-354.372
132.919
-265.198
1063.26
-241.715
1552.78
-239.394
1878.49
-247.526
2161.67
-260.043
2413.64
-272.922
2635.83
-282.559
2832.18
-287.405
3008.15
-288.073
3164.59
-285.211
3300.98
-278.527
3416.48
-267.621
3511.58
-252.694
3585.99
-234.248
3640.83
-212.565
3678.35
-187.947
3698.63
-160.709
3698.35
-131.74
3668.37
-102.026
3601.83
-72.7255
3490.04
-44.238
3326.18
-16.9463
3081.73
7.7469
2735.73
30.9878
2361.12
54.7514
1996.83
80.9771
1665.22
110.378
1386.85
140.963
1170.79
169.15
989.033
192.893
869.854
208.858
756.761
219.448
663.192
219.15
485.613
212.263
235.742
200.739
-61.9789
166.966
-534.662
100.429
-1130.24
25.2074
-1821.03
-52.901
-2374.55
-107.469
-2397.48
707.094
-598.889
-582.74
-701.78
-558.723
-795.873
-449.917
-872.751
-418.072
-923.825
-407.031
-951.749
-434.811
-962.892
-485.992
-963.942
-553.683
-959.402
-631.429
-951.638
-716.277
-941.507
-806.785
-929.066
-902.305
-913.995
-1002.35
-895.853
-1106.26
-874.27
-1212.84
-849.277
-1319.73
-822.025
-1422.05
-796.081
-1510.27
-779.03
-1567.97
-782.542
-1573.1
-817.439
-1508.94
-883.698
-1383.78
-965.252
-1238.81
-1039.32
-1124.2
-1091.21
-1065
-1118.47
-1055.11
-1124.86
-1076.39
-1114.51
-1114.35
-1090.3
-1160.66
-1054.27
-1209.92
-1008.13
-1257.15
-953.598
-1297.13
-893.094
-1325.23
-831.146
-1337.63
-772.36
-1325.4
-703.664
-1252.89
-563.377
-953.908
-356.49
-73.9673
-252.53
959.297
-223.356
1523.6
-217.927
1873.06
-226.186
2169.93
-240.848
2428.31
-257.087
2652.07
-271.272
2846.36
-280.618
3017.5
-284.732
3168.71
-284.489
3300.74
-280.134
3412.13
-271.365
3502.81
-258.211
3572.83
-241.072
3623.69
-220.246
3657.52
-196.075
3674.46
-168.947
3671.22
-139.815
3639.24
-109.725
3571.74
-79.8661
3460.18
-50.6082
3296.92
-22.3324
3053.46
3.5155
2709.88
28.1838
2336.46
53.8796
1971.13
82.6866
1636.42
115.258
1354.28
149.235
1136.81
180.53
957.738
206.688
843.696
224.165
739.284
235.201
652.156
234.973
485.84
226.969
243.746
212.912
-47.9223
177.422
-499.171
109.494
-1062.32
27.7519
-1739.29
-61.0975
-2285.7
-120.581
-2338
554.463
-676.895
-503.636
-783.233
-452.384
-864.413
-368.738
-921.904
-360.581
-953.649
-375.286
-966.895
-421.565
-968.722
-484.165
-964.498
-557.907
-957.011
-638.917
-947.345
-725.942
-935.614
-818.516
-921.52
-916.399
-904.611
-1019.26
-884.437
-1126.43
-860.746
-1236.53
-833.953
-1346.52
-806.173
-1449.83
-782.94
-1533.5
-774.77
-1576.14
-795.365
-1552.51
-852.692
-1451.61
-937.56
-1298.92
-1025.02
-1151.35
-1091.72
-1057.49
-1129.3
-1027.42
-1141.28
-1043.13
-1133.94
-1083.72
-1111.81
-1136.49
-1077.62
-1194.84
-1033.42
-1254.12
-981.04
-1309.53
-922.286
-1355.88
-859.33
-1388.19
-795.591
-1401.37
-735.05
-1385.94
-671.166
-1316.77
-555.395
-1069.68
-353.685
-275.677
-237.606
843.219
-205.664
1491.66
-197.57
1864.97
-204.338
2176.69
-220.483
2444.45
-239.583
2671.17
-257.912
2864.69
-272.149
3031.74
-280.446
3177.01
-283.235
3303.53
-281.322
3410.21
-274.8
3496.29
-263.609
3561.64
-247.982
3608.06
-228.183
3637.73
-204.594
3650.87
-177.674
3644.3
-148.442
3610.01
-118.014
3541.31
-87.6092
3429.78
-57.5699
3266.88
-28.2849
3024.17
-1.25818
2682.86
24.8676
2310.33
52.5813
1943.42
84.1382
1604.86
120.107
1318.31
157.699
1099.22
192.253
923.184
220.875
815.074
239.823
720.337
251.172
640.806
250.795
486.217
241.658
252.883
225.332
-31.5966
188.262
-462.101
119.293
-993.346
31.4297
-1651.42
-67.8053
-2186.47
-128.561
-2277.24
392.226
-757.479
-421.441
-856.427
-353.436
-917.731
-307.433
-954.802
-323.511
-970.215
-359.873
-972.959
-418.821
-968.868
-488.256
-961.451
-565.324
-952.007
-648.36
-940.754
-737.196
-927.392
-831.877
-911.477
-932.315
-892.532
-1038.2
-870.174