/*--------------------------------*- C++ -*----------------------------------*\
| =========                 |                                                 |
| \\      /  F ield         | OpenFOAM: The Open Source CFD Toolbox           |
|  \\    /   O peration     | Version:  4.1                                   |
|   \\  /    A nd           | Web:      www.OpenFOAM.org                      |
|    \\/     M anipulation  |                                                 |
\*---------------------------------------------------------------------------*/
FoamFile
{
    version     2.0;
    format      ascii;
    class       volScalarField;
    location    "14";
    object      p;
}
// * * * * * * * * * * * * * * * * * * * * * * * * * * * * * * * * * * * * * //

dimensions      [0 2 -2 0 0 0 0];

internalField   nonuniform List<scalar> 
6785
(
571.077
492.204
445.173
391.634
344.818
299.736
257.781
218.123
180.73
145.458
111.506
78.5307
50.7366
22.2082
-18.155
-47.4635
-65.6289
-55.8523
-63.2365
-62.8586
-65.5292
-66.4162
-67.131
-66.8858
-65.7687
-63.6314
-60.6996
-56.624
-51.8337
-48.172
-31.2748
-34.6966
-25.4974
-29.6169
-25.6383
-26.4028
-25.3193
-25.3185
-25.1351
-25.2832
-25.4817
-25.8569
-25.6734
-25.1084
-22.3029
6.55334
5.59938
9.4358
5.36651
8.28463
6.22522
7.04793
6.47707
6.59232
6.34967
6.3296
6.45322
7.44899
8.49957
10.8517
13.6827
13.1844
15.9019
13.8786
17.1806
16.3392
18.4289
18.9104
20.1404
20.9493
21.8042
22.3646
22.5575
23.0145
23.4854
21.5599
19.0456
20.8607
18.1633
19.9566
18.0668
18.8114
17.6979
17.3163
15.9429
14.2504
12.2296
10.8425
9.71641
6.67891
-15.7222
-20.7057
-20.8837
-25.2484
-26.2425
-30.1627
-32.0934
-35.5476
-37.7819
-40.0431
-41.304
-41.9414
-42.4661
-43.6228
-44.7697
-51.4811
-55.0378
-54.2808
-57.2375
-56.954
-59.4014
-59.801
-61.4249
-61.9168
-62.2713
-62.0451
-61.7378
-61.3054
-61.0603
-58.8476
-41.4254
-41.2953
-39.1167
-39.7711
-37.6565
-37.8083
-36.4522
-36.0309
-35.2012
-34.5569
-33.7292
-32.9501
-31.5079
-29.9565
-26.8405
-15.7033
-14.0847
-12.0904
-11.7383
-9.57853
-8.89999
-7.2145
-6.06828
-4.65316
-3.33031
-1.90484
-0.567861
0.984172
2.17432
3.79074
1.73678
3.03878
4.23393
4.47838
5.89443
6.25933
7.33007
7.98799
8.83474
9.59724
10.4264
11.1751
12.0797
12.7079
13.6718
11.1256
12.6012
13.6136
14.0156
15.271
15.7297
16.7302
17.4229
18.2377
18.9881
19.778
20.5218
21.4637
22.0916
23.2179
33.5796
34.3511
34.8583
35.0958
35.6506
35.4532
35.5065
35.0016
34.3864
33.6895
33.2641
33.4203
34.0131
34.593
35.1006
34.2916
34.1364
32.0692
30.0621
28.8581
27.5201
26.8716
26.3364
26.2091
26.1584
26.2904
26.4367
26.5633
26.9431
26.4516
64.6231
60.2883
51.334
44.262
39.598
33.9779
29.4441
26.3578
23.2012
20.9441
19.2053
18.2305
17.937
18.2531
18.095
45.8096
45.822
50.1048
46.1612
46.4312
47.4261
46.4557
45.5881
45.5904
45.4175
45.3131
44.3585
44.7732
44.705
43.7887
43.7749
44.4632
44.5428
43.3081
44.485
44.5207
43.6219
43.6274
44.7822
44.7291
43.9619
44.0249
45.0482
45.2031
44.38
45.4056
45.5449
45.0833
45.1767
45.8238
46.0864
45.6877
46.22
46.4989
46.3019
46.4059
46.7351
46.9966
46.8908
46.9975
47.2297
47.423
47.3707
47.6226
47.692
47.6929
47.863
48.0519
48.3399
48.3708
48.5069
48.6534
49.0598
49.0758
49.1596
49.2983
49.2771
49.3969
49.4297
50.0336
50.4643
50.9031
51.1568
50.9461
52.7163
53.4366
50.4807
49.5261
53.8264
56.162
41.6556
53.0586
57.4174
25.3013
39.5069
50.0417
51.8684
56.423
51.6024
53.8938
61.3659
62.8564
65.1933
66.8709
68.2563
67.7423
69.7235
78.1765
61.2284
62.5652
59.171
56.5042
55.6794
54.1401
50.7649
52.2345
68.7832
38.2131
36.822
32.7437
30.5498
30.3236
28.7922
25.6195
22.1373
22.2046
42.9686
20.5546
18.4198
15.2614
11.9655
11.6217
12.5899
10.2383
6.95378
16.2159
11.2724
12.8484
12.0077
9.05531
6.77104
3.99728
5.48428
2.63407
10.5362
14.8459
10.3737
10.4293
9.76001
7.47146
5.83194
4.59199
-2.05978
6.56147
17.4411
13.1315
11.783
9.11349
7.80991
6.27377
5.16614
4.69326
0.824337
-0.928141
12.4442
8.57725
8.455
7.47806
5.91204
0.871203
0.321631
2.07976
-10.798
7.73165
3.35542
-1.13873
8.26711
1.24868
5.11222
4.0771
6.30115
9.62184
5.14771
7.87704
10.079
6.94004
8.30011
7.56398
8.58502
10.8304
7.69029
8.87781
7.98332
8.9959
11.0022
7.37164
9.20422
10.7831
7.88312
8.88127
7.92916
8.79502
10.7148
7.55156
8.61833
7.51267
8.5194
10.3269
6.6155
8.41225
9.79835
6.89015
7.84429
6.8103
7.63352
9.28812
6.32947
7.2859
6.23138
7.09325
8.5758
5.36147
6.84757
7.90788
5.48331
6.23017
5.37166
5.97592
7.15505
4.85698
5.54579
4.72852
5.30206
6.22371
3.94222
4.90255
5.43893
3.78519
4.20418
3.5898
3.88788
4.36866
2.93001
3.23224
2.67315
2.87608
3.07506
1.78412
2.11468
2.04918
1.095
1.1113
0.650444
0.617902
0.730322
0.000877963
0.00142566
0.00234637
0.0029732
0.00372134
0.00438569
0.00508781
0.00576646
0.00645638
0.00713816
0.00781915
0.00849005
0.00914769
0.00978306
0.0103877
0.0109511
0.0114631
0.0119145
0.0122983
0.0126111
0.0128539
0.0130328
0.0131594
0.0132507
0.013327
0.0134091
0.0135134
0.013648
0.0138117
0.0139995
0.0142159
0.0144903
0.0148872
0.0155044
0.0164475
0.017775
0.019423
0.0211916
0.0228576
0.0242186
0.0250525
0.0252439
0.024739
0.0235874
0.0219326
0.0199301
0.0176566
0.01498
0.0115228
0.00680006
0.000376957
-0.00809263
-0.018761
-0.0316552
-0.0464644
-0.0603013
-0.0853952
-0.209968
-0.198361
-0.425947
-0.409033
-0.561452
-0.699196
-0.79807
-0.848973
-0.805211
-0.718297
-0.559365
-0.380567
-0.190889
0.00393053
0.149153
0.29651
0.34368
0.441034
0.41129
0.405352
0.552021
0.188426
0.00251396
0.00401459
0.00657082
0.00835319
0.0104143
0.0122555
0.0141703
0.0160165
0.0178748
0.0197015
0.0215114
0.0232819
0.0250018
0.0266467
0.0281918
0.0296077
0.0308657
0.03194
0.0328118
0.0334724
0.0339262
0.0341923
0.0343056
0.0343155
0.0342815
0.0342634
0.0343081
0.034438
0.0346483
0.0349239
0.0352763
0.035789
0.0366463
0.0381269
0.0405313
0.044026
0.0484242
0.0531536
0.0575946
0.0612015
0.0633753
0.06383
0.0624526
0.0594301
0.0552331
0.0504017
0.0453044
0.0397635
0.0328943
0.0233941
0.00986447
-0.00912097
-0.0345388
-0.066826
-0.104987
-0.140305
-0.196758
-0.458179
-0.251683
-0.65043
-0.686201
-1.02112
-1.30822
-1.51764
-1.62714
-1.55072
-1.38931
-1.07965
-0.741975
-0.374279
-0.0265005
0.262723
0.501064
0.656479
0.785943
0.84288
0.887457
1.0082
1.01515
0.00391742
0.00649319
0.0108596
0.013893
0.0174115
0.0205508
0.0238209
0.0269744
0.0301529
0.0332799
0.0363824
0.0394215
0.0423794
0.0452147
0.047886
0.0503436
0.0525393
0.0544295
0.055982
0.0571818
0.0580356
0.058575
0.0588581
0.0589678
0.0590041
0.0590675
0.0592374
0.0595514
0.0600011
0.0605598
0.0612455
0.0621971
0.0637257
0.0663029
0.0704406
0.0764258
0.0839436
0.0920236
0.0996173
0.105792
0.109527
0.110325
0.107976
0.102781
0.095511
0.0870527
0.077989
0.06797
0.0554605
0.0382723
0.0141421
-0.0191466
-0.0630196
-0.118055
-0.182387
-0.243045
-0.334985
-0.650425
-0.230149
-0.761718
-0.812138
-1.24084
-1.60251
-1.86455
-1.99931
-1.90278
-1.7049
-1.3203
-0.907248
-0.45414
-0.0333634
0.321624
0.603132
0.799754
0.95284
1.02152
1.12753
1.16414
1.37811
0.00525324
0.0088795
0.0149642
0.0192246
0.0241387
0.0285314
0.033096
0.0374989
0.0419315
0.0462913
0.0506141
0.0548472
0.0589651
0.0629106
0.0666256
0.070041
0.0730892
0.0757092
0.0778562
0.0795091
0.0806772
0.0814048
0.0817731
0.0818984
0.0819209
0.0819821
0.0821935
0.0826073
0.08321
0.0839611
0.084882
0.0861645
0.0882434
0.0917833
0.0975109
0.10584
0.116328
0.127602
0.1382
0.146815
0.152022
0.153127
0.149839
0.142583
0.132452
0.120714
0.108219
0.0945034
0.0774353
0.0539823
0.0210318
-0.0244332
-0.0843098
-0.159356
-0.24673
-0.329902
-0.4475
-0.761481
-0.225943
-0.955775
-1.0111
-1.544
-2.00375
-2.33097
-2.49544
-2.37005
-2.12147
-1.63845
-1.12442
-0.559523
-0.0380648
0.402672
0.748952
0.991233
1.18264
1.25353
1.41502
1.40489
1.67479
0.00645863
0.0111849
0.018997
0.0245136
0.0308477
0.036521
0.0424065
0.0480862
0.0538008
0.0594223
0.0649953
0.0704535
0.0757638
0.0808531
0.0856466
0.0900555
0.0939924
0.0973785
0.100156
0.102297
0.103813
0.104761
0.105245
0.105416
0.105454
0.105543
0.105828
0.106375
0.107165
0.108141
0.109324
0.110955
0.113595
0.118108
0.125451
0.136181
0.149728
0.164296
0.178003
0.189152
0.195897
0.197341
0.193092
0.1837
0.170583
0.155401
0.139276
0.121612
0.0996249
0.0694118
0.0270499
-0.0311567
-0.107408
-0.202509
-0.312505
-0.418811
-0.560996
-0.854477
-0.281924
-1.14777
-1.23319
-1.8777
-2.45174
-2.85249
-3.04891
-2.89015
-2.58457
-1.99074
-1.36506
-0.67586
-0.0449099
0.491724
0.906622
1.20496
1.4326
1.51806
1.73196
1.6774
2.13727
0.00758101
0.0134252
0.0229184
0.0296955
0.0374319
0.0443804
0.0515729
0.0585182
0.0655002
0.0723693
0.0791769
0.0858444
0.0923307
0.0985473
0.104402
0.109788
0.114596
0.11873
0.122119
0.124728
0.126571
0.127718
0.128295
0.128486
0.128516
0.12861
0.128947
0.12961
0.130569
0.131746
0.133158
0.135092
0.138234
0.143657
0.152562
0.165669
0.182278
0.200148
0.216976
0.230668
0.238957
0.240739
0.235517
0.223976
0.207872
0.189289
0.169652
0.148241
0.12161
0.0850077
0.0337732
-0.0363637
-0.127826
-0.241471
-0.372371
-0.501696
-0.666962
-0.925183
-0.409452
-1.29089
-1.45166
-2.19863
-2.88969
-3.36215
-3.58588
-3.3909
-3.02888
-2.32527
-1.59286
-0.783623
-0.0492131
0.579051
1.0574
1.40982
1.6694
1.76844
2.03204
1.93252
2.45908
0.00861373
0.0156117
0.0267561
0.0348087
0.0439452
0.052177
0.0606791
0.0688956
0.0771487
0.0852701
0.0933167
0.101199
0.108867
0.116217
0.123141
0.129509
0.135195
0.140084
0.14409
0.147172
0.149345
0.150691
0.151359
0.151569
0.151588
0.151686
0.152078
0.15286
0.153993
0.155373
0.157004
0.159217
0.162822
0.169111
0.179552
0.195054
0.214784
0.236024
0.25605
0.272351
0.282229
0.284367
0.278151
0.264404
0.24523
0.223166
0.199964
0.17477
0.143445
0.1004
0.0403187
-0.0415297
-0.147711
-0.279134
-0.430173
-0.583533
-0.771926
-0.994124
-0.626545
-1.40522
-1.69114
-2.52755
-3.34381
-3.88936
-4.13632
-3.90007
-3.47867
-2.66089
-1.82067
-0.889653
-0.0516063
0.668685
1.20994
1.61625
1.90615
2.01751
2.32651
2.18404
2.80839
0.00957298
0.0177535
0.0305067
0.0398442
0.0503688
0.0598854
0.0696911
0.0791762
0.0886956
0.0980652
0.107346
0.116439
0.125285
0.133765
0.141754
0.149103
0.155665
0.161304
0.165921
0.169469
0.171963
0.173497
0.174244
0.174458
0.174451
0.17454
0.174977
0.175873
0.177176
0.178748
0.180575
0.183026
0.187035
0.194124
0.206055
0.22396
0.246865
0.271537
0.29483
0.3138
0.325306
0.327812
0.320577
0.304562
0.282233
0.256612
0.229806
0.200827
0.164817
0.115392
0.0466866
-0.0463779
-0.166477
-0.314652
-0.485036
-0.663185
-0.875033
-1.08024
-0.961272
-1.49736
-1.96227
-2.87221
-3.82472
-4.44642
-4.71202
-4.42814
-3.94279
-3.0039
-2.0527
-0.995855
-0.0524503
0.762033
1.3662
1.8283
2.14614
2.27173
2.62112
2.43665
3.14262
0.0104631
0.0198595
0.0341809
0.0448143
0.056717
0.0675218
0.0786277
0.089382
0.100166
0.110783
0.121298
0.131602
0.141626
0.151238
0.160295
0.168627
0.176065
0.182455
0.187684
0.191695
0.194506
0.19622
0.197036
0.197243
0.197198
0.197268
0.197745
0.198755
0.200228
0.201988
0.203991
0.206638
0.210989
0.218808
0.232184
0.252508
0.278666
0.306855
0.333511
0.35523
0.368419
0.371314
0.363024
0.344652
0.31903
0.289693
0.259134
0.226229
0.185382
0.12947
0.0522018
-0.0517499
-0.185193
-0.349444
-0.538901
-0.742627
-0.979839
-1.19815
-1.37091
-1.52643
-2.25873
-3.23214
-4.33241
-5.03327
-5.3107
-4.97167
-4.4175
-3.35049
-2.28599
-1.10014
-0.0508859
0.858956
1.52493
2.04435
2.38666
2.52879
2.91259
2.6955
3.41698
0.0112924
0.021936
0.0377822
0.0497208
0.0629886
0.0750835
0.0874838
0.0995059
0.11155
0.123414
0.13516
0.146672
0.157874
0.168619
0.178743
0.188058
0.196373
0.203515
0.209352
0.213822
0.216942
0.218826
0.219698
0.219881
0.219783
0.219821
0.22033
0.221451
0.223094
0.225034
0.227191
0.229984
0.234603
0.243068
0.257832
0.280597
0.310094
0.341898
0.372025
0.396584
0.411516
0.414818
0.405427
0.384574
0.355458
0.322157
0.287587
0.250502
0.204557
0.14198
0.0562129
-0.0582585
-0.204473
-0.384249
-0.592764
-0.822704
-1.08831
-1.33807
-1.69214
-1.4887
-2.59326
-3.61116
-4.87183
-5.65621
-5.93628
-5.53298
-4.90415
-3.70101
-2.52056
-1.20219
-0.0465859
0.959791
1.6863
2.26465
2.62758
2.78875
3.20064
2.95008
3.73221
0.0120662
0.0239893
0.041317
0.05457
0.0691894
0.0825759
0.096265
0.109554
0.122855
0.135963
0.148938
0.161659
0.174039
0.185916
0.19711
0.207411
0.216605
0.224497
0.230942
0.235867
0.239288
0.241333
0.242245
0.242389
0.24222
0.242213
0.242746
0.243978
0.245793
0.247908
0.250193
0.253081
0.257884
0.2669
0.282989
0.308222
0.341163
0.376696
0.410421
0.437923
0.454673
0.458401
0.447837
0.424319
0.391401
0.353743
0.314745
0.273049
0.221586
0.152076
0.0578517
-0.0667959
-0.225326
-0.420334
-0.648254
-0.905192
-1.2024
-1.48928
-1.87255
-1.46473
-2.96372
-4.01563
-5.44943
-6.32389
-6.59474
-6.11606
-5.40549
-4.05683
-2.75713
-1.30211
-0.0393155
1.06497
1.85088
2.48996
2.86931
3.05257
3.48594
3.19945
4.04081
0.0127899
0.0260241
0.0447899
0.0593655
0.0753218
0.0900006
0.104972
0.119525
0.13408
0.148429
0.162631
0.17656
0.190118
0.203129
0.215395
0.226683
0.236757
0.245401
0.252452
0.257826
0.261542
0.263735
0.264672
0.264757
0.264499
0.26443
0.264978
0.26632
0.268309
0.270596
0.272984
0.275908
0.280801
0.290257
0.307596
0.335329
0.371837
0.411226
0.448696
0.479259
0.497905
0.502068
0.490216
0.463748
0.426573
0.383994
0.339964
0.293058
0.23555
0.158845
0.0562879
-0.0781408
-0.248578
-0.458712
-0.706656
-0.991726
-1.32414
-1.65405
-2.02225
-1.55951
-3.32038
-4.4602
-6.0711
-7.04507
-7.29179
-6.72403
-5.92333
-4.41843
-2.99568
-1.39949
-0.0287133
1.17495
2.01867
2.72076
3.11158
3.32102
3.76807
3.46068
4.29803
0.0134681
0.0280447
0.0482056
0.0641116
0.0813894
0.0973608
0.113607
0.129422
0.145226
0.160814
0.176241
0.191377
0.206113
0.22026
0.2336
0.245879
0.256836
0.266233
0.273888
0.279707
0.283708
0.286036
0.286981
0.286987
0.286617
0.286468
0.287023
0.288476
0.290645
0.2931
0.295564
0.298461
0.303341
0.31311
0.331614
0.361883
0.402098
0.44549
0.486868
0.520624
0.54125
0.545825
0.532482
0.502632
0.460556
0.412295
0.362444
0.309584
0.245484
0.16143
0.0507934
-0.0929731
-0.274973
-0.50031
-0.769177
-1.08403
-1.4558
-1.83498
-2.19545
-1.86919
-3.67986
-4.9683
-6.743
-7.82953
-8.03411
-7.36057
-6.45963
-4.78634
-3.23644
-1.49436
-0.0140183
1.28996
2.19046
2.95723
3.35481
3.59423
4.04702
3.71038
4.5973
0.0141048
0.0300547
0.0515684
0.0688119
0.087395
0.104659
0.122172
0.139246
0.156294
0.173119
0.189768
0.206111
0.222024
0.237309
0.251727
0.265
0.276843
0.286993
0.295251
0.301511
0.305788
0.308236
0.309171
0.309074
0.308568
0.308321
0.308872
0.310437
0.312793
0.315416
0.317931
0.320733
0.32548
0.335419
0.354987
0.387837
0.431919
0.479476
0.524948
0.562036
0.584711
0.589608
0.574426
0.540561
0.492732
0.437847
0.381236
0.32164
0.250529
0.159179
0.040878
-0.111727
-0.304993
-0.545753
-0.83666
-1.18344
-1.59887
-2.03342
-2.42743
-2.41953
-4.04903
-5.55873
-7.47175
-8.68818
-8.82961
-8.03023
-7.01679
-5.16148
-3.47992
-1.58699
0.00561798
1.40997
2.36865
3.19964
3.5979
3.8732
4.323
3.96707
4.86324
0.0147035
0.0320573
0.0548824
0.0734698
0.0933417
0.111896
0.130668
0.148999
0.167285
0.185343
0.203213
0.220761
0.237853
0.254279
0.269777
0.284049
0.29678
0.307686
0.316545
0.323241
0.327785
0.330339
0.331241
0.331016
0.33035
0.329982
0.330518
0.332198
0.334752
0.337545
0.340084
0.342717
0.347204
0.357146
0.377663
0.413145
0.461274
0.51318
0.562949
0.603504
0.628247
0.633241
0.615662
0.576915
0.522303
0.459724
0.395369
0.328381
0.250092
0.151743
0.0263377
-0.134572
-0.338858
-0.595387
-0.909634
-1.29087
-1.75435
-2.25066
-2.729
-3.13403
-4.36992
-6.22415
-8.26381
-9.63313
-9.68714
-8.73835
-7.59748
-5.54499
-3.72639
-1.67698
0.0305858
1.53526
2.5545
3.44743
3.84323
4.1577
4.59566
4.21941
5.11475
0.0152672
0.034055
0.0581511
0.0780883
0.0992319
0.119076
0.139097
0.15868
0.178199
0.197488
0.216575
0.235327
0.2536
0.271169
0.287752
0.303026
0.316651
0.328315
0.337774
0.3449
0.3497
0.352344
0.353192
0.352812
0.351955
0.351442
0.351953
0.353751
0.356517
0.359486
0.362024
0.36441
0.368492
0.378249
0.39958
0.437753
0.490137
0.54659
0.600872
0.644996
0.671713
0.676357
0.655553
0.610848
0.548315
0.476972
0.404022
0.32926
0.243938
0.139115
0.00727789
-0.161388
-0.376506
-0.649256
-0.988277
-1.40674
-1.92275
-2.4877
-3.08535
-3.82987
-4.61232
-6.96283
-9.12506
-10.6779
-10.6164
-9.49102
-8.20479
-5.93777
-3.97595
-1.7639
0.0613005
1.66632
2.74818
3.69951
4.09634
4.4459
4.86552
4.4664
5.40022
0.0157985
0.0360503
0.061378
0.0826702
0.105068
0.1262
0.147461
0.168292
0.189038
0.209554
0.229854
0.249811
0.269265
0.28798
0.305653
0.321935
0.336458
0.348882
0.358941
0.366492
0.371538
0.374255
0.375024
0.374458
0.373378
0.372695
0.373167
0.37509
0.378085
0.38124
0.383754
0.385811
0.38933
0.398686
0.420672
0.461607
0.518478
0.579695
0.638695
0.686396
0.714778
0.718319
0.693184
0.641316
0.56978
0.4888
0.406699
0.324134
0.232215
0.121616
-0.0159138
-0.191798
-0.417625
-0.70714
-1.07246
-1.53106
-2.10413
-2.74492
-3.47624
-4.39847
-4.87143
-7.83151
-10.0637
-11.8368
-11.6276
-10.295
-8.84243
-6.34052
-4.22866
-1.84736
0.0982504
1.80361
2.9501
3.95615
4.35817
4.73814
5.13239
4.72661
5.65589
0.0162996
0.0380452
0.064566
0.087218
0.110853
0.133268
0.15576
0.177834
0.1998
0.221539
0.243051
0.264211
0.284847
0.304712
0.32348
0.340777
0.356203
0.36939
0.380048
0.388019
0.3933
0.396071
0.396736
0.395951
0.394613
0.39373
0.39415
0.396206
0.399452
0.402809
0.405277
0.406921
0.409701
0.418409
0.440869
0.484646
0.546264
0.612465
0.67633
0.727423
0.756829
0.758152
0.727369
0.667186
0.585871
0.494771
0.403336
0.313266
0.215405
0.099838
-0.0426193
-0.225217
-0.461696
-0.768591
-1.16179
-1.66344
-2.29812
-3.02235
-3.8965
-4.92714
-5.25722
-8.81343
-11.0924
-13.1243
-12.7317
-11.1575
-9.51478
-6.75417
-4.48459
-1.92699
0.14191
1.94757
3.16068
4.21778
4.62832
5.03578
5.39536
4.97904
5.90172
0.0167723
0.0400414
0.0677178
0.091734
0.116588
0.140284
0.163995
0.187307
0.210487
0.233445
0.256164
0.278527
0.300347
0.321365
0.341234
0.359552
0.375888
0.389841
0.401099
0.409485
0.414988
0.417795
0.418327
0.417289
0.415654
0.414538
0.414892
0.417091
0.420615
0.424194
0.426601
0.427741
0.429591
0.437371
0.460093
0.506807
0.573454
0.64483
0.713557
0.767523
0.796881
0.794529
0.756742
0.687463
0.596155
0.494916
0.394281
0.297243
0.194236
0.0745663
-0.0720608
-0.260917
-0.508054
-0.832983
-1.25563
-1.80319
-2.50396
-3.31984
-4.34626
-5.46206
-5.87621
-9.83963
-12.2229
-14.5548
-13.9395
-12.0865
-10.2269
-7.17998
-4.74382
-2.00235
0.192742
2.0987
3.38024
4.4846
4.90707
5.33742
5.65743
5.22055
6.19316
0.0172183
0.0420407
0.070836
0.0962202
0.122275
0.147248
0.172168
0.196712
0.221099
0.24527
0.269194
0.292758
0.315763
0.33794
0.358916
0.378263
0.395515
0.410239
0.422096
0.430891
0.436606
0.439428
0.439798
0.438467
0.436494
0.435108
0.435381
0.437735
0.441572
0.445401
0.447733
0.44828
0.44899
0.455519
0.478259
0.528018
0.59998
0.676623
0.749918
0.805764
0.833534
0.825833
0.780003
0.701583
0.600734
0.489698
0.380197
0.276875
0.169594
0.0466981
-0.103375
-0.298088
-0.555932
-0.899551
-1.35317
-1.94934
-2.72044
-3.63635
-4.82258
-6.0158
-6.74376
-10.8821
-13.4711
-16.1453
-15.2624
-13.0903
-10.9842
-7.61954
-5.00643
-2.07301
0.25121
2.25749
3.60903
4.75688
5.19467
5.64182
5.92062
5.48727
6.45832
0.0176386
0.0440444
0.0739228
0.100678
0.127916
0.15416
0.180279
0.206048
0.231634
0.257014
0.282138
0.306903
0.331096
0.354435
0.376526
0.39691
0.415085
0.430586
0.443042
0.452241
0.458155
0.460972
0.461149
0.459483
0.457124
0.45543
0.455604
0.458129
0.462318
0.466433
0.468685
0.468547
0.467889
0.472801
0.495271
0.54819
0.625712
0.70749
0.784601
0.840771
0.864981
0.850378
0.796291
0.709622
0.600207
0.479884
0.361919
0.253074
0.14242
0.0171618
-0.135677
-0.335886
-0.604495
-0.967412
-1.45339
-2.10063
-2.9459
-3.96967
-5.31887
-6.60131
-7.89877
-11.9409
-14.8702
-17.9172
-16.7114
-14.1779
-11.7925
-8.07476
-5.2725
-2.13852
0.317774
2.42442
3.8473
5.03496
5.49119
5.94964
6.18389
5.74469
6.70676
0.0180343
0.0460539
0.0769801
0.10511
0.133512
0.161023
0.188328
0.215315
0.242092
0.268676
0.294996
0.320961
0.346342
0.37085
0.394063
0.415493
0.434601
0.450883
0.463939
0.473537
0.479638
0.482428
0.482378
0.480333
0.477537
0.475491
0.475546
0.478261
0.482849
0.487295
0.48947
0.488558
0.486284
0.489157
0.511022
0.567197
0.65039
0.736775
0.816362
0.870693
0.889174
0.866864
0.805522
0.712282
0.595495
0.466377
0.340332
0.22676
0.113635
-0.0131434
-0.168102
-0.373456
-0.652856
-1.03558
-1.55515
-2.25557
-3.17825
-4.31617
-5.82646
-7.23493
-9.32266
-12.9348
-16.4184
-19.8954
-18.2974
-15.3581
-12.6575
-8.54775
-5.54217
-2.19841
0.392889
2.59995
4.0952
5.31916
5.79663
6.26118
6.44924
6.02049
6.97833
0.018406
0.0480704
0.0800096
0.109517
0.139065
0.167836
0.196316
0.224513
0.252472
0.280254
0.307766
0.334929
0.361502
0.387184
0.411527
0.434014
0.454063
0.471133
0.484791
0.494783
0.501058
0.503798
0.503486
0.501013
0.497724
0.495276
0.495193
0.498119
0.503163
0.507996
0.510105
0.508333
0.504175
0.504527
0.525378
0.584832
0.673515
0.763443
0.843488
0.89325
0.904288
0.874886
0.808434
0.710662
0.587639
0.450074
0.316265
0.198777
0.0840849
-0.0433824
-0.19982
-0.409936
-0.700077
-1.103
-1.65717
-2.41245
-3.415
-4.67126
-6.33792
-7.9214
-10.7793
-13.6993
-18.067
-22.1067
-20.0318
-16.6395
-13.5845
-9.04066
-5.81569
-2.25221
0.477005
2.78454
4.35285
5.60987
6.11088
6.57619
6.71748
6.29642
7.19633
0.0187542
0.0500951
0.0830129
0.1139
0.144575
0.174601
0.204242
0.233642
0.262774
0.291747
0.320447
0.348807
0.376573
0.403434
0.428918
0.452472
0.473473
0.491338
0.505599
0.51598
0.522417
0.525084
0.524473
0.52152
0.517676
0.514772
0.514526
0.517688
0.523254
0.528543
0.53061
0.527899
0.521568
0.518837
0.538156
0.600723
0.69428
0.786065
0.863721
0.906103
0.909424
0.875124
0.806314
0.705987
0.577639
0.431771
0.29042
0.169849
0.0545111
-0.0727896
-0.230026
-0.444448
-0.745183
-1.16855
-1.75815
-2.56954
-3.65356
-5.0303
-6.84854
-8.64426
-11.9435
-14.3668
-19.8767
-24.5806
-21.9277
-18.0302
-14.5787
-9.55542
-6.09349
-2.29945
0.570559
2.97859
4.62031
5.90746
6.43371
6.89422
6.9893
6.5691
7.47128
0.0190791
0.0521291
0.0859912
0.11826
0.150044
0.181316
0.212107
0.2427
0.272996
0.303153
0.333035
0.362591
0.391552
0.419599
0.446233
0.470867
0.492831
0.511499
0.526365
0.537131
0.543717
0.546288
0.545339
0.541849
0.537383
0.533962
0.533526
0.536955
0.543119
0.548944
0.551009
0.547291
0.538474
0.531997
0.549074
0.614252
0.711604
0.802718
0.874378
0.907678
0.905061
0.869055
0.80062
0.699408
0.566352
0.412091
0.263331
0.140562
0.0255549
-0.100652
-0.257925
-0.476103
-0.78721
-1.23123
-1.85694
-2.72531
-3.89167
-5.38951
-7.35633
-9.38881
-12.8896
-15.1388
-21.7635
-27.352
-24.0002
-19.5381
-15.645
-10.0936
-6.37616
-2.33969
0.673976
3.18248
4.89759
6.2123
6.76481
7.21503
7.26554
6.86828
7.72367
0.0193807
0.0541733
0.0889456
0.122598
0.155472
0.187983
0.219909
0.251686
0.283136
0.31447
0.345529
0.376279
0.406437
0.435678
0.463473
0.489198
0.512139
0.531618
0.547093
0.558239
0.564961
0.567411
0.566083
0.561997
0.556835
0.552828
0.552173
0.555901
0.562752
0.56921
0.571329
0.56655
0.554904
0.543862
0.557666
0.624617
0.72416
0.810772
0.873106
0.898004
0.892838
0.858432
0.79271
0.691899
0.554451
0.391467
0.235352
0.111367
-0.00222004
-0.126282
-0.282724
-0.504035
-0.82531
-1.29026
-1.95282
-2.87886
-4.12803
-5.74702
-7.86395
-10.1559
-13.7331
-16.2301
-23.636
-30.4828
-26.2651
-21.1714
-16.7879
-10.6563
-6.66437
-2.37247
0.787665
3.39653
5.18463
6.52474
7.10373
7.53795
7.54616
7.15767
7.93508
0.0196589
0.0562287
0.0918771
0.126914
0.160858
0.194601
0.227649
0.2606
0.293193
0.325696
0.357926
0.389867
0.421225
0.451666
0.480633
0.507466
0.531396
0.551696
0.567782
0.579305
0.586152
0.588457
0.586707
0.58196
0.57602
0.57135
0.570442
0.574508
0.582148
0.589353
0.591601
0.585725
0.570854
0.554166
0.563288
0.63105
0.72999
0.8072
0.859115
0.878755
0.874874
0.844881
0.783707
0.684221
0.542417
0.370137
0.206673
0.0826122
-0.0282966
-0.149005
-0.303658
-0.527507
-0.858948
-1.34545
-2.04589
-3.03042
-4.36298
-6.10369
-8.37718
-10.9462
-14.5592
-17.8042
-25.5532
-34.0911
-28.7412
-22.9374
-18.0106
-11.2437
-6.95862
-2.39738
0.91202
3.62098
5.48132
6.84509
7.44994
7.86216
7.8322
7.4373
8.20738
0.0199133
0.0582964
0.0947862
0.131209
0.166205
0.201169
0.235325
0.269439
0.303164
0.336827
0.370222
0.403352
0.435912
0.467561
0.497713
0.525668
0.550602
0.571734
0.588435
0.600332
0.607291
0.609426
0.607211
0.601734
0.594927
0.589509
0.588307
0.592755
0.6013
0.609384
0.611859
0.604861
0.58625
0.562425
0.565455
0.632689
0.726052
0.789974
0.833802
0.852453
0.853154
0.829721
0.774474
0.676937
0.530559
0.348168
0.17734
0.0545689
-0.0521842
-0.168171
-0.32007
-0.546079
-0.888189
-1.39751
-2.13749
-3.18188
-4.59894
-6.46316
-8.90324
-11.759
-15.4791
-20.1329
-27.5938
-38.3252
-31.4501
-24.8427
-19.315
-11.8553
-7.25897
-2.41392
1.04743
3.856
5.78749
7.17355
7.80285
8.1873
8.12491
7.75159
8.4568
0.0201434
0.0603772
0.0976736
0.135484
0.171511
0.207688
0.242936
0.278202
0.313048
0.347861
0.382415
0.41673
0.450494
0.483359
0.51471
0.543803
0.569758
0.591732
0.609054
0.621321
0.628381
0.630323
0.627597
0.621316
0.613543
0.60728
0.60574
0.610618
0.620201
0.629317
0.632132
0.62397
0.600806
0.568087
0.564351
0.627641
0.709025
0.75955
0.800045
0.821538
0.829251
0.813936
0.765644
0.670456
0.519055
0.325473
0.147278
0.0274503
-0.0734203
-0.183209
-0.331561
-0.559899
-0.914074
-1.44851
-2.23064
-3.33701
-4.84035
-6.8312
-9.44959
-12.5974
-16.5916
-23.1353
-29.6104
-43.2216
-34.4159
-26.8915
-20.7008
-12.4896
-7.5648
-2.42153
1.19429
4.10169
6.10286
7.51023
8.16171
8.51259
8.4233
8.04074
8.66669
0.0203484
0.062472
0.10054
0.139739
0.176776
0.214156
0.250482
0.286887
0.322841
0.358795
0.394499
0.429997
0.464967
0.499056
0.53162
0.56187
0.588863
0.611692
0.629639
0.642273
0.649425
0.651149
0.647865
0.640702
0.631855
0.624639
0.622707
0.628071
0.638844
0.64916
0.652429
0.642918
0.613846
0.571143
0.56001
0.612242
0.67752
0.718787
0.760864
0.787917
0.804305
0.798222
0.757685
0.665087
0.507981
0.301832
0.116299
0.0014145
-0.091601
-0.193745
-0.33824
-0.570064
-0.939019
-1.50218
-2.33011
-3.50121
-5.09293
-7.21458
-10.0234
-13.4698
-17.9203
-26.0994
-31.5527
-48.9407
-37.6506
-29.0848
-22.1666
-13.145
-7.87468
-2.41942
1.35305
4.35805
6.4271
7.85511
8.52574
8.83736
8.72908
8.34641
8.92633
0.0205275
0.0645818
0.103384
0.143972
0.182001
0.220572
0.25796
0.295492
0.332541
0.369625
0.40647
0.443148
0.479326
0.514647
0.548439
0.579866
0.607915
0.631614
0.650191
0.663191
0.670423
0.671907
0.668018
0.659889
0.649851
0.641559
0.639174
0.645085
0.657214
0.668908
0.672684
0.66117
0.624575
0.57265
0.550279
0.582613
0.633664
0.671536
0.718587
0.752914
0.779097
0.783079
0.75097
0.661092
0.497346
0.276889
0.0841024
-0.0234493
-0.10645
-0.199793
-0.341069
-0.579027
-0.96714
-1.56404
-2.44213
-3.68058
-5.3626
-7.61975
-10.6308
-14.3844
-19.4453
-28.7199
-33.6377
-55.5419
-41.1321
-31.419
-23.7098
-13.8188
-8.18619
-2.40642
1.52426
4.62503
6.75972
8.20799
8.89402
9.16118
9.04181
8.63908
9.12105
0.0206795
0.0667074
0.106208
0.148185
0.187184
0.226936
0.265369
0.304014
0.342144
0.380346
0.418325
0.456176
0.493564
0.530127
0.565163
0.597787
0.626914
0.651497
0.67071
0.684074
0.691379
0.6926
0.688058
0.678875
0.667515
0.658009
0.6551
0.661626
0.675293
0.688523
0.692576
0.677547
0.633027
0.573851
0.532665
0.537341
0.581024
0.620594
0.674773
0.717443
0.754142
0.768901
0.74585
0.658736
0.487111
0.250153
0.0502626
-0.04715
-0.117942
-0.202051
-0.342275
-0.59094
-1.00437
-1.641
-2.57328
-3.88074
-5.65439
-8.0518
-11.2761
-15.3487
-21.1551
-31.1946
-36.2973
-62.6278
-44.8659
-33.8856
-25.3263
-14.508
-8.49583
-2.38086
1.70867
4.90254
7.10012
8.56848
9.26554
9.48364
9.36177
8.92145
9.37697
0.0208034
0.0688497
0.10901
0.152378
0.192324
0.233245
0.272707
0.31245
0.351647
0.390954
0.430057
0.469077
0.507676
0.545489
0.581787
0.615631
0.645858
0.67134
0.691196
0.704924
0.712293
0.713231
0.707988
0.697658
0.684835
0.673958
0.670441
0.677651
0.693038
0.70785
0.711194
0.690736
0.639717
0.56962
0.493608
0.478863
0.522358
0.568294
0.63016
0.68202
0.729839
0.756056
0.742705
0.658325
0.477205
0.22098
0.014223
-0.0698442
-0.126502
-0.202286
-0.345715
-0.611815
-1.05816
-1.74026
-2.7291
-4.1057
-5.97164
-8.51386
-11.9612
-16.3687
-23.0446
-33.6135
-39.7588
-70.2094
-48.888
-36.4756
-27.0111
-15.2084
-8.79904
-2.34044
1.90729
5.19048
7.44754
8.93602
9.63917
9.80468
9.68923
9.23542
9.61158
0.0208976
0.0710095
0.111791
0.156548
0.197422
0.239498
0.279971
0.320798
0.361046
0.401446
0.441661
0.481844
0.521654
0.560727
0.598305
0.633393
0.664745
0.691143
0.711649
0.725738
0.733166
0.733804
0.727811
0.716237
0.701795
0.689372
0.685145
0.693105
0.710362
0.726382
0.726889
0.700329
0.643875
0.552433
0.43229
0.416353
0.456926
0.51534
0.585354
0.647005
0.706517
0.744958
0.741996
0.660246
0.467538
0.18857
-0.0247079
-0.0919265
-0.13331
-0.203713
-0.357095
-0.649357
-1.13638
-1.86761
-2.91286
-4.35724
-6.31558
-9.00659
-12.6856
-17.4482
-25.1052
-36.0488
-44.1885
-78.1999
-53.2104
-39.1774
-28.7561
-15.9139
-9.09031
-2.28224
2.12157
5.48886
7.80104
9.30981
10.0136
10.1241
10.0224
9.52481
9.7968
0.0209609
0.0731878
0.11455
0.160697
0.202475
0.245693
0.28716
0.329053
0.370336
0.411814
0.453131
0.49447
0.535491
0.575834
0.614712
0.65107
0.683571
0.710904
0.732066
0.746518
0.754
0.754321
0.747534
0.734613
0.718382
0.70421
0.699148
0.707906
0.727025
0.742896
0.738087
0.707986
0.646983
0.511244
0.364284
0.35399
0.389228
0.462899
0.540561
0.612809
0.684586
0.736095
0.744298
0.664994
0.458011
0.151965
-0.0673582
-0.11419
-0.140644
-0.211257
-0.383991
-0.7121
-1.24549
-2.02599
-3.12503
-4.63476
-6.68506
-9.5278
-13.4453
-18.5877
-27.321
-38.5504
-49.6543
-86.401
-57.8089
-41.9715
-30.5484
-16.6171
-9.36345
-2.20279
2.35343
5.79784
8.15952
9.68888
10.3875
10.4418
10.3612
9.79855
10.0478
0.0209913
0.0753853
0.117287
0.164823
0.207483
0.251829
0.29427
0.337213
0.379515
0.422055
0.46446
0.506947
0.549179
0.590802
0.630998
0.668655
0.702335
0.730621
0.752447
0.767261
0.774794
0.774787
0.767161
0.752788
0.73458
0.718427
0.712369
0.721916
0.742378
0.755615
0.74493
0.715273
0.637841
0.453719
0.29524
0.289007
0.320093
0.411009
0.496265
0.579904
0.664529
0.730079
0.750326
0.673215
0.448543