/*--------------------------------*- C++ -*----------------------------------*\
| =========                 |                                                 |
| \\      /  F ield         | OpenFOAM: The Open Source CFD Toolbox           |
|  \\    /   O peration     | Version:  4.1                                   |
|   \\  /    A nd           | Web:      www.OpenFOAM.org                      |
|    \\/     M anipulation  |                                                 |
\*---------------------------------------------------------------------------*/
FoamFile
{
    version     2.0;
    format      ascii;
    class       volVectorField;
    location    "14";
    object      U;
}
// * * * * * * * * * * * * * * * * * * * * * * * * * * * * * * * * * * * * * //

dimensions      [0 1 -1 0 0 0 0];

internalField   nonuniform List<vector> 
6785
(
(1.39444e-14 -2.34254 16.5738)
(1.10602e-14 -7.91429 13.0349)
(-3.2545e-15 -5.11354 13.8364)
(3.65089e-15 -5.03705 13.3492)
(9.09734e-16 -4.22904 13.2138)
(-1.62827e-16 -3.78245 12.925)
(2.52837e-15 -3.33414 12.6326)
(5.87733e-16 -3.00383 12.2955)
(-7.52574e-16 -2.76409 11.9446)
(1.34313e-15 -2.65164 11.5947)
(-1.89446e-17 -2.64047 11.3137)
(-2.8444e-16 -2.74442 11.1371)
(5.44301e-16 -3.31444 10.707)
(-9.52756e-17 -3.49977 9.70091)
(1.95975e-17 -0.156522 7.59228)
(1.85624e-14 -10.3747 27.1656)
(1.30132e-14 -16.3957 23.3787)
(-2.899e-15 -11.2722 23.7468)
(3.66442e-15 -12.109 21.9047)
(7.75153e-16 -10.3982 21.0541)
(8.23395e-16 -9.80787 19.8186)
(1.73752e-15 -8.85373 18.7261)
(2.78002e-16 -8.10755 17.5774)
(-5.50871e-17 -7.35948 16.4631)
(4.66539e-16 -6.69405 15.3569)
(-1.68771e-16 -5.98834 14.1199)
(-4.60357e-16 -4.93977 12.1988)
(-8.24149e-16 -3.11406 8.56174)
(-7.80844e-16 -0.329581 2.78264)
(-7.14119e-16 1.5518 -2.40046)
(2.14291e-14 -12.8027 28.4135)
(1.21003e-14 -17.0356 24.868)
(-2.02514e-15 -11.982 24.8939)
(4.9429e-15 -13.3806 22.2025)
(7.76104e-16 -11.131 21.2276)
(1.44949e-15 -10.8843 19.3794)
(2.45324e-15 -9.77463 18.0135)
(3.86187e-16 -9.16117 16.4989)
(4.22715e-16 -8.41734 15.1387)
(1.88958e-15 -7.77637 13.7656)
(4.08928e-16 -7.05509 12.2487)
(-3.46419e-17 -5.91984 10.1195)
(1.16175e-15 -3.98723 6.29393)
(4.32759e-16 0.257858 0.14087)
(-2.52513e-15 1.74605 -6.20011)
(2.23816e-14 -13.225 27.4933)
(1.24963e-14 -16.7582 24.5226)
(-1.51691e-15 -12.0879 24.128)
(4.91084e-15 -13.7054 21.0239)
(7.87093e-16 -11.152 20.1106)
(1.75444e-15 -11.1644 17.8929)
(2.40104e-15 -9.88386 16.4696)
(1.86485e-16 -9.36894 14.8762)
(5.50622e-16 -8.73613 13.6105)
(1.07363e-15 -8.25859 12.3342)
(-7.47748e-16 -7.72247 10.9386)
(-7.41051e-16 -6.90593 9.35788)
(-4.51621e-17 -5.81347 7.21064)
(-1.90923e-15 -3.53234 4.30329)
(-3.15023e-15 -1.50002 0.565893)
(2.23043e-14 -13.4288 26.9106)
(1.10748e-14 -16.0312 24.2403)
(-1.40281e-15 -11.9467 23.587)
(3.9203e-15 -13.13 20.5365)
(5.02571e-17 -10.4654 19.6197)
(1.43153e-15 -10.4111 17.3273)
(6.91593e-16 -8.7659 15.9177)
(-8.45923e-16 -7.90828 13.8402)
(4.05169e-16 -6.65122 11.8449)
(6.40534e-16 -6.06586 10.1792)
(-3.70773e-16 -5.94813 9.36707)
(6.2265e-16 -6.03764 8.95915)
(2.91335e-16 -6.04681 8.72671)
(-3.73819e-15 -5.64307 8.11255)
(-4.41524e-15 -4.1695 6.48279)
(2.2547e-14 -14.3237 27.8208)
(8.46364e-15 -15.7175 25.1048)
(-4.31012e-16 -12.4656 24.4199)
(2.44376e-15 -12.8655 21.9455)
(5.19907e-17 -10.6326 21.025)
(8.16968e-16 -10.2689 19.236)
(-7.71464e-16 -8.52897 17.7442)
(-2.59497e-16 -6.85453 14.8061)
(1.86645e-15 -4.26658 11.0111)
(2.80567e-15 -2.16034 7.32378)
(1.79778e-15 -0.957952 5.13267)
(-8.22653e-16 -1.2339 4.98294)
(-3.40824e-15 -3.04529 7.04952)
(-4.64471e-15 -5.39081 9.78068)
(-2.75028e-15 -4.77651 9.49822)
(2.13223e-14 -15.367 29.3469)
(7.17681e-15 -16.9798 27.2566)
(-1.39654e-15 -13.6293 26.1452)
(1.84924e-15 -14.1156 23.9248)
(-9.54518e-16 -12.0548 23.0674)
(-9.57768e-16 -11.9437 21.4146)
(-1.17623e-15 -10.3952 20.1348)
(-1.62413e-15 -9.04158 17.3725)
(-9.08354e-16 -6.34609 13.5776)
(2.00292e-15 -3.64723 9.24124)
(-1.15881e-15 -0.957891 5.29502)
(-1.9083e-15 1.30737 1.57916)
(4.70545e-16 2.65574 -0.831211)
(-4.45779e-15 2.01859 -0.623138)
(-5.92548e-15 0.0468458 1.27782)
(2.06229e-14 -14.9714 27.8042)
(9.81125e-15 -18.4722 29.4342)
(-5.65807e-16 -14.7475 26.9438)
(1.33426e-15 -14.9962 24.388)
(-6.88164e-16 -13.241 23.3127)
(-5.55972e-16 -13.1326 21.5619)
(-6.3719e-16 -12.0195 20.2724)
(-1.20172e-15 -11.2244 18.2414)
(-1.19791e-15 -9.62811 15.7032)
(3.34628e-16 -7.72705 12.5744)
(-1.53455e-16 -5.43912 9.17631)
(2.31152e-16 -2.75318 5.30928)
(1.1333e-15 0.524803 0.591895)
(2.57633e-15 3.69957 -3.72377)
(1.91772e-15 2.33757 -6.10012)
(1.88173e-14 -13.4356 24.1782)
(1.31651e-14 -18.4553 29.6924)
(1.83525e-15 -15.1113 26.5566)
(1.00784e-15 -14.5577 23.3562)
(2.33043e-16 -13.0553 21.8578)
(7.68157e-16 -12.6424 20.0067)
(4.01744e-16 -11.72 18.4966)
(8.61172e-17 -11.0002 16.7259)
(2.8315e-16 -10.0394 14.8392)
(3.2181e-16 -8.89345 12.7362)
(7.02236e-16 -7.55273 10.4096)
(1.41155e-15 -5.85662 7.86485)
(9.43065e-16 -3.97262 4.86685)
(2.12118e-15 -1.17773 1.62155)
(7.20722e-16 1.02007 -3.85516)
(1.79379e-14 -12.0002 21.232)
(1.54025e-14 -17.6585 29.0035)
(3.70169e-15 -14.8752 25.888)
(1.21284e-15 -13.7181 22.3053)
(9.32494e-16 -12.2574 20.5559)
(1.42594e-15 -11.6409 18.7061)
(1.3173e-15 -10.6967 17.1481)
(1.1036e-15 -9.90287 15.4789)
(1.222e-15 -9.04224 13.8461)
(1.03754e-15 -8.12725 12.2043)
(1.42807e-15 -7.16668 10.4766)
(1.53533e-15 -5.96664 8.63559)
(4.22271e-16 -4.66955 6.40836)
(2.52842e-15 -2.53732 3.59424)
(-5.34304e-16 -0.194597 -1.74277)
(1.72002e-14 -11.2332 19.8511)
(1.68394e-14 -16.944 28.3232)
(4.61247e-15 -14.6062 25.4313)
(1.07149e-15 -13.1751 21.7846)
(1.44429e-15 -11.7418 19.904)
(1.26296e-15 -11.0688 18.1202)
(1.18506e-15 -10.1552 16.6315)
(1.57218e-15 -9.3824 15.0922)
(3.15286e-16 -8.57876 13.6328)
(-3.2654e-17 -7.77606 12.2197)
(9.42087e-16 -6.98914 10.7824)
(-3.78427e-16 -6.05526 9.30842)
(-1.04156e-15 -5.0919 7.5994)
(-1.38897e-15 -3.51179 5.52856)
(-5.8217e-15 -1.03792 0.661181)
(1.72676e-14 -10.8387 19.1363)
(1.87052e-14 -16.2698 27.5021)
(4.36094e-15 -14.3711 24.8391)
(3.72835e-16 -12.7727 21.1163)
(2.41047e-15 -11.3412 19.0403)
(-1.86352e-16 -10.6519 17.3435)
(-9.38182e-16 -9.85209 15.9718)
(1.4557e-15 -9.17241 14.5827)
(2.97579e-17 -8.47171 13.2289)
(-2.14172e-15 -7.77756 11.8841)
(-1.62362e-15 -7.1274 10.5798)
(-2.85411e-15 -6.47089 9.47478)
(-2.62465e-15 -5.90754 8.51846)
(-4.21393e-15 -4.87619 7.5072)
(-8.60327e-15 -2.5482 3.3708)
(1.6862e-14 -11.1511 19.6775)
(1.77786e-14 -15.1889 26.0458)
(2.64597e-15 -13.5487 23.633)
(-9.15425e-16 -12.3456 20.5667)
(3.33629e-15 -11.14 18.6569)
(-2.17685e-15 -10.5571 16.9466)
(-3.86583e-15 -9.85857 15.4909)
(3.83263e-15 -9.28999 13.9652)
(1.14273e-15 -8.67852 12.45)
(-2.73335e-15 -8.10939 11.0676)
(-1.86571e-15 -7.6685 10.1742)
(-3.97612e-15 -7.49276 10.0757)
(-4.78974e-15 -7.47333 10.6259)
(-5.29157e-15 -7.08608 10.8744)
(-1.08035e-14 -5.02219 8.05208)
(1.49032e-14 -11.6986 19.872)
(1.61859e-14 -15.4972 25.9424)
(-2.57239e-15 -12.6817 21.8002)
(-3.34736e-15 -10.4259 17.7975)
(5.93693e-16 -8.60353 15.5543)
(-6.92109e-16 -7.33084 13.4825)
(3.57762e-15 -6.03343 11.716)
(5.12911e-15 -5.08816 10.0614)
(7.11093e-16 -4.57694 9.172)
(-1.73618e-15 -4.90801 9.45363)
(-3.65139e-15 -6.00436 10.9321)
(-5.50206e-15 -7.43532 12.9523)
(-6.7487e-15 -8.54788 14.819)
(-9.76403e-15 -8.86567 15.2682)
(-1.17956e-14 -6.11974 11.0828)
(9.17597e-15 -9.42477 15.8991)
(1.47403e-14 -17.3576 26.4454)
(6.91872e-15 -18.9849 27.2912)
(1.73219e-15 -18.3878 25.2788)
(1.4741e-16 -16.9158 23.1149)
(2.94945e-16 -15.3097 20.5695)
(2.93425e-15 -13.0943 17.5659)
(4.31506e-15 -10.6095 14.4131)
(4.15815e-15 -8.01334 11.1769)
(2.3702e-15 -5.54158 8.06496)
(-1.89498e-15 -3.67431 5.98111)
(-2.97889e-15 -3.99154 7.16576)
(-3.63621e-15 -5.55719 10.1273)
(-6.64717e-15 -6.4235 11.2972)
(-4.95094e-15 -3.49013 6.24146)
(-5.32197e-16 23.0807 2.24338)
(-1.45222e-14 7.16671 -2.42496)
(-1.3775e-14 -0.589209 -2.87355)
(-1.38592e-14 1.11421 -2.93095)
(-1.31726e-14 1.00122 -2.71499)
(-1.62287e-14 1.12214 -3.40614)
(-1.16434e-14 1.17032 -2.32123)
(-1.14587e-14 1.46844 -2.21243)
(-1.09998e-14 1.51034 -2.02094)
(-1.29392e-14 1.83685 -2.42858)
(-9.22225e-15 1.65166 -1.62877)
(-8.4879e-15 1.81838 -1.43892)
(-1.1213e-14 2.19458 -1.69841)
(-8.031e-15 1.83466 -1.09853)
(-7.6482e-15 2.06111 -0.987291)
(-6.82131e-15 2.01718 -0.856127)
(-9.04101e-15 2.37304 -0.947702)
(-6.09898e-15 2.01814 -0.556612)
(-5.11158e-15 2.11587 -0.446834)
(-6.72081e-15 2.50102 -0.382348)
(-4.08706e-15 1.9913 -0.161865)
(-3.4619e-15 2.18228 -0.0761384)
(-2.49276e-15 2.06589 -0.0128189)
(-2.98917e-15 2.43219 0.215754)
(-1.10461e-15 1.91525 0.247506)
(-4.44322e-16 2.0657 0.309421)
(5.18498e-17 1.94247 0.325288)
(7.24079e-16 2.19579 0.641617)
(1.36787e-15 1.75866 0.5152)
(1.72362e-15 1.79126 0.474047)
(2.76295e-15 2.01095 0.812026)
(2.51417e-15 1.51484 0.551744)
(2.77178e-15 1.61615 0.52571)
(2.69277e-15 1.51558 0.450508)
(3.80208e-15 1.66222 0.737154)
(3.13817e-15 1.27379 0.465358)
(2.97764e-15 1.31115 0.370176)
(4.04225e-15 1.42136 0.642658)
(2.99086e-15 1.03037 0.372197)
(2.83244e-15 1.10229 0.324284)
(2.82102e-15 1.04737 0.242381)
(3.7726e-15 1.12128 0.495072)
(2.62999e-15 0.809789 0.272494)
(2.53993e-15 0.870071 0.225349)
(2.32606e-15 0.836335 0.150156)
(3.38353e-15 0.888672 0.400191)
(1.99587e-15 0.685117 0.261264)
(1.86161e-15 0.724804 0.186754)
(2.67011e-15 0.790005 0.386822)
(2.32465e-15 0.67488 0.238994)
(2.3196e-15 0.706412 0.164293)
(2.19023e-15 0.693927 0.0894466)
(2.85652e-15 0.665217 0.380719)
(2.10916e-15 0.511703 0.23765)
(1.78068e-15 0.526071 0.19374)
(2.20184e-15 0.536177 0.160281)
(2.72076e-15 0.424165 0.20958)
(2.22134e-15 0.175281 -0.118331)
(1.02822e-15 0.197977 -0.0466368)
(3.58989e-15 0.525082 -1.38606)
(3.83045e-15 -0.464303 -1.66675)
(4.19289e-15 -0.112221 -1.89624)
(4.25226e-15 0.129242 -2.12814)
(1.57055e-15 -0.338661 -1.64178)
(-3.91925e-15 -0.885481 0.0353374)
(-3.05904e-15 -0.549901 -0.120683)
(-5.40198e-15 -1.45572 1.64507)
(-4.80288e-15 -1.84243 2.30751)
(-4.39736e-15 -2.00017 2.25744)
(-4.60828e-15 -1.89429 2.49323)
(-7.37529e-15 -3.2958 4.98338)
(-6.47336e-15 -3.56598 4.56821)
(-7.13758e-15 -4.00084 4.75234)
(-7.77772e-15 -3.87329 5.05335)
(-1.17757e-14 -6.06683 8.45458)
(-9.20341e-15 -6.13521 6.89682)
(-9.94605e-15 -6.18178 7.3411)
(-1.30803e-14 -8.80475 10.9243)
(-9.3441e-15 -8.60075 8.19669)
(-9.5708e-15 -8.98543 8.66301)
(-1.11538e-14 -9.53903 10.5271)
(-1.11764e-14 -9.45228 10.6617)
(-1.13709e-14 -9.55812 11.1929)
(-1.1281e-14 -11.3386 13.7009)
(-1.01084e-14 -10.4055 12.1144)
(-1.03531e-14 -10.663 12.8625)
(-1.02924e-14 -10.5619 13.0582)
(-1.02859e-14 -10.6319 13.2596)
(-1.02698e-14 -10.6223 13.514)
(-1.01688e-14 -10.6729 13.8074)
(-9.72722e-15 -10.7344 14.0487)
(-8.97028e-15 -10.7272 14.298)
(-6.82001e-15 -11.9559 16.2898)
(-5.42698e-15 -11.3211 14.9437)
(-3.89439e-15 -11.4572 15.389)
(-2.61028e-15 -11.4611 15.6691)
(-1.22235e-15 -11.5125 15.6002)
(-7.03958e-17 -11.5984 15.7559)
(8.35509e-16 -11.683 15.9778)
(1.49764e-15 -11.8184 16.2082)
(1.89171e-15 -11.8416 16.5713)
(3.71446e-15 -12.9436 19.1123)
(3.47745e-15 -12.2786 17.3889)
(3.72821e-15 -12.4741 17.6808)
(3.73518e-15 -12.5243 17.7956)
(3.80396e-15 -12.649 18.0118)
(4.0492e-15 -12.724 18.3124)
(4.44957e-15 -12.8733 18.5805)
(4.44772e-15 -12.9104 18.4915)
(4.43312e-15 -13.0699 18.4311)
(4.34884e-15 -13.0855 18.3526)
(4.41298e-15 -13.5127 19.5707)
(4.27477e-15 -12.994 18.6911)
(4.31136e-15 -13.1072 18.7369)
(4.33936e-15 -13.1451 18.778)
(4.41641e-15 -13.2516 18.8797)
(4.51201e-15 -13.2677 19.0334)
(4.64186e-15 -13.3949 19.4461)
(4.81792e-15 -13.4245 19.5418)
(4.95093e-15 -13.5062 19.5329)
(5.05141e-15 -12.8023 19.2617)
(5.04062e-15 -12.7005 19.4581)
(5.13772e-15 -12.6797 19.9132)
(5.11121e-15 -12.7579 20.2811)
(5.2521e-15 -12.713 20.2637)
(5.36372e-15 -12.7765 20.2572)
(5.47496e-15 -12.7958 20.101)
(5.50992e-15 -12.7328 19.8867)
(5.18607e-15 -12.9317 19.8997)
(5.9576e-15 -10.7111 16.8352)
(5.5685e-15 -11.3841 18.317)
(5.78771e-15 -11.264 17.9207)
(5.99279e-15 -11.2765 17.8503)
(6.15693e-15 -11.2387 17.9498)
(6.34571e-15 -11.202 17.8784)
(6.63308e-15 -11.118 17.7912)
(6.96416e-15 -11.0445 17.7336)
(7.32739e-15 -11.1325 17.5877)
(8.70496e-15 -8.42029 14.5524)
(8.22898e-15 -9.26545 17.2556)
(8.40038e-15 -8.99109 16.914)
(8.37889e-15 -9.04175 16.6127)
(8.23085e-15 -8.91426 15.9877)
(7.97628e-15 -8.85409 15.1929)
(8.08377e-15 -8.73927 14.3988)
(7.14413e-15 -8.55477 13.1477)
(6.38246e-15 -8.29544 11.709)
(5.58967e-15 -8.15422 10.1806)
(3.72886e-15 -4.75167 3.33401)
(4.91164e-15 -6.27494 7.58811)
(4.24543e-15 -5.76674 5.87653)
(3.5826e-15 -5.82891 5.24442)
(2.90053e-15 -5.46271 4.30394)
(2.3073e-15 -5.34502 3.52157)
(1.58291e-15 -5.1196 2.29705)
(1.06198e-15 -4.75008 1.31392)
(1.25515e-15 -4.75897 1.63956)
(-2.21983e-16 -3.45331 -1.44491)
(1.12647e-15 -3.85148 1.35716)
(9.36449e-16 -3.76594 0.740828)
(-7.65836e-16 -2.43291 -2.523)
(-1.71073e-16 -4.49874 -1.43424)
(-4.77044e-16 -3.108 -1.30824)
(-3.52766e-16 -2.94537 -0.82481)
(-5.05619e-16 -3.61607 -1.18384)
(-3.71475e-16 -2.51814 -0.661529)
(-5.93402e-16 -3.18583 -0.996296)
(-3.82829e-16 -2.87926 -0.666257)
(-3.30882e-16 -2.38449 -0.43274)
(-5.95629e-16 -2.85435 -0.650887)
(-6.1622e-16 -2.64381 -0.43113)
(-5.67153e-16 -2.26148 -0.264218)
(-8.79621e-16 -3.01086 -0.392996)
(-7.36436e-16 -2.07932 -0.197187)
(-1.1249e-15 -2.72327 -0.308861)
(-7.70114e-16 -2.44686 -0.206711)
(-6.47518e-16 -2.14643 -0.114507)
(-8.37029e-16 -2.88029 -0.18855)
(-5.39347e-16 -1.99369 -0.0811906)
(-8.22445e-16 -2.64028 -0.128433)
(-6.79216e-16 -2.49038 -0.10385)
(-5.68182e-16 -2.07166 -0.050722)
(-8.29605e-16 -2.5467 -0.110964)
(-6.67944e-16 -2.4369 -0.105324)
(-4.28364e-16 -2.09453 -0.0628585)
(-6.35249e-16 -2.84877 -0.13418)
(-4.65414e-16 -1.97467 -0.0840256)
(-6.76369e-16 -2.60814 -0.149916)
(-4.31576e-16 -2.39015 -0.165853)
(-4.15517e-16 -2.08408 -0.120481)
(-5.9817e-16 -2.82179 -0.209558)
(-4.7315e-16 -1.93708 -0.141104)
(-7.27015e-16 -2.56837 -0.220356)
(-6.12679e-16 -2.43995 -0.230305)
(-4.14283e-16 -2.00069 -0.170036)
(-6.18252e-16 -2.45614 -0.278026)
(-4.89317e-16 -2.35135 -0.265292)
(-3.09958e-16 -1.99378 -0.196109)
(-4.58117e-16 -2.7161 -0.296881)
(-3.44261e-16 -1.84989 -0.202472)
(-5.34225e-16 -2.44687 -0.304867)
(-4.89287e-16 -2.22412 -0.290939)
(-5.07151e-16 -1.91628 -0.218866)
(-6.38886e-16 -2.60089 -0.324319)
(-3.89902e-16 -1.75 -0.22242)
(-6.40045e-16 -2.33091 -0.329292)
(-5.5069e-16 -2.18497 -0.319077)
(-3.6359e-16 -1.76794 -0.242859)
(-5.69024e-16 -2.17338 -0.374532)
(-4.93662e-16 -2.05096 -0.347449)
(-3.99261e-16 -1.71277 -0.264352)
(-5.52488e-16 -2.34863 -0.383121)
(-5.1042e-16 -1.55033 -0.269139)
(-6.75457e-16 -2.07378 -0.404545)
(-4.47668e-16 -1.83817 -0.380053)
(-3.31785e-16 -1.55674 -0.29568)
(-4.25693e-16 -2.13302 -0.427025)
(-1.8941e-16 -1.37244 -0.304297)
(-3.23666e-16 -1.86084 -0.456917)
(-2.83768e-16 -1.69005 -0.433661)
(-2.37135e-16 -1.32463 -0.343137)
(-3.18895e-16 -1.64781 -0.523548)
(-1.90147e-16 -1.50293 -0.480517)
(-3.19905e-16 -1.20644 -0.376697)
(-3.98933e-16 -1.70336 -0.535233)
(-3.87561e-16 -1.01937 -0.386167)
(-5.18916e-16 -1.43469 -0.58583)
(-4.26206e-16 -1.18625 -0.536409)
(-2.66992e-16 -0.948487 -0.424489)
(-3.80418e-16 -1.37897 -0.600925)
(-2.74272e-16 -0.73776 -0.435906)
(-3.61493e-16 -1.1238 -0.663666)
(-2.10078e-16 -0.915679 -0.610545)
(-3.53733e-16 -0.609658 -0.48668)
(-4.89951e-16 -0.87444 -0.735044)
(-5.85081e-16 -0.674797 -0.65632)
(-4.94797e-16 -0.422026 -0.499296)
(-6.86086e-16 -0.869276 -0.685488)
(-6.11907e-16 -0.191741 -0.461939)
(-8.93249e-16 -0.511902 -0.714422)
(2.1087e-41 0.358935 0.402225)
(6.40742e-41 0.430669 0.399408)
(6.63739e-41 0.474522 0.402289)
(-2.87545e-40 0.517932 0.404294)
(-1.82126e-39 0.559898 0.408541)
(-4.76952e-39 0.599502 0.413207)
(-2.09652e-39 0.638178 0.419177)
(3.47735e-38 0.67553 0.42592)
(1.44143e-37 0.712104 0.433684)
(2.10998e-37 0.747885 0.442303)
(-4.18506e-37 0.783094 0.451837)
(-2.70874e-36 0.817787 0.462224)
(-4.85203e-36 0.852062 0.473465)
(-2.68081e-37 0.885955 0.485524)
(-6.76282e-36 0.919495 0.498378)
(-1.24464e-34 0.952674 0.511993)
(-1.27264e-34 0.985467 0.526335)
(3.06196e-33 1.01783 0.541366)
(1.87244e-32 1.0497 0.557044)
(3.83551e-32 1.08103 0.573328)
(-1.09782e-31 1.11174 0.59018)
(-1.05e-30 1.14181 0.607561)
(-3.26121e-30 1.17119 0.625442)
(-1.18267e-30 1.19991 0.6438)
(3.44803e-29 1.22801 0.662623)
(1.6577e-28 1.25557 0.681907)
(3.3658e-28 1.2827 0.701656)
(-3.54192e-28 1.30954 0.721875)
(-5.1817e-27 1.33619 0.742569)
(-1.90185e-26 1.36277 0.763738)
(-3.00578e-26 1.38938 0.785385)
(6.04704e-26 1.41615 0.807524)
(5.64145e-25 1.44331 0.830199)
(1.88361e-24 1.47122 0.853497)
(2.83625e-24 1.50043 0.877552)
(-5.33379e-24 1.5316 0.902507)
(-4.9257e-23 1.5653 0.928456)
(-1.64645e-22 1.6018 0.955381)
(-2.74123e-22 1.6409 0.983127)
(2.37064e-22 1.68212 1.0114)
(3.27225e-21 1.72464 1.0398)
(1.18475e-20 1.76752 1.06781)
(2.41186e-20 1.80983 1.09492)
(1.16332e-20 1.85081 1.12059)
(-1.25368e-19 1.88999 1.14428)
(-5.96065e-19 1.92723 1.16539)
(-1.61179e-18 1.96257 1.18316)
(-2.79999e-18 1.99583 1.19652)
(-1.6167e-18 2.0261 1.20422)
(9.70129e-18 2.05127 1.20508)
(4.84755e-17 2.06779 1.1985)
(1.458e-16 2.0704 1.18467)
(3.47849e-16 2.05196 1.16409)
(7.10703e-16 2.00281 1.13639)
(1.2863e-15 1.91066 1.09884)
(2.11285e-15 1.76563 1.04491)
(3.25465e-15 1.54355 0.959699)
(4.6172e-15 0.981834 0.774162)
(4.25886e-15 -0.363868 0.137022)
(2.14538e-15 -1.32359 -0.129941)
(7.10842e-16 -1.77456 -0.253909)
(1.2029e-16 -2.19744 -0.314781)
(-1.70151e-18 -2.67199 -0.355112)
(-5.09146e-18 -3.15423 -0.369602)
(-9.25333e-19 -3.61165 -0.380336)
(-9.55894e-21 -3.99318 -0.378386)
(2.43987e-20 -4.27971 -0.378971)
(3.28659e-21 -4.46961 -0.371265)
(-3.24759e-22 -4.53134 -0.373675)
(-1.23482e-22 -4.50776 -0.360386)
(-6.65324e-23 -4.32789 -0.364209)
(1.09377e-22 -4.1493 -0.326861)
(-4.39737e-22 -3.7741 -0.339721)
(2.20616e-21 -3.73666 -0.255298)
(-1.56639e-20 -3.16113 -0.338899)
(2.33626e-19 -3.72333 -0.176789)
(-3.69472e-18 -2.94343 -0.407431)
(3.78986e-17 -3.55228 -0.286891)
(-2.447e-17 -5.91695 -0.406339)
(3.41937e-41 0.359566 0.431077)
(2.14705e-40 0.430773 0.426498)
(5.62643e-40 0.473823 0.429272)
(4.0042e-40 0.516993 0.430836)
(-3.97024e-39 0.558522 0.435073)
(-2.10793e-38 0.59784 0.439713)
(-4.73933e-38 0.636177 0.445824)
(2.01974e-38 0.673237 0.452754)
(5.57032e-37 0.709507 0.460794)
(2.01101e-36 0.745002 0.469741)
(2.48662e-36 0.779925 0.479661)
(-9.60494e-36 0.814343 0.490477)
(-6.23574e-35 0.84835 0.502184)
(-1.64472e-34 0.881985 0.514737)
(-9.92973e-35 0.915276 0.528107)
(1.18791e-33 0.948217 0.542248)
(6.5981e-33 0.980785 0.557121)
(1.90066e-32 1.01294 0.572679)
(1.6765e-32 1.04461 0.588877)
(-1.5325e-31 1.07575 0.605671)
(-9.84268e-31 1.10629 0.623022)
(-2.89581e-30 1.13619 0.640897)
(-1.62133e-30 1.16542 0.659273)
(2.77633e-29 1.19399 0.678138)
(1.48203e-28 1.22194 0.697491)
(3.57722e-28 1.24935 0.717341)
(-4.5902e-29 1.27633 0.737701)
(-4.12795e-27 1.30301 0.758582)
(-1.79803e-26 1.32951 0.779989)
(-3.69726e-26 1.35594 0.801918)
(1.98089e-26 1.38239 0.824375)
(4.59158e-25 1.40899 0.847389)
(1.83637e-24 1.43596 0.871038)
(3.65883e-24 1.46363 0.895461)
(-1.36512e-24 1.49257 0.920846)
(-4.01059e-23 1.52343 0.947363)
(-1.62234e-22 1.55681 0.97507)
(-3.4419e-22 1.59302 1.00385)
(-6.79863e-23 1.63191 1.03342)
(2.61802e-21 1.67304 1.06339)
(1.16298e-20 1.71562 1.09323)
(2.81068e-20 1.75872 1.1224)
(2.84242e-20 1.80142 1.15038)
(-8.87643e-20 1.84295 1.17666)
(-5.66942e-19 1.88286 1.2008)
(-1.72702e-18 1.92105 1.22226)
(-3.38784e-18 1.95762 1.24037)
(-3.10172e-18 1.99246 1.25434)
(7.47664e-18 2.02465 1.26364)
(4.80377e-17 2.05193 1.26861)
(1.55154e-16 2.0705 1.27094)
(3.84232e-16 2.07494 1.27312)
(8.03528e-16 2.05826 1.27663)
(1.47739e-15 2.01147 1.27931)
(2.44038e-15 1.92335 1.27378)
(3.68894e-15 1.78615 1.24618)
(5.25387e-15 1.58702 1.17259)
(6.91018e-15 1.10662 0.980933)
(5.41855e-15 -0.321511 0.151872)
(2.14434e-15 -1.31091 -0.166417)
(7.17643e-16 -1.77374 -0.265389)
(1.25088e-16 -2.2117 -0.332239)
(-1.90846e-18 -2.69352 -0.367552)
(-5.45059e-18 -3.17899 -0.376389)
(-9.84646e-19 -3.63685 -0.381126)
(-8.29607e-21 -4.01598 -0.374585)
(2.62452e-20 -4.29964 -0.371831)
(3.5474e-21 -4.48441 -0.361891)
(-3.38852e-22 -4.54238 -0.363518)
(-1.32658e-22 -4.51394 -0.350252)
(-6.69722e-23 -4.33269 -0.354653)
(1.09169e-22 -4.14895 -0.318947)
(-4.3987e-22 -3.77567 -0.332748)
(2.21939e-21 -3.72658 -0.250731)
(-1.59928e-20 -3.15699 -0.334119)
(2.3939e-19 -3.7007 -0.175191)
(-3.77101e-18 -2.91345 -0.401909)
(3.7647e-17 -3.53281 -0.284246)
(-2.24959e-17 -5.8517 -0.411417)
(3.08602e-41 0.360019 0.446485)
(5.37479e-40 0.430949 0.441217)
(1.89975e-39 0.473534 0.443915)
(2.87262e-39 0.516576 0.445262)
(-7.48931e-39 0.557871 0.4495)
(-6.15957e-38 0.597042 0.45414)
(-1.73314e-37 0.635206 0.460336)
(-4.5993e-38 0.672118 0.467379)
(1.6523e-36 0.708237 0.475578)
(6.99391e-36 0.74359 0.484713)
(9.98429e-36 0.778374 0.494851)
(-3.44278e-35 0.812659 0.505907)
(-2.40165e-34 0.846538 0.517875)
(-5.93671e-34 0.880052 0.530702)
(1.17823e-34 0.913227 0.544354)
(6.66549e-33 0.946061 0.558784)
(2.64319e-32 0.978529 0.573946)
(4.16749e-32 1.01059 0.58979)
(-1.01182e-31 1.04217 0.60627)
(-8.91477e-31 1.07323 0.623341)
(-2.86427e-30 1.1037 0.640965)
(-3.09776e-30 1.13352 0.659113)
(1.74866e-29 1.16268 0.677766)
(1.13069e-28 1.19118 0.696918)
(3.20412e-28 1.21906 0.716576)
(2.24918e-28 1.24639 0.736756)
(-2.40189e-27 1.27329 0.757474)
(-1.31365e-26 1.29989 0.778744)
(-3.39625e-26 1.3263 0.800566)
(-1.80418e-26 1.35265 0.822936)
(2.59589e-25 1.37902 0.845861)
(1.33265e-24 1.40552 0.869381)
(3.3971e-24 1.43236 0.893598)
(2.31091e-24 1.45989 0.918686)
(-2.17216e-23 1.48864 0.944861)
(-1.16687e-22 1.5193 0.972306)
(-3.12829e-22 1.5525 1.00104)
(-3.24694e-22 1.58857 1.03088)
(1.29546e-21 1.6274 1.06148)
(8.23257e-21 1.66854 1.09237)
(2.43243e-20 1.71122 1.12299)
(3.77609e-20 1.7545 1.15278)
(-2.56286e-20 1.79744 1.18122)
(-3.79161e-19 1.83927 1.20785)
(-1.38447e-18 1.87955 1.23224)
(-3.16047e-18 1.91817 1.25398)
(-4.12128e-18 1.95524 1.27263)
(2.39386e-18 1.99057 1.28809)
(3.36913e-17 2.02305 1.30112)
(1.24107e-16 2.05014 1.31407)
(3.28451e-16 2.06782 1.33067)
(7.17508e-16 2.07088 1.35419)
(1.3625e-15 2.05303 1.38432)
(2.30988e-15 2.00641 1.41444)
(3.55365e-15 1.92103 1.43121)
(5.04043e-15 1.79042 1.41508)
(6.7709e-15 1.60684 1.34031)
(8.51995e-15 1.18039 1.15082)
(7.16386e-15 -0.184711 0.348996)
(2.21521e-15 -1.25193 -0.223539)
(7.30812e-16 -1.74424 -0.283432)
(1.29531e-16 -2.18751 -0.35738)
(-2.32104e-18 -2.67508 -0.388222)
(-5.91832e-18 -3.16421 -0.388035)
(-1.06566e-18 -3.62469 -0.383563)
(-6.84488e-21 -4.00604 -0.369672)
(2.87176e-20 -4.29199 -0.361665)
(3.8876e-21 -4.47835 -0.348072)
(-3.57249e-22 -4.53889 -0.348283)
(-1.44351e-22 -4.51235 -0.335001)
(-6.75632e-23 -4.33559 -0.340088)
(1.08945e-22 -4.15288 -0.306812)
(-4.40064e-22 -3.78643 -0.32198)
(2.2358e-21 -3.73148 -0.243253)
(-1.63895e-20 -3.17183 -0.326944)
(2.4639e-19 -3.70039 -0.171177)
(-3.86031e-18 -2.91012 -0.395741)
(3.73497e-17 -3.54072 -0.27736)
(-2.07022e-17 -5.81328 -0.417704)
(-1.61064e-41 0.360725 0.464648)
(1.30036e-39 0.431201 0.458724)
(5.33729e-39 0.473116 0.461356)
(9.52425e-39 0.515947 0.462507)
(-1.57311e-38 0.556885 0.466764)
(-1.63681e-37 0.595826 0.47143)
(-4.83575e-37 0.633721 0.477745)
(-1.42349e-37 0.670405 0.484941)
(4.64911e-36 0.706287 0.493347)
(1.93633e-35 0.741421 0.502723)
(2.35998e-35 0.775988 0.513137)
(-1.19747e-34 0.810067 0.524498)
(-7.13725e-34 0.843745 0.536794)
(-1.45411e-33 0.877069 0.549967)
(2.03176e-33 0.910064 0.563978)
(2.35075e-32 0.942727 0.578774)
(7.14849e-32 0.975035 0.594304)
(3.78418e-32 1.00694 0.610515)
(-5.99323e-31 1.03839 0.627357)
(-2.86411e-30 1.06932 0.644783)
(-5.67786e-30 1.09967 0.662758)
(5.86763e-30 1.12938 0.681253)
(8.38903e-29 1.15842 0.700256)
(3.00264e-28 1.1868 0.719769)
(4.40239e-28 1.21456 0.739805)
(-1.14091e-27 1.24177 0.760389)
(-9.44806e-27 1.26855 0.781544)
(-3.01111e-26 1.29502 0.803285)
(-3.9043e-26 1.32132 0.825612)
(1.2317e-25 1.34754 0.848518)
(9.24736e-25 1.37378 0.87201)
(2.91311e-24 1.40014 0.896139)
(4.11663e-24 1.4268 0.921032)
(-9.12969e-24 1.45411 0.9469)
(-7.83615e-23 1.48259 0.974003)
(-2.6094e-22 1.51296 1.00254)
(-4.38961e-22 1.54589 1.0325)
(3.76152e-22 1.58175 1.06363)
(5.34632e-21 1.62046 1.09551)
(1.96617e-20 1.6616 1.12757)
(4.03649e-20 1.7044 1.15922)
(1.78214e-20 1.74792 1.18985)
(-2.2468e-19 1.79123 1.21894)
(-1.05604e-18 1.83351 1.24603)
(-2.81647e-18 1.87433 1.2708)
(-4.6652e-18 1.91358 1.29305)
(-1.52863e-18 1.95128 1.31302)
(2.15228e-17 1.98709 1.33192)
(9.65651e-17 2.01956 1.35275)
(2.78117e-16 2.04586 1.38045)
(6.40603e-16 2.06199 1.42039)
(1.2635e-15 2.06336 1.47485)
(2.20558e-15 2.04498 1.53907)
(3.47591e-15 2.00048 1.59965)
(5.01297e-15 1.92104 1.63646)
(6.71094e-15 1.80123 1.62575)
(8.55046e-15 1.63861 1.54362)
(1.03233e-14 1.26909 1.34382)
(9.17667e-15 0.0127134 0.592816)
(2.61316e-15 -1.18443 -0.26275)
(7.81435e-16 -1.72902 -0.313264)
(1.25663e-16 -2.17492 -0.389153)
(-3.83237e-18 -2.66972 -0.417115)
(-6.3469e-18 -3.16261 -0.40544)
(-1.15342e-18 -3.62461 -0.388655)
(-6.52823e-21 -4.00615 -0.364746)
(3.15415e-20 -4.29252 -0.349527)
(4.27585e-21 -4.47818 -0.330765)
(-3.77843e-22 -4.53913 -0.328703)
(-1.56952e-22 -4.51246 -0.315175)
(-6.82243e-23 -4.33795 -0.32091)
(1.08755e-22 -4.15474 -0.290591)
(-4.40302e-22 -3.79293 -0.307691)
(2.25281e-21 -3.73206 -0.232812)
(-1.67888e-20 -3.17989 -0.317797)
(2.53509e-19 -3.69581 -0.164918)
(-3.94747e-18 -2.90193 -0.388855)
(3.70531e-17 -3.54123 -0.269609)
(-1.8877e-17 -5.77424 -0.407344)
(-1.8375e-40 0.361433 0.481939)
(2.9497e-39 0.431496 0.475585)
(1.3108e-38 0.4728 0.478161)
(2.45179e-38 0.515431 0.479168)
(-3.48798e-38 0.556042 0.483458)
(-3.89249e-37 0.594772 0.488173)
(-1.12309e-36 0.632424 0.494618)
(-8.77694e-38 0.668902 0.50198)
(1.17852e-35 0.704574 0.5106)
(4.46325e-35 0.739512 0.520224)
(3.55396e-35 0.773888 0.53092)
(-3.61594e-34 0.807785 0.54259)
(-1.7395e-33 0.84129 0.555217)
(-2.51562e-33 0.874449 0.56874)
(9.68455e-33 0.907289 0.583112)
(6.45652e-32 0.939809 0.598277)
(1.43669e-31 0.971984 0.614177)
(-1.35932e-31 1.00377 0.630756)
(-2.07043e-30 1.03511 0.647961)
(-6.82911e-30 1.06593 0.665745)
(-5.94446e-30 1.09617 0.684072)
(4.62715e-29 1.12579 0.702918)
(2.51559e-28 1.15473 0.722274)
(5.80314e-28 1.18302 0.74215)
(-7.51674e-29 1.21067 0.762568)
(-6.06072e-27 1.23777 0.78356)
(-2.51665e-26 1.26444 0.805156)
(-4.95156e-26 1.29079 0.827373)
(2.75494e-26 1.31697 0.850209)
(5.92457e-25 1.34308 0.873654)
(2.33384e-24 1.3692 0.897714)
(4.6963e-24 1.39542 0.922449)
(-1.03388e-24 1.4219 0.948013)
(-4.78331e-23 1.44898 0.974654)
(-2.00993e-22 1.47719 1.00268)
(-4.51484e-22 1.50726 1.03231)
(-1.95782e-22 1.53994 1.0635)
(3.04391e-21 1.57561 1.09593)
(1.46958e-20 1.61424 1.12909)
(3.7698e-20 1.65542 1.16237)
(4.33205e-20 1.69838 1.19506)
(-1.04448e-19 1.74218 1.22655)
(-7.49317e-19 1.78585 1.25628)
(-2.36611e-18 1.82856 1.28384)
(-4.72255e-18 1.86983 1.30907)
(-4.24084e-18 1.90945 1.33234)
(1.14654e-17 1.94724 1.35522)
(7.15714e-17 1.98248 1.38127)
(2.29237e-16 2.01329 1.41658)
(5.61543e-16 2.03668 1.46859)
(1.15588e-15 2.04916 1.54249)
(2.08279e-15 2.04753 1.63629)
(3.36467e-15 2.02864 1.73768)
(4.9532e-15 1.98771 1.82515)
(6.72572e-15 1.91664 1.87291)
(8.53496e-15 1.80991 1.85589)
(1.03596e-14 1.66828 1.75618)
(1.20507e-14 1.35046 1.53923)
(1.10263e-14 0.209622 0.819476)
(3.50061e-15 -1.09491 -0.260652)
(9.15829e-16 -1.71603 -0.361608)
(1.10585e-16 -2.16847 -0.431019)
(-8.23911e-18 -2.67201 -0.45487)
(-6.81217e-18 -3.16981 -0.429931)
(-1.2294e-18 -3.63298 -0.397264)
(-5.57174e-21 -4.01337 -0.360244)
(3.46107e-20 -4.29886 -0.335482)
(4.68352e-21 -4.48212 -0.309807)
(-3.99945e-22 -4.54197 -0.304402)
(-1.69676e-22 -4.51375 -0.290318)
(-6.89122e-23 -4.34029 -0.296622)
(1.08611e-22 -4.15541 -0.269761)
(-4.40568e-22 -3.79756 -0.289384)
(2.26957e-21 -3.72972 -0.218967)
(-1.71682e-20 -3.18474 -0.30628)
(2.6042e-19 -3.6874 -0.156079)
(-4.02844e-18 -2.88923 -0.381145)
(3.67777e-17 -3.53768 -0.25743)
(-1.85489e-17 -5.72843 -0.408164)
(-6.58148e-40 0.362226 0.499226)
(6.02702e-39 0.43182 0.492582)
(2.83851e-38 0.472474 0.495115)
(5.40527e-38 0.514874 0.496028)
(-7.12235e-38 0.555124 0.500368)
(-8.05649e-37 0.593617 0.505158)
(-2.19531e-36 0.631 0.51175)
(6.11015e-37 0.667249 0.519298)
(2.57416e-35 0.702687 0.528149)
(8.41826e-35 0.737409 0.538041)
(1.06597e-35 0.771573 0.549038)
(-9.15325e-34 0.805271 0.561036)
(-3.42787e-33 0.838584 0.574015)
(-2.05276e-33 0.871564 0.587907)
(3.161e-32 0.904235 0.602662)
(1.42207e-31 0.936597 0.618216)
(1.85548e-31 0.968627 0.634508)
(-8.67261e-31 1.00028 0.651478)
(-5.42019e-30 1.03149 0.669068)
(-1.20157e-29 1.0622 0.687232)
(9.69459e-30 1.09234 0.705933)
(1.64601e-28 1.12184 0.725151)
(5.6952e-28 1.15069 0.744881)
(6.72463e-28 1.17886 0.765141)
(-2.88499e-27 1.2064 0.785961)
(-1.86416e-26 1.23337 0.807382)
(-5.05807e-26 1.25991 0.829442)
(-3.65471e-26 1.28614 0.852158)
(3.21922e-25 1.31219 0.875529)
(1.73e-24 1.33817 0.899537)
(4.51515e-24 1.36415 0.924189)
(3.74317e-24 1.39021 0.949553)
(-2.49331e-23 1.4165 0.975805)
(-1.43347e-22 1.44331 1.00324)
(-4.04565e-22 1.4712 1.03221)
(-4.98358e-22 1.50094 1.06297)
(1.35477e-21 1.53332 1.09545)
(1.00885e-20 1.56879 1.12925)
(3.19494e-20 1.60734 1.16378)
(5.45381e-20 1.64857 1.19833)
(-1.81982e-20 1.69173 1.23216)
(-4.82675e-19 1.73585 1.26456)
(-1.87162e-18 1.77993 1.29497)
(-4.41351e-18 1.82311 1.32305)
(-5.87217e-18 1.86477 1.34908)
(3.54965e-18 1.90447 1.37465)
(4.95953e-17 1.94159 1.4037)
(1.82976e-16 1.97488 1.44333)
(4.82261e-16 2.00212 1.50301)
(1.04245e-15 2.02065 1.59113)
(1.9468e-15 2.02835 1.70919)
(3.23123e-15 2.02414 1.84702)
(4.85872e-15 2.00693 1.98269)
(6.71539e-15 1.97307 2.08765)
(8.62931e-15 1.91428 2.13355)
(1.04355e-14 1.82382 2.09747)
(1.21278e-14 1.70417 1.97028)
(1.36514e-14 1.43686 1.73108)
(1.27525e-14 0.410741 1.03406)
(4.79726e-15 -0.972393 -0.228846)
(1.1894e-15 -1.69241 -0.428675)
(1.00993e-16 -2.1606 -0.487268)