/*--------------------------------*- C++ -*----------------------------------*\
| =========                 |                                                 |
| \\      /  F ield         | OpenFOAM: The Open Source CFD Toolbox           |
|  \\    /   O peration     | Version:  4.1                                   |
|   \\  /    A nd           | Web:      www.OpenFOAM.org                      |
|    \\/     M anipulation  |                                                 |
\*---------------------------------------------------------------------------*/
FoamFile
{
    version     2.0;
    format      ascii;
    class       volSymmTensorField;
    location    "15";
    object      turbulenceProperties:R;
}
// * * * * * * * * * * * * * * * * * * * * * * * * * * * * * * * * * * * * * //

dimensions      [0 2 -2 0 0 0 0];

internalField   nonuniform List<symmTensor> 
6785
(
(0.753313 1.46453e-19 7.6086e-20 0.753189 0.000166325 0.753498)
(0.753354 -1.10618e-19 -5.4892e-20 0.75332 6.37491e-06 0.753326)
(0.753325 -4.02602e-20 -2.96579e-20 0.753359 3.84513e-05 0.753316)
(0.753334 2.14543e-20 1.53251e-20 0.753344 2.62479e-05 0.753322)
(0.753332 -2.46196e-20 -6.15669e-21 0.753346 2.67902e-05 0.753322)
(0.753333 1.57981e-20 -1.38131e-21 0.753343 2.37623e-05 0.753324)
(0.753332 7.36467e-22 1.55551e-21 0.753341 2.20819e-05 0.753326)
(0.753333 -2.51508e-20 -5.72131e-21 0.753339 2.0394e-05 0.753328)
(0.753333 8.66748e-21 -4.03141e-21 0.753336 1.90845e-05 0.753331)
(0.753333 3.12613e-21 5.42116e-21 0.753333 1.8104e-05 0.753334)
(0.753332 -1.38719e-20 -3.08612e-21 0.75333 1.69947e-05 0.753337)
(0.753334 5.67787e-21 -6.53815e-22 0.753326 1.17477e-05 0.75334)
(0.753334 4.75559e-23 8.9758e-21 0.753326 5.24475e-06 0.75334)
(0.753318 -8.72366e-21 -3.39457e-22 0.75336 1.20166e-05 0.753322)
(0.753347 3.61317e-21 -1.64355e-21 0.753393 -7.63156e-05 0.753259)
(0.75333 1.95301e-19 1.25697e-19 0.753008 0.00022018 0.753663)
(0.753351 -1.3765e-19 -7.91445e-20 0.753341 -1.49608e-05 0.753309)
(0.753325 -5.02972e-20 -3.00567e-20 0.753378 1.208e-05 0.753297)
(0.75334 1.21896e-20 1.98753e-20 0.753353 -5.62619e-06 0.753307)
(0.753333 -2.01475e-20 -1.14749e-20 0.753362 1.72473e-06 0.753305)
(0.753336 7.79353e-21 3.40442e-21 0.753356 -1.99629e-06 0.753308)
(0.753334 -9.5948e-21 6.46561e-21 0.753356 -1.19348e-06 0.753309)
(0.753335 -1.28327e-20 -6.81899e-21 0.753354 -2.20446e-06 0.753311)
(0.753334 1.52323e-21 -9.35579e-24 0.753355 -3.6192e-06 0.753311)
(0.753334 -7.29961e-21 7.47541e-21 0.753357 -7.46969e-06 0.753309)
(0.753334 -6.72613e-21 -3.12854e-21 0.753361 -1.48726e-05 0.753305)
(0.753334 9.8423e-22 -1.03079e-21 0.753362 -2.71781e-05 0.753303)
(0.753334 -2.23272e-21 2.22588e-21 0.753357 -3.89493e-05 0.753308)
(0.753333 -2.99042e-21 -4.86201e-22 0.753356 -3.84873e-05 0.753311)
(0.753332 9.14816e-21 8.42521e-21 0.753363 -3.2546e-05 0.753306)
(0.753329 2.17622e-19 6.15021e-20 0.752963 0.00022669 0.753708)
(0.753339 -1.38063e-19 -7.85853e-20 0.753349 -1.51609e-05 0.753312)
(0.753325 -3.92111e-20 -2.33098e-20 0.75337 -6.18741e-07 0.753305)
(0.753337 3.95371e-20 -1.61481e-20 0.753351 -1.50054e-05 0.753312)
(0.75333 -2.02142e-20 -9.63771e-21 0.753361 -5.67773e-06 0.75331)
(0.753334 4.88096e-21 2.44491e-21 0.753353 -1.05058e-05 0.753313)
(0.753332 6.33429e-21 -3.05074e-20 0.753354 -7.51529e-06 0.753314)
(0.753333 -6.07799e-21 -3.95258e-21 0.753351 -8.57853e-06 0.753316)
(0.753333 3.47916e-21 1.64908e-21 0.753354 -9.90728e-06 0.753313)
(0.753333 4.95773e-21 -2.95649e-20 0.753366 -1.75743e-05 0.753301)
(0.753333 7.18918e-21 3.17448e-21 0.753396 -3.57015e-05 0.753272)
(0.753333 2.45498e-20 1.32085e-20 0.753429 -5.84305e-05 0.753238)
(0.753332 -2.38871e-20 -8.79526e-21 0.753406 -4.52429e-05 0.753262)
(0.753335 -4.69298e-20 -3.13234e-20 0.753336 -1.21282e-05 0.753329)
(0.753332 3.634e-20 2.51926e-20 0.753254 3.49612e-05 0.753414)
(0.753332 1.82893e-19 1.28395e-19 0.752949 0.000221808 0.753719)
(0.753337 -1.17151e-19 -1.03669e-19 0.753347 -1.31945e-05 0.753316)
(0.753329 -5.12732e-20 -1.69284e-20 0.753366 -9.41136e-06 0.753305)
(0.753338 1.82251e-20 1.14529e-20 0.753349 -1.8905e-05 0.753313)
(0.75333 -2.77521e-21 -3.43194e-20 0.753359 -8.83036e-06 0.753311)
(0.753336 -1.38687e-21 1.85373e-20 0.75335 -1.52687e-05 0.753314)
(0.753332 -4.96038e-21 -2.94039e-21 0.753353 -1.07052e-05 0.753315)
(0.753334 4.7236e-21 -2.18291e-20 0.753349 -1.25676e-05 0.753317)
(0.753333 -3.26721e-21 9.21835e-21 0.753351 -1.23723e-05 0.753316)
(0.753334 1.61003e-21 1.07284e-21 0.753357 -1.61754e-05 0.753309)
(0.753333 6.38042e-21 -1.42476e-20 0.753374 -2.29548e-05 0.753292)
(0.753334 1.08393e-21 8.99268e-21 0.753392 -2.87933e-05 0.753273)
(0.753331 2.66556e-20 1.5475e-20 0.753405 -2.04082e-05 0.753264)
(0.753339 -4.6994e-20 -2.69368e-20 0.753401 -3.5495e-05 0.75326)
(0.753332 9.07139e-21 4.13137e-21 0.753299 2.67604e-05 0.753369)
(0.753333 2.02498e-19 9.64193e-20 0.752954 0.000214301 0.753713)
(0.753336 -1.00285e-19 -1.07964e-19 0.753339 -8.42028e-06 0.753325)
(0.75333 -5.35497e-20 -4.32007e-20 0.75337 -1.58636e-05 0.7533)
(0.753337 2.49231e-20 2.79694e-21 0.753352 -2.07338e-05 0.753311)
(0.75333 7.28051e-22 -3.2086e-20 0.753359 -1.13045e-05 0.753311)
(0.753335 8.81483e-21 -7.9913e-21 0.753352 -1.74901e-05 0.753313)
(0.753332 2.59535e-21 -9.1385e-21 0.753355 -1.32598e-05 0.753313)
(0.753334 2.60853e-21 -2.26973e-20 0.753352 -1.51117e-05 0.753314)
(0.753333 5.41321e-22 -2.47562e-21 0.753353 -1.4132e-05 0.753314)
(0.753333 5.23399e-21 -3.16596e-21 0.753354 -1.52981e-05 0.753313)
(0.753333 2.56516e-21 -1.5474e-20 0.753361 -1.68501e-05 0.753306)
(0.753334 -4.45054e-21 -1.22177e-20 0.75337 -1.99224e-05 0.753296)
(0.753332 -1.90123e-21 -2.78576e-21 0.753386 -2.0667e-05 0.753282)
(0.753337 -1.21514e-20 -4.27489e-21 0.753397 -3.36321e-05 0.753267)
(0.75333 2.52371e-20 9.50838e-21 0.753345 1.06503e-05 0.753325)
(0.753333 1.99856e-19 1.32978e-19 0.752969 0.000205183 0.753698)
(0.753335 -1.24169e-19 -5.2902e-20 0.75333 -3.36712e-06 0.753335)
(0.753331 -8.55458e-20 -2.04046e-20 0.753373 -1.97627e-05 0.753297)
(0.753336 9.54863e-21 1.44803e-20 0.753355 -2.11959e-05 0.753309)
(0.753331 -7.99126e-21 5.37022e-21 0.753358 -1.25764e-05 0.753311)
(0.753335 -1.33904e-20 1.36965e-20 0.753353 -1.74368e-05 0.753313)
(0.753332 -5.84078e-21 -1.39819e-21 0.753355 -1.36422e-05 0.753313)
(0.753334 -8.44722e-21 5.08646e-21 0.753352 -1.43498e-05 0.753314)
(0.753333 -1.33821e-20 1.0311e-20 0.753352 -1.28283e-05 0.753315)
(0.753333 -3.56259e-21 -7.63853e-21 0.753352 -1.26159e-05 0.753315)
(0.753333 -2.16996e-21 4.55882e-21 0.753354 -1.2319e-05 0.753313)
(0.753334 -1.10256e-20 6.23158e-21 0.753358 -1.3198e-05 0.753308)
(0.753333 -1.0093e-20 -6.97903e-21 0.753369 -1.41168e-05 0.753298)
(0.753336 3.06063e-20 2.07823e-20 0.753387 -2.59877e-05 0.753277)
(0.753331 -2.59503e-20 -2.27351e-20 0.753383 -1.19143e-05 0.753286)
(0.753333 2.17045e-19 1.45742e-19 0.752985 0.000198738 0.753682)
(0.753334 -1.21867e-19 -5.71995e-20 0.753328 -1.99301e-06 0.753338)
(0.753331 -9.46017e-20 -2.39923e-20 0.753372 -2.12279e-05 0.753297)
(0.753336 -1.32556e-21 -1.04898e-21 0.753357 -2.10521e-05 0.753307)
(0.753331 7.31803e-21 1.4538e-20 0.753358 -1.33649e-05 0.753311)
(0.753335 -9.95182e-21 1.44782e-20 0.753352 -1.7421e-05 0.753313)
(0.753332 -1.4047e-20 -8.49224e-21 0.753352 -1.38137e-05 0.753315)
(0.753334 8.48275e-21 1.49579e-20 0.753348 -1.5425e-05 0.753318)
(0.753333 -6.44377e-21 1.66331e-20 0.753348 -1.4123e-05 0.753319)
(0.753334 -1.89789e-20 -1.15409e-20 0.753347 -1.2762e-05 0.75332)
(0.753333 5.52812e-21 9.56855e-21 0.753346 -9.46206e-06 0.75332)
(0.753333 -2.41524e-21 1.15175e-20 0.753347 -5.74912e-06 0.753319)
(0.753333 -3.36156e-20 -2.02054e-20 0.753353 -3.63118e-06 0.753313)
(0.753334 2.13423e-20 9.01482e-21 0.753376 -1.38937e-05 0.75329)
(0.753333 -2.17724e-20 -6.69766e-21 0.753431 -3.9255e-05 0.753237)
(0.753334 2.15451e-19 1.14351e-19 0.752997 0.000196705 0.75367)
(0.753334 -1.13652e-19 -6.11632e-20 0.753335 -3.7047e-06 0.753332)
(0.753332 -6.14766e-20 -4.63996e-20 0.75337 -1.92118e-05 0.753298)
(0.753335 -2.33438e-21 1.05874e-21 0.75336 -1.83752e-05 0.753305)
(0.753332 2.84945e-21 2.64723e-21 0.753363 -1.31339e-05 0.753305)
(0.753335 3.12025e-21 -5.92183e-21 0.753361 -1.91789e-05 0.753304)
(0.753333 -5.66576e-21 5.90387e-21 0.753364 -1.92766e-05 0.753304)
(0.753334 7.21969e-22 8.20946e-22 0.753355 -2.1194e-05 0.753311)
(0.753333 -1.4446e-21 -4.32536e-21 0.753344 -1.59593e-05 0.753323)
(0.753333 -1.01395e-20 -5.32491e-21 0.753332 -1.04083e-05 0.753335)
(0.753333 -1.06532e-21 -8.25304e-22 0.753323 -3.25003e-06 0.753344)
(0.753333 3.99263e-21 -1.40427e-21 0.75332 3.46532e-06 0.753347)
(0.753334 -2.49507e-20 -1.2759e-20 0.753329 4.91474e-06 0.753337)
(0.753333 9.49182e-22 4.6384e-22 0.753362 -5.89283e-06 0.753305)
(0.753333 1.43682e-20 1.38949e-20 0.753487 -7.64257e-05 0.753179)
(0.753333 1.86485e-19 1.08762e-19 0.752985 0.00020769 0.753683)
(0.753335 -1.26669e-19 -7.02298e-20 0.753348 -4.55333e-06 0.753317)
(0.753332 -3.49757e-20 -5.00623e-20 0.753367 -1.07178e-05 0.753301)
(0.753335 8.07593e-21 5.45188e-21 0.75336 -1.08433e-05 0.753306)
(0.753332 -1.12647e-20 -5.05139e-21 0.753368 -9.6939e-06 0.7533)
(0.753334 1.16801e-20 -2.26623e-20 0.753377 -1.88758e-05 0.753289)
(0.753333 5.66334e-21 4.67259e-21 0.753386 -2.32368e-05 0.753281)
(0.753334 -4.05774e-21 -1.54656e-21 0.753381 -2.5129e-05 0.753285)
(0.753333 3.94745e-21 -7.36011e-21 0.753369 -2.03292e-05 0.753298)
(0.753333 6.1227e-21 1.94916e-21 0.753347 -1.32755e-05 0.75332)
(0.753333 -7.98817e-21 -7.29102e-21 0.753316 -1.23024e-06 0.753351)
(0.753333 -4.37243e-21 -1.45925e-20 0.753286 9.78142e-06 0.753381)
(0.753334 -1.11782e-20 -5.05078e-21 0.75328 9.77771e-06 0.753386)
(0.753331 -1.09376e-20 -6.79711e-21 0.75333 -7.48406e-06 0.753339)
(0.753334 2.78316e-20 1.35625e-21 0.7535 -0.000103989 0.753166)
(0.753332 1.97504e-19 8.22547e-20 0.752946 0.000221322 0.753721)
(0.753336 -1.23372e-19 -7.44518e-20 0.753341 1.28936e-06 0.753323)
(0.753332 -4.45362e-20 -5.01323e-20 0.753375 -1.11203e-05 0.753293)
(0.753335 2.43543e-20 -1.99896e-20 0.753356 -7.65562e-06 0.753309)
(0.753332 -1.16251e-20 -5.79682e-21 0.753363 -6.75022e-06 0.753305)
(0.753334 3.58596e-21 -9.31691e-21 0.753374 -1.5435e-05 0.753292)
(0.753333 1.69867e-20 -1.12714e-20 0.753388 -1.9288e-05 0.753279)
(0.753334 8.00853e-21 5.55948e-21 0.753391 -2.11363e-05 0.753276)
(0.753333 1.48581e-20 -2.92605e-21 0.753389 -1.89713e-05 0.753278)
(0.753333 1.59757e-20 -1.44595e-21 0.753385 -1.98116e-05 0.753282)
(0.753333 -2.74023e-21 -2.63149e-21 0.753375 -1.96117e-05 0.753292)
(0.753333 -3.20858e-20 -2.65825e-20 0.753345 -1.36563e-05 0.753322)
(0.753333 -3.28852e-20 -2.52336e-20 0.753301 -2.15046e-06 0.753366)
(0.75333 1.7293e-21 -7.7999e-21 0.753288 -4.13577e-07 0.753381)
(0.753335 2.18118e-20 9.77124e-21 0.75338 -5.64741e-05 0.753285)
(0.753332 1.95031e-19 1.0594e-19 0.752945 0.000208477 0.753723)
(0.753335 -9.20544e-20 -3.68998e-20 0.753291 2.20202e-05 0.753374)
(0.753332 -4.15677e-20 -1.16473e-19 0.753376 -1.5083e-05 0.753292)
(0.753334 -2.21576e-20 -1.372e-20 0.753363 -1.53195e-05 0.753303)
(0.753333 -1.10416e-20 1.5298e-20 0.753357 -1.04757e-05 0.75331)
(0.753334 2.89391e-20 -4.85962e-20 0.753359 -1.44404e-05 0.753307)
(0.753333 -6.86343e-21 3.72325e-21 0.75337 -1.59357e-05 0.753297)
(0.753334 9.61799e-21 1.68924e-20 0.753377 -1.80756e-05 0.753289)
(0.753333 3.37066e-20 -2.30801e-20 0.753383 -1.76157e-05 0.753284)
(0.753333 -1.36611e-21 5.50748e-22 0.753388 -1.91432e-05 0.753279)
(0.753334 3.10616e-20 2.43204e-20 0.753393 -2.17898e-05 0.753273)
(0.753334 2.30807e-20 3.17005e-21 0.753399 -2.57023e-05 0.753267)
(0.753333 8.34459e-21 2.20234e-21 0.753394 -2.66123e-05 0.753273)
(0.753338 -5.24514e-20 -2.47611e-20 0.753341 -1.84809e-05 0.75332)
(0.753333 -4.78614e-20 -2.47804e-20 0.753268 2.25824e-05 0.753399)
(0.753333 1.89869e-19 1.14e-19 0.752998 0.000173283 0.753669)
(0.753334 -4.83837e-20 -9.38393e-21 0.753237 4.7497e-05 0.753429)
(0.753333 -6.82792e-20 -8.74699e-20 0.75336 -1.33165e-05 0.753308)
(0.753334 -4.77124e-20 -2.9071e-20 0.753373 -2.46659e-05 0.753293)
(0.753333 -9.61087e-21 2.0765e-21 0.753362 -1.85841e-05 0.753305)
(0.753334 1.87968e-20 -2.07015e-20 0.753355 -1.72916e-05 0.753311)
(0.753333 -5.27474e-21 -2.86441e-21 0.753357 -1.62728e-05 0.75331)
(0.753334 -6.49466e-21 1.62977e-20 0.75336 -1.70418e-05 0.753306)
(0.753333 1.15505e-20 -2.74674e-21 0.753364 -1.66458e-05 0.753302)
(0.753334 -1.60769e-21 1.01676e-21 0.753368 -1.6496e-05 0.753298)
(0.753333 8.16911e-21 6.00952e-21 0.753373 -1.58908e-05 0.753293)
(0.753334 1.38898e-20 2.22328e-21 0.753379 -1.67063e-05 0.753287)
(0.753332 -1.73804e-21 9.07924e-21 0.753389 -1.50273e-05 0.753279)
(0.753338 -3.23391e-20 -1.15911e-20 0.753395 -2.8942e-05 0.753267)
(0.75333 -1.00923e-22 3.81632e-21 0.753332 1.36348e-05 0.753338)
(0.753333 1.85954e-19 9.53558e-20 0.75305 0.000147486 0.753617)
(0.753333 -2.50144e-21 -2.35519e-20 0.753207 6.56255e-05 0.75346)
(0.753333 -9.30965e-20 -3.34101e-20 0.753344 -9.56641e-06 0.753323)
(0.753334 -4.07101e-20 -5.7036e-20 0.753374 -2.87907e-05 0.753293)
(0.753333 -1.81735e-20 -1.06236e-20 0.753366 -2.41182e-05 0.753301)
(0.753333 -2.46417e-21 -9.57296e-22 0.753357 -1.99598e-05 0.75331)
(0.753333 1.14716e-20 -3.67968e-21 0.753354 -1.71144e-05 0.753312)
(0.753333 -1.11732e-20 2.62837e-20 0.753355 -1.63681e-05 0.753312)
(0.753333 -3.94826e-21 -1.33255e-20 0.753357 -1.57082e-05 0.753309)
(0.753333 -1.50328e-21 -3.80058e-22 0.75336 -1.52357e-05 0.753307)
(0.753333 -4.93718e-21 4.39869e-21 0.753363 -1.44186e-05 0.753304)
(0.753333 -2.42362e-21 -5.2755e-21 0.753367 -1.4493e-05 0.7533)
(0.753333 4.52194e-21 4.57948e-21 0.753374 -1.44123e-05 0.753293)
(0.753336 -2.46713e-20 -1.09439e-20 0.753389 -2.64226e-05 0.753275)
(0.75333 1.81892e-20 9.72992e-21 0.753378 -6.28911e-06 0.753292)
(0.753336 1.67429e-19 1.01349e-19 0.753096 0.000124783 0.753568)
(0.753332 5.86108e-21 -9.07225e-21 0.753196 7.71545e-05 0.753472)
(0.753334 -8.13205e-20 -8.53183e-20 0.753346 -7.08607e-06 0.75332)
(0.753334 -5.02163e-20 -4.31315e-20 0.753384 -2.48227e-05 0.753283)
(0.753333 2.5642e-21 -1.27301e-20 0.75337 -1.70507e-05 0.753297)
(0.753334 2.49563e-21 1.68414e-21 0.753355 -1.07901e-05 0.753311)
(0.753333 7.48146e-21 1.60456e-20 0.75335 -8.38474e-06 0.753317)
(0.753333 1.15951e-20 -1.6765e-21 0.753348 -8.82266e-06 0.753318)
(0.753333 -9.66856e-21 -4.40905e-21 0.753349 -9.19889e-06 0.753318)
(0.753333 -1.39055e-20 2.69612e-21 0.753349 -9.48492e-06 0.753317)
(0.753333 -4.46016e-21 -1.18798e-20 0.75335 -9.63058e-06 0.753316)
(0.753333 -2.00782e-21 5.95391e-22 0.753353 -1.08881e-05 0.753313)
(0.753333 -2.09519e-21 6.22794e-21 0.753361 -1.27899e-05 0.753306)
(0.753334 -2.16942e-20 -1.4606e-20 0.753378 -1.98782e-05 0.753289)
(0.753333 2.73394e-20 1.62252e-20 0.753418 -3.88292e-05 0.753249)
(0.753332 1.30429e-19 8.27476e-20 0.753098 0.000127982 0.75357)
(0.753333 7.15194e-20 3.27274e-20 0.753157 6.46188e-05 0.75351)
(0.753333 -6.19773e-20 -9.88432e-21 0.753286 -6.56261e-06 0.753382)
(0.753333 -7.82522e-20 -4.80401e-20 0.753352 -3.17872e-05 0.753315)
(0.753333 -3.80131e-20 -4.02264e-20 0.753374 -2.94039e-05 0.753292)
(0.753333 -2.73154e-20 -6.91035e-21 0.753373 -2.22055e-05 0.753294)
(0.753333 -8.61827e-21 -8.24478e-21 0.753369 -1.58189e-05 0.753297)
(0.753333 8.41286e-21 -7.48834e-21 0.753367 -1.11852e-05 0.753299)
(0.753333 5.23567e-21 1.16975e-20 0.753365 -8.07903e-06 0.753301)
(0.753333 -3.12904e-21 -3.98064e-21 0.753364 -6.81648e-06 0.753302)
(0.753333 -9.8283e-21 -1.46063e-20 0.753365 -5.90666e-06 0.753302)
(0.753333 -1.61218e-20 -4.99342e-21 0.753362 -2.16461e-06 0.753304)
(0.753334 -7.19754e-21 -4.78262e-21 0.753355 1.67563e-06 0.753311)
(0.753332 -8.72669e-21 -7.97516e-21 0.753371 -1.45928e-06 0.753297)
(0.753335 4.35761e-20 3.21406e-20 0.753437 -4.12338e-05 0.753229)
(0.753648 4.48818e-20 2.77169e-21 0.752891 0.000357926 0.753461)
(0.753265 3.83088e-20 5.09615e-21 0.753437 0.0003838 0.753299)
(0.753334 -3.95916e-21 1.26878e-20 0.753328 5.6506e-05 0.753338)
(0.753334 -7.36834e-21 1.21769e-20 0.753318 -1.61083e-05 0.753347)
(0.753335 1.10042e-20 1.27701e-20 0.753316 1.32485e-05 0.753349)
(0.753333 5.71711e-23 2.71018e-21 0.753327 -3.03229e-06 0.753339)
(0.753331 -1.07736e-20 1.26864e-20 0.753324 -9.78875e-06 0.753344)
(0.753335 8.68558e-21 1.23244e-20 0.753318 -1.05454e-06 0.753347)
(0.753334 -2.08874e-21 1.22297e-20 0.75332 3.74266e-06 0.753346)
(0.753333 -1.71511e-20 -5.83275e-22 0.753329 -2.74659e-06 0.753338)
(0.753332 -1.2894e-20 7.7213e-21 0.753325 -1.16361e-05 0.753343)
(0.753335 9.24356e-21 7.71116e-21 0.753318 -1.37145e-07 0.753346)
(0.753333 1.68589e-21 8.76756e-22 0.753331 -2.72633e-06 0.753336)
(0.753332 -5.28906e-21 8.19551e-21 0.753326 -1.01529e-05 0.753342)
(0.753335 1.31038e-21 7.80817e-21 0.753322 -4.61417e-06 0.753343)
(0.753333 8.44856e-21 8.56231e-21 0.753324 -1.78055e-06 0.753342)
(0.753333 -1.06234e-21 9.16725e-22 0.753332 -2.60056e-06 0.753335)
(0.753331 -1.39028e-20 7.61396e-21 0.753329 -1.21129e-05 0.753339)
(0.753336 5.04626e-21 7.50073e-21 0.753321 -5.03333e-06 0.753343)
(0.753333 -4.13029e-22 1.18895e-21 0.753334 -2.75801e-06 0.753333)
(0.753332 -9.80729e-21 7.78813e-21 0.75333 -1.09482e-05 0.753338)
(0.753335 -8.86918e-21 6.71905e-21 0.753326 -8.57506e-06 0.75334)
(0.753334 -7.08956e-22 6.08991e-21 0.753328 -7.10004e-06 0.753338)
(0.753333 -1.37979e-21 1.6943e-21 0.753335 -2.72624e-06 0.753332)
(0.753332 -1.53161e-20 6.24575e-21 0.753332 -1.03373e-05 0.753336)
(0.753335 -1.03434e-20 4.74305e-21 0.753328 -9.08746e-06 0.753337)
(0.753334 -2.48225e-21 4.54809e-21 0.753331 -8.56438e-06 0.753335)
(0.753333 -5.65273e-21 2.16066e-21 0.753335 -2.53171e-06 0.753331)
(0.753331 -2.12266e-20 2.97425e-21 0.753336 -7.82396e-06 0.753332)
(0.753336 -1.43791e-20 1.00595e-21 0.753327 -9.12458e-06 0.753336)
(0.753333 -5.9166e-21 2.03795e-21 0.753337 -2.27195e-06 0.75333)
(0.753332 -1.45115e-20 -2.6102e-23 0.753336 -5.952e-06 0.753331)
(0.753334 -1.43668e-20 -1.58754e-21 0.753333 -6.30508e-06 0.753333)
(0.753334 -1.23092e-20 -3.09127e-21 0.753335 -8.31461e-06 0.753331)
(0.753333 -6.62784e-21 4.02235e-22 0.753337 -1.48368e-06 0.753329)
(0.753332 -3.87477e-21 -4.32476e-21 0.753339 -1.81121e-06 0.753329)
(0.753336 -1.21154e-20 -5.14362e-21 0.753332 -6.80088e-06 0.753333)
(0.753333 -3.26705e-21 -1.71314e-21 0.753338 -7.04665e-07 0.753329)
(0.753333 4.78937e-21 -6.27588e-21 0.753338 -7.23347e-07 0.753329)
(0.753334 -5.30602e-21 -5.88046e-21 0.753335 -2.18971e-06 0.753331)
(0.753334 -1.32019e-20 -6.8023e-21 0.753336 -5.05476e-06 0.75333)
(0.753333 1.26964e-21 -3.63047e-21 0.753338 1.12254e-07 0.753329)
(0.753333 1.23002e-20 -6.79047e-21 0.753338 9.41333e-07 0.75333)
(0.753334 7.25432e-21 -5.60417e-21 0.753335 -4.42693e-07 0.753331)
(0.753334 -1.77994e-21 -5.61444e-21 0.753335 -3.64706e-06 0.753331)
(0.753333 7.03196e-21 -2.50086e-21 0.753334 -7.87451e-07 0.753332)
(0.753333 2.32231e-20 -3.98219e-21 0.753338 1.70371e-06 0.753329)
(0.753335 1.04576e-20 -1.87329e-21 0.753333 -2.3418e-06 0.753332)
(0.753333 -1.52608e-22 2.09462e-22 0.753334 -5.55885e-07 0.753333)
(0.753334 -2.41756e-21 -1.59003e-21 0.753337 -1.61863e-06 0.75333)
(0.753333 1.04046e-21 -2.04342e-21 0.753337 -1.69248e-06 0.75333)
(0.753334 -9.46688e-22 -2.08195e-21 0.753337 -2.51682e-06 0.75333)
(0.753333 -5.55834e-22 3.03582e-22 0.753336 1.71836e-06 0.753331)
(0.753333 1.00696e-20 -2.32388e-21 0.753337 1.65305e-06 0.75333)
(0.753333 -1.33188e-20 -2.22302e-21 0.753337 -2.38847e-06 0.75333)
(0.753333 -2.43636e-20 -4.55799e-21 0.753335 6.52787e-06 0.753332)
(0.753334 -4.32572e-21 1.45536e-21 0.753338 1.38605e-05 0.753328)
(0.753331 3.30628e-19 -1.75626e-21 0.753334 7.04791e-06 0.753335)
(0.753333 2.91051e-19 3.2759e-20 0.753325 2.72934e-05 0.753341)
(0.753334 -1.07234e-19 2.3544e-21 0.753342 1.09502e-05 0.753324)
(0.753329 -7.50113e-20 4.03062e-21 0.753329 -1.1439e-05 0.753341)
(0.753338 9.97673e-21 -1.66433e-21 0.753313 4.11086e-06 0.753349)
(0.753331 4.94432e-21 -9.93028e-22 0.753328 -8.59958e-06 0.75334)
(0.753333 1.57862e-20 2.85348e-22 0.753352 -1.57382e-05 0.753314)
(0.753334 4.37919e-21 2.89812e-21 0.753333 -1.48297e-05 0.753333)
(0.753334 -5.49491e-21 2.8693e-21 0.753337 -1.63817e-05 0.753329)
(0.753333 -1.74693e-21 5.37017e-22 0.753357 -1.40323e-05 0.75331)
(0.753332 -8.09332e-21 1.78065e-21 0.753352 -1.82071e-06 0.753316)
(0.753337 -5.84241e-21 1.79869e-21 0.753343 6.12882e-07 0.75332)
(0.753332 -1.20116e-21 1.49249e-21 0.753358 -2.40209e-05 0.75331)
(0.753333 -1.71659e-21 -5.91502e-23 0.753363 -7.58858e-06 0.753304)
(0.753333 -1.14419e-21 1.09411e-21 0.753364 1.5334e-05 0.753304)
(0.753337 3.62178e-21 1.15495e-21 0.753354 5.29611e-06 0.753308)
(0.753333 7.45785e-21 1.91891e-21 0.753371 -2.4845e-05 0.753296)
(0.753331 4.98136e-21 -3.58469e-21 0.753371 -5.44978e-06 0.753298)
(0.753346 1.85486e-20 2.9964e-21 0.75335 1.8828e-05 0.753305)
(0.753331 3.36422e-20 5.96479e-21 0.753386 -3.85404e-05 0.753283)
(0.753331 1.2417e-20 -1.05388e-21 0.753372 -5.47005e-06 0.753297)
(0.753347 2.36235e-20 8.27865e-21 0.753361 2.58891e-05 0.753292)
(0.75333 8.0857e-20 1.24192e-20 0.753401 -7.4969e-05 0.75327)
(0.753328 7.52477e-20 3.91587e-21 0.753365 -5.92088e-05 0.753307)
(0.753341 4.28267e-20 4.42804e-21 0.753337 -9.37697e-06 0.753322)
(0.753326 1.63377e-20 3.27477e-21 0.753375 -4.84935e-05 0.753299)
(0.753333 -1.68038e-20 6.14825e-21 0.753349 -1.32433e-05 0.753318)
(0.753338 -3.37002e-20 3.89291e-21 0.753343 -1.82343e-05 0.753319)
(0.753329 -7.15409e-20 6.03812e-21 0.753354 -4.47704e-05 0.753317)
(0.753335 -8.35085e-20 4.64798e-21 0.753346 -1.34206e-05 0.753319)
(0.753333 -1.03163e-19 2.19373e-21 0.753352 -8.21857e-06 0.753315)
(0.753333 -1.12509e-19 -1.08713e-21 0.753351 -2.7261e-06 0.753315)
(0.753332 -1.10235e-19 -4.46812e-21 0.753355 -4.50715e-06 0.753313)
(0.753335 -9.93715e-20 -7.04273e-21 0.75335 -1.47021e-05 0.753315)
(0.753332 -7.14697e-20 -7.47502e-21 0.753359 -3.02557e-05 0.753309)
(0.753333 -2.3971e-20 6.802e-22 0.753342 -6.18272e-06 0.753325)
(0.753337 -1.9184e-20 -2.81162e-21 0.753346 7.9103e-06 0.753317)
(0.753332 -3.22325e-20 -2.33682e-21 0.753353 -1.65458e-05 0.753315)
(0.753334 -2.26335e-20 -3.86708e-21 0.75335 -2.32905e-05 0.753316)
(0.753332 -2.55014e-20 -3.46251e-21 0.753353 -2.64582e-05 0.753315)
(0.753335 -2.04137e-20 -4.28931e-21 0.75335 -1.26604e-05 0.753315)
(0.753332 -2.33516e-20 -4.9749e-21 0.753356 -8.42561e-06 0.753312)
(0.753334 -2.16131e-20 -5.61628e-21 0.753352 -7.88188e-06 0.753314)
(0.753334 -2.86498e-20 -6.85804e-21 0.753355 -1.71342e-05 0.753311)
(0.753333 3.41139e-21 -1.99709e-20 0.753335 -3.14311e-06 0.753332)
(0.753337 1.37235e-21 -4.46413e-21 0.753344 1.62207e-05 0.753318)
(0.753331 -8.43753e-21 -3.69549e-21 0.753354 5.77735e-06 0.753315)
(0.753334 -3.71934e-21 -4.18743e-21 0.753348 6.53215e-06 0.753317)
(0.753333 -9.19052e-21 -4.22474e-21 0.753349 -9.08144e-06 0.753317)
(0.753333 -1.30384e-20 -4.06649e-21 0.75335 -2.27656e-05 0.753317)
(0.753333 -6.32185e-21 -3.35686e-21 0.753348 -1.88377e-05 0.753319)
(0.753334 -8.30965e-21 -3.74783e-21 0.753347 -1.26853e-05 0.753319)
(0.753332 -1.67327e-20 -4.54003e-21 0.753352 -1.39974e-05 0.753316)
(0.753336 -1.94038e-20 -5.32744e-21 0.753345 -1.22169e-05 0.753319)
(0.753333 -1.79846e-20 1.21058e-20 0.753327 -5.39135e-06 0.75334)
(0.753336 -5.69832e-21 -4.42909e-21 0.753339 -7.52861e-06 0.753325)
(0.753333 -2.05349e-20 -3.78196e-21 0.753343 -2.76736e-05 0.753324)
(0.753333 -1.01102e-20 -4.67005e-21 0.753344 -3.0191e-05 0.753323)
(0.753334 -1.51041e-21 -4.95892e-21 0.753345 -3.80169e-05 0.753321)
(0.753334 9.8502e-21 -4.75707e-21 0.753348 -4.84677e-05 0.753318)
(0.753334 2.13452e-21 -5.67176e-21 0.753347 -4.2716e-05 0.753319)
(0.753331 -1.4358e-20 -7.00795e-21 0.753351 -1.88189e-05 0.753318)
(0.753338 -2.25366e-20 -8.17448e-21 0.753334 1.37873e-06 0.753328)
(0.753333 -7.46868e-21 1.22386e-20 0.753315 2.6986e-06 0.753352)
(0.753335 1.505e-20 -7.4946e-21 0.75334 5.24124e-06 0.753325)
(0.753333 4.19088e-21 -6.31581e-21 0.753342 3.8e-06 0.753325)
(0.753333 5.01057e-21 -6.0236e-21 0.753338 1.50067e-05 0.753329)
(0.753334 4.81766e-22 -5.86202e-21 0.753336 1.8227e-05 0.75333)
(0.753332 -1.19871e-20 -6.09606e-21 0.753338 7.89086e-06 0.75333)
(0.753336 -2.77909e-20 -7.06624e-21 0.75333 -1.47704e-06 0.753333)
(0.753329 -4.4611e-20 -8.96449e-21 0.753348 -2.41114e-05 0.753323)
(0.753339 -3.87014e-20 -8.29496e-21 0.753317 2.05353e-06 0.753344)
(0.753333 6.22306e-21 -1.54533e-20 0.753302 2.69241e-06 0.753365)
(0.75333 -1.89065e-20 -4.85545e-21 0.753332 -1.68261e-05 0.753337)
(0.753336 -4.00496e-20 -4.08301e-21 0.753322 -1.10342e-05 0.753342)
(0.753333 -4.08727e-20 -5.41042e-21 0.753328 -3.26093e-05 0.753339)
(0.753333 -3.72044e-20 -4.99185e-21 0.753325 -2.45841e-05 0.753342)
(0.753335 -1.49209e-20 -5.11193e-21 0.753319 8.15012e-06 0.753346)
(0.753335 2.1858e-22 -5.07928e-21 0.753315 2.93781e-05 0.75335)
(0.753328 1.09858e-20 -4.48499e-21 0.753325 5.28416e-05 0.753347)
(0.753345 8.75937e-21 -4.38744e-21 0.753283 8.10844e-05 0.753372)
(0.753333 6.45479e-21 6.62384e-22 0.753292 1.5741e-05 0.753375)
(0.75333 3.95931e-20 -8.09567e-22 0.753321 5.45473e-05 0.753349)
(0.753339 6.36211e-20 -1.26954e-21 0.75331 0.000139425 0.753351)
(0.753331 4.62866e-20 1.36543e-21 0.753314 0.00011577 0.753355)
(0.753335 2.62621e-20 3.03453e-21 0.7533 0.000113576 0.753366)
(0.753333 -4.23124e-20 3.1121e-21 0.753296 8.10641e-05 0.753371)
(0.753334 1.85955e-21 1.27112e-20 0.753283 7.27723e-05 0.753383)
(0.753335 5.91031e-20 1.47957e-20 0.753278 6.86639e-05 0.753388)
(0.75333 2.89268e-20 1.47704e-20 0.753283 5.4644e-05 0.753387)
(0.753345 5.17623e-20 1.78148e-20 0.753242 8.57115e-05 0.753413)
(0.753332 -1.00893e-21 1.16104e-20 0.753292 -7.08504e-07 0.753375)
(0.75333 -1.19869e-20 1.58077e-20 0.753295 -7.18062e-06 0.753375)
(0.753342 2.95194e-20 1.40153e-20 0.75328 6.37837e-05 0.753377)
(0.75333 3.22805e-20 1.49941e-20 0.753298 4.34228e-05 0.753372)
(0.753338 5.50679e-20 1.60462e-20 0.75328 8.6725e-05 0.753382)
(0.753327 1.08559e-19 1.92094e-20 0.753291 0.000162514 0.753382)
(0.753338 1.4568e-19 1.91511e-20 0.753266 0.000231652 0.753396)
(0.75334 5.11632e-20 7.14132e-21 0.753291 0.000122179 0.753369)
(0.753332 -6.21076e-21 4.38703e-21 0.753314 3.29086e-05 0.753355)
(0.753333 7.88545e-21 3.79734e-21 0.75332 6.25703e-06 0.753347)
(0.753331 5.0313e-21 4.86158e-21 0.753323 3.0286e-05 0.753347)
(0.753344 3.21094e-20 3.6554e-21 0.7533 8.42071e-05 0.753356)
(0.753336 1.59988e-20 6.79882e-22 0.75332 3.66879e-05 0.753344)
(0.75333 -1.75453e-21 -7.07347e-22 0.753337 -6.01044e-07 0.753333)
(0.753336 7.91451e-22 1.88671e-22 0.753324 -8.40826e-07 0.753339)
(0.75333 9.25659e-22 1.48293e-21 0.753335 7.95696e-06 0.753336)
(0.753334 1.67485e-21 2.70381e-22 0.753329 2.4073e-06 0.753337)
(0.753334 9.03888e-22 1.75222e-21 0.753327 6.39806e-06 0.753339)
(0.753331 1.90965e-21 3.49959e-22 0.753336 3.99554e-06 0.753333)
(0.753336 -1.64652e-21 5.08008e-22 0.753327 1.89944e-07 0.753337)
(0.753332 1.33522e-21 1.52331e-21 0.753331 7.15936e-06 0.753336)
(0.753332 1.5503e-21 3.17542e-22 0.753335 3.79082e-06 0.753333)
(0.753335 -6.14062e-22 2.45744e-22 0.753329 1.20405e-06 0.753336)
(0.753331 1.27245e-21 1.94627e-21 0.753335 6.40207e-06 0.753334)
(0.753334 1.47409e-22 3.47555e-22 0.753331 3.30342e-06 0.753335)
(0.753334 4.44968e-22 2.14106e-21 0.753329 5.50087e-06 0.753336)
(0.753332 3.4462e-22 5.48011e-22 0.753336 4.06726e-06 0.753332)
(0.753335 -1.63959e-21 1.93949e-22 0.753329 2.20321e-06 0.753336)
(0.753331 7.45321e-22 1.77907e-21 0.753336 6.00423e-06 0.753333)
(0.753334 4.99073e-22 4.52076e-22 0.753332 3.73554e-06 0.753334)
(0.753334 -3.96658e-23 1.56408e-21 0.75333 5.31326e-06 0.753336)
(0.753332 1.30943e-21 3.47945e-22 0.753337 4.38203e-06 0.753332)
(0.753335 -8.92392e-22 1.92881e-22 0.753329 2.93564e-06 0.753335)
(0.753333 1.22265e-21 1.77841e-21 0.753333 5.76374e-06 0.753334)
(0.753332 8.18019e-22 3.08249e-22 0.753336 4.41378e-06 0.753332)
(0.753335 -1.2808e-21 2.86255e-22 0.75333 3.1622e-06 0.753335)
(0.753331 -1.71095e-22 1.47965e-21 0.753336 5.54429e-06 0.753333)
(0.753334 2.76087e-22 2.34682e-22 0.753332 4.2089e-06 0.753334)
(0.753334 8.08802e-22 1.61929e-21 0.75333 5.09193e-06 0.753336)
(0.753332 9.07812e-22 4.60461e-22 0.753336 4.67617e-06 0.753332)
(0.753335 -1.52294e-21 1.22283e-22 0.75333 3.35769e-06 0.753335)
(0.753331 8.05298e-22 1.2818e-21 0.753336 5.26969e-06 0.753333)
(0.753334 1.05458e-23 1.98161e-22 0.753332 4.3376e-06 0.753334)
(0.753334 1.63379e-22 1.35967e-21 0.75333 4.72911e-06 0.753336)
(0.753332 4.75995e-22 2.19147e-22 0.753336 4.8636e-06 0.753332)
(0.753335 -7.45095e-22 3.09382e-22 0.75333 3.58299e-06 0.753335)
(0.753333 2.27584e-22 1.07897e-21 0.753333 4.96522e-06 0.753334)
(0.753332 6.46273e-22 1.82535e-22 0.753335 4.82046e-06 0.753332)
(0.753335 -7.99756e-22 3.48382e-22 0.75333 3.64504e-06 0.753335)
(0.753331 -3.43058e-22 8.17909e-22 0.753335 4.69592e-06 0.753333)
(0.753334 2.57972e-22 1.23183e-22 0.753332 4.53702e-06 0.753334)
(0.753334 3.62283e-22 8.99693e-22 0.75333 4.32737e-06 0.753336)
(0.753332 6.07742e-22 1.48102e-22 0.753336 4.99693e-06 0.753332)
(0.753335 -4.97569e-22 -1.18833e-22 0.75333 3.74838e-06 0.753335)
(0.753331 1.41354e-21 1.23315e-21 0.753336 4.41221e-06 0.753333)
(0.753334 -5.86588e-22 3.5367e-22 0.753332 4.60572e-06 0.753334)
(0.753334 -2.52881e-22 1.12427e-21 0.753331 3.96089e-06 0.753336)
(0.753332 7.69313e-22 2.0877e-22 0.753336 5.13125e-06 0.753332)
(0.753335 -7.50101e-22 1.47254e-22 0.75333 3.89043e-06 0.753335)
(0.753333 -2.83626e-22 8.92216e-22 0.753333 4.14487e-06 0.753335)
(0.753332 4.62405e-22 1.41705e-22 0.753335 5.08177e-06 0.753333)
(0.753334 -8.21191e-22 1.06748e-22 0.753331 3.87723e-06 0.753335)
(0.753332 6.0542e-22 7.79602e-22 0.753335 3.78104e-06 0.753333)
(0.753334 7.4392e-22 -4.62204e-23 0.753332 4.70849e-06 0.753334)
(0.753334 1.78352e-22 1.08846e-21 0.753331 3.46069e-06 0.753336)
(0.753332 -1.27105e-22 2.7431e-22 0.753335 5.2325e-06 0.753333)
(0.753335 -1.26087e-21 2.56732e-22 0.75333 3.8666e-06 0.753335)