/*--------------------------------*- C++ -*----------------------------------*\
| =========                 |                                                 |
| \\      /  F ield         | OpenFOAM: The Open Source CFD Toolbox           |
|  \\    /   O peration     | Version:  4.1                                   |
|   \\  /    A nd           | Web:      www.OpenFOAM.org                      |
|    \\/     M anipulation  |                                                 |
\*---------------------------------------------------------------------------*/
FoamFile
{
    version     2.0;
    format      ascii;
    class       volScalarField;
    location    "29";
    object      epsilon;
}
// * * * * * * * * * * * * * * * * * * * * * * * * * * * * * * * * * * * * * //

dimensions      [0 2 -3 0 0 0 0];

internalField   nonuniform List<scalar> 
6785
(
0.0565621
0.299835
0.293464
0.293473
0.293508
0.293441
0.293474
0.293503
0.293435
0.293469
0.293495
0.293422
0.293864
0.49105
0.0801845
0.0817174
0.00691893
0.0001239
0.000115925
0.000110387
0.000104778
9.93825e-05
9.40081e-05
8.85599e-05
8.31059e-05
7.78898e-05
8.47699e-05
0.00145467
0.0149625
0.0115048
0.112955
0.00283882
8.01589e-07
4.82284e-07
2.25656e-06
4.32271e-06
5.90558e-06
7.57344e-06
1.19021e-05
2.42819e-05
8.18786e-05
0.000421271
0.00273627
0.00686365
0.000357952
0.155668
0.00317536
0.000616975
3.5138e-07
5.15376e-07
1.35376e-06
2.50235e-06
4.15495e-06
4.74982e-06
1.05555e-05
1.08202e-05
0.000180564
0.000875685
0.000937495
0.000132065
0.202412
0.0132874
0.000291885
1.10798e-05
9.48611e-07
1.10808e-06
2.18657e-06
5.86006e-06
8.25683e-06
1.2062e-05
1.47285e-05
8.26449e-05
0.000280424
0.000797154
0.000221162
0.253713
0.0108315
0.000213486
6.6385e-06
4.71737e-07
3.74383e-07
1.59848e-06
9.0179e-06
4.63662e-05
0.000133004
0.000393458
0.000451516
0.000336403
0.000575346
0.000659882
0.311484
0.00637484
8.77225e-05
4.50789e-06
1.32841e-06
1.1931e-05
4.69058e-05
0.000396558
0.000952541
0.00108485
0.000680263
0.000627304
0.000438223
0.000514158
0.00142213
0.361912
0.0201736
0.000196791
7.61173e-05
2.08562e-05
0.000134116
0.000573259
0.00261633
0.00478967
0.00281689
0.0017172
0.000803702
0.000950875
0.00168547
0.00132069
0.390564
0.0362155
0.000945613
0.000117583
0.000137616
0.000587896
0.00189719
0.00730425
0.0125482
0.0113022
0.00500294
0.00550109
0.00399183
0.00210609
0.000529988
0.393258
0.0558654
0.00321267
0.000452766
0.000567862
0.00149495
0.00424393
0.00759708
0.0130076
0.0143257
0.010614
0.0066575
0.00640951
0.00692319
0.000315498
0.378593
0.0931512
0.00835342
0.000834314
0.000989598
0.00190125
0.00488826
0.00811319
0.012835
0.0149851
0.0124779
0.00748692
0.00526244
0.0056344
0.000320172
0.358649
0.108939
0.00490527
0.00111162
0.00116868
0.00219894
0.00532818
0.0088594
0.0138231
0.0147711
0.0113959
0.00618612
0.00369672
0.00590167
0.000279596
0.344109
0.134187
0.0194874
0.00271819
0.00209593
0.00240668
0.00466286
0.00732575
0.0113986
0.0131464
0.0117675
0.00731679
0.00398375
0.00477768
0.00037214
0.305533
0.0851436
0.0116234
0.00346195
0.00326562
0.00414436
0.0050443
0.00655459
0.0110986
0.0124801
0.0083047
0.00598587
0.00389269
0.00497718
0.00116766
0.364347
0.0273793
0.00784639
0.00459307
0.00513041
3.83446e-05
0.0592812
0.0331352
0.0242736
0.0223178
0.0303885
0.00303508
0.000538924
0.00578692
0.00112416
0.0346034
0.0187894
0.0302059
0.0293504
0.0286475
0.016296
0.0267075
0.0262731
0.0258781
0.0149254
0.0246412
0.0243453
0.0140972
0.0233335
0.0230921
0.0228384
0.013276
0.0219662
0.0217823
0.0127431
0.0212248
0.0211446
0.0211006
0.0125246
0.0207724
0.0207019
0.0207212
0.0124227
0.0204335
0.0203222
0.0121385
0.0195712
0.0192695
0.0191407
0.0115181
0.0184636
0.0181912
0.0108873
0.0170982
0.0166435
0.0163814
0.0098933
0.0156689
0.0154142
0.0153865
0.00963628
0.0152668
0.015082
0.00937505
0.0143052
0.0138193
0.0135483
0.00847502
0.0126927
0.0122353
0.0119729
0.00767574
0.0112948
0.0109606
0.00710968
0.00989314
0.00942882
0.00917519
0.00617406
0.00830945
0.00801318
0.00546304
0.0072962
0.00706481
0.00702588
0.00477936
0.00754216
0.00775689
0.00804794
0.00515432
0.00868177
0.00892571
0.00536693
0.00909497
0.00924915
0.00976896
0.0113467
0.011798
0.0129783
0.0200438
0.0187285
0.0230455
0.0291145
0.0341294
0.0353558
0.0396027
0.0380833
0.0416286
0.0421743
0.0411154
0.0404059
0.0404844
0.040013
0.0398469
0.0395476
0.0399114
0.0393669
0.0413832
0.043872
0.0409202
0.0431186
0.0478116
0.0484742
0.0500047
0.052333
0.0524543
0.0495612
0.0498968
0.049907
0.0496577
0.0475926
0.0490703
0.0490522
0.0473955
0.0465806
0.0423898
0.043131
0.0430592
0.0440718
0.0445551
0.0415659
0.0414719
0.041111
0.038722
0.0345157
0.0202662
0.0216996
0.0198003
0.0180591
0.0192583
0.0224272
0.0275096
0.0249161
0.036713
0.0317579
0.0327934
0.0436063
0.0367701
0.0405013
0.0517337
0.0555752
0.0688462
0.064458
0.072774
0.0639269
0.0720843
0.0990694
0.129562
0.119612
0.12405
0.14268
0.173084
0.146275
0.217826
0.219979
0.012386
0.00810084
0.00868319
0.0152438
0.0100185
0.0176341
0.0116497
0.0124925
0.0219149
0.0143652
0.0153864
0.0270439
0.0177392
0.0315306
0.0208566
0.0227003
0.0406724
0.0268809
0.047662
0.031785
0.0348389
0.0615168
0.0413458
0.0441503
0.0723703
0.0496234
0.0788129
0.055421
0.0576838
0.0856246
0.0555256
0.0840207
0.0553545
0.0574738
0.0868181
0.0552742
0.0554334
0.0831752
0.0503438
0.0760226
0.0456838
0.0441226
0.0662778
0.0397072
0.0602063
0.0392639
0.0500225
0.0780003
0.0851872
0.0952308
0.140446
0.0735004
0.109805
0.0590911
0.0543105
0.0810894
0.0457605
0.0688037
0.0393437
0.036471
0.054754
0.0312675
0.0284903
0.0338789
0.00246028
0.00104753
0.000595173
0.00059302
0.000951204
0.000583709
0.000954674
0.000585996
0.000579256
0.000949786
0.000583108
0.000576367
0.000944261
0.00057978
0.000927574
0.000576974
0.00126904
0.00128483
0.00133643
0.00148972
0.0016643
0.00183987
0.00209964
0.00225821
0.00244336
0.00265121
0.00293932
0.00311029
0.00329512
0.00350699
0.00372557
0.00395534
0.0041917
0.00451232
0.00517404
0.00634482
0.00796207
0.00973161
0.0113921
0.0113437
0.0113076
0.010762
0.00995773
0.00996369
0.0100739
0.0102125
0.0111265
0.0134618
0.0161493
0.020036
0.0252045
0.0295656
0.0325771
0.0375019
0.0407183
0.0454065
0.0482633
0.0517727
0.0558574
0.0640064
0.0761253
0.0877986
0.0977558
0.108834
0.120019
0.132691
0.138406
0.136849
0.13357
0.125741
0.113826
0.0917315
0.0720739
0.0621941
0.0586423
0.05749
0.0553512
0.0515012
0.0464433
0.0431786
0.0382999
0.0350068
0.030902
0.0265151
0.022677
0.0193716
0.0161114
0.0146044
0.0140144
0.0136261
0.0121201
0.00692994
0.00180392
0.00081376
0.000642665
0.0012071
0.00120815
0.00129512
0.00143424
0.00163727
0.00180668
0.00200659
0.00218599
0.00242569
0.00260907
0.00283386
0.00303868
0.00328391
0.00348775
0.00371043
0.00394161
0.00417083
0.00445128
0.00488739
0.00623112
0.00780152
0.00954991
0.0113895
0.011195
0.011069
0.0107615
0.00980132
0.00962805
0.0100429
0.00987834
0.0105251
0.0132407
0.015601
0.0193557
0.0249092
0.0293907
0.0319786
0.0362957
0.0398542
0.0455519
0.0484505
0.0522255
0.0560423
0.0634858
0.0756817
0.0873297
0.0972189
0.108315
0.119774
0.131876
0.139939
0.138909
0.13891
0.13344
0.124689
0.105813
0.0831054
0.0661866
0.0611304
0.0581414
0.0567631
0.0554823
0.0520011
0.0479221
0.042611
0.0378867
0.032374
0.0269205
0.0224933
0.0194037
0.0157725
0.0143534
0.0140399
0.0136738
0.0119501
0.00663179
0.00171176
0.000803858
0.000647696
0.00125547
0.00125878
0.00137507
0.00152719
0.00168923
0.0017707
0.00213113
0.00229306
0.00234375
0.00259176
0.00298716
0.00317413
0.00321219
0.00344261
0.00367143
0.0039107
0.00413527
0.00438328
0.00513018
0.00621105
0.00769114
0.00925191
0.0114538
0.0114903
0.0113104
0.0107892
0.00990077
0.00980691
0.0100296
0.0101122
0.0106487
0.0130286
0.0147759
0.0183959
0.0246136
0.0292641
0.031069
0.0377355
0.0409877
0.0453781
0.0484132
0.0527507
0.056523
0.0618561
0.0758803
0.0874722
0.0968416
0.108422
0.120729
0.129805
0.141538
0.144122
0.141745
0.136177
0.125198
0.107379
0.0866335
0.069171
0.0616921
0.0584194
0.0564683
0.0550386
0.0530252
0.0488502
0.0428838
0.0377516
0.0314074
0.0271417
0.0219966
0.0184134
0.0152103
0.0142481
0.0141343
0.0136446
0.0116761
0.00603626
0.00154476
0.000783405
0.000659336
0.00121588
0.00124568
0.0013718
0.00152681
0.00171186
0.00194316
0.00214098
0.00234372
0.00259153
0.00281055
0.00302351
0.0032591
0.00351484
0.00374641
0.00399644
0.00425617
0.00449739
0.00472257
0.00504684
0.00612566
0.00728499
0.00997963
0.011504
0.011384
0.0111444
0.0108381
0.00998748
0.00947889
0.00975234
0.00993002
0.0108514
0.0125137
0.0153066
0.0187799
0.0233483
0.0288153
0.0331274
0.0393419
0.0405009
0.0460863
0.0515686
0.0556877
0.0600529
0.0662721
0.0742215
0.0865809
0.0985284
0.108107
0.121545
0.131228
0.140817
0.147106
0.144621
0.140293
0.127052
0.109193
0.0880317
0.0717036
0.0628606
0.0588404
0.0566908
0.0550723
0.0531312
0.0486622
0.0431343
0.0376737
0.0313905
0.0260252
0.0218453
0.0175972
0.0149943
0.0145497
0.0142111
0.0138386
0.011372
0.00535183
0.00139566
0.000771071
0.000671405
0.00128084
0.00131821
0.0014683
0.00164228
0.00183834
0.0020499
0.0022939
0.00250206
0.00272819
0.0029712
0.00322549
0.0034721
0.0037133
0.00396669
0.00423517
0.00451682
0.00477447
0.0049829
0.00532029
0.00599583
0.00758328
0.00980824
0.0116617
0.011743
0.0116979
0.0108979
0.0100616
0.00971306
0.010054
0.0101689
0.0112933
0.013095
0.0158819
0.0195232
0.024646
0.0306116
0.034698
0.0395557
0.0430785
0.0482767
0.0534105
0.0582952
0.0630163
0.0693741
0.079662
0.0920072
0.104773
0.115263
0.122543
0.13307
0.144457
0.149103
0.149006
0.141839
0.128326
0.109504
0.0891712
0.0737232
0.0645274
0.0593987
0.0563503
0.0545642
0.0520442
0.0485511
0.0427978
0.0371439
0.0302911
0.0251361
0.0210119
0.016542
0.0149113
0.0146059
0.0144678
0.0138748
0.011063
0.00466464
0.00126249
0.000746252
0.000684329
0.00134052
0.00138575
0.00156466
0.00175483
0.00197051
0.00220569
0.00245499
0.00267866
0.00293149
0.0031851
0.00344532
0.00370254
0.00396368
0.00423462
0.00452327
0.00483175
0.00512023
0.00533284
0.00561743
0.00634261
0.00720872
0.00927511
0.011998
0.0124366
0.012137
0.0111166
0.0100943
0.00985064
0.00982327
0.0100636
0.0111316
0.0127404
0.0153817
0.0187712
0.023802
0.0304315
0.0344966
0.0391752
0.0447519
0.0503142
0.0558539
0.0609212
0.0661871
0.0732581
0.0833476
0.0963696
0.110087
0.120996
0.130212
0.138479
0.147149
0.152943
0.153281
0.144427
0.129012
0.108743
0.0883157
0.0739733
0.0647072
0.0587731
0.0559897
0.0535037
0.0503256
0.0466962
0.0407153
0.0351112
0.0280199
0.0236755
0.0192141
0.0161798
0.0150199
0.0148647
0.0147423
0.014073
0.0105768
0.00391759
0.00115629
0.000752176
0.000710285
0.00140928
0.00145792
0.0016648
0.00187343
0.00210539
0.0023499
0.00261763
0.0028571
0.00312151
0.00339228
0.00366938
0.00394469
0.00422177
0.00450729
0.004815
0.00515178
0.00548254
0.00570054
0.00593285
0.00667851
0.00766824
0.00967044
0.0119933
0.0132128
0.0124505
0.0114133
0.0102998
0.0100699
0.0101336
0.0104495
0.0118608
0.0134291
0.0163229
0.01985
0.0252391
0.033394
0.0339825
0.0411934
0.046713
0.0522525
0.0580001
0.0634896
0.0691964
0.0767728
0.0877539
0.101314
0.116155
0.128356
0.137573
0.146629
0.155948
0.160474
0.157882
0.146297
0.12964
0.107446
0.0845643
0.074261
0.0633669
0.0595484
0.0546402
0.0517199
0.0481542
0.0443903
0.0390827
0.0327136
0.0270368
0.0222054
0.0186772
0.0161501
0.0156269
0.0154774
0.0153482
0.0140461
0.00992338
0.00332432
0.00108316
0.000765694
0.000733981
0.00148593
0.00153596
0.00177084
0.00199761
0.00224913
0.0025086
0.00279103
0.00304964
0.00333306
0.00361918
0.00391121
0.00420071
0.00449422
0.00479716
0.00512057
0.0054844
0.00587466
0.00612671
0.00627734
0.00703635
0.00793584
0.009295
0.0117666
0.0136181
0.0130216
0.0117078
0.0105318
0.0103289
0.0103876
0.0108528
0.0127014
0.0140503
0.0172099
0.0208014
0.0258638
0.0355199
0.0358628
0.0426892
0.048605
0.0542779
0.0601778
0.0659892
0.0721864
0.0804416
0.0920626
0.106426
0.122333
0.135716
0.145912
0.154593
0.16237
0.166102
0.162492
0.149375
0.129942
0.103222
0.0853446
0.0719656
0.0635618
0.0591333
0.0545475
0.0503646
0.0464516
0.0423855
0.0368053
0.0306399
0.0255347
0.0210173
0.0177746
0.0160202
0.015698
0.0157025
0.0158489
0.0138416
0.00901593
0.0028089
0.00102162
0.000790113
0.000783031
0.00157045
0.0016217
0.00188096
0.00212674
0.00239787
0.00267206
0.00297201
0.00325088
0.0035522
0.00385672
0.00416608
0.004474
0.00478488
0.00510166
0.00543703
0.00581904
0.00628093
0.00660512
0.00666142
0.00741268
0.00833907
0.00972375
0.0116076
0.0133942
0.0133166
0.0119689
0.0107843
0.0106296
0.0106987
0.0113165
0.0138973
0.0147881
0.0183013
0.022105
0.0259635
0.0355791
0.0373348
0.0443433
0.0505185
0.0562458
0.0622799
0.068412
0.0750563
0.0839577
0.096426
0.111714
0.128835
0.143742
0.154806
0.164007
0.172082
0.17487
0.166639
0.151475
0.131558
0.10924
0.0884945
0.074135
0.062798
0.0589501
0.0535342
0.0470637
0.0419275
0.0359706
0.0304138
0.0254468
0.0217844
0.018937
0.0174497
0.0162597
0.0161425
0.0163928
0.0157488
0.0131841
0.008036
0.00241701
0.000992487
0.000834699
0.00082184
0.00166194
0.00171498
0.00199809
0.00226041
0.0025524
0.00284292
0.00316119
0.00346313
0.00378492
0.004108
0.00443555
0.00476179
0.00509087
0.00542202
0.00576295
0.00614198
0.00660528
0.00693353
0.00708905
0.00779965
0.00873558
0.0101434
0.0122768
0.013751
0.0133059
0.0120597
0.011094
0.0110086
0.0110328
0.0118149
0.0149261
0.0156449
0.0195479
0.0239691
0.0271055
0.0358796
0.0388209
0.045993
0.0524155
0.058242
0.0643316
0.0707518
0.0778295
0.0874018
0.100716
0.117068
0.135543
0.152134
0.164489
0.17384
0.180883
0.18284
0.172892
0.153708
0.130733
0.10342
0.0837758
0.0719897
0.0659817
0.0582397
0.054882
0.0470509
0.0430447
0.0358215
0.031381
0.0262777
0.0224576
0.0197069
0.0172276
0.0165791
0.0164283
0.0163933
0.0158126
0.0124328
0.00702371
0.00208061
0.000969387
0.000874209
0.000917484
0.00176048
0.00181487
0.00212137
0.00239951
0.00271166
0.00302021
0.00335856
0.00368594
0.00402938
0.00437315
0.00472037
0.005067
0.00541536
0.00576059
0.00610544
0.00647158
0.00691414
0.007259
0.00740578
0.00821859
0.00911218
0.0104532
0.0125919
0.0136867
0.0134794
0.0121198
0.011437
0.0115193
0.0117236
0.0123038
0.014973
0.0166311
0.0209225
0.0264107
0.0280351
0.035614
0.0404324
0.047643
0.0543256
0.0602296
0.0663402
0.0730037
0.0804817
0.0907034
0.104908
0.122396
0.142407
0.160893
0.174834
0.184947
0.191543
0.192029
0.178823
0.156363
0.130137
0.0961869
0.0809682
0.0750594
0.0644318
0.0587713
0.054899
0.0461144
0.0425329
0.0353852
0.0307548
0.0263861
0.0230099
0.0190874
0.0174406
0.0169913
0.0170677
0.0174427
0.0155232
0.0115452
0.00606407
0.00183961
0.000984981
0.000964674
0.00172276
0.00186659
0.00192333
0.00225175
0.00254382
0.00287553
0.00320368
0.00356334
0.00391937
0.00428659
0.00465218
0.00502039
0.00538857
0.00575753
0.00611816
0.00646715
0.00681857
0.00722912
0.00758362
0.00777923
0.00863573
0.00951205
0.0107558
0.0129937
0.0135978
0.0134731
0.0122321
0.011745
0.0119401
0.012424
0.012899
0.0147333
0.017794
0.0223654
0.0285217
0.0295978
0.0346452
0.0421175
0.0493622
0.0562427
0.0622345
0.0683155
0.0751718
0.0830168
0.093862
0.108967
0.12766
0.149329
0.16993
0.185841
0.196972
0.203281
0.202331
0.185273
0.160479
0.130783
0.0959139
0.0820958
0.0732619
0.0680278
0.0609425
0.0574044
0.0505652
0.0465206
0.0402947
0.0345911
0.0295278
0.0229336
0.0191227
0.0179767
0.0173414
0.0171264
0.0169616
0.0148512
0.0105963
0.00508504
0.00163796
0.00102622
0.00113158
0.00304106
0.00197918
0.00203766
0.00239013
0.00269376
0.0030437
0.00339334
0.00377585
0.00416317
0.00455652
0.00494579
0.00533626
0.00572749
0.00611853
0.00649616
0.00685084
0.00718418
0.00752877
0.00787659
0.00826185
0.00905862
0.00992283
0.0109542
0.0124079
0.0135595
0.0134365
0.012234
0.011697
0.0115513
0.0124169
0.0130024
0.0158168
0.0190992
0.0238122
0.0288656
0.0316617
0.0364284
0.0437153
0.051158
0.0581984
0.0642605
0.070279
0.0772631
0.0854358
0.0968552
0.112849
0.132777
0.156211
0.179107
0.197312
0.209772
0.216025
0.214136
0.192268
0.164834
0.132954
0.0962787
0.0777445
0.0718805
0.0672054
0.0624018
0.0575981
0.0506685
0.0464792
0.0403307
0.0354255
0.0283203
0.0236797
0.019464
0.0183997
0.0177044
0.0172634
0.0166699
0.0142237
0.00973824
0.00436706
0.00155753
0.00110163
0.00141858
0.00481949
0.00210053
0.00216048
0.00253605
0.00285019
0.00321603
0.00358888
0.00399532
0.00441719
0.00483919
0.00525394
0.00566792
0.00608344
0.0064982
0.00689565
0.00726141
0.0075887
0.00790029
0.00824815
0.00870951
0.00951669
0.0103824
0.0113878
0.012676
0.0131851
0.0133976
0.0122394
0.0117262
0.0119774
0.0122343
0.0136723
0.015856
0.0210051
0.0261949
0.0290116
0.0341429
0.0379653
0.0454614
0.0530379
0.0602153
0.0663312
0.0722535
0.0792948
0.0877524
0.0996881
0.116537
0.137696
0.162943
0.188323
0.209149
0.22333
0.229333
0.225915
0.201881
0.169596
0.137127
0.105048
0.0779565
0.0738648
0.0696749
0.0646853
0.0599099
0.0546974
0.0511861
0.0428955
0.037444
0.0279861
0.023239
0.0197206
0.0188522
0.0179997
0.0174294
0.0163508
0.0134314
0.00886928
0.00361785
0.00144558
0.00119251
0.00193928
0.00783454
0.00223003
0.00229096
0.00269116
0.00301357
0.00339287
0.00379084
0.00422192
0.00468082
0.00513449
0.00557676
0.00601548
0.0064564
0.00689654
0.0073169
0.00770002
0.0080343
0.00833596
0.00867371
0.00917766
0.00998113
0.0108313
0.0117717
0.0125309
0.0133725
0.0132245
0.0122807
0.0117497
0.0118036
0.0131502
0.0140615
0.0176981
0.0230956
0.0282741
0.0289015
0.0363061
0.0398663
0.0472774
0.0550323
0.0623244
0.0684744
0.0742707
0.0812918
0.0899849
0.102369
0.12002
0.142385
0.169452
0.197401
0.221156
0.237533
0.243584
0.238792
0.211984
0.175972
0.140163
0.105813
0.079633
0.0731351
0.0704295
0.0674489
0.0617188
0.056271
0.0504607
0.0420621
0.0356473
0.0288839
0.0237851
0.020715
0.0195177
0.0182922
0.0175552
0.0160244
0.0126658
0.00803737
0.00314353
0.00147267
0.00145712
0.00282147
0.0119579
0.00236992
0.00243099
0.00285622
0.00318538
0.00357422
0.00399982
0.00445565
0.00495361
0.00544202
0.00591399
0.00637866
0.00684583
0.00731292
0.0077594
0.00816549
0.00851554
0.00882023
0.00914637
0.00964752
0.0104696
0.0113035
0.0121963
0.0129478
0.0133113
0.0133644
0.0123064
0.0119572
0.0123718
0.0134671
0.0151518
0.0192472
0.0247739
0.0294962
0.0314075
0.0362471
0.0418108
0.0492902
0.0571495
0.0645595
0.0707265
0.0763688
0.08329
0.0921615
0.104918
0.123301
0.146809
0.175653
0.206194
0.233061
0.252043
0.258207
0.251847
0.222896
0.183598
0.14426
0.111644
0.0853876
0.0760729
0.0690927
0.0687985
0.0652946
0.0602355
0.0554773
0.0480477
0.040267
0.0317583
0.0234526
0.0210724
0.0197496
0.0185718
0.0178109
0.0155319
0.011992
0.00729921
0.00279676
0.00148094
0.00157294
0.003811
0.0187271
0.00252049
0.00258191
0.00303408
0.00336784
0.00376025
0.00421688
0.00469718
0.00523487
0.00576117
0.00626516
0.00675702
0.00725106
0.00774655
0.00822287
0.00865864
0.00903204
0.00934391
0.00965349
0.0101361
0.0109634
0.0117841
0.0126355
0.01328
0.0135635
0.0132405
0.012429
0.012359
0.0129424
0.0134087
0.0150078
0.019208
0.0246038
0.0322453
0.0345983
0.0357528
0.0438049
0.0515018
0.059439
0.0669576
0.0731306
0.0785942
0.0853362
0.0943199
0.107367
0.126399
0.15096
0.181484
0.214526
0.24451
0.266114
0.272466
0.26523
0.23503
0.192172
0.148533
0.113264
0.0913454
0.0779731
0.0698567
0.0670818
0.0656791
0.0631765
0.0571836
0.0491424
0.0382566
0.0317768
0.0240219
0.0215552
0.0202507
0.018997
0.0177094
0.0150642
0.0112796
0.00651519
0.00264833
0.00176526
0.00242519
0.00694073
0.0284361
0.00268275
0.00274396
0.00322698
0.00356508
0.00395164
0.0044429
0.00494747
0.00552435
0.00609095
0.00662945
0.00714974
0.00767096
0.0081961
0.00870664
0.00918239
0.00959546
0.00992967
0.0102167
0.0106459
0.0114675
0.0122759
0.0130659
0.0136051
0.0137716
0.0132298
0.0123865
0.0124531
0.0124289
0.0132721
0.0146049
0.0193153
0.024532
0.032945
0.037247
0.0381145
0.045848
0.0539162
0.0619473
0.0695687
0.0757399
0.0810013
0.0874882
0.0965084
0.109759
0.129345
0.154846
0.186901
0.222262
0.255241
0.279458
0.285852
0.277395
0.24703
0.20142
0.153342
0.115177
0.0918167
0.081534
0.0736608
0.0705424
0.0679197
0.062443
0.0568563
0.0489244
0.0415951
0.0317082
0.0245944
0.0230158
0.0207025
0.0192668
0.0174756
0.0145138
0.0104622
0.00583627
0.00238063
0.00155238
0.00219466
0.00815365
0.0566342
0.00285742
0.00291657
0.00343609
0.0037818
0.00415043
0.00467916
0.00520745
0.00582216
0.00643021
0.00700565
0.00755568
0.00810404
0.00865934
0.00920792
0.00973567
0.0102132
0.0106041
0.0108755
0.0111964
0.0119701
0.0127747
0.0135016
0.0139432
0.0139553
0.013243
0.0123239
0.0123156
0.0127058
0.0128685
0.0151119
0.0178504
0.0240092
0.0332468
0.0375318
0.040115
0.0481257
0.0565796
0.0647187
0.0724486
0.0786223
0.0836577
0.0898153
0.098786
0.112151
0.132186
0.158494
0.191885
0.229262
0.264872
0.291427
0.298578
0.287668
0.259165
0.210924
0.15879
0.116181
0.0924344
0.0815096
0.0747564
0.072372
0.0708174
0.066687
0.062205
0.0515129
0.0429662
0.0344195
0.0251191
0.0236148
0.0207757
0.0193395
0.0171549
0.0138462
0.00978008
0.00498688
0.00241486
0.00282945
0.00722668
0.032611
0.26707
0.00304653
0.00309944
0.0036614
0.00402398
0.00435828
0.00492766
0.00547857
0.00612866
0.00677782
0.00739216
0.00797333
0.00854846
0.00913327
0.00972142
0.010311
0.0108825
0.0113972
0.0117101
0.0118515
0.0124665
0.0132917
0.0139244
0.014267
0.0141337
0.0132305
0.0124566
0.0127575
0.0130819
0.013549
0.0153802
0.018498
0.0222653
0.033128
0.0376899
0.0422776
0.0505447
0.0595145
0.0678204
0.0756597
0.0818584
0.0866511
0.0924009
0.101224
0.114609
0.134983
0.161956
0.196457
0.235455
0.273009
0.300344
0.305717
0.295603
0.267713
0.219444
0.16378
0.117681
0.0921127
0.0795731
0.0747182
0.0726554
0.0729346
0.0681125
0.060974
0.0514968
0.0442055
0.035517
0.0260007
0.0236879
0.0208191
0.0193864
0.0167622
0.013258
0.00896458
0.00460679
0.00262232
0.00386706
0.0210194
0.312121
11.579
0.00325358
0.00329643
0.00390522
0.00430223
0.00457742
0.00518826
0.00576342
0.00644451
0.00713285
0.00778714
0.00840086
0.00900223
0.00961468
0.0102402
0.0108926
0.0115755
0.0123102
0.0128274
0.0127868
0.0129402
0.013825
0.0143417
0.0145899
0.0142014
0.0132349
0.0125466
0.012547
0.0134483
0.0146464
0.0163988
0.0197101
0.023767
0.0335145
0.0375449
0.0443612
0.0531625
0.0627343
0.07132
0.0792805
0.0855441
0.0900974
0.0953506
0.103905
0.117217
0.137806
0.165302
0.200678
0.240901
0.279783
0.306315
0.308538
0.293782
0.266876
0.22158
0.16645
0.118612
0.0922408
0.0803821
0.0730511
0.0701491
0.0693848
0.0687685
0.0617375
0.0551751
0.0467516
0.0380515
0.0259787
0.0239973
0.021113
0.0192999
0.0163656
0.0125183
0.00809256
0.00355481
0.00213363
0.00299197
0.108878
2.06403
20.2371
0.00348163
0.00351029
0.00416817
0.00463289
0.00481515
0.00545886
0.00606333
0.00677124
0.00749479
0.00818865
0.00883614
0.00946345
0.0101011
0.0107583
0.0114615
0.0122268
0.0130962
0.0136163
0.0134861
0.0135135
0.0143547
0.0147366
0.0149192
0.0141742
0.0132108
0.0127111
0.0129383
0.0130896
0.0153044
0.0177844
0.0215712
0.024875
0.0337078
0.0367349
0.0465713
0.0559699
0.0662479
0.0752945
0.0834129
0.0897992
0.0941521
0.0988086
0.10693
0.120071
0.140738
0.168617
0.204624
0.245688
0.285401
0.309446
0.307446
0.289318
0.259181
0.211458
0.160205
0.122685
0.0907638
0.079449
0.0730189
0.0714858
0.0701613
0.0682334
0.0633049
0.0544736
0.0438502
0.0359736
0.0267077
0.0246768
0.0215789
0.0190645
0.0157299
0.0118784
0.00728
0.00417592
0.0051687
0.0403241
0.249259
1.68593
0.942204
0.00373703
0.00375361
0.004428
0.00502075
0.00508837
0.00573939
0.00637795
0.00711015
0.00786392
0.00859497
0.00927679
0.00993032
0.0105914
0.0112752
0.0120144
0.0128157
0.0137065
0.0142218
0.0139381
0.0143757
0.0148532
0.015109
0.0151378
0.0141851
0.0131578
0.0127728
0.0132269
0.013772
0.0156508
0.0186171
0.0220715
0.0273306
0.0345308
0.0391351
0.0486065
0.0590322
0.0700586
0.0798109
0.0881942
0.0947882
0.0990345
0.102989
0.110426
0.123286
0.143875
0.171999
0.208396
0.249942
0.29008
0.312079
0.310059
0.28804
0.257858
0.213364
0.16884
0.115576
0.095624
0.0812201
0.0777875
0.0747599
0.0742376
0.0715412
0.0660399
0.0593718
0.0486092
0.0368673
0.0266826
0.0246602
0.0214339
0.0186081
0.0152828
0.0111834
0.00689861
0.00472276
0.00917007
0.039471
0.23829
1.31838
0.409743
0.00401985
0.00407092
0.00451214
0.00526077
0.00540153
0.00603291
0.00670612
0.00746175
0.00824103
0.00900506
0.00972031
0.0104008
0.0110855
0.0117957
0.012572
0.0134114
0.0143298
0.0148325
0.0145763
0.0149335
0.0153992
0.0155008
0.0153498
0.0141151
0.0130494
0.0124797
0.0131304
0.0137415
0.0161264
0.020592
0.024398
0.0303372
0.0399028
0.0418654
0.0507846
0.06233
0.0741984
0.0849108
0.0937846
0.100736
0.105077
0.108239
0.114579
0.127005
0.147323
0.175558
0.212095
0.253735
0.29355
0.313763
0.311034
0.295697
0.256438
0.215093
0.1578
0.116267
0.0938204
0.0824119
0.0815331
0.0769859
0.0768853
0.0727713
0.0661085
0.0595633
0.0505684
0.0370753
0.0278289
0.0247217
0.0213498
0.0177883
0.0143765
0.0107292
0.00666676
0.00461937
0.00832837
0.0581096
0.362345
1.8667
0.377257
0.00429694
0.00421611
0.00455016
0.00520222
0.00572195
0.00634774
0.00704539
0.00782593
0.00862682
0.00941883
0.0101645
0.0108722
0.0115812
0.0123191
0.0131374
0.0140243
0.0149879
0.0155129
0.0152015
0.0155604
0.0159249
0.0159483
0.0154236
0.0141008
0.0129295
0.0124571
0.0130186
0.013179
0.0157173
0.0212957
0.0276675
0.0334172
0.0441979
0.0462397
0.0530185
0.0658975
0.0787029
0.0906144
0.100343
0.107942
0.112797
0.11518
0.119701
0.13141
0.151207
0.179414
0.215838
0.257203
0.29584
0.31392
0.30825
0.298712
0.264988
0.201235
0.150235
0.113079
0.0903933
0.0833385
0.0822893
0.0783542
0.0784137
0.0746819
0.0685223
0.0607723
0.0470697
0.0363374
0.0276617
0.0250201
0.0209144
0.0172791
0.0138488
0.0102772
0.0061452
0.00495189
0.0106524
0.0339744
0.241332
1.44497
0.603872
0.0045942
0.00452716
0.00479925
0.00539395
0.00601305
0.0066814
0.00739703
0.00820134
0.00902169
0.00983691
0.0106083
0.0113416
0.0120749
0.01284
0.013703
0.0146448
0.0156563
0.0161947
0.0158721
0.0161759
0.0164524
0.0163968
0.0153611
0.0141076
0.0128161
0.0124243
0.0129922
0.0133744
0.0165294
0.0216258
0.0289703
0.0358002
0.0452904
0.0520063
0.0559031
0.0696267
0.0836445
0.0969135
0.107969
0.11675
0.122991
0.124991
0.126417
0.136773
0.155674
0.183698
0.219747
0.260511
0.29767
0.312795
0.310605
0.295745
0.26329
0.223651
0.160529
0.114047
0.0877755
0.0835828
0.0826475
0.0790005
0.0791614
0.0754954
0.0686169
0.0619633
0.0515714
0.0386006
0.0296392
0.0256315
0.020514
0.0165376
0.0130587
0.00991748
0.0062036
0.00637906
0.0160872
0.0973053
0.560135
2.1236
0.897323
0.00495691
0.00496005
0.00500996
0.00568574
0.00631549
0.00702196
0.00776117
0.00858719
0.00942551
0.0102603
0.0110522
0.0118076
0.0125639
0.0133525
0.0142553
0.0152518
0.0163103
0.0168537
0.0165212
0.0167903
0.016916
0.0166578
0.015309
0.014024
0.0127303
0.0124603
0.0126908
0.0136198
0.0157462
0.0213314
0.028656
0.0337443
0.0458156
0.057171
0.0598813
0.0735552
0.0890489
0.103794
0.116607
0.127087
0.135854
0.140019
0.136153
0.143585
0.160914
0.188565
0.223975
0.263774
0.298643
0.309163
0.305454
0.301017
0.26956
0.224124
0.159809
0.115339
0.0976625
0.0838809
0.0817887
0.0810126
0.0790112
0.0760851
0.0707795
0.0622494
0.0500577
0.03896
0.0292358
0.0238674
0.0192396
0.0158066
0.0124229
0.00930597
0.00620287
0.00617827
0.012469
0.0746202
0.345859
2.28023
1.12104
0.00533038
0.0052863
0.00532292
0.00593192
0.00662699
0.00737695
0.00813284
0.00898295
0.00983798
0.0106899
0.0114982
0.0122713
0.0130479
0.0138553
0.0147875
0.0158325
0.0169448
0.0175016
0.0171776
0.0174032
0.0173801
0.0169002
0.0152138
0.0139385
0.0127496
0.0127063
0.0130257
0.0134694
0.0166256
0.0205173
0.0291263
0.0359602
0.046532
0.0603405
0.0649481
0.0777803
0.0949694
0.111227
0.126072
0.13817
0.149708
0.156248
0.153122
0.1528
0.167223
0.194192
0.228736
0.267382
0.300155
0.308092
0.305664
0.292462
0.257282
0.21771
0.17147
0.12178
0.098002
0.086994
0.0845631
0.0806954
0.0793476
0.0762052
0.069995
0.0627637
0.0515831
0.0428873
0.0285499
0.0239955
0.0188649
0.0144544
0.0118631
0.00909684
0.00659505
0.0066971
0.0116298
0.064639
0.576682
2.56317
1.21045
0.00574527
0.00565854
0.00578864
0.00617252
0.0069473
0.00773689
0.00851386
0.0093858
0.0102588
0.0111269
0.0119495
0.0127364
0.0135301
0.0143514
0.0152979
0.0163718
0.0175206
0.018094
0.0178169
0.0180012
0.0179081
0.0169406
0.0151946
0.0137806
0.0127504
0.0129604
0.0131465
0.0142397
0.016843
0.022662
0.0288956
0.0356539
0.0435506
0.0650487
0.0709875
0.0824331
0.101528
0.119234
0.136363
0.150527
0.164679
0.172935
0.169548
0.168849
0.174838
0.200834
0.234202
0.271337
0.301783
0.306373
0.300972
0.286751
0.260547
0.216279
0.17183
0.116964
0.0966611
0.0871338
0.0845674
0.0796948
0.0788521
0.0762661
0.0707727
0.0636197
0.0528816
0.0415732
0.0289378
0.0234566
0.0190847
0.0139899
0.0111864
0.00838379
0.00733737
0.00827585
0.0192532
0.093718
0.462986
3.53768
1.21677
0.00621782
0.00599273
0.00613697
0.00643358
0.00725862
0.00810767
0.00889863
0.00979522
0.0106868
0.0115722
0.0124094
0.0132089
0.0140176
0.0148499
0.0157956
0.0168738
0.0180457
0.0186563
0.0186118
0.0184938
0.0181741
0.0170726
0.0151696
0.0137128
0.0123505
0.0124392
0.0133356
0.0152506
0.0183059
0.0246985
0.030735
0.0386876
0.0454574
0.0664427
0.0793555
0.0876443
0.108931
0.127874
0.147436
0.163887
0.180713
0.191092
0.187527
0.183483
0.18704
0.208381
0.240767
0.275975
0.303945
0.306434
0.298664
0.287238
0.265293
0.221972
0.180955
0.115103
0.0976104
0.0870999
0.082599
0.0775722
0.0772088
0.0749384
0.0715151
0.0647854
0.0550992
0.0416171
0.0299004
0.0228517
0.0184521
0.0136337
0.0107525
0.00860886
0.00795261
0.00904944
0.0202958
0.151487
1.07218
6.41855
0.802479
0.00669148
0.00662561
0.00653458
0.00676381
0.00754553
0.00848709
0.00928581
0.0102087
0.0111209
0.012026
0.0128809
0.0136959
0.0145211
0.0153661
0.0162993
0.017341
0.0184614
0.0191459
0.019136
0.0194766
0.0183226
0.0169464
0.0149297
0.0134371
0.0122324
0.0125354
0.013168
0.0154732
0.0195328
0.0237258
0.0308849
0.0380011
0.0471913
0.0674058
0.0857705
0.0939537
0.117551
0.137315
0.159335
0.177802
0.197133
0.211091
0.210746
0.20843
0.208424
0.217094
0.248902
0.281984
0.30778
0.311965
0.304187
0.284895
0.255837
0.222377
0.171575
0.127561
0.0869518
0.0860873
0.0790576
0.0745625
0.0737715
0.0715691