/*--------------------------------*- C++ -*----------------------------------*\
| =========                 |                                                 |
| \\      /  F ield         | OpenFOAM: The Open Source CFD Toolbox           |
|  \\    /   O peration     | Version:  4.1                                   |
|   \\  /    A nd           | Web:      www.OpenFOAM.org                      |
|    \\/     M anipulation  |                                                 |
\*---------------------------------------------------------------------------*/
FoamFile
{
    version     2.0;
    format      ascii;
    class       volScalarField;
    location    "29";
    object      nut;
}
// * * * * * * * * * * * * * * * * * * * * * * * * * * * * * * * * * * * * * //

dimensions      [0 2 -1 0 0 0 0];

internalField   nonuniform List<scalar> 
6785
(
0.270463
1.03673e-08
9.67121e-09
9.67153e-09
9.67285e-09
9.67058e-09
9.67174e-09
9.67303e-09
9.67085e-09
9.6721e-09
9.67332e-09
9.67034e-09
9.6843e-09
4.70535e-08
0.303875
0.305805
9.02104e-06
4.83537e-11
4.51831e-11
4.30657e-11
4.08863e-11
3.87969e-11
3.67154e-11
3.45563e-11
3.23657e-11
3.03049e-11
4.3924e-11
2.51243e-07
0.000342666
0.159087
0.340644
0.000937878
1.34421e-11
3.72166e-12
4.54496e-10
4.07677e-09
1.42473e-08
4.26211e-08
2.39689e-07
2.79879e-06
2.52629e-05
0.000129752
0.000483351
0.00425274
0.0500273
0.379022
0.0145976
5.43847e-06
3.84861e-08
1.05483e-08
6.6953e-08
6.03442e-07
1.64179e-06
6.69475e-06
1.45806e-05
0.000144045
0.0001415
0.000561947
0.00426016
0.0358861
0.413766
0.0102268
8.67757e-05
5.42785e-07
1.43193e-06
1.61676e-05
0.000651736
0.00263614
0.0167742
0.0348573
0.0328839
0.00508951
0.00363822
0.00365022
0.0426167
0.446113
0.0105412
1.13539e-05
0.000135383
0.122515
3.09679
7.09189
5.80294
3.46335
1.4299
0.106509
0.00523663
0.00460231
0.00334172
0.0613413
0.477613
0.0228555
8.03339e-05
0.0142479
1.28884
1.60001
2.73637
1.25495
1.3063
1.08955
0.321618
0.0234249
0.0296344
0.0257734
0.079246
0.5022
0.0502041
0.00121961
0.00213269
0.183491
0.267815
0.371349
0.263111
0.30657
0.515754
0.293698
0.166792
0.0705908
0.0307947
0.0773171
0.515104
0.119846
0.0293524
0.00589913
0.0290619
0.0556432
0.107368
0.0836453
0.0940116
0.104046
0.101034
0.0238227
0.0132511
0.00508924
0.057019
0.516206
0.191004
0.0637287
0.015486
0.0090773
0.0191846
0.0422616
0.0714178
0.0804194
0.0752034
0.043201
0.0189124
0.00642149
0.00233961
0.0479729
0.509801
0.203951
0.0651178
0.03694
0.00966643
0.0142045
0.0338915
0.0639095
0.0803665
0.074761
0.0349078
0.0146273
0.0057744
0.00377858
0.04821
0.500673
0.269273
0.203191
0.0758614
0.0168373
0.013415
0.0302412
0.0586512
0.0752148
0.0767246
0.0326139
0.0131247
0.00584476
0.00336155
0.0460724
0.493737
0.300557
0.101772
0.107741
0.0344205
0.0189758
0.0295154
0.0546704
0.0724827
0.0756734
0.0428597
0.0193433
0.00857907
0.0046165
0.0506874
0.474638
0.353479
0.122684
0.0869994
0.0280421
0.0162752
0.0312298
0.0566456
0.0853904
0.100112
0.0569671
0.0212068
0.00910837
0.00760083
0.0742076
0.50331
1.45695
0.726844
0.511975
0.0482195
5.28106e-27
0.00574992
0.125179
0.429551
0.493037
0.0219271
0.0141214
0.00696742
0.0138545
0.0732611
2.87937
5.07994
2.75183
2.72561
2.70367
4.84449
2.64121
2.62681
2.61358
4.70467
2.57126
2.56093
4.616
2.52494
2.51621
2.50696
4.52456
2.47463
2.4677
4.4632
2.44647
2.44338
2.44169
4.43754
2.42896
2.42621
2.42697
4.42548
2.41568
2.41129
4.39147
2.38121
2.36891
2.36362
4.31534
2.33541
2.32387
4.23507
2.27636
2.256
2.2441
4.10206
2.21108
2.19904
2.19772
4.06622
2.192
2.18312
4.02914
2.14498
2.12041
2.10646
3.89584
2.06115
2.03609
2.02143
3.7693
1.98252
1.96277
3.67427
1.89687
1.86671
1.84982
3.50546
1.78971
1.76818
3.36537
1.71379
1.69548
1.69236
3.21868
1.73283
1.74913
1.77073
3.30074
1.81605
1.8329
3.34552
1.84442
1.85478
1.79573
1.51043
1.3967
1.23314
0.676304
0.714125
0.545747
0.420384
0.354724
0.351089
0.329663
0.343476
0.313179
0.262615
0.270006
0.265775
0.281542
0.309288
0.325011
0.339092
0.333693
0.324775
0.255585
0.241894
0.256052
0.244654
0.220825
0.210946
0.193792
0.178309
0.165789
0.162618
0.147862
0.143293
0.137041
0.136243
0.125284
0.117724
0.116171
0.112431
0.117299
0.109513
0.104566
0.0960087
0.09343
0.0994643
0.0986196
0.0991804
0.100881
0.121282
0.228216
0.225249
0.266176
0.313601
0.312538
0.288559
0.25645
0.311263
0.239641
0.331052
0.343083
0.281026
0.361878
0.362049
0.311232
0.315681
0.282806
0.333551
0.334081
0.456318
0.421722
0.320116
0.253198
0.285225
0.285383
0.250105
0.193396
0.205298
0.135867
0.12303
2.04442
3.37424
3.45309
2.1909
3.62172
2.2999
3.80849
3.89836
2.4727
4.08417
4.17856
2.65225
4.38153
2.79149
4.62448
4.75711
3.03873
5.03286
3.20368
5.32199
5.48702
3.48811
5.80932
5.93806
3.68224
6.17394
3.78841
6.40557
6.49132
3.89456
6.40933
3.87009
6.40274
6.4837
3.91257
6.39991
6.40578
3.85706
6.20341
3.74317
6.00577
5.93682
3.57587
5.73178
3.46316
5.71037
6.19018
3.77535
7.39219
7.6723
4.59298
7.03768
4.23123
6.54396
6.36223
3.82455
6.00913
3.62073
5.714
5.57163
3.35529
5.29295
5.13114
2.85914
2.268
0.89739
1.41317
1.41153
0.868993
1.4041
0.870049
1.40593
1.40046
0.868561
1.40356
1.39819
0.866874
1.40089
0.861737
1.39862
20.0365
21.8124
23.2394
23.2236
23.175
23.4213
23.092
24.4307
26.0318
27.8903
29.4311
32.4833
35.6749
38.7325
41.7702
44.6608
47.1994
48.9338
48.2325
45.2029
42.0274
40.6859
41.0683
48.6629
56.3373
66.2924
78.4058
84.5088
89.5984
95.0578
94.4166
85.6853
80.798
75.7043
71.1308
72.7521
79.7305
84.2675
93.9163
100.156
108.669
112.052
109.424
96.0626
79.1681
67.5526
60.9178
54.2339
45.6263
35.6886
28.5875
23.9526
20.278
17.7955
16.3017
16.9709
18.5446
19.0999
18.7884
18.5995
19.5767
21.9915
25.816
29.303
34.2784
37.6885
41.3684
44.517
45.0627
42.242
37.5131
28.6009
19.632
12.8694
8.68538
7.6343
8.21413
3.32841
1.90414
21.9677
24.2316
25.1028
25.2761
24.6827
24.9554
25.2188
26.2721
27.2464
29.4082
31.65
34.4291
37.0434
40.3081
43.4443
46.4957
49.2194
51.4038
52.7921
47.4606
44.1245
42.6302
42.2155
50.7666
59.4121
68.5634
82.4623
90.5246
92.8267
101.211
102.44
89.062
85.3571
79.9612
73.4058
74.6802
82.8875
89.0034
98.3135
102.653
111.784
115.289
113.79
101.462
83.6132
71.138
63.6237
56.1158
46.8659
36.6734
28.7023
23.7854
19.5375
16.7333
14.8081
14.5973
15.8949
17.6284
17.5309
17.6085
17.8764
18.6356
20.4923
22.816
25.9614
28.7717
32.1124
35.2637
36.3799
33.9855
31.4869
24.6157
17.1169
11.4228
7.76097
6.61387
6.87053
2.93023
1.90675
22.2905
24.6563
25.1702
25.3383
25.577
27.2288
25.369
26.7208
30.0343
31.5148
31.9235
34.9828
40.1334
43.2349
46.4707
49.6039
52.5596
55.2278
53.0318
50.0029
46.8536
45.989
43.8428
51.6417
60.7853
71.4623
85.2712
92.8543
97.0507
103.059
105.431
94.1912
93.8434
87.7139
77.5015
78.347
89.1806
89.6632
100.339
108.514
118.254
121.21
120.363
111.388
89.0481
75.2362
66.7906
57.9046
47.571
37.7237
28.3462
22.5827
18.6513
15.8458
14.1823
13.7768
14.5558
16.0521
16.4629
16.4767
16.6501
17.0565
17.8424
19.4563
22.0229
24.3094
27.5755
28.9589
30.8337
29.9751
27.8742
21.7168
15.2342
10.3304
7.00906
6.02933
6.11816
2.71304
1.90792
24.3634
26.5024
26.9629
27.1712
27.1152
26.6804
27.1567
28.105
29.1583
31.1941
33.8164
36.4612
39.1719
42.3621
45.4734
48.4917
51.4405
54.5431
57.135
53.4924
51.9891
44.699
45.761
54.569
64.5713
74.3777
88.3445
100.449
104.378
109.639
108.087
102.559
94.9097
90.1573
85.8099
83.7106
88.0824
90.749
107.352
113.275
118.095
122.674
121.656
112.102
98.1785
81.4757
69.4824
60.5591
48.6703
37.9854
28.6015
21.8961
17.8889
14.939
13.5085
13.0419
13.7057
14.6755
15.1232
15.0962
15.0658
15.2264
15.6466
16.9422
18.7736
20.7139
23.3412
25.5217
26.3659
26.9605
24.7527
18.9994
13.7316
9.20677
6.30923
5.61088
5.50799
2.5708
1.90152
24.4499
26.6157
26.9123
27.0847
27.1394
27.2153
27.2896
28.3552
29.8177
31.754
34.0809
36.7218
39.6933
42.7506
45.7889
48.6996
51.6571
55.0797
57.534
57.721
52.5433
47.711
47.343
55.3413
64.3062
77.2956
91.6084
102.443
105.827
111.838
108.533
102.586
95.9223
91.0641
85.4394
82.981
88.6699
95.3534
106.815
114.717
121.322
125.196
124.485
115.506
98.7647
82.372
69.4263
59.5247
49.959
38.2727
28.0509
21.3895
16.9711
14.3218
12.8967
12.5034
12.9552
13.5692
13.8557
13.8773
13.8575
13.8418
14.1777
14.896
16.4369
18.1318
20.8122
22.7662
23.7628
25.1572
22.1782
17.1074
12.2701
8.26404
5.62604
5.27528
5.02183
2.53871
1.91981
24.6683
26.8761
26.9641
27.1725
27.2155
27.2207
27.4591
28.5375
29.9022
31.9017
34.3143
36.979
39.8455
42.828
45.7865
48.5681
51.3881
54.8452
57.88
57.6448
58.1569
52.904
48.1709
54.5788
64.7164
79.104
95.2967
105.441
113.094
117.977
115.021
110.333
103.822
99.3697
92.8913
87.8006
93.9782
101.65
108.743
116.656
123.27
127.761
127.019
117.808
101.893
84.6252
70.4528
59.7043
48.8943
37.7488
27.8123
20.698
16.1373
13.6219
12.3554
12.0908
12.5204
12.8694
13.0277
13.0652
12.8197
12.8122
13.1645
13.8085
15.287
16.8808
19.7623
21.2696
23.0144
23.0193
19.9334
15.3457
10.9837
7.30049
5.06054
5.14268
4.62439
2.47335
1.93397
24.7454
27.0764
27.031
27.2708
27.3744
27.4942
27.7309
28.8273
30.263
32.2644
34.6603
37.298
40.1333
43.0932
46.0025
48.6624
51.229
54.669
58.2128
57.88
57.5242
53.1922
50.384
53.6036
65.7926
80.3978
97.3887
107.555
114.362
118.544
112.715
109.486
102.501
98.4865
91.8613
84.0096
100.408
101.942
110.041
118.872
125.898
130.436
129.86
120.775
104.288
86.6125
71.3377
59.4814
48.3547
36.7806
26.639
19.6599
15.3592
13.0304
11.836
11.7444
12.5261
12.2405
12.6232
12.1267
12.2237
12.2009
12.5489
13.165
14.3451
16.2548
18.3558
20.3712
21.3779
20.9823
17.5605
13.5473
9.62975
6.51978
4.60559
4.98412
4.27891
2.44841
1.98527
24.7251
27.1976
27.0751
27.3858
27.532
27.7111
28.0028
29.0955
30.5406
32.5722
34.9889
37.6524
40.4774
43.4054
46.3075
48.866
51.0281
54.1763
58.4289
58.1107
58.5194
58.0319
53.6508
54.237
65.5337
81.7163
99.2377
109.254
116.269
119.004
109.843
109.394
101.776
98.4005
93.8885
82.79
100.002
103.586
111.54
120.887
128.422
133.177
132.651
123.468
106.878
88.6506
72.4588
59.6502
47.8605
36.1975
26.135
19.0398
14.6921
12.3918
11.3707
11.7272
11.89
12.0829
11.9967
11.5743
11.522
11.6982
12.0648
12.6959
13.9537
15.848
17.7337
19.6694
20.6079
19.4952
16.1609
12.3197
8.49821
5.86019
4.3048
4.89327
4.04793
2.44872
2.01851
24.6306
27.2222
27.1224
27.5213
27.7364
27.9868
28.3107
29.3999
30.8721
32.9125
35.3328
37.9957
40.8169
43.7546
46.6836
49.2212
50.9154
53.4927
58.4455
58.3376
58.6572
58.1564
56.7847
57.4626
66.663
83.1956
100.869
110.495
117.533
118.906
104.7
108.569
100.11
96.8698
97.8757
86.5292
100.826
104.851
113.002
122.996
131.035
135.956
135.519
126.282
109.388
90.6542
73.6218
59.8653
47.5624
35.6129
25.3684
18.2595
14.1878
11.9105
10.8326
10.6336
10.9865
11.2356
11.6174
11.0743
11.149
11.8222
12.559
13.971
15.7003
17.6952
19.2604
20.2381
19.494
17.8671
14.6113
10.9034
7.76881
5.4146
4.08958
4.77799
3.83
2.445
2.12796
24.4968
27.1769
27.1292
27.6767
27.9733
28.2908
28.649
29.7213
31.205
33.2604
35.6825
38.3548
41.1777
44.1266
47.1326
49.817
51.6172
54.2063
58.2608
58.6168
58.9669
58.4528
56.0485
58.2556
69.3082
85.7867
101.931
110.908
118.541
118.561
101.591
107.1
97.9361
93.3785
98.0497
89.7561
101.648
106.125
114.5
124.987
133.648
138.744
138.358
129.009
111.875
92.6309
74.8314
60.2172
47.3714
35.2723
25.0167
17.7803
13.6459
11.5047
10.5485
10.7929
11.1246
11.0908
10.6021
10.7392
10.3983
11.2679
11.6152
13.2555
14.3237
16.0913
17.5167
18.2269
18.5018
16.4033
13.3957
10.0726
7.00014
5.02466
3.96296
4.74268
3.72111
2.55038
2.40894
24.3407
27.0987
27.1137
27.8356
28.2478
28.6308
29.0169
30.0666
31.5588
33.6193
36.0368
38.7088
41.534
44.5009
47.5883
50.4779
52.5321
55.0276
59.1126
58.788
59.5176
59.4785
57.0342
60.9143
70.996
88.5415
102.656
110.042
115.906
118.419
105.45
105.037
95.5004
88.4979
99.0907
94.5467
102.194
107.388
115.956
126.928
136.218
141.51
141.153
131.67
114.269
94.5581
76.0333
60.6437
47.2994
34.9916
24.6785
17.3972
13.2875
11.1695
10.307
11.1823
11.0479
10.2054
10.4265
10.2289
9.98887
11.031
11.2548
12.8019
13.8997
15.2061
16.1899
17.789
17.2442
15.0566
12.0548
8.73362
6.42238
4.71481
3.90229
4.68304
3.6202
2.75302
2.44526
24.1732
26.9792
27.0783
27.9987
28.5535
29.0051
29.419
30.4376
31.9302
33.9931
36.4024
39.0708
41.8947
44.8726
48.0291
51.1123
53.4769
55.9249
59.595
59.0874
59.9997
60.5682
57.7087
63.7854
73.6063
90.8481
103.632
110.086
113.517
117.382
111.484
102.238
93.1224
85.4813
98.041
101.572
102.632
108.497
117.374
128.75
138.702
144.208
143.844
134.188
116.511
96.3616
77.1881
61.1047
47.3027
34.8317
24.4724
17.1348
13.0541
10.8516
10.048
10.856
10.4847
10.0452
9.4957
9.50026
9.20966
9.69711
9.91253
10.8035
11.8453
12.9916
15.4933
16.8911
15.8658
13.9285
11.2416
8.26824
6.01976
4.46507
3.98604
4.71507
3.59494
2.97315
2.41273
24.0262
26.8787
27.0317
28.1632
28.8855
29.4079
29.8483
30.8324
32.3188
34.3786
36.779
39.4375
42.2534
45.2322
48.4354
51.7093
54.5972
57.1091
59.3714
59.4503
60.4927
62.2686
63.0972
66.471
76.4013
93.9429
107.718
117.851
117.764
120.897
107.923
99.0758
91.0403
87.9947
95.6427
100.891
103.366
109.461
118.685
130.44
141.035
146.792
146.379
136.523
118.557
98.0015
78.2452
61.5623
47.3718
34.7863
24.3983
16.9674
12.9536
10.6556
9.77664
10.542
10.7
9.86142
9.25771
8.95095
8.8697
9.3624
9.60524
10.4329
11.1546
13.0304
14.3947
15.8694
14.7661
12.9126
10.4377
7.72472
5.61455
4.22219
4.02149
4.58471
3.62291
3.10195
2.3824
23.8923
26.7788
26.9971
28.3264
29.2374
29.835
30.3042
31.2447
32.7209
34.778
37.1708
39.815
42.613
45.5738
48.7758
52.1267
55.2577
57.7749
59.5305
59.687
60.7883
62.6854
64.4259
71.0014
79.2554
96.9933
111.079
117.581
123.791
119.242
111.763
93.5897
86.0219
91.0924
92.4492
101.032
103.838
110.293
119.852
131.949
143.16
149.202
148.696
138.609
120.338
99.4088
79.1508
61.9523
47.4526
34.8097
24.4812
17.0116
12.8584
10.5819
9.48834
9.50835
10.3842
9.28746
8.62895
8.35252
8.26172
8.41634
8.47578
9.5216
10.2239
12.7453
14.1401
15.0468
13.7758
12.0432
9.67022
7.21058
5.29587
4.03846
4.27184
4.72628
3.77042
3.0243
2.21313
23.7987
26.7095
26.9741
28.4899
29.5992
30.2745
30.7788
31.6734
33.1352
35.1911
37.5788
40.2052
42.9743
45.8959
49.0476
52.3665
55.5473
58.1274
59.6469
59.9773
61.249
63.4692
67.9094
72.6347
83.0279
99.7715
114.466
123.295
119.157
120.113
103.836
88.3245
82.7312
95.0214
90.5046
100.331
104.252
110.955
120.832
133.233
145.012
151.375
150.733
140.385
121.783
100.508
79.8326
62.2262
47.4995
34.8572
24.641
17.1608
12.9153
10.5667
9.42174
9.40252
9.9879
9.1452
8.29661
7.78677
7.80818
7.98145
8.39042
9.46713
10.4545
11.9954
13.3815
13.8216
12.7563
11.2508
8.97136
6.71749
4.99418
3.90277
4.41171
4.60098
3.59415
2.77579
2.0393
23.7383
26.6707
26.9773
28.6539
29.9633
30.7137
31.2653
32.1167
33.5628
35.6189
38.0049
40.6114
43.3405
46.2016
49.2624
52.48
55.6039
58.238
59.8306
60.1964
61.6521
64.1194
68.462
75.6533
84.9282
102.722
116.034
121.436
120.259
115.346
98.8975
85.3489
82.2366
90.7797
94.2484
99.6821
104.352
111.464
121.588
134.246
146.531
153.24
152.422
141.782
122.827
101.233
80.225
62.3216
47.4701
34.9019
24.8848
17.4549
13.0942
10.642
9.4339
9.00463
9.26395
8.65523
8.28373
7.46771
7.2261
7.31249
7.48372
8.12036
9.05336
10.6492
13.2083
13.1574
12.1195
10.5286
8.25056
6.31205
4.69079
3.795
4.55351
4.70259
3.98006
2.73424
1.77104
23.7205
26.67
27.0037
28.83
30.3355
31.139
31.7523
32.5737
34.0049
36.0622
38.4494
41.0354
43.7139
46.4901
49.4173
52.4802
55.5081
58.2067
59.9586
60.4366
62.0518
64.7324
69.5267
76.9792
88.5776
104.886
115.7
119.725
124.711
120.364
102.528
88.9897
77.9487
85.51
99.2766
99.0872
104.183
111.763
122.089
134.944
147.658
154.723
153.698
142.734
123.4
101.514
80.2628
62.1854
47.3295
34.9531
25.2129
17.8412
13.3536
10.8249
9.59217
9.11283
8.73757
8.41486
8.10577
7.55469
7.08607
6.88465
7.16431
7.82175
9.37092
10.4404
12.6023
12.5012
11.3909
9.78153
7.72892
5.91593
4.44335
3.79808
4.53275
4.19789
3.15788
2.03046
1.82022
23.7383
26.7135
27.0447
29
30.7267
31.5315
32.2261
33.0412
34.4637
36.5224
38.9131
41.4788
44.0974
46.7617
49.4977
52.3129
55.1492
57.9215
60.0099
60.6479
62.4055
65.3793
70.6215
78.5643
91.5286
108.43
118.245
128.476
129.96
127.696
105.364
92.3353
79.0169
82.4091
96.7645
98.5767
103.785
111.811
122.294
135.285
148.338
155.751
154.499
143.182
123.447
101.294
79.8859
61.7604
47.0215
34.9436
25.5861
18.3678
13.7404
11.1187
9.87486
9.35614
8.91377
8.13421
7.69586
7.15318
6.80954
6.92163
7.15248
7.78756
8.52617
10.3195
12.0871
11.4217
10.7562
9.16151
7.28055
5.57534
4.28581
3.84406
4.89295
5.26554
4.44692
2.67705
3.20016
23.7952
26.8031
27.0854
29.1252
31.1178
31.8629
32.6762
33.514
34.9417
37.0016
39.397
41.9432
44.4959
47.0258
49.512
51.9606
54.4303
57.2083
59.8805
60.877
62.7072
65.9679
71.601
80.2336
94.3039
112.179
123.031
129.408
138.124
127.282
117.689
97.5265
81.072
84.8585
95.571
97.8009
103.134
111.576
122.17
135.217
148.517
156.256
154.771
143.076
122.922
100.524
79.0458
61.0043
46.518
34.8497
25.8932
19.009
14.1931
11.5209
10.2677
9.84235
9.23537
8.35707
7.7
7.02807
6.55771
6.50104
6.54332
7.3865
8.22066
9.43341
11.6786
10.8966
10.358
8.66238
6.87995
5.3066
4.12882
4.15519
4.84312
3.35996
1.96154
1.68844
9.19619
23.8847
26.9392
27.1252
29.1853
31.5012
32.1447
33.097
33.987
35.4413
37.5026
39.9016
42.4292
44.9153
47.3002
49.4968
51.4627
53.2825
55.7652
59.269
61.1395
62.9165
66.5888
72.599
81.8756
97.2507
114.148
122.125
129.321
135.073
128.852
117.108
108.629
84.23
87.6902
94.302
97.0062
102.252
110.992
121.687
134.692
148.131
156.176
154.474
142.383
121.801
99.1733
77.7051
59.8776
45.802
34.7669
26.4644
19.7172
14.8581
12.0599
10.8212
10.4575
9.82679
8.93852
7.94236
7.15
6.46628
6.4498
6.742
7.43895
8.01705
9.12763
11.1877
10.6603
9.99424
8.18715
6.51996
5.0396
4.09531
4.25094
4.66476
3.05543
1.098
0.435142
0.652478
23.9859
27.0984
27.1612
29.1196
31.8766
32.4146
33.4716
34.4548
35.9629
38.0277
40.4271
42.9364
45.3593
47.6055
49.5169
50.9627
51.8071
53.3388
57.4571
61.5107
63.0548
67.1969
73.5424
84.1075
100.065
116.471
127.593
129.336
128.543
124.386
113.212
105.049
86.1796
91.3559
93.4993
96.1291
101.179
110.026
120.81
133.661
147.106
155.446
153.583
141.087
120.085
97.2371
75.8431
58.3339
44.7873
34.5868
27.0967
20.9274
16.0147
12.9939
11.6321
11.2843
10.5557
9.38736
8.50768
7.67326
6.9902
6.54864
6.79335
7.05331
7.66143
8.55591
11.1443
10.34
9.51746
7.77379
6.17543
4.86991
4.17778
5.35037
6.26481
5.16331
0.340308
0.111017
0.210206
24.0898
27.2726
27.2003
28.8342
32.2066
32.7003
33.8064
34.9148
36.5048
38.5776
40.9733
43.4624
45.8258
47.9522
49.6371
50.7228
51.0467
52.5548
56.8798
61.4176
63.1884
67.8637
74.3947
86.8777
103.092
118.068
127.054
136.514
126.443
117.938
106.439
103.549
88.6781
96.9048
92.6865
95.1977
99.9504
108.672
119.497
132.078
145.352
153.985
152.087
139.196
117.804
94.74
73.4712
56.3569
43.4109
34.2292
27.6834
22.1131
17.5322
14.7259
13.2005
11.9337
11.6646
10.2179
9.05302
7.92484
7.22016
6.84567
6.82888
7.31888
8.31242
9.13335
10.8158
9.88048
8.97191
7.4177
5.93909
4.7095
4.34695
4.56077
2.94367
0.512968
0.222986
0.180282
1.54913
24.178
27.3871
27.3922
28.3594
32.3938
33.0087
34.1252
35.3725
37.0616
39.1506
41.5387
44.0022
46.3053
48.3246
49.8445
50.7704
51.0295
52.5341
57.3583
60.0932
63.4269
68.5831
75.7398
89.4007
106.359
120.592
127.528
133.191
126.976
115.737
106.92
97.1795
89.5701
94.4036
92.4289
94.1215
98.6368
106.959
117.689
129.876
142.751
151.666
149.982
136.74
115.017
91.7391
70.6314
53.9587
41.6463
33.4019
27.4813
22.738
18.4689
15.6167
13.6044
13.8586
12.1052
10.8572
9.14563
8.07921
7.21977
6.84795
6.81142
6.9319
7.67175
9.02039
10.8054
9.69431
8.67305
7.14277
5.6566
4.62852
4.3783
4.16989
1.95383
0.705302
0.331076
0.288569
1.76449
24.2711
27.167
28.7827
28.8259
32.4181
33.3096
34.4488
35.8291
37.6228
39.7409
42.1212
44.5513
46.7846
48.686
50.0316
50.7933
50.9687
52.4993
57.0651
60.1104
63.4273
69.1557
77.06
92.4328
110.118
126.596
131.734
136.916
126.438
107.391
99.3231
90.2347
80.1879
91.5847
92.0929
92.9929
97.2551
104.962
115.348
126.973
139.126
148.264
147.236
133.767
111.813
88.3259
67.4032
51.2006
39.5727
32.164
26.9349
22.2566
19.1233
16.3287
15.6381
14.9849
13.4848
11.6713
9.4557
8.43244
7.43543
7.1122
7.12226
7.16608
7.5655
9.08144
10.3193
9.44511
8.32584
7.0085
5.57994
4.51386
4.42162
4.55048
2.60008
0.642566
0.298999
0.26022
1.51896
24.5616
28.2592
30.5695
31.0266
32.4764
33.5554
34.8012
36.2862
38.1812
40.3404
42.7174
45.1073
47.2589
49.0268
50.1751
50.7449
50.7856
52.2264
56.8508
59.846
63.4772
69.4362
79.0263
95.1066
114.041
130.006
136.15
146.305
132.979
106.475
89.8883
84.4033
74.8763
86.0511
91.8577
91.8084
95.8179
102.78
112.491
123.283
134.225
143.367
143.73
130.329
108.307
84.6215
63.8952
48.1636
37.2508
30.6142
26.2225
21.6958
18.6742
18.0536
17.3682
16.5658
15.198
12.5691
10.1746
8.94391
7.81675
7.35544
7.2179
7.2951
8.3343
9.35655
10.2946
9.06763
8.09134
6.76003
5.40214
4.47077
4.79702
4.66795
2.50353
1.46555
0.607558
0.459227
0.960838
24.8818
28.3817
31.0481
31.8356
32.7499
33.7639
35.1603
36.7457
38.7316
40.9397
43.3204
45.6673
47.7279
49.3548
50.2954
50.6555
50.5646
51.9546
56.4875
59.6216
63.5205
69.6844
81.6738
97.6312
117.977
133.534
139.702
147.626
129.49
107.399
88.0416
81.1326
75.5424
79.3825
90.7458
90.7494
94.2957
100.53
109.232
118.787
127.749
136.252
139.104
126.443
104.626
80.771
60.2419
44.9511
34.6856
28.7926
24.6348
21.127
18.5499
16.441
16.8466
17.3632
16.7796
13.538
10.9579
9.56337
8.30313
7.72213
7.5689
7.41378
7.76794
8.84396
9.46573
8.5482
7.82281
6.62147
5.38255
4.46883
4.87496
4.09285
2.06938
0.680069
0.356109
0.482137
0.711813
24.9984
27.9587
31.8544
32.0978
32.9986
34.0008
35.5216
37.2123
39.2762
41.5289
43.9183
46.2228
48.1884
49.6794
50.43
50.5903
50.378
51.7449
56.199
59.3964
63.7999
70.6916
84.2695
100.792
121.718
136.314
146.343
148.317
139.069
111.414
91.2088
88.5935
77.1628
74.8996
88.2641
89.7711
92.7212
98.3069
105.835
113.95
120.325
125.818
132.453
122.011
100.896
76.928
56.5854
41.6944
32.0437
26.8951
23.2768
19.5876
17.472
16.2146
17.1378
17.7666
15.8721
14.3576
11.8526
9.98486
8.86838
8.09216
7.66017
7.59568
8.11013
8.72725
9.38139
8.8119
7.88834
6.51104
5.37041
4.68202
5.13222
4.88581
3.36704
1.17948
0.799103
0.782005
0.635494
25.206
28.3143
32.0809
32.6532
33.2371
34.233
35.9161
37.6915
39.8137
42.0972
44.4936
46.7556
48.627
49.9928
50.5896
50.5786
50.2307
51.5479
55.8559
59.1559
64.0459
71.7339
87.116
104.001
124.467
136.757
145.77
153.299
134.624
118.412
91.947
85.5518
78.4765
73.5896
84.7957
88.7696
91.0949
96.1915
102.601
109.686
113.936
117.069
121.313
116.695
97.2039
73.2471
53.0624
38.4912
29.3075
24.5955
21.2423
18.6301
17.2415
16.09
15.7725
16.9935
16.2722
14.4276
12.0374
10.558
9.27167
8.42172
7.98431
7.66897
7.89321
7.81926
9.31479
8.3685
7.6019
6.72772
5.40732
4.80759
5.2097
5.31517
4.58692
1.81024
0.661377
1.09216
0.622465
25.3514
28.534
31.5242
33.2597
33.4697
34.5027
36.333
38.1902
40.3409
42.6342
45.026
47.2397
49.0198
50.2731
50.7682
50.6552
50.2264
51.4896
55.5465
58.9411
64.0302
73.6032
89.5394
107.807
127.384
137.067
147.526
148.06
135.688
109.495
94.945
88.7712
86.5997
70.7831
80.8462
87.6256
89.3538
94.1983
99.5894
105.615
108.436
110.299
113.462
108.158
93.6912
69.8568
49.8188
35.4992
26.6675
22.3134
19.4037
17.2176
15.6702
15.2214
15.1369
17.402
16.5448
14.6588
12.3601
11.0261
9.62131
8.62524
8.0191
7.60058
7.62798
7.87374
8.84227
8.14254
7.11068
6.62
5.59858
5.3522
5.17325
5.15348
3.53317
1.64561
1.08721
0.826637
0.587543
25.3796
29.0359
31.7325
33.7886
33.7929
34.7829
36.7871
38.7048
40.8592
43.1303
45.4962
47.6459
49.3318
50.4813
50.9267
50.7933
50.3265
51.4911
54.7873
59.0459
64.9084
75.047
92.0004
110.966
134.512
145.884
148.404
140.993
127.335
102.546
91.3698
84.1276
85.6856
71.8705
75.3706
86.2519
87.3898
92.3029
96.8651
102.011
103.812
104.588
106.9
102.722
89.027
66.9993
46.9445
32.8156
24.2158
20.0029
17.3776
15.3095
13.8646
13.6008
13.4634
16.9279
15.9971
14.5476
12.69
11.4296
9.93049
8.83673
7.93417
7.39006
7.16378
7.60243
8.18235
7.93689
6.98802
6.53925
5.78745
5.46822
5.38448
5.71328
4.26837
1.31811
0.584361
0.348398
0.809271
25.531
28.267
31.7598
34.0072
34.2788
35.0836
37.2756
39.239
41.3649
43.5794
45.8887
47.9469
49.5213
50.5639
51.0022
50.9766
50.6792
51.658
54.8508
57.6558
66.1829
77.6348
95.8273
115.919
138.827
147.767
153.209
141.546
121.545
108.85
93.0083
88.0285
85.2276
73.4865
72.6748
84.2228
85.0169
90.4127
94.409
99.1239
100.338
99.7065
99.8063
94.151
82.0795
64.7587
44.51
30.488
21.9838
17.6007
15.0511
13.5643
12.7146
12.1745
12.9737
14.248
17.0924
14.2534
13.0089
11.7688
10.3072
9.15687
8.21273
7.48063
6.83555
7.2008
8.18983
7.95941
7.22551
6.55203
6.17562
5.50647
5.43408
5.55617
4.1403
2.0215
1.03947
0.483508
1.11141
25.8028
28.8449
31.2286
33.5016
34.9688
35.4148
37.8044
39.7879
41.8582
43.9788
46.1941
48.1231
49.5517
50.4577
50.8739
51.009
51.0863
52.0415
54.1518
57.5557
66.8626
80.4363
98.6574
121.504
144.487
156.058
159.647
144.366
121.895
100.51
89.0941
84.5546
85.8112
78.136
78.0249
81.2928
81.7603
88.3826
91.9998
96.8365
98.6032
96.7522
93.1303
90.6721
77.7689
62.1994
42.6873
28.5346
20.1776
15.8215
13.4607
12.0565
10.8111
10.9208
10.3295
11.41
15.4616
15.6763
13.4234
12.0992
10.5477
9.45654
8.46574
7.44922
6.56543
6.40802
7.20305
7.69974
7.24383
6.96409
6.25394
5.63027
5.74795
6.09189
5.09815
3.16273
1.50957
1.517
2.36522
26.2722
28.5899
31.4012
33.3513
35.5378
35.8737
38.3545
40.3529
42.3399
44.3294
46.4103
48.1703
49.4116
50.13
50.447
50.6525
50.9673
51.7915
53.8755
57.7846
68.4873
84.3527
103.899
126.929
149.083
159.482
159.479
147.148
124.567
105.939
83.7289
78.1552
83.7513
85.116
76.3794
80.1871
76.4713
86.066
89.3593
94.627
97.6447
95.8908
90.0872
83.7572
75.8248
58.0747
41.6291
26.9787
18.5656
13.9863
11.6711
10.523
9.32887
8.96194
9.16123
9.20693
10.9718
14.3486
12.9666
11.9676
11.0732
9.82579
8.69229
7.53068
6.52528
6.23344
7.60082
7.40377
6.69523
7.00934
6.29013
5.8594
6.07417
6.21982
5.20887
2.69424
2.9513
1.0791
2.87547
26.4452
28.843
31.305
33.1664
35.9968
36.4634
38.9256
40.9301
42.8117
44.6365
46.5415
48.0991
49.1224
49.6115
49.7328
49.7883
50.0416
50.9307
53.2878
58.2111
69.8351
87.8375
110.456
134.902
155.61
166.529
170.524
155.484
128.044
110.073
85.1918
77.12
77.9299
83.6003
82.5613
79.4628
72.9418
83.2647
86.3034
91.7198
94.3831
94.9917
89.0227
79.4303
72.1282
56.2655
40.8202
25.8408
17.4207
12.7215
10.3736
9.29332
8.2753
7.97944
7.92188
7.7282
9.01527
11.4898
11.6334
10.7814
10.9549
9.7233
8.6386
7.3991
6.39284
5.93542
6.61197
7.19552
7.10457
7.08777
6.31182
6.1072
6.28813
6.35791
5.95309
4.06814
3.93363
1.11504
2.66311
26.6423
28.6519
30.5095
33.1642
36.2869
37.1696
39.5197
41.5149
43.2746
44.909
46.5954
47.924
48.7224
49.0009
48.9667
48.9232
49.1747
50.2462
52.9696
58.4591
70.7099
90.6033
117.052
142.426
161.165
170.563
169.671
153.39
133.985
111.441
96.2177
82.3408
73.7061
80.3637
80.8604
80.8811
75.4065
80.2816
82.8655
88.9489
91.1701
91.807
86.7825
78.2581
69.3289
55.1757
39.9679
25.1738
16.4063
11.5565
9.32966
8.61725
7.68669
7.14368
6.8193
6.77932
7.1648
8.98222
10.2181
10.2327
10.7563
9.6306
8.65933
7.42466
6.38747
5.74856
5.97432
7.13769
7.28669
7.0641
6.54632
6.55362
6.6892
7.26811
7.4308
5.11761
6.49614
1.08094
2.88351
26.7289
28.6779
30.2524
32.833
36.7609
37.8554
40.1642
42.0941
43.728
45.1544
46.5832
47.6544
48.2271
48.3281
48.2009
48.1477
48.4568
49.6197
52.369
59.4543
72.1174
93.8561
123.165
149.179
167.026
177.231
178.717
154.535
127.339
107.391
94.9795
81.4876
78.4474
74.101
78.2013
79.9306
80.1605
77.9516
81.3478
86.0979
87.9704
88.2992
83.2877
75.1276
69.1149
54.9067
38.2807
25.1868
15.7042
10.535
8.08789
7.20818
7.26494
6.76061
6.52538
6.17807
6.35849
7.43593
8.97155
9.80476
10.5707
9.35364
8.44491
7.31124
6.25237
5.6105
6.17467
6.14571
7.13914
7.16895
6.85794
6.93718
7.14497
6.71297
6.14095
4.74621
5.57914
0.772915
2.48469
26.8036
28.714
30.1589
32.4669
36.6602
38.7102
40.7972
42.6726
44.1588
45.3764
46.519
47.3034
47.6468
47.586
47.3737
47.3194
47.7551
49.2935
52.6196
60.151
74.1135
95.9058
128.187
157.704
173.333
184.152
185.255
167.778
136.439
107.649
92.9958
84.7381
84.7913
70.9319
73.1862
77.4667
78.5267
76.9951
86.0877
83.4259
85.4184
85.8342
80.9588
73.1933
67.8404
54.3709
38.518
25.7796
15.7062
10.0946
7.27211
5.94823
5.4892
5.68374
5.88679
6.38789
6.21303
7.05467
8.09885
9.51268
10.1281
9.29254
8.40245
7.31996
6.36509
5.83474
5.99704
6.29167
7.13013
7.33239
7.25949
7.48372
7.72344
7.93814
5.24876
2.83037
1.82911
0.499331
2.31759
26.807
28.645
30.4288
31.8635
35.5044
39.6256
41.4653
43.2359
44.5785
45.5774
46.4147
46.8946
47.0162
46.8349
46.5973
46.6011
47.1966
49.1015
52.9698
61.2873
77.2589
103.466
133.673
166.476
180.34
192.844
189.299
169.886
135.901
112.274
95.5122
90.6361
89.0128
82.9727
69.1185
72.2214
76.9064
77.411
83.2491
82.7267
82.7415
83.7305
79.5949
72.2043
64.079
53.8905
38.5934
26.6196
16.1486
10.1849
7.15997
5.60408
4.87012
4.76785
5.23832
5.83278
5.54114
6.03789
7.68499
9.72683
10.0229
9.24769
8.28998
7.24827
6.25255
5.52577
5.46412
6.3886
7.38968
7.55457
7.50072
7.70508
7.93652
6.58558
5.0314
2.58758
0.583955
0.354349
1.46219
26.9281
28.2984
29.2107
31.5138
35.3364
40.0038
42.2419
43.8003
44.9918
45.7505
46.2743
46.4414
46.3409
46.0583
45.8256
45.9212
46.7239
49.005
53.466
62.7401
80.7844
106.946
143.767
171.72
184.663
197.342
193.818
174.358
147.392
121.184
98.0543
99.0756
95.434
86.0147
80.1817
67.5292
71.3891
79.2122
81.9574
81.4277
80.8064
81.647
79.5989
73.4298
62.4856
54.4216
39.1315
27.2763
16.8365
10.3606
7.13776
5.55314
4.68888
4.39883
4.86087
6.10178
6.39236
6.6684
7.51981
10.0399
9.81824
9.04496
8.07601
7.08075
6.22667
5.71475
5.72848
6.68106
7.80069
7.99064
8.05653
8.43562
8.95105
7.7454
4.63855
1.57271
0.35262
0.304843
2.31577
27.3391
28.8029
30.2983
31.7603
35.6139
39.1324
43.1161
44.3992
45.3952
45.8839
46.0974
45.9613
45.6482
45.2874
45.0942
45.3196
46.3546
48.9632
53.9364
64.1189
82.5125
109.453
152.768
175.376
188.047
200.571
196.395
173.531
143.661
117.365
97.818
95.4012
97.5578
90.2301
80.8064
74.0656
65.9678
71.1121
80.9737
80.2868
79.231
78.3886
76.3924
71.9619
62.3823
54.0956
39.7877
27.1766
17.5657
10.8797
7.28292
5.42394
4.55768
4.03441
4.14562
4.59567
5.2669
5.5399
6.1269
7.8537
9.3263
8.77174
8.01034
7.14734
6.32927
5.71371
5.82665