/*--------------------------------*- C++ -*----------------------------------*\
| =========                 |                                                 |
| \\      /  F ield         | OpenFOAM: The Open Source CFD Toolbox           |
|  \\    /   O peration     | Version:  4.1                                   |
|   \\  /    A nd           | Web:      www.OpenFOAM.org                      |
|    \\/     M anipulation  |                                                 |
\*---------------------------------------------------------------------------*/
FoamFile
{
    version     2.0;
    format      ascii;
    class       surfaceScalarField;
    location    "29";
    object      phi;
}
// * * * * * * * * * * * * * * * * * * * * * * * * * * * * * * * * * * * * * //

dimensions      [0 3 -1 0 0 0 0];

internalField   nonuniform List<scalar> 
13220
(
-893.433
2193.17
-1386.62
1793.24
-1855.08
1768.23
-2211.41
1656.1
-2487.29
1575.97
-2684.15
1496.65
-2804.51
1420.16
-2849.3
1344.9
-2819
1269.52
-2713.66
1194.47
-2537.79
1124.26
-2280.75
1042.76
-1868.32
887.34
-1152.08
583.785
147.815
-39.5283
2232.45
-115.522
1868.95
-278.436
1930.88
-408.736
1786.13
-542.063
1709.04
-656.808
1611.15
-754.66
1517.79
-832.262
1422.3
-891.439
1328.52
-937.365
1240.24
-966.432
1153.21
-933.98
1010.13
-713.229
666.331
-257.005
126.878
-109.234
-131.333
2363.56
-331.375
2068.76
-510.393
2109.68
-615.297
1890.8
-712
1805.48
-771.761
1670.67
-806.965
1552.74
-817.197
1432.26
-803.739
1314.78
-767.401
1203.47
-705.524
1090.98
-604.413
908.224
-436.826
496.796
-234.141
-78.8396
-343.382
58.5895
2304.73
19.669
2107.42
20.7144
2108.36
56.7638
1854.44
97.1
1764.85
158.893
1608.54
235.858
1475.43
323.966
1343.82
422.522
1215.87
528.222
1097.51
633.842
985.119
693.638
848.318
584.041
606.187
185.33
319.434
-158.073
105.638
2198.87
144.539
2068.27
203.378
2049.28
272.58
1784.97
334.41
1702.75
398.304
1544.39
450.693
1422.79
522.79
1271.51
600.73
1137.75
685.102
1012.91
742.821
927.354
741.8
848.819
618.681
728.763
370.277
566.761
212.221
34.8079
2163.81
68.5264
2034.28
95.9974
2021.53
117.526
1763.17
113.214
1706.9
109.883
1547.59
99.0188
1433.59
123.062
1247.39
184.38
1076.36
316.595
880.787
464.244
779.646
523.599
790.104
453.19
799.751
277.628
743.167
489.83
-13.5252
2177.17
-57.3531
2077.96
-78.2217
2042.28
-118.644
1803.47
-173.245
1761.42
-223.375
1597.66
-273.028
1483.18
-319.528
1293.87
-329.155
1085.96
-254.861
806.245
-81.8907
606.781
107.607
599.285
205.592
700.653
159.805
787.787
649.661
25.8098
2151.39
-114.571
2218.34
-182.783
2110.51
-262.975
1883.7
-340.993
1839.56
-415.413
1672.16
-499.125
1567.06
-598.383
1393.21
-702.836
1190.52
-798.444
902.165
-814.532
622.894
-659.3
445.273
-370.895
413.521
-98.3179
516.878
551.325
128.752
2022.79
-3.98843
2351.21
-73.1626
2179.87
-130.108
1940.78
-171.305
1880.87
-215.612
1716.56
-261.311
1612.84
-327.794
1459.78
-426.4
1289.24
-581.01
1056.6
-755.149
797.238
-846.295
535.295
-732.335
298.626
-375.362
158.605
176.007
185.078
1838.06
140.792
2395.78
109.619
2211.38
100.113
1950.57
120.627
1860.7
132.822
1704.62
154.037
1591.94
162.398
1451.64
146.83
1305.12
73.8538
1130.06
-61.4726
932.78
-234.31
710.066
-372.206
439.226
-342.491
132.835
-166.456
148.255
1690.19
167.444
2376.91
176.608
2202.6
194.611
1932.94
233.439
1822.26
268.265
1670.14
309.165
1551.38
347.443
1413.66
378.18
1274.65
380.902
1127.63
345.26
968.728
256.484
799.104
100.341
596.093
-104.872
339.733
-271.295
75.8387
1614.7
92.2697
2360.75
84.5258
2210.68
79.3323
1938.43
97.03
1804.93
113.162
1654.3
134.075
1530.81
153.002
1395
171.256
1256.71
183.739
1115.45
186.74
965.975
178.17
808.193
149.388
625.616
85.9574
405.073
-185.236
115.998
1498.87
234.949
2241.88
330.042
2115.74
390.505
1878.05
448.101
1747.48
488.488
1613.98
519.137
1500.29
529.533
1384.67
509.59
1276.71
462.588
1162.79
391.595
1036.98
308.128
893.016
220.967
714.408
121.427
508.815
-63.9176
-625.553
2124.39
-935.815
2552.02
-1095.59
2275.5
-1217.37
1999.71
-1212.75
1742.8
-1054.07
1455.18
-720.091
1166.21
-288.353
952.739
82.8613
905.375
273.914
971.302
282.195
1028.56
174.434
999.538
38.7322
848.312
20.9245
520.635
-43.0188
-1637.46
-2351.64
-2788.5
-3056.22
-3171.56
-3160.23
-3031.82
-2799.68
-2439.23
-1946.87
-1434.1
-942.5
-507.126
-184.488
-0.0277211
154.173
-154.24
154.139
154.104
154.072
452.41
-298.373
452.382
452.348
452.327
1048.77
-596.477
1048.75
1048.73
1885.96
-837.244
1885.93
1885.91
1885.89
2865.53
-979.655
2865.51
2865.5
3899.71
-1034.22
3899.7
3899.68
3899.67
4889.91
-990.254
4889.9
4889.88
4889.87
5776.95
-887.093
5776.94
5776.92
6543.27
-766.357
6543.25
6543.25
6543.23
7164.79
-621.572
7164.77
7164.77
7651.68
-486.927
7651.67
7651.65
7651.65
8006.41
-354.777
8006.41
8006.38
8006.39
8247.1
-240.738
8247.1
8247.07
8382.04
-134.955
8382.01
8382.01
8381.98
8423.15
-41.1638
8423.12
8423.12
8423.08
8389.49
33.5991
8389.45
8389.47
8279.93
109.496
8279.93
8279.88
8279.9
8108.83
171.013
8108.84
8108.77
7873.17
235.629
7873.09
7873.12
7873.04
7583.86
289.225
7583.77
7583.83
7583.7
7245.02
338.779
7244.86
7245.1
6834.36
410.637
6834.64
6834.7
6732.02
6693.2
6684.57
6160.56
457.608
6150.74
6189.78
6238.87
6279.04
6310.81
6336.32
6375.66
6436.49
6360.63
149.821
6441.64
6529.22
6613.87
6705.65
6798.69
6894.66
6991.6
7084.01
6868.3
318.748
6959.24
7056.31
7153.07
7249.03
7337.38
7411.78
7491.26
7579.74
7675.47
7195.38
587.19
7281.8
7378.6
7480.57
7587.83
7699.92
7822.07
7953.55
8091.05
7224.06
997.429
7361.72
7519.27
7704.26
7894.8
8090.56
8292.8
8498.51
8761.86
7823.35
1197.48
8087.65
8365.75
8644.88
8960.2
9300.18
9646.32
9997.94
10360.8
9273.43
1453.67
9679.5
10104.6
10530.3
10963.6
11406.5
11895.6
12395.9
12903.3
13425
12004
1927.37
12564.7
13171.5
13775.4
14387.6
15017.8
15670.7
16356.6
17063.9
15277.8
2447.95
15988.1
16756
16756
14470.1
2285.92
12130.6
2339.45
12130.6
10422.8
1707.73
10422.8
9187.17
1235.61
8206.85
980.305
8206.81
7760.11
446.673
7713.17
46.9036
7713.15
8251.03
-537.901
8251.01
9196.45
-945.476
10484.9
-1288.51
10484.9
11933.4
-1448.51
11933.4
13419.6
-1486.23
15038.2
-1618.56
15038.2
16633.4
-1595.27
18273.4
-1640.03
18273.4
19916.1
-1642.7
19916.1
21561.8
-1645.69
23181.1
-1619.3
23181.1
25086.2
-1905.1
25086.1
27407.3
-2321.13
29810.6
-2403.29
29810.5
32550
-2739.46
35107.6
-2557.63
35107.6
37928.6
-2820.99
37928.6
41078.6
-3149.93
44676
-3597.45
44676
49869
-5193
49869
57747.2
-7878.22
70531.3
-12784.1
70531.3
81601.1
-11069.7
90635.6
-9034.52
90635.6
96032.8
-5397.25
96032.8
95998.9
33.909
92229
3769.91
92229
82499.8
9729.15
82499.8
65789.2
16710.7
45354.8
20434.3
45354.8
16822.3
28532.5
-24135
40957.4
-24135
-88568.2
64433.2
-88568.2
-178256
89688.1
-291419
113163
-291419
-428571
137152
-428571
-596486
167915
-777185
180699
-777185
-994329
217143
-1.21532e+06
220989
-1.21532e+06
-1.46541e+06
250092
-1.46541e+06
289488
-8680.62
-29076.3
-9128.69
-33967.9
-9598.49
-35953.9
-10134.4
-38468.9
-10701.2
-40539.5
-11291.9
-42578
-11891.7
-44474.2
-12498.1
-46332.3
-13112.9
-48162.1
-13740.2
-50017
-14382.5
-51943.9
-15043.3
-54000.3
-15726.1
-56240.7
-16431.1
-58698.8
-17159.6
-61384.6
-17918.5
-64306.7
-18718.9
-67485
-19571.6
-70959.7
-20483.3
-74773.2
-21448.9
-78919.3
-22441.7
-83357.6
-23427.9
-88030.2
-24395.5
-92851.2
-25372.3
-97881.6
-26394.5
-103335
-27465.8
-109289
-28578.8
-115655
-29723.9
-122253
-30874.5
-128751
-32019.2
-134922
-33171.5
-140714
-34320.8
-146128
-35426.6
-151207
-36432.6
-155897
-37268.7
-159987
-37878.9
-163153
-38220.7
-165232
-38250.4
-166084
-37961.4
-165474
-37395.5
-163345
-36644.8
-159511
-35846.8
-153922
-35140.6
-146805
-34627.3
-138866
-34346.6
-131094
-34281.2
-124176
-34361.3
-118049
-34476.4
-112151
-34522.8
-105968
-34454.4
-99274.7
-34293.7
-92128.1
-34090.7
-84702.9
-33875.2
-77116.6
-33655.4
-69381.6
-33445
-61477.5
-33280.4
-53428.8
-33218.4
-45307.8
-33320.1
-37198.4
-33622.9
-29177.6
-34114.3
-21318.1
-34732.6
-13701.8
-35409.8
-6434.91
-36153.6
406.225
-37177.3
7048.24
-38663.3
14103.1
-40656.6
22199.2
-43263.8
31857.5
-46625.2
43776.4
-50940.1
58878.8
-56490.5
78484.8
-63687.2
104579
-73142.5
140283
-85797.7
190697
-103147
264575
-127610
377095
-163002
553621
-213816
832796
-274688
1.23794e+06
1.66603e+06
-9203.92
-28807.6
-9668.01
-33503.8
-10159.9
-35462
-10713.8
-37915
-11291.9
-39961.3
-11888.7
-41981.3
-12490.4
-43872.4
-13094.9
-45727.8
-13703.7
-47553.4
-14321.4
-49399.3
-14952.4
-51312.8
-15602.1
-53350.7
-16276.7
-55566.1
-16979.5
-57996
-17712.2
-60651.8
-18479.9
-63539
-19292
-66672.9
-20158.4
-70093.3
-21085.7
-73845.9
-22072.3
-77932.7
-23099.9
-82330.1
-24134.4
-86995.7
-25152
-91833.6
-26171.1
-96862.5
-27233.8
-102272
-28353.1
-108170
-29520.7
-114487
-30725.2
-121049
-31934.7
-127542
-33127
-133730
-34314
-139527
-35494.1
-144948
-36637.2
-150064
-37695.8
-154839
-38593.2
-159089
-39267.1
-162479
-39679.4
-164820
-39782.5
-165980
-39561
-165695
-39046.6
-163859
-38314.9
-160243
-37491.7
-154746
-36713.7
-147583
-36097.7
-139482
-35710.1
-131482
-35561.8
-124325
-35606.9
-118004
-35744.7
-112014
-35857.8
-105855
-35870.4
-99262.2
-35778.9
-92219.6
-35628.1
-84853.7
-35460.6
-77284
-35296.2
-69546
-35143.9
-61629.8
-35019.8
-53552.9
-34949.5
-45378
-34963.5
-37184.4
-35093.6
-29047.5
-35369.4
-21042.3
-35807.3
-13264
-36408.5
-5833.69
-37204.7
1202.4
-38324
8167.59
-39887.1
15666.2
-41963.9
24276.1
-44668
34561.5
-48147.4
47255.8
-52609
63340.4
-58343.5
84219.2
-65773.6
112009
-75525.4
150034
-88554.8
203727
-106393
282413
-131687
402389
-168981
590916
-222373
886188
-278738
1.29431e+06
1.63739e+06
-9530.43
-28527.4
-9999.07
-33035.1
-10499.3
-34961.8
-11055.8
-37358.5
-11633.2
-39384
-12225.7
-41388.7
-12822
-43276.1
-13421.1
-45128.7
-14023.8
-46950.6
-14634.3
-48788.9
-15258
-50689.1
-15901.9
-52706.8
-16574.1
-54894
-17279.6
-57290.5
-18020.1
-59911.3
-18798.8
-62760.3
-19622.9
-65848.8
-20501.6
-69214.6
-21439.8
-72907.7
-22437
-76935.5
-23482
-81285.1
-24542.8
-85934.9
-25593.1
-90783.3
-26643.4
-95812.2
-27732.2
-101183
-28879.2
-107023
-30078
-113289
-31316.6
-119810
-32563.6
-126295
-33789.4
-132504
-34997.5
-138319
-36193
-143752
-37352.7
-148904
-38435.8
-153755
-39367.6
-158158
-40079.6
-161767
-40532.8
-164367
-40680.2
-165833
-40502.3
-165873
-40025.9
-164336
-39316.8
-160952
-38490.4
-155572
-37678.2
-148396
-37002.3
-140158
-36547
-131937
-36341.6
-124530
-36352
-117993
-36484.9
-111881
-36622.4
-105718
-36677.2
-99207.4
-36629.7
-92267.1
-36513
-84970.4
-36372.1
-77424.9
-36236
-69682.1
-36120.3
-61745.5
-36043.7
-53629.5
-36033.5
-45388.2
-36117.8
-37100.2
-36315
-28850.2
-36639.4
-20717.9
-37107.9
-12795.5
-37742.2
-5199.31
-38598.5
2058.62
-39794.2
9363.35
-41438.8
17310.7
-43611.2
26448.5
-46430.3
37380.7
-50051.1
50876.5
-54688
67977.3
-60643.3
90174.4
-68350.5
119716
-78440.3
160124
-91879.3
217166
-110328
300862
-137017
429078
-177470
631369
-233173
941891
-277271
1.33841e+06
1.58111e+06
-9906.57
-28233.7
-10382.6
-32559.1
-10890.9
-34453.5
-11450.2
-36799.1
-12026.7
-38807.5
-12614.9
-40800.6
-13205
-42686
-13797.5
-44536.2
-14393
-46355.1
-14995.2
-48186.7
-15610.6
-50073.7
-16248
-52069.3
-16917.2
-54224.8
-17625.1
-56582.6
-18373.9
-59162.4
-19164.8
-61969.4
-20002.7
-65010.9
-20895.3
-68322
-21847.1
-71956
-22858.6
-75923.9
-23925.2
-80218.6
-25018
-84842.1
-26106.8
-89694.4
-27194.1
-94725
-28313.3
-100064
-29490.6
-105846
-30724.4
-112055
-32002.2
-118533
-33293.3
-125004
-34561.9
-131235
-35800.9
-137080
-37019.8
-142533
-38203
-147721
-39315.8
-152643
-40288.8
-157185
-41047.6
-161008
-41550.2
-163864
-41751.5
-165632
-41626.2
-165998
-41195.5
-164766
-40514.3
-161633
-39686.3
-156400
-38838.4
-149244
-38096.5
-140900
-37562.8
-132471
-37288.4
-124805
-37254.8
-118027
-37378.3
-111757
-37541.5
-105554
-37645.5
-99103.4
-37651.8
-92260.8
-37580.1
-85042.1
-37475
-77530
-37373.1
-69784
-37294.7
-61823.9
-37255.6
-53668.6
-37278.8
-45365
-37393.7
-36985.4
-37625
-28618.9
-37990.1
-20352.9
-38504.5
-12281.1
-39191.6
-4512.24
-40114.7
2981.8
-41386.9
10635.5
-43115.9
19039.8
-45389.6
28722.1
-48331.9
40323
-52105
54649.6
-56932.2
72804.6
-63126.3
96368.5
-71125.1
127715
-81556.2
170555
-95441.2
231051
-114772
320193
-143603
457909
-187589
675355
-243491
997792
-275864
1.37078e+06
1.52239e+06
-10279.7
-27928.3
-10760.5
-32078.2
-11272.5
-33941.6
-11830.2
-36241.4
-12401.4
-38236.3
-12981.7
-40220.4
-13563.1
-42104.6
-14147
-43952.3
-14734.1
-45768.1
-15327.9
-47592.9
-15935.7
-49465.8
-16567.6
-51437.5
-17234.6
-53557.8
-17945.7
-55871.4
-18704.2
-58403.9
-19509.4
-61164.3
-20363.1
-64157.2
-21271.9
-67413.3
-22239.9
-70988
-23267.1
-74896.7
-24352.7
-79133
-25475.9
-83718.9
-26604.7
-88565.6
-27730.6
-93599.1
-28881.4
-98913.2
-30087.2
-104640
-31353.8
-110788
-32669.6
-117217
-34004.6
-123669
-35318.7
-129921
-36593.6
-135805
-37838.7
-141288
-39045.2
-146515
-40185.4
-151502
-41196.9
-156173
-42000.4
-160205
-42551.5
-163313
-42808.2
-165375
-42739.1
-166067
-42358.3
-165147
-41711.9
-162280
-40891.2
-157221
-40016.3
-150118
-39215.8
-141701
-38606
-133081
-38258.3
-125152
-38171.1
-118114
-38272.3
-111656
-38449.5
-105377
-38596.6
-98956.2
-38657.5
-92199.9
-38635.6
-85064
-38570.1
-77595.5
-38503.2
-69850.9
-38463.2
-61863.8
-38468
-53663.8
-38536.8
-45296.2
-38695.6
-36826.6
-38970.7
-28343.8
-39382.4
-19941.1
-39947.4
-11716.1
-40691.6
-3768.08
-41685.3
3975.48
-43037.6
11987.8
-44855.6
20857.8
-47235.4
31101.9
-50307.2
43394.8
-54241
58583.4
-59268.4
77832
-65706.4
102806
-73986.6
135995
-84748.6
181317
-99174.7
245477
-119809
340827
-151452
489553
-198624
722526
-251989
1.05116e+06
-268842
1.38763e+06
1.43424e+06
-10659
-27612.5
-11142.5
-31594.7
-11654.5
-33429.6
-12207.2
-35688.6
-12770.3
-37673.2
-13340.5
-39650.1
-13911.7
-41533.4
-14485.6
-43378.3
-15063.7
-45190
-15649.7
-47006.9
-16250.8
-48864.7
-16877.9
-50810.4
-17543.4
-52892.3
-18258.3
-55156.6
-19026.8
-57635.4
-19847.5
-60343.6
-20719
-63285.8
-21645.7
-66486.5
-22632.5
-70001.1
-23678
-73851.2
-24782.7
-78028.4
-25934.6
-82566.9
-27103.5
-87396.8
-28270.3
-92432.3
-29455.8
-97727.6
-30691.5
-103404
-31989.6
-109490
-33342.2
-115864
-34721.5
-122289
-36084.3
-128559
-37400.5
-134489
-38676.1
-140012
-39908.4
-145282
-41075.3
-150336
-42124.3
-155124
-42972.9
-159356
-43574.4
-162711
-43889.2
-165060
-43880.7
-166076
-43555.9
-165472
-42951.6
-162884
-42146.3
-158026
-41251.9
-151013
-40398.3
-142554
-39714
-133765
-39289
-125577
-39139.6
-118264
-39207.4
-111588
-39387.5
-105197
-39570.9
-98772.8
-39686.4
-92084.4
-39719.9
-85030.5
-39700.9
-77614.6
-39672.5
-69879.4
-39669.9
-61866.3
-39716.1
-53617.7
-39829.3
-45183
-40032.9
-36623.1
-40353.3
-28023.3
-40813.7
-19480.7
-41430.7
-11099.1
-42231.9
-2966.85
-43295.5
5039.04
-44729.8
13422.1
-46640.2
22768.2
-49130.9
33592.6
-52338
46601.9
-56438.7
62684.2
-61668.5
83061.8
-68339
109477
-76875.4
144531
-87981.3
192423
-103148
260643
-125590
363269
-160399
524362
-209564
771691
-257470
1.09906e+06
-259126
1.38929e+06
1.34303e+06
-11040.8
-27288.3
-11523.8
-31111.7
-12031.7
-32921.7
-12576.1
-35144.2
-13128.2
-37121.2
-13686.3
-39092
-14245.6
-40974.1
-14808.7
-42815.1
-15377.6
-44621.1
-15956.3
-46428.2
-16552.1
-48268.9
-17175.9
-50186.6
-17841
-52227.1
-18559.8
-54437.8
-19338.5
-56856.7
-20175.3
-59506.7
-21066.3
-62394.8
-22012.7
-65540.2
-23019.8
-68994
-24086.2
-72784.7
-25211.7
-76902.9
-26390.2
-81388.5
-27596.4
-86190.5
-28805.9
-91222.8
-30029.8
-96503.8
-31297.6
-102136
-32626
-108162
-34013.6
-114477
-35435.8
-120867
-36849.3
-127145
-38211.4
-133126
-39522
-138702
-40783.2
-144021
-41975.8
-149143
-43059.2
-154041
-43953.9
-158462
-44607.4
-162058
-44981.8
-164686
-45037.9
-166020
-44775.7
-165734
-44222.1
-163438
-43441.9
-158806
-42537.4
-151917
-41638
-143454
-40882.3
-134521
-40377.5
-126082
-40157.9
-118483
-40180.2
-111566
-40350
-105027
-40559.3
-98563.5
-40726.1
-91917.7
-40818.8
-84937.7
-40853.5
-77579.9
-40869.5
-69863.3
-40906.8
-61829.1
-40994.3
-53530.1
-41153.1
-45024.2
-41403.8
-36372.4
-41771.3
-27655.7
-42280.4
-18971.7
-42949.4
-10430.1
-43808.1
-2108.12
-44942.2
6173.13
-46460.9
14940.8
-48467.8
24775.2
-51074.8
36199.5
-54422.8
49949.9
-58692.7
66954
-64116.9
88486.1
-70996.7
116357
-79774.1
153309
-91306.1
203955
-107530
276868
-132272
388010
-170190
562280
-219768
821269
-260032
1.13933e+06
-245986
1.37524e+06
1.2342e+06
-11423.8
-26957.7
-11903
-30632.5
-12402.8
-32421.9
-12935.5
-34611.5
-13474.2
-36582.5
-14018.4
-38547.8
-14564.8
-40427.8
-15116.5
-42263.4
-15676.4
-44061.3
-16248.7
-45855.9
-16840.7
-47676.9
-17463
-49564.3
-18129
-51561.1
-18852.1
-53714.7
-19640.3
-56068.5
-20493.3
-58653.7
-21404.9
-61483.2
-22372.9
-64572.2
-23401.7
-67965.1
-24490.9
-71695.6
-25639.3
-75754.5
-26844
-80183.8
-28085
-84949.5
-29337.2
-89970.5
-30602.4
-95238.6
-31904.6
-100834
-33263.7
-106802
-34684.2
-113056
-36146.6
-119405
-37610.6
-125681
-39022.6
-131715
-40372.8
-137352
-41667
-142727
-42886.1
-147924
-44000.7
-152926
-44941.9
-157521
-45649.2
-161351
-46085.1
-164250
-46210.3
-165894
-46017.4
-165927
-45523.4
-163932
-44778.9
-159551
-43875.1
-152821
-42938.9
-144390
-42116.6
-135343
-41531.1
-126667
-41234.5
-118780
-41199.5
-111601
-41344.5
-104882
-41566.7
-98341.3
-41777.6
-91706.8
-41930.3
-84785
-42025.1
-77485.1
-42093.2
-69795.3
-42174.6
-61747.6
-42304.3
-53400.4
-42508.2
-44820.3
-42807.6
-36073.1
-43225
-27238.4
-43783.7
-18413
-44503.6
-9710.18
-45418.4
-1193.34
-46623
7377.74
-48229.1
16546.9
-50337
26883.1
-53065.5
38928
-56557.4
53441.8
-60991.5
71388.2
-66591.8
94086.4
-73657.8
123423
-82699.1
162350
-94831.7
216088
-112511
294547
-139907
415406
-180448
602821
-228631
869452
-259425
1.17012e+06
-230005
1.34582e+06
1.11736e+06
-11805.9
-26623.1
-12277.9
-30160.5
-12765.9
-31933.9
-13283.9
-34093.4
-13807
-36059.5
-14336
-38018.8
-14868.6
-39895.2
-15408.8
-41723.2
-15960
-43510.1
-16527.1
-45288.7
-17117
-47087
-17739.6
-48941.7
-18408
-50892.8
-19135.8
-52986.9
-19933
-55271.3
-20801
-57785.7
-21733.5
-60550.8
-22724.9
-63580.7
-23777.5
-66912.5
-24890.9
-70582.2
-26064.2
-74581.1
-27296.4
-78951.6
-28570.6
-83675.3
-29864.1
-88677
-31171.7
-93931
-32510.6
-99495.2
-33901.5
-105412
-35353.3
-111604
-36852
-117906
-38363.3
-124170
-39828.1
-130250
-41223.1
-135956
-42554.4
-141396
-43802.9
-146675
-44947
-151782
-45933
-156535
-46695.3
-160588
-47195.2
-163750
-47394
-165696
-47277.5
-166043
-46852.5
-164357
-46155.4
-160248
-45264.5
-153712
-44302
-145352
-43419.7
-136225
-42754.3
-127333
-42375.3
-119159
-42272.2
-111704
-42377.6
-104777
-42597.5
-98121.3
-42841.8
-91462.5
-43051.3
-84575.5
-43210.2
-77326.2
-43337.8
-69667.7
-43470.5
-61615
-43645.7
-53225.1
-43894.8
-44571.2
-44242.7
-35725.1
-44711.7
-26769.4
-45322.5
-17802.2
-46094.1
-8938.58
-47063.5
-223.906
-48338
8652.26
-50034.3
18243.2
-52247
29095.8
-55098.9
41779.9
-58731
57073.9
-63315.4
75972.6
-69068.9
99839.8
-76316.3
130670
-85704.7
171739
-98699.7
229083
-118236
314083
-148406
445575
-190703
645119
-235666
914416
-255747
1.1902e+06
-212061
1.30214e+06
994982
-12184.9
-26286.9
-12646.4
-29699.1
-13119.2
-31461.1
-13619.9
-33592.7
-14125.7
-35553.7
-14638.5
-37506
-15157
-39376.7
-15685.6
-41194.5
-16228.8
-42966.9
-16791.9
-44725.7
-17381.3
-46497.5
-18006.3
-48316.8
-18678.6
-50220.5
-19411.8
-52253.6
-20217.3
-54465.9
-21099
-56904
-22051.6
-59598.2
-23067.6
-62564.7
-24146
-65834.1
-25285.5
-69442.7
-26485.2
-73381.4
-27746.2
-77690.7
-29053.8
-82367.7
-30387.4
-87343.4
-31737.4
-92581.1
-33114.5
-98118.1
-34538.2
-103988
-36020
-110123
-37551.2
-116375
-39104.4
-122617
-40623.3
-128731
-42068.2
-134512
-43439.7
-140024
-44722.1
-145393
-45896.5
-150608
-46925.2
-155506
-47743.2
-159770
-48309.4
-163184
-48586.2
-165419
-48553
-166077
-48206.7
-164703
-47569.2
-160885
-46704.7
-154576
-45728.4
-146329
-44794.6
-137159
-44052.1
-128075
-43587.1
-119624
-43406.3
-111885
-43457.8
-104725
-43658.9
-97920.3
-43922.1
-91199.3
-44180.8
-84316.8
-44404.2
-77102.8
-44597.2
-69474.7
-44788.6
-61423.5
-45015.7
-52998
-45313
-44273.9
-45709
-35329.1
-46228.5
-26249.9
-46892.2
-17138.5
-47717.7
-8113.15
-48746.7
805.128
-50094.8
10000.4
-51882.2
20030.6
-54199.8
31413.4
-57170.4
44750.5
-60929.5
60833.1
-65642.5
80685.6
-71533.6
105731
-78995.5
138132
-88885.6
181629
-103062
243260
-124781
335802
-157557
478351
-200468
688030
-240540
954487
-249218
1.19888e+06
-192600
1.24552e+06
866816
-12558.6
-25951.5
-13006.5
-29251.2
-13461.3
-31006.3
-13942.6
-33111.4
-14429.6
-35066.7
-14925.6
-37010
-15429.9
-38872.4
-15947.5
-40677
-16483.4
-42431
-17043.5
-44165.5
-17634.2
-45906.8
-18263.3
-47687.6
-18941.3
-49542.5
-19680.9
-51514
-20494.4
-53652.3
-21388.5
-56009.9
-22360
-58626.7
-23400.7
-61524.1
-24506.3
-64728.4
-25673.7
-68275.3
-26901
-72154.1
-28190.9
-76400.7
-29532.3
-81026.4
-30905.9
-85969.8
-32298.5
-91188.5
-33714.7
-96701.9
-35171.8
-102531
-36683
-108611
-38244.1
-114814
-39833.8
-121027
-41405.7
-127159
-42903.6
-133014
-44316.8
-138611
-45637.3
-144072
-46845.2
-149400
-47916
-154435
-48789.9
-158897
-49424.7
-162549
-49783.5
-165060
-49840.5
-166020
-49582.8
-164961
-49017.6
-161450
-48194.3
-155400
-47218.2
-147305
-46243.5
-138134
-45428.7
-128890
-44876.2
-120176
-44610.1
-112151
-44594.5
-104741
-44759.7
-97755.1
-45024.9
-90934.1
-45320.5
-84021.2
-45604
-76819.3
-45865.3
-69213.4
-46122.1
-61166.7
-46408.7
-52711.5
-46760.3
-43922.3
-47207.1
-34882.3
-47776.6
-25680.5
-48491.6
-16423.4
-49372.1
-7232.72
-50468.6
1901.63
-51895.7
11427.5
-53771.9
21906.8
-56189.1
33830.6
-59266
47827.5
-63132.5
64699.6
-67955.2
85508.3
-73991.6
111767
-81753
145893
-92364.9
192241
-108052
258947
-132132
359882
-167056
513275
-209286
730260
-243081
988282
-240269
1.19607e+06
-172586
1.17784e+06
735187
-12924.8
-25619.5
-13356.3
-28819.8
-13790.9
-30571.7
-14251.2
-32651.1
-14718.7
-34599.2
-15197.6
-36531.1
-15688
-38382
-16195
-40169.9
-16724.5
-41901.5
-17282.8
-43607.2
-17876
-45313.6
-18511
-47052.7
-19196.4
-48857.1
-19943.6
-50766.8
-20765.3
-52830.6
-21670.6
-55104.6
-22659.7
-57637.5
-23724.6
-60459.3
-24857.8
-63595.2
-26054.4
-67078.7
-27311
-70897.5
-28630
-75081.7
-30004.9
-79651.5
-31418
-84556.6
-32853
-89753.6
-34309.1
-95245.8
-35800
-101040
-37340.5
-107071
-38929.9
-113224
-40553.5
-119403
-42175.2
-125537
-43725.7
-131463
-45180.6
-137156
-46543
-142710
-47790.1
-148153
-48902.9
-153322
-49832.8
-157967
-50538.1
-161844
-50982.8
-164616
-51136.6
-165866
-50977.2
-165120
-50497.4
-161930
-49730.7
-156167
-48770.6
-148265
-47767.9
-139136
-46888.1
-129770
-46248.8
-120816
-45891.8
-112508
-45797.7
-104835
-45910.6
-97642.2
-46159.2
-90685.5
-46475.5
-83704.9
-46809.6
-76485.2
-47137.7
-68885.4
-47464
-60840.3
-47816.1
-52359.5
-48228.5
-43509.9
-48732.4
-34378.4
-49356.1
-25056.7
-50124.2
-15655.3
-51060.8
-6296.08
-52226.5
3067.31
-53731.9
12932.9
-55691.2
23866.1
-58197.2
36336.5
-61363.7
50994
-65320.1
68656
-70250
90438.1
-76476.3
117994
-84678.5
154095
-96274.4
203837
-113754
276427
-140178
386305
-176546
549644
-216766
770481
-243189
1.0147e+06
-229054
1.18194e+06
-152905
1.10169e+06
610814
-13281.4
-25293.3
-13694.2
-28407.1
-14107.1
-30158.7
-14545.3
-32213
-14992.8
-34151.7
-15454.7
-36069.1
-15931.8
-37904.9
-16429.2
-39672.5
-16953.2
-41377.6
-17510.6
-43049.8
-18107.4
-44716.8
-18749.5
-46410.6
-19443.8
-48162.8
-20200
-50010.6
-21030.4
-52000.2
-21946.3
-54188.7
-22951.3
-56632.5
-24039.1
-59371.5
-25199.5
-62434.8
-26426.2
-65852
-27714.2
-69609.5
-29063.5
-73732.5
-30471.3
-78243.6
-31922.7
-83105.2
-33398.9
-88277.4
-34895.6
-93749.1
-36422.6
-99512.7
-37993.1
-105500
-39609
-111608
-41264
-117748
-42930
-123871
-44530.8
-129863
-46028.6
-135658
-47434.7
-141304
-48726.5
-146861
-49883.1
-152166
-50869.2
-156980
-51647.1
-161066
-52181.2
-164081
-52437.9
-165609
-52386.1
-165172
-52004.7
-162312
-51310.7
-156861
-50383.9
-149192
-49368.3
-140152
-48433.4
-130705
-47710.5
-121539
-47259.3
-112959
-47077.4
-105017
-47123.2
-97596.4
-47336.4
-90472.3
-47654.3
-83386.9
-48024.5
-76115
-48412.4
-68497.5
-48808.4
-60444.3
-49229.3
-51938.6
-49707
-43032.3
-50273.3
-33812
-50956.3
-24373.7
-51780.3
-14831.4
-52773.6
-5302.74
-54006.1
4299.79
-55584.9
14511.7
-57618.9
25900.1
-60200.8
38918.4
-63443.2
54236.4
-67484.5
72697.3
-72545.3
95498.9
-79050.4
124499
-87882.5
162928
-100732
216686
-120188
295882
-148724
414842
-185654
586573
-222600
807427
-240858
1.03296e+06
-215955
1.15703e+06
-133759
1.01949e+06
497489
-13626.7
-24975
-14018.9
-28014.8
-14409.3
-29768.4
-14824.9
-31797.3
-15252.3
-33724.3
-15697.7
-35623.7
-16162.3
-37440.4
-16651.1
-39183.6
-17170.7
-40858
-17728
-42492.5
-18329
-44115.8
-18979
-45760.5
-19683.6
-47458.3
-20450.3
-49243.9
-21290.4
-51160.1
-22216.4
-53262.7
-23235.5
-55613.4
-24343.9
-58263
-25530.5
-61248.2
-26787.5
-64595.1
-28108.9
-68288.1
-29491
-72350.4
-30931.6
-76802.9
-32419
-81617.9
-33934.9
-86761.5
-35472.5
-92211.5
-37038.7
-97946.5
-38641.5
-103898
-40282.4
-109967
-41963.8
-116067
-43666
-122169
-45314.2
-128214
-46858.6
-134114
-48309.1
-139853
-49648.3
-145522
-50852.6
-150961
-51896.4
-155937
-52748.8
-160213
-53375.7
-163455
-53741
-165244
-53805.6
-165107
-53535.4
-162582
-52930.5
-157465
-52055.4
-150067
-51044.1
-141163
-50066.6
-131682
-49266.2
-122339
-48720.3
-113505
-48443.8
-105294
-48409.8
-97630.3
-48569.9
-90312.2
-48869.1
-83087.7
-49256.4
-75727.7
-49691.3
-68062.6
-50152
-59983.6
-50642.2
-51448.4
-51187.1
-42487.3
-51818.2
-33180.9
-52563
-23628.9
-53444.2
-13950.2
-54492.9
-4254.02
-55787.8
5594.61
-57433.4
16157.4
-59533.1
27999.7
-62181.5
41566.7
-65495.8
57550.8
-69636.7
76838.2
-74885.8
100748
-81801.3
131414
-91481.3
172608
-105819
231024
-127296
317359
-157517
445062
-194023
623078
-226564
839969
-236163
1.04256e+06
-201319
1.12219e+06
-115376
933548
398824
-13958.9
-24666.4
-14329.6
-27644.1
-14697
-29401
-15090.1
-31404.2
-15498
-33316.4
-15927.6
-35194.1
-16380.6
-36987.4
-16862.1
-38702
-17378.2
-40341.9
-17936.1
-41934.6
-18541.7
-43510.2
-19200.1
-45102.2
-19915.5
-46742.8
-20694
-48465.4
-21545
-50309.1
-22481.2
-52326.6
-23512.6
-54582
-24639
-57136.6
-25850.2
-60037
-27137.1
-63308.2
-28492.5
-66932.7
-29909.9
-70933
-31384.5
-75328.4
-32906.2
-80096.2
-34459.3
-85208.3
-36036.9
-90633.9
-37643.1
-96340.4
-39280
-102261
-40946.7
-108301
-42650.6
-114363
-44379.7
-120440
-46070.6
-126523
-47666.2
-132518
-49162.6
-138357
-50550.4
-144134
-51807.1
-149705
-52911.6
-154832
-53840.9
-159284
-54563.6
-162732
-55042.6
-164765
-55231.9
-164918
-55084.9
-162729
-54585.3
-157965
-53781
-150871
-52793.2
-142151
-51788.8
-132687
-50920.1
-123208
-50281.7
-114143
-49906.6
-105669
-49783.1
-97753.8
-49874.5
-90220.8
-50135
-82827.3
-50518
-75344.6
-50981.6
-67599.1
-51495.7
-59469.5
-52051.1
-50893
-52662.3
-41876.1
-53357.5
-32485.8
-54163.7
-22822.7
-55101.1
-13012.7
-56202.1
-3153.05
-57554.1
6946.65
-59261.3
17864.6
-61421.3
30159.7
-64134.6
44280.1
-67531.5
60947.7
-71811
81117.7
-77340.4
106277
-84830.9
138905
-95577.8
183354
-111568
247014
-134954
340746
-166265
476373
-201335
658149
-228523
867157
-229293
1.04333e+06
-185687
1.07858e+06
-97868.2
845729
310685
-14276.7
-24368.8
-14625.5
-27295.3
-14970.3
-29056.1
-15341.5
-31033.1
-15730.8
-32927.1
-16145.5
-34779.4
-16588
-36544.9
-17063.4
-38226.7
-17577.2
-39828.1
-18136.3
-41375.5
-18746.7
-42899.8
-19413.2
-44435.6
-20139.8
-46016.2
-20930.9
-47674.3
-21794
-49446
-22740.7
-51379.8
-23783.1
-53539.6
-24924.9
-55994.7
-26158.5
-58803.4
-27474.1
-61992.5
-28863.5
-65543.3
-30317.4
-69479.1
-31827.4
-73818.4
-33382.7
-78540.8
-34970.5
-83620.6
-36585.5
-89018.8
-38230.8
-94695.1
-39902
-100590
-41596.4
-106606
-43321.2
-112638
-45069.9
-118691
-46797.7
-124796
-48446.2
-130870
-49991.2
-136812
-51429
-142696
-52742.5
-148391
-53911.7
-153663
-54920.8
-158275
-55742.5
-161910
-56339.6
-164168
-56660.8
-164597
-56648.3
-162741
-56269.9
-158343
-55555.8
-151585
-54612.4
-143095
-53599.3
-133700
-52674.9
-124132
-51949.6
-114869
-51475
-106143
-51255.1
-97973.8
-51265.2
-90210.6
-51469
-82623.5
-51826.1
-74987.5
-52296.5
-67128.7
-52846.3
-58919.7
-53457
-50282.3
-54130.5
-41202.6
-54887
-31729.3
-55751.7
-21958
-56742.5
-12021.9
-57892.1
-2003.47
-59297.3
8351.8
-61063.8
19631.2
-63284.7
32380.5
-66072
47067.5
-69580
64455.6
-74063.9
85601.6
-79995.6
112209
-88241.7
147151
-100245
195358
-117948
264717
-142975
365773
-174665
508063
-207325
690809
-228432
888264
-220522
1.03542e+06
-169537
1.0276e+06
-81578.9
757771
232876
-14579.2
-24083.4
-14906.3
-26968.2
-15229.6
-28732.9
-15579.8
-30682.9
-15951.6
-32555.2
-16352.8
-34378.3
-16786.1
-36111.6
-17256.5
-37756.2
-17769
-39315.6
-18330
-40814.5
-18945.1
-42284.6
-19619.4
-43761.4
-20356.7
-45278.9
-21160.6
-46870.3
-22036.8
-48569.9
-22994.8
-50421.8
-24047.2
-52487.2
-25201.9
-54840.1
-26455.1
-57550.2
-27797.7
-60650
-29220.1
-64120.9
-30711
-67988.2
-32257.3
-72272
-33846.3
-76951.9
-35466.5
-82000.4
-37115.5
-87369.7
-38796.7
-93013.9
-40503.1
-98883.1
-42228.8
-104881
-43974.9
-110892
-45738.7
-116927
-47496.1
-123038
-49192.8
-129173
-50789.6
-135215
-52280.6
-141205
-53654.4
-147017
-54893.3
-152424
-55986
-157182
-56909.9
-160986
-57629
-163449
-58088.6
-164137
-58220.9
-162609
-57978.3
-158586
-57373.8
-152190
-56496.7
-143972
-55495.9
-134701
-54531.9
-125096
-53729
-115672
-53157.1
-106715
-52837.1
-98293.9
-52756.9
-90290.7
-52889.2
-82491.3
-53200.4
-74676.2
-53654.8
-66674.3
-54218.4
-58356.1
-54867.3
-49633.4
-55594.1
-40475.9
-56408.1
-30915.2
-57327.8
-21038.3
-58368
-10981.7
-59562.1
-809.358
-61017.9
9807.57
-62846.1
21459.4
-65136.9
34671.2
-68021.7
49952.2
-71690.5
68124.4
-76469.7
90380.8
-82945.2
118685
-92121.6
156327
-105514
208750
-124872
284075
-151133
392034
-182426
539357
-211792
720175
-226331
902803
-210166
1.01926e+06
-153203
970634
-66514.3
671082
166396
-14865.6
-23810.9
-15172
-26661.8
-15475.4
-28429.4
-15806
-30352.4
-16162
-32199.2
-16551.1
-33989.2
-16976.4
-35686.3
-17443
-37289.6
-17955.1
-38803.5
-18518.5
-40251.2
-19138.4
-41664.8
-19819.6
-43080.1
-20566.6
-44531.9
-21383
-46054
-22272.8
-47680.1
-23243.2
-49451.4
-24305.6
-51424.7
-25470.9
-53674.8
-26740.5
-56280.6
-28107.1