/*--------------------------------*- C++ -*----------------------------------*\
| =========                 |                                                 |
| \\      /  F ield         | OpenFOAM: The Open Source CFD Toolbox           |
|  \\    /   O peration     | Version:  4.1                                   |
|   \\  /    A nd           | Web:      www.OpenFOAM.org                      |
|    \\/     M anipulation  |                                                 |
\*---------------------------------------------------------------------------*/
FoamFile
{
    version     2.0;
    format      ascii;
    class       volVectorField;
    location    "29";
    object      U;
}
// * * * * * * * * * * * * * * * * * * * * * * * * * * * * * * * * * * * * * //

dimensions      [0 1 -1 0 0 0 0];

internalField   nonuniform List<vector> 
6785
(
(7.35896e-12 -0.842654 16.1707)
(7.38518e-12 -6.72922 12.5471)
(-1.695e-12 -4.80226 12.9511)
(2.08156e-12 -4.31433 12.6997)
(7.6897e-13 -3.6893 12.5319)
(-7.10936e-13 -3.21581 12.3071)
(2.00085e-12 -2.82564 12.0546)
(7.10787e-13 -2.53685 11.765)
(-2.51098e-13 -2.34913 11.4385)
(2.29193e-12 -2.23643 11.0952)
(6.27678e-13 -2.18873 10.7688)
(-4.07917e-13 -2.39495 10.3831)
(2.34929e-12 -2.89884 9.7994)
(-7.58969e-13 -2.27072 9.1921)
(-4.46517e-12 0.777976 7.23052)
(1.50811e-11 -7.82511 26.3241)
(1.02332e-11 -16.5816 22.0514)
(-8.51107e-13 -11.5607 22.5146)
(1.10448e-11 -11.8819 21.0579)
(4.78901e-13 -10.8232 20.0868)
(2.5709e-12 -10.0865 19.0306)
(8.1895e-12 -9.31874 17.9917)
(7.63298e-13 -8.58567 16.95)
(4.70476e-12 -7.88975 15.9021)
(8.82344e-12 -7.22764 14.881)
(1.51537e-12 -6.57222 13.9423)
(7.04461e-12 -5.91671 12.8009)
(9.00572e-12 -4.93572 10.3206)
(-3.20781e-12 -2.48073 5.35752)
(5.25422e-13 0.776391 -0.476583)
(5.48517e-12 -10.6096 28.2669)
(7.26813e-12 -17.6878 24.469)
(-2.0059e-12 -11.916 24.969)
(-2.82444e-12 -12.8979 22.7318)
(1.78836e-12 -11.2733 21.6205)
(-3.31445e-13 -10.5377 20.1528)
(-3.55264e-12 -9.61639 18.7946)
(5.43505e-13 -8.79933 17.4244)
(-8.5873e-13 -8.02419 16.0947)
(-5.86066e-12 -7.33248 14.842)
(3.63284e-12 -6.63954 13.5229)
(-2.3908e-12 -5.3289 11.0624)
(-1.47552e-11 -1.86701 5.14421)
(4.08816e-12 3.08906 -3.66974)
(7.29619e-13 1.48524 -4.34264)
(9.00533e-12 -11.3931 27.1577)
(3.00806e-12 -17.5988 24.1659)
(-1.02523e-13 -11.8192 24.4517)
(-2.08498e-12 -13.5782 21.5921)
(-3.85187e-12 -11.5827 20.6184)
(3.67761e-12 -11.1442 18.8796)
(-5.69969e-12 -10.2748 17.4159)
(-5.23913e-12 -9.54525 15.9026)
(4.78888e-12 -8.83883 14.4452)
(-5.37439e-12 -8.1918 13.0603)
(-6.79587e-12 -7.57934 11.7305)
(3.60492e-12 -6.71057 9.97262)
(-2.5097e-12 -4.71273 6.50249)
(-2.07335e-11 -2.0364 2.6064)
(-1.51942e-11 -0.0630311 -2.82031)
(5.43027e-12 -11.4209 25.7526)
(-7.84491e-12 -17.2165 24.135)
(-4.13655e-12 -11.9242 23.8937)
(-5.42479e-12 -13.5674 20.8949)
(-1.68006e-11 -11.507 19.8428)
(-7.51255e-12 -11.0562 18.0105)
(-7.04853e-12 -10.1724 16.4673)
(-1.88098e-11 -9.39729 15.0254)
(-6.96767e-12 -8.71894 13.6002)
(-6.10977e-12 -8.12016 12.3497)
(-2.19092e-11 -7.57335 11.1749)
(-1.76552e-11 -6.88454 9.87171)
(-1.03405e-11 -5.77476 7.89667)
(-3.85464e-11 -3.91307 5.47057)
(-7.72293e-11 -1.69327 0.652933)
(1.06837e-11 -11.5067 25.0119)
(-5.81896e-12 -16.5621 23.658)
(3.26174e-12 -11.6042 23.4661)
(-6.52895e-12 -13.2224 20.3741)
(-1.26229e-11 -11.0349 19.5936)
(3.04106e-12 -10.8553 17.7704)
(-9.64779e-12 -9.49061 16.4373)
(-1.32948e-11 -8.58953 14.3664)
(-2.87557e-12 -7.51046 12.6961)
(-1.6537e-11 -6.82527 11.0923)
(-2.30772e-11 -6.67332 10.3456)
(-8.2425e-12 -6.53054 9.82929)
(-9.29246e-12 -6.16412 8.99173)
(-3.5408e-11 -5.02904 7.64026)
(-4.35803e-11 -3.10582 4.11404)
(2.09284e-11 -12.001 25.0846)
(-1.63148e-12 -15.9446 23.4506)
(1.08849e-11 -11.559 23.3407)
(-7.99305e-12 -12.9427 20.4611)
(-1.27442e-12 -10.7432 19.9779)
(9.84628e-12 -10.6317 18.1093)
(-1.18102e-11 -9.10742 16.7528)
(-1.94192e-12 -8.11505 14.5112)
(9.26987e-13 -6.53324 12.2338)
(-1.43024e-11 -4.9752 9.33824)
(1.25243e-11 -4.26363 7.78029)
(2.69916e-11 -5.10726 8.60072)
(-4.59834e-12 -6.08189 9.70368)
(-2.90071e-11 -6.10473 9.7344)
(1.27977e-11 -4.43674 7.40603)
(1.34887e-11 -12.4462 25.2425)
(7.0374e-13 -16.2179 24.5837)
(8.73681e-12 -11.893 23.8456)
(-9.2557e-12 -13.1252 21.2328)
(1.16367e-13 -10.8446 20.7607)
(7.34005e-12 -10.7871 18.8343)
(-1.10712e-11 -9.21926 17.5441)
(2.88189e-13 -8.24245 15.4132)
(-3.4762e-12 -6.4208 12.8828)
(-7.27557e-12 -4.27854 9.33039)
(1.24463e-11 -2.35168 6.28569)
(-1.00964e-11 -1.89051 5.30268)
(-3.60914e-11 -3.01165 6.57416)
(-2.59474e-11 -4.54251 8.52821)
(8.78519e-12 -3.81911 7.61065)
(1.15579e-11 -12.2655 24.2763)
(1.93915e-12 -17.0959 26.4874)
(1.97529e-12 -12.6467 24.7199)
(-7.35264e-12 -13.6824 22.072)
(-7.44513e-13 -11.3661 21.5349)
(-1.94302e-12 -11.4376 19.5795)
(-7.364e-12 -9.92827 18.4124)
(-8.38479e-13 -9.15328 16.5136)
(-1.12543e-11 -7.57752 14.338)
(-4.56105e-12 -5.63243 11.1872)
(2.74034e-12 -3.33941 7.74202)
(-3.63482e-11 -1.25393 4.56261)
(-8.10865e-11 0.183849 2.43522)
(-1.20897e-10 -0.170361 2.60868)
(-5.638e-11 -1.35187 3.94132)
(2.5437e-12 -11.5166 22.1549)
(2.94827e-12 -17.4175 27.5398)
(-2.15227e-12 -13.5996 25.3621)
(-1.33151e-11 -13.9155 22.4636)
(-4.32837e-12 -11.9553 21.5999)
(-4.80953e-12 -11.8414 19.7574)
(-1.55086e-11 -10.6396 18.5192)
(-4.40025e-12 -9.93387 16.8613)
(-1.04062e-11 -8.82672 15.0939)
(-1.7683e-11 -7.48391 12.84)
(-3.57182e-12 -5.80169 10.2329)
(-2.29998e-11 -3.75953 7.21444)
(-7.04261e-11 -1.09825 3.58366)
(-1.3797e-10 1.37656 -0.232312)
(-2.17539e-10 0.893793 -1.45963)
(-1.06602e-11 -10.7866 20.1552)
(4.85846e-12 -17.1436 27.661)
(-1.16322e-11 -14.1423 25.5853)
(-1.53228e-11 -13.8237 22.4706)
(-6.58175e-13 -12.1349 21.255)
(-2.08788e-11 -11.7806 19.4897)
(-1.63574e-11 -10.7565 18.1378)
(1.276e-12 -10.0113 16.5594)
(-2.76852e-11 -9.10812 14.9449)
(-2.64003e-11 -8.10572 13.1672)
(4.20141e-13 -6.96957 11.2228)
(-3.30879e-11 -5.60755 9.08076)
(-4.78019e-11 -3.90772 6.44947)
(-1.19603e-10 -1.40795 3.14506)
(-3.84994e-10 1.1111 -2.78584)
(-1.02526e-11 -10.2504 18.7059)
(8.40956e-12 -16.457 27.0949)
(-2.32436e-11 -13.9829 25.1514)
(-1.1472e-11 -13.3142 22.0244)
(1.07511e-12 -11.709 20.689)
(-3.89442e-11 -11.2382 18.9426)
(-1.57533e-11 -10.1989 17.5423)
(1.00322e-11 -9.39115 15.9423)
(-4.31905e-11 -8.47156 14.342)
(-2.8227e-11 -7.53354 12.7039)
(4.7497e-12 -6.55812 10.9612)
(-5.03171e-11 -5.43893 9.14156)
(-3.98258e-11 -4.24588 7.00175)
(-1.01053e-10 -2.23424 4.22631)
(-3.89434e-10 1.80822 -4.74321)
(-2.1209e-11 -10.4838 18.8232)
(8.09996e-12 -16.6165 27.5238)
(-1.69488e-11 -14.9674 25.9835)
(-2.07765e-11 -14.0226 22.784)
(2.79995e-12 -12.515 20.9806)
(-2.74005e-11 -11.8774 19.2148)
(-2.93924e-11 -10.9565 17.7272)
(1.8415e-11 -10.1291 16.1616)
(-1.35272e-11 -9.22511 14.5681)
(-2.74661e-11 -8.24218 12.941)
(-3.06601e-12 -7.17745 11.2111)
(-3.44358e-11 -5.92095 9.35532)
(-3.59991e-11 -4.65305 7.23455)
(-5.07088e-11 -2.93268 4.89766)
(-9.44091e-11 -1.08507 -0.144858)
(-2.24558e-11 -7.73998 15.2823)
(-2.05113e-12 -13.0658 23.8325)
(-2.45475e-11 -11.2504 22.5015)
(-1.81547e-11 -10.2003 20.2764)
(-8.04831e-12 -9.14169 19.1474)
(-2.08102e-11 -8.73702 17.9224)
(-1.14218e-11 -8.43818 16.9088)
(4.79058e-12 -8.56079 15.9407)
(-1.27467e-11 -8.80698 15.1915)
(-2.22292e-11 -8.74684 14.2613)
(-1.86343e-11 -8.25755 13.0728)
(-2.61735e-11 -7.29527 11.6268)
(-2.29063e-11 -5.96374 9.70064)
(-3.72949e-11 -4.33811 7.4494)
(-6.51948e-11 -2.30905 0.952339)
(-2.08619e-11 -22.0843 39.3436)
(-1.38991e-11 -18.8906 38.5144)
(-2.34772e-11 -14.7811 32.4512)
(-2.51773e-11 -11.744 27.8802)
(-3.30813e-11 -8.31927 22.5924)
(-3.34717e-11 -5.01543 16.8575)
(-2.55316e-11 -1.65818 10.9196)
(-1.58473e-11 0.471176 6.71125)
(-1.28144e-11 0.347212 6.16998)
(-2.11355e-11 -1.62485 8.41864)
(-2.74818e-11 -3.71236 10.7542)
(-2.97986e-11 -4.56445 11.2702)
(-3.91677e-11 -3.76387 9.27027)
(-4.61465e-11 -1.03755 3.27642)
(-9.98639e-12 3.28918 -6.61066)
(6.75642e-14 0.006756 -0.0725254)
(1.65311e-13 0.198965 1.13674)
(1.52093e-13 0.190839 0.189015)
(1.92606e-13 0.218716 0.11247)
(2.65779e-13 0.142883 0.121186)
(1.61377e-13 0.751845 0.733968)
(1.56495e-13 0.546932 0.180819)
(2.62981e-13 0.63774 0.0854492)
(-5.39842e-13 0.487683 0.119031)
(9.93016e-12 1.4989 -0.90386)
(1.08778e-11 1.35546 -0.637175)
(1.28502e-11 1.24969 -0.412888)
(1.23221e-11 2.88313 -2.15343)
(8.41886e-12 2.24015 -1.56426)
(8.39818e-12 2.64868 -1.4631)
(8.03652e-12 2.39119 -1.05852)
(7.39237e-12 4.23892 -2.86145)
(5.26672e-12 3.63353 -1.93941)
(4.48352e-12 3.66244 -1.54242)
(3.95843e-12 6.08968 -3.27685)
(2.11994e-12 4.71934 -2.11706)
(1.44617e-12 5.41094 -1.97386)
(1.57105e-12 5.01684 -1.59731)
(1.5417e-12 7.73002 -3.06743)
(9.70736e-13 6.02911 -1.86547)
(9.72875e-13 6.80304 -1.68609)
(6.02054e-13 6.36465 -1.34972)
(7.3884e-13 9.03512 -2.49432)
(2.3868e-13 7.38519 -1.41618)
(1.91285e-13 7.49734 -1.11494)
(2.99419e-13 10.7824 -1.9423)
(-3.27179e-14 8.15148 -1.02338)
(9.06245e-14 9.03102 -0.901345)
(-4.8259e-14 8.48486 -0.711328)
(5.85008e-15 11.4578 -1.24556)
(1.67772e-13 9.16626 -0.528813)
(2.02856e-13 9.28663 -0.3976)
(2.02537e-13 12.906 -0.64656)
(-2.01692e-14 9.59375 -0.15543)
(-3.84447e-13 10.5492 -0.125765)
(-4.89402e-13 9.87592 -0.0880213)
(-1.05075e-12 13.3469 -0.160921)
(-1.12037e-12 10.0301 0.145895)
(-1.37787e-12 11.047 0.170042)
(-1.54331e-12 10.3696 0.158786)
(-2.1743e-12 13.5061 0.229002)
(-2.04799e-12 10.5596 0.416725)
(-1.99632e-12 10.6881 0.362441)
(-2.79744e-12 14.4818 0.638275)
(-1.81179e-12 10.5599 0.6294)
(-1.60103e-12 11.5347 0.582754)
(-1.36765e-12 10.8182 0.480548)
(-1.66216e-12 14.2976 0.828111)
(-1.15158e-12 10.5597 0.72556)
(-1.09351e-12 11.5967 0.691927)
(-7.29742e-13 10.9003 0.567671)
(-7.68172e-13 13.9696 0.952646)
(-2.67694e-13 10.7181 0.827867)
(-2.35972e-13 10.8655 0.689849)
(-5.45661e-14 14.5471 1.24628)
(1.99067e-13 10.4342 0.964618)
(4.5792e-13 11.3602 0.892809)
(5.0445e-13 10.7121 0.724941)
(2.3842e-12 13.6782 1.29656)
(1.84722e-12 10.3593 1.03373)
(1.58964e-12 10.507 0.847708)
(2.09248e-12 14.0236 1.59075)
(1.22581e-12 9.929 1.18992)
(1.04559e-12 10.8223 1.105)
(8.86912e-13 10.1608 0.900837)
(1.09282e-12 13.2293 1.66458)
(8.59612e-13 9.49089 1.24773)
(8.90607e-13 10.4317 1.20437)
(1.04593e-12 9.79026 1.00063)
(7.54115e-13 12.4386 1.81877)
(4.68511e-13 9.20594 1.47046)
(4.96826e-13 9.3993 1.2531)
(7.00218e-13 12.2635 2.33834)
(4.78554e-13 8.7652 1.89796)
(2.14942e-12 8.8711 1.39855)
(-3.72417e-12 9.24908 1.76256)
(-3.40054e-12 8.80634 2.00365)
(-2.26673e-12 8.48593 1.71159)
(6.61399e-12 10.8815 2.38566)
(2.29226e-12 8.31126 0.995235)
(8.75339e-13 8.29397 1.56609)
(7.07565e-13 8.37509 1.64548)
(1.55325e-12 8.40197 1.02959)
(2.0979e-12 8.44429 0.302167)
(1.87796e-12 8.43159 -0.261986)
(1.64574e-12 8.62439 -0.372713)
(1.21519e-12 8.2315 -0.1323)
(8.4134e-12 11.5596 -1.53376)
(-2.54219e-13 8.46797 0.531874)
(-1.39822e-12 8.83302 0.922423)
(-2.76338e-12 8.88549 1.39242)
(-1.45436e-12 8.92948 1.40903)
(-6.08531e-13 9.01617 1.14328)
(2.81232e-13 9.09291 0.947668)
(1.28546e-12 9.37981 0.855403)
(1.63192e-12 9.18446 0.825234)
(4.86418e-12 11.984 0.181534)
(-6.28835e-13 9.18095 1.28046)
(-8.99022e-13 9.46549 1.19772)
(-1.95727e-12 9.65273 1.12178)
(-4.12861e-12 9.72407 1.19449)
(-6.23173e-12 9.76154 1.20735)
(-8.30544e-12 9.9514 1.08984)
(-1.17428e-11 9.87066 1.52124)
(-1.50051e-11 10.0614 2.15026)
(-1.75004e-11 9.79937 2.99737)
(-1.6176e-11 12.2803 3.4853)
(-1.62047e-11 9.85582 4.28146)
(-1.61824e-11 10.0137 4.68031)
(-1.63374e-11 10.1718 5.13132)
(-1.67986e-11 10.1457 5.69936)
(-1.65088e-11 10.2201 6.06779)
(-1.78118e-11 10.1397 6.78884)
(-1.9443e-11 10.257 7.58951)
(-2.08911e-11 9.93973 8.46362)
(-1.7726e-11 12.9398 8.64891)
(-1.90508e-11 10.1724 8.76945)
(-1.9828e-11 10.4971 9.04777)
(-2.19497e-11 10.5621 10.0776)
(-2.26265e-11 10.622 10.7709)
(-2.26501e-11 10.6658 11.3214)
(-2.17802e-11 10.4991 11.9726)
(-2.14523e-11 10.8351 12.0529)
(-2.09758e-11 10.2008 13.848)
(-1.64792e-11 15.4258 12.117)
(-2.05392e-11 11.4568 14.3614)
(-1.98555e-11 11.8707 14.8464)
(-1.9416e-11 12.1519 15.2105)
(-1.83552e-11 12.0187 16.2383)
(-1.71687e-11 12.1528 17.203)
(-1.65345e-11 12.2056 17.9188)
(-1.63472e-11 12.3952 18.3802)
(-1.67914e-11 12.0928 19.3471)
(-1.40563e-11 18.6779 16.1604)
(-1.7514e-11 13.8086 20.3725)
(-1.76303e-11 14.6815 21.0545)
(-1.75306e-11 14.9455 21.7944)
(-1.73114e-11 14.8418 22.6405)
(-1.70702e-11 15.0593 23.1911)
(-1.62663e-11 15.0172 24.6222)
(-1.57524e-11 15.1432 25.605)
(-1.53106e-11 15.3964 26.2354)
(-1.49626e-11 15.0214 27.5265)
(-1.24472e-11 23.5202 23.2889)
(-1.37806e-11 17.6687 28.6225)
(-1.33441e-11 18.7141 29.8231)
(-1.31314e-11 19.112 30.8689)
(-1.29387e-11 19.0053 31.9133)
(-1.26731e-11 19.1609 32.9018)
(-1.25435e-11 19.2443 33.9651)
(-1.288e-11 19.486 34.9777)
(-1.27155e-11 19.1602 36.6994)
(-1.15106e-11 29.9302 32.0979)
(-1.36356e-11 22.7529 37.1139)
(-1.37618e-11 23.8386 39.0705)
(-9.71418e-12 24.5706 29.8967)
(-1.04657e-11 18.3555 32.2565)
(-1.15465e-11 19.7207 31.2963)
(-7.2669e-12 14.8451 20.6074)
(-9.98595e-12 17.9528 23.205)
(-6.49262e-12 12.2999 16.5971)
(-9.26589e-12 11.7737 17.3673)
(-1.14923e-11 13.3715 14.3057)
(-7.1987e-12 10.089 9.1782)
(-8.72534e-12 10.1464 8.24554)
(-9.9233e-12 12.8696 3.49316)
(-6.37004e-12 8.52481 1.34575)
(-8.48897e-12 13.8048 -3.1763)
(-5.89179e-12 9.86426 -3.75262)
(-6.87192e-12 11.9555 -7.56963)
(-8.68666e-12 16.1596 -11.6217)
(-5.96443e-12 11.1554 -8.44724)
(-9.34783e-12 19.7593 -12.2573)
(-6.70702e-12 14.6462 -9.09308)
(-8.74939e-12 18.3643 -11.2599)
(-1.0781e-11 22.3573 -12.1266)
(-7.64832e-12 17.3369 -8.00664)
(-9.24266e-12 23.0577 -9.36864)
(-1.09338e-11 28.1375 -9.33656)
(-7.5719e-12 19.9305 -5.93738)
(-9.94277e-12 32.6155 -7.25151)
(-7.0947e-12 24.319 -4.70301)
(-8.61298e-12 28.9271 -5.2547)
(-9.07736e-12 35.9116 -3.62118)
(-5.95834e-12 25.6349 -1.76716)
(-7.68937e-12 41.3226 -1.05151)
(-5.426e-12 30.4169 0.191427)
(-6.22983e-12 36.4113 0.844157)
(-7.03179e-12 44.979 3.70762)
(-4.51429e-12 34.5428 3.63778)
(-5.25525e-12 44.689 4.55743)
(-5.79095e-12 55.3035 7.15634)
(-3.81947e-12 38.7875 5.47824)
(-4.77833e-12 62.4362 6.26799)
(-3.28484e-12 45.9867 5.23805)
(-3.77614e-12 54.1174 5.00465)
(-3.8525e-12 69.1344 1.42777)
(-2.51742e-12 49.6489 3.30216)
(-3.38616e-12 79.9219 -6.91069)
(-2.28343e-12 60.831 -3.21602)
(-2.57897e-12 73.1096 -14.7114)
(-2.95209e-12 98.1265 -57.6026)
(-2.07399e-12 84.1098 -40.4908)
(-2.3826e-12 109.512 -65.2918)
(-2.62605e-12 128.637 -96.6867)
(-1.72767e-12 103.544 -65.9313)
(-2.25971e-12 149.461 -101.499)
(-1.5601e-12 120.385 -75.5077)
(-1.78697e-12 140.767 -98.6979)
(-2.22266e-12 138.073 -130.854)
(-1.47369e-12 105.527 -90.6238)
(-1.89758e-12 142.991 -138.444)
(-1.4048e-12 105.323 -104.94)
(-1.72848e-12 118.369 -149.446)
(-2.02867e-12 88.2361 -218.464)
(-1.32567e-12 39.6007 -153.341)
(-2.20199e-12 79.8251 -253.122)
(-1.3325e-12 16.7341 -254.223)
(-3.55865e-13 -67.5895 -70.0522)
(-5.31019e-13 -46.6007 -88.1706)
(1.7243e-13 -121.509 27.9381)
(4.46041e-13 -136.634 92.9653)
(1.25764e-12 -350.562 255.903)
(1.32252e-12 -360.895 276.411)
(2.00704e-12 -589.225 431.306)
(1.85764e-12 -500.75 412.689)
(3.04086e-12 -782.717 683.414)
(3.33795e-12 -1052.3 761.601)
(2.91269e-12 -905.259 686.405)
(4.58166e-12 -1313.48 1088.09)
(4.53088e-12 -1537.15 1108.56)
(3.83822e-12 -1457.14 967.878)
(5.54154e-12 -2187.16 1400.16)
(4.35879e-12 -1756.93 1130.89)
(6.92877e-12 -2464.14 1811.89)
(2.47567e-16 39.068 56.2194)
(2.77412e-16 45.806 59.4976)
(1.57625e-16 48.4859 62.2346)
(-1.41046e-16 51.9148 65.7385)
(-6.91993e-16 54.7114 69.3893)
(-1.51117e-15 57.4563 73.2916)
(-2.5579e-15 59.9929 77.2666)
(-3.72711e-15 62.4762 81.2885)
(-4.87978e-15 64.9241 85.3521)
(-5.82538e-15 67.4098 89.4858)
(-6.32044e-15 69.9944 93.7158)
(-6.06394e-15 72.7565 98.0506)
(-4.72039e-15 75.7685 102.526)
(-1.95096e-15 79.0708 107.154)
(2.53622e-15 82.6783 111.926)
(8.98613e-15 86.6087 116.867)
(1.76571e-14 90.8929 122.045)
(2.88933e-14 95.5844 127.539)
(4.31387e-14 100.734 133.414)
(6.07968e-14 106.323 139.696)
(8.18773e-14 112.271 146.289)
(1.0584e-13 118.493 152.933)
(1.3197e-13 124.897 159.439)
(1.5978e-13 131.616 165.833)
(1.89522e-13 138.939 172.462)
(2.20943e-13 146.937 179.463)
(2.53348e-13 155.475 186.745)
(2.8646e-13 164.313 194.303)
(3.19936e-13 172.988 202.016)
(3.53482e-13 181.212 209.643)
(3.87687e-13 188.946 217.278)
(4.22904e-13 196.167 225.011)
(4.58646e-13 202.895 232.6)
(4.94134e-13 209.037 239.756)
(5.27787e-13 214.297 246.014)
(5.57777e-13 218.263 250.904)
(5.82986e-13 220.73 254.15)
(6.02737e-13 221.504 255.46)
(6.16601e-13 220.324 254.548)
(6.25337e-13 217.166 251.606)
(6.29353e-13 211.84 247.002)
(6.29352e-13 204.329 241.596)
(6.26326e-13 194.94 236.361)
(6.22575e-13 184.573 232.179)
(6.21289e-13 174.48 229.518)
(6.24676e-13 165.51 228.436)
(6.31983e-13 157.516 228.646)
(6.40168e-13 149.701 229.504)
(6.46319e-13 141.381 230.182)
(6.49297e-13 132.324 230.122)
(6.49645e-13 122.685 229.27)
(6.48673e-13 112.733 227.979)
(6.47128e-13 102.604 226.563)
(6.44905e-13 92.2886 225.106)
(6.41838e-13 81.7632 223.633)
(6.38358e-13 71.0845 222.3)
(6.35596e-13 60.3697 221.438)
(6.35064e-13 49.7349 221.473)
(6.38182e-13 39.2587 222.793)
(6.4553e-13 28.9873 225.51)
(6.56406e-13 18.9791 229.344)
(6.692e-13 9.37555 233.758)
(6.8284e-13 0.369825 238.396)
(6.98639e-13 -8.17473 243.648)
(7.24222e-13 -17.1039 252.039)
(7.59222e-13 -27.3681 263.47)
(8.057e-13 -39.5974 278.617)
(8.66073e-13 -54.6868 298.235)
(9.43924e-13 -73.8043 323.436)
(1.04434e-12 -98.6202 355.768)
(1.17476e-12 -131.641 397.444)
(1.34653e-12 -176.813 451.73)
(1.57732e-12 -240.58 523.525)
(1.89595e-12 -334.01 620.477)
(2.35039e-12 -476.315 754.892)
(3.01968e-12 -699.723 946.622)
(4.02165e-12 -1054.88 1226.41)
(5.46359e-12 -1583.26 1624.39)
(7.09582e-12 -2202.83 2043.19)
(2.79208e-16 38.5325 59.6012)
(2.57446e-16 44.8743 63.0546)
(4.32028e-17 47.498 65.8887)
(-3.95681e-16 50.7899 69.5616)
(-1.11696e-15 53.5228 73.2953)
(-2.09968e-15 56.2175 77.2593)
(-3.26079e-15 58.736 81.2566)
(-4.45536e-15 61.2054 85.2804)
(-5.52018e-15 63.6352 89.317)
(-6.25657e-15 66.0942 93.3961)
(-6.43145e-15 68.6466 97.5536)
(-5.76696e-15 71.3676 101.81)
(-3.95668e-15 74.3292 106.215)
(-6.92071e-16 77.5802 110.805)
(4.29302e-15 81.1337 115.586)
(1.1232e-14 84.9968 120.574)
(2.039e-14 89.1921 125.822)
(3.21345e-14 93.7737 131.402)
(4.69418e-14 98.8024 137.373)
(6.52416e-14 104.28 143.767)
(8.70861e-14 110.166 150.529)
(1.11987e-13 116.395 157.465)
(1.39018e-13 122.838 164.326)
(1.67373e-13 129.535 171.032)
(1.97274e-13 136.76 177.912)
(2.28794e-13 144.645 185.204)
(2.61455e-13 153.086 192.832)
(2.95127e-13 161.855 200.773)
(3.29495e-13 170.517 208.898)
(3.64087e-13 178.756 216.898)
(3.99279e-13 186.483 224.795)
(4.35403e-13 193.719 232.732)
(4.72047e-13 200.534 240.524)
(5.0871e-13 206.88 247.976)
(5.43894e-13 212.492 254.637)
(5.75589e-13 216.92 259.944)
(6.02731e-13 219.932 263.62)
(6.24824e-13 221.35 265.439)
(6.41025e-13 220.829 264.998)
(6.51865e-13 218.249 262.485)
(6.57136e-13 213.318 258.139)
(6.57152e-13 205.929 252.73)
(6.52829e-13 196.377 247.162)
(6.46928e-13 185.631 242.354)
(6.43433e-13 175.064 238.948)
(6.45135e-13 165.639 237.186)
(6.51687e-13 157.322 236.971)
(6.60293e-13 149.407 237.787)
(6.6797e-13 141.21 238.807)
(6.73022e-13 132.383 239.296)
(6.75313e-13 122.938 238.975)
(6.75874e-13 113.077 238.076)
(6.75702e-13 102.968 236.963)
(6.75096e-13 92.65 235.844)
(6.73933e-13 82.0954 234.771)
(6.72313e-13 71.3226 233.813)
(6.70759e-13 60.4149 233.117)
(6.70005e-13 49.4813 232.876)
(6.70846e-13 38.6348 233.303)
(6.74088e-13 27.9972 234.608)
(6.80455e-13 17.7068 236.977)
(6.90163e-13 7.91314 240.455)
(7.03247e-13 -1.31812 245.026)
(7.21049e-13 -10.3375 251.036)
(7.48092e-13 -20.0168 259.93)
(7.84755e-13 -31.1277 271.891)
(8.33134e-13 -44.3984 287.622)
(8.95853e-13 -60.7794 307.946)
(9.7665e-13 -81.5386 334.015)
(1.08084e-12 -108.489 367.433)
(1.21617e-12 -144.36 410.473)
(1.39446e-12 -193.446 466.5)
(1.63408e-12 -262.766 540.49)
(1.9649e-12 -364.353 640.191)
(2.4371e-12 -519.07 778.387)
(3.13668e-12 -761.784 977.311)
(4.19888e-12 -1144.24 1275.25)
(5.71714e-12 -1690.6 1696.42)
(7.11723e-12 -2234.19 1995.26)
(2.81983e-16 38.2523 61.7159)
(1.98885e-16 44.3947 65.2595)
(-9.84995e-17 46.9888 68.1199)
(-6.40417e-16 50.2249 71.8453)
(-1.46232e-15 52.9407 75.5757)
(-2.51373e-15 55.6234 79.5259)
(-3.68592e-15 58.142 83.4837)
(-4.82428e-15 60.6132 87.4733)
(-5.76601e-15 63.0436 91.4722)
(-6.32264e-15 65.4992 95.5088)
(-6.27755e-15 68.0417 99.6125)
(-5.37357e-15 70.7459 103.824)
(-3.31779e-15 73.6813 108.197)
(1.93077e-16 76.9004 112.786)
(5.42952e-15 80.4194 117.604)
(1.2635e-14 84.2447 122.66)
(2.20877e-14 88.3945 127.986)
(3.41695e-14 92.9209 133.649)
(4.93577e-14 97.8882 139.701)
(6.80413e-14 103.299 146.159)
(9.02854e-14 109.129 152.997)
(1.15692e-13 115.337 160.088)
(1.43199e-13 121.794 167.148)
(1.71965e-13 128.499 174.09)
(2.02011e-13 135.686 181.15)
(2.3356e-13 143.514 188.609)
(2.66362e-13 151.907 196.438)
(3.0037e-13 160.637 204.597)
(3.35287e-13 169.295 212.961)
(3.70629e-13 177.565 221.218)
(4.06534e-13 185.31 229.305)
(4.43175e-13 192.55 237.341)
(4.8032e-13 199.394 245.234)
(5.17543e-13 205.809 252.809)
(5.53504e-13 211.572 259.674)
(5.86171e-13 216.224 265.234)
(6.14393e-13 219.498 269.165)
(6.37758e-13 221.229 271.274)
(6.55293e-13 221.041 271.134)
(6.67321e-13 218.77 268.902)
(6.734e-13 214.087 264.782)
(6.73531e-13 206.827 259.448)
(6.6863e-13 197.269 253.76)
(6.61628e-13 186.386 248.615)
(6.5689e-13 175.589 244.748)
(6.57538e-13 165.899 242.545)
(6.63421e-13 157.344 242.008)
(6.71888e-13 149.284 242.683)
(6.80063e-13 141.07 243.78)
(6.86084e-13 132.328 244.516)
(6.89493e-13 122.999 244.512)
(6.9101e-13 113.217 243.882)
(6.91579e-13 103.135 242.955)
(6.91722e-13 92.8126 242.004)
(6.91479e-13 82.2464 241.141)
(6.90996e-13 71.4594 240.46)
(6.90819e-13 60.5321 240.119)
(6.91725e-13 49.5702 240.325)
(6.94349e-13 38.6722 241.242)
(6.9905e-13 27.9298 242.952)
(7.06224e-13 17.4625 245.565)
(7.16334e-13 7.42691 249.219)
(7.30009e-13 -2.15061 254.058)
(7.49251e-13 -11.7229 260.581)
(7.77857e-13 -22.0698 269.98)
(8.16431e-13 -33.9527 282.526)
(8.67117e-13 -48.1547 298.947)
(9.32718e-13 -65.6823 320.116)
(1.01713e-12 -87.8898 347.224)
(1.12595e-12 -116.717 381.941)
(1.26736e-12 -155.086 426.625)
(1.45369e-12 -207.589 484.704)
(1.70393e-12 -281.718 561.149)
(2.04925e-12 -390.364 663.851)
(2.54492e-12 -556.199 807.249)
(3.29297e-12 -817.292 1019.63)
(4.44417e-12 -1223.97 1346.09)
(5.98476e-12 -1768.02 1772.53)
(6.92506e-12 -2150.71 1898.05)
(2.74218e-16 37.8357 64.1488)
(1.12593e-16 43.7126 67.8114)
(-2.81296e-16 46.258 70.7001)
(-9.36221e-16 49.4134 74.4782)
(-1.86153e-15 52.0981 78.2048)
(-2.9766e-15 54.7593 82.1417)
(-4.14741e-15 57.2711 86.0569)
(-5.21264e-15 59.7362 90.0045)
(-6.01349e-15 62.1601 93.9587)
(-6.37282e-15 64.6032 97.9436)
(-6.09272e-15 67.1245 101.988)
(-4.93279e-15 69.7967 106.148)
(-2.6134e-15 72.6892 110.487)
(1.16501e-15 75.857 115.07)
(6.68197e-15 79.3226 119.925)
(1.41937e-14 83.0909 125.054)
(2.39878e-14 87.1738 130.471)
(3.64563e-14 91.6207 136.226)
(5.20751e-14 96.5008 142.371)
(7.12084e-14 101.827 148.917)
(9.39244e-14 107.59 155.858)
(1.19903e-13 113.775 163.135)
(1.47981e-13 120.243 170.436)
(1.7722e-13 126.944 177.649)
(2.07458e-13 134.077 184.93)
(2.39029e-13 141.82 192.575)
(2.71966e-13 150.135 200.62)
(3.06355e-13 158.804 209.031)
(3.41901e-13 167.447 217.67)
(3.7813e-13 175.747 226.238)
(4.14934e-13 183.524 234.587)
(4.52232e-13 190.785 242.774)
(4.90027e-13 197.687 250.824)
(5.27898e-13 204.214 258.558)
(5.64731e-13 210.189 265.659)
(5.9855e-13 215.159 271.532)
(6.28046e-13 218.812 275.776)
(6.52896e-13 220.984 278.231)
(6.72029e-13 221.265 278.46)
(6.85466e-13 219.428 276.563)
(6.92545e-13 215.088 272.717)
(6.92909e-13 208.006 267.482)
(6.87476e-13 198.437 261.673)
(6.79347e-13 187.367 256.172)
(6.73197e-13 176.254 251.781)
(6.72566e-13 166.201 249.055)
(6.77577e-13 157.329 248.121)
(6.85795e-13 149.086 248.606)
(6.94476e-13 140.857 249.767)
(7.01614e-13 132.226 250.783)
(7.06364e-13 123.04 251.155)
(7.0908e-13 113.358 250.867)
(7.10627e-13 103.313 250.198)
(7.11698e-13 92.9823 249.465)
(7.12508e-13 82.3797 248.84)
(7.13175e-13 71.5227 248.419)
(7.14062e-13 60.4759 248.318)
(7.15862e-13 49.3432 248.729)
(7.19291e-13 38.2459 249.85)
(7.24817e-13 27.3004 251.808)
(7.32803e-13 16.6359 254.716)
(7.43687e-13 6.40999 258.704)
(7.58237e-13 -3.39071 263.908)
(7.78939e-13 -13.3306 270.939)
(8.09156e-13 -24.2147 280.853)
(8.49715e-13 -36.7487 294.012)
(9.02832e-13 -51.7601 311.17)
(9.71467e-13 -70.2978 333.245)
(1.05971e-12 -93.7901 361.48)
(1.17344e-12 -124.287 397.608)
(1.32127e-12 -164.874 444.068)
(1.51583e-12 -220.377 504.263)
(1.77666e-12 -298.717 583.154)
(2.13757e-12 -413.785 689.374)
(2.66368e-12 -590.642 841.091)
(3.47522e-12 -870.243 1073.85)
(4.7045e-12 -1294.13 1426.67)
(6.17242e-12 -1811.07 1827.62)
(6.7523e-12 -2066.6 1836.11)
(2.45653e-16 37.4487 66.5719)
(-1.26825e-17 43.0949 70.3366)
(-5.10063e-16 45.5991 73.2297)
(-1.27451e-15 48.6935 77.0288)
(-2.28503e-15 51.3601 80.7229)
(-3.43223e-15 54.0095 84.617)
(-4.56551e-15 56.5205 88.4726)
(-5.52419e-15 58.9839 92.3625)
(-6.1604e-15 61.4056 96.2599)
(-6.31466e-15 63.8413 100.189)
(-5.8088e-15 66.3459 104.178)
(-4.4191e-15 68.9895 108.292)
(-1.87434e-15 71.8395 112.602)
(2.1272e-15 74.9534 117.185)
(7.88378e-15 78.3615 122.084)
(1.56747e-14 82.0725 127.298)
(2.57996e-14 86.0939 132.819)
(3.8653e-14 90.47 138.681)
(5.47115e-14 95.2733 144.934)
(7.43128e-14 100.521 151.589)
(9.74713e-14 106.208 158.631)
(1.23925e-13 112.348 166.061)
(1.52565e-13 118.815 173.613)
(1.82274e-13 125.521 181.107)
(2.12724e-13 132.619 188.624)
(2.44321e-13 140.288 196.453)
(2.77368e-13 148.527 204.694)
(3.1213e-13 157.137 213.347)
(3.483e-13 165.761 222.254)
(3.85443e-13 174.091 231.138)
(4.23221e-13 181.915 239.782)
(4.6125e-13 189.208 248.153)
(4.99694e-13 196.155 256.366)
(5.38154e-13 202.765 264.248)
(5.75761e-13 208.911 271.563)
(6.10654e-13 214.15 277.738)
(6.4132e-13 218.131 282.276)
(6.67602e-13 220.683 285.081)
(6.88312e-13 221.387 285.7)
(7.03141e-13 219.951 284.163)
(7.11247e-13 215.947 280.623)
(7.11999e-13 209.08 275.546)
(7.06249e-13 199.566 269.676)
(6.97222e-13 188.386 263.875)
(6.89824e-13 177.016 259.001)
(6.87896e-13 166.623 255.744)
(6.91874e-13 157.419 254.364)
(6.99594e-13 148.942 254.58)
(7.085e-13 140.628 255.712)
(7.16551e-13 132.054 256.942)
(7.22584e-13 122.99 257.676)
(7.2655e-13 113.416 257.755)
(7.29138e-13 103.423 257.383)
(7.31106e-13 93.0903 256.881)
(7.32879e-13 82.4569 256.491)
(7.34675e-13 71.554 256.347)
(7.3678e-13 60.4413 256.553)
(7.39735e-13 49.2102 257.265)
(7.44202e-13 37.9778 258.671)
(7.50695e-13 26.861 260.926)
(7.59592e-13 15.9825 264.161)
(7.71335e-13 5.48254 268.513)
(7.86818e-13 -4.68906 274.106)
(8.0904e-13 -15.1244 281.672)
(8.4092e-13 -26.6277 292.127)
(8.83523e-13 -39.8957 305.93)
(9.39143e-13 -55.8051 323.861)
(1.01091e-12 -75.4571 346.889)
(1.10312e-12 -100.362 376.315)
(1.22193e-12 -132.685 413.922)
(1.37617e-12 -175.67 462.155)
(1.57862e-12 -234.387 524.333)
(1.84992e-12 -317.336 605.66)
(2.22913e-12 -439.931 716.676)
(2.79523e-12 -630.254 880.996)
(3.67989e-12 -930.446 1138.72)
(4.96471e-12 -1366.36 1508.73)
(6.29899e-12 -1842.94 1856.04)
(6.39418e-12 -1977.89 1711.55)
(1.91757e-16 37.0286 69.0438)
(-1.80003e-16 42.4441 72.898)
(-7.83558e-16 44.9069 75.775)
(-1.64912e-15 47.9423 79.5697)
(-2.7238e-15 50.5922 83.2115)
(-3.87366e-15 53.2301 87.0444)
(-4.94008e-15 55.7394 90.8294)
(-5.76908e-15 58.1988 94.6516)
(-6.2288e-15 60.6151 98.4847)
(-6.17977e-15 63.0409 102.357)
(-5.46023e-15 65.5258 106.298)
(-3.86173e-15 68.1353 110.372)
(-1.11861e-15 70.935 114.658)
(3.0784e-15 73.9859 119.245)
(9.05126e-15 77.3261 124.189)
(1.71106e-14 80.971 129.492)
(2.75725e-14 84.9257 135.131)
(4.0825e-14 89.2273 141.112)
(5.73411e-14 93.9508 147.485)
(7.74413e-14 99.1199 154.271)
(1.01046e-13 104.727 161.426)
(1.27926e-13 110.811 168.998)
(1.5708e-13 117.264 176.792)
(1.87255e-13 123.974 184.577)
(2.17947e-13 131.042 192.349)
(2.49619e-13 138.639 200.384)
(2.8278e-13 146.794 208.817)
(3.17897e-13 155.334 217.7)
(3.54694e-13 163.926 226.871)
(3.92779e-13 172.282 236.079)
(4.31607e-13 180.162 245.052)
(4.70439e-13 187.503 253.643)
(5.09573e-13 194.504 262.044)
(5.48609e-13 201.203 270.082)
(5.86913e-13 207.518 277.594)
(6.22844e-13 213.035 284.073)
(6.5466e-13 217.352 288.911)
(6.82391e-13 220.298 292.084)
(7.04688e-13 221.443 293.113)
(7.20976e-13 220.431 291.974)
(7.30206e-13 216.793 288.782)
(7.31516e-13 210.176 283.918)
(7.25655e-13 200.756 278.041)
(7.15918e-13 189.494 271.985)
(7.0738e-13 177.879 266.658)
(7.04121e-13 167.133 262.86)
(7.06917e-13 157.569 260.989)
(7.13931e-13 148.821 260.867)
(7.22839e-13 140.385 261.891)
(7.31622e-13 131.831 263.269)
(7.38875e-13 122.873 264.338)
(7.44161e-13 113.411 264.81)
(7.47918e-13 103.482 264.785)
(7.50863e-13 93.1554 264.555)
(7.53572e-13 82.4828 264.405)
(7.56397e-13 71.5114 264.521)
(7.59632e-13 60.3026 265.019)
(7.63701e-13 48.9408 266.032)
(7.69171e-13 37.5438 267.733)
(7.76609e-13 26.2419 270.297)
(7.86416e-13 15.1701 273.874)
(7.99036e-13 4.44945 278.592)
(8.15474e-13 -6.04941 284.566)
(8.39275e-13 -16.9771 292.672)
(8.72878e-13 -29.1196 303.687)
(9.17591e-13 -43.1619 318.161)
(9.75801e-13 -60.0246 336.9)
(1.05081e-12 -80.8647 360.925)
(1.1471e-12 -107.274 391.579)
(1.271e-12 -141.53 430.657)
(1.43136e-12 -187.022 480.52)
(1.64126e-12 -249.127 544.486)
(1.92384e-12 -337.209 628.62)
(2.32662e-12 -468.789 746.714)
(2.9432e-12 -674.948 928.054)
(3.90153e-12 -995.831 1210.95)
(5.20077e-12 -1435.91 1582.36)
(6.32883e-12 -1856.94 1853.79)
(6.00162e-12 -1853.57 1593.14)
(1.07001e-16 36.603 71.5439)
(-3.92604e-16 41.8023 75.4665)
(-1.0996e-15 44.2293 78.3024)
(-2.05194e-15 47.2139 82.0659)
(-3.16528e-15 49.8522 85.6349)
(-4.28748e-15 52.4818 89.3904)
(-5.25958e-15 54.9902 93.0927)
(-5.94095e-15 57.4457 96.839)
(-6.21829e-15 59.856 100.604)
(-5.97215e-15 62.2705 104.422)
(-5.05458e-15 64.7345 108.321)
(-3.26892e-15 67.3086 112.365)
(-3.52608e-16 70.0554 116.637)