/*--------------------------------*- C++ -*----------------------------------*\
| =========                 |                                                 |
| \\      /  F ield         | OpenFOAM: The Open Source CFD Toolbox           |
|  \\    /   O peration     | Version:  4.1                                   |
|   \\  /    A nd           | Web:      www.OpenFOAM.org                      |
|    \\/     M anipulation  |                                                 |
\*---------------------------------------------------------------------------*/
FoamFile
{
    version     2.0;
    format      ascii;
    class       surfaceScalarField;
    location    "9";
    object      phi;
}
// * * * * * * * * * * * * * * * * * * * * * * * * * * * * * * * * * * * * * //

dimensions      [0 3 -1 0 0 0 0];

internalField   nonuniform List<scalar> 
13220
(
-949.889
2249.78
-1573.97
1924.28
-2054.02
1779.95
-2424.26
1670.13
-2699.89
1575.83
-2888.42
1488.42
-2993.1
1404.58
-3013.91
1321
-2949.67
1235.66
-2797.3
1147.52
-2551.23
1054.14
-2193.07
941.736
-1687.24
794.062
-1012.73
625.689
287.169
373.296
1876.46
442.718
1854.84
437.235
1785.38
406.639
1700.72
380.488
1601.93
359.821
1509.08
345.184
1419.17
337.443
1328.74
333.375
1239.69
326.856
1154.03
309.513
1071.45
267.386
983.842
191.367
870.049
111.419
705.604
398.587
33.5337
1842.88
-97.4348
1985.8
-253.705
1941.61
-371.222
1818.23
-473.336
1703.99
-567.698
1603.43
-651.952
1503.38
-726.011
1402.78
-788.318
1301.96
-837.568
1203.25
-868.495
1102.35
-856.339
971.64
-740.51
754.155
-434.325
399.346
-35.7379
28.7698
1814.06
-100.677
2115.23
-225.647
2066.5
-304.572
1897.14
-368.293
1767.63
-417.071
1652.2
-446.404
1532.63
-457.168
1413.53
-452.047
1296.76
-430.334
1181.51
-387.407
1059.37
-312.023
896.216
-192.982
635.035
-48.487
254.77
-84.2255
169.766
1644.23
146.326
2138.67
123.828
2088.9
123
1897.98
126.998
1763.52
135.911
1643.3
149.143
1519.29
166.678
1396.01
186.99
1276.37
208.206
1160.28
229.221
1038.33
243.877
881.506
232.983
645.866
155.106
332.585
70.8803
223.644
1420.5
244.957
2117.37
235.357
2098.34
236.665
1896.69
240.899
1759.11
244.921
1639.31
247.034
1517.01
245.812
1397.28
241.621
1280.44
234.478
1167.45
221.783
1050.95
199.516
903.815
156.386
689.01
78.3707
410.611
149.25
204.896
1215.44
240.743
2081.53
215.782
2123.14
193.471
1919.02
179.142
1773.28
165.772
1652.7
151.935
1530.73
137.788
1411.42
122.881
1295.29
108.661
1181.64
94.4858
1065.13
77.141
921.038
52.9322
713.072
19.4164
443.992
168.667
175.62
1039.58
228.128
2029.06
205.258
2145.67
175.811
1948.52
157.056
1791.73
142.704
1667.13
127.488
1545.74
113.217
1425.79
99.8628
1308.51
87.171
1194.39
75.0824
1077.12
61.7406
934.498
42.5388
732.367
16.7559
469.855
185.42
153.88
885.397
223.756
1959.21
210.801
2158.36
182.807
1976.54
164.425
1809.81
151.428
1680.15
138.478
1558.46
124.899
1439.37
111.7
1321.54
99.1344
1206.88
85.8639
1090.33
70.456
949.582
49.4953
752.972
21.7242
497.303
207.146
131.587
753.406
212.211
1878.77
208.325
2161.67
180.42
2004.65
160.934
1828.75
146.878
1694.45
132.696
1572.15
119.328
1452.99
104.841
1335.71
91.3577
1220.56
77.6245
1103.85
62.337
965.267
42.4319
773.169
17.7799
522.217
224.923
108.737
644.186
194.427
1793.66
200.822
2154.74
175.561
2030.48
156.228
1847.6
144.235
1707.02
130.763
1585.34
117.781
1466.45
104.282
1349.2
90.2597
1234.79
76.4857
1118.01
60.6582
980.525
40.7863
792.638
17.3161
545.335
242.253
95.8163
547.74
183.52
1707.14
198.064
2139.13
172.869
2056.79
145.93
1873.74
129.383
1724.75
114.65
1599.69
101.594
1480.6
88.3934
1362.31
77.184
1246.95
64.5093
1130.57
52.1206
994.739
34.6246
811.743
13.042
568.366
255.259
92.1999
454.513
232.957
1567.29
279.001
2092.23
274.143
2062.4
268.914
1878.69
268.368
1725.98
262.488
1605.7
250.601
1492.91
233.119
1380.56
210.805
1268.86
187.714
1156.01
151.828
1025.76
108.785
850.943
55.4026
618.429
310.82
155.266
298.28
279.373
1446.08
317.023
2053.8
263.25
2118.76
185.687
1956.63
131.63
1783.19
101.869
1637.26
89.6984
1509.13
85.1708
1388.23
85.6872
1273.85
83.6249
1161.26
83.7882
1038.22
69.9338
882.108
36.7927
667.947
347.936
-152.23
316.221
924.611
1361.03
1577.11
1653.83
1629.95
1542.91
1416.45
1249.9
1066.23
855.177
625.347
341.948
-2.26982
987.419
-998.293
985.149
976.651
978.584
1913.58
-938.452
1916.91
1916.18
1919.69
2685.39
-765.453
2688.68
2689
3275.14
-584.242
3276.42
3278.36
3278.47
3678.68
-399.308
3678.71
3679.59
3923.36
-244.362
3924.4
3924.24
3925.01
3999.36
-74.4396
4000.12
4000.76
4000.98
3905.13
96.9977
3905.51
3906.22
3667.87
237.824
3668.21
3667.86
3667.58
3285.39
381.467
3283.63
3283.35
2832.56
448.576
2832.07
2829.54
2830.01
2360.66
467.043
2361.42
2358.53
2360.62
1951.8
406.219
1953.6
1950.57
1668.9
284.496
1666.62
1668.99
1667.56
1399.64
270.404
1399.92
1402.76
1402.94
1008.29
396.573
1009.84
1011.17
482.231
530.34
483.747
485.569
486.055
-104.35
591.905
-102.327
-101.905
-1173.38
1072.47
-1173.84
-1171.46
-1171.35
-2778.26
1608.95
-2776.5
-2773.61
-2770.96
-4749.15
1978.8
-4743.98
-4745.98
-6983
2240.5
-6985.74
-6982.19
-6866.89
-6740.76
-6605.16
-8890.8
2420.35
-8768.31
-8612.67
-8435.01
-8251.82
-8070.36
-7892.21
-7708.73
-7499.93
-9840.24
2548.1
-9623.41
-9411.39
-9200.54
-8970.14
-8735.91
-8501.69
-8266.66
-8029
-10361.2
2573.5
-10108.5
-9855.68
-9602.47
-9350.45
-9093.31
-8825.38
-8554.96
-8282.76
-8008.65
-10220.6
2474.66
-9936.29
-9651.48
-9364.6
-9080.87
-8795.88
-8499.79
-8193.62
-7888.79
-9795.35
2198.38
-9502.69
-9202.19
-8890.81
-8577.53
-8265.88
-7952.92
-7641.3
-7311.09
-8730.19
1737
-8412.98
-8097.24
-7783.95
-7457.77
-7124.75
-6793.51
-6463.9
-6141.12
-6822.96
1001.02
-6503.79
-6186.63
-5873.75
-5562.68
-5260.06
-4968.11
-4687.44
-4413.12
-4150.76
-3734.32
-151.426
-3520.57
-3327.04
-3143.47
-2963.03
-2782.45
-2631.14
-2550.06
-2464.79
-1658.48
-713.442
-1581.95
-1502.01
-1504.3
-905.716
-605.784
-364.05
-543.586
-375.74
129.885
-510.073
102.448
542.794
-436.653
931.261
-404.926
939.938
1281.45
-348.799
1591.9
-300.929
1591.43
1889.73
-289.56
1890.34
2161.51
-263.486
2389.28
-226.799
2394.16
2604.52
-207.484
2608.4
2795.24
-181.999
2951.08
-153.659
2954.59
3092.17
-136.14
3206.62
-112.022
3206.6
3309.12
-101.531
3308.49
3398.82
-90.0075
3462.39
-64.5542
3462.42
3528.49
-66.9229
3527.7
3591.52
-64.8231
3628.49
-38.3769
3628.05
3678.47
-51.6212
3703.98
-25.8535
3703.58
3740.14
-36.6651
3739.28
3781.13
-41.9525
3791.88
-12.3368
3791.78
3821.37
-31.0097
3821.54
3860.35
-39.7621
3872.2
-11.4849
3871.4
3907.48
-35.87
3916.18
-10.2922
3916.49
3942.94
-28.0284
3943.47
3978.29
-35.9872
3987.65
-8.38779
3986.61
4019.19
-31.5013
4017.94
4060.09
-41.2787
4075.84
-17.2413
4077.21
4121.22
-44.9476
4147.97
-25.2101
4147.33
4194.1
-45.2391
4193.41
4246.82
-51.8221
4277.32
-30.7959
4278.73
4337.08
-58.8302
4338.59
4405.51
-67.3865
4458.16
-51.0684
4458.57
4543.44
-83.6381
4620.73
-76.0876
4621.49
4722.97
-100.872
4723.13
-117.398
-306.279
804.43
-302.397
769.841
-295.939
643.624
-289.024
503.26
-282.275
342.484
-277.334
181.873
-271.602
53.0174
-255.226
-128.35
-219.645
-599.808
-211.547
-1095.56
-160.875
-845.924
-166.645
-1123.99
-165.788
-988.269
-137.415
-718.164
-122.946
-809.111
-128.007
-866.758
-136.832
-757.967
-135.252
-511.023
-140.265
-431.216
-148.713
-238.154
-140.244
139.628
-121.25
551.083
-118.756
765.251
-63.7259
1268.63
-124.941
719.494
-89.4189
771.636
-83.1448
1274.14
-115.851
576.334
-110.809
644.421
-72.1147
900.825
-68.7111
1318.67
-91.2129
448.193
-96.6311
705.104
-139.302
137.197
-154.24
436.39
-156.972
661.917
-161.534
845.78
-171.629
1059.56
-187.663
1341.52
-205.887
1719.57
-218.001
2190.27
-213.251
2686.6
-182.601
3033
-124.664
2910.23
-59.2493
1935.67
-28.2882
221.619
5.99018
717.384
42.7472
484.272
67.5293
111.282
96.6531
-343.127
83.4387
-586.262
89.0839
-692.776
63.6922
-644.63
20.4949
-1183.12
57.7031
6729.35
74.7838
9392.25
69.8389
7053.99
19.4118
3349.31
68.2663
637.964
143.355
-2911.95
92.1629
-3968.45
31.4667
-3239.93
199.762
2605.09
352.421
5143.05
452.019
5049.68
546.271
4556.95
608.898
3717.35
662.696
2759.43
724.681
1841.76
784.103
1058.3
808.456
381.537
815.716
-72.9352
768.496
-842.874
673.6
-1503.35
551.264
-2085.18
421.436
-2643.17
281.448
-3142.65
160.894
-3406.54
-3866.83
-320.379
798.753
-308.496
758.468
-296.239
631.739
-283.672
490.554
-273.487
330.663
-266.005
172.448
-245.666
29.8027
-187.98
-189.255
-137.945
-658.524
-187.416
-1058.18
-129.899
-905.915
-152.741
-1102.88
-163.551
-979.7
-132.079
-753.014
-117.196
-827.459
-122.934
-864.078
-137.4
-746.361
-138.758
-512.9
-144.567
-428.313
-150.736
-234.64
-142.399
128.822
-121.829
527.745
-113.017
754.734
-19.8666
1172.89
-74.2543
761.124
-108.345
800.854
-85.3342
1250.05
-120.396
610.441
-106.644
629.962
-113.327
907.207
-74.8473
1281.88
-105.686
482.289
-84.2588
686.403
-135.064
193.546
-153.43
459.393
-157.175
669.184
-161.533
853.234
-171.401
1071.81
-187.22
1358.93
-205.349
1738.72
-218.332
2203.67
-215.629
2684.04
-187.23
3004.57
-127.604
2850.5
-49.229
1858.94
-22.7476
202.58
10.0002
689.392
52.5954
448.62
87.6644
79.5891
124.805
-371.487
97.2697
-555.887
91.1306
-674.843
62.2676
-612.857
16.8257
-1134.77
61.4833
6685.43
74.8566
9379.56
66.1325
7063.21
70.8506
3345.08
54.4682
670.698
136.884
-2993.13
87.0978
-3919.05
1.51147
-3154.56
216.444
2392.66
371.959
4989.13
456.662
4966.65
543.826
4471.23
601.612
3660.35
641.208
2720.51
674.798
1810
704.836
1030.4
721.748
368.142
731.061
-78.3375
670.673
-781.045
571.97
-1403.61
464.106
-1975.19
358.822
-2535.69
242.315
-3023.66
129.319
-3290.78
-3836.71
-325.752
790.743
-311.984
744.764
-297.473
617.332
-282.831
475.949
-271.134
318.228
-260.034
160.854
-231.515
0.354702
-168.6
-252.434
-127.255
-703.17
-175.162
-1010.4
-140.95
-937.314
-160.015
-1082.42
-161.916
-976.062
-134.512
-776.563
-125.237
-832.795
-132.229
-853.693
-144.033
-731.416
-143.935
-509.228
-148.704
-419.945
-152.995
-227.245
-144.459
123.713
-122.313
509.889
-106.873
743.804
-30.2223
1103.78
-72.2737
801.826
-104.942
831.892
-66.7537
1212.08
-96.0361
639.578
-104.376
637.944
-119.945
921.985
-83.6584
1246.65
-111.876
511.143
-89.9047
665.295
-132.76
237.087
-150.086
477.802
-155.908
675.842
-161.316
859.585
-171.561
1082.8
-187.393
1375.32
-205.345
1757.16
-218.456
2217.05
-216.603
2682.4
-189.076
2977.2
-128.323
2789.51
-46.4225
1778.01
-22.5438
180.912
8.79464
659.417
51.2395
409.43
83.5569
47.5597
118.136
-404.615
97.7892
-541.234
82.2481
-672.839
61.1488
-595.412
18.6672
-1096.15
62.3138
6641.92
75.7298
9366.36
65.9362
7072.68
36.5747
3374.47
72.2435
629.389
132.211
-3052.63
83.494
-3870.56
2.38741
-3072.57
217.258
2177.58
376.084
4830.46
455.067
4887.94
534.576
4392.06
587.759
3607.41
617.74
2690.8
634.38
1794.35
645.207
1020.54
651
364.519
657.981
-83.4834
608.269
-729.807
528.348
-1322.82
441.553
-1888.57
350.353
-2445.34
239.577
-2913.89
133.039
-3185.4
-3779.93
-328.626
781.247
-313.739
729.45
-297.832
600.575
-282.17
458.878
-269.464
302.668
-254.671
143.005
-220.82
-37.3119
-161.124
-315.976
-133.555
-739.938
-166.837
-987.095
-144.876
-961.724
-157.973
-1071.38
-159.263
-977.323
-134.242
-804.558
-125.872
-844.264
-132.14
-850.246
-143.997
-722.242
-144.209
-511.868
-148.575
-418.079
-154.035
-224.124
-147.357
115.066
-124.2
484.858
-104.085
723.196
-41.3457
1040.86
-73.292
825.639
-101.505
857.064
-63.0652
1173.3
-89.0037
665.525
-104.062
653.48
-119.932
938.289
-86.0926
1214.57
-112.611
540.182
-94.6071
649.688
-131.691
278.331
-147.797
497.656
-154.815
685.775
-161.231
868.581
-172.068
1095.65
-188.011
1392.64
-205.768
1775.86
-218.755
2230.48
-217.124
2680.96
-189.607
2949.61
-127.517
2727.06
-44.5815
1696.09
-22.7114
163.415
7.07936
632.767
49.344
372.889
80.8062
18.011
112.399
-428.543
94.8097
-522.101
73.3309
-642.711
58.5937
-578.488
20.1928
-1055.37
62.5464
6600.07
76.5266
9352.93
66.0809
7083.43
31.8267
3408.84
89.2427
580.948
129.601
-3092.04
78.0316
-3820.06
3.00328
-2998.12
214.021
1969.44
374.922
4671.26
451.222
4813.47
524.07
4320.91
574.038
3558.64
598.226
2667.96
603.954
1791.5
601.317
1026.73
597.574
373.953
602.647
-81.0667
560.173
-684.035
493.216
-1253.52
418.807
-1810.89
333.95
-2357.44
226.825
-2803.4
117.169
-3072.09
-3744.05
-330.917
771.318
-315.004
713.455
-298.148
583.698
-282.082
442.825
-268.526
288.478
-250.312
124.548
-213.067
-75.0993
-157.921
-370.642
-139.046
-761.138
-160.109
-964.157
-145.595
-973.275
-154.963
-1060.44
-156.31
-974.107
-134.631
-822.332
-127.248
-847.585
-134.12
-839.827
-146.68
-706.337
-147.142
-507.498
-151.7
-409.745
-157.541
-215.051
-151.338
112.441
-127.998
465.691
-105.268
704.939
-51.5298
994.474
-75.4191
849.866
-98.9089
879.652
-60.0905
1135.12
-84.5463
689.997
-104.97
673.602
-119.961
952.317
-88.5311
1183.99
-113.366
564.92
-98.0855
634.654
-130.599
310.338
-146.129
513.272
-154.022
693.727
-161.309
876.175
-172.772
1107.37
-188.879
1408.96
-206.464
1793.73
-219.219
2243.4
-217.456
2679.37
-189.496
2921.75
-126.15
2663.32
-43.4694
1613.94
-23.0648
143.218
5.13464
604.751
46.4903
333.618
78.2399
-15.237
104.261
-455.902
90.6013
-515.33
66.5302
-632.534
55.8401
-572.152
20.4697
-1024.29
62.3707
6558.16
77.054
9338.31
66.806
7093.11
32.4407
3442.71
100.026
505.572
126.374
-3118.4
72.3642
-3766.27
3.48838
-2928.64
209.056
1762.69
371.027
4508.94
446.726
4737.65
513.723
4253.99
561.101
3511.36
581.633
2647.6
580.587
1793.39
568.665
1039.45
557.801
387.112
561.87
-82.8318
525.526
-645.977
469.064
-1196.06
403.191
-1744.94
321.664
-2276.7
217.533
-2700.23
119.003
-2974.69
-3676.5
-332.911
761.577
-316.203
696.286
-298.858
565.482
-282.755
425.369
-268.3
271.29
-246.968
100.373
-207.57
-118.177
-156.514
-425.489
-142.586
-784.676
-155.833
-958.255
-145.811
-986.043
-152.775
-1055.98
-153.954
-975.838
-135.559
-843.585
-129.514
-856.561
-137.299
-834.806
-149.558
-696.76
-150.2
-509.555
-155.048
-407.204
-161.162
-211.154
-155.41
104.919
-132.548
441.262
-108.584
680.758
-62.921
949.17
-79.5952
860.66
-96.4642
894.283
-58.4236
1096.97
-81.7445
713.452
-106.329
698.804
-120.041
966.576
-90.9988
1156.67
-113.836
589.767
-101.008
623.979
-129.963
342.606
-145.003
531.462
-153.539
704.748
-161.678
886.536
-173.74
1121.16
-190.005
1426.42
-207.387
1811.96
-219.789
2256.22
-217.624
2677.42
-188.962
2893.03
-124.545
2598.47
-42.5749
1532.9
-23.8661
128.323
3.05428
580.588
43.3038
298.927
74.3471
-45.1418
93.7885
-470.803
88.0701
-509.844
59.55
-599.09
52.5245
-564.163
19.6413
-989.272
61.7888
6516.38
77.352
9323.18
67.8499
7102.6
35.7262
3474.3
107.848
436.747
122.61
-3132.73
66.1388
-3711.63
3.37058
-2867.23
203.056
1565.09
365.166
4348.11
441.542
4662.82
503.687
4193.39
548.726
3467.42
567.137
2630.57
562.532
1801.27
545.158
1061.16
529.332
410.291
532.687
-75.388
501.679
-609.769
452.213
-1142.84
390.68
-1678.9
310.109
-2192.2
208.066
-2593.87
110.492
-2872.59
-3630.55
-334.68
752.328
-317.476
679.131
-300.05
548.252
-284.043
409.723
-268.478
255.546
-244.254
76.4861
-203.4
-158.857
-155.5
-471.813
-145.029
-796.501
-153.32
-947.335
-146.01
-990.08
-151.06
-1048.97
-152.119
-972.66
-136.796
-854.99
-132.18
-857.093
-140.772
-822.572
-152.492
-681.516
-153.403
-504.713
-158.781
-398.012
-165.228
-201.461
-159.967
103.238
-137.899
422.989
-113.359
660.37
-72.734
915.314
-84.0381
872.775
-95.0504
904.595
-58.4244
1061.22
-80.8246
735.811
-108.171
725.662
-120.299
977.412
-93.394
1130.4
-114.115
609.943
-103.508
613.114
-129.767
367.629
-144.347
545.448
-153.382
713.294
-162.333
895.349
-174.963
1133.71
-191.367
1442.8
-208.507
1829.23
-220.448
2268.25
-217.662
2674.78
-188.086
2863.52
-122.769
2532.69
-41.5971
1452.11
-25.1101
111.202
0.704405
554.464
39.5717
261.771
65.2117
-73.917
80.151
-489.439
85.6922
-522.605
53.6659
-580.261
49.8821
-565.066
18.7823
-962.55
60.8952
6474.2
77.373
9306.68
69.0238
7110.24
40.0244
3502.48
113.085
356.356
117.943
-3137.89
58.6548
-3652.34
1.85653
-2810.1
195.817
1369.3
357.619
4185.59
435.475
4584.51
493.973
4134.67
536.844
3424.4
554.253
2613.04
548.368
1807.56
528.501
1081.2
509.235
431.107
512.09
-76.6882
485.193
-581.719
439.671
-1096.69
379.831
-1619.08
299.537
-2112.88
199.58
-2495.09
98.0675
-2772.41
-3592.09
-336.309
743.38
-318.903
661.462
-301.689
530.434
-285.701
392.727
-268.744
236.204
-241.74
47.0063
-199.669
-204.419
-153.945
-521.092
-146.551
-813.694
-151.813
-947.658
-146.252
-998.435
-150.046
-1047.87
-151.105
-974.629
-138.43
-870.32
-135.115
-863.053
-144.174
-816.076
-155.365
-672.868
-156.873
-505.667
-162.905
-394.023
-169.693
-196.72
-164.883
96.8193
-143.919
400.528
-119.496
635.586
-83.2202
879.124
-89.4333
873.926
-94.4776
907.632
-60.7741
1027.35
-82.0409
756.991
-110.222
754.205
-120.591
988.143
-95.6363
1106.98
-114.247
630.086
-105.799
606.487
-129.983
394.354
-144.052
562.058
-153.528
724.783
-163.259
906.904
-176.409
1148.27
-192.921
1460.25
-209.769
1846.77
-221.148
2279.94
-217.553
2671.35
-186.885
2832.74
-120.827
2466.06
-40.4264
1372.48
-26.6512
100.581
-1.71825
531.875
36.1651
229.077
60.5373
-98.5316
75.6812
-504.206
85.7901
-534.888
47.895
-541.73
47.9709
-565.432
18.5805
-930.999
59.7858
6433.27
77.0417
9289.78
70.2481
7116.73
44.4654
3527.13
116.918
284.255
112.448
-3133.35
50.6713
-3593.04
-1.06772
-2760.6
187.253
1181.44
348.5
4024.94
428.448
4505.62
484.534
4079.78
525.463
3384.23
542.531
2597.05
536.85
1816.41
516.55
1105.9
495.248
460.114
497.822
-66.4421
473.248
-550.742
429.394
-1048.15
369.966
-1554.29
289.794
-2028.21
192.421
-2392.75
102.88
-2677.87
-3517.29
-337.91
734.572
-320.575
644.286
-303.738
513.953
-287.578
377.179
-268.946
217.691
-239.252
18.0393
-196.122
-246.841
-151.964
-562.789
-147.529
-818.198
-151.172
-941.062
-146.724
-999.317
-149.7
-1042.54
-150.827
-971.108
-140.429
-876.734
-138.298
-861.034
-147.581
-803.009
-158.398
-658.307
-160.691
-499.366
-167.395
-383.429
-174.569
-186.252
-170.28
96.1118
-150.597
384.286
-126.629
615.384
-93.006
851.573
-95.3272
876.988
-95.6687
907.235
-65.7261
998.364
-85.6205
776.701
-112.757
780.626
-121.159
994.923
-97.7749
1084.01
-114.38
645.807
-107.97
599.39
-130.555
415.196
-144.097
574.506
-153.992
733.78
-164.46
916.901
-178.081
1161.56
-194.656
1476.61
-211.155
1863.27
-221.865
2290.65
-217.276
2666.85
-185.334
2800.8
-118.652
2398.78
-39.2447
1293.26
-28.374
88.0983
-4.21287
506.859
32.5178
193.734
56.0501
-127.194
72.5902
-525.49
86.5873
-555.891
43.492
-514.188
48.2912
-575.221
19.7098
-907.485
58.4824
6394.38
76.2949
9271.87
71.363
7120.85
49.1827
3548.27
119.335
207.494
105.824
-3120.4
41.7638
-3528.81
-5.65408
-2713.03
177.312
996.03
337.844
3863.38
420.368
4422.38
475.194
4024.51
514.565
3344.52
531.713
2579.54
527.122
1821.03
507.594
1124.97
485.341
482.894
487.057
-67.7519
463.619
-526.803
420.419
-1004.82
360.972
-1495.11
281.052
-1949.59
185.88
-2299.12
95.6776
-2589.41
-3474.87
-339.578
725.655
-322.52
627.072
-306.081
497.019
-289.455
359.664
-268.89
194.781
-236.575
-16.7673
-192.579
-294.583
-149.714
-609.425
-147.738
-830.388
-151.087
-942.466
-147.49
-1005.8
-150.098
-1042.79
-151.361
-973.011
-142.862
-887.836
-141.775
-864.633
-151.267
-795.998
-161.774
-650.289
-164.791
-498.705
-172.102
-378.034
-179.61
-180.756
-175.904
90.7821
-157.737
364.408
-134.657
591.414
-103.495
819.711
-102.07
870.402
-98.1746
901.156
-71.9301
971.721
-90.1923
794.527
-115.561
806.045
-121.867
1001.35
-99.8992
1063.37
-114.598
661.66
-110.142
596.458
-131.416
438.423
-144.464
589.621
-154.777
745.734
-165.93
929.558
-179.964
1176.74
-196.555
1493.93
-212.637
1879.88
-222.561
2300.76
-216.798
2661.15
-183.419
2767.17
-116.218
2330.77
-38.0645
1215.58
-30.1919
82.108
-6.36633
484.643
29.6391
162.023
55.0664
-155.067
73.7772
-546.519
91.6427
-577.476
38.8139
-467.068
50.2733
-587.936
21.6487
-877.238
56.929
6359.26
75.0816
9254.03
72.2768
7123.07
53.8589
3564.99
120.614
139.28
98.0637
-3098.09
31.7104
-3465.52
-12.3768
-2672.12
166.128
815.686
325.705
3703.6
411.174
4337.42
465.842
3970.69
504.106
3306.7
521.569
2562.87
518.528
1827.17
500.389
1147.51
477.609
513.37
478.294
-54.2539
455.229
-496.293
412.169
-956.268
352.709
-1429.54
273.299
-1865.16
180.134
-2200.42
86.1077
-2490.12
-3431.62
-341.41
716.514
-324.762
610.64
-308.629
481.327
-291.246
343.06
-268.577
172.437
-233.855
-50.4578
-189.574
-337.657
-149.564
-645.979
-148.437
-830.289
-151.682
-936.133
-148.624
-1004.99
-151.156
-1037.45
-152.602
-968.859
-145.67
-890.739
-145.553
-860.606
-155.287
-782.393
-165.522
-636.139
-169.209
-491.013
-177.069
-366.291
-184.893
-169.659
-181.965
91.383
-165.491
351.035
-143.476
572.937
-114.033
795.927
-109.733
866.802
-102.579
893.24
-79.5586
949.774
-95.9529
810.72
-118.897
828.198
-122.983
1003.6
-102.135
1042.79
-115.05
673.526
-112.346
592.771
-132.527
456.62
-145.168
600.873
-155.908
755.328
-167.685
940.667
-182.074
1190.65
-198.619
1510.16
-214.205
1895.4
-223.21
2309.72
-216.092
2654.1
-181.137
2732.17
-113.493
2262.45
-37.1629
1139.31
-32.2788
75.1252
-8.41103
459.785
26.8065
128.55
53.6292
-188.552
73.3806
-570.878
96.0329
-606.277
36.0378
-423.71
55.4771
-612.31
24.3757
-850.946
55.0453
6328.47
73.3268
9235.62
72.8636
7122.71
58.6904
3578.13
120.742
72.2583
89.1088
-3066.96
21.1237
-3397.04
-20.2713
-2630.68
153.879
639.061
312.127
3544.28
400.818
4247.95
456.326
3914.62
494.027
3268.53
512.004
2544.31
510.683
1828.15
494.188
1162.87
471.221
535.757
470.286
-54.61
447.404
-474.008
404.507
-914.044
345.183
-1370.89
266.52
-1788.26
175.442
-2111.36
89.3036
-2406.14
-3369.3
-343.461
707.061
-327.258
594.281
-311.243
464.783
-292.806
323.716
-267.954
145.166
-231.129
-89.8411
-187.377
-385.353
-153.438
-684.068
-151.115
-841.325
-152.77
-938.467
-150.142
-1010.33
-152.875
-1037.47
-154.572
-970.221
-148.949
-898.753
-149.671
-862.123
-159.593
-774.706
-169.557
-628.428
-173.874
-488.807
-182.217
-359.622
-190.353
-163.385
-188.27
87.7635
-173.551
334.474
-152.858
550.949
-125.246
766.991
-118.192
854.439
-108.364
881.06
-88.1519
928.974
-102.392
824.235
-122.529
848.139
-124.383
1005.34
-104.596
1024.11
-115.82
685.566
-114.683
592.841
-133.883
477.272
-146.228
614.857
-157.39
767.791
-169.724
954.216
-184.401
1206.25
-200.832
1527.11
-215.824
1910.77
-223.761
2317.72
-215.112
2645.4
-178.507
2695.15
-110.536
2193.39
-36.2732
1065.2
-34.441
73.8185
-10.0632
436.143
25.1776
96.4956
54.6045
-223.471
74.4155
-594.179
94.1155
-630.277
36.1842
-374.589
63.0883
-640.831
27.4717
-815.468
52.6969
6303.27
70.9789
9217.62
73.0907
7119.8
63.2813
3585.81
119.783
13.3222
79.1739
-3026.8
10.2576
-3331.61
-28.8862
-2595.35
140.819
465.062
297.142
3387.1
389.317
4155.85
446.573
3857.98
484.238
3231.09
502.854
2526.32
503.282
1830.77
488.491
1181.94
465.186
566.175
462.566
-37.6913
439.748
-443.34
397.179
-865.702
338.234
-1305.5
260.566
-1705.39
171.286
-2016.33
81.7409
-2311.45
-3330.61
-345.762
697.325
-329.97
578.715
-313.863
449.13
-294.184
304.904
-267.222
118.657
-228.798
-126.98
-186.419
-426.096
-159.344
-706.79
-155.274
-842.754
-154.517
-935.948
-152.094
-1008.61
-155.187
-1031.14
-157.199
-965.193
-152.672
-899.155
-154.148
-856.449
-164.223
-760.626
-173.942
-614.587
-178.851
-479.833
-187.668
-346.869
-196.194
-151.55
-195.041
90.1494
-182.12
324.459
-162.879
535.14
-136.871
746.351
-127.734
846.107
-115.897
868.509
-97.7978
912.081
-109.701
835.963
-126.703
864.321
-126.316
1002.96
-107.393
1005.32
-117.022
694.009
-117.171
591.77
-135.487
493.452
-147.67
625.459
-159.253
778.076
-172.069
966.258
-186.963
1220.61
-203.191
1543
-217.479
1925
-224.179
2324.37
-213.828
2635.13
-175.539
2656.79
-107.388
2124.48
-35.5211
993.314
-36.2954
72.1577
-11.3334
410.086
23.8133
63.71
54.373
-263.134
73.2532
-617.37
87.9416
-650.137
38.1064
-337.562
71.6622
-679.079
30.3148
-779.445
49.7238
6283.76
67.9643
9199.24
72.8672
7114.1
67.6396
3590.09
117.791
-40.4588
68.0778
-2977.5
-1.07792
-3261.56
-37.881
-2558.46
126.952
298.705
280.828
3232.45
376.719
4059.32
436.455
3797.71
474.652
3192.44
494.088
2506.22
496.205
1828.09
483.085
1193.42
459.68
588.015
454.831
-35.9587
432.177
-422.289
390.3
-825.281
331.844
-1248.2
255.408
-1631.31
168.096
-1931.63
85.8104
-2231.88
-3264.38
-348.295
687.295
-332.82
563.001
-316.406
432.037
-295.358
282.804
-266.452
87.1444
-226.887
-169.263
-186.294
-470.916
-164.608
-733.036
-159.151
-854.874
-156.679
-941.887
-154.45
-1013.44
-158.04
-1030.25
-160.459
-965.794
-156.903
-905.014
-159.021
-856.44
-169.159
-752.593
-178.617
-607.235
-184.057
-476.373
-193.288
-339.187
-202.181
-144.467
-201.939
88.3715
-190.805
311.265
-173.179
515.745
-148.926
720.14
-137.823
829.541
-124.511
852.654
-108.054
894.887
-117.441
844.402
-131.179
877.706
-128.656
1000.12
-110.606
988.173
-118.711
702.677
-119.921
593.947
-137.382
512.045
-149.511
638.966
-161.499
791.174
-174.722
980.545
-189.745
1236.43
-205.674
1559.34
-219.127
1938.74
-224.414
2329.62
-212.199
2622.77
-172.245
2616.26
-104.105
2054.95
-34.7435
923.792
-37.7087
74.4633
-11.8374
384.034
24.2993
31.0722
55.9853
-304.03
73.0604
-638.683
84.5788
-666.182
40.3574
-302.653
80.2572
-720.916
31.5522
-733.308
45.9803
6269.24
64.2548
9181.21
72.1725
7105.2
71.331
3588.36
114.85
-87.0613
56.0469
-2919.41
-13.0687
-3196.22
-47.5701
-2528.03
112.395
132.325
263.278
3080.38
363.078
3959.46
425.909
3735.5
465.167
3153.44
485.576
2486.51
489.341
1827.57
477.832
1209.26
454.091
618.414
446.843
-14.5213
424.559
-391.604
383.674
-778.284
325.832
-1183.56
250.837
-1550.97
165.022
-1839.92
81.8389
-2143.82
-3222.6
-351.032
677.092
-335.754
547.976
-318.867
415.647
-296.434
261.365
-265.832
57.1545
-225.644
-207.873
-187.134
-507.309
-169.617
-745.127
-163.265
-858.126
-159.451
-942.326
-157.256
-1011.31
-161.389
-1022.51
-164.291
-959.598
-161.611
-903.516
-164.313
-849.548
-174.451
-738.381
-183.662
-593.776
-189.6
-466.384
-199.226
-325.633
-208.525
-131.875
-209.251
92.6251
-199.922
304.719
-183.958
503.284
-161.418
702.937
-148.882
818.083
-134.474
837.683
-119.024
880.805
-125.832
851.148
-136.217
887.336
-131.656
993.526
-114.324
970.921
-120.958
708.106
-122.943
594.605
-139.612
526.577
-151.783
649.493
-164.155
802.192
-177.705
993.285
-192.763
1250.95
-208.275
1574.52
-220.751
1951.18
-224.44
2333.29
-210.209
2608.67
-168.621
2574.62
-100.687
1986.24
-34.539
857.697
-39.5186
77.3054
-12.3585
356.327
25.536
-3.36545
55.7578
-346.508
71.5154
-658.064
81.2302
-679.887
44.5758
-274.535
89.2645
-769.505
30.9246
-680.217
41.4553
6258.65
59.7903
9162.78
70.9135
7093.37
74.3138
3584.23
111.003
-125.764
43.0551
-2851.53
-25.2813
-3126.64
-57.7638
-2495.45
97.1281
-22.9818
244.677
2932.42
348.475
3855.23
414.85
3668.66
455.724
3112.08
477.311
2464.11
482.665
1821.4
472.694
1217.07
449.09
639.567
438.877
-9.35022
417.204
-372.81
377.451
-740.918
320.257
-1128.04
246.863
-1480.53
162.339
-1758.53
73.6571
-2058.17
-3183.07
-353.911
666.666
-338.698
532.454
-321.192
397.342
-297.37
236.418
-265.278
22.3704
-224.772
-251.113
-188.262
-548.047
-173.944
-763.786
-167.312
-869.858
-162.622
-949.879
-160.459
-1015.78
-165.164
-1020.26
-168.647
-958.912
-166.844
-907.395
-170.072
-848.19
-180.074
-730.234
-189.003
-586.671
-195.384
-461.743
-205.332
-317.004
-214.978
-123.879
-216.612
92.8517
-209.013
295.015
-194.768
487.065
-173.991
679.891
-160.131
799.015
-145.05
820.085
-130.271
865.286
-134.468
854.303
-141.581
894.026
-135.183
986.664
-118.59
955.043
-123.793
713.646
-126.341
597.89
-142.247
543.345
-154.518
662.92
-167.229
815.862
-181.016
1008.03
-195.996
1266.67
-210.966
1589.86
-222.308
1962.78
-224.213
2335.12
-207.821
2592.09
-164.676
2530.78
-97.2438
1917.14
-34.9486
795.059
-41.9182
82.865
-12.7964
326.306
30.8715
-42.1023
58.3573
-390.662
68.8161
-673.254
78.2301
-693.46
48.8384
-253.487
98.0046
-820.65
28.5426
-616.301
36.1514
6251.19
54.6024
9144.59
69.0829
7077.79
76.4508
3574.02
106.291
-158.998
29.4397
-2775.57
-37.6824
-3063.25
-68.6904
-2468.15
81.0132
-179.383
225.136
2787.36
332.991
3747.5
403.289
3599.17
446.229
3069.55
469.165
2442.02
476.107
1817.86
467.643
1229.79
444.14
668.997
430.512
17.7464
409.992
-343.662
371.37
-696.205
314.998
-1064.85
243.136
-1403.51
160.39
-1670
79.8158
-1973.19
-3111.03
-356.895
656.165
-341.627
517.473
-323.417
379.683
-298.275
212.41
-264.94
-10.1793
-224.5
-289.655
-189.981
-579.974
-177.979
-768.846
-171.712
-872.916
-166.439
-951.673
-164.156
-1013.59
-169.353
-1011.12
-173.467
-951.233
-172.568
-904.024
-176.384
-840.145
-186.145
-716.29
-194.733
-573.687
-201.544
-450.853
-211.79
-302.8
-221.805
-110.553
-224.369
98.9834
-218.48
291.895
-205.929
478.161
-186.881
666.209
-172.111
785.757
-156.53
804.177
-141.977
852.274
-143.627
856.019
-147.542
897.262
-139.464
976.528
-123.442
939.048
-127.219
716.185
-130.092
599.349
-145.319
556.432
-157.747
673.671
-170.747
827.49
-184.672
1021.16
-199.458
1280.95
-213.739
1603.87
-223.78
1972.87
-223.716
2335.12
-205.032
2573.64
-160.428
2486.2
-93.8212
1849.81
-35.8954
737.414
-44.481
89.9789
-13.6728
295.621
43.2847
-95.6272
68.3214
-434.624
65.6732
-673.498
75.648
-706.645
53.9525
-238.178
106.015
-876.057
25.0103
-540.913
29.9377
6246.17
48.674
9125.84
66.6242
7059.27
77.9675
3562.29
100.562
-182.075
15.1684
-2689.75
-50.2072
-2996.2
-80.6089
-2437.66
64.0679
-322.102
204.828
2646.76
316.803
3635.44
391.223
3524.44
436.62
3023.72
461.157
2416.58
469.675
1808.32
462.69
1234.18
440.242
688.254
422.486
28.2713
403.217
-328.513
365.642
-661.887
310.172
-1011.59
239.718
-1336.7
158.323
-1592.36
75.4115
-1893.77
-3074.55
-359.929
645.471
-344.505
501.674
-325.524
359.784
-299.104
184.785
-264.703
-47.38
-224.549
-332.624
-191.75
-617.068
-181.296
-783.371
-176.162
-882.494
-170.714
-959.655
-168.328
-1018.14
-173.922
-1007.85
-178.697
-949.154
-178.79
-905.922
-183.352
-837.364
-192.706
-708.686
-200.758
-567.318
-207.967
-445.288
-218.417
-293.582
-228.711
-101.869
-232.109
100.999
-227.811
285.372
-216.933
465.052
-199.553
646.223
-183.985
765.308
-168.206
785.93
-153.729
837.089
-152.931
854.131
-153.874
897.763
-144.346
966.414
-128.866
924.131
-131.23
718.711
-134.289
602.978
-148.895
571.739
-161.501
687.326
-174.713
841.624
-188.665
1036.08
-203.122
1296.2
-216.558
1617.73
-225.118
1981.75
-222.907
2332.87
-201.818