/*--------------------------------*- C++ -*----------------------------------*\
| =========                 |                                                 |
| \\      /  F ield         | OpenFOAM: The Open Source CFD Toolbox           |
|  \\    /   O peration     | Version:  4.1                                   |
|   \\  /    A nd           | Web:      www.OpenFOAM.org                      |
|    \\/     M anipulation  |                                                 |
\*---------------------------------------------------------------------------*/
FoamFile
{
    version     2.0;
    format      ascii;
    class       surfaceScalarField;
    location    "8";
    object      phi;
}
// * * * * * * * * * * * * * * * * * * * * * * * * * * * * * * * * * * * * * //

dimensions      [0 3 -1 0 0 0 0];

internalField   nonuniform List<scalar> 
13220
(
-906.845
2206.74
-1504.66
1898.02
-1985.12
1780.36
-2354.94
1669.71
-2630.27
1575.53
-2818.71
1488.33
-2923.51
1404.7
-2944.48
1321.17
-2880.3
1235.72
-2727.85
1147.45
-2482.47
1054.82
-2127.47
944.892
-1626.91
799.337
-956.039
629.329
343.861
423.575
1783.16
466.657
1854.92
450.461
1796.54
411.014
1709.15
378.57
1607.96
352.449
1514.44
333.185
1423.95
321.479
1332.86
314.045
1243.14
304.728
1156.75
285.388
1074.15
242.274
987.988
165.783
875.808
88.4944
706.597
432.354
181.182
1601.96
21.0255
2015.06
-139.96
1957.51
-258.538
1827.71
-362.781
1712.19
-459.82
1611.46
-546.907
1511.02
-624.439
1410.38
-690.594
1309.28
-742.932
1209.07
-777.15
1108.35
-774.545
985.355
-684.7
785.925
-432.749
454.599
-0.395233
216.023
1385.93
136.141
2094.93
2.11383
2091.53
-93.2999
1923.11
-169.436
1788.31
-229.484
1671.49
-269.371
1550.89
-289.314
1430.31
-291.306
1311.25
-275.827
1193.58
-241.654
1074.16
-184.032
927.713
-101.118
702.983
-9.78788
363.234
-10.1837
282.875
1103.05
349.6
2028.2
326.637
2114.48
306.062
1943.67
296.587
1797.77
293.037
1675.03
293.093
1550.82
297.058
1426.33
303.719
1304.58
311.146
1186.14
318.726
1066.58
320.669
925.742
297.288
726.331
215.983
444.502
205.799
249.385
853.651
360.106
1917.47
371.055
2103.52
351.675
1963.04
336.554
1812.89
325.608
1685.97
314.234
1562.19
300.146
1440.41
284.253
1320.47
266.551
1203.84
245.622
1087.5
219.597
951.786
178.156
767.792
109.3
513.379
315.099
131.935
721.707
215.852
1833.55
240.789
2078.58
218.446
1985.38
195.084
1836.24
175.363
1705.69
156.71
1580.84
138.509
1458.61
120.486
1338.49
104.007
1220.31
89.1475
1102.37
76.1686
964.731
61.8626
782.066
44.7856
530.425
359.885
37.9741
683.729
89.677
1781.84
130.097
2038.16
119.932
1995.54
104.433
1851.74
92.3955
1717.72
80.3897
1592.85
69.3077
1469.69
59.4868
1348.31
50.0329
1229.77
41.8597
1110.54
37.7564
968.875
33.9225
785.939
29.0092
535.375
388.894
16.9518
666.774
59.0783
1739.71
104.108
1993.13
104.024
1995.63
94.0178
1861.75
85.6756
1726.06
78.0456
1600.48
69.812
1477.92
62.0517
1356.07
54.6218
1237.19
46.8261
1118.33
43.3212
972.335
40.4116
788.807
30.2257
545.523
419.12
38.1214
628.659
88.294
1689.54
128.645
1952.78
129.94
1994.33
119.254
1872.44
107.763
1737.56
97.3859
1610.86
87.6145
1487.7
77.2352
1366.45
67.3191
1247.12
57.7808
1127.87
52.0019
978.165
46.6322
794.226
31.6849
560.516
450.805
60.553
568.121
120.893
1629.21
157.187
1916.5
158.585
1992.95
146.192
1884.85
133.047
1750.72
119.727
1624.19
106.851
1500.59
94.0563
1379.26
80.77
1260.42
68.2219
1140.45
60.4706
985.909
52.1151
802.585
32.3788
580.256
483.185
61.9581
506.185
124.22
1566.97
152.543
1888.19
150.412
1995.1
131.229
1904.05
111.427
1770.54
95.002
1640.64
79.8872
1515.73
66.4995
1392.68
54.8916
1272.06
43.591
1151.76
37.8912
991.67
33.5059
807.029
21.613
592.204
504.798
60.15
446.057
129.279
1497.85
168.304
1849.18
182.104
1981.31
182.881
1903.29
175.032
1778.4
161.891
1653.8
145.319
1532.31
125.195
1412.81
104.763
1292.5
87.6183
1168.92
74.2782
1005.02
59.8719
821.449
24.9292
627.16
529.727
-30.1753
476.25
-45.5693
1513.26
-59.9677
1863.59
-98.6009
2019.95
-144.4
1949.1
-182.068
1816.08
-200.886
1672.63
-204.34
1535.77
-196.665
1405.15
-186.088
1281.93
-165.726
1148.56
-135.839
975.144
-96.5241
782.142
-62.9006
593.544
466.826
-205.268
164.772
489.919
759.479
835.607
810.062
691.52
547.628
396.122
274.346
165.884
87.6834
25.0317
-20.3646
-0.000855728
654.162
-654.164
654.16
654.159
654.158
1036.78
-382.624
1036.78
1036.78
1036.78
1203.63
-166.853
1203.63
1203.63
1230.49
-26.8651
1230.49
1230.49
1230.48
1185.38
45.0999
1185.38
1185.38
1094.49
90.8916
1094.49
1094.49
1094.48
968.117
126.366
968.116
968.114
968.113
838.636
129.476
838.634
838.633
713.155
125.477
713.154
713.153
713.151
605.271
107.879
605.269
605.268
509.314
95.9523
509.313
509.311
509.31
432.037
77.2718
432.036
432.034
432.033
371.89
60.1412
371.889
371.886
328.508
43.3777
328.506
328.505
328.503
311.243
17.2588
311.241
311.24
311.237
286.491
24.7459
286.488
286.487
234.239
52.2454
234.238
234.235
234.235
130.253
103.977
130.252
130.248
-79.0309
209.279
-79.0358
-79.0362
-79.0408
-688.926
609.886
-688.93
-688.93
-688.935
-1713.47
1024.54
-1713.47
-1713.47
-3155.78
1442.31
-3155.77
-3155.78
-3084.25
-3000.23
-2915.9
-4757.59
1927.47
-4663.61
-4559.79
-4442.57
-4323.18
-4203.39
-4081.08
-3943.78
-3791.54
-6098.81
2462.2
-5928.66
-5766.93
-5606.94
-5417.14
-5224.17
-5029.01
-4826.58
-4621.57
-7317.18
2915.36
-7079.83
-6842.81
-6605.61
-6368.66
-6124.54
-5867.26
-5606.86
-5339.58
-5069.58
-7992.45
3188.43
-7703.32
-7412.02
-7119.09
-6826.75
-6535.31
-6228.92
-5909.46
-5587.15
-8417.42
3141.31
-8104.77
-7784.51
-7450.69
-7114.83
-6778.12
-6441.7
-6102.98
-5745.17
-8092.09
2691.76
-7749.85
-7407.92
-7068.14
-6717.03
-6360.94
-6005.48
-5651.02
-5301.31
-6740.14
1777.05
-6408.64
-6077.86
-5750.37
-5426.54
-5108.53
-4805.5
-4506.27
-4214.05
-3929.6
-4273.26
620.695
-4036.71
-3812.13
-3596.34
-3384.89
-3175.78
-2994.64
-2870.32
-2741.11
-2783.5
181.923
-2672.97
-2557.16
-2557.16
-2339.79
-217.376
-2016.27
-323.516
-2016.27
-1672.91
-343.366
-1672.91
-1349.79
-323.118
-1021.8
-327.997
-1021.8
-677.362
-344.435
-357.865
-319.497
-357.867
-63.7408
-294.125
-63.7423
264.353
-328.095
626.572
-362.219
626.573
956.726
-330.154
956.727
1254.26
-297.533
1537.63
-283.369
1537.63
1785.86
-248.23
2012.77
-226.912
2012.77
2214.64
-201.866
2214.64
2399.29
-184.643
2556.92
-157.63
2556.92
2699.71
-142.797
2699.71
2834.02
-134.301
2939.3
-105.279
2939.3
3041.25
-101.956
3114.56
-73.3013
3114.56
3187.61
-73.0535
3187.61
3263.43
-75.8167
3309.9
-46.4662
3309.9
3358.12
-48.2229
3358.12
3411.98
-53.8646
3436.56
-24.5728
3436.56
3470.82
-34.2627
3475.02
-4.1984
3475.02
3487.76
-12.7404
3487.76
3510.04
-22.2789
3500.27
9.77463
3500.27
3498.18
2.08656
3498.18
3505.62
-7.43762
3482.38
23.238
3482.38
3474.06
8.31704
3437.21
36.8531
3437.21
3414.37
22.8447
3414.37
3403.27
11.0999
3366.42
36.8501
3366.42
3343.53
22.8906
3343.53
3332.5
11.0254
3300.26
32.2461
3300.26
3286.27
13.9828
3254.35
31.9231
3254.35
3240.59
13.7635
3240.59
0.450443
-845.555
254.647
-832.533
242.061
-821.809
220.695
-810.479
205.866
-799.143
187.922
-787.751
169.508
-776.43
149.182
-765.31
126.936
-754.552
102.435
-744.366
75.5241
-735.036
45.8561
-726.905
13.5078
-720.374
-21.3591
-715.938
-58.5336
-714.123
-98.2949
-715.441
-139.991
-720.298
-183.107
-728.871
-227.004
-740.984
-269.823
-755.991
-309.302
-772.757
-340.61
-789.822
-357.809
-803.103
-348.365
-811.309
-325.69
-819.601
-318.968
-826.681
-300.796
-832.319
-273.537
-836.587
-237.047
-840.009
-190.692
-843.822
-132.841
-849.928
-57.9565
-858.541
49.4843
-858.134
183.731
-897.297
122.509
-947.718
205.672
-1015.19
305.429
-1099.74
423.098
-1199.66
567.641
-1312.87
747.234
-1438.03
971.303
-1574.48
1250.33
-1720.69
1594.25
-1871.13
2010.24
-2012.37
2499.69
-2121.12
3060.23
-2169.01
3693.6
-2136.23
4412.51
-2026.39
5230.3
-1868.26
6132.59
-1700.54
7067.81
-1549.81
7989.94
-1414.93
8920.17
-1267.26
9927.6
-1069.28
10990.7
-800.758
11876.6
-474.133
12181.5
-114.623
11341.9
129.704
7871.08
215.249
3386.07
336.674
-385.913
457.955
-1445.95
586.891
-1758.75
686.559
-1531.36
729.162
-915.199
703.914
520.748
580.007
380.443
461.386
757.682
352.722
872.949
288.622
933.934
245.157
908.895
204.24
781.708
176.637
600.48
164.269
375.973
150.459
4.28432
93.5153
-404.882
43.8494
-713.553
32.4113
-1646.66
6.10148
-2752.4
-3682.43
-826.184
242.497
-812.887
228.764
-801.994
209.802
-790.845
194.717
-780.007
177.084
-769.425
158.926
-759.283
139.04
-749.782
117.435
-741.166
93.8191
-733.689
68.0472
-727.693
39.8607
-723.525
9.33995
-721.511
-23.3729
-721.971
-58.073
-725.124
-95.1422
-731.091
-134.024
-739.869
-174.329
-751.329
-215.543
-765.199
-255.953
-781.117
-293.384
-798.387
-323.339
-816.078
-340.118
-829.916
-334.527
-838.771
-316.835
-849.06
-308.678
-859.243
-290.613
-869.617
-263.161
-881.009
-225.655
-894.633
-177.067
-911.778
-115.695
-932.717
-37.0166
-953.115
69.8823
-955.512
186.129
-1005.4
172.4
-1061.94
262.21
-1130.45
373.943
-1212.55
505.2
-1307.86
662.953
-1415.59
854.965
-1534.8
1090.51
-1663.82
1379.35
-1798.77
1729.21
-1931.21
2142.67
-2046.23
2614.71
-2123.53
3137.54
-2143.68
3713.76
-2097.46
4366.28
-1991.5
5124.34
-1846.47
5987.57
-1689.27
6910.6
-1541.16
7841.83
-1404.63
8783.65
-1256.83
9779.8
-1062.61
10796.5
-801.259
11615.2
-480.875
11861.1
-121.718
10982.7
153.519
7595.85
292.035
3247.55
441.705
-535.578
543.828
-1548.07
691.268
-1906.19
798.123
-1638.21
832.053
-949.128
810.869
541.934
655.654
535.66
520.755
892.584
386.469
1007.24
298.101
1022.3
243.112
963.886
198.734
826.088
167.021
632.195
150.38
392.618
130.281
24.3882
75.7881
-350.385
34.6222
-672.385
27.43
-1639.47
0.390068
-2725.36
-3668.28
-801.708
229.986
-788.94
215.997
-778.671
199.532
-768.523
184.569
-759.105
167.666
-750.381
150.203
-742.594
131.253
-735.963
110.804
-730.735
88.5909
-727.146
64.4578
-725.48
38.1953
-725.948
9.8077
-728.687
-20.6337
-733.753
-53.0074
-741.136
-87.7594
-750.708
-124.452
-762.356
-162.681
-775.946
-201.954
-791.312
-240.587
-808.318
-276.378
-826.466
-305.191
-844.977
-321.607
-860.633
-318.871
-872.58
-304.888
-886.152
-295.107
-901.02
-275.745
-917.827
-246.355
-937.555
-205.927
-961.262
-153.359
-989.522
-87.4356
-1021.38
-5.15695
-1050.82
99.3173
-1069.75
205.06
-1124.62
227.265
-1186.63
324.221
-1258.36
445.676
-1341.26
588.098
-1435.32
757.019
-1540.1
959.744
-1654.35
1204.75
-1775.13
1500.13
-1896.14
1850.22
-2006.15
2252.69
-2089.16
2697.71
-2128.33
3176.71
-2113.46
3698.89
-2046.01
4298.83
-1936.96
5015.29
-1801.95
5852.55
-1658.28
6766.93
-1520.03
7703.59
-1387.59
8651.2
-1240.6
9632.81
-1048.16
10604
-792.391
11359.5
-480.227
11548.9
-127.186
10629.7
153.179
7315.48
331.84
3068.89
496.087
-699.823
613.291
-1665.28
769.075
-2061.97
875.68
-1744.82
894.945
-968.395
870.128
566.75
738.483
667.305
602.587
1028.48
448.827
1161
327.568
1143.56
251.155
1040.3
199.344
877.9
163.438
668.101
140.72
415.337
114.055
51.0505
69.0074
-305.338
33.2054
-636.584
25.3877
-1631.65
2.4464
-2702.42
-3633.91
-777.887
218.419
-766.462
204.571
-757.574
190.645
-749.215
176.21
-741.982
160.433
-735.836
144.057
-731.027
126.444
-727.743
107.52
-726.179
87.0264
-726.496
64.7759
-728.843
40.5419
-733.26
14.2257
-739.751
-14.1426
-748.2
-44.558
-758.547
-77.412
-770.591
-112.408
-784.226
-149.045
-799.393
-186.787
-816.042
-223.938
-834.124
-258.295
-853.343
-285.972
-873.094
-301.856
-891.04
-300.925
-906.749
-289.178
-924.355
-277.501
-944.49
-255.61
-967.991
-222.854
-995.676
-178.242
-1028.07
-120.965
-1064.89
-50.6169
-1104.29
34.2445
-1140.95
135.981
-1173.76
237.871
-1233.98
287.486
-1301.6
391.837
-1377.32
521.395
-1462.18
672.965
-1556.33
851.167
-1659.09
1062.51
-1768.34
1314
-1879.26
1611.05
-1983.19
1954.15
-2066.96
2336.46
-2115.36
2746.11
-2117.18
3178.54
-2071.83
3653.54
-1989.02
4216.02
-1880.87
4907.15
-1757.1
5728.78
-1626.9
6636.74
-1498.54
7575.23
-1370.54
8523.2
-1224.56
9486.83
-1033.67
10413.2
-782.652
11108.4
-476.978
11243.3
-129.093
10281.8
156.301
7030.09
385.904
2839.29
549.917
-863.831
688.056
-1803.41
851.852
-2225.77
958.327
-1851.29
964.698
-974.764
933.168
598.281
808.984
791.492
674.547
1162.92
514.483
1321.06
368.918
1289.13
267.007
1142.21
202.08
942.828
160.549
709.634
132.188
443.7
100.269
82.9749
61.7482
-266.812
31.4508
-606.285
23.4947
-1623.69
1.0993
-2680.03
-3618.83
-756.863
208.659
-747.543
195.251
-740.709
183.811
-734.761
170.262
-730.237
155.909
-727.068
140.888
-725.461
124.837
-725.538
107.598
-727.414
88.9021
-731.16
68.5222
-736.787
46.169
-744.237
21.6749
-753.428
-4.95085
-764.207
-33.7798
-776.504
-65.1149
-790.161
-98.7502
-805.105
-134.102
-821.37
-170.521
-839.047
-206.261
-858.153
-239.19
-878.61
-265.515
-899.991
-280.475
-920.66
-280.257
-940.494
-269.344
-962.65
-255.346
-988.124
-230.136
-1017.93
-193.053
-1052.48
-143.69
-1091.66
-81.7793
-1134.55
-7.73264
-1179.34
79.036
-1223.49
180.128
-1268.21
282.597
-1333.68
352.95
-1406.49
464.645
-1486.25
601.153
-1573.43
760.15
-1667.94
945.674
-1768.42
1162.98
-1871.34
1416.92
-1969.82
1709.53
-2053.09
2037.43
-2107.41
2390.77
-2120.46
2759.17
-2088.54
3146.61
-2020.01
3585.01
-1929.33
4125.35
-1826.46
4804.27
-1714.81
5617.13
-1597.4
6519.32
-1478.23
7456.06
-1354.47
8399.44
-1209.52
9341.88
-1020.04
10223.7
-773.103
10861.5
-472.56
10942.7
-129.198
9938.45
160.799
6740.09
414.554
2585.54
579.737
-1029.01
761.661
-1985.34
932.905
-2397.01
1037.81
-1956.2
1033.55
-970.508
996.86
634.97
873.871
914.48
735.776
1301.01
573.743
1483.1
414.788
1448.09
290.543
1266.46
208.565
1024.81
158.466
759.733
124.388
477.778
88.5221
118.838
55.7122
-234.004
30.8403
-581.413
22.4655
-1615.32
2.1808
-2659.74
-3584.4
-739.914
201.296
-733.314
188.651
-729.017
179.514
-725.858
167.103
-724.27
154.321
-724.146
140.764
-725.61
126.301
-728.705
110.693
-733.464
93.6611
-739.878
74.9365
-747.904
54.195
-757.473
31.2452
-768.455
6.03116
-780.717
-21.518
-794.211
-51.62
-808.876
-84.0852
-824.694
-118.284
-841.801
-153.414
-860.423
-187.639
-880.644
-218.968
-902.574
-243.584
-925.941
-257.108
-949.652
-256.545
-973.795
-245.201
-1000.85
-228.295
-1031.62
-199.358
-1067.08
-157.591
-1107.33
-103.442
-1151.72
-37.3935
-1199.26
39.8057
-1249.32
129.098
-1300.91
231.72
-1355.39
337.074
-1425.91
423.48
-1503.43
542.161
-1586.87
684.597
-1676.06
849.342
-1770.25
1039.86
-1867.06
1259.8
-1961.26
1511.12
-2043.96
1792.23
-2102.99
2096.47
-2125.65
2413.43
-2104.67
2738.19
-2044.75
3086.69
-1961.43
3501.69
-1869.96
4033.88
-1775.65
4709.96
-1676.17
5517.65
-1570.32
6413.47
-1459.25
7344.99
-1339.24
8279.43
-1195.27
9197.91
-1007.16
10035.6
-763.852
10618.2
-467.61
10646.5
-128.027
9598.86
165.323
6446.74
429.772
2321.09
612.496
-1211.74
834.004
-2206.85
1010.79
-2573.8
1111.71
-2057.11
1098.42
-957.22
1059.14
674.247
936.481
1037.14
791.182
1446.31
625.691
1648.59
459.684
1614.09
319.443
1406.7
220.239
1124.01
158.627
821.347
118.177
518.23
78.6367
158.382
51.3195
-206.68
30.9005
-560.991
22.0616
-1606.48
2.39289
-2640.07
-3570.98
-728.104
196.732
-724.556
185.103
-722.967
177.925
-722.632
166.769
-723.842
155.531
-726.464
143.386
-730.534
130.371
-736.035
116.194
-742.952
100.578
-751.243
83.2274
-760.866
63.8179
-771.766
42.145
-783.808
18.0732
-796.907
-8.41934
-811.069
-37.4579
-826.327
-68.8271
-842.751
-101.86
-860.565
-135.6
-880.106
-168.097
-901.54
-197.535
-925.121
-220.003
-950.705
-231.524
-977.614
-229.636
-1006.07
-216.741
-1038
-196.365
-1073.79
-163.572
-1113.98
-117.403
-1158.59
-58.83
-1207.09
11.0977
-1259.29
92.0106
-1315.28
185.086
-1374.15
290.586
-1436.88
399.81
-1512.3
498.901
-1594.05
623.911
-1680.57
771.111
-1770.93
939.7
-1863.38
1132.32
-1954.26
1350.67
-2036.56
1593.41
-2099.74
1855.42
-2131.35
2128.08
-2121.55
2403.63
-2069.95
2686.6
-1989.52
3006.26
-1899.91
3412.07
-1813.47
3947.45
-1729.59
4626.09
-1641.62
5429.69
-1545.82
6317.66
-1441.62
7240.79
-1324.72
8162.53
-1181.63
9054.82
-994.924
9848.87
-754.883
10378.1
-462.312
10353.9
-125.599
9262.15
170.346
6150.8
450.741
2040.69
657.493
-1418.49
904.732
-2454.09
1082.45
-2751.52
1175.26
-2149.92
1154.57
-936.536
1116.57
712.25
996.164
1157.55
843.391
1599.09
672.039
1819.94
500.963
1785.17
350.397
1557.26
236.721
1237.69
162.426
895.642
114.87
565.785
71.6266
201.623
48.9582
-184.013
31.4913
-543.525
22.3812
-1597.37
1.96051
-2619.65
-3546.13
-722.069
195.079
-721.538
184.571
-722.485
178.872
-724.671
168.955
-728.229
159.089
-733.034
148.191
-739.059
136.396
-746.26
123.396
-754.614
108.932
-764.081
92.6945
-774.627
74.364
-786.208
53.7263
-798.742
30.6077
-812.198
5.03689
-826.644
-23.0118
-842.196
-53.2744
-859.016
-85.0394
-877.404
-117.212
-897.77
-147.731
-920.373
-174.932
-945.563
-194.813
-973.297
-203.79
-1003.19
-199.742
-1035.55
-184.378
-1071.84
-160.074
-1112.19
-123.224
-1156.6
-72.9899
-1205.24
-10.1947
-1258.32
64.1768
-1316.02
149.719
-1378.09
247.152
-1443.66
356.16
-1513.59
469.741
-1593.67
578.972
-1679.12
709.361
-1767.86
859.852
-1858.09
1029.93
-1946.84
1221.07
-2028.9
1432.74
-2095.68
1660.19
-2135.64
1895.38
-2137.49
2129.93
-2096.2
2362.34
-2019.5
2609.89
-1927.14
2913.9
-1838.98
3323.91
-1761.62
3870.09
-1688.69
4553.16
-1611.02
5352.01
-1523.71
6230.36
-1425.19
7142.26
-1310.82
8048.15
-1168.54
8912.55
-983.282
9663.61
-746.206
10141.1
-456.71
10064.4
-122.003
8927.45
177.03
5851.76
478.737
1738.99
709.528
-1649.28
971.057
-2715.61
1142.93
-2923.39
1222.38
-2229.37
1196.3
-910.448
1164.79
743.758
1050.56
1271.78
892.574
1757.07
714.325
1998.19
538.218
1961.28
380.901
1714.58
256.484
1362.11
170.4
981.727
115.261
620.926
68.4641
248.422
48.6624
-164.204
32.5107
-527.37
23.584
-1588.44
6.32174
-2602.39
-3502.96
-721.814
196.09
-723.922
186.679
-726.973
181.923
-731.149
173.131
-736.446
164.386
-742.775
154.52
-750.08
143.701
-758.314
131.629
-767.457
118.075
-777.49
102.727
-788.393
85.2666
-800.144
65.4771
-812.737
43.2003
-826.2
18.4999
-840.655
-8.55665
-856.294
-37.6355
-873.361
-67.9726
-892.224
-98.3492
-913.339
-126.616
-937.052
-151.219
-963.767
-168.098
-993.51
-174.047
-1026.09
-167.165
-1061.84
-148.632
-1101.86
-120.05
-1146.32
-78.7635
-1195.23
-24.0769
-1248.74
43.3072
-1307.01
122.449
-1370.18
212.888
-1437.98
314.955
-1509.73
427.904
-1585.99
545.998
-1670.32
663.306
-1758.78
797.817
-1848.63
949.707
-1937.03
1118.33
-2019.61
1303.65
-2089.57
1502.7
-2137.06
1707.68
-2150.53
1908.86
-2121.56
2100.96
-2051.82
2292.6
-1957.34
2515.41
-1861.9
2818.46
-1781.42
3243.43
-1715.31
3803.98
-1652.78
4490.64
-1583.91
5283.14
-1503.64
6150.09
-1409.75
7048.37
-1297.45
7935.85
-1155.98
8771.08
-972.216
9479.84
-737.862
9906.72
-450.851
9777.42
-117.445
8594.04
184.963
5549.36
512.92
1411.03
765.292
-1901.65
1028.19
-2978.51
1185.39
-3080.59
1245.56
-2289.54
1216.48
-881.367
1198.44
761.801
1096.28
1373.94
937.363
1915.99
753.143
2182.41
571.908
2142.51
409.796
1876.69
277.922
1493.98
182.072
1077.58
119.381
683.616
69.6505
298.15
50.5219
-145.078
33.9809
-510.83
25.4199
-1579.88
7.78709
-2584.76
-3484.07
-726.752
199.218
-730.893
190.82
-735.479
186.509
-741.025
178.678
-747.423
170.784
-754.634
161.731
-762.595
151.662
-771.271
140.305
-780.654
127.459
-790.749
112.822
-801.561
96.0798
-813.112
77.0278
-825.464
55.5527
-838.709
31.7448
-853.019
5.75377
-868.656
-21.9978
-885.944
-50.6841
-905.323
-78.9703
-927.281
-104.658
-952.247
-126.253
-980.646
-139.698
-1012.56
-142.133
-1047.91
-131.817
-1087.01
-109.531
-1130.7
-76.3564
-1179.15
-30.3198
-1232.37
29.1431
-1290.48
101.425
-1353.66
185.629
-1421.98
281.208
-1495.16
388.131
-1572.54
505.284
-1654.32
627.778
-1742.34
751.332
-1832.89
888.366
-1922.44
1039.26
-2006.9
1202.78
-2080.42
1377.18
-2134.74
1557.02
-2159.29
1732.22
-2143.79
1893.36
-2084.6
2041.77
-1991.58
2199.58
-1888.03
2411.86
-1797.67
2728.11
-1729.12
3174.88
-1674.69
3749.55
-1621.37
4437.32
-1559.81
5221.58
-1485.26
6075.54
-1395.13
6958.23
-1284.55
7825.27
-1143.92
8630.45
-961.707
9297.63
-729.882
9674.89
-444.841
9492.37
-112.162
8261.36
194.027
5243.17
550.008
1055.05
818.677
-2170.32
1070.83
-3230.66
1202.36
-3212.13
1236.01
-2323.19
1206.37
-851.726
1210.8
757.377
1129.14
1455.6
975.655
2069.47
788.3
2369.77
602.476
2328.33
436.589
2042.58
299.591
1630.98
196.32
1180.85
126.809
753.128
74.9093
350.051
54.2658
-124.428
35.9414
-492.501
27.9812
-1571.92
8.86559
-2565.64
-3452.36
-735.87
203.762
-741.346
196.296
-746.87
192.033
-753.174
184.982
-760.086
177.696
-767.61
169.255
-775.7
159.751
-784.338
148.944
-793.536
136.657
-803.321
122.607
-813.739
106.497
-824.856
88.1447
-836.795
67.4916
-849.71
44.6594
-863.83
19.8734
-879.483
-6.34452
-897.07
-33.0972
-917.097
-58.9443
-940.066
-81.6885
-966.48
-99.8396
-996.745
-109.434
-1030.97
-107.904
-1069.14
-93.6524
-1111.52
-67.1546
-1158.75
-29.1254
-1210.98
21.9149
-1268.27
86.4282
-1330.73
163.88
-1398.51
253.41
-1471.65
354.345
-1549.8
466.28
-1632.24
587.73
-1718.72
714.257
-1809.66
842.271
-1901.13
979.836
-1988.63
1126.76
-2066.66
1280.81
-2127.9
1438.41
-2162.9
1592.03
-2161.21
1730.53
-2115.43
1847.58
-2028.63
1954.97
-1919.62
2090.57
-1816.28
2308.52
-1737.66
2649.49
-1683.1
3120.32
-1639.55
3706.01
-1593.92
4391.68
-1538.27
5165.92
-1468.31
6005.59
-1381.19
6871.11
-1272.07
7716.15
-1132.33
8490.71
-951.733
9117.04
-722.276
9445.43
-438.822
9208.92
-106.368
7928.91
204.575
4932.22
589.235
670.392
866.077
-2447.16
1092.65
-3457.24
1184.89
-3304.37
1183.86
-2322.17
1155.83
-823.692
1193.72
719.486
1144.09
1505.23
1004.84
2208.71
819.1
2555.51
630.163
2517.27
461.123
2211.62
320.371
1771.73
211.783
1289.43
136.768
828.142
84.1753
402.642
60.1465
-100.403
38.4265
-470.782
31.3689
-1564.86
14.5745
-2548.85
-3400.93
-747.92
209.001
-754.045
202.421
-759.961
197.949
-766.487
191.508
-773.426
184.635
-780.816
176.646
-788.635
167.57
-796.894
157.203
-805.622
145.385
-814.872
131.857
-824.728
116.353
-835.305
98.7224
-846.779
78.9652
-859.363
57.2438
-873.348
33.8586
-889.123
9.43093
-907.155
-15.0647
-928
-38.0992
-952.16
-57.5285
-980.195
-71.8041
-1012.46
-77.1655
-1049.09
-71.2799
-1090.06
-52.6831
-1135.6
-21.6117
-1186.21
21.4883
-1242.04
77.7408
-1303.15
147.539
-1369.68
230.409
-1441.76
325.494
-1519.36
431.951
-1602.05
548.965
-1688.94
674.621
-1779.24
804.554
-1872.1
935.141
-1963.06
1070.79
-2046.43
1210.13
-2115.19
1349.57
-2160.63
1483.85
-2172.67
1604.08
-2142.12
1699.98
-2066.29
1771.75
-1956.83
1845.5
-1840.89
1974.63
-1746.67
2214.3
-1684.25
2587.06
-1643.76
3079.83
-1609.46
3671.7
-1569.93
4352.16
-1518.92
5114.91
-1452.58
5939.25
-1367.85
6786.38
-1259.96
7608.27
-1121.18
8351.93
-942.251
8938.11
-715.037
9218.22
-432.965
8926.85
-100.251
7596.19
217.272
4614.7
630.032
257.634
902.19
-2719.32
1085.58
-3640.64
1123.58
-3342.36
1079.9
-2278.48
1054.83
-798.623
1138.18
636.14
1135.29
1508.12
1021.78
2322.22
844.44
2732.85
655.043
2706.67
483.571
2383.09
339.907
1915.39
227.586
1401.76
148.401
907.328
98.1188
452.925
67.5598
-69.8377
41.5218
-444.738
35.2955
-1558.64
17.9831
-2531.53
-3374.63
-761.57
214.305
-767.751
208.602
-773.612
203.809
-779.939
197.836
-786.542
191.238
-793.484
183.588
-800.768
174.854
-808.434
164.869
-816.534
153.485
-825.144
140.468
-834.384
125.593
-844.419
108.757
-855.472
90.0179
-867.815
69.5867
-881.798
47.8411
-897.864
25.4966
-916.531
3.6026
-938.385
-16.2463
-963.917
-31.996
-993.725
-41.9968
-1028.1
-42.7947
-1067.15
-32.2315
-1110.87
-8.96232
-1159.44
26.9639
-1213.27
75.3109
-1272.48
136.954
-1337.18
212.242
-1407.52
300.743
-1483.59
401.566
-1565.28
513.644
-1652.02
635.698
-1742.66
765.264
-1835.8
897.697
-1929.41
1028.75
-2018.15
1159.54
-2094.99
1286.97
-2151.33
1405.9
-2177.28
1509.8
-2162.93
1589.73
-2101.88
1638.92
-1998.26
1668.13
-1873.53
1720.77
-1760.84
1861.95
-1683.23
2136.69
-1638.91
2542.74
-1610.95
3051.88
-1583.88
3644.63
-1548.99
4317.26
-1501.49
5067.41
-1437.91
5875.67
-1355.02
6703.49
-1248.19
7501.44
-1110.44
8214.17
-933.211
8760.88
-708.168
8993.18
-427.461
8646.14
-94.0206
7262.75
233.839
4286.84
674.033
-182.562
920.476
-2965.76
1040.18
-3760.34
1009.98
-3312.15
919.399
-2187.91
897.504
-776.728
1036.04
497.603
1096.92
1447.24
1023.2
2395.93
862.934
2893.12
676.967
2892.64
504.146
2555.91
358.347
2061.19
243.429
1516.67
160.965
989.791
109.477
504.411
70.4893
-30.856
45.3052
-419.555
39.7892
-1553.12
22.3512
-2514.1
-3329.04
-775.554
219.202
-781.34
214.388
-786.819
209.289
-792.655
203.671
-798.688
197.271
-804.992
189.892
-811.599
181.461
-818.575
171.845
-825.995
160.905
-833.96
148.433
-842.625
134.258
-852.202
118.335
-862.962
100.777
-875.225
81.8508
-889.398
62.0137
-905.968
42.0674
-925.493
23.1273
-948.561
6.82172
-975.654
-4.90246
-1007.36
-10.2941
-1043.9
-6.25255
-1085.37
9.2385
-1131.76
37.4293
-1183.22
78.425
-1240.07
132.162
-1302.47
199.35
-1370.53
280.306
-1444.4
374.614
-1524.13
481.3
-1609.51
599.018
-1699.75
725.941
-1793.39
858.901
-1888.31
992.62
-1981.27
1121.71
-2065.83
1244.1
-2133.43
1354.56
-2173.9
1446.37
-2176.61
1512.51
-2132.9
1546.02
-2041.1
1547.12
-1914.4
1541.44
-1784.21
1590.58
-1685.08
1762.81
-1629.06
2080.67
-1602.2
2515.88
-1584.2
3033.87
-1562.25
3622.68
-1530.65
4285.67
-1485.69
5022.45
-1424.13
5814.11
-1342.64
6622
-1236.69
7395.49
-1100.03
8077.51
-924.574
8585.43
-701.684
8770.29
-422.515
8366.97
-87.9973
6928.23
259.269
3939.58
729.398
-652.688
912.212
-3148.58
946.56
-3794.69
840.359
-3205.95
710.291
-2057.84
690.63
-757.068
883.839
304.395
1024.94
1306.14
1006.12
2414.76
873.056
3026.18
695.561
3070.13
522.985
2728.49
375.708
2208.47
258.949
1633.43
173.957
1074.78
118.334
560.035
74.4045
13.0787
49.8515
-394.996
44.7598
-1548.03
25.966
-2495.3
-3310.51
-788.781
223.417
-793.879
219.486
-798.779
214.188
-803.954
208.847
-809.298
202.615
-814.888
195.482
-820.779
187.352
-827.063
178.129
-833.84
167.682
-841.239
155.832
-849.448
142.467
-858.726
127.612
-869.383
111.435
-881.789
94.2559
-896.391
76.6162
-913.717
59.3928
-934.34
43.7496
-958.833
31.315
-987.667
23.931
-1021.36
23.4001
-1060.11
32.493
-1103.96
53.0906
-1152.91
86.381
-1207.09
132.607
-1266.78
191.851
-1332.15
264.719
-1403.34
351.489
-1480.45
451.731
-1563.5
564.344
-1652.11
687.624
-1745.26
819.092
-1841.05
954.692
-1936.57
1088.14
-2027.3
1212.43
-2105.45
1322.25
-2160.79
1409.91
-2181.7
1467.29
-2157.47
1488.28
-2082.2
1470.75
-1961.36
1426.28
-1819.23
1399.3
-1695.3
1466.65
-1618.66
1686.17
-1585.98
2047.99
-1573.81
2503.71
-1562.7
3022.77
-1543.95
3603.93
-1514.45
4256.17
-1471.22
4979.22
-1411.07
5753.96
-1330.58
6541.51
-1225.41
7290.32
-1089.89
7941.99
-916.314
8411.84
-695.612
8549.59
-418.334
8089.7
-82.8683
6592.77
296.776
3559.93
777.67
-1133.58
866.235
-3237.14
797.099
-3725.56
622.458
-3031.31
483.796
-1919.18
464.561
-737.834
687.133
81.82
919.746
1073.52
968.63
2365.87
873.495
3121.31
710.364
3233.26
540.202
2898.65
392.019
2356.65
273.809
1751.64
187.058
1161.53
129.537
617.554
82.8283
59.7821
55.2537
-367.423
50.2919
-1543.07
28.6303
-2473.64
-3279.8
-800.406
226.857
-804.678
223.758
-808.907
218.417
-813.364
213.304
-817.998
207.248
-822.888
200.372
-828.111
192.576
-833.784
183.802
-840.032
173.93
-847.013
162.813
-854.952
150.405
-864.147
136.807
-874.949
122.237
-887.762
107.069
-903.071
91.9257
-921.422
77.744
-943.385
65.7131
-969.504
57.4346
-1000.23
54.6556
-1035.98
59.1558
-1076.93
73.4382
-1123.1
99.2583
-1174.48
137.768
-1231.22
189.34
-1293.55
254.186
-1361.67
332.841
-1435.72
425.539
-1515.79
531.797
-1601.77
650.322
-1693.12
778.976
-1788.52
914.493
-1885.54
1051.72
-1980.37
1182.97
-2067.06
1299.13
-2136.29
1391.47
-2176.05
1449.67
-2173.54
1464.78
-2118.9
1433.65
-2011.1
1362.94
-1865.56
1280.74
-1718.8
1252.54
-1613.62
1361.48
-1565.48
1638.03
-1554.36
2036.88
-1552.7
2502.05
-1545.48
3015.54
-1528.31
3586.76
-1499.98
4227.84
-1457.81
4937.05
-1398.57
5694.72
-1318.75
6461.7
-1214.28
7185.84
-1079.95
7807.67
-908.397
8240.29
-689.998
8331.19
-415.117
7814.81
-79.953
6257.6
319.035
3160.95
727.314
-1541.86
770.455
-3280.28
591.532
-3546.63
383.653
-2823.43
294.556
-1830.08
294.213
-737.491
488.5
-112.468
793.083
768.941
911.212
2247.74
863.252
3169.27
720.802
3375.71
555.863
3063.59
407.454
2505.06
287.946
1871.15
200.117
1249.36
141.876
675.797
93.9225
107.738
61.5821
-335.075
56.5323
-1538.01
35.6101
-2452.72
-3234.41
-809.859
229.571
-813.292
227.191
-816.853
221.978
-820.624
217.075
-824.608
211.232
-828.888
204.653
-833.566
197.253
-838.778
189.014
-844.676
179.829
-851.452
169.588
-859.363
158.316
-868.745
146.189
-879.979
133.471
-893.497
120.586
-909.805
108.233
-929.45
97.3887
-952.978
89.2405
-980.889
85.3454
-1013.6
87.3628
-1051.44
96.997
-1094.54
116.539
-1142.93
147.645
-1196.61
191.448
-1255.71
248.446
-1320.49
318.964
-1391.14
403.49
-1467.8
502.194
-1550.49
614.491
-1639
738.833
-1732.57
872.544
-1829.5
1011.42
-1926.74
1148.95
-2019.41
1275.65
-2100.05
1379.76
-2157.53
1448.95
-2178.1
1470.24
-2148.17
1434.85
-2060.2
1345.68
-1920.74
1223.47
-1758.25
1118.26
-1620.7
1114.99
-1545.6
1286.37
-1527.52
1619.95
-1533.21
2042.57
-1537.41
2506.25
-1531.51
3009.64
-1514.76
3570.01
-1486.87
4199.95
-1445.2
4895.37
-1386.44
5635.96
-1307.04
6382.3
-1203.22
7082.03
-1070.15
7674.59
-900.77
8070.92
-684.895
8115.31
-412.984
7542.9
-80.2495
5924.87
322.668
2758.03
650.48
-1869.68
618.528
-3248.33
345.243
-3273.35
169.304
-2647.49
174.909
-1835.69
239.872
-802.456
364.414
-237.013
666.065
467.289
836.28
2077.53
840.996
3164.56
725.987
3490.72
569.844
3219.74
422.163
2652.74
301.384
1991.93
212.938
1337.81
154.635
734.097
106.803
155.566
68.946
-297.221
63.2909
-1532.36
39.7806
-2429.21
-3216.91
-816.848
231.703
-819.529
229.872
-822.499
224.949
-825.688
220.264
-829.152
214.696
-832.981
208.482
-837.297
201.57
-842.26
193.977
-848.049
185.617
-854.885
176.423
-863.058
166.49
-872.932
156.063
-884.909
145.448
-899.434
135.112
-917.02
125.82
-938.197
118.565
-963.47
114.514
-993.288
115.163
-1028.01
122.088
-1067.92
136.901
-1113.1
161.719
-1163.58
198.13
-1219.4
247.268
-1280.7
309.745
-1347.72
385.985
-1420.67
476.437
-1499.65
581.183
-1584.64
699.48
-1675.26
829.448
-1770.47
967.754
-1868.13
1109.08
-1964.45
1245.27
-2053.35
1364.55
-2125.63
1452.04
-2168.24
1491.57
-2165.7
1467.7
-2104.41
1373.56
-1981.16
1222.43
-1813.62
1055.93
-1646.18
950.81
-1533.56
1002.37