/*--------------------------------*- C++ -*----------------------------------*\
| =========                 |                                                 |
| \\      /  F ield         | OpenFOAM: The Open Source CFD Toolbox           |
|  \\    /   O peration     | Version:  4.1                                   |
|   \\  /    A nd           | Web:      www.OpenFOAM.org                      |
|    \\/     M anipulation  |                                                 |
\*---------------------------------------------------------------------------*/
FoamFile
{
    version     2.0;
    format      ascii;
    class       volVectorField;
    location    "8";
    object      U;
}
// * * * * * * * * * * * * * * * * * * * * * * * * * * * * * * * * * * * * * //

dimensions      [0 1 -1 0 0 0 0];

internalField   nonuniform List<vector> 
6785
(
(1.09875e-14 0.684591 15.7418)
(1.7186e-14 -5.13029 12.0537)
(-3.80833e-15 -4.29249 12.1841)
(2.2723e-15 -3.72375 12.0221)
(1.21163e-15 -3.1193 11.901)
(-5.52081e-16 -2.66645 11.7153)
(1.38784e-15 -2.3176 11.4881)
(5.85541e-16 -2.07343 11.2168)
(-1.06156e-15 -1.90794 10.9139)
(2.6979e-15 -1.8172 10.5843)
(4.46275e-16 -1.92242 10.165)
(-2.01319e-16 -2.37179 9.56012)
(1.0811e-15 -2.68973 8.96982)
(-1.32568e-16 -1.33552 8.92613)
(-9.76022e-16 1.733 7.64137)
(1.63554e-14 -5.63792 22.1817)
(1.59042e-14 -14.7671 21.3398)
(-6.87088e-16 -13.2425 20.4984)
(1.3968e-15 -11.8213 19.6219)
(2.00374e-15 -11.2268 18.5971)
(3.84641e-16 -10.7092 17.6048)
(3.51357e-15 -10.1209 16.6521)
(1.71801e-15 -9.54478 15.6955)
(-7.79368e-16 -8.97905 14.7275)
(2.54554e-15 -8.37629 13.7517)
(1.12242e-15 -7.75124 12.7738)
(5.38417e-17 -7.27675 11.7831)
(3.38267e-15 -7.01215 10.6939)
(9.93212e-16 -5.7842 8.97411)
(-9.42183e-16 -1.73318 4.85317)
(1.49427e-14 -7.89593 22.1866)
(1.76427e-14 -16.7497 24.7014)
(3.72677e-16 -13.8113 23.9905)
(2.30767e-15 -12.4976 22.655)
(2.23839e-15 -11.8332 21.2609)
(6.43777e-16 -10.9892 20.0204)
(1.27557e-15 -10.1075 18.7899)
(-1.65396e-16 -9.2611 17.5386)
(-6.35308e-16 -8.43692 16.2751)
(-1.75497e-15 -7.62019 15.0225)
(1.80281e-15 -6.79701 13.8033)
(-2.12511e-16 -5.96846 12.4322)
(5.57221e-16 -4.99092 10.3262)
(-2.85818e-16 -3.27509 6.88985)
(-3.30694e-16 -0.662309 2.39861)
(1.73606e-14 -8.14283 17.9858)
(1.77363e-14 -16.3387 24.4547)
(3.16432e-15 -13.4368 23.9534)
(3.60214e-15 -12.5312 22.118)
(1.70807e-15 -11.7976 20.6135)
(1.67668e-15 -10.8466 19.2817)
(2.32947e-15 -9.96765 17.9215)
(4.42836e-16 -9.13812 16.5567)
(1.96758e-15 -8.34532 15.2035)
(3.00355e-16 -7.59632 13.8754)
(-3.38915e-16 -6.83588 12.532)
(1.55655e-15 -5.87443 10.863)
(-1.30822e-15 -4.38593 8.19653)
(-4.16808e-15 -2.24389 3.974)
(1.16244e-14 0.0129043 -1.35267)
(1.27839e-14 -7.32173 13.9134)
(1.77244e-14 -15.3602 23.7124)
(1.82212e-15 -13.9061 24.0463)
(2.23078e-15 -13.0911 21.9522)
(-1.21953e-15 -12.299 20.3344)
(-2.68662e-15 -11.3793 18.961)
(3.69655e-16 -10.5629 17.5514)
(-2.71967e-15 -9.77004 16.1485)
(5.10148e-15 -8.98458 14.7755)
(-1.36209e-15 -8.227 13.4368)
(-4.36242e-15 -7.46161 12.0831)
(-1.65743e-15 -6.51747 10.4491)
(-3.19237e-15 -5.04686 8.04489)
(-9.50174e-15 -3.17273 4.56929)
(-1.33684e-14 -1.17765 1.4802)
(1.04108e-14 -6.11862 10.8589)
(1.5003e-14 -14.1665 22.6734)
(8.96616e-15 -14.3407 24.334)
(2.51553e-15 -13.5262 22.4686)
(-1.36569e-15 -12.5721 20.7481)
(2.57415e-15 -11.6381 19.3219)
(-1.78942e-15 -10.8176 17.8992)
(-8.77242e-16 -9.99876 16.4878)
(5.59805e-15 -9.17275 15.1051)
(-5.21829e-15 -8.36692 13.7554)
(-2.93671e-15 -7.55985 12.4003)
(-3.66404e-16 -6.63487 10.8188)
(-2.74227e-15 -5.24063 8.63805)
(-5.66675e-15 -3.66848 5.60162)
(3.48412e-15 -1.44641 3.03336)
(1.85055e-14 -5.11065 8.81998)
(1.77216e-14 -12.999 21.5727)
(1.03373e-14 -14.3006 24.2362)
(4.36244e-15 -13.5838 22.8807)
(3.70367e-16 -12.543 21.1357)
(2.72492e-15 -11.6059 19.6442)
(3.73082e-15 -10.7757 18.208)
(6.83732e-15 -9.93673 16.7931)
(2.32726e-15 -9.0973 15.4008)
(1.05641e-15 -8.2837 14.0386)
(6.70463e-15 -7.47254 12.6764)
(1.19031e-14 -6.57986 11.0977)
(-2.70722e-15 -5.19022 8.99093)
(-6.05771e-15 -3.93311 6.09614)
(1.11901e-14 -1.52466 3.98299)
(1.07328e-14 -4.63149 8.01228)
(1.76843e-14 -12.1993 20.8256)
(1.18221e-14 -14.0476 23.8053)
(6.80618e-15 -13.4735 23.0235)
(1.04028e-15 -12.4757 21.3221)
(3.36854e-15 -11.5646 19.7835)
(2.28119e-15 -10.7342 18.3381)
(1.04388e-15 -9.89499 16.9208)
(1.96994e-15 -9.06431 15.5218)
(-9.52309e-17 -8.26063 14.1526)
(-5.20624e-16 -7.4534 12.7838)
(4.09473e-15 -6.57846 11.1748)
(-2.21514e-15 -5.10652 9.06897)
(-5.4842e-15 -4.07382 6.1618)
(3.1979e-15 -1.54138 4.35633)
(9.94988e-15 -4.50115 7.83219)
(1.74938e-14 -11.718 20.3233)
(1.21261e-14 -13.8119 23.2531)
(2.62741e-15 -13.3911 23.0346)
(1.46509e-15 -12.5045 21.4215)
(2.63045e-16 -11.6086 19.8628)
(2.41108e-15 -10.7702 18.4154)
(1.17022e-15 -9.93292 16.998)
(-8.58587e-16 -9.10889 15.5963)
(6.83771e-16 -8.30971 14.2253)
(-2.49246e-16 -7.49688 12.8527)
(4.24564e-15 -6.63017 11.1976)
(-1.56914e-15 -5.04571 9.08252)
(-4.95079e-15 -4.22506 6.2186)
(-3.63036e-15 -1.61798 4.65705)
(5.82004e-15 -4.40288 7.54589)
(1.56762e-14 -11.34 19.8126)
(7.82402e-15 -13.6313 22.7382)
(4.78086e-17 -13.3692 23.011)
(1.72581e-15 -12.6083 21.5223)
(-1.73771e-15 -11.7071 19.9594)
(2.95042e-17 -10.8524 18.5091)
(7.99451e-16 -10.0142 17.0916)
(-1.12319e-15 -9.19006 15.6905)
(-1.9686e-15 -8.38941 14.3197)
(-2.36644e-15 -7.56274 12.9451)
(-6.7951e-15 -6.70103 11.2385)
(-1.36839e-14 -5.01159 9.11845)
(-2.5158e-15 -4.39653 6.36348)
(-8.65561e-15 -1.75072 5.00992)
(-8.2935e-15 -4.17975 6.95145)
(1.33724e-14 -10.9224 19.174)
(7.0114e-15 -13.4686 22.3121)
(-4.25791e-16 -13.3876 23.0082)
(2.35468e-15 -12.7554 21.6845)
(-2.89511e-15 -11.8487 20.127)
(-8.48125e-16 -10.9761 18.664)
(1.28385e-15 -10.1335 17.2402)
(-4.85218e-15 -9.3032 15.8365)
(-2.77326e-15 -8.49752 14.461)
(-4.73822e-15 -7.64964 13.0832)
(-1.80763e-14 -6.79265 11.329)
(-5.24673e-15 -5.0231 9.20815)
(-1.24277e-14 -4.57955 6.56694)
(-1.56443e-14 -1.90133 5.38324)
(7.7334e-16 -3.82601 6.10034)
(1.83382e-14 -10.4148 18.4024)
(5.46117e-15 -13.2487 21.8966)
(3.26058e-15 -13.3387 22.9555)
(3.40253e-15 -12.8175 21.7964)
(-5.23266e-15 -11.9003 20.2607)
(-1.06475e-15 -11.0164 18.7967)
(2.76816e-15 -10.1743 17.3775)
(-6.44921e-15 -9.34446 15.9817)
(-2.87685e-15 -8.54283 14.6077)
(3.44705e-15 -7.68066 13.2227)
(-1.24477e-14 -6.82094 11.4083)
(-6.00784e-15 -4.98954 9.29269)
(-1.68431e-14 -4.75994 6.80516)
(-1.69748e-14 -2.04337 5.74543)
(-1.10098e-14 -3.62908 5.74829)
(1.48198e-14 -10.0425 17.8044)
(7.437e-15 -13.151 21.7139)
(2.58718e-15 -13.4744 23.1173)
(3.97721e-15 -13.0913 22.1639)
(-5.81946e-15 -12.1951 20.6243)
(-3.36569e-15 -11.275 19.0847)
(5.90146e-15 -10.3986 17.6044)
(-6.45882e-15 -9.52928 16.1583)
(-3.90017e-15 -8.7008 14.7389)
(2.37386e-15 -7.78648 13.3308)
(-1.31788e-14 -6.92925 11.4492)
(-8.11776e-15 -4.99427 9.29532)
(-1.34548e-14 -4.81805 6.81273)
(-1.80363e-14 -2.11651 5.85944)
(-1.10045e-14 -2.78738 3.54736)
(1.21686e-14 -9.07737 16.4309)
(5.17409e-15 -12.3338 20.7318)
(1.64543e-15 -12.6675 22.4521)
(2.76698e-15 -12.361 21.6534)
(-5.31444e-15 -11.4933 20.3425)
(-1.43213e-15 -10.695 19.0491)
(4.16227e-15 -9.94069 17.754)
(-6.41235e-15 -9.19191 16.4613)
(-1.92027e-15 -8.4444 15.13)
(-6.95859e-16 -7.60966 13.7017)
(-1.23938e-14 -6.69509 11.802)
(-7.26678e-15 -5.08299 9.72896)
(-1.46402e-14 -5.10099 7.72302)
(-1.58682e-14 -2.26922 6.39352)
(-7.35438e-15 -5.93138 12.1185)
(1.11218e-14 -11.3728 20.5264)
(7.42589e-15 -14.462 23.6481)
(2.64254e-15 -15.1895 25.0552)
(1.51485e-15 -14.9436 23.8834)
(-3.37068e-15 -13.8164 21.8855)
(-2.84775e-15 -12.418 19.6114)
(1.38077e-15 -11.0203 17.5701)
(-4.06033e-15 -9.67421 15.6262)
(-3.03549e-15 -8.49529 13.8395)
(-3.79526e-15 -7.1903 12.0594)
(-1.09637e-14 -5.89518 9.62158)
(-8.98723e-15 -3.71747 7.1502)
(-1.91349e-14 -3.37177 4.484)
(-1.14e-14 -0.750013 2.62444)
(-1.404e-15 0.0436982 -1.71002)
(-2.01339e-15 0.477435 -4.16476)
(-1.51826e-15 0.558219 -3.45964)
(-1.5021e-15 0.837143 -3.19757)
(-1.4668e-15 0.958855 -2.9793)
(-2.0107e-15 1.50179 -3.48982)
(-1.41361e-15 1.16326 -2.59839)
(-8.09018e-16 1.37629 -2.41638)
(-8.03164e-16 1.44794 -2.25716)
(1.31962e-15 1.97729 -2.46509)
(1.6256e-15 1.50999 -1.8076)
(1.10089e-15 1.55126 -1.69249)
(5.97872e-16 2.03746 -1.81397)
(3.28657e-16 1.53595 -1.38761)
(9.65269e-16 1.62285 -1.23066)
(1.45499e-15 1.63556 -1.12698)
(4.94911e-15 2.00545 -1.0402)
(3.97248e-15 1.53855 -0.773829)
(4.47669e-15 1.53732 -0.706481)
(9.56409e-15 1.856 -0.494256)
(8.22933e-15 1.40909 -0.346202)
(8.75743e-15 1.44916 -0.234528)
(8.25996e-15 1.42437 -0.192519)
(1.18055e-14 1.67909 0.0553227)
(9.21996e-15 1.26078 0.0287272)
(9.65077e-15 1.28319 0.0546562)
(8.30868e-15 1.25426 0.0455353)
(9.73803e-15 1.43725 0.23092)
(6.36843e-15 1.09643 0.0944894)
(4.49383e-15 1.08972 0.0727533)
(3.0305e-15 1.2408 0.256507)
(1.27602e-15 0.920377 0.115902)
(-6.0549e-16 0.963799 0.0734765)
(-1.00285e-15 0.92466 0.0482476)
(-3.93335e-15 1.0254 0.165004)
(-3.78696e-15 0.792889 0.0101599)
(-3.81803e-15 0.79789 -0.0100181)
(-5.0511e-15 0.864927 0.0883286)
(-3.67202e-15 0.642243 -0.0500873)
(-3.09168e-15 0.705855 -0.0844696)
(-2.95815e-15 0.651562 -0.0864718)
(-1.70171e-15 0.756087 -0.0150024)
(-7.79527e-16 0.552105 -0.118092)
(-4.60465e-16 0.596645 -0.132482)
(-2.90312e-16 0.542051 -0.120308)
(2.92994e-17 0.648456 -0.0755454)
(2.19982e-16 0.479684 -0.146817)
(-9.0273e-16 0.496983 -0.140603)
(-1.51718e-15 0.530161 -0.146158)
(-1.45928e-15 0.384955 -0.198381)
(-1.8272e-16 0.456711 -0.196109)
(-1.8805e-17 0.400285 -0.18251)
(3.7041e-16 0.548095 -0.173603)
(4.26171e-16 0.374202 -0.16555)
(6.39381e-16 0.436293 -0.14485)
(2.61613e-15 0.389766 -0.119437)
(3.78627e-15 0.496606 -0.0882704)
(2.61262e-15 0.357275 -0.0868245)
(2.87867e-15 0.382873 -0.0676745)
(2.60992e-15 0.41512 -0.0387263)
(1.69174e-15 0.284079 -0.0462866)
(1.53453e-15 0.325924 -0.0255224)
(1.72051e-15 0.298409 -0.00732105)
(1.58943e-14 0.296017 -0.0189711)
(7.43112e-15 0.156131 -0.0353406)
(5.85765e-15 0.182042 -0.0157309)
(2.20045e-15 0.0768471 -0.139483)
(-6.99216e-15 -0.0742004 0.655475)
(-4.78008e-15 -0.092882 0.977865)
(-3.90089e-15 -0.157239 1.22616)
(-5.04171e-15 -0.439871 2.40774)
(-4.45874e-15 -0.829802 2.80592)
(-4.46442e-15 -0.96476 2.87567)
(-4.66376e-15 -1.09431 2.98672)
(-9.27815e-15 -2.00041 4.93689)
(-3.18204e-15 -2.15506 4.44815)
(-3.91263e-15 -2.29934 4.69506)
(-6.35263e-15 -3.79816 7.32175)
(-5.05766e-15 -3.87043 6.04778)
(-5.61779e-15 -4.08667 6.47241)
(-7.59818e-15 -4.47276 7.67613)
(-7.32585e-15 -4.48573 7.75766)
(-7.32295e-15 -4.76173 8.02872)
(-6.3869e-15 -5.69684 10.6241)
(-7.74654e-15 -5.32721 9.74507)
(-8.36548e-15 -5.65232 10.207)
(-8.32984e-15 -5.65213 10.3868)
(-8.00779e-15 -5.7258 10.5775)
(-7.72627e-15 -5.79441 10.7854)
(-7.33569e-15 -5.85186 11.0258)
(-6.44484e-15 -5.95506 11.4104)
(-5.39254e-15 -6.16647 11.8797)
(-4.48194e-15 -6.78735 14.1458)
(-5.27684e-15 -6.84444 13.3076)
(-5.07388e-15 -7.01984 13.6188)
(-5.05409e-15 -6.97867 13.8227)
(-5.19591e-15 -7.20739 14.3417)
(-4.94744e-15 -7.14966 14.4243)
(-4.79461e-15 -7.22002 14.6458)
(-4.58534e-15 -7.28552 14.8562)
(-4.31351e-15 -7.47 15.1223)
(-1.42665e-15 -7.81485 17.5515)
(-1.45362e-15 -8.09056 16.6756)
(-1.30979e-15 -8.19362 16.9357)
(-1.20309e-15 -8.23289 17.0779)
(-1.07569e-15 -8.27129 17.28)
(-8.96056e-16 -8.32685 17.5674)
(-7.06157e-16 -8.41542 17.8845)
(-6.31446e-16 -8.40241 18.0172)
(-5.05563e-16 -8.48044 18.2226)
(-3.84031e-16 -8.63883 18.4423)
(-8.63851e-16 -8.58017 20.1959)
(-5.47778e-16 -9.09466 19.369)
(-3.77029e-16 -9.12338 19.5888)
(-3.14575e-16 -9.16974 19.7082)
(-1.89499e-16 -9.21567 19.8723)
(7.96385e-18 -9.21925 20.0622)
(6.32642e-16 -9.28066 20.4136)
(7.22982e-16 -9.30946 20.5871)
(6.61889e-16 -9.44635 20.6976)
(6.1089e-16 -8.84732 21.2264)
(5.27201e-16 -9.5207 20.452)
(2.57966e-16 -9.47137 20.7238)
(-1.6988e-17 -9.5262 20.9157)
(1.71301e-16 -9.47648 20.9092)
(2.40407e-16 -9.49963 20.961)
(3.50058e-16 -9.48231 21.0021)
(4.54717e-16 -9.46753 21.0819)
(5.39155e-16 -9.62739 21.3712)
(2.03812e-15 -7.94914 19.8477)
(1.59038e-15 -9.1213 19.7778)
(1.80254e-15 -8.93681 19.6434)
(2.01098e-15 -8.91567 19.5532)
(2.62324e-15 -8.882 19.5828)
(2.80672e-15 -8.79466 19.4013)
(2.84235e-15 -8.70443 19.1274)
(2.9213e-15 -8.6645 18.8257)
(2.98501e-15 -8.58809 18.4404)
(3.4111e-15 -6.30902 15.031)
(3.43925e-15 -7.63241 16.0882)
(3.46028e-15 -7.26652 15.4738)
(3.47103e-15 -7.24179 15.0458)
(3.50392e-15 -7.10283 14.4952)
(3.61407e-15 -7.00345 13.8785)
(4.20539e-15 -6.78598 13.0563)
(3.83857e-15 -6.69298 12.5098)
(3.68545e-15 -6.53073 11.7982)
(3.45415e-15 -6.28724 11.0118)
(2.38501e-15 -3.78308 5.67218)
(3.19941e-15 -5.35573 7.95417)
(2.91894e-15 -4.76065 6.76216)
(2.54288e-15 -4.7651 6.16384)
(2.14319e-15 -4.5025 5.33133)
(1.59745e-15 -4.41378 4.39727)
(3.89965e-16 -4.24161 2.99445)
(-8.48971e-16 -3.87448 1.61014)
(-5.54791e-16 -3.72459 1.27123)
(-2.44137e-16 -2.04705 -1.95643)
(-4.63744e-16 -4.32339 -0.553327)
(-2.95233e-16 -3.96498 -1.48398)
(3.4358e-16 -2.02107 -3.899)
(1.30905e-16 -4.54693 -3.54083)
(9.13673e-17 -3.22278 -3.3817)
(-2.99484e-16 -2.59937 -2.65132)
(5.82388e-17 -2.85237 -3.53147)
(2.19345e-16 -1.72905 -2.61885)
(4.42884e-16 -1.92914 -3.70116)
(-1.40633e-15 -1.50673 -3.1778)
(-5.82054e-16 -0.914495 -2.58865)
(-5.93622e-16 -0.711896 -3.25542)
(-5.17332e-16 -0.673427 -2.65915)
(-3.79093e-16 -0.510531 -2.66765)
(-5.00717e-16 0.20599 -2.35996)
(-2.10755e-16 0.143507 -2.37071)
(-3.82469e-17 0.661253 -2.51163)
(-2.46954e-15 1.07786 -2.67811)
(-1.32274e-15 0.894854 -2.09221)
(-1.54774e-15 1.52368 -2.44085)
(-1.21252e-15 1.36107 -1.94184)
(-1.32112e-15 1.85975 -2.16846)
(-1.37428e-15 2.36641 -2.1879)
(-9.63286e-16 1.8293 -1.63943)
(-8.38889e-16 2.47183 -1.81282)
(-1.31474e-15 3.10511 -1.80268)
(-1.0541e-15 2.24878 -1.34537)
(-1.36362e-15 3.48412 -1.55812)
(-9.42735e-16 2.67368 -1.21597)
(-1.22621e-15 3.37342 -1.35662)
(-1.35253e-15 4.03047 -1.32568)
(-9.41403e-16 2.86331 -0.990757)
(-1.21322e-15 4.30713 -1.1343)
(-9.05466e-16 3.2396 -0.882472)
(-1.07893e-15 4.03063 -0.985889)
(-1.78138e-15 4.62597 -0.944891)
(-7.2239e-16 3.37566 -0.706797)
(-9.20448e-16 4.25476 -0.770128)
(-1.51749e-15 4.96341 -0.716403)
(-1.01959e-15 3.47619 -0.544759)
(-1.34031e-15 5.11204 -0.61672)
(-9.80548e-16 3.79554 -0.473052)
(-1.17457e-15 4.6332 -0.538327)
(-1.50546e-15 5.3313 -0.486533)
(-8.67236e-16 3.73208 -0.366631)
(-1.5858e-15 5.41555 -0.41032)
(-1.18194e-15 4.01011 -0.307991)
(-1.33619e-15 4.87728 -0.364215)
(-2.04805e-15 5.49064 -0.309015)
(-1.39326e-15 3.97412 -0.226962)
(-1.62301e-15 4.90913 -0.250632)
(-2.12643e-15 5.61695 -0.16876)
(-1.379e-15 3.8997 -0.147307)
(-2.02875e-15 5.63938 -0.134424)
(-1.46673e-15 4.15644 -0.100832)
(-1.87705e-15 5.01893 -0.123357)
(-2.43594e-15 5.6776 -0.0308176)
(-1.61127e-15 3.9488 -0.0465465)
(-2.54301e-15 5.66651 -0.00378212)
(-1.68958e-15 4.1738 -0.0052389)
(-2.14845e-15 5.03437 -0.00937295)
(-2.68096e-15 5.57963 0.0794523)
(-1.80801e-15 4.02838 0.0386126)
(-2.29658e-15 4.94458 0.0695499)
(-2.57654e-15 5.5654 0.163)
(-1.81004e-15 3.86145 0.0822895)
(-2.51062e-15 5.54194 0.145399)
(-1.89891e-15 4.0853 0.100823)
(-2.33559e-15 4.87531 0.11699)
(-2.86766e-15 5.44706 0.182526)
(-1.86407e-15 3.79278 0.109549)
(-2.57122e-15 5.43339 0.15694)
(-1.87788e-15 4.00752 0.113968)
(-2.34325e-15 4.78114 0.116833)
(-2.74091e-15 5.26641 0.149374)
(-1.81623e-15 3.81766 0.0986702)
(-2.22411e-15 4.67417 0.11577)
(-2.62123e-15 5.25148 0.138112)
(-1.75829e-15 3.64388 0.0908194)
(-2.38115e-15 5.30164 0.0869136)
(-1.74236e-15 3.87272 0.0718801)
(-2.3334e-15 4.77835 0.0231112)
(-5.99547e-16 -0.36473 5.6925)
(-4.51821e-16 -0.360899 5.58194)
(-3.64977e-16 -0.339503 5.51652)
(-2.63709e-16 -0.328524 5.4402)
(-1.63115e-16 -0.313474 5.36508)
(-6.09465e-17 -0.298694 5.28902)
(4.18162e-17 -0.282162 5.21311)
(1.44363e-16 -0.263545 5.13807)
(2.4565e-16 -0.242083 5.06487)
(3.44304e-16 -0.217338 4.99475)
(4.38577e-16 -0.187815 4.92937)
(5.26195e-16 -0.151921 4.87086)
(6.04447e-16 -0.108336 4.82168)
(6.7013e-16 -0.0547655 4.78498)
(7.19753e-16 0.012597 4.7642)
(7.49822e-16 0.097488 4.76297)
(7.57586e-16 0.203619 4.7845)
(7.4188e-16 0.334279 4.83078)
(7.04035e-16 0.489162 4.90165)
(6.48555e-16 0.662593 4.99395)
(5.83001e-16 0.840713 5.10084)
(5.1688e-16 0.998232 5.21237)
(4.59553e-16 1.09855 5.31377)
(4.18284e-16 1.13495 5.38779)
(3.91762e-16 1.14976 5.44441)
(3.75159e-16 1.15331 5.49653)
(3.69368e-16 1.14828 5.53927)
(3.7413e-16 1.1353 5.57195)
(3.88007e-16 1.11334 5.59608)
(4.08248e-16 1.07655 5.61636)
(4.3116e-16 1.00554 5.64163)
(4.5322e-16 0.855434 5.68156)
(4.73285e-16 0.589593 5.71807)
(4.95178e-16 0.475825 5.84774)
(5.4345e-16 0.25917 6.12472)
(6.13451e-16 0.0548351 6.51663)
(7.05511e-16 -0.143586 7.02667)
(8.15727e-16 -0.352518 7.64667)
(9.31642e-16 -0.591555 8.36079)
(1.03145e-15 -0.880098 9.15648)
(1.08706e-15 -1.23662 10.0288)
(1.07113e-15 -1.67576 10.9748)
(9.6659e-16 -2.20911 11.9775)
(7.75902e-16 -2.84231 12.9804)
(5.27281e-16 -3.57953 13.8608)
(2.72892e-16 -4.43173 14.43)
(7.27686e-17 -5.42125 14.4969)
(-3.28317e-17 -6.56532 13.9881)
(-4.33802e-17 -7.83849 13.0258)
(8.01635e-18 -9.16122 11.8741)
(7.93687e-17 -10.4591 10.7881)
(1.41108e-16 -11.7542 9.8683)
(1.79138e-16 -13.1519 8.99558)
(1.79374e-16 -14.6461 7.90261)
(1.15127e-16 -15.9318 6.35527)
(-4.23022e-17 -16.4529 4.31879)
(-2.98098e-16 -15.4475 2.00478)
(-6.21889e-16 -10.8488 -0.50071)
(-7.70517e-16 -4.86471 -1.22958)
(-8.13586e-16 -0.47325 -1.61181)
(-8.13478e-16 1.76843 -2.61625)
(-8.01241e-16 2.39037 -3.51916)
(-7.89064e-16 2.28995 -4.26941)
(-7.81234e-16 1.74042 -4.85511)
(-7.83993e-16 0.503013 -4.95439)
(-8.04719e-16 -0.002499 -4.25545)
(-8.17684e-16 -0.613961 -3.52333)
(-8.20159e-16 -0.83853 -2.63296)
(-7.93393e-16 -1.00694 -2.06807)
(-7.84337e-16 -1.02306 -1.78336)
(-8.4702e-16 -0.890459 -1.49138)
(-9.09475e-16 -0.702572 -1.23692)
(-9.25628e-16 -0.460593 -1.12269)
(-9.27062e-16 -0.0296754 -1.0972)
(-9.23608e-16 0.554567 -0.91076)
(-9.08997e-16 1.10963 -0.296607)
(-8.25321e-16 2.29348 -0.267993)
(-8.35771e-16 3.70766 -0.182236)
(-1.2216e-15 4.90835 0.0701014)
(-4.17191e-16 -0.334971 5.56752)
(-2.62442e-16 -0.319396 5.44689)
(-1.74023e-16 -0.294516 5.38198)
(-7.0861e-17 -0.275829 5.30527)
(2.96628e-17 -0.252981 5.23239)
(1.29877e-16 -0.229014 5.1604)
(2.28245e-16 -0.201892 5.09102)
(3.23463e-16 -0.171327 5.02536)
(4.13865e-16 -0.136602 4.96492)
(4.97446e-16 -0.0969813 4.91157)
(5.71871e-16 -0.0511786 4.8675)
(6.34568e-16 0.00112112 4.83505)
(6.82964e-16 0.0598148 4.81669)
(7.14645e-16 0.124846 4.81488)
(7.28061e-16 0.19619 4.83138)
(7.22678e-16 0.271723 4.86711)
(6.99631e-16 0.348074 4.92197)
(6.61811e-16 0.421459 4.99453)
(6.13766e-16 0.486609 5.08202)
(5.61151e-16 0.539179 5.18072)
(5.09617e-16 0.576315 5.28637)
(4.64446e-16 0.598379 5.3933)
(4.29221e-16 0.608779 5.49142)
(4.06172e-16 0.61367 5.57062)
(3.96295e-16 0.622467 5.63923)
(3.99546e-16 0.61962 5.70851)
(4.14664e-16 0.607388 5.7767)
(4.39816e-16 0.582454 5.84795)
(4.71766e-16 0.541012 5.92894)
(5.05964e-16 0.47845 6.02717)
(5.37674e-16 0.390466 6.14596)
(5.64135e-16 0.275154 6.27393)
(5.87965e-16 0.143858 6.37128)
(6.19401e-16 0.0426417 6.54703)
(6.71144e-16 -0.108204 6.87723)
(7.418e-16 -0.272603 7.29514)
(8.28049e-16 -0.453863 7.80748)
(9.21395e-16 -0.663177 8.41102)
(1.00637e-15 -0.915595 9.09712)
(1.06198e-15 -1.22608 9.85905)
(1.06565e-15 -1.61058 10.6915)
(9.99354e-16 -2.08082 11.5821)
(8.56589e-16 -2.64498 12.4963)
(6.49041e-16 -3.30378 13.3584)
(4.09781e-16 -4.05602 14.0405)
(1.87609e-16 -4.90959 14.3854)
(2.92804e-17 -5.88603 14.2732)
(-4.19308e-17 -7.00059 13.6948)
(-3.45741e-17 -8.2258 12.7708)
(2.07859e-17 -9.4876 11.7022)
(8.94773e-17 -10.7254 10.6812)
(1.47224e-16 -11.9698 9.78535)
(1.81273e-16 -13.3105 8.91073)
(1.77072e-16 -14.7128 7.81843)
(1.08628e-16 -15.8664 6.29454)
(-5.05236e-17 -16.2409 4.30457)
(-3.04193e-16 -15.0876 2.03672)
(-6.21673e-16 -10.4659 -0.453255)
(-7.67195e-16 -4.52118 -1.29267)
(-8.08192e-16 0.323986 -2.09364)
(-8.05643e-16 1.75041 -3.05162)
(-7.89928e-16 2.53159 -4.11373)
(-7.74376e-16 2.52081 -4.96752)
(-7.64511e-16 1.96427 -5.57306)
(-7.68579e-16 0.610159 -5.65815)
(-7.899e-16 -0.237113 -4.94069)
(-8.07778e-16 -0.890753 -4.04025)
(-8.18693e-16 -1.14184 -3.00975)
(-8.00313e-16 -1.25787 -2.21816)
(-7.83877e-16 -1.23511 -1.80623)
(-8.31882e-16 -1.06503 -1.49192)
(-8.96202e-16 -0.819026 -1.22177)
(-9.22529e-16 -0.518112 -1.07808)
(-9.28284e-16 -0.0798488 -1.01896)
(-9.2226e-16 0.453136 -0.729164)
(-8.99806e-16 0.992846 -0.15967)
(-8.22929e-16 2.24739 -0.249521)
(-8.30588e-16 3.65092 -0.165524)
(-1.18265e-15 4.8838 0.129999)
(-2.00073e-16 -0.309485 5.40479)
(-4.32417e-17 -0.293168 5.28352)
(4.24372e-17 -0.271719 5.22364)
(1.42301e-16 -0.252522 5.15184)
(2.36603e-16 -0.229486 5.08726)
(3.27992e-16 -0.204863 5.02613)
(4.14388e-16 -0.177247 4.9709)
(4.94252e-16 -0.146613 4.92278)
(5.65707e-16 -0.11249 4.88346)
(6.26729e-16 -0.0742115 4.85486)
(6.75232e-16 -0.0314132 4.83882)
(7.09334e-16 0.0156292 4.83692)
(7.27625e-16 0.0660797 4.85069)
(7.29505e-16 0.117947 4.88089)
(7.15363e-16 0.171655 4.92755)
(6.86888e-16 0.225324 4.98964)
(6.47132e-16 0.276914 5.06584)
(6.00165e-16 0.325335 5.15426)
(5.50739e-16 0.369258 5.25266)
(5.03704e-16 0.407431 5.35885)
(4.63291e-16 0.437943 5.47055)
(4.33015e-16 0.457949 5.58403)
(4.1488e-16 0.463108 5.69209)
(4.09827e-16 0.45914 5.78753)
(4.17681e-16 0.45704 5.87739)
(4.3787e-16 0.445054 5.97304)
(4.68535e-16 0.420801 6.07799)
(5.06998e-16 0.381432 6.19821)
(5.49415e-16 0.32426 6.34072)
(5.91462e-16 0.247308 6.5103)
(6.295e-16 0.149251 6.70369)
(6.62509e-16 0.0272031 6.90131)
(6.94381e-16 -0.095091 7.07279)
(7.3578e-16 -0.158391 7.32097)
(7.92393e-16 -0.294407 7.69283)
(8.61664e-16 -0.459273 8.14029)
(9.36979e-16 -0.651352 8.66534)
(1.0063e-15 -0.877534 9.26596)
(1.0527e-15 -1.14992 9.9371)
(1.05774e-15 -1.48156 10.6735)
(1.0059e-15 -1.88497 11.4654)
(8.89479e-16 -2.36704 12.2871)
(7.13089e-16 -2.93024 13.0843)
(4.97392e-16 -3.56906 13.763)
(2.78582e-16 -4.27726 14.1979)
(9.88333e-17 -5.06293 14.2766)
(-1.1347e-17 -5.95424 13.9599)
(-4.60987e-17 -6.9783 13.3032)
(-2.13166e-17 -8.12554 12.4213)
(3.67636e-17 -9.34 11.4511)
(1.01624e-16 -10.5655 10.5183)
(1.54386e-16 -11.8126 9.66658)
(1.8346e-16 -13.1318 8.79825)
(1.73755e-16 -14.4638 7.70554)
(1.00226e-16 -15.5142 6.2043)
(-6.09551e-17 -15.7964 4.26596)
(-3.12011e-16 -14.5821 2.05843)
(-6.21571e-16 -10.1065 -0.37886)
(-7.63061e-16 -4.40803 -1.29021)
(-8.0071e-16 0.0789192 -2.42824)
(-7.96801e-16 1.89319 -3.38671)
(-7.78298e-16 2.75607 -4.5457)
(-7.59435e-16 2.68515 -5.44976)
(-7.47756e-16 2.02234 -6.04296)
(-7.53782e-16 0.613626 -6.05714)
(-7.75282e-16 -0.0485542 -5.50158)
(-7.95622e-16 -0.784076 -4.63756)
(-8.1364e-16 -1.15768 -3.55949)
(-8.06801e-16 -1.31495 -2.54041)
(-7.8602e-16 -1.29902 -1.90155)
(-8.1605e-16 -1.13127 -1.51051)
(-8.7883e-16 -0.874383 -1.21744)
(-9.15741e-16 -0.558264 -1.04303)
(-9.27474e-16 -0.157214 -0.940861)
(-9.17331e-16 0.396033 -0.60692)
(-8.92639e-16 0.93187 -0.112877)
(-8.23248e-16 2.22636 -0.247737)
(-8.2536e-16 3.61916 -0.164945)
(-1.14202e-15 4.85371 0.145113)
(1.73677e-17 -0.290988 5.24134)
(1.68291e-16 -0.274897 5.12808)
(2.46084e-16 -0.256957 5.07745)
(3.3648e-16 -0.238788 5.01609)
(4.18384e-16 -0.217269 4.9651)
(4.94813e-16 -0.194003 4.91988)
(5.63467e-16 -0.168723 4.88327)
(6.22952e-16 -0.141597 4.85635)
(6.71615e-16 -0.112254 4.84072)
(7.0798e-16 -0.079919 4.83784)
(7.30791e-16 -0.0444596 4.84868)
(7.39183e-16 -0.00605176 4.87371)
(7.33108e-16 0.0341517 4.91323)
(7.13371e-16 0.0748325 4.96718)
(6.8165e-16 0.117147 5.03485)
(6.40709e-16 0.160638 5.11452)
(5.94192e-16 0.20419 5.20474)
(5.46211e-16 0.247355 5.30421)
(5.00997e-16 0.289317 5.41144)
(4.62525e-16 0.328081 5.52524)
(4.34065e-16 0.360567 5.64449)
(4.179e-16 0.382379 5.76707)
(4.15026e-16 0.38884 5.88805)
(4.25382e-16 0.38321 6.00318)
(4.47706e-16 0.373102 6.1186)
(4.8031e-16 0.350081 6.24483)
(5.21461e-16 0.31333 6.38966)
(5.68061e-16 0.260567 6.559)
(6.163e-16 0.189896 6.75773)
(6.62488e-16 0.100861 6.98599)
(7.04215e-16 -0.00620903 7.23464)
(7.41478e-16 -0.129915 7.48161)
(7.79875e-16 -0.254357 7.71513)
(8.27456e-16 -0.342437 8.02845)
(8.85281e-16 -0.484114 8.44222)
(9.48397e-16 -0.656749 8.92161)
(1.00725e-15 -0.861084 9.46536)
(1.04779e-15 -1.10351 10.0716)
(1.05381e-15 -1.39278 10.7358)
(1.01107e-15 -1.74144 11.45)
(9.11582e-16 -2.15817 12.1956)
(7.57038e-16 -2.64519 12.9317)
(5.61278e-16 -3.19643 13.5858)
(3.51252e-16 -3.8015 14.0553)
(1.62818e-16 -4.45382 14.2339)
(2.8472e-17 -5.16752 14.0667)
(-3.74768e-17 -5.98009 13.5889)
(-4.24828e-17 -6.9256 12.8937)
(-5.30745e-18 -8.00359 12.072)
(5.32355e-17 -9.16851 11.2022)
(1.13647e-16 -10.3678 10.3555)
(1.61242e-16 -11.597 9.54865)
(1.85117e-16 -12.8775 8.68883)
(1.69685e-16 -14.1332 7.59665)
(9.1023e-17 -15.0883 6.11571)
(-7.21002e-17 -15.2918 4.22117)
(-3.20322e-16 -14.0309 2.06047)
(-6.21548e-16 -9.68749 -0.33468)
(-7.5862e-16 -4.19117 -1.32509)
(-7.90715e-16 0.28415 -2.83729)
(-7.8627e-16 2.0463 -3.77006)
(-7.64059e-16 2.95441 -5.0094)
(-7.40923e-16 2.85481 -5.96136)
(-7.26707e-16 2.10884 -6.55207)
(-7.35826e-16 0.639801 -6.50495)
(-7.59926e-16 -0.069828 -5.98441)
(-7.82524e-16 -0.811668 -5.14196)
(-8.05632e-16 -1.23988 -4.08761)
(-8.10438e-16 -1.40946 -2.95276)
(-7.90972e-16 -1.38529 -2.08271)
(-8.03891e-16 -1.21291 -1.55302)
(-8.60205e-16 -0.940814 -1.21195)
(-9.05238e-16 -0.604425 -1.00819)
(-9.23331e-16 -0.181374 -0.869437)
(-9.09966e-16 0.354686 -0.490242)
(-8.85397e-16 0.86176 -0.067618)
(-8.23211e-16 2.19623 -0.245591)
(-8.20959e-16 3.57895 -0.165325)
(-1.09275e-15 4.81504 0.107738)
(2.2493e-16 -0.277396 5.09209)
(3.61312e-16 -0.262195 4.99469)
(4.26478e-16 -0.247957 4.95695)
(5.01763e-16 -0.231575 4.91079)
(5.66244e-16 -0.212315 4.87723)
(6.23308e-16 -0.191241 4.85106)
(6.70752e-16 -0.168848 4.8351)
(7.07665e-16 -0.145418 4.83014)
(7.32985e-16 -0.120413 4.83743)
(7.45954e-16 -0.0929294 4.8578)
(7.46205e-16 -0.0624086 4.89135)
(7.33945e-16 -0.029355 4.93746)
(7.10109e-16 0.00498869 4.99573)
(6.76297e-16 0.0405508 5.06616)
(6.34938e-16 0.077894 5.14771)
(5.89132e-16 0.11715 5.23871)
(5.42416e-16 0.157543 5.338)
(4.98529e-16 0.198454 5.445)
(4.61032e-16 0.238814 5.55901)
(4.33005e-16 0.276373 5.67972)
(4.16887e-16 0.307597 5.8071)
(4.14027e-16 0.327866 5.94038)
(4.24515e-16 0.333253 6.07667)
(4.47532e-16 0.325579 6.21403)
(4.80948e-16 0.309704 6.35789)
(5.22117e-16 0.278565 6.51635)
(5.69817e-16 0.231918 6.70033)
(6.20827e-16 0.168429 6.91424)
(6.71633e-16 0.0868714 7.15942)
(7.19344e-16 -0.0122959 7.43136)
(7.62452e-16 -0.127323 7.7177)
(8.02969e-16 -0.256685 8.0034)
(8.46696e-16 -0.390149 8.30204)
(8.96648e-16 -0.501087 8.67118)
(9.50934e-16 -0.653413 9.12374)
(1.00236e-15 -0.836353 9.63385)
(1.03945e-15 -1.05212 10.1976)
(1.04787e-15 -1.30782 10.8122)
(1.01391e-15 -1.60924 11.4705)
(9.28798e-16 -1.96571 12.1578)
(7.92e-16 -2.38279 12.8438)
(6.13225e-16 -2.85851 13.4724)
(4.1315e-16 -3.38023 13.958)
(2.21698e-16 -3.93403 14.2016)
(7.06635e-17 -4.51897 14.1328)
(-1.93734e-17 -5.16147 13.7622)
(-4.84917e-17 -5.91035 13.1822)
(-3.21214e-17 -6.8032 12.4929)
(1.21892e-17 -7.83934 11.7469)
(6.92548e-17 -8.97674 10.9735)
(1.24951e-16 -10.1635 10.2049)
(1.67439e-16 -11.3824 9.43842)
(1.86075e-16 -12.6322 8.58685)
(1.64916e-16 -13.8259 7.49569)
(8.12864e-17 -14.7049 6.03255)
(-8.35837e-17 -14.8446 4.17386)
(-3.28798e-16 -13.5422 2.04852)
(-6.21534e-16 -9.29686 -0.315142)
(-7.53853e-16 -3.9385 -1.39511)
(-7.81135e-16 0.345139 -3.0974)
(-7.74272e-16 2.23274 -4.15906)
(-7.46697e-16 3.19 -5.45981)
(-7.17717e-16 3.04152 -6.4545)
(-7.00216e-16 2.18435 -7.03837)
(-7.13113e-16 0.632373 -6.95678)
(-7.42027e-16 -0.158875 -6.44436)
(-7.68248e-16 -0.926447 -5.58255)
(-7.95236e-16 -1.38913 -4.53644)
(-8.10292e-16 -1.55786 -3.37011)
(-7.97189e-16 -1.5164 -2.33653)
(-7.96847e-16 -1.32579 -1.63856)
(-8.42195e-16 -1.02775 -1.2123)
(-8.91575e-16 -0.665762 -0.968419)
(-9.1563e-16 -0.203931 -0.796274)
(-9.00794e-16 0.309606 -0.389423)
(-8.78461e-16 0.799187 -0.0414292)
(-8.23638e-16 2.16722 -0.247656)
(-8.16268e-16 3.54135 -0.169336)
(-1.05018e-15 4.78815 0.140896)
(4.1199e-16 -0.266145 4.96649)
(5.25855e-16 -0.251891 4.89144)
(5.74945e-16 -0.240881 4.86913)
(6.31091e-16 -0.226388 4.84147)
(6.75281e-16 -0.209688 4.82733)
(7.11023e-16 -0.191051 4.82125)
(7.36596e-16 -0.17138 4.82567)
(7.5166e-16 -0.150998 4.84105)
(7.55766e-16 -0.129146 4.8682)
(7.48902e-16 -0.104954 4.90729)
(7.31442e-16 -0.0779133 4.95784)
(7.04303e-16 -0.0484496 5.01883)
(6.6896e-16 -0.0170849 5.08979)
(6.27475e-16 0.0159581 5.17071)
(5.82486e-16 0.0505973 5.26069)
(5.36992e-16 0.0868589 5.35847)
(4.94209e-16 0.124334 5.46349)
(4.57345e-16 0.162101 5.57581)
(4.2925e-16 0.199043 5.69562)
(4.12316e-16 0.233375 5.82342)
(4.08222e-16 0.261601 5.9601)
(4.17307e-16 0.279409 6.10593)
(4.3908e-16 0.283722 6.25972)
(4.72052e-16 0.275454 6.42113)
(5.13654e-16 0.257018 6.59508)
(5.60886e-16 0.222099 6.78761)
(6.12113e-16 0.169678 7.0082)
(6.6478e-16 0.099984 7.26074)
(7.15895e-16 0.0128054 7.5428)
(7.63205e-16 -0.0911903 7.84639)
(8.07021e-16 -0.211854 8.16221)
(8.50919e-16 -0.348504 8.49105)
(8.97337e-16 -0.490732 8.84672)
(9.45956e-16 -0.621877 9.2643)
(9.92315e-16 -0.787385 9.75228)
(1.02737e-15 -0.983343 10.2904)
(1.03879e-15 -1.21192 10.8723)
(1.01354e-15 -1.47958 11.4925)
(9.41841e-16 -1.79033 12.1391)
(8.20974e-16 -2.14739 12.7877)
(6.57482e-16 -2.55195 13.3948)
(4.67653e-16 -2.99789 13.8909)
(2.76569e-16 -3.47078 14.1858)
(1.1379e-16 -3.95799 14.1982)
(3.67887e-18 -4.46971 13.9075)
(-4.61734e-17 -5.04795 13.3881)
(-4.70263e-17 -5.75013 12.7648)
(-1.70391e-17 -6.61257 12.1172)
(3.0175e-17 -7.62792 11.4541)
(8.44484e-17 -8.755 10.7684)
(1.35378e-16 -9.94268 10.0669)
(1.72878e-16 -11.1633 9.33414)
(1.86277e-16 -12.3951 8.48923)
(1.59453e-16 -13.5424 7.39946)
(7.10848e-17 -14.3599 5.95262)
(-9.52799e-17 -14.443 4.12393)
(-3.37315e-16 -13.0993 2.02664)
(-6.21462e-16 -8.93689 -0.311702)
(-7.4855e-16 -3.7053 -1.48195)
(-7.71917e-16 0.453874 -3.29167)
(-7.6035e-16 2.49791 -4.54245)
(-7.25355e-16 3.46045 -5.89588)