/*--------------------------------*- C++ -*----------------------------------*\
| =========                 |                                                 |
| \\      /  F ield         | OpenFOAM: The Open Source CFD Toolbox           |
|  \\    /   O peration     | Version:  4.1                                   |
|   \\  /    A nd           | Web:      www.OpenFOAM.org                      |
|    \\/     M anipulation  |                                                 |
\*---------------------------------------------------------------------------*/
FoamFile
{
    version     2.0;
    format      ascii;
    class       volScalarField;
    location    "6";
    object      p;
}
// * * * * * * * * * * * * * * * * * * * * * * * * * * * * * * * * * * * * * //

dimensions      [0 2 -2 0 0 0 0];

internalField   nonuniform List<scalar> 
225
(
523.38
469.983
418.151
369.74
324.849
282.832
243.477
206.474
171.379
138.015
107.073
78.9347
49.9059
14.9871
-14.1651
56.9456
34.6845
28.9257
25.2155
19.7417
14.0343
8.88142
4.49267
1.00878
-1.44996
-2.64127
-2.13964
-0.0432249
1.8283
2.08848
-45.837
-52.4799
-46.7123
-42.5647
-39.474
-35.879
-31.9929
-28.0556
-24.1513
-20.4356
-17.0901
-14.0231
-10.9464
-8.29364
-7.05937
0.300631
-2.11679
2.47567
2.79835
2.85045
3.06516
2.97593
2.59845
2.01664
1.25749
0.300983
-0.808073
-1.71834
-1.87071
-1.56026
16.7238
14.3896
15.9407
13.8413
12.4231
11.1809
9.77194
8.39087
7.1342
6.04384
5.14347
4.43151
3.95417
3.92133
4.16611
7.48544
5.46198
6.43785
5.22305
5.0244
5.01062
4.9235
4.95737
5.11348
5.35669
5.675
6.03674
6.35567
6.61211
6.78695
4.02976
2.87722
3.968
3.6485
4.03466
4.42558
4.72158
5.06998
5.42448
5.74724
6.03529
6.28818
6.46624
6.54754
6.56342
5.72288
5.16608
6.0188
5.78359
5.97418
6.08131
6.10271
6.14681
6.17051
6.1659
6.14355
6.11761
6.08533
6.04006
5.99162
6.00938
5.68042
6.18311
5.89928
5.9394
5.91129
5.84076
5.79769
5.74539
5.68832
5.63223
5.58151
5.5359
5.49007
5.43868
4.66654
4.45665
4.80031
4.62733
4.70885
4.72683
4.72014
4.73172
4.73132
4.72576
4.71613
4.69984
4.67639
4.64075
4.58324
3.31599
3.2029
3.50862
3.4657
3.59419
3.6438
3.6709
3.70265
3.71631
3.72001
3.71474
3.69903
3.67299
3.63413
3.56914
2.38033
2.32417
2.58567
2.59106
2.70686
2.74098
2.76211
2.78323
2.78667
2.78152
2.76795
2.74648
2.71663
2.67806
2.6136
1.60773
1.57237
1.77182
1.77756
1.86574
1.88277
1.89964
1.91495
1.91509
1.9087
1.89533
1.87491
1.8469
1.81271
1.75456
0.895189
0.879255
1.03147
1.0259
1.09596
1.10818
1.12878
1.14514
1.14832
1.14628
1.13788
1.12316
1.09921
1.06781
1.01288
0.428771
0.387554
0.439352
0.40608
0.445781
0.433417
0.433028
0.422657
0.403264
0.380856
0.353814
0.32419
0.292722
0.26195
0.218475
)
;

boundaryField
{
    inletFace
    {
        type            zeroGradient;
    }
    inlet
    {
        type            zeroGradient;
    }
    inletWalls
    {
        type            zeroGradient;
    }
    outletInlet
    {
        type            fixedValue;
        value           uniform 0;
    }
}


// ************************************************************************* //
