/*--------------------------------*- C++ -*----------------------------------*\
| =========                 |                                                 |
| \\      /  F ield         | OpenFOAM: The Open Source CFD Toolbox           |
|  \\    /   O peration     | Version:  4.1                                   |
|   \\  /    A nd           | Web:      www.OpenFOAM.org                      |
|    \\/     M anipulation  |                                                 |
\*---------------------------------------------------------------------------*/
FoamFile
{
    version     2.0;
    format      ascii;
    class       surfaceScalarField;
    location    "6";
    object      phi;
}
// * * * * * * * * * * * * * * * * * * * * * * * * * * * * * * * * * * * * * //

dimensions      [0 3 -1 0 0 0 0];

internalField   nonuniform List<scalar> 
420
(
-949.879
2249.78
-1573.95
1924.28
-2054
1779.95
-2424.23
1670.13
-2699.86
1575.83
-2888.38
1488.42
-2993.06
1404.58
-3013.86
1321
-2949.61
1235.66
-2797.23
1147.52
-2551.17
1054.13
-2193
941.734
-1687.17
794.064
-1012.67
625.703
287.231
373.338
1876.44
442.747
1854.87
437.297
1785.4
406.691
1700.74
380.574
1601.94
359.896
1509.09
345.289
1419.18
337.533
1328.76
333.481
1239.71
326.951
1154.05
309.609
1071.47
267.467
983.875
191.429
870.101
111.448
705.683
398.679
33.581
1842.86
-97.382
1985.83
-253.605
1941.62
-371.103
1818.24
-473.163
1704
-567.509
1603.44
-651.728
1503.4
-725.773
1402.8
-788.053
1301.99
-837.286
1203.28
-868.204
1102.4
-856.071
971.74
-740.322
754.354
-434.281
399.645
-35.6026
28.7493
1814.11
-100.665
2115.25
-225.565
2066.51
-304.489
1897.17
-368.157
1767.66
-416.958
1652.25
-446.24
1532.68
-457.028
1413.59
-451.868
1296.83
-430.171
1181.59
-387.253
1059.47
-311.89
896.387
-192.874
635.342
-48.4041
255.178
-84.0067
169.625
1644.48
146.157
2138.71
123.732
2088.94
122.844
1898.04
126.904
1763.61
135.75
1643.39
149.053
1519.39
166.527
1396.11
186.884
1276.47
208.07
1160.39
229.067
1038.46
243.78
881.681
232.972
646.141
155.218
332.924
71.2112
223.145
1421.34
244.229
2117.62
234.764
2098.41
235.998
1896.8
240.341
1759.27
244.271
1639.45
246.524
1517.13
245.227
1397.39
241.15
1280.55
233.988
1167.55
221.426
1051.04
199.16
903.908
156.148
689.137
78.2827
410.773
149.494
203.267
1218.08
238.284
2082.61
213.515
2123.18
191.339
1918.98
177.161
1773.44
163.778
1652.84
150.056
1530.84
135.945
1411.52
121.124
1295.37
106.985
1181.7
92.8718
1065.15
75.817
920.983
52.0579
712.912
19.0471
443.798
168.541
171.649
1046.4
221.766
2032.5
199.255
2145.66
170.345
1947.91
152.029
1791.73
137.685
1667.21
122.774
1545.73
108.586
1425.72
95.5693
1308.37
83.075
1194.2
71.4171
1076.8
58.5469
933.848
40.2305
731.208
15.6913
468.318
184.232
146.067
900.292
210.086
1968.46
196.944
2158.78
170.128
1974.71
152.437
1809.4
139.5
1680.13
126.984
1558.24
113.729
1438.96
101.148
1320.94
89.2128
1206.11
76.754
1089.23
62.8997
947.708
44.1684
749.923
19.1058
493.368
203.338
117.071
783.217
185.232
1900.25
179.953
2164.05
154.465
2000.14
137.261
1826.6
123.912
1693.42
111.241
1570.9
98.7795
1451.37
85.9232
1333.78
73.6707
1218.32
62.0027
1100.94
48.8759
960.734
32.7172
766.042
13.0473
513.002
216.384
83.4391
699.815
143.415
1840.27
144.893
2162.6
122.842
2022.17
106.214
1843.24
94.5316
1705.07
82.73
1582.71
71.3686
1462.71
60.6857
1344.49
49.8018
1229.18
39.9541
1110.92
30.1089
970.38
18.3161
777.706
5.31062
525.89
221.696
51.133
648.689
97.7829
1793.65
102.542
2157.82
87.3024
2037.45
73.1645
1857.37
63.3146
1714.97
54.4978
1591.53
45.2075
1472.05
36.4907
1353.2
28.5621
1237.18
20.6408
1118.71
14.0866
977.209
7.19454
784.791
0.0107303
533.246
221.707
24.8933
623.776
57.5589
1761.02
63.4389
2151.93
53.5677
2047.37
44.0792
1866.85
36.4775
1722.63
29.8376
1598.16
23.8041
1478.14
17.2897
1359.69
11.5195
1242.98
6.69767
1123.5
2.56199
981.428
-1.00758
788.419
-3.63453
535.927
218.072
1.65596
622.114
24.5857
1738.1
34.0351
2142.48
28.4092
2053.01
21.0022
1874.26
15.626
1728.02
9.98259
1603.8
4.93408
1483.19
0.314113
1364.32
-4.62791
1247.92
-8.17409
1127.06
-9.59083
982.781
-9.74978
788.509
-7.22144
533.337
210.851
-11.1841
-2.32298
2.3485
0.426953
-4.35115
-8.21114
-11.2762
-14.8417
-17.8075
-20.0339
-21.6658
-21.0459
-18.0766
-12.3666
)
;

boundaryField
{
    inletFace
    {
        type            calculated;
        value           nonuniform List<scalar> 
450
(
9.83611e-15
6.72203e-13
-3.04896e-13
-2.22641e-13
1.71439e-13
-2.19005e-13
-4.47509e-14
7.51091e-14
-6.54418e-14
2.91477e-14
3.37904e-14
-2.83661e-14
8.36779e-15
5.00671e-15
-1.65547e-15
-3.22988e-12
-2.31252e-12
-4.78569e-14
-6.91936e-13
-2.89173e-13
-4.9949e-14
-3.99333e-13
-2.14108e-13
-3.05075e-14
-1.19569e-13
-8.58135e-15
4.56696e-14
2.61226e-15
3.16541e-15
4.30747e-15
-2.9587e-12
-2.42574e-12
-2.56723e-13
-4.72407e-13
-2.77504e-13
-2.04229e-13
-3.07742e-13
-1.33288e-13
-1.10848e-13
-1.35956e-13
-1.00934e-13
-2.40241e-14
-6.70217e-14
2.45532e-14
1.23364e-14
-3.19548e-12
-2.44784e-12
-2.89249e-13
-6.97648e-13
-1.84048e-13
-2.72356e-13
-3.9365e-13
-1.02085e-13
-2.29648e-13
-1.96479e-13
-1.12359e-13
-7.68112e-14
-1.16125e-13
3.51222e-14
6.98389e-14
-2.9345e-12
-2.47551e-12
-4.14398e-13
-6.56125e-13
-1.73928e-13
-2.26207e-13
-3.52116e-13
-2.09066e-13
-2.20659e-13
-2.81298e-13
-1.0098e-13
-3.5234e-14
-5.5631e-14
-1.31679e-14
4.20623e-14
-2.54547e-12
-2.56528e-12
-6.44543e-13
-5.22278e-13
-1.33763e-13
-1.21879e-13
-3.02553e-13
-1.35932e-13
-1.54014e-13
-2.21282e-13
-1.13315e-13
-1.38286e-14
-4.35073e-14
9.50217e-15
1.3806e-15
-2.24218e-12
-2.6473e-12
-9.11073e-13
-4.98935e-13
-1.49177e-13
-1.27725e-13
-2.57257e-13
-1.14498e-13
-1.96747e-13
-2.25841e-13
-1.20783e-13
-5.04963e-14
-1.06735e-14
-4.68341e-14
-1.63039e-13
-1.97494e-12
-2.63664e-12
-1.1471e-12
-5.38944e-13
-2.0182e-13
-1.6286e-13
-2.40411e-13
-1.50867e-13
-2.43915e-13
-2.62835e-13
-1.60962e-13
-6.5648e-14
3.73126e-14
1.40031e-14
-1.83901e-13
-1.66156e-12
-2.59325e-12
-1.29775e-12
-5.85728e-13
-2.32128e-13
-1.55699e-13
-2.24917e-13
-1.79802e-13
-1.89912e-13
-2.74398e-13
-1.67078e-13
-1.33245e-13
7.45514e-15
4.33625e-15
-8.83839e-14
-1.39421e-12
-2.51201e-12
-1.40637e-12
-6.11704e-13
-2.54058e-13
-1.21697e-13
-2.3256e-13
-1.76364e-13
-1.26881e-13
-1.84701e-13
-1.64223e-13
-1.39993e-13
-9.39785e-14
-2.04278e-14
5.81128e-14
-1.1665e-12
-2.41882e-12
-1.534e-12
-6.47974e-13
-2.79695e-13
-9.13021e-14
-1.95642e-13
-1.74647e-13
-9.80505e-14
-1.2416e-13
-1.6017e-13
-8.98127e-14
-3.98989e-14
-1.09453e-14
1.44356e-13
-9.98355e-13
-2.34325e-12
-1.56336e-12
-7.13338e-13
-2.88873e-13
-8.55846e-14
-1.68531e-13
-1.80443e-13
-7.06143e-14
-1.39844e-13
-1.63716e-13
-2.57405e-14
1.5585e-17
1.07078e-13
1.04521e-13
-9.05187e-13
-2.26281e-12
-1.57771e-12
-7.37756e-13
-3.03366e-13
-9.47332e-14
-1.68598e-13
-1.95402e-13
-7.09243e-14
-1.3108e-13
-1.54852e-13
-9.19416e-15
-1.31017e-14
1.11028e-13
1.30232e-13
-8.33736e-13
-2.19377e-12
-1.603e-12
-7.54768e-13
-3.30188e-13
-9.78343e-14
-1.59716e-13
-2.10543e-13
-7.13092e-14
-1.26346e-13
-1.53562e-13
-5.25871e-15
-5.90015e-15
9.66356e-14
1.17829e-13
-8.0246e-13
-2.10459e-12
-1.58315e-12
-7.68053e-13
-3.37497e-13
-1.13605e-13
-1.67375e-13
-2.02667e-13
-7.6507e-14
-1.26385e-13
-1.3594e-13
-1.10303e-14
-5.30233e-16
9.386e-14
6.63059e-14
-9.83611e-15
-6.72203e-13
3.04896e-13
2.22641e-13
-1.71439e-13
2.19005e-13
4.47509e-14
-7.51091e-14
6.54418e-14
-2.91477e-14
-3.37904e-14
2.83661e-14
-8.36779e-15
-5.00671e-15
1.65547e-15
3.22988e-12
2.31252e-12
4.78569e-14
6.91936e-13
2.89173e-13
4.9949e-14
3.99333e-13
2.14108e-13
3.05075e-14
1.19569e-13
8.58135e-15
-4.56696e-14
-2.61226e-15
-3.16541e-15
-4.30747e-15
2.9587e-12
2.42574e-12
2.56723e-13
4.72407e-13
2.77504e-13
2.04229e-13
3.07742e-13
1.33288e-13
1.10848e-13
1.35956e-13
1.00934e-13
2.40241e-14
6.70217e-14
-2.45532e-14
-1.23364e-14
3.19548e-12
2.44784e-12
2.89249e-13
6.97648e-13
1.84048e-13
2.72356e-13
3.9365e-13
1.02085e-13
2.29648e-13
1.96479e-13
1.12359e-13
7.68112e-14
1.16125e-13
-3.51222e-14
-6.98389e-14
2.9345e-12
2.47551e-12
4.14398e-13
6.56125e-13
1.73928e-13
2.26207e-13
3.52116e-13
2.09066e-13
2.20659e-13
2.81298e-13
1.0098e-13
3.5234e-14
5.5631e-14
1.31679e-14
-4.20623e-14
2.54547e-12
2.56528e-12
6.44543e-13
5.22278e-13
1.33763e-13
1.21879e-13
3.02553e-13
1.35932e-13
1.54014e-13
2.21282e-13
1.13315e-13
1.38286e-14
4.35073e-14
-9.50217e-15
-1.3806e-15
2.24218e-12
2.6473e-12
9.11073e-13
4.98935e-13
1.49177e-13
1.27725e-13
2.57257e-13
1.14498e-13
1.96747e-13
2.25841e-13
1.20783e-13
5.04963e-14
1.06735e-14
4.68341e-14
1.63039e-13
1.97494e-12
2.63664e-12
1.1471e-12
5.38944e-13
2.0182e-13
1.6286e-13
2.40411e-13
1.50867e-13
2.43915e-13
2.62835e-13
1.60962e-13
6.5648e-14
-3.73126e-14
-1.40031e-14
1.83901e-13
1.66156e-12
2.59325e-12
1.29775e-12
5.85728e-13
2.32128e-13
1.55699e-13
2.24917e-13
1.79802e-13
1.89912e-13
2.74398e-13
1.67078e-13
1.33245e-13
-7.45514e-15
-4.33625e-15
8.83839e-14
1.39421e-12
2.51201e-12
1.40637e-12
6.11704e-13
2.54058e-13
1.21697e-13
2.3256e-13
1.76364e-13
1.26881e-13
1.84701e-13
1.64223e-13
1.39993e-13
9.39785e-14
2.04278e-14
-5.81128e-14
1.1665e-12
2.41882e-12
1.534e-12
6.47974e-13
2.79695e-13
9.13021e-14
1.95642e-13
1.74647e-13
9.80505e-14
1.2416e-13
1.6017e-13
8.98127e-14
3.98989e-14
1.09453e-14
-1.44356e-13
9.98355e-13
2.34325e-12
1.56336e-12
7.13338e-13
2.88873e-13
8.55846e-14
1.68531e-13
1.80443e-13
7.06143e-14
1.39844e-13
1.63716e-13
2.57405e-14
-1.5585e-17
-1.07078e-13
-1.04521e-13
9.05187e-13
2.26281e-12
1.57771e-12
7.37756e-13
3.03366e-13
9.47332e-14
1.68598e-13
1.95402e-13
7.09243e-14
1.3108e-13
1.54852e-13
9.19416e-15
1.31017e-14
-1.11028e-13
-1.30232e-13
8.33736e-13
2.19377e-12
1.603e-12
7.54768e-13
3.30188e-13
9.78343e-14
1.59716e-13
2.10543e-13
7.13092e-14
1.26346e-13
1.53562e-13
5.25871e-15
5.90015e-15
-9.66356e-14
-1.17829e-13
8.0246e-13
2.10459e-12
1.58315e-12
7.68053e-13
3.37497e-13
1.13605e-13
1.67375e-13
2.02667e-13
7.6507e-14
1.26385e-13
1.3594e-13
1.10303e-14
5.30233e-16
-9.386e-14
-6.63059e-14
)
;
    }
    inlet
    {
        type            calculated;
        value           nonuniform List<scalar> 
15
(
-1299.9
-1300.2
-1299.9
-1299.9
-1300.2
-1299.9
-1299.9
-1300.2
-1299.9
-1299.9
-1300.2
-1299.9
-1299.9
-1300.2
-1299.9
)
;
    }
    inletWalls
    {
        type            calculated;
        value           uniform 0;
    }
    outletInlet
    {
        type            calculated;
        value           nonuniform List<scalar> 
15
(
198.484
527.652
785.568
982.177
1128.7
1250.15
1367.3
1486.76
1606.88
1731.88
1879.05
2054.93
2137.81
1729.24
633.289
)
;
    }
}


// ************************************************************************* //
