/*--------------------------------*- C++ -*----------------------------------*\
| =========                 |                                                 |
| \\      /  F ield         | OpenFOAM: The Open Source CFD Toolbox           |
|  \\    /   O peration     | Version:  4.1                                   |
|   \\  /    A nd           | Web:      www.OpenFOAM.org                      |
|    \\/     M anipulation  |                                                 |
\*---------------------------------------------------------------------------*/
FoamFile
{
    version     2.0;
    format      ascii;
    class       volVectorField;
    location    "6";
    object      U;
}
// * * * * * * * * * * * * * * * * * * * * * * * * * * * * * * * * * * * * * //

dimensions      [0 1 -1 0 0 0 0];

internalField   nonuniform List<vector> 
225
(
(7.64257e-15 0.852192 15.7946)
(-2.98216e-16 -4.89458 12.1215)
(-1.69915e-15 -4.19551 12.1321)
(7.60604e-16 -3.60118 11.9966)
(4.16686e-16 -3.00468 11.8778)
(-1.67477e-17 -2.55319 11.6992)
(1.80605e-15 -2.20881 11.4769)
(2.24551e-16 -1.96603 11.2116)
(-3.02566e-16 -1.79855 10.916)
(5.81339e-16 -1.71238 10.5882)
(1.82105e-16 -1.83746 10.1561)
(-2.61353e-16 -2.28567 9.53762)
(7.62478e-16 -2.51301 8.96378)
(-3.46606e-17 -1.06552 8.91357)
(1.14605e-17 1.76574 7.47091)
(2.30494e-14 -5.35017 22.493)
(1.6011e-14 -14.6049 21.394)
(3.31304e-16 -13.2708 20.3411)
(4.97697e-15 -11.7697 19.5066)
(2.00212e-15 -11.156 18.5043)
(3.45787e-16 -10.6594 17.5174)
(2.87526e-15 -10.0901 16.5714)
(1.48239e-15 -9.52498 15.6236)
(2.11197e-16 -8.96542 14.6638)
(9.58582e-16 -8.36729 13.6946)
(5.94138e-17 -7.75708 12.7179)
(-3.16161e-16 -7.30334 11.7194)
(-1.87825e-17 -7.01704 10.6244)
(-2.1916e-17 -5.73093 9.16112)
(-2.98198e-17 -2.30501 4.58319)
(2.25283e-14 -7.71563 23.9801)
(1.6793e-14 -16.773 24.673)
(1.77745e-15 -13.7365 23.9372)
(4.78974e-15 -12.3061 22.6249)
(5.71375e-15 -11.6447 21.2414)
(1.414e-15 -10.814 20.0013)
(3.27045e-15 -9.94026 18.7737)
(2.64585e-15 -9.10012 17.5247)
(7.67467e-16 -8.28339 16.2654)
(3.50597e-15 -7.47526 15.0262)
(-1.1222e-15 -6.66764 13.8176)
(1.66334e-16 -5.84167 12.4301)
(9.47306e-16 -4.81391 10.2753)
(-1.69977e-16 -3.12627 6.68445)
(-8.54127e-17 -0.832141 1.68992)
(2.21154e-14 -8.50259 22.0462)
(1.69461e-14 -16.621 24.3319)
(2.20704e-15 -12.93 23.7971)
(4.83029e-15 -12.1536 21.9985)
(1.20293e-15 -11.4201 20.5028)
(2.15301e-15 -10.4937 19.1722)
(2.7255e-15 -9.63392 17.8167)
(6.27734e-16 -8.82362 16.459)
(1.61768e-15 -8.05365 15.123)
(1.34545e-15 -7.32379 13.8165)
(7.69713e-16 -6.55247 12.4394)
(5.1304e-16 -5.49089 10.583)
(7.79189e-16 -3.7853 7.50877)
(-5.05279e-17 -1.49374 2.76626)
(-9.4527e-16 0.153152 -1.7729)
(2.01035e-14 -8.47626 19.7482)
(1.5238e-14 -16.3601 24.3119)
(2.69047e-15 -13.0991 23.6601)
(4.34762e-15 -12.6281 21.5364)
(8.93135e-16 -11.8566 20.0247)
(1.34619e-15 -10.9574 18.6637)
(2.32075e-15 -10.1698 17.2587)
(2.31784e-15 -9.40273 15.8711)
(2.71846e-15 -8.65252 14.5235)
(1.87685e-15 -7.93041 13.2135)
(5.47625e-16 -7.16574 11.8291)
(9.21184e-16 -6.11602 9.99615)
(2.78784e-16 -4.42396 7.15542)
(-2.67027e-16 -2.30525 3.28781)
(-6.57385e-16 -0.787319 0.31775)
(1.78461e-14 -8.02192 17.5535)
(1.7801e-14 -16.0195 24.5277)
(4.58965e-15 -13.6436 24.0462)
(4.0774e-15 -12.9943 21.7651)
(9.75155e-16 -12.1262 20.2158)
(1.4681e-15 -11.2244 18.847)
(2.09454e-15 -10.4388 17.434)
(1.00033e-15 -9.64871 16.0433)
(1.25761e-15 -8.86018 14.6932)
(9.11662e-16 -8.09308 13.3816)
(8.59943e-16 -7.29717 12.017)
(3.54506e-16 -6.2845 10.2816)
(1.29304e-15 -4.73296 7.72066)
(2.91843e-16 -2.75606 4.37211)
(1.37253e-15 -0.9493 1.29706)
(1.56571e-14 -7.33712 15.253)
(1.83482e-14 -15.4908 24.355)
(6.39181e-15 -14.0222 24.4219)
(3.45447e-15 -13.1274 22.0676)
(1.08304e-15 -12.1443 20.4402)
(9.91944e-16 -11.2356 19.0546)
(1.78116e-15 -10.436 17.6436)
(8.55407e-16 -9.61978 16.2575)
(8.84463e-16 -8.81013 14.9065)
(1.56365e-15 -8.02728 13.5917)
(1.00103e-15 -7.22405 12.2367)
(6.3381e-16 -6.24037 10.5488)
(7.39e-17 -4.78765 8.1075)
(-5.05711e-17 -2.91421 4.94714)
(3.04367e-15 -1.01077 1.79737)
(1.34867e-14 -6.55638 13.0336)
(1.82547e-14 -14.8469 23.8166)
(7.89884e-15 -14.2631 24.6689)
(4.14925e-15 -13.2368 22.3213)
(1.3973e-15 -12.1674 20.5829)
(1.01904e-15 -11.266 19.1664)
(2.24839e-15 -10.4654 17.7584)
(1.04452e-15 -9.64331 16.3765)
(1.55093e-15 -8.8351 15.0245)
(1.89473e-15 -8.05548 13.7072)
(1.11442e-15 -7.25514 12.3575)
(2.642e-16 -6.2869 10.6995)
(9.38921e-16 -4.89086 8.33089)
(-9.69504e-17 -3.08491 5.26736)
(7.7612e-16 -1.12184 2.04356)
(1.15027e-14 -5.77953 11.1261)
(1.79528e-14 -14.1752 23.0914)
(9.23694e-15 -14.4411 24.8459)
(4.05492e-15 -13.3967 22.6142)
(1.607e-15 -12.2534 20.7549)
(9.16692e-16 -11.3497 19.2952)
(1.55708e-15 -10.5478 17.8903)
(1.24475e-15 -9.72538 16.5109)
(1.11096e-15 -8.91933 15.1561)
(1.89962e-15 -8.14001 13.835)
(1.15666e-15 -7.33956 12.4862)
(-2.00099e-16 -6.3796 10.8509)
(-5.1611e-17 -5.0229 8.54608)
(-3.00193e-17 -3.2651 5.5573)
(-9.72228e-16 -1.23722 2.24676)
(8.87313e-15 -5.08581 9.60008)
(1.73904e-14 -13.5197 22.3)
(9.69396e-15 -14.5356 24.9519)
(4.5553e-15 -13.5538 22.935)
(1.75881e-15 -12.345 20.9697)
(1.27319e-15 -11.4247 19.4566)
(1.49425e-15 -10.6167 18.0506)
(1.22095e-15 -9.7938 16.6719)
(1.42305e-15 -8.98758 15.3133)
(1.79965e-15 -8.20542 13.987)
(1.1369e-15 -7.40384 12.6351)
(-6.0728e-17 -6.45048 11.0125)
(4.18642e-16 -5.12404 8.75376)
(1.41419e-16 -3.40508 5.81749)
(-1.00322e-15 -1.31797 2.4286)
(7.92515e-15 -4.5373 8.45891)
(1.67961e-14 -12.9247 21.5485)
(1.04909e-14 -14.5352 24.9755)
(4.27907e-15 -13.6654 23.2213)
(1.9868e-15 -12.4122 21.1813)
(4.14679e-16 -11.4726 19.6121)
(1.35436e-15 -10.6582 18.2001)
(1.27243e-15 -9.83645 16.8204)
(1.09126e-15 -9.03164 15.4579)
(1.61066e-15 -8.24815 14.1262)
(1.19186e-15 -7.4463 12.7684)
(2.44133e-16 -6.49758 11.1489)
(2.76207e-16 -5.19181 8.91702)
(-5.90307e-16 -3.50021 6.00824)
(-1.26331e-15 -1.36216 2.53908)
(6.91149e-15 -4.16759 7.69772)
(1.6248e-14 -12.4359 20.9253)
(1.07587e-14 -14.4727 24.9363)
(4.93835e-15 -13.7307 23.4381)
(2.02524e-15 -12.4583 21.3593)
(2.62753e-16 -11.5033 19.7401)
(1.16672e-15 -10.6831 18.3201)
(1.34508e-15 -9.86366 16.9385)
(4.54177e-16 -9.06126 15.5723)
(9.68125e-16 -8.27769 14.2358)
(1.13339e-15 -7.47505 12.8704)
(-3.93296e-16 -6.52707 11.2459)
(5.83633e-17 -5.23325 9.02591)
(-8.24311e-16 -3.55799 6.12558)
(-5.93134e-16 -1.37747 2.57276)
(5.99872e-15 -3.97148 7.27697)
(1.56382e-14 -12.0668 20.4597)
(1.09446e-14 -14.3836 24.8622)
(5.06114e-15 -13.7595 23.5826)
(2.10016e-15 -12.4876 21.4966)
(6.55827e-16 -11.5235 19.8401)
(1.13742e-15 -10.6973 18.4115)
(1.44957e-15 -9.88067 17.0276)
(4.55965e-16 -9.08111 15.6582)
(9.07557e-16 -8.29772 14.3169)
(1.11418e-15 -7.49362 12.9422)
(1.57099e-17 -6.54259 11.3063)
(9.07118e-17 -5.25146 9.08489)
(-6.86118e-16 -3.57946 6.17643)
(-1.04949e-15 -1.36604 2.54164)
(5.70717e-15 -3.90308 7.10941)
(1.51747e-14 -11.8302 20.1793)
(1.10744e-14 -14.3002 24.7892)
(5.21319e-15 -13.7679 23.6683)
(2.27312e-15 -12.5034 21.5895)
(6.77275e-16 -11.5335 19.9091)
(1.12074e-15 -10.7015 18.4743)
(1.44141e-15 -9.88629 17.0884)
(4.9365e-16 -9.08856 15.7174)
(8.93871e-16 -8.30466 14.3732)
(1.04212e-15 -7.4984 12.991)
(3.64043e-17 -6.54372 11.344)
(6.98694e-17 -5.25401 9.11823)
(-7.09897e-16 -3.58443 6.20303)
(-8.15692e-16 -1.35119 2.50919)
(5.54094e-15 -4.03534 7.27839)
(1.45628e-14 -11.624 19.9452)
(1.09669e-14 -14.192 24.6659)
(5.31714e-15 -13.7488 23.7098)
(2.32993e-15 -12.5089 21.6752)
(7.93596e-16 -11.541 19.9785)
(1.15871e-15 -10.7008 18.5363)
(1.39495e-15 -9.88805 17.145)
(5.38441e-16 -9.09153 15.7706)
(8.74949e-16 -8.3059 14.4193)
(9.35906e-16 -7.4907 13.0157)
(8.22561e-17 -6.51608 11.3292)
(3.67074e-18 -5.20706 9.06261)
(-6.59959e-16 -3.50313 6.08469)
(-4.39966e-16 -1.25407 2.30958)
)
;

boundaryField
{
    inletFace
    {
        type            zeroGradient;
    }
    inlet
    {
        type            fixedValue;
        value           uniform (0 8.7 15);
    }
    inletWalls
    {
        type            noSlip;
    }
    outletInlet
    {
        type            zeroGradient;
    }
}


// ************************************************************************* //
