/*--------------------------------*- C++ -*----------------------------------*\
| =========                 |                                                 |
| \\      /  F ield         | OpenFOAM: The Open Source CFD Toolbox           |
|  \\    /   O peration     | Version:  4.1                                   |
|   \\  /    A nd           | Web:      www.OpenFOAM.org                      |
|    \\/     M anipulation  |                                                 |
\*---------------------------------------------------------------------------*/
FoamFile
{
    version     2.0;
    format      ascii;
    class       volScalarField;
    location    "17";
    object      p;
}
// * * * * * * * * * * * * * * * * * * * * * * * * * * * * * * * * * * * * * //

dimensions      [0 2 -2 0 0 0 0];

internalField   nonuniform List<scalar> 
6785
(
567.129
488.358
441.369
387.91
341.157
296.151
254.269
214.688
177.361
142.143
108.253
75.2891
47.2421
18.4279
-21.9315
-50.2315
-68.111
-58.2635
-65.4597
-64.9664
-67.4877
-68.2453
-68.831
-68.4765
-67.2749
-65.0553
-62.0628
-57.9457
-52.8697
-48.918
-29.0069
-32.1372
-22.7956
-26.6837
-22.4725
-22.9688
-21.6029
-21.2771
-20.731
-20.4489
-20.1963
-20.152
-19.7676
-19.2296
-16.2871
9.58488
8.88748
12.603
8.95391
11.8242
10.1593
11.2174
11.0758
11.6106
11.6858
11.6078
11.2065
11.374
11.8661
13.694
16.5124
14.9712
17.3641
14.6643
17.3754
15.7892
17.0721
16.5266
16.6959
16.2655
15.8615
15.389
15.132
15.1646
14.2356
1.51137
-2.42788
-1.34098
-4.88708
-4.16343
-6.79636
-6.85911
-8.5009
-8.99949
-10.041
-10.9495
-12.124
-13.2428
-14.9974
-18.047
-36.9866
-41.3906
-41.2264
-44.975
-45.5186
-49.0038
-50.6318
-53.8492
-56.2561
-58.8643
-60.89
-62.3451
-63.3677
-64.1771
-62.7944
-52.3432
-54.1224
-52.5681
-54.7065
-53.477
-55.1866
-54.8663
-55.868
-56.02
-56.0844
-55.2773
-53.8743
-51.6178
-49.7813
-46.6348
-27.1526
-26.0409
-23.5831
-23.5236
-20.8574
-20.1841
-18.0375
-16.5975
-14.7122
-12.9136
-10.9627
-9.15022
-7.11959
-5.69507
-3.26235
-4.89853
-3.39789
-1.65461
-1.3376
0.625279
1.18557
2.68694
3.63593
4.8096
5.83795
6.89486
7.80363
8.82435
9.4856
10.4882
9.37276
10.6082
11.7882
11.9924
13.3554
13.6511
14.6267
15.178
15.8872
16.5215
17.2291
17.9026
18.789
19.4103
20.5092
20.577
22.0547
22.9673
23.2848
24.3846
24.6403
25.4424
25.9252
26.6143
27.3588
28.2184
29.1317
30.197
30.9524
32.0828
41.6473
41.9013
42.2582
42.4624
42.9759
42.9703
43.2552
43.0361
42.6346
41.7757
40.6828
39.8733
39.4558
39.7009
39.6154
37.7442
36.9206
34.7288
32.1042
30.1909
28.0836
26.5998
24.9577
23.4728
21.822
20.4022
19.3674
18.812
19.069
18.1105
62.9935
58.4046
49.3593
42.2724
37.2784
31.4754
27.3005
24.5638
21.7362
19.6532
17.6496
15.6293
14.1298
13.3818
12.8215
44.2889
44.289
45.8436
44.3765
44.5086
44.8453
44.5813
44.2023
44.2195
44.0972
44.1044
43.5917
43.7048
43.7225
43.0927
43.0862
43.3162
43.4145
42.4642
43.038
43.1328
42.1856
42.1297
42.757
42.9258
41.8507
41.7483
42.3277
42.8986
41.5705
42.2134
42.7943
41.8347
41.7097
42.3624
42.8326
41.838
42.6208
42.9116
42.3325
42.3352
43.0699
43.1746
42.7846
42.8526
43.4945
43.4642
43.1104
43.9318
43.8252
43.6678
43.8683
44.4069
44.7118
44.6624
44.8173
45.1469
45.8028
45.8073
45.9091
46.5852
46.5754
46.5358
46.4585
47.057
47.2108
47.886
48.5146
47.9963
49.4214
50.8172
47.5686
45.8392
49.6717
54.0523
36.3874
47.0292
54.6269
17.4417
30.5192
40.1314
41.2117
46.3575
46.2202
43.045
50.366
51.5226
53.7022
54.974
55.7224
54.3876
57.0348
68.2285
46.6705
46.4746
44.3445
42.2984
39.9014
37.927
34.0343
35.8369
50.1789
24.7621
23.6484
20.0975
18.6063
19.4791
18.7303
16.1195
13.9416
13.9026
31.4417
15.389
13.7915
11.4592
9.0052
9.2609
10.9677
9.95395
6.2716
14.1771
13.6752
15.3961
15.0632
12.4924
10.4109
8.02748
10.078
6.37183
14.9832
20.2736
15.293
15.198
14.2557
11.7517
10.079
9.00011
1.47541
9.32757
21.5693
16.8882
15.5389
12.8247
10.5829
8.45396
7.46158
6.64502
2.48841
1.03757
12.6362
8.76156
8.75054
7.8596
6.41669
1.47965
0.989621
2.7878
-9.97348
7.67976
3.60647
-0.758441
8.14371
1.08567
4.78354
3.52114
5.76406
8.76077
4.36969
7.06788
8.96175
6.00104
7.34299
6.55678
7.61605
9.3727
6.72202
7.80399
7.01063
7.92547
9.2678
6.65
8.02292
8.93222
7.04876
7.7413
7.13006
7.69501
8.66603
6.92149
7.52201
6.94011
7.44733
8.23704
6.48434
7.29777
7.82434
6.54015
6.93029
6.49124
6.79043
7.36118
6.17919
6.51546
6.10292
6.36983
6.80654
5.64538
6.10728
6.35612
5.50152
5.69617
5.38173
5.51355
5.75787
4.99656
5.1443
4.85227
4.95318
5.08046
4.36478
4.55763
4.55489
4.00659
4.03821
3.79559
3.79459
3.75351
3.26413
3.23436
2.9716
2.9741
2.84682
2.21336
2.20581
2.20521
1.51332
1.18312
1.03045
0.531412
0.308857
0.00154077
0.00246884
0.00385639
0.00476861
0.00575852
0.00657769
0.00735951
0.00805058
0.00868196
0.0092509
0.00977016
0.0102522
0.0107116
0.0111662
0.0116319
0.0121226
0.0126465
0.0132069
0.0138028
0.0144339
0.0151086
0.015857
0.0167463
0.0178869
0.0194023
0.0213615
0.0236987
0.026263
0.0289212
0.0314688
0.0336987
0.0354019
0.0363569
0.0364093
0.0355023
0.0337594
0.0315439
0.0294825
0.0283899
0.0290166
0.0317058
0.0360028
0.0403498
0.0424337
0.0400622
0.0319388
0.0178427
-0.00125836
-0.0225358
-0.0443123
-0.0772807
-0.142108
-0.132945
-0.633025
-0.689893
-0.764196
-0.95266
-1.07713
-1.15852
-1.15084
-1.05396
-0.896779
-0.728544
-0.530871
-0.323751
-0.129801
0.0543285
0.199389
0.318527
0.399166
0.45885
0.48003
0.497307
0.487395
0.458212
0.511955
0.428162
0.534926
0.408383
0.0042693
0.00664096
0.0104014
0.0128915
0.0154866
0.0176309
0.0196118
0.0213358
0.0228625
0.0242051
0.0253923
0.0264675
0.027471
0.0284565
0.0294683
0.030547
0.0317148
0.0329804
0.0343399
0.0357919
0.0373589
0.0391244
0.0412768
0.0441267
0.0480212
0.0531475
0.0593
0.0660404
0.0730023
0.0796238
0.0853511
0.0896323
0.0918883
0.0917366
0.0890477
0.084082
0.0774449
0.0698501
0.0617232
0.0528164
0.0424452
0.0301658
0.0160256
0.000636821
-0.0152304
-0.0313485
-0.0484175
-0.0676079
-0.0905911
-0.121927
-0.157216
-0.191378
-0.242819
-0.802533
-1.02795
-1.17459
-1.48205
-1.67651
-1.82469
-1.87243
-1.80686
-1.6029
-1.34293
-1.00114
-0.621417
-0.254756
0.0988152
0.386026
0.613736
0.77551
0.872713
0.924122
0.935326
0.942586
0.891927
0.981746
0.905907
1.00178
1.25215
0.00667328
0.0108298
0.0173013
0.0215914
0.026085
0.0298035
0.0332585
0.0362776
0.0389698
0.0413518
0.0434747
0.045409
0.0472236
0.0490083
0.0508381
0.0527816
0.0548763
0.0571371
0.0595574
0.0621338
0.064903
0.0680047
0.0717567
0.076686
0.0833858
0.0921783
0.102718
0.114267
0.126208
0.137587
0.147467
0.154901
0.158899
0.158799
0.154397
0.146223
0.135549
0.124066
0.113174
0.103115
0.0929637
0.0813304
0.0666488
0.0476631
0.0235092
-0.00664061
-0.0438715
-0.0890924
-0.143069
-0.210079
-0.288958
-0.410128
-0.633779
-0.708878
-1.18189
-1.33641
-1.69916
-1.92725
-2.1117
-2.19219
-2.14712
-1.92437
-1.62559
-1.21638
-0.755845
-0.30724
0.127045
0.481407
0.761434
0.962274
1.07953
1.14407
1.15649
1.15932
1.1199
1.17568
1.16773
1.16745
1.71491
0.00890948
0.0147636
0.0237719
0.0297984
0.0360671
0.0412679
0.046083
0.0502909
0.0540347
0.0573435
0.0602864
0.062964
0.065472
0.067937
0.0704642
0.0731496
0.0760456
0.0791724
0.0825194
0.0860801
0.0899021
0.094177
0.0993471
0.106154
0.115441
0.127664
0.142328
0.158396
0.175011
0.190843
0.204594
0.214945
0.220514
0.220368
0.214207
0.202767
0.187828
0.171741
0.156357
0.141733
0.126183
0.107528
0.0838405
0.0541954
0.0184076
-0.0239338
-0.0741217
-0.133988
-0.206242
-0.297126
-0.402742
-0.570058
-0.938333
-0.570172
-1.49062
-1.6241
-2.05845
-2.34108
-2.57198
-2.68346
-2.6426
-2.37557
-2.01199
-1.50624
-0.935252
-0.377833
0.16222
0.603055
0.951318
1.20176
1.34781
1.42775
1.44523
1.43918
1.40729
1.43523
1.47183
1.40834
2.188
0.0109274
0.0186013
0.0301683
0.0379977
0.0460944
0.0528358
0.0590655
0.0645168
0.0693649
0.0736523
0.0774655
0.0809355
0.0841853
0.0873787
0.090652
0.0941292
0.0978783
0.101924
0.106252
0.110849
0.115771
0.121258
0.127877
0.136594
0.148519
0.164257
0.183152
0.203864
0.225296
0.245731
0.263515
0.27694
0.284212
0.284093
0.276147
0.261293
0.24187
0.22104
0.201358
0.182993
0.163801
0.14101
0.112152
0.075825
0.0312435
-0.0227461
-0.0881839
-0.167612
-0.264554
-0.385787
-0.530721
-0.75697
-1.14157
-0.441057
-1.87053
-1.94734
-2.44287
-2.78584
-3.06779
-3.21627
-3.18459
-2.87126
-2.43783
-1.82581
-1.13298
-0.4555
0.20121
0.737424
1.16015
1.46482
1.64063
1.73778
1.75858
1.74565
1.71676
1.72479
1.79069
1.68096
2.33434
0.0127814
0.0223091
0.0363497
0.0459893
0.0558816
0.0641532
0.0717734
0.078449
0.0843773
0.0896195
0.0942768
0.0985121
0.102475
0.106368
0.110359
0.1146
0.119173
0.12411
0.129387
0.134986
0.140964
0.147604
0.155597
0.166139
0.180627
0.199829
0.222912
0.248221
0.27443
0.299432
0.321228
0.337719
0.346685
0.346545
0.336682
0.318165
0.293898
0.267887
0.243356
0.220435
0.196383
0.167881
0.13216
0.0876865
0.0334659
-0.0320708
-0.111606
-0.208639
-0.328038
-0.477356
-0.659401
-0.929096
-1.2652
-0.469298
-2.27152
-2.28277
-2.80222
-3.20126
-3.53253
-3.71903
-3.69856
-3.34082
-2.8417
-2.12692
-1.31763
-0.52541
0.242422
0.868786
1.36163
1.7171
1.92027
2.03331
2.05689
2.03581
2.01173
1.99569
2.09092
1.93737
2.65502
0.0144727
0.0259372
0.0423986
0.0538832
0.0655711
0.0753926
0.0844119
0.0923246
0.0993417
0.105547
0.111055
0.11606
0.12074
0.125337
0.130048
0.135058
0.140463
0.146298
0.152533
0.159135
0.166162
0.173933
0.183258
0.195578
0.212605
0.235285
0.262589
0.29254
0.323585
0.353221
0.379113
0.39875
0.409454
0.409238
0.397239
0.374674
0.345092
0.313474
0.283789
0.256137
0.22729
0.193591
0.152034
0.100726
0.0380362
-0.0384314
-0.132283
-0.24806
-0.391757
-0.571533
-0.794959
-1.10846
-1.4095
-0.791341
-2.67724
-2.66096
-3.16851
-3.62213
-4.00385
-4.23027
-4.22021
-3.81489
-3.24839
-2.42783
-1.50059
-0.592672
0.286565
1.00252
1.56489
1.97036
2.20042
2.32884
2.35522
2.32458
2.3057
2.2635
2.38521
2.1908
2.93504
0.0160229
0.0294905
0.0482949
0.061647
0.0751109
0.0864875
0.0968975
0.106044
0.114142
0.121303
0.12765
0.133414
0.138799
0.144085
0.149506
0.155273
0.161501
0.168225
0.175407
0.182999
0.191048
0.199902
0.210491
0.224509
0.244021
0.270172
0.301709
0.336319
0.372232
0.406539
0.43658
0.459401
0.471814
0.471342
0.456829
0.429684
0.394245
0.356588
0.321405
0.288684
0.254745
0.215695
0.168287
0.110201
0.0391315
-0.0481381
-0.156161
-0.290614
-0.458748
-0.669577
-0.934955
-1.28995
-1.60204
-1.39517
-3.04114
-3.09011
-3.54657
-4.05337
-4.48966
-4.75887
-4.7591
-4.30249
-3.66569
-2.73427
-1.68533
-0.658607
0.334295
1.14089
1.77327
2.2287
2.48524
2.62893
2.65759
2.61684
2.60225
2.53372
2.6772
2.44576
3.1714
0.0174423
0.032992
0.0540652
0.0693127
0.0845375
0.0974799
0.109277
0.119661
0.128838
0.136952
0.144134
0.15065
0.156731
0.162699
0.168822
0.175342
0.18239
0.190003
0.19813
0.206703
0.215754
0.225649
0.237429
0.253066
0.275013
0.304644
0.340445
0.379758
0.420602
0.459647
0.493907
0.519937
0.533954
0.532901
0.515323
0.482958
0.44113
0.397103
0.356225
0.31833
0.279379
0.235346
0.182687
0.118499
0.0396316
-0.0581005
-0.180332
-0.333964
-0.527523
-0.771089
-1.07997
-1.47879
-1.85471
-2.16671
-3.26523
-3.57011
-3.93294
-4.49442
-4.98649
-5.3006
-5.31092
-4.79921
-4.08958
-3.04252
-1.86907
-0.721433
0.386213
1.28335
1.98523
2.4898
2.77183
2.93046
2.96061
2.90942
2.89834
2.80282
2.96493
2.6994
3.41652
0.0187433
0.0364522
0.0597136
0.0768817
0.0938466
0.108362
0.121539
0.133159
0.143408
0.152469
0.160476
0.167733
0.174498
0.181136
0.187949
0.195214
0.203074
0.211572
0.220639
0.230183
0.24021
0.251093
0.263982
0.281137
0.30546
0.33858
0.378681
0.422745
0.468581
0.512427
0.55095
0.580128
0.595476
0.593299
0.571934
0.533682
0.485059
0.434511
0.387902
0.344856
0.301061
0.252384
0.194891
0.124988
0.038609
-0.0694417
-0.205936
-0.379062
-0.59871
-0.876252
-1.2292
-1.6743
-2.1441
-2.89211
-3.29345
-4.10642
-4.33474
-4.95198
-5.49763
-5.85879
-5.87858
-5.30703
-4.52128
-3.35292
-2.05168
-0.780756
0.442738
1.43019
2.20093
2.75363
3.06005
3.23329
3.26406
3.20226
3.19378
3.07058
3.24888
2.95056
3.67152
0.0199355
0.0398849
0.0652539
0.0843689
0.103052
0.119148
0.133698
0.146553
0.157867
0.167868
0.176691
0.184679
0.192115
0.19941
0.206902
0.214903
0.223572
0.23295
0.242955
0.253462
0.264439
0.276255
0.290157
0.308721
0.335355
0.371983
0.416428
0.465304
0.516208
0.564907
0.607678
0.639793
0.655966
0.65189
0.625921
0.581235
0.525679
0.468721
0.416538
0.368542
0.320243
0.267405
0.205612
0.130485
0.0369635
-0.081226
-0.232069
-0.425097
-0.671643
-0.984509
-1.38227
-1.87656
-2.4404
-3.40027
-3.2457
-4.716
-4.76055
-5.42716
-6.02871
-6.43802
-6.46642
-5.82935
-4.96328
-3.66675
-2.23365
-0.836458
0.504328
1.58203
2.42101
3.02077
3.35038
3.53795
3.56828
3.49601
3.48887
3.33763
3.52968
3.19933
3.91344
0.0210277
0.0432999
0.0706946
0.091782
0.11216
0.129842
0.145755
0.159843
0.172214
0.183149
0.192775
0.20148
0.209572
0.217509
0.225667
0.234394
0.243865
0.254123
0.265061
0.276522
0.288424
0.301111
0.31592
0.335764
0.364637
0.404796
0.45364
0.507398
0.563437
0.616993
0.663858
0.698449
0.714645
0.707699
0.676358
0.625002
0.562764
0.499774
0.442328
0.389694
0.337298
0.280791
0.215187
0.135244
0.0348565
-0.0933625
-0.258665
-0.471968
-0.746115
-1.0954
-1.53858
-2.0845
-2.73004
-3.72669
-3.30032
-5.37101
-5.21975
-5.91742
-6.58447
-7.04262
-7.07777
-6.36864
-5.41721
-3.98451
-2.41484
-0.888075
0.571526
1.73928
2.64573
3.2913
3.64266
3.84428
3.87297
3.79063
3.78332
3.60393
3.80732
3.44742
4.14457
0.0220274
0.0467071
0.0760457
0.0991312
0.121179
0.140453
0.157718
0.173036
0.186455
0.198314
0.208732
0.21814
0.226871
0.235433
0.244243
0.253685
0.263953
0.275087
0.286958
0.299366
0.312166
0.325658
0.341256
0.362233
0.393265
0.436991
0.490295
0.549008
0.61022
0.668528
0.719093
0.755359
0.770479
0.759625
0.72243
0.664681
0.596437
0.52799
0.465675
0.408779
0.352746
0.293087
0.224165
0.139812
0.0328335
-0.105308
-0.285178
-0.519117
-0.821524
-1.20814
-1.69746
-2.2975
-3.01321
-3.98739
-3.61662
-6.00083
-5.7215
-6.4192
-7.16817
-7.67844
-7.71668
-6.92775
-5.88496
-4.30677
-2.59532
-0.935236
0.645091
1.90262
2.87538
3.56518
3.93676
4.15211
4.17777
4.08606
4.07684
3.8694
4.08202
3.69273
4.4007
0.0229409
0.0501145
0.0813158
0.106425
0.130115
0.150986
0.169591
0.186136
0.200593
0.213366
0.224561
0.234655
0.244007
0.253176
0.262622
0.272768
0.283826
0.295834
0.308638
0.321987
0.335659
0.349887
0.36614
0.388084
0.421186
0.468524
0.526356
0.590086
0.656425
0.719164
0.772678
0.809436
0.822167
0.80654
0.763579
0.700331
0.627082
0.55382
0.487037
0.426276
0.367079
0.30478
0.233013
0.144628
0.0313037
-0.11667
-0.311213
-0.566105
-0.897301
-1.32188
-1.85788
-2.51363
-3.28958
-4.24313
-4.27239
-6.56193
-6.26855
-6.9282
-7.78131
-8.35253
-8.38829
-7.51016
-6.36888
-4.6346
-2.7754
-0.97759
0.725803
2.07303
3.1108
3.8426
4.2325
4.46128
4.48243
4.38231
4.36918
4.13408
4.35368
3.93696
4.62495
0.0237737
0.0535299
0.0865135
0.113671
0.138977
0.161449
0.181381
0.199147
0.214632
0.228307
0.240264
0.251026
0.260978
0.270734
0.280798
0.291636
0.303478
0.316359
0.330097
0.344383
0.358904
0.373794
0.390553
0.413274
0.44835
0.499356
0.561779
0.630539
0.701787
0.76829
0.823565
0.859281
0.86831
0.847576
0.799729
0.732413
0.655287
0.57779
0.506899
0.442669
0.380791
0.316368
0.242225
0.150179
0.0307534
-0.126956
-0.336255
-0.612363
-0.972737
-1.4356
-2.01846
-2.73017
-3.55894
-4.52909
-5.2197
-6.95938
-6.8458
-7.43976
-8.42381
-9.07197
-9.09889
-8.11986
-6.87153
-4.96921
-2.95511
-1.01459
0.814304
2.25113
3.35291
4.12401
4.52973
4.77161
4.78662
4.67934
4.66007
4.39801
4.62223
4.17948
4.84876
0.0245304
0.05696
0.0916464
0.120877
0.147771
0.171846
0.193093
0.212074
0.228573
0.243139
0.255842
0.267252
0.277782
0.288102
0.298765
0.310282
0.322901
0.336654
0.351329
0.366553
0.381899
0.397374
0.414475
0.437757
0.474699
0.52944
0.596489
0.670172
0.745802
0.814952
0.870347
0.903284
0.907681
0.8824
0.83133
0.76165
0.681692
0.600399
0.525701
0.45839
0.394327
0.3283
0.252256
0.156921
0.0316395
-0.135705
-0.359827
-0.657352
-1.04711
-1.54818
-2.17756
-2.94409
-3.82231
-4.84905
-6.22698
-7.04998
-7.43787
-7.95088
-9.0942
-9.84365
-9.85572
-8.76154
-7.39582
-5.31158
-3.13435
-1.04567
0.911293
2.43749
3.60217
4.4098
4.82869
5.08278
5.08993
4.97706
4.94916
4.66119
4.88768
4.41971
5.07771
0.0252148
0.0604111
0.0967218
0.128051
0.156504
0.182184
0.204731
0.22492
0.242422
0.257864
0.271294
0.283331
0.294415
0.305275
0.316517
0.328697
0.342087
0.356712
0.372329
0.388494
0.404647
0.420629
0.437888
0.461483
0.500172
0.558712
0.630345
0.708604
0.787653
0.857831
0.911326
0.93989
0.93961
0.911372
0.859235
0.788861
0.706895
0.622077
0.543812
0.473811
0.408078
0.340994
0.263544
0.165303
0.0344179
-0.142462
-0.38147
-0.700558
-1.11972
-1.65856
-2.33355
-3.15291
-4.08036
-5.17247
-6.94658
-6.90727
-8.05977
-8.46428
-9.7894
-10.6743
-10.6667
-9.44086
-7.94512
-5.66277
-3.31303
-1.07023
1.01753
2.63276
3.85893
4.70022
5.12986
5.39454
5.39205
5.27535
5.23611
4.92362
5.14983
4.65958
5.28746
0.0258297
0.0638892
0.101747
0.1352
0.165181
0.192468
0.216299
0.237689
0.256179
0.272484
0.286621
0.299262
0.310874
0.322247
0.334045
0.346874
0.361027
0.376525
0.393091
0.410205
0.427152
0.443559
0.460776
0.4844
0.524698
0.58707
0.663068
0.745176
0.826178
0.895275
0.944703
0.968038
0.964267
0.935427
0.884458
0.814804
0.731384
0.643143
0.561509
0.489222
0.422377
0.354819
0.27649
0.175744
0.0395001
-0.146847
-0.400838
-0.741608
-1.19002
-1.76588
-2.48514
-3.35512
-4.33308
-5.47698
-7.29777
-6.82394
-8.70208
-8.99974
-10.5046
-11.5701
-11.54
-10.1644
-8.52346
-6.02407
-3.49109
-1.08766
1.13381
2.83763
4.12364
4.99532
5.4336
5.70688
5.6925
5.57407
5.52057
5.18532
5.40847
4.89733
5.50455
0.0263776
0.0673998
0.106727
0.14233
0.17381
0.202704
0.227803
0.250385
0.269848
0.287
0.301824
0.315044
0.327155
0.339013
0.351341
0.364802
0.379712
0.396085
0.41361
0.431686
0.449419
0.466172
0.483122
0.506449
0.548179
0.61432
0.694149
0.778916
0.859887
0.925386
0.969018
0.987607
0.98262
0.955785
0.907961
0.8401
0.755513
0.663803
0.578966
0.504827
0.437488
0.370097
0.291461
0.188614
0.0472154
-0.148619
-0.417781
-0.780375
-1.25779
-1.86973
-2.63178
-3.55061
-4.58179
-5.7696
-7.51906
-7.13769
-9.29908
-9.58838
-11.2356
-12.537
-12.484
-10.9397
-9.13572
-6.39702
-3.66851
-1.09727
1.26096
3.05277
4.39671
5.29511
5.73983
6.01968
5.99063
5.87298
5.80217
5.44623
5.66336
5.13198
5.72884
0.0268601
0.0709481
0.11167
0.149446
0.182396
0.212896
0.239246
0.263011
0.283431
0.301413
0.316902
0.330674
0.343253
0.355566
0.368399
0.382474
0.398132
0.415382
0.43388
0.452937
0.471457
0.488479
0.504914
0.527557
0.570461
0.640098
0.722802
0.808575
0.886966
0.946357
0.983745
0.999508
0.996085
0.973638
0.930537
0.865206
0.779501
0.684137
0.59625
0.520746
0.453614
0.387103
0.308767
0.204192
0.0577322
-0.147785
-0.432482
-0.817128
-1.3233
-1.97039
-2.77391
-3.74046
-4.82793
-6.06322
-7.77325
-8.01204
-9.69945
-10.2299
-11.9795
-13.5808
-13.5074
-11.7747
-9.78763
-6.78353
-3.84526
-1.09836
1.39986
3.27892
4.67854
5.59957
6.04823
6.33246
6.28689
6.17179
6.08052
5.70639
5.91404
5.36744
5.92884
0.0272781
0.0745394
0.11658
0.156556
0.190944
0.223049
0.250632
0.275569
0.296931
0.315726
0.331856
0.346152
0.359166
0.371899
0.385207
0.399877
0.416276
0.434408
0.453894
0.473958
0.493277
0.510498
0.526136
0.547619
0.591272
0.663796
0.74802
0.832609
0.905412
0.957155
0.989615
1.00534
1.00612
0.989982
0.952776
0.890429
0.803445
0.704114
0.613326
0.537011
0.470893
0.406047
0.32863
0.222597
0.070953
-0.144731
-0.445586
-0.852674
-1.38743
-2.06893
-2.91294
-3.92676
-5.07319
-6.36701
-8.09263
-9.05007
-9.66431
-10.9107
-12.7335
-14.7075
-14.6191
-12.678
-10.4858
-7.18596
-4.02138
-1.09019
1.55145
3.5168
4.96952
5.90866
6.35848
6.64463
6.58153
6.47037
6.35529
5.96573
6.16011
5.59853
6.14653
0.0276321
0.0781787
0.121462
0.163664
0.199459
0.233167
0.261965
0.288062
0.31035
0.329938
0.346685
0.361474
0.374888
0.388005
0.401758
0.417003
0.434133
0.45315
0.473644
0.494751
0.514895
0.532248
0.546762
0.566458
0.61014
0.684613
0.768635
0.849076
0.913623
0.958131
0.988338
1.00683
1.01394
1.00556
0.97509
0.915958
0.827343
0.723595
0.630061
0.553576
0.489393
0.42706
0.351127
0.243686
0.0863772
-0.140363
-0.458328
-0.888445
-1.45176
-2.16712
-3.05104
-4.11224
-5.31974
-6.68285
-8.4317
-9.68157
-9.45688
-11.695
-13.5091
-15.9217
-15.8283
-13.6585
-11.2376
-7.60715
-4.19701
-1.07199
1.71667
3.76718
5.27007
6.22226
6.67019
6.95584
6.87472
6.76813
6.62621
6.22425
6.40116
5.82908
6.34546
0.0279221
0.0818709
0.126322
0.170775
0.207946
0.243253
0.273248
0.300493
0.323688
0.344051
0.361388
0.376639
0.390414
0.403876
0.41804
0.433837
0.451692
0.471598
0.493122
0.515317
0.536327
0.553751
0.56673
0.583747
0.62639
0.701748
0.783097
0.855916
0.911316
0.950982
0.981943
1.00547
1.02047
1.02088
0.997759
0.941906
0.851115
0.742353
0.646235
0.570321
0.509115
0.450154
0.376111
0.266928
0.102959
-0.136222
-0.472587
-0.92647
-1.51836
-2.26713
-3.19069
-4.29981
-5.57032
-7.01029
-8.78005
-10.0483
-9.5615
-12.5087
-14.3645
-17.2306
-17.1442
-14.7255
-12.0509
-8.05045
-4.37249
-1.04293
1.89655
4.03083
5.58057
6.54021
6.98292
7.2656
7.16733
7.06425
6.89304
6.48191
6.6366
6.05688
6.53648
0.0281472
0.0856211
0.131164
0.177895
0.216409
0.253312
0.284484
0.312864
0.336948
0.358065
0.375967
0.391643
0.405739
0.419504
0.434043
0.450369
0.468938
0.48974
0.512321
0.53566
0.55759
0.575015
0.58588
0.598929
0.639379
0.714317
0.789244
0.851961
0.89991
0.938013
0.972211
1.00237
1.02633
1.0363
1.02099
0.968346
0.87463
0.76008
0.661551
0.587059
0.529979
0.475178
0.403095
0.291257
0.118986
-0.13453
-0.490816
-0.969145
-1.58944
-2.37111
-3.33422
-4.49216
-5.82789
-7.3511
-9.15507
-10.4783
-10.4312
-13.2014
-15.3387
-18.644
-18.577
-15.8887
-12.934
-8.51951
-4.54844
-1.00221
2.09214
4.30856
5.9014
6.8623
7.29613
7.57335
7.45919
7.35837
7.15555
6.73869
6.866
6.28068
6.74457
0.0283063
0.0894342
0.135991
0.185027
0.224854
0.263346
0.295674
0.325175
0.35013
0.371982
0.390419
0.406485
0.420858
0.43488
0.449756
0.466586
0.485859
0.507561
0.53123
0.555777
0.578692
0.595992
0.603834
0.611366
0.648749
0.720712
0.784968
0.837937
0.881897
0.92134
0.960454
0.998258
1.03192
1.05207
1.04496
0.995353
0.897721
0.776397
0.675645
0.603557
0.55182
0.501745
0.43113
0.314947
0.13203
-0.138096
-0.515759
-1.01881
-1.66692
-2.4808
-3.48339
-4.69135
-6.09493
-7.70678
-9.56853
-11.0391
-11.7486
-13.4752
-16.4082
-20.1717
-20.1373
-17.1582
-13.8958
-9.0182
-4.72589
-0.948997
2.30454
4.60116
6.23296
7.1882
7.60919
7.87851
7.74949
7.65026
7.41362
6.99474
7.08883
6.50459
6.92428
0.0283977
0.0933154
0.140808
0.192177
0.233282
0.273358
0.306822
0.33743
0.363237
0.3858
0.404744
0.421162
0.435765
0.449995
0.465166
0.482472
0.502438
0.525046
0.549835
0.575663
0.599609
0.616468
0.619928
0.620867
0.653995
0.718421
0.769737
0.816312
0.859773
0.902518
0.947535
0.99361
1.03754
1.06842
1.0699
1.02303
0.920204
0.79087
0.688111
0.619554
0.574359
0.529131
0.45867
0.335534
0.13902
-0.150014
-0.549964
-1.07729
-1.75207
-2.59719
-3.63915
-4.89848
-6.37305
-8.07884
-10.0226
-11.6794
-12.8155
-13.4405
-17.5879
-21.8239
-21.8349
-18.5449
-14.9456
-9.5505
-4.90623
-0.882494
2.5349
4.90948
6.57562
7.51754
7.92143
8.18045
8.0374
7.9396
7.66723
7.25015
7.30457
6.72403
7.10655
0.0284191
0.09727
0.145619
0.199349
0.241698
0.283351
0.317928
0.349627
0.376267
0.39952
0.41894
0.43567
0.450453
0.464838
0.480259
0.498014
0.518662
0.542179
0.568118
0.595289
0.620216
0.635867
0.633513
0.627687
0.653184
0.705412
0.745241
0.789984
0.835389
0.882556
0.933979
0.988726
1.04342
1.08561
1.09607
1.05155
0.941892
0.803018
0.698525
0.634782
0.597173
0.556169
0.483459
0.349835
0.136537
-0.173101
-0.595214
-1.14545
-1.84526
-2.72037
-3.80139
-5.11348
-6.66267
-8.46884
-10.5164
-12.3629
-13.566
-13.5974
-18.8796
-23.6481
-23.6767
-20.0587
-16.0929
-10.1204
-5.09105
-0.801944
2.78438
5.23434
6.92973
7.84983
8.23208
8.47851
8.32198
8.22615
7.91593
7.50497
7.51309
6.93715
7.30817
0.0283677
0.101303
0.150427
0.206545
0.250105
0.293326
0.328995
0.361769
0.389222
0.413143
0.433008
0.450005
0.464916
0.4794
0.495023
0.513196
0.534512
0.558938
0.586046
0.614578
0.640112
0.65323
0.644633
0.631136
0.642774
0.682143
0.714796
0.761338
0.809888
0.862043
0.920108
0.983841
1.04981
1.10397
1.12385
1.08115
0.962601
0.812328
0.706481
0.648994
0.619626
0.581118
0.502463
0.354165
0.121413
-0.209231
-0.65211
-1.22309
-1.9458
-2.84932
-3.96881
-5.33496
-6.96284
-8.87792
-11.0519
-13.1032
-14.3963
-14.4405
-20.2394
-25.7284
-25.6698
-21.7077
-17.3468
-10.7319
-5.28214
-0.70663
3.05419
5.57659
7.29567
8.18447
8.54028
8.77196
8.60229
8.50949
8.15886
7.7599
7.71438
7.15157
7.47589
0.0282401
0.105421
0.155234
0.213771
0.258506
0.303285
0.340023
0.373854
0.402101
0.426666
0.446944
0.464166
0.479147
0.49367
0.509443
0.528001
0.549969
0.575292
0.603559
0.633295
0.658387
0.667802
0.654058
0.629877
0.620734
0.6506
0.681108
0.73163
0.783954
0.841338
0.90615
0.979199
1.05704
1.12391
1.15375
1.11219
0.982162
0.81828
0.71164
0.661976
0.640798
0.601495
0.511906
0.344915
0.0915334
-0.258826
-0.719918
-1.30883
-2.05191
-2.9818
-4.13873
-5.55995
-7.27094
-9.30548
-11.6301
-13.9132
-15.45
-16.1699
-21.6399
-28.1328
-27.8265
-23.4985
-18.715
-11.3893
-5.48138
-0.595831
3.34558
5.9371
7.67379
8.52077
8.84514
9.05996
8.8774
8.78831
8.39715
8.01493
7.90872
7.35637
7.66092
0.0280323
0.10963
0.160044
0.221029
0.266903
0.313229
0.351011
0.385883
0.414904
0.44009
0.460749
0.478147
0.493138
0.507634
0.523503
0.54241
0.565007
0.591196
0.620524
0.650831
0.673765
0.679654
0.659879
0.615321
0.583364
0.615157
0.64581
0.701698
0.757817
0.820652
0.892343
0.975089
1.06548
1.14598
1.18643
1.14516
1.00042
0.820363
0.713784
0.673585
0.659316
0.613844
0.507682
0.319492
0.0464929
-0.320723
-0.796636
-1.40017
-2.16057
-3.11423
-4.30697
-5.78396
-7.58268
-9.74865
-12.2493
-14.7983
-16.7464
-18.5861
-22.9541
-30.88
-30.1631
-25.4399
-20.2039
-12.0966
-5.69035
-0.468691
3.65988
6.31671
8.06441
8.85791
9.14565
9.34161
9.1465
9.06114
8.63495
8.26821
8.09664
7.55932
7.83211
0.0277399
0.113935
0.16486
0.228322
0.275297
0.323158
0.36196
0.397854
0.427629
0.453413
0.47442
0.491946
0.506883
0.521282
0.537185
0.556402
0.579592
0.60657
0.636605
0.666016
0.685344
0.688908
0.659656
0.583238
0.540684
0.576472
0.609191
0.671816
0.731756
0.800208
0.878955
0.971872
1.07563
1.17085
1.22271
1.18069
1.01726
0.818095
0.712915
0.683793
0.672906
0.613689
0.486381
0.277246
-0.012219
-0.392346
-0.879124
-1.49348
-2.26756
-3.24167
-4.46806
-6.00126
-7.89252
-10.2026
-12.905
-15.7579
-18.2375
-21.2585
-24.1557
-34.0246
-32.6935
-27.5432
-21.8197
-12.8581
-5.90914
-0.324059
3.99854
6.71628
8.46788
9.19493
9.44076
9.61593
9.40882
9.32716
8.87532
8.51789
8.27843
7.75587
7.99461
0.0273576
0.118343
0.169683
0.235654
0.283691
0.333073
0.372869
0.409764
0.440275
0.466634
0.487955
0.505558
0.520373
0.534598
0.550471
0.569946
0.593669
0.621244
0.651045
0.677522
0.693296
0.695103
0.646209
0.541019
0.49876
0.535952
0.573117
0.642154
0.705986
0.780308
0.866339
0.969981
1.08809
1.19934
1.26363
1.21962
1.03255
0.811007
0.709522
0.692461
0.677605
0.596337
0.446645
0.21982
-0.0815048
-0.469986
-0.963236
-1.58407
-2.36755
-3.35827
-4.61583
-6.20576
-8.1947
-10.6617
-13.5904
-16.7841
-19.8683
-23.8387
-25.4835
-37.8103
-35.4368
-29.8167
-23.567
-13.6774
-6.13528
-0.160391
4.36318
7.13669
8.88448
9.53076
9.7293
9.88184
9.66358
9.58595
9.11786
8.76377
8.4544
7.94438
8.18568
0.0268794
0.122862
0.174515
0.243027
0.292086
0.342972
0.383736
0.421613
0.45284
0.479751
0.501352
0.518979
0.533598
0.547566
0.563333
0.582999
0.607144
0.634816
0.662623
0.685171
0.699532
0.696745
0.61481
0.499068
0.454478
0.492382
0.537191
0.612825
0.680899
0.761301
0.854901
0.969925
1.10355
1.23246
1.31051
1.26298
1.04602
0.798703
0.705074
0.698144
0.667483
0.558754
0.389972
0.150771
-0.157125
-0.549068
-1.04399
-1.66648
-2.45466
-3.45801
-4.74462
-6.39233
-8.48447
-11.1205
-14.2972
-17.8637
-21.6126
-26.3714
-27.2553
-42.4206
-38.4195
-32.2565
-25.445
-14.5564
-6.36521
0.0242506
4.7557
7.57888
9.31451
9.86415
10.01
10.1382
9.90994
9.83731
9.36081
9.00628
8.62478
8.13299
8.3396
0.0262986
0.1275
0.17936
0.250444
0.300482
0.352854
0.394557
0.433395
0.46532
0.492761
0.514609
0.532205
0.546549
0.560167
0.575736
0.595496
0.61982
0.646495
0.670508
0.691242
0.708663
0.683542
0.579707
0.456419
0.408743
0.447063
0.502049
0.584135
0.656839
0.743568
0.8451
0.972281
1.12282
1.2714
1.36496
1.31196
1.05693
0.781381
0.702012
0.695863
0.636378
0.501424
0.320358
0.0748574
-0.234113
-0.624408
-1.11589
-1.73502
-2.52335
-3.53598
-4.85042
-6.55781
-8.75871
-11.5743
-15.0165
-18.9824
-23.4568
-28.9276
-29.8378
-47.656
-41.6587
-34.8464
-27.4458
-15.4935
-6.59605
0.232276
5.17833
8.04391
9.75824
10.1937
10.2816
10.3839
10.1471
10.0813
9.60201
9.24538
8.78938
8.31511
8.50358
0.0256075
0.132263
0.184218
0.257906
0.30888
0.362717
0.405331
0.445108
0.477712
0.505662
0.527724
0.54523
0.559211
0.57237
0.587625
0.607323
0.631267
0.655306
0.675391
0.69777
0.715162
0.658876
0.547077
0.410969
0.362898
0.39991
0.467984
0.556376
0.634219
0.727521
0.837432
0.9777
1.14687
1.31761
1.42895
1.36763
1.06353
0.761361
0.701328
0.676177
0.581505
0.428567
0.243197
-0.00258503
-0.307131
-0.690605
-1.17358
-1.78467
-2.56945
-3.58925
-4.93156
-6.70112
-9.01573
-12.0188
-15.7389
-20.1264
-25.3859
-31.5161
-33.3054
-53.4061
-45.1726
-37.5682
-29.5556
-16.4844
-6.82604
0.466485
5.63386
8.53311
10.2159
10.5179
10.5426
10.6178
10.3742
10.318
9.83897
9.48051
8.94813
8.48947
8.69686
0.0247975
0.137162
0.18909
0.265415
0.317279
0.372559
0.416052
0.456745
0.490012
0.518451
0.540692
0.558046
0.571566
0.584133
0.598919
0.618253
0.640788
0.661151
0.680635
0.708886
0.706704
0.636546
0.513134
0.363987
0.317828
0.351488
0.435586
0.52985
0.613467
0.713598
0.832446
0.986907
1.17678
1.37281
1.50477
1.43006
1.06324
0.744566
0.697375
0.628893
0.505982
0.346548
0.164294
-0.0760878
-0.370887
-0.742622
-1.21257
-1.81201
-2.59093
-3.61719
-4.98833
-6.82247
-9.25434
-12.4498
-16.455
-21.2842
-27.385
-34.1394
-37.6575
-59.594
-48.9784
-40.4058
-31.7564
-17.5223
-7.0545
0.730264
6.12584
9.0482
10.6878
10.8349
10.7915
10.8385
10.5907
10.5477
10.0691
9.71111
9.10099
8.67716
8.83776
0.0238589
0.142206
0.193978
0.272973
0.325677
0.382374
0.426715
0.468301