/*--------------------------------*- C++ -*----------------------------------*\
| =========                 |                                                 |
| \\      /  F ield         | OpenFOAM: The Open Source CFD Toolbox           |
|  \\    /   O peration     | Version:  4.1                                   |
|   \\  /    A nd           | Web:      www.OpenFOAM.org                      |
|    \\/     M anipulation  |                                                 |
\*---------------------------------------------------------------------------*/
FoamFile
{
    version     2.0;
    format      ascii;
    class       surfaceScalarField;
    location    "17";
    object      phi;
}
// * * * * * * * * * * * * * * * * * * * * * * * * * * * * * * * * * * * * * //

dimensions      [0 3 -1 0 0 0 0];

internalField   nonuniform List<scalar> 
13220
(
-808.047
2107.95
-1259.36
1751.52
-1722.78
1763.32
-2063.17
1640.29
-2342.11
1579.14
-2542.27
1500.06
-2670.9
1428.53
-2725.3
1354.6
-2707.54
1282.15
-2616.96
1209.32
-2452.84
1136.08
-2198.98
1046.04
-1778.3
879.223
-1057.44
579.341
242.463
-189.482
2297.43
-415.152
1977.19
-664.973
2013.14
-847.202
1822.52
-1018.82
1750.77
-1140.07
1621.31
-1231.42
1519.88
-1286.89
1410.06
-1315.44
1310.71
-1317.62
1211.5
-1284.15
1102.61
-1189.47
951.352
-981.972
671.728
-601.685
199.056
-359.222
-102.712
2400.14
-236.88
2111.36
-323.412
2099.67
-346.591
1845.7
-361.155
1765.33
-325.364
1585.52
-271.28
1465.8
-191.485
1330.27
-98.9262
1218.15
6.45172
1106.12
121.494
987.572
228.835
844.015
276.3
624.27
188.55
286.818
-170.673
31.8866
2368.26
30.0253
2113.22
57.3281
2072.37
88.4985
1814.53
119.527
1734.3
156.875
1548.17
194.703
1427.97
268.539
1256.43
411.302
1075.39
623.622
893.803
836.894
774.3
962.023
718.886
907.686
678.605
602.235
592.268
431.562
-59.9868
2428.24
-131.421
2184.66
-190.129
2131.08
-283.074
1907.47
-376.701
1827.93
-495.148
1666.62
-621.524
1554.35
-706.674
1341.58
-682.712
1051.42
-524.953
736.045
-272.646
521.992
12.0118
434.231
216.834
473.784
218.621
590.483
650.183
-88.2623
2516.51
-258.236
2354.63
-386.292
2259.13
-533.407
2054.59
-684.873
1979.4
-849.341
1831.09
-1027.48
1732.49
-1216.64
1530.74
-1403.82
1238.61
-1542.01
874.232
-1561.25
541.23
-1382.39
255.367
-983.963
75.3548
-464.252
70.7664
185.932
102.276
2414.23
-45.5382
2502.44
-99.162
2312.76
-131.178
2086.6
-146.505
1994.72
-153.621
1838.2
-151.428
1730.3
-179.707
1559.02
-280.382
1339.28
-458.102
1051.95
-662.281
745.409
-826.843
419.931
-835.6
84.1136
-596.735
-168.097
-410.803
269.623
2144.61
239.005
2533.06
279.196
2272.56
361.152
2004.65
472.071
1883.8
589.495
1720.78
725.386
1594.41
842.836
1441.57
903.742
1278.37
865
1090.69
729.302
881.107
498.541
650.69
203.656
378.994
-16.9291
52.482
-427.732
232.851
1911.76
267.234
2498.68
315.147
2224.65
392.858
1926.94
489.573
1787.09
584.602
1625.75
685.741
1493.27
777.556
1349.75
846.651
1209.28
870.49
1066.85
835.38
916.217
731.786
754.285
551.435
559.346
288.209
315.71
-139.524
131.508
1780.25
185.962
2444.22
225.296
2185.32
275.44
1876.79
339.848
1722.68
397.015
1568.58
449.939
1440.34
492.901
1306.79
522.123
1180.06
533.287
1055.69
519.912
929.592
471.89
802.305
374.314
656.919
209.99
480.027
70.4668
57.3899
1722.86
127.529
2374.08
181.428
2131.42
237.591
1820.63
305.983
1654.29
367.521
1507.04
421.486
1386.38
467.619
1260.66
509.076
1138.6
544.829
1019.93
563.392
911.028
539.548
826.148
440.186
756.281
248.752
671.46
319.219
-22.6385
1745.5
97.0672
2254.38
210.868
2017.62
291.155
1740.34
370.425
1575.02
459.4
1418.07
558.123
1287.65
665.11
1153.67
774.567
1029.14
867.695
926.805
903.882
874.841
841.4
888.629
651.485
946.195
363.77
959.172
682.989
-71.1702
1816.66
-76.1242
2259.33
-18.4441
1959.94
58.503
1663.39
156.001
1477.52
282.172
1291.9
439.119
1130.71
621.011
971.777
801.008
849.146
932.166
795.646
955.563
851.444
835.897
1008.3
584.322
1197.77
275.312
1268.18
958.301
282.04
1534.62
272.255
2269.12
67.4265
2164.76
-206.116
1936.94
-478.533
1749.93
-724.24
1537.6
-909.735
1316.2
-1033.42
1095.46
-1086.45
902.18
-1056.13
765.324
-926.906
722.217
-718.287
799.677
-499.591
979.073
-295.325
1063.92
662.976
870.439
1929.28
2459.97
2601.41
2578.37
2386.06
2000.68
1561.79
1054.19
562.366
161.767
-49.463
-64.3265
24.6305
1.00527e-05
294.293
-294.293
294.293
294.293
294.293
650.652
-356.359
650.652
650.652
650.652
928.309
-277.657
928.309
928.309
1147.03
-218.723
1147.03
1147.03
1147.03
1324.21
-177.178
1324.21
1324.21
1452.77
-128.562
1452.77
1452.77
1452.77
1524.18
-71.4059
1524.18
1524.18
1524.18
1527.29
-3.11288
1527.29
1527.29
1479.96
47.3326
1479.96
1479.96
1479.96
1393.05
86.9051
1393.05
1393.05
1271.56
121.49
1271.56
1271.56
1271.56
1126.7
144.865
1126.7
1126.7
1126.7
1048.84
77.8636
1048.84
1048.84
953.615
95.2203
953.615
953.615
953.615
758.852
194.763
758.852
758.852
758.852
460.342
298.51
460.342
460.342
116.733
343.609
116.733
116.733
116.733
-288.006
404.738
-288.006
-288.006
-1275.76
987.757
-1275.76
-1275.76
-1275.76
-2807.59
1531.83
-2807.59
-2807.59
-2807.59
-4800.17
1992.58
-4800.17
-4800.17
-7097.94
2297.77
-7097.94
-7097.94
-6974.3
-6851.79
-6725.73
-9055.4
2463.26
-8919.56
-8756.17
-8575.2
-8394.09
-8210.63
-8023.07
-7838.29
-7661.19
-10064.7
2581.88
-9871.95
-9679.57
-9484.61
-9294.81
-9104.14
-8910.8
-8719.73
-8533.41
-10954.9
2608.95
-10743.3
-10530.2
-10315.2
-10100.5
-9877.2
-9637.23
-9395.86
-9154.49
-8915.85
-11191
2497.2
-10927.1
-10663
-10398.5
-10134.5
-9870.74
-9588.07
-9295.18
-9003.36
-10894
2167.86
-10605.8
-10306.2
-9987.69
-9668.1
-9347.24
-9027.79
-8709.37
-8368.68
-9746.23
1700.02
-9422.16
-9102.55
-8785.34
-8455.11
-8120.31
-7787.74
-7454.67
-7123.31
-7962.66
1172.17
-7622.98
-7284.27
-6946.36
-6611.89
-6283.39
-5953.08
-5631.91
-5321.88
-5026
-4892.07
158.262
-4632.8
-4393.7
-4162.62
-3941.28
-3727.05
-3549.45
-3433.53
-3312.88
-2884.99
-287.795
-2766.57
-2648.13
-2648.13
-2459.79
-188.343
-2274.41
-185.378
-2274.41
-2120.48
-153.933
-2120.48
-1991.89
-128.592
-1883.58
-108.309
-1883.58
-1786.74
-96.8394
-1703.7
-83.0354
-1703.7
-1627.23
-76.4722
-1627.23
-1560.03
-67.2027
-1500.89
-59.1428
-1500.89
-1444.37
-56.5171
-1444.37
-1394.26
-50.1064
-1347.7
-46.5615
-1347.7
-1302.8
-44.9017
-1261.36
-41.4366
-1261.36
-1220.17
-41.1958
-1220.17
-1182.09
-38.0736
-1145.79
-36.3044
-1145.79
-1108.86
-36.9305
-1108.86
-1074.55
-34.3136
-1040.09
-34.4519
-1040.09
-1005.44
-34.6533
-971.497
-33.9427
-971.497
-936.619
-34.8782
-936.619
-902.817
-33.8025
-868.884
-33.9325
-868.884
-833.387
-35.4968
-833.387
-798.411
-34.976
-762.228
-36.1831
-762.228
-724.313
-37.9155
-686.372
-37.9405
-686.372
-646.768
-39.6045
-646.768
-606.698
-40.0694
-566.188
-40.5097
-566.188
-523.603
-42.5853
-523.603
-479.852
-43.7512
-434.8
-45.0515
-434.8
-386.655
-48.1453
-338.761
-47.8943
-338.761
-289.478
-49.2824
-289.478
-238.594
-50.8843
-187.49
-51.1037
-187.49
-135.009
-52.4816
-135.009
-79.0266
-55.9821
-15.5208
-63.5058
-15.5208
42.9222
-58.443
134.299
-91.3771
134.299
231.712
-97.4129
231.712
-85.5805
-99.1076
-422.178
-99.3814
-490.463
-100.084
-529.618
-100.956
-569.449
-102.091
-606.752
-103.406
-641.677
-104.921
-674.925
-106.608
-706.411
-108.466
-736.405
-110.483
-764.98
-112.654
-792.257
-114.971
-818.34
-117.431
-843.332
-120.031
-867.353
-122.77
-890.524
-125.646
-912.978
-128.66
-934.845
-131.813
-956.249
-135.103
-977.298
-138.531
-998.086
-142.1
-1018.7
-145.814
-1039.24
-149.688
-1059.87
-153.743
-1080.89
-158.01
-1102.73
-162.516
-1125.95
-167.282
-1151.03
-172.316
-1178.23
-177.606
-1207.58
-183.121
-1238.87
-188.807
-1271.62
-194.59
-1305.13
-200.379
-1338.51
-206.089
-1370.76
-211.702
-1400.81
-217.395
-1427.58
-223.737
-1449.88
-231.91
-1466.31
-243.786
-1475.17
-261.641
-1474.66
-287.358
-1463.73
-321.329
-1443.25
-361.676
-1416.65
-404.424
-1388.97
-444.625
-1364.79
-477.718
-1346.16
-500.327
-1331.31
-510.49
-1314.22
-508.399
-1287.48
-496.705
-1252.55
-469.604
-1214.36
-389.264
-1068.16
-248.302
-449.137
-154.497
573.154
-118.936
1178.93
-86.3997
1551.97
-54.0899
1911.65
-22.5577
2268.92
6.23941
2596.68
28.5273
2867.15
41.8899
3076.82
48.8083
3266.04
51.9173
3440.6
52.8226
3585.78
52.7269
3680.62
52.2231
3709.85
51.6236
3665.77
51.3972
3555.09
50.9489
3366.52
50.7844
3124.14
49.089
2775.61
48.0655
2445.53
43.9747
1922.6
43.7769
1777.44
39.2545
926.864
41.9133
1567.1
51.2178
643.246
55.4907
899.599
3816.86
-104.905
-422.482
-105.025
-490.342
-105.672
-528.971
-106.503
-568.618
-107.627
-605.628
-108.943
-640.36
-110.475
-673.394
-112.188
-704.698
-114.083
-734.511
-116.144
-762.919
-118.367
-790.034
-120.745
-815.961
-123.276
-840.802
-125.956
-864.673
-128.786
-887.694
-131.766
-909.999
-134.895
-931.716
-138.172
-952.971
-141.599
-973.872
-145.174
-994.511
-148.901
-1014.97
-152.789
-1035.35
-156.86
-1055.8
-161.146
-1076.6
-165.682
-1098.2
-170.499
-1121.14
-175.608
-1145.92
-181.005
-1172.83
-186.662
-1201.92
-192.531
-1233
-198.535
-1265.61
-204.578
-1299.09
-210.557
-1332.53
-216.425
-1364.89
-222.328
-1394.91
-228.852
-1421.06
-237.306
-1441.43
-249.89
-1453.73
-269.423
-1455.64
-298.414
-1445.67
-337.631
-1424.51
-384.949
-1395.93
-435.433
-1366.16
-482.871
-1341.53
-521.798
-1325.86
-548.737
-1319.22
-562.168
-1317.88
-561.79
-1314.59
-548.66
-1300.61
-526.638
-1274.57
-495.484
-1245.52
-419.072
-1144.57
-250.379
-617.83
-136.23
459.004
-112.797
1155.5
-83.4983
1522.67
-51.9921
1880.14
-21.4496
2238.38
6.59269
2568.64
28.2631
2845.48
41.0841
3064
47.6952
3259.43
50.5644
3437.73
51.3593
3584.99
51.2898
3680.69
50.8698
3710.27
50.4509
3666.19
50.4339
3555.1
50.2114
3366.75
50.2843
3124.07
48.7955
2777.1
47.9476
2446.38
43.9885
1926.56
43.8028
1777.62
38.879
931.788
41.6759
1564.3
49.8033
635.118
53.5925
895.81
3773.04
-108.041
-422.869
-108.104
-490.28
-108.719
-528.355
-109.532
-567.806
-110.652
-604.509
-111.972
-639.04
-113.515
-671.85
-115.246
-702.967
-117.163
-732.594
-119.251
-760.83
-121.507
-787.778
-123.923
-813.546
-126.496
-838.228
-129.226
-861.943
-132.112
-884.808
-135.153
-906.957
-138.351
-928.518
-141.703
-949.618
-145.21
-970.365
-148.871
-990.85
-152.691
-1011.15
-156.682
-1031.36
-160.869
-1051.61
-165.292
-1072.18
-169.989
-1093.5
-174.989
-1116.14
-180.299
-1140.61
-185.904
-1167.23
-191.77
-1196.06
-197.834
-1226.94
-204.006
-1259.44
-210.179
-1292.91
-216.267
-1326.45
-222.327
-1358.83
-228.789
-1388.45
-236.776
-1413.07
-248.353
-1429.85
-266.404
-1435.68
-293.843
-1428.2
-332.168
-1407.35
-380.031
-1376.65
-432.908
-1343.05
-484.425
-1314.64
-528.566
-1297.39
-561.313
-1293.11
-580.944
-1299.59
-587.268
-1311.56
-580.623
-1321.24
-561.868
-1319.37
-534.329
-1302.11
-501.053
-1278.79
-434.761
-1210.86
-262.843
-789.748
-119.543
315.705
-98.6433
1134.6
-79.2535
1503.28
-48.6542
1849.54
-19.5308
2209.26
7.40095
2541.71
28.2019
2824.68
40.1916
3052.01
46.2034
3253.42
48.6519
3435.28
49.2037
3584.44
49.1055
3680.79
48.7901
3710.59
48.601
3666.37
48.8917
3554.81
49.0072
3366.63
49.4321
3123.65
48.2723
2778.26
47.6749
2446.98
43.9668
1930.27
43.6472
1777.94
38.7705
936.664
40.9492
1562.12
48.4237
627.644
50.7795
893.454
3732.45
-111.782
-423.332
-111.79
-490.271
-112.379
-527.767
-113.178
-567.007
-114.299
-603.387
-115.629
-637.71
-117.191
-670.288
-118.947
-701.212
-120.895
-730.646
-123.02
-758.705
-125.318
-785.48
-127.782
-811.082
-130.41
-835.6
-133.2
-859.152
-136.154
-881.854
-139.272
-903.839
-142.554
-925.237
-145.997
-946.174
-149.602
-966.76
-153.368
-987.084
-157.3
-1007.22
-161.414
-1027.24
-165.74
-1047.29
-170.324
-1067.6
-175.212
-1088.61
-180.43
-1110.92
-185.979
-1135.07
-191.839
-1161.37
-197.96
-1189.94
-204.266
-1220.63
-210.648
-1253.06
-216.998
-1286.56
-223.298
-1320.15
-229.834
-1352.3
-237.537
-1380.74
-248.312
-1402.29
-265.076
-1413.09
-291.127
-1409.63
-328.733
-1390.59
-377.45
-1358.63
-433.297
-1320.8
-489.706
-1286.64
-539.852
-1264.5
-578.811
-1258.43
-604.315
-1267.61
-616.157
-1287.75
-615.092
-1312.62
-601.879
-1334.45
-577.239
-1344.01
-543.899
-1335.45
-506.636
-1316.06
-447.479
-1270.02
-286.788
-950.439
-108.121
137.037
-78.012
1104.49
-72.1973
1497.47
-44.4057
1821.75
-16.6561
2181.51
8.74688
2516.3
28.4285
2805
39.3077
3041.13
44.4461
3248.28
46.273
3433.45
46.4358
3584.27
46.2357
3680.99
46.0186
3710.81
46.0962
3666.3
46.7703
3554.14
47.3209
3366.08
48.202
3122.76
47.4816
2778.98
47.236
2447.22
43.8486
1933.66
43.5371
1778.26
38.6476
941.554
40.4051
1560.36
46.2896
621.759
46.826
892.918
3720.83
-115.389
-423.846
-115.364
-490.296
-115.932
-527.199
-116.724
-566.214
-117.851
-602.26
-119.196
-636.365
-120.781
-668.704
-122.565
-699.428
-124.548
-728.663
-126.712
-756.54
-129.055
-783.138
-131.569
-808.568
-134.253
-832.915
-137.108
-856.298
-140.132
-878.83
-143.328
-900.643
-146.695
-921.87
-150.232
-942.637
-153.937
-963.055
-157.809
-983.212
-161.854
-1003.17
-166.091
-1023.01
-170.555
-1042.82
-175.301
-1062.85
-180.379
-1083.54
-185.815
-1105.48
-191.606
-1129.27
-197.722
-1155.25
-204.098
-1183.56
-210.64
-1214.09
-217.23
-1246.47
-223.796
-1280
-230.498
-1313.44
-238.065
-1344.73
-248.195
-1370.61
-263.73
-1386.76
-288.211
-1388.6
-324.563
-1373.27
-373.27
-1341.88
-431.103
-1300.8
-491.567
-1260.34
-547.165
-1231.04
-592.01
-1219.65
-623.132
-1227.31
-640.109
-1250.63
-643.91
-1283.95
-635.82
-1320.71
-616.747
-1353.52
-587.196
-1373.56
-549.077
-1373.57
-507.645
-1357.49
-454.24
-1323.43
-320.66
-1084.02
-112.55
-71.073
-54.2946
1046.23
-60.1964
1503.37
-39.1032
1800.66
-12.6273
2155.03
10.8494
2492.83
29.0702
2786.78
38.5244
3031.68
42.4604
3244.34
43.4178
3432.5
43.0199
3584.67
42.6183
3681.39
42.4822
3710.94
42.8584
3665.92
43.9935
3553
45.0824
3364.99
46.5389
3121.31
46.372
2779.15
46.6052
2446.99
43.6054
1936.66
43.4453
1778.42
38.5077
946.491
39.9902
1558.88
44.8121
616.937
44.7453
892.984
3702.07
-119.034
-424.394
-118.99
-490.341
-119.545
-526.644
-120.338
-565.421
-121.477
-601.122
-122.842
-635
-124.454
-667.092
-126.271
-697.61
-128.293
-726.641
-130.502
-754.331
-132.894
-780.746
-135.463
-805.998
-138.209
-830.17
-141.131
-853.376
-144.231
-875.73
-147.51
-897.364
-150.968
-918.412
-154.603
-939.002
-158.413
-959.245
-162.397
-979.228
-166.56
-999.01
-170.925
-1018.64
-175.533
-1038.21
-180.445
-1057.94
-185.72
-1078.26
-191.384
-1099.82
-197.427
-1123.23
-203.809
-1148.87
-210.447
-1176.92
-217.23
-1207.31
-224.056
-1239.64
-230.98
-1273.07
-238.542
-1305.88
-248.2
-1335.07
-262.652
-1356.16
-285.559
-1363.85
-320.373
-1353.79
-368.457
-1325.19
-427.47
-1282.87
-491.286
-1236.98
-551.962
-1199.66
-602.63
-1180.38
-639.426
-1182.86
-661.517
-1205.22
-669.909
-1242.24
-666.194
-1287.66
-651.794
-1335.11
-627.591
-1377.73
-593.922
-1407.23
-551.988
-1415.5
-506.566
-1402.91
-455.736
-1374.26
-346.837
-1192.92
-127.547
-290.364
-31.4633
950.15
-42.3285
1514.24
-32.0799
1790.41
-7.48189
2130.43
13.9404
2471.4
30.2762
2770.44
37.9755
3023.98
40.3593
3241.96
40.1624
3432.69
39.0121
3585.82
38.285
3682.12
38.1923
3711.03
38.8864
3665.23
40.5456
3551.34
42.271
3363.27
44.4155
3119.16
44.9174
2778.64
45.7531
2446.16
43.2227
1939.19
43.3239
1778.31
38.391
951.424
39.6139
1557.66
43.9176
612.633
42.4715
894.431
3688.56
-122.685
-424.961
-122.634
-490.392
-123.185
-526.094
-123.986
-564.62
-125.141
-599.966
-126.531
-633.61
-128.176
-665.447
-130.032
-695.754
-132.097
-724.576
-134.354
-752.074
-136.8
-778.3
-139.428
-803.37
-142.239
-827.359
-145.233
-850.382
-148.413
-872.55
-151.779
-893.998
-155.333
-914.858
-159.072
-935.263
-162.992
-955.325
-167.092
-975.128
-171.379
-994.724
-175.875
-1014.15
-180.63
-1033.46
-185.713
-1052.86
-191.191
-1072.78
-197.091
-1093.92
-203.395
-1116.93
-210.048
-1142.22
-216.949
-1170.02
-223.985
-1200.27
-231.137
-1232.49
-238.772
-1265.44
-248.104
-1296.55
-261.631
-1321.54
-283.05
-1334.74
-316.221
-1330.68
-363.273
-1306.74
-422.755
-1265.71
-489.12
-1216.51
-554.272
-1171.83
-610.494
-1143.44
-652.914
-1137.96
-680.082
-1155.69
-692.911
-1192.39
-693.216
-1241.94
-682.749
-1298.13
-662.836
-1355.03
-634.253
-1406.31
-597.227
-1444.25
-552.411
-1460.32
-503.647
-1451.67
-453.05
-1424.85
-360.782
-1285.18
-141.069
-510.077
-12.394
821.475
-19.1668
1521.01
-22.1269
1793.37
-1.33515
2109.64
18.2077
2451.86
32.2295
2756.42
37.7923
3018.41
38.2569
3241.5
36.5842
3434.36
34.4647
3587.94
33.2678
3683.32
33.1582
3711.14
34.1777
3664.21
36.4108
3549.11
38.8631
3360.81
41.8033
3116.22
43.0873
2777.36
44.6519
2444.59
42.6789
1941.16
43.1599
1777.83
38.2897
956.295
39.2839
1556.66
43.2783
608.639
40.6015
897.107
3676.68
-126.355
-425.534
-126.309
-490.438
-126.862
-525.54
-127.678
-563.804
-128.856
-598.788
-130.277
-632.189
-131.959
-663.766
-133.858
-693.855
-135.971
-722.463
-138.282
-749.763
-140.786
-775.796
-143.478
-800.678
-146.359
-824.479
-149.429
-847.311
-152.693
-869.286
-156.152
-890.539
-159.807
-911.204
-163.654
-931.416
-167.69
-951.289
-171.912
-970.906
-176.326
-990.309
-180.959
-1009.51
-185.864
-1028.55
-191.123
-1047.6
-196.812
-1067.09
-202.956
-1087.77
-209.528
-1110.36
-216.453
-1135.29
-223.619
-1162.85
-230.959
-1192.93
-238.695
-1224.76
-247.798
-1256.33
-260.527
-1283.82
-280.551
-1301.52
-312.074
-1303.22
-357.901
-1284.85
-417.378
-1247.26
-485.574
-1197.51
-554.486
-1147.6
-615.806
-1110.51
-663.693
-1095.55
-695.913
-1105.74
-713.108
-1138.49
-717.239
-1188.26
-710.355
-1248.82
-694.071
-1314.41
-669.509
-1379.59
-637.314
-1438.5
-597.648
-1483.92
-550.821
-1507.15
-499.672
-1502.82
-448.276
-1476.25
-367.921
-1365.54
-157.067
-720.931
-0.745871
665.154
7.16788
1513.1
-7.4095
1807.95
6.12108
2096.11
23.6968
2434.29
35.1373
2744.98
38.1221
3015.43
36.2659
3243.35
32.7554
3437.88
29.4168
3591.28
27.5862
3685.15
27.3776
3711.35
28.7188
3662.87
31.5662
3546.26
34.8285
3357.55
38.6707
3112.38
40.8479
2775.18
43.2729
2442.17
41.9493
1942.48
42.9382
1776.85
38.1923
961.04
39.0157
1555.84
42.9748
604.68
39.4052
900.677
3664.98
-130.045
-426.099
-130.015
-490.468
-130.578
-524.977
-131.416
-562.966
-132.623
-597.581
-134.081
-630.731
-135.805
-662.042
-137.752
-691.908
-139.919
-720.296
-142.288
-747.394
-144.855
-773.229
-147.615
-797.918
-150.57
-821.524
-153.722
-844.159
-157.075
-865.933
-160.631
-886.982
-164.392
-907.443
-168.353
-927.455
-172.511
-947.132
-176.86
-966.556
-181.407
-985.762
-186.18
-1004.74
-191.241
-1023.49
-196.681
-1042.16
-202.587
-1061.19
-208.983
-1081.38
-215.824
-1103.51
-223.02
-1128.1
-230.474
-1155.4
-238.29
-1185.12
-247.208
-1215.84
-259.215
-1244.33
-277.892
-1265.14
-307.75
-1271.66
-352.27
-1258.7
-411.533
-1225.59
-481.11
-1177.69
-553.127
-1125.5
-618.939
-1081.78
-671.94
-1057.51
-709.089
-1058.4
-730.585
-1084.24
-738.4
-1130.68
-734.845
-1191.81
-721.823
-1261.84
-700.68
-1335.56
-672.314
-1407.96
-637.245
-1473.57
-595.617
-1525.55
-547.581
-1555.18
-495.198
-1555.21
-443.164
-1528.28
-371.747
-1436.96
-176.782
-915.897
1.61389
486.758
32.6767
1482.03
13.0091
1827.62
16.0558
2093.07
30.3787
2419.96
39.1612
2736.2
39.1308
3015.46
34.5111
3247.97
28.761
3443.63
23.9157
3596.13
21.2671
3687.8
20.8563
3711.76
22.5021
3661.22
25.9955
3542.77
30.1427
3353.4
34.9902
3107.53
38.169
2772
41.5867
2438.75
41.0088
1943.06
42.6372
1775.22
38.0899
965.588
38.7992
1555.13
42.9786
600.5
38.1513
905.504
3652.25
-133.761
-426.646
-133.755
-490.474
-134.337
-524.395
-135.204
-562.099
-136.446
-596.339
-137.946
-629.232
-139.718
-660.27
-141.719
-689.907
-143.944
-718.071
-146.376
-744.962
-149.011
-770.595
-151.844
-795.084
-154.878
-818.49
-158.116
-840.921
-161.563
-862.486
-165.223
-883.322
-169.095
-903.571
-173.177
-923.373
-177.462
-942.847
-181.944
-962.073
-186.63
-981.076
-191.548
-999.822
-196.768
-1018.27
-202.395
-1036.53
-208.524
-1055.06
-215.174
-1074.73
-222.281
-1096.41
-229.752
-1120.63
-237.595
-1147.56
-246.333
-1176.38
-257.651
-1204.52
-274.966
-1227.01
-303.057
-1237.05
-346.145
-1228.57
-405.122
-1199.72
-475.963
-1154.75
-550.731
-1102.92
-620.459
-1055.77
-678.037
-1024.21
-719.794
-1015.75
-745.442
-1032.75
-756.816
-1072.87
-756.391
-1131.1
-746.343
-1201.86
-728.251
-1279.94
-703.172
-1360.64
-671.804
-1439.32
-634.575
-1510.8
-591.66
-1568.46
-543.236
-1603.61
-490.919
-1607.52
-439.304
-1579.9
-375.536
-1500.72
-203.032
-1088.4
-5.64306
289.37
52.593
1423.8
37.4202
1842.79
30.0506
2100.44
38.537
2411.48
44.3928
2730.34
40.9867
3018.87
33.1315
3255.83
24.6979
3452.06
18.0174
3602.81
14.3434
3691.47
13.6078
3712.5
15.5257
3659.3
19.6886
3538.61
24.7867
3348.31
30.7381
3101.58
35.0235
2767.72
39.5649
2434.21
39.8312
1942.8
42.2356
1772.81
37.967
969.856
38.6196
1554.48
43.142
595.978
36.9761
911.67
3639.94
-137.506
-427.165
-137.535
-490.445
-138.143
-523.786
-139.046
-561.196
-140.329
-595.056
-141.877
-627.684
-143.703
-658.444
-145.763
-687.847
-148.052
-715.782
-150.552
-742.462
-153.259
-767.887
-156.171
-792.173
-159.289
-815.372
-162.618
-837.592
-166.165
-858.939
-169.933
-879.554
-173.923
-899.581
-178.131
-919.165
-182.55
-938.428
-187.173
-957.45
-192.003
-976.246
-197.071
-994.754
-202.454
-1012.89
-208.272
-1030.71
-214.628
-1048.7
-221.529
-1067.83
-228.896
-1089.04
-236.689
-1112.83
-245.227
-1139.02
-255.869
-1165.74
-271.769
-1188.62
-297.89
-1200.89
-339.265
-1195.68
-397.813
-1170.03
-470.004
-1127.53
-547.596
-1077.16
-620.993
-1029.52
-682.608
-994.152
-728.439
-978.375
-757.888
-986.303
-772.613
-1018.03
-775.133
-1070.35
-767.822
-1138.42
-752.475
-1217.2
-730.315
-1302.1
-702.147
-1388.8
-668.518
-1472.95
-629.827
-1549.49
-586.366
-1611.92
-538.508
-1651.46
-487.736
-1658.29
-438.231
-1629.4
-382.38
-1556.58
-243.377
-1227.4
-25.6829
71.6759
64.3212
1333.79
62.1969
1844.91
48.7588
2113.87
49.0062
2411.23
50.944
2728.4
43.8416
3025.97
32.2772
3267.39
20.6707
3463.67
11.7822
3611.69
6.84837
3696.4
5.64799
3713.7
7.78985
3657.16
12.6383
3533.76
18.7452
3342.2
25.8937
3094.43
31.3874
2762.23
37.1807
2428.41
38.3901
1941.59
41.7125
1769.49
37.8044
973.765
38.4697
1553.81
43.3964
591.051
36.1334
918.933
3628.18
-141.286
-427.646
-141.357
-490.375
-141.999
-523.144
-142.946
-560.249
-144.276
-593.726
-145.879
-626.081
-147.764
-656.559
-149.889
-685.723
-152.246
-713.424
-154.82
-739.889
-157.605
-765.102
-160.6
-789.178
-163.807
-812.164
-167.233
-834.166
-170.885
-855.288
-174.767
-875.672
-178.881
-895.467
-183.223
-914.824
-187.783
-933.868
-192.552
-952.681
-197.533
-971.265
-202.756
-989.531
-208.307
-1007.34
-214.319
-1024.7
-220.9
-1042.12
-228.041
-1060.69
-235.68
-1081.4
-243.982
-1104.53
-253.959
-1129.04
-268.397
-1151.3
-292.289
-1164.73
-331.484
-1161.7
-389.22
-1137.94
-462.787
-1096.46
-543.591
-1046.73
-620.94
-999.806
-686.394
-964.068
-735.72
-944.825
-768.374
-945.721
-786.029
-968.649
-791.22
-1012.84
-786.413
-1075.15
-773.555
-1151.27
-754.007
-1236.75
-728.677
-1327.43
-698.179
-1419.3
-662.988
-1508.14
-623.573
-1588.91
-580.478
-1655.02
-534.422
-1697.52
-486.942
-1705.77
-441.642
-1674.7
-394.105
-1604.11
-287.421
-1334.09
-59.8008
-155.944
67.5882
1206.4
83.5634
1828.94
71.1388
2126.3
62.7913
2419.58
59.1004
2732.09
47.8385
3037.23
32.0999
3283.13
16.7885
3478.98
5.27258
3623.21
-1.18454
3702.86
-3.00516
3715.52
-0.702238
3654.86
4.84133
3528.21
12.0086
3335.03
20.4407
3086
27.2409
2755.43
34.4105
2421.24
36.6605
1939.34
41.0481
1765.1
37.5832
977.23
38.3264
1553.07
43.789
585.589
34.8355
927.887
3614.87
-145.105
-428.081
-145.226
-490.254
-145.91
-522.459
-146.907
-559.252
-148.292
-592.341
-149.955
-624.418
-151.906
-654.609
-154.101
-683.527
-156.533
-710.992
-159.186
-737.236
-162.055
-762.233
-165.138
-786.095
-168.44
-808.862
-171.968
-830.638
-175.73
-851.525
-179.733
-871.669
-183.978
-891.222
-188.46
-910.342
-193.168
-929.16
-198.092
-947.757
-203.23
-966.127
-208.614
-984.147
-214.336
-1001.62
-220.54
-1018.5
-227.334
-1035.33
-234.706
-1053.32
-242.711
-1073.4
-252.044
-1095.2
-265.015
-1116.07
-286.434
-1129.88
-322.85
-1128.31
-379.073
-1105.47
-453.74
-1063.27
-538.164
-1012.03
-620.214
-964.68
-689.935
-930.086
-742.513
-911.489
-777.684
-909.654
-797.569
-925.836
-804.926
-961.291
-802.292
-1015.47
-791.66
-1085.78
-774.462
-1168.47
-751.67
-1259.54
-723.949
-1355.15
-691.808
-1451.44
-655.767
-1544.18
-616.518
-1628.16
-575.008
-1696.53
-532.397
-1740.13
-490.248
-1747.92
-451.277
-1713.67
-412.264
-1643.13
-325.574
-1420.78
-94.6056
-386.913
63.8086
1047.99
99.338
1793.41
94.8296
2130.81
80.3096
2434.1
69.387
2743.02
53.1516
3053.47
32.7412
3303.54
13.1638
3498.55
-1.44124
3637.82
-9.71572
3711.14
-12.3314
3718.14
-9.94726
3652.47
-3.70616
3521.97
4.57108
3326.75
14.3678
3076.21
22.5688
2747.22
31.2344
2412.58
34.6195
1935.95
40.2242
1759.5
37.2842
980.17
38.1774
1552.18
44.1951
579.571
33.8874
938.194
3603.7
-148.968
-428.462
-149.146
-490.076
-149.88
-521.725
-150.934
-558.197
-152.38
-590.896
-154.11
-622.687
-156.133
-652.586
-158.404
-681.256
-160.917
-708.479
-163.655
-734.498
-166.613
-759.274
-169.79
-782.918
-173.193
-805.46
-176.828
-827.002
-180.708
-847.646
-184.837
-867.539
-189.22
-886.84
-193.85
-905.712
-198.715
-924.294
-203.802
-942.67
-209.105
-960.824
-214.654
-978.597
-220.546
-995.726
-226.931
-1012.11
-233.919
-1028.34
-241.553
-1045.68
-250.254
-1064.7
-261.814
-1083.64
-280.61
-1097.28
-313.622
-1096.87
-367.342
-1074.59
-442.381
-1030.44
-530.548
-975.107
-618.214
-924.368
-693.239
-889.655
-749.519
-873.806
-786.842
-874.166
-808.125
-888.371
-816.831
-917.13
-815.78
-962.342
-806.994
-1024.26
-791.866
-1100.91
-771.352
-1188.99
-746.119
-1284.78
-716.686
-1384.58
-683.576
-1484.55
-647.521
-1580.24
-609.627
-1666.05
-571.373
-1734.78
-534.3
-1777.21
-499.692
-1782.53
-468.85
-1744.52
-438.477
-1673.5
-365.931
-1493.32
-131.986
-620.857
54.2248
861.778
109.404
1738.23
117.117
2123.09
100.971
2450.24
82.411
2761.58
60.0285
3075.85
34.3324
3329.24
9.91542
3522.97
-8.28046
3656.01
-18.7034
3721.56
-22.3082
3721.74
-19.9364
3650.1
-13.0078
3515.05
-3.57357
3317.32
7.66827
3064.96
17.3618
2737.53
27.6363
2402.3
32.2461
1931.34
39.2242
1752.52
36.8877
982.506
38.0089
1551.06
44.6518
572.928
32.5813
950.265
3592.53
-152.878
-428.781
-153.121
-489.833
-153.913
-520.934
-155.032
-557.078
-156.545
-589.383
-158.35
-620.882
-160.45
-650.486
-162.805
-678.901
-165.405
-705.879
-168.233
-731.67
-171.286
-756.221
-174.564
-779.64
-178.072
-801.952
-181.821
-823.252
-185.824
-843.644
-190.087
-863.275
-194.615
-882.312
-199.402
-900.926
-204.433
-919.263
-209.691
-937.412
-215.167
-955.349
-220.885
-972.879
-226.94
-989.672
-233.483
-1005.57
-240.657
-1021.17
-248.729
-1037.61
-258.977
-1054.45
-275.139
-1067.47
-304.219
-1068.2
-354.281
-1046.81
-428.475
-1000.4
-519.991
-938.919
-614.016
-881.082
-695.717
-842.667
-756.87
-828.502
-796.716
-833.96
-818.882
-852
-827.959
-879.295
-827.556
-917.533
-819.944
-969.954
-806.461
-1037.74
-787.934
-1119.44
-764.937
-1211.98
-737.933
-1311.78
-707.419
-1415.09
-674.111
-1517.86
-639.164
-1615.19
-604.28
-1700.94
-571.481
-1767.58
-542.381
-1806.31
-517.364
-1807.55
-495.671
-1766.21
-473.255
-1695.92
-411.73
-1554.85
-177.463
-855.125
38.503
645.812
114.777
1661.96
135.858
2102.01
123.406
2462.69
98.5252
2786.46
68.7908
3105.58
37.0189
3361.01
7.16276
3552.83
-15.1645
3678.34
-28.1044
3734.5
-32.9121
3726.55
-30.6587
3647.85
-23.0637
3507.45
-12.4265
3306.68
0.338318
3052.2
11.613
2726.26
23.6039
2390.31
29.5212
1925.42
38.0326
1744.01
36.3737
984.165
37.8045
1549.62
45.2028
565.53
31.4335
964.034
3581.38
-156.842
-429.031
-157.157
-489.519
-158.013
-520.077
-159.206
-555.885
-160.794
-587.795
-162.679
-618.997
-164.864
-648.301
-167.308
-676.457
-170.001
-703.186
-172.927
-728.744
-176.081
-753.067
-179.464
-776.257
-183.084
-798.332
-186.954
-819.383
-191.086
-839.512
-195.491
-858.87
-200.172
-877.631
-205.124
-895.974
-210.331
-914.056
-215.771
-931.972
-221.427
-949.693
-227.313
-966.993
-233.511
-983.474
-240.185
-998.895
-247.612
-1013.74
-256.671
-1028.55
-270.323
-1040.8
-295.161
-1042.64
-340.403
-1022.95
-412.12
-975.089
-505.949
-906.569
-606.627
-838.241
-696.371
-791.338
-764.024
-775.014
-807.549
-784.976
-830.867
-810.642
-839.677
-843.19
-838.814
-880.157
-831.323
-925.024
-818.728
-982.549
-801.715
-1054.75
-780.647
-1140.51
-755.825
-1236.81
-727.639
-1339.97
-696.742
-1445.99
-664.268
-1550.34
-632.023
-1647.43
-602.394
-1730.56
-577.712
-1792.26
-559.021
-1825
-544.958
-1821.61
-532.182
-1778.99
-515.825
-1712.27
-463.164
-1607.51
-236.657
-1081.63
14.0358
395.119
116.332
1559.66
150.006
2068.34
145.968
2466.73
117.53
2814.89
79.7971
3143.32
41.0149
3399.79
5.03113
3588.81
-22.0122
3705.38
-37.8743
3750.36
-44.1187
3732.79
-42.1009
3645.83
-33.8695
3499.22
-21.9849
3294.8
-7.6289
3037.84
5.31606
2713.31
19.1291
2376.5
26.4271
1918.13
36.6358
1733.8
35.7209
985.08
37.5592
1547.79
45.7926
557.297
30.8535
978.973
3571.73
-160.864
-429.205
-161.257
-489.125
-162.187
-519.147
-163.459
-554.613
-165.13
-586.124
-167.103
-617.023
-169.38
-646.024
-171.92
-673.917
-174.713
-700.393
-177.742
-725.715
-181.004
-749.806
-184.499
-772.762
-188.238
-794.593
-192.234
-815.387
-196.503
-835.243
-201.057
-854.317
-205.9
-872.788
-211.027
-890.847
-216.42
-908.662
-222.052
-926.34
-227.894
-943.851
-233.937
-960.949
-240.247
-977.164
-247.053
-992.09
-255.038
-1005.75
-266.422
-1017.17
-286.966
-1020.25
-326.423
-1003.18
-393.762
-955.614
-488.191
-880.66
-595.175
-799.585
-694.065
-739.352
-769.979
-715.423
-818.835
-726.159
-844.385
-759.426
-853.146
-801.881
-851.123
-845.213
-842.538
-888.743
-829.651
-937.911
-813.294
-998.906
-793.624
-1074.42
-770.658
-1163.47
-744.553
-1262.91
-715.801
-1368.72
-685.445
-1476.35
-655.301
-1580.48
-627.987
-1674.75
-606.438
-1752.11
-592.696
-1806
-586.282
-1831.41
-583.264
-1824.63
-577.656
-1784.59
-564.308
-1725.62
-518.972
-1652.85
-319.8
-1280.8
-27.4636
102.783
114.326
1417.87
159.646
2023.02
167.127
2459.25
138.656
2843.37
93.3928
3188.58
46.6554
3446.53
3.66584
3631.8
-28.7451
3737.79
-47.9681
3769.58
-55.9036
3740.73
-54.2484
3644.17
-45.4172
3490.39
-32.2434
3281.62
-16.2402
3021.84
-1.5337
2698.6
14.2093
2360.76
22.9525
1909.38
35.0232
1721.73
34.9087
985.194
37.2576
1545.44
46.4487
548.105
29.6116
995.81
3561.27
-164.949
-429.295
-165.428
-488.646
-166.439