/*--------------------------------*- C++ -*----------------------------------*\
| =========                 |                                                 |
| \\      /  F ield         | OpenFOAM: The Open Source CFD Toolbox           |
|  \\    /   O peration     | Version:  4.1                                   |
|   \\  /    A nd           | Web:      www.OpenFOAM.org                      |
|    \\/     M anipulation  |                                                 |
\*---------------------------------------------------------------------------*/
FoamFile
{
    version     2.0;
    format      ascii;
    class       volVectorField;
    location    "17";
    object      U;
}
// * * * * * * * * * * * * * * * * * * * * * * * * * * * * * * * * * * * * * //

dimensions      [0 1 -1 0 0 0 0];

internalField   nonuniform List<vector> 
6785
(
(1.31364e-14 -2.33538 16.5622)
(1.11609e-14 -7.90847 13.0206)
(-2.78476e-15 -5.11173 13.8197)
(4.48346e-15 -5.03802 13.3326)
(8.31346e-16 -4.23564 13.1974)
(-1.84969e-16 -3.79354 12.909)
(2.50946e-15 -3.34753 12.6116)
(6.17926e-16 -3.01442 12.2607)
(-6.49849e-16 -2.76863 11.8888)
(1.48382e-15 -2.65037 11.5141)
(-2.70155e-17 -2.63447 11.2006)
(-4.4002e-16 -2.72705 10.9871)
(4.67695e-16 -3.27555 10.5516)
(-1.41464e-16 -3.45691 9.59713)
(-1.29335e-17 -0.138231 7.55047)
(1.79544e-14 -10.3236 27.109)
(1.33609e-14 -16.4007 23.2967)
(-2.49445e-15 -11.2534 23.6737)
(4.64342e-15 -12.1294 21.8168)
(8.54883e-16 -10.4235 20.9631)
(9.73479e-16 -9.86029 19.721)
(1.85499e-15 -8.92965 18.6298)
(2.65632e-16 -8.21407 17.4851)
(1.91179e-16 -7.48367 16.3656)
(9.39251e-16 -6.82045 15.239)
(1.76835e-17 -6.14255 14.0319)
(-2.69827e-16 -5.20958 12.319)
(-6.19211e-16 -3.55947 9.04135)
(-8.09253e-16 -0.79156 3.36917)
(-6.52733e-16 1.40603 -2.24217)
(1.97095e-14 -12.6851 28.2246)
(1.27219e-14 -16.958 24.6772)
(-1.826e-15 -11.8702 24.6957)
(5.29002e-15 -13.2879 21.968)
(1.05518e-15 -11.019 20.9807)
(1.66973e-15 -10.7719 19.0972)
(2.30216e-15 -9.66062 17.7184)
(2.83644e-16 -9.07402 16.2299)
(4.50107e-16 -8.39341 14.9512)
(1.71481e-15 -7.82387 13.6686)
(4.71811e-16 -7.16767 12.243)
(1.75083e-16 -6.18825 10.3454)
(5.16781e-16 -4.57292 7.08806)
(-2.75533e-16 -1.02074 1.88338)
(-2.22104e-15 1.22209 -5.19778)
(2.07599e-14 -13.1848 27.3446)
(1.23142e-14 -16.5054 24.2009)
(-1.34959e-15 -11.8807 23.8826)
(4.94548e-15 -13.4778 20.753)
(6.68539e-16 -10.81 19.8526)
(2.2272e-15 -10.8267 17.5848)
(1.78149e-15 -9.40347 16.1924)
(-4.13181e-16 -8.84884 14.5403)
(5.79569e-16 -8.09932 13.2316)
(2.60728e-16 -7.6615 11.9144)
(-1.53473e-15 -7.24637 10.5974)
(-4.93164e-16 -6.68804 9.20909)
(-6.9098e-16 -5.88242 7.4355)
(-3.6626e-15 -3.98577 4.96835)
(-3.54087e-15 -2.13336 1.69975)
(2.08928e-14 -13.7343 27.2825)
(9.74171e-15 -15.8802 24.5306)
(-8.95817e-16 -12.1106 23.9038)
(3.36226e-15 -12.9598 21.0983)
(1.19803e-16 -10.484 20.1544)
(1.45694e-15 -10.2642 18.1176)
(-9.40763e-17 -8.64955 16.7455)
(-8.05338e-16 -7.45918 14.4357)
(4.90389e-16 -5.57007 11.5666)
(1.36234e-15 -4.16339 8.73373)
(2.56901e-15 -3.68706 7.37175)
(2.86188e-15 -4.2808 7.60559)
(1.00857e-16 -5.25893 8.5579)
(-3.93888e-15 -5.8953 8.98392)
(-2.49589e-15 -4.79121 8.40601)
(2.10446e-14 -14.8512 28.7972)
(7.35598e-15 -16.2378 25.9355)
(-5.8669e-16 -12.9911 25.3184)
(2.32049e-15 -13.4584 22.9483)
(-9.55897e-17 -11.2641 22.0577)
(5.88668e-16 -11.0185 20.3661)
(-7.79709e-16 -9.44183 19.1353)
(-9.22467e-16 -8.02605 16.5411)
(5.19373e-16 -5.31508 12.7115)
(2.85001e-15 -2.57567 8.24795)
(2.8248e-15 -0.257429 4.63772)
(6.5364e-17 0.961818 2.31189)
(-2.89392e-15 0.532624 2.23594)
(-4.96102e-15 -1.55715 4.52775)
(-3.66495e-15 -2.7459 6.43753)
(1.96538e-14 -15.3154 29.1174)
(7.71707e-15 -17.7655 28.2204)
(-1.80584e-15 -14.0533 26.6276)
(2.05769e-15 -14.7122 24.2558)
(-7.23589e-16 -12.6144 23.3813)
(-1.43086e-15 -12.6638 21.6274)
(-6.70872e-16 -11.314 20.5407)
(-1.32583e-15 -10.5002 18.4059)
(-2.46672e-15 -8.4177 15.4068)
(1.32784e-15 -5.97322 11.3464)
(-7.46129e-17 -3.16383 7.16694)
(-3.36808e-15 -0.451378 2.80306)
(2.50768e-15 2.3185 -1.45435)
(-7.05515e-16 3.78778 -3.96007)
(-8.08116e-15 2.15251 -3.52864)
(1.9245e-14 -14.3783 26.4803)
(1.10453e-14 -18.5092 29.4324)
(-6.13952e-17 -14.809 26.6408)
(1.25915e-15 -14.876 23.8013)
(-1.66235e-17 -13.1955 22.5706)
(-3.1119e-16 -12.9985 20.7133)
(-2.30967e-17 -12.0012 19.3413)
(-4.1736e-16 -11.3706 17.5555)
(-7.28521e-16 -10.2699 15.5256)
(1.74749e-16 -8.88054 13.0292)
(2.48686e-16 -7.13806 10.2123)
(-1.61244e-16 -5.02488 7.11728)
(9.19718e-16 -2.76456 3.6426)
(2.38241e-15 0.613722 -0.0285636)
(-8.62743e-16 1.91002 -5.64741)
(1.84645e-14 -12.9055 23.1497)
(1.41993e-14 -18.0285 29.1599)
(2.06797e-15 -14.7748 25.9613)
(1.09037e-15 -14.0791 22.6301)
(9.0082e-16 -12.5675 21.0942)
(9.44391e-16 -12.0727 19.2091)
(9.7807e-16 -11.1081 17.6698)
(8.47849e-16 -10.3585 15.9587)
(5.5358e-16 -9.48236 14.249)
(8.4821e-16 -8.50236 12.4452)
(1.27436e-15 -7.40158 10.4806)
(9.87091e-16 -5.98839 8.3392)
(1.04289e-15 -4.44797 5.75381)
(2.82435e-15 -1.84583 2.53979)
(-2.05165e-15 0.43426 -3.00585)
(1.8191e-14 -11.8268 21.01)
(1.60528e-14 -17.2762 28.519)
(3.66515e-15 -14.526 25.4036)
(1.01961e-15 -13.363 21.8609)
(1.2798e-15 -11.8962 20.153)
(1.68084e-15 -11.2708 18.3157)
(1.57742e-15 -10.2986 16.7876)
(1.62981e-15 -9.50203 15.1668)
(1.49608e-15 -8.65702 13.6279)
(1.21278e-15 -7.80586 12.1278)
(1.6143e-15 -6.95569 10.5902)
(1.17213e-15 -5.91402 8.97259)
(9.07204e-17 -4.80369 7.01082)
(2.96006e-15 -2.91891 4.48147)
(-1.03499e-15 -0.486258 -0.614681)
(1.73094e-14 -11.2948 20.0596)
(1.74701e-14 -16.646 27.8756)
(4.1341e-15 -14.3323 25.0006)
(4.17097e-16 -12.9564 21.429)
(1.84257e-15 -11.5531 19.5772)
(7.94332e-16 -10.911 17.8456)
(6.22538e-16 -10.044 16.4187)
(1.66533e-15 -9.32042 14.9531)
(-4.77689e-17 -8.5705 13.5567)
(-1.08818e-15 -7.82647 12.1883)
(1.00667e-16 -7.10782 10.8112)
(-1.35981e-15 -6.29583 9.48107)
(-1.84377e-15 -5.50618 8.08403)
(-2.04464e-15 -4.18616 6.50808)
(-6.03758e-15 -1.78731 2.014)
(1.7134e-14 -11.053 19.6216)
(1.8786e-14 -15.8513 26.8697)
(2.49049e-15 -13.9358 24.1429)
(-3.93576e-16 -12.4658 20.5296)
(3.02882e-15 -11.0823 18.5545)
(-2.00766e-15 -10.4646 16.8904)
(-2.06943e-15 -9.71283 15.5314)
(2.3342e-15 -9.09154 14.1114)
(-6.8959e-16 -8.43197 12.7007)
(-3.79615e-15 -7.80338 11.3362)
(-2.0769e-15 -7.27493 10.2153)
(-3.32438e-15 -6.88978 9.59504)
(-3.40858e-15 -6.63628 9.38553)
(-5.14816e-15 -5.9195 9.0208)
(-9.32372e-15 -3.71615 5.4445)
(1.58809e-14 -11.7939 20.8455)
(1.5661e-14 -14.7011 25.2878)
(-6.76314e-16 -12.7733 22.5854)
(-9.03955e-16 -11.7041 19.8413)
(2.85922e-15 -10.438 18.0217)
(-3.6708e-15 -9.74163 16.0957)
(-1.66657e-15 -8.84889 14.4511)
(6.39354e-15 -8.20492 12.7642)
(-8.42084e-16 -7.58862 11.2844)
(-3.40666e-15 -7.25955 10.2564)
(-1.5133e-15 -7.30988 10.1436)
(-4.98561e-15 -7.83438 11.07)
(-5.40374e-15 -8.37611 12.5988)
(-6.7027e-15 -8.41588 13.2766)
(-1.22877e-14 -6.21768 10.5602)
(1.3207e-14 -12.2666 20.8473)
(1.38431e-14 -16.1103 26.6955)
(-4.09583e-15 -13.1049 22.4617)
(-3.71536e-15 -10.6606 18.3421)
(-1.25643e-15 -8.55781 15.8541)
(-3.52066e-16 -6.94825 13.4754)
(5.88014e-15 -5.30243 11.393)
(6.52166e-15 -3.98915 9.39969)
(2.33485e-15 -3.02814 8.04891)
(1.73547e-16 -2.91458 7.85981)
(-2.3209e-15 -3.84589 9.28455)
(-4.67859e-15 -5.69139 11.9925)
(-6.23654e-15 -7.66208 14.8445)
(-9.2311e-15 -8.65567 15.7781)
(-1.00403e-14 -5.9394 11.2028)
(7.37677e-15 -9.05026 15.2345)
(1.29576e-14 -17.2553 26.012)
(7.35526e-15 -19.4431 27.7689)
(3.42954e-15 -19.3412 26.5777)
(1.60329e-15 -18.1745 24.743)
(1.45559e-15 -16.6097 22.1671)
(3.09305e-15 -14.3803 19.106)
(3.8173e-15 -11.9221 15.9988)
(3.94726e-15 -9.40179 12.8811)
(3.08998e-15 -6.91073 9.8678)
(6.32896e-16 -4.74789 7.38516)
(-1.09566e-15 -3.63201 6.26838)
(-3.7226e-15 -4.18399 7.39258)
(-7.20887e-15 -4.92263 8.4148)
(-5.20182e-15 -2.20307 3.75598)
(-1.06497e-15 16.7121 2.34439)
(-1.20842e-15 4.82893 -0.772566)
(-8.40494e-16 -0.515839 -1.57533)
(-8.67681e-16 0.646673 -1.82658)
(-1.20167e-15 0.575246 -1.91906)
(-1.62175e-15 0.681056 -2.42106)
(-1.61788e-15 0.725576 -1.70896)
(-1.94642e-15 0.934655 -1.7114)
(-2.58696e-15 0.995988 -1.69389)
(-2.14416e-15 1.27712 -2.04758)
(-2.07373e-15 1.14714 -1.45553)
(-2.54463e-15 1.309 -1.42399)
(-3.58513e-15 1.62704 -1.74569)
(-3.14172e-15 1.3753 -1.26765)
(-3.40445e-15 1.57862 -1.28599)
(-3.6215e-15 1.59171 -1.29792)
(-4.84627e-15 1.93097 -1.57263)
(-3.90126e-15 1.65205 -1.14923)
(-3.96202e-15 1.80178 -1.13348)
(-5.31543e-15 2.17803 -1.33604)
(-4.41165e-15 1.76256 -0.989642)
(-4.69792e-15 1.98851 -1.00692)
(-4.7508e-15 1.95367 -1.02353)
(-6.51994e-15 2.35654 -1.17459)
(-5.53868e-15 1.87887 -0.902416)
(-5.8317e-15 2.10465 -0.912092)
(-6.0625e-15 2.06711 -0.907968)
(-8.31433e-15 2.40198 -0.995666)
(-7.13167e-15 1.92983 -0.760113)
(-6.88143e-15 2.05963 -0.714302)
(-9.45299e-15 2.40572 -0.685504)
(-7.47546e-15 1.8323 -0.500864)
(-7.24228e-15 2.03122 -0.444634)
(-6.66183e-15 1.9662 -0.384778)
(-8.84711e-15 2.23582 -0.226882)
(-6.03444e-15 1.7786 -0.107693)
(-5.03154e-15 1.85303 -0.0602017)
(-6.35296e-15 2.13198 0.215718)
(-3.56601e-15 1.61561 0.206683)
(-2.92519e-15 1.75277 0.248931)
(-2.05491e-15 1.64862 0.260997)
(-2.13267e-15 1.89002 0.586908)
(-6.81739e-16 1.44428 0.462638)
(-2.34072e-16 1.54659 0.482664)
(1.45529e-16 1.4388 0.474491)
(9.75484e-16 1.63587 0.771515)
(9.07106e-16 1.37415 0.655045)
(1.13368e-15 1.37494 0.607646)
(1.92921e-15 1.54631 0.945912)
(1.9098e-15 1.25744 0.710739)
(2.10453e-15 1.30829 0.668737)
(2.18482e-15 1.21905 0.590782)
(3.11025e-15 1.27238 0.889519)
(2.56659e-15 0.990046 0.54753)
(2.517e-15 1.0153 0.489418)
(2.61327e-15 0.975718 0.455054)
(3.66055e-15 0.884884 0.481485)
(3.32381e-15 0.573843 -0.0198011)
(2.69869e-15 0.607192 0.0155525)
(4.85108e-15 0.608893 -1.06163)
(4.72305e-15 -0.0122103 -1.59216)
(4.93986e-15 0.106527 -1.74408)
(5.3574e-15 0.323479 -1.86347)
(4.20437e-15 0.57189 -2.90258)
(-6.43461e-15 -0.693103 -0.0612145)
(-5.34369e-15 -0.177635 -0.438506)
(-8.66133e-15 -0.912677 1.57665)
(-7.69262e-15 -1.59543 2.89766)
(-7.65745e-15 -1.72474 2.80286)
(-7.86125e-15 -1.69555 3.06425)
(-1.07949e-14 -3.00252 5.94077)
(-8.2664e-15 -3.46596 5.61258)
(-8.36662e-15 -3.95013 5.79763)
(-8.17121e-15 -3.89821 6.09755)
(-9.99548e-15 -6.05206 9.91742)
(-6.57121e-15 -6.26013 8.17271)
(-6.276e-15 -6.38808 8.70958)
(-6.3807e-15 -9.02252 12.8364)
(-3.63055e-15 -8.83391 9.7722)
(-2.87546e-15 -9.35871 10.1845)
(-2.89762e-15 -9.92972 11.7557)
(-1.92366e-15 -9.8998 11.6887)
(-1.46662e-15 -9.99308 12.1103)
(7.6704e-16 -11.968 15.0476)
(4.16858e-16 -10.8393 13.046)
(7.83966e-16 -11.1485 13.6738)
(9.72427e-16 -11.0821 13.7514)
(1.21508e-15 -11.1886 13.8424)
(1.35935e-15 -11.208 13.9697)
(1.4469e-15 -11.2861 14.1599)
(1.6218e-15 -11.3886 14.3613)
(1.89873e-15 -11.3778 14.5342)
(3.03828e-15 -12.7025 16.6357)
(2.37847e-15 -11.9794 15.0212)
(2.48933e-15 -12.1788 15.2353)
(2.55073e-15 -12.1577 15.3943)
(2.93319e-15 -12.294 15.5855)
(3.00116e-15 -12.3208 15.5738)
(3.09521e-15 -12.4448 15.708)
(3.14584e-15 -12.5601 15.8161)
(3.15506e-15 -12.5793 16.0023)
(3.94632e-15 -13.5992 18.2049)
(3.75668e-15 -12.9421 16.8839)
(3.83638e-15 -13.106 17.1474)
(3.8117e-15 -13.1469 17.2824)
(3.76946e-15 -13.252 17.5225)
(3.80824e-15 -13.3087 17.8888)
(3.96076e-15 -13.4473 18.2775)
(3.9693e-15 -13.4715 18.3308)
(3.97705e-15 -13.605 18.397)
(3.94884e-15 -13.6368 18.3865)
(3.84398e-15 -13.8209 19.1816)
(3.65591e-15 -13.4305 18.5642)
(3.70567e-15 -13.5175 18.5758)
(3.73383e-15 -13.5448 18.5695)
(3.8125e-15 -13.6319 18.6352)
(3.92355e-15 -13.6367 18.7678)
(4.05488e-15 -13.7423 19.1711)
(4.26064e-15 -13.744 19.2798)
(4.46706e-15 -13.8369 19.2585)
(4.72761e-15 -12.9046 18.5349)
(4.61832e-15 -12.9419 18.9959)
(4.83177e-15 -12.8911 19.4476)
(4.87081e-15 -12.9516 19.8563)
(5.00786e-15 -12.8889 19.9048)
(5.13022e-15 -12.9368 19.9931)
(5.25722e-15 -12.9409 19.9494)
(5.36243e-15 -12.8589 19.8371)
(5.2676e-15 -13.0737 19.8951)
(5.5905e-15 -10.6003 16.4076)
(5.38889e-15 -11.4422 18.0743)
(5.50759e-15 -11.2928 17.5899)
(5.72075e-15 -11.2994 17.429)
(5.97035e-15 -11.2414 17.4332)
(6.11774e-15 -11.1879 17.2547)
(6.35782e-15 -11.079 17.0878)
(6.65994e-15 -10.9735 16.98)
(6.98016e-15 -11.0626 16.7922)
(8.03762e-15 -8.1128 13.3772)
(8.09304e-15 -9.15116 16.5048)
(8.34308e-15 -8.82472 16.2954)
(8.48939e-15 -8.85898 16.2057)
(8.52356e-15 -8.69486 15.7962)
(8.44218e-15 -8.64669 15.1992)
(8.55711e-15 -8.48975 14.4834)
(7.72107e-15 -8.34041 13.4889)
(6.97217e-15 -8.07331 12.1931)
(6.09026e-15 -7.95208 10.7151)
(3.83666e-15 -4.4581 3.69237)
(5.04328e-15 -6.09861 7.67889)
(4.17341e-15 -5.58676 5.8235)
(3.48494e-15 -5.66931 5.09317)
(2.66011e-15 -5.29903 3.9889)
(1.89259e-15 -5.18539 3.04068)
(9.71992e-16 -4.95423 1.67445)
(3.25209e-16 -4.57859 0.639936)
(4.94519e-16 -4.59369 1.03239)
(-8.15752e-16 -3.41807 -1.80507)
(2.80608e-16 -3.77911 0.822453)
(9.71371e-17 -3.68427 0.486839)
(-1.16147e-15 -2.37595 -2.30276)
(-9.66724e-16 -4.37862 -1.52927)
(-1.13527e-15 -3.0535 -1.35247)
(-9.18388e-16 -2.86874 -0.913322)
(-1.23921e-15 -3.53129 -1.29657)
(-8.90795e-16 -2.43712 -0.783521)
(-1.25619e-15 -3.07208 -1.17696)
(-9.31591e-16 -2.78402 -0.878132)
(-7.47348e-16 -2.26964 -0.636981)
(-1.08338e-15 -2.69704 -0.950802)
(-9.4552e-16 -2.49371 -0.731847)
(-7.96884e-16 -2.09182 -0.53299)
(-1.09161e-15 -2.77203 -0.760772)
(-8.11293e-16 -1.86083 -0.485104)
(-1.15346e-15 -2.42292 -0.735127)
(-9.87957e-16 -2.14776 -0.585681)
(-8.61529e-16 -1.83859 -0.434931)
(-1.1239e-15 -2.4554 -0.621399)
(-7.32841e-16 -1.63207 -0.403532)
(-1.12601e-15 -2.15688 -0.603572)
(-9.63404e-16 -1.99543 -0.498664)
(-8.07063e-16 -1.60686 -0.372879)
(-1.13021e-15 -1.96497 -0.559201)
(-9.06633e-16 -1.84437 -0.459778)
(-6.17219e-16 -1.53547 -0.340851)
(-8.04445e-16 -2.09857 -0.484915)
(-5.73097e-16 -1.37954 -0.319271)
(-9.12307e-16 -1.84499 -0.47619)
(-7.32097e-16 -1.641 -0.39658)
(-6.23391e-16 -1.39373 -0.295523)
(-8.48294e-16 -1.90882 -0.419821)
(-6.37025e-16 -1.23912 -0.276703)
(-9.292e-16 -1.6788 -0.408807)
(-7.7864e-16 -1.54677 -0.350282)
(-5.46165e-16 -1.23019 -0.261479)
(-8.30741e-16 -1.53135 -0.392236)
(-7.13451e-16 -1.42555 -0.331998)
(-4.66525e-16 -1.17332 -0.245553)
(-6.81732e-16 -1.64073 -0.349704)
(-5.145e-16 -1.04396 -0.233783)
(-7.65953e-16 -1.43431 -0.350006)
(-6.57659e-16 -1.25042 -0.304139)
(-6.77445e-16 -1.04774 -0.228444)
(-8.64046e-16 -1.47179 -0.326625)
(-5.10594e-16 -0.912154 -0.221851)
(-8.12619e-16 -1.27888 -0.331142)
(-6.68268e-16 -1.14886 -0.298204)
(-3.66956e-16 -0.886816 -0.227441)
(-6.05587e-16 -1.13439 -0.343001)
(-5.67524e-16 -1.02641 -0.302428)
(-5.08946e-16 -0.815362 -0.22827)
(-7.10365e-16 -1.19439 -0.320527)
(-6.73614e-16 -0.689957 -0.222577)
(-6.93438e-16 -1.01529 -0.331541)
(-3.52976e-16 -0.833632 -0.299087)
(-1.91276e-16 -0.664298 -0.229613)
(-2.15656e-16 -1.00709 -0.320235)
(8.78418e-17 -0.526683 -0.227247)
(1.17115e-16 -0.839481 -0.337964)
(1.39286e-16 -0.693704 -0.316714)
(1.61884e-16 -0.465232 -0.248078)
(3.30491e-16 -0.686404 -0.367619)
(5.47879e-16 -0.550672 -0.334317)
(-4.12268e-17 -0.362047 -0.254439)
(1.21247e-17 -0.70858 -0.34435)
(-2.66821e-16 -0.208616 -0.247084)
(-2.0619e-16 -0.562008 -0.367283)
(-1.37762e-16 -0.311758 -0.344797)
(2.32461e-16 -0.142929 -0.257317)
(3.67409e-16 -0.618275 -0.347954)
(4.2167e-16 0.126555 -0.242)
(1.12912e-15 -0.501431 -0.398365)
(2.2172e-15 -0.533338 -0.437538)
(9.53755e-16 0.46323 -0.188379)
(1.79386e-15 -0.199645 -0.418926)
(9.00498e-16 -0.628653 -0.798868)
(3.45879e-16 0.532958 -0.634843)
(3.46127e-16 -0.23177 -0.86889)
(1.81737e-16 0.446117 -0.634155)
(1.46859e-16 0.353825 -0.716332)
(1.03579e-34 0.562689 0.661466)
(-2.50752e-34 0.654215 0.660044)
(-1.00126e-33 0.706952 0.665018)
(1.56057e-34 0.760268 0.669446)
(1.18112e-32 0.810325 0.676634)
(3.81779e-32 0.857109 0.684583)
(-9.10111e-33 0.901683 0.694159)
(-5.46537e-31 0.943871 0.704786)
(-2.28758e-30 0.98407 0.716652)
(-3.50673e-30 1.02236 0.729567)
(1.09433e-29 1.05891 0.743544)
(8.64645e-29 1.09387 0.758509)
(2.57044e-28 1.12736 0.774441)
(2.09196e-28 1.15955 0.791311)
(-1.69899e-27 1.19061 0.809107)
(-9.35001e-27 1.22072 0.827823)
(-2.37819e-26 1.25004 0.847458)
(-1.42288e-26 1.27874 0.868013)
(1.58248e-25 1.30697 0.889488)
(8.15329e-25 1.33485 0.911883)
(2.1359e-24 1.3625 0.9352)
(2.12489e-24 1.39006 0.959461)
(-9.52516e-24 1.41776 0.984726)
(-6.12483e-23 1.446 1.01111)
(-1.90263e-22 1.47538 1.0388)
(-3.15736e-22 1.50662 1.068)
(2.40776e-22 1.54037 1.09888)
(3.77192e-21 1.57695 1.13155)
(1.46175e-20 1.61639 1.16599)
(3.30777e-20 1.65837 1.20208)
(2.74725e-20 1.70224 1.23953)
(-1.34831e-19 1.74704 1.2779)
(-7.74564e-19 1.79156 1.31664)
(-2.3147e-18 1.83446 1.35509)
(-4.46313e-18 1.87444 1.39277)
(-3.62756e-18 1.91027 1.42993)
(1.26063e-17 1.94088 1.46868)
(7.40491e-17 1.96518 1.5145)
(2.36743e-16 1.9817 1.57764)
(5.85274e-16 1.9885 1.67284)
(1.22015e-15 1.98358 1.8157)
(2.22748e-15 1.96619 2.01572)
(3.64137e-15 1.93809 2.26864)
(5.41936e-15 1.90356 2.55369)
(7.44569e-15 1.86768 2.83863)
(9.55843e-15 1.83383 3.08971)
(1.15834e-14 1.80119 3.27988)
(1.33589e-14 1.76341 3.39118)
(1.47537e-14 1.71309 3.41536)
(1.5696e-14 1.65515 3.36319)
(1.61709e-14 1.58682 3.2594)
(1.5991e-14 1.32935 3.00309)
(1.46047e-14 0.417931 2.17472)
(1.26754e-14 -0.822224 1.15393)
(1.12863e-14 -1.58772 0.900056)
(9.6104e-15 -2.0862 0.68538)
(7.81018e-15 -2.56528 0.467378)
(5.95248e-15 -3.04187 0.253674)
(4.04039e-15 -3.47699 0.0471988)
(2.2284e-15 -3.83214 -0.130425)
(8.10356e-16 -4.10401 -0.250033)
(1.51755e-16 -4.35174 -0.308621)
(-3.14322e-18 -4.58266 -0.342111)
(-8.0671e-18 -4.77627 -0.35016)
(-1.51099e-18 -4.90395 -0.354177)
(1.11405e-21 -4.94453 -0.348834)
(4.60107e-20 -4.88758 -0.347524)
(6.50926e-21 -4.74202 -0.340755)
(-5.06322e-22 -4.49182 -0.344564)
(-2.51437e-22 -4.17021 -0.334711)
(-7.51536e-23 -3.70512 -0.34246)
(1.07883e-22 -3.26693 -0.311963)
(-4.43831e-22 -2.56836 -0.328996)
(2.42944e-21 -2.38003 -0.257307)
(-2.18522e-20 -1.24756 -0.325657)
(3.19432e-19 -2.10551 -0.199028)
(-4.82047e-18 -0.888887 -0.357174)
(3.36442e-17 -1.22757 -0.329503)
(-1.39414e-17 -5.12894 -0.408593)
(2.06076e-34 0.563122 0.701217)
(9.71305e-34 0.653784 0.697722)
(4.15693e-33 0.705545 0.702543)
(1.30738e-32 0.758488 0.706451)
(1.78229e-32 0.807967 0.713576)
(-7.77561e-32 0.854359 0.721455)
(-6.26177e-31 0.898497 0.731119)
(-2.156e-30 0.940314 0.741883)
(-3.04411e-30 0.980143 0.753961)
(1.00095e-29 1.01809 0.767142)
(7.88843e-29 1.05431 0.781442)
(2.48386e-28 1.08895 0.796784)
(2.86526e-28 1.12214 0.813153)
(-1.25108e-27 1.15403 0.830525)
(-8.31177e-27 1.18479 0.848893)
(-2.41436e-26 1.2146 0.868258)
(-2.63121e-26 1.24362 0.888618)
(1.10035e-25 1.27202 0.909975)
(7.20991e-25 1.29996 0.932324)
(2.16616e-24 1.32754 0.955661)
(3.10342e-24 1.35489 0.979991)
(-5.46072e-24 1.38213 1.00535)
(-5.18312e-23 1.40949 1.03184)
(-1.84554e-22 1.43733 1.05963)
(-3.75209e-22 1.46624 1.08898)
(-7.52234e-23 1.49696 1.12011)
(2.90898e-21 1.53015 1.1532)
(1.35934e-20 1.56615 1.18824)
(3.57814e-20 1.60504 1.22515)
(4.64003e-20 1.64656 1.26368)
(-7.89977e-20 1.69008 1.3034)
(-6.86641e-19 1.73469 1.34374)
(-2.33958e-18 1.77922 1.38397)
(-5.09275e-18 1.82232 1.42346)
(-5.8173e-18 1.86247 1.46221)
(8.00639e-18 1.89799 1.50218)
(6.85954e-17 1.92685 1.54919)
(2.39393e-16 1.94653 1.6149)
(6.19589e-16 1.95405 1.71697)
(1.33013e-15 1.94677 1.87534)
(2.47542e-15 1.92394 2.10352)
(4.0923e-15 1.88855 2.39824)
(6.11569e-15 1.84756 2.73442)
(8.38553e-15 1.80964 3.07135)
(1.06908e-14 1.78141 3.36693)
(1.28218e-14 1.76478 3.59037)
(1.46043e-14 1.75593 3.72611)
(1.59107e-14 1.74545 3.76944)
(1.66568e-14 1.72163 3.72106)
(1.67952e-14 1.68395 3.59445)
(1.63078e-14 1.64558 3.42749)
(1.51875e-14 1.49781 3.17874)
(1.35545e-14 0.737634 2.39819)
(1.22753e-14 -0.727861 0.966818)
(1.11608e-14 -1.57661 0.835515)
(9.55835e-15 -2.06701 0.666695)
(7.77484e-15 -2.54719 0.448846)
(5.93637e-15 -3.0231 0.243588)
(4.03763e-15 -3.46079 0.0426551)
(2.2336e-15 -3.82421 -0.130589)
(8.16805e-16 -4.10782 -0.246206)
(1.54179e-16 -4.36186 -0.301996)
(-3.1756e-18 -4.59463 -0.333799)
(-8.31888e-18 -4.78703 -0.340582)
(-1.56908e-18 -4.91153 -0.344359)
(1.80872e-21 -4.94847 -0.339474)
(4.84185e-20 -4.88755 -0.338957)
(6.88988e-21 -4.73787 -0.333653)
(-5.2783e-22 -4.48494 -0.338803)
(-2.68127e-22 -4.16011 -0.330651)
(-7.66321e-23 -3.69498 -0.339713)
(1.07872e-22 -3.25302 -0.310858)
(-4.44743e-22 -2.55559 -0.328206)
(2.4666e-21 -2.35819 -0.258739)
(-2.29201e-20 -1.21973 -0.322662)
(3.31475e-19 -2.07251 -0.199429)
(-4.96956e-18 -0.827037 -0.351087)
(3.30113e-17 -1.1696 -0.314115)
(-1.40823e-17 -5.05697 -0.405026)
(8.74182e-34 0.563519 0.722593)
(6.36831e-33 0.653758 0.718281)
(1.96615e-32 0.704949 0.722991)
(3.08114e-32 0.757708 0.726652)
(-5.49471e-32 0.806885 0.733752)
(-5.73355e-31 0.853086 0.741614)
(-2.07677e-30 0.897009 0.75134)
(-3.57749e-30 0.938646 0.762197)
(5.04848e-30 0.978295 0.774411)
(5.86492e-29 1.01608 0.787759)
(2.08762e-28 1.05214 0.802258)
(3.36438e-28 1.08662 0.817833)
(-5.69964e-28 1.11966 0.83447)
(-5.72543e-27 1.1514 0.852149)
(-1.94773e-26 1.18201 0.870867)
(-3.10925e-26 1.21166 0.890624)
(4.41215e-26 1.24053 0.911421)
(4.74434e-25 1.26878 0.933256)
(1.68007e-24 1.29656 0.956123)
(3.17822e-24 1.324 0.980014)
(-7.47354e-25 1.35119 1.00494)
(-3.12922e-23 1.37826 1.03094)
(-1.34056e-22 1.40542 1.05815)
(-3.30672e-22 1.43302 1.08678)
(-3.21823e-22 1.46166 1.11711)
(1.42651e-21 1.49207 1.1494)
(9.1848e-21 1.52494 1.18378)
(2.88915e-20 1.56066 1.2202)
(5.17612e-20 1.5993 1.25852)
(-5.03842e-21 1.64064 1.29841)
(-4.20541e-19 1.68407 1.33937)
(-1.75768e-18 1.72871 1.38071)
(-4.45277e-18 1.77337 1.42168)
(-6.77834e-18 1.81659 1.46189)
(5.46141e-19 1.85651 1.50248)
(4.42977e-17 1.89074 1.54806)
(1.81432e-16 1.91619 1.60898)
(5.07027e-16 1.92922 1.7024)
(1.14507e-15 1.92652 1.84965)
(2.21282e-15 1.9067 2.06825)
(3.76618e-15 1.87227 2.36065)
(5.75591e-15 1.8304 2.70642)
(8.02665e-15 1.79096 3.06568)
(1.03616e-14 1.76243 3.39332)
(1.25413e-14 1.74866 3.65422)
(1.43829e-14 1.74804 3.82995)
(1.57532e-14 1.7544 3.91597)
(1.65642e-14 1.75765 3.91426)
(1.67662e-14 1.74588 3.82734)
(1.6333e-14 1.71567 3.66426)
(1.52382e-14 1.67913 3.45993)
(1.35114e-14 1.56539 3.22009)
(1.17087e-14 0.940023 2.57729)
(1.15286e-14 -0.508714 0.926775)
(1.09328e-14 -1.52592 0.672088)
(9.4899e-15 -2.01124 0.638255)
(7.73263e-15 -2.48435 0.421364)
(5.91624e-15 -2.96314 0.226312)
(4.03491e-15 -3.40525 0.0343847)
(2.24067e-15 -3.77901 -0.133059)
(8.25114e-16 -4.07683 -0.242804)
(1.57243e-16 -4.34183 -0.293599)
(-3.20626e-18 -4.58215 -0.322265)
(-8.62753e-18 -4.77986 -0.326687)
(-1.64054e-18 -4.9079 -0.329553)
(2.55918e-21 -4.94745 -0.325164)
(5.13703e-20 -4.8885 -0.325579)
(7.36046e-21 -4.73996 -0.322362)
(-5.54085e-22 -4.48886 -0.329521)
(-2.88948e-22 -4.16497 -0.323898)
(-7.8546e-23 -3.70342 -0.335045)
(1.07893e-22 -3.2619 -0.308577)
(-4.45954e-22 -2.57099 -0.326819)
(2.51284e-21 -2.36961 -0.259661)
(-2.41511e-20 -1.24484 -0.320479)
(3.45532e-19 -2.08294 -0.198538)
(-5.12087e-18 -0.839401 -0.346597)
(3.23463e-17 -1.19039 -0.290894)
(-1.63893e-17 -4.99663 -0.397727)
(3.8117e-33 0.564124 0.747956)
(2.2217e-32 0.653674 0.742885)
(5.1423e-32 0.70404 0.747505)
(2.08687e-32 0.756495 0.750952)
(-3.93853e-31 0.805209 0.758056)
(-1.90977e-30 0.851106 0.765941)
(-4.48096e-30 0.894691 0.775774)
(-9.50936e-31 0.936045 0.786776)
(3.89182e-29 0.975412 0.79918)
(1.75598e-28 1.01294 0.812754)
(3.79348e-28 1.04875 0.827516)
(-4.20645e-29 1.08299 0.84339)
(-3.73765e-27 1.11578 0.860367)
(-1.55866e-26 1.14729 0.878429)
(-3.24788e-26 1.17766 0.897577)
(1.62431e-27 1.20708 0.917816)
(2.97305e-25 1.23571 0.939146)
(1.27365e-24 1.26373 0.961566)
(2.9504e-24 1.29128 0.985065)
(1.87994e-24 1.31848 1.00963)
(-1.72944e-23 1.34543 1.03528)
(-9.37971e-23 1.37225 1.06206)
(-2.72725e-22 1.39911 1.09013)
(-4.18823e-22 1.42636 1.11974)
(4.75404e-22 1.45458 1.15124)
(5.78924e-21 1.48454 1.1849)
(2.20156e-20 1.51694 1.22081)
(4.96638e-20 1.55221 1.2589)
(3.93064e-20 1.59047 1.29894)
(-2.20897e-19 1.6315 1.34052)
(-1.25007e-18 1.67477 1.38301)
(-3.71807e-18 1.71941 1.42562)
(-6.99593e-18 1.76418 1.46769)
(-4.612e-18 1.80735 1.50963)
(2.51865e-17 1.84641 1.55485)
(1.33118e-16 1.87784 1.61234)
(4.10359e-16 1.89714 1.69852)
(9.84804e-16 1.89968 1.83585)
(1.98924e-15 1.88253 2.04585)
(3.50359e-15 1.84694 2.33725)
(5.49932e-15 1.79983 2.6954)
(7.82558e-15 1.75257 3.08189)
(1.02514e-14 1.71678 3.44753)
(1.25341e-14 1.69972 3.7505)
(1.44708e-14 1.70229 3.96699)
(1.59153e-14 1.72006 4.09053)
(1.67728e-14 1.74519 4.12488)
(1.69916e-14 1.76708 4.07633)
(1.6559e-14 1.77313 3.94867)
(1.54883e-14 1.7566 3.74791)
(1.37732e-14 1.72964 3.50371)
(1.14285e-14 1.66009 3.24999)
(9.20939e-15 1.17484 2.72618)
(9.95403e-15 -0.335891 1.04345)
(1.07108e-14 -1.49674 0.451944)
(9.36706e-15 -1.99349 0.576563)
(7.69986e-15 -2.44308 0.390128)
(5.89543e-15 -2.92394 0.200721)
(4.03369e-15 -3.36876 0.0216821)
(2.24925e-15 -3.75024 -0.138261)
(8.34375e-16 -4.05946 -0.240545)
(1.60547e-16 -4.33225 -0.284218)
(-3.22982e-18 -4.57742 -0.308163)
(-8.9453e-18 -4.77791 -0.309154)
(-1.71384e-18 -4.90715 -0.310232)
(3.2259e-21 -4.94735 -0.306223)
(5.43692e-20 -4.88863 -0.307622)
(7.84271e-21 -4.73983 -0.306909)
(-5.80614e-22 -4.48929 -0.316685)
(-3.10594e-22 -4.16534 -0.314254)
(-8.06276e-23 -3.70609 -0.328252)
(1.07956e-22 -3.26425 -0.304809)
(-4.47324e-22 -2.57768 -0.324771)
(2.56154e-21 -2.37266 -0.259886)
(-2.53536e-20 -1.25493 -0.319441)
(3.59364e-19 -2.08387 -0.196743)
(-5.24372e-18 -0.835987 -0.344053)
(3.17815e-17 -1.19457 -0.258237)
(-1.9554e-17 -4.96278 -0.382118)
(1.31209e-32 0.564767 0.772283)
(5.76198e-32 0.653711 0.766727)
(8.94891e-32 0.703321 0.771271)
(-1.40159e-31 0.7555 0.774577)
(-1.40372e-30 0.803795 0.781712)
(-4.55183e-30 0.849421 0.789657)
(-5.84455e-30 0.892707 0.799621)
(1.83476e-29 0.933812 0.810793)
(1.31248e-28 0.972931 0.823408)
(3.75295e-28 1.01023 0.837228)
(3.432e-28 1.04582 0.852271)
(-2.04056e-27 1.07984 0.868462)
(-1.17206e-26 1.11242 0.885794)
(-3.08521e-26 1.14372 0.904254)
(-2.53769e-26 1.17388 0.923847)
(1.65254e-25 1.20308 0.944581)
(9.27854e-25 1.2315 0.966459)
(2.56335e-24 1.25931 0.989476)
(3.16389e-24 1.28665 1.01362)
(-8.04426e-24 1.31364 1.03887)
(-6.27741e-23 1.34038 1.06525)
(-2.1261e-22 1.36696 1.09281)
(-4.20901e-22 1.39354 1.12174)
(-7.34514e-23 1.42044 1.15234)
(3.31882e-21 1.44825 1.185)
(1.57311e-20 1.47776 1.22003)
(4.27607e-20 1.50973 1.25749)
(5.99524e-20 1.54459 1.29725)
(-8.13147e-20 1.58251 1.33902)
(-8.21533e-19 1.62334 1.38228)
(-2.92398e-18 1.66654 1.42625)
(-6.55561e-18 1.71125 1.47014)
(-7.65632e-18 1.75604 1.5138)
(1.06679e-17 1.79863 1.55952)
(9.22723e-17 1.83545 1.61472)
(3.22564e-16 1.8615 1.69459)
(8.30488e-16 1.87097 1.82185)
(1.76189e-15 1.85921 2.02098)
(3.22076e-15 1.82557 2.30652)
(5.20288e-15 1.77585 2.6704)
(7.56699e-15 1.72195 3.07762)
(1.00705e-14 1.67794 3.4766)
(1.24467e-14 1.65446 3.81893)
(1.44701e-14 1.65514 4.07454)
(1.59822e-14 1.67694 4.23388)
(1.68843e-14 1.7129 4.30089)
(1.71232e-14 1.75427 4.28456)
(1.6685e-14 1.79088 4.19302)
(1.55985e-14 1.81067 4.03023)
(1.39292e-14 1.80473 3.79908)
(1.17202e-14 1.78059 3.52148)
(8.96001e-15 1.72908 3.24624)
(6.30119e-15 1.36184 2.82347)
(7.12211e-15 -0.0853 1.35392)
(1.05014e-14 -1.44546 0.248008)
(9.17989e-15 -1.99926 0.45417)
(7.67404e-15 -2.41287 0.353936)
(5.87883e-15 -2.89158 0.166154)
(4.03494e-15 -3.33966 0.00254673)
(2.25991e-15 -3.72812 -0.147103)
(8.44658e-16 -4.04872 -0.240156)
(1.64043e-16 -4.32851 -0.274329)
(-3.25042e-18 -4.57738 -0.291517)
(-9.25967e-18 -4.77939 -0.287827)
(-1.78504e-18 -4.90836 -0.286069)
(3.8132e-21 -4.94796 -0.282156)
(5.72219e-20 -4.88827 -0.284596)
(8.30409e-21 -4.7382 -0.286753)
(-6.05687e-22 -4.48745 -0.299808)
(-3.31742e-22 -4.16272 -0.301296)
(-8.27676e-23 -3.70533 -0.318977)
(1.08063e-22 -3.26263 -0.299293)
(-4.48817e-22 -2.57985 -0.321863)
(2.61104e-21 -2.37065 -0.259384)
(-2.64946e-20 -1.25771 -0.319135)
(3.72556e-19 -2.0788 -0.194394)
(-5.34386e-18 -0.82418 -0.342916)
(3.13516e-17 -1.18927 -0.239269)
(-2.63365e-17 -4.94927 -0.372223)
(3.60953e-32 0.565487 0.79677)
(1.14789e-31 0.653751 0.790911)
(6.33933e-32 0.702553 0.795403)
(-7.55562e-31 0.754416 0.798639)
(-3.63661e-30 0.802249 0.805833)
(-7.80352e-30 0.847572 0.81388)
(2.08026e-30 0.890527 0.824006)
(8.15855e-29 0.931356 0.835382)
(3.15321e-28 0.970201 0.848239)
(5.36039e-28 1.00725 0.862338)
(-7.15042e-28 1.04259 0.877692)
(-7.91013e-27 1.07638 0.894231)
(-2.64534e-26 1.10872 0.911948)
(-3.95538e-26 1.13978 0.930837)
(6.82575e-26 1.16971 0.950906)
(6.33782e-25 1.19867 0.972168)
(2.10601e-24 1.22686 0.994625)
(3.62654e-24 1.25443 1.01827)
(-2.10314e-24 1.28154 1.0431)
(-3.97844e-23 1.3083 1.06907)
(-1.58863e-22 1.33479 1.09622)
(-3.76228e-22 1.3611 1.12459)
(-3.4872e-22 1.38736 1.15441)
(1.64933e-21 1.41387 1.18603)
(1.05657e-20 1.44121 1.21989)
(3.40258e-20 1.47022 1.25634)
(6.44571e-20 1.50169 1.29542)
(6.96686e-21 1.5361 1.33693)
(-4.84746e-19 1.57367 1.3805)
(-2.16086e-18 1.61428 1.42545)
(-5.70366e-18 1.65742 1.47094)
(-9.01949e-18 1.70213 1.51646)
(2.65106e-19 1.74655 1.56328)
(5.87964e-17 1.7874 1.61729)
(2.44637e-16 1.81963 1.69208)
(6.85134e-16 1.83664 1.80999)
(1.53681e-15 1.83209 1.99751)
(2.92773e-15 1.80298 2.27416)
(4.88189e-15 1.75292 2.6386)
(7.274e-15 1.69311 3.06097)
(9.8542e-15 1.63918 3.48949)
(1.23303e-14 1.60517 3.86999)
(1.445e-14 1.59839 4.16508)
(1.60378e-14 1.61824 4.3606)
(1.699e-14 1.65871 4.45962)
(1.7255e-14 1.7116 4.47249)
(1.68209e-14 1.76821 4.41008)
(1.57156e-14 1.81897 4.28048)
(1.40147e-14 1.85247 4.08735)
(1.18406e-14 1.85827 3.83162)
(9.29922e-15 1.83925 3.52777)
(6.36949e-15 1.7995 3.22646)
(3.42515e-15 1.52364 2.8623)
(3.7598e-15 0.230341 1.68014)
(9.94378e-15 -1.34056 0.117279)
(9.0333e-15 -2.01227 0.26932)
(7.62022e-15 -2.3903 0.301569)
(5.87509e-15 -2.85668 0.125082)
(4.0399e-15 -3.30935 -0.0249782)
(2.27366e-15 -3.70464 -0.16072)
(8.56393e-16 -4.03699 -0.242512)
(1.678e-16 -4.32409 -0.264827)
(-3.27481e-18 -4.57673 -0.272929)
(-9.5686e-18 -4.78034 -0.263115)
(-1.85223e-18 -4.90907 -0.257392)
(4.38161e-21 -4.9481 -0.253059)