/*--------------------------------*- C++ -*----------------------------------*\
| =========                 |                                                 |
| \\      /  F ield         | OpenFOAM: The Open Source CFD Toolbox           |
|  \\    /   O peration     | Version:  4.1                                   |
|   \\  /    A nd           | Web:      www.OpenFOAM.org                      |
|    \\/     M anipulation  |                                                 |
\*---------------------------------------------------------------------------*/
FoamFile
{
    version     2.0;
    format      ascii;
    class       surfaceScalarField;
    location    "20";
    object      phi;
}
// * * * * * * * * * * * * * * * * * * * * * * * * * * * * * * * * * * * * * //

dimensions      [0 3 -1 0 0 0 0];

internalField   nonuniform List<scalar> 
420
(
-949.878
2249.78
-1573.95
1924.28
-2054
1779.95
-2424.23
1670.13
-2699.86
1575.82
-2888.38
1488.42
-2993.05
1404.58
-3013.85
1321
-2949.61
1235.66
-2797.23
1147.52
-2551.17
1054.13
-2193
941.734
-1687.16
794.063
-1012.67
625.701
287.23
373.332
1876.44
442.747
1854.86
437.301
1785.39
406.698
1700.74
380.58
1601.94
359.901
1509.1
345.292
1419.19
337.535
1328.76
333.482
1239.71
326.952
1154.05
309.607
1071.48
267.461
983.877
191.421
870.102
111.451
705.683
398.679
33.5748
1842.87
-97.3894
1985.83
-253.614
1941.62
-371.12
1818.24
-473.183
1704.01
-567.532
1603.45
-651.748
1503.4
-725.794
1402.8
-788.072
1301.99
-837.305
1203.28
-868.224
1102.4
-856.085
971.74
-740.335
754.351
-434.287
399.633
-35.6053
28.7738
1814.09
-100.657
2115.26
-225.557
2066.53
-304.494
1897.18
-368.154
1767.67
-416.95
1652.24
-446.225
1532.68
-457.012
1413.59
-451.848
1296.83
-430.15
1181.59
-387.224
1059.47
-311.87
896.388
-192.86
635.345
-48.4053
255.179
-84.0126
169.626
1644.47
146.161
2138.72
123.738
2088.95
122.873
1898.04
126.946
1763.6
135.81
1643.38
149.107
1519.38
166.595
1396.1
186.947
1276.48
208.135
1160.4
229.134
1038.47
243.823
881.695
233.004
646.162
155.231
332.952
71.218
223.073
1421.4
244.177
2117.62
234.741
2098.39
236.02
1896.76
240.368
1759.25
244.301
1639.45
246.544
1517.14
245.247
1397.4
241.156
1280.56
233.981
1167.57
221.376
1051.07
199.131
903.935
156.134
689.156
78.2963
410.787
149.518
203.315
1218.09
238.357
2082.57
213.602
2123.14
191.398
1918.97
177.188
1773.45
163.757
1652.88
150.023
1530.87
135.881
1411.54
121.056
1295.39
106.904
1181.72
92.8073
1065.17
75.7584
920.985
52.015
712.902
19.015
443.79
168.54
171.845
1046.24
221.966
2032.44
199.41
2145.7
170.396
1947.99
152.044
1791.8
137.665
1667.26
122.776
1545.76
108.577
1425.74
95.5843
1308.39
83.107
1194.2
71.4862
1076.79
58.6357
933.839
40.3248
731.216
15.7485
468.368
184.291
146.085
900.151
210.049
1968.48
196.872
2158.88
170.049
1974.81
152.405
1809.45
139.538
1680.13
127.077
1558.23
113.875
1438.95
101.332
1320.93
89.433
1206.1
76.9983
1089.23
63.0999
947.735
44.3134
749.998
19.1729
493.505
203.456
116.754
783.401
184.843
1900.4
179.621
2164.1
154.305
2000.12
137.22
1826.54
124.001
1693.35
111.372
1570.85
98.9657
1451.35
86.1126
1333.78
73.8705
1218.34
62.1067
1100.99
49.0253
960.81
32.8534
766.16
13.1873
513.164
216.633
83.1575
700.253
143.117
1840.44
144.665
2162.55
122.742
2022.04
106.133
1843.14
94.444
1705.03
82.5613
1582.73
71.1487
1462.76
60.3666
1344.55
49.4381
1229.26
39.4091
1111.01
29.7294
970.484
18.0737
777.808
5.2365
525.991
221.869
51.2366
649.015
97.9036
1793.76
102.684
2157.76
87.3561
2037.37
73.1245
1857.37
63.1143
1715.04
54.2135
1591.62
44.8288
1472.14
36.1161
1353.26
28.1402
1237.23
20.3945
1118.75
13.6577
977.213
6.72341
784.737
-0.418065
533.134
221.474
25.1144
623.88
57.6963
1761.17
63.487
2151.96
53.4475
2047.41
43.8678
1866.95
36.156
1722.75
29.5267
1598.26
23.4813
1478.18
17.0349
1359.71
11.292
1242.98
6.58911
1123.46
2.45642
981.35
-1.08674
788.299
-3.69875
535.769
217.804
1.40113
622.468
24.0448
1738.53
33.3547
2142.67
27.7258
2053.04
20.37
1874.31
15.0732
1728.05
9.54379
1603.79
4.59813
1483.14
0.0557761
1364.26
-4.81006
1247.86
-8.32702
1126.98
-9.64352
982.68
-9.72037
788.392
-7.14649
533.204
210.659
-11.7436
-3.13754
1.45841
-0.391654
-5.0828
-8.83007
-11.7749
-15.2103
-18.0698
-20.2014
-21.7672
-21.103
-18.1267
-12.3875
)
;

boundaryField
{
    inletFace
    {
        type            calculated;
        value           nonuniform List<scalar> 
450
(
-3.68893e-14
6.32352e-13
-8.26868e-14
-1.9228e-13
1.03016e-13
-1.8236e-13
-6.31652e-14
7.00858e-14
-1.01724e-13
-2.69882e-14
6.16779e-14
-2.38497e-14
-7.95345e-15
5.4011e-15
7.86718e-16
-2.08869e-12
-2.19037e-12
1.38581e-13
-2.21718e-13
-2.43506e-13
2.00118e-14
-2.83889e-13
-1.36068e-13
8.75431e-15
-1.31453e-13
-5.01017e-14
4.78312e-14
-2.59511e-14
-6.15884e-15
-6.11955e-16
-2.24643e-12
-2.30801e-12
1.44521e-14
-2.60386e-13
-2.06464e-13
-1.09512e-13
-2.89976e-13
-1.07547e-13
-9.4126e-14
-1.19558e-13
-1.67528e-14
-1.46097e-15
-2.71517e-14
-1.72485e-15
7.00204e-15
-2.62224e-12
-2.26784e-12
-6.29112e-14
-5.40932e-13
-1.89578e-13
-2.05172e-13
-4.0971e-13
-1.08001e-13
-1.62656e-13
-1.9654e-13
-1.22119e-14
-4.20719e-14
-6.49206e-14
1.6401e-14
7.94129e-14
-2.44835e-12
-2.3284e-12
-2.26144e-13
-5.0233e-13
-1.84541e-13
-2.17795e-13
-3.82038e-13
-1.17318e-13
-1.5936e-13
-1.75431e-13
-3.18774e-14
-1.8358e-14
-2.03912e-14
1.63627e-14
6.48128e-14
-2.1298e-12
-2.37644e-12
-4.62863e-13
-4.27441e-13
-1.5246e-13
-2.05889e-13
-3.4827e-13
-1.09822e-13
-1.1726e-13
-1.58589e-13
-4.90324e-14
3.86074e-14
5.33573e-15
3.13234e-14
2.38706e-14
-1.9028e-12
-2.45e-12
-7.6379e-13
-4.36085e-13
-1.94151e-13
-2.27443e-13
-3.29452e-13
-1.49726e-13
-1.51794e-13
-1.96257e-13
-9.10602e-14
-3.46653e-14
-2.9439e-14
-5.62634e-14
-1.77119e-13
-1.66523e-12
-2.46712e-12
-1.01182e-12
-4.68955e-13
-2.49429e-13
-2.39181e-13
-3.13893e-13
-2.08554e-13
-1.87683e-13
-1.9742e-13
-1.32872e-13
-1.15218e-13
-4.24796e-14
-1.94601e-14
-2.16791e-13
-1.42317e-12
-2.44259e-12
-1.19529e-12
-4.99164e-13
-2.70113e-13
-2.20508e-13
-3.19032e-13
-2.2772e-13
-1.68098e-13
-1.70487e-13
-1.33395e-13
-8.85198e-14
-7.14122e-14
-1.99966e-14
-4.86137e-14
-1.22355e-12
-2.38114e-12
-1.34146e-12
-5.63262e-13
-2.83129e-13
-2.00169e-13
-3.02518e-13
-2.29371e-13
-1.44569e-13
-1.62114e-13
-1.4584e-13
-9.70996e-14
-5.71807e-14
-3.26486e-14
7.7863e-14
-9.95348e-13
-2.30093e-12
-1.45388e-12
-6.30231e-13
-3.05963e-13
-1.95688e-13
-2.76803e-13
-2.30931e-13
-1.36976e-13
-1.38277e-13
-1.51376e-13
-9.06181e-14
-1.01063e-14
-2.07306e-14
9.57935e-14
-8.55078e-13
-2.23088e-12
-1.49983e-12
-6.89904e-13
-3.3608e-13
-1.66268e-13
-2.68612e-13
-2.45133e-13
-9.79192e-14
-1.33247e-13
-1.26689e-13
-2.17134e-14
-5.31875e-14
9.75791e-14
1.45962e-13
-7.98066e-13
-2.16701e-12
-1.5355e-12
-7.31325e-13
-3.59096e-13
-1.65625e-13
-2.5538e-13
-2.62046e-13
-9.79096e-14
-1.27989e-13
-1.20292e-13
-3.60547e-15
-5.84892e-14
1.0903e-13
1.53577e-13
-7.51345e-13
-2.11386e-12
-1.56417e-12
-7.57786e-13
-3.7408e-13
-1.72722e-13
-2.45037e-13
-2.62795e-13
-9.64796e-14
-1.25797e-13
-1.32138e-13
-2.05611e-15
-3.93753e-14
9.21262e-14
1.24536e-13
-7.44966e-13
-2.0407e-12
-1.56245e-12
-7.8133e-13
-3.84293e-13
-1.84534e-13
-2.44386e-13
-2.5186e-13
-1.04732e-13
-1.29149e-13
-1.20204e-13
-1.08384e-14
-2.89337e-14
8.64605e-14
6.85746e-14
3.68893e-14
-6.32352e-13
8.26868e-14
1.9228e-13
-1.03016e-13
1.8236e-13
6.31652e-14
-7.00858e-14
1.01724e-13
2.69882e-14
-6.16779e-14
2.38497e-14
7.95345e-15
-5.4011e-15
-7.86718e-16
2.08869e-12
2.19037e-12
-1.38581e-13
2.21718e-13
2.43506e-13
-2.00118e-14
2.83889e-13
1.36068e-13
-8.75431e-15
1.31453e-13
5.01017e-14
-4.78312e-14
2.59511e-14
6.15884e-15
6.11955e-16
2.24643e-12
2.30801e-12
-1.44521e-14
2.60386e-13
2.06464e-13
1.09512e-13
2.89976e-13
1.07547e-13
9.4126e-14
1.19558e-13
1.67528e-14
1.46097e-15
2.71517e-14
1.72485e-15
-7.00204e-15
2.62224e-12
2.26784e-12
6.29112e-14
5.40932e-13
1.89578e-13
2.05172e-13
4.0971e-13
1.08001e-13
1.62656e-13
1.9654e-13
1.22119e-14
4.20719e-14
6.49206e-14
-1.6401e-14
-7.94129e-14
2.44835e-12
2.3284e-12
2.26144e-13
5.0233e-13
1.84541e-13
2.17795e-13
3.82038e-13
1.17318e-13
1.5936e-13
1.75431e-13
3.18774e-14
1.8358e-14
2.03912e-14
-1.63627e-14
-6.48128e-14
2.1298e-12
2.37644e-12
4.62863e-13
4.27441e-13
1.5246e-13
2.05889e-13
3.4827e-13
1.09822e-13
1.1726e-13
1.58589e-13
4.90324e-14
-3.86074e-14
-5.33573e-15
-3.13234e-14
-2.38706e-14
1.9028e-12
2.45e-12
7.6379e-13
4.36085e-13
1.94151e-13
2.27443e-13
3.29452e-13
1.49726e-13
1.51794e-13
1.96257e-13
9.10602e-14
3.46653e-14
2.9439e-14
5.62634e-14
1.77119e-13
1.66523e-12
2.46712e-12
1.01182e-12
4.68955e-13
2.49429e-13
2.39181e-13
3.13893e-13
2.08554e-13
1.87683e-13
1.9742e-13
1.32872e-13
1.15218e-13
4.24796e-14
1.94601e-14
2.16791e-13
1.42317e-12
2.44259e-12
1.19529e-12
4.99164e-13
2.70113e-13
2.20508e-13
3.19032e-13
2.2772e-13
1.68098e-13
1.70487e-13
1.33395e-13
8.85198e-14
7.14122e-14
1.99966e-14
4.86137e-14
1.22355e-12
2.38114e-12
1.34146e-12
5.63262e-13
2.83129e-13
2.00169e-13
3.02518e-13
2.29371e-13
1.44569e-13
1.62114e-13
1.4584e-13
9.70996e-14
5.71807e-14
3.26486e-14
-7.7863e-14
9.95348e-13
2.30093e-12
1.45388e-12
6.30231e-13
3.05963e-13
1.95688e-13
2.76803e-13
2.30931e-13
1.36976e-13
1.38277e-13
1.51376e-13
9.06181e-14
1.01063e-14
2.07306e-14
-9.57935e-14
8.55078e-13
2.23088e-12
1.49983e-12
6.89904e-13
3.3608e-13
1.66268e-13
2.68612e-13
2.45133e-13
9.79192e-14
1.33247e-13
1.26689e-13
2.17134e-14
5.31875e-14
-9.75791e-14
-1.45962e-13
7.98066e-13
2.16701e-12
1.5355e-12
7.31325e-13
3.59096e-13
1.65625e-13
2.5538e-13
2.62046e-13
9.79096e-14
1.27989e-13
1.20292e-13
3.60547e-15
5.84892e-14
-1.0903e-13
-1.53577e-13
7.51345e-13
2.11386e-12
1.56417e-12
7.57786e-13
3.7408e-13
1.72722e-13
2.45037e-13
2.62795e-13
9.64796e-14
1.25797e-13
1.32138e-13
2.05611e-15
3.93753e-14
-9.21262e-14
-1.24536e-13
7.44966e-13
2.0407e-12
1.56245e-12
7.8133e-13
3.84293e-13
1.84534e-13
2.44386e-13
2.5186e-13
1.04732e-13
1.29149e-13
1.20204e-13
1.08384e-14
2.89337e-14
-8.64605e-14
-6.85746e-14
)
;
    }
    inlet
    {
        type            calculated;
        value           nonuniform List<scalar> 
15
(
-1299.9
-1300.2
-1299.9
-1299.9
-1300.2
-1299.9
-1299.9
-1300.2
-1299.9
-1299.9
-1300.2
-1299.9
-1299.9
-1300.2
-1299.9
)
;
    }
    inletWalls
    {
        type            calculated;
        value           uniform 0;
    }
    outletInlet
    {
        type            calculated;
        value           nonuniform List<scalar> 
15
(
198.259
527.466
785.408
982.021
1128.55
1249.99
1367.13
1486.58
1606.74
1731.8
1879
2054.89
2138.08
1729.94
634.214
)
;
    }
}


// ************************************************************************* //
