/*--------------------------------*- C++ -*----------------------------------*\
| =========                 |                                                 |
| \\      /  F ield         | OpenFOAM: The Open Source CFD Toolbox           |
|  \\    /   O peration     | Version:  4.1                                   |
|   \\  /    A nd           | Web:      www.OpenFOAM.org                      |
|    \\/     M anipulation  |                                                 |
\*---------------------------------------------------------------------------*/
FoamFile
{
    version     2.0;
    format      ascii;
    class       volVectorField;
    location    "20";
    object      U;
}
// * * * * * * * * * * * * * * * * * * * * * * * * * * * * * * * * * * * * * //

dimensions      [0 1 -1 0 0 0 0];

internalField   nonuniform List<vector> 
225
(
(1.12866e-14 0.852193 15.7946)
(8.90584e-15 -4.89458 12.1215)
(-3.23746e-15 -4.19551 12.1321)
(3.051e-15 -3.60119 11.9966)
(8.90369e-16 -3.00468 11.8778)
(-2.70436e-16 -2.55319 11.6992)
(1.93355e-15 -2.20881 11.4769)
(2.59327e-16 -1.96603 11.2116)
(-5.13919e-17 -1.79855 10.916)
(9.70003e-16 -1.71238 10.5882)
(-1.0955e-17 -1.83746 10.1561)
(-2.92619e-16 -2.28567 9.53762)
(3.2163e-16 -2.51301 8.96377)
(-3.73908e-17 -1.06553 8.91355)
(-5.44631e-18 1.76575 7.47093)
(1.51492e-14 -5.35016 22.493)
(1.51652e-14 -14.6049 21.394)
(-9.5937e-16 -13.2708 20.3411)
(1.72174e-15 -11.7697 19.5066)
(1.68593e-15 -11.1561 18.5043)
(-1.38537e-16 -10.6594 17.5174)
(2.07607e-15 -10.0901 16.5714)
(9.42078e-16 -9.525 15.6236)
(-6.06043e-17 -8.96543 14.6638)
(8.93672e-16 -8.3673 13.6946)
(3.46884e-16 -7.75708 12.7179)
(-3.31125e-16 -7.30334 11.7194)
(1.78956e-16 -7.01704 10.6244)
(4.26413e-17 -5.73092 9.16113)
(4.23644e-18 -2.30501 4.58319)
(1.75973e-14 -7.71565 23.9801)
(1.59779e-14 -16.7731 24.6729)
(-1.00061e-16 -13.7365 23.9372)
(3.32194e-15 -12.3062 22.6249)
(1.42931e-15 -11.6447 21.2414)
(7.5822e-16 -10.814 20.0013)
(3.14744e-15 -9.94025 18.7738)
(7.44531e-16 -9.10011 17.5247)
(6.51692e-16 -8.28338 16.2654)
(1.61683e-15 -7.47524 15.0263)
(1.15977e-16 -6.66762 13.8176)
(1.01152e-17 -5.84165 12.4301)
(5.50458e-16 -4.81389 10.2752)
(1.19408e-17 -3.12624 6.68441)
(-4.84795e-17 -0.832133 1.68991)
(1.81464e-14 -8.50258 22.0462)
(1.57e-14 -16.621 24.332)
(4.35527e-16 -12.93 23.7971)
(3.74524e-15 -12.1536 21.9985)
(1.24121e-15 -11.4201 20.5028)
(1.46902e-15 -10.4936 19.1722)
(2.8367e-15 -9.63389 17.8167)
(6.68686e-16 -8.8236 16.459)
(1.1539e-15 -8.05364 15.123)
(1.34588e-15 -7.32379 13.8165)
(7.64093e-17 -6.55248 12.4394)
(2.81901e-16 -5.49089 10.583)
(4.24664e-16 -3.78526 7.50869)
(7.90804e-17 -1.49365 2.76601)
(-7.418e-16 0.153276 -1.773)
(1.6738e-14 -8.47615 19.748)
(1.5775e-14 -16.3601 24.312)
(1.38725e-15 -13.099 23.6602)
(3.28295e-15 -12.628 21.5365)
(9.6662e-16 -11.8565 20.0248)
(1.39784e-15 -10.9574 18.6637)
(2.5279e-15 -10.1698 17.2587)
(5.63576e-16 -9.40279 15.8711)
(9.70878e-16 -8.6526 14.5236)
(1.14397e-15 -7.93052 13.2136)
(6.92035e-17 -7.16589 11.8292)
(-4.22221e-17 -6.11616 9.99628)
(3.48358e-17 -4.42403 7.15556)
(-4.71462e-16 -2.30529 3.2879)
(-8.14859e-16 -0.787207 0.31775)
(1.49684e-14 -8.02193 17.5537)
(1.64936e-14 -16.0195 24.5277)
(3.3741e-15 -13.6434 24.0461)
(2.95912e-15 -12.9943 21.7651)
(1.10459e-15 -12.1264 20.2158)
(1.58157e-15 -11.2247 18.847)
(2.46643e-15 -10.439 17.4341)
(8.19574e-16 -9.64887 16.0434)
(1.00314e-15 -8.86034 14.6933)
(1.16681e-15 -8.09323 13.3817)
(4.14924e-16 -7.29728 12.0171)
(-8.53662e-18 -6.28456 10.2818)
(-3.69386e-17 -4.73298 7.72087)
(1.40764e-16 -2.7561 4.37242)
(1.21646e-15 -0.949376 1.29734)
(1.33072e-14 -7.33746 15.2535)
(1.69824e-14 -15.491 24.355)
(5.37219e-15 -14.0225 24.4217)
(3.01931e-15 -13.1278 22.0675)
(1.44471e-15 -12.1447 20.4401)
(1.68228e-15 -11.2358 19.0547)
(2.28102e-15 -10.436 17.6437)
(1.16203e-15 -9.6198 16.2576)
(1.18732e-15 -8.81012 14.9066)
(1.35882e-15 -8.02719 13.5918)
(7.95278e-16 -7.2239 12.2368)
(6.18978e-16 -6.2402 10.5487)
(2.03826e-16 -4.78745 8.10741)
(1.46798e-17 -2.91405 4.94706)
(2.14899e-15 -1.01085 1.79738)
(1.13429e-14 -6.55629 13.033)
(1.7081e-14 -14.847 23.8164)
(6.96237e-15 -14.2638 24.669)
(3.19994e-15 -13.2372 22.3215)
(1.72691e-15 -12.1674 20.5831)
(1.54739e-15 -11.2657 19.1667)
(2.23139e-15 -10.4651 17.7586)
(1.44392e-15 -9.64314 16.3766)
(1.16166e-15 -8.83493 15.0246)
(1.36667e-15 -8.05529 13.7073)
(9.19938e-16 -7.255 12.3576)
(6.07366e-16 -6.28688 10.6995)
(4.13786e-16 -4.89098 8.33092)
(1.34732e-16 -3.08519 5.26762)
(1.00417e-15 -1.1222 2.04391)
(9.85243e-15 -5.77841 11.1239)
(1.69097e-14 -14.1745 23.0906)
(8.14996e-15 -14.4412 24.8462)
(3.45565e-15 -13.3963 22.6148)
(1.86996e-15 -12.2528 20.7553)
(1.36541e-15 -11.3493 19.2955)
(2.20862e-15 -10.5477 17.8904)
(1.57648e-15 -9.72546 16.511)
(9.59958e-16 -8.91947 15.1562)
(1.18026e-15 -8.14027 13.8352)
(9.23479e-16 -7.34 12.4864)
(4.25826e-16 -6.38019 10.8513)
(4.94378e-16 -5.02354 8.54674)
(1.38434e-16 -3.26576 5.55829)
(-6.00247e-16 -1.2375 2.24759)
(8.17179e-15 -5.08506 9.59942)
(1.64843e-14 -13.5192 22.3001)
(9.24463e-15 -14.5349 24.9522)
(3.80839e-15 -13.5531 22.9352)
(1.96007e-15 -12.3447 20.9698)
(1.33191e-15 -11.425 19.4566)
(1.97862e-15 -10.6174 18.0506)
(1.58791e-15 -9.79444 16.6721)
(9.32757e-16 -8.98826 15.3136)
(9.73637e-16 -8.20621 13.9873)
(1.00963e-15 -7.40471 12.6356)
(5.78593e-16 -6.45145 11.0132)
(1.63926e-16 -5.12519 8.75504)
(2.26022e-16 -3.40644 5.81938)
(-8.39253e-16 -1.31895 2.43075)
(6.68421e-15 -4.53885 8.46248)
(1.59551e-14 -12.9256 21.5505)
(9.91494e-15 -14.5348 24.9757)
(4.36288e-15 -13.6653 23.2208)
(2.16867e-15 -12.4127 21.1811)
(1.13729e-15 -11.4735 19.612)
(1.91622e-15 -10.6589 18.2003)
(1.66212e-15 -9.83687 16.8208)
(6.73202e-16 -9.03197 15.4584)
(9.57246e-16 -8.24847 14.1268)
(1.04805e-15 -7.44638 12.769)
(2.49536e-16 -6.49761 11.1496)
(1.86363e-16 -5.19241 8.9182)
(-5.22639e-16 -3.5016 6.01013)
(-1.22175e-15 -1.36359 2.5422)
(5.9196e-15 -4.17062 7.70306)
(1.547e-14 -12.4379 20.928)
(1.03407e-14 -14.4733 24.9365)
(4.77612e-15 -13.7314 23.4377)
(2.35205e-15 -12.4591 21.3592)
(1.09621e-15 -11.5038 19.7404)
(1.85957e-15 -10.6831 18.3205)
(1.79294e-15 -9.86346 16.939)
(6.43219e-16 -9.06105 15.5728)
(9.22454e-16 -8.2775 14.2363)
(8.77052e-16 -7.47478 12.8708)
(7.4379e-18 -6.52664 11.2463)
(4.26704e-16 -5.23276 9.02606)
(-7.58542e-16 -3.55766 6.12558)
(-1.35028e-15 -1.37715 2.57236)
(5.4263e-15 -3.97354 7.27999)
(1.4975e-14 -12.0683 20.4614)
(1.06524e-14 -14.3843 24.8626)
(5.02832e-15 -13.7598 23.5827)
(2.48598e-15 -12.4874 21.4969)
(1.1466e-15 -11.5229 19.8405)
(1.73827e-15 -10.6965 18.412)
(1.87868e-15 -9.87986 17.0278)
(6.42774e-16 -9.08045 15.6583)
(8.86155e-16 -8.29711 14.3169)
(8.74938e-16 -7.49301 12.942)
(-2.29871e-17 -6.54192 11.3058)
(4.04961e-16 -5.25063 9.08387)
(-6.72284e-16 -3.57849 6.17491)
(-1.2112e-15 -1.36508 2.53866)
(5.13701e-15 -3.90381 7.11052)
(1.46214e-14 -11.8313 20.1818)
(1.08056e-14 -14.2998 24.79)
(5.23408e-15 -13.7667 23.6685)
(2.577e-15 -12.5019 21.5898)
(1.1957e-15 -11.532 19.9095)
(1.71139e-15 -10.7003 18.4746)
(1.80317e-15 -9.88546 17.0884)
(6.67897e-16 -9.0879 15.7173)
(8.90071e-16 -8.30406 14.3729)
(8.93799e-16 -7.49781 12.9906)
(1.42338e-17 -6.54311 11.3433)
(3.01611e-16 -5.25333 9.11712)
(-6.7869e-16 -3.58355 6.20143)
(-8.62119e-16 -1.35008 2.50637)
(5.1425e-15 -4.03957 7.28702)
(1.41205e-14 -11.6271 19.9523)
(1.08236e-14 -14.1916 24.668)
(5.40905e-15 -13.7463 23.7082)
(2.65389e-15 -12.5065 21.6737)
(1.28469e-15 -11.5392 19.9773)
(1.69185e-15 -10.6995 18.535)
(1.7355e-15 -9.88695 17.1437)
(7.33864e-16 -9.09051 15.7694)
(8.94082e-16 -8.30497 14.4183)
(8.26965e-16 -7.48994 13.0147)
(8.09278e-17 -6.51531 11.3281)
(2.00304e-16 -5.20593 9.06114)
(-6.08735e-16 -3.50148 6.08259)
(-4.55661e-16 -1.25238 2.30713)
)
;

boundaryField
{
    inletFace
    {
        type            zeroGradient;
    }
    inlet
    {
        type            fixedValue;
        value           uniform (0 8.7 15);
    }
    inletWalls
    {
        type            noSlip;
    }
    outletInlet
    {
        type            zeroGradient;
    }
}


// ************************************************************************* //
