/*--------------------------------*- C++ -*----------------------------------*\
| =========                 |                                                 |
| \\      /  F ield         | OpenFOAM: The Open Source CFD Toolbox           |
|  \\    /   O peration     | Version:  4.1                                   |
|   \\  /    A nd           | Web:      www.OpenFOAM.org                      |
|    \\/     M anipulation  |                                                 |
\*---------------------------------------------------------------------------*/
FoamFile
{
    version     2.0;
    format      ascii;
    class       volVectorField;
    location    "13";
    object      U;
}
// * * * * * * * * * * * * * * * * * * * * * * * * * * * * * * * * * * * * * //

dimensions      [0 1 -1 0 0 0 0];

internalField   nonuniform List<vector> 
6785
(
(1.85175e-14 -0.842052 16.17)
(1.94582e-14 -6.73305 12.5453)
(-6.17569e-15 -4.8062 12.9501)
(5.45673e-15 -4.32018 12.6987)
(1.74473e-15 -3.69634 12.531)
(-8.40954e-16 -3.22432 12.3066)
(4.16792e-15 -2.8355 12.0546)
(1.28923e-15 -2.54772 11.7649)
(-6.90353e-16 -2.36053 11.4369)
(4.61711e-15 -2.24778 11.092)
(1.11833e-15 -2.19898 10.768)
(-2.00898e-15 -2.40559 10.3895)
(2.56648e-15 -2.91955 9.80635)
(-7.84714e-16 -2.30098 9.19367)
(-4.30664e-15 0.792742 7.27653)
(3.90041e-14 -7.83071 26.3145)
(2.29349e-14 -16.5768 22.0509)
(-5.14979e-15 -11.5578 22.5137)
(1.40269e-14 -11.876 21.0584)
(1.88457e-15 -10.8129 20.0892)
(4.35501e-15 -10.0724 19.0346)
(1.12072e-14 -9.30019 17.9974)
(8.7638e-16 -8.56259 16.9582)
(4.78392e-15 -7.86258 15.9145)
(1.02953e-14 -7.19657 14.9034)
(1.68135e-15 -6.53572 13.9753)
(6.60013e-15 -5.87544 12.8146)
(9.67121e-15 -4.91223 10.2969)
(-3.92373e-15 -2.56788 5.46733)
(-1.201e-15 0.527906 0.0161333)
(2.46456e-14 -10.6452 28.3053)
(2.11418e-14 -17.6805 24.5088)
(-4.29877e-15 -11.9265 25.0091)
(4.13085e-15 -12.8955 22.7777)
(1.56494e-15 -11.2644 21.6703)
(2.30516e-15 -10.5267 20.2028)
(2.45459e-16 -9.59966 18.8494)
(2.26755e-15 -8.78124 17.4849)
(-2.75781e-16 -8.00954 16.1731)
(-6.8284e-15 -7.3228 14.9416)
(3.64356e-15 -6.59373 13.5713)
(-3.87776e-15 -5.12415 10.8262)
(-2.09507e-14 -1.42175 4.46616)
(-1.7861e-14 3.3443 -4.04762)
(-3.76946e-15 1.60769 -4.24865)
(2.89471e-14 -11.4445 27.2136)
(1.34817e-14 -17.6253 24.2787)
(4.5305e-15 -11.878 24.5261)
(2.01129e-15 -13.6039 21.6849)
(-5.83845e-15 -11.6144 20.6849)
(1.16796e-14 -11.161 18.9518)
(-5.65166e-16 -10.286 17.4876)
(-8.48179e-15 -9.55623 15.9903)
(7.97319e-15 -8.85425 14.5378)
(-3.50574e-15 -8.21507 13.1577)
(-9.24936e-15 -7.60046 11.8052)
(5.84407e-15 -6.65365 9.90126)
(-4.66257e-15 -4.49789 6.1577)
(-3.61228e-14 -1.78571 2.31319)
(-2.29497e-14 0.227255 -3.164)
(2.52882e-14 -11.4616 25.7671)
(6.31781e-15 -17.2666 24.2867)
(-3.96109e-15 -12.0138 23.9665)
(-2.67395e-15 -13.5891 20.9929)
(-1.73739e-14 -11.6299 19.997)
(5.77598e-16 -11.1819 18.2109)
(-2.48928e-15 -10.3266 16.6824)
(-2.06267e-14 -9.54519 15.1457)
(-1.17354e-14 -8.81408 13.6647)
(-5.91667e-15 -8.13349 12.3129)
(-2.39919e-14 -7.51393 11.0709)
(-2.32965e-14 -6.80374 9.75082)
(-1.44424e-14 -5.67293 7.72025)
(-4.03938e-14 -3.81153 5.29147)
(-7.57002e-14 -1.58744 0.393328)
(3.18166e-14 -11.4601 24.8965)
(5.64865e-15 -16.6827 23.8421)
(2.57355e-15 -11.7259 23.5196)
(-3.12617e-15 -13.3399 20.4198)
(-1.47198e-14 -11.0648 19.5975)
(7.19974e-15 -10.8102 17.6484)
(-3.76976e-15 -9.76072 16.1716)
(-1.96331e-14 -9.00975 14.6328)
(-1.07151e-15 -8.32134 13.2757)
(-6.88369e-15 -7.75866 12.0649)
(-2.4532e-14 -7.21381 10.8519)
(-9.47219e-15 -6.63174 9.72532)
(-1.57933e-15 -6.11639 8.72686)
(-2.1999e-14 -5.06768 7.47615)
(-2.86455e-14 -3.12713 3.93279)
(4.06134e-14 -11.9115 24.8322)
(1.12683e-14 -15.9696 23.4301)
(1.1211e-14 -11.5937 23.2712)
(-2.75806e-15 -13.0127 20.2459)
(-4.29921e-15 -10.5283 19.4594)
(1.50357e-14 -10.3732 17.3727)
(-7.16904e-15 -9.03198 15.9445)
(-3.41918e-15 -8.15636 14.0969)
(8.11174e-15 -7.05226 12.1489)
(-5.24208e-15 -6.31908 10.3859)
(7.95856e-15 -6.11104 9.48027)
(2.63647e-14 -6.23703 9.37914)
(7.57727e-15 -6.59212 9.83967)
(-1.82804e-14 -6.55083 9.87692)
(6.82363e-15 -4.84943 7.758)
(3.42187e-14 -12.6133 25.4472)
(1.09603e-14 -15.8989 24.1129)
(9.77135e-15 -11.8984 23.697)
(-5.61928e-15 -12.9376 21.0145)
(3.04122e-15 -10.5028 20.1344)
(7.81788e-15 -10.2416 18.1171)
(-1.18989e-14 -8.68705 16.6615)
(-1.65591e-16 -7.41721 14.2568)
(-3.76891e-15 -5.39576 11.1478)
(-7.51242e-15 -3.6882 8.13232)
(-8.58724e-15 -3.03106 6.84185)
(-3.02407e-14 -3.74032 7.53659)
(-3.05108e-14 -5.34111 9.52161)
(-9.19122e-15 -6.63302 11.1315)
(9.08941e-15 -5.09056 9.4261)
(3.08821e-14 -12.7627 25.2236)
(1.43039e-14 -16.9373 26.2591)
(2.10835e-16 -12.602 24.7566)
(-2.84233e-15 -13.5458 22.2333)
(3.2609e-15 -11.1047 21.3853)
(-4.87234e-15 -10.9499 19.3869)
(-8.98333e-15 -9.33163 18.0442)
(-2.39006e-15 -8.11673 15.6332)
(-1.76759e-14 -5.84257 12.4008)
(-8.66525e-15 -3.56245 8.81755)
(-3.63913e-14 -1.76419 6.10857)
(-8.49339e-14 -0.781348 4.43742)
(-8.47844e-14 -1.00597 4.45449)
(-6.95383e-14 -2.56629 6.36596)
(-2.11473e-14 -2.94345 6.82124)
(2.33962e-14 -12.082 23.334)
(1.67032e-14 -17.755 28.0101)
(-9.32546e-16 -13.7889 25.8443)
(-1.07342e-14 -14.1677 23.0802)
(4.73799e-16 -12.051 22.1111)
(-4.2569e-15 -11.8943 20.2102)
(-1.62587e-14 -10.532 18.9367)
(-4.25748e-15 -9.61934 16.9706)
(-1.94517e-14 -7.89297 14.4591)
(-2.46475e-14 -5.83444 11.2984)
(-2.80384e-14 -3.67074 8.13515)
(-7.97601e-14 -1.47904 4.83167)
(-1.36149e-13 0.975735 1.37844)
(-1.76219e-13 1.96776 -0.680248)
(-1.51991e-13 0.29166 0.34383)
(8.10793e-15 -10.9989 20.5734)
(2.22788e-14 -17.6665 28.3097)
(-8.69087e-15 -14.7005 26.3134)
(-1.01077e-14 -14.3109 23.2232)
(1.79369e-15 -12.6372 21.8943)
(-1.81247e-14 -12.263 20.1359)
(-1.33755e-14 -11.2552 18.7687)
(-3.56638e-15 -10.4791 17.1184)
(-3.16525e-14 -9.39416 15.2465)
(-2.4649e-14 -8.06659 13.0365)
(-1.13776e-14 -6.51984 10.5943)
(-5.41912e-14 -4.69195 7.84151)
(-8.26207e-14 -2.39306 4.50737)
(-2.35487e-13 0.658632 0.627131)
(-2.13905e-13 0.724918 -2.92183)
(6.85856e-15 -9.93161 17.8405)
(2.6149e-14 -16.9649 27.5919)
(-1.33402e-14 -14.9377 26.0755)
(-1.06042e-14 -13.9931 22.7392)
(5.98322e-15 -12.4585 21.0563)
(-2.8333e-14 -11.8972 19.355)
(-1.91478e-14 -11.0161 17.9449)
(5.39973e-15 -10.2494 16.4128)
(-2.60505e-14 -9.38595 14.802)
(-3.23678e-14 -8.40034 13.062)
(-9.96835e-15 -7.30253 11.1569)
(-4.37562e-14 -5.97871 9.05421)
(-4.50351e-14 -4.43658 6.48458)
(-9.34401e-14 -2.0987 3.31115)
(-1.56041e-13 -0.423464 -1.63151)
(-1.75954e-15 -9.24855 15.9609)
(2.3737e-14 -16.3446 26.7685)
(-7.59276e-15 -15.236 25.9041)
(-1.74252e-14 -14.102 22.7614)
(3.73421e-15 -12.7513 20.8633)
(-2.04058e-14 -12.0895 19.1777)
(-2.78475e-14 -11.2935 17.7105)
(1.76683e-14 -10.5118 16.2152)
(-1.18067e-14 -9.68166 14.69)
(-2.9676e-14 -8.77334 13.1403)
(-9.93644e-15 -7.80106 11.5048)
(-3.04802e-14 -6.65065 9.74817)
(-3.49016e-14 -5.39025 7.6862)
(-4.1989e-14 -3.59949 5.27884)
(-9.85946e-14 -1.5383 0.744179)
(-2.18571e-14 -7.3431 11.3316)
(1.69546e-14 -14.9404 24.0386)
(-6.33404e-15 -14.9517 24.4534)
(-2.77027e-14 -13.2781 21.0689)
(-3.71622e-15 -11.6003 18.7487)
(-1.38869e-14 -10.8022 17.3245)
(-2.64741e-14 -10.1745 16.3399)
(7.3883e-15 -9.6209 15.3736)
(2.68447e-15 -9.09657 14.4038)
(-1.25399e-14 -8.54813 13.3863)
(-1.0991e-14 -7.98754 12.2815)
(-1.72929e-14 -7.27486 11.0906)
(-1.81133e-14 -6.41545 9.56181)
(-2.6534e-14 -5.00659 7.69175)
(-6.9139e-14 -2.94452 4.08149)
(-3.67788e-14 -5.8967 10.5315)
(-8.83123e-15 -14.7115 23.0308)
(-4.8562e-16 -18.0737 26.5576)
(-1.57556e-14 -18.5671 25.4928)
(-1.70045e-14 -17.4934 23.0926)
(-1.47051e-14 -16.0931 20.5996)
(-2.31613e-14 -14.5887 18.3571)
(-1.43174e-14 -13.1071 16.3826)
(-4.64656e-15 -11.5435 14.4223)
(-2.10526e-14 -10.0406 12.5349)
(-3.76875e-14 -8.77162 11.1484)
(-3.54678e-14 -7.8964 10.321)
(-2.80171e-14 -7.18562 9.92871)
(-2.98306e-14 -6.50451 9.37556)
(-5.69522e-14 -3.81771 7.16215)
(-1.54121e-15 -0.0125201 -0.0789124)
(-7.33661e-15 0.0869548 -0.45367)
(-6.28095e-15 0.109303 -0.312335)
(-5.82915e-15 0.137621 -0.345583)
(-4.84513e-15 0.146755 -0.312562)
(-8.35957e-15 0.216243 -0.461135)
(-6.08154e-15 0.220264 -0.330797)
(-5.40578e-15 0.256908 -0.339637)
(-5.57098e-15 0.260471 -0.308067)
(1.66381e-14 0.324689 -0.414314)
(1.34925e-14 0.322021 -0.27197)
(1.05598e-14 0.344565 -0.234934)
(7.85154e-15 0.401164 -0.321653)
(3.76446e-15 0.376546 -0.200719)
(2.10333e-15 0.420862 -0.197334)
(1.30392e-15 0.40247 -0.18364)
(-1.87237e-15 0.482602 -0.267383)
(1.6254e-15 0.448166 -0.176511)
(7.30902e-16 0.468921 -0.159285)
(-1.76386e-15 0.535936 -0.233984)
(-1.45279e-15 0.474291 -0.146362)
(-2.02763e-15 0.532035 -0.144535)
(9.56774e-16 0.494591 -0.13816)
(-1.05696e-15 0.616286 -0.203896)
(-1.518e-15 0.509732 -0.121035)
(-8.9549e-16 0.564412 -0.119441)
(-4.31412e-15 0.532631 -0.119907)
(-7.10441e-15 0.622138 -0.181428)
(-8.78751e-15 0.541654 -0.111207)
(-7.18232e-15 0.568528 -0.1026)
(-8.26284e-15 0.620226 -0.154315)
(-8.59077e-15 0.525107 -0.0875721)
(-7.24458e-15 0.584173 -0.0845624)
(-9.01825e-15 0.546243 -0.0946191)
(-1.18281e-14 0.624592 -0.145475)
(-7.68821e-15 0.517684 -0.0800864)
(-6.61609e-15 0.547638 -0.0733063)
(-9.23828e-15 0.572414 -0.1106)
(-6.34663e-15 0.46521 -0.0428875)
(-6.0047e-15 0.52105 -0.030487)
(-2.22253e-15 0.479074 -0.0466214)
(-3.93772e-15 0.552991 -0.0831958)
(-3.43626e-15 0.414032 -0.00383246)
(-3.2307e-15 0.454011 0.0150902)
(-2.71173e-15 0.425695 -0.00592473)
(-3.09974e-15 0.452392 -0.0211829)
(-5.97852e-15 0.324984 0.0659767)
(-4.26069e-15 0.350506 0.0642493)
(-4.29193e-15 0.282207 0.039178)
(2.16002e-15 0.173193 0.183641)
(-3.21686e-16 0.188256 0.182651)
(-1.24549e-15 0.159793 0.142774)
(-2.16292e-15 0.143798 -0.0283047)
(-1.29634e-15 -0.00275922 0.0564249)
(-1.63907e-15 0.00938559 0.0327115)
(3.88817e-15 -0.00458554 0.0091372)
(2.65374e-15 0.0681538 -0.0229514)
(6.11097e-16 -0.0768902 0.0899771)
(-4.72655e-15 -0.0425194 0.0300829)
(-2.07026e-15 -0.132268 -0.416674)
(-7.07481e-16 -0.192548 -0.681531)
(-2.04927e-16 -0.154472 -1.07179)
(1.97712e-15 -0.062984 -1.09254)
(3.14977e-14 -0.0708183 -1.69891)
(-1.97162e-15 -0.529355 0.145576)
(-2.43642e-15 -0.321534 0.221967)
(-5.66062e-15 -0.967906 2.30134)
(-5.59661e-15 -1.36045 3.17643)
(-4.78813e-15 -1.56311 3.14151)
(-6.09815e-15 -1.58074 3.48733)
(-9.07683e-15 -2.72419 6.2291)
(-7.21465e-15 -3.1629 5.72339)
(-7.2034e-15 -3.56826 5.82178)
(-7.00216e-15 -3.60324 5.97498)
(-8.88569e-15 -5.71631 9.27198)
(-5.76684e-15 -5.71497 7.53098)
(-6.39515e-15 -5.82358 7.979)
(-9.04234e-15 -8.50586 11.9299)
(-8.1375e-15 -8.27123 9.40179)
(-1.17949e-14 -8.55631 10.344)
(-2.16674e-14 -9.36583 12.6972)
(-2.1927e-14 -9.12929 12.4426)
(-2.35224e-14 -9.26143 12.7275)
(-1.5076e-14 -10.4804 14.7227)
(-2.27634e-14 -9.96876 13.7025)
(-1.88297e-14 -10.1122 14.245)
(-1.75726e-14 -10.0992 14.4207)
(-1.72502e-14 -10.1481 14.6004)
(-1.63857e-14 -10.1956 14.7471)
(-1.56517e-14 -10.2498 14.8619)
(-1.52921e-14 -10.2732 14.9844)
(-1.52828e-14 -10.3286 15.174)
(-1.15403e-14 -11.1381 16.9717)
(-1.522e-14 -11.0257 15.7895)
(-1.57316e-14 -11.098 15.9794)
(-1.67637e-14 -11.1146 16.0183)
(-1.78841e-14 -11.2072 16.1968)
(-1.62299e-14 -11.2367 16.411)
(-1.5416e-14 -11.3081 16.6279)
(-1.43688e-14 -11.3533 16.8781)
(-1.34544e-14 -11.4176 17.1616)
(-5.80077e-15 -12.1686 19.0452)
(-1.06692e-14 -11.9666 17.6502)
(-1.03231e-14 -12.0396 17.952)
(-1.08586e-14 -12.0896 18.0738)
(-1.1226e-14 -12.1484 18.2577)
(-1.09739e-14 -12.1986 18.49)
(-1.0327e-14 -12.2941 18.7563)
(-1.10384e-14 -12.324 18.9019)
(-1.09621e-14 -12.3966 19.1227)
(-1.06414e-14 -12.4664 19.3461)
(-6.09728e-15 -12.6873 20.5237)
(-8.76467e-15 -12.6246 19.3074)
(-8.27707e-15 -12.6446 19.5189)
(-7.66299e-15 -12.6931 19.6137)
(-6.58811e-15 -12.7521 19.7835)
(-5.39153e-15 -12.7692 20.0033)
(-5.09576e-15 -12.8632 20.4193)
(-5.26648e-15 -12.8837 20.6485)
(-4.99659e-15 -12.9536 20.7959)
(-2.26518e-15 -12.254 20.4303)
(-4.49557e-15 -12.4513 19.7188)
(-5.36356e-15 -12.387 19.9283)
(-6.74301e-15 -12.4629 20.0296)
(-6.69741e-15 -12.4152 19.9296)
(-7.0929e-15 -12.4598 19.8978)
(-7.32996e-15 -12.4629 19.842)
(-7.15802e-15 -12.4365 19.824)
(-5.5647e-15 -12.5416 19.9865)
(-1.8994e-15 -10.4852 17.1918)
(-2.99473e-15 -11.2727 17.7645)
(-2.32326e-15 -11.0852 17.3945)
(-1.87661e-15 -11.1004 17.1861)
(-1.59351e-15 -11.0643 17.0993)
(-1.38109e-15 -11.0004 16.7852)
(-1.06992e-15 -10.9026 16.3798)
(-8.40429e-16 -10.8432 15.9492)
(-6.15877e-16 -10.7457 15.405)
(3.64318e-15 -7.86747 10.7846)
(5.66568e-16 -9.02799 13.0709)
(6.96688e-16 -8.62048 11.9611)
(5.47213e-16 -8.66039 11.2269)
(6.71351e-16 -8.47243 10.2796)
(1.24063e-15 -8.3809 9.35371)
(3.68807e-15 -8.15079 8.51075)
(3.40133e-15 -7.97387 7.49529)
(4.0067e-15 -7.73532 6.54489)
(4.50807e-15 -7.38672 5.56582)
(6.19403e-15 -3.84636 -1.14944)
(2.85701e-15 -5.67675 3.72504)
(3.63634e-15 -4.8861 2.21945)
(4.18626e-15 -4.99877 1.86613)
(4.84676e-15 -4.57606 1.10745)
(5.18871e-15 -4.47002 0.342293)
(4.04892e-15 -4.27439 -1.12846)
(2.25507e-15 -3.86586 -2.55307)
(3.0627e-15 -3.57371 -2.51521)
(1.31986e-14 -2.2698 -6.37355)
(1.02287e-14 -2.87075 -2.97436)
(1.2127e-14 -2.22206 -4.02159)
(1.64259e-14 -1.19721 -5.59248)
(2.24673e-14 -1.22668 -6.55834)
(1.5874e-14 0.0977921 -5.28449)
(8.75488e-15 0.665662 -2.73704)
(8.42967e-15 2.14332 -3.86666)
(7.73845e-15 2.05944 -2.73688)
(8.78488e-15 3.15753 -3.31759)
(6.7851e-15 4.29559 -3.55024)
(5.495e-15 3.83962 -2.28329)
(7.21744e-15 5.2066 -2.63917)
(1.0206e-14 6.47309 -2.64525)
(6.52786e-15 5.04 -1.68439)
(1.028e-14 7.79712 -2.11676)
(7.56363e-15 6.13205 -1.45451)
(8.87628e-15 7.27974 -1.6751)
(1.14114e-14 8.53539 -1.47845)
(7.62628e-15 6.4437 -0.937277)
(9.91623e-15 9.59601 -1.03964)
(6.65317e-15 7.25652 -0.687548)
(8.47831e-15 8.4789 -0.719865)
(1.02614e-14 9.19831 -0.302907)
(6.69299e-15 7.10753 -0.12877)
(8.62507e-15 8.90478 0.00998025)
(8.71339e-15 9.34047 0.575961)
(5.18529e-15 6.66291 0.388936)
(7.06728e-15 9.56933 0.816188)
(5.00707e-15 6.97293 0.617666)
(5.38604e-15 7.84165 0.896951)
(5.79288e-15 8.06913 1.47579)
(3.23788e-15 5.80561 0.966799)
(4.35049e-15 8.11643 1.52568)
(2.91225e-15 5.77454 1.1056)
(4.00919e-15 6.42324 1.4433)
(2.64227e-15 6.22818 1.89992)
(1.13281e-15 4.59143 1.28644)
(1.83686e-15 5.57847 1.64371)
(4.47249e-17 5.18329 2.02986)
(-4.65197e-16 3.54329 1.31889)
(-6.01023e-16 4.79765 1.79519)
(-4.21145e-16 3.30642 1.27044)
(-7.95343e-16 3.51245 1.52945)
(2.32223e-15 3.35538 1.62625)
(2.43274e-15 2.34024 1.0474)
(-1.72083e-16 3.18462 1.2092)
(-1.17146e-15 2.26148 0.847672)
(-6.11214e-16 2.35604 0.915922)
(-5.68669e-15 3.07403 -0.442588)
(-4.37509e-15 2.63896 -0.403855)
(-5.49453e-15 3.23475 -1.09014)
(-5.70717e-15 3.79995 -1.87997)
(-4.34174e-15 2.97438 -1.2673)
(-2.85554e-15 4.20057 -2.1183)
(-1.23218e-15 3.27938 -1.56781)
(-2.70826e-15 3.75381 -2.21373)
(-6.7558e-15 3.58791 -3.38071)
(-4.81175e-15 2.7204 -2.3934)
(-8.77557e-15 3.67234 -3.95641)
(-7.18296e-15 2.68486 -3.05171)
(-9.0781e-15 3.09944 -4.51107)
(-1.50693e-14 2.17423 -6.19927)
(-8.45238e-15 0.983945 -4.39686)
(-2.77849e-14 2.35865 -6.47202)
(-1.39991e-14 0.0370443 -3.67048)
(1.7736e-16 -1.62204 0.238339)
(1.36659e-15 -1.858 0.376496)
(9.00453e-15 -3.35797 2.19892)
(1.69156e-14 -4.15079 4.35268)
(3.04836e-14 -9.16815 7.39038)
(3.00502e-14 -9.30024 7.33983)
(4.47619e-14 -15.1242 11.2049)
(3.95585e-14 -12.603 10.1926)
(6.38662e-14 -19.5693 16.6887)
(6.79638e-14 -25.5619 17.9177)
(5.86637e-14 -21.9535 15.9931)
(9.17005e-14 -31.6218 25.2308)
(8.93799e-14 -36.4495 25.3371)
(7.55849e-14 -34.4535 22.0728)
(1.08543e-13 -51.4599 31.911)
(8.52259e-14 -41.0798 25.7006)
(1.35484e-13 -57.4946 41.2216)
(2.10463e-37 0.425221 -1.41183)
(1.98391e-37 0.408613 -1.44696)
(1.85791e-37 0.412226 -1.48382)
(2.4927e-37 0.425278 -1.51967)
(-1.42012e-37 0.444231 -1.5538)
(6.55126e-37 0.469928 -1.58685)
(1.60065e-36 0.503024 -1.61963)
(-1.26246e-35 0.545111 -1.65263)
(4.26141e-35 0.597707 -1.68618)
(-6.31898e-35 0.660969 -1.71949)
(-1.2559e-34 0.731514 -1.75239)
(1.11227e-33 0.807153 -1.78287)
(-2.92302e-33 0.857518 -1.80014)
(-4.10169e-33 0.830491 -1.86926)
(4.42964e-32 0.949471 -2.09463)
(-1.01213e-31 1.62973 -2.21204)
(2.62814e-31 2.65679 -1.95315)
(-4.54595e-30 3.40572 -1.61575)
(2.31311e-29 3.72495 -1.43803)
(-1.18961e-28 3.86865 -1.35692)
(3.75992e-28 4.05819 -1.24006)
(-3.11594e-28 4.19436 -1.11187)
(-7.83355e-28 4.0222 -1.14164)
(1.27422e-27 3.59738 -1.26165)
(-7.27901e-27 3.167 -1.40315)
(4.26327e-26 2.83167 -1.55713)
(-1.85022e-25 2.62939 -1.68136)
(4.21379e-25 2.52487 -1.74221)
(7.18892e-25 2.49691 -1.72545)
(-1.07295e-23 2.60541 -1.628)
(3.71102e-23 2.8766 -1.45822)
(5.19927e-23 3.15705 -1.26145)
(-2.60509e-22 3.22971 -1.12631)
(-5.25484e-22 3.03342 -1.05036)
(-5.02161e-22 2.72647 -0.917103)
(1.33944e-22 2.5032 -0.647047)
(5.05663e-21 2.37994 -0.286249)
(-3.83458e-19 2.26465 0.0523169)
(-2.45571e-18 2.07169 0.352623)
(-2.16479e-18 1.87397 0.598257)
(-1.17264e-18 1.74333 0.804775)
(-2.98487e-20 1.64893 0.990849)
(1.31979e-18 1.6162 1.17626)
(1.70874e-19 1.64708 1.36711)
(-8.45377e-18 1.71065 1.56504)
(-2.70881e-17 1.77729 1.76208)
(-5.26317e-17 1.86839 1.95504)
(-8.94177e-17 2.00959 2.1518)
(-1.73545e-16 2.2102 2.36337)
(-3.38849e-16 2.46942 2.5938)
(-4.10698e-16 2.782 2.84809)
(2.23425e-16 3.12059 3.15937)
(2.13809e-15 3.44398 3.59112)
(4.43801e-15 3.76348 4.15662)
(4.61276e-15 4.18927 4.71395)
(1.27806e-15 4.84698 5.04877)
(-4.26546e-15 5.74489 5.07314)
(-1.06253e-14 6.7685 4.83628)
(-1.77609e-14 7.7811 4.38673)
(-2.6212e-14 8.66597 3.72574)
(-3.53964e-14 9.3022 2.87292)
(-4.385e-14 9.55341 1.90683)
(-5.0259e-14 9.28901 0.95242)
(-5.42942e-14 8.51986 0.174045)
(-5.62955e-14 7.65673 -0.259334)
(-5.50876e-14 7.4076 -0.137147)
(-4.50517e-14 8.21768 0.635957)
(-2.62508e-14 9.60039 1.79341)
(-1.27468e-14 10.9831 2.81381)
(-2.04751e-15 11.2175 3.60335)
(9.06721e-15 8.17528 4.97762)
(1.18684e-14 3.10849 7.30464)
(1.43007e-14 0.0735142 9.44738)
(1.71298e-14 -2.0621 10.3491)
(2.29216e-14 -5.10891 12.4799)
(3.49909e-14 -10.1304 16.6547)
(5.64419e-14 -18.7305 23.5406)
(9.01894e-14 -32.3013 33.9212)
(1.30695e-13 -48.9652 45.2705)
(1.81279e-37 0.430773 -1.532)
(1.69466e-37 0.419092 -1.56425)
(1.46133e-37 0.423288 -1.59506)
(2.41568e-37 0.435859 -1.62632)
(-1.30498e-37 0.454354 -1.65679)
(7.16747e-38 0.479795 -1.68682)
(3.45441e-36 0.512846 -1.71732)
(-1.45527e-35 0.555038 -1.74887)
(3.2937e-35 0.607674 -1.78176)
(-1.07614e-35 0.670839 -1.81516)
(-2.51145e-34 0.740934 -1.84836)
(1.19473e-33 0.814192 -1.88077)
(-2.28711e-33 0.871203 -1.90603)
(-6.25392e-33 0.87545 -1.9877)
(4.54447e-32 1.00251 -2.20843)
(-9.48761e-32 1.61111 -2.32008)
(3.9906e-31 2.56787 -2.07216)
(-5.43497e-30 3.3277 -1.71526)
(3.09377e-29 3.685 -1.50625)
(-1.74191e-28 3.83772 -1.41502)
(6.13637e-28 4.01972 -1.30485)
(-7.15767e-28 4.17742 -1.16689)
(-1.23571e-27 4.04149 -1.18388)
(2.28533e-27 3.632 -1.30869)
(-1.07333e-26 3.20639 -1.44796)
(5.86119e-26 2.86892 -1.5955)
(-2.438e-25 2.65361 -1.72218)
(4.96995e-25 2.52925 -1.79975)
(1.28423e-24 2.47849 -1.81487)
(-1.46326e-23 2.56458 -1.75603)
(4.58109e-23 2.82026 -1.60627)
(7.14662e-23 3.10452 -1.39198)
(-3.74271e-22 3.19424 -1.21828)
(-7.82436e-22 2.99699 -1.11437)
(-6.98065e-22 2.65965 -0.969442)
(6.34609e-23 2.40161 -0.691561)
(4.02529e-21 2.26802 -0.314914)
(-2.84139e-19 2.1614 0.0288031)
(-2.38666e-18 1.98149 0.336167)
(-2.23399e-18 1.79665 0.582465)
(-1.20174e-18 1.674 0.792467)
(-1.07069e-19 1.58167 0.977638)
(1.28453e-18 1.54665 1.16115)
(4.71988e-19 1.57418 1.35382)
(-7.55043e-18 1.63591 1.55969)
(-2.57343e-17 1.70237 1.76609)
(-5.17101e-17 1.79228 1.96829)
(-9.10012e-17 1.92922 2.17611)
(-1.81626e-16 2.12311 2.40265)
(-3.52064e-16 2.37439 2.65111)
(-3.82977e-16 2.67407 2.925)
(4.26387e-16 2.98591 3.26134)
(2.61043e-15 3.27011 3.73137)
(4.92226e-15 3.56754 4.34115)
(4.56287e-15 4.0249 4.92236)
(4.52493e-16 4.76315 5.25152)
(-5.58117e-15 5.75053 5.26429)
(-1.21587e-14 6.84959 5.02655)
(-1.96185e-14 7.93027 4.57117)
(-2.84653e-14 8.88009 3.88553)
(-3.77466e-14 9.56568 2.99933)
(-4.58566e-14 9.83436 2.00837)
(-5.17228e-14 9.54211 1.05014)
(-5.55666e-14 8.69174 0.302396)
(-5.8249e-14 7.6837 -0.0398695)
(-5.86744e-14 7.2371 0.265862)
(-4.87177e-14 7.88238 1.2276)
(-2.78543e-14 9.23256 2.42534)
(-1.1556e-14 10.6822 3.33626)
(5.82835e-16 10.8833 4.05352)
(1.07531e-14 7.66307 5.44485)
(1.20679e-14 2.50941 7.32834)
(1.37862e-14 -0.374447 9.06999)
(1.78319e-14 -2.51572 10.5403)
(2.44806e-14 -5.97389 12.9598)
(3.75825e-14 -11.6037 17.4413)
(6.0617e-14 -20.9986 24.8582)
(9.60698e-14 -35.1159 35.8167)
(1.31942e-13 -50.0328 44.2613)
(1.60081e-37 0.432886 -1.60509)
(1.51045e-37 0.423108 -1.63526)
(1.18856e-37 0.427179 -1.66269)
(2.15654e-37 0.439744 -1.69158)
(1.32036e-38 0.458362 -1.72012)
(-5.18907e-37 0.483996 -1.74847)
(4.02173e-36 0.51735 -1.77776)
(-1.1536e-35 0.55991 -1.8087)
(1.71988e-35 0.612853 -1.84127)
(2.73575e-35 0.676123 -1.87466)
(-2.92664e-34 0.746397 -1.90797)
(1.06618e-33 0.819822 -1.94213)
(-1.32718e-33 0.880735 -1.97273)
(-8.28559e-33 0.898186 -2.05168)
(4.33302e-32 1.02595 -2.25917)
(-9.07727e-32 1.60023 -2.37488)
(4.84826e-31 2.51897 -2.1476)
(-5.99116e-30 3.27839 -1.78789)
(3.77432e-29 3.65795 -1.55766)
(-2.31142e-28 3.82223 -1.45383)
(8.94745e-28 4.00129 -1.34726)
(-1.33939e-27 4.16738 -1.20788)
(-1.65903e-27 4.05446 -1.21066)
(3.88298e-27 3.65671 -1.33431)
(-1.53286e-26 3.23203 -1.47126)
(7.79275e-26 2.89363 -1.61175)
(-3.05477e-25 2.67453 -1.74218)
(5.28166e-25 2.54328 -1.83503)
(2.05701e-24 2.48327 -1.87066)
(-1.86302e-23 2.5548 -1.83524)
(5.20811e-23 2.79316 -1.70249)
(9.72614e-23 3.07066 -1.48437)
(-4.79345e-22 3.1688 -1.2877)
(-1.06554e-21 2.97754 -1.15852)
(-9.42377e-22 2.62984 -1.0015)
(-1.4373e-23 2.35405 -0.721184)
(2.99332e-21 2.21563 -0.337074)
(-2.32505e-19 2.11575 0.0137119)
(-2.31937e-18 1.94496 0.328194)
(-2.28486e-18 1.76929 0.577338)
(-1.18441e-18 1.65249 0.793221)
(-5.27691e-20 1.56379 0.985177)
(1.34394e-18 1.52956 1.17864)
(3.43965e-19 1.55593 1.37986)
(-8.08319e-18 1.61681 1.59217)
(-2.655e-17 1.68435 1.80498)
(-5.33505e-17 1.77518 2.01562)
(-9.89683e-17 1.91097 2.23514)
(-2.08559e-16 2.10246 2.47542)
(-3.88335e-16 2.35087 2.73711)
(-3.17541e-16 2.64341 3.02669)
(7.98091e-16 2.93783 3.39075)
(3.26278e-15 3.19982 3.9029)
(5.29227e-15 3.49376 4.54088)
(4.0753e-15 3.98128 5.105)
(-7.10611e-16 4.76617 5.3943)
(-6.86056e-15 5.79288 5.38796)
(-1.34244e-14 6.92363 5.15014)
(-2.10483e-14 8.03796 4.68808)
(-2.99861e-14 9.02058 3.98658)
(-3.90011e-14 9.72704 3.08955)
(-4.65339e-14 9.99652 2.10357)
(-5.17709e-14 9.679 1.1689)
(-5.5291e-14 8.77188 0.465828)
(-5.83163e-14 7.67252 0.213937)
(-5.99057e-14 7.1312 0.671631)
(-5.01408e-14 7.73159 1.74579)
(-2.7903e-14 9.11143 2.91498)
(-1.00985e-14 10.5984 3.72133)
(2.72409e-15 10.729 4.43065)
(1.196e-14 7.40461 5.89582)
(1.24683e-14 2.25376 7.66856)
(1.4133e-14 -0.639146 9.18234)
(1.88175e-14 -2.9274 10.8248)
(2.6502e-14 -6.71665 13.5889)
(4.10769e-14 -12.9256 18.5426)
(6.62972e-14 -23.0351 26.7329)
(1.02334e-13 -37.2188 37.8184)
(1.2906e-13 -48.4104 42.1584)
(1.38127e-37 0.436494 -1.68577)
(1.32344e-37 0.429197 -1.71416)
(9.72978e-38 0.433731 -1.73856)
(1.71889e-37 0.446232 -1.76516)
(1.49212e-37 0.464757 -1.79197)
(-8.37566e-37 0.490432 -1.81902)
(3.76678e-36 0.524024 -1.84754)
(-8.13413e-36 0.5669 -1.87823)
(5.51345e-36 0.620061 -1.91075)
(5.20857e-35 0.68339 -1.94431)
(-3.09055e-34 0.753752 -1.97801)
(9.12553e-34 0.826817 -2.01357)
(-5.10022e-34 0.892765 -2.04928)
(-9.6163e-33 0.929613 -2.12789)
(4.11568e-32 1.06183 -2.32184)
(-8.4281e-32 1.58888 -2.43837)
(5.49218e-31 2.45611 -2.23111)
(-6.53383e-30 3.21491 -1.87031)
(4.61098e-29 3.6212 -1.61897)
(-3.08677e-28 3.79859 -1.50129)
(1.3081e-27 3.97435 -1.39634)
(-2.38483e-27 4.15178 -1.254)
(-1.97085e-27 4.0666 -1.24181)
(6.58847e-27 3.68331 -1.36081)
(-2.2216e-26 3.26081 -1.49672)
(1.04786e-25 2.92203 -1.63504)
(-3.89043e-25 2.69814 -1.77304)
(5.71373e-25 2.55633 -1.88193)
(3.04288e-24 2.48196 -1.93669)
(-2.37644e-23 2.5355 -1.92114)
(6.02245e-23 2.75486 -1.80265)
(1.32138e-22 3.02539 -1.58125)
(-6.12907e-22 3.13213 -1.36406)
(-1.43954e-21 2.94404 -1.20994)
(-1.27382e-21 2.57953 -1.03681)
(-1.02607e-22 2.27899 -0.750803)
(1.68341e-21 2.13229 -0.359189)
(-1.77392e-19 2.03926 -0.00167168)
(-2.23957e-18 1.87892 0.319232)
(-2.36056e-18 1.7131 0.569712)
(-1.19707e-18 1.60175 0.789188)
(-6.44567e-20 1.51425 0.981829)
(1.32518e-18 1.47794 1.17776)
(4.22596e-19 1.502 1.38352)
(-7.71111e-18 1.56158 1.60204)
(-2.57893e-17 1.6286 1.82303)
(-5.37859e-17 1.71768 2.04456)
(-1.07915e-16 1.84948 2.27696)
(-2.36899e-16 2.03596 2.53083)
(-4.11778e-16 2.27856 2.80629)
(-2.06803e-16 2.55924 3.11378)
(1.2125e-15 2.8288 3.50803)
(3.84833e-15 3.06125 4.06036)
(5.47458e-15 3.35052 4.72049)
(3.47623e-15 3.8763 5.271)
(-1.78972e-15 4.72335 5.5383)
(-7.99763e-15 5.80902 5.52819)
(-1.46156e-14 6.99223 5.29415)
(-2.24384e-14 8.1592 4.82618)
(-3.14381e-14 9.18991 4.11172)
(-4.0137e-14 9.92734 3.2084)
(-4.70711e-14 10.201 2.2338)
(-5.16831e-14 9.85316 1.32787)
(-5.49378e-14 8.87082 0.667354)
(-5.83492e-14 7.64142 0.501089)
(-6.09542e-14 6.95308 1.10602)
(-5.14332e-14 7.47414 2.29354)
(-2.77325e-14 8.88331 3.44468)
(-8.4184e-15 10.4201 4.17028)
(4.98082e-15 10.4821 4.90056)
(1.32534e-14 7.04741 6.42583)
(1.30267e-14 1.89403 8.06586)
(1.46954e-14 -0.979995 9.44497)
(2.00312e-14 -3.38104 11.2545)
(2.88738e-14 -7.49569 14.4203)
(4.51734e-14 -14.2349 19.9877)
(7.22508e-14 -24.8391 28.851)
(1.06986e-13 -38.475 39.3464)
(1.26806e-13 -46.7809 41.0319)
(1.19003e-37 0.439094 -1.76292)
(1.16432e-37 0.433547 -1.78957)
(8.35141e-38 0.438291 -1.81126)
(1.25819e-37 0.450857 -1.83589)
(2.5621e-37 0.469572 -1.86144)
(-9.54824e-37 0.495545 -1.88785)
(3.10439e-36 0.529577 -1.91619)
(-4.54706e-36 0.572917 -1.94701)
(-4.82338e-36 0.626411 -1.97964)
(7.02978e-35 0.689874 -2.01335)
(-3.04421e-34 0.760548 -2.04732)
(7.25618e-34 0.834151 -2.084)
(2.44538e-34 0.903967 -2.12365)
(-1.04576e-32 0.954168 -2.20052)
(3.74431e-32 1.09067 -2.37915)
(-7.24375e-32 1.58211 -2.49454)
(5.62737e-31 2.40229 -2.30964)
(-6.90603e-30 3.15392 -1.95396)
(5.57113e-29 3.58321 -1.68414)
(-4.10203e-28 3.77637 -1.55093)
(1.89917e-27 3.95061 -1.44583)
(-4.09047e-27 4.13573 -1.30144)
(-1.80953e-27 4.07607 -1.2733)
(1.10601e-26 3.70801 -1.38353)
(-3.27509e-26 3.28755 -1.51814)
(1.41825e-25 2.94951 -1.65791)
(-4.99661e-25 2.72411 -1.80702)
(6.19352e-25 2.57515 -1.93181)
(4.3137e-24 2.4895 -2.00189)
(-3.02201e-23 2.52573 -2.00133)
(6.97434e-23 2.7231 -1.89438)
(1.78462e-22 2.9814 -1.67194)
(-7.75809e-22 3.09347 -1.43798)
(-1.92038e-21 2.91044 -1.25973)
(-1.71117e-21 2.53484 -1.06841)
(-2.45145e-22 2.21418 -0.775714)
(5.51498e-22 2.06089 -0.378755)
(-1.33495e-19 1.97517 -0.0150431)
(-2.15004e-18 1.82595 0.311634)
(-2.45142e-18 1.6706 0.563059)
(-1.22127e-18 1.56543 0.787071)
(-5.92348e-20 1.48111 0.982842)
(1.33475e-18 1.44399 1.1828)
(5.4026e-19 1.46567 1.39381)
(-7.35671e-18 1.52344 1.6197)
(-2.52504e-17 1.5902 1.84962)
(-5.50766e-17 1.67847 2.08101)
(-1.19338e-16 1.80741 2.32371)
(-2.67964e-16 1.98985 2.58866)
(-4.27078e-16 2.22705 2.87632)
(-6.29357e-17 2.49526 3.20144)
(1.66078e-15 2.73985 3.62632)
(4.3939e-15 2.94739 4.2163)
(5.53303e-15 3.24062 4.89192)
(2.7855e-15 3.80709 5.42517)
(-2.85163e-15 4.70674 5.67324)
(-9.05372e-15 5.83748 5.66328)
(-1.57164e-14 7.06326 5.43532)
(-2.37041e-14 8.27658 4.96424)
(-3.26708e-14 9.34877 4.24266)
(-4.09523e-14 10.1093 3.3437)
(-4.71911e-14 10.3807 2.39551)
(-5.11607e-14 10.0001 1.53132)
(-5.42198e-14 8.94158 0.917643)
(-5.80669e-14 7.58242 0.840057)
(-6.14783e-14 6.76667 1.58964)
(-5.21406e-14 7.24951 2.87142)
(-2.71231e-14 8.71656 3.98581)
(-6.53119e-15 10.2917 4.64116)
(7.22503e-15 10.2638 5.42256)
(1.45081e-14 6.74557 7.00713)
(1.37154e-14 1.63194 8.51137)
(1.55036e-14 -1.29097 9.80013)
(2.1526e-14 -3.91448 11.8423)
(3.16463e-14 -8.42593 15.4779)
(4.97578e-14 -15.7332 21.723)
(7.8153e-14 -26.702 31.0021)
(1.10459e-13 -39.4858 40.2645)
(1.20933e-13 -45.0004 38.4228)
(1.03451e-37 0.441992 -1.83892)
(1.03607e-37 0.438032 -1.86414)
(7.62989e-38 0.443181 -1.88365)
(8.43165e-38 0.455938 -1.90673)
(3.22385e-37 0.474903 -1.9315)
(-9.00813e-37 0.501203 -1.95779)
(2.19469e-36 0.535668 -1.98638)
(-1.19054e-36 0.579419 -2.0175)
(-1.26161e-35 0.633177 -2.05028)
(7.93556e-35 0.696761 -2.08408)
(-2.78824e-34 0.767772 -2.11834)
(5.22639e-34 0.842006 -2.15583)
(8.76227e-34 0.916007 -2.19841)
(-1.06961e-32 0.979692 -2.27325)
(3.20386e-32 1.1199 -2.43701)
(-4.96536e-32 1.5758 -2.54937)
(4.95972e-31 2.3487 -2.38607)
(-7.00479e-30 3.09043 -2.03951)
(6.66707e-29 3.5411 -1.75432)
(-5.43015e-28 3.75125 -1.60484)
(2.73928e-27 3.92524 -1.4974)
(-6.81638e-27 4.11735 -1.35077)
(-4.58268e-28 4.08304 -1.30652)
(1.81981e-26 3.73199 -1.40423)
(-4.9291e-26 3.31543 -1.53751)
(1.92738e-25 2.97953 -1.68379)
(-6.46696e-25 2.75301 -1.84777)
(6.7733e-25 2.59555 -1.98826)
(5.93e-24 2.4969 -2.07063)
(-3.83412e-23 2.51505 -2.08039)
(8.10628e-23 2.68994 -1.98081)
(2.38796e-22 2.93464 -1.75759)
(-9.75691e-22 3.05013 -1.51007)
(-2.5344e-21 2.87088 -1.30939)
(-2.28106e-21 2.48402 -1.09828)
(-4.58541e-22 2.14307 -0.797056)
(-3.69788e-22 1.98243 -0.395972)
(-9.71827e-20 1.90352 -0.0268186)
(-2.0524e-18 1.76563 0.304874)
(-2.55801e-18 1.62029 0.556392)
(-1.27364e-18 1.52026 0.78388)
(-6.2903e-20 1.43773 0.982554)
(1.33727e-18 1.3986 1.18738)
(6.69472e-19 1.41751 1.40419)
(-6.88738e-18 1.47337 1.63673)
(-2.44252e-17 1.53938 1.87375)
(-5.64297e-17 1.62607 2.11313)
(-1.32516e-16 1.75133 2.36524)
(-3.00743e-16 1.92904 2.64093)
(-4.31918e-16 2.15979 2.94079)
(1.15666e-16 2.41328 3.2844)
(2.13622e-15 2.63031 3.74073)
(4.8836e-15 2.81328 4.36554)
(5.46215e-15 3.11439 5.0513)
(2.02342e-15 3.72522 5.56773)
(-3.86249e-15 4.67954 5.80399)
(-1.00087e-14 5.85868 5.80068)
(-1.67281e-14 7.13251 5.5812)
(-2.4859e-14 8.39693 5.10936)
(-3.37048e-14 9.5121 4.38658)
(-4.15033e-14 10.294 3.50267)
(-4.70028e-14 10.5606 2.59508)
(-5.03776e-14 10.146 1.78304)
(-5.34017e-14 9.00525 1.21822)
(-5.77546e-14 7.50277 1.23087)
(-6.1708e-14 6.55179 2.1188)
(-5.23439e-14 7.00334 3.47251)