/*--------------------------------*- C++ -*----------------------------------*\
| =========                 |                                                 |
| \\      /  F ield         | OpenFOAM: The Open Source CFD Toolbox           |
|  \\    /   O peration     | Version:  4.1                                   |
|   \\  /    A nd           | Web:      www.OpenFOAM.org                      |
|    \\/     M anipulation  |                                                 |
\*---------------------------------------------------------------------------*/
FoamFile
{
    version     2.0;
    format      ascii;
    class       volScalarField;
    location    "1";
    object      p;
}
// * * * * * * * * * * * * * * * * * * * * * * * * * * * * * * * * * * * * * //

dimensions      [0 2 -2 0 0 0 0];

internalField   nonuniform List<scalar> 
6785
(
472.921
394.307
347.287
293.877
247.239
202.371
160.679
121.285
84.1903
49.2302
15.7292
-16.9351
-45.3454
-74.6233
-114.609
-146.427
-164.423
-154.371
-161.618
-160.913
-163.286
-163.793
-164.148
-163.535
-162.132
-159.729
-156.605
-152.534
-147.257
-142.683
-123.051
-125.703
-115.808
-119.281
-114.34
-114.469
-112.584
-111.78
-110.789
-109.926
-109.098
-108.286
-107.331
-107.021
-102.397
-69.3504
-69.3975
-64.059
-68.1979
-64.3554
-65.4963
-64.3924
-63.8677
-63.039
-61.999
-60.6499
-59.1445
-57.0269
-55.6926
-52.2998
-54.1814
-53.5776
-50.5142
-52.7312
-49.5012
-49.7031
-48.2746
-47.1945
-45.9862
-44.7584
-43.3386
-42.0865
-40.5986
-39.6153
-38.0066
-44.2518
-44.9959
-42.5529
-44.7573
-42.1096
-42.9783
-42.1676
-41.9396
-41.6057
-41.402
-41.0506
-40.9811
-40.7353
-40.9016
-40.6392
-40.4814
-42.9133
-40.2207
-42.7924
-40.5882
-41.6238
-41.0785
-41.1078
-40.9665
-40.9603
-40.7612
-40.8114
-40.6475
-40.7862
-40.5195
-39.7839
-42.5089
-39.318
-41.6845
-39.9637
-40.5847
-40.1281
-40.0755
-39.8762
-39.8082
-39.5654
-39.533
-39.3476
-39.3982
-39.0305
-37.4697
-39.4458
-36.5558
-38.5821
-37.3615
-37.7798
-37.4943
-37.4932
-37.385
-37.3705
-37.2454
-37.2276
-37.1715
-37.2276
-36.9274
-36.3806
-37.639
-35.4051
-37.1059
-36.1786
-36.6079
-36.4027
-36.4708
-36.4478
-36.4402
-36.4445
-36.3786
-36.4559
-36.475
-36.2601
-34.1555
-35.162
-33.5234
-35.044
-34.2925
-34.8247
-34.6851
-34.8407
-34.9307
-34.9274
-35.1082
-34.9868
-35.252
-35.2226
-35.1634
-36.2719
-37.0568
-35.8351
-37.0963
-36.3657
-36.8869
-36.6768
-36.7842
-36.8514
-36.7013
-36.9333
-36.5905
-36.931
-36.7042
-36.6463
-33.9499
-34.6152
-33.7439
-34.7936
-34.1253
-34.6026
-34.3106
-34.346
-34.3596
-34.0412
-34.2873
-33.7283
-34.0867
-33.7331
-33.5733
-40.8494
-41.7378
-41.0732
-41.822
-41.0415
-41.1331
-40.4666
-39.9207
-39.3474
-38.2015
-37.7742
-36.266
-35.7604
-34.6572
-33.2557
-47.6431
-44.5094
-40.9904
-39.2087
-35.1305
-32.4712
-28.4319
-24.8764
-21.5451
-17.8058
-15.2303
-11.9742
-10.491
-7.94952
-7.49184
2.29539
2.29908
2.31491
2.30394
2.30985
2.30381
2.32114
2.32112
2.3279
2.31948
2.33845
2.33968
2.32194
2.333
2.33752
2.35996
2.38203
2.39018
2.42253
2.47635
2.49319
2.52933
2.5795
2.53714
2.57002
2.62414
2.67733
2.6521
2.70354
2.80003
2.7676
2.76979
2.85149
2.95355
2.84918
2.88319
3.0834
2.97819
2.95739
3.06122
3.27432
3.20256
3.10788
3.24885
3.51868
3.35861
3.22563
3.73839
3.53694
3.26132
3.42115
3.93939
3.80384
3.2828
3.47984
4.13729
3.78601
2.99603
4.18956
3.74169
2.52467
2.65972
3.84616
3.28393
1.25724
3.35233
2.66088
-0.203905
-0.399495
1.60329
1.38439
-3.31443
-3.70589
-0.96361
-1.5698
-9.34365
-4.5329
-4.19959
-18.0376
-11.2617
-6.75037
-6.79606
-7.37582
-17.5744
-5.80269
-4.49022
-4.73068
-5.35665
-5.95518
-6.70851
-7.37375
-9.2055
-12.9595
-9.31414
-9.86232
-10.0183
-10.4941
-10.9669
-11.4477
-11.4884
-12.9849
-17.1769
-14.0654
-14.4866
-14.6574
-15.1997
-15.7557
-16.4982
-17.1526
-17.7923
-19.2895
-23.4961
-21.9372
-22.4481
-22.837
-23.5618
-24.3308
-25.1533
-26.0725
-27.7898
-33.3986
-31.1394
-31.4996
-31.8038
-32.4441
-33.1713
-33.9855
-34.8111
-36.5496
-43.3331
-40.3185
-40.4357
-40.4215
-40.784
-41.3047
-41.9796
-42.8251
-44.4335
-50.8765
-47.3105
-46.9605
-46.7502
-46.9005
-47.106
-47.8018
-48.3848
-49.3166
-50.9809
-57.0369
-51.6437
-51.2301
-51.404
-51.9737
-52.6221
-53.7803
-54.247
-55.3225
-60.049
-51.9222
-52.3347
-52.9913
-49.3246
-52.8786
-47.0048
-46.7646
-41.5781
-37.4444
-35.5478
-30.7438
-27.1753
-24.1674
-22.3498
-21.0897
-20.8487
-20.7632
-20.4203
-20.1051
-19.2245
-18.8597
-18.259
-17.1282
-17.2221
-16.7996
-14.2535
-15.4183
-14.6943
-13.5279
-13.8811
-10.1825
-12.3394
-12.3073
-10.8581
-11.7725
-7.26086
-9.46066
-11.8578
-5.42485
-8.65584
-9.78886
-7.72588
-9.57016
-3.47183
-7.15157
-8.47723
-6.40724
-8.32182
-2.20068
-5.2793
-8.96405
-0.987779
-5.04421
-6.89431
-4.5098
-6.85129
0.0912376
-4.1229
-5.87724
-3.62807
-5.85271
0.790437
-2.64406
-6.73874
1.75322
-2.63942
-4.7242
-2.268
-4.80494
2.44569
-2.04979
-3.96751
-1.70398
-4.09824
2.76544
-0.912823
-5.31149
3.51445
-1.308
-3.45811
-1.36976
-3.5049
7.21917e-07
2.09671e-06
3.91992e-06
5.88177e-06
8.21592e-06
1.07931e-05
1.37106e-05
1.69327e-05
2.0521e-05
2.44811e-05
2.88645e-05
3.37055e-05
3.90569e-05
4.49731e-05
5.15183e-05
5.87637e-05
6.679e-05
7.56873e-05
8.55567e-05
9.65109e-05
0.000108676
0.000122192
0.000137217
0.000153924
0.00017251
0.000193189
0.000216205
0.000241827
0.000270354
0.000302121
0.000337499
0.000376903
0.000420791
0.000469677
0.00052413
0.000584782
0.000652335
0.00072757
0.00081135
0.000904631
0.00100847
0.00112404
0.00125262
0.00139562
0.0015546
0.00173123
0.00192734
0.0021449
0.002386
0.00265284
0.0029477
0.00327287
0.00363056
0.00402276
0.00445105
0.00491627
0.00541807
0.00595429
0.00652002
0.00710624
0.00769796
0.00827152
0.00879083
0.00920223
0.00942755
0.009355
0.00882799
0.00763169
0.00548213
0.00199076
-0.00317487
-0.0109212
-0.0207426
-0.0349749
-0.0506346
-0.0709751
-0.0908615
-0.148915
-0.121731
2.14248e-06
6.28011e-06
1.17882e-05
1.77121e-05
2.47261e-05
3.24736e-05
4.12281e-05
5.0896e-05
6.16561e-05
7.35294e-05
8.66689e-05
0.000101179
0.000117217
0.000134947
0.000154561
0.000176273
0.000200324
0.000226985
0.000256557
0.000289379
0.000325827
0.000366323
0.000411334
0.000461385
0.000517057
0.000578999
0.000647934
0.000724667
0.000810093
0.000905212
0.00101113
0.00112909
0.00126046
0.00140676
0.0015697
0.00175117
0.00195325
0.00217826
0.00242878
0.00270765
0.00301802
0.00336335
0.00374746
0.00417454
0.00464917
0.00517633
0.00576143
0.00641025
0.00712897
0.00792408
0.00880224
0.00977016
0.0108343
0.0120004
0.0132729
0.0146542
0.0161429
0.0177324
0.0194079
0.0211422
0.0228909
0.0245834
0.0261131
0.0273213
0.0279772
0.0277513
0.0261819
0.0226355
0.0162727
0.00594643
-0.00934352
-0.0322685
-0.0614343
-0.10364
-0.150483
-0.209719
-0.271695
-0.326144
-0.334451
3.46412e-06
1.0304e-05
1.95814e-05
2.95134e-05
4.12578e-05
5.42173e-05
6.88521e-05
8.50081e-05
0.000102984
0.000122816
0.00014476
0.00016899
0.000195771
0.000225376
0.000258126
0.000294378
0.000334535
0.000379048
0.000428422
0.000483221
0.000544075
0.000611685
0.000686835
0.000770397
0.000863343
0.000966757
0.00108184
0.00120995
0.00135257
0.00151136
0.00168819
0.00188511
0.00210441
0.00234865
0.00262065
0.00292357
0.0032609
0.0036365
0.00405468
0.00452017
0.00503822
0.00561462
0.00625574
0.00696855
0.00776071
0.00864052
0.00961699
0.0106998
0.0118992
0.0132261
0.0146915
0.0163067
0.0180823
0.0200281
0.0221514
0.0244562
0.0269402
0.0295923
0.0323879
0.0352819
0.0381999
0.0410247
0.0435783
0.0455961
0.0466935
0.0463205
0.0437066
0.0377941
0.0271795
0.00994922
-0.0155886
-0.053859
-0.102636
-0.173149
-0.251521
-0.351089
-0.455179
-0.543884
-0.62623
4.77864e-06
1.43443e-05
2.73961e-05
4.13556e-05
5.78373e-05
7.60185e-05
9.65358e-05
0.000119182
0.000144371
0.000172159
0.000202902
0.000236847
0.000274362
0.000315833
0.000361708
0.000412487
0.000468736
0.000531087
0.000600246
0.000677003
0.00076224
0.00085694
0.0009622
0.00107924
0.00120942
0.00135427
0.00151546
0.00169487
0.00189462
0.00211701
0.00236465
0.00264042
0.00294754
0.00328956
0.00367046
0.00409463
0.00456696
0.00509287
0.00567836
0.00633008
0.00705535
0.00786227
0.00875974
0.00975753
0.0108663
0.0120977
0.0134643
0.0149796
0.0166581
0.0185147
0.020565
0.0228247
0.0253088
0.0280307
0.0310007
0.0342244
0.0376987
0.0414082
0.0453184
0.0493667
0.0534495
0.0574035
0.0609809
0.0638132
0.0653643
0.0648675
0.0612479
0.0530286
0.0382452
0.0142242
-0.0214356
-0.0748866
-0.1432
-0.241882
-0.351981
-0.491893
-0.639315
-0.779693
-0.950927
6.05636e-06
1.83537e-05
3.5208e-05
5.3222e-05
7.4462e-05
9.78843e-05
0.000124299
0.000153449
0.000185862
0.000221617
0.000261169
0.000304837
0.000353097
0.000406443
0.000465452
0.00053077
0.000603123
0.000683323
0.000772281
0.000871011
0.000980648
0.00110246
0.00123785
0.00138839
0.00155583
0.00174212
0.00194944
0.0021802
0.0024371
0.00272312
0.0030416
0.00339626
0.00379122
0.00423105
0.00472086
0.00526631
0.00587366
0.00654989
0.0073027
0.00814062
0.00907308
0.0101105
0.0112642
0.0125469
0.0139721
0.0155549
0.0173114
0.0192589
0.0214159
0.0238018
0.0264365
0.02934
0.0325317
0.0360288
0.0398446
0.0439862
0.0484499
0.053216
0.0582405
0.0634437
0.068693
0.0737804
0.0783887
0.0820475
0.0840709
0.0834782
0.0788923
0.0684196
0.0495349
0.0188053
-0.0269026
-0.0954513
-0.183339
-0.310222
-0.452407
-0.633347
-0.824323
-0.980031
-1.15622
7.32204e-06
2.23762e-05
4.30412e-05
6.5129e-05
9.11379e-05
0.000119812
0.00015213
0.000187788
0.000227427
0.000271149
0.000319507
0.000372896
0.000431895
0.000497111
0.000569249
0.000649098
0.000737547
0.000835588
0.000944334
0.00106503
0.00119905
0.00134795
0.00151346
0.00169748
0.00190216
0.00212989
0.00238331
0.00266538
0.00297939
0.003329
0.00371829
0.00415177
0.0046345
0.00517207
0.00577071
0.00643732
0.00717957
0.00800597
0.00892592
0.00994985
0.0110893
0.0123568
0.0137665
0.0153336
0.0170749
0.0190086
0.0211543
0.0235333
0.0261681
0.0290823
0.0323003
0.0358466
0.0397446
0.0440156
0.048676
0.0537343
0.0591864
0.0650087
0.0711481
0.0775082
0.0839286
0.0901571
0.0958099
0.100316
0.102844
0.102202
0.0967157
0.0840796
0.0612088
0.0239136
-0.0316951
-0.115175
-0.222603
-0.377638
-0.552299
-0.774845
-1.01143
-1.25014
-1.45443
8.57397e-06
2.64118e-05
5.08971e-05
7.70773e-05
0.000107865
0.000141802
0.000180027
0.000222197
0.000269061
0.000320747
0.000377907
0.00044101
0.000510741
0.000587818
0.000673074
0.000767443
0.000871975
0.000987842
0.00111636
0.001259
0.00141739
0.00159336
0.00178895
0.00200643
0.00224832
0.00251744
0.00281692
0.00315025
0.00352132
0.00393445
0.00439445
0.00490668
0.00547707
0.00611226
0.00681957
0.00760719
0.00848414
0.00946048
0.0105473
0.0117569
0.0131029
0.0146002
0.0162654
0.0181164
0.020173
0.0224568
0.0249909
0.0278004
0.0309118
0.034353
0.0381528
0.0423401
0.0469427
0.0519857
0.0574885
0.0634615
0.0699002
0.0767773
0.0840312
0.0915491
0.099144
0.106521
0.113231
0.118606
0.121672
0.12103
0.114714
0.100011
0.0732784
0.0295714
-0.0357797
-0.134016
-0.26096
-0.444127
-0.651726
-0.9161
-1.19936
-1.44402
-1.69139
9.82009e-06
3.04736e-05
5.87839e-05
8.90728e-05
0.000124647
0.000163853
0.000207986
0.000256667
0.000310751
0.000370395
0.000436347
0.000509154
0.000589603
0.000678525
0.000776882
0.000885752
0.00100634
0.00114001
0.00128828
0.00145283
0.00163556
0.00183857
0.00206421
0.00231509
0.00259414
0.00290459
0.00325007
0.00363459
0.00406263
0.00453919
0.00506981
0.00566065
0.00631858
0.00705122
0.00786704
0.00877545
0.00978687
0.0109129
0.0121663
0.0135613
0.0151134
0.0168401
0.0187601
0.0208944
0.0232657
0.0258988
0.0288204
0.0320594
0.0356463
0.0396133
0.0439936
0.0488205
0.0541262
0.0599395
0.0662833
0.0731698
0.0805945
0.0885266
0.0968964
0.105576
0.114353
0.122891
0.130678
0.136952
0.140601
0.140024
0.13297
0.116324
0.0858892
0.0359659
-0.0389209
-0.151689
-0.298086
-0.509345
-0.750389
-1.05772
-1.38886
-1.66578
-1.94463
1.10632e-05
3.45666e-05
6.67058e-05
0.000101118
0.000141482
0.000185963
0.000236002
0.000291191
0.000352487
0.000420078
0.00049481
0.000577303
0.000668452
0.000769199
0.000880634
0.00100398
0.0011406
0.00129204
0.00146002
0.00164645
0.00185346
0.00208346
0.0023391
0.00262333
0.00293946
0.00329118
0.00368256
0.00411818
0.0046031
0.00514296
0.00574405
0.00641336
0.00715865
0.00798855
0.00891265
0.00994159
0.0110872
0.0123625
0.0137821
0.015362
0.0171199
0.0190753
0.0212496
0.0236665
0.0263517
0.0293331
0.0326412
0.0363085
0.0403696
0.044861
0.0498202
0.0552851
0.061292
0.0678741
0.0750573
0.0828561
0.0912659
0.100253
0.109741
0.119587
0.129554
0.139267
0.148154
0.155362
0.159645
0.159209
0.151521
0.133073
0.099118
0.0432027
-0.0409792
-0.168019
-0.333782
-0.573081
-0.848107
-1.19917
-1.58061
-1.93629
-2.22642
1.23068e-05
3.86957e-05
7.46661e-05
0.000113214
0.000158371
0.000208128
0.000264068
0.000325758
0.000394254
0.000469778
0.00055327
0.000645429
0.000747253
0.000859797
0.000984278
0.00112206
0.00127468
0.00144385
0.00163149
0.00183974
0.00207099
0.00232791
0.00261347
0.00293097
0.00328411
0.00367698
0.00411417
0.00460075
0.0051424
0.00574541
0.0064168
0.00716436
0.00799678
0.00892367
0.00995576
0.0111049
0.0123843
0.0138086
0.0153939
0.0171581
0.019121
0.0213044
0.0237322
0.0264308
0.0294288
0.0327574
0.0364506
0.0405447
0.0450784
0.0500923
0.0556285
0.0617291
0.0684352
0.0757836
0.0838041
0.0925131
0.101907
0.111949
0.122556
0.133572
0.144737
0.15564
0.165651
0.173831
0.178804
0.17859
0.170382
0.150289
0.113016
0.0513595
-0.0418439
-0.182859
-0.367872
-0.635153
-0.944703
-1.3401
-1.77425
-2.13922
-2.50628
1.35536e-05
4.28641e-05
8.26677e-05
0.000125364
0.000175314
0.000230347
0.000292181
0.000360362
0.000436042
0.000519482
0.000611712
0.000713511
0.000825982
0.00095029
0.00108778
0.00123996
0.00140853
0.00159538
0.00180263
0.00203265
0.00228807
0.00257184
0.00288724
0.00323792
0.00362796
0.00406188
0.00454474
0.00508216
0.00568038
0.00634636
0.00708785
0.00791346
0.00883276
0.00985637
0.0109961
0.0122651
0.0136779
0.0152507
0.0170012
0.0189492
0.0211165
0.0235272
0.0262077
0.029187
0.0324968
0.0361716
0.0402487
0.0447683
0.049773
0.0553079
0.0614193
0.068154
0.0755574
0.0836707
0.092527
0.102146
0.112523
0.123622
0.135352
0.147546
0.159922
0.172034
0.1832
0.192397
0.198129
0.198232
0.189641
0.168085
0.127731
0.0606267
-0.0412739
-0.195911
-0.40001
-0.695192
-1.03979
-1.48093
-1.97016
-2.36599
-2.86745
1.48057e-05
4.70737e-05
9.07119e-05
0.000137566
0.000192307
0.000252613
0.000320332
0.00039499
0.000477836
0.000569168
0.00067011
0.000781519
0.000904601
0.00104063
0.00119109
0.00135763
0.00154209
0.00174656
0.00197336
0.00222506
0.00250457
0.0028151
0.00316025
0.003544
0.00397081
0.00444565
0.00497403
0.0055621
0.0062167
0.00694544
0.00775679
0.00866016
0.00966603
0.010786
0.012033
0.0134215
0.0149672
0.0166878
0.0186028
0.0207339
0.0231049
0.025742
0.0286742
0.0319331
0.0355534
0.0395728
0.0440322
0.0489754
0.0544493
0.0605029
0.0671872
0.0745535
0.0826517
0.0915272
0.101217
0.111743
0.123103
0.135259
0.148114
0.161491
0.175089
0.18843
0.20078
0.211041
0.217599
0.218121
0.209287
0.186461
0.143279
0.0710434
-0.0391995
-0.207068
-0.430054
-0.753043
-1.13318
-1.62152
-2.16746
-2.62687
-3.25396
1.60649e-05
5.13258e-05
9.88001e-05
0.00014982
0.00020935
0.000274924
0.000348514
0.000429634
0.000519625
0.000618823
0.000728446
0.000849429
0.000983083
0.0011308
0.00129417
0.001475
0.00167531
0.00189733
0.0021436
0.00241691
0.00272042
0.00305762
0.00343239
0.00384909
0.00431254
0.00482814
0.00540187
0.00604041
0.00675118
0.00754244
0.00842338
0.00940423
0.0104963
0.0117123
0.0130662
0.0145736
0.0162517
0.0181196
0.0201986
0.022512
0.0250857
0.0279483
0.0311311
0.0346684
0.038598
0.0429606
0.0478007
0.0531659
0.059107
0.0656774
0.0729325
0.0809282
0.0897189
0.0993546
0.109876
0.121308
0.133651
0.146865
0.16085
0.175419
0.190252
0.204844
0.218415
0.229793
0.237258
0.238312
0.229395
0.205517
0.159792
0.0827833
-0.0353942
-0.216042
-0.457656
-0.808322
-1.22447
-1.76169
-2.36538
-2.85343
-3.52416
1.73326e-05
5.56207e-05
0.000106932
0.000162126
0.000226438
0.000297274
0.00037672
0.000464283
0.000561392
0.000668428
0.000786695
0.000917213
0.00106139
0.00122074
0.00139698
0.00159204
0.00180811
0.00204761
0.00231327
0.00260811
0.00293551
0.00329925
0.00370353
0.00415304
0.00465298
0.00520916
0.00582805
0.00651684
0.00728354
0.00813705
0.00908728
0.0101453
0.0113232
0.0126348
0.0140951
0.0157208
0.0175307
0.0195453
0.0217874
0.0242823
0.0270579
0.0301448
0.033577
0.0373915
0.0416288
0.046333
0.0515519
0.0573371
0.0637432
0.070828
0.0786514
0.0872738
0.0967544
0.107148
0.118498
0.130835
0.14416
0.158433
0.173552
0.189319
0.205403
0.221269
0.236096
0.248648
0.257102
0.258807
0.249975
0.225276
0.177316
0.0959215
-0.0297426
-0.222667
-0.482594
-0.860774
-1.31334
-1.90139
-2.56512
-3.1572
-3.89053
1.86099e-05
5.99584e-05
0.000115108
0.000174482
0.00024357
0.000319657
0.000404942
0.000498926
0.000603124
0.000717964
0.000844837
0.000984846
0.0011395
0.00131042
0.00149946
0.00170869
0.00194045
0.00219735
0.0024823
0.00279856
0.00314974
0.00353991
0.00397356
0.00445572
0.00499197
0.00558855
0.00625238
0.00699119
0.00781354
0.00872901
0.0097482
0.0108829
0.0121464
0.013553
0.0151192
0.0168628
0.0188037
0.0209642
0.0233687
0.0260441
0.0290205
0.0323308
0.0360111
0.0401013
0.0446447
0.0496888
0.0552847
0.0614877
0.0683565
0.0759533
0.0843423
0.0935888
0.103757
0.114905
0.127083
0.140323
0.154629
0.169963
0.186219
0.203195
0.220544
0.237711
0.253834
0.267619
0.27715
0.279636
0.271071
0.245803
0.195941
0.110586
-0.022066
-0.226699
-0.504556
-0.91004
-1.39935
-2.03978
-2.76512
-3.38916
-4.18828
1.98977e-05
6.43384e-05
0.000123328
0.000186885
0.000260741
0.000342068
0.000433171
0.000533551
0.000644807
0.000767412
0.000902849
0.0010523
0.00121738
0.00139981
0.00160158
0.0018249
0.00207227
0.00234647
0.00265062
0.00298818
0.00336302
0.00377947
0.00424234
0.00475698
0.00532936
0.00596612
0.00667467
0.00746322
0.00834095
0.00931805
0.0104058
0.0116169
0.0129653
0.0144666
0.0161381
0.0179988
0.0200702
0.0223758
0.0249417
0.0277968
0.0309728
0.0345051
0.0384322
0.0427965
0.0476444
0.0530264
0.0589972
0.0656158
0.0729449
0.081051
0.0900029
0.0998705
0.110723
0.122623
0.135626
0.149767
0.165055
0.18145
0.198849
0.217042
0.235673
0.254166
0.271627
0.286708
0.29741
0.300812
0.292707
0.267137
0.215731
0.126877
-0.012217
-0.227927
-0.523252
-0.95578
-1.48208
-2.17746
-2.96572
-3.65232
-4.50239
2.11967e-05
6.87597e-05
0.00013159
0.000199334
0.000277947
0.0003645
0.000461398
0.000568146
0.000686425
0.000816756
0.000960707
0.00111954
0.00129498
0.00148886
0.00170329
0.00194062
0.00220351
0.00249492
0.00281814
0.00317688
0.00357525
0.00401784
0.00450976
0.00505669
0.00566499
0.00634171
0.00709471
0.00793274
0.00886552
0.00990389
0.0110599
0.0123469
0.0137798
0.0153751
0.0171513
0.0191285
0.0213296
0.0237794
0.0265058
0.0295393
0.0329139
0.0366669
0.0408393
0.0454761
0.0506266
0.0563446
0.062688
0.0697198
0.0775066
0.0861191
0.0956309
0.106117
0.11765
0.1303
0.144125
0.159166
0.175433
0.192893
0.211438
0.230859
0.250788
0.270634
0.289477
0.305921
0.317892
0.322352
0.314911
0.289322
0.236755
0.144898
-3.75872e-05
-0.22612
-0.538368
-0.997608
-1.56102
-2.31364
-3.16726
-3.97148
-4.85931
2.25072e-05
7.32213e-05
0.000139892
0.000211825
0.000295183
0.000386947
0.000489615
0.000602699
0.000727962
0.000865974
0.00101839
0.00118656
0.00137229
0.00157754
0.00180455
0.0020558
0.00233411
0.00264261
0.0029848
0.00336459
0.00378634
0.0042549
0.00477568
0.00535472
0.00599871
0.00671515
0.00751233
0.00839952
0.00938702
0.0104863
0.0117101
0.0130725
0.0145894
0.0162782
0.0181583
0.0202514
0.0225812
0.0251744
0.0280602
0.0312711
0.034843
0.0388152
0.0432312
0.0481388
0.0535901
0.0596418
0.0663556
0.0737979
0.0820396
0.0911557
0.101224
0.112325
0.124536
0.137932
0.152576
0.168515
0.185763
0.204287
0.223984
0.244641
0.265887
0.287116
0.307384
0.325259
0.338602
0.344269
0.337705
0.312397
0.259076
0.16475
0.0146237
-0.221053
-0.54958
-1.03512
-1.63563
-2.44767
-3.3693
-4.22789
-5.21043
2.38296e-05
7.77218e-05
0.000148234
0.000224354
0.000312445
0.0004094
0.00051781
0.000637198
0.000769403
0.000915047
0.00107587
0.0012533
0.00144927
0.00166582
0.00190531
0.00217039
0.00246402
0.00278949
0.00315052
0.00355122
0.00399618
0.00449054
0.00504
0.00565092
0.00633038
0.00708625
0.00792732
0.00886335
0.0099052
0.0110649
0.012356
0.0137934
0.0153937
0.0171753
0.0191588
0.0213668
0.0238246
0.0265601
0.0296043
0.0329914
0.036759
0.040949
0.0456071
0.0507836
0.0565334
0.0629167
0.0699983
0.0778485
0.0865421
0.0961585
0.10678
0.118492
0.131378
0.145517
0.160978
0.177812
0.196039
0.21563
0.236484
0.258388
0.280967
0.303608
0.325349
0.344724
0.359544
0.366574
0.361109
0.336395
0.282751
0.186525
0.0319164
-0.212495
-0.556551
-1.0679
-1.70531
-2.57975
-3.57106
-4.5111
-5.62757
2.5164e-05
8.22598e-05
0.000156613
0.00023692
0.000329727
0.000431853
0.000545975
0.00067163
0.000810731
0.000963956
0.00113313
0.00131976
0.00152588
0.00175364
0.00200553
0.00228434
0.00259317
0.0029355
0.00331522
0.00373668
0.00420469
0.00472467
0.0053026
0.00594517
0.00665983
0.00745487
0.00833951
0.00932402
0.0104198
0.0116396
0.0129976
0.0145093
0.0161924
0.0180662
0.0201522
0.0224744
0.0250592
0.027936
0.0311374
0.0346993
0.0386614
0.0430675
0.0479658
0.0534092
0.0594555
0.0661679
0.0736147
0.0818699
0.0910123
0.101126
0.112298
0.124617
0.138174
0.153052
0.169327
0.187054
0.206259
0.226918
0.248933
0.272094
0.296025
0.320108
0.343368
0.364318
0.380722
0.389273
0.385139
0.361347
0.307832
0.210313
0.0519859
-0.200216
-0.558934
-1.09549
-1.76938
-2.70924
-3.77122
-4.8362
-6.08735
2.65105e-05
8.68336e-05
0.000165026
0.000249517
0.000347024
0.000454298
0.000574099
0.00070598
0.00085193
0.00101268
0.00119014
0.0013859
0.00160209
0.00184098
0.00210517
0.00239759
0.0027215
0.00308056
0.00347883
0.00392088
0.00441177
0.00495716
0.00556334
0.00623732
0.00698692
0.00782082
0.0087487
0.00978132
0.0109307
0.0122101
0.0136343
0.0152199
0.0169852
0.0189504
0.0211382
0.0235736
0.0262844
0.0293014
0.0326588
0.0363941
0.0405491
0.0451697
0.0503063
0.0560145
0.062355
0.069394
0.0772032
0.0858604
0.0954484
0.106055
0.117773
0.130697
0.144921
0.160535
0.177619
0.196237
0.216419
0.238147
0.261329
0.285757
0.311058
0.336612
0.36144
0.384037
0.402136
0.412373
0.409807
0.387277
0.334366
0.236195
0.0749725
-0.183987
-0.556369
-1.1174
-1.82717
-2.8357
-3.96869
-5.12963
-6.41408
2.78689e-05
9.14416e-05
0.000173472
0.000262141
0.00036433
0.000476727
0.000602171
0.000740237
0.000892984
0.0010612
0.00124688
0.00145169
0.00167787
0.00192779
0.00220418
0.0025101
0.00284897
0.00322461
0.00364128
0.00410375
0.00461733
0.00518792
0.00582212
0.00652726
0.0073115
0.00818394
0.0091547
0.010235
0.0114375
0.012776
0.014266
0.0159248
0.0177716
0.0198275
0.0221162
0.0246639
0.0274997
0.0306557
0.0341677
0.0380751
0.0424214
0.0472546
0.0526277
0.0585985
0.0652308
0.0725936
0.0807624
0.0898183
0.0998485
0.110945
0.123206
0.136729
0.151616
0.167962
0.185853
0.205359
0.226517
0.249315
0.273667
0.299372
0.326061
0.353118
0.379561
0.403879
0.423787
0.435875
0.435121
0.414203
0.362392
0.264248
0.10101
-0.16358
-0.54849
-1.13311
-1.87789
-2.95856
-4.16356
-5.5112
-6.84192
2.92391e-05
9.60819e-05
0.000181948
0.000274788
0.000381638
0.00049913
0.00063018
0.000774384
0.000933874
0.0011095
0.00130332
0.00151711
0.00175318
0.00201403
0.00230251
0.00262182
0.00297551
0.00336758
0.00380249
0.00428521
0.00482127
0.00541685
0.00607882
0.00681483
0.00763342
0.00854407
0.00955734
0.010685
0.0119401
0.0133372
0.0148924
0.0166238
0.0185513
0.0206971
0.0230858
0.0257449
0.0287045
0.0319984
0.0356637
0.0397416
0.0442775
0.0493215
0.0549288
0.0611601
0.0680815
0.0757655
0.0842907
0.0937421
0.104211
0.115794
0.128592
0.142712
0.158257
0.17533
0.194025
0.214416
0.236547
0.260416
0.285943
0.312935
0.34103
0.369619
0.397726
0.42384
0.445669
0.459778
0.461084
0.442141
0.391943
0.294538
0.130224
-0.138772
-0.53492
-1.14207
-1.92072
-3.07647
-4.35462
-5.82158
-7.23226
3.06209e-05
0.000100753
0.000190451
0.000287454
0.000398943
0.0005215
0.000658115
0.00080841
0.000974584
0.00115754
0.00135944
0.00158212
0.00182799
0.00209968
0.00240013
0.00273269
0.00310106
0.00350942
0.00396239
0.00446516
0.0050235
0.00564383
0.00633331
0.00709992
0.00795254
0.00890105
0.00995644
0.0111309
0.0124382
0.0138933
0.0155132
0.0173164
0.019324
0.0215588
0.0240467
0.026816
0.0298984
0.0333288
0.037146
0.0413928
0.0461165
0.0513694
0.0572088
0.063698
0.070906
0.0789082
0.0877867
0.0976302
0.108534
0.120599
0.133931
0.148642
0.164841
0.182638
0.202131
0.223404
0.246508
0.271448
0.298153
0.326441
0.35596
0.386111
0.415929
0.443914
0.467777
0.484078
0.487698
0.471098
0.423044
0.327121
0.162732
-0.109347
-0.51528
-1.14371
-1.95478
-3.18946
-4.53987
-6.16641
-7.61306
3.2014e-05
0.000105452
0.000198978
0.000300134
0.000416237
0.000543828
0.000685964
0.000842298
0.0010151
0.00120532
0.00141521
0.00164669
0.00190228
0.00218468
0.00249699
0.00284266
0.00322558
0.00365005
0.00412091
0.00464353
0.00522392
0.00586876
0.00658549
0.0073824
0.00826872
0.00925471
0.0103518
0.0115727
0.0129316
0.0144442
0.016128
0.0180025
0.0200893
0.0224123
0.0249983
0.0278768
0.0310807
0.0346463
0.0386139
0.0430279
0.0479377
0.0533973
0.0594667
0.0662113
0.073703
0.0820205
0.0912489
0.101481
0.112815
0.125358
0.13922
0.154517
0.171366
0.189881
0.210169
0.23232
0.256394
0.282405
0.310293
0.339886
0.370846
0.402588
0.434164
0.464093
0.490104
0.508767
0.514955
0.501074
0.45571
0.362046
0.198638
-0.0750954
-0.489187
-1.13742
-1.97914
-3.2961
-4.71905
-6.5849
-8.06086
3.3418e-05
0.000110179
0.000207526
0.000312823
0.000433514
0.000566104
0.000713716
0.000876035
0.00105539
0.00125282
0.00147061
0.0017108
0.00197599
0.002269
0.00259304
0.00295169
0.00334899
0.00378941
0.00427797
0.00482024
0.00542246
0.00609155
0.00683525
0.00766214
0.0085818
0.00960489
0.0107433
0.0120101
0.0134201
0.0149896
0.0167367
0.0186817
0.0208468
0.0232572
0.0259403
0.0289269
0.032251
0.0359504
0.0400668
0.0446464
0.0497402
0.0554045
0.0617014
0.0686988
0.0764715
0.085101
0.0946759
0.105292
0.117054
0.13007
0.144457
0.160336
0.177829
0.197058
0.218136
0.241161
0.266203
0.293285
0.322358
0.353264
0.385681
0.419042
0.452423
0.484368
0.512639
0.533834
0.542846
0.532065
0.489949
0.399346
0.238037
-0.0358205
-0.456262
-1.12254
-1.9928
-3.39494
-4.89121
-6.93883
-8.49149
3.48324e-05
0.00011493
0.000216091
0.000325516
0.000450767
0.000588318
0.000741358
0.000909605
0.00109545
0.0013
0.00152562
0.00177442
0.00204911
0.0023526
0.00268824
0.00305973
0.00347125
0.00392744
0.0044335
0.00499521
0.00561901
0.0063121
0.00708246
0.00793901
0.00889165
0.00995144
0.0111306
0.0124429
0.0139035
0.0155292
0.017339
0.0193536
0.0215964
0.024093
0.0268722
0.0299657
0.0334088
0.0372405
0.0415041
0.0462474
0.0515233
0.0573901
0.063912
0.0711596
0.0792102
0.0881484
0.0980663
0.109063
0.121247
0.134732
0.149639
0.166095
0.184227
0.204165
0.226028
0.249924
0.27593
0.304082
0.334343
0.36657
0.400458
0.435466
0.470696
0.504729
0.53537
0.559266
0.571357
0.564058
0.525758
0.439046
0.281005
0.00866015
-0.41613
-1.09842
-1.99466
-3.48539
-5.05271
-7.32171
-8.89358
3.62569e-05
0.000119704
0.000224671
0.000338207
0.000467988
0.000610461
0.000768878
0.000942992
0.00113526
0.00134685
0.0015802
0.00183751
0.00212159
0.00243545
0.00278254
0.00316673
0.0035923
0.00406408
0.00458744
0.00516836
0.0058135
0.00653029
0.00732702
0.00821288
0.00919814
0.0102942
0.0115138
0.012871
0.0143815
0.0160629
0.0179346
0.0200181
0.0223375
0.0249195
0.0277937
0.0309929
0.0345535
0.0385161
0.0429252
0.0478304
0.0532863
0.0593532
0.0660976
0.0735925
0.081918
0.0911615
0.101419
0.112792
0.125394
0.139343
0.154765
0.171792
0.190559
0.211199
0.233843
0.258604
0.285571
0.314792
0.346242
0.379797
0.415172
0.451852
0.488974
0.525164
0.558282
0.585043
0.600466
0.597032
0.563122
0.481152
0.327604
0.058511
-0.368427
-1.06437
-1.98361
-3.56585
-5.20211
-7.76033
-9.36337
3.7691e-05
0.0001245
0.000233262
0.000350892
0.00048517
0.000632524
0.000796263
0.000976183
0.0011748
0.00139334
0.00163433
0.00190006
0.0021934
0.0025175
0.00287591
0.00327263
0.00371209
0.00419927
0.00473971
0.0053396
0.00600582
0.00674605
0.00756882
0.00848364
0.00950111
0.010633
0.0118925
0.013294
0.014854
0.0165903
0.0185231
0.0206748
0.02307
0.0257363
0.0287043
0.0320079
0.0356847
0.0397765
0.0443294
0.0493945
0.0550283
0.061293
0.0682573
0.0759966
0.0845936
0.094139
0.104731
0.116477
0.129493
0.143901
0.159833
0.177426
0.19682
0.218158
0.241576
0.267198
0.295123
0.32541
0.358051
0.392939
0.429814
0.468191
0.507246
0.545658
0.581357
0.611146
0.630149
0.63096
0.602019
0.525658
0.377874
0.113875
-0.31281
-1.01971
-1.95851
-3.63473
-5.33826
-8.15817
-9.77407
3.91341e-05
0.000129314
0.000241861
0.000363564
0.000502305
0.000654495
0.000823501
0.00100916
0.00121405
0.00143946
0.001688
0.00196202
0.00226451
0.00259872
0.0029683
0.00337738
0.00383055
0.00433293
0.00489024
0.00550887
0.0061959
0.00695925
0.00780774
0.00875116
0.00980045
0.0109677
0.0122666
0.0137119
0.0153206
0.0171113
0.0191045
0.0213233
0.0237934
0.0265429
0.0296036
0.0330103
0.0368019
0.0410213
0.0457162
0.0509392
0.0567486
0.0632086
0.0703901
0.0783707
0.0872361
0.0970796
0.108003
0.120117
0.133542
0.148404
0.16484
0.182993
0.20301
0.225039
0.249226
0.275703
0.304581
0.335932
0.369764
0.40599
0.444377
0.484472
0.5255
0.566197
0.604577
0.637549
0.660375
0.665806
0.64241
0.57254
0.431834
0.174869
-0.248954
-0.963701
-1.91821
-3.69028
-5.45843
-8.6636
-10.2544
4.05856e-05
0.000134145
0.000250463
0.000376219
0.000519386
0.000676365
0.000850579
0.00104191
0.00125299
0.00148518
0.00174116
0.00202337
0.00233489
0.00267906
0.00305967
0.00348095
0.00394764
0.00446502
0.00503897
0.00567608
0.00638364
0.00716982
0.00804368
0.00901533
0.010096
0.0112982
0.0126359
0.0141245
0.0157814
0.0176255
0.0196784
0.0219636
0.0245074
0.0273391
0.0304912
0.0339997
0.0379045
0.0422499
0.0470849
0.0524638
0.0584465
0.0650993
0.0724951
0.080714
0.0898443
0.0999822
0.111233
0.123711
0.137539
0.15285
0.169784
0.188491
0.209124
0.231839
0.256788
0.284114
0.313941
0.346352
0.381375
0.418943
0.458852
0.500687
0.543722
0.586764
0.627919
0.664225
0.691107
0.701526
0.684249
0.621755
0.48948
0.241578
-0.176569
-0.895639
-1.86147
-3.72968
-5.56337
-9.09791