/*--------------------------------*- C++ -*----------------------------------*\
| =========                 |                                                 |
| \\      /  F ield         | OpenFOAM: The Open Source CFD Toolbox           |
|  \\    /   O peration     | Version:  4.1                                   |
|   \\  /    A nd           | Web:      www.OpenFOAM.org                      |
|    \\/     M anipulation  |                                                 |
\*---------------------------------------------------------------------------*/
FoamFile
{
    version     2.0;
    format      ascii;
    class       surfaceScalarField;
    location    "1";
    object      phi;
}
// * * * * * * * * * * * * * * * * * * * * * * * * * * * * * * * * * * * * * //

dimensions      [0 3 -1 0 0 0 0];

internalField   nonuniform List<scalar> 
13220
(
-819.548
2119.43
-1262.14
1742.77
-1726.1
1763.85
-2060.83
1634.62
-2333.96
1573.31
-2527.36
1493.29
-2650.98
1423.51
-2700.74
1349.95
-2676.88
1276.04
-2575.68
1198.68
-2400.93
1125.44
-2157.78
1056.74
-1785.1
927.195
-1098.95
614.024
200.946
-164.074
2283.48
-353.018
1931.69
-591.016
2001.82
-748.641
1792.22
-907.556
1732.2
-1015.87
1601.58
-1098.62
1506.24
-1145.57
1396.87
-1160.95
1291.4
-1145.7
1183.42
-1101.54
1081.27
-1026.93
982.115
-899.354
799.598
-628.672
343.304
-427.73
16.4533
2267
-86.0686
2034.19
-110.498
2026.23
-90.2466
1771.94
-65.5714
1707.49
-19.9639
1555.94
36.9535
1449.28
101.974
1331.82
172.737
1220.59
245.353
1110.75
321.383
1005.2
395.167
908.25
414.509
780.136
244.432
513.181
-183.298
127.823
2139.16
211.318
1950.67
378.354
1859.17
525.67
1624.6
669.969
1563.18
783.122
1442.77
880.605
1351.78
951.422
1260.98
996.388
1175.61
1009.4
1097.72
993.059
1021.52
941.535
959.78
836.151
885.526
564.792
784.547
381.493
-20.3786
2159.53
99.4856
1830.8
282.31
1676.34
440.738
1466.16
569.971
1433.93
664.092
1348.64
725.354
1290.51
753.948
1232.38
752.856
1176.69
718.462
1132.11
656.249
1083.74
563.468
1052.53
444.457
1004.51
261.994
966.97
643.489
-47.4879
2207.01
-49.5408
1832.84
72.0519
1554.73
213.888
1324.32
319.998
1327.82
397.237
1271.4
444.05
1243.7
464.123
1212.3
461.285
1179.54
435.369
1158.04
390.155
1128.96
325.545
1117.2
246.276
1083.84
137.076
1076.24
780.565
97.149
2109.86
3.96307
1926.03
36.2866
1522.42
126.389
1234.22
210.68
1243.53
264.937
1217.15
297.599
1211.05
311.318
1198.6
307.929
1182.93
289.368
1176.6
258.14
1160.2
214.079
1161.23
157.302
1140.6
87.7151
1145.81
868.28
201.411
1908.46
190.664
1936.78
185.325
1527.76
204.2
1215.35
241.949
1205.8
259.274
1199.83
265.751
1204.59
261.412
1202.94
247.708
1196.65
225.469
1198.86
195.219
1190.46
159.479
1197.02
112.248
1187.87
67.965
1190.15
936.245
192.337
1716.13
298.692
1830.43
324.273
1502.19
309.175
1230.46
300.606
1214.37
286.648
1213.8
270.751
1220.48
250.589
1223.11
226.269
1220.98
200.05
1225.08
167.986
1222.52
135.994
1228.99
94.9078
1228.94
66.0562
1218.98
1002.3
138.732
1577.41
281.491
1687.68
332.499
1451.19
316.011
1246.96
288.86
1241.54
263.795
1238.87
239.605
1244.68
216.253
1246.47
190.468
1246.77
166.545
1249.02
138.822
1250.25
114.923
1252.93
82.2096
1261.69
67.5716
1233.66
1069.87
99.1589
1478.26
222.581
1564.28
271.913
1401.88
260.056
1258.84
234.189
1267.42
213.003
1260.08
191.546
1266.16
172.365
1265.67
152.161
1266.99
134.529
1266.66
113.36
1271.44
100.116
1266.18
77.369
1284.45
71.1514
1239.88
1141.03
85.0581
1393.23
163.137
1486.22
194.99
1370.05
188.6
1265.25
170.511
1285.54
156.569
1274.04
141.512
1281.24
127.259
1279.95
111.661
1282.61
100.178
1278.17
83.1975
1288.43
74.9894
1274.42
55.8385
1303.63
63.3349
1232.42
1204.36
76.7583
1316.49
109.774
1453.22
113.319
1366.52
88.0803
1290.51
62.1676
1311.47
40.4053
1295.82
20.6917
1300.97
10.1984
1290.46
0.463343
1292.36
1.0267
1277.62
1.54643
1287.93
16.5707
1259.41
30.5359
1289.68
52.1912
1210.78
1256.55
31.0643
1285.44
9.5596
1474.74
-21.7728
1397.87
-35.086
1303.83
-43.9681
1320.36
-43.6256
1295.49
-36.193
1293.55
-34.6854
1288.96
-27.0156
1284.7
-22.8254
1273.44
-15.3146
1280.42
-10.4196
1254.53
-24.4494
1303.72
-76.3733
1262.71
1180.18
67.6155
57.8632
8.34437
-127.583
-241.943
-381.826
-518.79
-617.759
-694.413
-709.594
-659.296
-582.551
-434.9
-305.575
-0.000364619
-4.42759
4.42715
-4.42774
-4.42804
-4.42802
1.69432
-6.12249
1.6942
1.69412
1.6941
-30.8815
32.5755
-30.882
-30.882
-80.6267
49.7446
-80.6268
-80.6268
-80.6269
-141.789
61.1617
-141.789
-141.789
-201.516
59.7268
-201.516
-201.516
-201.516
-263.19
61.674
-263.19
-263.19
-263.19
-341.712
78.5219
-341.712
-341.712
-430.004
88.2923
-430.004
-430.004
-430.004
-547.983
117.978
-547.983
-547.983
-657.76
109.778
-657.76
-657.76
-657.76
-779.391
121.631
-779.391
-779.391
-779.391
-932.951
153.56
-932.951
-932.951
-1093.02
160.068
-1093.02
-1093.02
-1093.02
-1285.63
192.614
-1285.63
-1285.63
-1285.63
-1527.56
241.93
-1527.56
-1527.56
-1794.46
266.901
-1794.46
-1794.46
-1794.46
-2115.97
321.502
-2115.97
-2115.97
-2475.55
359.579
-2475.55
-2475.55
-2475.55
-2913.03
437.478
-2913.03
-2913.03
-2913.03
-3392.96
479.936
-3392.96
-3392.96
-4104.66
711.7
-4104.66
-4104.66
-3948.44
-3793.22
-3634.41
-4350.61
888.114
-4181.65
-3983.21
-3772.82
-3558.8
-3342.85
-3127.57
-2915.58
-2707.27
-3760.87
1268.08
-3547.89
-3324.72
-3097.37
-2871.51
-2642.06
-2416.85
-2200.4
-1990.01
-3197.53
1421.91
-2980.81
-2750.09
-2512.97
-2270.23
-2024.61
-1778.37
-1532.99
-1290.23
-1051.4
-2703.49
1887.93
-2463.37
-2208.99
-1951.54
-1691.37
-1429.6
-1166.82
-905.258
-646.942
-2626.07
2231.67
-2365.57
-2091.8
-1820.36
-1550.08
-1281.77
-1015.65
-752.005
-489.129
-2737.35
2512.12
-2465.69
-2188.63
-1916.48
-1644.49
-1373.58
-1105.39
-839.848
-573.983
-2987.99
2685.65
-2713.93
-2442.37
-2171.89
-1903.75
-1637.96
-1362.39
-1089.5
-819.184
-551.614
-2617.55
2335.88
-2338.54
-2057.56
-1776.22
-1495.59
-1218.44
-958.016
-723.325
-492.472
-1868.95
1599.73
-1644.34
-1420.46
-1420.46
-2022.02
601.562
-2205.16
183.138
-2205.16
-2158.41
-46.7534
-2158.41
-1916.33
-242.076
-1614.45
-301.885
-1614.45
-1193.73
-420.719
-802.341
-391.388
-802.341
-419.489
-382.852
-419.489
-54.333
-365.157
332.114
-386.447
332.114
645.545
-313.431
645.544
920.531
-274.987
1188.77
-268.237
1188.77
1415.93
-227.158
1607.58
-191.652
1607.58
1782.07
-174.493
1782.07
1953.02
-170.948
2070.27
-117.255
2070.27
2186
-115.725
2186
2306.37
-120.376
2360.83
-54.459
2360.83
2448.78
-87.9487
2465.44
-16.658
2465.44
2507.39
-41.9511
2507.39
2578.6
-71.2055
2595.44
-16.838
2595.44
2626.93
-31.4971
2626.93
2682.34
-55.4086
2681.59
0.752929
2681.59
2718.83
-37.2469
2696.97
21.8672
2696.97
2702.36
-5.39441
2702.36
2743.63
-41.2698
2740.86
2.77135
2740.86
2752.33
-11.4662
2752.33
2790.55
-38.2187
2779.49
11.0598
2779.49
2805.15
-25.6603
2776.6
28.5438
2776.6
2774.73
1.87146
2774.73
2810.41
-35.6809
2806.05
4.35689
2806.05
2816.58
-10.5234
2816.58
2856.12
-39.5399
2849.04
7.07502
2849.04
2882.05
-33.0067
2862.28
19.7664
2862.28
2875.4
-13.1145
2875.4
-57.9732
-0.323159
-2.09839
-0.304622
-3.6691
-0.295409
-4.98246
-0.28834
-6.15458
-0.284559
-7.32289
-0.282633
-8.44465
-0.282886
-9.56388
-0.284884
-10.6734
-0.288647
-11.7899
-0.294035
-12.9168
-0.301013
-14.0624
-0.309526
-15.2327
-0.319551
-16.4341
-0.331068
-17.6726
-0.344072
-18.9543
-0.35857
-20.2851
-0.374579
-21.6713
-0.392124
-23.1189
-0.411244
-24.6343
-0.431987
-26.224
-0.45441
-27.8947
-0.478584
-29.6536
-0.504588
-31.5079
-0.532514
-33.4656
-0.562466
-35.5347
-0.59456
-37.724
-0.628927
-40.043
-0.66571
-42.5014
-0.705068
-45.11
-0.747178
-47.8803
-0.792232
-50.8246
-0.840445
-53.9564
-0.892049
-57.29
-0.947302
-60.8412
-1.00649
-64.6269
-1.06991
-68.6658
-1.13791
-72.978
-1.21085
-77.5855
-1.28915
-82.5124
-1.37324
-87.7847
-1.46361
-93.4313
-1.56078
-99.4834
-1.66533
-105.975
-1.77789
-112.945
-1.89911
-120.432
-2.02975
-128.483
-2.17057
-137.146
-2.32243
-146.475
-2.48622
-156.528
-2.66289
-167.368
-2.85341
-179.064
-3.05881
-191.691
-3.28011
-205.328
-3.51831
-220.061
-3.77433
-235.981
-4.04895
-253.184
-4.34274
-271.768
-4.65588
-291.836
-4.988
-313.485
-5.33789
-336.813
-5.70319
-361.9
-6.07985
-388.812
-6.46149
-417.578
-6.8386
-448.179
-7.19742
-480.523
-7.51873
-514.412
-7.77648
-549.501
-7.93642
-585.244
-7.95576
-620.827
-7.7817
-655.079
-7.36303
-686.506
-6.62699
-712.621
-5.58124
-732.221
-4.09617
-738.466
-2.48461
-737.316
0.0534517
-706.85
1.24578
-684.231
28.8745
-605.39
-675.316
-0.468331
-2.12083
-0.441787
-3.69564
-0.428699
-4.99554
-0.419022
-6.16426
-0.413821
-7.32809
-0.41136
-8.44711
-0.411957
-9.56328
-0.415061
-10.6703
-0.420683
-11.7843
-0.428634
-12.9088
-0.438865
-14.0522
-0.451304
-15.2203
-0.465913
-16.4195
-0.482668
-17.6559
-0.501563
-18.9354
-0.522606
-20.2641
-0.54582
-21.6481
-0.571242
-23.0935
-0.598924
-24.6066
-0.628934
-26.1939
-0.661353
-27.8623
-0.696277
-29.6187
-0.733817
-31.4704
-0.774103
-33.4253
-0.817278
-35.4915
-0.863503
-37.6778
-0.912959
-39.9935
-0.965845
-42.4485
-1.02238
-45.0535
-1.08282
-47.8199
-1.14741
-50.76
-1.21646
-53.8873
-1.29029
-57.2162
-1.36925
-60.7622
-1.45372
-64.5425
-1.54414
-68.5754
-1.64096
-72.8812
-1.7447
-77.4818
-1.85589
-82.4012
-1.97515
-87.6655
-2.10314
-93.3033
-2.24056
-99.3459
-2.3882
-105.828
-2.54689
-112.786
-2.71756
-120.262
-2.90117
-128.299
-3.09878
-136.948
-3.31151
-146.262
-3.54054
-156.299
-3.78712
-167.121
-4.05254
-178.798
-4.33808
-191.405
-4.64504
-205.021
-4.97463
-219.731
-5.32793
-235.628
-5.70576
-252.806
-6.10854
-271.365
-6.5361
-291.408
-6.98733
-313.034
-7.45984
-336.34
-7.94936
-361.411
-8.44903
-388.312
-8.94839
-417.078
-9.43217
-447.695
-9.87869
-480.076
-10.2581
-514.032
-10.5303
-549.229
-10.6436
-585.13
-10.5341
-620.937
-10.1248
-655.489
-9.34232
-687.289
-8.08957
-713.874
-6.38661
-733.924
-4.08669
-740.766
-1.66509
-739.738
1.50704
-710.022
3.07951
-685.803
-0.404076
-601.907
-688.835
-0.551072
-2.14665
-0.521294
-3.72542
-0.506282
-5.01056
-0.495445
-6.17509
-0.489627
-7.33391
-0.487075
-8.44966
-0.488025
-9.56233
-0.491917
-10.6664
-0.498736
-11.7775
-0.508287
-12.8993
-0.520506
-14.04
-0.535315
-15.2055
-0.552672
-16.4022
-0.572551
-17.636
-0.594945
-18.913
-0.619863
-20.2392
-0.647332
-21.6206
-0.677396
-23.0634
-0.710115
-24.5739
-0.745567
-26.1585
-0.783847
-27.824
-0.825064
-29.5774
-0.869348
-31.4261
-0.916848
-33.3778
-0.967728
-35.4406
-1.02217
-37.6234
-1.0804
-39.9353
-1.14262
-42.3863
-1.2091
-44.987
-1.28012
-47.7489
-1.35598
-50.6842
-1.43703
-53.8063
-1.52362
-57.1296
-1.61616
-60.6697
-1.7151
-64.4435
-1.82091
-68.4696
-1.93413
-72.768
-2.05533
-77.3606
-2.18514
-82.2714
-2.32425
-87.5263
-2.47339
-93.1541
-2.63339
-99.1859
-2.80512
-105.656
-2.98952
-112.601
-3.18763
-120.063
-3.40056
-128.086
-3.62947
-136.72
-3.87562
-146.016
-4.14033
-156.034
-4.42499
-166.836
-4.73098
-178.492
-5.05975
-191.076
-5.41266
-204.668
-5.79099
-219.353
-6.19583
-235.223
-6.62793
-252.374
-7.08753
-270.906
-7.57409
-290.921
-8.08597
-312.522
-8.61986
-335.806
-9.17019
-360.861
-9.72817
-387.754
-10.2807
-416.526
-10.8087
-447.167
-11.2854
-479.599
-11.6742
-513.643
-11.9265
-548.976
-11.9795
-585.077
-11.7564
-621.16
-11.166
-656.079
-10.1209
-688.334
-8.51467
-715.48
-6.36687
-736.071
-3.54832
-743.585
-0.59246
-742.693
3.16601
-713.78
5.43534
-688.072
5.86316
-602.334
-663.205
-0.640836
-2.17492
-0.608932
-3.75733
-0.592467
-5.02702
-0.580688
-6.18687
-0.574441
-7.34016
-0.571959
-8.45215
-0.573445
-9.56085
-0.578333
-10.6615
-0.586596
-11.7692
-0.598029
-12.8878
-0.612563
-14.0255
-0.630114
-15.1879
-0.650637
-16.3816
-0.674105
-17.6125
-0.700511
-18.8866
-0.729867
-20.2098
-0.762208
-21.5883
-0.797584
-23.028
-0.836066
-24.5354
-0.877745
-26.1168
-0.922729
-27.779
-0.97115
-29.529
-1.02316
-31.3741
-1.07892
-33.322
-1.13863
-35.3809
-1.20251
-37.5595
-1.27079
-39.867
-1.34374
-42.3133
-1.42165
-44.9091
-1.50485
-47.6657
-1.59369
-50.5953
-1.68856
-53.7114
-1.78988
-57.0283
-1.89811
-60.5614
-2.01378
-64.3279
-2.13742
-68.346
-2.26966
-72.6358
-2.41115
-77.2191
-2.56261
-82.1199
-2.72483
-87.3641
-2.89866
-92.9803
-3.08503
-98.9996
-3.28494
-105.456
-3.4995
-112.387
-3.72985
-119.833
-3.97727
-127.839
-4.24309
-136.454
-4.52874
-145.73
-4.83571
-155.727
-5.16555
-166.507
-5.51986
-178.138
-5.90021
-190.696
-6.30813
-204.26
-6.74501
-218.916
-7.21201
-234.756
-7.70985
-251.876
-8.23866
-270.377
-8.79759
-290.362
-9.38446
-311.936
-9.9951
-335.196
-10.6226
-360.233
-11.2563
-387.121
-11.8801
-415.902
-12.4711
-446.576
-12.9972
-479.073
-13.4143
-513.226
-13.6644
-548.726
-13.6726
-585.069
-13.3475
-621.485
-12.5813
-656.845
-11.2696
-689.646
-9.2928
-717.457
-6.66724
-738.697
-3.27746
-746.975
0.278707
-746.25
4.60441
-718.106
7.37944
-690.847
23.4252
-618.38
-672.787
-0.725675
-2.2047
-0.69267
-3.79033
-0.675209
-5.04448
-0.662819
-6.19926
-0.656372
-7.3466
-0.65413
-8.45439
-0.656275
-9.5587
-0.662244
-10.6555
-0.672005
-11.7595
-0.68535
-12.8745
-0.702205
-14.0086
-0.722486
-15.1677
-0.746144
-16.358
-0.773153
-17.5855
-0.803508
-18.8562
-0.837226
-20.1761
-0.874346
-21.5511
-0.914927
-22.9874
-0.959051
-24.4913
-1.00682
-26.069
-1.05836
-27.7275
-1.11382
-29.4736
-1.17337
-31.3145
-1.2372
-33.2582
-1.30553
-35.3126
-1.3786
-37.4864
-1.45669
-39.7889
-1.5401
-42.2299
-1.62916
-44.82
-1.72422
-47.5706
-1.8257
-50.4939
-1.93403
-53.6031
-2.04969
-56.9126
-2.17319
-60.4379
-2.30513
-64.1959
-2.44612
-68.205
-2.59684
-72.485
-2.75803
-77.0579
-2.93052
-81.9474
-3.11518
-87.1795
-3.31297
-92.7825
-3.52493
-98.7876
-3.75218
-105.229
-3.99595
-112.143
-4.25755
-119.571
-4.53837
-127.558
-4.83992
-136.152
-5.16379
-145.406
-5.51162
-155.379
-5.88516
-166.133
-6.28614
-177.737
-6.71631
-190.266
-7.17734
-203.799
-7.67073
-218.423
-8.19769
-234.229
-8.75893
-251.315
-9.35444
-269.782
-9.98311
-289.734
-10.6422
-311.276
-11.3268
-334.511
-12.0286
-359.531
-12.7351
-386.414
-13.4276
-415.209
-14.0794
-445.924
-14.6529
-478.5
-15.0974
-512.782
-15.3452
-548.478
-15.3099
-585.105
-14.8855
-621.909
-13.9479
-657.783
-12.3751
-691.218
-10.0341
-719.797
-6.93576
-741.795
-2.97941
-750.931
1.18064
-750.41
6.02721
-722.952
8.73509
-693.555
7.33743
-616.982
-658.374
-0.80812
-2.23535
-0.774728
-3.82372
-0.75667
-5.06254
-0.743957
-6.21198
-0.737522
-7.35304
-0.735683
-8.45623
-0.738615
-9.55577
-0.745773
-10.6484
-0.75712
-11.7481
-0.772452
-12.8592
-0.791695
-13.9894
-0.814762
-15.1446
-0.841606
-16.3311
-0.872203
-17.5549
-0.906549
-18.8219
-0.944667
-20.138
-0.986602
-21.5092
-1.03242
-22.9416
-1.08222
-24.4415
-1.13612
-26.0152
-1.19425
-27.6694
-1.25677
-29.411
-1.3239
-31.2474
-1.39582
-33.1862
-1.47281
-35.2356
-1.55511
-37.4041
-1.64305
-39.701
-1.73695
-42.136
-1.83718
-44.7198
-1.94416
-47.4636
-2.05832
-50.3797
-2.18015
-53.4813
-2.31019
-56.7826
-2.44902
-60.2991
-2.59729
-64.0477
-2.75567
-68.0466
-2.92494
-72.3158
-3.10591
-76.877
-3.2995
-81.7538
-3.50668
-86.9723
-3.72851
-92.5607
-3.96615
-98.55
-4.22085
-104.974
-4.49395
-111.87
-4.7869
-119.278
-5.10127
-127.244
-5.43869
-135.815
-5.80094
-145.044
-6.18982
-154.99
-6.60725
-165.716
-7.05514
-177.289
-7.53539
-189.785
-8.04983
-203.284
-8.60007
-217.872
-9.18739
-233.642
-9.8125
-250.69
-10.4753
-269.119
-11.1744
-289.035
-11.9066
-310.544
-12.6661
-333.752
-13.4436
-358.754
-14.2246
-385.633
-14.9879
-414.446
-15.703
-445.209
-16.3275
-477.875
-16.8034
-512.306
-17.0541
-548.228
-16.9814
-585.177
-16.4647
-622.426
-15.3629
-658.885
-13.5356
-693.046
-10.8349
-722.498
-7.26284
-745.367
-2.73399
-755.46
2.05111
-755.195
7.43858
-728.34
10.5083
-696.625
29.435
-635.909
-668.479
-0.88827
-2.26637
-0.855016
-3.85698
-0.836676
-5.08088
-0.823886
-6.22477
-0.817648
-7.35928
-0.816359
-8.45752
-0.820197
-9.55193
-0.82864
-10.6399
-0.841654
-11.7351
-0.859042
-12.8418
-0.880728
-13.9677
-0.906629
-15.1187
-0.9367
-16.3011
-0.970917
-17.5207
-1.00928
-18.7835
-1.05183
-20.0954
-1.0986
-21.4624
-1.14967
-22.8905
-1.20516
-24.386
-1.26519
-25.9551
-1.32991
-27.6046
-1.39952
-29.3414
-1.47422
-31.1727
-1.55425
-33.1062
-1.63988
-35.15
-1.73142
-37.3126
-1.8292
-39.6032
-1.93359
-42.0316
-2.045
-44.6084
-2.16387
-47.3447
-2.29071
-50.2529
-2.42604
-53.3459
-2.57045
-56.6381
-2.7246
-60.1449
-2.88917
-63.8831
-3.06494
-67.8708
-3.25274
-72.128
-3.45348
-76.6762
-3.66814
-81.5392
-3.89782
-86.7426
-4.14367
-92.3148
-4.40696
-98.2867
-4.68907
-104.692
-4.99147
-111.568
-5.31576
-118.954
-5.66363
-126.896
-6.0369
-135.441
-6.43749
-144.644
-6.86739
-154.56
-7.32868
-165.254
-7.82345
-176.795
-8.35378
-189.255
-8.92163
-202.717
-9.52875
-217.265
-10.1765
-232.994
-10.8656
-250
-11.5958
-268.389
-12.3656
-288.265
-13.1713
-309.739
-14.0064
-332.916
-14.8604
-357.9
-15.7171
-384.776
-16.5529
-413.61
-17.3336
-444.428
-18.0119
-477.197
-18.5233
-511.794
-18.782
-547.969
-18.678
-585.281
-18.0763
-623.028
-16.8181
-660.143
-14.7436
-695.12
-11.6882
-725.554
-7.6421
-749.413
-2.53323
-760.569
2.89579
-760.624
8.6756
-734.12
11.6373
-699.587
4.99821
-629.27
-674.004
-0.966453
-2.29739
-0.933706
-3.88972
-0.915344
-5.09924
-0.902693
-6.23742
-0.89682
-7.36515
-0.896217
-8.45812
-0.901073
-9.54708
-0.910895
-10.6301
-0.925654
-11.7204
-0.945163
-12.8223
-0.969348
-13.9435
-0.998131
-15.0899
-1.03147
-16.2677
-1.06934
-17.4828
-1.11176
-18.7411
-1.15875
-20.0485
-1.21038
-21.4108
-1.26673
-22.8342
-1.32792
-24.3248
-1.39409
-25.889
-1.46542
-27.5333
-1.54211
-29.2647
-1.62439
-31.0904
-1.71253
-33.0181
-1.80682
-35.0557
-1.90759
-37.2118
-2.01521
-39.4956
-2.13008
-41.9168
-2.25266
-44.4858
-2.38343
-47.214
-2.52293
-50.1134
-2.67175
-53.1971
-2.83053
-56.4794
-2.99997
-59.9755
-3.18084
-63.7022
-3.37397
-67.6777
-3.58028
-71.9217
-3.80076
-76.4557
-4.03649
-81.3034
-4.28863
-86.4905
-4.55847
-92.045
-4.84738
-97.9978
-5.15686
-104.382
-5.48853
-111.236
-5.84409
-118.599
-6.22543
-126.515
-6.63449
-135.032
-7.07336
-144.205
-7.54423
-154.089
-8.04932
-164.749
-8.59093
-176.253
-9.17128
-188.675
-9.79251
-202.095
-10.4565
-216.601
-11.1647
-232.286
-11.9178
-249.247
-12.7156
-267.591
-13.5563
-287.424
-14.4359
-308.859
-15.3472
-332.005
-16.2785
-356.968
-17.2122
-383.843
-18.1221
-412.701
-18.9708
-443.58
-19.7063
-476.461
-20.2573
-511.243
-20.5295
-547.697
-20.4011
-585.41
-19.7221
-623.707
-18.3162
-661.549
-16.0026
-697.434
-12.5979
-728.958
-8.07727
-753.934
-2.37757
-766.268
3.72886
-766.73
10.1712
-740.562
13.2157
-702.631
9.73872
-625.793
-659.909
-1.04292
-2.32815
-1.01094
-3.9217
-0.992775
-5.11741
-0.980448
-6.24974
-0.97509
-7.37051
-0.9753
-8.45791
-0.981279
-9.5411
-0.992569
-10.6188
-1.00915
-11.7038
-1.03084
-12.8006
-1.05758
-13.9168
-1.0893
-15.0582
-1.12595
-16.2311
-1.16751
-17.4413
-1.21401
-18.6946
-1.26548
-19.997
-1.32198
-21.3543
-1.38363
-22.7725
-1.45054
-24.2579
-1.52288
-25.8166
-1.60083
-27.4554
-1.68461
-29.1809
-1.77449
-31.0006
-1.87074
-32.9218
-1.97369
-34.9527
-2.08369
-37.1018
-2.20116
-39.3781
-2.32653
-41.7914
-2.46028
-44.3521
-2.60295
-47.0713
-2.75511
-49.9612
-2.91742
-53.0348
-3.09056
-56.3062
-3.2753
-59.7908
-3.47246
-63.5051
-3.68296
-67.4672
-3.90778
-71.6969
-4.14799
-76.2155
-4.40476
-81.0467
-4.67937
-86.2159
-4.97318
-91.7512
-5.28771
-97.6832
-5.62455
-104.046
-5.98546
-110.875
-6.3723
-118.212
-6.78708
-126.1
-7.23192
-134.588
-7.70908
-143.728
-8.2209
-153.578
-8.7698
-164.2
-9.35824
-175.664
-9.98865
-188.044
-10.6633
-201.421
-11.3842
-215.88
-12.1529
-231.517
-12.9703
-248.43
-13.836
-266.725
-14.748
-286.512
-15.702
-307.905
-16.6902
-331.017
-17.7
-355.959
-18.7122
-382.83
-19.6983
-411.714
-20.6179
-442.66
-21.4143
-475.665
-22.0099
-510.648
-22.3017
-547.405
-22.1566
-585.555
-21.4094
-624.454
-19.8654
-663.093
-17.3219
-699.977
-13.5744
-732.706
-8.57869
-758.93
-2.27759
-772.57
4.54158
-773.549
11.5259
-747.546
15.188
-706.293
25.0979
-635.703
-670.492
-1.11787
-2.35843
-1.08685
-3.95273
-1.06905
-5.13521
-1.0572
-6.26158
-1.0525
-7.37522
-1.05363
-8.45677
-1.06083
-9.5339
-1.07368
-10.606
-1.09215
-11.6853
-1.1161
-12.7766
-1.14545
-13.8874
-1.18014
-15.0235
-1.22014
-16.1911
-1.26543
-17.396
-1.31604
-18.644
-1.37201
-19.941
-1.43343
-21.2929
-1.50039
-22.7056
-1.57304
-24.1852
-1.65155
-25.7381
-1.73614
-27.3708
-1.82703
-29.0901
-1.9245
-30.9031
-2.02887
-32.8175
-2.14049
-34.8411
-2.25974
-36.9826
-2.38706
-39.2508
-2.52292
-41.6555
-2.66784
-44.2071
-2.8224
-46.9167
-2.98723
-49.7964
-3.16302
-52.859
-3.35052
-56.1187
-3.55055
-59.5907
-3.764
-63.2916
-3.99184
-67.2393
-4.23515
-71.4535
-4.49508
-75.9556
-4.77288
-80.7689
-5.06993
-85.9188
-5.3877
-91.4334
-5.72781
-97.3431
-6.09199
-103.681
-6.48211
-110.485
-6.90019
-117.794
-7.34837
-125.652
-7.82895
-134.107
-8.34434
-143.212
-8.89707
-153.025
-9.48974
-163.608
-10.125
-175.029
-10.8054
-187.364
-11.5335
-200.693
-12.3114
-215.102
-13.1407
-230.688
-14.0224
-247.548
-14.9562
-265.791
-15.9399
-285.529
-16.9688
-306.876
-18.0347
-329.951
-19.1239
-354.869
-20.2161
-381.738
-21.2806
-410.65
-22.2739
-441.667
-23.1351
-474.804
-23.7805
-510.002
-24.0987
-547.087
-23.945
-585.709
-23.1394
-625.259
-21.4681
-664.764
-18.7049
-702.74
-14.6215
-736.789
-9.15076
-764.4
-2.23444
-779.486
5.336
-781.12
12.8248
-755.035
17.5317
-711
1.72345
-619.895
-666.897
-1.19147
-2.3881
-1.16152
-3.98267
-1.14424
-5.1525
-1.13302
-6.2728
-1.12909
-7.37916
-1.13125
-8.4546
-1.13977
-9.52538
-1.15425
-10.5915
-1.17469
-11.6649
-1.20094
-12.7504
-1.23296
-13.8554
-1.27068
-14.9858
-1.31407
-16.1477
-1.36314
-17.3469
-1.41789
-18.5892
-1.4784
-19.8805
-1.54474
-21.2265
-1.61704
-22.6333
-1.69545
-24.1068
-1.78016
-25.6534
-1.87139
-27.2795
-1.9694
-28.992
-2.07449
-30.798
-2.18699
-32.705
-2.30729
-34.7208
-2.43579
-36.854
-2.57296
-39.1136
-2.71932
-41.5092
-2.87542
-44.051
-3.04188
-46.7503
-3.21938
-49.6189
-3.40865
-52.6697
-3.61051
-55.9169
-3.82582
-59.3754
-4.05555
-63.0619
-4.30075
-66.9942
-4.56255
-71.1917
-4.84219
-75.676
-5.14101
-80.47
-5.46049
-85.5993
-5.80221
-91.0917
-6.16788
-96.9775
-6.55938
-103.29
-6.97869
-110.066
-7.42799
-117.344
-7.90956
-125.17
-8.42585
-133.591
-8.97947
-142.659
-9.57309
-152.431
-10.2095
-162.971
-10.8916
-174.347
-11.622
-186.633
-12.4036
-199.911
-13.2385
-214.268
-14.1285
-229.797
-15.0748
-246.602
-16.0769
-264.789
-17.1326
-284.473
-18.2371
-305.771
-19.3815
-328.807
-20.5515
-353.699
-21.7253
-380.565
-22.8706
-409.505
-23.9409
-440.596
-24.8712
-473.874
-25.5722
-509.301
-25.924
-546.735
-25.7709
-585.862
-24.9176
-626.113
-23.1307
-666.551
-20.1593
-705.712
-15.7483
-741.2
-9.80297
-770.346
-2.25555
-787.033
6.10635
-789.482
14.4563
-763.385
20.572
-717.116
11.8097
-611.133
-626.543
-1.26386
-2.41704
-1.23507
-4.01146
-1.21843
-5.16914
-1.20795
-6.28327
-1.20489
-7.38222
-1.20819
-8.45131
-1.21811
-9.51547
-1.2343
-10.5753
-1.25677
-11.6424
-1.2854
-12.7217
-1.32014
-13.8206
-1.36094
-14.945
-1.40777
-16.1009
-1.46064
-17.294
-1.51957
-18.5303
-1.58464
-19.8154
-1.65594
-21.1552
-1.7336
-22.5556
-1.81779
-24.0226
-1.90872
-25.5625
-2.00661
-27.1816
-2.11176
-28.8869
-2.22448
-30.6853
-2.34512
-32.5843
-2.4741
-34.5918
-2.61186
-36.7163
-2.7589
-38.9666
-2.91576
-41.3523
-3.08304
-43.8837
-3.26141
-46.5719
-3.45158
-49.4287
-3.65433
-52.467
-3.87055
-55.7007
-4.10115
-59.1448
-4.34716
-62.8159
-4.6097
-66.7316
-4.88997
-70.9115
-5.18931
-75.3766
-5.50915
-80.1502
-5.85105
-85.2574
-6.21669
-90.726
-6.60792
-96.5862
-7.0267
-102.871
-7.47519
-109.617
-7.95567
-116.864
-8.4706
-124.655
-9.02259
-133.039
-9.61439
-142.067
-10.2489
-151.797
-10.929
-162.291
-11.6579
-173.618
-12.4384
-185.853
-13.2734
-199.076
-14.1653
-213.376
-15.1163
-228.847
-16.1272
-245.591
-17.1979
-263.718
-18.3261
-283.345
-19.5067
-304.591
-20.7305
-327.583
-21.9826
-352.447
-23.2398
-379.307
-24.4683
-408.276
-25.619
-439.446
-26.623
-472.87
-27.3855
-508.539
-27.7788
-546.342
-27.6361
-586.004
-26.7468
-627.002
-24.8573
-668.441
-21.6904
-708.879
-16.9613
-745.929
-10.5429
-776.764
-2.34985
-795.226
6.83745
-798.669
16.1009
-772.649
23.1804
-724.195
31.4136
-619.366
-620.79
-1.33515
-2.44519
-1.30758
-4.03903
-1.29167
-5.18505
-1.28205
-6.2929
-1.27997
-7.3843
-1.28448
-8.44679
-1.29588
-9.50407
-1.31386
-10.5573
-1.33844
-11.6178
-1.3695
-12.6907
-1.40702
-13.7831
-1.45094
-14.9011
-1.50125
-16.0505
-1.55796
-17.2373
-1.62111
-18.4672
-1.69077
-19.7458
-1.76706
-21.079
-1.85011
-22.4726
-1.9401
-23.9326
-2.03726
-25.4653
-2.14184
-27.0771
-2.25414
-28.7746
-2.37449
-30.5649
-2.5033
-32.4555
-2.64097
-34.4542
-2.788
-36.5693
-2.94491
-38.8097
-3.11228
-41.1849
-3.29076
-43.7053
-3.48103
-46.3816
-3.68388
-49.2259
-3.90013
-52.2507
-4.1307
-55.4701
-4.37659
-58.8989
-4.63888
-62.5536
-4.91876
-66.4517
-5.21751
-70.6127
-5.53655
-75.0576
-5.87739
-79.8093
-6.24169
-84.8931
-6.63125
-90.3365
-7.04802
-96.1695
-7.49408
-102.425
-7.97172
-109.139
-8.48337
-116.352
-9.03164
-124.107
-9.61929
-132.451
-10.2493
-141.437
-10.9246
-151.121
-11.6485
-161.567
-12.4241
-172.843
-13.2546
-185.022
-14.1431
-198.188
-15.0922
-212.426
-16.1041
-227.835
-17.1799
-244.515
-18.3195
-262.579
-19.5207
-282.143
-20.7781
-303.333
-22.0823
-326.279
-23.4177
-351.112
-24.7603
-377.965
-26.0746
-406.962
-27.3093
-438.211
-28.3919
-471.787
-29.2225
-507.708
-29.6657
-545.898
-29.5439
-586.126
-28.6313
-627.915
-26.6534
-670.418
-23.3053
-712.227
-18.2689
-750.966
-11.38
-783.653
-2.52679
-804.08
7.52523
-808.721
17.7355
-782.859
25.4241
-731.884
19.1285
-613.07
-590.602
-1.40545
-2.47248
-1.37913
-4.06536
-1.36404
-5.20014
-1.35535
-6.30158
-1.35433
-7.38532
-1.36016
-8.44097
-1.37312
-9.49111
-1.39295
-10.5375
-1.41969
-11.5911
-1.45325
-12.6571
-1.4936
-13.7428
-1.54069
-14.854
-1.59453
-15.9967
-1.65512
-17.1767
-1.72252
-18.3998
-1.79682
-19.6715
-1.87812
-20.9977
-1.96658
-22.3841
-2.0624
-23.8368
-2.16581
-25.3619
-2.27709
-26.9658
-2.39656
-28.6551
-2.52458
-30.4369
-2.66155
-32.3185
-2.80794
-34.3078
-2.96425
-36.4129
-3.13105
-38.6429
-3.30894
-41.0071
-3.49861
-43.5156
-3.70081
-46.1794
-3.91633
-49.0103
-4.14608
-52.021
-4.39101
-55.2252
-4.65219
-58.6378
-4.93076
-62.275
-5.22798
-66.1545
-5.54522
-70.2955
-5.88395
-74.7189
-6.24579
-79.4475
-6.63249
-84.5064
-7.04595
-89.923
-7.48824
-95.7272
-7.96157
-101.952
-8.46834
-108.633
-9.01114
-115.809
-9.59272
-123.525
-10.216
-131.828
-10.8841
-140.769
-11.6003
-150.405
-12.3678
-160.8
-13.1902
-172.02
-14.0708
-184.142
-15.0129
-197.246
-16.0192
-211.42
-17.0921
-226.762
-18.233
-243.374
-19.4419
-261.37
-20.7164
-280.869
-22.0513
-301.999
-23.4368
-324.893
-24.857
-349.692
-26.287
-376.535
-27.6899
-405.559
-29.0124
-436.888
-30.1788
-470.621
-31.0842
-506.803
-31.5863
-545.396
-31.4968
-586.216
-30.5745
-628.837
-28.5238
-672.469
-25.0103
-715.74
-19.6794
-756.297
-12.324
-791.008
-2.79739
-813.606
8.16301
-819.682
19.4165
-794.112
28.1274
-740.595
43.5836
-628.526
-585.237
-1.47484
-2.49889
-1.44978
-4.09042
-1.43558
-5.21433
-1.42791
-6.30925
-1.42804
-7.3852
-1.43524
-8.43376
-1.44983
-9.47651
-1.47159
-10.5157
-1.50057
-11.5621
-1.53668
-12.621
-1.57991
-13.6996
-1.63023
-14.8037
-1.68763
-15.9393
-1.75215
-17.1122
-1.82384
-18.3281
-1.90279
-19.5925
-1.98914
-20.9113
-2.08304
-22.2902
-2.18472
-23.7351
-2.29441
-25.2522
-2.41241
-26.8478
-2.53907
-28.5285
-2.67476
-30.3012
-2.81992
-32.1734
-2.97504
-34.1527
-3.14065
-36.2473
-3.31734
-38.4662
-3.50577
-40.8186
-3.70665
-43.3147
-3.92077
-45.9653
-4.14899
-48.7821
-4.39224
-51.7777
-4.65154
-54.9658
-4.92802
-58.3613
-5.22288
-61.9801
-5.53744
-65.8399
-5.87315
-69.9598
-6.23157
-74.3604
-6.61441
-79.0647
-7.0235
-84.0973
-7.46086
-89.4857
-7.92866
-95.2594
-8.42924
-101.451
-8.96513
-108.097
-9.53906
-115.236
-10.1539
-122.911
-10.8128
-131.169
-11.5191
-140.063
-12.276
-149.648
-13.0873
-159.988
-13.9565
-171.151
-14.8871
-183.211
-15.8827
-196.25
-16.9463
-210.357
-18.0804
-225.628
-19.2867
-242.168
-20.565
-260.092
-21.9134
-279.521
-23.3265
-300.585
-24.7944
-323.425
-26.3008
-348.185
-27.8203
-375.015
-29.3147
-404.064
-30.729
-435.474
-31.9846
-469.365
-32.9722
-505.815
-33.5427
-544.826
-33.4975
-586.261
-32.5803
-629.754
-30.4736
-674.576
-26.8123
-719.402
-21.2017
-761.907
-13.3857
-798.824
-3.17293
-823.819
8.73868
-831.593
20.9534
-806.327
30.4633
-750.105
22.2008
-620.264
-574.502
-1.54339
-2.5244
-1.51959
-4.11422
-1.50635
-5.22757
-1.49976
-6.31584
-1.50111
-7.38385
-1.50976
-8.42511
-1.52606
-9.46022
-1.54981
-10.492
-1.58109
-11.5308
-1.61981
-12.5823
-1.66598
-13.6534
-1.71957
-14.7501
-1.78059
-15.8783
-1.84907
-17.0437
-1.92509
-18.252
-2.00873
-19.5089
-2.10016
-20.8199
-2.19953
-22.1908
-2.30708
-23.6276
-2.42308
-25.1362
-2.54783
-26.723
-2.68169
-28.3946
-2.82508
-30.1578
-2.97845
-32.02
-3.14231
-33.9888
-3.31723
-36.0724
-3.50384
-38.2796
-3.70281
-40.6196
-3.91492
-43.1026
-4.14098
-45.7393
-4.3819
-48.5412
-4.63866
-51.521
-4.91235
-54.6922
-5.20413
-58.0695
-5.51528
-61.669
-5.84719
-65.508
-6.20138
-69.6056
-6.5795
-73.9823
-6.98332
-78.6608
-7.41481
-83.6659
-7.87606
-89.0244
-8.36936
-94.7661
-8.89718
-100.923
-9.46217
-107.532
-10.0672
-114.631
-10.7154
-122.262
-11.4099
-130.474
-12.1542
-139.318
-12.9519
-148.85
-13.8069
-159.133
-14.7228
-170.235
-15.7035
-182.23
-16.7527
-195.201
-17.8737
-209.236
-19.0692
-224.432
-20.3409
-240.896
-21.6892
-258.743
-23.1119
-278.098
-24.604
-299.093
-26.1554
-321.874
-27.7495
-346.591
-29.3605
-373.404
-30.9495
-402.475
-32.4598
-433.964
-33.8103
-468.014
-34.8877
-504.738
-35.5366
-544.177
-35.5485
-586.249
-34.6523
-630.65
-32.5081
-676.72
-28.7185
-723.191
-22.8451
-767.781
-14.5765
-807.093
-3.66538
-834.73
9.25059
-844.509
22.7415
-819.818
33.3114
-760.675
29.066
-616.018
-542.665
-1.61117
-2.54899
-1.58863
-4.13676
-1.57639
-5.23981
-1.57095
-6.32128
-1.57358
-7.38123
-1.58375
-8.41494
-1.60182
-9.44214
-1.62763
-10.4662
-1.66126
-11.4972
-1.70266
-12.5409
-1.75182
-13.6042
-1.80873
-14.6932
-1.87341
-15.8136
-1.9459
-16.9712
-2.02628
-18.1717
-2.11466
-19.4205
-2.21119
-20.7234
-2.31607
-22.086
-2.42953
-23.5141
-2.55185
-25.0139
-2.68337
-26.5915
-2.82447
-28.2535
-2.97558
-30.0067
-3.13717
-31.8584
-3.3098
-33.8162
-3.49405
-35.8882
-3.69058
-38.0831
-3.90013
-40.4101
-4.12347
-42.8793
-4.36149
-45.5012
-4.61512
-48.2876
-4.88541
-51.2507
-5.17349
-54.4041