/*--------------------------------*- C++ -*----------------------------------*\
| =========                 |                                                 |
| \\      /  F ield         | OpenFOAM: The Open Source CFD Toolbox           |
|  \\    /   O peration     | Version:  4.1                                   |
|   \\  /    A nd           | Web:      www.OpenFOAM.org                      |
|    \\/     M anipulation  |                                                 |
\*---------------------------------------------------------------------------*/
FoamFile
{
    version     2.0;
    format      ascii;
    class       surfaceScalarField;
    location    "4";
    object      phi;
}
// * * * * * * * * * * * * * * * * * * * * * * * * * * * * * * * * * * * * * //

dimensions      [0 3 -1 0 0 0 0];

internalField   nonuniform List<scalar> 
13220
(
-796.684
2096.58
-1242.93
1746.45
-1701.04
1758.01
-2034.97
1633.83
-2306.9
1572.14
-2499.42
1492.42
-2620.64
1421.12
-2668.8
1348.36
-2646.65
1277.76
-2551.93
1205.18
-2382.06
1130.33
-2127.4
1045.24
-1726.18
898.683
-1042.58
616.598
257.325
-165.156
2261.74
-377.968
1959.26
-612.732
1992.78
-779.26
1800.36
-933.322
1726.2
-1035.76
1594.86
-1106.46
1491.82
-1140.41
1382.31
-1148.4
1285.75
-1135.1
1191.87
-1096.29
1091.52
-1010.26
959.215
-839.579
728.006
-528.049
305.071
-270.724
-94.2362
2355.98
-239.852
2104.88
-333.379
2086.3
-374.883
1841.86
-405.303
1756.62
-395.19
1584.75
-368.184
1464.81
-307.177
1321.31
-198.401
1176.98
-35.751
1029.22
141.217
914.551
288.85
811.589
361.429
655.435
274.918
391.6
4.19357
-14.8743
2370.85
-64.07
2154.08
-92.2166
2114.45
-126.447
1876.09
-163.244
1793.42
-203.114
1624.62
-252.102
1513.8
-275.842
1345.05
-214.516
1115.66
-17.2622
831.971
267.737
629.554
532.873
546.452
652.898
535.41
492.467
552.031
496.661
-66.5922
2437.45
-199.389
2286.87
-301.478
2216.54
-425.184
1999.8
-556.262
1924.5
-698.311
1766.67
-859.22
1674.71
-1018.09
1503.92
-1143.61
1241.17
-1171.86
860.219
-1057.61
515.304
-794.499
283.347
-441.509
182.422
-139.246
249.772
357.415
57.2767
2380.17
-101.431
2445.58
-180.316
2295.42
-251.347
2070.83
-315.831
1988.98
-375.744
1826.58
-431.148
1730.12
-502.101
1574.88
-627.022
1366.09
-821.106
1054.3
-1020.96
715.153
-1116.69
379.08
-1009.88
75.6042
-615.642
-144.476
-258.227
247.428
2132.74
185.863
2507.15
194.982
2286.3
238.386
2027.43
307.646
1919.72
379.853
1754.37
473.241
1636.73
557.364
1490.75
589.031
1334.43
507.999
1135.33
321.312
901.84
67.537
632.859
-151.004
294.15
-179.265
-116.211
-437.492
268.441
1864.3
290.072
2485.52
332.456
2243.92
405.555
1954.33
499.355
1825.92
592.517
1661.21
696.557
1532.69
799.564
1387.75
885.46
1248.53
919.239
1101.55
881.165
939.914
759.631
754.389
533.123
520.653
200.146
216.759
-237.346
177.691
1686.61
208.302
2454.91
235.174
2217.05
279.982
1909.52
328.903
1777
375.654
1614.46
420.986
1487.36
464.233
1344.5
498.94
1213.82
516.11
1084.38
501.389
954.634
445.726
810.054
339.707
626.672
192.744
363.723
-44.602
109.848
1576.76
127.732
2437.02
126.354
2218.42
137.925
1897.95
151.854
1763.07
163.379
1602.93
170.951
1479.78
179.597
1335.85
183.637
1209.78
185.264
1082.75
178.209
961.689
156.42
831.84
114.346
668.743
57.1301
420.921
12.5278
98.6668
1478.09
118.937
2416.75
97.4434
2239.92
86.6129
1908.78
89.5976
1760.09
89.7276
1602.8
85.9065
1483.6
80.5981
1341.16
74.4653
1215.91
69.2663
1087.95
65.507
965.447
58.6391
838.708
42.7942
684.586
4.54118
459.158
17.0687
122.065
1356.03
171.813
2367
149.457
2262.27
122.117
1936.12
124.5
1757.7
129.426
1597.87
137.217
1475.81
137.229
1341.15
134.77
1218.37
128.27
1094.45
120.199
973.518
108.17
850.735
88.2484
704.506
32.7126
514.686
49.7812
159.381
1196.65
262.585
2263.8
291.51
2233.35
303.492
1924.14
337.794
1723.4
364.603
1571.06
385.465
1454.95
390.268
1336.34
383.498
1225.14
363.897
1114.05
334.427
1002.99
293.797
891.365
240.631
757.672
154.582
600.733
204.364
231.714
964.932
375.636
2119.88
365.847
2243.14
304.44
1985.54
291.867
1735.97
317.733
1545.2
368.899
1403.78
418.159
1287.08
453.488
1189.81
461.827
1105.71
437.999
1026.82
379.769
949.594
285.308
852.133
151.83
734.211
356.193
407.437
1257.02
1744.78
1841.24
1827.94
1837.55
1828.48
1786.84
1702.48
1564.19
1374.26
1142.7
857.103
518.578
1.25314e-05
-17.748
17.748
-17.748
-17.748
-17.748
196.752
-214.5
196.752
196.752
196.752
356.277
-159.525
356.277
356.277
463.92
-107.643
463.92
463.92
463.92
533.178
-69.2585
533.178
533.178
582.273
-49.0946
582.273
582.273
582.273
613.444
-31.171
613.444
613.444
613.444
633.972
-20.528
633.972
633.972
641.268
-7.29641
641.268
641.268
641.268
648.104
-6.83546
648.104
648.104
656.27
-8.16659
656.27
656.27
656.27
668.351
-12.0801
668.351
668.351
668.351
680.115
-11.7647
680.115
680.115
690.183
-10.0674
690.183
690.183
690.183
709.201
-19.0181
709.201
709.201
709.201
726.39
-17.1893
726.39
726.39
651.471
74.9193
651.471
651.471
651.471
462.234
189.237
462.234
462.234
164.216
298.018
164.216
164.216
164.216
-656.35
820.565
-656.349
-656.35
-656.349
-2157.54
1501.19
-2157.54
-2157.54
-4134.87
1977.33
-4134.87
-4134.87
-3971.23
-3808.82
-3641.97
-5743.09
2261.65
-5576.44
-5386.54
-5186.1
-4985.65
-4784.4
-4582.34
-4376.35
-4162.87
-6388
2435.92
-6172.19
-5956.99
-5743.11
-5522.76
-5302.08
-5081.23
-4859.58
-4635.56
-6939.04
2528.38
-6709.5
-6480.47
-6252.23
-6024.35
-5795.02
-5562.3
-5329.46
-5095.32
-4859.27
-7157.49
2529.99
-6918.58
-6679.85
-6441.36
-6202.88
-5963.72
-5717.44
-5466.53
-5214.03
-7419.57
2453.81
-7172.92
-6921.14
-6660.17
-6397.43
-6132.02
-5864.75
-5594.47
-5304
-7381.06
2363.23
-7097.71
-6810.85
-6520.36
-6209.14
-5886.38
-5559.74
-5227.31
-4891.1
-6852.71
2301.23
-6498.74
-6142.55
-5786.67
-5433.32
-5085.25
-4724.06
-4374.73
-4038.01
-3717.73
-4141.48
728.041
-3877.86
-3632.5
-3390.4
-3153.38
-2922.26
-2736.28
-2630.64
-2524.95
-2509.15
94.8988
-2413.79
-2320.54
-2320.54
-2443.98
123.443
-2496.05
52.0685
-2496.05
-2555.74
59.6868
-2555.74
-2614.23
58.4956
-2633.32
19.0844
-2633.32
-2653.46
20.1407
-2641.51
-11.9424
-2641.51
-2627.7
-13.8166
-2627.7
-2614.27
-13.4239
-2573.73
-40.5433
-2573.73
-2530.44
-43.2941
-2530.44
-2486.62
-43.8181
-2418.85
-67.7699
-2418.85
-2355.72
-63.1248
-2273.93
-81.7903
-2273.93
-2191.41
-82.5238
-2191.41
-2111.35
-80.0622
-2018.27
-93.0812
-2018.27
-1926.89
-91.3721
-1926.89
-1843.97
-82.929
-1750.7
-93.2605
-1750.7
-1656.83
-93.8744
-1552.36
-104.471
-1552.36
-1449.24
-103.118
-1449.24
-1348.21
-101.031
-1239.58
-108.629
-1239.58
-1129.39
-110.188
-1129.39
-1025.08
-104.309
-915.84
-109.245
-915.84
-804.571
-111.269
-693.868
-110.704
-693.868
-583.097
-110.77
-583.097
-464.532
-118.565
-351.668
-112.864
-351.668
-252.216
-99.4521
-252.216
-173.892
-78.3243
-96.4999
-77.3918
-96.5
-29.1953
-67.3047
57.1208
-86.3161
57.1208
148.256
-91.1348
148.256
244.653
-96.3975
359.735
-115.081
359.735
472.494
-112.759
472.494
581.454
-108.961
701.874
-120.419
701.874
813.983
-112.109
933.657
-119.675
933.657
1050.91
-117.255
1050.91
-118.108
-3.25889
-17.0181
-3.19964
-24.3867
-3.19121
-29.7003
-3.18859
-34.624
-3.20572
-39.551
-3.23381
-44.2611
-3.27677
-48.9709
-3.33211
-53.6223
-3.40107
-58.2978
-3.48288
-62.9935
-3.57794
-67.7491
-3.686
-72.5762
-3.80725
-77.4997
-3.94164
-82.5352
-4.08932
-87.7023
-4.25039
-93.0172
-4.42505
-98.4974
-4.61352
-104.159
-4.81607
-110.019
-5.03304
-116.094
-5.26481
-122.399
-5.51182
-128.953
-5.77457
-135.771
-6.0536
-142.87
-6.34954
-150.268
-6.66305
-157.983
-6.99487
-166.033
-7.34578
-174.436
-7.71664
-183.211
-8.10837
-192.379
-8.52196
-201.96
-8.95845
-211.975
-9.41897
-222.445
-9.90471
-233.394
-10.4169
-244.844
-10.9569
-256.82
-11.5261
-269.347
-12.126
-282.45
-12.758
-296.157
-13.4236
-310.496
-14.1246
-325.493
-14.8623
-341.179
-15.6384
-357.581
-16.4543
-374.731
-17.3112
-392.655
-18.2101
-411.381
-19.1516
-430.934
-20.1355
-451.336
-21.1609
-472.601
-22.2255
-494.736
-23.3254
-517.734
-24.4542
-541.573
-25.6026
-566.204
-26.7569
-591.551
-27.8982
-617.494
-29.0007
-643.863
-30.03
-670.424
-30.941
-696.867
-31.6758
-722.794
-32.1605
-747.696
-32.3029
-770.961
-31.9867
-791.798
-31.0712
-809.305
-29.3771
-822.188
-26.7009
-829.042
-22.779
-827.364
-17.3668
-814.77
-10.1569
-785.716
-1.10861
-736.088
9.76823
-653.109
20.9603
-531.232
34.3735
-323.361
41.194
53.2724
41.6304
426.608
35.5867
689.446
45.0146
1069.91
32.0497
1155
96.723
1829.37
2046.51
-3.82753
-17.113
-3.74417
-24.47
-3.72761
-29.7168
-3.72078
-34.6308
-3.73846
-39.5333
-3.76986
-44.2297
-3.81896
-48.9218
-3.88272
-53.5586
-3.96237
-58.2182
-4.05695
-62.8989
-4.16683
-67.6393
-4.29169
-72.4513
-4.4317
-77.3597
-4.58678
-82.3801
-4.75708
-87.532
-4.94271
-92.8316
-5.14386
-98.2962
-5.36077
-103.942
-5.59374
-109.786
-5.84313
-115.844
-6.10937
-122.133
-6.39293
-128.669
-6.69437
-135.469
-7.01429
-142.55
-7.35336
-149.929
-7.71231
-157.624
-8.09196
-165.653
-8.49317
-174.035
-8.91686
-182.788
-9.36406
-191.932
-9.83582
-201.488
-10.3333
-211.477
-10.8577
-221.921
-11.4103
-232.841
-11.9925
-244.262
-12.6057
-256.207
-13.2513
-268.701
-13.931
-281.771
-14.6462
-295.442
-15.3986
-309.743
-16.1899
-324.702
-17.0216
-340.347
-17.8951
-356.708
-18.812
-373.814
-19.7731
-391.694
-20.7792
-410.375
-21.8305
-429.883
-22.9263
-450.24
-24.0646
-471.463
-25.242
-493.558
-26.4527
-516.523
-27.6882
-540.337
-28.936
-564.957
-30.1786
-590.308
-31.3921
-616.281
-32.5444
-642.71
-33.5938
-669.375
-34.4865
-695.974
-35.1546
-722.126
-35.5127
-747.338
-35.456
-771.018
-34.8531
-792.401
-33.5466
-810.612
-31.3343
-824.4
-27.9862
-832.39
-23.2027
-832.148
-16.7037
-821.269
-8.14774
-794.272
2.49315
-746.729
15.1704
-665.787
28.1134
-544.175
43.0737
-338.321
51.6177
44.7285
46.7412
431.484
38.6064
697.581
46.3112
1062.21
33.2036
1168.11
97.0312
1765.55
2026.28
-4.13807
-17.2206
-4.04617
-24.5619
-4.02469
-29.7383
-4.01607
-34.6394
-4.03408
-39.5153
-4.06761
-44.1962
-4.12026
-48.8692
-4.18892
-53.4899
-4.27468
-58.1324
-4.37652
-62.7971
-4.49478
-67.521
-4.62912
-72.317
-4.77967
-77.2092
-4.94635
-82.2134
-5.12931
-87.349
-5.32864
-92.6322
-5.54455
-98.0803
-5.77728
-103.709
-6.02716
-109.536
-6.29455
-115.577
-6.5799
-121.848
-6.88372
-128.366
-7.20657
-135.146
-7.54909
-142.208
-7.91199
-149.566
-8.29604
-157.24
-8.70208
-165.247
-9.13101
-173.606
-9.58382
-182.335
-10.0616
-191.454
-10.5653
-200.985
-11.0963
-210.946
-11.6558
-221.361
-12.2452
-232.252
-12.8657
-243.641
-13.519
-255.553
-14.2065
-268.013
-14.9298
-281.047
-15.6906
-294.681
-16.4904
-308.943
-17.331
-323.861
-18.2139
-339.464
-19.1405
-355.781
-20.1122
-372.842
-21.1299
-390.676
-22.1942
-409.311
-23.3049
-428.772
-24.461
-449.084
-25.66
-470.264
-26.8977
-492.321
-28.1675
-515.254
-29.4593
-539.045
-30.759
-563.657
-32.0469
-589.021
-33.2962
-615.031
-34.4715
-641.535
-35.5273
-668.319
-36.405
-695.097
-37.0316
-721.499
-37.3161
-747.053
-37.1477
-771.186
-36.388
-793.161
-34.8709
-812.129
-32.3831
-826.888
-28.6792
-836.094
-23.4397
-837.387
-16.3599
-828.348
-7.07871
-803.553
4.44532
-758.253
18.1549
-679.496
32.2558
-558.276
47.4599
-353.525
59.3167
32.8716
54.2864
436.515
43.392
708.475
48.6929
1056.9
34.7137
1182.09
95.3884
1704.87
2001.99
-4.49308
-17.339
-4.39418
-24.6608
-4.36882
-29.7637
-4.35905
-34.6492
-4.37818
-39.4962
-4.41468
-44.1597
-4.47192
-48.8119
-4.54666
-53.4152
-4.63989
-58.0392
-4.75054
-62.6864
-4.8789
-67.3926
-5.0246
-72.1713
-5.18775
-77.046
-5.36828
-82.0329
-5.56631
-87.151
-5.78195
-92.4166
-6.01541
-97.8468
-6.26695
-103.458
-6.53691
-109.266
-6.82567
-115.288
-7.13371
-121.54
-7.46156
-128.038
-7.80983
-134.798
-8.17918
-141.838
-8.57037
-149.175
-8.9842
-156.826
-9.42157
-164.81
-9.88343
-173.144
-10.3708
-181.848
-10.8848
-190.94
-11.4266
-200.443
-11.9975
-210.375
-12.5987
-220.76
-13.2317
-231.619
-13.8979
-242.975
-14.5989
-254.852
-15.3363
-267.276
-16.1116
-280.272
-16.9267
-293.866
-17.783
-308.087
-18.6824
-322.962
-19.6264
-338.52
-20.6165
-354.791
-21.6539
-371.805
-22.7394
-389.59
-23.8735
-408.176
-25.0557
-427.59
-26.2845
-447.855
-27.557
-468.991
-28.8681
-491.01
-30.2101
-513.912
-31.5715
-537.684
-32.9363
-562.292
-34.2821
-587.675
-35.5792
-613.734
-36.7884
-640.326
-37.8594
-667.248
-38.7285
-694.227
-39.3167
-720.911
-39.5263
-746.844
-39.2392
-771.473
-38.3088
-794.091
-36.5591
-813.879
-33.7636
-829.683
-29.6592
-840.198
-23.9026
-843.144
-16.1584
-836.093
-6.03615
-813.675
6.53183
-770.821
21.4908
-694.455
37.0535
-573.839
53.696
-370.168
68.5743
17.9934
64.2152
440.874
50.6677
722.023
52.438
1055.13
37.1965
1197.33
94.0648
1648
1983.95
-4.82881
-17.4645
-4.72625
-24.7634
-4.698
-29.7919
-4.68788
-34.6593
-4.70854
-39.4755
-4.74831
-44.1199
-4.81031
-48.7499
-4.89121
-53.3343
-4.99192
-57.9385
-5.11132
-62.567
-5.24966
-67.2543
-5.40654
-72.0144
-5.58206
-76.8705
-5.77614
-81.8388
-5.9889
-86.9382
-6.22045
-92.185
-6.47102
-97.5963
-6.74086
-103.188
-7.03034
-108.977
-7.33987
-114.979
-7.66995
-121.21
-8.02113
-127.686
-8.39405
-134.425
-8.78942
-141.443
-9.20803
-148.757
-9.65073
-156.384
-10.1185
-164.342
-10.6122
-172.65
-11.1331
-181.327
-11.6822
-190.391
-12.2608
-199.864
-12.8702
-209.766
-13.5118
-220.118
-14.1871
-230.943
-14.8975
-242.264
-15.6447
-254.105
-16.4303
-266.49
-17.256
-279.446
-18.1235
-292.999
-19.0345
-307.176
-19.9908
-322.005
-20.994
-337.517
-22.0454
-353.74
-23.1463
-370.704
-24.2974
-388.439
-25.499
-406.975
-26.7504
-426.339
-28.0497
-446.556
-29.3934
-467.648
-30.7758
-489.627
-32.188
-512.499
-33.6172
-536.255
-35.0455
-560.864
-36.4484
-586.272
-37.7931
-612.39
-39.0368
-639.082
-40.1248
-666.16
-40.9886
-693.364
-41.5436
-720.356
-41.686
-746.701
-41.2912
-771.868
-40.2052
-795.177
-38.2431
-815.841
-35.1668
-832.759
-30.6959
-844.669
-24.4638
-849.376
-16.1024
-844.454
-5.18683
-824.591
8.39239
-784.4
24.5963
-710.659
41.7147
-590.957
60.1793
-388.632
77.9526
0.220083
75.9507
442.875
60.778
737.196
58.2255
1057.69
40.8307
1214.73
92.6341
1596.2
1956.16
-5.15997
-17.5947
-5.05586
-24.8675
-5.02577
-29.822
-5.01606
-34.669
-5.03877
-39.4528
-5.08224
-44.0764
-5.14936
-48.6828
-5.23678
-53.2469
-5.34528
-57.8299
-5.47373
-62.4386
-5.62234
-67.1057
-5.79068
-71.846
-5.97886
-76.6823
-6.18677
-81.6309
-6.41453
-86.7105
-6.66227
-91.9373
-6.93022
-97.3283
-7.21865
-102.9
-7.52794
-108.668
-7.85852
-114.648
-8.21093
-120.857
-8.58574
-127.312
-8.98363
-134.027
-9.40534
-141.021
-9.85171
-148.31
-10.3236
-155.912
-10.8221
-163.844
-11.3481
-172.124
-11.9028
-180.772
-12.4874
-189.807
-13.1033
-199.248
-13.7517
-209.118
-14.4342
-219.436
-15.1522
-230.225
-15.9073
-241.509
-16.7012
-253.311
-17.5355
-265.656
-18.4121
-278.57
-19.3327
-292.078
-20.2991
-306.209
-21.313
-320.992
-22.376
-336.454
-23.4895
-352.626
-24.6548
-369.539
-25.8724
-387.221
-27.1425
-405.705
-28.4641
-425.017
-29.835
-445.185
-31.2513
-466.231
-32.7063
-488.172
-34.1904
-511.015
-35.6894
-534.756
-37.1836
-559.37
-38.6463
-584.809
-40.0417
-610.994
-41.3235
-637.8
-42.4331
-665.05
-43.2967
-692.5
-43.8246
-719.828
-43.9071
-746.619
-43.4134
-772.361
-42.1826
-796.408
-40.0214
-818.002
-36.6805
-836.1
-31.8628
-849.487
-25.1772
-856.062
-16.2201
-853.411
-4.52491
-836.286
10.0741
-798.999
27.5676
-728.153
46.3728
-609.762
66.8221
-409.081
87.3055
-20.2633
88.5238
441.657
73.2322
752.487
66.3114
1064.61
46.0267
1235.01
90.1768
1552.05
1937.38
-5.48427
-17.7273
-5.38043
-24.9714
-5.34941
-29.853
-5.34082
-34.6776
-5.36604
-39.4276
-5.41361
-44.0289
-5.48618
-48.6102
-5.58038
-53.1527
-5.69693
-57.7134
-5.83466
-62.3008
-5.99373
-66.9466
-6.17373
-71.666
-6.37473
-76.4813
-6.59662
-81.409
-6.83953
-86.4676
-7.10359
-91.6732
-7.38904
-97.0429
-7.69617
-102.593
-8.02537
-108.338
-8.37712
-114.296
-8.75194
-120.483
-9.15047
-126.913
-9.57341
-133.604
-10.0215
-140.573
-10.4957
-147.836
-10.9969
-155.411
-11.5262
-163.314
-12.0845
-171.566
-12.6732
-180.183
-13.2934
-189.186
-13.9466
-198.595
-14.6341
-208.43
-15.3575
-218.712
-16.1183
-229.465
-16.9181
-240.709
-17.7588
-252.471
-18.642
-264.773
-19.5696
-277.642
-20.5434
-291.104
-21.5652
-305.188
-22.6368
-319.92
-23.7598
-335.331
-24.9356
-351.45
-26.1654
-368.309
-27.4498
-385.937
-28.7886
-404.366
-30.1808
-423.625
-31.6238
-443.742
-33.1132
-464.742
-34.6417
-486.644
-36.1986
-509.458
-37.7686
-533.186
-39.3303
-557.808
-40.8546
-583.285
-42.3033
-609.545
-43.6266
-636.477
-44.7616
-663.915
-45.6302
-691.631
-46.1371
-719.321
-46.1674
-746.588
-45.5843
-772.945
-44.2207
-797.772
-41.8757
-820.347
-38.2896
-839.686
-33.1491
-854.627
-26.0381
-863.173
-16.5149
-862.934
-4.06364
-848.737
11.5511
-814.614
30.364
-746.965
50.9586
-630.357
73.5107
-431.634
96.761
-43.5136
101.383
437.035
87.1178
766.753
76.6487
1075.08
53.4858
1258.17
88.3914
1517.14
1913.01
-5.80296
-17.8607
-5.70076
-25.0736
-5.66968
-29.8841
-5.66288
-34.6844
-5.69109
-39.3994
-5.74314
-43.9768
-5.82148
-48.5319
-5.92277
-53.0514
-6.04762
-57.5886
-6.19487
-62.1536
-6.36464
-66.7768
-6.5565
-71.4742
-6.77051
-76.2673
-7.00658
-81.173
-7.26482
-86.2093
-7.54537
-91.3927
-7.84848
-96.7398
-8.17446
-102.267
-8.52373
-107.989
-8.89678
-113.923
-9.29417
-120.085
-9.71656
-126.491
-10.1647
-133.156
-10.6394
-140.098
-11.1416
-147.334
-11.6722
-154.88
-12.2323
-162.754
-12.8232
-170.975
-13.4459
-179.561
-14.1019
-188.53
-14.7926
-197.905
-15.5193
-207.703
-16.2838
-217.948
-17.0876
-228.661
-17.9324
-239.865
-18.8201
-251.583
-19.7524
-263.841
-20.7312
-276.663
-21.7584
-290.077
-22.8359
-304.11
-23.9654
-318.79
-25.1487
-334.148
-26.3871
-350.212
-27.6818
-367.014
-29.0333
-384.586
-30.4414
-402.958
-31.9047
-422.162
-33.4205
-442.226
-34.9837
-463.179
-36.5866
-485.041
-38.2177
-507.827
-39.8602
-531.543
-41.4912
-556.177
-43.0798
-581.696
-44.5847
-608.041
-45.9531
-635.109
-47.1182
-662.75
-47.9971
-690.753
-48.4899
-718.829
-48.4761
-746.602
-47.8137
-773.607
-46.3299
-799.255
-43.8171
-822.86
-40.0061
-843.497
-34.5677
-860.066
-27.0606
-870.68
-17.0019
-872.993
-3.81943
-861.919
12.8056
-831.239
32.9673
-767.127
55.4467
-652.836
80.198
-456.385
106.421
-69.7361
114.352
429.103
101.669
779.436
88.7321
1088.01
63.0165
1283.89
85.7922
1494.37
1883.72
-6.11643
-17.9935
-6.01698
-25.173
-5.98662
-29.9145
-5.98224
-34.6888
-6.01388
-39.3678
-6.0708
-43.9199
-6.15523
-48.4475
-6.26389
-52.9427
-6.3973
-57.4551
-6.55431
-61.9966
-6.735
-66.5962
-6.93893
-71.2702
-7.16616
-76.0401
-7.41658
-80.9225
-7.69032
-85.9356
-7.98753
-91.0955
-8.30846
-96.4188
-8.65345
-101.922
-9.02294
-107.62
-9.41743
-113.529
-9.83753
-119.665
-10.2839
-126.044
-10.7574
-132.683
-11.2588
-139.597
-11.7891
-146.804
-12.3493
-154.32
-12.9405
-162.163
-13.564
-170.351
-14.2209
-178.904
-14.9129
-187.839
-15.6411
-197.176
-16.4073
-206.937
-17.213
-217.142
-18.06
-227.814
-18.9499
-238.975
-19.8847
-250.648
-20.8663
-262.859
-21.8966
-275.633
-22.9774
-288.996
-24.1108
-302.977
-25.2986
-317.603
-26.5425
-332.904
-27.8438
-348.911
-29.2038
-365.654
-30.6228
-383.167
-32.1006
-401.48
-33.6356
-420.627
-35.2248
-440.637
-36.8628
-461.541
-38.5412
-483.362
-40.2476
-506.121
-41.9642
-529.826
-43.6667
-554.474
-45.3219
-580.041
-46.8863
-606.476
-48.3037
-633.691
-49.5036
-661.55
-50.3987
-689.857
-50.8843
-718.343
-50.835
-746.651
-50.1038
-774.338
-48.513
-800.846
-45.8489
-825.524
-41.8342
-847.512
-36.1243
-865.776
-28.2525
-878.552
-17.692
-883.554
-3.80658
-875.805
13.8184
-848.864
35.3536
-788.662
59.8003
-677.283
86.8315
-483.416
116.225
-99.1298
127.408
417.92
116.491
790.353
101.748
1102.76
73.203
1312.43
79.3331
1488.24
1866.66
-6.42516
-18.1246
-6.32932
-25.2688
-6.30041
-29.9434
-6.29902
-34.6902
-6.33453
-39.3322
-6.3967
-43.8577
-6.48753
-48.3566
-6.60385
-52.8264
-6.74609
-57.3129
-6.91311
-61.8296
-7.10494
-66.4043
-7.32116
-71.054
-7.5618
-75.7995
-7.82676
-80.6576
-8.11619
-85.6462
-8.43022
-90.7814
-8.76915
-96.0799
-9.13331
-101.557
-9.52317
-107.23
-9.93926
-113.113
-10.3822
-119.222
-10.8528
-125.574
-11.3517
-132.184
-11.88
-139.069
-12.4385
-146.245
-13.0284
-153.73
-13.6509
-161.541
-14.3071
-169.695
-14.9985
-178.212
-15.7265
-187.111
-16.4925
-196.41
-17.2983
-206.131
-18.1455
-216.295
-19.0358
-226.924
-19.9711
-238.039
-20.9533
-249.666
-21.9843
-261.828
-23.0662
-274.551
-24.201
-287.862
-25.3906
-301.787
-26.6369
-316.356
-27.9417
-331.599
-29.3063
-347.546
-30.7319
-364.229
-32.2189
-381.68
-33.7669
-399.932
-35.3743
-419.019
-37.0377
-438.974
-38.7513
-459.827
-40.5063
-481.607
-42.2894
-504.338
-44.082
-528.034
-45.858
-552.698
-47.5826
-578.317
-49.2098
-604.849
-50.6805
-632.22
-51.9202
-660.311
-52.8377
-688.94
-53.3234
-717.857
-53.2476
-746.727
-52.4586
-775.127
-50.7745
-802.53
-47.9765
-828.322
-43.7803
-851.708
-37.8268
-871.729
-29.6236
-886.755
-18.5979
-894.579
-4.04154
-890.361
14.5678
-867.473
37.4974
-811.592
63.9829
-703.768
93.3796
-512.813
126.103
-131.854
140.603
403.42
131.482
799.474
115.004
1119.23
83.1016
1344.34
69.9599
1501.38
1845.48
-6.72955
-18.2532
-6.63802
-25.3604
-6.61122
-29.9702
-6.61336
-34.688
-6.65316
-39.2924
-6.72093
-43.7899
-6.81849
-48.2591
-6.94276
-52.7021
-7.09409
-57.1616
-7.27135
-61.6523
-7.47455
-66.2011
-7.70328
-70.8253
-7.95753
-75.5452
-8.23724
-80.3779
-8.54253
-85.3409
-8.87357
-90.4504
-9.23066
-95.7228
-9.61415
-101.174
-10.0245
-106.819
-10.4624
-112.675
-10.9284
-118.756
-11.4232
-125.079
-11.9478
-131.659
-12.5031
-138.514
-13.09
-145.658
-13.7098
-153.11
-14.3637
-160.887
-15.0529
-169.006
-15.7788
-177.486
-16.543
-186.346
-17.3471
-195.606
-18.1926
-205.286
-19.0814
-215.406
-20.0153
-225.99
-20.9961
-237.058
-22.0259
-248.636
-23.1067
-260.747
-24.2406
-273.417
-25.4295
-286.673
-26.6756
-300.541
-27.9807
-315.051
-29.3467
-330.233
-30.775
-346.118
-32.2667
-362.737
-33.8222
-380.124
-35.441
-398.313
-37.1213
-417.339
-38.8597
-437.236
-40.6499
-458.037
-42.4827
-479.775
-44.344
-502.476
-46.2143
-526.164
-48.0663
-550.846
-49.8632
-576.52
-51.5568
-603.155
-53.085
-630.692
-54.37
-659.026
-55.3163
-687.994
-55.8101
-717.364
-55.7171
-746.82
-54.8816
-775.963
-53.1182
-804.294
-50.2044
-831.236
-45.8497
-856.063
-39.682
-877.897
-31.1831
-895.254
-19.7319
-906.03
-4.5409
-905.552
15.0315
-887.045
39.3713
-835.932
67.9559
-732.353
99.8091
-544.666
136.017
-168.061
154.011
385.426
146.674
806.811
128.208
1137.7
93.195
1379.35
62.3903
1532.18
1821.56
-7.02996
-18.3784
-6.9433
-25.447
-6.9192
-29.9943
-6.92536
-34.6819
-6.96987
-39.2479
-7.04361
-43.7162
-7.1482
-48.1545
-7.2807
-52.5696
-7.44138
-57.0009
-7.62914
-61.4645
-7.84395
-65.9863
-8.08539
-70.5838
-8.35347
-75.2771
-8.64812
-80.0832
-8.96947
-85.0195
-9.3177
-90.1022
-9.69312
-95.3474
-10.0961
-100.771
-10.5272
-106.388
-10.987
-112.215
-11.4762
-118.267
-11.9955
-124.56
-12.5459
-131.109
-13.1283
-137.931
-13.7438
-145.043
-14.3937
-152.46
-15.0791
-160.201
-15.8014
-168.284
-16.5621
-176.725
-17.3628
-185.546
-18.205
-194.764
-19.0905
-204.4
-20.0211
-214.476
-20.9988
-225.012
-22.0254
-236.032
-23.1031
-247.558
-24.2339
-259.616
-25.4199
-272.231
-26.6633
-285.429
-27.9662
-299.238
-29.3305
-313.687
-30.758
-328.806
-32.2504
-344.625
-33.8086
-361.179
-35.4331
-378.5
-37.1233
-396.623
-38.8774
-415.585
-40.6915
-435.421
-42.5594
-456.169
-44.4712
-477.863
-46.4124
-500.535
-48.3624
-524.214
-50.2927
-548.916
-52.165
-574.647
-53.9288
-601.392
-55.5193
-629.102
-56.8551
-657.69
-57.837
-687.012
-58.347
-716.854
-58.2464
-746.921
-57.3762
-776.833
-55.5482
-806.122
-52.537
-834.247
-48.0479
-860.552
-41.6967
-884.248
-32.9402
-904.01
-21.1068
-917.864
-5.3222
-921.337
15.1854
-907.553
40.9461
-861.692
71.6794
-763.086
106.09
-579.076
145.946
-207.917
167.692
363.68
162.13
812.374
141.46
1158.37
104.693
1416.12
63.1439
1573.73
1817.4
-7.32671
-18.4997
-7.24535
-25.5284
-7.22452
-30.0151
-7.23517
-34.6712
-7.28478
-39.1983
-7.36482
-43.6362
-7.47677
-48.0425
-7.61779
-52.4286
-7.78809
-56.8306
-7.98658
-61.2661
-8.21323
-65.7597
-8.46762
-70.3294
-8.74974
-74.995
-9.05953
-79.7734
-9.39713
-84.6819
-9.76274
-89.7366
-10.1567
-94.9535
-10.5794
-100.348
-11.0314
-105.936
-11.5132
-111.733
-12.0257
-117.754
-12.5697
-124.016
-13.1461
-130.533
-13.7558
-137.321
-14.4001
-144.398
-15.0802
-151.78
-15.7974
-159.484
-16.553
-167.528
-17.3487
-175.93
-18.186
-184.708
-19.0666
-193.883
-19.9923
-203.475
-20.965
-213.503
-21.9866
-223.99
-23.0593
-234.959
-24.1851
-246.433
-25.3661
-258.435
-26.6046
-270.993
-27.9028
-284.131
-29.2628
-297.878
-30.6866
-312.263
-32.1762
-327.316
-33.733
-343.068
-35.3582
-359.553
-37.0523
-376.806
-38.8145
-394.861
-40.643
-413.756
-42.5339
-433.531
-44.4805
-454.222
-46.4727
-475.871
-48.4953
-498.513
-50.5271
-522.182
-52.5384
-546.905
-54.4893
-572.696
-56.3273
-599.554
-57.9849
-627.444
-59.3776
-656.297
-60.4023
-685.987
-60.9368
-716.319
-60.8389
-747.019
-59.946
-777.726
-58.0683
-807.999
-54.9788
-837.336
-50.38
-865.151
-43.8777
-890.75
-34.904
-912.984
-22.7354
-930.032
-6.40372
-937.669
15.0039
-928.961
42.19
-888.879
75.1109
-796.007
112.191
-616.156
155.87
-251.596
181.702
337.848
177.889
816.187
155.02
1181.24
118.538
1452.6
76.4406
1615.83
1816.45
-7.62009
-18.6166
-7.5444
-25.6041
-7.52735
-30.0322
-7.5429
-34.6557
-7.598
-39.1432
-7.68469
-43.5495
-7.8043
-47.9229
-7.95412
-52.2788
-8.1343
-56.6504
-8.34379
-61.0566
-8.58252
-65.5209
-8.85007
-70.0619
-9.14645
-74.6986
-9.47159
-79.4483
-9.82565
-84.3278
-10.2088
-89.3534
-10.6215
-94.5408
-11.0641
-99.9056
-11.5371
-105.463
-12.0413
-111.229
-12.5773
-117.218
-13.1461
-123.447
-13.7486
-129.93
-14.3859
-136.684
-15.0592
-143.725
-15.7696
-151.07
-16.5187
-158.735
-17.3079
-166.739
-18.1387
-175.099
-19.0129
-183.834
-19.9321
-192.964
-20.8982
-202.508
-21.9132
-212.488
-22.9791
-222.924
-24.0981
-233.84
-25.2723
-245.258
-26.5039
-257.204
-27.7952
-269.701
-29.1484
-282.778
-30.5659
-296.461
-32.0496
-310.779
-33.6016
-325.764
-35.2234
-341.447
-36.9162
-357.861
-38.6803
-375.041
-40.5153
-393.026
-42.419
-411.853
-44.3875
-431.562
-46.414
-452.196
-48.488
-473.797
-50.5939
-496.407
-52.7096
-520.066
-54.8046
-544.81
-56.8376
-570.664
-58.754
-597.637
-60.4839
-625.714
-61.9397
-654.841
-63.0146
-684.912
-63.5824
-715.751
-63.4974
-747.104
-62.5944
-778.629
-60.6822
-809.912
-57.534
-840.485
-52.8511
-869.834
-46.2312
-897.37
-37.0834
-922.132
-24.6307
-942.485
-7.80458
-954.495
14.4599
-951.225
43.069
-917.488
78.2056
-831.144
118.083
-656.033
165.781
-299.295
196.112
307.517
193.944
818.355
169.026
1206.16
133.597
1488.03
96.9565
1652.47
1835.08
-7.91036
-18.7287
-7.84063
-25.6738
-7.82782
-30.045
-7.84869
-34.6348
-7.90964
-39.0823
-8.00332
-43.4558
-8.13089
-47.7953
-8.28981
-52.1199
-8.48014
-56.4601
-8.70088
-60.8358
-8.95193
-65.2699
-9.23288
-69.7809
-9.54373
-74.3878
-9.88444
-79.1076
-10.2552
-83.9571
-10.6561
-88.9524
-11.0877
-94.1092
-11.5503
-99.443
-12.0446
-104.969
-12.5712
-110.702
-13.131
-116.659
-13.7248
-122.853
-14.3537
-129.301
-15.0187
-136.019
-15.7211
-143.023
-16.4622
-150.329
-17.2435
-157.954
-18.0664
-165.916
-18.9326
-174.233
-19.8438
-182.923
-20.8018
-192.006
-21.8086
-201.502
-22.8662
-211.43
-23.9767
-221.814
-25.1422
-232.675
-26.365
-244.036
-27.6475
-255.921
-28.9919
-268.357
-30.4006
-281.369
-31.8759
-294.985
-33.42
-309.235
-35.0348
-324.149
-36.7221
-339.759
-38.4829
-356.1
-40.3178
-373.207
-42.2262
-391.117
-44.206
-409.873
-46.2532
-429.515
-48.3608
-450.088
-50.518
-471.64
-52.709
-494.216
-54.911
-517.864
-57.0925
-542.628
-59.2111
-568.545
-61.2104
-595.638
-63.018
-623.907
-64.5434
-653.316
-65.6763
-683.779
-66.2866
-715.141
-66.2252
-747.165
-65.3246
-779.529
-63.3937
-811.843
-60.2065
-843.672
-55.4659
-874.575
-48.7635
-904.072
-39.4872
-931.408
-26.8059
-955.166
-9.54475
-971.756
13.5246
-974.294
43.5462
-947.509
80.9148
-868.512
123.736
-698.855
175.674
-351.233
210.984
272.207
210.243
819.096
183.471
1232.93
148.469
1523.03
117.767
1683.17
1853.39
-8.19776
-18.8357
-8.13424
-25.7373
-8.12611
-30.0531
-8.15267
-34.6082
-8.21984
-39.0151
-8.32082
-43.3548
-8.45668
-47.6595
-8.62497
-51.9516
-8.82573
-56.2593
-9.05797
-60.6036
-9.32158
-65.0063
-9.61617
-69.4863
-9.94173
-74.0622
-10.2982
-78.7511
-10.6858
-83.5695
-11.1048
-88.5335
-11.5554
-93.6586
-12.0383
-98.9601
-12.5541
-104.453
-13.1034
-110.153
-13.6871
-116.075
-14.3061
-122.234
-14.9615
-128.646
-15.6544
-135.326
-16.3862
-142.291
-17.1581
-149.557
-17.9718
-157.14
-18.8286
-165.059
-19.7304
-173.331
-20.6789
-181.975
-21.6761
-191.009
-22.7238
-200.454
-23.8243
-210.33
-24.9795
-220.659
-26.1919
-231.462
-27.4638
-242.764
-28.7975
-254.588
-30.1954
-266.959
-31.6599
-279.904
-33.1935
-293.452
-34.7983
-307.63
-36.4764
-322.471
-38.2296
-338.006
-40.0591
-354.27
-41.9655
-371.3
-43.948
-389.135
-46.0048
-407.816
-48.1317
-427.388
-50.3216
-447.898
-52.5637
-469.397
-54.8416
-491.938
-57.1323
-515.573
-59.4034
-540.357
-61.6113
-566.337
-63.698
-593.551
-65.5891
-622.016
-67.1909
-651.714
-68.3898
-682.58
-69.0521
-714.479
-69.0253
-747.192
-68.1402
-780.415
-66.2062
-813.777
-63.0003
-846.878
-58.2288
-879.346
-51.4803
-910.821
-42.124
-940.764
-29.2743
-968.016
-11.645
-989.385
12.1677
-998.107
43.581
-978.923
83.1857
-908.117
129.123
-744.792
185.534
-407.645
226.345
231.396
226.737
818.703
198.275
1261.39
162.178
1559.13
134.465
1710.89
1875
-8.48251
-18.9372
-8.42541
-25.7944
-8.42235
-30.0562
-8.45497
-34.5756
-8.52871
-38.9414
-8.63733
-43.2462
-8.78176
-47.515
-8.95972
-51.7736
-9.17118
-56.0478
-9.41519
-60.3596
-9.69162
-64.7299
-10.0001
-69.1779
-10.3406
-73.7218
-10.7131
-78.3786
-11.1178
-83.1648
-11.5549
-88.0963
-12.0249
-93.1886
-12.5283
-98.4567
-13.0657
-103.916
-13.6378
-109.581
-14.2457
-115.467
-14.8901
-121.59
-15.5723
-127.964
-16.2934
-134.605
-17.0547
-141.529
-17.8577
-148.754
-18.7039
-156.294
-19.595
-164.168
-20.5326
-172.393
-21.5187
-180.988
-22.5552
-189.972
-23.6442
-199.365
-24.7878
-209.186
-25.9882
-219.458
-27.2478
-230.203
-28.569
-241.443
-29.9542
-253.202
-31.4059
-265.507
-32.9267
-278.384
-34.519
-291.86
-36.185
-305.964
-37.927
-320.729
-39.7467
-336.186
-41.6455
-352.372
-43.6239
-369.322
-45.6814
-387.077
-47.8161
-405.681
-50.0238
-425.18
-52.2974
-445.625
-54.6259
-467.069
-56.9929
-489.571
-59.3747
-513.191
-61.7385
-537.993
-64.0396