/*--------------------------------*- C++ -*----------------------------------*\
| =========                 |                                                 |
| \\      /  F ield         | OpenFOAM: The Open Source CFD Toolbox           |
|  \\    /   O peration     | Version:  4.1                                   |
|   \\  /    A nd           | Web:      www.OpenFOAM.org                      |
|    \\/     M anipulation  |                                                 |
\*---------------------------------------------------------------------------*/
FoamFile
{
    version     2.0;
    format      ascii;
    class       volSymmTensorField;
    location    "4";
    object      turbulenceProperties:R;
}
// * * * * * * * * * * * * * * * * * * * * * * * * * * * * * * * * * * * * * //

dimensions      [0 2 -2 0 0 0 0];

internalField   nonuniform List<symmTensor> 
6785
(
(0.753313 1.38823e-19 7.44569e-20 0.753188 0.000167013 0.753499)
(0.753354 -1.05614e-19 -5.17901e-20 0.75332 6.68732e-06 0.753326)
(0.753325 -3.64549e-20 -2.71983e-20 0.75336 3.85311e-05 0.753315)
(0.753334 1.87663e-20 1.47944e-20 0.753344 2.65902e-05 0.753322)
(0.753331 -2.9382e-20 -8.62913e-21 0.753346 2.71088e-05 0.753322)
(0.753332 1.25182e-20 -2.44128e-21 0.753343 2.41198e-05 0.753325)
(0.753332 4.17279e-21 8.56584e-21 0.753342 2.22427e-05 0.753326)
(0.753333 -1.99439e-20 -3.38252e-21 0.75334 2.01892e-05 0.753328)
(0.753333 4.9423e-21 -5.17343e-21 0.753337 1.84435e-05 0.75333)
(0.753333 2.14963e-21 5.61641e-21 0.753335 1.73074e-05 0.753332)
(0.753332 -1.07736e-20 -1.08956e-21 0.753332 1.6942e-05 0.753336)
(0.753334 2.78481e-21 -2.38512e-21 0.753327 1.38313e-05 0.753339)
(0.753334 -7.12437e-22 4.57707e-21 0.753326 8.95641e-06 0.75334)
(0.753319 -3.66817e-21 2.48512e-21 0.753357 1.12819e-05 0.753324)
(0.753346 1.54598e-21 -4.09785e-21 0.753388 -7.70515e-05 0.753266)
(0.75333 1.835e-19 1.10758e-19 0.753006 0.000218902 0.753664)
(0.753351 -1.27871e-19 -7.4433e-20 0.753339 -1.69183e-05 0.75331)
(0.753325 -5.11401e-20 -3.02364e-20 0.753377 1.10519e-05 0.753298)
(0.753341 1.6797e-20 2.85118e-20 0.753351 -7.63388e-06 0.753308)
(0.753333 -2.31656e-20 -1.30758e-20 0.75336 1.08439e-07 0.753306)
(0.753336 6.48712e-21 2.86259e-21 0.753354 -3.98242e-06 0.75331)
(0.753335 -6.05188e-21 7.94958e-21 0.753354 -3.18014e-06 0.753312)
(0.753335 -1.34289e-20 -7.04373e-21 0.753351 -4.03766e-06 0.753314)
(0.753335 -2.18218e-21 -1.18129e-21 0.75335 -4.35509e-06 0.753315)
(0.753335 -2.66447e-21 1.44104e-21 0.75335 -5.49324e-06 0.753316)
(0.753334 -3.52606e-21 -5.08192e-22 0.753352 -7.78735e-06 0.753313)
(0.753334 -5.98586e-22 1.0119e-21 0.753361 -1.54036e-05 0.753304)
(0.753335 4.47009e-21 8.91501e-21 0.753383 -3.35429e-05 0.753282)
(0.753336 6.95139e-21 3.84947e-21 0.753399 -5.18863e-05 0.753265)
(0.753331 -4.18445e-21 -3.26592e-21 0.75334 -1.50486e-05 0.753328)
(0.75333 2.12763e-19 6.81385e-20 0.752974 0.00021644 0.753696)
(0.753339 -1.34069e-19 -7.51948e-20 0.753347 -1.74344e-05 0.753314)
(0.753325 -4.32304e-20 -2.61057e-20 0.75337 -3.17724e-06 0.753305)
(0.753338 3.18904e-20 -2.39676e-20 0.753349 -1.87569e-05 0.753313)
(0.753329 -2.18833e-20 -2.02905e-20 0.753361 -8.47685e-06 0.75331)
(0.753334 7.04217e-21 3.70929e-21 0.753352 -1.449e-05 0.753314)
(0.753332 6.34187e-21 -2.74931e-20 0.753354 -1.13191e-05 0.753314)
(0.753333 -1.37051e-20 -7.23743e-21 0.753349 -1.2288e-05 0.753318)
(0.753333 -4.28275e-21 -3.60506e-21 0.753346 -1.15627e-05 0.753321)
(0.753333 5.51279e-21 -2.62263e-20 0.753344 -1.2503e-05 0.753323)
(0.753333 -6.469e-21 -4.89683e-21 0.753347 -1.40628e-05 0.75332)
(0.753333 5.93539e-21 1.78304e-21 0.753357 -1.90834e-05 0.753309)
(0.753332 2.03605e-20 -7.12929e-21 0.753382 -2.75852e-05 0.753286)
(0.753338 1.04318e-20 7.56663e-21 0.753404 -4.649e-05 0.753258)
(0.753329 -7.17696e-21 -4.87797e-21 0.753353 8.75002e-06 0.753319)
(0.753332 1.72356e-19 1.21426e-19 0.752975 0.000209704 0.753693)
(0.753336 -1.13321e-19 -9.71928e-20 0.75335 -1.48153e-05 0.753313)
(0.753329 -4.04233e-20 -5.43407e-21 0.753366 -8.71244e-06 0.753305)
(0.753338 7.33049e-21 5.34412e-21 0.753353 -1.89563e-05 0.753309)
(0.75333 -5.13678e-21 -2.65337e-20 0.753363 -9.02679e-06 0.753307)
(0.753335 3.09893e-22 1.06147e-20 0.753355 -1.51422e-05 0.75331)
(0.753332 -9.94352e-21 -4.65461e-21 0.75336 -1.15714e-05 0.753308)
(0.753334 1.05997e-20 -1.58352e-20 0.75336 -1.63981e-05 0.753306)
(0.753333 1.24324e-20 1.1765e-20 0.753361 -1.9376e-05 0.753306)
(0.753333 -3.75893e-22 -1.16601e-20 0.75335 -2.00181e-05 0.753316)
(0.753333 3.94186e-21 -2.50115e-20 0.753337 -1.59194e-05 0.753329)
(0.753333 -8.66162e-22 -5.37894e-21 0.753336 -1.39198e-05 0.753331)
(0.753333 -5.36983e-21 -7.24019e-21 0.753348 -1.41134e-05 0.753319)
(0.753335 3.92691e-21 -6.47936e-21 0.753362 -1.30603e-05 0.753303)
(0.753332 -1.15948e-20 -5.68112e-21 0.753421 -2.92732e-05 0.753247)
(0.753332 1.75746e-19 8.13463e-20 0.752965 0.000217611 0.753703)
(0.753336 -1.06155e-19 -9.48952e-20 0.753353 -1.18165e-05 0.753311)
(0.75333 -2.20758e-20 -3.42575e-20 0.753365 -7.35144e-06 0.753305)
(0.753336 1.37988e-20 -4.80414e-21 0.753356 -1.45269e-05 0.753307)
(0.753331 1.0424e-21 -3.19833e-20 0.753362 -6.47304e-06 0.753307)
(0.753335 8.59258e-21 -7.72117e-21 0.753356 -1.07969e-05 0.753309)
(0.753332 5.28205e-22 -1.07947e-20 0.753364 -9.20699e-06 0.753304)
(0.753334 4.07949e-20 1.14561e-21 0.753375 -1.89892e-05 0.753291)
(0.753333 8.13636e-20 3.97782e-20 0.753392 -2.85329e-05 0.753275)
(0.753333 7.47757e-20 2.92333e-20 0.753389 -3.17423e-05 0.753278)
(0.753333 -5.59543e-21 -2.14517e-20 0.753361 -2.22013e-05 0.753306)
(0.753334 -8.01932e-20 -5.55123e-20 0.753325 -9.1878e-06 0.753341)
(0.753334 -7.37497e-20 -4.41333e-20 0.753298 1.60454e-06 0.753368)
(0.75333 -2.152e-20 -1.53742e-20 0.753309 4.67474e-06 0.753361)
(0.753335 -2.86552e-21 -3.70043e-21 0.753427 -6.54186e-05 0.753239)
(0.753332 1.64532e-19 1.14747e-19 0.752942 0.000226322 0.753726)
(0.753336 -1.28442e-19 -5.51419e-20 0.753349 -7.85729e-06 0.753315)
(0.753331 -4.38912e-20 1.57825e-20 0.753367 -9.88282e-06 0.753302)
(0.753336 1.03618e-20 6.14144e-21 0.753354 -1.34195e-05 0.75331)
(0.753331 -2.65741e-20 -3.11038e-21 0.753359 -6.59584e-06 0.75331)
(0.753335 -8.75032e-21 2.88449e-20 0.753352 -1.05682e-05 0.753313)
(0.753332 1.20515e-21 2.14158e-22 0.753358 -7.9656e-06 0.75331)
(0.753334 9.64629e-21 1.60459e-20 0.753368 -1.66577e-05 0.753298)
(0.753333 6.92225e-20 6.62483e-20 0.75339 -2.44639e-05 0.753277)
(0.753334 9.06884e-20 5.47092e-20 0.753404 -3.07902e-05 0.753262)
(0.753334 -2.11439e-20 -2.06559e-21 0.753403 -2.96284e-05 0.753264)
(0.753333 -1.07487e-19 -5.7293e-20 0.75339 -2.70315e-05 0.753277)
(0.753332 -9.20797e-20 -5.4274e-20 0.753359 -1.7777e-05 0.753308)
(0.753333 -1.56191e-20 -2.00951e-20 0.753313 -6.07942e-06 0.753355)
(0.753335 4.9337e-20 2.81011e-20 0.753292 -2.08676e-06 0.753373)
(0.753332 1.53265e-19 1.12901e-19 0.752938 0.000220927 0.75373)
(0.753336 -1.13524e-19 -4.81582e-20 0.75333 4.37697e-07 0.753335)
(0.753331 -6.57003e-20 3.52651e-21 0.753373 -1.76033e-05 0.753296)
(0.753336 1.79482e-20 1.14635e-20 0.753354 -1.77986e-05 0.75331)
(0.753331 -2.84101e-20 1.10343e-21 0.753356 -1.04208e-05 0.753313)
(0.753335 -1.489e-20 1.55819e-20 0.75335 -1.45574e-05 0.753315)
(0.753332 1.21155e-20 7.61028e-21 0.753353 -1.12402e-05 0.753315)
(0.753334 -1.68198e-20 2.89542e-21 0.753355 -1.55173e-05 0.753311)
(0.753333 6.39869e-21 2.97397e-20 0.753366 -1.7354e-05 0.753301)
(0.753334 4.88852e-20 3.84761e-20 0.753378 -2.05719e-05 0.753288)
(0.753333 4.7699e-21 2.53413e-20 0.75339 -2.13229e-05 0.753277)
(0.753333 -1.85836e-20 4.43316e-21 0.7534 -2.37808e-05 0.753267)
(0.75333 4.50948e-20 2.06385e-20 0.753416 -2.66518e-05 0.753254)
(0.753342 -2.35356e-20 -1.98043e-20 0.75338 -3.52903e-05 0.753278)
(0.753333 -8.16327e-20 -5.70819e-20 0.753268 3.49088e-05 0.753399)
(0.753333 1.80517e-19 9.25904e-20 0.75296 0.000205322 0.753707)
(0.753334 -8.79041e-20 -5.41995e-20 0.753307 1.14637e-05 0.753358)
(0.753332 -6.17267e-20 -5.98393e-20 0.753377 -2.32587e-05 0.753291)
(0.753335 1.18609e-20 1.6104e-20 0.75336 -2.20121e-05 0.753305)
(0.753332 -1.30386e-20 -8.82897e-21 0.753356 -1.38384e-05 0.753312)
(0.753334 -8.07685e-21 -1.66223e-20 0.753351 -1.6782e-05 0.753314)
(0.753333 1.21165e-20 5.32889e-21 0.753353 -1.4267e-05 0.753314)
(0.753334 1.0759e-21 3.24827e-22 0.753352 -1.61552e-05 0.753314)
(0.753333 -5.7836e-22 -1.22695e-20 0.753355 -1.59259e-05 0.753312)
(0.753333 5.3105e-21 6.22175e-21 0.75336 -1.68887e-05 0.753307)
(0.753333 7.0391e-21 1.01172e-20 0.753367 -1.73501e-05 0.7533)
(0.753333 1.00392e-20 4.35038e-21 0.753376 -1.93956e-05 0.753291)
(0.753332 1.06548e-20 1.14487e-20 0.75339 -2.0871e-05 0.753278)
(0.753337 6.40378e-21 1.20071e-20 0.753398 -3.10577e-05 0.753265)
(0.75333 -4.25993e-20 -2.33299e-20 0.753337 1.28705e-05 0.753333)
(0.753333 1.77273e-19 1.03834e-19 0.752984 0.000193304 0.753682)
(0.753334 -7.35101e-20 -4.44017e-20 0.753293 2.07108e-05 0.753373)
(0.753332 -6.59533e-20 -7.41528e-20 0.753378 -2.51338e-05 0.753289)
(0.753335 6.5195e-21 4.20822e-21 0.753364 -2.27788e-05 0.753301)
(0.753332 -7.21027e-21 -4.79799e-21 0.753358 -1.42867e-05 0.75331)
(0.753334 -5.50944e-21 -2.73011e-20 0.753354 -1.59452e-05 0.753312)
(0.753333 4.68882e-21 3.29288e-21 0.753355 -1.38673e-05 0.753312)
(0.753334 6.60129e-21 3.7103e-21 0.753353 -1.48759e-05 0.753313)
(0.753333 4.74745e-21 -2.1506e-20 0.753354 -1.39747e-05 0.753313)
(0.753333 -7.21252e-21 -3.56572e-21 0.753354 -1.41023e-05 0.753312)
(0.753333 1.14374e-21 1.72714e-21 0.753358 -1.44445e-05 0.753309)
(0.753333 1.3568e-20 -3.32851e-21 0.753364 -1.6554e-05 0.753303)
(0.753333 9.07738e-21 6.75617e-21 0.753376 -2.09372e-05 0.753291)
(0.753335 -7.69206e-21 -3.29545e-21 0.753391 -3.2088e-05 0.753274)
(0.75333 -8.74841e-21 9.82108e-22 0.753361 -4.05095e-06 0.753309)
(0.753334 1.84723e-19 8.71561e-20 0.752999 0.000187394 0.753667)
(0.753333 -6.54232e-20 -3.82891e-20 0.753285 2.67596e-05 0.753382)
(0.753333 -7.98106e-20 -6.80372e-20 0.753379 -2.50568e-05 0.753288)
(0.753334 1.7195e-20 -2.18635e-20 0.753367 -2.20653e-05 0.753298)
(0.753332 -7.08943e-21 -4.36097e-21 0.753358 -1.35536e-05 0.753309)
(0.753334 -1.32598e-20 -2.04721e-20 0.753355 -1.45309e-05 0.753311)
(0.753333 1.8658e-20 -1.2817e-20 0.753356 -1.26239e-05 0.753311)
(0.753334 9.15008e-21 4.83789e-21 0.753354 -1.35352e-05 0.753312)
(0.753333 -6.02654e-21 -1.4312e-20 0.753354 -1.2252e-05 0.753313)
(0.753333 1.8148e-21 -2.06451e-20 0.753353 -1.22581e-05 0.753313)
(0.753333 6.13508e-21 2.29437e-21 0.753354 -1.22868e-05 0.753312)
(0.753333 8.70387e-21 -2.9299e-21 0.753359 -1.42428e-05 0.753308)
(0.753333 1.1493e-20 -5.10782e-21 0.753369 -1.95561e-05 0.753297)
(0.753334 -1.6906e-20 -1.01894e-20 0.753388 -3.08717e-05 0.753278)
(0.753332 1.23798e-21 5.02827e-21 0.753368 -1.65627e-05 0.753299)
(0.753333 1.67326e-19 9.01769e-20 0.753008 0.000183143 0.753658)
(0.753333 -7.24562e-20 -1.56557e-20 0.753276 3.18178e-05 0.753391)
(0.753333 -5.51534e-20 -1.01575e-19 0.753378 -2.38679e-05 0.753289)
(0.753334 8.66115e-21 3.05938e-21 0.75337 -2.20484e-05 0.753296)
(0.753333 -1.55378e-20 4.13005e-21 0.753359 -1.33724e-05 0.753309)
(0.753334 3.50438e-21 -4.59553e-20 0.753355 -1.37339e-05 0.753311)
(0.753333 1.03184e-20 4.81819e-21 0.753356 -1.19348e-05 0.753311)
(0.753334 4.90465e-21 1.20449e-20 0.753355 -1.29279e-05 0.753312)
(0.753333 7.79334e-21 -3.58113e-20 0.753355 -1.15175e-05 0.753312)
(0.753334 -2.78301e-21 -5.93883e-21 0.753353 -1.17363e-05 0.753313)
(0.753333 7.59367e-21 6.7576e-21 0.753354 -1.14316e-05 0.753313)
(0.753333 1.82972e-20 -1.59519e-20 0.753356 -1.32933e-05 0.75331)
(0.753333 3.47378e-21 -2.79701e-21 0.753366 -1.81928e-05 0.7533)
(0.753333 -4.25669e-20 -3.86233e-20 0.75339 -3.1475e-05 0.753276)
(0.753333 2.01137e-20 1.14286e-20 0.753369 -2.02616e-05 0.753298)
(0.753333 1.62523e-19 9.42883e-20 0.753019 0.000176089 0.753647)
(0.753333 -5.43731e-20 -1.07728e-20 0.753264 3.76285e-05 0.753403)
(0.753333 -7.46417e-20 -8.05671e-20 0.753374 -2.15462e-05 0.753293)
(0.753334 -1.21473e-21 -1.29547e-21 0.753374 -2.29131e-05 0.753292)
(0.753333 -4.53373e-21 1.55811e-20 0.75336 -1.38362e-05 0.753307)
(0.753334 -1.36504e-22 -3.50894e-20 0.753354 -1.30873e-05 0.753312)
(0.753333 1.43763e-20 5.57241e-21 0.753355 -1.13459e-05 0.753312)
(0.753334 5.10179e-21 2.19769e-20 0.753354 -1.23565e-05 0.753312)
(0.753333 2.41646e-21 -1.17207e-20 0.753355 -1.11395e-05 0.753312)
(0.753334 3.36478e-21 -8.73586e-22 0.753354 -1.15062e-05 0.753313)
(0.753333 7.4259e-21 2.01532e-21 0.753354 -1.10335e-05 0.753312)
(0.753334 1.56114e-20 -3.82341e-21 0.753356 -1.26467e-05 0.75331)
(0.753333 5.07065e-22 4.82357e-21 0.753364 -1.59662e-05 0.753303)
(0.753335 -2.81787e-20 -2.03869e-20 0.75339 -3.26104e-05 0.753275)
(0.753333 -3.13453e-20 -2.10879e-20 0.753373 -1.86362e-05 0.753294)
(0.753333 1.78549e-19 8.03606e-20 0.753033 0.000166661 0.753634)
(0.753333 -2.22207e-20 -4.1116e-20 0.75325 4.3458e-05 0.753417)
(0.753333 -9.76498e-20 -4.2305e-20 0.753363 -1.7456e-05 0.753304)
(0.753334 3.20621e-22 -2.39472e-20 0.753374 -2.45486e-05 0.753293)
(0.753333 1.07473e-20 7.54135e-21 0.753362 -1.6942e-05 0.753305)
(0.753334 -6.35624e-21 -5.16812e-21 0.753355 -1.44071e-05 0.753311)
(0.753333 1.003e-20 -6.39395e-21 0.753354 -1.1861e-05 0.753313)
(0.753334 -9.94006e-21 2.82779e-20 0.753353 -1.17535e-05 0.753314)
(0.753333 -1.08507e-21 -1.17744e-20 0.753353 -1.0501e-05 0.753314)
(0.753333 2.288e-22 -5.12111e-22 0.753353 -1.03985e-05 0.753314)
(0.753333 -8.8091e-21 2.22834e-21 0.753354 -9.86948e-06 0.753313)
(0.753333 -1.2414e-21 -4.32482e-21 0.753355 -1.1017e-05 0.753311)
(0.753333 5.02539e-21 7.00974e-21 0.753361 -1.26123e-05 0.753306)
(0.753334 -2.01475e-20 -5.84183e-21 0.753381 -2.52991e-05 0.753285)
(0.753332 -2.55057e-20 -1.79263e-20 0.753399 -3.04432e-05 0.753269)
(0.753334 2.30895e-19 1.28903e-19 0.753059 0.000147799 0.753606)
(0.753333 6.75147e-21 -1.43568e-20 0.75324 4.97978e-05 0.753427)
(0.753333 -1.24965e-19 -1.22101e-19 0.753359 -1.22531e-05 0.753308)
(0.753334 -6.30369e-20 -7.25029e-20 0.753376 -2.09139e-05 0.75329)
(0.753333 1.67202e-20 -1.21822e-20 0.753362 -1.36616e-05 0.753304)
(0.753334 9.17433e-21 2.09446e-21 0.753352 -1.05161e-05 0.753314)
(0.753333 2.186e-21 1.56062e-20 0.753349 -8.90923e-06 0.753318)
(0.753334 9.52299e-21 6.06462e-21 0.753348 -9.20692e-06 0.753318)
(0.753333 -2.26856e-22 1.34491e-20 0.753349 -8.54419e-06 0.753318)
(0.753334 -1.02541e-20 2.07774e-20 0.75335 -8.35339e-06 0.753317)
(0.753333 -1.59742e-20 -8.41868e-22 0.753352 -7.83009e-06 0.753315)
(0.753334 -1.62214e-20 1.05424e-20 0.753354 -8.59433e-06 0.753312)
(0.753333 3.62861e-21 2.94894e-20 0.75336 -9.71778e-06 0.753307)
(0.753334 6.06393e-21 1.92113e-20 0.753381 -2.26824e-05 0.753284)
(0.753333 -1.27897e-20 1.69146e-21 0.75341 -3.61212e-05 0.753257)
(0.753332 1.94656e-19 1.23134e-19 0.753075 0.000132632 0.753593)
(0.753333 1.11602e-19 6.49196e-20 0.753189 4.67355e-05 0.753478)
(0.753334 -6.01662e-21 4.43802e-20 0.753313 -1.23672e-05 0.753354)
(0.753334 -6.32469e-20 1.56788e-20 0.75337 -3.09931e-05 0.753296)
(0.753333 -8.76746e-20 -4.40296e-20 0.753378 -2.77363e-05 0.753289)
(0.753333 -1.10098e-19 -4.07069e-20 0.753367 -2.19498e-05 0.7533)
(0.753333 -1.05363e-19 -5.5799e-20 0.753358 -1.57781e-05 0.753308)
(0.753333 -6.55912e-20 -3.56446e-20 0.753352 -1.06079e-05 0.753314)
(0.753333 -4.5981e-20 4.20009e-21 0.753349 -7.01082e-06 0.753318)
(0.753333 -4.20996e-20 -1.33214e-20 0.753348 -4.13622e-06 0.753319)
(0.753333 -3.05807e-20 -1.41424e-20 0.753348 -2.34577e-06 0.753319)
(0.753333 -3.23084e-20 1.5487e-21 0.753351 -2.16885e-06 0.753316)
(0.753333 -3.6932e-21 1.27137e-20 0.753355 -2.83043e-06 0.753312)
(0.753333 8.36912e-20 6.39285e-20 0.75338 -1.36446e-05 0.753288)
(0.753333 2.02705e-19 1.43863e-19 0.753465 -5.62709e-05 0.753202)
(0.753394 -1.90761e-20 -1.18105e-21 0.753245 5.38818e-05 0.753361)
(0.753319 -1.40327e-20 -1.19189e-21 0.753356 7.14591e-05 0.753325)
(0.753336 9.11204e-21 -5.07387e-21 0.753325 2.05075e-05 0.753339)
(0.753334 1.47829e-20 -3.9445e-21 0.753326 -5.1229e-06 0.75334)
(0.753335 7.60767e-21 -2.85862e-21 0.753323 5.1374e-06 0.753341)
(0.753333 1.53218e-21 3.13981e-23 0.753331 -5.80549e-07 0.753336)
(0.753333 -1.91538e-21 -2.60544e-21 0.753329 -6.31396e-06 0.753338)
(0.753334 -1.11504e-20 -3.21144e-21 0.753328 -6.87159e-06 0.753338)
(0.753334 -7.97735e-21 -4.13446e-21 0.753329 -4.08545e-06 0.753337)
(0.753333 2.91593e-21 3.70535e-22 0.753331 -2.59401e-06 0.753336)
(0.753333 9.09122e-22 -3.09493e-21 0.753332 -8.1329e-06 0.753336)
(0.753335 -6.57758e-21 -3.47347e-21 0.753329 -3.51672e-06 0.753337)
(0.753333 -3.52069e-21 5.4839e-22 0.753332 -1.75326e-06 0.753335)
(0.753333 -1.30299e-20 -3.98532e-21 0.753332 -5.1566e-06 0.753335)
(0.753334 -2.6092e-20 -5.81916e-21 0.753332 -3.81136e-06 0.753334)
(0.753334 -2.56286e-20 -8.66713e-21 0.753332 -2.35129e-06 0.753334)
(0.753333 -4.06404e-21 5.22639e-22 0.753332 -9.86691e-07 0.753335)
(0.753333 1.2007e-20 -9.0131e-21 0.753334 -2.80705e-06 0.753333)
(0.753335 3.63543e-22 -8.26622e-21 0.75333 -1.83417e-06 0.753335)
(0.753333 5.85232e-21 6.87489e-22 0.753333 -1.09007e-06 0.753334)
(0.753333 1.77621e-20 -7.44543e-21 0.753333 -2.91123e-06 0.753334)
(0.753334 1.43291e-20 -5.53927e-21 0.753333 -2.03284e-06 0.753334)
(0.753334 7.84392e-21 -4.44226e-21 0.753332 -2.0913e-06 0.753334)
(0.753333 6.87127e-21 7.71896e-22 0.753333 -9.23364e-07 0.753334)
(0.753333 2.06516e-20 -3.16378e-21 0.753333 -2.05386e-06 0.753333)
(0.753334 2.52606e-20 -7.00113e-22 0.753332 -1.5828e-06 0.753334)
(0.753334 2.13849e-20 1.79135e-21 0.753332 -2.29178e-06 0.753334)
(0.753333 9.24836e-21 8.11287e-22 0.753333 -1.28704e-06 0.753334)
(0.753332 4.71022e-21 3.31534e-21 0.753335 -2.57479e-06 0.753332)
(0.753335 7.13991e-21 3.99458e-21 0.75333 -2.70505e-06 0.753335)
(0.753333 -1.40824e-21 3.68208e-22 0.753334 -1.15034e-06 0.753333)
(0.753333 -1.27785e-20 3.95443e-21 0.753334 -1.90945e-06 0.753333)
(0.753334 -1.36085e-20 2.5541e-21 0.753333 -1.15695e-06 0.753334)
(0.753334 -9.61432e-21 1.37295e-21 0.753333 -1.73376e-06 0.753334)
(0.753333 -5.50159e-21 -1.44005e-22 0.753333 -7.0844e-07 0.753333)
(0.753332 -8.71309e-21 2.87889e-22 0.753335 -1.40286e-06 0.753333)
(0.753335 -6.54836e-21 -5.73896e-22 0.753329 -1.70449e-06 0.753335)
(0.753333 -3.68802e-22 -6.12162e-22 0.753334 -9.33865e-07 0.753333)
(0.753333 5.89689e-21 -9.6812e-22 0.753334 -1.93927e-06 0.753333)
(0.753334 8.58423e-21 -2.797e-22 0.753332 -1.16262e-06 0.753334)
(0.753334 6.33185e-21 4.85551e-22 0.753332 -1.56214e-06 0.753334)
(0.753333 1.27466e-21 -7.72194e-22 0.753334 -7.49597e-07 0.753333)
(0.753333 -2.04892e-21 7.99008e-22 0.753333 -2.28016e-06 0.753334)
(0.753334 -6.04644e-21 4.3368e-22 0.753332 -1.96099e-06 0.753335)
(0.753334 -6.97842e-21 -3.19338e-22 0.753332 -2.35583e-06 0.753334)
(0.753333 -3.58221e-21 -8.87435e-22 0.753333 -9.88666e-07 0.753333)
(0.753333 -3.22156e-21 -9.64151e-22 0.753334 -2.55937e-06 0.753333)
(0.753335 -5.10386e-21 -1.45615e-21 0.753329 -2.19218e-06 0.753336)
(0.753333 -6.8471e-22 -8.19883e-22 0.753334 -6.71513e-07 0.753333)
(0.753333 4.40481e-21 -1.77441e-21 0.753333 -2.22436e-06 0.753334)
(0.753334 5.19885e-21 -1.26947e-21 0.753332 -1.4276e-06 0.753335)
(0.753334 2.55143e-21 -8.98866e-22 0.753332 -1.63191e-06 0.753335)
(0.753333 1.06117e-21 -9.33465e-22 0.753333 -5.76618e-07 0.753333)
(0.753333 1.33778e-22 -6.85651e-22 0.753333 -3.60765e-06 0.753334)
(0.753334 -6.05113e-21 -9.38859e-22 0.753332 -3.07899e-06 0.753335)
(0.753334 -9.72001e-21 -2.07814e-21 0.753332 -3.19593e-06 0.753334)
(0.753333 -5.16435e-21 -1.97971e-21 0.753333 -7.5533e-07 0.753333)
(0.753333 -2.2381e-21 -2.91546e-21 0.753334 -2.86385e-06 0.753333)
(0.753335 -4.64262e-21 -3.31863e-21 0.75333 -3.16694e-06 0.753335)
(0.753333 1.26278e-21 2.36859e-21 0.753336 7.56056e-07 0.753331)
(0.753333 1.1413e-20 -3.2344e-21 0.753334 4.79362e-07 0.753333)
(0.753334 1.7822e-20 -1.77481e-21 0.753331 3.84426e-07 0.753335)
(0.753333 1.52934e-20 -1.99708e-23 0.753333 3.30059e-07 0.753334)
(0.753334 2.17682e-21 7.07279e-21 0.753339 4.60002e-06 0.753327)
(0.753332 8.66834e-21 -6.8548e-23 0.753334 -1.17295e-06 0.753335)
(0.753333 -4.00953e-21 2.31499e-22 0.753329 6.29458e-06 0.753337)
(0.753334 -2.59153e-20 1.07951e-20 0.753345 1.25108e-05 0.753321)
(0.753329 -2.43722e-20 -4.52917e-21 0.753333 -3.93172e-06 0.753338)
(0.753335 -2.90896e-20 -8.26736e-21 0.753321 -1.74821e-05 0.753344)
(0.753334 7.62067e-20 -3.76488e-21 0.75333 -4.28267e-05 0.753335)
(0.753333 9.86118e-20 1.42002e-20 0.753352 -4.31445e-05 0.753315)
(0.753331 -2.9716e-20 2.05177e-20 0.753359 -1.92285e-05 0.75331)
(0.753335 -6.82954e-20 1.57117e-20 0.753353 1.12683e-06 0.753312)
(0.753335 8.00198e-21 1.53765e-20 0.753362 -3.41931e-05 0.753304)
(0.753332 2.17421e-20 7.62481e-21 0.753362 -2.02536e-05 0.753306)
(0.753338 4.52057e-20 2.06413e-20 0.753365 9.88131e-07 0.753297)
(0.753336 1.19271e-19 3.01374e-20 0.753376 -4.26508e-05 0.753288)
(0.753331 5.11862e-20 1.22174e-20 0.753366 -1.51653e-05 0.753303)
(0.753342 6.70355e-20 4.06491e-20 0.753373 9.73208e-06 0.753285)
(0.753332 2.67741e-19 5.34199e-20 0.753399 -9.04774e-05 0.753269)
(0.75333 2.40915e-19 2.21695e-20 0.753359 -6.46969e-05 0.753311)
(0.753339 1.3571e-19 2.39317e-20 0.753337 2.08403e-06 0.753323)
(0.75333 1.05936e-19 2.50378e-20 0.753363 -3.34961e-05 0.753307)
(0.753333 3.43557e-21 4.01988e-21 0.753344 -7.74217e-06 0.753322)
(0.753336 1.0121e-19 1.19476e-20 0.753345 -1.12864e-05 0.753319)
(0.753331 6.712e-20 5.7626e-21 0.753347 -2.64141e-05 0.753322)
(0.753335 -1.2856e-19 9.39436e-21 0.75334 -2.70557e-06 0.753325)
(0.753333 -1.94425e-19 5.88894e-21 0.753343 -8.15109e-06 0.753323)
(0.753333 -2.43202e-19 -8.40109e-22 0.753344 -1.49764e-05 0.753323)
(0.753335 -2.54577e-19 -8.59848e-21 0.753343 -2.06208e-05 0.753323)
(0.753333 -2.12285e-19 -1.46103e-20 0.753346 -2.46015e-05 0.753321)
(0.753334 -1.40603e-19 -1.68809e-20 0.753346 -2.66106e-05 0.753321)
(0.753333 -2.48329e-21 -1.15297e-20 0.753341 -5.95121e-06 0.753325)
(0.753334 1.43363e-19 -1.76652e-20 0.753345 8.4016e-06 0.753322)
(0.753334 1.48675e-19 -1.39646e-20 0.753342 4.29144e-06 0.753324)
(0.753333 2.69089e-20 -5.69891e-21 0.753344 -1.85482e-06 0.753323)
(0.753333 -7.9868e-20 -2.44242e-22 0.753342 -5.61753e-06 0.753325)
(0.753334 -1.70105e-19 -3.98911e-21 0.753341 -4.62049e-06 0.753325)
(0.753334 -2.60415e-19 -1.1834e-20 0.753341 -1.07523e-05 0.753325)
(0.753333 -2.68682e-19 -2.01584e-20 0.753343 -1.35703e-05 0.753323)
(0.753333 -1.88567e-19 -2.20577e-20 0.753346 -2.11301e-05 0.753321)
(0.753333 -1.45958e-20 -2.25738e-20 0.753341 -5.71992e-06 0.753326)
(0.753333 -1.34266e-20 -8.97068e-21 0.753343 7.11852e-06 0.753323)
(0.753333 -6.96541e-20 -5.35393e-21 0.753343 3.31623e-06 0.753324)
(0.753333 -7.07631e-20 -7.81064e-21 0.753343 5.21994e-06 0.753324)
(0.753334 -1.0861e-19 -9.27135e-21 0.753341 2.17141e-07 0.753325)
(0.753333 -1.03346e-19 -1.10233e-20 0.753342 -6.21863e-06 0.753325)
(0.753333 -2.84608e-20 -9.04287e-21 0.753341 -8.63626e-06 0.753326)
(0.753335 6.01814e-20 -5.79321e-21 0.753337 -8.83168e-06 0.753328)
(0.753332 1.22185e-19 4.70179e-22 0.753344 -9.6863e-06 0.753324)
(0.753333 1.26259e-19 4.24007e-21 0.753344 -1.4085e-05 0.753323)
(0.753333 7.17327e-20 2.13232e-20 0.753339 -1.64625e-06 0.753327)
(0.753332 1.97892e-19 -6.47834e-21 0.753343 8.53334e-06 0.753325)
(0.753333 2.40704e-19 -3.41516e-21 0.753339 1.09027e-06 0.753327)
(0.753333 1.20132e-19 6.8096e-21 0.753339 -3.78796e-06 0.753328)
(0.753333 -4.22248e-21 1.02295e-20 0.753339 -1.13477e-05 0.753328)
(0.753333 -1.86808e-19 5.93651e-21 0.75334 -2.21934e-05 0.753327)
(0.753335 -3.25193e-19 -2.68323e-21 0.753336 -2.51278e-05 0.753329)
(0.753332 -3.63756e-19 -1.36419e-20 0.753342 -1.55255e-05 0.753326)
(0.753333 -2.25472e-19 -1.1979e-20 0.753339 -9.2675e-06 0.753328)
(0.753334 -5.42991e-20 1.86264e-20 0.753335 1.74126e-06 0.753332)
(0.753332 -2.47672e-19 1.57605e-20 0.753339 -8.31801e-06 0.753329)
(0.753333 -3.49099e-19 1.82663e-20 0.753334 -3.18734e-05 0.753334)
(0.753333 -1.48932e-19 8.33316e-21 0.753332 -3.08419e-05 0.753335)
(0.753334 -5.84778e-20 2.9025e-21 0.753333 -3.05796e-05 0.753333)
(0.753332 -2.69495e-20 1.68208e-21 0.753338 -3.61676e-05 0.75333)
(0.753336 -9.73897e-21 1.37768e-21 0.753332 -3.96884e-05 0.753332)
(0.75333 -6.45937e-20 -2.54954e-21 0.753349 -5.40256e-05 0.753321)
(0.753334 4.52672e-20 1.71049e-20 0.753334 -2.87648e-05 0.753332)
(0.753334 7.87528e-20 1.22909e-20 0.753325 2.75874e-06 0.753342)
(0.753329 9.08297e-20 1.36693e-20 0.753336 -3.30955e-05 0.753335)
(0.753335 2.25824e-19 8.41785e-21 0.753321 -6.1268e-05 0.753343)
(0.753333 1.86112e-19 1.64884e-20 0.753328 -8.26785e-05 0.753339)
(0.753333 1.95134e-19 2.85288e-20 0.753329 -8.71803e-05 0.753338)
(0.753335 2.38625e-19 3.78134e-20 0.753327 -6.91467e-05 0.753338)
(0.753335 2.82692e-19 4.69353e-20 0.75333 -6.91798e-05 0.753335)
(0.753328 4.16876e-19 6.34345e-20 0.753348 -6.45756e-05 0.753324)
(0.753342 4.81619e-19 8.05906e-20 0.753315 -2.24492e-05 0.753342)
(0.753333 2.03664e-19 -1.22579e-20 0.75331 -9.02854e-07 0.753358)
(0.75333 8.57722e-19 1.45675e-20 0.753326 -2.66029e-05 0.753343)
(0.753337 1.39018e-18 2.82621e-21 0.753315 -1.46765e-05 0.753348)
(0.753331 7.45261e-19 6.93731e-20 0.753328 1.23075e-05 0.75334)
(0.753336 -5.86984e-20 1.02961e-19 0.753319 3.97559e-05 0.753345)
(0.753333 -1.03785e-18 9.42278e-20 0.753322 5.62083e-05 0.753345)
(0.753334 -1.74317e-18 4.58113e-20 0.753306 0.000108336 0.75336)
(0.753336 -2.04354e-18 -2.24161e-20 0.753289 0.00016521 0.753375)
(0.753329 -1.91215e-18 -7.44434e-20 0.753289 0.000186227 0.753382)
(0.753345 -9.94957e-19 -4.45062e-20 0.753245 0.000178282 0.75341)
(0.753332 -1.26586e-19 -5.03139e-21 0.753297 4.62719e-05 0.753371)
(0.75333 7.55409e-20 1.7125e-20 0.753309 5.06717e-05 0.753361)
(0.753341 3.8823e-19 6.81873e-21 0.75329 9.54468e-05 0.753369)
(0.753331 4.60225e-19 1.47654e-20 0.753301 4.22987e-05 0.753368)
(0.753337 2.23175e-19 2.9247e-20 0.753286 8.16372e-05 0.753377)
(0.753328 1.20062e-19 3.37775e-20 0.753294 0.000154383 0.753378)
(0.753338 2.24926e-20 2.71367e-20 0.75327 0.000213381 0.753392)
(0.753338 -1.62986e-19 3.12359e-21 0.753294 0.000106432 0.753368)
(0.753331 -1.6955e-19 -8.93574e-22 0.753314 2.72374e-05 0.753356)
(0.753333 -3.05723e-20 8.12297e-22 0.753324 1.17917e-05 0.753342)
(0.753328 -1.00204e-19 1.49939e-20 0.753325 1.66351e-05 0.753348)
(0.753344 -2.98398e-20 9.94128e-21 0.753297 7.59273e-05 0.753359)
(0.753337 4.91122e-20 -3.02962e-21 0.753326 4.00434e-05 0.753338)
(0.753329 -7.03259e-21 -6.139e-22 0.753345 -8.95376e-07 0.753326)
(0.753337 1.97211e-21 -7.49694e-22 0.753328 4.94856e-06 0.753335)
(0.753329 2.82428e-21 -2.12668e-21 0.753341 7.94875e-06 0.75333)
(0.753334 2.76487e-21 -2.77269e-22 0.753333 4.54738e-06 0.753333)
(0.753335 1.52612e-21 -1.30955e-21 0.753331 8.61233e-06 0.753335)
(0.75333 8.3382e-22 -2.98835e-22 0.753341 5.22097e-06 0.753329)
(0.753336 2.84789e-21 -8.4102e-23 0.753328 5.32935e-06 0.753336)
(0.753333 -5.20951e-22 -9.69164e-22 0.753334 9.51105e-06 0.753333)
(0.753331 -1.27388e-21 -1.95613e-22 0.753338 5.44729e-06 0.753331)
(0.753336 1.00781e-22 -1.2563e-22 0.753328 5.11281e-06 0.753336)
(0.75333 -1.75832e-21 -1.44053e-21 0.753339 9.56274e-06 0.753331)
(0.753334 -7.67703e-22 -2.49081e-22 0.753332 5.30056e-06 0.753334)
(0.753335 -1.56374e-21 -1.96969e-21 0.753329 9.23079e-06 0.753336)
(0.753331 3.40918e-22 -3.24193e-22 0.753338 5.54737e-06 0.753331)
(0.753336 1.39743e-21 -1.86567e-22 0.753327 4.92154e-06 0.753337)
(0.75333 -9.35914e-22 -1.94605e-21 0.753339 9.67056e-06 0.753331)
(0.753334 2.32562e-21 -2.2512e-22 0.753331 5.33614e-06 0.753335)
(0.753335 1.1086e-21 -1.58075e-21 0.753329 9.08747e-06 0.753336)
(0.75333 -5.87735e-22 -2.75123e-22 0.753338 5.62696e-06 0.753331)
(0.753336 1.3011e-21 -1.43607e-22 0.753327 4.51393e-06 0.753337)
(0.753333 -6.90447e-22 -1.36705e-21 0.753333 9.00535e-06 0.753334)
(0.753331 -7.44805e-22 -2.23218e-22 0.753336 5.42603e-06 0.753332)
(0.753335 2.76173e-21 -2.24266e-22 0.753328 4.26817e-06 0.753337)
(0.753331 -1.92379e-22 -1.18772e-21 0.753337 8.71733e-06 0.753332)
(0.753334 -4.64609e-22 -2.05726e-22 0.753331 4.74757e-06 0.753335)
(0.753335 -5.10032e-22 -1.39603e-21 0.753329 7.91986e-06 0.753337)
(0.753331 1.07537e-21 -7.34799e-23 0.753336 5.12783e-06 0.753333)
(0.753335 1.19248e-21 -1.20881e-22 0.753327 3.58736e-06 0.753337)
(0.753331 -4.12756e-22 -1.13157e-21 0.753336 7.63358e-06 0.753333)
(0.753334 4.32106e-22 -1.82226e-22 0.753331 4.06774e-06 0.753335)
(0.753335 1.34896e-21 -8.92624e-22 0.753329 6.34292e-06 0.753336)
(0.753331 1.00604e-21 -7.42618e-23 0.753336 4.43381e-06 0.753333)
(0.753335 3.55058e-21 6.71947e-23 0.753327 3.24321e-06 0.753337)
(0.753333 2.31717e-21 3.40179e-22 0.753332 7.03437e-06 0.753335)
(0.753332 5.09469e-22 6.61448e-23 0.753335 4.58143e-06 0.753334)
(0.753335 9.75922e-22 2.36152e-22 0.753328 2.98078e-06 0.753337)
(0.753332 -1.73144e-21 4.69491e-22 0.753335 5.8608e-06 0.753334)
(0.753334 -1.65652e-21 -1.06014e-24 0.753331 3.42252e-06 0.753336)
(0.753334 -1.42451e-21 -3.33624e-22 0.753329 5.24786e-06 0.753336)
(0.753332 -6.6914e-22 -6.60688e-23 0.753335 4.20031e-06 0.753334)
(0.753335 -1.41499e-21 -1.63629e-22 0.753328 2.68241e-06 0.753337)
(0.753332 -1.48901e-21 -9.28002e-22 0.753334 5.12586e-06 0.753334)
(0.753334 1.62546e-21 2.08886e-23 0.753331 3.01253e-06 0.753336)
(0.753334 2.52688e-21 -4.86099e-22 0.753329 3.84423e-06 0.753337)
(0.753332 1.36714e-21 7.8879e-23 0.753334 3.84579e-06 0.753334)
(0.753335 2.50699e-21 2.33643e-22 0.753329 2.35903e-06 0.753337)
(0.753333 3.19697e-21 8.27619e-22 0.753331 3.92245e-06 0.753336)
(0.753332 2.25437e-21 3.03429e-22 0.753333 3.24505e-06 0.753334)
(0.753334 -4.22398e-22 3.29082e-22 0.753329 1.68298e-06 0.753336)
(0.753332 -3.67214e-21 1.48673e-21 0.753333 2.75951e-06 0.753335)
(0.753334 -4.23655e-21 1.65706e-22 0.753331 2.80578e-06 0.753336)
(0.753334 -4.1569e-21 -5.40561e-22 0.753329 3.23552e-06 0.753337)
(0.753332 -3.60569e-22 2.25492e-22 0.753333 3.71534e-06 0.753334)