/*--------------------------------*- C++ -*----------------------------------*\
| =========                 |                                                 |
| \\      /  F ield         | OpenFOAM: The Open Source CFD Toolbox           |
|  \\    /   O peration     | Version:  4.1                                   |
|   \\  /    A nd           | Web:      www.OpenFOAM.org                      |
|    \\/     M anipulation  |                                                 |
\*---------------------------------------------------------------------------*/
FoamFile
{
    version     2.0;
    format      ascii;
    class       volVectorField;
    location    "4";
    object      U;
}
// * * * * * * * * * * * * * * * * * * * * * * * * * * * * * * * * * * * * * //

dimensions      [0 1 -1 0 0 0 0];

internalField   nonuniform List<vector> 
6785
(
(1.24028e-14 -2.32363 16.491)
(1.09391e-14 -7.90492 12.9982)
(-2.92182e-15 -5.12446 13.7866)
(4.26059e-15 -5.05448 13.3005)
(8.46768e-16 -4.26398 13.1644)
(-2.30792e-16 -3.83501 12.8807)
(2.5645e-15 -3.40297 12.5864)
(7.96574e-16 -3.07549 12.2263)
(-5.45174e-16 -2.82006 11.8244)
(1.43882e-15 -2.68003 11.4047)
(1.49449e-16 -2.6438 11.0389)
(-1.62584e-16 -2.7181 10.7712)
(4.36919e-16 -3.23127 10.3114)
(-1.09216e-16 -3.38713 9.40258)
(4.15311e-18 -0.100751 7.43703)
(1.81798e-14 -10.1951 26.8955)
(1.2684e-14 -16.4111 23.1728)
(-2.85068e-15 -11.2281 23.5548)
(4.27356e-15 -12.1466 21.6668)
(5.94364e-16 -10.4376 20.8003)
(4.63593e-16 -9.90043 19.5369)
(1.66135e-15 -8.99446 18.4468)
(1.50409e-16 -8.33453 17.338)
(-5.4726e-16 -7.67762 16.2924)
(-2.08468e-16 -7.07523 15.22)
(-6.44417e-16 -6.4305 14.0341)
(-7.88388e-16 -5.59107 12.4993)
(-7.42862e-16 -4.20274 9.7351)
(2.87837e-16 -1.67567 4.4734)
(4.00412e-16 0.95675 -1.63758)
(1.99834e-14 -12.4343 27.6618)
(1.16004e-14 -16.792 24.4483)
(-2.06693e-15 -11.7285 24.4079)
(4.49043e-15 -13.0698 21.6779)
(4.49416e-16 -10.7983 20.6543)
(8.91122e-16 -10.4835 18.7565)
(1.60762e-15 -9.33253 17.3488)
(-1.12197e-16 -8.68489 15.8441)
(-6.46518e-16 -8.00288 14.5753)
(-8.16568e-16 -7.55721 13.3908)
(-1.78615e-15 -7.12152 12.163)
(-1.88056e-15 -6.3939 10.5243)
(-8.09975e-16 -5.12363 7.87692)
(1.03958e-16 -2.28615 3.47186)
(1.07629e-15 0.319451 -3.25877)
(1.99305e-14 -13.134 26.9357)
(9.77841e-15 -16.2427 24.3259)
(-1.43611e-15 -11.9695 23.9043)
(3.81155e-15 -13.1552 20.9936)
(-2.30488e-16 -10.687 20.0119)
(9.20521e-16 -10.4785 17.9382)
(5.02634e-16 -9.07991 16.5604)
(-7.14858e-16 -8.21097 14.7355)
(8.81851e-16 -6.90685 12.6811)
(1.671e-15 -5.89423 10.4905)
(8.20029e-16 -5.51681 9.14477)
(1.2962e-15 -5.53491 8.42308)
(1.35969e-15 -5.28879 7.43523)
(4.1304e-16 -4.31706 5.80549)
(1.3235e-15 -3.00531 3.76512)
(1.9458e-14 -14.0174 27.7333)
(8.08456e-15 -16.1914 25.3224)
(-7.29623e-16 -12.6132 24.8293)
(3.0899e-15 -13.3268 22.2501)
(1.75914e-16 -10.9792 21.3322)
(1.2149e-15 -10.7302 19.5046)
(2.24916e-16 -9.2473 18.3404)
(6.19647e-16 -8.11763 16.2718)
(5.57003e-15 -5.84241 13.0191)
(1.36607e-14 -3.25354 8.63573)
(1.76981e-14 -1.28631 5.24923)
(1.25699e-14 -0.920048 4.07089)
(4.42324e-15 -1.9886 4.92274)
(2.69533e-16 -3.84125 7.03284)
(5.42846e-16 -3.70715 7.59224)
(1.84693e-14 -14.6433 28.3996)
(8.59238e-15 -17.3885 27.3382)
(-1.29158e-15 -13.5642 26.1959)
(3.42023e-15 -14.411 23.7426)
(4.12417e-16 -12.0722 22.9158)
(4.13672e-16 -12.133 21.0773)
(1.01978e-15 -10.6838 20.0869)
(6.11855e-16 -9.98172 18.1907)
(3.28834e-15 -7.92122 15.3398)
(1.3361e-14 -5.24614 10.8739)
(1.78628e-14 -2.16827 6.25793)
(9.88379e-15 0.454792 2.03145)
(-1.13772e-16 2.47755 -1.26603)
(-5.26056e-15 2.66279 -2.03478)
(-2.85342e-15 0.8221 -0.399175)
(1.55937e-14 -14.0302 26.3878)
(1.09759e-14 -18.4027 28.9617)
(-1.71384e-15 -14.5299 26.6518)
(2.898e-15 -14.9478 23.9115)
(1.23804e-15 -13.0091 22.847)
(-1.09256e-15 -12.9477 20.9512)
(8.35261e-16 -11.8087 19.727)
(9.00037e-16 -11.276 18.0475)
(-5.66946e-16 -10.12 16.1064)
(3.99859e-15 -8.5809 13.386)
(7.47305e-15 -6.4726 10.143)
(5.12399e-15 -3.94176 6.47996)
(5.09861e-15 -0.960266 2.19346)
(1.21995e-14 3.15851 -2.87869)
(1.39769e-15 2.16099 -5.94123)
(1.47683e-14 -12.5683 22.9035)
(1.35583e-14 -18.134 28.9726)
(3.10991e-16 -14.781 26.1914)
(2.04227e-15 -14.3992 22.984)
(2.26182e-15 -12.7662 21.5726)
(-1.02148e-16 -12.378 19.6579)
(2.51398e-16 -11.3668 18.184)
(1.20856e-15 -10.6921 16.5067)
(4.28348e-16 -9.84071 14.8452)
(4.31371e-16 -8.87504 12.9999)
(1.30175e-15 -7.68783 10.8958)
(1.58907e-15 -6.10018 8.45697)
(2.61189e-15 -4.22453 5.4361)
(3.34149e-15 -1.38571 1.82238)
(3.6651e-15 0.84951 -3.33874)
(1.38911e-14 -11.2569 20.2085)
(1.52662e-14 -17.4522 28.4587)
(1.80121e-15 -14.564 25.6672)
(1.6904e-15 -13.6696 22.1871)
(2.87352e-15 -12.1005 20.6451)
(5.04617e-16 -11.5603 18.7608)
(-7.91017e-17 -10.5032 17.2615)
(1.27585e-15 -9.73532 15.6054)
(1.00667e-15 -8.86769 14.0596)
(1.01463e-17 -8.02223 12.5178)
(-1.79561e-16 -7.13072 10.9154)
(1.98243e-16 -6.00253 9.10578)
(1.02868e-15 -4.62977 6.79238)
(1.69121e-15 -2.48864 3.58186)
(-2.36371e-16 -0.0757213 -1.30184)
(1.30383e-14 -10.4213 18.7086)
(1.59767e-14 -17.0507 28.1752)
(2.27756e-15 -14.408 25.4849)
(1.48554e-15 -13.2593 21.8633)
(3.05906e-15 -11.6694 20.3343)
(3.19406e-16 -11.1308 18.4712)
(-4.86076e-16 -9.98052 17.0331)
(1.34153e-15 -9.22977 15.379)
(1.01879e-15 -8.2948 13.9095)
(-3.31744e-16 -7.49661 12.4554)
(-4.70703e-17 -6.67953 11.0458)
(6.77315e-16 -5.75285 9.50458)
(7.02382e-16 -4.60379 7.54749)
(1.88536e-15 -2.80462 4.58278)
(-2.07832e-15 -0.161117 -0.156436)
(1.16528e-14 -9.82724 17.6749)
(1.58682e-14 -16.9073 28.0626)
(2.46475e-15 -14.5594 25.6942)
(1.34069e-15 -13.1976 21.9298)
(3.20709e-15 -11.5821 20.3455)
(1.49536e-16 -11.0608 18.5023)
(-3.0899e-16 -9.86594 17.106)
(1.84655e-15 -9.14395 15.4365)
(1.17981e-15 -8.15015 13.9882)
(3.99979e-16 -7.3606 12.5149)
(1.40412e-15 -6.53148 11.1278)
(1.98996e-15 -5.66407 9.66353)
(2.36722e-15 -4.64006 7.8545)
(2.22027e-15 -2.93871 5.07651)
(-5.65685e-15 0.0164384 -0.0553856)
(1.08103e-14 -9.16583 16.3794)
(1.59209e-14 -16.6573 27.6831)
(3.2322e-15 -14.8926 25.97)
(9.16143e-16 -13.2706 22.0782)
(3.03254e-15 -11.6165 20.2393)
(8.52705e-16 -11.0445 18.4511)
(9.63588e-16 -9.94184 17.0877)
(3.21726e-15 -9.22872 15.4757)
(3.16697e-15 -8.26823 14.0316)
(2.93252e-15 -7.45462 12.543)
(3.72041e-15 -6.60763 11.1056)
(4.15388e-15 -5.7045 9.63924)
(5.26471e-15 -4.75463 7.88054)
(4.57828e-15 -3.12645 5.43218)
(4.59682e-16 -0.158886 -0.270783)
(1.12122e-14 -8.48796 14.958)
(1.67876e-14 -16.2026 26.951)
(6.19285e-15 -15.3571 26.2638)
(2.09101e-15 -13.7254 22.6335)
(4.19908e-15 -12.0804 20.3476)
(3.85857e-15 -11.3007 18.4574)
(3.15367e-15 -10.3258 17.0031)
(4.826e-15 -9.57805 15.5011)
(4.24718e-15 -8.72838 14.12)
(3.96542e-15 -7.92785 12.7506)
(4.28481e-15 -7.12744 11.3949)
(3.19864e-15 -6.23356 10.0362)
(3.39849e-15 -5.33974 8.42795)
(4.02515e-15 -3.95052 6.50945)
(4.2573e-16 -1.50162 1.8782)
(1.26546e-14 -7.40882 12.4868)
(2.46393e-14 -15.2117 25.2232)
(1.24007e-14 -15.0059 25.2041)
(1.35783e-15 -13.1536 21.7021)
(1.35051e-15 -11.5251 19.3445)
(2.74345e-15 -10.7428 17.7124)
(2.85939e-15 -10.0175 16.5022)
(3.78505e-15 -9.43394 15.273)
(3.74346e-15 -8.80343 14.087)
(3.74774e-15 -8.14331 12.9017)
(2.73907e-15 -7.46799 11.6949)
(4.38361e-16 -6.64046 10.4705)
(7.11705e-17 -5.77627 8.99377)
(1.37616e-15 -4.43631 7.27659)
(7.27412e-16 -1.92128 2.65998)
(8.68877e-15 -5.97387 10.5946)
(2.33276e-14 -15.1555 23.9805)
(2.56802e-14 -17.7898 26.7187)
(2.37024e-14 -16.8633 24.2081)
(1.52777e-14 -14.768 20.8099)
(7.91817e-15 -13.1575 18.0425)
(-1.46538e-15 -11.9993 15.9651)
(-9.41101e-15 -11.1107 14.517)
(-1.29355e-14 -10.4213 13.46)
(-1.62912e-14 -9.82261 12.7158)
(-1.98597e-14 -9.24111 12.1341)
(-2.2003e-14 -8.61688 11.6078)
(-2.44912e-14 -7.8137 10.8777)
(-2.26103e-14 -6.8361 9.95427)
(-1.10677e-14 -3.97173 6.12732)
(4.46558e-17 2.01805 6.89645)
(1.85919e-15 -0.650473 1.37936)
(1.65236e-15 -0.0721214 -1.14519)
(1.37917e-15 -0.0891756 -0.878834)
(1.07024e-15 0.0799455 -0.93778)
(1.09284e-15 0.252243 -1.32736)
(8.94701e-16 0.190267 -0.93307)
(1.05215e-15 0.288946 -0.869218)
(1.33378e-15 0.313069 -0.694237)
(1.41229e-15 0.483587 -0.831196)
(1.0236e-15 0.448186 -0.451749)
(1.14871e-15 0.48253 -0.339156)
(1.47216e-15 0.689885 -0.419603)
(1.55207e-15 0.571903 -0.197565)
(2.03208e-15 0.647344 -0.151747)
(2.57952e-15 0.606751 -0.115992)
(3.69494e-15 0.796452 -0.154151)
(3.04513e-15 0.685992 -0.0692924)
(2.8508e-15 0.703248 -0.0724468)
(3.28564e-15 0.922286 -0.0894321)
(2.18031e-15 0.728927 -0.0248586)
(1.93846e-15 0.811329 -0.02196)
(1.61606e-15 0.750853 -0.030417)
(1.67161e-15 0.980543 -0.0259424)
(8.2883e-16 0.770702 -0.0105194)
(3.64504e-16 0.85229 -0.0262133)
(-1.65881e-16 0.79687 -0.0390096)
(-9.64609e-16 0.99219 -0.0163102)
(-1.22545e-15 0.815984 0.0205263)
(-1.31242e-15 0.835298 0.0125782)
(-1.78149e-15 1.04917 0.0527381)
(-1.15108e-15 0.806872 0.046777)
(-9.1834e-16 0.889391 0.0290692)
(-6.15204e-16 0.831419 -0.00216282)
(-4.32934e-16 1.01993 0.00424669)
(1.51038e-17 0.829979 -0.0183426)
(1.72729e-16 0.858203 -0.050355)
(4.14857e-16 1.063 -0.0494611)
(2.14982e-16 0.818002 -0.045869)
(6.55188e-17 0.908552 -0.0675862)
(-1.23047e-16 0.854116 -0.096105)
(-2.6984e-16 1.06554 -0.119714)
(-2.69083e-16 0.833472 -0.106785)
(-1.88714e-16 0.923881 -0.12002)
(-3.09866e-17 0.878893 -0.12838)
(2.51802e-16 1.05568 -0.131191)
(3.79421e-16 0.866179 -0.0968658)
(4.53448e-16 0.908509 -0.110467)
(7.60112e-16 1.08891 -0.122128)
(5.31894e-16 0.859373 -0.103886)
(4.52919e-16 0.95113 -0.124318)
(3.27174e-16 0.906449 -0.148887)
(3.88228e-16 1.09749 -0.189026)
(2.05598e-16 0.889261 -0.128256)
(2.75935e-16 0.977072 -0.114514)
(4.43879e-16 0.934946 -0.112262)
(1.00854e-15 1.10212 -0.0757219)
(1.03555e-15 0.929399 -0.0252585)
(1.1125e-15 0.976778 -0.0399615)
(1.36823e-15 1.06401 0.0289705)
(9.67826e-16 0.819091 -0.0847571)
(6.84163e-16 0.884563 -0.153695)
(2.66032e-16 0.883628 -0.196143)
(-1.78654e-16 0.854826 -0.358671)
(6.44243e-17 0.554379 -0.59712)
(-3.77546e-16 0.636618 -0.520593)
(1.07146e-15 0.626882 -1.47321)
(2.59152e-15 0.0223823 -1.72244)
(2.91931e-15 0.179025 -1.48426)
(3.73701e-15 0.305439 -1.05027)
(-5.48705e-15 0.187458 1.8966)
(-7.56077e-15 -0.768689 4.2488)
(-5.53214e-15 -0.930668 4.08646)
(-4.87144e-15 -1.11753 4.31218)
(-7.22857e-15 -1.94768 7.41449)
(-7.26682e-15 -2.7992 7.11699)
(-9.03109e-15 -2.97908 7.49435)
(-1.61145e-14 -4.44653 11.5275)
(-1.48954e-14 -4.96684 9.70344)
(-1.80398e-14 -5.36811 10.5954)
(-2.31868e-14 -6.01 12.8758)
(-2.40044e-14 -5.87363 12.6307)
(-2.52801e-14 -5.99439 12.881)
(-2.71317e-14 -6.70443 14.5592)
(-2.62516e-14 -6.47948 13.603)
(-2.79826e-14 -6.59398 14.0051)
(-2.72861e-14 -6.5981 14.0159)
(-2.59999e-14 -6.6316 14.0415)
(-2.42893e-14 -6.67648 14.137)
(-2.2251e-14 -6.71812 14.2703)
(-2.03628e-14 -6.73941 14.4547)
(-1.89766e-14 -6.81294 14.6476)
(-1.49396e-14 -6.90876 15.7073)
(-1.90959e-14 -7.17416 15.0632)
(-2.05025e-14 -7.20945 15.0393)
(-2.13892e-14 -7.23273 14.9822)
(-2.09177e-14 -7.29798 15.0542)
(-2.0158e-14 -7.30549 15.0425)
(-1.82937e-14 -7.35424 15.1019)
(-1.61415e-14 -7.35452 15.1857)
(-1.41521e-14 -7.43044 15.2922)
(-9.41722e-15 -7.5356 16.3427)
(-1.22065e-14 -7.76476 15.6551)
(-1.14594e-14 -7.79767 15.6443)
(-1.11327e-14 -7.84144 15.5724)
(-1.03685e-14 -7.87071 15.5346)
(-9.45748e-15 -7.89857 15.5424)
(-8.77444e-15 -7.94319 15.6022)
(-9.01849e-15 -7.96247 15.6418)
(-9.70223e-15 -7.95974 15.7043)
(-1.09032e-14 -8.05313 15.7636)
(-1.47588e-14 -8.02271 16.4434)
(-1.78386e-14 -8.30428 15.7143)
(-2.02935e-14 -8.33063 15.6787)
(-2.15508e-14 -8.35276 15.6563)
(-2.21466e-14 -8.37719 15.6975)
(-2.14861e-14 -8.39468 15.793)
(-1.92666e-14 -8.43276 16.0032)
(-1.64702e-14 -8.40393 16.1347)
(-1.36561e-14 -8.51331 16.1988)
(-1.02352e-14 -8.21242 16.369)
(-9.25027e-15 -8.57003 15.7653)
(-5.61987e-15 -8.55892 15.9582)
(-3.86526e-15 -8.57544 16.204)
(-3.32381e-15 -8.54933 16.3699)
(-2.96392e-15 -8.57382 16.6119)
(-2.90824e-15 -8.58879 16.8645)
(-2.81372e-15 -8.53714 17.1587)
(-1.91282e-15 -8.73795 17.644)
(-1.01723e-14 -7.67746 16.9784)
(-8.11874e-15 -8.34575 16.9656)
(-9.91687e-15 -8.27071 17.3825)
(-1.15997e-14 -8.23631 17.826)
(-1.27855e-14 -8.23491 18.5673)
(-1.46096e-14 -8.2095 19.0593)
(-1.6466e-14 -8.1789 19.5115)
(-1.89669e-14 -8.16512 20.0022)
(-2.28923e-14 -8.32871 20.3938)
(-4.09722e-14 -6.41593 19.4341)
(-4.05125e-14 -7.31317 19.8649)
(-5.38186e-14 -7.10897 20.0127)
(-6.19396e-14 -7.14654 19.923)
(-6.53119e-14 -7.08532 19.6422)
(-6.10366e-14 -7.02227 19.1306)
(-4.93165e-14 -7.00605 18.5934)
(-3.41658e-14 -6.80595 17.253)
(-1.7797e-14 -6.64614 15.8251)
(-4.67212e-15 -6.50094 14.1533)
(6.7733e-15 -3.26801 7.12642)
(6.21336e-15 -4.95564 9.37535)
(5.15636e-15 -4.4684 7.95396)
(2.26568e-16 -4.56012 7.72868)
(-1.93855e-15 -4.23714 7.10646)
(-3.21325e-15 -4.16533 6.27123)
(-3.79015e-15 -3.97591 4.51456)
(-3.56042e-15 -3.64221 2.80631)
(-1.27847e-15 -3.63975 2.81275)
(4.30507e-16 -2.96066 0.321438)
(1.64327e-15 -3.24008 1.66601)
(2.9535e-15 -3.16047 1.0988)
(1.15378e-16 -2.20364 -1.03579)
(9.07967e-16 -3.94072 0.208694)
(1.16334e-15 -3.36575 -0.195104)
(6.32431e-16 -3.08943 -0.0564768)
(7.91676e-16 -4.14078 -0.0242662)
(3.83423e-16 -2.96543 -0.0084747)
(5.90845e-16 -3.88631 0.0587171)
(4.25454e-16 -3.84817 -0.0944963)
(2.8607e-16 -3.16648 -0.0769397)
(4.94011e-16 -3.88804 -0.0885144)
(5.09261e-16 -3.77875 -0.192156)
(4.80482e-16 -3.23084 -0.141242)
(7.40649e-16 -4.3516 -0.167692)
(6.12681e-16 -3.04842 -0.125591)
(9.46431e-16 -3.97581 -0.125559)
(7.2571e-16 -3.63396 -0.20945)
(6.50424e-16 -3.16144 -0.161523)
(8.48876e-16 -4.20884 -0.2254)
(4.77073e-16 -2.92187 -0.176144)
(7.02984e-16 -3.81161 -0.220894)
(5.36529e-16 -3.5349 -0.289061)
(4.37177e-16 -2.92198 -0.215689)
(6.27389e-16 -3.52592 -0.318694)
(5.44686e-16 -3.28613 -0.363686)
(3.58194e-16 -2.7887 -0.286781)
(5.70003e-16 -3.69271 -0.404073)
(4.38201e-16 -2.53387 -0.288173)
(6.37123e-16 -3.28094 -0.399993)
(4.27586e-16 -2.87961 -0.41078)
(3.79212e-16 -2.4821 -0.320488)
(4.81903e-16 -3.25553 -0.429679)
(3.04803e-16 -2.21436 -0.281552)
(3.04385e-16 -2.87799 -0.35363)
(7.36892e-17 -2.57629 -0.342325)
(-1.37775e-16 -2.11273 -0.275986)
(-2.3125e-16 -2.53047 -0.43262)
(-2.23584e-16 -2.28199 -0.446743)
(-1.70276e-16 -1.90349 -0.346671)
(4.267e-18 -2.50214 -0.45999)
(1.14978e-16 -1.66057 -0.318067)
(1.91727e-16 -2.15376 -0.460821)
(2.43089e-16 -1.8088 -0.473412)
(3.34712e-16 -1.51981 -0.401079)
(4.39042e-16 -1.9845 -0.541719)
(1.68366e-16 -1.26852 -0.377762)
(1.06505e-16 -1.66206 -0.521024)
(-1.25174e-16 -1.4108 -0.535524)
(-2.69767e-16 -1.08324 -0.462814)
(-5.45883e-16 -1.2985 -0.617985)
(-6.95505e-16 -1.09557 -0.550734)
(-5.10676e-16 -0.836367 -0.444691)
(-2.12253e-16 -1.16006 -0.570545)
(2.18869e-16 -0.597385 -0.47797)
(3.34793e-16 -0.875359 -0.728678)
(3.38729e-16 -0.598855 -0.68975)
(3.26481e-16 -0.373271 -0.533266)
(5.534e-16 -0.750262 -0.635638)
(2.08734e-16 -0.102162 -0.46708)
(3.15336e-16 -0.486189 -0.532738)
(2.83035e-16 -0.343464 -0.627252)
(1.7893e-16 -0.0356476 -0.491066)
(4.81642e-16 -0.216314 -0.547861)
(-3.75775e-16 -0.179749 -0.693356)
(-4.56056e-16 0.156143 -0.459909)
(-8.76214e-16 -0.0208794 -0.60416)
(-7.74813e-16 0.25083 -0.407399)
(-8.98216e-16 0.248691 -0.501714)
(-6.80356e-16 0.325898 -0.598878)
(-2.6415e-16 0.505242 -0.331102)
(-7.51855e-17 0.51893 -0.483674)
(5.93837e-17 0.650215 -0.283661)
(1.82633e-16 0.707115 -0.368906)
(-5.9749e-17 0.841766 -0.452265)
(-2.19726e-16 0.937927 -0.228806)
(-4.99412e-16 0.989926 -0.300344)
(-8.06462e-16 1.23168 -0.37285)
(-6.28577e-16 1.16909 -0.174859)
(-8.36558e-16 1.47876 -0.304783)
(-5.85684e-16 1.33201 -0.168541)
(-4.42224e-16 1.57701 -0.302833)
(2.20369e-83 0.0225969 0.0221599)
(1.04793e-81 0.0324306 0.0213041)
(8.30297e-81 0.0395795 0.0213527)
(3.72082e-80 0.0461522 0.0211992)
(1.85882e-80 0.0527457 0.0213135)
(-1.39781e-78 0.0590389 0.0214298)
(-1.46851e-77 0.0653363 0.0216869)
(-7.44669e-77 0.0715527 0.0220034)
(1.46005e-76 0.0778026 0.0224243)
(6.71785e-75 0.0840785 0.0229232)
(5.50109e-74 0.0904348 0.0235149)
(-1.03097e-74 0.0968859 0.0241907)
(-4.36447e-72 0.103466 0.0249557)
(-3.43298e-71 0.110195 0.0258073)
(7.6779e-71 0.1171 0.0267476)
(3.17457e-69 0.124202 0.0277764)
(1.59878e-68 0.131525 0.0288952)
(-1.29567e-67 0.13909 0.0301052)
(-1.97748e-66 0.146919 0.0314081)
(-2.97296e-66 0.155035 0.0328059)
(1.18039e-64 0.16346 0.034301)
(8.85647e-64 0.172216 0.0358962)
(-2.49076e-63 0.181324 0.0375945)
(-6.86481e-62 0.190809 0.0393995)
(-2.44596e-61 0.200693 0.041315)
(2.42166e-60 0.211 0.0433453)
(2.76868e-59 0.221754 0.0454951)
(5.60523e-59 0.232981 0.0477695)
(-1.02549e-57 0.244705 0.0501739)
(-1.18902e-56 0.256953 0.0527143)
(-4.3915e-56 0.269753 0.055397)
(5.16912e-55 0.283133 0.0582288)
(8.23752e-54 0.297121 0.0612169)
(1.99559e-53 0.311749 0.0643691)
(-5.1218e-52 0.327047 0.0676934)
(-4.38991e-51 0.343047 0.0711985)
(1.23098e-50 0.359784 0.0748935)
(3.28828e-49 0.377292 0.0787878)
(5.77047e-49 0.395606 0.0828914)
(-1.55718e-47 0.414764 0.0872143)
(-6.95961e-47 0.434802 0.0917671)
(5.95896e-46 0.45576 0.0965602)
(3.67772e-45 0.477676 0.101604)
(-3.03593e-44 0.500588 0.106908)
(-2.00277e-43 0.524536 0.112482)
(2.0697e-42 0.549554 0.118334)
(1.74047e-41 0.575676 0.124468)
(-1.01283e-40 0.602929 0.130886)
(-1.45175e-39 0.631333 0.137586)
(9.94302e-40 0.660893 0.144558)
(8.4231e-38 0.6916 0.151781)
(2.69496e-37 0.72342 0.159223)
(-2.9609e-36 0.756287 0.166833)
(-2.32848e-35 0.790091 0.174535)
(3.12416e-35 0.824669 0.182224)
(1.00291e-33 0.859784 0.189752)
(2.72586e-33 0.895115 0.196923)
(-2.24338e-32 0.930234 0.203476)
(-1.67105e-31 0.964598 0.20907)
(3.71561e-33 0.997506 0.213274)
(4.35019e-30 1.02812 0.215532)
(1.60118e-29 1.05536 0.215174)
(-3.71026e-29 1.07799 0.211314)
(-4.60811e-28 1.09423 0.20297)
(-9.88655e-28 1.1022 0.188722)
(4.24475e-27 1.09846 0.167291)
(3.06197e-26 1.07988 0.136424)
(5.09555e-26 1.03896 0.0951421)
(-2.05533e-25 0.97054 0.0402772)
(-1.39168e-24 0.857618 -0.0254183)
(-3.45914e-24 0.694418 -0.104959)
(1.81632e-23 0.41383 -0.174057)
(-2.07253e-22 -0.0816538 -0.297523)
(9.6671e-22 -0.562884 -0.238939)
(-3.44345e-21 -0.903486 -0.316758)
(2.64279e-20 -1.42596 -0.155413)
(-3.12375e-19 -1.51663 -0.449973)
(7.61748e-18 -2.49804 0.0282433)
(-4.98152e-17 -2.73672 -1.31854)
(-1.54055e-82 0.0227693 0.0261231)
(5.42466e-81 0.0325842 0.0249446)
(5.22907e-80 0.0396105 0.024964)
(2.68616e-79 0.0461668 0.0247435)
(3.57966e-79 0.0527142 0.0248623)
(-7.96749e-78 0.0589819 0.0249848)
(-9.02163e-77 0.0652457 0.0252781)
(-4.62722e-76 0.0714344 0.0256411)
(5.91392e-76 0.077654 0.0261273)
(3.55068e-74 0.0839015 0.0267037)
(3.0523e-73 0.0902287 0.027388)
(2.46033e-73 0.0966512 0.028169)
(-2.08498e-71 0.103202 0.0290527)
(-1.91912e-70 0.109903 0.0300358)
(9.10633e-71 0.116779 0.0311205)
(1.52787e-68 0.123852 0.0323065)
(1.01212e-67 0.131145 0.0335955)
(-4.49637e-67 0.13868 0.0349885)
(-1.03254e-65 0.146479 0.0364876)
(-3.28941e-65 0.154564 0.0380948)
(5.21591e-64 0.162956 0.0398128)
(5.3658e-63 0.171679 0.0416446)
(-3.12655e-63 0.180753 0.0435937)
(-3.6331e-61 0.190203 0.0456638)
(-1.89635e-60 0.20005 0.0478592)
(1.08507e-59 0.210319 0.0501847)
(1.73014e-58 0.221033 0.0526453)
(4.34897e-58 0.232218 0.0552467)
(-6.66425e-57 0.243899 0.0579947)
(-6.84009e-56 0.256103 0.060896)
(-1.30595e-55 0.268855 0.0639573)
(3.03159e-54 0.282186 0.0671862)
(3.36459e-53 0.296122 0.0705903)
(6.47492e-53 0.310695 0.0741782)
(-1.91562e-51 0.325936 0.0779585)
(-1.81139e-50 0.341877 0.0819406)
(1.42169e-50 0.358551 0.0861341)
(1.24631e-48 0.375993 0.0905491)
(5.8056e-48 0.394238 0.0951961)
(-4.09348e-47 0.413323 0.100086)
(-4.83616e-46 0.433285 0.105229)
(-9.83353e-47 0.454164 0.110636)
(1.98306e-44 0.475998 0.116318)
(6.82691e-44 0.498825 0.122283)
(-4.1203e-43 0.522685 0.128542)
(-1.97768e-42 0.547614 0.135099)
(8.46224e-42 0.573645 0.141957)
(-5.71075e-41 0.600808 0.149116)
(-1.25689e-39 0.629123 0.156567)
(3.0888e-39 0.658601 0.164293)
(1.14287e-37 0.689234 0.172265)
(2.9949e-37 0.720995 0.180437)
(-5.07474e-36 0.753824 0.188739)
(-3.64395e-35 0.78762 0.197074)
(7.27046e-35 0.822231 0.205307)
(1.76507e-33 0.857436 0.213254)
(4.41937e-33 0.892933 0.220671)
(-4.20113e-32 0.928317 0.227247)
(-2.99718e-31 0.963071 0.232575)
(4.61656e-32 0.99653 0.236155)
(7.982e-30 1.0279 0.237348)
(2.86164e-29 1.05614 0.2354)
(-6.92478e-29 1.08007 0.229307)
(-8.23597e-28 1.09801 0.217982)
(-1.70878e-27 1.10811 0.1998)
(7.49018e-27 1.10708 0.173349)
(5.2088e-26 1.09173 0.136001)
(8.3518e-26 1.05474 0.0867244)
(-3.37558e-25 0.990341 0.0218842)
(-2.23231e-24 0.881484 -0.0549517)
(-5.56639e-24 0.719329 -0.147648)
(2.91436e-23 0.444491 -0.226019)
(-2.70104e-22 -0.0631132 -0.37899)
(9.50545e-22 -0.578475 -0.281177)
(-3.52373e-21 -0.934605 -0.34151)
(2.79008e-20 -1.43247 -0.169079)
(-3.36195e-19 -1.55973 -0.455324)
(7.8675e-18 -2.40724 0.0164767)
(-4.10309e-17 -2.73175 -1.30679)
(-2.13364e-81 0.0228734 0.0282658)
(2.18097e-80 0.0326741 0.0269603)
(2.63009e-79 0.0396282 0.0269643)
(1.51502e-78 0.0461725 0.0267086)
(2.94301e-78 0.0526936 0.026831)
(-3.68072e-77 0.0589461 0.0269584)
(-4.53541e-76 0.065191 0.027273)
(-2.33242e-75 0.0713637 0.0276633)
(2.22393e-75 0.0775663 0.0281869)
(1.57101e-73 0.0837977 0.0288077)
(1.35138e-72 0.0901083 0.0295444)
(1.7975e-72 0.0965148 0.0303849)
(-8.11676e-71 0.10305 0.0313354)
(-8.23059e-70 0.109734 0.0323922)
(-5.50364e-70 0.116593 0.0335578)
(5.75724e-68 0.12365 0.0348317)
(4.59305e-67 0.130926 0.0362155)
(-1.07225e-66 0.138444 0.0377105)
(-4.06912e-65 0.146226 0.0393186)
(-1.84606e-64 0.154293 0.0410422)
(1.71947e-63 0.162667 0.0428839)
(2.31857e-62 0.171371 0.0448468)
(2.16531e-62 0.180427 0.0469347)
(-1.39815e-60 0.189856 0.0491515)
(-9.4404e-60 0.199683 0.0515017)
(3.27736e-59 0.209931 0.0539902)
(7.55635e-58 0.220623 0.0566223)
(2.4447e-57 0.231785 0.059404)
(-2.84341e-56 0.243442 0.0623414)
(-3.06502e-55 0.25562 0.0654414)
(-3.80696e-55 0.268346 0.0687112)
(1.41385e-53 0.281649 0.0721584)
(1.19716e-52 0.295557 0.0757912)
(5.69216e-53 0.3101 0.0796184)
(-6.82018e-51 0.32531 0.0836489)
(-5.39085e-50 0.341217 0.0878926)
(5.0823e-50 0.357857 0.0923592)
(3.7233e-48 0.375263 0.0970593)
(2.02285e-47 0.39347 0.102004)
(-9.75995e-47 0.412516 0.107203)
(-1.6514e-45 0.432438 0.112668)
(-3.60667e-45 0.453274 0.11841)
(6.16086e-44 0.475064 0.12444)
(4.57629e-43 0.497847 0.130766)
(-3.94903e-43 0.521661 0.137396)
(-1.89001e-41 0.546543 0.144335)
(-7.35554e-41 0.572529 0.151586)
(2.05164e-40 0.599647 0.159145)
(2.95772e-39 0.62792 0.167)
(1.43867e-38 0.657361 0.175132)
(3.40901e-38 0.687964 0.183503)
(-4.56234e-37 0.719706 0.192062)
(-6.69984e-36 0.75253 0.200728)
(-2.2878e-35 0.786343 0.209391)
(2.02061e-34 0.820999 0.217899)
(2.10589e-33 0.856286 0.226049)
(2.2851e-33 0.891913 0.233572)
(-6.45056e-32 0.927487 0.240126)
(-3.53798e-31 0.962506 0.245275)
(4.05152e-31 0.996323 0.248483)
(1.10199e-29 1.02816 0.249068)
(3.3515e-29 1.05701 0.246239)
(-1.13346e-28 1.08173 0.238934)
(-1.09503e-27 1.10067 0.226013)
(-1.99742e-27 1.11201 0.205746)
(1.06365e-26 1.11256 0.176641)
(6.77289e-26 1.09909 0.135857)
(1.00989e-25 1.06432 0.0822888)
(-4.50123e-25 1.00217 0.0120499)
(-2.85369e-24 0.895425 -0.0710429)
(-7.19781e-24 0.73323 -0.171541)
(3.82013e-23 0.458946 -0.256449)
(-3.47159e-22 -0.0617679 -0.414754)
(9.49313e-22 -0.579498 -0.341539)
(-3.63188e-21 -0.937083 -0.381543)
(3.01355e-20 -1.4116 -0.192689)
(-3.6771e-19 -1.56801 -0.462564)
(8.04964e-18 -2.30777 0.00183645)
(-2.84378e-17 -2.68461 -1.26914)
(-1.74981e-80 0.0230402 0.0306952)
(7.2328e-80 0.0328148 0.02928)
(1.24328e-78 0.0396638 0.0292754)
(8.16804e-78 0.0461876 0.0289897)
(2.13187e-77 0.0526682 0.0291202)
(-1.54663e-76 0.0588969 0.0292578)
(-2.23137e-75 0.0651127 0.0296)
(-1.1982e-74 0.0712612 0.0300249)
(5.8884e-75 0.077438 0.0305945)
(6.98038e-73 0.0836451 0.0312692)
(5.99264e-72 0.089931 0.0320692)
(1.0127e-71 0.0963133 0.0329811)
(-3.13934e-70 0.102824 0.0340117)
(-3.40958e-69 0.109484 0.0351566)
(-5.31772e-69 0.116319 0.0364186)
(2.0789e-67 0.123351 0.0377971)
(1.93765e-66 0.130602 0.0392938)
(-1.42772e-66 0.138095 0.0409099)
(-1.50096e-64 0.145851 0.0426477)
(-8.81023e-64 0.153892 0.0445093)
(4.99918e-63 0.162239 0.0464978)
(9.17272e-62 0.170915 0.0486165)
(2.104e-61 0.179942 0.0508691)
(-4.85742e-60 0.189342 0.05326)
(-4.16725e-59 0.199139 0.0557938)
(6.97974e-59 0.209354 0.0584758)
(2.96088e-57 0.220014 0.0613116)
(1.25051e-56 0.231141 0.0643074)
(-1.01817e-55 0.242762 0.0674697)
(-1.28955e-54 0.254903 0.0708058)
(-1.84347e-54 0.267591 0.0743231)
(5.89382e-53 0.280853 0.0780298)
(4.58941e-52 0.294718 0.0819344)
(-2.4157e-52 0.309216 0.0860461)
(-2.62846e-50 0.324379 0.0903744)
(-1.63221e-49 0.340238 0.0949292)
(3.61716e-49 0.356826 0.099721)
(1.17049e-47 0.374179 0.104761)
(5.64418e-47 0.39233 0.110059)
(-3.00576e-46 0.411317 0.115628)
(-4.91971e-45 0.431178 0.121478)
(-1.26211e-44 0.451951 0.12762)
(1.79091e-43 0.473675 0.134064)
(1.56638e-42 0.496391 0.140821)
(-6.66076e-44 0.520136 0.147896)
(-6.79526e-41 0.544949 0.155295)
(-3.3511e-40 0.570865 0.163017)
(9.5147e-40 0.597915 0.171057)
(1.68251e-38 0.626124 0.179401)
(5.2081e-38 0.655507 0.188024)
(-2.80459e-37 0.686062 0.196883)
(-3.17061e-36 0.717771 0.205917)
(-9.12211e-36 0.750584 0.215035)
(4.80495e-35 0.784414 0.224113)
(5.9333e-34 0.819128 0.23298)
(1.93926e-33 0.854525 0.241408)
(-8.62633e-33 0.890331 0.249103)
(-1.09224e-31 0.926171 0.25569)
(-2.96059e-31 0.961565 0.260692)
(1.65276e-30 0.995894 0.263534)
(1.51892e-29 1.02841 0.263487)
(2.65768e-29 1.05814 0.259709)
(-2.18719e-28 1.08399 0.251075)
(-1.40301e-27 1.10438 0.236382)
(-1.56074e-27 1.11753 0.213778)
(1.67334e-26 1.12037 0.181675)
(8.50351e-26 1.10965 0.136982)
(9.35244e-26 1.07819 0.078474)
(-6.60751e-25 1.01941 0.00194743)
(-3.58802e-24 0.916003 -0.0886888)
(-8.48212e-24 0.754677 -0.198542)
(5.15574e-23 0.482382 -0.292552)
(-4.79826e-22 -0.0365494 -0.464175)
(9.9343e-22 -0.584813 -0.414236)
(-3.61738e-21 -0.951194 -0.441351)
(3.20948e-20 -1.40496 -0.229174)
(-3.98452e-19 -1.58384 -0.476823)
(8.13542e-18 -2.23299 -0.016194)
(-1.89693e-17 -2.65484 -1.2363)
(-1.17429e-79 0.0231971 0.0329731)
(1.4566e-79 0.0329446 0.0314912)
(5.46071e-78 0.0396982 0.0314827)
(4.1841e-77 0.0462001 0.0311752)
(1.39312e-76 0.0526422 0.0313163)
(-5.60541e-76 0.0588474 0.031467)
(-1.05893e-74 0.0650355 0.031838)
(-6.17832e-74 0.0711606 0.0322985)
(-7.93346e-75 0.0773127 0.0329142)
(3.07226e-72 0.0834965 0.0336428)
(2.68152e-71 0.0897589 0.0345054)
(5.3103e-71 0.096118 0.0354878)
(-1.21426e-69 0.102605 0.036597)
(-1.38375e-68 0.109242 0.0378283)
(-3.10435e-68 0.116054 0.0391846)
(7.25904e-67 0.123062 0.0406651)
(7.71998e-66 0.13029 0.0422719)
(4.16531e-66 0.137758 0.044006)
(-5.20765e-64 0.14549 0.0458699)
(-3.76732e-63 0.153506 0.0478658)
(1.21489e-62 0.161828 0.0499969)
(3.3491e-61 0.170478 0.0522667)
(1.2021e-60 0.179477 0.0546793)
(-1.51654e-59 0.188849 0.057239)
(-1.65871e-58 0.198617 0.0599509)
(2.40055e-59 0.208802 0.0628204)
(1.0456e-56 0.21943 0.0658535)
(5.6591e-56 0.230525 0.0690567)
(-3.06465e-55 0.242113 0.0724369)
(-4.95398e-54 0.254218 0.0760015)
(-1.01714e-53 0.266869 0.0797585)
(2.14981e-52 0.280092 0.0837164)
(1.75821e-51 0.293917 0.0878842)
(-1.21859e-51 0.308374 0.0922712)
(-9.82609e-50 0.323492 0.0968875)
(-5.24865e-49 0.339305 0.101743)
(1.83498e-48 0.355846 0.10685)
(3.83116e-47 0.373147 0.112218)
(1.44177e-46 0.391246 0.117859)
(-1.08037e-45 0.410179 0.123785)
(-1.39966e-44 0.429983 0.130006)
(-2.89296e-44 0.450698 0.136535)
(5.24546e-43 0.472362 0.143382)
(4.33293e-42 0.495015 0.150554)
(-7.19972e-43 0.518697 0.15806)
(-1.96143e-40 0.543447 0.165903)
(-9.76295e-40 0.5693 0.174082)
(3.03584e-39 0.596291 0.182588)
(5.25269e-38 0.624444 0.191406)
(1.4393e-37 0.653778 0.200504)
(-1.13567e-36 0.684296 0.209837)
(-1.02018e-35 0.715982 0.219333)
(-1.29016e-35 0.748795 0.228893)
(2.46158e-34 0.782657 0.238378)
(1.55536e-33 0.817443 0.247599)
(6.36352e-34 0.852965 0.256307)
(-3.86314e-32 0.888964 0.264182)
(-2.01358e-31 0.925084 0.270817)
(4.46219e-33 0.960864 0.2757)
(4.78835e-30 0.995708 0.278219)
(2.1664e-29 1.02889 0.277599)
(-5.33123e-30 1.0595 0.272958)
(-4.50198e-28 1.08644 0.263112)
(-1.7807e-27 1.10823 0.246801)
(3.45757e-28 1.12313 0.222063)
(2.86859e-26 1.12818 0.187211)
(1.05711e-25 1.12013 0.138916)
(3.89507e-26 1.09185 0.0757892)
(-1.05889e-24 1.03637 -0.00670645)
(-4.56215e-24 0.936173 -0.104794)
(-9.04975e-24 0.775739 -0.223995)
(7.03575e-23 0.504928 -0.328421)
(-6.98725e-22 -0.0147793 -0.513859)
(1.20476e-21 -0.590708 -0.491202)
(-3.74791e-21 -0.972934 -0.521036)
(3.49845e-20 -1.40759 -0.283796)
(-4.47494e-19 -1.60759 -0.499506)
(8.47081e-18 -2.16205 -0.0426273)
(-1.54679e-17 -2.62983 -1.18949)
(-6.9617e-79 0.0233714 0.0352064)
(-3.85044e-79 0.0330853 0.0336839)
(2.18988e-77 0.0397383 0.0336763)
(2.02749e-76 0.0462141 0.0333549)
(8.34069e-76 0.0526134 0.0335097)
(-1.51108e-75 0.0587916 0.033677)
(-4.78732e-74 0.0649488 0.0340792)
(-3.14471e-73 0.0710473 0.0345778)
(-2.76009e-73 0.0771717 0.0352418)
(1.31609e-71 0.0833295 0.0360263)
(1.21234e-70 0.0895654 0.0369535)
(2.79605e-70 0.0958987 0.0380083)
(-4.69716e-69 0.10236 0.0391979)
(-5.59313e-68 0.108971 0.0405175)
(-1.54668e-67 0.115757 0.0419699)
(2.48638e-66 0.122739 0.0435544)
(2.95755e-65 0.12994 0.0452731)
(4.66143e-65 0.137382 0.047127)
(-1.71659e-63 0.145086 0.0491188)
(-1.48598e-62 0.153074 0.0512509)
(2.0734e-62 0.161367 0.0535266)
(1.13863e-60 0.169987 0.0559496)
(5.55614e-60 0.178957 0.058524)
(-4.20957e-59 0.188298 0.0612547)
(-6.03317e-58 0.198033 0.0641469)
(-7.43578e-58 0.208185 0.0672062)
(3.34042e-56 0.218778 0.070439)
(2.28592e-55 0.229837 0.073852)
(-7.46379e-55 0.241386 0.0774525)
(-1.7297e-53 0.253452 0.0812484)
(-5.04365e-53 0.266062 0.0852479)
(6.86101e-52 0.279243 0.0894598)
(6.39895e-51 0.293023 0.0938936)
(-1.64046e-51 0.307433 0.0985592)
(-3.38219e-49 0.322502 0.103467)
(-1.77225e-48 0.338264 0.108627)
(6.91342e-48 0.354751 0.114052)
(1.25288e-46 0.371997 0.119752)
(3.78051e-46 0.390038 0.12574)
(-3.81774e-45 0.408911 0.132027)
(-3.97916e-44 0.428652 0.138625)