/*--------------------------------*- C++ -*----------------------------------*\
| =========                 |                                                 |
| \\      /  F ield         | OpenFOAM: The Open Source CFD Toolbox           |
|  \\    /   O peration     | Version:  4.1                                   |
|   \\  /    A nd           | Web:      www.OpenFOAM.org                      |
|    \\/     M anipulation  |                                                 |
\*---------------------------------------------------------------------------*/
FoamFile
{
    version     2.0;
    format      ascii;
    class       surfaceScalarField;
    location    "2";
    object      phi;
}
// * * * * * * * * * * * * * * * * * * * * * * * * * * * * * * * * * * * * * //

dimensions      [0 3 -1 0 0 0 0];

internalField   nonuniform List<scalar> 
13220
(
-807.182
2107.08
-1259.8
1752.82
-1716.8
1756.9
-2054.85
1637.95
-2328.47
1573.82
-2525.22
1496.65
-2651.39
1426.07
-2706.79
1355.6
-2694.78
1287.88
-2612.68
1217.8
-2447.92
1135.44
-2163.85
1015.82
-1684.79
820.837
-953.904
569.31
345.995
-187.882
2294.96
-429.922
1994.85
-709.711
2036.68
-936.612
1864.84
-1157.35
1794.55
-1340.15
1679.44
-1498.79
1584.7
-1628.8
1485.61
-1735.71
1394.79
-1812.73
1294.82
-1817.53
1140.23
-1636.39
834.682
-1133.05
317.502
-476.789
-86.961
-130.794
-149.176
2444.13
-361.751
2207.43
-517.792
2192.72
-613.813
1960.86
-698.61
1879.34
-740.142
1720.97
-759.58
1604.14
-751.591
1477.62
-721.275
1364.47
-671.784
1245.32
-607.213
1075.66
-518.501
745.943
-384.737
183.697
-279.409
-192.339
-410.203
91.3059
2352.82
39.882
2258.85
60.4546
2172.15
106.441
1914.87
154.324
1831.46
223.335
1651.96
301.718
1525.75
397.48
1381.85
508.881
1253.07
629.582
1124.62
725.479
979.757
696.697
774.732
422.389
458.015
53.5017
176.56
-356.701
168.471
2184.35
131.233
2296.09
166.195
2137.19
210.329
1870.74
256.792
1785
305.815
1602.94
353.036
1478.53
403.61
1331.28
459.017
1197.66
517.18
1066.45
564.436
932.507
553.637
785.522
430.427
581.22
242.5
364.48
-114.2
160.279
2024.08
138.847
2317.52
151.767
2124.27
172.04
1850.47
201.973
1755.07
223.64
1581.27
243.24
1458.94
257.175
1317.35
269.131
1185.71
279.928
1055.66
286.433
926.003
276.223
795.749
221.454
636.007
130.522
455.464
16.3224
117.803
1906.28
154.591
2280.73
181.029
2097.83
205.505
1826
246.837
1713.74
271.527
1556.58
291.917
1438.55
298.646
1310.62
293.525
1190.83
276.629
1072.56
248.648
953.986
209.087
835.311
147.823
697.275
63.0672
540.235
79.39
59.8903
1846.39
156.943
2183.68
226.474
2028.31
279.392
1773.08
342.552
1650.58
388.308
1510.83
423.627
1403.23
440.009
1294.24
438.16
1192.68
415.255
1095.47
371.691
997.551
309.645
897.362
226.296
780.629
122.804
643.738
202.194
22.1459
1824.24
123.964
2081.87
229.872
1922.4
315.946
1687.01
393.831
1572.7
454.114
1450.55
498.403
1358.95
520.67
1271.98
521.142
1192.21
498.399
1118.21
450.443
1045.51
378.246
969.564
279.155
879.724
158.146
764.755
360.34
34.307
1789.94
70.5943
2045.58
177.944
1815.05
280.719
1584.23
363.958
1489.46
428.81
1385.7
472.062
1315.7
494.098
1249.94
493.597
1192.72
471.738
1140.07
427.951
1089.3
360.334
1037.18
265.116
974.941
148.311
881.559
508.651
83.5413
1706.4
44.455
2084.67
98.6384
1760.87
189.435
1493.44
269.944
1408.95
335.178
1320.46
375.571
1275.3
395.928
1229.59
397.047
1191.6
380.072
1157.05
346.12
1123.25
293.604
1089.7
217.175
1051.37
119.276
979.461
627.927
129.83
1576.57
83.5998
2130.9
59.0661
1785.4
106.556
1445.95
179.234
1336.27
242.167
1257.53
282.889
1234.58
302.878
1209.6
305.913
1188.56
294.782
1168.18
269.63
1148.4
229.813
1129.51
172.509
1108.67
92.8845
1059.08
720.811
135.145
1441.42
149.236
2116.81
99.4266
1835.21
91.8977
1453.48
134.502
1293.67
175.119
1216.91
202.322
1207.38
214.127
1197.79
213.949
1188.74
205.567
1176.56
189.786
1164.18
165.768
1153.53
131.101
1143.34
75.813
1114.37
796.624
201.248
1240.17
279.156
2038.9
224.837
1889.53
153.841
1524.47
157.406
1290.1
190.483
1183.84
226.96
1170.9
246.68
1178.07
250.607
1184.81
242.219
1184.95
220.309
1186.09
188.43
1185.41
140.457
1191.31
80.3636
1174.46
876.988
576.109
1053.29
1202.33
1213.25
1131.3
1008.14
872.895
732.405
596.944
462.77
356.159
257.45
205.384
161.358
0.000109009
-14.6536
14.6537
-14.6536
-14.6536
-14.6536
-20.6987
6.04511
-20.6986
-20.6986
-20.6986
-34.2361
13.5376
-34.2361
-34.2361
-48.7538
14.5177
-48.7538
-48.7538
-48.7538
-62.8738
14.12
-62.8738
-62.8738
-80.0606
17.1868
-80.0606
-80.0606
-80.0606
-95.4938
15.4332
-95.4938
-95.4938
-95.4937
-110.106
14.6119
-110.106
-110.106
-123.189
13.0838
-123.189
-123.189
-123.189
-135.508
12.3187
-135.508
-135.508
-154.888
19.38
-154.888
-154.888
-154.888
-170.65
15.7618
-170.65
-170.65
-170.65
-189.441
18.7908
-189.441
-189.441
-223.118
33.6774
-223.118
-223.118
-223.118
-267.534
44.4158
-267.534
-267.534
-267.534
-331.748
64.2138
-331.748
-331.748
-437.548
105.801
-437.548
-437.548
-437.548
-612.924
175.375
-612.924
-612.924
-921.382
308.458
-921.382
-921.382
-921.382
-1510.15
588.769
-1510.15
-1510.15
-1510.15
-2493.41
983.261
-2493.41
-2493.41
-3909.31
1415.9
-3909.31
-3909.31
-3716.41
-3522.48
-3324.39
-4858.8
1730.06
-4666.57
-4453.51
-4229.39
-4002.29
-3771.85
-3538.67
-3303.12
-3065.58
-4824.07
1993.46
-4593.96
-4363.75
-4132.15
-3898.73
-3660.9
-3420.04
-3176.61
-2930.07
-4968.15
2282.03
-4726.58
-4485.06
-4243.51
-4000.6
-3756.58
-3511.86
-3265.73
-3017.41
-2766.35
-4988.45
2469.9
-4742.14
-4495.22
-4247.97
-4000.03
-3751.19
-3503.14
-3254.65
-3004.33
-5325.89
2567.35
-5079.57
-4833.97
-4589.58
-4344.57
-4098.99
-3854.21
-3609.28
-3360.36
-5739.09
2624.04
-5494.2
-5250.19
-5006.52
-4753.9
-4496.94
-4240.94
-3983.96
-3724.31
-6031.01
2575.09
-5750.31
-5469.09
-5186.31
-4901.85
-4614.17
-4289.53
-3963.32
-3633.47
-3302.64
-5109.04
2131.9
-4794.97
-4483.2
-4179.06
-3885.35
-3608.04
-3382.79
-3239.92
-3116.82
-2805.19
-193.912
-2696.39
-2584.89
-2584.89
-2689.28
104.39
-2711.93
22.6506
-2711.93
-2732.33
20.3961
-2732.33
-2736.15
3.81865
-2671.77
-64.3767
-2671.77
-2588.28
-83.4881
-2461.05
-127.233
-2461.05
-2341.34
-119.709
-2341.34
-2215.07
-126.275
-2063
-152.066
-2063
-1913.13
-149.868
-1913.13
-1762.48
-150.654
-1593.42
-169.063
-1593.42
-1428.47
-164.948
-1260.6
-167.872
-1260.6
-1090.77
-169.83
-1090.77
-904.693
-186.073
-716.19
-188.503
-716.19
-526.113
-190.077
-526.113
-322.235
-203.879
-100.594
-221.641
-100.594
105.338
-205.931
342.74
-237.402
342.74
560.192
-217.452
560.192
748.325
-188.132
938.773
-190.449
938.773
1103.33
-164.559
1103.33
1251.86
-148.53
1410.12
-158.259
1410.12
1551.22
-141.097
1680.95
-129.735
1680.95
1803.49
-122.533
1803.49
1913.33
-109.843
2010.67
-97.3373
2010.67
2087.3
-76.6336
2087.3
2137.93
-50.6287
2187.09
-49.1636
2187.09
2264.77
-77.6742
2317.02
-52.2524
2317.02
2372.37
-55.3454
2372.37
2386.51
-14.1422
2412.91
-26.3969
2412.91
2466.3
-53.3984
2466.3
2447.03
19.2689
2421.27
25.7672
2421.27
2466.86
-45.5928
2505.42
-38.5557
2505.42
2647.39
-141.972
2647.39
-133.428
-1.30733
-7.18832
-1.26724
-11.0327
-1.25316
-13.9395
-1.24203
-16.589
-1.23997
-19.2355
-1.24308
-21.7743
-1.25302
-24.3097
-1.26865
-26.8212
-1.29044
-29.3479
-1.31799
-31.8928
-1.35142
-34.476
-1.39057
-37.1063
-1.43547
-39.7977
-1.48609
-42.5605
-1.54245
-45.4064
-1.60458
-48.3459
-1.67255
-51.3902
-1.74646
-54.5498
-1.82641
-57.8357
-1.91258
-61.2588
-2.00513
-64.8304
-2.10428
-68.5618
-2.21026
-72.4646
-2.32335
-76.551
-2.44386
-80.8333
-2.57212
-85.3245
-2.70851
-90.0381
-2.85344
-94.9879
-3.00734
-100.189
-3.17071
-105.656
-3.34408
-111.406
-3.52801
-117.455
-3.72312
-123.821
-3.93008
-130.524
-4.14959
-137.583
-4.38245
-145.019
-4.62946
-152.855
-4.89152
-161.114
-5.16958
-169.821
-5.46465
-179.004
-5.77781
-188.69
-6.1102
-198.91
-6.46302
-209.695
-6.83754
-221.08
-7.23507
-233.099
-7.65693
-245.792
-8.10448
-259.197
-8.57904
-273.356
-9.08185
-288.313
-9.61402
-304.112
-10.1764
-320.798
-10.7695
-338.417
-11.3931
-357.011
-12.0464
-376.62
-12.7272
-397.277
-13.4316
-419.002
-14.1535
-441.801
-14.8835
-465.652
-15.6077
-490.498
-16.3063
-516.229
-16.952
-542.665
-17.5068
-569.526
-17.9203
-596.401
-18.1255
-622.695
-18.0372
-647.598
-17.5454
-669.94
-16.5248
-688.321
-14.8118
-700.391
-12.2665
-704.202
-8.69508
-694.66
-4.05349
-670.035
1.71961
-618.881
8.18708
-541.473
15.5627
-407.711
20.2497
-208.006
31.2198
269.856
16.8644
396.17
110.055
744.252
721.017
-1.62104
-7.24372
-1.56631
-11.0874
-1.54675
-13.959
-1.53248
-16.6032
-1.52982
-19.2382
-1.53396
-21.7702
-1.54652
-24.2971
-1.56615
-26.8015
-1.59329
-29.3208
-1.62748
-31.8586
-1.66882
-34.4346
-1.71713
-37.058
-1.77244
-39.7424
-1.83468
-42.4983
-1.9039
-45.3371
-1.98012
-48.2697
-2.06344
-51.3068
-2.15394
-54.4593
-2.25179
-57.7378
-2.35714
-61.1535
-2.47023
-64.7173
-2.59128
-68.4407
-2.7206
-72.3353
-2.85848
-76.4131
-3.0053
-80.6865
-3.16145
-85.1684
-3.32737
-89.8722
-3.50352
-94.8118
-3.69044
-100.002
-3.88868
-105.458
-4.09885
-111.195
-4.32162
-117.232
-4.5577
-123.585
-4.80786
-130.274
-5.0729
-137.318
-5.35373
-144.738
-5.65127
-152.557
-5.96655
-160.799
-6.30063
-169.487
-6.65466
-178.65
-7.02984
-188.315
-7.42745
-198.513
-7.84881
-209.274
-8.29531
-220.633
-8.76837
-232.626
-9.26942
-245.291
-9.79987
-258.666
-10.3611
-272.795
-10.9542
-287.72
-11.5803
-303.486
-12.24
-320.138
-12.9334
-337.723
-13.6597
-356.285
-14.4172
-375.863
-15.2024
-396.492
-16.0095
-418.195
-16.8298
-440.981
-17.6503
-464.831
-18.4522
-489.696
-19.2092
-515.472
-19.8852
-541.989
-20.431
-568.981
-20.7815
-596.05
-20.8513
-622.625
-20.5335
-647.916
-19.6905
-670.783
-18.1686
-689.843
-15.7696
-702.79
-12.3264
-707.645
-7.62147
-699.365
-1.61129
-676.045
5.71105
-626.203
13.8051
-549.567
22.69
-416.596
28.9385
-214.255
38.3348
260.46
19.1409
415.364
116.72
646.673
695.764
-1.79473
-7.30668
-1.73462
-11.1475
-1.71187
-13.9818
-1.69623
-16.6189
-1.69337
-19.2411
-1.69834
-21.7652
-1.71256
-24.2829
-1.73465
-26.7795
-1.76499
-29.2904
-1.8031
-31.8205
-1.84905
-34.3887
-1.90267
-37.0044
-1.96397
-39.6811
-2.03288
-42.4293
-2.10945
-45.2606
-2.19372
-48.1854
-2.28576
-51.2148
-2.3857
-54.3593
-2.49368
-57.6299
-2.60991
-61.0373
-2.73461
-64.5926
-2.86805
-68.3073
-3.01053
-72.1928
-3.1624
-76.2612
-3.32405
-80.5249
-3.4959
-84.9965
-3.67842
-89.6896
-3.87213
-94.6181
-4.07759
-99.7964
-4.29539
-105.24
-4.52621
-110.965
-4.77074
-116.987
-5.02976
-123.326
-5.30407
-129.999
-5.59455
-137.027
-5.90216
-144.431
-6.22789
-152.231
-6.57281
-160.454
-6.93807
-169.122
-7.32487
-178.263
-7.73448
-187.906
-8.16824
-198.079
-8.62756
-208.815
-9.11386
-220.147
-9.62862
-232.112
-10.1733
-244.746
-10.7494
-258.09
-11.3581
-272.186
-12.0008
-287.077
-12.6782
-302.808
-13.391
-319.426
-14.1388
-336.975
-14.9207
-355.503
-15.7343
-375.049
-16.5753
-395.651
-17.437
-417.333
-18.3089
-440.109
-19.1761
-463.964
-20.0169
-488.855
-20.8013
-514.688
-21.4881
-541.303
-22.0217
-568.447
-22.3288
-595.743
-22.3139
-622.64
-21.8575
-648.373
-20.8076
-671.833
-18.9937
-691.657
-16.2006
-705.583
-12.2421
-711.604
-6.89243
-704.715
-0.0976593
-682.84
8.11417
-634.415
17.1757
-558.629
26.8476
-426.268
34.0402
-221.447
43.9748
250.525
16.4688
442.87
39.6509
623.491
696.859
-1.99003
-7.37582
-1.92585
-11.2117
-1.9006
-14.007
-1.88397
-16.6355
-1.8813
-19.2437
-1.88753
-21.759
-1.90391
-24.2665
-1.92905
-26.7543
-1.96325
-29.2562
-2.00605
-31.7777
-2.05749
-34.3372
-2.11738
-36.9445
-2.18574
-39.6128
-2.26251
-42.3526
-2.34772
-45.1754
-2.44142
-48.0917
-2.5437
-51.1125
-2.65469
-54.2483
-2.77456
-57.51
-2.90352
-60.9083
-3.04182
-64.4543
-3.18975
-68.1593
-3.34765
-72.0349
-3.51589
-76.093
-3.6949
-80.3458
-3.88514
-84.8063
-4.08712
-89.4877
-4.3014
-94.4038
-4.52858
-99.5692
-4.76933
-104.999
-5.02435
-110.71
-5.29441
-116.717
-5.58033
-123.04
-5.883
-129.697
-6.20337
-136.707
-6.54244
-144.091
-6.9013
-151.873
-7.2811
-160.074
-7.68304
-168.72
-8.10843
-177.838
-8.55862
-187.455
-9.03503
-197.602
-9.53913
-208.311
-10.0724
-219.614
-10.6365
-231.547
-11.2328
-244.15
-11.8629
-257.46
-12.5281
-271.521
-13.2296
-286.375
-13.9682
-302.069
-14.7442
-318.65
-15.5573
-336.162
-16.4059
-354.654
-17.2872
-374.168
-18.196
-394.742
-19.1244
-416.405
-20.0603
-439.173
-20.9865
-463.038
-21.8781
-487.963
-22.7011
-513.865
-23.4085
-540.595
-23.9378
-567.918
-24.2064
-595.475
-24.1072
-622.739
-23.5063
-648.974
-22.235
-673.104
-20.1031
-693.789
-16.8744
-708.811
-12.3402
-716.138
-6.25847
-710.796
1.43776
-690.536
10.6919
-643.669
20.9152
-568.852
31.6745
-437.027
39.2596
-229.032
48.3722
241.413
18.6173
472.625
17.2444
624.864
668.511
-2.17442
-7.44892
-2.10816
-11.2779
-2.08109
-14.0341
-2.06396
-16.6526
-2.0618
-19.2459
-2.06951
-21.7513
-2.08821
-24.2478
-2.11648
-26.726
-2.1546
-29.2181
-2.20209
-31.7302
-2.25898
-34.2804
-2.32508
-36.8784
-2.40039
-39.5375
-2.48487
-42.2681
-2.57854
-45.0817
-2.68145
-47.9888
-2.79373
-51.0002
-2.91549
-54.1266
-3.04693
-57.3785
-3.18828
-60.767
-3.33981
-64.3028
-3.50183
-67.9973
-3.67471
-71.862
-3.85885
-75.9088
-4.05471
-80.15
-4.26279
-84.5982
-4.48365
-89.2668
-4.71787
-94.1696
-4.96612
-99.321
-5.22911
-104.736
-5.50759
-110.431
-5.80239
-116.423
-6.11439
-122.728
-6.44453
-129.367
-6.79384
-136.358
-7.16339
-143.722
-7.55432
-151.482
-7.96787
-159.66
-8.40533
-168.283
-8.86807
-177.375
-9.35752
-186.966
-9.87518
-197.085
-10.4226
-207.763
-11.0014
-219.035
-11.6131
-230.936
-12.2594
-243.503
-12.9417
-256.778
-13.6615
-270.801
-14.4198
-285.617
-15.2175
-301.272
-16.0547
-317.812
-16.9308
-335.286
-17.844
-353.741
-18.7908
-373.221
-19.7653
-393.767
-20.7584
-415.412
-21.7566
-438.174
-22.7404
-462.054
-23.6822
-487.021
-24.5438
-513.003
-25.2732
-539.866
-25.801
-567.39
-26.036
-595.24
-25.8599
-622.915
-25.1257
-649.708
-23.6481
-674.582
-21.2181
-696.219
-17.5787
-712.451
-12.4985
-721.218
-5.71765
-717.577
2.84888
-699.102
13.127
-653.947
24.53
-580.255
36.4443
-448.941
45.2944
-237.882
54.3212
232.386
22.6263
504.319
-26.3466
673.837
667.931
-2.3554
-7.52454
-2.28833
-11.345
-2.26011
-14.0623
-2.24295
-16.6698
-2.24162
-19.2472
-2.25107
-21.7418
-2.27231
-24.2266
-2.30393
-26.6944
-2.34615
-29.1759
-2.39851
-31.6779
-2.461
-34.2179
-2.53346
-36.8059
-2.61587
-39.4551
-2.70818
-42.1758
-2.81045
-44.9794
-2.92273
-47.8765
-3.04512
-50.8778
-3.17779
-53.9939
-3.32094
-57.2354
-3.47481
-60.6131
-3.6397
-64.1379
-3.81595
-67.8211
-4.00395
-71.674
-4.20414
-75.7086
-4.41701
-79.9371
-4.64309
-84.3721
-4.88299
-89.0269
-5.13733
-93.9152
-5.40683
-99.0515
-5.69224
-104.451
-5.99438
-110.129
-6.31412
-116.103
-6.65241
-122.39
-7.01026
-129.009
-7.38875
-135.979
-7.78902
-143.322
-8.2123
-151.058
-8.65989
-159.213
-9.13317
-167.809
-9.63357
-176.875
-10.1626
-186.437
-10.7219
-196.526
-11.313
-207.172
-11.9376
-218.41
-12.5975
-230.276
-13.2941
-242.807
-14.0292
-256.043
-14.8041
-270.026
-15.6199
-284.801
-16.4773
-300.414
-17.3764
-316.913
-18.3163
-334.346
-19.295
-352.762
-20.3084
-372.208
-21.3498
-392.726
-22.4093
-414.352
-23.4716
-437.112
-24.5153
-461.011
-25.5099
-486.027
-26.4135
-512.1
-27.1692
-539.11
-27.7009
-566.858
-27.9088
-595.032
-27.6641
-623.16
-26.8062
-650.566
-25.134
-676.254
-22.4192
-698.934
-18.3834
-716.486
-12.7711
-726.831
-5.30127
-725.047
4.13423
-708.538
15.4542
-665.267
28.0948
-592.895
41.2618
-462.108
52.2056
-248.826
61.5991
222.992
38.7362
527.182
-27.3632
739.936
659.837
-2.53205
-7.60144
-2.46523
-11.4118
-2.43641
-14.0912
-2.41965
-16.6866
-2.41944
-19.2474
-2.43089
-21.7304
-2.45486
-24.2026
-2.48999
-26.6593
-2.53647
-29.1294
-2.59382
-31.6205
-2.66204
-34.1496
-2.74096
-36.727
-2.83055
-39.3655
-2.9308
-42.0755
-3.04174
-44.8685
-3.16343
-47.7549
-3.296
-50.7453
-3.43963
-53.8503
-3.59453
-57.0805
-3.76096
-60.4467
-3.93924
-63.9596
-4.12975
-67.6306
-4.3329
-71.4709
-4.54915
-75.4924
-4.77904
-79.7072
-5.02314
-84.128
-5.28208
-88.768
-5.55656
-93.6407
-5.84731
-98.7607
-6.15515
-104.143
-6.48094
-109.803
-6.82563
-115.758
-7.19021
-122.025
-7.57576
-128.623
-7.98342
-135.571
-8.41441
-142.891
-8.87003
-150.603
-9.35165
-158.731
-9.86072
-167.3
-10.3988
-176.337
-10.9674
-185.868
-11.5683
-195.925
-12.2031
-206.537
-12.8736
-217.74
-13.5815
-229.568
-14.3286
-242.06
-15.1164
-255.255
-15.9464
-269.196
-16.8196
-283.928
-17.7368
-299.497
-18.698
-315.952
-19.702
-333.342
-20.7464
-351.718
-21.8268
-371.127
-22.9358
-391.617
-24.0623
-413.226
-25.1899
-435.984
-26.295
-459.905
-27.3446
-484.977
-28.2932
-511.151
-29.079
-538.324
-29.6197
-566.318
-29.8072
-594.844
-29.5025
-623.464
-28.5318
-651.536
-26.6781
-678.108
-23.6942
-701.918
-19.2797
-720.901
-13.1537
-732.957
-5.01062
-733.19
5.28589
-718.834
17.6579
-677.639
31.5813
-606.819
46.0849
-476.612
59.5675
-262.309
71.2798
211.28
62.4646
535.997
69.133
733.268
675.571
-2.7051
-7.67869
-2.63931
-11.4776
-2.61039
-14.1201
-2.59443
-16.7025
-2.59563
-19.2462
-2.60929
-21.7167
-2.6362
-24.1757
-2.67502
-26.6205
-2.72591
-29.0785
-2.78839
-31.558
-2.86246
-34.0756
-2.94795
-36.6415
-3.04484
-39.2686
-3.15311
-41.9673
-3.2728
-44.7488
-3.404
-47.6237
-3.54683
-50.6024
-3.70148
-53.6956
-3.86819
-56.9138
-4.04724
-60.2676
-4.23898
-63.7679
-4.4438
-67.4258
-4.66214
-71.2526
-4.89452
-75.26
-5.14148
-79.4603
-5.40365
-83.8659
-5.68169
-88.4899
-5.97634
-93.3461
-6.28839
-98.4487
-6.61871
-103.813
-6.96821
-109.454
-7.33789
-115.389
-7.72881
-121.634
-8.14211
-128.21
-8.579
-135.135
-9.04076
-142.429
-9.52878
-150.115
-10.0445
-158.215
-10.5894
-166.755
-11.1652
-175.761
-11.7735
-185.26
-12.416
-195.282
-13.0946
-205.859
-13.811
-217.023
-14.5671
-228.812
-15.3647
-241.262
-16.2054
-254.414
-17.0907
-268.311
-18.0217
-282.997
-18.9989
-298.52
-20.0224
-314.929
-21.0908
-332.274
-22.2015
-350.607
-23.3495
-369.979
-24.5268
-390.439
-25.7215
-412.031
-26.9158
-434.79
-28.0843
-458.737
-29.1915
-483.87
-30.1884
-510.154
-31.0088
-537.504
-31.5643
-565.762
-31.7389
-594.669
-31.3836
-623.82
-30.3118
-652.608
-28.291
-680.128
-25.0548
-705.154
-20.2803
-725.675
-13.6603
-739.577
-4.86017
-741.99
6.2892
-729.984
19.7246
-691.075
34.9731
-622.067
50.9149
-492.553
67.0309
-278.425
81.0149
197.296
76.2093
540.803
71.2863
738.191
720.461
-2.87487
-7.75554
-2.8107
-11.5418
-2.78213
-14.1486
-2.7673
-16.7174
-2.77019
-19.2434
-2.78629
-21.7006
-2.81633
-24.1457
-2.859
-26.5778
-2.91444
-29.0231
-2.98219
-31.4903
-3.06224
-33.9955
-3.15442
-36.5494
-3.25871
-39.1643
-3.3751
-41.8509
-3.50364
-44.6203
-3.64441
-47.4829
-3.79757
-50.4493
-3.96332
-53.5299
-4.14191
-56.7352
-4.33364
-60.0759
-4.53889
-63.5626
-4.75807
-67.2066
-4.99167
-71.019
-5.24021
-75.0115
-5.50429
-79.1962
-5.78457
-83.5856
-6.08175
-88.1927
-6.39663
-93.0312
-6.73003
-98.1153
-7.08287
-103.46
-7.45612
-109.08
-7.85085
-114.994
-8.26816
-121.217
-8.70925
-127.769
-9.17542
-134.668
-9.66801
-141.936
-10.1885
-149.594
-10.7383
-157.666
-11.3192
-166.175
-11.9327
-175.148
-12.5807
-184.612
-13.265
-194.598
-13.9874
-205.136
-14.7499
-216.261
-15.5543
-228.007
-16.4025
-240.414
-17.2962
-253.52
-18.2369
-267.37
-19.2258
-282.008
-20.2633
-297.482
-21.3494
-313.843
-22.4826
-331.141
-23.66
-349.43
-24.8763
-368.763
-26.1229
-389.193
-27.3868
-410.767
-28.6493
-433.528
-29.8832
-457.503
-31.0507
-482.703
-32.0996
-509.105
-32.9593
-536.644
-33.5357
-565.186
-33.7055
-594.5
-33.3097
-624.215
-32.1494
-653.768
-29.9768
-682.301
-26.5064
-708.625
-21.3922
-730.79
-14.2992
-746.67
-4.86021
-751.429
7.13205
-741.976
21.6413
-705.584
38.2512
-638.677
55.749
-510.051
74.4251
-297.101
88.9157
182.805
87.2712
542.447
38.4672
786.995
744.786
-3.04166
-7.83141
-2.97956
-11.6039
-2.95175
-14.1765
-2.93838
-16.7307
-2.94319
-19.2385
-2.96196
-21.6818
-2.9953
-24.1123
-3.04199
-26.5311
-3.10214
-28.9629
-3.1753
-31.4171
-3.26145
-33.9094
-3.36042
-36.4504
-3.47222
-39.0525
-3.59683
-41.7263
-3.7343
-44.4828
-3.88473
-47.3324
-4.0483
-50.2857
-4.22522
-53.353
-4.41575
-56.5447
-4.62023
-59.8714
-4.83906
-63.3438
-5.07266
-66.973
-5.32156
-70.7701
-5.58633
-74.7467
-5.86758
-78.9149
-6.16603
-83.2871
-6.48241
-87.8764
-6.81756
-92.6961
-7.17236
-97.7605
-7.54777
-103.084
-7.94484
-108.683
-8.36465
-114.574
-8.80841
-120.773
-9.27736
-127.3
-9.77286
-134.173
-10.2963
-141.413
-10.8493
-149.041
-11.4334
-157.081
-12.0502
-165.558
-12.7016
-174.496
-13.3894
-183.924
-14.1155
-193.872
-14.8819
-204.37
-15.6905
-215.452
-16.5433
-227.155
-17.4423
-239.515
-18.3892
-252.574
-19.3855
-266.374
-20.4324
-280.961
-21.5305
-296.384
-22.6795
-312.694
-23.878
-329.942
-25.1226
-348.185
-26.4078
-367.478
-27.7246
-387.876
-29.0591
-409.433
-30.3914
-432.195
-31.693
-456.202
-32.9236
-481.472
-34.0284
-508
-34.9325
-535.74
-35.5365
-564.582
-35.7099
-594.326
-35.2844
-624.641
-34.0491
-655.004
-31.7412
-684.609
-28.0558
-712.31
-22.6237
-736.222
-15.0807
-754.213
-5.02279
-761.487
7.80042
-754.799
23.3924
-721.176
41.3968
-656.682
60.5483
-529.203
81.5825
-318.135
98.1164
166.272
101.032
539.532
89.8202
798.206
779.261
-3.20576
-7.90586
-3.14605
-11.6636
-3.11936
-14.2032
-3.10774
-16.7423
-3.11471
-19.2316
-3.13634
-21.6602
-3.17317
-24.0755
-3.22404
-26.4802
-3.28904
-28.8979
-3.36774
-31.3384
-3.46012
-33.817
-3.56601
-36.3445
-3.68542
-38.9331
-3.81834
-41.5934
-3.96484
-44.3363
-4.12502
-47.1723
-4.29908
-50.1117
-4.48724
-53.1648
-4.68979
-56.3421
-4.90709
-59.6541
-5.13955
-63.1114
-5.38764
-66.7249
-5.65191
-70.5058
-5.93296
-74.4657
-6.23144
-78.6164
-6.54811
-82.9705
-6.88375
-87.5407
-7.23922
-92.3406
-7.61548
-97.3842
-8.01353
-102.686
-8.43446
-108.262
-8.87943
-114.129
-9.34969
-120.303
-9.84657
-126.803
-10.3715
-133.648
-10.9259
-140.858
-11.5115
-148.456
-12.1298
-156.463
-12.7827
-164.905
-13.4721
-173.807
-14.1997
-183.197
-14.9678
-193.104
-15.7782
-203.56
-16.633
-214.597
-17.5344
-226.253
-18.4843
-238.565
-19.4845
-251.573
-20.5366
-265.322
-21.6418
-279.856
-22.8007
-295.225
-24.0131
-311.481
-25.2772
-328.678
-26.5897
-346.873
-27.9446
-366.123
-29.3325
-386.488
-30.7389
-408.026
-32.1429
-430.791
-33.5144
-454.83
-34.8113
-480.175
-35.976
-506.836
-36.93
-534.786
-37.5686
-563.943
-37.7546
-594.14
-37.3109
-625.085
-36.015
-656.3
-33.5891
-687.035
-29.7095
-716.19
-23.9829
-741.948
-16.0147
-762.181
-5.35988
-772.142
8.28001
-768.439
24.9618
-737.858
44.3919
-676.112
65.2581
-550.069
88.7839
-341.661
108.419
146.637
111.523
536.428
107.285
802.444
834.293
-3.36738
-7.97852
-3.31033
-11.7206
-3.28506
-14.2284
-3.27545
-16.7519
-3.28482
-19.2222
-3.3095
-21.6355
-3.34999
-24.035
-3.4052
-26.425
-3.4752
-28.8279
-3.55958
-31.2541
-3.6583
-33.7183
-3.77123
-36.2316
-3.89836
-38.8059
-4.0397
-41.452
-4.19531
-44.1807
-4.36534
-47.0022
-4.54997
-49.927
-4.74945
-52.9653
-4.96409
-56.1275
-5.19428
-59.4239
-5.44044
-62.8652
-5.70309
-66.4622
-5.98279
-70.2261
-6.28018
-74.1683
-6.59596
-78.3007
-6.93091
-82.6355
-7.28586
-87.1858
-7.66174
-91.9647
-8.05952
-96.9864
-8.48026
-102.266
-8.92512
-107.818
-9.39532
-113.659
-9.89215
-119.806
-10.417
-126.278
-10.9714
-133.094
-11.5569
-140.273
-12.1751
-147.838
-12.8278
-155.81
-13.5169
-164.216
-14.2442
-173.079
-15.0119
-182.429
-15.822
-192.294
-16.6765
-202.705
-17.5778
-213.696
-18.5278
-225.303
-19.5287
-237.564
-20.5824
-250.52
-21.6906
-264.214
-22.8544
-278.692
-24.0744
-294.005
-25.3504
-310.205
-26.6807
-327.348
-28.0617
-345.492
-29.4872
-364.697
-30.9473
-385.028
-32.427
-406.547
-33.9044
-429.314
-35.3483
-453.386
-36.7149
-478.808
-37.9439
-505.607
-38.9533
-533.776
-39.634
-563.263
-39.8423
-593.932
-39.3926
-625.534
-38.0511
-657.641
-35.5258
-689.56
-31.474
-720.242
-25.4779
-747.944
-17.1111
-770.548
-5.88399
-783.369
8.55544
-782.879
26.3322
-755.634
47.2159
-696.995
69.8587
-572.712
95.6874
-367.49
118.168
124.157
120.909
533.687
117.832
805.521
874.451
-3.52673
-8.04912
-3.47253
-11.7748
-3.44896
-14.252
-3.44161
-16.7593
-3.45358
-19.2102
-3.48149
-21.6076
-3.52582
-23.9907
-3.58553
-26.3653
-3.66067
-28.7528
-3.75085
-31.1639
-3.85606
-33.6131
-3.97614
-36.1115
-4.1111
-38.671
-4.26095
-41.3022
-4.42578
-44.0159
-4.60574
-46.8223
-4.80103
-49.7317
-5.01191
-52.7544
-5.23873
-55.9007
-5.48187
-59.1808
-5.74181
-62.6053
-6.01908
-66.185
-6.31429
-69.9309
-6.62809
-73.8545
-6.96124
-77.9675
-7.31454
-82.2822
-7.68887
-86.8114
-8.08521
-91.5684
-8.50458
-96.5671
-8.94809
-101.822
-9.41695
-107.349
-9.91244
-113.163
-10.4359
-119.283
-10.9889
-125.725
-11.5728
-132.51
-12.1894
-139.656
-12.8403
-147.187
-13.5275
-155.123
-14.2529
-163.49
-15.0184
-172.314
-15.8261
-181.621
-16.6783
-191.441
-17.5772
-201.806
-18.5249
-212.748
-19.5238
-224.304
-20.5759
-236.512
-21.6833
-249.412
-22.8477
-263.049
-24.0704
-277.47
-25.3519
-292.724
-26.692
-308.865
-28.089
-325.951
-29.5391
-344.041
-31.036
-363.201
-32.5694
-383.495
-34.1238
-404.992
-35.6767
-427.761
-37.1956
-451.867
-38.6353
-477.369
-39.9331
-504.309
-41.0042
-532.705
-41.7348
-562.532
-41.9754
-593.691
-41.5324
-625.977
-40.1614
-659.012
-37.5563
-692.165
-33.3555
-724.442
-27.1166
-754.183
-18.3802
-779.284
-6.60795
-795.141
8.61073
-798.097
27.4849
-774.509
49.8474
-719.358
74.3394
-597.204
102.269
-395.42
127.49
98.9357
131.537
529.64
106.936
830.122
932.224
-3.68399
-8.11745
-3.63278
-11.826
-3.61117
-14.2736
-3.60628
-16.7642
-3.62105
-19.1955
-3.65238
-21.5763
-3.7007
-23.9424
-3.76506
-26.301
-3.84549
-28.6724
-3.94162
-31.0677
-4.05343
-33.5013
-4.18078
-35.9841
-4.32368
-38.5281
-4.48216
-41.1437
-4.65631
-43.8417
-4.84629
-46.6323
-5.05233
-49.5257
-5.2747
-52.5321
-5.51377
-55.6616
-5.76995
-58.9246
-6.04375
-62.3315
-6.33572
-65.893
-6.64649
-69.6201
-6.97678
-73.5242
-7.32736
-77.6169
-7.69909
-81.9105
-8.09288
-86.4176
-8.50975
-91.1515
-8.95078
-96.126
-9.41714
-101.356
-9.91008
-106.856
-10.4309
-112.642
-10.9812
-118.733
-11.5623
-125.144
-12.1758
-131.896
-12.8236
-139.009
-13.5074
-146.503
-14.2292
-154.401
-14.9909
-162.729
-15.7946
-171.51
-16.6426
-180.773
-17.5371
-190.547
-18.4803
-200.863
-19.4748
-211.754
-20.5226
-223.256
-21.6262
-235.408
-22.7875
-248.251
-24.0084
-261.828
-25.2902
-276.188
-26.6336
-291.38
-28.0382
-307.46
-29.5024
-324.487
-31.0223
-342.521
-32.5915
-361.631
-34.1994
-381.887
-35.8302
-403.361
-37.4606
-426.131
-39.0573
-450.271
-40.5736
-475.852
-41.9451
-502.937
-43.084
-531.566
-43.8727
-561.743
-44.1562
-593.408
-43.7335
-626.4
-42.3497
-660.396
-39.6854
-694.83
-35.3604
-728.767
-28.907
-760.637
-19.8322
-788.359
-7.54492
-807.429
8.42925
-814.071
28.4002
-794.479
52.2627
-743.22
78.6974
-623.638
108.88
-425.602
136.62
71.1954
143.523
522.738
106.143
867.502
987.737
-3.8393
-8.18336
-3.7912
-11.8741
-3.77176
-14.2931
-3.76954
-16.7664
-3.7873
-19.1777
-3.82222
-21.5414
-3.8747
-23.8899
-3.94387
-26.2318
-4.02972
-28.5865
-4.13194
-30.9655
-4.25048
-33.3827
-4.38522
-35.8494
-4.53618
-38.3771
-4.70338
-40.9765
-4.88695
-43.6581
-5.08706
-46.4322
-5.30393
-49.3088
-5.53788
-52.2981
-5.78928
-55.4102
-6.05859
-58.6553
-6.34632
-62.0437
-6.65307
-65.5862
-6.9795
-69.2937
-7.32635
-73.1773
-7.69445
-77.2488
-8.08467
-81.5203
-8.498
-86.0043
-8.93548
-90.714
-9.39826
-95.6633
-9.88755
-100.866
-10.4047
-106.339
-10.951
-112.096
-11.528
-118.156
-12.1374
-124.535
-12.7807
-131.253
-13.4598
-138.329
-14.1765
-145.786
-14.933
-153.645
-15.7311
-161.931
-16.5733
-170.668
-17.4616
-179.885
-18.3985
-189.61
-19.3863
-199.875
-20.4276
-210.713
-21.5246
-222.159
-22.6798
-234.253
-23.8953
-247.035
-25.173
-260.551
-26.5142
-274.847
-27.9198
-289.975
-29.3895
-305.991
-30.9214
-322.955
-32.5119
-340.931
-34.1544
-359.989
-35.838
-380.203
-37.5467
-401.653
-39.2568
-424.421
-40.9341
-448.593
-42.5309
-474.255
-43.981
-501.487
-45.1943
-530.353
-46.0497
-560.888
-46.3872
-593.07
-45.9987
-626.789
-44.6198
-661.775
-41.918
-697.531
-37.4946
-733.191
-30.8572
-767.274
-21.4774
-797.739
-8.70857
-820.197
7.99335
-830.773
29.0566
-815.543
54.4383
-768.602
82.919
-652.119
114.848
-457.531
145.731
40.3125
155.762
512.706
139.592
883.672
1050.7
-3.99282
-8.2467
-3.9479
-11.9191
-3.93083
-14.3101
-3.93146
-16.7658
-3.95239
-19.1568
-3.99107
-21.5027
-4.04788
-23.8331
-4.12199
-26.1577
-4.21342
-28.4951
-4.32186
-30.8571
-4.44725
-33.2573
-4.58951
-35.7071
-4.74864
-38.218
-4.92469
-40.8004
-5.11778
-43.465
-5.3281
-46.2219
-5.55591
-49.081
-5.80153
-52.0525
-6.06536
-55.1464
-6.34788
-58.3727
-6.64963
-61.742
-6.97124
-65.2646
-7.31341
-68.9515
-7.6769
-72.8138
-8.06259
-76.8632
-8.4714
-81.1115
-8.90435
-85.5714
-9.36253
-90.2558
-9.84714
-95.1786
-10.3594
-100.354
-10.9008
-105.797
-11.4727
-111.524
-12.0767
-117.552
-12.7143
-123.897
-13.3875
-130.58
-14.098
-137.619
-14.8479
-145.036
-15.6391
-152.854
-16.4739
-161.096
-17.3545
-169.787
-18.2833
-178.956
-19.2628
-188.631
-20.2954
-198.842
-21.3836
-209.625
-22.5301
-221.013
-23.7371
-233.046
-25.007
-245.766
-26.3417
-259.216
-27.7428
-273.445
-29.211
-288.507
-30.7461
-304.456
-32.3465
-321.354
-34.0084
-339.269
-35.725
-358.272
-37.4857
-378.443
-39.2741
-399.864
-41.066
-422.629
-42.8268
-446.832
-44.508
-472.574
-46.042
-499.953
-47.3365
-529.059
-48.2675
-559.957
-48.6704
-592.667
-48.3309
-627.128
-46.9753
-663.13
-44.2586
-700.248
-39.7644
-737.685
-32.9751
-774.063
-23.3264
-807.387
-10.1131
-833.411
7.28425
-848.171
29.4306
-837.689
56.3512
-795.523
86.9725
-682.74
120.585
-491.144
155.58
5.31754
165.984
502.302
162.946
886.71
1116.3
-4.14465
-8.3074
-4.10298
-11.9607
-4.08847
-14.3246
-4.09212
-16.7621
-4.11639
-19.1325
-4.159
-21.4601
-4.22028
-23.7718
-4.2995
-26.0785
-4.39665
-28.3979
-4.51143
-30.7423
-4.64382
-33.1249
-4.79371
-35.5572
-4.96113
-38.0506
-5.14614
-40.6154
-5.34886
-43.2623
-5.56951
-46.0012
-5.80835
-48.8422
-6.06574
-51.7951
-6.34209
-54.87
-6.6379
-58.0769
-6.95376
-61.4261
-7.29032
-64.9281
-7.64831
-68.5935
-8.02854
-72.4336
-8.43191
-76.4598
-8.85939
-80.684
-9.31205
-85.1187
-9.79102
-89.7769
-10.2976
-94.6721
-10.833
-99.8187
-11.3987
-105.232
-11.9962
-110.927
-12.6272
-116.921
-13.2934
-123.231
-13.9965
-129.876
-14.7386
-136.877
-15.5216
-144.253
-16.3478
-152.028
-17.2193
-160.224
-18.1386
-168.868
-19.108
-177.987
-20.1302
-187.608
-21.2077
-197.765
-22.3432
-208.489
-23.5392
-219.817
-24.7984
-231.787
-26.123
-244.441
-27.515
-257.824
-28.9763
-271.984
-30.5075
-286.975