/*--------------------------------*- C++ -*----------------------------------*\
| =========                 |                                                 |
| \\      /  F ield         | OpenFOAM: The Open Source CFD Toolbox           |
|  \\    /   O peration     | Version:  4.1                                   |
|   \\  /    A nd           | Web:      www.OpenFOAM.org                      |
|    \\/     M anipulation  |                                                 |
\*---------------------------------------------------------------------------*/
FoamFile
{
    version     2.0;
    format      ascii;
    class       volScalarField;
    location    "18";
    object      p;
}
// * * * * * * * * * * * * * * * * * * * * * * * * * * * * * * * * * * * * * //

dimensions      [0 2 -2 0 0 0 0];

internalField   nonuniform List<scalar> 
6785
(
538.795
485.398
433.566
385.155
340.264
298.247
258.892
221.888
186.794
153.43
122.488
94.3488
65.3199
30.4011
1.24833
72.3622
50.1008
44.3419
40.6315
35.1573
29.4497
24.2966
19.9077
16.4236
13.9646
12.7732
13.2747
15.371
17.2425
17.5026
-30.4206
-37.0642
-31.2977
-27.151
-24.0606
-20.4656
-16.5795
-12.6425
-8.73841
-5.02288
-1.67771
1.38899
4.46539
7.11792
8.35187
15.7136
13.2949
17.887
18.211
18.2642
18.4791
18.3897
18.0122
17.4304
16.671
15.714
14.6043
13.6935
13.5406
13.8507
32.1495
29.8156
31.3685
29.27
27.8503
26.6061
25.1954
23.8128
22.5547
21.463
20.5614
19.8483
19.37
19.3365
19.5812
22.9373
20.9116
21.8826
20.6611
20.4553
20.4371
20.347
20.3779
20.5314
20.7729
21.0903
21.4517
21.7702
22.0263
22.2009
19.5
18.3391
19.4167
19.0875
19.4672
19.8556
20.1488
20.4941
20.8457
21.1661
21.4518
21.7024
21.878
21.9573
21.9718
21.2376
20.6712
21.5075
21.2639
21.4464
21.546
21.5574
21.5908
21.6049
21.5905
21.5584
21.5232
21.4839
21.4346
21.3838
21.6707
21.3314
21.8038
21.4951
21.5047
21.4475
21.3471
21.2766
21.2003
21.1212
21.0456
20.9785
20.9207
20.8671
20.8102
20.4962
20.2712
20.5455
20.3032
20.313
20.2721
20.2115
20.1756
20.134
20.0921
20.0514
20.0096
19.9663
19.9168
19.8487
19.4896
19.3378
19.5033
19.3237
19.3253
19.276
19.2123
19.1624
19.1028
19.0403
18.9765
18.9102
18.842
18.7715
18.6802
18.5645
18.503
18.5811
18.3787
18.3067
18.1983
18.0849
17.9789
17.8648
17.7499
17.6356
17.5218
17.414
17.3177
17.2061
19.6195
19.4843
19.28
18.8418
18.5241
18.1784
17.8221
17.4783
17.1446
16.8323
16.5435
16.2825
16.0556
15.8766
15.7127
17.0608
17.5408
17.8865
17.6532
17.2124
16.687
16.1896
15.7308
15.2908
14.8569
14.4309
14.0101
13.602
13.2256
12.8503
36.0347
35.5685
34.658
31.9866
28.1723
24.3056
20.702
17.4807
14.5481
12.0454
9.89469
8.09506
6.66552
5.6106
4.74108
28.2792
27.2409
28.2212
27.5627
27.0975
25.8132
26.55
25.2601
24.258
22.8465
23.2382
20.9185
18.0007
18.8958
16.5714
14.5525
13.5725
14.2906
10.7438
7.99836
9.84373
7.1734
4.88559
5.28531
6.98788
3.76556
1.59761
2.97259
5.63826
2.47328
1.3128
5.31707
3.90899
2.55907
4.38524
8.24056
6.47163
6.34149
10.7281
10.229
9.52565
11.1466
14.7708
14.1162
13.5745
14.9897
18.1382
17.6226
17.6379
20.2972
20.3475
20.1804
20.8163
22.6172
22.4352
22.2275
22.6616
24.4517
24.4959
24.4566
26.3052
26.5694
26.4227
26.2625
27.3288
27.4261
27.1276
27.2941
27.059
27.5986
27.9028
25.1595
24.3893
24.8237
22.1402
16.8616
19.1077
12.2648
-5.11778
1.34819
6.01303
6.68139
7.54942
2.29861
6.54918
10.4515
11.6787
12.2397
12.4178
13.2306
15.1773
16.7512
17.0978
12.7471
13.5999
15.6815
17.337
17.6017
17.8982
17.9914
18.3315
20.9092
18.593
18.8968
18.899
19.6772
21.0986
21.9215
21.973
21.6041
21.2027
25.1576
24.1767
24.0427
23.5281
23.2416
24.1465
25.125
24.3169
22.6745
24.7711
27.3084
27.9681
27.9069
26.9695
26.1116
25.2905
24.576
23.7891
28.9604
29.8867
28.0024
27.3647
26.7026
25.5261
23.6926
20.7906
18.5614
22.1625
26.3832
23.9664
22.3362
19.9196
16.6574
14.2326
12.5662
10.6545
9.77696
6.90986
12.1035
10.6074
10.7134
10.5781
9.00493
6.28796
5.59956
6.6253
1.29534
7.5095
6.22626
5.04163
7.36538
8.18949
9.51205
10.2522
11.4204
11.8992
12.2493
12.7778
12.6742
12.9464
13.2124
13.026
13.2577
13.1136
13.7195
13.5826
12.9224
12.9452
12.6164
13.4684
12.7733
11.1943
12.1054
11.2673
9.80738
9.55742
9.00437
10.6406
9.22132
7.22012
6.95691
6.53569
8.65999
7.26664
4.64235
6.73092
5.58911
3.67812
3.64442
3.45566
6.4101
4.67153
2.29582
2.26572
2.17005
5.36994
3.75825
0.723921
3.71277
2.54407
0.479882
0.645825
0.707019
4.47241
2.5182
-0.103145
0.0155524
0.125454
3.97918
2.1737
-1.20367
2.31405
1.03421
-1.2298
-1.00909
-0.853647
3.44034
1.27149
-1.57767
-1.44937
-1.29691
3.00071
0.94835
-2.78459
1.13469
-0.438482
-2.99889
-3.03504
-2.50765
-0.0235752
-0.021937
-0.0366981
-0.0368325
0.0369135
-0.0117539
-0.0891999
-0.173116
-0.225545
-0.170809
0.0612662
-0.0260567
-0.243153
-0.210399
-0.186049
-0.0802124
0.00315786
0.0346774
-0.0397712
-0.161996
0.668368
0.245503
0.0564532
-0.0791161
-0.0778224
-0.0811217
-0.0653577
0.284708
0.0708607
0.199179
0.0564216
-0.0242081
0.0653796
0.0434221
-0.0321495
-0.021021
0.0386126
0.102369
0.0628147
0.0536809
0.0637444
0.0755654
0.0741723
0.0604192
0.0417704
0.0392691
0.0502522
0.0697686
0.0653086
0.0626665
0.0516449
0.0293419
0.0433511
0.00265588
-0.0571283
-0.0302511
0.231924
0.653174
0.163901
0.121605
0.212941
0.660469
0.253006
0.0305434
0.169902
0.0288774
0.0110653
-0.0132723
0.0392704
0.0601615
0.0214498
-0.00123446
-0.044202
0.0726246
0.0470783
0.102872
0.0440273
0.0240309
-0.017292
-0.0218735
-0.0151538
-0.0386228
-0.0390458
0.0917157
0.0148628
-0.0940726
-0.19827
-0.248046
-0.171839
0.0267649
-0.0033668
-0.259259
-0.249413
-0.228977
-0.130275
-0.0419052
0.00444168
-0.00744267
-0.243785
0.703172
0.266503
-0.0970687
-0.271152
-0.220884
0.00618945
0.149107
0.555804
0.184595
0.40264
0.210096
0.0649633
0.0576437
0.0733376
-0.0102091
0.0257288
0.0829489
0.1646
0.0863083
0.101839
0.105484
0.113832
0.122524
0.109776
0.106916
0.0882137
0.105597
0.133145
0.127133
0.130928
0.119764
0.0762484
0.0943689
-0.00201094
0.170998
0.237029
0.462311
1.09942
0.341112
0.27685
0.441305
1.17305
0.434954
0.099901
0.37017
0.0352196
0.0490246
0.0157764
0.109917
0.139846
0.0615202
0.0561172
0.0220011
0.196737
0.164126
0.123171
0.0960025
0.0863125
-0.005093
-0.0168648
-0.014054
-0.0343104
-0.0309414
0.0872178
0.00837017
-0.0880163
-0.172343
-0.203793
-0.147699
-0.0197093
-0.0230608
-0.275125
-0.263191
-0.26287
-0.195808
-0.103862
-0.0343684
0.0409294
-0.109331
0.674828
0.194129
-0.29465
-0.474373
-0.383057
0.0874949
0.370435
0.721941
0.299843
0.580005
0.371647
0.174657
0.0573729
0.0535418
-0.0104404
0.0587073
0.0965591
0.16236
0.0965716
0.118918
0.126938
0.142848
0.15797
0.150556
0.153135
0.141079
0.159833
0.185516
0.187611
0.194399
0.186588
0.131925
0.1549
0.0126975
0.205726
0.261671
0.481179
1.1992
0.496336
0.405476
0.574418
1.25333
0.519013
0.172979
0.405464
0.0487097
0.0857576
0.0422001
0.141224
0.15147
0.0643582
0.110962
0.102194
0.265871
0.194845
0.0993959
0.135853
0.138025
0.0698844
-0.0113941
-0.010278
-0.0254802
-0.0165434
0.0810386
0.00949694
-0.0691388
-0.136259
-0.158742
-0.129055
-0.0444761
-0.0311783
-0.279579
-0.266591
-0.284831
-0.241891
-0.154965
-0.0589353
0.0730293
0.00995621
0.63863
0.111781
-0.485095
-0.687655
-0.554792
0.159844
0.579645
0.843742
0.420908
0.753042
0.569615
0.260073
0.0712398
0.0458504
0.00242381
0.0916013
0.112126
0.163093
0.125412
0.148994
0.157612
0.176429
0.194461
0.194076
0.201173
0.197664
0.214347
0.236716
0.245044
0.254468
0.248526
0.18383
0.204676
0.0280324
0.13959
0.171136
0.458158
1.229
0.617169
0.531028
0.676847
1.21886
0.589549
0.257781
0.431759
0.0801413
0.114762
0.0721127
0.176581
0.171305
0.0810127
0.169249
0.195755
0.374489
0.258217
0.115849
0.17255
0.189748
0.108204
-0.00654917
-0.00551099
-0.0174969
-0.00283384
0.0801946
0.0157258
-0.0484833
-0.109218
-0.135876
-0.126473
-0.0615898
-0.0242602
-0.268182
-0.267851
-0.30161
-0.281384
-0.197689
-0.0858134
0.070662
0.0449005
0.546556
0.0273669
-0.678898
-0.904846
-0.730941
0.217964
0.771195
0.945615
0.536922
0.908947
0.771287
0.326889
0.0770337
0.0557684
0.0219349
0.120502
0.127816
0.171185
0.158433
0.185052
0.189954
0.206976
0.226551
0.231985
0.244467
0.248372
0.263037
0.283496
0.297868
0.310639
0.305582
0.233473
0.251338
0.0479234
0.100317
0.126505
0.467915
1.25992
0.711316
0.652813
0.776176
1.19537
0.64608
0.353021
0.470037
0.121933
0.145924
0.106716
0.213207
0.199492
0.106429
0.217792
0.293516
0.492762
0.338435
0.157957
0.208534
0.227376
0.232829
-0.00277616
-0.00272542
-0.0114912
0.0068203
0.0775899
0.0184859
-0.0350342
-0.0937713
-0.127688
-0.133678
-0.0772957
-0.0141692
-0.253961
-0.273082
-0.320574
-0.319914
-0.237775
-0.121881
0.0453444
0.0233123
0.394645
-0.0753343
-0.86711
-1.12806
-0.910686
0.253925
0.942305
1.03371
0.64103
1.03805
0.949986
0.382893
0.0784368
0.0766122
0.047045
0.145218
0.141891
0.178179
0.183947
0.215495
0.218298
0.232045
0.253325
0.264561
0.283106
0.293847
0.306693
0.326254
0.346961
0.363166
0.358507
0.280767
0.294525
0.0714984
0.103955
0.147185
0.503213
1.27634
0.782992
0.762199
0.860654
1.18557
0.68755
0.4426
0.507847
0.168961
0.182109
0.145052
0.248418
0.228537
0.137703
0.261779
0.382175
0.583617
0.403951
0.207981
0.248077
0.272633
0.257271
0.000290263
-0.000996573
-0.00559958
0.0139504
0.073483
0.0175837
-0.0272238
-0.0829983
-0.122175
-0.141688
-0.0921754
-0.00421175
-0.243993
-0.283124
-0.340496
-0.356822
-0.274042
-0.157739
0.0210544
-0.0139063
0.213159
-0.193813
-1.04625
-1.35235
-1.08695
0.262805
1.09487
1.11362
0.733503
1.13753
1.09391
0.433432
0.0821235
0.107434
0.0707248
0.162696
0.1547
0.182803
0.200183
0.238367
0.241672
0.25257
0.276024
0.293219
0.317904
0.334256
0.344961
0.364549
0.39183
0.411397
0.406923
0.325523
0.33543
0.0991132
0.123566
0.194606
0.550241
1.27259
0.841
0.856234
0.92112
1.17675
0.719093
0.517488
0.541267
0.218801
0.224632
0.188294
0.284907
0.25751
0.172102
0.305332
0.454624
0.639183
0.448576
0.259474
0.296793
0.329245
0.325408
0.00268913
0.000195297
-0.000420445
0.0186181
0.0683849
0.0149494
-0.0224502
-0.0730472
-0.115738
-0.148226
-0.107781
0.00421628
-0.238205
-0.297396
-0.360997
-0.391197
-0.308912
-0.190519
0.00917005
-0.0484629
0.0212455
-0.331819
-1.21895
-1.57842
-1.25939
0.235347
1.22316
1.18898
0.814285
1.21111
1.2057
0.484225
0.0889894
0.142032
0.0911112
0.176388
0.16829
0.190689
0.214811
0.258346
0.262859
0.272579
0.298044
0.319992
0.350719
0.371275
0.379728
0.40013
0.433818
0.456314
0.451679
0.368178
0.374405
0.129417
0.143583
0.244282
0.602401
1.25411
0.889642
0.933107
0.962036
1.16853
0.747069
0.580573
0.5697
0.269725
0.272176
0.237917
0.325159
0.291709
0.213356
0.354326
0.516516
0.674078
0.482635
0.304452
0.344222
0.365602
0.448412
0.0042659
0.00108911
0.00407962
0.0218329
0.0638426
0.0132293
-0.0174388
-0.061223
-0.106009
-0.150889
-0.122236
0.0104595
-0.236198
-0.312728
-0.379927
-0.421734
-0.339412
-0.216304
0.012767
-0.0719584
-0.166167
-0.478876
-1.3775
-1.8
-1.42297
0.166311
1.31314
1.2521
0.885353
1.26347
1.29149
0.541119
0.104757
0.171254
0.108461
0.187807
0.181032
0.201308
0.230084
0.277592
0.282683
0.293055
0.319549
0.344506
0.381427
0.405105
0.411494
0.433197
0.472507
0.497265
0.492267
0.408387
0.411866
0.162021
0.163142
0.291197
0.655879
1.23553
0.934544
0.990817
0.988253
1.15936
0.770464
0.632966
0.594478
0.318688
0.322816
0.293011
0.369065
0.331917
0.26071
0.408676
0.572705
0.700948
0.514736
0.343938
0.390431
0.41953
0.475184
0.0048976
0.00146389
0.00707643
0.0230192
0.0590823
0.0117169
-0.0129396
-0.0493882
-0.0950374
-0.151013
-0.135165
0.0106641
-0.235685
-0.327891
-0.399461
-0.450428
-0.367943
-0.237737
0.0255406
-0.0862022
-0.348799
-0.634045
-1.5279
-2.02051
-1.59048
0.0630442
1.35437
1.30041
0.947206
1.30363
1.35938
0.605241
0.129848
0.195835
0.128219
0.200776
0.193849
0.214035
0.246885
0.297536
0.304283
0.31639
0.341489
0.368082
0.41105
0.437241
0.442068
0.465315
0.509053
0.535058
0.529427
0.446836
0.447964
0.196288
0.185175
0.337408
0.707799
1.22712
0.978344
1.02916
1.00351
1.15105
0.789774
0.676527
0.616849
0.363649
0.374878
0.351941
0.416698
0.377955
0.315933
0.468717
0.627603
0.725409
0.543109
0.379984
0.42809
0.478338
0.527435
0.00479836
0.00172827
0.00914345
0.0230816
0.0540927
0.011142
-0.00797774
-0.0377126
-0.0831369
-0.147815
-0.145448
0.00499133
-0.237235
-0.34252
-0.419046
-0.475369
-0.39408
-0.252082
0.04523
-0.0914553
-0.51962
-0.794949
-1.6785
-2.22882
-1.76646
-0.070067
1.349
1.34935
1.00402
1.33938
1.41681
0.674428
0.164302
0.218329
0.151311
0.214198
0.204414
0.22569
0.262653
0.315907
0.326218
0.339658
0.362483
0.391041
0.439167
0.467587
0.471547
0.49625
0.542931
0.569056
0.562641
0.483257
0.483234
0.232809
0.21118
0.383712
0.756844
1.23564
1.02865
1.05025
1.00941
1.14045
0.802544
0.711389
0.636978
0.402936
0.425528
0.411035
0.466288
0.428318
0.374444
0.530494
0.68105
0.749478
0.568594
0.413254
0.464962
0.532008
0.632345
0.00427231
0.00150772
0.00991725
0.0221204
0.0482513
0.010669
-0.00351023
-0.0278555
-0.0726011
-0.14294
-0.154653
-0.00516556
-0.240868
-0.358342
-0.438913
-0.496443
-0.421764
-0.261578
0.068672
-0.0924356
-0.679385
-0.969334
-1.83462
-2.42331
-1.9532
-0.233725
1.29969
1.39798
1.05964
1.37328
1.46789
0.743692
0.203941
0.241601
0.174133
0.227524
0.21427
0.236914
0.278493
0.332591
0.348525
0.362259
0.383583
0.414832
0.466622
0.496851
0.500626
0.526477
0.574606
0.599902
0.592787
0.518424
0.518305
0.271475
0.241936
0.430559
0.802203
1.27014
1.08551
1.05586
1.00769
1.12481
0.810779
0.739841
0.653404
0.436973
0.471558
0.468073
0.516585
0.482751
0.437161
0.592257
0.732659
0.773693
0.589477
0.442727
0.494949
0.584842
0.699648
0.00364706
0.00146416
0.0105029
0.0214623
0.0430482
0.0113173
0.00143209
-0.0186186
-0.0630057
-0.135699
-0.16192
-0.0168941
-0.244214
-0.374154
-0.456317
-0.511521
-0.445461
-0.264365
0.0952521
-0.0896665
-0.822796
-1.14642
-1.99193
-2.59817
-2.13992
-0.412753
1.22306
1.44457
1.11868
1.40541
1.5098
0.811098
0.24603
0.262413
0.195305
0.239344
0.222916
0.246146
0.292322
0.345598
0.368732
0.382255
0.404372
0.43889
0.492942
0.524524
0.528744
0.555265
0.603153
0.62696
0.619691
0.551918
0.553407
0.312373
0.278007
0.477904
0.842447
1.33029
1.14245
1.04494
0.999663
1.10056
0.813565
0.762701
0.66577
0.465362
0.51081
0.520359
0.566599
0.536492
0.498459
0.649915
0.779964
0.797379
0.609086
0.470922
0.525451
0.627618
0.845377
0.00350791
0.00155936
0.0106647
0.0209888
0.0387642
0.0125083
0.00562538
-0.0108537
-0.0553917
-0.127637
-0.166983
-0.0290817
-0.245866
-0.388674
-0.472601
-0.523526
-0.464416
-0.26452
0.122677
-0.0855047
-0.952445
-1.32022
-2.14485
-2.75716
-2.32395
-0.596742
1.13317
1.48217
1.17734
1.43135
1.54286
0.872266
0.288275
0.280504
0.214528
0.248789
0.231995
0.255156
0.304744
0.355858
0.38657
0.401933
0.425849
0.46377
0.518681
0.550737
0.555699
0.582513
0.628864
0.65095
0.644543
0.584574
0.588579
0.354503
0.320755
0.526392
0.875556
1.39404
1.18721
1.02782
0.987564
1.07099
0.812995
0.781402
0.675439
0.487593
0.541731
0.566655
0.613072
0.587789
0.55495
0.699461
0.822246
0.819462
0.626505
0.495893
0.550449
0.674555
0.898275
0.00365335
0.00211357
0.0112101
0.0214848
0.0364319
0.0154988
0.00938824
-0.00336372
-0.0486421
-0.11829
-0.168225
-0.0403943
-0.245252
-0.400428
-0.485865
-0.532025
-0.47902
-0.260621
0.151217
-0.0787675
-1.06439
-1.47981
-2.28427
-2.89496
-2.49428
-0.772016
1.04403
1.50997
1.22992
1.4479
1.56525
0.925317
0.330233
0.295549
0.232156
0.256538
0.24115
0.2637
0.315124
0.364009
0.4007
0.421153
0.446927
0.488193
0.543038
0.574944
0.580734
0.607323
0.651014
0.671502
0.667096
0.615951
0.623756
0.398473
0.370384
0.575997
0.90004
1.43545
1.21178
1.01359
0.973666
1.03563
0.808781
0.795807
0.684673
0.505297
0.564231
0.605961
0.652416
0.631951
0.602992
0.736063
0.857531
0.840502
0.644867
0.52304
0.579094
0.731933
0.994532
0.00203596
0.00263212
0.0117738
0.0224693
0.0356754
0.0191127
0.0118388
0.00306668
-0.0430084
-0.108026
-0.16632
-0.0506619
-0.243347
-0.408749
-0.498067
-0.538332
-0.492408
-0.254829
0.180873
-0.07095
-1.16016
-1.62473
-2.4082
-3.01422
-2.64812
-0.935018
0.955788
1.52458
1.271
1.45135
1.57065
0.967428
0.371157
0.308405
0.248616
0.262647
0.25007
0.273713
0.325082
0.372567
0.412499
0.44005
0.467498
0.511922
0.566069
0.597064
0.603365
0.629264
0.669802
0.689516
0.688491
0.647394
0.659649
0.445335
0.427128
0.626907
0.916841
1.4486
1.21931
1.00703
0.959735
0.995253
0.801318
0.805955
0.693678
0.519015
0.578318
0.63761
0.682705
0.665132
0.642821
0.761025
0.883457
0.858256
0.663383
0.54923
0.604796
0.76856
1.14556
0.000543365
0.00338
0.0129279
0.024468
0.0365284
0.0220473
0.0150265
0.00993973
-0.0373171
-0.09511
-0.161862
-0.0601628
-0.24012
-0.415041
-0.509489
-0.541296
-0.503133
-0.248529
0.210688
-0.0617596
-1.2362
-1.74996
-2.51336
-3.11107
-2.77616
-1.07953
0.86209
1.52807
1.29737
1.44056
1.55603
0.998203
0.409248
0.319267
0.262994
0.268247
0.257125
0.28322
0.334024
0.380447
0.422382
0.456387
0.486537
0.533566
0.586823
0.616649
0.623126
0.647817
0.685006
0.704976
0.708413
0.678424
0.696062
0.496035
0.48999
0.678997
0.927384
1.43701
1.21806
1.00414
0.945498
0.950088
0.78906
0.811034
0.703162
0.531419
0.587466
0.660917
0.704173
0.685547
0.671516
0.777335
0.899916
0.869854
0.687818
0.577371
0.636085
0.823061
1.21644
0.00026311
0.00381462
0.0141914
0.0269108
0.0383599
0.0246898
0.019878
0.0165561
-0.032376
-0.0815465
-0.159754
-0.0717615
-0.23645
-0.419698
-0.518987
-0.543423
-0.510406
-0.243434
0.236885
-0.0534399
-1.29409
-1.85686
-2.60004
-3.19008
-2.87711
-1.2093
0.748305
1.51267
1.30164
1.41449
1.52103
1.01525
0.441339
0.329084
0.276415
0.273688
0.26178
0.292285
0.343609
0.387957
0.431716
0.469996
0.504502
0.55301
0.604945
0.633106
0.639276
0.662651
0.69733
0.71896
0.728122
0.710378
0.733376
0.550658
0.558809
0.732521
0.935368
1.41075
1.21488
1.00299
0.930621
0.904526
0.773092
0.810813
0.711711
0.542107
0.593942
0.676475
0.718628
0.695871
0.690027
0.785026
0.906807
0.875782
0.713141
0.604304
0.664747
0.882714
1.32066
0.000611675
0.0043969
0.0159691
0.0303206
0.0419301
0.02981
0.028081
0.0225722
-0.0271831
-0.0703078
-0.160608
-0.0860738
-0.231591
-0.421156
-0.524437
-0.544239
-0.513216
-0.239505
0.257277
-0.0463678
-1.33197
-1.94169
-2.66639
-3.24962
-2.94599
-1.32494
0.62334
1.47284
1.28216
1.37307
1.46754
1.01539
0.465134
0.339316
0.289457
0.279202
0.265711
0.300715
0.35289
0.394744
0.439874
0.480664
0.520698
0.569565
0.619899
0.646131
0.651727
0.674047
0.707289
0.731579
0.747114
0.742362
0.770965
0.608068
0.629495
0.787561
0.942402
1.37744
1.21227
1.00007
0.915035
0.860948
0.753531
0.805363
0.719715
0.552533
0.600914
0.686676
0.728806
0.699592
0.701163
0.786463
0.902482
0.875781
0.736938
0.632433
0.696569
0.943152
1.48453
0.00151054
0.00491713
0.0177735
0.0342454
0.0465994
0.0369865
0.0380726
0.0267386
-0.0221275
-0.0624521
-0.166018
-0.104216
-0.22623
-0.418784
-0.526322
-0.546397
-0.511842
-0.23751
0.269162
-0.0425187
-1.35127
-2.00504
-2.70653
-3.29171
-2.99269
-1.43363
0.484377
1.40927
1.24197
1.31443
1.39749
0.997688
0.481193
0.350259
0.303707
0.286334
0.270879
0.3102
0.363035
0.402516
0.44729
0.489096
0.534155
0.583001
0.631703
0.655202
0.66011
0.682487
0.715805
0.74371
0.766508
0.775902
0.810257
0.668565
0.700626
0.84447
0.952103
1.34398
1.21001
0.997324
0.901467
0.823079
0.732118
0.794918
0.72485
0.561147
0.608524
0.692874
0.734473
0.699642
0.707312
0.785405
0.888203
0.865677
0.75189
0.656959
0.722308
1.00658
1.62392
0.00219031
0.00579803
0.0201382
0.0390287
0.0523707
0.0455765
0.0488567
0.0301401
-0.0162691
-0.0596649
-0.175255
-0.123897
-0.22034
-0.412736
-0.522877
-0.544277
-0.50587
-0.235167
0.27074
-0.0421552
-1.35012
-2.04321
-2.72494
-3.31603
-3.02187
-1.53391
0.340674
1.32292
1.18865
1.24641
1.31837
0.969301
0.493787
0.361767
0.319697
0.294115
0.278222
0.319791
0.37291
0.410591
0.454011
0.496169
0.544177
0.592859
0.640412
0.660545
0.665412
0.689136
0.723173
0.755129
0.78566
0.809822
0.850568
0.731641
0.770522
0.903769
0.963766
1.31099
1.20541
0.99481
0.890303
0.791802
0.710336
0.779961
0.72663
0.570412
0.618127
0.69642
0.735923
0.699327
0.709569
0.78301
0.871759
0.848447
0.757643
0.677198
0.748344
1.06915
1.83926
0.00231892
0.0067695
0.0227499
0.0439503
0.0581994
0.0536928
0.0576323
0.032434
-0.00906816
-0.0641132
-0.188913
-0.144932
-0.215213
-0.404612
-0.513747
-0.535383
-0.497391
-0.232762
0.259606
-0.0463544
-1.33051
-2.0593
-2.72606
-3.32277
-3.03989
-1.62833
0.188438
1.216
1.12058
1.1723
1.23496
0.936046
0.50329
0.374262
0.337187
0.30214
0.288357
0.32985
0.382559
0.419206
0.460695
0.502865
0.551028
0.599625
0.645738
0.661922
0.667578
0.693802
0.729498
0.766426
0.805911
0.845604
0.893428
0.798615
0.840328
0.965815
0.980442
1.27776
1.20025
0.993924
0.882658
0.769336
0.690467
0.761341
0.723285
0.579008
0.628178
0.697789
0.733866
0.699975
0.709688
0.776448
0.856144
0.82718
0.752161
0.690525
0.769043
1.14041
1.99167
0.00233472
0.00826984
0.0260752
0.0493836
0.0645142
0.0614675
0.0636724
0.0337285
-0.00230482
-0.0758774
-0.202835
-0.164229
-0.210068
-0.395496
-0.498981
-0.52038
-0.486148
-0.232022
0.23451
-0.0542751
-1.2936
-2.05496
-2.71353
-3.31231
-3.04505
-1.71245
0.0376278
1.09115
1.04201
1.09341
1.15286
0.901729
0.509217
0.387707
0.351366
0.30795
0.300648
0.340919
0.391153
0.427028
0.466527
0.508576
0.555694
0.604471
0.64789
0.660198
0.667472
0.697013
0.735135
0.777587
0.826648
0.88171
0.937185
0.867294
0.907891
1.03079
1.00005
1.24036
1.19354
0.990289
0.876518
0.755177
0.673887
0.741226
0.716509
0.587303
0.63993
0.699378
0.72989
0.701343
0.710233
0.767469
0.838349
0.803487
0.739864
0.701044
0.792971
1.22831
2.19353
0.0024918
0.0100796
0.0297959
0.054865
0.0706985
0.0681188
0.0667657
0.0333001
0.000518435
-0.093984
-0.216613
-0.182205
-0.206434
-0.387616
-0.483585
-0.503843
-0.474408
-0.236093
0.194209
-0.0654889
-1.24087
-2.03328
-2.68799
-3.28571
-3.03892
-1.78723
-0.111266
0.951325
0.95405
1.00913
1.07115
0.864997
0.510638
0.400488
0.362451
0.313748
0.313325
0.354002
0.400545
0.435157
0.472114
0.513197
0.55953
0.607463
0.64651
0.655288
0.665248
0.698881
0.740493
0.789496
0.849139
0.920011
0.983439
0.937396
0.974838
1.09859
1.02673
1.20248
1.18242
0.984003
0.873143
0.749917
0.661901
0.722031
0.7069
0.593214
0.650263
0.701563
0.723832
0.700754
0.709167
0.754577
0.81422
0.775909
0.720269
0.706455
0.813204
1.30659
2.46283
0.0030858
0.0124345
0.0342389
0.060922
0.0773294
0.0745382
0.0690242
0.0321301
-0.00199318
-0.114488
-0.229309
-0.197874
-0.205087
-0.37833
-0.469378
-0.487663
-0.460084
-0.24617
0.140657
-0.0782232
-1.1723
-1.99334
-2.64767
-3.24389
-3.01918
-1.84931
-0.252871
0.80224
0.858814
0.922157
0.991601
0.826082
0.50848
0.411383
0.372358
0.321668
0.32558
0.368782
0.410842
0.443148
0.476343
0.51655
0.562758
0.608384
0.642148
0.649017
0.662401
0.700304
0.745951
0.802136
0.872681
0.959076
1.03053
1.00511
1.04063
1.16913
1.05731
1.16445
1.16929
0.976444
0.872611
0.751129
0.655048
0.706053
0.69738
0.59853
0.657341
0.70696
0.717705
0.698762
0.704315
0.73973
0.785004
0.74513
0.696845
0.707818
0.837136
1.40996
2.68155
0.00394919
0.0149347
0.0389624
0.0669882
0.0835771
0.0798975
0.070217
0.0309902
-0.00896261
-0.13749
-0.243864
-0.214598
-0.207083
-0.365219
-0.457444
-0.472007
-0.445741
-0.263199
0.0746956
-0.0915121
-1.08754
-1.93391
-2.59001
-3.18653
-2.9864
-1.9003
-0.389599
0.645282
0.75466
0.829904
0.910476
0.784053
0.503907
0.421327
0.383543
0.332379
0.338236
0.385025
0.422707
0.451972
0.4805
0.519682
0.56527
0.608098
0.636223
0.642317
0.659059
0.701413
0.751892
0.816237
0.898685
1.00075
1.08088
1.07241
1.10749
1.24166
1.09683
1.13035
1.16016
0.972666
0.878387
0.758064
0.653956
0.69343
0.687546
0.602892
0.658821
0.713661
0.710634
0.692566
0.692918
0.720626
0.749787
0.709552
0.667934
0.703139
0.858575
1.52937
2.95455
0.00512062
0.0178213
0.0441735
0.0734292
0.0898972
0.0848548
0.0713196
0.0310035
-0.019537
-0.160744
-0.259312
-0.232427
-0.209672
-0.347761
-0.443563
-0.45351
-0.43315
-0.286234
-0.000562725
-0.103756
-0.986851
-1.85228
-2.51316
-3.11389
-2.93941
-1.93991
-0.517585
0.486291
0.642862
0.73302
0.828939
0.740686
0.497504
0.431399
0.395762
0.345227
0.352766
0.400443
0.435402
0.460751
0.484643
0.522703
0.567293
0.607707
0.630367
0.636124
0.656135
0.703017
0.758537
0.831654
0.926266
1.04305
1.13233
1.13854
1.17531
1.31557
1.14084
1.09768
1.15645
0.974798
0.887094
0.767069
0.659097
0.684129
0.678821
0.609986
0.657752
0.721607
0.70412
0.682611
0.677973
0.696526
0.710278
0.671082
0.635871
0.694642
0.88466
1.66356
3.30317
0.00648808
0.020927
0.0495405
0.0795526
0.0953105
0.0884059
0.0717161
0.0320033
-0.0318946
-0.184107
-0.276636
-0.252323
-0.213861
-0.334501
-0.429578
-0.433998
-0.425492
-0.315839
-0.0844838
-0.113771
-0.870112
-1.7452
-2.41447
-3.02531
-2.87948
-1.97121
-0.639093
0.324964
0.52314
0.629948
0.744294
0.694994
0.489703
0.441752
0.41096
0.361905
0.370392
0.416131
0.450219
0.471301
0.490637
0.526831
0.569613
0.607483
0.625154
0.630647
0.653854
0.705557
0.766342
0.849187
0.956583
1.08785
1.18626
1.2075
1.25004
1.38905
1.19522
1.07208
1.15558
0.982163
0.8979
0.77667
0.671516
0.67851
0.670226
0.617766
0.656237
0.72911
0.697344
0.667517
0.659568
0.66536
0.666151
0.627983
0.598412
0.680603
0.909552
1.81442
3.66335
0.008158
0.0245292
0.055269
0.0855896
0.100139
0.0908097
0.0716631
0.0344545
-0.0444135
-0.205745
-0.293677
-0.270914
-0.222622
-0.330124
-0.413959
-0.413331
-0.421575
-0.350646
-0.17442
-0.119879
-0.739389
-1.61154
-2.29374
-2.92052
-2.80786
-1.99232
-0.750456
0.16593
0.397754
0.522671
0.658539
0.648031
0.481775
0.451909
0.427098
0.380613
0.39015
0.43284
0.466479
0.483249
0.49789
0.531811
0.57214
0.60723
0.620962
0.626494
0.653047
0.709564
0.775571
0.868648
0.988489
1.13342
1.23931
1.27691
1.33106
1.46041
1.25351
1.05188
1.15246
0.98932
0.905878
0.783709
0.690386
0.676252
0.662974
0.627227
0.656847
0.736694
0.693074
0.650175
0.636746
0.628993
0.619731
0.582188
0.558149
0.662851
0.939331
1.97886
4.10313
0.0100443
0.0283955
0.0609437
0.09075
0.103285
0.0910919
0.0715642
0.0360381
-0.0592106
-0.226144
-0.310808
-0.288739
-0.236412
-0.329283
-0.398734
-0.394705
-0.423874
-0.391941
-0.269072
-0.120892
-0.595246
-1.4496
-2.14887
-2.79732
-2.72472
-2.00265
-0.853147
0.00863529
0.266497
0.410998
0.570043
0.598507
0.473796
0.462804
0.443985
0.403199
0.413924
0.452698
0.485218
0.497665
0.507867
0.539394
0.576208
0.607608
0.618272
0.62427
0.654299
0.715065
0.786587
0.890651
1.02298
1.18076
1.29345
1.34821
1.41706
1.52686
1.32176
1.04737
1.1452
0.993641
0.910199
0.787413
0.713887
0.677657
0.656392
0.635077
0.661648
0.741382
0.688594
0.628537
0.604789
0.584318
0.566384
0.530584
0.512148
0.638426
0.966823
2.16095
4.52424
0.0122666
0.0326499
0.0664982
0.0951839
0.105119
0.0901575
0.0721925
0.0347231
-0.0753848
-0.243934
-0.326237
-0.304226
-0.248796
-0.321672
-0.379094
-0.376249
-0.430716
-0.437523
-0.364468
-0.11532
-0.440436
-1.26243
-1.98288
-2.65555
-2.62911
-2.00141
-0.94396
-0.141592
0.131836
0.298393
0.481373
0.547073
0.465139
0.473771
0.459846
0.427886
0.440822
0.475353
0.50499
0.512525
0.519028
0.548621
0.582044
0.608697
0.617415
0.624571
0.658012
0.722244
0.799471
0.91454
1.05858
1.22713
1.34598
1.41764
1.50143
1.58782
1.39156
1.0575
1.1369
0.994087
0.905209
0.787113
0.737991
0.682713
0.655028
0.641999
0.668423
0.743109
0.686376
0.60611
0.567033
0.533905
0.506026
0.473097
0.464166
0.608348
0.995488
2.36497
4.99083
0.0145095
0.0368394
0.0714208
0.0981434
0.104929
0.0885656
0.0724314
0.0297157
-0.0921608
-0.259892
-0.341338
-0.319831
-0.257557
-0.308798
-0.356009
-0.359623
-0.444353
-0.487674
-0.458609
-0.101344
-0.274205
-1.05076
-1.79791
-2.49221
-2.51973
-1.98812
-1.02435
-0.28492
-0.0051942
0.187044
0.391178
0.493514
0.45632
0.484762
0.476236
0.455672
0.471928
0.502815
0.528056
0.52962
0.533595
0.560969
0.59137
0.611947
0.619398
0.628603
0.664925
0.731672
0.81473
0.940418
1.09559
1.27297
1.39794
1.48732
1.58202
1.64291
1.46953
1.09379
1.13512
0.993798
0.897288
0.785905
0.761296
0.692259
0.65838
0.647884
0.676386
0.742149
0.685074
0.582083
0.522913
0.474559
0.434483
0.404278
0.408987
0.569968
1.01675
2.56433
5.50886
0.0164819
0.0405482
0.075205
0.0993787
0.103233
0.0873678
0.0733389
0.0227673
-0.107677
-0.273552
-0.35588
-0.332458
-0.262978
-0.292328
-0.328568
-0.343334
-0.46175
-0.539483
-0.548731
-0.0757066
-0.0970693
-0.825686
-1.59729
-2.30953
-2.3983
-1.96297
-1.09101
-0.417105
-0.138037
0.0809138
0.302722
0.442092
0.448134
0.495152
0.493473
0.485287
0.505082
0.534149
0.553188
0.548496
0.550815
0.57499
0.602648
0.617339
0.62421
0.63713
0.675827
0.743587
0.832083
0.96737
1.13215
1.31619
1.44669
1.55233
1.65058
1.69436
1.54609
1.14659
1.1464
0.994937
0.888942
0.784545
0.782673
0.704568
0.666241
0.654389
0.68326
0.741003
0.687194
0.561308
0.476975
0.408351
0.353888
0.326338
0.346852
0.526412
1.03624
2.7769
5.97787
0.0181482
0.043568
0.0771974
0.0978334
0.100413
0.0871017
0.0741743
0.0137935
-0.122801
-0.287319
-0.372459
-0.344662
-0.268939
-0.274671
-0.300937
-0.330301
-0.484343
-0.592074
-0.632676
-0.0350417
0.0925386
-0.587256
-1.37883
-2.10832
-2.26784
-1.9264
-1.14506
-0.53736
-0.260745
-0.0196831
0.220192
0.395474
0.441209
0.504774
0.512409
0.517987
0.541016
0.570659
0.582309
0.572197
0.573364
0.593239
0.617566
0.626945
0.633394
0.651143
0.691733
0.75876
0.851366
0.995047
1.16829
1.35739
1.49418
1.61423
1.70735
1.74449
1.62937
1.21247
1.16645
1.00126
0.887352
0.791042
0.806509
0.722032
0.674205
0.660321
0.687052
0.738011
0.687241
0.540544
0.427024
0.331926
0.259643
0.233974
0.269599
0.473466
1.04547
2.98554
6.45334
0.0197442
0.0461485
0.0775177
0.0942213
0.098199
0.0884776
0.0734073
0.00371602
-0.137248
-0.302185
-0.391099
-0.357457
-0.27094
-0.255838
-0.271972
-0.319964
-0.508891
-0.641295
-0.706732
0.0232032
0.293323
-0.334572
-1.14967
-1.89232
-2.13616
-1.87938
-1.18549
-0.640363
-0.367118
-0.114445
0.150017
0.355742
0.434887
0.512838
0.531271
0.551843
0.578936
0.610264
0.613999
0.599481
0.599418
0.614196
0.634879
0.640065
0.647223
0.670498
0.712383
0.776933
0.872118
1.02247
1.20236
1.3952
1.53867
1.67144
1.75118
1.79713
1.71059
1.27497
1.18425
1.01777
0.892164
0.809579
0.834255
0.741955
0.681489
0.66789
0.687991
0.734438
0.687921
0.525086
0.376853
0.251532
0.155901
0.131198
0.179623
0.410901
1.04902
3.19092
6.93353
0.0215746
0.0484658