/*--------------------------------*- C++ -*----------------------------------*\
| =========                 |                                                 |
| \\      /  F ield         | OpenFOAM: The Open Source CFD Toolbox           |
|  \\    /   O peration     | Version:  4.1                                   |
|   \\  /    A nd           | Web:      www.OpenFOAM.org                      |
|    \\/     M anipulation  |                                                 |
\*---------------------------------------------------------------------------*/
FoamFile
{
    version     2.0;
    format      ascii;
    class       surfaceScalarField;
    location    "18";
    object      phi;
}
// * * * * * * * * * * * * * * * * * * * * * * * * * * * * * * * * * * * * * //

dimensions      [0 3 -1 0 0 0 0];

internalField   nonuniform List<scalar> 
13220
(
-949.874
2249.77
-1573.95
1924.27
-2053.99
1779.94
-2424.22
1670.12
-2699.84
1575.82
-2888.35
1488.41
-2993.02
1404.57
-3013.82
1320.99
-2949.57
1235.65
-2797.19
1147.51
-2551.12
1054.13
-2192.96
941.734
-1687.13
794.063
-1012.64
625.701
287.259
373.359
1876.41
442.759
1854.86
437.321
1785.38
406.715
1700.72
380.602
1601.93
359.919
1509.08
345.317
1419.17
337.557
1328.74
333.503
1239.69
326.972
1154.02
309.64
1071.45
267.48
983.85
191.419
870.083
111.42
705.663
398.681
33.6426
1842.76
-97.3703
1985.84
-253.582
1941.58
-371.095
1818.21
-473.129
1703.97
-567.479
1603.42
-651.681
1503.38
-725.726
1402.78
-787.986
1301.97
-837.184
1203.27
-868.119
1102.4
-855.94
971.815
-740.234
754.529
-434.238
399.832
-35.5571
28.9475
1813.83
-100.481
2115.28
-225.336
2066.48
-304.249
1897.13
-367.859
1767.62
-416.631
1652.2
-445.843
1532.65
-456.606
1413.56
-451.391
1296.8
-429.683
1181.56
-386.723
1059.48
-311.504
896.509
-192.708
635.634
-48.4064
255.43
-83.963
169.979
1643.89
146.592
2138.68
124.214
2088.9
123.37
1897.99
127.524
1763.52
136.401
1643.32
149.738
1519.34
167.182
1396.08
187.51
1276.46
208.637
1160.4
229.422
1038.53
244.208
881.906
233.325
646.574
155.475
333.325
71.5055
223.976
1419.99
245.415
2117.29
236.086
2098.35
237.379
1896.73
241.857
1759.12
245.83
1639.33
248.145
1517.05
246.837
1397.32
242.751
1280.48
235.472
1167.49
222.949
1051.03
200.196
904.035
156.584
689.458
78.2742
410.943
149.782
205.414
1214.65
241.402
2081.28
216.627
2123.15
194.182
1919.11
179.98
1773.31
166.462
1652.74
152.621
1530.81
138.26
1411.53
123.165
1295.42
108.785
1181.8
94.0806
1065.36
77.1397
921.475
53.1349
713.796
19.6532
444.709
169.424
176.463
1038.23
229.273
2028.39
206.952
2145.57
177.37
1948.57
158.97
1791.66
144.471
1667.03
129.451
1545.66
115.017
1425.71
101.803
1308.41
88.904
1194.27
77.2021
1077.02
62.8977
934.52
42.7409
732.575
16.4218
469.777
185.852
155.131
883.129
225.53
1957.84
212.949
2158.15
184.599
1976.76
166.46
1809.88
153.137
1680.19
140.238
1558.56
126.208
1439.54
112.766
1321.74
99.891
1207.14
85.8459
1090.7
71.07
950.24
50.3934
754.011
22.4803
498.355
208.317
134.137
749.002
215.944
1875.77
213.162
2161.13
184.55
2005.14
165.58
1828.98
150.99
1694.53
137.356
1572.27
123.493
1453.14
109.292
1335.85
95.2312
1220.66
82.0375
1103.96
64.9298
965.557
43.3269
773.751
17.471
522.51
225.792
113.551
635.576
201.876
1786.97
209.786
2153.32
182.696
2031.7
163.218
1848.42
149.759
1707.35
136.183
1585.64
121.749
1466.84
107.527
1349.63
92.4676
1235.27
76.7885
1118.62
61.7459
981.589
41.7719
794.173
18.064
546.584
243.828
103.742
532.401
195.759
1694.41
214.034
2135.7
186.835
2058.26
160.151
1875.29
140.955
1725.71
125.928
1600.36
110.809
1481.14
97.3305
1362.59
84.4664
1246.95
72.6118
1130.4
56.4595
994.499
35.6546
811.803
11.748
567.576
255.582
99.907
433.452
240.816
1552.22
288.995
2088.46
280.207
2065.76
275.091
1880.76
273.367
1725.94
268.112
1605.54
254.574
1493.27
234.78
1381.6
210.593
1270.33
181.19
1157.78
148.682
1028.79
107.177
853.977
55.4258
619.699
310.874
140.831
291.184
264.935
1421.63
318.199
2035.14
266.816
2111.58
193.078
1953.63
132.213
1780.65
101.571
1634.15
83.9101
1504.47
80.0228
1382.24
78.4081
1265.59
80.876
1151.53
72.6817
1026.69
45.561
866.381
10.99
640.145
321.514
-216.519
265.71
883.582
1372.05
1619.23
1740.98
1729.1
1667.77
1535.02
1377.46
1189.46
967.381
706.44
367.464
2.31393
823.032
-819.983
828.924
831.115
835.916
1665.47
-829.399
1670.82
1672.72
1677.15
2407.86
-729.422
2412.32
2413.41
3008.88
-592.206
3010.93
3014.64
3015.56
3454.96
-436.798
3456.94
3459.02
3768.39
-307.742
3770.73
3773.61
3774.86
3945.54
-168.098
3947.71
3950.51
3951.78
3975.35
-21.0802
3977.8
3979.57
3861.44
119.579
3864.46
3865.93
3868.29
3587.24
282.139
3589.84
3590.75
3208.4
384.005
3210.61
3211.8
3213.52
2732.25
481.772
2734.25
2736.24
2736.98
2271.48
468.958
2273.4
2276.53
1870.07
406.837
1873.2
1874.58
1876.61
1477.68
399.71
1480.49
1481.74
1484.06
1013.82
471.96
1016.24
1018.57
436.77
582.563
442.508
445.118
449.343
-179.19
634.252
-161.598
-156.033
-1219.55
1066.55
-1214.61
-1212.04
-1207.49
-2806.46
1597.79
-2801.8
-2802.86
-2800.14
-4781.29
1979.29
-4783.02
-4784.48
-7033
2247.94
-7033.15
-7032.19
-6907.91
-6774.51
-6633.04
-8950.09
2453.42
-8822.39
-8663.97
-8479.47
-8292.96
-8105.97
-7922.28
-7733.14
-7524.66
-9914.2
2594.41
-9696.62
-9483.89
-9273.47
-9040.99
-8806.56
-8569.62
-8331.71
-8097.57
-10459.1
2599.51
-10206.3
-9952.89
-9699.63
-9447.93
-9190.53
-8921.89
-8650.23
-8376.16
-8106.39
-10307.1
2458.92
-10024.7
-9739.07
-9454.81
-9170.28
-8890.75
-8592.99
-8288.55
-7987.08
-9839.12
2136.32
-9548.59
-9253.57
-8944.86
-8636.58
-8327.57
-8019.54
-7711.13
-7390.2
-8749.86
1669.18
-8439.01
-8129.99
-7822.85
-7504.01
-7179.21
-6853.98
-6530.76
-6218.13
-6936.93
1027.69
-6626.05
-6319.69
-6014.35
-5713.5
-5415.69
-5139.52
-4861.97
-4595.73
-4339.29
-4202.16
119.084
-3996.83
-3816.05
-3641.94
-3468.47
-3292.53
-3141.81
-3049.83
-2968.47
-2573.88
-298.715
-2491.55
-2404.53
-2401.13
-1986.84
-408.595
-1580.48
-404.536
-1577.83
-1194.86
-382.131
-1194
-845
-345.84
-544.111
-298.454
-539.926
-244.125
-292.879
62.1093
-299.153
54.0352
256.405
-190.095
238.564
432.028
-177.431
646.556
-226.483
660.583
909.214
-255.808
924.741
1168.55
-244.456
1387.32
-204.213
1386.43
1601.11
-202.028
1760
-160.738
1770.42
1923.92
-153.132
1933.99
2079.09
-140.765
2188.7
-100.243
2191.48
2302.32
-103.616
2304.92
2407.55
-95.6843
2471.5
-61.1538
2476.53
2552.68
-72.1424
2601.16
-43.7564
2603.33
2652.89
-46.2093
2655.13
2701.19
-42.9841
2719.81
-15.9905
2721.99
2753.49
-29.167
2755.12
2785.16
-27.7449
2791.58
-5.31994
2793.26
2816.02
-21.8199
2822.82
-3.90078
2823.25
2836.24
-10.1211
2836.59
2848.47
-9.86009
2838.97
9.1381
2839.89
2848.06
-8.74924
2849.29
2858.31
-9.28486
2854.19
6.72264
2853.53
2869.07
-13.0326
2869.7
-1.45351
2870.72
2879.47
-9.92993
2881.4
2890.15
-10.2989
2888.68
4.27786
2887.73
2907.37
-17.3722
2905.98
2927.22
-20.0807
2933.94
-8.78915
2935.36
2966.24
-32.5609
2996.78
-27.2289
2996.16
3038.8
-41.8315
3039.05
-49.7668
-57.4662
322.446
-42.882
349.826
-45.8144
388.145
-38.6701
550.051
-32.7681
303.88
-53.2879
272.044
-70.2214
543.331
-61.7919
898.587
-35.6757
1082.87
-18.2553
855.714
11.9712
19.3865
6.3728
967.61
21.4272
1227.08
5.93412
648.024
-9.79723
538.98
-29.8777
436.011
-17.3125
78.2625
-8.10291
-440.753
13.6375
1484.18
31.184
3658.85
-39.4498
1640.94
-234.131
-303.523
-234.287
185.096
-162.824
324.974
-60.5667
782.35
-78.1353
616.366
-64.6796
686.93
-55.7867
1100.37
-115.652
-749.836
-128.45
34.4057
-113.004
975.391
-62.6013
1486.13
-58.0973
487.676
-41.369
403.414
38.2166
711.151
82.3251
407.157
111.177
251.164
128.701
370.866
135.626
503.88
137.077
373.695
149.983
284.174
167.503
264
178.014
191.044
186.454
76.0441
182.576
-214.842
176.9
-290.951
168.498
-415.851
153.779
-509.452
129.464
-606.414
101.127
-707.614
68.7075
-834.925
44.9817
-941.007
18.8198
-1054.6
4.08665
-944.116
29.6064
1890.18
47.4643
6468.14
39.2255
6070.65
22.5272
3000.53
-53.6766
-713.578
-123.164
-131.37
-77.5749
799.522
-36.759
-73.5152
-77.6124
-943.664
-122.172
-806.937
-121.94
-598.245
-121.694
-522.783
-113.253
-410.609
-94.3645
-314.198
-81.2649
-274.883
-81.0925
-99.7521
-89.8395
59.5545
-106.78
323.404
-120.104
666.899
-96.3149
958.037
-3.39657
621.904
55.3029
-708.521
21.7522
-1359.49
17.2881
-1911.41
-2460.23
-46.0264
307.296
-34.4547
336.286
-39.4955
390.126
-22.3293
530.166
-27.8123
301.348
-51.084
286.054
-61.5198
548.912
-56.4295
889.656
-36.4664
1058.21
-22.8118
835.984
11.6089
-20.0461
16.6457
959.186
20.2123
1219.8
5.75633
656.657
-6.55426
547.375
-56.5701
477.438
-24.0166
44.391
-13.5295
-452.226
-0.210153
1471.93
13.9791
3645.02
-1.05338
1655.96
-229.277
-75.9965
-256.635
214.806
-200.752
271.973
-66.0329
647.315
-94.1055
643.672
-108.637
702.314
-48.5285
1040.41
-119.088
-679.464
-132.055
44.7242
-124.845
967.959
-67.4878
1429.1
-44.4445
469.049
-29.8288
395.215
25.6486
660.229
72.4573
368.188
103.607
230.144
126.243
355.981
143.396
492.878
138.703
385.181
145.719
285.133
165.827
251.86
181.296
184.128
195.619
71.8477
184.413
-192.103
172.878
-272.964
160.319
-397.981
141.896
-486.799
117.255
-578.799
92.0245
-680.234
63.0945
-804.429
41.5333
-918.447
19.5156
-1031.97
6.25519
-930.376
29.2139
1866.12
46.1796
6450.97
35.2983
6081.61
22.5874
3013.49
-55.7515
-632.639
-146.175
-38.284
-73.1912
727.035
-18.9829
-127.466
-83.0553
-879.03
-125.216
-764.109
-130.757
-591.769
-128.175
-523.775
-118.569
-417.684
-104.188
-325.501
-92.7821
-284.911
-88.8021
-102.739
-96.1644
70.9262
-108.006
337.32
-120.025
676.044
-85.9439
921.849
3.83365
525.895
52.4743
-761.525
18.5862
-1331.88
6.57733
-1905.49
-2499.95
-42.7722
294.535
-35.0464
328.484
-40.3263
395.468
-20.8713
511.258
-23.1297
301.407
-44.142
305.635
-56.4185
561.392
-52.7672
885.968
-35.3472
1040.09
-19.3126
819.244
5.86666
-39.1795
20.6718
945.283
22.6644
1216.64
-0.887532
678.425
-12.143
558.016
-53.5167
516.548
-27.1573
20.837
-17.1916
-461.395
-2.51592
1457.8
9.9018
3632.48
-27.6033
1693.27
-231.802
129.166
-274.518
256.048
-230.433
225.482
-100.229
517.083
-107.858
651.097
-111.686
706.775
-51.0371
979.895
-122.118
-608.113
-132.039
57.0147
-120.023
956.137
-62.6458
1371.53
-37.7144
445.307
-23.727
382.436
24.2668
612.521
62.4719
330.661
93.7593
199.87
121.009
329.43
141.507
472.835
137.287
389.643
139.62
283.583
157.22
235.204
173.978
168.114
187.701
58.5343
177.616
-190.862
165.482
-267.867
150.946
-389.473
131.749
-472.244
108.876
-559.48
86.1134
-659.874
59.3717
-779.42
38.8013
-898.896
19.5579
-1013.29
5.64367
-916.187
27.8852
1843.08
45.0059
6433.72
33.9904
6092.72
15.1299
3032.51
-61.5423
-558.398
-147.269
40.9311
-72.5165
652.335
-23.6704
-176.526
-90.5126
-813.469
-131.043
-725.04
-139.233
-585.236
-138.228
-526.925
-128.415
-429.993
-113.338
-343.478
-105.1
-295.912
-97.7743
-112.312
-104.825
77.2513
-116.614
349.214
-123.145
679.963
-79.5815
877.113
15.1929
427.456
50.9044
-790.653
17.9824
-1293.87
9.86566
-1891.38
-2512.06
-40.7621
283.055
-36.6484
322.234
-41.1176
396.798
-19.3952
486.659
-21.358
295.472
-41.0023
317.781
-54.2739
570.41
-50.8096
878.824
-33.2251
1017.89
-14.8144
794.699
1.20315
-59.1158
22.0673
921.39
24.6849
1210.93
-1.6019
700.518
-11.8122
565.678
-46.4523
544.025
-29.5329
3.31653
-19.4099
-472.355
-3.92924
1443.36
6.25454
3622.66
-56.6347
1756.05
-235.954
307.566
-289.369
310.948
-257.676
196.67
-131.511
391.21
-119.804
638.156
-112.608
699.945
-53.8681
921.252
-124.141
-537.717
-129.85
60.0152
-111.737
937.622
-57.8311
1317.72
-34.3147
426.051
-21.6346
375.817
20.9611
574.717
54.837
304.669
86.4454
178.652
115.445
308.086
138.581
455.408
136.119
397.884
134.789
291.715
148.29
228.713
164.243
159.551
177.044
54.3995
167.768
-171.582
155.549
-250.102
139.82
-369.234
121.003
-449.756
100.549
-536.555
79.9499
-637.443
54.9459
-753.057
35.6349
-878.69
19.1296
-996.248
5.46139
-901.919
26.3051
1821.27
43.7113
6416.14
32.9189
6103.55
8.34956
3057.11
-69.8675
-478.329
-134.388
106.545
-68.3658
586.051
-30.9018
-215.381
-96.1737
-748.26
-137.437
-683.776
-148.032
-574.304
-147.924
-526.003
-137.982
-437.57
-123.136
-355.182
-116.498
-301.777
-107.602
-120.475
-114.404
87.7037
-124.865
361.914
-123.476
676.519
-70.3609
822.962
27.0128
323.51
51.2491
-818.514
17.1406
-1266.61
2.5062
-1882.79
-2545.93
-39.9156
274.522
-38.7201
321.406
-41.5146
400.317
-18.3097
464.81
-20.5759
296.87
-39.1838
336.801
-52.9042
585.46
-49.1585
875.908
-31.0028
999.908
-11.2481
775.408
-2.18491
-62.2839
23.3106
897.636
27.1455
1206.57
-0.0615542
727.032
-10.4652
576.345
-38.7817
571.727
-30.9144
-2.09174
-21.1634
-481.525
-4.90022
1427.48
3.28362
3614.27
-71.0337
1830.25
-230.103
467.087
-296.196
375.764
-280.405
178.814
-173.751
283.998
-132.948
596.473
-113.939
681.355
-57.7974
865.4
-126.206
-468.904
-124.669
60.9743
-101.507
914.904
-52.8949
1268.83
-32.5483
406.186
-20.0341
363.439
18.2916
535.641
47.8049
274.357
78.9415
146.838
109.439
276.981
134.764
429.381
135.078
396.423
131.538
294.416
140.38
219.206
153.92
145.046
164.964
41.8424
156.062
-172.066
143.848
-244.955
128.009
-359.615
110.83
-437.363
92.9879
-522.413
73.9048
-620.815
50.1946
-731.085
32.2282
-861.724
18.0673
-982.569
4.81651
-888.247
24.7696
1800.59
42.2544
6398.56
31.6966
6114.2
3.45615
3085.35
-76.7085
-400.194
-125.954
150.914
-63.934
523.983
-37.5133
-242.407
-101.768
-684.95
-143.784
-643.062
-156.621
-563.089
-157.957
-526.845
-148.558
-449.57
-134.769
-372.111
-128.798
-311.105
-119.406
-133.033
-124.614
91.178
-132.109
369.15
-121.504
663.662
-57.8228
758.322
38.9335
223.359
51.9302
-825.692
16.6823
-1226.26
8.02599
-1868.19
-2541.6
-40.1911
267.486
-41.2115
320.284
-41.8018
397.825
-17.7514
437.807
-20.3065
291.8
-38.2166
348.65
-51.913
595.469
-47.4686
868.044
-28.487
976.485
-7.51283
748.367
-3.80892
-69.3445
24.5676
866.58
29.9382
1198.49
2.08735
751.553
-10.2678
586.831
-29.482
586.105
-31.0174
-1.09437
-22.5777
-490.807
-5.24066
1411.13
1.53415
3607.81
-79.3927
1910.83
-220.709
607.082
-294.597
450.308
-294.846
181.587
-216.535
206.103
-141.736
521.302
-114.576
655.168
-63.6578
814.768
-129.075
-403.086
-116.036
45.9924
-90.2959
888.593
-47.3923
1225.75
-31.8815
394.48
-18.6454
355.559
17.4159
504.218
42.46
256.653
71.5383
127.843
102.959
253.045
130.122
407.59
133.77
397.838
129.555
304.53
134.091
220.961
144.252
141.54
152.942
40.865
143.822
-154.098
131.879
-227.943
116.873
-340.641
101.921
-419.162
86.1856
-504.592
67.8012
-600.854
45.1026
-707.207
28.6409
-844.45
16.7613
-970.189
3.71121
-874.566
23.2556
1780.1
40.7353
6380.91
30.5069
6124.44
0.314439
3115.41
-81.5893
-317.236
-119.284
188.957
-59.387
463.383
-42.9867
-261.719
-107.194
-621.151
-149.649
-601.158
-164.764
-548.197
-167.889
-523.354
-159.606
-455.942
-147.073
-381.892
-141.547
-316.751
-132.201
-142.396
-135.014
96.8373
-137.758
373.923
-116.729
640.808
-39.7363
681.161
53.2183
118.684
53.2424
-830.018
16.1638
-1196.76
4.75562
-1863.07
-2560.4
-41.407
263.517
-43.7892
323.474
-41.766
397.078
-16.8039
415.03
-19.357
294.494
-37.5606
368.325
-51.3166
611.329
-45.7866
864.041
-25.7356
957.258
-4.31445
728.273
-4.95052
-63.106
26.0709
837.85
33.0365
1191.36
5.24078
779.179
-8.81757
601.703
-21.4283
599.231
-30.0948
9.67544
-24.0704
-496.382
-5.00255
1392.39
1.20421
3601.39
-84.1809
1996.26
-213.364
736.457
-288.457
524.458
-300.816
192.373
-243.4
148.016
-154.808
431.918
-118.412
619.09
-69.083
765.845
-130.742
-340.737
-104.482
21.7722
-78.5867
863.227
-41.0391
1187.82
-31.3919
384.788
-17.7006
341.257
17.1691
467.622
38.1303
233.718
64.1505
99.8223
96.0947
219.477
124.78
377.442
131.889
388.819
128.301
306.344
129.478
218.004
135.887
132.904
141.705
32.1514
132.261
-154.524
121.015
-223.542
107.347
-333.049
94.4434
-410.833
79.8533
-493.553
61.4358
-584.748
39.6788
-687.082
24.9169
-830.629
15.2599
-960.948
2.46957
-861.291
21.7364
1760.08
39.2067
6363.35
29.4614
6134.24
-1.51094
3146.3
-84.4386
-235.82
-112.88
213.564
-54.7683
405.197
-48.3473
-269.412
-112.088
-557.967
-154.288
-559.965
-171.621
-532.35
-177.093
-519.85
-170.748
-464.698
-159.715
-395.829
-154.235
-325.455
-145.347
-154.511
-145.278
94.8631
-141.31
369.635
-108.611
605.88
-11.4106
582.779
74.3732
28.5677
54.6281
-804.754
15.7597
-1152.83
-1.69506
-1839.87
-2574.6
-43.4408
260.594
-46.3573
324.403
-41.5101
389.369
-16.3694
387.061
-19.3229
290.549
-37.9641
382.259
-51.0558
621.354
-44.1571
854.125
-22.9155
931.902
-1.14902
700.603
-5.23581
-61.9565
27.7395
802.61
36.3242
1180.42
9.16999
803.577
-7.17711
616.592
-14.1312
603.196
-28.4414
23.2012
-26.1221
-499.685
-4.14004
1371.29
2.38045
3595.12
-85.6499
2083.74
-207.3
856.568
-279.746
597.072
-302.842
217.607
-263.659
108.539
-173.352
341.381
-126.856
575.259
-80.5044
719.97
-137.426
-283.542
-92.501
-24.3293
-66.6078
836.751
-33.5437
1154.33
-29.2978
383.66
-16.5088
332.939
16.1274
439.098
33.7871
222.338
56.7465
85.8374
88.7477
194.529
118.852
352.319
129.442
382.698
127.477
313.438
126.572
224.472
129.587
135.821
132.693
35.8907
122.704
-136.77
112.206
-208.361
99.8189
-317.203
88.2677
-396.442
73.7198
-477.275
54.713
-564.443
34.028
-665.418
21.138
-817.021
13.5565
-952.889
1.27696
-848.361
20.2433
1740.17
37.6898
6345.74
28.5476
6143.4
-2.17683
3176.8
-84.8227
-152.519
-106.123
235.087
-50.6854
349.04
-54.5873
-269.511
-116.299
-496.677
-157.473
-519.73
-176.869
-513.584
-184.924
-512.08
-180.934
-467.427
-171.555
-403.18
-166.414
-331.845
-157.957
-164.096
-154.112
92.939
-142.288
359.472
-98.3013
560.027
11.5961
472.819
91.5145
-62.785
55.252
-773.906
15.9843
-1121.65
5.41577
-1835.7
-2567.9
-46.1281
260.374
-48.6737
328.113
-40.7918
383.202
-15.8938
365.091
-20.6067
296.318
-39.6002
403.366
-50.929
635.29
-42.491
847.753
-19.8579
910.57
1.75616
681.127
-5.38683
-49.2583
29.5654
770.346
39.7573
1170.28
13.8201
829.618
-3.60277
635.114
-7.49826
607.932
-26.3605
43.715
-28.5151
-497.31
-2.75499
1345.77
4.93114
3587.23
-83.6948
2172.5
-196.118
968.954
-255.695
655.95
-294.193
254.852
-278.556
92.0714
-192.402
254.419
-141.629
525.229
-97.5807
676.613
-144.731
-234.282
-81.3468
-85.2183
-54.4078
810.62
-24.8393
1124.49
-25.7695
384.345
-15.2833
321.393
15.0377
406.252
30.6672
203.625
49.9631
62.9415
80.7579
161.298
112.081
319.049
126.144
366.205
126.622
310.484
124.902
223.496
125.165
132.228
125.708
31.2681
115.352
-137.196
105.664
-205.639
94.1686
-311.833
82.8902
-389.654
67.3172
-465.205
47.4901
-546.859
28.2127
-647.694
17.3487
-807.034
11.6115
-947.471
0.0795241
-836.222
18.8038
1720.68
36.2186
6328.23
27.7401
6151.92
-1.24372
3205.74
-81.7953
-73.2861
-99.1901
249.612
-48.7346
298.534
-62.6142
-257.34
-119.555
-439.859
-158.926
-481.005
-179.966
-493.856
-190.481
-503.316
-189.2
-470.904
-181.795
-413.242
-177.102
-339.798
-169.01
-175.622
-160.714
82.5546
-140.23
338.602
-86.8013
504.182
17.4002
367.076
89.3458
-134.157
54.0974
-733.117
16.3291
-1078.78
2.80493
-1816.56
-2570.52
-49.2728
260.367
-50.7857
327.773
-40.051
369.739
-16.5924
338.852
-23.0337
296.754
-41.7223
418.255
-50.9154
641.804
-40.8189
834.923
-16.8244
882.711
4.92054
653.296
-4.69484
-42.5199
31.4583
732.236
43.2612
1156.38
19.05
851.422
0.656857
652.206
-1.58692
607.95
-23.0756
63.8451
-30.3971
-491.327
-0.757621
1316.78
8.85057
3577.75
-79.2479
2259.84
-183.919
1071.95
-232.819
704.645
-286.02
309.065
-293.345
97.7529
-223.594
183.783
-143.326
448.302
-74.7136
608.782
-116.179
-193.06
-71.0762
-130.494
-42.0775
781.657
-15.1612
1097.22
-22.2426
393.991
-14.5375
317.458
14.1458
381.153
28.3955
194.735
44.2223
55.201
72.8611
139.558
104.522
292.095
121.8
353.021
125.418
311.532
124.109
229.867
122.661
139.054
121.383
38.7104
110.495
-119.589
101.214
-191.917
89.8716
-297.426
77.804
-375.028
60.4195
-446.377
39.8332
-525.24
22.4241
-629.469
13.6476
-797.569
9.46742
-942.76
-1.17368
-824.832
17.4312
1701.17
34.8195
6310.69
27.0038
6159.76
2.12236
3230.38
-72.9631
2.75988
-92.1355
269.223
-50.9497
256.892
-73.3048
-239.239
-121.999
-391.447
-158.71
-445.482
-180.481
-472.939
-192.965
-491.672
-194.366
-468.948
-189.149
-417.489
-185.299
-346.409
-177.102
-186.509
-163.715
69.8628
-134.495
310.47
-73.0488
440.665
24.3626
268.613
84.8738
-202.881
53.0507
-707.461
17.0299
-1051.47
-2.01283
-1804.21
-2585.13
-52.6297
262.255
-52.4477
328.997
-38.9666
358.266
-17.384
320.913
-25.882
306.821
-43.9417
438.684
-50.8908
651.635
-39.0136
825.45
-13.523
858.779
7.97461
634.378
-3.93602
-25.3109
33.4463
697.764
46.8151
1143.15
24.6883
873.785
6.21393
671.986
4.46697
610.615
-18.9206
88.6597
-32.0143
-478.057
1.74408
1283.39
13.9482
3565.44
-72.8489
2346.93
-171.083
1170.06
-223.485
756.845
-281.14
366.228
-298.228
114.132
-232.991
117.838
-121.346
336.581
-49.7185
537.901
-90.8247
-150.666
-61.1003
-157.45
-29.5466
750.778
-4.25938
1071.58
-18.862
408.198
-14.3249
311.532
12.994
350.598
26.1097
177.688
39.1018
37.3576
64.651
110.752
95.7265
258.676
116.243
329.838
123.457
301.638
123.438
226.87
121.187
137.524
118.524
36.8326
107.271
-118.837
98.2061
-189.296
86.2753
-291.034
72.343
-365.083
52.6481
-429.911
31.7576
-506.418
16.7857
-615.941
10.0812
-791.704
7.10008
-940.069
-2.5289
-814.586
16.1168
1681.69
33.5037
6293.21
26.2268
6167.06
7.13215
3249.52
-54.164
61.672
-85.6596
298.54
-57.5224
228.679
-83.9024
-215.23
-123.393
-351.765
-156.381
-412.871
-177.769
-452.725
-191.517
-479.37
-195.355
-466.915
-192.627
-422.253
-189.951
-351.846
-181.431
-197.964
-162.851
49.7113
-124.901
272.587
-55.8704
368.524
34.9919
175.405
82.4846
-249.021
52.8683
-672.279
18.3572
-1011.95
2.4675
-1782.94
-2579.55
-56.0683
263.267
-53.8712
325.126
-38.2104
340.072
-19.5449
299.615
-29.4605
311.767
-46.2483
452.39
-50.8902
653.973
-37.1568
809.293
-10.3898
828.41
11.3054
606.35
-2.36167
-14.425
35.4701
658.28
50.3842
1126.39
30.7688
891.288
12.4696
689.107
10.2513
610.917
-14.2561
111.158
-33.2558
-460.776
4.84322
1245.68
20.1466
3550.17
-64.7139
2430.89
-158.442
1262.11
-217.576
815.598
-272.259
420.832
-294.371
133.121
-235.618
57.447
-112.781
216.015
-27.7856
454.304
-66.6114
-111.708
-52.813
-170.193
-17.357
716.235
7.75855
1046.4
-14.921
433.046
-14.3238
314.128
11.4622
327.814
23.0707
170.452
32.1418
35.0157
54.5609
95.3595
85.8706
231.856
109.751
309.622
120.677
294.949
122.618
229.471
120.549
144.335
117.345
45.4026
105.558
-101.599
96.0964
-175.788
82.6857
-274.954
66.1016
-346.224
44.0157
-406.755
23.5454
-485.236
11.5468
-603.283
6.74246
-786.232
4.55575
-937.286
-3.96835
-805.19
14.8624
1661.99
32.2677
6275.65
25.2554
6174.12
10.0562
3264.46
-32.6229
106.364
-80.0244
346.981
-63.6024
212.085
-89.5311
-191.713
-123.099
-318.33
-151.674
-385.616
-171.67
-433.616
-185.705
-466.522
-191.296
-461.228
-191.065
-422.445
-190.117
-357.125
-180.851
-211.654
-156.929
24.9866
-110.577
226.758
-33.0323
288.574
49.6834
89.461
82.6929
-291.232
53.876
-649.93
20.0345
-987.149
-1.65561
-1768.13
-2596.79
-59.4024
265.166
-54.8216
322.149
-37.3551
324.858
-21.8396
288.386
-33.2458
325.039
-48.5243
470.154
-50.7929
659.296
-35.086
796.279
-7.00492
802.145
14.5502
587.653
-0.693847
6.05166
37.513
623.213
53.8903
1110.21
36.9424
908.53
19.8018
707.622
16.3535
615.162
-9.57017
138.199
-34.0574
-436.234
8.40286
1203.69
27.2275
3531.34
-54.976
2513.47
-143.983
1350.95
-203.148
874.985
-253.894
471.913
-283.765
162.56
-232.788
5.98205
-113.681
97.0264
-14.635
356.377
-63.3395
-61.3901
-62.5504
-166.917
-5.19378
659.548
20.944
1020.03
-9.90693
463.693
-14.049
316.86
9.50717
300.609
17.29
158.39
22.0606
24.5769
43.1198
69.8821
75.5138
196.521
102.007
280.311
116.738
277.478
121.149
221.809
119.865
141.421
116.363
43.9344
104.189
-99.7515
94.0577
-171.864
78.4143
-264.468
58.5034
-329.982
34.3717
-385.714
15.418
-468.253
6.86111
-596.061
3.66529
-783.8
1.81242
-935.627
-5.49102
-797.166
13.6594
1641.97
31.0998
6258.11
24.0554
6181.19
9.88285
3278.74
-29.8393
143.552
-75.7705
391.29
-67.5229
203.73
-91.815
-169.738
-120.727
-288.997
-144.597
-361.903
-162.297
-416.96
-175.139
-454.872
-181.331
-456.445
-183.415
-421.781
-184.777
-358.192
-174.895
-224.172
-145.97
-5.12238
-90.9772
172.29
0.382318
191.898
70.4328
13.9528
83.898
-303.446
55.6439
-616.126
22.4519
-948.96
5.67484
-1746.11
-2579.76
-62.6295
265.217
-55.7033
313.663
-37.3223
304.008
-25.5189
273.994
-37.5377
332.795
-50.8026
480.703
-50.6586
657.033
-32.9444
776.295
-4.08923
769.651
17.9852
559.465
2.10815
19.2448
39.5333
584.262
57.3017
1090.72
43.1599
920.716
27.5855
722.023
22.5732
618.159
-4.30311
162.164
-33.8968
-408.909
12.4669
1157.38
35.0098
3508.69
-43.5445
2591
-128.174
1433.92
-188.077
934.484
-234.748
517.98
-269.602
193.148
-225.995
-39.6157
-124.962
-1.80043
-10.1981
245.529
-35.9702
-33.7136
-55.8724
-144.069
7.42183
598.108
34.7153
993.29
-2.89108
503.567
-12.8154
329.85
7.04567
283.579
11.6141
157.59
14.0404
27.4697
33.3953
57.3908
64.6477
170.048
92.4888
256.014
111.412
262.393
118.865
218.371
119.058
145.324
115.909
51.6889
103.173
-82.9052
91.6532
-156.765
72.8987
-243.436
49.4319
-304.557
24.1127
-359.753
7.87095
-451.589
2.96003
-590.55
0.913156
-780.998
-1.08612
-932.843
-7.07198
-790.08
12.5164
1621.59
29.9875
6240.5
22.7987
6188.47
7.09702
3294.27
-33.0014
186.558
-71.9488
431.997
-70.7567
202.751
-93.6484
-147.305
-116.857
-265.706
-135.667
-344.401
-150.054
-403.404
-160.183
-446.094
-165.268
-451.392
-168.494
-419.118
-172.55
-359.948
-162.433
-240.555
-128.698
-41.5672
-64.0442
107.774
47.4218
74.8805
99.5809
-46.3349
85.8838
-300.556
58.2945
-595.332
24.9981
-925.068
5.39167
-1733.63
-2586.13
-65.639
265.439
-56.2839
305.996
-37.4815
287.594
-29.1552
270.487
-41.672
347.211
-52.898
494.412
-50.3538
657.597
-30.6184
759.39
-1.39263
742.34
20.9192
539.811
5.37609
39.6362
41.4832
551.426
60.5445
1071.86
49.147
932.452
35.4415
737.222
29.0724
625.421
1.18988
191.23
-33.5202
-374.089
16.8263
1107.86
43.2985
3482.37
-30.7848
2665.54
-110.921
1513.93
-168.621
992.891
-212.465
562.996
-253.026
233.521
-216.802
-76.1503
-163.495
-54.9276
-27.8818
111.553
3.3719
-64.4319
-25.6633
-114.411
20.5439
551.964
48.6847
964.621
6.74023
545.228
-10.5533
345.562
3.67708
265.259
6.11971
150.596
6.1468
21.5602
22.0135
36.0969
51.7717
136.368
81.6484
222.955
104.423
236.965
115.029
204.623
117.101
139.108
114.396
49.5695
101.224
-79.0653
88.0329
-149.223
65.469
-225.498
38.5271
-280.898
13.4858
-337.646
1.27368
-441.269
-0.0908256
-590.468
-1.49478
-780.385
-4.09309
-930.484
-8.71828
-784.84
11.4265
1600.45
28.9584
6222.86
21.6623
6195.78
4.05724
3312
-36.491
224.67
-68.1851
462.455
-73.5245
207.792
-95.4006
-128.744
-111.901
-248.628
-125.36
-331.077
-135.817
-393.897
-141.777
-441.06
-143.693
-450.408
-145.863
-417.615
-151.517
-356.189
-141.908
-252.04
-103.236
-80.415
-24.6505
30.8914
71.1203
-32.9356
105.713
-85.0913
87.8739
-281.006
61.6596
-563.592
27.9148
-886.588
2.48798
-1703.31
-2587.83
-68.5311
263.29
-57.1066
293.163
-38.8824
267.011
-33.9079
263.085
-45.9745
355.583
-54.8785
500.884
-49.9775
650.717
-28.381
735.667
1.39991
708.71
25.1759
511.264
10.6585
51.7881
43.3798
517.279
63.6038
1050.02
55.0528
939.173
43.0177
748.111
35.3361
631.04
6.78438
216.013
-32.637
-337.468
21.4959
1053.48
52.0544
3451.62
-16.9696
2733.49
-93.4763
1588.87
-151.917
1051.09
-194.498
605.166
-235.833
270.636
-206
-107.842
-199.979
-58.3378
-60.4404
-21.271
20.5127
-139.329
-0.338119
-89.6546
34.1138
520.058
62.4367
937.478
19.1098
591.087
-6.52668
374.221
0.0179708
261.438
0.190212
153.772
-2.41966
28.414
10.205
29.3553
38.9471
112.4
70.6404
194.895
95.6484
215.377
109.578
193.948
114.028
137.855
112.304
55.0183
98.5146
-62.6864
82.9486
-130.853
55.798
-196.763
26.2679
-249.953
3.47734
-314.762
-3.80448
-433.875
-2.19894
-591.498
-3.533
-778.195
-7.04278
-925.991
-10.3746
-780.175
10.4021
1578.95
28.0458
6205.07
20.7387
6203.25
2.22466
3330.42
-37.4173
267.51
-64.2365
491.519
-74.2687
218.254
-95.4639
-106.77
-106.253
-237.565
-114.286
-324.182
-120.645
-388.285
-121.705
-441.43
-118.576
-453.398
-116.3
-420.424
-119.453
-359.715
-108.566
-270.289
-60.6727
-132.181
36.5879
-66.3846
89.2811
-99.8386
99.1809
-101.374
90.375
-283.239
65.731
-545.757
31.481
-861.819
11.7913
-1690.79
-2569.08
-71.1754
260.848
-57.8456
281.627
-40.5773
252.281
-38.3674
266.097
-49.8702
368.949
-56.5535
510.057
-49.3592
646.754
-26.1244
715.539
8.3198
676.273
33.902
488.986
16.6623
73.5246
45.0907
492.285
66.3966
1028.92
60.5826
945.33
50.3031
759.91
41.4898
640.71
12.3807
246.283
-31.3682
-293.607
26.2521
997.035
61.0977
3417.07
-2.31798
2797.43
-74.4932
1661
-129.945
1107.65
-174.553
651.532
-217.843
314.113
-193.551
-132.216
-162.978
-88.5787
-68.9846
-115.176
14.8268
-223.06
17.422
-93.1762
47.5095
489.563
75.6271
908.635
33.8778
632.61
0.367413
406.204
-2.65152
260.396
-5.916
152.484
-11.1805
27.9975
-1.38766
13.8814
25.4118
80.763
58.2185
158.138
85.3493
185.434
102.351
173.889
109.006
127.159
108.142
51.3075
93.7956
-56.8884
75.5438
-117.565
43.3396
-168.715
12.9461
-222.708
-5.12678
-299.662
-7.14
-433.729
-3.52348
-596.286
-5.23189
-777.219
-9.87173
-921.548
-11.9987
-777.422
9.43883
1556.44
27.2828
6187.11
20.0037
6210.55
1.07465
3349.48
-36.7308
303.041
-60.3956
514.186
-71.5693
228.796
-92.2671
-90.1056
-100.469
-228.856
-103.128
-321.913
-105.799
-386.621
-101.888
-446.166
-93.1308
-462.659
-84.2779
-429.293
-79.8905
-365.759
-60.847
-290.673
4.51995
-196.525
89.0764
-148.054
95.4372
-118.559
98.5211
-106.031
93.9303
-276.639
70.1293
-516.392
35.2474
-822.306
12.8771
-1663.63
-2561.26
-73.7357
255.727
-59.1231
265.714
-43.6684
234.452
-43.7162
263.759
-53.8697
375.59
-58.0274
511.829
-48.4144
635.132
-23.7544
688.746
12.0073
636.507
40.6036
455.664
23.6646
88.5538
46.9178
467.639
69.0188
1005.2
65.8585
946.647
57.1662
767.296
47.5469
647.949
18.5433
270.43
-28.9365
-249.68
31.1004
936.379
70.3377
3377.55
12.821
2853.84
-55.3189
1727.65
-111.045
1163.28
-159.438
699.998
-197.664
348.725
-178.362
-152.937
-114.969
-148.534
-48.1082
-175.663
22.0125
-280.496
33.4495
-98.5153
60.3535
466.259
88.2046
882.837
50.1124
673.866
10.3721
449.287
-3.20031
276.935
-11.0169
163.759
-18.5827
39.5245
-10.9645
11.5999
11.9261
62.496
44.7347
129.177
74.4693
159.213
93.4468
157.721
102.318
120.565
102.709
53.6821
87.6491
-40.8149
65.89
-94.1622
28.6054
-130.915
0.404472
-193.826