/*--------------------------------*- C++ -*----------------------------------*\
| =========                 |                                                 |
| \\      /  F ield         | OpenFOAM: The Open Source CFD Toolbox           |
|  \\    /   O peration     | Version:  4.1                                   |
|   \\  /    A nd           | Web:      www.OpenFOAM.org                      |
|    \\/     M anipulation  |                                                 |
\*---------------------------------------------------------------------------*/
FoamFile
{
    version     2.0;
    format      ascii;
    class       volVectorField;
    location    "18";
    object      U;
}
// * * * * * * * * * * * * * * * * * * * * * * * * * * * * * * * * * * * * * //

dimensions      [0 1 -1 0 0 0 0];

internalField   nonuniform List<vector> 
6785
(
(1.15127e-14 0.852193 15.7946)
(9.16593e-15 -4.8946 12.1215)
(-1.7156e-15 -4.19553 12.1321)
(4.61539e-15 -3.60122 11.9966)
(2.83218e-16 -3.00472 11.8778)
(-9.55823e-17 -2.55324 11.6992)
(2.18269e-15 -2.20886 11.4769)
(3.73014e-16 -1.96609 11.2116)
(-7.82751e-16 -1.79862 10.916)
(3.21105e-15 -1.71245 10.5882)
(1.14525e-16 -1.83753 10.1561)
(-5.87109e-16 -2.28576 9.53765)
(5.39586e-16 -2.51313 8.96382)
(-3.60178e-16 -1.06561 8.91366)
(-2.65019e-16 1.7658 7.4711)
(1.44596e-14 -5.35017 22.4928)
(1.5267e-14 -14.6049 21.3938)
(6.95727e-17 -13.2709 20.341)
(3.13617e-15 -11.7698 19.5064)
(2.50434e-15 -11.1561 18.5042)
(6.2529e-17 -10.6595 17.5172)
(4.75361e-15 -10.0902 16.5712)
(1.25215e-15 -9.52508 15.6233)
(-8.92344e-16 -8.96551 14.6636)
(1.7834e-15 -8.36739 13.6943)
(9.30679e-16 -7.75718 12.7176)
(-6.15565e-16 -7.30339 11.7191)
(1.58141e-15 -7.01698 10.6239)
(3.63738e-16 -5.73079 9.16042)
(-2.23475e-16 -2.3048 4.58298)
(1.6628e-14 -7.71562 23.9794)
(1.65233e-14 -16.7731 24.6728)
(1.02066e-15 -13.7367 23.9369)
(6.54837e-15 -12.3063 22.6246)
(3.41129e-16 -11.6448 21.2411)
(7.82534e-16 -10.8142 20.001)
(1.0274e-15 -9.94043 18.7735)
(9.15805e-16 -9.10031 17.5245)
(-1.4333e-16 -8.2836 16.2653)
(-1.86086e-17 -7.47549 15.026)
(5.49113e-16 -6.66788 13.8174)
(-1.03037e-16 -5.84204 12.43)
(-1.70309e-17 -4.81461 10.2756)
(7.41102e-16 -3.12717 6.6852)
(-1.72184e-16 -0.832598 1.69035)
(1.88137e-14 -8.50221 22.0443)
(1.51718e-14 -16.6215 24.3322)
(2.37492e-15 -12.9304 23.7965)
(5.58352e-15 -12.154 21.9981)
(1.47836e-15 -11.4205 20.5024)
(1.63301e-15 -10.4942 19.1719)
(2.44231e-15 -9.63456 17.8164)
(-2.85217e-17 -8.82437 16.4587)
(-9.86817e-16 -8.05449 15.1227)
(7.96179e-16 -7.32475 13.8163)
(-1.23523e-15 -6.55377 12.4397)
(1.10454e-15 -5.49293 10.5846)
(-3.71833e-16 -3.78819 7.51203)
(-1.70758e-15 -1.49634 2.76938)
(-3.94256e-16 0.151844 -1.77325)
(1.58664e-14 -8.47511 19.7438)
(1.39092e-14 -16.3604 24.3122)
(1.97862e-15 -13.1002 23.6595)
(3.9266e-15 -12.6286 21.5358)
(-1.46853e-15 -11.8574 20.024)
(-6.26412e-16 -10.9585 18.6631)
(-1.01633e-16 -10.171 17.2582)
(-2.39732e-15 -9.404 15.8707)
(-2.18316e-15 -8.65383 14.5232)
(6.44923e-17 -7.93182 13.2133)
(-3.62607e-15 -7.16736 11.8295)
(3.80748e-16 -6.1185 9.99811)
(-5.50755e-16 -4.42786 7.15967)
(-3.88682e-15 -2.30933 3.29224)
(-5.20685e-15 -0.790561 0.320709)
(1.49229e-14 -8.01911 17.544)
(1.64653e-14 -16.0192 24.5263)
(4.07118e-15 -13.6468 24.0454)
(3.02944e-15 -12.9959 21.7643)
(7.43537e-16 -12.1286 20.2144)
(1.99242e-15 -11.2271 18.8458)
(2.2397e-15 -10.4416 17.4332)
(5.07363e-16 -9.65172 16.0426)
(-1.27095e-15 -8.86334 14.6926)
(1.51928e-15 -8.09635 13.3812)
(-6.9988e-16 -7.30085 12.0172)
(3.52988e-15 -6.28909 10.2836)
(-5.31568e-16 -4.73846 7.725)
(-1.8709e-15 -2.76084 4.37534)
(3.67553e-15 -0.952852 1.29987)
(1.41882e-14 -7.32971 15.2304)
(1.86087e-14 -15.4886 24.3485)
(6.80409e-15 -14.0303 24.4216)
(3.5468e-15 -13.1319 22.0674)
(1.32841e-15 -12.1491 20.4384)
(2.37784e-15 -11.2403 19.0533)
(2.65473e-15 -10.4407 17.6429)
(3.04588e-15 -9.62461 16.2572)
(2.32116e-15 -8.81485 14.9065)
(2.59599e-15 -8.03186 13.592)
(1.4304e-15 -7.22859 12.2378)
(1.38731e-15 -6.24604 10.552)
(-3.20644e-16 -4.79581 8.11401)
(-1.51805e-15 -2.92316 4.95384)
(7.24686e-15 -1.01752 1.8047)
(1.09484e-14 -6.53471 12.9755)
(1.70486e-14 -14.8369 23.7919)
(7.8573e-15 -14.2805 24.6685)
(3.67041e-15 -13.2484 22.3236)
(1.70186e-15 -12.1781 20.5803)
(2.181e-15 -11.2762 19.1638)
(3.89811e-15 -10.4758 17.7569)
(9.36545e-16 -9.65444 16.3756)
(1.65461e-15 -8.8464 15.0241)
(3.53174e-15 -8.06686 13.7075)
(1.89848e-15 -7.26736 12.3594)
(1.30304e-15 -6.30096 10.7055)
(-9.89177e-17 -4.90687 8.34238)
(-9.21966e-16 -3.09964 5.27872)
(1.31103e-15 -1.13172 2.05479)
(9.61457e-15 -5.7269 10.9988)
(1.71953e-14 -14.145 23.0231)
(6.92656e-15 -14.4736 24.8452)
(3.92224e-15 -13.4247 22.6279)
(1.87646e-15 -12.278 20.7572)
(-4.3993e-16 -11.3726 19.296)
(1.33742e-15 -10.5712 17.8931)
(1.10314e-15 -9.74959 16.5153)
(-1.82309e-15 -8.94323 15.1619)
(3.32005e-16 -8.16365 13.8422)
(9.02718e-16 -7.36358 12.4966)
(1.16732e-15 -6.4068 10.8694)
(1.29882e-16 -5.05639 8.57719)
(-9.12947e-16 -3.30129 5.59564)
(-5.78065e-15 -1.26297 2.28573)
(5.26016e-15 -4.96367 9.32412)
(1.67115e-14 -13.4359 22.1194)
(9.70588e-15 -14.5869 24.9344)
(3.90683e-15 -13.6141 22.9651)
(1.92385e-15 -12.3955 20.9757)
(1.82661e-15 -11.4682 19.4556)
(-7.06873e-16 -10.6605 18.0535)
(1.01973e-15 -9.83921 16.6791)
(8.66699e-16 -9.03301 15.324)
(-5.54699e-16 -8.25091 14.0013)
(5.05244e-16 -7.45131 12.656)
(3.19253e-15 -6.5032 11.0485)
(-5.82251e-15 -5.18377 8.81197)
(4.29388e-16 -3.46527 5.88759)
(-2.66792e-15 -1.35942 2.49797)
(4.58923e-15 -4.30589 7.96613)
(1.63741e-14 -12.7505 21.1722)
(8.71405e-15 -14.6243 24.9325)
(4.47534e-15 -13.8067 23.3153)
(2.26373e-15 -12.5401 21.2408)
(-2.15818e-15 -11.5827 19.6506)
(-1.36963e-15 -10.7663 18.2409)
(1.53594e-15 -9.9457 16.867)
(-1.04395e-15 -9.13824 15.5088)
(-3.55832e-15 -8.35181 14.1811)
(1.30841e-15 -7.5492 12.8338)
(-7.04876e-15 -6.60926 11.2431)
(-1.20478e-15 -5.32343 9.05978)
(-1.03474e-14 -3.64455 6.19048)
(-9.83138e-15 -1.46934 2.72587)
(4.05733e-15 -3.65279 6.60624)
(1.91044e-14 -12.0022 20.0393)
(1.00946e-14 -14.547 24.7431)
(5.23818e-15 -13.9412 23.5441)
(2.65159e-15 -12.6297 21.3993)
(-2.29377e-15 -11.626 19.734)
(8.99454e-16 -10.8016 18.3275)
(5.94257e-15 -9.98929 16.9695)
(-3.08653e-15 -9.19096 15.6239)
(1.44951e-16 -8.41236 14.3066)
(8.15299e-16 -7.6203 12.9686)
(-3.43632e-15 -6.69347 11.3959)
(-8.20781e-16 -5.42652 9.2475)
(-6.3443e-15 -3.7671 6.40264)
(-6.1792e-15 -1.5322 2.86867)
(-6.47012e-16 -3.30561 5.96813)
(1.39724e-14 -11.4616 19.1339)
(1.12302e-14 -14.589 24.5971)
(3.54449e-15 -14.3376 24.004)
(3.13091e-15 -13.0947 21.9168)
(9.25707e-16 -12.0587 20.1408)
(4.26008e-16 -11.205 18.6538)
(2.58496e-15 -10.3762 17.2519)
(1.82596e-16 -9.5521 15.8697)
(-4.12458e-16 -8.73969 14.5198)
(1.08209e-15 -7.91477 13.1654)
(-3.39297e-15 -6.97393 11.6154)
(-1.94486e-15 -5.72991 9.55985)
(-3.4336e-15 -4.08296 6.79359)
(-5.42253e-15 -1.73091 3.16384)
(-2.24991e-15 -1.78072 2.36827)
(1.22721e-14 -9.83182 16.2154)
(1.10347e-14 -13.9181 23.2824)
(4.21536e-15 -14.012 23.4091)
(2.56111e-15 -12.643 21.2513)
(4.31496e-16 -11.5107 19.4726)
(8.95268e-16 -10.7377 18.2296)
(2.92959e-15 -10.0442 17.0861)
(-5.99982e-16 -9.35944 15.9336)
(1.17472e-15 -8.6845 14.7689)
(-3.43707e-16 -7.99247 13.5688)
(-3.21096e-15 -7.18178 12.1755)
(6.44336e-17 -6.04683 10.246)
(-5.71233e-15 -4.53825 7.6774)
(-4.49681e-15 -2.23377 4.33192)
(2.13297e-15 -4.45356 8.62017)
(1.23709e-14 -10.766 17.8327)
(1.35644e-14 -15.1392 24.3927)
(9.29145e-15 -16.744 25.7193)
(3.78619e-15 -16.369 24.1378)
(3.15681e-15 -15.2951 21.773)
(7.81216e-16 -14.0652 19.5093)
(4.87552e-16 -12.8606 17.5665)
(2.81628e-17 -11.678 15.7719)
(-4.17113e-16 -10.5092 14.1625)
(-7.61542e-16 -9.35924 12.666)
(-1.3278e-15 -8.13606 11.1104)
(-2.15807e-15 -6.70497 9.38538)
(-4.07692e-15 -4.72123 6.88398)
(-3.66722e-15 -1.09516 2.79344)
(-2.99471e-16 0.685933 -3.38495)
(-6.15895e-16 0.68357 -4.8433)
(-4.94974e-16 0.641508 -3.82059)
(-4.76017e-16 1.07965 -3.77911)
(-4.38773e-16 1.52912 -3.59527)
(-6.55696e-16 2.4714 -4.91216)
(-4.99831e-16 1.92371 -3.60808)
(-4.82318e-16 2.39173 -3.5537)
(-4.74519e-16 2.6106 -3.37915)
(-3.92353e-16 4.08541 -4.46498)
(-2.00315e-16 3.03736 -3.18171)
(-1.64197e-16 3.29257 -2.98588)
(-3.57888e-16 5.20889 -3.90245)
(-2.61075e-16 3.72983 -2.66749)
(-2.56306e-16 4.15444 -2.62408)
(-2.2838e-16 4.19697 -2.5085)
(-4.22278e-16 5.76883 -3.276)
(-5.62708e-16 4.39416 -2.20342)
(-2.37723e-16 4.5356 -2.0744)
(-4.22226e-16 6.27342 -2.70775)
(-2.7999e-16 4.74225 -1.77695)
(-2.5833e-16 5.05857 -1.75347)
(-2.01969e-16 5.07323 -1.69789)
(-4.91223e-16 6.33062 -2.15643)
(-3.02199e-16 4.97879 -1.42444)
(-3.07257e-16 5.30864 -1.39909)
(-2.77053e-16 5.32916 -1.36816)
(-5.942e-16 6.29155 -1.64272)
(-2.48566e-16 5.09224 -1.13664)
(-1.86151e-16 5.16251 -1.11011)
(-3.28962e-16 6.20719 -1.11672)
(-2.25374e-16 4.9428 -0.855166)
(-1.47606e-16 5.10011 -0.842563)
(-1.75724e-16 5.11569 -0.8692)
(-3.69457e-16 5.79483 -0.666543)
(-2.08993e-16 4.59305 -0.635651)
(-1.94119e-16 4.61848 -0.686121)
(-2.81162e-16 5.36692 -0.265624)
(-1.72045e-16 4.10281 -0.438132)
(-1.94003e-16 4.21361 -0.437417)
(-1.87568e-16 4.22027 -0.499842)
(-2.23523e-16 4.73401 0.0320612)
(-1.45319e-16 3.46013 -0.303453)
(-1.43541e-16 3.59726 -0.305379)
(-1.3236e-16 3.62298 -0.372387)
(-1.77636e-16 4.04398 0.245133)
(-1.74306e-16 2.8868 -0.162988)
(-1.61158e-16 2.90928 -0.268901)
(-2.47096e-16 3.45269 0.498297)
(-1.30686e-16 2.3988 0.0302356)
(-1.27079e-16 2.47649 0.0287079)
(-1.20343e-16 2.46274 -0.060541)
(-1.90031e-16 2.97279 0.799586)
(-1.67732e-16 1.86873 0.254075)
(-1.56692e-16 1.95931 0.250906)
(-2.73065e-17 1.96214 0.156691)
(-1.25156e-16 2.18726 1.00895)
(-2.863e-17 1.27139 0.328789)
(-3.34103e-17 1.25735 0.204496)
(-9.61232e-17 1.44964 0.749843)
(-5.90914e-17 0.516712 -0.139035)
(-5.22369e-17 0.519432 -0.157852)
(-1.30427e-16 0.59514 -0.161769)
(1.16669e-15 1.20021 -0.981183)
(-2.4424e-16 -0.669416 -0.187427)
(-6.11744e-16 -0.063212 0.149855)
(-1.24788e-15 -0.316983 1.96365)
(-1.08525e-15 -1.62153 3.41707)
(-9.18895e-16 -1.55711 3.39453)
(-9.71416e-16 -1.56585 3.60346)
(-1.26644e-15 -2.97502 6.58441)
(-8.7164e-16 -3.51517 6.16886)
(-9.06587e-16 -3.76487 6.29786)
(-8.97149e-16 -3.92399 6.49418)
(-1.58627e-16 -6.69773 10.1297)
(-5.24649e-16 -6.01535 8.248)
(-5.78035e-16 -6.32903 8.73335)
(-5.48682e-16 -9.90895 12.8028)
(-3.24369e-16 -8.74381 9.89628)
(-4.29047e-16 -9.22458 10.6151)
(-8.28346e-16 -9.95657 12.3789)
(-6.95422e-16 -9.83482 12.3068)
(-6.42278e-16 -9.96699 12.6057)
(5.73777e-16 -12.5584 15.517)
(-1.19873e-16 -10.6308 13.6501)
(-8.15494e-17 -11.0383 14.3358)
(-7.58188e-17 -11.0026 14.4755)
(4.2141e-18 -11.0714 14.6025)
(7.17268e-17 -11.1529 14.7512)
(1.58963e-16 -11.2151 14.9265)
(3.65505e-16 -11.2843 15.2414)
(6.30204e-16 -11.3975 15.6276)
(1.45852e-15 -12.4549 17.2114)
(9.87074e-16 -11.7327 16.0162)
(1.10116e-15 -11.8921 16.2557)
(1.16049e-15 -11.8681 16.3743)
(1.2507e-15 -12.0331 16.7333)
(1.28912e-15 -12.0033 16.7665)
(1.36244e-15 -12.079 16.9085)
(1.43012e-15 -12.1257 17.0313)
(1.5097e-15 -12.1802 17.1854)
(2.1256e-15 -12.7176 18.4104)
(2.13453e-15 -12.229 17.4671)
(2.23625e-15 -12.3308 17.6469)
(2.29672e-15 -12.3653 17.7175)
(2.37886e-15 -12.4068 17.8374)
(2.47235e-15 -12.451 18.0229)
(2.57403e-15 -12.5236 18.2316)
(2.65509e-15 -12.523 18.2843)
(2.74299e-15 -12.586 18.3887)
(2.85215e-15 -12.6285 18.4798)
(4.17636e-15 -12.4649 18.7599)
(3.29256e-15 -12.2713 18.3078)
(3.43435e-15 -12.2991 18.3987)
(3.50839e-15 -12.3287 18.4346)
(3.60894e-15 -12.36 18.4941)
(3.7141e-15 -12.3485 18.5726)
(3.77363e-15 -12.4006 18.7937)
(3.83695e-15 -12.4191 18.8468)
(3.95734e-15 -12.4467 18.8179)
(5.22527e-15 -11.4245 17.7533)
(4.13399e-15 -11.6132 17.9278)
(4.32724e-15 -11.5615 18.0227)
(4.46751e-15 -11.5957 18.1379)
(4.58658e-15 -11.534 18.037)
(4.70021e-15 -11.5273 17.9942)
(4.83494e-15 -11.4968 17.9332)
(5.00065e-15 -11.4752 17.9038)
(5.31238e-15 -11.5401 18.0649)
(6.13113e-15 -9.40814 15.2686)
(5.45292e-15 -10.2431 16.5774)
(5.57333e-15 -10.0659 16.2917)
(5.69697e-15 -10.0297 16.1859)
(6.05915e-15 -9.98271 16.1929)
(6.13744e-15 -9.87399 15.9671)
(6.13167e-15 -9.76092 15.6405)
(6.14353e-15 -9.7025 15.2925)
(6.13429e-15 -9.58856 14.856)
(5.97041e-15 -6.77952 10.921)
(6.60131e-15 -8.10009 13.3206)
(6.39124e-15 -7.74714 12.5912)
(6.27293e-15 -7.68642 12.1736)
(6.12724e-15 -7.53623 11.596)
(6.0444e-15 -7.45727 10.9694)
(6.38283e-15 -7.15947 10.1499)
(5.86996e-15 -7.09065 9.60393)
(5.5443e-15 -6.87685 8.90118)
(5.12595e-15 -6.62679 8.13439)
(2.8132e-15 -3.49385 2.93209)
(4.15783e-15 -5.40226 5.77537)
(3.56298e-15 -4.86786 4.57267)
(3.30345e-15 -4.88801 4.21068)
(2.92368e-15 -4.64514 3.57589)
(2.46624e-15 -4.58199 2.8792)
(1.54627e-15 -4.40089 1.70206)
(6.11758e-16 -4.01556 0.519618)
(7.18528e-16 -3.93883 0.418406)
(-6.88444e-16 -1.86923 -1.54116)
(6.21898e-16 -3.58825 -0.248501)
(4.43407e-16 -3.35142 -0.796192)
(-1.80498e-16 -1.39115 -2.41621)
(5.35811e-16 -3.50314 -1.82342)
(-2.84235e-16 -2.27301 -1.80568)
(-6.30885e-16 -2.00752 -1.42541)
(-2.01098e-15 -1.96991 -1.70648)
(-2.39834e-16 -1.32746 -1.27844)
(-2.39396e-15 -1.42915 -1.56121)
(3.61314e-15 -0.934988 -1.40627)
(4.83822e-16 -0.637634 -1.25324)
(1.55175e-16 -0.486669 -1.365)
(8.37904e-17 -0.209424 -1.43005)
(1.12104e-16 0.0507423 -1.08499)
(-1.45338e-16 0.509385 -0.619081)
(-1.87879e-16 0.42654 -1.13812)
(-1.22952e-14 1.00079 -0.54271)
(1.09043e-15 0.993868 -0.959921)
(5.16774e-16 0.56239 -1.22152)
(-1.08516e-15 1.74385 -1.21964)
(-1.10425e-15 1.15535 -1.21538)
(-6.81264e-16 1.83556 -1.17723)
(-5.69314e-16 2.18637 -1.12504)
(-4.30864e-16 1.47823 -1.06052)
(-7.23103e-17 2.45085 -1.02271)
(1.48215e-15 2.86486 -0.941245)
(-7.94713e-16 1.88407 -0.859661)
(-6.83138e-16 3.30897 -0.84533)
(-5.44253e-16 2.36604 -0.766351)
(-6.01872e-16 3.02655 -0.761334)
(-6.76307e-16 3.48624 -0.656206)
(-5.01119e-16 2.37151 -0.592752)
(-6.31575e-16 3.91359 -0.585472)
(-4.96193e-16 2.85446 -0.51666)
(-4.07621e-16 3.4692 -0.538049)
(-1.52232e-15 3.88359 -0.444911)
(-5.87758e-16 2.78904 -0.384731)
(-6.11352e-16 3.73128 -0.394328)
(-7.13676e-16 4.21681 -0.316102)
(-5.70071e-16 2.90413 -0.27153)
(-8.46324e-16 4.33821 -0.280581)
(-5.88582e-16 3.28311 -0.245398)
(-7.51388e-16 3.83596 -0.272363)
(-1.5288e-15 4.30585 -0.203739)
(-4.61433e-16 3.00593 -0.169081)
(-7.23676e-16 4.54428 -0.186184)
(-5.69122e-16 3.4224 -0.15062)
(-8.22711e-16 3.95752 -0.193104)
(-1.30868e-15 4.35896 -0.150948)
(-3.53698e-16 3.1664 -0.103447)
(-5.44241e-16 4.08358 -0.126799)
(-6.67205e-16 4.58073 -0.0975199)
(-4.56575e-16 3.16964 -0.0603973)
(-6.59377e-16 4.57936 -0.0875403)
(-4.48378e-16 3.51957 -0.0740122)
(-5.09853e-16 4.02632 -0.109015)
(-3.45562e-16 4.49308 -0.0881789)
(-5.14332e-16 3.13386 -0.0522194)
(-7.31449e-16 4.67205 -0.0906239)
(-5.32078e-16 3.54937 -0.0638063)
(-6.81368e-16 4.05029 -0.116491)
(-7.86182e-16 4.45531 -0.119152)
(-5.60838e-16 3.22201 -0.0576765)
(-5.78014e-16 4.15709 -0.0938653)
(-6.8042e-16 4.67062 -0.107828)
(-4.78681e-16 3.21309 -0.0452269)
(-5.63224e-16 4.62614 -0.102828)
(-4.8063e-16 3.58207 -0.0788394)
(-6.63229e-16 4.07176 -0.130791)
(-5.68162e-16 4.56983 -0.147358)
(-3.78077e-16 3.17308 -0.0834581)
(-5.95848e-16 4.76048 -0.156895)
(-4.3196e-16 3.62442 -0.109873)
(-6.97483e-16 4.13259 -0.186165)
(-7.91815e-16 4.57903 -0.231083)
(-2.24496e-16 3.30642 -0.127167)
(-1.66626e-16 4.28104 -0.194414)
(-5.91755e-16 4.87077 -0.263789)
(-3.25236e-16 3.33873 -0.137089)
(-5.95259e-16 4.87536 -0.272166)
(-4.61699e-16 3.75103 -0.186213)
(-4.63148e-16 4.39172 -0.346151)
(-9.09814e-16 -0.429268 0.500956)
(-9.08681e-16 -0.461017 0.259197)
(-9.08701e-16 -0.47593 0.315448)
(-9.09129e-16 -0.719412 0.298444)
(-9.09921e-16 -0.41621 0.20106)
(-9.11063e-16 -0.287488 0.243726)
(-9.10518e-16 -0.631961 0.469855)
(-9.08605e-16 -1.1449 0.468378)
(-9.04054e-16 -1.41025 0.357712)
(-8.97264e-16 -1.09449 0.12192)
(-8.94548e-16 -0.0576209 -0.083077)
(-8.94175e-16 -1.26953 0.116134)
(-9.0126e-16 -1.59124 -0.189576)
(-9.03563e-16 -0.732173 -0.1037)
(-9.06107e-16 -0.579186 0.0308927)
(-9.04136e-16 -0.475325 0.0915586)
(-9.03557e-16 -0.109959 0.212008)
(-9.07797e-16 0.585992 0.0932756)
(-9.20372e-16 -1.99482 0.0364793)
(-9.04383e-16 -4.89085 -0.208559)
(-8.94027e-16 -2.22062 -0.240291)
(-8.26532e-16 0.488304 1.12211)
(-8.30991e-16 -0.335689 1.68879)
(-8.42967e-16 -0.528382 1.41881)
(-8.67777e-16 -1.21039 0.51055)
(-8.6777e-16 -0.70329 0.536887)
(-8.57245e-16 -0.844718 0.519239)
(-8.50675e-16 -1.51914 0.311019)
(-8.48893e-16 1.07884 0.51625)
(-8.46606e-16 -0.0213857 0.937239)
(-8.4697e-16 -1.31417 0.797951)
(-8.46988e-16 -2.03482 0.710062)
(-8.46596e-16 -0.696118 0.114873)
(-8.46724e-16 -0.580614 0.662486)
(-8.4659e-16 -1.03588 -0.103751)
(-8.45513e-16 -0.575196 -0.406443)
(-8.44792e-16 -0.393685 -0.693994)
(-8.45005e-16 -0.564572 -0.794551)
(-8.45348e-16 -0.711864 -0.914172)
(-8.45659e-16 -0.525971 -0.89407)
(-8.45688e-16 -0.434179 -0.934877)
(-8.45154e-16 -0.423862 -1.0662)
(-8.44437e-16 -0.322446 -1.16726)
(-8.43889e-16 -0.171778 -1.20624)
(-8.43733e-16 0.224423 -1.24792)
(-8.43813e-16 0.392961 -1.20784)
(-8.43855e-16 0.563595 -1.15909)
(-8.44046e-16 0.693902 -1.08905)
(-8.44689e-16 0.832702 -0.962209)
(-8.45392e-16 0.970481 -0.764337)
(-8.45629e-16 1.14586 -0.584486)
(-8.45289e-16 1.28154 -0.327274)
(-8.42689e-16 1.43786 -0.273874)
(-7.98672e-16 1.2731 0.017571)
(-6.31604e-16 -2.52532 -0.0659815)
(-4.82499e-16 -8.63965 -0.32905)
(-3.15379e-16 -8.0896 -0.304146)
(-2.14015e-16 -4.02552 -0.229771)
(-1.63519e-16 1.02574 -0.0191403)
(-1.59505e-16 0.194887 0.907929)
(-1.58691e-16 -1.16132 0.531655)
(-1.51031e-16 -0.206362 0.43791)
(-4.50062e-17 1.32052 0.146533)
(-5.06728e-17 1.12543 0.842345)
(-5.6682e-17 0.816977 0.797895)
(-6.17209e-17 0.695288 0.810834)
(-6.85512e-17 0.560069 0.822526)
(-7.47062e-17 0.450275 0.700284)
(-7.68029e-17 0.394217 0.537187)
(-7.63052e-17 0.162524 0.540698)
(-7.73118e-17 -0.0604208 0.55844)
(-7.60893e-17 -0.380822 0.632594)
(-6.28824e-17 -0.836149 0.800904)
(-2.93165e-17 -1.3132 0.788233)
(-3.90433e-17 -0.950767 0.504228)
(-1.1234e-16 0.893699 -0.48857)
(-1.60515e-16 1.85141 -0.231358)
(-1.81432e-16 2.56056 -0.0511909)
(-5.31321e-17 3.24968 -0.230227)
(-9.09701e-16 -0.436142 0.40714)
(-9.08646e-16 -0.477781 0.198867)
(-9.0873e-16 -0.556496 0.265284)
(-9.0917e-16 -0.749329 0.2378)
(-9.10015e-16 -0.417804 0.122266)
(-9.11074e-16 -0.432989 0.215209)
(-9.10453e-16 -0.801791 0.427933)
(-9.08443e-16 -1.24831 0.424901)
(-9.0386e-16 -1.48341 0.340336)
(-8.97181e-16 -1.19708 0.206071)
(-8.94649e-16 0.0157098 -0.11945)
(-8.94141e-16 -1.30982 0.0668598)
(-9.01136e-16 -1.68271 -0.21478)
(-9.0357e-16 -0.968593 -0.107356)
(-9.06004e-16 -0.826667 0.0481261)
(-9.04078e-16 -0.668166 0.24968)
(-9.03261e-16 -0.0785761 0.226937)
(-9.07312e-16 0.595519 0.149412)
(-9.20364e-16 -1.97572 0.101137)
(-9.0444e-16 -4.87079 -0.141475)
(-8.93381e-16 -2.10973 -0.232202)
(-8.27117e-16 0.348436 0.869007)
(-8.27885e-16 -0.169458 1.75313)
(-8.3426e-16 -0.372179 1.66487)
(-8.5823e-16 -0.907767 0.869523)
(-8.68988e-16 -0.956751 0.401393)
(-8.56482e-16 -1.02182 0.743041)
(-8.50566e-16 -1.42518 0.388945)
(-8.49256e-16 0.928368 0.505635)
(-8.46711e-16 -0.0608564 0.979681)
(-8.46973e-16 -1.29005 0.853858)
(-8.46974e-16 -1.94497 0.734821)
(-8.46596e-16 -0.594772 0.121451)
(-8.46729e-16 -0.493563 0.548504)
(-8.46597e-16 -0.890375 -0.10372)
(-8.45593e-16 -0.514608 -0.328647)
(-8.44857e-16 -0.284485 -0.614776)
(-8.44947e-16 -0.436032 -0.766549)
(-8.45284e-16 -0.630984 -0.927754)
(-8.45604e-16 -0.472215 -0.939838)
(-8.45713e-16 -0.331831 -0.926078)
(-8.45334e-16 -0.290429 -1.03743)
(-8.44717e-16 -0.195257 -1.16795)
(-8.44188e-16 -0.0357814 -1.25348)
(-8.4402e-16 0.33181 -1.29512)
(-8.4412e-16 0.370577 -1.19636)
(-8.44229e-16 0.532898 -1.12119)
(-8.44551e-16 0.654742 -1.02038)
(-8.45116e-16 0.78033 -0.87405)
(-8.45544e-16 0.917198 -0.689819)
(-8.45635e-16 1.08533 -0.537687)
(-8.45263e-16 1.23346 -0.292319)
(-8.42467e-16 1.3821 -0.265737)
(-7.96016e-16 1.24946 -0.00182574)
(-6.32734e-16 -2.53551 -0.0692185)
(-4.83136e-16 -8.61939 -0.323205)
(-3.16164e-16 -8.09939 -0.290082)
(-2.14564e-16 -3.98045 -0.226297)
(-1.63319e-16 0.873735 0.0332775)
(-1.60732e-16 0.117525 0.986492)
(-1.59433e-16 -1.00113 0.576895)
(-1.45048e-16 0.286933 0.293345)
(-4.14013e-17 1.19262 0.181194)
(-4.51966e-17 1.03102 0.84589)
(-5.14416e-17 0.768098 0.838066)
(-5.69641e-17 0.695926 0.874958)
(-6.45298e-17 0.539291 0.855112)
(-7.35139e-17 0.40151 0.750202)
(-7.84649e-17 0.382459 0.617661)
(-7.76009e-17 0.124215 0.604785)
(-7.73475e-17 -0.0814577 0.599202)
(-7.39481e-17 -0.469126 0.658573)
(-5.77482e-17 -0.932748 0.808448)
(-2.82733e-17 -1.25506 0.760753)
(-4.11471e-17 -0.759847 0.447381)
(-1.17072e-16 0.990893 -0.532822)
(-1.66572e-16 1.79013 -0.193257)
(-1.85271e-16 2.54358 -0.0387735)
(-4.501e-17 3.31543 -0.131214)
(-9.09559e-16 -0.402842 0.369728)
(-9.0861e-16 -0.44065 0.196737)
(-9.0877e-16 -0.526248 0.272776)
(-9.09227e-16 -0.694294 0.242211)
(-9.10106e-16 -0.377646 0.107909)
(-9.11056e-16 -0.388589 0.161074)
(-9.10357e-16 -0.746946 0.388636)
(-9.0823e-16 -1.19256 0.393953)
(-9.0362e-16 -1.40737 0.319359)
(-8.97105e-16 -1.10705 0.207713)
(-8.94667e-16 0.0392353 -0.0964761)
(-8.94099e-16 -1.26788 0.0448257)
(-9.00972e-16 -1.6311 -0.236852)
(-9.03565e-16 -0.913394 -0.114062)
(-9.05875e-16 -0.765095 0.138745)
(-9.03984e-16 -0.660044 0.242079)
(-9.03106e-16 -0.0420247 0.218986)
(-9.06924e-16 0.608423 0.179014)
(-9.2036e-16 -1.95387 0.109565)
(-9.0452e-16 -4.85783 -0.120145)
(-8.92343e-16 -2.22509 -0.187165)
(-8.24758e-16 0.0193879 1.00292)
(-8.25972e-16 -0.307456 1.81513)
(-8.28905e-16 -0.322405 1.84421)
(-8.49975e-16 -0.762204 1.17068)
(-8.68692e-16 -0.845481 0.511772)
(-8.55822e-16 -0.944742 0.770785)
(-8.50449e-16 -1.33328 0.403338)
(-8.49503e-16 0.862301 0.528524)
(-8.46814e-16 -0.0757412 0.995576)
(-8.46964e-16 -1.28947 0.833726)
(-8.46958e-16 -1.8694 0.694366)
(-8.46599e-16 -0.616866 0.104841)
(-8.46735e-16 -0.51711 0.475474)
(-8.46598e-16 -0.847427 -0.120757)
(-8.45695e-16 -0.476516 -0.290214)
(-8.4497e-16 -0.294456 -0.523151)
(-8.44901e-16 -0.452667 -0.721175)
(-8.45205e-16 -0.649186 -0.906005)
(-8.45531e-16 -0.521195 -0.939363)
(-8.45714e-16 -0.378874 -0.903069)
(-8.45501e-16 -0.323808 -0.980328)
(-8.45011e-16 -0.23528 -1.11073)
(-8.44529e-16 -0.0895559 -1.20801)
(-8.44361e-16 0.248151 -1.24702)
(-8.44462e-16 0.355009 -1.14961)
(-8.44579e-16 0.52475 -1.06583)
(-8.44875e-16 0.641007 -0.95248)
(-8.45303e-16 0.760065 -0.809074)
(-8.45564e-16 0.894564 -0.642457)
(-8.45607e-16 1.05713 -0.506092)
(-8.45223e-16 1.21269 -0.268053)
(-8.4221e-16 1.36466 -0.258166)
(-7.9356e-16 1.23153 -0.00515358)
(-6.33957e-16 -2.46355 -0.0597771)
(-4.83907e-16 -8.58549 -0.317365)
(-3.17116e-16 -8.11258 -0.278092)
(-2.15168e-16 -4.01555 -0.223551)
(-1.63173e-16 0.798403 0.119121)
(-1.61651e-16 0.0159466 0.971245)
(-1.59613e-16 -0.902879 0.625111)
(-1.36768e-16 0.313149 0.247008)
(-4.09113e-17 1.13197 0.270629)
(-4.35238e-17 0.998797 0.868589)
(-4.88731e-17 0.788887 0.886021)
(-5.5147e-17 0.699574 0.940794)
(-6.329e-17 0.560397 0.923928)
(-7.23388e-17 0.433496 0.813425)
(-7.75474e-17 0.361059 0.691732)
(-7.6496e-17 0.131842 0.674006)
(-7.59643e-17 -0.102362 0.655432)
(-7.01444e-17 -0.463234 0.722912)
(-5.17388e-17 -0.915332 0.853274)
(-2.73969e-17 -1.19907 0.75648)
(-4.37684e-17 -0.621025 0.35405)
(-1.19784e-16 1.03864 -0.556192)
(-1.68477e-16 1.75149 -0.177684)
(-1.86368e-16 2.53091 -0.0382848)
(-4.27465e-17 3.34273 -0.092424)
(-9.09411e-16 -0.3842 0.340308)
(-9.08587e-16 -0.43367 0.203614)
(-9.08818e-16 -0.529878 0.282435)
(-9.09294e-16 -0.66619 0.246747)
(-9.10194e-16 -0.399996 0.0959721)
(-9.11019e-16 -0.417252 0.136677)
(-9.10237e-16 -0.755082 0.372585)
(-9.07986e-16 -1.17581 0.378776)
(-9.03358e-16 -1.36924 0.306221)
(-8.97046e-16 -1.0719 0.192512)
(-8.9468e-16 0.0764046 -0.0873965)
(-8.94056e-16 -1.24428 0.0394684)
(-9.00794e-16 -1.61744 -0.245876)
(-9.03532e-16 -0.913162 -0.125869)
(-9.05792e-16 -0.741677 0.153027)
(-9.03907e-16 -0.713916 0.208313)
(-9.03003e-16 -0.0124972 0.207185)
(-9.06571e-16 0.620932 0.200439)
(-9.20355e-16 -1.93155 0.112566)
(-9.04612e-16 -4.83474 -0.106922)
(-8.91074e-16 -2.29914 -0.140428)
(-8.23986e-16 -0.340454 1.17346)
(-8.25847e-16 -0.372192 1.8604)
(-8.25304e-16 -0.271077 1.99498)
(-8.41076e-16 -0.587266 1.45087)
(-8.67815e-16 -0.871949 0.622014)
(-8.55542e-16 -0.929329 0.782806)
(-8.50333e-16 -1.25963 0.404587)
(-8.49868e-16 0.761008 0.554321)
(-8.47045e-16 -0.0850977 1.00248)
(-8.46939e-16 -1.27067 0.789656)
(-8.46943e-16 -1.7888 0.639868)
(-8.46604e-16 -0.580653 0.097317)
(-8.46738e-16 -0.509047 0.434638)
(-8.46589e-16 -0.792347 -0.11245)
(-8.45805e-16 -0.425752 -0.252067)
(-8.4511e-16 -0.251377 -0.460954)
(-8.44889e-16 -0.426069 -0.679457)
(-8.45128e-16 -0.621262 -0.877936)
(-8.4545e-16 -0.528724 -0.931917)
(-8.45686e-16 -0.384589 -0.88952)
(-8.45617e-16 -0.30879 -0.929413)
(-8.45264e-16 -0.219332 -1.04361)
(-8.44857e-16 -0.0775427 -1.14239)
(-8.44707e-16 0.240469 -1.17905)
(-8.44799e-16 0.346497 -1.08394)
(-8.44913e-16 0.507135 -0.995332)
(-8.45169e-16 0.614737 -0.876604)
(-8.45451e-16 0.729863 -0.744243)
(-8.45566e-16 0.86416 -0.595381)
(-8.45582e-16 1.02088 -0.470325)
(-8.45183e-16 1.18407 -0.239781)
(-8.41905e-16 1.33802 -0.248693)
(-7.91089e-16 1.21257 -0.00871613)
(-6.35124e-16 -2.4355 -0.0484061)
(-4.84689e-16 -8.56449 -0.311779)
(-3.18083e-16 -8.1306 -0.266565)
(-2.15703e-16 -4.05896 -0.219247)
(-1.6312e-16 0.691569 0.190223)
(-1.62101e-16 -0.105683 0.898927)
(-1.58821e-16 -0.822649 0.650814)
(-1.26262e-16 0.276499 0.209614)
(-4.0466e-17 1.03842 0.343779)
(-4.18883e-17 0.940008 0.89277)
(-4.58186e-17 0.774258 0.940235)
(-5.19309e-17 0.702946 1.00586)
(-6.02789e-17 0.575897 0.986115)
(-6.90677e-17 0.463846 0.878182)
(-7.43595e-17 0.394197 0.765132)
(-7.36842e-17 0.154911 0.743962)
(-7.29848e-17 -0.111517 0.71902)
(-6.51134e-17 -0.47225 0.793443)
(-4.60762e-17 -0.90799 0.884119)
(-2.69916e-17 -1.14322 0.733874)
(-4.65999e-17 -0.512761 0.244945)
(-1.23495e-16 1.07581 -0.586805)
(-1.71028e-16 1.70811 -0.165795)
(-1.88086e-16 2.51611 -0.0346122)
(-4.02727e-17 3.37272 -0.0715261)
(-9.0927e-16 -0.370759 0.317817)
(-9.08583e-16 -0.4286 0.216738)
(-9.08877e-16 -0.53216 0.292972)
(-9.09372e-16 -0.633818 0.248)
(-9.10282e-16 -0.397583 0.0864689)
(-9.10969e-16 -0.442675 0.125313)
(-9.10095e-16 -0.770385 0.362336)
(-9.07721e-16 -1.16813 0.367886)
(-9.03091e-16 -1.34232 0.29395)
(-8.96996e-16 -1.04382 0.178215)
(-8.94706e-16 0.0773285 -0.0835292)
(-8.94012e-16 -1.21501 0.0349847)
(-9.00607e-16 -1.61326 -0.253882)
(-9.03477e-16 -0.951061 -0.1421)
(-9.05737e-16 -0.76341 0.140555)
(-9.03852e-16 -0.752483 0.177337)
(-9.02911e-16 0.000801669 0.190098)
(-9.06167e-16 0.634294 0.215168)
(-9.20347e-16 -1.91074 0.116933)
(-9.04712e-16 -4.82091 -0.0974675)
(-8.89873e-16 -2.38622 -0.0992959)
(-8.23818e-16 -0.527351 1.21845)
(-8.27667e-16 -0.448084 1.8414)
(-8.24466e-16 -0.2452 2.09546)
(-8.32287e-16 -0.443727 1.70289)
(-8.65736e-16 -0.876673 0.844753)
(-8.55717e-16 -0.919316 0.790969)
(-8.50197e-16 -1.18723 0.401347)
(-8.50313e-16 0.66879 0.596157)
(-8.47499e-16 -0.0845588 0.99068)
(-8.4689e-16 -1.23762 0.729488)
(-8.4693e-16 -1.72063 0.578608)
(-8.4661e-16 -0.550904 0.093779)
(-8.46735e-16 -0.498939 0.404351)
(-8.46579e-16 -0.742836 -0.103506)
(-8.45908e-16 -0.381186 -0.217771)
(-8.45258e-16 -0.216816 -0.40512)
(-8.44907e-16 -0.392194 -0.633104)
(-8.45062e-16 -0.589515 -0.844267)
(-8.45368e-16 -0.530353 -0.919904)
(-8.45633e-16 -0.389568 -0.883023)
(-8.45677e-16 -0.295227 -0.89079)
(-8.45456e-16 -0.200646 -0.978354)
(-8.4514e-16 -0.0630498 -1.06844)
(-8.45019e-16 0.226691 -1.09924)
(-8.45098e-16 0.328219 -1.005)
(-8.45197e-16 0.48407 -0.915137)
(-8.4539e-16 0.590104 -0.801267)
(-8.45527e-16 0.705316 -0.686381)
(-8.45537e-16 0.838731 -0.551329)
(-8.45556e-16 0.989361 -0.432607)
(-8.45136e-16 1.15992 -0.210204)
(-8.4156e-16 1.31865 -0.237476)
(-7.88531e-16 1.19381 -0.00411716)
(-6.36185e-16 -2.41662 -0.0392539)
(-4.85451e-16 -8.54439 -0.305463)
(-3.19023e-16 -8.14634 -0.254005)
(-2.16154e-16 -4.09603 -0.213794)
(-1.63119e-16 0.588576 0.245196)
(-1.62187e-16 -0.172535 0.861462)
(-1.56878e-16 -0.739179 0.657925)
(-1.13801e-16 0.296076 0.177628)
(-4.07429e-17 0.955738 0.410338)
(-4.1154e-17 0.884796 0.918518)
(-4.35289e-17 0.758886 0.993923)
(-4.88216e-17 0.701973 1.07012)
(-5.64672e-17 0.590104 1.05154)
(-6.43899e-17 0.482855 0.95185)
(-6.9495e-17 0.405665 0.849984)
(-6.93932e-17 0.170538 0.823855)
(-6.87075e-17 -0.120479 0.792497)
(-5.93651e-17 -0.486222 0.863453)
(-4.10805e-17 -0.895855 0.90391)
(-2.70597e-17 -1.05813 0.694609)
(-4.94856e-17 -0.364007 0.112032)
(-1.27967e-16 1.09838 -0.610064)
(-1.73212e-16 1.66314 -0.155756)
(-1.89604e-16 2.50168 -0.0315386)
(-4.00607e-17 3.38952 -0.00386706)
(-9.09146e-16 -0.360323 0.303376)
(-9.08598e-16 -0.426628 0.235115)
(-9.08946e-16 -0.53224 0.305039)
(-9.09461e-16 -0.600192 0.247983)
(-9.10362e-16 -0.389941 0.0786343)
(-9.10901e-16 -0.451759 0.122987)
(-9.09933e-16 -0.78499 0.355711)
(-9.07439e-16 -1.16115 0.357841)
(-9.02821e-16 -1.31618 0.280427)
(-8.96953e-16 -1.01333 0.163038)
(-8.94755e-16 0.0894289 -0.0924866)
(-8.93967e-16 -1.17714 0.0301587)
(-9.00412e-16 -1.60383 -0.262262)
(-9.03402e-16 -0.984824 -0.161745)
(-9.05679e-16 -0.774682 0.122535)
(-9.03875e-16 -0.777341 0.145302)
(-9.02825e-16 0.00434644 0.169389)
(-9.05727e-16 0.648012 0.222352)
(-9.20337e-16 -1.89157 0.120483)
(-9.04823e-16 -4.81307 -0.0926088)
(-8.88893e-16 -2.49024 -0.0679719)
(-8.25229e-16 -0.726584 1.21987)
(-8.32005e-16 -0.560788 1.78482)
(-8.26764e-16 -0.238557 2.12894)
(-8.24155e-16 -0.319192 1.88923)
(-8.57159e-16 -0.72094 1.09225)
(-8.56623e-16 -0.874429 0.789933)
(-8.49985e-16 -1.11813 0.390501)
(-8.50939e-16 0.578066 0.66989)
(-8.4828e-16 -0.0781809 0.953188)
(-8.46812e-16 -1.20103 0.658844)
(-8.4692e-16 -1.66043 0.511566)
(-8.46617e-16 -0.531936 0.0892782)
(-8.46732e-16 -0.48446 0.385615)
(-8.46572e-16 -0.695674 -0.0998848)
(-8.46e-16 -0.353714 -0.199536)
(-8.45399e-16 -0.183113 -0.357668)
(-8.44951e-16 -0.353675 -0.582491)