/*--------------------------------*- C++ -*----------------------------------*\
| =========                 |                                                 |
| \\      /  F ield         | OpenFOAM: The Open Source CFD Toolbox           |
|  \\    /   O peration     | Version:  4.1                                   |
|   \\  /    A nd           | Web:      www.OpenFOAM.org                      |
|    \\/     M anipulation  |                                                 |
\*---------------------------------------------------------------------------*/
FoamFile
{
    version     2.0;
    format      ascii;
    class       surfaceScalarField;
    location    "8";
    object      phi;
}
// * * * * * * * * * * * * * * * * * * * * * * * * * * * * * * * * * * * * * //

dimensions      [0 3 -1 0 0 0 0];

internalField   nonuniform List<scalar> 
13220
(
-800.588
2100.49
-1256.21
1755.82
-1722.32
1766.02
-2067.02
1644.59
-2350.57
1583.75
-2556.34
1505.67
-2692.14
1435.7
-2757.07
1365.14
-2755.34
1298.17
-2685.79
1230.35
-2538.3
1152.71
-2276.69
1038.29
-1812.59
835.801
-1043.55
531.16
256.353
-211.687
2312.18
-471.922
2016.06
-757.445
2051.54
-982.117
1869.27
-1197.77
1799.41
-1367.45
1675.35
-1509.23
1577.48
-1614.29
1470.2
-1688.65
1372.54
-1729.37
1271.07
-1715.73
1139.07
-1592.99
915.548
-1271.54
514.354
-621.996
-118.382
-365.642
-113.169
2425.35
-295.675
2198.56
-415.437
2171.31
-477.97
1931.8
-526.669
1848.11
-533.24
1681.92
-516.644
1560.89
-471.825
1425.38
-402.621
1303.33
-312.007
1180.46
-208.506
1035.57
-111.981
819.029
-44.9075
447.296
-0.277992
-162.994
-365.92
103.813
2321.53
105.076
2197.3
159.392
2116.99
236.117
1855.08
316.697
1767.53
417.409
1581.21
526.196
1452.1
642.031
1309.54
757.997
1187.37
871.042
1067.41
966.056
940.554
991.717
793.366
845.96
593.053
313.039
369.924
-52.8813
94.001
2227.53
140.388
2150.91
207.046
2050.33
274.979
1787.14
341.539
1700.97
419.261
1503.49
497.184
1374.18
599.868
1206.86
720.868
1066.37
837.75
950.53
907.307
870.996
889.061
811.613
726.588
755.527
424.581
671.932
371.7
-11.7276
2239.26
1.7664
2137.42
7.21839
2044.88
-17.5047
1811.87
-44.7834
1728.25
-87.6347
1546.34
-110.492
1397.03
-56.5727
1152.94
96.8914
912.903
318.501
728.918
534.25
655.247
652.255
693.604
588.107
819.671
352.736
907.299
724.436
-113.068
2352.33
-262.197
2286.55
-386.517
2169.2
-551.385
1976.73
-722.155
1899.02
-922.228
1746.41
-1113.17
1587.98
-1255.58
1295.35
-1311.86
969.179
-1258.72
675.78
-1076.78
473.305
-765.365
382.192
-394.21
448.516
-99.8692
612.959
624.567
53.3732
2298.96
-168.288
2508.21
-315.378
2316.29
-450.092
2111.45
-575.493
2024.42
-709.617
1880.53
-865.024
1743.38
-1066.49
1496.82
-1305.47
1208.16
-1536.34
906.65
-1677.64
614.605
-1616.77
321.318
-1252.83
84.5752
-613.649
-26.2264
10.9182
327.086
1971.87
240.417
2594.88
171.008
2385.7
163.89
2118.56
200.25
1988.06
244.677
1836.11
282.223
1705.84
254.333
1524.71
147.832
1314.66
-23.3784
1077.86
-225.124
816.35
-421.195
517.39
-514.304
177.684
-406.773
-133.758
-395.855
375.847
1596.02
444.443
2526.28
462.254
2367.89
530.17
2050.65
645.371
1872.86
769.805
1711.67
900.561
1575.08
1001.89
1423.38
1052.85
1263.69
1038.01
1092.7
945.398
908.961
751.701
711.084
452.051
477.332
112.222
206.067
-283.633
214.245
1381.78
295.39
2445.14
341.032
2322.24
402.554
1989.13
487.462
1787.95
574.315
1624.82
657.708
1491.69
726.696
1354.39
770.862
1219.52
778.299
1085.26
741.245
946.015
650.685
801.644
495.705
632.311
277.488
424.283
-6.14497
72.5168
1309.26
143.235
2374.42
202.865
2262.61
244.536
1947.46
288.378
1744.11
329.763
1583.43
367.33
1454.12
395.306
1326.42
412.919
1201.91
418.15
1080.03
406.671
957.493
371.401
836.912
296.634
707.077
162.691
558.222
156.546
42.58
1266.68
125.087
2291.91
226.716
2160.98
336.261
1837.91
443.784
1636.58
531.947
1495.27
594.781
1391.29
632.993
1288.2
647.864
1187.04
645.442
1082.45
621.909
981.027
565.277
893.544
452.119
820.235
264.436
745.904
420.982
182.965
1083.71
307.37
2167.5
279.015
2189.34
193.663
1923.26
136.276
1693.97
118.903
1512.64
155.026
1355.16
244.485
1198.74
375.358
1056.17
514.48
943.331
615.421
880.085
612.821
896.143
478.437
954.619
252.664
971.676
673.646
490.125
1481.76
2172.96
2375.89
2243.49
1992.22
1641.03
1295.81
990.869
785.681
602.556
457.767
320.937
206.685
1.07524e-05
-20.532
20.532
-20.5319
-20.5319
-20.5319
142.292
-162.824
142.292
142.292
142.292
297.26
-154.968
297.26
297.26
431.899
-134.639
431.899
431.899
431.899
539.273
-107.374
539.273
539.273
616.032
-76.7592
616.032
616.032
616.032
651.947
-35.9147
651.947
651.947
651.947
644.214
7.73258
644.214
644.214
616.348
27.8658
616.348
616.348
616.348
552.969
63.3792
552.969
552.969
458.039
94.9297
458.039
458.039
458.039
356.165
101.874
356.165
356.165
356.165
298.786
57.3792
298.786
298.786
263.91
34.8765
263.91
263.91
263.91
191.033
72.877
191.033
191.033
191.033
56.0529
134.98
56.0529
56.0529
-107.406
163.459
-107.406
-107.406
-107.406
-398.558
291.152
-398.558
-398.558
-1202.8
804.24
-1202.8
-1202.8
-1202.8
-2526.03
1323.23
-2526.03
-2526.03
-2526.03
-4218.97
1692.93
-4218.97
-4218.97
-6141.76
1922.8
-6141.76
-6141.76
-5979.3
-5817.42
-5652.14
-7588.7
2105.27
-7423.93
-7234.49
-7032.4
-6829.5
-6624.84
-6418.22
-6213.77
-6012.92
-8120.35
2312.18
-7914.59
-7707.7
-7501.38
-7310.73
-7117.96
-6922.97
-6726.84
-6527.79
-8821.54
2487.04
-8623.98
-8424.19
-8222.35
-8018.91
-7812.79
-7602.39
-7389.34
-7173.2
-6953.2
-9475.91
2740.76
-9230.09
-8978.89
-8723.65
-8465.42
-8204.31
-7924.78
-7634.33
-7341.12
-9893.51
2831.91
-9598.69
-9292.82
-8971.26
-8650.45
-8329.88
-8011.15
-7692.66
-7350.98
-9365.26
2335.8
-9034
-8703.01
-8372.4
-8026.3
-7674.98
-7327.39
-6982.41
-6642.29
-7904.21
1590.75
-7563.68
-7233.57
-6912.37
-6602.15
-6303.58
-5998.86
-5707.32
-5427.89
-5160.41
-4909.91
23.1956
-4669.95
-4445.1
-4222.93
-4004.36
-3787.87
-3609.06
-3501.54
-3390.74
-3145.29
-123.792
-3040.75
-2939.03
-2939.03
-2847.16
-91.8657
-2735.32
-111.845
-2735.32
-2650.95
-84.3704
-2650.95
-2588.9
-62.0439
-2530.08
-58.8252
-2530.08
-2487.82
-42.2627
-2444.64
-43.1802
-2444.64
-2409.48
-35.1548
-2409.48
-2384.28
-25.2005
-2351.66
-32.6188
-2351.66
-2324.04
-27.6223
-2324.04
-2305.57
-18.4706
-2277.09
-28.4736
-2277.09
-2260.5
-16.593
-2237.97
-22.5358
-2237.97
-2224.31
-13.6573
-2224.31
-2223.32
-0.988917
-2216.49
-6.8266
-2216.49
-2218.13
1.6364
-2218.13
-2232.22
14.0941
-2233.08
0.857838
-2233.08
-2248.04
14.9636
-2249.3
1.25514
-2249.3
-2257.9
8.5975
-2257.9
-2274.99
17.0962
-2273.5
-1.49473
-2273.5
-2275.14
1.63828
-2275.14
-2282.05
6.90929
-2268.6
-13.4508
-2268.6
-2264.94
-3.65193
-2244.95
-19.9987
-2244.95
-2228.48
-16.4667
-2228.48
-2216.14
-12.3379
-2185.9
-30.2399
-2185.9
-2153.8
-32.102
-2153.8
-2120.56
-33.2382
-2068.94
-51.6181
-2068.94
-2017
-51.9444
-1951.83
-65.1626
-1951.83
-1881.2
-70.6306
-1881.2
-1805.81
-75.3963
-1720.61
-85.1949
-1720.61
-1628.51
-92.107
-1628.51
-1531.95
-96.5594
-1429.36
-102.583
-1429.36
-1317.92
-111.442
-1204.93
-112.996
-1204.93
-1083.45
-121.473
-1083.45
-129.122
-14.736
-71.8226
-14.6469
-93.9672
-14.7059
-108.754
-14.7932
-122.953
-14.9497
-136.979
-15.1475
-150.354
-15.3982
-163.623
-15.6937
-176.633
-16.0374
-189.594
-16.4265
-202.493
-16.8621
-215.426
-17.3432
-228.419
-17.8701
-241.529
-18.4426
-254.788
-19.0607
-268.237
-19.7246
-281.908
-20.4347
-295.836
-21.1913
-310.051
-21.9949
-324.582
-22.8463
-339.457
-23.7462
-354.705
-24.6956
-370.351
-25.6954
-386.422
-26.7468
-402.943
-27.8512
-419.94
-29.0098
-437.437
-30.224
-455.46
-31.4955
-474.032
-32.8256
-493.177
-34.2159
-512.918
-35.6677
-533.275
-37.1823
-554.267
-38.7605
-575.908
-40.4027
-598.21
-42.1087
-621.173
-43.8772
-644.791
-45.706
-669.045
-47.5912
-693.898
-49.5271
-719.295
-51.5059
-745.159
-53.5175
-771.39
-55.5493
-797.862
-57.5861
-824.428
-59.6108
-850.931
-61.6043
-877.209
-63.5463
-903.111
-65.4155
-928.514
-67.1895
-953.333
-68.8448
-977.525
-70.3551
-1001.08
-71.6898
-1024.02
-72.811
-1046.34
-73.6701
-1068.02
-74.2019
-1088.94
-74.3149
-1108.88
-73.878
-1127.37
-72.7045
-1143.54
-70.5392
-1155.9
-67.0561
-1162.1
-61.8627
-1158.9
-54.5313
-1142.12
-44.6333
-1106.04
-31.8529
-1043.7
-16.1222
-944.618
2.14237
-793.31
22.8476
-567.06
43.3054
-170.458
52.5732
430.344
56.7147
783.308
59.1974
1124.12
58.452
1420.66
56.7586
1723.21
50.8847
1954.17
49.4763
2265.54
40.832
2370.16
49.4545
2793.09
45.1107
2616.78
64.4314
3312.59
3833.29
-16.3728
-72.0444
-16.2244
-94.1156
-16.2637
-108.714
-16.3401
-122.877
-16.4982
-136.821
-16.7043
-150.148
-16.9704
-163.357
-17.2865
-176.317
-17.6561
-189.224
-18.0758
-202.073
-18.5464
-214.956
-19.0667
-227.899
-19.6368
-240.959
-20.2563
-254.168
-20.9253
-267.568
-21.6437
-281.19
-22.412
-295.068
-23.2303
-309.232
-24.0993
-323.713
-25.0195
-338.537
-25.9919
-353.732
-27.0172
-369.325
-28.0966
-385.342
-29.2313
-401.808
-30.4224
-418.748
-31.6715
-436.188
-32.98
-454.151
-34.3494
-472.663
-35.7812
-491.745
-37.2767
-511.422
-38.8374
-531.714
-40.464
-552.64
-42.1572
-574.215
-43.9168
-596.45
-45.742
-619.348
-47.6305
-642.903
-49.5787
-667.096
-51.5813
-691.895
-53.6306
-717.246
-55.7169
-743.073
-57.8274
-769.279
-59.9475
-795.741
-62.0601
-822.316
-64.1464
-848.845
-66.1868
-875.168
-68.1614
-901.136
-70.0501
-926.625
-71.8322
-951.551
-73.4859
-975.871
-74.9858
-999.584
-76.3007
-1022.71
-77.3907
-1045.25
-78.2022
-1067.21
-78.6613
-1088.48
-78.6617
-1108.88
-78.0468
-1127.98
-76.592
-1145
-73.9947
-1158.49
-69.88
-1166.21
-63.8089
-1164.97
-55.3184
-1150.61
-43.9609
-1117.4
-29.4293
-1058.23
-11.7337
-962.313
8.69624
-813.74
31.305
-589.669
53.5373
-192.691
59.9371
423.944
60.4558
782.789
61.2431
1123.33
59.6142
1422.29
57.0781
1725.75
50.8195
1960.43
48.9423
2267.41
40.3187
2378.78
48.5204
2784.89
44.2595
2621.04
63.8189
3293.03
3775.63
-17.2577
-72.2988
-17.0883
-94.285
-17.1155
-108.687
-17.1872
-122.805
-17.3461
-136.662
-17.5573
-149.936
-17.8319
-163.082
-18.1597
-175.989
-18.5437
-188.84
-18.9804
-201.636
-19.4704
-214.466
-20.0123
-227.357
-20.6062
-240.365
-21.2516
-253.523
-21.9485
-266.871
-22.6969
-280.441
-23.497
-294.268
-24.3491
-308.38
-25.2538
-322.808
-26.2117
-337.579
-27.2236
-352.72
-28.2904
-368.259
-29.4132
-384.219
-30.5932
-400.628
-31.8317
-417.51
-33.1301
-434.89
-34.49
-452.791
-35.9127
-471.24
-37.3997
-490.258
-38.9525
-509.869
-40.5723
-530.094
-42.2598
-550.953
-44.0153
-572.46
-45.8386
-594.627
-47.7281
-617.458
-49.6812
-640.95
-51.6936
-665.084
-53.7588
-689.83
-55.8684
-715.136
-58.0112
-740.93
-60.1734
-767.117
-62.3391
-793.576
-64.4902
-820.165
-66.6077
-846.727
-68.6719
-873.104
-70.6634
-899.145
-72.5631
-924.726
-74.3516
-949.762
-76.0081
-974.215
-77.5077
-998.084
-78.8188
-1021.39
-79.8999
-1044.17
-80.6948
-1066.41
-81.125
-1088.05
-81.0755
-1108.93
-80.3749
-1128.68
-78.7763
-1146.6
-75.9505
-1161.32
-71.4964
-1170.67
-64.9503
-1171.52
-55.8304
-1159.73
-43.677
-1129.55
-28.1793
-1073.73
-9.3752
-981.118
12.355
-835.47
35.7578
-613.072
61.4835
-218.416
70.2218
415.206
67.2682
785.743
64.9246
1125.67
61.6465
1425.56
57.9211
1729.47
50.8662
1967.49
48.383
2269.9
39.5039
2387.66
47.2624
2777.13
42.7179
2625.58
63.934
3271.82
3726.57
-18.2876
-72.5827
-18.0996
-94.4729
-18.1167
-108.67
-18.1853
-122.736
-18.3469
-136.501
-18.5654
-149.718
-18.8513
-162.796
-19.194
-175.646
-19.596
-188.438
-20.0537
-201.179
-20.5675
-213.952
-21.1358
-226.789
-21.7588
-239.742
-22.4356
-252.846
-23.1664
-266.14
-23.951
-279.657
-24.7897
-293.429
-25.6827
-307.487
-26.6306
-321.86
-27.6339
-336.576
-28.6936
-351.661
-29.8104
-367.142
-30.9856
-383.044
-32.2203
-399.393
-33.5159
-416.214
-34.8738
-433.532
-36.2955
-451.37
-37.7825
-469.753
-39.3363
-488.704
-40.9582
-508.247
-42.6494
-528.403
-44.4105
-549.191
-46.2416
-570.629
-48.142
-592.726
-50.1098
-615.491
-52.1418
-638.918
-54.2327
-662.993
-56.3752
-687.687
-58.5595
-712.952
-60.773
-738.717
-63.0007
-764.89
-65.2249
-791.352
-67.4266
-817.963
-69.5857
-844.568
-71.6824
-871.007
-73.6978
-897.129
-75.6137
-922.81
-77.4122
-947.964
-79.0736
-972.554
-80.5738
-996.584
-81.8812
-1020.09
-82.953
-1043.1
-83.7306
-1065.63
-84.1309
-1087.65
-84.0305
-1109.03
-83.2418
-1129.47
-81.4938
-1148.34
-78.4264
-1164.39
-73.607
-1175.49
-66.5404
-1178.59
-56.7188
-1169.55
-43.661
-1142.61
-27.0422
-1090.35
-6.90966
-1001.25
16.4046
-858.784
41.3794
-638.047
70.0108
-247.048
81.8735
403.343
77.3009
790.315
70.6863
1132.29
64.7133
1431.54
59.2948
1734.89
51.125
1975.66
47.7627
2273.26
38.5555
2396.87
45.6741
2770.01
40.8242
2630.43
60.3731
3252.27
3675.5
-19.2661
-72.8862
-19.0677
-94.6714
-19.0769
-108.661
-19.1443
-122.669
-19.3097
-136.335
-19.5363
-149.491
-19.8339
-162.499
-20.1916
-175.289
-20.6117
-188.018
-21.0903
-200.7
-21.6277
-213.415
-22.2221
-226.194
-22.8736
-239.091
-23.5813
-252.138
-24.3453
-265.376
-25.1654
-278.837
-26.0417
-292.553
-26.9746
-306.554
-27.9646
-320.87
-29.0122
-335.528
-30.1184
-350.555
-31.2839
-365.976
-32.5101
-381.818
-33.798
-398.105
-35.1491
-414.863
-36.5648
-432.116
-38.0467
-449.888
-39.5962
-468.203
-41.2149
-487.086
-42.904
-506.558
-44.6646
-526.643
-46.4973
-547.359
-48.4019
-568.724
-50.3774
-590.751
-52.4215
-613.446
-54.5304
-636.809
-56.6979
-660.826
-58.916
-685.469
-61.1734
-710.694
-63.4563
-736.434
-65.7482
-762.598
-68.03
-789.07
-70.2816
-815.711
-72.482
-842.368
-74.6114
-868.878
-76.6511
-895.09
-78.5843
-920.877
-80.3944
-946.154
-82.0631
-970.885
-83.5672
-995.08
-84.8752
-1018.78
-85.9433
-1042.03
-86.7109
-1064.87
-87.0916
-1087.27
-86.9542
-1109.16
-86.0968
-1130.33
-84.2247
-1150.22
-80.9479
-1167.66
-75.8031
-1180.63
-68.2642
-1186.13
-57.7961
-1180.02
-43.8931
-1156.51
-26.2086
-1108.04
-4.77753
-1022.68
20.1326
-883.695
46.8006
-664.715
78.1555
-278.403
94.5024
386.996
90.2685
794.549
79.1262
1143.43
69.1861
1441.48
61.3583
1742.72
51.6469
1985.37
47.1383
2277.77
37.403
2406.6
43.8184
2763.6
38.4874
2635.77
58.9788
3231.78
3631.9
-20.2387
-73.2033
-20.0348
-94.8754
-20.0386
-108.657
-20.1069
-122.601
-20.2773
-136.165
-20.5132
-149.255
-20.8236
-162.188
-21.1973
-174.915
-21.6364
-187.579
-22.1368
-200.2
-22.6985
-212.853
-23.3199
-225.573
-24.0007
-238.41
-24.7402
-251.399
-25.5382
-264.578
-26.3946
-277.98
-27.3095
-291.638
-28.2832
-305.581
-29.3162
-319.837
-30.409
-334.435
-31.5626
-349.401
-32.7779
-364.761
-34.0559
-380.54
-35.3981
-396.763
-36.8058
-413.456
-38.2804
-430.641
-39.8236
-448.345
-41.4368
-466.59
-43.1216
-485.401
-44.8793
-504.801
-46.7107
-524.811
-48.6164
-545.453
-50.596
-566.744
-52.6483
-588.699
-54.7705
-611.324
-56.9581
-634.621
-59.2045
-658.579
-61.5002
-683.173
-63.8331
-708.361
-66.188
-734.079
-68.5467
-760.239
-70.889
-786.727
-73.1931
-813.407
-75.4376
-840.123
-77.6022
-866.713
-79.6687
-893.023
-81.6216
-918.924
-83.4456
-944.33
-85.1242
-969.206
-86.6353
-993.568
-87.9474
-1017.47
-89.0164
-1040.96
-89.7803
-1064.1
-90.1497
-1086.9
-89.9873
-1109.33
-89.0777
-1131.24
-87.1027
-1152.19
-83.6424
-1171.12
-78.2019
-1186.07
-70.2226
-1194.11
-59.1395
-1191.1
-44.4167
-1171.24
-25.6778
-1126.77
-2.92289
-1045.44
23.649
-910.266
52.1523
-693.218
86.3201
-312.57
107.608
365.708
105.17
796.987
90.4477
1158.15
75.5253
1456.4
64.3077
1753.94
52.5546
1997.12
46.5854
2283.74
36.1122
2417.07
41.7065
2758
35.7097
2641.76
54.2065
3213.28
3589.55
-21.1971
-73.5282
-20.9923
-95.0802
-20.9931
-108.656
-21.064
-122.53
-21.2407
-135.988
-21.4869
-149.009
-21.8109
-161.864
-22.2014
-174.524
-22.6602
-187.12
-23.183
-199.677
-23.7698
-212.266
-24.4188
-224.924
-25.1295
-237.699
-25.9013
-250.627
-26.7339
-263.746
-27.6271
-277.087
-28.5811
-290.684
-29.596
-304.566
-30.6724
-318.761
-31.811
-333.297
-33.0125
-348.2
-34.2779
-363.495
-35.6084
-379.209
-37.0053
-395.366
-38.4701
-411.991
-40.0041
-429.107
-41.6091
-446.74
-43.2867
-464.913
-45.0381
-483.649
-46.8649
-502.974
-48.7678
-522.908
-50.7472
-543.474
-52.8027
-564.689
-54.9326
-586.569
-57.1339
-609.123
-59.4014
-632.354
-61.7278
-656.253
-64.1027
-680.799
-66.5127
-705.951
-68.9412
-731.651
-71.3687
-757.812
-73.7733
-784.323
-76.1321
-811.049
-78.4226
-837.833
-80.6243
-864.512
-82.7197
-890.928
-84.6941
-916.949
-86.5344
-942.49
-88.2254
-967.515
-89.7465
-992.047
-91.0667
-1016.15
-92.1415
-1039.89
-92.9082
-1063.34
-93.2757
-1086.53
-93.1017
-1109.5
-92.1583
-1132.18
-90.1041
-1154.25
-86.489
-1174.74
-80.7862
-1191.78
-72.4033
-1202.49
-60.7435
-1202.76
-45.2365
-1186.74
-25.4684
-1146.54
-1.38375
-1069.52
26.8865
-938.537
57.3569
-723.689
94.5647
-349.778
120.79
339.483
121.048
796.729
104.45
1174.75
84.2133
1476.64
68.4386
1769.71
53.994
2011.57
46.2012
2291.53
34.7665
2428.51
39.3904
2753.38
32.6682
2648.48
49.813
3196.13
3547.25
-22.1446
-73.8565
-21.9425
-95.2823
-21.9425
-108.656
-22.018
-122.454
-22.2022
-135.804
-22.4598
-148.752
-22.7983
-161.526
-23.2066
-174.116
-23.6858
-186.641
-24.2318
-199.131
-24.8443
-211.654
-25.5215
-224.247
-26.2628
-236.958
-27.0675
-249.822
-27.9353
-262.878
-28.8659
-276.157
-29.8595
-289.69
-30.9164
-303.509
-32.0369
-317.64
-33.2217
-332.112
-34.4717
-346.95
-35.7879
-362.179
-37.1715
-377.826
-38.6238
-393.914
-40.1463
-410.468
-41.7405
-427.513
-43.408
-445.072
-45.1505
-463.17
-46.9695
-481.831
-48.8661
-501.077
-50.8414
-520.933
-52.8955
-541.42
-55.0279
-562.556
-57.2366
-584.36
-59.5182
-606.841
-61.867
-630.005
-64.275
-653.845
-66.7307
-678.343
-69.2198
-703.462
-71.7241
-729.146
-74.2226
-755.313
-76.6919
-781.854
-79.1076
-808.633
-81.4465
-835.494
-83.6876
-862.271
-85.8139
-888.801
-87.8122
-914.951
-89.671
-940.631
-91.3771
-965.809
-92.9114
-990.513
-94.2437
-1014.81
-95.3296
-1038.8
-96.1061
-1062.56
-96.4815
-1086.16
-96.31
-1109.67
-95.3523
-1133.14
-93.2441
-1156.35
-89.5049
-1178.48
-83.5748
-1197.71
-74.827
-1211.24
-62.6303
-1214.96
-46.3755
-1203
-25.6046
-1167.31
-0.1866
-1094.94
29.8111
-968.534
62.3873
-756.265
102.807
-390.198
134.006
308.284
137.342
793.393
120.581
1191.51
95.5634
1501.66
74.1607
1791.11
56.1417
2029.58
46.0927
2301.58
33.4375
2441.16
36.9726
2749.85
29.3906
2656.07
48.5523
3176.97
3510.61
-23.082
-74.184
-22.8857
-95.4786
-22.887
-108.655
-22.9687
-122.373
-23.1617
-135.611
-23.4318
-148.482
-23.7858
-161.172
-24.2125
-173.69
-24.713
-186.14
-25.2829
-198.561
-25.9219
-211.015
-26.6279
-223.541
-27.4005
-236.185
-28.2387
-248.984
-29.1423
-261.974
-30.111
-275.188
-31.1449
-288.657
-32.2442
-302.41
-33.4094
-316.475
-34.6411
-330.88
-35.9403
-345.65
-37.3079
-360.812
-38.7452
-376.389
-40.2535
-392.406
-41.8343
-408.888
-43.4893
-425.858
-45.2201
-443.341
-47.0283
-461.362
-48.9155
-479.943
-50.883
-499.11
-52.9315
-518.885
-55.0612
-539.29
-57.2715
-560.346
-59.5602
-582.071
-61.9234
-604.478
-64.355
-627.573
-66.8462
-651.354
-69.3847
-675.804
-71.9548
-700.892
-74.5371
-726.564
-77.1089
-752.741
-79.6453
-779.317
-82.1204
-806.158
-84.51
-833.105
-86.7927
-859.988
-88.9522
-886.642
-90.9765
-912.927
-92.856
-938.751
-94.58
-964.085
-96.1309
-988.962
-97.4794
-1013.47
-98.5817
-1037.7
-99.3752
-1061.77
-99.7687
-1085.76
-99.6145
-1109.83
-98.6633
-1134.09
-96.5279
-1158.49
-92.6967
-1182.31
-86.5766
-1203.83
-77.5045
-1220.31
-64.8134
-1227.65
-47.851
-1219.96
-26.1087
-1189.06
0.638085
-1121.69
32.3783
-1000.27
67.1874
-791.074
110.92
-433.93
147.376
271.828
153.781
786.988
138.104
1207.19
109.564
1530.2
81.9254
1818.75
59.2371
2052.27
46.3746
2314.44
32.2034
2455.34
34.4744
2747.57
25.8521
2664.69
42.2464
3160.58
3477.46
-24.0103
-74.5077
-23.8224
-95.6666
-23.8271
-108.65
-23.9165
-122.283
-24.1197
-135.408
-24.4033
-148.198
-24.7737
-160.801
-25.2198
-173.243
-25.7423
-185.618
-26.3369
-197.966
-27.003
-210.349
-27.7386
-222.805
-28.5431
-235.381
-29.4155
-248.112
-30.3556
-261.034
-31.3629
-274.18
-32.4377
-287.582
-33.5801
-301.267
-34.7907
-315.265
-36.07
-329.601
-37.4189
-344.301
-38.8386
-359.392
-40.3302
-374.897
-41.8952
-390.841
-43.5351
-407.248
-45.2516
-424.142
-47.0464
-441.547
-48.9212
-459.487
-50.8775
-477.987
-52.9165
-497.071
-55.0392
-516.762
-57.2457
-537.083
-59.535
-558.057
-61.9048
-579.701
-64.3511
-602.032
-66.867
-625.057
-69.4432
-648.778
-72.0663
-673.181
-74.7197
-698.239
-77.3823
-723.901
-80.03
-750.094
-82.636
-776.711
-85.1731
-803.62
-87.6158
-830.662
-89.9426
-857.661
-92.1375
-884.447
-94.19
-910.874
-96.0927
-936.849
-97.8373
-962.34
-99.4081
-987.391
-100.777
-1012.1
-101.901
-1036.58
-102.719
-1060.95
-103.141
-1085.34
-103.02
-1109.95
-102.098
-1135.01
-99.9634
-1160.62
-96.0747
-1186.2
-89.8037
-1210.1
-80.4506
-1229.66
-67.3103
-1240.79
-49.6842
-1237.59
-27.0064
-1211.73
1.05674
-1149.75
34.5432
-1033.76
71.7122
-828.243
118.793
-481.011
160.961
229.66
170.259
777.69
156.37
1221.07
125.879
1560.69
92.0993
1852.53
63.6047
2080.77
47.1808
2330.87
31.1487
2471.37
31.9532
2746.77
22.2526
2674.39
36.9596
3145.87
3443.79
-24.9306
-74.8248
-24.7531
-95.844
-24.7631
-108.64
-24.862
-122.184
-25.0764
-135.193
-25.3747
-147.9
-25.7624
-160.413
-26.2288
-172.777
-26.7742
-185.072
-27.3942
-197.346
-28.0882
-209.655
-28.854
-222.039
-29.6911
-234.544
-30.5984
-247.204
-31.5756
-260.057
-32.6223
-273.134
-33.7386
-286.465
-34.9248
-300.081
-36.1813
-314.008
-37.5088
-328.273
-38.9082
-342.902
-40.3806
-357.92
-41.9273
-373.35
-43.5497
-389.218
-45.2495
-405.548
-47.0283
-422.363
-48.8878
-439.687
-50.8299
-457.545
-52.8561
-475.961
-54.9678
-494.959
-57.1656
-514.564
-59.4498
-534.799
-61.8194
-555.687
-64.2718
-577.249
-66.8025
-599.501
-69.4044
-622.455
-72.0674
-646.115
-74.7773
-670.471
-77.5162
-695.5
-80.2616
-721.156
-82.9878
-747.367
-85.6662
-774.033
-88.2681
-801.019
-90.7666
-828.163
-93.1399
-855.288
-95.3724
-882.214
-97.4553
-908.792
-99.3837
-934.92
-101.152
-960.573
-102.746
-985.797
-104.14
-1010.7
-105.292
-1035.42
-106.141
-1060.1
-106.603
-1084.88
-106.532
-1110.02
-105.661
-1135.88
-103.558
-1162.73
-99.6478
-1190.11
-93.2676
-1216.48
-83.6793
-1239.25
-70.1383
-1254.33
-51.8964
-1255.83
-28.3243
-1235.31
1.03388
-1179.11
36.2617
-1068.99
75.9098
-867.891
126.231
-531.333
174.698
181.194
186.771
765.617
174.99
1232.86
143.969
1591.71
104.833
1891.67
69.6336
2115.97
48.6805
2351.82
30.3533
2489.69
29.5358
2747.59
18.667
2685.26
35.965
3128.57
3414.59
-25.8438
-75.1329
-25.6786
-96.0092
-25.6957
-108.623
-25.8054
-122.075
-26.0323
-134.966
-26.3463
-147.586
-26.7524
-160.007
-27.2398
-172.29
-27.8089
-184.503
-28.4551
-196.7
-29.1778
-208.932
-29.9746
-221.243
-30.845
-233.673
-31.7879
-246.262
-32.8029
-259.042
-33.8896
-272.047
-35.0482
-285.307
-36.2788
-298.85
-37.582
-312.705
-38.9584
-326.897
-40.4089
-341.451
-41.9348
-356.394
-43.5373
-371.748
-45.2178
-387.538
-46.9782
-403.787
-48.82
-420.521
-50.7452
-437.762
-52.7555
-455.535
-54.8526
-473.864
-57.0377
-492.774
-59.3118
-512.29
-61.6749
-532.436
-64.126
-553.236
-66.6622
-574.713
-69.279
-596.884
-71.9687
-619.766
-74.7204
-643.363
-77.5193
-667.672
-80.3461
-692.673
-83.1771
-718.325
-85.9846
-744.56
-88.7384
-771.279
-91.4078
-798.349
-93.9649
-825.606
-96.3872
-852.865
-98.6598
-879.942
-100.775
-906.676
-102.732
-932.964
-104.526
-958.778
-106.147
-984.176
-107.571
-1009.28
-108.756
-1034.24
-109.646
-1059.21
-110.158
-1084.37
-110.153
-1110.02
-109.359
-1136.68
-107.319
-1164.77
-103.426
-1194
-96.9806
-1222.92
-87.2056
-1249.02
-73.3159
-1268.22
-54.5108
-1274.63
-30.0912
-1259.72
0.531681
-1209.73
37.4918
-1105.95
79.7161
-910.115
132.849
-584.466
188.439
125.604
203.31
750.745
193.798
1242.37
163.239
1622.27
119.995
1934.91
77.702
2158.26
51.0923
2378.43
29.8864
2510.9
27.1912
2750.28
14.9387
2697.51
28.3942
3115.12
3391.04
-26.7507
-75.4301
-26.5993
-96.1605
-26.6252
-108.597
-26.7472
-121.953
-26.9878
-134.726
-27.3187
-147.255
-27.7439
-159.582
-28.2534
-171.78
-28.847
-183.91
-29.5203
-196.027
-30.2723
-208.18
-31.1009
-220.414
-32.0053
-232.769
-32.9845
-245.282
-34.038
-257.989
-35.1655
-270.92
-36.367
-284.105
-37.6428
-297.575
-38.9933
-311.354
-40.4193
-325.471
-41.9218
-339.949
-43.5018
-354.814
-45.1609
-370.089
-46.9004
-385.798
-48.7221
-401.966
-50.6279
-418.615
-52.6196
-435.77
-54.699
-453.455
-56.8678
-471.695
-59.1276
-490.514
-61.479
-509.938
-63.9222
-529.993
-66.456
-550.703
-69.0776
-572.091
-71.7821
-594.18
-74.5613
-616.986
-77.404
-640.52
-80.2942
-664.782
-83.2116
-689.756
-86.1309
-715.406
-89.0227
-741.668
-91.8549
-768.447
-94.595
-795.609
-97.2135
-822.988
-99.6875
-850.391
-102.003
-877.627
-104.153
-904.525
-106.14
-930.977
-107.964
-956.955
-109.616
-982.523
-111.074
-1007.82
-112.298
-1033.02
-113.235
-1058.27
-113.81
-1083.79
-113.889
-1109.94
-113.197
-1137.37
-111.254
-1166.71
-107.419
-1197.84
-100.955
-1229.39
-91.0453
-1258.93
-76.8623
-1282.4
-57.5514
-1293.94
-32.3375
-1284.94
-0.490163
-1241.58
38.19
-1144.63
83.0477
-954.973
137.944
-639.362
201.915
61.6335
219.769
732.89
212.73
1249.41
183.18
1651.82
137.2
1980.89
88.0689
2207.39
54.6883
2411.81
29.8208
2535.77
24.9826
2755.12
11.3612
2711.13
26.372
3100.11
3365.79
-27.6521
-75.7147
-27.516
-96.2967
-27.5522
-108.561
-27.6879
-121.817
-27.9434
-134.47
-28.2921
-146.906
-28.7376
-159.137
-29.27
-171.248
-29.8889
-183.291
-30.59
-195.326
-31.3722
-207.398
-32.2334
-219.553
-33.1726
-231.83
-34.1888
-244.266
-35.2816
-256.896
-36.4505
-269.751
-37.6957
-282.86
-39.0174
-296.253
-40.416
-309.956
-41.8924
-323.994
-43.4476
-338.394
-45.0826
-353.179
-46.7989
-368.372
-48.5982
-383.999
-50.4822
-400.082
-52.4528
-416.645
-54.5118
-433.711
-56.6613
-451.306
-58.903
-469.453
-61.2384
-488.179
-63.6683
-507.508
-66.1928
-527.468
-68.8108
-548.085
-71.5194
-569.383
-74.3132
-591.386
-77.184
-614.116
-80.1197
-637.585
-83.1037
-661.798
-86.1144
-686.745
-89.1251
-712.395
-92.1045
-738.689
-95.0184
-765.533
-97.8324
-792.795
-100.515
-820.304
-103.044
-847.863
-105.404
-875.267
-107.592
-902.337
-109.612
-928.957
-111.468
-955.099
-113.155
-980.836
-114.652
-1006.32
-115.921
-1031.75
-116.913
-1057.28
-117.562
-1083.14
-117.743
-1109.76
-117.182
-1137.93
-115.372
-1168.52
-111.638
-1201.57
-105.204
-1235.82
-95.2147
-1268.92
-80.7981
-1296.82
-61.0436
-1313.7
-35.0953
-1310.89
-2.07706
-1274.6
38.2988
-1185
85.8112
-1002.49
142.061
-695.612
213.068
-9.37302
236.016
709.942
231.766
1253.66
203.457
1680.13
155.927
2028.42
100.787
2262.53
59.7649
2452.83
30.2426
2565.29
22.8941
2762.47
7.71753
2726.31
19.3151
3088.51
3351.87
-28.5489
-75.9851
-28.4291
-96.4164
-28.4773
-108.513
-28.6279
-121.666
-28.8995
-134.198
-29.2671
-146.539
-29.7338
-158.67
-30.29
-170.691
-30.9351
-182.646
-31.6649
-194.596
-32.4781
-206.585
-33.3726
-218.658
-34.3474
-230.855
-35.4014
-243.212
-36.5342
-255.763
-37.7454
-268.539
-39.035
-281.571
-40.4034
-294.885
-41.8509
-308.508
-43.3785
-322.467
-44.9871
-336.785
-46.6779
-351.488
-48.4524
-366.598
-50.3123
-382.139
-52.2594
-398.135
-54.2957
-414.608
-56.4231
-431.584
-58.6437
-449.085
-60.9592
-467.138
-63.3714
-485.767
-65.881
-504.999
-68.4882
-524.861
-71.1919
-545.381
-73.989
-566.585
-76.874
-588.501
-79.8384
-611.151
-82.8696
-634.554
-85.95
-658.718
-89.057
-683.638
-92.1622
-709.29
-95.2325
-735.618
-98.2317
-762.534
-101.123
-789.904
-103.874
-817.554
-106.46
-845.277
-108.867
-872.859
-111.095
-900.109
-113.151
-926.901
-115.042
-953.208
-116.767
-979.111
-118.309
-1004.78
-119.63
-1030.43
-120.684
-1056.23
-121.418
-1082.41
-121.721
-1109.46
-121.319
-1138.33
-119.679
-1170.16
-116.093
-1205.16
-109.743
-1242.17
-99.7311
-1278.94
-85.1442
-1311.41
-65.0137
-1333.83
-38.4007
-1337.5
-4.287
-1308.71
37.7255
-1227.02
87.8705
-1052.63
146.202
-753.944
221.815
-84.9868
252.053
679.704
250.934
1254.78
223.924
1707.14
175.654
2076.69
115.68
2322.5
66.5801
2501.93
31.2673
2600.6
20.9002
2772.84
4.158
2743.05
13.7542
3078.91
3333.52
-29.4417
-76.2402
-29.3394
-96.5187
-29.401
-108.451
-29.5677
-121.5
-29.8565
-133.91
-30.2441
-146.151
-30.733
-158.181
-31.314
-170.11
-31.9862
-181.974
-32.7455
-193.837
-33.5906
-205.74
-34.5192
-217.73
-35.5303
-229.844
-36.6229
-242.119
-37.7965
-254.589
-39.0508
-267.285
-40.3856
-280.236
-41.8014
-293.469
-43.2987
-307.011
-44.8783
-320.887
-46.5411
-335.122
-48.2886
-349.74
-50.1222
-364.764
-52.0437
-380.218
-54.0548
-396.124
-56.1577
-412.505
-58.3545
-429.387
-60.6472
-446.792
-63.0378
-464.747
-65.5279
-483.277
-68.1185
-502.408
-70.8098
-522.17
-73.6006
-542.59
-76.488
-563.698
-79.4662
-585.523
-82.5263
-608.091
-85.6553
-631.425
-88.835
-655.538
-92.0413
-680.432
-95.2445
-706.086
-98.4094
-732.453
-101.497
-759.446
-104.47
-786.931
-107.292
-814.732
-109.938
-842.631
-112.396
-870.402
-114.666
-897.839
-116.76
-924.808
-118.689
-951.278
-120.458
-977.342
-122.049
-1003.19
-123.427
-1029.05
-124.552
-1055.1
-125.383
-1081.58
-125.828
-1109.01
-125.615
-1138.54
-124.186
-1171.59
-120.795
-1208.55
-114.584
-1248.38
-104.612
-1288.91
-89.9219
-1326.1
-69.4897
-1354.26
-42.2993
-1364.69
-7.20971
-1343.8
36.3027
-1270.53
88.9503
-1105.28
149.761
-814.754
230.204
-165.43
267.902
642.006
270.25
1252.43
244.571
1732.82
195.977
2125.29
132.386
2386.1
75.2825
2559.04
33.0508
2642.83
19.0379
2786.85
0.69337
2761.4
13.4962
3066.11
3316.78
-30.3314
-76.4788
-30.2475
-96.6027
-30.3238
-108.375
-30.5078
-121.316
-30.8151
-133.602
-31.2237
-145.743
-31.7357
-157.669
-32.3424
-169.504
-33.0427
-181.273
-33.8324
-193.047
-34.7101
-204.862
-35.6737
-216.766
-36.722
-228.795
-37.8541
-240.987
-39.0693
-253.374
-40.3674
-265.987
-41.7483
-278.855
-43.2124
-292.005
-44.7603
-305.463
-46.3927
-319.255
-48.1107
-333.404
-49.9157
-347.935
-51.8093
-362.871
-53.7932
-378.234
-55.8694
-394.047
-58.04
-410.335
-60.3072
-427.12
-62.6731
-444.427
-65.1399
-462.28
-67.7092
-480.707
-70.3821
-499.735
-73.159
-519.393
-76.0386
-539.71
-79.018
-560.719
-82.0914
-582.45
-85.2496
-604.933
-88.4791
-628.195
-91.7608
-652.256
-95.0698
-677.123
-98.3746
-702.782
-101.638
-729.19
-104.819
-756.265
-107.876
-783.874
-110.773
-811.835
-113.483
-839.921
-115.993
-867.891
-118.308
-895.524
-120.443
-922.673
-122.414
-949.306
-124.23
-975.527
-125.875
-1001.55
-127.317
-1027.61
-128.521
-1053.9
-129.46
-1080.64
-130.067
-1108.41
-130.076
-1138.54
-128.9
-1172.76
-125.758
-1211.69
-119.743
-1254.4
-109.876
-1298.77
-95.1531
-1340.82
-74.5063
-1374.91
-46.8644