/*--------------------------------*- C++ -*----------------------------------*\
| =========                 |                                                 |
| \\      /  F ield         | OpenFOAM: The Open Source CFD Toolbox           |
|  \\    /   O peration     | Version:  4.1                                   |
|   \\  /    A nd           | Web:      www.OpenFOAM.org                      |
|    \\/     M anipulation  |                                                 |
\*---------------------------------------------------------------------------*/
FoamFile
{
    version     2.0;
    format      ascii;
    class       volSymmTensorField;
    location    "8";
    object      turbulenceProperties:R;
}
// * * * * * * * * * * * * * * * * * * * * * * * * * * * * * * * * * * * * * //

dimensions      [0 2 -2 0 0 0 0];

internalField   nonuniform List<symmTensor> 
6785
(
(0.753313 1.52451e-19 8.02939e-20 0.753188 0.000167414 0.753499)
(0.753354 -1.18675e-19 -5.93307e-20 0.75332 6.80977e-06 0.753325)
(0.753325 -3.89119e-20 -2.8544e-20 0.75336 3.87321e-05 0.753315)
(0.753334 2.08948e-20 1.13173e-20 0.753345 2.66323e-05 0.753321)
(0.753332 -2.74689e-20 -7.55927e-21 0.753347 2.71414e-05 0.753322)
(0.753333 1.19527e-20 -2.67746e-21 0.753343 2.41205e-05 0.753324)
(0.753332 3.24503e-21 8.4485e-21 0.753342 2.23678e-05 0.753326)
(0.753333 -2.00615e-20 -3.31944e-21 0.753339 2.05043e-05 0.753328)
(0.753333 5.27544e-21 -5.00132e-21 0.753337 1.90195e-05 0.75333)
(0.753333 4.59772e-21 6.36987e-21 0.753334 1.82042e-05 0.753333)
(0.753332 -1.16861e-20 -1.95649e-21 0.753331 1.77883e-05 0.753337)
(0.753334 3.02751e-21 -1.9784e-21 0.753325 1.3201e-05 0.753341)
(0.753334 6.79065e-22 9.54617e-21 0.753325 5.81531e-06 0.753341)
(0.753318 -4.50683e-21 1.80574e-21 0.753358 7.74376e-06 0.753324)
(0.753346 2.55468e-21 -2.81817e-21 0.753391 -7.94723e-05 0.753262)
(0.75333 1.81353e-19 1.21735e-19 0.753004 0.000221644 0.753666)
(0.753351 -1.31077e-19 -7.56692e-20 0.75334 -1.55093e-05 0.753309)
(0.753325 -5.3531e-20 -3.16157e-20 0.753378 1.18142e-05 0.753297)
(0.753341 1.34435e-20 2.86123e-20 0.753352 -6.07694e-06 0.753307)
(0.753333 -2.08609e-20 -1.17012e-20 0.753362 1.30148e-06 0.753305)
(0.753336 3.55419e-21 1.01867e-21 0.753356 -2.53897e-06 0.753309)
(0.753334 -5.43398e-21 7.95692e-21 0.753356 -1.90352e-06 0.75331)
(0.753335 -9.93182e-21 -5.00313e-21 0.753353 -2.78213e-06 0.753312)
(0.753334 -1.02894e-21 -1.34996e-21 0.753352 -3.34867e-06 0.753314)
(0.753334 -3.6941e-21 8.36245e-21 0.753353 -5.71664e-06 0.753313)
(0.753334 -5.14151e-21 -2.29053e-21 0.75336 -1.20989e-05 0.753306)
(0.753334 -3.58475e-21 -1.9405e-21 0.753374 -2.5574e-05 0.753292)
(0.753334 3.05201e-21 4.16759e-21 0.753388 -4.41719e-05 0.753277)
(0.753333 3.31183e-21 -2.30777e-23 0.753376 -5.17322e-05 0.753291)
(0.753332 3.63048e-21 2.4762e-21 0.753316 -9.34157e-06 0.753352)
(0.753329 2.14049e-19 7.49255e-20 0.752963 0.000223997 0.753707)
(0.753339 -1.35409e-19 -6.93808e-20 0.753348 -1.648e-05 0.753313)
(0.753325 -3.8183e-20 -2.31813e-20 0.75337 -1.65972e-06 0.753305)
(0.753338 3.99319e-20 -2.51578e-20 0.753349 -1.68216e-05 0.753313)
(0.753329 -2.57295e-20 -1.29891e-20 0.75336 -6.80053e-06 0.75331)
(0.753334 9.49458e-21 4.85871e-21 0.753352 -1.24674e-05 0.753314)
(0.753332 8.26918e-21 -3.06797e-20 0.753354 -9.47044e-06 0.753314)
(0.753333 -1.00877e-20 -6.42815e-21 0.75335 -1.06944e-05 0.753316)
(0.753333 1.14009e-20 6.11751e-21 0.75335 -1.0037e-05 0.753317)
(0.753333 7.0268e-21 -2.92066e-20 0.753352 -1.22029e-05 0.753315)
(0.753333 -1.31489e-20 -8.50465e-21 0.753363 -1.83073e-05 0.753304)
(0.753333 2.52509e-20 1.43092e-20 0.75339 -3.28856e-05 0.753277)
(0.753331 2.07412e-20 4.86491e-21 0.753445 -6.02059e-05 0.753224)
(0.753342 -2.75063e-20 -1.16261e-20 0.753393 -4.84499e-05 0.753265)
(0.753329 -1.04132e-20 -5.88246e-21 0.753253 5.69469e-05 0.753418)
(0.753332 1.86354e-19 1.29374e-19 0.75296 0.000214434 0.753708)
(0.753337 -1.1546e-19 -1.02764e-19 0.753345 -1.42734e-05 0.753318)
(0.753328 -5.20481e-20 -9.19415e-21 0.753367 -1.07118e-05 0.753305)
(0.753338 1.71543e-20 1.0375e-20 0.753349 -2.07497e-05 0.753313)
(0.75333 -8.80022e-21 -3.7906e-20 0.753359 -1.00889e-05 0.753311)
(0.753335 3.04481e-21 1.25794e-20 0.75335 -1.69078e-05 0.753314)
(0.753332 -1.5298e-21 -1.16912e-21 0.753353 -1.27834e-05 0.753314)
(0.753334 -5.60221e-21 -2.50564e-20 0.75335 -1.40748e-05 0.753316)
(0.753333 -5.9177e-22 1.12451e-20 0.75335 -1.25482e-05 0.753317)
(0.753334 3.77896e-21 3.38144e-21 0.75335 -1.30056e-05 0.753316)
(0.753333 -3.82695e-21 -1.9792e-20 0.753355 -1.46593e-05 0.753311)
(0.753334 -3.55359e-21 3.35861e-21 0.753367 -1.92999e-05 0.753299)
(0.753333 1.22201e-20 6.89611e-21 0.753383 -2.01872e-05 0.753284)
(0.753338 -3.69064e-21 -4.32446e-21 0.753399 -2.33165e-05 0.753264)
(0.75333 -4.22533e-21 1.39245e-21 0.753364 3.68618e-06 0.753306)
(0.753333 2.07338e-19 9.81569e-20 0.752971 0.000206832 0.753697)
(0.753336 -1.12919e-19 -1.00209e-19 0.753342 -1.16639e-05 0.753323)
(0.75333 -4.95461e-20 -4.00255e-20 0.753368 -1.52925e-05 0.753302)
(0.753337 2.52522e-20 2.09072e-21 0.753352 -2.14411e-05 0.753311)
(0.75333 -6.58774e-21 -3.6048e-20 0.75336 -1.21628e-05 0.75331)
(0.753336 1.42557e-20 -5.48039e-21 0.753352 -1.88525e-05 0.753312)
(0.753332 1.52584e-22 -9.77845e-21 0.753355 -1.38614e-05 0.753313)
(0.753334 -1.08711e-20 -1.96079e-20 0.753349 -1.53296e-05 0.753317)
(0.753333 2.99399e-21 -1.02426e-20 0.753348 -1.38942e-05 0.753319)
(0.753333 8.26267e-21 -1.64714e-21 0.753347 -1.40667e-05 0.753319)
(0.753333 3.84305e-21 -1.08275e-20 0.75335 -1.31654e-05 0.753317)
(0.753333 7.9135e-22 -5.94453e-21 0.753355 -1.23369e-05 0.753312)
(0.753333 -6.8398e-22 -4.70138e-21 0.753363 -1.06716e-05 0.753304)
(0.753335 -1.41211e-20 -1.18364e-20 0.753385 -2.12978e-05 0.75328)
(0.753331 2.5652e-20 1.48378e-20 0.753403 -1.9999e-05 0.753266)
(0.753333 1.96333e-19 1.31667e-19 0.752984 0.000202703 0.753683)
(0.753335 -1.37257e-19 -6.34758e-20 0.753345 -1.0503e-05 0.753321)
(0.753331 -6.42899e-20 -6.22616e-21 0.753367 -1.50344e-05 0.753302)
(0.753336 1.72022e-20 1.67884e-20 0.753357 -1.92103e-05 0.753307)
(0.753331 -1.60343e-20 1.81092e-21 0.753363 -1.14932e-05 0.753306)
(0.753335 -1.28472e-20 1.62999e-20 0.753358 -1.78667e-05 0.753307)
(0.753332 -4.58412e-21 -1.11044e-21 0.753363 -1.53536e-05 0.753305)
(0.753334 -1.8376e-21 8.21568e-21 0.753359 -2.05847e-05 0.753307)
(0.753333 -5.4062e-21 9.70512e-21 0.753351 -1.83961e-05 0.753316)
(0.753333 -4.32496e-21 -4.28703e-21 0.753338 -1.48107e-05 0.753329)
(0.753333 -7.2076e-21 3.09837e-21 0.75333 -9.15497e-06 0.753337)
(0.753333 -1.53836e-20 3.71732e-21 0.753328 -3.67614e-06 0.753339)
(0.753334 -8.76646e-21 -3.89032e-21 0.753335 -4.74083e-07 0.753332)
(0.753334 7.16113e-22 8.14269e-21 0.753362 -7.07903e-06 0.753305)
(0.753333 5.61597e-21 5.26598e-21 0.753462 -5.94605e-05 0.753205)
(0.753333 1.75653e-19 1.23258e-19 0.752977 0.000211512 0.753691)
(0.753335 -1.35185e-19 -6.19942e-20 0.753352 -8.98921e-06 0.753313)
(0.753331 -5.62539e-20 -6.14441e-21 0.753366 -9.06902e-06 0.753303)
(0.753335 5.18067e-21 4.30821e-21 0.753358 -1.28311e-05 0.753306)
(0.753331 -1.54461e-20 1.14581e-20 0.753363 -6.82535e-06 0.753306)
(0.753335 -1.53452e-20 1.66327e-20 0.753365 -1.33338e-05 0.753301)
(0.753332 6.43935e-21 5.24689e-21 0.75338 -1.77626e-05 0.753288)
(0.753334 1.52888e-20 1.84985e-20 0.753387 -2.7284e-05 0.753279)
(0.753333 -1.165e-20 3.24977e-21 0.753382 -2.67347e-05 0.753285)
(0.753333 -2.50722e-20 -1.7293e-20 0.75336 -2.00679e-05 0.753307)
(0.753333 -1.50172e-20 -6.54446e-21 0.753329 -7.41001e-06 0.753338)
(0.753333 -1.71301e-20 -1.73261e-21 0.753296 5.08721e-06 0.753371)
(0.753334 -1.76391e-20 -1.25752e-20 0.753282 8.83601e-06 0.753383)
(0.75333 1.37885e-20 -9.93785e-22 0.753323 -3.10491e-06 0.753347)
(0.753334 3.17507e-20 2.15995e-20 0.753479 -9.22471e-05 0.753187)
(0.753332 1.74358e-19 9.47489e-20 0.752945 0.000224657 0.753723)
(0.753336 -1.27812e-19 -7.55233e-20 0.753349 -4.58726e-06 0.753315)
(0.753331 -3.01676e-20 -3.98266e-20 0.75337 -9.73903e-06 0.753299)
(0.753335 3.75727e-21 1.15606e-20 0.753355 -1.00614e-05 0.75331)
(0.753332 -1.50269e-20 -7.82785e-21 0.753359 -5.14258e-06 0.75331)
(0.753335 2.7826e-21 -8.86872e-21 0.75336 -1.07417e-05 0.753306)
(0.753332 1.15109e-20 -3.39727e-21 0.753376 -1.49814e-05 0.753291)
(0.753334 1.94859e-20 1.3192e-20 0.75339 -2.389e-05 0.753276)
(0.753333 5.16809e-21 -1.72542e-21 0.753397 -2.41748e-05 0.75327)
(0.753333 -1.00139e-20 -1.06983e-20 0.753393 -2.3401e-05 0.753274)
(0.753333 1.07511e-20 4.49821e-21 0.753384 -2.23378e-05 0.753283)
(0.753333 1.54963e-20 2.45221e-21 0.75336 -1.83492e-05 0.753307)
(0.753333 2.20007e-21 -4.54005e-21 0.753318 -7.25407e-06 0.753349)
(0.753331 -8.59845e-21 -1.26835e-20 0.753292 -5.73003e-07 0.753377)
(0.753335 -3.62804e-20 -2.74675e-20 0.753349 -3.89028e-05 0.753316)
(0.753332 1.79128e-19 1.06459e-19 0.752936 0.000219041 0.753732)
(0.753336 -1.01673e-19 -6.34631e-20 0.753316 9.22048e-06 0.753348)
(0.753332 -4.41797e-20 -6.41627e-20 0.753377 -1.73549e-05 0.753291)
(0.753335 -9.16084e-21 -5.22001e-21 0.753358 -1.58691e-05 0.753307)
(0.753332 -4.52009e-21 -3.18564e-21 0.753355 -9.39327e-06 0.753313)
(0.753334 1.12081e-20 -1.85978e-20 0.753352 -1.291e-05 0.753314)
(0.753333 -6.75502e-21 -5.25156e-21 0.75336 -1.33331e-05 0.753307)
(0.753334 1.74242e-20 1.06454e-20 0.75337 -1.84345e-05 0.753296)
(0.753333 2.15062e-20 -8.06529e-21 0.753381 -1.90138e-05 0.753286)
(0.753333 -8.04089e-21 -5.29862e-21 0.753388 -2.02737e-05 0.753279)
(0.753333 2.62979e-20 1.48728e-20 0.753396 -2.24538e-05 0.753271)
(0.753333 2.15576e-20 7.24677e-21 0.753403 -2.67524e-05 0.753263)
(0.753333 -2.89643e-21 -1.84416e-21 0.753401 -2.74433e-05 0.753267)
(0.75334 1.50006e-20 8.89072e-21 0.753351 -2.387e-05 0.753309)
(0.753332 -7.75791e-20 -3.83615e-20 0.753262 3.06023e-05 0.753406)
(0.753333 2.00498e-19 8.59617e-20 0.752969 0.000195989 0.753699)
(0.753334 -7.34365e-20 -4.59765e-20 0.753278 2.71325e-05 0.753388)
(0.753332 -6.68568e-20 -5.56904e-20 0.753374 -2.16086e-05 0.753293)
(0.753334 -1.54593e-20 -3.91903e-20 0.753366 -2.39777e-05 0.753299)
(0.753332 -4.50744e-21 -3.56274e-21 0.753357 -1.5934e-05 0.753311)
(0.753334 1.28831e-20 -6.50532e-21 0.753351 -1.66025e-05 0.753315)
(0.753333 5.44536e-21 -2.24954e-20 0.753353 -1.54664e-05 0.753314)
(0.753334 2.27822e-21 5.6864e-23 0.753356 -1.73341e-05 0.75331)
(0.753333 1.66648e-20 -3.05416e-22 0.753361 -1.72371e-05 0.753305)
(0.753333 7.64777e-21 -1.2992e-20 0.753366 -1.74842e-05 0.7533)
(0.753333 4.72276e-21 2.11865e-21 0.753372 -1.70247e-05 0.753295)
(0.753334 1.94628e-20 8.26102e-21 0.753379 -1.79028e-05 0.753287)
(0.753332 5.6759e-21 -3.46045e-21 0.75339 -1.65004e-05 0.753278)
(0.753338 -1.86257e-20 -7.28719e-21 0.753397 -2.97942e-05 0.753265)
(0.75333 -2.63838e-20 -5.9566e-21 0.753331 1.49238e-05 0.75334)
(0.753334 1.8975e-19 1.02755e-19 0.753006 0.000178589 0.75366)
(0.753333 -6.29774e-20 -1.68415e-20 0.753257 3.98386e-05 0.753409)
(0.753333 -5.03431e-20 -1.0003e-19 0.75337 -2.22284e-05 0.753297)
(0.753334 -4.05464e-20 -1.86262e-20 0.753372 -2.69116e-05 0.753294)
(0.753333 -1.05874e-20 1.45629e-20 0.75336 -1.82814e-05 0.753307)
(0.753334 3.05891e-20 -3.01395e-20 0.753354 -1.68663e-05 0.753313)
(0.753333 -3.70187e-21 -2.83348e-21 0.753353 -1.5262e-05 0.753314)
(0.753333 -6.82859e-21 5.54956e-21 0.753354 -1.58051e-05 0.753313)
(0.753333 2.55971e-20 -3.00497e-20 0.753355 -1.53465e-05 0.753312)
(0.753333 2.45854e-21 2.25477e-21 0.753357 -1.5249e-05 0.75331)
(0.753333 -6.54616e-21 3.00488e-21 0.75336 -1.4869e-05 0.753307)
(0.753333 1.278e-20 -1.40483e-20 0.753365 -1.57397e-05 0.753302)
(0.753333 -2.29759e-21 1.39261e-21 0.753374 -1.71655e-05 0.753293)
(0.753336 -1.75641e-20 -1.9113e-20 0.753391 -3.16746e-05 0.753273)
(0.753329 4.09795e-21 8.31058e-21 0.753366 -2.51397e-06 0.753305)
(0.753334 1.9146e-19 1.11752e-19 0.753028 0.000172002 0.753638)
(0.753333 -5.58075e-20 -2.01054e-20 0.753252 4.42929e-05 0.753415)
(0.753333 -7.27223e-20 -7.73094e-20 0.753368 -2.21745e-05 0.753299)
(0.753334 -3.3659e-20 -1.89622e-20 0.753375 -2.69091e-05 0.753291)
(0.753333 -1.06846e-20 6.35438e-21 0.753363 -1.78924e-05 0.753304)
(0.753334 1.69633e-20 -1.38269e-20 0.753355 -1.49374e-05 0.753311)
(0.753333 1.9961e-22 1.41841e-21 0.753354 -1.2845e-05 0.753313)
(0.753333 -1.37965e-20 1.29016e-20 0.753353 -1.28313e-05 0.753314)
(0.753333 1.05071e-21 -6.00495e-21 0.753353 -1.2072e-05 0.753314)
(0.753333 -7.81656e-23 1.24645e-21 0.753353 -1.1885e-05 0.753313)
(0.753333 -6.89874e-21 -2.74096e-21 0.753355 -1.16587e-05 0.753312)
(0.753334 2.48271e-21 -8.58964e-21 0.753357 -1.25536e-05 0.753309)
(0.753333 -5.05007e-21 4.71055e-21 0.753364 -1.40429e-05 0.753303)
(0.753335 -2.46938e-20 -1.52721e-20 0.753386 -2.7805e-05 0.753279)
(0.753332 2.41916e-20 1.76776e-20 0.753385 -2.0045e-05 0.753283)
(0.753334 1.96915e-19 9.41978e-20 0.753035 0.00016941 0.753631)
(0.753333 -3.1889e-20 -4.07309e-20 0.753256 4.18197e-05 0.753411)
(0.753333 -1.02809e-19 -3.65736e-20 0.753362 -2.06583e-05 0.753305)
(0.753334 -1.7506e-20 -4.20516e-20 0.753369 -2.56399e-05 0.753298)
(0.753333 3.36558e-22 -1.41257e-23 0.753359 -1.87742e-05 0.753308)
(0.753334 -8.61637e-21 -4.09967e-21 0.753353 -1.57666e-05 0.753314)
(0.753333 5.51313e-21 -4.93011e-21 0.753352 -1.33463e-05 0.753315)
(0.753333 -4.58273e-21 3.0574e-20 0.753352 -1.26803e-05 0.753315)
(0.753333 -4.82936e-21 -1.24426e-20 0.753353 -1.18039e-05 0.753314)
(0.753333 -7.64637e-21 -2.56244e-21 0.753353 -1.12383e-05 0.753314)
(0.753333 -1.09719e-20 2.53666e-21 0.753353 -1.01344e-05 0.753313)
(0.753334 -3.49033e-21 -6.79143e-21 0.753353 -8.92675e-06 0.753313)
(0.753333 -8.14054e-22 1.69849e-21 0.753356 -7.29308e-06 0.753311)
(0.753334 -2.44355e-20 -6.4061e-21 0.753377 -1.84957e-05 0.753289)
(0.753333 3.55821e-20 1.86375e-20 0.753418 -3.63053e-05 0.75325)
(0.753335 1.89095e-19 1.07795e-19 0.753046 0.000156772 0.753619)
(0.753332 -3.69267e-20 -3.41447e-20 0.753261 4.05855e-05 0.753407)
(0.753334 -1.07636e-19 -9.52428e-20 0.753375 -2.09884e-05 0.753291)
(0.753334 -1.24814e-20 -2.17276e-20 0.753381 -2.16676e-05 0.753285)
(0.753333 1.45494e-20 -1.53117e-21 0.753362 -1.14686e-05 0.753304)
(0.753334 -1.69016e-20 -8.21096e-21 0.75335 -7.17881e-06 0.753316)
(0.753333 -6.00194e-21 5.77627e-21 0.753345 -6.33531e-06 0.753322)
(0.753334 1.04599e-20 -9.12286e-21 0.753343 -8.32807e-06 0.753324)
(0.753333 -8.55488e-21 -1.08332e-20 0.753342 -9.76768e-06 0.753325)
(0.753333 -1.41763e-20 -1.21054e-21 0.753342 -1.04888e-05 0.753325)
(0.753333 -2.08123e-21 -1.17202e-20 0.753341 -8.73297e-06 0.753325)
(0.753333 -2.4699e-21 -1.64131e-21 0.753341 -4.7307e-06 0.753325)
(0.753333 -1.17499e-20 6.70148e-22 0.753344 -8.06854e-07 0.753322)
(0.753333 -2.31967e-20 -1.54802e-20 0.753367 -1.03519e-05 0.753299)
(0.753333 6.1245e-20 3.84261e-20 0.75346 -6.27547e-05 0.753207)
(0.753332 1.47563e-19 9.38967e-20 0.753057 0.00014044 0.753611)
(0.753332 3.27231e-20 1.00713e-20 0.753194 4.04198e-05 0.753473)
(0.753333 -8.96264e-20 -3.02971e-20 0.753307 -1.35975e-05 0.753359)
(0.753334 -6.56811e-20 -4.53897e-20 0.753361 -2.68386e-05 0.753306)
(0.753333 -1.43169e-20 -2.65042e-20 0.753378 -2.22518e-05 0.753288)
(0.753333 -5.64497e-24 8.71928e-21 0.753382 -1.89817e-05 0.753285)
(0.753333 4.778e-20 3.177e-20 0.753384 -1.67091e-05 0.753282)
(0.753333 4.6187e-20 2.72824e-20 0.753382 -1.4559e-05 0.753285)
(0.753333 -1.9038e-20 3.75724e-21 0.753373 -1.04423e-05 0.753294)
(0.753333 -5.42984e-20 -3.32415e-20 0.753356 -3.83508e-06 0.753311)
(0.753333 -2.95496e-20 -2.64415e-20 0.753336 6.7024e-06 0.753331)
(0.753333 -1.74947e-20 -1.63778e-21 0.753319 1.55899e-05 0.753348)
(0.753334 -3.68631e-20 -1.66191e-20 0.753319 1.36278e-05 0.753347)
(0.753332 -3.44569e-20 -2.48118e-20 0.75336 -6.41149e-06 0.753308)
(0.753335 8.70735e-20 5.56716e-20 0.753488 -8.12516e-05 0.753177)
(0.753387 -3.24154e-21 -1.8986e-22 0.753261 6.83108e-05 0.753351)
(0.753321 -5.82255e-21 -1.01538e-21 0.753352 7.80969e-05 0.753327)
(0.753337 -6.95373e-21 -1.44012e-21 0.753324 1.57859e-05 0.753339)
(0.753333 -6.05621e-21 -2.19052e-21 0.753329 -3.56193e-06 0.753338)
(0.753335 -7.23906e-21 -2.95143e-21 0.753325 4.5323e-06 0.75334)
(0.753333 -2.75905e-23 -1.14517e-21 0.753332 -3.31804e-07 0.753335)
(0.753333 5.29775e-21 -2.87115e-21 0.753329 -2.88679e-06 0.753338)
(0.753334 9.63207e-21 -2.09993e-21 0.753327 -3.93275e-07 0.753339)
(0.753333 -6.93369e-21 -2.65743e-21 0.753328 1.78769e-06 0.753339)
(0.753333 -1.19243e-20 -2.15736e-21 0.753332 -1.6636e-07 0.753335)
(0.753333 4.88735e-21 -5.41716e-21 0.753329 -5.1687e-06 0.753338)
(0.753334 1.9884e-21 -5.06183e-21 0.753327 1.3968e-07 0.753339)
(0.753333 4.61131e-21 -4.93654e-22 0.753332 -3.89776e-07 0.753335)
(0.753333 1.06872e-20 -4.17238e-21 0.75333 -4.62274e-06 0.753338)
(0.753334 7.43224e-21 -3.08732e-21 0.753328 -2.8114e-06 0.753338)
(0.753333 2.53992e-21 -2.68229e-21 0.753329 -7.27569e-07 0.753338)
(0.753333 4.00792e-22 -6.17951e-22 0.753332 -3.90202e-07 0.753334)
(0.753333 6.59398e-21 -2.92216e-21 0.753331 -5.66691e-06 0.753337)
(0.753334 2.11391e-21 -2.19609e-21 0.753328 -1.68743e-06 0.753338)
(0.753333 1.23977e-21 -1.10458e-21 0.753333 -4.27533e-07 0.753334)
(0.753333 5.19655e-21 -2.06855e-21 0.753331 -4.68347e-06 0.753336)
(0.753334 -2.83788e-22 -1.58845e-21 0.753329 -3.36417e-06 0.753337)
(0.753333 -4.73828e-21 -2.18414e-21 0.75333 -2.02803e-06 0.753336)
(0.753333 6.92076e-22 -1.438e-21 0.753334 -2.66571e-07 0.753333)
(0.753333 3.77523e-21 -1.74763e-21 0.753332 -4.22635e-06 0.753336)
(0.753334 4.62371e-21 -1.29703e-21 0.753329 -3.28862e-06 0.753337)
(0.753333 1.66602e-21 -7.77544e-22 0.753331 -2.4089e-06 0.753336)
(0.753333 1.0659e-21 -1.55441e-21 0.753335 -2.54886e-07 0.753332)
(0.753332 2.81198e-21 -8.14754e-22 0.753333 -4.46876e-06 0.753335)
(0.753335 -3.6558e-21 -8.79439e-22 0.753329 -3.39662e-06 0.753337)
(0.753333 -4.82219e-22 -1.07679e-21 0.753335 -8.3075e-07 0.753332)
(0.753333 -7.94838e-22 -8.48952e-22 0.753333 -4.15499e-06 0.753334)
(0.753334 -2.25195e-21 -1.07472e-21 0.753331 -4.01616e-06 0.753335)
(0.753333 -3.774e-21 -1.44773e-21 0.753332 -4.35057e-06 0.753334)
(0.753333 -3.85607e-21 -1.44722e-21 0.753335 -1.15732e-06 0.753331)
(0.753333 -3.62209e-21 -2.30521e-21 0.753335 -3.09171e-06 0.753333)
(0.753334 -1.12246e-20 -3.06591e-21 0.753331 -4.32178e-06 0.753335)
(0.753333 -3.68947e-21 -3.31067e-21 0.753336 -1.05165e-06 0.753331)
(0.753333 1.77077e-22 -4.10519e-21 0.753335 -1.90695e-06 0.753332)
(0.753334 -9.93425e-21 -4.22041e-21 0.753333 -1.99875e-06 0.753333)
(0.753333 -1.49163e-20 -5.61828e-21 0.753334 -3.55928e-06 0.753333)
(0.753333 3.83352e-22 -4.05275e-21 0.753336 -6.96326e-07 0.753331)
(0.753333 1.06326e-20 -5.59819e-21 0.753335 -2.95116e-07 0.753332)
(0.753334 6.62249e-21 -4.56053e-21 0.753333 -2.49159e-07 0.753333)
(0.753334 1.38516e-22 -4.4112e-21 0.753334 -2.58683e-06 0.753332)
(0.753333 6.72639e-21 -2.74934e-21 0.753334 -1.05575e-06 0.753332)
(0.753333 1.95499e-20 -2.80571e-21 0.753335 1.15329e-06 0.753331)
(0.753334 8.66284e-21 -1.12499e-21 0.753333 -1.87358e-06 0.753333)
(0.753333 1.28495e-21 -7.24611e-22 0.753334 -8.32103e-07 0.753333)
(0.753334 5.92252e-21 -8.75791e-22 0.753335 7.08889e-07 0.753331)
(0.753334 1.26762e-20 -2.02746e-22 0.753335 2.15659e-06 0.753332)
(0.753334 1.09186e-20 1.06417e-21 0.753335 -1.04414e-06 0.753332)
(0.753333 3.08832e-21 1.08317e-21 0.753335 -4.18478e-07 0.753332)
(0.753333 2.91905e-21 1.57748e-21 0.753336 1.02845e-06 0.753331)
(0.753334 -8.63136e-21 1.4e-21 0.753335 2.49757e-06 0.753332)
(0.753333 -1.73109e-20 -3.03158e-22 0.753334 2.40126e-06 0.753332)
(0.753333 -8.94266e-21 3.39055e-21 0.753337 2.92268e-06 0.75333)
(0.753333 3.45831e-20 -1.62868e-21 0.753336 -1.28094e-06 0.753332)
(0.753334 5.65422e-21 3.29723e-22 0.753332 1.1212e-05 0.753335)
(0.753333 -2.77776e-20 6.01662e-21 0.75334 1.18526e-05 0.753327)
(0.753331 -3.13479e-20 -6.04263e-21 0.753332 1.59928e-05 0.753336)
(0.753337 -4.3869e-20 -9.89578e-21 0.753318 3.00696e-05 0.753346)
(0.753329 1.45607e-20 -9.72566e-21 0.753328 1.14131e-05 0.753342)
(0.753334 6.58234e-20 9.87092e-21 0.753346 -1.02043e-05 0.75332)
(0.753334 6.9565e-20 6.40285e-21 0.753327 -2.08986e-05 0.753339)
(0.753333 5.58267e-20 1.3387e-20 0.753335 -2.34024e-05 0.753333)
(0.753333 2.80242e-20 1.25387e-20 0.753352 -1.81739e-05 0.753314)
(0.753332 -1.00136e-20 2.0158e-20 0.753348 -9.50472e-06 0.75332)
(0.753336 -2.22003e-21 2.01079e-20 0.753342 -7.49431e-06 0.753322)
(0.753333 3.61142e-20 2.26734e-20 0.753355 -3.00102e-05 0.753312)
(0.753333 8.66147e-21 1.21624e-20 0.753359 -1.26255e-05 0.753308)
(0.753333 -2.5383e-20 2.46411e-20 0.753363 9.17999e-06 0.753304)
(0.753336 -6.07168e-21 2.25916e-20 0.753356 2.03363e-06 0.753307)
(0.753333 2.35343e-20 2.47224e-20 0.75337 -2.42417e-05 0.753297)
(0.753331 -3.89891e-21 7.06487e-21 0.753367 -3.99185e-06 0.753302)
(0.753344 -4.18606e-20 2.21519e-20 0.753351 2.67809e-05 0.753305)
(0.753331 6.81273e-21 2.04722e-20 0.753381 -2.37649e-05 0.753288)
(0.753331 -1.19501e-20 8.15902e-21 0.753369 -2.05778e-06 0.7533)
(0.753345 -2.8146e-20 1.81914e-20 0.753357 2.26534e-05 0.753298)
(0.75333 5.14702e-20 1.71997e-20 0.753392 -8.53275e-05 0.753278)
(0.753329 -1.95609e-20 -3.76493e-21 0.753351 -6.63617e-05 0.75332)
(0.753341 -1.03001e-19 -8.72078e-21 0.753323 9.83313e-06 0.753336)
(0.753325 -5.03741e-20 -7.54367e-21 0.753359 -1.62755e-05 0.753316)
(0.753334 -1.6852e-20 1.2206e-20 0.753347 -2.78003e-06 0.75332)
(0.753334 -1.46559e-21 -4.66814e-21 0.753335 -2.66867e-05 0.753331)
(0.753331 8.53786e-21 -3.39472e-21 0.753335 -4.63271e-05 0.753335)
(0.753335 4.82394e-20 -3.53596e-21 0.753328 -1.7126e-05 0.753337)
(0.753333 7.05734e-20 -2.21177e-21 0.753333 -1.83963e-05 0.753334)
(0.753334 7.83041e-20 3.12172e-23 0.753334 -1.91015e-05 0.753333)
(0.753333 5.92335e-20 1.64039e-21 0.753336 -1.19321e-05 0.753331)
(0.753336 3.01409e-20 3.58034e-21 0.753331 -2.1653e-06 0.753334)
(0.753331 3.29747e-20 8.43942e-21 0.753343 -8.25734e-06 0.753326)
(0.753333 8.59923e-21 9.99069e-21 0.753345 -4.66376e-06 0.753322)
(0.753335 -9.61486e-21 7.98197e-21 0.753334 1.30155e-06 0.753331)
(0.753332 -4.25027e-20 9.15092e-21 0.75334 4.69521e-06 0.753328)
(0.753334 -1.06984e-19 1.00844e-20 0.753338 2.79819e-05 0.753328)
(0.753334 -1.09083e-19 9.03978e-21 0.753341 4.4602e-06 0.753325)
(0.753333 -1.16211e-19 5.30177e-21 0.753344 -2.60174e-05 0.753324)
(0.753333 -1.50274e-19 7.27644e-22 0.753345 -2.76901e-05 0.753322)
(0.753335 -1.61772e-19 -4.52293e-21 0.753342 -3.12978e-05 0.753322)
(0.753331 -1.06424e-19 -4.95607e-21 0.753353 -3.04016e-05 0.753316)
(0.753333 -2.41024e-20 -1.05001e-20 0.753346 -4.12751e-06 0.753321)
(0.753336 -7.30378e-20 4.97609e-21 0.75334 -4.58621e-06 0.753323)
(0.753332 -8.89185e-20 4.18394e-21 0.753346 -2.95716e-05 0.753322)
(0.753334 -5.56213e-20 -4.6195e-23 0.753345 -2.10461e-05 0.753321)
(0.753333 -5.61931e-20 -1.74938e-21 0.753348 -1.86779e-05 0.753319)
(0.753333 -3.88082e-20 -1.28665e-21 0.753349 -1.57281e-05 0.753318)
(0.753333 3.30057e-20 3.70761e-21 0.75335 -2.01278e-05 0.753317)
(0.753333 8.65524e-20 6.99382e-21 0.753354 -3.31887e-05 0.753313)
(0.753334 8.83702e-20 9.82874e-21 0.753355 -5.13211e-05 0.75331)
(0.753334 7.75723e-20 1.14646e-20 0.75336 -5.72638e-05 0.753305)
(0.753333 5.20928e-21 2.43033e-20 0.75334 -1.64614e-05 0.753327)
(0.753338 7.14031e-20 7.45355e-21 0.75334 -2.14444e-05 0.753323)
(0.753332 1.62652e-19 5.10079e-21 0.753348 -5.7845e-05 0.75332)
(0.753333 1.81586e-19 9.94199e-21 0.75335 -4.66601e-05 0.753316)
(0.753334 2.21724e-19 1.55083e-20 0.753352 -5.15421e-05 0.753314)
(0.753334 2.54565e-19 2.3122e-20 0.753357 -6.57636e-05 0.75331)
(0.753332 2.78764e-19 3.0787e-20 0.75336 -6.62407e-05 0.753308)
(0.753333 2.66774e-19 3.78966e-20 0.753359 -5.10953e-05 0.753308)
(0.753338 1.81317e-19 3.83946e-20 0.753349 -3.85712e-05 0.753312)
(0.753333 2.02742e-21 1.21656e-20 0.753323 -6.69314e-06 0.753344)
(0.753338 -6.76427e-20 3.01607e-20 0.753341 -2.14482e-05 0.753321)
(0.753332 -1.36081e-19 2.83298e-20 0.75335 -4.88358e-05 0.753318)
(0.753334 -3.08442e-19 2.44595e-20 0.753346 -7.49903e-06 0.75332)
(0.753334 -4.00598e-19 1.56456e-20 0.753347 1.28842e-05 0.753319)
(0.753332 -4.16911e-19 3.12645e-21 0.75335 1.24818e-05 0.753318)
(0.753336 -3.77083e-19 -8.05195e-21 0.753341 6.09555e-06 0.753322)
(0.753329 -2.75006e-19 -1.33526e-20 0.75336 -2.53829e-05 0.753311)
(0.75334 -1.60033e-19 -1.54611e-20 0.753328 -9.23653e-06 0.753332)
(0.753333 -3.14725e-20 -2.19836e-20 0.753304 5.3343e-06 0.753363)
(0.753333 -1.55287e-20 -6.92043e-21 0.75334 -9.38042e-06 0.753327)
(0.753336 -7.34663e-21 -7.26667e-21 0.753333 -7.25627e-06 0.75333)
(0.753333 7.84041e-21 -8.49097e-21 0.75334 -1.76696e-05 0.753328)
(0.753333 -3.03656e-20 -6.835e-21 0.753336 -4.04359e-06 0.753331)
(0.753335 -4.69036e-20 -7.60713e-21 0.753329 2.81706e-05 0.753336)
(0.753335 -6.53805e-20 -9.63676e-21 0.753325 4.22469e-05 0.75334)
(0.753328 -6.72263e-20 -1.17055e-20 0.753335 5.21132e-05 0.753337)
(0.753346 -4.69358e-20 -1.21402e-20 0.753294 6.67527e-05 0.753361)
(0.753332 -1.22103e-22 -3.82662e-21 0.753293 1.41613e-05 0.753375)
(0.753332 2.37296e-20 -8.1144e-21 0.753328 5.15287e-05 0.75334)
(0.753338 4.65828e-20 -8.58833e-21 0.753324 0.00013181 0.753339)
(0.753331 7.13313e-20 -8.14496e-21 0.753327 0.000129061 0.753341)
(0.753335 7.09104e-20 -5.98267e-21 0.753312 0.000143546 0.753353)
(0.753333 5.37555e-21 -4.60602e-21 0.753307 0.00013242 0.75336)
(0.753334 3.965e-20 7.33121e-21 0.75329 0.000147047 0.753376)
(0.753335 1.02982e-19 1.09672e-20 0.753275 0.000168554 0.75339)
(0.75333 6.84603e-20 1.18483e-20 0.753275 0.000157701 0.753395)
(0.753343 5.9346e-20 1.30872e-20 0.753242 0.00014211 0.753415)
(0.753333 9.37921e-22 1.0235e-20 0.753295 1.09344e-05 0.753372)
(0.753329 -6.70902e-22 1.29054e-20 0.753297 1.51583e-05 0.753374)
(0.753342 4.21028e-20 1.29187e-20 0.75328 8.0309e-05 0.753378)
(0.753331 3.65912e-20 1.43332e-20 0.753293 2.78517e-05 0.753377)
(0.753337 3.52059e-20 1.5484e-20 0.753278 4.71454e-05 0.753385)
(0.753328 6.65034e-20 1.74993e-20 0.75329 9.28429e-05 0.753382)
(0.753338 9.67835e-20 1.70379e-20 0.753269 0.00014174 0.753393)
(0.753338 3.11125e-20 7.79388e-21 0.753294 5.70056e-05 0.753368)
(0.753331 -1.21297e-21 6.4991e-21 0.75331 1.31346e-05 0.753359)
(0.753334 7.0493e-21 4.82437e-21 0.753319 4.2913e-06 0.753348)
(0.753326 -2.52452e-21 7.00496e-21 0.753324 2.08084e-05 0.75335)
(0.753345 4.33118e-20 4.81312e-21 0.753293 9.68306e-05 0.753362)
(0.753337 2.53347e-20 -2.51026e-21 0.753321 5.25006e-05 0.753342)
(0.753329 -7.04748e-21 -1.09371e-21 0.753342 -1.94336e-06 0.753329)
(0.753337 2.32638e-21 -2.50874e-22 0.753324 1.73682e-06 0.753339)
(0.753329 -8.68643e-22 -2.21483e-21 0.753339 9.64731e-06 0.753332)
(0.753334 1.68272e-21 -1.20848e-23 0.75333 3.67211e-06 0.753335)
(0.753334 2.02096e-22 -2.13915e-21 0.753328 8.63786e-06 0.753337)
(0.75333 6.93211e-22 -2.08213e-23 0.753338 4.67306e-06 0.753331)
(0.753336 3.35883e-21 -3.61386e-23 0.753327 2.06886e-06 0.753337)
(0.753333 7.7827e-23 -1.67212e-21 0.753333 9.23814e-06 0.753335)
(0.753331 -2.20911e-22 -2.26454e-22 0.753337 4.49823e-06 0.753332)
(0.753336 1.59017e-21 -1.68567e-22 0.753328 2.75248e-06 0.753336)
(0.75333 3.91258e-22 -1.21138e-21 0.753338 8.99646e-06 0.753332)
(0.753334 4.47762e-22 -1.29559e-22 0.753332 4.37322e-06 0.753334)
(0.753335 7.97517e-23 -1.02617e-21 0.753329 8.39961e-06 0.753336)
(0.753331 -6.53787e-22 -1.37758e-22 0.753338 4.84203e-06 0.753331)
(0.753336 4.7608e-22 -7.80807e-23 0.753328 3.42079e-06 0.753336)
(0.75333 -7.28672e-22 -1.11749e-21 0.753339 8.84159e-06 0.753331)
(0.753334 1.30806e-21 -6.87315e-23 0.753332 4.55813e-06 0.753334)
(0.753335 -5.15913e-22 -1.22352e-21 0.75333 8.09734e-06 0.753336)
(0.753331 -8.6169e-22 -2.24736e-22 0.753338 4.97402e-06 0.753331)
(0.753336 9.12429e-22 -1.33274e-22 0.753328 3.7732e-06 0.753336)
(0.753333 -2.76657e-22 -1.23878e-21 0.753333 8.40246e-06 0.753334)
(0.753331 -4.20925e-23 -1.94269e-22 0.753337 4.83277e-06 0.753332)
(0.753335 2.86502e-21 -1.13209e-22 0.753329 3.83632e-06 0.753336)
(0.75333 6.78923e-22 -7.45013e-22 0.753338 8.28884e-06 0.753331)
(0.753334 3.37765e-22 -1.4746e-22 0.753332 4.65263e-06 0.753334)
(0.753335 3.86984e-22 -5.44823e-22 0.75333 7.77831e-06 0.753336)
(0.753331 1.11992e-21 -1.34566e-22 0.753338 4.84002e-06 0.753331)
(0.753336 2.01328e-22 -1.0375e-22 0.753329 3.9139e-06 0.753336)
(0.75333 -8.35709e-22 -5.69608e-22 0.753339 8.07273e-06 0.753331)
(0.753334 -5.51903e-22 -1.59609e-22 0.753332 4.56751e-06 0.753334)
(0.753335 -1.54419e-21 -9.57118e-22 0.75333 7.3162e-06 0.753335)
(0.753331 -1.40846e-21 -2.8783e-22 0.753339 4.65993e-06 0.75333)
(0.753336 1.90296e-21 -1.51815e-22 0.753328 4.07424e-06 0.753336)
(0.753333 -7.77912e-22 -1.31569e-21 0.753334 7.38736e-06 0.753333)
(0.753331 -6.46515e-22 -2.57785e-22 0.753337 4.32131e-06 0.753331)
(0.753335 2.8873e-21 -2.28819e-22 0.753329 4.23722e-06 0.753335)
(0.753331 7.67067e-22 -1.03691e-21 0.753339 7.61832e-06 0.75333)
(0.753334 6.20741e-22 -1.55029e-22 0.753332 4.64121e-06 0.753334)
(0.753335 1.12636e-21 -6.78034e-22 0.753331 7.55476e-06 0.753334)
(0.753331 5.97794e-22 -7.01254e-23 0.753338 4.59381e-06 0.753331)
(0.753336 -1.84245e-22 3.35123e-23 0.753329 4.84006e-06 0.753336)
(0.753331 1.45549e-21 1.31235e-24 0.75334 8.361e-06 0.75333)
(0.753334 2.23675e-21 1.4826e-23 0.753332 5.04764e-06 0.753334)
(0.753335 9.86036e-22 4.99143e-22 0.753331 8.06719e-06 0.753334)
(0.753331 4.94963e-22 1.12964e-22 0.753339 4.97883e-06 0.753331)
(0.753336 1.2392e-21 4.60426e-23 0.753328 4.9249e-06 0.753336)
(0.753333 3.7625e-22 6.84972e-22 0.753334 8.11822e-06 0.753333)
(0.753331 -7.52775e-24 1.05484e-22 0.753337 4.88165e-06 0.753332)
(0.753335 -7.20894e-22 1.02128e-22 0.753329 4.75943e-06 0.753336)
(0.753331 -5.2431e-22 4.54586e-22 0.753339 8.16043e-06 0.753331)
(0.753334 -1.90666e-21 9.24593e-23 0.753332 5.05093e-06 0.753334)
(0.753335 -6.57648e-22 1.65612e-22 0.75333 7.96625e-06 0.753335)
(0.753331 -1.12106e-22 3.07601e-23 0.753338 5.09656e-06 0.753331)
(0.753336 1.34206e-21 3.55319e-24 0.753328 4.84414e-06 0.753336)