/*--------------------------------*- C++ -*----------------------------------*\
| =========                 |                                                 |
| \\      /  F ield         | OpenFOAM: The Open Source CFD Toolbox           |
|  \\    /   O peration     | Version:  4.1                                   |
|   \\  /    A nd           | Web:      www.OpenFOAM.org                      |
|    \\/     M anipulation  |                                                 |
\*---------------------------------------------------------------------------*/
FoamFile
{
    version     2.0;
    format      ascii;
    class       volScalarField;
    location    "29";
    object      p;
}
// * * * * * * * * * * * * * * * * * * * * * * * * * * * * * * * * * * * * * //

dimensions      [0 2 -2 0 0 0 0];

internalField   nonuniform List<scalar> 
6785
(
3560.13
3495.59
3444.18
3394.4
3348.21
3304.85
3264.17
3225.91
3189.85
3155.47
3122.54
3092.33
3063.97
3029.68
2997.93
3019.74
3001.67
3004.05
2999.29
2995.45
2991.56
2988.09
2985.28
2983.34
2982.36
2982.28
2983.55
2987.01
2990.07
2989.79
2959.98
2953.85
2963.37
2962.65
2965.76
2968.01
2970.41
2972.68
2974.83
2976.82
2978.55
2979.83
2980.8
2982.15
2983.95
3010.81
3008.63
3013.75
3010.32
3011.08
3009.88
3009
3007.95
3006.91
3005.91
3005.02
3004.26
3003.81
3004.34
3006.38
3021.59
3020.22
3023.79
3020.81
3022.71
3022.36
3022.74
3023.14
3023.64
3024.28
3025.07
3026.04
3027.28
3028.43
3029.86
3027.83
3027.56
3030.57
3028.86
3031.25
3031.37
3032.38
3033.15
3033.92
3034.63
3035.31
3036.01
3036.83
3037.42
3038.02
3037.49
3037.61
3039.76
3038.24
3040.04
3039.59
3040.22
3040.36
3040.56
3040.61
3040.62
3040.64
3040.78
3040.88
3040.89
3040.95
3040.52
3041.89
3040.23
3041.41
3040.53
3040.84
3040.52
3040.35
3039.93
3039.47
3039.05
3038.71
3038.46
3038
3035.68
3034.51
3035.18
3033.43
3034.07
3032.96
3032.99
3032.38
3031.96
3031.27
3030.61
3029.99
3029.36
3028.6
3027.63
3020.09
3018.73
3018.79
3017.07
3017.2
3015.85
3015.55
3014.65
3014.09
3013.45
3012.95
3012.42
3011.66
3010.76
3010.11
3003.51
3002.31
3002.07
3000.41
3000.21
2998.77
2998.53
2997.88
2997.41
2996.83
2996.29
2995.73
2994.97
2994.16
2993.68
2983.24
2983
2982.77
2981.72
2981.8
2980.99
2981.06
2980.86
2980.77
2980.51
2980.18
2979.78
2979.14
2978.51
2977.78
2977.54
2975.54
2974.1
2972.12
2971.27
2969.9
2969.53
2969.31
2969.22
2968.96
2968.68
2968.49
2968.4
2968.58
2967.31
2893.02
2895.74
2904.32
2911.14
2918.75
2925.28
2931.35
2936.14
2939.81
2942.69
2944.88
2945.97
2947.93
2953.22
2950.04
2939.47
2958.51
2961.57
2965.58
2968.53
2971.13
2973.84
2976.92
2980.98
2985.47
2988.57
2991.02
2995.32
2991.85
2968.85
3467.78
3467.72
3467.27
3464.06
3464.06
3461.58
3459.51
3453.12
3451.86
3451.02
3446.38
3432.49
3434.88
3428.38
3411.34
3407.48
3417.78
3407.71
3377.04
3389.33
3380.81
3350.75
3343.2
3372.72
3352.78
3312.36
3304.71
3343.26
3326.8
3265.78
3296.78
3290.14
3238.21
3225.39
3284.45
3266.65
3184.15
3228.86
3225.26
3158.88
3141.13
3226.85
3195.86
3112.43
3096.73
3193.52
3172.38
3056.72
3123.1
3126.03
3038.44
3015.07
3135.73
3100.99
2993.44
2974.24
3104.85
3083.85
2939.18
3027.13
3037.77
2931.45
2905.64
3049.36
3033.43
2875.83
2973.01
2989.68
2876.81
2847.41
3010.14
2979.1
2846.01
2822.32
2990.59
2976.43
2809.56
2900.37
2972.04
2794.3
2926.7
3081.82
3085.53
2997.43
3062.69
3058.4
3044.02
3046.27
3061.3
3073.86
3082.36
3056.44
3009.89
3026.22
2996.53
2992.61
2994.33
2982.37
2972.07
2977.63
2974.51
3057.07
3011.46
2948.31
2947.78
2960.17
2958.96
2956.6
2952.59
2951.53
2942.83
3000.15
2975.52
2915.68
2905.75
2910.12
2906.45
2901.9
2907.82
2900.2
2934.25
2915.09
2849.03
2830.3
2826.97
2819.65
2800.95
2789.29
2757.87
2680.85
2753.96
2680.93
2649.26
2628.46
2586.79
2549.11
2527.22
2487.75
2389.38
2440.93
2322.68
2278.34
2255.58
2215.8
2160.42
2092.01
2049.39
1988.16
1789.1
1897.34
1714.33
1639.25
1599.77
1532.39
1452.86
1369.14
1244.6
924.433
1058.59
791.681
443.734
1073.81
1620.43
1081.98
1072.5
1121.29
1188.62
1511.3
1243.11
1133.04
1461.72
1242.39
1193.04
1209.32
1203.51
1413.46
1222.11
1164.34
1183.56
1156.36
1338.5
1201
1067.58
1312.37
1171.14
1085.06
1133.84
1079.89
1345.59
1170.94
1062.94
1135.08
1067.09
1392.63
1217.62
955.077
1425.93
1205.05
1000.53
1112.44
998.491
1499.46
1164.62
912.105
1047
911.173
1500.18
1153.73
642.637
1475.88
1069.07
679.47
862.047
673.391
1523.82
926.172
481.837
696.536
489.269
1452.76
858.339
23.8104
1351.54
694.698
70.1934
339.135
67.7121
1376.93
436.235
-258.384
50.7416
-245.16
1202.15
282.036
-987.288
987.139
-23.9411
-951.15
-656.746
-856.497
-0.407236
-0.973324
-1.51348
-2.30723
-3.19136
-4.0173
-4.34154
-3.69736
-1.53419
2.62511
8.98265
16.1427
18.7039
12.3859
6.86574
4.78657
3.33747
4.97866
5.79037
6.92994
8.84242
10.3906
10.0928
13.5051
15.5092
12.3607
8.24531
5.38036
4.03703
3.09429
2.28973
1.59211
1.06977
0.537213
0.0729232
-0.365077
-0.8259
-1.30382
-1.80066
-2.32981
-2.90173
-3.50526
-4.3179
-6.16622
-11.9223
-16.4653
-19.3226
-48.9769
-53.9056
-1.84978
-5.69039
-9.63901
-7.65671
-2.92922
0.897416
1.91969
-5.63016
9.90639
0.751265
-14.5556
-10.6275
25.8579
-6.5916
180.52
132.327
33.2239
4.74124
4.03677
11.0065
18.6622
24.6997
28.4129
30.1351
31.9486
34.2844
35.2828
34.6962
26.6586
20.8331
-0.142789
0.496159
1.44326
1.73789
2.13282
2.47009
3.41471
5.41271
9.40996
16.4998
27.4443
39.706
43.2013
30.73
20.3397
17.2755
16.3348
21.1655
22.0758
24.3697
25.9686
26.8362
25.3378
31.1204
34.3469
28.9453
21.5345
15.768
12.0938
9.2077
6.88863
5.08197
3.67831
2.21907
0.888828
-0.43358
-1.87061
-3.39811
-5.01511
-6.76565
-8.69578
-10.8034
-13.448
-18.1503
-28.8972
-35.4204
-40.0858
-92.0993
-98.1164
-1.6426
-11.6721
-26.4526
-23.6039
-9.93257
3.40821
7.50411
-12.8429
5.53425
13.5617
15.9028
31.0701
74.4563
-52.3803
214.691
194.258
52.5617
22.7704
33.5045
50.0227
64.8246
76.3314
83.6769
86.8607
87.8596
87.5941
84.0858
84.4306
81.8828
56.585
0.501788
2.22238
4.4651
5.92748
7.59595
9.06844
10.99
13.6001
17.7428
24.301
33.743
43.5165
45.8222
36.1445
28.1442
26.0951
25.0515
30.0129
30.6643
33.4132
34.915
35.3469
33.1844
37.5554
39.9977
35.4703
28.7933
23.0154
18.5928
14.9031
11.4966
8.59369
6.12102
3.61803
1.29555
-1.01651
-3.49194
-6.11175
-8.88896
-11.9029
-15.2343
-18.9081
-23.5448
-30.6407
-43.4392
-53.815
-59.301
-108.225
-111.805
-10.5426
-30.6646
-51.8978
-45.9301
-18.714
8.46197
20.3788
4.03552
-5.00718
6.70136
35.2067
39.601
90.3005
-32.2669
128.666
160.669
81.2998
67.6282
83.386
101.513
117.101
129.116
137.11
142.853
146.362
148.936
146.315
145.872
139.537
135.115
1.1196
3.5768
6.7701
9.04409
11.5517
13.7211
16.2394
19.2437
23.506
29.6443
37.7917
45.6471
48.1927
42.1204
35.6536
33.7732
32.1503
36.7603
37.3565
40.5641
42.7452
43.7275
42.076
45.3458
46.5012
42.2602
36.2123
30.5715
25.4686
20.8034
16.3121
12.271
8.73925
5.21134
1.86548
-1.47896
-5.0333
-8.79762
-12.8042
-17.1713
-22.0179
-27.4125
-34.1261
-43.8541
-58.983
-73.1809
-84.4291
-131.92
-126.623
-23.9041
-50.8333
-78.1259
-73.0948
-30.3615
10.5308
27.5051
10.5031
-6.4784
1.57276
45.4207
52.5567
104.11
-31.8279
113.438
149.718
114.428
111.496
130.867
150.579
167.467
180.66
190.185
197.727
202.099
205.316
201.827
201.73
195.984
179.69
1.6923
4.87096
9.0688
12.1151
15.4362
18.2662
21.3942
24.8935
29.5689
35.9521
44.0622
51.6837
54.9598
50.12
43.7748
41.7954
39.9127
44.8188
45.4916
49.2935
52.0646
53.2976
51.6517
54.4591
55.1203
50.6519
44.4636
38.4332
32.4881
26.714
21.1664
16.0494
11.4468
6.8314
2.39498
-2.04513
-6.73392
-11.7007
-17.0067
-22.8155
-29.2867
-36.5431
-45.4992
-58.0407
-76.1723
-93.0669
-112.793
-163.563
-146.848
-46.7852
-76.7069
-107.599
-105.062
-45.1102
11.0885
36.3302
19.662
-4.57734
0.991075
56.1463
60.493
120.937
-27.2353
125.132
156.188
145.019
149.924
174.531
197.332
216.609
231.607
242.339
251.586
257.213
261.728
258.151
258.245
253.315
254.134
2.29222
6.21144
11.4895
15.3466
19.5428
23.0874
26.8759
30.8954
35.9868
42.6227
50.7536
58.1952
61.8307
57.3676
51.3003
49.4922
47.6548
53.0479
53.7665
58.136
61.1879
62.2278
60.1322
62.3986
63.072
58.5833
52.2672
45.8855
39.3335
32.5725
26.1599
20.0041
14.262
8.51614
2.95042
-2.63657
-8.50833
-14.7296
-21.4022
-28.7432
-36.9559
-46.225
-57.5983
-73.1234
-94.7642
-114.231
-141.872
-197.401
-169.805
-76.5684
-105.755
-138.103
-140.701
-63.1558
9.37742
42.4834
28.8422
0.751829
1.38137
63.1704
66.2234
126.196
-16.7342
133.474
162.778
175.088
188.369
218.541
244.304
265.669
282.052
293.791
304.471
310.947
316.313
312.454
312.94
304.077
301.138
2.92929
7.54648
13.9034
18.5484
23.6021
27.8331
32.2485
36.74
42.1715
48.9308
56.8885
63.9615
67.9228
63.89
58.3081
56.6639
54.9296
60.7207
61.462
66.3288
69.5885
70.4268
67.864
69.4154
70.2899
65.9378
59.6553
53.0922
46.1741
38.4828
31.2929
24.0662
17.1461
10.2416
3.49962
-3.28866
-10.3905
-17.9174
-26.0252
-34.9924
-45.0696
-56.5126
-70.495
-89.1997
-114.686
-137.299
-172.415
-232.966
-194.147
-111.922
-137.451
-168.169
-178.834
-84.9455
4.53489
47.1938
37.8907
10.7931
3.44293
66.5495
71.2432
135.662
-2.23536
147.224
171.29
205.55
227.352
262.868
291.224
314.326
331.843
344.428
356.397
363.671
369.893
365.913
367.02
365.642
350.029
3.59075
8.86113
16.2965
21.6944
27.5736
32.4465
37.4487
42.3784
48.1305
55.0113
62.8263
69.6358
74.0462
70.2592
65.1106
63.5344
61.9407
68.1143
68.8985
74.2282
77.6919
78.3785
75.2587
76.0009
77.3343
73.1532
66.9048
60.1529
52.9456
44.4294
36.5316
28.2309
20.1052
11.9996
4.03672
-3.99602
-12.3678
-21.2476
-30.8564
-41.5429
-53.6094
-67.3915
-84.1816
-106.276
-135.936
-162.473
-205.394
-271.05
-219.678
-151.206
-170.57
-196.094
-215.887
-110.672
-4.17769
49.2186
45.7213
24.5323
7.37851
66.4806
75.1231
139.144
13.906
168.316
184.005
235.812
265.841
306.712
337.631
362.397
380.966
394.295
407.391
415.289
422.21
418.062
419.916
419.053
426.404
4.27425
10.1652
18.6951
24.8226
31.5135
37.0024
42.5724
47.9271
54.0024
61.0342
68.7793
75.4329
80.2814
76.4153
71.6837
70.1655
68.801
75.4007
76.2537
82.032
85.6483
86.1463
82.3048
82.1682
84.206
80.2369
73.998
67.0196
59.5679
50.4103
41.8622
32.4786
23.1063
13.7631
4.54779
-4.7651
-14.4431
-24.7195
-35.8916
-48.3887
-62.5704
-78.8613
-98.661
-124.356
-158.543
-189.784
-240.978
-311.606
-248.283
-194.021
-204.512
-221.034
-248.142
-141.858
-17.583
48.3821
51.7921
40.6649
12.365
62.9087
79.2173
141.235
32.7601
192.605
199.903
265.653
303.838
350.12
383.592
409.936
429.418
443.369
457.467
465.882
473.425
469.169
471.708
468.63
474.532
4.98292
11.4611
21.1019
27.9377
35.4301
41.5143
47.6373
53.4033
59.7953
66.9802
74.6675
81.1765
86.4025
82.2544
77.9886
76.5291
75.4749
82.5259
83.4663
89.6797
93.393
93.682
89.0108
87.9488
90.8124
87.1066
80.8945
73.6966
66.0362
56.4208
47.2128
36.7653
26.1248
15.5172
5.02278
-5.59948
-16.6135
-28.3245
-41.117
-55.5128
-71.9343
-90.9056
-113.918
-143.411
-182.501
-219.224
-279.201
-354.65
-281.395
-239.972
-238.806
-242.426
-272.076
-181.687
-37.9362
43.6425
55.2312
56.4046
16.7487
56.1844
83.1774
140.363
52.7729
217.161
217.9
295.03
341.546
393.238
429.166
456.945
477.18
491.658
506.638
515.449
523.52
519.179
522.54
525.359
523.24
5.71839
12.7476
23.5135
31.0341
39.3162
45.9723
52.6309
58.7918
65.4891
72.8177
80.4356
86.7849
92.356
87.8093
84.0598
82.6381
81.9522
89.4605
90.5058
97.1425
100.922
101.033
95.465
93.4334
97.1715
93.7724
87.6201
80.2129
72.3251
62.3823
52.4682
41.048
29.139
17.2418
5.44703
-6.50398
-18.877
-32.0552
-46.5208
-62.9001
-81.6857
-103.512
-129.946
-163.436
-207.78
-250.796
-320.166
-400.639
-319.933
-288.929
-273.311
-259.896
-286.168
-226.47
-65.418
33.8397
55.0271
68.7876
18.1413
47.3259
87.0757
136.585
72.4486
239.868
237.264
323.766
378.931
436.046
474.317
503.399
524.239
539.162
554.914
564.016
572.541
568.114
572.321
576.904
590.469
6.48124
14.025
25.9317
34.1135
43.174
50.3792
57.5572
64.098
71.0909
78.5555
86.0926
92.2655
98.1559
93.1116
89.9224
88.5208
88.256
96.2269
97.3959
104.45
108.279
108.266
101.776
98.7599
103.328
100.26
94.207
86.5872
78.4075
68.1917
57.5595
45.2909
32.1241
18.9206
5.80895
-7.48271
-21.2317
-35.905
-52.0916
-70.5362
-91.8107
-116.673
-146.746
-184.469
-234.366
-284.494
-363.876
-449.969
-365.705
-341.508
-308.101
-273.408
-291.46
-261.511
-96.4111
18.5009
49.5714
75.1885
14.6456
37.4243
90.9239
130.12
90.63
258.802
257.097
351.659
415.919
478.523
519.026
549.287
570.586
585.884
602.298
611.588
620.499
615.998
621.076
627.51
633.592
7.2725
15.2939
28.359
37.1789
47.0084
54.7418
62.4256
69.3334
76.6138
84.2059
91.6452
97.6123
103.787
98.1712
95.5831
94.1933
94.4021
102.843
104.154
111.624
115.489
115.422
108.04
104.083
109.282
106.583
100.681
92.8452
84.2912
73.7767
62.4853
49.4217
35.0425
20.5414
6.09978
-8.54101
-23.6768
-39.8678
-57.8188
-78.4084
-102.298
-130.383
-164.325
-206.559
-262.252
-320.302
-410.35
-502.839
-420.233
-398.536
-343.373
-283.393
-289.278
-278.698
-128.263
-3.11018
37.3611
72.2531
5.18726
27.0573
94.5416
121.01
106.085
272.645
276.334
378.569
452.481
520.679
563.298
594.604
616.216
631.825
648.788
658.169
667.415
662.842
668.799
677.26
693.385
8.09358
16.5546
30.7967
40.2316
50.8221
59.064
67.2418
74.505
82.0645
89.772
97.0877
102.806
109.229
103.005
101.049
99.6668
100.397
109.315
110.784
118.673
122.564
122.526
114.288
109.42
114.972
112.748
107.068
99.0312
90.0221
79.1155
67.2309
53.3518
37.8568
22.0921
6.31445
-9.68304
-26.2117
-43.9368
-63.6912
-86.5035
-113.136
-144.634
-182.683
-229.73
-291.397
-358.205
-459.661
-559.344
-483.365
-460.462
-379.33
-290.773
-281.154
-280.903
-157.845
-30.1181
17.8398
56.881
-10.8356
15.8916
97.5785
109.311
117.606
280.684
293.87
404.406
488.612
562.531
607.137
639.346
661.121
676.98
694.374
703.755
713.3
708.693
715.45
721.312
734.803
8.94599
17.8074
33.2463
43.273
54.6173
63.3491
72.0108
79.6185
87.4484
95.2564
102.417
107.836
114.47
107.639
106.33
104.954
106.249
115.648
117.288
125.601
129.515
129.596
120.555
114.806
120.344
118.762
113.391
105.199
95.671
84.2194
71.7614
57.0696
40.5493
23.5577
6.44832
-10.9103
-28.834
-48.1036
-69.6951
-94.8056
-124.308
-159.416
-201.814
-253.974
-321.732
-398.139
-511.793
-619.634
-554.21
-527.271
-416.149
-296.686
-268.963
-269.64
-179.158
-58.9594
-8.59038
28.0792
-34.4912
2.57415
99.3767
95.0279
124.222
282.521
308.607
429.132
524.315
604.091
650.548
683.505
705.296
721.34
739.039
748.337
758.165
753.575
761.25
771.905
773.704
9.83132
19.0523
35.7091
46.3046
58.3968
67.601
76.7377
84.6804
92.7721
100.664
107.634
112.699
119.507
112.098
111.43
110.065
111.962
121.846
123.668
132.411
136.347
136.643
126.893
120.34
125.394
124.631
119.672
111.401
101.316
89.1789
76.1287
60.6675
43.1417
24.9367
6.4962
-12.2221
-31.5384
-52.3579
-75.8155
-103.297
-135.8
-174.721
-221.721
-279.282
-353.195
-439.867
-566.611
-683.961
-632.541
-598.564
-453.98
-302.385
-254.495
-249.552
-186.64
-84.5242
-39.1813
-11.7745
-66.8245
-15.1025
99.0742
78.2274
125.384
278.172
319.588
452.773
559.599
645.377
693.532
727.076
748.734
764.889
782.759
791.904
802.022
797.476
806.11
816.417
829.362
10.7513
20.2897
38.1866
49.3278
62.1633
71.8236
81.4283
89.6975
98.0426
106
112.743
117.399
124.332
116.404
116.351
115.01
117.541
127.91
129.921
139.104
143.056
143.652
133.273
125.998
130.165
130.357
125.929
117.675
107.028
94.1867
80.4511
64.2714
45.7067
26.2544
6.45568
-13.6189
-34.3182
-56.6889
-82.0382
-111.964
-147.602
-190.556
-242.437
-305.703
-385.78
-483.207
-623.904
-752.525
-718.17
-673.402
-492.994
-308.986
-239.755
-224.913
-177.179
-101.8
-69.5728
-59.5455
-108.54
-39.3903
95.831
59.1458
121.062
268.311
326.214
475.417
594.466
686.415
736.092
770.052
791.424
807.603
825.506
834.442
844.883
840.468
850.011
857.522
867.518
11.7079
21.5194
40.6801
52.3441
65.9191
76.0207
86.0878
94.6763
103.267
111.27
117.749
121.942
128.942
120.577
121.089
119.792
122.986
133.838
136.039
145.673
149.631
150.579
139.647
131.764
134.692
135.91
132.154
124.043
112.868
99.3979
84.7745
67.9198
48.2916
27.5278
6.32614
-15.1056
-37.1702
-61.089
-88.3532
-120.798
-159.719
-206.95
-264.033
-333.351
-419.641
-528.296
-683.545
-825.029
-809.98
-750.559
-533.455
-317.671
-226.362
-198.223
-152.868
-107.697
-96.1961
-112.388
-159.907
-71.7568
89.0647
38.3241
111.719
254.079
328.315
497.217
628.93
727.242
778.23
812.426
833.351
849.449
867.244
875.939
886.766
882.579
893.119
902.838
902.311
12.703
22.7416
43.1909
55.3547
69.6669
80.196
90.7217
99.6234
108.452
116.48
122.66
126.342
133.334
124.628
125.64
124.417
128.293
139.625
142.015
152.111
156.049
157.366
145.951
137.608
139.008
141.26
138.309
130.5
118.865
104.832
89.0222
71.5053
50.8327
28.7285
6.10221
-16.6891
-40.1011
-65.5556
-94.7554
-129.799
-172.165
-223.952
-286.605
-362.38
-455.146
-575.339
-745.346
-900.769
-906.296
-829.129
-575.876
-329.797
-215.448
-171.143
-120.416
-100.981
-116.734
-167.133
-219.515
-112.58
78.7833
16.7763
98.0918
236.47
325.981
518.397
663.061
767.898
819.948
854.184
874.493
890.384
907.939
916.388
927.696
923.827
935.407
944.206
948.227
13.7389
23.9561
45.7202
58.3608
73.4089
84.3534
95.3352
104.545
113.604
121.637
127.488
130.628
137.514
128.564
129.99
128.884
133.46
145.264
147.841
158.404
162.296
163.956
152.093
143.455
143.219
146.4
144.345
137.014
124.998
110.414
93.2207
74.8457
53.1962
29.7847
5.77621
-18.3664
-43.1215
-70.0906
-101.241
-138.968
-184.959
-241.608
-310.248
-392.966
-492.73
-624.538
-809.025
-979.203
-1005.24
-908.292
-621.062
-346.889
-207.576
-145.634
-85.2252
-80.5774
-127.427
-220.166
-285.041
-161.374
65.7735
-3.7688
80.9717
215.783
319.508
539.228
696.982
808.428
861.241
895.308
914.817
930.361
947.553
955.788
967.704
964.266
976.922
984.315
979.461
14.8177
25.1631
48.2691
61.3637
77.1477
88.4966
99.9338
109.448
118.732
126.747
132.243
134.831
141.471
132.382
134.125
133.196
138.482
150.75
153.514
164.534
168.368
170.306
158.032
149.294
147.402
151.312
150.219
143.525
131.215
116.052
97.5777
77.7569
55.2484
30.624
5.33057
-20.1164
-46.2276
-74.6933
-107.804
-148.302
-198.11
-259.96
-335.051
-425.287
-532.582
-675.918
-874.354
-1059.65
-1104.73
-987.065
-670.1
-370.78
-203.368
-123.126
-49.4565
-48.2752
-123.02
-265.602
-352.208
-216.322
51.6155
-21.0267
61.2662
191.856
309.422
559.987
730.826
848.868
902.094
935.765
954.278
969.324
986.057
994.147
1006.83
1003.94
1017.71
1023.8
1016.32
15.9417
26.3624
50.8386
64.3644
80.8856
92.6295
104.523
114.34
123.842
131.818
136.939
138.982
145.185
136.083
138.023
137.354
143.355
156.079
159.035
170.494
174.265
176.401
163.767
155.08
151.623
155.975
155.911
149.958
137.448
121.672
102.112
80.2043
56.8998
31.2164
4.74302
-21.9243
-49.3949
-79.357
-114.429
-157.786
-211.62
-279.039
-361.106
-459.497
-574.852
-729.404
-940.839
-1141.01
-1202.84
-1064.77
-724.242
-403.604
-204.018
-104.139
-15.4615
-10.2324
-102.287
-297.354
-414.147
-273.885
38.5363
-32.7301
40.1879
164.971
296.325
580.925
764.705
889.23
942.466
975.506
992.817
1007.22
1023.43
1031.49
1045.13
1042.91
1057.79
1059.18
1045.71
17.1132
27.5542
53.4299
67.364
84.625
96.7558
109.108
119.226
128.941
136.862
141.598
143.11
148.601
139.663
141.663
141.362
148.079
161.25
164.41
176.29
179.988
182.25
169.34
160.814
155.995
160.353
161.387
156.216
143.604
127.238
106.607
82.5198
58.1238
31.5394
3.98103
-23.8183
-52.5853
-84.0628
-121.095
-167.402
-225.484
-298.88
-388.52
-495.821
-620.122
-785.715
-1008.38
-1222.82
-1298.09
-1141.25
-784.653
-447.385
-211.266
-88.909
15.4799
28.0225
-70.7647
-314.496
-466.484
-328.873
28.9907
-36.8628
19.092
136.163
280.791
602.272
798.683
929.483
982.281
1014.45
1030.37
1044.01
1059.67
1067.84
1082.66
1081.25
1097.32
1098.41
1069.29
18.3342
28.7383
56.0437
70.3635
88.3683
100.88
113.695
124.113
134.038
141.886
146.243
147.264
151.605
143.112
145.022
145.229
152.657
166.268
169.646
181.932
185.549
187.867
174.816
166.524
160.529
164.477
166.596
162.172
149.601
132.777
111.028
85.1446
58.9656
31.5575
2.9837
-25.8466
-55.7928
-88.7884
-127.778
-177.127
-239.702
-319.527
-417.428
-534.582
-669.133
-845.98
-1077.36
-1305.51
-1389.54
-1216.91
-852.084
-503.234
-226.704
-77.5263
43.3813
64.4146
-34.7795
-320.639
-511.041
-376.549
25.2614
-33.0311
-1.01437
106.687
263.537
624.236
832.765
969.54
1021.43
1052.52
1066.85
1079.64
1094.77
1103.26
1119.48
1118.98
1136.32
1133.92
1102.13
19.607
29.9145
58.6808
73.3638
92.1179
105.005
118.289
129.01
139.139
146.897
150.89
151.507
154.073
146.42
148.086
148.97
157.094
171.139
174.754
187.437
190.966
193.25
180.22
172.208
165.25
168.495
171.517
167.721
155.402
138.38
115.608
88.1681
59.6265
31.2493
1.69302
-28.0605
-59.0626
-93.515
-134.453
-186.945
-254.276
-341.032
-447.974
-576.079
-722.33
-910.652
-1148.35
-1389.73
-1477.06
-1292.75
-927.202
-570.838
-251.023
-70.3352
68.6122
100.336
1.62877
-322.121
-551.608
-415.207
28.5182
-23.4818
-19.4792
77.7457
245.541
647
866.915
1009.28
1059.78
1089.58
1102.2
1114.09
1128.79
1137.78
1155.65
1156.19
1174.82
1167.45
1127.07
20.9335
31.0825
61.3418
76.366
95.8759
109.135
122.896
133.924
144.252
151.896
155.564
155.962
155.999
149.58
150.857
152.605
161.406
175.876
179.746
192.82
196.262
198.37
185.558
177.896
170.188
172.548
176.205
172.867
161.01
144.094
120.535
91.5241
60.4397
30.6018
0.0759183
-30.4912
-62.4219
-98.2304
-141.099
-196.841
-269.211
-363.447
-480.299
-620.576
-779.946
-980.039
-1222.71
-1476.08
-1561.57
-1370.29
-1011.2
-649.315
-284.109
-67.8379
91.9161
135.897
35.21
-322.873
-585.756
-444.148
38.8552
-11.5515
-36.0616
50.4986
227.909
670.73
901.079
1048.57
1097.19
1125.55
1136.37
1147.31
1161.75
1171.46
1191.25
1192.91
1212.96
1203.59
1146.7
22.3156
32.2417
64.0272
79.3712
99.6444
113.273
127.52
138.862
149.384
156.888
160.281
160.798
157.517
152.598
153.371
156.166
165.612
180.5
184.639
198.095
201.465
203.192
190.819
183.576
175.325
176.782
180.806
177.79
166.518
149.868
125.714
95.2066
61.6406
29.6941
-1.88803
-33.1621
-65.8845
-102.928
-147.705
-206.801
-284.506
-386.813
-514.53
-668.305
-842.268
-1054.65
-1302.31
-1565.08
-1644.86
-1451.26
-1104.43
-737.347
-325.477
-70.3695
113.245
168.445
64.8613
-321.115
-605.503
-460.379
56.0851
0.247786
-51.0721
25.9101
211.76
695.541
935.194
1087.26
1133.55
1160.33
1169.31
1179.31
1193.72
1204.37
1226.34
1229.2
1250.81
1237.75
1172.73
23.7551
33.3918
66.7372
82.3804
103.426
117.423
132.169
143.831
154.543
161.875
165.024
166.101
158.848
155.496
155.701
159.687
169.738
185.03
189.453
203.277
206.607
207.722
195.995
189.234
180.694
181.321
185.48
182.741
172.113
155.667
130.929
99.0919
63.2119
28.7348
-4.19315
-36.1016
-69.4678
-107.604
-154.274
-216.799
-300.143
-411.154
-550.778
-719.39
-909.543
-1134.88
-1388.79
-1657.36
-1729.3
-1537.28
-1206.29
-833.227
-374.324
-77.8692
131.203
193.762
89.3563
-317.186
-611.916
-460.967
80.0737
10.6342
-65.2373
4.45284
198.228
721.486
969.184
1125.24
1168.77
1193.87
1201.02
1210.11
1224.77
1236.55
1260.97
1265.08
1288.43
1271.51
1191.92
25.2535
34.5322
69.4719
85.3949
107.221
121.589
136.85
148.835
159.735
166.852
169.735
171.757
160.266
158.319
157.955
163.203
173.802
189.485
194.209
208.378
211.727
212.014
201.107
194.868
186.252
186.178
190.311
187.893
177.936
161.523
136.08
102.982
64.9841
27.8812
-6.79268
-39.3329
-73.1917
-112.265
-160.81
-226.802
-316.088
-436.477
-589.141
-774.073
-982.078
-1221.25
-1483.43
-1753.98
-1817.58
-1629.14
-1316.33
-935.504
-429.389
-90.5635
144.42
212.027
112.388
-313.477
-617.598
-446.273
110.492
18.9097
-79.4793
-13.9405
188.37
748.577
1002.98
1162.35
1202.75
1226.14
1231.48
1239.76
1254.96
1268.09
1295.22
1300.58
1325.92
1305.46
1211.71
26.812
35.6623
72.2311
88.4158
111.034
125.777
141.568
153.88
164.965
171.804
174.302
177.402
162.008
161.105
160.252
166.744
177.827
193.879
198.924
213.414
216.867
216.154
206.191
200.466
191.942
191.34
195.321
193.309
184.015
167.456
141.16
106.762
66.8057
27.1404
-9.57054
-42.8721
-77.0911
-116.917
-167.304
-236.79
-332.288
-462.772
-629.702
-832.68
-1060.2
-1314.43
-1587.19
-1856.45
-1912.36
-1726.37
-1433.41
-1042.23
-489.048
-108.799
152.019
226.198
139.548
-309.508
-629.288
-419.031
146.475
24.9448
-94.704
-29.8534
183.126
776.756
1036.54
1198.47
1235.43
1257.11
1260.7
1268.32
1284.38
1299.07
1329.12
1335.73
1363.35
1337.58
1230.29
28.4314
36.7816
75.0143
91.4444
114.865
129.999
146.334
158.974
170.232
176.711
178.588
182.528
164.181
163.893
162.696
170.333
181.842
198.231
203.615
218.401
222.057
220.257
211.307
206.062
197.767
196.765
200.508
198.997
190.311
173.439
146.163
110.392
68.5745
26.454
-12.4081
-46.6995
-81.1905
-121.572
-173.721
-246.785
-348.682
-490.009
-672.527
-895.285
-1144.26
-1415.21
-1700.99
-1966.56
-2015.83
-1827.3
-1555.31
-1151.05
-551.583
-132.19
153.583
240.148
172.65
-303.42
-641.897
-381.719
186.788
29.4127
-111.95
-44.8173
183.31
805.885
1069.78
1233.49
1266.74
1286.77
1288.69
1295.9
1313.13
1329.6
1362.71
1370.52
1400.82
1372.09
1246.12
30.112
37.8899
77.8212
94.4823
118.719
134.263
151.153
164.118
175.533
181.551
182.499
186.718
166.775
166.715
165.35
173.988
185.87
202.556
208.3
223.358
227.316
224.452
216.51
211.687
203.704
202.415
205.885
204.935
196.759
179.431
151.082
113.854
70.1999
25.7559
-15.2689
-50.747
-85.5043
-126.241
-180.012
-256.82
-365.19
-518.141
-717.653
-962.068
-1234.57
-1524.51
-1825.67
-2085.98
-2129.25
-1929.73
-1678.29
-1259.48
-615.334
-159.741
149.185
256.753
212.079
-292.347
-643.667
-333.606
229.143
32.7845
-132.748
-61.6735
189.457
835.745
1102.62
1267.31
1296.65
1315.14
1315.53
1322.69
1341.37
1359.78
1395.97
1404.95
1438.37
1405
1271.05
31.8536
38.9869
80.6513
97.5313
122.601
138.57
156.029
169.315
180.857
186.3
186.049
189.792
169.706
169.593
168.229
177.714
189.935
206.879
212.994
228.306
232.659
228.841
221.846
217.37
209.77
208.308
211.476
211.075
203.281
185.399
155.918
117.159
71.6064
24.9584
-18.1865
-54.9247
-90.0242
-130.934
-186.143
-266.852
-381.736
-547.104
-765.115
-1033.38
-1330.95
-1642.95
-1962.13
-2215.76
-2252.39
-2031.56
-1797.86
-1364.17
-678.419
-190.379
139.097
276.577
256.379
-273.898
-618.914
-274.166
270.417
33.9293
-159.56
-84.1805
201.662
866.109
1135.01
1299.87
1325.18
1342.31
1341.41
1348.91
1369.23
1389.67
1428.88
1439.02
1476.01
1437.17
1292.13
33.6553
40.0728
83.5046
100.595
126.518
142.926
160.962
174.566
186.187
190.945
189.364
191.81
172.865
172.521
171.319
181.512
194.053
211.221
217.711
233.264
238.097
233.47
227.345
223.154
215.985
214.467
217.316
217.366
209.801
191.324
160.678
120.32
72.7497
23.9671
-21.2282
-59.1746
-94.7006
-135.665
-192.102
-276.819
-398.3
-576.813
-814.96
-1109.37
-1434.05
-1771.18
-2110.42
-2355.91
-2382.83
-2130.83
-1910.46
-1461.68
-738.857
-223.086
123.748
297.685
301.985
-244.588
-556.737
-207.691
306.629
29.7914
-196.562
-115.994
219.4
896.749
1166.95
1331.17
1352.42
1368.44
1366.59
1374.77
1396.84
1419.27
1461.37
1472.71
1513.82
1470.85
1316.03
35.5159
41.1483
86.3812
103.675
130.478
147.338
165.955
179.872
191.5
195.49
192.633
192.988
176.159
175.481
174.59
185.382
198.233
215.592
222.457
238.238
243.62
238.348
233.012
229.064
222.358
220.915
223.458
223.803
216.304
197.217
165.367
123.335
73.6031
22.6951
-24.4818
-63.4819
-99.4352
-140.419
-197.926
-286.658
-414.877
-607.151
-867.242
-1190.29
-1544.87
-1909.34
-2268.19
-2505.45
-2515.51
-2225.33
-2012.96
-1548.31
-794.644
-256.938
103.945
316.861
345.761
-200.057
-463.446
-140.739
334.126
16.6424
-250.267
-160.206
241.56
927.511
1198.53
1361.27
1378.5
1393.73
1391.31
1400.44
1424.22
1448.53
1493.4
1506.01
1551.79
1503.71
1352.28
37.4331
42.2147
89.2811
106.778
134.487
151.814
171.014
185.232
196.774
199.953
196.031
193.612
179.505
178.457
178.013
189.317
202.479
219.994
227.235
243.226
249.2
243.457
238.846
235.118
228.92
227.662
229.95
230.428
222.844
203.121
170.002
126.18
74.1345
21.0485
-28.0393
-67.8627
-104.127
-145.137
-203.641
-296.327
-431.52
-638.059
-922.033
-1276.53
-1662.83
-2056.46
-2432.33
-2663.91
-2644.49
-2312.5
-2102.69
-1620.54
-843.596
-291.372
81.2378
332.121
383.883
-142.27
-353.852
-76.8847
352.557
-8.73641
-328.337
-218.613
266.985
958.338
1229.79
1390.23
1403.58
1418.43
1415.79
1426
1451.34
1477.39
1524.89
1538.92
1589.91
1536.64
1384.58
39.4039
43.2735
92.2043
109.909
138.551
156.356
176.143
190.638
201.989
204.358
199.679
194.002
182.855
181.442
181.558
193.309
206.781
224.418
232.037
248.219
254.801
248.754
244.827
241.334
235.686
234.72
236.824
237.31
229.516
209.11
174.622
128.842
74.2998
18.9274
-31.988
-72.3523
-108.695
-149.706
-209.181
-305.872
-448.452
-669.656
-979.388
-1368.2
-1787.6
-2211.29
-2601.48
-2833.01
-2766.01
-2389.85
-2178.02
-1677.11
-884.063
-325.031
57.4221
342.841
412.723
-78.0392
-238.936
-13.4656
363.375
-50.1335
-436.173
-289.474
295.105
989.293
1260.76
1418.1
1427.94
1442.81
1440.18
1451.46
1478.17
1505.79
1555.79
1571.45
1628.19
1570.16
1433.99
41.4242
44.3272
95.1519
113.073
142.672
160.967
181.347
196.078
207.135
208.721
203.603
194.476
186.2
184.441
185.203
197.35
211.127
228.855
236.85
253.206
260.386
254.199
250.934
247.713
242.67
242.1
244.115
244.536
236.435
215.269
179.279
131.332
74.0556
16.2317
-36.4393
-77.0132
-113.073
-153.953
-214.391
-315.15
-465.674
-702.331
-1039.35
-1465.07
-1919.5
-2372.31
-2776.06
-3016.22
-2877.98
-2456.15
-2238.57
-1717.08
-915.337
-355.382
33.7552
351.368
431.38
-12.153
-126.481
54.2413
367.283
-111.846
-572.886
-366.388
326.629
1020.43
1291.49
1445.04
1451.85
1467.1
1464.54
1476.8
1504.63
1533.65
1586.04
1603.65
1666.62
1603.21
1472.27
43.4886
45.378
98.1245
116.276
146.853
165.652
186.625
201.536
212.215
213.038
207.735
195.339
189.545
187.468
188.93
201.431
215.505
233.293
241.661
258.174
265.92
259.748
257.144
254.259
249.885
249.809
251.848
252.185
243.711
221.685
184.031
133.679
73.3747
12.8675
-41.5444
-81.9495
-117.224
-157.668
-219.035
-323.737
-482.525
-736.81
-1102.07
-1566.55
-2057.18
-2537.46
-2957.58
-3214.72
-2979
-2512.07
-2284.59
-1738.21
-937.549
-381.238
11.0708
361.928
439.864
51.5333
-22.7098
125.367
362.969
-195.128
-728.964
-439.583
363.401
1051.98
1322.02
1471.29
1475.57
1491.42
1488.86
1501.96
1530.65
1560.92
1615.61
1635.56
1705.35
1638.68
1524.85
45.5911
46.4284
101.124
119.524
151.096
170.415
191.971
206.997
217.24
217.299
211.939
196.801
192.902
190.535
192.724
205.544
219.905
237.723
246.458
263.113
271.378
265.382
263.438
260.966
257.327
257.849
260.032