/*--------------------------------*- C++ -*----------------------------------*\
| =========                 |                                                 |
| \\      /  F ield         | OpenFOAM: The Open Source CFD Toolbox           |
|  \\    /   O peration     | Version:  4.1                                   |
|   \\  /    A nd           | Web:      www.OpenFOAM.org                      |
|    \\/     M anipulation  |                                                 |
\*---------------------------------------------------------------------------*/
FoamFile
{
    version     2.0;
    format      ascii;
    class       surfaceScalarField;
    location    "29";
    object      phi;
}
// * * * * * * * * * * * * * * * * * * * * * * * * * * * * * * * * * * * * * //

dimensions      [0 3 -1 0 0 0 0];

internalField   nonuniform List<scalar> 
13220
(
-913.627
2213.52
-1420.63
1807.2
-1896.12
1775.38
-2261.01
1664.79
-2542.89
1582.07
-2745.31
1502.32
-2870.78
1425.37
-2920.39
1349.8
-2894.02
1273.52
-2790.01
1195.89
-2612.81
1122.99
-2361.18
1048.27
-1978.31
917.017
-1291.91
613.796
7.98987
-2.07949
2215.58
-38.395
1843.5
-168.977
1905.94
-273.297
1769.09
-381.599
1690.36
-475.387
1596.09
-554.311
1504.28
-615.459
1410.94
-660.183
1318.23
-693.513
1229.21
-715.883
1145.35
-700.991
1033.37
-556.816
772.826
-204.416
261.347
-196.429
-122.762
2338.33
-321.82
2042.54
-508.45
2092.56
-619.232
1879.85
-721.889
1793
-788.713
1662.9
-831.459
1547.01
-850.557
1430.02
-846.855
1314.52
-821.637
1203.97
-770.327
1094.02
-665.056
928.053
-458.565
566.24
-190.825
-6.54128
-387.256
53.4083
2284.91
-12.3548
2108.28
-32.7307
2112.92
-17.4732
1864.57
-1.74383
1777.24
32.9725
1628.15
81.5184
1498.44
144.924
1366.58
222.3
1237.11
313.852
1112.39
414.175
993.683
490.716
851.493
457.648
599.278
190.702
260.355
-196.555
129.031
2155.86
140.73
2096.57
193.124
2060.5
253.552
1804.12
311.592
1719.18
371.515
1568.21
430.874
1439.06
486.938
1310.51
535.487
1188.55
573.471
1074.39
602.007
965.141
601.228
852.229
506.01
694.447
282.515
483.746
85.9608
82.8779
2072.96
123.324
2056.1
166.305
2017.5
216.63
1753.78
255.83
1679.97
305.652
1518.37
351.091
1393.61
394.848
1266.73
431.555
1151.83
459.235
1046.71
472.872
951.499
457.807
867.335
378.713
773.585
218.647
643.886
304.607
14.1921
2058.76
51.4262
2018.85
77.9466
1990.97
100.598
1731.11
120.314
1660.24
151.581
1487.09
186.704
1358.48
256.37
1197.06
363.207
1044.99
477.203
932.706
546.87
881.836
544.641
869.507
449.923
868.251
272.674
821.066
577.281
-36.4784
2095.23
-68.3905
2050.76
-80.9684
2003.55
-120.056
1770.2
-150.752
1690.95
-178.809
1515.15
-187.692
1367.37
-129.236
1138.61
7.64439
908.124
177.737
762.637
318.716
740.863
387.637
800.674
346.766
909.186
200.039
967.862
777.319
-24.5747
2119.81
-177.276
2203.46
-264.365
2090.64
-372.656
1878.49
-478.91
1797.2
-588.478
1624.72
-690.966
1469.85
-760.191
1207.84
-776.856
924.785
-725.534
711.298
-586.363
601.695
-371.42
585.642
-149.658
687.343
-22.2173
840.324
755.104
71.6268
2048.2
-114.365
2389.47
-245.787
2222.07
-370.279
2002.99
-489.863
1916.79
-615.442
1750.3
-750.639
1605.06
-925.339
1382.54
-1115.94
1115.4
-1266.23
861.604
-1312.07
647.541
-1191.64
465.309
-863.712
359.509
-373.418
350.171
381.686
165.773
1882.45
77.8995
2477.36
-5.74525
2305.74
-68.5548
2065.83
-124.063
1972.32
-185.509
1811.77
-252.672
1672.24
-378.509
1508.4
-568.203
1305.12
-777.355
1070.78
-955.72
825.942
-1047.82
557.379
-929.017
240.693
-500.823
-78.0363
-119.135
161.569
1720.9
117.214
2521.74
21.3338
2401.65
-47.2703
2134.46
-78.233
2003.32
-101.697
1835.26
-113.137
1683.71
-143.621
1538.9
-226.537
1388.07
-360.501
1204.78
-518.363
983.82
-649.043
688.174
-639.502
231.306
-316.644
-400.724
-435.778
265.117
1455.81
371.862
2415.01
405.649
2367.88
387.974
2152.15
348.106
2043.2
275.09
1908.29
189.694
1769.11
106.368
1622.24
39.4468
1455
-25.2676
1269.51
-127.561
1086.13
-302.641
863.263
-364.833
293.52
12.652
-778.179
-423.126
-799.401
2255.22
-1259.71
2875.33
-1453.73
2561.9
-1548.32
2246.75
-1468.2
1963.08
-1260.59
1700.68
-1015.66
1524.2
-828.952
1435.54
-754.133
1380.19
-725.372
1240.75
-697.699
1058.46
-731.747
897.322
-663.86
225.647
-231.623
-1210.39
-654.75
-1884.62
-2245.99
-2276.39
-2149.3
-1859.44
-1501.39
-1044.1
-593.438
-234.607
182.534
463.868
677.102
349.4
-349.714
-0.000209161
1519.14
-1519.14
1519.14
1519.14
1519.14
3173.85
-1654.7
3173.84
3173.84
3173.84
4776.32
-1602.47
4776.32
4776.32
6295.35
-1519.03
6295.35
6295.35
6295.35
7718.88
-1423.53
7718.88
7718.88
9057.44
-1338.56
9057.44
9057.44
9057.43
10303.9
-1246.45
10303.9
10303.9
10303.9
11464.6
-1160.69
11464.6
11464.6
12561.4
-1096.79
12561.4
12561.4
12561.4
13578.4
-1017.06
13578.4
13578.4
14544.9
-966.504
14544.9
14544.9
14544.9
15431.5
-886.529
15431.5
15431.5
15431.5
16239.1
-807.658
16239.1
16239.1
16983.4
-744.319
16983.4
16983.4
16983.4
17625.4
-641.941
17625.4
17625.4
17625.4
18182.1
-556.729
18182.1
18182.1
18678.7
-496.564
18678.7
18678.7
18678.7
19080.3
-401.624
19080.3
19080.3
19422.4
-342.06
19422.4
19422.4
19422.3
19661.7
-239.372
19661.7
19661.7
19661.7
19807.7
-145.945
19807.7
19807.7
19873.3
-65.6359
19873.3
19873.3
19361
18938.9
18894.3
18751.2
111.314
18699
18667.4
18607.7
18496.4
18361.9
18230.4
18196.9
18305.2
17909.3
481.71
18036.1
18182.7
18261
18408.8
18582.2
18722.7
18833.6
18913.5
18838.4
178.267
19037.4
19241.6
19345.7
19449
19580.7
19727.8
19878.6
20037.4
20189.5
19817.7
533.456
20018.3
20233
20415
20593.3
20777.5
20945.6
21107.5
21269.3
20604.3
843.535
20814.9
21041.1
21236.3
21424.5
21620.6
21823.5
22033.3
22273.1
21430.8
1078.29
21676.8
21951.1
22203.9
22490.5
22803.7
23113.6
23427.2
23749.1
22922.6
1162.23
23310.2
23728.6
24115.5
24505.7
24911.9
25380.7
25856.8
26336.5
26830.7
26053.1
1265.31
26603.4
27224.2
27806.8
28400.1
29026
29689.8
30422
31183.8
30029.1
1859.27
30824.2
31728.9
31728.9
29787.5
1941.46
27607.6
2179.83
27607.6
25891.6
1716.05
25891.6
24506.8
1384.84
22949.3
1557.46
22949.3
21835.2
1114.07
20569.2
1266.04
20569.2
19604.4
964.8
19604.4
18861.1
743.294
18067.9
793.209
18067.9
17557.1
510.746
17557.1
17258.7
298.406
17016.6
242.099
17016.6
17052.7
-36.0765
17185.6
-132.939
17185.6
17578.6
-392.936
17578.6
18142.8
-564.241
18826.7
-683.851
18826.7
19688.7
-862.04
19688.7
20640.5
-951.819
21660.7
-1020.19
21660.7
22748.5
-1087.76
23846
-1097.5
23846
25013.3
-1167.28
25013.3
26182.4
-1169.13
27337.8
-1155.41
27337.8
28558.6
-1220.83
28558.6
29780.7
-1222.11
30972.4
-1191.63
30972.4
32221.9
-1249.52
33403.5
-1181.62
33403.5
34668.9
-1265.41
34668.9
35940.8
-1271.89
37133
-1192.17
37133
38420.8
-1287.86
38420.8
39720.8
-1299.91
40916.9
-1196.16
40916.9
42228.8
-1311.88
43397
-1168.23
43397
44696.6
-1299.54
44696.6
46032.1
-1335.55
47235.8
-1203.69
47235.8
48609.3
-1373.5
48609.3
50043.2
-1433.95
51353.7
-1310.44
51353.7
52883.8
-1530.16
54276.1
-1392.27
54276.1
55913.2
-1637.12
55913.2
-1825.59
-3080.23
18877.4
-3050.61
19089.1
-2994.58
19249.8
-2915.99
19481.8
-2811.04
19787.4
-2682.8
20138.9
-2536.61
20524.7
-2382.96
20897.7
-2230.03
21158.9
-2074.8
21023.6
-1893.74
19847.7
-1642.65
16596.4
-1297.02
10631.2
-962.726
4397.8
-749.561
4150.93
-605.947
8233.83
-437.568
12828
-225.357
14777.5
-6.97808
13196.7
201.272
13677.1
389.753
9644.52
564.289
4350.25
763.441
199.234
1018.87
742.835
1252.22
3746.7
1424.47
5235.09
1560.12
5008.14
1672.76
3818.6
1757.14
2258.19
1811.17
556.743
1861.82
-971.259
1933.76
-2274.27
2030.84
-3319.75
2145.34
-4080.58
2266.87
-4545.1
2387.57
-4734.4
2503.34
-4681.47
2612.39
-4417.79
2713.8
-3967.73
2805.7
-3342.54
2884.13
-2530.52
2934.47
-1507.48
2969.21
-178.943
2989.85
1480.51
3041.04
3119.7
3307.24
5047.11
3692.34
9408.27
3900.59
12119.1
4000.87
10248.1
4632.01
3417.5
5427.78
-6858.47
5868.48
-10711.6
5981.82
-9956.92
5879.9
-8124.57
5657.56
-6304.82
5325.37
-4820.97
4881.75
-2485
4725.82
8282.51
4945.22
17783.6
5389.36
17938.2
6036.58
12133.3
6097.96
2030.89
5064.98
632.256
4377.11
29713.5
4204.27
52626.5
3994.44
52604.5
3856.54
43940.2
3806.07
34041.9
3795.66
24523.4
3794.46
15435.1
3793.64
6669.97
3776.9
-1993.1
3682.38
-11011.1
3465.15
-19874.1
3099.97
-28015.7
2628.9
-34196.2
2264.42
-41073.8
2094.37
-53481.3
-64138.5
-3079.25
18870.6
-3047.5
19057.4
-2989.36
19191.6
-2908.93
19401.3
-2802.5
19680.9
-2673.73
20010.1
-2528.26
20379.2
-2376.77
20746.2
-2226.94
21009
-2074.19
20870.9
-1890.31
19663.8
-1621.73
16327.8
-1244.02
10253.5
-912.988
4066.77
-728.912
3966.86
-601.115
8106.03
-438.219
12665.1
-225.015
14564.3
-8.76885
12980.5
198.271
13470.1
383.723
9459.06
549.517
4184.45
712.953
35.7986
971.862
483.926
1236.9
3481.66
1423.17
5048.82
1560.37
4870.94
1671.67
3707.29
1756.54
2173.33
1819.24
494.041
1889.38
-1041.4
1984.27
-2369.16
2102.85
-3438.33
2235.14
-4212.86
2370.77
-4680.73
2502.78
-4866.41
2628.32
-4807.01
2746.95
-4536.42
2858.76
-4079.55
2962.17
-3445.95
3053.2
-2621.55
3120.24
-1574.53
3155.72
-214.414
3149.62
1486.6
3116.08
3153.24
3259.3
4903.88
3649.77
9017.8
3847.97
11920.9
3924.06
10172
4828.15
2513.41
5708.64
-7738.97
6080.76
-11083.7
6090.05
-9966.21
5857.94
-7892.46
5505.12
-5952
5105.99
-4421.84
4747.56
-2126.57
4684.86
8345.21
4910.51
17557.9
5349.69
17499
5706.48
11776.5
5498.54
2238.83
4749.19
1381.61
4360.5
30102.1
4238.8
52748.2
4017.48
52825.9
3861.16
44096.5
3801.28
34101.8
3786.93
24537.8
3782.94
15439.1
3776.1
6676.82
3742.33
-1959.33
3627.71
-10896.5
3401.02
-19647.4
3036.11
-27650.8
2578.08
-33738.2
2231.28
-40727
1942.02
-53192.1
-63833.6
-3079.16
18862
-3044.76
19023
-2984.1
19131
-2901.27
19318.5
-2792.98
19572.6
-2663.33
19880.4
-2518.54
20234.4
-2369.37
20597
-2222.75
20862.4
-2071.73
20719.8
-1882.46
19474.5
-1594.68
16040.1
-1193.16
9852
-864.625
3738.23
-707.475
3809.71
-596.463
7995.02
-438.395
12507
-226.202
14352.1
-12.1549
12766.4
192.843
13265.1
374.524
9277.38
527.737
4031.24
676.503
-112.967
938.661
221.767
1220.7
3199.63
1419.74
4849.78
1560.75
4729.94
1673.48
3594.56
1761.4
2085.41
1833.83
421.607
1917.77
-1125.35
2027.02
-2478.41
2156.86
-3568.17
2296.92
-4352.93
2438.26
-4822.07
2575.08
-5003.23
2705.29
-4937.22
2829.03
-4660.17
2946.9
-4197.41
3057.59
-3556.63
3157.1
-2721.06
3235.35
-1652.77
3292.86
-271.922
3318.74
1460.71
3268.19
3203.8
3303.37
4868.69
3578.49
8742.69
3734.91
11764.4
3942.89
9964.08
5012.58
1443.72
5858.89
-8585.27
6153.58
-11378.4
6084.6
-9897.23
5783.87
-7591.73
5394.23
-5562.36
4991.4
-4019.01
4681.84
-1817
4639.58
8387.47
4854.76
17342.7
5272.72
17081
5533.04
11516.2
5190.45
2581.43
4546.83
2025.23
4326.54
30322.4
4255.67
52819.1
4037.61
53043.9
3865.03
44269.1
3794.67
34172.2
3775.92
24556.5
3769.42
15445.6
3757.51
6688.73
3714.03
-1915.86
3593.37
-10775.8
3364.94
-19419
3001.89
-27287.8
2553.56
-33289.8
2214.86
-40388.3
1938.52
-52915.7
-63287.3
-3080.04
18851.3
-3042.77
18985.7
-2979.45
19067.6
-2894.06
19233.1
-2783.74
19462.3
-2653.11
19749.8
-2508.89
20090.2
-2361.85
20450
-2217.95
20718.5
-2067.59
20569.5
-1872.08
19279
-1567.91
15735.9
-1150.87
9434.96
-825.851
3413.21
-689.57
3673.43
-591.752
7897.2
-438.276
12353.5
-228.004
14141.8
-16.6634
12555.1
185.359
13063.1
362.339
9100.4
505.688
3887.89
649.338
-256.617
914.664
-43.5588
1206.16
2908.14
1414.23
4641.7
1559.49
4584.68
1676.28
3477.77
1770.7
1990.98
1854.83
337.48
1953.23
-1223.75
2075.65
-2600.84
2215.83
-3708.34
2364.12
-4501.21
2512.41
-4970.36
2655.49
-5146.31
2791.87
-5073.6
2922.36
-4790.66
3048.01
-4323.06
3167.79
-3676.42
3277.81
-2831.08
3370.08
-1745.04
3441.09
-342.93
3488.13
1413.68
3459.15
3232.77
3415.63
4912.21
3529.84
8628.47
3658.1
11636.2
4057.04
9565.13
5244.17
256.587
6014.64
-9355.74
6220.64
-11584.4
6066.35
-9742.93
5703.55
-7228.93
5276.26
-5135.08
4872.84
-3615.59
4611.6
-1555.77
4586.08
8412.99
4778
17150.8
5194.37
16664.7
5435.41
11275.1
5008.04
3008.8
4375.71
2657.55
4282.56
30415.6
4261.01
52840.6
4050.91
53254
3867.23
44452.8
3787.31
34252.1
3763.99
24579.8
3754.64
15454.9
3736.93
6706.43
3684.14
-1863.06
3556.48
-10648.2
3324.17
-19186.7
2961.5
-26925.1
2522.93
-32851.3
2194.33
-40059.7
1913.15
-52634.6
-62904.3
-3081.88
18838.4
-3041.63
18945.5
-2975.54
19001.5
-2887.5
19145.1
-2775.07
19349.9
-2643.44
19618.2
-2499.81
19946.6
-2354.84
20305
-2213.36
20577
-2063.09
20419.2
-1861.11
19077.1
-1542.33
15417.1
-1112.46
9005.09
-792.774
3093.53
-673.946
3554.6
-587.158
7810.41
-438.478
12204.9
-230.406
13933.8
-22.4523
12347.1
176.173
12864.5
348.701
8927.87
486.784
3749.81
625.943
-395.776
892.572
-310.188
1193.51
2607.2
1408.99
4426.22
1558.11
4435.57
1680.04
3355.84
1783.5
1887.53
1879.89
241.09
1990.85
-1334.72
2124.11
-2734.09
2273.28
-3857.52
2428.85
-4656.78
2583.14
-5124.65
2731.84
-5295.01
2874.27
-5216.02
3011.74
-4928.14
3145.66
-4456.97
3275.19
-3805.95
3396.74
-2952.63
3503.69
-1851.99
3592.43
-431.674
3659.32
1346.79
3659.11
3232.99
3568.15
5003.18
3549.25
8647.36
3678.45
11507
4254.71
8988.88
5479.9
-968.608
6141.75
-10017.6
6252.01
-11694.7
6017.76
-9508.69
5611.27
-6822.43
5156.57
-4680.38
4751.38
-3210.4
4535.51
-1339.89
4521.38
8427.12
4695.63
16976.6
5153.72
16206.6
5404.76
11024.1
4882.11
3531.45
4221.59
3318.07
4227.62
30409.5
4260.35
52807.9
4059.59
53454.8
3867.37
44645
3778.44
34341
3750.25
24608
3737.62
15467.5
3714.49
6729.57
3653.53
-1802.1
3520.4
-10515.1
3284.6
-18950.9
2922.65
-26563.2
2494.74
-32423.3
2175.53
-39740.5
1863.95
-52323
-62350.8
-3084.74
18823.4
-3041.44
18902.2
-2972.48
18932.6
-2881.73
19054.3
-2767.14
19235.3
-2634.51
19485.5
-2491.47
19803.5
-2348.54
20162.1
-2209.24
20437.8
-2058.55
20268.5
-1849.79
18868.3
-1517.27
15084.6
-1076.33
8564.14
-763.885
2781.08
-660.43
3451.14
-583.175
7733.16
-439.216
12060.9
-233.51
13728.1
-29.3245
12143
165.965
12669.2
335.082
8758.76
470.91
3613.98
606.57
-531.436
871.05
-574.667
1181.8
2296.45
1404.29
4203.73
1556.71
4283.14
1683.42
3229.13
1796.59
1774.37
1904.75
132.924
2027.3
-1457.27
2170.57
-2877.36
2327.81
-4014.76
2489.55
-4818.51
2649.11
-5284.21
2803.37
-5449.27
2952.32
-5364.97
3097.55
-5073.37
3240.62
-4600.05
3380.93
-3946.26
3515.34
-3087.04
3638.33
-1974.98
3747.69
-541.039
3833.85
1260.63
3858.54
3208.3
3749.85
5111.87
3660.8
8736.41
3819.99
11347.8
4522.64
8286.24
5706.15
-2152.12
6244.99
-10556.4
6256.52
-11706.2
5953.27
-9205.43
5525.45
-6394.62
5059.37
-4214.29
4646.63
-2797.67
4458.09
-1151.34
4456.14
8429.07
4646.87
16785.8
5180.06
15673.4
5424.57
10779.6
4781.35
4174.67
4080.48
4018.94
4165.32
30324.7
4253.71
52719.5
4064.33
53644.2
3865.34
44844
3767.92
34438.4
3734.81
24641.1
3718.85
15483.5
3690.69
6757.72
3622.92
-1734.33
3485.12
-10377.3
3245.32
-18711.1
2883.84
-26201.7
2466.66
-32006.2
2157.35
-39431.2
1886.86
-52052.5
-61897.9
-3088.64
18806
-3042.23
18855.7
-2970.31
18860.7
-2876.78
18960.8
-2759.98
19118.5
-2626.35
19351.9
-2483.91
19661.1
-2342.92
20021.1
-2205.51
20300.3
-2053.86
20116.9
-1837.99
18652.4
-1492.64
14739.3
-1042.77
8114.27
-738.794
2477.11
-648.941
3361.29
-579.923
7664.14
-440.429
11921.4
-237.262
13524.9
-37.029
11942.7
155.036
12477.1
321.596
8592.2
457.149
3478.43
591.08
-665.367
849.88
-833.467
1170.52
1975.81
1399.67
3974.58
1554.79
4128.03
1685.11
3098.8
1808.08
1651.4
1927.92
13.0846
2061.37
-1590.72
2213.3
-3029.29
2377
-4178.46
2543.63
-4985.14
2707.91
-5448.49
2867.8
-5609.16
3023.64
-5520.81
3177.12
-5226.85
3329.96
-4752.88
3481.82
-4098.12
3630.15
-3235.37
3770.54
-2115.37
3902.39
-672.883
4010.02
1153
4056.9
3161.41
3957.15
5211.62
3859.57
8833.99
4061.02
11146.3
4830.35
7516.91
5913.88
-3235.65
6325.79
-10968.4
6238.35
-11618.8
5880.14
-8847.23
5451.14
-5965.62
4992.4
-3755.56
4570.2
-2375.47
4377.5
-958.642
4393.52
8413.05
4658.15
16521.2
5271
15060.5
5461.85
10588.7
4698.61
4937.91
3956.58
4760.98
4101.62
30179.7
4242.01
52579.1
4065.33
53820.8
3861.21
45048.1
3756
34543.7
3718.08
24679.1
3698.81
15502.8
3665.97
6790.55
3592.31
-1660.66
3450.29
-10235.2
3206.07
-18466.8
2845.34
-25841
2439.67
-31600.5
2137.48
-39129
1787.15
-51702.2
-61484.3
-3093.58
18786.2
-3043.97
18806.1
-2969.02
18785.7
-2872.63
18864.4
-2753.58
18999.5
-2618.95
19217.3
-2477.11
19519.2
-2337.97
19882
-2202.14
20164.5
-2049.04
19963.8
-1825.83
18429.2
-1468.5
14381.9
-1011.21
7656.98
-716.772
2182.67
-639.136
3283.65
-577.33
7602.33
-442.084
11786.2
-241.573
13324.4
-45.4376
11746.6
143.483
12288.2
308.16
8427.52
445.081
3341.51
579.51
-799.796
828.701
-1082.66
1159.42
1645.09
1395.1
3738.9
1552.49
3970.63
1684.79
2966.5
1816.86
1519.33
1947.85
-117.905
2090.89
-1733.76
2249.93
-3188.33
2418.69
-4347.22
2589.39
-5155.84
2758.18
-5617.28
2923.78
-5774.77
3086.71
-5683.73
3248.72
-5388.87
3411.72
-4915.88
3575.69
-4262.08
3738.76
-3398.45
3897.69
-2274.3
4052.85
-828.042
4184.9
1020.95
4254.77
3091.54
4183.28
5283.11
4116.18
8901.09
4361.55
10901
5152.68
6725.77
6102.61
-4185.57
6388.76
-11254.5
6206.78
-11436.8
5813.27
-8453.71
5390.04
-5542.4
4951.34
-3316.85
4523.18
-1947.32
4276.68
-712.142
4317.57
8372.15
4727.68
16111.1
5398.53
14389.7
5490.76
10496.5
4629.87
5798.8
3855.06
5535.79
4041.18
29993.5
4227.2
52393.1
4063.12
53984.9
3855.05
45256.2
3742.75
34656
3700.21
24721.6
3677.71
15525.3
3640.55
6827.72
3561.92
-1582.04
3415.98
-10089.3
3166.8
-18217.7
2807.21
-25481.4
2414.26
-31207.5
2120.26
-38835
1802.17
-51384.1
-60885.8
-3099.56
18764
-3046.67
18753.3
-2968.59
18707.6
-2869.26
18765.1
-2747.93
18878.1
-2612.32
19081.7
-2471.1
19378
-2333.73
19744.6
-2199.17
20030
-2044.15
19808.8
-1813.43
18198.5
-1444.65
14013.1
-980.845
7193.17
-697.126
1898.95
-630.777
3217.3
-575.4
7546.96
-444.196
11655
-246.39
13126.6
-54.4581
11554.7
131.466
12102.3
294.968
8264.02
434.417
3202.06
571.399
-936.778
809.619
-1320.88
1148.27
1306.44
1390.61
3496.56
1550.27
3810.97
1682.61
2834.17
1821.55
1380.38
1962.35
-258.708
2113.83
-1885.24
2278.82
-3353.32
2451.64
-4520.04
2625.97
-5330.17
2799.26
-5790.56
2970.65
-5946.16
3140.71
-5853.8
3311.36
-5559.52
3484.71
-5089.23
3661.16
-4438.53
3839.57
-3576.86
4017.83
-2452.56
4196.52
-1006.72
4355.19
862.282
4450.96
2995.77
4419.91
5314.16
4400.28
8920.72
4684.56
10616.7
5469.21
5941.11
6274.82
-4991.18
6440.32
-11420
6174.36
-11170.8
5752.68
-8032.03
5306.51
-5096.22
4881.05
-2891.4
4476.39
-1542.65
4154.1
-389.858
4234.09
8292.17
4845.26
15499.9
5524.54
13710.4
5492.3
10528.7
4581.88
6709.22
3786.7
6330.97
3988.42
29791.8
4210.79
52170.7
4058.18
54137.5
3846.9
45467.5
3728.19
34774.7
3681.3
24768.5
3655.77
15550.8
3614.67
6868.82
3531.85
-1499.22
3381.96
-9939.4
3127.28
-17963
2769.47
-25123.6
2389.4
-30827.5
2104.6
-38550.2
1817.63
-51097.1
-60403.7
-3106.6
18739
-3050.34
18697
-2969.02
18626.3
-2866.68
18662.7
-2743.03
18754.5
-2606.47
18945.1
-2465.89
19237.4
-2330.18
19608.9
-2196.61
19896.4
-2039.25
19651.4
-1800.78
17960
-1420.85
13633.2
-951.209
6723.53
-679.42
1627.16
-623.723
3161.61
-574.161
7497.39
-446.768
11527.6
-251.668
12931.5
-63.9865
11367
119.153
11919.1
282.184
8100.99
425.534
3058.71
564.991
-1076.24
792.908
-1548.8
1136.82
962.522
1386.1
3247.29
1548.46
3648.62
1678.96
2703.67
1820.93
1238.42
1969.65
-407.427
2129.03
-2044.63
2299.21
-3523.49
2475.42
-4696.26
2653.39
-5508.14
2831.43
-5968.61
3008.76
-6123.49
3186
-6031.03
3365.28
-5738.79
3549.05
-5273.01
3738.21
-4627.69
3932.44
-3771.09
4130.61
-2650.73
4332.59
-1208.7
4518.97
675.896
4643.6
2871.15
4660.54
5297.22
4693.78
8887.48
5008.84
10301.6
5770.77
5179.18
6436.46
-5656.87
6489.24
-11472.8
6150.85
-10832.5
5675.47
-7556.65
5153.98
-4574.73
4723.41
-2460.83
4370.82
-1190.06
4027.77
-46.812
4199.68
8120.26
5011.02
14688.6
5623.54
13097.9
5461.02
10691.3
4559.18
7611.06
3759.23
7130.92
3947.59
29603.4
4193.71
51924.6
4050.73
54280.5
3836.77
45681.4
3712.37
34899.1
3661.5
24819.4
3633.17
15579.1
3588.51
6913.49
3502.17
-1412.88
3348.06
-9785.29
3087.36
-17702.3
2732.19
-24768.4
2365.67
-30461
2087.82
-38272.3
1737.37
-50746.7
-59965.9
-3114.7
18711.3
-3054.97
18637.3
-2970.31
18541.7
-2864.88
18557.3
-2738.89
18628.5
-2601.41
18807.6
-2461.49
19097.5
-2327.34
19474.7
-2194.46
19763.5
-2034.31
19491.2
-1787.82
17713.5
-1396.9
13242.3
-922.042
6248.67
-663.363
1368.48
-617.841
3116.09
-573.598
7453.15
-449.779
11403.8
-257.357
12739.1
-73.9264
11183.5
106.656
11738.5
269.839
7937.8
418.505
2910.04
559.801
-1217.53
777.135
-1766.13
1124.83
614.825
1381.37
2990.75
1547.28
3482.71
1674.77
2576.17
1814.92
1098.27
1969.54
-562.05
2136.52
-2211.61
2311.15
-3698.13
2490.58
-4875.68
2672.81
-5690.38
2856.25
-6152.05
3039.75
-6306.99
3224.07
-6215.35
3411.78
-5926.5
3605.87
-5467.09
3807.85
-4829.67
4018.29
-3981.53
4236.82
-2869.26
4461.91
-1433.8
4676.59
461.222
4831.66
2716.08
4900.73
5228.14
4988.56
8799.65
5329.76
9960.43
6060.73
4448.21
6595.76
-6191.9
6545.78
-11422.8
6140.28
-10427
5575.92
-6992.3
4970.87
-3969.68
4550.79
-2040.75
4248.31
-887.574
3948.76
252.733
4280.25
7788.78
5228.64
13740.2
5691.65
12634.9
5402.08
10980.8
4559.68
8453.45
3774.03
7916.58
3922.05
29455.4
4176.5
51670.2
4040.77
54416.2
3824.62
45897.6
3695.32
35028.4
3640.9
24873.8
3610.08
15609.9
3562.23
6961.34
3472.86
-1323.52
3313.99
-9626.42
3046.88
-17435.2
2695.48
-24417
2343.46
-30108.9
2073.13
-38002
1748.9
-50422.4
-59385.2
-3123.86
18680.7
-3060.56
18574
-2972.45
18453.5
-2863.84
18448.7
-2735.5
18500.1
-2597.15
18669.3
-2457.9
18958.3
-2325.21
19342.1
-2192.7
19631
-2029.32
19327.9
-1774.51
17458.7
-1372.64
12840.4
-893.111
5769.15
-648.744
1124.11
-613.016
3080.36
-573.675
7413.81
-453.202
11283.3
-263.411
12549.3
-84.2035
11004.3
94.0533
11560.3
257.915
7773.94
413.077
2754.88
556.571
-1361.03
763.404
-1972.96
1112.22
266.015
1376.28
2726.68
1546.93
3312.05
1671.79
2451.32
1805.4
964.656
1963
-719.651
2136.76
-2385.36
2315.47
-3876.84
2499.1
-5059.31
2687
-5878.28
2876.5
-6341.55
3066.01
-6496.5
3256.85
-6406.19
3452.42
-6122.07
3656.47
-5671.14
3871.26
-5044.46
4098.15
-4208.43
4337.34
-3108.45
4585.74
-1682.19
4828.87
218.094
5015.04
2529.9
5137.62
5105.57
5280.58
8656.69
5647.6
9593.41
6343.82
3751.99
6760.45
-6608.54
6619.36
-11281.7
6148.2
-9955.8
5492.48
-6336.58
4849.46
-3326.66
4470.94
-1662.24
4221.01
-637.642
3996.94
476.804
4506.38
7279.34
5494.79
12751.8
5740.89
12388.8
5326.13
11395.6
4575.1
9204.48
3825.78
8665.9
3913.84
29367.4
4159.36
51424.6
4028.11
54547.5
3810.33
46115.3
3677.03
35161.7
3619.59
24931.2
3586.58
15642.9
3535.92
7012
3443.85
-1231.45
3279.41
-9461.98
3005.72
-17161.5
2659.42
-24070.7
2322.09
-29771.6
2059.5
-37739.4
1747.93
-50110.8
-58949.1
-3134.1
18647.1
-3067.11
18507
-2975.42
18361.9
-2863.56
18336.8
-2732.87
18369.5
-2593.7
18530.1
-2455.13
18819.7
-2323.79
19210.7
-2191.32
19498.5
-2024.27
19160.8
-1760.76
17195.2
-1347.86
12427.5
-864.245
5285.53
-635.392
895.26
-609.148
3054.11
-574.356
7379.02
-457.014
11165.9
-269.79
12362
-94.7627
10829.3
81.3958
11384.1
246.362
7608.98
408.629
2592.61
554.268
-1506.66
751.806
-2170.5
1098.63
-80.8118
1370.71
2454.61
1547.47
3135.29
1672.27
2326.52
1796.91
840.014
1951.71
-874.453
2130.21
-2563.86
2314.56
-4061.19
2504.97
-5249.73
2699.87
-6073.18
2895.08
-6536.76
3089.37
-6690.79
3285.46
-6602.28
3487.97
-6324.59
3701.47
-5884.64
3928.85
-5271.84
4172.21
-4451.79
4432.11
-3368.35
4704.28
-1954.36
4975.19
-52.819
5193.42
2311.67
5369.52
4929.48
5567.16
8459.05
5961.78
9198.79
6623.78
3089.99
6937.71
-6922.47
6717.26
-11061.2
6183.74
-9422.28
5473.53
-5626.37
4850.76
-2703.88
4531.17
-1342.65
4365.74
-472.212
4248.51
594.031
4886.92
6640.93
5804.83
11833.9
5788.71
12404.9
5245.13
11939.2
4595.23
9854.39
3904.44
9356.68
3923.35
29348.5
4142.22
51205.8
4012.33
54677.4
3793.67
46334
3657.47
35297.9
3597.59
24991.1
3562.74
15677.8
3509.62
7065.12
3414.94
-1136.77
3243.94
-9290.98
2963.81
-16881.4
2624.11
-23731
2301.67
-29449.2
2046.6
-37484.3
1722.06
-49786.3
-58423.2
-3145.42
18610.2
-3074.61
18436.2
-2979.23
18266.5
-2864.05
18221.7
-2731.01
18236.4
-2591.07
18390.2
-2453.21
18681.8
-2323.07
19080.6
-2190.31
19365.8
-2019.1
18989.6
-1746.48
16922.6
-1322.4
12003.4
-835.348
4798.48
-623.15
683.062
-606.133
3037.1
-575.604
7348.49
-461.195
11051.5
-276.463
12177.3
-105.567
10658.4
68.7053
11209.8
235.101
7442.58
405.164
2422.55
552.164
-1653.67
741.339
-2359.67
1083.19
-422.666
1364.39
2173.41
1548.68
2951
1677.73
2197.47
1795.54
722.199
1940.7
-1019.61
2120.28
-2743.44
2313.51
-4254.41
2513.14
-5449.36
2714.48
-6274.52
2913.08
-6735.36
3109.78
-6887.49
3309.51
-6802.01
3518.09
-6533.17
3740.59
-6107.14
3980.32
-5511.56
4239.99
-4711.46
4520.52
-3648.88
4816.61
-2250.45
5114.04
-350.244
5365.77
2059.94
5595.37
4699.87
5847.17
8207.26
6273
8772.96
6906.84
2456.15
7134.74
-7150.37
6845.25
-10771.8
6259.1
-8836.12
5534.7
-4901.97
4950.73
-2119.91
4677.36
-1069.28
4635.31
-430.167
4692.38
536.969
5407.97
5925.34
6154.83
11087
5849.56
12710.2
5169.24
12619.5
4610.92
10412.7
3997.77
9969.83
3948.98
29397.3
4124.73
51030
3992.87
54809.3
3774.33
46552.5
3636.52
35435.7
3574.91
25052.7
3538.55
15714.2
3483.3
7120.37
3385.86
-1039.32
3207.19
-9112.31
2921.15
-16595.3
2589.64
-23399.5
2281.74
-29141.3
2034.62
-37237.2
1746.89
-49498.6
-57976.2
-3157.82
18570
-3083.06
18361.4
-2983.86
18167.3
-2865.28
18103.1
-2729.92
18101.1
-2589.27
18249.5
-2452.13
18544.7
-2323.05
18951.5
-2189.64
19232.3
-2013.76
18813.7
-1731.54
16640.4
-1296.06
11568
-806.364
4308.78
-611.856
488.555
-603.863
3029.1
-577.379
7322.01
-465.731
10939.9
-283.413
11995
-116.605
10491.6
55.9653
11037.3
223.999
7274.55
402.36
2244.19
550.622
-1801.93
732.562
-2541.61
1065.08
-755.187
1356.9
1881.6
1550.17
2757.72
1687.9
2059.74
1805.85
604.247
1939.67
-1153.43
2116.29
-2920.05
2318.94
-4457.07
2526.86
-5657.27
2730.8
-6478.46
2928.71
-6933.27
3125.31
-7084.08
3327.7
-7004.4
3542.11
-6747.59
3773.55
-6338.58
4025.57
-5763.58
4301.63
-4987.52
4603.01
-3950.26
4923.01
-2570.45
5245.43
-672.666
5531.93
1773.43
5814.52
4417.28
6120.35
7901.42
6584.51
8308.8
7200.83
1839.83
7358.4
-7307.94
7008.42
-10421.8
6378.36
-8206.06
5653.84
-4177.45
5093.17
-1559.24
4852.23
-828.342
4927.92
-505.858
5191.62
273.262
5979.8
5137.16
6520.3
10546.5
5927.27
13303.2
5101.38
13445.4
4611.48
10902.6
4092.1
10489.2
3987.11
29502.2
4106.26
50910.9
3968.99
54946.5
3751.89
46769.6
3613.99
35573.6
3551.47
25115.2
3513.95
15751.7
3456.85
7177.48
3356.2
-938.676
3168.75
-8924.85
2877.82
-16304.4
2556.13
-23077.8
2262.26
-28847.4
2021.01
-36996
1681.07
-49158.6
-57583
-3171.32
18526.3
-3092.46
18282.5
-2989.31
18064.1
-2867.27
17981
-2729.61
17963.4
-2588.32
18108.2
-2451.9
18408.3
-2323.71
18823.3
-2189.27
19097.9
-2008.2
18632.7
-1715.81
16348
-1268.67
11120.8
-777.239
3817.34
-601.315
312.63
-602.228
3030.02
-579.651
7299.43
-470.621
10830.9
-290.643
11815
-127.896
10328.9
43.1202
10866.3
212.853
7104.81
399.361
2057.68
548.111
-1950.68
725.32
-2718.82
1044.12
-1073.99
1347.68
1578.04
1551.39
2554.01
1701.06
1910.08
1828.28
477.028
1958.87
-1284.03
2131.04
-3092.22
2336.43
-4662.46
2545.28
-5866.12
2744.98
-6678.16
2938.3
-7126.6
3133.92
-7279.7
3339.53
-7210.02
3560.5
-6968.55
3801.33
-6579.41
4066.04
-6028.29
4359.18
-5280.66
4682.36
-4273.44
5026.75
-2914.84
5372.85
-1018.76
5694.47
1451.81
6027.34
4084.41
6387.77
7540.99
6900.97
7795.6
7511.75
1229.05
7614.75
-7410.94
7211.67
-10018.7
6540.14
-7534.53
5806.84
-3444.15
5275.78
-1028.18
5101.58
-654.146
5252.39
-656.667
5644.18
-118.522
6476.99
4304.35
6846.96
10176.5
6008.65
14141.5
5032.85
14421.2
4581.8
11353.7
4172.39
10898.6
4032.29
29642.3
4085.9
50857.2
3939.86
55092.6
3725.77
46983.7
3589.59
35709.8
3527.09
25177.7
3488.79
15790
3430.04
7236.23
3325.5
-834.131
3128.3
-8727.66
2834.04
-16010.1
2523.68
-22767.4
2243.52
-28567.3
2008.44
-36760.9
1690.01
-48840.2
-57085.2
-3185.9
18478.9
-3102.8
18199.4
-2995.56
17956.9
-2870.02
17855.5
-2730.09
17823.5
-2588.24
17966.4
-2452.54
18272.6
-2325.06
18695.8
-2189.16
18962
-2002.32
18445.8
-1699.17
16044.8
-1240.02
10661.7
-747.891
3325.21
-591.298
156.038
-601.132
3039.85
-582.409
7280.71
-475.882
10724.3
-298.178
11637.3
-139.492
10170.2
30.077
10696.7
201.448
6933.44
395.774
1863.36
543.069
-2097.97
717.442
-2893.2
1020.56
-1377.1
1335.68
1262.92
1551.49
2338.2
1714.77
1746.79
1859.47
332.334
2000.83
-1425.4
2170
-3261.39
2365.92
-4858.38
2562.83
-6063.03
2751.36
-6866.69
2939.23
-7314.47
3135.89
-7476.36
3346.91
-7421.03
3575.76
-7197.4
3826.75
-6830.4
4104.95
-6306.49
4416.44
-5592.14
4762.96
-4619.96
5132.62
-3284.51
5501.73
-1387.87
5859.58
1093.95
6239.12
3704.88
6654.82
7125.29
7226.99
7223.43
7843.08
612.953
7908.57
-7476.42
7459.93
-9570.06
6741.18
-6815.79
5984.56
-2687.53
5483.01
-526.622
5374.44
-545.577
5562.98
-845.211
5994.7
-550.243
6815.3
3483.75
7077.01
9914.83
6068.37
15150.2
4949.48
15540.1
4508.66
11794.5
4224.59
11182.7
4077.88
29789.1
4062.44
50872.7
3904.59
55250.4
3695.27
47193.1
3562.88
35842.1
3501.49
25239.1
3462.82
15828.6
3402.54
7296.51
3293.19
-724.787
3085.66
-8520.12
2790.13
-15714.6
2492.37
-22469.6
2224.52
-28299.4
1995.95
-36532.3
1697.33
-48541.6
-56659.8
-3201.57
18427.5
-3114.06
18111.9
-3002.61
17845.4
-2873.51
17726.4
-2731.38
17681.3
-2589.03
17824
-2454.04
18137.6
-2327.07
18568.9
-2189.28
18824.2
-1996.05
18252.6
-1681.46
15730.3
-1209.88
10190.1
-718.179
2833.51
-581.558
19.4166
-600.509
3058.8
-585.669
7265.86
-481.556
10620.2
-306.071
11461.8
-151.474
10015.6
16.7192
10528.5
189.56
6760.6
390.858
1662.06
534.033
-2241.15
704.074
-3063.24
991.84
-1664.87
1318.92
935.841
1548.9
2108.22
1726.64
1569.05
1892.37
166.61
2052.9
-1585.93
2219.55
-3428.05
2395.76
-5034.58
2570.45
-6237.72
2746.27
-7042.51
2932.82
-7501.02
3134.97
-7678.5
3353.94
-7640
3591.73
-7435.19
3853.42
-7092.1
4145.91
-6598.99
4477.03
-5923.25
4848.2
-4991.14
5243.79
-3680.1
5636.48
-1780.56
6034.63
695.807
6458.54
3280.97
6928.39
6655.44
7565.67
6586.16
8196.86
-18.2393
8242.33
-7521.89
7757.08
-9084.8
6981.72
-6040.43
6185.73
-1891.54
5672.33
-13.2259
5556.96
-430.204
5739.57
-1027.82
6177.96
-988.627
6967.75
2693.96
7181.03
9701.55
6083.89
16247.3
4847.67
16776.3
4395.57
12246.6
4241.42
11336.8
4116.91
29913.6
4034.33
50955.3
3862.2
55422.6
3659.54
47395.7
3533.28
35968.4
3474.26
25298.1
3435.67
15867.2
3373.88
7358.3
3258.74
-609.647
3040.79
-8302.16
2746.52
-15420.3
2462.24
-22185.4
2205.45
-28042.6
1981.26