/*--------------------------------*- C++ -*----------------------------------*\
| =========                 |                                                 |
| \\      /  F ield         | OpenFOAM: The Open Source CFD Toolbox           |
|  \\    /   O peration     | Version:  4.1                                   |
|   \\  /    A nd           | Web:      www.OpenFOAM.org                      |
|    \\/     M anipulation  |                                                 |
\*---------------------------------------------------------------------------*/
FoamFile
{
    version     2.0;
    format      ascii;
    class       volVectorField;
    location    "29";
    object      U;
}
// * * * * * * * * * * * * * * * * * * * * * * * * * * * * * * * * * * * * * //

dimensions      [0 1 -1 0 0 0 0];

internalField   nonuniform List<vector> 
6785
(
(7.75099e-14 -0.598958 16.1062)
(6.41225e-14 -6.47924 12.4845)
(-2.07796e-14 -4.71467 12.8257)
(3.32247e-14 -4.17501 12.6041)
(1.29802e-14 -3.55753 12.445)
(-8.24811e-15 -3.08086 12.2343)
(2.26928e-14 -2.69129 11.9953)
(8.93324e-15 -2.40379 11.7174)
(-6.92772e-15 -2.21253 11.4003)
(2.4583e-14 -2.08856 11.0579)
(6.60188e-15 -2.04056 10.6915)
(-1.50533e-14 -2.23543 10.2057)
(2.93445e-14 -2.55991 9.56553)
(-9.11408e-15 -1.68545 8.98111)
(-3.41231e-14 0.883096 6.73154)
(1.64792e-13 -7.35043 26.1484)
(1.04288e-13 -16.5629 21.8045)
(-1.86656e-14 -11.6763 22.2714)
(1.29525e-13 -11.8713 20.8949)
(8.76112e-15 -10.9466 19.9104)
(2.20794e-14 -10.2294 18.8793)
(9.68804e-14 -9.50946 17.8597)
(7.50975e-15 -8.81789 16.8419)
(4.08647e-14 -8.15668 15.8093)
(1.24914e-13 -7.50593 14.7772)
(9.23586e-15 -6.87125 13.8657)
(6.41803e-14 -6.42065 13.0519)
(1.41202e-13 -5.9458 11.3396)
(-3.4949e-14 -3.33576 6.50765)
(-3.65221e-14 2.57421 -2.03198)
(8.5529e-14 -10.1437 28.1416)
(1.12173e-13 -17.7603 24.3241)
(-2.77719e-14 -11.9625 24.888)
(2.77919e-14 -12.7933 22.7451)
(-2.57169e-15 -11.3168 21.6029)
(-3.78461e-15 -10.517 20.1876)
(-1.77553e-14 -9.62176 18.8402)
(-5.04804e-15 -8.79497 17.4924)
(3.01049e-15 -8.01482 16.1706)
(-3.46039e-14 -7.31069 14.9107)
(2.06985e-14 -6.6203 13.6342)
(-2.09267e-14 -5.49646 11.5562)
(-8.59131e-14 -2.81621 6.77551)
(-4.68372e-14 1.66847 -1.33667)
(-1.90525e-13 1.77395 -4.73694)
(1.28473e-13 -10.9834 26.9715)
(4.88435e-14 -17.6619 24.0094)
(3.73521e-14 -11.7027 24.409)
(1.2505e-14 -13.4396 21.5933)
(-5.03377e-14 -11.4718 20.6031)
(5.31802e-14 -10.9752 18.9016)
(-2.91662e-14 -10.0814 17.4567)
(-1.01997e-13 -9.32587 15.9774)
(7.81738e-14 -8.58857 14.532)
(-3.63693e-14 -7.91104 13.1444)
(-1.15245e-13 -7.28217 11.8048)
(3.33418e-14 -6.39565 10.0266)
(-4.71315e-15 -4.40488 6.5147)
(-3.15926e-13 -1.37191 1.84664)
(-5.02487e-13 0.205265 -3.32334)
(1.06369e-13 -11.0513 25.415)
(-3.12714e-14 -17.3503 24.2215)
(-2.70412e-14 -11.941 23.9447)
(-2.53299e-14 -13.5067 21.0057)
(-1.53384e-13 -11.6163 20.0031)
(-1.68132e-14 -11.1167 18.2804)
(-3.71815e-14 -10.2819 16.7807)
(-2.1255e-13 -9.49734 15.2774)
(-1.20496e-13 -8.73593 13.8015)
(-6.32533e-14 -8.00435 12.4063)
(-2.07291e-13 -7.3181 11.1065)
(-1.64083e-13 -6.5375 9.7051)
(-1.12935e-13 -5.31072 7.51762)
(-3.89392e-13 -3.12717 4.54662)
(-8.21258e-13 -1.03318 -0.364015)
(1.44202e-13 -10.9685 24.2513)
(-3.85967e-14 -16.8754 24.1055)
(2.69948e-14 -11.8975 23.575)
(-3.45202e-14 -13.2741 20.5926)
(-1.67992e-13 -11.337 19.6583)
(3.92216e-14 -10.8902 17.9067)
(1.57965e-14 -10.0276 16.4272)
(-2.04669e-13 -9.2667 14.989)
(-5.58864e-14 -8.5922 13.6627)
(1.40463e-14 -7.9558 12.4361)
(-1.79465e-13 -7.32548 11.2299)
(-1.70495e-13 -6.60968 10.019)
(-1.2585e-13 -5.79613 8.53638)
(-2.21466e-13 -4.29338 6.6049)
(-2.47608e-13 -2.18871 2.24283)
(2.36649e-13 -11.1763 23.7469)
(-1.54985e-14 -16.2424 23.5301)
(1.23557e-13 -11.5943 23.1751)
(-4.07279e-14 -13.0886 20.0913)
(-1.04008e-13 -10.8033 19.3248)
(1.5422e-13 -10.6191 17.373)
(-2.49454e-14 -9.54957 15.9903)
(-9.28148e-14 -8.89269 14.522)
(1.04721e-13 -8.27309 13.2239)
(2.69993e-14 -7.78709 12.0411)
(-2.4459e-14 -7.37467 11.0411)
(1.46999e-13 -6.96303 10.3053)
(9.33314e-14 -6.57658 9.62739)
(-1.72918e-13 -5.69602 8.6183)
(2.41041e-14 -3.85702 5.44475)
(1.61672e-13 -11.8254 23.9877)
(1.6816e-14 -15.5879 23.3093)
(8.48685e-14 -11.6212 22.997)
(-5.68971e-14 -12.7536 20.1228)
(-4.17525e-14 -10.4245 19.271)
(7.73253e-14 -10.1848 17.2417)
(-9.18014e-14 -8.79231 15.6888)
(-1.56495e-14 -7.75118 13.4769)
(3.13475e-14 -6.60092 11.3192)
(-7.2648e-14 -6.16162 9.99875)
(-5.99161e-14 -6.40417 9.90114)
(4.4685e-14 -6.79435 10.3292)
(1.00624e-13 -7.21419 10.9266)
(-8.10847e-15 -7.10697 10.8814)
(2.76996e-14 -5.29919 8.59364)
(1.69576e-13 -12.4956 24.6756)
(2.03414e-14 -15.7651 24.3438)
(-1.02826e-14 -11.9873 23.5555)
(-5.1918e-14 -12.7539 21.0528)
(-6.49467e-15 -10.4922 20.0882)
(-3.54989e-14 -10.0654 18.0693)
(-5.92976e-14 -8.33305 16.2083)
(-9.09386e-14 -6.66665 13.1605)
(-2.84734e-13 -4.62295 10.0122)
(-4.8273e-13 -3.47015 7.98218)
(-8.47867e-13 -3.37287 7.59658)
(-8.69241e-13 -4.29132 8.58477)
(-3.99686e-13 -5.88468 10.5428)
(-7.03165e-14 -6.99789 11.959)
(-2.88201e-14 -5.28855 9.86502)
(1.08615e-13 -12.4375 24.2901)
(2.60742e-14 -16.8219 26.5369)
(-2.55983e-14 -12.696 24.7188)
(-1.3151e-13 -13.3256 22.3123)
(-1.02588e-14 -11.0665 21.3854)
(-6.90702e-14 -10.7249 19.4202)
(-1.58599e-13 -8.96717 17.6907)
(-1.29117e-13 -7.2975 14.6614)
(-4.08888e-13 -4.87962 11.2609)
(-7.64528e-13 -2.95011 8.34754)
(-1.30012e-12 -1.55281 6.21126)
(-1.80381e-12 -0.800129 4.87175)
(-1.72357e-12 -1.24772 5.22531)
(-1.03897e-12 -2.75666 7.18143)
(-1.99573e-13 -2.97482 7.19247)
(-1.45541e-14 -11.7485 22.7163)
(5.22147e-14 -17.6568 28.3548)
(-1.34985e-13 -14.0676 26.2733)
(-1.48442e-13 -14.1712 23.5957)
(-1.22702e-14 -12.1725 22.51)
(-2.25759e-13 -11.8231 20.6375)
(-1.57509e-13 -10.488 19.0574)
(-8.41019e-14 -9.30077 16.9177)
(-4.80536e-13 -7.15219 14.0367)
(-5.93817e-13 -5.05536 11.008)
(-9.92363e-13 -3.07425 8.14088)
(-2.08347e-12 -1.07318 5.16944)
(-2.56721e-12 0.995524 2.15126)
(-2.55287e-12 2.50601 -0.483769)
(-4.66679e-13 2.00493 -0.245386)
(-1.89803e-14 -10.5829 20.1028)
(1.31141e-13 -17.3355 28.3592)
(-2.20841e-13 -14.4259 26.464)
(-1.14278e-13 -13.9719 23.5384)
(1.46442e-14 -12.2146 22.4553)
(-3.48601e-13 -11.8358 20.7008)
(-1.0795e-13 -10.6297 19.1338)
(5.15979e-14 -9.76789 17.4338)
(-4.9458e-13 -8.37673 15.4195)
(-4.51197e-13 -6.64099 12.8553)
(-6.32042e-13 -4.68664 9.96088)
(-1.75527e-12 -2.44754 6.57552)
(-1.90577e-12 0.892867 1.83698)
(-1.45061e-12 4.48045 -4.015)
(-1.32758e-13 5.49899 -4.91136)
(-1.38367e-13 -10.6098 20.1344)
(9.92431e-14 -18.2488 30.0298)
(-1.46499e-13 -16.7907 29.1061)
(-2.23727e-13 -15.686 25.7907)
(-1.48069e-14 -13.864 23.7519)
(-2.8754e-13 -12.8914 21.5784)
(-2.44208e-13 -11.5197 19.6191)
(1.64721e-13 -10.4107 17.9128)
(-3.50575e-13 -9.26281 16.3431)
(-3.93453e-13 -8.02185 14.5299)
(-2.63543e-13 -6.43406 12.1765)
(-1.21013e-12 -4.00829 8.59721)
(-1.14311e-12 0.263345 2.45085)
(-4.81994e-13 4.41036 -7.20247)
(5.70936e-14 8.33577 -6.68511)
(-1.9638e-13 -4.52593 10.9641)
(5.18615e-14 -12.7629 24.0968)
(-1.49655e-13 -11.3678 24.0473)
(-1.51448e-13 -10.674 22.3935)
(-8.20601e-14 -10.0847 21.9594)
(-2.03655e-13 -10.0016 21.1359)
(-9.04151e-14 -9.59016 19.9484)
(6.4187e-14 -8.89715 18.1115)
(-2.43096e-13 -7.58418 15.5925)
(-2.60569e-13 -6.13778 13.0311)
(-2.77655e-13 -5.03774 11.1371)
(-5.27284e-13 -3.86522 9.42549)
(-5.69609e-13 0.404799 1.69525)
(-2.48786e-13 6.28897 -13.9386)
(1.39673e-13 10.714 -7.66822)
(-1.24556e-13 -28.6576 50.329)
(-1.43212e-13 -23.9969 47.9367)
(-3.01227e-13 -19.6087 39.2284)
(-2.74172e-13 -15.8849 32.7394)
(-2.14841e-13 -12.2101 25.8143)
(-1.30868e-13 -9.4414 20.0301)
(-8.49525e-14 -8.13728 16.8876)
(-1.24629e-13 -8.50305 16.3248)
(-2.30334e-13 -9.79807 17.622)
(-3.15538e-13 -9.81673 16.8131)
(-3.79647e-13 -9.29057 14.6074)
(-3.5033e-13 -7.93568 13.0031)
(-4.80241e-13 -8.46854 5.24508)
(-4.28493e-14 9.96715 -13.8986)
(7.59679e-14 14.33 -6.54164)
(-2.42514e-15 0.262004 -0.336455)
(-9.57993e-15 0.972811 -5.23205)
(-8.32962e-15 1.47615 -4.26245)
(-8.32451e-15 2.14623 -4.41972)
(-7.89189e-15 2.26698 -4.20798)
(-1.11646e-14 3.96364 -7.04171)
(-8.30829e-15 3.72813 -4.77703)
(-7.88594e-15 4.48608 -4.78873)
(-8.72531e-15 4.52805 -4.54962)
(9.77838e-15 6.5829 -7.04492)
(7.54763e-15 5.98983 -4.80622)
(4.40545e-15 6.51413 -4.42908)
(1.60195e-15 9.22848 -6.75235)
(2.20069e-15 7.65945 -4.51347)
(3.31862e-15 8.69945 -4.48056)
(4.50824e-15 8.50105 -4.24872)
(5.32616e-15 11.347 -6.37205)
(4.68452e-15 9.73546 -4.31161)
(4.99607e-15 10.2732 -3.96748)
(5.63906e-15 13.9701 -5.9418)
(4.53059e-15 11.1374 -3.94647)
(4.19539e-15 12.4328 -3.90772)
(5.5541e-15 11.981 -3.69038)
(6.61546e-15 15.9277 -5.5477)
(4.50306e-15 12.7828 -3.67547)
(4.6863e-15 14.2392 -3.60657)
(1.98916e-15 13.7107 -3.40776)
(2.01877e-15 17.6344 -5.12807)
(1.49764e-16 14.5912 -3.42576)
(-9.00615e-17 15.1536 -3.13247)
(2.77163e-17 20.1839 -4.71664)
(-9.31083e-16 15.6665 -3.1054)
(-4.68417e-16 17.2203 -3.06906)
(-1.10171e-15 16.5789 -2.91583)
(-1.24382e-15 21.1503 -4.42147)
(-8.40667e-16 17.2703 -2.96429)
(-6.11152e-16 17.8465 -2.73668)
(-3.46106e-16 23.6561 -4.104)
(2.81922e-17 18.1565 -2.69479)
(1.05209e-16 19.9075 -2.6755)
(1.18175e-15 19.0607 -2.5335)
(2.348e-15 24.7213 -3.82786)
(2.07097e-15 19.2645 -2.50588)
(2.41498e-15 21.233 -2.43314)
(2.6603e-15 20.3283 -2.29039)
(4.71566e-15 25.6603 -3.45637)
(3.26075e-15 20.7043 -2.22338)
(3.52635e-15 21.3114 -1.99907)
(5.56619e-15 28.0872 -2.92831)
(5.65118e-15 21.3107 -1.81116)
(6.41963e-15 23.2594 -1.73795)
(7.03932e-15 22.2053 -1.61828)
(1.1181e-14 28.6094 -2.45213)
(9.84923e-15 22.07 -1.50116)
(1.09649e-14 24.2464 -1.39986)
(1.27373e-14 23.1371 -1.31864)
(1.96552e-14 29.0372 -2.07041)
(1.76238e-14 23.2092 -1.22338)
(1.77402e-14 23.8281 -1.08392)
(2.68498e-14 31.2417 -1.59504)
(2.26242e-14 23.504 -0.900604)
(2.44464e-14 25.5621 -0.851177)
(2.44698e-14 24.4409 -0.832033)
(3.50602e-14 30.6869 -1.2902)
(3.3438e-14 24.3536 -0.70493)
(3.22057e-14 24.9573 -0.663048)
(4.41768e-14 32.723 -0.875887)
(3.27096e-14 24.4435 -0.42029)
(3.17109e-14 26.5878 -0.410862)
(2.93383e-14 25.3241 -0.438511)
(3.78745e-14 32.4449 -0.579365)
(2.71771e-14 24.6328 -0.253089)
(2.50115e-14 27.0135 -0.203213)
(2.24438e-14 25.7298 -0.253904)
(2.27055e-14 32.2021 -0.313145)
(1.36552e-14 25.2116 -0.0155747)
(1.06775e-14 26.0166 -0.0325584)
(1.19674e-14 32.6113 0.345231)
(7.61442e-15 25.9999 0.41095)
(-3.7475e-16 23.7844 0.575903)
(1.39315e-14 27.4868 -0.16488)
(1.45029e-14 24.9002 -0.266734)
(1.11318e-14 24.4813 -0.33668)
(-5.64727e-15 27.7705 1.44546)
(1.38178e-14 25.2091 1.30417)
(3.24776e-15 24.9085 0.433818)
(-1.21379e-14 24.936 -0.0454675)
(-2.32751e-14 24.8482 0.204879)
(-3.16239e-14 24.5956 0.646887)
(-3.51604e-14 24.3356 0.932444)
(-4.77226e-14 24.4094 1.68107)
(-8.61338e-14 23.3135 3.72772)
(-1.32704e-14 30.5579 4.46576)
(-6.79749e-14 24.0057 4.6069)
(-6.00603e-14 24.375 4.27177)
(-5.28158e-14 24.6076 3.4351)
(-2.83396e-14 24.4528 4.09876)
(-2.15494e-14 24.6938 3.87875)
(-2.03949e-14 24.7629 3.52726)
(-4.16603e-15 25.0794 2.38637)
(6.32615e-15 24.7842 1.37915)
(6.72721e-14 30.5772 -0.65392)
(7.98538e-15 24.7803 1.1962)
(3.69139e-15 25.8237 1.08863)
(1.10708e-16 25.901 1.11208)
(-7.77785e-15 25.8634 1.36851)
(-2.25912e-14 25.976 2.04332)
(-3.65649e-14 26.1687 2.65562)
(-4.98115e-14 26.2358 2.84146)
(-6.4291e-14 26.5612 3.04423)
(-8.49881e-14 26.2811 3.48915)
(-4.45469e-14 32.4022 2.23516)
(-9.43933e-14 26.3334 5.00424)
(-1.03687e-13 27.2625 5.22805)
(-1.03809e-13 27.414 5.38356)
(-1.01027e-13 27.3768 5.53668)
(-9.71244e-14 27.4778 5.68925)
(-8.02019e-14 27.5983 5.29341)
(-6.68176e-14 27.8874 4.93342)
(-7.26727e-14 27.5623 4.94053)
(-5.45202e-14 33.7838 4.53663)
(-9.41766e-14 27.5495 6.58374)
(-9.48764e-14 28.4389 6.45142)
(-9.09901e-14 28.6295 6.3922)
(-9.49637e-14 28.5203 6.46227)
(-1.0422e-13 28.7014 6.54)
(-1.19815e-13 28.6602 6.84352)
(-1.14848e-13 29.1679 6.52069)
(-1.30109e-13 28.7123 7.50906)
(-1.19247e-13 35.6742 6.63777)
(-1.27616e-13 28.8897 8.84001)
(-1.22251e-13 29.6709 8.88218)
(-1.09206e-13 30.0435 8.594)
(-1.12958e-13 29.9545 9.10808)
(-1.21257e-13 30.2465 9.70521)
(-1.25718e-13 30.3964 10.0926)
(-1.22227e-13 30.7626 10.2856)
(-1.25707e-13 30.4094 10.9167)
(-7.67344e-14 39.2182 7.81373)
(-1.17129e-13 31.0999 12.1724)
(-1.17457e-13 32.3584 12.3687)
(-1.19348e-13 32.7217 12.525)
(-1.19514e-13 32.6569 12.8349)
(-1.28949e-13 33.0945 12.8178)
(-1.36852e-13 33.2253 14.1235)
(-1.39519e-13 33.5644 14.8635)
(-1.3731e-13 34.0774 15.1931)
(-1.48158e-13 33.7413 16.4334)
(-1.00194e-13 44.5339 10.7835)
(-1.41329e-13 35.3636 17.065)
(-1.43404e-13 36.9641 18.2227)
(-1.57026e-13 37.5056 19.1627)
(-1.76046e-13 37.5384 20.2462)
(-2.00177e-13 38.0095 21.4813)
(-2.27116e-13 38.28 23.0787)
(-2.47162e-13 38.7932 24.8824)
(-2.70847e-13 38.5 27.9716)
(-2.80787e-13 52.0281 21.2872)
(-3.10546e-13 41.5206 29.1947)
(-3.35807e-13 43.8089 32.4904)
(-2.83617e-13 43.0458 23.6877)
(-3.57328e-13 40.2832 25.6481)
(-4.47155e-13 43.6902 27.5969)
(-3.09203e-13 32.1437 18.5187)
(-4.4164e-13 43.9737 23.1168)
(-3.32481e-13 31.2283 17.0275)
(-4.20315e-13 33.5818 19.3227)
(-5.06693e-13 36.2449 20.4698)
(-3.52501e-13 27.2852 14.0615)
(-4.35733e-13 31.5794 15.7583)
(-5.13126e-13 34.0194 16.5002)
(-3.42455e-13 23.727 10.9484)
(-4.64541e-13 33.4354 13.0689)
(-3.3501e-13 23.8726 9.44596)
(-4.05996e-13 26.0948 10.2876)
(-4.64352e-13 29.1203 10.2131)
(-3.03974e-13 20.5825 6.64544)
(-4.08188e-13 29.808 7.32629)
(-2.89e-13 21.2255 5.15095)
(-3.47549e-13 23.9822 5.07443)
(-3.93762e-13 26.3632 4.23189)
(-2.62305e-13 19.9271 2.69794)
(-3.12404e-13 24.3935 2.15177)
(-3.55278e-13 27.5286 0.916218)
(-2.31641e-13 19.0637 0.409633)
(-3.06539e-13 29.5578 -1.01749)
(-2.15641e-13 21.3934 -0.896171)
(-2.57841e-13 24.6692 -2.16019)
(-2.89909e-13 29.4182 -3.65919)
(-1.87116e-13 20.8737 -2.50624)
(-2.46557e-13 32.9478 -4.59472)
(-1.73564e-13 23.9782 -3.33428)
(-2.05847e-13 28.4655 -4.9409)
(-2.32536e-13 32.6877 -6.27953)
(-1.56183e-13 25.2273 -4.1431)
(-1.84909e-13 32.2585 -5.66181)
(-2.14396e-13 37.1869 -6.76639)
(-1.39961e-13 26.3507 -4.42306)
(-1.88127e-13 41.355 -6.73297)
(-1.34511e-13 30.6502 -4.7539)
(-1.62731e-13 35.7218 -6.36719)
(-1.86221e-13 42.1337 -7.41061)
(-1.21684e-13 30.563 -4.82301)
(-1.65422e-13 47.3015 -7.19436)
(-1.18533e-13 35.0112 -5.05783)
(-1.42615e-13 41.242 -6.77975)
(-1.64873e-13 46.6046 -7.78448)
(-1.10663e-13 36.2226 -5.03796)
(-1.31427e-13 45.9055 -6.59614)
(-1.50843e-13 52.0571 -7.41885)
(-9.92193e-14 37.2458 -4.80161)
(-1.32815e-13 57.0635 -7.1507)
(-9.54342e-14 42.6253 -4.96249)
(-1.15029e-13 49.2089 -6.60022)
(-1.34485e-13 57.2111 -7.36825)
(-8.88458e-14 41.7967 -4.71644)
(-1.19896e-13 63.4271 -7.0215)
(-8.68081e-14 47.2033 -4.82044)
(-1.04921e-13 55.0458 -6.538)
(-1.20929e-13 61.6844 -7.30448)
(-8.24276e-14 47.9653 -4.59766)
(-9.89454e-14 60.2836 -6.13101)
(-1.12244e-13 67.8278 -6.77126)
(-7.49216e-14 48.6435 -4.32747)
(-1.00725e-13 73.4717 -6.69256)
(-7.32797e-14 55.0412 -4.59821)
(-8.8096e-14 63.1377 -6.3336)
(-1.02976e-13 72.857 -7.1612)
(-6.82653e-14 53.3356 -4.57787)
(-9.1715e-14 80.1068 -7.16261)
(-6.67312e-14 59.796 -4.9257)
(-8.04096e-14 69.3489 -6.9453)
(-9.11876e-14 77.463 -8.06747)
(-6.22413e-14 60.2777 -5.1142)
(-7.43291e-14 75.3887 -7.05188)
(-8.55429e-14 84.8898 -8.29856)
(-5.70854e-14 60.8774 -5.34736)
(-7.7181e-14 92.1497 -8.75877)
(-5.53082e-14 68.1838 -5.97736)
(-7.31632e-14 82.2531 -9.57273)
(-3.99003e-16 -25.1724 20.5728)
(-4.41487e-16 -25.4764 20.4969)
(-4.60837e-16 -25.7154 20.1777)
(-4.8046e-16 -26.0441 19.7503)
(-4.94543e-16 -26.4753 19.1298)
(-5.03992e-16 -26.9651 18.3511)
(-5.08303e-16 -27.4974 17.4199)
(-5.07312e-16 -28.006 16.4019)
(-5.01055e-16 -28.3637 15.3711)
(-4.90062e-16 -28.2067 14.3625)
(-4.74859e-16 -26.7039 13.3003)
(-4.55181e-16 -22.5038 11.9447)
(-4.29435e-16 -14.7153 9.95086)
(-3.97041e-16 -6.35856 7.35999)
(-3.66901e-16 -5.79908 5.48142)
(-3.41187e-16 -11.131 4.50367)
(-3.11728e-16 -17.2806 3.57851)
(-2.77687e-16 -19.9433 2.25143)
(-2.41081e-16 -17.8448 0.75515)
(-2.04791e-16 -18.4754 -0.660741)
(-1.71219e-16 -13.0818 -2.02288)
(-1.43105e-16 -6.0205 -3.17722)
(-1.19672e-16 -0.336224 -4.29147)
(-9.20665e-17 -1.32402 -5.92278)
(-6.46244e-17 -5.41786 -7.68936)
(-4.30226e-17 -7.2776 -8.99953)
(-2.94073e-17 -6.87433 -9.98944)
(-2.26893e-17 -5.22345 -10.8116)
(-2.19903e-17 -3.09645 -11.4958)
(-2.44585e-17 -0.763006 -11.9356)
(-2.65208e-17 1.284 -12.2189)
(-2.81595e-17 2.97644 -12.6072)
(-2.93116e-17 4.33716 -13.1767)
(-3.06844e-17 5.32581 -13.901)
(-3.31204e-17 5.9324 -14.7042)
(-3.72756e-17 6.18455 -15.5207)
(-4.35972e-17 6.11909 -16.3134)
(-5.20649e-17 5.77415 -17.0646)
(-6.21291e-17 5.18198 -17.7674)
(-7.35704e-17 4.35871 -18.4167)
(-8.62953e-17 3.29086 -18.9925)
(-1.01294e-16 1.95879 -19.4637)
(-1.14648e-16 0.210853 -19.6719)
(-1.24616e-16 -1.94117 -19.9197)
(-2.13361e-16 -4.03891 -19.9111)
(-4.6484e-17 -6.77455 -20.6088)
(6.22826e-19 -12.9543 -23.5608)
(-5.26238e-16 -16.2165 -25.6204)
(-1.18543e-15 -13.1317 -26.2708)
(-1.70634e-15 -5.40306 -27.5265)
(-2.34792e-15 7.98303 -34.0165)
(-2.60103e-15 13.6635 -38.3188)
(-2.73968e-15 13.0755 -39.9299)
(-2.92955e-15 10.9155 -39.8336)
(-3.25487e-15 8.67771 -38.568)
(-3.67786e-15 6.85013 -36.8777)
(-4.11944e-15 3.90723 -34.0789)
(-4.92826e-15 -10.9188 -31.054)
(-5.41042e-15 -24 -31.9504)
(-5.64126e-15 -24.3703 -33.9702)
(-6.20783e-15 -16.8285 -37.8711)
(-6.44381e-15 -2.79704 -42.7114)
(-4.2997e-15 0.400989 -38.2811)
(-4.50736e-16 -39.2935 -29.5651)
(8.88167e-17 -70.2419 -28.7354)
(1.60821e-17 -69.935 -27.2832)
(-1.34744e-18 -58.3921 -25.9846)
(-5.82434e-19 -45.2771 -25.4412)
(-2.31949e-19 -32.635 -25.309)
(1.08257e-18 -20.5408 -25.3015)
(-4.11e-18 -8.87473 -25.2935)
(1.77853e-17 2.6579 -25.2914)
(-6.57848e-17 14.7792 -25.0619)
(1.48134e-16 26.7437 -24.0361)
(2.83936e-16 37.7742 -22.1675)
(-3.51289e-15 46.1396 -19.1656)
(-4.01201e-15 55.184 -15.8903)
(7.706e-15 71.5369 -14.2963)
(-5.78283e-15 85.8615 -14.0544)
(-4.01402e-16 -25.1688 20.5754)
(-4.43663e-16 -25.4379 20.4814)
(-4.62602e-16 -25.6376 20.1512)
(-4.81808e-16 -25.9361 19.7087)
(-4.95455e-16 -26.3305 19.0772)
(-5.04483e-16 -26.7876 18.2906)
(-5.08395e-16 -27.2918 17.3596)
(-5.07052e-16 -27.7821 16.3515)
(-5.00519e-16 -28.1223 15.3397)
(-4.89321e-16 -27.9225 14.3532)
(-4.73915e-16 -26.3037 13.2985)
(-4.53863e-16 -21.8626 11.8899)
(-4.27278e-16 -13.7644 9.71886)
(-3.93953e-16 -5.44598 6.93171)
(-3.64708e-16 -5.32222 5.24394)
(-3.40045e-16 -10.8676 4.45057)
(-3.11017e-16 -16.9841 3.57122)
(-2.77243e-16 -19.5394 2.25398)
(-2.40903e-16 -17.4194 0.760086)
(-2.04924e-16 -18.059 -0.642182)
(-1.71721e-16 -12.6623 -1.9918)
(-1.44339e-16 -5.51533 -3.12534)
(-1.22536e-16 0.294861 -4.03606)
(-9.58129e-17 -0.333198 -5.54975)
(-6.75485e-17 -4.51642 -7.51612)
(-4.51456e-17 -6.68226 -8.973)
(-3.07803e-17 -6.48163 -9.9967)
(-2.33409e-17 -4.95053 -10.8102)
(-2.18088e-17 -2.89834 -11.488)
(-2.30816e-17 -0.628456 -11.9405)
(-2.41472e-17 1.40221 -12.3307)
(-2.44487e-17 3.13218 -12.8679)
(-2.44442e-17 4.54075 -13.5907)
(-2.51988e-17 5.56512 -14.4479)
(-2.7271e-17 6.18799 -15.3558)
(-3.08408e-17 6.4399 -16.2545)
(-3.61515e-17 6.36621 -17.1153)
(-4.31857e-17 6.01056 -17.9289)
(-5.15967e-17 5.40696 -18.697)
(-6.1579e-17 4.56979 -19.4197)
(-7.32333e-17 3.48236 -20.0754)
(-8.58143e-17 2.1075 -20.6351)
(-9.9698e-17 0.341408 -20.9837)
(-1.03374e-16 -1.95039 -21.0973)
(-1.79813e-16 -4.26579 -20.8254)
(-9.31654e-17 -6.65146 -20.5888)
(5.93983e-18 -12.3101 -23.1746)
(-4.06303e-16 -16.2997 -25.3928)
(-1.02396e-15 -14.0391 -25.4443)
(-1.6387e-15 -4.4122 -27.9397)
(-2.27697e-15 9.7854 -36.0385)
(-2.51062e-15 14.6025 -39.9895)
(-2.70284e-15 13.2952 -41.0759)
(-2.95374e-15 10.6563 -40.1372)
(-3.34698e-15 8.08532 -37.9818)
(-3.87667e-15 5.9614 -35.4406)
(-4.34825e-15 2.69 -32.586)
(-4.9345e-15 -11.0613 -30.7219)
(-5.3777e-15 -23.5041 -31.7611)
(-5.67992e-15 -23.6425 -33.6976)
(-6.08539e-15 -15.8005 -37.6128)
(-4.55519e-15 -2.75911 -38.6044)
(-2.89299e-15 -1.85763 -34.3737)
(-4.89503e-16 -39.4986 -29.2531)
(8.43491e-17 -70.0397 -28.8815)
(2.27819e-17 -70.2717 -27.5173)
(-9.73919e-19 -58.7296 -26.0683)
(-8.71468e-19 -45.48 -25.4284)
(-2.92245e-19 -32.7559 -25.26)
(1.10409e-18 -20.6211 -25.2349)
(-4.54374e-18 -8.91789 -25.2078)
(2.25798e-17 2.65977 -25.143)
(-8.46455e-17 14.6045 -24.7502)
(2.27758e-16 26.3069 -23.6181)
(1.1103e-16 37.0293 -21.73)
(-4.03743e-15 45.1759 -18.7466)
(-3.86269e-15 54.4476 -15.6317)
(8.88066e-15 71.0837 -14.1283)
(-9.49149e-15 85.2802 -12.2041)
(-4.04362e-16 -25.1565 20.5866)
(-4.46321e-16 -25.3867 20.4699)
(-4.6475e-16 -25.5461 20.1256)
(-4.83439e-16 -25.8094 19.6645)
(-4.96549e-16 -26.1632 19.0191)
(-5.05057e-16 -26.5856 18.2219)
(-5.0848e-16 -27.0648 17.2898)
(-5.06705e-16 -27.5479 16.2919)
(-4.99836e-16 -27.8957 15.3007)
(-4.88389e-16 -27.7009 14.3365)
(-4.72731e-16 -26.052 13.2831)
(-4.52205e-16 -21.515 11.8051)
(-4.24644e-16 -13.3184 9.44827)
(-3.90457e-16 -5.13676 6.51097)
(-3.62221e-16 -5.1345 5.01559)
(-3.38668e-16 -10.6964 4.39748)
(-3.10138e-16 -16.749 3.56605)
(-2.76689e-16 -19.2358 2.26045)
(-2.40676e-16 -17.1156 0.772607)
(-2.0508e-16 -17.7704 -0.610927)
(-1.72316e-16 -12.4213 -1.94744)
(-1.45714e-16 -5.36918 -3.04304)
(-1.25257e-16 0.150068 -3.82368)
(-9.95585e-17 -0.359376 -5.26532)
(-7.08534e-17 -4.3304 -7.35506)
(-4.77189e-17 -6.51178 -8.93328)
(-3.254e-17 -6.34555 -9.99772)
(-2.42574e-17 -4.83565 -10.8164)
(-2.18056e-17 -2.81553 -11.506)
(-2.20774e-17 -0.5717 -11.9937)
(-2.26016e-17 1.47616 -12.4688)
(-2.29761e-17 3.25042 -13.1087)
(-2.35686e-17 4.6834 -13.9203)
(-2.48599e-17 5.71824 -14.839)
(-2.70814e-17 6.34044 -15.789)
(-3.04715e-17 6.5844 -16.7211)
(-3.53966e-17 6.50093 -17.6125)
(-4.18644e-17 6.13619 -18.4579)
(-4.9604e-17 5.52395 -19.2625)
(-5.89448e-17 4.67582 -20.0292)
(-6.99784e-17 3.5718 -20.738)
(-8.13105e-17 2.16678 -21.3592)
(-9.45866e-17 0.347679 -21.7921)
(-9.31108e-17 -1.94582 -22.1088)
(-1.43016e-16 -4.25104 -22.0987)
(-1.35362e-16 -6.48874 -21.3261)
(-3.33644e-18 -11.7287 -23.001)
(-2.54043e-16 -15.7936 -24.6458)
(-8.53821e-16 -13.556 -24.6906)
(-1.60826e-15 -3.139 -29.035)
(-2.25675e-15 10.7233 -37.322)
(-2.48866e-15 14.8963 -40.6875)
(-2.71579e-15 13.2072 -41.332)
(-2.99944e-15 10.2984 -39.8227)
(-3.3788e-15 7.67615 -37.3227)
(-3.89308e-15 5.69482 -34.6169)
(-4.41535e-15 2.71882 -31.9188)
(-4.93538e-15 -11.198 -30.4592)
(-5.35715e-15 -23.2487 -31.4156)
(-5.76357e-15 -23.0154 -33.3319)
(-5.66373e-15 -15.5371 -36.9327)
(-3.55135e-15 -3.09316 -36.9677)
(-1.91646e-15 -2.16173 -31.9966)
(-4.50061e-16 -40.3818 -28.7811)
(7.18681e-17 -70.3528 -28.9525)
(2.85021e-17 -70.5902 -27.7013)
(-1.70005e-19 -58.927 -26.1418)
(-1.19938e-18 -45.5286 -25.4033)
(-3.97576e-19 -32.7376 -25.1957)
(1.14593e-18 -20.5924 -25.1522)
(-5.07838e-18 -8.90582 -25.1098)
(2.44659e-17 2.57745 -24.9897)
(-9.45568e-17 14.4501 -24.5295)
(2.77234e-16 26.0608 -23.3808)
(-2.65137e-17 36.6562 -21.488)
(-4.32208e-15 44.7234 -18.5322)
(-3.73733e-15 54.104 -15.5199)
(9.52174e-15 70.7497 -14.0075)
(-1.16018e-14 84.7744 -11.446)
(-4.07448e-16 -25.1425 20.6055)
(-4.49057e-16 -25.3386 20.4638)
(-4.66948e-16 -25.4644 20.1046)
(-4.85097e-16 -25.6985 19.6239)
(-4.97647e-16 -26.0193 18.9634)
(-5.05614e-16 -26.4145 18.1546)
(-5.08529e-16 -26.8759 17.2208)
(-5.06311e-16 -27.3567 16.2325)
(-4.991e-16 -27.7132 15.26)
(-4.87396e-16 -27.5216 14.3131)
(-4.7147e-16 -25.8375 13.2523)
(-4.50437e-16 -21.1971 11.7025)
(-4.21913e-16 -12.8895 9.19531)
(-3.87071e-16 -4.80363 6.18159)
(-3.59846e-16 -4.9891 4.83409)
(-3.37273e-16 -10.5834 4.34554)
(-3.09223e-16 -16.5651 3.55775)
(-2.76106e-16 -18.9899 2.26727)
(-2.40429e-16 -16.8738 0.791122)
(-2.05228e-16 -17.5433 -0.568892)
(-1.72903e-16 -12.2383 -1.8878)
(-1.46995e-16 -5.25395 -2.9357)
(-1.27573e-16 0.299222 -3.6478)
(-1.02913e-16 -0.102545 -5.06885)
(-7.40648e-17 -4.07282 -7.22228)
(-5.03618e-17 -6.32327 -8.88165)
(-3.44536e-17 -6.20107 -9.98248)
(-2.53538e-17 -4.70358 -10.8169)
(-2.20339e-17 -2.70279 -11.5424)
(-2.16098e-17 -0.465329 -12.0855)
(-2.18142e-17 1.611 -12.6561)
(-2.21436e-17 3.4133 -13.3949)
(-2.27361e-17 4.87038 -14.2837)
(-2.39238e-17 5.91992 -15.2623)
(-2.59601e-17 6.54481 -16.2619)
(-2.91353e-17 6.78317 -17.2368)
(-3.37866e-17 6.69144 -18.1686)
(-3.98292e-17 6.31905 -19.0561)
(-4.70491e-17 5.70026 -19.9085)
(-5.59291e-17 4.84421 -20.7312)
(-6.64104e-17 3.72715 -21.5053)
(-7.664e-17 2.29668 -22.2017)
(-8.79937e-17 0.456727 -22.7462)
(-8.69656e-17 -1.87614 -23.1234)
(-1.14579e-16 -4.25502 -23.3545)
(-1.64374e-16 -6.51427 -22.6411)
(-1.19787e-17 -11.4984 -23.1339)
(-1.23454e-16 -15.5006 -23.8589)
(-7.27041e-16 -12.9616 -24.4754)
(-1.6155e-15 -1.26793 -30.7688)
(-2.22936e-15 11.9582 -38.6937)
(-2.46191e-15 15.3062 -41.3839)
(-2.7381e-15 13.1004 -41.4941)
(-3.05849e-15 9.86626 -39.4466)
(-3.4304e-15 7.10832 -36.6434)
(-3.92118e-15 5.00716 -33.7212)
(-4.44747e-15 2.18536 -31.2219)
(-4.93764e-15 -11.2245 -30.2205)
(-5.37774e-15 -22.9993 -30.927)
(-5.75971e-15 -22.515 -32.8113)
(-5.08648e-15 -15.2001 -36.4054)
(-2.82292e-15 -3.80931 -36.2004)
(-1.27132e-15 -3.12729 -30.319)
(-3.64743e-16 -40.612 -28.1808)
(5.77212e-17 -70.4834 -28.9448)
(3.14398e-17 -70.8644 -27.8138)
(8.82324e-19 -59.1342 -26.1985)
(-1.45514e-18 -45.6017 -25.3737)
(-5.36106e-19 -32.7461 -25.1262)
(1.2008e-18 -20.5924 -25.0626)
(-5.63869e-18 -8.92663 -25.0017)
(2.65691e-17 2.52566 -24.8236)
(-1.05725e-16 14.2848 -24.2988)
(3.37834e-16 25.7314 -23.1189)
(-2.09672e-16 36.1289 -21.2071)
(-4.66704e-15 44.0734 -18.2727)
(-3.55996e-15 53.6161 -15.3716)
(1.02649e-14 70.3635 -13.8884)
(-1.40953e-14 84.1313 -12.1459)
(-4.10554e-16 -25.1271 20.6313)
(-4.51774e-16 -25.2882 20.4637)
(-4.69119e-16 -25.3803 20.0889)
(-4.8672e-16 -25.5862 19.5879)
(-4.98706e-16 -25.8754 18.9117)
(-5.0613e-16 -26.2455 18.091)
(-5.08535e-16 -26.6908 17.1555)
(-5.05878e-16 -27.1692 16.1768)
(-4.9833e-16 -27.5296 15.2223)
(-4.86374e-16 -27.3266 14.2898)
(-4.70172e-16 -25.5756 13.2161)
(-4.48611e-16 -20.7794 11.5946)
(-4.19171e-16 -12.3063 8.95996)
(-3.83864e-16 -4.32655 5.90047)
(-3.57644e-16 -4.80002 4.67837)
(-3.35907e-16 -10.4604 4.29418)
(-3.08303e-16 -16.367 3.54943)
(-2.75513e-16 -18.7151 2.27673)
(-2.40169e-16 -16.5975 0.816114)
(-2.0536e-16 -17.2791 -0.5168)
(-1.73456e-16 -12.0025 -1.81577)
(-1.48155e-16 -5.04041 -2.82122)
(-1.29586e-16 0.610678 -3.49571)
(-1.05958e-16 0.391748 -4.90267)
(-7.71283e-17 -3.62331 -7.10864)
(-5.29883e-17 -6.01585 -8.83307)
(-3.6458e-17 -5.98788 -9.96576)
(-2.6613e-17 -4.5314 -10.817)
(-2.24651e-17 -2.56181 -11.5927)
(-2.15348e-17 -0.338898 -12.2093)
(-2.15067e-17 1.74434 -12.8684)
(-2.17873e-17 3.57804 -13.6852)
(-2.24263e-17 5.06055 -14.6397)
(-2.36639e-17 6.1197 -15.6724)
(-2.57419e-17 6.74311 -16.7149)
(-2.89629e-17 6.97364 -17.7269)
(-3.35999e-17 6.87272 -18.6965)
(-3.94673e-17 6.49277 -19.6267)
(-4.64292e-17 5.86806 -20.5296)
(-5.50849e-17 5.00473 -21.4119)
(-6.51573e-17 3.87521 -22.2563)
(-7.44001e-17 2.42213 -23.0367)
(-8.38457e-17 0.550707 -23.6928)
(-8.30181e-17 -1.80675 -24.1915)
(-9.56959e-17 -4.27792 -24.5599)
(-1.79444e-16 -6.61112 -24.1505)
(-1.60152e-17 -11.5131 -23.6262)
(-3.40858e-17 -15.3866 -23.5828)
(-6.6384e-16 -12.2982 -25.0498)
(-1.65735e-15 0.478135 -32.7692)
(-2.21153e-15 12.9287 -39.9014)
(-2.44883e-15 15.5188 -41.8785)
(-2.77952e-15 12.8244 -41.3759)
(-3.13143e-15 9.33913 -38.951)
(-3.48889e-15 6.51636 -35.925)
(-3.94895e-15 4.54583 -32.8452)
(-4.4694e-15 1.90527 -30.4709)
(-4.95365e-15 -11.242 -29.9503)
(-5.41694e-15 -22.7537 -30.3264)
(-5.60192e-15 -21.9405 -32.3246)
(-4.48402e-15 -14.8717 -36.3419)
(-2.24122e-15 -4.24497 -35.8614)
(-8.33339e-16 -3.97218 -28.9696)
(-2.67162e-16 -40.5653 -27.4869)
(4.59417e-17 -70.4471 -28.8854)
(3.17026e-17 -71.138 -27.8842)
(1.92925e-18 -59.3916 -26.2393)
(-1.58923e-18 -45.723 -25.3348)
(-6.87723e-19 -32.789 -25.046)
(1.25845e-18 -20.6142 -24.9598)
(-6.13505e-18 -8.95672 -24.878)
(2.80519e-17 2.44372 -24.6463)
(-1.15071e-16 14.1098 -24.0696)
(3.99047e-16 25.4282 -22.8666)
(-4.2679e-16 35.6631 -20.933)
(-4.99702e-15 43.5187 -18.0277)
(-3.34139e-15 53.2011 -15.2404)
(1.0953e-14 69.9754 -13.7614)
(-1.65435e-14 83.4873 -10.6542)
(-4.13653e-16 -25.1087 20.6645)
(-4.54449e-16 -25.2325 20.4701)
(-4.71244e-16 -25.2901 20.0792)
(-4.88294e-16 -25.4667 19.5575)
(-4.99716e-16 -25.7236 18.8651)
(-5.06597e-16 -26.0687 18.0322)
(-5.08497e-16 -26.4988 17.0952)
(-5.05408e-16 -26.9759 16.1262)
(-4.97533e-16 -27.3401 15.189)
(-4.85329e-16 -27.1216 14.2684)
(-4.68842e-16 -25.2931 13.1775)
(-4.46741e-16 -20.3289 11.4839)
(-4.16435e-16 -11.7006 8.73432)
(-3.80814e-16 -3.88481 5.64631)
(-3.55602e-16 -4.64421 4.54588)
(-3.3458e-16 -10.3457 4.24745)
(-3.07386e-16 -16.1664 3.54429)
(-2.74912e-16 -18.431 2.28999)
(-2.39896e-16 -16.313 0.847135)
(-2.05472e-16 -17.0064 -0.456965)
(-1.73971e-16 -11.7626 -1.73775)
(-1.49205e-16 -4.84286 -2.71249)
(-1.31396e-16 0.800058 -3.37106)
(-1.08803e-16 0.780918 -4.75083)
(-8.00714e-17 -3.19091 -7.00402)
(-5.55823e-17 -5.70827 -8.78879)
(-3.85278e-17 -5.7786 -9.95138)
(-2.80358e-17 -4.36398 -10.8146)
(-2.3075e-17 -2.42105 -11.6411)
(-2.17191e-17 -0.213032 -12.3373)
(-2.15023e-17 1.89624 -13.0748)
(-2.173e-17 3.76514 -13.9638)
(-2.23684e-17 5.26687 -14.9803)
(-2.36233e-17 6.33253 -16.0593)
(-2.57777e-17 6.95396 -17.1373)
(-2.91452e-17 7.17726 -18.1839)
(-3.38986e-17 7.0685 -19.1932)
(-3.97399e-17 6.68286 -20.1706)
(-4.66337e-17 6.05451 -21.1296)
(-5.52608e-17 5.18659 -22.0779)
(-6.50428e-17 4.04784 -23.0001)
(-7.34011e-17 2.57723 -23.8745)
(-8.13563e-17 0.68453 -24.6502)
(-8.06812e-17 -1.70083 -25.3033)
(-8.52493e-17 -4.26629 -25.7624)
(-1.83926e-16 -6.74468 -25.6505)
(-1.86488e-17 -11.6172 -24.534)
(1.46381e-17 -15.2199 -24.1142)
(-6.6424e-16 -11.4429 -26.4428)
(-1.71193e-15 2.19025 -34.8318)
(-2.19082e-15 13.7674 -40.9471)
(-2.44066e-15 15.6215 -42.2273)
(-2.83352e-15 12.4907 -41.0433)
(-3.21106e-15 8.78776 -38.4569)
(-3.54954e-15 5.89247 -35.3018)
(-3.96392e-15 3.96888 -32.1651)
(-4.4814e-15 1.63735 -29.7454)
(-4.97588e-15 -11.2618 -29.6444)
(-5.43195e-15 -22.5293 -29.7538)
(-5.33603e-15 -21.2851 -32.2522)
(-3.90839e-15 -14.5329 -36.7652)