/*--------------------------------*- C++ -*----------------------------------*\
| =========                 |                                                 |
| \\      /  F ield         | OpenFOAM: The Open Source CFD Toolbox           |
|  \\    /   O peration     | Version:  4.1                                   |
|   \\  /    A nd           | Web:      www.OpenFOAM.org                      |
|    \\/     M anipulation  |                                                 |
\*---------------------------------------------------------------------------*/
FoamFile
{
    version     2.0;
    format      ascii;
    class       volScalarField;
    location    "5";
    object      p;
}
// * * * * * * * * * * * * * * * * * * * * * * * * * * * * * * * * * * * * * //

dimensions      [0 2 -2 0 0 0 0];

internalField   nonuniform List<scalar> 
225
(
523.365
469.969
418.137
369.726
324.835
282.818
243.463
206.459
171.365
138.001
107.059
78.9202
49.8913
14.9725
-14.1797
56.9316
34.67
28.9098
25.1991
19.7261
14.0192
8.86622
4.47754
0.993825
-1.4648
-2.65607
-2.15453
-0.0581816
1.81336
2.07353
-45.8583
-52.5019
-46.7315
-42.5796
-39.4871
-35.8922
-32.0059
-28.0685
-24.1639
-20.4483
-17.1033
-14.037
-10.9607
-8.3082
-7.07365
0.300515
-2.1129
2.4824
2.80267
2.85019
3.06252
2.97175
2.59227
2.00849
1.24874
0.292058
-0.81788
-1.72945
-1.88244
-1.57233
16.7302
14.3937
15.9346
13.8241
12.4007
11.158
9.74857
8.36718
7.11041
6.02152
5.12415
4.41538
3.93976
3.90695
4.1511
7.43574
5.40503
6.37455
5.16278
4.9746
4.97001
4.88908
4.92868
5.09048
5.33699
5.65657
6.01882
6.33672
6.59154
6.76603
3.97023
2.82052
3.92542
3.62694
4.02811
4.42356
4.72013
5.06871
5.42278
5.74185
6.02388
6.27061
6.44504
6.52514
6.54128
5.7392
5.19303
6.06137
5.83344
6.01596
6.10846
6.11724
6.15148
6.16609
6.15362
6.12556
6.0969
6.06381
6.01853
5.97043
6.05233
5.72359
6.2171
5.9112
5.92534
5.87997
5.80131
5.75448
5.69943
5.64342
5.5916
5.54739
5.50725
5.46434
5.41259
4.62294
4.40198
4.72272
4.52693
4.59901
4.62272
4.62802
4.65064
4.65959
4.66392
4.66406
4.65462
4.63525
4.60095
4.54264
3.20223
3.08273
3.38128
3.3434
3.49151
3.56565
3.61271
3.65751
3.68046
3.69127
3.68987
3.67453
3.64663
3.60629
3.5409
2.30434
2.2539
2.53106
2.56177
2.70371
2.75419
2.78038
2.79969
2.79967
2.78962
2.7692
2.73912
2.70369
2.66389
2.60099
1.6119
1.58655
1.80725
1.83328
1.9303
1.94204
1.94603
1.94818
1.93833
1.92353
1.90322
1.87735
1.84657
1.81212
1.75588
0.940352
0.930189
1.09228
1.08799
1.14696
1.14146
1.14621
1.15334
1.1525
1.14884
1.14064
1.12892
1.1079
1.07822
1.02413
0.470404
0.42452
0.466779
0.416852
0.438348
0.413455
0.409648
0.402793
0.388774
0.371105
0.348898
0.32468
0.297138
0.267689
0.223682
)
;

boundaryField
{
    inletFace
    {
        type            zeroGradient;
    }
    inlet
    {
        type            zeroGradient;
    }
    inletWalls
    {
        type            zeroGradient;
    }
    outletInlet
    {
        type            fixedValue;
        value           uniform 0;
    }
}


// ************************************************************************* //
