/*--------------------------------*- C++ -*----------------------------------*\
| =========                 |                                                 |
| \\      /  F ield         | OpenFOAM: The Open Source CFD Toolbox           |
|  \\    /   O peration     | Version:  4.1                                   |
|   \\  /    A nd           | Web:      www.OpenFOAM.org                      |
|    \\/     M anipulation  |                                                 |
\*---------------------------------------------------------------------------*/
FoamFile
{
    version     2.0;
    format      ascii;
    class       volVectorField;
    location    "5";
    object      U;
}
// * * * * * * * * * * * * * * * * * * * * * * * * * * * * * * * * * * * * * //

dimensions      [0 1 -1 0 0 0 0];

internalField   nonuniform List<vector> 
225
(
(1.30836e-14 0.8522 15.7946)
(1.71351e-15 -4.89461 12.1215)
(-1.88931e-15 -4.19554 12.1322)
(5.67729e-16 -3.6012 11.9966)
(1.78347e-16 -3.00469 11.8778)
(-2.93852e-16 -2.5532 11.6992)
(1.87734e-15 -2.20881 11.4769)
(1.56724e-16 -1.96603 11.2116)
(-1.73476e-16 -1.79856 10.916)
(1.11362e-15 -1.71238 10.5882)
(9.55629e-17 -1.83746 10.1561)
(-3.16531e-16 -2.28568 9.53763)
(8.8842e-16 -2.51302 8.96378)
(-3.16409e-17 -1.06552 8.91357)
(-1.31062e-17 1.76574 7.47092)
(1.95869e-14 -5.35021 22.493)
(1.61808e-14 -14.605 21.3939)
(3.6441e-16 -13.2708 20.3411)
(3.68926e-15 -11.7697 19.5065)
(2.18969e-15 -11.156 18.5043)
(-1.59365e-16 -10.6593 17.5174)
(2.50958e-15 -10.09 16.5714)
(1.18923e-15 -9.52494 15.6235)
(-3.30399e-16 -8.96536 14.6638)
(2.47087e-16 -8.36723 13.6945)
(3.62739e-16 -7.75704 12.7178)
(-3.2984e-16 -7.30332 11.7194)
(8.49242e-17 -7.01704 10.6244)
(4.47567e-17 -5.73093 9.16115)
(5.8484e-18 -2.30499 4.58318)
(1.72365e-14 -7.71551 23.9796)
(1.36811e-14 -16.7731 24.6734)
(1.6666e-15 -13.7365 23.9372)
(1.70364e-15 -12.306 22.6249)
(5.53626e-15 -11.6446 21.2413)
(9.23705e-16 -10.814 20.0012)
(3.50063e-15 -9.9403 18.7737)
(2.43678e-15 -9.10019 17.5247)
(5.26677e-16 -8.28351 16.2654)
(-6.41125e-16 -7.47542 15.0262)
(7.2045e-19 -6.66786 13.8176)
(1.09441e-16 -5.84191 12.43)
(5.57927e-16 -4.8141 10.2753)
(-5.93885e-17 -3.12639 6.68455)
(-9.95025e-18 -0.832062 1.68981)
(1.77218e-14 -8.50227 22.0455)
(1.3609e-14 -16.6209 24.3323)
(2.30007e-15 -12.9297 23.7972)
(5.77003e-15 -12.1535 21.9986)
(1.07214e-15 -11.4203 20.5028)
(1.94879e-15 -10.494 19.1722)
(2.89027e-15 -9.63428 17.8168)
(4.10663e-16 -8.82401 16.4591)
(1.3273e-15 -8.0541 15.1231)
(1.48655e-15 -7.3243 13.8166)
(-4.90969e-17 -6.55305 12.4397)
(4.19283e-16 -5.49179 10.584)
(4.91793e-16 -3.78696 7.51125)
(-5.80151e-17 -1.49582 2.77025)
(-6.41201e-16 0.152058 -1.77227)
(1.54108e-14 -8.47636 19.7485)
(1.35904e-14 -16.3601 24.3118)
(2.4047e-15 -13.099 23.6599)
(4.92625e-15 -12.6287 21.5362)
(1.10591e-15 -11.8573 20.0246)
(1.62798e-15 -10.9578 18.6638)
(2.65886e-15 -10.1701 17.2589)
(1.1196e-15 -9.40312 15.8713)
(2.76492e-15 -8.65281 14.5239)
(1.3778e-15 -7.9306 13.2139)
(-5.0527e-16 -7.16592 11.8296)
(7.98265e-16 -6.11646 9.99711)
(2.43333e-16 -4.42512 7.15765)
(-4.5707e-16 -2.30672 3.2909)
(-9.38495e-16 -0.788786 0.320251)
(1.41196e-14 -8.02227 17.5537)
(1.42461e-14 -16.0201 24.5279)
(3.707e-15 -13.6449 24.0461)
(4.45638e-15 -12.9954 21.7651)
(1.60957e-15 -12.1266 20.216)
(1.19406e-15 -11.2243 18.8475)
(2.59743e-15 -10.4386 17.4344)
(1.59797e-15 -9.64863 16.0436)
(1.63956e-15 -8.85994 14.6935)
(1.1495e-15 -8.0926 13.382)
(4.62246e-16 -7.29677 12.0174)
(2.27935e-16 -6.28445 10.2822)
(9.43045e-16 -4.73335 7.72182)
(1.07261e-16 -2.75662 4.3733)
(1.75338e-15 -0.95037 1.29826)
(1.25402e-14 -7.33624 15.2505)
(1.48077e-14 -15.4908 24.3549)
(5.09535e-15 -14.0233 24.4225)
(3.75259e-15 -13.1272 22.0684)
(1.83408e-15 -12.1433 20.441)
(1.78188e-15 -11.2347 19.0552)
(2.37732e-15 -10.4355 17.6439)
(1.21765e-15 -9.61939 16.2577)
(1.7107e-15 -8.80978 14.9067)
(1.09758e-15 -8.02709 13.5919)
(6.75433e-16 -7.22411 12.237)
(8.84621e-16 -6.24091 10.5493)
(-1.52661e-16 -4.7888 8.10847)
(-1.4007e-17 -2.91533 4.94805)
(2.27277e-15 -1.01143 1.79802)
(1.02957e-14 -6.5547 13.0309)
(1.50796e-14 -14.846 23.8166)
(6.34265e-15 -14.2619 24.6697)
(3.54362e-15 -13.2349 22.322)
(1.943e-15 -12.166 20.5834)
(1.65418e-15 -11.2657 19.1665)
(1.87807e-15 -10.4656 17.7584)
(1.3215e-15 -9.64363 16.3766)
(1.39116e-15 -8.83568 15.0247)
(8.94431e-16 -8.05656 13.7074)
(9.05447e-16 -7.25658 12.358)
(6.66885e-16 -6.28872 10.7007)
(6.51443e-16 -4.8932 8.33307)
(1.16698e-16 -3.08717 5.26989)
(1.13203e-15 -1.12296 2.04561)
(9.18857e-15 -5.78067 11.13)
(1.50225e-14 -14.1758 23.0942)
(7.30943e-15 -14.4389 24.8461)
(3.43549e-15 -13.3953 22.6136)
(1.97278e-15 -12.2537 20.7545)
(1.57268e-15 -11.351 19.2948)
(2.50251e-15 -10.5491 17.8902)
(1.60907e-15 -9.72637 16.5112)
(8.09076e-16 -8.92039 15.1566)
(1.75476e-15 -8.14125 13.8356)
(9.7966e-16 -7.34053 12.4871)
(3.98279e-16 -6.38054 10.8525)
(6.67528e-16 -5.02497 8.54905)
(9.0739e-17 -3.26839 5.5618)
(-5.41968e-16 -1.23959 2.2525)
(7.10802e-15 -5.0913 9.61117)
(1.47339e-14 -13.5236 22.3058)
(8.21584e-15 -14.5356 24.9519)
(3.76932e-15 -13.5548 22.9335)
(2.06221e-15 -12.347 20.9689)
(1.41903e-15 -11.4265 19.4565)
(2.44391e-15 -10.6177 18.0511)
(1.67544e-15 -9.79433 16.6728)
(1.55926e-15 -8.98807 15.3142)
(6.59351e-16 -8.20575 13.9879)
(1.01069e-15 -7.40382 12.6361)
(5.14769e-16 -6.45005 11.0137)
(2.21918e-16 -5.1236 8.75523)
(3.83464e-16 -3.40496 5.81884)
(-7.64061e-16 -1.31775 2.42974)
(6.49309e-15 -4.54286 8.46752)
(1.41522e-14 -12.9291 21.5529)
(9.03092e-15 -14.5372 24.9756)
(4.31982e-15 -13.6672 23.2204)
(2.2861e-15 -12.4134 21.1812)
(6.2525e-16 -11.4726 19.6127)
(1.68343e-15 -10.6573 18.201)
(1.72424e-15 -9.83535 16.8211)
(1.10975e-15 -9.03056 15.4583)
(1.28587e-15 -8.24676 14.1265)
(1.12805e-15 -7.4447 12.7685)
(5.92563e-17 -6.49588 11.1485)
(2.21901e-16 -5.18991 8.91568)
(-4.71629e-16 -3.49803 6.00525)
(-9.03575e-16 -1.36068 2.53398)
(5.59646e-15 -4.16927 7.6984)
(1.40845e-14 -12.4383 20.9273)
(9.39098e-15 -14.4737 24.9369)
(4.11456e-15 -13.7303 23.4379)
(2.05072e-15 -12.4564 21.3595)
(9.7977e-16 -11.5004 19.7407)
(1.80228e-15 -10.6801 18.3203)
(1.49008e-15 -9.86118 16.9381)
(8.53265e-16 -9.05893 15.5715)
(1.11705e-15 -8.27519 14.2348)
(1.08983e-15 -7.47261 12.8691)
(-6.73668e-16 -6.52471 11.2439)
(1.57913e-16 -5.23063 9.0227)
(-1.04623e-15 -3.55475 6.12044)
(-1.35184e-15 -1.37439 2.56466)
(5.03479e-15 -3.9697 7.27346)
(1.36828e-14 -12.0675 20.4616)
(9.43334e-15 -14.3826 24.8634)
(4.23503e-15 -13.7565 23.5821)
(2.16537e-15 -12.4837 21.496)
(1.32274e-15 -11.5202 19.8395)
(1.72619e-15 -10.695 18.4104)
(1.97307e-15 -9.87915 17.0259)
(7.52524e-16 -9.07982 15.6565)
(1.11169e-15 -8.29646 14.3152)
(1.10639e-15 -7.49297 12.9402)
(-1.60752e-16 -6.54212 11.304)
(2.31584e-17 -5.24956 9.08167)
(-8.81928e-16 -3.5756 6.1712)
(-1.1374e-15 -1.3616 2.53314)
(4.77252e-15 -3.90233 7.11116)
(1.3411e-14 -11.8329 20.188)
(9.56062e-15 -14.2974 24.7918)
(4.35414e-15 -13.7628 23.6665)
(2.1858e-15 -12.499 21.5875)
(1.23742e-15 -11.5309 19.9074)
(1.7004e-15 -10.7002 18.4721)
(1.95313e-15 -9.88536 17.0859)
(8.61722e-16 -9.08745 15.7151)
(1.17635e-15 -8.3034 14.3709)
(1.06985e-15 -7.49743 12.9886)
(-1.18703e-16 -6.54288 11.3411)
(4.31405e-17 -5.25245 9.11473)
(-7.68305e-16 -3.58192 6.19857)
(-8.52322e-16 -1.34881 2.50548)
(4.7765e-15 -4.04879 7.30449)
(1.29533e-14 -11.6335 19.9657)
(9.54524e-15 -14.1909 24.67)
(4.43784e-15 -13.7426 23.7024)
(2.18711e-15 -12.5042 21.6686)
(1.28475e-15 -11.5386 19.9735)
(1.68971e-15 -10.6992 18.5322)
(1.84412e-15 -9.88655 17.1418)
(9.23775e-16 -9.09009 15.7679)
(1.13675e-15 -8.30476 14.4171)
(9.54576e-16 -7.48999 13.0137)
(-5.48783e-17 -6.51562 11.3275)
(-6.60843e-18 -5.20659 9.06128)
(-7.43937e-16 -3.50309 6.08436)
(-4.39276e-16 -1.25474 2.31253)
)
;

boundaryField
{
    inletFace
    {
        type            zeroGradient;
    }
    inlet
    {
        type            fixedValue;
        value           uniform (0 8.7 15);
    }
    inletWalls
    {
        type            noSlip;
    }
    outletInlet
    {
        type            zeroGradient;
    }
}


// ************************************************************************* //
