/*--------------------------------*- C++ -*----------------------------------*\
| =========                 |                                                 |
| \\      /  F ield         | OpenFOAM: The Open Source CFD Toolbox           |
|  \\    /   O peration     | Version:  4.1                                   |
|   \\  /    A nd           | Web:      www.OpenFOAM.org                      |
|    \\/     M anipulation  |                                                 |
\*---------------------------------------------------------------------------*/
FoamFile
{
    version     2.0;
    format      ascii;
    class       volScalarField;
    location    "5";
    object      p;
}
// * * * * * * * * * * * * * * * * * * * * * * * * * * * * * * * * * * * * * //

dimensions      [0 2 -2 0 0 0 0];

internalField   nonuniform List<scalar> 
6785
(
600.895
546.697
494.828
446.117
400.95
358.64
319.001
281.74
246.421
212.78
181.433
153.008
124.153
89.2104
58.7165
127.74
105.857
101.154
97.6301
92.2756
86.7622
81.8091
77.6126
74.3261
72.0606
71.0247
71.6493
73.9383
76.0874
76.0399
29.5106
23.8652
29.8453
33.6205
36.4125
39.7393
43.3487
47.0036
50.6375
54.1031
57.1843
59.9711
62.8317
65.1543
65.7416
74.2895
74.2577
78.6963
78.7931
78.5839
78.6013
78.3506
77.8326
77.1334
76.2875
75.2627
74.0744
73.0338
72.6761
72.91
87.8059
88.6901
90.3011
88.3999
87.0166
85.9255
84.6371
83.3568
82.2135
81.2504
80.4786
79.8612
79.3813
79.293
79.4132
76.6865
77.3799
78.3905
77.9197
78.1204
78.4467
78.6286
78.8918
79.2521
79.6462
80.0493
80.4364
80.6931
80.9354
80.8562
72.4387
73.2424
74.806
75.8765
76.8709
77.5721
78.079
78.5801
79.0316
79.3814
79.6338
79.8074
79.7909
79.8055
79.3687
75.2395
75.8533
77.4402
78.7295
79.2921
79.4727
79.5513
79.6242
79.6425
79.6088
79.5522
79.494
79.2569
79.1949
78.6583
78.0365
78.1709
79.2013
80.0688
79.9962
79.7663
79.5958
79.4643
79.3267
79.2101
79.1281
79.081
78.7835
78.7216
78.1516
78.2619
78.0686
78.5924
79.2039
78.9098
78.6824
78.5714
78.4829
78.3913
78.3267
78.2787
78.255
77.8937
77.8087
77.2029
76.8431
76.6074
76.923
77.5833
77.4097
77.37
77.3872
77.3649
77.3145
77.2647
77.1879
77.1307
76.696
76.5993
75.97
74.7631
74.6762
74.9762
75.7677
75.7629
75.8599
75.93
75.9243
75.8844
75.8321
75.7264
75.6497
75.1817
75.122
74.5057
73.402
73.3779
73.6608
74.5068
74.5754
74.6555
74.6585
74.5794
74.4816
74.3919
74.2448
74.1624
73.6817
73.652
73.0827
69.1845
69.794
70.7232
71.9162
72.1827
72.449
72.6273
72.799
72.9945
73.1755
73.2834
73.3765
73.0796
73.1684
72.4097
80.8139
79.9955
78.9604
78.0799
75.8228
73.6609
71.8842
70.5909
69.6493
69.1271
68.796
68.834
68.8294
69.6068
70.0077
123.93
123.681
123.498
123.01
122.643
122.008
121.858
121.249
120.757
120.248
120.539
120.058
119.606
120.179
119.885
119.527
119.374
120.102
119.811
119.69
120.327
120.065
119.744
119.677
120.229
119.959
119.662
119.624
120.138
119.832
119.821
120.186
119.919
119.686
119.69
120.047
119.764
119.802
120.047
119.822
119.658
119.699
119.93
119.744
119.6
119.622
119.86
119.671
119.746
119.878
119.742
119.675
119.712
119.888
119.801
119.751
119.774
119.985
119.905
119.976
120.17
120.134
120.145
120.167
120.511
120.507
120.49
120.881
120.851
120.943
120.869
120.466
120.18
120.29
119.341
118.375
119.03
115.146
106.38
107.74
109.356
109.136
108.178
107.286
104.222
105.78
105.521
104.745
103.913
103.589
103.519
102.929
103.169
94.3613
94.5822
96.2975
97.1048
96.3052
95.9729
95.4043
94.3378
94.0003
87.9035
87.6165
87.3043
87.6621
88.2588
87.9792
87.1742
86.1431
84.5751
83.7993
79.9563
79.4942
78.7473
77.9413
77.892
77.9014
76.4546
73.7693
69.3413
70.391
71.1048
71.165
69.9753
68.1925
66.245
64.7534
63.0784
61.6298
61.4067
59.3185
58.453
57.5291
55.9086
53.5788
50.6069
48.2294
46.2524
50.6229
48.0588
45.9456
43.1617
40.026
37.5318
35.6302
34.0086
33.6141
28.98
34.8821
32.5195
31.6425
30.8014
29.0462
26.2943
25.7213
26.954
17.9597
28.1344
26.911
25.5234
27.0488
26.1483
26.4914
26.6007
27.2091
27.6526
27.1012
27.6664
28.0406
27.7517
27.8343
27.7479
27.9436
28.1486
27.9702
28.0996
28.0829
28.2853
28.3776
28.2119
28.4365
28.531
28.46
28.4846
28.3466
28.3787
28.2848
28.2005
28.0539
27.7397
27.6095
27.2775
27.2139
27.0211
26.4831
26.4392
26.01
25.4049
25.0225
24.4159
24.61
24.1449
23.4865
23.0212
22.3031
22.727
22.2212
21.1386
21.6221
20.8684
19.9106
19.317
18.4366
19.3999
18.4997
17.301
16.5913
15.5993
16.8909
15.9577
14.0424
15.2543
13.9821
12.298
11.4427
10.2629
12.1941
10.7259
8.65331
7.61438
6.2673
8.46201
6.96559
3.96278
5.82764
3.87364
1.32135
0.0610309
-0.920188
0.000944846
0.00610282
0.010721
0.0147734
0.00968481
0.00204704
0.00109848
-0.00146303
0.000441129
0.00577376
0.0208207
0.0324131
0.0281373
0.0186745
0.0193919
0.0334986
0.0375893
0.0412633
0.0502913
0.053482
0.0576388
0.064246
0.0656375
0.0658929
0.0641569
0.0606394
0.0582382
0.0587901
0.0653847
0.0803238
0.104412
0.13438
0.167036
0.196755
0.218904
0.230858
0.238159
0.245402
0.237265
0.31927
1.16524
3.42362
4.82242
2.40064
1.23035
0.0972453
-0.581333
-0.51778
1.3144
2.78379
5.80165
8.14769
7.64008
5.03438
2.50598
1.73241
0.879352
-1.36494
-1.4416
-0.473284
-1.03856
-1.09469
-1.19592
-3.41665
-6.09426
-6.64494
-5.4953
-4.00221
-0.171578
3.23517
4.54484
5.43751
5.19215
4.2763
3.02025
1.57949
0.936478
0.580289
1.0516
-0.00202599
0.0107535
0.0210616
0.0252371
0.00696436
-0.00462165
0.00098262
0.00113333
0.0115301
0.0205599
0.0505559
0.0592879
0.0351101
0.0228902
0.0488746
0.0869643
0.0664443
0.0834341
0.103825
0.103503
0.126342
0.133509
0.14567
0.15149
0.153961
0.155884
0.154536
0.156431
0.164652
0.181822
0.20855
0.247726
0.294591
0.34221
0.378696
0.38457
0.358718
0.316617
0.348578
1.02044
3.4112
7.17412
8.4323
4.42334
2.65112
0.627291
0.196089
0.0835424
2.00128
3.55592
7.1264
9.99929
8.98484
4.85558
1.05985
-0.405724
-2.13033
-5.0633
-4.92151
-3.65456
-3.64178
-2.87662
-2.67469
-4.86317
-8.2647
-9.43097
-8.55155
-7.10432
-1.91048
2.72511
5.43012
6.91913
7.04397
5.82846
4.06265
2.49844
1.9291
1.6733
2.38752
0.00393252
0.021096
0.0307332
0.0263089
-0.000183114
-0.00985197
0.0091264
0.0208687
0.0339491
0.0432798
0.0674716
0.0755019
0.0448739
0.0371051
0.0976538
0.140359
0.0963549
0.120342
0.154052
0.166138
0.196323
0.20447
0.23643
0.242967
0.255754
0.272624
0.279064
0.294114
0.32231
0.358976
0.410851
0.481148
0.565783
0.655203
0.738176
0.787787
0.830669
0.911265
1.19169
2.52673
5.82848
9.78022
10.2661
6.05104
3.56053
1.23825
1.43872
1.10457
2.50306
3.76416
7.02865
9.04893
6.55559
0.838078
-3.90795
-5.87655
-7.74464
-9.77204
-9.03064
-7.61217
-6.98449
-5.51053
-4.89227
-6.77262
-10.051
-11.2398
-10.2713
-8.04141
-2.55969
2.59935
6.23729
7.99981
8.33216
7.09424
5.0463
3.2458
2.9223
2.79249
3.69053
0.00411636
0.0323571
0.0400334
0.0225976
-0.0124141
-0.0219421
0.0130319
0.0542279
0.0673595
0.0691621
0.0681231
0.0709919
0.0540259
0.0587854
0.152032
0.199434
0.143768
0.155142
0.212134
0.228333
0.269191
0.285778
0.332055
0.343639
0.380819
0.409516
0.439693
0.476855
0.539916
0.614806
0.709016
0.824511
0.961612
1.11709
1.274
1.40946
1.58802
1.95132
2.65515
4.58103
8.31697
11.5697
11.1684
7.21011
4.19629
1.88846
2.39179
1.97046
2.85194
3.8723
6.57748
7.38179
3.31562
-3.47951
-8.48554
-10.6911
-12.7101
-14.2812
-13.489
-11.9906
-10.652
-8.38073
-7.10174
-8.43413
-11.4778
-12.6823
-11.3847
-8.05966
-2.12073
3.43311
7.47867
9.33974
9.60238
8.391
6.31501
4.30124
3.96515
3.85704
4.85055
-0.00202983
0.0387299
0.0474682
0.0222529
-0.0181555
-0.0292806
0.0185849
0.0976667
0.120453
0.100995
0.0599272
0.0476464
0.0515294
0.0783344
0.200014
0.255397
0.19708
0.189722
0.263616
0.283722
0.333819
0.359955
0.421963
0.436949
0.488059
0.53649
0.593698
0.659093
0.758672
0.878818
1.02091
1.18953
1.38374
1.60748
1.84889
2.08937
2.42095
3.08381
4.23548
6.56046
10.355
12.8301
11.6821
8.0215
4.6676
2.60379
3.03314
2.65825
3.03299
3.82075
5.7444
5.18822
-0.205709
-7.49906
-12.4195
-14.9468
-17.3796
-18.9705
-18.3615
-16.7421
-14.6754
-11.6473
-9.72397
-10.4926
-12.8449
-13.9401
-12.0648
-7.88741
-1.17196
4.61667
8.91407
10.6311
10.5805
9.44317
7.56913
5.42002
5.045
4.93202
6.02934
-0.0123535
0.0355008
0.0469316
0.0199885
-0.0202182
-0.0304553
0.0298598
0.143759
0.187954
0.146198
0.0592197
0.0245701
0.045856
0.095675
0.241372
0.313033
0.261689
0.237365
0.32062
0.342576
0.401782
0.43585
0.515814
0.543999
0.599472
0.665948
0.745058
0.842384
0.978269
1.14344
1.33403
1.55857
1.81195
2.10611
2.44295
2.80468
3.29661
4.20963
5.72996
8.23889
11.7352
13.6809
12.0333
8.56013
5.00525
3.32152
3.52854
3.17349
3.1592
3.67667
4.66343
2.7017
-3.74759
-11.2146
-16.1139
-19.1804
-22.1192
-23.88
-23.5203
-21.7336
-18.9493
-15.1811
-12.5302
-12.7398
-14.2795
-14.8932
-12.6461
-7.52255
0.00454452
5.87192
10.2907
11.6986
11.3248
10.3261
8.73838
6.46778
6.10714
6.01308
7.13079
-0.0238095
0.0242292
0.0368759
0.0117531
-0.0243661
-0.0289569
0.0461507
0.186892
0.254273
0.198579
0.0728133
0.0130287
0.0415153
0.106797
0.267787
0.36739
0.335269
0.298227
0.389028
0.411668
0.477785
0.521236
0.619692
0.672204
0.741533
0.822492
0.919161
1.04632
1.21849
1.42654
1.66374
1.93997
2.25286
2.62376
3.07087
3.57786
4.24751
5.37142
7.13509
9.62024
12.4963
14.0561
12.2473
8.9192
5.33278
3.94381
4.03552
3.57519
3.31071
3.49728
3.45792
0.146015
-7.1482
-14.7143
-19.8349
-23.5949
-26.994
-28.9538
-28.8725
-26.9191
-23.4846
-19.0022
-15.5174
-14.9551
-15.8256
-15.8534
-13.0783
-6.8933
1.14888
7.10657
11.529
12.6433
12.0867
11.2521
9.88535
7.47889
7.14583
7.09428
8.25242
-0.0341008
0.00843725
0.0184759
-0.00356318
-0.033533
-0.026691
0.0663585
0.227246
0.312264
0.251911
0.10345
0.0217207
0.0450467
0.114714
0.279271
0.41156
0.408608
0.364041
0.463743
0.490151
0.55884
0.611501
0.726224
0.805145
0.901446
1.00345
1.11895
1.27246
1.47771
1.72385
2.0036
2.32493
2.69394
3.1414
3.70345
4.36872
5.21635
6.4984
8.3574
10.6517
12.7958
14.0284
12.3618
9.18811
5.74897
4.53278
4.58179
3.85716
3.45676
3.23122
2.11337
-2.43914
-10.4405
-18.1908
-23.7882
-28.3008
-32.0739
-34.2074
-34.3835
-32.2803
-28.2728
-23.1028
-18.7306
-17.1278
-17.3199
-16.9198
-13.2755
-6.18467
2.17991
8.36208
12.7399
13.6475
13.0361
12.3397
11.054
8.50657
8.16482
8.15815
9.36885
-0.0414912
-0.00835632
-0.00534515
-0.0262336
-0.0495137
-0.0263873
0.0868602
0.262904
0.359194
0.301398
0.14828
0.0532799
0.0628755
0.126587
0.28722
0.449779
0.47891
0.431854
0.541681
0.577144
0.647833
0.707084
0.832374
0.934213
1.05964
1.19154
1.33284
1.5126
1.74817
2.02755
2.34518
2.70692
3.12403
3.63587
4.2978
5.10928
6.10607
7.46689
9.28044
11.2925
12.9079
13.8123
12.4147
9.38842
6.24457
5.18258
5.09296
4.03699
3.5281
2.80297
0.591117
-5.09611
-13.7412
-21.8342
-28.1051
-33.355
-37.4166
-39.6692
-40.0432
-37.8093
-33.2957
-27.4599
-22.202
-19.5116
-18.7543
-17.8604
-13.318
-5.51904
3.18696
9.67964
13.9608
14.7639
14.2278
13.6014
12.2435
9.55433
9.15822
9.19653
10.4063
-0.0445833
-0.0226826
-0.0302021
-0.0537652
-0.0708352
-0.0293084
0.103999
0.290248
0.392337
0.34208
0.198642
0.101692
0.0952604
0.145642
0.300026
0.488572
0.547608
0.503765
0.623717
0.673483
0.749552
0.816303
0.946223
1.06674
1.21605
1.37912
1.55437
1.76497
2.03307
2.34522
2.69897
3.09972
3.55727
4.11571
4.84912
5.77668
6.88735
8.25703
9.93363
11.6332
12.9788
13.5676
12.4252
9.54471
6.77742
5.88145
5.54246
4.2025
3.52205
2.21057
-1.079
-7.83126
-17.1365
-25.7434
-32.7972
-38.727
-43.0183
-45.3396
-45.8407
-43.4931
-38.5257
-32.0305
-25.873
-22.0975
-20.2809
-18.5048
-13.3884
-4.90612
4.27273
11.0477
15.1908
15.982
15.6167
14.9846
13.4342
10.5966
10.1132
10.1909
11.4523
-0.0429706
-0.0321943
-0.0523333
-0.0819043
-0.0935247
-0.0337432
0.117792
0.309578
0.412549
0.371472
0.245471
0.155709
0.136425
0.170684
0.31977
0.529301
0.614158
0.579876
0.709825
0.777471
0.865036
0.944251
1.07794
1.214
1.38206
1.57191
1.78415
2.03329
2.34046
2.69031
3.08311
3.52611
4.02461
4.61896
5.39558
6.40431
7.60694
8.95602
10.4567
11.8801
13.0368
13.3797
12.4051
9.67326
7.30414
6.56457
5.94142
4.40875
3.4916
1.5178
-2.81933
-10.6134
-20.6627
-29.9318
-37.7914
-44.3348
-48.8378
-51.2011
-51.7664
-49.3197
-43.9393
-36.7851
-29.6915
-24.7791
-21.9432
-19.0227
-13.4067
-4.1943
5.4947
12.4798
16.4708
17.3184
17.0987
16.4084
14.6089
11.6141
11.019
11.1295
12.4786
-0.0373023
-0.0362243
-0.0697594
-0.107268
-0.114273
-0.0375642
0.129862
0.324254
0.425469
0.392826
0.285831
0.207314
0.179763
0.198862
0.344706
0.570796
0.676756
0.656346
0.798183
0.884215
0.989998
1.08777
1.22913
1.38085
1.56594
1.77826
2.02502
2.31825
2.67146
3.06651
3.50505
3.99912
4.55091
5.18616
5.98816
7.0429
8.32045
9.6473
10.9623
12.2128
13.1186
13.2693
12.3545
9.80736
7.78893
7.16276
6.3324
4.682
3.47598
0.790138
-4.56978
-13.4281
-24.3395
-34.3741
-42.9975
-50.0964
-54.827
-57.2277
-57.8106
-55.2758
-49.5153
-41.7062
-33.6408
-27.4914
-23.5397
-19.4388
-13.2093
-3.18129
6.78432
14.0188
17.8208
18.7241
18.5828
17.8052
15.751
12.5959
11.8733
12.0205
13.425
-0.0286858
-0.0352714
-0.081992
-0.12809
-0.131364
-0.0397364
0.140957
0.336941
0.436694
0.411804
0.321846
0.254686
0.22228
0.229034
0.373531
0.612955
0.734737
0.729584
0.886276
0.989997
1.11792
1.2397
1.39399
1.56386
1.76706
1.99995
2.27751
2.61487
3.01828
3.46496
3.95719
4.51473
5.14155
5.83804
6.66128
7.72501
9.04514
10.3427
11.4566
12.5543
13.2338
13.208
12.2811
9.97033
8.19171
7.62703
6.7527
5.01336
3.47706
0.0532545
-6.32472
-16.3065
-28.1934
-39.038
-48.344
-55.949
-60.9387
-63.3873
-63.9603
-61.3441
-55.2309
-46.7789
-37.7219
-30.2346
-24.9696
-19.8247
-12.844
-2.09697
7.99217
15.711
19.1819
20.0814
20.0011
19.1137
16.8405
13.5409
12.6862
12.8675
14.351
-0.0183861
-0.0304182
-0.089446
-0.143788
-0.144071
-0.0401247
0.151028
0.348765
0.449292
0.432669
0.357198
0.299666
0.264129
0.261984
0.40704
0.657413
0.789347
0.798891
0.972572
1.09421
1.24524
1.39426
1.56604
1.75648
1.97918
2.23246
2.53768
2.91614
3.37046
3.87198
4.42438
5.05679
5.78275
6.56975
7.42165
8.45672
9.76183
10.9984
11.94
12.828
13.3772
13.1857
12.2104
10.2046
8.55269
8.0052
7.1801
5.3693
3.46021
-0.707241
-8.1261
-19.3119
-32.2537
-43.8916
-53.78
-61.8454
-67.1268
-69.6434
-70.1968
-67.5028
-61.0606
-51.9853
-41.94
-33.0613
-26.2948
-20.1636
-12.4141
-1.17885
8.93967
17.4535
20.4591
21.3109
21.2668
20.2839
17.8641
14.4658
13.4727
13.6781
15.2003
-0.0077701
-0.0229819
-0.0929649
-0.15456
-0.152287
-0.0390494
0.159781
0.359763
0.463913
0.457008
0.394566
0.344903
0.306944
0.299579
0.44751
0.706653
0.84353
0.866566
1.0573
1.19804
1.3726
1.54948
1.74221
1.95471
2.19709
2.47109
2.80133
3.21738
3.72135
4.27719
4.89272
5.60641
6.44943
7.35636
8.25126
9.22516
10.4392
11.5609
12.4037
13.0409
13.5172
13.2088
12.1658
10.471
8.95889
8.37127
7.58549
5.70694
3.38078
-1.52779
-10.0337
-22.5061
-36.5331
-48.8981
-59.2645
-67.747
-73.3464
-75.9586
-76.4961
-73.7264
-66.9773
-57.3026
-46.2889
-36.0231
-27.7016
-20.3626
-11.8767
-0.30936
9.78579
19.0154
21.6161
22.4275
22.3195
21.2919
18.8074
15.3816
14.2516
14.4599
16.038
0.00189696
-0.0143436
-0.0935031
-0.160922
-0.156331
-0.0367534
0.167124
0.369763
0.479851
0.484182
0.434466
0.391579
0.352241
0.343711
0.497036
0.7629
0.901001
0.93656
1.14276
1.30363
1.50239
1.70649
1.92262
2.15889
2.42017
2.71477
3.06832
3.51821
4.07066
4.67788
5.35446
6.1489
7.11497
8.16206
9.11619
10.0088
11.0618
12.0172
12.7447
13.2187
13.6286
13.2694
12.1608
10.722
9.42905
8.76304
7.96785
5.99473
3.21944
-2.44395
-12.0992
-25.9203
-41.0124
-54.0109
-64.7604
-73.6221
-79.5581
-82.2974
-82.8313
-79.9884
-72.9535
-62.7055
-50.7484
-39.1112
-29.1972
-20.3833
-11.1106
0.736246
10.9289
20.3211
22.6566
23.49
23.1881
22.1565
19.6661
16.2846
15.0346
15.2165
16.8435
0.00975356
-0.00581971
-0.0920789
-0.163532
-0.156867
-0.0333979
0.173296
0.378888
0.4965
0.512991
0.475866
0.439049
0.400343
0.395348
0.556491
0.827267
0.965003
1.01282
1.23263
1.41385
1.63796
1.86813
2.109
2.37149
2.65125
2.96572
3.3419
3.82289
4.42305
5.07992
5.81053
6.67778
7.75947
8.95034
9.97496
10.7796
11.6344
12.4338
12.9703
13.3556
13.7118
13.3513
12.2013
10.9386
9.91812
9.18426
8.29941
6.226
2.98255
-3.47411
-14.3481
-29.544
-45.6403
-59.1749
-70.2351
-79.4472
-85.73
-88.6282
-89.1746
-86.2623
-78.9629
-68.1701
-55.2975
-42.3043
-30.7528
-20.3251
-10.1564
1.95724
12.4887
21.3502
23.6878
24.4819
23.9302
22.9523
20.4621
17.1635
15.8165
15.956
17.5837
0.0156418
0.00180695
-0.0894578
-0.163082
-0.154755
-0.0293645
0.178527
0.38731
0.513674
0.54279
0.517575
0.486006
0.45032
0.453972
0.625293
0.899501
1.03699
1.09811
1.33001
1.53113
1.78256
2.03748
2.30358
2.59511
2.89402
3.22798
3.62659
4.13839
4.78567
5.49462
6.27197
7.19713
8.3745
9.69348
10.7868
11.5039
12.1516
12.8116
13.1526
13.4643
13.7814
13.4435
12.2632
11.1601
10.3983
9.66309
8.59008
6.41368
2.68506
-4.61758
-16.7742
-33.3319
-50.3463
-64.3358
-75.6643
-85.2074
-91.8382
-94.9234
-95.499
-92.5225
-84.98
-73.6733
-59.9181
-45.5893
-32.3761
-20.3343
-9.1266
3.15081
14.0937
21.9543
24.7751
25.3091
24.5369
23.7106
21.2077
18.0089
16.5842
16.675
18.3141
0.0200707
0.00857884
-0.0857261
-0.159908
-0.150533
-0.0250582
0.182904
0.395102
0.53127
0.573505
0.559111
0.531565
0.500728
0.517815
0.701685
0.978282
1.11659
1.19343
1.43644
1.65693
1.93789
2.21676
2.50812
2.83143
3.15111
3.5053
3.92695
4.47197
5.16729
5.9342
6.75602
7.72118
8.96419
10.3781
11.5225
12.1567
12.6184
13.1294
13.3317
13.57
13.8633
13.5445
12.3409
11.3876
10.8646
10.2379
8.8913
6.5798
2.33935
-5.86184
-19.3468
-37.2205
-55.0587
-69.4492
-81.0344
-90.8944
-97.8652
-101.159
-101.779
-98.7445
-90.9802
-79.1931
-64.5949
-48.9619
-34.0668
-20.385
-8.01185
4.30711
15.5145
22.1567
25.8047
25.9039
24.9914
24.3991
21.8968
18.816
17.3276
17.3681
19.0235
0.023789
0.0150922
-0.0803812
-0.153861
-0.144113
-0.0203934
0.186676
0.402435
0.549202
0.605315
0.600859
0.575876
0.550621
0.584815
0.783294
1.06148
1.20241
1.29814
1.55186
1.79211
2.10337
2.40669
2.72372
3.08026
3.42338
3.79931
4.24608
4.82917
5.57749
6.40955
7.28026
8.27001
9.5427
11.0062
12.1689
12.7136
13.0382
13.4259
13.5128
13.6706
13.9557
13.6694
12.4919
11.6436
11.291
10.8775
9.23935
6.73867
1.95827
-7.19014
-22.0247
-41.1455
-59.718
-74.4865
-86.3406
-96.5036
-103.798
-107.314
-107.991
-104.905
-96.94
-84.7075
-69.3132
-52.4236
-35.8391
-20.4282
-6.78362
5.53328
16.6458
22.3175
26.6853
26.2639
25.3454
25.0052
22.5361
19.5809
18.0414
18.0437
19.6855
0.0272915
0.0219139
-0.0728428
-0.144551
-0.134953
-0.0146006
0.190493
0.40966
0.567409
0.638362
0.643663
0.62015
0.600347
0.653699
0.867966
1.147
1.29319
1.41041
1.67503
1.93696
2.2778
2.60658
2.95111
3.33967
3.71056
4.10965
4.58445
5.21201
6.02346
6.93013
7.85801
8.86201
10.1286
11.5914
12.7249
13.1654
13.4073
13.7327
13.7095
13.747
14.0269
13.8133
12.7415
11.9676
11.6908
11.5041
9.62415
6.90048
1.5545
-8.58571
-24.7671
-45.0524
-64.2829
-79.4332
-91.5827
-102.031
-109.624
-113.369
-114.113
-110.983
-102.837
-90.1942
-74.0568
-55.9767
-37.7296
-20.4953
-5.4921
6.91929
17.5592
22.8004
27.4046
26.5579
25.715
25.548
23.136
20.2973
18.7226
18.7045
20.3259
0.0305719
0.0291646
-0.0628989
-0.131667
-0.122372
-0.00642218
0.195424
0.417248
0.585727
0.672363
0.688064
0.666063
0.651471
0.724208
0.954208
1.23364
1.38821
1.52812
1.80486
2.09078
2.46034
2.81534
3.19069
3.60837
4.01141
4.43508
4.94051
5.61872
6.50622
7.50124
8.49476
9.50663
10.7341
12.1446
13.1978
13.5674
13.754
14.0431
13.9329
13.7981
14.081
13.944
13.0335
12.3571
12.0922
12.0661
10.0169
7.06622
1.13321
-10.0328
-27.5392
-48.9017
-68.7307
-84.2851
-96.7607
-107.473
-115.335
-119.307
-120.125
-116.958
-108.65
-95.6315
-78.8072
-59.6194
-39.7873
-20.7169
-4.30007
8.34215
18.4436
23.6915
28.0285
27.0853
26.196
26.0402
23.7028
20.9601
19.3689
19.3458
20.9239
0.0332022
0.0364625
-0.0508779
-0.115218
-0.105751
0.00560598
0.20295
0.425892
0.604009
0.706459
0.733788
0.715097
0.706278
0.796852
1.04107
1.32115
1.48732
1.64978
1.94061
2.25178
2.65016
3.03226
3.44185
3.88762
4.32411
4.7746
5.31232
6.0454
7.02014
8.11943
9.18583
10.1989
11.3592
12.6672
13.5922
13.922
14.0687
14.3206
14.1924
13.863
14.1624
14.0436
13.3145
12.7573
12.5125
12.5423
10.3863
7.21978
0.689247
-11.518
-30.3138
-52.6688
-73.0537
-89.0422
-101.871
-112.82
-120.92
-125.112
-126.011
-122.815
-114.361
-100.998
-83.543
-63.3388
-42.0434
-21.2271
-3.30949
9.61552
19.3077
24.6884
28.4315
27.909
26.7197
26.4919
24.248
21.5658
19.9814
19.9648
21.5044
0.0345576
0.0430623
-0.0375866
-0.095639
-0.084748
0.0227799
0.214795
0.43673
0.622438
0.739531
0.779721
0.767898
0.767064
0.87296
1.12811
1.40963
1.59028
1.7748
2.08177
2.41913
2.84628
3.25705
3.70303
4.17957
4.64835
5.12829
5.69883
6.48807
7.55576
8.77125
9.91536
10.9193
11.9872
13.1509
13.9476
14.236
14.3391
14.5529
14.4571
13.9764
14.2745
14.1381
13.5976
13.1473
12.9732
12.9448
10.7072
7.34138
0.213449
-13.0307
-33.0718
-56.3424
-77.2539
-93.7055
-106.906
-118.065
-126.369
-130.769
-131.756
-128.538
-119.952
-106.275
-88.2415
-67.1111
-44.4873
-22.0479
-2.54906
10.7428
20.0874
25.5282
28.4824
28.7574
27.1408
26.9253
24.7791
22.12
20.5682
20.5599
22.0621
0.0340636
0.0480833
-0.0241223
-0.0738357
-0.0595377
0.0458509
0.232552
0.451425
0.641886
0.770948
0.82429
0.823636
0.834905
0.954615
1.21647
1.49965
1.69608
1.90352
2.22804
2.59218
3.04761
3.48966
3.97356
4.48487
4.98544
5.49734
6.1003
6.94394
8.10315
9.43658
10.6569
11.6371
12.5845
13.5742
14.2745
14.5044
14.5701
14.744
14.6394
14.1441
14.3636
14.2813
13.9114
13.5064
13.4632
13.3091
10.9691
7.42213
-0.298116
-14.5624
-35.8006
-59.9205
-81.3377
-98.2727
-111.854
-123.197
-131.672
-136.268
-137.348
-134.115
-125.411
-111.445
-92.8807
-70.9095
-47.0929
-23.1838
-2.0922
11.8277
20.7199
26.146
28.2573
29.3404
27.4
27.4293
25.3018
22.637
21.1412
21.1357
22.5874
0.0314527
0.050805
-0.0116248
-0.0511361
-0.0309922
0.074684
0.257156
0.471805
0.664068
0.801345
0.866538
0.880349
0.908504
1.04293
1.30876
1.59293
1.80434
2.03614
2.37935
2.77094
3.25384
3.72995
4.25421
4.80388
5.33771
5.88275
6.51801
7.41142
8.65317
10.093
11.3774
12.3158
13.117
13.9402
14.5572
14.7225
14.7656
14.9175
14.6828
14.3665
14.3812
14.5469
14.2592
13.8538
13.925
13.6493
11.1923
7.46301
-0.84065
-16.1042
-38.4925
-63.4059
-85.3105
-102.737
-116.7
-128.204
-136.822
-141.597
-142.775
-139.535
-130.724
-116.491
-97.4406
-74.7083
-49.8264
-24.621
-2.06402
12.8273
21.2049
26.5082
27.8447
29.6184
27.5594
28.0523
25.8132
23.1464
21.7073
21.6875
23.0949
0.0269384
0.0509831
-0.000962164
-0.0289469
-0.000575651
0.108142
0.288396
0.498982
0.690918
0.832633
0.907295
0.936804
0.985176
1.13639
1.40624
1.69131
1.91685
2.17345
2.53635
2.95577
3.46567
3.97859
4.54645
5.13847
5.70907
6.28693
6.95345
7.8888
9.19725
10.7204
12.0457
12.9171
13.555
14.2449
14.7903
14.8908
14.9256
15.0783
14.7555
14.6036
14.3925
14.8908
14.611
14.2096
14.3402
13.9537
11.4154
7.47711
-1.40236
-17.6461
-41.1417
-66.8018
-89.1735
-107.087
-121.427
-133.076
-141.811
-146.749
-148.027
-144.788
-135.88
-121.398
-101.904
-78.4851
-52.6545
-26.32
-2.53093
13.5523
21.6067
26.6672
27.4823
29.7478
27.7196
28.7438
26.313
23.6757
22.261
22.2054
23.577
0.0211891
0.0490486
0.0076131
-0.00818801
0.0302138
0.144495
0.32487
0.532632
0.723396
0.866862
0.94881
0.993769
1.06343
1.23254
1.50776
1.7948
2.03532
2.3165
2.70011
3.14733
3.68443
4.23736
4.85249
5.49152
6.10395
6.71441
7.40726
8.37212
9.72585
11.3016
12.6355
13.4153
13.91
14.4935
14.9806
15.0248
15.0555
15.2241
15.0432
14.6264
14.5757
15.1428
14.931
14.6296
14.7829
14.2332
11.6637
7.4888
-1.96829
-19.1765
-43.7413
-70.1082
-92.9223
-111.306
-126.019
-137.804
-146.632
-151.714
-153.094
-149.863
-140.868
-126.153
-106.256
-82.2215
-55.5496
-28.2341
-3.40649
13.9042
21.8807
26.7051
27.5646
30.0305
28.1591
29.3971
26.7992
24.2316
22.7847
22.687
24.017
0.015065
0.0459808
0.0145956
0.0110729
0.0605212
0.182205
0.364685
0.571243
0.761012
0.905002
0.993063
1.05293
1.14358
1.33032
1.61195
1.90247
2.16003
2.46615
2.87168
3.34682
3.9122
4.50876
5.17541
5.86639
6.52571
7.16819
7.87768
8.85376
10.2272
11.8211
13.1261
13.8054
14.1885
14.6947
15.1371
15.1361
15.1564
15.3518
15.4728
14.531
14.7107
15.2104
15.129
15.1214
15.3116
14.5105
11.9406
7.51678
-2.52332
-20.6817
-46.2823
-73.3206
-96.5474
-115.377
-130.458
-142.379
-151.279
-156.486
-157.967
-154.751
-145.676
-130.741
-110.481
-85.9004
-58.4856
-30.3236
-4.5962
13.8347
21.9489
26.72
28.1101
30.5538
29.1186
29.8548
27.2308
24.7783
23.2563
23.1273
24.4209
0.00927731
0.042898
0.0209493
0.0294708
0.0903348
0.220459
0.40634
0.613078
0.802508
0.946939
1.0409
1.11541
1.22631
1.42984
1.71838
2.01404
2.29073
2.62287
3.05203
3.5559
4.15169
4.7955
5.5188
6.26615
6.97588
7.64714
8.35868
9.32143
10.6843
12.2603
13.5121
14.125
14.4171
14.8554
15.262
15.2351
15.225
15.4124
15.8586
14.6642
14.5499
15.3358
15.1552
15.5424
15.8337
14.791
12.231
7.5635
-3.05446
-22.1469
-48.7522
-76.4294
-100.036
-119.283
-134.728
-146.79
-155.745
-161.055
-162.635
-159.443
-150.294
-135.15
-114.565
-89.5038
-61.4352
-32.5416
-6.08387
13.2473
21.8352
26.7052
28.8873
31.1062
30.2779
30.0559
27.5645
25.2376
23.6561
23.5232
24.793
0.00419921
0.0406631
0.0276503
0.0479045
0.120172
0.259116
0.449053
0.656883
0.846717
0.992204
1.09251
1.18169
1.31198
1.53144
1.82745
2.13037
2.42753
2.78691
3.24226
3.77671
4.40577
5.10027
5.88523
6.69196
7.45257
8.14498
8.83927
9.75911
11.0764
12.6038
13.8051
14.3806
14.6157
14.9847
15.365
15.339
15.2668
15.3836
16.1026
15.0902
14.4088
15.5935
15.0837
15.6801
16.2036
15.0674
12.52
7.62339
-3.55118
-23.5564
-51.1351
-79.4207
-103.373
-123.005
-138.814
-151.03
-160.023
-165.415
-167.089
-163.929
-154.712
-139.367
-118.486
-93.0091
-64.3694
-34.8309
-7.80925
12.073
21.5835
26.6301
29.7513
31.5635
31.2105
30.0893
27.8376
25.568
23.9747
23.8768
25.1373
-9.25028e-05
0.0397621
0.0354347
0.067179
0.150673
0.298394
0.492595
0.702023
0.892908
1.04044
1.14805
1.25211
1.40089
1.63555
1.94013
2.25314
2.57143
2.95909
3.44366
4.01139
4.67704
5.42512
6.27419
7.14106
7.94842
8.64965
9.3039
10.1475
11.3819
12.85
14.0366
14.5963
14.7926
15.0892
15.4534
15.4496
15.3075
15.2731
16.1677
15.567
14.5229
15.9814
15.881
15.7228
16.4118
15.2968
12.7982
7.69628
-4.00387
-24.8939
-53.4126
-82.2779
-106.544
-126.528
-142.702
-155.088
-164.106
-169.557
-171.319
-168.201
-158.924
-143.382
-122.224
-96.3859
-67.2564
-37.1399
-9.65043
10.4974
21.2069
26.5988
30.5126
31.7517
31.7459
30.0595
28.1088
25.7832
24.2177
24.188
25.4439
-0.00364433
0.040423
0.0448101
0.0878849
0.182401
0.338645
0.537071
0.748367
0.940811
1.09153
1.20779
1.32719
1.49371
1.74307
2.05786
2.38415
2.72439
3.14107
3.65753
4.26135
4.96705
5.76998
6.68118
7.605
8.44986
9.1438
9.73272
10.4651
11.5916
13.0182
14.2202
14.7957
14.9633
15.1845
15.5322
15.5802
15.4072
15.1032
16.0137
15.9555
14.7845
15.116
17.9986
15.5758
16.4659
15.4137
13.0671
7.79007
-4.4022
-26.1424
-55.5644
-84.9829
-109.534
-129.839
-146.379
-158.955
-167.987
-173.471
-175.314
-172.252
-162.925
-147.186
-125.759
-99.5999
-70.0604
-39.4277
-11.4951
8.90394
20.6624
26.6468
31.0682
31.5703
31.9253
30.0155
28.3824
25.8996
24.3953
24.4602
25.704
-0.00646735
0.0427547
0.0561564
0.110487
0.215861
0.380313
0.582842
0.796142
0.990545
1.14566
1.27217
1.40766
1.59157
1.85558
2.1824
2.52504
2.88888
3.33483
3.88475
4.52649
5.2748
6.13111
7.09762
8.06958
8.93804
9.60452
10.1012
10.6993
11.7252
13.1312
14.3664
14.9842
15.1272
15.2742
15.5991
15.7117
15.5624
14.9954
15.6455
16.2102
15.441
13.8133
21.1305
16.0001
16.4388
15.461
13.3313
7.91872
-4.73437
-27.284
-57.5691
-87.5166
-112.33
-132.929
-149.833
-162.619
-171.657
-177.15
-179.066
-176.076
-166.716
-150.78
-129.08
-102.622
-72.7416
-41.6584
-13.282
7.44711
19.8602
26.7377
31.3942
31.1718
31.9274
29.8963
28.6107
25.9096
24.5076
24.6928
25.9209
-0.00845497
0.0468158
0.0698064
0.135459
0.251606
0.423987
0.630524
0.84586
1.04261
1.20334
1.34176
1.49426
1.69583
1.97506
2.31578
2.6773
3.06674
3.5418
4.12505
4.80465
5.59558
6.50023
7.51073
8.5158
9.38785
10.0029
10.3914
10.867
11.8123
13.201
14.4843
15.1528
15.2826
15.3652
15.6343
15.7996
15.7773
15.091
15.1076
16.0969
16.6591
15.374
7.37055
18.268
16.9099
15.789
13.6248
8.10039
-4.9865
-28.2993
-59.4048
-89.8604
-114.919
-135.789
-153.053
-166.071
-175.109
-180.585
-182.562
-179.665
-170.299
-154.172
-132.189
-105.438
-75.2635
-43.7978
-14.9821
6.09721
18.8564
26.9136
31.5306
30.7765
31.9166
29.6572
28.7308
25.7852
24.5479
24.8819
26.1007
-0.00935469
0.0526318
0.0860861
0.16332
0.290266
0.470393
0.680961
0.89838
1.09792
1.26546
1.41729
1.58759
1.80757
2.10326
2.45975
2.84196
3.25842
3.76192
4.37617
5.09094
5.92061
6.86402
7.90185
8.91755
9.76799
10.3177
10.6156
10.9991
11.8701
13.2446
14.5716
15.293
15.4364
15.4532
15.6022
15.8155
15.9823
15.4024
14.7576
15.7467
17.3549
17.0094
16.6581
19.6347
17.7751
16.5888
14.0132
8.35674
-5.14289
-29.1682
-61.0504
-91.9961
-117.292
-138.414
-156.03
-169.298
-178.337
-183.769
-185.793
-183.01
-173.675
-157.376
-135.098
-108.053
-77.5991
-45.8072
-16.5647
4.90694
17.8637
27.1367
31.6146
30.6018
31.9494
29.4082
28.6278
25.4933
24.5205
25.0259
26.2408
-0.0087506
0.0601811
0.105319
0.194575
0.332474
0.520306
0.735116
0.954874
1.15776
1.33316
1.49944
1.6881
1.92736
2.24102
2.6151
3.01895
3.46245
3.99264
4.63302
5.37674
6.2359
7.20228
8.24387
9.24335
10.0571
10.5573
10.7996
11.1123
11.9228
13.2694
14.6206
15.3977
15.5782
15.5242
15.5296
15.7371
16.033
15.8202
14.9238
15.3283
17.0719
16.7787
22.8183
17.5925
18.3402
17.3301
14.5131
8.70516
-5.18687
-29.8707
-62.4858
-93.9067
-119.437
-140.798
-158.755
-172.288
-181.333
-186.695
-188.744
-186.097
-176.836
-160.392
-137.823
-110.475
-79.7332
-47.6459
-17.9994
3.93843
17.0896
27.2683
31.6588
30.6836
31.9017
29.158
28.0913
25.0034
24.4141
25.1195
26.3366
-0.00605559
0.0693814
0.127788
0.229625
0.378763
0.574421
0.793888
1.01654
1.22344
1.4075
1.58873
1.79594
2.05504
2.3878
2.78075
3.20613
3.67477
4.22767
4.88621
5.64765
6.52018
7.48715
8.50721
9.47521
10.2628
10.7428
10.9566
11.233
11.9867
13.2773
14.6295
15.4617
15.692
15.611
15.5082
15.5917
15.8981
16.1575
15.5649
15.0549
15.7434
17.3008
15.2644
14.9904
17.864
17.4677
15.0525
9.14424
-5.10214
-30.3877
-63.6925
-95.5768
-121.345
-142.938
-161.222
-175.028
-184.089
-189.357
-191.403
-188.907
-179.764
-163.207
-140.372
-112.705
-81.6582
-49.2759
-19.2502
3.21972
16.6295
27.2234
31.6216
30.9004
31.6666
28.7957
27.1014
24.319
24.1986