/*--------------------------------*- C++ -*----------------------------------*\
| =========                 |                                                 |
| \\      /  F ield         | OpenFOAM: The Open Source CFD Toolbox           |
|  \\    /   O peration     | Version:  4.1                                   |
|   \\  /    A nd           | Web:      www.OpenFOAM.org                      |
|    \\/     M anipulation  |                                                 |
\*---------------------------------------------------------------------------*/
FoamFile
{
    version     2.0;
    format      ascii;
    class       surfaceScalarField;
    location    "5";
    object      phi;
}
// * * * * * * * * * * * * * * * * * * * * * * * * * * * * * * * * * * * * * //

dimensions      [0 3 -1 0 0 0 0];

internalField   nonuniform List<scalar> 
13220
(
-906.851
2206.75
-1504.65
1897.99
-1985.09
1780.34
-2354.93
1669.74
-2630.31
1575.57
-2818.77
1488.36
-2923.59
1404.72
-2944.58
1321.19
-2880.41
1235.73
-2727.97
1147.46
-2482.59
1054.82
-2127.58
944.887
-1627.01
799.325
-956.118
629.308
343.782
423.673
1783.07
466.642
1855.01
450.308
1796.66
410.713
1709.32
378.244
1608.03
352.17
1514.42
332.94
1423.94
321.252
1332.86
313.85
1243.12
304.601
1156.69
285.346
1074.07
242.292
987.925
165.815
875.785
88.5078
706.598
432.289
181.822
1601.24
21.4522
2015.37
-139.868
1957.97
-258.523
1827.97
-362.645
1712.14
-459.595
1611.36
-546.61
1510.94
-624.052
1410.29
-690.139
1309.19
-742.428
1208.97
-776.583
1108.21
-773.938
985.254
-684.187
785.997
-432.598
454.965
-0.309224
215.331
1385.9
135.294
2095.4
1.68495
2091.57
-93.0337
1922.67
-168.732
1787.83
-228.611
1671.23
-268.337
1550.65
-288.095
1430.04
-290.004
1311.08
-274.619
1193.57
-240.674
1074.25
-183.31
927.875
-100.624
703.291
-9.49927
363.815
-9.80891
281.809
1104.08
349.259
2027.94
327.299
2113.52
307.385
1942.58
298.033
1797.17
294.361
1674.89
294.274
1550.73
298.033
1426.27
304.392
1304.72
311.45
1186.5
318.634
1067.06
320.255
926.229
296.821
726.7
215.865
444.743
206.056
252.506
851.57
365.302
1915.14
376.255
2102.56
355.636
1963.19
339.029
1813.77
326.899
1687.02
314.57
1563.06
299.567
1441.27
282.93
1321.35
264.889
1204.55
244.04
1087.91
218.359
951.934
177.358
767.727
108.89
513.237
314.946
135.626
715.941
220.118
1830.65
243.431
2079.25
218.985
1987.64
194.308
1838.45
174.163
1707.16
155.443
1581.78
137.278
1459.44
119.564
1339.07
103.771
1220.34
89.772
1101.92
77.4405
964.242
63.1725
781.974
45.4075
530.982
360.354
36.6861
679.255
86.6881
1780.65
126.087
2039.85
115.851
1997.88
101.4
1852.91
90.8579
1717.71
80.2255
1592.42
70.3558
1469.31
61.651
1347.78
53.0351
1228.96
45.2122
1109.74
40.8273
968.662
36.1113
786.724
30.013
537.113
390.367
12.8077
666.448
53.8225
1739.63
99.9922
1993.68
102.111
1995.76
94.5136
1860.5
88.0268
1724.19
81.5412
1598.9
74.0309
1476.82
66.5828
1355.23
58.8078
1236.73
50.0268
1118.52
45.2636
973.399
41.3198
790.644
30.7375
547.674
421.105
37.2076
629.247
89.2974
1687.55
132.058
1950.93
135.582
1992.24
125.885
1870.2
114.253
1735.83
103.043
1610.11
92.2676
1487.6
80.7608
1366.74
69.4821
1248.02
58.5707
1129.44
51.7725
980.232
46.0489
796.401
31.3932
562.361
452.498
64.4466
564.811
129.255
1622.75
167.292
1912.9
168.917
1990.62
154.956
1884.18
139.694
1751.1
124.429
1625.39
110.095
1501.95
96.2196
1380.63
82.1567
1262.09
69.2159
1142.39
61.5082
987.938
53.2318
804.682
33.2027
582.395
485.701
67.4641
497.36
134.81
1555.41
163.766
1883.95
160.335
1994.06
138.341
1906.18
115.871
1773.58
97.5601
1643.72
81.2929
1518.23
67.2916
1394.64
55.6109
1273.79
44.7226
1153.29
39.1735
993.523
34.2852
809.605
21.4538
595.259
507.155
60.749
436.625
132.613
1483.56
171.13
1845.45
182.634
1982.57
182.229
1906.6
175.361
1780.46
164.977
1654.11
152.005
1531.21
135.367
1411.29
118.02
1291.15
103.247
1168.07
90.2853
1006.49
73.2218
826.678
32.5791
635.91
539.734
-23.3622
459.997
-44.9451
1505.14
-64.2591
1864.77
-107.583
2025.89
-156.13
1955.15
-195.633
1819.97
-215.477
1673.96
-219.954
1535.69
-212.807
1404.15
-200.453
1278.8
-178.991
1146.61
-146.76
974.265
-105.566
785.487
-60.7708
591.118
478.963
-235.423
80.7595
405.429
685.345
790.146
791.184
688.261
556.244
402.751
270.051
150.206
55.2606
-3.56923
-50.3788
-0.000671821
718.425
-718.427
718.424
718.423
718.422
1128.78
-410.354
1128.77
1128.77
1128.77
1310.89
-182.119
1310.89
1310.89
1409.58
-98.6899
1409.58
1409.58
1409.57
1439.48
-29.9104
1439.48
1439.48
1450.93
-11.4519
1450.93
1450.93
1450.93
1464.65
-13.7186
1464.65
1464.65
1464.65
1456.18
8.46454
1456.18
1456.18
1415.78
40.3989
1415.78
1415.78
1415.78
1348.76
67.0186
1348.76
1348.76
1256.86
91.8943
1256.86
1256.86
1256.86
1146.75
110.104
1146.75
1146.75
1146.75
1026.3
120.455
1026.29
1026.29
895.676
130.616
895.675
895.674
895.673
755.644
140.029
755.642
755.642
755.64
623.073
132.567
623.071
623.07
507.542
115.527
507.541
507.539
507.539
354.002
153.534
354.001
353.999
128.597
225.401
128.594
128.594
128.591
-551.433
680.024
-551.436
-551.436
-551.439
-1797.67
1246.23
-1797.67
-1797.67
-3543.35
1745.68
-3543.34
-3543.35
-3476.57
-3397.47
-3314.37
-5421.44
2190.06
-5329.9
-5227.75
-5109.99
-4988.15
-4866.18
-4745.07
-4611.73
-4459.86
-6928.23
2621.23
-6756.81
-6594.04
-6432.91
-6238.95
-6040.52
-5840.75
-5636.6
-5430.87
-8138.58
2927.07
-7899.58
-7660.29
-7421.12
-7182.33
-6935.34
-6673.83
-6409.28
-6140.32
-5870.7
-8645.39
3038.57
-8356.8
-8065.78
-7772.87
-7480.1
-7187.48
-6880
-6561.34
-6242.26
-8798.4
2863.7
-8488.48
-8171.65
-7841.46
-7508.49
-7173.38
-6838.27
-6503.14
-6152.02
-8189.49
2377.24
-7850.64
-7512.18
-7175.84
-6828.6
-6476.27
-6124.57
-5774.97
-5431.84
-6642.53
1545.87
-6312.34
-5983.19
-5656.53
-5332.57
-5014.12
-4711.53
-4414
-4124.82
-3843.68
-3933.36
370.781
-3687.81
-3454.82
-3230.13
-3010.21
-2792.85
-2605.2
-2478.4
-2348.87
-1871.64
-336.907
-1755.43
-1636.07
-1636.07
-1426.46
-209.61
-1222.79
-203.669
-1222.79
-1043.09
-179.698
-1043.1
-887.334
-155.761
-760.247
-127.088
-760.247
-619.374
-140.874
-503.581
-115.793
-503.581
-406.229
-97.3519
-406.229
-360.219
-46.0093
-373.861
13.6424
-373.861
-416.957
43.0962
-416.956
-353.321
-63.6354
-208.966
-144.353
-208.966
-32.1223
-176.842
171.019
-203.141
171.02
369.915
-198.894
369.916
561.117
-191.201
757.5
-196.382
757.5
947.765
-190.264
947.766
1133.52
-185.757
1317.82
-184.297
1317.82
1497.13
-179.305
1668.83
-171.706
1668.83
1837.87
-169.031
1837.87
2004.92
-167.059
2155.95
-151.026
2155.95
2306.16
-150.206
2306.16
2458.01
-151.855
2588.68
-130.662
2588.68
2724.95
-136.276
2837.41
-112.452
2837.41
2956.96
-119.557
2956.96
3083.71
-126.745
3182.31
-98.5967
3182.31
3290.09
-107.786
3290.09
3406.48
-116.392
3493.21
-86.729
3493.21
3595.59
-102.372
3668.32
-72.7335
3668.32
3755.47
-87.1505
3755.47
3853.48
-98.0077
3920.25
-66.7714
3920.25
4003.51
-83.2574
4003.51
4098.06
-94.5514
4162.87
-64.8063
4162.87
4248.52
-85.6539
4307.03
-58.5129
4307.03
4384.26
-77.2301
4384.26
-88.0511
-604.276
137.606
-609.728
132.378
-614.745
136.84
-620.251
139.902
-626.164
143.805
-632.481
146.514
-639.044
151.327
-646.128
160.412
-653.697
170.721
-661.875
182.72
-670.574
195.619
-679.902
213.633
-690.03
232.971
-700.661
250.462
-711.612
272.668
-722.794
303.114
-734.425
337.122
-746.124
370.098
-757.625
412.742
-769.07
460.747
-780.393
513.815
-791.874
575.811
-804.269
646.261
-818.544
727.902
-836.069
822.026
-858.366
932.681
-886.769
1062.79
-922.093
1215.7
-964.267
1394.74
-1012.2
1601.53
-1063.99
1835.81
-1117.45
2096.14
-1170.75
2381.36
-1223.18
2692.08
-1276.3
3034.25
-1335.61
3423.08
-1408.73
3887.44
-1491.32
4459.35
-1541.1
5112.25
-1467.39
5654.43
-1171.04
5620.44
-598.149
3761.18
-381.194
-3212.95
-527.414
-1324.76
-642.062
-35.4869
-673.814
921.657
-694.495
1695.83
-731.401
2618.39
-828.33
2964.73
-986.182
3269.08
-1200.66
3412.78
-1549.34
2920.52
-2035.1
2577.95
-2442.49
2696.13
-2556.26
2623.84
-2440.95
1755.17
-2326.27
-580.389
-2335.06
-2093.81
-2240.47
-2611.93
-2046.71
-3341.33
-1722.46
-3545.57
-1198
-2598.12
-637.459
512.234
-389.604
3156.3
-188.356
3446.79
-53.1923
3614.85
-18.7973
3465.79
31.9352
3628.94
67.7289
3289.8
68.6913
3537.85
126.38
2313.51
160.92
2045.55
231.505
2787.71
292.509
3950.44
264.372
3228.06
259.01
1511.15
260.259
-551.117
184.64
-2366.41
-4197.19
-616.872
141.974
-623.071
138.577
-629.151
142.92
-635.157
145.907
-641.229
149.878
-647.896
153.181
-654.93
158.361
-662.362
167.844
-670.46
178.82
-679.241
191.5
-688.586
204.964
-697.614
222.662
-706.81
242.167
-716.74
260.392
-727.387
283.314
-738.033
313.761
-748.31
347.399
-758.926
380.714
-769.321
423.137
-779.578
471.004
-790.291
524.529
-801.551
587.071
-814.409
659.119
-829.882
743.375
-849.259
841.403
-873.85
957.272
-904.581
1093.52
-941.854
1252.97
-985.205
1438.09
-1033.39
1649.71
-1084.54
1886.96
-1136.81
2148.4
-1188.8
2433.35
-1240.45
2743.73
-1294.24
3088.04
-1356.33
3485.17
-1432.65
3963.76
-1513.39
4540.09
-1550.26
5149.13
-1447
5551.16
-1060.24
5233.67
-110.987
2811.93
-376.212
-2947.72
-510.231
-1190.75
-613.293
67.5754
-665.305
973.669
-736.157
1766.68
-781.586
2663.82
-896.918
3080.06
-1064.15
3436.31
-1256.64
3605.27
-1618.35
3282.23
-2155.32
3114.91
-2561.9
3102.7
-2604.45
2666.39
-2399.64
1550.36
-2359.51
-620.518
-2457.15
-1996.17
-2375.31
-2693.78
-2203.7
-3512.95
-1898.24
-3851.03
-1343.34
-3153.01
-348.633
-482.473
-104.187
2911.86
-283.975
3626.58
-210.306
3541.18
-150.81
3406.3
-32.9085
3511.04
34.1594
3222.73
68.1909
3503.82
144.348
2237.35
188.67
2001.23
269.539
2706.84
355.986
3864
346.565
3237.49
293.921
1563.8
270.214
-527.409
182.106
-2278.3
-4092.31
-632.29
147.856
-639.308
145.596
-646.077
149.689
-652.66
152.49
-659.34
156.558
-666.583
160.424
-674.049
165.827
-681.777
175.572
-690.051
187.094
-698.869
200.318
-708.078
214.173
-716.862
231.445
-725.77
251.075
-735.36
269.982
-745.29
293.244
-754.841
323.311
-764.278
356.836
-773.909
390.345
-783.316
432.544
-793
480.688
-803.451
534.98
-815.119
598.739
-829.047
673.047
-846.305
760.634
-867.993
863.091
-895.114
984.393
-928.175
1126.58
-967.181
1291.98
-1011.32
1482.23
-1059.22
1697.62
-1109.16
1936.9
-1159.59
2198.83
-1209.67
2483.42
-1260.21
2794.28
-1314.97
3142.79
-1380.6
3550.8
-1460.14
4043.31
-1535.91
4615.85
-1551.04
5164.25
-1404.51
5404.64
-955.48
4784.64
-96.7385
1953.19
-345.185
-2699.28
-508.14
-1027.79
-600.115
159.55
-664.109
1037.66
-749.893
1852.47
-815.47
2729.4
-948.806
3213.4
-1133.25
3620.75
-1363.25
3835.27
-1766.78
3685.76
-2279.2
3627.34
-2595.82
3419.33
-2583.43
2654
-2422.08
1389
-2436.03
-606.566
-2513.62
-1918.57
-2445.13
-2762.27
-2295.13
-3662.95
-2016.07
-4130.09
-1494.72
-3674.37
-463.717
-1513.47
53.4337
2394.7
-198.418
3878.43
-236.024
3578.78
-200.09
3370.37
-72.8711
3383.82
-0.109365
3149.97
46.6759
3457.03
136.834
2147.19
191.672
1946.39
277.42
2621.1
371.971
3769.45
374.048
3235.41
314.743
1623.1
279.831
-492.498
186.928
-2185.4
-3963.9
-649.141
155.392
-656.795
153.25
-664.061
156.955
-671.077
159.505
-678.11
163.591
-685.572
167.887
-693.274
173.529
-701.044
183.342
-709.307
195.357
-717.945
208.957
-726.865
223.093
-735.355
239.934
-743.827
259.547
-752.939
279.094
-762.072
302.378
-770.701
331.94
-779.385
365.519
-788.38
399.341
-797.278
441.442
-806.865
490.275
-817.671
545.786
-830.372
611.439
-845.88
688.555
-865.25
780.004
-889.374
887.215
-918.892
1013.91
-953.93
1161.62
-994.176
1332.22
-1038.59
1526.64
-1085.77
1744.8
-1134.18
1985.32
-1182.64
2247.29
-1230.97
2531.76
-1281.11
2844.41
-1338.01
3199.69
-1407.98
3620.77
-1489.6
4124.93
-1556.26
4682.52
-1542.58
5150.57
-1346.47
5208.53
-847.507
4285.68
-76.5785
1182.26
-333.17
-2442.68
-506.477
-854.484
-595.26
248.333
-666.711
1109.11
-764.428
1950.18
-847.485
2812.45
-998.061
3363.97
-1202.07
3824.76
-1473.9
4107.1
-1904.84
4116.69
-2368.68
4091.18
-2601.3
3651.95
-2570.55
2623.25
-2467.18
1285.64
-2512.19
-561.562
-2571.92
-1858.83
-2518.04
-2816.15
-2386.44
-3794.55
-2134.52
-4382.01
-1669.92
-4138.97
-834.181
-2349.21
-61.3232
1621.85
-106.658
3923.76
-250.492
3722.62
-241.525
3361.4
-111.401
3253.7
-33.2531
3071.82
25.2351
3398.54
126.716
2045.71
191.331
1881.77
280.408
2532.02
380.956
3668.9
393.134
3223.23
333.03
1683.21
288.994
-448.46
188.546
-2084.95
-3861
-667.006
164.351
-675.085
161.328
-682.574
164.445
-689.801
166.731
-696.964
170.754
-704.42
175.343
-712.222
181.331
-719.962
191.081
-728.036
203.432
-736.306
217.227
-744.723
231.51
-752.83
248.041
-760.787
267.504
-769.328
287.636
-777.746
310.796
-785.69
339.884
-793.841
373.671
-802.576
408.075
-811.497
450.363
-821.515
500.293
-833.25
557.521
-847.456
625.645
-864.899
705.998
-886.462
801.567
-912.875
913.628
-944.395
1045.43
-980.899
1198.12
-1021.78
1373.11
-1065.94
1570.8
-1111.99
1790.86
-1158.67
2032
-1205.21
2293.83
-1252.27
2578.82
-1303.03
2895.17
-1363.35
3260.01
-1438
3695.43
-1519.55
4206.48
-1572.15
4735.11
-1523.49
5101.92
-1275.71
4960.75
-738.123
3748.09
-54.2638
498.404
-334.636
-2162.31
-504.439
-684.681
-594.234
338.127
-672.45
1187.33
-780.019
2057.75
-879.316
2911.75
-1045.08
3529.74
-1270.35
4050.02
-1581.17
4417.93
-2021.92
4557.44
-2426.45
4495.71
-2594.19
3819.69
-2569.32
2598.37
-2515.72
1232.03
-2573.49
-503.787
-2621.85
-1810.47
-2580.29
-2857.71
-2464.84
-3910
-2234.68
-4612.17
-1805.21
-4568.44
-1054.36
-3100.06
-180.204
747.694
-72.1675
3815.73
-239.195
3889.65
-264.887
3387.09
-148.539
3137.35
-66.5565
2989.84
4.58483
3327.4
115.884
1934.42
189.398
1808.26
281.562
2439.86
386.695
3563.77
408.017
3201.91
349.356
1741.87
297.153
-396.256
193.377
-1981.18
-3732.43
-685.429
174.277
-693.776
169.674
-701.306
171.976
-708.584
174.009
-715.723
177.893
-723.05
182.669
-730.785
189.067
-738.424
198.72
-746.111
211.118
-753.805
224.921
-761.595
239.301
-769.288
255.734
-776.791
275.007
-784.783
295.628
-792.672
318.685
-800.263
347.475
-808.257
381.665
-817.14
416.958
-826.623
459.846
-837.58
511.25
-850.704
570.645
-866.714
641.656
-886.24
725.523
-909.907
825.234
-938.309
942.03
-971.337
1078.46
-1008.72
1235.51
-1049.64
1414.03
-1093.04
1614.19
-1137.63
1835.45
-1182.44
2076.81
-1227.28
2338.67
-1273.78
2625.32
-1326.36
2947.75
-1391.14
3324.8
-1469.96
3774.24
-1548.03
4284.55
-1580.73
4767.81
-1491.57
5012.76
-1191.07
4660.25
-621.961
3178.99
-54.3827
-69.1735
-357.566
-1859.13
-504.281
-537.965
-592.603
426.449
-680.895
1275.62
-795.794
2172.65
-910.829
3026.79
-1090.39
3709.3
-1338.05
4297.68
-1680.7
4760.58
-2115.15
4991.89
-2459.76
4840.33
-2583.75
3943.68
-2577.24
2591.86
-2562.64
1217.43
-2624
-442.422
-2666.62
-1767.86
-2636.13
-2888.2
-2536.95
-4009.18
-2330.08
-4819.04
-1935.01
-4963.5
-1228.19
-3806.89
-243.336
-237.156
-19.6716
3592.06
-208.263
4078.24
-282.564
3461.39
-182.492
3037.28
-100.439
2907.79
-15.2897
3242.25
105.212
1813.91
186.21
1727.26
281.634
2344.43
390.213
3455.19
419.476
3172.65
363.308
1798.04
304.663
-337.609
196.342
-1872.86
-3630.64
-704.169
184.625
-712.608
178.114
-720.045
179.413
-727.221
181.185
-734.181
184.853
-741.252
189.74
-748.72
196.535
-756.125
206.125
-763.33
218.323
-770.384
231.975
-777.581
246.498
-784.905
263.058
-792.101
282.203
-799.689
303.216
-807.343
326.34
-814.981
355.112
-823.233
389.917
-832.707
426.431
-843.217
470.357
-855.53
523.563
-870.345
585.46
-888.274
659.585
-909.831
747.08
-935.371
850.774
-965.316
971.975
-999.347
1112.49
-1037.03
1273.19
-1077.48
1454.48
-1119.68
1656.4
-1162.57
1878.33
-1205.54
2119.78
-1249.12
2382.24
-1296.01
2672.22
-1351.64
3003.37
-1421.42
3394.58
-1502.76
3855.59
-1572.75
4354.54
-1579.18
4774.24
-1444.64
4878.22
-1090.34
4305.95
-493.918
2582.56
-67.0023
-496.089
-381.848
-1544.28
-505.037
-414.777
-589.233
510.645
-691.05
1377.44
-811.409
2293.01
-941.649
3157.03
-1134.41
3902.07
-1404.3
4567.57
-1769.51
5125.79
-2185.53
5407.91
-2475.95
5130.75
-2574.14
4041.87
-2590.04
2607.76
-2603.69
1231.07
-2664.35
-381.764
-2704.55
-1727.66
-2683.97
-2908.78
-2600.63
-4092.52
-2418.4
-5001.27
-2064.27
-5317.63
-1410.34
-4460.82
-284.308
-1363.19
48.8755
3258.88
-215.022
4342.14
-307.37
3553.74
-219.451
2949.36
-136.432
2824.77
-34.0811
3139.9
94.6877
1685.15
181.867
1640.09
280.768
2245.53
391.983
3343.97
427.808
3136.82
375.531
1850.31
311.691
-273.769
197.615
-1758.78
-3516.28
-723.023
194.816
-731.314
186.405
-738.511
186.61
-745.417
188.092
-752.058
191.494
-758.774
196.456
-765.843
203.603
-772.902
213.184
-779.661
225.082
-786.197
238.511
-792.939
253.24
-800.002
270.121
-807.106
289.307
-814.556
310.666
-822.346
334.13
-830.465
363.231
-839.374
398.826
-849.829
436.886
-861.726
482.254
-875.659
537.496
-892.294
602.094
-912.094
679.386
-935.454
770.439
-962.517
877.838
-993.506
1002.96
-1028.01
1146.99
-1065.46
1310.64
-1105
1494.01
-1145.7
1697.11
-1186.79
1919.42
-1228.15
2161.14
-1271.17
2425.26
-1319.6
2720.65
-1379.33
3063.1
-1453.89
3469.14
-1534.93
3936.62
-1591.31
4410.92
-1565.17
4748.1
-1381.74
4694.78
-975.325
3899.54
-352.89
1960.13
-61.5872
-787.392
-389.228
-1216.64
-505.399
-298.605
-590.267
595.513
-701.917
1489.09
-827.158
2418.25
-971.252
3301.12
-1177.31
4108.13
-1467.75
4858.01
-1846.03
5504.06
-2236.17
5798.05
-2480.98
5375.56
-2566.42
4127.31
-2603.91
2645.25
-2637.17
1264.33
-2696.24
-322.694
-2735.73
-1688.17
-2723.97
-2920.53
-2655.13
-4161.37
-2496.3
-5160.1
-2185.36
-5628.57
-1616.83
-5029.35
-628.164
-2351.85
-29.1493
2659.86
-191.698
4504.68
-314.55
3676.6
-256.923
2891.73
-174.667
2742.51
-51.9486
3017.19
84.2227
1548.98
176.546
1547.76
278.983
2143.1
392.228
3230.73
433.379
3095.67
386.605
1897.09
317.808
-204.969
205.942
-1646.91
-3377.11
-741.722
204.304
-749.61
194.293
-756.439
193.438
-762.959
194.612
-769.22
197.755
-775.561
202.797
-782.21
210.253
-788.901
219.876
-795.32
231.502
-801.556
244.747
-808.065
259.748
-815.043
277.099
-822.298
296.562
-829.947
318.316
-838.25
342.432
-847.254
372.235
-857.18
408.753
-868.902
448.608
-882.408
495.76
-898.061
553.149
-916.473
620.507
-937.964
700.877
-962.788
795.264
-990.944
905.993
-1022.48
1034.5
-1056.94
1181.45
-1093.7
1347.4
-1131.98
1532.3
-1171.01
1736.13
-1210.37
1958.79
-1250.59
2201.35
-1293.97
2468.64
-1345.14
2771.82
-1409.62
3127.58
-1487.78
3547.31
-1564.59
4013.43
-1601.33
4447.67
-1537.17
4683.93
-1303.27
4460.88
-849.598
3445.87
-193.72
1304.25
-54.2729
-926.839
-390.773
-880.142
-504.846
-184.533
-594.894
685.561
-712.892
1607.09
-843.214
2548.57
-999.186
3457.09
-1218.87
4327.81
-1526.99
5166.13
-1909.91
5886.99
-2270.74
6158.88
-2478.92
5583.75
-2560.21
4208.6
-2616.3
2701.35
-2662.73
1310.76
-2720.5
-264.927
-2760.31
-1648.36
-2756.66
-2924.18
-2700.91
-4217.12
-2562.48
-5298.52
-2286.7
-5904.36
-1785.53
-5530.52
-938.424
-3198.96
-122.186
1843.63
-132.71
4515.21
-310.131
3854.02
-290.03
2871.63
-212.597
2665.08
-68.8911
2873.48
74.0335
1406.05
170.745
1451.05
276.341
2037.5
390.969
3116.1
436.637
3050.01
396.316
1937.41
321.801
-130.454
209.489
-1534.6
-3265.63
-760.02
212.67
-767.31
201.583
-773.7
199.828
-779.806
200.719
-785.717
203.665
-791.748
208.827
-798.054
216.559
-804.447
226.269
-810.68
237.734
-816.865
250.932
-823.419
266.302
-830.558
284.238
-838.215
304.22
-846.415
326.515
-855.561
351.578
-865.749
382.423
-876.975
419.979
-890.131
461.764
-905.317
510.946
-922.649
570.481
-942.665
640.523
-965.556
723.768
-991.452
821.16
-1020.24
934.784
-1051.87
1066.13
-1085.83
1215.41
-1121.54
1383.1
-1158.32
1569.08
-1195.63
1773.44
-1233.53
1996.69
-1273.28
2241.1
-1318.08
2513.44
-1373.01
2826.74
-1442.26
3196.83
-1521.81
3626.86
-1589.57
4081.19
-1600.74
4458.83
-1494.76
4577.95
-1212.79
4178.91
-730.298
2963.38
-147.747
721.698
-141.489
-933.096
-391.824
-629.807
-504.298
-72.0583
-600.415
781.678
-723.457
1730.13
-859.188
2684.3
-1025.28
3623.19
-1258.58
4561.11
-1580.85
5488.4
-1961.62
6267.76
-2292.55
6489.81
-2472.24
5763.43
-2554.59
4290.95
-2625.57
2772.32
-2680.46
1365.66
-2737.63
-207.759
-2778.71
-1607.28
-2782.82
-2920.07
-2739.54
-4260.41
-2620.14
-5417.91
-2374.18
-6150.32
-1920.86
-5983.83
-1155.7
-3964.13
-267.4
955.329
-145.837
4393.65
-330.335
4038.51
-323.757
2865.05
-248.272
2589.6
-84.5749
2709.78
64.2399
1257.24
164.9
1350.39
272.853
1929.55
388.2
3000.76
438.001
3000.2
404.681
1970.73
323.824
-49.5947
211.553
-1422.33
-3141.23
-777.78
219.706
-784.372
208.175
-790.325
205.781
-796.069
206.463
-801.728
209.324
-807.57
214.67
-813.679
222.668
-819.93
232.519
-826.183
243.987
-832.586
257.336
-839.484
273.199
-847.065
291.819
-855.366
312.521
-864.422
335.571
-874.669
361.826
-886.217
393.971
-898.911
432.672
-913.558
476.411
-930.351
527.739
-949.216
589.346
-970.57
661.877
-994.508
747.705
-1021.06
847.712
-1050.05
963.774
-1081.33
1097.41
-1114.44
1248.52
-1148.83
1417.49
-1183.99
1604.24
-1219.69
1809.14
-1256.54
2033.54
-1296.65
2281.21
-1343.98
2560.77
-1403.4
2886.16
-1476.65
3270.08
-1554.34
3704.54
-1607.61
4134.46
-1587.77
4439
-1438.08
4428.26
-1112.9
3853.74
-616.405
2466.89
-144.124
249.417
-209.7
-867.52
-390.041
-449.466
-505.602
43.5022
-608.787
884.863
-733.415
1854.76
-874.404
2825.29
-1049.59
3798.37
-1295.84
4807.36
-1628.58
5821.15
-2002.12
6641.3
-2304.28
6791.96
-2462.28
5921.43
-2548.56
4377.23
-2630.52
2854.29
-2690.49
1425.63
-2747.85
-150.401
-2790.99
-1564.14
-2802.67
-2908.39
-2771.7
-4291.38
-2671.37
-5518.25
-2454.55
-6367.14
-2043.63
-6394.76
-1330.85
-4676.91
-419.88
44.3589
-184.364
4158.13
-355.413
4209.56
-361.738
2871.38
-282.023
2509.88
-98.4682
2526.23
54.963
1103.81
159.292
1246.06
268.497
1820.34
383.957
2885.3
437.719
2946.44
412.277
1996.17
324.156
38.5266
219.855
-1318.03
-2994.11
-794.984
225.438
-800.892
214.083
-806.485
211.374
-811.98
211.958
-817.534
214.878
-823.353
220.489
-829.46
228.774
-835.784
238.844
-842.3
250.504
-849.185
264.221
-856.705
280.719
-864.997
300.111
-874.156
321.68
-884.289
345.703
-895.805
373.342
-908.781
406.948
-922.985
446.877
-939.088
492.513
-957.31
545.962
-977.478
609.513
-999.86
684.259
-1024.47
772.316
-1051.27
874.511
-1080.06
992.569
-1110.64
1127.99
-1142.61
1280.49
-1175.5
1450.39
-1209.02
1637.75
-1243.34
1843.46
-1279.75
2069.96
-1321.2
2322.66
-1372.09
2611.66
-1436.26
2950.33
-1511.84
3345.66
-1583.41
3776.11
-1616.34
4167.39
-1560.9
4383.56
-1367.33
4234.68
-1004.94
3491.35
-503.586
1965.54
-129.92
-124.249
-253.221
-744.218
-379.741
-322.947
-500.504
164.266
-616.338
1000.7
-743.142
1981.56
-888.396
2970.55
-1072.15
3982.12
-1330.12
5065.33
-1669.75
6160.79
-2032.51
7004.06
-2307.89
7067.33
-2449.7
6063.25
-2541.06
4468.59
-2630.34
2943.56
-2693.02
1488.31
-2751.26
-92.1571
-2797.06
-1518.33
-2816.07
-2889.37
-2797.25
-4310.2
-2716.08
-5599.43
-2528.9
-6554.31
-2160.52
-6763.14
-1492.07
-5345.35
-538.987
-908.727
-201.844
3820.99
-360.266
4367.99
-397.987
2909.1
-314.451
2426.35
-110.08
2321.86
45.6442
948.084
153.746
1137.96
263.402
1710.69
378.311
2770.39
435.892
2888.86
419.635
2012.43
321.564
136.6
224.428
-1220.89
-2872.05
-811.738
230.098
-817.087
219.432
-822.464
216.751
-827.883
217.377
-833.519
220.514
-839.51
226.48
-845.834
235.099
-852.474
245.483
-859.493
257.523
-867.087
271.814
-875.451
289.083
-884.672
309.332
-894.855
331.863
-906.192
357.04
-919.048
386.197
-933.429
421.329
-949.074
462.521
-966.514
509.953
-985.925
565.373
-1007.11
630.696
-1030.19
707.341
-1055.11
797.235
-1081.78
901.179
-1110.02
1020.81
-1139.58
1157.55
-1170.17
1311.08
-1201.49
1481.71
-1233.48
1669.74
-1266.85
1876.83
-1303.63
2106.74
-1347.48
2366.51
-1402.76
2666.94
-1471.26
3018.84
-1546.44
3420.83
-1606.68
3836.35
-1613.37
4174.08
-1518.93
4289.13
-1283.08
3998.83
-890.31
3098.58
-394.71
1469.94
-126.412
-392.547
-286.484
-584.147
-376.148
-233.283
-497.253
285.371
-622.581
1126.03
-752.671
2111.65
-901.093
3118.97
-1092.94
4173.97
-1361.01
5333.4
-1704.23
6504.01
-2053.87
7353.69
-2304.85
7318.31
-2434.74
6193.14
-2531.16
4565.01
-2624.51
3036.91
-2688.34
1552.13
-2747.98
-32.5119
-2796.83
-1469.49
-2822.88
-2863.33
-2815.86
-4317.21
-2753.57
-5661.72
-2596.28
-6711.6
-2273.55
-7085.87
-1660.13
-5958.77
-662.317
-1906.54
-248.108
3406.78
-374.081
4493.96
-430.012
2965.03
-344.866
2341.2
-118.256
2095.25
37.4629
792.365
148.89
1026.54
257.77
1601.81
371.416
2656.74
432.551
2827.73
427.923
2017.06
313.81
250.714
230.226
-1137.31
-2728.55
-828.298
234.059
-833.309
224.443
-838.665
222.107
-844.214
222.927
-850.136
226.435
-856.501
232.846
-863.262
241.86
-870.442
252.663
-878.17
265.251
-886.64
280.284
-896.001
298.444
-906.287
319.619
-917.594
343.17
-930.176
369.622
-944.35
400.37
-960.031
437.01
-976.956
479.446
-995.541
528.539
-1015.88
585.708
-1037.75
652.571
-1061.21
730.794
-1086.09
822.119
-1112.28
927.375
-1139.66
1048.18
-1167.97
1185.86
-1197.03
1340.14
-1226.79
1511.47
-1257.55
1700.5
-1290.62
1909.91
-1328.79
2144.9
-1376.12
2413.85
-1436.18
2726.99
-1507.64
3090.3
-1578.49
3491.68
-1621.55
3879.42
-1596.63
4149.15
-1461.57
4154.07
-1187.49
3724.75
-774.123
2685.21
-300.238
996.053
-136.83
-555.955
-309.174
-411.802
-388.69
-153.766
-505.539
402.22
-630.072
1250.56
-761.48
2243.06
-912.591
3270.08
-1111.78
4373.15
-1388.21
5609.83
-1732.11
6847.92
-2067.2
7688.78
-2296.24
7547.35
-2417.4
6314.3
-2518.05
4665.66
-2612.84
3131.7
-2676.86
1616.15
-2738.25
28.8769
-2790.37
-1417.36
-2823.13
-2830.57
-2827.41
-4312.92
-2783.2
-5705.93
-2654.78
-6840.03
-2378.73
-7361.91
-1840.8
-6496.71
-915.441
-2831.9
-356.238
2847.58
-411.514
4549.23
-464.188
3017.7
-371.458
2248.47
-122.772
1846.56
31.6471
637.947
145.27
912.914
251.674
1495.4
363.506
2544.91
427.659
2763.57
432.127
2012.59
309.965
372.879
234.666
-1062.01
-2610.28
-845.078
237.751
-850.031
229.396
-855.576
227.653
-861.471
228.821
-867.869
232.833
-874.788
239.764
-882.168
249.24
-890.068
260.562
-898.647
273.83
-908.092
289.73
-918.519
308.871
-929.92
331.02
-942.368
355.618
-956.151
383.406
-971.54
415.759
-988.352
453.822
-1006.34
497.433
-1025.83
548.028
-1046.81
606.689
-1069.05
674.813
-1092.55
754.292
-1117.08
846.653
-1142.51
952.804
-1168.76
1074.43
-1195.64
1212.74
-1223.15
1367.65
-1251.53
1539.86
-1281.6
1730.57
-1315.3
1943.6
-1355.99
2185.6
-1407.66
2465.52
-1472.12
2791.45
-1543.96
3162.15
-1605.51
3553.22
-1625.41
3899.32
-1564.82
4088.57
-1389.99
3979.24
-1084.82
3419.58
-665.9
2266.29
-236.595
566.748
-170.291
-622.26
-325.218
-256.875
-407.167
-71.8168
-518.956
514.009
-637.86
1369.46
-768.959
2374.16
-922.861
3423.98
-1128.48
4578.78
-1411.49
5892.83
-1753.61
7190.04
-2073.37
8008.54
-2282.81
7756.79
-2397.54
6429.02
-2501.16
4769.29
-2595.34
3225.88
-2659.05
1679.86
-2722.37
92.1949
-2777.91
-1361.82
-2817.03
-2791.45
-2832.06
-4297.9
-2804.91
-5733.08
-2703.25
-6941.69
-2469.34
-7595.82
-1997.85
-6968.2
-1147.41
-3682.33
-449.042
2149.2
-454.67
4554.86
-502.96
3065.99
-393.208
2138.72
-123.413
1576.77
29.7617
484.772
143.264
799.411
245.073
1393.59
354.777
2435.21
421.414
2696.94
429.699
2004.3
320.372
482.206
237.387
-979.021
-2480.68
-862.608
241.572
-867.788
234.576
-873.718
233.582
-880.142
235.246
-887.166
239.857
-894.769
247.368
-902.896
257.367
-911.624
269.29
-921.123
283.329
-931.566
300.173
-943.045
320.351
-955.521
343.496
-969.046
369.143
-983.919
398.279
-1000.35
432.194
-1018.08
471.552
-1036.88
516.234
-1057.01
568.15
-1078.35
628.034
-1100.65
697.112
-1123.88
777.524
-1147.79
870.56
-1172.22
977.231
-1197.16
1099.37
-1222.57
1238.15
-1248.66
1393.74
-1276.1
1567.3
-1306.27
1760.74
-1341.67
1979.01
-1385.96
2229.88
-1442.28
2521.84
-1509.72
2858.88
-1578.13
3230.56
-1624.65
3599.75
-1615.93
3890.6
-1517.63
3990.27
-1306.76
3768.37
-980.634
3093.46
-576.21
1861.86
-243.893
234.432
-249.989
-616.164
-343.077
-163.787
-423.847
8.95317
-530.651
620.813
-644.168
1482.98
-774.735
2504.72
-931.733
3580.98
-1142.91
4789.95
-1430.71
6180.64
-1769.03
7528.36
-2073.15
8312.65
-2265.15
7948.8
-2374.96
6538.83
-2480.09
4874.41
-2572.2
3317.99
-2635.43
1743.1
-2700.72
157.484
-2759.71
-1302.82
-2804.88
-2746.28
-2830.11
-4272.67
-2819.08
-5744.11
-2742.29
-7018.47
-2546.2
-7791.91
-2131.44
-7382.96
-1349.16
-4464.62
-542.942
1342.99
-474.18
4486.1
-540.86
3132.67
-411.496
2009.35
-118.208
1283.48
34.1463
332.419
143.073
690.486
238.11
1298.56
345.364
2327.95
414.145
2628.16
426.484
1991.97
333.033
575.659
246.162
-892.147
-2333.11
-881.464
245.816
-887.11
240.222
-893.57
240.042
-900.646
242.322
-908.383
247.593
-916.737
255.723
-925.665
266.294
-935.253
278.878
-945.665
293.741
-957.06
311.567
-969.506
332.797
-982.946
356.936
-997.421
383.618
-1013.22
414.073
-1030.48
449.463
-1048.89
489.961
-1068.25
535.585
-1088.72
588.627
-1110.15
649.463
-1132.24
719.198
-1154.94
800.223
-1177.99
893.616
-1201.27
1000.51
-1224.85
1122.95
-1248.89
1262.19
-1273.93
1418.77
-1301.09
1594.46
-1332.34
1791.99
-1370.58
2017.24
-1419.15
2278.46
-1479.59
2582.27
-1547.37
2926.66
-1607.44
3290.63
-1633.03
3625.34
-1591.45
3849.02
-1455.74
3854.56
-1215.02
3527.65
-879.159
2757.59
-503.218
1485.92
-265.188
-3.59873
-309.052
-572.3
-360.999
-111.84
-436.724
84.678
-539.599
723.688
-649.684
1593.06
-778.995
2634.04
-939.033
3741.02
-1154.91
5005.83
-1445.81
6471.54
-1778.71
7861.27
-2067.18
8601.12
-2243.65
8125.27
-2349.45
6644.63
-2454.62
4979.57
-2543.72
3407.1
-2606.53
1805.9
-2673.68
224.639
-2736.06
-1240.45
-2786.95
-2695.38
-2821.87
-4237.75
-2826.15
-5739.84
-2772.76
-7071.86
-2611.29
-7953.39
-2246.25
-7748
-1531.22
-5179.65
-672.126
483.901
-501.128
4315.1
-574.291
3205.84
-426.663
1861.73
-102.276
959.092
48.8969
181.246
144.781
594.601
231.2
1212.14
335.397
2223.76
405.881
2557.67
422.881
1974.97
343.186
655.354
251.452
-800.414
-2208.4
-902.181
250.629
-908.449
246.49
-915.517
247.109
-923.293
250.099
-931.757
256.057
-940.858
264.824
-950.569
276.005
-960.979
289.288
-972.232
304.994
-984.472
323.807
-997.744
346.069
-1011.99
371.182
-1027.24
398.87
-1043.75
430.585
-1061.62
467.326
-1080.46
508.803
-1100.11
555.232
-1120.68
609.196
-1141.93
670.719
-1163.58
740.848
-1185.55
822.191
-1207.61
915.676
-1229.7
1022.6
-1252.01
1145.26
-1274.98
1285.16
-1299.52
1443.32
-1327.26
1622.2
-1360.63
1825.35
-1402.57
2059.19
-1455.49
2331.38
-1518.43
2645.22
-1582.74
2990.96
-1628.87
3336.76
-1628.06
3624.53
-1551.15
3772.11
-1380.77
3684.18
-1118.17
3265.05
-784.172