/*--------------------------------*- C++ -*----------------------------------*\
| =========                 |                                                 |
| \\      /  F ield         | OpenFOAM: The Open Source CFD Toolbox           |
|  \\    /   O peration     | Version:  4.1                                   |
|   \\  /    A nd           | Web:      www.OpenFOAM.org                      |
|    \\/     M anipulation  |                                                 |
\*---------------------------------------------------------------------------*/
FoamFile
{
    version     2.0;
    format      ascii;
    class       surfaceScalarField;
    location    "26";
    object      phi;
}
// * * * * * * * * * * * * * * * * * * * * * * * * * * * * * * * * * * * * * //

dimensions      [0 3 -1 0 0 0 0];

internalField   nonuniform List<scalar> 
420
(
-949.879
2249.78
-1573.95
1924.28
-2054
1779.95
-2424.23
1670.13
-2699.86
1575.82
-2888.38
1488.42
-2993.06
1404.58
-3013.86
1321
-2949.61
1235.66
-2797.23
1147.52
-2551.17
1054.13
-2193
941.735
-1687.16
794.064
-1012.67
625.702
287.228
373.334
1876.44
442.747
1854.86
437.3
1785.39
406.697
1700.74
380.578
1601.94
359.897
1509.1
345.289
1419.19
337.533
1328.76
333.481
1239.71
326.95
1154.05
309.604
1071.48
267.46
983.877
191.422
870.102
111.447
705.683
398.675
33.5773
1842.87
-97.3877
1985.83
-253.614
1941.62
-371.121
1818.24
-473.185
1704.01
-567.534
1603.45
-651.752
1503.4
-725.801
1402.81
-788.08
1301.99
-837.314
1203.28
-868.233
1102.4
-856.095
971.739
-740.341
754.348
-434.286
399.628
-35.6098
28.774
1814.09
-100.654
2115.26
-225.559
2066.53
-304.496
1897.18
-368.158
1767.67
-416.955
1652.24
-446.23
1532.68
-457.019
1413.59
-451.86
1296.83
-430.164
1181.59
-387.235
1059.47
-311.878
896.384
-192.866
635.338
-48.409
255.169
-84.0182
169.627
1644.47
146.159
2138.72
123.734
2088.95
122.872
1898.04
126.942
1763.6
135.804
1643.38
149.101
1519.38
166.592
1396.1
186.942
1276.47
208.127
1160.4
229.126
1038.47
243.817
881.693
233
646.156
155.224
332.943
71.2091
223.079
1421.39
244.181
2117.62
234.743
2098.39
236.023
1896.76
240.37
1759.25
244.303
1639.45
246.544
1517.14
245.249
1397.4
241.161
1280.56
233.988
1167.57
221.38
1051.07
199.134
903.935
156.134
689.154
78.2987
410.783
149.51
203.321
1218.07
238.372
2082.57
213.618
2123.14
191.407
1918.97
177.199
1773.45
163.768
1652.88
150.033
1530.87
135.889
1411.54
121.064
1295.39
106.912
1181.72
92.8174
1065.17
75.7668
920.985
52.0216
712.9
19.0245
443.787
168.534
171.855
1046.21
221.984
2032.44
199.425
2145.7
170.408
1947.99
152.056
1791.81
137.673
1667.26
122.784
1545.76
108.584
1425.74
95.5869
1308.39
83.1042
1194.2
71.4845
1076.79
58.637
933.837
40.3297
731.214
15.7587
468.367
184.29
146.098
900.115
210.06
1968.47
196.878
2158.88
170.057
1974.81
152.41
1809.45
139.539
1680.13
127.076
1558.23
113.874
1438.95
101.332
1320.93
89.4289
1206.1
76.9913
1089.23
63.0949
947.737
44.3152
750
19.176
493.51
203.459
116.763
783.351
184.851
1900.38
179.625
2164.11
154.307
2000.13
137.22
1826.54
124
1693.35
111.37
1570.85
98.9627
1451.35
86.1171
1333.78
73.8807
1218.34
62.1153
1100.99
49.0346
960.813
32.8646
766.167
13.1901
513.18
216.644
83.1618
700.189
143.134
1840.41
144.683
2162.56
122.754
2022.06
106.143
1843.15
94.4551
1705.04
82.5727
1582.73
71.1611
1462.76
60.381
1344.56
49.4622
1229.26
39.4356
1111.01
29.7525
970.49
18.0879
777.824
5.23861
526.021
221.884
51.243
648.949
97.929
1793.72
102.72
2157.76
87.3918
2037.39
73.161
1857.39
63.1506
1715.05
54.2522
1591.64
44.871
1472.15
36.1547
1353.28
28.1755
1237.25
20.4257
1118.77
13.6858
977.241
6.74221
784.778
-0.411882
533.176
221.482
25.1302
623.821
57.7209
1761.14
63.5227
2151.97
53.4932
2047.42
43.9218
1866.96
36.212
1722.76
29.5872
1598.27
23.547
1478.2
17.1031
1359.73
11.349
1243.01
6.63541
1123.49
2.49634
981.388
-1.06312
788.343
-3.68603
535.799
217.801
1.4214
622.394
24.0561
1738.5
33.3587
2142.67
27.7297
2053.05
20.3805
1874.31
15.0863
1728.06
9.55513
1603.79
4.60719
1483.14
0.0703413
1364.26
-4.79694
1247.86
-8.31447
1126.99
-9.6344
982.688
-9.71992
788.404
-7.14092
533.218
210.66
-11.7206
-3.12089
1.4604
-0.403164
-5.09983
-8.85076
-11.8028
-15.2445
-18.1067
-20.2317
-21.7863
-21.1174
-18.1239
-12.3818
)
;

boundaryField
{
    inletFace
    {
        type            calculated;
        value           nonuniform List<scalar> 
450
(
-6.2767e-15
6.30301e-13
-1.03071e-13
-1.75793e-13
1.21911e-13
-1.87949e-13
-6.74429e-14
7.03737e-14
-1.09548e-13
-3.63767e-14
6.20018e-14
-2.78289e-14
-1.04759e-14
8.15771e-15
1.35594e-15
-2.11503e-12
-2.2175e-12
1.13955e-13
-3.10139e-13
-2.4578e-13
2.28269e-14
-2.87034e-13
-1.27523e-13
1.67792e-14
-1.36501e-13
-5.63661e-14
4.81507e-14
-2.15573e-14
-5.73727e-15
-4.06451e-16
-2.31183e-12
-2.34699e-12
-4.86449e-14
-3.34133e-13
-2.15986e-13
-1.01314e-13
-2.75194e-13
-7.79193e-14
-8.07134e-14
-1.07952e-13
-2.41187e-14
-1.93222e-14
-1.36714e-14
9.07413e-15
3.3474e-15
-2.53653e-12
-2.27191e-12
-1.3014e-13
-5.72939e-13
-2.46835e-13
-2.16705e-13
-4.03112e-13
-7.82593e-14
-1.31872e-13
-1.88354e-13
-2.03172e-14
-6.33316e-14
-8.03723e-14
4.13116e-14
7.12844e-14
-2.32346e-12
-2.30117e-12
-2.40783e-13
-5.36362e-13
-2.37758e-13
-2.39396e-13
-3.94072e-13
-1.08322e-13
-1.10097e-13
-1.59239e-13
-2.45194e-14
-3.91416e-14
-6.54007e-14
1.41261e-14
8.19347e-14
-2.04056e-12
-2.3311e-12
-4.47286e-13
-4.47993e-13
-2.17055e-13
-1.97178e-13
-3.67179e-13
-1.17587e-13
-1.05537e-13
-1.42218e-13
-2.17347e-14
-1.01762e-14
-3.49757e-14
2.80977e-14
3.01919e-14
-1.83932e-12
-2.40415e-12
-7.34774e-13
-4.31221e-13
-2.47503e-13
-2.26098e-13
-3.4593e-13
-1.59621e-13
-1.7319e-13
-1.58699e-13
-6.35757e-14
-6.92697e-14
-2.55289e-14
-4.42192e-14
-1.4276e-13
-1.61278e-12
-2.42012e-12
-9.82034e-13
-4.43796e-13
-2.68194e-13
-2.54571e-13
-3.28393e-13
-2.11547e-13
-2.30866e-13
-1.7429e-13
-1.08773e-13
-1.4302e-13
-4.09945e-14
-1.45604e-16
-1.85273e-13
-1.36078e-12
-2.39111e-12
-1.164e-12
-4.96648e-13
-2.8608e-13
-2.34744e-13
-3.23587e-13
-2.39226e-13
-2.09899e-13
-1.97501e-13
-1.22365e-13
-1.07683e-13
-5.98227e-14
-3.16385e-15
-2.71041e-14
-1.16547e-12
-2.33321e-12
-1.30466e-12
-5.65319e-13
-3.02492e-13
-2.05202e-13
-3.04621e-13
-2.46583e-13
-1.92066e-13
-1.9766e-13
-1.28113e-13
-7.50055e-14
-5.31748e-14
-2.26049e-14
5.48746e-14
-9.72122e-13
-2.26346e-12
-1.41646e-12
-6.0969e-13
-3.19982e-13
-1.96598e-13
-2.74494e-13
-2.4964e-13
-1.83799e-13
-1.71803e-13
-1.35427e-13
-5.72649e-14
2.7176e-14
2.26881e-15
9.41429e-14
-8.46797e-13
-2.19979e-12
-1.46421e-12
-6.59357e-13
-3.49077e-13
-1.82402e-13
-2.6563e-13
-2.64074e-13
-1.39639e-13
-1.7081e-13
-1.49487e-13
1.30409e-14
2.19027e-14
1.33981e-13
1.53879e-13
-7.82917e-13
-2.13632e-12
-1.498e-12
-7.04197e-13
-3.70826e-13
-1.82554e-13
-2.51992e-13
-2.75742e-13
-1.40276e-13
-1.69988e-13
-1.50096e-13
2.66932e-14
9.19123e-15
1.44473e-13
1.64371e-13
-7.3562e-13
-2.08775e-12
-1.52622e-12
-7.29092e-13
-3.83323e-13
-1.88179e-13
-2.44301e-13
-2.86512e-13
-1.43844e-13
-1.73364e-13
-1.55218e-13
2.23352e-14
8.13883e-15
1.2762e-13
1.39949e-13
-7.31499e-13
-2.01449e-12
-1.52062e-12
-7.4792e-13
-3.90092e-13
-1.99351e-13
-2.47702e-13
-2.73668e-13
-1.51197e-13
-1.75166e-13
-1.39906e-13
9.05861e-15
1.51097e-14
1.23333e-13
7.67788e-14
6.2767e-15
-6.30301e-13
1.03071e-13
1.75793e-13
-1.21911e-13
1.87949e-13
6.74429e-14
-7.03737e-14
1.09548e-13
3.63767e-14
-6.20018e-14
2.78289e-14
1.04759e-14
-8.15771e-15
-1.35594e-15
2.11503e-12
2.2175e-12
-1.13955e-13
3.10139e-13
2.4578e-13
-2.28269e-14
2.87034e-13
1.27523e-13
-1.67792e-14
1.36501e-13
5.63661e-14
-4.81507e-14
2.15573e-14
5.73727e-15
4.06451e-16
2.31183e-12
2.34699e-12
4.86449e-14
3.34133e-13
2.15986e-13
1.01314e-13
2.75194e-13
7.79193e-14
8.07134e-14
1.07952e-13
2.41187e-14
1.93222e-14
1.36714e-14
-9.07413e-15
-3.3474e-15
2.53653e-12
2.27191e-12
1.3014e-13
5.72939e-13
2.46835e-13
2.16705e-13
4.03112e-13
7.82593e-14
1.31872e-13
1.88354e-13
2.03172e-14
6.33316e-14
8.03723e-14
-4.13116e-14
-7.12844e-14
2.32346e-12
2.30117e-12
2.40783e-13
5.36362e-13
2.37758e-13
2.39396e-13
3.94072e-13
1.08322e-13
1.10097e-13
1.59239e-13
2.45194e-14
3.91416e-14
6.54007e-14
-1.41261e-14
-8.19347e-14
2.04056e-12
2.3311e-12
4.47286e-13
4.47993e-13
2.17055e-13
1.97178e-13
3.67179e-13
1.17587e-13
1.05537e-13
1.42218e-13
2.17347e-14
1.01762e-14
3.49757e-14
-2.80977e-14
-3.01919e-14
1.83932e-12
2.40415e-12
7.34774e-13
4.31221e-13
2.47503e-13
2.26098e-13
3.4593e-13
1.59621e-13
1.7319e-13
1.58699e-13
6.35757e-14
6.92697e-14
2.55289e-14
4.42192e-14
1.4276e-13
1.61278e-12
2.42012e-12
9.82034e-13
4.43796e-13
2.68194e-13
2.54571e-13
3.28393e-13
2.11547e-13
2.30866e-13
1.7429e-13
1.08773e-13
1.4302e-13
4.09945e-14
1.45604e-16
1.85273e-13
1.36078e-12
2.39111e-12
1.164e-12
4.96648e-13
2.8608e-13
2.34744e-13
3.23587e-13
2.39226e-13
2.09899e-13
1.97501e-13
1.22365e-13
1.07683e-13
5.98227e-14
3.16385e-15
2.71041e-14
1.16547e-12
2.33321e-12
1.30466e-12
5.65319e-13
3.02492e-13
2.05202e-13
3.04621e-13
2.46583e-13
1.92066e-13
1.9766e-13
1.28113e-13
7.50055e-14
5.31748e-14
2.26049e-14
-5.48746e-14
9.72122e-13
2.26346e-12
1.41646e-12
6.0969e-13
3.19982e-13
1.96598e-13
2.74494e-13
2.4964e-13
1.83799e-13
1.71803e-13
1.35427e-13
5.72649e-14
-2.7176e-14
-2.26881e-15
-9.41429e-14
8.46797e-13
2.19979e-12
1.46421e-12
6.59357e-13
3.49077e-13
1.82402e-13
2.6563e-13
2.64074e-13
1.39639e-13
1.7081e-13
1.49487e-13
-1.30409e-14
-2.19027e-14
-1.33981e-13
-1.53879e-13
7.82917e-13
2.13632e-12
1.498e-12
7.04197e-13
3.70826e-13
1.82554e-13
2.51992e-13
2.75742e-13
1.40276e-13
1.69988e-13
1.50096e-13
-2.66932e-14
-9.19123e-15
-1.44473e-13
-1.64371e-13
7.3562e-13
2.08775e-12
1.52622e-12
7.29092e-13
3.83323e-13
1.88179e-13
2.44301e-13
2.86512e-13
1.43844e-13
1.73364e-13
1.55218e-13
-2.23352e-14
-8.13883e-15
-1.2762e-13
-1.39949e-13
7.31499e-13
2.01449e-12
1.52062e-12
7.4792e-13
3.90092e-13
1.99351e-13
2.47702e-13
2.73668e-13
1.51197e-13
1.75166e-13
1.39906e-13
-9.05861e-15
-1.51097e-14
-1.23333e-13
-7.67788e-14
)
;
    }
    inlet
    {
        type            calculated;
        value           nonuniform List<scalar> 
15
(
-1299.9
-1300.2
-1299.9
-1299.9
-1300.2
-1299.9
-1299.9
-1300.2
-1299.9
-1299.9
-1300.2
-1299.9
-1299.9
-1300.2
-1299.9
)
;
    }
    inletWalls
    {
        type            calculated;
        value           uniform 0;
    }
    outletInlet
    {
        type            calculated;
        value           nonuniform List<scalar> 
15
(
198.27
527.477
785.399
982.006
1128.54
1249.98
1367.11
1486.57
1606.74
1731.8
1879
2054.91
2138.08
1729.89
634.114
)
;
    }
}


// ************************************************************************* //
