/*--------------------------------*- C++ -*----------------------------------*\
| =========                 |                                                 |
| \\      /  F ield         | OpenFOAM: The Open Source CFD Toolbox           |
|  \\    /   O peration     | Version:  4.1                                   |
|   \\  /    A nd           | Web:      www.OpenFOAM.org                      |
|    \\/     M anipulation  |                                                 |
\*---------------------------------------------------------------------------*/
FoamFile
{
    version     2.0;
    format      ascii;
    class       volVectorField;
    location    "26";
    object      U;
}
// * * * * * * * * * * * * * * * * * * * * * * * * * * * * * * * * * * * * * //

dimensions      [0 1 -1 0 0 0 0];

internalField   nonuniform List<vector> 
225
(
(1.10746e-14 0.852194 15.7946)
(8.92003e-15 -4.89458 12.1215)
(-3.09634e-15 -4.19551 12.1321)
(2.93685e-15 -3.60119 11.9966)
(7.59561e-16 -3.00468 11.8778)
(-2.31738e-16 -2.55319 11.6992)
(1.96316e-15 -2.20881 11.4769)
(2.57334e-16 -1.96603 11.2116)
(2.77615e-18 -1.79855 10.916)
(1.035e-15 -1.71238 10.5882)
(-1.31975e-17 -1.83746 10.1561)
(-2.65072e-16 -2.28567 9.53762)
(3.39095e-16 -2.51302 8.96377)
(-5.64743e-17 -1.06552 8.91357)
(-9.38694e-18 1.76574 7.47091)
(1.53315e-14 -5.35014 22.493)
(1.53531e-14 -14.6049 21.394)
(-7.8889e-16 -13.2708 20.3411)
(2.52069e-15 -11.7697 19.5066)
(1.70168e-15 -11.1561 18.5044)
(-1.58026e-16 -10.6594 17.5174)
(2.09783e-15 -10.0901 16.5714)
(8.82916e-16 -9.52499 15.6236)
(-1.16159e-16 -8.96543 14.6638)
(9.28617e-16 -8.36731 13.6946)
(3.90256e-16 -7.75708 12.7179)
(-3.33337e-16 -7.30334 11.7194)
(1.4784e-16 -7.01704 10.6244)
(3.97226e-17 -5.73094 9.16115)
(2.81378e-18 -2.30499 4.58318)
(1.7641e-14 -7.71563 23.9802)
(1.62478e-14 -16.7731 24.6729)
(3.36799e-16 -13.7365 23.9372)
(3.83248e-15 -12.3062 22.6249)
(1.87449e-15 -11.6447 21.2414)
(7.0146e-16 -10.814 20.0013)
(3.04511e-15 -9.94025 18.7738)
(5.39421e-16 -9.1001 17.5247)
(5.58828e-16 -8.28337 16.2654)
(1.53648e-15 -7.47522 15.0263)
(1.66969e-16 -6.6676 13.8176)
(1.3378e-16 -5.84164 12.4301)
(5.77965e-16 -4.81388 10.2752)
(-6.28185e-17 -3.12623 6.68439)
(-2.31761e-17 -0.832091 1.68984)
(1.75529e-14 -8.50254 22.0462)
(1.57281e-14 -16.6211 24.332)
(8.78211e-16 -12.93 23.7971)
(3.96685e-15 -12.1536 21.9985)
(1.6376e-15 -11.4201 20.5028)
(1.52454e-15 -10.4936 19.1722)
(2.79102e-15 -9.63388 17.8167)
(4.62789e-16 -8.8236 16.459)
(9.40781e-16 -8.05363 15.123)
(1.2892e-15 -7.32376 13.8164)
(1.32521e-16 -6.55245 12.4394)
(4.19721e-16 -5.49085 10.583)
(5.31646e-16 -3.7852 7.50861)
(-9.33722e-17 -1.49359 2.76591)
(-8.08333e-16 0.15332 -1.77304)
(1.58734e-14 -8.4761 19.748)
(1.55864e-14 -16.3601 24.312)
(1.48859e-15 -13.099 23.6602)
(3.51854e-15 -12.628 21.5365)
(1.33506e-15 -11.8565 20.0248)
(1.43749e-15 -10.9574 18.6637)
(2.6112e-15 -10.1698 17.2587)
(5.01296e-16 -9.40277 15.8711)
(7.62168e-16 -8.65259 14.5236)
(1.03188e-15 -7.93051 13.2136)
(1.82608e-17 -7.16587 11.8292)
(1.8631e-16 -6.11612 9.99624)
(3.46421e-16 -4.42397 7.15547)
(-4.55985e-16 -2.30521 3.28778)
(-9.33398e-16 -0.787139 0.317649)
(1.43506e-14 -8.02186 17.5536)
(1.61797e-14 -16.0195 24.5277)
(3.26624e-15 -13.6434 24.0462)
(3.1014e-15 -12.9943 21.7651)
(1.55177e-15 -12.1264 20.2158)
(1.52126e-15 -11.2247 18.847)
(2.54193e-15 -10.4389 17.4341)
(8.73328e-16 -9.64886 16.0433)
(9.21967e-16 -8.86034 14.6933)
(9.84556e-16 -8.09324 13.3817)
(2.25945e-16 -7.2973 12.0171)
(3.29224e-16 -6.28456 10.2818)
(1.31928e-16 -4.73296 7.72083)
(1.631e-16 -2.75606 4.37234)
(7.98927e-16 -0.949328 1.29725)
(1.28676e-14 -7.33733 15.2534)
(1.66649e-14 -15.491 24.355)
(5.17131e-15 -14.0225 24.4218)
(2.98563e-15 -13.1278 22.0675)
(1.76374e-15 -12.1447 20.4401)
(1.67296e-15 -11.2358 19.0547)
(2.39511e-15 -10.4361 17.6437)
(1.23053e-15 -9.61981 16.2576)
(1.40366e-15 -8.81012 14.9066)
(1.09878e-15 -8.02719 13.5918)
(6.05006e-16 -7.22392 12.2368)
(8.58539e-16 -6.24023 10.5488)
(1.76754e-16 -4.78746 8.10741)
(-6.87021e-17 -2.91405 4.94703)
(1.91118e-15 -1.01081 1.79729)
(1.09799e-14 -6.55611 13.0328)
(1.67556e-14 -14.847 23.8163)
(6.75617e-15 -14.2639 24.6691)
(3.07226e-15 -13.2372 22.3215)
(1.85683e-15 -12.1674 20.5832)
(1.65393e-15 -11.2657 19.1667)
(2.33177e-15 -10.4651 17.7586)
(1.46464e-15 -9.64316 16.3766)
(1.46061e-15 -8.83495 15.0246)
(1.28176e-15 -8.05528 13.7073)
(7.53089e-16 -7.25497 12.3576)
(7.9983e-16 -6.28686 10.6995)
(2.83791e-16 -4.89097 8.33089)
(1.00809e-18 -3.08519 5.26759)
(7.85959e-16 -1.12217 2.04387)
(9.42049e-15 -5.7782 11.1235)
(1.65534e-14 -14.1745 23.0906)
(7.93327e-15 -14.4413 24.8463)
(3.43823e-15 -13.3963 22.6148)
(1.9805e-15 -12.2528 20.7554)
(1.46398e-15 -11.3493 19.2955)
(2.24016e-15 -10.5477 17.8904)
(1.65614e-15 -9.72546 16.511)
(1.24937e-15 -8.91949 15.1562)
(1.36728e-15 -8.14028 13.8352)
(8.47118e-16 -7.33998 12.4864)
(4.64976e-16 -6.38017 10.8513)
(4.14145e-16 -5.02352 8.54672)
(2.19029e-17 -3.26577 5.55829)
(-4.36878e-16 -1.2375 2.24759)
(7.86954e-15 -5.08478 9.59894)
(1.61526e-14 -13.5191 22.3)
(8.98983e-15 -14.5349 24.9523)
(3.82263e-15 -13.5531 22.9353)
(2.09412e-15 -12.3447 20.9698)
(1.36675e-15 -11.425 19.4566)
(1.99318e-15 -10.6173 18.0505)
(1.70707e-15 -9.79442 16.672)
(1.26157e-15 -8.98824 15.3136)
(1.21975e-15 -8.20624 13.9874)
(8.86912e-16 -7.40476 12.6356)
(4.25641e-16 -6.4515 11.0133)
(2.0213e-17 -5.12524 8.75511)
(1.56491e-16 -3.40652 5.81949)
(-6.80092e-16 -1.319 2.43083)
(6.57978e-15 -4.53845 8.46181)
(1.56957e-14 -12.9255 21.5502)
(9.6559e-15 -14.5349 24.9758)
(4.19772e-15 -13.6654 23.221)
(2.26573e-15 -12.4128 21.1811)
(1.19794e-15 -11.4735 19.612)
(1.90024e-15 -10.6589 18.2003)
(1.79165e-15 -9.83688 16.8208)
(9.97348e-16 -9.03196 15.4584)
(1.18934e-15 -8.24847 14.1268)
(1.02057e-15 -7.44642 12.769)
(1.86546e-17 -6.49767 11.1497)
(-7.17357e-17 -5.1925 8.9183)
(-6.81827e-16 -3.50177 6.01039)
(-1.2103e-15 -1.36369 2.54239)
(5.86228e-15 -4.17017 7.70227)
(1.52548e-14 -12.4377 20.9276)
(1.00722e-14 -14.4734 24.9366)
(4.56465e-15 -13.7316 23.4379)
(2.44202e-15 -12.4593 21.3594)
(1.18044e-15 -11.5039 19.7405)
(1.83892e-15 -10.6833 18.3207)
(1.8921e-15 -9.8636 16.9391)
(9.32072e-16 -9.06119 15.5729)
(1.1825e-15 -8.27759 14.2363)
(1.03488e-15 -7.47485 12.8708)
(-1.85552e-16 -6.52675 11.2464)
(-9.31401e-17 -5.23297 9.02635)
(-1.01054e-15 -3.55793 6.12602)
(-1.40507e-15 -1.37723 2.57253)
(5.32141e-15 -3.97314 7.27925)
(1.47626e-14 -12.0681 20.461)
(1.03928e-14 -14.3844 24.8626)
(4.82879e-15 -13.76 23.5829)
(2.56718e-15 -12.4877 21.4971)
(1.2638e-15 -11.5231 19.8407)
(1.71481e-15 -10.6967 18.4122)
(2.00576e-15 -9.88012 17.0281)
(9.36076e-16 -9.08075 15.6587)
(1.17694e-15 -8.29742 14.3172)
(1.08126e-15 -7.49331 12.9424)
(-2.32738e-16 -6.54228 11.3064)
(-6.36371e-17 -5.25108 9.08454)
(-9.17655e-16 -3.57881 6.17543)
(-1.28592e-15 -1.36506 2.53866)
(5.04525e-15 -3.90349 7.10993)
(1.44406e-14 -11.8312 20.1816)
(1.05429e-14 -14.2999 24.7901)
(5.03544e-15 -13.7667 23.6686)
(2.64099e-15 -12.5019 21.5898)
(1.3027e-15 -11.532 19.9096)
(1.7063e-15 -10.7004 18.4746)
(1.96737e-15 -9.8855 17.0884)
(9.95787e-16 -9.08798 15.7174)
(1.21936e-15 -8.30419 14.3731)
(1.0536e-15 -7.49798 12.9909)
(-1.54619e-16 -6.54333 11.3437)
(-2.73149e-17 -5.25354 9.11747)
(-9.24428e-16 -3.58363 6.20159)
(-9.68823e-16 -1.35001 2.50626)
(5.04928e-15 -4.03894 7.28589)
(1.39391e-14 -11.6268 19.9517)
(1.0534e-14 -14.1917 24.668)
(5.17776e-15 -13.7464 23.7083)
(2.69404e-15 -12.5065 21.6737)
(1.38727e-15 -11.5392 19.9773)
(1.71481e-15 -10.6994 18.535)
(1.88648e-15 -9.88684 17.1437)
(1.05557e-15 -9.09036 15.7693)
(1.21266e-15 -8.30481 14.4182)
(9.63362e-16 -7.48981 13.0146)
(-5.68327e-17 -6.51519 11.3279)
(-1.04602e-16 -5.20586 9.06105)
(-8.63997e-16 -3.5016 6.08275)
(-5.12465e-16 -1.2525 2.30729)
)
;

boundaryField
{
    inletFace
    {
        type            zeroGradient;
    }
    inlet
    {
        type            fixedValue;
        value           uniform (0 8.7 15);
    }
    inletWalls
    {
        type            noSlip;
    }
    outletInlet
    {
        type            zeroGradient;
    }
}


// ************************************************************************* //
