/*--------------------------------*- C++ -*----------------------------------*\
| =========                 |                                                 |
| \\      /  F ield         | OpenFOAM: The Open Source CFD Toolbox           |
|  \\    /   O peration     | Version:  4.1                                   |
|   \\  /    A nd           | Web:      www.OpenFOAM.org                      |
|    \\/     M anipulation  |                                                 |
\*---------------------------------------------------------------------------*/
FoamFile
{
    version     2.0;
    format      ascii;
    class       volScalarField;
    location    "12";
    object      p;
}
// * * * * * * * * * * * * * * * * * * * * * * * * * * * * * * * * * * * * * //

dimensions      [0 2 -2 0 0 0 0];

internalField   nonuniform List<scalar> 
6785
(
670.811
616.615
564.748
516.04
470.874
428.564
388.926
351.666
316.347
282.705
251.358
222.931
194.076
159.133
128.638
197.668
175.796
171.108
167.583
162.218
156.701
151.747
147.547
144.256
141.988
140.95
141.574
143.862
146.01
145.962
99.5459
93.9035
99.843
103.564
106.334
109.653
113.254
116.902
120.532
123.996
127.08
129.872
132.737
135.06
135.645
144.047
143.958
148.351
148.469
148.312
148.363
148.139
147.653
146.983
146.155
145.139
143.959
142.927
142.576
142.809
157.369
158.277
160.016
158.276
156.977
155.907
154.631
153.362
152.217
151.238
150.439
149.792
149.293
149.2
149.323
146.89
147.662
148.769
148.296
148.397
148.622
148.736
148.938
149.235
149.584
149.965
150.347
150.607
150.857
150.783
142.822
143.612
145.069
145.95
146.778
147.397
147.875
148.353
148.793
149.161
149.454
149.674
149.689
149.717
149.276
144.967
145.506
146.955
148.138
148.702
148.967
149.14
149.292
149.387
149.43
149.434
149.415
149.192
149.125
148.58
147.292
147.404
148.461
149.447
149.563
149.514
149.468
149.421
149.352
149.274
149.194
149.127
148.807
148.739
148.18
147.778
147.635
148.317
149.139
149.036
148.914
148.829
148.744
148.652
148.57
148.487
148.433
148.065
148
147.43
146.791
146.617
147.101
147.906
147.802
147.753
147.721
147.671
147.614
147.564
147.497
147.468
147.076
147.025
146.439
144.884
144.816
145.251
146.109
146.108
146.197
146.271
146.314
146.347
146.377
146.368
146.392
146.015
146.016
145.454
142.953
142.932
143.392
144.36
144.479
144.705
144.891
145.048
145.195
145.347
145.442
145.587
145.271
145.363
144.917
138.768
139.228
140.124
141.388
141.903
142.659
143.4
144.144
144.882
145.562
146.161
146.658
146.698
147.051
146.484
143.614
141.47
139.845
139.034
137.893
137.733
138.115
138.979
140.077
141.405
142.726
144.005
145.113
146.707
147.766
195.912
195.828
195.933
195.882
195.977
195.891
196.024
195.88
195.937
195.969
196.194
195.905
195.696
196.007
195.807
195.752
195.828
196.12
195.755
195.601
195.832
195.547
195.47
195.663
195.896
195.589
195.471
195.632
195.932
195.558
195.627
195.846
195.532
195.437
195.69
196.03
195.691
195.854
196.088
195.787
195.671
195.89
196.186
195.959
195.855
195.988
196.289
196.041
196.212
196.378
196.151
196.087
196.193
196.4
196.259
196.21
196.237
196.467
196.352
196.422
196.579
196.498
196.479
196.456
196.667
196.637
196.624
196.814
196.81
196.856
196.835
196.903
196.952
197.024
196.657
196.009
196.114
194.762
191.648
191.921
192.355
191.749
190.356
194.026
186.369
186.847
186.644
186.338
186.134
186.21
185.836
184.539
187.527
177.88
177.893
178.848
179.511
179.502
179.936
179.707
178.283
179.567
171.467
171.012
170.502
170.505
170.915
171.136
171.366
171.012
169.033
166.307
159.344
158.28
157.074
156.072
156.319
157.374
157.191
154.533
145.315
142.807
142.186
140.898
138.969
137.665
137.547
138.115
136.719
127.27
124.014
120.58
118.494
116.521
114.45
112.979
111.84
110.694
103.206
106.906
102.615
98.464
94.038
90.2208
87.0493
84.5318
83.2038
83.5221
73.4639
82.1074
78.1426
75.7537
73.3392
70.0073
66.1239
65.6832
67.9435
51.2466
67.9412
66.219
64.4774
65.3131
64.4668
64.7346
65.094
65.3097
65.5668
65.5696
65.8193
66.0672
66.165
66.3342
66.4384
66.5671
66.6638
66.6369
66.7869
66.761
66.9533
67.002
66.6536
67.0347
67.4475
67.2511
67.0094
66.2855
67.0932
68.026
67.047
66.7373
65.911
66.9294
66.7802
63.639
66.4388
68.4655
64.9854
63.5993
61.7676
65.0412
67.6509
62.716
62.0409
60.4674
63.2317
63.8092
57.7157
63.111
65.8979
59.7434
59.1383
57.8399
62.2756
65.3268
59.9412
60.3803
59.6258
62.7583
63.9906
60.2562
64.1287
65.301
62.4891
63.4141
62.8832
64.8545
64.6401
62.4644
62.1422
59.8764
60.2847
59.2362
55.4971
51.8358
46.7441
40.9854
32.6304
22.4547
12.9416
3.98606
-0.0213791
-0.0177158
-0.0179804
-0.0153885
-0.0127927
-0.0099645
-0.00687953
-0.00348384
0.000255678
0.00437278
0.00887176
0.014161
0.0208501
0.0286368
0.0380943
0.0496764
0.0640953
0.0821251
0.104855
0.13349
0.16988
0.215833
0.273844
0.346941
0.438752
0.553784
0.697363
0.875981
1.09734
1.37072
1.70732
2.12052
2.6263
3.24293
3.99096
4.89136
5.96118
7.20537
8.60183
10.0741
11.4511
12.4405
11.8826
6.0427
4.10745
-1.68822
-2.91542
-8.84773
-13.0689
-11.91
-6.34773
-3.84964
-7.14277
-10.9377
-10.3993
-5.76431
-0.0854295
1.27595
-3.26578
-4.79802
-4.94516
-4.91745
-4.7999
-4.51619
-4.06086
-3.46248
-2.80879
-2.18518
-1.59012
-1.03908
-0.470831
-0.288876
-0.0048666
-0.20213
-0.504986
-2.09079
-1.73964
0.476676
6.25038
-0.0311387
-0.020354
-0.0169504
-0.00757247
0.0024499
0.0134484
0.0253737
0.0383405
0.052369
0.0676124
0.0841939
0.103252
0.125567
0.150131
0.178288
0.210911
0.248979
0.293639
0.34663
0.409768
0.485986
0.577846
0.689101
0.824412
0.98928
1.19067
1.43709
1.73905
2.1092
2.56345
3.12145
3.8076
4.65205
5.69057
6.96557
8.52338
10.4078
12.6464
15.2243
18.0361
20.8026
22.9162
22.5003
16.7781
11.2727
4.25345
-0.689071
-10.1553
-18.3558
-20.6809
-16.2756
-13.2093
-16.2483
-20.8674
-21.1413
-15.6057
-6.50375
-2.89435
-9.70398
-13.8811
-14.6775
-14.6496
-14.2869
-13.4902
-12.2052
-10.3481
-7.93783
-5.16954
-2.55942
-0.79736
0.0609973
-0.00627454
0.190719
-0.198957
-0.355456
-1.10196
0.809484
5.91577
17.4248
-0.0185613
0.000868082
0.010666
0.0284512
0.0477523
0.0692696
0.0926241
0.118033
0.145539
0.175637
0.209138
0.247362
0.290084
0.337402
0.390922
0.452155
0.522093
0.602434
0.69538
0.803507
0.930436
1.07952
1.25533
1.46365
1.71115
2.00602
2.35838
2.78042
3.28648
3.89452
4.62599
5.50721
6.5697
7.84909
9.38589
11.2206
13.3843
15.8808
18.653
21.5252
24.0991
25.5197
23.6868
17.9068
12.2293
4.72766
-1.28492
-10.6485
-18.7484
-20.7367
-16.134
-13.3472
-17.0478
-22.1638
-23.1529
-18.3982
-10.4478
-8.8374
-17.623
-22.7032
-23.9801
-24.1732
-23.5369
-22.1466
-19.9942
-17.0566
-13.4281
-9.33431
-5.34618
-2.31022
-0.609231
-0.216295
0.20173
-0.170939
-0.283893
-0.0910335
3.84817
11.7357
26.9957
-0.00876873
0.0192621
0.0364921
0.0629978
0.0918375
0.124096
0.159258
0.197575
0.239222
0.285071
0.336808
0.394997
0.458673
0.530375
0.61114
0.702923
0.807148
0.926159
1.06243
1.21942
1.40126
1.61229
1.85782
2.14459
2.48031
2.87414
3.33727
3.88286
4.5261
5.28516
6.18101
7.23824
8.48439
9.94744
11.6556
13.6292
15.8681
18.3292
20.8873
23.2726
24.9622
24.9671
21.8239
16.5305
11.4026
3.72534
-2.39419
-10.9089
-17.4716
-17.7717
-12.5648
-10.7239
-15.8947
-22.0278
-23.8729
-20.6661
-15.5419
-17.2425
-26.939
-31.7848
-33.2689
-33.4933
-32.5902
-30.5879
-27.5844
-23.62
-18.7921
-13.3201
-7.86621
-3.54583
-1.08332
-0.272662
0.171701
-0.145821
-0.610934
-0.140178
5.93361
16.5878
34.7145
-0.00289812
0.0330793
0.0581776
0.0932721
0.131438
0.174013
0.22056
0.271336
0.326741
0.387822
0.45631
0.532319
0.615846
0.710299
0.81643
0.936216
1.07207
1.22665
1.40275
1.60469
1.83673
2.10408
2.41269
2.77002
3.18439
3.66557
4.22518
4.8765
5.63466
6.51682
7.54193
8.73079
10.1041
11.6797
13.4698
15.4708
17.648
19.9101
22.0675
23.7723
24.4309
23.1459
19.5488
14.9293
10.219
2.92054
-2.77269
-10.122
-14.9354
-13.7835
-9.13258
-9.43328
-16.4746
-23.7084
-26.3803
-25.0463
-23.0451
-27.4228
-36.6807
-40.8992
-42.4979
-42.6213
-41.4199
-38.7794
-34.9376
-30.027
-24.147
-17.464
-10.6268
-5.00564
-1.65207
-0.347763
0.15594
-0.142655
-1.02147
-0.57804
7.12728
20.115
40.1079
0.00201208
0.0454918
0.0787625
0.122297
0.169704
0.222491
0.280282
0.343411
0.412514
0.488664
0.572968
0.665965
0.769173
0.885265
1.01543
1.16168
1.3272
1.51485
1.72792
1.97139
2.24946
2.56802
2.93358
3.3541
3.83835
4.3965
5.0402
5.78242
6.63749
7.62102
8.74917
10.038
11.5006
13.1448
14.9666
16.9399
18.9993
21.0131
22.7434
23.7964
23.583
21.4901
18.053
13.8049
9.40453
2.88103
-2.13246
-8.15978
-11.6082
-10.0233
-7.29743
-10.3415
-18.9389
-26.6151
-29.9352
-30.6578
-31.5188
-37.5047
-45.8526
-49.7436
-51.5619
-51.5441
-50.0171
-46.7327
-42.0765
-36.2705
-29.4227
-21.6141
-13.4338
-6.534
-2.22282
-0.412385
0.205076
-0.153915
-1.29249
-0.696126
8.05412
22.753
44.1171
0.00737497
0.0582669
0.100082
0.152083
0.208806
0.271758
0.340684
0.416055
0.498723
0.589866
0.690315
0.801075
0.924285
1.06206
1.21617
1.38894
1.58384
1.80411
2.05365
2.33796
2.66125
3.02991
3.45095
3.9327
4.48438
5.1165
5.84088
6.67024
7.61808
8.69842
9.92476
11.3086
12.8564
14.5666
16.4211
18.3749
20.3375
22.1466
23.5328
24.0874
23.2862
20.8753
17.7643
13.5659
9.35494
3.63785
-0.573144
-5.49505
-8.24641
-7.44994
-7.3719
-12.8307
-22.186
-29.6409
-33.6179
-36.5303
-39.7574
-46.535
-54.142
-58.2476
-60.4057
-60.2418
-58.3757
-54.4622
-49.021
-42.3571
-34.6158
-25.7759
-16.3343
-8.18836
-2.84106
-0.485291
0.285726
-0.218706
-1.39859
-0.328987
9.01173
24.8934
46.2481
0.0127979
0.071187
0.122079
0.182967
0.2494
0.3227
0.402828
0.490431
0.586575
0.692638
0.809698
0.939035
1.08274
1.24288
1.42161
1.62161
1.84639
2.09972
2.38623
2.7119
3.08113
3.50084
3.97855
4.5229
5.14352
5.85131
6.65836
7.5774
8.62147
9.80337
11.1344
12.6223
14.2683
16.062
17.9739
19.9433
21.8596
23.5379
24.6902
24.9122
23.7672
21.2855
18.3124
14.0661
9.9453
4.90567
1.36356
-2.86797
-5.57948
-6.39857
-8.82713
-15.7847
-25.144
-32.3451
-37.2664
-42.3286
-47.367
-54.4634
-61.7023
-66.4527
-68.9882
-68.6917
-66.493
-61.9854
-55.7901
-48.2887
-39.6977
-29.9014
-19.2963
-9.94804
-3.51451
-0.562146
0.371886
-0.373388
-1.37989
0.377949
9.89362
26.6984
47.6052
0.0177321
0.0835221
0.143961
0.214267
0.29095
0.375056
0.466765
0.566883
0.676682
0.797737
0.931509
1.07966
1.24427
1.42755
1.63184
1.86007
2.11579
2.40313
2.72751
3.09542
3.51152
3.98345
4.51932
5.12822
5.82022
6.60661
7.49979
8.51266
9.65806
10.948
12.3919
13.9949
15.7532
17.6494
19.6436
21.6618
23.5773
25.1874
26.1928
26.2019
24.8629
22.4044
19.2814
14.9387
10.8581
6.37917
3.16668
-0.757575
-3.90477
-6.45664
-10.6645
-18.14
-27.1487
-34.6148
-40.9152
-47.8928
-54.2889
-61.5101
-68.7644
-74.3841
-77.2751
-76.8732
-74.3652
-69.3095
-62.3893
-54.0602
-44.639
-33.9525
-22.296
-11.8018
-4.25344
-0.633565
0.473965
-0.459469
-1.23335
1.2579
10.5255
28.206
48.6862
0.0223027
0.0951897
0.165414
0.245449
0.332765
0.428142
0.531933
0.645034
0.768867
0.905179
1.05577
1.22273
1.40843
1.61527
1.84582
2.10322
2.39108
2.71379
3.07745
3.48888
3.95307
4.47842
5.07377
5.74882
6.5142
7.38174
8.36411
9.47448
10.7256
12.1289
13.6924
15.4187
17.3
19.3122
21.4062
23.4961
25.4409
27.0238
27.9365
27.8007
26.3368
23.8937
20.3902
16.0436
11.9954
7.91554
4.68816
0.79538
-2.96645
-6.82818
-11.9485
-19.2794
-28.0244
-36.4461
-44.5166
-53.0881
-60.541
-67.9066
-75.4843
-82.0244
-85.2395
-84.769
-81.9856
-76.4294
-68.8073
-59.6526
-49.401
-37.8834
-25.2972
-13.7222
-5.04261
-0.676381
0.642691
-0.324468
-0.895476
2.05676
10.9133
29.4412
49.7623
0.0269351
0.106641
0.186734
0.276568
0.374656
0.481576
0.597849
0.724411
0.862764
1.01478
1.18252
1.36846
1.57531
1.80583
2.06292
2.35
2.67086
3.03019
3.43472
3.89118
4.40505
4.98544
5.64182
6.38459
7.22508
8.17571
9.24958
10.4601
11.8202
13.3406
15.0282
16.8831
18.8938
21.0301
23.2342
25.4087
27.3995
28.9765
29.8221
29.5636
27.9609
25.3591
21.4535
17.169
13.2084
9.39686
6.0061
2.01643
-2.25173
-6.82847
-12.2033
-19.1779
-28.0292
-37.977
-48.0402
-57.8971
-66.1971
-73.8983
-81.9479
-89.3334
-92.8573
-92.3645
-89.3434
-83.3271
-75.0182
-65.0342
-53.9442
-41.6526
-28.2633
-15.6777
-5.86167
-0.67243
0.913696
0.0652132
-0.371592
2.71608
11.2404
30.4845
50.5891
0.0319153
0.118373
0.208441
0.308075
0.416932
0.535454
0.664398
0.804751
0.958061
1.12628
1.31168
1.51698
1.74523
1.99958
2.28333
2.60025
2.95448
3.35127
3.79785
4.30054
4.86576
5.503
6.22233
7.03476
7.95228
8.98793
10.1553
11.4681
12.9393
14.5792
16.3935
18.3799
20.5231
22.7871
25.1055
27.3696
29.412
30.9881
31.7645
31.3547
29.5362
26.6985
22.5249
18.2387
14.3125
10.7057
7.20662
3.15795
-1.34083
-6.1475
-11.4736
-18.2532
-27.6547
-39.4481
-51.5267
-62.4181
-71.3877
-79.6771
-88.2054
-96.2756
-100.111
-99.6474
-96.4209
-89.9713
-80.9878
-70.1696
-58.2395
-45.2306
-31.1592
-17.6406
-6.69382
-0.617348
1.29738
0.668655
0.312081
3.32813
11.739
31.4938
51.0632
0.0372617
0.130624
0.230909
0.340436
0.460082
0.590188
0.731832
0.886107
1.05464
1.23947
1.44303
1.66824
1.91839
2.19696
2.50763
2.85454
3.24234
3.67699
4.16611
4.71571
5.33352
6.02919
6.81332
7.69751
8.69431
9.81725
11.0804
12.4977
14.082
15.8433
17.7858
19.9051
22.1817
24.5738
27.0065
29.3596
31.451
33.0178
33.7
33.075
30.9554
27.8492
23.5789
19.2895
15.3602
11.8723
8.36739
4.40421
-0.0456934
-4.82846
-10.128
-17.0678
-27.3726
-41.0629
-55.0245
-66.7865
-76.2984
-85.3094
-94.279
-102.843
-106.995
-106.605
-103.192
-96.3231
-86.6819
-75.0381
-62.2816
-48.609
-33.957
-19.5843
-7.52158
-0.5036
1.80013
1.43939
1.14645
4.03243
12.5856
32.57
51.3936
0.0428241
0.143346
0.254215
0.373875
0.504464
0.646219
0.800583
0.968817
1.15269
1.35437
1.57647
1.82208
2.09471
2.39808
2.73621
3.11356
3.53526
4.00802
4.53971
5.13656
5.80759
6.56265
7.41293
8.3706
9.44879
10.6614
12.0229
13.5472
15.2472
17.132
19.2047
21.458
23.8684
26.3881
28.9334
31.372
33.5054
35.048
35.6056
34.7246
32.3506
28.8069
24.494
20.2734
16.4053
12.984
9.57707
5.8537
1.62452
-3.10091
-8.5991
-16.0753
-27.4659
-42.8931
-58.5309
-71.1125
-81.1263
-90.8101
-100.162
-109.056
-113.51
-113.227
-109.631
-102.351
-92.0793
-79.6473
-66.0969
-51.7991
-36.6328
-21.4778
-8.31946
-0.32082
2.43375
2.36812
2.14212
4.96104
13.8546
33.7232
51.6589
0.0484405
0.156354
0.278216
0.408355
0.550189
0.703817
0.871044
1.05333
1.25262
1.47127
1.71212
1.97847
2.27405
2.60285
2.96912
3.37761
3.83385
4.34508
4.9194
5.56392
6.28842
7.10328
8.02034
9.05248
10.2135
11.5177
12.9798
14.6139
16.4324
18.4436
20.6489
23.0382
25.5838
28.2313
30.8881
33.409
35.5774
37.0806
37.4861
36.3186
33.668
29.7136
25.3798
21.1712
17.4462
14.1367
10.9195
7.53496
3.56519
-1.2147
-7.20399
-15.5067
-28.0016
-44.8871
-61.9909
-75.4452
-86.0028
-96.2215
-105.846
-114.936
-119.665
-119.509
-115.732
-108.051
-97.1884
-84.0332
-69.7306
-54.8166
-39.1595
-23.29
-9.06698
-0.0639655
3.21272
3.47792
3.34846
6.2205
15.5182
34.9604
51.8564
0.0540195
0.169475
0.302699
0.443687
0.597153
0.763022
0.943418
1.13998
1.35486
1.59062
1.85034
2.13761
2.45645
2.81114
3.20619
3.64659
4.13821
4.68858
5.30605
5.99887
6.77717
7.65207
8.63614
9.74304
10.9874
12.3842
13.9484
15.6942
17.6336
19.7739
22.1148
24.643
27.3261
30.103
32.8718
35.4736
37.6714
39.1198
39.339
37.8311
34.8298
30.6201
26.272
22.1228
18.5423
15.3927
12.4539
9.43341
5.66474
0.655227
-6.08373
-15.3841
-28.8986
-46.9392
-65.3274
-79.7613
-90.951
-101.568
-111.337
-120.504
-125.473
-125.459
-121.509
-113.448
-102.047
-88.2414
-73.2158
-57.6599
-41.5037
-24.9901
-9.74638
0.274239
4.15615
4.81108
4.82862
7.86352
17.4835
36.2132
52.1363
0.0595601
0.182631
0.327506
0.479667
0.645154
0.823693
1.01768
1.2289
1.4597
1.71282
1.99161
2.29996
2.64224
3.0231
3.44738
3.92034
4.44816
5.03854
5.70011
6.44207
7.27488
8.21035
9.26174
10.4435
11.7712
13.2606
14.9272
16.7855
18.847
21.1183
23.5968
26.2663
29.0895
31.9981
34.8803
37.5622
39.7826
41.1541
41.1337
39.2255
35.9302
31.5481
27.1768
23.1274
19.7606
16.7963
14.1929
11.5093
7.83844
2.43083
-5.23023
-15.5991
-30.0192
-48.9538
-68.4726
-83.9909
-95.9108
-106.831
-116.637
-125.78
-130.955
-131.1
-127.004
-118.586
-106.697
-92.2898
-76.5409
-60.2982
-43.6284
-26.5472
-10.3423
0.706582
5.28925
6.40689
6.63252
9.87095
19.6455
37.4902
52.4871
0.0651387
0.195871
0.352607
0.516186
0.694011
0.885615
1.09365
1.32
1.56718
1.83809
2.13631
2.466
2.83194
3.23919
3.69297
4.19891
4.76351
5.39468
6.10139
6.8935
7.78189
8.77894
9.89845
11.1556
12.5667
14.1485
15.9172
17.8876
20.0712
22.4735
25.0903
27.9021
30.8665
33.9079
36.9037
39.6631
41.8959
43.1651
42.8711
40.6348
37.0054
32.49
28.1801
24.1878
21.1068
18.3604
16.1078
13.7077
10.0271
4.10881
-4.54987
-15.9967
-31.2354
-50.8755
-71.3846
-88.054
-100.799
-111.965
-121.734
-130.791
-136.141
-136.473
-132.268
-123.513
-111.154
-96.1426
-79.6494
-62.6924
-45.5104
-27.9354
-10.8438
1.24294
6.62709
8.28587
8.7824
12.1781
21.9174
38.7808
52.7627
0.0708763
0.209348
0.378103
0.553272
0.743656
0.948627
1.1711
1.41305
1.67713
1.96639
2.28454
2.63604
3.026
3.45992
3.94348
4.48267
5.0844
5.7569
6.50956
7.35277
8.29793
9.35784
10.5467
11.8804
13.3756
15.05
16.9205
19.0023
21.307
23.8393
26.5934
29.5464
32.651
35.8241
38.9308
41.7615
43.9927
45.1367
44.5579
42.0505
37.9839
33.459
29.196
25.3701
22.5374
20.0672
18.1444
15.9657
12.1947
5.72632
-3.92257
-16.4297
-32.4536
-52.686
-74.0469
-91.8825
-105.542
-116.941
-126.607
-135.568
-141.066
-141.62
-137.345
-128.257
-115.399
-99.7322
-82.4866
-64.8368
-47.156
-29.1427
-11.2467
1.88153
8.15918
10.445
11.269
14.7256
24.2479
40.0441
53.2835
0.0768939
0.223258
0.404183
0.591072
0.794165
1.0127
1.2499
1.50785
1.78933
2.09751
2.43621
2.81011
3.22464
3.68572
4.19944
4.77222
5.41137
6.12554
6.92465
7.81965
8.82251
9.9465
11.2062
12.6178
14.1986
15.9665
17.9392
20.1322
22.557
25.2179
28.1072
31.199
34.441
37.7419
40.9541
43.8457
46.056
47.0428
46.138
43.2879
38.9604
34.4932
30.2202
26.6766
24.0242
21.8697
20.2442
18.2261
14.3296
7.33528
-3.23656
-16.7797
-33.6101
-54.3847
-76.4567
-95.4209
-110.071
-121.734
-131.25
-140.143
-145.762
-146.564
-142.251
-132.813
-119.389
-103.016
-85.054
-66.7712
-48.5855
-30.1674
-11.5526
2.60943
9.85998
12.8604
14.0617
17.4905
26.6254
41.3759
54.0281
0.0832752
0.237781
0.431064
0.629811
0.845729
1.07796
1.33007
1.6043
1.90359
2.2312
2.59106
2.98802
3.42781
3.91671
4.46119
5.06809
5.74509
6.50129
7.34719
8.29438
9.35552
10.5444
11.8762
13.3672
15.0352
16.8982
18.9742
21.279
23.8239
26.6123
29.635
32.8629
36.2384
39.6618
42.971
45.9079
48.0659
48.8355
47.5343
44.3906
40.0229
35.4639
31.347
28.0521
25.575
23.7272
22.3683
20.464
16.4438
8.99099
-2.39979
-16.9548
-34.6535
-55.9689
-78.6124
-98.6191
-114.324
-126.31
-135.675
-144.54
-150.255
-151.3
-146.974
-137.158
-123.105
-106.024
-87.4092
-68.5355
-49.7991
-31.0041
-11.7645
3.40692
11.6928
15.4975
17.1215
20.479
29.0686
42.8169
54.7455
0.090041
0.253039
0.45893
0.669729
0.898609
1.14465
1.41178
1.70247
2.01984
2.36729
2.74884
3.1695
3.63526
4.15273
4.72875
5.37049
6.08601
6.88482
7.77795
8.77767
9.8974
11.1517
12.5562
14.1277
15.8843
17.8441
20.0251
22.4428
25.1085
28.0245
31.1796
34.5414
38.0468
41.5866
44.9819
47.943
50.0079
50.5015
48.8377
45.4679
41.0116
36.4525
32.5487
29.434
27.1835
25.6264
24.5121
22.6952
18.5702
10.7488
-1.33989
-16.8807
-35.5308
-57.422
-80.5085
-101.43
-118.239
-130.628
-139.883
-148.759
-154.558
-155.807
-151.489
-141.277
-126.576
-108.825
-89.5898
-70.1207
-50.7888
-31.6414
-11.8825
4.2547
13.6177
18.3156
20.4109
23.6971
31.6233
44.3381
55.8825
0.0971389
0.269064
0.487885
0.711016
0.953059
1.21303
1.49529
1.80256
2.13821
2.50579
2.90944
3.35434
3.84672
4.3935
5.00187
5.67935
6.43429
7.27655
8.21759
9.27032
10.449
11.7688
13.2464
14.899
16.7451
18.803
21.0903
23.6226
26.4103
29.4546
32.742
36.2364
39.8686
43.5186
46.9874
49.949
51.8832
52.0752
50.139
46.4514
41.9033
37.5616
33.7329
30.8465
28.8531
27.5815
26.7005
24.9593
20.7562
12.66
-0.00393715
-16.4974
-36.1843
-58.7145
-82.1398
-103.817
-121.754
-134.654
-143.863
-152.787
-158.669
-160.066
-155.777
-145.172
-129.856
-111.461
-91.5736
-71.5011
-51.5733
-32.0709
-11.9008
5.14001
15.598
21.2726
23.8993
27.1382
34.3343
45.9806
57.1552
0.104456
0.285797
0.517931
0.753771
1.00927
1.28338
1.5809
1.90486
2.25893
2.64684
3.07291
3.54247
4.062
4.63874
5.28025
5.99436
6.78973
7.67646
8.66637
9.77292
11.011
12.3968
13.9476
15.6814
17.6173
19.7739
22.1687
24.8166
27.7274
30.9008
34.3209
37.9474
41.7039
45.4577
48.9869
51.9245
53.6937
53.5577
51.3155
47.3286
42.8896
38.6776
34.8977
32.3362
30.5997
29.6236
28.9729
27.3043
23.052
14.764
1.63761
-15.7642
-36.5586
-59.8112
-83.5111
-105.771
-124.818
-138.371
-147.593
-156.608
-162.564
-164.066
-159.817
-148.841
-132.967
-113.92
-93.3416
-72.683
-52.1678
-32.2866
-11.8079
6.06075
17.6068
24.3254
27.5566
30.7759
37.2241
47.7455
58.5248
0.111846
0.303109
0.54897
0.797978
1.06732
1.35587
1.66886
2.00967
2.38231
2.79074
3.23946
3.73401
4.28111
4.88833
5.56361
6.31518
7.15194
8.08422
9.12414
10.2856
11.584
13.0364
14.6606
16.4759
18.5016
20.757
23.2594
26.0235
29.0578
32.3608
35.9137
39.6715
43.5495
47.4005
50.9752
53.8596
55.4131
54.8868
52.3093
48.2714
43.9519
39.7273
36.1687
33.9241
32.4536
31.7892
31.3665
29.7744
25.4961
17.0789
3.58559
-14.6671
-36.6119
-60.68
-84.6425
-107.326
-127.416
-141.763
-151.07
-160.203
-166.217
-167.794
-163.579
-152.268
-135.883
-116.181
-94.9097
-73.6719
-52.5825
-32.2851
-11.5862
7.02834
19.6339
27.4334
31.3496
34.5638
40.2831
49.6545
59.7955
0.119164
0.320838
0.580836
0.843521
1.12717
1.43056
1.75931
2.11721
2.50862
2.93777
3.40939
3.92922
4.50424
5.14235
5.85191
6.64156
7.52052
8.49935
9.59042
10.808
12.1679
13.6878
15.3863
17.2832
19.3988
21.7527
24.3626
27.2426
30.4003
33.8324
37.5173
41.4047
45.4004
49.3396
52.9404
55.733
57.0122
56.0983
53.2953
49.3039
44.9544
40.8392
37.621
35.6246
34.4495
34.107
33.9073
32.399
28.1058
19.5962
5.81038
-13.2233
-36.3241
-61.2963
-85.5643
-108.554
-129.568
-144.815
-154.302
-163.543
-169.601
-171.222
-167.037
-155.422
-138.561
-118.248
-96.2807
-74.4648
-52.8208
-32.0659
-11.2085
8.06872
21.6859
30.5572
35.243
38.4363
43.4552
51.5956
60.8755
0.126307
0.338845
0.613344
0.890221
1.18869
1.50738
1.85229
2.22759
2.63806
3.08821
3.58301
4.12842
4.73167
5.40103
6.14528
6.97349
7.89527
8.92144
10.0647
11.3395
12.7622
14.3508
16.1245
18.1037
20.3094
22.7619
25.4789
28.4741
31.7544
35.3144
39.1292
43.1428
47.2497
51.2642
54.8657
57.526
58.4995
57.2933
54.2964
50.2657
45.9523
42.1169
39.2023
37.4487
36.6017
36.5904
36.609
35.1864
30.8745
22.2838
8.25678
-11.478
-35.6996
-61.6437
-86.3035
-109.539
-131.33
-147.517
-157.273
-166.606
-172.691
-174.329
-170.189
-158.278
-140.974
-120.104
-97.4466
-75.0597
-52.8818
-31.6305
-10.6391
9.21868
23.7807
33.6573
39.1967
42.3165
46.6793
53.496
62.0363
0.133239
0.357051
0.646345
0.937892
1.25167
1.58617
1.9477
2.34082
2.77071
3.24221
3.76053
4.33187
4.96372
5.66468
6.444
7.31117
8.27621
9.3503
10.5464
11.8795
13.3662
15.0247
16.8748
18.9373
21.2338
23.7849
26.6087
29.7186
33.1201
36.8061
40.7478
44.8822
49.0908
53.1629
56.7352
59.2241
59.8749
58.4003
55.1956
51.1656
47.1024
43.5138
40.8576
39.3994
38.9081
39.238
39.471
38.1269
33.7791
25.0953
10.8553
-9.49569
-34.763
-61.7125
-86.8734
-110.352
-132.766
-149.864
-159.951
-169.39
-175.473
-177.118
-173.057
-160.843
-143.103
-121.723
-98.4027
-75.4599
-52.765
-30.9836
-9.84248
10.5162
25.9398
36.6982
43.1604
46.1325
49.9064
55.4044
62.9593
0.139994
0.375464
0.679766
0.986392
1.31594
1.66674
2.04537
2.45677
2.90651
3.39978
3.94205
4.53975
5.20063
5.93362
6.74839
7.65489
8.66356
9.78599
11.0356
12.4276
13.9791
15.7087
17.6363
19.7833
22.1714
24.8216
27.7521
30.976
34.4975
38.3071
42.3717
46.62
50.9177
55.0252
58.5317
60.7986
61.0792
59.3031
56.0293
52.1855
48.3587
44.9533
42.593
41.4751
41.3583
42.0361
42.4797
41.2005
36.7896
27.983
13.5368
-7.34716
-33.5516
-61.4981
-87.2709
-111.027
-133.943
-151.866
-162.325
-171.889
-177.948
-179.611
-175.676
-163.15
-144.932
-123.078
-99.1531
-75.6751
-52.4785
-30.1387
-8.79385
11.9891
28.1811
39.6547
47.0692
49.8247
53.0708
57.2353
63.5609
0.146666
0.394179
0.713631
1.03566
1.38135
1.7489
2.14511
2.57525
3.04531
3.56082
4.12754
4.75212
5.44254
6.20806
7.05874
8.00498
9.05765
10.2288
11.5321
12.9835
14.6005
16.402
18.4081
20.6405
23.1211
25.871
28.9085
32.2459
35.8862
39.8168
43.9995
48.3532
52.7246
56.84
60.2361
62.225
62.1415
60.1659
56.9772
53.2882
49.616
46.4145
44.4221
43.67
43.9412
44.9682
45.6175
44.3868
39.8805
30.9094
16.2452
-5.09772
-32.1087
-60.9991
-87.4793
-111.573
-134.907
-153.556
-164.387
-174.085
-180.122
-181.826
-178.075
-165.239
-146.463
-124.154
-99.7041
-75.7185
-52.0399
-29.1191
-7.48439
13.6498
30.5126
42.5114
50.8317
53.352
56.1085
58.9049
64.3924
0.153379
0.413351
0.748051
1.08573
1.44786
1.83252
2.24673
2.69606
3.1869
3.72515
4.31685
4.96887
5.68943
6.48806
7.3752
8.36168
9.45879
10.6789
12.0364
13.5475
15.2303
17.1041
19.1894
21.5079
24.0817
26.9319
30.0765
33.527
37.2847
41.3335
45.6288
50.0775
54.5038
58.5948
61.8345
63.5128
63.1485
61.0739
57.9761
54.3674
50.8317
47.9442
46.3543
45.9778
46.6493
48.0216
48.8698
47.6716
43.0368
33.8536
18.9446
-2.79805
-30.4773
-60.2183
-87.4707
-111.981
-135.666
-154.96
-166.137
-175.955
-182.006
-183.763
-180.262
-167.15
-147.708
-124.934
-100.052
-75.5995
-51.4631
-27.9477
-5.91755
15.4977
32.9278
45.258
54.3312
56.6989
58.9666
60.4271
65.1639
0.160258
0.433167
0.783199
1.13674
1.51551
1.91757
2.35011
2.81903
3.33108
3.89253
4.50975
5.18981
5.94115
6.77355
7.69779
8.7251
9.86718
11.1368
12.5487
14.1197
15.8684
17.8148
19.9796
22.3847
25.052
28.0027
31.2543
34.8174
38.6908
42.8543
47.2555
51.7866
56.2452
60.2761
63.3165
64.6715
64.0823
61.9488
58.8779
55.3812
52.0943
49.6019
48.3989
48.4004
49.4809
51.1887
52.229
51.0493
46.2567
36.8123
21.6208
-0.48054
-28.6962
-59.1661
-87.2121
-112.22
-136.187
-156.074
-167.589
-177.482
-183.607
-185.416
-182.219
-168.913
-148.706
-125.41
-100.172
-75.3147
-50.7494
-26.6393
-4.10393
17.5226
35.4081
47.8896
57.4485
59.8836
61.6019
61.8343
65.7237
0.167397
0.453799
0.819269
1.18884
1.58443
2.00411
2.45525
2.94405
3.47766
4.06275
4.70599
5.41469
6.19746
7.06432
8.02636
9.09518
10.2828
11.6025
13.0693
14.7004
16.5152
18.5342
20.7785
23.2701
26.031
29.0821
32.4401
36.1146
40.1015
44.3754
48.8741
53.4724
57.9374
61.8687
64.6643
65.6765
64.8682
62.6921
59.7348
56.487
53.5157
51.3879
50.5544
50.9408
52.4342
54.4658
55.693
54.5212
49.5484
39.7975
24.278
1.83963
-26.7981
-57.8623
-86.6786
-112.253
-136.437
-156.883
-168.775
-178.665
-184.928
-186.785
-183.905
-170.541
-149.522
-125.588
-100.026
-74.8527
-49.8992
-25.2022
-2.05925
19.709
37.9331
50.4218
60.1063
62.9585
63.9724
63.1521
65.8844
0.174831
0.475361
0.856425
1.24224
1.6548
2.09226
2.5622
3.07113
3.62658
4.23564
4.90533
5.64322
6.45806
7.36007
8.36062
9.47167
10.7056
12.076
13.5981
15.2898
17.1709
19.2623
21.586
24.1639
27.018
30.1688
33.6322
37.4162
41.5136
45.8922
50.4781
55.1254
59.5668
63.3561
65.8665
66.555
65.5933
63.4604
60.6958
57.7271
55.0506
53.2653
52.8089
53.5968
55.5025
57.8527
59.2623
58.0923
52.9254
42.8304
26.9343
4.1614
-24.8072
-56.3345
-85.8659
-112.061
-136.428
-157.373
-169.721
-179.521
-185.964
-187.885
-185.276
-172.01
-150.23
-125.508
-99.5888
-74.2025
-48.9221
-23.6449
0.197356
22.0436
40.4961
52.9187
62.3399
65.9929
66.001
64.3127
65.9478
0.182528
0.497879
0.894755
1.29706
1.72677
2.18221
2.67112
3.20036
3.77785
4.41113
5.10762
5.87515
6.72264
7.66046
8.70023
9.85421
11.1352
12.5569
14.1351
15.8878
17.8354
19.9993
22.402
25.0657
28.0124
31.2618
34.829
38.7199
42.9232
47.3992
52.0595
56.7341
61.1187
64.7263
66.9346
67.3764
66.3512
64.3135
61.7479
59.0321
56.6253
55.2051
55.1547
56.364
58.6805
61.3495
62.9372
61.7681
56.4022
45.9355
29.6153
6.49473
-22.7391
-54.6112
-84.7884
-111.649
-136.206
-157.537
-170.455
-180.095
-186.716
-188.741
-186.307
-173.254
-150.865
-125.225
-98.8578
-73.3494
-47.8228
-21.9754
2.64252
24.5232
43.115
55.5119
64.3657
69.0677
67.626
65.3302
66.1526
0.19041
0.521294
0.93425
1.35334
1.80045
2.27409
2.78217
3.33188
3.93157
4.58925
5.3128
6.11034
6.99097
7.96518
9.04479
10.2424
11.571
13.0449
14.6799
16.4942
18.5086
20.7451
23.2265
25.9755
29.0137
32.3603
36.0289
40.0229
44.3265
48.8903
53.6093
58.2856
62.5775
65.9679
67.8758
68.137
67.1194
65.193
62.8013
60.3284
58.2379
57.2187
57.5981
59.2402
61.9682
64.9546
66.7157
65.5514
59.9906
49.137
32.3509
8.85804
-20.6004
-52.7163
-83.4648
-111.033
-135.819
-157.4
-171.003
-180.473
-187.195
-189.368
-187.014
-174.18
-151.398
-124.797
-97.8487
-72.276
-46.5965
-20.1961
5.24814
27.1567
45.8363
58.3806
66.574
72.2578
68.8452
66.2653
66.152
0.198393
0.545495
0.97482
1.41103
1.87582
2.36792
2.89542
3.46581
4.08787
4.77011
5.5209
6.34873
7.26289
8.27397
9.39395
10.6357
12.0127
13.5393
15.2317
17.1084
19.19
21.4993
24.0592
26.8928
30.0215
33.4634
37.2305
41.323
45.7193
50.3592
55.1181
59.7673
63.9285
67.0693
68.6869
68.8154
67.823
66.0263
63.8232
61.6168
59.904
59.3219
60.1449
62.2253
65.3658
68.6617
70.5937
69.4417
63.6987
52.4554
35.1714
11.2757
-18.3902
-50.6671
-81.9036
-110.212
-135.289
-157.008
-171.359
-180.754
-187.435
-189.757
-187.44
-174.715
-151.747
-124.274
-96.5996
-70.9699
-45.2352
-18.3078
7.98433
29.9574
48.7291
61.6937
69.3768
75.578
69.6725
67.0348
66.1545
0.206429
0.570371
1.01634
1.46999
1.95277
2.46366
3.01087
3.6022
4.24683
4.95382
5.73203
6.59038
7.53838
8.58672
9.74748
11.0338
12.4596
14.0395
15.79
17.7295
19.879
22.2612
24.8995
27.8171
31.035
34.5701
38.4322
42.6175
47.0975
51.7991
56.5759
61.167
65.1609
68.0304
69.391
69.4259
68.463
66.8208
64.8463
62.9488
61.6516
61.5214
62.7922
65.3163
68.8651
72.4609
74.5651
73.4357
67.5296
55.9065
38.105
13.7754
-16.1004
-48.4765
-80.1022
-109.165
-134.61
-156.391
-171.455
-180.979
-187.485
-189.906
-187.643
-174.843
-151.819
-123.679
-95.1682
-69.4251
-43.7255
-16.3113
10.8216
32.9334
51.8677
65.5443
72.9309
78.9089
70.1987
67.6015
66.3302
0.214532
0.595858
1.05869
1.53008
2.03113
2.56112
3.12837
3.74096
4.40846
5.14042
5.94625
6.83535
7.81747
8.90338
10.1053
11.4365
12.9114
14.545
16.354
18.3569
20.5745
23.0298
25.7463
28.7472
32.053
35.679
39.6322
43.9036
48.4562
53.2025
57.9722
62.4727
66.2695
68.8697
70.048
70.0585
69.1628
67.692
65.9737
64.3931
63.5023
63.8123
65.5274
68.5024
72.4511
76.3434
78.6229
77.528
71.4828
59.5007
41.1756
16.3853
-13.7176
-46.1555
-78.0571
-107.851