/*--------------------------------*- C++ -*----------------------------------*\
| =========                 |                                                 |
| \\      /  F ield         | OpenFOAM: The Open Source CFD Toolbox           |
|  \\    /   O peration     | Version:  4.1                                   |
|   \\  /    A nd           | Web:      www.OpenFOAM.org                      |
|    \\/     M anipulation  |                                                 |
\*---------------------------------------------------------------------------*/
FoamFile
{
    version     2.0;
    format      ascii;
    class       volScalarField;
    location    "6";
    object      p;
}
// * * * * * * * * * * * * * * * * * * * * * * * * * * * * * * * * * * * * * //

dimensions      [0 2 -2 0 0 0 0];

internalField   nonuniform List<scalar> 
6785
(
566.183
512.786
460.955
412.544
367.653
325.636
286.281
249.277
214.183
180.819
149.878
121.739
92.7105
57.7918
28.6402
99.7475
77.4865
71.728
68.0179
62.5444
56.8374
51.6849
47.2964
43.8128
41.3542
40.163
40.6647
42.7611
44.6325
44.8928
-3.03213
-9.67421
-3.90491
0.243887
3.33535
6.93084
10.817
14.7541
18.6583
22.3739
25.719
28.7856
31.8621
34.5148
35.7492
43.1248
40.7078
45.2988
45.6187
45.6681
45.8802
45.7885
45.4089
44.8254
44.0655
43.1087
41.999
41.0881
40.9358
41.2461
59.5279
57.1897
58.735
56.6315
55.2113
53.9688
52.5604
51.1807
49.9255
48.8369
47.9388
47.2289
46.7531
46.721
46.9658
50.2717
48.2453
49.2215
48.012
47.8187
47.8101
47.7276
47.765
47.9234
48.1674
48.4854
48.8466
49.1639
49.4189
49.5938
46.8953
45.7436
46.8356
46.5193
46.903
47.2893
47.5788
47.9193
48.2653
48.579
48.8581
49.1036
49.2774
49.3574
49.3734
48.7004
48.1406
48.9772
48.7243
48.8906
48.9759
48.9762
49.001
49.0083
48.9903
48.9572
48.9234
48.8858
48.8372
48.7874
49.0643
48.7181
49.1716
48.8428
48.8393
48.7796
48.6816
48.6156
48.5453
48.4746
48.4078
48.3489
48.297
48.2462
48.1895
47.7679
47.5341
47.7959
47.5538
47.5753
47.5522
47.5078
47.4863
47.4574
47.4267
47.3944
47.3574
47.3175
47.2706
47.2041
46.7861
46.6391
46.8135
46.6537
46.6747
46.6392
46.5817
46.5342
46.4749
46.41
46.3419
46.2698
46.1985
46.1283
46.0401
46.0223
45.974
46.0636
45.8672
45.7882
45.6649
45.5317
45.4064
45.2738
45.1419
45.0122
44.8876
44.7735
44.6769
44.568
47.2676
47.1451
46.9173
46.4266
46.0468
45.644
45.2347
44.8429
44.4651
44.1109
43.7867
43.4912
43.2419
43.0506
42.8783
44.611
45.0782
45.3856
45.0692
44.5287
43.9116
43.3278
42.7893
42.2724
41.7676
41.2756
40.8038
40.345
39.9204
39.5179
63.0217
62.6053
61.7436
59.0401
55.1607
51.1838
47.4722
44.0879
40.9751
38.2281
35.8133
33.7051
31.9117
30.4339
28.9356
51.0204
50.0375
50.3411
49.2931
48.5309
46.9306
47.037
45.5146
44.4438
43.1909
43.5928
41.5733
39.358
40.7189
39.033
37.6693
37.7085
39.2214
36.642
35.1409
37.8664
36.181
34.6767
35.8122
38.6519
36.5544
35.0214
36.5248
39.8124
37.6084
36.6611
40.3571
39.2398
37.9115
38.7707
41.83
40.2181
39.2646
42.2426
41.4717
40.4574
40.8639
43.0962
42.2084
41.3716
41.7463
43.5075
42.7171
42.1195
43.6956
43.4981
43.2143
43.5854
45.1126
45.0346
44.8799
45.2241
46.8934
47.0114
46.964
48.6009
48.808
48.6383
48.3823
49.4442
49.6872
49.9467
49.7154
49.3173
49.8805
49.8992
45.4449
44.0366
44.0577
40.0713
32.4467
34.3619
25.9024
5.97227
13.3281
18.5325
19.2841
20.3948
13.4708
19.3522
23.375
24.403
24.758
24.7739
25.5666
27.739
29.7663
30.4806
26.7133
27.5192
29.5368
31.1375
31.4011
31.8
32.2052
33.0777
37.0351
35.4014
35.7465
35.7007
36.4095
37.7517
38.5192
38.5801
38.3728
38.3346
43.718
43.1243
42.9896
42.4046
42.0095
42.8239
43.7614
43.0566
41.7078
45.4308
48.0058
48.6191
48.4582
47.4151
46.4558
45.5717
44.8645
44.276
50.957
51.3627
49.2566
48.3433
47.4545
46.1975
44.4191
41.686
39.7701
45.1293
48.182
45.392
43.3856
40.6336
37.1575
34.8547
33.6195
32.3285
32.1839
32.0054
36.1562
34.4439
34.3315
34.0822
32.5956
30.2057
29.9887
31.5951
28.5474
36.4
35.9287
35.8558
38.2295
39.2756
40.3603
40.7739
41.4347
41.447
41.8477
42.0395
41.3399
41.54
41.1357
39.8554
39.4169
38.2679
38.9246
37.722
35.6324
34.8706
33.4852
35.228
33.6237
30.3367
32.5859
30.4661
27.2767
26.3681
24.8339
29.1173
26.2533
22.2152
21.191
19.6804
25.2618
22.5264
16.9085
22.356
19.2228
14.5279
13.589
12.0544
19.7642
15.972
10.5788
9.65618
8.28665
16.7715
13.5051
6.53043
14.1865
10.7241
5.3289
4.60235
3.28818
13.0588
8.87645
2.84822
2.14565
1.05649
11.1478
7.67437
0.112353
8.97955
5.44355
-0.235155
-0.814877
-1.95619
8.80512
4.33991
-1.99314
-2.55161
-3.42741
7.41164
3.60553
-4.43026
5.10592
1.31678
-4.60376
-5.47941
-5.60235
0.00430922
0.00248093
-0.000953913
-0.00100787
-0.00256877
-0.0040517
-0.00550434
-0.00666891
-0.00779257
-0.00733063
-0.00744113
-0.007011
-0.00613137
-0.00504664
-0.00410493
-0.00399701
-0.00401097
-0.00357817
-0.00280508
-0.00192964
-0.00177672
-0.00346543
-0.00422701
-0.00462408
-0.00572254
-0.00758629
-0.0102385
-0.0137076
-0.0182493
-0.0239407
-0.0310718
-0.0393647
-0.0488803
-0.0585632
-0.0679284
-0.0757064
-0.0804294
-0.0807881
-0.0716585
-0.046147
0.0275434
0.204007
0.600863
1.34949
2.4584
3.75235
4.517
2.43379
3.03643
0.708544
-0.338495
0.569113
0.77288
0.607761
-1.53733
-1.95966
-0.87092
-0.256269
0.381192
0.157411
0.119493
-0.00653823
-0.0765944
-0.0822566
-0.0995118
0.0672802
0.0598567
0.0866113
0.0638697
0.035081
0.0646214
0.0625468
0.044795
0.0133078
0.00650203
0.00361026
0.0317057
0.0573934
0.0322658
0.000646886
-0.00340207
-0.0086993
-0.00970476
-0.0113731
-0.0129265
-0.0148783
-0.0168955
-0.0191878
-0.0185079
-0.0178294
-0.0165657
-0.0147081
-0.0126737
-0.0109117
-0.0105148
-0.0101908
-0.00932297
-0.00796923
-0.00635726
-0.00542236
-0.00709081
-0.00624723
-0.00465556
-0.00431531
-0.0049507
-0.00581814
-0.00711017
-0.00867411
-0.0106268
-0.0127438
-0.0147115
-0.0160824
-0.0160168
-0.0139812
-0.00963908
-0.00222826
0.00746093
0.0239606
0.0533304
0.137653
0.361026
0.932105
2.11462
3.97576
6.2193
7.79269
5.94465
4.7705
0.410845
-1.0308
0.0495294
0.163719
0.000120574
-2.49602
-2.85115
-1.37877
-0.358848
0.63486
0.384533
0.298482
0.113827
-0.0310847
-0.0447441
-0.046542
0.126612
0.0908371
0.147119
0.0967822
0.0511227
0.0904198
0.0714419
0.0608219
0.0262107
0.0080006
0.00428771
0.0831384
0.189254
0.243865
-0.000270122
-0.00573785
-0.0109925
-0.0131673
-0.01552
-0.0173707
-0.0192898
-0.0210222
-0.0228108
-0.0223216
-0.0214851
-0.019884
-0.0176726
-0.0151439
-0.0127223
-0.0112773
-0.00982223
-0.00792019
-0.00564377
-0.00332229
-0.00169633
-0.00192444
0.000125957
0.00347761
0.00645177
0.00866872
0.0108194
0.0129528
0.0155134
0.0184522
0.0222398
0.0272639
0.0341215
0.043533
0.0557592
0.0704461
0.0874859
0.104996
0.127525
0.162861
0.260674
0.523614
1.19759
2.58214
4.71997
7.23173
9.03314
7.37804
5.6715
0.5084
-1.59117
-0.560559
-0.28808
0.109524
-1.6837
-1.88139
-0.928064
-0.147776
0.771724
0.584055
0.473436
0.262003
0.0847123
0.0513929
0.0353371
0.149168
0.118953
0.156595
0.105369
0.0555112
0.0921417
0.0726073
0.0680165
0.0376462
0.0116475
0.0132406
0.141907
0.311394
0.6067
-0.000642169
-0.00702135
-0.0122938
-0.0152383
-0.0180092
-0.0200704
-0.0220229
-0.0236206
-0.0250059
-0.0245501
-0.0236189
-0.0218449
-0.0194689
-0.0166889
-0.013906
-0.0117535
-0.00943209
-0.00657082
-0.00313511
0.000488544
0.00356469
0.00546178
0.00940134
0.0146195
0.0199078
0.0247196
0.0297231
0.0350038
0.0412146
0.0482648
0.0567014
0.0668322
0.0792549
0.0944319
0.112413
0.132594
0.154958
0.17824
0.209449
0.26131
0.394171
0.726967
1.51864
3.05283
5.32018
7.91719
9.84375
8.45226
6.50266
0.723523
-2.0888
-1.13618
-0.556803
0.360227
-0.842823
-0.754821
-0.299921
0.14064
0.891036
0.74276
0.625653
0.406651
0.214842
0.148305
0.106131
0.169256
0.140543
0.166795
0.124481
0.0700702
0.10437
0.0862179
0.0826134
0.0529097
0.0184636
0.0237002
0.199396
0.448929
0.813941
-0.00113921
-0.00829065
-0.0137723
-0.0173902
-0.0204857
-0.0227045
-0.0246977
-0.026245
-0.0274136
-0.0269769
-0.0259469
-0.0240646
-0.0215849
-0.0186699
-0.015684
-0.0130886
-0.010187
-0.0066791
-0.00238474
0.00236041
0.00685985
0.0107876
0.0167616
0.0240051
0.0315968
0.0390185
0.0469501
0.0554008
0.0651427
0.0760299
0.0886212
0.103051
0.119886
0.139275
0.161111
0.184636
0.210276
0.237795
0.277173
0.345843
0.512887
0.907463
1.79103
3.42695
5.77589
8.45547
10.5982
9.66993
7.28285
0.841674
-2.50112
-1.65223
-0.729829
0.453275
-0.396603
-0.184108
0.0715634
0.346318
0.989324
0.871989
0.7576
0.532446
0.328623
0.216798
0.161716
0.193706
0.158155
0.183223
0.149297
0.0934366
0.12384
0.104258
0.100237
0.0697682
0.0271336
0.0377028
0.259511
0.576038
1.18916
-0.00174732
-0.00970011
-0.0155535
-0.019807
-0.0232842
-0.0257391
-0.0278421
-0.0293729
-0.030375
-0.0298993
-0.0287435
-0.026731
-0.0241334
-0.0210947
-0.0179316
-0.0149711
-0.0115998
-0.00759443
-0.00269202
0.00289895
0.00861938
0.0143461
0.0222208
0.0314686
0.0413116
0.051358
0.0623333
0.0741105
0.0874928
0.102277
0.119045
0.137751
0.158903
0.182446
0.208145
0.23517
0.264297
0.296244
0.343303
0.426399
0.620525
1.06081
2.01045
3.72313
6.15124
8.94694
11.385
11.058
8.04567
1.03559
-2.81879
-2.10385
-0.868128
0.401809
-0.148185
0.0807614
0.260525
0.476524
1.06162
0.974493
0.870274
0.637494
0.41715
0.255972
0.202431
0.221488
0.180795
0.204516
0.174029
0.116404
0.143127
0.123275
0.119769
0.0882611
0.0375217
0.0544147
0.323123
0.734063
1.31414
-0.00232674
-0.0110791
-0.0173892
-0.0222184
-0.0260793
-0.0287908
-0.0310212
-0.0325316
-0.0333731
-0.0328021
-0.0314816
-0.0292955
-0.026518
-0.0232958
-0.019914
-0.0166005
-0.0127973
-0.00833502
-0.00292145
0.0033617
0.0101565
0.017483
0.0271133
0.0382599
0.0502091
0.0627359
0.0766684
0.0917883
0.108871
0.127631
0.148678
0.171834
0.197506
0.225495
0.255516
0.286751
0.320331
0.357849
0.413514
0.511148
0.730661
1.21284
2.22464
4.01691
6.5383
9.46726
12.2154
12.4979
8.77551
1.24783
-3.03035
-2.46442
-0.973568
0.319513
0.0763004
0.36901
0.436553
0.585388
1.11888
1.05511
0.963887
0.723516
0.483215
0.277791
0.230271
0.246795
0.204065
0.225677
0.196777
0.135588
0.157516
0.140299
0.137921
0.106587
0.0491219
0.0743452
0.392336
0.919928
1.59908
-0.00289713
-0.0124975
-0.0193678
-0.024774
-0.0290469
-0.0320422
-0.0344239
-0.0359231
-0.0366229
-0.0359216
-0.0344186
-0.0320316
-0.0290265
-0.0255487
-0.0218814
-0.0181922
-0.0139701
-0.00905914
-0.00316537
0.00372766
0.0114671
0.0202029
0.0314624
0.044439
0.0584165
0.073272
0.0900112
0.108382
0.129138
0.151887
0.177227
0.204899
0.235184
0.267715
0.302174
0.337887
0.376415
0.420436
0.486156
0.600524
0.848903
1.37853
2.46141
4.34408
6.96741
10.0285
13.0626
13.8897
9.50407
1.53934
-3.14381
-2.72673
-1.03194
0.244902
0.301024
0.745382
0.651257
0.699002
1.16877
1.11976
1.04057
0.794151
0.535785
0.295782
0.250283
0.265839
0.224099
0.245257
0.219148
0.153678
0.169963
0.157216
0.155148
0.126044
0.0643635
0.0980982
0.466732
1.07989
2.0299
-0.00343554
-0.0139084
-0.0213788
-0.0273315
-0.0319986
-0.0352571
-0.0377745
-0.0392558
-0.0398139
-0.0389545
-0.0372466
-0.0346369
-0.0313736
-0.0275917
-0.0235768
-0.0194732
-0.01482
-0.00946314
-0.00310583
0.00434623
0.0129132
0.0228653
0.0355833
0.050289
0.0662413
0.0833057
0.102683
0.124142
0.148457
0.175135
0.204732
0.236915
0.271881
0.309067
0.348118
0.388534
0.43245
0.483747
0.560827
0.694004
0.974303
1.55555
2.71303
4.6858
7.40467
10.581
13.8644
15.168
10.2393
1.90536
-3.15981
-2.88628
-1.01785
0.198448
0.546963
1.16409
0.885543
0.8165
1.21406
1.17284
1.10151
0.85172
0.580862
0.315556
0.266168
0.277391
0.240304
0.262408
0.240959
0.172048
0.182163
0.172749
0.170187
0.1456
0.0828851
0.126241
0.549851
1.28338
2.23092
-0.00397849
-0.015394
-0.0235325
-0.0300531
-0.0351299
-0.0386559
-0.0413082
-0.0427841
-0.0432296
-0.0422138
-0.0402939
-0.0374425
-0.0338985
-0.0297795
-0.0253689
-0.0208041
-0.0156861
-0.00986247
-0.00303842
0.00495404
0.0142683
0.0252715
0.0392622
0.0555653
0.0734195
0.0926098
0.114485
0.138878
0.166613
0.197134
0.230939
0.267612
0.307299
0.349285
0.393129
0.438523
0.488179
0.54736
0.636715
0.790217
1.10471
1.74019
2.97367
5.03374
7.84115
11.1193
14.6152
16.3278
10.9925
2.34876
-3.08671
-2.94552
-0.941413
0.182517
0.819328
1.58007
1.11482
0.93146
1.25796
1.21659
1.14759
0.897663
0.620415
0.33693
0.279911
0.283226
0.253209
0.277049
0.26216
0.192439
0.196
0.188942
0.185036
0.165871
0.105726
0.160339
0.642703
1.51768
2.58618
-0.00450309
-0.0168928
-0.0257078
-0.0327762
-0.0382451
-0.0420154
-0.0447804
-0.0462402
-0.0465796
-0.0454095
-0.0432752
-0.0401674
-0.0363229
-0.0318478
-0.0270133
-0.0219542
-0.0163316
-0.0100083
-0.0026951
0.00583453
0.0158456
0.0277761
0.0428482
0.0605688
0.0801861
0.101394
0.125607
0.152762
0.183751
0.218001
0.255969
0.297143
0.341638
0.388644
0.437671
0.488558
0.544592
0.612391
0.714861
0.889765
1.23959
1.93012
3.23816
5.38104
8.27048
11.6376
15.3098
17.3436
11.7557
2.84683
-2.92385
-2.89824
-0.798073
0.224369
1.15094
2.00209
1.33844
1.04048
1.29808
1.25067
1.1801
0.933575
0.654397
0.357376
0.290898
0.285257
0.263318
0.28892
0.281601
0.214231
0.210679
0.204274
0.199443
0.185014
0.130523
0.199759
0.745834
1.74566
3.10754
-0.00504033
-0.0184818
-0.0280149
-0.0356508
-0.0415269
-0.0455486
-0.0484297
-0.0498822
-0.0501401
-0.048832
-0.0464952
-0.0431261
-0.0389675
-0.0341175
-0.0288359
-0.0232542
-0.0170907
-0.0102175
-0.00236655
0.0067313
0.0174313
0.0302184
0.0462367
0.0652176
0.0864334
0.109517
0.135852
0.165554
0.199575
0.237367
0.27938
0.325021
0.374353
0.426521
0.481008
0.537829
0.600743
0.677761
0.794029
0.99136
1.37816
2.12571
3.51007
5.73603
8.70582
12.153
15.9591
18.2099
12.5222
3.37891
-2.68323
-2.75001
-0.593329
0.326795
1.55002
2.44712
1.56584
1.14457
1.33039
1.27309
1.20123
0.960495
0.682426
0.375088
0.298413
0.284957
0.270907
0.299192
0.299439
0.23805
0.227766
0.219603
0.215806
0.204664
0.157912
0.245075
0.860569
1.99836
3.48225
-0.00556126
-0.0200847
-0.0303317
-0.0385147
-0.0447793
-0.0490337
-0.0520139
-0.0534499
-0.0536255
-0.0521831
-0.0496506
-0.0460222
-0.0415465
-0.0363175
-0.0305809
-0.024467
-0.0177437
-0.0102835
-0.00184696
0.00785878
0.0192607
0.0328755
0.0497625
0.0698834
0.0925567
0.117372
0.145585
0.17757
0.214325
0.255363
0.301179
0.351129
0.405246
0.46263
0.522813
0.586001
0.656459
0.743503
0.874584
1.09573
1.52128
2.32773
3.78872
6.09576
9.14112
12.6571
16.5541
18.8931
13.2596
3.92103
-2.3669
-2.50248
-0.320623
0.504608
2.03764
2.94153
1.80957
1.24577
1.35232
1.28272
1.21586
0.98027
0.70505
0.389877
0.301992
0.283254
0.276691
0.308472
0.315836
0.262127
0.245603
0.234046
0.232523
0.224668
0.185564
0.294671
0.987908
2.25735
4.03889
-0.00609435
-0.0217734
-0.0327697
-0.0415222
-0.0481867
-0.052683
-0.0557677
-0.0571983
-0.057307
-0.055744
-0.0530254
-0.0491418
-0.0443493
-0.0387385
-0.0325445
-0.0258962
-0.0186057
-0.0105313
-0.00146482
0.00889808
0.0210371
0.0354902
0.0532343
0.0744405
0.0985227
0.124957
0.154861
0.188889
0.228068
0.272
0.321263
0.375223
0.433905
0.496393
0.562278
0.632039
0.710439
0.808192
0.955088
1.20162
1.66833
2.53628
4.07572
6.46289
9.57904
13.1549
17.1013
19.3896
13.9419
4.45768
-1.97892
-2.16806
0.00842152
0.75739
2.61848
3.49777
2.07902
1.34754
1.36519
1.28242
1.22444
0.994419
0.722558
0.402531
0.302231
0.281062
0.281062
0.317498
0.332069
0.28642
0.264588
0.250046
0.250206
0.247227
0.215619
0.350274
1.13027
2.55907
4.37173
-0.00661105
-0.0234645
-0.0352037
-0.0445073
-0.0515534
-0.0562716
-0.0594473
-0.0608638
-0.0609012
-0.0592192
-0.0563152
-0.0521797
-0.0470743
-0.041089
-0.0344475
-0.0272786
-0.0194272
-0.0107398
-0.00102702
0.0100149
0.0229069
0.038204
0.0568076
0.0790656
0.104566
0.132546
0.164072
0.199975
0.241332
0.287829
0.340165
0.397762
0.460707
0.528101
0.599667
0.676194
0.76308
0.872462
1.03659
1.31056
1.82081
2.75221
4.36904
6.83098
10.0084
13.6372
17.63
19.7146
14.4935
4.97579
-1.51438
-1.75756
0.391461
1.10376
3.31151
4.12798
2.38059
1.45255
1.37113
1.27578
1.22812
1.00441
0.73651
0.414548
0.300281
0.278881
0.284644
0.326442
0.347622
0.309384
0.283434
0.26659
0.267569
0.270429
0.245952
0.409771
1.28837
2.90274
4.8821
-0.00714105
-0.025229
-0.037748
-0.0476232
-0.0550631
-0.0600094
-0.0632834
-0.0646958
-0.0646756
-0.0628884
-0.0598038
-0.0554171
-0.0499986
-0.0436383
-0.0365525
-0.0288709
-0.0204689
-0.0111733
-0.000805365
0.0109282
0.0245808
0.0407179
0.0601938
0.0834876
0.110422
0.139953
0.173114
0.210834
0.254237
0.303087
0.3582
0.419094
0.485967
0.558008
0.6351
0.718434
0.814077
0.935782
1.11837
1.42166
1.97787
2.97442
4.66807
7.19981
10.4294
14.1083
18.152
19.8919
14.9066
5.4696
-0.983135
-1.28713
0.81758
1.54979
4.12404
4.8359
2.71973
1.56456
1.37304
1.26487
1.22657
1.01037
0.748055
0.426508
0.297287
0.276275
0.286991
0.335938
0.363522
0.33227
0.303774
0.285693
0.28677
0.29519
0.279357
0.475976
1.46278
3.23912
5.54476
-0.00765637
-0.0269817
-0.0402757
-0.0507057
-0.0585212
-0.0636755
-0.0670331
-0.068433
-0.0683514
-0.0664621
-0.0631948
-0.0585561
-0.0528254
-0.0460939
-0.0385712
-0.0303903
-0.0214517
-0.0115656
-0.000551435
0.0118619
0.0262551
0.0431969
0.0635202
0.0877995
0.11611
0.147205
0.182057
0.221595
0.26701
0.318108
0.375826
0.439777
0.510331
0.586815
0.669383
0.759681
0.864605
0.999612
1.20229
1.53726
2.14183
3.20471
4.97227
7.56569
10.8353
14.5627
18.6511
19.9327
15.1848
5.93216
-0.392097
-0.737718
1.28874
2.11986
5.06597
5.62294
3.09701
1.68598
1.3734
1.2522
1.22289
1.01446
0.759765
0.439088
0.294319
0.272699
0.288054
0.345124
0.379763
0.354616
0.324897
0.306381
0.307084
0.319977
0.31316
0.546643
1.65552
3.63213
6.00741
-0.00818432
-0.0287936
-0.0429022
-0.0539099
-0.0621133
-0.0674837
-0.0709315
-0.0723316
-0.0722026
-0.0702207
-0.0667742
-0.0618821
-0.055838
-0.0487314
-0.04077
-0.0320908
-0.0226197
-0.0121487
-0.000484901
0.0126096
0.0277377
0.0454549
0.0665906
0.0918112
0.121401
0.15405
0.190646
0.232022
0.279479
0.332824
0.393097
0.460007
0.534101
0.614909
0.702898
0.800283
0.914838
1.06393
1.28805
1.6567
2.31184
3.44171
5.28067
7.9282
11.2259
14.9997
19.1068
19.8423
15.2918
6.35799
0.227968
-0.102269
1.82776
2.82226
6.12732
6.49134
3.51847
1.82109
1.37454
1.2374
1.21751
1.01746
0.771746
0.452441
0.29234
0.269036
0.288073
0.353729
0.396495
0.377288
0.34796
0.329093
0.330348
0.346981
0.349507
0.625006
1.86803
4.07069
6.63583
-0.00869479
-0.0305751
-0.0454972
-0.0570669
-0.0656449
-0.0712131
-0.0747404
-0.0761355
-0.0759552
-0.0738744
-0.0702482
-0.065102
-0.0587478
-0.0512698
-0.0428752
-0.0337061
-0.0237079
-0.0126658
-0.000357707
0.0134103
0.0292614
0.047719
0.069613
0.0957043
0.12643
0.160582
0.198919
0.242111
0.291627
0.34724
0.410082
0.479941
0.557565
0.642712
0.736268
0.84109
0.966021
1.13045
1.37795
1.78288
2.49101
3.68859
5.59484
8.28656
11.5974
15.4073
19.4673
19.638
15.2449
6.74309
0.857407
0.608649
2.44797
3.64762
7.29885
7.43797
3.98496
1.97329
1.37886
1.2218
1.21244
1.02124
0.784595
0.467342
0.292719
0.266236
0.287666
0.361173
0.413043
0.398961
0.370922
0.351365
0.355434
0.375041
0.385567
0.708744
2.09938
4.5169
7.43415
-0.00921383
-0.0323931
-0.0481744
-0.0603282
-0.0692978
-0.0750745
-0.0786934
-0.0800972
-0.0798764
-0.0777018
-0.0739026
-0.0685019
-0.0618403
-0.0539897
-0.0451627
-0.0355029
-0.0249733
-0.0133651
-0.00040903
0.014045
0.0306344
0.0498351
0.0724696
0.0993771
0.13113
0.16671
0.206758
0.251716
0.3033
0.361217
0.426683
0.499563
0.580795
0.670401
0.769711
0.882343
1.01827
1.19912
1.47166
1.91503
2.67812
3.94316
5.91248
8.6382
11.9465
15.7712
19.6948
19.3468
15.0886
7.093
1.49447
1.36968
3.1367
4.59175
8.58348
8.46794
4.50533
2.14808
1.38782
1.20582
1.20699
1.02539
0.797693
0.484109
0.296983
0.265024
0.287541
0.367482
0.429481
0.419826
0.393462
0.374565
0.383489
0.406318
0.425321
0.802835
2.3522
5.0036
8.12324
-0.00971096
-0.0341558
-0.0507976
-0.0635231
-0.0728731
-0.0788431
-0.0825447
-0.0839504
-0.0836843
-0.0814103
-0.0774413
-0.0717865
-0.0648247
-0.0566087
-0.0473598
-0.0372182
-0.0261613
-0.014009
-0.000420478
0.0147174
0.032045
0.0519897
0.075356
0.103024
0.135703
0.172597
0.214277
0.260927
0.314533
0.374739
0.442858
0.518825
0.603793
0.698059
0.803495
0.924545
1.07254
1.27147
1.57144
2.05624
2.8768
4.20971
6.23724
8.98546
12.2728
16.0825
19.7889
18.9882
14.8536
7.42338
2.14913
2.18081
3.89169
5.66183
9.9672
9.57095
5.07677
2.34798
1.40485
1.19055
1.20169
1.03052
0.811997
0.502789
0.305896
0.265913
0.288485
0.371595
0.443996
0.437673
0.413217
0.397259
0.412374
0.439585
0.46764
0.905912
2.62656
5.51092
8.97751
-0.0102149
-0.0359356
-0.0534864
-0.0668092
-0.0765551
-0.0827333
-0.0865298
-0.0879495
-0.0876471
-0.0852782
-0.0811502
-0.0752458
-0.0679852
-0.059407
-0.0497406
-0.0391179
-0.0275334
-0.0148456
-0.000634461
0.0151943
0.0332734
0.0539899
0.0781263
0.106545
0.140098
0.178232
0.221455
0.269753
0.325341
0.387831
0.458642
0.537795
0.626665
0.725854
0.837795
0.967881
1.12886
1.34735
1.67684
2.20549
3.0854
4.4853
6.56562
9.32388
12.5705
16.3301
19.752
18.5661
14.5525
7.73705
2.82756
3.03719
4.72378
6.88568
11.459
10.7536
5.70883
2.57852
1.43279
1.17525
1.19556
1.03605
0.826972
0.523244
0.319565
0.270331
0.292056
0.373984
0.455766
0.45288
0.430708
0.420514
0.442639
0.476733
0.518566
1.02505
2.92727
6.07577
9.67224
-0.0107033
-0.0376555
-0.0561132
-0.0700165
-0.0801442
-0.0865175
-0.0903986
-0.091824
-0.0914789
-0.089009
-0.0847323
-0.078586
-0.0710285
-0.0620998
-0.0520288
-0.0409388
-0.0288403
-0.0156303
-0.000825645
0.0156782
0.0344937
0.0559863
0.0809163
0.110072
0.144465
0.183743
0.228403
0.278321
0.335824
0.40056
0.474068
0.556479
0.649421
0.753835
0.872815
1.01278
1.18815
1.42828
1.79021
2.3662
3.30822
4.77549
6.90349
9.65919
12.8431
16.514
19.604
18.0964
14.1989
8.02561
3.53403
3.94228
5.64193
8.26784
13.0382
12.0003
6.39547
2.84347
1.47404
1.16219
1.19009
1.04263
0.842257
0.546332
0.337963
0.278813
0.298076
0.375273
0.462989
0.464253
0.444255
0.441697
0.472824
0.516547
0.577078
1.1601
3.255
6.69176
10.5271
-0.0112058
-0.0393912
-0.0587989
-0.0732991
-0.0838246
-0.0904112
-0.0943916
-0.0958381
-0.0954622
-0.0928961
-0.0884763
-0.0820991
-0.0742456
-0.0649734
-0.0545017
-0.0429498
-0.03034
-0.0166035
-0.00122124
0.015954
0.0355019
0.057786
0.0835475
0.113472
0.148723
0.189089
0.235131
0.286692
0.346084
0.413082
0.489346
0.575144
0.672386
0.782399
0.908969
1.05968
1.25068
1.51433
1.91122
2.53727
3.54324
5.0765
7.24575
9.98454
13.0824
16.6265
19.3594
17.588
13.7944
8.2723
4.26449
4.8998
6.65631
9.81069
14.7041
13.3202
7.14764
3.14935
1.53161
1.1529
1.18487
1.04852
0.858027
0.573628
0.361479
0.291568
0.307051
0.377145
0.467139
0.473521
0.456488
0.461756
0.505188
0.561906
0.64861
1.32102
3.61556
7.32269
11.5389
-0.0116877
-0.0410484
-0.0614006
-0.0764759
-0.087391
-0.0941837
-0.0982591
-0.0997243
-0.0993169
-0.096648
-0.0920767
-0.0854825
-0.077338
-0.0677357
-0.0568752
-0.0448779
-0.0317692
-0.017511
-0.00158038
0.0162398
0.0364894
0.0595458
0.0861308
0.116845
0.15296
0.19434
0.241706
0.294924
0.356164
0.425423
0.50448
0.593776
0.69555
0.811564
0.946423
1.10896
1.31735
1.60706
2.04236
2.72243
3.7954
5.39515
7.60068
10.3097
13.2975
16.676
19.0456
17.0697
13.3684
8.47413
5.0007
5.89506
7.75366
11.4763
16.4105
14.6884
7.95444
3.49629
1.61104
1.15081
1.18056
1.05454
0.875847
0.603771
0.389344
0.307692
0.318459
0.379938
0.468667
0.479906
0.466907
0.478932
0.538014
0.611806
0.730298
1.50744
4.01182
8.01664
12.3917
-0.012173
-0.0426937
-0.0640343
-0.0796996
-0.0910272
-0.0980517
-0.102242
-0.103745
-0.103321
-0.100554
-0.0958275
-0.0890338
-0.080604
-0.0706796
-0.0594351
-0.046997
-0.0333888
-0.0185975
-0.00212605
0.0163255
0.0372745
0.0611037
0.0885264
0.120079
0.157083
0.199468
0.24815
0.303077
0.366182
0.43778
0.519754
0.612754
0.719384
0.841908
0.985799
1.16131
1.38869
1.70679
2.18344
2.92057
4.06243
5.72707
7.96205
10.6263
13.4788
16.6552
18.6618
16.5424
12.9251
8.60633
5.72443
6.91785
8.94913
13.2717
18.1598
16.1087
8.8244
3.89237
1.71608
1.15589
1.17684
1.06191
0.895216
0.634566
0.421175
0.328671
0.333048
0.385534
0.470135
0.486152
0.477294
0.496141
0.571909
0.668262
0.828883
1.72814
4.45136
8.77248
13.409
-0.0126338
-0.0442409
-0.0665618
-0.0827955
-0.0945304
-0.101779
-0.10608
-0.107618
-0.107179
-0.104312
-0.0994253
-0.092445
-0.0837454
-0.0735094
-0.0618965
-0.0490338
-0.0349411
-0.0196224
-0.00262203
0.0164297
0.0380609
0.0626385
0.0908812
0.123284
0.161167
0.204547
0.254529
0.311141
0.376138
0.450132
0.535128
0.632022
0.743844
0.873424
1.02725
1.21711
1.46564
1.81517
2.33716
3.13576
4.34991
6.08029
8.34039
10.9479
13.6404
16.5754
18.22
16.0081
12.4687
8.66637
6.4139
7.95194
10.2364
15.1686
19.8978
17.5431
9.73973
4.33736
1.85249
1.17184
1.17518
1.07237
0.914956
0.665139
0.455593
0.354407
0.349831
0.393758
0.471766
0.491965
0.486923
0.514027
0.605453
0.72919
0.939972
1.97949
4.93297
9.5472
14.5636
-0.0130998
-0.0457619
-0.0691087
-0.0859261
-0.0980868
-0.10558
-0.110017
-0.111614
-0.111181
-0.108228
-0.103188
-0.0960232
-0.0870736
-0.0765284
-0.0645583
-0.0512788
-0.036707
-0.0208532
-0.00330382
0.016344
0.0386685
0.063999
0.093079
0.126374
0.165164
0.209588
0.260903
0.319202
0.386219
0.462755
0.55099
0.652102
0.769588
0.906924
1.07168
1.27737
1.54908
1.93284
2.50354
3.36688
4.65519
6.44954
8.72792
11.2639
13.7706
16.4243
17.7052
15.4305
11.9724
8.64316
7.06277
9.00979
11.6275
17.1564
21.6128
18.9948
10.7073
4.83751
2.02544
1.202
1.17552
1.08572
0.935165
0.697291
0.49239
0.384509
0.370561
0.406884
0.476742
0.499311
0.500106
0.536565
0.642153
0.796704
1.06938
2.27113
5.46475
10.3772
15.6501
-0.0135378
-0.0471649
-0.0715278
-0.0889079
-0.101483
-0.109213
-0.113791
-0.115451
-0.115028
-0.111995
-0.106806
-0.0994502
-0.0902762
-0.079428
-0.0671236
-0.0534475
-0.0384164
-0.022039
-0.0039332
0.0162901
0.0392939
0.0653587
0.0952642
0.129457
0.169167
0.214654
0.267287
0.327238
0.396381
0.475562
0.567222
0.672844
0.796468
0.942291
1.11914
1.34238
1.63986
2.06139
2.68524
3.61806
4.98409
6.84354
9.13673
11.5911
13.888
16.215
17.125
14.8047
11.447
8.56509
7.67462
10.0881
13.1082
19.0789
23.217
20.4212
11.7079
5.3869
2.23992
1.25327
1.18097
1.10255
0.955682
0.73071
0.530232
0.416578
0.394728
0.42416
0.484725
0.507136
0.51667
0.563307
0.682842
0.868678
1.21286
2.5988
6.04293
11.236
16.8395
-0.0139706
-0.0485102
-0.0739328
-0.091894
-0.104905
-0.112898
-0.11765
-0.1194
-0.11901
-0.11592
-0.110594
-0.10305
-0.0936634
-0.0825238
-0.0698968
-0.0558344
-0.0403494
-0.0234461
-0.00476165
0.0160526
0.0397453
0.0665677
0.0973286
0.13246
0.173162
0.219775
0.273778
0.335444
0.406886
0.488915
0.584314
0.694894
0.825292
0.980522
1.17075
1.41338
1.7391
2.20165
2.88239
3.88807
5.33361
7.2563
9.5579
11.9177
13.9809
15.9374
16.4672
14.1162
10.9
8.44896
8.25859
11.2106
14.6758
20.8099
24.6667
21.8199
12.7551
5.98908
2.50301
1.33052
1.19376
1.12207
0.976272
0.764397
0.568837
0.450871
0.422803
0.445884
0.497362
0.518935
0.538029
0.597657
0.731543
0.949152
1.38089
2.97476
6.67627
12.1581
17.9419
-0.0143687
-0.0497107
-0.0761802
-0.0947107
-0.108153
-0.116399
-0.121326
-0.123168
-0.122816
-0.119685
-0.114235
-0.106509
-0.0969101
-0.0855086
-0.072568
-0.0581421
-0.0422242
-0.0248144
-0.00555782
0.0158561
0.0402163
0.0677991
0.099412
0.135491
0.177234
0.224995
0.280395
0.343821
0.417678
0.502706
0.602111
0.718051
0.85585
1.02142
1.22646
1.49058
1.84758
2.35516
3.0976
4.1811
5.70983
7.69725
10.005
12.2633
14.0738
15.6194
15.7721
13.4047
10.3765
8.33639
8.81182
12.362
16.2678
22.3844
25.9315
23.1501
13.8174
6.63391
2.8199
1.44222
1.22059
1.14485
0.998054
0.795896
0.606438
0.485768
0.45139
0.468124
0.512309
0.533585
0.560678
0.636394
0.786929
1.03785
1.57401
3.39477
7.35759
13.126
19.135
-0.0147581
-0.05083
-0.0783878
-0.097513
-0.111411
-0.119934
-0.125064
-0.127029
-0.126745
-0.123608
-0.118054
-0.110161
-0.10035
-0.0887073
-0.0754559
-0.060679
-0.0443334
-0.0264179
-0.00657593
0.015475
0.0405211
0.0689025
0.101412
0.138504
0.181385
0.230389
0.287306
0.352648
0.42912
0.517439
0.621277
0.743171
0.889198
1.06629
1.28775
1.57559
1.96679
2.52306
3.33119
4.49589
6.10947
8.15982
10.4683
12.6154
14.1575
15.2637
15.0502
12.6788
9.87721
8.22399
9.3168
13.541
17.8543
23.8794
27.1289
24.4212
14.8755
7.32241
3.19702
1.59566
1.26672
1.17311
1.02454
0.826399
0.643298
0.521039
0.479846
0.490783
0.530062
0.55199
0.586504
0.680416
0.851918
1.14435
1.81072
3.87467
8.09515
14.1166
20.4389
-0.0151041
-0.0517766
-0.0804017
-0.100111
-0.114467
-0.123266
-0.128594
-0.130688
-0.13048
-0.127356
-0.121712
-0.113672
-0.103659
-0.0917821
-0.0782424
-0.0631312
-0.0463775
-0.0279748
-0.00755943
0.0151324
0.0408669
0.0700416
0.103464
0.141595
0.18567
0.235986
0.294507
0.36188
0.441087
0.53295
0.641582
0.769962
0.925011
1.11478
1.35439
1.66843
2.09728
2.70663
3.58552
4.83643
6.5385
8.65359
10.962
12.9952
14.2602
14.9099
14.3535
11.9858
9.4143
8.1268
9.75314
14.6901
19.3888
25.249
28.2205
25.6058
15.8891
8.04051
3.63677
1.80204
1.34093
1.21023
1.05575
0.856731
0.677913
0.554416
0.505249
0.510989
0.5462
0.568816
0.612296
0.725321
0.924845
1.27226
2.09289
4.40803
8.879
15.1488
21.6399
-0.0154313
-0.0526101
-0.0823336
-0.102653
-0.117506
-0.126621
-0.13217
-0.134421
-0.134316
-0.13124
-0.125541
-0.117379
-0.107183
-0.0950728
-0.0812627
-0.0658152
-0.0486594
-0.0297668
-0.00876493
0.0145966
0.0410705
0.0710735
0.105482
0.144735
0.190123
0.241914
0.30222
0.371847
0.454044
0.549865
0.663837
0.799457
0.964559
1.16844
1.42814
1.77099
2.24079
2.9072
3.86093
5.20131
6.99337
9.1716
11.4758
13.3898
14.3743
14.5642
13.688
11.3317
8.96585
8.00458
10.0888
15.7562
20.8489
26.4435
29.1895
26.6725
16.8538
8.78963
4.14744
2.07266
1.45267
1.26143
1.09279
0.89112
0.71284
0.586633
0.52939
0.529375
0.56012
0.584117
0.640462
0.776185
1.01342
1.43741
2.44042
5.01036
9.71651
16.2249
22.9266
-0.0157124
-0.0532452
-0.0840341
-0.104956
-0.120319
-0.129759
-0.13553
-0.137925
-0.13793
-0.134914
-0.129191
-0.12093
-0.110576
-0.0982469
-0.0841751
-0.068406
-0.0508664
-0.0314987
-0.00991986
0.0141093
0.0413403
0.0721792
0.107603
0.148023
0.194796
0.248184
0.310405
0.382453
0.467848
0.567964
0.687744
0.831276
1.00741
1.22679
1.50862
1.88309
2.39766
3.12578
4.15954
5.59431
7.47994
9.72354
12.0244
13.8211
14.5288
14.2671
13.0999
10.7641
8.57307
7.85821
10.287
16.6514
22.1726
27.4513
30.0185
27.6093
17.7456
9.55547
4.72939
2.41684
1.613
1.33528
1.13883
0.93048
0.748543
0.616868
0.551158
0.543263
0.567573
0.594207
0.66773