/*--------------------------------*- C++ -*----------------------------------*\
| =========                 |                                                 |
| \\      /  F ield         | OpenFOAM: The Open Source CFD Toolbox           |
|  \\    /   O peration     | Version:  4.1                                   |
|   \\  /    A nd           | Web:      www.OpenFOAM.org                      |
|    \\/     M anipulation  |                                                 |
\*---------------------------------------------------------------------------*/
FoamFile
{
    version     2.0;
    format      ascii;
    class       surfaceScalarField;
    location    "6";
    object      phi;
}
// * * * * * * * * * * * * * * * * * * * * * * * * * * * * * * * * * * * * * //

dimensions      [0 3 -1 0 0 0 0];

internalField   nonuniform List<scalar> 
13220
(
-949.887
2249.79
-1573.97
1924.28
-2054.02
1779.95
-2424.26
1670.14
-2699.89
1575.83
-2888.42
1488.43
-2993.1
1404.58
-3013.91
1321.01
-2949.67
1235.66
-2797.29
1147.52
-2551.22
1054.13
-2193.06
941.734
-1687.22
794.063
-1012.71
625.7
287.187
373.335
1876.44
442.729
1854.87
437.271
1785.4
406.657
1700.74
380.543
1601.94
359.863
1509.09
345.263
1419.18
337.508
1328.75
333.464
1239.71
326.938
1154.05
309.6
1071.47
267.465
983.873
191.432
870.098
111.455
705.678
398.641
33.6111
1842.84
-97.3385
1985.84
-253.547
1941.62
-371.028
1818.23
-473.082
1703.99
-567.414
1603.43
-651.627
1503.39
-725.668
1402.79
-787.957
1301.98
-837.215
1203.28
-868.129
1102.38
-856.029
971.689
-740.285
754.266
-434.269
399.566
-35.628
28.709
1814.17
-100.667
2115.27
-225.546
2066.52
-304.442
1897.17
-368.117
1767.68
-416.922
1652.26
-446.243
1532.7
-457.058
1413.62
-451.954
1296.86
-430.298
1181.63
-387.442
1059.5
-312.053
896.357
-192.959
635.226
-48.397
255.057
-84.0267
169.713
1644.4
146.243
2138.68
123.794
2088.9
122.883
1898.02
126.901
1763.59
135.712
1643.38
148.974
1519.38
166.436
1396.11
186.787
1276.48
207.963
1160.4
229.063
1038.45
243.604
881.6
232.69
645.943
154.887
332.675
70.8637
223.845
1420.44
244.985
2117.38
235.379
2098.39
236.447
1896.79
240.74
1759.22
244.582
1639.41
246.815
1517.11
245.453
1397.38
241.381
1280.55
234.244
1167.55
221.599
1051.07
199.526
903.958
156.6
689.207
78.6249
410.969
149.487
205.118
1215.34
240.853
2081.66
216.023
2123.28
193.696
1919.15
179.633
1773.36
166.351
1652.75
152.765
1530.79
138.746
1411.49
124.054
1295.36
109.927
1181.72
95.9802
1065.26
78.3554
921.268
53.8353
713.51
19.8487
444.767
169.342
175.654
1039.87
228.243
2029.25
205.879
2145.79
176.615
1948.62
158.356
1791.81
144.088
1667.25
129.162
1545.92
114.822
1426.04
101.533
1308.83
88.7243
1194.81
76.3203
1077.68
63.0662
935.282
43.8391
733.535
17.7207
471.607
187.059
154.625
885.346
225.179
1958.82
212.788
2158.26
184.849
1976.66
166.732
1809.96
153.632
1680.42
140.734
1558.86
126.961
1439.88
113.694
1322.15
100.845
1207.62
87.4278
1091.21
71.6003
950.668
50.2706
754.446
22.1715
499.336
209.235
134.783
750.52
216.916
1876.54
213.791
2161.32
184.935
2005.29
165.465
1829.35
150.514
1695.09
136.332
1572.93
122.04
1453.91
107.344
1336.78
93.1278
1221.77
79.0116
1105.23
63.1618
966.967
42.7023
775.35
17.5119
524.921
226.731
116.088
634.564
206.264
1786.22
214.396
2153.36
187.314
2032.21
167.76
1849.12
154.636
1708.09
141.39
1586.4
127.632
1467.68
114.113
1350.59
99.2968
1236.34
85.5708
1119.83
67.4896
982.934
45.0517
796.05
18.7149
549.699
245.474
109.448
526.016
205.044
1690.78
223.933
2135.22
196.642
2059.6
170.001
1876.69
151.104
1727.11
136.318
1602.15
120.672
1483.39
106.515
1365.47
93.0433
1250.53
77.9869
1134.79
63.897
1000.28
43.6111
819.458
17.9342
578.195
263.373
105.769
421.422
269.367
1527.58
326.705
2078.56
317.353
2069.22
308.583
1886.05
307.142
1728.95
301.99
1607.65
290.04
1496.01
271.051
1384.85
247.242
1274.11
220.902
1162.62
181.63
1035.28
132.067
865.423
67.7831
639.164
331.21
175.13
248.144
339.756
1363.07
409.805
2009.58
361.398
2117.54
277.674
1971.04
209.915
1796.57
171.984
1646.97
150.473
1517.12
140.968
1395.3
135.535
1280.52
128.749
1168.97
121.479
1048.48
93.6893
898.989
49.8197
688.404
381.076
-197.672
272.462
920.446
1417.64
1674.68
1778.65
1754.23
1667.67
1519.69
1339.55
1133.19
899.457
646.643
344.639
2.2116
880.532
-872.387
884.53
891.896
892.297
1659.59
-764.64
1660.78
1662.44
1663.54
2241.88
-575.95
2244.69
2245.86
2664.59
-417.26
2665.63
2667.77
2668.09
2926.26
-256.764
2927.16
2928.98
3063.9
-134.721
3066.38
3067.05
3069.19
3048.64
20.3311
3051.28
3051.04
3053.6
2946.21
108.342
2949.76
2949.7
2786.82
165.893
2786.45
2790.51
2789.11
2583.19
209.317
2583.55
2587.15
2353.82
232.987
2357.7
2358.72
2361.46
2119.5
242.273
2123.28
2123.9
2127.26
1940.5
187.384
1944.38
1944.19
1770.58
176.518
1770.62
1773.37
1772.69
1454.33
320.55
1454.2
1456.35
1455.75
1001.13
455.812
1001.54
1002.54
448.709
554.156
449.458
450.118
450.132
-168.837
619.823
-168.826
-168.824
-1406.51
1237.87
-1408.12
-1407.53
-1409.63
-3170.86
1763.04
-3173.41
-3171.35
-3173.64
-5273.53
2102.39
-5273.28
-5270.22
-7593.47
2322.99
-7590.89
-7592.18
-7463.44
-7328.85
-7180.22
-9485.59
2447.58
-9351.93
-9189.56
-9002.28
-8811.36
-8620.43
-8434.89
-8243.64
-8030.01
-10357.6
2540.5
-10133.6
-9914.04
-9695.83
-9457.54
-9215.89
-8973.86
-8731.94
-8489.62
-10777.3
2533.64
-10518.2
-10258
-9998.25
-9739.03
-9475.34
-9199.95
-8923.3
-8645
-8367.82
-10509.3
2407.39
-10221.1
-9931.45
-9640.63
-9351.44
-9063.43
-8762.81
-8453.69
-8147.01
-9947.22
2093.51
-9650.98
-9348.73
-9033.77
-8719.24
-8403.93
-8090.34
-7777.58
-7449.69
-8737.75
1605.11
-8421.01
-8105.57
-7793.57
-7468.39
-7140.7
-6813.44
-6489.95
-6175.28
-6744.97
881.358
-6434.9
-6129.55
-5827.27
-5529.29
-5236.98
-4967.26
-4702.57
-4447.71
-4202.36
-3775.97
-175.959
-3575.85
-3401.36
-3233.63
-3069.9
-2903.5
-2763.2
-2684.69
-2608.45
-1860.31
-654.024
-1786.36
-1703.67
-1703.21
-1180.77
-514.27
-744.071
-437.44
-728.15
-315.219
-408.782
-277.894
102.816
-391.695
562.056
-438.163
551.095
969.007
-402.524
1377.64
-419.472
1386.37
1766.68
-390.721
1775.18
2123.53
-357.644
2484.89
-354.771
2477.55
2812.78
-330.27
2805.36
3110.69
-302.801
3388.06
-284.536
3388.78
3650.98
-267.058
3892.18
-241.845
3888.67
4120.03
-233.229
4117.48
4335.4
-220.248
4518.54
-184.703
4517.37
4703.93
-186.788
4701.56
4881.41
-179.787
5017.57
-139.539
5017.89
5167.89
-151.855
5279.93
-111.423
5280.12
5402.79
-121.944
5402.7
5525.77
-122.361
5602.25
-77.5883
5602.29
5696.48
-94.8805
5696.69
5795.16
-98.0808
5849.17
-53.5964
5849.62
5930.15
-79.8371
5967.66
-37.8741
5967.73
6024.59
-57.5913
6024.3
6089.48
-64.7712
6108.83
-19.6669
6110.29
6154.78
-44.7943
6155.47
6208.85
-53.6393
6218.84
-10.2339
6218.01
6261.56
-43.5354
6264.21
-3.25842
6264.91
6293.37
-28.3996
6293.14
6333.84
-40.169
6329.61
2.52442
6329.84
6356.17
-27.6209
6356.47
6396.99
-40.5356
6398.12
-0.471963
6397.78
6437.23
-38.7945
6438.66
-2.84363
6438.75
6472.18
-33.8465
6472.06
-49.3126
-315.204
71.9537
-314.553
110.265
-315.233
111.275
-315.392
118.275
-315.455
125.894
-315.354
132.291
-315.075
137.809
-314.982
138.346
-315.233
135.127
-315.388
135.184
-315.471
136.478
-315.504
136.94
-315.438
136.777
-315.329
135.814
-315.362
133.616
-315.548
132.57
-315.589
134.375
-315.348
137.448
-314.97
140.838
-314.779
144.782
-314.923
151.46
-315.235
163.907
-315.479
179.837
-315.425
199.868
-314.808
224.865
-313.576
252.907
-311.625
285.301
-308.68
323.99
-304.458
369.713
-298.586
423.328
-290.662
485.26
-280.233
555.987
-266.936
635.09
-250.546
722.352
-231.193
816.222
-209.547
916.757
-187.128
1025.28
-166.674
1152.95
-152.362
1326.53
-149.341
1609.24
-160.723
2092.45
-183.271
2867.53
-205.59
3897.92
-213.809
4952.74
-200.944
5660.09
-170.322
5707.92
-120.632
4982.56
77.4948
3229.02
395.127
-765.433
443.063
-3273.04
307.649
-2795.08
160.399
-108.092
40.7014
1721.18
-1.98404
2924.07
47.2713
7712.51
90.5646
8685.82
85.902
5932.35
79.751
3491.45
25.9688
1100.99
-93.6303
-778.911
-151.854
-110.436
-162.562
613.813
-157.362
1134.95
-119.15
1339.41
-48.9423
1096.89
-7.44944
451.045
-5.68511
-473.421
-1.54725
34.5004
5.00832
578.526
11.3525
220.281
21.4365
12.0599
23.9649
84.2411
40.5848
69.0703
44.1291
-95.2194
34.1265
-676.38
22.4295
-1970.41
27.2225
-3311.95
37.4986
-4750.05
-6241.44
-313.834
74.4096
-312.99
109.664
-313.733
112.354
-314.452
119.446
-315.053
126.886
-315.338
133.034
-315.119
138.087
-315.001
138.759
-315.556
136.237
-316.096
136.3
-316.336
137.357
-316.417
137.668
-316.292
137.373
-316.089
136.335
-316.042
134.343
-316.153
133.465
-316.008
135.059
-315.57
137.846
-315.075
141.179
-314.865
145.415
-315.129
152.501
-315.285
164.842
-315.332
180.549
-314.961
200.138
-313.819
224.178
-311.838
251.336
-309.256
282.861
-305.596
320.404
-300.856
364.634
-294.323
416.399
-285.997
476.084
-275.075
544.164
-261.749
620.322
-245.337
704.495
-226.447
795.523
-205.408
893.929
-184.128
1002.06
-165.099
1132.15
-152.58
1312.79
-151.627
1607.5
-165.277
2106.17
-190.074
2892.47
-214.176
3921.6
-221.675
4959.31
-204.789
5640.79
-165.547
5665.65
-81.2767
4896.32
119.906
3021.63
408.672
-1060.17
423.859
-3292.01
258.138
-2633.4
145.686
-10.1394
48.3386
1817.76
17.6893
2953.29
56.8238
7670.29
89.6018
8650.89
81.2224
5940.76
69.0929
3503.36
30.6666
1138.3
-85.4219
-664.404
-141.505
-58.84
-160.828
630.577
-156.114
1128.24
-118.247
1299.82
-51.2675
1027.69
0.507258
394.005
-3.09518
-472.796
-11.8204
29.7828
-0.609025
564.219
4.7784
208.996
11.0149
-2.91877
27.7165
61.1667
50.0393
43.25
48.5998
-95.7513
37.7895
-665.509
23.8692
-1956.44
27.1408
-3315.44
29.6602
-4752.69
-6245.13
-312.538
76.4461
-312.174
109.067
-312.948
112.949
-313.731
120.075
-314.406
127.386
-314.788
133.249
-314.746
137.874
-314.789
138.616
-315.402
136.658
-316.035
136.727
-316.372
137.504
-316.526
137.608
-316.462
137.121
-316.329
135.99
-316.305
134.121
-316.373
133.316
-316.206
134.692
-315.817
137.247
-315.417
140.567
-315.26
145.053
-315.405
152.409
-315.292
164.519
-314.877
179.88
-313.881
198.924
-312.115
222.116
-309.524
248.501
-306.318
279.289
-302.041
315.84
-296.713
358.803
-289.642
408.949
-280.87
466.695
-269.639
532.47
-256.202
606.101
-239.907
687.596
-221.411
776.211
-201.056
872.881
-180.78
980.946
-163.098
1113.7
-152.292
1301.47
-153.44
1608.16
-169.45
2122.1
-196.554
2919.47
-222.366
3946.92
-230.511
4967.04
-212.44
5621.98
-167.226
5619.43
-71.5674
4801
144.302
2805.71
406.123
-1315.49
408.922
-3291.27
253.157
-2474.35
139.759
103.372
51.7507
1910.48
23.8609
2983.33
59.4713
7632.8
88.6366
8620.34
76.9029
5953.25
63.8803
3516.8
25.6097
1177.28
-81.6775
-555.563
-138.005
3.58996
-158.758
651.794
-153.708
1123.05
-114.717
1260.64
-48.2917
960.639
3.54263
341.211
-5.60142
-458.193
-13.314
36.2217
-0.389059
551.167
2.56349
205.404
9.72727
-11.1146
31.4274
38.352
52.4284
23.0619
51.7154
-91.9448
40.6925
-654.297
25.6969
-1941.54
28.1563
-3317.98
36.0794
-4761.08
-6212.84
-311.325
77.9773
-311.333
109.297
-312.115
114.047
-312.931
121.317
-313.681
128.517
-314.181
134.208
-314.328
138.528
-314.547
139.385
-315.199
137.893
-315.835
137.97
-316.2
138.538
-316.396
138.48
-316.394
137.867
-316.333
136.679
-316.334
134.923
-316.375
134.166
-316.209
135.381
-315.877
137.778
-315.526
141.086
-315.299
145.712
-315.176
153.124
-314.647
164.847
-313.702
179.71
-312.13
198.139
-309.851
220.487
-306.777
246.087
-303.068
276.045
-298.277
311.531
-292.455
353.148
-284.933
401.634
-275.796
457.409
-264.327
520.891
-250.834
592.026
-234.698
670.922
-216.621
757.226
-196.973
852.309
-177.731
960.514
-161.454
1096.26
-152.458
1291.68
-155.805
1610.96
-174.178
2140.7
-203.412
2949.09
-230.667
3974.27
-239.317
4975.46
-220.258
5601.18
-170.776
5567.57
-66.0576
4695.08
164.006
2570.26
404.936
-1560.82
391.548
-3281.75
244.067
-2331.87
131.722
201.151
52.3414
1987.91
26.1325
3007.44
60.2016
7595.7
87.3722
8591.23
73.7951
5966.92
60.1892
3530.18
21.2743
1215.28
-77.9877
-458.405
-133.691
54.8399
-155.988
671.982
-149.823
1115.09
-109.924
1219.25
-44.8306
893.679
4.79043
286.356
-7.55755
-447.844
-12.9047
30.1526
0.667761
535.157
1.46745
199.845
7.50821
-25.3798
32.1012
7.55242
53.2879
-1.65376
54.5367
-95.7651
43.5199
-643.257
27.6925
-1925.73
29.3634
-3320.01
32.2975
-4764.46
-6219.5
-310.119
78.9415
-310.395
109.351
-311.195
114.643
-312.034
121.964
-312.829
129.073
-313.402
134.549
-313.679
138.565
-314.013
139.458
-314.683
138.292
-315.314
138.311
-315.705
138.651
-315.942
138.406
-315.992
137.626
-315.982
136.344
-315.995
134.622
-316.015
133.844
-315.834
134.872
-315.493
137.094
-315.077
140.324
-314.654
144.953
-314.176
152.281
-313.217
163.562
-311.803
177.939
-309.773
195.81
-307.095
217.457
-303.637
242.365
-299.52
271.578
-294.31
306.103
-288.086
346.54
-280.204
393.554
-270.785
447.606
-259.15
509.09
-245.653
578.083
-229.717
654.765
-212.086
739.177
-193.171
833.107
-175
941.881
-160.203
1081.01
-153.121
1284.3
-158.774
1616.26
-179.54
2161.41
-210.8
2980.26
-239.309
4002.41
-248.302
4984.27
-228.265
5580.8
-175.352
5514.13
-63.4621
4584.22
183.477
2324.5
402.011
-1773.36
371.965
-3248.19
228.356
-2184.59
119.962
312.497
52.1699
2061.26
27.076
3035.46
59.9478
7561.31
85.8868
8564.14
71.5208
5982.19
57.077
3545.17
17.9464
1255.45
-74.8049
-363.772
-127.367
114.101
-152.491
698.119
-144.942
1107.83
-104.447
1178.93
-41.381
830.47
5.66672
239.663
-9.78012
-427.47
-11.5672
33.2233
2.5342
521.783
1.25986
201.784
4.89733
-28.4345
31.1129
-18.8732
53.7945
-22.5264
57.2836
-95.3892
46.2938
-631.908
30.0339
-1909.51
31.2861
-3321.42
38.0057
-4771.67
-6182.66
-308.885
79.7075
-309.333
109.984
-310.145
115.721
-310.991
123.171
-311.813
130.206
-312.433
135.557
-312.798
139.366
-313.203
140.341
-313.863
139.465
-314.471
139.456
-314.862
139.639
-315.11
139.26
-315.173
138.37
-315.17
137.027
-315.157
135.35
-315.12
134.559
-314.876
135.431
-314.455
137.49
-313.897
140.598
-313.232
145.14
-312.415
152.278
-311.103
163.088
-309.337
176.937
-306.963
194.223
-303.978
215.136
-300.213
239.295
-295.766
267.651
-290.219
301.124
-283.677
340.283
-275.516
385.763
-265.891
438.03
-254.155
497.491
-240.705
564.324
-225.001
638.826
-207.838
721.398
-189.677
814.3
-172.616
923.843
-159.36
1066.74
-154.276
1278.47
-162.316
1623.74
-185.493
2184.81
-218.73
3013.96
-248.414
4032.51
-257.731
4993.88
-236.959
5558.88
-181.338
5456.76
-63.0817
4465.37
202.13
2055.25
396.001
-1970.3
348.903
-3205.01
208.054
-2049.85
105.746
400.238
50.0774
2113.85
26.6357
3056.08
58.9056
7525.85
84.2645
8536.81
69.6159
5996.88
54.2292
3560.3
15.2994
1293.84
-73.0159
-278.224
-122.139
158.941
-148.246
722.208
-139.258
1097.1
-98.5141
1136.78
-37.6808
767.891
6.19331
189.966
-12.3925
-410.752
-10.1706
20.5869
4.88669
504.468
2.06567
200.084
2.58144
-37.947
29.1038
-52.5635
53.8197
-51.0932
59.8533
-104.657
48.923
-621.075
32.6708
-1893.35
33.3221
-3322.54
37.1654
-4776.25
-6187.02
-307.637
80.1616
-308.182
110.334
-308.991
116.314
-309.829
123.795
-310.657
130.748
-311.298
135.916
-311.717
139.489
-312.158
140.459
-312.786
139.752
-313.353
139.655
-313.716
139.647
-313.942
139.088
-313.981
138.029
-313.944
136.569
-313.866
134.855
-313.734
133.978
-313.383
134.641
-312.834
136.482
-312.103
139.402
-311.202
143.783
-310.101
150.688
-308.514
161.057
-306.484
174.432
-303.847
191.179
-300.618
211.452
-296.607
234.936
-291.898
262.52
-286.084
295.049
-279.296
333.084
-270.926
377.208
-261.162
427.916
-249.382
485.621
-236.026
550.614
-220.586
623.301
-203.916
704.459
-186.533
796.811
-170.618
907.643
-158.955
1054.82
-155.937
1275.32
-166.414
1633.99
-192.015
2210.41
-227.197
3049.07
-258.041
4063.03
-267.755
5003.42
-246.485
5537.3
-188.662
5398.46
-64.1241
4342.34
215.351
1777.34
382.198
-2132.4
321.645
-3141.27
182.855
-1906.82
88.4085
499.709
45.7591
2163.11
24.9715
3080.76
57.1541
7492.54
82.7578
8510.27
68.0996
6012.64
51.7322
3577.45
13.2446
1333.47
-70.8181
-191.414
-118.241
211.341
-143.221
748.522
-132.882
1087.38
-92.1591
1096.48
-33.7507
709.636
6.4713
151.318
-14.3383
-386.052
-8.9693
17.8511
7.52755
489.33
3.75031
205.296
0.856774
-33.0435
26.2046
-77.4404
53.0543
-75.0112
62.2098
-109.46
51.4591
-609.749
35.6785
-1877.52
35.7349
-3322.78
32.1223
-4773.07
-6182.92
-306.431
80.5562
-307.01
111.061
-307.799
117.314
-308.607
124.896
-309.422
131.796
-310.064
136.864
-310.509
140.285
-310.96
141.299
-311.539
140.755
-312.047
140.606
-312.36
140.463
-312.538
139.774
-312.522
138.598
-312.421
137.055
-312.247
135.327
-311.995
134.383
-311.512
134.87
-310.816
136.515
-309.909
139.247
-308.798
143.451
-307.462
150.098
-305.654
160.025
-303.41
172.897
-300.558
189.064
-297.128
208.641
-292.915
231.381
-287.995
258.086
-281.97
289.573
-274.994
326.377
-266.473
369.06
-256.626
418.124
-244.848
474.013
-231.624
537.11
-216.478
607.972
-200.328
687.724
-183.751
779.621
-169.025
891.928
-159.013
1043.76
-158.125
1273.61
-171.094
1646.29
-199.125
2238.57
-236.218
3086.6
-268.177
4095.6
-278.313
5014.25
-256.815
5515.13
-197.067
5337.54
-65.5554
4210.42
226.02
1482.59
363.135
-2271.25
291.267
-3073.03
154.666
-1776.88
68.5396
571.912
39.5586
2188.48
22.1491
3094.99
54.7179
7456.74
81.4442
8481.55
67.0474
6027.02
49.6659
3594.53
11.9519
1371.22
-67.651
-116.155
-114.35
254.323
-137.46
769.711
-125.93
1074.17
-85.4849
1054.69
-29.5873
652.163
6.14583
108.9
-15.4383
-366.253
-7.89804
1.43172
10.3029
469.092
6.29939
204.828
0.277219
-36.9597
22.6424
-108.62
51.5582
-107.369
64.1441
-125.114
53.9096
-599.623
39.0025
-1862.7
39.0964
-3323.41
43.1
-4777.95
-6138.81
-305.316
80.697
-305.881
111.449
-306.628
117.833
-307.39
125.424
-308.174
132.253
-308.798
137.163
-309.246
140.392
-309.686
141.363
-310.206
140.877
-310.644
140.614
-310.891
140.29
-311
139.414
-310.91
138.056
-310.722
136.365
-310.436
134.541
-310.049
133.457
-309.423
133.713
-308.576
135.11
-307.502
137.607
-306.205
141.593
-304.668
147.964
-302.671
157.479
-300.246
169.891
-297.21
185.522
-293.607
204.487
-289.224
226.567
-284.135
252.498
-277.944
283.064
-270.827
318.799
-262.201
360.225
-252.314
407.871
-240.578
462.203
-227.52
523.716
-212.697
593.116
-197.094
671.905
-181.358
763.861
-167.869
878.226
-159.564
1035.29
-160.869
1274.84
-176.363
1661.59
-206.82
2269.01
-245.773
3125.42
-278.813
4128.26
-289.456
5024.65
-267.967
5493.23
-206.308
5275.29
-66.574
4072.56
236.827
1180.83
341.367
-2372.25
257.701
-2986.32
121.569
-1635.46
45.2445
654.847
31.779
2209.47
18.2443
3113.2
51.7923
7422.36
80.3355
8452.22
66.5325
6042.04
48.1124
3613.84
11.504
1408.71
-62.1482
-36.633
-109.938
305.591
-131.061
792.322
-118.448
1062.42
-78.5749
1015.45
-25.3792
599.357
5.19456
81.2237
-16.1016
-342.007
-7.49607
-3.38425
13.0172
450.4
9.63446
210.129
0.885767
-24.9504
18.9058
-124.805
49.6399
-133.998
65.6364
-136.595
56.3698
-589.618
42.6987
-1848.9
42.6318
-3323.54
42.8572
-4778.49
-6136.16
-304.347
80.7891
-304.857
112.078
-305.54
118.691
-306.236
126.363
-306.97
133.165
-307.559
137.999
-307.992
141.117
-308.405
142.104
-308.858
141.692
-309.219
141.355
-309.389
140.899
-309.42
139.886
-309.244
138.396
-308.959
136.598
-308.551
134.708
-308.026
133.516
-307.254
133.584
-306.257
134.774
-305.026
137.063
-303.558
140.846
-301.842
146.944
-299.675
156.048
-297.087
167.978
-293.887
183.036
-290.132
201.332
-285.604
222.689
-280.376
247.749
-274.054
277.291
-266.832
311.841
-258.137
351.904
-248.245
398.02
-236.582
450.7
-223.721
510.538
-209.247
578.425
-194.225
656.224
-179.369
748.303
-167.17
864.89
-160.636
1027.54
-164.197
1277.38
-182.255
1678.78
-215.115
2301.83
-255.861
3166.5
-289.918
4163.04
-301.114
5036.85
-279.911
5471.8
-216.026
5210.84
-66.3318
3922.76
247.197
865.054
315.623
-2441.22
221.218
-2895.07
86.608
-1507.87
21.0853
706.944
22.79
2203.43
13.0098
3119.38
48.5033
7383.54
79.4472
8419.17
66.5412
6054.76
46.9761
3632.93
10.7031
1444.99
-52.9639
20.5145
-105.148
353.758
-124.084
809.302
-110.524
1047.18
-71.5652
975.135
-21.1741
547.496
3.35011
48.9116
-16.7762
-323.883
-7.72576
-20.7521
15.6054
425.208
14.0342
207.056
3.39656
-24.969
16.3292
-149.267
47.8572
-168.963
66.7037
-157.869
58.9195
-581.948
46.8736
-1836.93
46.6502
-3323.91
40.0043
-4772.77
-6126.25
-303.571
80.6087
-303.983
112.341
-304.579
119.067
-305.188
126.744
-305.854
133.495
-306.39
138.2
-306.789
141.162
-307.161
142.084
-307.541
141.654
-307.822
141.178
-307.909
140.538
-307.855
139.329
-307.587
137.643
-307.2
135.669
-306.67
133.638
-306.007
132.267
-305.093
132.091
-303.952
133.023
-302.572
135.061
-300.947
138.603
-299.067
144.406
-296.745
153.115
-294.007
164.595
-290.66
179.119
-286.769
196.824
-282.115
217.547
-276.772
241.849
-270.346
270.501
-263.049
304.035
-254.315
342.935
-244.448
387.761
-232.886
439.068
-220.249
497.567
-206.156
564.338
-191.751
641.646
-177.82
734.435
-166.966
853.921
-162.26
1022.8
-168.129
1283.32
-188.755
1699.35
-223.969
2337.11
-266.414
3208.84
-301.442
4197.7
-313.315
5048.41
-292.651
5450.53
-225.969
5143.36
-63.4898
3762.11
257.914
544.905
285.463
-2466.88
181.756
-2788.88
49.1926
-1368.86
-3.08286
766.681
13.4932
2195.11
6.55537
3131.66
44.988
7344.59
78.8658
8384.7
67.1249
6067.9
46.3084
3654.81
9.29559
1483.11
-46.4693
85.3426
-100.272
410.653
-116.6
827.238
-102.21
1033.85
-64.5363
938.251
-17.595
501.172
0.843107
35.1114
-18.1883
-302.685
-10.1898
-22.2055
17.8572
399.289
19.0292
208.098
8.15629
-9.63472
17.2339
-154.374
47.109
-192.541
67.6678
-173.94
61.6858
-575.023
51.5169
-1826.52
51.7167
-3324.23
51.0529
-4772.26
-6078.37
-303.035
80.347
-303.313
112.717
-303.793
119.691
-304.29
127.444
-304.867
134.202
-305.331
138.861
-305.678
141.749
-305.995
142.672
-306.296
142.262
-306.492
141.694
-306.492
140.917
-306.35
139.562
-305.989
137.73
-305.5
135.624
-304.85
133.485
-304.054
131.974
-303.004
131.599
-301.725
132.318
-300.204
134.144
-298.433
137.469
-296.402
142.994
-293.934
151.314
-291.059
162.335
-287.577
176.303
-283.564
193.372
-278.8
213.406
-273.362
236.872
-266.853
264.538
-259.504
296.946
-250.754
334.569
-240.936
377.978
-229.5
427.793
-217.115
484.838
-203.434
550.412
-189.685
627.167
-176.727
720.697
-167.276
843.204
-164.46
1018.64
-172.684
1290.36
-195.884
1721.51
-233.386
2374.37
-277.431
3253.05
-313.36
4234.36
-326.007
5062.24
-306.164
5430.75
-235.677
5072.88
-55.642
3583.03
273.54
216.136
251.325
-2445.16
140.496
-2680.59
14.0369
-1249.19
-25.0065
793.306
3.92817
2161.48
-1.11169
3132.95
41.2548
7298.94
78.6782
8345.11
68.3048
6077.95
46.0688
3676.39
7.68574
1521.25
-48.9539
136.102
-95.4438
453.278
-108.73
838.643
-93.6133
1017.09
-57.6273
900.919
-15.3015
457.505
-3.89147
15.2669
-22.0971
-286.969
-15.5221
-37.276
19.8512
361.882
24.7506
198.668
17.9333
-12.9338
23.2137
-170.053
48.3835
-221.054
68.8556
-196.204
64.7258
-570.929
56.6938
-1818.48
57.3609
-3325.52
52.2411
-4768.01
-6071.18
-302.781
79.7727
-302.884
112.687
-303.218
119.808
-303.58
127.577
-304.043
134.316
-304.414
138.883
-304.689
141.655
-304.936
142.508
-305.151
142.036
-305.257
141.313
-305.167
140.352
-304.935
138.795
-304.479
136.756
-303.89
134.455
-303.124
132.141
-302.204
130.424
-301.025
129.796
-299.617
130.251
-297.966
131.82
-296.059
134.889
-293.888
140.105
-291.285
148.04
-288.284
158.624
-284.681
172.07
-280.558
188.572
-275.696
208.001
-270.18
230.746
-263.608
257.563
-256.227
289.016
-247.483
325.571
-237.737
367.821
-226.452
416.448
-214.349
472.406
-201.114
537.227
-188.067
613.989
-176.134
708.912
-168.147
835.182
-167.276
1017.86
-177.887
1301.12
-203.629
1747.27
-243.325
2414.15
-288.837
3298.42
-325.613
4270.68
-339.203
5075.34
-320.438
5411.06
-244.816
4996.2
-36.6299
3376.24
305.42
-125.055
212.761
-2351.86
96.2482
-2562.1
-23.9106
-1120.85
-47.8953
825.833
-6.28616
2128.97
-9.67175
3142.4
37.4005
7251.69
79.0033
8303.13
70.2004
6088.29
46.4357
3701.3
5.5836
1563.33
-49.956
199.586
-90.0344
496.364
-100.547
850.893
-84.7931
1002.58
-50.8757
867.976
-15.0057
422.492
-10.1628
17.7296
-30.1421
-265.082
-20.1076
-38.4486
21.6055
322.511
30.343
192.553
26.8545
-3.81301
30.4886
-167.77
52.4438
-235.294
70.714
-210.264
68.1137
-567.265
62.4323
-1812.48
63.9718
-3327.15
62.4603
-4766.51
-6018.68
-302.856
79.0684
-302.747
112.66
-302.903
120.085
-303.102
127.947
-303.426
134.735
-303.68
139.296
-303.863
142.038
-304.022
142.898
-304.141
142.421
-304.149
141.6
-303.963
140.503
-303.639
138.8
-303.089
136.608
-302.401
134.16
-301.527
131.711
-300.489
129.831
-299.19
128.995
-297.662
129.233
-295.89
130.586
-293.858
133.429
-291.559
138.363
-288.832
145.923
-285.713
156.072
-282.002
168.986
-277.78
184.882
-272.831
203.662
-267.25
225.623
-260.632
251.504
-253.235
281.898
-244.516
317.27
-234.863
358.229
-223.753
405.534
-211.962
460.273
-199.212
524.23
-186.912
600.903
-176.061
697.205
-169.599
827.312
-170.729
1017.48
-183.756
1312.76
-212.009
1774.25
-253.79
2455.44
-300.636
3345.17
-338.183
4308.82
-352.853
5091.17
-335.453
5393.84
-252.994
4914.14
12.2447
3113.03
405.826
-509.885
169.087
-2115.79
50.7864
-2445.75
-59.2699
-1016.82
-70.1037
824.783
-17.5492
2071.43
-19.1825
3140.07
33.4648
7195.72
79.9329
8254.35
72.8802
6094.79
47.4638
3725.78
4.04767
1606.22
-50.091
249.445
-84.3011
526.798
-92.1061
856.845
-75.8397
984.685
-44.3104
835.072
-16.0995
392.88
-17.7422
11.6082
-37.3527
-248.744
-17.4604
-65.1242
23.52
278.936
35.9755
175.686
35.4914
-12.3912
39.7728
-180.159
58.332
-257.249
73.1084
-226.941
71.8266
-566.069
68.8213
-1809.43
71.0619
-3330.09
66.5861
-4762.8
-6006.8
-303.303
78.0034
-302.941
112.189
-302.887
119.834
-302.895
127.746
-303.051
134.554
-303.163
139.07
-303.228
141.747
-303.282
142.551
-303.294
141.999
-303.198
141.021
-302.91
139.742
-302.488
137.842
-301.844
135.444
-301.06
132.792
-300.081
130.148
-298.935
128.047
-297.526
126.953
-295.887
126.925
-294.004
128.019
-291.859
130.596
-289.443
135.213
-286.603
142.391
-283.378
152.113
-279.571
164.523
-275.261
179.865
-270.235
198.066
-264.602
219.349
-257.953
244.427
-250.556
273.924
-241.88
308.328
-232.342
348.263
-221.436
394.575
-209.99
448.502
-197.768
512.098
-186.269
589.322
-176.561
687.742
-171.687
822.515
-174.867
1020.91
-190.319
1328.53
-221.011
1805.12
-264.734
2499.37
-312.738
3393.12
-350.989
4346.69
-366.95
5106.64
-351.333
5377.16
-263.47
4825.17
20.5688
2830.16
349.852
-837.368
115.28
-1881.23
3.08975
-2332.29
-93.8281
-910.91
-91.5266
831.107
-28.995
2018.19
-29.5325
3146.87
29.5767
7136.65
81.5939
8202.13
76.5002
6101.59
49.3349
3754.29
3.10473
1654.04
-49.1006
309.015
-78.2577
559.15
-83.4622
863.905
-66.765
969.361
-37.8074
807.221
-17.7271
374.059
-23.9562
27.372
-42.7168
-228.186
-17.5845
-83.3697
25.2221
238.754
40.9155
162.957
42.3947
-7.33384
47.8888
-178.935
63.9769
-266.072
75.818
-234.755
75.8855
-564.895
75.962
-1809.04
78.9353
-3333.02
66.9197
-4750.63
-5984.55
-304.172
76.7503
-303.521
111.603
-303.225
119.635
-303.01
127.672
-302.97
134.573
-302.913
139.13
-302.836
141.828
-302.764
142.663
-302.653
142.109
-302.441
141.038
-302.042
139.63
-301.518
137.596
-300.777
135.049
-299.898
132.245
-298.82
129.452
-297.572
127.176
-296.06
125.867
-294.32
125.619
-292.337
126.494
-290.088
128.838
-287.567
133.171
-284.624
139.983
-281.302
149.287
-277.41
161.196
-273.023
175.956
-267.93
193.541
-262.256
214.1
-255.589
238.307
-248.209
266.82
-239.595
300.149
-230.194
338.941
-219.519
384.131
-208.454
437.114
-196.804
500.228
-186.161
577.878
-177.657
678.366
-174.434
817.817
-179.711
1024.61
-197.589
1344.89
-230.644
1836.74
-276.15
2544.15
-325.139
3441.75
-364.016
4385.94
-381.453
5125.08
-368.199
5363.95
-276.473
4733.84
2.93212
2553.33
184.826
-1012.4
54.7071
-1751.26
-46.5695
-2232.43
-122.389
-839.846
-108.487
805.859
-41.0173
1945.89
-40.8862
3142.78
25.7821
7066.73
84.0913
8141.44
81.1439
6103.82
52.0779
3782.22
2.91413
1702.59
-47.6556
356.556
-72.1289
580.127
-74.7053
864.781
-57.6095
950.728
-31.2549
779.549
-18.2732
359.627
-27.2773
30.7704
-44.7057
-214.59
-17.442
-115.129
26.3771
192.286
45.1694
139.949
48.6144
-18.5113
55.1621
-191.713
69.2623
-283.018
78.4404
-245.998
80.2718
-566.837
83.8873
-1812.57
88.186
-3338.12
82.9609
-4746.12
-5922.06
-305.506
75.0859
-304.525
110.525
-303.952
118.87
-303.488
127.001
-303.221
133.967
-302.963
138.533
-302.716
141.223
-302.496
142.038
-302.25
141.422
-301.912
140.206
-301.392
138.625
-300.76
136.412
-299.918
133.674
-298.944
130.67
-297.77
127.678
-296.427
125.176
-294.821
123.61
-292.989
123.096
-290.913
123.712
-288.572
125.784
-285.958
129.794
-282.924
136.227
-279.516
145.111
-275.549
156.538
-271.097
170.758
-265.947
187.787
-260.243
207.718
-253.574
231.183
-246.228
258.867
-237.694
291.336
-228.455
329.261
-218.044
373.679
-207.402
426.158
-196.376
489.342
-186.649
568.123
-179.416
671.48
-177.907
816.489
-185.318
1032.42
-205.599
1365.61
-240.894
1872.33
-287.987
2591.52
-337.744
3491.47
-377.169
4424.95
-396.305
5143.6
-385.833
5352.19
-290.065
4636.76
-27.6462
2291.39
73.5059
-1114.09
-9.27266
-1669.36
-99.0264
-2142.01
-151.573
-777.202
-127.177
791.406
-54.1811
1883.16
-53.0283
3148.53
22.1927
6991.99
87.5681
8076.19
86.9931
6106.34
55.9046
3814.87
3.33278
1757
-45.8144
412.494
-65.8233
603.577
-65.8872
866.83
-48.3795
934.733
-24.5324
756.999
-17.8181
354.652
-27.6797
51.7265
-45.1351
-195.191
-19.0735
-135.736
26.0381
150.228
47.7206
121.387
52.7909
-16.447
60.7509
-192.744
73.7193
-289.213
80.8553
-249.207
85.0883
-569.713
92.7047
-1819.64
98.1207
-3343.49
88.5562
-4736.43
-5898.43
-307.357
73.1725
-306.013
109.228
-305.133
118.057
-304.389
126.361
-303.864
133.462
-303.376
138.119
-302.931
140.891
-302.538
141.781
-302.137
141.194
-301.658
139.908
-301.005
138.211
-300.255
135.89
-299.307
133.023
-298.237
129.881
-296.97
126.74
-295.536
124.063
-293.84
122.282
-291.923
121.55
-289.764
121.947
-287.338
123.783
-284.641
127.511
-281.528
133.585
-278.044
142.066
-274.013
153.024
-269.507
166.69
-264.312
183.132
-258.59
202.401
-251.934
225.069
-244.638
251.853
-236.208
283.366
-227.158
320.317
-217.044
363.842
-206.868
415.688
-196.518
478.809
-187.769
558.569
-181.872
664.696
-182.135
815.203
-191.708
1040.33
-214.354
1386.58
-251.76
1908.09
-300.227
2638.96
-350.542
3541.04
-390.413
4464.81
-411.26
5165.06
-402.671
5343.25
-302.579
4536.57
-80.5812
2071.21
-43.422