/*--------------------------------*- C++ -*----------------------------------*\
| =========                 |                                                 |
| \\      /  F ield         | OpenFOAM: The Open Source CFD Toolbox           |
|  \\    /   O peration     | Version:  4.1                                   |
|   \\  /    A nd           | Web:      www.OpenFOAM.org                      |
|    \\/     M anipulation  |                                                 |
\*---------------------------------------------------------------------------*/
FoamFile
{
    version     2.0;
    format      ascii;
    class       volScalarField;
    location    "4";
    object      p;
}
// * * * * * * * * * * * * * * * * * * * * * * * * * * * * * * * * * * * * * //

dimensions      [0 2 -2 0 0 0 0];

internalField   nonuniform List<scalar> 
6785
(
545.286
491.887
440.053
391.638
346.743
304.722
265.364
228.357
193.259
159.894
128.951
100.812
71.782
36.8633
7.71562
78.8214
56.5519
50.7717
47.0475
41.5698
35.8594
30.7033
26.3145
22.8327
20.3772
19.1898
19.6957
21.7956
23.6684
23.9273
-24.3009
-30.9465
-25.1365
-20.9433
-17.8138
-14.1872
-10.268
-6.29873
-2.36373
1.37239
4.72656
7.8074
10.9096
13.5764
14.8112
22.227
19.8529
24.5215
24.8574
24.9042
25.1068
24.9988
24.5941
23.9842
23.1993
22.2068
21.0452
20.1139
19.9846
20.299
39.0935
36.7609
38.253
36.0422
34.5405
33.2306
31.7545
30.3107
29.0022
27.8818
26.971
26.2504
25.7745
25.7624
26.0148
29.4894
27.3945
28.2594
26.9601
26.7549
26.7602
26.6954
26.764
26.9691
27.2727
27.6572
28.0819
28.4276
28.6862
28.8579
25.4949
24.2944
25.3903
25.161
25.6705
26.1627
26.5438
26.9744
27.4009
27.7722
28.0904
28.3566
28.539
28.6214
28.64
27.713
27.2088
28.1808
28.091
28.3632
28.491
28.515
28.5535
28.5564
28.5071
28.4272
28.3506
28.2698
28.1884
28.1296
28.8426
28.5718
29.1095
28.804
28.7353
28.5728
28.3798
28.2228
28.0563
27.8875
27.7334
27.6073
27.5194
27.4556
27.3992
27.4615
27.2275
27.4407
27.0876
26.9699
26.8352
26.7163
26.6368
26.5596
26.501
26.4616
26.4367
26.4062
26.3558
26.2767
25.6103
25.3963
25.4693
25.2096
25.1711
25.1345
25.1072
25.0948
25.0726
25.0582
25.0441
25.0232
24.9863
24.9252
24.8184
24.0799
23.9617
23.9994
23.8096
23.7942
23.769
23.734
23.6916
23.6335
23.5739
23.5065
23.4222
23.3343
23.2459
23.1286
24.973
24.8357
24.6857
24.3618
24.1701
23.9366
23.6664
23.3873
23.1093
22.8471
22.5951
22.358
22.1481
21.9869
21.8345
22.8285
23.3157
23.7275
23.6086
23.2779
22.841
22.4022
21.9853
21.5758
21.1646
20.7499
20.3325
19.9403
19.6011
19.2801
40.2889
39.9608
39.218
36.7408
33.2203
29.6326
26.2909
23.2894
20.5718
18.2445
16.2421
14.5593
13.2126
12.2055
11.3439
38.7999
37.9774
38.3694
37.5959
37.0438
35.8344
36.0864
34.9206
34.0863
33.09
33.4786
31.7868
29.8627
30.9662
29.4833
28.1906
27.9502
29.1676
26.9262
25.358
27.4805
25.9502
24.4668
24.9628
27.0923
25.1696
23.5952
24.3161
26.8426
24.8657
23.6403
26.4539
25.4198
24.2229
24.8003
27.3792
26.0902
25.2887
27.8595
27.3125
26.5735
27.0769
29.2078
28.6264
28.0418
28.5042
30.2584
29.7334
29.2857
30.5757
30.4066
30.1927
30.5445
31.7744
31.6825
31.5698
31.9255
33.3067
33.3872
33.3774
34.8274
35.0299
34.8985
34.7677
35.6308
35.7499
35.7276
35.8107
35.5543
36.0833
36.3738
33.2621
32.3074
32.5668
29.6464
24.066
26.229
19.5012
1.87623
7.96161
12.2074
12.707
13.5735
9.02876
12.2119
15.8404
16.7961
17.1386
17.1329
17.8356
19.7926
21.5667
23.2716
18.0851
18.7886
20.6867
22.1966
22.3726
22.638
22.7995
23.3505
27.4339
24.418
24.68
24.5797
25.22
26.4861
27.196
27.1925
26.8245
26.5306
31.7727
29.9554
29.7873
29.1814
28.7738
29.5561
30.4313
29.5896
28.0118
31.4303
32.8292
33.403
33.2164
32.1864
31.247
30.3564
29.5528
28.7618
35.2287
34.7193
32.6688
31.8235
30.9679
29.6443
27.7163
24.8019
22.7849
28.6417
30.7455
27.906
25.8242
23.0564
19.601
17.0683
15.2907
13.4009
12.8289
12.5957
15.9248
14.0569
13.7755
13.2899
11.4528
8.68711
8.12421
9.37145
5.33092
12.3217
11.5749
10.7704
12.6189
12.8474
13.5016
13.9655
14.4633
14.7843
14.8034
14.9779
14.9895
14.9495
14.9406
14.8158
14.7578
14.5886
14.4887
14.3248
14.0521
13.8978
13.6298
13.5613
13.2251
12.7195
12.6919
12.3173
11.8248
11.5734
11.2418
11.413
10.8793
10.2473
10.0008
9.72748
10.1184
9.6009
8.78674
9.24859
8.78738
8.16257
7.98482
7.74657
8.51428
7.82969
6.99855
6.82793
6.64624
7.63813
6.9882
5.88335
6.89246
6.29946
5.46163
5.32935
5.13812
6.5346
5.57988
4.4163
4.2497
4.06882
5.70706
4.76504
3.15289
4.79359
3.90914
2.64049
2.47861
2.25286
4.47323
3.04966
1.33013
1.10556
0.874771
3.41845
1.95865
-0.526567
2.03201
0.600119
-1.36781
-1.76188
-1.719
0.000969493
-0.000142393
0.000221355
0.000404285
0.000588786
0.000654695
0.000701432
0.000804188
0.000938292
0.00108204
0.00117619
0.00122189
0.0013939
0.00162751
0.00192537
0.00208343
0.00223526
0.00253298
0.00293082
0.00335565
0.00368447
0.00395148
0.00428257
0.00464912
0.00492813
0.00491994
0.00460277
0.0041413
0.00330687
0.00208315
-5.16334e-05
-0.00317359
-0.00883712
-0.0179761
-0.0336104
-0.0558647
-0.0826729
-0.102397
-0.10313
-0.0809413
-0.0639234
-0.0942964
-0.222267
-0.508317
-0.94872
-1.36123
-1.56347
-1.52043
-0.878818
-0.024914
0.285436
0.224543
0.19479
1.74711
1.23571
-3.61038
-0.744562
0.0486799
-0.0325982
0.0386679
0.0611982
0.153837
0.378292
1.30396
1.49943
0.86182
0.480468
0.30515
0.215643
0.152623
0.106443
0.0885179
0.086757
0.0862501
0.11463
0.149037
0.197065
0.233314
0.208847
0.00460585
-6.63749e-05
0.00123958
0.00139402
0.00168402
0.00165903
0.00174198
0.00205849
0.00239738
0.0026932
0.00281486
0.00296533
0.00356786
0.0042518
0.00498512
0.00531067
0.0059152
0.00705188
0.00824733
0.00936206
0.0103194
0.0115481
0.0131373
0.0148576
0.0164085
0.0174676
0.018453
0.0195143
0.0199231
0.0194516
0.0178563
0.0146992
0.0084436
-0.00157451
-0.0171098
-0.0363696
-0.0553036
-0.0632439
-0.0535305
-0.0310048
-0.0336333
-0.119595
-0.359388
-0.792955
-1.32451
-1.72552
-1.82193
-1.58288
-0.861609
0.0507591
0.314043
0.385144
0.567107
2.53017
2.55159
-3.75389
-1.18491
-0.0199255
0.0108907
0.0891143
0.146132
0.387609
0.897344
1.83019
2.17084
1.59567
1.21944
0.928099
0.665825
0.447881
0.303145
0.245407
0.244889
0.266183
0.34989
0.452229
0.563142
0.623749
0.5448
0.00614362
-0.0008802
0.00131027
0.00144104
0.00170992
0.00172251
0.00200824
0.00269054
0.00326714
0.00345959
0.00353585
0.00389253
0.00496021
0.00603454
0.0068103
0.00729728
0.00845
0.0104748
0.0121834
0.013332
0.0149639
0.017377
0.0201584
0.0228193
0.0255052
0.0278374
0.0307361
0.0342832
0.0373233
0.0398693
0.0426878
0.0451965
0.0453879
0.0437989
0.0394451
0.0344732
0.0324803
0.0420095
0.063164
0.0849303
0.0672559
-0.038375
-0.278552
-0.644896
-1.00182
-1.18961
-1.13518
-0.817818
-0.296573
0.349488
0.416799
0.498956
0.974669
2.93078
3.4745
-3.20428
-1.0601
-0.0138273
0.0758031
0.139273
0.240721
0.61039
1.35177
2.14316
2.53572
2.1227
1.76615
1.38876
1.01392
0.701229
0.495626
0.41038
0.411192
0.453831
0.581553
0.749712
0.935973
1.04672
1.00682
0.00754175
-0.000810331
0.00195881
0.00211323
0.00229237
0.00217404
0.00252278
0.00353176
0.00448045
0.00470656
0.00463184
0.00507626
0.00644271
0.00792334
0.00865265
0.00929703
0.0109304
0.0138069
0.016227
0.0174164
0.019517
0.0229525
0.0272416
0.0312205
0.0351487
0.0387408
0.0436165
0.0501485
0.0570051
0.063798
0.0718288
0.0819631
0.0918868
0.102008
0.111214
0.121262
0.133731
0.153519
0.17606
0.189413
0.162561
0.066933
-0.112759
-0.338697
-0.496202
-0.517118
-0.392357
-0.109035
0.207639
0.628932
0.573044
0.610193
1.31183
3.39939
4.33257
-2.55309
-0.773384
0.0293748
0.145066
0.214375
0.355884
0.836658
1.73502
2.41916
2.7834
2.46843
2.14772
1.74259
1.32392
0.956054
0.707172
0.591353
0.585011
0.645283
0.816066
1.04744
1.29688
1.4459
1.39226
0.00806633
-0.000935747
0.00226673
0.0025371
0.00286232
0.00262739
0.00292012
0.0040727
0.00536129
0.00587758
0.00580584
0.00627026
0.00777336
0.00957865
0.0104969
0.0112639
0.0131796
0.0165074
0.0196362
0.0213816
0.0238003
0.0279849
0.0337811
0.0396125
0.0451239
0.0503227
0.0571922
0.0666032
0.0777708
0.0897322
0.10355
0.121228
0.14134
0.162591
0.183578
0.204936
0.226778
0.250338
0.269934
0.273835
0.242338
0.162827
0.0431299
-0.0703629
-0.0982318
-0.0384295
0.0912074
0.311414
0.522495
0.815824
0.719959
0.716207
1.58805
3.75783
5.15435
-1.94431
-0.497324
0.0902758
0.201573
0.287966
0.474505
1.05236
2.00806
2.62131
2.95429
2.70384
2.43813
2.03774
1.60912
1.20997
0.922159
0.77755
0.763283
0.840444
1.05352
1.34441
1.65132
1.82627
1.81567
0.00823109
-0.000758326
0.00259738
0.00292219
0.00351934
0.00339871
0.00375698
0.00489283
0.00630246
0.00706813
0.00720686
0.00777109
0.00931268
0.0112089
0.0124941
0.0136397
0.0159196
0.0193801
0.0228468
0.0253367
0.0282471
0.0329821
0.0398597
0.047519
0.0550375
0.0624253
0.0715425
0.0836163
0.0988311
0.116114
0.136069
0.160659
0.18982
0.221117
0.251907
0.281133
0.308304
0.333021
0.350083
0.349016
0.317699
0.254678
0.180972
0.142915
0.195756
0.306082
0.431163
0.60308
0.758688
0.960346
0.852751
0.821284
1.81944
4.0851
5.94161
-1.35302
-0.249604
0.172185
0.25881
0.374739
0.616902
1.27185
2.23176
2.7822
3.0952
2.91827
2.71366
2.32021
1.88077
1.4543
1.12876
0.963177
0.946502
1.04102
1.29518
1.64119
1.9971
2.19716
2.15995
0.00804156
-0.000444481
0.00289841
0.00317957
0.00396534
0.00409847
0.00473437
0.00595486
0.00735198
0.00823237
0.00865165
0.00948036
0.0110803
0.0128699
0.014386
0.0161031
0.0190082
0.0227001
0.0263205
0.0294504
0.0331221
0.0384571
0.0460401
0.0550085
0.0645261
0.074409
0.0861188
0.100828
0.119547
0.14159
0.167228
0.197732
0.23387
0.273458
0.312214
0.347326
0.377646
0.403035
0.418692
0.416512
0.3888
0.344105
0.312152
0.338193
0.462588
0.631971
0.769935
0.908605
1.00216
1.0847
0.975498
0.92806
2.02238
4.37597
6.68914
-0.79572
-0.0218286
0.268412
0.30898
0.467073
0.771066
1.47912
2.401
2.90601
3.22287
3.14315
3.00487
2.61564
2.15561
1.69379
1.33446
1.15253
1.13604
1.24763
1.54031
1.9379
2.33638
2.56204
2.51936
0.00754497
-0.000215204
0.00307361
0.00330535
0.0041681
0.00456686
0.00555598
0.00703596
0.00846675
0.00941163
0.0100974
0.011315
0.0131027
0.0148177
0.0164064
0.01862
0.0222169
0.0263665
0.0302929
0.0340407
0.0386796
0.0449233
0.053285
0.063244
0.0745067
0.0869202
0.101555
0.11921
0.141289
0.167663
0.198475
0.234232
0.27569
0.32144
0.366557
0.406756
0.439687
0.465593
0.480556
0.479182
0.457944
0.434654
0.448095
0.543032
0.746427
0.986029
1.15013
1.25599
1.27229
1.20726
1.10315
1.05144
2.21444
4.65727
7.38755
-0.225788
0.211843
0.387183
0.379622
0.588612
0.953673
1.68673
2.53674
3.00501
3.33965
3.37259
3.30385
2.92116
2.43763
1.93689
1.54709
1.34808
1.33098
1.45891
1.78854
2.23401
2.66664
2.89776
2.90028
0.0070082
-4.58529e-05
0.0031741
0.00341575
0.00427785
0.00487527
0.00617526
0.00794297
0.00949815
0.0105127
0.0114389
0.013053
0.0151412
0.0169673
0.0186728
0.0212672
0.025433
0.0301105
0.0345378
0.0389734
0.0446534
0.0520575
0.0614592
0.0724076
0.0851587
0.0998546
0.117398
0.138157
0.163555
0.193879
0.229354
0.269878
0.315674
0.365778
0.415714
0.460379
0.496002
0.522419
0.537139
0.537591
0.525584
0.527155
0.590769
0.760828
1.05089
1.36688
1.56309
1.62573
1.55572
1.33796
1.23482
1.19466
2.399
4.91422
8.00613
0.353249
0.460032
0.519747
0.469813
0.726241
1.14822
1.87929
2.6359
3.07587
3.43788
3.59542
3.59844
3.22778
2.72357
2.18688
1.76657
1.54879
1.53053
1.67424
2.03911
2.52947
2.99007
3.22909
3.20967
0.00648811
7.09116e-05
0.00317943
0.00347602
0.00438885
0.00514461
0.00671857
0.0087179
0.0104437
0.0115523
0.0127103
0.0146485
0.0170622
0.0191532
0.0211281
0.0241129
0.0287465
0.0339407
0.0390119
0.0442768
0.0510907
0.0598538
0.0706305
0.0828839
0.0972013
0.114076
0.134447
0.15838
0.187157
0.221223
0.260967
0.305892
0.355627
0.409133
0.46268
0.511079
0.549634
0.57722
0.592692
0.596426
0.596632
0.627295
0.745094
0.993359
1.37251
1.76672
1.99575
2.00152
1.84708
1.48636
1.37598
1.36811
2.5873
5.15955
8.53942
0.962688
0.757202
0.684903
0.597769
0.895505
1.36978
2.06542
2.71083
3.12642
3.52083
3.80839
3.88262
3.52923
3.00734
2.43848
1.98634
1.75034
1.73199
1.89171
2.29096
2.82282
3.30418
3.55045
3.51882
0.00607191
0.000199038
0.00318858
0.00352549
0.00452111
0.00543688
0.00722866
0.00942004
0.0113143
0.012565
0.0139555
0.016152
0.0188512
0.0212523
0.0235907
0.0269893
0.0320149
0.0376623
0.0433911
0.0495309
0.0574892
0.0676336
0.0799332
0.0937573
0.109821
0.128845
0.151877
0.178854
0.210894
0.248431
0.291933
0.340718
0.393982
0.450384
0.506683
0.558091
0.599625
0.629349
0.646874
0.655462
0.670017
0.733081
0.907617
1.23486
1.70263
2.17609
2.43877
2.37763
2.14131
1.64145
1.52891
1.56321
2.77929
5.38848
8.98567
1.57995
1.09901
0.87354
0.747133
1.08204
1.60189
2.23442
2.7631
3.16019
3.59578
4.01568
4.15978
3.82686
3.28773
2.6872
2.2036
1.95182
1.93529
2.11149
2.54327
3.11368
3.61013
3.85248
3.84728
0.00573175
0.000322964
0.00318386
0.00358652
0.0046771
0.00578494
0.00774023
0.0100992
0.0121494
0.0136134
0.015261
0.0177166
0.0206784
0.0234189
0.0261997
0.0300447
0.0354473
0.0415244
0.0479045
0.0549339
0.0640175
0.0754935
0.0893531
0.104917
0.12294
0.144192
0.169821
0.199735
0.234921
0.275748
0.322615
0.374781
0.431199
0.490227
0.548856
0.602804
0.647325
0.680104
0.701299
0.716721
0.747662
0.845687
1.07909
1.48581
2.03999
2.59086
2.88671
2.75428
2.44452
1.80613
1.69514
1.77158
2.98293
5.63368
9.36313
2.21629
1.50968
1.11398
0.940573
1.31015
1.85482
2.3917
2.80389
3.18557
3.67031
4.21825
4.42834
4.11685
3.55957
2.92744
2.41492
2.15049
2.13768
2.33109
2.79427
3.40006
3.90581
4.14196
4.131
0.00547065
0.000487262
0.00322463
0.00370808
0.00490786
0.00618155
0.00826551
0.0107306
0.0129172
0.0146153
0.0165331
0.0192527
0.0224621
0.0255571
0.0288257
0.0331447
0.0389334
0.0454357
0.0524512
0.0603495
0.0704846
0.0831591
0.098463
0.115711
0.135714
0.159141
0.187211
0.219817
0.257878
0.301662
0.351469
0.406522
0.465655
0.527034
0.587734
0.643918
0.691249
0.727531
0.753535
0.777387
0.826183
0.960375
1.2538
1.74005
2.37806
3.00299
3.33303
3.13169
2.75326
1.98284
1.86353
1.97801
3.19859
5.88284
9.67262
2.83371
1.95839
1.3955
1.16769
1.56529
2.09958
2.52089
2.83405
3.20389
3.74719
4.41857
4.68954
4.39813
3.82194
3.15911
2.62109
2.34667
2.33949
2.5508
3.04328
3.68137
4.19205
4.41298
4.43418
0.00519853
0.000599563
0.00326726
0.00385524
0.00523158
0.00665875
0.00887242
0.0113991
0.0137228
0.0156415
0.0178295
0.0207892
0.0242348
0.027686
0.0314662
0.0362968
0.0425121
0.0494757
0.0571588
0.0659494
0.0771197
0.0909338
0.107595
0.126456
0.148419
0.173976
0.20437
0.239482
0.280212
0.326676
0.379137
0.436759
0.498324
0.561875
0.624532
0.68278
0.732837
0.772915
0.804766
0.838813
0.907573
1.07965
1.43446
2.00034
2.71893
3.41297
3.77814
3.51368
3.07665
2.18783
2.03006
2.18996
3.43956
6.13168
9.93184
3.46901
2.44819
1.74844
1.45932
1.86454
2.34259
2.63301
2.85858
3.21526
3.82501
4.61368
4.93835
4.66461
4.07015
3.37936
2.81903
2.53715
2.53753
2.76763
3.288
3.95521
4.46721
4.67516
4.68478
0.00491972
0.000659193
0.00330181
0.00403351
0.00559916
0.00720171
0.00953061
0.0121252
0.0145801
0.0167126
0.0191527
0.0223041
0.0259482
0.0297124
0.0339702
0.0392986
0.0459379
0.0533673
0.0617208
0.0713827
0.083553
0.0984455
0.116335
0.13668
0.160471
0.18802
0.220526
0.257886
0.300995
0.349813
0.404603
0.464492
0.528236
0.593792
0.658298
0.718473
0.771109
0.815054
0.853314
0.89884
0.989515
1.2012
1.61838
2.26322
3.0591
3.81784
4.22098
3.90177
3.40741
2.41506
2.19445
2.40295
3.69619
6.35135
10.1298
4.10788
2.96149
2.15421
1.80044
2.18115
2.56307
2.72089
2.87225
3.22367
3.90687
4.80546
5.17656
4.91787
4.30611
3.58964
3.00955
2.72253
2.73243
2.98223
3.52795
4.22065
4.73165
4.92936
4.94699
0.00460103
0.000613895
0.0032498
0.0041783
0.00593915
0.00775425
0.0102092
0.0129208
0.0155263
0.0179024
0.0205874
0.0239097
0.0277226
0.0317569
0.0364467
0.0422365
0.0492812
0.0571772
0.0661969
0.0767008
0.0898651
0.105816
0.124868
0.146631
0.172158
0.20162
0.236117
0.275563
0.320865
0.37186
0.428796
0.490791
0.556596
0.624074
0.690414
0.752521
0.807827
0.855921
0.90146
0.960249
1.07573
1.33017
1.81168
2.5351
3.40502
4.22445
4.66796
4.30131
3.74864
2.67286
2.36723
2.62375
3.97555
6.5549
10.2633
4.77074
3.53117
2.63655
2.22067
2.53137
2.75959
2.78058
2.87882
3.23952
3.99778
4.99312
5.40262
5.15648
4.52772
3.78742
3.18954
2.8999
2.92111
3.1913
3.7605
4.47507
4.98354
5.1631
5.22547
0.00428237
0.000514133
0.00316669
0.00427387
0.00623012
0.0082342
0.0108338
0.0136857
0.0164807
0.0191357
0.0220661
0.0255546
0.0295182
0.0337855
0.0388462
0.0450339
0.0524371
0.0607619
0.0703798
0.0816428
0.0957401
0.11267
0.132787
0.155855
0.182955
0.214175
0.250486
0.291807
0.339067
0.392033
0.450924
0.51485
0.582561
0.651859
0.719982
0.784061
0.84211
0.894597
0.948082
1.02164
1.16452
1.46468
2.01226
2.81329
3.75418
4.63108
5.11751
4.7111
4.09247
2.95244
2.55298
2.85064
4.26322
6.7378
10.3409
5.41917
4.12617
3.16017
2.68711
2.89446
2.93534
2.81572
2.87573
3.26108
4.09798
5.17791
5.62001
5.38371
4.73747
3.97419
3.36038
3.07024
3.10438
3.39542
3.9855
4.71746
5.22299
5.39141
5.45896
0.0039923
0.000338283
0.00306154
0.0043016
0.00645366
0.00861792
0.0113783
0.0143841
0.0174144
0.0203614
0.0235528
0.0272252
0.0313542
0.0358607
0.0412639
0.0478115
0.0555524
0.0642816
0.0744386
0.0864114
0.10137
0.119212
0.140341
0.164641
0.193209
0.226079
0.2641
0.307195
0.356308
0.411164
0.471951
0.537727
0.607243
0.6783
0.748244
0.81447
0.875605
0.933101
0.995761
1.08633
1.2601
1.61005
2.22642
3.10464
4.11363
5.045
5.57501
5.13429
4.44701
3.26675
2.76115
3.08617
4.56657
6.90293
10.4221
6.04362
4.75558
3.72909
3.2035
3.25489
3.09634
2.83592
2.86714
3.29216
4.21022
5.36057
5.82939
5.5986
4.93347
4.14792
3.51965
3.23065
3.27915
3.59099
4.20024
4.94537
5.44852
5.61319
5.69729
0.00379043
0.000168903
0.00298955
0.00432284
0.00662318
0.00891961
0.0118174
0.0149829
0.0182637
0.02148
0.0249261
0.0287976
0.0331137
0.0378745
0.0435974
0.050471
0.0585391
0.0676364
0.0782723
0.0908987
0.106596
0.125226
0.147257
0.17265
0.202526
0.236856
0.276419
0.321143
0.37197
0.428592
0.491172
0.558683
0.629859
0.702592
0.774368
0.842887
0.907381
0.970452
1.04335
1.15288
1.36046
1.76351
2.45055
3.40481
4.47871
5.46093
6.03459
5.56711
4.80166
3.6114
2.99412
3.32776
4.866
7.05581
10.5344
6.60832
5.3863
4.30731
3.74837
3.59721
3.22463
2.83687
2.84785
3.32641
4.32904
5.5385
6.0307
5.8017
5.11696
4.30978
3.66842
3.38175
3.44611
3.77882
4.40491
5.15821
5.65934
5.82053
5.94956
0.00367053
1.32604e-05
0.00293734
0.00435101
0.00676275
0.00918283
0.012189
0.0155162
0.0190256
0.0224812
0.0261679
0.0302561
0.0347913
0.0398299
0.0458666
0.0530604
0.0614772
0.0709389
0.0820652
0.0953269
0.111686
0.13101
0.153865
0.180256
0.211329
0.246978
0.287994
0.334292
0.386791
0.44514
0.509469
0.578661
0.65145
0.725866
0.799616
0.87072
0.939152
1.0088
1.09368
1.22495
1.47017
1.9305
2.69066
3.72044
4.85605
5.88511
6.50139
6.01597
5.16135
3.99844
3.26503
3.59136
5.16442
7.22997
10.6602
7.1437
6.02241
4.89986
4.27453
3.93493
3.35701
2.84292
2.82383
3.36445
4.45612
5.71446
6.22449
5.99187
5.28643
4.45802
3.80409
3.5211
3.60264
3.9559
4.59693
5.35461
5.85558
6.02108
6.18151
0.00361641
-9.57505e-05
0.00292954
0.00441047
0.00691478
0.0094481
0.0125385
0.0160057
0.0196846
0.0233396
0.0272457
0.0315539
0.0363178
0.0416241
0.04796
0.0554758
0.0642249
0.074036
0.0856749
0.0995344
0.116484
0.136398
0.159968
0.187244
0.219359
0.256142
0.298446
0.346174
0.400209
0.460151
0.526106
0.596889
0.671252
0.747375
0.823213
0.89717
0.970026
1.04714
1.14552
1.3009
1.58687
2.10733
2.94163
4.04538
5.23911
6.30984
6.96728
6.4774
5.51903
4.40024
3.56961
3.88853
5.45171
7.38389
10.7698
7.62058
6.61979
5.46352
4.75305
4.24243
3.49061
2.8642
2.79685
3.39252
4.58334
5.88252
6.40667
6.16753
5.44206
4.59275
3.92694
3.6493
3.74912
4.12322
4.77666
5.53458
6.03643
6.2089
6.43268
0.00360022
-0.000211411
0.00294006
0.00448251
0.00709885
0.00973992
0.0129096
0.0164794
0.0202788
0.0241095
0.028224
0.0327473
0.0377261
0.0432754
0.0499252
0.0577888
0.0668386
0.0770164
0.089199
0.103665
0.121192
0.141668
0.165909
0.194024
0.22709
0.264897
0.308377
0.357433
0.412913
0.474362
0.541868
0.614209
0.690215
0.768177
0.846371
0.923653
1.00179
1.08779
1.20196
1.38476
1.71552
2.2996
3.20947
4.38634
5.63518
6.74171
7.43779
6.96376
5.87512
4.78076
3.90847
4.23035
5.7645
7.5222
10.8726
8.02797
7.16797
5.95602
5.20152
4.5146
3.63228
2.92826
2.79124
3.41045
4.70501
6.04724
6.57874
6.3291
5.58281
4.7127
4.03562
3.76471
3.88365
4.27843
4.94221
5.69799
6.20393
6.39473
6.66365
0.00360837
-0.000340238
0.00297684
0.00458823
0.00734428
0.0100788
0.013308
0.0169236
0.0208187
0.0248251
0.029138
0.0338439
0.0389831
0.0447348
0.0517131
0.0599056
0.069195
0.0797353
0.0924332
0.107493
0.125569
0.146567
0.171415
0.200295
0.23421
0.272922
0.317397
0.367605
0.42439
0.487192
0.556109
0.629953
0.707628
0.787541
0.868305
0.949332
1.03349
1.12967
1.26164
1.47466
1.85329
2.50299
3.48823
4.73596
6.0366
7.17195
7.90198
7.45669
6.211
5.12825
4.27043
4.59912
6.0899
7.6546
10.9802
8.33636
7.61167
6.38595
5.57918
4.73779
3.76793
3.02451
2.81696
3.41698
4.79155
6.19639
6.73464
6.47362
5.70685
4.81711
4.13032
3.8676
4.00689
4.4225
5.09464
5.84591
6.35791
6.57667
6.91192
0.00363712
-0.000519421
0.0029981
0.00470682
0.00762542
0.0104472
0.0137217
0.0173538
0.0213621
0.0255668
0.0300679
0.0349116
0.0401658
0.0461193
0.0534355
0.0619094
0.0714182
0.0823117
0.0955002
0.111148
0.129781
0.151306
0.176765
0.206408
0.241149
0.280725
0.326125
0.377403
0.435396
0.499477
0.569733
0.645065
0.724504
0.806577
0.890293
0.975716
1.06709
1.17532
1.32795
1.57498
2.00549
2.72356
3.78462
5.10154
6.45157
7.60976
8.36337
7.94401
6.55992
5.49938
4.65592
4.98137
6.42502
7.81587
11.0577
8.57063
7.96536
6.77723
5.88835
4.91031
3.9018
3.14975
2.89534
3.45085
4.84435
6.32446
6.87785
6.60179
5.81324
4.9059
4.21103
3.95784
4.11867
4.55437
5.23376
5.98048
6.50335
6.75483
7.18829
0.00367179
-0.000709162
0.00302923
0.00486052
0.0079191
0.0108059
0.0141133
0.0177726
0.0219188
0.0263249
0.0309882
0.0359198
0.0412694
0.0474408
0.05506
0.0637484
0.0734607
0.0846472
0.0982757
0.114462
0.133629
0.15565
0.181672
0.212035
0.247575
0.287976
0.334202
0.386442
0.445537
0.510776
0.582273
0.659034
0.740251
0.82463
0.9116
1.002
1.1016
1.22353
1.39921
1.6833
2.16848
2.95611
4.09179
5.47482
6.87129
8.04605
8.80932
8.41681
6.93658
5.89098
5.04907
5.36418
6.74474
7.98403
11.0983
8.7622
8.26601
7.08697
6.14054
5.03372
4.01358
3.27196
3.00543
3.52343
4.8857
6.41391
7.00008
6.71206
5.90014
4.97808
4.27851
4.03686
4.21983
4.67517
5.36156
6.10367
6.64127
6.93689
7.44674
0.00371029
-0.000926246
0.00304867
0.00501814
0.00818651
0.0111329
0.0144889
0.0182119
0.0224993
0.0270945
0.0319056
0.0368952
0.0423604
0.0487727
0.0566605
0.0655463
0.0754753
0.0869107
0.100938
0.117621
0.137323
0.159844
0.186416
0.217493
0.253849
0.295088
0.342161
0.39535
0.455539
0.521916
0.594658
0.672875
0.755988
0.842937
0.933664
1.0299
1.13921
1.27714
1.47913
1.80421
2.34764
3.20672
4.41655
5.86363
7.30432
8.49106
9.24878
8.88427
7.34938
6.30129
5.45207
5.74953
7.05895
8.15289
11.1436
8.91731
8.53683
7.3453
6.3264
5.11515
4.09277
3.37792
3.1274
3.63064
4.95094
6.48567
7.09914
6.80248
5.96963
5.03633
4.33463
4.10612
4.3113
4.78584
5.48055
6.22002
6.77938
7.13307
7.73413
0.00376558
-0.00113569
0.00307217
0.00515981
0.00841887
0.0114413
0.0148641
0.0186548
0.0230542
0.0278296
0.0327737
0.0378024
0.0433987
0.0500421
0.058149
0.0672327
0.0773686
0.0890191
0.103376
0.120488
0.140685
0.163679
0.190742
0.222459
0.259592
0.301653
0.349559
0.403658
0.4649
0.532392
0.606381
0.686072
0.771156
0.860899
0.95583
1.0587
1.17897
1.33483
1.56579
1.9348
2.5386
3.4693
4.75113
6.2589
7.74048
8.93457
9.67232
9.32751
7.77346
6.70397
5.85742
6.13092
7.35836
8.29079
11.171
9.04494
8.77327
7.55519
6.44524
5.15529
4.124
3.44562
3.23019
3.73804
5.0302
6.55098
7.1664
6.87041
6.02502
5.08608
4.38524
4.16909
4.39451
4.88818
5.59335
6.33309
6.91879
7.33743
8.0451
0.00384909
-0.00134953
0.00308569
0.00525684
0.00861768
0.0117562
0.0152553
0.0190916
0.0235946
0.0285514
0.0336043
0.0386939
0.0444388
0.0513028
0.0595965
0.0689114
0.079262
0.0911316
0.105771
0.12328
0.143956
0.167424
0.19496
0.227269
0.265168
0.308079
0.356872
0.411911
0.474248
0.542945
0.618322
0.699666
0.78698
0.879946
0.979838
1.09051
1.22358
1.40006
1.66348
2.08013
2.7471
3.75025
5.10262
6.66868
8.18865
9.38735
10.0922
9.75993
8.21792
7.11322
6.27273
6.51731
7.6575
8.43798
11.1676
9.14882
8.97347
7.72458
6.51781
5.15586
4.1139
3.48055
3.31243
3.83142
5.10442
6.60236
7.19912
6.91284
6.0695
5.12971
4.43526
4.23026
4.47286
4.98388
5.70254
6.45184
7.07055
7.5677
8.37321
0.0039532
-0.00156938
0.00308897
0.00533976
0.00883049
0.0120932
0.0156382
0.0195013
0.0241248
0.0292253
0.0343532
0.0395405
0.0454318
0.0524826
0.0609384
0.0704971
0.0810679
0.0931465
0.108013
0.12587
0.146977
0.170893
0.198858
0.231672
0.270269
0.313995
0.363667
0.419636
0.48305
0.552999
0.629871
0.713039
0.802835
0.899441
1.005
1.12457
1.27205
1.47136
1.76993
2.23668
2.96803
4.04263
5.46248
7.08284
8.63778
9.83771
10.4997
10.17
8.66533
7.52352
6.68973
6.90214
7.93235
8.57838
11.132
9.22986
9.1443
7.86456
6.55467
5.10741
4.05573
3.47274
3.36478
3.90366
5.15486
6.61307
7.19445
6.93016
6.09865
5.16095
4.48061
4.28886
4.54582
5.07177
5.80735
6.57858
7.23456
7.8174
8.73219
0.00406507
-0.00181984
0.00305369
0.00542001
0.00906877
0.0124304
0.0159962
0.019917
0.0246714
0.029856
0.0350641
0.04038
0.046419
0.0536182
0.0622532
0.0720622
0.0828891
0.0951892
0.110267
0.128452
0.149974
0.174348
0.202756
0.236043
0.275313
0.319863
0.370476
0.427439
0.491998
0.563348
0.64196
0.727298
0.820065
0.921005
1.03331
1.16337
1.32753
1.55263
1.88979
2.40975
3.20723
4.35292
5.83805
7.50951
9.09689
10.2962
10.9076
10.5679
9.11842
7.93754
7.11608
7.29621
8.18764
8.72104
11.0878
9.309
9.29245
7.97362
6.55043
5.01175
3.95215
3.41802
3.38279
3.95614
5.17615
6.57273
7.15094
6.9217
6.10535
5.1743
4.5151
4.34147
4.61299
5.15322
5.90897
6.71824
7.42177
8.1051
9.11343
0.00414842
-0.00206336
0.00302146
0.0055341
0.00933084
0.0127453
0.0163361
0.0203555
0.0252003
0.030425
0.0357349
0.0411827
0.0473567
0.0546638
0.0634887
0.0735336
0.0846325
0.0971471
0.112416
0.13089
0.152784
0.1776
0.206442
0.240149
0.280021
0.32536
0.376925
0.434896
0.500604
0.57344
0.65397
0.74179
0.838001
0.94395
1.06403
1.20605
1.38885
1.64213
2.0203
2.59521
3.45887
4.67354
6.22018
7.93829
9.55399
10.7496
11.3068
10.9421
9.55689
8.3339
7.54362
7.68765
8.43164
8.82876
11.0121
9.38415
9.4211
8.04719
6.50671
4.87123
3.80044
3.30736
3.34725
3.96111
5.15244
6.49937
7.0783
6.87518
6.08149
5.16845
4.53982
4.38836
4.67331
5.22818
6.0055
6.86561
7.62863
8.42125
9.52261
0.00419533
-0.00228544
0.00300263
0.00565726
0.0095652
0.0130166
0.0166803
0.020815
0.0256997
0.0309712
0.0364
0.0419854
0.0482758
0.0556909
0.0647115
0.0750016
0.0863934
0.09913
0.114603
0.133354
0.155624
0.180907
0.210221
0.244365
0.284845
0.331011
0.383624
0.442714
0.509713
0.584244
0.667031
0.757847
0.858244
0.970227
1.09956
1.25557
1.45967
1.74427
2.16658
2.79875
3.72906
5.01119
6.6163
8.37752
10.0173
11.207
11.7096
11.3045
9.99508
8.73052
7.97813
8.08232
8.69417
8.92734
10.9153
9.44708
9.52293
8.08071
6.42319
4.70191
3.63257
3.18549
3.2835
3.92188
5.08686
6.40477
6.98027
6.76683
5.99062
5.11572
4.54047
4.4264
4.7295
5.30237
6.10176
7.02377
7.86529
8.77262
9.9725
0.00421072
-0.0024586
0.00300457
0.00578574
0.00977511
0.0132721
0.0170435
0.0212617
0.0261605
0.0314988
0.03705
0.0427683
0.0491403
0.0566791
0.0658745
0.0764074
0.0880814
0.101024
0.116686
0.135684
0.158319
0.184077
0.213873
0.248459
0.289511
0.336489
0.390183
0.45045
0.518834
0.595198
0.680498
0.774752
0.880008
0.998977
1.13888
1.31069
1.53829
1.85659
2.32506
3.01534
4.01117
5.35763
7.0168
8.81629
10.4741
11.6539
12.1065
11.6428
10.4196
9.12362
8.39431
8.4681
8.95701
9.0186
10.812
9.49423
9.59642
8.08039
6.30544
4.52806
3.48752
3.09168
3.21817
3.86387
4.99894
6.29131
6.84865
6.59163
5.8082
4.97758
4.4856
4.43875
4.77514
5.37379
6.1983
7.18653
8.12311
9.14691
10.414
0.00420572
-0.00259653
0.00299165
0.00589076
0.00994494
0.0135181
0.0174083
0.0216754
0.0266014
0.0320292
0.0377194
0.0435607
0.050001
0.0576855
0.0670538
0.0778352
0.0897903
0.102945
0.118802
0.138046
0.161084
0.187375
0.217725
0.252828
0.294507
0.34237
0.397284
0.458918
0.528951
0.607457
0.695729
0.794092
0.905183
1.03247
1.18473
1.37465
1.6286
1.98364
2.50089
3.25063
4.31128
5.71935
7.42873
9.26227
10.9315
12.0968
12.5089
11.9649
10.8247
9.51558
8.79292
8.84639
9.21688
9.1251
10.7056
9.52341
9.63406
8.04121
6.1598
4.37366
3.38624
3.03029
3.16633
3.80348
4.90022
6.15052
6.66284
6.33371
5.51468
4.72001
4.33447
4.39408
4.79633
5.4408
6.30246
7.35527
8.40605
9.54749
10.8751
0.00415115
-0.00268335
0.00297946
0.00598774
0.0101005
0.0137797
0.0177597
0.0220531
0.0270254
0.0325537
0.0383962
0.0443373
0.0508484
0.0586685
0.0682034
0.0792174
0.0914299
0.104789
0.120824
0.140294
0.163745
0.190602
0.221545
0.257202
0.29953
0.348303
0.404506
0.467644
0.539522
0.620421
0.712043
0.815079
0.932866
1.06964
1.23579
1.44577
1.72825
2.12212
2.68954
3.49868
4.62218
6.0878
7.84218
9.7042
11.376
12.5175
12.9006
12.26
11.1767
9.88631
9.17701
9.20957
9.43009
9.21207
10.5853
9.53915
9.64282
7.96768
6.00199
4.2492
3.31549
2.98841
3.12398
3.74168
4.79691
5.97971
6.41101
5.98417
5.11526
4.3456
4.07066
4.26584
4.77134
5.49087
6.41032
7.5215
8.69777
9.94806
11.3237
0.00403265
-0.00270972
0.00295791
0.0060539
0.0102367
0.0140454
0.0180863
0.0224065
0.0274492
0.0330951
0.0390945
0.0451215
0.0517334
0.0596794
0.0693916
0.0806381
0.0931079
0.106694
0.122921
0.142628
0.16653
0.194031
0.225672
0.262
0.305117
0.354944
0.412627
0.477559
0.551672
0.635444
0.731064
0.839638
0.965331
1.1132
1.29523
1.5277
1.84147
2.27678
2.89624
3.76515
4.95002
6.46984
8.26459
10.1495
11.8142
12.9169
13.2624
12.5318
11.4862
10.2443
9.55576
9.5514
9.62346
9.27261
10.4508
9.54408
9.61864
7.85944
5.8401
4.14937
3.26983
2.96031
3.08836
3.67617
4.68454
5.7689
6.0785
5.52969
4.59922
3.85084
3.68305
4.03314
4.68175
5.51597
6.52341
7.69534
8.99537
10.3481
11.7544
0.0038431
-0.00264879
0.00293739
0.006114
0.0103907
0.0143174
0.0183954
0.02275
0.0278707
0.0336484
0.0397898
0.0458932
0.0526208
0.0606789
0.0705629
0.082029
0.0947477
0.108572
0.124987
0.144919
0.169263