/*--------------------------------*- C++ -*----------------------------------*\
| =========                 |                                                 |
| \\      /  F ield         | OpenFOAM: The Open Source CFD Toolbox           |
|  \\    /   O peration     | Version:  4.1                                   |
|   \\  /    A nd           | Web:      www.OpenFOAM.org                      |
|    \\/     M anipulation  |                                                 |
\*---------------------------------------------------------------------------*/
FoamFile
{
    version     2.0;
    format      ascii;
    class       surfaceScalarField;
    location    "4";
    object      phi;
}
// * * * * * * * * * * * * * * * * * * * * * * * * * * * * * * * * * * * * * //

dimensions      [0 3 -1 0 0 0 0];

internalField   nonuniform List<scalar> 
13220
(
-949.901
2249.86
-1573.89
1924.26
-2053.92
1779.97
-2424.19
1670.22
-2699.9
1575.94
-2888.5
1488.53
-2993.28
1404.7
-3014.19
1321.12
-2950.07
1235.78
-2797.79
1147.63
-2551.81
1054.22
-2193.68
941.802
-1687.85
794.091
-1013.2
625.565
286.698
372.613
1877.26
442.014
1854.87
436.383
1785.57
405.659
1700.91
379.436
1602.08
358.71
1509.18
344.033
1419.26
336.251
1328.8
332.2
1239.71
325.708
1154
308.399
1071.44
266.197
983.804
190.336
869.735
110.857
704.82
397.542
33.3392
1843.05
-98.6377
1985.63
-255.725
1941.88
-374.189
1818.29
-476.708
1703.95
-571.806
1603.34
-656.278
1503.25
-730.908
1402.61
-793.331
1301.7
-842.888
1202.83
-873.599
1101.66
-860.901
970.412
-743.711
751.589
-435.163
395.207
-37.6335
28.1557
1814.58
-101.897
2115.29
-227.115
2066.69
-306.059
1896.85
-369.829
1767.28
-418.614
1651.77
-448.029
1532.08
-458.676
1412.92
-453.825
1296.16
-432.332
1180.82
-389.292
1058.2
-313.889
894.023
-194.698
630.894
-49.7302
248.678
-87.3867
169.116
1645.92
146.636
2138.61
125.076
2088.5
125.468
1897.27
129.76
1762.97
139.538
1642.71
152.863
1518.52
171.238
1395.17
191.495
1275.64
212.563
1159.66
233.884
1037.39
246.033
879.465
232.339
642.056
150.967
327.64
63.6134
224.687
1421.33
247.153
2116.44
238.272
2097.43
239.745
1896.1
244.002
1758.95
247.776
1639.18
249.819
1516.83
247.88
1397.21
243.214
1280.63
235.676
1167.88
221.566
1051.22
201.34
903.079
160.517
686.663
83.7692
407.959
147.37
208.497
1211.96
244.248
2079.58
218.49
2122.63
194.293
1919.21
179.344
1773.52
164.871
1652.67
151.009
1530.57
136.189
1411.28
121.806
1295.1
107.766
1181.29
95.2389
1064.35
77.2889
919.139
52.5457
709.813
18.1776
440.932
165.572
177.933
1034.05
229.823
2027.41
206.21
2146.3
175.623
1949.6
157.3
1792.18
143.015
1666.95
128.715
1545.37
114.789
1425.35
102.519
1307.79
91.1058
1193.35
79.5792
1075.82
68.5276
932.808
50.6154
730.697
23.9524
470.317
189.538
151.872
883.917
221.661
1959.13
209.972
2159.41
183.512
1977.55
167.139
1809.91
155.866
1679.69
144.334
1558.03
132.062
1438.99
119.837
1321
108.131
1206.27
94.9578
1089.96
79.0865
949.744
56.7961
754.639
25.9163
502.744
215.472
127.954
758.188
209.112
1880.21
208.181
2162.06
183.126
2004.87
166.175
1828.59
153.845
1694.27
141.139
1572.37
128.575
1453.49
114.634
1336.39
100.949
1221.57
86.2027
1105.48
70.0905
967.849
48.9996
777.819
22.6408
531.044
238.142
107.086
652.129
192.651
1795.82
200.701
2154.52
176.152
2030.45
157.146
1848.04
144.278
1708
129.974
1586.94
115.586
1468.45
100.393
1351.6
85.0628
1237.75
68.096
1121.6
54.4815
984.978
36.8815
798.725
16.3889
554.515
254.493
98.9881
552.444
186.015
1708.42
200.944
2139.1
173.632
2057.24
145.79
1875.08
126.422
1726.61
110.757
1601.69
95.8632
1482.57
82.5281
1364.33
69.8199
1249.15
58.8817
1132.84
42.6514
996.848
22.8472
814.026
2.20743
571.077
256.689
97.1237
453.723
231.904
1572.48
275.143
2094.8
267.362
2064
261.611
1879.93
259.469
1727.79
252.695
1607.8
239.633
1494.87
220.971
1382.62
198.487
1270.97
173.597
1157.82
141.713
1027.45
102.18
852.424
52.2498
619.949
308.961
137.449
315.964
251.133
1458.78
286.703
2059.04
230.227
2120.4
153.42
1956.7
97.8444
1783.3
69.5205
1636.3
57.9602
1506.5
56.8494
1384.07
60.1061
1268.19
63.9301
1154.33
63.6607
1029.45
47.5134
870.986
19.386
650.365
328.394
-181.075
272.774
871.949
1317.24
1538.47
1627.83
1602.38
1522.7
1388.92
1227.85
1044.09
835.897
606.846
322.078
-1.46872
804.639
-807.345
802.091
800.224
798.874
1498.55
-700.397
1497.17
1496.03
1495.11
2034.01
-539.998
2032.75
2031.84
2433.53
-402.282
2432.29
2431.29
2430.5
2704.42
-274.47
2703.71
2703.17
2871.55
-168.865
2870.76
2869.86
2869.27
2930.25
-61.4895
2929.28
2928.68
2927.97
2905.6
21.3308
2904.32
2903.7
2811.73
91.1407
2811.17
2810.15
2809.99
2636.35
172.811
2635.9
2634.96
2411.47
223.422
2410.22
2410
2409.05
2140.46
268.659
2139.27
2138.96
2138.06
1910.27
227.42
1909.09
1909.07
1714.12
193.966
1714.15
1712.99
1713.37
1414
298.079
1414.31
1412.91
1413.54
991.798
420.244
991.388
989.846
465.416
524.073
463.031
461.285
460.455
-101.982
559.354
-105.333
-108.463
-1164.25
1056.73
-1165.98
-1164.98
-1166.16
-2761.62
1596.48
-2761.85
-2761.01
-2760.98
-4726.5
1965.81
-4725.71
-4725.83
-6949.92
2224.53
-6950.27
-6949.91
-6837.23
-6716.68
-6586.09
-8863.32
2404.62
-8743.87
-8593.09
-8417.49
-8237.84
-8058.52
-7883.8
-7703.42
-7500.06
-9835.15
2537.85
-9620.96
-9411.51
-9203.82
-8974.69
-8742.73
-8509.43
-8276.08
-8042.26
-10366.7
2562.6
-10114.6
-9862.06
-9609.4
-9357.92
-9101.15
-8833.26
-8562.82
-8290.4
-8019.09
-10217.7
2459.1
-9933.98
-9648.83
-9362.59
-9078.26
-8794.72
-8497.88
-8192.25
-7888.82
-9770.84
2171.41
-9477.95
-9178.62
-8867.21
-8555.02
-8243.33
-7931.4
-7620.08
-7292.89
-8690.03
1712.86
-8373.47
-8058.76
-7746.16
-7420.88
-7089.51
-6758.84
-6430.65
-6110.94
-6815.2
1021.12
-6496.36
-6180.43
-5867.89
-5557.85
-5254.61
-4964.59
-4681.72
-4406.66
-4143.92
-3834.81
-41.5953
-3617.5
-3421.78
-3235.07
-3049.43
-2865.79
-2708.34
-2620.17
-2529.82
-1926.49
-503.007
-1844.46
-1760.36
-1760.25
-1378.45
-387.006
-1009.52
-366.18
-1014.53
-669.12
-342.438
-675.172
-349.306
-322.287
-90.2668
-270.797
-79.5442
139.531
-234.319
332.035
-177.272
319.634
516.982
-180.794
502.14
702.74
-183.884
835.665
-146.546
849.042
980.255
-141.009
995.171
1126.72
-134.742
1248.67
-106.981
1247.06
1366.16
-107.103
1448.79
-85.3029
1458
1543.14
-86.1488
1550.84
1637.93
-84.0018
1711.62
-66.5429
1714.61
1788.27
-68.5538
1791.3
1862.44
-66.8769
1918
-52.962
1920.14
1980.49
-57.1256
2027.04
-45.1207
2029.78
2078.98
-48.7202
2081.8
2132.34
-50.3123
2173.85
-38.9091
2173.72
2221.18
-45.1389
2220.68
2269.16
-46.2926
2303.45
-34.9742
2305.1
2347.96
-43.1085
2381.64
-32.0403
2381.31
2421.41
-38.955
2420.99
2464.88
-42.9112
2495.18
-30.8454
2496.26
2537.41
-41.6316
2538.34
2583.16
-44.9584
2617.2
-33.1881
2616.81
2663.06
-45.512
2697.68
-34.9274
2698.2
2743.33
-45.3019
2743.83
2794.03
-50.3129
2833.29
-38.9545
2833.21
2887.91
-54.4364
2887.75
2947.51
-59.379
2996.54
-49.3372
2997.04
3063.28
-66.4968
3123.33
-59.2084
3123.24
3197.8
-74.3652
3197.87
-85.0726
-360.044
22.3878
-357.969
21.6517
-355.898
17.6684
-353.678
14.9912
-351.335
11.9938
-348.906
9.23633
-346.419
6.60583
-343.902
4.35311
-341.376
2.46742
-338.862
1.03017
-336.372
-0.00546654
-333.917
-0.516087
-331.483
-0.425129
-329.051
0.412313
-326.586
1.94467
-324.062
4.26314
-321.436
7.44621
-318.651
11.7425
-315.657
17.2768
-312.414
24.0831
-308.904
32.4365
-305.123
42.5136
-301.116
54.747
-296.993
69.4078
-292.976
87.1372
-289.393
108.252
-286.72
133.785
-285.498
164.818
-286.346
203.399
-289.717
251.214
-295.765
311.314
-303.925
386.469
-312.684
479.628
-319.181
591.412
-319.469
719.966
-309.254
857.981
-285.729
992.772
-249.553
1106.8
-206.663
1183.44
-168.76
1224.98
-151.636
1299.75
-165.358
1586.93
-199.276
2269.42
-224.273
3304.88
-217.123
4390.02
-178.532
5172.29
-120.302
5525.56
-39.9674
5373.43
31.168
3912.55
53.6173
1512.31
34.3222
672.848
-74.1667
-631.997
-70.2793
-2023.28
-32.2092
-3040.5
28.7483
5704.96
145.255
2566.23
155.096
1423.86
112.881
971.445
107.154
585.731
126.189
307.23
213.631
-371.511
268.311
-1451.8
161.915
-2075.09
-6.79606
-2221
39.3784
1250.86
112.722
2474.15
177.779
2520.99
229.123
2255.68
256.524
1814.7
263.696
1320.32
259.909
861.481
255.195
451.004
254.004
49.1386
247.74
-359.096
242.019
-805.149
234.444
-1377.57
202.952
-2025.74
141.422
-2566.97
-3015.66
-349.879
20.6265
-347.229
19.0669
-344.766
15.3429
-342.199
12.6167
-339.574
9.65
-336.942
6.93306
-334.319
4.38063
-331.737
2.20781
-329.193
0.414724
-326.707
-0.933085
-324.272
-1.87402
-321.903
-2.29331
-319.577
-2.12743
-317.279
-1.24327
-314.972
0.304251
-312.642
2.61913
-310.273
5.78225
-307.827
10.0223
-305.279
15.4618
-302.607
22.1625
-299.834
30.3852
-296.96
40.3639
-294.093
52.5154
-291.295
67.2113
-288.845
85.0763
-286.906
106.633
-286.02
132.904
-286.434
165.133
-288.805
205.208
-293.116
254.898
-299.598
316.741
-307.197
393.02
-314.681
485.625
-318.913
594.272
-316.735
716.094
-304.158
843.833
-279.49
966.091
-243.073
1068.42
-200.708
1138.67
-163.273
1185.03
-147.19
1280.54
-161.725
1598.6
-195.502
2300.63
-219.951
3327.29
-213.188
4381.25
-176.178
5133.45
-121.661
5469.68
-48.9063
5299.53
14.7605
3846.42
43.3537
1478.23
71.0291
643.312
-25.2607
-542.759
-60.52
-1989.61
-41.0134
-3061.37
67.6741
5594.36
45.5654
2584.36
138.2
1340.47
131.977
986.412
120.47
608.555
113.934
334.972
223.29
-479.761
276.05
-1501.05
158.341
-1952.99
-48.8519
-2001.4
58.4991
1156.11
128.163
2411.08
184.435
2469.69
231.462
2213.13
257.39
1792.3
265.475
1316.49
263.645
867.313
261.055
458.862
257.367
55.6482
248.931
-349.736
242.901
-798.145
232.175
-1366.39
195.518
-1989.35
127.807
-2499.88
-2962.97
-337.916
18.5577
-335.01
16.1173
-332.365
12.6377
-329.667
9.80716
-326.978
6.82675
-324.35
4.11688
-321.794
1.60772
-319.341
-0.513215
-316.971
-2.2476
-314.706
-3.53392
-312.529
-4.41015
-310.457
-4.75862
-308.456
-4.53366
-306.511
-3.61128
-304.59
-2.03919
-302.688
0.295086
-300.803
3.49109
-298.906
7.73725
-296.985
13.187
-295.055
19.918
-293.165
28.2215
-291.34
38.3215
-289.706
50.6914
-288.329
65.7084
-287.475
84.0651
-287.256
106.32
-288.126
133.581
-290.164
167.043
-293.845
208.553
-298.916
259.724
-305.386
322.743
-311.999
399.29
-317.473
490.463
-318.839
595.182
-313.458
710.013
-298.091
827.965
-271.799
938.966
-235.232
1031.23
-194.024
1096.57
-158.598
1148.87
-144.771
1265.64
-160.716
1613.83
-194.41
2333.72
-217.949
3350.5
-210.76
4373.67
-174.525
5096.99
-122.003
5417.39
-52.233
5230.04
7.87413
3785.16
35.5401
1447.3
54.8977
626.048
-18.4459
-464.067
-53.008
-1954.13
-40.3585
-3072.97
83.5757
5470.03
24.199
2638.88
115.684
1254.99
126.483
980.748
96.5262
643.901
112.187
327.822
235.424
-609.62
278.73
-1549.29
182.108
-1861.6
-12.1923
-1821.72
66.5214
1079.98
132.978
2346.42
186.062
2418.25
231.703
2169.31
258.543
1766.56
268.343
1308.41
267.777
869.102
265.331
463.384
259.458
59.8219
250.675
-342.846
243.534
-791.855
230.458
-1353.58
191.113
-1949.9
126.109
-2434.2
-2895.18
-324.831
16.4478
-321.98
13.3326
-319.472
10.272
-316.968
7.49422
-314.546
4.68708
-312.252
2.14592
-310.087
-0.160897
-308.08
-2.08784
-306.197
-3.63702
-304.453
-4.7525
-302.826
-5.46337
-301.326
-5.65671
-299.921
-5.29787
-298.585
-4.28463
-297.296
-2.63905
-296.051
-0.240671
-294.861
3.02693
-293.703
7.32376
-292.568
12.8004
-291.493
19.605
-290.539
27.9969
-289.739
38.2589
-289.225
50.8367
-289.055
66.1931
-289.485
84.9791
-290.568
107.884
-292.69
135.956
-295.798
170.403
-300.215
212.883
-305.473
264.934
-311.388
328.296
-316.544
404.162
-319.65
492.921
-317.966
592.988
-309.379
700.621
-291.355
809.277
-263.616
910.146
-227.101
993.737
-187.377
1055.48
-154.522
1114.66
-143.589
1252.86
-161.347
1629.97
-194.934
2365.69
-217.247
3371.45
-209.269
4364.15
-173.322
5059.51
-121.734
5364.54
-54.0014
5161.18
3.56784
3725.26
28.5998
1416.46
44.0392
607.214
-14.8664
-418.188
-43.419
-1927.28
-38.0534
-3079.26
98.8284
5331.3
13.0043
2720.58
93.0565
1183.12
114.185
965.925
76.8427
688.296
125.985
289.614
253.079
-736.091
285.619
-1578.5
193.33
-1765.3
14.5186
-1634.51
72.0259
1031.51
134.623
2288.14
186.111
2369.46
231.419
2126.4
259.78
1739.8
271.653
1298.97
272.543
870.509
270.412
469.118
262.921
68.1904
253.657
-333.413
245.136
-782.591
229.119
-1337.21
186.176
-1907.34
117.595
-2366.27
-2844.86
-313.047
14.5603
-310.644
10.873
-308.625
8.17984
-306.667
5.4022
-304.841
2.70635
-303.182
0.269497
-301.673
-1.91468
-300.339
-3.72534
-299.129
-5.17369
-298.057
-6.1998
-297.094
-6.82465
-296.25
-6.93688
-295.492
-6.50461
-294.799
-5.44838
-294.156
-3.75356
-293.572
-1.30222
-293.056
2.04565
-292.601
6.41712
-292.204
11.9778
-291.906
18.9163
-291.777
27.507
-291.845
38.0229
-292.239
50.9482
-292.992
66.741
-294.34
86.098
-296.281
109.692
-299.126
138.606
-302.724
173.922
-307.262
217.193
-312.111
269.703
-316.938
332.881
-320.238
407.391
-320.763
493.133
-316.036
588.161
-304.448
688.72
-284.075
788.828
-255.177
880.866
-218.937
957.372
-180.923
1017.12
-150.947
1084.59
-143.199
1244.76
-162.869
1649.62
-196.253
2399.05
-217.151
3392.5
-208.183
4355.2
-172.207
5023.69
-120.952
5313.86
-54.7906
5095.64
0.705744
3668.96
23.5347
1390.91
43.2624
589.976
-7.16528
-357.248
-33.7175
-1900.35
-34.7539
-3077.41
115.497
5180.7
6.47392
2825.07
71.9703
1123.14
92.3
950.121
65.7214
719.026
153.294
201.991
272.165
-860.828
293.88
-1605.27
204.766
-1681.64
32.1786
-1474.51
75.5772
989.041
134.53
2229.81
185.331
2319.38
230.872
2081.85
260.994
1710
275.123
1285.77
277.582
868.514
275.998
471.992
267.473
74.6829
257.368
-324.916
247.02
-772.843
227.781
-1318.07
181.433
-1860.84
115.436
-2299.53
-2777.87
-305.173
13.1744
-303.547
9.31804
-302.259
7.04404
-301.062
4.4011
-299.995
1.93075
-299.089
-0.310124
-298.309
-2.2952
-297.672
-3.92944
-297.124
-5.22494
-296.675
-6.1227
-296.298
-6.62425
-296.007
-6.62503
-295.773
-6.0939
-295.588
-4.96531
-295.444
-3.19997
-295.362
-0.667942
-295.352
2.7678
-295.418
7.23101
-295.57
12.8769
-295.836
19.9421
-296.298
28.6928
-296.975
39.4362
-297.988
52.6278
-299.337
68.7687
-301.231
88.5249
-303.607
112.626
-306.705
142.072
-310.279
177.905
-314.408
221.447
-318.333
273.83
-321.623
336.103
-322.762
408.568
-320.613
490.684
-312.977
580.375
-298.705
674.007
-276.369
766.207
-246.652
850.447
-210.927
921.086
-174.829
980.087
-147.929
1056.83
-143.491
1239.02
-165.042
1670.06
-198.12
2430.91
-217.5
3410.78
-207.414
4343.74
-171.155
4985.99
-119.864
5261.27
-54.875
5029.36
-1.05432
3612.62
20.1444
1363.01
41.6456
562.833
-7.98047
-330.311
-21.7566
-1888.87
-30.3681
-3069.32
133.044
5015.7
8.42129
2945.82
50.36
1088.02
68.3206
938.337
65.0463
729.104
181.848
90.7359
289.771
-967.104
301.361
-1613.29
212.902
-1589.37
44.5901
-1301.1
77.6809
961.97
133.331
2176.93
184.077
2270.08
230.315
2037.04
262.345
1678.73
278.835
1270.96
282.981
865.965
282.059
475.761
272.818
83.72
261.615
-314.051
249.201
-759.856
226.503
-1295.09
176.488
-1811.3
109.212
-2232.98
-2729.01
-302.718
12.4337
-301.978
8.51008
-301.444
6.42013
-300.998
3.79641
-300.633
1.38784
-300.383
-0.808584
-300.201
-2.75403
-300.108
-4.36032
-300.049
-5.64475
-300.043
-6.54102
-300.065
-7.03743
-300.137
-7.02825
-300.232
-6.48668
-300.361
-5.34895
-300.52
-3.5589
-300.738
-0.976244
-301.025
2.53525
-301.395
7.09029
-301.868
12.8592
-302.464
20.0782
-303.26
29.0508
-304.27
40.0616
-305.601
53.5908
-307.222
70.1017
-309.306
90.2972
-311.733
114.848
-314.667
144.749
-317.778
180.896
-321.057
224.475
-323.653
276.348
-325.088
337.321
-323.887
407.348
-319.092
485.643
-308.784
570.063
-292.215
657.234
-268.338
742.399
-238.157
820.032
-203.2
886.196
-169.221
945.971
-145.545
1033.32
-144.459
1237.87
-167.816
1693.71
-200.503
2463.84
-218.303
3428.99
-206.981
4332.68
-170.209
4949.64
-118.53
5210.44
-54.2384
4965.98
-1.67537
3559.55
18.799
1340.31
78.809
507.084
30.1937
-260.402
-8.56498
-1849.58
-25.154
-3052.17
151.33
4838.8
21.1348
3071.8
26.488
1087.29
49.7503
918.74
73.9001
707.7
205.837
-43.9195
307.219
-1074.05
309.274
-1620.22
218.927
-1504.18
53.4957
-1145.79
77.7829
938.611
130.926
2124.08
182.31
2219.09
229.724
1990.32
263.813
1644.63
282.684
1252.68
288.596
860.155
288.339
476.934
278.654
91.4346
266.259
-302.821
251.515
-745.356
225.158
-1268.6
171.488
-1757.42
100.981
-2161.67
-2681.45
-305.602
12.3359
-305.629
8.60795
-305.694
6.63777
-305.822
4.11642
-305.962
1.81613
-306.159
-0.296075
-306.362
-2.1634
-306.599
-3.71094
-306.821
-4.94646
-307.057
-5.80646
-307.286
-6.26102
-307.535
-6.21162
-307.781
-5.6319
-308.048
-4.454
-308.336
-2.61354
-308.678
0.039739
-309.08
3.62695
-309.56
8.27354
-310.149
14.1484
-310.859
21.5
-311.758
30.6257
-312.845
41.8406
-314.215
55.5891
-315.808
72.3485
-317.76
92.7732
-319.891
117.547
-322.299
147.557
-324.58
183.641
-326.663
226.764
-327.642
277.635
-327.04
336.776
-323.465
403.955
-316.171
478.202
-303.508
557.419
-285.066
638.513
-260.067
717.296
-229.766
789.197
-195.829
851.895
-164.154
913.554
-143.832
1012.37
-146.098
1239.08
-171.176
1717.91
-203.4
2495.02
-219.559
3444.17
-206.872
4318.7
-169.352
4910.72
-116.913
5156.66
-52.8525
4900.46
-1.1558
3505.16
19.0978
1312.76
76.8137
441.825
30.0229
-239.724
3.2754
-1825.38
-19.0585
-3029.98
170.195
4648.33
41.7464
3197.06
8.07173
1126.23
33.5207
900.072
83.6382
667.032
229.352
-185.41
325.41
-1167.25
316.21
-1607.13
221.836
-1406.24
58.5282
-980.74
75.944
925.513
127.345
2074.4
180.012
2167.19
229.068
1942.28
265.354
1608.75
286.612
1232.81
294.347
853.761
294.808
479.026
284.876
100.652
271.159
-289.714
253.87
-727.557
223.673
-1238.12
166.625
-1700.88
100.827
-2096.58
-2620.72
-312.389
12.6867
-312.937
9.08168
-313.376
6.97596
-313.846
4.41174
-314.267
2.04397
-314.699
-0.133474
-315.09
-2.06976
-315.474
-3.68867
-315.81
-4.99544
-316.136
-5.91997
-316.431
-6.42667
-316.727
-6.4195
-317.002
-5.87383
-317.286
-4.7144
-317.585
-2.86702
-317.928
-0.182291
-318.318
3.45667
-318.774
8.17493
-319.326
14.1606
-319.985
21.6469
-320.805
30.9492
-321.768
42.3605
-322.948
56.3387
-324.264
73.314
-325.813
93.9447
-327.367
118.835
-328.963
148.836
-330.141
184.646
-330.79
227.114
-329.993
276.724
-327.312
333.847
-321.465
398.075
-311.922
468.399
-297.278
542.782
-277.389
618.431
-251.672
691.696
-221.568
758.895
-188.895
819.364
-159.709
884.307
-142.861
995.808
-148.468
1244.77
-175.176
1745.06
-206.851
2527.09
-221.29
3459.19
-207.093
4304.94
-168.582
4872.85
-114.989
5104.15
-50.6728
4837.33
0.405198
3453.91
19.5366
1292.1
107.505
360.57
74.6256
-176.911
16.2264
-1766.05
-12.021
-3001.3
189.265
4446.57
71.7115
3310.79
1.65348
1200.31
20.2188
885.615
98.5359
590.874
255.764
-345.723
343.93
-1260.83
321.456
-1589.69
221.994
-1311.48
60.6351
-829.574
72.0176
915.835
122.54
2024.34
177.132
2113.08
228.288
1891.92
266.915
1570.14
290.592
1209.74
300.157
844.285
301.336
478.778
291.282
109.07
276.173
-275.305
256.141
-707.498
221.961
-1203.65
161.551
-1640.19
95.3807
-2029.52
-2574.51
-321.09
13.3184
-321.909
9.96623
-322.521
7.74115
-323.137
5.21887
-323.664
2.85892
-324.175
0.689833
-324.617
-1.2428
-325.032
-2.86774
-325.379
-4.18029
-325.705
-5.10739
-325.989
-5.60778
-326.263
-5.59505
-326.503
-5.04294
-326.743
-3.86788
-326.987
-1.98696
-327.263
0.745373
-327.57
4.42998
-327.92
9.20418
-328.339
15.2569
-328.831
22.829
-329.442
32.2147
-330.132
43.7227
-330.955
57.7751
-331.803
74.807
-332.747
95.414
-333.514
120.181
-334.102
149.848
-334.007
185.052
-333.112
226.475
-330.51
274.494
-325.842
329.305
-317.94
390.44
-306.477
456.867
-290.25
526.668
-269.325
597.309
-243.254
665.62
-213.639
728.817
-182.46
787.909
-155.943
857.113
-142.668
981.986
-151.583
1252.72
-179.807
1772.49
-210.831
2557.12
-223.457
3470.87
-207.603
4287.79
-167.856
4831.7
-112.753
5047.63
-47.7605
4770.66
3.14101
3400.11
19.0318
1268.39
75.9931
293.564
62.7202
-186.952
29.4638
-1735.51
-4.17541
-2967.42
207.701
4233.94
107.094
3409.28
6.33851
1306.02
15.5344
885.294
126.859
492.006
287.733
-501.322
360.836
-1329.43
322.267
-1546.31
218.176
-1203.83
59.4634
-671.833
66.2132
913.499
116.6
1975.13
173.653
2056.58
227.328
1839.28
268.437
1529.49
294.569
1185.1
305.962
834.365
307.89
479.529
297.774
118.455
281.145
-259.359
258.244
-684.1
220.034
-1165.12
156.448
-1577.12
88.7606
-1962.53
-2532.39
-329.78
14.0325
-330.673
10.7794
-331.317
8.27782
-331.948
5.6638
-332.468
3.1766
-332.962
0.904346
-333.378
-1.13217
-333.761
-2.85485
-334.071
-4.26089
-334.359
-5.26506
-334.6
-5.83174
-334.828
-5.87712
-335.015
-5.37777
-335.193
-4.24249
-335.364
-2.37783
-335.549
0.35307
-335.743
4.04709
-335.951
8.83956
-336.191
14.933
-336.457
22.5567
-336.783
32.01
-337.111
43.5706
-337.473
57.6634
-337.738
74.6788
-337.954
95.2014
-337.818
119.732
-337.301
148.964
-335.882
183.419
-333.455
223.699
-329.148
270.041
-322.694
322.565
-313.041
380.739
-300.032
443.571
-282.62
509.268
-261.037
575.529
-234.936
639.664
-206.078
699.767
-176.616
758.628
-152.952
833.425
-143.334
972.733
-155.501
1265.06
-185.106
1802.62
-215.356
2587.86
-226.061
3482.26
-208.404
4270.68
-167.178
4791.24
-110.233
4991.91
-44.1118
4705.9
7.03693
3349.04
17.4307
1256.94
62.9797
257.549
72.9784
-167.805
43.6775
-1704.96
4.72273
-2928.16
224.278
4013.86
144.661
3485.26
27.2288
1426.71
44.6666
869.751
181.488
351.302
326.871
-650.79
378.008
-1385.85
321.971
-1495.18
211.58
-1098
56.3798
-533.253
58.493
913.237
109.548
1924.73
169.592
1996.96
226.157
1783.43
269.898
1485.6
298.49
1156.93
311.677
821.046
314.296
477.678
304.118
127.09
285.947
-241.552
260.086
-657.901
217.798
-1122.34
151.454
-1510.44
88.3518
-1898.42
-2477.72
-336.956
14.7638
-337.797
11.6774
-338.385
9.01188
-338.951
6.40827
-339.401
3.9029
-339.828
1.6268
-340.18
-0.414244
-340.506
-2.14698
-340.763
-3.56002
-341.005
-4.56587
-341.203
-5.12836
-341.388
-5.17372
-341.531
-4.67779
-341.658
-3.54396
-341.765
-1.67153
-341.868
1.06868
-341.953
4.76071
-342.019
9.54698
-342.072
15.6263
-342.096
23.2343
-342.112
32.6465
-342.042
44.1433
-341.904
58.1114
-341.544
74.9406
-340.994
95.1584
-339.93
119.239
-338.319
147.774
-335.632
181.241
-331.797
220.13
-325.986
264.626
-318.028
314.755
-306.972
369.984
-292.802
429.355
-274.581
491.2
-252.673
553.452
-226.824
613.86
-198.964
671.467
-171.434
730.865
-150.795
812.127
-144.896
966.327
-160.225
1279.48
-191.053
1832.73
-220.391
2616.26
-229.063
3490.06
-209.457
4249.82
-166.52
4746.96
-107.448
4931.44
-39.7721
4636.48
12.0997
3294.24
17.6964
1243.62
30.4047
233.171
57.2348
-209.889
57.9537
-1707.97
14.3623
-2883.88
239.046
3788.75
182.471
3540.67
62.1694
1552.25
91.7719
852.318
236.93
217.561
363.335
-770.218
393.175
-1409.79
325.618
-1421.56
211.4
-980.792
58.9558
-386.245
49.123
927.55
101.497
1873.38
164.98
1934.17
224.758
1724.99
271.264
1439.79
302.298
1127.66
317.251
807.859
320.552
477.376
310.263
136.883
290.477
-222.347
261.608
-628.503
215.256
-1075.58
146.478
-1442.11
83.5165
-1836.04
-2441.21
-341.565
15.4146
-342.274
12.3023
-342.754
9.37996
-343.212
6.67274
-343.562
4.04699
-343.903
1.6803
-344.18
-0.446555
-344.445
-2.25746
-344.656
-3.74275
-344.863
-4.80913
-345.035
-5.42599
-345.2
-5.52486
-345.323
-5.08295
-345.429
-4.00093
-345.501
-2.17194
-345.55
0.524897
-345.555
4.17126
-345.506
8.90429
-345.399
14.9297
-345.203
22.4711
-344.926
31.8053
-344.479
43.1816
-343.863
56.9797
-342.908
73.5504
-341.635
93.4071
-339.71
116.956
-337.106
144.748
-333.302
177.178
-328.27
214.693
-321.227
257.396
-312.091
305.283
-299.99
357.806
-285.025
414.058
-266.33
472.501
-244.389
531.286
-219.039
588.658
-192.4
644.615
-167.014
705.67
-149.569
794.67
-147.434
964.602
-165.813
1298.09
-197.685
1865.2
-225.953
2645.09
-232.472
3497.36
-210.771
4228.79
-165.904
4703.02
-104.438
4871.37
-34.7308
4568.34
18.4004
3241.56
20.3631
1241.49
25.0747
241.503
61.8916
-219.497
73.8265
-1718.2
25.1384
-2834.83
251.982
3561.36
219.904
3569.26
111.544
1663.31
150.639
813.31
290.421
70.9012
394.789
-879.812
399.561
-1420.5
323.161
-1349.59
216.894
-880.317
66.6548
-250.07
37.6585
958.587
92.5208
1819.52
159.874
1867.45
223.134
1662.6
272.518
1390.33
305.964
1094.7
322.613
791.093
326.497
474.326
316.015
146.029
294.647
-201.031
262.753
-596.108
212.351
-1024.65
141.765
-1371.13
83.7095
-1776.84
-2389.24
-342.987
16.0128
-343.523
12.8936
-343.873
9.87899
-344.21
7.18802
-344.456
4.56997
-344.714
2.2287
-344.928
0.127814
-345.154
-1.6597
-345.344
-3.11986
-345.548
-4.1612
-345.728
-4.75354
-345.91
-4.83964
-346.054
-4.39435
-346.18
-3.31852
-346.262
-1.50338
-346.302
1.16465
-346.272
4.75766
-346.154
9.41637
-345.933
15.3399
-345.566
22.752
-345.052
31.9082
-344.285
43.0567
-343.26
56.5401
-341.792
72.7082
-339.9
92.0245
-337.245
114.878
-333.816
141.744
-329.107
172.988
-323.135
208.986
-315.157
249.82
-305.17
295.435
-292.36
345.299
-276.921
398.55
-258.042
453.771
-236.314
509.368
-211.677
564.067
-186.464
618.938
-163.425
682.391
-149.326
779.888
-150.978
965.747
-172.265
1318.5
-204.977
1897.24
-232.007
2671.26
-236.254
3500.81
-212.315
4203.67
-165.313
4654.77
-101.225
4805.97
-29.0547
4494.49
26.0241
3183.68
26.7229
1233.69
26.9548
230.202
70.8933
-272
90.7624
-1739.64
36.9257
-2779.83
261.835
3336.29
252.031
3578.76
157.576
1764.38
206.94
782.417
336.412
-45.7761
418.578
-952.585
395.325
-1389.68
302.309
-1249.57
192.348
-766.09
51.4969
-110.601
23.9897
990.078
82.6726
1762.26
154.319
1797.2
221.291
1597.77
273.629
1339.36
309.454
1061.28
327.735
775.234
332.17
473.552
321.388
156.853
298.408
-178.386
263.486
-560.742
209.117
-969.863
137.12
-1299.54
81.0521
-1721.27
-2354.71
-340.948
16.5038
-341.304
13.159
-341.53
9.98768
-341.761
7.21488
-341.925
4.52345
-342.131
2.13911
-342.316
0.00101913
-342.541
-1.81521
-342.753
-3.30197
-343
-4.36625
-343.236
-4.98486
-343.484
-5.10556
-343.699
-4.70411
-343.895
-3.68265
-344.039
-1.9312
-344.123
0.65659
-344.113
4.15268
-343.985
8.69079
-343.713
14.472
-343.244
21.7073
-342.569
30.6522
-341.571
41.5286
-340.238
54.6684
-338.379
70.3942
-336.014
89.1505
-332.802
111.285
-328.753
137.241
-323.377
167.335
-316.735
201.908
-308.114
241.002
-297.578
284.541
-284.351
332.001
-268.708
382.562
-249.884
434.961
-228.58
487.84
-204.851
540.517
-181.267
595.138
-160.775
662.114
-150.168
769.292
-155.606
971.635
-179.635
1342.81
-212.959
1931.2
-238.567
2697.46
-240.416
3503.48
-214.101
4178.07
-164.776
4606.43
-97.8574
4740.49
-22.7534
4420.95
34.7411
3126.75
36.0182
1232.59
36.9103
243.204
86.6227
-300.968
107.505
-1758.76
48.5357
-2720.59
267.433
3116.76
276.242
3566.36
200.944
1841.49
262.418
718.045
376.197
-168.052
433.364
-1015.42
391.467
-1354.05
289.585
-1150.95
165.829
-652.653
28.5068
17.2337
8.26566
1011.85
72.0071
1699.38
148.374
1721.24
219.238
1527.56
274.587
1283.58
312.75
1023.25
332.556
754.909
337.424
469.211
326.228
166.5
301.707
-153.886
263.784
-522.09
205.567
-910.906
132.78
-1226.26
76.9823
-1664.21
-2317.69
-335.539
16.9771
-335.751
13.4251
-335.899
10.2911
-336.076
7.56849
-336.217
4.94069
-336.431
2.63412
-336.653
0.573156
-336.943
-1.17138
-337.241
-2.58931
-337.594
-3.59446
-337.948
-4.16554
-338.321
-4.25863
-338.664
-3.8481
-338.985
-2.83742
-339.242
-1.11968
-339.424
1.40418
-339.488
4.80111
-339.406
9.2063
-339.144
14.8117
-338.642
21.8272
-337.884
30.4874
-336.746
41.0113
-335.214
53.7023
-333.091
68.8815
-330.404
86.9531
-326.81
108.254
-322.343
133.176
-316.524
162.017
-309.456
195.071
-300.443
232.366
-289.606
273.798
-276.199
318.863
-260.569
366.807
-241.992
416.498
-221.29
466.896
-198.651
517.902
-176.887
572.866
-159.139
644.109
-152.149
761.598
-161.343
980.334
-187.918
1368.57
-221.604
1964.3
-245.597
2720.68
-244.924
3502.14
-216.105
4148.21
-164.282
4553.51
-94.3699
4669.46
-15.9389
4341.08
44.5126
3063.85
49.5293
1221.63
50.5278
233.499
104.302
-358.61
123.821
-1778.97
59.6773
-2654.81
269.573
2906.7
293.367
3542.77
233.223
1909.35
311.157
665.73
408.363
-251.97
437.846
-1033.39
387.741
-1295.54
298.834
-1054.75
151.328
-500.742
2.063
166.2
-8.81641
1026.54
60.7139
1632
142.121
1642.27
217.009
1455.83
275.38
1227.35
315.823
985.908
337.074
736.742
342.342
468.254
330.607
178.816
304.555
-127.867
263.644
-480.921
201.72
-848.611
128.994
-1153.85
79.8316
-1615.38
-2270.42
-327.165
17.4067
-327.311
13.4731
-327.463
10.3184
-327.67
7.55861
-327.873
4.92333
-328.18
2.63286
-328.52
0.59075
-328.951
-1.13406
-329.407
-2.53614
-329.931
-3.53508
-330.46
-4.11388
-331.012
-4.2324
-331.53
-3.86663
-332.02
-2.92124
-332.432
-1.29148
-332.753
1.11616
-332.935
4.37136
-332.945
8.60042
-332.746
13.994
-332.273
20.7537
-331.505
29.1085
-330.311
39.2571
-328.682
51.4958
-326.414
66.1242
-323.544
83.5296
-319.729
104.023
-315.024
127.972
-308.956
155.643
-301.665
187.298
-292.464
222.946
-281.525
262.465
-268.121
305.38
-252.674
350.983
-234.504
398.346
-214.565
446.718
-193.192
496.718
-173.45
552.893
-158.643
629.527
-155.38
758.369
-168.265
993.706
-197.157
1397.79
-230.931
1998.75
-253.102
2743.49
-249.785
3499.7
-218.339
4117.54
-163.855
4500.1
-90.8053
4597.92
-8.66834
4260.56
55.2929
3000.7
63.706
1213.97
66.9269
245.274
124.292
-399.345
141.944
-1794.65
72.3723
-2584.84
268.577
2709.71
305.019
3502.5
264.96
1950.46
352.08
569.959
433.314
-343.503
439.002
-1045.33
370.208
-1232.14
277.299
-967.527
111.528
-346.944
-27.9603
297.755
-26.9799
1026.75
48.9439
1556.8
135.644
1555.75
214.622
1377.34
276.009
1165.32
318.664
943.242
341.236
713.483
346.777
463.14
334.396
189.583
306.902
-100.326
263.089
-436.228
197.62
-782.29
125.574
-1081.15
78.5933
-1566.87
-2232.7
-316.576
17.9467
-316.786
13.7443
-317.053
10.7564
-317.405
8.09972
-317.775
5.58605
-318.276
3.42533
-318.823
1.50044
-319.477
-0.12122
-320.16
-1.43325
-320.912
-2.36445
-321.664
-2.89764
-322.434
-2.99828
-323.157
-2.64011
-323.84
-1.729
-324.429
-0.164795
-324.906
2.14026
-325.226
5.25443
-325.35
9.30133
-325.241
14.4646
-324.829
20.9448
-324.095
28.9486
-322.901
38.6704
-321.243
50.3881
-318.916
64.3953
-315.966
81.052
-312.049
100.653
-307.237
123.535
-301.063
149.945
-293.696
180.114
-284.454
214.036
-273.554
251.589
-260.289
292.323
-245.156
335.634
-227.527
380.759
-208.5
427.36
-188.57
476.749
-171.049
534.787
-159.371
617.539
-159.919
758.173
-176.392
1009.68
-207.335
1427.96
-240.905
2031.81
-261.048
2762.96
-254.962
3493.08
-220.775
4082.48
-163.485
4441.94
-87.1954
4520.76
-1.07785
4173.38