/*--------------------------------*- C++ -*----------------------------------*\
| =========                 |                                                 |
| \\      /  F ield         | OpenFOAM: The Open Source CFD Toolbox           |
|  \\    /   O peration     | Version:  4.1                                   |
|   \\  /    A nd           | Web:      www.OpenFOAM.org                      |
|    \\/     M anipulation  |                                                 |
\*---------------------------------------------------------------------------*/
FoamFile
{
    version     2.0;
    format      ascii;
    class       volVectorField;
    location    "4";
    object      U;
}
// * * * * * * * * * * * * * * * * * * * * * * * * * * * * * * * * * * * * * //

dimensions      [0 1 -1 0 0 0 0];

internalField   nonuniform List<vector> 
6785
(
(1.13476e-14 0.852284 15.7942)
(8.97876e-15 -4.89487 12.1222)
(-3.08306e-15 -4.19608 12.1327)
(3.34839e-15 -3.60165 11.9972)
(1.4632e-15 -3.00512 11.8784)
(1.69061e-15 -2.55355 11.6999)
(3.96111e-17 -2.20905 11.4776)
(1.57803e-17 -1.96612 11.2124)
(1.41009e-16 -1.79849 10.9168)
(2.07592e-15 -1.71217 10.589)
(-1.49489e-16 -1.83711 10.1568)
(-4.34691e-16 -2.2851 9.53831)
(7.75925e-16 -2.51209 8.9644)
(3.74002e-18 -1.06474 8.91379)
(-4.05599e-16 1.76514 7.46983)
(2.11781e-14 -5.35098 22.4968)
(1.5284e-14 -14.6083 21.3933)
(-6.14295e-16 -13.2727 20.3418)
(6.10829e-15 -11.7719 19.5074)
(1.94093e-15 -11.158 18.5052)
(1.23677e-15 -10.661 17.5184)
(6.26633e-15 -10.0914 16.5724)
(1.88362e-15 -9.52604 15.6245)
(-1.88398e-16 -8.96607 14.6647)
(1.59376e-15 -8.36759 13.6952)
(1.3625e-15 -7.75723 12.7183)
(-3.77187e-16 -7.30374 11.7204)
(1.24484e-15 -7.01863 10.6271)
(3.90305e-16 -5.73178 9.16482)
(-1.93298e-16 -2.30629 4.58106)
(1.64699e-14 -7.71784 23.9871)
(1.6412e-14 -16.7763 24.6718)
(2.49879e-18 -13.735 23.9383)
(8.13823e-16 -12.3036 22.6262)
(-6.40443e-17 -11.6405 21.2425)
(2.41495e-15 -10.8084 20.002)
(4.41385e-15 -9.93338 18.7738)
(1.31131e-15 -9.09218 17.5241)
(8.11517e-16 -8.27501 16.2642)
(2.42727e-15 -7.46648 15.0252)
(9.51958e-16 -6.6583 13.8167)
(-6.63042e-16 -5.83159 12.4256)
(-1.54396e-16 -4.80109 10.2621)
(1.97576e-15 -3.11063 6.66182)
(-6.33738e-17 -0.822986 1.67108)
(1.71706e-14 -8.50338 22.0529)
(1.49922e-14 -16.6164 24.3296)
(5.12515e-16 -12.9193 23.7982)
(3.20078e-15 -12.1447 21.9975)
(1.68059e-15 -11.4112 20.5003)
(2.979e-15 -10.4846 19.1683)
(3.27969e-15 -9.6244 17.8117)
(6.28207e-16 -8.81392 16.4532)
(3.41016e-15 -8.04479 15.1165)
(8.48015e-16 -7.31607 13.8086)
(-7.88178e-16 -6.54141 12.4271)
(3.16871e-15 -5.46812 10.5564)
(-2.23581e-16 -3.74693 7.45002)
(-9.49342e-15 -1.44949 2.67705)
(-4.48114e-15 0.183157 -1.79628)
(1.61327e-14 -8.47771 19.7564)
(1.41432e-14 -16.3526 24.3066)
(4.46791e-15 -13.0896 23.658)
(3.06769e-15 -12.6269 21.5312)
(2.19722e-16 -11.8567 20.0188)
(1.4158e-15 -10.9575 18.6574)
(2.38696e-15 -10.1702 17.2517)
(3.97543e-15 -9.40383 15.8639)
(-1.59859e-15 -8.65414 14.5169)
(8.54653e-16 -7.93197 13.2065)
(-2.17796e-15 -7.16607 11.8178)
(-3.8055e-15 -6.10458 9.97173)
(-2.43096e-15 -4.38557 7.10122)
(-6.06285e-15 -2.24677 3.20092)
(-5.42471e-15 -0.729825 0.234925)
(1.65106e-14 -8.02738 17.5637)
(1.53586e-14 -16.0185 24.5228)
(3.34169e-15 -13.6504 24.0416)
(3.69771e-15 -13.0054 21.7596)
(6.93572e-16 -12.135 20.2109)
(2.00864e-16 -11.2306 18.8427)
(2.9667e-15 -10.4441 17.4294)
(-2.37821e-16 -9.65303 16.0383)
(3.4711e-15 -8.86191 14.6887)
(2.85147e-15 -8.09129 13.3771)
(-8.55846e-16 -7.29194 12.0079)
(3.97204e-16 -6.27168 10.2604)
(-1.07366e-14 -4.7049 7.68225)
(-2.89885e-15 -2.72523 4.3342)
(2.73896e-15 -0.933031 1.25565)
(1.30729e-14 -7.33467 15.2325)
(1.63665e-14 -15.4896 24.3443)
(7.07099e-15 -14.0421 24.4195)
(1.23804e-15 -13.1377 22.0667)
(6.84012e-16 -12.146 20.4382)
(5.32402e-15 -11.2338 19.0516)
(2.82283e-15 -10.4334 17.6389)
(3.22766e-15 -9.61536 16.2515)
(-1.30384e-15 -8.80301 14.8999)
(-4.44407e-16 -8.01766 13.5843)
(3.1147e-15 -7.2127 12.2251)
(3.51586e-15 -6.22444 10.5254)
(8.2981e-16 -4.75828 8.06608)
(-2.61923e-15 -2.87892 4.89923)
(8.89208e-15 -0.986335 1.75027)
(1.20723e-14 -6.52145 12.9386)
(1.6633e-14 -14.8246 23.7773)
(7.40828e-15 -14.2803 24.6682)
(9.93901e-16 -13.2372 22.3249)
(5.91141e-16 -12.1597 20.579)
(2.30737e-15 -11.2593 19.1582)
(2.15678e-15 -10.4602 17.748)
(5.49094e-16 -9.63777 16.365)
(2.16058e-15 -8.82978 15.0122)
(-1.0919e-15 -8.05151 13.6945)
(-4.62537e-17 -7.25233 12.3429)
(2.6898e-15 -6.28543 10.6793)
(4.04055e-15 -4.88927 8.30746)
(-1.98386e-15 -3.09029 5.26109)
(3.62004e-15 -1.14197 2.05582)
(1.04219e-14 -5.70489 10.9605)
(1.67041e-14 -14.1236 23.0085)
(7.65946e-15 -14.4585 24.8442)
(4.03057e-15 -13.4067 22.6271)
(1.31422e-15 -12.2621 20.7522)
(2.09249e-16 -11.3633 19.2865)
(2.52008e-15 -10.5645 17.8823)
(6.56361e-16 -9.74371 16.5047)
(3.26106e-16 -8.94063 15.1513)
(7.73223e-17 -8.16549 13.8321)
(-7.62717e-17 -7.36718 12.4873)
(6.58178e-16 -6.41088 10.859)
(-5.86286e-16 -5.06295 8.5711)
(-1.91166e-15 -3.31985 5.61967)
(-6.63559e-15 -1.28566 2.3415)
(8.66869e-15 -4.96655 9.3569)
(1.59021e-14 -13.4299 22.1341)
(6.74851e-15 -14.5717 24.937)
(4.51212e-15 -13.6047 22.965)
(1.45007e-15 -12.3951 20.9749)
(1.8945e-15 -11.4741 19.4537)
(1.70418e-15 -10.6676 18.0539)
(8.21214e-16 -9.84747 16.6824)
(-4.25033e-16 -9.04513 15.3296)
(1.75329e-15 -8.26699 14.0097)
(-4.18734e-16 -7.46804 12.6686)
(2.56814e-15 -6.52162 11.0668)
(-6.76904e-16 -5.21254 8.84735)
(-4.39246e-16 -3.5171 5.96905)
(-2.05714e-15 -1.40824 2.61604)
(5.26762e-15 -4.36243 8.10809)
(1.51478e-14 -12.7819 21.2427)
(8.74051e-15 -14.6177 24.9452)
(2.70499e-15 -13.802 23.3148)
(3.90061e-15 -12.5443 21.2466)
(-2.27994e-16 -11.5893 19.66)
(1.06851e-15 -10.7709 18.2542)
(-1.0217e-15 -9.95021 16.8835)
(-2.18847e-15 -9.14498 15.5283)
(-1.94734e-15 -8.36025 14.2041)
(9.29914e-17 -7.55597 12.8608)
(-3.681e-15 -6.61705 11.2756)
(-6.3958e-15 -5.34704 9.11169)
(-1.09013e-14 -3.70337 6.29438)
(-7.18487e-15 -1.52598 2.87132)
(2.7578e-15 -3.7702 6.84614)
(1.57699e-14 -12.0844 20.1847)
(8.7575e-15 -14.5527 24.7746)
(3.53857e-15 -13.9272 23.5361)
(3.6014e-15 -12.6199 21.4028)
(-1.40243e-15 -11.6192 19.7504)
(6.67885e-16 -10.7938 18.3495)
(1.52778e-15 -9.98214 16.9934)
(-4.88769e-15 -9.18574 15.65)
(-1.7496e-15 -8.40804 14.3355)
(-4.01719e-17 -7.6142 12.9995)
(-5.30953e-15 -6.68482 11.4273)
(-2.70091e-15 -5.42532 9.28877)
(-7.66282e-15 -3.78947 6.47744)
(-5.68712e-15 -1.55132 2.94514)
(6.50935e-16 -3.42961 6.21989)
(1.2537e-14 -11.5729 19.3544)
(1.20122e-14 -14.606 24.674)
(4.23739e-15 -14.3157 24.0107)
(2.09751e-15 -13.068 21.9215)
(-1.29868e-15 -12.0303 20.1488)
(-2.6456e-16 -11.1737 18.6615)
(3.26649e-15 -10.3449 17.2577)
(-1.35009e-15 -9.52331 15.876)
(-2.21027e-15 -8.7131 14.5281)
(7.61098e-17 -7.89182 13.1727)
(-4.93171e-15 -6.95099 11.6189)
(-3.14461e-15 -5.70409 9.55682)
(-6.74518e-15 -4.06798 6.79853)
(-9.25034e-15 -1.71026 3.14163)
(-1.48079e-15 -1.95059 2.74912)
(1.18848e-14 -9.96441 16.4933)
(1.00128e-14 -13.9129 23.3679)
(3.85686e-15 -13.908 23.3695)
(2.04751e-15 -12.5397 21.2299)
(-1.19109e-15 -11.4403 19.5123)
(-3.60072e-17 -10.6838 18.2856)
(4.31867e-15 -9.99228 17.136)
(-1.5134e-15 -9.30777 15.9719)
(-1.61625e-15 -8.63176 14.7994)
(-1.40761e-16 -7.93804 13.5921)
(-3.91336e-15 -7.12356 12.1791)
(-2.66087e-15 -5.99697 10.2588)
(-6.41154e-15 -4.51515 7.73355)
(-6.45493e-15 -2.22126 4.35662)
(5.18211e-16 -4.31265 9.11839)
(1.20534e-14 -11.0621 18.8803)
(1.26697e-14 -15.2948 25.148)
(7.38682e-15 -16.7669 26.1752)
(3.44075e-15 -16.2503 24.4132)
(5.26768e-16 -15.0944 21.9569)
(-7.87737e-16 -13.8187 19.6815)
(9.06653e-16 -12.5942 17.7341)
(-2.27436e-16 -11.4054 15.9503)
(-1.41193e-15 -10.2432 14.3373)
(-1.26865e-15 -9.10458 12.8275)
(-2.94386e-15 -7.89646 11.2544)
(-3.35547e-15 -6.48877 9.41919)
(-6.30633e-15 -4.58842 6.71611)
(-6.56812e-15 -1.01691 2.39909)
(-2.29186e-16 0.540924 -3.39014)
(-3.99984e-16 0.604607 -5.17162)
(-3.13166e-16 0.656315 -3.71913)
(-3.21671e-16 1.06193 -3.68161)
(-3.02947e-16 1.4465 -3.51669)
(-4.50778e-16 1.95051 -4.68199)
(-3.30548e-16 1.73029 -3.25905)
(-3.31935e-16 2.09194 -3.21016)
(-3.43168e-16 2.31496 -3.08416)
(-1.45104e-16 3.16834 -3.91826)
(5.22275e-18 2.54173 -2.73558)
(1.63422e-17 2.76934 -2.58916)
(-8.10199e-17 4.00348 -3.20969)
(-4.6939e-17 3.00502 -2.21243)
(-4.72606e-17 3.306 -2.17371)
(-4.3827e-17 3.37399 -2.10659)
(-1.49907e-16 4.51165 -2.57578)
(-7.66027e-17 3.42379 -1.77783)
(-5.18739e-17 3.53278 -1.69542)
(-1.42181e-16 4.97141 -2.02327)
(-8.62075e-17 3.60611 -1.36676)
(-9.12718e-17 3.86353 -1.3409)
(-5.27375e-17 3.8522 -1.30974)
(-1.25118e-16 5.0901 -1.54523)
(-5.89459e-17 3.68474 -1.0327)
(-3.65179e-17 3.96861 -1.00528)
(-5.54054e-17 3.9575 -0.983079)
(-1.98815e-16 4.99843 -1.13543)
(-1.233e-16 3.72323 -0.739504)
(-7.23225e-17 3.74382 -0.710409)
(-1.23117e-16 4.92026 -0.72758)
(-8.64957e-17 3.60176 -0.445311)
(-7.88888e-18 3.73193 -0.429492)
(-4.41556e-18 3.73177 -0.436371)
(-7.15129e-17 4.43719 -0.354789)
(-2.98611e-17 3.3806 -0.207073)
(-1.92121e-17 3.38374 -0.218011)
(-7.74448e-17 4.16435 -0.00741118)
(-1.67732e-17 3.10863 0.0250544)
(1.14389e-16 3.17416 0.0314924)
(4.93311e-17 3.17488 -0.000637968)
(-2.83645e-16 3.64912 0.288014)
(-8.92157e-17 2.73466 0.214767)
(-7.77356e-17 2.82507 0.219493)
(-7.24774e-17 2.81996 0.183882)
(-4.36551e-17 3.26113 0.519048)
(-4.90726e-17 2.4612 0.434109)
(-4.64276e-17 2.4406 0.391626)
(-2.14166e-17 2.9745 0.793361)
(-2.18234e-17 2.24768 0.666077)
(-1.51691e-17 2.25973 0.670292)
(-7.81563e-18 2.22761 0.618439)
(1.63565e-17 2.41468 1.07887)
(2.78585e-17 1.83033 0.787025)
(7.87463e-18 1.83501 0.781847)
(1.29927e-16 1.81071 0.735606)
(1.1593e-16 1.80428 1.0857)
(3.20969e-16 1.27175 0.626062)
(3.48283e-16 1.20168 0.596462)
(3.15013e-16 1.15203 0.410154)
(1.46141e-16 0.555878 -0.13665)
(1.23177e-16 0.482718 -0.156411)
(5.53152e-17 0.584387 -0.133739)
(1.17061e-15 0.995017 -1.67517)
(-7.58362e-16 -0.505501 -0.0520636)
(-1.07113e-15 -0.0891483 0.219767)
(-1.63385e-15 -0.28377 2.00966)
(-1.27863e-15 -1.51369 3.62193)
(-1.17329e-15 -1.51337 3.58719)
(-1.20843e-15 -1.5279 3.77007)
(-1.51753e-15 -2.90995 6.73047)
(-1.09433e-15 -3.43835 6.26347)
(-1.1768e-15 -3.69349 6.39612)
(-1.16883e-15 -3.87139 6.58164)
(-1.20213e-15 -6.46723 10.2017)
(-7.72274e-16 -5.93952 8.27992)
(-8.98916e-16 -6.23542 8.7662)
(-8.9688e-16 -9.59429 12.8032)
(-6.29703e-16 -8.60968 9.90277)
(-8.11707e-16 -8.97619 10.6267)
(-1.59361e-15 -9.84257 12.3737)
(-1.41299e-15 -9.70886 12.2919)
(-1.35808e-15 -9.87658 12.574)
(1.98903e-16 -11.9356 15.3284)
(-7.77239e-16 -10.5302 13.5838)
(-6.28896e-16 -10.9046 14.271)
(-5.90251e-16 -10.8857 14.4227)
(-5.13443e-16 -10.9606 14.5486)
(-4.36426e-16 -11.0517 14.6976)
(-3.33152e-16 -11.1305 14.871)
(-8.49317e-17 -11.2191 15.1825)
(2.30438e-16 -11.3414 15.563)
(1.60868e-15 -12.1926 16.9574)
(5.62604e-16 -11.6313 15.9687)
(6.71168e-16 -11.7824 16.1984)
(7.2093e-16 -11.7605 16.3253)
(8.11377e-16 -11.9253 16.6948)
(8.24104e-16 -11.8987 16.733)
(8.84778e-16 -11.98 16.8789)
(9.38934e-16 -12.0367 17.0052)
(1.02212e-15 -12.0986 17.1567)
(2.24693e-15 -12.5357 18.2163)
(1.83975e-15 -12.1005 17.4868)
(1.93819e-15 -12.2072 17.6624)
(1.99799e-15 -12.2378 17.7443)
(2.07246e-15 -12.279 17.8721)
(2.13031e-15 -12.321 18.0669)
(2.17177e-15 -12.3932 18.2854)
(2.23694e-15 -12.3955 18.3488)
(2.31415e-15 -12.4653 18.4628)
(2.37944e-15 -12.5186 18.5594)
(4.03586e-15 -12.2544 18.7515)
(2.82397e-15 -12.1336 18.4848)
(2.90486e-15 -12.1698 18.5805)
(2.95528e-15 -12.1978 18.6326)
(3.03394e-15 -12.231 18.7058)
(3.12066e-15 -12.218 18.7994)
(3.29795e-15 -12.2717 19.0343)
(3.41184e-15 -12.2994 19.1023)
(3.51488e-15 -12.3398 19.0853)
(4.17001e-15 -11.2589 17.9995)
(3.67448e-15 -11.4849 18.316)
(3.755e-15 -11.4458 18.4227)
(3.73819e-15 -11.4793 18.5547)
(3.87278e-15 -11.4211 18.469)
(3.98367e-15 -11.4163 18.4418)
(4.11611e-15 -11.3909 18.3966)
(4.27378e-15 -11.3789 18.3821)
(4.5817e-15 -11.457 18.5555)
(5.18837e-15 -9.23232 15.7247)
(4.84391e-15 -10.107 17.1597)
(4.99631e-15 -9.93758 16.8832)
(5.12505e-15 -9.90102 16.7885)
(5.50101e-15 -9.85948 16.8133)
(5.60166e-15 -9.75211 16.5945)
(5.6194e-15 -9.64868 16.2695)
(5.65837e-15 -9.60871 15.9207)
(5.68914e-15 -9.49083 15.478)
(5.79513e-15 -6.56775 11.3454)
(6.13359e-15 -7.86599 14.045)
(5.93624e-15 -7.5103 13.2862)
(5.82298e-15 -7.45111 12.8532)
(5.68789e-15 -7.30367 12.2562)
(5.63534e-15 -7.22444 11.6066)
(6.09811e-15 -6.93767 10.788)
(5.48574e-15 -6.87668 10.1851)
(5.0956e-15 -6.68638 9.42974)
(4.59195e-15 -6.39087 8.59458)
(2.25824e-15 -3.11774 2.83587)
(3.65393e-15 -4.85887 6.61799)
(2.96472e-15 -4.2955 5.28406)
(2.6264e-15 -4.30849 4.84009)
(2.14734e-15 -4.0651 4.09963)
(1.55029e-15 -4.01246 3.26214)
(3.63227e-16 -3.84163 1.89925)
(-8.56861e-16 -3.44104 0.548616)
(-6.90294e-16 -3.34701 0.404796)
(-3.78816e-16 -2.65582 -2.06429)
(-6.14663e-16 -2.73973 -0.0117345)
(-6.56802e-16 -2.49555 -0.707225)
(-2.32048e-16 -1.58269 -2.61681)
(-5.18523e-16 -2.56597 -2.34398)
(-2.29314e-15 -1.62036 -2.1043)
(-1.30852e-15 -1.2822 -1.6072)
(-1.40643e-15 -1.267 -2.10862)
(-1.1851e-15 -0.712645 -1.50543)
(-1.49862e-15 -0.667561 -2.0398)
(-7.51778e-16 -0.263767 -1.62988)
(-3.67579e-16 -0.0657966 -1.35515)
(-4.52655e-16 0.26463 -1.54359)
(-4.28063e-16 0.40809 -1.25549)
(-2.9657e-16 0.308201 -1.17636)
(-6.99304e-16 1.02065 -1.08985)
(-2.68092e-16 0.611046 -0.98489)
(2.6897e-17 1.05978 -1.04162)
(-1.55542e-15 1.3471 -0.900414)
(-4.16121e-16 0.915968 -0.758771)
(-1.91688e-15 1.83151 -0.742732)
(-2.35885e-15 1.20396 -0.607172)
(-3.4863e-15 1.6743 -0.580471)
(-2.34866e-15 1.97097 -0.530767)
(-1.91257e-15 1.44203 -0.430264)
(-1.48612e-15 1.98549 -0.410604)
(-1.92455e-15 2.31731 -0.395304)
(-1.90379e-15 1.6392 -0.311534)
(-2.33992e-15 2.60183 -0.346341)
(-1.53374e-15 1.89203 -0.260059)
(8.32048e-16 2.30341 -0.288751)
(-1.85425e-15 2.66618 -0.285001)
(-1.44151e-15 1.95316 -0.19593)
(-1.62639e-15 2.91494 -0.254301)
(-1.31894e-15 2.20485 -0.168348)
(-1.05501e-15 2.59681 -0.229006)
(-1.47193e-15 2.92557 -0.224578)
(-1.25111e-15 2.25668 -0.127236)
(-1.02741e-15 2.78307 -0.1819)
(-3.07697e-16 3.1803 -0.176956)
(-1.91359e-15 2.32901 -0.0918456)
(-1.63094e-15 3.3419 -0.169721)
(-1.2603e-15 2.55228 -0.0864003)
(-1.21041e-15 2.96124 -0.16323)
(-1.07546e-15 3.37055 -0.164134)
(-1.42565e-15 2.48256 -0.0671675)
(-1.19496e-15 3.57897 -0.151389)
(-1.05171e-15 2.72943 -0.0666254)
(-1.20854e-15 3.16213 -0.150728)
(-1.48469e-15 3.53225 -0.155781)
(-9.90033e-16 2.6935 -0.0600425)
(-9.11623e-16 3.32024 -0.119794)
(-1.26107e-15 3.77227 -0.124974)
(-1.0647e-15 2.71778 -0.0499659)
(-1.69376e-15 3.92547 -0.12556)
(-6.60701e-16 2.96325 -0.0580879)
(-8.67416e-16 3.44222 -0.130439)
(-5.78478e-16 3.90862 -0.141874)
(-5.61088e-16 2.82509 -0.0575038)
(-1.58948e-15 4.13795 -0.137666)
(-4.11767e-16 3.11332 -0.0658924)
(-7.8648e-16 3.62071 -0.144618)
(-1.05804e-15 4.0434 -0.163334)
(-6.09002e-16 3.036 -0.0742952)
(-1.09781e-15 3.78612 -0.127279)
(-1.87925e-15 4.3082 -0.14988)
(-6.05293e-16 3.05681 -0.071854)
(-8.51919e-16 4.46008 -0.154633)
(-6.45008e-16 3.36258 -0.089322)
(-7.06283e-16 3.90272 -0.16135)
(-6.62988e-16 4.45594 -0.191261)
(-7.34221e-16 3.18264 -0.0974309)
(-1.06838e-15 4.71905 -0.192885)
(-7.56968e-16 3.54839 -0.114466)
(-9.60316e-16 4.12536 -0.201887)
(-9.87725e-16 4.64116 -0.245253)
(-6.76738e-16 3.456 -0.13465)
(-8.3936e-16 4.34959 -0.201334)
(-9.55069e-16 5.00681 -0.260901)
(-6.52121e-16 3.51178 -0.143692)
(-1.02946e-15 5.2009 -0.277164)
(-6.2571e-16 3.88612 -0.176268)
(-8.12444e-16 4.72176 -0.327105)
(-1.35579e-15 -0.0318351 2.40832)
(-1.35081e-15 -0.0327666 2.39292)
(-1.34676e-15 -0.0274391 2.37984)
(-1.34231e-15 -0.0243461 2.36548)
(-1.33763e-15 -0.0206945 2.35021)
(-1.33277e-15 -0.0172821 2.33427)
(-1.3278e-15 -0.0138695 2.31782)
(-1.32278e-15 -0.0108377 2.3011)
(-1.31776e-15 -0.00827 2.28425)
(-1.3128e-15 -0.00633378 2.26743)
(-1.30791e-15 -0.00494746 2.25073)
(-1.30313e-15 -0.00418395 2.23426)
(-1.29846e-15 -0.00418814 2.21797)
(-1.29388e-15 -0.00527447 2.2018)
(-1.28934e-15 -0.00744344 2.18552)
(-1.28479e-15 -0.0107161 2.16897)
(-1.28017e-15 -0.0149955 2.15188)
(-1.27541e-15 -0.0206787 2.13393)
(-1.27041e-15 -0.0281016 2.11473)
(-1.26509e-15 -0.0373452 2.094)
(-1.25939e-15 -0.048519 2.07152)
(-1.25325e-15 -0.0616627 2.0472)
(-1.24664e-15 -0.0774039 2.02111)
(-1.2396e-15 -0.0962187 1.99374)
(-1.23222e-15 -0.11882 1.96615)
(-1.22468e-15 -0.14542 1.94017)
(-1.21731e-15 -0.177003 1.91845)
(-1.2105e-15 -0.21513 1.90445)
(-1.20468e-15 -0.262744 1.90222)
(-1.20022e-15 -0.322254 1.91567)
(-1.19725e-15 -0.397987 1.94725)
(-1.19546e-15 -0.494475 1.99618)
(-1.19381e-15 -0.616611 2.05615)
(-1.19042e-15 -0.76637 2.11286)
(-1.18255e-15 -0.942293 2.14295)
(-1.16714e-15 -1.1349 2.11674)
(-1.14185e-15 -1.32653 2.00702)
(-1.10636e-15 -1.49132 1.803)
(-1.06346e-15 -1.6031 1.52444)
(-1.01933e-15 -1.65796 1.23034)
(-9.83277e-16 -1.73752 1.01878)
(-9.64932e-16 -2.08131 1.00216)
(-9.63753e-16 -2.9585 1.20231)
(-9.61476e-16 -4.33635 1.45548)
(-9.37559e-16 -5.80532 1.53661)
(-8.87934e-16 -6.87196 1.35951)
(-8.22195e-16 -7.35817 1.02105)
(-7.40378e-16 -7.17887 0.585228)
(-6.38553e-16 -5.23666 -0.0542489)
(-6.1925e-16 -2.03573 -0.37504)
(-6.19236e-16 -0.988386 -0.344119)
(-6.20527e-16 1.01364 -0.0609523)
(-6.25209e-16 2.73969 1.01596)
(-6.17454e-16 4.05887 -0.114133)
(-5.53351e-16 -7.72162 0.55119)
(-3.76072e-16 -3.07547 -0.799354)
(-2.82293e-16 -1.77911 -1.29886)
(-2.5371e-16 -1.26264 -0.746668)
(-2.52635e-16 -0.738236 -0.721422)
(-2.66177e-16 -0.419773 -0.717393)
(-2.82735e-16 0.393435 -0.99417)
(-2.74755e-16 1.88869 -1.80749)
(-2.65696e-16 2.91818 -1.7767)
(-2.54775e-16 3.00646 -0.170267)
(-2.33696e-16 -1.9659 0.0228783)
(-2.19035e-16 -3.45608 -0.527509)
(-2.06088e-16 -3.45976 -0.976073)
(-1.95519e-16 -3.07302 -1.39568)
(-1.8785e-16 -2.45298 -1.66002)
(-1.82945e-16 -1.76938 -1.76038)
(-1.80181e-16 -1.14571 -1.75504)
(-1.78819e-16 -0.601168 -1.71048)
(-1.78375e-16 -0.0902109 -1.69185)
(-1.78495e-16 0.483998 -1.68535)
(-1.78296e-16 1.07633 -1.62905)
(-1.80436e-16 1.84233 -1.59768)
(-1.89278e-16 2.73559 -1.52929)
(-2.29462e-16 3.49514 -1.1773)
(1.12053e-16 4.09115 -0.74927)
(-1.34461e-15 -0.028345 2.3434)
(-1.33852e-15 -0.0253823 2.32268)
(-1.33405e-15 -0.0202142 2.30689)
(-1.32912e-15 -0.01618 2.28999)
(-1.32405e-15 -0.0119147 2.27261)
(-1.31889e-15 -0.0080379 2.25507)
(-1.31368e-15 -0.00449272 2.2375)
(-1.3085e-15 -0.00153071 2.22012)
(-1.30336e-15 0.000966421 2.203)
(-1.29831e-15 0.00288551 2.18623)
(-1.29335e-15 0.00425835 2.16985)
(-1.28851e-15 0.00485683 2.15385)
(-1.28376e-15 0.00460889 2.13821)
(-1.27909e-15 0.00345542 2.12281)
(-1.27446e-15 0.00143734 2.1075)
(-1.26982e-15 -0.00157653 2.09212)
(-1.26514e-15 -0.00588312 2.07649)
(-1.26035e-15 -0.0117297 2.06047)
(-1.25541e-15 -0.0191286 2.04384)
(-1.25026e-15 -0.0282287 2.02647)
(-1.24488e-15 -0.03952 2.00831)
(-1.23926e-15 -0.0534022 1.98941)
(-1.23343e-15 -0.0702963 1.97011)
(-1.22743e-15 -0.0905011 1.95095)
(-1.22139e-15 -0.114968 1.93306)
(-1.21547e-15 -0.144305 1.91788)
(-1.20993e-15 -0.180187 1.90778)
(-1.20503e-15 -0.22379 1.90544)
(-1.20103e-15 -0.27761 1.91409)
(-1.19808e-15 -0.343777 1.9361)
(-1.19612e-15 -0.426412 1.97264)
(-1.19464e-15 -0.528434 2.02139)
(-1.19252e-15 -0.653453 2.07536)
(-1.18791e-15 -0.801627 2.11989)
(-1.17834e-15 -0.970347 2.13335)
(-1.16121e-15 -1.14972 2.08969)
(-1.13474e-15 -1.32348 1.96712)
(-1.09908e-15 -1.46906 1.75799)
(-1.05709e-15 -1.56615 1.48079)
(-1.01478e-15 -1.62136 1.19067)
(-9.81025e-16 -1.73234 0.984998)
(-9.64632e-16 -2.13796 0.976882)
(-9.63944e-16 -3.06696 1.18088)
(-9.60866e-16 -4.44959 1.42996)
(-9.36102e-16 -5.88558 1.50821)
(-8.86311e-16 -6.91781 1.33762)
(-8.2073e-16 -7.38374 1.01711)
(-7.39142e-16 -7.17133 0.613221)
(-6.384e-16 -5.21749 0.0146339)
(-6.19288e-16 -2.00196 -0.26854)
(-6.18969e-16 -0.779378 -0.35313)
(-6.18862e-16 0.644667 -0.51672)
(-6.2556e-16 2.6568 0.891398)
(-6.18385e-16 4.04256 -0.0630358)
(-5.53904e-16 -7.50541 0.462129)
(-3.80864e-16 -3.77181 -0.728387)
(-2.86402e-16 -1.93115 -0.784739)
(-2.54229e-16 -1.29127 -0.788036)
(-2.50264e-16 -0.815892 -0.838772)
(-2.61646e-16 -0.38404 -0.619095)
(-2.87106e-16 0.570082 -1.08056)
(-2.7478e-16 1.9668 -1.8407)
(-2.65665e-16 2.62545 -1.8685)
(-2.55362e-16 3.01146 -0.0247108)
(-2.33902e-16 -1.4072 0.14524)
(-2.19408e-16 -3.19808 -0.629409)
(-2.06614e-16 -3.30998 -1.04771)
(-1.96133e-16 -2.97716 -1.42167)
(-1.88463e-16 -2.4059 -1.66895)
(-1.83481e-16 -1.75783 -1.76904)
(-1.80612e-16 -1.14968 -1.7741)
(-1.79162e-16 -0.596839 -1.74215)
(-1.78667e-16 -0.039576 -1.73142)
(-1.78882e-16 0.470149 -1.69536)
(-1.78876e-16 1.06849 -1.63873)
(-1.81362e-16 1.83064 -1.60045)
(-1.92069e-16 2.67356 -1.49752)
(-2.28869e-16 3.36576 -1.10943)
(1.32765e-16 3.97132 -0.6372)
(-1.32768e-15 -0.0260965 2.26552)
(-1.32046e-15 -0.0234969 2.24147)
(-1.31547e-15 -0.0186571 2.22486)
(-1.30998e-15 -0.0149794 2.20673)
(-1.30445e-15 -0.010942 2.18875)
(-1.29893e-15 -0.00727925 2.17101)
(-1.29347e-15 -0.00390648 2.15369)
(-1.28814e-15 -0.00111414 2.13694)
(-1.28297e-15 0.00115974 2.12085)
(-1.27797e-15 0.00295062 2.10543)
(-1.27317e-15 0.00424731 2.09067)
(-1.26857e-15 0.00482127 2.07651)
(-1.26415e-15 0.00457839 2.06292)
(-1.25987e-15 0.00338684 2.04978)
(-1.25569e-15 0.00144984 2.03696)
(-1.25156e-15 -0.00151189 2.0243)
(-1.24744e-15 -0.00567613 2.01165)
(-1.24329e-15 -0.0113814 1.999)
(-1.23905e-15 -0.0186488 1.98629)
(-1.23469e-15 -0.027397 1.97347)
(-1.2302e-15 -0.0382827 1.96067)
(-1.22561e-15 -0.051666 1.94815)
(-1.22095e-15 -0.0680611 1.93643)
(-1.21629e-15 -0.0878255 1.92611)
(-1.21176e-15 -0.111941 1.91834)
(-1.2075e-15 -0.141183 1.91436)
(-1.2037e-15 -0.177104 1.91604)
(-1.20052e-15 -0.2214 1.92523)
(-1.19807e-15 -0.27649 1.94405)
(-1.19633e-15 -0.344592 1.97336)
(-1.19503e-15 -0.428942 2.01278)
(-1.1935e-15 -0.532231 2.05844)
(-1.19053e-15 -0.656202 2.10239)
(-1.18434e-15 -0.799809 2.13007)
(-1.17275e-15 -0.958604 2.12213)
(-1.15367e-15 -1.12286 2.057)
(-1.12596e-15 -1.27801 1.9186)
(-1.09023e-15 -1.40656 1.70347)
(-1.04946e-15 -1.49499 1.43054)
(-1.00942e-15 -1.55868 1.1521)
(-9.7847e-16 -1.69995 0.962145)
(-9.64349e-16 -2.14807 0.968425)
(-9.64154e-16 -3.1029 1.17669)
(-9.60076e-16 -4.47105 1.41932)
(-9.3429e-16 -5.85885 1.49061)
(-8.84301e-16 -6.84336 1.32182)
(-8.18897e-16 -7.28024 1.01137)
(-7.37556e-16 -7.03899 0.622296)
(-6.38133e-16 -5.10502 0.0499509)
(-6.19354e-16 -1.96743 -0.204795)
(-6.18697e-16 -0.853908 -0.318079)
(-6.18899e-16 0.659711 -0.425575)
(-6.25858e-16 2.61815 0.803881)
(-6.19063e-16 4.10012 -0.0485046)
(-5.54978e-16 -7.36826 0.37666)
(-3.89176e-16 -3.56255 -0.824645)
(-2.89268e-16 -1.80995 -0.455007)
(-2.54107e-16 -1.32995 -0.755375)
(-2.48074e-16 -0.844716 -0.803096)
(-2.67183e-16 -0.509125 -0.409226)
(-2.91695e-16 0.717986 -1.17978)
(-2.74548e-16 2.04074 -1.89932)
(-2.6526e-16 2.54791 -1.88117)
(-2.56365e-16 2.38305 -0.377277)
(-2.34244e-16 -1.45416 0.0749307)
(-2.19897e-16 -3.15328 -0.672862)
(-2.07277e-16 -3.24571 -1.06793)
(-1.96902e-16 -2.91228 -1.42279)
(-1.89233e-16 -2.36781 -1.67079)
(-1.84165e-16 -1.74939 -1.78228)
(-1.81172e-16 -1.1604 -1.79879)
(-1.79621e-16 -0.618961 -1.77213)
(-1.79068e-16 -0.0807106 -1.75312)
(-1.79292e-16 0.461367 -1.70925)
(-1.79295e-16 1.0606 -1.64834)
(-1.81859e-16 1.8139 -1.59942)
(-1.93886e-16 2.6281 -1.47717)
(-2.28846e-16 3.29236 -1.07018)
(1.41967e-16 3.90905 -0.584069)
(-1.30512e-15 -0.0231168 2.17863)
(-1.29699e-15 -0.0194721 2.15399)
(-1.29168e-15 -0.0151658 2.13843)
(-1.28587e-15 -0.0115218 2.12125)
(-1.28018e-15 -0.00771122 2.10488)
(-1.27463e-15 -0.00417616 2.08916)
(-1.26929e-15 -0.000882226 2.07426)
(-1.26423e-15 0.00186732 2.06029)
(-1.25945e-15 0.00402695 2.04731)
(-1.25497e-15 0.00556567 2.03528)
(-1.2508e-15 0.00663425 2.02412)
(-1.24692e-15 0.00704006 2.01371)
(-1.2433e-15 0.00669718 2.00398)
(-1.23989e-15 0.00539028 1.99486)
(-1.23663e-15 0.00329285 1.98621)
(-1.23348e-15 0.000244917 1.97784)
(-1.23038e-15 -0.00393246 1.96967)
(-1.22729e-15 -0.0095791 1.96172)
(-1.22415e-15 -0.016947 1.9541)
(-1.22095e-15 -0.0260007 1.94679)
(-1.21768e-15 -0.037078 1.93995)
(-1.21435e-15 -0.0506395 1.93391)
(-1.21101e-15 -0.0674382 1.9293)
(-1.20774e-15 -0.087933 1.92676)
(-1.20464e-15 -0.112872 1.92737)
(-1.20185e-15 -0.143056 1.93215)
(-1.19947e-15 -0.180008 1.94251)
(-1.19758e-15 -0.225488 1.95965)
(-1.19618e-15 -0.281906 1.98478)
(-1.19509e-15 -0.351231 2.01756)
(-1.19392e-15 -0.435955 2.05608)
(-1.19187e-15 -0.538146 2.09518)
(-1.18772e-15 -0.658739 2.12619)
(-1.1798e-15 -0.795627 2.13517)
(-1.16622e-15 -0.94384 2.10522)
(-1.14541e-15 -1.09425 2.01926)
(-1.11675e-15 -1.23429 1.86628)
(-1.08121e-15 -1.34987 1.64646)
(-1.04185e-15 -1.43295 1.37936)
(-1.00421e-15 -1.50624 1.11549)
(-9.76103e-16 -1.67689 0.945665)
(-9.64154e-16 -2.16298 0.969868)
(-9.64332e-16 -3.13615 1.18319)
(-9.59202e-16 -4.48535 1.41847)
(-9.32388e-16 -5.82752 1.48092)
(-8.82203e-16 -6.77039 1.31113)
(-8.16974e-16 -7.18473 1.00634)
(-7.35878e-16 -6.92132 0.624533)
(-6.37803e-16 -5.001 0.070613)
(-6.19438e-16 -1.90608 -0.159474)
(-6.18435e-16 -0.840911 -0.294785)
(-6.18881e-16 0.570729 -0.325907)
(-6.26255e-16 2.58068 0.698344)
(-6.19928e-16 4.09196 -0.0509917)
(-5.56503e-16 -7.2061 0.302908)
(-3.95833e-16 -3.55565 -0.954895)
(-2.89368e-16 -1.6366 -0.195526)
(-2.54194e-16 -1.30691 -0.656265)
(-2.43957e-16 -0.88274 -0.737332)
(-2.89415e-16 -0.444205 -0.323448)
(-2.96775e-16 0.901163 -1.33085)
(-2.74092e-16 2.08539 -1.99069)
(-2.64694e-16 2.41656 -1.90348)
(-2.57063e-16 2.3417 -0.57463)
(-2.34735e-16 -1.40568 0.0077283)
(-2.20405e-16 -3.08216 -0.691821)
(-2.07962e-16 -3.1839 -1.07295)
(-1.97705e-16 -2.85765 -1.41858)
(-1.90048e-16 -2.33491 -1.67189)
(-1.84902e-16 -1.73825 -1.79774)
(-1.8179e-16 -1.16104 -1.82694)
(-1.80139e-16 -0.623189 -1.80703)
(-1.7953e-16 -0.0856647 -1.78148)
(-1.79758e-16 0.451597 -1.7322)
(-1.79787e-16 1.05048 -1.66585)
(-1.8249e-16 1.79525 -1.60387)
(-1.95959e-16 2.57258 -1.45603)
(-2.28517e-16 3.19965 -1.02567)
(1.52871e-16 3.82449 -0.583185)
(-1.27941e-15 -0.0208046 2.09866)
(-1.27092e-15 -0.0162181 2.07679)
(-1.26576e-15 -0.0123871 2.06443)
(-1.26014e-15 -0.00871106 2.05062)
(-1.25481e-15 -0.00513797 2.03812)
(-1.24976e-15 -0.00188051 2.02654)
(-1.24507e-15 0.00112932 2.01597)
(-1.24075e-15 0.00369854 2.00643)
(-1.23682e-15 0.00574607 1.99792)
(-1.23328e-15 0.00713204 1.9904)
(-1.2301e-15 0.00796814 1.98373)
(-1.22725e-15 0.00817574 1.97772)
(-1.22469e-15 0.00769277 1.9723)
(-1.22236e-15 0.00632461 1.96746)
(-1.22021e-15 0.00402588 1.96311)
(-1.21817e-15 0.00078196 1.9591)
(-1.21619e-15 -0.00353407 1.95536)
(-1.21424e-15 -0.0091075 1.95197)
(-1.21226e-15 -0.0163114 1.94912)
(-1.21024e-15 -0.0254468 1.94689)
(-1.20815e-15 -0.0366297 1.94542)
(-1.20603e-15 -0.0502706 1.94502)
(-1.20389e-15 -0.0671428 1.9463)
(-1.20182e-15 -0.0879957 1.94988)
(-1.1999e-15 -0.113572 1.95672)
(-1.19823e-15 -0.144711 1.96754)
(-1.19686e-15 -0.182763 1.98335)
(-1.19581e-15 -0.22931 2.00471)
(-1.19494e-15 -0.286652 2.03208)
(-1.19401e-15 -0.356688 2.06418)
(-1.19248e-15 -0.441381 2.09798)
(-1.18952e-15 -0.541844 2.12731)
(-1.18392e-15 -0.658386 2.14324)
(-1.17418e-15 -0.788463 2.1328)
(-1.15877e-15 -0.92694 2.08169)
(-1.13653e-15 -1.0654 1.97683)
(-1.10728e-15 -1.19305 1.81151)
(-1.07225e-15 -1.29876 1.58869)
(-1.0345e-15 -1.37902 1.32866)
(-9.9934e-16 -1.46322 1.08095)
(-9.74019e-16 -1.66268 0.933393)
(-9.64058e-16 -2.18489 0.976995)
(-9.64458e-16 -3.17524 1.19548)
(-9.5825e-16 -4.50697 1.42271)
(-9.30443e-16 -5.80856 1.47507)
(-8.80081e-16 -6.71593 1.30238)
(-8.15028e-16 -7.11165 1.00033)
(-7.34188e-16 -6.82979 0.621977)
(-6.37447e-16 -4.92204 0.0825631)
(-6.1953e-16 -1.86392 -0.126856)
(-6.18204e-16 -0.799824 -0.296886)
(-6.18843e-16 0.520045 -0.300173)
(-6.26662e-16 2.55026 0.593916)
(-6.20747e-16 4.10526 -0.0640929)
(-5.58301e-16 -7.01233 0.226568)
(-4.00568e-16 -3.68463 -1.08993)
(-2.88499e-16 -1.52983 0.0238139)
(-2.53192e-16 -1.27329 -0.570272)
(-2.46207e-16 -0.939744 -0.520734)
(-3.09073e-16 -0.323334 -0.446988)
(-2.99078e-16 1.07474 -1.50995)
(-2.73035e-16 2.12722 -2.08052)
(-2.63994e-16 2.28866 -1.94683)
(-2.57428e-16 2.07327 -0.710185)
(-2.3532e-16 -1.34338 -0.0407956)
(-2.20915e-16 -3.00822 -0.696618)
(-2.08644e-16 -3.12322 -1.06996)
(-1.98515e-16 -2.80371 -1.41161)
(-1.90883e-16 -2.29924 -1.67225)
(-1.85675e-16 -1.72328 -1.81354)
(-1.82454e-16 -1.15895 -1.85651)
(-1.80709e-16 -0.626737 -1.84447)
(-1.80044e-16 -0.0940971 -1.81574)
(-1.80276e-16 0.439739 -1.76165)
(-1.80311e-16 1.03783 -1.68654)
(-1.83142e-16 1.77143 -1.609)
(-1.98077e-16 2.51345 -1.43452)
(-2.28189e-16 3.11141 -0.982075)
(1.62113e-16 3.74655 -0.505402)
(-1.25409e-15 -0.0182374 2.04305)
(-1.24603e-15 -0.0131922 2.02718)
(-1.24151e-15 -0.00986932 2.01949)
(-1.2366e-15 -0.00621979 2.01068)
(-1.23212e-15 -0.00281064 2.00328)
(-1.22802e-15 0.000209079 1.99677)
(-1.22435e-15 0.00287453 1.99117)
(-1.22111e-15 0.00512644 1.98639)
(-1.21829e-15 0.00696181 1.98242)
(-1.21586e-15 0.00823531 1.97916)
(-1.21379e-15 0.00891467 1.97652)
(-1.21202e-15 0.00892757 1.9743)
(-1.21051e-15 0.00827911 1.97248)
(-1.2092e-15 0.00687665 1.97106)
(-1.20803e-15 0.00453788 1.97004)
(-1.20697e-15 0.00109928 1.96935)
(-1.20595e-15 -0.00354326 1.96896)
(-1.20495e-15 -0.00942573 1.969)
(-1.20391e-15 -0.0167775 1.96968)
(-1.20283e-15 -0.0260599 1.97114)
(-1.20169e-15 -0.037573 1.97357)
(-1.20049e-15 -0.0515818 1.97721)
(-1.19927e-15 -0.0687311 1.9826)
(-1.19809e-15 -0.0898398 1.99024)
(-1.197e-15 -0.11589 2.00094)
(-1.19608e-15 -0.14776 2.01515)
(-1.19532e-15 -0.18673 2.03343)
(-1.19464e-15 -0.234141 2.05574)
(-1.19386e-15 -0.291986 2.08184)
(-1.19262e-15 -0.361988 2.10966)
(-1.19035e-15 -0.445783 2.1354)
(-1.18619e-15 -0.543834 2.15238)
(-1.17901e-15 -0.655729 2.15182)
(-1.16751e-15 -0.778861 2.12208)
(-1.15048e-15 -0.908139 2.05145)
(-1.12718e-15 -1.03593 1.93031)
(-1.09771e-15 -1.1529 1.75523)
(-1.06348e-15 -1.25054 1.53135)
(-1.02751e-15 -1.32942 1.27964)
(-9.94864e-16 -1.42565 1.04931)
(-9.72221e-16 -1.65419 0.925265)
(-9.64047e-16 -2.21186 0.988701)
(-9.64523e-16 -3.21869 1.21202)