/*--------------------------------*- C++ -*----------------------------------*\
| =========                 |                                                 |
| \\      /  F ield         | OpenFOAM: The Open Source CFD Toolbox           |
|  \\    /   O peration     | Version:  4.1                                   |
|   \\  /    A nd           | Web:      www.OpenFOAM.org                      |
|    \\/     M anipulation  |                                                 |
\*---------------------------------------------------------------------------*/
FoamFile
{
    version     2.0;
    format      ascii;
    class       surfaceScalarField;
    location    "12";
    object      phi;
}
// * * * * * * * * * * * * * * * * * * * * * * * * * * * * * * * * * * * * * //

dimensions      [0 3 -1 0 0 0 0];

internalField   nonuniform List<scalar> 
13220
(
-777.695
2077.59
-1212.32
1734.82
-1657.55
1745.13
-1981.72
1624.07
-2245.15
1563.63
-2431.4
1486.15
-2549.36
1417.86
-2598.87
1349.71
-2582.78
1283.81
-2494.64
1211.76
-2320.25
1125.81
-2033.93
1013.58
-1586.83
852.798
-930.131
643.5
369.769
-222.555
2300.15
-504.46
2016.73
-809.483
2050.15
-1062.37
1876.95
-1307.25
1808.5
-1513.07
1691.98
-1696.81
1601.59
-1852.01
1504.92
-1977.18
1408.97
-2045.36
1279.93
-1980.67
1061.13
-1652.12
685.029
-1041
241.673
-431.063
33.5609
-61.2943
-175.504
2475.65
-409.777
2251
-585.324
2225.7
-707.589
1999.22
-818.747
1919.66
-888.47
1761.7
-940.07
1653.19
-967.368
1532.21
-974.997
1416.6
-957.16
1262.09
-893.857
997.821
-742.736
533.897
-538.199
37.1192
-342.734
-161.924
-404.029
74.9262
2400.72
15.1581
2310.77
25.1096
2215.75
57.9553
1966.37
97.3538
1880.26
156.802
1702.25
228.639
1581.35
318.502
1442.35
419.927
1315.18
511.945
1170.08
536.171
973.593
389.734
680.338
80.5337
346.325
-53.9159
-27.4691
-457.945
171.186
2229.54
155.764
2326.19
210.937
2160.57
274.034
1903.27
347.944
1806.35
422.894
1627.3
505.297
1498.95
593.928
1353.72
688.006
1221.1
770.61
1087.47
806.231
937.974
727.875
758.691
539.3
534.899
255.548
256.282
-202.396
151.092
2078.45
173.561
2303.72
228.817
2105.32
291.757
1840.34
363.47
1734.64
430.924
1559.85
498.381
1431.49
558.66
1293.44
613.215
1166.55
656.876
1043.81
673.264
921.587
632
799.962
509.31
657.594
288.933
476.673
86.5365
81.0511
1997.4
150.044
2234.73
217.701
2037.66
288.52
1769.52
362.602
1660.56
443.185
1479.26
525.756
1348.92
616.685
1202.51
702.657
1080.57
773.239
973.233
801.004
893.823
754.539
846.427
600.911
811.223
339.901
737.686
426.437
-27.8139
2025.21
40.4862
2166.43
87.3137
1990.83
97.7092
1759.12
109.568
1648.7
141.371
1447.46
229.578
1260.71
387.386
1044.71
585.253
882.707
777.899
780.588
891.699
780.023
861.413
876.714
665.844
1006.79
359.964
1043.57
786.402
-149.809
2175.02
-235.185
2251.8
-315.827
2071.48
-458.282
1901.58
-609.091
1799.51
-750.151
1588.52
-823.028
1333.59
-821.82
1043.5
-748.808
809.695
-601.401
633.18
-382.364
560.986
-137.185
631.535
39.8837
829.725
75.9899
1007.46
862.391
-9.98776
2185.01
-256.002
2497.82
-467.343
2282.82
-673.263
2107.5
-887.656
2013.9
-1127.13
1827.99
-1380.97
1587.44
-1634.03
1296.55
-1854.12
1029.79
-1985.74
764.799
-1943.04
518.289
-1643.17
331.66
-1083.08
269.641
-435.37
359.746
427.022
365.797
1819.21
262.478
2601.14
78.1511
2467.14
-35.1912
2220.84
-98.3694
2077.08
-177.745
1907.37
-305.842
1715.54
-485.733
1476.44
-690.523
1234.58
-906.307
980.583
-1100.85
712.828
-1194.88
425.699
-1060.37
135.131
-646.847
-53.7819
-219.825
566.694
1252.52
721.525
2446.31
677.464
2511.21
670.823
2227.48
743.535
2004.37
831.858
1819.05
893.12
1654.27
893.159
1476.4
838.581
1289.16
725.894
1093.27
552.239
886.483
312.937
665.003
41.2088
406.861
-105.73
93.1601
-325.555
456.564
795.953
659.715
2243.16
732.358
2438.56
820.673
2139.17
951.303
1873.74
1083.18
1687.17
1191.46
1545.99
1255.54
1412.32
1268.7
1276
1228.05
1133.92
1129.23
985.305
963.98
830.251
722.639
648.202
381.193
434.605
55.6384
273.145
522.808
417.233
2099.07
438.052
2417.74
391.583
2185.64
368.614
1896.71
381.983
1673.8
420.392
1507.58
469.77
1362.94
520.674
1225.1
560.993
1093.6
579.646
966.652
563.199
846.698
470.845
740.557
287.198
618.254
342.836
134.861
991.702
1810.18
2315.02
2448.93
2458.68
2375.42
2182.74
1898.63
1602.93
1305.89
1001.4
709.132
387.906
-3.89837e-05
-77.2571
77.257
-77.2571
-77.2571
-77.2571
270.904
-348.161
270.904
270.904
270.904
539.912
-269.008
539.912
539.912
722.336
-182.423
722.336
722.336
722.336
817.157
-94.8213
817.157
817.157
837.868
-20.7108
837.868
837.868
837.868
805.062
32.8056
805.062
805.062
805.062
740.828
64.2344
740.828
740.828
653.68
87.1479
653.68
653.68
653.68
555.021
98.659
555.021
555.021
440.648
114.373
440.648
440.648
440.648
321.838
118.81
321.838
321.838
321.838
270.925
50.9127
270.925
270.925
302.925
-31.9995
302.925
302.925
302.925
211.517
91.4072
211.517
211.517
211.517
69.2441
142.273
69.2441
69.2441
-46.9162
116.16
-46.9162
-46.9162
-46.9162
-565.5
518.583
-565.5
-565.5
-1545.02
979.524
-1545.02
-1545.02
-1545.02
-2903.55
1358.52
-2903.55
-2903.55
-2903.55
-4572.96
1669.41
-4572.96
-4572.96
-6557.32
1984.36
-6557.32
-6557.32
-6424.18
-6293.1
-6159.87
-8283.62
2262.69
-8138.91
-7974.68
-7799.58
-7623.65
-7446.59
-7268.27
-7088.3
-6902.16
-9260.96
2546.21
-9062.87
-8862.48
-8660.09
-8448.53
-8233.84
-8017.17
-7799.18
-7579.26
-10106.2
2748.03
-9869.79
-9632.04
-9393.1
-9152.4
-8904.49
-8644.68
-8382.29
-8116.84
-7849.94
-10366.8
2769.44
-10086.5
-9804.34
-9521.11
-9237.37
-8953.25
-8657.08
-8355
-8054.75
-10186.9
2412.66
-9900.19
-9610.21
-9310.47
-9012.51
-8714.75
-8417.69
-8119.39
-7799.48
-9383.25
1892.13
-9072.97
-8762.47
-8451.21
-8120.88
-7782.81
-7447.45
-7114.33
-6786.95
-7680.17
1216.81
-7350.14
-7031.14
-6719.54
-6415.98
-6119.4
-5813.29
-5512.63
-5214.65
-4922.23
-4752.62
135.313
-4491.67
-4249.19
-4011
-3779.14
-3554
-3380.36
-3306.6
-3234.12
-2886.65
-272.285
-2821.75
-2758.94
-2758.94
-2566.04
-192.899
-2376.44
-189.602
-2376.44
-2226.88
-149.565
-2226.88
-2108.82
-118.053
-2013.14
-95.6819
-2013.14
-1938.04
-75.0958
-1878.87
-59.1739
-1878.87
-1835.81
-43.066
-1835.81
-1813.43
-22.377
-1798.05
-15.3764
-1798.05
-1794.99
-3.06327
-1794.99
-1807.35
12.3634
-1814.92
7.5648
-1814.92
-1834.86
19.9453
-1847.29
12.4309
-1847.29
-1864.9
17.6064
-1864.9
-1890.04
25.1404
-1903.88
13.8434
-1903.88
-1921.2
17.3151
-1921.2
-1944.02
22.8181
-1951.25
7.22903
-1951.25
-1963.89
12.6446
-1962.53
-1.35565
-1962.53
-1959.88
-2.65697
-1959.88
-1957.71
-2.17147
-1942.65
-15.0573
-1942.65
-1925.64
-17.0066
-1925.64
-1909.68
-15.9582
-1881.54
-28.1466
-1881.54
-1854.63
-26.9076
-1819.04
-35.5871
-1819.04
-1781.31
-37.733
-1781.31
-1743.69
-37.6172
-1698.73
-44.9637
-1698.73
-1650.68
-48.0458
-1650.68
-1602.38
-48.302
-1547.11
-55.2728
-1547.11
-1489.11
-57.9997
-1427.23
-61.8762
-1427.23
-1361.18
-66.0478
-1361.18
-1292.84
-68.3419
-1222.39
-70.457
-1222.39
-1146.78
-75.6018
-1146.78
-1068.11
-78.6731
-988.552
-79.5589
-988.552
-901.635
-86.9169
-816.967
-84.6677
-816.967
-727.188
-89.7791
-727.188
-93.8083
-40.6096
-187.332
-40.553
-230.485
-40.7799
-257.504
-41.08
-284.108
-41.5285
-309.972
-42.071
-334.47
-42.7285
-358.492
-43.4846
-381.791
-44.345
-404.711
-45.304
-427.243
-46.3629
-449.543
-47.5195
-471.66
-48.7736
-493.686
-50.1245
-515.677
-51.5719
-537.697
-53.1153
-559.798
-54.7545
-582.026
-56.489
-604.418
-58.3182
-627.006
-60.241
-649.806
-62.2559
-672.827
-64.3607
-696.06
-66.5523
-719.482
-68.8266
-743.054
-71.1788
-766.718
-73.6029
-790.403
-76.0926
-814.027
-78.6411
-837.507
-81.2414
-860.762
-83.8876
-883.727
-86.5742
-906.362
-89.2971
-928.657
-92.0537
-950.642
-94.8419
-972.381
-97.6603
-993.968
-100.507
-1015.51
-103.381
-1037.13
-106.281
-1058.92
-109.208
-1081.04
-112.168
-1103.68
-115.169
-1127.17
-118.22
-1151.93
-121.321
-1178.44
-124.448
-1207.06
-127.555
-1237.86
-130.563
-1270.56
-133.362
-1304.62
-135.813
-1339.24
-137.74
-1373.52
-138.931
-1406.43
-139.122
-1436.84
-137.988
-1463.4
-135.123
-1484.31
-130.04
-1497.02
-122.174
-1497.83
-110.91
-1481.52
-95.6501
-1440.69
-75.8728
-1364.07
-51.4257
-1236.66
-22.7709
-1024.9
17.3318
-652.262
45.6011
279.406
50.555
848.049
53.4945
1258.84
55.735
1631.62
57.1786
2000.3
57.9239
2333.74
58.4768
2621.36
58.2588
2835.16
57.7544
2991.58
55.1153
3035.91
52.7612
3071.36
46.9054
2969.01
46.0854
3043.67
39.4621
2803.07
44.9797
3151.9
50.1444
2738.8
48.5415
3167.28
4359.9
-43.8703
-187.684
-43.7064
-230.649
-43.8939
-257.317
-44.167
-283.835
-44.6108
-309.528
-45.1594
-333.921
-45.8349
-357.817
-46.6179
-381.008
-47.5138
-403.815
-48.5159
-426.241
-49.6252
-448.434
-50.8387
-470.447
-52.1563
-492.368
-53.5767
-514.256
-55.0993
-536.175
-56.7234
-558.174
-58.4483
-580.301
-60.273
-602.594
-62.1963
-625.082
-64.2164
-647.786
-66.3308
-670.712
-68.5361
-693.855
-70.8282
-717.19
-73.2016
-740.681
-75.6502
-764.269
-78.1671
-787.886
-80.7452
-811.449
-83.3775
-834.875
-86.0575
-858.082
-88.7803
-881.004
-91.5421
-903.6
-94.341
-925.858
-97.1764
-947.806
-100.049
-969.509
-102.957
-991.06
-105.901
-1012.57
-108.88
-1034.15
-111.894
-1055.91
-114.947
-1077.99
-118.052
-1100.58
-121.225
-1124
-124.477
-1148.68
-127.802
-1175.12
-131.165
-1203.7
-134.497
-1234.53
-137.699
-1267.36
-140.645
-1301.67
-143.177
-1336.71
-145.111
-1371.58
-146.221
-1405.32
-146.228
-1436.83
-144.78
-1464.85
-141.436
-1487.65
-135.656
-1502.8
-126.824
-1506.67
-114.28
-1494.06
-97.4135
-1457.55
-75.6951
-1385.79
-49.0037
-1263.35
-17.7127
-1056.19
27.5069
-697.482
56.6484
250.265
54.9587
849.739
56.0559
1257.75
57.505
1630.17
58.0603
1999.75
58.0018
2333.8
57.9495
2621.41
57.2661
2835.84
56.4968
2992.35
53.7849
3038.62
51.4313
3073.71
45.7413
2974.7
45.0231
3044.39
38.6551
2809.43
44.1345
3146.42
49.3891
2733.55
48.3366
3168.33
4318.46
-45.623
-188.097
-45.4205
-230.851
-45.5838
-257.154
-45.845
-283.573
-46.2864
-309.087
-46.8393
-333.368
-47.5253
-357.131
-48.3237
-380.209
-49.2397
-402.899
-50.2661
-425.215
-51.4034
-447.297
-52.6487
-469.201
-54.0015
-491.015
-55.4604
-512.798
-57.0246
-534.611
-58.6932
-556.505
-60.4652
-578.529
-62.3394
-600.719
-64.3142
-623.107
-66.3873
-645.713
-68.5557
-668.544
-70.8154
-691.595
-73.1615
-714.844
-75.5879
-738.254
-78.0879
-761.769
-80.654
-785.32
-83.2788
-808.824
-85.9555
-832.198
-88.6781
-855.359
-91.4423
-878.24
-94.2455
-900.797
-97.0871
-923.017
-99.9677
-944.926
-102.888
-966.588
-105.85
-988.098
-108.851
-1009.57
-111.89
-1031.11
-114.97
-1052.83
-118.097
-1074.86
-121.289
-1097.39
-124.564
-1120.72
-127.936
-1145.31
-131.395
-1171.66
-134.894
-1200.2
-138.355
-1231.07
-141.667
-1264.05
-144.694
-1298.64
-147.276
-1334.13
-149.222
-1369.64
-150.302
-1404.24
-150.231
-1436.9
-148.641
-1466.44
-145.069
-1491.23
-138.954
-1508.91
-129.66
-1515.96
-116.531
-1507.19
-98.9932
-1475.09
-76.5702
-1408.21
-49.1824
-1290.74
-16.8124
-1088.56
29.3362
-743.631
65.2474
214.353
62.1848
852.801
60.0511
1259.88
60.2091
1630.01
59.5681
2000.39
58.2911
2335.07
57.3047
2622.4
55.9147
2837.23
54.7143
2993.55
51.8473
3041.49
49.4912
3076.07
43.9676
2980.22
43.4289
3044.92
37.3298
2815.53
42.8598
3140.89
48.1432
2728.26
48.4028
3168.08
4282.19
-47.6897
-188.565
-47.4507
-231.09
-47.5926
-257.012
-47.8437
-283.322
-48.2853
-308.645
-48.8461
-332.807
-49.5467
-356.43
-50.3655
-379.39
-51.3072
-401.957
-52.3642
-424.158
-53.5367
-446.124
-54.8215
-467.917
-56.2179
-489.619
-57.7242
-511.291
-59.3396
-532.995
-61.0629
-554.782
-62.8928
-576.699
-64.8279
-598.784
-66.8661
-621.069
-69.0046
-643.574
-71.2398
-666.309
-73.5671
-689.268
-75.9806
-712.431
-78.4735
-735.761
-81.0382
-759.204
-83.6668
-782.691
-86.3513
-806.14
-89.0848
-829.465
-91.8617
-852.582
-94.6785
-875.423
-97.5338
-897.941
-100.428
-920.122
-103.365
-941.99
-106.345
-963.608
-109.37
-985.073
-112.439
-1006.5
-115.551
-1028
-118.71
-1049.67
-121.925
-1071.64
-125.218
-1094.1
-128.612
-1117.33
-132.125
-1141.79
-135.743
-1168.04
-139.409
-1196.54
-143.03
-1227.45
-146.486
-1260.59
-149.627
-1295.5
-152.286
-1331.47
-154.266
-1367.66
-155.334
-1403.17
-155.193
-1437.05
-153.462
-1468.17
-149.654
-1495.03
-143.189
-1515.38
-133.432
-1525.72
-119.761
-1520.86
-101.676
-1493.18
-78.776
-1431.11
-51.0246
-1318.49
-17.7883
-1121.8
29.0703
-790.489
75.0223
168.402
71.7597
856.064
65.8696
1265.77
64.0043
1631.88
61.7875
2002.61
58.8877
2337.97
56.6171
2624.67
54.2623
2839.58
52.4427
2995.37
49.3377
3044.59
46.9461
3078.46
41.6318
2985.54
41.3088
3045.25
35.5698
2821.27
41.2222
3135.24
46.5362
2722.95
46.5553
3168.06
4241.83
-49.6628
-189.071
-49.4011
-231.352
-49.5256
-256.887
-49.7706
-283.077
-50.2145
-308.201
-50.7848
-332.237
-51.5012
-355.714
-52.3413
-378.55
-53.3094
-400.989
-54.3973
-423.07
-55.6051
-444.916
-56.9294
-466.592
-58.3691
-488.179
-59.9226
-509.738
-61.5887
-531.329
-63.3661
-553.005
-65.2533
-574.812
-67.2485
-596.789
-69.3492
-618.969
-71.5523
-641.371
-73.8535
-664.007
-76.2475
-686.874
-78.7276
-709.951
-81.2863
-733.203
-83.9151
-756.576
-86.6054
-780.001
-89.349
-803.396
-92.1389
-826.675
-94.9698
-849.751
-97.8389
-872.554
-100.746
-895.034
-103.694
-917.174
-106.685
-938.998
-109.725
-960.569
-112.813
-981.985
-115.951
-1003.36
-119.137
-1024.81
-122.374
-1046.43
-125.676
-1068.34
-129.068
-1090.7
-132.582
-1113.81
-136.236
-1138.14
-140.014
-1164.26
-143.849
-1192.7
-147.636
-1223.66
-151.239
-1256.99
-154.502
-1292.24
-157.249
-1328.72
-159.28
-1365.62
-160.356
-1402.09
-160.173
-1437.23
-158.336
-1470.01
-154.348
-1499.02
-147.633
-1522.09
-137.599
-1535.75
-123.714
-1534.75
-105.603
-1511.29
-82.9512
-1453.76
-55.695
-1345.75
-22.4094
-1155.09
22.8588
-835.757
85.9259
105.334
83.0607
858.929
74.2038
1274.63
69.2819
1636.8
64.8731
2007.01
59.9035
2342.94
55.9427
2628.63
52.3211
2843.21
49.6734
2998.02
46.2125
3048.06
43.7583
3080.91
38.6584
2990.64
38.6351
3045.27
33.2879
2826.62
39.1944
3129.33
44.5099
2717.63
45.5215
3167.04
4207.79
-51.6372
-189.605
-51.3613
-231.628
-51.4727
-256.776
-51.7152
-282.835
-52.164
-307.753
-52.7461
-331.655
-53.4803
-354.979
-54.3437
-377.687
-55.34
-399.993
-56.4608
-421.949
-57.7057
-443.671
-59.0713
-465.227
-60.5563
-486.694
-62.1588
-508.135
-63.8776
-529.61
-65.7111
-551.171
-67.6577
-572.865
-69.7151
-594.732
-71.8807
-616.803
-74.1507
-639.101
-76.5204
-661.638
-78.9836
-684.41
-81.5331
-707.401
-84.1603
-730.575
-86.8561
-753.88
-89.6111
-777.246
-92.4167
-800.591
-95.2658
-823.826
-98.1534
-846.864
-101.078
-869.63
-104.039
-892.072
-107.042
-914.171
-110.092
-935.948
-113.194
-957.467
-116.349
-978.829
-119.558
-1000.15
-122.82
-1021.55
-126.138
-1043.12
-129.529
-1064.95
-133.024
-1087.21
-136.66
-1110.18
-140.46
-1134.34
-144.406
-1160.32
-148.419
-1188.69
-152.382
-1219.7
-156.147
-1253.22
-159.547
-1288.84
-162.4
-1325.87
-164.5
-1363.52
-165.606
-1400.99
-165.407
-1437.43
-163.502
-1471.91
-159.405
-1503.12
-152.586
-1528.91
-142.561
-1545.78
-128.957
-1548.35
-111.543
-1528.7
-90.0281
-1475.28
-64.1614
-1371.61
-31.4911
-1187.76
11.9963
-879.245
91.4357
25.895
94.8309
855.534
85.2169
1284.24
76.4061
1645.61
68.9453
2014.47
61.4326
2350.46
55.3675
2634.69
50.1616
2848.41
46.4671
3001.71
42.5189
3052
39.9581
3083.48
35.0731
2995.52
35.4125
3044.93
30.4952
2831.54
36.7729
3123.05
42.089
2712.32
42.6896
3166.44
4171.81
-53.5945
-190.156
-53.3126
-231.91
-53.415
-256.673
-53.6585
-282.591
-54.1145
-307.296
-54.7107
-331.059
-55.4646
-354.226
-56.353
-376.798
-57.3791
-398.966
-58.5343
-420.794
-59.8179
-442.388
-61.2262
-463.819
-62.758
-485.162
-64.411
-506.482
-66.184
-527.837
-68.0751
-549.28
-70.0825
-570.858
-72.2038
-592.61
-74.4358
-614.571
-76.7745
-636.763
-79.2145
-659.198
-81.749
-681.876
-84.3698
-704.78
-87.0677
-727.877
-89.8326
-751.115
-92.6545
-774.424
-95.5243
-797.721
-98.4347
-820.915
-101.381
-843.917
-104.362
-866.649
-107.381
-889.054
-110.441
-911.111
-113.551
-932.838
-116.717
-954.302
-119.941
-975.605
-123.224
-996.869
-126.564
-1018.21
-129.965
-1039.71
-133.447
-1061.47
-137.046
-1083.61
-140.806
-1106.42
-144.757
-1130.39
-148.877
-1156.2
-153.078
-1184.49
-157.229
-1215.55
-161.169
-1249.28
-164.72
-1285.29
-167.694
-1322.89
-169.883
-1361.34
-171.038
-1399.83
-170.852
-1437.61
-168.936
-1473.83
-164.856
-1507.2
-158.206
-1535.56
-148.693
-1555.29
-136.15
-1560.9
-120.435
-1544.42
-101.123
-1494.59
-77.5075
-1395.23
-45.8915
-1219.37
-1.10636
-924.03
85.2477
-60.4591
106.083
834.699
98.6138
1291.71
85.773
1658.45
74.2222
2026.03
63.5699
2361.11
54.9782
2643.29
47.8484
2855.54
42.8741
3006.69
38.293
3056.58
35.5661
3086.2
30.8922
3000.19
31.6469
3044.18
27.2026
2835.98
33.9606
3116.3
39.3388
2706.94
39.7767
3166.01
4135.98
-55.5415
-190.716
-55.2601
-232.191
-55.3577
-256.576
-55.6056
-282.343
-56.0714
-306.831
-56.6839
-330.446
-57.4594
-353.45
-58.3747
-375.883
-59.4324
-397.909
-60.6236
-419.603
-61.9476
-441.064
-63.4004
-462.366
-64.9805
-483.582
-66.6856
-504.777
-68.5144
-526.008
-70.4648
-547.33
-72.5348
-568.788
-74.7218
-590.424
-77.0223
-612.27
-79.4316
-634.353
-81.944
-656.685
-84.552
-679.268
-87.2465
-702.086
-90.0175
-725.106
-92.8541
-748.278
-95.7454
-771.532
-98.6819
-794.784
-101.656
-817.941
-104.664
-840.91
-107.704
-863.608
-110.781
-885.977
-113.901
-907.99
-117.074
-929.666
-120.306
-951.07
-123.602
-972.309
-126.961
-993.51
-130.382
-1014.79
-133.868
-1036.23
-137.443
-1057.89
-141.147
-1079.91
-145.035
-1102.53
-149.141
-1126.28
-153.444
-1151.89
-157.843
-1180.09
-162.194
-1211.2
-166.323
-1245.15
-170.042
-1281.57
-173.155
-1319.78
-175.448
-1359.04
-176.676
-1398.6
-176.544
-1437.75
-174.721
-1475.65
-170.903
-1511.02
-164.91
-1541.56
-156.715
-1563.48
-146.328
-1571.28
-133.524
-1557.22
-117.452
-1510.66
-96.6322
-1416.05
-66.1002
-1249.9
-19.8934
-970.237
75.6369
-155.989
116.283
794.052
113.748
1294.24
97.6947
1674.51
81.0606
2042.66
66.438
2375.73
54.8577
2654.87
45.4385
2864.96
38.9311
3013.19
33.5547
3061.96
30.5881
3089.17
26.1117
3004.67
27.3337
3042.95
23.3994
2839.91
30.7727
3108.92
36.2302
2701.48
38.2459
3163.99
4103.77
-57.4793
-191.278
-57.2041
-232.466
-57.3009
-256.479
-57.5567
-282.088
-58.0348
-306.353
-58.6658
-329.815
-59.465
-352.651
-60.409
-374.939
-61.5
-396.818
-62.7291
-418.374
-64.0951
-439.698
-65.5939
-460.867
-67.224
-481.952
-68.983
-503.018
-70.8692
-524.122
-72.8807
-545.318
-75.0151
-566.653
-77.2696
-588.169
-79.6405
-609.9
-82.1226
-631.871
-84.7097
-654.098
-87.3934
-676.584
-90.1641
-699.315
-93.0107
-722.26
-95.9215
-745.368
-98.8849
-768.569
-101.891
-791.779
-104.931
-814.901
-108.002
-837.839
-111.104
-860.506
-114.242
-882.839
-117.424
-904.808
-120.661
-926.429
-123.963
-947.768
-127.333
-968.938
-130.772
-990.071
-134.276
-1011.28
-137.85
-1032.65
-141.518
-1054.23
-145.33
-1076.09
-149.348
-1098.51
-153.615
-1122.01
-158.109
-1147.4
-162.717
-1175.48
-167.282
-1206.63
-171.617
-1240.82
-175.519
-1277.67
-178.786
-1316.51
-181.201
-1356.63
-182.529
-1397.28
-182.53
-1437.75
-181.009
-1477.17
-177.913
-1514.11
-173.39
-1546.08
-167.691
-1569.18
-160.831
-1578.14
-152.167
-1565.89
-140.063
-1522.76
-122.024
-1434.09
-92.1455
-1279.78
-43.8956
-1018.49
63.0716
-262.957
124.765
732.359
129.782
1289.23
112.233
1692.05
89.8945
2065
70.2182
2395.41
55.0876
2670
42.9901
2877.06
34.6738
3021.51
28.3248
3068.31
25.0297
3092.46
20.7283
3008.97
22.4658
3041.22
19.0746
2843.31
27.1853
3100.81
32.7763
2695.89
34.0036
3162.76
4069.43
-59.4101
-191.835
-59.1461
-232.73
-59.2459
-256.379
-59.5128
-281.821
-60.0057
-305.86
-60.6577
-329.163
-61.4825
-351.826
-62.4572
-373.964
-63.5834
-395.692
-64.852
-417.105
-66.2618
-438.288
-67.8084
-459.32
-69.4902
-480.27
-71.3048
-501.204
-73.2503
-522.177
-75.3246
-543.244
-77.5253
-564.453
-79.8494
-585.845
-82.2927
-607.456
-84.8498
-629.314
-87.5138
-651.434
-90.2758
-673.822
-93.1252
-696.466
-96.0502
-719.335
-99.0379
-742.38
-102.076
-765.531
-105.154
-788.701
-108.263
-811.791
-111.4
-834.701
-114.566
-857.34
-117.767
-879.638
-121.014
-901.562
-124.318
-923.124
-127.691
-944.395
-131.139
-965.49
-134.661
-986.55
-138.251
-1007.69
-141.914
-1028.99
-145.678
-1050.46
-149.599
-1072.17
-153.749
-1094.36
-158.184
-1117.58
-162.878
-1142.71
-167.709
-1170.65
-172.504
-1201.84
-177.059
-1236.26
-181.16
-1273.57
-184.595
-1313.08
-187.15
-1354.07
-188.635
-1395.79
-188.938
-1437.44
-188.132
-1477.98
-186.557
-1515.69
-184.744
-1547.89
-183.067
-1570.86
-181.183
-1580.03
-177.585
-1569.48
-169.548
-1530.8
-153.538
-1450.1
-123.307
-1310.01
-71.9816
-1069.81
47.4296
-382.368
131.052
648.736
145.891
1274.39
129.12
1708.83
101.121
2093
75.1891
2421.34
55.7603
2689.42
40.5615
2892.26
30.1389
3031.93
22.625
3075.82
18.8989
3096.19
14.7414
3013.13
17.0388
3038.92
14.2208
2846.12
23.1909
3091.84
29.0268
2690.05
29.9382
3161.85
4033.33
-61.3359
-192.382
-61.0873
-232.979
-61.1939
-256.273
-61.475
-281.54
-61.9853
-305.349
-62.6605
-328.488
-63.513
-350.974
-64.5204
-372.957
-65.6837
-394.528
-66.9938
-415.795
-68.449
-436.833
-70.0453
-457.724
-71.7806
-478.535
-73.6525
-499.332
-75.6591
-520.17
-77.7981
-541.105
-80.0672
-562.184
-82.4628
-583.449
-84.9807
-604.938
-87.6152
-626.679
-90.3586
-648.691
-93.2014
-670.979
-96.1324
-693.535
-99.1385
-716.329
-102.206
-739.312
-105.322
-762.415
-108.474
-785.548
-111.656
-808.61
-114.861
-831.496
-118.094
-854.108
-121.36
-876.372
-124.673
-898.249
-128.047
-919.75
-131.495
-940.947
-135.024
-961.962
-138.631
-982.943
-142.31
-1004.01
-146.066
-1025.23
-149.928
-1046.6
-153.958
-1068.14
-158.244
-1090.08
-162.852
-1112.97
-167.757
-1137.8
-172.825
-1165.58
-177.865
-1196.8
-182.657
-1231.47
-186.971
-1269.25
-190.587
-1309.46
-193.319
-1351.34
-195.087
-1394.02
-196.049
-1436.48
-196.72
-1477.3
-197.939
-1514.47
-200.508
-1545.32
-204.54
-1566.83
-208.797
-1575.77
-210.503
-1567.78
-205.773
-1535.53
-190.303
-1465.57
-158.253
-1342.06
-102.709
-1125.36
29.7596
-514.837
135.8
542.695
161.523
1248.67
147.814
1722.54
114.972
2125.84
81.7319
2454.58
57.0097
2714.15
38.2125
2911.05
25.3659
3044.78
16.4787
3084.71
12.2063
3100.46
8.15306
3017.18
11.0508
3036.02
8.83397
2848.34
18.829
3081.85
24.9541
2683.93
27.8743
3158.93
3999.32
-63.2585
-192.914
-63.029
-233.208
-63.1462
-256.155
-63.4445
-281.241
-63.9747
-304.819
-64.6755
-327.787
-65.5579
-350.091
-66.6
-371.915
-67.8022
-393.326
-69.1556
-414.441
-70.6583
-435.33
-72.306
-456.077
-74.0967
-476.744
-76.0278
-497.4
-78.0974
-518.1
-80.3032
-538.899
-82.6426
-559.844
-85.112
-580.98
-87.7068
-602.343
-90.421
-623.965
-93.2464
-645.866
-96.1728
-668.053
-99.1881
-690.519
-102.278
-713.238
-105.429
-736.162
-108.626
-759.219
-111.856
-782.318
-115.112
-805.354
-118.389
-828.218
-121.69
-850.806
-125.025
-873.037
-128.407
-894.867
-131.853
-916.304
-135.379
-937.421
-138.991
-958.349
-142.688
-979.246
-146.46
-1000.24
-150.31
-1021.38
-154.271
-1042.64
-158.412
-1064
-162.837
-1085.65
-167.625
-1108.18
-172.754
-1132.67
-178.073
-1160.26
-183.376
-1191.5
-188.419
-1226.43
-192.956
-1264.72
-196.774
-1305.64
-199.772
-1348.34
-202.116
-1391.68
-204.434
-1434.16
-207.852
-1473.89
-213.662
-1508.66
-222.555
-1536.43
-233.745
-1555.64
-244.565
-1564.95
-250.826
-1561.52
-247.753
-1538.6
-230.803
-1482.52
-195.239
-1377.63
-134.468
-1186.13
10.815
-660.12
139.307
414.203
176.067
1211.91
167.697
1730.91
131.439
2162.1
90.2698
2495.75
59.0481
2745.37
36.0117
2934.09
20.3983
3060.39
9.91309
3095.2
4.96788
3105.41
0.967795
3021.18
4.5072
3032.48
2.91238
2849.94
14.0652
3070.69
20.5139
2677.48
22.0636
3157.38
3963.39
-65.1798
-193.428
-64.9728
-233.415
-65.1039
-256.024
-65.4225
-280.923
-65.9752
-304.266
-66.7039
-327.059
-67.6183
-349.177
-68.6972
-370.836
-69.9404
-392.083
-71.3391
-413.043
-72.8911
-433.778
-74.5921
-454.375
-76.4401
-474.896
-78.4324
-495.408
-80.5671
-515.966
-82.8417
-536.624
-85.2535
-557.432
-87.7989
-578.434
-90.4731
-599.669
-93.2696
-621.169
-96.1797
-642.956
-99.1926
-665.04
-102.295
-687.417
-105.473
-710.061
-108.71
-732.925
-111.99
-755.938
-115.302
-779.006
-118.635
-802.021
-121.987
-824.867
-125.36
-847.433
-128.765
-869.632
-132.218
-891.414
-135.74
-912.783
-139.346
-933.815
-143.046
-954.649
-146.836
-975.457
-150.705
-996.373
-154.652
-1017.44
-158.713
-1038.58
-162.967
-1059.75
-167.534
-1081.09
-172.51
-1103.21
-177.874
-1127.31
-183.461
-1154.68
-189.042
-1185.92
-194.348
-1221.12
-199.12
-1259.94
-203.198
-1301.57
-206.686
-1344.86
-210.218
-1388.15
-215.119
-1429.26
-223.173
-1465.83
-235.771
-1496.06
-252.771
-1519.43
-271.789
-1536.62
-288.454
-1548.29
-297.457
-1552.51
-293.733
-1542.33
-273.088
-1503.16
-232.311
-1418.4
-165.61
-1252.83
-10.9898
-814.74
139.607
263.607
188.663
1162.85
188.184
1731.38
150.246
2200.03
101.158
2544.84
62.189
2784.34
34.0532
2962.23
15.2813
3079.17
2.95784
3107.52
-2.80495
3111.17
-6.79834
3025.18
-2.59372
3028.28
-3.54282
2850.88
8.94415
3058.21
15.8113
2670.61
19.0066
3154.19
3927.12
-67.1015
-193.919
-66.92
-233.597
-67.0685
-255.876
-67.4102
-280.581
-67.9881
-303.689
-68.747
-326.3
-69.6957
-348.228
-70.8135
-369.718
-72.0998
-390.797
-73.5457
-411.597
-75.149
-432.175
-76.9054
-452.619
-78.8127
-472.989
-80.8682
-493.353
-83.07
-513.764
-85.4155
-534.279
-87.9021
-554.946
-90.5259
-575.811
-93.282
-596.913
-96.1634
-618.287
-99.1611
-639.958
-102.264
-661.937
-105.457
-684.223
-108.725
-706.792
-112.052
-729.599
-115.42
-752.57
-118.815
-775.611
-122.23
-798.607
-125.659
-821.438
-129.106
-843.985
-132.585
-866.154
-136.112
-887.886
-139.711
-909.184
-143.402
-930.124
-147.193
-950.858
-151.08
-971.569
-155.05
-992.404
-159.098
-1013.39
-163.26
-1034.42
-167.628
-1055.38
-172.339
-1076.37
-177.512
-1098.04
-183.126
-1121.69
-188.997
-1148.8
-194.868
-1180.04
-200.444
-1215.55
-205.484
-1254.9
-209.984
-1297.07
-214.473
-1340.37
-220.336
-1382.28
-229.749
-1419.85
-244.874
-1450.71
-266.427
-1474.51
-292.532
-1493.33
-318.748
-1510.4
-339.266
-1527.77
-348.38
-1543.4
-341.44
-1549.27
-315.031
-1529.57
-267.489
-1465.95
-194.948
-1325.37
-40.8606
-968.827
134.004
88.7425
198.845
1098.01
208.788
1721.44
170.875
2237.95
114.563
2601.15
66.8294
2832.07
32.4855
2996.57
10.0642
3101.59
-4.3475
3121.93
-11.0922
3117.92
-15.1193
3029.2
-10.2698
3023.43
-10.5337
2851.15
3.4892
3044.18
10.758
2663.35
12.9678
3151.98
3891.79
-69.0255
-194.384
-68.8723
-233.75
-69.0414
-255.707
-69.409
-280.213
-70.0146
-303.083
-70.8063
-325.508
-71.7915
-347.243
-72.9504
-368.559
-74.2818
-389.465
-75.7771
-410.102
-77.4338
-430.518
-79.2476
-450.805
-81.2162
-471.021
-83.3371
-491.232
-85.6081
-511.493
-88.0269
-531.86
-90.5906
-552.382
-93.2953
-573.106
-96.1358
-594.073
-99.105
-615.318
-102.193
-636.869
-105.389
-658.742
-108.676
-680.936
-112.039
-703.43
-115.458
-726.179
-118.917
-749.111
-122.401
-772.127
-125.899
-795.109
-129.409
-817.928
-132.934
-840.46
-136.488
-862.6
-140.093
-884.282
-143.772
-905.504
-147.55
-926.346
-151.437
-946.971
-155.427
-967.58
-159.501
-988.33
-163.653
-1009.24
-167.919
-1030.15
-172.401
-1050.9
-177.26
-1071.52
-182.637
-1092.66
-188.516
-1115.82
-194.684
-1142.64
-200.853
-1173.87
-206.715
-1209.68
-212.129
-1249.49
-217.452
-1291.74
-223.966
-1333.85
-234.068
-1372.18
-250.63
-1403.29
-275.408
-1425.93
-307.336
-1442.58
-342.094
-1458.57
-373.355
-1479.14
-394.708
-1506.42
-400.953
-1537.15
-388.399
-1561.82
-354.558
-1563.41
-298.977
-1521.53
-220.774
-1403.57
-85.6237
-1103.98
110.992
-107.873
207.942
1001.06
229.279
1700.1
192.671
2274.55
130.393
2663.43
73.3786
2889.09
31.5434
3038.41
4.8118
3128.32
-11.9622
3138.71
-19.8685
3125.82
-23.9771
3033.31
-18.529
3017.98
-18.0306
2850.65
-2.27213
3028.43
5.44348
2655.63
7.47007
3149.95
3851.21
-70.9536
-194.82
-70.8312
-233.872
-71.0241
-255.514
-71.4204
-279.817
-72.0563
-302.447
-72.8832
-324.681
-73.9073
-346.219
-75.1094
-367.357
-76.4881
-388.087
-78.0349
-408.555
-79.7471
-428.806
-81.6205
-448.932
-83.6526
-468.988
-85.841
-489.043
-88.1836
-509.15
-90.678
-529.366
-93.3212
-549.739
-96.1094
-570.318
-99.0371
-591.145
-102.097
-612.258
-105.279
-633.687
-108.571
-655.451
-111.956
-677.551
-115.416
-699.969
-118.933
-722.662
-122.487
-745.557
-126.063
-768.552
-129.649
-791.523
-133.242
-814.335
-136.848
-836.854
-140.481
-858.967
-144.165
-880.598
-147.928
-901.74
-151.798
-922.477
-155.785
-942.984
-159.882
-963.483
-164.066
-984.146
-168.325
-1004.98
-172.696
-1025.78
-177.293
-1046.3
-182.303
-1066.51
-187.894
-1087.07
-194.049
-1109.66
-200.521
-1136.16
-206.995
-1167.4
-213.204
-1203.47
-219.287
-1243.41
-226.306
-1284.72
-236.666
-1323.49
-253.783
-1355.07
-280.498
-1376.57
-316.87
-1389.56
-359.019
-1400.43
-400.167
-1417.42
-433.038
-1446.27
-451.75
-1487.7
-452.323
-1536.58
-432.231
-1581.92
-389.812
-1605.83
-325.368
-1585.97
-240.442
-1488.5
-116.465
-1227.96
87.8589
-312.197
219.504
869.412
249.828
1669.78
214.97
2309.41
148.293
2730.11
82.1552
2955.22
31.5615
3089
-0.377825
3160.26
-19.849
3158.18
-29.1063
3135.08
-33.356
3037.56
-27.3659
3011.99
-25.9865
2849.27
-8.29526
3010.73
-0.174522
2647.51
4.83287
3144.94
3811.08
-72.8875
-195.225
-72.7983
-233.961
-73.0181
-255.294
-73.4457
-279.389
-74.1147
-301.778
-74.9792
-323.817
-76.0445
-345.154
-77.2923
-366.109
-78.7206
-386.658
-80.3211
-406.954
-82.091
-427.036
-84.0261
-446.997
-86.124
-466.891
-88.3822
-486.785
-90.7987
-506.734
-93.3711
-526.793
-96.0964
-547.014
-98.9708
-567.443
-101.989
-588.127
-105.143
-609.105
-108.422
-630.408
-111.813
-652.059
-115.3
-674.064
-118.862
-696.407
-122.48
-719.044
-126.133
-741.904
-129.804
-764.881
-133.482
-787.845
-137.163
-810.654
-140.852
-833.165
-144.567
-855.252
-148.333
-876.831
-152.184
-897.89
-156.149
-918.513
-160.241
-938.891
-164.451
-959.273
-168.75
-979.847
-173.121
-1000.61
-177.599
-1021.3
-182.312
-1041.59
-187.474
-1061.34
-193.287
-1081.25
-199.725
-1103.22
-206.504
-1129.39
-213.31
-1160.6
-220.061
-1196.72
-227.516
-1235.95
-237.899
-1274.34
-254.935
-1306.46
-282.472
-1327.53
-321.893
-1337.15
-370.15
-1341.3
-420.238
-1350.34
-463.91
-1373.75
-494.349
-1415.83
-507.147
-1474.91
-499.815
-1543.91
-470.88
-1610.85
-419.298
-1657.41
-345.667
-1659.6
-252.854
-1581.31
-131.173
-1349.64
80.718
-524.088
235.022
715.109
270.14
1634.66
237.07
2342.48
167.757
2799.42
93.298
3029.68