/*--------------------------------*- C++ -*----------------------------------*\
| =========                 |                                                 |
| \\      /  F ield         | OpenFOAM: The Open Source CFD Toolbox           |
|  \\    /   O peration     | Version:  4.1                                   |
|   \\  /    A nd           | Web:      www.OpenFOAM.org                      |
|    \\/     M anipulation  |                                                 |
\*---------------------------------------------------------------------------*/
FoamFile
{
    version     2.0;
    format      ascii;
    class       volVectorField;
    location    "4";
    object      U;
}
// * * * * * * * * * * * * * * * * * * * * * * * * * * * * * * * * * * * * * //

dimensions      [0 1 -1 0 0 0 0];

internalField   nonuniform List<vector> 
6785
(
(1.2074e-14 -2.32359 16.4939)
(1.06479e-14 -7.90447 12.9989)
(-3.0386e-15 -5.12367 13.7876)
(4.11572e-15 -5.05348 13.3017)
(8.56975e-16 -4.26264 13.1657)
(-2.40345e-16 -3.83315 12.8819)
(2.56299e-15 -3.40039 12.5873)
(7.64592e-16 -3.07224 12.2269)
(-6.45433e-16 -2.81667 11.8254)
(1.36625e-15 -2.6773 11.4069)
(1.84698e-16 -2.64207 11.0429)
(-1.40896e-16 -2.71729 10.7769)
(4.80982e-16 -3.23166 10.3183)
(-1.14639e-16 -3.38818 9.40866)
(4.82743e-18 -0.101526 7.4404)
(1.75176e-14 -10.1996 26.9052)
(1.27727e-14 -16.4119 23.177)
(-3.05682e-15 -11.2293 23.5591)
(3.877e-15 -12.1476 21.672)
(5.51009e-16 -10.4389 20.806)
(3.81566e-16 -9.90178 19.5435)
(1.61766e-15 -8.99597 18.4538)
(1.17676e-16 -8.33521 17.3443)
(-6.7646e-16 -7.67572 16.2953)
(-3.37152e-16 -7.06945 15.2183)
(-6.04225e-16 -6.42206 14.0302)
(-6.91688e-16 -5.58095 12.4926)
(-5.33103e-16 -4.18517 9.71483)
(2.87946e-16 -1.64569 4.43457)
(3.8936e-16 0.975664 -1.66546)
(1.95058e-14 -12.4411 27.6827)
(1.21397e-14 -16.7978 24.4503)
(-2.14894e-15 -11.7299 24.4134)
(4.33565e-15 -13.0774 21.6809)
(3.33259e-16 -10.8042 20.6586)
(7.55352e-16 -10.4933 18.7594)
(1.50402e-15 -9.34393 17.3526)
(-1.87761e-16 -8.70162 15.8507)
(-7.63382e-16 -8.02575 14.5886)
(-1.01037e-15 -7.583 13.4087)
(-1.83228e-15 -7.13889 12.1745)
(-1.90564e-15 -6.39923 10.5262)
(-6.82433e-16 -5.12121 7.86873)
(9.04346e-17 -2.26804 3.45088)
(1.02218e-15 0.34405 -3.31986)
(1.99566e-14 -13.1328 26.9428)
(1.03914e-14 -16.244 24.3086)
(-1.32594e-15 -11.9591 23.8886)
(3.81801e-15 -13.1568 20.9691)
(-3.88417e-16 -10.6817 19.9884)
(8.60309e-16 -10.479 17.9072)
(4.53461e-16 -9.07748 16.5262)
(-7.49418e-16 -8.21374 14.6994)
(8.58206e-16 -6.92699 12.6651)
(1.59921e-15 -5.95491 10.5282)
(6.28346e-16 -5.6044 9.22606)
(1.11065e-15 -5.60214 8.48485)
(1.24677e-15 -5.33522 7.46619)
(3.33653e-16 -4.32812 5.80839)
(1.20284e-15 -2.99241 3.70697)
(1.98804e-14 -14.0137 27.7229)
(8.61351e-15 -16.1679 25.2916)
(-4.03159e-16 -12.5941 24.7948)
(3.17227e-15 -13.301 22.2137)
(-1.68849e-17 -10.9556 21.2945)
(1.11586e-15 -10.7018 19.4681)
(1.62975e-16 -9.21489 18.2955)
(7.51792e-16 -8.06522 16.2)
(6.01822e-15 -5.77569 12.9167)
(1.41984e-14 -3.21232 8.56358)
(1.78326e-14 -1.3177 5.27604)
(1.23055e-14 -1.02 4.19722)
(4.15461e-15 -2.13 5.1134)
(3.21719e-16 -3.97841 7.21335)
(5.53997e-16 -3.784 7.69713)
(1.90253e-14 -14.6727 28.4571)
(9.00961e-15 -17.3494 27.2962)
(-8.52933e-16 -13.5506 26.1797)
(3.57013e-15 -14.3836 23.7354)
(2.48859e-16 -12.0527 22.9072)
(4.00295e-16 -12.1042 21.0787)
(8.83953e-16 -10.6537 20.0851)
(7.19688e-16 -9.92562 18.1611)
(3.98858e-15 -7.82129 15.2467)
(1.45658e-14 -5.11574 10.7415)
(1.8574e-14 -2.05245 6.1524)
(1.01812e-14 0.533361 1.97972)
(-2.5472e-16 2.48069 -1.21909)
(-4.52005e-15 2.57785 -1.87857)
(-2.27983e-15 0.728885 -0.196168)
(1.62791e-14 -14.0928 26.5141)
(1.12885e-14 -18.3986 28.9613)
(-1.42054e-15 -14.5231 26.6635)
(3.1313e-15 -14.9518 23.9382)
(1.19122e-15 -13.0107 22.8806)
(-1.20518e-15 -12.9541 20.9905)
(7.91741e-16 -11.813 19.773)
(8.25938e-16 -11.2763 18.0855)
(-4.00398e-16 -10.0949 16.1147)
(4.63857e-15 -8.52142 13.3478)
(8.37537e-15 -6.38015 10.0661)
(5.88161e-15 -3.82209 6.36239)
(5.6854e-15 -0.794815 2.00713)
(1.23863e-14 3.19643 -2.98643)
(9.51269e-16 2.18338 -5.94001)
(1.56047e-14 -12.6401 23.0403)
(1.39365e-14 -18.1556 29.003)
(5.76241e-16 -14.7869 26.2099)
(2.27022e-15 -14.4176 23.0122)
(2.34182e-15 -12.7852 21.6046)
(1.13619e-17 -12.4018 19.6913)
(4.77851e-16 -11.3936 18.2194)
(1.34479e-15 -10.7218 16.5405)
(5.52237e-16 -9.86714 14.8704)
(7.17824e-16 -8.89117 13.0073)
(1.63314e-15 -7.68774 10.8794)
(2.03605e-15 -6.08188 8.41618)
(2.89246e-15 -4.18781 5.37378)
(3.63364e-15 -1.34522 1.76379)
(4.07534e-15 0.886057 -3.41166)
(1.47837e-14 -11.3272 20.3355)
(1.56464e-14 -17.4701 28.4871)
(2.02757e-15 -14.5657 25.6714)
(1.8252e-15 -13.6792 22.1968)
(3.00638e-15 -12.1129 20.6546)
(8.10008e-16 -11.5731 18.7704)
(3.07663e-16 -10.5203 17.2695)
(1.54743e-15 -9.75268 15.6132)
(1.27961e-15 -8.88671 14.0637)
(2.13748e-16 -8.03824 12.5159)
(-3.97244e-17 -7.14095 10.9024)
(3.04977e-16 -6.00276 9.07982)
(1.20858e-15 -4.62257 6.75453)
(1.8277e-15 -2.46751 3.54006)
(2.07347e-16 -0.04739 -1.38111)
(1.38643e-14 -10.5034 18.8586)
(1.62274e-14 -17.0578 28.1961)
(2.42021e-15 -14.3893 25.4626)
(1.53987e-15 -13.2541 21.8528)
(3.17841e-15 -11.6678 20.3269)
(6.68443e-16 -11.1292 18.4641)
(-7.0855e-17 -9.98319 17.0247)
(1.68431e-15 -9.23191 15.3724)
(1.37815e-15 -8.30043 13.9016)
(-1.37405e-16 -7.50108 12.4471)
(1.31893e-17 -6.68355 11.0334)
(6.62411e-16 -5.75253 9.48789)
(8.19993e-16 -4.60344 7.52921)
(1.80123e-15 -2.80201 4.57124)
(-1.02354e-15 -0.167187 -0.183534)
(1.2375e-14 -9.94233 17.891)
(1.59998e-14 -16.9155 28.0922)
(2.51854e-15 -14.5103 25.6382)
(1.41303e-15 -13.1743 21.8942)
(3.32199e-15 -11.5638 20.3265)
(3.33364e-16 -11.0466 18.4817)
(-1.41633e-16 -9.85227 17.0863)
(2.04344e-15 -9.13241 15.4183)
(1.45867e-15 -8.14172 13.9714)
(5.80149e-16 -7.35365 12.5004)
(1.44247e-15 -6.52684 11.114)
(1.99629e-15 -5.65932 9.65031)
(2.40043e-15 -4.63888 7.84575)
(1.90424e-15 -2.94481 5.08272)
(-6.50866e-15 0.00625267 -0.0717087)
(1.12371e-14 -9.33014 16.6898)
(1.58336e-14 -16.6851 27.7455)
(3.02722e-15 -14.8219 25.8908)
(8.03112e-16 -13.2262 22.0137)
(2.91325e-15 -11.5815 20.2099)
(6.63094e-16 -11.0202 18.4211)
(7.25699e-16 -9.91292 17.06)
(3.00156e-15 -9.20394 15.4462)
(3.00134e-15 -8.24373 14.0044)
(2.82943e-15 -7.43334 12.5178)
(3.67506e-15 -6.58917 11.0834)
(4.25519e-15 -5.68862 9.61997)
(5.51195e-15 -4.74321 7.86642)
(4.55452e-15 -3.12495 5.43319)
(6.93986e-16 -0.145603 -0.300445)
(1.10232e-14 -8.7039 15.3585)
(1.64289e-14 -16.2556 27.0513)
(6.30952e-15 -15.2946 26.1914)
(2.49812e-15 -13.6755 22.5582)
(4.55839e-15 -12.0395 20.3053)
(4.07923e-15 -11.2703 18.4197)
(3.28891e-15 -10.2919 16.9686)
(4.97513e-15 -9.54716 15.4649)
(4.36791e-15 -8.69737 14.085)
(4.02311e-15 -7.89906 12.716)
(4.4142e-15 -7.10058 11.3614)
(3.58647e-15 -6.20862 10.0041)
(4.35079e-15 -5.31844 8.39745)
(5.52877e-15 -3.9374 6.49215)
(2.74459e-15 -1.49642 1.86329)
(1.16812e-14 -7.67508 12.9562)
(2.25292e-14 -15.2828 25.3407)
(1.0967e-14 -14.9477 25.1173)
(1.31412e-15 -13.1086 21.6244)
(2.0068e-15 -11.5033 19.3105)
(3.59114e-15 -10.7303 17.6842)
(4.00738e-15 -10.0006 16.468)
(5.17267e-15 -9.41372 15.2319)
(4.6937e-15 -8.77992 14.043)
(3.93895e-15 -8.11816 12.8572)
(2.64994e-15 -7.44224 11.6509)
(9.93756e-16 -6.61408 10.4273)
(2.12737e-15 -5.75025 8.94923)
(4.69527e-15 -4.41399 7.24192)
(4.20181e-15 -1.91049 2.63039)
(8.31336e-15 -6.20792 10.9505)
(2.07365e-14 -15.2757 24.1292)
(2.16586e-14 -17.7952 26.6732)
(1.97127e-14 -16.8219 24.1034)
(1.37292e-14 -14.7288 20.7198)
(1.01749e-14 -13.1352 17.9805)
(3.48778e-15 -11.991 15.9274)
(-3.60959e-15 -11.1111 14.4959)
(-7.41732e-15 -10.425 13.4475)
(-1.21562e-14 -9.8243 12.7032)
(-1.72365e-14 -9.23792 12.1156)
(-2.00698e-14 -8.60772 11.5829)
(-2.16989e-14 -7.80026 10.8462)
(-1.58627e-14 -6.8186 9.92303)
(-9.7363e-16 -3.97063 6.1188)
(4.78676e-17 2.1449 7.4789)
(2.17308e-15 -0.690228 1.38731)
(1.92963e-15 -0.064729 -1.13214)
(1.62318e-15 -0.0916616 -0.8504)
(1.32737e-15 0.0785227 -0.927743)
(1.47031e-15 0.251023 -1.31598)
(1.1964e-15 0.188601 -0.930666)
(1.3595e-15 0.287115 -0.873921)
(1.62465e-15 0.311689 -0.703309)
(1.7844e-15 0.482465 -0.8388)
(1.28436e-15 0.446711 -0.45305)
(1.36092e-15 0.481009 -0.339838)
(1.71013e-15 0.687671 -0.423242)
(1.69023e-15 0.570192 -0.202094)
(2.15208e-15 0.645679 -0.157283)
(2.68549e-15 0.605551 -0.121716)
(3.84743e-15 0.794956 -0.160946)
(3.15618e-15 0.684724 -0.0707303)
(2.95176e-15 0.701951 -0.071975)
(3.42867e-15 0.920059 -0.0895036)
(2.29059e-15 0.727269 -0.025481)
(2.05755e-15 0.809375 -0.0227688)
(1.776e-15 0.749177 -0.0317444)
(1.99104e-15 0.977908 -0.0289874)
(1.2186e-15 0.768708 -0.014053)
(8.51715e-16 0.850059 -0.0322644)
(3.48884e-16 0.79572 -0.0494705)
(-2.81105e-16 0.990841 -0.0384998)
(-7.70834e-16 0.815098 -0.00184394)
(-9.58115e-16 0.835921 -0.00858699)
(-1.4142e-15 1.04997 0.0256664)
(-9.50058e-16 0.80802 0.0346013)
(-7.4268e-16 0.891312 0.0262915)
(-4.3699e-16 0.83296 0.00350963)
(-1.5887e-16 1.02004 0.0182797)
(2.50497e-16 0.829668 -0.00593471)
(3.78885e-16 0.856812 -0.0401174)
(6.37905e-16 1.05999 -0.041535)
(2.84942e-16 0.815212 -0.0431186)
(5.17322e-17 0.905113 -0.0651348)
(-2.03639e-16 0.850681 -0.0931887)
(-4.32273e-16 1.06056 -0.117025)
(-3.98723e-16 0.829151 -0.103737)
(-2.92912e-16 0.918838 -0.115253)
(-9.39381e-17 0.873606 -0.122025)
(2.24543e-16 1.04873 -0.123701)
(4.0652e-16 0.860355 -0.0898597)
(5.00328e-16 0.90153 -0.102316)
(8.5591e-16 1.08052 -0.113357)
(6.00523e-16 0.852673 -0.0960524)
(5.10535e-16 0.943255 -0.115112)
(3.60114e-16 0.898087 -0.139019)
(4.16496e-16 1.08789 -0.180702)
(1.85044e-16 0.881714 -0.122529)
(2.36178e-16 0.968489 -0.108034)
(3.9868e-16 0.925938 -0.104971)
(9.72248e-16 1.093 -0.0733501)
(1.01224e-15 0.923744 -0.0211437)
(1.09811e-15 0.970031 -0.034823)
(1.36448e-15 1.05783 0.0321885)
(9.49697e-16 0.816376 -0.0811233)
(6.67906e-16 0.881302 -0.149767)
(2.69059e-16 0.880054 -0.194995)
(-1.44508e-16 0.852374 -0.364896)
(1.10879e-16 0.553583 -0.608872)
(-2.67114e-16 0.637418 -0.536248)
(1.14917e-15 0.624098 -1.48406)
(2.59747e-15 0.0257732 -1.72292)
(2.94703e-15 0.181968 -1.48595)
(3.7777e-15 0.307038 -1.05076)
(-4.8437e-15 0.192304 1.88117)
(-6.46731e-15 -0.763599 4.24824)
(-4.32096e-15 -0.925434 4.08349)
(-3.68276e-15 -1.11266 4.30922)
(-5.8931e-15 -1.94004 7.41155)
(-6.58376e-15 -2.79337 7.11918)
(-8.7105e-15 -2.9735 7.49516)
(-1.594e-14 -4.43874 11.5283)
(-1.45785e-14 -4.96022 9.70482)
(-1.70083e-14 -5.36131 10.5948)
(-2.03121e-14 -6.00321 12.872)
(-2.09854e-14 -5.86675 12.6225)
(-2.15236e-14 -5.98694 12.8697)
(-2.27624e-14 -6.69406 14.5409)
(-1.95774e-14 -6.47171 13.5862)
(-1.99891e-14 -6.58546 13.9838)
(-1.8527e-14 -6.59011 13.995)
(-1.64508e-14 -6.62353 14.0206)
(-1.44203e-14 -6.66858 14.1156)
(-1.24957e-14 -6.71024 14.2481)
(-1.1228e-14 -6.73165 14.4318)
(-1.05579e-14 -6.8049 14.6243)
(-6.8971e-15 -6.90169 15.6861)
(-1.23307e-14 -7.16685 15.0417)
(-1.50926e-14 -7.20201 15.0186)
(-1.72146e-14 -7.22525 14.9622)
(-1.81169e-14 -7.29076 15.035)
(-1.82888e-14 -7.29808 15.022)
(-1.75645e-14 -7.34695 15.08)
(-1.61936e-14 -7.34725 15.1624)
(-1.47001e-14 -7.42274 15.268)
(-1.01941e-14 -7.52797 16.3186)
(-1.19578e-14 -7.75734 15.6326)
(-1.05185e-14 -7.78969 15.6226)
(-9.47591e-15 -7.83358 15.5518)
(-8.04471e-15 -7.86268 15.5148)
(-6.39619e-15 -7.89049 15.5231)
(-5.04356e-15 -7.93511 15.5826)
(-4.87365e-15 -7.95414 15.6205)
(-5.10617e-15 -7.9514 15.6819)
(-5.94511e-15 -8.04424 15.7405)
(-8.92068e-15 -8.01298 16.4197)
(-1.16895e-14 -8.2959 15.6943)
(-1.36747e-14 -8.32149 15.6593)
(-1.44327e-14 -8.34389 15.6372)
(-1.43582e-14 -8.36802 15.6777)
(-1.30111e-14 -8.38555 15.7717)
(-1.02663e-14 -8.42339 15.9791)
(-7.38717e-15 -8.3945 16.1089)
(-4.83001e-15 -8.50337 16.1723)
(-2.55603e-15 -8.20449 16.3457)
(-2.05041e-15 -8.56287 15.7436)
(6.11165e-16 -8.55168 15.9334)
(1.43743e-15 -8.56841 16.1757)
(1.03036e-15 -8.54257 16.3398)
(3.57685e-16 -8.56702 16.5791)
(-6.34281e-16 -8.58189 16.8299)
(-1.49861e-15 -8.53063 17.1227)
(-1.50959e-15 -8.73004 17.6048)
(-8.81698e-15 -7.683 16.9586)
(-5.40505e-15 -8.34616 16.9361)
(-6.05886e-15 -8.27215 17.3514)
(-6.66048e-15 -8.23814 17.7945)
(-6.92616e-15 -8.23676 18.5362)
(-7.21447e-15 -8.2121 19.0349)
(-7.26436e-15 -8.18244 19.4959)
(-7.97478e-15 -8.16968 19.9959)
(-1.02392e-14 -8.33414 20.397)
(-2.32841e-14 -6.43931 19.4758)
(-2.4851e-14 -7.32738 19.8864)
(-3.73428e-14 -7.12596 20.043)
(-4.57364e-14 -7.16364 19.9564)
(-4.93645e-14 -7.10488 19.6807)
(-4.53764e-14 -7.04085 19.1756)
(-3.3696e-14 -7.02913 18.6538)
(-1.82511e-14 -6.82752 17.3178)
(-1.60066e-15 -6.67036 15.9003)
(1.14986e-14 -6.52714 14.2345)
(2.34753e-14 -3.30147 7.22377)
(1.91305e-14 -4.98293 9.43932)
(1.55324e-14 -4.49879 8.00826)
(8.50709e-15 -4.58723 7.77186)
(4.42863e-15 -4.26505 7.15619)
(1.4883e-15 -4.19155 6.33515)
(-4.22947e-16 -4.00191 4.60287)
(-1.28281e-15 -3.66766 2.91067)
(-2.33278e-17 -3.664 2.90413)
(4.52891e-16 -2.93961 0.340879)
(1.94991e-15 -3.24586 1.72827)
(2.75478e-15 -3.16463 1.14145)
(3.23446e-16 -2.18594 -1.0678)
(1.37285e-15 -3.96106 0.219059)
(1.51929e-15 -3.36598 -0.196462)
(1.0531e-15 -3.09602 -0.0569684)
(1.39676e-15 -4.14655 -0.0251535)
(8.22075e-16 -2.97068 -0.0101296)
(1.05671e-15 -3.89218 0.0559898)
(5.55761e-16 -3.85433 -0.0985714)
(2.82328e-16 -3.17102 -0.0809207)
(3.77546e-16 -3.893 -0.0931846)
(2.97534e-16 -3.78343 -0.196005)
(2.77746e-16 -3.23444 -0.144609)
(4.14535e-16 -4.35576 -0.17143)
(3.63624e-16 -3.05114 -0.12794)
(6.20682e-16 -3.97892 -0.1272)
(5.98972e-16 -3.63649 -0.209932)
(5.46311e-16 -3.16353 -0.162445)
(7.16033e-16 -4.21126 -0.227981)
(3.96821e-16 -2.92301 -0.180125)
(5.48189e-16 -3.81237 -0.227991)
(3.68574e-16 -3.53455 -0.295233)
(2.97746e-16 -2.92117 -0.219217)
(4.63542e-16 -3.52431 -0.321293)
(4.73035e-16 -3.28398 -0.365884)
(3.32802e-16 -2.7863 -0.290434)
(5.59167e-16 -3.68879 -0.410805)
(4.53739e-16 -2.53008 -0.293419)
(6.70127e-16 -3.27552 -0.40386)
(5.23877e-16 -2.87333 -0.409227)
(4.76964e-16 -2.47658 -0.317967)
(6.49924e-16 -3.2483 -0.428572)
(4.55192e-16 -2.20807 -0.286197)
(5.22255e-16 -2.86878 -0.368135)
(2.05214e-16 -2.56517 -0.359995)
(3.91388e-17 -2.1015 -0.288043)
(1.08662e-17 -2.51549 -0.443744)
(-3.75724e-17 -2.26635 -0.453732)
(-6.18121e-17 -1.88836 -0.354958)
(1.21284e-16 -2.4812 -0.472643)
(1.93146e-16 -1.64307 -0.327019)
(3.0187e-16 -2.13089 -0.46989)
(2.81992e-16 -1.78526 -0.480267)
(3.63156e-16 -1.4973 -0.410313)
(4.53993e-16 -1.95438 -0.558712)
(2.53018e-16 -1.24271 -0.390778)
(1.93984e-16 -1.62971 -0.531076)
(-7.00776e-17 -1.3779 -0.5417)
(-2.01489e-16 -1.05196 -0.476499)
(-4.16484e-16 -1.2614 -0.644196)
(-5.9778e-16 -1.05595 -0.575502)
(-4.69118e-16 -0.796712 -0.462954)
(-1.80231e-16 -1.11619 -0.584214)
(3.83836e-16 -0.549608 -0.485227)
(6.55888e-16 -0.829424 -0.752723)
(5.91313e-16 -0.547477 -0.729407)
(4.07091e-16 -0.307514 -0.558884)
(6.94211e-16 -0.733076 -0.672509)
(4.35044e-16 -0.0204827 -0.502714)
(5.52836e-16 -0.415296 -0.563362)
(6.74032e-16 -0.304974 -0.699656)
(5.04648e-16 0.0785662 -0.571133)
(8.2597e-16 -0.0753332 -0.618193)
(4.05299e-16 -0.0603024 -0.714825)
(1.75241e-16 0.221864 -0.464432)
(-1.49164e-16 0.0993968 -0.60165)
(-2.72085e-16 0.325905 -0.404351)
(-4.10315e-16 0.338023 -0.491992)
(-2.34007e-16 0.425389 -0.578357)
(-1.51596e-17 0.57411 -0.320158)
(2.30318e-16 0.622305 -0.465825)
(3.00876e-16 0.723159 -0.272569)
(4.90657e-16 0.791234 -0.354495)
(2.62511e-16 0.932635 -0.434454)
(1.0418e-17 1.0109 -0.218226)
(-2.28382e-16 1.07579 -0.28878)
(-5.59745e-16 1.32709 -0.361167)
(-4.94709e-16 1.24183 -0.168375)
(-6.68906e-16 1.58234 -0.300648)
(-4.51162e-16 1.41051 -0.165628)
(-1.79462e-16 1.67072 -0.30328)
(1.02503e-82 0.0225252 0.0220852)
(4.24986e-82 0.0323381 0.0212319)
(-8.97746e-82 0.0394731 0.0212803)
(-2.29827e-80 0.0460331 0.0211274)
(-7.7873e-80 0.0526135 0.0212416)
(1.0556e-78 0.0588947 0.0213578)
(1.33877e-77 0.0651801 0.0216144)
(2.24165e-77 0.0713848 0.0219302)
(-8.40488e-76 0.0776232 0.0223502)
(-8.14497e-75 0.0838876 0.022848)
(1.63626e-75 0.0902326 0.0234384)
(6.25317e-73 0.0966724 0.0241126)
(4.48134e-72 0.103241 0.0248759)
(-1.44272e-71 0.109959 0.0257254)
(-4.40595e-70 0.116852 0.0266635)
(-2.05019e-69 0.123943 0.0276898)
(1.87969e-68 0.131254 0.028806)
(2.87691e-67 0.138807 0.030013)
(5.74868e-67 0.146625 0.0313128)
(-1.81394e-65 0.154729 0.0327072)
(-1.69532e-64 0.163141 0.0341988)
(2.62387e-64 0.171884 0.0357901)
(1.50927e-62 0.18098 0.0374844)
(7.86422e-62 0.190452 0.0392851)
(-6.87883e-61 0.200323 0.0411961)
(-1.05154e-59 0.210616 0.0432217)
(-9.88611e-60 0.221356 0.0453666)
(7.60411e-58 0.232569 0.0476357)
(5.09156e-57 0.244278 0.0500347)
(-2.96047e-56 0.256512 0.0525693)
(-5.37122e-55 0.269297 0.055246)
(-6.04787e-55 0.282662 0.0580716)
(3.54058e-53 0.296635 0.0610532)
(2.13548e-52 0.311247 0.0641985)
(-1.41194e-51 0.326529 0.0675158)
(-2.06186e-50 0.342513 0.0710136)
(-1.50047e-52 0.359233 0.0747009)
(1.29314e-48 0.376724 0.0785872)
(5.43956e-48 0.395021 0.0826825)
(-5.39846e-47 0.414161 0.0869969)
(-5.25905e-46 0.434182 0.0915407)
(9.24852e-46 0.455122 0.0963245)
(3.14883e-44 0.47702 0.101359)
(6.99164e-44 0.499914 0.106653)
(-1.29682e-42 0.523843 0.112217)
(-7.93732e-42 0.548842 0.118057)
(3.10817e-41 0.574945 0.12418)
(4.513e-40 0.602179 0.130587)
(2.29816e-40 0.630562 0.137275)
(-1.70884e-38 0.660102 0.144234)
(-6.41902e-38 0.690788 0.151444)
(4.04941e-37 0.722588 0.158872)
(3.44549e-36 0.755433 0.166467)
(-2.23842e-36 0.789216 0.174154)
(-1.10476e-34 0.823772 0.181827)
(-2.70512e-34 0.858866 0.18934)
(2.11458e-33 0.894177 0.196495)
(1.29112e-32 0.929277 0.203031)
(-1.09217e-32 0.963622 0.208608)
(-3.0618e-31 0.996514 0.212795)
(-6.57008e-31 1.02712 0.215036)
(3.68201e-30 1.05434 0.214661)
(2.10514e-29 1.07696 0.210784)
(2.01728e-30 1.09321 0.202424)
(-2.80327e-28 1.10117 0.188159)
(-7.5239e-28 1.09744 0.166712)
(1.13628e-27 1.07886 0.135829)
(9.82682e-27 1.03796 0.0945313)
(1.26477e-26 0.969555 0.0396505)
(-5.0311e-26 0.856668 -0.0260554)
(-7.1325e-25 0.69348 -0.105579)
(2.44992e-23 0.412797 -0.174668)
(-2.75895e-22 -0.0827595 -0.297558)
(9.74032e-22 -0.562543 -0.239867)
(-3.64013e-21 -0.904252 -0.314096)
(2.57758e-20 -1.42714 -0.156282)
(-1.85965e-19 -1.51007 -0.446312)
(3.09247e-18 -2.52294 0.0418339)
(-2.51611e-17 -2.75688 -1.35074)
(3.89248e-82 0.0226972 0.0260404)
(2.55333e-81 0.0324913 0.0248649)
(2.72324e-81 0.039504 0.0248841)
(-7.9165e-80 0.0460475 0.0246645)
(-4.16835e-79 0.0525821 0.0247831)
(3.88193e-78 0.0588378 0.0249055)
(6.26929e-77 0.0650897 0.0251983)
(1.69834e-76 0.0712668 0.0255607)
(-3.71326e-75 0.0774749 0.0260459)
(-4.28319e-74 0.0837111 0.0266211)
(-4.39603e-74 0.0900269 0.0273039)
(2.9582e-72 0.0964383 0.0280832)
(2.53931e-71 0.102978 0.028965)
(-3.82754e-71 0.109667 0.0299459)
(-2.18664e-69 0.116532 0.0310282)
(-1.26005e-68 0.123593 0.0322116)
(7.55653e-68 0.130875 0.0334977)
(1.46322e-66 0.138398 0.0348875)
(4.36223e-66 0.146185 0.0363833)
(-7.98563e-65 0.154258 0.0379869)
(-8.62682e-64 0.162638 0.0397011)
(2.70733e-64 0.171348 0.0415288)
(6.67116e-62 0.18041 0.0434735)
(4.10008e-61 0.189847 0.045539)
(-2.4332e-60 0.199681 0.0477297)
(-4.59308e-59 0.209937 0.0500501)
(-9.5419e-59 0.220637 0.0525054)
(2.85522e-57 0.231808 0.0551011)
(2.33548e-56 0.243475 0.0578434)
(-7.81079e-56 0.255664 0.0607385)
(-2.09385e-54 0.268402 0.0637935)
(-5.42622e-54 0.281717 0.0670157)
(1.17123e-52 0.295638 0.070413)
(9.42054e-52 0.310196 0.0739937)
(-3.23792e-51 0.325421 0.0777665)
(-7.5671e-50 0.341345 0.0817408)
(-1.38457e-49 0.358003 0.0859262)
(4.00368e-48 0.375428 0.0903328)
(2.53414e-47 0.393656 0.0949711)
(-1.23737e-46 0.412723 0.0998516)
(-1.91185e-45 0.432668 0.104985)
(-9.83433e-46 0.453529 0.110383)
(9.51905e-44 0.475345 0.116054)
(4.12447e-43 0.498154 0.12201)
(-3.03005e-42 0.521996 0.128257)
(-3.01376e-41 0.546906 0.134802)
(2.57308e-41 0.572918 0.141649)
(1.36774e-39 0.600061 0.148796)
(3.70297e-39 0.628357 0.156234)
(-4.01795e-38 0.657814 0.163947)
(-2.71027e-37 0.688427 0.171905)
(5.05133e-37 0.720167 0.180061)
(1.06084e-35 0.752975 0.188348)
(1.84151e-35 0.78675 0.196668)
(-2.53598e-34 0.82134 0.204884)
(-1.309e-33 0.856524 0.212814)
(2.48164e-33 0.892 0.220214)
(3.93611e-32 0.927365 0.226772)
(6.52892e-32 0.9621 0.232082)
(-6.21498e-31 0.995543 0.235645)
(-3.15225e-30 1.0269 0.23682)
(1.41842e-30 1.05513 0.234855)
(5.53346e-29 1.07905 0.228744)
(1.4743e-28 1.09699 0.217401)
(-2.85547e-28 1.10708 0.199202)
(-2.63919e-27 1.10606 0.172733)
(-5.21072e-27 1.09072 0.135369)
(8.2571e-27 1.05374 0.0860742)
(7.158e-26 0.98936 0.0212189)
(1.91056e-25 0.880533 -0.055627)
(-8.59956e-25 0.718389 -0.148319)
(4.20308e-23 0.443418 -0.226681)
(-3.88465e-22 -0.0642943 -0.379117)
(9.48079e-22 -0.578481 -0.282226)
(-3.71282e-21 -0.935434 -0.339223)
(2.65034e-20 -1.43401 -0.169985)
(-1.94546e-19 -1.55516 -0.452271)
(3.20473e-18 -2.42797 0.0301677)
(-1.78604e-17 -2.75096 -1.33889)
(7.75458e-82 0.022801 0.0281785)
(1.13867e-80 0.032581 0.0268764)
(4.524e-80 0.0395216 0.0268803)
(-1.09534e-79 0.0460532 0.0266256)
(-1.48721e-78 0.0525614 0.0267478)
(9.47528e-78 0.0588021 0.0268752)
(2.17599e-76 0.065035 0.0271893)
(8.21293e-76 0.0711962 0.0275789)
(-1.26474e-74 0.0773873 0.0281015)
(-1.73104e-73 0.0836074 0.028721)
(-3.56753e-73 0.0899068 0.0294562)
(1.09034e-71 0.0963021 0.0302949)
(1.09927e-70 0.102826 0.0312434)
(-2.37511e-71 0.109499 0.032298)
(-8.46619e-69 0.116347 0.0334611)
(-5.78492e-68 0.123392 0.0347322)
(2.2765e-67 0.130657 0.036113)
(5.81038e-66 0.138163 0.0376047)
(2.23244e-65 0.145933 0.0392094)
(-2.75722e-64 0.153988 0.0409292)
(-3.42702e-63 0.16235 0.0427669)
(-2.19114e-63 0.171042 0.0447257)
(2.33715e-61 0.180084 0.0468091)
(1.6301e-60 0.189501 0.0490211)
(-6.70293e-60 0.199315 0.0513663)
(-1.57641e-58 0.209549 0.0538496)
(-4.62743e-58 0.220228 0.0564763)
(8.46545e-57 0.231375 0.0592522)
(8.06782e-56 0.243018 0.0621836)
(-1.40381e-55 0.255182 0.0652773)
(-6.28512e-54 0.267893 0.0685405)
(-2.35042e-53 0.281181 0.0719809)
(2.9667e-52 0.295074 0.0756066)
(2.99793e-51 0.309601 0.0794264)
(-4.40889e-51 0.324795 0.0834493)
(-2.06855e-49 0.340687 0.0876849)
(-6.78012e-49 0.35731 0.0921433)
(9.17288e-48 0.374699 0.0968348)
(7.8669e-47 0.392889 0.10177)
(-1.76239e-46 0.411918 0.10696)
(-4.96544e-45 0.431822 0.112416)
(-1.09384e-44 0.452641 0.118148)
(2.06345e-43 0.474413 0.124167)
(1.33179e-42 0.497177 0.130482)
(-4.56222e-42 0.520973 0.137101)
(-7.67851e-41 0.545837 0.144029)
(-8.51613e-41 0.571803 0.151268)
(2.8583e-39 0.598902 0.158814)
(1.348e-38 0.627156 0.166656)
(-6.04553e-38 0.656576 0.174773)
(-6.90037e-37 0.687159 0.183131)
(-2.80681e-37 0.71888 0.191674)
(2.1301e-35 0.751684 0.200325)
(7.88831e-35 0.785476 0.208972)
(-3.54706e-34 0.82011 0.217463)
(-3.2808e-33 0.855376 0.225595)
(-1.52346e-33 0.890983 0.2331)
(7.30396e-32 0.926537 0.239637)
(2.65126e-31 0.961538 0.244767)
(-6.68156e-31 0.995339 0.247956)
(-7.16704e-30 1.02716 0.248524)
(-1.07436e-29 1.05601 0.245677)
(8.27232e-29 1.08071 0.238354)
(4.21577e-28 1.09965 0.225415)
(2.08796e-28 1.11099 0.20513)
(-4.57947e-27 1.11154 0.176007)
(-1.71899e-26 1.09807 0.135206)
(-9.49684e-27 1.06333 0.081618)
(1.30309e-25 1.00119 0.0113642)
(5.60263e-25 0.894474 -0.0717382)
(-6.23114e-25 0.73229 -0.172244)
(5.91121e-23 0.457881 -0.257143)
(-5.33063e-22 -0.0633101 -0.415393)
(9.27619e-22 -0.579744 -0.342717)
(-3.80674e-21 -0.937881 -0.379737)
(2.76963e-20 -1.41318 -0.193615)
(-2.06166e-19 -1.56482 -0.459985)
(3.23872e-18 -2.32478 0.0158142)
(-8.18637e-18 -2.70298 -1.2966)
(-2.34635e-81 0.0229673 0.0306029)
(3.9587e-80 0.0327214 0.0291913)
(3.16276e-79 0.0395572 0.0291866)
(7.63591e-79 0.0460682 0.028902)
(-2.49574e-78 0.0525361 0.0290323)
(1.61996e-77 0.0587529 0.0291699)
(6.30336e-76 0.0649569 0.0295116)
(3.10484e-75 0.0710939 0.0299357)
(-4.02508e-74 0.0772593 0.0305042)
(-6.48047e-73 0.0834552 0.0311777)
(-1.96005e-72 0.0897299 0.0319761)
(3.75993e-71 0.096101 0.0328861)
(4.46858e-70 0.1026 0.0339146)
(4.25144e-70 0.109249 0.0350572)
(-3.09093e-68 0.116073 0.0363166)
(-2.50255e-67 0.123093 0.0376921)
(5.55749e-67 0.130333 0.0391857)
(2.20229e-65 0.137814 0.0407985)
(1.05974e-64 0.145559 0.0425326)
(-8.84128e-64 0.153588 0.0443903)
(-1.31959e-62 0.161923 0.0463747)
(-2.13161e-62 0.170587 0.0484889)
(7.89093e-61 0.179601 0.0507369)
(6.33454e-60 0.188988 0.0531229)
(-1.60325e-59 0.198772 0.0556515)
(-5.29597e-58 0.208974 0.0583281)
(-2.01223e-57 0.21962 0.0611582)
(2.41716e-56 0.230733 0.064148)
(2.70542e-55 0.24234 0.0673041)
(-1.10201e-55 0.254467 0.0706336)
(-1.82618e-53 0.267139 0.0741441)
(-8.85685e-53 0.280386 0.0778437)
(7.04642e-52 0.294236 0.081741)
(9.01436e-51 0.308719 0.0858451)
(7.16932e-52 0.323866 0.0901654)
(-5.34335e-49 0.339709 0.094712)
(-2.50151e-48 0.356281 0.0994952)
(1.91108e-47 0.373617 0.104526)
(2.22026e-46 0.391751 0.109815)
(-7.50767e-47 0.410721 0.115374)
(-1.1876e-44 0.430565 0.121214)
(-4.48922e-44 0.45132 0.127346)
(3.98566e-43 0.473027 0.13378)
(3.67962e-42 0.495724 0.140525)
(-3.8516e-42 0.51945 0.147589)
(-1.74889e-40 0.544245 0.154976)
(-4.90078e-40 0.570142 0.162685)
(5.21208e-39 0.597173 0.170713)
(3.75426e-38 0.625362 0.179043)
(-5.73973e-38 0.654725 0.187651)
(-1.50738e-36 0.685261 0.196495)
(-3.29568e-36 0.716949 0.205514)
(3.60602e-35 0.74974 0.214616)
(2.18923e-34 0.78355 0.223677)
(-2.8172e-34 0.818243 0.232526)
(-6.69332e-33 0.85362 0.240937)
(-1.4853e-32 0.889405 0.248614)
(1.06936e-31 0.925225 0.255181)
(6.64651e-31 0.960601 0.260165)
(-3.0044e-32 0.994914 0.262988)
(-1.25242e-29 1.02741 0.262922)
(-3.91853e-29 1.05714 0.259126)
(7.62444e-29 1.08298 0.250473)
(8.1766e-28 1.10336 0.235762)
(1.55804e-27 1.11652 0.21314)
(-5.14495e-27 1.11936 0.181017)
(-3.38795e-26 1.10865 0.136307)
(-5.60898e-26 1.0772 0.0777784)
(1.35434e-25 1.01844 0.00123674)
(9.97078e-25 0.915054 -0.0894086)
(2.24005e-25 0.753738 -0.19928)
(8.41346e-23 0.481305 -0.293274)
(-7.74769e-22 -0.0382653 -0.465073)
(9.39935e-22 -0.585307 -0.41548)
(-3.67815e-21 -0.952003 -0.440059)
(2.78602e-20 -1.40663 -0.230046)
(-2.12009e-19 -1.58199 -0.474832)
(3.21553e-18 -2.24735 -0.00214991)
(-2.22033e-18 -2.6734 -1.26167)
(-4.06783e-80 0.0231239 0.0328759)
(7.32968e-80 0.0328508 0.0313978)
(1.66023e-78 0.0395914 0.0313893)
(8.96639e-78 0.0460806 0.0310829)
(1.73277e-77 0.0525101 0.0312239)
(2.21181e-77 0.0587034 0.0313746)
(1.24007e-75 0.0648798 0.031745)
(7.74484e-75 0.0709935 0.0322047)
(-1.249e-73 0.0771342 0.0328194)
(-2.22146e-72 0.0833069 0.0335466)
(-8.61735e-72 0.0895581 0.0344076)
(1.21337e-70 0.0959061 0.035388)
(1.69685e-69 0.102382 0.036495)
(3.43188e-69 0.109008 0.0377238)
(-1.05663e-67 0.115808 0.0390774)
(-1.01553e-66 0.122805 0.0405549)
(7.58341e-67 0.130022 0.0421585)
(7.89563e-65 0.137479 0.043889)
(4.6758e-64 0.145199 0.0457491)
(-2.54625e-63 0.153202 0.0477409)
(-4.87244e-62 0.161512 0.0498677)
(-1.28603e-61 0.17015 0.052133)
(2.52469e-60 0.179137 0.0545407)
(2.38765e-59 0.188496 0.0570953)
(-2.62603e-59 0.19825 0.0598018)
(-1.7256e-57 0.208423 0.0626657)
(-8.19823e-57 0.219037 0.065693)
(6.50079e-56 0.230119 0.0688899)
(8.82652e-55 0.241692 0.0722637)
(6.94921e-55 0.253783 0.0758215)
(-5.11955e-53 0.266419 0.0795715)
(-3.08669e-52 0.279627 0.0835221)
(1.52211e-51 0.293437 0.0876823)
(2.58597e-50 0.307878 0.0920614)
(3.65961e-50 0.322981 0.0966695)
(-1.30192e-48 0.338778 0.101517)
(-8.04883e-48 0.355302 0.106615)
(3.46341e-47 0.372587 0.111973)
(5.7981e-46 0.39067 0.117605)
(7.08155e-46 0.409585 0.123521)
(-2.61043e-44 0.429372 0.129732)
(-1.42209e-43 0.450069 0.136251)
(6.53535e-43 0.471715 0.143086)
(9.06262e-42 0.49435 0.150247)
(6.66017e-42 0.518014 0.157741)
(-3.57059e-40 0.542745 0.165572)
(-1.61477e-39 0.56858 0.173737)
(7.89652e-39 0.595551 0.18223)
(8.8871e-38 0.623685 0.191034)
(3.91947e-38 0.652999 0.200118)
(-2.86666e-36 0.683497 0.209435)
(-1.12888e-35 0.715163 0.218915)
(4.83618e-35 0.747955 0.228459)
(4.90451e-34 0.781797 0.237926)
(3.4041e-34 0.816561 0.247129)
(-1.14119e-32 0.852063 0.255819)
(-4.59245e-32 0.888042 0.263675)
(1.0591e-31 0.924142 0.27029)
(1.30777e-30 0.959904 0.275154)
(2.15351e-30 0.994732 0.277654)
(-1.679e-29 1.0279 0.277015)
(-8.96057e-29 1.0585 0.272355)
(-2.44758e-29 1.08543 0.26249)
(1.19526e-27 1.10721 0.246159)
(4.07059e-27 1.12212 0.221402)
(-1.40957e-27 1.12717 0.18653)
(-4.80086e-26 1.11912 0.138218)
(-1.35742e-25 1.09086 0.0750702)
(-1.78515e-27 1.0354 -0.00744069)
(1.19816e-24 0.935226 -0.105537)
(1.47652e-24 0.774802 -0.224769)
(1.17576e-22 0.50384 -0.329167)
(-1.16074e-21 -0.0161601 -0.514925)
(1.12948e-21 -0.591431 -0.492397)
(-3.56004e-21 -0.973772 -0.520328)
(2.76751e-20 -1.40937 -0.284623)
(-2.29148e-19 -1.60719 -0.498207)
(3.58075e-18 -2.17392 -0.0287475)
(-4.79389e-18 -2.64874 -1.20982)
(-3.18094e-79 0.0232977 0.0351045)
(-3.40088e-79 0.0329912 0.033586)
(6.98619e-78 0.0396314 0.0335784)
(6.05987e-77 0.0460946 0.0332582)
(2.33454e-76 0.0524814 0.0334127)
(2.43043e-76 0.0586478 0.0335801)
(-4.75616e-76 0.0647932 0.0339816)
(-4.38166e-75 0.0708804 0.0344794)
(-4.31532e-73 0.0769935 0.0351422)
(-6.91989e-72 0.0831401 0.0359254)
(-3.06925e-71 0.089365 0.0368509)
(3.75319e-70 0.0956872 0.0379036)
(6.01075e-69 0.102137 0.0390909)
(1.7923e-68 0.108737 0.0404079)
(-3.38223e-67 0.115512 0.0418575)
(-3.86019e-66 0.122483 0.0434389)
(-2.10744e-66 0.129672 0.0451541)
(2.66559e-64 0.137103 0.0470044)
(1.92112e-63 0.144795 0.0489923)
(-6.21725e-63 0.152771 0.0511201)
(-1.71367e-61 0.161053 0.0533913)
(-6.39447e-61 0.169661 0.0558096)
(7.53023e-60 0.178618 0.058379)
(8.67152e-59 0.187946 0.0611044)
(2.00762e-59 0.197668 0.063991)
(-5.40762e-57 0.207807 0.0670445)
(-3.17608e-56 0.218386 0.0702711)
(1.5889e-55 0.229431 0.0736777)
(2.8041e-54 0.240967 0.0772716)
(5.41241e-54 0.253019 0.0810605)
(-1.37951e-52 0.265614 0.0850527)
(-1.02413e-51 0.278779 0.0892571)
(2.77701e-51 0.292544 0.0936831)
(7.14731e-50 0.306939 0.0983405)
(1.89951e-49 0.321993 0.10324)
(-2.9891e-48 0.337739 0.108391)
(-2.3849e-47 0.35421 0.113807)
(4.81257e-47 0.371439 0.119498)
(1.42177e-45 0.389463 0.125476)
(3.74301e-45 0.408319 0.131752)
(-5.25964e-44 0.428043 0.13834)