/*--------------------------------*- C++ -*----------------------------------*\
| =========                 |                                                 |
| \\      /  F ield         | OpenFOAM: The Open Source CFD Toolbox           |
|  \\    /   O peration     | Version:  4.1                                   |
|   \\  /    A nd           | Web:      www.OpenFOAM.org                      |
|    \\/     M anipulation  |                                                 |
\*---------------------------------------------------------------------------*/
FoamFile
{
    version     2.0;
    format      ascii;
    class       volScalarField;
    location    "25";
    object      p;
}
// * * * * * * * * * * * * * * * * * * * * * * * * * * * * * * * * * * * * * //

dimensions      [0 2 -2 0 0 0 0];

internalField   nonuniform List<scalar> 
6785
(
581.189
504.92
456.753
404.118
357.239
312.462
270.619
231.086
193.783
158.525
124.419
91.7576
64.5447
35.271
-4.23991
-22.8172
-41.3124
-32.7152
-39.575
-40.0592
-42.7915
-44.137
-45.1277
-45.2017
-44.3067
-42.4461
-39.7435
-35.4228
-30.8322
-28.7252
-26.6456
-31.7995
-22.8628
-27.4664
-24.4147
-25.6372
-25.3955
-26.1357
-26.8247
-27.8722
-29.0734
-30.3481
-31.332
-31.0016
-29.2256
-1.56268
-4.04756
-0.104238
-5.11284
-3.17565
-5.76413
-6.14076
-7.30719
-8.01632
-8.63908
-8.95435
-8.95473
-8.08486
-6.35314
-3.10354
12.3539
11.8949
15.8233
13.7867
17.7739
17.6583
20.0676
21.4627
23.3119
25.0859
27.0428
29.1851
31.5831
33.6957
35.8184
31.0482
31.4806
34.279
33.2464
36.3576
36.1759
38.1969
38.9199
40.034
40.6532
41.0317
41.0397
40.8418
41.0051
41.2334
42.6487
40.9908
42.6971
40.4714
42.0195
40.32
40.7281
39.4593
38.6404
36.9652
35.1051
33.1796
31.9011
31.2252
29.0898
17.693
13.32
13.3011
9.62223
9.13488
6.11669
5.00222
2.726
1.59404
0.297204
-0.4489
-0.944883
-1.30969
-2.50531
-4.95295
-17.9643
-22.1162
-22.1644
-25.1759
-25.7321
-28.3877
-29.5425
-31.6504
-32.9909
-34.4316
-35.6936
-36.7622
-37.7823
-38.4612
-37.0979
-26.3088
-27.2432
-26.0719
-27.3285
-26.4903
-27.4213
-27.2514
-27.8114
-27.9811
-28.1202
-27.852
-27.1645
-25.6778
-24.1696
-21.4263
-5.04943
-3.75365
-1.87472
-1.50069
0.320153
1.04368
2.49703
3.62201
4.94053
6.26083
7.70987
9.14914
10.8282
12.1449
13.9921
11.4175
12.9984
14.318
14.7952
16.1906
16.7949
17.8664
18.674
19.5841
20.4419
21.3402
22.156
23.0641
23.698
24.5274
30.2232
30.8935
30.9421
30.655
31.0272
30.6685
30.7085
30.603
30.6481
30.7979
31.0861
31.4034
31.88
32.1582
32.7774
34.3624
36.162
35.231
34.127
33.7281
33.4029
33.65
33.9869
34.5634
35.0683
35.4684
35.6476
35.7129
35.6341
35.5185
84.9557
82.2539
75.1678
66.6184
60.5199
54.54
48.9301
44.3019
39.8055
35.9703
32.7374
30.0855
27.601
25.8578
22.8617
15.2258
17.425
18.0944
18.2601
18.9128
20.0458
21.2222
21.213
21.5105
22.3336
23.238
22.9709
23.9573
24.9676
24.2478
24.6358
25.9531
26.4961
24.869
26.3433
27.045
25.4938
25.6205
27.5376
27.9202
26.1005
26.2126
28.0653
29.105
26.7746
28.4898
29.91
28.2103
28.233
29.9267
31.2999
29.4757
30.7487
32.277
31.1556
31.1774
32.3903
33.3918
32.5438
32.5793
33.4536
34.051
33.335
33.9569
34.6128
34.2718
34.3827
34.8447
35.7204
35.5811
35.6499
35.8722
36.9868
36.9023
37.0059
37.1222
37.0832
37.1974
37.1391
37.8573
38.3402
39.4911
38.0128
36.7167
38.919
41.1075
31.7212
28.5273
33.8168
37.4804
9.87652
24.3704
30.2767
-22.057
-3.50227
6.87073
5.55696
10.4723
-0.180804
5.23635
10.0823
9.94138
10.4675
10.8774
11.0405
10.2468
12.7324
15.3171
8.62151
10.196
9.56904
9.70202
10.3901
10.5931
10.1454
12.7056
20.1005
9.71687
10.5014
9.22314
9.31385
10.5123
10.813
9.86523
8.33017
8.34817
18.3536
9.9712
8.92766
7.03409
4.74536
4.60267
5.32466
3.12725
-0.47578
2.39512
4.77862
5.31601
4.43767
1.78955
-0.32759
-2.68941
-2.40287
-5.61527
-3.98127
6.32311
2.27728
2.32598
1.41502
-0.726559
-2.42368
-4.37247
-10.1983
-8.59457
6.76304
2.04542
0.554385
-2.15683
-4.17551
-5.89061
-6.79926
-7.73481
-10.0411
-15.0227
1.94952
-1.74154
-1.69655
-2.60106
-4.17595
-9.07634
-10.1973
-7.31856
-20.051
-1.63321
-4.41701
-5.99009
-0.825788
-1.89414
-0.0667456
0.483549
1.32754
2.34246
2.23026
2.7209
3.09076
3.13858
3.29172
3.39032
3.47946
3.56436
3.57896
3.58365
3.58387
3.57714
3.56309
3.55465
3.52501
3.46559
3.53721
3.44184
3.3727
3.41642
3.28195
3.55334
3.30301
3.18859
3.30919
3.10531
3.64543
3.26276
2.75133
3.78935
3.06572
2.74988
3.05377
2.58658
3.96471
2.80356
2.4313
2.78727
2.2239
3.98052
2.73426
1.4487
4.11235
2.33836
1.68106
2.25485
1.40773
4.13225
1.9763
1.28955
1.90127
0.997536
3.89785
1.94539
0.00586247
3.91173
1.47322
0.458384
1.26204
0.150204
3.59329
1.03192
-0.0957439
0.784123
-0.475971
2.92492
0.876823
-1.80082
2.66111
0.320817
-1.56483
-0.372341
-1.76002
0.00780691
-0.0331191
-0.0221371
-0.0268218
-0.0288009
-0.0284422
-0.0246316
-0.0169711
-0.00811562
-0.00549863
-0.0252673
-0.0705553
-0.0702848
-0.0565691
-0.270314
-0.325395
-0.430558
-0.568674
-0.695455
-0.804128
-0.888799
-0.944498
-0.97187
-0.970411
-0.940963
-0.886422
-0.810519
-0.71726
-0.610498
-0.494037
-0.371982
-0.248124
-0.125432
-0.00641161
0.106639
0.211887
0.30841
0.396074
0.474828
0.5445
0.605571
0.658973
0.704965
0.743396
0.774263
0.796337
0.806923
0.804931
0.790921
0.762148
0.712436
0.639392
0.54489
0.432631
0.300284
0.157103
0.0236497
0.00779208
0.00260153
-0.00487521
-0.00438452
-0.00705704
-0.00461851
0.00786369
-0.0350289
-0.169292
-0.267242
-0.324221
-0.321404
-0.271359
-0.200585
-0.132194
-0.0781495
-0.0331339
-0.0190841
-0.0304054
-0.113499
-0.0884758
-0.141318
0.0516713
-0.0231687
0.00296202
-0.00300865
-0.0143512
-0.035969
-0.0718022
-0.115817
-0.153981
-0.171913
-0.175809
-0.172218
-0.0927746
0.0079022
-0.371347
-0.469978
-0.683129
-0.938602
-1.1664
-1.36107
-1.50994
-1.60327
-1.64249
-1.6268
-1.55794
-1.44225
-1.28662
-1.09826
-0.885381
-0.656345
-0.418901
-0.179657
0.0557521
0.282207
0.495406
0.692817
0.873909
1.03836
1.18464
1.31211
1.42316
1.51984
1.60128
1.66628
1.71564
1.74728
1.75535
1.73773
1.69546
1.62253
1.50747
1.3476
1.14673
0.910527
0.630088
0.339873
0.0497387
0.0463774
0.0250909
-0.00986786
-0.0169056
-0.0290649
-0.0195006
-0.0042911
-0.0862426
-0.332034
-0.491161
-0.568331
-0.55161
-0.466264
-0.350425
-0.230254
-0.135727
-0.0437334
-0.0249327
-0.0899839
-0.330756
-0.0847483
0.0811042
0.0596818
-0.053006
-0.0189652
-0.0301857
-0.0476837
-0.0754107
-0.117006
-0.162593
-0.197896
-0.213839
-0.227962
-0.250719
-0.177236
0.0433373
-0.377057
-0.495075
-0.746334
-1.04739
-1.31447
-1.54362
-1.7182
-1.82661
-1.87091
-1.84979
-1.76526
-1.6251
-1.43741
-1.21106
-0.956058
-0.682311
-0.398967
-0.113979
0.165874
0.434685
0.687685
0.921943
1.13639
1.33035
1.50248
1.6525
1.78266
1.89477
1.98827
2.06225
2.11704
2.15025
2.15605
2.13121
2.07437
1.97877
1.83446
1.63953
1.39564
1.10806
0.761899
0.425899
0.0661306
0.0798035
0.0356689
-0.0210787
-0.0373021
-0.0590943
-0.0431544
-0.0436721
-0.147722
-0.430538
-0.607691
-0.684559
-0.652505
-0.544182
-0.4038
-0.258542
-0.145608
-0.0359997
-0.00776789
-0.0226362
-0.220064
-0.0560141
0.0694112
0.0720142
-0.0544224
-0.0184722
-0.0315888
-0.0576566
-0.0980345
-0.158274
-0.22367
-0.276603
-0.304458
-0.320541
-0.330907
-0.245587
0.0192292
-0.42691
-0.607805
-0.901767
-1.26926
-1.59499
-1.87358
-2.08473
-2.21453
-2.26605
-2.23767
-2.13197
-1.95858
-1.72739
-1.44948
-1.13714
-0.802333
-0.456126
-0.1083
0.232863
0.560357
0.868636
1.1541
1.41503
1.65041
1.8591
2.04116
2.19874
2.33359
2.44552
2.53394
2.59879
2.63718
2.64298
2.61175
2.54003
2.41991
2.24186
2.00402
1.70616
1.35432
0.926146
0.518781
0.122171
0.121867
0.048757
-0.0325507
-0.0632571
-0.0973082
-0.0782789
-0.0904335
-0.229013
-0.557567
-0.763506
-0.846375
-0.798402
-0.660571
-0.48639
-0.307606
-0.168941
-0.0344818
0.00156091
0.0263265
-0.177211
0.0621131
0.13886
0.0694583
-0.0565119
-0.0270557
-0.0420858
-0.0781714
-0.129374
-0.201981
-0.276018
-0.334479
-0.367192
-0.389378
-0.404972
-0.332909
-0.0606629
-0.423517
-0.723528
-1.05979
-1.4999
-1.89026
-2.22392
-2.47683
-2.63199
-2.69317
-2.6582
-2.53023
-2.32091
-2.04207
-1.70717
-1.3311
-0.92824
-0.511883
-0.093795
0.316051
0.709297
1.0794
1.42207
1.73508
2.01709
2.26689
2.48472
2.67295
2.83346
2.9662
3.07067
3.14666
3.1907
3.19588
3.15663
3.06774
2.91978
2.70253
2.41408
2.053
1.62743
1.11009
0.595682
0.207012
0.164254
0.0567466
-0.0481319
-0.0979142
-0.146602
-0.129487
-0.151934
-0.329871
-0.702815
-0.938596
-1.02615
-0.960173
-0.790688
-0.580444
-0.365158
-0.198296
-0.0344295
0.00862168
0.078351
-0.106126
0.214066
0.272344
0.0599395
-0.0456377
-0.0304066
-0.0458382
-0.0937623
-0.156625
-0.242516
-0.327432
-0.396435
-0.439803
-0.470397
-0.488003
-0.426538
-0.171988
-0.38214
-0.85473
-1.21887
-1.72327
-2.17277
-2.55541
-2.84487
-3.02153
-3.08993
-3.0471
-2.89674
-2.65246
-2.3279
-1.93875
-1.50235
-1.03534
-0.553069
-0.0691442
0.404895
0.859462
1.28712
1.68294
2.04423
2.36931
2.65697
2.90767
3.12392
3.30774
3.45924
3.57808
3.66384
3.71254
3.71657
3.66924
3.56352
3.38848
3.13354
2.79666
2.37496
1.87975
1.29665
0.652946
0.302034
0.210623
0.0647183
-0.0674564
-0.14173
-0.207742
-0.199719
-0.237118
-0.452883
-0.856477
-1.11408
-1.20145
-1.11538
-0.914558
-0.669931
-0.420155
-0.226533
-0.0345376
0.016627
0.13164
-0.0510553
0.36711
0.363092
0.0389412
-0.0275344
-0.0354345
-0.0507294
-0.112394
-0.186173
-0.28324
-0.376477
-0.453907
-0.506906
-0.547887
-0.574065
-0.52799
-0.297729
-0.339275
-1.00665
-1.39487
-1.95924
-2.46954
-2.90004
-3.22401
-3.42036
-3.49452
-3.44244
-3.26849
-2.98829
-2.61729
-2.17345
-1.67653
-1.1454
-0.597411
-0.0480044
0.48976
1.00511
1.48975
1.93812
2.34702
2.71451
3.03938
3.32233
3.56603
3.7726
3.94238
4.07523
4.17055
4.22384
4.22683
4.17168
4.04948
3.8478
3.55571
3.17085
2.68849
2.12206
1.48542
0.720561
0.39914
0.254249
0.0694309
-0.0923788
-0.196441
-0.283609
-0.294005
-0.351964
-0.604203
-1.02798
-1.29938
-1.38241
-1.27383
-1.04056
-0.761331
-0.477429
-0.25666
-0.0366381
0.0217985
0.184594
0.0183466
0.549259
0.505326
0.00738206
0.000254712
-0.039699
-0.054138
-0.131017
-0.214869
-0.322542
-0.424639
-0.512249
-0.577322
-0.631136
-0.668328
-0.637628
-0.43569
-0.346824
-1.16417
-1.58644
-2.20487
-2.77948
-3.2584
-3.61582
-3.83084
-3.90994
-3.84772
-3.64916
-3.33194
-2.91335
-2.41367
-1.85509
-1.25876
-0.644059
-0.0282538
0.574066
1.15094
1.69319
2.19463
2.65158
3.06181
3.42415
3.73951
4.01075
4.24012
4.4282
4.57508
4.68001
4.73795
4.73995
4.677
4.53826
4.30969
3.97991
3.54596
3.00105
2.35809
1.64616
0.830732
0.499253
0.294608
0.071731
-0.123426
-0.263067
-0.377433
-0.417013
-0.503172
-0.79113
-1.22608
-1.50075
-1.57351
-1.43895
-1.17135
-0.856628
-0.538278
-0.289211
-0.0407178
0.0253477
0.229847
0.0974812
0.718886
0.728231
-0.0361804
0.0359493
-0.0453239
-0.0583754
-0.151471
-0.244298
-0.362064
-0.472782
-0.570609
-0.648396
-0.716804
-0.768827
-0.757839
-0.594778
-0.439045
-1.30648
-1.79579
-2.45944
-3.10048
-3.62822
-4.01711
-4.24869
-4.33102
-4.25718
-4.03274
-3.67739
-3.21027
-2.65398
-2.03321
-1.37131
-0.689706
-0.00744742
0.659368
1.29761
1.89725
2.45147
2.95612
3.40871
3.80811
4.15546
4.45381
4.70556
4.91158
5.07219
5.18652
5.24903
5.25004
5.17934
5.0241
4.76857
4.40093
3.9173
3.30887
2.59225
1.76469
0.975112
0.602375
0.333611
0.0711861
-0.162016
-0.343254
-0.492693
-0.573284
-0.698729
-1.02286
-1.45962
-1.72352
-1.77619
-1.61023
-1.30559
-0.95429
-0.601239
-0.322787
-0.045821
0.0309617
0.263929
0.18876
0.872544
0.855305
-0.0921373
0.0789194
-0.0526229
-0.0634342
-0.173112
-0.274019
-0.401823
-0.52133
-0.630244
-0.722328
-0.807334
-0.877096
-0.88986
-0.776311
-0.610119
-1.41061
-2.02602
-2.72551
-3.43389
-4.01208
-4.43089
-4.67686
-4.76033
-4.67292
-4.42098
-4.02609
-3.50924
-2.89541
-2.21173
-1.48381
-0.735043
0.013744
0.744986
1.44442
2.10118
2.70782
3.25977
3.75428
4.19027
4.56913
4.8941
5.16779
5.39135
5.56537
5.68891
5.75592
5.75602
5.67774
5.50613
5.22366
4.81812
4.28432
3.61085
2.84032
1.86104
1.12454
0.702658
0.371105
0.0670355
-0.209012
-0.438165
-0.632207
-0.766627
-0.945064
-1.309
-1.73976
-1.97719
-1.99589
-1.78965
-1.44328
-1.05324
-0.664746
-0.355633
-0.0504843
0.0416855
0.289838
0.29088
1.04018
1.02701
-0.161058
0.127206
-0.062707
-0.0700761
-0.196373
-0.304757
-0.442392
-0.570557
-0.691174
-0.79872
-0.901978
-0.992226
-1.03269
-0.973342
-0.826903
-1.46026
-2.27989
-3.00624
-3.78006
-4.4113
-4.85906
-5.11764
-5.20017
-5.09704
-4.81568
-4.3796
-3.81159
-3.13903
-2.3915
-1.59685
-0.780454
0.0351453
0.83094
1.59157
2.30534
2.96421
3.56318
4.09927
4.57149
4.98147
5.33266
5.62788
5.86863
6.05582
6.18842
6.25994
6.25925
6.1736
5.98575
5.6763
5.23275
4.64811
3.90501
3.08009
1.9792
1.27298
0.797177
0.40714
0.0586435
-0.265364
-0.549166
-0.798707
-1.00047
-1.24688
-1.65683
-2.07613
-2.27129
-2.23934
-1.98011
-1.58445
-1.15191
-0.726453
-0.385201
-0.0522981
0.0609186
0.315744
0.403457
1.19178
1.23779
-0.242808
0.17858
-0.0759824
-0.0784592
-0.221255
-0.336548
-0.483528
-0.620373
-0.753624
-0.87797
-1.00114
-1.11422
-1.18512
-1.17794
-1.05948
-1.47173
-2.56547
-3.30621
-4.13908
-4.82643
-5.30248
-5.5722
-5.65179
-5.53052
-5.21748
-4.73826
-4.11745
-3.38479
-2.57235
-1.71019
-0.825625
0.0570969
0.917577
1.73939
2.51004
3.22092
3.86659
4.44391
4.95196
5.39262
5.76959
6.08592
6.3435
6.54358
6.68509
6.76113
6.75982
6.66704
6.46311
6.12661
5.64493
5.00903
4.19123
3.26649
2.14976
1.42275
0.886313
0.441466
0.0452985
-0.331756
-0.677365
-0.99449
-1.27776
-1.60776
-2.07089
-2.4744
-2.61147
-2.51098
-2.18346
-1.72849
-1.24816
-0.783434
-0.408468
-0.0482322
0.0918476
0.351175
0.525747
1.33229
1.36663
-0.336141
0.2301
-0.0925664
-0.0889465
-0.247923
-0.369315
-0.524969
-0.670721
-0.817542
-0.959838
-1.10442
-1.2425
-1.34604
-1.38629
-1.29644
-1.4966
-2.8846
-3.62949
-4.51157
-5.25828
-5.76208
-6.04171
-6.11659
-5.97469
-5.62741
-5.10275
-4.42721
-3.6329
-2.75433
-1.82376
-0.870436
0.0797576
1.00507
1.88804
2.71543
3.47805
4.17008
4.78821
5.33164
5.80253
6.20478
6.54176
6.81577
7.02843
7.17872
7.2593
7.25757
7.15796
6.93812
6.57451
6.05463
5.36776
4.48675
3.40185
2.3503
1.57105
0.971208
0.473451
0.0263467
-0.408759
-0.823821
-1.2217
-1.60113
-2.03094
-2.55428
-2.93716
-2.99974
-2.81238
-2.40012
-1.87447
-1.34009
-0.833222
-0.422911
-0.035596
0.136426
0.403068
0.656671
1.47812
1.57256
-0.437721
0.278319
-0.112113
-0.101871
-0.276129
-0.402532
-0.566295
-0.72147
-0.882819
-1.04417
-1.21164
-1.37683
-1.51516
-1.59999
-1.54413
-1.59258
-3.23094
-3.98142
-4.89858
-5.70775
-6.23889
-6.52718
-6.59591
-6.43099
-6.04673
-5.47401
-4.74152
-3.88376
-2.93765
-1.93765
-0.914854
0.103231
1.09355
2.0377
2.92169
3.73578
4.47381
5.13233
5.71068
6.21129
6.63832
6.99546
7.28547
7.51042
7.66932
7.7545
7.7526
7.64649
7.41095
7.02014
6.46203
5.72313
4.80406
3.51935
2.54466
1.71224
1.05276
0.50243
0.00129534
-0.496791
-0.989451
-1.48232
-1.97304
-2.51984
-3.10997
-3.46588
-3.43642
-3.14364
-2.62982
-2.02161
-1.42656
-0.874417
-0.427149
-0.0127284
0.194989
0.473918
0.794098
1.60085
1.69807
-0.541186
0.319151
-0.134097
-0.11751
-0.305259
-0.435619
-0.607229
-0.772515
-0.949262
-1.13066
-1.32249
-1.51695
-1.69265
-1.82349
-1.81905
-1.80228
-3.58893
-4.36408
-5.30177
-6.17603
-6.73396
-7.02947
-7.09074
-6.90066
-6.47662
-5.85298
-5.061
-4.13772
-3.12247
-2.05185
-0.958789
0.127675
1.18324
2.18858
3.12902
3.99432
4.77796
5.47642
6.08921
6.61902
7.07028
7.44706
7.75263
7.98954
8.15691
8.24676
8.24497
8.13275
7.8817
7.46356
6.86732
6.07086
5.09657
3.68519
2.73028
1.84459
1.13129
0.527681
-0.0301758
-0.596104
-1.17499
-1.77814
-2.39558
-3.07821
-3.74153
-4.06231
-3.92164
-3.50466
-2.87237
-2.1697
-1.50731
-0.906657
-0.420907
0.0209385
0.266589
0.562859
0.936626
1.74249
1.84744
-0.636754
0.347949
-0.157811
-0.13579
-0.3344
-0.46807
-0.647562
-0.823709
-1.01664
-1.21906
-1.43672
-1.6627
-1.87882
-2.06069
-2.13207
-2.13319
-3.92787
-4.77891
-5.72422
-6.66445
-7.24871
-7.54945
-7.60194
-7.38473
-6.9182
-6.2406
-5.38631
-4.39517
-3.30895
-2.1664
-1.00215
0.153256
1.27434
2.34091
3.33766
4.25386
5.08272
5.82065
6.46734
7.02578
7.5007
7.89657
8.21724
8.46576
8.64143
8.73604
8.73468
8.61677
8.35046
7.90479
7.27138
6.41412
5.31075
3.92181
2.91249
1.96957
1.20638
0.548464
-0.0682449
-0.706792
-1.381
-2.1108
-2.8702
-3.70987
-4.45332
-4.72898
-4.45599
-3.89569
-3.12788
-2.31893
-1.5826
-0.930223
-0.404588
0.0652275
0.349614
0.667032
1.08192
1.86865
2.02002
-0.712182
0.359919
-0.182253
-0.156259
-0.362656
-0.499581
-0.68716
-0.874894
-1.08471
-1.30909
-1.5541
-1.81391
-2.07376
-2.31304
-2.4805
-2.55746
-4.22196
-5.22954
-6.17067
-7.17447
-7.78473
-8.08825
-8.13032
-7.88407
-7.37244
-6.63782
-5.7182
-4.65655
-3.49731
-2.28131
-1.04484
0.180141
1.36704
2.49491
3.54781
4.51462
5.38826
6.16516
6.8452
7.43167
7.92963
8.344
8.67925
8.939
9.12282
9.22229
9.22172
9.09862
8.81728
8.34383
7.67584
6.78222
5.46232
4.18058
3.08809
2.089
1.2772
0.56417
-0.112955
-0.828765
-1.60784
-2.48159
-3.39849
-4.41886
-5.25041
-5.46937
-5.04068
-4.31732
-3.39666
-2.46963
-1.65292
-0.945653
-0.37889
0.119562
0.442247
0.783109
1.22837
1.98086
2.14083
-0.755415
0.351185
-0.205994
-0.17823
-0.389336
-0.529985
-0.72589
-0.925884
-1.15324
-1.40053
-1.67444
-1.97044
-2.27745
-2.58034
-2.85596
-3.04055
-4.4607
-5.72204
-6.64635
-7.70779
-8.34383
-8.64723
-8.67681
-8.3995
-7.84018
-7.04549
-6.05738
-4.92236
-3.68778
-2.39663
-1.08677
0.208504
1.4616
2.65083
3.75974
4.77682
5.6948
6.51013
7.22292
7.83677
8.35711
8.78935
9.13864
9.40922
9.60099
9.70545
9.70608
9.5783
9.28217
8.78053
8.0784
7.1754
5.60464
4.42054
3.25228
2.20375
1.34301
0.574418
-0.164204
-0.961694
-1.85559
-2.89156
-3.98399
-5.20997
-6.13863
-6.28773
-5.67744
-4.77048
-3.67906
-2.62214
-1.71872
-0.953558
-0.344612
0.18312
0.542675
0.907631
1.37437
2.10642
2.26904
-0.758122
0.320154
-0.22734
-0.201025
-0.414015
-0.559187
-0.763611
-0.976477
-1.22198
-1.49317
-1.79755
-2.13215
-2.48971
-2.86146
-3.24769
-3.54439
-4.6492
-6.26446
-7.1609
-8.26573
-8.92775
-9.22801
-9.24253
-8.93187
-8.32215
-7.46432
-6.40453
-5.19308
-3.88062
-2.51241
-1.12787
0.238528
1.55822
2.80893
3.9737
5.04071
6.00254
6.85572
7.60062
8.24118
8.78318
9.23263
9.59537
9.87633
10.0759
10.1854
10.1877
10.0558
9.74512
9.21489
8.47261
7.52555
5.81721
4.6414
3.40467
2.31332
1.40301
0.579016
-0.221737
-1.10495
-2.12392
-3.3416
-4.63278
-6.08887
-7.12472
-7.18902
-6.36832
-5.25625
-3.97539
-2.77669
-1.78045
-0.954585
-0.302604
0.254941
0.64915
1.03729
1.51805
2.21789
2.40874
-0.718457
0.268465
-0.244745
-0.22408
-0.436455
-0.58709
-0.800162
-1.02646
-1.29072
-1.5868
-1.92322
-2.2988
-2.71022
-3.1548
-3.646
-4.04351
-4.83641
-6.87746
-7.72143
-8.85011
-9.53809
-9.83241
-9.82885
-9.4822
-8.81906
-7.89492
-6.76021
-5.46918
-4.0761
-2.62874
-1.16802
0.270406
1.65718
2.96948
4.18997
5.30654
6.31172
7.20215
7.97847
8.64497
9.20789
9.67382
10.0494
10.3402
10.5473
10.6621
10.6666
10.5312
10.206
9.64813
8.86323
7.77046
6.11426
4.85017
3.54824
2.4166
1.45632
0.577828
-0.285123
-1.25749
-2.41194
-3.83211
-5.35055
-7.06156
-8.21641
-8.17884
-7.11555
-5.77577
-4.28591
-2.93347
-1.83851
-0.949432
-0.253759
0.334011
0.760038
1.16924
1.65794
2.31808
2.50753
-0.641611
0.200838
-0.257211
-0.24692
-0.456529
-0.613569
-0.835362
-1.07563
-1.35923
-1.6812
-2.05121
-2.47008
-2.93841
-3.45878
-4.04683
-4.53244
-5.08574
-7.57158
-8.33906
-9.46164
-10.1765
-10.4623
-10.4374
-10.0517
-9.33173
-8.33784
-7.12489
-5.75106
-4.27448
-2.74568
-1.20716
0.304336
1.75874
3.13279
4.40884
5.5746
6.62259
7.5496
8.35661
9.04827
9.63129
10.1129
10.5006
10.8008
11.0152
11.1354
11.1425
11.0044
10.6649
10.0833
9.29431
7.93525
6.43013
5.04547
3.68537
2.51244
1.50227
0.570812
-0.353702
-1.41779
-2.71805
-4.36273
-6.14084
-8.13416
-9.42241
-9.26351
-7.92143
-6.33016
-4.61071
-3.09255
-1.89327
-0.938849
-0.199001
0.419301
0.873867
1.30102
1.7923
2.42196
2.62618
-0.537969
0.123861
-0.264443
-0.269072
-0.47415
-0.638459
-0.869017
-1.12375
-1.4273
-1.77614
-2.18122
-2.64552
-3.17356
-3.77217
-4.45133
-5.02522
-5.47035
-8.35729
-9.01838
-10.1016
-10.844
-11.1199
-11.0698
-10.6419
-9.86112
-8.79365
-7.49896
-6.03902
-4.47599
-2.86331
-1.24519
0.340527
1.86316
3.29916
4.63063
5.8452
6.93542
7.89833
8.73522
9.45118
10.0534
10.55
10.949
11.258
11.4793
11.6051
11.6155
11.4753
11.1213
10.5181
9.77371
8.08952
6.71728
5.22522
3.81624
2.59968
1.54032
0.557997
-0.426576
-1.5838
-3.03988
-4.93212
-7.00614
-9.31247
-10.7522
-10.45
-8.78834
-6.92043
-4.94966
-3.25386
-1.94507
-0.923651
-0.139281
0.509777
0.989311
1.43052
1.92018
2.50395
2.71307
-0.419975
0.04433
-0.266739
-0.29002
-0.489248
-0.661563
-0.900933
-1.17062
-1.4947
-1.87136
-2.31287
-2.82453
-3.41468
-4.0938
-4.86475
-5.5628
-6.07159
-9.21489
-9.76106
-10.7704
-11.5418
-11.8073
-11.7281
-11.2543
-10.4084
-9.26305
-7.88278
-6.3333
-4.68078
-2.98167
-1.28202
0.379197
1.97076
3.46893
4.8557
6.11866
7.25051
8.24857
9.11449
9.85384
10.4744
10.9849
11.3945
11.7116
11.9396
12.071
12.0853
11.9439
11.575
10.9409
10.2174
8.32439
6.97331
5.39101
3.93942
2.67714
1.57006
0.539507
-0.502584
-1.75293
-3.37413
-5.53761
-7.94739
-10.601
-12.2156
-11.7459
-9.71863
-7.5475
-5.30239
-3.41722
-1.99421
-0.904711
-0.0755743
0.604395
1.10511
1.55587
2.03989
2.59575
2.80056
-0.299169
-0.0320574
-0.264745
-0.309213
-0.501758
-0.682663
-0.930918
-1.21601
-1.5612
-1.96655
-2.44571
-3.00636
-3.66052
-4.42197
-5.28944
-6.15674
-6.89849
-10.062
-10.5618
-11.4675
-12.271
-12.5268
-12.4143
-11.8907
-10.9749
-9.74686
-8.27678
-6.63409
-4.88895
-3.10079
-1.31754
0.420571
2.08184
3.64246
5.0844
6.39534
7.5682
8.6006
9.49465
10.2564
10.8942
11.4178
11.8371
12.1616
12.3958
12.533
12.5519
12.4098
12.027
11.3428
10.517
8.66165
7.20528
5.54655
4.05293
2.74382
1.59115
0.515562
-0.580284
-1.9219
-3.71625
-6.17437
-8.96278
-12.0014
-13.8212
-13.1583
-10.7144
-8.21205
-5.6682
-3.58222
-2.04095
-0.882962
-0.00889244
0.702087
1.22011
1.67472
2.14961
2.67242
2.88538
-0.184356
-0.101314
-0.25922
-0.326104
-0.511614
-0.701536
-0.958795
-1.25972
-1.62657
-2.06139
-2.57921
-3.19015
-3.90961
-4.75457
-5.72421
-6.79577
-7.9055
-10.8648
-11.408
-12.1943
-13.0312
-13.2806
-13.1306
-12.5529
-11.5622
-10.2461
-8.68146
-6.94157
-5.10052
-3.22062
-1.35163
0.46489
2.19673
3.82013
5.31713
6.67563
7.88883
8.95474
9.87593
10.659
11.3131
11.8486
12.2766
12.6076
12.8477
12.9907
13.0151
12.8731
12.4832
11.7725
10.6894
9.03243
7.41529
5.69462
4.15524
2.7989
1.60319
0.4865
-0.657851
-2.08655
-4.0599
-6.8343
-10.0457
-13.5098
-15.5752
-14.6933
-11.777
-8.91446
-6.04604
-3.74828
-2.08546
-0.859398
0.0596934
0.801775
1.33335
1.7852
2.24692
2.73533
2.9512
-0.081064
-0.16113
-0.250869
-0.340187
-0.518758
-0.717975
-0.984411
-1.30156
-1.69055
-2.1555
-2.7128
-3.3749
-4.16031
-5.08905
-6.16553
-7.46097
-9.00725
-11.5452
-12.2837
-12.9497
-13.8227
-14.0704
-13.879
-13.2428
-12.1717
-10.7617
-9.09744
-7.25597
-5.31553
-3.34107
-1.38412
0.512413
2.3158
4.00234
5.55432
6.95995
8.21279
9.31133
10.2586
11.0619
11.731
12.2774
12.7131
13.0497
13.295
13.444
13.4747
13.3332
12.9476
12.3014
10.8089
9.36316
7.60481
5.83533
4.24518
2.84189
1.60591
0.45287
-0.732965
-2.24164
-4.39658
-7.50558
-11.1835
-15.1133
-17.4768
-16.3538
-12.9061
-9.6544
-6.43437
-3.91452
-2.12784
-0.835077
0.129023
0.902411
1.44342
1.88633
2.32997
2.80099
3.01399
0.00807367
-0.210495
-0.240267
-0.35103
-0.523146
-0.731798
-1.00764
-1.34136
-1.7529
-2.24849
-2.84581
-3.55955
-4.41084
-5.42266
-6.60809
-8.12264
-10.0869
-12.0696
-13.1761
-13.7353
-14.643
-14.8975
-14.6617
-13.9622
-12.805
-11.2951
-9.52545
-7.5776
-5.53396
-3.46203
-1.41482
0.563417
2.4394
4.18954
5.79643
7.24875
8.54051
9.67072
10.643
11.4652
12.1482
12.7043
13.1464
13.4877
13.7376
13.8925
13.9305
13.7893
13.4083
12.875
11.0018
9.65136
7.77806
5.9667
4.32139
2.8723
1.5991
0.415518
-0.802769
-2.38095
-4.71628
-8.17448
-12.3594
-16.7899
-19.5157
-18.1376
-14.0988
-10.4304
-6.831
-4.07979
-2.16806
-0.81114
0.197858
1.0028
1.54936
1.97811
2.39873
2.853
3.07389
0.082515
-0.249244
-0.227837
-0.358292
-0.524752
-0.742863
-1.02837
-1.37895
-1.81337
-2.33994
-2.97755
-3.74291
-4.65931
-5.75229
-7.04435
-8.7508
-11.0479
-12.4558
-14.0656
-14.5515
-15.4894
-15.7616
-15.4804
-14.7129
-13.4637
-11.8474
-9.9663
-7.90684
-5.75589
-3.58334
-1.44349
0.618202
2.56792
4.38219
6.04397
7.54252
8.87245
10.0333
11.0294
11.8693
12.5648
13.1292
13.5766
13.9214
14.1752
14.3358
14.3821
14.2409
13.8439
13.3498
11.3303
9.91288
7.94156
6.0867
4.38274
2.88972
1.58281
0.375637
-0.864069
-2.49807
-5.00937
-8.82928
-13.5601
-18.5248
-21.679
-20.0377
-15.3488
-11.2391
-7.23285
-4.24252
-2.20597
-0.788841
0.264873
1.10169
1.65027
2.06025
2.4558
2.8929
3.12047
0.142974
-0.277671
-0.213874
-0.361733
-0.523581
-0.751069
-1.04653
-1.41417
-1.8717
-2.4294
-3.10727
-3.92374
-4.90369
-6.07468
-7.46689
-9.31836
-11.8021
-12.7499
-14.9584
-15.3977
-16.357
-16.6609
-16.3358
-15.4962
-14.1493
-12.4197
-10.4208
-8.24413
-5.9814
-3.70487
-1.46987
0.677091
2.70177
4.58076
6.29746
7.8418
9.2091
10.3996
11.4183
12.2745
12.981
13.5524
14.0036
14.3507
14.6075
14.7736
14.8291
14.6914
14.2509
13.6276
11.747
10.1492
8.099
6.19362
4.42853
2.89397
1.55743
0.334616
-0.91387
-2.58747
-5.26872
-9.46388
-14.7822
-20.3332
-23.9683
-22.0475
-16.6467
-12.0749
-7.63559
-4.40064
-2.24132
-0.76956
0.328663
1.19781
1.74539
2.13209
2.50195
2.93204
3.16537
0.19075
-0.296275
-0.198576
-0.361213
-0.519666
-0.756359
-1.06207
-1.44689
-1.92763
-2.5164
-3.23415
-4.10068
-5.14181
-6.38634
-7.86852
-9.81377
-12.3598
-13.0712
-15.8304
-16.271
-17.2392
-17.5918
-17.2279
-16.3131
-14.8629
-13.0133
-10.8897
-8.58994
-6.21064
-3.82648
-1.49369
0.74043
2.84134
4.78576
6.55746
8.14717
9.55102
10.77
11.8099
12.681
13.3971
13.9739
14.4275
14.7754
15.0343
15.2055
15.2713
15.1504
14.7024
13.7563
12.1495
10.3576
8.25018
6.28591
4.45845
2.88519
1.52355
0.293735
-0.9499
-2.64518
-5.4904
-10.0783
-16.0344
-22.259
-26.4112
-24.1687
-17.982
-12.9301
-8.0334
-4.55139
-2.27369
-0.754818
0.387786
1.29005
1.83436
2.1927
2.53957
2.96211
3.20396
0.227286
-0.305608
-0.182088
-0.356682
-0.513073
-0.758718
-1.07496
-1.47697
-1.98089
-2.60044
-3.35734
-4.27228
-5.37139
-6.68377
-8.24379
-10.2406
-12.7755
-13.5158
-16.6539
-17.1639
-18.13
-18.5489
-18.155
-17.1634
-15.6052
-13.6289
-11.3739
-8.94471
-6.44376
-3.94807
-1.51466
0.808583
2.98707
4.99767
6.82456
8.45925
9.89881
11.1452
12.2049
13.0893
13.8133
14.3939
14.8483
15.1956
15.4553
15.6312
15.7078
15.622
15.2598
13.8456
12.4898
10.5424
8.39321
6.36256
4.47253
2.86375
1.48187
0.253835
-0.970802
-2.66845
-5.67254
-10.6761
-17.3345
-24.3544
-29.0563
-26.4163
-19.3463
-13.795
-8.41884
-4.69116
-2.30244
-0.746262
0.440834
1.37755
1.91718
2.24241
2.56482
2.99769
3.24611
0.253923
-0.306215
-0.164533
-0.348174
-0.503895
-0.758161
-1.08517
-1.50429
-2.03121
-2.68099
-3.47591
-4.43701
-5.59009
-6.96371
-8.58965
-10.614
-13.1339
-14.1403
-17.3531
-18.0663
-19.0245
-19.5261
-19.1143
-18.0459
-16.3762
-14.2672
-11.8737
-9.3088
-6.68091
-4.06955
-1.53249
0.881936
3.13938
5.21699
7.09932
8.77868
10.2531
11.5256
12.6037
13.4998
14.23
14.8126
15.2662
15.611
15.8701
16.05
16.1371
16.0914
15.8515
14.034
12.7834
10.7134
8.5261
6.42295
4.47103
2.83014
1.43282
0.215126
-0.975854
-2.65481
-5.81345
-11.2616
-18.7034
-26.6719
-31.9671
-28.8192
-20.7355
-14.6596
-8.78293
-4.8153
-2.32669
-0.745627
0.486518
1.45983
1.99459
2.28112
2.57939
3.03016
3.28667
0.271805
-0.298618
-0.146033
-0.335785
-0.492246
-0.754734
-1.09272
-1.52873
-2.0783
-2.75751
-3.58886
-4.59328
-5.79565
-7.22332
-8.90455
-10.9476
-13.4779
-14.9103
-17.8393
-18.9697
-19.9234
-20.5174
-20.1018
-18.958
-17.1747
-14.9279
-12.3894
-9.68243
-6.92217
-4.19081
-1.5469
0.960894
3.29872
5.44422
7.38234
9.10614
10.6147
11.912
13.007
13.913
14.6475
15.2304
15.6812
16.0217
16.2785
16.4615
16.559
16.536
16.3265
14.363
13.0482
10.8791
8.64744
6.46714
4.45427
2.78464
1.37629
0.177192
-0.964542
-2.60117
-5.9103
-11.8376
-20.1622
-29.2693
-35.2219
-31.4192
-22.1504
-15.5145
-9.11557
-4.91808
-2.34519
-0.754687
0.523755
1.53684
2.06797
2.30902
2.58359
3.05445
3.32637
0.28185
-0.283315
-0.12672
-0.319661
-0.478261
-0.748504
-1.0976
-1.55019
-2.12188
-2.8294
-3.69519
-4.73955
-5.98604
-7.46061
-9.18844
-11.2492
-13.7999
-15.6731
-18.0812
-19.8879
-20.8325
-21.5177
-21.1128
-19.8962
-17.9985
-15.6101
-12.9208
-10.0656
-7.16753
-4.3117
-1.55757
1.04589
3.46558
5.67986
7.67416
9.44227
10.9842
12.3052
13.4153
14.3293
15.0662
15.6474
16.0935
16.4278
16.6802
16.8649
16.9771
16.9562
16.5893
14.7712
13.2865
11.043
8.75612
6.4954
4.42243
2.72706
1.31155
0.139124
-0.936256
-2.50333
-5.95839
-12.4042
-21.731
-32.2119
-38.913
-34.2704
-23.597
-16.3517
-9.40593
-4.99261
-2.35632
-0.775185
0.55173
1.60904
2.13925
2.32658
2.57562
3.08474
3.37002
0.284763
-0.260775
-0.106738
-0.299982
-0.462088
-0.739563
-1.09984
-1.56857
-2.16164
-2.89607
-3.79388
-4.87439
-6.15977
-7.67468
-9.44258
-11.5234
-14.0869
-16.3036
-18.1913
-20.8384
-21.7616
-22.5244
-22.1436
-20.8565
-18.8441
-16.3119
-13.467
-10.4579
-7.41682
-4.43201
-1.56416
1.13737
3.64047
5.92444
7.97536
9.78773
11.3624
12.7058
13.8294
14.7495
15.4867
16.064
16.5034
16.8292
17.075
17.2598
17.4015
17.4192
16.6878
15.1632
13.497
11.2046
8.85139
6.50789
4.37511
2.65656
1.23729
0.0996479
-0.890165
-2.35585
-5.95048
-12.9565
-23.4212
-35.5625
-43.1379
-37.4364
-25.085
-17.1648
-9.643
-5.03092
-2.35803
-0.808799
0.569922
1.67732
2.21097
2.33389
2.55517
3.11421
3.41125
0.281041
-0.231425
-0.0862421
-0.276958
-0.443889
-0.728024
-1.09949
-1.58377
-2.19731
-2.95693
-3.88402
-4.99673
-6.31604
-7.86593
-9.66958
-11.7738
-14.3378
-16.7759
-18.3986
-21.7991
-22.7233
-23.5372
-23.1918
-21.8353
-19.7077
-17.0304
-14.0262
-10.8585
-7.66961
-4.55141
-1.56628
1.23584
3.82395
6.17852
8.28651
10.1431
11.75
13.1148
14.2502
15.1743
15.9095
16.4806
16.9111
17.2261
17.4625
17.6451
17.8365
17.9779
16.7411
15.5013
13.685
11.3621
8.9328
6.50435
4.31132
2.57173
1.15174
0.0571652
-0.825202
-2.15176
-5.87608
-13.48
-25.221
-39.3566
-47.9715
-40.9829
-26.6273
-17.9494
-9.81592
-5.02408
-2.34792
-0.857129
0.578088
1.74302
2.2862
2.33076
2.52179
3.13742
3.45136
0.270984
-0.195642
-0.0653946
-0.250821
-0.423848
-0.71403
-1.09661
-1.59574
-2.22861
-3.01144
-3.96487
-5.10593
-6.45494
-8.03589
-9.87293
-12.0049
-14.5694
-17.1714
-18.8824
-22.661
-23.7281
-24.5607
-24.2574
-22.8303
-20.5851