/*--------------------------------*- C++ -*----------------------------------*\
| =========                 |                                                 |
| \\      /  F ield         | OpenFOAM: The Open Source CFD Toolbox           |
|  \\    /   O peration     | Version:  4.1                                   |
|   \\  /    A nd           | Web:      www.OpenFOAM.org                      |
|    \\/     M anipulation  |                                                 |
\*---------------------------------------------------------------------------*/
FoamFile
{
    version     2.0;
    format      ascii;
    class       surfaceScalarField;
    location    "25";
    object      phi;
}
// * * * * * * * * * * * * * * * * * * * * * * * * * * * * * * * * * * * * * //

dimensions      [0 3 -1 0 0 0 0];

internalField   nonuniform List<scalar> 
13220
(
-815.171
2115.07
-1274.5
1759.54
-1738.13
1763.53
-2082.44
1644.22
-2361.76
1579.52
-2563.68
1501.83
-2694.3
1430.52
-2753.55
1359.45
-2745.04
1291.4
-2668.19
1223.05
-2515.09
1147.1
-2252.15
1036.97
-1791.59
839.343
-1031.62
540.228
268.283
-181.493
2296.57
-412.571
1990.62
-682.091
2033.05
-895.529
1857.66
-1102.73
1786.72
-1269.42
1668.51
-1410.06
1571.17
-1517.83
1467.22
-1597.95
1371.52
-1648.84
1273.94
-1650.32
1148.59
-1542.29
928.938
-1201.52
498.575
-556.393
-104.893
-288.11
-123.753
2420.33
-318.956
2185.82
-454.845
2168.95
-530.342
1933.16
-592.486
1848.87
-612.871
1688.9
-609.066
1567.37
-577.014
1435.17
-519.275
1313.78
-438.464
1193.13
-341.614
1051.74
-243.17
830.513
-151.044
406.497
-80.4276
-175.454
-368.537
99.5591
2320.77
92.7837
2192.6
139.783
2121.95
211.506
1861.44
286.713
1773.66
381.543
1594.08
486.806
1462.11
601.246
1320.74
718.883
1196.15
835.347
1076.67
936.377
950.716
966.184
800.702
790.566
582.11
258.729
356.374
-109.808
101.304
2219.47
147.861
2146.05
215.23
2054.58
288.721
1787.95
357.703
1704.68
440.944
1510.84
521.284
1381.77
616.181
1225.84
717.793
1094.54
812.91
981.551
872.437
891.187
857.163
815.981
701.998
737.276
418.391
639.983
308.582
6.32537
2213.14
34.2293
2118.14
54.9587
2033.85
53.5124
1789.39
49.5613
1708.63
37.5072
1522.89
36.7045
1382.57
100.026
1162.51
249.558
945.005
456.533
774.57
640.677
707.042
714.65
741.993
612.678
839.237
366.279
886.366
674.862
-99.7169
2312.86
-213.126
2231.55
-308.599
2129.32
-444.371
1925.16
-582.378
1846.64
-747.184
1687.69
-902.307
1537.69
-1000.58
1260.79
-1003.4
947.823
-902.007
673.173
-699.274
504.305
-414.397
457.12
-134.147
558.989
23.2784
728.943
698.14
14.206
2298.65
-203.153
2448.91
-348.235
2274.4
-493.2
2070.13
-634.906
1988.34
-789.031
1841.82
-962.225
1710.89
-1168.22
1466.79
-1395.97
1175.57
-1595.12
872.317
-1678.3
587.492
-1539.72
318.528
-1116.04
135.301
-496.391
109.28
201.749
272.192
2026.46
150.637
2570.46
62.8453
2362.19
27.6435
2105.33
27.8016
1988.18
32.5001
1837.12
31.1358
1712.25
-30.2541
1528.17
-163.465
1308.77
-348.584
1057.44
-550.071
788.976
-722.379
490.837
-745.092
158.013
-523.055
-112.758
-321.306
366.524
1659.93
412.392
2524.59
416.328
2358.26
472.312
2049.34
576.168
1884.32
687.387
1725.9
807.101
1592.53
895.044
1440.23
927.139
1276.68
886.099
1098.47
769.031
906.043
562.466
697.396
270.808
449.662
-7.38185
165.419
-328.688
238.719
1421.21
321.497
2441.81
362.447
2317.3
422.756
1989.03
512.097
1794.98
604.769
1633.22
696.662
1500.64
773.813
1363.08
824.419
1226.07
834.588
1088.3
796.179
944.451
698.555
795.02
528.843
619.372
285.603
408.655
-43.0853
99.4319
1321.78
178.785
2362.46
241.149
2254.94
287.594
1942.58
336.911
1745.66
382.774
1587.36
424.231
1459.18
454.562
1332.75
472.631
1208
476.076
1084.86
460.471
960.054
419.194
836.293
335.721
702.842
191.842
552.523
148.757
85.4001
1236.38
180.964
2266.89
270.858
2165.04
375.189
1838.25
492.437
1628.41
596.282
1483.51
676.954
1378.51
732.612
1277.09
758.767
1181.85
755.013
1088.61
716.489
998.578
634.766
918.016
495.804
841.802
290.663
757.662
439.42
270.335
966.04
437.196
2100.03
421.455
2180.78
329.392
1930.32
249.96
1707.84
197.579
1535.89
182.479
1393.61
205.053
1254.51
263.75
1123.15
350.396
1001.96
441.549
907.425
486.268
873.296
417.139
910.93
238.009
936.792
677.429
451.514
1443.4
2192.61
2484.22
2509.48
2411.66
2171.11
1901.47
1609.31
1321.18
1025.42
757.005
513.291
282.946
5.62753e-06
-429.682
429.682
-429.682
-429.682
-429.682
197.595
-627.277
197.595
197.595
197.595
803.202
-605.607
803.202
803.202
1366.19
-562.984
1366.19
1366.19
1366.19
1766.54
-400.356
1766.54
1766.54
2023.69
-257.152
2023.69
2023.69
2023.69
2159.11
-135.411
2159.11
2159.11
2159.11
2194.25
-35.1467
2194.25
2194.25
2136.73
57.5235
2136.73
2136.73
2136.73
1993.49
143.237
1993.49
1993.49
1780.62
212.871
1780.62
1780.62
1780.62
1530.92
249.705
1530.92
1530.92
1530.92
1354.9
176.02
1354.9
1354.9
1141.53
213.366
1141.53
1141.53
1141.53
818.064
323.466
818.064
818.064
818.064
393.266
424.798
393.266
393.266
-46.5525
439.819
-46.5526
-46.5525
-46.5526
-752.826
706.274
-752.826
-752.826
-2053.67
1300.85
-2053.67
-2053.67
-2053.67
-3836.19
1782.52
-3836.19
-3836.19
-3836.19
-5941.91
2105.72
-5941.91
-5941.91
-8209.86
2267.95
-8209.86
-8209.86
-8032.48
-7855.67
-7676.15
-9848.57
2354.18
-9666.16
-9462.34
-9245.87
-9027.98
-8807.61
-8584.15
-8364.43
-8151.55
-10417.5
2475.55
-10197.8
-9976.51
-9754.7
-9543.69
-9330.45
-9114.69
-8898.5
-8681.67
-10945.5
2473.84
-10720.2
-10492.8
-10263.6
-10033.9
-9799.03
-9554.56
-9309.25
-9063.23
-8817.77
-10939.4
2353.02
-10676
-10411.4
-10145.6
-9880
-9614.24
-9333.1
-9043.25
-8753.16
-10591.6
2114.11
-10304.3
-10008.1
-9698.67
-9390.38
-9083.16
-8778.8
-8476.38
-8156.44
-9442.07
1588.39
-9135.51
-8832.53
-8531.21
-8217.05
-7898.02
-7580.92
-7263.92
-6949.25
-7680.61
1044.69
-7359.18
-7045.27
-6738.58
-6441.42
-6155.08
-5865.72
-5588.48
-5322.66
-5068.18
-4403.6
-400.631
-4172.64
-3958.81
-3748.31
-3542.68
-3340.59
-3176.92
-3085.88
-2992.29
-2274.39
-611.758
-2182.38
-2094.04
-2094.04
-1707.62
-386.423
-1358.14
-349.477
-1358.14
-1077.15
-280.995
-1077.15
-846.356
-230.791
-664.75
-181.606
-664.75
-500.831
-163.919
-371.277
-129.554
-371.277
-252.667
-118.61
-252.667
-131.753
-120.914
-29.8311
-101.922
-29.8309
69.9113
-99.7422
69.9114
160.803
-90.8912
257.684
-96.8812
257.684
349.571
-91.8875
440.755
-91.1839
440.755
537.673
-96.9175
537.673
633.896
-96.2232
716.564
-82.6682
716.565
807.651
-91.0868
807.651
902.972
-95.3204
984.991
-82.0197
984.991
1081.05
-96.0577
1163.27
-82.2197
1163.27
1250.81
-87.5407
1250.81
1343.02
-92.2097
1417.51
-74.4922
1417.51
1492.42
-74.9076
1492.42
1570.62
-78.1979
1629.03
-58.4083
1629.03
1697.05
-68.0229
1743.44
-46.3933
1743.44
1793.16
-49.7172
1793.16
1847.91
-54.7539
1882.28
-34.3658
1882.28
1920.75
-38.4723
1920.75
1963.29
-42.5355
1982.76
-19.4762
1982.76
2012.01
-29.2523
2015.21
-3.19164
2015.21
2023.69
-8.48558
2023.69
2038.66
-14.9716
2034.89
3.77688
2034.89
2042.15
-7.26088
2042.15
2056.3
-14.1504
2053.61
2.68797
2053.61
2059.71
-6.10111
2051.6
8.11143
2051.6
2055.49
-3.89146
2055.49
-19.5983
-884.178
-1258.33
-862.583
-1374.31
-843.187
-1455.83
-823.791
-1525.88
-809.377
-1577.59
-805.557
-1592.22
-819.374
-1553.07
-854.683
-1446.21
-907.277
-1278.93
-962.437
-1085.94
-995.507
-900.541
-978.185
-682.42
-913.676
-314.342
-856.305
174.374
-830.513
522.274
-812.835
747.735
-796.439
954.523
-780.583
1172.83
-765.165
1396.27
-749.98
1618.63
-734.875
1835.44
-719.742
2043.19
-704.485
2239.19
-689.041
2421.45
-673.364
2588.13
-657.466
2738.09
-641.332
2870.61
-624.894
2985.13
-608.146
3080.88
-591.169
3157.64
-574.035
3215.97
-556.762
3256.49
-539.363
3279.56
-521.894
3285.76
-504.433
3276.44
-486.992
3253.47
-469.459
3217.85
-451.707
3168.93
-433.752
3106.13
-415.675
3031.1
-397.388
2945.57
-378.714
2847.99
-359.615
2735.84
-340.166
2609.32
-320.31
2469.45
-299.944
2314.47
-279.159
2144.51
-258.009
1964.3
-236.226
1773.05
-213.505
1560.41
-189.891
1323.38
-165.508
1078.17
-140.195
844.067
-113.555
624.987
-84.6126
412.123
-38.7318
156.388
8.26559
-103.257
55.0635
-237.607
79.0828
-344.611
88.9639
-370.814
91.7807
-304.883
88.3749
-184.481
76.2391
-99.0734
70.8863
101.143
74.7281
504.011
78.5216
808.638
86.2892
1003.23
98.2995
1103.89
110.998
1106.13
121.041
1025.47
126.691
886.311
129.571
719.845
129.573
545.641
133.402
370.824
143.765
337.011
92.3197
233.365
-30.7531
-751.606
-74.5716
-1755.15
-2269.79
-864.6
-1274.1
-839.957
-1398.95
-819.534
-1476.25
-801.5
-1543.91
-793.376
-1585.72
-802.417
-1583.18
-835.602
-1519.88
-892.06
-1389.75
-959.124
-1211.86
-1016.46
-1028.6
-1042.87
-874.127
-1014.86
-710.436
-926.573
-402.624
-841.059
88.8598
-810.825
492.039
-799.947
736.857
-787.64
942.217
-773.606
1158.79
-759.484
1382.15
-745.44
1604.58
-731.29
1821.29
-716.91
2028.81
-702.25
2224.53
-687.282
2406.48
-671.987
2572.84
-656.39
2722.49
-640.481
2854.7
-624.206
2968.86
-607.576
3064.25
-590.683
3140.75
-573.601
3198.89
-556.353
3239.24
-538.958
3262.16
-521.48
3268.28
-504.002
3258.96
-486.532
3236
-468.955
3200.28
-451.146
3151.12
-433.139
3088.13
-415.012
3012.97
-396.666
2927.22
-377.922
2829.25
-358.746
2716.67
-339.213
2589.78
-319.243
2449.48
-298.727
2293.96
-277.764
2123.54
-256.388
1942.92
-234.253
1750.92
-210.991
1537.15
-186.624
1299.01
-161.221
1052.77
-134.437
817.283
-105.334
595.884
-71.0748
377.864
-9.66171
94.9754
40.3369
-153.255
84.676
-281.946
108.737
-368.672
120.729
-382.805
125.152
-309.306
122.387
-181.717
100.097
-76.7831
79.7126
121.527
78.9059
504.817
80.8228
806.721
86.8821
997.174
97.5194
1093.25
109.3
1094.35
118.861
1015.91
124.345
880.827
127.124
717.066
127.284
545.481
129.871
368.236
154.885
311.998
175.466
212.784
77.285
-653.426
-43.6752
-1634.19
-2317.36
-849.325
-1291.04
-823.886
-1424.39
-804.467
-1495.67
-790.098
-1558.28
-789.922
-1585.89
-811.311
-1561.79
-858.537
-1472.66
-924.585
-1323.7
-991.266
-1145.18
-1039.25
-980.618
-1056.23
-857.143
-1027.76
-738.912
-939.049
-491.333
-834.516
-15.6739
-788.694
446.217
-779.496
727.659
-773.401
936.121
-763.272
1148.66
-751.276
1370.15
-738.799
1592.1
-726.024
1808.52
-712.803
2015.59
-699.074
2210.8
-684.848
2392.25
-670.15
2558.14
-655.027
2707.37
-639.477
2839.16
-623.467
2952.85
-607.033
3047.81
-590.28
3123.99
-573.288
3181.9
-556.086
3222.04
-538.704
3244.78
-521.22
3250.79
-503.72
3241.46
-486.208
3218.49
-468.564
3182.63
-450.678
3133.24
-432.596
3070.04
-414.395
2994.77
-395.961
2908.79
-377.116
2810.4
-357.837
2697.39
-338.187
2570.13
-318.067
2429.36
-297.365
2273.26
-276.182
2102.36
-254.505
1921.24
-231.916
1728.33
-207.995
1513.23
-182.722
1273.74
-156.046
1026.1
-127.356
788.593
-95.0236
563.552
-53.9743
336.815
16.0538
24.9473
66.9951
-204.197
105.297
-320.248
128.908
-392.283
141.59
-395.488
146.82
-314.535
145.213
-180.11
121.405
-52.9758
92.0562
150.877
84.6215
512.252
83.9609
807.381
87.6272
993.508
96.3103
1084.57
106.781
1083.88
115.645
1007.05
120.896
875.577
123.523
714.439
123.919
545.085
125.72
366.435
150.833
286.885
185.613
178.004
127.324
-595.137
1.29496
-1508.16
-2307.95
-830.893
-1309.19
-804.884
-1450.4
-787.692
-1512.86
-779.159
-1566.81
-789.952
-1575.1
-826.45
-1525.3
-888.291
-1410.81
-961.458
-1250.54
-1024.07
-1082.57
-1060.29
-944.398
-1066.56
-850.872
-1036.94
-768.527
-952.69
-575.585
-835.387
-132.976
-769.798
380.629
-755.64
713.501
-753.881
934.362
-749.131
1143.91
-740.71
1361.73
-730.451
1581.85
-719.386
1797.45
-707.65
2003.85
-695.176
2198.33
-681.964
2379.04
-668.078
2544.26
-653.597
2692.88
-638.54
2824.1
-622.9
2937.21
-606.741
3031.65
-590.185
3107.44
-573.32
3165.03
-556.185
3204.9
-538.829
3227.43
-521.34
3233.31
-503.811
3223.94
-486.243
3200.92
-468.514
3164.9
-450.53
3115.25
-432.353
3051.87
-414.052
2976.47
-395.505
2890.24
-376.533
2791.43
-357.127
2677.98
-337.336
2550.34
-317.041
2409.06
-296.13
2252.34
-274.693
2080.92
-252.666
1899.22
-229.56
1705.22
-204.905
1488.57
-178.612
1247.45
-150.458
997.942
-119.495
757.631
-83.0966
527.153
-30.8621
284.58
41.8495
-47.7643
93.2328
-255.58
129.194
-356.208
152.878
-415.967
166.514
-409.124
172.549
-320.57
171.539
-179.1
145.884
-27.3209
107.765
188.995
92.1647
527.852
87.9104
811.636
88.6388
992.779
94.8129
1078.39
103.553
1075.14
111.465
999.134
116.333
870.709
118.761
712.011
119.155
544.691
120.882
364.708
136.854
270.913
178.22
136.638
161.723
-578.641
45.2667
-1391.71
-2268.78
-810.933
-1327.84
-785.657
-1475.68
-772.81
-1525.71
-773.136
-1566.49
-797.986
-1550.25
-850.719
-1472.56
-924.215
-1337.32
-998.005
-1176.75
-1050.15
-1030.43
-1071.24
-923.307
-1065.75
-856.364
-1034.83
-799.443
-959.355
-651.061
-838.928
-253.403
-755.318
297.019
-731.744
689.927
-730.495
933.114
-730.536
1143.95
-726.948
1358.14
-720.045
1574.94
-711.25
1788.66
-701.33
1993.93
-690.433
2187.43
-678.548
2367.16
-665.738
2531.45
-652.105
2679.25
-637.701
2809.69
-622.558
2922.07
-606.772
3015.87
-590.484
3091.15
-573.794
3148.34
-556.757
3187.87
-539.441
3210.11
-521.952
3215.82
-504.389
3206.37
-486.749
3183.28
-468.915
3147.07
-450.811
3097.15
-432.515
3033.57
-414.089
2958.04
-395.398
2871.55
-376.273
2772.31
-356.711
2658.42
-336.75
2530.38
-316.25
2388.56
-295.097
2231.19
-273.365
2059.19
-250.932
1876.78
-227.233
1681.52
-201.739
1463.08
-174.265
1219.98
-144.367
968.044
-110.662
723.925
-69.0899
485.581
3.61738
211.873
72.0796
-116.227
118.421
-301.921
153.234
-391.022
177.091
-439.824
191.88
-423.913
199.246
-327.937
198.858
-178.712
172.386
-0.849357
127.104
234.278
102.066
552.89
92.6599
821.042
89.7677
995.672
92.8749
1075.29
99.443
1068.57
106.085
992.492
110.321
866.473
112.36
709.972
112.881
544.17
114.243
363.345
120.916
264.241
164.009
93.5454
177.903
-592.535
74.7418
-1288.55
-2191.35
-790.043
-1346.19
-767.144
-1498.58
-761.241
-1531.61
-773.675
-1554.05
-814.927
-1509
-882.917
-1404.57
-962.757
-1257.48
-1030.26
-1109.25
-1067.66
-993.027
-1073.29
-917.676
-1057.11
-872.542
-1024.39
-832.166
-957.974
-717.479
-841.745
-369.632
-744.361
199.635
-709.891
655.456
-705.633
928.856
-708.176
1146.5
-709.42
1359.39
-706.972
1572.49
-701.337
1783.02
-693.696
1986.29
-684.684
2178.42
-674.43
2356.9
-662.982
2520
-650.435
2666.7
-636.87
2796.13
-622.372
2907.57
-607.075
3000.57
-591.141
3075.22
-574.686
3131.89
-557.789
3170.97
-540.538
3192.86
-523.061
3198.34
-505.464
3188.77
-487.742
3165.56
-469.787
3129.11
-451.547
3078.91
-433.11
3015.13
-414.532
2939.46
-395.671
2852.69
-376.365
2753
-356.62
2638.68
-336.459
2510.22
-315.726
2367.83
-294.299
2209.76
-272.235
2037.13
-249.343
1853.89
-224.981
1657.16
-198.552
1436.65
-169.749
1191.17
-137.851
936.146
-100.935
687.009
-53.3763
438.023
32.6847
125.812
100.099
-183.64
142.637
-344.459
177.02
-425.405
201.854
-464.657
218.109
-440.168
227.137
-336.964
226.96
-178.536
200.669
25.4425
150.994
283.953
115.536
588.348
98.3337
838.244
90.5947
1003.41
89.9892
1075.89
93.9583
1064.6
99.0534
987.397
102.481
863.045
104.072
708.381
105.253
542.989
106.281
362.318
109.754
260.767
156.717
46.5823
184.016
-619.834
100.053
-1204.58
-2105.45
-769.231
-1363.05
-751.031
-1516.78
-755.2
-1527.44
-782.902
-1526.35
-841.402
-1450.5
-921.015
-1324.96
-1000.05
-1178.45
-1054.93
-1054.37
-1075.44
-972.518
-1066.97
-926.143
-1042.06
-897.453
-1007.52
-866.702
-949.217
-775.782
-842.085
-476.764
-735.316
92.8664
-690.335
610.475
-681.164
919.684
-683.594
1148.93
-688.296
1364.09
-690.651
1574.85
-689.145
1781.52
-684.503
1981.65
-677.774
2171.69
-669.444
2348.57
-659.645
2510.2
-648.446
2655.5
-635.939
2783.62
-622.258
2893.89
-607.584
2985.9
-592.107
3059.74
-575.964
3115.74
-559.258
3154.26
-542.109
3175.71
-524.664
3180.9
-507.038
3171.15
-489.23
3147.75
-471.144
3111.03
-452.752
3060.52
-434.156
2996.54
-415.403
2920.71
-396.345
2833.63
-376.833
2733.49
-356.879
2618.72
-336.49
2489.83
-315.494
2346.83
-293.766
2188.04
-271.333
2014.69
-247.933
1830.49
-222.844
1632.07
-195.392
1409.2
-165.115
1160.89
-130.956
901.987
-90.2182
646.272
-34.7507
382.555
56.8096
34.2516
124.294
-251.125
166.472
-386.637
200.915
-459.848
226.916
-490.659
244.87
-458.121
255.888
-347.983
256.208
-178.856
231.446
50.2045
180.877
334.522
135.139
634.086
106.672
866.711
91.6725
1018.41
86.1771
1081.39
86.9436
1063.83
90.2638
984.076
92.9511
860.358
94.4626
706.869
96.9981
540.453
98.9989
360.317
106.457
253.309
157.311
-4.27085
185.206
-647.729
107.798
-1127.18
-2004.91
-749.91
-1376.82
-739.368
-1527.32
-756.972
-1509.84
-802.226
-1481.1
-876.367
-1376.36
-961.293
-1240.03
-1031.81
-1107.93
-1069.71
-1016.47
-1073.61
-968.612
-1053.79
-945.97
-1022.68
-928.557
-986.869
-902.515
-935.292
-827.359
-839.682
-572.374
-727.445
-19.3709
-672.214
555.245
-657.828
905.298
-658.428
1149.53
-664.534
1370.19
-670.959
1581.27
-674.127
1784.69
-673.337
1980.86
-669.486
2167.84
-663.434
2342.52
-655.565
2502.33
-645.986
2645.93
-634.784
2772.42
-622.123
2881.23
-608.232
2972.01
-593.333
3044.84
-577.593
3100
-561.147
3137.82
-544.146
3158.71
-526.762
3163.51
-509.121
3153.51
-491.227
3129.86
-473.004
3092.81
-454.448
3041.96
-435.675
2977.77
-416.725
2901.76
-397.447
2814.35
-377.704
2713.74
-357.514
2598.53
-336.871
2469.19
-315.584
2325.55
-293.525
2165.98
-270.687
1991.86
-246.732
1806.54
-220.852
1606.19
-192.284
1380.63
-160.379
1128.99
-123.663
865.272
-78.2784
600.887
-9.11594
313.393
83.9903
-58.8546
147.377
-314.512
190.02
-429.279
224.838
-494.666
252.114
-517.934
271.985
-477.993
285.285
-361.283
287.099
-180.67
265.352
71.9512
217.335
382.539
163.928
687.493
122.04
908.598
96.4384
1044.01
83.9032
1093.92
80.2745
1067.46
81.3747
982.976
83.5005
858.232
85.5681
704.801
89.9789
536.042
94.4422
355.854
110.164
237.587
162.343
-56.45
184.879
-670.265
117.01
-1059.31
-1884.13
-733.825
-1385.49
-734.482
-1526.66
-768.593
-1475.73
-831.836
-1417.85
-917.036
-1291.16
-999.2
-1157.87
-1054.65
-1052.48
-1073.97
-997.147
-1063.55
-979.027
-1035.63
-973.896
-1000.77
-963.414
-964.395
-938.893
-918.181
-873.573
-833.889
-656.666
-719.434
-133.826
-654.354
490.165
-635.373
886.317
-633.771
1147.92
-639.497
1375.92
-648.453
1590.23
-656.032
1792.26
-659.723
1984.55
-659.485
2167.6
-656.208
2339.25
-650.586
2496.71
-642.897
2638.24
-633.261
2762.79
-621.853
2869.82
-608.931
2959.08
-594.754
3030.66
-579.527
3084.78
-563.423
3121.71
-546.63
3141.92
-529.346
3146.23
-511.711
3135.87
-493.74
3111.89
-475.377
3074.44
-456.65
3023.23
-437.687
2958.8
-418.52
2882.59
-398.998
2794.83
-379
2693.75
-358.55
2578.08
-337.624
2448.26
-316.02
2303.94
-293.601
2143.56
-270.324
1968.58
-245.766
1781.98
-219.031
1579.45
-189.252
1350.85
-155.551
1095.29
-115.937
825.657
-64.9952
549.945
27.6111
220.787
116.554
-147.798
170.596
-368.554
213.173
-471.856
248.63
-530.124
277.311
-546.615
299.289
-499.97
315.14
-377.134
319.394
-184.923
301.788
89.5568
259.262
425.065
203.349
743.406
149.882
962.066
111.582
1082.31
89.3538
1116.15
79.3003
1077.51
76.9973
985.279
78.2348
856.995
81.078
701.958
87.2554
529.865
94.5043
348.605
117.731
214.36
168.792
-107.51
184.235
-685.709
125.889
-1000.96
-1773.21
-723.065
-1386.63
-738.743
-1510.98
-791.28
-1423.19
-870.169
-1338.96
-959.095
-1202.23
-1030.29
-1086.67
-1066.69
-1016.09
-1068.57
-995.264
-1047.28
-1000.32
-1014.43
-1006.75
-977.858
-999.985
-941.533
-975.218
-899.429
-915.677
-824.9
-731.195
-710.401
-248.325
-635.821
415.585
-613.06
863.556
-609.86
1144.72
-614.356
1380.41
-624.183
1600.06
-635.114
1803.19
-643.33
1992.76
-647.355
2171.63
-647.486
2339.38
-644.53
2493.75
-639.024
2632.73
-631.218
2754.98
-621.313
2859.91
-609.575
2947.35
-596.289
3017.38
-581.705
3070.19
-566.043
3106.05
-549.532
3125.41
-532.4
3129.1
-514.801
3118.27
-496.767
3093.85
-478.27
3055.95
-459.369
3004.33
-440.204
2939.64
-420.802
2863.19
-401.016
2775.05
-380.741
2673.47
-360.007
2557.35
-338.773
2427.03
-316.824
2281.99
-294.018
2120.75
-270.266
1944.83
-245.059
1756.77
-217.403
1551.8
-186.314
1319.76
-150.636
1059.61
-107.7
782.721
-50.1616
492.407
54.2601
116.365
141.104
-234.642
193.099
-420.548
235.756
-514.513
272.153
-566.521
302.346
-576.808
326.592
-524.217
345.266
-395.807
352.745
-192.403
340.028
102.274
304.643
460.45
251.758
796.291
192.624
1021.2
143.419
1131.52
110.311
1149.26
91.7132
1096.11
83.961
993.031
82.8382
858.118
85.5082
699.288
92.3377
523.035
101.414
339.529
129.333
186.44
176.142
-154.319
183.427
-692.994
124.518
-942.051
-1657.18
-719.915
-1377.54
-754.098
-1476.8
-824.769
-1352.52
-913.744
-1249.99
-997.534
-1118.44
-1051.32
-1032.89
-1067.89
-999.515
-1055.49
-1007.66
-1027.06
-1028.75
-991.892
-1041.92
-955.04
-1036.84
-919.083
-1011.17
-879.911
-954.848
-813.678
-797.428
-700.877
-361.127
-616.319
331.028
-590.18
837.417
-586.242
1140.79
-589.702
1383.87
-599.272
1609.63
-612.109
1816.03
-624.193
2004.85
-632.738
2180.17
-636.907
2343.55
-637.162
2494.01
-634.204
2629.77
-628.507
2749.28
-620.361
2851.77
-610.04
2937.03
-597.843
3005.18
-584.056
3056.41
-568.955
3090.95
-552.816
3109.27
-535.898
3112.18
-518.378
3100.75
-500.305
3075.78
-481.686
3037.33
-462.613
2985.26
-443.239
2920.27
-423.587
2843.54
-403.518
2754.98
-382.945
2652.9
-361.903
2536.31
-340.336
2405.46
-318.018
2259.68
-294.797
2097.53
-270.538
1920.57
-244.634
1730.87
-215.99
1523.15
-183.484
1287.26
-145.619
1021.75
-98.7158
735.818
-31.6187
425.31
78.8491
5.89704
163.167
-318.959
214.848
-472.23
257.817
-557.482
295.253
-603.956
327.041
-608.596
353.723
-550.9
375.502
-417.586
386.822
-203.723
379.478
109.618
351.61
488.318
305.282
842.619
247.156
1079.33
192.374
1186.3
150.36
1191.27
122.701
1123.77
107.604
1008.13
101.79
863.931
102.117
698.961
107.553
517.6
116.694
330.388
145.237
157.898
184.206
-193.289
183.017
-691.805
129.448
-888.481
-1530.92
-726.585
-1355.62
-781.442
-1421.94
-866.831
-1267.14
-957.623
-1159.19
-1027.83
-1048.23
-1060.91
-999.816
-1059.76
-1000.66
-1037.18
-1030.25
-1004.9
-1061.03
-969.267
-1077.55
-932.92
-1073.18
-897.286
-1046.81
-859.806
-992.329
-800.43
-856.804
-691.529
-470.028
-596.289
235.788
-566.253
807.381
-562.193
1136.73
-565.499
1387.18
-574.509
1618.64
-587.998
1829.52
-602.796
2019.65
-615.533
2192.91
-624.122
2352.14
-628.17
2498.05
-628.232
2629.84
-624.973
2746.02
-618.851
2845.64
-610.19
2928.37
-599.299
2994.29
-586.492
3043.6
-572.093
3076.55
-556.432
3093.61
-539.808
3095.55
-522.419
3083.36
-504.341
3057.7
-485.62
3018.6
-466.383
2966.02
-446.798
2900.68
-426.884
2823.63
-406.515
2734.61
-385.626
2632.01
-364.255
2514.94
-342.33
2383.54
-319.619
2236.96
-295.958
2073.87
-271.157
1895.77
-244.51
1704.22
-214.807
1493.45
-180.769
1253.22
-140.47
981.446
-88.653
684.001
-1.66868
338.325
109.974
-105.746
184.403
-393.388
235.72
-523.547
279.126
-600.889
317.693
-642.522
351.242
-642.145
380.571
-580.228
405.745
-442.761
421.372
-219.349
419.707
111.283
398.99
509.035
360.158
881.451
307.121
1132.36
252.149
1241.27
205.184
1238.24
170.139
1158.82
147.289
1030.98
134.924
876.296
130.508
703.378
132.267
515.84
139.352
323.304
164.364
132.886
192.581
-221.506
183.015
-682.239
135.609
-841.076
-1424.56
-744.728
-1318.98
-819.938
-1346.73
-913.259
-1173.81
-996.464
-1075.99
-1047.07
-997.627
-1059.65
-987.232
-1044.76
-1015.55
-1016
-1059
-982.333
-1094.7
-947.255
-1112.62
-911.594
-1108.85
-875.911
-1082.49
-838.843
-1029.4
-784.685
-910.962
-681.936
-572.778
-575.985
129.837
-541.07
772.466
-537.147
1132.8
-541.254
1391.29
-550.136
1627.52
-563.66
1843.04
-579.954
2035.94
-596.012
2208.97
-608.94
2365.06
-617.228
2506.34
-620.842
2633.45
-620.434
2745.62
-616.634
2841.84
-609.885
2921.62
-600.53
2984.93
-588.905
3031.97
-575.375
3063.02
-560.323
3078.55
-544.086
3079.32
-526.894
3066.17
-508.857
3039.66
-490.063
2999.81
-470.679
2946.64
-450.883
2880.88
-430.7
2803.44
-410.018
2713.93
-388.796
2610.79
-367.075
2493.22
-344.77
2361.23
-321.642
2213.84
-297.516
2049.75
-272.141
1870.39
-244.702
1676.78
-213.867
1462.62
-178.172
1217.52
-135.165
938.439
-77.4473
626.283
36.2803
224.598
142.055
-211.521
205.206
-456.539
255.63
-573.971
299.639
-644.898
339.396
-682.279
374.869
-677.619
407.05
-612.409
435.884
-471.595
456.164
-239.629
460.387
107.06
446.233
523.19
414.163
913.52
367.073
1179.45
314.697
1293.65
265.989
1286.95
225.945
1198.86
196.354
1060.57
176.985
895.665
166.4
713.964
162.877
519.363
166.037
320.143
184.589
114.333
200.954
-237.871
183.472
-664.757
134.196
-791.799
-1309.84
-774.801
-1267.27
-866.602
-1254.93
-958.551
-1081.87
-1025.84
-1008.7
-1054.45
-969.013
-1049.63
-992.059
-1025.52
-1039.66
-993.842
-1090.68
-960.251
-1128.29
-926.003
-1146.87
-890.728
-1144.12
-854.413
-1118.81
-816.568
-1067.24
-765.824
-961.706
-670.926
-667.676
-556.541
15.4527
-514.887
730.812
-510.696
1128.61
-516.285
1396.88
-525.907
1637.14
-539.579
1856.72
-556.523
2052.88
-574.788
2227.23
-591.46
2381.74
-604.094
2518.98
-611.738
2641.09
-614.663
2748.54
-613.545
2840.73
-608.98
2917.05
-601.399
2977.35
-591.176
3021.75
-578.706
3050.55
-564.412
3064.26
-548.676
3063.58
-531.763
3049.26
-513.825
3021.73
-494.998
2980.98
-475.49
2927.13
-455.493
2860.89
-435.037
2782.99
-414.032
2692.92
-392.462
2589.22
-370.373
2471.13
-347.667
2338.53
-324.1
2190.27
-299.486
2025.13
-273.504
1844.41
-245.223
1648.5
-213.179
1430.57
-175.694
1180.04
-129.596
892.342
-64.4649
561.152
60.8358
99.2969
164.041
-314.725
224.354
-516.852
274.562
-624.179
319.497
-689.834
360.396
-723.177
397.861
-715.084
433.058
-647.605
465.777
-504.315
490.975
-264.827
501.233
96.8018
493.089
531.333
466.495
940.114
424.298
1221.65
374.77
1343.17
325.603
1336.12
282.117
1242.35
247.065
1095.62
221.284
921.446
204.358
730.89
195.016
528.705
193.187
321.972
204.056
103.465
209.12
-242.936
184.596
-640.232
141.337
-748.541
-1211.04
-815.438
-1202.41
-916.49
-1153.88
-997.18
-1001.18
-1043.29
-962.59
-1051.21
-961.096
-1033.57
-1009.69
-1004.32
-1068.91
-971.854
-1123.15
-938.911
-1161.24
-905.202
-1180.58
-869.711
-1179.61
-832.114
-1156.4
-792.517
-1106.84
-743.391
-1010.83
-656.208
-754.859
-536.765
-103.99
-487.341
681.388
-482.508
1123.78
-490.089
1404.46
-501.303
1648.35
-515.73
1871.14
-533.102
2070.26
-552.619
2246.75
-572.094
2401.21
-588.738
2535.62
-600.66
2653.02
-607.391
2755.27
-609.382
2842.72
-607.319
2914.99
-601.766
2971.8
-593.173
3013.16
-581.97
3039.35
-568.61
3050.9
-553.509
3048.48
-536.975
3032.72
-519.208
3003.96
-500.402
2962.18
-480.802
2907.53
-460.618
2840.7
-439.892
2762.26
-418.56
2671.59
-396.631
2567.29
-374.156
2448.65
-351.029
2315.4
-327.004
2166.24
-301.878
2000.01
-275.257
1817.79
-246.083
1619.33
-212.746
1397.23
-173.322
1140.61
-123.461
842.481
-46.0548
483.745
85.0786
-31.8364
182.658
-412.305
242.222
-576.416
292.747
-674.704
338.603
-735.689
380.633
-765.208
420.165
-754.616
458.507
-685.948
495.283
-541.091
525.593
-295.137
541.986
80.409
539.377
533.942
517.04
962.451
478.152
1260.54
430.497
1390.83
380.81
1385.8
334.428
1288.73
294.752
1135.3
263.377
952.821
240.628
753.639
225.693
543.64
218.615
329.051
221.849
100.23
216.958
-238.045
186.036
-609.311
136.135
-698.64
-1113.38
-863.186
-1128.87
-963.621
-1053.44
-1024.99
-939.811
-1048.69
-938.888
-1039.82
-969.96
-1014.12
-1035.39
-982.694
-1100.34
-950.496
-1155.34
-918.071
-1193.66
-884.266
-1214.38
-847.846
-1216.03
-808.403
-1195.85
-766.404
-1148.84
-717.357
-1059.88
-636.257
-835.959
-514.368
-225.878
-457.828
624.847
-452.589
1118.54
-462.402
1414.27
-475.749
1661.7
-491.695
1887.09
-509.866
2088.43
-530.161
2267.04
-551.475
2422.52
-571.407
2555.55
-587.491
2669.1
-598.359
2766.14
-603.906
2848.26
-604.719
2915.8
-601.481
2968.56
-594.759
3006.43
-585.043
3029.63
-572.811
3038.67
-558.503
3034.17
-542.467
3016.69
-524.961
2986.45
-506.24
2943.46
-486.592
2887.88
-466.246
2820.36
-445.259
2741.27
-423.598
2649.93
-401.303
2544.99
-378.428
2425.78
-354.862
2291.83
-330.359
2141.74
-304.7
1974.35
-277.408
1790.5
-247.287
1589.21
-212.569
1362.52
-171.041
1099.09
-116.343
787.784
-13.1732
380.575
116.903
-161.913
200.474
-495.876
259.686
-635.628
310.404
-725.422
356.891
-782.176
400.09
-808.407
441.775
-796.301
483.331
-727.503
524.262
-582.022
559.8
-330.675
582.389
57.8206
584.894
531.436
565.843
981.502
528.855
1297.53
481.874
1437.81
431.114
1436.56
381.867
1337.97
337.987
1179.18
301.65
989.157
273.705
781.584
253.657
563.688
241.515
341.193
237.767
103.978
224.576
-224.854
188.015
-572.75
139.585
-650.21
-1008.16
-912.898
-1053.09
-1002.42
-963.921
-1040.11
-902.115
-1043.8
-935.199
-1023.17
-990.594
-993.295
-1065.27
-961.413
-1132.22
-929.652
-1187.1
-897.18
-1226.13
-862.529
-1249.04
-824.547
-1254.01
-782.897
-1237.5
-738.237
-1193.5
-688.301
-1109.82
-611.945
-912.315
-489.583
-348.24
-426.046
561.31
-420.837
1113.33
-433.047
1426.48
-448.809
1677.46
-466.919
1905.2
-486.586
2108.09
-507.761
2288.22
-530.266
2445.03
-552.605
2577.89
-572.345
2688.84
-587.393
2781.19
-596.866
2857.74
-600.969
2919.9
-600.38
2967.97
-595.793
3001.85
-587.793
3021.63
-576.894
3027.77
-563.557
3020.83
-548.162
3001.29
-531.026
2969.32
-512.47
2924.9
-492.83
2868.24
-472.355
2799.88
-451.124
2720.04
-429.14
2627.95
-406.475
2522.33
-383.19
2402.49
-359.168
2267.81
-334.172
2116.75
-307.958
1948.13
-279.961
1762.5
-248.838
1558.08
-212.651
1326.33
-168.855
1055.29
-108.286
727.215
21.5779
250.711
144.197
-284.532
217.832
-569.51
276.479
-694.276
327.374
-776.316
374.37
-829.172
418.79
-852.827
462.663
-840.173
507.428
-772.268
552.553
-627.147
593.37
-371.492
622.18
29.0104
629.415
524.201
612.918
998
576.767
1333.68
529.447
1485.13
477.009
1489
424.771
1390.21
376.906
1227.04
336.039
1030.02
303.395
814.227
278.67
588.414
261.784
358.078
251.871
113.891
231.814
-204.797
190.493
-531.429
146.2
-605.917
-916.713
-958.82
-982.223
-1029.09
-893.646
-1043.12
-888.093
-1031.42
-946.891
-1003.73
-1018.29
-972.27
-1096.73
-940.576
-1163.92
-908.848
-1218.83
-875.605
-1259.38
-839.446
-1285.19
-799.483
-1293.98
-755.538
-1281.44
-708.332
-1240.7
-657.09
-1161.06
-584.5
-984.905
-463.109
-469.631
-391.746
489.947
-387.029
1108.61
-401.875
1441.33
-420.282
1695.87
-440.941
1925.86
-462.799
2129.95
-485.394
2310.81
-508.953
2468.59
-532.952
2601.89
-555.575
2711.46
-574.49
2800.1
-588.055
2871.3
-595.833
2927.68
-598.273
2970.41
-596.123
2999.7
-590.083
3015.59
-580.733
3018.42
-568.559
3008.66