/*--------------------------------*- C++ -*----------------------------------*\
| =========                 |                                                 |
| \\      /  F ield         | OpenFOAM: The Open Source CFD Toolbox           |
|  \\    /   O peration     | Version:  4.1                                   |
|   \\  /    A nd           | Web:      www.OpenFOAM.org                      |
|    \\/     M anipulation  |                                                 |
\*---------------------------------------------------------------------------*/
FoamFile
{
    version     2.0;
    format      ascii;
    class       volVectorField;
    location    "12";
    object      U;
}
// * * * * * * * * * * * * * * * * * * * * * * * * * * * * * * * * * * * * * //

dimensions      [0 1 -1 0 0 0 0];

internalField   nonuniform List<vector> 
6785
(
(1.94852e-14 0.684592 15.7418)
(9.5433e-15 -5.1303 12.0537)
(-2.49716e-15 -4.2925 12.1841)
(4.04294e-15 -3.72377 12.0221)
(1.45395e-15 -3.11932 11.901)
(-3.85719e-17 -2.66648 11.7153)
(4.79397e-15 -2.31763 11.4881)
(2.72275e-16 -2.07346 11.2168)
(-4.37827e-16 -1.90797 10.9139)
(2.13366e-15 -1.81723 10.5843)
(7.35262e-16 -1.92245 10.165)
(-1.79483e-16 -2.37182 9.5601)
(5.38478e-16 -2.68977 8.9698)
(-4.17858e-16 -1.33554 8.92614)
(-2.02875e-15 1.73304 7.64145)
(2.39118e-14 -5.63789 22.1817)
(1.6059e-14 -14.7671 21.3398)
(-9.04626e-17 -13.2426 20.4984)
(1.92553e-15 -11.8214 19.6219)
(4.93151e-15 -11.2269 18.5971)
(-8.55339e-16 -10.7092 17.6048)
(1.88426e-14 -10.1209 16.6521)
(8.57469e-16 -9.54484 15.6955)
(1.49875e-16 -8.9791 14.7276)
(1.93808e-14 -8.37634 13.7517)
(2.80954e-15 -7.75128 12.7738)
(5.79048e-16 -7.27678 11.7831)
(7.2641e-15 -7.01214 10.6938)
(1.56041e-15 -5.78424 8.97407)
(-1.91864e-15 -1.73327 4.85331)
(7.11582e-15 -7.89599 22.1869)
(1.57305e-14 -16.7498 24.7015)
(3.28008e-15 -13.8114 23.9906)
(2.69882e-15 -12.4976 22.6551)
(4.31448e-15 -11.8331 21.2611)
(-3.10118e-15 -10.989 20.0205)
(-2.66611e-15 -10.1074 18.79)
(-3.45642e-15 -9.26108 17.5387)
(-1.13806e-15 -8.43693 16.2752)
(1.87104e-17 -7.62026 15.0227)
(1.62221e-15 -6.79714 13.8035)
(-1.2535e-15 -5.9687 12.4326)
(-1.09739e-14 -4.99138 10.3269)
(1.18192e-15 -3.27578 6.89106)
(-8.88403e-16 -0.662739 2.39983)
(1.5258e-14 -8.14294 17.9866)
(1.63135e-14 -16.3386 24.4548)
(1.18749e-14 -13.4362 23.9537)
(5.00586e-15 -12.5307 22.1184)
(5.3161e-16 -11.7972 20.6138)
(5.73065e-15 -10.8465 19.2819)
(-7.82084e-16 -9.96769 17.9217)
(3.89978e-15 -9.1382 16.557)
(3.84973e-15 -8.34545 15.2038)
(-1.70242e-15 -7.59652 13.8757)
(-2.3239e-15 -6.83616 12.5325)
(2.06658e-15 -5.87486 10.8638)
(-3.9614e-15 -4.38668 8.1981)
(-8.87544e-15 -2.24497 3.97665)
(2.32761e-14 0.0132283 -1.35169)
(1.189e-14 -7.32237 13.9162)
(1.75784e-14 -15.3602 23.7134)
(3.7199e-15 -13.9048 24.0464)
(-3.91134e-16 -13.0907 21.9522)
(1.52013e-17 -12.2993 20.3344)
(2.15643e-15 -11.3797 18.9611)
(2.28628e-16 -10.5631 17.5517)
(6.28112e-15 -9.77011 16.1489)
(-2.06054e-15 -8.98462 14.7759)
(-3.64225e-15 -8.22697 13.4373)
(-8.65794e-15 -7.46146 12.0838)
(-1.37615e-14 -6.51728 10.45)
(-1.313e-14 -5.04674 8.04606)
(-1.21921e-14 -3.17271 4.57078)
(-1.66859e-14 -1.17728 1.48121)
(2.31323e-14 -6.12141 10.8658)
(1.04837e-14 -14.1685 22.6769)
(2.15345e-15 -14.3405 24.334)
(-4.4164e-15 -13.5268 22.4681)
(1.85483e-15 -12.5726 20.7482)
(-4.70773e-15 -11.6379 19.3225)
(-2.81431e-15 -10.8169 17.8999)
(-5.55572e-15 -9.99795 16.4885)
(8.85095e-15 -9.1719 15.1057)
(-5.78839e-15 -8.36594 13.756)
(-8.27162e-15 -7.55881 12.4009)
(1.76628e-15 -6.6339 10.8193)
(-2.20883e-14 -5.23972 8.63835)
(-8.80249e-15 -3.66768 5.6016)
(-2.6927e-14 -1.44572 3.03341)
(1.96142e-14 -5.11584 8.83077)
(2.19282e-14 -13.0031 21.5794)
(9.53004e-15 -14.3004 24.2371)
(5.34193e-15 -13.5824 22.8804)
(-2.91097e-15 -12.5407 21.1363)
(-4.5972e-15 -11.603 19.6452)
(-2.75002e-15 -10.7728 18.2087)
(-9.08889e-15 -9.93425 16.7934)
(2.06219e-15 -9.095 15.4009)
(-9.05766e-15 -8.2816 14.0385)
(-9.28973e-15 -7.47082 12.6761)
(1.14757e-14 -6.57849 11.097)
(8.73177e-16 -5.1889 8.98972)
(-1.36921e-14 -3.93187 6.0945)
(1.87242e-14 -1.5236 3.98191)
(-1.51117e-15 -4.63879 8.02877)
(2.21002e-14 -12.2046 20.839)
(1.25767e-14 -14.0441 23.8082)
(-5.23898e-15 -13.4672 23.0232)
(-3.12714e-15 -12.4693 21.3223)
(3.0593e-15 -11.5594 19.7838)
(-9.62511e-16 -10.7303 18.3376)
(4.42117e-15 -9.89161 16.9198)
(1.29407e-15 -9.06127 15.5205)
(-1.7477e-15 -8.25811 14.1511)
(-5.12617e-15 -7.45141 12.782)
(2.45885e-15 -6.57648 11.1722)
(1.77294e-15 -5.10382 9.06552)
(-9.72607e-15 -4.07095 6.15757)
(7.0124e-15 -1.53898 4.35349)
(1.12305e-14 -4.5153 7.86556)
(1.94724e-14 -11.7279 20.3521)
(1.59426e-14 -13.8053 23.2588)
(6.29948e-15 -13.3802 23.0332)
(6.25348e-16 -12.4953 21.4187)
(7.5528e-15 -11.6019 19.8603)
(7.20075e-16 -10.7646 18.4125)
(8.21875e-16 -9.92716 16.9946)
(-1.62687e-14 -9.103 15.5926)
(1.41361e-15 -8.30395 14.2212)
(2.29149e-18 -7.491 12.8479)
(-3.37177e-15 -6.6234 11.1911)
(2.02635e-15 -5.03713 9.07359)
(-9.58093e-15 -4.21775 6.20733)
(-1.14959e-14 -1.61243 4.64923)
(9.40467e-15 -4.43751 7.62456)
(1.94883e-14 -11.3652 19.8765)
(1.90565e-14 -13.6254 22.7516)
(1.86764e-15 -13.3537 23.0105)
(1.33199e-15 -12.5942 21.5167)
(-7.63094e-15 -11.6944 19.9557)
(-1.0782e-14 -10.8396 18.5055)
(5.33667e-16 -10.0002 17.087)
(2.05509e-15 -9.17547 15.6846)
(-1.6446e-15 -8.37451 14.3124)
(-1.85734e-15 -7.54735 12.9358)
(-7.59643e-15 -6.68423 11.2247)
(3.33892e-15 -4.99229 9.09903)
(-9.9128e-15 -4.38196 6.33927)
(-1.55917e-14 -1.74011 4.99184)
(3.42058e-16 -4.25293 7.09875)
(1.67005e-14 -10.9738 19.2977)
(6.47205e-15 -13.4606 22.3358)
(-3.06025e-15 -13.3544 23.0069)
(1.22319e-14 -12.7193 21.6665)
(-2.17831e-14 -11.8097 20.1106)
(-5.45109e-15 -10.9364 18.6474)
(1.72414e-15 -10.093 17.221)
(-1.52196e-14 -9.26314 15.8144)
(3.05085e-15 -8.45856 14.4361)
(-6.2439e-16 -7.61137 13.0536)
(-2.04646e-14 -6.75362 11.288)
(-1.18399e-14 -4.97707 9.15498)
(-4.97984e-14 -4.54722 6.50538)
(-4.30862e-14 -1.87492 5.33943)
(-7.37478e-15 -3.99462 6.48112)
(1.81217e-14 -10.5416 18.7167)
(-4.02645e-15 -13.2438 21.9901)
(-3.58524e-15 -13.2733 22.9895)
(1.65996e-16 -12.7438 21.7888)
(-1.28334e-14 -11.8258 20.2562)
(-1.69729e-15 -10.9476 18.7898)
(-3.28841e-15 -10.107 17.3616)
(-9.77311e-15 -9.2781 15.9555)
(-1.48604e-14 -8.4768 14.5722)
(-1.69264e-15 -7.61503 13.1743)
(-1.48567e-14 -6.75086 11.3383)
(-1.20962e-14 -4.91149 9.20484)
(-3.14331e-14 -4.70479 6.70842)
(-3.36398e-14 -2.00039 5.66502)
(-1.17053e-14 -3.96747 6.27168)
(1.62547e-14 -10.2795 18.3839)
(1.93498e-15 -13.146 21.804)
(-1.56563e-15 -13.3112 23.1161)
(2.50825e-15 -12.9021 22.0287)
(-1.09129e-14 -11.9705 20.4745)
(-1.00439e-14 -11.0588 18.9403)
(5.26172e-15 -10.1895 17.4599)
(-1.69801e-14 -9.32773 16.0104)
(-1.30385e-14 -8.50929 14.5821)
(1.92985e-15 -7.59684 13.151)
(-1.94998e-14 -6.74191 11.2036)
(-1.85687e-14 -4.74953 9.00311)
(-2.61267e-14 -4.6716 6.49139)
(-3.71139e-14 -1.98676 5.65777)
(-2.7543e-14 -3.66385 6.11193)
(1.14709e-14 -9.63515 17.9329)
(-1.6949e-15 -12.3541 21.4771)
(6.79602e-16 -12.4754 22.8489)
(2.18238e-15 -12.1314 21.8772)
(-1.09348e-14 -11.2749 20.5508)
(-4.95303e-15 -10.494 19.199)
(3.96175e-15 -9.71816 17.8235)
(-1.96113e-14 -8.94003 16.4515)
(-8.46257e-15 -8.17008 15.064)
(-5.61127e-15 -7.33205 13.5717)
(-2.56236e-14 -6.38111 11.584)
(-1.48425e-14 -4.84391 9.48808)
(-3.36367e-14 -4.91861 7.54914)
(-3.36642e-14 -2.06932 6.11904)
(-2.12326e-14 -6.6396 11.9222)
(1.21634e-14 -12.3035 21.4872)
(1.72138e-15 -14.7101 23.9633)
(-3.59016e-15 -14.7975 24.7702)
(-1.32725e-15 -13.96 23.0762)
(-9.1107e-15 -12.4209 20.8367)
(-3.2287e-15 -10.8903 18.5793)
(-1.2754e-15 -9.50911 16.6497)
(-1.70944e-14 -8.22106 14.7664)
(-9.33998e-15 -7.05986 12.9321)
(-1.79535e-14 -5.65785 10.6508)
(-2.60757e-14 -4.04667 7.80595)
(-2.78924e-14 -2.39687 5.03214)
(-3.98245e-14 -1.81724 2.31736)
(-1.48025e-14 -0.301248 0.627976)
(-1.87692e-15 0.135963 -1.21049)
(-2.27806e-15 -0.00182047 -0.819666)
(-1.28375e-15 0.143633 -0.202646)
(-1.05179e-15 0.171901 -0.29792)
(-9.86898e-16 0.216499 -0.173606)
(-1.68362e-15 0.146177 0.0638939)
(-7.81568e-16 0.235905 0.218787)
(2.08537e-16 0.309525 0.0325146)
(2.20601e-15 0.295622 -0.00138019)
(2.23906e-14 0.108527 -0.0295241)
(7.38551e-15 0.25355 0.0942985)
(6.6405e-15 0.434381 0.0724548)
(6.21934e-15 0.319086 -0.128479)
(4.74502e-15 0.381667 -0.0203982)
(4.85551e-15 0.505738 -0.147665)
(4.86998e-15 0.516926 -0.19571)
(4.70104e-15 0.443121 -0.386902)
(4.99613e-15 0.462171 -0.248006)
(4.92554e-15 0.600397 -0.261459)
(5.17169e-15 0.718237 -0.545237)
(4.09346e-15 0.634288 -0.363776)
(3.9179e-15 0.778005 -0.427013)
(4.56998e-15 0.79287 -0.45364)
(4.75005e-15 0.852045 -0.706448)
(3.46887e-15 0.736945 -0.499322)
(3.38578e-15 0.905182 -0.535731)
(1.53309e-15 0.92788 -0.553074)
(1.71004e-15 1.06159 -0.779225)
(5.50536e-16 0.912576 -0.554223)
(3.46352e-16 0.987699 -0.549608)
(5.14867e-16 1.31646 -0.733564)
(-4.17207e-16 1.03269 -0.51389)
(-1.9062e-16 1.17649 -0.527577)
(-7.0382e-16 1.17948 -0.540994)
(-6.17316e-16 1.41941 -0.674173)
(-1.14126e-16 1.15113 -0.479089)
(-3.79284e-17 1.19269 -0.481764)
(4.25379e-16 1.63595 -0.556123)
(8.66922e-16 1.21796 -0.407018)
(1.03008e-15 1.34911 -0.419243)
(1.63185e-15 1.34371 -0.441156)
(2.6882e-15 1.68482 -0.486973)
(2.387e-15 1.28841 -0.379062)
(2.54809e-15 1.3967 -0.38717)
(2.54578e-15 1.3888 -0.415633)
(4.54846e-15 1.72536 -0.421601)
(2.75916e-15 1.32499 -0.31943)
(2.66157e-15 1.34164 -0.348476)
(2.83678e-15 1.71025 -0.280381)
(2.99673e-15 1.26123 -0.240993)
(2.91472e-15 1.34489 -0.223409)
(2.74137e-15 1.33254 -0.24613)
(3.06661e-15 1.56966 -0.0886543)
(2.15788e-15 1.18541 -0.0851725)
(1.34878e-15 1.23658 -0.0583889)
(2.51619e-15 1.2251 -0.0810611)
(2.58107e-15 1.37954 0.147097)
(2.44095e-15 1.04425 0.0562845)
(8.30254e-16 1.05429 0.00835059)
(-2.50468e-16 1.15838 0.272881)
(4.90524e-17 0.849912 0.120278)
(-6.4162e-17 0.874772 0.0855907)
(-2.48818e-15 0.864959 0.0407103)
(7.19624e-15 0.884721 0.325642)
(1.00783e-14 0.630401 0.120559)
(1.23217e-14 0.648502 0.0501298)
(2.07998e-14 0.589372 0.20155)
(2.79643e-15 0.391727 -0.0711934)
(2.37252e-17 0.388348 -0.0227806)
(-1.07935e-15 0.446627 -0.00421197)
(-4.95857e-15 0.171433 0.771433)
(-9.19737e-15 0.0723646 1.57611)
(-1.01123e-14 -0.0136518 1.83957)
(-9.39247e-15 0.0200522 1.84945)
(-1.65922e-14 -0.786445 3.2411)
(-9.55786e-15 -0.783294 3.14911)
(-1.20776e-14 -0.926679 3.34407)
(-1.80501e-14 -2.01034 5.43031)
(-1.45256e-14 -2.20959 4.59043)
(-1.57159e-14 -2.40565 4.86466)
(-1.94786e-14 -2.63012 5.5683)
(-1.88107e-14 -2.70312 5.6835)
(-1.88702e-14 -3.05595 5.91611)
(-1.96002e-14 -3.53738 8.48711)
(-2.14973e-14 -3.65777 7.81706)
(-2.39696e-14 -3.94083 8.25747)
(-2.41417e-14 -3.96802 8.42996)
(-2.34136e-14 -4.05726 8.6082)
(-2.28579e-14 -4.13275 8.8035)
(-2.21097e-14 -4.18368 9.02945)
(-2.07033e-14 -4.31271 9.40393)
(-1.89093e-14 -4.59193 9.87293)
(-1.88745e-14 -4.74952 12.1194)
(-1.79009e-14 -5.22007 11.5062)
(-1.71322e-14 -5.39216 11.8244)
(-1.6759e-14 -5.37996 12.055)
(-1.62162e-14 -5.56349 12.6249)
(-1.59606e-14 -5.52507 12.7279)
(-1.56067e-14 -5.57058 12.9701)
(-1.52373e-14 -5.63873 13.2085)
(-1.4844e-14 -5.85182 13.5034)
(-9.37581e-15 -6.06962 16.0721)
(-9.10082e-15 -6.43808 15.499)
(-8.74408e-15 -6.56134 15.7838)
(-8.47581e-15 -6.61506 15.9683)
(-8.0176e-15 -6.6686 16.2131)
(-7.09212e-15 -6.7373 16.5691)
(-6.16765e-15 -6.82722 16.9628)
(-6.39888e-15 -6.78778 17.1251)
(-6.28526e-15 -6.8474 17.3724)
(-6.25014e-15 -7.02724 17.6371)
(-6.54515e-15 -6.90292 19.6516)
(-8.37467e-15 -7.53699 19.1258)
(-8.05005e-15 -7.5922 19.4001)
(-7.82526e-15 -7.66761 19.5821)
(-7.50209e-15 -7.7459 19.8118)
(-7.01143e-15 -7.76881 20.0718)
(-5.24653e-15 -7.81223 20.4909)
(-4.93359e-15 -7.80709 20.7475)
(-5.11822e-15 -7.94416 20.9496)
(-6.48661e-15 -7.55092 22.0955)
(-6.18639e-15 -8.20208 21.4236)
(-6.49952e-15 -8.215 21.8265)
(-6.67156e-15 -8.32303 22.1253)
(-6.63508e-15 -8.33461 22.2526)
(-6.72738e-15 -8.40281 22.4439)
(-6.80104e-15 -8.38907 22.6385)
(-7.01023e-15 -8.33562 22.885)
(-7.58499e-15 -8.49602 23.3465)
(-5.01645e-15 -7.17693 22.7639)
(-5.31259e-15 -8.19288 22.4465)
(-4.89612e-15 -8.1097 22.5728)
(-4.47774e-15 -8.15903 22.6775)
(-3.46857e-15 -8.24441 22.9518)
(-3.23759e-15 -8.2397 22.9981)
(-3.17541e-15 -8.18777 22.9553)
(-3.01881e-15 -8.1167 22.9004)
(-2.73369e-15 -7.98028 22.7593)
(-5.17954e-15 -6.13777 20.2716)
(-3.33597e-15 -6.82553 20.7066)
(-3.04422e-15 -6.58154 20.3806)
(-2.88721e-15 -6.62596 20.1194)
(-2.73701e-15 -6.59566 19.7609)
(-2.54227e-15 -6.58619 19.325)
(-1.13451e-15 -6.52852 18.7168)
(-1.26006e-15 -6.4709 18.2367)
(-1.31418e-15 -6.26486 17.5763)
(-1.45946e-15 -5.75605 16.7725)
(-2.56371e-15 -3.11902 10.9369)
(-2.36736e-15 -3.8665 13.326)
(-2.84604e-15 -3.2466 11.9706)
(-4.12469e-15 -3.31539 10.9605)
(-5.42139e-15 -3.08842 9.57252)
(-7.17271e-15 -3.05121 7.84212)
(-1.07498e-14 -2.93402 5.3609)
(-1.42448e-14 -2.44352 2.85366)
(-1.30759e-14 -1.90121 1.77948)
(-6.12938e-15 -0.723793 -1.44067)
(-1.61085e-14 -1.48527 8.30579)
(-1.48194e-14 0.412231 6.74714)
(-5.34785e-15 1.84554 -1.54172)
(-9.0162e-15 1.10213 -2.10979)
(-1.591e-14 1.13906 -1.5138)
(-1.05719e-14 1.52784 -0.699198)
(-1.83268e-14 1.06639 -0.745264)
(-1.36897e-14 1.14153 -0.49594)
(-1.88045e-14 1.12688 -0.510663)
(-2.55233e-14 1.06309 -0.426117)
(-1.77177e-14 0.853975 -0.371707)
(-2.18021e-14 0.862272 -0.28895)
(-2.52916e-14 0.790163 -0.159219)
(-1.64848e-14 0.538321 -0.222532)
(-2.30638e-14 0.680306 -0.0841267)
(-1.70347e-14 0.380244 -0.122345)
(-2.35306e-14 0.49687 -0.0222329)
(-2.49424e-14 0.417272 0.0169276)
(-1.54686e-14 0.202006 0.00348085)
(-2.97278e-14 0.278463 0.0586816)
(-2.36174e-14 -0.0253043 0.107999)
(-2.24302e-14 0.481029 0.109161)
(-9.10865e-15 -0.227442 0.189913)
(-5.71728e-15 -0.355071 0.293003)
(-7.76389e-15 0.0817719 0.373894)
(-7.37558e-15 -0.167027 0.460499)
(-3.67726e-15 -0.422094 0.418965)
(-5.34227e-15 -0.998554 0.619032)
(-5.69408e-15 -0.74931 0.525122)
(-1.02599e-16 -0.891635 0.826624)
(-8.71944e-16 -1.17717 0.782775)
(-1.57618e-15 -1.20148 0.642253)
(-2.40767e-15 -1.93982 0.941099)
(-1.88271e-15 -1.36646 0.693376)
(-2.71731e-15 -2.34277 1.07962)
(-2.21629e-15 -2.67415 0.898217)
(-1.13822e-15 -1.97328 0.7248)
(-1.77884e-15 -2.69192 1.07108)
(-1.38723e-15 -2.83908 0.853729)
(-5.82994e-16 -2.73893 0.680277)
(-9.42191e-16 -3.94163 0.963364)
(-6.57955e-16 -2.63128 0.666035)
(-1.10772e-15 -3.79538 0.988322)
(-9.68231e-16 -3.70896 0.711443)
(-9.53571e-16 -3.34369 0.541138)
(-1.18212e-15 -4.70859 0.745011)
(-2.312e-16 -3.19516 0.468523)
(1.73614e-16 -4.89359 0.677682)
(-3.08034e-15 -4.60859 0.389988)
(-1.07853e-15 -3.4691 0.263447)
(-8.00249e-16 -4.78408 0.318958)
(-5.74915e-16 -4.47818 0.0664177)
(-4.66412e-16 -3.95321 0.0112981)
(-7.89905e-16 -5.37408 -0.0161361)
(-8.90723e-16 -3.43924 -0.101106)
(-1.06541e-15 -4.91648 -0.217237)
(-2.309e-16 -4.32156 -0.409856)
(2.17777e-16 -3.68554 -0.387684)
(3.37696e-16 -4.94612 -0.58954)
(7.59357e-16 -3.14076 -0.519611)
(9.29686e-16 -4.57151 -0.87173)
(1.1407e-15 -3.83438 -0.973463)
(9.36142e-16 -2.75358 -0.867389)
(1.51795e-15 -3.66793 -1.42228)
(-3.03345e-15 -2.99086 -1.45438)
(-5.4965e-16 -2.29865 -1.24599)
(-2.62651e-16 -2.95963 -1.85487)
(-1.10537e-15 -1.38625 -1.44401)
(-1.43108e-15 -2.01647 -2.37786)
(-1.43427e-15 -1.18695 -2.29889)
(1.29927e-16 -0.515451 -1.95031)
(-5.08937e-16 -1.5115 -2.62424)
(-1.31605e-15 0.820401 -1.11965)
(-4.24393e-15 0.514408 -2.21662)
(-5.82394e-16 0.683113 -3.92736)
(3.21233e-16 1.86361 -2.68873)
(1.39249e-15 2.68816 -3.67913)
(1.4912e-15 3.54852 -5.37031)
(8.91104e-16 3.69153 -3.50022)
(1.08096e-15 5.64191 -5.6922)
(8.54222e-16 5.2122 -3.96459)
(9.80639e-16 7.21652 -6.07649)
(9.55375e-16 -0.484264 11.8039)
(9.52792e-16 -0.503829 11.8246)
(9.51239e-16 -0.519826 11.8348)
(9.4934e-16 -0.539211 11.8482)
(9.47377e-16 -0.562465 11.8616)
(9.45266e-16 -0.589828 11.8759)
(9.42998e-16 -0.621782 11.8911)
(9.40544e-16 -0.658743 11.9074)
(9.37875e-16 -0.701171 11.9249)
(9.34954e-16 -0.749542 11.9439)
(9.31742e-16 -0.804361 11.9645)
(9.2819e-16 -0.866242 11.987)
(9.24244e-16 -0.935951 12.0116)
(9.19837e-16 -1.01433 12.0387)
(9.14894e-16 -1.10216 12.0687)
(9.09325e-16 -1.20038 12.1018)
(9.03024e-16 -1.31007 12.1385)
(8.95869e-16 -1.43237 12.1792)
(8.87713e-16 -1.56855 12.2246)
(8.78386e-16 -1.71999 12.2752)
(8.67686e-16 -1.88824 12.3316)
(8.55382e-16 -2.07512 12.3946)
(8.41198e-16 -2.2824 12.4647)
(8.2482e-16 -2.51211 12.5427)
(8.05886e-16 -2.76642 12.6294)
(7.83985e-16 -3.04759 12.7253)
(7.58662e-16 -3.35803 12.831)
(7.29424e-16 -3.70007 12.9468)
(6.95754e-16 -4.07591 13.0728)
(6.57142e-16 -4.48736 13.2085)
(6.13126e-16 -4.93541 13.3528)
(5.63361e-16 -5.41967 13.5034)
(5.07705e-16 -5.93754 13.6573)
(4.46339e-16 -6.48301 13.8093)
(3.79897e-16 -7.04493 13.9527)
(3.09616e-16 -7.60477 14.0783)
(2.37462e-16 -8.13375 14.1744)
(1.66207e-16 -8.58932 14.2273)
(9.94053e-17 -8.91065 14.2208)
(4.11738e-17 -9.01383 14.1376)
(-2.94335e-18 -8.7907 13.9628)
(-1.5657e-17 -8.09361 13.695)
(-5.72197e-17 -6.1811 13.1054)
(-1.79308e-15 1.09109 8.92115)
(-8.62269e-15 10.1367 -3.91404)
(-7.62168e-15 7.80255 0.50617)
(-5.80132e-15 -1.43017 5.62337)
(-5.32626e-15 -5.4384 7.66189)
(-4.83123e-15 -9.81661 9.2542)
(-4.1762e-15 -13.8115 11.0925)
(-3.48455e-15 -16.9759 13.1808)
(-2.89006e-15 -18.9587 14.8897)
(-2.51387e-15 -20.0976 15.8499)
(-2.57725e-15 -20.7597 16.1696)
(-3.18824e-15 -20.9566 16.428)
(-4.03029e-15 -20.3256 16.7299)
(-4.10974e-15 -17.6577 16.2164)
(-2.53931e-15 -12.1942 14.3272)
(-6.65764e-16 -7.04862 13.1781)
(-7.67119e-16 -4.88395 14.427)
(-1.05211e-15 -2.21928 14.8504)
(-1.00516e-15 1.05136 14.6411)
(-1.23992e-15 4.23243 14.8414)
(-1.75358e-15 7.30018 15.189)
(-2.61935e-15 10.1308 15.7128)
(-3.66351e-15 12.5554 16.2002)
(-4.45465e-15 14.2323 16.1994)
(-4.53429e-15 14.7319 15.1837)
(-3.74339e-15 13.7839 12.9684)
(-2.29552e-15 11.4668 9.91246)
(-6.59008e-16 8.14538 6.60467)
(5.57789e-16 4.2958 3.39323)
(8.91984e-16 0.75578 0.549347)
(5.44956e-16 -1.13721 -0.421261)
(6.06987e-16 -1.84979 -1.1068)
(5.31943e-16 -7.16219 -3.38939)
(3.48598e-16 -10.2095 -5.89061)
(2.56913e-16 -9.77687 -7.14105)
(9.46735e-18 -4.42695 -8.39288)
(9.50414e-16 -0.501208 11.8386)
(9.4761e-16 -0.521231 11.8621)
(9.45933e-16 -0.537453 11.8727)
(9.43879e-16 -0.557578 11.8871)
(9.4176e-16 -0.581385 11.9012)
(9.39482e-16 -0.609352 11.9164)
(9.37038e-16 -0.64185 11.9325)
(9.34396e-16 -0.679309 11.9497)
(9.31525e-16 -0.722152 11.9683)
(9.28388e-16 -0.770845 11.9883)
(9.24943e-16 -0.825879 12.01)
(9.2114e-16 -0.887961 12.0338)
(9.16921e-16 -0.957737 12.0598)
(9.1222e-16 -1.03589 12.0884)
(9.06956e-16 -1.12325 12.1199)
(9.01037e-16 -1.22076 12.1547)
(8.94357e-16 -1.3294 12.1933)
(8.86787e-16 -1.45026 12.2361)
(8.78179e-16 -1.5846 12.2836)
(8.68359e-16 -1.73374 12.3363)
(8.57123e-16 -1.89917 12.3951)
(8.44237e-16 -2.08265 12.4604)
(8.29423e-16 -2.2859 12.5328)
(8.12368e-16 -2.5109 12.6131)
(7.9271e-16 -2.75974 12.7019)
(7.70044e-16 -3.03463 12.7997)
(7.43924e-16 -3.33785 12.907)
(7.13869e-16 -3.67163 13.024)
(6.79383e-16 -4.03798 13.1506)
(6.39984e-16 -4.43846 13.2861)
(5.95251e-16 -4.87368 13.4292)
(5.44888e-16 -5.34277 13.5777)
(4.88813e-16 -5.84244 13.7279)
(4.2728e-16 -6.36578 13.8747)
(3.61003e-16 -6.90048 14.0109)
(2.91302e-16 -7.42658 14.1267)
(2.20209e-16 -7.91367 14.2099)
(1.50543e-16 -8.31728 14.2454)
(8.57827e-17 -8.57428 14.2154)
(2.99394e-17 -8.59807 14.0999)
(-1.10636e-17 -8.27231 13.8726)
(-5.17713e-17 -7.32875 13.3816)
(-4.97301e-16 -4.26122 11.6027)
(-3.68315e-15 3.84511 4.02795)
(-7.62768e-15 0.0496386 -2.47093)
(-7.19166e-15 4.60882 1.90971)
(-5.6662e-15 -3.70497 6.19398)
(-5.24608e-15 -6.85815 7.87295)
(-4.74692e-15 -10.8807 9.61363)
(-4.09359e-15 -14.6086 11.4573)
(-3.41181e-15 -17.5125 13.4167)
(-2.83443e-15 -19.325 14.9689)
(-2.50016e-15 -20.3991 15.8558)
(-2.63079e-15 -21.0386 16.2225)
(-3.29689e-15 -21.1779 16.5602)
(-4.08799e-15 -20.2913 16.8014)
(-3.94575e-15 -17.1398 15.9897)
(-2.19987e-15 -11.5508 13.9338)
(-6.01601e-16 -7.14397 13.281)
(-8.17512e-16 -5.17456 14.5917)
(-8.72813e-16 -2.29198 14.5939)
(-7.30412e-16 0.973244 14.3115)
(-9.03423e-16 4.11196 14.4928)
(-1.29632e-15 7.13703 14.8105)
(-2.0756e-15 9.94798 15.3488)
(-3.18275e-15 12.4518 15.984)
(-4.23967e-15 14.3628 16.3102)
(-4.69516e-15 15.2107 15.71)
(-4.20395e-15 14.5828 13.8022)
(-2.83959e-15 12.4303 10.8193)
(-1.05963e-15 9.11253 7.42053)
(4.08807e-16 5.18785 4.10378)
(9.15888e-16 1.33684 1.03672)
(5.50455e-16 -1.01063 -0.419784)
(6.01632e-16 -1.5416 -0.980913)
(5.40739e-16 -6.64991 -3.19063)
(3.62533e-16 -9.82549 -5.6765)
(2.70828e-16 -9.56984 -6.93051)
(-6.21423e-18 -4.54288 -8.10886)
(9.43875e-16 -0.501055 11.8917)
(9.4081e-16 -0.520668 11.9156)
(9.38986e-16 -0.536478 11.9271)
(9.36751e-16 -0.556749 11.9424)
(9.34446e-16 -0.580575 11.9574)
(9.3197e-16 -0.608655 11.9735)
(9.29315e-16 -0.64127 11.9906)
(9.26447e-16 -0.678863 12.0088)
(9.23333e-16 -0.721851 12.0284)
(9.19933e-16 -0.770732 12.0495)
(9.16204e-16 -0.82614 12.0724)
(9.12092e-16 -0.888641 12.0974)
(9.07538e-16 -0.958656 12.1249)
(9.02471e-16 -1.03727 12.155)
(8.9681e-16 -1.12515 12.1882)
(8.90458e-16 -1.2233 12.2248)
(8.83306e-16 -1.33265 12.2652)
(8.75221e-16 -1.45435 12.31)
(8.66053e-16 -1.58963 12.3597)
(8.55623e-16 -1.73984 12.4147)
(8.43725e-16 -1.90646 12.4758)
(8.30122e-16 -2.09123 12.5435)
(8.14536e-16 -2.29586 12.6184)
(7.96654e-16 -2.52229 12.7012)
(7.76118e-16 -2.77259 12.7924)
(7.52529e-16 -3.04887 12.8924)
(7.25452e-16 -3.35331 13.0018)
(6.94425e-16 -3.68799 13.1204)
(6.58979e-16 -4.05471 13.2483)
(6.18668e-16 -4.45475 13.3844)
(5.73121e-16 -4.88838 13.5274)
(5.22103e-16 -5.35423 13.6747)
(4.6561e-16 -5.84842 13.8226)
(4.03981e-16 -6.36323 13.9656)
(3.38029e-16 -6.88536 14.0962)
(2.69161e-16 -7.39358 14.2041)
(1.99464e-16 -7.85586 14.2763)
(1.31701e-16 -8.22551 14.2963)
(6.90356e-17 -8.43609 14.2433)
(1.49033e-17 -8.39438 14.0901)
(-3.25043e-17 -7.949 13.7689)
(-1.82203e-16 -6.62507 12.8744)
(-1.25842e-15 -2.63452 9.4683)
(-5.92482e-15 3.45559 -1.51685)
(-6.86346e-15 -0.802906 -0.696457)
(-6.58273e-15 2.6141 3.06532)
(-5.52673e-15 -3.82856 6.34469)
(-5.1444e-15 -7.34962 8.01894)
(-4.64162e-15 -11.295 9.90282)
(-3.99098e-15 -14.9884 11.8148)
(-3.32275e-15 -17.8288 13.7001)
(-2.76967e-15 -19.5487 15.0978)
(-2.49153e-15 -20.5317 15.8726)
(-2.70724e-15 -21.1199 16.2587)
(-3.43131e-15 -21.2294 16.6664)
(-4.13225e-15 -20.1697 16.8233)
(-3.70932e-15 -16.6968 15.7123)
(-1.81992e-15 -11.1782 13.6027)
(-5.59133e-16 -7.32521 13.4257)
(-8.22063e-16 -5.32662 14.5884)
(-7.38015e-16 -2.27598 14.309)
(-6.832e-16 0.985173 14.1532)
(-7.99053e-16 4.08355 14.2923)
(-1.11162e-15 7.07014 14.5801)
(-1.79695e-15 9.84136 15.0855)
(-2.86569e-15 12.3404 15.7459)
(-4.00604e-15 14.3331 16.214)
(-4.66265e-15 15.3628 15.8608)
(-4.39774e-15 14.9526 14.1944)
(-3.16601e-15 12.954 11.3297)
(-1.35677e-15 9.68376 7.91979)
(2.67962e-16 5.742 4.57484)
(9.2876e-16 1.81459 1.4453)
(5.42516e-16 -0.879098 -0.453452)
(5.88455e-16 -1.24075 -0.813264)
(5.50358e-16 -6.09218 -2.91763)
(3.79772e-16 -9.37555 -5.36969)
(2.87642e-16 -9.30447 -6.61678)
(-3.84111e-17 -4.63865 -7.52893)
(9.36153e-16 -0.501427 11.9557)
(9.32854e-16 -0.520616 11.9795)
(9.30894e-16 -0.536013 11.9919)
(9.28494e-16 -0.556216 12.008)
(9.26019e-16 -0.579915 12.0238)
(9.23363e-16 -0.607863 12.0407)
(9.20514e-16 -0.640369 12.0586)
(9.17437e-16 -0.677849 12.0777)
(9.14098e-16 -0.720741 12.0983)
(9.10453e-16 -0.76954 12.1206)
(9.06456e-16 -0.824882 12.1448)
(9.02052e-16 -0.887206 12.1711)
(8.97177e-16 -0.957109 12.2)
(8.91758e-16 -1.03566 12.2316)
(8.8571e-16 -1.12349 12.2664)
(8.78933e-16 -1.22154 12.3047)
(8.71313e-16 -1.33086 12.347)
(8.62715e-16 -1.4526 12.3937)
(8.52985e-16 -1.58796 12.4455)
(8.4194e-16 -1.73834 12.5027)
(8.29372e-16 -1.90519 12.566)
(8.15042e-16 -2.0903 12.636)
(7.98673e-16 -2.29536 12.7132)
(7.79951e-16 -2.52234 12.7983)
(7.58523e-16 -2.77328 12.8916)
(7.34e-16 -3.05029 12.9938)
(7.05959e-16 -3.35553 13.105)
(6.7396e-16 -3.69101 13.2251)
(6.37564e-16 -4.05847 13.3539)
(5.96366e-16 -4.45905 13.4904)
(5.50045e-16 -4.89287 13.6329)
(4.98434e-16 -5.35836 13.7786)
(4.41608e-16 -5.85135 13.9236)
(3.79999e-16 -6.36381 14.062)
(3.14511e-16 -6.88204 14.1858)
(2.46634e-16 -7.38441 14.2841)
(1.78491e-16 -7.83837 14.3428)
(1.12827e-16 -8.19663 14.3435)
(5.30323e-17 -8.39183 14.2617)
(3.25971e-18 -8.32538 14.0586)
(-5.25822e-17 -7.80276 13.6)
(-3.43108e-16 -6.19202 12.2246)
(-1.9286e-15 -1.92984 7.56976)
(-6.28468e-15 1.4159 -2.06408)
(-6.31026e-15 -1.40155 0.56486)
(-6.18871e-15 0.62742 3.52084)
(-5.40607e-15 -4.46576 6.5134)
(-5.03903e-15 -7.88212 8.23607)
(-4.5308e-15 -11.6488 10.1934)
(-3.88408e-15 -15.2317 12.1703)
(-3.23127e-15 -17.9947 13.9728)
(-2.70771e-15 -19.6589 15.2177)
(-2.49391e-15 -20.5973 15.8868)
(-2.7998e-15 -21.1555 16.2941)
(-3.56815e-15 -21.2112 16.7482)
(-4.1408e-15 -19.9522 16.7737)
(-3.42723e-15 -16.2501 15.3795)
(-1.47502e-15 -11.0017 13.3451)
(-5.43649e-16 -7.61493 13.5572)
(-7.94991e-16 -5.42126 14.4555)
(-6.56924e-16 -2.24699 14.0354)
(-6.44463e-16 0.968608 13.9562)
(-7.0423e-16 4.03753 14.061)
(-9.23728e-16 6.98154 14.3169)
(-1.496e-15 9.71067 14.7835)
(-2.50698e-15 12.2094 15.4613)
(-3.72657e-15 14.3052 16.0764)
(-4.60331e-15 15.559 15.999)
(-4.59791e-15 15.4174 14.6163)
(-3.52921e-15 13.6078 11.8999)
(-1.70305e-15 10.3892 8.47861)
(8.91814e-17 6.40282 5.08095)
(9.34828e-16 2.38415 1.88734)
(5.54223e-16 -0.652217 -0.638135)
(5.69654e-16 -1.13341 -0.739589)
(5.57228e-16 -5.63767 -2.60689)
(3.96943e-16 -8.96648 -5.0012)
(3.03102e-16 -9.07429 -6.23239)
(-4.71607e-17 -4.79649 -6.99008)
(9.27214e-16 -0.504464 12.0288)
(9.23717e-16 -0.523495 12.053)
(9.21633e-16 -0.538623 12.0659)
(9.19086e-16 -0.558805 12.0826)
(9.1646e-16 -0.582473 12.099)
(9.13641e-16 -0.610466 12.1166)
(9.10617e-16 -0.643039 12.1352)
(9.0735e-16 -0.680634 12.1552)
(9.03805e-16 -0.723701 12.1767)
(8.99935e-16 -0.772713 12.2001)
(8.95692e-16 -0.828117 12.2254)
(8.91017e-16 -0.890523 12.253)
(8.85845e-16 -0.960802 12.2832)
(8.80099e-16 -1.03961 12.3162)
(8.7369e-16 -1.12774 12.3525)
(8.66516e-16 -1.22609 12.3925)
(8.58457e-16 -1.3358 12.4365)
(8.49377e-16 -1.45793 12.4852)
(8.39116e-16 -1.59374 12.5388)
(8.27489e-16 -1.74464 12.5981)
(8.14286e-16 -1.91209 12.6634)
(7.99266e-16 -2.09787 12.7356)
(7.8215e-16 -2.30369 12.815)
(7.62628e-16 -2.53152 12.9022)
(7.40352e-16 -2.78339 12.9977)
(7.14943e-16 -3.06143 13.1017)
(6.85992e-16 -3.36778 13.2144)
(6.53082e-16 -3.70441 13.3358)
(6.15805e-16 -4.07302 13.4652)
(5.73799e-16 -4.47465 13.6016)
(5.26797e-16 -4.90931 13.7431)
(4.74699e-16 -5.37527 13.8866)
(4.17661e-16 -5.86812 14.0277)
(3.56205e-16 -6.37965 14.1603)
(2.91328e-16 -6.89584 14.2758)
(2.24608e-16 -7.39475 14.3624)
(1.58263e-16 -7.84352 14.4047)
(9.5372e-17 -8.19459 14.3824)
(4.08482e-17 -8.37973 14.2668)
(1.05012e-18 -8.29031 14.0012)
(-6.26669e-17 -7.67184 13.3659)
(-5.15446e-16 -5.74316 11.462)
(-2.5653e-15 -1.13465 5.77313)
(-6.3317e-15 2.18792 -1.98756)
(-5.93582e-15 -1.71052 1.30126)
(-5.90137e-15 -0.900817 3.88894)
(-5.29642e-15 -5.00408 6.64656)
(-4.93477e-15 -8.32955 8.49914)
(-4.41864e-15 -11.9723 10.5009)
(-3.77704e-15 -15.4608 12.5182)
(-3.14119e-15 -18.164 14.2169)
(-2.65222e-15 -19.7922 15.3108)
(-2.50951e-15 -20.7023 15.8917)
(-2.90573e-15 -21.2381 16.3281)
(-3.69728e-15 -21.2181 16.8003)
(-4.10632e-15 -19.7429 16.6507)
(-3.11552e-15 -15.877 15.0123)
(-1.18429e-15 -10.963 13.1604)
(-5.47222e-16 -7.88911 13.6446)
(-7.65095e-16 -5.46793 14.2455)
(-6.36791e-16 -2.21942 13.7871)
(-6.56044e-16 0.968564 13.7554)
(-6.67959e-16 4.00957 13.8355)
(-7.99342e-16 6.91098 14.0602)
(-1.24719e-15 9.59093 14.4765)
(-2.16126e-15 12.0637 15.1374)
(-3.4065e-15 14.2211 15.8552)
(-4.4694e-15 15.6668 16.0321)
(-4.7319e-15 15.7944 14.9532)
(-3.8685e-15 14.204 12.429)
(-2.06913e-15 11.0662 9.02464)
(-1.23834e-16 7.04456 5.57128)
(9.23525e-16 2.96801 2.37093)
(7.89108e-16 -0.292904 -0.7573)
(6.08184e-16 -1.10987 -0.791459)
(5.62811e-16 -5.2614 -2.28897)
(4.11927e-16 -8.60696 -4.5861)
(3.20572e-16 -8.89873 -5.79866)
(-7.52991e-19 -5.03634 -6.3699)
(9.17067e-16 -0.508155 12.1115)
(9.13409e-16 -0.527224 12.136)
(9.11218e-16 -0.542263 12.1494)
(9.08546e-16 -0.562561 12.1665)
(9.05786e-16 -0.586375 12.1835)
(9.02822e-16 -0.614571 12.2016)
(8.9964e-16 -0.647367 12.2209)
(8.96201e-16 -0.685216 12.2416)
(8.92466e-16 -0.728566 12.2639)
(8.88387e-16 -0.777912 12.2881)
(8.83914e-16 -0.833725 12.3143)
(8.78985e-16 -0.896681 12.3429)
(8.73532e-16 -0.967544 12.3742)
(8.67475e-16 -1.04698 12.4085)
(8.60723e-16 -1.13583 12.4461)
(8.5317e-16 -1.23503 12.4876)
(8.44695e-16 -1.34562 12.5332)
(8.35155e-16 -1.46872 12.5835)
(8.24389e-16 -1.60559 12.639)
(8.12209e-16 -1.75765 12.7001)
(7.98402e-16 -1.92641 12.7674)
(7.82728e-16 -2.11362 12.8415)
(7.64907e-16 -2.321 12.9229)
(7.44632e-16 -2.55051 13.0121)
(7.21563e-16 -2.80419 13.1093)
(6.95328e-16 -3.08416 13.2149)
(6.65538e-16 -3.39252 13.329)
(6.31797e-16 -3.73123 13.4512)
(5.9373e-16 -4.10192 13.5809)
(5.51019e-16 -4.50557 13.7167)
(5.03451e-16 -4.94203 13.8565)
(4.50996e-16 -5.40939 13.9969)
(3.93888e-16 -5.90306 14.1332)
(3.32741e-16 -6.41453 14.2588)
(2.68646e-16 -6.92943 14.3642)
(2.03282e-16 -7.42545 14.437)
(1.39093e-16 -7.86937 14.4605)
(7.99726e-17 -8.21326 14.4124)
(3.34857e-17 -8.38663 14.2592)
(7.27623e-18 -8.26244 13.9169)
(-7.26967e-17 -7.5063 13.056)
(-7.25742e-16 -5.18046 10.522)
(-3.30067e-15 -0.139484 3.79123)
(-6.14986e-15 2.6349 -1.31558)
(-5.70689e-15 -1.82322 1.91158)
(-5.70133e-15 -1.95707 4.16529)
(-5.20289e-15 -5.3802 6.80892)
(-4.82966e-15 -8.69309 8.78223)
(-4.30676e-15 -12.2736 10.8249)
(-3.671e-15 -15.7126 12.8447)
(-3.05398e-15 -18.3798 14.4229)
(-2.60503e-15 -19.9751 15.3737)
(-2.53945e-15 -20.8507 15.889)
(-3.02242e-15 -21.3513 16.3594)
(-3.81129e-15 -21.2334 16.8161)
(-4.02673e-15 -19.5363 16.4597)
(-2.78821e-15 -15.5604 14.6362)
(-9.51236e-16 -10.9726 13.0396)
(-5.65182e-16 -8.0801 13.6733)
(-7.51974e-16 -5.46367 13.9912)
(-6.65333e-16 -2.18735 13.5491)
(-6.97792e-16 0.970789 13.5385)
(-6.71699e-16 3.98667 13.6051)
(-7.23455e-16 6.84795 13.8045)