/*--------------------------------*- C++ -*----------------------------------*\
| =========                 |                                                 |
| \\      /  F ield         | OpenFOAM: The Open Source CFD Toolbox           |
|  \\    /   O peration     | Version:  4.1                                   |
|   \\  /    A nd           | Web:      www.OpenFOAM.org                      |
|    \\/     M anipulation  |                                                 |
\*---------------------------------------------------------------------------*/
FoamFile
{
    version     2.0;
    format      ascii;
    class       volScalarField;
    location    "29";
    object      p;
}
// * * * * * * * * * * * * * * * * * * * * * * * * * * * * * * * * * * * * * //

dimensions      [0 2 -2 0 0 0 0];

internalField   nonuniform List<scalar> 
6785
(
586.422
508.06
461.138
407.891
361.29
316.465
274.752
235.331
198.113
162.921
129.03
96.0298
67.5659
38.252
-2.09187
-25.8111
-43.2256
-33.3028
-40.2244
-39.5546
-41.8838
-42.4894
-42.9633
-42.5288
-41.2539
-38.9257
-35.8509
-31.6426
-25.9808
-21.8826
-0.601803
-3.43398
6.1577
2.49153
7.03512
6.81526
8.5197
9.1586
10.0583
10.7464
11.427
11.9064
12.4253
12.9912
15.4413
39.1719
37.6315
41.0817
36.9026
39.1909
37.0244
37.4416
36.6473
36.5362
36.3188
36.3022
36.2585
36.0756
35.7471
35.7579
26.8799
23.4384
25.1325
21.48
23.1339
20.8526
21.3955
20.362
20.2614
19.5634
18.689
17.4277
16.2532
14.5794
11.8255
-7.07365
-11.424
-11.105
-15.0097
-15.0905
-18.6032
-19.8041
-22.8363
-24.9929
-27.496
-29.239
-30.355
-31.2391
-32.2363
-31.8194
-27.4299
-29.8981
-28.491
-31.0692
-29.8956
-32.0233
-31.6927
-32.9107
-33.1026
-33.3419
-32.6685
-31.4601
-29.691
-28.3407
-25.8969
-8.6202
-8.00518
-5.46009
-5.79455
-3.12557
-2.84277
-0.801576
0.287054
1.90016
3.32502
4.88562
6.28231
7.97629
9.20694
11.7221
14.87
16.2076
18.1494
18.276
20.386
20.8316
22.408
23.3244
24.5335
25.5906
26.7039
27.6872
28.8083
29.5945
30.7018
27.1965
28.476
29.8575
29.986
31.516
31.7951
32.8889
33.4938
34.3016
35.0213
35.8128
36.557
37.4772
38.1379
39.1965
41.9908
43.1897
44.1021
44.2075
45.3298
45.4424
46.2297
46.5993
47.2026
47.8082
48.4929
49.1925
50.0071
50.5582
51.4229
51.1859
51.8184
52.3118
52.566
53.3668
53.565
54.2375
54.4346
54.6219
54.4334
54.0779
53.8903
53.927
54.3094
54.5509
65.4138
64.1298
62.9454
61.7485
61.2696
60.2338
59.4604
58.1412
56.8612
55.4093
54.1053
53.0799
52.2791
52.3073
51.1891
45.078
44.0966
41.8946
38.8741
35.7213
32.2754
29.572
27.44
26.1287
25.1577
24.6572
24.4529
24.7893
25.6137
24.5258
73.4607
69.9819
63.68
56.0023
48.043
40.6291
36.8863
35.0978
33.608
33.0845
32.4635
31.0807
28.9957
26.9717
23.972
26.43
27.0348
27.7145
27.6465
27.9507
28.9887
30.1363
29.8672
29.7427
29.6344
30.5129
29.7181
29.5614
29.9046
28.7949
28.5331
28.7766
28.8686
26.9976
27.8841
27.8162
26.0533
25.8184
26.9451
26.8916
24.9889
24.8211
26.0272
26.5874
24.1913
25.7963
26.441
24.6441
24.54
25.8678
26.6933
24.7956
26.134
26.9358
25.7249
25.6637
26.7592
27.2634
26.3643
26.3529
27.2434
27.4212
26.5507
27.5138
27.7439
27.2553
27.3529
27.9784
28.6892
28.4329
28.4893
28.8153
29.9869
29.8711
29.8544
31.0465
30.9991
30.8998
30.8129
31.4985
31.6058
32.786
32.2566
30.9239
32.3953
34.4778
27.3556
23.949
28.007
34.0027
7.40318
19.2872
28.8588
-20.2922
-6.50853
2.08542
1.47859
7.81791
0.738086
1.39365
7.86178
8.2703
9.99721
10.6212
11.1941
11.9554
16.6446
19.6774
9.02409
9.95431
12.6934
15.3267
14.7149
15.4967
15.2035
18.6547
27.0085
18.3959
20.1906
19.6955
21.1583
24.794
26.5662
26.5633
27.4544
27.4172
41.9175
35.2349
35.1516
34.3458
33.3265
34.5089
37.1904
37.5376
32.5456
41.192
43.4429
44.5406
44.0065
40.9378
38.164
35.2835
36.2503
29.7531
40.0445
43.1109
35.8204
33.9499
30.8775
26.6846
23.5081
20.7485
11.1644
15.7877
28.6729
21.8777
19.5739
15.7584
9.79954
5.47617
4.57568
2.23864
-0.921414
-3.61367
4.94221
1.30433
1.76374
1.02015
0.260737
-3.76569
-4.94474
-2.51393
-13.4485
0.794638
-1.45725
-2.64715
1.56825
0.421377
1.85955
2.18117
2.7552
3.45066
3.38551
3.66832
3.85919
3.90442
3.96891
3.9949
4.00518
3.99753
3.98773
3.96095
3.92365
3.92061
3.84146
3.9211
3.80764
3.60034
3.9318
3.63193
3.45612
3.60058
3.28665
3.9764
3.37711
3.1251
3.36624
2.93899
4.00586
3.27759
2.39861
4.18235
2.99228
2.51605
3.01506
2.24927
4.34601
2.72128
2.21212
2.76288
1.91294
4.3382
2.7325
1.0939
4.55764
2.2899
1.58641
2.31063
1.22534
4.51936
1.98309
1.37149
2.03116
0.987763
4.16639
2.05486
0.0881334
4.1975
1.59012
0.586465
1.50056
0.132993
3.78829
1.19094
-0.0573608
0.97979
-0.548434
2.95177
0.944661
-1.76109
2.65871
0.318116
-1.42378
-0.21594
-1.69745
0.0144795
-0.0238157
-0.0109333
-0.0200545
-0.0204278
-0.025985
-0.0302729
-0.0362102
-0.041286
-0.0442207
-0.0418912
-0.032262
-0.0189595
-0.0277899
-0.0856748
-0.09484
-0.0727218
-0.261167
-0.305789
-0.418916
-0.560055
-0.688045
-0.798211
-0.881242
-0.933922
-0.957969
-0.95129
-0.916202
-0.856011
-0.773904
-0.674598
-0.5623
-0.440843
-0.314337
-0.186659
-0.0610424
0.0597493
0.17376
0.279991
0.378183
0.467971
0.549014
0.621242
0.684818
0.73979
0.78592
0.822485
0.848473
0.862899
0.863914
0.84648
0.803439
0.730895
0.626897
0.486625
0.323298
0.172428
0.0322543
0.0091559
0.0117842
0.002762
0.00270087
-0.0370271
-0.0982727
-0.162332
-0.225146
-0.270142
-0.274305
-0.239518
-0.187483
-0.132099
-0.0824441
-0.0433481
-0.0069654
-0.00796145
0.0204372
0.0655436
0.051839
-0.0832892
0.0463336
-0.0542814
-0.00294543
-0.0194703
-0.00510044
-0.00500677
0.000647101
-0.00111378
-0.0104273
-0.0361894
-0.0813743
-0.137501
-0.179353
-0.204301
-0.234921
-0.158336
0.00983457
-0.330673
-0.419651
-0.645053
-0.901631
-1.13044
-1.32725
-1.4721
-1.55955
-1.59322
-1.5686
-1.4906
-1.36571
-1.20036
-1.00307
-0.781861
-0.545007
-0.300238
-0.0545388
0.186345
0.417597
0.636457
0.841311
1.03071
1.20279
1.3568
1.49276
1.61097
1.71122
1.79285
1.85452
1.89391
1.90907
1.89587
1.84389
1.73922
1.5746
1.34461
1.03749
0.681233
0.371939
0.0661707
0.0382538
0.0350784
0.00905006
0.00400385
-0.07326
-0.193681
-0.315323
-0.4208
-0.486172
-0.48694
-0.425869
-0.33336
-0.232429
-0.140896
-0.0645885
-0.00181428
0.000314091
0.0543138
0.00549238
-0.0447326
0.161514
0.0735052
-0.0940906
-0.0165412
-0.0468004
-0.0287103
-0.0340444
-0.0311164
-0.0394644
-0.0568508
-0.093029
-0.147124
-0.204241
-0.236543
-0.259039
-0.317978
-0.257928
0.0843631
-0.339012
-0.445238
-0.711394
-1.01691
-1.28914
-1.52435
-1.69686
-1.80076
-1.84043
-1.80957
-1.71456
-1.56308
-1.36273
-1.12406
-0.856763
-0.570916
-0.275575
0.0208223
0.311628
0.591069
0.855663
1.10291
1.33095
1.53773
1.72251
1.88521
2.02606
2.14488
2.24098
2.31282
2.35762
2.37208
2.35033
2.28058
2.14786
1.94177
1.65246
1.2677
0.826039
0.473195
0.0900524
0.0771853
0.0570823
0.0130041
-0.00654598
-0.104124
-0.255242
-0.405361
-0.530285
-0.601091
-0.593238
-0.513207
-0.397209
-0.271997
-0.158613
-0.0644341
0.0125814
0.018242
0.0931242
0.11723
0.0843149
0.189079
0.0993552
-0.127007
-0.0193648
-0.0589088
-0.0320912
-0.0371611
-0.031154
-0.0412809
-0.065512
-0.117657
-0.195118
-0.27643
-0.326662
-0.356437
-0.403783
-0.329076
0.0811812
-0.396604
-0.547743
-0.863529
-1.24267
-1.57896
-1.86885
-2.08027
-2.20674
-2.25402
-2.21408
-2.09513
-1.9066
-1.65785
-1.3621
-1.03134
-0.67801
-0.313078
0.0530138
0.412242
0.757482
1.08428
1.3892
1.66991
1.92415
2.15111
2.35061
2.52292
2.66786
2.78467
2.8716
2.92527
2.94113
2.91147
2.82249
2.65706
2.40158
2.04191
1.56479
1.01869
0.588932
0.152256
0.127443
0.0797666
0.0151553
-0.0236414
-0.147026
-0.335403
-0.521288
-0.672884
-0.754703
-0.739116
-0.635883
-0.489643
-0.332985
-0.191511
-0.0733198
0.0226368
0.0310907
0.11885
0.176631
0.180587
0.268389
0.124351
-0.159207
-0.0262769
-0.0752095
-0.042371
-0.0490981
-0.0428704
-0.0576433
-0.091133
-0.158422
-0.251112
-0.341193
-0.394395
-0.4262
-0.472522
-0.409281
-0.00194269
-0.378854
-0.651225
-1.01279
-1.46908
-1.87281
-2.22126
-2.47488
-2.62647
-2.6829
-2.63408
-2.49013
-2.26231
-1.96192
-1.60496
-1.20589
-0.779814
-0.339832
0.101459
0.534504
0.950716
1.34471
1.71211
2.05005
2.35584
2.62855
2.86794
3.07428
3.24741
3.38647
3.4894
3.5522
3.56913
3.53067
3.42052
3.21874
2.90889
2.47252
1.89481
1.23778
0.68378
0.240492
0.174807
0.0919185
0.00646636
-0.0520778
-0.202998
-0.42891
-0.650479
-0.827739
-0.919117
-0.894838
-0.767266
-0.589098
-0.399264
-0.228369
-0.0842274
0.031417
0.0461712
0.138795
0.280125
0.364168
0.379702
0.146495
-0.187264
-0.0297824
-0.0856674
-0.0458981
-0.0526386
-0.045228
-0.0643269
-0.107975
-0.19127
-0.299289
-0.400994
-0.465344
-0.506521
-0.550702
-0.494233
-0.129296
-0.297629
-0.776751
-1.16528
-1.69133
-2.15727
-2.55873
-2.84952
-3.02273
-3.08608
-3.02727
-2.85842
-2.59247
-2.24253
-1.82724
-1.3634
-0.868568
-0.357822
0.154226
0.656626
1.13943
1.59635
2.02214
2.41342
2.76715
3.0823
3.35858
3.59632
3.79536
3.95479
4.07229
4.14331
4.16094
4.11391
3.98368
3.74775
3.38713
2.8788
2.20732
1.47501
0.755644
0.343156
0.224447
0.10127
-0.00932072
-0.0941848
-0.276403
-0.537624
-0.789031
-0.985246
-1.081
-1.04559
-0.893382
-0.684166
-0.462771
-0.264182
-0.0951599
0.039739
0.0664009
0.150113
0.378892
0.533894
0.45601
0.167047
-0.211433
-0.032846
-0.0940989
-0.0483906
-0.0552255
-0.0478574
-0.0731642
-0.129044
-0.227771
-0.347623
-0.457741
-0.531391
-0.582202
-0.630358
-0.585305
-0.264973
-0.210762
-0.929765
-1.33495
-1.92673
-2.45692
-2.91084
-3.23723
-3.43083
-3.49988
-3.4298
-3.23487
-2.92972
-2.52929
-2.05492
-1.52571
-0.961703
-0.379908
0.203048
0.774841
1.32415
1.84382
2.32771
2.77196
3.17322
3.53037
3.84311
4.11183
4.33638
4.51587
4.64774
4.72692
4.74539
4.69019
4.5406
4.27155
3.8618
3.28342
2.51895
1.74567
0.833845
0.455064
0.273892
0.104826
-0.0359156
-0.153561
-0.373567
-0.672335
-0.950345
-1.15875
-1.25237
-1.20173
-1.02259
-0.781107
-0.527773
-0.301417
-0.106961
0.0475785
0.0950594
0.16614
0.490384
0.743166
0.57422
0.183939
-0.230288
-0.0335976
-0.0978625
-0.0465004
-0.0529371
-0.046481
-0.0796612
-0.149046
-0.261945
-0.392382
-0.512371
-0.59843
-0.662379
-0.718616
-0.685873
-0.408107
-0.201295
-1.09187
-1.52114
-2.17109
-2.76874
-3.27529
-3.63586
-3.84889
-3.92276
-3.8404
-3.61833
-3.27286
-2.82084
-2.28632
-1.69071
-1.05658
-0.402869
0.251763
0.893617
1.51
2.09286
2.63521
3.1327
3.58166
3.98092
4.33014
4.6298
4.87982
5.0793
5.22552
5.3129
5.33235
5.26924
5.10071
4.79898
4.34093
3.69327
2.8325
2.01229
0.957758
0.572315
0.317683
0.100269
-0.0757254
-0.23375
-0.499588
-0.841128
-1.14531
-1.35918
-1.44132
-1.36782
-1.15686
-0.880174
-0.593437
-0.338405
-0.117628
0.0567492
0.133736
0.200971
0.604218
0.939191
0.789793
0.197374
-0.242896
-0.0323483
-0.0974014
-0.0413167
-0.0475652
-0.0439638
-0.0874019
-0.171014
-0.296534
-0.437063
-0.567372
-0.666136
-0.7445
-0.813164
-0.798614
-0.572581
-0.308517
-1.23047
-1.72662
-2.42402
-3.09204
-3.65131
-4.04365
-4.27414
-4.35116
-4.25502
-4.00452
-3.6176
-3.11308
-2.51772
-1.85524
-1.15072
-0.424991
0.301276
1.01303
1.69622
2.34194
2.94231
3.49258
3.98873
4.42956
4.81474
5.14483
5.41986
5.63897
5.79928
5.89477
5.91531
5.84464
5.6578
5.32427
4.81936
4.10399
3.14784
2.23019
1.13284
0.691277
0.356337
0.0879933
-0.129794
-0.336908
-0.65846
-1.05016
-1.38222
-1.59547
-1.65482
-1.54725
-1.29631
-0.979589
-0.657142
-0.372049
-0.124195
0.0704187
0.181182
0.263791
0.725017
1.11937
0.924936
0.205867
-0.248191
-0.0285362
-0.0919301
-0.0321675
-0.0388205
-0.0405557
-0.0962507
-0.193635
-0.330691
-0.481858
-0.623293
-0.736082
-0.831171
-0.916042
-0.925119
-0.761035
-0.511357
-1.31346
-1.95471
-2.68784
-3.42846
-4.04191
-4.46392
-4.70987
-4.78807
-4.67633
-4.3958
-3.96601
-3.40778
-2.75063
-2.02056
-1.24518
-0.447133
0.35088
1.13251
1.88235
2.59065
3.24869
3.85131
4.39418
4.87608
5.2967
5.65674
5.95634
6.19473
6.36891
6.47248
6.4943
6.41649
6.21207
5.84771
5.29755
4.5159
3.48139
2.39022
1.33721
0.806097
0.389107
0.0663814
-0.200534
-0.465301
-0.853607
-1.30446
-1.66757
-1.87457
-1.89895
-1.74411
-1.44245
-1.0788
-0.71715
-0.399939
-0.124047
0.0926178
0.237066
0.352171
0.851474
1.30963
1.1091
0.209058
-0.24525
-0.0220641
-0.0814924
-0.0196427
-0.0280966
-0.0381877
-0.107287
-0.217479
-0.365938
-0.528169
-0.680832
-0.808551
-0.922165
-1.02652
-1.06437
-0.966902
-0.763797
-1.32549
-2.2105
-2.96606
-3.77818
-4.44832
-4.8984
-5.15797
-5.23527
-5.10585
-4.79345
-4.31913
-3.70576
-2.98564
-2.18706
-1.34013
-0.469308
0.400725
1.25235
2.06882
2.83955
3.55502
4.20965
4.79885
5.32139
5.77702
6.16657
6.49035
6.7477
6.93559
7.04727
7.0706
6.9861
6.76486
6.37065
5.77693
4.92874
3.8652
2.52599
1.54125
0.912597
0.415408
0.0339497
-0.289899
-0.620128
-1.08739
-1.60754
-2.00546
-2.20013
-2.17645
-1.96035
-1.59618
-1.17754
-0.772391
-0.420567
-0.115532
0.125971
0.303232
0.460592
0.982992
1.47957
1.3399
0.206025
-0.233409
-0.0128305
-0.066143
-0.00435155
-0.0167246
-0.0379285
-0.120272
-0.242534
-0.402678
-0.575711
-0.739771
-0.883841
-1.01802
-1.14484
-1.2152
-1.18118
-1.02397
-1.28897
-2.50238
-3.26402
-4.1413
-4.87122
-5.34813
-5.61975
-5.69395
-5.5445
-5.19806
-4.6773
-4.00716
-3.22272
-2.35459
-1.43537
-0.491253
0.451085
1.37281
2.25586
3.08884
3.86144
4.56771
5.2028
5.76551
6.25565
6.67423
7.02176
7.29775
7.49918
7.619
7.64411
7.55342
7.31614
6.89309
6.25777
5.33865
4.27907
2.69257
1.74
1.01052
0.434896
-0.0109655
-0.399871
-0.802076
-1.36134
-1.96183
-2.39846
-2.5739
-2.48829
-2.19666
-1.75787
-1.27582
-0.822511
-0.433414
-0.098104
0.171084
0.381135
0.5843
1.11863
1.63157
1.46851
0.196397
-0.212236
-0.000941353
-0.0464072
0.0124069
-0.00646046
-0.0404883
-0.135132
-0.269434
-0.4411
-0.624125
-0.800042
-0.96191
-1.11845
-1.27042
-1.37616
-1.39877
-1.27565
-1.2759
-2.83881
-3.58776
-4.51846
-5.31146
-5.81423
-6.09662
-6.16567
-5.99365
-5.61068
-5.04126
-4.31246
-3.46217
-2.52328
-1.5309
-0.512911
0.502065
1.49403
2.44361
3.33866
4.16806
4.92557
5.60608
6.20845
6.73257
7.17968
7.5505
7.8448
8.05959
8.18759
8.21477
8.11842
7.86594
7.41504
6.74041
5.74343
4.65455
2.93519
1.93601
1.10078
0.44633
-0.0705944
-0.532678
-1.0132
-1.67701
-2.36948
-2.84885
-2.99742
-2.83533
-2.45384
-1.92819
-1.37408
-0.867749
-0.438642
-0.0718792
0.22746
0.47065
0.719226
1.25783
1.78429
1.69603
0.179659
-0.181643
0.013279
-0.0231892
0.0289962
0.00139119
-0.0457186
-0.151838
-0.29834
-0.480418
-0.672692
-0.861391
-1.04255
-1.22322
-1.40294
-1.54655
-1.621
-1.53343
-1.36777
-3.21677
-3.94327
-4.91069
-5.76991
-6.29767
-6.58971
-6.65184
-6.45473
-6.03248
-5.41187
-4.62226
-3.70435
-2.69332
-1.62678
-0.534227
0.55379
1.61617
2.63226
3.58919
4.4751
5.28342
6.00888
6.65037
7.20793
7.68303
8.07668
8.38892
8.6169
8.75314
8.78271
8.68126
8.41445
7.93663
7.22521
6.15084
4.93211
3.2374
2.12314
1.18331
0.44788
-0.146959
-0.69015
-1.25748
-2.03595
-2.83281
-3.35919
-3.4726
-3.21882
-2.733
-2.10802
-1.47296
-0.908555
-0.436673
-0.0372625
0.294052
0.570723
0.861934
1.39848
1.90741
1.8082
0.15546
-0.141816
0.0292269
0.00213305
0.0436481
0.00628567
-0.0532578
-0.170627
-0.328794
-0.519627
-0.720991
-0.923658
-1.12544
-1.33186
-1.54186
-1.72595
-1.85191
-1.8192
-1.60846
-3.61002
-4.33299
-5.31952
-6.2478
-6.79956
-7.09994
-7.15363
-6.92904
-6.46459
-5.78998
-4.93711
-3.94957
-2.86484
-1.72301
-0.555104
0.60642
1.73943
2.82202
3.84066
4.78273
5.64144
6.41133
7.09139
7.6818
8.18434
8.60032
8.93012
9.17112
9.31567
9.34797
9.24201
8.96174
8.458
7.71207
6.59025
5.12313
3.54893
2.29547
1.25771
0.437745
-0.241769
-0.873812
-1.53872
-2.43961
-3.3546
-3.93261
-4.00194
-3.64045
-3.03552
-2.29831
-1.5731
-0.945397
-0.428023
0.00517619
0.369555
0.679842
1.00967
1.54014
2.04245
1.95674
0.123261
-0.0932622
0.0459194
0.0278326
0.0550635
0.00849568
-0.0629383
-0.191403
-0.359652
-0.557815
-0.768748
-0.986608
-1.21022
-1.44396
-1.68675
-1.91412
-2.09485
-2.143
-1.99198
-3.98741
-4.7589
-5.74768
-6.74655
-7.3214
-7.62822
-7.672
-7.41774
-6.90815
-6.1765
-5.25763
-4.19821
-3.03803
-1.81961
-0.575454
0.660113
1.864
3.01312
4.09327
5.09117
5.99982
6.81359
7.53162
8.15428
8.68365
9.12143
9.4684
9.72222
9.87516
9.91055
9.80066
9.50781
8.97937
8.19827
7.10193
5.29334
3.82647
2.45178
1.32296
0.414164
-0.356515
-1.08498
-1.85908
-2.88893
-3.93781
-4.57288
-4.58853
-4.10227
-3.36293
-2.50004
-1.67513
-0.978734
-0.413267
0.0547323
0.452578
0.796402
1.15985
1.68035
2.15722
2.12429
0.082334
-0.0368061
0.0619637
0.0521693
0.0628337
0.00852109
-0.0748117
-0.213416
-0.389653
-0.594483
-0.815845
-1.05001
-1.29652
-1.55912
-1.83721
-2.11088
-2.35207
-2.50646
-2.49163
-4.31767
-5.22084
-6.19904
-7.2682
-7.86512
-8.17568
-8.20784
-7.92185
-7.36422
-6.57236
-5.58451
-4.45068
-3.21305
-1.9166
-0.595192
0.715032
1.9901
3.20577
4.34724
5.40062
6.35872
7.2158
7.97118
8.62543
9.18101
9.64002
10.0037
10.2702
10.4316
10.4704
10.3572
10.0526
9.50099
8.67661
7.62568
5.53953
4.08309
2.59556
1.37764
0.375445
-0.492381
-1.32478
-2.22038
-3.38366
-4.58489
-5.28421
-5.23595
-4.60657
-3.71689
-2.71417
-1.77958
-1.00902
-0.393045
0.110588
0.541735
0.918245
1.31055
1.81784
2.25466
2.2269
0.0315973
0.026317
0.0756558
0.0739161
0.0673484
0.00656136
-0.0886362
-0.235374
-0.417851
-0.629433
-0.862175
-1.11361
-1.384
-1.67701
-1.99289
-2.31612
-2.62447
-2.90311
-3.06348
-4.57321
-5.7221
-6.67979
-7.8145
-8.43298
-8.74376
-8.7621
-8.44226
-7.83372
-6.97844
-5.91843
-4.7074
-3.39014
-2.01403
-0.614227
0.771348
2.11795
3.40021
4.60283
5.71131
6.71835
7.61814
8.41019
9.09535
9.67646
10.1561
10.5361
10.8149
10.9848
11.0275
10.9116
10.5958
10.0234
9.14516
8.05061
5.89395
4.33119
2.72998
1.42026
0.320148
-0.650435
-1.5943
-2.62438
-3.92326
-5.29761
-6.07092
-5.94815
-5.15573
-4.09905
-2.94155
-1.88696
-1.03671
-0.368058
0.171844
0.636007
1.04287
1.45965
1.95129
2.36036
2.33657
-0.0303299
0.0943716
0.0853819
0.0927042
0.0691643
0.00257663
-0.103531
-0.255984
-0.443782
-0.662633
-0.907619
-1.17714
-1.47238
-1.79734
-2.15353
-2.52971
-2.91166
-3.32125
-3.65629
-4.7532
-6.27135
-7.1983
-8.38775
-9.02741
-9.33428
-9.33598
-8.97988
-8.31745
-7.39555
-6.26006
-4.96884
-3.5695
-2.11193
-0.63247
0.82924
2.24778
3.5967
4.86028
6.02348
7.07892
8.02078
8.84879
9.5641
10.17
10.6697
11.0654
11.3564
11.5349
11.5818
11.4638
11.1374
10.5475
9.62111
8.32389
6.29626
4.55835
2.85384
1.44895
0.247063
-0.831515
-1.89449
-3.07278
-4.51226
-6.07899
-6.93757
-6.72926
-5.75215
-4.51098
-3.18295
-1.99767
-1.06222
-0.339049
0.237527
0.734612
1.16845
1.60477
2.07847
2.44921
2.45908
-0.104885
0.165053
0.0902014
0.108784
0.0685061
-0.00317437
-0.118164
-0.274363
-0.467318
-0.694068
-0.952021
-1.24036
-1.56139
-1.91986
-2.31882
-2.75141
-3.21243
-3.74844
-4.22748
-4.90147
-6.89009
-7.76441
-8.98946
-9.6507
-9.94938
-9.93103
-9.53573
-8.81617
-7.82435
-6.61003
-5.23544
-3.75139
-2.21037
-0.64983
0.888894
2.37982
3.79552
5.11988
6.33738
7.44066
8.4239
9.28711
10.0318
10.6618
11.1807
11.5917
11.8945
12.0816
12.133
12.0137
11.677
11.0741
10.1637
8.50935
6.66873
4.75977
2.9661
1.46239
0.155342
-1.03624
-2.2261
-3.56718
-5.16179
-6.9346
-7.88964
-7.58374
-6.39812
-4.95411
-3.43894
-2.11199
-1.08596
-0.306811
0.306664
0.836509
1.29383
1.74401
2.1979
2.52483
2.53412
-0.192828
0.23553
0.0902035
0.122355
0.0654385
-0.00981258
-0.131275
-0.290113
-0.488467
-0.723688
-0.995204
-1.30303
-1.65079
-2.0443
-2.48844
-2.98082
-3.52521
-4.1767
-4.75742
-5.09403
-7.59633
-8.39007
-9.62155
-10.305
-10.5914
-10.5491
-10.1111
-9.33067
-8.26546
-6.96886
-5.50763
-3.93606
-2.30939
-0.666217
0.950507
2.51436
3.99695
5.38191
6.6533
7.80382
8.82769
9.72529
10.4985
11.1517
11.6892
12.1148
12.4292
12.6248
12.6812
12.5612
12.2146
11.5979
10.7863
8.70514
6.99128
4.94152
3.06536
1.45921
0.0442959
-1.26499
-2.58939
-4.10866
-5.88234
-7.87047
-8.93363
-8.51651
-7.09594
-5.42969
-3.70986
-2.23009
-1.10829
-0.272179
0.378242
0.940568
1.41793
1.87522
2.30812
2.6031
2.63992
-0.292869
0.302489
0.086234
0.133189
0.0604311
-0.0160797
-0.142034
-0.303145
-0.507247
-0.751399
-1.03698
-1.3649
-1.74032
-2.17034
-2.66194
-3.2173
-3.84841
-4.60455
-5.26282
-5.43012
-8.42235
-9.085
-10.2847
-10.9919
-11.2626
-11.1922
-10.7077
-9.86195
-8.71945
-7.33699
-5.78576
-4.12373
-2.40907
-0.681538
1.01428
2.65164
4.20131
5.6467
6.97153
8.16865
9.23239
10.1635
10.9643
11.6399
12.1951
12.6347
12.9602
13.1644
13.2261
13.106
12.7503
12.1063
11.3759
9.01912
7.28584
5.111
3.1504
1.43821
-0.0866059
-1.51784
-2.98395
-4.69739
-6.67819
-8.89146
-10.0765
-9.53285
-7.84783
-5.93879
-3.9958
-2.35192
-1.12946
-0.236025
0.451149
1.04561
1.5398
1.99517
2.40764
2.66027
2.70603
-0.399787
0.361969
0.0792617
0.140947
0.0545998
-0.0208441
-0.150068
-0.313479
-0.523629
-0.777073
-1.07714
-1.42577
-1.82975
-2.29765
-2.83874
-3.45991
-4.18028
-5.03518
-5.79012
-6.00617
-9.33332
-9.85279
-10.9794
-11.7129
-11.9655
-11.8627
-11.3272
-10.4113
-9.18702
-7.71481
-6.07011
-4.31459
-2.50945
-0.695698
1.08043
2.79198
4.40893
5.91459
7.29242
8.53546
9.63823
10.6019
11.4294
12.1264
12.6984
13.1513
13.4875
13.7002
13.7675
13.6477
13.285
12.597
11.7951
9.44765
7.55583
5.26994
3.21953
1.3984
-0.23774
-1.7945
-3.40847
-5.33205
-7.54922
-10.0001
-11.3248
-10.6378
-8.65578
-6.48228
-4.29659
-2.47726
-1.14966
-0.199267
0.524114
1.15032
1.65896
2.10296
2.49353
2.72494
2.77636
-0.503034
0.409075
0.0701204
0.145757
0.0493795
-0.0234043
-0.155267
-0.321132
-0.537543
-0.800563
-1.1155
-1.48541
-1.91878
-2.42579
-3.01812
-3.70736
-4.51851
-5.46991
-6.35766
-6.84737
-10.2848
-10.6927
-11.705
-12.4685
-12.7024
-12.5627
-11.9719
-10.9801
-9.669
-8.10273
-6.36091
-4.50879
-2.61056
-0.708594
1.14918
2.93567
4.62015
6.18594
7.6163
8.90456
10.0455
11.0408
11.8939
12.6112
13.1991
13.6644
14.011
14.232
14.3053
14.186
13.8215
13.1068
12.0305
9.90386
7.79166
5.41719
3.27112
1.33904
-0.40925
-2.09399
-3.86006
-6.00876
-8.49169
-11.1939
-12.6816
-11.835
-9.52091
-7.06057
-4.61169
-2.60562
-1.16889
-0.162893
0.595658
1.25329
1.77481
2.20085
2.56413
2.77544
2.84785
-0.587511
0.438252
0.0598767
0.148377
0.0460141
-0.0234592
-0.157613
-0.326085
-0.548889
-0.821722
-1.15189
-1.5436
-2.00711
-2.55425
-3.19921
-3.95806
-4.86016
-5.90793
-6.96846
-7.92241
-11.2042
-11.5873
-12.4596
-13.2587
-13.4755
-13.2948
-12.6438
-11.5702
-10.1665
-8.50125
-6.65833
-4.70639
-2.7124
-0.720107
1.22076
3.08304
4.83537
6.46116
7.94358
9.27632
10.4544
11.4803
12.3578
13.0944
13.6972
14.1741
14.5303
14.7595
14.8393
14.7206
14.3626
13.7283
12.1786
10.3096
7.99639
5.55111
3.30406
1.25957
-0.60082
-2.41413
-4.33333
-6.71964
-9.49569
-12.4619
-14.1438
-13.1244
-10.4425
-7.6732
-4.94009
-2.73622
-1.18705
-0.127986
0.664065
1.35292
1.88526
2.29133
2.62234
2.81589
2.89882
-0.637458
0.444756
0.050223
0.149848
0.0452985
-0.0209243
-0.157088
-0.328285
-0.55756
-0.840418
-1.18614
-1.60014
-2.09442
-2.68247
-3.38099
-4.21012
-5.20196
-6.34685
-7.61189
-9.14439
-12.0114
-12.5196
-13.2405
-14.0822
-14.2869
-14.061
-13.345
-12.1834
-10.6807
-8.91102
-6.96261
-4.90743
-2.81492
-0.730094
1.29544
3.23445
5.05497
6.74067
8.27467
9.6511
10.8654
11.9206
12.8215
13.5762
14.1927
14.6802
15.0454
15.2825
15.3692
15.2511
14.8992
14.4592
12.3784
10.6615
8.18439
5.67083
3.31722
1.15977
-0.811165
-2.75075
-4.81954
-7.45225
-10.544
-13.7846
-15.6988
-14.5007
-11.4171
-8.31827
-5.28005
-2.86789
-1.20384
-0.0957411
0.727405
1.44749
1.98949
2.37573
2.67385
2.8572
2.9481
-0.642075
0.426832
0.0432839
0.151093
0.0476308
-0.0157782
-0.153652
-0.327663
-0.563455
-0.856534
-1.21811
-1.6548
-2.18032
-2.8098
-3.5623
-4.46143
-5.54027
-6.78228
-8.26669
-10.3907
-12.6389
-13.4552
-14.0445
-14.9366
-15.1379
-14.8636
-14.0776
-12.8214
-11.213
-9.33285
-7.27404
-5.11192
-2.918
-0.738378
1.37347
3.39025
5.27941
7.02492
8.61001
10.0293
11.2788
12.3622
13.2851
14.0565
14.6856
15.1825
15.5561
15.8007
15.8946
15.7777
15.4109
15.1425
12.7322
10.9813
8.36186
5.77482
3.31016
1.04015
-1.03753
-3.09742
-5.30729
-8.19157
-11.6156
-15.1446
-17.3282
-15.9524
-12.4371
-8.99178
-5.6288
-2.99899
-1.21878
-0.0674563
0.783593
1.53534
2.08707
2.45431
2.72257
2.89017
3.00082
-0.599657
0.387085
0.0409469
0.152788
0.053177
-0.00799318
-0.147256
-0.32415
-0.566496
-0.869983
-1.24767
-1.70735
-2.26441
-2.93551
-3.74186
-4.70964
-5.87135
-7.20872
-8.90112
-11.5068
-13.0406
-14.3739
-14.869
-15.8175
-16.0286
-15.7045
-14.8434
-13.4859
-11.7649
-9.76768
-7.59304
-5.31991
-3.02151
-0.744749
1.45516
3.55083
5.50913
7.31442
8.95009
10.4115
11.695
12.8053
13.7488
14.5357
15.1759
15.6811
16.0622
16.3138
16.4148
16.3019
15.8878
15.6135
13.2009
11.2679
8.53102
5.86142
3.28296
0.902316
-1.27562
-3.4464
-5.78498
-8.92452
-12.6941
-16.5419
-19.0173
-17.465
-13.4915
-9.68716
-5.98213
-3.12721
-1.23111
-0.0445011
0.830489
1.61514
2.17796
2.52811
2.76978
2.92048
3.04107
-0.517836
0.332
0.0442902
0.155464
0.0619932
0.00247959
-0.137848
-0.317695
-0.566636
-0.880703
-1.27471
-1.75758
-2.34625
-3.05881
-3.91823
-4.95222
-6.1914
-7.61961
-9.48274
-12.3746
-13.2599
-15.2658
-15.7138
-16.7187
-16.9572
-16.5844
-15.6439
-14.1786
-12.3375
-10.2165
-7.92014
-5.53151
-3.12533
-0.748963
1.54082
3.71661
5.74464
7.60969
9.29545
10.798
12.1145
13.2503
14.2129
15.0137
15.6637
16.1759
16.5634
16.8216
16.9292
16.8285
16.3588
15.836
13.6963
11.5095
8.69085
5.92977
3.23668
0.748914
-1.52058
-3.79074
-6.24406
-9.64412
-13.775
-17.9907
-20.7657
-19.0276
-14.5672
-10.3953
-6.33421
-3.2494
-1.23976
-0.0282533
0.866006
1.68602
2.26273
2.59873
2.81569
2.95473
3.09229
-0.410232
0.26991
0.053458
0.159635
0.0740782
0.0156998
-0.125401
-0.308279
-0.563859
-0.888658
-1.29911
-1.80524
-2.42539
-3.17883
-4.08982
-5.1865
-6.49665
-8.00832
-9.98908
-12.9555
-13.4275
-16.1392
-16.5791
-17.6328
-17.9197
-17.503
-16.48
-14.9007
-12.9321
-10.6801
-8.25591
-5.74691
-3.22932
-0.750758
1.63079
3.88801
5.98644
7.9113
9.64666
11.1894
12.5376
13.6975
14.6778
15.4909
16.1492
16.6667
17.0596
17.3239
17.4374
17.3653
16.9405
15.9241
14.1316
11.7132
8.84047
5.97952
3.17298
0.58285
-1.7685
-4.12616
-6.6805
-10.3502
-14.8648
-19.5101
-22.589
-20.6386
-15.6525
-11.1051
-6.67739
-3.36136
-1.24318
-0.0200221
0.8882
1.74755
2.34253
2.66749
2.86245
2.98488
3.13922
-0.291825
0.208706
0.0679029
0.16583
0.0893881
0.031719
-0.109924
-0.29592
-0.558191
-0.893838
-1.32079
-1.85008
-2.5013
-3.2946
-4.25491
-5.40973
-6.7836
-8.36959
-10.4186
-13.3195
-13.7146
-16.9842
-17.4654
-18.5521
-18.91
-18.4582
-17.3514
-15.653
-13.5497
-11.1594
-8.60087
-5.96636
-3.33341
-0.749863
1.72543
4.06545
6.23506
8.21988
10.0043
11.5864
12.965
14.1475
15.1437
15.9675
16.6323
17.1536
17.5505
17.8204
17.9387
17.909
17.6894
16.0325
14.503
11.8966
8.97907
6.01125
3.09375
0.406173
-2.01772
-4.45151
-7.09365
-11.0465
-15.975
-21.1239
-24.5162
-22.3082
-16.7394
-11.8054
-7.0025
-3.45772
-1.23927
-0.0209685
0.895304
1.79977
2.41877
2.73655
2.90727
3.01909
3.1954
-0.17533
0.154363
0.0867327
0.17455
0.107837
0.0505613
-0.091467
-0.280677
-0.549687
-0.896255
-1.33967
-1.89186
-2.57344
-3.40508
-4.41171
-5.61925
-7.04929
-8.70051
-10.7868
-13.5945
-14.2492
-17.727
-18.3661
-19.4705
-19.9211
-19.4461
-18.2563
-16.4353
-14.1906
-11.6548
-8.95548
-6.19009
-3.43756
-0.746012
1.82511
4.24939
6.49105
8.53603
10.3692
11.9896
13.3972
14.6007
15.611
16.4438
17.1134
17.6366
18.0359
18.3107
18.4324
18.4368
18.4764
16.3025
14.8413
12.0724
9.10546
6.02595
3.00024
0.219237
-2.26895
-4.7677
-7.48403
-11.7377
-17.1188
-22.8631
-26.5868
-24.0571
-17.8251
-12.4857
-7.29924
-3.53184
-1.22522
-0.0320411
0.885698
1.84305
2.49314
2.80754
2.95315
3.04568
3.2542
-0.0695034
0.110535
0.108984
0.186213
0.129294
0.072208
-0.0701322
-0.262651
-0.538438
-0.895944
-1.35567
-1.93032
-2.64123
-3.50916
-4.55841
-5.8128
-7.29174
-9.00037
-11.1119
-13.861
-15.0255
-18.2494
-19.2752
-20.3877
-20.9469
-20.4623
-19.1916
-17.2462
-14.8549
-12.1667
-9.32
-6.41827
-3.54172
-0.738947
1.93024
4.44029
6.75494
8.86041
10.7419
12.3997
13.8349
15.0577
16.0803
16.92
17.5926
18.1158
18.5155
18.7941
18.9195
18.9269
19.104
16.7262
15.1481
12.2457
9.21882
6.02488
2.8926
0.0206113
-2.52453
-5.07619
-7.85152
-12.4276
-18.3099
-24.7645
-28.8492
-25.9149
-18.9117
-13.1373
-7.5568
-3.57585
-1.19746
-0.0539422
0.85783
1.87798
2.5674
2.88237
2.9992
3.06575
3.3132
0.0208907
0.0788766
0.13378
0.201113
0.153584
0.0965892
-0.0460676
-0.24198
-0.524563
-0.892963
-1.36874
-1.96519
-2.70404
-3.60574
-4.69342
-5.98873
-7.51025
-9.27029
-11.4064
-14.1327
-15.8694
-18.4802
-20.2063
-21.3126
-21.9836
-21.5019
-20.1526
-18.0831
-15.5414
-12.6949
-9.69444
-6.65095
-3.64582
-0.728409
2.04121
4.63861
7.02725
9.19365
11.1233
12.8175
14.2789
15.519
16.552
17.3966
18.0701
18.5911
18.9894
19.2697
19.4038
19.3836
19.4387
17.2121
15.4135
12.4171
9.31857
6.00875
2.76959
-0.192455
-2.78751
-5.37811
-8.19458
-13.1185
-19.5619
-26.8715
-31.3618
-27.9201
-20.0057
-13.7537
-7.76443
-3.58078
-1.15162
-0.0871373
0.810083
1.90524
2.64334
2.96344
3.04362
3.08394
3.37504
0.0942176
0.0596235
0.160384
0.219405
0.180487
0.123582
-0.0194634
-0.218838
-0.508215
-0.887395
-1.37883
-1.99619
-2.76128
-3.6938
-4.81551
-6.14638
-7.70564
-9.51296
-11.6774
-14.3944
-16.5878
-18.5149
-21.1943
-22.2628
-23.0303
-22.5619
-21.1347
-18.9417
-16.2479
-13.2382
-10.0785
-6.88803
-3.74971
-0.714117
2.15848
4.84488
7.30855
9.53636
11.514
13.2438
14.7298
15.9855
17.0266
17.874
18.5463
19.0629
19.4573
19.7368
19.8933
19.8762
19.5344
17.6723
15.6382
12.586
9.40457
5.97755
2.62893
-0.423511
-3.06126
-5.67381
-8.50986
-13.8104
-20.8881
-29.235
-34.1944
-30.1197
-21.117
-14.3306
-7.91183
-3.53674
-1.08259
-0.131918
0.740623
1.92552
2.72282
3.05283
3.08836
3.08894
3.43952
0.150877
0.0521648
0.188208
0.241109
0.209748
0.153015
0.00945178
-0.193435
-0.489579
-0.879358
-1.38593
-2.0231
-2.81238
-3.77253
-4.92406
-6.28614
-7.87996
-9.73196
-11.929
-14.6342
-17.1022
-18.6356
-22.2492
-23.258
-24.0887
-23.6411
-22.1341
-19.8176
-16.971
-13.7949
-10.4713
-7.12914
-3.85314
-0.695751
2.28249
5.05965
7.59939
9.88916
11.9147
13.6794
15.1887
16.458
17.505
18.3526
19.0215
19.5311
19.9194
20.1946
20.3942
20.5161
19.5366
18.0677
15.8334
12.7516
9.47688
5.93033
2.46751
-0.676619
-3.34922
-5.96275
-8.79192
-14.5005
-22.2999
-31.9127
-37.4276
-32.5702
-22.2592
-14.8657
-7.98949
-3.43314
-0.984671
-0.188526
0.647221
1.93945
2.80778
3.15321
3.13249
3.07974
3.5057
0.192336
0.0554843
0.216783
0.26613
0.241081
0.184669
0.0404137
-0.166018
-0.468879
-0.869004
-1.39005
-2.04568
-2.85689
-3.84146
-5.01914
-6.40934
-8.036