/*--------------------------------*- C++ -*----------------------------------*\
| =========                 |                                                 |
| \\      /  F ield         | OpenFOAM: The Open Source CFD Toolbox           |
|  \\    /   O peration     | Version:  4.1                                   |
|   \\  /    A nd           | Web:      www.OpenFOAM.org                      |
|    \\/     M anipulation  |                                                 |
\*---------------------------------------------------------------------------*/
FoamFile
{
    version     2.0;
    format      ascii;
    class       volScalarField;
    location    "24";
    object      p;
}
// * * * * * * * * * * * * * * * * * * * * * * * * * * * * * * * * * * * * * //

dimensions      [0 2 -2 0 0 0 0];

internalField   nonuniform List<scalar> 
6785
(
591.744
515.935
468.023
415.765
369.227
324.838
283.389
244.262
207.305
172.273
138.341
105.571
77.1098
46.4088
7.1145
-5.3609
-22.747
-13.8321
-19.9905
-20.0228
-22.2534
-23.1976
-23.857
-23.6918
-22.6123
-20.4935
-17.6578
-13.4567
-7.56279
-4.11123
10.3022
6.6878
16.6484
13.3511
17.7585
18.0399
19.8338
20.7684
21.8092
22.6986
23.6536
24.4816
25.0139
25.5071
27.1889
49.6298
46.9331
50.3514
45.5515
47.0604
44.4928
44.0633
42.6753
41.8173
40.9313
40.2831
39.7925
39.3742
38.8329
38.0346
21.027
16.9075
18.0763
13.8644
14.7478
11.9221
11.6273
10.0132
9.23609
8.21562
7.53647
6.99052
6.09429
4.56668
3.34874
-6.83651
-10.2865
-8.96717
-12.1361
-11.0929
-13.6145
-13.7297
-15.3668
-16.2741
-17.4076
-18.099
-18.4688
-18.8343
-19.1977
-17.7397
-4.06071
-5.06456
-2.75296
-4.41815
-2.33106
-3.36937
-2.34396
-2.53146
-2.21206
-2.09339
-1.74898
-1.2317
-0.0557703
1.27525
3.95324
17.1461
17.8321
20.2102
19.7833
22.2071
22.4402
24.1594
25.1681
26.5474
27.8745
29.3265
30.7357
32.3594
33.6391
35.372
33.7607
34.784
36.6073
36.4276
38.346
38.6128
39.9072
40.6814
41.6496
42.554
43.5055
44.4022
45.4362
46.2084
47.2429
46.5656
47.7154
49.0926
49.0058
50.4961
50.6212
51.6022
52.116
52.8384
53.5629
54.338
55.1018
55.9677
56.5624
57.5107
60.6869
61.6803
62.5838
62.7192
63.9251
64.165
65.0205
65.2191
65.4106
65.2123
64.8637
64.7138
64.856
65.2294
65.5077
67.3899
66.7508
66.841
66.1032
66.2932
65.3289
64.858
63.7668
62.7849
61.6573
60.6903
59.9594
59.4172
59.4471
58.5639
66.2644
63.1061
61.3236
59.0107
57.3442
55.2777
53.9796
52.4235
51.0456
49.3827
47.6302
45.9068
44.7851
44.2937
42.0265
37.1819
35.5922
33.6452
30.6254
27.6056
24.3548
21.5261
18.662
16.1319
13.9944
12.529
11.7175
11.6985
11.6836
10.4649
62.2242
59.2993
54.235
46.7209
37.7289
29.3559
23.2354
18.5932
15.6252
14.7552
14.8099
15.2003
15.4277
14.9969
13.1932
25.134
26.0978
25.9583
25.939
26.6192
28.9471
29.8323
29.7184
29.6274
29.6178
31.015
30.4716
30.3584
30.9171
29.9311
29.6608
29.982
30.1291
28.3449
29.0744
29.2168
27.447
27.1886
28.3794
28.3621
26.3861
26.1986
27.5626
28.0924
25.6492
27.1305
27.9606
26.1626
25.9842
27.4846
28.2604
26.3553
27.5629
28.4816
27.3018
27.1714
28.3075
28.8168
27.9194
27.8524
28.7292
28.9333
28.0797
28.853
29.0908
28.6066
28.6188
29.199
29.7906
29.5147
29.4976
29.7871
30.8391
30.7014
30.6302
31.7707
31.7282
31.6051
31.483
32.0424
32.1374
33.288
32.2719
30.7709
32.0481
33.9229
26.0539
22.436
25.8803
29.8808
4.8614
15.0613
22.1527
-24.5956
-13.1965
-7.27846
-8.6849
-3.84258
-10.753
-9.96297
-3.60073
-3.5257
-2.4384
-2.27833
-1.46976
1.12699
5.35254
6.6372
-0.40501
1.15126
5.20896
9.01048
9.17383
10.7607
11.8425
14.0574
20.0036
16.7852
19.4304
20.1346
22.5153
26.4834
28.8249
29.9288
31.7954
30.8777
40.16
38.2608
39.5897
40.0143
40.3217
42.1232
45.2782
46.539
42.0124
48.4414
51.0976
52.8106
53.0461
51.3592
49.6008
48.0614
48.904
43.0238
52.3031
53.3024
47.4758
46.0354
43.6301
39.6127
36.6141
33.1613
24.0114
31.1835
38.283
31.0626
27.8232
23.0708
16.6027
11.5045
9.39167
5.8254
1.58246
0.854188
5.62063
1.28988
1.25484
0.402779
-0.836399
-5.56083
-6.96064
-4.32164
-13.5438
-0.777666
-2.58354
-3.11614
1.22473
0.343038
1.92097
2.36847
3.07708
3.82429
3.77643
4.10451
4.2734
4.29714
4.34287
4.33427
4.3457
4.30525
4.3021
4.24429
4.16309
4.17584
4.04116
4.20635
4.00954
3.70241
4.20852
3.77481
3.54808
3.7168
3.36655
4.2457
3.47653
3.15613
3.42976
2.96808
4.25446
3.35723
2.32807
4.39237
3.04435
2.48234
2.98345
2.2824
4.49373
2.78256
2.20127
2.74038
1.99304
4.39095
2.81959
1.17233
4.47328
2.45722
1.55972
2.29366
1.33581
4.32615
2.10421
1.23856
1.93704
0.990108
3.83081
2.01957
0.0307393
3.65106
1.62214
0.261655
1.23719
-0.00979402
3.05348
1.12076
-0.385327
0.681433
-0.609757
2.29342
0.796638
-1.63762
2.11796
0.278759
-1.36993
-0.349742
-1.50828
0.0142673
-0.00670397
-0.00426048
-0.00973151
-0.0109665
-0.0146813
-0.0180471
-0.0224497
-0.026608
-0.0296722
-0.0301268
-0.0272723
-0.0216476
-0.0166741
-0.0235627
-0.0587351
-0.0928576
-0.0407002
-0.264557
-0.315484
-0.384313
-0.519261
-0.658736
-0.780152
-0.880217
-0.950977
-0.988659
-0.995497
-0.971557
-0.918378
-0.840382
-0.742201
-0.628337
-0.50326
-0.371228
-0.236575
-0.103007
0.0272572
0.152989
0.272442
0.383798
0.486704
0.581293
0.667121
0.743786
0.811265
0.868649
0.91502
0.951278
0.977433
0.989278
0.982037
0.953698
0.902281
0.824583
0.716175
0.575547
0.418876
0.28444
0.175938
0.0687695
0.0156828
-0.00296704
-0.0224605
-0.0582658
-0.107838
-0.158187
-0.187046
-0.180517
-0.145772
-0.100025
-0.0558697
-0.0286508
-0.00651268
0.0135287
0.0836736
0.0536735
-0.0312699
-0.0506488
0.0289348
-0.0356528
0.00663157
-0.000525662
0.0115062
0.0126669
0.0144609
0.00912988
-0.00386145
-0.0285145
-0.0647644
-0.106815
-0.141823
-0.15971
-0.166324
-0.176545
-0.163863
-0.0218172
-0.352751
-0.43646
-0.583926
-0.838222
-1.08752
-1.30318
-1.47892
-1.59877
-1.65631
-1.65531
-1.5958
-1.48231
-1.32383
-1.1284
-0.904417
-0.660898
-0.406258
-0.148018
0.108427
0.359459
0.600945
0.828402
1.04036
1.23726
1.41778
1.57936
1.72231
1.8474
1.95147
2.03283
2.09472
2.13648
2.14811
2.121
2.05268
1.93739
1.7665
1.5286
1.2216
0.880818
0.592427
0.371624
0.151684
0.037047
-0.00686281
-0.0492014
-0.120616
-0.211005
-0.290623
-0.328271
-0.312344
-0.254375
-0.178282
-0.0976153
-0.0474073
-0.00687038
-0.017124
-0.088454
-0.0235884
0.249425
0.169995
0.0580104
-0.055251
0.00363784
-0.0109118
0.0033672
0.00117948
-0.00011031
-0.0117491
-0.0330935
-0.0678763
-0.113333
-0.160403
-0.195149
-0.211323
-0.222658
-0.253173
-0.276099
-0.096574
-0.299404
-0.454143
-0.627644
-0.927037
-1.21904
-1.47144
-1.67741
-1.81672
-1.88198
-1.87812
-1.80471
-1.66734
-1.47671
-1.24223
-0.974082
-0.683021
-0.378771
-0.0699839
0.236742
0.536594
0.82467
1.09631
1.34968
1.58451
1.79916
1.99123
2.16086
2.30844
2.43111
2.52736
2.59927
2.64496
2.65449
2.61881
2.53318
2.38884
2.17311
1.87509
1.49242
1.07245
0.722903
0.459398
0.192983
0.0479976
-0.0137209
-0.0722863
-0.16378
-0.273058
-0.363136
-0.400539
-0.375817
-0.30256
-0.208765
-0.10965
-0.04288
0.00846016
-0.000114375
-0.00128127
0.0148307
0.298408
0.187225
0.0758598
-0.0791782
0.00640078
-0.0116594
0.00998066
0.00856253
0.00782499
-0.007794
-0.0377199
-0.0868324
-0.150418
-0.215696
-0.265858
-0.293912
-0.312142
-0.340781
-0.362277
-0.187638
-0.240932
-0.565212
-0.757135
-1.11728
-1.47432
-1.78098
-2.03061
-2.19809
-2.27488
-2.26761
-2.17568
-2.00607
-1.77177
-1.48426
-1.1561
-0.800353
-0.428608
-0.0512498
0.323413
0.689115
1.04011
1.37137
1.68036
1.96609
2.22668
2.45995
2.66576
2.84411
2.99237
3.10909
3.19534
3.24817
3.25722
3.21242
3.10652
2.92802
2.66018
2.29215
1.82034
1.30373
0.876124
0.562507
0.243943
0.0622853
-0.0229957
-0.103319
-0.22006
-0.35285
-0.457675
-0.497223
-0.463009
-0.371123
-0.254474
-0.131517
-0.0449942
0.0234138
0.0105845
0.0340937
-0.00577282
0.394859
0.278753
0.0992258
-0.0971744
0.00788997
-0.0142646
0.0118677
0.00959863
0.00739592
-0.0138533
-0.053245
-0.115204
-0.191387
-0.265658
-0.32161
-0.355171
-0.380332
-0.416274
-0.446426
-0.288549
-0.173214
-0.675246
-0.888902
-1.31403
-1.74367
-2.11046
-2.40969
-2.60996
-2.70114
-2.69146
-2.58
-2.37533
-2.09304
-1.74686
-1.35197
-0.924058
-0.476986
-0.0231178
0.427517
0.867202
1.28901
1.68712
2.05848
2.40158
2.71414
2.99376
3.24021
3.45331
3.63022
3.76944
3.87164
3.93286
3.94145
3.88589
3.75688
3.54018
3.21485
2.76873
2.19625
1.56987
1.05044
0.675421
0.299164
0.0760944
-0.0374936
-0.144775
-0.290917
-0.448399
-0.56591
-0.604019
-0.557372
-0.445028
-0.303822
-0.154579
-0.0454679
0.0439722
0.0390506
0.129995
0.00353563
0.45542
0.359066
0.116017
-0.11442
0.0106871
-0.0134343
0.0181493
0.016154
0.0129803
-0.0138163
-0.0630504
-0.13797
-0.226491
-0.310745
-0.376083
-0.420162
-0.455819
-0.498118
-0.528758
-0.391938
-0.171852
-0.771588
-1.02601
-1.50429
-2.00203
-2.42269
-2.76618
-2.99486
-3.09739
-3.0837
-2.95227
-2.71334
-2.38495
-1.98289
-1.52479
-1.02881
-0.51088
0.0148164
0.536642
1.04552
1.53344
1.99391
2.42337
2.81981
3.18056
3.50311
3.78711
4.03218
4.23539
4.3952
4.51183
4.58031
4.58789
4.52178
4.37065
4.11768
3.7378
3.21786
2.54946
1.8206
1.21481
0.777957
0.349636
0.0861538
-0.0597474
-0.20023
-0.37965
-0.560671
-0.685557
-0.715957
-0.652062
-0.516452
-0.349478
-0.173842
-0.0406529
0.0698416
0.0767225
0.219085
0.0513471
0.484513
0.441849
0.132994
-0.126777
0.0145542
-0.0105628
0.0253471
0.0233355
0.0182118
-0.015209
-0.075025
-0.162003
-0.260475
-0.352518
-0.425897
-0.479898
-0.527043
-0.579859
-0.617111
-0.509702
-0.259728
-0.822411
-1.18368
-1.70642
-2.27379
-2.74791
-3.13419
-3.38943
-3.50167
-3.48256
-3.32986
-3.05564
-2.68041
-2.22201
-1.70055
-1.1366
-0.5481
0.0489634
0.641352
1.21865
1.77184
2.29382
2.78049
3.22934
3.63734
4.00193
4.32266
4.59892
4.82774
5.00759
5.13819
5.21359
5.22007
5.14358
4.97075
4.68233
4.24919
3.65726
2.89458
2.06611
1.37509
0.873594
0.396236
0.0919215
-0.0917804
-0.273786
-0.492541
-0.697907
-0.826013
-0.842281
-0.754823
-0.590593
-0.394076
-0.190305
-0.0313459
0.102218
0.125971
0.315499
0.178577
0.549325
0.50594
0.145346
-0.135461
0.0196151
-0.00457797
0.0353638
0.0335548
0.0258095
-0.0150707
-0.0857528
-0.183693
-0.291007
-0.39124
-0.47426
-0.540383
-0.601368
-0.66711
-0.714601
-0.640653
-0.407265
-0.80995
-1.36252
-1.91983
-2.55744
-3.08681
-3.51571
-3.79651
-3.91758
-3.89219
-3.71711
-3.4064
-2.98311
-2.46714
-1.88113
-1.24806
-0.587928
0.0814595
0.745269
1.39176
2.01091
2.59498
3.13934
3.64098
4.09656
4.50343
4.86106
5.16861
5.42309
5.62298
5.76756
5.84992
5.85532
5.76846
5.57394
5.25014
4.76392
4.10001
3.24357
2.31555
1.53402
0.9619
0.437045
0.0911578
-0.136369
-0.369031
-0.633739
-0.864424
-0.99129
-0.986271
-0.868055
-0.66874
-0.437779
-0.203164
-0.016668
0.141828
0.187008
0.422947
0.351742
0.632747
0.647085
0.15497
-0.138469
0.0263951
0.00474401
0.0477169
0.045749
0.0340567
-0.0154296
-0.0969942
-0.204702
-0.320185
-0.428789
-0.521858
-0.600833
-0.67699
-0.758194
-0.820699
-0.780046
-0.575863
-0.76344
-1.56531
-2.14683
-2.85036
-3.43707
-3.90775
-4.21199
-4.33999
-4.30679
-4.10789
-3.75946
-3.28707
-2.71271
-2.06154
-1.35897
-0.626994
0.114771
0.849921
1.56543
2.25029
2.89613
3.49781
4.05185
4.55458
5.00331
5.39739
5.73584
6.01561
6.23522
6.39352
6.4827
6.487
6.38985
6.17388
5.81513
5.27647
4.54094
3.59306
2.56713
1.68795
1.04092
0.472169
0.0832238
-0.195331
-0.488595
-0.806268
-1.06271
-1.18307
-1.14882
-0.992095
-0.750813
-0.480238
-0.211804
0.00387958
0.189132
0.260808
0.540282
0.538969
0.762186
0.741072
0.159784
-0.135571
0.0348843
0.0176956
0.0626713
0.059983
0.0428124
-0.0161537
-0.108108
-0.224687
-0.348366
-0.465836
-0.569806
-0.663034
-0.756081
-0.854836
-0.935585
-0.92602
-0.752907
-0.753632
-1.78921
-2.39243
-3.15328
-3.80073
-4.31322
-4.63874
-4.77144
-4.72847
-4.50393
-4.11626
-3.59347
-2.95969
-2.24262
-1.47005
-0.665981
0.148217
0.954592
1.73887
2.4891
3.1963
3.85484
4.46075
5.01012
5.50017
5.9302
6.29904
6.60366
6.84263
7.0144
7.11023
7.11341
7.00615
6.76901
6.3758
5.78538
4.97825
3.94064
2.81884
1.83406
1.1142
0.505948
0.0681603
-0.271148
-0.634481
-1.01297
-1.29551
-1.4036
-1.33171
-1.12831
-0.837703
-0.521951
-0.216335
0.0303502
0.244064
0.346015
0.662058
0.729391
0.961946
0.8581
0.15981
-0.125525
0.0454244
0.0344368
0.0798829
0.07538
0.0509495
-0.0179799
-0.119672
-0.244766
-0.376779
-0.503253
-0.618703
-0.727258
-0.838582
-0.956857
-1.0591
-1.08151
-0.95025
-0.844307
-2.01218
-2.65981
-3.46651
-4.17858
-4.73407
-5.07909
-5.21438
-5.15947
-4.90721
-4.47848
-3.90376
-3.20926
-2.4253
-1.58199
-0.70533
0.18158
1.05927
1.91227
2.72771
3.49605
4.21112
4.86855
5.46415
5.99512
6.46068
6.85953
7.18865
7.4467
7.63173
7.73411
7.7362
7.61902
7.36098
6.9337
6.29201
5.41252
4.28555
3.06964
1.97225
1.18991
0.541322
0.0434272
-0.36794
-0.808214
-1.25641
-1.566
-1.65556
-1.53692
-1.27821
-0.930385
-0.563448
-0.216905
0.0627651
0.306279
0.441411
0.788987
0.916956
1.16252
1.05221
0.153847
-0.10778
0.0579663
0.0548146
0.0987902
0.0909988
0.0577187
-0.0210857
-0.132005
-0.265538
-0.405719
-0.541212
-0.668902
-0.793979
-0.925017
-1.06473
-1.19149
-1.24918
-1.17684
-1.0487
-2.19696
-2.95226
-3.79169
-4.57078
-5.17113
-5.53419
-5.67009
-5.60085
-5.31843
-4.84657
-4.21813
-3.46145
-2.60944
-1.69457
-0.744754
0.215179
1.1643
2.08596
2.96645
3.79566
4.56694
5.27549
5.9169
6.48837
6.98903
7.41746
7.77074
8.04759
8.24569
8.35452
8.35558
8.22869
7.95003
7.48901
6.79645
5.84418
4.62748
3.31532
2.10853
1.27482
0.575892
0.00499733
-0.489303
-1.01128
-1.53881
-1.87734
-1.94198
-1.76667
-1.44335
-1.0298
-0.605209
-0.213707
0.101093
0.375255
0.545508
0.920442
1.09548
1.35332
1.17643
0.141328
-0.0816262
0.0724868
0.0784281
0.118423
0.105645
0.0624343
-0.025844
-0.145798
-0.287492
-0.435275
-0.57984
-0.720565
-0.863212
-1.01525
-1.17826
-1.33238
-1.42906
-1.42655
-1.33127
-2.31938
-3.27536
-4.13241
-4.97769
-5.6253
-6.00518
-6.14
-6.054
-5.73868
-5.22125
-4.53704
-3.7165
-2.79514
-1.80774
-0.784149
0.24916
1.26982
2.26009
3.20544
4.09523
4.92233
5.68157
6.36834
6.97983
7.51512
7.9727
8.34976
8.64513
8.85609
8.97128
8.97137
8.83501
8.53601
8.04154
7.29829
6.2738
4.96708
3.54587
2.25493
1.36863
0.603746
-0.0506397
-0.637764
-1.24617
-1.86281
-2.2328
-2.26613
-2.02345
-1.62552
-1.13701
-0.647766
-0.207018
0.145141
0.450531
0.656764
1.05524
1.2637
1.54207
1.39706
0.121338
-0.0467896
0.0886274
0.104446
0.137505
0.118274
0.0647232
-0.0326499
-0.161435
-0.310434
-0.465121
-0.619038
-0.773649
-0.934846
-1.10913
-1.29724
-1.48139
-1.62019
-1.68931
-1.64878
-2.38121
-3.63529
-4.4942
-5.40005
-6.09749
-6.49305
-6.62543
-6.52039
-6.16929
-5.60354
-4.86118
-3.97485
-2.98265
-1.92163
-0.82351
0.283601
1.37596
2.43481
3.44483
4.3949
5.27744
6.08692
6.81857
7.46961
8.03904
8.52533
8.92579
9.23939
9.46302
9.58447
9.58368
9.43811
9.11903
8.59132
7.7971
6.70089
5.30504
3.75434
2.41624
1.46525
0.619929
-0.125539
-0.815703
-1.51774
-2.2324
-2.63643
-2.6316
-2.30994
-1.82665
-1.25312
-0.691681
-0.197164
0.194538
0.531595
0.773581
1.19207
1.42163
1.70288
1.51437
0.0931091
-0.00320693
0.105798
0.131679
0.15467
0.128166
0.0642882
-0.0419178
-0.178813
-0.333801
-0.494924
-0.658693
-0.828
-1.00862
-1.2063
-1.42131
-1.63802
-1.82136
-1.95678
-1.96683
-2.41568
-4.04111
-4.88425
-5.83862
-6.58874
-6.99868
-7.12738
-7.00126
-6.6115
-5.99442
-5.19122
-4.23692
-3.17217
-2.03628
-0.862781
0.318632
1.48291
2.61031
3.68484
4.69489
5.63246
6.49171
7.26775
7.95783
8.56091
9.07544
9.49892
9.83046
10.0666
10.1942
10.1926
10.0381
9.69917
9.13835
8.2923
7.12357
5.63857
3.9493
2.58414
1.55682
0.622295
-0.220856
-1.02554
-1.83291
-2.65257
-3.09299
-3.04242
-2.629
-2.04879
-1.37929
-0.737547
-0.18451
0.248847
0.617815
0.894357
1.32941
1.57008
1.86631
1.66616
0.0556958
0.0487506
0.123012
0.158632
0.168772
0.134954
0.0608317
-0.0536792
-0.197212
-0.356875
-0.524369
-0.698618
-0.883366
-1.08421
-1.30641
-1.55013
-1.80192
-2.03197
-2.22719
-2.27885
-2.49724
-4.50129
-5.3083
-6.29467
-7.10032
-7.5231
-7.64667
-7.49763
-7.06645
-6.39491
-5.52789
-4.50314
-3.36392
-2.15174
-0.901898
0.354395
1.59083
2.7868
3.92565
4.99536
5.98754
6.89607
7.71599
8.44457
9.08077
9.62306
10.0692
10.4184
10.6667
10.8004
10.7982
10.635
10.2764
9.68252
8.78307
7.53971
5.95108
4.15296
2.75127
1.63844
0.610624
-0.337903
-1.26992
-2.19825
-3.12857
-3.60782
-3.5031
-2.9837
-2.29408
-1.51674
-0.785995
-0.169447
0.307655
0.708424
1.01753
1.46524
1.70829
2.00628
1.84084
0.00806213
0.108288
0.138954
0.183802
0.179128
0.138422
0.0541901
-0.0673437
-0.215617
-0.379076
-0.553232
-0.738611
-0.939461
-1.16127
-1.40914
-1.6834
-1.97288
-2.25224
-2.50601
-2.61088
-2.70876
-5.00339
-5.77125
-6.76976
-7.63383
-8.06771
-8.18418
-8.01034
-7.53515
-6.806
-5.87198
-4.77401
-3.55814
-2.26808
-0.940807
0.391027
1.69993
2.96449
4.16748
5.29652
6.34286
7.30016
8.1634
8.92993
9.59869
10.1682
10.6366
11.0031
11.2635
11.4032
11.4004
11.2289
10.8508
10.2237
9.26844
7.94912
6.21831
4.37818
2.91462
1.70862
0.584618
-0.478318
-1.55144
-2.6183
-3.66546
-4.18652
-4.01841
-3.37727
-2.56479
-1.66674
-0.837684
-0.152349
0.370572
0.802567
1.14149
1.59798
1.83655
2.1267
1.94521
-0.050992
0.174059
0.152099
0.205988
0.185469
0.138386
0.0446813
-0.0817793
-0.233074
-0.400024
-0.581331
-0.778442
-0.995989
-1.2395
-1.51417
-1.82088
-2.15077
-2.48271
-2.79987
-2.99071
-3.09589
-5.51426
-6.27534
-7.26642
-8.19083
-8.63446
-8.74095
-8.54013
-8.01844
-7.22859
-6.22425
-5.05007
-3.75513
-2.3854
-0.979456
0.42867
1.8104
3.14361
4.41056
5.59857
6.69859
7.70411
8.6101
9.41398
10.1147
10.711
11.2011
11.5846
11.8568
12.0025
11.9992
11.8197
11.4223
10.7619
9.74721
8.35579
6.44844
4.60721
3.06856
1.7671
0.543351
-0.643571
-1.87226
-3.09645
-4.26821
-4.83491
-4.59332
-3.81307
-2.86328
-1.83059
-0.893276
-0.133562
0.437187
0.89932
1.26376
1.72569
1.95509
2.24499
2.06288
-0.122656
0.244109
0.161062
0.224487
0.187696
0.134872
0.0332823
-0.0957118
-0.24893
-0.41951
-0.608502
-0.817876
-1.05266
-1.3186
-1.62127
-1.96238
-2.33546
-2.72366
-3.11201
-3.42262
-3.63998
-5.99293
-6.82124
-7.78771
-8.77347
-9.22545
-9.31837
-9.08783
-8.51703
-7.66342
-6.58544
-5.33186
-3.95518
-2.50377
-1.01779
0.467478
1.92245
3.32439
4.65512
5.90174
7.05494
8.1081
9.05622
9.89682
10.6289
11.2514
11.7628
12.163
12.4468
12.5983
12.5946
12.4075
11.9909
11.2972
10.2186
8.74671
6.67506
4.82319
3.20824
1.81375
0.485859
-0.834633
-2.23412
-3.63591
-4.94169
-5.55915
-5.23293
-4.29447
-3.19196
-2.00961
-0.953414
-0.113408
0.507042
0.997758
1.3812
1.84514
2.06342
2.34398
2.20201
-0.20771
0.315843
0.164981
0.238939
0.18578
0.128452
0.0214124
-0.108114
-0.262831
-0.437407
-0.63458
-0.856673
-1.10921
-1.39832
-1.73021
-2.10768
-2.52679
-2.97512
-3.44326
-3.89855
-4.29489
-6.40327
-7.40951
-8.34057
-9.38314
-9.84322
-9.91818
-9.65445
-9.03164
-8.1111
-6.95616
-5.61991
-4.15862
-2.62333
-1.05576
0.507608
2.0363
3.50708
4.90144
6.20626
7.41212
8.51231
9.50191
10.3785
11.1413
11.7894
12.3217
12.7381
13.0332
13.1905
13.1866
12.9921
12.5565
11.8294
10.6849
9.08105
6.93559
5.02784
3.33279
1.848
0.411505
-1.0519
-2.63852
-4.23984
-5.69078
-6.36557
-5.94245
-4.82484
-3.55328
-2.2051
-1.01871
-0.0922116
0.579602
1.09699
1.49224
1.95223
2.1615
2.42924
2.27777
-0.305641
0.386049
0.163694
0.249052
0.180001
0.120338
0.0104736
-0.118365
-0.274619
-0.45361
-0.659381
-0.894583
-1.16536
-1.4784
-1.84076
-2.25658
-2.72451
-3.23685
-3.7923
-4.4031
-5.00519
-6.735
-8.04957
-8.93084
-10.0219
-10.4902
-10.5423
-10.2413
-9.56306
-8.5722
-7.33693
-5.91469
-4.36577
-2.74419
-1.09332
0.549223
2.15219
3.69197
5.14977
6.51241
7.77035
8.91692
9.9473
10.8593
11.652
12.325
12.8777
13.31
13.6161
13.779
13.775
13.5736
13.1191
12.3579
11.1575
9.33993
7.21774
5.21998
3.44287
1.86911
0.320081
-1.29531
-3.08672
-4.91133
-6.52082
-7.26103
-6.72729
-5.40749
-3.9497
-2.41831
-1.08972
-0.0703321
0.654213
1.19535
1.59663
2.0444
2.24869
2.50984
2.40383
-0.413295
0.450871
0.157543
0.254546
0.171274
0.112055
0.00149189
-0.126175
-0.284214
-0.467997
-0.682695
-0.931345
-1.22083
-1.55859
-1.95268
-2.40879
-2.92825
-3.5083
-4.15671
-4.91972
-5.71122
-7.00131
-8.74725
-9.56965
-10.6914
-11.1684
-11.1931
-10.8501
-10.1124
-9.04727
-7.72815
-6.21656
-4.57693
-2.86648
-1.13043
0.592494
2.27036
3.87933
5.40042
6.82045
8.12989
9.32214
10.3926
11.3391
12.1611
12.8583
13.4308
13.8785
14.1953
14.3637
14.3597
14.1517
13.6789
12.8803
11.653
9.56293
7.47726
5.39276
3.5384
1.87658
0.211887
-1.56439
-3.5797
-5.65337
-7.43754
-8.25296
-7.59311
-6.04573
-4.38365
-2.65043
-1.16696
-0.0481834
0.730011
1.29153
1.69504
2.12442
2.3243
2.57177
2.47146
-0.52338
0.505676
0.14709
0.255468
0.161146
0.104967
-0.00495681
-0.131437
-0.291539
-0.480408
-0.704283
-0.966681
-1.27536
-1.63862
-2.06568
-2.56392
-3.1375
-3.78864
-4.53362
-5.43384
-6.37475
-7.28111
-9.52684
-10.2692
-11.3919
-11.8802
-11.8726
-11.4825
-10.6808
-9.53702
-8.13017
-6.52581
-4.79231
-2.99032
-1.16704
0.637596
2.39109
4.06946
5.65369
7.13069
8.49101
9.72822
10.8379
11.8181
12.6685
13.3893
13.981
14.4436
14.7708
14.9445
14.9406
14.7264
14.2361
13.3916
12.13
9.82144
7.70715
5.5445
3.61887
1.87019
0.0878097
-1.85809
-4.11769
-6.46804
-8.44697
-9.34916
-8.54572
-6.74282
-4.85754
-2.90254
-1.25091
-0.0262519
0.806002
1.38432
1.78811
2.198
2.39042
2.63664
2.55369
-0.623886
0.545009
0.133153
0.252502
0.15138
0.0999792
-0.00861576
-0.134098
-0.296481
-0.490639
-0.723877
-1.0003
-1.32865
-1.71817
-2.1794
-2.7215
-3.35153
-4.07668
-4.91997
-5.93974
-6.99021
-7.65582
-10.4068
-11.0331
-12.1257
-12.6265
-12.5832
-12.1404
-11.2699
-10.0423
-8.54341
-6.84261
-5.01205
-3.11577
-1.20309
0.684715
2.51463
4.2627
5.90993
7.44345
8.85401
10.1354
11.2834
12.2965
13.1744
13.918
14.5283
15.0052
15.3424
15.5212
15.5176
15.2974
14.7916
13.8913
12.4962
10.1537
7.91926
5.6776
3.68341
1.84994
-0.0506705
-2.17437
-4.6995
-7.35556
-9.55445
-10.5569
-9.59049
-7.50178
-5.3737
-3.17561
-1.342
-0.00508742
0.881146
1.47263
1.87573
2.26805
2.45064
2.68966
2.65125
-0.699645
0.563234
0.117162
0.246883
0.143456
0.0975479
-0.00937793
-0.134086
-0.298877
-0.49845
-0.741196
-1.03192
-1.38039
-1.79694
-2.29344
-2.88095
-3.56946
-4.37095
-5.31322
-6.43867
-7.57935
-8.19279
-11.3705
-11.8738
-12.8904
-13.4088
-13.3269
-12.826
-11.8814
-10.5643
-8.96837
-7.16715
-5.23622
-3.24285
-1.23852
0.734044
2.64128
4.45937
6.16948
7.75909
9.21921
10.544
11.7295
12.7744
13.6789
14.4445
15.0725
15.5632
15.9099
16.0937
16.0905
15.8645
15.3467
14.4032
12.7348
10.4992
8.10538
5.79234
3.7313
1.81633
-0.201382
-2.50995
-5.32183
-8.31329
-10.7637
-11.8813
-10.7314
-8.32496
-5.93427
-3.47047
-1.44062
0.014754
0.95449
1.55559
1.95809
2.33572
2.50852
2.73559
2.71923
-0.736357
0.556125
0.101321
0.239969
0.138346
0.0978555
-0.00717084
-0.13129
-0.298522
-0.503581
-0.755956
-1.06123
-1.43029
-1.87456
-2.40733
-3.04158
-3.7902
-4.66963
-5.71073
-6.93659
-8.20646
-8.98719
-12.3999
-12.7803
-13.6859
-14.227
-14.1059
-13.5411
-12.517
-11.1043
-9.40575
-7.49963
-5.46483
-3.37151
-1.27321
0.785793
2.77135
4.65984
6.43273
8.07796
9.58697
10.9543
12.1763
13.252
14.1821
14.9687
15.6138
16.1176
16.4732
16.6617
16.6591
16.4275
15.9004
14.9775
12.9208
10.7803
8.25863
5.88722
3.76196
1.7704
-0.361297
-2.85999
-5.97873
-9.3352
-12.0758
-13.3242
-11.9702
-9.21347
-6.54095
-3.78776
-1.54707
0.0328202
1.02534
1.63273
2.03571
2.40198
2.56668
2.7862
2.79463
-0.725491
0.522799
0.0882105
0.232869
0.136568
0.100978
-0.00190191
-0.125549
-0.295186
-0.505775
-0.767893
-1.08798
-1.47805
-1.95067
-2.52056
-3.2026
-4.01248
-4.97056
-6.10912
-7.43447
-8.87989
-10.0197
-13.3872
-13.7344
-14.5108
-15.0802
-14.922
-14.2875
-13.1782
-11.6636
-9.85639
-7.84037
-5.69788
-3.50166
-1.30701
0.840191
2.90516
4.8645
6.70008
8.40048
9.95765
11.3666
12.6241
13.7296
14.6842
15.4908
16.1521
16.6682
17.0322
17.2252
17.2232
16.9863
16.4417
15.5534
13.1702
11.0088
8.38502
5.96107
3.775
1.71374
-0.526368
-3.21773
-6.66115
-10.4115
-13.4859
-14.8825
-13.3048
-10.1665
-7.1947
-4.12784
-1.66149
0.0489112
1.09341
1.70393
2.10942
2.4676
2.62601
2.8309
2.88141
-0.667401
0.466714
0.0800399
0.226358
0.138364
0.106984
0.00655661
-0.116676
-0.288641
-0.504794
-0.776772
-1.11192
-1.52339
-2.02489
-2.63257
-3.36314
-4.23486
-5.27126
-6.50458
-7.92955
-9.58084
-11.1955
-14.2546
-14.7231
-15.3598
-15.9666
-15.7764
-15.0671
-13.8668
-12.2436
-10.3212
-8.1898
-5.93542
-3.63314
-1.33972
0.897498
3.04305
5.07376
6.97199
8.72709
10.3317
11.7813
13.0733
14.2073
15.1852
16.0108
16.6873
17.2149
17.5867
17.7837
17.7825
17.5419
16.9604
15.9869
13.5346
11.2077
8.49111
6.01278
3.7704
1.64846
-0.691337
-3.57447
-7.35724
-11.5291
-14.9828
-16.5475
-14.7292
-11.181
-7.89536
-4.49061
-1.78376
0.0632395
1.15892
1.76942
2.18008
2.53359
2.68675
2.87339
2.94828
-0.57095
0.394959
0.078078
0.221023
0.143845
0.11598
0.0183591
-0.104474
-0.278681
-0.500444
-0.782408
-1.13286
-1.56604
-2.09683
-2.74276
-3.52224
-4.45573
-5.56897
-6.89279
-8.41605
-10.2822
-12.4019
-14.9563
-15.7042
-16.2333
-16.8823
-16.6693
-15.8811
-14.5838
-12.8456
-10.8012
-8.54844
-6.17755
-3.76582
-1.37109
0.958003
3.18538
5.28805
7.24893
9.05826
10.7095
12.1989
13.5241
14.6855
15.6854
16.5288
17.2195
17.7578
18.1366
18.3373
18.3367
18.098
17.4823
16.2348
13.9349
11.3691
8.57631
6.04091
3.74883
1.57746
-0.849846
-3.92038
-8.05435
-12.6752
-16.5547
-18.3078
-16.2341
-12.251
-8.6414
-4.87531
-1.91332
0.0765736
1.22264
1.82962
2.24862
2.60091
2.74879
2.92015
3.03052
-0.450151
0.316205
0.0825647
0.217425
0.153067
0.128108
0.0336643
-0.0887706
-0.26515
-0.492586
-0.78466
-1.1506
-1.60576
-2.16612
-2.8505
-3.67883
-4.67329
-5.86071
-7.26935
-8.8873
-10.9488
-13.4923
-15.4391
-16.673
-17.1262
-17.8226
-17.5993
-16.73
-15.3304
-13.4706
-11.2972
-8.91685
-6.42446
-3.89957
-1.40087
1.02203
3.33253
5.50784
7.53141
9.39452
11.0916
12.6197
13.977
15.1644
16.1851
17.0449
17.7487
18.2966
18.6816
18.8857
18.8856
18.6596
18.0975
16.3843
14.2655
11.489
8.63838
6.04487
3.71173
1.50426
-0.995216
-4.2464
-8.74235
-13.8424
-18.1964
-20.1561
-17.8091
-13.3688
-9.4296
-5.28035
-2.04904
0.0903454
1.2858
1.88507
2.31597
2.67009
2.81231
2.95954
3.1016
-0.319843
0.238493
0.0929956
0.216148
0.166063
0.143534
0.0526078
-0.0694382
-0.24795
-0.481142
-0.783442
-1.16504
-1.64232
-2.23234
-2.95512
-3.83177
-4.88557
-6.14325
-7.62964
-9.33501
-11.5497
-14.3784
-15.7441
-17.6072
-18.0392
-18.7813
-18.5634
-17.6133
-16.1067
-14.1194
-11.81
-9.29555
-6.67637
-4.03431
-1.42876
1.08991
3.4849
5.73359
7.81997
9.73645
11.4786
13.0442
14.4324
15.6445
16.6844
17.5593
18.275
18.8315
19.2216
19.4287
19.4285
19.2161
18.7888
16.585
14.5201
11.5779
8.67591
6.02485
3.6612
1.43248
-1.12172
-4.54622
-9.4163
-15.0321
-19.9144
-22.0958
-19.4472
-14.5252
-10.2552
-5.7031
-2.18904
0.106722
1.3501
1.93629
2.38296
2.74243
2.87718
3.0052
3.17707
-0.192363
0.167839
0.108508
0.217784
0.182845
0.162416
0.0752767
-0.0464122
-0.227053
-0.466089
-0.77871
-1.17605
-1.6755
-2.29511
-3.05587
-3.97976
-5.0904
-6.41325
-7.96925
-9.75183
-12.0637
-15.0099
-15.9564
-18.5168
-18.9729
-19.7515
-19.5569
-18.5293
-16.9121
-14.7921
-12.34
-9.68494
-6.9335
-4.16998
-1.45451
1.16203
3.64289
5.96578
8.11516
10.0846
11.871
13.4731
14.8908
16.1261
17.1838
18.0722
18.7984
19.3623
19.7564
19.9658
19.9656
19.7422
19.3876
16.9369
14.7303
11.6463
8.68835
5.98214
3.59956
1.36505
-1.22548
-4.81682
-10.0764
-16.2538
-21.7278
-24.1431
-21.1479
-15.7119
-11.1119
-6.13974
-2.3306
0.128647
1.41754
1.98367
2.4504
2.81852
2.94362
3.04535
3.25422
-0.0760267
0.107903
0.128178
0.22287
0.2034
0.18487
0.101692
-0.0196978
-0.202496
-0.447461
-0.770464
-1.18357
-1.7051
-2.35399
-3.15199
-4.12143
-5.28551
-6.66742
-8.28435
-10.133
-12.4915
-15.4288
-16.2246
-19.4057
-19.9274
-20.7276
-20.574
-19.4747
-17.7449
-15.4882
-12.8873
-10.0852
-7.196
-4.30653
-1.47783
1.23877
3.80694
6.20487
8.41755
10.4397
12.2695
13.9069
15.3527
16.6097
17.6834
18.5837
19.319
19.8892
20.2858
20.4967
20.5004
20.2243
19.7325
17.3882
14.8944
11.6971
8.67492
5.91868
3.52882
1.30373
-1.30429
-5.05732
-10.7261
-17.5219
-23.6647
-26.3264
-22.9185
-16.9223
-11.9928
-6.58526
-2.47002
0.159867
1.49044
2.02739
2.51899
2.89957
3.01119
3.08122
3.32324
0.0248123
0.0603595
0.15119
0.231844
0.22767
0.210953
0.131801
0.0106318
-0.174373
-0.425336
-0.758737
-1.18755
-1.73094
-2.40856
-3.24261
-4.25529
-5.46856
-6.9028
-8.5722
-10.4772
-12.8538
-15.7484
-16.6891
-20.2194
-20.9028
-21.7073
-21.6089
-20.4456
-18.6021
-16.2061
-13.4512
-10.4962
-7.46386
-4.44387
-1.49847
1.32053
3.97749
6.45134
8.72768
10.8024
12.6748
14.3463
15.8188
17.0957
18.1837
19.0941
19.8369
20.4122
20.81
21.0211
21.044
20.7415
19.8719
17.812
15.0048
11.7304
8.63605
5.83642
3.45006
1.24926
-1.35673
-5.26745
-11.3697
-18.8542
-25.762
-28.6851
-24.7732
-18.1527
-12.8906
-7.03354
-2.60256
0.204952
1.57127
2.06737
2.58937
2.98708
3.08043
3.11709
3.39117
0.108853
0.0255124
0.176888
0.245009
0.255546
0.240644
0.165481
0.044444
-0.142824
-0.399829
-0.743594
-1.18796
-1.75281
-2.45834
-3.32685
-4.37981
-5.63741
-7.11713
-8.83168
-10.7866
-13.1748
-16.0572
-17.3917
-20.847
-21.9017
-22.6934
-22.6575
-21.4377
-19.4798
-16.9434
-14.0305
-10.9173
-7.73686
-4.58182
-1.51614
1.40773
4.15501
6.70567
9.04607
11.1732
13.0877
14.7922
16.2897
17.5847
18.6851
19.6037
20.3524
20.9314
21.3288
21.5384
21.6048
21.414
19.9346
18.1359
15.0744
11.7455
8.57256
5.73661
3.3633
1.20182
-1.38115
-5.44627
-12.0117
-20.2717
-28.0651
-31.2714
-26.7338
-19.402
-13.7985
-7.47753
-2.72252
0.269312
1.66273
2.10317
2.66216
3.08225
3.15222
3.14526
3.45895
0.176737
0.00286351
0.204775
0.262522
0.286857
0.273845
0.202548
0.0815568
-0.108033
-0.371092
-0.725133
-1.1848
-1.77055
-2.50288
-3.40377
-4.49353
-5.79029
-7.30923
-9.06335
-11.0646
-13.4695
-16.3719
-18.2128
-21.2227
-22.9377
-23.6974
-23.7184
-22.4478
-20.3737
-17.6963
-14.6231
-11.3475
-8.01449
-4.72006
-1.53049
1.50079
4.33999
6.96834
9.37322
11.5528
13.5088
15.2452
16.7662
18.0775
19.1882
20.1128
20.8655
21.4469
21.8421
22.0471
22.1659
22.1806
20.1026
18.3875
15.1224
11.7428
8.48509
5.61916
3.26766
1.16145
-1.37511
-5.59153
-12.6557
-21.7984
-30.6297
-34.1515
-28.83
-20.6723
-14.7099
-7.9095
-2.82322
0.359212
1.76757
2.13393
2.73795
3.18706
3.22649
3.16473
3.52219
0.230096
-0.00847463
0.234467
0.284399
0.321378
0.310395
0.242768
0.121749
-0.0702151
-0.33931
-0.703484
-1.17809
-1.784
-2.5417
-3.47248
-4.59522
-5.92614
-7.47922
-9.26939
-11.3154
-13.7447
-16.6755
-18.9789
-21.4038
-24.0345
-24.7371
-24.7927
-23.4743