/*--------------------------------*- C++ -*----------------------------------*\
| =========                 |                                                 |
| \\      /  F ield         | OpenFOAM: The Open Source CFD Toolbox           |
|  \\    /   O peration     | Version:  4.1                                   |
|   \\  /    A nd           | Web:      www.OpenFOAM.org                      |
|    \\/     M anipulation  |                                                 |
\*---------------------------------------------------------------------------*/
FoamFile
{
    version     2.0;
    format      ascii;
    class       surfaceScalarField;
    location    "24";
    object      phi;
}
// * * * * * * * * * * * * * * * * * * * * * * * * * * * * * * * * * * * * * //

dimensions      [0 3 -1 0 0 0 0];

internalField   nonuniform List<scalar> 
13220
(
-808.834
2108.73
-1255.13
1746.5
-1707.32
1752.08
-2036.68
1629.27
-2299.47
1562.99
-2482.22
1482.65
-2591.33
1409.01
-2626.99
1335.85
-2594.14
1267.06
-2492.99
1198.74
-2320.44
1127.65
-2067.02
1046.48
-1681.54
914.417
-1036.44
655.091
263.463
-126.196
2234.93
-304.61
1924.91
-515.734
1963.2
-666.642
1780.17
-807.577
1703.92
-904.746
1579.81
-972.572
1476.84
-1005.15
1368.43
-1003.83
1265.73
-967.272
1162.18
-898.297
1058.67
-799.75
947.934
-655.908
770.573
-402.962
402.141
-139.5
-123.743
2358.67
-304.284
2105.45
-437.649
2096.57
-524.658
1867.18
-602.376
1781.64
-647.636
1625.07
-681.252
1510.45
-688.522
1375.7
-637.307
1214.52
-476.884
1001.75
-207.989
789.777
82.8791
657.05
285.676
567.758
302.023
385.765
162.524
-62.5996
2421.27
-164.894
2207.74
-244.78
2176.45
-322.905
1945.3
-408.066
1866.8
-488.234
1705.24
-580.82
1603.03
-668.647
1463.53
-723.412
1269.28
-671.3
949.642
-465.324
583.797
-150.602
342.333
135.452
281.708
222.557
298.664
385.081
-5.51304
2426.78
-134.208
2336.44
-209.156
2251.4
-286.85
2023
-369.477
1949.43
-448.561
1784.32
-536.32
1690.79
-629.582
1556.79
-746.214
1385.91
-890.487
1093.92
-1020.82
714.134
-1039.47
360.979
-849.137
91.3711
-464.153
-86.3225
-79.0719
154.747
2272.04
58.7983
2432.39
49.5992
2260.6
57.8769
2014.72
79.4263
1927.88
106.266
1757.48
148.607
1648.46
193.13
1512.27
211.454
1367.59
140.586
1164.79
-40.2521
894.974
-254.616
575.363
-366.306
203.082
-330.047
-122.563
-409.118
242.133
2029.9
231.49
2443.03
271.58
2220.52
338.501
1947.8
428.179
1838.2
515.977
1669.69
621.389
1543.05
733.182
1400.48
838.407
1262.37
893.132
1110.06
853.659
934.447
696.612
732.412
417.587
482.11
102.085
192.944
-307.033
192.285
1837.62
224.715
2410.6
264.125
2181.11
319.092
1892.84
391.968
1765.33
458.44
1603.22
527.614
1473.87
593.369
1334.72
652.529
1203.21
689.127
1073.47
685.073
938.502
621.857
795.63
482.158
621.812
269.684
405.424
-37.3488
106.768
1730.85
161.879
2355.49
206.103
2136.89
257.303
1841.64
319.109
1703.53
372.555
1549.77
420.358
1426.07
458.166
1296.92
488.55
1172.83
509.298
1052.72
511.246
936.554
478.14
828.74
384.489
715.469
214.435
575.491
177.086
24.2481
1706.61
112.024
2267.72
186.948
2061.96
256.713
1771.88
330.067
1630.17
405.349
1474.49
480.85
1350.57
557.995
1219.77
630.773
1100.05
691.142
992.352
714.845
912.852
670.821
872.761
531.01
855.277
300.873
805.623
477.959
-81.6837
1788.29
-6.23002
2192.26
87.5768
1968.16
132.253
1727.2
180.05
1582.38
264.813
1389.73
390.902
1224.48
550.334
1060.34
717.815
932.567
854.664
855.503
904.52
862.995
828.317
948.967
618.972
1064.62
330.393
1094.2
808.352
-32.8551
1821.15
-135.865
2295.27
-203.966
2036.26
-276.199
1799.43
-342.449
1648.62
-368.059
1415.34
-330.704
1187.12
-245.522
975.157
-125.607
812.651
13.2785
716.616
143.03
733.243
223.868
868.124
216.971
1071.52
123.023
1188.15
931.375
346.149
1475
331.808
2309.61
96.8185
2271.24
-136.805
2033.05
-331.261
1843.08
-530.444
1614.52
-722.307
1378.99
-896.312
1149.16
-1032.63
948.964
-1090.53
774.52
-1022.26
664.971
-811.09
656.955
-494.463
754.889
-184.219
877.905
747.156
705.269
769.726
1077.7
1937.18
960.942
2388.01
635.232
2358.76
318.956
2159.35
26.3122
1907.16
-245.619
1650.92
-504.572
1408.12
-744.946
1189.34
-955.674
985.248
-1093.45
802.749
-1088.46
651.965
-879.628
546.052
-474.785
473.061
272.37
521.367
1504.92
2289.19
2848.98
3158.14
3236.48
3158.33
2972.72
2656.47
2257.95
1797.37
1298.77
825.783
404.977
5.57578e-06
-625.568
625.568
-625.568
-625.568
-625.568
157.136
-782.704
157.136
157.136
157.136
792.169
-635.032
792.169
792.169
1290.19
-498.021
1290.19
1290.19
1290.19
1664.29
-374.102
1664.29
1664.29
1924.6
-260.313
1924.6
1924.6
1924.6
2082.92
-158.312
2082.92
2082.92
2082.92
2135.82
-52.9027
2135.82
2135.82
2087.06
48.7614
2087.06
2087.06
2087.06
1949.78
137.281
1949.78
1949.78
1751.38
198.399
1751.38
1751.38
1751.38
1534.37
217.006
1534.37
1534.37
1534.37
1414.77
119.601
1414.77
1414.77
1270.37
144.398
1270.37
1270.37
1270.37
1003.91
266.461
1003.91
1003.91
1003.91
624.485
379.426
624.485
624.485
203.014
421.471
203.014
203.014
203.014
-400.828
603.842
-400.828
-400.828
-1620.52
1219.69
-1620.52
-1620.52
-1620.52
-3292.37
1671.86
-3292.37
-3292.37
-3292.37
-5337.25
2044.88
-5337.25
-5337.25
-7658.27
2321.02
-7658.27
-7658.27
-7528.17
-7402.36
-7276.47
-9620.01
2465.86
-9488.72
-9334.45
-9166.11
-8997.83
-8828.91
-8661.2
-8488.3
-8299.28
-10683.3
2566.94
-10485.9
-10289.6
-10094.5
-9879.1
-9662.87
-9446.41
-9229.89
-9012.42
-11370.3
2579.7
-11132.9
-10894.8
-10656.1
-10417.3
-10171.6
-9912.74
-9652.62
-9389.56
-9124.59
-11365.3
2494.49
-11084
-10801.4
-10518.5
-10236.3
-9954.58
-9657.76
-9352.34
-9047.55
-10847.8
2092.16
-10553.2
-10249.4
-9928.2
-9605.76
-9281.01
-8955
-8626.16
-8269.6
-9591.7
1666.39
-9250.77
-8912.58
-8576.88
-8225.15
-7869.78
-7520.48
-7175
-6835.94
-7270.63
776.438
-6930.57
-6594.74
-6259.13
-5924.61
-5592.6
-5278.17
-4967.95
-4663.66
-4370.28
-4028.09
-48.7407
-3797.97
-3604.48
-3419.79
-3246.58
-3083.1
-2963.92
-2924.23
-2881.71
-2194.51
-633.087
-2152.43
-2109.21
-2109.21
-1643.28
-465.925
-1249.57
-393.72
-1249.57
-917.68
-331.886
-917.68
-639.667
-278.013
-423.151
-216.516
-423.151
-229.781
-193.371
-82.1037
-147.677
-82.1037
60.7178
-142.821
60.7179
189.562
-128.844
317.963
-128.401
317.963
442.653
-124.691
442.653
562.35
-119.696
675.631
-113.281
675.631
782.419
-106.789
880.726
-98.3067
880.726
976.771
-96.0446
976.771
1073.83
-97.0608
1161.26
-87.4274
1161.26
1247.93
-86.6707
1247.93
1335.21
-87.2808
1407.01
-71.8002
1407.01
1482.74
-75.7311
1539.39
-56.6503
1539.39
1596.21
-56.8233
1596.21
1655.13
-58.919
1694.38
-39.2464
1694.38
1735.06
-40.6844
1735.06
1779.16
-44.0926
1803.99
-24.8299
1803.99
1840.55
-36.5581
1856.41
-15.8674
1856.41
1876.78
-20.3666
1876.78
1899.05
-22.2683
1898.15
0.8996
1898.15
1898.85
-0.699314
1898.85
1902.75
-3.89897
1887.98
14.768
1887.98
1886.93
1.04508
1868.73
18.1998
1868.73
1860.4
8.33374
1860.4
1856.16
4.23759
1841.87
14.2872
1841.87
1838.1
3.76994
1838.1
1842.04
-3.93918
1845.32
-3.27179
1845.32
1862.37
-17.0585
1878.91
-16.5329
1878.91
1909.49
-30.5822
1909.49
-46.791
-927.191
-1015.58
-924.014
-1121.79
-914.914
-1205.24
-903.562
-1285.76
-888.905
-1370.19
-871.768
-1449.26
-852.67
-1523.22
-833.323
-1584.01
-816.905
-1622.58
-808.443
-1624.71
-813.734
-1575.74
-836.293
-1467.87
-873.823
-1311.26
-917.567
-1137.41
-952.532
-979.42
-953.769
-815.75
-901.078
-524.042
-830.218
-24.6481
-791.369
429.859
-770.243
692.184
-751.781
897.02
-733.848
1111.15
-716.375
1336.47
-699.226
1564.91
-682.194
1790.5
-665.19
2008.9
-648.19
2216.27
-631.083
2410.15
-613.78
2588.03
-596.328
2747.86
-578.809
2888.75
-561.236
3010.44
-543.597
3112.65
-525.923
3195.26
-508.289
3258.92
-490.734
3305.13
-473.161
3335.44
-455.402
3349.86
-437.428
3347.62
-419.346
3329.81
-401.105
3299.18
-382.512
3255.86
-363.481
3197.75
-344.106
3124.75
-324.375
3039.2
-304.162
2940.61
-283.523
2827.63
-262.574
2704.21
-241.141
2573.43
-218.944
2428.72
-196.019
2263.36
-172.536
2084.72
-148.407
1903.64
-123.536
1717.82
-97.7009
1515.34
-71.1416
1269.81
-44.1281
980.377
-17.3822
644.156
7.96168
334.895
30.5521
223.259
46.7091
127.674
56.1525
67.147
62.1565
74.1787
66.6704
143.858
70.5004
260.429
76.1701
390.94
86.9403
499.885
101.862
564.469
116.272
575.76
126.475
536.261
131.185
454.43
133.222
353.313
131.521
253.466
128.133
113.295
60.0129
-246.464
-113.706
-1120.98
-182.925
-1751.12
-81.3029
-1555.4
-1514.14
-932.241
-1020.42
-922.373
-1131.65
-909.801
-1217.81
-894.792
-1300.77
-877.047
-1387.94
-857.189
-1469.12
-836.377
-1544.03
-817.438
-1602.95
-805.327
-1634.69
-806.923
-1623.11
-828.403
-1554.26
-870.167
-1426.11
-923.472
-1257.95
-974.115
-1086.77
-1007.89
-945.645
-1004.21
-819.428
-936.14
-592.115
-830.333
-130.455
-771.909
371.436
-754.939
675.213
-741.873
883.955
-726.125
1095.4
-710.038
1320.38
-694.131
1549.01
-678.185
1774.56
-662.076
1992.79
-645.778
2199.97
-629.225
2393.6
-612.366
2571.17
-595.272
2730.76
-578.032
2871.51
-560.671
2993.08
-543.187
3095.17
-525.626
3177.7
-508.072
3241.36
-490.567
3287.63
-473.013
3317.88
-455.246
3332.09
-437.255
3329.63
-419.151
3311.71
-400.877
3280.91
-382.236
3237.22
-363.151
3178.67
-343.725
3105.33
-323.935
3019.41
-303.649
2920.32
-282.94
2806.92
-261.923
2683.19
-240.394
2551.9
-218.044
2406.37
-194.912
2240.23
-171.17
2060.97
-146.698
1879.16
-121.328
1692.45
-94.7327
1488.75
-67.0377
1242.12
-38.483
951.823
-10.0831
615.757
16.3309
308.481
40.9538
198.637
57.4069
111.221
65.3297
59.2242
69.3358
70.1725
71.8924
141.301
73.9643
258.358
77.731
387.173
86.4496
491.166
99.72
551.199
113.182
562.298
123.035
526.408
127.763
449.702
130.143
350.933
131.334
252.275
139.11
105.518
91.6239
-198.978
-91.0497
-938.304
-188.045
-1654.12
-101.28
-1642.16
-1646
-927.518
-1027.03
-916.046
-1143.13
-902.185
-1231.67
-885.549
-1317.4
-866.362
-1407.12
-845.47
-1490.01
-824.811
-1564.69
-808.325
-1619.44
-802.32
-1640.69
-814.29
-1611.14
-848.68
-1519.88
-901.205
-1373.58
-958.088
-1201.07
-1004.11
-1040.74
-1030.17
-919.595
-1024.53
-825.06
-960.03
-656.617
-839.731
-250.754
-755.67
287.375
-733.004
652.547
-725.686
876.637
-714.622
1084.34
-700.974
1306.74
-686.747
1534.78
-672.317
1760.13
-657.545
1978.02
-642.332
2184.76
-626.633
2377.9
-610.461
2555
-593.922
2714.22
-577.12
2854.71
-560.09
2976.05
-542.852
3077.93
-525.472
3160.32
-508.048
3223.94
-490.624
3270.2
-473.1
3300.36
-455.328
3314.32
-437.318
3311.62
-419.185
3293.57
-400.86
3262.58
-382.149
3218.51
-362.991
3159.51
-343.49
3085.83
-323.612
2999.53
-303.228
2899.94
-282.425
2786.11
-261.308
2662.07
-239.64
2530.23
-217.09
2383.82
-193.697
2216.84
-169.614
2036.89
-144.674
1854.22
-118.608
1666.39
-90.9764
1461.12
-61.7522
1212.89
-31.1066
921.177
-0.187238
584.837
28.5582
279.735
55.9959
171.199
74.3914
92.8253
82.5896
51.026
84.7003
68.0618
83.435
142.567
81.2375
260.555
81.0007
387.41
85.9365
486.23
96.2811
540.854
108.146
550.432
117.608
516.946
122.898
444.413
127.096
346.735
132.548
246.822
144.603
93.4634
118.804
-173.179
-54.0002
-765.5
-178.919
-1529.2
-107.922
-1713.16
-1770.46
-922.876
-1035.94
-908.744
-1157.26
-892.788
-1247.63
-873.951
-1336.24
-853.024
-1428.05
-831.213
-1511.82
-811.487
-1584.42
-799.193
-1631.73
-802.024
-1637.86
-827.324
-1585.84
-876.167
-1471.03
-938.369
-1311.38
-995.937
-1143.5
-1034.68
-1002
-1051.17
-903.113
-1041.93
-834.295
-983.119
-715.43
-857.265
-376.608
-747.154
177.264
-710.538
615.93
-704.528
870.627
-698.93
1078.74
-689.314
1297.12
-677.528
1522.99
-664.96
1747.56
-651.855
1964.92
-638.069
2170.97
-623.526
2363.35
-608.284
2539.76
-592.492
2698.43
-576.278
2838.49
-559.696
2959.47
-542.793
3061.02
-525.659
3143.19
-508.409
3206.69
-491.091
3252.89
-473.609
3282.88
-455.835
3296.55
-437.804
3293.59
-419.631
3275.4
-401.239
3244.19
-382.439
3199.71
-363.188
3140.26
-343.59
3066.23
-323.6
2979.54
-303.097
2879.43
-282.176
2765.19
-260.93
2640.83
-239.087
2508.39
-216.301
2361.03
-192.605
2193.14
-168.117
2012.4
-142.605
1828.71
-115.689
1639.47
-86.7942
1432.22
-55.6881
1181.79
-22.4054
887.894
11.7216
550.71
43.4291
248.028
74.4697
140.158
95.9787
71.3164
106.276
40.7282
108.505
65.8332
104.378
146.694
97.2783
267.655
91.679
393.01
91.0565
486.853
96.4686
535.442
105.306
541.595
114.045
508.207
120.609
437.849
127.794
339.551
137.901
236.714
153.143
78.2218
152.005
-172.041
-0.5393
-612.955
-156.887
-1372.86
-111.996
-1758.05
-1899.51
-914.772
-1046.78
-898.388
-1173.64
-880.511
-1265.51
-859.725
-1357.03
-837.504
-1450.27
-815.688
-1533.64
-798.591
-1601.51
-793.149
-1637.17
-807.985
-1623.03
-848.662
-1545.16
-910.768
-1408.93
-977.862
-1244.29
-1030.2
-1091.16
-1057.43
-974.765
-1062.03
-898.513
-1047.5
-848.824
-996.314
-766.619
-877.458
-495.464
-747.52
47.3264
-691.099
559.509
-680.778
860.306
-678.917
1076.88
-674.251
1292.45
-666.101
1514.84
-656.009
1737.47
-644.902
1953.81
-632.866
2158.94
-619.814
2350.3
-605.791
2525.74
-590.977
2683.62
-575.529
2823.04
-559.535
2943.47
-543.074
3044.56
-526.266
3126.38
-509.246
3189.67
-492.067
3235.71
-474.643
3265.45
-456.875
3278.78
-438.821
3275.53
-420.596
3257.17
-402.121
3225.72
-383.211
3180.8
-363.845
3120.89
-344.125
3046.51
-323.998
2959.42
-303.347
2858.78
-282.281
2744.13
-260.873
2619.42
-238.817
2486.34
-215.752
2337.97
-191.699
2169.09
-166.731
1987.43
-140.536
1802.52
-112.601
1611.54
-82.1734
1401.79
-48.7505
1148.36
-12.1813
851.325
25.927
512.602
61.3175
212.637
96.5331
104.943
121.952
45.8977
135.564
27.1156
139.695
61.7026
135.311
151.078
125.819
277.147
116.398
402.431
110.476
492.775
109.687
536.231
113.484
537.799
119.852
501.838
126.687
431.014
135.463
330.775
148.209
223.968
162.329
64.1015
177.454
-187.166
63.7077
-499.209
-111.437
-1197.71
-115.075
-1754.41
-2017.86
-904.442
-1059.5
-885.665
-1192.42
-865.761
-1285.41
-843.174
-1379.61
-820.193
-1473.25
-799.589
-1554.24
-787.31
-1613.79
-791.828
-1632.65
-821.608
-1593.25
-878.216
-1488.55
-950.159
-1336.98
-1016.15
-1178.29
-1058.25
-1049.06
-1071.97
-961.047
-1064.55
-905.933
-1043.64
-869.734
-998.392
-811.863
-894.096
-599.76
-754.412
-92.3576
-676.427
481.524
-657.163
841.042
-655.872
1075.59
-655.523
1292.1
-651.908
1511.23
-645.2
1730.76
-636.566
1945.18
-626.578
2148.95
-615.322
2339.05
-602.828
2513.24
-589.252
2670.04
-574.777
2808.57
-559.532
2928.23
-543.639
3028.67
-527.253
3109.99
-510.53
3172.95
-493.534
3218.71
-476.196
3248.11
-458.447
3261.03
-440.373
3257.46
-422.092
3238.89
-403.518
3207.14
-384.483
3161.76
-364.982
3101.39
-345.118
3026.65
-324.827
2939.13
-304.005
2837.96
-282.767
2722.89
-261.166
2597.82
-238.862
2464.03
-215.48
2314.58
-191.022
2144.63
-165.509
1961.92
-138.53
1775.54
-109.419
1582.42
-77.209
1369.58
-41.0518
1112.21
-0.60035
810.874
42.1578
469.844
81.9224
172.873
121.547
65.3179
151.253
16.1925
169.029
9.33963
176.414
54.3168
174.239
153.253
165.788
285.597
155.821
412.398
147.073
501.522
141.022
542.282
138.695
540.125
140.206
500.327
144.266
426.954
151.189
323.852
163.255
211.902
174.412
52.9447
193.094
-205.848
126.353
-432.469
-44.5174
-1026.84
-97.9846
-1700.95
-2119.78
-891.379
-1074.12
-870.153
-1213.65
-848.373
-1307.19
-824.416
-1403.57
-801.63
-1496.04
-784.055
-1571.82
-779.472
-1618.38
-797.37
-1614.76
-844.185
-1546.43
-915.048
-1417.69
-991.152
-1260.88
-1049.58
-1119.86
-1077.72
-1020.92
-1077.53
-961.241
-1059.12
-924.346
-1031.64
-897.211
-989.671
-853.831
-900.871
-688.56
-761.49
-231.738
-665.801
385.834
-635.551
810.792
-631.659
1071.7
-633.651
1294.1
-634.528
1512.11
-632.061
1728.29
-626.611
1939.73
-619.068
2141.41
-609.898
2329.88
-599.226
2502.57
-587.17
2657.98
-573.904
2795.3
-559.594
2913.92
-544.415
3013.49
-528.564
3094.14
-512.221
3156.6
-495.465
3201.95
-478.249
3230.9
-460.542
3243.32
-442.459
3239.38
-424.119
3220.55
-405.438
3188.46
-386.262
3142.59
-366.609
3081.74
-346.579
3006.62
-326.102
2918.65
-305.085
2816.95
-283.651
2701.45
-261.828
2576
-239.244
2441.45
-215.508
2290.85
-190.603
2119.73
-164.485
1935.8
-136.632
1747.68
-106.202
1551.99
-71.9715
1335.35
-32.6874
1072.92
12.173
766.013
60.2079
421.809
104.918
128.162
148.972
21.2637
182.958
-17.7936
205.394
-13.096
216.992
42.7191
218.615
151.63
213.304
290.907
204.823
420.879
195.145
511.201
185.481
551.946
177.433
548.173
172.606
505.154
171.103
428.457
173.104
321.852
181.385
203.621
188.763
45.5673
202.972
-220.056
177.808
-407.305
30.9572
-879.99
-74.84
-1595.15
-2190.85
-875.65
-1090.6
-851.988
-1237.31
-828.626
-1330.55
-804.002
-1428.19
-782.827
-1517.21
-770.734
-1583.91
-777.274
-1611.84
-811.699
-1580.33
-875.817
-1482.31
-956.528
-1336.98
-1029.61
-1187.8
-1074.88
-1074.59
-1087.37
-1008.43
-1074.45
-974.166
-1047.03
-951.759
-1013.85
-930.397
-973.061
-894.618
-897.402
-764.219
-765.17
-363.97
-657.126
277.79
-616.507
770.174
-607.972
1063.16
-609.838
1295.96
-614.064
1516.33
-616.144
1730.37
-614.644
1938.22
-610.127
2136.89
-603.396
2323.14
-594.827
2494
-584.573
2647.73
-572.778
2783.51
-559.622
2900.76
-545.328
2999.2
-530.144
3078.96
-514.28
3140.74
-497.833
3185.51
-480.788
3213.85
-463.155
3225.69
-445.08
3221.3
-426.686
3202.16
-407.89
3169.66
-388.563
3123.26
-368.741
3061.91
-348.525
2986.4
-327.84
2897.96
-306.606
2795.71
-284.951
2679.8
-262.878
2553.92
-239.983
2418.55
-215.859
2266.72
-190.466
2094.33
-163.685
1909.02
-134.872
1718.87
-102.982
1520.1
-66.4885
1298.86
-23.6964
1030.13
26.0736
716.243
80.118
367.764
130.327
77.9539
178.396
-26.8062
216.46
-55.8574
243.619
-40.2546
260.004
26.3339
266.13
145.504
264.455
292.582
257.672
427.663
247.179
521.694
234.365
564.761
221.19
561.349
209.97
516.373
201.983
436.445
197.862
325.972
200.695
200.788
204.102
42.16
210.544
-226.498
208.851
-405.613
97.9464
-769.085
-33.3694
-1463.83
-2209.94
-857.242
-1108.88
-831.302
-1263.25
-806.92
-1354.94
-782.73
-1452.38
-765.177
-1534.77
-761.71
-1587.38
-783.038
-1590.51
-836.007
-1527.36
-915.013
-1403.31
-998.692
-1253.3
-1061.47
-1125.02
-1090.01
-1046.06
-1087.26
-1011.18
-1063.84
-997.587
-1029.78
-985.818
-992.328
-967.845
-951.743
-935.203
-886.539
-829.424
-765.222
-485.286
-648.436
161.004
-599.242
720.98
-585.755
1049.68
-585.613
1295.82
-591.306
1522.03
-597.363
1736.43
-600.266
1941.13
-599.447
2136.07
-595.636
2319.33
-589.486
2487.85
-581.304
2639.55
-571.246
2773.45
-559.488
2889
-546.281
2985.99
-531.919
3064.6
-516.651
3125.47
-500.601
3169.46
-483.788
3197.04
-466.273
3208.18
-448.231
3203.26
-429.791
3183.72
-410.88
3150.75
-391.393
3103.77
-371.39
3041.91
-350.968
2965.98
-330.053
2877.05
-308.58
2774.24
-286.682
2657.9
-264.332
2531.57
-241.096
2395.32
-216.552
2242.18
-190.631
2068.41
-163.134
1881.52
-133.275
1689.01
-99.786
1486.62
-60.7829
1259.86
-14.0944
983.44
41.1289
661.02
102.106
306.787
157.92
22.1396
209.222
-78.1081
250.886
-97.5217
282.442
-71.8103
304.004
4.77245
314.935
134.573
316.519
290.998
310.721
433.461
298.778
533.637
282.461
581.078
264.274
579.535
247.071
533.577
232.911
450.605
222.857
336.026
219.851
203.794
219.125
42.8864
217.985
-225.359
223.35
-410.977
146.071
-691.806
11.2768
-1329.04
-2194.42
-836.341
-1128.76
-808.503
-1291.09
-783.974
-1379.46
-761.816
-1474.54
-750.576
-1546.01
-759.426
-1578.53
-798.785
-1551.15
-870.117
-1456.03
-958.513
-1314.91
-1036.9
-1174.92
-1083.56
-1078.35
-1094.37
-1035.25
-1078.49
-1027.06
-1047.33
-1028.75
-1008.98
-1024.17
-968.902
-1007.93
-928.374
-975.732
-871.37
-886.428
-763.288
-593.368
-640.082
37.7975
-582.362
663.26
-564.884
1032.2
-562.188
1293.12
-567.475
1527.31
-576.147
1745.1
-583.278
1948.26
-586.68
2139.47
-586.37
2319.02
-583.04
2484.52
-577.214
2633.72
-569.156
2765.39
-559.051
2878.9
-547.158
2974.1
-533.801
3051.24
-519.267
3110.94
-503.715
3153.91
-487.213
3180.54
-469.87
3190.83
-451.896
3185.29
-433.428
3165.25
-414.406
3131.73
-394.756
3084.12
-374.56
3021.71
-353.916
2945.33
-332.751
2855.88
-311.019
2752.51
-288.853
2635.74
-266.2
2508.92
-242.595
2371.71
-217.6
2217.19
-191.115
2041.93
-162.849
1853.26
-131.864
1658.03
-96.637
1451.39
-54.8668
1218.09
-3.86413
932.438
57.4359
599.72
126.628
237.595
186.912
-38.1445
240.743
-131.939
285.532
-142.31
321.163
-107.442
347.852
-21.9161
363.758
118.667
368.256
286.5
362.569
439.149
348.417
547.789
328.212
601.283
304.99
602.757
282.141
556.425
262.325
470.421
246.885
351.466
238.281
212.398
233.285
47.8824
226.097
-218.17
229.224
-414.105
173.792
-636.374
41.178
-1196.42
-2144.91
-813.304
-1149.92
-784.219
-1320.17
-760.819
-1402.86
-742.901
-1492.46
-741.353
-1547.56
-766.37
-1553.51
-825.573
-1491.95
-911.975
-1369.63
-1001.67
-1225.22
-1066.85
-1109.73
-1094.28
-1050.92
-1088.83
-1040.71
-1062.95
-1052.94
-1026.84
-1064.86
-986.291
-1064.71
-945.041
-1049.18
-904.746
-1016.03
-853.993
-937.181
-759.115
-688.246
-632.075
-89.2423
-564.677
595.862
-544.438
1011.96
-539.93
1288.62
-543.731
1531.11
-553.352
1754.72
-563.845
1958.75
-571.576
2147.2
-575.296
2322.74
-575.279
2484.5
-572.153
2630.6
-566.359
2759.6
-558.162
2870.7
-547.827
2963.76
-535.683
3039.1
-522.045
3097.3
-507.115
3138.98
-491.015
3164.44
-473.914
3173.73
-456.055
3167.43
-437.584
3146.78
-418.463
3112.61
-398.651
3064.31
-378.254
3001.32
-357.374
2924.45
-335.94
2834.45
-313.928
2730.49
-291.473
2613.28
-268.492
2485.94
-244.489
2347.71
-219.015
2191.71
-191.932
2014.84
-162.849
1824.17
-130.658
1625.84
-93.5486
1414.28
-48.7306
1173.27
7.06145
876.646
75.2115
531.57
152.719
160.087
216.69
-102.116
272.32
-187.568
320.074
-190.064
359.723
-147.092
391.084
-53.2764
411.613
98.1369
418.842
279.271
412.86
445.131
395.937
564.712
371.542
625.678
343.302
630.997
315.066
584.661
289.974
495.513
269.578
371.862
255.798
226.178
246.499
57.1816
234.478
-206.149
231.656
-411.283
186.89
-591.608
66.0433
-1075.58
-2060.67
-788.702
-1171.84
-759.369
-1349.5
-738.863
-1423.37
-728.088
-1503.23
-740.132
-1535.51
-784.546
-1509.1
-862.804
-1413.69
-957.599
-1274.83
-1039.37
-1143.44
-1085.65
-1063.46
-1093.82
-1042.74
-1075.29
-1059.24
-1042.81
-1085.41
-1004.23
-1103.44
-963.137
-1105.8
-921.81
-1090.5
-881.855
-1055.98
-835.548
-983.487
-751.682
-772.112
-622.954
-217.97
-545.445
518.352
-523.157
989.67
-518.316
1283.78
-520.733
1533.53
-529.989
1763.98
-542.532
1971.3
-554.128
2158.8
-562.147
2330.76
-565.941
2488.3
-565.935
2630.59
-562.711
2756.37
-556.676
2864.67
-548.144
2955.23
-537.441
3028.39
-524.887
3084.74
-510.725
3124.81
-495.14
3148.85
-478.364
3156.96
-460.677
3149.74
-442.24
3128.34
-423.039
3093.41
-403.072
3044.34
-382.472
2980.72
-361.343
2903.32
-339.624
2812.73
-317.313
2708.18
-294.547
2590.51
-271.213
2462.6
-246.786
2323.28
-220.805
2165.73
-193.09
1987.13
-163.144
1794.23
-129.669
1592.36
-90.5247
1375.13
-42.3655
1125.11
18.7295
815.551
94.9338
455.366
178.73
76.2915
246.12
-169.506
303.563
-245.011
354.219
-240.72
397.922
-190.795
433.654
-89.0087
458.205
73.5858
467.667
269.808
461.291
451.507
441.447
584.556
412.696
654.429
379.456
664.236
346.025
618.093
315.915
525.623
290.831
396.945
272.273
244.737
258.813
70.6413
242.566
-189.902
232.73
-401.447
191.771
-550.648
83.9674
-967.774
-1975.65
-763.329
-1193.81
-735.165
-1377.67
-719.921
-1438.61
-719.882
-1503.27
-749.461
-1505.93
-814.744
-1443.82
-907.75
-1320.68
-1001.69
-1180.9
-1067.32
-1077.81
-1092.31
-1038.47
-1083.85
-1051.21
-1056.22
-1086.88
-1020.25
-1121.38
-981.099
-1142.59
-940.575
-1146.33
-899.78
-1131.3
-860.031
-1095.73
-816.501
-1027.02
-741.753
-846.86
-613.562
-346.161
-524.688
429.477
-500.097
965.079
-496.359
1280.04
-498.448
1535.62
-506.891
1772.42
-520.195
1984.6
-534.669
2173.27
-546.807
2342.9
-554.766
2496.26
-558.338
2634.16
-558.049
2756.08
-554.453
2861.07
-547.967
2948.75
-538.939
3019.36
-527.679
3073.48
-514.455
3111.59
-499.518
3133.92
-483.169
3140.61
-465.725
3132.3
-447.369
3109.99
-428.117
3074.16
-408.011
3024.24
-387.21
2959.92
-365.823
2881.94
-343.805
2790.71
-321.178
2685.56
-298.08
2567.42
-274.366
2438.89
-249.489
2298.41
-222.975
2139.22
-194.599
1958.75
-163.744
1763.37
-128.905
1557.52
-87.5602
1333.79
-35.7329
1073.28
31.3083
748.509
117.779
368.895
205.72
-11.6497
274.742
-238.528
334.246
-304.515
387.772
-294.246
435.417
-238.44
475.412
-129.003
503.654
45.3436
514.697
258.766
507.686
458.517
484.975
607.267
451.876
687.529
413.658
702.454
375.161
656.59
340.201
560.584
310.595
426.551
287.588
267.744
270.25
87.9791
250.018
-169.67
233.039
-384.467
192.928
-510.537
92.0037
-866.85
-1868.88
-738.208
-1214.85
-713.161
-1402.72
-706.226
-1445.55
-720.998
-1488.5
-771.205
-1455.72
-855.807
-1359.21
-955.668
-1220.82
-1038.81
-1097.75
-1083.01
-1033.61
-1087.85
-1033.64
-1066.94
-1072.12
-1034.07
-1119.74
-997.04
-1158.42
-958.58
-1181.05
-919.143
-1185.77
-878.989
-1171.45
-839.049
-1135.67
-796.669
-1069.4
-729.146
-914.382
-603.959
-471.348
-502.656
328.174
-475.115
937.538
-473.136
1278.06
-476.29
1538.77
-484.439
1780.57
-497.709
1997.87
-513.843
2189.41
-529.42
2358.48
-541.574
2508.41
-549.118
2641.71
-552.179
2759.14
-551.344
2860.24
-547.161
2944.56
-540.037
3012.24
-530.29
3063.74
-518.2
3099.5
-504.07
3119.79
-488.268
3124.81
-471.155
3115.18
-452.939
3091.77
-433.676
3054.9
-413.454
3004.02
-392.46
2938.92
-370.813
2860.29
-348.484
2768.38
-325.525
2662.6
-302.074
2543.96
-277.956
2414.77
-252.602
2273.05
-225.53
2112.15
-196.463
1929.68
-164.655
1731.56
-128.369
1521.24
-84.6393
1290.06
-28.7529
1017.4
45.0859
674.671
144.046
269.935
234.392
-101.996
303.066
-307.203
364.272
-365.72
420.634
-350.608
471.975
-289.781
516.004
-173.033
547.854
13.4938
560.158
246.462
552.186
466.49
526.557
632.895
489.181
724.905
446.041
745.594
402.566
700.065
362.85
600.299
328.836
460.565
301.718
294.862
280.853
108.844
256.724
-145.54
232.726
-360.47
192.579
-470.39
104.049
-778.32
-1768.73
-714.607
-1233.65
-695.281
-1422.04
-700.366
-1440.46
-733.942
-1454.92
-805.743
-1383.92
-904.239
-1260.72
-1000.67
-1124.39
-1064.81
-1033.61
-1086.23
-1012.19
-1074.66
-1045.21
-1045.9
-1100.89
-1010.95
-1154.69
-974.442
-1194.92
-937.22
-1218.27
-898.839
-1224.15
-859.007
-1211.28
-818.29
-1176.39
-775.566
-1112.12
-713.366
-976.582
-593.762
-590.952
-479.433
213.845
-448.484
906.589
-447.978
1277.55
-453.428
1544.22
-462.429
1789.57
-475.641
2011.08
-492.436
2206.2
-510.418
2376.46
-526.37
2524.36
-538.073
2653.41
-544.886
2765.96
-547.184
2862.53
-545.586
2942.96
-540.603
3007.26
-532.589
3055.72
-521.841
3088.75
-508.701
3106.65
-493.589
3109.69
-476.911
3098.51
-458.91
3073.77
-439.688
3035.67
-419.383
2983.71
-398.213
2917.75
-376.306
2838.38
-353.661
2745.74
-330.357
2639.29
-306.533
2520.14
-281.986
2390.23
-256.131
2247.2
-228.474
2084.49
-198.688
1899.9
-165.883
1698.76
-128.06
1483.42
-81.7319
1243.73
-21.2957
956.96
60.6463
592.729
169.701
160.88
262.144
-194.438
330.803
-375.862
393.423
-428.341
452.649
-409.833
507.5
-344.632
555.254
-220.788
590.552
-21.8042
604.111
232.903
595.001
475.6
566.298
661.598
524.666
766.536
476.675
793.586
428.282
748.458
383.857
644.723
345.559
498.863
314.722
325.699
290.645
132.92
262.649
-117.544
231.85
-329.672
190.714
-429.253
105.579
-693.186
-1663.85
-694.08
-1248.53
-683.842
-1432.28
-705.058
-1419.25
-760.317
-1399.67
-851.234
-1293.01
-954.534
-1157.42
-1037.16
-1041.76
-1077.77
-993.001
-1078.76
-1011.2
-1055.79
-1068.18
-1023.19
-1133.49
-988.289
-1189.58
-953.039
-1230.17
-916.988
-1254.32
-879.192
-1261.94
-839.077
-1251.4
-796.94
-1218.53
-752.671
-1156.39
-693.993
-1035.26
-583.146
-701.799
-456.994
87.6927
-420.523
870.118
-420.704
1277.74
-429.124
1552.64
-440.166
1800.61
-454.034
2024.95
-471.093
2223.26
-490.436
2395.8
-509.403
2543.33
-525.118
2669.13
-535.966
2776.81
-541.783
2868.35
-543.094
2944.28
-540.503
3004.67
-534.445
3049.67
-525.253
3079.56
-513.302
3094.69
-499.047
3095.44
-482.931
3082.39
-465.236
3056.07
-446.12
3016.56
-425.778
2963.37
-404.455
2896.43
-382.299
2816.23
-359.335
2722.78
-335.677
2615.64
-311.462
2495.93
-286.462
2365.23
-260.079
2220.81
-231.815
2056.23
-201.28
1869.36
-167.432
1664.91
-127.974
1443.96
-78.7897
1194.55
-13.1658
891.336
79.5652
499.998
194.782
45.6632
287.595
-287.251
357.479
-445.747
421.621
-492.482
483.607
-471.819
541.879
-402.904
593.143
-272.051
631.595
-60.2559
646.436
218.061
636.177
485.859
604.279
693.496
558.368
812.447
505.581
846.373
452.307
801.732
403.207
693.823
360.819
541.252
326.656
359.861
299.545
160.032
267.669
-85.6682
230.555
-292.558
188.063
-386.761
112.157
-617.281
-1550.8
-678.509
-1257.28
-681.483
-1429.31
-722.668
-1378.06
-799.965
-1322.37
-903.351
-1189.62
-1000.32
-1060.45
-1061.3
-980.782
-1078.24
-976.064
-1063.57
-1025.87
-1034.1
-1097.65
-1000.56
-1167.02
-966.791
-1223.36
-932.79
-1264.17
-897.375
-1289.74
-859.426
-1299.89
-818.32
-1292.5
-774.204
-1262.64
-727.569
-1203.02
-670.674
-1092.16
-569.958
-802.515
-436.277
-45.988
-391.267
825.107
-391.445
1277.91
-402.884
1564.08
-416.82
1814.55
-432.439
2040.57
-450.086
2240.91
-470.125
2415.84
-491.154
2564.36
-510.354
2688.33
-525.282
2791.73
-534.947
2878.01
-539.52
2948.85
-539.603
3004.75
-535.73
3045.79
-528.31
3072.14
-517.756
3084.14
-504.544
3082.23
-489.138
3066.98
-471.86
3038.8
-452.933
2997.63
-432.61
2943.05
-411.171
2874.99
-388.781
2793.84
-365.503
2699.5
-341.485
2591.62
-316.864
2471.3
-291.39
2339.75
-264.455
2193.88
-235.558
2027.33
-204.248
1838.05
-169.309
1629.97
-128.102
1402.75
-75.7397
1142.19
-4.06025
819.657
105.253
390.684
223.547
-72.6305
312.099
-375.803
383.108
-516.756
448.82
-558.193
513.284
-536.283
574.881
-464.502
629.575
-326.745
670.933
-101.614
687.009
201.985
675.621
497.247
640.491
728.627
590.286
862.652
532.737
903.922
474.607
859.862
420.896
747.535
374.671
587.477
337.466
397.066
307.332
190.166
271.514
-49.85
228.518
-249.563
184.494
-342.737
119.391
-552.177
-1453.67
-670.134
-1257.15
-690.897
-1408.54
-754.426
-1314.53
-850.251
-1226.54
-955.861
-1084.01
-1036.02
-980.29
-1071.86
-944.938
-1068.67
-979.255
-1043.87
-1050.67
-1011.77
-1129.75
-978.949
-1199.84
-946.46
-1255.85
-913.159
-1297.47
-877.581
-1325.32
-838.679
-1338.79
-795.943
-1335.24
-749.48
-1309.11
-700.059
-1252.45
-643.38
-1148.83
-550.782
-895.112
-413.377
-183.394
-360.41
772.14
-360.14
1277.64
-374.521
1578.46
-391.766
1831.79
-410.15
2058.95
-429.246
2260.01
-449.934
2436.53
-472.215
2586.64
-494.1
2710.21
-512.823