/*--------------------------------*- C++ -*----------------------------------*\
| =========                 |                                                 |
| \\      /  F ield         | OpenFOAM: The Open Source CFD Toolbox           |
|  \\    /   O peration     | Version:  4.1                                   |
|   \\  /    A nd           | Web:      www.OpenFOAM.org                      |
|    \\/     M anipulation  |                                                 |
\*---------------------------------------------------------------------------*/
FoamFile
{
    version     2.0;
    format      ascii;
    class       volScalarField;
    location    "15";
    object      p;
}
// * * * * * * * * * * * * * * * * * * * * * * * * * * * * * * * * * * * * * //

dimensions      [0 2 -2 0 0 0 0];

internalField   nonuniform List<scalar> 
6785
(
6185.37
6121.26
6070.18
6020.72
5974.81
5931.72
5891.26
5853.25
5817.52
5783.5
5750.73
5720.58
5692.86
5658.91
5623.78
5655.51
5637.85
5640.67
5636.61
5633.37
5630.07
5627.15
5624.83
5623.35
5622.81
5623.15
5624.64
5628
5631.8
5632.89
5607.38
5601.85
5611.65
5611.41
5615.05
5617.75
5620.64
5623.35
5625.88
5628.21
5630.25
5631.95
5633.51
5635.19
5636.02
5661.99
5659.41
5664.29
5660.5
5660.83
5659.13
5657.79
5656.2
5654.61
5653.1
5651.93
5651.1
5650.3
5649.64
5649.39
5652.01
5649.08
5651.07
5647.2
5647.71
5646.07
5645.44
5644.71
5644.23
5643.92
5643.8
5643.44
5642.57
5641.66
5641.23
5631.03
5628.57
5630.14
5627.4
5628.55
5627.41
5627.41
5627.08
5626.85
5626.6
5626.38
5625.97
5625.16
5624.61
5624.8
5622.6
5621.14
5622.69
5620.55
5621.66
5620.55
5620.46
5619.99
5619.54
5619.06
5618.65
5618.37
5618.18
5618.36
5619.12
5622.99
5622.56
5624.05
5622.55
5623.7
5623.01
5623.21
5623.1
5623.03
5622.98
5622.98
5623.05
5623.3
5623.69
5624.48
5628.07
5628.42
5629.8
5628.92
5630.18
5629.95
5630.53
5630.84
5631.22
5631.61
5632.04
5632.46
5632.96
5633.39
5633.98
5633.81
5634.63
5635.77
5635.25
5636.44
5636.36
5637.01
5637.33
5637.72
5638.1
5638.48
5638.8
5639.14
5639.36
5639.68
5638.11
5638.77
5639.43
5638.8
5639.64
5639.36
5639.91
5640.15
5640.62
5641.13
5641.74
5642.4
5643.13
5643.52
5643.65
5630.13
5631.81
5633.02
5633.67
5635.79
5637.2
5639.75
5642.43
5645.84
5649.51
5653.26
5656.16
5656.57
5653.82
5649.09
5631.95
5625.68
5621.66
5616.81
5613.75
5610.08
5607.49
5604.42
5601.71
5599.06
5597.14
5595.14
5587.06
5564.8
5546.91
5327.63
5319.78
5307.94
5294.02
5278.28
5259.29
5238.54
5215.17
5190.13
5165.29
5144.22
5129.24
5123.78
5122.21
5137.31
5272.28
5176.5
5111.98
5049.42
4993.53
4944.43
4901.63
4866.35
4839.18
4826.12
4832.62
4858.67
4907.8
4968.9
5036.21
10045.8
10047.8
10047.5
10033.6
10034.5
10028.6
10026.5
10004.8
10002.7
10003
9993.44
9944.93
9952.47
9939.15
9879.05
9870.6
9928.72
9884.88
9763.42
9828.64
9796.14
9679.54
9660.93
9832.78
9729.76
9559.42
9542.87
9775.31
9685.02
9426.11
9554.79
9547.54
9356.88
9296.61
9564.52
9511.29
9200.74
9284.79
9320.31
9107.88
8992.5
9208.07
9175.56
8917.25
8780.56
8948.1
8966.19
8670.93
8629.71
8691.84
8504.76
8360.01
8438.37
8437.14
8241.1
8106.08
8158.35
8180.93
7983.38
7907.75
7950.37
7831.56
7729.41
7730.23
7755.84
7626.6
7546.82
7584.01
7510.26
7443.47
7418.24
7432.52
7370.54
7318.53
7283.81
7284.19
7246.11
7187.01
7175.75
7147.78
7132.02
7141.24
7122
7399.06
7018.5
7010
6995.88
6982.28
6969.69
6957.82
6931.83
6892.4
7120.75
6724.17
6687.49
6642.11
6590.58
6538.12
6476.39
6377.59
6251
6250.94
5868.36
5782.31
5701.82
5635.82
5590.37
5546.11
5496.51
5447.48
5383.94
5270.81
5147.38
5107.69
5069.74
5029.98
4996.41
4968.18
4934.63
4882.55
4689.34
4674.29
4643.29
4615.48
4581.69
4548.36
4516.24
4490.3
4453.56
4217.74
4275.41
4238.22
4213.54
4185.04
4154.44
4122.92
4092.83
4060.29
3795.29
3910.91
3865.81
3831.54
3790.33
3754.18
3717.57
3675.56
3633.34
3602.07
3286.9
3483.58
3414.67
3357.06
3293.64
3228.88
3145.49
3055.57
3022.87
2643.63
2896.89
2759.41
2650.38
2712.39
2486.84
2462.76
2328.99
2344.08
2339.31
2087.99
2154.53
2173.26
2009.28
2049.36
2036.45
2106.6
2220.1
2195.4
2280.08
2340.73
2416.13
2518.54
2587.73
2649.47
2713.6
2824.85
2856.18
2884.78
2961.17
2954.24
3093.76
3117.51
3123.4
3223.39
3189.34
3450.95
3400.27
3210.82
3755.91
3511.54
3305.73
3551.26
3332.33
4234.3
3560.33
3114.99
3482.53
3117.93
4599.99
3579.11
2124.14
4729.29
3278.91
2008.53
2671.93
2068.84
5087.9
2693.33
1099.32
1912.59
1258.25
4948.8
2444.91
-707.138
4445.07
1793.57
-413.655
448.378
-217.915
4564.45
998.637
-1199.18
-318.758
-872.225
3807.94
687.494
-2872.5
2722.5
-177.394
-2486.58
-1889.98
-2201.01
2.10576
6.45574
7.6794
9.80062
11.472
13.3934
14.4913
14.5144
12.7522
9.53713
5.62941
1.92859
-1.08346
-3.3822
-5.09616
-6.41992
-7.45252
-8.24742
-8.98663
-9.83505
-10.9835
-12.632
-14.9292
-18.5236
-24.7769
-36.8764
-58.6795
-95.94
-142.922
-119.076
40.9247
-28.6592
-55.4757
-157.394
-191.929
-179.118
-145.925
-110.416
-79.4923
-18.8218
38.5634
72.581
95.3431
100.232
84.5707
61.2755
54.5006
31.5304
43.6814
17.9974
147.206
139.883
113.172
113.769
126.155
108.544
50.6122
-5.06972
-31.8139
-36.1373
-34.7628
-26.3771
-1.57135
19.7341
14.0428
7.58086
6.18931
6.76238
13.623
19.0879
15.6195
9.73601
9.6769
8.14315
6.99352
10.535
27.7314
48.3293
102
3.51346
11.7747
14.4086
18.3252
19.423
19.2042
15.4973
8.6493
-0.666579
-10.0075
-17.5022
-22.3278
-24.9483
-26.3021
-26.8722
-26.9861
-26.6793
-25.9767
-25.4258
-25.6408
-27.5016
-32.2985
-41.8068
-60.0354
-92.9156
-147.279
-216.163
-257.018
-174.839
45.738
183.395
16.2892
-110.108
-279.165
-342.616
-328.886
-270.283
-187.495
-105.526
6.36073
103.616
169.196
213.934
241.873
239.879
196.993
146.525
79.247
104.106
53.3295
287.366
270.193
239.488
259.504
317.65
319.435
205.097
51.8883
-45.8449
-70.6992
-61.1234
-36.1856
-1.5495
29.0135
12.081
7.50245
13.6471
16.9972
29.2564
33.5006
29.0064
28.6731
40.6763
47.9598
55.569
58.2915
88.4628
127.948
139.517
6.75993
21.4864
26.1359
32.6384
34.6055
34.4745
28.9086
18.8197
4.89485
-9.41945
-21.4144
-29.7031
-34.7792
-37.8925
-39.6286
-40.4862
-40.5856
-40.0034
-39.6394
-40.4386
-43.6847
-51.1752
-65.0032
-89.8656
-132.243
-200.929
-293.632
-380.09
-345.609
-78.8357
102.883
89.6714
-146.861
-319.82
-390.718
-376.276
-307.397
-200.896
-93.6429
36.2272
141.961
215.85
266.632
301.948
312.11
277.984
224.278
138.29
159.034
93.2339
304.678
277.831
279.391
312.775
371.098
377.056
271.412
119.637
14.4328
-22.6901
-25.8335
-14.5496
-0.497163
23.4136
15.602
16.1546
25.3079
26.7393
46.9964
58.2263
49.9647
47.9878
67.7508
78.7485
89.0104
96.5756
153.492
236.424
365.991
8.91033
28.793
35.4208
43.89
45.5369
43.702
34.4028
19.1672
-0.710816
-20.3015
-35.9463
-46.081
-51.7456
-54.8802
-56.2706
-56.5692
-55.9498
-54.5209
-53.5633
-54.3819
-58.7032
-68.9862
-87.8706
-120.927
-174.876
-258.469
-367.52
-470.955
-455.028
-187.839
-62.3441
139.756
-205.006
-365.894
-444.6
-425.125
-345.049
-218.666
-92.0152
57.5191
174.824
257.044
313.736
350.97
366.516
344.252
301.462
205.503
218.891
139.534
324.121
281.24
309.463
356.246
410.627
414.219
318.14
175.336
67.0141
15.5327
-5.11508
-7.41997
2.26926
22.411
15.0767
19.6374
34.7663
37.2175
63.4574
77.4848
65.2389
65.4604
95.276
112.825
129.555
143.204
223.28
337.491
447.255
11.139
36.2151
44.578
54.5838
55.4218
51.3277
38.11
18.1384
-6.59615
-30.0141
-48.0883
-59.4244
-65.5256
-68.7955
-70.0069
-69.8784
-68.6497
-66.4627
-65.0008
-65.904
-71.2591
-84.1103
-107.449
-147.302
-209.983
-303.814
-424.436
-544.326
-571.209
-331.973
-96.3884
239.103
-277.108
-437.624
-522.48
-494.658
-400.579
-250.085
-99.899
76.506
212.187
307.835
373.96
415.944
436.5
420.661
382.198
274.543
282.591
186.466
362.192
309.985
351.968
415.303
475.942
481.296
381.872
228.056
103.828
37.1047
4.55791
-4.79668
-0.310875
18.6562
17.0531
25.6112
45.1901
47.8834
79.8581
96.9518
79.4868
82.1109
122.338
146.891
170.318
192.373
297.134
444.228
705.725
12.9928
42.8864
52.7365
63.7138
62.9204
55.5891
37.8031
12.835
-16.4878
-43.0904
-62.8377
-74.6454
-80.4836
-83.2557
-83.7004
-82.6083
-80.3257
-77.0224
-74.8148
-75.6783
-82.019
-97.4838
-125.429
-172.302
-243.9
-347.571
-477.813
-606.388
-661.075
-448.322
-36.5592
336.861
-320.336
-527.291
-609.576
-569.366
-459.465
-281.502
-105.761
98.1204
251.97
361.468
437.228
485.498
512.451
501.899
464.343
344.605
348.458
235.618
397.367
343.002
393.364
474.127
543.798
553.473
450.565
283.205
141.013
58.5643
13.8097
-3.49614
-3.37494
14.6762
17.5498
30.2458
55.2551
59.1016
96.011
114.99
91.0167
97.7041
149.471
182.314
213.892
246.231
374.784
537.772
804.708
14.6722
49.2075
60.119
71.4225
68.2128
56.8535
34.1669
4.45787
-28.538
-57.1313
-77.5171
-89.0721
-94.1491
-96.0932
-95.5076
-93.2117
-89.693
-85.139
-82.1153
-82.9356
-90.2704
-108.356
-140.89
-194.676
-275.066
-388.511
-528.773
-666.603
-744.133
-559.87
-70.2009
297.387
-345.624
-631.724
-701.192
-643.882
-516.559
-309.51
-108.809
121.308
291.707
413.994
498.508
552.665
586.131
582.119
547.053
417.681
417.695
290.101
430.615
375.63
429.273
525.863
604.504
619.478
516.662
338.386
177.859
77.8244
19.2145
-5.73661
-8.00951
10.7911
19.4443
35.9092
65.7782
70.8324
112.125
132.543
100.694
112.7
176.859
218.931
259.491
303.769
456.962
671.735
985.269
16.0867
55.0743
66.5547
77.4684
71.0072
54.8426
26.9967
-7.08349
-42.8188
-72.3801
-92.5979
-103.304
-107.11
-107.796
-105.793
-101.936
-96.9117
-90.9274
-86.9837
-87.7523
-96.1229
-116.903
-154.151
-214.98
-304.466
-428.347
-579.794
-728.52
-825.809
-676.462
-212.113
97.4897
-420.418
-756.557
-801.934
-720.811
-574.03
-336.638
-111.602
144.763
331.436
466.382
559.479
619.256
658.905
662.1
630.942
494.771
490.917
349.937
469.804
414.96
465.951
572.878
661.589
683.58
582.402
392.726
211.214
92.009
19.7667
-11.2404
-14.2911
6.08704
20.8654
41.3801
76.4537
83.1916
128.3
149.69
108.617
127.421
204.803
257.02
307.383
364.854
541.943
781.876
1225.66
17.2457
60.5443
71.9869
81.7406
71.2215
49.5832
16.5265
-21.2353
-58.5287
-87.9594
-107.211
-116.506
-118.582
-117.639
-113.923
-108.242
-101.537
-94.045
-89.1537
-89.9144
-99.4105
-122.977
-165.08
-233.073
-331.956
-467.044
-631.324
-794.428
-913.327
-806.27
-406.796
-156.233
-584.917
-910.592
-916.535
-802.163
-633.035
-363.769
-114.299
168.892
371.853
519.73
621.511
687.063
732.83
743.353
716.359
575.625
567.715
414.733
516.632
463.68
509.027
615.809
716.178
747.706
648.962
447.186
242.118
102.365
16.57
-19.5355
-21.5372
2.04652
23.2165
47.5406
87.5751
96.2511
144.652
166.871
115.394
142.426
233.578
296.649
357.363
429.203
629.264
883.079
1340.61
18.0984
65.5855
76.3054
84.112
68.7791
41.101
2.99396
-37.4975
-75.0915
-103.408
-121.03
-128.448
-128.398
-125.477
-119.784
-112.056
-103.532
-94.5113
-88.692
-89.5154
-100.264
-126.733
-173.859
-249.189
-357.831
-504.951
-683.845
-865.298
-1009.55
-951.539
-618.924
-399.472
-815.178
-1092.14
-1045.98
-888.299
-693.171
-390.365
-116.108
194.313
413.171
574.091
684.453
755.909
807.853
825.889
803.152
659.899
647.891
484.683
570.984
520.94
561.215
651.49
765.673
810.357
715.248
502.21
271.878
109.879
10.1139
-30.5092
-30.0473
-2.56892
25.477
53.93
99.0628
110.07
161.277
184.433
121.643
158.323
263.457
337.898
409.282
496.312
718.847
1017.92
1489.66
18.5963
70.1671
79.4126
84.5123
63.6934
29.5434
-13.1805
-55.1781
-91.7811
-118.109
-133.527
-138.681
-136.191
-131.009
-123.148
-113.24
-102.838
-92.3495
-85.6897
-86.6789
-98.8347
-128.344
-180.649
-263.49
-382.253
-542.256
-737.6
-941.408
-1115.33
-1113.21
-843.688
-642.602
-1043.87
-1293.34
-1188.86
-979.419
-753.939
-416.075
-116.77
221.152
455.309
629.303
748.006
825.381
883.513
909.359
891.164
747.417
731.372
559.944
633.784
586.595
623.736
680.905
808.05
870.098
780.242
557.772
301.19
115.229
1.03439
-43.7727
-39.3882
-6.6476
28.388
60.9252
111.041
124.69
178.257
202.772
128.139
175.811
294.687
380.755
462.839
565.411
809.34
1138.07
1686.61
18.6673
74.2242
81.2179
82.9237
56.0465
15.1487
-31.455
-73.5369
-107.938
-131.572
-144.325
-146.922
-141.783
-134.131
-123.984
-111.844
-99.5675
-87.7255
-80.3645
-81.643
-95.3734
-128.063
-185.689
-276.209
-405.441
-579.171
-792.687
-1022.2
-1229.64
-1288.79
-1084.71
-900.987
-1230.46
-1506.13
-1341.8
-1076.63
-814.992
-440.809
-116.309
249.463
498.244
685.387
812.16
895.467
959.769
993.701
980.373
837.987
817.869
640.59
705.751
660.994
696.338
717.287
844.685
925.753
843.351
613.805
330.855
119.565
-9.76946
-58.724
-49.5876
-10.9964
31.3738
68.32
123.469
140.104
195.652
222.24
135.688
195.608
327.479
425.149
517.647
635.763
900.069
1259.36
1793.72
18.2267
77.672
81.6568
79.3849
45.9797
-1.83203
-51.1616
-91.8046
-122.954
-143.363
-153.093
-152.935
-145.045
-134.802
-122.325
-107.981
-93.8919
-80.8464
-72.9561
-74.664
-90.1342
-126.131
-189.179
-287.53
-427.561
-615.781
-848.986
-1106.86
-1351.23
-1475.51
-1345.85
-1183.71
-1431.52
-1741.5
-1501.97
-1181.31
-876.074
-464.403
-114.635
279.455
542.039
742.431
876.965
966.248
1036.7
1078.93
1070.71
931.368
907.042
726.809
786.78
743.97
778.058
773.435
879.417
976.733
904.13
670.099
361.649
124.173
-21.3666
-74.6167
-60.2042
-14.9884
34.7941
76.2633
136.369
156.26
213.489
243.144
145.079
218.438
362.004
470.929
573.205
706.479
989.588
1377.91
1978.99
17.1783
80.4091
80.6986
73.9629
33.5449
-21.3872
-71.6553
-109.263
-136.335
-153.166
-159.622
-156.606
-145.967
-133.094
-118.306
-101.846
-86.0523
-71.9662
-63.7246
-66.0074
-83.3607
-122.768
-191.294
-297.581
-448.69
-652.052
-906.228
-1194.59
-1479.13
-1671.99
-1628.36
-1500.01
-1711.08
-2005.37
-1672.14
-1294.61
-937.161
-486.602
-111.478
311.288
586.807
800.491
942.408
1037.71
1114.29
1164.97
1162.02
1027.19
998.552
818.9
876.183
834.843
868.172
849.495
916.593
1023.89
962.457
726.363
394.171
130.147
-32.7934
-90.7071
-70.9172
-18.9068
38.4176
84.658
149.668
173.041
231.757
265.728
157.008
245.003
398.39
517.875
628.935
776.783
1076.72
1474.14
2092.59
15.4268
82.3373
78.3656
66.7918
18.3948
-43.276
-92.3417
-125.32
-147.723
-160.78
-163.81
-157.914
-144.613
-129.144
-112.118
-93.674
-76.3166
-61.3555
-52.9309
-55.9279
-75.268
-118.154
-192.167
-306.438
-468.819
-687.855
-964.07
-1284.69
-1612.68
-1877.42
-1929.17
-1853.34
-2044.44
-2282.64
-1854.72
-1416.4
-998.368
-507.12
-106.489
344.979
632.731
859.594
1008.45
1109.81
1192.5
1251.76
1254.24
1124.99
1091.98
916.832
972.741
932.579
965.786
941.191
962.098
1069.84
1018.69
782.618
429.071
138.446
-42.9663
-106.238
-81.1401
-22.2684
42.5046
93.5515
163.269
190.268
250.412
290.178
172.017
275.965
436.714
565.693
684.183
845.66
1160.95
1602.62
2205.98
12.8979
83.3916
74.7576
57.9733
0.0498543
-66.466
-112.355
-139.569
-156.868
-166.123
-165.659
-156.931
-141.118
-123.14
-103.99
-83.7214
-64.9686
-49.2956
-40.8412
-44.6704
-66.0584
-112.434
-191.901
-314.141
-487.894
-723.014
-1022.14
-1376.52
-1751.26
-2090.47
-2243.67
-2239.84
-2403.13
-2569.16
-2046.13
-1545.65
-1059.66
-525.622
-99.3151
380.543
679.961
919.754
1075.04
1182.51
1271.28
1339.19
1347.25
1224.36
1186.9
1019.99
1074.71
1035.93
1069.35
1045.44
1024.14
1119.28
1074.45
839.659
467.306
150.159
-50.6369
-120.346
-90.3368
-24.8805
47.1071
102.889
176.991
207.692
269.398
316.655
190.456
311.925
476.999
614.031
738.249
911.952
1240.8
1703.98
2361.4
9.56698
83.5839
70.1123
47.0784
-21.1255
-89.4191
-130.672
-151.604
-163.686
-169.208
-165.265
-153.802
-135.664
-115.304
-94.1715
-72.2542
-52.2928
-36.0668
-27.7192
-32.4657
-55.9162
-105.75
-190.577
-320.705
-505.838
-757.332
-1080.04
-1469.47
-1894.14
-2309.31
-2568.9
-2651.64
-2789.22
-2869.36
-2241.44
-1682.66
-1120.78
-541.702
-89.6219
418.075
728.592
981.003
1142.15
1255.79
1350.59
1427.12
1440.92
1324.9
1282.91
1127.2
1179.95
1143.58
1177.07
1158.84
1110.09
1178.01
1133.11
899.228
510.33
166.803
-54.3889
-131.909
-97.8454
-26.3366
52.4115
112.635
190.602
225.011
288.676
345.325
212.479
353.401
519.208
662.492
790.421
974.932
1315.03
1786.18
2465.9
5.48989
83.0412
64.8141
33.4085
-43.916
-110.808
-146.74
-161.085
-168.199
-170.129
-162.795
-148.728
-128.467
-105.879
-82.9233
-59.5434
-38.5678
-21.9397
-13.815
-19.5268
-45.0049
-98.2268
-188.264
-326.128
-522.561
-790.606
-1137.37
-1562.93
-2040.44
-2532.63
-2903.81
-3082.27
-3212.43
-3186.48
-2441.41
-1828.39
-1181.41
-554.943
-77.0836
457.685
778.709
1043.37
1209.72
1329.61
1430.38
1515.49
1535.09
1426.18
1379.62
1236.97
1286.1
1254.12
1287.57
1278.53
1220.24
1250.4
1197.97
963.207
559.867
190.35
-52.5422
-139.448
-102.799
-26.2336
58.5405
122.703
203.805
241.889
308.221
376.4
238.072
400.792
563.241
710.661
840.01
1033.7
1382.89
1886.53
2552.62
0.807625
81.8784
58.6343
17.0092
-66.8708
-129.781
-160.385
-167.947
-170.524
-169.043
-158.458
-141.936
-119.744
-95.1168
-70.5117
-45.8633
-24.0627
-7.1663
0.647117
-6.03868
-33.4697
-89.9502
-185.006
-330.39
-537.955
-822.594
-1193.7
-1656.26
-2189.05
-2760.18
-3247.95
-3530.62
-3676.7
-3522.88
-2653.75
-1984.35
-1241.32
-564.995
-61.3667
499.45
830.393
1106.85
1277.68
1403.91
1510.64
1604.26
1629.57
1527.75
1476.59
1348.05
1390.94
1365.82
1400.1
1402.8
1345.93
1339.09
1271.17
1032.71
616.904
222.75
-43.1302
-141.122
-104.067
-23.966
65.6871
132.997
216.27
257.992
328.025
410.142
267.118
454.352
608.922
758.122
886.381
1087.36
1443.54
1966.44
2658.84
-4.22493
80.2802
50.4649
-1.30793
-88.7477
-145.934
-171.423
-172.274
-170.833
-166.135
-152.481
-133.644
-109.708
-83.2658
-57.2022
-31.4876
-9.03681
8.02269
15.4775
7.85333
-21.4183
-80.9675
-180.817
-333.439
-551.891
-852.999
-1248.61
-1748.76
-2338.81
-2992.01
-3599.98
-4000.28
-4181.51
-3877.48
-2883.13
-2152.25
-1300.48
-571.634
-42.1348
543.43
883.714
1171.35
1346.07
1478.63
1591.38
1693.31
1724.23
1629.23
1573.39
1459.25
1492.9
1476.79
1514.29
1529.88
1478.44
1446.75
1355.55
1108.86
681.443
265.208
-24.1285
-134.909
-100.324
-18.7847
74.0568
143.411
227.71
273.049
348.101
446.833
299.469
514.153
655.974
804.482
928.981
1135.28
1496.29
2035.42
2726.35
-9.27445
78.4163
39.426
-20.5045
-108.72
-159.35
-179.817
-174.276
-169.352
-161.607
-145.104
-124.077
-98.5678
-70.5752
-43.2629
-16.687
6.26854
23.4223
30.5304
22.0503
-8.90224
-71.2796
-175.654
-335.185
-564.205
-881.515
-1301.66
-1839.68
-2488.47
-3227.36
-3958.12
-4496.37
-4724.47
-4243.9
-3122.86
-2331.95
-1358.67
-574.7
-19.0612
589.682
938.727
1236.73
1415
1553.73
1672.48
1782.55
1818.97
1730.27
1669.51
1568.85
1591.12
1585
1629.78
1658.08
1614.65
1572.63
1455.07
1194.89
754.372
318.6
6.55049
-118.924
-90.1665
-9.92349
83.8227
153.91
238.001
286.976
368.543
486.714
335.003
580.051
704.017
849.384
967.373
1176.88
1540.54
2097.12
2776.7
-14.0249
76.1239
25.8644
-39.5601
-126.34
-170.406
-185.569
-174.219
-166.305
-155.642
-136.534
-113.467
-86.5216
-57.2875
-28.9569
-1.7163
21.6433
38.8679
45.705
36.5007
4.08389
-60.8363
-169.415
-335.495
-574.71
-907.848
-1352.35
-1928.18
-2636.7
-3464.43
-4321.82
-5022.97
-5302.68
-4614.9
-3364.2
-2521.5
-1414.46
-573.981
8.18093
638.263
995.467
1302.89
1484.43
1629.11
1753.81
1871.86
1913.67
1830.55
1764.36
1675.06
1685.5
1688.92
1745.87
1786.33
1753.15
1708.93
1570.93
1295.65
838.963
384.809
51.212
-91.4247
-72.3092
3.35274
95.2038
164.605
247.328
299.998
389.616
529.925
373.636
651.643
752.563
892.532
1001.26
1211.93
1576.17
2132.56
2830.7
-18.197
72.6313
10.8996
-57.5703
-141.367
-179.559
-188.776
-172.371
-161.894
-148.407
-126.952
-102.035
-73.8031
-43.639
-14.5287
13.209
36.9187
54.2476
60.9418
51.1975
17.5937
-49.5457
-161.954
-334.187
-583.185
-931.691
-1400.11
-2013.47
-2781.95
-3701.02
-4691.52
-5581.75
-5911.68
-4987.37
-3605.19
-2718.02
-1465.48
-569.164
39.939
689.231
1053.94
1369.78
1554.29
1704.69
1835.47
1961.24
2008.25
1929.74
1857.42
1776.49
1776.45
1788.1
1861.56
1913.9
1892.14
1847.06
1698.66
1412.48
938.557
465.867
111.357
-50.9376
-45.934
21.5227
108.508
175.807
256.225
312.73
411.782
576.463
415.29
728.215
801.026
933.705
1030.5
1240.33
1602.82
2175.16
2845.04
-21.4866
67.101
-4.33032
-73.9117
-153.6
-186.897
-189.635
-169.046
-156.317
-140.096
-116.554
-90.0074
-60.6964
-29.8681
-0.185676
27.9355
51.9787
69.498
76.2321
66.1831
31.7146
-37.2844
-153.095
-331.045
-589.368
-952.705
-1444.42
-2094.63
-2922.44
-3934.77
-5066.75
-6172.04
-6543.39
-5359.44
-3847.27
-2918.08
-1509.14
-559.879
76.5694
742.638
1114.11
1437.31
1624.55
1780.49
1917.71
2050.84
2102.64
2027.63
1948.24
1872.09
1864.71
1883.06
1975.66
2040.52
2030.65
1983.89
1831.56
1540.99
1052.44
561.6
186.106
2.24224
-11.1199
44.5403
123.982
187.978
265.446
326.049
435.589
626.185
459.821
808.701
848.738
972.776
1055.13
1261.98
1621.08
2197.48
2854.71
-23.6908
59.4879
-19.0006
-88.2972
-163.061
-192.425
-188.339
-164.492
-149.739
-130.904
-105.535
-77.6267
-47.4794
-16.1965
13.9104
42.3713
66.7778
84.6166
91.6234
81.5482
46.5581
-23.9104
-142.663
-325.841
-592.967
-970.502
-1484.71
-2170.7
-3056.34
-4162.78
-5445.27
-6790.75
-7184.81
-5726.37
-4091.32
-3118.52
-1544.3
-545.868
118.407
798.52
1175.92
1505.37
1695.14
1856.5
2000.64
2140.7
2196.76
2124.03
2036.51
1961.37
1949.9
1974.86
2087.45
2166.22
2168.42
2119.98
1964.8
1674.32
1175.84
668.974
272.486
65.6373
31.0195
72.0089
141.875
201.619
275.707
340.792
461.509
678.865
506.948
891.612
894.988
1009.71
1075.34
1277.23
1631.07
2203.28
2863.92
-24.8196
50.437
-32.5836
-100.612
-169.805
-195.97
-185.143
-158.963
-142.312
-121.019
-94.074
-65.1133
-34.3897
-2.8156
27.6385
56.4708
81.3461
99.6818
107.209
97.4176
62.2571
-9.27674
-130.495
-318.359
-593.68
-984.656
-1520.38
-2240.69
-3181.93
-4381.47
-5822.81
-7429.22
-7815.86
-6081.37
-4338.82
-3317.39
-1571.04
-526.495
165.7
856.882
1239.27
1573.86
1765.99
1932.59
2084.15
2230.71
2290.55
2218.93
2122.11
2044.48
2029.87
2064.89
2197.2
2290.72
2304.44
2255.53
2096.49
1807.11
1303.34
783.756
367.127
136.283
78.8068
103.289
162.269
217.153
287.554
357.539
489.826
734.249
556.217
974.938
939.074
1044.5
1091.44
1286.42
1633.17
2208.01
2840.3
-25.044
40.7532
-44.7181
-110.861
-174.108
-197.358
-180.265
-152.593
-134.127
-110.596
-82.3755
-52.6783
-21.6351
10.1246
40.9401
70.2511
95.7707
114.829
123.126
113.938
78.9591
6.76444
-116.442
-308.413
-591.226
-994.733
-1550.76
-2303.64
-3297.9
-4587.8
-6192.9
-8068.09
-8406.48
-6414.26
-4591.02
-3512.08
-1589.64
-500.888
218.625
917.695
1304.03
1642.66
1836.98
2008.75
2168.03
2320.81
2383.94
2312.54
2204.9
2122.13
2104.61
2154.4
2305.57
2413.44
2437.52
2389.87
2227.89
1936.84
1431.28
902.305
467.264
212.089
130.899
137.871
185.14
234.882
301.352
376.596
520.672
792.004
607
1056.01
980.356
1077.2
1103.75
1289.83
1628.14
2199.44
2812.17
-24.6847
31.0535
-55.1939
-119.104
-176.41
-196.551
-174.04
-145.468
-125.277
-99.7918
-70.6582
-40.5528
-9.38906
22.5562
53.8456
83.8001
110.174
130.218
139.548
131.27
96.8169
24.3577
-100.366
-295.846
-585.364
-1000.34
-1575.22
-2358.6
-3403.04
-4779.6
-6547.68
-8674.76
-8916.18
-6715.87
-4846.38
-3696.2
-1600.7
-468.084
277.289
980.888
1370.01
1711.64
1908
2085.04
2252.04
2411
2476.86
2405.2
2284.46
2195.51
2176.18
2243.99
2412.81
2533.67
2568.13
2522.62
2360.43
2062.88
1558.15
1022.17
570.909
291.898
186.656
175.659
210.678
255.076
317.358
398.099
554.104
851.602
658.369
1131.36
1018.28
1107.73
1112.49
1287.69
1616.17
2181.22
2787.72
-24.0468
21.6719
-64.0005
-125.408
-177.149
-193.4
-166.642
-137.64
-115.884
-88.8102
-59.1481
-28.9506
2.25858
34.5159
66.4602
97.2616
124.715
146.014
156.652
149.573
115.975
43.6355
-82.1446
-280.531
-575.902
-1001.16
-1593.23
-2404.69
-3496.07
-4955.21
-6879.79
-9208.23
-9286.34
-6980.38
-5100.44
-3859.66
-1605.27
-427.624
341.707
1046.4
1437.03
1780.66
1978.93
2161.45
2336.06
2501.25
2569.31
2497.3
2360.01
2266.1
2245.31
2333.58
2519.28
2651.38
2696.78
2653.55
2493.28
2185.42
1683.73
1142.15
676.835
374.987
245.851
216.715
239.164
277.99
335.827
422.101
590.125
912.264
709.008
1196.79
1052.42
1135.87
1117.65
1279.94
1597.36
2156.96
2730.78
-23.2452
12.8579
-71.2201
-129.836
-176.838
-188.301
-158.277
-129.212
-106.075
-77.8798
-48.0895
-18.0095
13.3311
46.1151
78.9378
110.82
139.582
162.375
174.594
168.988
136.557
64.7108
-61.6662
-262.347
-562.679
-996.905
-1604.33
-2441.19
-3575.84
-5112.75
-7183.39
-9638.06
-9501.77
-7211.68
-5341.61
-3995.54
-1605
-379.504
411.652
1114.25
1504.89
1849.56
2049.66
2238.02
2420
2591.48
2661.24
2588.96
2430.66
2335.25
2312.76
2423.43
2625.78
2767.53
2822.48
2782.63
2624.64
2305.04
1808.07
1262
784.386
460.913
308.499
261.172
270.84
303.803
356.976
448.571
628.633
972.956
757.573
1247.54
1082.39
1161.07
1118.97
1266.27
1571.65
2120.89
2695.86
-22.3263
4.81893
-76.8921
-132.286
-175.368
-181.73
-149.249
-120.34
-96.0273
-67.2359
-37.6846
-7.75306
23.9409
57.5103
91.4669
124.679
154.975
179.467
193.507
189.629
158.659
87.6708
-38.8394
-241.189
-545.564
-987.387
-1608.2
-2467.63
-3641.53
-5249.79
-7450.66
-9953.47
-9620.26
-7430.78
-5553.1
-4103.1
-1599.7
-323.606
486.589
1184.63
1573.37
1918.19
2120.05
2314.64
2503.84
2681.52
2752.63
2679.89
2495.86
2402.92
2380.21
2514.22
2732.77
2882.77
2944.34
2909.7
2752.5
2422.55
1931.11
1381.82
893.243
549.579
374.658
309.158
305.844
332.618
381.001
477.439
669.394
1032.06
802.943
1278.55
1107.81
1182.61
1116.14
1246.25
1538.18
2079.26
2640.81
-21.3685
-2.36104
-81.0303
-132.722
-172.377
-173.764
-139.768
-111.17
-85.9967
-57.1309
-28.0351
1.91262
34.252
68.8904
104.25
139.038
171.071
197.441
213.488
211.578
182.352
112.574
-13.6023
-216.986
-524.463
-972.474
-1604.68
-2483.81
-3692.62
-5364.14
-7671.91
-10159.9
-9694.73
-7638.7
-5720.52
-4183.07
-1587.34
-259.879
565.86
1257.8
1642.3
1986.36
2190
2391.12
2587.7
2771.06
2843.39
2769.35
2555.84
2468.02
2449.41
2606.43
2840.08
2996.8
3062.27
3034.48
2875.77
2538.8
2052.85
1501.67
1003.22
641.036
444.332
360.813
344.265
364.473
408.039
508.571
712.294
1086.9
843.619
1284.68
1128.14
1199.77
1108.82
1219.35
1496.52
2026.67
2579.85
-20.4006
-8.68813
-83.7025
-131.356
-168.005
-164.497
-129.975
-101.837
-76.2335
-47.7526
-19.109
11.1589
44.4566
80.4551
117.476
154.067
188.013
216.405
234.589
234.877
207.67
139.446
14.0661
-189.72
-499.355
-952.155
-1593.79
-2489.83
-3728.92
-5453.83
-7839.85
-10266.3
-9725.93
-7804.5
-5837.98
-4234.41
-1565.3
-188.454
648.87
1333.75
1711.58
2053.9
2259.39
2467.43
2671.41
2859.77
2933.47
2856.2
2612.05
2530.17
2521.98
2700.75
2947.67
3109.25
3176.77
3156.57
2995.17
2654.47
2173.42
1621.53
1114.19
735.264
517.534
416.276
386.171
399.443
438.302
541.883
757.613
1133.96
877.07
1261.1
1142.72
1211.95
1096.76
1185.21
1445.92
1963.34
2525.89
-19.3968
-14.1767
-85.0108
-128.39
-162.394
-154.162
-120.007
-92.5367
-66.9829
-39.1747
-10.7572
20.1885
54.7541
92.3856
131.297
169.882
205.879
236.401
256.818
259.519
234.602
168.276
44.1433
-159.433
-470.319
-926.584
-1575.83
-2486.05
-3750.45
-5517.2
-7949.49
-10278.3
-9702.25
-7904.76
-5907.75
-4254.82
-1531.77
-110.028
735.103
1412.21
1781.19
2120.64
2328.13
2543.49
2754.77
2947.32
3022.76
2938.79
2667.07
2590.5
2598.95
2797.77
3055.52
3220.3
3288.82
3275.17
3112.42
2769.96
2292.98
1741.32
1226.04
832.139
594.251
475.496
431.554
437.601
472.096
577.455
805.849
1169.96
900.53
1204.07
1150.84
1218.77
1079.96
1143.91
1386.14
1889.03
2458.5
-18.3393
-18.8283
-85.0601
-124.014
-155.603
-143.249
-110.068
-83.5152
-58.441
-31.3409
-2.76969
29.2056
65.3263
104.827
145.813
186.533
224.679
257.41
280.15
285.459
263.099
199.016
76.5621
-126.237
-437.545
-896.094
-1551.34
-2473.12
-3757.42
-5553.07
-7998.69
-10202.7
-9620.21
-7937.72
-5935.19
-4242.46
-1486.32
-26.1811
824.047
1492.61
1851.28
2186.46
2396.13
2619.16
2837.84
3033.37
3110.96
3014.58
2724.07
2651.86
2681.61
2898.19
3163.5
3331.29
3399.94
3388.69
3228.31
2885.21
2411.68
1860.95
1338.69
931.436
674.373
538.325
480.479
479.114
509.69
615.394
857.452
1193.25
912.331
1111.64
1151.76
1220.26
1058.99
1096.31
1317.98
1802.34
2385.98
-17.2303
-22.6735
-83.9884
-118.525
-147.804
-132.061
-100.396
-75.0036
-50.6951
-24.0759
5.07362
38.3972
76.3209
117.881
161.073
204.013
244.365
279.362
304.528
312.625
293.094
231.591
111.21
-90.3213
-401.338
-861.191
-1521.05
-2451.79
-3750.14
-5560.96
-7988.56
-10048.8
-9480.72
-7910.19
-5923.71
-4196.68
-1429.17
61.0772
915.124
1574.11
1922.04
2251.36
2463.32
2694.34
2920.29
3117.55
3197.3
3079.77
2785.37
2718.05
2771.3
3002.71
3272.42
3444.56
3511.24
3495.25
3341.68
2999.74
2529.64
1980.34
1452.06
1032.86
757.688
604.724
533.068
524.24
551.3
655.807
912.595
1204.71
912.95
984.064
1144.61
1217.14
1035.2
1044.45
1243.51
1704.11
2300.44
-16.0594
-25.7639
-81.9831
-112.298
-139.01
-120.844
-91.241
-67.1721
-43.7007
-17.1469
12.9715
47.92
87.8467
131.608
177.086
222.286
264.862
302.171
329.864
340.934
324.505
265.9
147.931
-51.948
-362.117
-822.537
-1485.82
-2422.82
-3728.95
-5541.1
-7923.08
-9828.21
-9287.07
-7827.67
-5873.82
-4117.68
-1360.19
150.171
1007.6
1655.72
1993.72
2315.63
2529.68
2769
3001.9
3199.47
3280.58
3129.66
2851.32
2792.16
2868.53
3110.68
3384.18
3560.09
3620.69
3595.36
3451.41
3113.05
2646.93
2099.38
1566
1136.05
843.919
674.681
589.463
573.204
597.026
698.772
970.927
1207.26
904.976
824.048
1128.51
1210.99
1010.94
991.745
1166.51
1598.28
2215.18
-14.8172
-28.1492
-79.248
-105.772
-129.42
-109.955
-82.7519
-60.0982
-37.2813
-10.3216
21.0922
57.8944
99.9768
146.034
193.838
241.301
286.092
325.746
356.065
370.298
357.246
301.822
186.518
-11.4577
-320.408
-780.916
-1446.55
-2386.89
-3694.21
-5494.32
-7808.03
-9554.1
-9045.46
-7694.21
-5785.23
-4006.67
-1278.81
241.139
1100.42
1736.08
2066.21
2379.88
2595.3
2843.1
3082.76
3278.66
3358.92
3160.11
2921.51
2875.4
2972.75
3222.06
3499.35
3673.62
3725.54
3695.1
3557.84
3225.04
2763.53
2217.95
1680.31
1240.66
932.752
748.09
649.787
626.181
646.853
744.368
1031.54
1204.17
892.105
636.652
1102.59
1204.36
989.595
943.103
1092.87
1489.5
2115.86
-13.5157
-29.8873
-75.991
-99.3789
-119.463
-99.6815
-75.0461
-53.7555
-31.1934
-3.40347
29.5686
68.4043
112.754
161.161
211.303
261.004
307.983
350.003
383.039
400.626
391.22
339.215
226.714
30.7303
-276.841
-737.199
-1404.08
-2344.54
-3646.29
-5421.91
-7649.89
-9239.73
-8765.42
-7514.43
-5659.39
-3866.36
-1184.58
335.862
1192.81
1813.97
2138.34
2445.03
2660.51
2916.51
3162.78
3354.74
3429.55
3170.69
2997.47
2967.47
3083.25
3338.89
3615.14
3781.57
3826.97
3800.12
3661.52
3335.78
2879.38
2335.93
1794.72
1346.29
1023.83
824.742
714.005
683.224
700.659
792.726
1092.86
1198.51
877.777
428.605