/*--------------------------------*- C++ -*----------------------------------*\
| =========                 |                                                 |
| \\      /  F ield         | OpenFOAM: The Open Source CFD Toolbox           |
|  \\    /   O peration     | Version:  4.1                                   |
|   \\  /    A nd           | Web:      www.OpenFOAM.org                      |
|    \\/     M anipulation  |                                                 |
\*---------------------------------------------------------------------------*/
FoamFile
{
    version     2.0;
    format      ascii;
    class       surfaceScalarField;
    location    "15";
    object      phi;
}
// * * * * * * * * * * * * * * * * * * * * * * * * * * * * * * * * * * * * * //

dimensions      [0 3 -1 0 0 0 0];

internalField   nonuniform List<scalar> 
13220
(
-893.577
2193.46
-1391.73
1798.33
-1854.01
1762.17
-2207.46
1653.33
-2477.25
1569.98
-2666.92
1489.56
-2777.9
1410.86
-2809.71
1332
-2760.52
1250.71
-2626.6
1165.97
-2408.23
1081.82
-2101.75
993.404
-1671.28
869.412
-1051.39
680.28
248.513
39.3977
2154.02
22.5293
1815.16
-68.1708
1852.83
-124.355
1709.47
-181.488
1627.07
-219.87
1527.89
-238.761
1429.71
-235.024
1328.22
-212.063
1227.71
-180.898
1134.76
-156.359
1057.25
-154.871
991.868
-181.485
895.975
-154.858
653.545
93.6452
-103.953
2257.95
-273.518
1984.69
-440.844
2020.13
-545.496
1814.09
-640.131
1721.67
-700.494
1588.22
-737.191
1466.37
-749.708
1340.7
-729.385
1207.35
-654.241
1059.56
-515.278
918.222
-354.715
831.183
-234.227
775.289
-158.789
577.541
-65.1444
-50.6577
2308.58
-140.102
2074.11
-215.057
2095.05
-260.289
1859.29
-308.27
1769.62
-335.279
1615.19
-355.912
1486.97
-364.254
1349
-340.205
1183.25
-218.756
938.073
47.2845
652.113
358.371
520.105
562.484
571.173
530.503
609.51
465.356
-12.2835
2320.85
-101.249
2163.06
-161.83
2155.62
-217.722
1915.16
-289.751
1841.63
-355.291
1680.72
-433.658
1565.32
-518.275
1433.61
-603.497
1268.46
-649.611
984.169
-579.724
582.245
-368.754
309.021
-101.396
303.717
64.5165
443.476
529.876
57.7408
2263.1
-57.4262
2278.21
-110.532
2208.71
-163.068
1967.69
-222.691
1901.26
-282.018
1740.04
-346.453
1629.77
-417.973
1505.13
-510.271
1360.78
-654.083
1128.02
-840.054
768.225
-933.27
402.412
-770.86
141.48
-395.83
68.674
134.044
144.01
2119.09
79.3708
2342.86
72.667
2215.42
72.1491
1968.21
83.1651
1890.25
89.3099
1733.91
102.133
1616.95
115.413
1491.86
114.772
1361.43
51.9604
1190.82
-122.987
943.21
-346.924
626.163
-462.198
256.542
-372.763
-20.9992
-238.714
175.703
1943.4
169.854
2348.71
194.955
2190.33
229.808
1933.37
277.979
1842.09
322.859
1689.04
372.697
1567.13
425.146
1439.42
473.829
1312.76
490.939
1173.74
434.473
999.666
282.308
778.484
52.9267
486.228
-101.476
133.809
-340.193
147.164
1796.24
163.243
2332.64
188.018
2165.57
221.937
1899.46
260.478
1803.56
297.365
1652.16
333.983
1530.52
371.972
1401.44
409.145
1275.59
433.905
1148.97
426.312
1007.28
365.426
839.269
237.81
613.729
59.8722
311.576
-280.315
90.4707
1705.79
105.403
2317.73
115.283
2155.71
129.378
1885.38
148.393
1784.56
166.828
1633.74
185.659
1511.71
203.213
1383.9
221.541
1257.29
238.78
1131.78
251.313
994.756
253.434
837.308
227.639
639.718
127.914
411.66
-152.401
50.433
1655.38
69.0469
2299.14
81.2235
2143.56
88.927
1877.71
99.8258
1773.69
111.693
1621.9
124.518
1498.9
139.562
1368.89
155.722
1241.16
172.602
1114.92
161.917
1005.49
145.691
853.531
252.842
532.597
359.352
305.204
206.953
-118.467
1773.88
-157.821
2338.52
-196.478
2182.24
-278.194
1959.46
-367.815
1863.34
-475.886
1730
-605.99
1629.03
-785.016
1547.93
-1002.36
1458.52
-1158.48
1271.07
-1059.95
906.967
-487.487
281.177
390.835
-345.595
840.104
-143.939
1047.06
-569.399
2343.3
-919.957
2689.1
-1310.98
2573.28
-1783.06
2431.55
-2260.96
2341.25
-2756.54
2225.59
-3303.14
2175.64
-3930.25
2175.05
-4564.65
2092.92
-5021.44
1727.87
-4967.52
853.051
-4030.4
-655.944
-2360.99
-2015
-697.236
-1807.68
349.821
-721.958
3065.27
-1274.44
3241.59
-1764.66
3063.51
-2273.69
2940.59
-2736.55
2804.12
-3181.07
2670.11
-3565.54
2560.12
-3809.09
2418.6
-3838.08
2121.92
-3506.55
1396.34
-2940.92
287.427
-2528.68
-1068.17
-2599.4
-1944.27
-2119.59
-2287.47
-1769.77
-1223.63
-1449.76
-1669
-1811.51
-1807.48
-1655.08
-1314.93
-941.212
-653.452
-447.514
392.644
350.443
-205.326
-663.625
-0.000104154
2775.78
-2775.78
2775.78
2775.78
2775.78
5673.32
-2897.54
5673.32
5673.32
5673.32
8942.9
-3269.57
8942.9
8942.9
12327.6
-3384.67
12327.6
12327.6
12327.6
15625.7
-3298.11
15625.7
15625.7
18757.7
-3132.01
18757.7
18757.7
18757.7
21551.8
-2794.13
21551.8
21551.8
21551.8
23927.1
-2375.32
23927.1
23927.1
25920.8
-1993.65
25920.8
25920.8
25920.8
27217.7
-1296.95
27217.7
27217.7
27838.5
-620.734
27838.5
27838.5
27838.5
27745
93.505
27745
27745
27745
27063.3
681.622
27063.3
27063.3
25814.4
1248.93
25814.4
25814.4
25814.4
24071.2
1743.2
24071.2
24071.2
24071.2
22026.3
2044.92
22026.3
22026.3
19796.4
2229.93
19796.4
19796.4
19796.4
17558.2
2238.21
17558.2
17558.2
15302.8
2255.39
15302.8
15302.8
15302.8
12912.9
2389.89
12912.9
12912.9
12912.9
10035.7
2877.2
10035.7
10035.7
6582.13
3453.54
6582.13
6582.13
6197.95
5790.03
5307.71
1391.78
3322.25
1046.38
666.571
300.375
-51.4119
-392.935
-712.719
-1003.09
-1373.66
-6953.28
5157.36
-7113.5
-7271.03
-7402.76
-7673.95
-7920.97
-8076.3
-8101.94
-8265.98
-14550.4
5809.59
-14621.9
-14622.2
-14621.8
-14660.1
-14628.2
-14395.9
-14160.7
-13911.8
-13673.8
-18597.3
5112.56
-18254.2
-17902.7
-17552.8
-17208.9
-16875
-16511
-16122.5
-15729.5
-19463.3
4125.87
-19097.7
-18709.6
-18296.6
-17881.9
-17465.7
-17049.7
-16625.7
-16154.8
-19212.2
3550.32
-18765.5
-18300.8
-17833.7
-17341.3
-16835.7
-16325.6
-15806.9
-15268.7
-18081.1
3394.62
-17534.4
-16960.4
-16380.5
-15795.6
-15211.8
-14594.4
-13980.5
-13377.1
-12772.8
-14528.6
2392.9
-13948.1
-13318.8
-12684.8
-12034.9
-11354.6
-10614.7
-9829.39
-9032.13
-10468.4
2279.17
-9709.63
-8918.67
-8918.67
-10661.7
1743.07
-12070.1
1408.35
-12070.1
-13303.5
1233.41
-13303.5
-14475.2
1171.7
-15192.5
717.254
-15192.5
-15849.9
657.403
-15831.1
-18.7447
-15831.1
-15227.7
-603.391
-15227.7
-14248.4
-979.287
-12846.1
-1402.31
-12846.1
-11097
-1749.15
-11097
-9193.34
-1903.64
-7220.45
-1972.89
-7220.45
-5031.03
-2189.41
-2866.65
-2164.38
-2866.65
-482.015
-2384.64
-482.015
2001.86
-2483.88
4837.1
-2835.24
4837.1
7873.88
-3036.78
7873.88
11076.7
-3202.8
14720.3
-3643.65
14720.3
18450.2
-3729.88
22637.5
-4187.26
22637.5
27030.9
-4393.44
27030.9
31505.6
-4474.66
36330.6
-4825.06
36330.6
41216.9
-4886.25
41216.9
46040.4
-4823.55
50945.8
-4905.32
50945.8
55709.9
-4764.14
60359.7
-4649.78
60359.7
64918.6
-4558.94
64918.6
69256
-4337.41
73237.1
-3981.1
73237.1
77110
-3872.84
77110
80747.3
-3637.29
83771.2
-3023.91
83771.2
86828
-3056.81
89063.8
-2235.83
89063.8
91208.3
-2144.44
91208.3
93135.5
-1927.27
94034.2
-898.637
94034.2
94934.1
-899.963
94934.1
95734.1
-799.982
95500.8
233.357
95500.8
95789.5
-288.717
95118.8
670.682
95118.8
94889.1
229.726
94889.1
38.5897
-1123.22
-11878.9
-1488.24
-16923.6
-1942.29
-19216.9
-2543.43
-19747.2
-3350.24
-19145.1
-4446.44
-18314.8
-5863.55
-16972.6
-7529.68
-15145.6
-9227.84
-13221.3
-10719.7
-11754.4
-11872.1
-11014.6
-12687.2
-10957
-13237.3
-11383.8
-13594.1
-12119
-13801.2
-13060.6
-13880
-14153
-13841.7
-15363.8
-13694.5
-16664.2
-13447.1
-18024.3
-13109.6
-19422.7
-12698.7
-20843.8
-12248.3
-22288.7
-11830.2
-23796.3
-11591
-25487.2
-11783.2
-27686.7
-12684.9
-31030.9
-14182.3
-36224.9
-15010.4
-42411.5
-12656.7
-44422.3
-5954.63
-33138.4
-599.335
-6839.96
-161.232
14952.8
-269.483
20254.9
-87.9567
27769.3
77.1857
36695
158.402
45276.5
211.082
52644.5
336.351
59621.1
549.88
65467.2
732.915
64078.4
860.455
58980
1000.96
54863
1162.03
50566.9
1462.45
52992.9
1878.44
60604.8
2213.27
62737.3
2254.32
51367.9
2051.22
32155.1
1650.18
11206.2
1535.85
-5706.51
2174.35
16954.3
2468.59
40451.7
2616.47
46419.2
2876.36
47010.1
3387.51
56713.2
3972.11
74620.5
4375.28
87403
4488.11
86933.6
4359.08
74595.7
4135.21
57126.9
3974.45
40085.7
3953.99
24998.1
3917.84
11814.6
3527.64
1185.33
2842.1
-5645.27
2312.74
-7778.08
2082.69
-8402.7
2007.9
-11197.5
1646.21
-19252.5
954.669
-25885.4
525.584
-31076.5
542.271
-35345.9
843.609
-38548.5
1402.66
-40874.4
2101.39
-45367.2
2511.44
-54881.3
2493.11
-67826.3
2031.81
-76073.8
-95203.8
-1227.73
-11726.4
-1570.31
-16581.1
-2070.24
-18717
-2772.57
-19044.9
-3726.47
-18191.2
-5016.95
-17024.3
-6639.26
-15350.3
-8432.71
-13352.1
-10109
-11545
-11443.7
-10419.7
-12380.9
-10077.4
-12990.7
-10347.3
-13368.3
-11006.2
-13577.7
-11909.6
-13647.6
-12990.7
-13588.6
-14211.9
-13406
-15546.4
-13103.9
-16966.3
-12686.2
-18442
-12156.9
-19952
-11521.8
-21478.9
-10795.9
-23014.6
-10016.4
-24575.8
-9277.63
-26226
-8804.04
-28160.3
-9023.12
-30811.8
-10360.4
-34887.7
-12333.9
-40437.9
-12562.5
-44193.8
-8118.26
-37582.7
-1895.11
-13063.1
15.9199
13041.8
-185.843
20456.7
-51.3788
27634.8
70.5933
36573.1
138.039
45209.1
187.245
52595.3
314.073
59494.3
523.56
65257.7
709.082
63892.9
841.962
58847.1
986.542
54718.4
1151.04
50402.4
1456.89
52687.1
1880.98
60180.7
2222.45
62395.8
2275
51315.3
2066.9
32363.2
1653.51
11619.6
1375.01
-5428
2140.6
16188.7
2478.4
40113.9
2611.38
46286.2
2851.23
46770.3
3369.14
56195.3
3975.03
74014.6
4391.9
86986.1
4506.65
86818.8
4372.17
74730.2
4139.12
57360
3966.64
40258.2
3905.03
25059.8
3746.8
11972.8
3318.94
1613.19
2747.06
-5073.39
2327.33
-7358.35
2142.01
-8217.37
2040.87
-11096.4
1583.51
-18795.2
804.914
-25106.8
365.661
-30637.2
434.727
-35414.9
849.302
-38963.1
1550.34
-41575.5
2350.88
-46167.7
2790.1
-55320.5
2716.08
-67752.3
2102.81
-75460.5
-92871.3
-1309.6
-11583.7
-1648.61
-16242.1
-2187.82
-18177.8
-2970.77
-18261.9
-4044.54
-17117.4
-5478.27
-15590.6
-7209.59
-13619
-9004.97
-11556.7
-10566.7
-9983.21
-11732.1
-9254.31
-12511.6
-9297.94
-12998.5
-9860.42
-13277.6
-10727.1
-13396.9
-11790.2
-13376.9
-13010.7
-13226.3
-14362.6
-12950.3
-15822.3
-12553.7
-17363
-12040.5
-18955.1
-11414.6
-20577.9
-10681.3
-22212.2
-9851.98
-23843.9
-8950.95
-25476.8
-8036.89
-27140
-7256.45
-28940.8
-6943.38
-31124.9
-7616.61
-34214.4
-9387.24
-38667.3
-10767.8
-42813.2
-8553.18
-39797.3
-2330.19
-19286.1
665.097
10046.5
17.7196
21104.1
4.24598
27648.3
72.5746
36504.7
118.114
45163.5
156.577
52556.8
280.743
59370.1
489.044
65049.4
677.725
63704.2
815.936
58708.9
966.081
54568.2
1135.47
50233
1447.22
52375.3
1880.63
59747.3
2234.44
62042
2298.86
51250.9
2106.7
32555.4
1764.94
11961.3
1434.88
-5097.94
2091.23
15532.4
2472.5
39732.6
2601.33
46157.3
2824.01
46547.6
3347.43
55671.9
3975.46
73386.6
4410.22
86551.4
4530.26
86698.8
4391.59
74868.8
4148.4
57603.1
3966.33
40440.2
3867.97
25158.1
3706.98
12133.8
3342.52
1977.65
2816.79
-4547.66
2407.8
-6949.35
2210.74
-8020.31
2075.44
-10961.1
1563.33
-18283.1
737.082
-24280.5
287.828
-30188
406.541
-35533.7
914.584
-39471.1
1706.09
-42367
2557.54
-47019.1
3013.77
-55776.7
2899.02
-67637.5
2338.9
-74900.4
-89861.7
-1397.49
-11447.8
-1740.45
-15899.1
-2332.21
-17586
-3216.41
-17377.7
-4434.59
-15899.2
-6025.18
-14000
-7851.38
-11792.8
-9614.51
-9793.61
-11033.4
-8564.29
-12017.9
-8269.83
-12634.2
-8681.71
-12987.2
-9507.38
-13150.8
-10563.5
-13161.6
-11779.4
-13034.4
-13137.9
-12776.7
-14620.3
-12394.2
-16204.9
-11891.8
-17865.3
-11275
-19571.9
-10548.4
-21304.5
-9717.6
-23043
-8792.62
-24768.9
-7790.84
-26478.6
-6748.45
-28182.4
-5753.84
-29935.4
-5033.1
-31845.6
-5060.09
-34187.5
-6304.78
-37422.6
-8152.95
-40965.1
-7824.05
-40126.2
-2133.7
-24976.5
1647.9
6264.92
361.774
22390.2
74.2623
27935.8
79.78
36499.2
99.2896
45144
122.309
52533.8
241.573
59250.9
448.464
64842.6
641.446
63511.2
785.924
58564.4
942.212
54412
1117.49
50057.7
1434.56
52058.3
1876.18
59305.7
2243.25
61674.9
2324.4
51169.8
2154.65
32725.1
1882.68
12233.3
1517.5
-4732.76
2057
14992.9
2459.27
39330.3
2587.53
46029.1
2796.88
46338.3
3325.26
55143.5
3973.56
72738.3
4426.87
86098.1
4555.16
86570.5
4415.77
75008.2
4165.55
57853.4
3971.28
40634.5
3852.33
25277.1
3692.08
12294.1
3351.56
2318.17
2850.61
-4046.71
2464.93
-6563.67
2277.08
-7832.46
2123.14
-10807.1
1556.92
-17716.8
671.987
-23395.6
214.254
-29730.2
399.164
-35718.6
1009.98
-40082
1895.6
-43252.6
2802.98
-47926.5
3282.1
-56255.9
3125.59
-67481
2582.39
-74357.2
-87568
-1491.22
-11313.3
-1848.29
-15542
-2504.32
-16930
-3505.22
-16376.8
-4880.57
-14523.9
-6616.75
-12263.8
-8489.06
-9920.5
-10155.8
-8126.91
-11388.3
-7331.7
-12179.3
-7478.91
-12635.8
-8225.15
-12860.3
-9282.93
-12910.6
-10513.2
-12812.8
-11877.1
-12578.1
-13372.6
-12214.4
-14984.1
-11728.9
-16690.3
-11128.9
-18465.3
-10422
-20278.9
-9615.18
-22111.4
-8715.95
-23942.2
-7735.4
-25749.4
-6688.81
-27525.2
-5601.34
-29269.9
-4525.36
-31011.3
-3589.89
-32781.1
-3117.54
-34659.8
-3640.37
-36899.8
-5186.98
-39418.5
-6119.8
-39193.3
-2586.78
-28509.5
1488.09
2190.05
525.22
23353
135.436
28325.6
90.8924
36543.8
80.2461
45154.7
83.65
52530.4
195.677
59138.8
400.66
64637.6
598.919
63312.9
750.65
58412.7
914.42
54248.2
1096.59
49875.5
1418.98
51735.9
1868.54
58856.1
2250.07
61293.4
2351.4
51068.4
2207.96
32868.6
1991.8
12449.4
1589.48
-4330.44
2031.82
14550.5
2443.46
38918.7
2570.73
45901.8
2768.72
46140.3
3302.39
54609.8
3971.84
72068.8
4445.07
85624.8
4583.4
86432.1
4444.79
75146.9
4189.04
58109.1
3978.71
40844.8
3846.8
25409
3686.89
12454
3360.63
2644.43
2890.71
-3576.8
2529.18
-6202.14
2349.87
-7653.15
2181.43
-10638.7
1571.44
-17106.9
633.218
-22457.4
171.815
-29268.8
433.814
-35980.6
1148.65
-40796.8
2120.79
-44224.7
3075.43
-48881.2
3575.91
-56756.3
3378.28
-67283.4
2800.71
-73779.6
-84533.9
-1590.56
-11174.7
-1973.8
-15158.8
-2709.77
-16194
-3845.78
-15240.8
-5387.25
-12982.4
-7244.73
-10406.3
-9103.77
-8061.45
-10615.7
-6614.97
-11635.7
-6311.74
-12233.6
-6881
-12537.3
-7921.47
-12635.3
-9184.92
-12569.9
-10578.5
-12360.2
-12086.9
-12016.2
-13716.6
-11547.4
-15452.9
-10964
-17273.8
-10275.6
-19153.7
-9492.82
-21061.7
-8625.31
-22978.9
-7682.8
-24884.7
-6677.55
-26754.7
-5624.15
-28578.6
-4542.33
-30351.7
-3467.23
-32086.4
-2472.4
-33775.9
-1748.45
-35383.8
-1720.16
-36928.1
-2631.61
-38507
-3951.41
-37873.5
-3318.59
-29142.3
290.734
-1419.27
671.737
22972
181.514
28815.8
106.371
36618.9
60.8951
45200.1
40.5366
52550.7
142.706
59036.7
345.34
64434.9
549.82
63108.5
709.618
58252.9
882.12
54075.7
1072.17
49685.5
1400.19
51407.9
1858
58398.3
2255.51
60895.9
2379.63
50944.3
2266.21
32982
2100.04
12615.6
1673.87
-3904.28
2012.48
14211.9
2424.83
38506.3
2552.42
45774.2
2740.95
45951.7
3278.78
54072
3970.69
71376.9
4465.76
85129.7
4615.75
86282.2
4478.76
75283.8
4218.99
58368.9
3993.98
41069.8
3851.43
25551.5
3694.73
12610.7
3381.07
2958.09
2935.84
-3131.57
2594.58
-5860.87
2426.48
-7485.06
2252.45
-10464.7
1609.96
-16464.4
623.142
-21470.5
163.053
-28808.7
510.507
-36328
1327.43
-41613.7
2378.88
-45276.2
3374.61
-49876.9
3894.31
-57276
3659.65
-67048.7
3177.66
-73297.6
-82156.3
-1697.95
-11025.8
-2120.92
-14735.8
-2955.07
-15359.9
-4244.12
-13951.7
-5950.17
-11276.4
-7885.96
-8470.55
-9661.92
-6285.5
-10967.3
-5309.61
-11759.9
-5519.1
-12170.2
-6470.68
-12326.9
-7764.81
-12299.5
-9212.32
-12117.5
-10760.5
-11796.1
-12408.3
-11346.1
-14166.6
-10779.6
-16019.3
-10109.9
-17943.5
-9349.64
-19914
-8511.62
-21899.7
-7607.74
-23882.7
-6649.45
-25843
-5649.17
-27755
-4620.43
-29607.3
-3579
-31393.2
-2551.08
-33114.4
-1582.32
-34744.7
-781.615
-36184.5
-456.024
-37253.7
-837.419
-38125.6
-1825.24
-36885.7
-2308.05
-28659.5
349.27
-4076.59
1086.76
22234.6
320.23
29582.3
129.474
36809.7
41.072
45288.5
-6.66783
52598.5
83.171
58946.8
282.885
64235.2
494.518
62896.8
663.147
58084.2
845.32
53893.5
1044.17
49486.6
1378.01
51074
1844.14
57932.2
2258.8
60481.2
2407.99
50795.1
2328.13
33061.8
2207.88
12735.9
1767.03
-3463.43
2001.11
13977.9
2403.69
38103.8
2533.54
45644.4
2714.76
45770.5
3254.38
53532.4
3969.47
70661.8
4488.56
84610.7
4652.29
86118.4
4518.06
75418.1
4255.8
58631.1
4019.96
41305.7
3866.95
25704.5
3708.35
12769.3
3405.36
3261.07
2986.38
-2712.58
2665.85
-5540.35
2509.59
-7328.8
2336.16
-10291.2
1673.54
-15801.7
647.534
-20444.5
193.853
-28355.1
630.197
-36764.4
1545.03
-42528.6
2668.84
-46400
3699.16
-50907.2
4234.42
-57811.3
3958.82
-66773.1
3257.89
-72596.7
-79798.3
-1815.21
-10859.2
-2294.11
-14256.9
-3247.22
-14406.8
-4703.95
-12495
-6557.84
-9422.46
-8510.48
-6517.91
-10130.6
-4665.34
-11190.8
-4249.42
-11754.2
-4955.69
-11986.8
-6238.12
-12002.6
-7749.02
-11851.9
-9363.04
-11555.4
-11057
-11127.6
-12836.1
-10581.3
-14713
-9931.55
-16669
-9194.56
-18680.5
-8385.48
-20723
-7518.24
-22766.9
-6605.37
-24795.6
-5658.85
-26789.5
-4689.6
-28724.2
-3708.79
-30588.1
-2728.4
-32373.5
-1769.08
-34073.7
-863.847
-35649.9
-77.7165
-36970.6
378.246
-37709.6
275.663
-38023
-262.087
-36348
-848.23
-28073.3
1114.01
-6038.83
1799.73
21548.8
655.391
30726.7
169.139
37295.9
20.2902
45437.4
-57.7964
52676.6
17.514
58871.5
213.528
64039.2
433.137
62677.2
611.37
57906
804.043
53700.8
1012.53
49278.2
1352.33
50734.2
1826.59
57457.9
2259.18
60048.6
2435.3
50619
2391.63
33105.5
2309.99
12817.5
1856.28
-3009.71
1997.55
13836.6
2381.36
37720
2516.01
45509.7
2691.57
45595
3229.38
52994.6
3967.86
69923.3
4513.48
84065
4693.46
85938.4
4563.16
75548.4
4298.33
58896
4053.92
41550.1
3890.38
25868.1
3725.93
12933.7
3432.32
3554.68
3038.73
-2318.99
2739.19
-5240.81
2597.16
-7186.77
2431.64
-10125.7
1763
-15133.1
710.353
-19391.9
266.119
-27910.8
790.117
-37288.4
1797.98
-43536.4
2987.91
-47589.9
4046.72
-51966
4593.24
-58357.8
4287.28
-66467.2
3629.3
-71938.7
-77067.7
-1945.3
-10666.5
-2498.99
-13703.2
-3593.16
-13312.6
-5224.4
-10863.8
-7189.73
-7457.12
-9082.56
-4625.08
-10480.1
-3267.82
-11273.6
-3455.86
-11616.5
-4612.85
-11683.4
-6171.24
-11565.1
-7867.32
-11296.1
-9632.04
-10893
-11460.1
-10371
-13358
-9745.86
-15338.2
-9035.26
-17379.6
-8257.15
-19458.6
-7427.96
-21552.2
-6560.97
-23633.9
-5667.38
-25689.2
-4758.22
-27698.7
-3841.5
-29640.9
-2924.62
-31505
-2015.65
-33282.5
-1130.68
-34958.6
-297.923
-36482.7
436.036
-37704.5
943.495
-38217.1
981.734
-38061.3
684.131
-36050.4
373.398
-27762.6
1949.7
-7615.14
2442.97
21055.6
1044.83
32124.8
222.786
38118
-2.40985
45662.6
-112.929
52787.1
-54.0988
58812.7
137.326
63847.8
365.573
62449
554.172
57717.4
758.172
53496.8
977.087
49059.2
1322.99
50388.3
1805.11
56975.8
2256.16
59597.6
2460.58
50414.6
2454.39
33111.7
2402.53
12869.4
1936.35
-2543.54
1999.34
13773.6
2358.88
37360.4
2503.43
45365.2
2673.94
45424.5
3204.58
52463.9
3965.85
69162
4540.74
83490.1
4739.78
85739.4
4614.7
75673.5
4345.3
59165.4
4091.63
41803.8
3917.45
26042.3
3746.57
13104.6
3464.18
3837.06
3095.41
-1950.22
2816.32
-4961.71
2689.35
-7059.8
2537.04
-9973.38
1877.14
-14473.2
813.159
-18327.9
378.933
-27476.6
985.642
-37895.1
2081.99
-44632.8
3332.73
-48840.7
4414.16
-53047.5
4964.22
-58907.9
4634.87
-66137.8
4001.86
-71305.7
-74993.1
-2091.79
-10437.2
-2742.1
-13052.9
-3998.36
-12056.3
-5797.56
-9064.57
-7815.92
-5438.76
-9564.45
-2876.56
-10687.3
-2145
-11211
-2932.16
-11349.9
-4473.89
-11265.1
-6256.07
-11022.1
-8110.29
-10645.2
-10009
-10150.2
-11955.1
-9554.23
-13953.9
-8875.08
-16017.3
-8132.09
-18122.6
-7343.21
-20247.5
-6524.29
-22371.2
-5686.19
-24472
-4837
-26538.4
-3985.4
-28550.3
-3135.99
-30490.3
-2291.83
-32349.2
-1457.41
-34116.9
-644.529
-35771.5
120.672
-37247.9
799.609
-38383.5
1324.01
-38741.5
1472.25
-38209.5
1266.51
-35844.6
1171.73
-27667.8
2354.83
-8798.24
2576.68
20833.7
1283.1
33418.4
268.96
39132.1
-29.5679
45961.1
-172.299
52929.8
-131.659
58772
54.2774
63661.9
291.705
62211.5
491.422
57517.7
707.582
53280.7
937.618
48829.2
1289.77
50036.2
1779.51
56486
2249.32
59127.8
2483
50180.9
2514.13
33080.6
2483.24
12900.3
2005.06
-2065.35
2003.88
13774.8
2336.89
37027.4
2495.64
45206.4
2660.05
45260.1
3180.49
51943.5
3963.48
68379.1
4570.37
82883.2
4791.67
85518.1
4673.45
75791.7
4397.04
59441.8
4131.9
42068.9
3947.25
26226.9
3770.12
13281.7
3498.26
4108.92
3152.14
-1604.09
2894.19
-4703.76
2784.03
-6949.65
2649.03
-9838.38
2012.92
-13837.1
954.483
-17269.5
528.651
-27050.8
1211.1
-38577.5
2392.08
-45813.7
3699.02
-50147.6
4797.4
-54145.8
5343.95
-59454.4
4991.75
-65785.6
4101.73
-70415.7
-73035.8
-2259.17
-10159.1
-3030.29
-12281.8
-4464.73
-10621.9
-6406.14
-7123.17
-8398.72
-3446.18
-9921.39
-1353.89
-10739.3
-1327.13
-11006.7
-2664.72
-10963.9
-4516.68
-10743.7
-6476.31
-10389.9
-8464.09
-9921.75
-10477.1
-9356.55
-12520.3
-8712.67
-14597.8
-8008.89
-16721.1
-7264.22
-18867.3
-6494.54
-21017.2
-5713.16
-23152.5
-4927.19
-25258
-4140.6
-27325
-3358.81
-29332.1
-2583.39
-31265.8
-1813.78
-33118.8
-1051.86
-34878.8
-305.819
-36517.6
402.666
-37956.4
1042.4
-39023.2
1574.69
-39273.8
1820.75
-38455.6
1709.61
-35733.5
1668.61
-27626.8
2308.29
-9437.92
2321.6
20820.4
1410.88
34329.1
318.864
40224.1
-63.3022
46343.3
-236.411
53102.9
-215.296
58750.9
-35.663
63482.2
211.426
61964.5
423.021
57306.1
652.189
53051.5
893.969
48587.4
1252.51
49677.6
1749.55
55989
2238.24
58639.1
2501.76
49917.4
2568.82
33013.5
2550.24
12918.8
2060.45
-1575.56
2008.9
13826.3
2315.56
36720.7
2487.69
45034.3
2647
45100.7
3159.06
51431.4
3961.11
67577
4602.37
82242
4849.52
85270.9
4740.14
75901.1
4455.49
59726.4
4176.72
42347.7
3980.88
26422.7
3798.09
13464.5
3535.91
4371.1
3209.4
-1277.59
2972.63
-4466.99
2879.47
-6856.49
2762.95
-9721.87
2164.84
-13239
1129.57
-16234.2
709.797
-26631
1460.72
-39328.4
2722.91
-47075.9
4081.62
-51506.3
5191.36
-55255.6
5728.09
-59991.2
5358.54
-65416.1
4468.68
-69525.8
-70802.9
-2452.67
-9817.58
-3369.63
-11364.8
-4987.75
-9003.78
-7021.79
-5089.13
-8895.94
-1572.03
-10126.7
-123.118
-10634.9
-818.903
-10672.9
-2626.71
-10474.1
-4715.53
-10137.8
-6812.61
-9692.24
-8909.65
-9155.67
-11013.7
-8546.82
-13129.1
-7883.95
-15260.7
-7185.02
-17420
-6466.9
-19585.4
-5741.58
-21742.5
-5018.18
-23875.9
-4299.47
-25976.7
-3585.22
-28039.2
-2877.36
-30039.9
-2175.21
-31967.9
-1476.28
-33817.7
-780.944
-35574.2
-94.4644
-37204.1
568.419
-38619.3
1185.03
-39639.8
1729.58
-39818.4
2058.22
-38784.2
2065.15
-35740.4
2031.63
-27593.3
2239.97
-9646.26
2218.14
20842.2
1635.08
34912.2
445.214
41414
-98.3109
46886.8
-306.177
53310.8
-305.201
58749.9
-132.58
63309.6
124.587
61707.3
348.879
57081.8
591.933
52808.5
846.012
48333.3
1211.05
49312.6
1715.05
55485
2222.51
58131.6
2516.08
49623.8
2616.87
32912.7
2602.71
12933
2102.05
-1074.9
2012.64
13915.7
2295.53
36437.9
2476.59
44853.2
2635.84
44941.5
3141.37
50925.9
3959.38
66759
4636.8
81564.6
4913.62
84994.1
4815.38
75999.3
4522.87
60018.9
4229.19
42641.4
4020.95
26631
3831.33
13654.1
3574.31
4628.12
3263.8
-967.072
3049.27
-4252.46
2972.19
-6779.41
2872.37
-9622.04
2324.97
-12691.6
1330.78
-15240
915.938
-26216.1
1729.07
-40141.6
3068.88
-48415.7
4474.59
-52912
5590.04
-56371
6109.96
-60511.1
5724.6
-65030.7
4793.26
-68594.5
-69066.5
-2677.96
-9396.23
-3763.36
-10279.4
-5552.72
-7214.42
-7603.4
-3038.46
-9261.33
85.9015
-10162.9
778.409
-10384.9
-596.823
-10228.9
-2782.71
-9901.76
-5042.71
-9472.06
-7242.31
-8958.38
-9423.32
-8379.8
-11592.2
-7755.44
-13753.5
-7101.48
-15914.7
-6433.29
-18088.2
-5764.05
-20254.6
-5100.8
-22405.7
-4447.7
-24529
-3803.21
-26621.2
-3163.65
-28678.8
-2527.7
-30675.9
-1893.28
-32602.3
-1257.66
-34453.4
-620.506
-36211.3
15.6208
-37840.2
643.144
-39246.8
1247.04
-40243.7
1809.67
-40381
2210.85
-39185.4
2336.54
-35866.1
2347.86
-27604.6
2429.31
-9727.71
2486.22
20785.3
2045.98
35352.4
694.945
42765
-122.067
47703.8
-382.744
53571.5
-401.757
58769
-236.634
63144.5
31.0908
61439.6
268.91
56844
526.757
52550.6
793.632
48066.5
1165.24
48941
1675.82
54974.4
2201.78
57605.6
2525.39
49300.2
2657.36
32780.8
2640.47
12949.9
2130.88
-565.305
2014.14
14032.5
2276.66
36175.3
2462.75
44667.1
2628.82
44775.4
3127.4
50427.3
3958.87
65927.5
4673.71
80849.7
4984.15
84683.7
4899.72
76083.7
4600.71
60317.9
4291.74
42950.3
4069.43
26853.3
3869.72
13853.9
3612.51
4885.32
3315.21
-669.77
3122.88
-4060.13
3057.67
-6714.2
2969.17
-9533.54
2483.11
-12205.5
1548.33
-14305.2
1140.34
-25808.2
2011.29
-41012.5
3424.34
-49828.8
4871.4
-54359.1
5986.69
-57486.3
6484.2
-61008.6
6085.71
-64632.2
5053.33
-67562.1
-67037.1
-2940.36
-8877.71
-4209.04
-9010.76
-6130.61
-5292.85
-8093.01
-1076.05
-9448.72
1441.61
-10025.6
1355.28
-10009.8
-612.563
-9699.48
-3093.08
-9272.08
-5470.11
-8774.08
-7740.31
-8218.44
-9978.96
-7624.99
-12185.7
-7011.52
-14367
-6390.43
-16535.7
-5773.03
-18705.6
-5167.89
-20859.8
-4576.87
-22996.8
-3999.18
-25106.7
-3429.58
-27190.8
-2862.01
-29246.4
-2292.52
-31245.4
-1718.24
-33176.6
-1137.1
-35034.5
-548.671
-36799.8
47.001
-38435.9
648.482
-39848.3
1246.69
-40841.9
1830.34
-40964.6
2299.74
-39654.8
2538.5
-36104.9
2625.31
-27691.4
2798.4
-9900.81
2895.18
20688.6
2479.21
35768.4
997.452
44246.8
-131.508
48832.8
-467.66
53907.6
-505.548
58806.8
-347.986
62986.9
-69.1784
61160.8
183.075
56591.7
456.615
52277.1
736.732
47786.4
1114.93
48562.8
1631.69
54457.7
2175.73
57061.6
2529.2
48946.8
2689.91
32620
2664.93
12974.9
2148.88
-49.2507
2013.23
14168.1
2258.29
35930.3
2447.94
44477.5
2625.5
44597.9
3116.63
49936.2
3959.66
65084.5
4712.83
80096.6
5061
84335.5
4993.66
76151.1
4689.9
60621.7
4365.97
43274.3
4127.47
27091.8
3912.4
14068.9
3648.99
5148.73
3362.45
-383.231
3190.45
-3888.12
3129.24
-6653
3043.71
-9448
2627.64
-11789.5
1771.27
-13448.9
1376.32
-25413.2
2302.86
-41939.1
3783.59
-51309.5
5265.09
-55840.6
6374.15
-58595.4
6844.12
-61478.6
6434.19
-64222.3
5467.08
-66595
-65207.3
-3243.59
-8245.79
-4695.25
-7559.1
-6676.53
-3311.58
-8427.55
674.965
-9450.52
2464.58
-9751.62
1656.38
-9541.29
-822.89
-9111.72
-3522.65
-8611.89
-5969.94
-8071.61
-8280.59
-7500.15
-10550.4
-6916.78
-12769.1
-6336.4
-14947.3
-5766.51
-17105.6
-5213.58
-19258.6
-4681.19
-21392.1
-4166.36
-23511.6
-3664.05
-25609
-3166.15
-27688.7
-2665.12
-29747.4
-2155.21
-31755.3
-1633.17
-33698.7
-1097.78
-35569.9
-548.684
-37348.9
16.164
-39000.7
600.157
-40432.3
1198.72
-41440.5
1805.04
-41571
2339.58
-40189.3
2685.94
-36451.2
2863.47
-27868.9
3177.77
-10215.1
3174.65
20691.7
2700.35
36242.7
1233.1
45714
-141.717
50207.6
-563.981
54329.9
-617.303
58860.2
-466.807
62836.4
-176.372
60870.3
91.3657
56324
381.472
51987
675.225
47492.6
1059.99
48178
1582.52
53935.1
2144.08
56500
2527.17
48563.7
2714.5
32432.7
2678.49
13010.9
2158.18
471.058
2009.96
14316.3
2240.14
35700.1
2433.44
44284.2
2621.81
44409.5
3105.69
49452.3
3960.46
64229.7
4753.15
79303.9
5143.49
83945.2
5097.38
76197.2
4791.15
60927.9
4452.96
43612.5
4195.13
27349.6
3958.24
14305.8
3683.51
5423.46
3405.21
-104.93
3248.2
-3731.12
3178.59
-6583.39
3085.56
-9354.97
2746.96
-11450.9
1988.68
-12690.6
1617.3
-25041.8
2599.36
-42921.1
4140.86
-52851
5648.54
-57348.3
6745.28
-59692.1
7184.8
-61918.1
6762.01
-63799.5
5574.45
-65407.5
-63505.7
-3587.76
-7488.56
-5198.69
-5948.16
-7133.44
-1376.83
-8591.59
2133.12
-9311.69
3184.68
-9381.7
1726.38
-9009.86
-1194.73
-8492.07
-4040.43
-7947.61
-6514.4
-7390.17
-8838.02
-6826.83
-11113.8
-6274.32
-13321.6
-5743.62
-15478
-5237.21
-17612
-4756.42
-19739.4
-4299.99
-21848.6
-3860.93
-23950.6
-3430.81
-26039.2
-2999.45
-28120
-2558.34
-30188.5
-2100.7
-32212.9
-1623.29
-34176.1
-1125.59
-36067.6
-607.24
-37867.2
-64.5401
-39543.4
509.53
-41006.3
1113.9
-42044.9
1744.39
-42201.4
2340.34
-40785.3
2789.27
-36900.2
3071.5
-28151.2
3477.84
-10621.4
3239.85
20929.7
2655.41
36827.1
1363.51
47005.9
-163.066
51734.2
-675.487
54842.3
-737.841
58922.5
-593.297
62691.9
-290.652
60567.7
-6.2239
56039.6
301.312
51679.4
609.033
47184.9
1000.27
47786.8
1528.16
53407.3
2106.65
55921.6
2519.03
48151.3
2731.15
32220.6
2683.14
13058.9
2160.83
993.363
2004.23
14472.9
2222.14
35482.2
2419.33
44087
2614.43
44214.4
3092.12
48974.6
3959.21
63362.6
4792.8
78470.3
5230.04
83507.9
5210.32
76216.9
4904.94
61233.3
4553.31
43964.1
4271.79
27631.1
4006.18
14571.4
3715.64
5713.99
3442.13
168.584
3291.09
-3580.08
3196.35
-6488.65
3085.02
-9243.64
2831.65
-11197.5
2191.02
-12050
1856.91
-24707.7
2896.19
-43960.4
4490.27
-54445.1
6014.65
-58872.6
7093.24
-60770.7
7502.08
-62326.9
7068.83
-63366.2
5918.05
-64256.7
-61568.7
-3967.27
-6602.63
-5685.43
-4230
-7455.9
393.639
-8601.71
3278.93
-9075.63
3658.59
-8944.7
1595.45
-8442.24
-1697.19
-7865.9
-4616.77
-7302.69
-7077.61
-6751.31
-9389.41
-6216.25
-11648.8
-5710.28
-13827.6
-5239.94
-15948.4
-4803.49
-18048.5
-4397.45
-20145.4
-4016.16
-22229.9
-3649.56
-24317.2
-3286.61
-26402.1
-2915.66
-28491
-2527.44
-30576.7
-2114.67
-32625.7
-1674.59
-34616.2
-1207.25
-36534.9
-712.16
-38362.3
-184.338
-40071.2
385.903
-41576.6
1000.16
-42659.1
1655.54
-42856.8
2307.97
-41437.7
2854.58
-37446.8
3253.33
-28549.9
3690.25
-11058.4
3177.7
21442.2
2492.95
37511.9
1453.22
48045.7
-175.244
53362.6
-802.174
55469.2
-868.087
58988.4
-727.65
62551.4
-412.149
60252.2
-109.72
55737.1
216.092
51353.6
538.079
46862.9
935.654
47389.2
1468.52
52874.4
2063.23
55326.8
2504.56
47710
2739.81
31985.3
2680.95
13117.7
2159.05
1515.26
1995.93
14636.1
2204.01
35274.1
2404.86
43886.2
2603.09
44016.2
3076.99
48500.7
3955.16
62484.5
4829.77
77595.7
5318.06
83019.7
5330.82
76204.1
5030.99
61533.1
4666.82
44328.3
4356.42
27941.5
4055.87
14872
3746.01
6023.84
3472.42
442.174
3313.91
-3421.56
3173.78
-6348.52
3036.05
-9105.91
2877.4
-11038.8
2371.63
-11544.2
2089.04
-24425.1
3188.32
-45059.7
4825.66
-56082.4
6356.4
-60403.4
7411.64
-61826
7789.02
-62704.3
7350.18
-62927.4
6247.26
-63153.8
-59658.9
-4368.98
-5597.37
-6118.98
-2480
-7642.56
1917.21
-8501.58
4137.95
-8768.72
3925.73
-8459.44
1286.17
-7859.67
-2296.96
-7254.79
-5221.65
-6696.04
-7636.35
-6170.39
-9915.06
-5679.3
-12139.9
-5230.52
-14276.3
-4826.12
-16352.8
-4461.45
-18413.2
-4129.1
-20477.7
-3819.51
-22539.4
-3520.34
-24616.4
-3218.44
-26704
-2901.09
-28808.4
-2558.36
-30919.4
-2183.02
-33001
-1773.21
-35026
-1329.64
-36978.5
-851.598
-38840.3
-332.999
-40589.8
237.58
-42147.1
863.558
-43285.1
1542.54
-43535.8
2244.36
-42139.5
2883.08
-38085.5
3407.16
-29074
3845.81
-11497
3138.46
22149.6
2409.22
38241.1
1591.45
48863.4
-140.478
55094.6
-937.38
56266.1
-1009.1
59060.2
-870.05
62412.4
-541.024
59923.1
-219.141
55415.3
125.822
51008.6
462.297
46526.4
866.021
46985.5
1403.46
52336.9
2013.72