/*--------------------------------*- C++ -*----------------------------------*\
| =========                 |                                                 |
| \\      /  F ield         | OpenFOAM: The Open Source CFD Toolbox           |
|  \\    /   O peration     | Version:  4.1                                   |
|   \\  /    A nd           | Web:      www.OpenFOAM.org                      |
|    \\/     M anipulation  |                                                 |
\*---------------------------------------------------------------------------*/
FoamFile
{
    version     2.0;
    format      ascii;
    class       volVectorField;
    location    "15";
    object      U;
}
// * * * * * * * * * * * * * * * * * * * * * * * * * * * * * * * * * * * * * //

dimensions      [0 1 -1 0 0 0 0];

internalField   nonuniform List<vector> 
6785
(
(1.19361e-13 -0.578107 16.0657)
(1.10089e-13 -6.45309 12.3781)
(-2.56454e-14 -4.71155 12.7295)
(5.27499e-14 -4.1813 12.494)
(1.41342e-14 -3.5752 12.3242)
(-8.40871e-15 -3.10746 12.1008)
(3.00615e-14 -2.72363 11.8424)
(9.02074e-15 -2.43798 11.5291)
(-1.33807e-14 -2.24971 11.1528)
(2.40485e-14 -2.13302 10.7408)
(2.24856e-15 -2.09994 10.3356)
(-1.86967e-14 -2.37225 9.85646)
(5.32509e-14 -2.93903 9.2327)
(-4.35064e-15 -2.19691 8.89975)
(-6.70288e-14 1.01171 7.49172)
(3.16809e-13 -7.22003 25.7159)
(1.74541e-13 -16.4906 21.6875)
(-2.89067e-14 -11.6675 21.9597)
(2.07745e-13 -11.8611 20.5829)
(1.16684e-14 -11.0128 19.5724)
(2.28055e-14 -10.3594 18.5279)
(2.22332e-13 -9.7077 17.4803)
(9.38074e-15 -9.07677 16.4222)
(4.00354e-14 -8.48817 15.3548)
(1.9233e-13 -7.94223 14.2994)
(1.98295e-14 -7.3436 13.2843)
(5.40274e-14 -6.70164 12.2712)
(4.00283e-13 -6.32426 10.9326)
(2.41558e-15 -5.02507 8.312)
(-7.70051e-14 -0.96964 2.30927)
(1.30662e-13 -9.87342 27.2388)
(1.88649e-13 -17.5439 23.8798)
(-6.13558e-14 -11.7299 24.2278)
(-5.03843e-14 -12.5601 22.0746)
(2.73798e-14 -11.0777 20.9227)
(-1.50004e-14 -10.2854 19.4701)
(-5.57541e-14 -9.37421 18.0677)
(3.01117e-14 -8.52563 16.6503)
(-2.22775e-14 -7.74648 15.2797)
(-8.55221e-14 -7.12562 14.0537)
(3.40036e-14 -6.72234 13.075)
(-5.4674e-14 -6.44898 12.2538)
(-1.64753e-13 -6.03017 10.9416)
(4.22029e-14 -4.45855 7.24757)
(-1.55542e-13 0.133365 -1.66343)
(1.83629e-13 -11.1233 26.394)
(3.63808e-14 -16.9392 23.5225)
(7.38401e-14 -11.5844 23.7905)
(-6.938e-14 -12.8408 21.15)
(-7.43592e-14 -10.9748 20.0489)
(7.16594e-14 -10.3291 18.3455)
(-8.72153e-14 -9.33772 16.85)
(-9.65352e-14 -8.45328 15.2877)
(6.28045e-14 -7.44701 13.5384)
(-2.50822e-13 -6.28503 11.3553)
(-3.00855e-13 -5.37757 9.18894)
(1.17778e-13 -5.41082 8.28844)
(-3.08313e-13 -5.7596 8.33261)
(-6.73202e-13 -5.58884 7.55489)
(-2.25558e-13 -3.86434 4.42141)
(1.31534e-13 -11.9839 26.7087)
(-1.52844e-13 -16.8968 24.1392)
(7.35155e-15 -11.9194 24.3512)
(-1.21562e-13 -13.4044 21.5815)
(-2.69501e-13 -11.1492 20.6459)
(-5.69585e-14 -10.6951 18.8232)
(-1.981e-13 -9.53273 17.4204)
(-2.9128e-13 -8.5937 15.8549)
(-1.89853e-13 -7.26091 13.831)
(-5.37397e-13 -5.16834 10.407)
(-8.73923e-13 -2.59632 5.9881)
(-5.72517e-13 -1.48173 3.86391)
(-3.4409e-13 -2.68353 5.22692)
(-6.0165e-13 -4.14261 7.09994)
(-2.19871e-13 -3.71645 6.87253)
(2.02665e-13 -12.3612 26.6666)
(-9.23437e-14 -17.4267 25.5965)
(6.49232e-14 -12.3639 25.2127)
(-1.22752e-13 -14.0132 22.4217)
(-2.39718e-13 -11.4976 21.6621)
(3.98899e-14 -11.2926 19.7627)
(-1.90003e-13 -10.0421 18.4802)
(-2.31918e-13 -9.2007 16.9812)
(-3.55523e-14 -7.96714 15.1505)
(-5.02721e-13 -5.90903 11.9219)
(-6.03651e-13 -2.7318 6.90768)
(7.3093e-14 0.286301 2.5031)
(6.37907e-13 1.47995 0.782387)
(8.11921e-13 0.412655 1.76982)
(2.09415e-13 -1.0169 3.45475)
(3.78253e-13 -12.1798 25.3646)
(5.89263e-14 -17.7696 26.7552)
(1.57772e-13 -13.0142 25.535)
(-6.99539e-14 -14.2632 22.7289)
(-1.39274e-13 -12.0338 21.9084)
(2.22528e-13 -11.828 20.0555)
(-8.49739e-14 -10.7386 18.7463)
(-9.60188e-14 -9.99239 17.2985)
(1.42902e-13 -9.07941 15.7416)
(-2.10518e-13 -7.72172 13.5025)
(-2.61914e-13 -5.52165 10.0163)
(2.95616e-13 -2.46213 5.5673)
(-4.9065e-13 1.219 0.677715)
(-2.81799e-12 3.17891 -2.7219)
(-2.32447e-12 1.31633 -2.70649)
(2.57524e-13 -11.651 23.3535)
(7.9695e-14 -17.6604 27.1335)
(1.47208e-13 -13.4828 25.3985)
(-8.06487e-14 -14.1175 22.4919)
(-1.07179e-13 -12.2614 21.4992)
(1.5285e-13 -11.9219 19.7243)
(-1.89201e-14 -10.9752 18.335)
(-1.25655e-13 -10.2402 16.8842)
(8.49511e-14 -9.47791 15.419)
(-1.14334e-14 -8.54231 13.7254)
(-1.18192e-13 -7.25444 11.4926)
(1.73094e-14 -5.40483 8.58047)
(-2.41215e-13 -2.91031 4.8508)
(-6.28803e-13 -0.0929523 1.14544)
(-4.25279e-12 1.16958 -3.6001)
(2.42123e-13 -11.0636 21.4569)
(1.13315e-13 -17.2861 27.0435)
(-4.95326e-16 -13.6211 25.1328)
(-3.32221e-14 -13.8002 22.1016)
(-1.16839e-13 -12.0932 21.0014)
(-4.9836e-14 -11.6742 19.2538)
(2.77876e-14 -10.725 17.8333)
(-1.13264e-13 -9.9573 16.3586)
(-1.58809e-13 -9.19831 14.9201)
(4.01807e-14 -8.37239 13.4248)
(-1.71483e-14 -7.41672 11.6869)
(-2.47922e-13 -6.11811 9.55548)
(-5.52312e-14 -4.40225 6.67897)
(-1.11441e-13 -1.87053 2.95208)
(-4.58763e-12 1.12051 -3.28624)
(9.67516e-14 -10.5927 20.0343)
(1.02097e-13 -16.8276 26.8106)
(3.69968e-15 -13.56 24.8864)
(-1.59967e-13 -13.4667 21.7838)
(-1.40851e-13 -11.766 20.6636)
(-7.79914e-14 -11.3589 18.9331)
(-1.22366e-13 -10.3546 17.5476)
(-1.32381e-13 -9.5645 16.0373)
(-2.00747e-13 -8.75874 14.5824)
(-2.0806e-13 -7.94116 13.1552)
(-1.78374e-14 -7.09794 11.6126)
(-4.40737e-13 -6.04432 9.85964)
(-5.0964e-13 -4.76151 7.51563)
(1.63353e-13 -2.63462 4.26601)
(-4.85017e-12 1.21565 -3.09558)
(-1.21182e-13 -10.3891 19.5168)
(1.26619e-13 -16.5588 26.792)
(-2.34058e-13 -13.6598 24.9629)
(-2.27424e-13 -13.3589 21.8271)
(-2.2189e-14 -11.6745 20.5947)
(-4.06515e-13 -11.1817 18.796)
(-2.19737e-13 -10.1382 17.3426)
(-9.99281e-15 -9.39826 15.8812)
(-7.17173e-13 -8.57081 14.3775)
(-2.86197e-13 -7.73647 12.8725)
(1.01132e-13 -6.86601 11.2132)
(-8.61992e-13 -5.69391 9.29929)
(-4.2737e-13 -4.48175 7.08286)
(-6.44717e-13 -3.29398 5.13288)
(-4.94782e-12 -0.229036 -0.253331)
(-1.04632e-13 -10.0297 18.3691)
(2.48093e-13 -15.6868 26.143)
(-4.85777e-13 -13.2005 24.4552)
(-1.64845e-13 -12.7183 21.538)
(4.78915e-14 -11.0567 20.4811)
(-6.1688e-13 -10.5369 18.8921)
(-3.58989e-14 -9.34283 17.5758)
(1.69866e-13 -8.44217 16.1541)
(-6.09328e-13 -7.34502 14.8877)
(-1.89287e-13 -6.29071 13.6694)
(-3.28424e-13 -5.71446 12.9756)
(-1.02191e-12 -5.21717 11.6741)
(-5.41009e-13 -3.45497 7.55599)
(-7.14897e-13 -2.66308 5.08419)
(-3.61628e-12 -3.37211 8.03909)
(-1.90912e-13 -12.3126 25.5923)
(1.01141e-13 -16.4585 29.8687)
(-3.70884e-13 -13.655 27.8271)
(-1.94178e-13 -12.3627 25.4325)
(-1.74514e-13 -10.3429 24.0298)
(-3.86152e-13 -8.92395 22.2415)
(-1.5027e-13 -7.31431 20.9838)
(-2.70949e-13 -6.16044 20.4073)
(-4.84796e-13 -4.51682 19.4465)
(-3.22175e-13 -1.63899 16.1155)
(-5.43083e-13 3.31872 8.23755)
(-6.90197e-13 10.1387 -5.0672)
(-6.23166e-13 14.918 -16.629)
(-6.40141e-13 11.1473 -10.6299)
(-1.06651e-12 -4.66527 16.0981)
(-2.52721e-13 -11.5083 22.5856)
(-6.98109e-14 -14.2907 28.1397)
(-3.99868e-13 -13.232 27.8515)
(-3.01036e-13 -12.3665 27.2835)
(-3.88901e-13 -11.1732 26.9132)
(-5.91701e-13 -10.3539 26.377)
(-7.6841e-13 -9.81594 26.74)
(-9.317e-13 -9.5954 27.2582)
(-8.13909e-13 -8.61578 26.1604)
(-7.70241e-13 -5.78033 20.9148)
(-8.93227e-13 0.382255 8.44567)
(-8.13594e-13 11.2264 -13.431)
(-6.96167e-13 22.1249 -33.6243)
(-5.0726e-13 27.1642 -36.6844)
(-1.31399e-13 13.4472 -21.3323)
(-3.31947e-13 -24.0619 61.3572)
(-2.2769e-13 -30.0375 55.2521)
(-4.51904e-13 -24.4471 48.8248)
(-3.96102e-13 -22.1532 44.8094)
(-5.73129e-13 -19.6801 40.1969)
(-7.99729e-13 -17.6408 36.3165)
(-1.24053e-12 -15.5849 31.9239)
(-1.56501e-12 -13.5394 26.6722)
(-1.44784e-12 -9.63226 19.3264)
(-1.50124e-12 -2.58412 4.49249)
(-1.47105e-12 15.0356 -32.2702)
(-6.53913e-13 15.6911 -40.343)
(-4.37918e-13 13.9902 -31.1083)
(-4.37328e-13 22.6208 -35.2718)
(-3.06426e-13 15.7665 -35.6845)
(-1.01378e-15 1.24093 -1.20911)
(-3.71478e-15 1.69887 -8.35016)
(-3.77765e-15 2.61036 -4.66513)
(-4.571e-15 4.0454 -4.1946)
(-3.5766e-15 4.11849 -3.67987)
(-3.71203e-15 7.12093 -9.501)
(-1.7765e-15 6.62283 -6.71099)
(-1.41191e-16 8.04303 -7.54086)
(-7.75983e-16 8.19879 -7.80115)
(1.79277e-14 12.1245 -14.0794)
(2.03282e-14 11.1272 -10.0546)
(2.26588e-14 12.3424 -9.39961)
(2.70706e-14 17.7841 -15.3395)
(2.12829e-14 14.908 -10.3044)
(2.15634e-14 17.0545 -10.1951)
(2.22058e-14 16.7867 -9.32398)
(2.38564e-14 22.58 -14.4655)
(2.2853e-14 19.6736 -9.20484)
(2.54095e-14 20.9037 -7.7425)
(3.56017e-14 28.6529 -12.0918)
(3.45653e-14 23.1216 -7.05408)
(4.11014e-14 25.8041 -6.22246)
(5.01163e-14 24.7673 -4.96151)
(7.1983e-14 33.0933 -8.21707)
(6.02215e-14 26.8309 -3.83988)
(6.35908e-14 29.8413 -2.78797)
(6.02131e-14 28.4769 -1.72722)
(7.46603e-14 36.6404 -3.75711)
(5.17259e-14 30.4817 -0.312787)
(4.47675e-14 31.4897 0.552932)
(5.05241e-14 42.4186 0.0208379)
(3.08389e-14 32.8364 2.48181)
(2.57944e-14 35.5424 3.27642)
(1.73249e-14 33.9068 3.44951)
(1.31701e-14 43.3878 4.44826)
(2.87689e-15 34.8943 5.44676)
(-2.35068e-15 35.4261 5.06801)
(-1.07792e-14 47.7158 7.41125)
(-1.2066e-14 35.6609 6.59609)
(-1.4863e-14 38.1313 6.20121)
(-1.32987e-14 36.2917 5.14038)
(-1.70177e-14 46.9947 7.65044)
(-1.11609e-14 35.0613 5.81468)
(-9.06563e-15 37.9122 5.21505)
(-6.60402e-15 36.2426 4.13372)
(-3.9635e-15 45.6829 6.70945)
(-3.37915e-15 34.7094 4.9433)
(-2.69714e-15 34.7448 4.01292)
(-3.50365e-15 46.5717 7.48274)
(-2.86439e-15 33.0585 5.26217)
(-7.95881e-15 35.0673 5.06375)
(-1.47784e-14 33.4285 4.46512)
(-3.35794e-14 42.8338 8.31731)
(-3.97405e-14 30.467 5.62736)
(-5.39277e-14 32.6433 5.49522)
(-6.37419e-14 31.152 4.89627)
(-1.12186e-13 38.9089 8.7316)
(-1.09045e-13 28.2487 5.92279)
(-1.15285e-13 28.0016 5.04746)
(-1.7863e-13 37.2056 9.02053)
(-1.46926e-13 25.3861 5.60137)
(-1.53963e-13 26.7336 5.12193)
(-1.55656e-13 25.5756 4.13723)
(-2.19507e-13 31.9826 7.39724)
(-1.73179e-13 22.503 4.32946)
(-1.66338e-13 22.3224 3.28376)
(-2.32733e-13 29.6317 6.83918)
(-1.74293e-13 19.6595 4.00354)
(-1.75319e-13 20.6507 3.68472)
(-1.78035e-13 19.8666 3.03624)
(-2.75052e-13 24.8282 7.38839)
(-2.13458e-13 16.3671 5.09265)
(-2.16474e-13 17.3526 5.41314)
(-2.16214e-13 16.5839 5.34698)
(-3.12072e-13 20.3202 11.7184)
(-2.43016e-13 12.8059 8.75623)
(-2.44974e-13 12.6976 8.17494)
(-3.19674e-13 15.4377 15.9667)
(-2.33503e-13 8.97715 10.6556)
(-2.15519e-13 8.21941 12.2696)
(-3.6877e-13 7.69698 3.59295)
(-3.77396e-13 10.2875 -0.106887)
(-3.54783e-13 2.15005 -3.41887)
(-2.49697e-13 8.093 2.89058)
(-3.42946e-13 22.1055 -3.00532)
(-3.42897e-13 3.27805 1.98078)
(-3.38798e-13 3.2351 3.67555)
(-3.41508e-13 1.9034 5.18745)
(-3.45071e-13 1.40687 6.25801)
(-3.4553e-13 1.48172 6.9916)
(-3.43458e-13 -0.411965 7.7129)
(-3.35064e-13 -6.40524 8.83525)
(-2.91064e-13 -3.50348 23.2382)
(-3.65629e-13 -5.95302 16.4255)
(-3.77126e-13 -7.84507 18.4715)
(-4.06165e-13 -8.23844 19.0588)
(-4.40739e-13 -8.96096 18.4641)
(-4.34339e-13 -9.85978 18.524)
(-4.41725e-13 -10.6081 18.4776)
(-4.35344e-13 -11.6274 18.0411)
(-4.03223e-13 -12.4615 17.4511)
(-2.62252e-13 -10.4717 31.3702)
(-4.49578e-13 -17.3773 23.7206)
(-4.43863e-13 -17.8142 24.1708)
(-4.46295e-13 -18.4114 23.5905)
(-4.39762e-13 -18.9265 22.8108)
(-4.38842e-13 -19.3533 22.7486)
(-4.6229e-13 -19.95 23.6693)
(-4.9443e-13 -19.8474 22.7565)
(-5.03633e-13 -20.0432 22.1833)
(-4.94299e-13 -20.6136 21.8082)
(-2.25564e-13 -18.5971 26.4705)
(-4.48171e-13 -23.1152 23.047)
(-4.44886e-13 -22.9136 22.7114)
(-4.49155e-13 -23.0208 21.9966)
(-4.43943e-13 -23.063 21.1593)
(-4.3052e-13 -23.0034 20.2692)
(-4.24139e-13 -22.9983 19.9435)
(-4.40946e-13 -22.8179 19.3718)
(-4.4809e-13 -22.9834 18.9017)
(-1.96841e-13 -20.0333 19)
(-3.86981e-13 -24.78 17.275)
(-3.42581e-13 -24.1339 17.2038)
(-3.0237e-13 -24.156 17.3463)
(-3.16702e-13 -23.8943 16.9379)
(-3.22504e-13 -23.7555 16.7597)
(-3.34958e-13 -23.5539 16.7257)
(-3.4395e-13 -23.2607 17.0625)
(-2.93058e-13 -23.3005 18.1194)
(-2.1598e-13 -19.6635 16.5113)
(-2.77883e-13 -24.5678 16.8093)
(-2.80174e-13 -23.5241 17.0884)
(-2.82588e-13 -23.4474 17.4326)
(-2.66311e-13 -23.1561 17.9933)
(-2.61117e-13 -22.8914 18.1998)
(-2.62817e-13 -22.5992 18.4028)
(-2.64352e-13 -22.2929 18.9017)
(-2.65824e-13 -21.9317 19.5911)
(-2.02559e-13 -18.3285 17.9256)
(-2.2015e-13 -22.906 19.1503)
(-2.07333e-13 -21.4752 19.5531)
(-1.94867e-13 -21.4194 19.9152)
(-1.81885e-13 -20.9889 19.9997)
(-1.74745e-13 -20.6119 19.8185)
(-1.83343e-13 -20.3268 19.6742)
(-1.77786e-13 -19.8073 18.4224)
(-1.67548e-13 -19.3516 17.2128)
(-1.52598e-13 -18.3889 16.2449)
(-5.41533e-14 -13.8288 10.1815)
(-8.96157e-14 -19.1361 12.8498)
(-6.14641e-14 -17.2606 12.1645)
(-6.51336e-14 -16.9903 12.3896)
(-7.26688e-14 -16.2767 13.2266)
(-8.98164e-14 -15.6871 14.7502)
(-1.18377e-13 -15.2181 17.1254)
(-1.36392e-13 -14.9138 19.9145)
(-1.20068e-13 -13.6031 21.9261)
(-6.19264e-14 -7.86312 14.7403)
(-9.21461e-14 -13.3564 17.8024)
(-6.81484e-14 -11.5443 16.3037)
(1.51325e-14 -6.65372 -1.41371)
(-4.04357e-14 -17.0884 5.9223)
(-2.91535e-14 -15.1624 3.92118)
(-2.47634e-14 -15.0534 3.0637)
(-3.37173e-14 -20.7597 3.70112)
(-1.92524e-14 -15.5389 2.14189)
(-2.19696e-14 -21.6194 2.90318)
(-1.55585e-14 -21.8829 1.24425)
(-1.35302e-14 -18.5019 0.66855)
(-2.17536e-14 -23.644 0.560937)
(-2.02813e-14 -22.7116 -0.602111)
(-1.59449e-14 -19.9491 -0.709045)
(-1.91793e-14 -25.2278 -1.34582)
(-1.09324e-14 -18.1239 -1.17387)
(-8.32994e-15 -22.6563 -2.25697)
(2.13941e-15 -18.878 -2.60923)
(1.07418e-15 -16.2036 -2.28229)
(2.76481e-16 -18.7463 -3.74034)
(4.28375e-15 -13.3954 -2.31613)
(3.48464e-15 -14.6805 -3.91223)
(4.235e-16 -11.1993 -3.08635)
(-5.295e-15 -9.38205 -2.82186)
(-1.94301e-14 -7.66812 -5.35429)
(-2.75179e-14 -4.74336 -4.57102)
(-1.7213e-14 -5.15033 -3.48836)
(-2.75847e-15 2.01864 -7.22888)
(1.05101e-16 -2.65268 -5.42412)
(-1.61283e-14 1.71823 -7.45911)
(-7.35849e-15 7.09823 -11.0962)
(-5.51817e-15 4.21622 -7.24792)
(-1.06976e-15 12.4442 -12.5227)
(7.63462e-17 9.45503 -9.49223)
(4.07449e-15 13.6763 -13.1211)
(5.6349e-15 19.9637 -17.9055)
(-2.20774e-16 17.5168 -12.3884)
(3.66161e-15 23.5349 -16.6501)
(2.4779e-15 32.2585 -21.9981)
(4.12092e-16 24.9898 -14.6296)
(8.56922e-16 41.8303 -22.6706)
(-6.82642e-16 33.5363 -16.5577)
(-8.51629e-16 40.4225 -21.7751)
(2.11095e-16 52.8695 -27.0835)
(-1.69838e-15 41.222 -17.7157)
(-4.38107e-15 65.0885 -26.2085)
(-6.25957e-15 51.2435 -18.6198)
(-7.08831e-15 61.6128 -24.0673)
(-1.07046e-14 73.5221 -28.1907)
(-8.38611e-15 60.7104 -18.2612)
(-1.21001e-14 76.7578 -23.1683)
(-1.93009e-14 90.7602 -26.2915)
(-1.52077e-14 67.9676 -16.6535)
(-2.37332e-14 103.87 -23.5161)
(-2.03351e-14 80.5334 -15.9146)
(-2.69716e-14 92.8829 -20.1179)
(-4.0818e-14 110.639 -21.5656)
(-3.25883e-14 83.3577 -13.2092)
(-5.1405e-14 125.021 -18.06)
(-4.3164e-14 95.3684 -11.5142)
(-5.72117e-14 110.502 -14.5514)
(-8.12987e-14 125.277 -13.9546)
(-6.39208e-14 98.9481 -7.40196)
(-8.48061e-14 122.893 -9.00444)
(-1.19234e-13 139.169 -6.40505)
(-8.74889e-14 100.758 -2.6366)
(-1.38102e-13 149.298 -2.32785)
(-1.1334e-13 112.578 0.586639)
(-1.4943e-13 127.498 0.993443)
(-2.08197e-13 146.329 6.04454)
(-1.50252e-13 106.987 5.79637)
(-2.26818e-13 156.815 9.22064)
(-1.77833e-13 116.542 8.68248)
(-2.29015e-13 132.669 10.455)
(-2.89764e-13 146.504 15.3039)
(-2.08167e-13 112.167 12.0252)
(-2.62294e-13 137.875 14.1329)
(-3.27655e-13 152.378 18.1334)
(-2.2439e-13 107.823 12.6111)
(-3.20569e-13 158.142 15.5612)
(-2.32903e-13 115.798 11.5928)
(-3.27904e-13 135.256 13.0385)
(5.03934e-20 16.0376 6.29656)
(-3.97571e-19 22.9782 8.67343)
(-3.97672e-18 26.1471 11.1753)
(-2.17992e-17 27.0287 14.7189)
(-8.28466e-17 26.4661 19.1935)
(-2.36712e-16 25.7028 25.4751)
(-5.33384e-16 24.3013 33.8121)
(-9.73929e-16 22.1764 44.3727)
(-1.46909e-15 19.6636 56.0302)
(-1.86686e-15 17.4713 67.0143)
(-2.04778e-15 16.0839 75.9182)
(-1.99566e-15 15.6044 82.3759)
(-1.78263e-15 15.8549 86.7842)
(-1.50468e-15 16.6023 89.7102)
(-1.23471e-15 17.6773 91.5421)
(-1.0116e-15 18.9791 92.4729)
(-8.48138e-16 20.452 92.5936)
(-7.43294e-16 22.0541 91.9615)
(-6.90486e-16 23.7457 90.6317)
(-6.81683e-16 25.4999 88.6624)
(-7.09018e-16 27.303 86.1319)
(-7.65067e-16 29.175 83.1841)
(-8.42249e-16 31.2104 80.1246)
(-9.31371e-16 33.659 77.6082)
(-1.01956e-15 37.0936 76.933)
(-1.09175e-15 42.4305 80.172)
(-1.15125e-15 50.1717 88.9593)
(-1.28018e-15 57.7683 100.147)
(-1.70345e-15 56.8164 100.035)
(-2.6668e-15 36.7677 68.7698)
(-3.93506e-15 2.08293 9.52848)
(-4.02909e-15 -20.054 -0.517193)
(-3.77101e-15 -26.574 2.5843)
(-3.85276e-15 -36.6049 1.12051)
(-4.27629e-15 -48.5343 0.037061)
(-4.9589e-15 -60.0468 -1.08435)
(-5.50528e-15 -69.9758 -1.03782)
(-5.58142e-15 -79.4515 -1.7804)
(-5.07263e-15 -87.4 -2.69587)
(-4.10337e-15 -85.6008 -4.6453)
(-2.72216e-15 -78.8278 -5.13257)
(-1.52139e-15 -73.4101 -6.33655)
(-5.15079e-16 -67.7548 -7.01227)
(-4.49505e-17 -71.1509 -8.48236)
(3.74492e-17 -81.3838 -11.0132)
(-1.85682e-18 -84.0823 -14.0261)
(-7.2947e-17 -68.577 -15.4936)
(-1.03144e-16 -42.6378 -14.5395)
(-8.53786e-17 -14.6314 -12.8849)
(-6.82115e-17 7.93138 -8.35431)
(-4.41774e-18 -24.1855 -13.029)
(8.26625e-19 -54.6529 -15.8541)
(-1.11487e-18 -62.2708 -17.0387)
(-1.46636e-18 -63.1678 -17.8518)
(-9.97169e-19 -76.3846 -20.512)
(-4.51532e-19 -100.286 -24.6557)
(-1.18956e-19 -117.035 -28.2973)
(2.50411e-20 -116.01 -30.035)
(7.06174e-20 -99.2444 -29.8066)
(7.72259e-20 -75.8276 -28.3171)
(7.6075e-20 -53.1669 -26.8179)
(8.05274e-20 -33.2065 -26.169)
(9.02802e-20 -15.6611 -26.556)
(8.08305e-20 -1.26476 -25.7299)
(3.64838e-20 8.24025 -21.2691)
(5.57532e-20 10.9575 -16.6174)
(-2.33383e-19 11.4698 -14.2202)
(4.75017e-19 15.0055 -13.543)
(5.13164e-19 26.0958 -13.2359)
(-2.34408e-17 35.3093 -8.72701)
(-3.18343e-16 41.9445 -3.98817)
(-8.34648e-16 47.112 -3.01595)
(-1.44267e-15 51.0611 -4.21699)
(-2.882e-15 53.8596 -7.03003)
(-6.46534e-15 59.6867 -11.6701)
(-1.0386e-14 72.7151 -16.3434)
(-1.22116e-14 90.4756 -17.1506)
(-2.13951e-15 102.049 -16.0703)
(-5.40745e-14 129.383 -11.8633)
(4.224e-20 15.6763 7.16634)
(-8.13863e-19 22.2399 9.19029)
(-7.00955e-18 25.2079 11.7609)
(-3.58004e-17 25.7799 15.8391)
(-1.28118e-16 24.7943 21.1328)
(-3.44472e-16 23.4331 28.557)
(-7.25748e-16 21.3644 38.346)
(-1.22793e-15 18.7225 50.191)
(-1.7024e-15 16.1507 62.2562)
(-1.98194e-15 14.3957 72.5329)
(-1.99888e-15 13.7138 80.0447)
(-1.80916e-15 13.9273 85.0253)
(-1.52351e-15 14.72 88.1755)
(-1.23512e-15 15.8647 90.0634)
(-9.95256e-16 17.2508 90.9694)
(-8.22168e-16 18.8223 90.996)
(-7.15592e-16 20.5436 90.1837)
(-6.67998e-16 22.378 88.5606)
(-6.69836e-16 24.2857 86.1556)
(-7.1159e-16 26.2374 82.9923)
(-7.8452e-16 28.2084 79.0968)
(-8.80878e-16 30.1872 74.5243)
(-9.9393e-16 32.195 69.416)
(-1.11819e-15 34.3258 64.1287)
(-1.24854e-15 36.8946 59.5658)
(-1.37647e-15 40.649 57.8283)
(-1.48601e-15 46.7939 62.5111)
(-1.57522e-15 55.2743 75.675)
(-1.75249e-15 60.4444 88.7695)
(-2.31728e-15 48.8649 78.5825)
(-3.45297e-15 11.4499 28.91)
(-4.02389e-15 -19.5622 -2.41437)
(-3.76401e-15 -27.315 2.02541)
(-3.85351e-15 -37.3588 0.690931)
(-4.27633e-15 -49.2049 -0.0234256)
(-4.95798e-15 -60.5988 -0.990674)
(-5.50458e-15 -70.3554 -0.892351)
(-5.5819e-15 -79.5477 -1.63312)
(-5.07551e-15 -87.2464 -2.54029)
(-4.11006e-15 -85.3509 -4.47174)
(-2.7331e-15 -78.5182 -4.99223)
(-1.53212e-15 -72.9706 -6.22459)
(-5.25081e-16 -67.1898 -6.92918)
(-4.84935e-17 -70.3273 -8.42674)
(3.7989e-17 -80.4383 -11.0048)
(-4.32181e-19 -83.3811 -14.0563)
(-7.15622e-17 -68.4338 -15.587)
(-1.02791e-16 -43.0184 -14.6391)
(-8.78622e-17 -15.1668 -13.1821)
(-7.05209e-17 6.9516 -7.71375)
(-6.8601e-18 -21.565 -12.2172)
(1.03722e-18 -53.4333 -15.8849)
(-1.00429e-18 -61.6382 -17.0907)
(-1.47118e-18 -62.3511 -17.7303)
(-1.01749e-18 -75.0977 -20.339)
(-4.6516e-19 -98.9698 -24.6026)
(-1.25003e-19 -116.221 -28.3708)
(2.30638e-20 -115.866 -30.1616)
(7.02672e-20 -99.6296 -29.9191)
(7.73966e-20 -76.4289 -28.3837)
(7.61414e-20 -53.6795 -26.808)
(8.05689e-20 -33.4714 -26.0802)
(8.64388e-20 -15.8483 -25.9875)
(6.4713e-20 -1.78484 -24.0208)
(2.82911e-20 7.02367 -20.18)
(4.85015e-20 9.94568 -16.4457)
(-1.83428e-19 11.0206 -14.5957)
(2.55576e-19 14.8885 -13.9548)
(2.61177e-18 25.3722 -13.2603)
(-4.66965e-17 33.8965 -7.86661)
(-4.74264e-16 41.0872 -2.8376)
(-1.17175e-15 47.1567 -2.0453)
(-2.08567e-15 51.681 -3.75915)
(-3.76381e-15 55.0083 -7.56602)
(-6.97133e-15 61.1133 -13.1107)
(-1.04585e-14 73.5373 -18.214)
(-1.22888e-14 90.404 -18.9963)
(-4.69933e-15 100.906 -17.2231)
(-3.69011e-14 125.072 -11.7098)
(5.34514e-21 15.5544 7.77482)
(-1.52405e-18 21.911 9.66523)
(-1.13613e-17 24.6419 12.3392)
(-5.35668e-17 24.9404 16.8263)
(-1.79108e-16 23.6408 22.7918)
(-4.50055e-16 21.8821 31.1417)
(-8.82764e-16 19.4763 41.9183)
(-1.38578e-15 16.7807 54.2301)
(-1.78484e-15 14.53 65.854)
(-1.94655e-15 13.2896 75.0409)
(-1.86652e-15 13.0724 81.3802)
(-1.63662e-15 13.596 85.4281)
(-1.36181e-15 14.5775 87.8726)
(-1.11135e-15 15.8569 89.1538)
(-9.16433e-16 17.366 89.4668)
(-7.84992e-16 19.0617 88.8884)
(-7.1347e-16 20.9089 87.4587)
(-6.94031e-16 22.8703 85.2091)
(-7.17583e-16 24.9062 82.1701)
(-7.75104e-16 26.989 78.3671)
(-8.58138e-16 29.0946 73.8252)
(-9.58915e-16 31.2096 68.59)
(-1.0703e-15 33.3479 62.7641)
(-1.18655e-15 35.5688 56.5733)
(-1.30449e-15 38.0608 50.5732)
(-1.4246e-15 41.2479 46.1774)
(-1.54923e-15 45.9349 46.421)
(-1.67417e-15 52.5308 55.2046)
(-1.81414e-15 57.8742 69.9952)
(-2.14644e-15 51.7715 73.2898)
(-3.06127e-15 22.0768 40.1966)
(-4.1215e-15 -16.1849 -8.20672)
(-3.79333e-15 -27.9763 -0.215198)
(-3.85278e-15 -37.0414 0.097608)
(-4.27587e-15 -48.8648 -0.137346)
(-4.95675e-15 -60.3736 -0.908222)
(-5.50378e-15 -70.1894 -0.706523)
(-5.58244e-15 -79.2891 -1.41573)
(-5.07883e-15 -86.8821 -2.31604)
(-4.11795e-15 -85.0538 -4.23907)
(-2.74613e-15 -78.3325 -4.80109)
(-1.54506e-15 -72.7922 -6.0692)
(-5.37229e-16 -67.0036 -6.81046)
(-5.29387e-17 -69.9328 -8.3348)
(3.86016e-17 -79.8474 -10.9722)
(1.34253e-18 -82.8894 -14.0893)
(-6.99354e-17 -68.3646 -15.7208)
(-1.02299e-16 -43.3196 -14.8058)
(-9.07501e-17 -15.7799 -13.5606)
(-7.35939e-17 6.63262 -9.02247)
(-9.4942e-18 -20.9619 -11.5493)
(1.19998e-18 -53.0719 -15.8359)
(-8.58665e-19 -61.5295 -17.1117)
(-1.47295e-18 -62.0972 -17.5713)
(-1.0427e-18 -74.4491 -20.124)
(-4.82382e-19 -98.1589 -24.5273)
(-1.32729e-19 -115.635 -28.4551)
(2.05214e-20 -115.673 -30.3225)
(6.98073e-20 -99.7587 -30.0727)
(7.76056e-20 -76.672 -28.4881)
(7.62173e-20 -53.8113 -26.8272)
(8.08493e-20 -33.4612 -26.061)
(8.19928e-20 -16.0934 -25.5035)
(6.25035e-20 -2.42502 -23.9628)
(2.97468e-20 6.49325 -20.566)
(4.51653e-20 9.62262 -16.9917)
(-1.30039e-19 10.8665 -15.1261)
(1.12832e-19 14.7082 -14.3273)
(4.97908e-18 24.7661 -13.3503)
(-7.14145e-17 32.9894 -7.52612)
(-6.32579e-16 40.6065 -2.24913)
(-1.48942e-15 47.2911 -1.59971)
(-2.57718e-15 52.2583 -3.8351)
(-4.26622e-15 55.9135 -8.36052)
(-7.1593e-15 62.0698 -14.3929)
(-1.04066e-14 74.0353 -19.677)
(-1.21945e-14 90.2741 -20.5202)
(-6.41597e-15 100.289 -18.1083)
(-2.59622e-14 122.011 -12.3792)
(-8.27321e-20 15.3421 8.40677)
(-2.74937e-18 21.4142 10.1964)
(-1.81618e-17 23.8528 13.0406)
(-7.93013e-17 23.7926 18.0493)
(-2.47608e-16 22.0649 24.8493)
(-5.8045e-16 19.7902 34.2902)
(-1.05822e-15 16.9828 46.0697)
(-1.54101e-15 14.2275 58.6442)
(-1.84744e-15 12.3111 69.5727)
(-1.89385e-15 11.6018 77.5435)
(-1.73205e-15 11.9004 82.6825)
(-1.47338e-15 12.8328 85.753)
(-1.21053e-15 14.1242 87.3921)
(-9.92823e-16 15.6516 87.9415)
(-8.3724e-16 17.3768 87.54)
(-7.44248e-16 19.2707 86.2477)
(-7.06861e-16 21.3042 84.1047)
(-7.15754e-16 23.4421 81.1462)
(-7.61211e-16 25.6454 77.4079)
(-8.34015e-16 27.887 72.9226)
(-9.257e-16 30.1402 67.7202)
(-1.02854e-15 32.3829 61.8457)
(-1.13539e-15 34.6121 55.3842)
(-1.24047e-15 36.8477 48.4865)
(-1.34075e-15 39.183 41.4817)
(-1.43938e-15 41.8325 35.2343)
(-1.55028e-15 45.341 31.8903)
(-1.68764e-15 50.4788 35.6451)
(-1.82375e-15 55.9804 48.4495)
(-1.98896e-15 54.1641 59.9141)
(-2.64406e-15 31.8882 44.4928)
(-4.29586e-15 -6.64502 -16.6434)
(-3.87357e-15 -28.9941 -4.13578)
(-3.85282e-15 -36.979 -0.612985)
(-4.27443e-15 -48.5816 -0.304454)
(-4.95525e-15 -60.1541 -0.850167)
(-5.503e-15 -70.0207 -0.509753)
(-5.58292e-15 -79.0471 -1.159)
(-5.08196e-15 -86.5649 -2.04857)
(-4.12566e-15 -84.7971 -3.97191)
(-2.75911e-15 -78.1794 -4.58071)
(-1.55814e-15 -72.6574 -5.88853)
(-5.49639e-16 -66.8716 -6.67496)
(-5.76579e-17 -69.6301 -8.22491)
(3.91689e-17 -79.3698 -10.9121)
(3.19631e-18 -82.477 -14.0945)
(-6.77074e-17 -68.2878 -15.848)
(-1.01679e-16 -43.5421 -15.01)
(-9.34711e-17 -16.2054 -13.9995)
(-7.57479e-17 6.50535 -10.3057)
(-1.18741e-17 -20.4158 -11.1809)
(1.28382e-18 -52.7483 -15.7243)
(-7.00061e-19 -61.4774 -17.0929)
(-1.4693e-18 -61.944 -17.4088)
(-1.06914e-18 -73.9066 -19.9126)
(-5.00909e-19 -97.4426 -24.4385)
(-1.41129e-19 -115.111 -28.5222)
(1.7737e-20 -115.508 -30.4809)
(6.9291e-20 -99.9003 -30.2468)
(7.78199e-20 -76.9466 -28.6347)
(7.63125e-20 -54.0237 -26.9069)
(8.0801e-20 -33.6066 -26.0451)
(7.90123e-20 -16.2737 -25.313)
(6.01316e-20 -2.87432 -23.9524)
(3.01714e-20 5.66928 -20.6957)
(3.76583e-20 8.9561 -17.3146)
(-8.93168e-20 10.5545 -15.572)
(-2.83437e-20 14.5238 -14.7577)
(8.09433e-18 24.0315 -13.5549)
(-1.03242e-16 31.7916 -7.2485)
(-8.32459e-16 39.9588 -1.63479)
(-1.86022e-15 47.4828 -1.24123)
(-3.10332e-15 53.011 -4.10078)
(-4.80038e-15 57.0586 -9.36731)
(-7.40511e-15 63.2905 -15.9149)
(-1.04015e-14 74.6906 -21.418)
(-1.21032e-14 90.0948 -22.3617)
(-8.28267e-15 99.4884 -19.3044)
(-1.30958e-14 118.131 -16.3784)
(-2.6962e-19 15.1778 9.04296)
(-4.81784e-18 20.97 10.8005)
(-2.85847e-17 23.0428 13.8833)
(-1.15582e-16 22.562 19.5013)
(-3.3592e-16 20.3686 27.2547)
(-7.31349e-16 17.6058 37.8378)
(-1.23387e-15 14.5501 50.4175)
(-1.6626e-15 11.9882 62.8057)
(-1.85658e-15 10.6175 72.6303)
(-1.79701e-15 10.5137 79.2141)
(-1.58061e-15 11.2845 83.1572)
(-1.32017e-15 12.535 85.2954)
(-1.08755e-15 14.05 86.1536)
(-9.11989e-16 15.7602 85.9745)
(-7.98787e-16 17.6547 84.8542)
(-7.43016e-16 19.7115 82.848)
(-7.35547e-16 21.9024 80.0054)
(-7.66357e-16 24.1921 76.3749)
(-8.25579e-16 26.541 72.0067)
(-9.04093e-16 28.9225 66.9501)
(-9.93682e-16 31.3098 61.2498)
(-1.08704e-15 33.6758 54.962)
(-1.17759e-15 36.0128 48.1735)
(-1.26004e-15 38.3262 41.0067)
(-1.33134e-15 40.6643 33.6698)
(-1.39388e-15 43.097 26.6677)
(-1.4645e-15 45.8204 21.2114)
(-1.58082e-15 49.3127 20.4088)
(-1.73567e-15 53.3313 28.1742)
(-1.8311e-15 53.2327 40.7249)
(-2.20502e-15 36.7578 41.2482)
(-3.89893e-15 -4.46789 -10.7036)
(-3.87772e-15 -30.6391 -5.86082)
(-3.85474e-15 -37.3814 -1.2053)
(-4.27275e-15 -48.6182 -0.512921)
(-4.95343e-15 -60.1476 -0.805266)
(-5.50225e-15 -70.0056 -0.298548)
(-5.58332e-15 -78.9031 -0.861673)
(-5.08472e-15 -86.3068 -1.73144)
(-4.13281e-15 -84.5494 -3.6602)
(-2.77141e-15 -77.989 -4.32226)
(-1.5708e-15 -72.4495 -5.67579)
(-5.61821e-16 -66.6371 -6.51839)
(-6.24857e-17 -69.2137 -8.09879)
(3.96609e-17 -78.793 -10.8301)
(5.03375e-18 -81.993 -14.0766)
(-6.53237e-17 -68.1666 -15.9672)
(-1.00929e-16 -43.7383 -15.2405)
(-9.5864e-17 -16.5119 -14.5005)
(-7.71428e-17 5.96548 -11.3083)
(-1.38855e-17 -19.6354 -11.0017)
(1.30579e-18 -52.1855 -15.5801)
(-5.3755e-19 -61.3045 -17.0435)
(-1.45962e-18 -61.6711 -17.2428)
(-1.09578e-18 -73.1967 -19.6993)
(-5.20251e-19 -96.5675 -24.3464)
(-1.49991e-19 -114.5 -28.5913)
(1.47801e-20 -115.34 -30.654)
(6.8729e-20 -100.101 -30.4493)
(7.80297e-20 -77.3053 -28.8184)
(7.64675e-20 -54.317 -27.0357)
(8.02242e-20 -33.792 -26.0159)
(7.68491e-20 -16.5004 -25.2679)
(5.83029e-20 -3.2842 -23.9215)
(3.13793e-20 5.11955 -20.8546)
(2.98124e-20 8.53771 -17.69)
(-6.89409e-20 10.3367 -16.0584)
(-1.75611e-19 14.3007 -15.2333)
(1.21645e-17 23.2459 -13.856)
(-1.41648e-16 30.5944 -7.15581)
(-1.06798e-15 39.3596 -1.18316)
(-2.26447e-15 47.7797 -1.13601)
(-3.61871e-15 53.892 -4.67354)
(-5.28205e-15 58.2912 -10.6439)
(-7.62471e-15 64.5187 -17.6413)
(-1.04019e-14 75.3321 -23.3171)
(-1.19762e-14 89.8572 -24.3842)
(-1.00108e-14 98.784 -20.6042)
(-4.67725e-15 114.813 -15.8346)
(-6.37122e-19 14.994 9.67998)
(-8.23407e-18 20.4746 11.4773)
(-4.42805e-17 22.1186 14.8897)
(-1.65682e-16 21.1444 21.2351)
(-4.46629e-16 18.4277 30.07)
(-8.99173e-16 15.1989 41.7863)
(-1.39926e-15 12.0332 54.8499)
(-1.74418e-15 9.82877 66.5753)
(-1.82136e-15 9.06904 74.9932)
(-1.6782e-15 9.53607 80.1426)
(-1.43615e-15 10.7246 82.9462)
(-1.19391e-15 12.2709 84.1873)
(-9.99943e-16 14.0186 84.2581)
(-8.67249e-16 15.9325 83.326)
(-7.93417e-16 18.0159 81.4662)
(-7.70314e-16 20.2488 78.7418)
(-7.87493e-16 22.6031 75.2179)
(-8.34375e-16 25.0443 70.9619)
(-9.00891e-16 27.5319 66.0422)
(-9.78013e-16 30.0402 60.5261)
(-1.05784e-15 32.542 54.4765)
(-1.13372e-15 35.0059 47.9618)
(-1.20018e-15 37.4195 41.0715)
(-1.25317e-15 39.779 33.9175)
(-1.29064e-15 42.1085 26.6444)
(-1.31413e-15 44.4142 19.5901)
(-1.33612e-15 46.7031 13.3935)
(-1.39982e-15 49.14 9.95915)
(-1.54746e-15 51.7875 13.0334)
(-1.62664e-15 51.4072 21.9553)
(-1.75489e-15 38.4311 30.8179)
(-2.74088e-15 -6.76843 8.41848)
(-3.82983e-15 -31.1637 -7.50772)
(-3.84712e-15 -37.9066 -1.65077)
(-4.27057e-15 -48.7571 -0.7591)
(-4.95122e-15 -60.2149 -0.771413)
(-5.50152e-15 -70.0429 -0.0715962)
(-5.58363e-15 -78.7786 -0.522551)
(-5.08701e-15 -86.0463 -1.36163)
(-4.13919e-15 -84.2839 -3.3007)
(-2.7828e-15 -77.7751 -4.02302)
(-1.58283e-15 -72.2115 -5.42762)
(-5.73603e-16 -66.3684 -6.33606)
(-6.73589e-17 -68.7553 -7.95235)
(4.00652e-17 -78.1661 -10.7268)
(6.88074e-18 -81.4602 -14.0412)
(-6.289e-17 -68.0123 -16.0821)
(-1.00053e-16 -43.9115 -15.4926)
(-9.78969e-17 -16.7603 -15.0459)
(-7.79845e-17 5.36296 -12.2837)
(-1.553e-17 -19.0592 -10.961)
(1.28627e-18 -51.5903 -15.4134)
(-3.76544e-19 -61.1048 -16.9639)
(-1.44397e-18 -61.3837 -17.0893)
(-1.12223e-18 -72.4478 -19.48)
(-5.40352e-19 -95.6322 -24.2518)
(-1.59292e-19 -113.841 -28.6699)
(1.16597e-20 -115.148 -30.8499)
(6.81228e-20 -100.292 -30.6837)
(7.82263e-20 -77.6557 -29.0367)
(7.67455e-20 -54.6088 -27.2163)
(7.94705e-20 -33.9706 -26.0386)
(7.50454e-20 -16.7135 -25.3066)
(5.67688e-20 -3.75662 -23.9823)
(3.31459e-20 4.43895 -21.0715)
(2.37027e-20 8.02138 -18.0736)
(-7.3092e-20 10.0898 -16.5525)