/*--------------------------------*- C++ -*----------------------------------*\
| =========                 |                                                 |
| \\      /  F ield         | OpenFOAM: The Open Source CFD Toolbox           |
|  \\    /   O peration     | Version:  4.1                                   |
|   \\  /    A nd           | Web:      www.OpenFOAM.org                      |
|    \\/     M anipulation  |                                                 |
\*---------------------------------------------------------------------------*/
FoamFile
{
    version     2.0;
    format      ascii;
    class       volVectorField;
    location    "6";
    object      U;
}
// * * * * * * * * * * * * * * * * * * * * * * * * * * * * * * * * * * * * * //

dimensions      [0 1 -1 0 0 0 0];

internalField   nonuniform List<vector> 
6785
(
(1.27949e-14 -2.25663 16.3856)
(1.11152e-14 -7.90059 12.86)
(-2.9792e-15 -5.12184 13.6527)
(4.30285e-15 -5.08466 13.1472)
(9.45118e-16 -4.30342 12.9932)
(-8.31029e-17 -3.89265 12.6901)
(2.68186e-15 -3.48296 12.3964)
(6.10048e-16 -3.20099 12.0823)
(-7.47253e-16 -3.01619 11.7829)
(1.594e-15 -2.95765 11.4916)
(2.13273e-16 -2.97357 11.2077)
(-5.80089e-16 -3.03148 10.8887)
(7.52015e-16 -3.46551 10.2183)
(-9.38008e-17 -3.52582 9.13461)
(-2.08864e-16 -0.00280665 7.44206)
(1.82645e-14 -10.2045 26.5929)
(1.20756e-14 -16.0762 23.0576)
(-2.63128e-15 -11.0522 23.4003)
(4.24804e-15 -11.7669 21.6)
(7.30381e-16 -10.0281 20.7688)
(8.66513e-16 -9.36126 19.5678)
(1.77813e-15 -8.34799 18.5382)
(-3.07106e-17 -7.53706 17.4767)
(-3.17675e-16 -6.70094 16.4231)
(2.49721e-16 -5.90668 15.27)
(-7.05532e-16 -5.14329 13.922)
(-7.78473e-16 -4.4986 12.2323)
(-9.36043e-17 -4.10074 10.0383)
(-3.24652e-16 -3.5438 7.0427)
(-3.47259e-16 -1.27513 2.40757)
(1.95515e-14 -13.0219 28.408)
(9.84883e-15 -16.8118 25.4093)
(-1.54505e-15 -12.1742 25.3523)
(3.84551e-15 -13.1051 22.9489)
(5.01924e-16 -10.9891 21.9811)
(1.39214e-15 -10.5208 20.3472)
(1.16746e-15 -9.39356 19.1392)
(-3.17137e-16 -8.65879 17.831)
(3.25812e-16 -7.69719 16.4137)
(4.91508e-16 -6.32709 14.0934)
(9.61127e-16 -3.83225 9.77712)
(3.89218e-15 -0.428332 3.36565)
(3.30803e-15 2.03771 -1.68401)
(-4.99612e-16 2.23692 -2.49246)
(-2.07241e-15 1.33103 -1.91095)
(1.96922e-14 -14.0461 28.7041)
(1.01431e-14 -17.4794 26.3221)
(-1.77752e-15 -13.0646 25.8754)
(4.03532e-15 -14.4793 23.1214)
(1.03111e-15 -12.039 22.2702)
(1.1025e-15 -12.0661 20.3142)
(1.29681e-15 -10.8386 19.1189)
(6.67475e-16 -10.3497 17.6743)
(6.83089e-17 -9.53014 16.3014)
(6.54639e-16 -8.49282 14.2909)
(2.13276e-15 -6.47436 10.8327)
(2.44917e-15 -3.21549 5.42725)
(5.61578e-15 -0.129449 0.70018)
(1.21694e-14 2.80157 -2.90022)
(-4.24361e-16 2.25276 -5.51648)
(1.96244e-14 -13.9347 27.3776)
(1.24398e-14 -17.8302 27.18)
(-1.15203e-15 -13.5329 25.7106)
(3.83691e-15 -14.6212 22.8348)
(2.30553e-15 -12.3629 21.8514)
(1.37708e-15 -12.318 19.7676)
(1.7914e-15 -11.1233 18.4013)
(1.89028e-15 -10.5551 16.7889)
(6.84548e-16 -9.78302 15.3025)
(8.85727e-16 -8.9557 13.5936)
(2.19716e-15 -7.77981 11.3286)
(2.09322e-15 -5.81949 8.20718)
(2.14109e-15 -3.65853 4.72834)
(2.9138e-15 -0.386514 0.88703)
(5.08045e-15 1.58296 -4.83119)
(1.88643e-14 -13.1866 25.0608)
(1.41107e-14 -17.5283 27.3348)
(-1.8748e-16 -13.5662 25.048)
(2.89841e-15 -13.9851 22.0375)
(2.72569e-15 -12.0173 20.8862)
(1.48576e-15 -11.7403 18.8135)
(1.73099e-15 -10.5729 17.3185)
(2.12053e-15 -9.84984 15.6097)
(1.23507e-15 -9.00872 14.0365)
(6.11028e-16 -8.17415 12.4511)
(1.29288e-15 -7.29278 10.7237)
(1.74157e-15 -6.03454 8.72435)
(8.1904e-16 -4.59181 6.19322)
(4.48107e-16 -2.05685 2.92217)
(5.74199e-15 0.192529 -2.42522)
(1.94316e-14 -12.3989 23.1108)
(1.57172e-14 -16.9467 27.0395)
(1.85429e-15 -13.533 24.4749)
(2.1472e-15 -13.3789 21.3637)
(3.07128e-15 -11.6881 20.0532)
(2.7789e-15 -11.2499 18.0952)
(1.9256e-15 -10.1945 16.5878)
(2.36205e-15 -9.44988 14.9871)
(2.7976e-15 -8.65633 13.5171)
(1.2994e-15 -7.87821 12.0971)
(1.11747e-15 -7.12906 10.6622)
(2.65434e-15 -6.22051 9.20785)
(1.62174e-15 -5.22569 7.46685)
(-1.05724e-15 -3.48685 5.23432)
(6.67632e-15 -1.04432 0.438343)
(1.89876e-14 -11.896 22.1447)
(1.64842e-14 -16.2303 26.2684)
(2.69515e-15 -13.2067 23.7958)
(1.74528e-15 -12.8429 20.6024)
(3.13474e-15 -11.1921 19.2473)
(2.82214e-15 -10.7958 17.3372)
(1.34775e-15 -9.8324 15.9656)
(2.00128e-15 -9.26132 14.4632)
(2.55157e-15 -8.60038 13.0594)
(1.23851e-15 -7.98909 11.7088)
(4.71045e-16 -7.42588 10.5293)
(1.02007e-15 -6.88637 9.65523)
(9.44491e-16 -6.34841 8.93989)
(-1.11421e-15 -5.30675 7.94296)
(1.65845e-15 -2.94166 4.11998)
(1.91797e-14 -11.9383 22.1227)
(1.45261e-14 -15.2233 25.157)
(1.00912e-15 -12.5451 22.8151)
(2.13253e-15 -12.0613 19.8389)
(2.76262e-15 -10.2741 18.4401)
(1.53609e-15 -9.64053 16.1989)
(2.40031e-15 -8.24101 14.3625)
(2.50374e-15 -7.55792 12.3789)
(2.50358e-16 -6.90086 10.9899)
(1.13118e-15 -6.74172 10.0907)
(5.72567e-16 -6.91098 10.0027)
(-1.74191e-15 -7.45389 10.6562)
(-7.35633e-17 -7.81173 11.6275)
(-1.36937e-15 -7.63717 11.762)
(-2.622e-15 -5.24939 8.76456)
(1.79412e-14 -13.1277 24.0834)
(1.00368e-14 -14.7936 25.0976)
(-9.58779e-16 -12.35 23.0927)
(1.17225e-15 -11.8458 21.1005)
(2.35538e-15 -10.0692 19.6115)
(3.21102e-15 -8.61308 16.8521)
(5.44582e-15 -6.35635 13.7856)
(5.65319e-15 -4.61146 10.7009)
(4.57088e-15 -3.13671 8.36784)
(5.14716e-15 -2.48908 7.01859)
(3.86298e-15 -2.98433 7.51173)
(3.97323e-16 -4.80523 9.94315)
(-1.33655e-15 -7.0906 13.0845)
(-2.01922e-15 -8.61103 14.6298)
(-3.04257e-15 -6.19813 11.4842)
(1.72516e-14 -14.035 25.4176)
(1.02259e-14 -17.1756 28.4092)
(-1.45138e-15 -13.8011 25.3752)
(1.01482e-15 -13.3838 23.7054)
(2.03021e-15 -11.804 22.54)
(4.9499e-15 -10.3649 19.9243)
(7.61273e-15 -7.88805 16.7423)
(8.92643e-15 -5.70248 13.4161)
(9.62857e-15 -3.49523 10.4654)
(1.01792e-14 -1.5229 7.58566)
(1.44257e-14 0.147551 5.08577)
(1.63231e-14 0.728701 3.79546)
(1.22788e-14 -0.618428 4.93602)
(5.37632e-15 -3.38219 7.83226)
(-1.48531e-15 -3.71645 7.95091)
(1.50208e-14 -12.04 21.1405)
(1.37877e-14 -18.9686 30.3087)
(4.4783e-15 -16.9328 28.6273)
(2.09071e-15 -15.6303 25.8479)
(5.0151e-16 -14.1548 24.267)
(4.56155e-15 -13.1601 22.2024)
(6.55475e-15 -11.3755 19.7171)
(6.09314e-15 -9.53744 16.7653)
(9.89939e-15 -7.43241 13.7749)
(9.59579e-15 -5.30357 10.5696)
(1.25446e-14 -2.98067 7.1319)
(1.76937e-14 -0.626478 3.34354)
(1.14697e-14 1.88771 -0.609209)
(8.74355e-15 2.88173 -2.52643)
(3.07445e-15 0.654075 -0.68873)
(1.21379e-14 -7.90083 13.1789)
(1.62516e-14 -17.4402 27.4763)
(1.02302e-14 -18.4526 29.6626)
(5.57731e-15 -17.1169 26.9742)
(1.49947e-15 -15.5068 24.3065)
(2.83041e-15 -14.4305 21.9816)
(4.71457e-15 -13.2899 19.8698)
(3.11947e-15 -12.1091 17.6901)
(4.74315e-15 -10.7791 15.4493)
(5.40395e-15 -9.31594 13.1122)
(5.33553e-15 -7.69235 10.6399)
(7.62193e-15 -5.8177 8.00487)
(6.64081e-15 -3.74265 5.05566)
(4.72947e-15 -1.13105 2.17362)
(1.23068e-15 0.825828 -3.18031)
(9.70919e-15 -3.66395 5.33066)
(1.67775e-14 -14.6655 23.7141)
(1.17147e-14 -17.3205 28.3466)
(5.6274e-15 -15.6305 25.3678)
(5.05642e-16 -13.6523 22.1701)
(1.07994e-16 -12.5305 20.0195)
(1.64381e-15 -11.6825 18.3734)
(1.28078e-15 -10.8553 16.7152)
(1.33309e-15 -9.94005 14.9861)
(1.80016e-15 -8.91548 13.1965)
(1.50833e-15 -7.82766 11.3436)
(1.34708e-15 -6.55809 9.43528)
(1.28132e-15 -5.18949 7.25403)
(5.01722e-16 -3.22877 4.77419)
(-2.20685e-15 -0.948472 -0.189057)
(6.89418e-15 -2.41315 5.03267)
(1.71022e-14 -14.2896 23.4069)
(1.56217e-14 -18.9544 29.6136)
(8.90454e-15 -19.0235 28.1665)
(6.00843e-15 -17.0631 24.2324)
(7.7044e-15 -14.8658 20.5175)
(7.15437e-15 -13.1238 17.8158)
(4.50549e-15 -11.933 15.9921)
(2.5185e-15 -10.9835 14.4617)
(2.91612e-15 -10.0455 13.031)
(3.97374e-15 -9.01873 11.5951)
(3.84067e-15 -7.87906 10.0762)
(3.50542e-15 -6.55056 8.4701)
(4.34798e-15 -4.89935 6.40607)
(6.96228e-15 -1.79996 2.37276)
(3.92487e-18 3.25723 12.4753)
(1.01272e-16 -0.447697 1.90319)
(6.76388e-17 -0.108913 -1.02088)
(5.9365e-17 -0.11233 -0.741584)
(5.79765e-17 0.00271214 -0.857706)
(8.85856e-17 0.226358 -1.20305)
(5.90771e-17 0.143608 -0.822981)
(6.68718e-17 0.239667 -0.811668)
(5.68909e-17 0.276855 -0.771006)
(2.02004e-16 0.484094 -1.07601)
(2.51212e-16 0.429896 -0.755291)
(2.74411e-16 0.499782 -0.713426)
(3.65155e-16 0.73118 -0.954867)
(2.16335e-16 0.609557 -0.666254)
(2.14559e-16 0.717814 -0.669411)
(2.32128e-16 0.717456 -0.656079)
(4.14483e-16 0.938007 -0.84103)
(3.47237e-16 0.810694 -0.574066)
(3.80034e-16 0.877418 -0.526078)
(6.35209e-16 1.12072 -0.616489)
(5.12232e-16 0.902994 -0.378164)
(5.67695e-16 1.02219 -0.335552)
(6.66878e-16 0.975276 -0.286045)
(1.15171e-15 1.22344 -0.26695)
(1.14552e-15 0.979204 -0.117037)
(1.40158e-15 1.08093 -0.0799928)
(1.61688e-15 1.02205 -0.0613241)
(2.54388e-15 1.22011 0.0127442)
(2.20175e-15 1.00517 0.0566485)
(2.1447e-15 1.03542 0.0494852)
(2.96357e-15 1.22936 0.150667)
(2.15696e-15 0.95515 0.120171)
(2.0063e-15 1.03888 0.114918)
(1.69934e-15 0.977226 0.0885113)
(1.99287e-15 1.13165 0.190465)
(1.08426e-15 0.909969 0.132601)
(6.59211e-16 0.937801 0.100475)
(3.8216e-16 1.0783 0.21259)
(-2.15805e-16 0.821346 0.131858)
(-5.27124e-16 0.890515 0.119602)
(-7.27804e-16 0.839361 0.0923558)
(-1.19009e-15 0.9592 0.205578)
(-9.38116e-16 0.729403 0.115398)
(-8.66633e-16 0.787225 0.0985181)
(-6.91403e-16 0.750232 0.0624704)
(-7.12486e-16 0.827484 0.153488)
(-2.91683e-16 0.633304 0.0587756)
(-1.33692e-16 0.668469 0.01688)
(-6.07303e-17 0.722882 0.0995259)
(4.69423e-17 0.525876 0.00575576)
(5.38712e-17 0.574995 -0.02318)
(2.40336e-17 0.557576 -0.0627174)
(-3.16713e-17 0.637227 -0.00177761)
(-6.88875e-17 0.490503 -0.0386363)
(-4.84933e-17 0.540189 -0.0676028)
(-2.78086e-18 0.523316 -0.0831131)
(2.95895e-16 0.615899 -0.158065)
(3.89902e-16 0.533891 -0.137258)
(4.43312e-16 0.576892 -0.156604)
(6.03482e-16 0.56094 -0.15309)
(6.42567e-16 0.412325 -0.186293)
(6.35104e-16 0.443376 -0.207017)
(4.76774e-16 0.463644 -0.172818)
(1.67161e-15 0.41579 -0.74123)
(2.03835e-15 0.0786516 -0.914782)
(1.36614e-15 0.178269 -0.579695)
(4.84268e-15 0.290948 -2.30506)
(-7.29668e-16 -0.459705 -0.190174)
(-1.7616e-15 -0.251877 0.199904)
(-3.28445e-15 -0.293956 0.700645)
(-9.75333e-15 -0.750023 3.30204)
(-1.20263e-14 -1.54981 4.58837)
(-1.22622e-14 -1.80716 4.53305)
(-1.28706e-14 -1.92101 4.83379)
(-1.93454e-14 -3.18677 8.13695)
(-1.56466e-14 -3.82907 7.29157)
(-1.5584e-14 -3.9811 7.57666)
(-2.04134e-14 -5.82783 11.4119)
(-1.46066e-14 -6.08115 9.21053)
(-1.42161e-14 -6.53788 9.83275)
(-1.45864e-14 -7.08777 11.5077)
(-1.36177e-14 -7.04236 11.3278)
(-1.35011e-14 -7.13142 11.5511)
(-1.71546e-14 -8.56845 13.972)
(-1.37686e-14 -7.89362 12.4201)
(-1.39413e-14 -8.12866 12.8461)
(-1.35303e-14 -8.10778 12.8555)
(-1.27839e-14 -8.19285 12.8675)
(-1.17528e-14 -8.24707 12.9172)
(-1.05322e-14 -8.32029 13.0001)
(-9.32584e-15 -8.37051 13.1942)
(-8.39205e-15 -8.44638 13.4421)
(-9.64111e-15 -9.03367 14.8062)
(-7.27438e-15 -8.97638 13.8097)
(-6.66651e-15 -9.09686 13.8442)
(-6.43048e-15 -9.07306 13.8349)
(-6.24889e-15 -9.19428 14.0448)
(-6.37762e-15 -9.16937 13.9814)
(-6.74925e-15 -9.24216 14.0301)
(-7.38933e-15 -9.25146 14.064)
(-8.27031e-15 -9.30832 14.1385)
(-1.32596e-14 -9.78035 15.4074)
(-1.13153e-14 -9.75556 14.6069)
(-1.242e-14 -9.81926 14.6552)
(-1.25826e-14 -9.8362 14.6619)
(-1.23877e-14 -9.87054 14.7266)
(-1.16097e-14 -9.88491 14.8796)
(-1.031e-14 -9.93693 15.0753)
(-8.48188e-15 -9.9357 15.14)
(-6.45213e-15 -9.95067 15.2735)
(-4.64873e-15 -10.0234 15.4078)
(-4.00654e-15 -10.1512 16.3374)
(-1.84728e-15 -10.2884 15.861)
(-3.42343e-16 -10.307 16.0736)
(2.04052e-16 -10.3104 16.2496)
(6.69495e-16 -10.3358 16.492)
(8.28671e-16 -10.3455 16.7824)
(9.22453e-16 -10.3944 17.2269)
(6.20247e-16 -10.3814 17.5547)
(2.96e-17 -10.5068 17.8448)
(-4.11052e-15 -10.157 18.4402)
(-3.17915e-15 -10.3864 18.1806)
(-4.15323e-15 -10.3654 18.8395)
(-5.00428e-15 -10.3851 19.3877)
(-6.55666e-15 -10.3594 19.8308)
(-8.43658e-15 -10.4059 20.3614)
(-1.09548e-14 -10.4447 20.9082)
(-1.41067e-14 -10.4248 21.5157)
(-1.75335e-14 -10.7139 22.3362)
(-2.79104e-14 -9.13219 21.5509)
(-2.45144e-14 -9.78397 21.4858)
(-2.72204e-14 -9.74893 21.7051)
(-2.63134e-14 -9.73733 21.7274)
(-2.38136e-14 -9.77068 21.9721)
(-1.90064e-14 -9.7411 21.7403)
(-1.27614e-14 -9.67956 21.3148)
(-6.13817e-15 -9.61024 20.837)
(-6.02932e-16 -9.70995 20.273)
(7.10063e-15 -7.07508 16.5623)
(7.37956e-15 -8.09288 18.01)
(8.04815e-15 -7.83629 17.3292)
(6.50311e-15 -7.84599 17.0868)
(5.76568e-15 -7.69245 16.7378)
(5.41342e-15 -7.61498 16.4168)
(6.49383e-15 -7.48061 16.1348)
(6.44073e-15 -7.30512 15.3817)
(7.04228e-15 -7.11629 14.5773)
(7.33663e-15 -7.01026 13.5334)
(5.38808e-15 -3.40137 6.96252)
(6.91268e-15 -5.24339 10.0224)
(6.38461e-15 -4.73363 8.37248)
(5.70591e-15 -4.88975 7.76547)
(4.95234e-15 -4.5439 6.68409)
(4.09065e-15 -4.48738 5.47927)
(2.81536e-15 -4.28466 3.28142)
(1.79789e-15 -3.92999 1.21952)
(2.09634e-15 -3.98797 1.35904)
(8.22373e-16 -3.82721 -0.355194)
(1.73379e-15 -3.67606 0.606449)
(1.64836e-15 -3.68466 0.0312021)
(3.15921e-16 -2.92839 -1.10541)
(1.4026e-15 -4.20493 -0.533479)
(1.17633e-15 -3.66273 -0.594351)
(1.02183e-15 -3.27712 -0.347247)
(1.37628e-15 -4.32944 -0.505426)
(8.99959e-16 -3.0434 -0.272854)
(1.32247e-15 -3.97983 -0.382915)
(9.61303e-16 -3.82313 -0.306193)
(6.76206e-16 -3.16938 -0.202513)
(9.74778e-16 -3.87571 -0.305738)
(7.80096e-16 -3.73376 -0.263389)
(6.24498e-16 -3.20923 -0.17478)
(8.34882e-16 -4.31927 -0.263708)
(6.28933e-16 -3.0268 -0.160595)
(9.51304e-16 -3.95751 -0.227024)
(7.46951e-16 -3.62808 -0.230542)
(6.22443e-16 -3.17241 -0.155582)
(8.08746e-16 -4.23958 -0.228513)
(4.8072e-16 -2.95756 -0.133444)
(7.00038e-16 -3.87955 -0.165351)
(5.24847e-16 -3.64715 -0.183519)
(3.99341e-16 -3.03426 -0.113514)
(4.97584e-16 -3.69189 -0.175805)
(2.78072e-16 -3.49096 -0.191135)
(1.2683e-16 -2.99586 -0.129345)
(2.09337e-16 -4.00535 -0.210707)
(1.8544e-16 -2.7892 -0.139475)
(3.44725e-16 -3.63712 -0.205202)
(3.24275e-16 -3.26193 -0.226785)
(3.33923e-16 -2.84964 -0.15926)
(4.89612e-16 -3.78105 -0.246471)
(3.75225e-16 -2.61813 -0.160557)
(5.23139e-16 -3.42342 -0.22991)
(3.68866e-16 -3.15849 -0.250088)
(1.3046e-16 -2.62166 -0.178045)
(1.60671e-16 -3.17215 -0.2798)
(-7.94152e-18 -2.96387 -0.272126)
(-1.1584e-16 -2.53047 -0.193774)
(-1.16518e-16 -3.37697 -0.285777)
(-6.72956e-17 -2.32928 -0.183294)
(-3.4215e-17 -3.04433 -0.257475)
(1.12728e-16 -2.72863 -0.243804)
(2.39944e-16 -2.37862 -0.173688)
(4.7518e-16 -3.183 -0.237648)
(3.38085e-16 -2.19459 -0.134634)
(6.31373e-16 -2.90145 -0.134059)
(5.04814e-16 -2.73419 -0.0965373)
(3.00815e-16 -2.26826 -0.0281643)
(4.60313e-16 -2.79371 0.00151334)
(3.07181e-16 -2.65542 0.00701483)
(1.73186e-16 -2.28135 0.0366793)
(1.10116e-16 -3.09093 0.0471054)
(2.99162e-17 -2.15174 0.0496593)
(-1.72684e-16 -2.84176 0.075481)
(-3.25351e-16 -2.5441 0.00438314)
(-3.47333e-16 -2.22547 0.0105922)
(-4.6867e-16 -2.98257 -0.0279705)
(-3.82263e-16 -2.05485 -0.0189237)
(-4.81117e-16 -2.71415 -0.0299775)
(-3.41323e-16 -2.47799 -0.0766433)
(-2.41822e-16 -2.05704 -0.0382309)
(-2.75807e-16 -2.50984 -0.0725245)
(-1.63977e-16 -2.3121 -0.0925257)
(-4.85449e-18 -1.97004 -0.0601594)
(5.83319e-18 -2.64483 -0.121662)
(6.32509e-17 -1.7963 -0.0900684)
(5.75124e-17 -2.36512 -0.164742)
(-9.01081e-18 -2.04549 -0.225386)
(-6.58133e-17 -1.7557 -0.202328)
(-1.43447e-16 -2.33313 -0.353305)
(-1.49075e-16 -1.53169 -0.276814)
(-2.40841e-16 -2.01894 -0.436205)
(-2.02875e-16 -1.74974 -0.439053)
(-1.28011e-16 -1.38489 -0.367752)
(-2.0784e-16 -1.67275 -0.616705)
(-1.8475e-16 -1.43734 -0.613498)
(-1.50549e-16 -1.12668 -0.510294)
(-2.02969e-16 -1.55357 -0.767488)
(-1.56281e-16 -0.873511 -0.573006)
(-2.41348e-16 -1.06519 -0.911475)
(8.59462e-69 0.0505487 0.0511993)
(8.40763e-68 0.0687035 0.0498408)
(3.02574e-67 0.08133 0.0501175)
(-1.3125e-67 0.0931795 0.0500366)
(-8.41997e-66 0.104997 0.0504819)
(-4.55199e-65 0.116264 0.0509477)
(-2.74654e-65 0.127502 0.0516956)
(1.12359e-63 0.138558 0.0525711)
(6.77799e-63 0.14963 0.0536586)
(2.46089e-63 0.1607 0.0549077)
(-1.88352e-61 0.17186 0.0563462)
(-1.01376e-60 0.183132 0.0579574)
(7.07587e-61 0.19457 0.0597509)
(3.40445e-59 0.206205 0.0617214)
(1.4032e-58 0.218078 0.063873)
(-3.67121e-58 0.230221 0.0662049)
(-5.9022e-57 0.242667 0.0687199)
(-1.62192e-56 0.255448 0.0714196)
(9.95138e-56 0.268596 0.0743071)
(9.23858e-55 0.282141 0.0773854)
(1.33406e-54 0.296112 0.0806586)
(-2.01612e-53 0.310538 0.0841311)
(-1.29651e-52 0.325449 0.0878079)
(-3.74977e-53 0.340873 0.0916945)
(3.41108e-51 0.35684 0.0957973)
(1.72439e-50 0.373378 0.100123)
(-1.12798e-50 0.390516 0.104679)
(-5.38878e-49 0.408284 0.109473)
(-2.36341e-48 0.42671 0.114513)
(3.73681e-48 0.445825 0.119809)
(8.80277e-47 0.465657 0.125369)
(3.23688e-46 0.486238 0.131204)
(-1.05424e-45 0.507597 0.137325)
(-1.45575e-44 0.529765 0.143741)
(-3.54778e-44 0.552772 0.150463)
(2.64159e-43 0.576648 0.157502)
(2.13739e-42 0.60142 0.164869)
(1.55282e-42 0.627116 0.172573)
(-5.15891e-41 0.653759 0.180623)
(-2.44358e-40 0.681368 0.189025)
(3.81676e-40 0.709955 0.197783)
(7.54293e-39 0.739523 0.206897)
(1.88588e-38 0.770062 0.21636)
(-1.08006e-37 0.801544 0.226159)
(-8.23104e-37 0.833918 0.236269)
(-5.89721e-37 0.867104 0.246654)
(1.54455e-35 0.900986 0.257258)
(6.73773e-35 0.935404 0.268006)
(-6.66052e-35 0.970153 0.2788)
(-1.52554e-33 1.00497 0.289511)
(-4.19846e-33 1.03956 0.299981)
(1.19919e-32 1.07357 0.310019)
(1.13484e-31 1.10661 0.319398)
(2.08816e-31 1.13831 0.327857)
(-1.00911e-30 1.16828 0.335096)
(-6.6335e-30 1.19616 0.340768)
(-9.34374e-30 1.2216 0.344463)
(5.47323e-29 1.24423 0.345686)
(3.08486e-28 1.26357 0.343803)
(4.34488e-28 1.2789 0.337996)
(-1.88529e-27 1.28911 0.327146)
(-1.09759e-26 1.29234 0.309814)
(-1.97478e-26 1.28593 0.283998)
(2.90296e-26 1.26527 0.247435)
(2.57535e-25 1.22471 0.197115)
(6.55325e-25 1.15448 0.131007)
(4.9158e-25 1.04541 0.0462517)
(-2.23272e-24 0.875204 -0.0529083)
(-1.0053e-23 0.631344 -0.165067)
(-1.58468e-23 0.19841 -0.279578)
(-3.24615e-23 -0.43097 -0.358898)
(5.73577e-23 -0.888242 -0.346069)
(-2.14521e-22 -1.29967 -0.365514)
(9.51327e-22 -1.79865 -0.286672)
(-3.78259e-21 -2.10841 -0.357297)
(3.42057e-20 -2.71025 -0.172198)
(-4.44078e-19 -2.64135 -0.489606)
(8.54543e-18 -3.67939 -0.035216)
(-2.73762e-17 -4.08526 -1.02115)
(1.52425e-68 0.0508253 0.058261)
(3.69576e-67 0.0689161 0.0563656)
(1.85394e-66 0.0813234 0.056603)
(2.71678e-66 0.0931369 0.0564106)
(-3.0249e-65 0.104863 0.0568684)
(-2.47057e-64 0.116077 0.0573479)
(-5.72778e-64 0.127247 0.0581607)
(3.75206e-63 0.138247 0.0591175)
(3.6391e-62 0.149257 0.0603169)
(8.04828e-62 0.160269 0.0616973)
(-6.64472e-61 0.17137 0.0632906)
(-5.72459e-60 0.182584 0.0650761)
(-8.13511e-60 0.193964 0.0670645)
(1.33305e-58 0.205541 0.069249)
(8.79237e-58 0.217355 0.0716339)
(1.16278e-58 0.229439 0.0742178)
(-2.57681e-56 0.241826 0.0770035)
(-1.21686e-55 0.254547 0.0799925)
(2.0508e-55 0.267634 0.0831879)
(4.47192e-54 0.281116 0.0865928)
(1.41974e-53 0.295023 0.0902113)
(-6.36296e-53 0.309384 0.094048)
(-6.84283e-52 0.324228 0.0981081)
(-1.30128e-51 0.339584 0.102398)
(1.2967e-50 0.35548 0.106923)
(9.42126e-50 0.371945 0.111691)
(7.78988e-50 0.389008 0.11671)
(-2.18835e-48 0.406698 0.121987)
(-1.22165e-47 0.425043 0.127532)
(2.5059e-48 0.444074 0.133354)
(3.42882e-46 0.46382 0.139463)
(1.51575e-45 0.484311 0.145869)
(-2.38782e-45 0.505577 0.152583)
(-5.18123e-44 0.527649 0.159615)
(-1.64217e-43 0.550556 0.166977)
(6.71956e-43 0.574328 0.174679)
(7.12295e-42 0.598994 0.182731)
(1.17496e-41 0.62458 0.191142)
(-1.32983e-40 0.651112 0.199919)
(-8.03222e-40 0.678608 0.209068)
(1.69671e-40 0.707081 0.218588)
(1.94241e-38 0.736537 0.228476)
(6.61714e-38 0.766968 0.238718)
(-1.95506e-37 0.798348 0.249293)
(-2.10341e-36 0.83063 0.260165)
(-3.17235e-36 0.86374 0.271284)
(3.16249e-35 0.897567 0.282577)
(1.69074e-34 0.93196 0.293949)
(-2.61797e-35 0.966721 0.305277)
(-3.16236e-33 1.0016 0.316408)
(-1.01647e-32 1.0363 0.327158)
(1.90392e-32 1.07049 0.337309)
(2.27947e-31 1.1038 0.346616)
(4.73329e-31 1.13584 0.354803)
(-1.76526e-30 1.16627 0.361559)
(-1.26026e-29 1.19472 0.366535)
(-1.89534e-29 1.22089 0.369312)
(9.55698e-29 1.24441 0.369375)
(5.48724e-28 1.26489 0.366042)
(7.69644e-28 1.28166 0.358415)
(-3.20943e-27 1.29374 0.345223)
(-1.83046e-26 1.29939 0.324823)
(-3.16245e-26 1.29609 0.294887)
(4.92927e-26 1.27941 0.252831)
(4.06053e-25 1.24365 0.195213)
(9.85272e-25 1.17902 0.119957)
(6.50305e-25 1.07537 0.0238378)
(-3.44683e-24 0.909949 -0.0874625)
(-1.46576e-23 0.66799 -0.21413)
(-2.3422e-23 0.234676 -0.343471)
(-3.51203e-23 -0.444101 -0.417335)
(5.56145e-23 -0.913315 -0.379549)
(-2.13759e-22 -1.33167 -0.386582)
(9.49752e-22 -1.8258 -0.300909)
(-3.8328e-21 -2.1472 -0.365947)
(3.52962e-20 -2.71854 -0.177241)
(-4.6042e-19 -2.68147 -0.486163)
(8.5902e-18 -3.63002 -0.0355899)
(-2.5868e-17 -4.0015 -1.00162)
(-3.49849e-68 0.0509951 0.0620558)
(1.16665e-66 0.0690455 0.059952)
(7.75541e-66 0.0813241 0.0601662)
(2.04654e-65 0.0931138 0.059916)
(-7.10327e-65 0.104788 0.0603817)
(-9.44943e-64 0.115973 0.0608707)
(-3.4015e-63 0.127106 0.0617205)
(7.59744e-63 0.138074 0.0627239)
(1.37099e-61 0.149051 0.0639862)
(4.93927e-61 0.160032 0.0654403)
(-1.50986e-60 0.171101 0.0671201)
(-2.21987e-59 0.182284 0.0690027)
(-6.37309e-59 0.193632 0.0710993)
(3.5826e-58 0.205178 0.0734024)
(3.61215e-57 0.216961 0.0759163)
(6.19112e-57 0.229013 0.0786393)
(-7.89307e-56 0.241368 0.0815743)
(-5.43764e-55 0.254058 0.0847226)
(-1.46916e-55 0.267112 0.0880873)
(1.51127e-53 0.280561 0.0916716)
(7.14999e-53 0.294434 0.0954797)
(-1.11399e-52 0.308761 0.0995161)
(-2.48874e-51 0.32357 0.103786)
(-7.86207e-51 0.338889 0.108296)
(3.3232e-50 0.354748 0.113053)
(3.56923e-49 0.371175 0.118063)
(6.83638e-49 0.388198 0.123334)
(-6.37321e-48 0.405847 0.128876)
(-4.58313e-47 0.42415 0.134696)
(-3.71874e-47 0.443137 0.140805)
(1.01191e-45 0.462837 0.147213)
(5.38592e-45 0.483281 0.15393)
(-2.14863e-45 0.504499 0.160966)
(-1.44662e-43 0.526521 0.168334)
(-5.62637e-43 0.549376 0.176043)
(1.20594e-42 0.573095 0.184105)
(1.86039e-41 0.597707 0.192528)
(4.5827e-41 0.623238 0.201323)
(-2.55897e-40 0.649714 0.210495)
(-2.02387e-39 0.677154 0.220047)
(-1.80328e-39 0.705572 0.229979)
(3.74886e-38 0.734975 0.240283)
(1.70454e-37 0.765357 0.250944)
(-1.83136e-37 0.796693 0.261933)
(-4.01986e-36 0.82894 0.273211)
(-9.75535e-36 0.862025 0.284716)
(4.37166e-35 0.895843 0.296369)
(3.1789e-34 0.930246 0.308062)
(2.41065e-34 0.965039 0.319658)
(-4.65358e-33 0.999981 0.330992)
(-1.8616e-32 1.03478 0.341865)
(1.53168e-32 1.0691 0.35205)
(3.32797e-31 1.10257 0.361292)
(8.26553e-31 1.13483 0.369311)
(-2.06441e-30 1.16552 0.375797)
(-1.77126e-29 1.19429 0.380401)
(-3.01945e-29 1.22084 0.382704)
(1.19209e-28 1.24485 0.382182)
(7.33555e-28 1.26592 0.37813)
(1.06972e-27 1.28347 0.369601)
(-4.05279e-27 1.29656 0.355238)
(-2.33305e-26 1.30356 0.333284)
(-3.93421e-26 1.30201 0.301221)
(6.42369e-26 1.28756 0.256273)
(5.00842e-25 1.25448 0.194756)
(1.16348e-24 1.19292 0.114542)
(6.37279e-25 1.09208 0.0121326)
(-4.36835e-24 0.929021 -0.106102)
(-1.75292e-23 0.68711 -0.242099)
(-2.77744e-23 0.250678 -0.375476)
(-4.17098e-23 -0.428963 -0.492826)
(5.15167e-23 -0.906217 -0.438941)
(-2.12351e-22 -1.32837 -0.422617)
(9.47138e-22 -1.81659 -0.324275)
(-3.90328e-21 -2.14791 -0.37942)
(3.67466e-20 -2.69519 -0.185071)
(-4.80156e-19 -2.68472 -0.480576)
(8.6462e-18 -3.5656 -0.0302774)
(-2.42163e-17 -3.92365 -0.987947)
(-4.82889e-67 0.0512668 0.066409)
(3.05231e-66 0.0692483 0.0641191)
(2.92387e-65 0.0813409 0.0643189)
(1.09039e-64 0.0930902 0.0640193)
(-7.4504e-65 0.104686 0.0645004)
(-3.25423e-63 0.115824 0.0650083)
(-1.6267e-62 0.1269 0.0659063)
(9.2728e-64 0.13782 0.0669692)
(4.64199e-61 0.148746 0.0683095)
(2.38622e-60 0.15968 0.0698544)
(-1.41183e-60 0.170701 0.0716394)
(-7.74248e-59 0.181837 0.0736399)
(-3.37125e-58 0.193138 0.0758674)
(6.8428e-58 0.204637 0.0783135)
(1.32913e-56 0.216373 0.0809827)
(4.17351e-56 0.228377 0.0838731)
(-2.00962e-55 0.240685 0.0869874)
(-2.14174e-54 0.253325 0.0903269)
(-3.79323e-54 0.266331 0.0938947)
(4.48169e-53 0.27973 0.0976941)
(3.06142e-52 0.293552 0.101729)
(8.26776e-53 0.307827 0.106005)
(-8.12698e-51 0.322583 0.110527)
(-3.74511e-50 0.337848 0.115301)
(5.7326e-50 0.35365 0.120334)
(1.23869e-48 0.370019 0.125634)
(3.80261e-48 0.386982 0.131208)
(-1.56363e-47 0.404569 0.137066)
(-1.6296e-46 0.422809 0.143217)
(-3.00991e-46 0.44173 0.14967)
(2.74582e-45 0.461362 0.156436)
(1.89085e-44 0.481735 0.163525)
(1.33072e-44 0.50288 0.170949)
(-3.93145e-43 0.524826 0.178719)
(-1.93235e-42 0.547603 0.186846)
(1.18878e-42 0.571242 0.19534)
(4.85494e-41 0.595772 0.204211)
(1.64925e-40 0.621219 0.213467)
(-4.19709e-40 0.647609 0.223114)
(-5.09243e-39 0.674964 0.233153)
(-1.00883e-38 0.703298 0.243583)
(6.63191e-38 0.732619 0.254392)
(4.29642e-37 0.762923 0.265561)
(2.09394e-37 0.79419 0.277057)
(-7.17989e-36 0.826379 0.288832)
(-2.6935e-35 0.859422 0.300818)
(3.7981e-35 0.893219 0.312922)
(5.62256e-34 0.927628 0.325023)
(1.08561e-33 0.962462 0.336971)
(-5.47977e-33 0.997485 0.348583)
(-3.21613e-32 1.03241 0.359644)
(-1.31814e-32 1.06691 0.369913)
(4.13443e-31 1.10063 0.379124)
(1.36122e-30 1.1332 0.386989)
(-1.53033e-30 1.16427 0.393197)
(-2.1738e-29 1.19351 0.397401)
(-4.49505e-29 1.22063 0.399181)
(1.22017e-28 1.24535 0.398007)
(8.70771e-28 1.26732 0.39315)
(1.34685e-27 1.28602 0.383618)
(-4.61574e-27 1.30062 0.367963)
(-2.69426e-26 1.3096 0.344301)
(-4.32414e-26 1.31063 0.309898)
(8.3262e-26 1.29948 0.261741)
(5.79932e-25 1.27037 0.195836)
(1.24539e-24 1.21338 0.109899)
(3.64523e-25 1.11688 8.75032e-05)
(-5.64469e-24 0.957815 -0.126674)
(-2.04112e-23 0.716705 -0.274248)
(-3.11873e-23 0.282977 -0.418173)
(-5.15994e-23 -0.419645 -0.566131)
(4.50824e-23 -0.913485 -0.519611)
(-2.10073e-22 -1.33886 -0.476061)
(9.43312e-22 -1.82021 -0.35702)
(-3.99129e-21 -2.15869 -0.398515)
(3.83968e-20 -2.685 -0.195746)
(-5.00355e-19 -2.69679 -0.47498)
(8.69944e-18 -3.51868 -0.0247199)
(-2.24895e-17 -3.8739 -0.923636)
(-2.96195e-66 0.0515245 0.070503)
(5.24319e-66 0.0694382 0.068099)
(9.90611e-65 0.0813615 0.0682903)
(4.88863e-64 0.0930689 0.0679553)
(4.6554e-64 0.104591 0.0684555)
(-9.90207e-63 0.115683 0.0689871)
(-6.78248e-62 0.126706 0.0699348)
(-9.78879e-62 0.137581 0.0710588)
(1.38383e-60 0.14846 0.0724773)
(9.97756e-60 0.15935 0.0741126)
(1.05142e-59 0.170326 0.0760018)
(-2.40102e-58 0.181418 0.0781185)
(-1.4836e-57 0.192675 0.0804745)
(-2.0548e-59 0.20413 0.0830609)
(4.38334e-56 0.215822 0.0858821)
(2.0491e-55 0.227783 0.0889359)
(-3.4626e-55 0.240046 0.0922251)
(-7.5531e-54 0.252642 0.0957508)
(-2.38841e-53 0.265602 0.0995164)
(1.10098e-52 0.278955 0.103525)
(1.15923e-51 0.292731 0.107781)
(1.97962e-51 0.306958 0.112289)
(-2.3309e-50 0.321664 0.117056)
(-1.53513e-49 0.336879 0.122086)
(-3.30815e-50 0.35263 0.127388)
(3.87908e-48 0.368945 0.132969)
(1.71723e-47 0.385854 0.138837)
(-2.62161e-47 0.403384 0.145002)
(-5.3583e-46 0.421565 0.151473)
(-1.58107e-45 0.440426 0.158259)
(6.32834e-45 0.459996 0.165372)
(6.32184e-44 0.480305 0.172823)
(1.11426e-43 0.501383 0.180623)
(-9.855e-43 0.52326 0.188783)
(-6.44701e-42 0.545966 0.197314)
(-4.09615e-42 0.569533 0.206227)
(1.22116e-40 0.593988 0.215531)
(5.60212e-40 0.619359 0.225234)
(-3.58976e-40 0.645674 0.235342)
(-1.25363e-38 0.672952 0.245854)
(-3.92769e-38 0.701213 0.256766)
(9.42406e-38 0.730463 0.268065)
(1.04887e-36 0.760702 0.279728)
(1.95974e-36 0.791912 0.291717)
(-1.11751e-35 0.824057 0.303977)
(-6.84534e-35 0.857073 0.316431)
(-4.36154e-35 0.890864 0.328976)
(8.85447e-34 0.925296 0.341479)
(3.2674e-33 0.960187 0.353773)
(-2.57537e-33 0.995306 0.365662)
(-4.94558e-32 1.03037 0.376914)
(-1.00624e-31 1.06507 0.387274)
(3.27388e-31 1.09903 0.396466)
(1.96055e-30 1.13191 0.404197)
(1.03803e-30 1.16334 0.410155)
(-1.90667e-29 1.19302 0.413998)
(-5.57668e-29 1.22067 0.415308)
(7.41606e-29 1.24604 0.413555)
(7.85252e-28 1.26883 0.40799)
(1.26628e-27 1.28859 0.397582)
(-4.55024e-27 1.30458 0.380805)
(-2.5308e-26 1.31541 0.355651)
(-3.31771e-26 1.31888 0.319182)
(1.13439e-25 1.31088 0.268136)
(6.02681e-25 1.28556 0.198204)
(1.05996e-24 1.23292 0.106877)
(-5.04965e-25 1.14056 -0.0100547)
(-7.5361e-24 0.985364 -0.145343)
(-2.26932e-23 0.744995 -0.304937)
(-3.13636e-23 0.313678 -0.459852)
(-6.32388e-23 -0.408807 -0.635489)
(3.70976e-23 -0.92579 -0.615466)
(-2.06346e-22 -1.35964 -0.549965)
(9.37526e-22 -1.83334 -0.401514)
(-4.09777e-21 -2.17788 -0.424034)
(4.02057e-20 -2.68203 -0.209954)
(-5.20059e-19 -2.71661 -0.469624)
(8.74773e-18 -3.47648 -0.0171861)
(-2.1e-17 -3.82813 -0.900827)
(-1.4165e-65 0.0518113 0.0745357)
(-4.76621e-66 0.0696448 0.0720607)
(2.96736e-64 0.0813892 0.0722504)
(1.94052e-63 0.0930471 0.0718935)
(4.22984e-63 0.104487 0.0724174)
(-2.53746e-62 0.115528 0.0729789)
(-2.53632e-61 0.126491 0.0739804)
(-6.85607e-61 0.137316 0.0751699)
(3.44515e-60 0.148142 0.0766702)
(3.73116e-59 0.158982 0.0783997)
(8.96987e-59 0.169908 0.0803966)
(-6.40975e-58 0.180951 0.082633)
(-5.75509e-57 0.19216 0.085121)
(-8.74921e-57 0.203566 0.0878511)
(1.2795e-55 0.21521 0.0908277)
(8.51748e-55 0.227122 0.0940483)
(1.73218e-55 0.239336 0.0975159)
(-2.38961e-53 0.251882 0.101231)
(-1.11915e-52 0.264792 0.105198)
(1.83379e-52 0.278094 0.10942)
(3.9418e-51 0.291818 0.1139)
(1.20192e-50 0.305991 0.118645)
(-5.5759e-50 0.320644 0.12366)
(-5.59678e-49 0.335803 0.128951)
(-8.94844e-49 0.351496 0.134526)
(1.07365e-47 0.367753 0.140392)
(6.74231e-47 0.384601 0.146559)
(1.1057e-47 0.402069 0.153035)
(-1.60269e-45 0.420185 0.15983)
(-6.80482e-45 0.438979 0.166955)
(1.0031e-44 0.45848 0.174421)
(1.96894e-43 0.478718 0.182239)
(5.62359e-43 0.499722 0.190419)
(-2.10303e-42 0.521523 0.198975)
(-2.04201e-41 0.544152 0.207917)
(-3.5597e-41 0.567638 0.217255)
(2.82221e-40 0.592011 0.227)
(1.7979e-39 0.6173 0.237158)
(1.30103e-39 0.64353 0.247733)
(-2.93367e-38 0.670726 0.258726)
(-1.32426e-37 0.698905 0.27013)
(4.31311e-38 0.728078 0.281929)
(2.44473e-36 0.758246 0.294097)
(7.8807e-36 0.789395 0.30659)
(-1.19511e-35 0.821493 0.319348)
(-1.61388e-34 0.854481 0.332284)
(-3.60116e-34 0.88827 0.345286)
(1.07979e-33 0.92273 0.358207)