/*--------------------------------*- C++ -*----------------------------------*\
| =========                 |                                                 |
| \\      /  F ield         | OpenFOAM: The Open Source CFD Toolbox           |
|  \\    /   O peration     | Version:  4.1                                   |
|   \\  /    A nd           | Web:      www.OpenFOAM.org                      |
|    \\/     M anipulation  |                                                 |
\*---------------------------------------------------------------------------*/
FoamFile
{
    version     2.0;
    format      ascii;
    class       surfaceScalarField;
    location    "12";
    object      phi;
}
// * * * * * * * * * * * * * * * * * * * * * * * * * * * * * * * * * * * * * //

dimensions      [0 3 -1 0 0 0 0];

internalField   nonuniform List<scalar> 
13220
(
-814.558
2114.46
-1260.59
1746.24
-1707.83
1747.14
-2033.48
1625.55
-2289.81
1556.53
-2465.85
1475.94
-2567.04
1401.09
-2594.21
1327.37
-2553.48
1259.17
-2448.19
1194.62
-2277.5
1129.5
-2029.9
1052.31
-1655.29
925.283
-1037.68
682.595
262.218
-106.51
2220.97
-270.719
1910.45
-475.053
1951.47
-627.23
1777.73
-772.747
1702.05
-881.643
1584.84
-965.822
1485.27
-1019.48
1381.03
-1035.73
1275.41
-995.681
1154.57
-886.116
1019.94
-724.134
890.325
-540.955
742.105
-297.009
438.651
-34.7907
-162.216
2383.19
-378.495
2126.73
-553.485
2126.47
-681.835
1906.08
-802.791
1823
-892.395
1674.44
-972.661
1565.54
-1034.42
1442.78
-1051.51
1292.5
-956.874
1059.94
-691.23
754.299
-289.555
488.652
91.1086
361.447
256.24
273.529
221.449
-61.7514
2444.94
-185.263
2250.24
-276.638
2217.84
-355.71
1985.15
-443.16
1910.46
-517.97
1749.25
-600.879
1648.45
-682.687
1524.59
-765.309
1375.13
-817.043
1111.67
-778.191
715.447
-599.069
309.532
-318.637
81.0186
-76.3307
31.2285
145.119
65.9614
2378.98
-34.5156
2350.72
-63.7433
2247.07
-85.0834
2006.49
-104.709
1930.08
-115.202
1759.75
-121.93
1655.18
-123.283
1525.95
-139.227
1391.07
-211.533
1183.98
-365.498
869.413
-545.706
489.747
-615.468
150.786
-492.514
-91.7201
-347.395
194.762
2184.22
148.593
2396.89
180.178
2215.49
229.434
1957.24
294.37
1865.15
361.59
1692.53
445.036
1571.73
536.749
1434.24
626.907
1300.91
665.27
1145.62
586.518
948.166
371.161
705.101
106.574
415.369
-44.5768
59.4257
-391.971
204.615
1979.6
212.455
2389.05
254.518
2173.43
313.862
1897.9
390.848
1788.16
461.491
1621.89
540.845
1492.38
622.635
1352.45
703.323
1220.23
762.514
1086.43
768.525
942.155
691.525
782.107
525.094
581.807
254.795
329.737
-137.177
136.472
1843.13
179.198
2346.32
222.186
2130.44
273.495
1846.59
337.851
1723.81
393.964
1565.77
446.683
1439.66
491.743
1307.39
530.103
1181.87
556.329
1060.2
559.875
938.609
522.492
819.484
420.366
683.927
238.129
511.961
100.952
58.694
1784.44
131.391
2273.63
195.184
2066.65
261.311
1780.46
329.517
1655.6
397.166
1498.12
460.626
1376.2
521.287
1246.73
577.664
1125.49
624.045
1013.82
641.42
921.234
604.726
856.183
484.667
803.991
274.747
721.891
375.699
-39.8295
1824.27
46.7768
2187.02
122.968
1990.45
169.726
1733.7
220.211
1605.11
297.199
1421.14
410.056
1263.34
555.958
1100.82
706.332
975.117
827.662
892.49
871.92
876.977
802.683
925.414
609.503
997.166
333.784
997.601
709.483
-114.05
1938.32
-140.327
2213.29
-128.846
1978.97
-176.317
1781.17
-223.158
1651.95
-230.67
1428.65
-173.402
1206.07
-64.6598
992.078
76.5558
833.898
232.48
736.564
368.017
741.435
428.741
864.691
366.575
1059.33
200.762
1163.41
910.244
53.8322
1884.48
-136.992
2404.12
-334.294
2176.27
-523.562
1970.44
-712.549
1840.94
-902.377
1618.47
-1065.79
1369.49
-1194.51
1120.8
-1268.62
908.006
-1251.77
719.71
-1104.71
594.367
-818.438
578.418
-453.069
693.957
-148.944
859.282
761.3
503.473
1381.01
562.497
2345.09
340.375
2398.39
137.319
2173.49
-12.9079
1991.16
-191.99
1797.55
-411.318
1588.81
-654.844
1364.32
-896.519
1149.68
-1107.05
930.237
-1227.26
714.579
-1171.95
523.108
-878.339
400.347
-397.878
378.82
363.422
741.051
639.955
1096.14
1990
1019.92
2474.61
805.132
2388.28
646.056
2150.24
532.579
1911.03
426.472
1694.92
301.489
1489.3
158.409
1292.76
-11.8962
1100.54
-199.724
902.406
-370.429
693.809
-452.951
482.866
-344.598
270.464
18.8237
374.049
1264.38
2047.77
2647.35
2973.27
3105.81
3117.06
3026.95
2822.1
2551.43
2197.73
1745.23
1212.57
604.415
6.16689e-06
-238.997
238.997
-238.997
-238.997
-238.997
279.564
-518.561
279.564
279.564
279.564
690.071
-410.507
690.071
690.071
1001.79
-311.714
1001.79
1001.79
1001.79
1222.93
-221.146
1222.93
1222.93
1365.42
-142.488
1365.42
1365.42
1365.42
1432.05
-66.6261
1432.05
1432.05
1432.05
1425.55
6.49102
1425.55
1425.55
1363.7
61.8575
1363.7
1363.7
1363.7
1243.34
120.353
1243.34
1243.34
1086.01
157.335
1086.01
1086.01
1086.01
942.394
143.615
942.394
942.394
942.394
928.683
13.7114
928.683
928.683
868.657
60.0257
868.657
868.657
868.657
715.858
152.799
715.858
715.858
715.858
460.442
255.416
460.442
460.442
177.145
283.298
177.145
177.145
177.145
-233.354
410.499
-233.354
-233.354
-1205.97
972.613
-1205.97
-1205.97
-1205.97
-2658.55
1452.58
-2658.55
-2658.55
-2658.55
-4550.28
1891.73
-4550.28
-4550.28
-6786.58
2236.3
-6786.58
-6786.58
-6668.59
-6552.8
-6436.44
-8804.77
2479.84
-8681.7
-8531.97
-8366.88
-8201.7
-8035.98
-7871.01
-7699.55
-7511.17
-9924.83
2595.94
-9728.48
-9532.64
-9337.71
-9123.07
-8907.8
-8692.24
-8476.44
-8259.62
-10652
2613.15
-10416.4
-10180
-9942.64
-9704.62
-9460.13
-9203.76
-8946.34
-8686.06
-8423.71
-10759.7
2588.34
-10481.6
-10201.3
-9919.96
-9638.4
-9356.86
-9061.59
-8758.53
-8455.97
-10451.8
2284.76
-10159.7
-9860.27
-9546.11
-9231.63
-8915.79
-8599.35
-8280.46
-7935.26
-9447.4
1846.11
-9115.87
-8786.2
-8458.29
-8112.47
-7761.65
-7416.38
-7074.9
-6740.13
-7395.39
993.13
-7056.08
-6722.36
-6389.75
-6058.55
-5728.89
-5403.6
-5081.11
-4761.49
-4450.07
-4414.77
280.097
-4162.27
-3941.82
-3729.46
-3527.25
-3334.36
-3192.15
-3146.04
-3099.47
-2726.26
-318.514
-2682.59
-2638.61
-2638.61
-2410.75
-227.856
-2206.53
-204.22
-2206.53
-2034.26
-172.267
-2034.26
-1891.71
-142.555
-1775.92
-115.786
-1775.92
-1675.01
-100.913
-1592.57
-82.4354
-1592.57
-1519.26
-73.3133
-1519.26
-1458.14
-61.116
-1406.7
-51.4402
-1406.7
-1358.74
-47.9628
-1358.74
-1317.66
-41.0831
-1279.9
-37.7578
-1279.9
-1244.44
-35.4604
-1211.78
-32.6545
-1211.78
-1179.25
-32.5346
-1179.25
-1149.77
-29.4768
-1121.47
-28.3005
-1121.47
-1092.41
-29.0653
-1092.41
-1065.68
-26.7295
-1038.15
-27.5284
-1038.15
-1010.55
-27.5989
-982.865
-27.6846
-982.865
-953.883
-28.9824
-953.883
-925.892
-27.9907
-896.956
-28.9359
-896.956
-866.165
-30.7918
-866.165
-835.606
-30.5586
-802.68
-32.9258
-802.68
-767.831
-34.8493
-731.713
-36.1183
-731.713
-693.033
-38.6798
-693.033
-652.96
-40.0731
-611.349
-41.6105
-611.349
-566.449
-44.9008
-566.449
-519.066
-47.3825
-469.608
-49.4578
-469.608
-415.474
-54.1344
-361.121
-54.3532
-361.121
-303.725
-57.3953
-303.725
-242.883
-60.8426
-182.27
-60.613
-182.27
-119.316
-62.9532
-119.316
-50.9869
-68.3295
24.6799
-75.6668
24.6799
90.9166
-66.2367
189.457
-98.5401
189.457
290.833
-101.377
290.833
-88.0749
-83.7786
-362.778
-83.9546
-425.475
-84.5335
-462.087
-85.266
-499.295
-86.2407
-534.529
-87.3843
-567.778
-88.7171
-599.804
-90.2146
-630.455
-91.8775
-660.027
-93.6944
-688.532
-95.6612
-716.086
-97.7711
-742.738
-100.02
-768.559
-102.404
-793.615
-104.921
-817.985
-107.569
-841.759
-110.348
-865.036
-113.257
-887.918
-116.298
-910.506
-119.469
-932.888
-122.771
-955.136
-126.204
-977.306
-129.768
-999.453
-133.469
-1021.66
-137.315
-1044.04
-141.318
-1066.81
-145.49
-1090.21
-149.842
-1114.53
-154.378
-1139.98
-159.094
-1166.64
-163.973
-1194.45
-168.988
-1223.2
-174.099
-1252.54
-179.261
-1282
-184.422
-1311.02
-189.542
-1338.96
-194.609
-1365.21
-199.669
-1389.27
-204.875
-1410.79
-210.538
-1429.63
-217.176
-1445.76
-225.526
-1459.06
-236.467
-1469.07
-250.806
-1474.93
-268.938
-1475.76
-290.468
-1471.09
-314.007
-1460.95
-337.26
-1445.5
-357.373
-1424
-371.428
-1393.36
-377.299
-1348.44
-374.4
-1289.64
-356.414
-1219.5
-290.426
-1030.76
-169.225
-357.882
-89.0594
632.504
-53.2657
1161.99
-19.1116
1532.55
9.40624
1883.89
30.0975
2212.16
44.0446
2520.97
50.4699
2793.78
53.6207
3068.09
54.9075
3306.54
54.8728
3485.41
54.5573
3599.52
54.2347
3635.03
54.0626
3592.32
53.4339
3459.83
52.8933
3272.88
50.6607
2982.22
48.8966
2701.2
43.9817
2273.53
43.6539
2160.94
38.375
1558.63
42.6763
2043.9
49.9469
1297.04
57.4971
1869.44
3933.52
-88.9237
-363.116
-88.9644
-425.434
-89.4961
-461.555
-90.1985
-498.593
-91.172
-533.556
-92.3281
-566.622
-93.6874
-598.445
-95.2206
-628.922
-96.9277
-658.32
-98.7954
-686.664
-100.819
-714.063
-102.992
-740.565
-105.31
-766.241
-107.77
-791.155
-110.37
-815.385
-113.111
-839.019
-115.991
-862.155
-119.012
-884.897
-122.174
-907.345
-125.475
-929.587
-128.914
-951.696
-132.493
-973.727
-136.212
-995.733
-140.081
-1017.79
-144.112
-1040.01
-148.319
-1062.6
-152.719
-1085.81
-157.321
-1109.93
-162.122
-1135.18
-167.11
-1161.66
-172.259
-1189.3
-177.531
-1217.93
-182.878
-1247.19
-188.246
-1276.63
-193.588
-1305.67
-198.877
-1333.67
-204.148
-1359.94
-209.548
-1383.87
-215.41
-1404.93
-222.326
-1422.71
-231.194
-1436.89
-243.156
-1447.1
-259.365
-1452.86
-280.558
-1453.74
-306.531
-1449.79
-335.792
-1441.83
-365.645
-1431.1
-392.705
-1418.44
-413.572
-1403.14
-425.358
-1381.57
-426.336
-1347.46
-417.015
-1298.97
-394.735
-1241.78
-326.555
-1098.93
-173.419
-511.018
-75.7793
534.865
-48.8745
1135.09
-16.3486
1500.03
10.9393
1856.6
30.7913
2192.31
44.1518
2507.61
50.0255
2787.91
52.7012
3065.41
53.6894
3305.56
53.3904
3485.71
53.024
3599.89
52.72
3635.33
52.6673
3592.37
52.2353
3460.26
51.9238
3273.2
49.9352
2984.21
48.4127
2702.72
43.6758
2278.27
43.46
2161.16
38.099
1563.99
42.3338
2039.66
49.1736
1290.2
56.8706
1861.75
3889.02
-91.706
-363.533
-91.6982
-425.442
-92.2017
-461.052
-92.8924
-497.902
-93.8664
-532.582
-95.0315
-565.457
-96.4068
-597.069
-97.9613
-627.367
-99.694
-656.587
-101.591
-684.767
-103.648
-712.006
-105.857
-738.356
-108.216
-763.882
-110.72
-788.65
-113.37
-812.735
-116.165
-836.224
-119.106
-859.214
-122.193
-881.81
-125.425
-904.112
-128.801
-926.211
-132.321
-948.177
-135.984
-970.064
-139.793
-991.923
-143.76
-1013.82
-147.898
-1035.87
-152.226
-1058.27
-156.761
-1081.28
-161.508
-1105.19
-166.463
-1130.23
-171.606
-1156.51
-176.907
-1184
-182.323
-1212.51
-187.803
-1241.71
-193.291
-1271.14
-198.747
-1300.22
-204.173
-1328.24
-209.666
-1354.45
-215.492
-1378.04
-222.184
-1398.24
-230.614
-1414.29
-241.988
-1425.52
-257.661
-1431.43
-278.723
-1431.8
-305.408
-1427.05
-336.604
-1418.59
-369.778
-1408.65
-401.464
-1399.41
-428.058
-1391.84
-446.479
-1384.72
-454.433
-1373.62
-450.686
-1351.21
-436.212
-1313.44
-411.339
-1266.65
-348.916
-1161.36
-185.382
-674.552
-61.3285
410.811
-38.8671
1112.63
-12.4494
1473.61
13.9491
1830.2
32.4082
2173.85
44.817
2495.2
49.7618
2782.97
51.5941
3063.58
52.0019
3305.15
51.2792
3486.43
50.7303
3600.44
50.4336
3635.63
50.5292
3592.28
50.3699
3460.42
50.3989
3273.17
48.7762
2985.84
47.606
2703.89
43.1681
2282.71
43.0368
2161.29
37.8187
1569.21
41.5807
2035.9
48.4192
1283.36
55.108
1855.06
3845.58
-95.0147
-364.024
-94.962
-425.495
-95.4419
-460.572
-96.1249
-497.219
-97.1048
-531.602
-98.2854
-564.276
-99.6841
-595.671
-101.268
-625.783
-103.036
-654.82
-104.972
-682.831
-107.072
-709.906
-109.328
-736.099
-111.738
-761.473
-114.298
-786.089
-117.01
-810.023
-119.872
-833.361
-122.887
-856.2
-126.053
-878.643
-129.372
-900.794
-132.841
-922.742
-136.458
-944.56
-140.223
-966.299
-144.142
-988.004
-148.226
-1009.74
-152.494
-1031.61
-156.966
-1053.8
-161.662
-1076.58
-166.584
-1100.26
-171.724
-1125.09
-177.058
-1151.18
-182.549
-1178.51
-188.149
-1206.91
-193.801
-1236.06
-199.453
-1265.49
-205.081
-1294.59
-210.735
-1322.59
-216.615
-1348.57
-223.176
-1371.48
-231.237
-1390.18
-242.031
-1403.49
-257.096
-1410.46
-277.886
-1410.64
-305.144
-1404.54
-338.235
-1393.96
-374.862
-1381.97
-411.436
-1372.08
-443.969
-1366.88
-468.983
-1366.83
-483.966
-1369.73
-487.308
-1370.28
-478.249
-1360.27
-458.062
-1333.63
-429.155
-1295.56
-371.071
-1219.44
-208.828
-836.795
-50.913
252.896
-23.6245
1085.34
-6.87403
1456.86
18.1901
1805.14
35.1059
2156.93
46.0982
2484.21
49.7482
2779.32
50.3685
3062.96
49.9219
3305.59
48.5945
3487.76
47.7507
3601.28
47.4286
3635.95
47.6902
3592.01
47.866
3460.24
48.3237
3272.71
47.1812
2986.98
46.4724
2704.6
42.4459
2286.73
42.4863
2161.25
37.4533
1574.25
40.8472
2032.51
47.1081
1277.1
52.3447
1849.82
3831.69
-98.1985
-364.566
-98.1188
-425.574
-98.5813
-460.109
-99.2629
-496.538
-100.253
-530.612
-101.452
-563.076
-102.877
-594.246
-104.493
-624.167
-106.298
-653.016
-108.275
-680.854
-110.42
-707.761
-112.725
-733.794
-115.187
-759.01
-117.805
-783.471
-120.579
-807.249
-123.51
-830.43
-126.6
-853.11
-129.848
-875.395
-133.254
-897.388
-136.816
-919.18
-140.531
-940.844
-144.4
-962.43
-148.429
-983.976
-152.631
-1005.54
-157.028
-1027.21
-161.645
-1049.18
-166.501
-1071.73
-171.6
-1095.16
-176.927
-1119.76
-182.454
-1145.65
-188.138
-1172.82
-193.926
-1201.12
-199.761
-1230.23
-205.601
-1259.65
-211.455
-1288.74
-217.458
-1316.58
-223.975
-1342.05
-231.732
-1363.72
-241.922
-1379.99
-256.171
-1389.24
-276.242
-1390.39
-303.391
-1383.49
-337.566
-1370.37
-376.864
-1354.67
-417.699
-1341.13
-455.712
-1334.07
-486.91
-1335.68
-508.415
-1345.32
-518.558
-1359.59
-516.475
-1372.36
-501.821
-1374.92
-475.882
-1359.57
-442.315
-1329.12
-388.89
-1272.87
-245.972
-979.714
-51.5994
58.5242
-5.21812
1038.96
1.86036
1449.78
23.5917
1783.41
39.0566
2141.47
48.2033
2475.06
50.1249
2777.39
49.1267
3063.96
47.4965
3307.22
45.3376
3489.92
44.0545
3602.56
43.647
3636.36
44.0832
3591.58
44.6466
3459.68
45.6299
3271.73
45.0765
2987.53
44.9652
2704.71
41.4433
2290.26
41.7995
2160.89
36.9513
1579.09
40.1322
2029.33
45.9066
1271.33
50.8218
1844.91
3806.85
-101.41
-365.142
-101.315
-425.669
-101.767
-459.657
-102.453
-495.852
-103.457
-529.607
-104.681
-561.853
-106.136
-592.79
-107.789
-622.515
-109.634
-651.17
-111.656
-678.832
-113.85
-705.568
-116.207
-731.437
-118.727
-756.491
-121.406
-780.792
-124.247
-804.409
-127.251
-827.426
-130.419
-849.941
-133.753
-872.061
-137.252
-893.889
-140.912
-915.521
-144.73
-937.026
-148.708
-958.452
-152.851
-979.833
-157.175
-1001.21
-161.706
-1022.68
-166.474
-1044.41
-171.497
-1066.7
-176.78
-1089.88
-182.304
-1114.24
-188.035
-1139.92
-193.925
-1166.93
-199.918
-1195.13
-205.962
-1224.18
-212.039
-1253.58
-218.226
-1282.55
-224.797
-1310.01
-232.368
-1334.48
-242.034
-1354.06
-255.423
-1366.6
-274.495
-1370.17
-300.982
-1363.9
-335.489
-1348.98
-376.689
-1329.17
-421.187
-1310.17
-464.329
-1297.99
-501.536
-1296.86
-529.379
-1307.84
-545.913
-1328.79
-550.362
-1355.14
-542.517
-1380.21
-522.338
-1395.1
-490.929
-1390.97
-452.358
-1367.69
-401.787
-1323.44
-284.722
-1096.78
-69.5699
-156.628
13.59
955.796
15.1626
1448.21
30.4874
1768.08
44.2915
2127.66
51.3331
2468.02
51.0723
2777.65
48.0186
3067.01
44.8334
3310.41
41.5821
3493.17
39.6893
3604.46
39.1109
3636.94
39.715
3590.97
40.7055
3458.69
42.3
3270.13
42.4416
2987.39
43.055
2704.1
40.1378
2293.17
40.9376
2160.09
36.3198
1583.71
39.3805
2026.27
44.9224
1265.79
49.0042
1840.82
3787.52
-104.618
-365.737
-104.52
-425.767
-104.968
-459.209
-105.665
-495.155
-106.689
-528.584
-107.94
-560.602
-109.43
-591.3
-111.123
-620.822
-113.013
-649.28
-115.084
-676.761
-117.33
-703.322
-119.744
-729.023
-122.323
-753.912
-125.067
-778.048
-127.978
-801.498
-131.058
-824.346
-134.31
-846.69
-137.734
-868.637
-141.329
-890.295
-145.091
-911.758
-149.017
-933.1
-153.107
-954.362
-157.368
-975.571
-161.819
-996.76
-166.489
-1018.01
-171.411
-1039.49
-176.608
-1061.51
-182.082
-1084.41
-187.811
-1108.51
-193.756
-1133.98
-199.865
-1160.82
-206.084
-1188.91
-212.377
-1217.89
-218.777
-1247.18
-225.479
-1275.85
-232.983
-1302.51
-242.26
-1325.2
-254.863
-1341.45
-272.834
-1348.63
-298.258
-1344.75
-332.387
-1329.77
-374.625
-1306.74
-422.009
-1281.78
-469.765
-1262.41
-512.728
-1255.03
-546.776
-1262.81
-569.497
-1285.11
-579.993
-1318.3
-578.271
-1356.86
-564.605
-1393.87
-539.158
-1420.55
-502.757
-1427.38
-459.227
-1411.22
-408.884
-1373.78
-309.132
-1196.53
-87.564
-378.196
29.9254
838.306
32.7948
1445.34
39.808
1761.07
50.8433
2116.63
55.6218
2463.24
52.7499
2780.53
47.1659
3072.6
42.0193
3315.56
37.3834
3497.8
34.692
3607.15
33.8387
3637.79
34.5892
3590.22
36.0374
3457.24
38.3177
3267.85
39.2567
2986.45
40.717
2702.64
38.5093
2295.38
39.8822
2158.72
35.5568
1588.04
38.5859
2023.24
43.9319
1260.44
47.0885
1837.67
3771.66
-107.835
-366.34
-107.743
-425.859
-108.195
-458.758
-108.908
-494.441
-109.956
-527.536
-111.24
-559.318
-112.769
-589.771
-114.507
-619.085
-116.445
-647.341
-118.569
-674.637
-120.872
-701.02
-123.345
-726.549
-125.989
-751.268
-128.802
-775.235
-131.787
-798.513
-134.947
-821.186
-138.285
-843.351
-141.803
-865.119
-145.499
-886.599
-149.368
-907.889
-153.406
-929.061
-157.614
-950.155
-161.998
-971.187
-166.58
-992.178
-171.393
-1013.2
-176.474
-1034.41
-181.852
-1056.13
-187.525
-1078.73
-193.469
-1102.57
-199.64
-1127.8
-205.987
-1154.48
-212.464
-1182.43
-219.075
-1211.28
-225.95
-1240.3
-233.482
-1268.31
-242.508
-1293.48
-254.464
-1313.25
-271.383
-1324.54
-295.557
-1324.45
-328.77
-1311.53
-371.2
-1287.34
-420.564
-1257.38
-472.237
-1230.11
-520.58
-1214.07
-560.694
-1214.91
-589.515
-1233.99
-605.851
-1268.78
-609.744
-1314.4
-601.766
-1364.84
-582.488
-1413.15
-552.196
-1450.84
-511.454
-1468.12
-463.443
-1459.24
-411.518
-1425.7
-323.438
-1284.61
-104.93
-596.704
40.9576
692.419
52.9918
1433.31
52.3179
1761.74
58.9503
2110
61.1715
2461.02
55.3009
2786.4
46.6816
3081.22
39.1304
3323.11
32.7843
3504.15
29.0849
3610.85
27.8354
3639.04
28.6972
3589.36
30.6258
3455.31
33.6594
3264.82
35.4946
2984.62
37.9246
2700.21
36.5307
2296.77
38.6178
2156.63
34.6458
1592.01
37.7515
2020.13
42.9664
1255.23
45.377
1835.26
3756.42
-111.062
-366.939
-110.986
-425.935
-111.448
-458.296
-112.184
-493.705
-113.261
-526.459
-114.583
-557.996
-116.155
-588.199
-117.941
-617.299
-119.933
-645.35
-122.114
-672.456
-124.477
-698.657
-127.014
-724.011
-129.726
-748.557
-132.611
-772.349
-135.674
-795.45
-138.918
-817.941
-142.348
-839.922
-145.964
-861.502
-149.765
-882.798
-153.746
-903.908
-157.902
-924.906
-162.231
-945.826
-166.743
-966.676
-171.46
-987.461
-176.42
-1008.23
-181.668
-1029.16
-187.233
-1050.56
-193.115
-1072.85
-199.285
-1096.4
-205.698
-1121.39
-212.308
-1147.87
-219.098
-1175.64
-226.15
-1204.23
-233.764
-1232.69
-242.649
-1259.43
-254.104
-1282.03
-270.094
-1297.26
-293.016
-1301.61
-325.024
-1292.44
-366.974
-1269.58
-417.381
-1236.93
-472.089
-1202.67
-525.241
-1176.96
-571.18
-1168.13
-606.028
-1180.06
-628.109
-1211.91
-637.376
-1259.51
-634.56
-1317.22
-620.555
-1378.85
-596.073
-1437.63
-561.476
-1485.44
-517.143
-1512.45
-465.496
-1510.88
-411.196
-1480
-331.311
-1364.5
-124.27
-803.745
46.0347
522.115
73.6178
1405.72
67.906
1767.46
69.0615
2108.84
68.1196
2461.96
58.8527
2795.66
46.6905
3093.38
36.2552
3333.54
27.8395
3512.57
22.9002
3615.79
21.1163
3640.83
22.0392
3588.44
24.4623
3452.89
28.3088
3260.97
31.1337
2981.79
34.6546
2696.69
34.1765
2297.25
37.1242
2153.69
33.5698
1595.56
36.8607
2016.84
42.0716
1250.01
43.2937
1834.04
3738.87
-114.304
-367.524
-114.252
-425.987
-114.73
-457.818
-115.495
-492.94
-116.606
-525.347
-117.971
-556.632
-119.591
-586.578
-121.431
-615.459
-123.48
-643.3
-125.722
-670.214
-128.149
-696.23
-130.755
-721.406
-133.538
-745.774
-136.499
-769.388
-139.644
-792.305
-142.977
-814.609
-146.502
-836.396
-150.222
-857.783
-154.134
-878.886
-158.232
-899.81
-162.51
-920.628
-166.966
-941.369
-171.61
-962.032
-176.467
-982.604
-181.58
-1003.12
-187
-1023.74
-192.76
-1044.8
-198.86
-1066.75
-205.27
-1089.99
-211.947
-1114.71
-218.863
-1140.95
-226.063
-1168.44
-233.773
-1196.52
-242.579
-1223.88
-253.644
-1248.36
-268.838
-1266.83
-290.594
-1275.5
-321.325
-1270.88
-362.406
-1251.36
-413.081
-1218.91
-469.858
-1180.16
-527.025
-1145.5
-578.358
-1125.62
-619.093
-1127.39
-646.865
-1152.29
-661.371
-1197.4
-663.431
-1257.45
-654.17
-1326.48
-634.604
-1398.41
-605.489
-1466.75
-567.234
-1523.69
-520.12
-1559.56
-465.898
-1565.11
-409.296
-1536.61
-335.408
-1438.39
-147.562
-991.591
46.0813
328.472
92.325
1359.48
85.6822
1774.1
81.631
2112.89
76.6914
2466.9
63.5216
2808.83
47.3174
3109.58
33.4883
3347.37
22.6095
3523.44
16.1744
3622.22
13.7022
3643.3
14.6212
3587.52
17.5441
3449.96
22.2552
3256.26
26.1574
2977.89
30.8868
2691.96
31.4243
2296.71
35.3809
2149.73
32.3108
1598.63
35.8918
2013.26
41.1639
1244.74
40.9924
1834.21
3722.47
-117.564
-368.086
-117.542
-426.009
-118.044
-457.316
-118.844
-492.141
-119.995
-524.196
-121.407
-555.22
-123.08
-584.905
-124.978
-613.562
-127.089
-641.189
-129.397
-667.907
-131.893
-693.734
-134.57
-718.728
-137.43
-742.915
-140.472
-766.345
-143.703
-789.074
-147.128
-811.183
-150.754
-832.77
-154.582
-853.955
-158.61
-874.858
-162.83
-895.589
-167.237
-916.221
-171.825
-936.78
-176.607
-957.251
-181.608
-977.602
-186.879
-997.85
-192.477
-1018.15
-198.441
-1038.84
-204.772
-1060.42
-211.439
-1083.32
-218.412
-1107.74
-225.71
-1133.65
-233.494
-1160.66
-242.243
-1187.77
-252.981
-1213.14
-267.468
-1233.88
-288.147
-1246.15
-317.631
-1246.01
-357.706
-1230.81
-408.19
-1200.88
-466.214
-1160.88
-526.462
-1119.91
-582.511
-1089.45
-628.82
-1079.31
-662.19
-1094.02
-681.858
-1132.62
-688.604
-1190.66
-683.755
-1262.3
-668.579
-1341.65
-644.095
-1422.9
-611.046
-1499.8
-569.876
-1564.86
-520.837
-1608.6
-465.17
-1620.77
-406.985
-1594.79
-338.213
-1507.16
-182.758
-1147.05
37.6981
108.015
107.008
1290.17
104.598
1776.51
96.83
2120.66
87.1739
2476.56
69.4455
2826.56
48.6766
3130.35
30.9206
3365.13
17.1512
3537.21
8.94085
3630.43
5.6125
3646.63
6.45015
3586.68
9.86975
3446.55
15.4907
3250.64
20.552
2972.83
26.6035
2685.9
28.2532
2295.07
33.3694
2144.61
30.8498
1601.15
34.8357
2009.27
40.2079
1239.37
38.9073
1835.51
3707.02
-120.845
-368.616
-120.861
-425.993
-121.394
-456.784
-122.234
-491.3
-123.431
-522.999
-124.895
-553.756
-126.627
-583.173
-128.587
-611.601
-130.765
-639.011
-133.143
-665.529
-135.712
-691.165
-138.466
-715.973
-141.406
-739.975
-144.533
-763.218
-147.854
-785.753
-151.377
-807.66
-155.108
-829.04
-159.05
-850.014
-163.199
-870.709
-167.548
-891.24
-172.088
-911.681
-176.815
-932.053
-181.739
-952.327
-186.891
-972.45
-192.325
-992.416
-198.108
-1012.36
-204.286
-1032.66
-210.862
-1053.85
-217.812
-1076.37
-225.139
-1100.41
-232.953
-1125.84
-241.632
-1151.98
-252.063
-1177.34
-265.881
-1199.32
-285.519
-1214.24
-313.776
-1217.9
-352.821
-1206.97
-402.947
-1180.68
-461.745
-1142.08
-524.264
-1098.36
-584.165
-1060.01
-635.475
-1038.14
-674.2
-1040.59
-698.934
-1069.29
-710.238
-1121.32
-709.555
-1191.34
-698.4
-1273.46
-678.026
-1362.03
-649.391
-1451.53
-613.213
-1535.97
-569.964
-1608.11
-519.914
-1658.65
-463.959
-1676.73
-405.403
-1653.35
-340.985
-1571.57
-220.478
-1267.55
10.8001
-123.263
116.777
1184.19
123.809
1769.48
114.379
2130.09
99.8395
2491.1
76.8359
2849.57
50.8818
3156.3
28.638
3387.37
11.5203
3554.33
1.23112
3640.72
-3.13358
3650.99
-2.46553
3586.01
1.4405
3442.64
8.01153
3244.07
14.3081
2966.53
21.7907
2678.42
24.645
2292.21
31.0729
2138.18
29.1684
1603.06
33.6774
2004.77
39.2657
1233.78
36.3057
1838.47
3689.2
-124.152
-369.109
-124.212
-425.932
-124.781
-456.214
-125.669
-490.413
-126.916
-521.751
-128.439
-552.233
-130.233
-581.379
-132.262
-609.573
-134.511
-636.761
-136.964
-663.077
-139.611
-688.518
-142.446
-713.138
-145.471
-736.951
-148.687
-760.001
-152.104
-782.336
-155.729
-804.035
-159.57
-825.198
-163.63
-845.953
-167.907
-866.433
-172.391
-886.756
-177.072
-907
-181.944
-927.181
-187.016
-947.255
-192.323
-967.143
-197.926
-986.812
-203.903
-1006.39
-210.306
-1026.26
-217.146
-1047.01
-224.422
-1069.09
-232.205
-1092.63
-240.781
-1117.26
-250.897
-1141.86
-264.046
-1164.19
-282.615
-1180.75
-309.588
-1187.27
-347.548
-1179.94
-397.278
-1157.24
-456.722
-1121.24
-521.089
-1077.71
-584.08
-1035.37
-639.592
-1004.5
-683.16
-994.576
-712.729
-1011.02
-728.459
-1053.56
-731.76
-1118.02
-724.334
-1198.77
-707.672
-1290.12
-682.932
-1386.77
-651.005
-1483.46
-612.587
-1574.39
-568.186
-1652.51
-518.125
-1708.71
-463.08
-1731.77
-405.54
-1710.89
-344.661
-1632.45
-243.008
-1369.21
-15.0817
-351.189
121.374
1047.74
142.312
1748.54
133.631
2138.77
114.914
2509.81
86.0054
2878.47
54.0722
3188.24
26.722
3414.72
5.77587
3575.28
-6.91833
3653.42
-12.5139
3656.59
-12.1182
3585.62
-7.74429
3438.27
-0.184176
3236.51
7.42153
2958.93
16.438
2669.41
20.5849
2288.06
28.4778
2130.29
27.2495
1604.29
32.4102
1999.6
38.2792
1227.91
33.978
1842.77
3673.72
-127.487
-369.556
-127.598
-425.822
-128.211
-455.601
-129.151
-489.473
-130.455
-520.446
-132.042
-550.646
-133.904
-579.516
-136.006
-607.472
-138.332
-634.435
-140.864
-660.544
-143.594
-685.788
-146.516
-710.216
-149.629
-733.837
-152.94
-756.69
-156.457
-778.82
-160.189
-800.303
-164.146
-821.242
-168.331
-841.768
-172.741
-862.022
-177.367
-882.131
-182.195
-902.172
-187.218
-922.158
-192.445
-942.028
-197.913
-961.675
-203.692
-981.033
-209.87
-1000.21
-216.514
-1019.61
-223.651
-1039.87
-231.327
-1061.42
-239.755
-1084.2
-249.535
-1107.48
-261.992
-1129.41
-279.427
-1146.75
-304.972
-1155.21
-341.674
-1150.57
-390.916
-1130.69
-451.04
-1097.12
-517.247
-1055.03
-582.997
-1011.96
-641.993
-976.377
-689.626
-956.862
-723.522
-960.68
-743.415
-991.127
-750.514
-1046.46
-746.589
-1121.94
-733.319
-1212.04
-712.062
-1311.38
-683.867
-1414.96
-649.573
-1517.75
-609.879
-1614.09
-565.353
-1697.04
-516.403
-1757.66
-463.573
-1784.6
-408.577
-1765.88
-351.498
-1689.53
-261.82
-1458.88
-39.2067
-573.803
120.925
887.605
158.801
1710.66
153.859
2143.71
132.557
2531.11
97.3164
2913.71
58.44
3227.11
25.2559
3447.91
-0.0232805
3600.56
-15.4696
3668.86
-22.5064
3663.62
-22.496
3585.61
-17.6788
3433.45
-9.10082
3227.93
-0.113332
2949.94
10.5394
2658.75
16.0639
2282.54
25.5751
2120.78
25.0778
1604.78
31.0312
1993.65
37.2574
1221.69
31.2953
1848.73
3657.63
-130.855
-369.951
-131.022
-425.655
-131.686
-454.938
-132.684
-488.474
-134.052
-519.079
-135.707
-548.99
-137.644
-577.58
-139.824
-605.292
-142.232
-632.027
-144.849
-657.927
-147.667
-682.97
-150.679
-707.204
-153.887
-730.629
-157.297
-753.281
-160.918
-775.199
-164.763
-796.458
-168.841
-817.164
-173.157
-837.452
-177.708
-857.471
-182.483
-877.356
-187.465
-897.19
-192.647
-916.977
-198.035
-936.639
-203.671
-956.04
-209.632
-975.072
-216.024
-993.818
-222.931
-1012.71
-230.418
-1032.38
-238.635
-1053.2
-248.053
-1074.79
-259.799
-1095.74
-276.026
-1113.18
-299.948
-1122.83
-335.085
-1120.07
-383.573
-1102.08
-444.343
-1069.92
-512.603
-1028.86
-581.286
-986.347
-643.527
-949.723
-694.509
-925.394
-731.915
-919.456
-755.414
-937.182
-765.991
-980.55
-765.328
-1047.12
-755.189
-1132.08
-737.08
-1230.15
-712.198
-1336.26
-681.507
-1445.65
-645.829
-1553.43
-605.91
-1654
-562.419
-1740.53
-515.874
-1804.21
-466.702
-1833.77
-415.867
-1816.72
-363.443
-1741.96
-283.064
-1539.26
-66.1308
-790.736
116.65
704.824
172.519
1654.79
174.528
2141.71
152.727
2552.92
111.052
2955.39
64.2444
3273.92
24.345
3487.81
-5.81947
3630.72
-24.3847
3687.43
-33.0887
3672.33
-33.585
3586.1
-28.3562
3428.22
-18.743
3218.32
-8.29669
2939.49
4.09886
2646.36
11.0786
2275.56
22.3576
2109.5
22.6401
1604.5
29.5381
1986.75
36.2373
1214.99
28.6268
1856.34
3641.35
-134.259
-370.289
-134.489
-425.425
-135.209
-454.217
-136.273
-487.411
-137.709
-517.643
-139.44
-547.259
-141.456
-575.563
-143.72
-603.028
-146.216
-629.532
-148.924
-655.219
-151.835
-680.06
-154.943
-704.096
-158.25
-727.322
-161.764
-749.767
-165.495
-771.467
-169.457
-792.496
-173.663
-812.958
-178.116
-832.998
-182.815
-852.773
-187.746
-872.425
-192.892
-892.044
-198.239
-911.629
-203.796
-931.082
-209.606
-950.23
-215.759
-968.919
-222.379
-987.197
-229.587
-1005.5
-237.524
-1024.45
-246.543
-1044.18
-257.57
-1063.76
-272.538
-1080.77
-294.64
-1091.08
-327.816
-1089.66
-375.074
-1072.81
-436.224
-1040.93
-506.699
-999.449
-578.798
-956.757
-644.648
-920.497
-698.789
-895.583
-738.928
-885.255
-765.118
-893.266
-778.532
-923.768
-780.748
-978.334
-773.461
-1054.41
-758.221
-1147.32
-736.315
-1252.05
-708.806
-1363.77
-676.614
-1477.85
-640.603
-1589.44
-601.63
-1692.98
-560.518
-1781.64
-517.881
-1846.85
-473.948
-1877.71
-428.826
-1861.84
-381.881
-1788.9
-309.664
-1611.48
-101.057
-999.343
106.938
496.829
183.168
1578.56
195.115
2129.76
174.979
2573.05
127.312
3003.06
71.8082
3329.43
24.1459
3535.47
-11.5559
3666.42
-33.6262
3709.5
-44.2386
3682.94
-45.3703
3587.24
-39.7683
3422.62
-29.1085
3207.66
-17.1164
2927.5
-2.88534
2632.13
5.6172
2267.06
18.8213
2096.3
19.9243
1603.4
27.9409
1978.74
35.1999
1207.73
26.4885
1865.05
3626.23
-137.704
-370.564
-138.001
-425.128
-138.785
-453.433
-139.92
-486.276
-141.431
-516.132
-143.244
-545.447
-145.346
-573.461
-147.7
-600.674
-150.289
-626.943
-153.093
-652.415
-156.102
-677.051
-159.311
-700.886
-162.723
-723.91
-166.346
-746.145
-170.193
-767.621
-174.279
-788.41
-178.617
-808.62
-183.216
-828.4
-188.07
-847.918
-193.166
-867.329
-198.483
-886.727
-204.006
-906.107
-209.739
-925.349
-215.731
-944.238
-222.086
-962.564
-228.96
-980.324
-236.538
-997.919
-245.115
-1015.87
-255.419
-1033.88
-269.115
-1050.06
-289.245
-1060.64
-320.042
-1060.28
-365.428
-1044.27
-426.389
-1011.85
-498.976
-968.342
-574.981
-923.445
-645.222
-886.515
-703.033
-862.686
-745.701
-852.915
-773.689
-857.267
-788.887
-878.068
-793.237
-919.418
-788.357
-983.214
-775.68
-1067.09
-756.466
-1166.54
-731.804
-1276.71
-702.675
-1392.89
-670.025
-1510.5
-634.841
-1624.63
-598.174
-1729.64
-561.024
-1818.79
-524.004
-1883.86
-486.924
-1914.79
-448.789
-1899.98
-407.706
-1829.98
-343.276
-1675.91
-151.81
-1190.81
89.6931
255.327
191.158
1477.1
214.907
2106.01
198.493
2589.46
146.02
3055.53
81.4936
3393.95
24.8908
3592.07
-17.1691
3708.48
-43.16
3735.49
-55.9342
3695.71
-57.8363
3589.14
-51.905
3416.69
-40.1892
3195.94
-26.5611
2913.87
-10.4363
2616
-0.327532
2256.95
14.9796
2080.99
16.9217
1601.46