/*--------------------------------*- C++ -*----------------------------------*\
| =========                 |                                                 |
| \\      /  F ield         | OpenFOAM: The Open Source CFD Toolbox           |
|  \\    /   O peration     | Version:  4.1                                   |
|   \\  /    A nd           | Web:      www.OpenFOAM.org                      |
|    \\/     M anipulation  |                                                 |
\*---------------------------------------------------------------------------*/
FoamFile
{
    version     2.0;
    format      ascii;
    class       volVectorField;
    location    "12";
    object      U;
}
// * * * * * * * * * * * * * * * * * * * * * * * * * * * * * * * * * * * * * //

dimensions      [0 1 -1 0 0 0 0];

internalField   nonuniform List<vector> 
6785
(
(-5.25672e+54 -1.98695e+53 5.53961e+53)
(-1.04011e+55 2.62612e+53 -1.23646e+53)
(-1.20755e+55 6.02611e+53 -7.5339e+53)
(-1.27708e+55 6.14344e+53 -1.16438e+54)
(-1.3545e+55 4.31983e+53 -1.11745e+54)
(-1.40744e+55 2.00505e+53 -9.82398e+53)
(-1.44964e+55 1.51126e+52 -8.40559e+53)
(-1.48115e+55 -1.62572e+53 -6.60817e+53)
(-1.44155e+55 -2.40479e+53 -4.93706e+53)
(-1.3814e+55 -2.78813e+53 -3.26733e+53)
(-1.29814e+55 -3.24744e+53 -1.61021e+53)
(-1.18207e+55 -3.67923e+53 2.12656e+52)
(-1.02395e+55 -3.92824e+53 2.36555e+53)
(-8.22291e+54 -4.57688e+53 4.59588e+53)
(-4.735e+54 -5.64707e+53 9.33338e+53)
(-8.15974e+54 -7.55309e+53 1.44602e+54)
(-1.41784e+55 -5.41325e+53 9.19282e+53)
(-1.29884e+55 7.47345e+53 -1.38652e+54)
(-1.55758e+55 9.47052e+53 -1.73812e+54)
(-1.73183e+55 7.92808e+53 -1.36844e+54)
(-1.81076e+55 6.45932e+53 -9.67126e+53)
(-1.88384e+55 5.34177e+53 -5.93163e+53)
(-1.92167e+55 1.40063e+53 2.91886e+53)
(-1.75559e+55 -2.53312e+53 1.08316e+54)
(-1.3667e+55 -1.64059e+53 1.02733e+54)
(-1.19489e+55 -2.24478e+53 1.08786e+54)
(-1.08006e+55 -2.77223e+53 1.1173e+54)
(-9.24545e+54 -3.59532e+53 1.09934e+54)
(-7.23904e+54 -4.43531e+53 1.0712e+54)
(-3.74462e+54 -3.67863e+53 7.64862e+53)
(-8.13542e+54 -6.30736e+53 1.17689e+54)
(-1.58555e+55 4.06646e+53 -7.84602e+53)
(-1.43702e+55 6.89367e+53 -1.15724e+54)
(-1.78966e+55 5.30701e+53 -5.59843e+53)
(-1.87464e+55 3.12198e+53 5.24828e+52)
(-1.83129e+55 1.2294e+53 6.05358e+53)
(-1.63346e+55 5.42117e+52 9.04128e+53)
(-1.36762e+55 1.38536e+53 8.63975e+53)
(-1.13977e+55 2.92907e+53 5.24618e+53)
(-1.01819e+55 5.37386e+53 -2.25619e+52)
(-1.03493e+55 6.98982e+53 -4.56016e+53)
(-9.98636e+54 7.97857e+53 -8.61154e+53)
(-8.50199e+54 7.59229e+53 -1.08085e+54)
(-6.05134e+54 4.77593e+53 -8.71085e+53)
(-3.91315e+54 3.61587e+53 -7.75397e+53)
(-9.68837e+54 -8.40263e+53 1.51947e+54)
(-1.44202e+55 -1.84363e+53 5.02332e+53)
(-1.40942e+55 1.29485e+51 6.03572e+53)
(-1.4911e+55 9.72077e+52 6.22177e+53)
(-1.52277e+55 1.35303e+53 6.95927e+53)
(-1.52083e+55 8.44103e+52 7.44301e+53)
(-1.46098e+55 5.70775e+52 6.61654e+53)
(-1.40149e+55 8.93443e+52 4.24062e+53)
(-1.41606e+55 1.69901e+53 1.09888e+53)
(-1.52736e+55 3.36803e+53 -2.45181e+53)
(-1.66906e+55 6.25703e+53 -7.06721e+53)
(-1.6293e+55 9.54626e+53 -1.28916e+54)
(-1.22017e+55 1.06555e+54 -1.54459e+54)
(-6.221e+54 6.33881e+53 -8.91267e+53)
(-8.72379e+53 -5.86024e+53 1.2264e+54)
(-1.27414e+55 -1.24998e+54 2.17191e+54)
(-1.98194e+55 -1.167e+54 1.91719e+54)
(-1.46322e+55 -6.67742e+53 1.37103e+54)
(-1.27121e+55 -4.87773e+53 9.94793e+53)
(-1.09752e+55 -1.02272e+53 4.84602e+53)
(-9.66818e+54 2.10068e+53 -1.2574e+53)
(-9.83685e+54 4.2618e+53 -4.96067e+53)
(-1.11144e+55 4.7325e+53 -6.65477e+53)
(-1.27487e+55 3.75857e+53 -5.43085e+53)
(-1.37363e+55 1.05259e+53 -9.73724e+52)
(-1.93259e+55 1.5959e+53 -3.11513e+53)
(-2.03592e+55 7.33547e+53 -1.10023e+54)
(-1.57641e+55 1.14552e+54 -1.67463e+54)
(-9.1683e+54 1.36527e+54 -1.95686e+54)
(-2.86347e+54 7.68378e+53 -1.20202e+54)
(-1.05652e+55 -7.29152e+53 1.11423e+54)
(-1.94002e+55 -1.17734e+54 1.7196e+54)
(-1.87594e+55 -1.16246e+54 1.58818e+54)
(-1.66289e+55 -1.06424e+54 1.32939e+54)
(-1.48018e+55 -9.40252e+53 1.02439e+54)
(-1.33278e+55 -7.94754e+53 7.00707e+53)
(-1.1711e+55 -5.7792e+53 2.91257e+53)
(-1.10033e+55 -4.31048e+53 -5.57381e+51)
(-1.05788e+55 -2.68171e+53 -2.35517e+53)
(-1.01631e+55 7.39408e+52 -6.78509e+53)
(-1.27671e+55 -6.802e+51 -4.07469e+53)
(-1.87021e+55 -3.48385e+53 3.39894e+53)
(-1.89354e+55 1.20313e+53 -4.452e+53)
(-1.25531e+55 6.51033e+53 -1.19e+54)
(-5.9061e+54 8.38292e+53 -1.503e+54)
(-5.52615e+54 -1.9241e+53 2.87376e+53)
(-1.02648e+55 -4.93446e+53 7.01049e+53)
(-1.04612e+55 -5.66139e+53 6.04993e+53)
(-8.73587e+54 -4.64964e+53 2.81799e+53)
(-7.59234e+54 -3.23621e+53 -1.64769e+53)
(-7.49357e+54 -2.40118e+53 -4.6714e+53)
(-6.54437e+54 -8.61471e+52 -7.47008e+53)
(-9.2264e+54 -8.08443e+52 -5.80078e+53)
(-1.39565e+55 -5.68959e+53 4.5958e+53)
(-1.50441e+55 -7.92254e+53 1.18167e+54)
(-1.90426e+55 -5.50343e+53 1.00063e+54)
(-1.83892e+55 1.5075e+53 -2.0914e+53)
(-1.30259e+55 3.85255e+53 -7.54454e+53)
(-7.95297e+54 4.554e+53 -8.35773e+53)
(-4.94943e+54 5.26293e+53 -9.42909e+53)
(-1.04672e+54 -1.91427e+53 2.72747e+53)
(-1.7693e+54 -3.39579e+53 2.58444e+53)
(-2.26913e+54 -2.7936e+53 -8.06224e+52)
(-1.32859e+54 -3.95679e+53 -1.64473e+53)
(-5.61909e+54 -1.80652e+53 -6.10906e+53)
(-1.74233e+55 -5.07978e+53 5.40617e+52)
(-2.08794e+55 -9.81257e+53 1.0574e+54)
(-1.94808e+55 -1.1437e+54 1.68945e+54)
(-1.82702e+55 -1.25663e+54 2.07902e+54)
(-1.8668e+55 -1.02949e+54 1.86041e+54)
(-1.9835e+55 -4.28608e+53 6.87834e+53)
(-1.61131e+55 1.56213e+53 -2.64663e+53)
(-1.18039e+55 4.05001e+53 -7.65229e+53)
(-8.24421e+54 6.20135e+53 -9.94938e+53)
(-5.42797e+54 6.13684e+53 -1.20225e+54)
(6.3628e+53 -5.45921e+53 6.22756e+53)
(-7.72479e+52 -1.27333e+53 6.27181e+52)
(-3.43981e+54 3.76543e+53 -7.93523e+53)
(-9.97198e+54 2.3089e+53 -5.64085e+53)
(-1.59293e+55 -9.05726e+52 1.23675e+53)
(-2.02134e+55 -4.70847e+53 9.20892e+53)
(-2.1737e+55 -8.57479e+53 1.62544e+54)
(-2.09119e+55 -1.10416e+54 2.06638e+54)
(-1.95857e+55 -1.1701e+54 2.1066e+54)
(-1.90555e+55 -9.03163e+53 1.54284e+54)
(-1.76239e+55 -4.55445e+53 6.68823e+53)
(-1.47904e+55 -1.85437e+52 2.49297e+52)
(-1.07528e+55 2.52763e+53 -3.99133e+53)
(-6.80332e+54 4.32006e+53 -7.09414e+53)
(-4.24469e+54 3.26905e+53 -5.82929e+53)
(-9.77212e+53 -1.90334e+53 7.00322e+53)
(-2.83259e+54 -8.43362e+52 2.79821e+53)
(-4.95942e+54 7.76871e+52 2.04935e+53)
(-7.65749e+54 1.25236e+53 3.15431e+53)
(-1.06896e+55 4.75276e+52 5.90776e+53)
(-1.32148e+55 -1.23283e+53 9.64465e+53)
(-1.46252e+55 -3.11595e+53 1.2928e+54)
(-1.49007e+55 -4.22968e+53 1.44168e+54)
(-1.41033e+55 -3.81415e+53 1.296e+54)
(-1.21094e+55 -2.21558e+53 9.57842e+53)
(-8.44187e+54 -1.06552e+53 7.81962e+53)
(-3.43615e+54 2.22357e+53 3.74149e+53)
(-4.99837e+53 1.02584e+54 -8.9322e+53)
(-1.10149e+54 1.41329e+54 -1.66033e+54)
(-6.09399e+53 1.18221e+54 -1.20955e+54)
(-1.36547e+54 -5.07666e+53 1.61442e+54)
(-2.64466e+54 -6.63148e+53 1.24396e+54)
(-3.87615e+54 -3.95108e+53 1.12506e+54)
(-5.22226e+54 -3.21736e+53 1.11381e+54)
(-6.55051e+54 -2.83849e+53 1.20539e+54)
(-7.68128e+54 -3.18659e+53 1.33099e+54)
(-8.44131e+54 -3.90595e+53 1.46562e+54)
(-8.50602e+54 -4.59964e+53 1.54316e+54)
(-7.18634e+54 -4.51085e+53 1.47236e+54)
(-4.34082e+54 -3.35888e+53 1.24777e+54)
(-2.09941e+54 -1.61569e+53 9.54231e+53)
(-1.65009e+54 1.77587e+53 2.19182e+53)
(-2.17897e+54 7.65225e+53 -9.91907e+53)
(-2.14365e+54 1.78235e+54 -2.56282e+54)
(-1.36743e+54 2.35235e+54 -3.83841e+54)
(-1.31704e+54 -1.02732e+54 2.37404e+54)
(-2.47613e+54 -1.00509e+54 2.12301e+54)
(-3.26394e+54 -8.42081e+53 2.12866e+54)
(-3.67939e+54 -6.22296e+53 1.97352e+54)
(-3.82306e+54 -4.83768e+53 1.6556e+54)
(-3.87201e+54 -3.74004e+53 1.33324e+54)
(-3.88246e+54 -3.5126e+53 1.0495e+54)
(-3.81946e+54 -4.21752e+53 8.33526e+53)
(-3.5494e+54 -5.05701e+53 6.24451e+53)
(-3.00806e+54 -5.56844e+53 4.01055e+53)
(-2.52934e+54 -5.66188e+53 1.64354e+53)
(-2.37636e+54 -5.02305e+53 -4.76527e+52)
(-2.321e+54 -4.35364e+53 -1.41516e+53)
(-2.29323e+54 -5.13451e+53 4.66042e+53)
(-1.70719e+54 2.24733e+54 -4.34957e+54)
(-1.80895e+54 -3.71735e+53 4.04642e+54)
(-2.38699e+54 -1.67907e+54 3.3923e+54)
(-2.33077e+54 -7.00828e+53 2.89281e+54)
(-1.97436e+54 -1.77449e+54 1.74945e+54)
(-1.70441e+54 -1.84849e+54 9.16779e+53)
(-1.50144e+54 -1.98457e+54 2.92134e+53)
(-1.35225e+54 -2.26373e+54 -9.9005e+52)
(-1.24436e+54 -2.62647e+54 -2.2961e+53)
(-1.16831e+54 -2.99952e+54 -7.03151e+52)
(-1.11991e+54 -3.3693e+54 3.12515e+53)
(-1.09265e+54 -3.55271e+54 8.47675e+53)
(-1.10057e+54 -3.72387e+54 1.44975e+54)
(-1.14334e+54 -3.69206e+54 2.01563e+54)
(-1.31187e+54 -3.41543e+54 2.27518e+54)
(-1.43993e+54 -6.39544e+53 4.79184e+52)
(-8.66943e+53 -8.53923e+54 3.76995e+54)
(-1.0789e+54 -4.6883e+54 -8.08245e+53)
(-1.02858e+54 -3.09371e+54 -3.1859e+54)
(-9.39445e+53 -2.07922e+54 -5.05356e+54)
(-8.66288e+53 -1.67813e+54 -6.07067e+54)
(-8.11966e+53 -1.41705e+54 -6.52761e+54)
(-7.74544e+53 -1.62402e+54 -6.30193e+54)
(-7.48593e+53 -1.9285e+54 -5.53572e+54)
(-7.32449e+53 -2.54431e+54 -4.21194e+54)
(-7.22321e+53 -3.30852e+54 -2.29984e+54)
(-7.21042e+53 -4.45695e+54 2.69274e+53)
(-7.26144e+53 -5.9353e+54 3.58373e+54)
(-7.42706e+53 -7.82721e+54 7.98096e+54)
(-8.00132e+53 -1.03381e+55 1.51295e+55)
(-1.33022e+54 -1.63305e+55 2.45051e+55)
(-6.3935e+53 -6.68933e+54 2.10093e+55)
(-4.73498e+53 2.18888e+55 -6.91337e+54)
(-5.02201e+53 1.98891e+55 -7.16365e+54)
(-5.03786e+53 2.3387e+55 -9.98312e+54)
(-5.19544e+53 2.40953e+55 -9.51293e+54)
(-5.29632e+53 2.53506e+55 -1.01998e+55)
(-5.43723e+53 2.52794e+55 -9.89771e+54)
(-5.54595e+53 2.55929e+55 -9.5056e+54)
(-5.67891e+53 2.48851e+55 -9.56712e+54)
(-5.80713e+53 2.39862e+55 -8.42034e+54)
(-5.9227e+53 2.30602e+55 -8.83857e+54)
(-6.07745e+53 2.10303e+55 -7.31688e+54)
(-6.1368e+53 2.13021e+55 -6.51713e+54)
(-5.96126e+53 2.30477e+55 -2.81824e+54)
(-4.242e+53 2.71437e+55 5.99234e+54)
(-1.92102e+53 5.68983e+56 8.12722e+55)
(-2.22408e+53 4.45693e+55 6.33391e+55)
(-2.14889e+53 -1.84016e+55 -1.48873e+55)
(-2.17138e+53 -5.88817e+54 -6.16519e+54)
(-2.21768e+53 -5.0504e+54 -6.46537e+54)
(-2.97047e+53 -1.2461e+55 -3.04723e+54)
(-2.0003e+53 -6.98978e+54 -5.01437e+55)
(-2.12073e+53 1.55774e+55 -5.04564e+55)
(-2.15177e+53 2.04653e+55 -5.08185e+55)
(-2.98708e+53 1.54571e+55 -6.10032e+55)
(-2.23457e+53 7.87584e+54 -5.64433e+55)
(-2.08317e+53 1.04309e+55 -5.46343e+55)
(-2.95674e+53 2.47584e+55 -7.60205e+55)
(-2.17452e+53 2.0123e+55 -6.27153e+55)
(-2.1517e+53 2.31219e+55 -6.26248e+55)
(-2.04314e+53 2.50962e+55 -6.03141e+55)
(-2.89579e+53 4.41755e+55 -7.77354e+55)
(-2.1687e+53 3.52123e+55 -6.25493e+55)
(-2.02187e+53 3.60081e+55 -5.9775e+55)
(-2.87435e+53 6.02032e+55 -7.46165e+55)
(-2.11491e+53 4.53885e+55 -5.86653e+55)
(-2.09339e+53 5.01724e+55 -5.80683e+55)
(-1.98637e+53 5.06206e+55 -5.59747e+55)
(-2.83008e+53 7.85499e+55 -6.88851e+55)
(-2.084e+53 5.85581e+55 -5.38064e+55)
(-2.06258e+53 6.3523e+55 -5.30645e+55)
(-1.95862e+53 6.34059e+55 -5.1089e+55)
(-2.77752e+53 9.32468e+55 -6.22105e+55)
(-2.08127e+53 7.15794e+55 -4.87927e+55)
(-1.94051e+53 7.05977e+55 -4.6564e+55)
(-2.7596e+53 1.05027e+56 -5.60341e+55)
(-2.03172e+53 7.81843e+55 -4.36126e+55)
(-2.01089e+53 8.31631e+55 -4.30023e+55)
(-1.90968e+53 8.19717e+55 -4.14814e+55)
(-2.70822e+53 1.1544e+56 -4.97735e+55)
(-2.03e+53 8.87516e+55 -3.89547e+55)
(-1.89275e+53 8.67007e+55 -3.72865e+55)
(-2.69231e+53 1.24496e+56 -4.41571e+55)
(-1.98245e+53 9.29993e+55 -3.44507e+55)
(-1.96265e+53 9.77749e+55 -3.40276e+55)
(-1.8625e+53 9.55488e+55 -3.29027e+55)
(-2.65502e+53 1.32913e+56 -3.90009e+55)
(-1.95611e+53 9.97749e+55 -3.04075e+55)
(-1.93636e+53 1.04278e+56 -2.99232e+55)
(-1.83883e+53 1.01827e+56 -2.89029e+55)
(-2.6095e+53 1.38569e+56 -3.41393e+55)
(-1.95613e+53 1.0697e+56 -2.67783e+55)
(-1.82374e+53 1.03668e+56 -2.57004e+55)
(-2.59619e+53 1.4454e+56 -2.9763e+55)
(-1.91138e+53 1.08515e+56 -2.34255e+55)
(-1.89241e+53 1.12823e+56 -2.31169e+55)
(-1.7957e+53 1.0963e+56 -2.23918e+55)
(-2.56209e+53 1.49217e+56 -2.60847e+55)
(-1.88702e+53 1.1251e+56 -2.052e+55)
(-1.86805e+53 1.16555e+56 -2.01476e+55)
(-1.77379e+53 1.1329e+56 -1.94836e+55)
(-2.51971e+53 1.51601e+56 -2.27092e+55)
(-1.88801e+53 1.17362e+56 -1.7942e+55)
(-1.7599e+53 1.13258e+56 -1.72725e+55)
(-2.50803e+53 1.55542e+56 -1.95588e+55)
(-1.84526e+53 1.17182e+56 -1.56228e+55)
(-1.82671e+53 1.21041e+56 -1.53971e+55)
(-1.73434e+53 1.17435e+56 -1.49313e+55)
(-2.46551e+53 1.56212e+56 -1.71531e+55)
(-1.84642e+53 1.21063e+56 -1.36973e+55)
(-1.7209e+53 1.16628e+56 -1.32691e+55)
(-2.45453e+53 1.59264e+56 -1.47866e+55)
(-1.80467e+53 1.20145e+56 -1.19803e+55)
(-1.78685e+53 1.23889e+56 -1.18813e+55)
(-1.69508e+53 1.19845e+56 -1.15414e+55)
(-2.42373e+53 1.60597e+56 -1.32463e+55)
(-1.78232e+53 1.21634e+56 -1.06628e+55)
(-1.76447e+53 1.25203e+56 -1.04855e+55)
(-1.67489e+53 1.21231e+56 -1.01305e+55)
(-2.38534e+53 1.60371e+56 -1.19411e+55)
(-1.78286e+53 1.24461e+56 -9.58997e+54)
(-1.66634e+53 1.20081e+56 -9.24416e+54)
(-2.33128e+53 1.59885e+56 -1.06732e+55)
(-1.84098e+53 1.2627e+56 -8.67469e+54)
(-1.40629e+53 1.1407e+56 -8.41298e+54)
(-2.39284e+53 1.34966e+56 -9.19781e+54)
(-2.46336e+53 1.30609e+56 -9.60305e+54)
(-2.48442e+53 1.27834e+56 -1.00268e+55)
(-2.15967e+53 1.28291e+56 -8.30891e+54)
(-2.40637e+53 1.21518e+56 -8.27689e+54)
(-2.54062e+53 1.21715e+56 -9.02557e+54)
(-2.63644e+53 1.21902e+56 -9.55041e+54)
(-2.6466e+53 1.22068e+56 -9.63509e+54)
(-2.64107e+53 1.22226e+56 -9.63169e+54)
(-2.63771e+53 1.22183e+56 -9.62475e+54)
(-2.62095e+53 1.22663e+56 -9.52132e+54)
(-2.67257e+53 1.21508e+56 -1.0098e+55)
(-1.99753e+53 1.33399e+56 -4.90697e+54)
(-2.61074e+53 1.19254e+56 -7.70737e+54)
(-2.62199e+53 1.18862e+56 -7.83979e+54)
(-2.62037e+53 1.18915e+56 -7.84345e+54)
(-2.60539e+53 1.18924e+56 -7.94669e+54)
(-2.59471e+53 1.19007e+56 -7.93598e+54)
(-2.59077e+53 1.18914e+56 -7.94025e+54)
(-2.57024e+53 1.19309e+56 -7.77538e+54)
(-2.60183e+53 1.18303e+56 -8.06788e+54)
(-1.94379e+53 1.2914e+56 -2.16953e+54)
(-2.52119e+53 1.15708e+56 -5.82703e+54)
(-2.53236e+53 1.15295e+56 -5.96997e+54)
(-2.52706e+53 1.15293e+56 -6.00993e+54)
(-2.51979e+53 1.15308e+56 -6.01647e+54)
(-2.51051e+53 1.15295e+56 -5.99964e+54)
(-2.49043e+53 1.15395e+56 -5.9185e+54)
(-2.48477e+53 1.1527e+56 -5.90536e+54)
(-2.46477e+53 1.15616e+56 -5.71804e+54)
(-2.49426e+53 1.1466e+56 -6.02935e+54)
(-1.87169e+53 1.24856e+56 3.6604e+53)
(-2.42217e+53 1.11844e+56 -3.81548e+54)
(-2.43266e+53 1.11446e+56 -3.96321e+54)
(-2.42801e+53 1.11453e+56 -3.99049e+54)
(-2.42006e+53 1.11457e+56 -3.98594e+54)
(-2.41452e+53 1.11488e+56 -3.94796e+54)
(-2.40116e+53 1.1141e+56 -3.94053e+54)
(-2.37471e+53 1.11746e+56 -3.74435e+54)
(-2.40156e+53 1.10816e+56 -4.08862e+54)
(-1.80707e+53 1.2056e+56 2.84289e+54)
(-2.34958e+53 1.0783e+56 -1.74517e+54)
(-2.35859e+53 1.07432e+56 -1.91483e+54)
(-2.3439e+53 1.07418e+56 -1.98034e+54)
(-2.33558e+53 1.07419e+56 -1.98457e+54)
(-2.32794e+53 1.07466e+56 -1.94542e+54)
(-2.32231e+53 1.07364e+56 -1.95225e+54)
(-2.31107e+53 1.07684e+56 -1.74627e+54)
(-2.31862e+53 1.06806e+56 -2.15497e+54)
(-1.75828e+53 1.16379e+56 5.27549e+54)
(-2.26879e+53 1.03754e+56 1.70507e+53)
(-2.27812e+53 1.03343e+56 -3.24211e+51)
(-2.27624e+53 1.03371e+56 -5.66035e+52)
(-2.26328e+53 1.03312e+56 -7.89221e+51)
(-2.25036e+53 1.0335e+56 6.85681e+52)
(-2.24671e+53 1.0328e+56 6.8908e+52)
(-2.23044e+53 1.03625e+56 2.68167e+53)
(-2.25691e+53 1.02752e+56 -1.20943e+53)
(-1.72106e+53 1.12533e+56 7.5288e+54)
(-2.19523e+53 9.9698e+55 2.09734e+54)
(-2.20499e+53 9.93489e+55 1.91018e+54)
(-2.20181e+53 9.93985e+55 1.85719e+54)
(-2.19634e+53 9.9393e+55 1.89145e+54)
(-2.192e+53 9.95712e+55 1.79471e+54)
(-2.18399e+53 9.93759e+55 2.20434e+54)
(-2.1826e+53 9.94463e+55 2.27768e+54)
(-2.16854e+53 9.99534e+55 2.5036e+54)
(-2.19614e+53 9.91208e+55 2.17029e+54)
(-1.68262e+53 1.09972e+56 9.41585e+54)
(-2.14056e+53 9.65729e+55 4.22999e+54)
(-2.13909e+53 9.63508e+55 4.06876e+54)
(-2.13449e+53 9.65153e+55 4.02664e+54)
(-2.13316e+53 9.6632e+55 4.07907e+54)
(-2.12063e+53 9.71012e+55 3.97863e+54)
(-2.14982e+53 9.72557e+55 4.48304e+54)
(-2.30194e+53 9.69297e+55 7.36992e+54)
(-2.40254e+53 9.60575e+55 8.14204e+54)
(-1.68454e+53 1.20746e+56 1.02808e+55)
(-2.37613e+53 9.83957e+55 9.67168e+54)
(-2.52157e+53 9.91479e+55 1.01064e+55)
(-1.59521e+53 9.19337e+55 6.64418e+54)
(-1.80138e+53 1.08859e+56 7.52265e+54)
(-2.06568e+53 1.17616e+56 9.13746e+54)
(-1.35752e+53 8.0452e+55 5.67162e+54)
(-1.86633e+53 1.11667e+56 7.8242e+54)
(-1.34599e+53 8.18093e+55 5.50976e+54)
(-1.66135e+53 9.70487e+55 6.18923e+54)
(-1.93494e+53 1.04808e+56 7.12654e+54)
(-1.30983e+53 7.43955e+55 4.67149e+54)
(-1.60225e+53 8.95024e+55 5.47745e+54)
(-1.87994e+53 9.92363e+55 6.62075e+54)
(-1.23551e+53 6.76017e+55 4.16668e+54)
(-1.71823e+53 9.62998e+55 5.82462e+54)
(-1.23975e+53 7.05008e+55 4.40189e+54)
(-1.53653e+53 8.47371e+55 5.33733e+54)
(-1.82502e+53 9.56961e+55 9.6961e+54)
(-1.20421e+53 6.52127e+55 5.819e+54)
(-1.67422e+53 9.3782e+55 1.15352e+55)
(-1.20782e+53 6.81594e+55 7.91006e+54)
(-1.49731e+53 8.23862e+55 1.19367e+55)
(-1.76733e+53 9.15426e+55 1.79738e+55)
(-1.19852e+53 6.48093e+55 1.18613e+55)
(-1.47539e+53 7.83649e+55 1.65051e+55)
(-1.74612e+53 9.85786e+55 1.0663e+55)
(-1.15821e+53 6.49926e+55 1.03917e+55)
(-1.57571e+53 1.06915e+56 -6.72263e+54)
(-1.14319e+53 7.79912e+55 -2.06485e+54)
(-1.35554e+53 1.05524e+56 -2.62947e+55)
(-1.46919e+53 1.42622e+56 -7.03142e+55)
(-9.51064e+52 1.05642e+56 -4.77634e+55)
(-1.3047e+53 1.56597e+56 -8.12341e+55)
(-9.29911e+52 1.23875e+56 -5.83609e+55)
(-1.15719e+53 1.51989e+56 -7.89165e+55)
(-1.40333e+53 1.72523e+56 -1.01399e+56)
(-9.33318e+52 1.32011e+56 -6.86038e+55)
(-1.17285e+53 1.6231e+56 -8.91916e+55)
(-1.41576e+53 1.78533e+56 -1.11625e+56)
(-9.04862e+52 1.32484e+56 -7.57093e+55)
(-1.27169e+53 1.77655e+56 -1.07798e+56)
(-8.82611e+52 1.38854e+56 -8.0669e+55)
(-1.09511e+53 1.62772e+56 -1.03073e+56)
(-1.16203e+53 1.61108e+56 -1.19858e+56)
(-7.18306e+52 1.18751e+56 -8.89287e+55)
(-8.47679e+52 1.4376e+56 -1.14867e+56)
(-5.43193e+52 1.09284e+56 -9.49064e+55)
(-5.30868e+52 1.26243e+56 -1.17324e+56)
(1.73351e+52 1.43885e+56 -1.44128e+56)
(8.0272e+51 5.97646e+55 -1.17376e+56)
(1.59494e+53 1.57453e+56 -1.90133e+56)
(1.62317e+53 7.87211e+55 -1.17372e+56)
(-9.95342e+51 -3.78238e+55 -2.96744e+55)
(-1.61798e+52 -1.77805e+55 -1.93302e+55)
(-8.63805e+52 -7.31444e+55 2.41246e+55)
(-1.49392e+53 -1.10462e+56 6.67912e+55)
(-2.27927e+53 -2.26476e+56 1.25062e+56)
(-2.12844e+53 -2.17595e+56 1.20838e+56)
(-3.12872e+53 -3.33564e+56 1.85954e+56)
(-2.67963e+53 -2.86495e+56 1.63695e+56)
(-4.20496e+53 -4.52739e+56 2.65135e+56)
(-4.26837e+53 -5.23984e+56 2.76811e+56)
(-3.64046e+53 -4.60021e+56 2.40967e+56)
(-5.53789e+53 -6.96531e+56 3.69261e+56)
(-5.28378e+53 -7.52513e+56 3.59922e+56)
(-4.39577e+53 -6.68526e+56 3.098e+56)
(-6.1859e+53 -9.55228e+56 4.34956e+56)
(-4.74497e+53 -7.49329e+56 3.43373e+56)
(-7.22195e+53 -1.12649e+57 5.19381e+56)
(-6.58074e+53 -1.13454e+57 4.80259e+56)
(-5.41923e+53 -9.97242e+56 4.10506e+56)
(-7.54784e+53 -1.39911e+57 5.66147e+56)
(-5.69153e+53 -1.07205e+57 4.41472e+56)
(-8.59024e+53 -1.59063e+57 6.59296e+56)
(-7.66784e+53 -1.53349e+57 5.96959e+56)
(-6.33047e+53 -1.3124e+57 5.08747e+56)
(-9.30425e+53 -1.88035e+57 7.36088e+56)
(-8.24513e+53 -1.81343e+57 6.68006e+56)
(-6.74863e+53 -1.56884e+57 5.74527e+56)
(-9.30124e+53 -2.18857e+57 7.79648e+56)
(-6.96209e+53 -1.57974e+57 6.05173e+56)
(-1.07676e+54 -2.17756e+57 9.44059e+56)
(5.75018e+51 4.12345e+53 6.78171e+54)
(5.84592e+51 -5.10658e+53 6.35176e+54)
(5.97202e+51 -1.92374e+54 6.30051e+54)
(6.04403e+51 -4.99154e+54 5.57794e+54)
(6.06564e+51 -2.64297e+54 6.01472e+54)
(6.19268e+51 -1.48107e+54 5.88322e+54)
(6.41529e+51 -3.30101e+54 5.109e+54)
(6.66011e+51 -6.64786e+54 2.70114e+54)
(6.81494e+51 -3.2798e+54 2.8592e+54)
(6.62754e+51 -2.56107e+54 3.36615e+54)
(6.67961e+51 -1.78514e+54 3.45554e+54)
(6.96966e+51 -7.41442e+54 2.80303e+54)
(7.11168e+51 -2.69957e+54 3.35211e+54)
(7.29485e+51 -1.1308e+55 6.57619e+53)
(7.33184e+51 -3.75682e+54 2.529e+54)
(7.79405e+51 -2.22686e+54 2.31946e+54)
(8.13456e+51 -3.79677e+54 -2.80597e+53)
(5.70357e+51 4.7047e+54 -1.50548e+54)
(5.57356e+51 1.40534e+55 2.09918e+54)
(5.95457e+51 -4.77783e+54 1.24705e+54)
(6.37942e+51 3.7315e+54 2.40282e+54)
(6.61716e+51 2.54221e+54 2.34258e+54)
(6.72573e+51 4.0817e+54 3.24631e+54)
(6.75791e+51 -3.61079e+54 9.41553e+53)
(6.8751e+51 4.74206e+54 2.57198e+54)
(7.07251e+51 4.47105e+54 1.96021e+54)
(7.40599e+51 4.24439e+54 3.25158e+54)
(7.62302e+51 3.92152e+54 3.71823e+54)
(7.78292e+51 3.38379e+54 4.1853e+54)
(7.93978e+51 2.51373e+54 4.03213e+54)
(8.08208e+51 2.01668e+54 3.86339e+54)
(8.22371e+51 5.13262e+53 3.11033e+54)
(8.6353e+51 -1.55026e+54 2.10771e+54)
(8.99019e+51 -2.10752e+54 1.84222e+54)
(9.20696e+51 -3.11528e+54 2.91776e+54)
(9.32203e+51 -4.04248e+54 2.59448e+54)
(9.48356e+51 -5.16102e+54 2.12279e+54)
(9.49326e+51 -5.66894e+54 2.36831e+52)
(9.07392e+51 1.7755e+53 1.72369e+54)
(9.99378e+51 -3.86097e+54 -8.66105e+53)
(9.70118e+51 -9.15179e+51 9.88486e+53)
(1.05669e+52 1.58025e+54 1.60044e+54)
(1.07075e+52 -1.80849e+54 1.32925e+54)
(1.1069e+52 -3.57071e+54 1.30802e+54)
(1.1941e+52 -6.57344e+54 -1.13249e+54)
(1.2111e+52 -8.17516e+53 -1.64303e+54)
(1.22966e+52 -7.57151e+53 -1.50682e+54)
(1.1497e+52 1.6802e+54 -3.18136e+54)
(1.00403e+52 6.43132e+53 -3.95296e+54)
(8.76329e+51 -2.4712e+54 -2.28731e+54)
(1.02439e+52 -2.6942e+54 -3.92061e+53)
(1.19732e+52 -4.34893e+54 4.48575e+53)
(1.33579e+52 -5.30792e+54 -9.05736e+53)
(1.31688e+52 -4.8673e+54 -1.26353e+54)
(1.41316e+52 -3.46398e+54 -9.97902e+53)
(1.73072e+52 -2.42251e+54 -1.96779e+53)
(1.62711e+52 -3.37875e+54 -1.09308e+53)
(1.36839e+52 -3.88637e+54 -7.89602e+52)
(1.15596e+52 -4.1257e+54 -7.01883e+52)
(1.06146e+52 -4.34651e+54 -8.00288e+52)
(9.43514e+51 -4.64369e+54 -9.90085e+52)
(6.96595e+51 -5.03434e+54 -1.23475e+53)
(3.99815e+51 -5.53873e+54 -1.51547e+53)
(1.61982e+51 -6.17923e+54 -1.84281e+53)
(2.87538e+50 -7.01572e+54 -2.24636e+53)
(-1.62623e+50 -8.11313e+54 -2.77867e+53)
(-2.05523e+50 -9.5656e+54 -3.49098e+53)
(-2.09129e+50 -1.14713e+55 -4.42022e+53)
(-2.49509e+50 -1.39512e+55 -5.60871e+53)
(-2.71946e+50 -1.71555e+55 -6.9738e+53)
(-2.56014e+50 -2.11603e+55 -8.57781e+53)
(-2.31583e+50 -2.61498e+55 -9.34875e+53)
(-2.2701e+50 -3.14285e+55 -7.54474e+53)
(4.14864e+50 -3.37263e+55 4.43882e+53)
(4.41696e+51 -2.42564e+55 6.51245e+54)
(-1.45093e+52 -8.41845e+55 3.12088e+55)
(-8.9217e+52 -2.97864e+56 1.13135e+56)
(-2.95958e+53 -7.86932e+56 3.37226e+56)
(-7.09131e+53 -1.61553e+57 7.60826e+56)
(5.64479e+51 8.04523e+52 7.17479e+54)
(5.7568e+51 -9.89962e+53 6.58546e+54)
(5.92812e+51 -2.73889e+54 6.12669e+54)
(6.07636e+51 -5.01037e+54 5.09746e+54)
(6.16642e+51 -6.31729e+54 3.63221e+54)
(6.26161e+51 -3.24671e+54 4.8113e+54)
(6.4549e+51 -4.32725e+54 4.73728e+54)
(6.67268e+51 -6.99229e+54 2.81946e+54)
(6.82229e+51 -4.40474e+54 2.87177e+54)
(6.63043e+51 -3.54358e+54 3.55814e+54)
(6.71209e+51 -3.36587e+54 3.87039e+54)
(6.97598e+51 -7.58404e+54 2.9678e+54)
(7.11556e+51 -3.51918e+54 4.17169e+54)
(7.29013e+51 -1.08422e+55 1.45152e+54)
(7.371e+51 -2.704e+54 3.011e+54)
(7.87718e+51 -9.51617e+53 1.86516e+54)
(8.09594e+51 -1.88563e+54 -1.30662e+54)
(5.57406e+51 3.8232e+54 -1.52591e+54)
(5.82916e+51 8.21022e+54 2.36245e+54)
(5.96048e+51 -3.13895e+54 1.42961e+54)
(6.40215e+51 3.33596e+54 2.27712e+54)
(6.64243e+51 2.07219e+54 2.60725e+54)
(6.74766e+51 2.57309e+54 3.14593e+54)
(6.76877e+51 -1.75422e+54 1.14988e+54)
(6.90552e+51 4.81051e+54 2.6942e+54)
(7.04836e+51 4.25011e+54 1.8668e+54)
(7.40379e+51 3.70613e+54 3.378e+54)
(7.58258e+51 3.87364e+54 3.59442e+54)
(7.74127e+51 3.44668e+54 4.29359e+54)
(7.91496e+51 2.58456e+54 4.19803e+54)
(8.10322e+51 1.9894e+54 3.98815e+54)
(8.27646e+51 9.39725e+53 3.42266e+54)
(8.60697e+51 -1.71468e+54 1.74048e+54)
(8.93524e+51 -2.30068e+54 1.57539e+54)
(9.28059e+51 -6.64113e+54 -3.02763e+53)
(9.32289e+51 -4.69667e+54 2.4053e+54)
(9.48198e+51 -5.7718e+54 2.57038e+54)
(9.46153e+51 -5.64114e+54 5.32394e+53)
(9.08908e+51 -3.70322e+53 2.10355e+54)
(9.951e+51 -3.89043e+54 -2.60177e+53)
(9.689e+51 -6.46743e+52 1.43426e+54)
(1.04779e+52 2.00906e+54 2.48824e+54)
(1.07438e+52 -1.15212e+54 2.18532e+54)
(1.11416e+52 -2.96169e+54 1.45078e+54)
(1.19485e+52 -5.86268e+54 -1.11907e+54)
(1.20994e+52 1.27176e+54 -2.18009e+54)
(1.23413e+52 1.01925e+54 -3.06205e+54)
(1.11023e+52 2.05568e+54 -3.4784e+54)
(9.67853e+51 1.27299e+54 -4.29244e+54)
(8.59897e+51 -2.97523e+54 -2.35676e+54)
(1.0058e+52 -3.44456e+54 -9.82543e+53)
(1.18502e+52 -4.8101e+54 1.35948e+53)
(1.33096e+52 -5.73874e+54 -7.62038e+53)
(1.31851e+52 -5.33487e+54 -9.28396e+53)
(1.41188e+52 -3.84089e+54 -5.53378e+53)
(1.73407e+52 -2.60695e+54 2.42332e+53)
(1.6204e+52 -3.38031e+54 1.49922e+53)
(1.36145e+52 -3.79821e+54 7.6129e+52)
(1.15309e+52 -3.99586e+54 -1.7462e+52)
(1.06016e+52 -4.22088e+54 -1.21257e+53)
(9.41866e+51 -4.55987e+54 -2.0681e+53)
(6.9601e+51 -5.016e+54 -2.66273e+53)
(4.00565e+51 -5.59563e+54 -3.03091e+53)
(1.63095e+51 -6.3105e+54 -3.31369e+53)
(2.93914e+50 -7.21688e+54 -3.66676e+53)
(-1.61393e+50 -8.38167e+54 -4.23354e+53)
(-2.06025e+50 -9.90452e+54 -5.11131e+53)
(-2.09086e+50 -1.1891e+55 -6.34925e+53)
(-2.49092e+50 -1.44696e+55 -7.99449e+53)
(-2.71867e+50 -1.77996e+55 -9.92182e+53)
(-2.56267e+50 -2.19675e+55 -1.21537e+54)
(-2.31761e+50 -2.7178e+55 -1.33527e+54)
(-2.27387e+50 -3.27938e+55 -1.059e+54)
(5.51162e+50 -3.55382e+55 4.86061e+53)
(4.67901e+51 -2.77676e+55 5.82762e+54)
(-1.59875e+52 -9.63303e+55 2.75846e+55)
(-9.83277e+52 -3.35946e+56 1.14638e+56)
(-3.27263e+53 -8.71355e+56 3.56725e+56)
(-7.47629e+53 -1.72068e+57 7.45222e+56)
(5.54343e+51 1.55592e+53 7.04961e+54)
(5.66807e+51 -1.03935e+54 6.52484e+54)
(5.8707e+51 -2.86918e+54 5.89996e+54)
(6.06029e+51 -4.95344e+54 4.91384e+54)
(6.18645e+51 -5.27068e+54 3.60024e+54)
(6.28484e+51 -3.28485e+54 4.72352e+54)
(6.46116e+51 -4.33722e+54 4.5733e+54)
(6.65368e+51 -6.68412e+54 2.97726e+54)
(6.80728e+51 -4.57986e+54 2.68177e+54)
(6.66328e+51 -3.30528e+54 3.90132e+54)
(6.76794e+51 -4.07147e+54 4.14129e+54)
(6.96893e+51 -7.68474e+54 2.87729e+54)
(7.14099e+51 -4.58129e+54 3.6114e+54)
(7.27416e+51 -1.08741e+55 1.48147e+54)
(7.39906e+51 -3.25339e+54 3.04641e+54)
(7.95861e+51 -1.37815e+54 1.9902e+54)
(8.01001e+51 -1.91232e+54 -1.02313e+54)
(5.58164e+51 3.43669e+54 -1.65672e+54)
(5.85321e+51 8.18743e+54 1.45745e+54)
(5.97532e+51 -2.89014e+54 1.59367e+54)
(6.41655e+51 2.89022e+54 2.45168e+54)
(6.6426e+51 1.87013e+54 2.58586e+54)
(6.75273e+51 2.73032e+54 2.88104e+54)
(6.77952e+51 -1.60225e+54 1.34986e+54)
(6.90577e+51 3.96378e+54 2.81681e+54)
(7.05613e+51 3.90945e+54 2.53227e+54)
(7.36085e+51 3.64116e+54 3.68486e+54)
(7.49039e+51 3.89853e+54 3.69117e+54)
(7.63333e+51 3.49507e+54 4.38749e+54)
(7.81281e+51 2.77788e+54 4.34828e+54)
(8.04263e+51 2.31287e+54 4.16246e+54)
(8.31933e+51 1.11801e+54 3.62819e+54)
(8.5847e+51 -8.19684e+53 2.36556e+54)
(8.82231e+51 -1.99012e+54 1.33969e+54)
(9.36119e+51 -7.73298e+54 -2.62718e+54)
(9.36078e+51 -5.48197e+54 1.43736e+54)
(9.48353e+51 -5.65275e+54 2.39176e+54)
(9.43733e+51 -5.3147e+54 7.33772e+53)
(9.07537e+51 -3.37742e+53 2.33814e+54)
(9.93915e+51 -3.87653e+54 -2.46125e+53)
(9.63701e+51 -1.31821e+53 1.517e+54)
(1.04408e+52 9.76138e+53 2.01377e+54)
(1.07856e+52 -1.50726e+54 2.39019e+54)
(1.12134e+52 -3.23127e+54 1.53786e+54)
(1.19579e+52 -5.72993e+54 -9.93065e+53)
(1.21148e+52 5.39935e+53 -2.10819e+54)
(1.24744e+52 7.86431e+53 -4.21156e+54)
(1.08309e+52 2.06649e+54 -3.51121e+54)
(9.47388e+51 1.07748e+54 -4.78475e+54)
(8.44014e+51 -2.81352e+54 -2.60139e+54)
(9.81025e+51 -3.16304e+54 -1.2951e+54)
(1.1687e+52 -4.60591e+54 -2.24852e+53)
(1.32347e+52 -5.59228e+54 -8.31376e+53)
(1.32039e+52 -5.37405e+54 -9.54414e+53)
(1.40473e+52 -4.02202e+54 -5.14483e+53)
(1.72715e+52 -2.81559e+54 3.51151e+53)
(1.6178e+52 -3.53735e+54 2.67246e+53)
(1.35679e+52 -3.94951e+54 1.63618e+53)
(1.15046e+52 -4.13996e+54 5.94723e+52)
(1.05873e+52 -4.34986e+54 -6.6754e+52)
(9.39785e+51 -4.66389e+54 -1.80662e+53)
(6.94757e+51 -5.08949e+54 -2.67796e+53)
(4.00959e+51 -5.63775e+54 -3.28578e+53)
(1.64256e+51 -6.32409e+54 -3.77703e+53)
(3.01782e+50 -7.20611e+54 -4.32816e+53)
(-1.59662e+50 -8.35084e+54 -5.11317e+53)
(-2.06692e+50 -9.85627e+54 -6.25824e+53)
(-2.09035e+50 -1.18268e+55 -7.83291e+53)
(-2.48488e+50 -1.43893e+55 -9.9057e+53)
(-2.71743e+50 -1.77045e+55 -1.23349e+54)
(-2.56637e+50 -2.18645e+55 -1.51532e+54)
(-2.32026e+50 -2.71004e+55 -1.68636e+54)
(-2.28312e+50 -3.28556e+55 -1.42419e+54)
(6.99773e+50 -3.59768e+55 3.1957e+53)
(5.01326e+51 -2.97495e+55 4.16891e+54)
(-1.77881e+52 -1.07001e+56 2.35509e+55)
(-1.11754e+53 -3.73165e+56 1.22198e+56)
(-3.67072e+53 -9.49082e+56 3.87247e+56)
(-7.73206e+53 -1.7502e+57 7.2413e+56)
(5.42315e+51 2.27686e+53 7.06782e+54)
(5.55632e+51 -9.60325e+53 6.50193e+54)
(5.8008e+51 -2.89672e+54 5.72862e+54)
(6.03705e+51 -4.90037e+54 4.79543e+54)
(6.18262e+51 -5.48021e+54 3.51532e+54)
(6.28944e+51 -3.74526e+54 4.56009e+54)
(6.45425e+51 -4.58972e+54 4.41262e+54)
(6.63126e+51 -6.59359e+54 3.12719e+54)
(6.77689e+51 -4.54299e+54 2.99135e+54)
(6.68856e+51 -3.34834e+54 3.99158e+54)
(6.8182e+51 -4.25898e+54 3.66796e+54)
(6.96629e+51 -7.69034e+54 2.73643e+54)
(7.16713e+51 -5.18228e+54 3.42492e+54)
(7.2641e+51 -1.05787e+55 1.53596e+54)
(7.40937e+51 -3.08278e+54 2.91645e+54)
(7.97599e+51 -9.30377e+53 2.09127e+54)
(7.8439e+51 -1.33886e+54 -6.94879e+53)
(5.63225e+51 3.28828e+54 -1.56684e+54)
(5.88407e+51 5.43826e+54 1.01174e+54)
(6.00396e+51 -2.20994e+54 1.83254e+54)
(6.43006e+51 3.27445e+54 2.53494e+54)
(6.64728e+51 2.23932e+54 2.70915e+54)
(6.75775e+51 2.743e+54 2.6765e+54)
(6.791e+51 -1.18506e+54 1.49098e+54)
(6.91506e+51 4.45911e+54 3.15902e+54)
(7.14372e+51 4.91516e+54 3.62429e+54)
(7.32018e+51 3.52508e+54 3.90708e+54)
(7.40119e+51 3.79278e+54 3.92382e+54)
(7.52358e+51 3.44687e+54 4.50496e+54)
(7.68607e+51 2.79427e+54 4.46634e+54)
(7.89968e+51 2.41458e+54 4.30728e+54)
(8.18653e+51 1.64753e+54 3.93497e+54)
(8.43518e+51 -4.21901e+53 2.87831e+54)
(8.7103e+51 -1.49797e+54 1.67817e+54)
(9.24864e+51 -6.73888e+54 -1.50956e+54)
(9.3836e+51 -5.71291e+54 1.0798e+54)
(9.48822e+51 -5.75178e+54 2.27464e+54)
(9.41938e+51 -5.08323e+54 8.16314e+53)
(9.05773e+51 -1.82532e+53 2.76925e+54)