/*--------------------------------*- C++ -*----------------------------------*\
| =========                 |                                                 |
| \\      /  F ield         | OpenFOAM: The Open Source CFD Toolbox           |
|  \\    /   O peration     | Version:  4.1                                   |
|   \\  /    A nd           | Web:      www.OpenFOAM.org                      |
|    \\/     M anipulation  |                                                 |
\*---------------------------------------------------------------------------*/
FoamFile
{
    version     2.0;
    format      ascii;
    class       volScalarField;
    location    "17";
    object      p;
}
// * * * * * * * * * * * * * * * * * * * * * * * * * * * * * * * * * * * * * //

dimensions      [0 2 -2 0 0 0 0];

internalField   nonuniform List<scalar> 
6785
(
584.305
505.544
458.423
404.881
358.03
312.923
270.939
231.254
193.831
158.529
124.549
91.5592
63.7514
35.2183
-5.07152
-34.2403
-52.3378
-42.6278
-50.0033
-49.6585
-52.3414
-53.2494
-53.9809
-53.7501
-52.6413
-50.511
-47.5868
-43.5038
-38.7033
-35.1221
-18.8575
-22.3116
-13.1442
-17.3195
-13.3784
-14.1936
-13.1582
-13.2107
-13.082
-13.2871
-13.5437
-13.9662
-13.8328
-13.234
-10.5885
18.0859
17.0302
20.8254
16.6608
19.492
17.3504
18.0668
17.417
17.4558
17.2049
17.22
17.3974
18.3881
19.439
21.7542
24.6486
24.3554
27.0427
25.1395
28.4744
27.7467
29.9274
30.5662
31.9534
32.9017
33.8198
34.3647
34.5669
35.1132
35.7501
34.5694
32.3353
34.2848
31.7273
33.6929
31.8638
32.7158
31.6288
31.2929
29.9761
28.3833
26.4861
25.1725
24.2513
21.6057
3.04225
-1.72739
-1.85585
-6.03653
-6.73995
-10.4215
-11.9696
-15.068
-16.9019
-18.8359
-19.859
-20.4181
-20.8312
-21.9823
-23.6916
-32.607
-36.2883
-35.8176
-38.8022
-38.7346
-41.28
-41.8457
-43.6613
-44.4068
-45.1087
-45.3363
-45.5167
-45.6542
-45.8862
-44.0235
-27.7785
-27.8892
-26.0852
-26.9023
-25.2139
-25.6224
-24.6299
-24.5541
-24.068
-23.7504
-23.194
-22.5748
-21.1985
-19.6794
-16.6867
-4.37654
-2.80461
-0.875818
-0.458544
1.56793
2.27888
3.90744
5.05647
6.47452
7.82147
9.28544
10.6825
12.2913
13.5527
15.2041
12.5285
13.862
15.084
15.4287
16.7976
17.2314
18.2975
18.9822
19.8381
20.6031
21.4198
22.1482
22.9963
23.5893
24.4314
21.9414
23.2562
24.1164
24.4344
25.507
25.8651
26.7071
27.2533
27.9258
28.534
29.1942
29.8143
30.6059
31.1393
32.0752
41.9018
42.334
42.1832
42.1348
42.5099
42.1378
42.1056
41.6625
41.283
40.9339
40.843
41.1341
41.6833
42.1335
42.5537
40.7173
41.3637
39.5206
37.6431
36.2517
35.0577
34.6375
34.4151
34.6783
35.0308
35.4753
35.8627
36.0238
36.1885
35.7296
76.6475
73.393
65.816
58.6501
53.7336
48.2246
43.6867
40.3072
36.7285
33.986
31.602
29.7461
28.2791
27.6442
26.3339
42.4364
42.7756
42.9589
42.9609
43.0394
43.2471
43.6908
43.5656
43.5186
43.4309
43.6885
43.3787
43.3095
43.4494
42.9948
42.9478
43.0467
43.1371
42.378
42.8066
42.838
42.0683
42.0433
42.6077
42.6367
41.7611
41.757
42.3793
42.7134
41.5579
42.3912
42.8306
41.9168
41.9084
42.6242
43.1418
42.1621
42.9527
43.4071
42.802
42.8472
43.5529
43.851
43.4413
43.537
44.1229
44.331
44.0007
44.6792
44.6527
44.5226
44.7301
45.2013
45.5163
45.4816
45.6478
45.9336
46.56
46.5673
46.704
47.1495
47.1314
47.1201
46.99
47.6817
47.9387
48.5826
48.9521
48.4115
50.0427
51.3915
47.2256
45.3436
49.6167
53.9692
33.7547
45.9119
53.281
11.1293
26.614
37.7765
38.8502
43.8284
36.0505
40.7766
48.2604
49.1762
50.9849
52.1571
53.0805
52.3684
54.3889
60.347
46.6113
47.5926
45.211
43.4645
42.9213
42.0064
39.6819
41.5758
53.7562
32.0946
31.5396
28.7272
27.4707
27.7794
26.9411
24.7534
22.1329
22.246
40.2917
22.9651
21.1273
18.4605
15.4677
15.2952
16.3175
14.1161
10.5316
18.8507
16.6677
17.6823
16.665
13.4092
10.8928
7.84848
8.78133
5.37104
12.4203
18.5855
13.4663
13.0754
11.6906
9.08585
7.04599
5.37625
-1.40903
3.13405
17.0353
12.479
11.2705
8.84985
6.37289
4.48237
3.9535
3.35779
0.840498
-4.76443
9.3295
6.15704
6.72562
6.27781
5.37135
0.862931
0.0881252
2.58514
-11.3722
6.31906
3.17175
0.753558
7.89687
2.07269
5.25616
4.27733
6.2717
9.03469
5.12991
7.54737
9.2143
6.66035
7.83238
7.19083
8.08388
9.55036
7.34496
8.24277
7.60543
8.33323
9.37847
7.30186
8.36782
9.02733
7.57354
8.08653
7.61821
8.01525
8.67485
7.38837
7.7994
7.3691
7.6928
8.17638
6.95732
7.47031
7.74795
6.8742
7.09194
6.78161
6.9271
7.20037
6.43536
6.59592
6.3134
6.41807
6.57857
5.87229
6.07214
6.10867
5.5852
5.63023
5.41529
5.41899
5.43284
4.97947
4.98343
4.78378
4.76337
4.7049
4.27949
4.29186
4.16689
3.80967
3.74043
3.51941
3.47549
3.47062
3.06791
2.90152
2.84508
2.59625
2.52142
2.16189
1.95727
1.90751
1.35377
1.07948
0.857773
0.4759
0.234629
0.00153058
0.00245345
0.00383
0.00473527
0.00571588
0.00652681
0.00729911
0.00798032
0.00860033
0.00915626
0.00965999
0.0101234
0.0105604
0.0109886
0.0114238
0.0118809
0.0123695
0.012895
0.0134585
0.0140605
0.0147075
0.0154246
0.0162735
0.0173619
0.0188291
0.0207825
0.023193
0.0258989
0.0287506
0.0315538
0.0340776
0.0361291
0.0374911
0.0380107
0.0376248
0.0364189
0.0346925
0.0329823
0.0320128
0.0324945
0.0347947
0.0384745
0.0420298
0.0432616
0.0401116
0.031386
0.016887
-0.00253641
-0.0242727
-0.046008
-0.0760148
-0.143801
-0.187981
-0.566619
-0.704104
-0.761845
-0.955221
-1.08953
-1.16493
-1.1523
-1.05936
-0.894978
-0.719489
-0.515163
-0.301414
-0.103139
0.0849327
0.232187
0.352583
0.432886
0.492114
0.5113
0.5279
0.513917
0.490591
0.523992
0.45098
0.514935
0.471446
0.0042396
0.00659655
0.010326
0.0127961
0.0153652
0.0174866
0.0194414
0.0211386
0.0226347
0.0239424
0.0250881
0.0261134
0.0270567
0.027971
0.0289008
0.0298889
0.0309619
0.0321344
0.0334084
0.034785
0.0362808
0.0379651
0.0400092
0.0427152
0.0464736
0.0515818
0.0579381
0.0650648
0.0725441
0.0798404
0.0863277
0.0915015
0.0947954
0.0958365
0.094483
0.0908824
0.0854281
0.0785139
0.0702422
0.060277
0.048204
0.0339408
0.0178992
0.000917995
-0.0162083
-0.0333235
-0.0512025
-0.0711043
-0.0947444
-0.126085
-0.161043
-0.209963
-0.35003
-0.666884
-1.04703
-1.17172
-1.48756
-1.69421
-1.83565
-1.87593
-1.81078
-1.59412
-1.32356
-0.969276
-0.577793
-0.202365
0.159039
0.450212
0.680212
0.84086
0.936969
0.983772
0.994147
0.991728
0.949833
1.00447
0.94798
0.97084
1.32498
0.00662731
0.0107589
0.0171777
0.0214339
0.0258834
0.029563
0.0329737
0.0359472
0.0385874
0.04091
0.0429621
0.0448115
0.0465238
0.0481873
0.0498776
0.0516668
0.0536
0.0557021
0.0579762
0.0604235
0.0630712
0.0660344
0.0696019
0.0742856
0.080752
0.0895112
0.100395
0.112598
0.125419
0.137947
0.149126
0.15809
0.16387
0.165824
0.163727
0.157923
0.149336
0.139121
0.128134
0.116455
0.103573
0.0886499
0.0706892
0.0488219
0.0222872
-0.0097847
-0.0485646
-0.095126
-0.150342
-0.217393
-0.296174
-0.434487
-0.728168
-0.512811
-1.21001
-1.33479
-1.70376
-1.94479
-2.12128
-2.19302
-2.14731
-1.90926
-1.59881
-1.17472
-0.700427
-0.241375
0.20227
0.56111
0.84369
1.04275
1.15849
1.21673
1.22811
1.21852
1.18656
1.20674
1.20808
1.15225
1.66575
0.00884778
0.014667
0.0236017
0.0295807
0.0357878
0.0409342
0.0456878
0.0498322
0.0535037
0.05673
0.0595746
0.0621343
0.0645002
0.0667968
0.0691297
0.0716003
0.0742714
0.0771771
0.0803212
0.0837034
0.0873583
0.0914423
0.0963557
0.102817
0.11177
0.12394
0.139084
0.15606
0.173898
0.191323
0.20687
0.219335
0.227367
0.230065
0.227101
0.218951
0.206892
0.192511
0.176882
0.159858
0.140392
0.117138
0.0889882
0.0555056
0.0165676
-0.0283599
-0.0807092
-0.142481
-0.216384
-0.307419
-0.414754
-0.595243
-0.952143
-0.35804
-1.54334
-1.62822
-2.06211
-2.3605
-2.58121
-2.6818
-2.64018
-2.35447
-1.97713
-1.45339
-0.865881
-0.295902
0.255432
0.701509
1.05272
1.30071
1.4448
1.51664
1.53271
1.51172
1.48667
1.47701
1.51447
1.40466
2.02381
0.0108515
0.0184802
0.0299529
0.0377208
0.0457383
0.0524097
0.0585602
0.0639301
0.0686854
0.072867
0.0765543
0.079873
0.0829404
0.0859174
0.0889409
0.0921417
0.0956008
0.099362
0.103429
0.107797
0.112507
0.117751
0.12404
0.132306
0.143787
0.159444
0.178956
0.200832
0.223836
0.246313
0.266395
0.282527
0.292955
0.296485
0.292645
0.282014
0.266267
0.247569
0.227481
0.205964
0.181768
0.153211
0.118804
0.0776682
0.0290544
-0.0283294
-0.0966648
-0.178664
-0.27777
-0.399378
-0.546777
-0.780138
-1.10884
-0.299307
-1.93188
-1.96227
-2.44626
-2.80833
-3.07808
-3.21338
-3.18039
-2.84453
-2.39503
-1.76135
-1.04884
-0.356251
0.314005
0.856415
1.2826
1.58414
1.75752
1.84471
1.86371
1.83327
1.81102
1.77829
1.84033
1.68672
2.25427
0.0126923
0.0221643
0.0360902
0.0456545
0.0554502
0.0636362
0.07116
0.0777365
0.0835522
0.0886659
0.0931702
0.0972217
0.100963
0.104593
0.108278
0.112181
0.116401
0.12099
0.125949
0.131271
0.136994
0.143342
0.150932
0.160915
0.174838
0.193923
0.21776
0.244485
0.272609
0.300092
0.324673
0.344444
0.357233
0.361519
0.356634
0.343223
0.323359
0.299815
0.274616
0.247729
0.217614
0.182279
0.140048
0.0899045
0.0308529
-0.0388353
-0.12199
-0.222259
-0.344343
-0.494502
-0.67992
-0.952967
-1.23467
-0.476362
-2.31337
-2.31204
-2.80603
-3.22717
-3.54432
-3.71535
-3.69305
-3.30888
-2.79142
-2.05124
-1.2192
-0.409279
0.374345
1.00787
1.50469
1.85639
2.05665
2.15793
2.17925
2.13837
2.12018
2.06141
2.14699
1.95302
2.52353
0.0143714
0.0257695
0.0420962
0.0534915
0.0650655
0.074786
0.0836918
0.091488
0.0983727
0.104427
0.109755
0.114545
0.118964
0.123249
0.127602
0.132212
0.137198
0.142621
0.148481
0.154759
0.161491
0.168923
0.177775
0.189419
0.205746
0.228262
0.256458
0.288075
0.32138
0.353933
0.383088
0.406569
0.421748
0.426713
0.42053
0.403902
0.379383
0.35049
0.319821
0.287416
0.251574
0.210139
0.161228
0.103426
0.0350877
-0.0463353
-0.144579
-0.2643
-0.411262
-0.592485
-0.819699
-1.13422
-1.4035
-0.949239
-2.683
-2.70472
-3.1735
-3.65155
-4.01724
-4.22581
-4.21358
-3.77777
-3.19062
-2.34084
-1.3878
-0.459565
0.437697
1.16178
1.72863
2.12967
2.35633
2.47122
2.49481
2.44229
2.4283
2.34208
2.44759
2.21851
2.73215
0.0159102
0.0293005
0.0479507
0.0611994
0.0745324
0.0857926
0.0960723
0.105086
0.113032
0.12002
0.126161
0.131678
0.136763
0.141692
0.146698
0.152005
0.157748
0.163997
0.170746
0.177969
0.185685
0.194159
0.204203
0.217425
0.236082
0.262009
0.294578
0.331102
0.369621
0.407275
0.441044
0.468254
0.48576
0.491178
0.483252
0.462791
0.432979
0.398216
0.361694
0.323499
0.281781
0.234237
0.178723
0.113361
0.0358405
-0.0571912
-0.170391
-0.309514
-0.481526
-0.694498
-0.963751
-1.31899
-1.62867
-1.65324
-2.96208
-3.14452
-3.55384
-4.08656
-4.50482
-4.75371
-4.75148
-4.26013
-3.60034
-2.63572
-1.55796
-0.508221
0.504954
1.32066
1.958
2.40835
2.66096
2.78935
2.81461
2.75006
2.7393
2.62576
2.74781
2.48709
3.04514
0.0173188
0.0327803
0.0536802
0.0688102
0.0838872
0.096698
0.108349
0.118582
0.127588
0.135508
0.142459
0.148697
0.15444
0.160005
0.165658
0.171656
0.178152
0.185225
0.192863
0.201024
0.209708
0.219185
0.230351
0.245061
0.265979
0.295308
0.332287
0.373761
0.417557
0.460374
0.498816
0.529753
0.549436
0.554913
0.544604
0.519569
0.48383
0.4428
0.400258
0.356299
0.30897
0.255823
0.194376
0.122149
0.0360186
-0.068306
-0.196528
-0.355579
-0.553669
-0.800086
-1.11267
-1.51195
-1.90413
-2.40879
-3.05996
-3.63681
-3.94559
-4.53268
-5.0037
-5.29505
-5.30265
-4.75172
-4.01666
-2.9323
-1.72699
-0.553551
0.576633
1.48388
2.19121
2.69003
2.96758
3.10916
3.13524
3.05842
3.05
2.90884
3.04574
2.75507
3.42614
0.0186097
0.0362193
0.0592887
0.0763253
0.0931257
0.107494
0.120508
0.131961
0.142021
0.150867
0.158618
0.165567
0.171957
0.178145
0.184435
0.191114
0.198357
0.206249
0.21477
0.22386
0.233491
0.243923
0.256131
0.27222
0.295313
0.328036
0.369464
0.415933
0.465076
0.51311
0.556247
0.590811
0.612328
0.617224
0.603694
0.5733
0.531133
0.483663
0.435156
0.385637
0.333038
0.274733
0.207814
0.129118
0.0346591
-0.0808285
-0.224144
-0.403452
-0.62831
-0.909391
-1.2658
-1.71177
-2.1981
-3.00435
-3.01128
-4.19461
-4.35932
-4.99618
-5.51729
-5.85321
-5.87009
-5.25458
-4.44085
-3.2309
-1.89475
-0.595158
0.653165
1.65175
2.42842
2.9747
3.27605
3.43051
3.45647
3.36727
3.36019
3.19102
3.33947
3.02023
3.57753
0.0197923
0.0396312
0.0647899
0.0837594
0.102262
0.118196
0.132566
0.145239
0.156346
0.166113
0.174655
0.182305
0.189329
0.196129
0.203043
0.210395
0.218379
0.227085
0.236487
0.246498
0.257056
0.268395
0.281552
0.298901
0.324074
0.360187
0.406118
0.457642
0.512211
0.565505
0.613292
0.651209
0.673957
0.677374
0.659676
0.623261
0.574463
0.520708
0.466554
0.411873
0.354495
0.29159
0.219759
0.135082
0.0326525
-0.0938352
-0.252346
-0.452339
-0.704794
-1.02185
-1.42292
-1.91854
-2.48961
-3.37671
-2.99412
-4.83642
-4.80697
-5.47736
-6.05129
-6.43286
-6.45819
-5.77216
-4.87539
-3.5328
-2.06172
-0.632879
0.735049
1.82494
2.67031
3.26297
3.58689
3.75396
3.77868
3.67726
3.67021
3.47294
3.63049
3.28488
3.82757
0.0208753
0.0430259
0.0701922
0.0911202
0.111301
0.128807
0.144524
0.158414
0.170561
0.181241
0.190565
0.198903
0.206547
0.213943
0.221469
0.229483
0.238201
0.247717
0.257996
0.268923
0.280387
0.29258
0.306584
0.325051
0.352197
0.3917
0.442198
0.498844
0.558914
0.617453
0.669688
0.710409
0.733457
0.734285
0.711524
0.668764
0.61357
0.554016
0.494726
0.435383
0.373753
0.30678
0.230529
0.140269
0.0301352
-0.107257
-0.281085
-0.502148
-0.782917
-1.13701
-1.58359
-2.13167
-2.77656
-3.65353
-3.177
-5.49549
-5.29838
-5.97342
-6.61013
-7.0385
-7.07036
-6.30694
-5.32189
-3.83847
-2.22772
-0.666229
0.822861
2.00388
2.91716
3.55495
3.89996
4.07938
4.10158
3.98831
3.97979
3.7545
3.91983
3.54824
4.1168
0.0218662
0.046413
0.0755057
0.0984178
0.120252
0.139335
0.15639
0.171494
0.184673
0.196259
0.206351
0.215364
0.223612
0.231589
0.239712
0.248377
0.257821
0.268144
0.279298
0.291136
0.303485
0.316476
0.331214
0.350641
0.379638
0.422537
0.477677
0.539518
0.60513
0.668776
0.724992
0.767598
0.789702
0.786767
0.758363
0.709489
0.64861
0.583993
0.520177
0.456706
0.391359
0.320848
0.24066
0.145207
0.0276318
-0.12057
-0.309833
-0.552338
-0.862087
-1.25414
-1.74713
-2.35028
-3.06022
-3.9161
-3.69052
-6.10921
-5.84128
-6.48106
-7.19643
-7.67628
-7.71074
-6.86187
-5.78228
-4.1485
-2.39279
-0.694765
0.917443
2.1893
3.1693
3.85063
4.21515
4.40659
4.42484
4.30035
4.28863
4.03554
4.20725
3.80879
4.40314
0.0227712
0.0498007
0.0807389
0.10566
0.129122
0.149787
0.168167
0.184483
0.198684
0.211166
0.222015
0.231686
0.240521
0.249061
0.257764
0.267069
0.277231
0.288357
0.300383
0.313129
0.326346
0.340077
0.355422
0.375629
0.40634
0.452648
0.512514
0.579606
0.650715
0.719091
0.778436
0.821601
0.841303
0.833638
0.799634
0.745535
0.680047
0.611196
0.543461
0.476378
0.407827
0.334276
0.250601
0.150308
0.0255265
-0.133404
-0.338209
-0.602477
-0.941746
-1.37238
-1.91253
-2.57212
-3.33947
-4.20121
-4.52711
-6.62187
-6.42736
-6.99616
-7.81099
-8.35342
-8.38469
-7.44047
-6.2589
-4.46392
-2.55718
-0.71806
1.01967
2.38227
3.42761
4.15018
4.53233
4.73547
4.74822
4.61336
4.5965
4.31604
4.49209
4.06753
4.64024
0.0235959
0.0531965
0.0859002
0.112856
0.137918
0.16017
0.179863
0.197386
0.212599
0.225966
0.237556
0.24787
0.257272
0.266355
0.275622
0.285552
0.296424
0.308349
0.321248
0.3349
0.348968
0.36338
0.379194
0.399975
0.432248
0.481983
0.546659
0.619008
0.695377
0.767736
0.828896
0.870936
0.886806
0.874044
0.835323
0.777447
0.708571
0.636269
0.565158
0.494934
0.423663
0.347549
0.260821
0.156036
0.0242825
-0.145283
-0.365711
-0.652006
-1.02119
-1.49074
-2.07834
-2.79432
-3.61431
-4.5268
-5.56129
-6.90335
-7.03835
-7.51492
-8.453
-9.0771
-9.09873
-8.04683
-6.75434
-4.78591
-2.72085
-0.735539
1.13021
2.58347
3.6931
4.45409
4.8513
5.06587
5.07142
4.92727
4.90311
4.59598
4.7744
4.32457
4.8907
0.0243446
0.0566074
0.0909972
0.120013
0.146647
0.170488
0.191481
0.210206
0.226419
0.240661
0.252977
0.263915
0.273862
0.283467
0.293278
0.30382
0.315392
0.328112
0.341886
0.356446
0.371353
0.386385
0.402517
0.423639
0.457299
0.510486
0.580029
0.657508
0.738576
0.81369
0.874885
0.913928
0.925
0.90774
0.865984
0.806052
0.734937
0.659828
0.585792
0.512849
0.439317
0.361106
0.271754
0.162819
0.0243355
-0.155762
-0.391865
-0.700376
-1.09968
-1.60812
-2.24291
-3.01394
-3.88496
-4.87537
-6.4873
-6.87632
-7.66829
-8.03575
-9.12021
-9.85428
-9.8604
-8.68579
-7.27151
-5.11547
-2.88367
-0.746602
1.2498
2.79349
3.96629
4.7628
5.17234
5.39746
5.39406
5.24197
5.20812
4.8753
5.05425
4.57944
5.12935
0.0250211
0.0600396
0.0960374
0.127138
0.155315
0.180748
0.203027
0.222947
0.240149
0.255253
0.268278
0.279819
0.290289
0.300392
0.310726
0.321863
0.334128
0.34764
0.362291
0.377763
0.3935
0.409094
0.425378
0.446576
0.481428
0.538083
0.612471
0.694696
0.779445
0.855567
0.91463
0.949019
0.955318
0.935219
0.892585
0.832275
0.75986
0.682415
0.605813
0.530533
0.455191
0.375348
0.283813
0.171086
0.026128
-0.164385
-0.416196
-0.747047
-1.17649
-1.72342
-2.40455
-3.22862
-4.15112
-5.21301
-7.03591
-6.74118
-8.33437
-8.56626
-9.80855
-10.6917
-10.6779
-9.36319
-7.81383
-5.45364
-3.04552
-0.750629
1.37925
3.01302
4.2476
5.0766
5.49599
5.73001
5.71582
5.55731
5.51119
5.15396
5.33138
4.83298
5.34957
0.0256283
0.0634989
0.101027
0.134238
0.163929
0.190955
0.214506
0.235613
0.253791
0.269743
0.283458
0.295582
0.306549
0.317125
0.32796
0.339676
0.352623
0.366924
0.382456
0.39885
0.415413
0.431514
0.447771
0.468742
0.504556
0.564656
0.643683
0.729877
0.816773
0.891639
0.946297
0.975245
0.978094
0.957552
0.916241
0.856979
0.783938
0.704459
0.625577
0.548317
0.471621
0.390635
0.297384
0.181242
0.0300722
-0.170752
-0.438315
-0.791585
-1.251
-1.83571
-2.56193
-3.437
-4.41276
-5.53162
-7.31797
-6.79843
-8.99047
-9.1314
-10.5126
-11.5956
-11.5598
-10.0859
-8.38543
-5.80167
-3.20631
-0.746959
1.51941
3.24279
4.53748
5.39558
5.82266
6.06353
6.03631
5.87312
5.81194
5.43188
5.60582
5.08448
5.59665
0.0261686
0.0669909
0.105974
0.14132
0.172495
0.201115
0.225921
0.248208
0.267348
0.284133
0.29852
0.311202
0.32264
0.333661
0.344971
0.357249
0.370867
0.385954
0.402374
0.419703
0.437098
0.453654
0.469688
0.490085
0.526577
0.589992
0.673132
0.76205
0.849017
0.919942
0.968488
0.992668
0.994458
0.976061
0.938006
0.880883
0.807634
0.726274
0.645338
0.566452
0.488887
0.407286
0.312824
0.19366
0.0365221
-0.174567
-0.457989
-0.833756
-1.32289
-1.9445
-2.71444
-3.639
-4.67085
-5.84155
-7.55474
-7.36308
-9.56605
-9.75388
-11.2279
-12.5719
-12.5148
-10.8615
-8.99128
-6.16114
-3.36594
-0.734889
1.67114
3.48352
4.83639
5.71975
6.15239
6.39795
6.35486
6.18915
6.10997
5.70898
5.87733
5.33322
5.8337
0.0266434
0.0705209
0.110882
0.148389
0.181018
0.211231
0.237276
0.260735
0.280821
0.298426
0.313463
0.326678
0.338557
0.349993
0.361753
0.374572
0.388851
0.404722
0.422037
0.440321
0.458561
0.47553
0.491129
0.510541
0.54733
0.613702
0.700016
0.789947
0.874286
0.938668
0.980856
1.00239
1.00594
0.992017
0.958752
0.904533
0.831263
0.748052
0.665254
0.585112
0.507212
0.42558
0.33045
0.208646
0.0457097
-0.175734
-0.475259
-0.87367
-1.39224
-2.04991
-2.86242
-3.83563
-4.92644
-6.15353
-7.84603
-8.38448
-9.85398
-10.4186
-11.9517
-13.6264
-13.5521
-11.6983
-9.6373
-6.53393
-3.52435
-0.713681
1.83539
3.73597
5.14477
6.04912
6.48491
6.73289
6.67181
6.50508
6.40489
5.9852
6.14536
5.58119
6.04199
0.0270538
0.0740941
0.115758
0.155451
0.189504
0.22131
0.248576
0.273196
0.294214
0.312621
0.328286
0.342008
0.354297
0.366116
0.378297
0.391637
0.406565
0.423217
0.441437
0.460702
0.479813
0.497161
0.512092
0.530019
0.56653
0.635164
0.723349
0.811983
0.890509
0.946913
0.984357
1.00615
1.01405
1.00646
0.979134
0.92831
0.855016
0.769876
0.685389
0.604398
0.526766
0.44575
0.350514
0.226387
0.0576553
-0.174471
-0.490571
-0.911919
-1.45977
-2.15288
-3.0072
-4.02895
-5.18115
-6.47456
-8.18922
-9.355
-9.72769
-11.1294
-12.6818
-14.7645
-14.6812
-12.6052
-10.3303
-6.92244
-3.68154
-0.682562
2.01312
4.00093
5.46305
6.38362
6.81991
7.06784
6.98754
6.82073
6.69629
6.26041
6.40981
5.82574
6.29327
0.0274001
0.0777154
0.120607
0.162512
0.197958
0.231353
0.259823
0.285594
0.307528
0.32672
0.342991
0.357191
0.369855
0.382022
0.394594
0.408433
0.423998
0.441428
0.460566
0.480844
0.500864
0.518573
0.532567
0.548352
0.583696
0.653607
0.742002
0.826114
0.896126
0.945269
0.980871
1.00572
1.02004
1.02018
0.999616
0.952465
0.878972
0.791733
0.705721
0.624344
0.547663
0.467967
0.373162
0.246865
0.0720467
-0.171445
-0.504898
-0.9497
-1.52686
-2.25504
-3.15085
-4.22158
-5.43723
-6.80506
-8.54022
-9.87465
-9.57719
-11.9355
-13.4423
-15.991
-15.9118
-13.5914
-11.0778
-7.32955
-3.83758
-0.640723
2.20535
4.27918
5.79167
6.72317
7.15708
7.40244
7.30212
7.1356
6.98383
6.53449
6.67012
6.06859
6.49976
0.0276823
0.08139
0.125433
0.169576
0.206384
0.241366
0.271022
0.297932
0.320766
0.340724
0.357577
0.372224
0.385228
0.397705
0.410635
0.42495
0.441139
0.459344
0.479413
0.500744
0.521728
0.539789
0.55251
0.565219
0.598171
0.66833
0.754388
0.830202
0.891057
0.935646
0.972487
1.0026
1.02483
1.03371
1.02051
0.97715
0.903126
0.813525
0.726154
0.644922
0.569958
0.492314
0.39836
0.269744
0.0881056
-0.167892
-0.519831
-0.988822
-1.59544
-2.35847
-3.29576
-4.41638
-5.69758
-7.14614
-8.90284
-10.2432
-9.8816
-12.7444
-14.2935
-17.3129
-17.2539
-14.6665
-11.888
-7.75861
-3.99275
-0.587326
2.41314
4.57156
6.13105
7.0676
7.496
7.73628
7.61641
7.44897
7.26718
6.80733
6.9258
6.30867
6.72213
0.0278996
0.0851226
0.130241
0.176649
0.214787
0.251352
0.282174
0.310211
0.333927
0.354634
0.372043
0.387105
0.400411
0.413158
0.42641
0.441176
0.457974
0.47695
0.497967
0.520401
0.542417
0.560817
0.57177
0.58007
0.609438
0.678519
0.758203
0.823167
0.876981
0.920441
0.96097
0.997864
1.02904
1.04741
1.04205
1.00246
0.92741
0.835082
0.74652
0.666044
0.593638
0.51874
0.425804
0.294239
0.104465
-0.165692
-0.537566
-1.03154
-1.66767
-2.46528
-3.4442
-4.61596
-5.9651
-7.49995
-9.29442
-10.7087
-10.9537
-13.3559
-15.2525
-18.7407
-18.7186
-15.8409
-12.7695
-8.21331
-4.1476
-0.521517
2.63761
4.8789
6.48162
7.41667
7.83618
8.06885
7.93052
7.76042
7.54603
7.07877
7.17645
6.54504
6.9444
0.0280507
0.0889185
0.135036
0.183735
0.22317
0.261314
0.293282
0.322433
0.347014
0.36845
0.386389
0.401832
0.415398
0.428371
0.441908
0.457098
0.474492
0.494235
0.516217
0.539809
0.562933
0.581607
0.589959
0.592321
0.617417
0.682523
0.75125
0.80598
0.856551
0.901752
0.947582
0.992216
1.03306
1.06154
1.06442
1.02847
0.951711
0.856176
0.766596
0.687574
0.618607
0.547001
0.454801
0.31899
0.119092
-0.167343
-0.560696
-1.08018
-1.74548
-2.57718
-3.59792
-4.82227
-6.24211
-7.86795
-9.72393
-11.2938
-12.2816
-13.4818
-16.2842
-20.2817
-20.3172
-17.1252
-13.7316
-8.69752
-4.30309
-0.442443
2.8799
5.20207
6.84376
7.77009
8.17706
8.39959
8.24379
8.06969
7.82013
7.34877
7.4214
6.78006
7.13195
0.0281339
0.0927827
0.13982
0.190839
0.231538
0.271254
0.304348
0.334599
0.360028
0.382172
0.400615
0.416402
0.430184
0.443337
0.457118
0.472705
0.490677
0.511181
0.534146
0.558953
0.583243
0.601918
0.606372
0.601898
0.621689
0.677634
0.733142
0.781308
0.832268
0.881067
0.933138
0.9861
1.03717
1.07631
1.08779
1.05526
0.975892
0.876531
0.78611
0.709334
0.644664
0.57657
0.484149
0.341972
0.129296
-0.175758
-0.591776
-1.13661
-1.83017
-2.69522
-3.75786
-5.03639
-6.53001
-8.25165
-10.1916
-11.9329
-13.2138
-13.4155
-17.4289
-21.952
-22.0601
-18.5309
-14.7842
-9.2152
-4.46052
-0.349267
3.14121
5.54195
7.21789
8.12743
8.51801
8.72794
8.55551
8.37655
8.08917
7.61723
7.66026
7.01092
7.34638
0.0281469
0.0967206
0.144598
0.197964
0.239894
0.281174
0.315374
0.34671
0.372968
0.395801
0.414718
0.430812
0.444763
0.458046
0.472029
0.487982
0.506516
0.527773
0.551732
0.577801
0.603206
0.621106
0.620355
0.609236
0.619902
0.66124
0.705926
0.752264
0.805885
0.859322
0.918128
0.979798
1.04158
1.09196
1.11241
1.08294
0.999803
0.89584
0.804767
0.73112
0.671462
0.606538
0.512029
0.360466
0.131902
-0.193791
-0.632742
-1.20186
-1.92222
-2.81956
-3.92406
-5.25833
-6.82917
-8.65256
-10.6966
-12.609
-13.9255
-13.6769
-18.6346
-23.8181
-23.9552
-20.068
-15.9375
-9.77033
-4.62138
-0.241186
3.42276
5.89943
7.60437
8.48819
8.8583
9.0533
8.86493
8.6808
8.35255
7.88393
7.89273
7.23613
7.5627
0.0280868
0.100738
0.149373
0.205115
0.248241
0.291077
0.32636
0.358766
0.385836
0.409336
0.428699
0.44506
0.459129
0.472489
0.486627
0.502916
0.521994
0.543988
0.56894
0.596264
0.622384
0.638099
0.632043
0.614323
0.610144
0.634694
0.672561
0.720871
0.778524
0.837073
0.902844
0.973532
1.04654
1.10877
1.1386
1.11168
1.02329
0.913774
0.822268
0.752703
0.698447
0.635511
0.535934
0.371148
0.123713
-0.223562
-0.684425
-1.27587
-2.0211
-2.9494
-4.09547
-5.48694
-7.1388
-9.0717
-11.2405
-13.3402
-14.7791
-14.7846
-19.8505
-25.9658
-26.0134
-21.7451
-17.2012
-10.3668
-4.78727
-0.117427
3.7258
6.27543
8.00356
8.85175
9.19713
9.37498
9.1713
8.98186
8.60991
8.14904
8.11836
7.46062
7.73735
0.0279502
0.10484
0.154148
0.212294
0.256581
0.300964
0.337307
0.370767
0.39863
0.422776
0.442555
0.459141
0.473276
0.486655
0.5009
0.517493
0.53709
0.559797
0.585709
0.614097
0.639803
0.652041
0.641818
0.613344
0.584162
0.599386
0.636585
0.688684
0.750617
0.814636
0.887506
0.967527
1.05231
1.12711
1.16676
1.14174
1.04623
0.930005
0.838333
0.773813
0.724792
0.66151
0.552622
0.370461
0.10227
-0.265854
-0.746346
-1.3575
-2.12532
-3.0829
-4.26985
-5.71971
-7.45661
-9.50843
-11.8234
-14.1386
-15.8645
-16.7019
-20.9655
-28.4296
-28.2513
-23.5701
-18.5838
-11.0086
-4.95984
0.0227994
4.05163
6.67088
8.41582
9.21736
9.53365
9.69224
9.47389
9.27844
8.86227
8.4124
8.33729
7.67702
7.95502
0.0277332
0.109032
0.158925
0.219506
0.264917
0.310836
0.348216
0.382712
0.41135
0.43612
0.456285
0.473053
0.487197
0.500534
0.514833
0.531694
0.551783
0.575155
0.601903
0.630666
0.654139
0.662845
0.647405
0.59879
0.543364
0.560752
0.596912
0.656213
0.722506
0.792186
0.872318
0.962054
1.05926
1.14746
1.19745
1.17347
1.06848
0.944214
0.852708
0.794131
0.749332
0.681782
0.558265
0.355417
0.066642
-0.319868
-0.816788
-1.44459
-2.23232
-3.217
-4.44361
-5.9526
-7.77859
-9.95994
-12.4435
-15.0102
-17.165
-19.0286
-21.8941
-31.243
-30.6866
-25.5533
-20.0932
-11.6995
-5.1405
0.180417
4.40164
7.0867
8.84146
9.58414
9.86688
10.0043
9.77213
9.56955
9.11222
8.67245
8.54953
7.89038
8.13372
0.0274311
0.113322
0.163708
0.226753
0.27325
0.320693
0.359085
0.3946
0.423994
0.449368
0.469888
0.486791
0.500884
0.514113
0.528411
0.545499
0.56604
0.589985
0.617186
0.644773
0.664622
0.671512
0.648349
0.565818
0.499271
0.521929
0.556151
0.62395
0.694325
0.769987
0.85755
0.957452
1.06784
1.17043
1.23137
1.20734
1.08997
0.956098
0.865169
0.813321
0.770366
0.692585
0.549147
0.324633
0.0177969
-0.38337
-0.892976
-1.53399
-2.33844
-3.34739
-4.61176
-6.18011
-8.09913
-10.4211
-13.0967
-15.9545
-18.6201
-21.3423
-22.881
-34.616
-33.3397
-27.7077
-21.7367
-12.4434
-5.32947
0.356656
4.77734
7.52386
9.28075
9.95108
10.1958
10.3102
10.0655
9.85476
9.36188
8.92714
8.75506
8.09732
8.32656
0.0270387
0.117716
0.168498
0.234039
0.281583
0.330534
0.369914
0.406429
0.436561
0.462517
0.483362
0.500353
0.514329
0.527379
0.541614
0.558882
0.579808
0.604123
0.630796
0.655133
0.671891
0.678992
0.636231
0.524007
0.45492
0.481082
0.515052
0.591944
0.666367
0.748333
0.843537
0.954141
1.07861
1.19676
1.26941
1.24395
1.1106
0.965312
0.875582
0.831065
0.785073
0.689414
0.522964
0.278995
-0.0415883
-0.453024
-0.971237
-1.62158
-2.43894
-3.46857
-4.76811
-6.39563
-8.41151
-10.8854
-13.7763
-16.9648
-20.2008
-23.6394
-24.2627
-38.7674
-36.2351
-30.0382
-23.5205
-13.2442
-5.52484
0.553211
5.18042
7.98336
9.73395
10.317
10.5192
10.609
10.3534
10.1338
9.6111
9.1757
8.95389
8.29642
8.53294
0.0265499
0.122222
0.173299
0.241365
0.289915
0.340359
0.3807
0.418196
0.449049
0.475566
0.496704
0.513733
0.527525
0.540317
0.554417
0.571801
0.592999
0.617175
0.641539
0.661731
0.677985
0.682711
0.606856
0.483261
0.407529
0.438711
0.473904
0.560348
0.638972
0.72758
0.830674
0.952614
1.09221
1.22738
1.31268
1.28406
1.13024
0.971373
0.884208
0.846615
0.78879
0.668365
0.480053
0.221513
-0.10764
-0.524686
-1.04711
-1.70239
-2.52818
-3.57434
-4.90614
-6.59254
-8.70915
-11.3457
-14.4736
-18.0303
-21.9009
-26.0229
-26.404
-43.5563
-39.4023
-32.5359
-25.4441
-14.1042
-5.72279
0.772309
5.61287
8.46627
10.2013
10.6806
10.836
10.8998
10.6354
10.4064
9.85825
9.41808
9.14592
8.49428
8.69647
0.0259579
0.126846
0.178111
0.248735
0.298249
0.350167
0.391441
0.429897
0.461453
0.488511
0.509912
0.526927
0.540459
0.552905
0.566786
0.584193
0.605423
0.628377
0.648734
0.667306
0.687937
0.671143
0.575104
0.44114
0.357605
0.395132
0.433176
0.529548
0.612482
0.708103
0.819402
0.953443
1.10946
1.26341
1.36257
1.32857
1.14843
0.973732
0.892125
0.857207
0.775498
0.628234
0.423557
0.156597
-0.175769
-0.593623
-1.11552
-1.77089
-2.60028
-3.65874
-5.02017
-6.7656
-8.98695
-11.7959
-15.1796
-19.1379
-23.7084
-28.4873
-29.4213
-48.908
-42.8607
-35.1807
-27.4978
-15.0217
-5.91954
1.01668
6.07704
8.97385
10.6828
11.0403
11.1447
11.1814
10.9111
10.6728
10.1013
9.65393
9.33101
8.68432
8.89294
0.025255
0.131598
0.182936
0.256151
0.306582
0.359954
0.402132
0.441528
0.473771
0.50135
0.522982
0.53993
0.55312
0.565117
0.578668
0.595949
0.616664
0.636826
0.653317
0.674237
0.695909
0.648952
0.546307
0.395728
0.3062
0.349522
0.393233
0.499718
0.587313
0.690322
0.810217
0.957278
1.13126
1.30621
1.42075
1.37833
1.16388
0.97258
0.900517
0.856214
0.740596
0.57172
0.358481
0.0893042
-0.241004
-0.654753
-1.17116
-1.82165
-2.65005
-3.71729
-5.10668
-6.91202
-9.24202
-12.2314
-15.8856
-20.2742
-25.6057
-31.0226
-33.3405
-54.7731
-46.6276
-37.9515
-29.6655
-15.9909
-6.11251
1.28953
6.57587
9.50765
11.1787
11.3945
11.4439
11.4527
11.1801
10.9332
10.338
9.88258
9.50907
8.86446
9.10651
0.0244324
0.136486
0.187776
0.263613
0.314916
0.369718
0.412771
0.453084
0.485997
0.514079
0.535912
0.552733
0.565485
0.576906
0.589981
0.606849
0.626065
0.64254
0.658722
0.686387
0.689633
0.630011
0.516346
0.348452
0.253982
0.301395
0.354853
0.471191
0.563896
0.674672
0.803665
0.964858
1.15872
1.35741
1.48921
1.43363
1.17411
0.970434
0.907161
0.834217
0.684323
0.504559
0.29047
0.0248543
-0.298285
-0.703039
-1.20913
-1.8503
-2.67411
-3.7479
-5.1648
-7.03149
-9.47343
-12.6487
-16.5834
-21.4271
-27.5722
-33.6269
-38.1745
-61.0663
-50.7123
-40.834
-31.9264
-17.0041
-6.30035
1.59456
7.11304
10.0697
11.6891
11.7412
11.732
11.7127
11.4423
11.1877
10.5659
10.1035
9.6798
9.04822
9.2676
0.0234803
0.141521
0.192633
0.271124
0.323249
0.379454
0.42335
0.464557
0.498126
0.526693
0.548695
0.565322
0.577524