/*--------------------------------*- C++ -*----------------------------------*\
| =========                 |                                                 |
| \\      /  F ield         | OpenFOAM: The Open Source CFD Toolbox           |
|  \\    /   O peration     | Version:  4.1                                   |
|   \\  /    A nd           | Web:      www.OpenFOAM.org                      |
|    \\/     M anipulation  |                                                 |
\*---------------------------------------------------------------------------*/
FoamFile
{
    version     2.0;
    format      ascii;
    class       surfaceScalarField;
    location    "17";
    object      phi;
}
// * * * * * * * * * * * * * * * * * * * * * * * * * * * * * * * * * * * * * //

dimensions      [0 3 -1 0 0 0 0];

internalField   nonuniform List<scalar> 
13220
(
-802.852
2102.75
-1257.97
1755.32
-1724.01
1765.94
-2067.76
1643.65
-2350.05
1582.49
-2553.85
1503.7
-2686.34
1432.38
-2745.16
1359.02
-2733.19
1287.93
-2650.5
1217.21
-2494.17
1143.87
-2239.79
1045.52
-1802.73
862.84
-1060.34
557.81
239.562
-191.43
2294.18
-430.123
1994.02
-693.722
2029.54
-892.148
1842.08
-1080.87
1771.22
-1221.48
1644.31
-1333
1543.91
-1407.31
1433.33
-1450.47
1331.1
-1462.53
1229.28
-1433.51
1114.84
-1330.21
942.229
-1086.47
619.103
-628.375
99.7123
-388.812
-91.6535
2385.84
-240.479
2142.84
-335.502
2124.57
-368.662
1875.24
-391.949
1794.5
-367.826
1620.18
-323.601
1499.68
-255.81
1365.54
-175.778
1251.07
-82.9968
1136.5
22.304
1009.54
121.231
843.31
167.136
573.212
115.831
151.035
-272.982
66.9478
2318.89
80.1314
2129.66
124.74
2079.96
188.371
1811.61
251.169
1731.71
336.391
1534.96
425.111
1410.97
537.022
1253.63
671.932
1116.16
820.248
988.183
943.158
886.636
994.033
792.431
889.751
677.491
530.862
509.918
257.881
13.7601
2305.13
15.1015
2128.32
24.8833
2070.17
9.95332
1826.54
-5.34346
1747
-36.6779
1566.3
-70.8503
1445.14
-54.8246
1237.6
62.1812
999.151
275.485
774.877
511.189
650.929
670.572
633.049
643.693
704.369
388.008
765.602
645.889
-88.7251
2393.85
-231.881
2271.47
-344.559
2182.85
-493.883
1975.86
-646.388
1899.51
-826.367
1746.27
-1012.91
1631.68
-1169.69
1394.38
-1242.56
1072.02
-1196.04
728.353
-1022.78
477.671
-726.323
336.585
-372.028
350.069
-97.9484
491.516
547.94
41.1927
2352.66
-157.85
2470.51
-277.311
2302.31
-390.919
2089.47
-496.487
2005.07
-606.982
1856.77
-724.343
1749.04
-876.52
1546.56
-1079.65
1275.16
-1303
951.7
-1467.32
641.99
-1466.43
335.688
-1192.78
76.4244
-616.969
-84.3005
-69.0283
279.641
2073.02
189.787
2560.37
154.784
2337.31
166.852
2077.4
212.696
1959.23
266.142
1803.32
330.124
1685.06
354.017
1522.66
297.275
1331.9
146.749
1102.23
-58.3248
847.063
-275.474
552.834
-395.217
196.164
-347.359
-132.162
-416.387
330.483
1742.54
370.634
2520.22
398.738
2309.21
472.297
2003.84
581.367
1850.16
696.031
1688.66
824.796
1556.29
938.682
1408.78
1014.15
1256.43
1023.07
1093.3
954.135
916
785.008
721.958
491.554
489.615
140.747
218.64
-275.64
203.268
1539.27
270.929
2452.55
311.326
2268.81
369.043
1946.12
445.943
1773.26
520.023
1614.58
594.151
1482.16
659.027
1343.9
704.973
1210.49
720.04
1078.23
693.842
942.197
615.554
800.247
473.443
631.727
268.287
423.798
-7.35243
77.1131
1462.15
142.96
2386.71
191.679
2220.09
235.918
1901.88
293.535
1715.64
347.889
1560.22
394.843
1435.21
431.086
1307.66
455.729
1185.85
466.525
1067.44
459.455
949.266
423.588
836.114
339.21
716.104
187.593
575.413
180.241
5.43582
1456.72
90.0895
2302.05
189.296
2120.89
258.235
1832.94
313.848
1660.03
362.825
1511.25
408.647
1389.39
450.478
1265.83
491.877
1144.45
532.462
1026.85
557.547
924.181
540.361
853.301
444.33
812.137
255.477
764.268
435.718
30.6174
1426.1
74.7919
2257.88
133.115
2062.56
230.381
1735.68
358.824
1531.59
498.54
1371.53
643.483
1244.44
790.78
1118.53
917.973
1017.26
991.885
952.938
974.341
941.725
847.918
979.724
614.275
1045.78
315.936
1062.61
751.654
311.611
1114.49
469.634
2099.86
387.247
2144.95
204.085
1918.84
21.1469
1714.52
-129.382
1522.06
-217.278
1332.34
-238.228
1139.48
-193.237
972.264
-96.2152
855.916
17.7538
827.756
87.2718
910.207
62.5967
1070.45
-5.77113
1130.97
745.883
598.641
1641.39
2290.54
2485.43
2469.39
2300.19
1946.9
1560.51
1125.15
723.286
392.594
197.968
115.501
110.682
1.90694e-05
-167.568
167.568
-167.568
-167.568
-167.568
243.204
-410.772
243.204
243.204
243.204
604.769
-361.565
604.769
604.769
900.315
-295.546
900.315
900.315
900.315
1131.94
-231.623
1131.94
1131.94
1301.79
-169.851
1301.79
1301.79
1301.79
1414.24
-112.449
1414.24
1414.24
1414.24
1466.39
-52.1467
1466.39
1466.39
1455.56
10.8297
1455.56
1455.56
1455.56
1387.36
68.1987
1387.36
1387.36
1269.02
118.336
1269.02
1269.02
1269.02
1110.28
158.742
1110.28
1110.28
1110.28
980.15
130.129
980.15
980.15
891.379
88.7707
891.379
891.379
891.379
696.271
195.108
696.271
696.271
696.271
395.153
301.118
395.153
395.153
42.4502
352.703
42.4502
42.4503
42.4503
-401.636
444.086
-401.636
-401.636
-1440.67
1039.03
-1440.67
-1440.67
-1440.67
-3049.3
1608.64
-3049.3
-3049.3
-3049.3
-5119.31
2070
-5119.31
-5119.31
-7441.34
2322.03
-7441.34
-7441.34
-7286.87
-7131.27
-6969.65
-9277.82
2474.21
-9114.79
-8922.1
-8711.51
-8500.13
-8286.26
-8068.48
-7852.41
-7642.11
-10014.8
2583.91
-9796.59
-9576.29
-9352.76
-9146.56
-8939.99
-8730.65
-8522.08
-8315.24
-10718.6
2603.14
-10501.8
-10283
-10061.6
-9839.03
-9609.77
-9369.3
-9127.62
-8886.33
-8648.21
-10913.9
2487.56
-10651.2
-10387.7
-10123.4
-9859.39
-9595.79
-9313.62
-9022.09
-8732.14
-10590.3
2132.29
-10303
-10004.2
-9687
-9369.41
-9051.45
-8735.96
-8422.96
-8089.56
-9367.43
1591.78
-9050.04
-8737.28
-8426.76
-8104.01
-7776.83
-7451.7
-7126.42
-6802.97
-7569.99
1090.18
-7239.67
-6911.92
-6587.37
-6268.94
-5959.21
-5653.64
-5358.26
-5075.76
-4807.43
-4507.27
-32.5953
-4279.59
-4073.96
-3873.68
-3679.88
-3489.62
-3334.58
-3244.94
-3150.64
-2756.66
-284.958
-2665.95
-2575.07
-2575.07
-2374.35
-200.723
-2183.24
-191.112
-2183.24
-2020.72
-162.522
-2020.72
-1881.61
-139.102
-1765.35
-116.26
-1765.35
-1658.48
-106.87
-1568.01
-90.4775
-1568.01
-1483.27
-84.7341
-1483.27
-1406.82
-76.4564
-1340.78
-66.0333
-1340.78
-1276.55
-64.231
-1276.55
-1217.61
-58.9461
-1164.52
-53.0901
-1164.52
-1111.39
-53.1283
-1063.76
-47.627
-1063.76
-1015.65
-48.1106
-1015.65
-969.641
-46.0096
-927.518
-42.1225
-927.518
-884.074
-43.4441
-884.074
-841.983
-42.0919
-802.08
-39.9026
-802.08
-760.181
-41.8992
-721.161
-39.0199
-721.161
-680.546
-40.6148
-680.546
-639.843
-40.7029
-601.35
-38.4932
-601.35
-560.716
-40.634
-560.716
-519.255
-41.4609
-479.042
-40.2133
-479.042
-435.472
-43.5691
-394.186
-41.2869
-394.186
-351.22
-42.9659
-351.22
-306.937
-44.2825
-264.496
-42.4409
-264.496
-220.517
-43.9791
-220.517
-174.549
-45.9683
-128.865
-45.684
-128.865
-80.1104
-48.7545
-32.9653
-47.1451
-32.9652
11.1692
-44.1345
11.1693
46.774
-35.6048
97.1295
-50.3555
97.1295
145.463
-48.3331
145.463
187.679
-42.2167
239.618
-51.9391
239.618
294.016
-54.3973
367.751
-73.7351
367.751
447.79
-80.039
447.79
-79.3167
-99.0759
-421.777
-99.3513
-489.77
-100.054
-528.726
-100.926
-568.363
-102.059
-605.465
-103.372
-640.194
-104.884
-673.24
-106.567
-704.518
-108.42
-734.295
-110.43
-762.64
-112.592
-789.669
-114.899
-815.482
-117.346
-840.175
-119.929
-863.863
-122.649
-886.661
-125.503
-908.699
-128.492
-930.105
-131.616
-951.004
-134.876
-971.51
-138.273
-991.723
-141.808
-1011.73
-145.487
-1031.64
-149.323
-1051.61
-153.34
-1071.91
-157.571
-1093
-162.05
-1115.46
-166.806
-1139.88
-171.853
-1166.64
-177.186
-1195.81
-182.782
-1227.26
-188.593
-1260.52
-194.549
-1294.94
-200.565
-1329.65
-206.563
-1363.7
-212.535
-1396.05
-218.677
-1425.6
-225.589
-1451.06
-234.486
-1470.8
-247.242
-1482.81
-266.061
-1485.05
-292.657
-1476.38
-327.215
-1457.8
-367.732
-1432.76
-410.266
-1406.24
-450.031
-1382.69
-482.654
-1364.17
-504.892
-1349.13
-514.799
-1331.93
-512.404
-1305.19
-500.407
-1269.52
-475.004
-1232.51
-400.925
-1108.32
-258.732
-544.521
-156.326
494.222
-119.796
1151.55
-87.3316
1531.24
-54.9014
1891.07
-22.857
2254.12
5.98011
2583.16
28.1139
2858.04
41.7275
3080.8
48.8086
3278.35
51.9042
3457.05
52.8026
3606.15
52.6637
3701.43
52.1554
3730.99
51.576
3686.76
51.3641
3576.55
50.9347
3389.47
50.7706
3151.4
49.0861
2807.96
48.042
2489.08
44.0994
1985.93
43.7539
1844.31
39.8153
1091.06
41.9172
1598.25
50.7585
918.198
51.5955
858.808
3536.13
-104.857
-422.078
-104.98
-489.647
-105.627
-528.078
-106.458
-567.532
-107.58
-604.343
-108.895
-638.88
-110.423
-671.711
-112.132
-702.81
-114.02
-732.407
-116.073
-760.587
-118.286
-787.456
-120.652
-813.116
-123.166
-837.661
-125.828
-861.202
-128.635
-883.854
-131.589
-905.745
-134.689
-927.004
-137.936
-947.757
-141.329
-968.117
-144.87
-988.183
-148.56
-1008.04
-152.41
-1027.79
-156.44
-1047.58
-160.684
-1067.67
-165.184
-1088.5
-169.979
-1110.66
-175.089
-1134.77
-180.517
-1161.21
-186.243
-1190.09
-192.221
-1221.28
-198.382
-1254.36
-204.636
-1288.68
-210.887
-1323.4
-217.1
-1357.49
-223.448
-1389.71
-230.56
-1418.49
-239.806
-1441.81
-253.415
-1457.19
-274.141
-1462.08
-304.284
-1454.9
-344.311
-1436.36
-391.869
-1410.24
-442.035
-1382.6
-488.828
-1359.45
-527.068
-1344.45
-553.468
-1337.76
-566.574
-1336.02
-566.042
-1332.46
-552.727
-1318.5
-530.293
-1291.96
-500.045
-1262.76
-429.991
-1178.37
-262.864
-711.648
-137.59
368.949
-112.672
1126.63
-84.4049
1502.97
-52.7172
1859.38
-21.7402
2223.15
6.31066
2555.11
27.8332
2836.52
40.886
3067.74
47.6612
3271.57
50.5179
3454.19
51.3102
3605.36
51.2045
3701.53
50.7858
3731.41
50.3958
3687.15
50.4007
3576.55
50.2054
3389.66
50.2834
3151.33
48.8118
2809.43
47.9441
2489.95
44.1413
1989.73
43.8253
1844.62
39.638
1095.24
41.877
1596.01
49.5674
910.508
49.4003
858.975
3505.5
-107.986
-422.461
-108.051
-489.582
-108.667
-527.462
-109.48
-566.72
-110.598
-603.224
-111.916
-637.562
-113.456
-670.172
-115.181
-701.084
-117.092
-730.497
-119.171
-758.507
-121.416
-785.212
-123.818
-810.714
-126.374
-835.104
-129.084
-858.493
-131.945
-880.992
-134.959
-902.731
-138.126
-923.837
-141.446
-944.438
-144.918
-964.645
-148.543
-984.558
-152.325
-1004.26
-156.275
-1023.84
-160.419
-1043.44
-164.798
-1063.29
-169.46
-1083.84
-174.442
-1105.68
-179.76
-1129.45
-185.408
-1155.56
-191.355
-1184.14
-197.544
-1215.09
-203.892
-1248.01
-210.297
-1282.28
-216.685
-1317.01
-223.139
-1351.04
-230.138
-1382.71
-238.876
-1409.75
-251.48
-1429.21
-270.815
-1437.86
-299.609
-1433.29
-339.022
-1415.49
-387.381
-1388
-440.07
-1357.55
-490.921
-1331.75
-534.255
-1316.12
-566.318
-1312.39
-585.484
-1318.6
-591.554
-1329.95
-584.812
-1339.2
-565.96
-1337.35
-538.045
-1319.87
-504.972
-1295.84
-444.13
-1239.22
-280.24
-875.539
-123.314
212.023
-97.0735
1100.39
-79.9884
1485.88
-49.3162
1828.71
-19.7835
2193.61
7.09995
2528.23
27.7546
2815.87
39.9655
3055.53
46.1402
3265.4
48.5784
3451.75
49.1297
3604.81
49.0017
3701.66
48.6947
3731.72
48.5435
3687.3
48.8664
3576.23
49.0183
3389.51
49.4555
3150.89
48.3166
2810.57
47.7057
2490.56
44.1515
1993.28
43.7773
1845
39.6505
1099.37
41.5342
1594.12
48.028
904.014
46.8442
860.159
3478.6
-111.717
-422.92
-111.729
-489.57
-112.318
-526.874
-113.117
-565.921
-114.236
-602.105
-115.564
-636.234
-117.123
-668.613
-118.873
-699.334
-120.814
-728.556
-122.93
-756.391
-125.215
-782.926
-127.664
-808.266
-130.273
-832.495
-133.041
-855.724
-135.969
-878.064
-139.057
-899.643
-142.306
-920.589
-145.715
-941.029
-149.283
-961.076
-153.011
-980.83
-156.904
-1000.37
-160.975
-1019.77
-165.255
-1039.16
-169.793
-1058.75
-174.644
-1078.99
-179.847
-1100.48
-185.413
-1123.89
-191.328
-1149.64
-197.546
-1177.92
-203.995
-1208.64
-210.574
-1241.43
-217.183
-1275.67
-223.826
-1310.37
-230.84
-1344.02
-239.237
-1374.31
-251.016
-1397.97
-269.13
-1411.1
-296.739
-1410.25
-335.763
-1394.27
-385.326
-1365.93
-441.205
-1332.12
-496.957
-1301.8
-546.143
-1282.56
-584.211
-1278.05
-609.069
-1287.53
-620.519
-1307.15
-619.253
-1331.22
-605.978
-1352.48
-581.307
-1362.02
-547.676
-1353.5
-510.208
-1333.3
-455.519
-1293.91
-310.627
-1020.43
-119.215
20.6112
-75.8369
1057.01
-72.2926
1482.34
-45.0357
1801.45
-16.8364
2165.41
8.44905
2502.94
27.9796
2796.34
39.065
3044.45
44.3603
3260.1
46.1771
3449.93
46.3401
3604.65
46.1156
3701.89
45.9146
3731.92
46.0403
3687.18
46.7586
3575.51
47.3562
3388.91
48.2578
3149.99
47.5621
2811.27
47.3078
2490.81
44.0735
1996.52
43.7554
1845.32
39.6493
1103.48
41.2729
1592.5
46.1919
899.095
43.7107
862.64
3467.92
-115.316
-423.429
-115.294
-489.592
-115.863
-526.305
-116.656
-565.128
-117.781
-600.979
-119.124
-634.891
-120.704
-667.033
-122.483
-697.555
-124.458
-726.581
-126.612
-754.237
-128.942
-780.597
-131.439
-805.768
-134.104
-829.831
-136.933
-852.895
-139.93
-875.068
-143.093
-896.48
-146.426
-917.257
-149.925
-937.529
-153.592
-957.41
-157.425
-976.997
-161.429
-996.365
-165.621
-1015.58
-170.036
-1034.74
-174.733
-1054.06
-179.773
-1073.94
-185.199
-1095.05
-191.015
-1118.07
-197.196
-1143.46
-203.685
-1171.43
-210.388
-1201.94
-217.195
-1234.62
-224.052
-1268.81
-231.164
-1303.26
-239.346
-1335.84
-250.414
-1363.24
-267.301
-1381.08
-293.486
-1384.91
-331.577
-1372.15
-381.547
-1344.29
-439.752
-1307.72
-499.676
-1272.19
-554.202
-1247.27
-597.928
-1238.83
-628.184
-1247.79
-644.609
-1271.11
-648.097
-1303.66
-639.848
-1339.47
-620.731
-1371.6
-591.196
-1391.56
-552.903
-1391.8
-511.066
-1375.14
-460.584
-1344.39
-342.044
-1138.97
-129.551
-191.881
-52.698
980.161
-59.1778
1488.82
-39.6351
1781.91
-12.706
2138.48
10.5956
2479.64
28.641
2778.29
38.2792
3034.81
42.3586
3256.02
43.3011
3448.99
42.9021
3605.04
42.4804
3702.31
42.3686
3732.03
42.8044
3686.74
43.9979
3574.32
45.1463
3387.76
46.6328
3148.5
46.4942
2811.41
46.7205
2490.58
43.8733
1999.37
43.735
1845.45
39.6289
1107.58
41.0715
1591.06
44.7965
895.37
41.3078
866.129
3457.29
-118.954
-423.972
-118.912
-489.633
-119.469
-525.749
-120.262
-564.335
-121.399
-599.842
-122.762
-633.529
-124.369
-665.425
-126.181
-695.744
-128.195
-724.567
-130.393
-752.039
-132.771
-778.219
-135.322
-803.217
-138.046
-827.107
-140.941
-849.999
-144.011
-871.999
-147.256
-893.235
-150.676
-913.836
-154.273
-933.933
-158.043
-953.64
-161.985
-973.054
-166.106
-992.244
-170.424
-1011.26
-174.98
-1030.19
-179.84
-1049.2
-185.076
-1068.71
-190.732
-1089.4
-196.808
-1112
-203.267
-1137
-210.032
-1164.67
-216.993
-1194.98
-224.06
-1227.56
-231.328
-1261.54
-239.414
-1295.17
-249.911
-1325.34
-265.655
-1347.5
-290.333
-1356.41
-327.155
-1348.09
-376.951
-1322.36
-436.8
-1284.45
-500.346
-1244.18
-559.932
-1212.61
-609.258
-1197.95
-644.919
-1203.17
-666.246
-1226.47
-674.19
-1263.16
-670.224
-1307.63
-655.688
-1354
-631.444
-1395.84
-597.817
-1425.19
-555.816
-1433.8
-509.95
-1421.01
-460.58
-1393.76
-361.433
-1238.12
-142.126
-411.188
-31.0655
869.1
-39.9918
1497.74
-32.31
1774.22
-7.46227
2113.64
13.7798
2458.4
29.899
2762.17
37.7514
3026.96
40.2575
3253.51
40.034
3449.22
38.8776
3606.2
38.1313
3703.05
38.0706
3732.09
38.8358
3685.98
40.5686
3572.58
42.3673
3385.97
44.5516
3146.32
45.0849
2810.87
45.912
2489.76
43.5319
2001.75
43.6717
1845.31
39.613
1111.64
40.8836
1589.79
43.7756
892.478
39.0684
870.836
3454.14
-122.597
-424.534
-122.55
-489.68
-123.101
-525.197
-123.902
-563.533
-125.057
-598.688
-126.444
-632.142
-128.084
-663.785
-129.934
-693.894
-131.99
-722.511
-134.236
-749.793
-136.667
-775.788
-139.276
-800.607
-142.064
-824.32
-145.03
-847.033
-148.177
-868.852
-151.507
-889.905
-155.021
-910.322
-158.718
-930.235
-162.597
-949.762
-166.654
-968.996
-170.897
-988.002
-175.344
-1006.82
-180.044
-1025.49
-185.071
-1044.17
-190.509
-1063.27
-196.404
-1083.5
-202.747
-1105.65
-209.488
-1130.26
-216.529
-1157.63
-223.761
-1187.74
-231.193
-1220.13
-239.261
-1253.48
-249.315
-1285.12
-264.024
-1310.63
-287.194
-1324.33
-322.548
-1321.05
-371.726
-1298.91
-432.591
-1261.49
-499.125
-1217.91
-563.326
-1179.98
-618.05
-1157.88
-659.041
-1156.95
-685.171
-1177.04
-697.366
-1214.27
-697.31
-1263.22
-686.632
-1318.3
-666.595
-1374.04
-637.971
-1424.46
-601
-1462.16
-556.205
-1478.59
-507.075
-1470.14
-457.065
-1443.77
-371.815
-1323.37
-155.899
-627.104
-13.9238
727.125
-15.6745
1499.5
-21.7334
1780.28
-1.23068
2093.13
18.1832
2438.98
31.9475
2748.41
37.6222
3021.28
38.1789
3252.96
36.4591
3450.94
34.3225
3608.34
33.1029
3704.27
33.0312
3732.17
34.1327
3684.88
36.4551
3570.26
38.9952
3383.43
41.9856
3143.33
43.3033
2809.55
44.8534
2488.21
43.0261
2003.57
43.5482
1844.79
39.5956
1115.59
40.7066
1588.68
43.3152
889.869
37.3598
876.791
3443.16
-126.259
-425.101
-126.217
-489.722
-126.772
-524.643
-127.588
-562.717
-128.765
-597.51
-130.183
-630.723
-131.86
-662.108
-133.752
-692.002
-135.857
-720.406
-138.155
-747.494
-140.643
-773.3
-143.315
-797.935
-146.171
-821.464
-149.212
-843.992
-152.441
-865.622
-155.861
-886.484
-159.474
-906.709
-163.278
-926.431
-167.27
-945.77
-171.448
-964.818
-175.817
-983.633
-180.399
-1002.23
-185.246
-1020.64
-190.444
-1038.97
-196.09
-1057.63
-202.231
-1077.36
-208.849
-1099.03
-215.873
-1123.24
-223.192
-1150.31
-230.755
-1180.18
-238.838
-1212.04
-248.538
-1243.78
-262.307
-1271.35
-283.99
-1288.95
-317.764
-1290.56
-366.037
-1272.78
-427.445
-1237.5
-496.387
-1192.55
-564.688
-1149.61
-624.497
-1120.17
-670.693
-1111.69
-701.556
-1126.09
-717.867
-1160.73
-721.482
-1210.66
-714.297
-1270.4
-697.824
-1334.78
-673.141
-1398.72
-640.902
-1456.7
-601.297
-1501.76
-554.551
-1525.34
-503.172
-1521.52
-451.898
-1495.04
-376.73
-1398.54
-172.948
-830.886
-4.73398
558.911
11.0806
1483.68
-6.01151
1797.38
6.37536
2080.75
23.8276
2421.53
34.998
2737.24
38.0441
3018.24
36.2387
3254.76
32.6504
3454.52
29.2768
3611.71
27.4151
3706.14
27.2477
3732.33
28.6814
3683.44
31.6342
3567.31
34.9999
3380.06
38.9033
3139.42
41.1161
2807.34
43.5162
2485.81
42.3313
2004.76
43.3484
1843.77
39.5684
1119.37
40.5392
1587.7
43.343
887.066
36.0312
884.103
3428.84
-129.943
-425.661
-129.916
-489.749
-130.481
-524.078
-131.319
-561.879
-132.525
-596.305
-133.98
-629.269
-135.699
-660.389
-137.64
-690.061
-139.797
-718.249
-142.153
-745.138
-144.703
-770.75
-147.442
-795.196
-150.371
-818.535
-153.491
-840.872
-156.807
-862.306
-160.323
-882.969
-164.039
-902.993
-167.955
-922.515
-172.067
-941.658
-176.371
-960.514
-180.872
-979.132
-185.592
-997.513
-190.59
-1015.64
-195.965
-1033.6
-201.824
-1051.77
-208.218
-1070.97
-215.111
-1092.14
-222.415
-1115.94
-230.04
-1142.68
-238.127
-1172.09
-247.522
-1202.65
-260.409
-1230.89
-280.599
-1251.16
-312.68
-1256.87
-359.851
-1243.39
-421.516
-1211.11
-492.463
-1166.56
-564.394
-1120.62
-628.891
-1085.11
-680.054
-1069
-715.53
-1076.21
-735.837
-1105.78
-742.922
-1153.65
-738.938
-1214.64
-725.647
-1283.69
-704.321
-1356.1
-675.834
-1427.21
-640.719
-1491.82
-599.145
-1543.34
-551.218
-1573.27
-498.729
-1574.01
-446.591
-1547.18
-379.192
-1465.93
-195.282
-1014.8
-5.78257
369.412
35.8522
1442.05
15.4461
1817.78
16.6685
2079.52
30.6743
2407.52
39.2085
2728.7
39.1858
3018.26
34.5628
3259.39
28.6933
3460.39
23.7883
3616.62
21.0949
3708.83
20.7264
3732.7
22.4746
3681.69
26.0901
3563.69
30.3576
3375.79
35.278
3134.5
38.4938
2804.13
41.8723
2482.43
41.4239
2005.21
43.053
1842.15
39.5218
1122.91
40.3808
1586.85
43.2626
884.184
34.5017
892.864
3427.74
-133.652
-426.202
-133.651
-489.751
-134.234
-523.494
-135.102
-561.012
-136.342
-595.064
-137.839
-627.772
-139.606
-658.621
-141.6
-688.067
-143.815
-716.034
-146.234
-742.72
-148.851
-768.133
-151.662
-792.385
-154.668
-815.529
-157.873
-837.667
-161.281
-858.898
-164.897
-879.353
-168.723
-899.167
-172.756
-918.482
-176.994
-937.42
-181.431
-956.077
-186.068
-974.494
-190.932
-992.65
-196.086
-1010.49
-201.641
-1028.04
-207.719
-1045.69
-214.368
-1064.32
-221.531
-1084.98
-229.12
-1108.35
-237.165
-1134.64
-246.271
-1162.99
-258.307
-1190.61
-276.952
-1212.24
-307.163
-1220.95
-352.998
-1211.03
-414.738
-1181.65
-487.525
-1138.33
-562.822
-1091.26
-631.644
-1051.8
-687.439
-1029.32
-727.296
-1029.15
-751.434
-1052.08
-761.807
-1095.41
-760.774
-1154.68
-750.347
-1225.07
-731.995
-1302.05
-706.728
-1381.37
-675.232
-1458.71
-637.947
-1529.1
-595.066
-1586.22
-546.74
-1621.59
-494.385
-1626.36
-442.561
-1599
-382.033
-1526.46
-226.015
-1170.81
-15.9033
159.3
54.1091
1372.03
40.5035
1831.39
31.2695
2088.76
39.0519
2399.74
44.6639
2723.09
41.2146
3021.71
33.2911
3267.31
24.6857
3469
17.9138
3623.39
14.1758
3712.57
13.4813
3733.4
15.5112
3679.66
19.8135
3559.39
25.05
3370.56
31.0872
3128.47
35.4106
2799.8
39.895
2477.94
40.2795
2004.82
42.6435
1839.78
39.4443
1126.1
40.2457
1586.04
43.6405
880.789
34.4917
902.013
3418.09
-137.392
-426.715
-137.424
-489.718
-138.034
-522.884
-138.938
-560.108
-140.22
-593.782
-141.765
-626.227
-143.586
-656.801
-145.638
-686.015
-147.917
-713.756
-150.403
-740.233
-153.092
-765.444
-155.98
-789.498
-159.069
-812.44
-162.363
-834.373
-165.868
-855.392
-169.59
-875.631
-173.531
-895.227
-177.689
-914.324
-182.059
-933.05
-186.634
-951.502
-191.416
-969.713
-196.427
-987.638
-201.74
-1005.17
-207.48
-1022.3
-213.78
-1039.39
-220.678
-1057.42
-228.104
-1077.55
-236.033
-1100.42
-244.839
-1125.83
-256.041
-1151.79
-273.068
-1173.58
-301.148
-1184.16
-345.278
-1176.82
-406.848
-1149.46
-481.468
-1107.03
-560.181
-1059.61
-633.2
-1018.24
-693.312
-991.686
-737.203
-985.428
-764.892
-1001.46
-778.326
-1038.64
-780.006
-1093.73
-772.16
-1162.53
-756.45
-1240.78
-734.021
-1324.48
-705.649
-1409.74
-671.875
-1492.48
-633.098
-1567.88
-589.625
-1629.69
-541.809
-1669.41
-490.993
-1677.18
-441.245
-1648.75
-387.92
-1579.79
-268.358
-1290.38
-43.4444
-65.6129
63.6058
1264.98
65.2878
1829.7
50.6981
2103.35
49.872
2400.57
51.4741
2721.49
44.2788
3028.9
32.5738
3279.02
20.7318
3480.84
11.7134
3632.41
6.69172
3717.59
5.52849
3734.56
7.79203
3677.4
12.7979
3554.38
19.0625
3364.29
26.311
3121.22
31.8434
2794.27
37.5589
2472.23
38.8733
2003.51
42.1015
1836.55
39.3207
1128.89
40.1311
1585.23
44.3465
876.574
34.7284
911.631
3405.68
-141.166
-427.19
-141.241
-489.643
-141.885
-522.239
-142.832
-559.161
-144.161
-592.453
-145.761
-624.627
-147.641
-654.921
-149.758
-683.898
-152.105
-711.408
-154.665
-737.674
-157.431
-762.677
-160.401
-786.527
-163.578
-809.264
-166.967
-830.984
-170.575
-851.784
-174.409
-871.797
-178.471
-891.164
-182.76
-910.035
-187.269
-928.541
-191.99
-946.781
-196.922
-964.782
-202.087
-982.473
-207.563
-999.698
-213.488
-1016.38
-220.005
-1032.87
-227.14
-1050.28
-234.844
-1069.85
-243.322
-1091.94
-253.71
-1115.44
-269.061
-1136.44
-294.7
-1147.94
-336.583
-1142.28
-397.521
-1115.88
-473.92
-1073.06
-556.357
-1024.59
-633.844
-982.127
-698.207
-953.878
-745.781
-944.112
-776.604
-954.605
-792.742
-985.319
-796.844
-1034.54
-791.303
-1099.27
-777.936
-1175.89
-758.013
-1260.7
-732.39
-1350.1
-701.657
-1440.47
-666.279
-1527.86
-626.718
-1607.44
-583.52
-1672.89
-537.397
-1715.53
-489.791
-1724.78
-444.171
-1694.37
-398.257
-1625.7
-303.66
-1384.97
-77.455
-291.818
64.8861
1122.64
86.1748
1808.42
73.7112
2115.81
64.1606
2410.12
59.9372
2725.71
48.5174
3040.32
32.5613
3294.97
16.9397
3496.46
5.2483
3644.1
-1.32475
3724.16
-3.1144
3736.35
-0.679784
3674.97
5.04013
3548.66
12.3857
3356.95
20.9335
3112.67
27.7725
2787.43
34.8406
2465.16
37.1808
2001.17
41.4081
1832.33
39.1314
1131.16
40.019
1584.35
45.0742
871.518
34.5463
922.159
3391.47
-144.98
-427.619
-145.104
-489.519
-145.791
-521.553
-146.789
-558.163
-148.172
-591.07
-149.832
-622.966
-151.778
-652.975
-153.965
-681.71
-156.387
-708.987
-159.025
-735.036
-161.874
-759.828
-164.932
-783.47
-168.202
-805.994
-171.691
-827.495
-175.407
-848.067
-179.359
-867.845
-183.549
-886.974
-187.976
-905.608
-192.633
-923.885
-197.507
-941.906
-202.596
-959.694
-207.92
-977.148
-213.562
-994.057
-219.669
-1010.27
-226.388
-1026.15
-233.75
-1042.92
-241.838
-1061.76
-251.442
-1082.34
-265.108
-1101.77
-288.023
-1113.52
-326.984
-1108.98
-386.52
-1082.75
-464.377
-1038.02
-550.889
-986.552
-633.507
-941.971
-702.523
-913.111
-753.668
-902.732
-787.172
-910.608
-805.497
-936.28
-811.59
-979.226
-808.01
-1038.12
-796.688
-1110.59
-778.969
-1193.61
-755.766
-1283.9
-727.707
-1378.16
-695.274
-1472.91
-658.966
-1564.17
-619.459
-1646.95
-577.697
-1714.65
-534.851
-1758.38
-492.44
-1767.19
-453.05
-1733.76
-415.033
-1663.72
-336.685
-1463.32
-110.046
-518.456
59.061
953.535
101.214
1766.26
97.7451
2119.28
82.2492
2425.61
70.606
2737.36
54.1076
3056.82
33.3922
3315.69
13.4193
3516.44
-1.41355
3658.93
-9.83526
3732.58
-12.4279
3738.94
-9.90125
3672.44
-3.46356
3542.23
5.01401
3348.47
14.9434
3102.74
23.1825
2779.19
31.7204
2456.62
35.1789
1997.71
40.5448
1826.96
38.8546
1132.85
39.8978
1583.3
45.6803
865.736
34.3029
933.536
3380.09
-148.837
-427.994
-149.02
-489.337
-149.756
-520.817
-150.811
-557.108
-152.256
-589.626
-153.983
-621.238
-156.001
-650.958
-158.265
-679.446
-160.767
-706.485
-163.489
-732.314
-166.427
-756.89
-169.577
-780.319
-172.946
-802.625
-176.541
-823.9
-180.372
-844.236
-184.448
-863.769
-188.774
-882.649
-193.346
-901.035
-198.158
-919.073
-203.194
-936.869
-208.448
-954.44
-213.937
-971.659
-219.742
-988.251
-226.018
-1003.99
-232.917
-1019.26
-240.541
-1035.3
-249.377
-1052.92
-261.419
-1070.29
-281.421
-1081.77
-316.751
-1078.19
-373.819
-1051.92
-452.383
-1004.18
-543.089
-947.316
-631.691
-897.95
-706.281
-867.381
-761.399
-857.993
-797.349
-866.783
-817.279
-890.679
-824.743
-928.815
-822.626
-981.344
-812.967
-1047.78
-797.139
-1126.42
-776.06
-1214.69
-750.357
-1309.61
-720.51
-1408
-687.008
-1506.41
-650.548
-1600.63
-612.209
-1685.29
-573.481
-1753.38
-535.953
-1795.91
-500.933
-1802.21
-469.626
-1765.07
-439.908
-1693.44
-374.163
-1529.07
-147.353
-745.266
47.745
758.436
110.511
1703.5
119.951
2109.84
103.413
2442.15
84.1175
2756.65
61.3118
3079.63
35.1939
3341.8
10.2853
3541.34
-8.19677
3677.41
-18.8005
3743.19
-22.3912
3742.53
-19.8645
3669.91
-12.7168
3535.08
-3.05881
3338.81
8.33394
3091.35
18.0637
2769.46
28.182
2446.5
32.8461
1993.05
39.4944
1820.31
38.4692
1133.88
39.753
1582.02
46.3152
859.174
33.8995
945.952
3368.02
-152.744
-428.307
-152.991
-489.089
-153.784
-520.023
-154.905
-555.987
-156.417
-588.113
-158.219
-619.437
-160.315
-648.863
-162.661
-677.1
-165.25
-703.896
-168.063
-729.501
-171.095
-753.858
-174.345
-777.069
-177.818
-799.152
-181.525
-820.193
-185.477
-840.284
-189.684
-859.562
-194.152
-878.181
-198.878
-896.309
-203.854
-914.098
-209.062
-931.661
-214.489
-949.013
-220.146
-966.002
-226.107
-982.29
-232.525
-997.574
-239.594
-1012.19
-247.675
-1027.22
-258.194
-1042.4
-275.251
-1053.24
-306.335
-1050.69
-359.666
-1024.86
-437.685
-973.897
-532.24
-909.626
-627.587
-851.969
-709.022
-816.516
-769.115
-807.287
-807.804
-819.304
-828.957
-845.63
-837.089
-882.547
-835.726
-930.178
-827.17
-989.899
-812.823
-1062.13
-793.546
-1145.7
-769.906
-1238.33
-742.338
-1337.17
-711.29
-1439.05
-677.425
-1540.27
-641.848
-1636.2
-606.243
-1720.89
-572.675
-1786.95
-542.877
-1825.7
-517.338
-1827.75
-495.23
-1787.18
-473.284
-1715.38
-417.851
-1584.5
-194.824
-968.293
29.7215
533.891
115.096
1618.12
138.2
2086.74
126.192
2454.16
100.829
2782.01
70.4766
3109.98
38.1111
3374.17
7.65254
3571.8
-15.0244
3700.09
-28.1798
3756.34
-32.9825
3747.33
-30.5596
3667.49
-22.7204
3527.24
-11.834
3327.92
1.10231
3078.41
12.4094
2758.16
24.2131
2434.7
30.1632
1987.1
38.2407
1812.23
37.9542
1134.16
39.5646
1580.41
46.9904
851.748
33.4097
959.533
3357.45
-156.703
-428.551
-157.022
-488.771
-157.882
-519.163
-159.075
-554.794
-160.662
-586.526
-162.545
-617.554
-164.725
-646.682
-167.161
-674.663
-169.843
-701.215
-172.753
-726.592
-175.885
-750.726
-179.24
-773.714
-182.824
-795.567
-186.649
-816.368
-190.729
-836.204
-195.074
-855.216
-199.692
-873.563
-204.581
-891.42
-209.731
-908.949
-215.121
-926.271
-220.729
-943.405
-226.553
-960.179
-232.648
-976.194
-239.178
-991.045
-246.491
-1004.87
-255.628
-1018.08
-269.853
-1028.18
-296.299
-1026.79
-344.586
-1002.4
-420.339
-949.109
-517.765
-876.471
-620.259
-807.132
-709.901
-762.327
-776.432
-749.985
-818.791
-764.928
-841.325
-796.77
-849.623
-837.333
-848.21
-883.96
-839.971
-938.417
-826.486
-1003.38
-808.567
-1080.04
-786.661
-1167.6
-761.086
-1263.91
-732.195
-1366.07
-700.574
-1470.67
-667.282
-1573.57
-634.072
-1669.41
-603.345
-1751.62
-577.556
-1812.73
-557.967
-1845.29
-543.382
-1842.34
-530.367
-1800.19
-514.38
-1731.37
-467.395
-1631.48
-259.178
-1176.51
1.28418
273.428
115.639
1503.77
151.617
2050.76
148.939
2456.84
120.507
2810.45
81.9829
3148.5
42.3649
3413.79
5.64207
3608.53
-21.8195
3727.55
-37.9318
3772.45
-44.1796
3753.58
-41.9749
3665.29
-33.4709
3518.74
-21.3088
3315.76
-6.75836
3063.86
6.21291
2745.18
19.8058
2421.11
27.1131
1979.79
36.77
1802.58
37.2886
1133.65
39.3175
1578.38
47.6731
843.392
33.1507
974.055
3348.16
-160.721
-428.718
-161.119
-488.373
-162.052
-518.231
-163.326
-553.52
-164.995
-584.856
-166.966
-615.583
-169.238
-644.41
-171.771
-672.131
-174.552
-698.433
-177.565
-723.579
-180.805
-747.486
-184.271
-770.248
-187.972
-791.866
-191.922
-812.418
-196.136
-831.99
-200.627
-850.725
-205.404
-868.786
-210.465
-886.359
-215.799
-903.615
-221.381
-920.689
-227.177
-937.609
-233.157
-954.198
-239.354
-969.998
-245.993
-984.405
-253.882
-996.984
-265.534
-1006.43
-287.227
-1006.49
-329.338
-984.68
-400.76
-930.979
-499.356
-850.514
-608.816
-767.01
-707.882
-708.065
-782.543
-687.666
-829.991
-702.538
-854.71
-740.209
-863.243
-788.236
-861.216
-839.36
-852.415
-892.76
-838.923
-951.908
-821.68
-1020.63
-801.026
-1100.7
-777.101
-1191.53
-750.084
-1290.92
-720.416
-1395.73
-689.045
-1502.04
-657.694
-1604.92
-628.954
-1698.15
-605.858
-1774.72
-590.699
-1827.89
-583.312
-1852.68
-579.939
-1845.71
-574.397
-1805.73
-561.411
-1744.35
-521.082
-1671.81
-348.836
-1348.76
-48.8516
-26.5565
112.281
1342.64
160.571
2002.47
170.192
2447.22
142.32
2838.32
96.1818
3194.64
48.3055
3461.66
4.39713
3652.43
-28.5081
3760.46
-48.0146
3791.96
-55.96
3761.53
-54.097
3663.42
-44.9609
3509.6
-31.4777
3302.28
-15.2535
3047.64
-0.529276
2730.46
14.9581
2405.62
23.6844
1971.06
35.0715
1791.19
36.4525
1132.26
38.996
1575.84
48.4417
833.947
32.6375
989.859
3336.52
-164.803
-428.802
-165.287
-487.889