/*--------------------------------*- C++ -*----------------------------------*\
| =========                 |                                                 |
| \\      /  F ield         | OpenFOAM: The Open Source CFD Toolbox           |
|  \\    /   O peration     | Version:  4.1                                   |
|   \\  /    A nd           | Web:      www.OpenFOAM.org                      |
|    \\/     M anipulation  |                                                 |
\*---------------------------------------------------------------------------*/
FoamFile
{
    version     2.0;
    format      ascii;
    class       volVectorField;
    location    "16";
    object      U;
}
// * * * * * * * * * * * * * * * * * * * * * * * * * * * * * * * * * * * * * //

dimensions      [0 1 -1 0 0 0 0];

internalField   nonuniform List<vector> 
6785
(
(1.42022e-14 -1.99295 16.4191)
(1.1057e-14 -7.7151 12.856)
(-3.31432e-15 -5.08559 13.5686)
(3.81407e-15 -4.94014 13.1217)
(1.08404e-15 -4.21042 12.9587)
(1.26972e-16 -3.78758 12.6787)
(3.4087e-15 -3.39667 12.3895)
(6.12734e-16 -3.11107 12.0529)
(-5.83869e-16 -2.89973 11.6682)
(1.81093e-15 -2.77052 11.2355)
(2.55927e-16 -2.69056 10.8153)
(-4.25239e-16 -2.71792 10.4364)
(9.54161e-16 -3.19008 9.86315)
(-5.0378e-17 -3.15258 9.08183)
(-4.88805e-16 0.126363 7.38197)
(1.98943e-14 -9.61672 26.5428)
(1.382e-14 -16.3655 22.6848)
(-3.16655e-15 -11.135 23.0944)
(4.53682e-15 -11.9688 21.2551)
(1.05601e-15 -10.3654 20.3485)
(1.4323e-15 -9.74967 19.1021)
(2.76925e-15 -8.84237 17.9873)
(2.02543e-16 -8.13187 16.891)
(2.02527e-16 -7.50405 15.9463)
(1.25721e-15 -7.05313 15.1176)
(-8.65188e-17 -6.66983 14.2225)
(1.56986e-16 -6.14024 12.9875)
(9.44898e-16 -5.29287 10.8824)
(-2.91525e-16 -3.59183 6.66724)
(-4.51158e-16 -0.306273 0.0302217)
(2.10869e-14 -12.1955 27.5645)
(1.17295e-14 -16.6724 24.5214)
(-1.83554e-15 -11.6917 24.4814)
(3.48227e-15 -12.7027 22.0108)
(9.66185e-16 -10.6125 20.9761)
(1.50956e-15 -10.0587 19.2996)
(7.64559e-16 -8.9309 17.9784)
(2.05894e-16 -8.06828 16.5298)
(1.60611e-16 -6.99066 14.8641)
(-4.99072e-16 -5.76282 12.6558)
(-1.54013e-16 -4.63769 10.2045)
(-8.97308e-16 -4.13325 8.33748)
(-3.05266e-15 -4.04819 7.08814)
(-1.1562e-15 -3.09041 4.52815)
(-1.31642e-15 -2.14991 1.90613)
(2.22265e-14 -13.4562 28.0078)
(9.11036e-15 -16.7107 25.2087)
(-7.335e-16 -12.4382 25.0335)
(3.28686e-15 -13.5401 22.3998)
(1.28879e-16 -11.2333 21.4798)
(1.62329e-15 -10.9482 19.6791)
(2.42565e-16 -9.70533 18.498)
(-5.36109e-16 -8.93426 17.0331)
(3.48935e-16 -7.56504 15.0637)
(-1.95435e-16 -5.44339 11.5444)
(4.53992e-16 -2.5255 6.60958)
(3.03949e-15 -0.27153 2.37634)
(4.04257e-15 0.279333 0.827758)
(2.70329e-15 -0.359585 1.41815)
(1.78041e-15 -1.44921 3.43107)
(2.19356e-14 -14.0541 28.3742)
(9.99839e-15 -17.5765 26.7399)
(-5.76232e-16 -13.2349 26.0099)
(3.61723e-15 -14.5686 23.3159)
(5.27065e-16 -12.0765 22.5185)
(1.73114e-15 -12.1601 20.5708)
(6.5655e-16 -10.8353 19.4824)
(2.1898e-16 -10.3408 18.0228)
(5.1826e-16 -9.22204 16.3746)
(3.73555e-16 -7.53744 13.4388)
(1.7594e-15 -4.6271 8.82051)
(4.37945e-15 -1.38367 3.57874)
(9.87531e-15 1.41262 -0.488339)
(1.13749e-14 2.97406 -3.0059)
(6.09566e-15 1.84685 -3.24433)
(2.05341e-14 -13.6672 26.6651)
(1.26115e-14 -18.101 27.8309)
(-8.92064e-17 -13.8183 25.9898)
(3.20414e-15 -14.7073 23.1504)
(1.49337e-15 -12.5673 22.1701)
(1.43521e-15 -12.5151 20.1706)
(1.17823e-15 -11.369 18.8681)
(1.02901e-15 -10.8379 17.3113)
(5.37743e-16 -10.0348 15.7882)
(3.93634e-16 -9.03314 13.8129)
(1.17141e-15 -7.47258 11.1125)
(1.71648e-15 -5.28327 7.76275)
(3.1015e-15 -2.82935 4.01827)
(1.8214e-15 0.712789 0.0239204)
(7.0447e-15 1.75981 -5.396)
(1.97333e-14 -12.6745 23.9332)
(1.50282e-14 -17.8106 27.9244)
(1.54336e-15 -13.9286 25.3939)
(2.59655e-15 -14.0887 22.2938)
(2.44734e-15 -12.2607 21.0887)
(2.19928e-15 -11.9386 19.1027)
(1.58633e-15 -10.8563 17.6257)
(1.75736e-15 -10.1508 15.9677)
(2.1235e-15 -9.34178 14.3959)
(1.14654e-15 -8.49084 12.7498)
(1.1916e-15 -7.516 10.8975)
(2.79442e-15 -6.1589 8.757)
(2.62552e-15 -4.56815 6.04753)
(-1.00183e-15 -1.88788 2.68973)
(5.48145e-15 0.321479 -2.80059)
(1.77422e-14 -11.7486 21.7612)
(1.63549e-14 -17.171 27.5563)
(3.08759e-15 -13.8716 24.8938)
(2.12656e-15 -13.4485 21.6312)
(2.57558e-15 -11.8212 20.2407)
(2.56909e-15 -11.3288 18.3442)
(1.8397e-15 -10.3005 16.8313)
(1.88436e-15 -9.52011 15.2149)
(2.62172e-15 -8.69827 13.7013)
(2.11085e-15 -7.8795 12.231)
(1.51041e-15 -7.07673 10.732)
(1.97633e-15 -6.08973 9.16212)
(2.75942e-15 -4.99519 7.22539)
(3.79147e-16 -3.0985 4.70484)
(-2.74226e-15 -0.676144 -0.436972)
(1.7803e-14 -11.2 20.6375)
(1.73211e-14 -16.4975 26.9056)
(3.22424e-15 -13.6906 24.3926)
(2.22211e-15 -12.9906 21.0625)
(2.85335e-15 -11.4801 19.5491)
(1.57207e-15 -10.9649 17.7693)
(2.37543e-15 -10.0669 16.3582)
(2.60685e-15 -9.37334 14.8986)
(1.21205e-15 -8.6488 13.4999)
(2.051e-15 -7.92815 12.1387)
(2.36448e-15 -7.24666 10.8201)
(-4.39347e-17 -6.51329 9.6205)
(1.92159e-15 -5.78177 8.39822)
(1.55667e-15 -4.50642 6.9136)
(-6.1843e-15 -2.09177 2.5093)
(1.66992e-14 -11.0571 20.3693)
(1.69599e-14 -15.6555 25.916)
(2.59918e-15 -13.1109 23.4688)
(2.84501e-16 -12.3708 20.1653)
(3.00933e-15 -10.7908 18.6837)
(6.67595e-16 -10.3374 16.8538)
(-3.51936e-16 -9.40481 15.455)
(2.24469e-15 -8.84177 13.9047)
(-1.54299e-16 -8.22931 12.4974)
(-2.83128e-15 -7.75082 11.248)
(4.08522e-16 -7.40876 10.4005)
(-1.38209e-15 -7.24199 10.1115)
(-3.36843e-15 -7.06771 10.1629)
(7.0175e-16 -6.42114 9.80992)
(-4.79788e-15 -4.10846 6.3271)
(1.48669e-14 -11.8369 21.5967)
(1.39059e-14 -14.6988 24.8643)
(-2.0188e-15 -12.4063 22.5727)
(5.48728e-16 -11.7182 19.9388)
(1.87225e-15 -10.0278 18.289)
(-3.88152e-15 -9.0182 15.8445)
(5.77659e-17 -7.50077 13.6054)
(1.10978e-15 -6.57618 11.4469)
(-5.08024e-15 -5.8822 10.0098)
(-7.30876e-16 -5.89209 9.47392)
(5.89413e-16 -6.42461 10.0545)
(-8.2793e-15 -7.43 11.5025)
(-4.22528e-15 -8.26156 13.1692)
(-5.72238e-15 -8.52861 13.6166)
(-8.11962e-15 -6.00629 10.4838)
(1.53814e-14 -12.899 23.1378)
(1.27117e-14 -15.8721 26.4985)
(-5.07249e-15 -12.6308 23.1637)
(1.03767e-15 -11.9714 21.2379)
(3.60791e-16 -10.2623 19.7264)
(-3.48787e-15 -8.66023 16.8939)
(1.03976e-15 -6.46498 13.9597)
(2.0341e-15 -4.7602 11.2104)
(1.59658e-15 -3.21764 8.9629)
(3.879e-15 -2.22139 7.28445)
(1.8136e-15 -2.11549 6.94298)
(-2.4182e-15 -3.41278 8.58034)
(-2.35221e-15 -5.77437 11.6761)
(-6.39161e-15 -7.75804 13.7847)
(-6.65377e-15 -5.74386 10.9282)
(1.23748e-14 -11.5396 20.1674)
(1.4965e-14 -18.3263 29.2132)
(1.68339e-15 -16.366 27.3314)
(5.18092e-16 -14.7815 24.5041)
(4.62715e-16 -13.1426 22.766)
(-1.72204e-15 -11.6825 20.2507)
(4.47554e-16 -9.45836 17.2956)
(2.3679e-15 -7.4451 14.2701)
(2.7804e-15 -5.39816 11.4991)
(4.66104e-15 -3.49931 8.79438)
(4.36906e-15 -1.79086 6.3981)
(2.2974e-15 -0.745564 4.71899)
(5.42519e-17 -0.936352 4.57088)
(-1.47674e-15 -2.57783 6.30003)
(-2.53264e-15 -3.03044 6.62767)
(7.1583e-15 -6.15027 10.0299)
(1.57418e-14 -15.6734 24.0539)
(9.45197e-15 -17.9654 28.1856)
(3.21291e-15 -16.6848 26.2429)
(3.829e-16 -14.7011 23.601)
(-6.03387e-16 -13.3388 21.4108)
(4.48826e-16 -11.9351 19.3905)
(1.02528e-15 -10.5233 17.2003)
(1.92285e-15 -8.96226 14.9185)
(3.16705e-15 -7.27893 12.445)
(3.61787e-15 -5.38724 9.76686)
(3.55501e-15 -3.40306 6.95501)
(2.2871e-15 -1.66295 4.20715)
(1.40154e-15 0.0335742 1.63369)
(-2.98588e-17 0.576595 0.198571)
(1.98536e-15 -2.22066 4.90715)
(1.63876e-14 -13.3624 21.0591)
(1.79428e-14 -19.2809 29.2835)
(1.23944e-14 -20.7604 29.8722)
(6.27454e-15 -19.8381 27.0015)
(2.49169e-15 -18.1653 23.4205)
(8.05488e-16 -16.4333 20.2349)
(-1.75284e-17 -14.8651 17.584)
(-3.27489e-17 -13.3211 15.2262)
(3.9867e-16 -11.7599 13.1938)
(7.05061e-16 -10.1937 11.2851)
(9.55342e-16 -8.46318 9.34263)
(8.9642e-16 -6.57589 7.30175)
(5.35799e-16 -4.29471 4.85737)
(9.92268e-17 -0.839538 0.592352)
(-2.09222e-17 13.7972 56.0117)
(-8.56875e-16 0.158431 6.81466)
(-6.61818e-16 -0.559052 -2.48874)
(-5.58902e-16 -0.390033 -1.63368)
(-4.79432e-16 -0.247671 -2.04367)
(-5.53822e-16 0.424149 -2.87267)
(-5.03163e-16 0.14672 -1.82889)
(-5.35982e-16 0.381376 -1.68904)
(-7.95469e-16 0.462343 -1.48929)
(3.20034e-16 1.00868 -2.14861)
(6.52499e-16 0.805386 -1.41499)
(6.88904e-16 0.931117 -1.28288)
(7.03643e-16 1.49437 -1.67408)
(3.98017e-16 1.16889 -1.0937)
(3.01536e-16 1.37591 -1.07211)
(2.30207e-16 1.363 -1.05988)
(1.23424e-16 1.83702 -1.31762)
(2.20405e-16 1.519 -0.892625)
(1.84273e-16 1.64006 -0.885091)
(1.49339e-16 2.14769 -1.03997)
(2.00769e-17 1.66722 -0.730064)
(-1.10154e-16 1.88831 -0.747721)
(-8.00649e-17 1.82978 -0.778238)
(-2.20708e-16 2.30784 -0.87208)
(-3.00567e-16 1.80637 -0.639274)
(-3.47108e-16 2.02397 -0.651693)
(-5.53433e-16 1.96472 -0.67896)
(-8.08786e-16 2.36315 -0.716296)
(-8.90531e-16 1.89489 -0.541541)
(-9.39313e-16 2.00537 -0.55656)
(-1.3214e-15 2.41671 -0.525295)
(-1.27623e-15 1.82692 -0.42996)
(-1.31686e-15 2.02122 -0.440278)
(-1.45894e-15 1.96336 -0.466503)
(-2.09485e-15 2.27614 -0.404965)
(-1.73715e-15 1.77921 -0.35822)
(-1.69826e-15 1.87852 -0.383653)
(-2.44494e-15 2.19441 -0.28212)
(-1.90726e-15 1.62373 -0.286103)
(-1.98116e-15 1.78714 -0.294774)
(-1.77701e-15 1.73201 -0.310248)
(-2.53999e-15 2.00245 -0.199042)
(-1.82271e-15 1.50369 -0.20011)
(-1.76892e-15 1.65394 -0.186353)
(-1.64332e-15 1.5908 -0.169952)
(-2.06987e-15 1.85612 -0.0840807)
(-1.64937e-15 1.53951 0.00831699)
(-1.44082e-15 1.58176 0.0392109)
(-1.80932e-15 1.84676 0.230407)
(-9.81163e-16 1.46232 0.228829)
(-7.6681e-16 1.55811 0.27462)
(-5.13004e-16 1.47633 0.308815)
(-3.77787e-16 1.59812 0.570253)
(5.76385e-17 1.22051 0.381914)
(2.19781e-16 1.2716 0.407816)
(6.11688e-16 1.21122 0.467163)
(1.2062e-15 1.16012 0.467491)
(1.47291e-15 0.791933 -0.0234309)
(1.22685e-15 0.78115 0.107238)
(2.18888e-15 0.828457 -1.02083)
(2.13222e-15 0.164997 -1.64796)
(2.15316e-15 0.25253 -1.7834)
(2.46205e-15 0.438254 -1.86143)
(5.40722e-16 0.860077 -2.45878)
(-3.76147e-15 -0.637221 0.849206)
(-3.18737e-15 -0.174003 0.514284)
(-3.83855e-15 -0.806154 2.64886)
(-2.41929e-15 -1.64517 3.70522)
(-2.05863e-15 -1.8181 3.58597)
(-1.84694e-15 -1.82046 3.7595)
(-1.92996e-15 -3.11052 6.6422)
(-1.22768e-15 -3.61564 6.05683)
(-1.28729e-15 -4.11706 6.24686)
(-1.31504e-15 -4.07704 6.4902)
(-1.61497e-15 -6.24565 10.2467)
(-1.13129e-15 -6.40984 8.3837)
(-1.31417e-15 -6.53145 8.97049)
(-1.58531e-15 -9.15743 13.2668)
(-1.18275e-15 -8.90683 10.4199)
(-1.24972e-15 -9.37794 11.2288)
(-1.31972e-15 -10.1086 12.8671)
(-1.05935e-15 -10.0511 12.6557)
(-8.73402e-16 -10.1605 12.86)
(5.94845e-18 -12.0015 15.6545)
(-4.72262e-17 -10.9289 13.7053)
(2.52176e-16 -11.2447 14.2266)
(3.59517e-16 -11.2287 14.2607)
(4.76437e-16 -11.3474 14.2776)
(5.53583e-16 -11.4288 14.3299)
(6.31932e-16 -11.5293 14.4177)
(7.2745e-16 -11.6227 14.6481)
(8.33305e-16 -11.7165 14.9859)
(1.39971e-15 -12.5267 16.7685)
(1.22484e-15 -12.1265 15.6193)
(1.41914e-15 -12.3172 15.8575)
(1.52173e-15 -12.2791 15.9534)
(1.60841e-15 -12.4633 16.3151)
(1.65164e-15 -12.4436 16.3279)
(1.71366e-15 -12.5527 16.4373)
(1.77421e-15 -12.6028 16.5227)
(1.86386e-15 -12.6904 16.6484)
(2.56941e-15 -13.185 18.0639)
(2.29051e-15 -12.8109 17.1548)
(2.43925e-15 -12.9424 17.3719)
(2.55319e-15 -12.9626 17.4696)
(2.6927e-15 -13.0336 17.6109)
(2.81448e-15 -13.0701 17.8251)
(2.91657e-15 -13.1642 18.0884)
(3.02986e-15 -13.1731 18.1946)
(3.15042e-15 -13.233 18.3965)
(3.26803e-15 -13.3606 18.5999)
(3.95716e-15 -13.1384 19.3117)
(3.24449e-15 -13.0426 18.8238)
(3.30653e-15 -13.1188 19.0371)
(3.2827e-15 -13.1282 19.0935)
(3.29679e-15 -13.1917 19.145)
(3.30304e-15 -13.2026 19.1759)
(3.31814e-15 -13.2603 19.3773)
(3.35096e-15 -13.2352 19.3817)
(3.41385e-15 -13.3755 19.3026)
(4.10518e-15 -12.2501 18.1833)
(3.47155e-15 -12.4983 18.2606)
(3.73862e-15 -12.4822 18.3877)
(3.97608e-15 -12.4975 18.6209)
(4.16509e-15 -12.4419 18.6125)
(4.37658e-15 -12.4563 18.7312)
(4.58455e-15 -12.4333 18.8674)
(4.82418e-15 -12.3626 19.0865)
(5.2341e-15 -12.6051 19.5806)
(5.49809e-15 -10.1443 16.7618)
(5.38513e-15 -11.0574 18.0972)
(5.44208e-15 -10.9163 17.8849)
(5.43983e-15 -10.8863 17.7411)
(5.73376e-15 -10.8391 17.749)
(5.63477e-15 -10.7533 17.3184)
(5.43633e-15 -10.6099 16.7204)
(5.31227e-15 -10.4726 16.1186)
(5.24128e-15 -10.5072 15.457)
(4.79076e-15 -7.26888 10.7398)
(6.00243e-15 -8.63287 13.9262)
(5.90868e-15 -8.24242 13.2121)
(6.04755e-15 -8.21872 13.1361)
(6.20873e-15 -7.97475 12.9516)
(6.53821e-15 -7.90682 12.849)
(7.45768e-15 -7.64648 12.6141)
(7.05958e-15 -7.52496 12.3234)
(7.02591e-15 -7.31874 11.9223)
(6.68428e-15 -7.19873 11.2279)
(3.2902e-15 -3.56839 5.03628)
(5.6178e-15 -5.48696 8.51945)
(4.82368e-15 -4.94245 6.79611)
(4.40002e-15 -5.12787 6.12618)
(3.76786e-15 -4.7791 4.90279)
(2.9841e-15 -4.72675 3.54147)
(1.46759e-15 -4.53147 1.32307)
(6.10509e-17 -4.16837 -0.614621)
(3.2921e-16 -4.18301 -0.389476)
(-5.17559e-16 -4.10293 -1.94496)
(-2.79986e-18 -3.8981 -0.873176)
(-2.7779e-16 -3.85217 -1.25618)
(-8.6606e-16 -3.04237 -1.78814)
(-7.12826e-16 -4.12359 -1.94879)
(-8.66082e-16 -3.41629 -1.59785)
(-6.92135e-16 -2.96367 -1.14638)
(-9.33302e-16 -3.76501 -1.58494)
(-6.83951e-16 -2.51655 -1.0052)
(-9.64572e-16 -3.24328 -1.48036)
(-7.95762e-16 -2.91991 -1.12768)
(-6.52149e-16 -2.34225 -0.850673)
(-9.32601e-16 -2.82309 -1.23121)
(-8.2468e-16 -2.57603 -0.956939)
(-6.98363e-16 -2.15083 -0.720306)
(-9.54914e-16 -2.85037 -0.995215)
(-7.43825e-16 -1.87035 -0.651569)
(-1.09648e-15 -2.46769 -0.964155)
(-7.6605e-16 -2.13956 -0.763146)
(-6.71688e-16 -1.82144 -0.58099)
(-8.86704e-16 -2.42606 -0.809055)
(-5.7533e-16 -1.56781 -0.534414)
(-8.61435e-16 -2.10874 -0.793662)
(-7.27094e-16 -1.88525 -0.643224)
(-5.93473e-16 -1.49435 -0.489563)
(-8.30305e-16 -1.85021 -0.724721)
(-7.36823e-16 -1.66841 -0.587075)
(-5.16317e-16 -1.38004 -0.443129)
(-7.13057e-16 -1.88159 -0.626779)
(-5.15319e-16 -1.18683 -0.412978)
(-8.03158e-16 -1.6243 -0.625067)
(-5.26554e-16 -1.37062 -0.5069)
(-5.06527e-16 -1.15535 -0.383544)
(-7.2655e-16 -1.58592 -0.548612)
(-5.90401e-16 -0.971103 -0.360695)
(-8.52373e-16 -1.36795 -0.551301)
(-6.87568e-16 -1.18229 -0.44971)
(-4.22886e-16 -0.913351 -0.335908)
(-6.08473e-16 -1.17345 -0.511142)
(-4.56205e-16 -1.01987 -0.412983)
(-2.19843e-16 -0.82113 -0.303293)
(-3.50732e-16 -1.17994 -0.436102)
(-2.6559e-16 -0.674584 -0.279139)
(-3.64716e-16 -1.00372 -0.435203)
(-4.03071e-16 -0.788058 -0.352443)
(-5.21195e-16 -0.64281 -0.258225)
(-5.80956e-16 -0.954784 -0.377906)
(-3.54455e-16 -0.498452 -0.242165)
(-6.23143e-16 -0.807414 -0.384442)
(-5.37582e-16 -0.632766 -0.31772)
(-8.3123e-17 -0.442366 -0.229145)
(-1.15984e-16 -0.652484 -0.360315)
(-7.40757e-17 -0.49966 -0.292933)
(-1.30991e-16 -0.356841 -0.203262)
(-3.84841e-16 -0.642393 -0.296849)
(-3.94698e-16 -0.229993 -0.178382)
(-6.14395e-16 -0.529505 -0.287312)
(-4.1694e-16 -0.303267 -0.229018)
(-1.02898e-16 -0.197238 -0.148352)
(-3.00818e-16 -0.486358 -0.221953)
(-1.83893e-17 -0.0609742 -0.121803)
(-2.23938e-16 -0.408675 -0.208228)
(-2.38302e-16 -0.18651 -0.158142)
(-3.89846e-17 -0.00410086 -0.075141)
(3.17353e-16 -0.312331 -0.133508)
(1.4265e-15 -0.0773478 -0.0902498)
(-6.76889e-17 0.0742514 -0.0251416)
(5.50781e-16 -0.509878 -0.0651668)
(-5.55067e-16 0.394292 -0.00646622)
(-6.69862e-16 -0.249819 -0.102386)
(-1.59756e-15 -0.810571 -0.17848)
(-1.20056e-16 0.69802 -0.184379)
(1.53195e-16 -0.748254 -0.166625)
(4.3947e-16 0.21836 0.00893725)
(-9.86425e-16 0.334834 0.0324863)
(4.89645e-16 -0.178728 -0.153731)
(9.91882e-16 0.298121 -0.157458)
(1.72821e-15 0.313894 -0.189118)
(1.66934e-15 -0.0736422 -0.38588)
(8.50698e-16 0.495232 -0.292467)
(6.91054e-16 0.107239 -0.514523)
(3.0393e-16 0.49708 -0.399439)
(2.91272e-16 0.459564 -0.47901)
(-5.59033e-31 0.719207 0.887019)
(-1.95266e-30 0.816716 0.887938)
(-2.32056e-30 0.869104 0.894819)
(3.5101e-30 0.923762 0.901893)
(2.45316e-29 0.97372 0.911907)
(5.65565e-29 1.02076 0.923249)
(3.39891e-29 1.06528 0.936546)
(-2.21323e-28 1.10779 0.951418)
(-9.71942e-28 1.14856 0.967956)
(-2.83472e-27 1.18797 0.98606)
(-9.95309e-27 1.22619 1.00571)
(-3.99861e-26 1.26344 1.02687)
(-1.13317e-25 1.29989 1.04952)
(-5.96226e-27 1.33576 1.07366)
(2.00504e-24 1.37135 1.09934)
(1.26549e-23 1.4071 1.12667)
(4.64928e-23 1.44352 1.15577)
(9.82631e-23 1.48114 1.18677)
(-3.27655e-23 1.52034 1.21979)
(-1.34724e-21 1.56141 1.25493)
(-6.92639e-21 1.60449 1.29224)
(-2.25881e-20 1.64954 1.3317)
(-4.88156e-20 1.69634 1.37322)
(-3.66448e-20 1.74442 1.41665)
(2.59351e-19 1.79296 1.4619)
(1.65511e-18 1.84073 1.50927)
(6.30308e-18 1.88595 1.56014)
(1.89561e-17 1.92618 1.61796)
(4.85649e-17 1.95831 1.68943)
(1.09526e-16 1.97874 1.78515)
(2.21335e-16 1.98395 1.91877)
(4.05314e-16 1.9714 2.1042)
(6.78084e-16 1.94068 2.35062)
(1.04352e-15 1.89467 2.6569)
(1.48696e-15 1.83988 3.00753)
(1.97537e-15 1.78541 3.37353)
(2.46419e-15 1.74027 3.71946)
(2.90722e-15 1.71048 4.0138)
(3.26493e-15 1.69751 4.23661)
(3.5086e-15 1.69854 4.38099)
(3.6212e-15 1.70794 4.44947)
(3.59693e-15 1.71831 4.44882)
(3.44107e-15 1.72068 4.3856)
(3.16729e-15 1.70601 4.26507)
(2.78379e-15 1.67249 4.09777)
(2.27623e-15 1.62135 3.9039)
(1.7071e-15 1.44985 3.64005)
(1.58641e-15 0.75791 3.00953)
(2.49734e-15 -0.555225 1.9843)
(2.98468e-15 -1.45874 1.72401)
(3.24317e-15 -1.95594 1.5544)
(3.35334e-15 -2.38017 1.36516)
(3.30315e-15 -2.80831 1.18257)
(3.10169e-15 -3.23734 0.994907)
(2.77261e-15 -3.66994 0.808344)
(2.34448e-15 -4.08738 0.608815)
(1.87356e-15 -4.46786 0.415276)
(1.38648e-15 -4.79017 0.223998)
(9.09266e-16 -5.04147 0.055265)
(4.79718e-16 -5.18983 -0.0977692)
(1.85213e-16 -5.20937 -0.208513)
(4.48178e-17 -5.17475 -0.274102)
(4.48498e-18 -5.11979 -0.311374)
(-7.90261e-19 -5.04283 -0.326702)
(-3.29187e-19 -4.9375 -0.334064)
(-3.67937e-20 -4.7796 -0.335917)
(2.69858e-21 -4.553 -0.338622)
(1.31576e-21 -4.27652 -0.338064)
(1.23192e-22 -3.91343 -0.345062)
(-2.42229e-23 -3.50252 -0.340503)
(-3.02989e-23 -2.94311 -0.348862)
(1.81883e-23 -2.42605 -0.326554)
(-9.48343e-23 -1.56287 -0.3374)
(4.46701e-22 -1.261 -0.299987)
(-6.91004e-21 1.01887 -0.291344)
(6.91345e-20 0.807022 -0.175959)
(-4.06168e-19 1.39526 -0.495271)
(1.30691e-18 1.98089 0.145463)
(8.20067e-18 -4.44637 -0.420581)
(-1.0879e-30 0.719277 0.934398)
(-3.68258e-30 0.815625 0.933259)
(-3.71166e-30 0.86698 0.940029)
(8.41834e-30 0.92112 0.946771)
(4.36322e-29 0.970378 0.956917)
(6.99969e-29 1.01688 0.968514)
(-8.50718e-29 1.06082 0.982267)
(-8.02863e-28 1.10281 0.997743)
(-2.65285e-27 1.14306 1.01502)
(-7.62421e-27 1.18197 1.03398)
(-2.65371e-26 1.2197 1.05459)
(-8.59107e-26 1.25647 1.0768)
(-9.97426e-26 1.29244 1.1006)
(1.04392e-24 1.32782 1.12602)
(8.80198e-24 1.36289 1.15313)
(3.87784e-23 1.39809 1.18208)
(1.05575e-22 1.43392 1.21303)
(9.42301e-23 1.4709 1.24612)
(-7.8303e-22 1.50943 1.28144)
(-5.40975e-21 1.54981 1.31907)
(-2.05666e-20 1.5922 1.35902)
(-5.27786e-20 1.63658 1.40123)
(-7.29069e-20 1.68276 1.44555)
(1.19406e-19 1.73023 1.49193)
(1.27164e-18 1.7781 1.54063)
(5.50166e-18 1.82487 1.59304)
(1.77397e-17 1.86818 1.65281)
(4.76677e-17 1.90465 1.72731)
(1.1139e-16 1.92997 1.82853)
(2.3128e-16 1.93945 1.97224)
(4.32209e-16 1.92921 2.17448)
(7.33514e-16 1.89773 2.44563)
(1.1388e-15 1.8474 2.78383)
(1.6284e-15 1.78537 3.17067)
(2.15981e-15 1.72268 3.57211)
(2.6772e-15 1.67126 3.94678)
(3.12564e-15 1.63989 4.25862)
(3.46237e-15 1.63153 4.48686)
(3.6611e-15 1.64342 4.62745)
(3.71092e-15 1.66924 4.68761)
(3.61339e-15 1.70144 4.67863)
(3.38044e-15 1.73225 4.61108)
(3.03309e-15 1.75311 4.49232)
(2.59897e-15 1.75457 4.32625)
(2.09869e-15 1.73228 4.1194)
(1.51531e-15 1.69482 3.89341)
(8.57304e-16 1.58802 3.64212)
(6.5811e-16 1.01873 3.08957)
(2.19105e-15 -0.476139 1.8518)
(3.06875e-15 -1.47935 1.60073)
(3.26199e-15 -1.95254 1.53713)
(3.35322e-15 -2.37293 1.34527)
(3.29728e-15 -2.80085 1.16382)
(3.09293e-15 -3.22858 0.980793)
(2.76367e-15 -3.65915 0.797836)
(2.33741e-15 -4.07396 0.603235)
(1.86885e-15 -4.45258 0.414575)
(1.384e-15 -4.77382 0.227752)
(9.08653e-16 -5.02492 0.0623553)
(4.80291e-16 -5.17497 -0.0882301)
(1.86029e-16 -5.19928 -0.197795)
(4.5216e-17 -5.16799 -0.263619)
(4.52927e-18 -5.1139 -0.301746)
(-8.20467e-19 -5.03591 -0.318444)
(-3.41587e-19 -4.92837 -0.327441)
(-3.8139e-20 -4.7679 -0.330963)
(2.9498e-21 -4.53906 -0.335406)
(1.40964e-21 -4.2602 -0.336523)
(1.31302e-22 -3.89597 -0.345204)
(-2.573e-23 -3.48384 -0.342562)
(-3.08244e-23 -2.92518 -0.352616)
(1.78856e-23 -2.40655 -0.333315)
(-9.50659e-23 -1.54157 -0.345225)
(4.76854e-22 -1.23807 -0.319319)
(-7.63182e-21 0.997531 -0.306527)
(7.50681e-20 0.831398 -0.146045)
(-3.8094e-19 1.34628 -0.494018)
(1.18897e-18 1.96555 0.212309)
(7.24947e-18 -4.34966 -0.408748)
(-1.49256e-30 0.719502 0.960098)
(-5.03537e-30 0.815279 0.958167)
(-4.63936e-30 0.866004 0.964862)
(9.88953e-30 0.919875 0.971495)
(3.55943e-29 0.968749 0.981753)
(-2.30818e-29 1.01497 0.993544)
(-4.75681e-28 1.05861 1.0076)
(-1.84177e-27 1.10033 1.02346)
(-4.91893e-27 1.14031 1.04118)
(-1.37816e-26 1.17897 1.06066)
(-4.49194e-26 1.21644 1.08184)
(-8.95046e-26 1.25297 1.10469)
(3.47101e-25 1.28869 1.12916)
(4.41977e-24 1.32381 1.15533)
(2.35756e-23 1.3586 1.18329)
(7.91315e-23 1.39349 1.21321)
(1.39435e-22 1.42899 1.24527)
(-2.31748e-22 1.46562 1.27958)
(-3.00769e-21 1.5038 1.31626)
(-1.38467e-20 1.54382 1.35534)
(-4.19751e-20 1.58586 1.39681)
(-8.0545e-20 1.62992 1.4406)
(-1.33254e-20 1.67577 1.48664)
(6.76019e-19 1.72286 1.53511)
(3.60036e-18 1.7701 1.58703)
(1.27948e-17 1.81555 1.64539)
(3.66756e-17 1.85621 1.7167)
(9.00231e-17 1.88786 1.81213)
(1.9448e-16 1.90554 1.94719)
(3.75538e-16 1.90465 2.13854)
(6.54906e-16 1.88254 2.39808)
(1.03995e-15 1.84015 2.72632)
(1.51501e-15 1.783 3.10802)
(2.04027e-15 1.72087 3.51265)
(2.56026e-15 1.66564 3.90073)
(3.0182e-15 1.6276 4.23508)
(3.3687e-15 1.61216 4.4912)
(3.58347e-15 1.61894 4.66116)
(3.65067e-15 1.64328 4.74974)
(3.57177e-15 1.67862 4.76748)
(3.35862e-15 1.71806 4.72531)
(3.03129e-15 1.75468 4.63212)
(2.61605e-15 1.78074 4.49394)
(2.14234e-15 1.78714 4.31379)
(1.63135e-15 1.7681 4.09581)
(1.06305e-15 1.73033 3.85836)
(3.97058e-16 1.63896 3.61535)
(3.32869e-17 1.1507 3.15706)
(1.54938e-15 -0.312078 1.89855)
(3.08751e-15 -1.41272 1.41376)
(3.30894e-15 -1.90959 1.47756)
(3.35267e-15 -2.31427 1.32424)
(3.28859e-15 -2.74317 1.1377)
(3.08156e-15 -3.17163 0.960201)
(2.75222e-15 -3.60147 0.782572)
(2.3284e-15 -4.0166 0.594359)
(1.86287e-15 -4.39748 0.412453)
(1.38082e-15 -4.72304 0.232019)
(9.07794e-16 -4.98023 0.0715536)
(4.8091e-16 -5.13875 -0.0755186)
(1.86982e-16 -5.17478 -0.183117)
(4.56884e-17 -5.15381 -0.248739)
(4.58364e-18 -5.10743 -0.287672)
(-8.56145e-19 -5.03469 -0.305965)
(-3.56551e-19 -4.93034 -0.317115)
(-3.97985e-20 -4.77178 -0.322999)
(3.2588e-21 -4.54432 -0.329964)
(1.5277e-21 -4.26589 -0.333566)
(1.4165e-22 -3.90274 -0.344768)
(-2.76913e-23 -3.491 -0.344838)
(-3.15133e-23 -2.93477 -0.357357)
(1.75168e-23 -2.41638 -0.341897)
(-9.55469e-23 -1.5545 -0.354277)
(5.12719e-22 -1.25401 -0.340204)
(-7.95685e-21 0.98093 -0.313271)
(7.72419e-20 0.848255 -0.125211)
(-3.61816e-19 1.32355 -0.486026)
(9.28655e-19 1.95679 0.190785)
(2.90138e-18 -4.27568 -0.391667)
(-1.48418e-30 0.719838 0.990762)
(-6.30532e-30 0.814714 0.988123)
(-9.12281e-30 0.86454 0.994774)
(-1.09019e-29 0.917988 1.00135)
(-6.19597e-29 0.966286 1.01177)
(-3.72833e-28 1.01208 1.02383)
(-1.36626e-27 1.05526 1.03826)
(-3.4027e-27 1.09657 1.0546)
(-7.09841e-27 1.13614 1.07289)
(-1.85059e-26 1.17441 1.09302)
(-4.5762e-26 1.2115 1.11491)
(9.98194e-26 1.24767 1.13852)
(2.06886e-24 1.28301 1.16383)
(1.33392e-23 1.31774 1.19092)
(5.36683e-23 1.35211 1.2199)
(1.32052e-22 1.38654 1.25098)
(4.10983e-23 1.42154 1.28435)
(-1.46455e-21 1.45766 1.32015)
(-8.70272e-21 1.4953 1.35844)
(-3.11297e-20 1.53478 1.39927)
(-7.46588e-20 1.57629 1.44261)
(-8.17014e-20 1.61983 1.48841)
(2.85517e-19 1.66512 1.53678)
(2.22058e-18 1.71148 1.58847)
(8.97342e-18 1.75743 1.64593)
(2.78068e-17 1.80037 1.71486)
(7.22882e-17 1.83635 1.80575)
(1.63506e-16 1.86022 1.93411)
(3.27947e-16 1.86665 2.11769)
(5.90325e-16 1.8518 2.37047)
(9.62438e-16 1.8151 2.69534)
(1.4329e-15 1.76055 3.07931)
(1.96405e-15 1.69668 3.4938)
(2.49918e-15 1.63526 3.90027)
(2.97723e-15 1.58828 4.25992)
(3.34753e-15 1.56422 4.54418)
(3.57789e-15 1.56566 4.74066)
(3.65506e-15 1.58969 4.85171)
(3.5811e-15 1.6301 4.88786)
(3.36951e-15 1.67971 4.86146)
(3.04214e-15 1.73165 4.7831)
(2.62628e-15 1.77931 4.66078)
(2.1514e-15 1.81539 4.49997)
(1.64538e-15 1.8309 4.3035)
(1.12513e-15 1.81851 4.07434)
(5.65195e-16 1.78433 3.82797)
(-1.12117e-16 1.71567 3.58906)
(-6.46931e-16 1.31833 3.20821)
(5.8132e-16 -0.107347 2.04367)
(2.90586e-15 -1.36592 1.24971)
(3.36067e-15 -1.90406 1.35418)
(3.36183e-15 -2.28108 1.29268)
(3.27723e-15 -2.7035 1.10965)
(3.06883e-15 -3.13346 0.93349)
(2.73982e-15 -3.56247 0.762866)
(2.31876e-15 -3.97735 0.582224)
(1.85648e-15 -4.35935 0.408504)
(1.37739e-15 -4.6873 0.236172)
(9.06776e-16 -4.94815 0.0822276)
(4.81441e-16 -5.11231 -0.0601081)
(1.87893e-16 -5.15664 -0.164836)
(4.61495e-17 -5.14285 -0.229692)
(4.63893e-18 -5.10162 -0.269316)
(-8.9082e-19 -5.03213 -0.28938)
(-3.71494e-19 -4.92951 -0.303105)
(-4.1504e-20 -4.77181 -0.311978)
(3.57515e-21 -4.54494 -0.322167)
(1.6524e-21 -4.26644 -0.328964)
(1.52835e-22 -3.9038 -0.343416)
(-2.98522e-23 -3.49211 -0.34677)
(-3.22843e-23 -2.93742 -0.362477)
(1.7138e-23 -2.41918 -0.351146)
(-9.6231e-23 -1.55751 -0.364053)
(5.49668e-22 -1.2601 -0.359314)
(-8.32179e-21 0.955932 -0.324138)
(8.02516e-20 0.872068 -0.111269)
(-3.46105e-19 1.29433 -0.485168)
(8.05568e-19 1.94198 0.161707)
(-3.05749e-19 -4.23495 -0.37088)
(-1.26243e-31 0.720247 1.02039)
(-8.8317e-30 0.814327 1.01733)
(-3.2678e-29 0.863304 1.02396)
(-1.17412e-28 0.91636 1.03056)
(-4.20132e-28 0.96412 1.04117)
(-1.26731e-27 1.00952 1.05354)
(-2.82478e-27 1.05228 1.06839)
(-4.1194e-27 1.09321 1.08524)
(-3.74621e-27 1.13241 1.10412)
(-3.57543e-27 1.17032 1.12492)
(5.98352e-26 1.20708 1.14754)
(9.60715e-25 1.24291 1.17194)
(7.07433e-24 1.27792 1.1981)
(3.32778e-23 1.31228 1.22611)
(1.02594e-22 1.34625 1.25612)
(1.41181e-22 1.38024 1.28838)
(-5.62237e-22 1.41478 1.32308)
(-5.01969e-21 1.4504 1.36036)
(-2.14253e-20 1.48755 1.40029)
(-6.14279e-20 1.52654 1.44289)
(-1.05582e-19 1.56755 1.48814)
(4.89465e-20 1.61058 1.53612)
(1.24391e-18 1.65522 1.58737)
(6.0072e-18 1.70047 1.64386)
(2.04349e-17 1.74424 1.71047)
(5.66983e-17 1.78299 1.79689)
(1.34945e-16 1.81173 1.91844)
(2.82189e-16 1.82479 2.09388)
(5.25825e-16 1.81749 2.33937)
(8.82064e-16 1.78815 2.66018)
(1.34402e-15 1.73945 3.04497)
(1.87663e-15 1.67859 3.46606)
(2.42265e-15 1.61619 3.8856)
(2.91752e-15 1.56414 4.26462)
(3.30578e-15 1.53251 4.57244)
(3.55129e-15 1.5265 4.79317)
(3.63914e-15 1.54555 4.92623)
(3.57185e-15 1.58476 4.98125)
(3.36441e-15 1.63739 4.97129)
(3.04042e-15 1.69669 4.90825)
(2.62875e-15 1.75645 4.80129)
(2.15976e-15 1.81068 4.65715)
(1.66089e-15 1.8526 4.48071)
(1.15239e-15 1.87356 4.27494)
(6.40466e-16 1.86514 4.04237)
(9.04998e-17 1.83076 3.79557)
(-6.03263e-16 1.77 3.56362)
(-1.31035e-15 1.44551 3.24995)
(-5.00727e-16 0.132019 2.23699)
(2.47556e-15 -1.29808 1.13821)
(3.34676e-15 -1.9141 1.1852)
(3.38675e-15 -2.26785 1.22687)
(3.26651e-15 -2.67252 1.07924)
(3.0546e-15 -3.10319 0.901638)
(2.72684e-15 -3.53232 0.737573)
(2.30887e-15 -3.94674 0.566401)
(1.84993e-15 -4.32939 0.402278)
(1.37384e-15 -4.65879 0.239844)
(9.0563e-16 -4.92197 0.0941939)
(4.81842e-16 -5.0903 -0.0419377)
(1.88704e-16 -5.14143 -0.142736)
(4.65698e-17 -5.13335 -0.206113)
(4.69144e-18 -5.09586 -0.246183)
(-9.22251e-19 -5.02833 -0.268178)
(-3.85465e-19 -4.92635 -0.284905)
(-4.31561e-20 -4.76863 -0.297442)
(3.88012e-21 -4.54168 -0.311643)
(1.77761e-21 -4.2626 -0.322435)
(1.64457e-22 -3.90008 -0.34097)
(-3.21293e-23 -3.48822 -0.348297)
(-3.31193e-23 -2.93478 -0.368088)
(1.67618e-23 -2.41679 -0.361234)
(-9.70455e-23 -1.55444 -0.375791)
(5.86181e-22 -1.2602 -0.376704)
(-8.66028e-21 0.929132 -0.341653)
(8.26876e-20 0.881308 -0.106078)
(-3.36477e-19 1.27286 -0.480008)
(7.77508e-19 1.92702 0.12381)
(-2.66716e-18 -4.20378 -0.350605)
(3.5381e-30 0.720702 1.05042)
(-2.24776e-29 0.813906 1.04714)
(-1.27987e-28 0.861969 1.05378)
(-4.73824e-28 0.914581 1.06048)
(-1.37134e-27 0.961749 1.07133)
(-2.96213e-27 1.00671 1.08407)
(-3.72593e-27 1.049 1.09936)
(1.97803e-27 1.08951 1.11678)
(2.35129e-26 1.1283 1.1363)
(9.05473e-26 1.16583 1.15781)
(5.33748e-25 1.20221 1.18121)
(3.65271e-24 1.23768 1.20645)
(1.91725e-23 1.27231 1.23352)
(7.02884e-23 1.30628 1.2625)
(1.50178e-22 1.3398 1.29359)
(-9.9576e-23 1.3733 1.32706)
(-2.60701e-21 1.40731 1.36315)
(-1.37134e-20 1.44239 1.40199)
(-4.62546e-20 1.47898 1.44363)
(-1.02974e-19 1.51741 1.4881)
(-7.70504e-20 1.55786 1.53544)
(5.90925e-19 1.6002 1.58607)
(3.79003e-18 1.64381 1.64149)
(1.44815e-17 1.6871 1.70582)
(4.3315e-17 1.72707 1.78783)
(1.0915e-16 1.75904 1.9024)
(2.39068e-16 1.77722 2.06925)
(4.62883e-16 1.77633 2.30697)
(8.01393e-16 1.75373 2.6238)
(1.25276e-15 1.71109 3.01008)
(1.78512e-15 1.65447 3.43814)
(2.34115e-15 1.59318 3.86948)
(2.85318e-15 1.53805 4.26494)
(3.2609e-15 1.49938 4.59319)
(3.5238e-15 1.48448 4.83625)
(3.62452e-15 1.4957 4.99075)
(3.56544e-15 1.53042 5.06452)
(3.36288e-15 1.58295 5.07056)
(3.04221e-15 1.64663 5.02176)
(2.63398e-15 1.71518 4.92846)
(2.17008e-15 1.78282 4.79835)
(1.67906e-15 1.84384 4.63731)
(1.18095e-15 1.89175 4.45007)
(6.83254e-16 1.91805 4.24018)
(1.76885e-16 1.91352 4.01062)
(-3.84175e-16 1.87922 3.77187)
(-1.12388e-15 1.82347 3.55224)
(-2.01185e-15 1.56216 3.29388)
(-1.62273e-15 0.382001 2.43111)
(1.79389e-15 -1.18012 1.08858)
(3.19138e-15 -1.91652 1.00624)
(3.40867e-15 -2.2651 1.11402)
(3.26339e-15 -2.64273 1.036)
(3.03903e-15 -3.06908 0.867031)
(2.71341e-15 -3.49961 0.706203)
(2.29885e-15 -3.91421 0.546239)
(1.84342e-15 -4.2978 0.393304)
(1.37028e-15 -4.62892 0.242369)
(9.044e-16 -4.89455 0.106775)
(4.82113e-16 -5.06715 -0.0215854)
(1.8939e-16 -5.12525 -0.117277)
(4.69339e-17 -5.12306 -0.178333)
(4.7386e-18 -5.0895 -0.21841)
(-9.49229e-19 -5.02411 -0.242375)
(-3.97875e-19 -4.92298 -0.262438)
(-4.46869e-20 -4.76541 -0.279236)
(4.16138e-21 -4.53856 -0.298212)
(1.89923e-21 -4.25907 -0.313784)
(1.76291e-22 -3.89681 -0.337225)
(-3.44644e-23 -3.4849 -0.349242)