/*--------------------------------*- C++ -*----------------------------------*\
| =========                 |                                                 |
| \\      /  F ield         | OpenFOAM: The Open Source CFD Toolbox           |
|  \\    /   O peration     | Version:  4.1                                   |
|   \\  /    A nd           | Web:      www.OpenFOAM.org                      |
|    \\/     M anipulation  |                                                 |
\*---------------------------------------------------------------------------*/
FoamFile
{
    version     2.0;
    format      ascii;
    class       volScalarField;
    location    "25";
    object      p;
}
// * * * * * * * * * * * * * * * * * * * * * * * * * * * * * * * * * * * * * //

dimensions      [0 2 -2 0 0 0 0];

internalField   nonuniform List<scalar> 
225
(
523.379
469.982
418.15
369.739
324.848
282.831
243.476
206.472
171.378
138.014
107.072
78.9335
49.9046
14.9857
-14.1665
56.9442
34.6833
28.9246
25.2144
19.7403
14.0328
8.87994
4.49117
1.00725
-1.45151
-2.64281
-2.14116
-0.0447238
1.82679
2.08695
-45.8382
-52.4812
-46.7142
-42.5674
-39.4768
-35.8814
-31.9951
-28.0578
-24.1534
-20.4375
-17.092
-14.0249
-10.948
-8.29523
-7.06098
0.295525
-2.12253
2.47028
2.79442
2.848
3.06319
2.97406
2.59675
2.01518
1.256
0.299249
-0.810098
-1.7204
-1.87263
-1.56217
16.7234
14.3906
15.9443
13.8463
12.4274
11.1839
9.77392
8.39206
7.13462
6.04356
5.14255
4.43
3.95241
3.9197
4.16456
7.4952
5.47215
6.44613
5.2268
5.02379
5.00802
4.92024
4.95356
5.10915
5.35265
5.67194
6.03481
6.35448
6.6112
6.78594
4.02378
2.86833
3.95392
3.63081
4.01763
4.41175
4.71073
5.06139
5.41796
5.74273
6.03243
6.28634
6.46458
6.54561
6.56132
5.7016
5.14378
5.99812
5.76911
5.96762
6.08012
6.10403
6.14934
6.17393
6.16911
6.14541
6.11761
6.08396
6.03811
5.98963
6.00882
5.68342
6.19424
5.91835
5.96118
5.93036
5.85529
5.80819
5.75256
5.69198
5.63272
5.57959
5.53287
5.48678
5.43557
4.6891
4.4814
4.82708
4.65068
4.72345
4.7324
4.7195
4.7277
4.7251
4.71833
4.70873
4.69399
4.67178
4.6365
4.57876
3.31906
3.20289
3.50056
3.44665
3.56626
3.61294
3.64156
3.67652
3.69312
3.69997
3.69795
3.68539
3.66132
3.62304
3.55749
2.34498
2.2848
2.53907
2.54037
2.6587
2.70007
2.72914
2.75621
2.76374
2.76162
2.75017
2.72923
2.69934
2.66053
2.59587
1.56567
1.53069
1.73304
1.74685
1.84604
1.87244
1.89479
1.91192
1.91224
1.90538
1.89079
1.86854
1.83896
1.80423
1.74635
0.880817
0.868692
1.02962
1.03435
1.1114
1.12503
1.14289
1.15499
1.15445
1.14952
1.13864
1.12163
1.09666
1.06552
1.0113
0.438712
0.399381
0.45523
0.423148
0.459316
0.440647
0.434315
0.420273
0.399381
0.376705
0.350101
0.32142
0.290992
0.261044
0.218014
)
;

boundaryField
{
    inletFace
    {
        type            zeroGradient;
    }
    inlet
    {
        type            zeroGradient;
    }
    inletWalls
    {
        type            zeroGradient;
    }
    outletInlet
    {
        type            fixedValue;
        value           uniform 0;
    }
}


// ************************************************************************* //
