/*--------------------------------*- C++ -*----------------------------------*\
| =========                 |                                                 |
| \\      /  F ield         | OpenFOAM: The Open Source CFD Toolbox           |
|  \\    /   O peration     | Version:  4.1                                   |
|   \\  /    A nd           | Web:      www.OpenFOAM.org                      |
|    \\/     M anipulation  |                                                 |
\*---------------------------------------------------------------------------*/
FoamFile
{
    version     2.0;
    format      ascii;
    class       surfaceScalarField;
    location    "25";
    object      phi;
}
// * * * * * * * * * * * * * * * * * * * * * * * * * * * * * * * * * * * * * //

dimensions      [0 3 -1 0 0 0 0];

internalField   nonuniform List<scalar> 
420
(
-949.879
2249.78
-1573.96
1924.28
-2054
1779.95
-2424.23
1670.13
-2699.86
1575.83
-2888.38
1488.42
-2993.06
1404.58
-3013.86
1321
-2949.61
1235.66
-2797.23
1147.52
-2551.17
1054.13
-2193
941.736
-1687.17
794.069
-1012.69
625.71
287.215
373.334
1876.44
442.746
1854.86
437.299
1785.39
406.695
1700.74
380.576
1601.94
359.896
1509.1
345.287
1419.19
337.532
1328.76
333.479
1239.71
326.95
1154.05
309.605
1071.48
267.466
983.878
191.432
870.105
111.458
705.684
398.673
33.5758
1842.87
-97.3895
1985.83
-253.614
1941.62
-371.122
1818.24
-473.185
1704.01
-567.535
1603.45
-651.752
1503.4
-725.799
1402.81
-788.077
1301.99
-837.308
1203.28
-868.228
1102.4
-856.088
971.739
-740.335
754.35
-434.281
399.63
-35.6086
28.7758
1814.09
-100.653
2115.26
-225.561
2066.53
-304.497
1897.18
-368.158
1767.67
-416.955
1652.24
-446.23
1532.68
-457.017
1413.59
-451.855
1296.83
-430.154
1181.59
-387.226
1059.47
-311.873
896.386
-192.864
635.343
-48.4073
255.176
-84.0159
169.626
1644.47
146.159
2138.72
123.733
2088.95
122.871
1898.04
126.942
1763.6
135.805
1643.38
149.102
1519.38
166.592
1396.1
186.942
1276.48
208.132
1160.4
229.132
1038.47
243.823
881.694
233.003
646.158
155.226
332.947
71.2101
223.078
1421.39
244.183
2117.62
234.745
2098.39
236.023
1896.76
240.371
1759.25
244.305
1639.45
246.547
1517.14
245.252
1397.4
241.162
1280.56
233.988
1167.57
221.381
1051.07
199.139
903.933
156.14
689.152
78.2997
410.783
149.51
203.32
1218.07
238.373
2082.57
213.619
2123.14
191.409
1918.97
177.202
1773.45
163.771
1652.88
150.038
1530.87
135.896
1411.54
121.071
1295.39
106.918
1181.72
92.8227
1065.17
75.7705
920.984
52.025
712.897
19.0228
443.785
168.533
171.855
1046.21
221.984
2032.44
199.425
2145.7
170.408
1947.99
152.057
1791.81
137.674
1667.26
122.785
1545.76
108.585
1425.74
95.5908
1308.38
83.112
1194.2
71.4908
1076.79
58.6394
933.839
40.3273
731.215
15.7529
468.364
184.286
146.098
900.115
210.062
1968.47
196.878
2158.89
170.055
1974.81
152.406
1809.45
139.536
1680.13
127.074
1558.23
113.869
1438.95
101.326
1320.93
89.4267
1206.1
76.9933
1089.23
63.0954
947.738
44.3101
750.002
19.1693
493.507
203.455
116.763
783.351
184.855
1900.38
179.631
2164.11
154.312
2000.13
137.222
1826.54
124.001
1693.35
111.372
1570.86
98.9623
1451.36
86.1096
1333.78
73.8689
1218.34
62.1061
1100.99
49.0288
960.817
32.8625
766.172
13.1913
513.181
216.646
83.1621
700.19
143.134
1840.41
144.688
2162.56
122.763
2022.06
106.155
1843.15
94.4666
1705.04
82.5849
1582.74
71.1748
1462.77
60.392
1344.57
49.4654
1229.27
39.4316
1111.02
29.7519
970.503
18.0929
777.838
5.24806
526.032
221.894
51.2399
648.953
97.9191
1793.73
102.709
2157.77
87.3858
2037.38
73.1605
1857.38
63.1557
1715.04
54.2606
1591.63
44.8834
1472.14
36.1758
1353.27
28.2023
1237.24
20.4549
1118.77
13.7115
977.239
6.75968
784.778
-0.401879
533.183
221.492
25.1233
623.83
57.7105
1761.15
63.5044
2151.97
53.4682
2047.42
43.892
1866.95
36.1825
1722.75
29.5568
1598.26
23.516
1478.18
17.0751
1359.71
11.3347
1242.98
6.64041
1123.46
2.5059
981.36
-1.05346
788.318
-3.6824
535.794
217.81
1.41963
622.407
24.0623
1738.5
33.3634
2142.67
27.7248
2053.06
20.3643
1874.32
15.0606
1728.06
9.52284
1603.8
4.56967
1483.14
0.0183973
1364.26
-4.85134
1247.86
-8.36977
1126.98
-9.67551
982.679
-9.73997
788.395
-7.14689
533.213
210.663
-11.7282
-3.123
1.46895
-0.389981
-5.08537
-8.83677
-11.7868
-15.2284
-18.0929
-20.228
-21.7953
-21.134
-18.1469
-12.4009
)
;

boundaryField
{
    inletFace
    {
        type            calculated;
        value           nonuniform List<scalar> 
450
(
-1.41628e-14
6.3412e-13
-9.96479e-14
-1.70573e-13
1.23392e-13
-1.84256e-13
-6.55703e-14
7.13949e-14
-1.01108e-13
-2.65724e-14
5.89837e-14
-2.97733e-14
-8.14249e-15
8.534e-15
1.04998e-15
-2.15143e-12
-2.20583e-12
1.22716e-13
-3.08642e-13
-2.39581e-13
3.30637e-14
-2.82875e-13
-1.46995e-13
6.51985e-15
-1.37047e-13
-5.22899e-14
4.47255e-14
-2.72076e-14
-4.08122e-15
6.84997e-16
-2.20616e-12
-2.33948e-12
-3.36718e-14
-3.64057e-13
-2.08539e-13
-9.13951e-14
-2.8465e-13
-1.23053e-13
-8.54068e-14
-1.07672e-13
-1.66084e-14
-1.48744e-14
-2.56109e-14
7.20679e-15
6.14409e-15
-2.4606e-12
-2.18241e-12
-1.14686e-13
-5.52067e-13
-2.67185e-13
-2.00066e-13
-3.91752e-13
-8.08774e-14
-1.4686e-13
-1.55113e-13
-9.84058e-15
-4.73955e-14
-7.56688e-14
2.48528e-14
7.09675e-14
-2.28305e-12
-2.18218e-12
-2.25741e-13
-4.8956e-13
-2.76284e-13
-2.37698e-13
-3.54322e-13
-6.96168e-14
-1.30857e-13
-1.48053e-13
-2.23485e-14
-1.20914e-14
-3.8051e-14
1.70199e-14
7.79898e-14
-2.01497e-12
-2.22086e-12
-4.09529e-13
-3.96146e-13
-2.26454e-13
-2.02588e-13
-3.02638e-13
-6.68132e-14
-1.16113e-13
-1.51046e-13
-1.14481e-14
1.86827e-14
-1.58812e-14
3.58954e-14
3.34689e-14
-1.81205e-12
-2.30851e-12
-6.78862e-13
-3.93281e-13
-2.39957e-13
-2.13243e-13
-2.84419e-13
-1.11284e-13
-1.59665e-13
-1.5856e-13
-4.60957e-14
-5.30361e-14
-1.03894e-14
-4.44461e-14
-1.9093e-13
-1.59144e-12
-2.32678e-12
-9.13175e-13
-4.08295e-13
-2.56241e-13
-2.29589e-13
-2.67987e-13
-1.51738e-13
-1.80222e-13
-1.59824e-13
-9.24602e-14
-1.07589e-13
-7.58972e-15
-1.85919e-15
-2.5498e-13
-1.34181e-12
-2.3052e-12
-1.09129e-12
-4.47221e-13
-2.67718e-13
-2.10297e-13
-2.62824e-13
-1.67706e-13
-1.59473e-13
-1.61958e-13
-1.04907e-13
-6.52797e-14
-3.7779e-14
-1.06341e-14
-6.41518e-14
-1.14842e-12
-2.25414e-12
-1.23287e-12
-5.07457e-13
-2.74791e-13
-1.89274e-13
-2.51049e-13
-1.78759e-13
-1.38128e-13
-1.48471e-13
-1.03063e-13
-4.58724e-14
-4.95958e-14
-2.93877e-14
3.63741e-14
-9.57418e-13
-2.18666e-12
-1.335e-12
-5.37684e-13
-2.85423e-13
-1.80912e-13
-2.0913e-13
-1.83582e-13
-9.88159e-14
-1.12053e-13
-1.07362e-13
-2.1215e-14
7.32619e-16
2.42475e-15
7.95453e-14
-8.33208e-13
-2.13292e-12
-1.3814e-12
-5.85162e-13
-3.1015e-13
-1.50286e-13
-2.01485e-13
-1.88685e-13
-6.04057e-14
-1.06015e-13
-1.16912e-13
5.43611e-14
1.45399e-14
1.00558e-13
1.40315e-13
-7.69876e-13
-2.07866e-12
-1.42183e-12
-6.3105e-13
-3.27955e-13
-1.41573e-13
-1.94134e-13
-2.06887e-13
-6.55832e-14
-1.00914e-13
-1.11717e-13
6.80779e-14
1.09722e-14
9.79999e-14
1.51359e-13
-7.23028e-13
-2.03219e-12
-1.4549e-12
-6.55003e-13
-3.35273e-13
-1.42652e-13
-1.86157e-13
-2.26986e-13
-6.51459e-14
-1.00284e-13
-1.12251e-13
6.04872e-14
8.18387e-15
8.5974e-14
1.27646e-13
-7.18652e-13
-1.96266e-12
-1.45513e-12
-6.79399e-13
-3.42323e-13
-1.54461e-13
-1.89757e-13
-2.13722e-13
-7.37911e-14
-1.03197e-13
-9.60394e-14
4.35526e-14
1.28433e-14
9.42548e-14
6.56154e-14
1.41628e-14
-6.3412e-13
9.96479e-14
1.70573e-13
-1.23392e-13
1.84256e-13
6.55703e-14
-7.13949e-14
1.01108e-13
2.65724e-14
-5.89837e-14
2.97733e-14
8.14249e-15
-8.534e-15
-1.04998e-15
2.15143e-12
2.20583e-12
-1.22716e-13
3.08642e-13
2.39581e-13
-3.30637e-14
2.82875e-13
1.46995e-13
-6.51985e-15
1.37047e-13
5.22899e-14
-4.47255e-14
2.72076e-14
4.08122e-15
-6.84997e-16
2.20616e-12
2.33948e-12
3.36718e-14
3.64057e-13
2.08539e-13
9.13951e-14
2.8465e-13
1.23053e-13
8.54068e-14
1.07672e-13
1.66084e-14
1.48744e-14
2.56109e-14
-7.20679e-15
-6.14409e-15
2.4606e-12
2.18241e-12
1.14686e-13
5.52067e-13
2.67185e-13
2.00066e-13
3.91752e-13
8.08774e-14
1.4686e-13
1.55113e-13
9.84058e-15
4.73955e-14
7.56688e-14
-2.48528e-14
-7.09675e-14
2.28305e-12
2.18218e-12
2.25741e-13
4.8956e-13
2.76284e-13
2.37698e-13
3.54322e-13
6.96168e-14
1.30857e-13
1.48053e-13
2.23485e-14
1.20914e-14
3.8051e-14
-1.70199e-14
-7.79898e-14
2.01497e-12
2.22086e-12
4.09529e-13
3.96146e-13
2.26454e-13
2.02588e-13
3.02638e-13
6.68132e-14
1.16113e-13
1.51046e-13
1.14481e-14
-1.86827e-14
1.58812e-14
-3.58954e-14
-3.34689e-14
1.81205e-12
2.30851e-12
6.78862e-13
3.93281e-13
2.39957e-13
2.13243e-13
2.84419e-13
1.11284e-13
1.59665e-13
1.5856e-13
4.60957e-14
5.30361e-14
1.03894e-14
4.44461e-14
1.9093e-13
1.59144e-12
2.32678e-12
9.13175e-13
4.08295e-13
2.56241e-13
2.29589e-13
2.67987e-13
1.51738e-13
1.80222e-13
1.59824e-13
9.24602e-14
1.07589e-13
7.58972e-15
1.85919e-15
2.5498e-13
1.34181e-12
2.3052e-12
1.09129e-12
4.47221e-13
2.67718e-13
2.10297e-13
2.62824e-13
1.67706e-13
1.59473e-13
1.61958e-13
1.04907e-13
6.52797e-14
3.7779e-14
1.06341e-14
6.41518e-14
1.14842e-12
2.25414e-12
1.23287e-12
5.07457e-13
2.74791e-13
1.89274e-13
2.51049e-13
1.78759e-13
1.38128e-13
1.48471e-13
1.03063e-13
4.58724e-14
4.95958e-14
2.93877e-14
-3.63741e-14
9.57418e-13
2.18666e-12
1.335e-12
5.37684e-13
2.85423e-13
1.80912e-13
2.0913e-13
1.83582e-13
9.88159e-14
1.12053e-13
1.07362e-13
2.1215e-14
-7.32619e-16
-2.42475e-15
-7.95453e-14
8.33208e-13
2.13292e-12
1.3814e-12
5.85162e-13
3.1015e-13
1.50286e-13
2.01485e-13
1.88685e-13
6.04057e-14
1.06015e-13
1.16912e-13
-5.43611e-14
-1.45399e-14
-1.00558e-13
-1.40315e-13
7.69876e-13
2.07866e-12
1.42183e-12
6.3105e-13
3.27955e-13
1.41573e-13
1.94134e-13
2.06887e-13
6.55832e-14
1.00914e-13
1.11717e-13
-6.80779e-14
-1.09722e-14
-9.79999e-14
-1.51359e-13
7.23028e-13
2.03219e-12
1.4549e-12
6.55003e-13
3.35273e-13
1.42652e-13
1.86157e-13
2.26986e-13
6.51459e-14
1.00284e-13
1.12251e-13
-6.04872e-14
-8.18387e-15
-8.5974e-14
-1.27646e-13
7.18652e-13
1.96266e-12
1.45513e-12
6.79399e-13
3.42323e-13
1.54461e-13
1.89757e-13
2.13722e-13
7.37911e-14
1.03197e-13
9.60394e-14
-4.35526e-14
-1.28433e-14
-9.42548e-14
-6.56154e-14
)
;
    }
    inlet
    {
        type            calculated;
        value           nonuniform List<scalar> 
15
(
-1299.9
-1300.2
-1299.9
-1299.9
-1300.2
-1299.9
-1299.9
-1300.2
-1299.9
-1299.9
-1300.2
-1299.9
-1299.9
-1300.2
-1299.9
)
;
    }
    inletWalls
    {
        type            calculated;
        value           uniform 0;
    }
    outletInlet
    {
        type            calculated;
        value           nonuniform List<scalar> 
15
(
198.262
527.467
785.408
982.019
1128.55
1249.99
1367.13
1486.58
1606.75
1731.81
1879.01
2054.91
2138.08
1729.89
634.132
)
;
    }
}


// ************************************************************************* //
