/*--------------------------------*- C++ -*----------------------------------*\
| =========                 |                                                 |
| \\      /  F ield         | OpenFOAM: The Open Source CFD Toolbox           |
|  \\    /   O peration     | Version:  4.1                                   |
|   \\  /    A nd           | Web:      www.OpenFOAM.org                      |
|    \\/     M anipulation  |                                                 |
\*---------------------------------------------------------------------------*/
FoamFile
{
    version     2.0;
    format      ascii;
    class       volVectorField;
    location    "25";
    object      U;
}
// * * * * * * * * * * * * * * * * * * * * * * * * * * * * * * * * * * * * * //

dimensions      [0 1 -1 0 0 0 0];

internalField   nonuniform List<vector> 
225
(
(1.11292e-14 0.852193 15.7946)
(-3.4584e-17 -4.89458 12.1215)
(-3.12004e-15 -4.19551 12.1321)
(2.90071e-15 -3.60118 11.9966)
(7.49303e-16 -3.00468 11.8778)
(-2.57308e-16 -2.55319 11.6992)
(1.9502e-15 -2.20881 11.4769)
(2.50263e-16 -1.96603 11.2116)
(-5.56554e-17 -1.79855 10.916)
(9.67124e-16 -1.71238 10.5882)
(7.69728e-18 -1.83746 10.1561)
(-2.51613e-16 -2.2857 9.53761)
(3.22937e-16 -2.51299 8.96383)
(-5.90793e-17 -1.06549 8.91353)
(-7.26885e-18 1.76575 7.4709)
(2.01532e-14 -5.35014 22.493)
(1.52722e-14 -14.6049 21.394)
(-8.49539e-16 -13.2708 20.3411)
(6.41999e-16 -11.7697 19.5066)
(1.65876e-15 -11.1561 18.5044)
(-2.28893e-16 -10.6594 17.5174)
(2.06904e-15 -10.0901 16.5714)
(1.01773e-15 -9.52499 15.6236)
(-4.51356e-17 -8.96543 14.6638)
(9.32396e-16 -8.3673 13.6946)
(3.62034e-16 -7.75709 12.7179)
(-3.09625e-16 -7.30336 11.7194)
(1.80671e-16 -7.01709 10.6244)
(2.82567e-17 -5.73095 9.16119)
(-4.7421e-18 -2.30497 4.58305)
(1.73186e-14 -7.71563 23.9802)
(1.58001e-14 -16.7731 24.6729)
(2.3313e-16 -13.7365 23.9372)
(7.45816e-15 -12.3062 22.6249)
(-1.96966e-15 -11.6447 21.2414)
(6.32784e-16 -10.814 20.0013)
(3.11057e-15 -9.94024 18.7738)
(6.60418e-16 -9.1001 17.5247)
(5.91324e-16 -8.28337 16.2654)
(1.33725e-15 -7.47525 15.0263)
(1.14977e-16 -6.66761 13.8176)
(1.02984e-16 -5.84164 12.4301)
(1.7481e-15 -4.81389 10.2752)
(-4.98913e-17 -3.12623 6.68435)
(-4.25393e-17 -0.83206 1.68985)
(1.70272e-14 -8.50255 22.0462)
(1.51086e-14 -16.6211 24.332)
(9.98566e-16 -12.93 23.7971)
(3.82234e-15 -12.1536 21.9985)
(1.77848e-15 -11.4201 20.5028)
(1.43368e-15 -10.4936 19.1722)
(2.71236e-15 -9.63388 17.8167)
(4.80913e-16 -8.82359 16.459)
(1.04454e-15 -8.05362 15.123)
(1.05905e-15 -7.32378 13.8165)
(5.99931e-17 -6.55249 12.4394)
(3.18756e-16 -5.49087 10.583)
(4.9908e-16 -3.78524 7.50864)
(2.05713e-17 -1.49361 2.76596)
(-9.53332e-16 0.153303 -1.77304)
(1.55937e-14 -8.4761 19.748)
(1.64909e-14 -16.3601 24.312)
(1.38447e-15 -13.099 23.6602)
(3.19455e-15 -12.628 21.5365)
(2.53494e-15 -11.8565 20.0248)
(1.42574e-15 -10.9574 18.6637)
(2.33603e-15 -10.1698 17.2587)
(2.3332e-16 -9.40278 15.8711)
(-4.17289e-16 -8.65259 14.5236)
(9.54437e-16 -7.93051 13.2136)
(6.84974e-16 -7.16588 11.8292)
(-9.49056e-19 -6.11616 9.99628)
(1.5709e-16 -4.42402 7.15554)
(-4.7601e-16 -2.30528 3.28788)
(-9.06078e-16 -0.787166 0.317694)
(1.41735e-14 -8.02186 17.5536)
(1.54166e-14 -16.0195 24.5277)
(2.58138e-15 -13.6434 24.0462)
(2.78864e-15 -12.9943 21.7651)
(1.61684e-15 -12.1264 20.2158)
(2.0269e-15 -11.2247 18.847)
(2.09513e-15 -10.439 17.4341)
(5.21827e-16 -9.64887 16.0434)
(9.95196e-16 -8.86035 14.6933)
(1.73482e-15 -8.09324 13.3817)
(1.54732e-16 -7.29728 12.0171)
(1.29414e-16 -6.28456 10.2818)
(1.10179e-15 -4.73297 7.72083)
(1.09115e-16 -2.75606 4.37235)
(1.39696e-16 -0.949319 1.29725)
(1.26788e-14 -7.33734 15.2534)
(1.60028e-14 -15.491 24.3551)
(4.78424e-15 -14.0225 24.4218)
(2.72295e-15 -13.1278 22.0675)
(1.71151e-15 -12.1447 20.4401)
(1.58397e-15 -11.2358 19.0547)
(1.96922e-15 -10.4361 17.6437)
(8.95908e-16 -9.61982 16.2576)
(1.2418e-15 -8.81014 14.9066)
(1.09782e-15 -8.02721 13.5918)
(4.83994e-16 -7.22393 12.2368)
(6.51406e-16 -6.24021 10.5487)
(7.19331e-17 -4.78743 8.10736)
(-6.71331e-17 -2.91402 4.947)
(2.59423e-15 -1.0108 1.79728)
(1.03405e-14 -6.55611 13.0328)
(1.61094e-14 -14.847 23.8164)
(6.27947e-15 -14.2638 24.6691)
(3.24478e-15 -13.2372 22.3215)
(1.77408e-15 -12.1674 20.5831)
(1.48099e-15 -11.2657 19.1667)
(1.85519e-15 -10.4651 17.7586)
(1.05055e-15 -9.64315 16.3766)
(1.11001e-15 -8.83494 15.0245)
(1.85849e-15 -8.05529 13.7073)
(6.40146e-16 -7.255 12.3576)
(5.54554e-16 -6.28688 10.6995)
(1.72255e-16 -4.89096 8.33088)
(1.28721e-17 -3.08517 5.26757)
(1.26848e-15 -1.12215 2.04384)
(9.28917e-15 -5.77819 11.1235)
(1.59586e-14 -14.1745 23.0905)
(7.42985e-15 -14.4413 24.8463)
(3.09606e-15 -13.3963 22.6148)
(1.85338e-15 -12.2528 20.7553)
(1.29471e-15 -11.3493 19.2955)
(1.8195e-15 -10.5477 17.8904)
(1.16101e-15 -9.72544 16.5109)
(9.00238e-16 -8.91945 15.1562)
(1.12122e-15 -8.14025 13.8351)
(7.26256e-16 -7.33998 12.4864)
(1.71391e-16 -6.3802 10.8513)
(2.61539e-16 -5.02354 8.54675)
(7.36184e-17 -3.26575 5.55826)
(-1.13969e-15 -1.23746 2.24754)
(7.75148e-15 -5.08478 9.59894)
(1.56051e-14 -13.5191 22.3)
(8.45068e-15 -14.535 24.9523)
(3.83356e-15 -13.5531 22.9353)
(1.90234e-15 -12.3448 20.9699)
(1.25648e-15 -11.425 19.4566)
(2.14389e-15 -10.6174 18.0506)
(1.23753e-15 -9.79445 16.6721)
(1.50084e-15 -8.98825 15.3136)
(1.3524e-16 -8.20621 13.9873)
(7.13491e-16 -7.40473 12.6356)
(1.06648e-15 -6.45149 11.0133)
(-1.04843e-15 -5.12524 8.75511)
(2.03447e-16 -3.40649 5.81944)
(-5.5202e-16 -1.31898 2.4308)
(6.16725e-15 -4.53846 8.46181)
(1.51888e-14 -12.9254 21.5502)
(8.89934e-15 -14.5349 24.9758)
(3.72221e-15 -13.6654 23.221)
(2.02646e-15 -12.4128 21.1812)
(1.035e-15 -11.4735 19.6121)
(1.44774e-15 -10.659 18.2004)
(1.33429e-15 -9.83696 16.8209)
(-2.09778e-16 -9.03206 15.4585)
(7.75706e-16 -8.24856 14.1269)
(8.26261e-16 -7.44647 12.7691)
(-2.30902e-16 -6.49771 11.1498)
(1.15886e-15 -5.19256 8.91839)
(-2.18164e-15 -3.50182 6.01045)
(-1.10924e-15 -1.36374 2.54244)
(5.7682e-15 -4.17017 7.70227)
(1.47919e-14 -12.4377 20.9276)
(9.52074e-15 -14.4734 24.9366)
(4.05101e-15 -13.7316 23.4379)
(2.42659e-15 -12.4592 21.3593)
(9.58078e-16 -11.5039 19.7405)
(1.39486e-15 -10.6833 18.3207)
(1.40216e-15 -9.86362 16.9392)
(3.83489e-16 -9.06124 15.5729)
(7.33932e-16 -8.2777 14.2364)
(8.09368e-16 -7.475 12.871)
(-9.47936e-16 -6.52691 11.2466)
(-4.217e-17 -5.23312 9.02656)
(-7.79154e-16 -3.55806 6.12622)
(-8.39667e-16 -1.37735 2.57269)
(5.23112e-15 -3.97318 7.27935)
(1.43634e-14 -12.0682 20.4612)
(9.86542e-15 -14.3843 24.8626)
(4.32234e-15 -13.7599 23.5828)
(2.27039e-15 -12.4875 21.4969)
(9.80093e-16 -11.5229 19.8406)
(1.31422e-15 -10.6965 18.412)
(1.5291e-15 -9.87993 17.0278)
(4.18982e-16 -9.08053 15.6584)
(6.98696e-16 -8.29722 14.317)
(8.15568e-16 -7.49317 12.9421)
(-5.19242e-16 -6.54217 11.3061)
(-7.59681e-17 -5.25098 9.08435)
(-5.95926e-16 -3.57882 6.17544)
(-1.19584e-15 -1.36515 2.53879)
(4.95807e-15 -3.90352 7.11001)
(1.4056e-14 -11.8312 20.1816)
(1.00492e-14 -14.2999 24.7901)
(4.52255e-15 -13.7668 23.6686)
(2.30832e-15 -12.5019 21.5898)
(9.87532e-16 -11.532 19.9095)
(1.30378e-15 -10.7003 18.4745)
(1.55525e-15 -9.88538 17.0883)
(4.50984e-16 -9.08779 15.7172)
(7.13454e-16 -8.30392 14.3728)
(7.56114e-16 -7.49768 12.9905)
(-4.18733e-16 -6.543 11.3432)
(-2.76258e-17 -5.25326 9.11708)
(-6.36095e-16 -3.58356 6.20147)
(-8.83652e-16 -1.35005 2.50636)
(4.96034e-15 -4.03904 7.28609)
(1.35802e-14 -11.6268 19.9517)
(1.00806e-14 -14.1917 24.668)
(4.7034e-15 -13.7465 23.7084)
(2.36335e-15 -12.5066 21.6738)
(1.07647e-15 -11.5393 19.9774)
(1.31366e-15 -10.6995 18.5351)
(1.47148e-15 -9.88699 17.1438)
(5.19636e-16 -9.09054 15.7695)
(7.14423e-16 -8.30497 14.4184)
(6.59676e-16 -7.48993 13.0148)
(-2.95658e-16 -6.51531 11.3281)
(-8.89126e-17 -5.20595 9.0612)
(-6.62693e-16 -3.50159 6.08269)
(-4.35173e-16 -1.25242 2.3072)
)
;

boundaryField
{
    inletFace
    {
        type            zeroGradient;
    }
    inlet
    {
        type            fixedValue;
        value           uniform (0 8.7 15);
    }
    inletWalls
    {
        type            noSlip;
    }
    outletInlet
    {
        type            zeroGradient;
    }
}


// ************************************************************************* //
