/*--------------------------------*- C++ -*----------------------------------*\
| =========                 |                                                 |
| \\      /  F ield         | OpenFOAM: The Open Source CFD Toolbox           |
|  \\    /   O peration     | Version:  4.1                                   |
|   \\  /    A nd           | Web:      www.OpenFOAM.org                      |
|    \\/     M anipulation  |                                                 |
\*---------------------------------------------------------------------------*/
FoamFile
{
    version     2.0;
    format      ascii;
    class       surfaceScalarField;
    location    "15";
    object      phi;
}
// * * * * * * * * * * * * * * * * * * * * * * * * * * * * * * * * * * * * * //

dimensions      [0 3 -1 0 0 0 0];

internalField   nonuniform List<scalar> 
13220
(
-4.68498e+55
8.84119e+55
-6.1653e+55
3.69521e+55
7.84016e+54
-4.92314e+55
9.96794e+55
-7.33622e+55
1.78698e+56
-5.93835e+55
2.26259e+56
-3.02055e+55
2.39545e+56
5.09805e+54
2.36184e+56
2.12476e+55
2.26246e+56
2.79151e+55
2.10581e+56
3.59451e+55
1.87137e+56
4.628e+55
1.51146e+56
5.72254e+55
1.15324e+56
7.26348e+55
9.51397e+55
7.9096e+55
9.59651e+55
4.49822e+54
1.14118e+56
4.21932e+55
2.03688e+55
4.71319e+55
-3.31703e+55
8.2725e+54
-1.6024e+55
-3.92199e+55
7.87692e+54
-8.19428e+55
3.0711e+55
-1.11984e+56
5.73197e+55
-1.25132e+56
5.51331e+55
-1.11785e+56
3.87502e+55
-8.0541e+55
2.6641e+55
-3.86691e+55
2.23546e+55
1.21379e+55
3.51763e+55
3.0249e+55
8.37797e+55
4.15149e+55
1.09642e+56
1.37852e+56
-1.42277e+54
1.50074e+56
2.16346e+55
2.28682e+55
-3.25422e+55
4.59379e+55
-1.07741e+56
8.4797e+55
-1.68902e+56
9.81363e+55
-1.97217e+56
8.85452e+55
-1.86211e+56
7.65736e+55
-1.60349e+56
5.68185e+55
-1.27067e+56
2.99214e+55
-7.8864e+55
-2.58438e+54
-3.49907e+54
-2.49213e+55
3.26937e+55
1.43109e+54
4.06316e+55
9.65753e+55
4.03164e+55
1.36167e+56
1.7983e+56
2.22361e+55
1.83318e+56
-2.86131e+55
1.14591e+56
-7.53988e+55
1.35532e+56
-9.65117e+55
1.47482e+56
-9.6393e+55
1.51524e+56
-9.60833e+55
1.36691e+56
-8.76815e+55
1.18963e+56
-9.68667e+55
1.0451e+56
-1.19018e+56
9.18121e+55
-1.53635e+56
6.65568e+55
-1.7934e+56
2.79623e+55
-1.03761e+56
2.60465e+55
-1.65284e+55
1.2731e+56
5.39649e+55
1.92071e+56
2.35681e+56
5.1507e+54
2.66183e+56
-3.2324e+55
2.2317e+56
-4.10518e+55
2.23143e+56
-2.73664e+55
2.12402e+56
1.3442e+55
2.06576e+56
4.60735e+55
1.91329e+56
8.13683e+55
1.724e+56
1.02425e+56
1.57689e+56
1.02702e+56
1.58541e+56
6.61995e+55
1.55152e+56
2.41019e+55
1.24332e+56
-5.67631e+54
9.58762e+55
7.28349e+55
1.60653e+56
1.2453e+56
2.91433e+56
3.64115e+56
5.76454e+55
3.38251e+56
7.87044e+55
2.96941e+56
1.19981e+56
2.95734e+56
1.52228e+56
2.91142e+56
1.96595e+56
2.96561e+56
2.04344e+56
2.99368e+56
2.04594e+56
3.03741e+56
1.58547e+56
3.02376e+56
1.3478e+56
3.00096e+56
1.02977e+56
2.86931e+56
1.72496e+55
2.66477e+56
-4.70769e+55
2.62615e+56
-2.41388e+55
3.06348e+56
1.33113e+56
4.17416e+56
5.01294e+56
9.55405e+54
4.83135e+56
-8.25484e+55
4.93581e+56
-1.55428e+56
4.92635e+56
-2.18602e+56
4.78196e+56
-2.44616e+56
4.70364e+56
-2.74152e+56
4.62186e+56
-2.84737e+56
4.61047e+56
-3.14978e+56
4.54866e+56
-3.47805e+56
4.31035e+56
-3.6255e+56
3.86504e+56
-3.69933e+56
3.34278e+56
-2.96875e+56
2.8097e+56
-1.31514e+56
2.96048e+56
1.37779e+56
4.00776e+56
6.41049e+56
5.43577e+56
2.07161e+56
7.87165e+56
4.14746e+56
1.07032e+57
3.96747e+56
1.27464e+57
4.12935e+56
1.43264e+57
4.71033e+56
1.47491e+57
5.34716e+56
1.46785e+57
5.99534e+56
1.36057e+57
6.57554e+56
1.21518e+57
6.91927e+56
9.89219e+56
6.92618e+56
7.26394e+56
6.62948e+56
4.47704e+56
5.9753e+56
2.79703e+56
5.17256e+56
2.45472e+56
5.55236e+56
8.95763e+56
3.85893e+56
4.39158e+56
3.77452e+56
7.78392e+56
1.07031e+56
8.81096e+56
-3.2134e+56
1.02283e+57
-8.32327e+56
1.18163e+57
-1.40424e+57
1.28578e+57
-1.92309e+57
1.30864e+57
-2.32525e+57
1.23615e+57
-2.52803e+57
1.05134e+57
-2.41969e+57
7.66329e+56
-2.05145e+57
4.02639e+56
-1.19937e+57
1.90872e+55
-1.06572e+56
-2.52549e+56
8.50484e+56
8.45963e+55
1.74646e+57
-1.66741e+57
2.55147e+57
-3.05202e+57
2.44423e+57
-4.44945e+57
2.56642e+57
-5.89531e+57
2.70008e+57
-7.18992e+57
2.73882e+57
-8.30018e+57
2.59985e+57
-9.02157e+57
2.27884e+57
-9.43291e+57
1.80559e+57
-9.42581e+57
1.23965e+57
-9.17195e+57
6.0366e+56
-8.50601e+57
-1.35348e+56
-7.4777e+57
-1.03498e+57
-5.68339e+57
-2.04254e+57
-2.8595e+57
-2.71725e+57
-1.10277e+57
-6.20089e+56
3.5178e+57
-1.56421e+57
3.57312e+57
-2.54134e+57
3.76082e+57
-3.4719e+57
3.77265e+57
-4.03869e+57
3.49579e+57
-4.36891e+57
3.01601e+57
-4.44328e+57
2.46495e+57
-4.60939e+57
1.9999e+57
-4.77276e+57
1.4371e+57
-4.75661e+57
6.9935e+56
-4.98139e+57
6.67787e+54
-4.77754e+57
-7.53573e+56
-4.80391e+57
-1.64422e+57
-5.13628e+57
-1.96106e+57
-6.24876e+57
-1.12303e+57
4.72901e+57
-2.63322e+57
5.04532e+57
-3.94493e+57
5.15971e+57
-4.53891e+57
4.24497e+57
-4.0207e+57
2.91687e+57
-2.93144e+57
1.70502e+57
-1.31036e+57
6.43076e+56
6.73223e+56
-2.60365e+56
2.82359e+57
-9.21818e+56
4.32443e+57
-1.18197e+57
5.42811e+57
-1.18911e+57
4.80181e+57
-9.61693e+56
3.16291e+57
-7.44976e+56
7.05991e+56
-2.03516e+56
-5.53611e+57
-4.77107e+57
9.1849e+57
-4.29483e+57
4.06023e+57
-5.17552e+55
4.56882e+56
6.72299e+57
-3.06847e+57
1.39484e+58
-4.65691e+57
2.06304e+58
-5.31495e+57
2.64481e+58
-5.38487e+57
3.09614e+58
-4.97387e+57
3.39433e+58
-4.05806e+57
3.53992e+58
-2.64073e+57
3.46679e+58
-7.0014e+56
3.24243e+58
1.79701e+57
2.72509e+58
4.78484e+57
1.84392e+58
8.98395e+57
1.28809e+58
1.90283e+58
-1.05679e+58
3.86756e+58
-1.62155e+58
5.18223e+58
-1.30704e+58
6.05268e+58
-1.22414e+58
6.66688e+58
-1.11478e+58
7.10349e+58
-1.00877e+58
7.37332e+58
-8.42797e+57
7.51534e+58
-6.77631e+57
7.49938e+58
-4.21357e+57
7.34888e+58
-1.65537e+57
7.05083e+58
2.06484e+57
6.44925e+58
6.74752e+57
5.42755e+58
1.39105e+58
3.34694e+58
2.85869e+58
4.63336e+58
-8.71345e+58
-1.21741e+59
-1.47838e+59
-1.62704e+59
-1.76781e+59
-1.83876e+59
-1.90091e+59
-1.91096e+59
-1.87935e+59
-1.82632e+59
-1.69048e+59
-1.53589e+59
-1.27085e+59
-9.01937e+58
-1.62297e+56
-5.28093e+58
5.26064e+58
-5.28605e+58
-5.29275e+58
-5.29685e+58
-3.7665e+57
-4.92696e+58
-3.86569e+57
-3.98131e+57
-4.01122e+57
1.00741e+59
-1.04806e+59
1.00678e+59
1.00628e+59
2.59e+59
-1.58373e+59
2.58968e+59
2.58959e+59
2.58931e+59
4.34353e+59
-1.75421e+59
4.34332e+59
4.34338e+59
6.0205e+59
-1.67732e+59
6.02052e+59
6.02029e+59
6.02035e+59
7.55373e+59
-1.53359e+59
7.55373e+59
7.55352e+59
7.55357e+59
8.91961e+59
-1.3662e+59
8.91958e+59
8.91941e+59
1.00892e+60
-1.16981e+59
1.0089e+60
1.0089e+60
1.00888e+60
1.11073e+60
-1.01849e+59
1.11071e+60
1.11072e+60
1.19519e+60
-8.44895e+58
1.19519e+60
1.19517e+60
1.19517e+60
1.2676e+60
-7.24494e+58
1.26761e+60
1.26758e+60
1.2676e+60
1.32914e+60
-6.1576e+58
1.32915e+60
1.32912e+60
1.37797e+60
-4.88361e+58
1.37794e+60
1.37795e+60
1.37791e+60
1.41923e+60
-4.12993e+58
1.41919e+60
1.4192e+60
1.41915e+60
1.45378e+60
-3.46144e+58
1.45373e+60
1.45375e+60
1.47965e+60
-2.59426e+58
1.47965e+60
1.47959e+60
1.47961e+60
1.50194e+60
-2.23903e+58
1.50193e+60
1.50187e+60
1.51798e+60
-1.6093e+58
1.5179e+60
1.5179e+60
1.51783e+60
1.5326e+60
-1.47447e+58
1.53251e+60
1.53253e+60
1.53243e+60
1.54623e+60
-1.37457e+58
1.54612e+60
1.54625e+60
1.55944e+60
-1.32774e+58
1.55959e+60
1.55955e+60
1.55356e+60
1.53901e+60
1.52799e+60
1.50158e+60
1.80589e+58
1.49623e+60
1.49352e+60
1.49161e+60
1.48985e+60
1.48831e+60
1.48701e+60
1.48593e+60
1.48405e+60
1.4622e+60
1.96984e+58
1.45891e+60
1.45629e+60
1.45418e+60
1.45215e+60
1.4504e+60
1.44885e+60
1.44758e+60
1.44606e+60
1.41737e+60
2.67476e+58
1.41444e+60
1.41205e+60
1.41007e+60
1.40835e+60
1.4068e+60
1.40543e+60
1.4042e+60
1.40324e+60
1.40207e+60
1.36741e+60
3.31522e+58
1.36514e+60
1.36339e+60
1.362e+60
1.36088e+60
1.3599e+60
1.35911e+60
1.35851e+60
1.35775e+60
1.31716e+60
3.95151e+58
1.31539e+60
1.31409e+60
1.31325e+60
1.31261e+60
1.31223e+60
1.31196e+60
1.31194e+60
1.31181e+60
1.26603e+60
4.53143e+58
1.26483e+60
1.26408e+60
1.26373e+60
1.26374e+60
1.26409e+60
1.26459e+60
1.26536e+60
1.26592e+60
1.2158e+60
5.04259e+58
1.21543e+60
1.21564e+60
1.21625e+60
1.21714e+60
1.2183e+60
1.22029e+60
1.22273e+60
1.22549e+60
1.22809e+60
1.17742e+60
5.28039e+58
1.17879e+60
1.18114e+60
1.18424e+60
1.18786e+60
1.19233e+60
1.19957e+60
1.2135e+60
1.22849e+60
1.20044e+60
4.23025e+58
1.21333e+60
1.22962e+60
1.22957e+60
1.19549e+60
3.41576e+58
1.15348e+60
4.18924e+58
1.15349e+60
1.11659e+60
3.6779e+58
1.11658e+60
1.08491e+60
3.15609e+58
1.04679e+60
3.80955e+58
1.0467e+60
1.01458e+60
3.20572e+58
9.75406e+59
3.90838e+58
9.75365e+59
9.47906e+59
2.73827e+58
9.47865e+59
9.41324e+59
6.46341e+57
9.33894e+59
7.39086e+57
9.33838e+59
9.27555e+59
6.24068e+57
9.27508e+59
9.21687e+59
5.76448e+57
9.05679e+59
1.59676e+58
9.05644e+59
9.01288e+59
4.31266e+57
9.04985e+59
-3.73295e+57
9.04956e+59
9.5046e+59
-4.55381e+58
9.50435e+59
1.04979e+60
-9.93948e+58
1.26105e+60
-2.11271e+59
1.26102e+60
1.51845e+60
-2.57436e+59
1.51843e+60
1.69196e+60
-1.73537e+59
1.81834e+60
-1.26408e+59
1.81835e+60
1.88406e+60
-6.57414e+58
1.91219e+60
-2.81158e+58
1.91218e+60
1.88475e+60
2.74409e+58
1.88473e+60
1.79163e+60
9.31266e+58
1.65329e+60
1.38317e+59
1.6533e+60
1.43629e+60
2.16992e+59
1.43631e+60
1.14096e+60
2.95339e+59
7.91964e+59
3.49023e+59
7.9196e+59
3.43462e+59
4.48535e+59
-1.53874e+59
4.97345e+59
-1.53809e+59
-7.74226e+59
6.204e+59
-7.74193e+59
-1.54101e+60
7.66808e+59
-2.42938e+60
8.88402e+59
-2.42938e+60
-3.43506e+60
1.00571e+60
-3.43507e+60
-4.58235e+60
1.14731e+60
-5.76918e+60
1.18683e+60
-5.76917e+60
-7.10367e+60
1.33451e+60
-8.42927e+60
1.32562e+60
-8.42927e+60
-9.86585e+60
1.4366e+60
-9.86585e+60
-1.14273e+61
1.56145e+60
-1.29074e+61
1.4801e+60
-1.29074e+61
-1.45075e+61
1.60019e+60
-1.45075e+61
-1.62459e+61
1.7384e+60
-1.78395e+61
1.59354e+60
-1.78395e+61
-1.96438e+61
1.80433e+60
-2.12549e+61
1.61111e+60
-2.12549e+61
-2.30451e+61
1.79027e+60
-2.30451e+61
2.21351e+60
-1.93493e+58
1.53689e+58
-1.76647e+58
3.06489e+58
-1.77125e+58
5.53223e+58
-1.8681e+58
1.0722e+58
-1.70211e+58
1.26452e+58
-1.36224e+58
1.28803e+58
-1.26926e+58
1.67183e+58
-1.45957e+58
-7.08246e+58
-1.26439e+58
7.58546e+56
-8.4343e+57
-2.21665e+58
-6.15448e+57
7.23314e+57
4.56676e+57
-1.73532e+59
-2.1222e+58
-3.49994e+59
1.01775e+57
5.17434e+58
-1.56995e+58
-3.17865e+59
-1.5034e+58
-1.25418e+59
-1.71125e+58
-1.03021e+59
-1.67816e+58
-5.18394e+58
-1.72234e+58
-5.48763e+58
-1.49654e+58
8.75124e+57
7.19187e+57
3.53392e+59
-8.12556e+57
1.62834e+59
-1.1293e+58
1.30269e+59
4.22179e+57
3.97115e+58
6.46025e+57
4.76853e+59
3.92972e+57
6.48036e+57
5.1739e+57
2.98316e+58
4.38276e+57
1.2476e+59
8.40287e+57
-4.39707e+58
9.61556e+57
2.4996e+58
8.18451e+56
-3.28241e+58
4.26518e+57
8.78193e+57
-2.488e+57
-3.87157e+58
4.37592e+57
1.72274e+58
5.29012e+57
3.85824e+58
6.55247e+57
2.05992e+59
3.41665e+57
-3.89033e+58
5.91893e+57
8.00264e+58
7.40318e+57
2.01938e+58
8.15122e+57
-5.94621e+58
7.95465e+57
-8.94946e+58
7.31732e+57
-5.71975e+58
7.90736e+57
3.38012e+58
4.65342e+57
2.31598e+58
1.31109e+57
-6.02803e+57
6.72685e+56
3.2096e+58
5.56209e+56
-6.7133e+58
3.40369e+57
-1.37378e+58
8.77951e+57
-3.1814e+58
5.22833e+57
-5.3753e+58
4.50716e+57
-1.40367e+58
5.00702e+57
4.13243e+58
1.0398e+58
1.34457e+59
4.18662e+57
6.54308e+58
2.80652e+57
6.68258e+58
6.8814e+56
5.49857e+58
4.69188e+56
5.90099e+58
4.66023e+56
6.06392e+58
3.17319e+56
5.86836e+58
2.51671e+56
5.98928e+58
2.5811e+56
6.47008e+58
2.69368e+56
6.99283e+58
3.07676e+56
7.61241e+58
3.79689e+56
8.38734e+58
4.90449e+56
9.41179e+58
6.44893e+56
1.07802e+59
8.46208e+56
1.26147e+59
1.09492e+57
1.50387e+59
1.38247e+57
1.82042e+59
1.64606e+57
2.22179e+59
1.74628e+57
2.72225e+59
9.16421e+56
3.27327e+59
-2.41613e+57
3.81683e+59
-1.72289e+58
3.16865e+59
-6.5498e+58
3.67508e+59
-2.11946e+59
1.37022e+60
-6.13034e+59
4.35639e+60
-1.41391e+60
1.08032e+61
2.10455e+61
-1.63151e+58
1.70362e+58
-1.89756e+58
3.33093e+58
-1.93346e+58
5.56814e+58
-2.19722e+58
1.33595e+58
-2.0551e+58
1.1224e+58
-1.79236e+58
1.02529e+58
-1.24476e+58
1.12422e+58
-2.15024e+58
-6.17698e+58
-1.70836e+58
-3.66023e+57
-8.4555e+57
-3.07946e+58
5.04188e+57
-6.26426e+57
1.22507e+58
-1.80741e+59
-2.21689e+58
-3.15575e+59
6.18323e+57
2.33913e+58
-1.55249e+58
-2.96157e+59
-1.5121e+58
-1.25822e+59
-1.85294e+58
-9.96125e+58
-1.66894e+58
-5.36794e+58
-1.80305e+58
-5.35352e+58
-1.7933e+58
8.65366e+57
8.07567e+57
3.27383e+59
-6.55961e+57
1.77469e+59
-1.19403e+58
1.35649e+59
1.37865e+58
1.39848e+58
1.34399e+58
4.77199e+59
2.82993e+57
1.70902e+58
1.81814e+57
3.08433e+58
3.69413e+57
1.22884e+59
2.83245e+57
-4.31091e+58
3.545e+57
2.42834e+58
-4.05317e+57
-2.52261e+58
2.67143e+57
2.05725e+57
-1.67296e+57
-3.43713e+58
9.95559e+57
5.59916e+57
7.60946e+57
4.09289e+58
7.56383e+57
2.06038e+59
3.89188e+57
-3.52294e+58
8.21472e+57
7.5704e+58
8.96141e+57
1.94472e+58
9.0312e+57
-5.95318e+58
8.39461e+57
-8.88578e+58
5.61839e+57
-5.44207e+58
6.66272e+57
3.27592e+58
1.14838e+57
2.86765e+58
-1.06052e+57
-3.81652e+57
1.55214e+57
2.94867e+58
-6.50995e+56
-6.4923e+58
4.34865e+57
-1.87297e+58
1.33218e+58
-4.07722e+58
6.84724e+57
-4.72752e+58
5.94429e+57
-1.31312e+58
6.41446e+57
4.08602e+58
1.65699e+58
1.24314e+59
6.26021e+57
7.57491e+58
1.81765e+57
7.12783e+58
-9.53736e+56
5.77672e+58
-1.16753e+57
5.92308e+58
-1.06642e+57
6.05483e+58
-7.95642e+56
5.84224e+58
-4.33163e+56
5.95419e+58
-8.4554e+55
6.43624e+58
1.91269e+56
6.96638e+58
4.04463e+56
7.59201e+58
5.96868e+56
8.36907e+58
8.1061e+56
9.3909e+58
1.08421e+57
1.07534e+59
1.43325e+57
1.25801e+59
1.86781e+57
1.49957e+59
2.36265e+57
1.81547e+59
2.8593e+57
2.21684e+59
3.05257e+57
2.7203e+59
2.11839e+57
3.28263e+59
-2.9354e+57
3.86733e+59
-1.8799e+58
3.32727e+59
-6.21501e+58
4.10856e+59
-2.02784e+59
1.51086e+60
-6.2656e+59
4.78017e+60
-1.44229e+60
1.1619e+61
2.13935e+61
-1.569e+58
1.92317e+58
-1.82312e+58
3.58505e+58
-1.78626e+58
5.53128e+58
-2.07129e+58
1.62099e+58
-1.99295e+58
1.04406e+58
-1.77968e+58
8.12013e+57
-1.33688e+58
6.81421e+57
-2.13999e+58
-5.37387e+58
-1.83367e+58
-6.72345e+57
-9.59503e+57
-3.95363e+58
2.95467e+57
-1.8814e+58
9.92874e+57
-1.87715e+59
-2.19759e+58
-2.8367e+59
2.62862e+57
-1.21328e+57
-1.72604e+58
-2.76268e+59
-1.61767e+58
-1.26906e+59
-1.8818e+58
-9.69712e+58
-1.63695e+58
-5.61279e+58
-1.84729e+58
-5.14318e+58
-2.03392e+58
1.052e+58
4.2343e+57
3.0281e+59
-6.32939e+57
1.88033e+59
-1.06306e+58
1.39951e+59
-1.2595e+57
4.61376e+57
9.07602e+57
4.66864e+59
2.10117e+57
2.40651e+58
6.99152e+56
3.22454e+58
2.5571e+57
1.21026e+59
2.32765e+57
-4.28792e+58
4.30988e+57
2.23012e+58
-1.66626e+57
-1.92494e+58
2.91042e+57
-2.51939e+57
-2.38518e+57
-2.90748e+58
1.01656e+58
-6.95115e+57
6.6645e+57
4.44302e+58
7.23551e+57
2.05467e+59
3.90068e+57
-3.18917e+58
7.01251e+57
7.25924e+58
8.80046e+57
1.76595e+58
9.30541e+57
-6.00368e+58
8.5049e+57
-8.80574e+58
4.84308e+57
-5.07585e+58
5.99939e+57
3.16037e+58
1.11381e+57
3.3563e+58
-1.43016e+57
-1.27138e+57
1.69753e+57
2.63605e+58
-4.98293e+56
-6.27242e+58
4.3352e+57
-2.35605e+58
1.15027e+58
-4.79381e+58
9.16543e+57
-4.49421e+58
6.99213e+57
-1.09634e+58
5.62749e+57
4.22206e+58
1.25204e+58
1.17419e+59
6.14497e+57
8.2128e+58
2.1751e+57
7.52517e+58
-6.31602e+56
6.05808e+58
-1.1602e+57
5.97654e+58
-1.18635e+57
6.05845e+58
-9.63069e+56
5.82092e+58
-5.73886e+56
5.91658e+58
-1.70354e+56
6.39708e+58
1.66219e+56
6.93408e+58
4.41414e+56
7.56569e+58
6.95439e+56
8.34506e+58
9.73926e+56
9.36414e+58
1.32052e+57
1.072e+59
1.75556e+57
1.25376e+59
2.29198e+57
1.49432e+59
2.90398e+57
1.80945e+59
3.52065e+57
2.21079e+59
3.80325e+57
2.71756e+59
2.82165e+57
3.29256e+59
-2.21377e+57
3.91778e+59
-1.7179e+58
3.47707e+59
-5.52978e+58
4.48991e+59
-2.05571e+59
1.66114e+60
-6.74487e+59
5.24909e+60
-1.48042e+60
1.24249e+61
2.15242e+61
-1.54055e+58
2.16923e+58
-1.79614e+58
3.84065e+58
-1.74396e+58
5.47909e+58
-2.03058e+58
1.90761e+58
-1.97871e+58
9.92183e+57
-1.7867e+58
6.2001e+57
-1.41518e+58
3.09894e+57
-2.1089e+58
-4.68014e+58
-1.80641e+58
-9.74839e+57
-9.90141e+57
-4.7699e+58
1.42809e+57
-3.01435e+58
7.73901e+57
-1.94026e+59
-2.19507e+58
-2.5398e+59
1.32396e+57
-2.4488e+58
-1.74409e+58
-2.57503e+59
-1.60488e+58
-1.28298e+59
-1.91762e+58
-9.38438e+58
-1.65593e+58
-5.87448e+58
-1.9071e+58
-4.89201e+58
-2.23536e+58
1.38026e+58
1.06543e+57
2.79391e+59
-6.05525e+57
1.95154e+59
-1.01337e+58
1.44029e+59
-7.08825e+57
1.56828e+57
5.3727e+57
4.54403e+59
5.94898e+56
2.88429e+58
-7.67504e+56
3.36078e+58
1.4983e+57
1.1876e+59
2.11271e+57
-4.34931e+58
3.59107e+57
2.08229e+58
-1.08061e+57
-1.45777e+58
1.94502e+57
-5.54494e+57
-2.25903e+57
-2.48706e+58
1.17811e+58
-2.09906e+58
6.403e+57
4.98086e+58
1.03376e+58
2.01533e+59
5.00269e+57
-2.65512e+58
5.44272e+57
7.21531e+58
8.71103e+57
1.43913e+58
9.57258e+57
-6.08983e+58
8.51483e+57
-8.69995e+58
4.01258e+57
-4.62555e+58
4.75549e+57
3.08634e+58
8.58061e+56
3.74625e+58
-1.64073e+57
1.22983e+57
1.5465e+57
2.31766e+58
-3.01324e+56
-6.08696e+58
4.03362e+57
-2.78876e+58
1.08165e+58
-5.47098e+58
1.06826e+58
-4.48064e+58
8.56317e+57
-8.84245e+57
6.42896e+57
4.43591e+58
1.07032e+58
1.13154e+59
5.61934e+57
8.72221e+58
2.2014e+57
7.86808e+58
-4.80096e+56
6.32749e+58
-1.15463e+57
6.0453e+58
-1.22181e+57
6.06697e+58
-1.01306e+57
5.802e+58
-6.10162e+56
5.87861e+58
-1.79417e+56
6.35627e+58
1.887e+56
6.89972e+58
4.99896e+56
7.53688e+58
7.95855e+56
8.31787e+58
1.12542e+57
9.33316e+58
1.53513e+57
1.06811e+59
2.04801e+57
1.24882e+59
2.67906e+57
1.4882e+59
3.40321e+57
1.80235e+59
4.14525e+57
2.20353e+59
4.55981e+57
2.71355e+59
3.69711e+57
3.30135e+59
-7.8942e+56
3.96278e+59
-1.42103e+58
3.61148e+59
-4.86465e+58
4.83445e+59
-2.19641e+59
1.83214e+60
-7.44751e+59
5.7742e+60
-1.56073e+60
1.32409e+61
2.17678e+61
-1.53866e+58
2.41801e+58
-1.76881e+58
4.07079e+58
-1.71286e+58
5.42314e+58
-1.99377e+58
2.18852e+58
-1.96861e+58
9.67026e+57
-1.80275e+58
4.54155e+57
-1.5078e+58
1.49437e+56
-2.11622e+58
-4.07173e+58
-1.79795e+58
-1.29311e+58
-1.04979e+58
-5.51806e+58
4.18878e+56
-4.10602e+58
4.23265e+57
-1.97839e+59
-2.08324e+58
-2.28915e+59
5.26385e+56
-4.58467e+58
-1.69011e+58
-2.40076e+59
-1.61263e+58
-1.29073e+59
-1.9208e+58
-9.07621e+58
-1.69837e+58
-6.0969e+58
-1.95795e+58
-4.63244e+58
-2.38635e+58
1.80867e+58
-1.35305e+57
2.5688e+59
-5.76617e+57
1.99567e+59
-1.06551e+58
1.48918e+59
-1.05715e+58
1.48481e+57
3.54381e+57
4.40288e+59
-2.12943e+56
3.25997e+58
-2.14125e+57
3.55361e+58
1.78561e+56
1.1644e+59
1.7297e+57
-4.50435e+58
2.67519e+57
1.98775e+58
-7.2963e+56
-1.11724e+58
1.28021e+57
-7.55466e+57
-1.58471e+57
-2.20049e+58
1.23997e+58
-3.49743e+58
5.54817e+57
5.66604e+58
9.65988e+57
1.97421e+59
3.38368e+56
-1.72275e+58
3.51505e+57
6.89766e+58
8.26534e+57
9.64126e+57
9.86167e+57
-6.24947e+58
8.69566e+57
-8.58335e+58
3.15382e+57
-4.07133e+58
3.26581e+57
3.07519e+58
4.83838e+56
4.02451e+58
-2.01838e+57
3.73263e+57
1.24981e+57
1.99093e+58
-2.02075e+56
-5.9416e+58
3.57454e+57
-3.16633e+58
1.11193e+58
-6.2255e+58
1.16305e+58
-4.53222e+58
8.96306e+57
-6.17906e+57
6.95162e+57
4.63664e+58
9.06211e+57
1.1104e+59
5.01144e+57
9.12744e+58
2.0895e+57
8.16042e+58
-4.56968e+56
6.58265e+58
-1.21703e+57
6.12184e+58
-1.29786e+57
6.07601e+58
-1.07999e+57
5.78123e+58
-6.46732e+56
5.83662e+58
-1.80469e+56
6.31091e+58
2.21174e+56
6.86099e+58
5.66479e+56
7.50367e+58
9.01268e+56
8.28593e+58
1.27941e+57
9.29664e+58
1.75105e+57
1.06355e+59
2.342e+57
1.24304e+59
3.06985e+57
1.48107e+59
3.91215e+57
1.79405e+59
4.79687e+57
2.19483e+59
5.3965e+57
2.70767e+59
4.8013e+57
3.30746e+59
1.16238e+57
3.99929e+59
-1.03924e+58
3.72722e+59
-4.36207e+58
5.16692e+59
-2.48418e+59
2.03695e+60
-8.38084e+59
6.36387e+60
-1.64078e+60
1.40436e+61
2.17206e+61
-1.54835e+58
2.65521e+58
-1.74484e+58
4.26729e+58
-1.6904e+58
5.3687e+58
-1.96312e+58
2.46124e+58
-1.96627e+58
9.7018e+57
-1.82721e+58
3.15095e+57
-1.59281e+58
-2.19462e+57
-2.12029e+58
-3.54424e+58
-1.80898e+58
-1.60442e+58
-1.13127e+58
-6.19577e+58
-2.71671e+56
-5.21013e+58
1.09158e+57
-1.99203e+59
-1.9878e+58
-2.07946e+59
4.5629e+55
-6.57704e+58
-1.59883e+58
-2.24042e+59
-1.62262e+58
-1.28835e+59
-1.91123e+58
-8.7876e+58
-1.74305e+58
-6.26509e+58
-2.00273e+58
-4.37275e+58
-2.4936e+58
2.29954e+58
-3.29922e+57
2.35243e+59
-5.4281e+57
2.01696e+59
-1.1987e+58
1.55477e+59
-1.48656e+58
4.36343e+57
1.93272e+57
4.2349e+59
-6.04285e+56
3.51366e+58
-3.69168e+57
3.86235e+58
-1.0134e+57
1.13762e+59
9.68288e+56
-4.70245e+58
1.8356e+57
1.90103e+58
-4.65099e+56
-8.87155e+57
9.99642e+56
-9.01925e+57
-2.84904e+56
-2.07201e+58
1.30779e+58
-4.8336e+58
4.70752e+57
6.5031e+58
7.82193e+57
1.94307e+59
-8.54482e+56
-8.54829e+57
2.46818e+57
6.56548e+58
8.24897e+57
3.86069e+57
9.95905e+57
-6.42047e+58
8.65122e+57
-8.45255e+58
2.28333e+57
-3.43444e+58
1.80846e+57
3.12291e+58
7.44971e+55
4.19808e+58
-2.48e+57
6.28898e+57
1.20904e+57
1.62233e+58
8.65686e+54
-5.82097e+58
2.99213e+57
-3.464e+58
1.20678e+58
-7.13222e+58
1.2977e+58
-4.62313e+58
8.18667e+57
-1.38762e+57
5.86117e+57
4.86956e+58
7.42811e+57
1.0948e+59
4.36467e+57
9.43477e+58
1.86477e+57
8.4114e+58
-5.02702e+56
6.82053e+58
-1.30406e+57
6.20332e+58
-1.38907e+57
6.08641e+58
-1.15411e+57
5.75986e+58
-6.84199e+56
5.79218e+58
-1.78519e+56
6.26288e+58
2.57789e+56
6.82011e+58
6.36652e+56
7.46841e+58
1.0095e+57
8.25139e+58
1.43619e+57
9.25631e+58
1.9709e+57
1.05845e+59
2.64239e+57
1.23654e+59
3.47145e+57
1.47301e+59
4.44054e+57
1.78455e+59
5.48734e+57
2.18457e+59
6.32326e+57
2.69949e+59
6.12235e+57
3.30968e+59
3.44975e+57
4.0262e+59
-5.8628e+57
3.8206e+59
-4.1876e+58
5.52726e+59
-2.92247e+59
2.28733e+60
-9.42571e+59
7.0142e+60
-1.72594e+60
1.4827e+61
2.17331e+61
-1.56787e+58
2.87327e+58
-1.72908e+58
4.42849e+58
-1.678e+58
5.31762e+58
-1.94029e+58
2.72354e+58
-1.97187e+58
1.00175e+58
-1.86334e+58
2.06571e+57
-1.68106e+58
-4.01744e+57
-2.12045e+58
-3.10485e+58
-1.8151e+58
-1.90976e+58
-1.21194e+58
-6.79893e+58
-1.08156e+57
-6.31391e+58
-1.90511e+57
-1.98379e+59
-1.89331e+58
-1.90918e+59
-4.82381e+56
-8.42211e+58
-1.51506e+58
-2.09374e+59
-1.63759e+58
-1.2761e+59
-1.89973e+58
-8.52545e+58
-1.8124e+58
-6.35242e+58
-2.07043e+58
-4.11472e+58
-2.57433e+58
2.80343e+58
-5.10049e+57
2.14601e+59
-5.06868e+57
2.01664e+59
-1.36591e+58
1.64067e+59
-2.52735e+58
1.59778e+58
3.15941e+55
3.98186e+59
-1.1874e+57
3.63557e+58
-5.14267e+57
4.25788e+58
-1.01148e+57
1.09631e+59
-5.28028e+54
-4.80301e+58
8.91447e+56
1.81137e+58
-6.39969e+56
-7.33981e+57
8.38741e+56
-1.04978e+58
2.06723e+57
-2.19479e+58
1.38178e+58
-6.00856e+58
4.26345e+57
7.45855e+58
7.20027e+57
1.91371e+59
-7.92243e+56
-5.55657e+56
1.8839e+57
6.29787e+58
8.48187e+57
-2.73707e+57
9.78293e+57
-6.55058e+58
8.16631e+57
-8.29089e+58
1.23465e+57
-2.74125e+58
2.70995e+56
3.21928e+58
-4.43678e+56
4.26957e+58
-2.95621e+57
8.80162e+57
1.35909e+57
1.19082e+58
3.30684e+56
-5.71811e+58
2.40318e+57
-3.67133e+58
1.29107e+58
-8.18308e+58
1.31165e+58
-4.64412e+58
8.17316e+57
3.5527e+57
5.71786e+57
5.11462e+58
6.17784e+57
1.09017e+59
3.70881e+57
9.68164e+58
1.59399e+57
8.62281e+58
-5.98972e+56
7.04007e+58
-1.41377e+57
6.28509e+58
-1.49015e+57
6.0947e+58
-1.22914e+57
5.73446e+58
-7.17598e+56
5.74202e+58
-1.70322e+56
6.20909e+58
3.00277e+56
6.77416e+58
7.11027e+56
7.42833e+58
1.12059e+57
8.21166e+58
1.59569e+57
9.20983e+58
2.19477e+57
1.05258e+59
2.94952e+57
1.22911e+59
3.88452e+57
1.46379e+59
4.98931e+57
1.77361e+59
6.21677e+57
2.17243e+59
7.33218e+57
2.68844e+59
7.63292e+57
3.30681e+59
5.77279e+57
4.04491e+59
-5.01108e+56
3.8835e+59
-4.5094e+58
5.97334e+59
-3.51184e+59
2.59342e+60
-1.05712e+60
7.72014e+60
-1.81001e+60
1.55799e+61
2.15232e+61
-1.59506e+58
3.06875e+58
-1.72337e+58
4.55681e+58
-1.67677e+58
5.27102e+58
-1.92656e+58
2.97332e+58
-1.98603e+58
1.06123e+58
-1.91199e+58
1.32534e+57
-1.77654e+58
-5.37197e+57
-2.12429e+58
-2.7571e+58
-1.81522e+58
-2.21883e+58
-1.28355e+58
-7.33061e+58
-2.13345e+57
-7.38411e+58
-4.65172e+57
-1.95861e+59
-1.80366e+58
-1.77533e+59
-1.26845e+57
-1.00989e+59
-1.46842e+58
-1.95958e+59
-1.6658e+58
-1.25636e+59
-1.89105e+58
-8.30021e+58
-1.9087e+58
-6.33476e+58
-2.16056e+58
-3.86286e+58
-2.6278e+58
3.27067e+58
-6.90542e+57
1.95228e+59
-4.59475e+57
1.99353e+59
-1.56207e+58
1.75093e+59
-4.79422e+58
4.82994e+58
4.80873e+56
3.49763e+59
-1.82856e+57
3.86651e+58
-6.31022e+57
4.70605e+58
-7.37232e+56
1.04058e+59
-2.43738e+57
-4.63292e+58
1.40374e+56
1.55361e+58
-1.12169e+57
-6.07757e+57
8.00002e+56
-1.24193e+58
5.43402e+57
-2.65815e+58
1.33205e+58
-6.79707e+58
3.77055e+57
8.41356e+58
6.91878e+57
1.88223e+59
-4.1183e+56
6.77641e+57
1.43493e+57
6.1133e+58
8.55593e+57
-9.85787e+57
9.49969e+57
-6.64494e+58
7.60701e+57
-8.10161e+58
7.06367e+54
-1.98115e+58
-1.45187e+57
3.36538e+58
-1.06053e+57
4.23057e+58
-3.34098e+57
1.10834e+58
1.27462e+57
7.29531e+57
5.72584e+56
-5.64744e+58
2.21492e+57
-3.83517e+58
1.36672e+58
-9.32751e+58
1.26081e+58
-4.53822e+58
8.74185e+57
7.42023e+57
6.45843e+57
5.34328e+58
5.32178e+57
1.1016e+59
3.04422e+57
9.91038e+58
1.32939e+57
8.7951e+58
-7.26939e+56
7.24662e+58
-1.54858e+57
6.36845e+58
-1.60505e+57
6.10211e+58
-1.3074e+57
5.7067e+58
-7.48004e+56
5.68853e+58
-1.56226e+56
6.15239e+58
3.48581e+56
6.72637e+58
7.89523e+56
7.38682e+58
1.23429e+57
8.16989e+58
1.75755e+57
9.15981e+58
2.42226e+57
1.04618e+59
3.26303e+57
1.22092e+59
4.30858e+57
1.45357e+59
5.55748e+57
1.76132e+59
6.98232e+57
2.15839e+59
8.40987e+57
2.67435e+59
9.29887e+57
3.29813e+59
8.06174e+57
4.05747e+59
5.84698e+57
3.90589e+59
-5.5414e+58
6.58612e+59
-4.25406e+59
2.96342e+60
-1.17854e+60
8.47328e+60
-1.87045e+60
1.62718e+61
2.11329e+61
-1.6288e+58
3.24054e+58
-1.72818e+58
4.65618e+58
-1.68716e+58
5.23e+58
-1.92313e+58
3.20929e+58
-2.00923e+58
1.14732e+58
-1.97036e+58
9.3666e+56
-1.87385e+58
-6.33702e+57
-2.13449e+58
-2.49646e+58
-1.81819e+58
-2.53513e+58
-1.34907e+58
-7.79973e+58
-3.33527e+57
-8.39965e+58
-6.99653e+57
-1.92199e+59
-1.71952e+58
-1.67334e+59
-2.27628e+57
-1.15908e+59
-1.4613e+58
-1.83621e+59
-1.71008e+58
-1.23148e+59
-1.89339e+58
-8.11689e+58
-1.982e+58
-6.24615e+58
-2.22317e+58
-3.62169e+58
-2.65542e+58
3.70292e+58
-8.94684e+57
1.77621e+59
-1.54042e+57
1.91947e+59
-1.49389e+58
1.88492e+59
-4.66151e+58
7.99756e+58
4.24643e+57
2.98902e+59
-2.54708e+57
4.54587e+58
-7.47175e+57
5.19852e+58
-1.30427e+57
9.78908e+58
-7.64094e+57
-3.99921e+58
-5.07594e+56
8.40278e+57
-1.61332e+57
-4.9716e+57
9.22338e+56
-1.49548e+58
9.16293e+57
-3.48215e+58
1.15243e+58
-7.03313e+58
3.17905e+57
9.2481e+58
6.75528e+57
1.84646e+59
1.30712e+56
1.34006e+58
1.27615e+57
5.99876e+58
8.65337e+57
-1.72348e+58
9.09025e+57
-6.68863e+58
6.92991e+57
-7.88557e+58
-1.43287e+57
-1.14484e+58
-3.3623e+57
3.55829e+58
-1.75517e+57
4.06985e+58
-3.64824e+57
1.29763e+58
1.01378e+57
2.63303e+57
9.47413e+56
-5.6409e+58
3.21291e+57
-4.06189e+58
1.54215e+58
-1.05488e+59
1.24162e+58
-4.23797e+58
9.08016e+57
1.07538e+58
7.08301e+57
5.54245e+58
4.69029e+57
1.12549e+59
2.33099e+57
1.01461e+59
1.06194e+57
8.92171e+58
-8.82707e+56
7.44113e+58
-1.70256e+57
6.4505e+58
-1.73147e+57
6.10538e+58
-1.38796e+57
5.67274e+58
-7.74973e+56
5.6279e+58
-1.35828e+56
6.08909e+58
4.02765e+56
6.67329e+58
8.7177e+56
7.34059e+58
1.34991e+57
8.12298e+58
1.92101e+57
9.10343e+58
2.65257e+57
1.03896e+59
3.58205e+57
1.21171e+59
4.74253e+57
1.44207e+59
6.1432e+57
1.74739e+59
7.7797e+57
2.14213e+59
9.54194e+57
2.65681e+59
1.10857e+58
3.28281e+59
1.03579e+58
4.06484e+59
1.2844e+58
3.88115e+59
-7.49645e+58
7.4643e+59
-5.1334e+59
3.4018e+60
-1.29963e+60
9.25957e+60
-1.92742e+60
1.68996e+61
2.07669e+61
-1.66867e+58
3.389e+58
-1.74366e+58
4.73117e+58
-1.70944e+58
5.19578e+58
-1.93101e+58
3.43086e+58
-2.04181e+58
1.25812e+58
-2.03601e+58
8.78592e+56
-1.96969e+58
-7.0002e+57
-2.15079e+58
-2.31536e+58
-1.82811e+58
-2.85782e+58
-1.40979e+58
-8.21805e+58
-4.65013e+57
-9.34443e+58
-8.94587e+57
-1.87904e+59
-1.63318e+58
-1.59948e+59
-3.37994e+57
-1.2886e+59
-1.48768e+58
-1.72124e+59
-1.77112e+58
-1.20314e+59
-1.91079e+58
-7.97722e+58
-2.02793e+58
-6.12901e+58
-2.26502e+58
-3.3846e+58
-2.65461e+58
4.09251e+58
-1.17075e+58
1.62782e+59
1.08307e+57
1.79156e+59
-1.56569e+58
2.05232e+59
-3.73109e+58
1.0163e+59
4.604e+57
2.56987e+59
-3.724e+57
5.37867e+58
-8.20515e+57
5.64664e+58
2.58091e+57
8.71049e+58
-3.56514e+57
-3.38456e+58
-3.68358e+56
5.20611e+57
-1.87837e+57
-3.46142e+57
1.16229e+57
-1.79953e+58
1.20602e+58
-4.57189e+58
8.84184e+57
-6.71118e+58
2.47441e+57
9.88486e+58
6.56467e+57
1.80556e+59
8.37736e+56
1.91284e+58
1.32333e+57
5.95031e+58
8.9086e+57
-2.48199e+58
8.57936e+57
-6.65569e+58
5.82409e+57
-7.61002e+58
-3.07791e+57
-2.54533e+57
-5.26605e+57
3.77727e+58
-2.49431e+57
3.79281e+58
-3.88535e+57
1.43685e+58
7.85988e+56
-2.03595e+57
1.86771e+57
-5.74868e+58
8.22641e+57
-4.69751e+58
2.13451e+58
-1.18595e+59
1.24118e+58
-3.34449e+58
8.76525e+57
1.44023e+58
7.44038e+57
5.67519e+58
4.17343e+57
1.15822e+59
1.48791e+57
1.04156e+59
7.6862e+56
8.99427e+58
-1.08184e+57
7.62691e+58
-1.87604e+57
6.53101e+58
-1.87089e+57
6.10649e+58
-1.47223e+57
5.63476e+58
-7.99279e+56
5.56296e+58
-1.09243e+56
6.0225e+58
4.62847e+56
6.61872e+58
9.57615e+56
7.29366e+58
1.46713e+57
8.07468e+58
2.08557e+57
9.04385e+58
2.88517e+57
1.0312e+59
3.90597e+57
1.20173e+59
5.18548e+57
1.42951e+59
6.74455e+57
1.732e+59
8.60424e+57
2.12375e+59
1.07157e+58
2.63589e+59
1.29596e+58
3.26059e+59
1.27357e+58
4.06727e+59
1.94992e+58
3.81375e+59
-1.05783e+59
8.71725e+59
-6.13415e+59
3.90944e+60
-1.42009e+60
1.00662e+61
-1.97447e+60
1.7454e+61
2.02291e+61
-1.71452e+58
3.51538e+58
-1.76949e+58
4.78614e+58
-1.74332e+58
5.16961e+58
-1.95061e+58
3.63815e+58
-2.08395e+58
1.39147e+58
-2.10724e+58
1.11145e+57
-2.06301e+58
-7.44244e+57
-2.17379e+58
-2.20458e+58
-1.84711e+58
-3.1845e+58
-1.46878e+58
-8.59638e+58
-6.09146e+57
-1.02041e+59
-1.05946e+58
-1.83401e+59
-1.52957e+58
-1.55247e+59
-4.38813e+57
-1.39768e+59
-1.53984e+58
-1.61114e+59
-1.84636e+58
-1.17249e+59
-1.942e+58
-7.88157e+58
-2.07277e+58
-5.99824e+58
-2.32004e+58
-3.13733e+58
-2.65461e+58
4.42708e+58
-1.38086e+58
1.50045e+59
2.17915e+57
1.63169e+59
-2.13662e+58
2.28777e+59
-3.38113e+58
1.14075e+59
2.61381e+57
2.20562e+59
-5.14477e+57
6.15454e+58
-8.60606e+57
5.99277e+58
4.57834e+57
7.39206e+58
2.78517e+55
-2.9295e+58
-1.69642e+57
6.93042e+57
-1.76366e+57
-3.39399e+57
1.53418e+57
-2.1293e+58
1.35709e+58