/*--------------------------------*- C++ -*----------------------------------*\
| =========                 |                                                 |
| \\      /  F ield         | OpenFOAM: The Open Source CFD Toolbox           |
|  \\    /   O peration     | Version:  4.1                                   |
|   \\  /    A nd           | Web:      www.OpenFOAM.org                      |
|    \\/     M anipulation  |                                                 |
\*---------------------------------------------------------------------------*/
FoamFile
{
    version     2.0;
    format      ascii;
    class       volScalarField;
    location    "30";
    object      p;
}
// * * * * * * * * * * * * * * * * * * * * * * * * * * * * * * * * * * * * * //

dimensions      [0 2 -2 0 0 0 0];

internalField   nonuniform List<scalar> 
6785
(
565.264
486.38
439.346
385.797
338.975
293.883
251.919
212.251
174.847
139.565
105.599
72.6252
44.8956
16.4333
-23.9323
-53.3239
-71.5521
-61.7865
-69.2121
-68.8562
-71.5594
-72.4742
-73.2192
-73.0004
-71.9037
-69.786
-66.8702
-62.801
-58.0611
-54.4857
-38.4143
-41.9356
-32.7852
-36.9854
-33.0767
-33.9329
-32.9372
-33.0417
-32.9666
-33.2344
-33.5487
-34.0273
-33.9052
-33.3169
-30.6108
-1.47339
-2.54634
1.30701
-2.88302
-0.00582023
-2.15547
-1.42109
-2.06722
-2.02466
-2.25316
-2.16775
-1.91176
-0.822404
0.28774
2.74985
5.91198
5.6613
8.47727
6.65217
10.1089
9.50001
11.8045
12.5842
14.0882
15.1475
16.1339
16.6715
16.8741
17.4643
18.2707
18.2188
16.1063
18.0453
15.5167
17.4955
15.6708
16.4851
15.3477
14.8837
13.4189
11.6697
9.66067
8.3011
7.38311
4.65825
-15.7818
-20.7271
-20.7933
-25.1064
-25.9592
-29.7148
-31.3926
-34.5212
-36.3546
-38.2549
-39.2747
-39.8576
-40.3754
-41.7137
-43.6208
-54.752
-58.7159
-58.1705
-61.3194
-61.3364
-64.0222
-64.7615
-66.7357
-67.6512
-68.5487
-69.0492
-69.4951
-69.8274
-70.1258
-67.9574
-50.9018
-51.2196
-49.2591
-50.2587
-48.4705
-49.0293
-48.0709
-48.106
-47.6922
-47.4153
-46.8262
-46.0692
-44.4092
-42.6488
-39.4079
-25.0473
-23.4485
-21.3857
-21.0296
-18.7982
-18.0659
-16.2885
-15.0322
-13.4777
-11.9867
-10.3632
-8.80872
-7.02409
-5.67033
-3.78904
-5.62742
-4.28001
-3.02193
-2.721
-1.23432
-0.797573
0.3533
1.08892
2.01063
2.83696
3.716
4.49544
5.40812
6.02896
6.9508
3.19895
4.72595
5.76737
6.19695
7.47425
7.95927
8.96469
9.65572
10.4625
11.1973
11.9829
12.7255
13.6734
14.316
15.4539
27.4132
27.9908
28.2971
28.3783
28.8224
28.4858
28.4447
27.9384
27.4288
26.9701
26.859
27.2607
28.0018
28.5743
29.1329
24.469
24.8781
23.0345
21.2588
20.1765
19.1143
18.7968
18.6988
19.0687
19.5498
20.1541
20.7354
21.1014
21.4538
21.1591
71.8767
68.1685
59.4389
51.3988
45.7035
39.2975
34.1441
30.3396
26.2757
22.9795
20.1874
18.0873
16.5654
15.9225
14.4981
34.2721
34.257
43.6528
35.2753
35.9129
38.7663
36.5599
35.2021
35.1783
35.2489
34.5474
32.674
33.4085
32.6163
30.5005
30.1921
31.0567
30.8429
27.6037
29.6485
29.4058
26.6405
26.3919
28.594
28.6081
25.8551
25.7467
27.8994
28.8753
25.6108
28.1638
29.2908
26.9846
27.0333
28.9922
30.4294
28.1467
30.0007
31.4927
30.0903
30.2261
31.6916
32.7629
31.7596
31.9335
33.0662
33.7845
32.9852
34.0787
34.909
34.5416
34.8527
35.5609
36.7469
36.6305
36.8594
37.2417
38.6544
38.6213
38.7856
39.2405
39.2053
39.1973
38.8871
39.9761
40.4589
41.8178
41.2913
40.3873
42.861
45.3126
38.0256
35.5566
41.5884
47.9317
20.8585
37.258
46.6622
-4.69965
15.3103
28.72
29.749
35.9119
29.4401
32.3593
40.3295
41.2393
43.1702
44.4917
45.4704
44.1123
46.4617
55.4339
37.3927
38.2667
34.5595
31.6514
30.6185
28.9951
25.4783
27.3199
43.1827
15.8593
14.4867
10.5637
8.42556
8.14471
6.59868
3.50471
-0.179758
-0.439852
18.7296
0.26533
-2.07895
-5.17844
-8.68964
-9.13993
-8.26536
-10.8672
-14.8778
-7.23851
-7.63059
-6.41558
-7.20139
-10.3519
-12.6919
-15.55
-14.1699
-17.5269
-10.8235
-2.04235
-7.00016
-7.01138
-7.98254
-10.1768
-11.7568
-12.8169
-19.5372
-14.339
2.48889
-1.90481
-2.80874
-5.19524
-6.56084
-7.92351
-8.56306
-8.91112
-12.0428
-14.4209
1.51422
-2.37041
-2.36629
-3.44294
-4.90805
-9.65355
-10.4134
-8.24674
-20.1193
-1.94996
-5.71153
-8.86993
-2.1852
-4.3405
-1.96318
-1.61135
-0.551227
0.693128
0.313683
1.03368
1.55835
1.4705
1.77424
1.88167
2.06872
2.26921
2.25142
2.3637
2.40208
2.47476
2.52762
2.51899
2.53229
2.53453
2.51661
2.52298
2.5253
2.54413
2.53765
2.58402
2.56052
2.55555
2.6182
2.58696
2.76818
2.66184
2.5184
2.89506
2.63811
2.55835
2.65062
2.42041
3.03789
2.42469
2.284
2.44853
2.08278
3.08345
2.31067
1.52514
3.20572
1.96662
1.59645
1.96065
1.27733
3.20151
1.61954
1.21637
1.61104
0.893874
2.97728
1.53597
0.209817
2.97966
1.15535
0.506788
1.0845
0.152426
2.63787
0.856123
-0.0538575
0.705812
-0.440197
2.07395
0.71273
-1.37497
1.98769
0.241273
-1.19522
-0.199612
-1.45353
0.0113154
-0.0442279
-0.0288539
-0.0374527
-0.0396466
-0.039414
-0.0317664
-0.0157502
0.00342107
0.00238393
-0.0456661
-0.0755573
0.0010794
-0.218897
-0.263177
-0.348608
-0.483055
-0.612962
-0.728662
-0.823021
-0.890818
-0.932713
-0.946728
-0.932773
-0.893317
-0.830929
-0.749133
-0.65228
-0.544405
-0.429584
-0.311371
-0.19277
-0.0767155
0.0342125
0.138125
0.233774
0.320279
0.397526
0.466056
0.526996
0.581389
0.629843
0.67224
0.707726
0.735038
0.752997
0.760785
0.757675
0.74202
0.70986
0.655679
0.575467
0.464364
0.309305
0.205566
0.0106477
0.0334759
0.01113
0.00756619
-7.39867e-05
-0.00714922
-0.013839
-0.0144275
-0.0112029
-0.00929641
-0.197914
-0.378066
-0.425965
-0.389678
-0.31381
-0.233479
-0.165543
-0.112523
-0.0535366
-0.0159015
-0.120763
-0.0754611
-0.047415
-0.0281374
0.0667169
-0.0436413
0.0014751
-0.00590497
-0.00766437
-0.0246127
-0.0604279
-0.115179
-0.166099
-0.19136
-0.194512
-0.11925
0.0937708
-0.271072
-0.343839
-0.522191
-0.773308
-1.00621
-1.21387
-1.38098
-1.49715
-1.56424
-1.57808
-1.53888
-1.45163
-1.32141
-1.15531
-0.961698
-0.748361
-0.523088
-0.292724
-0.0637307
0.158247
0.36909
0.565614
0.74551
0.907498
1.05187
1.17999
1.29343
1.39314
1.47953
1.55196
1.60907
1.64918
1.6709
1.67307
1.65367
1.60849
1.52895
1.40432
1.22758
0.989707
0.63686
0.38924
0.110385
0.149567
0.0744808
0.0484862
0.0104025
-0.0240693
-0.0540858
-0.0607441
-0.0527581
-0.0727122
-0.34546
-0.635406
-0.723899
-0.676528
-0.555638
-0.416995
-0.291158
-0.182739
-0.188752
-0.100696
-0.537494
-0.00424964
0.166817
0.139061
0.0823371
-0.0903973
-0.0277549
-0.0440866
-0.0490083
-0.0707985
-0.109509
-0.161079
-0.199793
-0.218436
-0.245151
-0.208749
0.0604717
-0.238797
-0.359826
-0.568259
-0.866761
-1.14308
-1.39099
-1.59027
-1.72844
-1.80822
-1.82374
-1.7754
-1.66926
-1.51132
-1.31022
-1.07607
-0.818343
-0.546544
-0.269067
0.00636009
0.273132
0.526271
0.762015
0.977725
1.17204
1.34511
1.49818
1.6327
1.74973
1.84986
1.93283
1.99766
2.04292
2.06693
2.06748
2.04087
1.98102
1.87833
1.72179
1.50306
1.21304
0.770623
0.432661
0.217858
0.230244
0.113416
0.0672153
0.00274396
-0.057212
-0.109779
-0.123166
-0.114598
-0.176963
-0.473978
-0.789348
-0.87683
-0.809636
-0.65782
-0.485996
-0.331633
-0.200759
-0.197194
-0.0930582
-0.597898
-0.0751361
0.191457
0.149627
0.10456
-0.102477
-0.0269087
-0.0452937
-0.0533265
-0.0862667
-0.14553
-0.222701
-0.284213
-0.314791
-0.33276
-0.281528
-0.00741444
-0.18906
-0.449292
-0.691821
-1.05978
-1.40145
-1.7073
-1.9521
-2.12089
-2.21763
-2.2349
-2.17335
-2.04053
-1.8439
-1.59417
-1.30387
-0.984724
-0.64855
-0.305772
0.0341825
0.363322
0.675467
0.966009
1.23179
1.47122
1.68432
1.87233
2.03681
2.17914
2.30019
2.40002
2.47789
2.53237
2.56134
2.56153
2.52764
2.45167
2.3224
2.12785
1.85772
1.50432
1.01847
0.472162
0.350592
0.324907
0.167461
0.0927065
-0.00446316
-0.0963898
-0.177302
-0.203211
-0.19924
-0.303828
-0.646188
-1.00298
-1.09566
-1.0027
-0.809288
-0.593374
-0.399915
-0.238803
-0.208843
-0.140213
-0.592361
-0.0762602
0.271436
0.216399
0.110232
-0.116228
-0.0376704
-0.0590434
-0.0736158
-0.117752
-0.190734
-0.276768
-0.341333
-0.374075
-0.39643
-0.358955
-0.103709
-0.0932261
-0.545081
-0.813406
-1.2507
-1.66072
-2.02783
-2.32158
-2.52398
-2.63993
-2.66005
-2.5852
-2.42442
-2.1867
-1.88503
-1.53451
-1.14934
-0.743817
-0.330555
0.0790658
0.475486
0.851276
1.20092
1.52064
1.8086
2.06473
2.29039
2.48732
2.65709
2.80081
2.91877
3.01031
3.074
3.10731
3.10606
3.06339
2.9693
2.8105
2.57377
2.24681
1.82052
1.33874
0.548493
0.492095
0.411332
0.218104
0.111028
-0.0210519
-0.148887
-0.262894
-0.307431
-0.317896
-0.458518
-0.840574
-1.23058
-1.32925
-1.20978
-0.973086
-0.71063
-0.474484
-0.279541
-0.224863
-0.139716
-0.490963
-0.0675895
0.34302
0.292139
0.109519
-0.113824
-0.0403778
-0.0622708
-0.0857823
-0.143004
-0.231464
-0.33015
-0.406995
-0.450789
-0.476428
-0.439864
-0.204624
-0.0323996
-0.660002
-0.944668
-1.44035
-1.91427
-2.33685
-2.67398
-2.90579
-3.03812
-3.0593
-2.97049
-2.78217
-2.50475
-2.15335
-1.74552
-1.2978
-0.826786
-0.347162
0.127894
0.587385
1.02272
1.42754
1.79754
2.13063
2.4267
2.68717
2.91391
3.10877
3.27308
3.40738
3.51121
3.58316
3.62031
3.61755
3.56647
3.45508
3.26826
2.99196
2.6124
2.10917
1.65198
0.689753
0.651065
0.503306
0.273471
0.128285
-0.0432945
-0.212934
-0.366856
-0.43903
-0.476515
-0.652368
-1.05959
-1.46044
-1.55742
-1.40905
-1.12944
-0.821975
-0.544891
-0.317509
-0.233753
-0.118058
-0.398177
-0.011323
0.416938
0.36365
0.0966277
-0.102908
-0.044562
-0.0667148
-0.102845
-0.173489
-0.274793
-0.38232
-0.467836
-0.520802
-0.554581
-0.528126
-0.323016
-0.0624261
-0.768333
-1.09439
-1.64241
-2.1831
-2.66118
-3.04014
-3.30004
-3.44767
-3.46875
-3.36483
-3.14786
-2.82972
-2.4277
-1.96183
-1.45096
-0.914037
-0.36776
0.172907
0.695552
1.19042
1.65035
2.07047
2.44849
2.78421
3.07916
3.33537
3.55496
3.73955
3.88998
4.00597
4.08614
4.12723
4.12314
4.06391
3.93561
3.72127
3.4061
2.97583
2.38484
1.91188
0.901266
0.809617
0.594253
0.328834
0.141139
-0.07393
-0.291373
-0.492854
-0.603372
-0.68306
-0.896508
-1.31832
-1.71092
-1.79563
-1.61416
-1.28956
-0.936145
-0.617558
-0.356991
-0.241528
-0.108057
-0.316695
0.0602498
0.537032
0.455802
0.0732447
-0.0798629
-0.0465635
-0.0685127
-0.120228
-0.203612
-0.316974
-0.434532
-0.531557
-0.59704
-0.641922
-0.627894
-0.461954
-0.186592
-0.834109
-1.26109
-1.85361
-2.46353
-2.998
-3.41739
-3.70417
-3.86627
-3.88643
-3.76652
-3.51989
-3.15998
-2.70628
-2.18134
-1.60636
-1.00263
-0.388888
0.218106
0.804519
1.35944
1.87488
2.34543
2.76858
3.14407
3.47354
3.7592
4.00348
4.20829
4.37478
4.50287
4.59122
4.63622
4.63083
4.56351
4.4183
4.17647
3.82214
3.34251
2.65994
2.08268
1.15612
0.966286
0.68799
0.385724
0.150825
-0.112522
-0.384736
-0.642853
-0.804237
-0.94388
-1.2023
-1.62897
-1.9938
-2.04981
-1.82756
-1.45447
-1.05321
-0.691807
-0.396738
-0.247682
-0.0993602
-0.24855
0.141394
0.657982
0.627115
0.0375534
-0.0469543
-0.049446
-0.0714489
-0.141029
-0.235751
-0.360694
-0.48802
-0.59592
-0.674279
-0.733314
-0.73781
-0.618104
-0.367573
-0.835351
-1.44908
-2.07613
-2.75504
-3.34714
-3.80483
-4.11622
-4.29102
-4.30875
-4.17154
-3.89409
-3.4914
-2.98521
-2.40057
-1.76106
-1.09028
-0.408996
0.264271
0.914288
1.529
2.09962
2.62022
3.08806
3.50283
3.86633
4.18093
4.44941
4.674
4.85618
4.99607
5.09243
5.14129
5.13468
5.05945
4.89757
4.62857
4.23531
3.70893
2.96403
2.18823
1.4172
1.11867
0.783686
0.442363
0.156355
-0.160028
-0.494613
-0.819672
-1.04605
-1.26431
-1.57859
-2.00285
-2.31984
-2.32616
-2.04961
-1.62189
-1.16991
-0.764231
-0.433679
-0.249338
-0.0817823
-0.178674
0.228221
0.767554
0.747262
-0.0107641
-0.0045619
-0.0537184
-0.075629
-0.163925
-0.268656
-0.405498
-0.542756
-0.662417
-0.755677
-0.831532
-0.857856
-0.783277
-0.566608
-0.787968
-1.66448
-2.31435
-3.05868
-3.71112
-4.20572
-4.53965
-4.72515
-4.73859
-4.58249
-4.27276
-3.82599
-3.2662
-2.62097
-1.91628
-1.17801
-0.428912
0.310728
1.02431
1.69867
2.32423
2.89455
3.4067
3.86033
4.25738
4.60044
4.89264
5.13659
5.33409
5.48553
5.58977
5.64252
5.63486
5.55197
5.37368
5.07793
4.64609
4.07379
3.33694
2.28015
1.6643
1.26823
0.88147
0.498831
0.158028
-0.216549
-0.621954
-1.02571
-1.33251
-1.64863
-2.03022
-2.44732
-2.69794
-2.63299
-2.28406
-1.79165
-1.28404
-0.831784
-0.464766
-0.244402
-0.0533286
-0.100718
0.321198
0.895674
0.903959
-0.0728323
0.0451505
-0.061291
-0.0821259
-0.189148
-0.303252
-0.452055
-0.598696
-0.730574
-0.840106
-0.935029
-0.986225
-0.952623
-0.765282
-0.753125
-1.91069
-2.5727
-3.37437
-4.09072
-4.62151
-4.97628
-5.17052
-5.17759
-5.00073
-4.65702
-4.16466
-3.54994
-2.84303
-2.0723
-1.26591
-0.448581
0.35768
1.13493
1.8689
2.54926
3.16907
3.72523
4.21734
4.64751
5.01859
5.33408
5.59697
5.80947
5.97224
6.08425
6.14095
6.13243
6.04216
5.84769
5.52549
5.05553
4.43051
3.74328
2.43054
1.90265
1.41795
0.98111
0.55441
0.155585
-0.282492
-0.767951
-1.2636
-1.6675
-2.10102
-2.55998
-2.96462
-3.13126
-2.97426
-2.53358
-1.96376
-1.39364
-0.891656
-0.487176
-0.23099
-0.0140682
-0.0119608
0.420096
1.0128
1.08375
-0.149412
0.0998989
-0.0730205
-0.0906713
-0.216281
-0.339428
-0.499584
-0.655309
-0.800582
-0.928137
-1.04428
-1.12258
-1.12645
-0.969831
-0.800078
-2.18157
-2.85509
-3.70229
-4.48641
-5.0531
-5.42735
-5.62849
-5.62689
-5.42704
-5.04736
-4.50766
-3.83651
-3.06668
-2.22894
-1.35374
-0.46772
0.405414
1.24641
2.03994
2.77491
3.44394
4.04374
4.57391
5.03673
5.43534
5.77362
6.05502
6.28215
6.45598
6.57566
6.63638
6.62725
6.52992
6.31951
5.97103
5.46388
4.77362
4.10093
2.6796
2.13908
1.56844
1.08205
0.608937
0.149191
-0.357917
-0.933519
-1.53578
-2.05479
-2.62553
-3.17057
-3.55517
-3.61958
-3.35039
-2.79868
-2.138
-1.49743
-0.942064
-0.499152
-0.207867
0.0355618
0.0867961
0.524462
1.12053
1.20603
-0.240883
0.15664
-0.0891713
-0.101172
-0.245503
-0.377013
-0.54745
-0.712372
-0.872261
-1.01931
-1.15865
-1.26641
-1.30787
-1.19581
-0.966421
-2.45295
-3.16457
-4.04364
-4.89896
-5.50146
-5.89411
-6.10066
-6.08811
-5.86275
-5.44473
-4.85565
-4.12633
-3.29214
-2.3863
-1.44149
-0.486247
0.454056
1.35891
2.21192
3.00132
3.71927
4.36233
4.9301
5.42506
5.85064
6.21121
6.51063
6.75201
6.93664
7.06389
7.12872
7.11927
7.01522
6.78915
6.41437
5.87169
5.10928
4.34946
2.99532
2.36723
1.71992
1.1837
0.662226
0.138944
-0.442862
-1.11956
-1.84466
-2.49845
-3.22641
-3.86542
-4.22005
-4.16254
-3.76133
-3.07955
-2.31449
-1.5952
-0.982537
-0.500164
-0.174684
0.0948272
0.19394
0.63327
1.23764
1.38901
-0.346064
0.21207
-0.109037
-0.113678
-0.276605
-0.41512
-0.594899
-0.76968
-0.945482
-1.11347
-1.27798
-1.41763
-1.49965
-1.45063
-1.2445
-2.69136
-3.50243
-4.40048
-5.32922
-5.96758
-6.3775
-6.58834
-6.56278
-6.30926
-5.85021
-5.20939
-4.4199
-3.51972
-2.54451
-1.52915
-0.504071
0.503758
1.4726
2.38506
3.2287
3.99526
4.68118
5.28606
5.81262
6.26463
6.64691
6.96386
7.21907
7.41423
7.54894
7.61802
7.60856
7.49821
7.25676
6.85553
6.27986
5.46727
4.50341
3.32425
2.58171
1.87207
1.28554
0.714263
0.125141
-0.537105
-1.32674
-2.19249
-3.00275
-3.90828
-4.64887
-4.96156
-4.76064
-4.20749
-3.37669
-2.49383
-1.68736
-1.01336
-0.49039
-0.131696
0.162777
0.307133
0.744674
1.33253
1.51058
-0.460786
0.262465
-0.131624
-0.128576
-0.308928
-0.452862
-0.641584
-0.827171
-1.02003
-1.21026
-1.40191
-1.57609
-1.70343
-1.73359
-1.6038
-2.87423
-3.87169
-4.77701
-5.7784
-6.45255
-6.87833
-7.09253
-7.05222
-6.7679
-6.2649
-5.56966
-4.71768
-3.74965
-2.70364
-1.61669
-0.521059
0.554708
1.58771
2.55959
3.45727
4.27213
5.00047
5.64194
6.19954
6.67737
7.08078
7.41471
7.68332
7.8887
8.03078
8.10425
8.09516
7.97893
7.7224
7.29462
6.68759
5.89431
4.62319
3.62775
2.78479
2.0245
1.38702
0.765105
0.108173
-0.64027
-1.55561
-2.5815
-3.5724
-4.67641
-5.52635
-5.78311
-5.41521
-4.68976
-3.69076
-2.67672
-1.77451
-1.03504
-0.470264
-0.0794368
0.238208
0.424115
0.857566
1.44661
1.6455
-0.576348
0.303465
-0.156015
-0.146036
-0.341336
-0.489555
-0.687335
-0.88474
-1.09568
-1.30945
-1.53024
-1.7418
-1.91977
-2.03892
-2.00565
-2.98978
-4.27797
-5.17897
-6.24783
-6.95777
-7.39756
-7.61409
-7.55755
-7.23996
-6.68995
-5.9373
-5.02024
-3.98224
-2.8638
-1.70408
-0.537084
0.607092
1.70445
2.73572
3.68726
4.55006
5.32037
5.99789
6.5859
7.08892
7.51282
7.86316
8.14471
8.36
8.50934
8.58735
8.57905
8.45738
8.18605
7.7317
7.08732
6.35986
4.79499
3.90902
2.98166
2.17675
1.48762
0.814893
0.0885857
-0.751726
-1.80647
-3.01375
-4.21249
-5.53678
-6.50448
-6.68914
-6.12819
-5.20941
-4.02253
-2.86382
-1.85717
-1.04808
-0.440279
-0.0185681
0.319783
0.54247
0.969938
1.54737
1.78757
-0.67927
0.329887
-0.181329
-0.165746
-0.37271
-0.5249
-0.732117
-0.942276
-1.1722
-1.41078
-1.66278
-1.91473
-2.14841
-2.35814
-2.41323
-3.05691
-4.73558
-5.61521
-6.73917
-7.48474
-7.9363
-8.15387
-8.07975
-7.72653
-7.12648
-6.31324
-5.32817
-4.21782
-3.02512
-1.79128
-0.55202
0.661104
1.82306
2.91371
3.91888
4.82927
5.64106
6.35404
6.97182
7.49933
7.94306
8.30919
8.60317
8.82803
8.98451
9.06725
9.06019
8.93358
8.64755
8.16717
7.47109
6.76585
5.0777
4.18117
3.17527
2.32794
1.58693
0.863855
0.0671076
-0.870553
-2.0793
-3.49116
-4.92856
-6.49619
-7.59127
-7.68505
-6.90202
-5.76791
-4.37272
-3.05573
-1.9358
-1.05296
-0.400918
0.0502067
0.406203
0.660355
1.08075
1.63367
1.89774
-0.75357
0.336446
-0.206302
-0.187005
-0.402245
-0.558826
-0.775878
-0.999628
-1.24938
-1.51407
-1.79939
-2.09488
-2.38867
-2.68505
-2.81092
-3.13989
-5.2633
-6.09414
-7.25359
-8.03502
-8.49598
-8.71288
-8.61972
-8.22857
-7.57547
-6.69837
-5.64212
-4.45675
-3.18774
-1.87828
-0.565734
0.716949
1.94377
3.09381
4.15241
5.10999
5.96274
6.71056
7.35741
7.90868
8.37151
8.75277
9.05865
9.29272
9.45621
9.54384
9.53855
9.40754
9.10669
8.60201
7.84479
7.03327
5.43919
4.43975
3.36608
2.47692
1.68464
0.91231
0.0446709
-0.995508
-2.37373
-4.01548
-5.72661
-7.56235
-8.79623
-8.77731
-7.73947
-6.36682
-4.74201
-3.25294
-2.01077
-1.0501
-0.352643
0.126185
0.49638
0.776363
1.18885
1.73316
2.00662
-0.785439
0.319482
-0.229188
-0.209093
-0.42953
-0.591344
-0.818542
-1.05663
-1.32703
-1.61913
-1.93994
-2.28212
-2.63992
-3.01843
-3.20806
-3.32159
-5.87931
-6.6263
-7.79281
-8.61007
-9.07825
-9.29237
-9.17847
-8.74695
-8.03779
-7.09351
-5.96274
-4.69943
-3.35182
-1.96507
-0.578086
0.774843
2.06686
3.27628
4.38809
5.39246
6.28561
7.0676
7.74277
8.31703
8.79818
9.19388
9.51107
9.75396
9.92429
10.017
10.014
9.87926
9.5633
9.03824
8.24933
7.18977
5.8084
4.6772
3.55338
2.62276
1.78054
0.960646
0.022423
-1.125
-2.68897
-4.58814
-6.61284
-8.74375
-10.1306
-9.97345
-8.64365
-7.00775
-5.13097
-3.45588
-2.08238
-1.0399
-0.295888
0.208667
0.589479
0.889494
1.29294
1.8199
2.11782
-0.768122
0.278798
-0.248173
-0.231473
-0.4544
-0.622445
-0.859992
-1.11311
-1.40496
-1.7258
-2.08421
-2.47618
-2.90155
-3.36069
-3.63074
-3.67712
-6.57585
-7.21681
-8.35747
-9.21126
-9.68501
-9.89386
-9.75722
-9.28256
-8.5142
-7.49939
-6.29066
-4.94628
-3.51755
-2.05163
-0.588936
0.835013
2.19258
3.46144
4.62622
5.67694
6.6099
7.42533
8.12804
8.72444
9.2231
9.63246
9.96036
10.2116
10.3886
10.4866
10.4866
10.3487
10.0173
9.47549
8.74417
7.31329
6.13617
4.89741
3.73664
2.76456
1.87443
1.00931
0.00172866
-1.25708
-3.02361
-5.2098
-7.59284
-10.0487
-11.6069
-11.2821
-9.61795
-7.69233
-5.54001
-3.66487
-2.15087
-1.02275
-0.231062
0.296973
0.68486
0.99863
1.39227
1.89408
2.20225
-0.704219
0.218265
-0.261966
-0.253752
-0.476797
-0.652063
-0.900093
-1.16891
-1.48301
-1.83388
-2.2319
-2.67653
-3.17262
-3.71437
-4.09902
-4.25134
-7.33153
-7.87209
-8.94935
-9.84002
-10.3184
-10.5191
-10.3574
-9.83641
-9.00541
-7.91662
-6.62641
-5.19769
-3.68513
-2.13797
-0.598137
0.897697
2.32124
3.64958
4.8671
5.96371
6.93583
7.78395
8.51334
9.131
9.64628
10.0685
10.4064
10.6656
10.849
10.9525
10.9561
10.8158
10.4684
9.9034
9.27346
7.51108
6.43409
5.10734
3.91534
2.90151
1.9661
1.05879
-0.0158018
-1.38926
-3.37508
-5.87902
-8.66937
-11.4819
-13.2368
-12.7121
-10.6659
-8.42217
-5.96942
-3.88012
-2.21638
-0.998997
-0.158547
0.390434
0.781908
1.10205
1.4853
1.97433
2.28739
-0.604258
0.144743
-0.270116
-0.275536
-0.496694
-0.680084
-0.938702
-1.22384
-1.56098
-1.94311
-2.3826
-2.88238
-3.45179
-4.0806
-4.61907
-5.04163
-8.0921
-8.58419
-9.56832
-10.4974
-10.9807
-11.1702
-10.9807
-10.4097
-9.51221
-8.34576
-6.97043
-5.454
-3.85472
-2.22408
-0.605541
0.963145
2.45314
3.84104
5.11106
6.25307
7.26368
8.14366
8.89881
9.53678
10.0677
10.5019
10.8492
11.1157
11.3054
11.4145
11.4223
11.2803
10.917
10.3107
9.71295
7.8279
6.71712
5.31088
4.08809
3.03294
2.05539
1.10966
-0.0282178
-1.51817
-3.73868
-6.59045
-9.83868
-13.0389
-15.0263
-14.2708
-11.7906
-9.1987
-6.41928
-4.10173
-2.27902
-0.968998
-0.078703
0.488444
0.879812
1.19838
1.57175
2.03126
2.35342
-0.482775
0.0660327
-0.272926
-0.29634
-0.514067
-0.706358
-0.975681
-1.27776
-1.63868
-2.05321
-2.53576
-3.09269
-3.73735
-4.45899
-5.18635
-6.01183
-8.80734
-9.3501
-10.2163
-11.1848
-11.6745
-11.8494
-11.6291
-11.004
-10.0356
-8.78737
-7.32311
-5.7155
-4.02651
-2.30996
-0.610991
1.03162
2.58862
4.03618
5.35846
6.54535
7.59372
8.50468
9.28463
9.94189
10.4875
10.9327
11.2885
11.5619
11.7574
11.8723
11.8853
11.7418
11.3647
10.7022
9.97223
8.2196
6.97624
5.50892
4.25375
3.15825
2.1421
1.16257
-0.0330608
-1.63911
-4.10662
-7.33345
-11.0872
-14.7029
-16.969
-15.9606
-12.9933
-10.0229
-6.88945
-4.32968
-2.33877
-0.933072
0.00815102
0.590514
0.977822
1.28785
1.65154
2.09794
2.41263
-0.354131
-0.010983
-0.271153
-0.315607
-0.528896
-0.730719
-1.0109
-1.3305
-1.71591
-2.16382
-2.69074
-3.30627
-4.02731
-4.84733
-5.78773
-7.08724
-9.40593
-10.1498
-10.8932
-11.9023
-12.4022
-12.5591
-12.3046
-11.6209
-10.5766
-9.24211
-7.68479
-5.98238
-4.20058
-2.39559
-0.614324
1.10341
2.72801
4.23538
5.60967
6.84089
7.92626
8.86726
9.67097
10.3464
10.9056
11.3609
11.7243
12.0039
12.2049
12.3257
12.3448
12.2002
11.816
11.1412
10.1075
8.60585
7.20702
5.70004
4.41115
3.27696
2.22602
1.21831
-0.0272271
-1.74587
-4.46816
-8.09318
-12.3937
-16.4577
-19.0479
-17.7756
-14.2723
-10.8945
-7.37939
-4.56381
-2.39557
-0.89151
0.101766
0.696228
1.07562
1.37076
1.72458
2.15274
2.46206
-0.229738
-0.0813073
-0.265708
-0.332759
-0.54117
-0.753002
-1.04424
-1.38189
-1.79241
-2.27452
-2.84679
-3.52175
-4.31954
-5.24192
-6.39853
-8.15263
-9.85131
-10.9755
-11.6016
-12.6499
-13.1659
-13.3019
-13.0095
-12.2623
-11.1366
-9.71075
-8.05584
-6.25479
-4.37699
-2.48092
-0.615358
1.1788
2.87171
4.43904
5.8651
7.1401
8.26164
9.23169
10.058
10.7505
11.3221
11.7863
12.1565
12.4417
12.6477
12.7744
12.8007
12.6552
12.2709
11.6997
10.2182
8.93855
7.41771
5.88372
4.55938
3.38853
2.30692
1.27784
-0.00706894
-1.83138
-4.81162
-8.85532
-13.7401
-18.3023
-21.2446
-19.7026
-15.6207
-11.8112
-7.88781
-4.80374
-2.44922
-0.844567
0.201985
0.80529
1.17279
1.4476
1.79011
2.19157
2.49751
-0.117062
-0.141927
-0.257447
-0.347265
-0.550885
-0.773054
-1.07561
-1.43178
-1.86793
-2.38484
-3.00307
-3.7377
-4.61172
-5.6374
-6.99115
-9.09521
-10.1549
-11.8148
-12.3431
-13.4256
-13.9668
-14.0803
-13.7462
-12.9302
-11.7171
-10.1942
-8.43671
-6.53289
-4.55574
-2.56584
-0.613895
1.25811
3.02009
4.64759
6.1252
7.44338
8.60023
9.59827
10.4461
11.1544
11.7371
12.209
12.585
12.8749
13.0855
13.2181
13.2527
13.1062
12.7153
12.2972
10.4343
9.24038
7.61692
6.05886
4.69772
3.49239
2.38453
1.34214
0.0311237
-1.88915
-5.12772
-9.61195
-15.1233
-20.2492
-23.5542
-21.7268
-17.0272
-12.7678
-8.4123
-5.04877
-2.49947
-0.792456
0.308767
0.917518
1.26894
1.51809
1.84792
2.23289
2.52401
-0.0199535
-0.191421
-0.247077
-0.358684
-0.558055
-0.790748
-1.10492
-1.47998
-1.94216
-2.49426
-3.15865
-3.95255
-4.90143
-6.02796
-7.53959
-9.82874
-10.3886
-12.6689
-13.1205
-14.2257
-14.8049
-14.8965
-14.517
-13.6267
-12.3196
-10.6936
-8.82796
-6.81684
-4.7368
-2.65023
-0.609703
1.34167
3.17358
4.86152
6.39043
7.75118
8.94245
9.96735
10.8354
11.5581
12.1507
12.6291
13.0097
13.3036
13.518
13.6564
13.7005
13.5539
13.1328
12.7794
10.7852
9.52266
7.80998
6.22392
4.82549
3.58791
2.45853
1.41205
0.0904721
-1.9146
-5.4116
-10.3641
-16.5567
-22.3237
-25.9957
-23.8412
-18.4777
-13.7558
-8.94881
-5.29767
-2.54592
-0.735343
0.42221
1.03282
1.36381
1.5807
1.89673
2.27207
2.53443
0.0604193
-0.229436
-0.23513
-0.366681
-0.562712
-0.805983
-1.13208
-1.52633
-2.01479
-2.60221
-3.31254
-4.16465
-5.18604
-6.40747
-8.0307
-10.3588
-10.6854
-13.533
-13.9325
-15.0445
-15.6778
-15.7517
-15.3242
-14.3539
-12.9458
-11.21
-9.23026
-7.1069
-4.92013
-2.73389
-0.602524
1.42983
3.33263
5.08132
6.66131
8.064
9.28872
10.3393
11.2262
11.9619
12.5629
13.0464
13.4306
13.7275
13.945
14.089
14.1435
14.0007
13.5253
13.036
11.2067
9.77407
7.99679
6.37752
4.94219
3.67443
2.52851
1.48805
0.173221
-1.90505
-5.66207
-11.1194
-18.0635
-24.5667
-28.611
-26.0535
-19.9598
-14.7638
-9.4913
-5.54846
-2.588
-0.673339
0.542548
1.15119
1.45711
1.63387
1.93673
2.29203
2.53326
0.124556
-0.25624
-0.221988
-0.37104
-0.564906
-0.818694
-1.15704
-1.57065
-2.08549
-2.70808
-3.46367
-4.37223
-5.4627
-6.77059
-8.46546
-10.7601
-11.1531
-14.3673
-14.7714
-15.8744
-16.5813
-16.6459
-16.169
-15.1138
-13.5974
-11.7446
-9.64431
-7.40337
-5.10572
-2.81665
-0.592069
1.52296
3.49769
5.30751
6.93839
8.38236
9.63954
10.7146
11.6189
12.3662
12.974
13.4611
13.8475
14.1464
14.3662
14.5155
14.5813
14.4537
13.9681
13.1377
11.6058
9.99228
8.17586
6.51835
5.04733
3.75131
2.59401
1.57027
0.281134
-1.85838
-5.87897
-11.8874
-19.6706
-27.0308
-31.4594
-28.387
-21.4659
-15.7795
-10.0318
-5.79819
-2.62493
-0.6065
0.670139
1.27279
1.54826
1.67708
1.96478
2.3101
2.5325
0.173802
-0.272404
-0.207919
-0.371652
-0.56471
-0.828843
-1.17973
-1.61275
-2.15389
-2.81119
-3.61087
-4.57336
-5.72838
-7.11268
-8.85271
-11.1189
-11.8605
-15.0712
-15.6202
-16.7079
-17.5091
-17.5773
-17.052
-15.9077
-14.2759
-12.2987
-10.0709
-7.70659
-5.29361
-2.89829
-0.578023
1.62144
3.66925
5.54066
7.22227
8.70685
9.99544
11.0936
12.0138
12.771
13.3842
13.8733
14.2604
14.5604
14.7813
14.9356
15.0135
14.9151
14.5478
13.2092
11.9369
10.1872
8.34612
6.64556
5.14048
3.81802
2.65454
1.65872
0.416251
-1.77154
-6.06088
-12.6761
-21.404
-29.7743
-34.6129
-30.878
-22.9948
-16.7911
-10.5609
-6.04279
-2.65558
-0.534808
0.805453
1.39784
1.63687
1.70819
1.98229
2.32165
2.52516
0.209786
-0.278617
-0.193122
-0.368502
-0.562217
-0.836423
-1.20011
-1.65245
-2.21962
-2.91083
-3.75286
-4.766
-5.97995
-7.42988
-9.19978
-11.4591
-12.709
-15.5479
-16.4637
-17.5407
-18.454
-18.5425
-17.9722
-16.7363
-14.9825
-12.8732
-10.5107
-8.01694
-5.48384
-2.97862
-0.560052
1.7257
3.84778
5.78133
7.51357
9.03809
10.357
11.4769
12.4115
13.1769
13.7936
14.283
14.6694
14.9691
15.1899
15.3486
15.4392
15.369
15.1792
13.4021
12.2316
10.3709
8.50595
6.7585
5.22142
3.87418
2.70951
1.75344
0.581454
-1.63976
-6.20365
-13.4901
-23.2867
-32.8575
-38.1528
-33.5728
-24.5515
-17.7885
-11.0681
-6.27707
-2.67847
-0.458169
0.949055
1.52673
1.72255
1.72554
1.98714
2.32579
2.51569
0.2341
-0.275585
-0.177761
-0.361655
-0.557537
-0.841452
-1.21814
-1.68957
-2.28227
-3.00623
-3.88832
-4.9481
-6.21455
-7.71959
-9.51277
-11.78
-13.5358
-15.7538
-17.3006
-18.3744
-19.409
-19.5368
-18.9268
-17.5988
-15.7177
-13.4691
-10.9643
-8.33477
-5.67648
-3.05747
-0.537807
1.83617
4.03378
6.0301
7.81294
9.37676
10.7249
11.865
12.8123
13.5842
14.2025
14.6903
15.0743
15.3726
15.5918
15.7539
15.8588
15.7947
15.686
13.7461
12.5047
10.5505
8.6538
6.85697
5.29014
3.91949
2.7581
1.85457
0.780637
-1.45624
-6.29932
-14.3268
-25.3295
-36.3305
-42.1575
-36.5229
-26.1451
-18.7641
-11.5429
-6.49482
-2.6917
-0.376389
1.10161
1.66007
1.80506
1.72752
1.9784
2.32613
2.51213
0.248134
-0.263988
-0.161987
-0.351235
-0.550795
-0.843971
-1.23379
-1.72391
-2.34141
-3.09656
-4.01589
-5.11775
-6.42997
-7.98083
-9.79599
-12.0682
-14.1909
-15.7862
-18.1536
-19.2183
-20.3681
-20.5545
-19.9118
-18.493
-16.4811
-14.0866
-11.4323
-8.66036
-5.87158
-3.13463
-0.510923
1.9533
4.22777
6.28756
8.12105
9.72357
11.0997
12.2586
13.2168
13.9932
14.6112
15.0956
15.4753
15.7707
15.9866
16.1505
16.2756
16.1939
15.943
14.1665
12.7486
10.7261
8.78827
6.94115
5.34678
3.95348
2.79911
1.96222
1.01869
-1.2118
-6.33489
-15.1706
-27.5155
-40.21
-46.6772
-39.7763
-27.7876
-19.7123
-11.975
-6.68902
-2.69297
-0.289157
1.2639
1.79883
1.88454
1.71241
1.95569
2.32029
2.50663
0.253011
-0.244453
-0.145949
-0.337412
-0.542132
-0.844041
-1.24703
-1.75531
-2.3966
-3.181
-4.1343
-5.2734
-6.62497
-8.21437
-10.053
-12.3201
-14.6394
-15.8973
-19.029
-20.0846
-21.328
-21.5909
-20.9226
-19.4152
-17.2708
-14.7254
-11.9148
-8.99386
-6.06913
-3.2099
-0.479015
2.07759
4.43029
6.55429
8.43856
10.0793
11.4823
12.6584
13.6257
14.4046
15.0202
15.499
15.8724
16.1636
16.3742
16.5377
16.6979
16.6385
16.016
14.5649
12.961
10.8962
8.90845
7.01135
5.39134
3.97531
2.83077
2.07643
1.30152
-0.895428
-6.29318
-15.9883
-29.7886
-44.4555
-51.7013
-43.363
-29.4907
-20.6293
-12.355
-6.85213
-2.67967
-0.196022
1.4369
1.94449
1.96153
1.6787
1.91816
2.30907
2.49364
0.249562
-0.217538
-0.129801
-0.32039
-0.5317
-0.841751
-1.25786
-1.78357
-2.44739
-3.25875
-4.24248
-5.41414
-6.79958
-8.42257
-10.288
-12.5506
-14.986
-16.305
-19.8223
-20.9802
-22.2888
-22.6432
-21.9548
-20.3606
-18.0836
-15.3839
-12.4112
-9.33517
-6.26903
-3.28303
-0.441669
2.20957
4.64192
6.8309
8.76614
10.4446
11.8735
13.0651
14.0394
14.8187
15.4298
15.9007
16.2657
16.5511
16.7543
16.9145
17.1293
17.2058
16.0471
14.895
13.1492
11.0591
9.01386
7.06777
5.42353
3.98369
2.85069
2.19709
1.63508
-0.500784
-6.15816
-16.739
-32.0744
-48.9789
-57.1487
-47.2812
-31.2637
-21.5118
-12.6744
-6.97632
-2.64896
-0.0963725
1.62184
2.09926
2.0371
1.62486
1.8654
2.29436
2.48457
0.238334
-0.183724
-0.113704
-0.300403
-0.519676
-0.837214
-1.26629
-1.80852
-2.49337
-3.32913
-4.33975
-5.53979
-6.95499
-8.6088
-10.5052
-12.7746
-15.321
-17.0341
-20.3576
-21.9114
-23.2573
-23.7115
-23.006
-21.3246
-18.9153
-16.0596
-12.9203
-9.68382
-6.47101
-3.35369
-0.39843
2.34982
4.86329
7.11802
9.10445
10.8203
12.2741
13.4796
14.459
15.2363
15.8405
16.3011
16.6554
16.9333
17.1268
17.2795
17.5561
17.8206
16.1941
15.1803
13.3259
11.2132
9.10427
7.11024
5.44267
3.97689
2.85566
2.3237
2.01878
-0.0392354
-5.93889
-17.4124
-34.3312
-53.7033
-62.9131
-51.4956
-33.1099
-22.3567
-12.9257
-7.05376
-2.59793
0.0105679
1.82027
2.26617
2.1128
1.54898
1.7968
2.27583
2.47561
0.219596
-0.143408
-0.097827
-0.277715
-0.506257
-0.830577
-1.27237
-1.83004
-2.53417
-3.39169
-4.42589
-5.65099
-7.09327
-8.77668
-10.7075
-12.9964
-15.6473
-17.8533
-20.5624
-22.903
-24.2488
-24.7988
-24.0762
-22.3036
-19.7614
-16.7488
-13.4399
-10.0388