/*--------------------------------*- C++ -*----------------------------------*\
| =========                 |                                                 |
| \\      /  F ield         | OpenFOAM: The Open Source CFD Toolbox           |
|  \\    /   O peration     | Version:  4.1                                   |
|   \\  /    A nd           | Web:      www.OpenFOAM.org                      |
|    \\/     M anipulation  |                                                 |
\*---------------------------------------------------------------------------*/
FoamFile
{
    version     2.0;
    format      ascii;
    class       surfaceScalarField;
    location    "30";
    object      phi;
}
// * * * * * * * * * * * * * * * * * * * * * * * * * * * * * * * * * * * * * //

dimensions      [0 3 -1 0 0 0 0];

internalField   nonuniform List<scalar> 
13220
(
-809.961
2109.86
-1264.38
1754.62
-1730.58
1766.1
-2074.36
1643.68
-2356.82
1582.66
-2560.75
1503.83
-2693.37
1432.53
-2752.43
1359.26
-2741.02
1288.49
-2659.35
1218.23
-2504.19
1145.04
-2249.94
1045.65
-1810.45
860.413
-1063.36
553.107
236.545
-203.116
2312.98
-443.57
1995.08
-708.419
2030.95
-908.191
1843.45
-1098.26
1772.73
-1240.24
1645.81
-1353.13
1545.42
-1428.46
1434.59
-1472.12
1332.15
-1484.12
1230.23
-1454.27
1115.19
-1348.66
940.039
-1099.85
611.609
-637.424
90.6845
-400.879
-106.066
2419.05
-251.584
2140.6
-345.211
2124.58
-376.953
1875.2
-398.726
1794.51
-373.201
1620.29
-327.628
1499.85
-259.026
1366
-177.797
1250.92
-82.7447
1135.18
25.409
1007.04
125.746
839.71
170.367
567.004
116.767
144.305
-284.112
56.263
2362.79
74.7726
2122.09
124.1
2075.25
193.521
1805.78
262.074
1725.96
354.074
1528.29
450.164
1403.76
569.421
1246.74
708.358
1111.99
855.341
988.201
975.287
887.094
1022.7
792.294
912.323
677.38
545.22
511.405
261.108
13.4298
2349.36
16.3423
2119.17
31.6443
2059.95
21.1805
1816.24
9.98216
1737.15
-17.8227
1556.1
-43.3634
1429.3
-11.5754
1214.95
120.387
980.024
339.331
769.258
573.161
653.261
724.672
640.786
684.135
717.919
410.887
784.654
671.995
-119.228
2468.58
-253.002
2252.95
-372.271
2179.22
-531.45
1975.42
-693.206
1898.91
-885.233
1748.12
-1077.93
1621.99
-1230.31
1367.33
-1288.65
1038.36
-1225.31
705.916
-1037.07
465.022
-730.307
334.021
-373.081
360.686
-98.5727
510.138
573.422
-27.7834
2496.37
-221.027
2446.19
-343.004
2301.2
-466.348
2098.76
-584.169
2016.73
-707.801
1871.75
-842.013
1756.2
-1011.62
1536.94
-1224.25
1250.99
-1442.77
924.436
-1590.35
612.602
-1561.04
304.709
-1252.04
51.6854
-653.779
-88.12
-80.3568
214.926
2281.44
98.6765
2562.44
76.251
2323.62
94.6776
2080.34
140.324
1971.08
195.437
1816.64
255.466
1696.17
267.954
1524.45
198.012
1320.93
43.25
1079.2
-154.581
810.432
-352.62
502.741
-446.076
145.135
-377.915
-156.286
-458.271
298.821
1982.62
309.719
2551.54
352.305
2281.04
443.634
1989.01
565.629
1849.09
693.828
1688.44
834.66
1555.34
954.982
1404.13
1029.9
1246.02
1033.36
1075.74
953.332
890.458
767.539
688.536
463.026
449.65
135.157
171.584
-323.114
200.624
1781.99
257.739
2494.43
304.022
2234.75
373.024
1920
459.933
1762.18
543.372
1605
626.596
1472.12
698.565
1332.16
747.872
1196.71
761.916
1061.69
730.66
921.713
644.1
775.093
492.664
601.082
277.717
386.524
-45.3968
94.5005
1687.49
156.175
2432.75
197.059
2193.87
244.089
1872.97
307.235
1699.03
365.532
1546.7
415.957
1421.69
454.93
1293.18
481.254
1170.38
492.496
1050.45
484.608
929.6
446.467
813.233
358.255
689.293
199.628
545.148
154.231
25.8359
1661.66
130.571
2328.02
216.243
2108.19
276.535
1812.68
335.358
1640.21
388.772
1493.29
438.512
1371.95
483.81
1247.88
529.56
1124.63
574.799
1005.21
602.274
902.125
582.075
833.43
476.365
795.002
274.64
746.869
428.871
-21.0441
1682.7
35.4054
2271.57
138.815
2004.79
265.338
1686.16
406.26
1499.29
559.976
1339.57
725.68
1206.25
898.457
1075.11
1049.68
973.406
1136.26
918.627
1114.04
924.351
967.381
980.086
703.643
1058.74
368.201
1082.31
797.072
267.038
1415.66
325.682
2212.92
218.345
2112.12
54.8772
1849.62
-100.739
1654.9
-227.039
1465.87
-294.883
1274.09
-298.901
1079.13
-238.642
913.146
-122.846
802.831
19.836
781.668
113.037
886.884
88.9089
1082.87
5.50568
1165.71
802.578
767.679
1808.27
2423.16
2605.32
2587.89
2397.56
2004.48
1574.2
1104.79
678.152
324.459
122.364
51.5225
74.141
5.25812e-06
465.544
-465.544
465.544
465.544
465.544
1142.95
-677.407
1142.95
1142.95
1142.95
1639.73
-496.779
1639.73
1639.73
2040.38
-400.648
2040.38
2040.38
2040.38
2332.37
-291.991
2332.37
2332.37
2498.1
-165.729
2498.1
2498.1
2498.1
2550.12
-52.0204
2550.12
2550.12
2550.12
2504.69
45.4261
2504.69
2504.69
2371.79
132.905
2371.79
2371.79
2371.79
2174.49
197.301
2174.49
2174.49
1928.36
246.129
1928.36
1928.36
1928.36
1678.45
249.907
1678.45
1678.45
1678.45
1503.45
175.001
1503.45
1503.45
1268.28
235.166
1268.28
1268.28
1268.28
920.8
347.484
920.8
920.8
920.8
468.383
452.417
468.383
468.383
-12.1569
480.54
-12.157
-12.1569
-12.157
-704.582
692.425
-704.582
-704.582
-1983.53
1278.95
-1983.53
-1983.53
-1983.53
-3745.68
1762.15
-3745.68
-3745.68
-3745.68
-5892.88
2147.2
-5892.88
-5892.88
-8232.32
2339.44
-8232.32
-8232.32
-8073.76
-7914.52
-7749.79
-9999.25
2420.18
-9832.9
-9638.86
-9427.11
-9214.74
-8999.72
-8779.79
-8562.58
-8354.18
-10647.1
2503.42
-10428.8
-10207.6
-9981.67
-9778.09
-9574.26
-9366.72
-9160.52
-8958.16
-11263.3
2498.35
-11050
-10834.7
-10617
-10398.7
-10173.8
-9936.9
-9699.15
-9462.72
-9230.94
-11355.6
2338.87
-11098.1
-10839.7
-10580
-10320.5
-10061.3
-9783.28
-9495.5
-9208.99
-10998.6
2060.18
-10713
-10416
-10101.2
-9786.47
-9472.06
-9160.77
-8852.47
-8524.77
-9723.23
1505.93
-9411.33
-9105.24
-8802.5
-8488.8
-8171.64
-7857.35
-7543.45
-7231.73
-7825.98
906.492
-7504.83
-7187.6
-6874.04
-6567.16
-6268.9
-5965.77
-5673.45
-5392.68
-5124.63
-4593.95
-258.994
-4348.57
-4119.73
-3896.75
-3681.11
-3470.58
-3295.04
-3180.93
-3063.16
-2377.24
-550.805
-2259.75
-2146.11
-2146.11
-1788.84
-357.267
-1457.83
-331.01
-1457.83
-1195.4
-262.429
-1195.4
-982.427
-212.972
-816.135
-166.293
-816.135
-668.484
-147.65
-547.883
-120.601
-547.883
-440.259
-107.623
-440.259
-346.76
-93.4998
-268.3
-78.4593
-268.3
-194.846
-73.4546
-194.846
-121.899
-72.9466
-55.152
-66.7469
-55.152
9.26551
-64.4174
84.0419
-74.7764
84.0419
156.884
-72.842
156.884
226.966
-70.0817
308.06
-81.0942
308.06
389.001
-80.9411
389.001
464.386
-75.3854
550.037
-85.6507
550.037
638.144
-88.107
715.095
-76.9512
715.095
813.913
-98.8173
813.913
919.111
-105.198
1005.4
-86.2844
1005.4
1090.08
-84.683
1090.08
1178.48
-88.4064
1249.71
-71.229
1249.71
1326.53
-76.8165
1384.5
-57.9676
1384.5
1441.76
-57.2665
1441.76
1501.47
-59.7033
1540.89
-39.4205
1540.89
1577.7
-36.8068
1577.7
1614.22
-36.5236
1626.52
-12.3033
1626.52
1645.53
-19.0053
1640.68
4.84277
1640.68
1642.73
-2.05022
1642.73
1653.93
-11.1922
1650.81
3.11241
1650.81
1657.57
-6.75661
1657.57
1671.45
-13.8741
1679.18
-7.73745
1679.18
1703.62
-24.4382
1729.64
-26.0217
1729.64
1774.37
-44.7283
1774.37
-71.2754
-912.922
-1222.82
-889.377
-1338.34
-866.257
-1437.57
-840.95
-1525.18
-818.412
-1604.38
-805.629
-1647.71
-813.369
-1630.68
-850.522
-1523.66
-914.027
-1327.95
-978.266
-1087.9
-997.543
-830.162
-946.771
-478.541
-877.063
7.75017
-841.432
408.022
-822.046
645.714
-805.266
844.67
-789.183
1057.96
-773.686
1281.02
-758.563
1505.78
-743.623
1726.92
-728.73
1940.19
-713.801
2142.78
-698.763
2332.41
-683.559
2507.1
-668.155
2665.41
-652.536
2806.32
-636.704
2929.24
-620.664
3033.96
-604.421
3120.57
-587.973
3189.25
-571.315
3240.2
-554.498
3273.72
-537.59
3290.71
-520.602
3292.42
-503.528
3279.74
-486.371
3253.78
-469.12
3215.88
-451.719
3167.31
-434.057
3108.23
-416.026
3037.42
-397.566
2952.85
-378.669
2852.65
-359.374
2735.58
-339.752
2602.04
-319.876
2454.3
-299.76
2295.89
-279.327
2129.37
-258.408
1954.04
-236.754
1764.92
-214.171
1555.04
-190.628
1323.19
-166.077
1076.97
-140.391
822.908
-107.967
544.708
-37.1859
9.52844
31.607
-405.811
67.9022
-620.857
95.2479
-673.204
115.357
-654.133
129.478
-571.309
137.34
-440.181
139.155
-269.148
127.112
-96.854
98.8336
42.0851
90.228
382.007
107.69
861.076
127.385
1145.64
143.53
1234.98
154.682
1199.2
161.134
1086.95
164.31
931.218
166.762
753.27
173.224
599.597
147.342
495.224
-20.7569
153.75
-188.193
-886.986
-147.22
-1191.77
-39.7656
-1118.97
-1179.56
-889.421
-1240.24
-861.07
-1366.69
-834.741
-1463.9
-808.242
-1551.68
-789.735
-1622.89
-789.359
-1648.09
-819.587
-1600.45
-884.087
-1459.16
-967.283
-1244.76
-1034.97
-1020.21
-1045.49
-819.646
-973.946
-550.085
-870.426
-95.7703
-820.162
357.759
-806.995
632.546
-795.58
833.256
-781.695
1044.07
-767.585
1266.91
-753.679
1491.88
-739.759
1713
-725.669
1926.1
-711.376
2128.49
-696.851
2317.88
-682.059
2492.31
-666.981
2650.33
-651.616
2790.96
-635.977
2913.6
-620.078
3018.06
-603.932
3104.42
-587.543
3172.86
-570.915
3223.58
-554.109
3256.91
-537.194
3273.8
-520.183
3275.41
-503.075
3262.64
-485.877
3236.58
-468.582
3198.58
-451.132
3149.86
-433.417
3090.51
-415.327
3019.33
-396.804
2934.32
-377.836
2833.68
-358.463
2716.21
-338.753
2582.33
-318.775
2434.33
-298.535
2275.65
-277.937
2108.77
-256.774
1932.88
-234.739
1742.88
-211.576
1531.88
-187.158
1298.77
-161.309
1051.12
-133.013
794.612
-85.8714
497.566
-3.72195
-72.621
65.3342
-474.867
99.4408
-654.963
127.498
-701.261
149.385
-676.02
166.38
-588.303
177.042
-450.843
180.879
-272.985
166.168
-82.1428
122.209
86.0438
97.5522
406.664
109.912
848.716
127.627
1127.93
142.402
1220.21
152.794
1188.81
158.917
1080.83
161.942
928.193
164.42
750.792
171.656
592.361
175.788
491.092
67.7237
261.814
-128.263
-690.999
-156.708
-1163.33
-71.6286
-1204.05
-1295.92
-870.135
-1259.75
-839.585
-1397.24
-812.714
-1490.77
-788.286
-1576.11
-777.021
-1634.15
-790.506
-1634.6
-838.913
-1552.04
-917.069
-1381.01
-999.995
-1161.83
-1056.15
-964.055
-1059.57
-816.223
-989.333
-620.321
-871.241
-213.862
-799.495
286.013
-784.286
617.336
-779.636
828.606
-770.472
1034.91
-758.766
1255.21
-746.528
1479.64
-734.064
1700.54
-721.207
1913.24
-707.907
2115.19
-694.176
2304.15
-680.024
2478.16
-665.458
2635.77
-650.497
2775.99
-635.169
2898.27
-619.499
3002.39
-603.514
3088.44
-587.227
3156.57
-570.656
3207.01
-553.875
3240.13
-536.955
3256.88
-519.916
3258.37
-502.761
3245.48
-485.505
3219.32
-468.143
3181.22
-450.618
3132.34
-432.819
3072.72
-414.638
3001.15
-396.02
2915.7
-376.951
2814.61
-357.47
2696.73
-337.643
2562.51
-317.532
2414.21
-297.128
2255.25
-276.308
2087.95
-254.815
1911.39
-232.281
1720.35
-208.382
1507.98
-182.865
1273.26
-155.333
1023.59
-123.483
762.762
-55.8918
429.975
23.4595
-151.972
84.394
-535.801
117.829
-688.399
146.059
-729.491
169.138
-699.099
187.914
-607.079
200.659
-463.589
205.21
-277.536
192.256
-69.1889
145.344
132.956
108.419
443.589
112.949
844.185
127.904
1112.97
140.78
1207.34
150.005
1179.58
155.532
1075.31
158.303
925.422
160.613
748.482
167.906
585.068
185.334
473.664
135.927
311.222
-38.1556
-516.917
-123.508
-1077.97
-73.5479
-1254.01
-1395.49
-846.356
-1281.52
-813.56
-1430.04
-787.105
-1517.22
-766.874
-1596.34
-766.437
-1634.59
-797.745
-1603.29
-865.73
-1484.05
-954.337
-1292.4
-1031.76
-1084.4
-1073.04
-922.778
-1067.98
-821.284
-1001.93
-686.373
-877.993
-337.797
-784.177
192.197
-759.234
592.393
-758.015
827.387
-754.887
1031.78
-747.27
1247.59
-737.467
1469.83
-726.822
1689.89
-715.548
1901.96
-703.589
2103.23
-690.946
2291.51
-677.667
2464.88
-663.803
2621.9
-649.397
2761.59
-634.498
2883.37
-619.15
2987.05
-603.392
3072.68
-587.251
3140.43
-570.767
3190.52
-554.026
3223.39
-537.105
3239.96
-520.031
3241.29
-502.817
3228.27
-485.484
3201.99
-468.032
3163.77
-450.405
3114.71
-432.493
3054.8
-414.192
2982.85
-395.448
2896.96
-376.251
2795.42
-356.637
2677.12
-336.671
2542.54
-316.402
2393.95
-295.804
2234.65
-274.718
2066.87
-252.834
1889.5
-229.72
1697.24
-204.976
1483.24
-178.203
1246.48
-148.713
994.1
-112.928
726.977
-29.4061
346.453
50.7654
-232.144
105.852
-590.888
138.838
-721.384
167.382
-758.035
192.133
-723.851
213.166
-628.111
228.351
-478.773
234.601
-283.787
221.87
-56.4577
171.83
182.997
123.397
492.022
117.008
850.575
127.853
1102.13
138.382
1196.81
146.073
1171.89
150.718
1070.66
153.037
923.104
154.688
746.831
161.075
578.682
183.154
451.584
180.342
314.034
57.5692
-394.144
-59.2628
-961.142
-61.1294
-1252.14
-1481.06
-819.875
-1304.98
-785.965
-1463.95
-762.034
-1541.15
-749.478
-1608.9
-764.246
-1619.82
-816.096
-1551.44
-900.873
-1399.28
-991.454
-1201.82
-1054.78
-1021.08
-1076.97
-900.592
-1062.35
-835.904
-1003.43
-745.291
-885.589
-455.636
-775.228
81.8356
-735.696
552.861
-732.83
824.521
-734.494
1033.45
-732.197
1245.29
-726.103
1463.74
-717.901
1681.69
-708.558
1892.62
-698.281
2092.95
-687.058
2280.28
-674.933
2452.76
-661.992
2608.96
-648.322
2747.92
-633.995
2869.04
-619.078
2972.13
-603.628
3057.23
-587.693
3124.5
-571.333
3174.16
-554.654
3206.71
-537.74
3223.04
-520.627
3224.18
-503.341
3210.98
-485.913
3184.56
-468.348
3146.2
-450.591
3096.95
-432.534
3036.75
-414.082
2964.4
-395.181
2878.06
-375.824
2776.06
-356.048
2657.34
-335.913
2522.4
-315.457
2373.49
-294.628
2213.82
-273.229
2045.47
-250.891
1867.17
-227.111
1673.46
-201.401
1457.53
-173.2
1218.28
-141.456
962.356
-101.158
686.678
-3.34883
248.645
78.1541
-313.647
125.924
-638.657
158.576
-754.037
187.852
-787.311
214.523
-750.522
237.985
-651.572
255.839
-496.627
264.294
-292.242
252.782
-44.9456
202.748
233.03
144.042
550.728
122.9
871.716
126.903
1098.12
134.403
1189.31
140.272
1166.02
143.818
1067.11
145.433
921.488
146.138
746.126
151.076
573.744
172.042
430.619
189.311
296.765
125.332
-330.166
21.3431
-857.153
-36.7541
-1194.04
-1525.55
-791.312
-1329.43
-757.79
-1497.47
-739.102
-1559.84
-738.278
-1609.72
-772.188
-1585.91
-844.721
-1478.91
-939.924
-1304.08
-1023.13
-1118.61
-1067.05
-977.16
-1070.45
-897.19
-1047.19
-859.16
-994.941
-797.544
-890.147
-560.43
-770.815
-37.4959
-715.4
497.446
-706.867
815.988
-710.365
1036.94
-713.054
1247.98
-711.789
1462.48
-707.01
1676.91
-700.094
1885.71
-691.817
2084.68
-682.331
2270.8
-671.664
2442.09
-659.903
2597.2
-647.171
2735.19
-633.578
2855.45
-619.22
2957.77
-604.176
3042.19
-588.518
3108.84
-572.334
3157.98
-555.748
3190.12
-538.857
3206.15
-521.71
3207.04
-504.347
3193.62
-486.81
3167.02
-469.111
3128.5
-451.199
3079.04
-432.97
3018.52
-414.335
2945.76
-395.246
2858.97
-375.7
2756.51
-355.732
2637.37
-335.399
2502.07
-314.725
2352.82
-293.632
2192.73
-271.877
2023.71
-249.028
1844.32
-224.508
1648.94
-197.728
1430.75
-167.955
1188.51
-133.681
928.082
-87.8349
640.832
20.3537
140.456
102.2
-395.493
144.712
-681.169
177.907
-787.232
208.466
-817.87
237.134
-779.19
263.12
-677.558
283.845
-517.352
294.995
-303.392
285.476
-35.4271
238.611
279.895
173.06
616.28
134.274
910.502
126.531
1105.87
129.146
1186.69
132.715
1162.45
135.042
1064.79
135.89
920.64
135.797
746.219
139.74
569.801
157.492
412.867
179.968
274.289
153.889
-304.087
86.0683
-789.332
9.24477
-1117.22
-1530.18
-761.756
-1353.78
-730.849
-1528.37
-720.922
-1569.77
-736.29
-1594.35
-791.912
-1530.29
-881.764
-1389.06
-978.152
-1207.69
-1045.49
-1051.28
-1067.89
-954.757
-1055.14
-909.937
-1025.23
-889.074
-978.495
-844.28
-888.481
-650.443
-767.219
-158.758
-697.856
428.083
-681.924
800.056
-684.351
1039.37
-690.205
1253.84
-693.948
1466.22
-693.606
1676.57
-689.894
1881.99
-684.035
2078.82
-676.591
2263.35
-667.685
2433.18
-657.388
2586.91
-645.83
2723.63
-633.158
2842.78
-619.506
2944.12
-604.983
3027.66
-589.689
3093.54
-573.745
3142.03
-557.295
3173.67
-540.453
3189.31
-523.284
3189.87
-505.844
3176.18
-488.19
3149.37
-470.342
3110.65
-452.252
3060.95
-433.825
3000.09
-414.978
2926.91
-395.671
2839.66
-375.904
2736.75
-355.715
2617.18
-335.154
2481.51
-314.233
2331.89
-292.841
2171.33
-270.69
2001.56
-247.279
1820.91
-221.952
1623.61
-194.008
1402.8
-162.526
1157.03
-125.347
890.902
-71.3478
586.834
41.7301
27.3781
121.853
-475.616
162.506
-721.822
196.869
-821.595
229.034
-850.035
259.673
-809.829
288.236
-706.121
312.063
-541.18
326.366
-317.694
319.798
-28.8599
278.784
320.909
212.649
682.415
157.984
965.167
133.346
1130.51
127.082
1192.95
126.707
1162.83
127.281
1064.21
127.342
920.579
126.959
746.602
130.952
565.809
146.699
397.12
171.649
249.339
161.168
-293.607
120.751
-748.914
40.3387
-1036.81
-1496.59
-732.708
-1376.57
-707.407
-1553.67
-710.419
-1566.76
-746.014
-1558.76
-823.111
-1453.19
-922.976
-1289.19
-1010.17
-1120.49
-1056
-1005.45
-1058.26
-952.499
-1033.64
-934.554
-999.679
-923.035
-957.443
-886.515
-880.699
-727.188
-762.035
-277.422
-681.617
347.665
-658.47
776.909
-658.184
1039.08
-664.857
1260.51
-672.572
1473.93
-677.13
1681.13
-677.514
1882.38
-674.702
2076.01
-669.67
2258.32
-662.824
2426.34
-654.283
2578.36
-644.164
2713.51
-632.632
2831.25
-619.858
2931.34
-605.99
3013.8
-591.167
3078.72
-575.541
3126.41
-559.282
3157.41
-542.524
3172.55
-525.353
3172.69
-507.844
3158.67
-490.07
3131.6
-472.06
3092.64
-453.773
3042.67
-435.124
2981.44
-416.038
2907.83
-396.484
2820.11
-376.466
2716.73
-356.025
2596.74
-335.208
2460.69
-314.008
2310.69
-292.285
2149.61
-269.697
1978.97
-245.674
1796.88
-219.476
1597.41
-190.277
1373.6
-156.935
1123.69
-116.272
850.239
-46.4895
517.052
66.9715
-86.0829
139.563
-548.208
179.976
-762.234
215.556
-857.176
249.387
-883.866
282.016
-842.457
313.237
-737.343
340.396
-568.339
358.273
-335.571
355.698
-26.2848
321.988
354.619
261.798
742.606
199.058
1027.91
157.139
1172.42
137.435
1212.66
129.74
1170.52
126.788
1067.16
125.398
921.969
124.869
747.131
129.312
561.366
144.676
381.756
172.14
221.875
164.682
-286.149
134.344
-718.576
65.9637
-968.427
-1427.52
-706.004
-1395.85
-690.151
-1569.53
-710.542
-1546.37
-768.756
-1500.54
-863.168
-1358.78
-962.774
-1189.59
-1031.81
-1051.45
-1054.48
-982.777
-1040.48
-966.505
-1008.49
-966.543
-972.815
-958.71
-934.327
-925.003
-868.945
-792.57
-755.544
-390.822
-665.54
257.662
-636.028
747.396
-632.814
1035.87
-638.535
1266.23
-648.399
1483.8
-657.381
1690.11
-662.463
1887.46
-663.468
2077.01
-661.365
2256.22
-656.912
2421.88
-650.418
2571.87
-642.019
2705.11
-631.874
2821.1
-620.178
2919.65
-607.124
3000.74
-592.894
3064.49
-577.681
3111.2
-561.684
3141.42
-545.058
3155.93
-527.913
3155.55
-510.35
3141.11
-492.459
3113.71
-474.28
3074.47
-455.782
3024.17
-436.889
2962.55
-417.54
2888.48
-397.711
2800.28
-377.415
2696.43
-356.693
2576.02
-335.589
2439.59
-314.081
2289.19
-291.994
2127.52
-268.931
1955.91
-244.249
1772.2
-217.118
1570.28
-186.579
1343.06
-151.237
1088.34
-106.509
805.51
-10.9693
421.512
94.896
-191.948
157.176
-610.488
197.618
-802.676
234.065
-893.622
269.335
-919.137
303.976
-877.098
337.995
-771.362
368.722
-599.066
390.588
-357.438
392.955
-28.6515
366.982
380.592
316.408
793.18
255.158
1089.16
202.481
1225.1
168.508
1246.63
150.059
1188.97
140.621
1076.6
135.884
926.706
134.102
748.912
137.941
557.527
152.289
367.408
179.861
194.303
170.909
-277.197
139.736
-687.403
82.7871
-911.478
-1355.92
-683.873
-1409.11
-682.063
-1571.34
-723.673
-1504.76
-803.777
-1420.44
-907.213
-1255.34
-995.509
-1101.29
-1040.96
-1006
-1042.63
-981.111
-1017.39
-991.745
-981.92
-1002.01
-946.218
-994.412
-910.704
-960.517
-854.722
-848.552
-748.633
-496.911
-649.411
158.439
-613.794
711.78
-608.238
1030.32
-612.402
1270.39
-622.645
1494.04
-634.747
1702.21
-644.439
1897.15
-649.905
2082.48
-651.39
2257.7
-649.768
2420.26
-645.629
2567.73
-639.231
2698.71
-630.738
2812.61
-620.351
2909.26
-608.295
2988.69
-594.804
3051
-580.117
3096.51
-564.466
3125.77
-548.031
3139.49
-530.954
3138.47
-513.362
3123.51
-495.364
3095.71
-477.014
3056.12
-458.294
3005.45
-439.141
2943.4
-419.507
2868.84
-399.378
2780.15
-378.776
2675.83
-357.746
2554.99
-336.328
2418.17
-314.482
2267.34
-291.998
2105.04
-268.424
1932.33
-243.037
1746.82
-214.913
1542.16
-182.953
1311.1
-145.478
1050.87
-96.4797
756.512
16.1352
308.897
117.646
-293.458
174.236
-667.078
215.01
-843.451
252.22
-930.832
288.765
-955.682
325.465
-913.798
362.438
-808.335
396.96
-633.588
423.22
-383.698
431.228
-36.6592
412.907
398.913
372.255
833.832
318.155
1143.26
263.39
1279.87
219.537
1290.48
189.837
1218.67
171.483
1094.96
160.843
937.346
155.524
754.231
156.534
556.517
167.356
356.585
191.119
170.541
179.353
-265.432
144.6
-652.65
86.2422
-853.119
-1271.73
-668.881
-1413.31
-686.041
-1554.18
-750.764
-1440.03
-847.783
-1323.42
-949.075
-1154.05
-1017.01
-1033.35
-1037.98
-985.026
-1023.33
-995.76
-991.727
-1023.35
-955.546
-1038.19
-920.672
-1029.29
-887.147
-994.042
-838.445
-897.254
-741.52
-593.836
-633.843
50.7624
-591.126
669.063
-583.842
1023.03
-586.903
1273.46
-596.501
1503.64
-610.129
1715.84
-623.576
1910.6
-633.676
2092.58
-639.381
2263.41
-641.151
2422.03
-639.748
2566.33
-635.642
2694.61
-629.073
2806.04
-620.243
2900.43
-609.399
2977.84
-596.817
3038.42
-582.789
3082.48
-567.583
3110.56
-551.416
3123.32
-534.458
3121.52
-516.87
3105.93
-498.783
3077.62
-480.269
3037.6
-461.321
2986.5
-441.895
2923.97
-421.957
2848.91
-401.507
2759.7
-380.574
2654.9
-359.21
2533.63
-337.451
2396.41
-315.24
2245.13
-292.329
2082.13
-268.206
1908.21
-242.067
1720.68
-212.888
1512.98
-179.428
1277.64
-139.615
1011.06
-85.2869
702.184
36.7012
186.909
136.525
-393.282
190.419
-720.972
231.693
-884.725
269.829
-968.967
307.672
-993.526
346.476
-952.602
386.523
-848.382
425.038
-672.103
456.065
-414.724
470.144
-50.7387
459.164
409.893
427.003
865.993
380.699
1189.56
328.845
1331.72
280.759
1338.57
242.459
1256.97
214.949
1122.47
196.698
955.598
185.632
765.297
181.62
560.529
186.637
351.569
203.622
153.556
188.417
-250.227
150.851
-615.083
95.9926
-798.261
-1170.9
-663.808
-1405.03
-704.248
-1513.74
-790.483
-1353.8
-895.194
-1218.71
-982.866
-1066.38
-1025.58
-990.638
-1025.15
-985.462
-999.746
-1021.16
-965.589
-1057.51
-930.238
-1073.55
-896.288
-1063.24
-863.563
-1026.77
-819.786
-941.031
-732.522
-681.1
-618.759
-63.0007
-567.558
617.862
-558.866
1014.34
-561.811
1276.4
-570.698
1512.53
-584.614
1729.75
-600.489
1926.47
-614.74
2106.83
-624.999
2273.67
-630.754
2427.79
-632.565
2568.14
-631.089
2693.13
-626.721
2801.67
-619.71
2893.42
-610.312
2968.44
-598.837
3026.94
-585.623
3069.27
-570.983
3095.92
-555.172
3107.51
-538.401
3104.74
-520.861
3088.39
-502.713
3059.47
-484.045
3018.93
-464.871
2967.33
-445.163
2904.26
-424.908
2828.65
-404.117
2738.91
-382.833
2633.61
-361.111
2511.9
-338.985
2374.29
-316.381
2222.53
-293.013
2058.76
-268.306
1883.5
-241.367
1693.74
-211.065
1482.68
-176.019
1242.6
-133.562
968.599
-71.2231
639.846
57.4021
58.284
154.471
-490.352
205.952
-772.453
247.659
-926.433
286.873
-1008.18
326.073
-1032.73
366.994
-993.523
410.196
-891.584
452.88
-714.787
488.997
-450.841
509.381
-71.1229
505.294
413.981
479.931
891.356
439.579
1229.91
391.196
1380.1
341.936
1387.83
298.103
1300.8
262.894
1157.67
236.907
981.584
219.087
783.117
208.925
570.691
207.261
353.233
216.385
144.432
197.222
-231.064
157.532
-575.393
108.041
-748.771
-1081.86
-671.267
-1381.01
-737.184
-1447.82
-838.793
-1252.19
-939.331
-1118.17
-1004.57
-1001.14
-1022.09
-973.117
-1005.68
-1001.88
-974.537
-1052.3
-940.229
-1091.82
-906.151
-1107.62
-872.637
-1096.75
-839.434
-1059.97
-798.171
-982.294
-719.214
-760.058
-602.163
-180.051
-542.662
558.361
-532.769
1004.45
-536.532
1280.16
-545.334
1521.33
-559.061
1743.48
-576.095
1943.51
-593.47
2124.2
-608.095
2288.29
-618.255
2437.95
-623.818
2573.7
-625.385
2694.7
-623.524
2799.81
-618.598
2888.5
-610.896
2960.74
-600.75
3016.8
-588.532
3057.05
-574.599
3081.99
-559.252
3092.17
-542.747
3088.24
-525.313
3070.95
-507.14
3041.3
-488.339
3000.13
-468.945
2947.93
-448.954
2884.27
-428.371
2808.07
-407.225
2717.77
-385.569
2611.96
-363.468
2489.8
-340.952
2351.77
-317.93
2199.5
-294.076
2034.91
-268.747
1858.18
-240.959
1665.95
-209.462
1451.18
-172.727
1205.86
-127.093
922.964
-49.5846
562.338
82.201
-73.5016
171.192
-579.343
221.172
-822.433
263.137
-968.398
303.339
-1048.38
343.908
-1073.29
386.966
-1036.58
433.402
-938.02
480.421
-761.805
521.9
-492.32
548.684
-97.9078
550.961
411.704
530.967
911.349
494.495
1266.39
448.168
1426.43
398.116
1437.88
350.391
1348.53
309.076
1198.99
276.2
1014.46
251.797
807.519
235.47
587.019
227.357
361.346
228.847
142.941
205.664
-207.881
163.849
-533.578
111.728
-696.65
-982.435
-693.015
-1339.13
-782.82
-1358.02
-889.407
-1145.6
-974.192
-1033.39
-1012.93
-962.397
-1009.23
-976.82
-982.738
-1028.37
-949.479
-1085.56
-916.053
-1125.24
-882.879
-1140.8
-848.978
-1130.65
-814.132
-1094.82
-773.254
-1023.17
-700.813
-832.499
-583.183
-297.681
-516.194
491.372
-505.222
993.474
-510.432
1285.37
-520.017
1530.91
-533.827
1757.29
-551.274
1960.95
-570.582
2143.51
-588.847
2306.56
-603.446
2452.55
-613.214
2583.47
-618.303
2699.79
-619.312
2800.82
-616.756
2885.94
-611.007
2954.99
-602.426
3008.22
-591.409
3046.03
-578.348
3068.93
-563.593
3077.41
-547.451
3072.1
-530.194
3053.7
-512.045
3023.15
-493.14
2981.23
-473.541
2928.33
-453.27
2864
-432.354
2787.15
-410.841
2696.25
-388.799
2589.91
-366.299
2467.3
-343.373
2328.84
-319.908
2176.04
-295.54
2010.54
-269.553
1832.19
-240.862
1637.26
-208.097
1418.41
-169.569
1167.33
-120.02
873.416
-15.1183
457.436
110.998
-199.618
186.275
-654.619
235.601
-871.759
278.009
-1010.8
319.133
-1089.51
361.089
-1115.25
406.33
-1081.82
456.095
-987.785
507.611
-813.321
554.682
-539.39
587.874
-131.1
595.97
403.608
580.182
927.138
545.995
1300.57
500.225
1472.2
448.715
1489.39
397.498
1399.75
351.052
1245.44
312.231
1053.28
281.913
837.837
259.938
608.994
246.024
375.26
240.606
148.358
213.686
-180.96
169.941
-489.834
123.577
-650.285
-895.381
-729.03
-1279.6
-836.293
-1250.75
-935.239
-1046.66
-996.048
-972.577
-1009.3
-949.142
-990.361
-995.761
-958.739
-1059.99
-925.378
-1118.92
-892.812
-1157.81
-859.703
-1173.91
-824.516
-1165.84
-787.146
-1132.18
-745.04
-1065.28
-677.282
-900.256
-561.188
-413.775
-487.393
417.577
-475.773
981.853
-482.951
1292.55
-494.149
1542.11
-508.76
1771.9
-526.571
1978.76
-546.901
2163.84
-567.771
2327.43
-586.358
2471.13
-600.518
2597.63
-609.581
2708.85
-613.882
2805.12
-614.019
2886.08
-610.494
2951.47
-603.727
3001.45
-594.134
3036.44
-582.134
3056.93
-568.122
3063.4
-552.458
3056.43
-535.464
3036.7
-517.399
3005.08
-498.43
2962.26
-478.65
2908.55
-458.108
2843.46
-436.86
2765.9
-414.973
2674.37
-392.532
2567.47
-369.619
2444.39
-346.263
2305.49
-322.334
2152.11
-297.424
1985.63
-270.742
1805.51
-241.095
1607.61
-206.992
1384.31
-166.574
1126.92
-112.62
819.462
13.891
330.926
133.368
-319.095
199.983
-721.234
249.048
-920.824
292.138
-1053.89
334.156
-1131.53
377.521
-1158.61
424.998
-1129.3
478.191
-1040.98
534.374
-869.504
587.25
-592.267
626.829
-170.678
640.247
390.19
627.679
939.706
594.564
1333.69
548.253
1518.51
494.612
1543.03
439.84
1454.52
388.717
1296.56
344.632
1097.37
309.048
873.422
282.004
636.037
262.94
394.324
251.388
159.911
221.031
-150.604
175.5
-444.303
122.643
-597.429
-809.545
-776.726
-1205.89
-890.63
-1136.85
-970.324
-966.962
-1004.15
-938.747
-996.674
-956.621
-968.512
-1023.92
-935.06
-1093.44
-902.246
-1151.73
-869.875
-1190.18
-835.856
-1207.93
-798.627
-1203.07
-758.25
-1172.56
-713.957
-1109.57
-649.274
-964.939
-535.608
-527.441
-454.724
336.693
-443.731
970.859
-453.623
1302.44
-467.172
1555.66
-483.403
1788.13
-502.068
1997.43
-523.07
2184.84
-545.58
2349.93
-567.324
2492.88
-585.658
2615.96
-598.975
2722.17
-606.999
2813.15
-610.206
2889.28
-609.202
2950.47
-604.507
2996.75
-596.574
3028.51
-585.844
3046.2
-572.748
3050.3
-557.7
3041.39
-541.072
3020.07
-523.165
2987.18
-504.185
2943.28
-484.255
2888.62
-463.462
2822.66
-441.887
2744.33
-419.625
2652.11
-396.777
2544.62
-373.438
2421.05
-349.636
2281.68
-325.224
2127.7
-299.747
1960.15
-272.333
1778.09
-241.671
1576.95
-206.164
1348.8
-163.661
1084.41
-104
759.8
34.1795
192.746
150.452
-435.368
213.013
-783.795
261.838
-969.65
305.502
-1097.56
348.305
-1174.33
393.057
-1203.37
442.805
-1179.05
499.52
-1097.69
560.562
-930.546
619.477
-651.183
665.47
-216.671
683.814
371.845
673.601
949.92
640.536
1366.75
592.86
1566.19
536.614
1599.28
478.182
1512.95
422.602
1352.14
373.682
1146.29
333.324
913.78
301.699
667.662
278.031
417.992
261.046
176.895
227.79
-117.348
180.861
-397.373
129.765
-546.333
-719.2
-830.868
-1124.65
-938.45
-1029.27
-991.373
-914.039
-1000.33
-929.787
-978.449
-978.506
-945.788
-1056.58
-912.146
-1127.08
-879.609
-1184.27
-846.523
-1223.27
-810.754
-1243.7
-771.028
-1242.79
-727.581
-1216.01
-680.784
-1156.37
-618.3
-1027.42
-508.43
-637.311
-418.917
247.18
-409.119
961.062
-422.276
1315.6
-438.739
1572.12
-457.225
1806.62
-477.452
2017.66
-499.354
2206.75
-522.942
2373.52
-546.915
2516.85
-568.808
2637.86
-586.345
2739.7
-598.427
2825.23
-605.107
2895.96
-606.964
2952.32
-604.616
2994.41
-598.587
3022.48
-589.349
3036.96
-577.366
3038.32
-563.094
3027.11
-546.954
3003.94
-529.297
2969.52
-510.369
2924.35
-490.334
2868.59
-469.315
2801.64
-447.429
2722.44
-424.795
2629.47
-401.537
2521.37
-377.763
2397.28
-353.502
2257.42
-328.59
2102.79
-302.522
1934.09
-274.338
1749.91
-242.6
1545.21
-205.624
1311.83
-160.682
1039.47
-91.9028
691.021
53.7251
47.1181
165.535
-547.177
225.253
-843.513
273.789
-1018.19
317.95
-1141.72
361.415
-1217.79
407.484
-1249.44
459.508
-1231.07
519.843
-1158.03
585.968
-996.671
651.19
-716.404
703.721
-269.202
726.762
348.804
718.141
958.541
684.178
1400.71
634.42
1615.95
575.206
1658.49
513.044
1575.11
453.146
1412.04
399.686
1199.75
354.918
958.548
319.121
703.459
291.305
445.808
269.574
198.626
233.928
-81.7013
186.117
-349.562
139.942
-500.159
-638.961
-884.553
-1044.5
-973.972
-939.848
-998.252
-889.758
-987.829
-940.211
-957.479
-1008.86
-923.258
-1090.81
-889.799
-1160.54
-856.82
-1217.25
-822.188
-1257.9
-784.146
-1281.74
-741.847
-1285.09
-695.657
-1262.2
-646.562
-1205.46
-585.893
-1088.09
-481.715
-741.489
-381.658
147.122
-372.178
951.582
-388.661
1332.08
-408.543
1592
-429.727
1827.8
-452.191
2040.12
-475.607
2230.16
-500.263
2398.18
-525.768
2542.36
-550.39
2662.48
-571.745
2761.06
-587.992
2841.47
-598.503
2906.47
-603.591
2957.41
-603.896
2994.71
-600.028
3018.61
-592.515
3029.45
-581.855
3027.66
-568.54
3013.8
-553.035
2988.43
-535.737