/*--------------------------------*- C++ -*----------------------------------*\
| =========                 |                                                 |
| \\      /  F ield         | OpenFOAM: The Open Source CFD Toolbox           |
|  \\    /   O peration     | Version:  4.1                                   |
|   \\  /    A nd           | Web:      www.OpenFOAM.org                      |
|    \\/     M anipulation  |                                                 |
\*---------------------------------------------------------------------------*/
FoamFile
{
    version     2.0;
    format      ascii;
    class       volVectorField;
    location    "30";
    object      U;
}
// * * * * * * * * * * * * * * * * * * * * * * * * * * * * * * * * * * * * * //

dimensions      [0 1 -1 0 0 0 0];

internalField   nonuniform List<vector> 
6785
(
(1.37219e-14 -2.34311 16.574)
(1.09871e-14 -7.91499 13.0364)
(-2.84083e-15 -5.11365 13.8386)
(4.21113e-15 -5.03694 13.3516)
(8.34422e-16 -4.22793 13.2163)
(-1.70289e-16 -3.7809 12.9278)
(2.46697e-15 -3.3327 12.6373)
(5.11549e-16 -3.00337 12.3038)
(-8.3084e-16 -2.76464 11.9576)
(1.21002e-15 -2.6529 11.6134)
(3.19733e-17 -2.64287 11.341)
(-1.66192e-16 -2.7501 11.1735)
(4.91321e-16 -3.32471 10.7427)
(-4.96603e-17 -3.50933 9.72228)
(2.31947e-17 -0.159886 7.60037)
(1.98292e-14 -10.3866 27.1769)
(1.26175e-14 -16.3933 23.3974)
(-2.66858e-15 -11.2756 23.7633)
(3.87387e-15 -12.1026 21.9243)
(7.0561e-16 -10.3899 21.0741)
(6.3386e-16 -9.79277 19.8397)
(1.44612e-15 -8.83327 18.7476)
(6.66789e-17 -8.08185 17.6013)
(-3.64362e-16 -7.33271 16.4939)
(1.41349e-16 -6.66741 15.3948)
(-2.38041e-16 -5.95025 14.1441)
(-6.14351e-16 -4.86805 12.1644)
(-1.07044e-15 -3.00486 8.44732)
(-5.85733e-16 -0.234565 2.66366)
(-7.17077e-16 1.57074 -2.41394)
(2.13117e-14 -12.8338 28.4621)
(1.14913e-14 -17.0499 24.9159)
(-2.09805e-15 -12.0069 24.9432)
(5.22941e-15 -13.397 22.2614)
(7.04535e-16 -11.1501 21.2886)
(1.30452e-15 -10.9011 19.4474)
(2.43734e-15 -9.78775 18.0839)
(-3.34988e-17 -9.1673 16.5631)
(1.69598e-16 -8.41166 15.1898)
(2.16861e-15 -7.76277 13.8033)
(8.94929e-17 -7.02688 12.263)
(-3.23623e-16 -5.84449 10.0583)
(1.85221e-15 -3.81546 6.07457)
(1.4539e-15 0.649153 -0.412039)
(-2.31847e-15 1.84519 -6.40032)
(2.17342e-14 -13.2552 27.5416)
(1.21166e-14 -16.8165 24.6246)
(-1.9634e-15 -12.1582 24.201)
(4.87784e-15 -13.7551 21.116)
(1.02254e-15 -11.2473 20.1919)
(1.52939e-15 -11.2438 17.9982)
(2.57411e-15 -10.0019 16.5631)
(2.47106e-16 -9.47668 14.9693)
(1.20049e-16 -8.8456 13.6824)
(1.32538e-15 -8.33887 12.3958)
(-2.20223e-16 -7.77194 10.9845)
(-8.73437e-16 -6.90886 9.36502)
(4.82781e-17 -5.75785 7.12858)
(-9.47709e-16 -3.404 4.12389)
(-2.51616e-15 -1.3601 0.32557)
(2.21143e-14 -13.376 26.8659)
(1.12498e-14 -16.1007 24.2237)
(-1.85856e-15 -11.9343 23.5714)
(4.13322e-15 -13.2086 20.4656)
(4.66642e-16 -10.4988 19.5669)
(1.51712e-15 -10.495 17.2199)
(1.17371e-15 -8.85454 15.8212)
(-4.37493e-16 -8.1024 13.8366)
(2.87036e-16 -7.00899 12.0759)
(9.03139e-16 -6.52455 10.5843)
(1.38676e-16 -6.31925 9.66297)
(6.52103e-16 -6.26987 9.06059)
(5.75908e-16 -6.1331 8.62541)
(-2.21823e-15 -5.50137 7.8136)
(-3.27653e-15 -3.91361 5.89593)
(2.25629e-14 -14.1747 27.5593)
(8.67762e-15 -15.6349 24.9139)
(-5.77901e-16 -12.3441 24.1929)
(2.77753e-15 -12.7665 21.6694)
(4.28524e-16 -10.505 20.7424)
(1.07205e-15 -10.1371 18.8982)
(-3.60965e-16 -8.35935 17.3471)
(2.20852e-16 -6.68586 14.3749)
(2.21454e-15 -4.209 10.6951)
(2.73994e-15 -2.33328 7.29189)
(1.0026e-15 -1.43777 5.51308)
(-1.58526e-15 -2.01452 5.82619)
(-3.42973e-15 -3.9158 8.08983)
(-4.03589e-15 -6.03001 10.5084)
(-2.49764e-15 -5.04483 9.7786)
(2.13987e-14 -15.3291 29.2962)
(6.95454e-15 -16.7369 26.9344)
(-1.48165e-15 -13.4967 25.9522)
(2.17056e-15 -13.9197 23.754)
(-6.53697e-16 -11.8768 22.8927)
(-1.05453e-15 -11.6986 21.2548)
(-9.92977e-16 -10.0895 19.8857)
(-1.56763e-15 -8.57589 16.9599)
(-4.67169e-16 -5.78592 13.0392)
(1.56164e-15 -3.09329 8.75162)
(-2.06667e-15 -0.505546 4.9513)
(-1.6149e-15 1.50888 1.59218)
(2.76765e-16 2.30169 -0.0999287)
(-4.34799e-15 1.11506 0.813962)
(-4.8654e-15 -0.727935 2.78478)
(2.08012e-14 -15.1114 28.1263)
(9.54649e-15 -18.3881 29.3413)
(-1.02195e-15 -14.6743 26.9592)
(1.58705e-15 -14.9642 24.4857)
(-4.52323e-16 -13.1843 23.4578)
(-9.01172e-16 -13.0902 21.7379)
(-7.60887e-16 -11.9235 20.4528)
(-1.38971e-15 -11.0461 18.3104)
(-1.13319e-15 -9.27995 15.5911)
(2.8038e-16 -7.22458 12.2577)
(-1.00849e-15 -4.74413 8.62931)
(3.98794e-16 -1.93258 4.45035)
(1.65685e-15 1.23799 -0.297596)
(3.77381e-15 3.80666 -4.07181)
(4.74919e-15 2.37839 -5.58896)
(1.89553e-14 -13.6082 24.5256)
(1.30039e-14 -18.5609 29.8235)
(1.60244e-15 -15.187 26.7118)
(1.03832e-15 -14.6854 23.5657)
(3.45435e-16 -13.184 22.0916)
(6.59861e-16 -12.8007 20.2551)
(2.12536e-16 -11.8836 18.7563)
(-1.24179e-16 -11.1634 16.9562)
(4.34586e-16 -10.1568 15.0002)
(2.26542e-16 -8.9446 12.7938)
(2.8867e-16 -7.51171 10.3511)
(1.68444e-15 -5.71516 7.67605)
(1.13198e-15 -3.73924 4.57361)
(1.68099e-15 -0.872201 1.31687)
(2.68647e-15 1.22769 -4.23358)
(1.81061e-14 -12.0737 21.3414)
(1.51802e-14 -17.7708 29.1356)
(3.64153e-15 -14.9786 26.0281)
(1.44767e-15 -13.8331 22.4468)
(9.53126e-16 -12.3762 20.6865)
(1.51161e-15 -11.7655 18.8346)
(1.49988e-15 -10.832 17.2704)
(1.03515e-15 -10.0406 15.5878)
(1.37936e-15 -9.17158 13.9235)
(1.29487e-15 -8.2306 12.2308)
(1.25804e-15 -7.22807 10.4375)
(1.71232e-15 -5.97563 8.52523)
(1.18029e-15 -4.62337 6.22922)
(2.21179e-15 -2.39223 3.34588)
(7.29667e-16 -0.0549001 -2.11572)
(1.72498e-14 -11.2317 19.8211)
(1.62767e-14 -17.0378 28.4515)
(4.9466e-15 -14.6891 25.5509)
(1.39272e-15 -13.2406 21.8768)
(1.28188e-15 -11.803 19.99)
(1.76556e-15 -11.1271 18.1992)
(1.71413e-15 -10.209 16.6982)
(1.55585e-15 -9.42815 15.1411)
(1.04329e-15 -8.61506 13.6618)
(7.31045e-16 -7.79933 12.23)
(1.1266e-15 -6.99579 10.7729)
(4.57664e-16 -6.03618 9.26837)
(-3.46956e-17 -5.03591 7.50161)
(-4.64155e-17 -3.39672 5.32469)
(-2.86875e-15 -0.942459 0.450305)
(1.68721e-14 -10.7728 18.987)
(1.77487e-14 -16.3337 27.6105)
(5.245e-15 -14.4711 24.9966)
(8.11232e-16 -12.8469 21.2476)
(1.80858e-15 -11.3894 19.1297)
(7.61728e-16 -10.6712 17.4054)
(2.79422e-17 -9.84757 16.0155)
(1.20652e-15 -9.14515 14.6168)
(4.13893e-16 -8.42503 13.2649)
(-1.13094e-15 -7.7106 11.9258)
(-1.01769e-15 -7.03458 10.6011)
(-1.89843e-15 -6.32618 9.41792)
(-1.82195e-15 -5.7033 8.31608)
(-2.96552e-15 -4.60548 7.14911)
(-5.74218e-15 -2.25537 2.8615)
(1.62762e-14 -11.1138 19.574)
(1.72349e-14 -15.3618 26.2516)
(3.70408e-15 -13.689 23.8186)
(-3.00761e-16 -12.4758 20.7674)
(2.76141e-15 -11.3118 18.9025)
(-8.36923e-16 -10.7556 17.2436)
(-3.19745e-15 -10.0881 15.8278)
(2.86912e-15 -9.52794 14.3485)
(1.44499e-15 -8.91127 12.8531)
(-1.91348e-15 -8.29266 11.4286)
(-1.52788e-15 -7.74418 10.3629)
(-3.14495e-15 -7.39183 9.96501)
(-4.05062e-15 -7.21886 10.1881)
(-4.38253e-15 -6.73935 10.2741)
(-9.09137e-15 -4.68934 7.38963)
(1.4501e-14 -11.2298 18.8847)
(1.66654e-14 -15.6116 25.9322)
(-3.05001e-16 -13.1164 22.1861)
(-3.59326e-15 -10.6854 17.8629)
(6.97622e-16 -8.7788 15.4067)
(-1.2349e-15 -7.57437 13.3988)
(2.12896e-15 -6.36958 11.7794)
(4.85528e-15 -5.52128 10.2696)
(7.54395e-16 -5.05579 9.46222)
(-1.74846e-15 -5.33689 9.67332)
(-3.22216e-15 -6.24405 10.9005)
(-5.0369e-15 -7.44342 12.5828)
(-5.78835e-15 -8.36628 14.1654)
(-7.55333e-15 -8.58433 14.6051)
(-1.02508e-14 -6.07468 10.8267)
(8.3539e-15 -8.81235 14.8627)
(1.45586e-14 -16.863 25.6922)
(8.1442e-15 -18.867 27.0169)
(2.52192e-15 -18.5774 25.2493)
(9.04252e-16 -17.3212 23.233)
(4.73984e-16 -15.864 20.8266)
(2.42843e-15 -13.7438 17.9819)
(4.03615e-15 -11.345 14.9714)
(4.00553e-15 -8.87335 11.9221)
(2.53087e-15 -6.56361 9.07272)
(-9.11526e-16 -4.85987 7.24765)
(-4.05005e-15 -4.77926 7.80138)
(-6.92862e-15 -6.13031 10.5797)
(-1.05889e-14 -7.14661 12.018)
(-1.03821e-14 -4.02197 7.42389)
(-1.33033e-15 68.2902 9.93383)
(-9.69401e-16 19.1106 0.970815)
(-5.9937e-16 -2.62618 -1.76458)
(-6.63093e-16 1.64383 -2.03598)
(-7.51961e-16 0.942182 -1.64343)
(-1.01571e-15 1.07888 -3.03393)
(-8.23093e-16 1.30029 -1.81652)
(-8.77262e-16 1.67559 -1.52661)
(-9.83866e-16 1.57621 -1.20939)
(-9.60037e-16 2.25868 -1.94947)
(-6.11187e-16 2.07381 -1.34793)
(-5.8376e-16 2.23461 -1.34428)
(-1.0284e-15 2.97993 -1.98838)
(-7.52414e-16 2.48669 -1.41803)
(-7.56937e-16 2.82713 -1.44839)
(-7.17559e-16 2.75483 -1.45184)
(-1.19535e-15 3.45783 -1.8137)
(-8.62406e-16 2.94709 -1.22525)
(-8.19819e-16 3.13404 -1.18896)
(-1.36034e-15 3.86726 -1.32663)
(-1.02574e-15 3.07966 -0.902708)
(-1.06042e-15 3.44088 -0.893742)
(-1.0341e-15 3.30076 -0.912628)
(-1.57095e-15 4.02509 -0.916344)
(-1.14884e-15 3.18239 -0.658967)
(-1.14701e-15 3.51804 -0.658223)
(-1.2076e-15 3.38692 -0.698908)
(-1.83108e-15 3.95706 -0.609661)
(-1.43611e-15 3.18683 -0.470726)
(-1.41767e-15 3.35588 -0.514172)
(-2.14644e-15 3.88543 -0.307581)
(-1.67264e-15 2.9631 -0.305773)
(-1.72809e-15 3.25435 -0.320918)
(-1.71758e-15 3.13796 -0.378176)
(-2.52286e-15 3.53358 -0.114552)
(-1.97064e-15 2.75954 -0.171755)
(-1.89807e-15 2.91126 -0.23218)
(-2.75588e-15 3.25437 0.118172)
(-2.06094e-15 2.41746 -0.0232066)
(-2.09502e-15 2.6392 -0.0324208)
(-2.03853e-15 2.54122 -0.0801034)
(-2.9472e-15 2.82378 0.322045)
(-2.09571e-15 2.11506 0.153356)
(-2.07961e-15 2.29531 0.151308)
(-1.97944e-15 2.20363 0.104268)
(-2.78334e-15 2.42602 0.540295)
(-2.13738e-15 1.92805 0.421363)
(-1.94818e-15 2.00511 0.344388)
(-2.63462e-15 2.14476 0.880684)
(-1.71766e-15 1.6397 0.611161)
(-1.67925e-15 1.72301 0.583577)
(-1.57462e-15 1.65784 0.500309)
(-2.06455e-15 1.64016 1.02381)
(-1.45953e-15 1.18227 0.598862)
(-1.46497e-15 1.22085 0.542882)
(-1.18519e-15 1.20479 0.485214)
(-1.48876e-15 1.05418 0.660076)
(-9.8426e-16 0.554821 0.044902)
(-1.21928e-15 0.587346 0.082474)
(-1.45566e-15 1.05921 -1.10029)
(-9.25928e-16 -1.03295 -1.54146)
(-7.6206e-16 -0.225205 -1.63028)
(-7.7697e-16 1.2899 -1.71905)
(6.68919e-16 0.0751843 -0.921407)
(-7.07439e-16 -1.16293 1.34842)
(-5.73489e-16 -0.761471 1.21666)
(-7.90041e-16 -1.85729 3.78958)
(-6.05589e-16 -2.40023 4.19796)
(-6.49513e-16 -2.69798 4.22298)
(-7.6421e-16 -2.6538 4.50393)
(-1.01487e-15 -4.35024 7.78067)
(-7.85255e-16 -4.61608 6.70064)
(-8.8536e-16 -5.26626 6.95257)
(-8.4669e-16 -5.15741 7.23299)
(-6.40245e-16 -7.73551 11.2529)
(-2.0079e-16 -7.68251 8.85097)
(-2.44924e-17 -7.81845 9.32717)
(7.45407e-16 -10.753 13.2795)
(9.02339e-16 -10.349 9.86072)
(1.00533e-15 -10.8148 10.4778)
(8.61831e-17 -11.499 12.6928)
(1.69542e-16 -11.3733 12.6336)
(2.02012e-16 -11.4711 13.0695)
(2.72623e-15 -13.1524 14.9808)
(1.15892e-15 -12.0626 13.4409)
(1.27009e-15 -12.3248 14.0363)
(1.2688e-15 -12.2269 14.1736)
(1.30108e-15 -12.2984 14.3303)
(1.27548e-15 -12.2882 14.5485)
(1.24598e-15 -12.3389 14.8029)
(1.41484e-15 -12.4034 14.989)
(1.71384e-15 -12.3745 15.1513)
(3.34329e-15 -13.4572 16.5915)
(2.10671e-15 -12.7214 15.402)
(2.16741e-15 -12.8512 15.7215)
(2.27209e-15 -12.8545 15.8944)
(2.79967e-15 -12.9064 15.7335)
(2.72383e-15 -12.9813 15.817)
(2.72052e-15 -13.0562 15.9594)
(2.61472e-15 -13.1787 16.1283)
(2.48482e-15 -13.1842 16.4158)
(3.68905e-15 -14.0807 18.279)
(3.36805e-15 -13.3441 16.9474)
(3.40727e-15 -13.5043 17.246)
(3.36572e-15 -13.541 17.4223)
(3.34323e-15 -13.6436 17.6853)
(3.50398e-15 -13.7056 18.013)
(3.78453e-15 -13.8343 18.2836)
(3.7222e-15 -13.8636 18.2279)
(3.6609e-15 -14.0063 18.1917)
(3.54921e-15 -14.015 18.1372)
(3.49292e-15 -14.1848 18.9447)
(3.60835e-15 -13.6656 18.4229)
(3.70237e-15 -13.7462 18.4829)
(3.80431e-15 -13.783 18.5447)
(3.94038e-15 -13.8728 18.6509)
(4.08781e-15 -13.883 18.804)
(4.25229e-15 -13.9947 19.2051)
(4.44318e-15 -14.0165 19.3114)
(4.58811e-15 -14.0969 19.3334)
(4.72361e-15 -13.1221 18.8182)
(4.83955e-15 -13.0623 19.3734)
(4.99527e-15 -13.0085 19.824)
(5.01227e-15 -13.0936 20.1663)
(5.19069e-15 -13.0376 20.0966)
(5.34122e-15 -13.0983 20.0184)
(5.47456e-15 -13.1044 19.7808)
(5.51181e-15 -13.032 19.4871)
(5.23239e-15 -13.2165 19.4079)
(5.83189e-15 -10.7096 15.907)
(5.45756e-15 -11.4623 17.6948)
(5.64253e-15 -11.3121 17.0475)
(5.81777e-15 -11.3422 16.7877)
(6.00261e-15 -11.2834 16.6616)
(6.18317e-15 -11.2396 16.4093)
(6.43732e-15 -11.1342 16.1673)
(6.72373e-15 -11.0367 15.9819)
(7.0271e-15 -11.0984 15.7313)
(8.10773e-15 -8.13556 12.2028)
(7.81274e-15 -9.08798 15.4414)
(7.90884e-15 -8.76455 14.903)
(7.82146e-15 -8.82252 14.5106)
(7.5813e-15 -8.66152 13.7665)
(7.24835e-15 -8.60064 12.8957)
(7.35417e-15 -8.4407 12.0516)
(6.41937e-15 -8.25802 10.8748)
(5.67953e-15 -7.98284 9.55737)
(4.93997e-15 -7.8212 8.20771)
(2.9813e-15 -4.2177 1.53426)
(4.4851e-15 -5.8288 6.46439)
(3.81431e-15 -5.24342 4.852)
(3.28666e-15 -5.33348 4.35237)
(2.73305e-15 -4.9454 3.49962)
(2.28156e-15 -4.8345 2.77494)
(1.63958e-15 -4.60426 1.54151)
(1.15104e-15 -4.25273 0.510129)
(1.39818e-15 -4.20281 0.80517)
(1.21705e-17 -2.69326 -2.39701)
(1.08512e-15 -3.19282 0.812733)
(9.5068e-16 -2.98647 0.0460232)
(-6.09643e-16 -1.8781 -3.00324)
(4.35113e-17 -3.3877 -2.1712)
(-1.06628e-16 -1.96946 -1.77179)
(-6.86126e-17 -1.90412 -1.16037)
(-1.09018e-16 -2.00548 -1.63256)
(-1.27899e-16 -1.40087 -0.941253)
(-2.21451e-16 -1.56191 -1.40694)
(-2.35257e-16 -1.24341 -0.92845)
(-2.24255e-16 -1.00761 -0.675446)
(-3.38511e-16 -1.06293 -0.999157)
(-3.1504e-16 -0.868998 -0.727427)
(-2.49797e-16 -0.693454 -0.541734)
(-3.27929e-16 -0.795412 -0.720153)
(-3.72646e-16 -0.506478 -0.435047)
(-6.67836e-16 -0.5824 -0.631889)
(-7.61499e-16 -0.428232 -0.465555)
(-7.75912e-16 -0.335572 -0.362024)
(-6.44511e-16 -0.378579 -0.46407)
(-8.44071e-18 -0.206656 -0.310268)
(-3.04607e-17 -0.22589 -0.500302)
(-2.42151e-17 -0.130705 -0.424489)
(-2.85736e-17 -0.0579728 -0.303821)
(1.99252e-17 -0.0356077 -0.396802)
(-2.922e-16 0.0110431 -0.520841)
(-3.26654e-16 0.114909 -0.36729)
(-2.95472e-16 0.143807 -0.509303)
(-1.66996e-16 0.219533 -0.384563)
(-4.35688e-16 0.272645 -0.465429)
(-5.10956e-16 0.362072 -0.555631)
(-3.09193e-16 0.379237 -0.365039)
(-3.3774e-16 0.528772 -0.510171)
(-2.60948e-16 0.508718 -0.361869)
(-2.77413e-16 0.610749 -0.434796)
(-4.72284e-16 0.712433 -0.489302)
(-4.02254e-16 0.694224 -0.303475)
(-4.09135e-16 0.821804 -0.389529)
(-5.88556e-16 0.997425 -0.425754)
(-4.37322e-16 0.847754 -0.260399)
(-5.75799e-16 1.19825 -0.391505)
(-4.39349e-16 1.03008 -0.246953)
(-5.42299e-16 1.17431 -0.341972)
(-5.38309e-16 1.44906 -0.371993)
(-3.65892e-16 1.19437 -0.212278)
(-6.11415e-16 1.67694 -0.29763)
(-4.96554e-16 1.36115 -0.165814)
(-5.91924e-16 1.57511 -0.223673)
(-7.67812e-16 1.78156 -0.21482)
(-5.79746e-16 1.54244 -0.0924743)
(-6.97403e-16 1.79707 -0.130637)
(-8.06666e-16 2.05926 -0.0991376)
(-5.51629e-16 1.62924 -0.0343929)
(-6.95044e-16 2.28191 -0.0565076)
(-4.95435e-16 1.78998 0.00687376)
(-5.81915e-16 2.0091 -0.0120228)
(-7.9335e-16 2.32301 0.0517606)
(-5.66591e-16 1.81235 0.0692215)
(-8.83781e-16 2.53526 0.10422)
(-7.49617e-16 1.94107 0.130996)
(-1.0065e-15 2.2119 0.153455)
(-1.42694e-15 2.40462 0.26045)
(-1.12982e-15 1.98369 0.220393)
(-1.55421e-15 2.31265 0.252886)
(-1.96841e-15 2.52036 0.339304)
(-1.40655e-15 1.92066 0.213849)
(-2.03531e-15 2.68632 0.232076)
(-1.56097e-15 2.0195 0.141517)
(-1.92461e-15 2.28608 0.0989316)
(-2.36765e-15 2.50787 0.041187)
(-1.58767e-15 1.92362 -0.0424887)
(-2.13767e-15 2.71988 -0.17183)
(-1.54519e-15 2.03179 -0.187286)
(-1.87404e-15 2.38662 -0.311808)
(-2.08732e-15 2.45144 -0.436166)
(-1.39254e-15 2.02134 -0.351066)
(-1.67829e-15 2.47411 -0.491833)
(-1.9108e-15 2.56093 -0.621488)
(-1.21107e-15 1.98656 -0.466472)
(-1.54736e-15 2.88703 -0.726724)
(-1.00781e-15 2.1725 -0.542906)
(-1.08652e-15 2.64235 -0.852687)
(1.06514e-14 1.61344 6.17653)
(1.25749e-14 1.75614 5.99679)
(1.38993e-14 1.88888 5.86094)
(1.52634e-14 2.00326 5.68935)
(1.61797e-14 2.11259 5.52328)
(1.59682e-14 2.1827 5.38891)
(1.34624e-14 2.18543 5.3528)
(7.27287e-15 2.07864 5.49207)
(-3.1503e-15 1.84914 5.84806)
(-1.60846e-14 1.52923 6.33883)
(-2.75164e-14 1.13117 6.70532)
(-3.33703e-14 0.575578 6.59595)
(-3.30044e-14 -0.0992142 6.02141)
(-3.11123e-14 -0.573129 5.67987)
(-2.9765e-14 -0.870457 5.5372)
(-2.85768e-14 -1.13189 5.42352)
(-2.74243e-14 -1.41361 5.3137)
(-2.62868e-14 -1.70914 5.20877)
(-2.51512e-14 -2.00786 5.10705)
(-2.40097e-14 -2.30253 5.00711)
(-2.28572e-14 -2.58728 4.90783)
(-2.1692e-14 -2.8582 4.80856)
(-2.05128e-14 -3.11216 4.70877)
(-1.93196e-14 -3.34648 4.60805)
(-1.81133e-14 -3.55912 4.50606)
(-1.68959e-14 -3.74869 4.40266)
(-1.56705e-14 -3.91432 4.2978)
(-1.4441e-14 -4.05571 4.19157)
(-1.32108e-14 -4.17294 4.08393)
(-1.19849e-14 -4.26625 3.975)
(-1.07672e-14 -4.33589 3.86463)
(-9.56408e-15 -4.38216 3.7529)
(-8.38443e-15 -4.40627 3.64041)
(-7.23202e-15 -4.40991 3.52745)
(-6.10509e-15 -4.39431 3.41391)
(-4.99953e-15 -4.3609 3.2998)
(-3.90616e-15 -4.31151 3.18515)
(-2.80857e-15 -4.24791 3.06979)
(-1.6816e-15 -4.17035 2.95314)
(-4.94534e-16 -4.07726 2.8343)
(7.81576e-16 -3.96589 2.71271)
(2.16838e-15 -3.83372 2.58817)
(3.67436e-15 -3.67905 2.46074)
(5.2855e-15 -3.50236 2.3309)
(6.95959e-15 -3.30669 2.19913)
(8.62542e-15 -3.09676 2.06588)
(1.01888e-14 -2.87614 1.93092)
(1.15401e-14 -2.64399 1.79344)
(1.25697e-14 -2.39382 1.65199)
(1.31846e-14 -2.11627 1.50471)
(1.33233e-14 -1.80944 1.35089)
(1.2975e-14 -1.48325 1.19079)
(1.21853e-14 -1.14603 1.02346)
(1.10329e-14 -0.783382 0.849437)
(9.53766e-15 -0.135922 0.587015)
(7.95357e-15 0.465312 -0.0829714)
(7.21148e-15 0.786408 -0.347227)
(6.4419e-15 0.865658 -0.556913)
(5.64521e-15 0.848201 -0.71352)
(4.85242e-15 0.74435 -0.824464)
(4.11498e-15 0.576302 -0.901932)
(3.44786e-15 0.354315 -0.929066)
(2.99263e-15 0.140073 -0.926293)
(2.30684e-15 -0.0277611 -0.76899)
(4.69387e-16 -0.502164 -0.552312)
(8.79499e-17 -1.16142 -0.647338)
(3.18512e-17 -1.53813 -0.787713)
(-5.00984e-18 -1.65199 -0.911077)
(-2.88435e-17 -1.59901 -1.0029)
(-3.81441e-17 -1.44516 -1.05974)
(-3.80304e-17 -1.23505 -1.08885)
(-3.48383e-17 -0.998036 -1.102)
(-3.30729e-17 -0.799286 -1.12131)
(-3.13943e-17 -0.627729 -1.18875)
(-6.01533e-17 -0.00949385 -0.7891)
(-3.39933e-16 1.3978 1.0836)
(-6.4059e-16 1.54744 1.4229)
(-7.67668e-16 1.36973 0.540083)
(-9.35773e-16 1.44009 -0.0293685)
(1.23944e-14 1.6448 6.04391)
(1.47098e-14 1.808 5.81778)
(1.60018e-14 1.93973 5.66179)
(1.71901e-14 2.05821 5.46846)
(1.75072e-14 2.16007 5.30798)
(1.59768e-14 2.2067 5.22182)
(1.10909e-14 2.16189 5.303)
(1.62821e-15 1.9891 5.62499)
(-1.16035e-14 1.70313 6.16295)
(-2.48412e-14 1.38489 6.73411)
(-3.3633e-14 1.08764 7.06602)
(-3.60214e-14 0.690862 6.87414)
(-3.32988e-14 0.0586046 6.10134)
(-3.0187e-14 -0.526238 5.5188)
(-2.89366e-14 -0.863552 5.41107)
(-2.80422e-14 -1.12953 5.34979)
(-2.70468e-14 -1.41628 5.25877)
(-2.59783e-14 -1.71567 5.16379)
(-2.48847e-14 -2.0162 5.07072)
(-2.37768e-14 -2.31112 4.9783)
(-2.26512e-14 -2.59493 4.88505)
(-2.15066e-14 -2.86414 4.79048)
(-2.03435e-14 -3.11573 4.69446)
(-1.91635e-14 -3.34714 4.5968)
(-1.79681e-14 -3.55653 4.49724)
(-1.67601e-14 -3.74259 4.39576)
(-1.55428e-14 -3.9046 4.29238)
(-1.43206e-14 -4.04233 4.18725)
(-1.3097e-14 -4.1559 4.08041)
(-1.18771e-14 -4.24559 3.97199)
(-1.0665e-14 -4.31169 3.86189)
(-9.46766e-15 -4.35464 3.7503)
(-8.29356e-15 -4.37568 3.63782)
(-7.14613e-15 -4.37642 3.52476)
(-6.02352e-15 -4.35807 3.41102)
(-4.92143e-15 -4.32209 3.29666)
(-3.83033e-15 -4.27027 3.18172)
(-2.73331e-15 -4.20428 3.06606)
(-1.6048e-15 -4.12423 2.94906)
(-4.14139e-16 -4.02849 2.82985)
(8.67268e-16 -3.91436 2.70786)
(2.26045e-15 -3.77936 2.58287)
(3.77276e-15 -3.62186 2.45495)
(5.38862e-15 -3.4424 2.32456)
(7.06405e-15 -3.24405 2.19216)
(8.72622e-15 -3.03145 2.05818)
(1.02796e-14 -2.80796 1.92229)
(1.16141e-14 -2.57253 1.78352)
(1.26205e-14 -2.31837 1.64008)
(1.3207e-14 -2.03624 1.4897)
(1.33139e-14 -1.72468 1.33126)
(1.2933e-14 -1.39396 1.1641)
(1.21111e-14 -1.05284 0.985857)
(1.09178e-14 -0.668232 0.792109)
(9.3538e-15 0.125987 0.363116)
(8.24977e-15 0.598292 -0.32747)
(7.55398e-15 0.861457 -0.553721)
(6.79582e-15 0.923342 -0.769471)
(6.02223e-15 0.891698 -0.93164)
(5.28351e-15 0.776481 -1.05982)
(4.60221e-15 0.596338 -1.15856)
(3.97144e-15 0.363805 -1.20134)
(3.54202e-15 0.120198 -1.21027)
(2.81304e-15 -0.0821093 -1.00848)
(7.14151e-16 -0.518428 -0.626609)
(9.50661e-17 -1.14382 -0.667153)
(2.91988e-17 -1.52629 -0.795356)
(-3.52756e-18 -1.64926 -0.907245)
(-2.7657e-17 -1.60472 -0.992118)
(-3.78332e-17 -1.45729 -1.04574)
(-3.82841e-17 -1.25074 -1.07356)
(-3.52435e-17 -1.01271 -1.08571)
(-3.32881e-17 -0.802896 -1.10865)
(-3.18962e-17 -0.675946 -1.1757)
(-2.99362e-17 -0.340837 -1.19897)
(-2.14598e-16 1.00893 0.342552)
(-6.33527e-16 1.61181 1.34764)
(-8.90111e-16 1.58278 0.743215)
(-1.09831e-15 1.68153 0.198052)
(1.35774e-14 1.66425 5.92859)
(1.58893e-14 1.83929 5.67713)
(1.70121e-14 1.96699 5.51529)
(1.78785e-14 2.08304 5.32147)
(1.75119e-14 2.17109 5.18886)
(1.47164e-14 2.19099 5.17144)
(7.94828e-15 2.1069 5.36869)
(-3.32444e-15 1.89955 5.81698)
(-1.68686e-14 1.60961 6.41061)
(-2.81818e-14 1.32707 6.92245)
(-3.40583e-14 1.09327 7.16015)
(-3.46977e-14 0.77921 6.96864)
(-3.21465e-14 0.200593 6.21147)
(-2.9248e-14 -0.428677 5.41905)
(-2.7922e-14 -0.83073 5.23562)
(-2.72002e-14 -1.10192 5.22234)
(-2.64603e-14 -1.38009 5.17385)
(-2.55497e-14 -1.67674 5.09907)
(-2.45297e-14 -1.97712 5.01789)
(-2.34663e-14 -2.27228 4.93578)
(-2.23772e-14 -2.55656 4.85162)
(-2.12626e-14 -2.82652 4.76441)
(-2.01231e-14 -3.07909 4.67425)
(-1.89616e-14 -3.31166 4.58132)
(-1.77815e-14 -3.5223 4.48557)
(-1.65864e-14 -3.70972 4.38712)
(-1.53805e-14 -3.87313 4.2861)
(-1.41682e-14 -4.0123 4.18275)
(-1.29535e-14 -4.12732 4.07719)
(-1.17417e-14 -4.21842 3.96963)
(-1.05373e-14 -4.28589 3.86003)
(-9.34752e-15 -4.33022 3.7487)
(-8.18067e-15 -4.35266 3.63629)
(-7.03972e-15 -4.35473 3.52311)
(-5.92269e-15 -4.33761 3.40911)
(-4.82507e-15 -4.30279 3.29439)
(-3.73689e-15 -4.25204 3.17903)
(-2.64063e-15 -4.18694 3.0629)
(-1.5103e-15 -4.10759 2.94537)
(-3.15316e-16 -4.01238 2.82557)
(9.7241e-16 -3.89869 2.70296)
(2.3731e-15 -3.76415 2.57732)
(3.89267e-15 -3.6072 2.44871)
(5.51363e-15 -3.42842 2.31756)
(7.18985e-15 -3.23086 2.18435)
(8.84664e-15 -3.01907 2.04941)
(1.0387e-14 -2.79626 1.9123)
(1.17004e-14 -2.56126 1.77179)
(1.26784e-14 -2.30722 1.62569)
(1.32309e-14 -2.02495 1.47131)
(1.33011e-14 -1.71308 1.30704)
(1.28841e-14 -1.38161 1.13108)
(1.20291e-14 -1.03733 0.938738)
(1.08023e-14 -0.622466 0.712646)
(9.2512e-15 0.190468 0.0811496)
(8.46682e-15 0.671294 -0.453707)
(7.7224e-15 0.8919 -0.677087)
(6.95921e-15 0.950991 -0.89105)
(6.19984e-15 0.914172 -1.058)
(5.48738e-15 0.794761 -1.1967)
(4.83506e-15 0.607745 -1.30876)
(4.22909e-15 0.365542 -1.36565)
(3.8083e-15 0.0997235 -1.37046)
(3.1248e-15 -0.145667 -1.19849)
(1.01255e-15 -0.562615 -0.741984)
(1.20928e-16 -1.12428 -0.697846)
(2.42484e-17 -1.49146 -0.804785)
(-2.04622e-18 -1.61654 -0.901637)
(-2.58015e-17 -1.57768 -0.9762)
(-3.72096e-17 -1.43665 -1.02458)
(-3.8522e-17 -1.23523 -1.04969)
(-3.57728e-17 -0.998853 -1.06107)
(-3.35177e-17 -0.783968 -1.08275)
(-3.28082e-17 -0.647923 -1.15108)
(-2.08953e-17 -0.385178 -1.34382)
(-6.8739e-17 0.811039 -0.425027)
(-3.08908e-16 1.50353 0.910171)
(-5.76511e-16 1.64333 0.735815)
(-8.8744e-16 1.78724 0.269822)
(1.48713e-14 1.69431 5.78463)
(1.71387e-14 1.88537 5.50485)
(1.80345e-14 2.00702 5.34018)
(1.84466e-14 2.11832 5.15521)
(1.71401e-14 2.18504 5.06958)
(1.27061e-14 2.16661 5.14959)
(3.79239e-15 2.03138 5.48711)
(-9.03131e-15 1.78414 6.05619)
(-2.2105e-14 1.49152 6.66836)
(-3.08631e-14 1.24771 7.08834)
(-3.36604e-14 1.08539 7.21935)
(-3.23627e-14 0.873777 7.0214)
(-2.98725e-14 0.370658 6.32888)
(-2.805e-14 -0.327181 5.38711)
(-2.70253e-14 -0.812099 5.06684)
(-2.6272e-14 -1.10335 5.05592)
(-2.56835e-14 -1.37467 5.0524)
(-2.4993e-14 -1.66539 5.0127)
(-2.41131e-14 -1.96355 4.951)
(-2.31162e-14 -2.25768 4.88183)
(-2.2068e-14 -2.54091 4.80897)
(-2.0988e-14 -2.80982 4.73159)
(-1.98774e-14 -3.0615 4.64948)
(-1.87389e-14 -3.29333 4.563)
(-1.75772e-14 -3.50334 4.47245)
(-1.63976e-14 -3.69022 4.37814)
(-1.52049e-14 -3.85321 4.28039)
(-1.40042e-14 -3.99204 4.17951)
(-1.27999e-14 -4.10678 4.07576)
(-1.15974e-14 -4.19765 3.96942)
(-1.04018e-14 -4.26494 3.86057)
(-9.22056e-15 -4.30919 3.74964)
(-8.06178e-15 -4.33164 3.63736)
(-6.92798e-15 -4.33376 3.52405)
(-5.8171e-15 -4.3167 3.40972)
(-4.72438e-15 -4.28194 3.29453)
(-3.63938e-15 -4.23124 3.17861)
(-2.54399e-15 -4.16612 3.06184)
(-1.41182e-15 -4.08661 2.94359)
(-2.1248e-16 -3.99109 2.82301)
(1.08159e-15 -3.87704 2.69958)
(2.48968e-15 -3.74212 2.57309)
(4.01619e-15 -3.58485 2.44361)
(5.64161e-15 -3.40583 2.31157)
(7.3177e-15 -3.20809 2.17738)
(8.96789e-15 -2.9961 2.04131)
(1.04938e-14 -2.77292 1.90273)
(1.17849e-14 -2.53719 1.76014)
(1.27336e-14 -2.28191 1.61092)
(1.3252e-14 -1.99796 1.45193)
(1.32864e-14 -1.68396 1.28098)
(1.28362e-14 -1.34961 1.09499)
(1.1953e-14 -0.998614 0.887171)
(1.07135e-14 -0.534141 0.616997)
(9.34366e-15 0.256473 -0.154659)
(8.65395e-15 0.757164 -0.593895)
(7.90081e-15 0.942829 -0.819052)
(7.14297e-15 0.993207 -1.02926)
(6.40704e-15 0.949256 -1.2043)
(5.72518e-15 0.823651 -1.35693)
(5.10489e-15 0.628246 -1.48518)
(4.52475e-15 0.37443 -1.55814)
(4.13169e-15 0.0844086 -1.56991)
(3.39867e-15 -0.20935 -1.39504)
(1.331e-15 -0.620504 -0.89727)
(1.74196e-16 -1.12508 -0.742761)
(1.6907e-17 -1.47359 -0.813572)
(-2.6573e-18 -1.60007 -0.892277)
(-2.40316e-17 -1.56518 -0.953777)
(-3.64168e-17 -1.42849 -0.99473)
(-3.8719e-17 -1.2305 -1.01546)
(-3.63561e-17 -0.995147 -1.02515)
(-3.37768e-17 -0.774283 -1.03967)
(-3.38598e-17 -0.614831 -1.10426)
(-2.44371e-17 -0.426855 -1.35437)
(-1.79693e-17 0.569721 -1.0102)
(-4.94471e-17 1.36799 0.217336)
(-2.24204e-16 1.69758 0.570102)
(-6.61895e-16 1.93173 0.232945)
(1.60923e-14 1.72354 5.61914)
(1.81783e-14 1.9286 5.31758)
(1.87426e-14 2.03957 5.15937)
(1.85064e-14 2.13933 5.00175)
(1.5967e-14 2.17468 4.99111)
(9.62202e-15 2.10961 5.19887)
(-1.2729e-15 1.9266 5.68255)
(-1.46747e-14 1.66203 6.32931)
(-2.59651e-14 1.39892 6.89009)
(-3.15312e-14 1.21099 7.17346)
(-3.14853e-14 1.10318 7.18649)
(-2.85852e-14 0.956986 6.97917)
(-2.61139e-14 0.532501 6.3941)
(-2.5984e-14 -0.193335 5.41349)
(-2.61449e-14 -0.76852 4.92983)
(-2.54729e-14 -1.10307 4.87677)
(-2.48289e-14 -1.37606 4.8963)
(-2.42851e-14 -1.66071 4.89691)
(-2.36002e-14 -1.95501 4.86584)
(-2.27231e-14 -2.2476 4.81546)
(-2.17326e-14 -2.52987 4.75637)
(-2.06895e-14 -2.79769 4.69098)
(-1.96109e-14 -3.04817 4.61927)
(-1.84995e-14 -3.2788 4.54133)
(-1.73598e-14 -3.48766 4.45763)
(-1.61981e-14 -3.67344 4.3688)
(-1.50206e-14 -3.83538 4.27537)
(-1.3833e-14 -3.97321 4.1778)
(-1.26403e-14 -4.08701 4.0765)
(-1.14482e-14 -4.17699 3.97182)
(-1.02622e-14 -4.24346 3.86404)
(-9.09041e-15 -4.28702 3.75372)
(-7.94035e-15 -4.30891 3.64166)
(-6.81422e-15 -4.31051 3.52822)
(-5.7099e-15 -4.29297 3.4135)
(-4.62237e-15 -4.25779 3.29775)
(-3.54073e-15 -4.20668 3.18113)
(-2.44629e-15 -4.14109 3.06355)
(-1.31235e-15 -4.06097 2.94437)
(-1.08757e-16 -3.96472 2.8228)
(1.19144e-15 -3.84985 2.69833)
(2.60657e-15 -3.71411 2.57078)
(4.13941e-15 -3.55605 2.44023)
(5.76849e-15 -3.37632 2.30709)
(7.44346e-15 -3.17793 2.17175)
(9.08603e-15 -2.96524 2.03434)
(1.05968e-14 -2.74111 1.89403)
(1.18649e-14 -2.50397 1.74899)
(1.27845e-14 -2.24662 1.59616)
(1.32697e-14 -1.95998 1.43191)
(1.32705e-14 -1.64265 1.25332)
(1.27905e-14 -1.30382 1.0559)
(1.18846e-14 -0.942397 0.831274)
(1.0653e-14 -0.407405 0.503642)
(9.51206e-15 0.351923 -0.38234)
(8.81442e-15 0.820736 -0.726306)
(8.05871e-15 0.982886 -0.951432)
(7.30545e-15 1.02948 -1.16054)
(6.59196e-15 0.981972 -1.346)
(5.9369e-15 0.852161 -1.51376)
(5.34438e-15 0.649292 -1.6592)
(4.78975e-15 0.38318 -1.75037)
(4.42471e-15 0.0668106 -1.77378)
(3.66288e-15 -0.277786 -1.60333)
(1.68214e-15 -0.692266 -1.10079)
(2.76339e-16 -1.14316 -0.814939)
(1.10416e-17 -1.4646 -0.819707)
(-7.96219e-18 -1.59017 -0.873435)
(-2.40673e-17 -1.55852 -0.919746)
(-3.61697e-17 -1.42529 -0.951582)
(-3.9209e-17 -1.22991 -0.966713)
(-3.71976e-17 -0.995353 -0.972594)
(-3.44984e-17 -0.768124 -0.978336)
(-3.51601e-17 -0.587373 -1.03201)
(-3.2373e-17 -0.417126 -1.27615)
(-2.34106e-17 0.466935 -1.21352)
(3.2744e-17 1.19765 -0.477687)
(2.66002e-17 1.6425 0.187462)
(-4.40018e-16 2.01702 0.326855)
(1.71967e-14 1.7563 5.43538)
(1.89864e-14 1.97491 5.12034)
(1.91037e-14 2.06987 4.98106)
(1.79934e-14 2.1507 4.8742)
(1.39188e-14 2.1445 4.96936)
(5.53747e-15 2.02731 5.32653)
(-6.8043e-15 1.80469 5.93659)
(-1.95693e-14 1.54295 6.59594)
(-2.80901e-14 1.32456 7.04584)
(-3.04563e-14 1.19159 7.18133)
(-2.82148e-14 1.12657 7.09167)
(-2.42058e-14 1.0304 6.87181)
(-2.14923e-14 0.682411 6.39075)
(-2.26621e-14 -0.036846 5.46828)
(-2.48809e-14 -0.702569 4.82609)
(-2.48205e-14 -1.0957 4.70672)
(-2.40725e-14 -1.37973 4.72073)
(-2.34905e-14 -1.66041 4.75084)
(-2.29584e-14 -1.94885 4.7567)
(-2.22536e-14 -2.23762 4.73374)
(-2.13638e-14 -2.51794 4.69285)
(-2.03701e-14 -2.7844 4.64165)
(-1.93249e-14 -3.03352 4.5824)
(-1.82433e-14 -3.26283 4.51516)
(-1.7129e-14 -3.4705 4.44019)
(-1.59881e-14 -3.65523 4.35835)
(-1.48278e-14 -3.81623 4.27045)
(-1.36549e-14 -3.95322 4.17715)
(-1.24752e-14 -4.06627 4.07903)
(-1.12945e-14 -4.15557 3.97659)
(-1.01192e-14 -4.22145 3.87027)
(-8.95759e-15 -4.26458 3.76083)
(-7.81685e-15 -4.28614 3.64913)
(-6.69888e-15 -4.28747 3.53563)
(-5.6015e-15 -4.26971 3.42052)
(-4.51944e-15 -4.23434 3.30413)
(-3.44132e-15 -4.18305 3.18671)
(-2.34792e-15 -4.11722 3.06816)
(-1.2123e-15 -4.0367 2.94788)
(-4.58135e-18 -3.93992 2.82511)
(1.3015e-15 -3.82447 2.6994)
(2.72323e-15 -3.68813 2.57059)
(4.26179e-15 -3.52952 2.43877)
(5.89369e-15 -3.34933 2.30434)
(7.5666e-15 -3.15051 2.16765)
(9.20065e-15 -2.93731 2.02868)
(1.06954e-14 -2.71238 1.88639)
(1.19405e-14 -2.47391 1.73859)
(1.28312e-14 -2.21452 1.58171)
(1.32843e-14 -1.92512 1.41163)
(1.32536e-14 -1.60418 1.2246)
(1.27471e-14 -1.2601 1.01449)
(1.18235e-14 -0.884956 0.771504)
(1.06142e-14 -0.262401 0.371655)
(9.68575e-15 0.458816 -0.567978)
(8.95291e-15 0.88201 -0.848698)
(8.20185e-15 1.02794 -1.07805)
(7.45891e-15 1.0702 -1.29231)
(6.76641e-15 1.0196 -1.48902)
(6.1356e-15 0.885619 -1.67226)
(5.56758e-15 0.675381 -1.83578)
(5.03717e-15 0.396549 -1.94703)
(4.69595e-15 0.0533347 -1.98675)