/*--------------------------------*- C++ -*----------------------------------*\
| =========                 |                                                 |
| \\      /  F ield         | OpenFOAM: The Open Source CFD Toolbox           |
|  \\    /   O peration     | Version:  4.1                                   |
|   \\  /    A nd           | Web:      www.OpenFOAM.org                      |
|    \\/     M anipulation  |                                                 |
\*---------------------------------------------------------------------------*/
FoamFile
{
    version     2.0;
    format      ascii;
    class       surfaceScalarField;
    location    "29";
    object      phi;
}
// * * * * * * * * * * * * * * * * * * * * * * * * * * * * * * * * * * * * * //

dimensions      [0 3 -1 0 0 0 0];

internalField   nonuniform List<scalar> 
13220
(
-1.26849e+63
1.23998e+63
-2.03506e+63
7.46979e+62
-2.60446e+63
5.54528e+62
-3.02458e+63
4.06816e+62
-3.34714e+63
3.10786e+62
-3.60205e+63
2.44371e+62
-3.73779e+63
1.25754e+62
-3.68894e+63
-5.81228e+61
-3.38856e+63
-3.0999e+62
-2.85523e+63
-5.45076e+62
-2.1265e+63
-7.40186e+62
-1.33641e+63
-8.15469e+62
-5.92111e+62
-7.7279e+62
2.0169e+62
-8.23135e+62
2.01835e+62
1.56907e+62
1.06313e+63
1.28726e+62
7.53056e+62
5.53528e+61
6.08402e+62
-7.85065e+61
5.21456e+62
-2.69028e+62
4.86811e+62
-5.24466e+62
4.84327e+62
-8.36725e+62
4.26322e+62
-1.19412e+63
2.8916e+62
-1.62937e+63
1.18053e+62
-2.1748e+63
-2.08865e+60
-2.8271e+63
-9.17831e+61
-3.14038e+63
-4.96675e+62
-2.60671e+63
-1.30199e+63
-1.5696e+63
-1.85437e+63
-1.36798e+63
2.0924e+62
8.55964e+62
3.11061e+62
6.50136e+62
4.25974e+62
4.95149e+62
5.24652e+62
4.18641e+62
6.16417e+62
3.9085e+62
7.09672e+62
3.83393e+62
7.6546e+62
3.63524e+62
7.26107e+62
3.16445e+62
5.66879e+62
2.62618e+62
3.06981e+62
2.31613e+62
-6.98132e+60
2.05565e+62
-5.33845e+62
-3.32031e+60
-1.39296e+63
-4.59548e+62
-1.33621e+63
-1.92543e+63
-2.70398e+63
2.70879e+62
6.11748e+62
3.66799e+62
5.72036e+62
4.45171e+62
4.37784e+62
5.28193e+62
3.49812e+62
6.30641e+62
3.07975e+62
7.37503e+62
2.87176e+62
8.42695e+62
2.71803e+62
9.12986e+62
2.55145e+62
9.50108e+62
2.3887e+62
9.73387e+62
2.24027e+62
9.54545e+62
2.32956e+62
8.09459e+62
1.80396e+62
9.19781e+61
2.86863e+62
-3.76583e+62
-1.43899e+63
-3.08037e+63
2.05286e+62
4.87798e+62
2.78102e+62
5.53801e+62
3.11864e+62
4.6532e+62
3.28894e+62
3.8504e+62
3.57536e+62
3.38673e+62
3.82077e+62
3.13807e+62
4.09941e+62
3.02209e+62
4.18303e+62
2.98535e+62
4.11682e+62
2.99551e+62
3.85616e+62
2.99267e+62
3.56279e+62
3.22107e+62
1.95334e+62
3.78695e+62
1.50752e+62
3.67749e+62
-2.58084e+61
-1.24233e+63
-3.10569e+63
1.37355e+62
5.00416e+62
1.87552e+62
6.00005e+62
2.14804e+62
5.46532e+62
2.09776e+62
4.82368e+62
2.19904e+62
4.40487e+62
2.10635e+62
4.18399e+62
2.11626e+62
4.13209e+62
1.87985e+62
4.17945e+62
1.72392e+62
4.25975e+62
1.35371e+62
4.31968e+62
5.09666e+61
4.83518e+62
-5.60683e+61
5.99627e+62
1.18337e+62
2.77379e+62
-3.09299e+61
-1.04429e+63
-3.13624e+63
1.61706e+62
5.58593e+62
2.24521e+62
6.80125e+62
2.70893e+62
6.49845e+62
2.79852e+62
5.99161e+62
3.02183e+62
5.58859e+62
3.03734e+62
5.3458e+62
3.15181e+62
5.27913e+62
3.06354e+62
5.32949e+62
2.91911e+62
5.42702e+62
2.53819e+62
5.5569e+62
1.77841e+62
6.33402e+62
1.08898e+62
7.42704e+62
1.74201e+62
2.78724e+62
-5.95454e+61
-7.7247e+62
-3.19536e+63
2.21382e+62
6.14453e+62
3.09316e+62
7.68177e+62
3.97992e+62
7.55194e+62
4.17396e+62
7.17522e+62
4.55518e+62
6.81446e+62
4.50148e+62
6.54318e+62
4.62767e+62
6.43776e+62
4.42875e+62
6.46487e+62
4.3737e+62
6.58443e+62
4.01567e+62
6.76876e+62
3.46921e+62
7.67701e+62
3.26779e+62
8.62334e+62
2.19947e+62
4.71532e+62
-6.59582e+61
-4.41711e+62
-3.26043e+63
2.18202e+62
7.20071e+62
3.03263e+62
8.99428e+62
3.71648e+62
8.90607e+62
4.07566e+62
8.58381e+62
4.52734e+62
8.25237e+62
4.63979e+62
7.98837e+62
4.74099e+62
7.902e+62
4.58959e+62
7.98892e+62
4.344e+62
8.19717e+62
3.95824e+62
8.55933e+62
2.97955e+62
9.5747e+62
3.52908e+62
1.03631e+63
1.3322e+62
8.82035e+62
-6.4759e+61
-1.45003e+62
-3.3251e+63
1.17167e+62
9.79967e+62
1.73117e+62
1.10144e+63
2.66006e+62
1.08713e+63
2.67986e+62
1.06642e+63
2.74688e+62
1.05714e+63
1.98021e+62
1.05321e+63
1.29303e+62
1.05501e+63
-1.51192e+60
1.05727e+63
-1.06852e+62
1.06058e+63
-2.40866e+62
1.06209e+63
-2.50953e+62
1.06968e+63
-2.03962e+62
9.88512e+62
2.11832e+61
6.78818e+62
1.04449e+61
-1.20865e+62
-3.31363e+63
-5.02557e+61
1.26096e+63
-2.85349e+62
1.42719e+63
-5.90768e+62
1.49563e+63
-1.01336e+63
1.52068e+63
-1.39048e+63
1.48825e+63
-1.75666e+63
1.4183e+63
-2.01619e+63
1.32592e+63
-2.20455e+63
1.22017e+63
-2.26797e+63
1.09909e+63
-2.13488e+63
9.55435e+62
-2.01235e+63
8.1982e+62
-1.1887e+63
4.99392e+62
-1.69237e+62
-1.23307e+62
2.51146e+62
-4.20757e+62
-3.06653e+63
-1.57627e+63
2.90555e+63
-3.06548e+63
2.86135e+63
-4.44324e+63
2.9179e+63
-5.21805e+63
2.21101e+63
-5.27864e+63
1.52379e+63
-4.97681e+63
9.96647e+62
-4.31611e+63
5.62965e+62
-3.44505e+63
1.95431e+62
-2.37379e+63
-1.22749e+62
-1.30529e+63
-4.17084e+62
1.28137e+62
-7.43559e+62
8.02643e+62
-8.2609e+62
9.1651e+62
-7.28345e+62
7.34634e+62
-6.36917e+62
-2.32387e+63
-2.71702e+63
5.16191e+63
-2.51847e+63
2.0113e+63
-7.33956e+61
-4.93832e+61
3.4708e+63
-1.7572e+63
7.11252e+63
-2.30032e+63
1.04232e+64
-2.4977e+63
1.33578e+64
-2.44393e+63
1.567e+64
-2.2023e+63
1.7272e+64
-1.76826e+63
1.80213e+64
-1.13899e+63
1.7465e+64
-2.82918e+62
1.6118e+64
8.35461e+62
1.34084e+64
2.22376e+63
8.81552e+63
4.25267e+63
6.4726e+63
1.12703e+64
-6.4787e+63
2.09635e+64
-7.97207e+63
2.68691e+64
-6.13385e+63
3.0426e+64
-5.52824e+63
3.28717e+64
-4.92295e+63
3.4567e+64
-4.39257e+63
3.55549e+64
-3.61599e+63
3.60202e+64
-2.87002e+63
3.57927e+64
-1.71351e+63
3.49221e+64
-5.62106e+62
3.33985e+64
1.1147e+63
3.03275e+64
3.2787e+63
2.53304e+64
6.54784e+63
1.55504e+64
1.32287e+64
2.20101e+64
-4.04173e+64
-5.6362e+64
-6.83086e+64
-7.48832e+64
-8.11706e+64
-8.41666e+64
-8.68961e+64
-8.7228e+64
-8.57893e+64
-8.33894e+64
-7.7256e+64
-7.02908e+64
-5.8233e+64
-4.11052e+64
-3.06422e+62
-1.57617e+65
1.57207e+65
-1.57787e+65
-1.57976e+65
-1.58032e+65
-5.53521e+64
-1.02702e+65
-5.53564e+64
-5.53801e+64
-5.53725e+64
4.16351e+64
-9.70216e+64
4.16382e+64
4.16242e+64
1.36074e+65
-9.44428e+64
1.36062e+65
1.36065e+65
1.36052e+65
2.2375e+65
-8.76949e+64
2.2374e+65
2.23746e+65
3.02211e+65
-7.8477e+64
3.02215e+65
3.02201e+65
3.02206e+65
3.71386e+65
-6.91928e+64
3.71386e+65
3.71373e+65
3.71377e+65
4.31483e+65
-6.01167e+64
4.31481e+65
4.3147e+65
4.81973e+65
-5.05017e+64
4.81959e+65
4.8196e+65
4.81946e+65
5.25281e+65
-4.33333e+64
5.25267e+65
5.2527e+65
5.60678e+65
-3.54214e+64
5.60679e+65
5.60665e+65
5.60669e+65
5.90737e+65
-3.00825e+64
5.90741e+65
5.90723e+65
5.90732e+65
6.16073e+65
-2.53593e+64
6.16077e+65
6.16056e+65
6.35904e+65
-1.98376e+64
6.3588e+65
6.35887e+65
6.35864e+65
6.52577e+65
-1.6702e+64
6.52547e+65
6.52557e+65
6.52523e+65
6.66481e+65
-1.39468e+64
6.66448e+65
6.66462e+65
6.76695e+65
-1.02695e+64
6.76699e+65
6.76659e+65
6.76673e+65
6.85548e+65
-8.919e+63
6.85542e+65
6.85495e+65
6.91787e+65
-6.27834e+63
6.91731e+65
6.91736e+65
6.91683e+65
6.97591e+65
-5.88713e+63
6.97526e+65
6.97541e+65
6.97468e+65
7.03142e+65
-5.63346e+63
7.0306e+65
7.03153e+65
7.08692e+65
-5.60316e+63
7.08801e+65
7.08774e+65
7.0648e+65
7.00242e+65
6.95494e+65
6.83062e+65
8.67946e+63
6.80587e+65
6.79286e+65
6.78368e+65
6.77525e+65
6.76807e+65
6.76207e+65
6.75719e+65
6.74877e+65
6.64491e+65
9.4415e+63
6.63033e+65
6.61872e+65
6.60946e+65
6.60065e+65
6.59322e+65
6.58665e+65
6.58149e+65
6.57503e+65
6.44285e+65
1.23875e+64
6.42994e+65
6.41937e+65
6.41071e+65
6.40329e+65
6.39663e+65
6.39088e+65
6.38577e+65
6.38188e+65
6.37686e+65
6.21929e+65
1.51182e+64
6.20918e+65
6.20135e+65
6.19519e+65
6.19039e+65
6.18614e+65
6.18277e+65
6.18021e+65
6.17689e+65
5.99334e+65
1.78931e+64
5.98546e+65
5.9796e+65
5.97582e+65
5.97297e+65
5.97138e+65
5.97029e+65
5.97035e+65
5.9697e+65
5.76309e+65
2.04525e+64
5.75759e+65
5.75403e+65
5.75239e+65
5.7523e+65
5.75379e+65
5.75593e+65
5.75931e+65
5.76163e+65
5.53584e+65
2.2711e+64
5.53397e+65
5.53467e+65
5.53716e+65
5.54095e+65
5.546e+65
5.55456e+65
5.56518e+65
5.57724e+65
5.58853e+65
5.36015e+65
2.37763e+64
5.3661e+65
5.37626e+65
5.38981e+65
5.40568e+65
5.42548e+65
5.45679e+65
5.51701e+65
5.58118e+65
5.452e+65
1.92611e+64
5.50975e+65
5.58275e+65
5.58244e+65
5.43094e+65
1.52043e+64
5.24375e+65
1.86381e+64
5.24381e+65
5.07981e+65
1.63171e+64
5.07977e+65
4.93865e+65
1.40324e+64
4.76741e+65
1.71123e+64
4.76674e+65
4.62005e+65
1.46294e+64
4.44296e+65
1.76446e+64
4.44268e+65
4.28765e+65
1.54484e+64
4.28737e+65
4.22978e+65
5.70452e+63
4.19484e+65
3.46691e+63
4.19444e+65
4.17622e+65
1.79179e+63
4.17588e+65
4.1592e+65
1.62868e+63
4.08683e+65
7.2086e+63
4.08659e+65
4.05168e+65
3.46005e+63
4.02141e+65
3.00128e+63
4.02121e+65
4.14101e+65
-1.20043e+64
4.14084e+65
4.47184e+65
-3.31253e+64
5.2212e+65
-7.49463e+64
5.22102e+65
6.43965e+65
-1.21867e+65
6.43949e+65
7.37372e+65
-9.34272e+64
8.04201e+65
-6.68474e+64
8.04204e+65
8.42752e+65
-3.85649e+64
8.63491e+65
-2.07316e+64
8.63482e+65
8.59049e+65
4.44219e+63
8.59038e+65
8.24211e+65
3.48411e+64
7.68605e+65
5.55918e+64
7.68615e+65
6.77038e+65
9.15621e+64
6.77051e+65
5.49198e+65
1.27841e+65
3.96685e+65
1.52522e+65
3.96683e+65
1.97537e+65
1.99159e+65
-2.20441e+64
2.196e+65
-2.1982e+64
-2.85868e+65
2.63867e+65
-2.85847e+65
-6.22629e+65
3.36774e+65
-1.0238e+66
4.01191e+65
-1.0238e+66
-1.48236e+66
4.58577e+65
-1.48236e+66
-2.00944e+66
5.2709e+65
-2.55947e+66
5.50023e+65
-2.55945e+66
-3.17941e+66
6.19963e+65
-3.79871e+66
6.19311e+65
-3.79871e+66
-4.47077e+66
6.72077e+65
-4.47077e+66
-5.20231e+66
7.31547e+65
-5.89831e+66
6.96006e+65
-5.89831e+66
-6.65086e+66
7.52561e+65
-6.65086e+66
-7.46843e+66
8.17581e+65
-8.21973e+66
7.51303e+65
-8.21972e+66
-9.06951e+66
8.49794e+65
-9.82983e+66
7.60331e+65
-9.82983e+66
-1.06734e+67
8.43577e+65
-1.06734e+67
1.04046e+66
-8.12987e+63
-7.0981e+63
-8.14965e+63
-1.66383e+64
-8.45021e+63
-2.06705e+64
-9.34171e+63
-2.97181e+64
-1.02164e+64
-2.89639e+64
-1.01062e+64
-2.62647e+64
-9.99464e+63
-2.47157e+64
-9.91553e+63
-1.94571e+64
-9.44771e+63
-9.47551e+63
-8.79908e+63
-2.17355e+63
-7.88864e+63
1.18183e+64
-6.68636e+63
2.45639e+64
-3.05965e+63
5.32333e+64
-4.65354e+63
6.96108e+64
-4.44103e+63
3.57808e+64
-5.91104e+63
3.11344e+64
-5.20271e+63
3.22037e+64
2.59113e+63
1.43223e+65
-3.61906e+63
2.71144e+64
-3.59268e+63
3.84207e+64
-3.83112e+63
2.77785e+64
-3.04781e+63
4.10292e+64
-2.45805e+63
4.91918e+64
-1.34745e+63
4.04826e+64
1.46301e+63
4.18166e+64
-4.98498e+63
-3.84666e+64
-2.36761e+63
2.21084e+64
2.83833e+63
-7.37825e+63
-1.40143e+62
-1.5259e+65
-2.07236e+63
-5.38736e+64
-5.08086e+62
-2.37979e+64
6.68174e+62
1.72828e+64
-1.22627e+63
-4.62254e+64
-3.05437e+63
-3.67392e+64
-4.03503e+63
-1.89727e+64
1.42961e+63
2.9945e+64
-2.82405e+63
3.90867e+64
4.85933e+63
7.39428e+64
-3.42309e+62
1.33509e+64
1.45773e+63
-1.03783e+63
4.08488e+62
1.22932e+64
1.98816e+63
8.41012e+63
2.73714e+63
8.07342e+63
2.14768e+63
5.5441e+63
2.2462e+63
1.49625e+64
1.815e+63
1.66045e+64
1.51989e+63
9.40193e+63
-7.51705e+62
9.7972e+63
2.89941e+63
3.82616e+64
1.03187e+63
1.58524e+64
8.16575e+62
1.83373e+64
3.96766e+62
3.01702e+64
4.111e+62
1.7928e+64
5.14525e+62
1.0564e+64
9.66917e+62
1.09627e+64
1.01909e+63
5.02518e+63
2.58758e+62
5.7667e+63
1.34943e+62
1.43009e+64
1.12233e+62
2.03745e+64
1.01486e+62
2.48404e+64
9.95928e+61
2.85006e+64
1.08396e+62
3.17962e+64
1.30392e+62
3.51882e+64
1.67938e+62
3.90707e+64
2.22453e+62
4.39726e+64
2.95407e+62
5.03885e+64
3.8638e+62
5.89188e+64
4.93245e+62
7.01342e+64
5.99064e+62
8.45884e+64
6.68335e+62
1.02768e+65
5.36336e+62
1.23952e+65
-1.13773e+62
1.4693e+65
-2.64631e+63
1.53916e+65
-1.10347e+64
1.18266e+65
-3.51254e+64
1.94706e+65
-1.06196e+65
6.91949e+65
-2.96151e+65
2.09593e+66
-6.7022e+65
5.08162e+66
9.79512e+66
-9.84975e+63
-8.41851e+63
-9.60065e+63
-1.68874e+64
-9.1004e+63
-2.11707e+64
-9.78347e+63
-2.9035e+64
-1.06222e+64
-2.81251e+64
-1.03579e+64
-2.65289e+64
-1.01664e+64
-2.49072e+64
-1.01239e+64
-1.94996e+64
-9.62217e+63
-9.97724e+63
-9.05126e+63
-2.74446e+63
-8.14095e+63
1.0908e+64
-6.74919e+63
2.31721e+64
1.54729e+63
4.49368e+64
2.27815e+63
6.88799e+64
-3.61524e+63
4.16742e+64
-8.19025e+63
3.57094e+64
-6.114e+63
3.01275e+64
4.69789e+63
1.32411e+65
-1.67552e+63
3.34878e+64
-1.68966e+63
3.84348e+64
-3.16101e+63
2.92499e+64
-8.70896e+63
4.65772e+64
-4.22661e+63
4.47094e+64
-2.21061e+63
3.84667e+64
2.02023e+63
3.75857e+64
-5.47919e+63
-3.09672e+64
-9.61497e+62
1.75907e+64
4.60706e+63
-1.29467e+64
-3.28404e+63
-1.44699e+65
-5.52702e+63
-5.16305e+64
-1.52815e+63
-2.77965e+64
1.63006e+63
1.41247e+64
-1.3053e+63
-4.329e+64
-3.65892e+63
-3.43856e+64
-4.18314e+63
-1.84484e+64
2.74194e+63
2.302e+64
-3.37137e+63
4.52004e+64
8.17727e+63
6.23945e+64
-1.09447e+63
2.26235e+64
-1.07765e+63
-1.05449e+63
-1.48007e+63
1.26958e+64
4.49458e+62
6.48185e+63
2.19374e+63
6.33123e+63
2.53291e+63
5.20913e+63
2.86104e+63
1.46371e+64
2.32705e+63
1.71408e+64
2.85266e+63
8.87699e+63
-8.67342e+62
1.35202e+64
2.89293e+63
3.45034e+64
1.63117e+63
1.7116e+64
6.86121e+62
1.92841e+64
8.37851e+62
3.0021e+64
-4.22635e+62
1.91895e+64
-7.96048e+62
1.09404e+64
2.30811e+62
9.93862e+63
3.47667e+62
4.91343e+63
3.54459e+62
5.76629e+63
4.23755e+62
1.4239e+64
4.55411e+62
2.03482e+64
4.41046e+62
2.48608e+64
3.80926e+62
2.85663e+64
3.21935e+62
3.18616e+64
2.96159e+62
3.52186e+64
3.19678e+62
3.90529e+64
3.91758e+62
4.39052e+64
5.08975e+62
5.02768e+64
6.6451e+62
5.87671e+64
8.5191e+62
6.99511e+64
1.05012e+63
8.43916e+64
1.1944e+63
1.02626e+65
1.10089e+63
1.24045e+65
1.91046e+62
1.4784e+65
-3.05683e+63
1.57161e+65
-1.16573e+64
1.26863e+65
-3.36463e+64
2.16692e+65
-1.02659e+65
7.60963e+65
-3.03522e+65
2.2968e+66
-6.84788e+65
5.46289e+66
9.95391e+66
-1.08163e+64
-9.44594e+63
-1.05051e+64
-1.71985e+64
-9.88157e+63
-2.17943e+64
-1.04524e+64
-2.84642e+64
-1.08502e+64
-2.77273e+64
-1.06017e+64
-2.67774e+64
-1.03754e+64
-2.51336e+64
-1.02016e+64
-1.96733e+64
-9.66271e+63
-1.05161e+64
-9.11852e+63
-3.28865e+63
-8.21076e+63
1.00003e+64
-6.92015e+63
2.18815e+64
-1.86733e+63
3.9884e+64
1.59868e+63
6.54139e+64
-2.25529e+63
4.55282e+64
-6.52356e+63
3.99777e+64
-6.6349e+63
3.02388e+64
3.04137e+63
1.22735e+65
-1.28601e+63
3.78152e+64
-9.13841e+62
3.80626e+64
-2.80118e+63
3.11372e+64
-8.08611e+63
5.18621e+64
-4.37883e+63
4.10021e+64
-2.75203e+63
3.68399e+64
7.94828e+62
3.40389e+64
-5.169e+63
-2.50034e+64
-2.77786e+62
1.26995e+64
3.39421e+63
-1.66187e+64
-4.58467e+63
-1.3672e+65
-4.95014e+63
-5.12651e+64
-2.11313e+63
-3.06335e+64
1.14805e+63
1.08636e+64
-9.02896e+62
-4.12391e+64
-3.29487e+63
-3.19936e+64
-3.77083e+63
-1.79725e+64
1.71315e+63
1.7536e+64
-1.81377e+63
4.87273e+64
6.78604e+63
5.37947e+64
2.26685e+62
2.9183e+64
-1.34371e+63
5.15969e+62
-1.23005e+63
1.25822e+64
5.31887e+62
4.71971e+63
2.09483e+63
4.76912e+63
2.39764e+63
4.90831e+63
2.75136e+63
1.42848e+64
2.07239e+63
1.78207e+64
2.79921e+63
8.15073e+63
-6.93391e+62
1.70131e+64
2.85836e+63
3.09497e+64
1.81624e+63
1.81591e+64
9.61313e+62
2.01402e+64
1.04397e+63
2.99405e+64
-3.54287e+62
2.05894e+64
-7.50996e+62
1.13407e+64
-7.69951e+61
9.27111e+63
-7.80669e+61
4.92331e+63
1.63756e+62
5.53556e+63
3.83878e+62
1.40285e+64
4.73997e+62
2.02655e+64
4.84296e+62
2.48583e+64
4.37736e+62
2.862e+64
3.86198e+62
3.19213e+64
3.67061e+62
3.52448e+64
4.00914e+62
3.90276e+64
4.90025e+62
4.38236e+64
6.3255e+62
5.01429e+64
8.22211e+62
5.85846e+64
1.05213e+63
6.97295e+64
1.29814e+63
8.41517e+64
1.48808e+63
1.02444e+65
1.40621e+63
1.24133e+65
4.58007e+62
1.48797e+65
-2.84743e+63
1.60472e+65
-1.09176e+64
1.34946e+65
-3.07866e+64
2.36571e+65
-1.04862e+65
8.35044e+65
-3.27028e+65
2.51897e+66
-7.03493e+65
5.83936e+66
1.00108e+67
-1.13443e+64
-1.02613e+64
-1.09432e+64
-1.75997e+64
-1.03435e+64
-2.23939e+64
-1.09208e+64
-2.7887e+64
-1.10742e+64
-2.75739e+64
-1.08216e+64
-2.70301e+64
-1.05527e+64
-2.54025e+64
-1.03777e+64
-1.98484e+64
-9.83331e+63
-1.10605e+64
-9.32219e+63
-3.79977e+63
-8.38465e+63
9.06271e+63
-7.17418e+63
2.0671e+64
-4.06323e+63
3.6773e+64
2.21167e+61
6.13286e+64
-1.44692e+63
4.69973e+64
-5.50612e+63
4.40369e+64
-6.94254e+63
3.16752e+64
1.64448e+63
1.14148e+65
-9.37578e+62
4.03972e+64
-4.79922e+62
3.7605e+64
-2.84302e+63
3.35003e+64
-7.30011e+63
5.63192e+64
-4.4915e+63
3.81936e+64
-3.14362e+63
3.5492e+64
-3.1921e+60
3.08985e+64
-4.50522e+63
-2.05013e+64
7.13008e+61
8.12306e+63
2.55398e+63
-1.91013e+64
-5.64003e+63
-1.28526e+65
-4.34334e+63
-5.25616e+64
-2.5534e+63
-3.24232e+64
8.93929e+62
7.41636e+63
-4.22053e+62
-3.99231e+64
-2.83736e+63
-2.95783e+64
-3.55076e+63
-1.7259e+64
8.15391e+62
1.31699e+64
-7.79232e+62
5.03223e+64
5.09582e+63
4.792e+64
4.36841e+62
3.38428e+64
-2.14662e+63
3.09954e+63
-1.56153e+63
1.19975e+64
3.66284e+62
2.79281e+63
2.23383e+63
2.90404e+63
2.47585e+63
4.67076e+63
2.65546e+63
1.41085e+64
1.85617e+63
1.86231e+64
3.13256e+63
6.87515e+63
-7.83854e+62
2.09338e+64
2.69167e+63
2.74765e+64
1.7466e+63
1.91067e+64
1.08087e+63
2.08088e+64
1.14615e+63
2.98793e+64
-2.78472e+62
2.20171e+64
-7.46239e+62
1.18155e+64
-2.23053e+62
8.75803e+63
-1.70305e+62
4.88511e+63
2.04155e+62
5.181e+63
4.46523e+62
1.38039e+64
5.40479e+62
2.01856e+64
5.39948e+62
2.4873e+64
4.85754e+62
2.86879e+64
4.32226e+62
3.19894e+64
4.17663e+62
3.52725e+64
4.63024e+62
3.89967e+64
5.70849e+62
4.37295e+64
7.39389e+62
4.99889e+64
9.62747e+62
5.83741e+64
1.23409e+63
6.94716e+64
1.52813e+63
8.38683e+64
1.77018e+63
1.02214e+65
1.72945e+63
1.24183e+65
8.41903e+62
1.49696e+65
-2.28736e+63
1.63612e+65
-9.57543e+63
1.42248e+65
-2.81238e+64
2.5513e+65
-1.12417e+65
9.19342e+65
-3.60898e+65
2.76745e+66
-7.417e+65
6.22017e+66
1.01189e+67
-1.17745e+64
-1.09122e+64
-1.13336e+64
-1.80406e+64
-1.08217e+64
-2.29058e+64
-1.12887e+64
-2.74199e+64
-1.13468e+64
-2.75159e+64
-1.108e+64
-2.72968e+64
-1.07806e+64
-2.57019e+64
-1.0557e+64
-2.0072e+64
-1.00172e+64
-1.16003e+64
-9.52285e+63
-4.29409e+63
-8.55091e+63
8.09077e+63
-7.35625e+63
1.94764e+64
-4.98127e+63
3.43981e+64
-1.11632e+63
5.74637e+64
-1.7499e+63
4.76309e+64
-5.61845e+63
4.79055e+64
-7.14346e+63
3.32003e+64
4.17329e+62
1.06587e+65
-6.86036e+62
4.15006e+64
1.71582e+62
3.67474e+64
-2.51859e+63
3.61905e+64
-6.70556e+63
6.05062e+64
-4.63244e+63
3.61204e+64
-3.51285e+63
3.43724e+64
-5.87008e+62
2.79727e+64
-4.06556e+63
-1.70228e+64
1.69869e+62
3.88764e+63
1.69048e+63
-2.0622e+64
-5.67943e+63
-1.21157e+65
-3.37101e+63
-5.48701e+64
-2.88464e+63
-3.29096e+64
9.12601e+62
3.61913e+63
-1.05043e+61
-3.9e+64
-2.60577e+63
-2.6983e+64
-3.35353e+63
-1.65113e+64
-1.31638e+62
9.948e+63
-1.17428e+62
5.03081e+64
3.79449e+63
4.40082e+64
-3.80279e+62
3.80176e+64
-2.87564e+63
5.59494e+63
-1.88347e+63
1.10054e+64
9.69994e+61
8.12175e+62
2.33912e+63
6.62493e+62
2.6326e+63
4.37864e+63
2.62595e+63
1.41163e+64
1.65177e+63
1.95979e+64
3.00649e+63
5.52103e+63
-7.74825e+62
2.47145e+64
2.37046e+63
2.43296e+64
1.55046e+63
1.99274e+64
1.11061e+63
2.12495e+64
1.15694e+63
2.9835e+64
-2.27801e+62
2.34034e+64
-7.31793e+62
1.23233e+64
-3.46469e+62
8.37916e+63
-2.19122e+62
4.76713e+63
2.62441e+62
4.71192e+63
5.32908e+62
1.35443e+64
6.25253e+62
2.01016e+64
6.07866e+62
2.48987e+64
5.39713e+62
2.87636e+64
4.79483e+62
3.20583e+64
4.66806e+62
3.5293e+64
5.22685e+62
3.89501e+64
6.49313e+62
4.36114e+64
8.44546e+62
4.98032e+64
1.10272e+63
5.81243e+64
1.41746e+63
6.91665e+64
1.76391e+63
8.35295e+64
2.06935e+63
1.01918e+65
2.10325e+63
1.24157e+65
1.35334e+63
1.50457e+65
-1.45119e+63
1.66425e+65
-7.83935e+63
1.48652e+65
-2.63568e+64
2.73659e+65
-1.26925e+65
1.01992e+66
-4.05483e+65
3.04601e+66
-7.79385e+65
6.59407e+66
1.00908e+67
-1.21562e+64
-1.14392e+64
-1.17025e+64
-1.84944e+64
-1.12909e+64
-2.33174e+64
-1.16348e+64
-2.70759e+64
-1.16399e+64
-2.75108e+64
-1.13697e+64
-2.7567e+64
-1.1047e+64
-2.60246e+64
-1.07693e+64
-2.03497e+64
-1.02344e+64
-1.21351e+64
-9.7317e+63
-4.79684e+63
-8.72427e+63
7.08334e+63
-7.51837e+63
1.82705e+64
-5.49279e+63
3.23725e+64
-1.74251e+63
5.37134e+64
-2.18201e+63
4.80704e+64
-6.17196e+63
5.18954e+64
-7.35231e+63
3.43806e+64
-5.72549e+62
9.98074e+64
-7.69502e+62
4.16976e+64
6.99096e+60
3.59709e+64
-2.49029e+63
3.86878e+64
-6.15559e+63
6.41715e+64
-4.76669e+63
3.47316e+64
-3.83909e+63
3.34448e+64
-1.08933e+63
2.52229e+64
-3.7318e+63
-1.43803e+64
2.03652e+62
-4.77672e+61
8.35789e+62
-2.12541e+64
-5.37919e+63
-1.14942e+65
-2.32044e+63
-5.79287e+64
-3.01003e+63
-3.22198e+64
1.31467e+63
-7.05464e+62
3.57847e+62
-3.80431e+64
-2.16487e+63
-2.44603e+64
-2.94175e+63
-1.57344e+64
-1.10002e+63
8.10634e+63
3.43807e+62
4.88645e+64
2.88528e+63
4.14671e+64
-8.66849e+62
4.17704e+64
-3.36356e+63
8.09175e+63
-1.99808e+63
9.64027e+63
-1.19841e+62
-1.06531e+63
2.46881e+63
-1.92355e+63
2.82443e+63
4.02728e+63
2.64366e+63
1.43006e+64
1.43896e+63
2.08059e+64
2.39302e+63
4.56781e+63
-4.85381e+62
2.75962e+64
1.98897e+63
2.18571e+64
1.37014e+63
2.05487e+64
1.10316e+63
2.15191e+64
1.10042e+63
2.9842e+64
-1.90729e+62
2.46976e+64
-6.71281e+62
1.28114e+64
-4.17451e+62
8.13613e+63
-2.09471e+62
4.57531e+63
3.35486e+62
4.19004e+63
6.28483e+62
1.3272e+64
7.16888e+62
2.00293e+64
6.80765e+62
2.49506e+64
5.96193e+62
2.88635e+64
5.27406e+62
3.21432e+64
5.15722e+62
3.53195e+64
5.82148e+62
3.89e+64
7.28272e+62
4.3481e+64
9.51355e+62
4.95968e+64
1.24604e+63
5.78448e+64
1.60691e+63
6.88214e+64
2.01104e+63
8.31385e+64
2.39196e+63
1.01551e+65
2.53258e+63
1.24029e+65
1.97872e+63
1.51025e+65
-4.03824e+62
1.68821e+65
-5.78583e+63
1.54052e+65
-2.62927e+64
2.94178e+65
-1.48524e+65
1.14215e+66
-4.55161e+65
3.35266e+66
-8.19272e+65
6.95819e+66
1.00891e+67
-1.25311e+64
-1.18782e+64
-1.20874e+64
-1.89381e+64
-1.17521e+64
-2.36527e+64
-1.199e+64
-2.6838e+64
-1.19559e+64
-2.7545e+64
-1.16844e+64
-2.78385e+64
-1.13454e+64
-2.63636e+64
-1.10177e+64
-2.06774e+64
-1.049e+64
-1.26628e+64
-9.96924e+63
-5.31761e+63
-8.93012e+63
6.04422e+63
-7.68249e+63
1.70228e+64
-5.82824e+63
3.05182e+64
-2.17625e+63
5.00614e+64
-2.69019e+63
4.85843e+64
-6.58921e+63
5.57944e+64
-7.67123e+63
3.54626e+64
-1.38885e+63
9.3525e+64
-1.07196e+63
4.13807e+64
-6.62152e+62
3.55611e+64
-2.95574e+63
4.09814e+64
-5.81567e+63
6.70314e+64
-4.92746e+63
3.38434e+64
-4.12251e+63
3.26399e+64
-1.50229e+63
2.26027e+64
-3.42137e+63
-1.24612e+64
4.63444e+62
-3.93258e+63
4.00167e+62
-2.11908e+64
-5.22362e+63
-1.09318e+65
-1.32162e+63
-6.18307e+64
-2.8349e+63
-3.07066e+64
2.72432e+63
-6.26469e+63
6.77188e+62
-3.5996e+64
-1.23644e+63
-2.25467e+64
-2.08958e+63
-1.48813e+64
-2.15229e+63
8.16901e+63
5.58273e+62
4.61539e+64
2.10084e+63
3.99246e+64
-1.52859e+63
4.53997e+64
-3.57473e+63
1.01379e+64
-1.9949e+63
8.06038e+63
-2.88767e+62
-2.7715e+63
2.66195e+63
-4.87404e+63
3.06071e+63
3.62926e+63
2.72794e+63
1.46341e+64
1.27854e+63
2.22556e+64
2.08722e+63
3.75962e+63
-1.567e+62
2.98385e+64
1.86933e+63
1.98298e+64
1.53474e+63
2.08835e+64
1.08295e+63
2.19711e+64
9.94926e+62
2.99314e+64
-1.65509e+62
2.58589e+64
-5.94034e+62
1.32425e+64
-4.45842e+62
7.9924e+63
-1.53356e+62
4.28978e+63
4.32614e+62
3.61331e+63
7.38294e+62
1.29749e+64
8.17067e+62
1.99568e+64
7.58135e+62
2.50159e+64
6.53819e+62
2.89733e+64
5.74489e+62
3.22289e+64
5.63168e+62
3.53366e+64
6.40547e+62
3.88298e+64
8.07186e+62
4.33209e+64
1.05953e+63
4.93521e+64
1.39261e+63
5.75182e+64
1.80254e+63
6.84194e+64
2.26968e+63
8.26777e+64
2.73747e+63
1.01092e+65
3.01263e+63
1.2376e+65
2.69638e+63
1.51351e+65
7.79376e+62
1.70746e+65
-3.41785e+63
1.58262e+65
-2.87706e+64
3.19539e+65
-1.77226e+65
1.29061e+66
-5.0941e+65
3.68484e+66
-8.58201e+65
7.30698e+66
9.98345e+66
-1.2917e+64
-1.22583e+64
-1.24946e+64
-1.93604e+64
-1.22134e+64
-2.39339e+64
-1.23622e+64
-2.66892e+64
-1.22955e+64
-2.76116e+64
-1.20246e+64
-2.81094e+64
-1.16749e+64
-2.67132e+64
-1.13027e+64
-2.10497e+64
-1.07816e+64
-1.31839e+64
-1.02403e+64
-5.85891e+63
-9.18186e+63
4.98582e+63
-7.88167e+63
1.57226e+64
-6.09017e+63
2.87267e+64
-2.56838e+63
4.65396e+64
-3.64722e+63
4.96632e+64
-6.86554e+63
5.90128e+64
-8.13303e+63
3.67301e+64
-2.05293e+63
8.74449e+64
-1.50591e+63
4.08337e+64
-1.36107e+63
3.54163e+64
-3.58713e+63
4.32074e+64
-5.69142e+63
6.91357e+64
-5.11281e+63
3.32648e+64
-4.36681e+63
3.18939e+64
-1.78802e+63
2.00239e+64
-3.04646e+63
-1.12028e+64
8.4482e+62
-7.82382e+63
4.72821e+62
-2.08188e+64
-5.0167e+63
-1.03828e+65
-5.64879e+62
-6.62824e+64
-2.57973e+63
-2.86916e+64
5.06425e+63
-1.39086e+64
5.15804e+62
-3.14475e+64
-1.09555e+63
-2.09353e+64
-1.98676e+63
-1.399e+64
-3.26991e+63
9.45223e+63
3.86726e+62
4.24975e+64
6.82372e+62
3.96292e+64
-2.76695e+63
4.88498e+64
-3.76341e+63
1.11345e+64
-1.96665e+63
6.2639e+63
-3.41242e+62
-4.39622e+63
2.96169e+63
-8.17431e+63
3.36837e+63
3.22649e+63
2.90453e+63
1.51016e+64
1.20224e+63
2.39613e+64
2.05283e+63
2.90972e+63
2.97423e+62
3.15961e+64
1.99817e+63
1.81302e+64
1.49309e+63
2.13908e+64
8.94034e+62
2.25721e+64
8.58544e+62
2.99708e+64
-1.5509e+62
2.6875e+64
-5.10302e+62
1.36047e+64
-4.53495e+62
7.94545e+63
-8.80444e+61
3.93974e+63
5.45348e+62
3.00275e+63
8.6164e+62
1.26794e+64
9.24867e+62
1.99095e+64
8.39538e+62
2.51164e+64
7.12478e+62
2.91152e+64
6.2038e+62
3.23364e+64
6.08672e+62
3.53625e+64
6.9742e+62
3.87568e+64
8.85673e+62
4.31481e+64
1.16877e+63
4.90854e+64
1.54216e+63
5.71599e+64
2.00402e+63
6.79732e+64
2.53924e+63
8.21557e+64
3.10393e+63
1.00542e+65
3.53573e+63
1.23341e+65
3.49105e+63
1.5141e+65
1.95029e+63
1.72301e+65
-7.46325e+62
1.60976e+65
-3.46895e+64
3.53492e+65
-2.13078e+65
1.46901e+66
-5.66692e+65
4.03846e+66
-8.85936e+65
7.62623e+66
9.79352e+66
-1.33238e+64
-1.25995e+64
-1.29276e+64
-1.97566e+64
-1.26832e+64
-2.41784e+64
-1.27577e+64
-2.66147e+64
-1.26619e+64
-2.77074e+64
-1.23928e+64
-2.83785e+64
-1.20366e+64
-2.70694e+64
-1.1626e+64
-2.14602e+64
-1.11095e+64
-1.37005e+64
-1.05494e+64
-6.41893e+63
-9.49007e+63
3.92646e+63
-8.15285e+63
1.43854e+64
-6.37308e+63
2.6947e+64
-3.01311e+63
4.31796e+64
-5.15924e+63
5.18093e+64
-6.82812e+63
6.06817e+64
-8.78189e+63
3.86839e+64
-2.5728e+63
8.12359e+64
-2.04013e+63
4.0301e+64
-2.11766e+63
3.54938e+64
-4.27892e+63
4.53687e+64
-5.71221e+63
7.0569e+64
-5.31628e+63
3.28688e+64
-4.57238e+63
3.115e+64
-1.97875e+63
1.74303e+64
-2.56269e+63
-1.06188e+64
1.12089e+63
-1.15074e+64
8.73726e+62
-2.05717e+64
-4.49498e+63
-9.84598e+64
3.06096e+61
-7.08081e+64
-2.32482e+63
-2.63363e+64
3.55838e+63
-1.97918e+64
-1.05873e+62
-2.77833e+64
-1.99077e+63
-1.90504e+64
-3.24234e+63
-1.27385e+64
-4.67366e+63
1.08835e+64
-2.09257e+62
3.8033e+64
-2.31222e+63
4.17322e+64
-4.79245e+63
5.13298e+64
-4.05807e+63
1.04001e+64
-1.92539e+63
4.13113e+63
-2.2519e+62
-6.09645e+63
3.32648e+63
-1.17262e+64
3.74892e+63
2.80419e+63
3.19291e+63
1.5658e+64
1.22288e+63
2.59314e+64
2.19741e+63
1.93566e+63
5.06128e+62
3.32857e+64
1.70312e+63
1.69321e+64
9.10399e+62
2.21834e+64
5.00358e+62
2.2982e+64
6.83908e+62
2.97879e+64
-1.63495e+62
2.77227e+64
-4.4531e+62
1.38879e+64
-4.43814e+62
7.94658e+63
-6.43806e+60
3.5072e+63
6.71925e+62
2.33047e+63
9.98927e+62
1.23584e+64
1.04097e+63
1.98717e+64
9.25102e+62
2.52365e+64
7.71809e+62
2.92718e+64
6.64669e+62
3.24478e+64
6.51875e+62
3.5379e+64
7.52481e+62
3.86613e+64
9.63485e+62
4.29417e+64
1.27882e+63
4.87757e+64
1.69437e+63
5.6749e+64
2.2109e+63
6.74628e+64
2.81881e+63
8.15524e+64
3.48879e+63
9.98784e+64
4.09359e+63
1.22741e+65
4.35108e+63
1.51161e+65
3.09247e+63
1.73566e+65
2.08408e+63
1.61994e+65
-4.51045e+64
4.00687e+65
-2.55305e+65
1.67921e+66
-6.23602e+65
4.40676e+66
-9.11722e+65
7.91435e+66
9.61335e+66
-1.37579e+64
-1.29146e+64
-1.33889e+64
-2.01256e+64
-1.31677e+64
-2.43996e+64
-1.31803e+64
-2.66021e+64
-1.30582e+64
-2.78295e+64
-1.27913e+64
-2.86454e+64
-1.24313e+64
-2.74295e+64
-1.19886e+64
-2.19029e+64
-1.14738e+64
-1.42153e+64
-1.08983e+64
-6.9944e+63
-9.85738e+63
2.88555e+63
-8.52117e+63
1.30492e+64
-6.77525e+63
2.52011e+64
-3.71006e+63
4.01144e+64
-6.45232e+63
5.45516e+64
-6.13415e+63
6.03635e+64
-9.08579e+63
4.16356e+64
-3.05769e+63
7.52078e+64
-2.65387e+63
3.98972e+64
-2.93346e+63
3.57734e+64
-4.96807e+63
4.74033e+64
-5.82668e+63
7.14276e+64
-5.53083e+63
3.2573e+64
-4.74399e+63
3.03632e+64
-2.24343e+63
1.49298e+64
-2.07619e+63
-1.0786e+64
1.30494e+63
-1.48885e+64
1.46536e+63
-2.07321e+64
-3.33006e+63
-9.36644e+64
9.63631e+62
-7.51015e+64
-1.95688e+63
-2.34157e+64
2.0746e+63
-2.38233e+64
-3.41089e+62
-2.53675e+64
-2.1211e+63
-1.72703e+64
-4.03927e+63
-1.08203e+64
-5.52074e+63
1.23651e+64
-8.54595e+62
3.3367e+64
-8.88932e+63
4.97672e+64
-8.26622e+63
5.07076e+64
-4.32304e+63
6.45705e+63
-1.85275e+63
1.66109e+63
-1.4079e+61
-7.93441e+63
3.55808e+63
-1.52959e+64
4.00502e+63
2.36053e+63
3.59463e+63
1.60718e+64
1.40225e+63
2.81273e+64
2.50141e+63
8.37249e+62
4.66979e+62
3.53224e+64
1.24618e+63
1.61538e+64
3.81524e+62
2.305e+64
1.90898e+62
2.31741e+64
4.40452e+62
2.95416e+64
-2.6644e+62
2.84316e+64
-4.3679e+62
1.40646e+64
-3.50376e+62
7.86945e+63
2.50031e+62
2.92192e+63
8.70354e+62
1.7319e+63
1.1554e+63
1.20937e+64
1.1654e+63
1.98775e+64
1.01481e+63
2.54015e+64
8.31595e+62
2.94691e+64
7.06964e+62
3.2587e+64
6.92322e+62
3.54073e+64
8.05324e+62
3.85635e+64
1.04029e+63
4.27219e+64
1.38938e+63
4.84428e+64
1.84894e+63
5.63043e+64
2.42264e+63
6.69047e+64
3.1073e+63
8.08808e+64
3.88925e+63
9.91109e+64
4.67869e+63
1.21964e+65
5.26118e+63
1.50593e+65
4.30692e+63
1.74533e+65
4.60492e+63
1.61712e+65
-6.09208e+64
4.6622e+65
-3.03137e+65
1.92143e+66
-6.79971e+65
4.7836e+66
-9.32413e+65
8.16679e+66
9.35302e+66
-1.42233e+64
-1.32101e+64
-1.38801e+64
-2.04689e+64
-1.36716e+64
-2.46081e+64
-1.36328e+64
-2.66409e+64
-1.3487e+64
-2.79753e+64
-1.32222e+64
-2.89103e+64
-1.28599e+64
-2.77917e+64
-1.23908e+64
-2.23721e+64
-1.18741e+64
-1.4732e+64
-1.12855e+64
-7.58298e+63
-1.02781e+64
1.87809e+63
-8.98543e+63
1.17566e+64
-7.33561e+63
2.35512e+64
-4.86001e+63
3.76388e+64
-7.05679e+63
5.67483e+64
-5.63764e+63
5.89443e+64
-9.0128e+63
4.50107e+64
-3.62433e+63
6.98193e+64
-3.3423e+63
3.96151e+64
-3.80278e+63
3.62339e+64
-5.65163e+63
4.92522e+64
-5.99989e+63
7.17759e+64
-5.75823e+63
3.23313e+64
-4.88894e+63
2.94939e+64
-2.50222e+63
1.2543e+64
-1.51681e+63
-1.17715e+64
1.51444e+63
-1.79198e+64
2.35704e+63
-2.15748e+64
-1.03602e+63
-9.02715e+64
1.24052e+63
-7.73783e+64
-1.63976e+63
-2.05356e+64
1.78434e+63
-2.72474e+64