/*--------------------------------*- C++ -*----------------------------------*\
| =========                 |                                                 |
| \\      /  F ield         | OpenFOAM: The Open Source CFD Toolbox           |
|  \\    /   O peration     | Version:  4.1                                   |
|   \\  /    A nd           | Web:      www.OpenFOAM.org                      |
|    \\/     M anipulation  |                                                 |
\*---------------------------------------------------------------------------*/
FoamFile
{
    version     2.0;
    format      ascii;
    class       volScalarField;
    location    "5";
    object      p;
}
// * * * * * * * * * * * * * * * * * * * * * * * * * * * * * * * * * * * * * //

dimensions      [0 2 -2 0 0 0 0];

internalField   nonuniform List<scalar> 
6785
(
564.885
486.052
439.057
385.51
338.69
293.568
251.56
211.811
174.285
138.846
104.721
71.7592
44.5078
16.4611
-24.359
-51.8416
-70.4513
-60.7082
-68.3701
-68.0809
-70.9502
-71.9827
-72.873
-72.783
-71.7769
-69.7537
-66.9494
-62.7996
-58.2229
-55.8128
-46.265
-51.1477
-42.6715
-47.946
-44.9686
-46.9978
-47.094
-48.4568
-49.5968
-51.1494
-52.7543
-54.3137
-55.138
-54.7474
-52.6567
-27.6184
-29.8784
-26.1151
-31.0172
-28.6857
-31.3475
-31.2463
-32.2472
-32.5609
-32.853
-32.7452
-32.3335
-30.9498
-29.0416
-25.4978
-10.429
-10.6168
-6.51028
-8.36875
-4.04041
-4.11045
-1.33974
0.233614
2.4297
4.61219
6.97428
9.32231
11.8219
13.8404
16.1915
12.2771
13.1762
16.2043
15.4432
18.8701
18.923
21.2868
22.113
23.2883
23.5619
23.4309
23.1571
23.2535
23.7341
24.3409
27.6188
26.7623
28.3429
26.3636
27.9368
26.1451
26.4152
24.8392
23.739
22.0068
20.473
19.0727
18.1078
17.8982
16.3557
9.44998
5.21714
5.60195
2.17262
2.04967
-0.497431
-1.10518
-2.86069
-3.77646
-5.35117
-6.93814
-8.55067
-9.37505
-10.4927
-14.193
-38.4957
-43.7494
-44.4146
-48.4811
-50.1181
-54.0092
-56.6775
-60.344
-63.1936
-65.9963
-67.9135
-68.8094
-69.4041
-70.2476
-69.5914
-64.4034
-66.5198
-65.7194
-67.8318
-67.4922
-69.2187
-69.5334
-70.455
-70.3887
-69.8527
-68.5241
-66.752
-64.5401
-62.8141
-59.9831
-41.1672
-39.6371
-37.5091
-37.0537
-34.8405
-33.9225
-32.1088
-30.6882
-29.0364
-27.4382
-25.7967
-24.3311
-22.6361
-21.3366
-18.7489
-17.6478
-15.7072
-14.2081
-13.4448
-11.7656
-10.9402
-9.56127
-8.54294
-7.41039
-6.40973
-5.42682
-4.56299
-3.65799
-2.99144
-2.09524
0.891392
1.77666
2.20975
2.35223
3.02402
3.04162
3.542
3.72445
4.06188
4.30234
4.58117
4.82954
5.12282
5.33826
5.67687
6.58823
7.25882
5.74094
4.53184
4.08808
3.75841
3.97361
3.81626
3.91322
3.79899
3.81762
3.75172
3.80154
3.76194
3.87777
31.1627
28.8888
23.7302
19.0052
17.457
16.2621
14.3317
12.0428
10.1487
8.56348
7.39666
6.62332
6.23501
6.06627
5.89856
-1.23181
-1.23382
-0.948097
-1.2892
-1.27523
-1.21907
-1.34605
-1.47782
-1.49826
-1.5087
-1.5995
-1.82285
-1.71788
-1.85293
-2.08342
-2.11971
-1.97851
-2.0745
-2.4336
-2.13251
-2.28604
-2.56724
-2.60682
-2.30573
-2.4489
-2.72943
-2.7568
-2.47972
-2.51912
-2.89229
-2.54411
-2.60016
-2.86333
-2.87659
-2.61521
-2.6037
-2.91686
-2.61062
-2.6231
-2.82714
-2.83105
-2.59215
-2.5965
-2.77109
-2.76664
-2.57576
-2.52552
-2.72275
-2.51975
-2.47606
-2.60386
-2.59575
-2.42726
-2.40222
-2.50657
-2.49504
-2.3415
-2.40811
-2.56649
-2.40197
-2.40136
-2.5009
-2.46301
-2.34419
-1.99876
-2.04151
-2.01485
-1.53157
-1.55446
-1.59085
-1.60676
-1.34708
-1.85357
-1.56755
-0.0918385
-5.43823
-4.00029
0.604322
-17.4365
-14.4209
-11.1937
-11.0352
-9.29511
-16.8024
-9.72198
-5.6871
-4.90317
-3.72253
-3.00166
-1.89249
0.333153
1.66941
-2.58853
-0.31488
0.975885
3.41725
5.60942
6.26306
7.51495
8.89751
9.43084
6.12414
9.23256
10.938
11.9748
13.5261
15.7581
17.1501
18.0177
19.7464
19.1343
14.5854
19.2697
20.6296
21.8101
22.7793
24.2555
26.0615
27.7194
25.8883
19.2556
26.0392
28.1973
29.5586
30.046
30.3301
30.384
32.5443
30.0684
27.2633
31.8059
30.5757
31.8587
32.5263
30.9074
29.6359
28.064
22.3723
32.201
28.9842
23.8715
20.8302
16.6964
14.6672
11.8098
8.5132
5.57671
-0.581496
-1.33828
2.09828
-3.06836
-4.76721
-7.14244
-10.2619
-16.4012
-17.6889
-16.0719
-26.319
-12.8067
-16.1325
-19.4728
-12.4194
-20.0925
-16.9368
-19.1757
-16.5759
-12.4397
-20.2781
-16.0226
-12.4912
-18.8761
-16.4125
-18.406
-16.2171
-11.7351
-18.5299
-15.8696
-17.8706
-15.4867
-11.1661
-18.6297
-14.5148
-11.1599
-16.6097
-14.2917
-15.6438
-13.8126
-9.99857
-15.0275
-12.8309
-13.9823
-12.2101
-8.9427
-13.8104
-10.9089
-8.56443
-11.8403
-10.2133
-10.8436
-9.57415
-7.19795
-9.96371
-8.51824
-9.01935
-7.86183
-6.02059
-8.46827
-6.73419
-5.45967
-7.02862
-5.97536
-6.22171
-5.27621
-3.93546
-5.25241
-4.24483
-4.40323
-3.46288
-2.18298
-3.56579
-2.2981
-1.28809
-2.2151
-1.42064
-1.46201
-0.78312
0.106248
-0.618628
0.0158317
-0.0472154
0.521972
1.02801
0.363223
0.996752
1.19259
0.627245
0.784372
0.358115
0.416533
0.38576
2.75924e-05
5.80209e-05
0.000100186
0.000137335
0.000181606
0.000226498
0.000276315
0.000328877
0.000385894
0.00044677
0.000512359
0.000582684
0.000658336
0.000739621
0.000827084
0.000921188
0.00102252
0.00113165
0.00124925
0.001376
0.00151266
0.00166001
0.00181893
0.00199031
0.00217515
0.00237447
0.0025894
0.00282109
0.00307081
0.00333987
0.00362968
0.00394169
0.00427747
0.00463863
0.00502685
0.00544389
0.00589152
0.00637153
0.00688569
0.00743567
0.00802293
0.00864863
0.00931338
0.010017
0.010758
0.0115334
0.0123377
0.0131623
0.0139942
0.0148155
0.0156018
0.0163218
0.0169373
0.0174038
0.0176732
0.0176975
0.0174344
0.0168502
0.0159249
0.0146423
0.0129871
0.0109106
0.0083327
0.00507545
0.00099154
-0.0043067
-0.0105922
-0.0179604
-0.0256297
-0.0310034
-0.0339677
-0.0715311
-0.13905
-0.245474
-0.294341
-0.493386
-0.353523
-0.882394
-0.938476
8.12133e-05
0.000171837
0.000295658
0.000407023
0.000537413
0.000670263
0.000816694
0.000971285
0.00113848
0.00131693
0.00150891
0.00171464
0.00193579
0.00217329
0.0024287
0.00270341
0.00299908
0.00331742
0.00366032
0.00402977
0.00442794
0.00485711
0.00531976
0.00581851
0.00635615
0.00693567
0.00756022
0.00823317
0.00895806
0.00973864
0.0105789
0.011483
0.0124553
0.0135003
0.0146229
0.0158279
0.0171203
0.0185052
0.0199873
0.0215715
0.0232617
0.0250611
0.0269713
0.0289918
0.0311185
0.0333427
0.0356491
0.0380134
0.0403999
0.0427584
0.0450217
0.0471038
0.0489
0.0502903
0.051147
0.051346
0.0507841
0.0493892
0.0471334
0.0440084
0.0400118
0.0350537
0.0289423
0.0212004
0.0113499
-0.00183717
-0.0181621
-0.0385473
-0.0621886
-0.0820806
-0.101969
-0.166121
-0.294889
-0.491591
-0.624953
-0.881318
-0.798314
-1.02217
-1.0398
0.000127565
0.000277624
0.000486998
0.000673834
0.000892882
0.00111567
0.00136128
0.00162043
0.00190072
0.00219981
0.00252158
0.00286639
0.00323701
0.00363504
0.00406309
0.00452347
0.005019
0.00555253
0.00612723
0.00674645
0.00741383
0.00813322
0.00890876
0.00974486
0.0106462
0.0116179
0.0126651
0.0137935
0.0150092
0.0163184
0.0177278
0.0192445
0.0208757
0.0226293
0.0245131
0.0265355
0.0287049
0.0310298
0.0335185
0.0361788
0.0390177
0.0420404
0.04525
0.0486453
0.0522198
0.055959
0.0598369
0.063813
0.067827
0.0717942
0.075601
0.0791018
0.0821188
0.0844473
0.0858685
0.0861682
0.0851654
0.082729
0.0788007
0.0733528
0.066365
0.0576653
0.0469081
0.0332619
0.0158915
-0.00729144
-0.0359344
-0.0717046
-0.112979
-0.147724
-0.187969
-0.249357
-0.396105
-0.632991
-0.799166
-1.0825
-1.01475
-1.14895
-1.00857
0.000172791
0.000382463
0.000675809
0.000938231
0.00124506
0.00155726
0.00190102
0.00226374
0.00265582
0.00307416
0.0035241
0.0040062
0.00452433
0.00508072
0.00567904
0.00632251
0.00701507
0.00776069
0.00856383
0.00942915
0.0103617
0.011367
0.0124506
0.0136188
0.0148782
0.0162358
0.0176988
0.0192753
0.0209736
0.0228025
0.0247713
0.0268898
0.0291682
0.0316174
0.0342485
0.0370729
0.0401026
0.0433492
0.0468244
0.0505392
0.0545032
0.058724
0.0632056
0.0679468
0.0729385
0.0781605
0.0835773
0.0891323
0.094742
0.100289
0.105614
0.110516
0.114747
0.11802
0.12003
0.120479
0.119113
0.11575
0.110313
0.102766
0.0930871
0.0810405
0.0661396
0.0472103
0.0230243
-0.00942751
-0.0498457
-0.100999
-0.160742
-0.212834
-0.278436
-0.345561
-0.522921
-0.814934
-1.01773
-1.35287
-1.27667
-1.42468
-1.15682
0.000214488
0.000483934
0.000861542
0.00120011
0.00159516
0.00199728
0.00243962
0.00290633
0.00341063
0.00394864
0.00452717
0.00514701
0.0058131
0.00652833
0.00729742
0.00812451
0.00901467
0.00997301
0.0110053
0.0121174
0.013316
0.0146079
0.0160006
0.017502
0.0191205
0.0208651
0.0227454
0.0247714
0.0269539
0.0293043
0.0318344
0.0345569
0.0374849
0.0406324
0.0440136
0.0476433
0.0515367
0.0557091
0.0601753
0.0649494
0.0700441
0.075469
0.0812296
0.0873244
0.0937422
0.100457
0.107425
0.114572
0.121792
0.128936
0.135799
0.142122
0.147586
0.151822
0.154436
0.15504
0.153305
0.148994
0.142005
0.132295
0.119836
0.104326
0.0851309
0.06072
0.0294365
-0.0127045
-0.0655202
-0.13314
-0.212678
-0.284457
-0.379321
-0.453573
-0.668804
-1.02122
-1.26649
-1.64906
-1.57536
-1.70372
-1.32825
0.000254331
0.000583919
0.00104489
0.00145987
0.00194288
0.00243488
0.00297552
0.00354598
0.00416209
0.00481935
0.00552595
0.00628294
0.00709631
0.00796966
0.0089087
0.00991852
0.0110053
0.0121753
0.0134355
0.0147931
0.0162563
0.0178334
0.0195335
0.0213662
0.0233419
0.0254715
0.0277666
0.0302396
0.0329036
0.0357723
0.0388605
0.0421834
0.0457571
0.0495985
0.0537252
0.0581551
0.0629069
0.067999
0.0734497
0.0792764
0.0854944
0.0921158
0.0991474
0.106588
0.114423
0.122624
0.131135
0.139869
0.148696
0.157435
0.165839
0.17359
0.180299
0.185515
0.188754
0.18954
0.187466
0.182245
0.173749
0.161935
0.146776
0.127915
0.104571
0.0748593
0.0366537
-0.0150745
-0.0803989
-0.165156
-0.265606
-0.359803
-0.488039
-0.570258
-0.825876
-1.23622
-1.52084
-1.94161
-1.87273
-1.98125
-1.59861
0.000291996
0.000682221
0.00122588
0.0017176
0.00228849
0.00287051
0.0035094
0.00418359
0.0049114
0.00568778
0.00652226
0.00741619
0.0083766
0.00940777
0.0105164
0.0117086
0.0129916
0.0143728
0.0158604
0.0174632
0.0191903
0.021052
0.0230588
0.0252222
0.0275543
0.030068
0.032777
0.035696
0.0388404
0.0422264
0.0458713
0.0497933
0.0540113
0.0585452
0.0634157
0.0686441
0.0742524
0.0802623
0.0866956
0.0935728
0.100912
0.108728
0.117029
0.125814
0.135067
0.144754
0.15481
0.165134
0.175576
0.18592
0.195877
0.205073
0.213048
0.219267
0.223156
0.224146
0.221754
0.215634
0.20564
0.191728
0.173881
0.151692
0.124238
0.0892736
0.0441653
-0.0172308
-0.0953732
-0.198169
-0.320805
-0.440388
-0.605013
-0.69518
-0.997875
-1.46957
-1.79324
-2.24721
-2.18002
-2.28774
-1.90145
0.000328023
0.00077944
0.00140485
0.00197353
0.00263202
0.00330407
0.00404098
0.00481872
0.00565794
0.00655311
0.00751508
0.00854551
0.00965245
0.0108409
0.0121186
0.0134924
0.0149709
0.0165625
0.0182767
0.0201235
0.0221137
0.0242588
0.0265711
0.0290638
0.0317509
0.0346471
0.0377685
0.0411316
0.0447544
0.0486556
0.052855
0.0573735
0.062233
0.0674565
0.0730677
0.0790912
0.0855523
0.0924762
0.099888
0.107811
0.116268
0.125274
0.13484
0.144965
0.155632
0.166802
0.178403
0.190319
0.202377
0.214334
0.225856
0.236513
0.245775
0.253023
0.257589
0.258812
0.256127
0.249134
0.237666
0.221685
0.201193
0.175746
0.144282
0.104202
0.0523196
-0.0186994
-0.109857
-0.23153
-0.377624
-0.525824
-0.729025
-0.828128
-1.18676
-1.72548
-2.09094
-2.572
-2.50446
-2.61673
-2.23131
0.000362504
0.000875736
0.00158194
0.0022278
0.0029736
0.00373567
0.00457037
0.0054515
0.00640184
0.00741551
0.00850459
0.00967112
0.0109241
0.0122693
0.0137154
0.0152704
0.0169436
0.0187449
0.0206849
0.0227749
0.0250272
0.0274547
0.0300714
0.0328922
0.035933
0.0392104
0.0427425
0.0465482
0.0506477
0.0550621
0.059814
0.0649269
0.0704256
0.076336
0.0826852
0.0895009
0.0968117
0.104646
0.113033
0.121999
0.131569
0.141762
0.15259
0.164052
0.176132
0.188784
0.20193
0.215441
0.229123
0.242703
0.255806
0.267945
0.278519
0.286826
0.2921
0.293586
0.290636
0.282789
0.269864
0.251833
0.228728
0.20008
0.164699
0.119634
0.0611073
-0.019486
-0.123865
-0.265307
-0.436216
-0.616587
-0.860187
-0.971269
-1.39536
-2.00511
-2.41622
-2.9166
-2.84577
-2.95386
-2.55632
0.000395692
0.000971381
0.00175737
0.00248056
0.0033133
0.00416532
0.00509753
0.0060818
0.00714291
0.00827472
0.00949046
0.0107926
0.0121911
0.0136924
0.0153063
0.0170416
0.0189089
0.020919
0.0230838
0.025416
0.0279293
0.030638
0.0335579
0.0367055
0.0400984
0.0437555
0.0476966
0.051943
0.0565171
0.0614426
0.0667446
0.0724493
0.0785845
0.085179
0.0922629
0.0998675
0.108024
0.116766
0.126124
0.136129
0.146808
0.158183
0.170269
0.183066
0.196554
0.210688
0.22538
0.240489
0.255803
0.271018
0.285717
0.299361
0.311277
0.320673
0.326692
0.328474
0.325287
0.316611
0.302247
0.282188
0.256506
0.224727
0.185545
0.135661
0.0706721
-0.0193814
-0.137137
-0.299219
-0.49635
-0.712802
-0.999632
-1.1297
-1.62905
-2.31147
-2.77332
-3.28472
-3.20651
-3.31458
-2.94105
0.000427729
0.00106653
0.00193128
0.00273192
0.00365121
0.00459308
0.00562247
0.00670962
0.00788111
0.00913064
0.0104726
0.0119098
0.0134532
0.01511
0.016891
0.0188059
0.0208663
0.0230843
0.0254731
0.0280464
0.0308195
0.0338083
0.0370301
0.040503
0.0442466
0.0482815
0.0526299
0.0573151
0.0623618
0.0677962
0.0736458
0.0799398
0.0867086
0.0939842
0.1018
0.11019
0.119189
0.128834
0.139159
0.150198
0.161982
0.174536
0.187876
0.202004
0.2169
0.232514
0.248754
0.265466
0.282419
0.299282
0.315599
0.330773
0.344061
0.354585
0.361385
0.363502
0.360109
0.350626
0.334838
0.312769
0.284546
0.249706
0.206844
0.152331
0.0810961
-0.0182536
-0.149501
-0.333085
-0.557912
-0.814698
-1.14855
-1.30986
-1.89132
-2.64797
-3.16689
-3.68046
-3.59022
-3.69823
-3.3141
0.000458774
0.00116135
0.00210382
0.002982
0.00398738
0.00501895
0.00614515
0.00733487
0.0086163
0.00998311
0.0114507
0.0130224
0.0147101
0.0165217
0.018469
0.0205626
0.0228154
0.0252403
0.0278519
0.0306653
0.033697
0.0369646
0.0404867
0.0442834
0.048376
0.0527872
0.0575409
0.0626628
0.0681799
0.0741207
0.0805154
0.0873959
0.0947954
0.102749
0.111293
0.120464
0.130303
0.140846
0.152134
0.164204
0.177089
0.190817
0.205407
0.220863
0.237164
0.254258
0.272047
0.290367
0.308969
0.327495
0.345449
0.362182
0.376877
0.388569
0.396194
0.398685
0.395119
0.384851
0.367655
0.343592
0.312862
0.275036
0.228633
0.169706
0.0924889
-0.0159248
-0.160719
-0.366627
-0.620683
-0.922329
-1.30733
-1.51608
-2.1832
-3.01797
-3.60113
-4.10709
-3.99945
-4.08625
-3.69189
0.000488949
0.00125594
0.00227514
0.0032309
0.00432188
0.00544297
0.00666556
0.0079575
0.0093484
0.010832
0.0124246
0.0141302
0.0159615
0.0179272
0.02004
0.0223115
0.0247556
0.0273865
0.0302197
0.033272
0.036561
0.0401059
0.043927
0.0480459
0.0524858
0.0572713
0.0624284
0.0679848
0.0739699
0.0804147
0.0873518
0.0948159
0.102843
0.111471
0.12074
0.130689
0.141362
0.152801
0.165047
0.178142
0.192124
0.207022
0.222858
0.239638
0.257342
0.275916
0.295257
0.31519
0.335452
0.355657
0.375272
0.393594
0.409736
0.422639
0.431135
0.434042
0.430338
0.419309
0.400717
0.374673
0.341467
0.300733
0.250935
0.187837
0.10495
-0.0122232
-0.170553
-0.399552
-0.68443
-1.03566
-1.47619
-1.74965
-2.50564
-3.42525
-4.08046
-4.56793
-4.43755
-4.50462
-4.1435
0.000518369
0.00135039
0.00244533
0.00347869
0.00465476
0.00586514
0.00718367
0.00857743
0.0100773
0.0116771
0.0133942
0.015233
0.0172072
0.0193261
0.0216035
0.024052
0.0266864
0.0295221
0.0325759
0.0358658
0.0394108
0.0432316
0.04735
0.0517894
0.0565748
0.0617326
0.0672909
0.0732796
0.0797303
0.0866764
0.0941531
0.102198
0.110849
0.120148
0.130138
0.140862
0.152365
0.164694
0.177894
0.192011
0.207083
0.223147
0.240226
0.258327
0.277431
0.297485
0.318379
0.339933
0.361865
0.383767
0.405068
0.425013
0.442642
0.456805
0.466222
0.469593
0.465788
0.45402
0.434041
0.406025
0.370372
0.326808
0.273773
0.206775
0.118583
-0.00696137
-0.178734
-0.431508
-0.748862
-1.15453
-1.65528
-2.01189
-2.85952
-3.87423
-4.60985
-5.06628
-4.90641
-4.933
-4.56036
0.000547129
0.00144479
0.00261451
0.00372545
0.00498607
0.00628547
0.00769945
0.0091946
0.0108029
0.0125184
0.0143593
0.0163306
0.0184468
0.0207181
0.0231592
0.0257836
0.0286073
0.0316467
0.0349198
0.0384459
0.0422455
0.0463406
0.0507547
0.0555129
0.0606418
0.0661698
0.0721271
0.0785457
0.0854594
0.0929041
0.100917
0.109539
0.118812
0.128779
0.139485
0.150979
0.163308
0.176523
0.190673
0.205805
0.221965
0.239189
0.257506
0.276924
0.297427
0.31896
0.341411
0.364591
0.388206
0.411823
0.434839
0.456443
0.475604
0.491079
0.501471
0.505356
0.501488
0.489004
0.467646
0.437661
0.399585
0.353269
0.297166
0.226564
0.133489
5.37625e-05
-0.184971
-0.462101
-0.813642
-1.27866
-1.84466
-2.30416
-3.24554
-4.37
-5.19502
-5.60564
-5.40896
-5.389
-5.05973
0.000575314
0.00153917
0.00278275
0.00397123
0.00531582
0.00670395
0.00821286
0.00980892
0.011525
0.0133556
0.0153195
0.0174226
0.01968
0.0221029
0.0247067
0.027506
0.0305178
0.0337597
0.0372508
0.0410117
0.0450643
0.0494321
0.0541402
0.0592152
0.0646857
0.0705818
0.0769358
0.0837817
0.0911558
0.0990961
0.107643
0.116839
0.126729
0.137359
0.148779
0.161038
0.174189
0.188285
0.203379
0.219523
0.236764
0.255144
0.274694
0.295426
0.317326
0.340338
0.364348
0.389162
0.414472
0.439826
0.464584
0.487886
0.508628
0.52547
0.536896
0.54135
0.53746
0.524281
0.501547
0.46959
0.429109
0.380117
0.321122
0.247242
0.149767
0.00902399
-0.188949
-0.490883
-0.878385
-1.40761
-2.04442
-2.62814
-3.66431
-4.9184
-5.84266
-6.18984
-5.94776
-5.87623
-5.5246
0.000602995
0.0016336
0.00295014
0.00421608
0.00564406
0.00712056
0.00872385
0.0104203
0.0122435
0.0141885
0.0162748
0.0185088
0.0209066
0.02348
0.0262456
0.0292187
0.0324174
0.0358604
0.0395682
0.0435625
0.0478666
0.0525054
0.0575056
0.0628955
0.0687053
0.0749673
0.0817155
0.0889863
0.0968179
0.105251
0.114328
0.124095
0.134598
0.145888
0.158017
0.171037
0.185005
0.199977
0.21601
0.23316
0.251477
0.271008
0.291787
0.313829
0.337123
0.361614
0.387187
0.413642
0.440661
0.467772
0.494303
0.519345
0.54172
0.559988
0.572512
0.577593
0.573725
0.559872
0.53576
0.501822
0.458947
0.407351
0.345647
0.268839
0.167511
0.0201574
-0.190329
-0.51737
-0.942661
-1.54077
-2.25469
-2.98626
-4.11721
-5.52697
-6.56072
-6.82282
-6.52435
-6.37696
-5.97386
0.000630234
0.00172809
0.00311674
0.00446003
0.00597079
0.0075353
0.00923238
0.0110287
0.0129584
0.015017
0.0172249
0.019589
0.0221262
0.0248492
0.0277754
0.0309211
0.0343056
0.0379484
0.0418714
0.0460975
0.0506514
0.0555594
0.0608498
0.0665526
0.0726996
0.0793251
0.086465
0.0941578
0.102444
0.111367
0.120971
0.131305
0.142418
0.154363
0.167196
0.180973
0.195753
0.211596
0.228563
0.246713
0.266101
0.286777
0.30878
0.332129
0.356814
0.382783
0.409922
0.438026
0.466769
0.49566
0.523997
0.550821
0.574884
0.594645
0.608334
0.614104
0.610304
0.595797
0.570301
0.534364
0.489096
0.434962
0.370737
0.291379
0.186813
0.0336684
-0.188742
-0.541046
-1.006
-1.67731
-2.47585
-3.38195
-4.60602
-6.20527
-7.35861
-7.50883
-7.14095
-6.91927
-6.50581
0.000657084
0.00182268
0.0032826
0.0047031
0.00629603
0.00794814
0.00973837
0.0116339
0.0136694
0.015841
0.0181696
0.0206629
0.0233385
0.0262101
0.0292957
0.0326129
0.0361817
0.0400231
0.0441598
0.0486161
0.053418
0.0585934
0.064172
0.0701855
0.0766675
0.0836539
0.091183
0.099295
0.108033
0.117442
0.127569
0.138466
0.150185
0.162782
0.176315
0.190844
0.206431
0.223139
0.241034
0.260178
0.280632
0.302448
0.32567
0.35032
0.376394
0.403842
0.432549
0.46231
0.492791
0.523485
0.553663
0.582317
0.608127
0.629449
0.644376
0.650903
0.64722
0.632077
0.605186
0.567222
0.519551
0.462939
0.396381
0.314873
0.207753
0.0497762
-0.183795
-0.561333
-1.06785
-1.81616
-2.70856
-3.81749
-5.13008
-6.96344
-8.24745
-8.25236
-7.7974
-7.50211
-6.97664
0.000683588
0.00191737
0.00344776
0.00494532
0.00661977
0.00835903
0.0102418
0.012236
0.0143765
0.0166602
0.0191086
0.0217302
0.0245433
0.0275623
0.0308062
0.0342936
0.0380454
0.0420838
0.0464326
0.0511174
0.0561657
0.0616065
0.0674713
0.0737932
0.0806077
0.0879527
0.095868
0.104396
0.113582
0.123474
0.134122
0.145578
0.157899
0.171143
0.185371
0.200646
0.217034
0.234603
0.253421
0.273553
0.295066
0.318017
0.342452
0.3684
0.39586
0.424785
0.455064
0.48649
0.518725
0.551246
0.583299
0.613832
0.641452
0.664408
0.680653
0.688009
0.684493
0.668734
0.640429
0.6004
0.550303
0.49126
0.422558
0.339322
0.230404
0.0687029
-0.175066
-0.577554
-1.12749
-1.95608
-2.9536
-4.28973
-5.68535
-7.81086
-9.23978
-9.05776
-8.4933
-8.08928
-7.44767
0.000709783
0.00201218
0.00361226
0.00518669
0.00694201
0.00876795
0.0107425
0.0128347
0.0150795
0.0174745
0.0200418
0.0227906
0.0257401
0.0289054
0.0323065
0.0359626
0.0398961
0.0441299
0.0486893
0.0536009
0.0588935
0.0645978
0.0707466
0.0773746
0.0845193
0.09222
0.100519
0.10946
0.119092
0.129463
0.140626
0.152638
0.165556
0.179443
0.194361
0.210377
0.227562
0.245985
0.265719
0.286834
0.3094
0.333479
0.359122
0.386363
0.415205
0.445607
0.477461
0.510561
0.544564
0.578938
0.612904
0.645367
0.674863
0.699532
0.717179
0.725441
0.722149
0.70579
0.676046
0.6339
0.58134
0.519901
0.449237
0.36471
0.254826
0.0906708
-0.162123
-0.588976
-1.18405
-2.09572
-3.2115
-4.78936
-6.27604
-8.76251
-10.3499
-9.92993
-9.22989
-8.72495
-7.9589
0.0007357
0.00210712
0.00377613
0.00542721
0.00726273
0.00917484
0.0112405
0.0134299
0.0157781
0.0182837
0.0209689
0.023844
0.0269287
0.0302391
0.033796
0.0376197
0.0417333
0.046161
0.0509292
0.0560658
0.0616008
0.0675665
0.073997
0.0809288
0.0884009
0.0964547
0.105134
0.114486
0.124559
0.135405
0.147081
0.159644
0.173156
0.187679
0.203283
0.220036
0.238011
0.257282
0.277926
0.300017
0.32363
0.34883
0.375675
0.404204
0.434426
0.466304
0.499735
0.534516
0.570303
0.606556
0.642474
0.67692
0.708361
0.734828
0.753967
0.76322
0.76021
0.743268
0.712051
0.667724
0.612645
0.548828
0.476377
0.391009
0.281063
0.1159
-0.144518
-0.594864
-1.23654
-2.23368
-3.48231
-5.30886
-6.92223
-9.84284
-11.5953
-10.8738
-10.0078
-9.36923
-8.45919
0.000761361
0.00220218
0.00393939
0.00566688
0.00758193
0.00957966
0.0117357
0.0140216
0.0164724
0.0190875
0.0218897
0.02489
0.0281088
0.0315631
0.0352744
0.0392641
0.0435564
0.0481764
0.0531516
0.0585113
0.0642868
0.0705116
0.0772216
0.0844547
0.0922516
0.100656
0.109712
0.119471
0.129982
0.141301
0.153485
0.166595
0.180694
0.195851
0.212134
0.229618
0.248377
0.268491
0.290038
0.313099
0.337751
0.364067
0.392108
0.421919
0.453516
0.486869
0.52188
0.55835
0.595937
0.634095
0.672004
0.708491
0.741951
0.770304
0.791032
0.801367
0.798701
0.78119
0.748462
0.701873
0.644199
0.578002
0.503924
0.418171
0.309142
0.144605
-0.121786
-0.594461
-1.28388
-2.36848
-3.76573
-5.84758
-7.65175
-11.0702
-12.9972
-11.8944
-10.829
-10.0479
-9.01081
0.000786788
0.00229737
0.00410204
0.00590568
0.00789955
0.00998233
0.012228
0.0146096
0.0171621
0.0198858
0.0228039
0.0259283
0.02928
0.0328769
0.0367413
0.0408956
0.0453649
0.0501754
0.0553559
0.0609367
0.0669506
0.0734324
0.0804194
0.0879512
0.0960703
0.104821
0.114252
0.124414
0.13536
0.147147
0.159835
0.173487
0.188171
0.203955
0.220912
0.239121
0.258659
0.279608
0.302053
0.326077
0.351761
0.379185
0.408416
0.439504
0.472472
0.507297
0.54389
0.582057
0.62146
0.661549
0.70149
0.740075
0.775632
0.805966
0.828387
0.839901
0.837648
0.819584
0.785292
0.736344
0.675978
0.607375
0.531811
0.446127
0.339066
0.176993
-0.0934599
-0.586975
-1.3249
-2.49867
-4.06112
-6.40572
-8.48534
-12.457
-14.5816
-12.9975
-11.6948
-10.761
-9.51677
0.000811992
0.00239268
0.0042641
0.0061436
0.00821559
0.0103828
0.0127173
0.0151938
0.0178471
0.0206784
0.0237114
0.0269586
0.030442
0.0341801
0.0381963
0.0425136
0.0471583
0.0521576
0.0575415
0.0633414
0.0695915
0.0763279
0.0835895
0.0914174
0.0998556
0.108951
0.118753
0.129315
0.140691
0.152942
0.16613
0.18032
0.195582
0.211989
0.229616
0.248543
0.268853
0.290632
0.313966
0.338945
0.365656
0.394181
0.424594
0.456952
0.491287
0.527583
0.565759
0.60563
0.646864
0.688911
0.730927
0.77167
0.809404
0.841819
0.866047
0.878846
0.877079
0.858474
0.82256
0.771137
0.707954
0.636893
0.559958
0.474787
0.370812
0.21326
-0.0590629
-0.571576
-1.35843
-2.62282
-4.36741
-6.98226
-9.43355
-14.0181
-16.3791
-14.1886
-12.6066
-11.4642
-10.0333
0.000836984
0.00248811
0.00442556
0.00638061
0.00852998
0.010781
0.0132035
0.0157741
0.0185271
0.021465
0.0246117
0.0279808
0.0315945
0.0354725
0.0396388
0.0441176
0.048936
0.0541224
0.0597076
0.0657246
0.0722087
0.0791974
0.0867309
0.0948521
0.103607
0.113043
0.123213
0.134171
0.145974
0.158685
0.172368
0.187092
0.202927
0.219951
0.238241
0.257881
0.278957
0.301558
0.325775
0.351702
0.379431
0.409049
0.440637
0.47426
0.509956
0.547719
0.58748
0.629062
0.672142
0.716174
0.760306
0.80327
0.843267
0.87787
0.904023
0.918222
0.917023
0.89789
0.860284
0.806248
0.740098
0.666494
0.588271
0.504033
0.404326
0.253586
-0.0181221
-0.547394
-1.38302
-2.73936
-4.68306
-7.57523
-10.5092
-15.7694
-18.4264
-15.4744
-13.5668
-12.2088
-10.6032
0.000861769
0.00258365
0.00458642
0.00661668
0.00884269
0.0111769
0.0136864
0.0163502
0.0192021
0.0222455
0.0255048
0.0289943
0.0327371
0.0367535
0.0410685
0.0457072
0.0506975
0.056069
0.0618537
0.0680856
0.0748013
0.0820398
0.0898427
0.0982544
0.107322
0.117096
0.12763
0.138981
0.151207
0.164374
0.178548
0.193799
0.210203
0.227838
0.246786
0.267132
0.288967
0.312384
0.337477
0.364344
0.393082
0.423786
0.456542
0.491421
0.528473
0.567701
0.609046
0.652346
0.697286
0.74333
0.789622
0.834871
0.877218
0.914122
0.942329
0.958053
0.957508
0.937862
0.898483
0.841675
0.772375
0.696108
0.616642
0.53372
0.43952
0.298132
0.0298224
-0.513562
-1.39681
-2.84615
-5.00579
-8.18172
-11.7275
-17.7282
-20.7667
-16.8616
-14.576
-12.9912
-11.1068
0.000886349
0.00267928
0.00474666
0.00685178
0.00915367
0.0115703
0.0141661
0.0169222
0.0198718
0.0230196
0.0263903
0.029999
0.0338695
0.0380229
0.042485
0.0472818
0.0524423
0.057997
0.063979
0.0704236
0.0773686
0.0848544
0.092924
0.101623
0.111001
0.12111
0.132004
0.143743
0.156389
0.170007
0.184667
0.200442
0.217409
0.235649
0.255248
0.276294
0.298882
0.323106
0.349067
0.376866
0.406607
0.438387
0.472302
0.508432
0.546832
0.587521
0.63045
0.675472
0.722288
0.77037
0.818865
0.866464
0.911255
0.950578
0.980978
0.998362
0.998569
0.978423
0.937178
0.877415
0.804748
0.725659
0.644944
0.563668
0.476265
0.347035
0.0852042
-0.469248
-1.39795
-2.94089
-5.33223
-8.79793
-13.1079
-19.9138
-23.4527
-18.357
-15.6342
-13.739
-11.6115
0.000910724
0.00277501
0.00490627
0.00708586
0.00946285
0.0119612
0.0146423
0.0174897
0.020536
0.0237872
0.027268
0.0309946
0.0349913
0.0392802
0.0438878
0.048841
0.0541698
0.0599057
0.066083
0.072738
0.0799099
0.0876403
0.0959737
0.104958
0.114642
0.125082
0.136334
0.148457
0.161518
0.175582
0.190723
0.207016
0.224541
0.243381
0.263625
0.285365
0.308697
0.333722
0.360543
0.389266
0.419999
0.452849
0.487914
0.525285
0.565028
0.607172
0.651684
0.698434
0.747137
0.797283
0.848025
0.898042
0.945372
0.987241
1.01998
1.03917
1.04024
1.01961
0.976393
0.913465
0.837178
0.755064
0.673038
0.593664
0.514384
0.400401
0.148419
-0.413621
-1.38473
-3.02161
-5.6582
-9.41962
-14.6769
-22.3495
-26.5498
-19.9688
-16.7421
-14.5445
-12.1575
0.000934888
0.00287082
0.00506524
0.00731889
0.00977018
0.0123495
0.015115
0.0180527
0.0211946
0.0245479
0.0281376
0.0319808
0.0361023
0.0405251
0.0452765
0.0503843
0.0558795
0.0617945
0.0681649
0.075028
0.0824242
0.0903966
0.098991
0.108256
0.118245
0.129012
0.140617
0.153121
0.166592
0.181099
0.196716
0.213522
0.231598
0.251032
0.271914
0.29434
0.31841
0.344228
0.3719
0.401539
0.433257
0.467165
0.503373
0.541976
0.583054
0.626648
0.672741
0.721221
0.771824
0.824059
0.877091
0.929595
0.979562
1.02411
1.05935
1.08051
1.08255
1.06146
1.01615
0.949824
0.869622
0.784233
0.700766
0.623454
0.55365
0.458302
0.219812
-0.345874
-1.35539
-3.08633
-5.97808
-10.0428
-16.47
-25.053
-30.1349
-21.706
-17.8971
-15.325
-12.6195
0.000958835
0.0029667
0.00522353
0.00755082
0.0100756
0.012735
0.0155839
0.018611
0.0218474
0.0253016
0.0289988
0.0329572
0.037202
0.0417571
0.0466505
0.0519112
0.0575708
0.0636629
0.070224
0.0772928
0.0849108
0.0931224
0.101975
0.111519
0.121807
0.132898
0.144852
0.157733
0.17161
0.186554
0.202642
0.219955
0.238578
0.258599
0.280113
0.303219
0.328019
0.354621
0.383137
0.413682
0.446375
0.481333
0.518673
0.5585
0.600904
0.645942
0.693613
0.743825
0.796339
0.850686
0.906052
0.96111
1.01382
1.06118
1.0991
1.1224
1.12555
1.10401
1.05649
0.98649
0.902038
0.813071
0.727956
0.652742
0.59378
0.52077
0.299657
-0.26528
-1.30839
-3.13263
-6.28272
-10.6635
-18.521
-28.0234
-34.2885
-23.579
-19.0967
-16.1283
-13.1519
0.000982554
0.00306264
0.00538111
0.00778159
0.010379
0.0131178
0.0160491
0.0191645
0.0224941
0.026048
0.0298515
0.0339235
0.03829
0.0429758
0.0480096
0.0534212
0.0592432
0.0655102
0.0722599
0.0795318
0.087369
0.0958169
0.104924
0.114743
0.125329
0.13674
0.149039
0.162292
0.17657
0.191947
0.208501
0.226316
0.245478
0.266081
0.28822
0.311997
0.33752
0.364898
0.394249
0.425692
0.45935
0.495348
0.533809
0.57485
0.618572
0.665046
0.71429
0.766235
0.820669
0.877152
0.934893
0.992576
1.04813
1.09846
1.13923
1.16488
1.16928
1.14732
1.09744
1.02346
0.934379
0.841479
0.75442
0.681183
0.634424
0.587783
0.388118
-0.171318
-1.24285
-3.15864
-6.56134
-11.2796
-20.8391
-31.2428
-39.087
-25.5979
-20.3356
-16.9464
-13.5778
0.00100603
0.00315862
0.00553796
0.00801116
0.0106803
0.0134976
0.0165103
0.0197129
0.0231346
0.0267869
0.0306952
0.0348795
0.0393662
0.0441809
0.0493532
0.0549137
0.0608961
0.0673359
0.0742716
0.0817443
0.0897978
0.0984792
0.107839
0.117929
0.128808
0.140535
0.153175
0.166797
0.181471
0.197275
0.21429
0.232601
0.252297
0.273474
0.296231
0.320674
0.34691
0.375057
0.405233
0.437564
0.472177
0.509205
0.548777
0.591022
0.636051
0.683952
0.734764
0.788442
0.844804
0.903442
0.963599
1.02398
1.08249
1.13594
1.17976
1.20795
1.21377
1.19142
1.13903
1.06075
0.9666
0.869358
0.779954
0.708382
0.675164
0.659248
0.485161
-0.0639268
-1.15891
-3.16433
-6.80551
-11.8916
-23.3831
-34.7367
-44.6134
-27.7717
-21.6046
-17.689
-13.9571
0.00102926
0.00325464
0.00569403
0.00823945
0.0109795
0.0138744
0.0169674
0.020256
0.0237686
0.027518
0.0315297
0.0358247
0.0404299
0.0453719
0.0506809
0.0563884
0.062529
0.0691392
0.0762587
0.0839294
0.0921966
0.101108
0.110716
0.121075
0.132244
0.144283
0.157261
0.171245
0.186311
0.202538
0.220008
0.238808
0.259032