/*--------------------------------*- C++ -*----------------------------------*\
| =========                 |                                                 |
| \\      /  F ield         | OpenFOAM: The Open Source CFD Toolbox           |
|  \\    /   O peration     | Version:  4.1                                   |
|   \\  /    A nd           | Web:      www.OpenFOAM.org                      |
|    \\/     M anipulation  |                                                 |
\*---------------------------------------------------------------------------*/
FoamFile
{
    version     2.0;
    format      ascii;
    class       surfaceScalarField;
    location    "5";
    object      phi;
}
// * * * * * * * * * * * * * * * * * * * * * * * * * * * * * * * * * * * * * //

dimensions      [0 3 -1 0 0 0 0];

internalField   nonuniform List<scalar> 
13220
(
-806.003
2105.9
-1259.86
1754.06
-1725.12
1765.16
-2069.09
1643.87
-2352.33
1583.44
-2558.22
1505.78
-2694.94
1436.62
-2762.02
1367.28
-2763.74
1301.62
-2697.82
1233.97
-2551.02
1153.4
-2283.19
1032.08
-1805.34
822.047
-1027.15
522.009
272.746
-227.703
2333.6
-495.731
2022.08
-788.148
2057.57
-1020.89
1876.61
-1244.31
1806.86
-1422.07
1683.54
-1572.2
1586.74
-1686.49
1481.57
-1771.22
1386.34
-1820.83
1283.58
-1808.04
1140.61
-1666.8
890.825
-1289.64
444.894
-621.948
-145.69
-349.202
-135.819
2469.42
-323.467
2209.73
-449.032
2183.14
-518.039
1945.62
-572.823
1861.64
-585.282
1696
-573.98
1575.44
-532.643
1440.23
-464.706
1318.4
-373.676
1192.55
-269.882
1036.82
-172.187
793.119
-93.813
366.493
-61.655
-177.877
-410.857
89.7673
2379.65
84.8772
2214.61
138.044
2129.97
211.72
1871.94
291.42
1781.94
387.364
1600.05
493.186
1469.62
606.533
1326.88
724.575
1200.36
841.283
1075.84
936.64
941.459
950.48
779.279
765.193
551.78
264.69
322.627
-146.168
103.143
2276.51
150.537
2167.22
227
2053.5
310.046
1788.89
391.671
1700.31
486.288
1505.43
575.98
1379.92
669.936
1232.93
758.728
1111.57
836.263
998.303
880.708
897.014
852.113
807.87
688.88
715.01
404.744
606.757
258.577
29.5832
2246.92
73.9262
2122.88
117.327
2010.1
140.93
1765.29
162.329
1678.91
185.044
1482.72
239.358
1325.61
366.902
1105.38
557.971
920.499
765.708
790.568
906.784
755.938
907.584
807.077
731.059
891.541
427.557
910.267
686.134
-116.404
2363.32
-182.43
2188.9
-263.621
2091.29
-394.792
1896.46
-529.317
1813.44
-684.179
1637.58
-788.18
1429.61
-799.428
1116.63
-708.677
829.748
-530.818
612.709
-286.515
511.636
-31.336
551.892
137.237
722.963
145.747
901.753
831.881
-126.279
2489.6
-346.677
2409.3
-521.545
2266.16
-720.803
2095.72
-927.193
2019.83
-1155.16
1865.55
-1396.57
1671.01
-1640.54
1360.61
-1856.24
1045.45
-1986.42
742.887
-1943.68
468.902
-1645.32
253.541
-1100.14
177.788
-465.786
267.407
366.095
142.763
2346.84
-57.9289
2609.99
-170.042
2378.27
-236.351
2162.03
-278.033
2061.51
-322.124
1909.64
-399.489
1748.38
-544.401
1505.52
-739.462
1240.51
-956.568
959.992
-1155.56
667.899
-1254.67
352.644
-1129.27
52.3843
-702.969
-158.897
-336.874
351.175
1995.67
332.141
2629.03
333.233
2377.18
406.297
2088.96
529.009
1938.8
656.611
1782.04
767.609
1637.38
811.664
1461.46
781.039
1271.14
674.847
1066.19
495.593
847.153
241.243
607.004
-26.2386
319.884
-119.209
-65.908
-456.083
270.979
1724.69
343.661
2556.35
399.843
2321
492.84
1995.97
614.425
1817.22
737.999
1658.47
853.255
1522.13
939.341
1375.38
984.714
1225.77
979.485
1071.42
918.139
908.502
790.999
734.142
583.658
527.224
259.421
258.328
-196.662
122.851
1601.84
190.347
2488.85
248.973
2262.38
309.629
1935.31
372.208
1754.64
432.992
1597.69
488.645
1466.48
533.191
1330.84
560.046
1198.91
563.312
1068.15
535.882
935.932
474.547
795.483
371.473
630.305
227.204
402.612
30.5422
87.8946
1513.95
139.204
2437.55
191.919
2209.66
265.572
1861.66
316.92
1703.29
348.896
1565.71
366.726
1448.65
379.997
1317.57
382.17
1196.74
374.772
1075.55
352.741
957.965
313.297
834.928
253.52
690.082
168.397
487.739
198.939
239.765
1274.18
314.999
2362.31
201.129
2323.53
64.5199
1998.27
-1.02385
1768.84
-21.0761
1585.76
-17.302
1444.87
-6.85571
1307.12
5.31722
1184.57
16.0445
1064.82
23.8553
950.154
26.0501
832.734
15.8567
700.277
-9.31023
512.909
189.629
582.762
1470.01
1981
2102.63
1991.66
1900.41
1845.48
1786.57
1699.76
1572.83
1391.4
1160.64
873.597
491.102
-2.8337e-05
213.821
-213.821
213.821
213.821
213.821
424.297
-210.476
424.297
424.297
424.297
582.887
-158.59
582.887
582.887
701.507
-118.62
701.507
701.507
701.507
780.864
-79.3568
780.864
780.864
819.84
-38.9758
819.84
819.84
819.84
827.685
-7.84539
827.685
827.685
827.685
816.013
11.6726
816.013
816.013
790.017
25.9956
790.017
790.017
790.017
755.108
34.9093
755.108
755.108
708.853
46.2544
708.853
708.853
708.853
661.334
47.5187
661.334
661.334
661.334
618.155
43.1798
618.155
618.155
579.168
38.9862
579.168
579.168
579.168
546.162
33.0066
546.162
546.162
546.162
584.478
-38.3163
584.478
584.478
592.474
-7.99565
592.474
592.474
592.474
408.103
184.371
408.103
408.103
100.058
308.045
100.058
100.058
100.058
-722.457
822.515
-722.457
-722.457
-722.457
-2325.11
1602.65
-2325.11
-2325.11
-4386.08
2060.97
-4386.08
-4386.08
-4258.57
-4133.9
-4005.27
-6150.89
2269.31
-6017.69
-5860.33
-5691.23
-5522.7
-5354.55
-5187.72
-5015.91
-4831.77
-7048.04
2396.99
-6859.4
-6671.19
-6483.64
-6283.58
-6083.66
-5884.33
-5685.34
-5485.27
-7741.37
2461.65
-7528.26
-7315.49
-7102.92
-6890.56
-6674.45
-6451.03
-6228.32
-6004.76
-5779.76
-8024.13
2467.68
-7787.23
-7549.33
-7310.98
-7072.44
-6833.31
-6584.48
-6329.54
-6072.61
-8287
2470.63
-8030.38
-7765.96
-7490.28
-7212.27
-6930.77
-6646.31
-6356.93
-6045.47
-8250.53
2513.58
-7939.3
-7622.21
-7300.76
-6957.86
-6604.15
-6248.68
-5890.75
-5533.8
-7377.46
2194.55
-7013.59
-6656.49
-6306.03
-5963.56
-5629.04
-5274.87
-4928.73
-4587.37
-4253.54
-4673.2
753.676
-4368.74
-4077.79
-3794.34
-3520.46
-3256.71
-3042.47
-2911.27
-2779.83
-2698.69
56.9164
-2578.4
-2464.04
-2464.04
-2522.61
58.5709
-2535.2
12.5898
-2535.2
-2558.43
23.2311
-2558.43
-2588.53
30.1053
-2603.62
15.0822
-2603.62
-2625.13
21.509
-2629.29
4.15957
-2629.29
-2629.5
0.217513
-2629.5
-2628.84
-0.659349
-2607.79
-21.0552
-2607.79
-2583.65
-24.1414
-2583.65
-2560.07
-23.5811
-2515.62
-44.4422
-2515.62
-2475.26
-40.3651
-2419.25
-56.011
-2419.25
-2363.42
-55.8243
-2363.42
-2311.87
-51.5507
-2246.96
-64.9138
-2246.96
-2181.08
-65.8741
-2181.08
-2116.68
-64.4049
-2040.04
-76.6438
-2040.04
-1969.3
-70.7323
-1891.03
-78.2717
-1891.03
-1814.11
-76.9233
-1814.11
-1742.63
-71.4794
-1665.9
-76.7324
-1665.9
-1589.65
-76.2481
-1589.65
-1519.2
-70.4442
-1447.82
-71.3842
-1447.82
-1385.95
-61.8667
-1330.58
-55.3777
-1330.58
-1292.64
-37.9315
-1292.64
-1275.74
-16.9011
-1257.85
-17.8923
-1257.85
-1241.89
-15.9637
-1241.89
-1223.36
-18.5319
-1183.78
-39.5798
-1183.78
-1137.7
-46.0775
-1075.04
-62.6614
-1075.04
-1004.71
-70.3243
-1004.71
-931.906
-72.8064
-850.501
-81.4053
-850.501
-763.91
-86.5912
-763.91
-668.879
-95.0311
-566.308
-102.571
-566.308
-441.095
-125.213
-306.323
-134.772
-306.323
-166.699
-139.624
-166.699
-145.079
-5.06271
-25.8789
-4.99329
-36.013
-4.99345
-43.1542
-5.00282
-49.8434
-5.04091
-56.519
-5.09517
-62.898
-5.17114
-69.2679
-5.26522
-75.5494
-5.37919
-81.8521
-5.51193
-88.1698
-5.66404
-94.5547
-5.83515
-101.021
-6.02553
-107.601
-6.23513
-114.313
-6.46416
-121.183
-6.71275
-128.231
-6.98119
-135.478
-7.26975
-142.943
-7.57882
-150.648
-7.90884
-158.61
-8.26032
-166.851
-8.63385
-175.388
-9.03007
-184.243
-9.44971
-193.433
-9.89357
-202.98
-10.3625
-212.903
-10.8575
-223.221
-11.3795
-233.956
-11.9297
-245.129
-12.5092
-256.761
-13.1192
-268.873
-13.7611
-281.489
-14.4362
-294.63
-15.146
-308.32
-15.8919
-322.583
-16.6756
-337.442
-17.4985
-352.922
-18.3624
-369.049
-19.2688
-385.845
-20.2191
-403.337
-21.2149
-421.547
-22.2573
-440.497
-23.3471
-460.208
-24.485
-480.696
-25.6705
-501.97
-26.9025
-524.035
-28.1786
-546.883
-29.4946
-570.491
-30.844
-594.819
-32.2173
-619.8
-33.6015
-645.336
-34.9788
-671.293
-36.3259
-697.491
-37.6127
-723.703
-38.8017
-749.649
-39.8463
-774.998
-40.6898
-799.375
-41.2633
-822.362
-41.4834
-843.506
-41.2467
-862.298
-40.4256
-878.166
-38.8555
-890.334
-36.3322
-897.807
-32.5899
-898.94
-27.328
-891.565
-20.1788
-871.726
-10.8852
-835.072
0.75095
-772.096
14.1617
-675.446
28.2564
-524.234
40.9643
-285.884
48.4427
188.916
45.464
488.982
45.2695
847.062
37.3408
1098.79
47.7411
1526.93
32.9727
1509.3
93.1254
2325.84
2592.86
-5.8301
-26.0012
-5.7297
-36.1134
-5.71964
-43.1643
-5.72381
-49.8393
-5.76302
-56.4798
-5.822
-62.8391
-5.90639
-69.1836
-6.01184
-75.4439
-6.14011
-81.7238
-6.28978
-88.0201
-6.46141
-94.3831
-6.65452
-100.828
-6.86934
-107.386
-7.10577
-114.077
-7.364
-120.925
-7.64417
-127.951
-7.94653
-135.175
-8.27139
-142.618
-8.61914
-150.3
-8.99025
-158.239
-9.38527
-166.456
-9.80481
-174.969
-10.2496
-183.798
-10.7203
-192.963
-11.218
-202.482
-11.7434
-212.377
-12.2976
-222.667
-12.8817
-233.372
-13.4968
-244.514
-14.1442
-256.114
-14.8252
-268.192
-15.5412
-280.773
-16.2937
-293.878
-17.0841
-307.53
-17.914
-321.753
-18.7851
-336.571
-19.6989
-352.009
-20.6571
-368.09
-21.6613
-384.841
-22.7129
-402.285
-23.8132
-420.447
-24.9632
-439.347
-26.1636
-459.008
-27.4141
-479.445
-28.714
-500.67
-30.061
-522.688
-31.4514
-545.493
-32.8792
-569.064
-34.3357
-593.362
-35.8086
-618.327
-37.2812
-643.863
-38.7314
-669.842
-40.1311
-696.092
-41.4448
-722.389
-42.6292
-748.465
-43.6321
-773.995
-44.3913
-798.616
-44.8325
-821.92
-44.8666
-843.472
-44.3829
-862.781
-43.2431
-879.305
-41.2655
-892.311
-38.22
-900.852
-33.8031
-903.357
-27.6691
-897.699
-19.3963
-879.999
-8.69718
-845.771
4.61592
-785.409
19.9639
-690.794
35.9669
-540.237
50.4909
-300.408
57.1624
182.245
50.5222
495.622
48.0661
849.518
39.2093
1107.64
47.8719
1518.26
32.6807
1524.49
89.9061
2268.61
2543.14
-6.24749
-26.1399
-6.13624
-36.2247
-6.11995
-43.1806
-6.12194
-49.8373
-6.16178
-56.4399
-6.2237
-62.7771
-6.3129
-69.0944
-6.42489
-75.3319
-6.56124
-81.5875
-6.72046
-87.8609
-6.90304
-94.2005
-7.10847
-100.622
-7.33692
-107.157
-7.5883
-113.826
-7.86276
-120.651
-8.16044
-127.653
-8.48159
-134.854
-8.82653
-142.273
-9.19566
-149.931
-9.58945
-157.845
-10.0085
-166.037
-10.4534
-174.524
-10.9249
-183.327
-11.4237
-192.464
-11.9509
-201.955
-12.5073
-211.821
-13.094
-222.08
-13.7121
-232.754
-14.3628
-243.863
-15.0474
-255.429
-15.7673
-267.473
-16.5239
-280.016
-17.3186
-293.083
-18.153
-306.695
-19.0288
-320.877
-19.9475
-335.652
-20.9109
-351.045
-21.9204
-367.081
-22.9778
-383.784
-24.0844
-401.179
-25.2415
-419.29
-26.4499
-438.139
-27.71
-457.748
-29.0214
-478.134
-30.3828
-499.309
-31.7915
-521.28
-33.243
-544.041
-34.7302
-567.576
-36.243
-591.85
-37.7676
-616.802
-39.2853
-642.346
-40.7716
-668.356
-42.1957
-694.667
-43.5193
-721.066
-44.6965
-747.287
-45.6722
-773.02
-46.382
-797.906
-46.7496
-821.553
-46.6838
-843.538
-46.0707
-863.394
-44.7667
-880.609
-42.5811
-894.497
-39.2689
-904.165
-34.5048
-908.121
-27.9147
-904.289
-19.0449
-888.869
-7.57941
-857.236
6.67284
-799.661
23.1676
-707.289
40.3755
-557.445
57.5014
-317.534
66.952
172.794
58.3697
504.204
52.6059
855.282
41.6849
1118.57
48.0491
1511.9
31.6522
1540.89
84.9611
2215.3
2493.33
-6.72755
-26.2931
-6.60714
-36.3451
-6.58586
-43.2018
-6.58651
-49.8366
-6.628
-56.3985
-6.69403
-62.7111
-6.78944
-68.9989
-6.90957
-75.2118
-7.05584
-81.4412
-7.22669
-87.69
-7.42253
-94.0047
-7.64279
-100.402
-7.88764
-106.913
-8.15693
-113.556
-8.45082
-120.357
-8.76944
-127.335
-9.11305
-134.511
-9.48196
-141.905
-9.8766
-149.536
-10.2974
-157.424
-10.7451
-165.589
-11.2202
-174.049
-11.7236
-182.823
-12.256
-191.931
-12.8184
-201.393
-13.4117
-211.227
-14.0372
-221.455
-14.6959
-232.095
-15.3891
-243.17
-16.1181
-254.7
-16.8843
-266.706
-17.6893
-279.211
-18.5345
-292.238
-19.4215
-305.808
-20.3521
-319.946
-21.3278
-334.676
-22.3504
-350.023
-23.4215
-366.01
-24.5426
-382.663
-25.7152
-400.006
-26.9404
-418.064
-28.2189
-436.861
-29.5509
-456.416
-30.9358
-476.749
-32.3717
-497.873
-33.8553
-519.796
-35.3813
-542.515
-36.9414
-566.016
-38.5242
-590.267
-40.1139
-615.212
-41.6894
-640.77
-43.2238
-666.822
-44.6831
-693.208
-46.0258
-719.723
-47.2022
-746.111
-48.1545
-772.068
-48.815
-797.246
-49.1049
-821.263
-48.9305
-843.712
-48.1745
-864.15
-46.6876
-882.096
-44.2692
-896.915
-40.6582
-907.776
-35.5044
-913.275
-28.3995
-911.394
-18.8481
-898.42
-6.49405
-869.59
8.87772
-815.033
26.7563
-725.167
45.5453
-576.234
64.4243
-336.413
77.2982
159.92
68.5895
512.913
58.9119
864.96
45.0477
1132.43
48.3835
1508.56
30.4967
1558.78
78.8621
2166.94
2446.98
-7.18207
-26.4557
-7.05681
-36.4703
-7.0318
-43.2268
-7.03212
-49.8363
-7.07579
-56.3548
-7.14627
-62.6406
-7.2481
-68.8971
-7.37647
-75.0834
-7.53266
-81.285
-7.71505
-87.5076
-7.92397
-93.7958
-8.15884
-100.167
-8.41975
-106.652
-8.70658
-113.269
-9.01947
-120.044
-9.35852
-126.996
-9.72401
-134.145
-10.1163
-141.512
-10.5357
-149.117
-10.9829
-156.977
-11.4583
-165.113
-11.9628
-173.544
-12.4971
-182.289
-13.062
-191.366
-13.6585
-200.796
-14.2878
-210.598
-14.9508
-220.792
-15.6488
-231.397
-16.3831
-242.436
-17.1552
-253.928
-17.9663
-265.895
-18.8181
-278.36
-19.7122
-291.344
-20.6502
-304.87
-21.6338
-318.963
-22.6647
-333.645
-23.7447
-348.943
-24.8753
-364.879
-26.0581
-381.48
-27.2946
-398.77
-28.5857
-416.773
-29.9322
-435.514
-31.3339
-455.014
-32.7899
-475.293
-34.298
-496.365
-35.8544
-518.24
-37.4527
-540.917
-39.0838
-564.385
-40.7348
-588.616
-42.3881
-613.559
-44.0206
-639.138
-45.6027
-665.24
-47.0974
-691.713
-48.4602
-718.36
-49.6382
-744.933
-50.5704
-771.135
-51.1869
-796.63
-51.4066
-821.043
-51.1338
-843.985
-50.2489
-865.035
-48.5979
-883.747
-45.9718
-899.541
-42.0943
-911.653
-36.5911
-918.778
-29.0189
-918.966
-18.838
-908.601
-5.6434
-882.785
10.8201
-831.497
30.0882
-744.435
50.5509
-596.697
71.5865
-357.448
88.7226
142.784
80.8763
520.759
67.4037
878.432
49.5667
1150.27
49.3069
1508.82
29.319
1578.76
74.1369
2122.12
2418.55
-7.63142
-26.6246
-7.50398
-36.5978
-7.47658
-43.2542
-7.47757
-49.8353
-7.52408
-56.3083
-7.5996
-62.5651
-7.70832
-68.7884
-7.84539
-74.9463
-8.01192
-81.1185
-8.20626
-87.3133
-8.42866
-93.5734
-8.67851
-99.9174
-8.95589
-106.374
-9.26064
-112.965
-9.59289
-119.712
-9.95276
-126.636
-10.3405
-133.757
-10.7565
-141.096
-11.2012
-148.672
-11.675
-156.503
-12.1787
-164.61
-12.713
-173.01
-13.2786
-181.723
-13.8765
-190.769
-14.5077
-200.165
-15.1732
-209.933
-15.8743
-220.091
-16.6122
-230.66
-17.3882
-241.66
-18.2038
-253.112
-19.0605
-265.039
-19.9598
-277.46
-20.9034
-290.4
-21.893
-303.881
-22.9303
-317.925
-24.0172
-332.559
-25.1552
-347.805
-26.3462
-363.688
-27.5916
-380.234
-28.8929
-397.468
-30.2509
-415.415
-31.6663
-434.099
-33.1388
-453.542
-34.6672
-473.764
-36.2489
-494.783
-37.8794
-516.609
-39.5517
-539.245
-41.2557
-562.681
-42.977
-586.894
-44.6963
-611.84
-46.3884
-637.445
-48.0211
-663.607
-49.5547
-690.18
-50.9413
-716.974
-52.125
-743.749
-53.0419
-770.218
-53.6195
-796.052
-53.7751
-820.888
-53.4113
-844.349
-52.4069
-866.04
-50.6041
-885.55
-47.7861
-902.359
-43.6624
-915.777
-37.8346
-924.606
-29.8225
-926.978
-19.0371
-919.387
-5.01436
-896.808
12.5581
-849.069
33.2734
-765.151
55.5592
-618.983
79.0822
-380.971
100.61
121.257
94.463
526.906
78.1498
894.745
55.6358
1172.78
51.0365
1513.42
28.5906
1601.21
68.757
2081.95
2392.27
-8.07221
-26.797
-7.94498
-36.725
-7.91635
-43.2829
-7.91895
-49.8327
-7.9689
-56.2583
-8.04997
-62.484
-8.16601
-68.6724
-8.31214
-74.8002
-8.48935
-80.9413
-8.69594
-87.1067
-8.9321
-93.3372
-9.19719
-99.6523
-9.49126
-106.08
-9.81415
-112.642
-10.166
-119.36
-10.5469
-126.255
-10.9571
-133.347
-11.3969
-140.656
-11.867
-148.202
-12.3677
-156.003
-12.8998
-164.078
-13.4639
-172.446
-14.0611
-181.126
-14.6921
-190.138
-15.358
-199.499
-16.0601
-209.231
-16.7993
-219.351
-17.5772
-229.882
-18.3951
-240.842
-19.2544
-252.253
-20.1567
-264.136
-21.1037
-276.513
-22.097
-289.407
-23.1383
-302.839
-24.2296
-316.834
-25.3725
-331.416
-26.5689
-346.608
-27.8204
-362.437
-29.1287
-378.926
-30.4949
-396.102
-31.9202
-413.99
-33.4049
-432.614
-34.9486
-451.998
-36.5498
-472.163
-38.2057
-493.127
-39.9111
-514.904
-41.6583
-537.497
-43.4361
-560.903
-45.229
-585.102
-47.016
-610.053
-48.7697
-635.692
-50.4554
-661.921
-52.0306
-688.605
-53.4443
-715.56
-54.6375
-742.556
-55.5435
-769.312
-56.0875
-795.508
-56.1853
-820.79
-55.7388
-844.795
-54.6253
-867.153
-52.6846
-887.491
-49.6935
-905.35
-45.3478
-920.123
-39.2256
-930.728
-30.8078
-935.396
-19.4518
-930.743
-4.62461
-911.635
14.0596
-867.753
36.2623
-787.354
60.4917
-643.212
86.6663
-407.146
112.633
95.2902
108.771
530.768
91.0315
912.485
63.7177
1200.09
53.8984
1523.24
28.5347
1626.57
64.2707
2046.22
2369.95
-8.5061
-26.9705
-8.38087
-36.8502
-8.35216
-43.3116
-8.35724
-49.8276
-8.41126
-56.2043
-8.49841
-62.3969
-8.62219
-68.5486
-8.77778
-74.6446
-8.96602
-80.753
-9.18518
-86.8875
-9.4354
-93.087
-9.71602
-99.3717
-10.0271
-105.769
-10.3684
-112.3
-10.74
-118.988
-11.1421
-125.853
-11.575
-132.914
-12.039
-140.192
-12.5347
-147.706
-13.0625
-155.475
-13.6232
-163.517
-14.2175
-171.852
-14.8463
-180.497
-15.5107
-189.473
-16.2116
-198.798
-16.9503
-208.492
-17.7281
-218.574
-18.5462
-229.064
-19.4061
-239.982
-20.3094
-251.35
-21.2576
-263.188
-22.2525
-275.518
-23.2958
-288.363
-24.3892
-301.746
-25.5347
-315.689
-26.7341
-330.216
-27.9891
-345.353
-29.3016
-361.124
-30.673
-377.555
-32.1048
-394.67
-33.5978
-412.497
-35.1523
-431.06
-36.7678
-450.382
-38.4426
-470.488
-40.1734
-491.397
-41.9547
-513.122
-43.7779
-535.674
-45.6311
-559.05
-47.4972
-583.235
-49.3538
-608.196
-51.1714
-633.874
-52.9129
-660.18
-54.533
-686.985
-55.9775
-714.115
-57.1845
-741.349
-58.0844
-768.413
-58.6004
-794.992
-58.6472
-820.743
-58.1262
-845.316
-56.9146
-868.365
-54.8505
-889.555
-51.7055
-908.495
-47.163
-924.665
-40.7777
-937.113
-31.99
-944.183
-20.0991
-942.634
-4.4925
-927.242
15.3049
-887.551
39.0355
-811.084
65.3286
-669.505
94.1679
-435.985
124.883
64.5747
123.546
532.105
105.766
930.265
74.1948
1231.67
58.3357
1539.1
29.4567
1655.45
61.2474
2014.43
2349.79
-8.93351
-27.1433
-8.81178
-36.972
-8.78404
-43.3393
-8.79243
-49.8192
-8.85111
-56.1456
-8.94484
-62.3031
-9.0768
-68.4166
-9.24223
-74.4792
-9.44185
-80.5534
-9.67392
-86.6555
-9.9385
-92.8224
-10.2349
-99.0752
-10.5632
-105.441
-10.9232
-111.941
-11.3149
-118.597
-11.7385
-125.429
-12.1943
-132.459
-12.6827
-139.704
-13.2042
-147.185
-13.7593
-154.92
-14.3488
-162.928
-14.9734
-171.227
-15.6342
-179.837
-16.3322
-188.775
-17.0683
-198.062
-17.844
-207.716
-18.6604
-217.757
-19.5189
-228.205
-20.4212
-239.08
-21.3687
-250.402
-22.3631
-262.194
-23.4062
-274.475
-24.4997
-287.27
-25.6455
-300.6
-26.8455
-314.489
-28.1017
-328.96
-29.4157
-344.039
-30.7895
-359.75
-32.2246
-376.12
-33.7222
-393.173
-35.2834
-410.936
-36.9083
-429.435
-38.5962
-448.694
-40.3453
-468.739
-42.1519
-489.59
-44.01
-511.264
-45.9105
-533.774
-47.8404
-557.12
-49.7815
-581.294
-51.7098
-606.268
-53.5938
-631.99
-55.3941
-658.379
-57.0623
-685.316
-58.5416
-712.636
-59.7667
-740.124
-60.6655
-767.514
-61.1593
-794.498
-61.1619
-820.74
-60.5749
-845.903
-59.2764
-869.663
-57.1038
-891.728
-53.825
-911.774
-49.1122
-929.378
-42.4972
-943.728
-33.3782
-953.302
-20.9917
-955.02
-4.63522
-943.598
16.2713
-908.457
41.5652
-836.378
70.0348
-697.975
101.325
-467.275
137.225
28.6747
138.66
530.67
121.908
947.018
87.1601
1266.41
64.7796
1561.48
31.6511
1688.58
56.1241
1989.95
2333.11
-9.35506
-27.314
-9.23802
-37.089
-9.21221
-43.3651
-9.22469
-49.8068
-9.28863
-56.0817
-9.38944
-62.2023
-9.53
-68.2761
-9.70568
-74.3035
-9.91702
-80.3421
-10.1623
-86.4102
-10.4416
-92.5431
-10.7541
-98.7627
-11.0999
-105.095
-11.4788
-111.562
-11.8909
-118.185
-12.3362
-124.984
-12.8152
-131.98
-13.3282
-139.191
-13.8757
-146.637
-14.4583
-154.337
-15.0769
-162.309
-15.7322
-170.572
-16.4251
-179.144
-17.1568
-188.044
-17.9285
-197.29
-18.7412
-206.903
-19.5966
-216.902
-20.4959
-227.306
-21.4407
-238.135
-22.4327
-249.41
-23.4736
-261.153
-24.5651
-273.384
-25.7092
-286.126
-26.9077
-299.401
-28.1626
-313.234
-29.4758
-327.647
-30.8493
-342.666
-32.2848
-358.315
-33.7839
-374.621
-35.348
-391.609
-36.9778
-409.306
-38.6737
-427.739
-40.4348
-446.933
-42.2589
-466.915
-44.1422
-487.707
-46.0783
-509.328
-48.0573
-531.795
-50.0654
-555.112
-52.0834
-579.276
-54.0856
-604.266
-56.0387
-630.037
-57.9008
-656.517
-59.6209
-683.596
-61.139
-711.118
-62.387
-738.876
-63.2899
-766.611
-63.7675
-794.02
-63.7329
-820.775
-63.0888
-846.547
-61.7146
-871.037
-59.4489
-893.993
-56.0572
-915.166
-51.2018
-934.233
-44.3926
-950.537
-34.984
-962.711
-22.145
-967.859
-5.07242
-960.671
16.9334
-930.463
43.8208
-863.265
74.5832
-728.737
108.537
-501.229
148.707
-11.4958
154.056
525.321
138.991
962.083
102.305
1303.1
73.5333
1590.25
35.6133
1726.5
52.3054
1973.26
2315.09
-9.77125
-27.4812
-9.65986
-37.2004
-9.63688
-43.3881
-9.65418
-49.7895
-9.72395
-56.0119
-9.83234
-62.0939
-9.98194
-68.1265
-10.1682
-74.1172
-10.3917
-80.1186
-10.6505
-86.1513
-10.9448
-92.2489
-11.2738
-98.4337
-11.6374
-104.731
-12.0355
-111.164
-12.4681
-117.752
-12.9355
-124.516
-13.4378
-131.477
-13.9757
-138.653
-14.5495
-146.064
-15.1599
-153.727
-15.8077
-161.661
-16.4938
-169.886
-17.2192
-178.418
-17.985
-187.278
-18.7923
-196.483
-19.6425
-206.053
-20.537
-216.007
-21.4773
-226.365
-22.465
-237.147
-23.5017
-248.374
-24.5894
-260.065
-25.7297
-272.243
-26.9247
-284.931
-28.1762
-298.15
-29.4863
-311.924
-30.8571
-326.276
-32.2903
-341.232
-33.7879
-356.817
-35.3516
-373.057
-36.9825
-389.978
-38.6817
-407.607
-40.4491
-425.971
-42.284
-445.099
-44.1841
-465.015
-46.1451
-485.746
-48.1602
-507.313
-50.2191
-529.736
-52.3071
-553.024
-54.404
-577.179
-56.4825
-602.187
-58.5075
-628.012
-60.4348
-654.59
-62.2106
-681.821
-63.7719
-709.557
-65.0476
-737.6
-65.9601
-765.698
-66.4275
-793.553
-66.363
-820.839
-65.6706
-847.24
-64.2326
-872.475
-61.8895
-896.336
-58.4065
-918.649
-53.4375
-939.202
-46.4714
-957.504
-36.8179
-972.364
-23.5737
-981.103
-5.82426
-978.42
17.264
-953.551
45.7682
-891.77
78.9337
-761.903
115.894
-538.189
159.53
-55.1318
169.784
515.067
156.679
975.187
119.024
1340.76
84.5634
1624.71
41.7311
1769.33
50.9018
1964.09
2303.33
-10.1825
-27.6439
-10.0776
-37.3053
-10.0583
-43.4074
-10.0811
-49.7667
-10.1572
-55.9358
-10.2737
-61.9775
-10.4327
-67.9674
-10.6301
-73.9199
-10.8659
-79.8827
-11.1387
-85.8785
-11.4483
-91.9393
-11.794
-98.088
-12.1757
-104.35
-12.5932
-110.746
-13.0468
-117.298
-13.5364
-124.027
-14.0624
-130.951
-14.6254
-138.09
-15.2257
-145.463
-15.8642
-153.088
-16.5415
-160.984
-17.2587
-169.168
-18.0168
-177.66
-18.8168
-186.478
-19.6601
-195.64
-20.548
-205.165
-21.482
-215.073
-22.4635
-225.384
-23.4944
-236.116
-24.5762
-247.292
-25.7109
-258.93
-26.9004
-271.054
-28.1465
-283.685
-29.4515
-296.845
-30.8172
-310.558
-32.2458
-324.848
-33.7393
-339.739
-35.2995
-355.257
-36.9282
-371.428
-38.6266
-388.279
-40.3956
-405.838
-42.2353
-424.132
-44.1448
-443.189
-46.1216
-463.038
-48.1613
-483.706
-50.2567
-505.218
-52.397
-527.595
-54.5667
-550.854
-56.7445
-575.002
-58.9019
-600.03
-61.0018
-625.912
-62.9978
-652.594
-64.8334
-679.985
-66.4425
-707.948
-67.751
-736.292
-68.6788
-764.771
-69.1425
-793.089
-69.0553
-820.927
-68.3237
-847.971
-66.8335
-873.966
-64.4291
-898.741
-60.8769
-922.201
-55.8247
-944.254
-48.7414
-964.587
-38.891
-982.215
-25.2935
-994.701
-6.91233
-996.801
17.2336
-977.697
47.3703
-921.906
83.0326
-797.565
123.108
-578.265
170.463
-102.487
185.956
499.575
174.82
986.323
136.66
1378.92
97.3732
1664
49.7242
1816.98
45.9905
1967.83
2303.25
-10.5893
-27.8013
-10.4915
-37.4032
-10.4766
-43.4223
-10.5055
-49.7377
-10.5886
-55.8527
-10.7136
-61.8525
-10.8826
-67.7985
-11.0913
-73.7112
-11.34
-79.634
-11.627
-85.5915
-11.9522
-91.6141
-12.3149
-97.7253
-12.715
-103.95
-13.1524
-110.309
-13.627
-116.824
-14.1392
-123.515
-14.6892
-130.401
-15.2775
-137.502
-15.9046
-144.836
-16.5714
-152.421
-17.2785
-160.277
-18.0271
-168.42
-18.8181
-176.869
-19.6527
-185.643
-20.5322
-194.76
-21.4581
-204.239
-22.4318
-214.1
-23.4549
-224.361
-24.5292
-235.042
-25.6565
-246.164
-26.8386
-257.748
-28.0775
-269.815
-29.3753
-282.387
-30.734
-295.486
-32.1558
-309.136
-33.6427
-323.361
-35.1968
-338.185
-36.8201
-353.634
-38.5143
-369.734
-40.2807
-386.513
-42.1203
-403.998
-44.033
-422.219
-46.0178
-441.204
-48.0724
-460.984
-50.1918
-481.587
-52.3688
-503.041
-54.592
-525.372
-56.8452
-548.601
-59.1062
-572.741
-61.3451
-597.791
-63.5232
-623.734
-65.5916
-650.526
-67.4913
-678.085
-69.1531
-706.286
-70.4998
-734.945
-71.4488
-763.822
-71.9151
-792.623
-71.8128
-821.029
-71.051
-848.733
-69.5206
-875.496
-67.0712
-901.19
-63.4726
-925.8
-58.3685
-949.359
-51.2098
-971.746
-41.2143
-992.21
-27.3206
-1008.59
-8.35934
-1015.76
16.8104
-1002.87
48.5874
-953.683
86.823
-835.801
130.102
-621.544
181.457
-153.842
202.661
478.37
193.399
995.586
154.734
1417.58
111.301
1707.43
59.1659
1869.12
42.3698
1984.62
2306.04
-10.992
-27.9526
-10.9018
-37.4935
-10.8921
-43.432
-10.9277
-49.7021
-11.0183
-55.7621
-11.1523
-61.7185
-11.3316
-67.6192
-11.5521
-73.4906
-11.814
-79.3722
-12.1156
-85.2899
-12.4568
-91.2729
-12.8368
-97.3453
-13.2556
-103.531
-13.713
-109.851
-14.2091
-116.328
-14.7441
-122.98
-15.3183
-129.827
-15.9322
-136.888
-16.5865
-144.182
-17.2818
-151.726
-18.019
-159.539
-18.7992
-167.64
-19.6234
-176.045
-20.4929
-184.774
-21.409
-193.844
-22.3731
-203.275
-23.3869
-213.086
-24.4519
-223.296
-25.57
-233.924
-26.743
-244.991
-27.9729
-256.518
-29.2616
-268.526
-30.6113
-281.037
-32.0242
-294.073
-33.5024
-307.658
-35.0482
-321.815
-36.6635
-336.569
-38.3504
-351.947
-40.1106
-367.974
-41.9457
-384.678
-43.8564
-402.088
-45.8428
-420.232
-47.9039
-439.143
-50.0371
-458.85
-52.2375
-479.386
-54.4974
-500.781
-56.8051
-523.065
-59.1439
-546.262
-61.4904
-570.394
-63.8137
-595.468
-66.0733
-621.474
-68.2182
-648.381
-70.1865
-676.117
-71.9061
-704.566
-73.2966
-733.555
-74.2728
-762.845
-74.7485
-792.147
-74.6386
-821.139
-73.8557
-849.516
-72.2969
-877.055
-69.819
-903.668
-66.1971
-929.421
-61.0737
-954.482
-53.8837
-978.936
-43.7987
-1002.3
-29.6714
-1022.72
-10.1893
-1035.24
15.9606
-1029.02
49.3764
-987.099
90.2448
-876.669
136.815
-668.114
192.502
-209.529
219.95
450.922
212.457
1003.08
173.008
1457.03
125.74
1754.7
69.3942
1925.46
35.2092
2018.81
2322.71
-11.391
-28.0973
-11.3088
-37.5757
-11.3049
-43.4359
-11.3479
-49.6591
-11.4464
-55.6636
-11.5899
-61.575
-11.7799
-67.4291
-12.0126
-73.2579
-12.2881
-79.0967
-12.6047
-84.9733
-12.9621
-90.9155
-13.3599
-96.9476
-13.7977
-103.093
-14.2754
-109.374
-14.7933
-115.81
-15.3514
-122.422
-15.9501
-129.228
-16.5899
-136.248
-17.2715
-143.5
-17.9957
-151.002
-18.7633
-158.772
-19.5754
-166.828
-20.4331
-175.187
-21.3377
-183.869
-22.2906
-192.891
-23.2934
-202.273
-24.3475
-212.032
-25.4548
-222.188
-26.617
-232.762
-27.8361
-243.772
-29.1141
-255.24
-30.4531
-267.187
-31.8552
-279.635
-33.3227
-292.606
-34.8578
-306.123
-36.4628
-320.21
-38.1398
-334.893
-39.8908
-350.196
-41.7178
-366.147
-43.6221
-382.774
-45.6046
-400.105
-47.6656
-418.171
-49.8039
-437.005
-52.0168
-456.638
-54.2994
-477.104
-56.6436
-498.437
-59.0376
-520.671
-61.4639
-543.836
-63.8985
-567.959
-66.3092
-593.057
-68.6538
-619.13
-70.8792
-646.155
-72.921
-674.075
-74.7038
-702.783
-76.144
-732.114
-77.1537
-761.836
-77.6456
-791.655
-77.5357
-821.249
-76.7409
-850.311
-75.1657
-878.63
-72.6756
-906.158
-69.0541
-933.043
-63.945
-959.591
-56.7701
-986.11
-46.6553
-1012.41
-32.363
-1037.01
-12.4276
-1055.18
14.6477
-1056.09
49.6911
-1022.14
93.2337
-920.211
143.195
-718.075
203.614
-269.948
237.868
416.667
232.048
1008.9
191.434
1497.64
140.381
1805.76
80.6385
1985.2
31.0558
2068.39
2337.81
-11.7865
-28.2349
-11.7128
-37.6494
-11.7153
-43.4333
-11.7661
-49.6084
-11.8731
-55.5565
-12.0266
-61.4216
-12.2278
-67.2279
-12.4731
-73.0126
-12.7625
-78.8073
-13.0944
-84.6414
-13.4685
-90.5413
-13.8842
-96.5319
-14.3414
-102.636
-14.8398
-108.875
-15.3797
-115.27
-15.9611
-121.84
-16.5847
-128.605
-17.2507
-135.582
-17.96
-142.791
-18.7133
-150.249
-19.5116
-157.974
-20.3559
-165.983
-21.2474
-174.296
-22.1875
-182.929
-23.1776
-191.901
-24.2193
-201.231
-25.3141
-210.937
-26.464
-221.039
-27.6707
-231.555
-28.9363
-242.507
-30.2629
-253.914
-31.6525
-265.798
-33.1074
-278.18
-34.63
-291.083
-36.2225
-304.53
-37.8872
-318.545
-39.6264
-333.153
-41.4422
-348.38
-43.3364
-364.253
-45.3107
-380.799
-47.3659
-398.05
-49.5022
-416.035
-51.7186
-434.788
-54.0123
-454.344
-56.3783
-474.738
-58.8084
-496.007
-61.2904
-518.189
-63.8065
-541.32
-66.3317
-565.434
-68.8329
-590.556
-71.2663
-616.696
-73.5768
-643.845
-75.6971
-671.955
-77.5487
-700.932
-79.0447
-730.618
-80.0946
-760.786
-80.6096
-791.14
-80.5073
-821.351
-79.7097
-851.108
-78.1298
-880.21
-75.6441
-908.644
-72.0468
-936.64
-66.9866
-964.651
-59.8753
-993.222
-49.795
-1022.49
-35.4129
-1051.4
-15.1009
-1075.49
12.8331
-1084.03
49.4813
-1058.79
95.7201
-966.45
149.201
-771.556
214.813
-335.56
256.461
375.019
252.217
1013.14
210.056
1539.8
155.201
1860.61
93.4356
2046.97
35.3869
2126.44
2355.3
-12.1789
-28.3649
-12.114
-37.7143
-12.1236
-43.4238
-12.1827
-49.5493
-12.2987
-55.4405
-12.4625
-61.2577
-12.6753
-67.0151
-12.9336
-72.7543
-13.2373
-78.5036
-13.5849
-84.2938
-13.976
-90.1502
-14.4101
-96.0978
-14.8869
-102.159
-15.4063
-108.356
-15.9685
-114.708
-16.5737
-121.235
-17.2224
-127.956
-17.9149
-134.89
-18.6522
-142.054
-19.4349
-149.466
-20.2642
-157.144
-21.141
-165.106
-22.0667
-173.37
-23.0426
-181.953
-24.0702
-190.874
-25.1512
-200.15
-26.2871
-209.801
-27.4799
-219.846
-28.7316
-230.303
-30.0441
-241.194
-31.4196
-252.538
-32.8603
-264.357
-34.3685
-276.672
-35.9466
-289.505
-37.597
-302.88
-39.322
-316.82
-41.124
-331.351
-43.0051
-346.499
-44.9673
-362.29
-47.0122
-378.754
-49.1409
-395.921
-51.3534
-413.823
-53.6489
-432.493
-56.0245
-451.968
-58.4753
-472.287
-60.9929
-493.489
-63.5649
-515.617
-66.1729
-538.712
-68.7916
-562.815
-71.3866
-587.961
-73.9128
-614.17
-76.3129
-641.445
-78.517
-669.751
-80.4434
-699.005