/*--------------------------------*- C++ -*----------------------------------*\
| =========                 |                                                 |
| \\      /  F ield         | OpenFOAM: The Open Source CFD Toolbox           |
|  \\    /   O peration     | Version:  4.1                                   |
|   \\  /    A nd           | Web:      www.OpenFOAM.org                      |
|    \\/     M anipulation  |                                                 |
\*---------------------------------------------------------------------------*/
FoamFile
{
    version     2.0;
    format      ascii;
    class       volScalarField;
    location    "14";
    object      p;
}
// * * * * * * * * * * * * * * * * * * * * * * * * * * * * * * * * * * * * * //

dimensions      [0 2 -2 0 0 0 0];

internalField   nonuniform List<scalar> 
6785
(
540.974
487.577
435.746
387.335
342.444
300.427
261.072
224.068
188.974
155.61
124.668
96.5285
67.4996
32.5808
3.42795
74.542
52.2806
46.5216
42.8113
37.3371
31.6294
26.4763
22.0873
18.6032
16.1443
14.9528
15.4543
17.5506
19.4221
19.6821
-28.2421
-34.8858
-29.1194
-24.9727
-21.8823
-18.2873
-14.4013
-10.4643
-6.56026
-2.84474
0.500416
3.56709
6.64348
9.296
10.5299
17.8901
15.4714
20.0635
20.3876
20.4409
20.6559
20.5666
20.1892
19.6076
18.8483
17.8915
16.782
15.8712
15.7182
16.0284
34.3246
31.9909
33.5441
31.4457
30.0262
28.7822
27.3717
25.9893
24.7313
23.6398
22.7383
22.0253
21.547
21.5136
21.7583
25.1086
23.0832
24.0546
22.8335
22.6279
22.6102
22.5204
22.5517
22.7055
22.9473
23.2651
23.6267
23.9455
24.2016
24.3763
21.6631
20.5028
21.5812
21.2529
21.6335
22.0226
22.3167
22.6627
23.0151
23.3361
23.6224
23.8735
24.0494
24.1289
24.1436
23.3865
22.8212
23.6597
23.4183
23.603
23.7046
23.7179
23.7532
23.769
23.7561
23.7253
23.6912
23.6528
23.6039
23.5534
23.7966
23.4592
23.9366
23.6326
23.6469
23.5937
23.4971
23.4302
23.357
23.2807
23.2075
23.1425
23.0863
23.0336
22.9775
22.5922
22.37
22.6537
22.421
22.4397
22.4064
22.353
22.324
22.2884
22.2519
22.2159
22.1783
22.1381
22.0908
22.0243
21.526
21.3808
21.5651
21.4051
21.4246
21.3905
21.341
21.3043
21.2565
21.2046
21.15
21.0916
21.0298
20.9637
20.876
20.5657
20.5098
20.6122
20.4406
20.3982
20.3156
20.226
20.1422
20.0477
19.9507
19.8519
19.7517
19.6552
19.5677
19.4639
21.3702
21.2466
21.0975
20.7387
20.4933
20.2085
19.9092
19.6194
19.334
19.0644
18.8127
18.5827
18.3814
18.2214
18.0736
18.9015
19.3649
19.7539
19.6165
19.2908
18.8778
18.4763
18.0956
17.7143
17.3284
16.9411
16.5548
16.1794
15.835
15.4988
36.0464
35.6924
34.9083
32.4754
29.0408
25.5493
22.2845
19.3447
16.6675
14.374
12.4042
10.7589
9.45426
8.48328
7.67886
37.9063
36.7983
37.3791
36.3619
35.598
33.872
33.9293
32.1614
30.8141
29.0277
29.0185
26.468
23.4476
24.3224
22.0657
20.2396
19.7603
20.8042
17.5988
15.5232
17.8987
15.6814
13.84
14.9289
17.3318
14.6056
12.8231
14.6646
17.9761
15.3186
14.4794
18.6987
17.5086
16.261
17.8542
21.5268
19.8496
19.4014
23.2523
22.6485
21.8302
22.9426
25.9059
25.1083
24.4074
25.2909
27.6936
26.9698
26.5341
28.4401
28.2308
27.9025
28.276
29.8107
29.626
29.4437
29.8549
31.5232
31.5917
31.557
33.2584
33.4892
33.3436
33.2027
34.1384
34.2466
34.1322
34.201
33.9056
34.42
34.6602
31.5275
30.5236
30.745
27.7246
22.1217
24.3081
17.6343
0.19632
6.27803
10.3996
10.7659
11.4875
6.53573
9.19193
12.715
13.6934
14.117
14.2163
14.9789
16.9283
18.6464
20.1163
14.841
15.5457
17.4892
19.1081
19.4309
19.8127
20.0401
20.6205
24.6589
21.442
21.6649
21.5529
22.2254
23.5694
24.3907
24.4774
24.1732
23.9218
29.0779
27.1324
26.9827
26.4368
26.1334
27.004
27.9431
27.1538
25.6154
28.8258
30.2411
30.9022
30.8219
29.9013
29.0388
28.1941
27.4173
26.6008
32.5992
32.2459
30.4203
29.8188
29.1861
27.9973
26.1415
23.1984
20.9483
25.7336
27.7876
25.1631
23.3903
20.9459
17.7477
15.3704
13.7316
11.9368
11.2115
10.1364
12.2845
10.1557
9.88126
9.58398
7.97537
5.40717
5.31184
7.21816
4.69167
10.036
8.61467
7.35809
9.99354
9.06326
9.45942
9.82583
10.9326
11.7093
10.9662
12.3066
12.9594
11.937
11.9017
12.0781
13.1253
13.5673
12.7758
12.8456
12.9095
13.545
13.4833
13.0561
13.6193
13.2794
12.7349
12.6746
12.4185
12.4924
11.8495
11.494
11.1671
10.6603
10.5664
9.86057
9.98805
9.68965
8.46577
8.79158
8.26477
7.48024
7.39513
6.86185
7.91952
7.1136
5.96622
5.81109
5.35021
7.01546
6.18487
4.21998
5.8861
4.90656
3.43297
3.33531
3.04166
5.8089
4.50034
2.57317
2.35387
2.01285
5.23595
4.00583
1.28825
4.20033
2.75204
0.54502
0.421687
0.142113
4.30678
2.43829
-0.193489
-0.484595
-0.942645
3.51865
1.69141
-1.94924
2.38569
0.153856
-2.96652
-3.31306
-2.91722
0.000380023
0.000165653
0.000282167
0.000463532
0.000869956
0.000677407
0.000622095
0.000675319
0.000430686
0.000129884
-0.000421112
-0.00123429
-0.00207649
-0.00277907
-0.00352274
-0.00428541
-0.00506907
-0.00582317
-0.0066417
-0.00760286
-0.00877708
-0.0103825
-0.0126746
-0.0159959
-0.0207769
-0.0273558
-0.0359248
-0.0463701
-0.0565229
-0.0635208
-0.0581367
-0.0264186
0.050194
0.164927
0.172559
0.0567213
0.0453426
0.0486546
0.0071912
0.00714
-0.0138777
-0.0338718
-0.0149676
0.00903758
0.0371482
-0.0527543
-0.155078
-0.137524
-0.0326278
0.017422
0.0417198
0.0177338
0.0117454
0.0482825
-0.0593804
-0.184184
-0.348484
-0.436283
-0.00398457
0.0875303
0.0151043
0.134474
0.0799909
0.144311
0.149062
0.301976
0.37535
-0.104477
-0.86573
-0.674005
-0.286532
-0.268538
-0.303127
-0.208787
-0.0375959
0.0845562
0.0721401
0.0919829
0.0798727
0.000404452
-0.000315787
0.000261303
0.000197493
0.00051007
-2.77572e-05
0.000169273
0.000438694
0.000185267
-0.000164647
-0.000863543
-0.00157482
-0.00220243
-0.0024248
-0.00307064
-0.00347598
-0.00378912
-0.00392828
-0.004355
-0.00485902
-0.00581362
-0.00747868
-0.0103552
-0.0150878
-0.0224339
-0.0332313
-0.0479762
-0.0669873
-0.0875688
-0.106047
-0.109352
-0.0780973
0.0122988
0.165615
0.238829
0.113066
0.10203
0.0905735
0.0291482
-0.000602173
-0.045107
-0.0733463
-0.0327914
0.025078
0.052109
-0.0696477
-0.204788
-0.180858
-0.043768
0.0194028
0.0548739
0.0462642
0.0470053
0.170611
0.0196608
-0.0957315
-0.45068
-0.482596
-0.00987886
0.13101
0.063953
0.175952
0.113559
0.211476
0.304249
0.512537
0.517112
-0.00318014
-0.615463
-0.772758
-0.386986
-0.240141
-0.127981
-0.0814553
0.126032
0.246204
0.249985
0.285539
0.209826
0.000509423
-0.000591283
-0.000299065
-0.000154134
0.000267917
-0.000229998
-0.000374025
-0.000209685
-0.00016696
-0.000129873
-0.000437354
-0.000973395
-0.00134856
-0.00121132
-0.00117545
-0.000936396
-0.000589511
4.86445e-05
0.000697762
0.00134499
0.00184154
0.00180469
0.000712768
-0.002106
-0.00754173
-0.0164918
-0.029751
-0.0479196
-0.0688774
-0.089707
-0.0981962
-0.0758111
-0.000796701
0.129643
0.202154
0.0932465
0.0745772
0.0530132
-0.0180605
-0.0592311
-0.0989586
-0.112781
-0.0519024
0.0235933
0.0595473
-0.0500786
-0.168514
-0.141914
-0.0143642
0.0364762
0.0713229
0.0725714
0.0789508
0.217911
0.104243
0.0112976
-0.34324
-0.331698
0.0946718
0.174732
0.119549
0.207932
0.132451
0.248709
0.440951
0.619685
0.578425
0.083633
-0.411167
-0.853182
-0.47833
-0.0993668
0.136577
0.112228
0.294504
0.433457
0.413471
0.487371
0.513151
0.000749103
-0.000295832
-0.000106808
0.000187262
0.000682152
0.000339516
0.000160091
0.000296088
0.000532982
0.000824106
0.000886052
0.000690149
0.000651472
0.00109563
0.00173669
0.00267553
0.00384542
0.00540676
0.0072946
0.00934788
0.0115158
0.0134196
0.0145965
0.0143941
0.011871
0.00601167
-0.00421314
-0.0199143
-0.0398312
-0.0624986
-0.0776959
-0.06966
-0.0212537
0.0728582
0.141323
0.0616466
0.0293301
-0.00645229
-0.0893915
-0.13938
-0.168776
-0.159892
-0.0752223
0.0172949
0.0586205
-0.0330328
-0.125154
-0.0877442
0.0273176
0.0668207
0.0933852
0.100234
0.107602
0.237621
0.125519
0.0552469
-0.210145
-0.183214
0.21141
0.228463
0.174942
0.259836
0.166588
0.294437
0.546069
0.688016
0.620939
0.143041
-0.302697
-0.884894
-0.5015
0.0214718
0.377642
0.329879
0.456825
0.616037
0.584559
0.704052
0.759513
0.00070738
-0.000277507
-2.4541e-05
0.000268771
0.000720903
0.000515847
0.000480222
0.000740237
0.00114974
0.00161292
0.00197614
0.00219416
0.00260124
0.00343885
0.00456444
0.00616719
0.00817715
0.0106747
0.0136645
0.017058
0.0207895
0.0245317
0.0278352
0.0300203
0.0301083
0.0268434
0.018934
0.00463841
-0.0157388
-0.0423633
-0.0671194
-0.0770284
-0.0576808
0.00750688
0.0829895
0.0386018
-0.00736082
-0.0598977
-0.15486
-0.213773
-0.233217
-0.20266
-0.10047
0.00915368
0.0522245
-0.0250198
-0.0944117
-0.046223
0.0636169
0.100017
0.115928
0.128259
0.134255
0.242709
0.117021
0.0896895
-0.0997947
-0.0540991
0.317364
0.295748
0.2342
0.318219
0.210126
0.341675
0.62423
0.736493
0.648816
0.166949
-0.252344
-0.887542
-0.505063
0.0714909
0.541468
0.541473
0.618891
0.787336
0.765121
0.923407
1.08115
0.000642751
-0.000353247
-4.07634e-05
0.000224439
0.000600302
0.000488219
0.000584143
0.000994738
0.00157146
0.00220531
0.00284939
0.00347398
0.00434486
0.00564849
0.00728496
0.00952438
0.0123296
0.0157483
0.0197908
0.0244471
0.029669
0.0351715
0.0404817
0.0448684
0.0472913
0.046266
0.0401468
0.0265704
0.00484011
-0.0268429
-0.0623751
-0.091492
-0.0997501
-0.0517912
0.0300792
0.0185595
-0.038403
-0.109132
-0.215342
-0.282571
-0.292019
-0.242971
-0.128861
-0.00488652
0.0402298
-0.023549
-0.0741557
-0.0164928
0.0912994
0.129452
0.139649
0.15639
0.158864
0.243185
0.117319
0.143898
0.0133442
0.0707653
0.410686
0.367214
0.296318
0.377937
0.257787
0.385702
0.680655
0.771537
0.657088
0.153025
-0.230597
-0.874703
-0.512056
0.0718923
0.647514
0.738753
0.788385
0.956023
0.944462
1.15049
1.31784
0.000672852
-0.000323207
1.87973e-05
0.000263166
0.000575101
0.00054043
0.000744565
0.00130008
0.00204664
0.00287185
0.00379333
0.00480595
0.00612323
0.00791746
0.0101225
0.0130045
0.016588
0.0209298
0.0260585
0.0319735
0.0386616
0.0458758
0.0531419
0.0596725
0.064334
0.0654724
0.0610582
0.0481144
0.024925
-0.0119167
-0.0584418
-0.10697
-0.140467
-0.102064
-0.0174022
-0.000609848
-0.0676878
-0.155787
-0.273344
-0.347566
-0.346924
-0.283069
-0.158632
-0.0233612
0.026282
-0.0235683
-0.0575063
0.00530252
0.112654
0.154181
0.164426
0.183178
0.180965
0.248157
0.131978
0.207383
0.146944
0.193481
0.497091
0.441584
0.365462
0.437188
0.309635
0.427575
0.722093
0.799524
0.65079
0.122606
-0.216508
-0.848618
-0.519342
0.0597077
0.726623
0.918512
0.957237
1.12442
1.11861
1.38062
1.58416
0.000709792
-0.00025111
9.94367e-05
0.000320197
0.000578483
0.000612111
0.000911178
0.00159963
0.00250305
0.0035269
0.0047224
0.00611685
0.00787417
0.0101719
0.0129895
0.0165558
0.0209517
0.0262504
0.0325187
0.0397475
0.0479294
0.0568535
0.0660601
0.0747354
0.0816194
0.0849044
0.0822036
0.0699067
0.0452818
0.00335527
-0.0540365
-0.121914
-0.178348
-0.144969
-0.0618566
-0.0214211
-0.0963152
-0.201835
-0.330996
-0.411078
-0.400867
-0.32592
-0.190175
-0.0450304
0.0111507
-0.0237346
-0.0422331
0.0225662
0.130447
0.175574
0.19055
0.208922
0.200061
0.260062
0.156182
0.26759
0.288029
0.306021
0.574208
0.514269
0.443099
0.501603
0.364388
0.465032
0.748871
0.825855
0.631334
0.0835736
-0.218834
-0.811002
-0.520484
0.0483462
0.790543
1.07485
1.11986
1.27964
1.27773
1.57884
1.86816
0.000722675
-0.000171003
0.000181592
0.000383093
0.000608258
0.000715175
0.00110749
0.0019218
0.00297294
0.004194
0.00565816
0.00741461
0.00959341
0.0123823
0.0158159
0.0200787
0.0253
0.0315643
0.0389886
0.0475621
0.0572807
0.067941
0.0790994
0.0899333
0.0990718
0.104529
0.103586
0.0920129
0.0660519
0.0191684
-0.0491674
-0.136779
-0.214815
-0.184892
-0.105007
-0.0438169
-0.123511
-0.245989
-0.386266
-0.471076
-0.451727
-0.36813
-0.220047
-0.0672375
-0.00462121
-0.024002
-0.0279648
0.0385569
0.147274
0.195488
0.217172
0.233232
0.216253
0.277346
0.183741
0.3205
0.415752
0.400101
0.642737
0.583442
0.525281
0.575396
0.422877
0.499821
0.755362
0.843025
0.608578
0.043813
-0.24032
-0.76388
-0.516665
0.0539136
0.856314
1.22076
1.28263
1.42027
1.42745
1.7821
2.05364
0.000699605
-0.000117425
0.000229048
0.000416845
0.00062494
0.000806377
0.00129151
0.00222683
0.00341915
0.00483634
0.00656259
0.00866252
0.0112493
0.0145213
0.018565
0.0235285
0.0295837
0.036825
0.0454194
0.0553577
0.0666577
0.0791076
0.0922598
0.105283
0.116714
0.12438
0.125219
0.114396
0.0871386
0.0353417
-0.0440391
-0.151954
-0.250682
-0.224319
-0.14651
-0.0667736
-0.150443
-0.288769
-0.438335
-0.527106
-0.49912
-0.409194
-0.248663
-0.0901349
-0.0230173
-0.0264128
-0.016302
0.054388
0.163878
0.214417
0.243463
0.256872
0.229346
0.296647
0.20781
0.366423
0.523827
0.475904
0.700712
0.642593
0.601074
0.654989
0.485562
0.531205
0.737651
0.839513
0.577653
0.00248117
-0.282935
-0.719358
-0.498308
0.081677
0.92542
1.35535
1.43976
1.53738
1.57102
1.98508
2.27353
0.000669344
-6.38049e-05
0.000276666
0.000461436
0.000671516
0.000934919
0.00151969
0.00257824
0.0039177
0.00553753
0.00752512
0.00995227
0.0129339
0.0166756
0.0213114
0.0269635
0.0338365
0.0420454
0.0518052
0.0631008
0.0759972
0.0902712
0.105468
0.120728
0.134509
0.14446
0.147172
0.137226
0.108848
0.0523357
-0.0383257
-0.167534
-0.286861
-0.264864
-0.185729
-0.0890322
-0.175972
-0.328283
-0.485548
-0.576673
-0.54116
-0.44653
-0.276068
-0.113358
-0.043304
-0.0308217
-0.00664379
0.071294
0.181114
0.232785
0.268764
0.280424
0.241504
0.316018
0.221168
0.4058
0.617157
0.53867
0.750659
0.696386
0.670863
0.735007
0.55323
0.560004
0.705554
0.812416
0.539533
-0.0295325
-0.343708
-0.680329
-0.460141
0.124354
0.989756
1.47275
1.58909
1.63886
1.72738
2.18614
2.57278
0.000626147
-3.18947e-05
0.000295601
0.000483701
0.000706821
0.0010524
0.00173935
0.00292091
0.00441226
0.00624456
0.00849636
0.0112456
0.0146222
0.0188366
0.0240637
0.0304074
0.0380965
0.0472772
0.0582065
0.0708634
0.0853661
0.101488
0.118772
0.136322
0.152508
0.164814
0.169481
0.160509
0.13115
0.0700646
-0.0320902
-0.183697
-0.323777
-0.308147
-0.22177
-0.109349
-0.199696
-0.364154
-0.52772
-0.619347
-0.578783
-0.48065
-0.301931
-0.137204
-0.0650258
-0.0373453
0.00143685
0.0891821
0.198448
0.250019
0.292509
0.304117
0.253413
0.334625
0.223084
0.441072
0.703987
0.594554
0.794085
0.745129
0.737411
0.812124
0.621885
0.583255
0.667536
0.763838
0.498842
-0.0554644
-0.412829
-0.655382
-0.427478
0.162431
1.03268
1.55727
1.71773
1.72901
1.88933
2.39851
2.8354
0.000586607
4.55703e-06
0.000320563
0.000520522
0.000768914
0.00120039
0.00199319
0.00329999
0.00495241
0.00700837
0.00953067
0.0125999
0.0163708
0.0210595
0.0268755
0.0339089
0.0424061
0.052553
0.0646417
0.0786574
0.0947658
0.11274
0.132135
0.152021
0.17068
0.185436
0.19219
0.184389
0.154326
0.0889696
-0.0249635
-0.200366
-0.362083
-0.353731
-0.254455
-0.127921
-0.220482
-0.395527
-0.56335
-0.654146
-0.611764
-0.509893
-0.324729
-0.160425
-0.0857829
-0.0445916
0.0092519
0.108288
0.216059
0.26665
0.314236
0.326514
0.266502
0.352898
0.217438
0.473757
0.787357
0.646117
0.838052
0.793613
0.803001
0.886415
0.6898
0.605883
0.634057
0.700287
0.460642
-0.072829
-0.471615
-0.653502
-0.423829
0.187903
1.05588
1.60992
1.8231
1.81554
2.0484
2.61382
3.15077
0.000540189
2.41282e-05
0.000321367
0.00053641
0.000815844
0.00133108
0.00222643
0.00365578
0.00547178
0.0077593
0.0105574
0.0139498
0.0181181
0.0232923
0.0297073
0.0374439
0.0467622
0.0578884
0.0711435
0.0865298
0.104256
0.124095
0.145621
0.167878
0.189057
0.206333
0.215279
0.208798
0.178265
0.108881
-0.0170299
-0.217617
-0.402471
-0.400539
-0.284333
-0.143329
-0.238548
-0.422212
-0.591631
-0.681279
-0.641498
-0.534375
-0.343723
-0.181449
-0.104035
-0.051054
0.0177737
0.127699
0.233257
0.282306
0.333597
0.346267
0.280613
0.369499
0.208813
0.506171
0.869639
0.702101
0.888312
0.840879
0.867604
0.956475
0.75407
0.629182
0.612161
0.631381
0.424968
-0.0842999
-0.521343
-0.680317
-0.44575
0.195637
1.06594
1.63705
1.89723
1.88431
2.19572
2.83745
3.39763
0.000500936
5.47132e-05
0.000335559
0.000572606
0.000891614
0.00149242
0.00248906
0.00404216
0.00602743
0.00855307
0.0116316
0.0153484
0.0199127
0.0255755
0.0325902
0.0410334
0.0511776
0.0632872
0.07771
0.0944699
0.11382
0.135537
0.159212
0.183873
0.207631
0.227515
0.238793
0.233867
0.20323
0.13025
-0.00774423
-0.234712
-0.445463
-0.448077
-0.311435
-0.154465
-0.253077
-0.443067
-0.61254
-0.70007
-0.666979
-0.554399
-0.358612
-0.199037
-0.118673
-0.0551621
0.0276759
0.146791
0.250058
0.297404
0.351263
0.362712
0.29619
0.384359
0.200062
0.537594
0.949887
0.767863
0.946943
0.890358
0.933169
1.02247
0.81351
0.649288
0.601967
0.566008
0.39862
-0.0866574
-0.564688
-0.725082
-0.481135
0.181081
1.06482
1.65282
1.93919
1.93772
2.33608
3.07141
3.68409
0.000459135
7.44479e-05
0.000331726
0.000592785
0.000955083
0.00163892
0.00273198
0.00440629
0.00656049
0.00932624
0.0126873
0.0167322
0.0216949
0.0278528
0.0354738
0.0446359
0.0556231
0.0687338
0.0843404
0.102491
0.123484
0.147102
0.17295
0.200048
0.226427
0.248987
0.262708
0.259521
0.229102
0.152934
0.00303954
-0.250577
-0.487445
-0.495745
-0.334719
-0.160327
-0.263465
-0.457178
-0.625863
-0.710667
-0.687362
-0.568195
-0.367668
-0.212441
-0.130054
-0.0563923
0.039157
0.165079
0.265938
0.311386
0.366576
0.375055
0.310948
0.396642
0.193164
0.569739
1.02954
0.851074
1.01219
0.938162
0.994773
1.08001
0.867357
0.664271
0.596088
0.51013
0.382459
-0.0914405
-0.604603
-0.790549
-0.536187
0.130036
1.03406
1.64807
1.94892
1.97506
2.46698
3.29336
4.00569
0.000426212
0.000108667
0.000346859
0.000637792
0.0010504
0.00181882
0.00300839
0.00480564
0.0071324
0.0101396
0.0137862
0.0181626
0.0235229
0.0301748
0.0383986
0.0482793
0.0601135
0.0742311
0.0910278
0.11058
0.133229
0.158767
0.186819
0.216396
0.245462
0.270795
0.28711
0.285929
0.256173
0.177427
0.0161296
-0.263505
-0.525669
-0.539571
-0.353774
-0.161526
-0.269107
-0.4648
-0.631379
-0.713725
-0.701413
-0.575214
-0.37237
-0.223216
-0.139328
-0.0556302
0.0513093
0.182386
0.281149
0.323905
0.378792
0.38343
0.321999
0.406589
0.187924
0.600472
1.1065
0.947666
1.0825
0.979159
1.04926
1.13472
0.915861
0.673269
0.589142
0.469414
0.381327
-0.099583
-0.638768
-0.878284
-0.616141
0.0409307
0.96845
1.62907
1.93422
2.00265
2.59571
3.52676
4.27209
0.000392176
0.000133212
0.00034749
0.000668695
0.00113401
0.00198418
0.00326795
0.00518529
0.0076845
0.0109318
0.0148661
0.0195789
0.0253398
0.0324887
0.0413183
0.0519255
0.064618
0.0797567
0.0977594
0.118732
0.143057
0.170544
0.200833
0.232931
0.264739
0.292927
0.311975
0.313035
0.284356
0.203658
0.0318852
-0.272078
-0.558077
-0.576515
-0.368025
-0.157688
-0.269381
-0.465387
-0.628306
-0.709601
-0.70678
-0.574745
-0.373491
-0.231523
-0.145487
-0.0528689
0.0640667
0.199402
0.29572
0.333758
0.387363
0.387919
0.323947
0.411598
0.183285
0.632061
1.18211
1.04964
1.15435
1.01395
1.09947
1.19333
0.954163
0.676229
0.581866
0.447143
0.392021
-0.108542
-0.673746
-0.994622
-0.731442
-0.0874998
0.851152
1.5791
1.8806
2.01217
2.71977
3.76704
4.57328
0.000367291
0.000171467
0.000369551
0.000726063
0.00124975
0.0021824
0.00356258
0.00560196
0.00827893
0.0117658
0.0159907
0.0210442
0.0272077
0.0348524
0.0442835
0.0556152
0.069164
0.085325
0.104537
0.126942
0.152954
0.182412
0.214973
0.249644
0.284273
0.315432
0.337395
0.341016
0.313946
0.232111
0.0511177
-0.274568
-0.581477
-0.606511
-0.377851
-0.148879
-0.264186
-0.459157
-0.618529
-0.699579
-0.703847
-0.56856
-0.371827
-0.237306
-0.147923
-0.0484864
0.0769637
0.217017
0.310341
0.341198
0.392977
0.389734
0.316443
0.412114
0.177749
0.660827
1.25414
1.13831
1.22338
1.06098
1.15179
1.2526
0.976725
0.668445
0.570178
0.449549
0.413502
-0.106098
-0.708306
-1.13871
-0.877544
-0.236088
0.689723
1.48449
1.785
2.00857
2.8456
4.00432
4.92239
0.000343107
0.00019976
0.000379283
0.000769913
0.0013528
0.00236542
0.00384018
0.00599999
0.00885438
0.0125777
0.0170941
0.0224933
0.0290666
0.0372103
0.0472451
0.0593069
0.073719
0.0909102
0.111341
0.135193
0.162908
0.19436
0.229221
0.266508
0.304018
0.338249
0.3633
0.369778
0.344839
0.262707
0.0740408
-0.270224
-0.594829
-0.6294
-0.382301
-0.134375
-0.253055
-0.445158
-0.601979
-0.684202
-0.691711
-0.556338
-0.365184
-0.23708
-0.14497
-0.0411258
0.0909009
0.235735
0.325695
0.347194
0.39634
0.390017
0.302425
0.406837
0.173996
0.689505
1.32626
1.21822
1.29471
1.12522
1.19944
1.30495
0.989708
0.656421
0.553826
0.473534
0.446084
-0.087729
-0.742789
-1.30314
-1.06659
-0.405983
0.501896
1.34563
1.64832
1.98643
2.97833
4.25443
5.26052
0.000328872
0.000240763
0.000411874
0.00084035
0.00148619
0.00258071
0.00415161
0.00643544
0.00946989
0.0134287
0.0182374
0.0239868
0.0309774
0.0396205
0.0502553
0.0630436
0.0783197
0.0965386
0.118188
0.143493
0.17292
0.206383
0.243578
0.283531
0.324005
0.361436
0.389784
0.399488
0.377285
0.295831
0.101247
-0.258166
-0.597325
-0.64244
-0.378096
-0.114757
-0.236694
-0.424774
-0.580215
-0.664912
-0.67552
-0.540895
-0.356046
-0.232653
-0.138494
-0.0314338
0.105256
0.254313
0.341205
0.352932
0.398597
0.389435
0.288758
0.394711
0.170903
0.713325
1.39756
1.2921
1.36242
1.20214
1.24311
1.35183
0.995532
0.646875
0.540146
0.510864
0.492878
-0.050056
-0.763589
-1.46816
-1.31828
-0.616477
0.316838
1.16391
1.48711
1.95775
3.11983
4.5134
5.63944
0.000316595
0.000271357
0.000433656
0.000898293
0.00160581
0.0027801
0.0044453
0.00685227
0.0100631
0.0142541
0.019353
0.0254562
0.0328734
0.042021
0.0532593
0.0667789
0.0829264
0.102178
0.125052
0.151819
0.182967
0.218458
0.258007
0.300663
0.344157
0.384895
0.416737
0.430013
0.41115
0.331353
0.132714
-0.23824
-0.587089
-0.643969
-0.364486
-0.0895186
-0.214392
-0.398316
-0.553546
-0.641618
-0.652021
-0.520224
-0.343671
-0.224354
-0.128289
-0.0182522
0.12102
0.272711
0.356671
0.35987
0.402195
0.388106
0.280446
0.375151
0.16982
0.73718
1.47351
1.36621
1.42424
1.29069
1.28579
1.39401
0.999873
0.642463
0.538956
0.562942
0.557086
0.00724664
-0.758195
-1.60924
-1.60648
-0.891394
0.122003
0.932759
1.30142
1.92084
3.2639
4.79269
5.99498
0.000314871
0.000313535
0.000479042
0.000984683
0.00175623
0.00301125
0.00477301
0.00730715
0.0106952
0.0151166
0.0205044
0.0269642
0.034814
0.0444697
0.0563107
0.0705593
0.0875786
0.107861
0.131957
0.16019
0.193064
0.230594
0.272524
0.317928
0.364521
0.408696
0.444256
0.461502
0.446623
0.369536
0.16874
-0.210394
-0.56547
-0.634884
-0.342788
-0.0595694
-0.187585
-0.368385
-0.523731
-0.615435
-0.62398
-0.496665
-0.329622
-0.214531
-0.115923
-0.00256661
0.137399
0.290091
0.371122
0.368697
0.40619
0.386323
0.281062
0.350741
0.171578
0.757357
1.55268
1.43968
1.48922
1.38908
1.33399
1.43141
1.00793
0.64754
0.554285
0.631168
0.636124
0.0886741
-0.719683
-1.70599
-1.86995
-1.2021
-0.110085
0.67219
1.09941
1.87905
3.40923
5.08851
6.36721
0.000315858
0.000345324
0.000515049
0.00106054
0.00189429
0.00322742
0.00508411
0.00774494
0.0113055
0.0159512
0.0216251
0.0284416
0.0367297
0.0468992
0.0593464
0.0743279
0.0922251
0.11354
0.138861
0.168567
0.203168
0.242745
0.287066
0.335242
0.38498
0.432695
0.47218
0.493769
0.483519
0.410178
0.209084
-0.175236
-0.533632
-0.614986
-0.312432
-0.025529
-0.15663
-0.334936
-0.490006
-0.584306
-0.590674
-0.46975
-0.311872
-0.201271
-0.0998397
0.0169196
0.156095
0.30806
0.385968
0.380028
0.41036
0.385682
0.28994
0.32867
0.184784
0.782182
1.64074
1.5242
1.56181
1.4926
1.39693
1.46772
1.02952
0.673667
0.595447
0.722311
0.732383
0.194029
-0.65162
-1.76429
-2.0888
-1.5025
-0.395017
0.392484
0.894851
1.83688
3.56073
5.38982
6.77737
0.00032664
0.000387921
0.000574685
0.00116412
0.0020626
0.00347514
0.00542838
0.00822031
0.0119539
0.01682
0.0227796
0.0299523
0.0386818
0.0493685
0.0624212
0.0781337
0.0969093
0.119256
0.1458
0.176981
0.213312
0.254943
0.301676
0.352662
0.405619
0.457003
0.50064
0.526979
0.522006
0.453475
0.253968
-0.132777
-0.490619
-0.584259
-0.273126
0.0109437
-0.122787
-0.298733
-0.454801
-0.552015
-0.557117
-0.442385
-0.292188
-0.186319
-0.082045
0.0384787
0.175852
0.326076
0.401219
0.390885
0.413576
0.385781
0.304825
0.316336
0.20859
0.807359
1.73405
1.61692
1.6341
1.59813
1.47013
1.50513
1.06529
0.728392
0.666561
0.825707
0.842784
0.319705
-0.564797
-1.7972
-2.27399
-1.78156
-0.7185
0.0862456
0.696073
1.80409
3.72054
5.70116
7.16533
0.000339048
0.000419798
0.000624929
0.00125572
0.00221808
0.00370828
0.00575599
0.00867827
0.0125804
0.0176603
0.023901
0.0314284
0.0405996
0.0518067
0.0654673
0.0819124
0.10157
0.124948
0.152717
0.185375
0.223434
0.267122
0.316266
0.370078
0.426293
0.481445
0.529446
0.560916
0.561872
0.499204
0.303102
-0.083782
-0.437623
-0.542285
-0.225626
0.0506109
-0.0847149
-0.258453
-0.41737
-0.518261
-0.521817
-0.411363
-0.269012
-0.168337
-0.0616387
0.0626964
0.198759
0.346304
0.418474
0.401581
0.417907
0.386956
0.32174
0.319827
0.243691
0.841454
1.83618
1.72341
1.70933
1.70314
1.55377
1.55108
1.12458
0.81545
0.77154
0.940467
0.969231
0.463906
-0.461815
-1.81219
-2.43688
-2.05792
-1.06203
-0.234894
0.502223
1.78288
3.89205
6.02615
7.57973
0.000359882
0.000461427
0.000697895
0.00137341
0.00240206
0.00397162
0.00611743
0.00917272
0.0132441
0.0185357
0.0250529
0.0329369
0.0425483
0.0542764
0.068544
0.0857182
0.106255
0.130662
0.159655
0.193786
0.233578
0.279329
0.330903
0.387573
0.447117
0.506166
0.558759
0.59576
0.603263
0.547501
0.356733
-0.028079
-0.376845
-0.491017
-0.17103
0.0933594
-0.0432495
-0.215919
-0.379576
-0.485143
-0.486805
-0.379466
-0.24492
-0.149248
-0.0407978
0.0873924
0.224226
0.368392
0.434526
0.4122
0.422329
0.387761
0.337004
0.336224
0.279559
0.878695
1.94053
1.83636
1.78673
1.80248
1.64374
1.60587
1.20919
0.931832
0.905696
1.06369
1.1035
0.61911
-0.341848
-1.80932
-2.57392
-2.33491
-1.42498
-0.551347
0.307204
1.77014
4.07023
6.33938
8.00065
0.00038135
0.000492629
0.000762297
0.00147982
0.00257188
0.00421922
0.00646429
0.00964938
0.0138859
0.0193839
0.0261705
0.0344106
0.0444573
0.0567049
0.0715786
0.0894793
0.110893
0.136325
0.16654
0.202134
0.243654
0.291461
0.345459
0.404995
0.467898
0.530937
0.588328
0.631223
0.645889
0.598041
0.414507
0.0340077
-0.309838
-0.432105
-0.110765
0.137972
0.000828506
-0.171796
-0.339174
-0.448825
-0.449511
-0.345923
-0.21859
-0.127119
-0.0178284
0.114687
0.254041
0.395205
0.449523
0.425507
0.427695
0.387906
0.351213
0.361536
0.314941
0.928684
2.04996
1.94297
1.8641
1.89547
1.73567
1.67475
1.32683
1.08479
1.07315
1.20786
1.24146
0.780906
-0.200032
-1.7789
-2.67445
-2.59425
-1.77678
-0.850407
0.116201
1.76983
4.25757
6.64982
8.41167
0.000410199
0.000532757
0.000848548
0.00161115
0.00276704
0.00449438
0.00684294
0.0101591
0.0145622
0.0202657
0.0273189
0.0359155
0.0463938
0.059158
0.0746347
0.0932558
0.115539
0.141992
0.173426
0.210476
0.253722
0.303591
0.360029
0.422464
0.488798
0.555959
0.618371
0.667537
0.68992
0.650945
0.476711
0.103809
-0.235449
-0.365013
-0.0458792
0.182578
0.0455801
-0.128182
-0.298094
-0.410781
-0.412879
-0.313806
-0.192616
-0.103904
0.00522016
0.142131
0.284428
0.42408
0.462611
0.43987
0.432734
0.385691
0.364968
0.39045
0.34044
0.986151
2.15965
2.03622
1.93492
1.97553
1.82039
1.75268
1.47049
1.27323
1.26622
1.37459
1.37223
0.941354
-0.0496553
-1.72308
-2.73898
-2.8234
-2.09947
-1.12714
-0.0643768
1.78225
4.44709
6.94258
8.80982
0.000438639
0.000562735
0.000925928
0.00173123
0.00294835
0.00475445
0.00720477
0.0106486
0.0152134
0.0211176
0.0284328
0.0373816
0.0482854
0.0615607
0.0776359
0.0969709
0.120115
0.14758
0.180222
0.218714
0.263672
0.315589
0.374457
0.439794
0.509588
0.580964
0.648595
0.704363
0.734998
0.705762
0.542679
0.181087
-0.15402
-0.28788
0.0233309
0.226849
0.0913425
-0.0838405
-0.257239
-0.371353
-0.375389
-0.282479
-0.165767
-0.0782179
0.0305787
0.170902
0.315758
0.453413
0.478229
0.4571
0.441439
0.383366
0.382148
0.422589
0.359422
1.06199
2.27555
2.1301
2.00592
2.05258
1.90163
1.84306
1.63564
1.49599
1.48935
1.57114
1.50637
1.10039
0.106381
-1.63257
-2.75354
-2.98872
-2.3595
-1.38035
-0.230276
1.81458
4.64282
7.22483
9.19991
0.000473697
0.000602037
0.00102384
0.0018756
0.00315562
0.00504137
0.00759441
0.0111682
0.0158941
0.0219991
0.0295756
0.0388755
0.0502008
0.0639825
0.0806512
0.100692
0.124684
0.153155
0.186996
0.226918
0.273583
0.327549
0.388861
0.457138
0.530468
0.606194
0.679259
0.741962
0.781292
0.762546
0.612357
0.26579
-0.0653048
-0.202649
0.0947968
0.270906
0.138028
-0.0399657
-0.218733
-0.332011
-0.338638
-0.253741
-0.140574
-0.0519284
0.0569785
0.199906
0.345527
0.479676
0.49582
0.475799
0.453055
0.381293
0.401389
0.454657
0.367224
1.1511
2.39359
2.22557
2.07494
2.12432
1.97691
1.93967
1.80565
1.7277
1.73401
1.7853
1.65369
1.25062
0.258547
-1.53089
-2.73749
-3.10383
-2.57315
-1.60915
-0.371887
1.86476
4.83774
7.48865
9.55883
0.000507945
0.000633379
0.00111332
0.00200998
0.00335195
0.00531462
0.00796718
0.0116679
0.0165477
0.0228486
0.0306814
0.0403261
0.0520656
0.0663455
0.0835992
0.104336
0.12916
0.15862
0.193639
0.234969
0.283315
0.339307
0.403044
0.474256
0.551149
0.631308
0.709979
0.779876
0.828288
0.820583
0.684464
0.35591
0.0295877
-0.112404
0.166215
0.313799
0.184705
0.00382133
-0.180182
-0.292322
-0.300542
-0.224043
-0.114755
-0.0230923
0.0863371
0.230977
0.376212
0.506404
0.518323
0.497308
0.468628
0.382994
0.421384
0.488419
0.373598
1.26423
2.51909
2.32201
2.14275
2.18405
2.05194
2.04743
1.98544
1.95623
1.98895
2.00896
1.81877
1.39848
0.411182
-1.42777
-2.72478
-3.20402
-2.76234
-1.81038
-0.475676
1.94039
5.03832
7.7313
9.8958
0.000549132
0.000674339
0.00122168
0.00216701
0.00357357
0.005614
0.00836593
0.0121935
0.0172262
0.0237225
0.0318101
0.0417959
0.0539477
0.0687208
0.0865527
0.107977
0.133619
0.164056
0.200238
0.24296
0.292977
0.35099
0.417165
0.491351
0.571887
0.656614
0.741086
0.81844
0.87621
0.879957
0.758842
0.450586
0.130909
-0.0155202
0.237963
0.355813
0.229243
0.0471717
-0.142576
-0.255308
-0.263413
-0.194724
-0.0895081
0.00561906
0.116094
0.261985
0.407505
0.53332
0.543644
0.518432
0.483871
0.386984
0.438881
0.52205
0.378542
1.39657
2.64858
2.40833
2.20707
2.2247
2.12226
2.15889
2.17106
2.1781
2.23033
2.22166
1.98389
1.5411
0.557302
-1.3359
-2.74103
-3.31196
-2.94341
-1.98742
-0.544487
2.03886
5.23926
7.94757
10.1942
0.00059022
0.000708628
0.00132153
0.00231449
0.00378551
0.00590238
0.00874896
0.0126973
0.0178763
0.0245613
0.0328962
0.0432147
0.0557714
0.0710266
0.0894246
0.111521
0.137963
0.169354
0.206671
0.250754
0.30241
0.362413
0.431
0.508153
0.592354
0.681722
0.772128
0.857099
0.92441
0.939732
0.833873
0.547286
0.236679
0.0869029
0.309933
0.396906
0.271281
0.089622
-0.105044