/*--------------------------------*- C++ -*----------------------------------*\
| =========                 |                                                 |
| \\      /  F ield         | OpenFOAM: The Open Source CFD Toolbox           |
|  \\    /   O peration     | Version:  4.1                                   |
|   \\  /    A nd           | Web:      www.OpenFOAM.org                      |
|    \\/     M anipulation  |                                                 |
\*---------------------------------------------------------------------------*/
FoamFile
{
    version     2.0;
    format      ascii;
    class       surfaceScalarField;
    location    "14";
    object      phi;
}
// * * * * * * * * * * * * * * * * * * * * * * * * * * * * * * * * * * * * * //

dimensions      [0 3 -1 0 0 0 0];

internalField   nonuniform List<scalar> 
13220
(
-949.873
2249.77
-1573.94
1924.27
-2053.99
1779.94
-2424.21
1670.13
-2699.83
1575.82
-2888.34
1488.41
-2993.02
1404.57
-3013.81
1320.99
-2949.57
1235.65
-2797.18
1147.52
-2551.11
1054.13
-2192.95
941.736
-1687.12
794.066
-1012.63
625.708
287.275
373.348
1876.43
442.757
1854.87
437.306
1785.39
406.704
1700.74
380.582
1601.94
359.907
1509.1
345.295
1419.19
337.543
1328.76
333.489
1239.71
326.965
1154.05
309.625
1071.48
267.489
983.884
191.447
870.124
111.456
705.717
398.732
33.6237
1842.8
-97.3694
1985.86
-253.586
1941.61
-371.084
1818.24
-473.131
1704
-567.467
1603.45
-651.666
1503.41
-725.699
1402.81
-787.957
1302
-837.158
1203.29
-868.076
1102.42
-855.935
971.826
-740.242
754.534
-434.263
399.852
-35.5315
28.9004
1813.9
-100.528
2115.3
-225.427
2066.51
-304.341
1897.17
-367.991
1767.66
-416.76
1652.24
-446.021
1532.68
-456.779
1413.6
-451.594
1296.84
-429.873
1181.6
-386.944
1059.52
-311.643
896.54
-192.743
635.661
-48.3796
255.52
-83.9101
169.865
1644.03
146.45
2138.73
124.005
2088.95
123.158
1898.04
127.234
1763.58
136.123
1643.38
149.413
1519.39
166.903
1396.13
187.233
1276.51
208.415
1160.44
229.341
1038.57
244.074
881.925
233.268
646.584
155.492
333.406
71.58
223.736
1420.28
245.083
2117.4
235.587
2098.42
236.864
1896.79
241.201
1759.2
245.186
1639.42
247.395
1517.14
246.129
1397.42
242.003
1280.59
234.808
1167.61
222.195
1051.17
199.765
904.182
156.506
689.636
78.4159
411.3
149.997
204.923
1215.28
240.737
2081.57
215.833
2123.25
193.439
1919.17
179.15
1773.42
165.699
1652.85
151.865
1530.91
137.628
1411.62
122.662
1295.51
108.394
1181.89
94.0389
1065.44
76.9059
921.519
52.9089
713.819
19.5231
444.851
169.518
175.493
1039.62
227.845
2029.17
205.159
2145.75
175.666
1948.62
157.053
1791.85
142.639
1667.25
127.524
1545.87
113.222
1425.94
99.9745
1308.65
87.2566
1194.54
75.3722
1077.3
61.7694
934.797
42.3666
732.865
16.544
470.352
186.064
153.34
886.052
222.715
1959.72
209.799
2158.5
181.758
1976.62
163.492
1809.96
150.379
1680.34
137.486
1558.67
123.78
1439.6
110.576
1321.78
97.9982
1207.14
84.5826
1090.64
69.6444
950.023
49.1931
753.605
21.8155
497.986
207.876
130.474
755.179
209.951
1880.15
206.142
2161.91
178.23
2004.52
159.061
1828.77
144.918
1694.55
131.037
1572.25
117.693
1453.07
103.512
1335.77
90.083
1220.58
76.8285
1103.84
61.2977
965.25
41.3732
773.16
17.0132
522.015
224.892
106.466
648.178
189.393
1797.32
195.396
2155.51
170.09
2030
151.129
1847.39
138.826
1707.06
125.514
1585.38
112.362
1466.4
99.0224
1349.08
85.1759
1234.61
71.3196
1117.76
56.671
980.194
38.1108
792.066
16.2337
544.203
241.127
91.7137
555.461
175.158
1714.02
188.918
2140.83
163.698
2055.51
137.895
1872.47
121.532
1723.88
107.625
1598.84
94.8387
1479.73
82.4087
1361.31
71.5382
1245.82
60.0778
1129.18
47.5814
992.838
30.5594
809.142
10.2012
564.624
251.329
87.7809
466.177
217.284
1584.62
257.935
2099.23
252.67
2061.08
247.74
1876.92
246.478
1725.53
239.885
1605.33
228.189
1491.66
211.058
1378.76
190.589
1266.5
167.485
1153.15
137.639
1022.28
100.74
846.127
53.2457
612.319
304.64
137.969
327.15
241.896
1482.71
268.168
2072.34
212.011
2119.32
138.25
1950.7
89.4497
1776.94
64.4156
1631.16
56.6792
1502.58
55.63
1381.47
58.7389
1266.57
60.5855
1153.43
59.0917
1028.45
43.9395
868.565
17.4619
645.855
322.326
-146.915
314.37
898.326
1320.33
1519.15
1593.59
1562.82
1481.6
1355.55
1200.39
1024.06
823.757
602.063
324.76
-1.92353
976.97
-982.826
973.285
968.29
966.962
1836.16
-870.847
1834.75
1833.46
1832.53
2524.36
-692.836
2522.89
2522.34
3049.31
-528.061
3048.65
3047.22
3046.87
3403.08
-357.355
3402.18
3401.05
3617.57
-217.187
3616.1
3615.07
3613.96
3664.03
-50.6919
3662.46
3661.81
3660.48
3568.02
91.5478
3566.08
3565.45
3372.23
191.618
3370.98
3369.16
3368.35
3078.38
288.408
3076.71
3075.35
2739.31
334.761
2737.35
2735.77
2734.45
2367.93
365.254
2366.22
2364.1
2363.4
2036.62
324.133
2035.18
2032.56
1781.71
250.53
1778.81
1777.95
1775.78
1457.46
318.179
1454.46
1454.13
1451.35
1013.53
437.615
1010.08
1010.59
462.693
544.154
461.078
457.671
458.037
-121.343
576.592
-123.347
-125.985
-1192.76
1068.19
-1193.92
-1192.18
-1193.18
-2793.83
1602.04
-2793.91
-2792.56
-2792.27
-4755.68
1963.8
-4753.92
-4754.65
-6968.36
2214.86
-6969.86
-6969.06
-6859.56
-6740.92
-6611.48
-8876.38
2390.9
-8760.7
-8612.47
-8439.47
-8261.96
-8085.11
-7913.36
-7735.68
-7532.98
-9841.04
2510.92
-9628.37
-9420.57
-9214.39
-8987.66
-8757.03
-8526.26
-8294.93
-8061.89
-10363
2538.94
-10113
-9862.14
-9612.02
-9362.12
-9108.33
-8841.78
-8574.48
-8304.17
-8034.24
-10227.8
2454.16
-9946.27
-9662.33
-9378.24
-9095.37
-8813.39
-8518.7
-8214.86
-7911.85
-9818.82
2196.93
-9526.57
-9227.43
-8916.62
-8604.41
-8292.56
-7980.02
-7668.11
-7338.95
-8780.8
1759.48
-8463.5
-8146.65
-7833.03
-7505.47
-7171.55
-6838.69
-6507.29
-6182.74
-6926.31
1064.41
-6603.24
-6283.07
-5965.4
-5650.34
-5342.75
-5043.35
-4756.48
-4474.3
-4205.26
-3891.49
-40.4276
-3669.01
-3465.55
-3271.19
-3080.79
-2886.57
-2727.34
-2643.1
-2557.97
-1854.74
-606.747
-1770.27
-1683.14
-1685.44
-1382.67
-308.47
-1050.52
-332.207
-1054.86
-722.815
-331.22
-730.473
-411.226
-319.215
-124.162
-303.676
-122.254
137.645
-283.457
386.13
-246.966
368.276
629.788
-257.934
606.146
824.877
-205.826
896.52
-106.413
916.996
994.369
-105.619
1019.57
1123.28
-117.882
1267.52
-118.111
1257.5
1376.5
-95.9044
1460.31
-97.0901
1480.59
1549.41
-77.5464
1570.04
1656.18
-85.8213
1731.4
-52.838
1732.71
1812.08
-60.3875
1814.96
1892.03
-58.4825
1928.47
-34.6891
1943.82
1983.84
-34.2028
2018.94
-19.9774
2023.84
2055.21
-19.3299
2060.21
2087.15
-14.4151
2102.68
-10.0191
2110.87
2133.65
-17.8521
2140.95
2162.63
-15.6344
2185.81
-17.4226
2190.61
2221.03
-25.2696
2258.88
-31.4754
2261.9
2305.8
-38.0048
2307.98
2348.29
-35.0106
2385.9
-36.7663
2389.11
2441.42
-52.2035
2444.47
2496.33
-51.4004
2550.89
-50.574
2550.26
2619.24
-65.3018
2684.48
-66.151
2686.33
2761.71
-76.5608
2764.11
2837.39
-74.6837
2908.35
-68.0781
2907.27
2995.7
-86.2589
2994.26
3082.65
-87.3338
3159.5
-78.8918
3160.93
3257.32
-98.0114
3353.04
-92.6116
3352.48
3462.55
-109.335
3462.78
-114.767
-139.781
-15.5067
-139.644
-9.72976
-139.426
-1.19966
-139.211
6.66197
-139.04
14.5293
-138.93
22.278
-138.796
30.841
-138.301
40.7187
-138.35
45.0637
-138.385
50.7103
-138.584
56.5762
-138.897
64.2239
-139.267
74.0224
-139.698
85.4089
-140.195
99.1231
-140.714
115.219
-141.22
134.467
-141.695
157.455
-142.156
185.054
-142.634
217.843
-143.159
256.957
-143.76
303.443
-144.456
358.53
-145.266
423.424
-146.217
498.989
-147.343
585.891
-148.683
683.512
-150.308
790.515
-152.325
901.753
-155.011
1010
-158.886
1099.65
-165.495
1150.05
-177.04
1123.24
-168.471
898.563
-44.9275
137.024
46.0282
-871.086
70.9071
-987.058
94.3996
-892.465
112.864
-672.918
124.587
-360.638
137.042
-18.5895
134.079
130.349
120.34
163.836
38.7298
19.8073
-28.9223
124.963
-29.614
775.168
-10.5235
1236.04
9.6344
1432.15
20.601
1134.42
24.3191
729.469
26.7251
285.269
0.985964
-444.433
-13.6813
-644.611
14.113
845.281
35.4838
4261.73
50.0525
7380.91
44.5454
6063.89
46.9363
3226.59
37.2114
1381.65
29.4752
637.046
33.261
99.5519
89.5416
-685.278
145.643
-1563.63
171.816
-1971.45
132.613
-1858.14
-14.1962
-1229.13
-114.319
729.738
-116.005
1594.13
4.10078
1774.72
77.1814
1039.97
38.6934
935.289
55.8934
2051
94.0892
2175.6
115.309
1394.69
93.4777
513.988
92.639
-717.266
120.632
-1991.89
129.845
-2804.56
-3181.26
-140.502
-15.719
-140.331
-9.98358
-140.077
-1.59169
-139.808
6.2158
-139.524
14.0191
-139.304
21.8079
-139.047
30.3133
-138.268
39.6584
-138.176
44.6542
-138.268
50.4893
-138.616
56.5942
-139.044
64.3814
-139.527
74.2665
-140.057
85.7813
-140.583
99.5497
-141.112
115.746
-141.633
135.064
-142.131
158.137
-142.598
185.786
-143.062
218.682
-143.578
257.897
-144.132
304.52
-144.81
359.738
-145.553
424.77
-146.516
500.5
-147.642
587.619
-149.111
685.6
-151.002
793.079
-153.499
905.181
-157.119
1014.64
-163.111
1106.67
-173.471
1161.53
-184.03
1135.49
-151.536
867.484
-9.93265
-1.33807
47.9223
-928.032
76.6024
-1015.47
101.124
-916.862
118.389
-689.953
127.617
-369.658
140.914
-32.1267
125.06
145.109
96.1634
191.938
24.1113
91.2567
-22.706
173.387
-26.1712
779.246
-11.4455
1221.72
7.01215
1414.21
19.5001
1123.01
27.7702
723.105
31.0317
282.844
7.65133
-420.821
-14.0156
-623.687
14.203
816.235
37.3195
4238.85
51.9771
7366.27
45.3438
6071
39.1017
3233.62
34.6532
1387.21
40.9925
632.618
37.4341
94.6914
99.961
-749.296
155.764
-1620.27
175.673
-1992.09
132.755
-1816.46
-18.9865
-1080.51
-84.2207
794.769
-88.7411
1597.23
-9.39324
1692.82
42.8935
983.28
43.9393
935.309
62.714
2033.03
88.5306
2147.22
101.71
1377.93
82.5874
519.521
93.2642
-734.355
122.234
-2023.47
122.268
-2807.38
-3171.33
-141.59
-15.9477
-141.373
-10.1023
-141.074
-1.7491
-140.723
6.06843
-140.351
13.8887
-140.025
21.7635
-139.653
30.2362
-138.93
39.2164
-138.769
44.6886
-138.823
50.6589
-139.115
56.9503
-139.491
64.7996
-139.92
74.7079
-140.382
86.2378
-140.843
99.9818
-141.312
116.178
-141.785
135.488
-142.248
158.551
-142.692
186.169
-143.135
219.076
-143.623
258.314
-144.138
304.988
-144.762
360.278
-145.443
425.403
-146.343
501.286
-147.422
588.614
-148.886
686.971
-150.873
794.97
-153.641
908.016
-157.895
1018.95
-165.296
1113.98
-177.596
1173.64
-183.563
1141.47
-129.634
813.488
10.4653
-142.388
49.5097
-969.904
80.1835
-1047.11
104.101
-940.83
119.316
-704.97
126.18
-375.919
134.465
-39.226
118.378
162.042
81.7967
228.967
21.7362
151.52
-19.8542
215.803
-24.1644
783.848
-11.7712
1209.38
5.3303
1397.18
17.9345
1110.71
27.2591
714.5
29.1272
279.681
11.4543
-402.869
-10.4156
-601.166
14.3712
790.845
37.9542
4215.45
52.8461
7351.34
44.9178
6079.24
35.9633
3243.08
32.4502
1391.52
42.0323
624.856
42.5071
94.3392
105.868
-812.746
161.472
-1675.01
175.775
-2005.36
125.083
-1764.36
-14.7306
-940.067
-73.0426
857.051
-76.5489
1602.42
-6.1843
1622.44
36.1037
941.485
39.2603
937.001
60.0788
2014.52
84.5537
2121.44
94.2725
1368.18
75.1885
538.106
94.4411
-744.632
122.374
-2048.44
125.404
-2807.34
-3134.92
-142.894
-16.2196
-142.653
-10.4194
-142.332
-2.20553
-141.925
5.49395
-141.488
13.2353
-141.07
21.1079
-140.607
29.5126
-139.919
38.2467
-139.686
44.1107
-139.675
50.3075
-139.892
56.8237
-140.195
64.8248
-140.545
74.8298
-140.931
86.4867
-141.323
100.314
-141.728
116.631
-142.145
136.047
-142.561
159.222
-142.966
186.922
-143.366
219.942
-143.805
259.285
-144.257
306.079
-144.805
361.49
-145.403
426.743
-146.213
502.792
-147.213
590.345
-148.623
689.089
-150.628
797.669
-153.538
911.796
-158.232
1024.55
-166.749
1123.37
-179.931
1187.73
-178.325
1141.3
-99.3266
735.682
41.765
-279.714
54.119
-982.248
83.17
-1076.21
106.445
-963.91
119.365
-717.351
123.151
-378.904
126.639
-41.8949
110.904
177.608
79.1585
260.352
24.5967
205.732
-17.4601
258.932
-22.78
789.663
-12.0337
1198.93
3.94994
1381.56
16.199
1099.32
25.9207
706.454
27.3721
278.935
14.876
-390.335
-6.97328
-580.398
14.7506
768.244
38.3482
4192.05
53.1522
7336.4
44.6
6088
33.9748
3253.92
30.9372
1394.61
41.47
616.195
47.5285
76.8956
112.756
-879.817
167.355
-1730.39
176.772
-2015.37
119.938
-1708.23
-11.9342
-811.223
-65.1063
909.26
-66.5684
1601.49
-7.352
1559.74
23.0939
905.348
29.6406
929.719
55.9098
1988.39
79.8024
2094.97
91.0391
1353.9
71.9431
545.59
95.4213
-773.474
122.357
-2077.88
119.667
-2807.37
-3116.17
-144.338
-16.3869
-144.089
-10.5633
-143.751
-2.39494
-143.309
5.26838
-142.833
13.011
-142.352
20.9211
-141.819
29.2853
-141.138
37.8602
-140.83
44.0238
-140.731
50.3679
-140.846
57.044
-141.046
65.1091
-141.301
75.1321
-141.602
86.8099
-141.929
100.63
-142.279
116.949
-142.647
136.358
-143.019
159.52
-143.385
187.188
-143.739
220.194
-144.122
259.532
-144.504
306.339
-144.966
361.785
-145.465
427.105
-146.162
503.287
-147.052
591.053
-148.363
690.195
-150.324
799.402
-153.294
914.671
-158.37
1029.5
-167.947
1132.63
-181.289
1200.59
-170.408
1130.08
-66.403
631.1
60.6301
-409.672
58.8522
-982.767
85.8128
-1104.08
107.451
-985.645
117.626
-727.329
118.002
-378.672
117.608
-40.2715
102.117
194.151
73.8171
289.332
25.5938
254.21
-15.4538
300.62
-21.782
796.203
-12.4221
1189.54
2.56897
1366.53
14.4365
1087.57
24.2789
697.082
25.6413
275.953
16.8903
-381.196
-4.25046
-558.726
15.2911
748.123
38.5866
4168.91
53.2338
7321.68
44.3104
6097.15
32.4028
3266.19
29.4449
1398.26
43.2407
603.798
52.3791
69.271
119.62
-947.079
172.621
-1782.53
176.841
-2018.37
116.692
-1646.86
-9.07483
-685.168
-58.0177
963.478
-57.6444
1603.35
-10.9213
1513.47
8.76281
886.712
20.5605
923.216
51.2867
1960.22
74.5687
2070.73
88.769
1340.84
69.4271
567.931
96.014
-791.224
122.068
-2100.59
121.816
-2803.71
-3069.32
-145.866
-16.616
-145.617
-10.8858
-145.267
-2.88171
-144.799
4.63695
-144.294
12.2889
-143.768
20.1591
-143.19
28.4409
-142.506
36.8819
-142.134
43.2887
-141.951
49.826
-141.968
56.6959
-142.068
64.9037
-142.228
75.0327
-142.442
86.8474
-142.697
100.785
-142.984
117.235
-143.294
136.761
-143.611
160.035
-143.924
187.793
-144.222
220.895
-144.536
260.322
-144.839
307.221
-145.2
362.757
-145.585
428.181
-146.149
504.499
-146.9
592.479
-148.074
692.006
-149.936
801.858
-152.905
918.369
-158.348
1035.66
-168.971
1143.91
-182.134
1214.4
-163.526
1112.69
-56.8677
526.052
42.8379
-506.685
61.9806
-1001.88
87.7805
-1130
107.083
-1004.62
114.06
-733.412
110.749
-373.851
107.325
-34.4999
91.2332
211.333
65.7996
315.159
24.48
295.808
-14.029
340.174
-21.1221
803.8
-12.9499
1181.63
1.13064
1352.73
12.6926
1076.69
22.477
688.663
23.9876
274.617
17.1702
-374.693
-2.73113
-540.421
15.7741
728.397
38.7311
4146.07
53.1847
7306.99
44.019
6106.42
31.1794
3278.98
27.8261
1400.98
39.3903
593.601
56.5951
39.4557
126.345
-1019
177.255
-1834.2
175.901
-2017.46
113.38
-1584.34
-7.2489
-566.104
-52.1535
1008.54
-50.0555
1599.02
-10.1309
1470.33
4.27399
867.367
15.8726
911.314
45.8651
1930.48
68.6489
2045.59
86.1884
1320.56
67.0902
576.12
96.0968
-825.105
121.219
-2128.15
117.516
-2802.71
-3042
-147.462
-16.7603
-147.212
-11.0278
-146.853
-3.08868
-146.366
4.37353
-145.837
12.0166
-145.274
19.8955
-144.657
28.1339
-143.962
36.4977
-143.536
43.1181
-143.283
49.7833
-143.219
56.7837
-143.235
65.0483
-143.316
75.196
-143.451
87.0289
-143.634
100.969
-143.851
117.418
-144.094
136.93
-144.342
160.176
-144.587
187.89
-144.812
220.951
-145.044
260.338
-145.25
307.209
-145.496
362.735
-145.746
428.182
-146.154
504.591
-146.736
592.76
-147.732
692.677
-149.439
803.217
-152.359
921.067
-158.182
1041.21
-169.839
1155.09
-182.437
1226.35
-156.958
1086.73
-50.9539
419.205
32.5183
-592.875
63.8669
-1034.97
88.8602
-1155.8
105.271
-1021.23
108.531
-736.6
101.121
-365.992
96.1523
-29.0603
79.782
228.384
57.4711
337.948
22.2238
331.075
-13.287
376.123
-20.8117
811.447
-13.623
1174.34
-0.339062
1339.33
10.979
1065.39
20.485
679.505
22.6179
270.73
15.8656
-367.413
-2.4518
-521.645
16.1158
709.365
38.7861
4123.57
53.0057
7292.73
43.7549
6115.91
30.2008
3292.95
26.38
1405.72
35.334
586.494
61.6882
17.1904
132.599
-1089.52
180.78
-1881.48
173.386
-2008.81
100.729
-1510.92
-13.9464
-451.706
-47.2796
1048.13
-42.9628
1597.45
-8.66052
1436.83
4.25653
855.959
14.183
907.312
39.8075
1907.82
62.032
2022.76
82.8734
1301.7
64.3528
599.468
95.8481
-848.575
120.025
-2148.76
110.914
-2789.95
-3013.15
-149.109
-16.9308
-148.86
-11.3405
-148.495
-3.58272
-147.995
3.72338
-147.451
11.268
-146.86
19.0833
-146.218
27.2368
-145.515
35.5101
-145.049
42.3013
-144.738
49.1277
-144.607
56.2972
-144.552
64.6889
-144.562
74.9375
-144.624
86.8931
-144.733
100.945
-144.876
117.515
-145.041
137.132
-145.212
160.475
-145.376
188.269
-145.516
221.406
-145.649
260.855
-145.745
307.784
-145.857
363.36
-145.953
428.866
-146.18
505.366
-146.56
593.711
-147.335
693.979
-148.833
805.187
-151.664
924.488
-157.875
1047.98
-170.404
1168.06
-181.65
1237.98
-149.953
1056.03
-46.2314
317.319
26.0867
-663.704
65.4057
-1074.11
89.1037
-1179.56
101.888
-1033.54
100.91
-734.388
89.1383
-352.114
85.1934
-21.0259
69.8555
245.721
50.2705
358.63
19.3254
362.844
-13.243
409.878
-20.8564
819.617
-14.4607
1168.21
-1.83082
1326.94
9.28832
1054.81
18.4618
671.421
21.6033
267.253
13.8552
-360.278
-2.85321
-507.058
16.371
688.552
38.7435
4101.25
52.7062
7278.47
43.5102
6125.18
29.4279
3306.92
25.193
1408.91
29.3049
582.616
64.8722
-28.0677
138.228
-1164.95
183.077
-1926.97
169.181
-1995.16
87.415
-1428.71
-18.2855
-345.923
-43.2945
1076.17
-36.477
1589.05
-7.3209
1405.22
6.53791
838.29
13.7762
900.542
33.0376
1889.07
54.9479
1998.84
79.6326
1274.8
61.6044
606.709
95.0268
-886.145
118.593
-2174.46
114.155
-2787.97
-2969.43
-150.81
-17.0057
-150.56
-11.4786
-150.191
-3.79436
-149.686
3.45066
-149.131
10.976
-148.52
18.7809
-147.86
26.8971
-147.152
35.1335
-146.658
42.0979
-146.305
49.0324
-146.12
56.3088
-146.006
64.7447
-145.952
75.0017
-145.946
86.9586
-145.98
100.998
-146.045
117.548
-146.127
137.133
-146.211
160.428
-146.282
188.159
-146.324
221.228
-146.345
260.603
-146.313
307.461
-146.275
362.978
-146.196
428.45
-146.217
504.982
-146.363
593.464
-146.872
694.076
-148.108
805.989
-150.818
926.896
-157.397
1054.2
-170.533
1180.63
-179.769
1246.48
-142.383
1018.08
-38.6463
212.569
25.318
-729.916
66.9239
-1117.07
88.3238
-1201.71
96.8017
-1042.31
91.0712
-728.711
74.9197
-335.632
73.9016
-19.8935
59.7032
260.204
42.6778
375.914
15.7641
389.609
-13.8329
439.786
-21.2361
827.087
-15.4722
1162.29
-3.33232
1314.64
7.60688
1043.83
16.4698
662.851
21.2411
260.665
12.2761
-350.701
-3.05251
-491.353
16.6236
668.478
38.5739
4079.48
52.3211
7264.7
43.2453
6134.53
28.792
3321.87
24.2354
1414.55
24.4717
584.352
67.9057
-66.2063
143.335
-1239.62
184.351
-1967.03
163.755
-1973.33
82.4856
-1347.03
-12.0117
-252.021
-39.5852
1109.99
-30.3983
1583.31
-3.60402
1379.87
13.5322
823.549
14.5801
906.061
25.7178
1881.41
47.2395
1977.13
75.4445
1249.76
58.0302
630.929
93.7746
-914.269
116.586
-2193.31
109.156
-2776.38
-2930.01
-152.563
-17.1169
-152.315
-11.7818
-151.95
-4.28279
-151.445
2.80441
-150.888
10.2221
-150.268
17.9477
-149.602
25.9814
-148.894
34.1468
-148.381
41.2427
-147.992
48.3111
-147.761
55.7332
-147.592
64.2761
-147.477
74.6178
-147.402
86.6752
-147.362
100.808
-147.345
117.456
-147.339
137.13
-147.331
160.503
-147.302
188.296
-147.234
221.415
-147.131
260.823
-146.958
307.7
-146.752
363.219
-146.479
428.696
-146.268
505.255
-146.146
593.845
-146.345
694.734
-147.271
807.313
-149.835
929.965
-156.745
1061.55
-170.149
1194.33
-176.774
1253.25
-133.944
975.942
-30.173
110.084
26.9439
-786.224
68.1033
-1157.91
86.3536
-1219.89
89.9208
-1045.21
79.0478
-716.188
58.6818
-312.316
61.0378
-15.8105
47.2342
276.724
33.5906
391.383
11.5813
413.005
-14.946
467.749
-21.934
834.742
-16.6561
1157.32
-4.84408
1303.04
5.93053
1033.48
14.589
655.061
20.9428
253.541
11.1677
-341.751
-2.84592
-480.006
16.8975
646.786
38.2831
4058.06
51.8622
7250.76
42.9481
6143.53
28.323
3336.37
23.626
1417.75
21.0896
585.472
71.0009
-123.411
147.818
-1318.34
184.337
-2004.04
157.681
-1946.63
64.992
-1253.52
-16.2481
-168.784
-36.604
1134.86
-24.3921
1570.49
3.29009
1350.96
22.9378
801.49
13.7973
916.446
17.6919
1878.27
39.1494
1954.1
72.0306
1215.61
54.9237
637.198
91.8844
-954.329
114.141
-2217.18
102.435
-2766.73
-2905.77
-154.376
-17.1571
-154.132
-11.9123
-153.775
-4.4822
-153.277
2.54318
-152.723
9.93145
-152.1
17.6352
-151.432
25.6393
-150.727
33.7899
-150.199
41.0332
-149.781
48.1896
-149.508
55.6947
-149.289
64.2652
-149.117
74.5982
-148.976
86.637
-148.862
100.737
-148.765
117.344
-148.668
136.962
-148.562
160.265
-148.425
187.969
-148.239
220.99
-147.999
260.283
-147.671
307.042
-147.281
362.443
-146.793
427.82
-146.325
504.332
-145.901
592.973
-145.747
694.118
-146.323
807.408
-148.723
932.025
-155.884
1068.32
-169.124
1206.96
-172.543
1255.91
-124.447
927.215
-21.4154
5.82239
30.0044
-839.253
68.8146
-1197.74
83.0773
-1234.86
81.2359
-1043.78
64.9075
-700.052
40.8442
-288.201
46.5188
-22.2702
33.8027
289.142
24.5923
400.411
7.29332
429.836
-16.4917
491.627
-22.9245
841.146
-17.9913
1152.18
-6.36676
1291.22
4.26096
1022.81
12.7852
646.879
20.1484
244.496
9.70148
-330.581
-2.62803
-467.301
17.1726
626.778
37.8671
4037.61
51.3345
7237.31
42.6072
6152.58
27.9913
3351.61
23.3583
1423.74
18.5594
593.198
74.5728
-174.067
151.325
-1394.01
182.356
-2034.04
151.356
-1914.57
47.4575
-1149.58
-24.5125
-98.0674
-34.3905
1150
-17.6581
1557.19
7.89185
1326.8
26.6707
785.126
10.0008
939.398
8.93593
1883
30.4537
1932.7
67.5418
1182.44
50.6691
661.795
89.3385
-986.458
111.524
-2235.34
102.913
-2753.72
-2863.99
-156.253
-17.2379
-156.019
-12.1898
-155.676
-4.93756
-155.19
1.93165
-154.645
9.20709
-154.026
16.8232
-153.362
24.7459
-152.661
32.8332
-152.119
40.1771
-151.672
47.4401
-151.359
55.066
-151.091
63.7219
-150.861
74.1189
-150.656
86.2339
-150.469
100.405
-150.291
117.083
-150.102
136.763
-149.897
160.117
-149.647
187.856
-149.336
220.891
-148.95
260.177
-148.453
306.904
-147.864
362.248
-147.141
427.557
-146.392
504.009
-145.631
592.656
-145.085
693.975
-145.277
807.938
-147.489
934.679
-154.77
1075.97
-167.342
1219.72
-167.04
1255.59
-113.978
874.48
-13.0726
-94.5932
33.7005
-885.547
69.0885
-1232.73
78.4743
-1244.09
70.7946
-1035.31
49.0582
-676.321
23.5767
-258.872
32.326
-20.5316
21.5921
302.8
16.7025
407.588
2.95116
445.287
-18.4418
514.587
-24.1877
847.627
-19.4501
1147.77
-7.9051
1279.87
2.60659
1012.64
11.0464
639.152
18.697
235.731
7.71264
-320.445
-2.51836
-460.079
17.4319
604.642
37.3569
4017.6
50.7228
7223.54
42.2369
6161.17
27.7752
3366
23.5179
1426.22
17.8288
596.17
78.5514
-240.264
153.515
-1470.57
178.072
-2058.88
144.495
-1880.57
66.3924
-1069.75
-7.15936
-21.5902
-32.332
1179.31
-11.4463
1536.7
12.4515
1303.1
27.988
768.809
3.58487
965.63
-0.648706
1888.25
21.5203
1909.37
57.6017
1146.92
41.6241
669.484
86.2136
-1032.46
108.547
-2258.48
96.1305
-2742.75
-2834.11
-158.202
-17.2576
-157.981
-12.2956
-157.654
-5.10573
-157.18
1.70088
-156.645
8.93926
-156.031
16.5256
-155.371
24.421
-154.671
32.5009
-154.117
39.968
-153.644
47.2965
-153.293
54.9825
-152.981
63.6505
-152.698
74.0211
-152.432
86.0985
-152.175
100.216
-151.917
116.828
-151.637
136.427
-151.329
159.681
-150.961
187.3
-150.517
220.197
-149.975
259.323
-149.298
305.874
-148.494
361.032
-147.518
426.159
-146.461
502.465
-145.331
591.043
-144.358
692.509
-144.136
807.209
-146.127
936.311
-153.353
1082.78
-164.735
1230.49
-160.133
1250.21
-102.352
816.067
-5.27339
-193.961
37.5846
-929.506
68.7581
-1264.7
72.5394
-1248.61
58.7413
-1022.08
31.9981
-649.968
7.90144
-235.095
17.526
-33.9019
11.0798
308.269
9.80954
408.131
-1.44511
455.693
-20.6497
533.636
-25.6873
852.529
-21.0028
1142.82
-9.46143
1268.11
0.970265
1002.17
9.31558
631.215
17.0199
226.478
5.7513
-308.359
-2.22708
-451.676
17.6639
584.717
36.7562
3998.8
50.0341
7210.31
41.8396
6169.75
27.5716
3381.01
23.6623
1431.74
17.2994
606.145
82.4168
-300.46
154.173
-1541.07
171.737
-2075.38
135.083
-1843.07
69.2203
-1004.15
-4.74325
50.1918
-30.8495
1209.53
-6.40645
1515.49
20.0956
1278.04
31.4745
760.034
-4.30101
1007.33
-10.6831
1898.62
12.0384
1887.24
40.8995
1122.95
27.8682
691.622
82.9756
-1082
105.303
-2276.49
95.8354
-2728.37
-2783.02
-160.227
-17.3151
-160.021
-12.5371
-159.711
-5.52246
-159.252
1.12735
-158.729
8.2473
-158.121
15.7379
-157.467
23.5483
-156.769
31.563
-156.202
39.1031
-155.7
46.5124
-155.313
54.2988
-154.957
63.0353
-154.622
73.4516
-154.298
85.5847
-153.972
99.7513
-153.635
116.408
-153.263
136.042
-152.851
159.317
-152.362
186.936
-151.78
219.808
-151.074
258.879
-150.207
305.341
-149.174
360.371
-147.925
425.344
-146.536
501.482
-145.007
589.936
-143.573
691.459
-142.914
806.869
-144.64
938.461
-151.599
1090.08
-161.218
1240.27
-151.367
1240.32
-90.9489
755.882
0.560377
-286.084
41.3058
-969.736
67.7185
-1290.63
65.3103
-1245.98
45.3524
-1001.27
14.8684
-617.167
-0.047574
-214.961
3.78909
-22.5712
0.742126
314.634
2.40753
409.051
-6.16135
466.095
-23.082
552.176
-27.3919
857.621
-22.6263
1138.4
-11.0309
1256.69
-0.625931
992.044
7.61738
623.588
15.1578
217.543
4.09938
-298.11
-1.49626
-449.26
17.8783
562.879
36.093
3980.42
49.2609
7196.68
41.4232
6177.71
27.4965
3394.87
24.1738
1432.87
17.8703
608.475
85.8242
-372.958
152.805
-1609.5
163.437
-2086.14
123.991
-1802.78
65.9886
-943.077
-8.11721
127.726
-30.0696
1235.5
-2.13794
1489.18
30.3753
1247.42
35.2173
756.354
-14.1781
1058.99
-21.1581
1906.98
2.152
1863.32
26.7446
1102.45
17.5045
699.617
79.5176
-1143.87
101.455
-2298.29
90.0284
-2717.46
-2744.15
-162.332
-17.3185
-162.14
-12.6139
-161.845
-5.66121
-161.398
0.923341
-160.885
7.99764
-160.282
15.4509
-159.63
23.2332
-158.931
31.2406
-158.351
38.8822
-157.825
46.3373
-157.404
54.1672
-157.009
62.9043
-156.627
73.278
-156.247
85.3569
-155.855
99.4496
-155.441
116.016
-154.977
135.539
-154.459
158.683
-153.845
186.145
-153.118
218.833
-152.241
257.691
-151.173
303.911
-149.897
358.677
-148.357
423.367
-146.612
499.235
-144.655
587.477
-142.733
689.03
-141.615
805.23
-143.021
939.503
-149.467
1096.11
-156.776
1246.99
-140.926
1223.71
-72.7233
687.038
4.07795
-365.786
44.6528
-1011.11
65.898
-1312.47
56.8988
-1237.74
31.0499
-976.109
-1.43508
-585.236
-9.86238
-207.669
-13.7324
-25.6931
-8.85797
308.12
-5.01237
404.005
-11.0195
470.943
-25.7036
566.488
-29.2568
860.931
-24.3046
1133.13
-12.6056
1244.76
-2.17157
981.596
5.91061
616.025
13.3561
208.787
3.03816
-286.861
-0.0935836
-445.626
18.1129
544.887
35.3532
3963.53
48.4125
7183.72
40.9738
6185.6
27.5739
3409.14
24.7444
1437.64
18.244
619.874
88.5742
-438.978
149.419
-1669
153.583
-2089.23
114.443
-1763.04
62.915
-892.201
-13.9426
202.056
-30.0515
1254.57
2.81674
1458.86
41.3991
1209.77
36.4641
763.194
-25.4277
1125.81
-31.6931
1917.13
-9.11453
1841.63
13.5796
1084.94
9.88152
716.351
75.7949
-1205.45
97.4673
-2315.79
82.5098
-2697.62
-2708.09
-164.516
-17.3549
-164.339
-12.8167
-164.057
-6.0404
-163.623
0.388944
-163.118
7.34179
-162.52
14.6945
-161.872
22.3891
-161.172
30.3287
-160.578
38.0208
-160.027
45.5343
-159.573
53.4472
-159.139
62.2386
-158.709
72.6389
-158.274
84.7518
-157.816
98.8693
-157.326
115.451
-156.77
134.977
-156.147
158.102
-155.405
185.523
-154.53
218.136
-153.475
256.881
-152.196
302.941
-150.665
357.495
-148.817
421.925
-146.693
497.493
-144.282
585.462
-141.849
686.961
-140.253
803.933
-141.269
940.928
-146.957
1102.12
-151.64
1251.82
-130.951
1203.04
-59.3481
615.869
4.78585
-429.749
47.8552
-1053.62
63.3182
-1327.39
47.4378
-1221.66
16.3982
-944.271
-15.0425
-551.386
-11.7006
-204.921
-24.3454
-1.29384
-17.5136
304.599
-12.1837
401.1
-15.9709
476.389
-28.488
580.512
-31.2546
864.448
-26.0266
1128.22
-14.1676
1233.05
-3.63889
971.298
4.27801
608.69
11.5301
200.042
2.85836
-278.922
2.30782
-448.247
18.3634
526.111
34.5443
3947.13
47.468
7170.28
40.5128
6192.72
27.83
3421.84
25.5845
1437.46
19.5578
621.155
91.0402
-514.249
144.556
-1723.83
142.753
-2087.44
103.389
-1722.61
57.2772
-841.896
-20.9699
283.325
-30.2335
1267.94
9.06194
1422.15
52.4713
1169.7
34.3948
783.89
-37.9445
1200.73
-42.391
1923.47
-21.7817
1820.98
-5.93126
1076.3
2.92278
716.767
72.1519
-1274.2
93.5732
-2336.19
82.1946
-2685.67
-2660.79
-166.782
-17.3435
-166.615
-12.867
-166.344
-6.15591
-165.918
0.206951
-165.42
7.10837
-164.824
14.4184
-164.176
22.0838
-163.473
30.0137
-162.867
37.789
-162.293
45.3312
-161.809
53.2726
-161.339
62.0543
-160.865
72.3959
-160.378
84.4368
-159.856
98.4584
-159.291
114.922
-158.642
134.306
-157.911
157.264
-157.039
184.483
-156.01
216.861
-154.769
255.33
-153.271
301.073
-151.471
355.268
-149.298
419.3
-146.775
494.455
-143.887
582.055
-140.926
683.479
-138.83
801.304
-139.374
941.105
-144.077
1106.42
-145.932
1253.1
-121.229
1177.57
-49.7162
543.807
7.61696
-489.14
50.8797
-1097.49
59.8961
-1336.9
37.1472
-1199.74
2.12502
-910.128
-25.9389
-524.252
-25.9503
-207.486
-35.6336
-0.903457
-24.4291
291.016
-18.5321
393.465
-20.8433
477.196
-31.3768
590.435
-33.3524
866.055
-27.7847
1122.28
-15.7023
1220.73
-5.01625
960.615
2.72439
601.571
10.2291
191.466
3.93915
-271.554
5.55667
-449.228
18.5761
513.584
33.6328
3932.48
46.4272
7157.61
40.062
6199.61
28.1155
3434.82
26.4988
1441.47
20.6547
632.976
92.6714
-582.454
138.368
-1768.12
130.734
-2078.71
83.7108
-1675.37
43.1042
-802.04
-28.2958
352.18
-29.8779
1271.63
16.5334
1377.55
61.2287
1125.36
27.7562
818.41
-51.0472
1283.68
-52.9727
1929.4
-35.8613
1805.4
-51.3964
1096.95
0.202313
688.983
69.0264
-1339.06
89.7434
-2352.57
76.0354
-2666.71
-2613.45
-169.127
-17.3621
-168.971
-13.0417
-168.709
-6.51159
-168.291
-0.302782
-167.798
6.47481
-167.206
13.6805
-166.559
21.2552
-165.853
29.1134
-165.232
36.9189
-164.635
44.5016
-164.119
52.5104
-163.612
61.3335
-163.094
71.6847
-162.553
83.7394
-161.967
97.7627
-161.325
114.213
-160.585
133.567
-159.745
156.469
-158.74
183.6
-157.555
215.85
-156.124
254.143
-154.397
299.647
-152.317
353.534
-149.803
417.185
-146.862
491.894
-143.478
579.067
-139.972
680.342
-137.353
798.99
-137.33
941.501
-140.817
1110.23
-139.725
1252.15
-111.244
1149.2
-39.8583
473.174
12.7196
-541.171
53.5682
-1137.74
55.6225
-1338.38
26.3409
-1170.31
-11.0615
-872.079
-33.5674
-499.533
-29.2292
-206.808
-40.074
16.0459
-30.8047
284.654
-24.5853
389.247
-25.6966
479.629
-34.3566
600.41
-35.539
867.924
-29.569
1116.6
-17.1862
1208.47
-6.26543
949.874
1.32644
594.557
8.35841
182.964
5.16957
-269.081
9.31844
-456.592
18.6872
501.264
32.6205