/*--------------------------------*- C++ -*----------------------------------*\
| =========                 |                                                 |
| \\      /  F ield         | OpenFOAM: The Open Source CFD Toolbox           |
|  \\    /   O peration     | Version:  4.1                                   |
|   \\  /    A nd           | Web:      www.OpenFOAM.org                      |
|    \\/     M anipulation  |                                                 |
\*---------------------------------------------------------------------------*/
FoamFile
{
    version     2.0;
    format      ascii;
    class       volVectorField;
    location    "14";
    object      U;
}
// * * * * * * * * * * * * * * * * * * * * * * * * * * * * * * * * * * * * * //

dimensions      [0 1 -1 0 0 0 0];

internalField   nonuniform List<vector> 
6785
(
(8.15587e-15 0.852198 15.7946)
(9.7751e-15 -4.8946 12.1215)
(-3.25132e-15 -4.19552 12.1321)
(3.02456e-15 -3.60121 11.9966)
(8.19104e-16 -3.00472 11.8778)
(-1.39317e-16 -2.55324 11.6992)
(2.12668e-15 -2.20886 11.4769)
(3.87689e-16 -1.96609 11.2116)
(-6.96893e-16 -1.79862 10.916)
(1.27373e-15 -1.71245 10.5882)
(1.67447e-16 -1.83753 10.1561)
(-4.98618e-16 -2.28576 9.53763)
(7.28383e-16 -2.51314 8.9638)
(3.25262e-16 -1.06563 8.91364)
(-2.72642e-16 1.76581 7.4711)
(2.36383e-14 -5.35015 22.4929)
(1.6638e-14 -14.6049 21.3939)
(-4.43786e-16 -13.2709 20.3411)
(3.28022e-15 -11.7697 19.5065)
(2.04402e-15 -11.1561 18.5043)
(3.534e-17 -10.6595 17.5173)
(2.51086e-15 -10.0902 16.5714)
(1.28749e-15 -9.52505 15.6235)
(-8.89926e-16 -8.96549 14.6638)
(1.69338e-15 -8.36738 13.6945)
(8.63739e-16 -7.75717 12.7178)
(-4.11732e-16 -7.3034 11.7193)
(3.17133e-15 -7.01703 10.6242)
(-3.21153e-16 -5.73091 9.16082)
(-1.86063e-16 -2.3049 4.58337)
(2.11976e-14 -7.71564 23.9798)
(1.26157e-14 -16.7731 24.673)
(-5.6566e-17 -13.7367 23.9372)
(2.18731e-16 -12.3063 22.6249)
(2.79457e-15 -11.6449 21.2414)
(1.19729e-15 -10.8142 20.0013)
(2.01282e-15 -9.94047 18.7738)
(-2.67207e-16 -9.10036 17.5248)
(-2.2121e-16 -8.28366 16.2655)
(3.47188e-16 -7.47556 15.0263)
(9.07258e-17 -6.66796 13.8177)
(-9.6144e-16 -5.84211 12.4303)
(-1.94713e-15 -4.81464 10.276)
(5.85474e-16 -3.12719 6.68563)
(-2.96495e-17 -0.832659 1.69081)
(2.20275e-14 -8.5023 22.0449)
(1.68934e-14 -16.6214 24.3325)
(1.06598e-15 -12.9303 23.797)
(2.30582e-15 -12.1539 21.9986)
(-1.22305e-15 -11.4204 20.5028)
(4.28836e-15 -10.4941 19.1723)
(3.96732e-15 -9.63438 17.8169)
(-1.82941e-15 -8.82416 16.4592)
(5.01862e-16 -8.05426 15.1232)
(8.46221e-16 -7.3245 13.8167)
(5.97096e-16 -6.55348 12.4401)
(-1.43623e-15 -5.49257 10.5849)
(-5.47353e-16 -3.78781 7.51224)
(-5.97353e-15 -1.49607 2.77004)
(-8.94213e-16 0.151954 -1.77278)
(1.9505e-14 -8.4753 19.745)
(1.51554e-14 -16.3604 24.3126)
(-2.88191e-15 -13.0999 23.6601)
(2.74435e-15 -12.6283 21.5365)
(2.4649e-15 -11.8571 20.0247)
(-1.85189e-16 -10.9581 18.6638)
(1.96491e-15 -10.1706 17.2589)
(-5.16817e-16 -9.40359 15.8714)
(3.94059e-16 -8.65344 14.5239)
(3.4794e-16 -7.93145 13.214)
(-1.58078e-15 -7.16706 11.8301)
(2.42881e-15 -6.11816 9.99853)
(-8.96139e-16 -4.42741 7.16)
(-8.59803e-15 -2.30898 3.29316)
(-5.99998e-15 -0.790348 0.32132)
(1.78851e-14 -8.01957 17.5463)
(1.57243e-14 -16.0192 24.5273)
(3.76535e-15 -13.646 24.0463)
(1.60262e-15 -12.9953 21.7652)
(-9.96028e-18 -12.1278 20.2155)
(2.06748e-15 -11.2262 18.8469)
(3.92029e-15 -10.4406 17.4343)
(-3.95374e-16 -9.65071 16.0437)
(1.08943e-15 -8.86231 14.6938)
(-1.43202e-15 -8.09532 13.3824)
(-2.12686e-15 -7.29977 12.0184)
(-4.98868e-16 -6.28797 10.2848)
(-1.70476e-15 -4.7376 7.72611)
(5.85135e-15 -2.76057 4.37774)
(-1.55131e-15 -0.952692 1.30159)
(1.63583e-14 -7.33089 15.2351)
(1.64834e-14 -15.4889 24.3508)
(6.48259e-15 -14.0288 24.4228)
(1.52844e-15 -13.1309 22.0685)
(1.4414e-15 -12.148 20.4399)
(2.87047e-15 -11.2392 19.0548)
(2.736e-15 -10.4395 17.6443)
(4.89967e-16 -9.6235 16.2585)
(1.64357e-16 -8.81387 14.9078)
(1.45197e-15 -8.031 13.5934)
(7.16624e-16 -7.22793 12.2391)
(1.78854e-15 -6.2453 10.5532)
(-3.51717e-16 -4.79471 8.11535)
(-1.00668e-14 -2.92221 4.95676)
(1.07353e-14 -1.01692 1.80646)
(1.08685e-14 -6.53785 12.9861)
(1.66929e-14 -14.8381 23.7976)
(6.65409e-15 -14.2775 24.6706)
(1.04e-15 -13.2459 22.3252)
(2.03722e-15 -12.1755 20.5828)
(2.95612e-15 -11.2735 19.1664)
(3.92126e-15 -10.4731 17.7594)
(1.17486e-15 -9.6516 16.3781)
(2.80824e-15 -8.84357 15.0267)
(-1.94239e-15 -8.06405 13.7102)
(1.66567e-15 -7.26442 12.3621)
(1.6782e-15 -6.29789 10.7078)
(3.41947e-15 -4.90416 8.34454)
(-1.66679e-15 -3.09793 5.28302)
(1.97272e-15 -1.13054 2.05689)
(1.16793e-14 -5.73441 11.0208)
(1.66119e-14 -14.1489 23.0363)
(6.88218e-15 -14.4683 24.8484)
(3.04713e-15 -13.4195 22.6286)
(1.6694e-15 -12.2732 20.7597)
(1.74227e-15 -11.3681 19.2988)
(1.09989e-15 -10.5667 17.8957)
(1.32332e-15 -9.7451 16.5176)
(8.60012e-16 -8.93898 15.164)
(1.96115e-15 -8.15961 13.8442)
(1.04894e-15 -7.35983 12.4982)
(-1.19355e-15 -6.40266 10.8701)
(-1.46652e-15 -5.05121 8.57703)
(-1.64907e-15 -3.29606 5.59712)
(-3.59391e-15 -1.25946 2.28461)
(7.99976e-15 -4.98212 9.37198)
(1.59357e-14 -13.4475 22.1525)
(8.01547e-15 -14.5778 24.9422)
(1.62545e-15 -13.6025 22.9647)
(1.71915e-15 -12.3849 20.9783)
(2.37978e-15 -11.4585 19.4592)
(1.20073e-15 -10.6508 18.0566)
(7.5031e-16 -9.82915 16.6816)
(1.18444e-15 -9.02305 15.3261)
(2.84849e-16 -8.24109 14.003)
(8.32211e-16 -7.44129 12.657)
(-7.7314e-16 -6.49263 11.0474)
(-1.84506e-15 -5.17312 8.80784)
(-1.26025e-15 -3.45553 5.88388)
(-6.34115e-15 -1.35283 2.49148)
(1.95617e-15 -4.34596 8.05947)
(1.52989e-14 -12.7774 21.2431)
(5.42088e-15 -14.6072 24.9471)
(3.85694e-15 -13.78 23.3063)
(3.53247e-15 -12.5166 21.2379)
(-4.22179e-15 -11.5627 19.651)
(1.38179e-15 -10.747 18.2405)
(2.16716e-15 -9.92637 16.8653)
(-3.545e-15 -9.11992 15.5063)
(8.79604e-16 -8.3344 14.1779)
(2.8463e-15 -7.53276 12.8289)
(-5.04365e-15 -6.59189 11.2344)
(4.65222e-15 -5.30326 9.04582)
(-1.05997e-14 -3.62347 6.17533)
(-1.08098e-14 -1.45442 2.70617)
(4.43928e-15 -3.75046 6.81607)
(1.68165e-14 -12.0835 20.2148)
(7.29111e-15 -14.5328 24.7884)
(3.75864e-15 -13.8931 23.5239)
(8.05733e-16 -12.5851 21.3881)
(1.50606e-15 -11.5922 19.736)
(1.20729e-15 -10.771 18.3304)
(5.45851e-15 -9.95854 16.9692)
(-1.79761e-15 -9.16081 15.6211)
(-1.63154e-15 -8.38274 14.3021)
(-2.96583e-16 -7.58986 12.9614)
(-3.44484e-15 -6.66026 11.3812)
(-3.67933e-15 -5.39085 9.22257)
(-5.72811e-15 -3.73052 6.37489)
(-6.85433e-15 -1.5058 2.83144)
(-1.41882e-16 -3.4554 6.27101)
(1.37934e-14 -11.5944 19.4178)
(1.02021e-14 -14.5821 24.6778)
(4.46029e-15 -14.2674 23.969)
(3.2954e-15 -13.0168 21.8702)
(-6.13497e-16 -11.9854 20.1019)
(4.05717e-16 -11.1336 18.6191)
(5.19225e-15 -10.3061 17.2205)
(-8.91188e-16 -9.48691 15.8406)
(-9.21327e-16 -8.67989 14.4925)
(8.68025e-16 -7.86091 13.1348)
(-3.13248e-15 -6.92105 11.5765)
(-2.822e-15 -5.67072 9.50284)
(-4.71832e-15 -4.02014 6.72485)
(-6.7578e-15 -1.68131 3.08399)
(-5.06321e-16 -2.06226 3.08271)
(1.16909e-14 -10.0933 16.7594)
(8.29615e-15 -13.94 23.504)
(2.56864e-15 -13.8776 23.3905)
(2.41208e-15 -12.5201 21.2723)
(-3.74391e-16 -11.4472 19.5762)
(6.3081e-16 -10.6897 18.3396)
(3.02499e-15 -9.9872 17.1632)
(-7.51406e-16 -9.2941 15.9795)
(-5.31559e-16 -8.6121 14.7923)
(5.21647e-16 -7.91219 13.5809)
(-2.78863e-15 -7.09241 12.1616)
(-2.21295e-15 -5.9579 10.2323)
(-4.87804e-15 -4.46592 7.71064)
(-5.01216e-15 -2.18984 4.35368)
(1.15734e-15 -4.1121 8.93457)
(1.19836e-14 -11.0982 19.3781)
(1.27035e-14 -15.329 25.4011)
(7.88346e-15 -16.6888 26.2759)
(3.83044e-15 -16.0746 24.3369)
(9.40981e-16 -14.8825 21.8688)
(1.95809e-17 -13.6146 19.6325)
(9.59252e-16 -12.4178 17.7286)
(-3.30637e-17 -11.2624 16.0096)
(-8.58225e-16 -10.1307 14.4276)
(-6.87932e-16 -9.01181 12.9511)
(-2.07234e-15 -7.80898 11.4141)
(-2.52769e-15 -6.39585 9.56077)
(-5.49704e-15 -4.43566 6.85374)
(-4.42956e-15 -0.907998 2.3211)
(-5.98129e-16 0.688109 -3.53714)
(-8.48778e-16 1.02191 -6.1906)
(-6.17634e-16 0.842116 -4.21186)
(-7.3771e-16 1.37995 -4.15992)
(-7.02918e-16 1.74835 -3.93238)
(-1.01506e-15 2.79202 -5.57541)
(-7.30891e-16 2.14296 -3.67658)
(-7.67152e-16 2.6053 -3.60584)
(-4.0628e-16 2.82478 -3.41676)
(1.26828e-15 3.87581 -4.65979)
(-1.48084e-15 3.17824 -3.09513)
(-1.21074e-15 3.42734 -2.87355)
(-1.33447e-15 4.74413 -3.82229)
(-1.03382e-15 3.78883 -2.51797)
(-1.02032e-15 4.10426 -2.46552)
(-9.27799e-16 4.20972 -2.35801)
(-1.22318e-15 5.26672 -3.04715)
(-8.96129e-16 4.31337 -2.05727)
(-8.26881e-16 4.46033 -1.92984)
(-1.16634e-15 5.81514 -2.37683)
(-8.34743e-16 4.55475 -1.61631)
(-8.27255e-16 4.82107 -1.58)
(-9.12292e-16 4.83911 -1.52888)
(-1.13747e-15 5.93444 -1.78661)
(-7.99162e-16 4.61385 -1.27216)
(-7.77681e-16 4.90984 -1.23814)
(-8.67043e-16 4.92994 -1.20986)
(-1.08562e-15 5.8504 -1.2638)
(-1.0619e-15 4.55375 -0.97365)
(-7.39133e-16 4.61437 -0.953586)
(-1.06151e-15 5.72386 -0.787119)
(-1.01131e-15 4.30658 -0.671173)
(-7.30886e-16 4.46331 -0.651599)
(-1.00109e-15 4.46135 -0.667797)
(-1.0039e-15 5.28957 -0.376039)
(-6.99608e-16 3.93185 -0.41319)
(-6.49226e-16 3.94814 -0.446541)
(-9.20499e-16 4.93176 -0.0300348)
(-6.33786e-16 3.51022 -0.168603)
(-6.27639e-16 3.62896 -0.158249)
(-5.63761e-16 3.60138 -0.196436)
(-7.88723e-16 4.39189 0.261404)
(-5.41681e-16 3.00543 0.0520494)
(-5.30196e-16 3.16159 0.0622276)
(-5.06826e-16 3.13084 0.0230401)
(-6.89198e-16 3.81698 0.489058)
(-8.5942e-17 2.61287 0.312843)
(-5.09426e-16 2.59102 0.257737)
(-5.69001e-16 3.40975 0.777546)
(-6.06047e-16 2.32038 0.601474)
(-6.81944e-16 2.3676 0.608093)
(-5.59238e-16 2.32485 0.554281)
(-7.01643e-16 2.71499 1.08588)
(-5.15277e-16 1.8715 0.79737)
(-5.2053e-16 1.8988 0.794365)
(-3.72985e-16 1.88054 0.739062)
(-4.37365e-16 1.99613 1.15796)
(-3.05394e-16 1.29084 0.71616)
(-2.85337e-16 1.22753 0.669594)
(-3.08866e-16 1.41297 0.578131)
(-2.00103e-16 0.575959 0.0418935)
(-1.80926e-16 0.51707 0.0256207)
(-2.04235e-16 0.598691 0.0538451)
(8.64942e-16 1.08072 -1.43625)
(-7.40681e-16 -0.560241 0.0772195)
(-1.03014e-15 -0.09486 0.340495)
(-1.53609e-15 -0.376976 2.13185)
(-1.16105e-15 -1.54934 3.67425)
(-1.04815e-15 -1.5483 3.63883)
(-1.08425e-15 -1.56012 3.82529)
(-1.3278e-15 -2.95728 6.79623)
(-9.01292e-16 -3.47936 6.27049)
(-9.46786e-16 -3.7324 6.4066)
(-9.40326e-16 -3.91066 6.5923)
(-1.00565e-15 -6.50391 10.2149)
(-5.33432e-16 -5.97946 8.24351)
(-5.86347e-16 -6.26954 8.73288)
(-5.13893e-16 -9.66625 12.7648)
(-3.4404e-16 -8.63492 9.82344)
(-4.77948e-16 -9.01868 10.5375)
(-1.05805e-15 -9.8631 12.2221)
(-9.16053e-16 -9.7336 12.1389)
(-8.68315e-16 -9.9013 12.4148)
(7.18628e-16 -11.8819 15.2255)
(-3.28678e-16 -10.5672 13.3961)
(-1.77273e-16 -10.9273 14.0945)
(-1.3296e-16 -10.9162 14.2423)
(-7.18486e-17 -10.9893 14.3603)
(-1.41618e-17 -11.0816 14.5034)
(6.52962e-17 -11.1591 14.6707)
(2.4621e-16 -11.2477 14.9824)
(4.66989e-16 -11.3743 15.367)
(1.31696e-15 -12.1566 16.7413)
(8.29763e-16 -11.658 15.7394)
(9.09452e-16 -11.8031 15.961)
(9.45646e-16 -11.7804 16.0857)
(1.03318e-15 -11.9436 16.4586)
(1.08664e-15 -11.9154 16.4919)
(1.1422e-15 -11.9957 16.635)
(1.20791e-15 -12.0499 16.7583)
(1.29752e-15 -12.1095 16.9068)
(2.07353e-15 -12.5841 17.9478)
(1.99507e-15 -12.1142 17.2338)
(2.10513e-15 -12.2226 17.406)
(2.15559e-15 -12.2481 17.4925)
(2.22586e-15 -12.287 17.6233)
(2.28983e-15 -12.327 17.8224)
(2.35412e-15 -12.397 18.0465)
(2.43514e-15 -12.3991 18.1171)
(2.525e-15 -12.4669 18.2393)
(2.63478e-15 -12.5213 18.3441)
(3.56831e-15 -12.2911 18.5597)
(2.90302e-15 -12.1555 18.3079)
(3.033e-15 -12.1959 18.4162)
(3.07667e-15 -12.2192 18.4874)
(3.15609e-15 -12.2523 18.578)
(3.24698e-15 -12.2403 18.6906)
(3.41451e-15 -12.2938 18.9414)
(3.51292e-15 -12.3224 19.0321)
(3.60462e-15 -12.3695 19.0406)
(4.21607e-15 -11.3142 18.0666)
(3.7246e-15 -11.5411 18.3482)
(3.83179e-15 -11.5098 18.4814)
(3.86782e-15 -11.5404 18.6361)
(3.9989e-15 -11.4877 18.5828)
(4.1087e-15 -11.4847 18.5871)
(4.23741e-15 -11.4622 18.5747)
(4.43084e-15 -11.4536 18.5925)
(4.70159e-15 -11.5418 18.7918)
(5.18541e-15 -9.2912 16.135)
(4.88704e-15 -10.1989 17.4428)
(5.00606e-15 -10.0388 17.2152)
(5.06479e-15 -10.0058 17.1443)
(5.30199e-15 -9.9765 17.1953)
(5.42579e-15 -9.87627 17.0054)
(5.51264e-15 -9.77803 16.7082)
(5.5885e-15 -9.74581 16.3862)
(5.66457e-15 -9.6364 15.9674)
(5.946e-15 -6.52494 11.9397)
(6.28049e-15 -7.97553 14.4931)
(6.11463e-15 -7.60026 13.7757)
(6.01853e-15 -7.56103 13.3467)
(5.90338e-15 -7.42598 12.7631)
(5.85663e-15 -7.35981 12.1226)
(6.28325e-15 -7.09885 11.3203)
(5.7518e-15 -7.03584 10.6875)
(5.43959e-15 -6.85982 9.91264)
(5.01564e-15 -6.52466 9.04641)
(2.41483e-15 -3.32797 3.14001)
(4.16965e-15 -4.89935 6.90664)
(3.56902e-15 -4.28973 5.58776)
(3.25973e-15 -4.31124 5.11524)
(2.84281e-15 -4.07256 4.35449)
(2.32573e-15 -4.0491 3.48043)
(1.28948e-15 -3.91534 2.01779)
(2.47291e-16 -3.52954 0.559116)
(3.843e-16 -3.35818 0.394474)
(-3.29588e-16 -4.71206 -2.02861)
(2.92706e-16 -2.55246 0.108331)
(1.51958e-16 -2.44683 -0.573079)
(-1.57201e-16 -1.62461 -2.4329)
(1.07227e-15 -2.63003 -1.77133)
(-5.76464e-16 -1.67581 -1.85479)
(-4.19252e-16 -1.34515 -1.62829)
(7.81657e-16 -1.43001 -1.75575)
(-5.52692e-16 -0.673326 -1.58855)
(-7.05421e-16 -0.941799 -1.65629)
(-1.43815e-15 -0.371705 -1.56009)
(9.36663e-17 0.0111595 -1.50476)
(-1.8564e-17 0.137182 -1.47786)
(-1.26777e-16 0.626907 -1.41336)
(-2.39878e-16 0.172511 -1.50736)
(-3.48798e-16 1.37525 -1.33722)
(-9.16125e-16 1.0433 -1.38754)
(-1.19386e-15 1.30183 -1.08414)
(1.3404e-16 0.841147 -0.461)
(-6.05491e-16 1.31307 -1.20218)
(-6.77313e-15 1.71087 -0.558327)
(2.31478e-15 1.26018 -0.950422)
(1.40502e-15 1.76372 -0.492283)
(1.12083e-15 2.20081 -0.883922)
(9.80181e-16 1.39927 -0.758422)
(1.34176e-15 2.29969 -0.337072)
(5.38512e-16 2.43569 -0.726792)
(9.07218e-17 1.61971 -0.557152)
(-5.12193e-16 3.1396 -0.318968)
(4.83615e-16 1.78155 -0.414738)
(4.55937e-15 2.56984 -0.203817)
(-7.57287e-16 2.92869 -0.180406)
(-6.04448e-16 1.92675 -0.15021)
(-4.15549e-16 3.33047 -0.137365)
(-4.0649e-16 2.15225 -0.0371077)
(-1.11405e-15 2.75342 0.0268698)
(1.06394e-15 3.14024 0.0161521)
(7.3109e-16 2.23349 0.108963)
(-5.27451e-16 2.89062 0.181532)
(-2.2654e-16 3.26841 0.126794)
(9.4862e-16 2.33323 0.226315)
(2.75033e-16 3.37602 0.19842)
(4.11377e-16 2.52672 0.252004)
(4.79019e-16 2.92957 0.287251)
(3.85513e-16 3.32961 0.176807)
(-6.41525e-16 2.39533 0.293404)
(3.50529e-16 3.45414 0.211211)
(3.21293e-16 2.64431 0.27862)
(1.73403e-16 3.00675 0.251843)
(-4.81288e-16 3.40773 0.10762)
(-2.65797e-16 2.50678 0.249296)
(5.7138e-17 3.15462 0.206398)
(-5.63703e-17 3.62549 0.0440898)
(-6.03941e-17 2.56274 0.217143)
(-8.33068e-16 3.61113 0.0543935)
(-6.84683e-17 2.87462 0.144983)
(-4.44486e-16 3.209 0.0525503)
(-3.99443e-16 3.77215 -0.0827213)
(3.38893e-16 2.63537 0.0834193)
(2.60127e-17 3.92497 -0.0878965)
(4.11406e-17 3.03082 0.0245672)
(1.1047e-16 3.44187 -0.0993652)
(-8.6065e-17 3.99258 -0.215804)
(-1.45407e-17 2.88231 -0.038077)
(1.4897e-16 3.71029 -0.150881)
(2.33871e-16 4.35846 -0.269888)
(-6.51985e-18 2.97006 -0.067565)
(-3.38059e-16 4.41141 -0.264964)
(-1.07789e-16 3.41771 -0.129584)
(-7.77088e-17 3.8848 -0.27308)
(-2.05546e-16 4.62935 -0.358273)
(-3.20945e-16 3.1773 -0.174378)
(-3.71087e-16 4.88347 -0.358465)
(-2.87446e-16 3.68876 -0.216044)
(-3.86105e-16 4.26518 -0.370016)
(-6.95084e-16 4.94811 -0.447062)
(-2.30968e-16 3.58211 -0.258109)
(-3.17259e-16 4.61026 -0.385655)
(-4.6995e-16 5.43598 -0.478121)
(-2.70469e-16 3.68957 -0.271721)
(-1.78409e-16 5.62047 -0.485184)
(-3.04526e-16 4.2122 -0.324679)
(-4.7341e-16 5.11945 -0.540442)
(-9.79785e-16 0.0212022 0.932283)
(-9.79786e-16 0.0138857 0.931599)
(-9.79788e-16 0.00272649 0.930336)
(-9.79792e-16 -0.00742098 0.928683)
(-9.79794e-16 -0.0176575 0.927368)
(-9.79796e-16 -0.0274634 0.926546)
(-9.79798e-16 -0.0386389 0.925786)
(-9.798e-16 -0.0519351 0.923131)
(-9.79802e-16 -0.0528592 0.922528)
(-9.79803e-16 -0.0588726 0.922303)
(-9.79802e-16 -0.0658361 0.922866)
(-9.79799e-16 -0.0749586 0.924873)
(-9.79791e-16 -0.0875959 0.927113)
(-9.79779e-16 -0.102533 0.929742)
(-9.7976e-16 -0.121004 0.932891)
(-9.79733e-16 -0.142469 0.936367)
(-9.79695e-16 -0.168152 0.93983)
(-9.79641e-16 -0.198867 0.94309)
(-9.79569e-16 -0.235892 0.946168)
(-9.79471e-16 -0.279657 0.949241)
(-9.7934e-16 -0.331858 0.952523)
(-9.79168e-16 -0.393689 0.956245)
(-9.78942e-16 -0.46685 0.960538)
(-9.78649e-16 -0.552822 0.965526)
(-9.7827e-16 -0.652807 0.971349)
(-9.77783e-16 -0.767642 0.978219)
(-9.77161e-16 -0.896638 0.98638)
(-9.76373e-16 -1.03815 0.996157)
(-9.7539e-16 -1.18572 1.00805)
(-9.74197e-16 -1.33026 1.02323)
(-9.72804e-16 -1.45226 1.04397)
(-9.71301e-16 -1.52529 1.07499)
(-9.70294e-16 -1.50227 1.1314)
(-9.70465e-16 -1.26238 1.22471)
(-9.52844e-16 -0.437404 1.0169)
(-8.81678e-16 1.08874 -0.318207)
(-8.7898e-16 1.29252 -0.389294)
(-8.81505e-16 1.17081 -0.553181)
(-8.82889e-16 0.887124 -0.704896)
(-8.83363e-16 0.480516 -0.79935)
(-8.83651e-16 0.0288709 -0.890329)
(-8.82297e-16 -0.0804343 -0.893606)
(-8.83859e-16 -0.159548 -0.907415)
(-8.83162e-16 0.0541825 -0.708773)
(-8.04261e-16 -0.138836 0.177112)
(-8.00506e-16 -1.01331 0.231473)
(-8e-16 -1.63788 0.1672)
(-7.99338e-16 -1.9091 -0.0281112)
(-7.98965e-16 -1.51897 -0.104004)
(-7.98918e-16 -0.984387 -0.170229)
(-7.99011e-16 -0.420123 -0.157692)
(-7.93268e-16 0.627218 -0.192657)
(-7.3441e-16 0.869167 0.21608)
(-6.54368e-16 -1.16011 -0.0766849)
(-5.95338e-16 -5.70292 -0.106325)
(-4.58298e-16 -9.85023 -0.366836)
(-2.80065e-16 -8.06093 -0.299926)
(-1.97342e-16 -4.26124 -0.288971)
(-1.66331e-16 -1.828 -0.350622)
(-1.57933e-16 -0.869823 -0.145365)
(-1.5518e-16 -0.0829481 -0.168409)
(-1.60186e-16 0.856361 -0.356372)
(-1.58842e-16 2.02274 -0.828925)
(-1.54578e-16 2.60229 -1.10963)
(-1.55241e-16 2.5349 -1.17129)
(-1.58161e-16 1.78665 -0.572521)
(-1.55895e-16 -0.96372 0.70244)
(-1.43176e-16 -2.08974 0.839332)
(-1.21079e-16 -2.34055 0.731039)
(-6.5841e-17 -1.26183 -0.796608)
(-5.307e-17 -1.10618 -0.25331)
(-5.49355e-17 -2.70999 -0.249572)
(-4.54104e-17 -2.89325 -0.492822)
(-3.90537e-17 -1.82357 -0.76185)
(-4.00028e-17 -0.585017 -0.780959)
(1.64727e-17 0.939569 -0.477536)
(1.98452e-16 2.61947 -0.745766)
(2.25352e-16 3.73487 -0.859067)
(3.48594e-16 4.26922 -0.923516)
(-9.79765e-16 0.01961 0.937447)
(-9.79763e-16 0.011584 0.936382)
(-9.79766e-16 6.42627e-05 0.934743)
(-9.79769e-16 -0.010475 0.932948)
(-9.79771e-16 -0.0208535 0.930949)
(-9.79775e-16 -0.031179 0.929421)
(-9.79779e-16 -0.042307 0.927849)
(-9.79782e-16 -0.0548119 0.924326)
(-9.79784e-16 -0.0652846 0.92147)
(-9.79785e-16 -0.0743366 0.921168)
(-9.79783e-16 -0.0829859 0.922487)
(-9.79777e-16 -0.0941311 0.925401)
(-9.79768e-16 -0.107462 0.928524)
(-9.79753e-16 -0.122845 0.93186)
(-9.79731e-16 -0.140807 0.935432)
(-9.797e-16 -0.162167 0.938992)
(-9.79657e-16 -0.187719 0.942522)
(-9.79598e-16 -0.218256 0.945912)
(-9.7952e-16 -0.254734 0.949084)
(-9.79416e-16 -0.298285 0.952133)
(-9.79278e-16 -0.350217 0.955356)
(-9.79099e-16 -0.412096 0.958886)
(-9.78866e-16 -0.485518 0.962965)
(-9.78565e-16 -0.57216 0.967649)
(-9.78177e-16 -0.67319 0.973297)
(-9.77681e-16 -0.789505 0.980187)
(-9.77048e-16 -0.920247 0.988776)
(-9.76248e-16 -1.06354 0.999847)
(-9.75253e-16 -1.21227 1.01416)
(-9.74045e-16 -1.35649 1.03386)
(-9.72638e-16 -1.4746 1.064)
(-9.71233e-16 -1.53818 1.1135)
(-9.708e-16 -1.49251 1.19247)
(-9.69242e-16 -1.14504 1.23481)
(-9.41288e-16 -0.0141638 0.664068)
(-8.83912e-16 1.19398 -0.302786)
(-8.79924e-16 1.32912 -0.41943)
(-8.81329e-16 1.20146 -0.59916)
(-8.81882e-16 0.902083 -0.747961)
(-8.8204e-16 0.480916 -0.827814)
(-8.82453e-16 0.03085 -0.895912)
(-8.81951e-16 -0.261207 -0.89056)
(-8.83284e-16 -0.273956 -0.822083)
(-8.82796e-16 -0.0918691 -0.532034)
(-8.05556e-16 -0.172512 0.172633)
(-8.00501e-16 -1.05005 0.205718)
(-7.99992e-16 -1.65808 0.160517)
(-7.99337e-16 -1.91092 -0.0163785)
(-7.98967e-16 -1.50593 -0.0904938)
(-7.98917e-16 -0.957587 -0.172163)
(-7.99076e-16 -0.337683 -0.169067)
(-7.97675e-16 0.562292 -0.259713)
(-7.43752e-16 0.847906 0.185629)
(-6.54272e-16 -1.11042 -0.0561364)
(-5.95687e-16 -5.67043 -0.114733)
(-4.59018e-16 -9.83776 -0.376515)
(-2.81055e-16 -8.10238 -0.310343)
(-1.97804e-16 -4.33798 -0.276081)
(-1.66591e-16 -1.8483 -0.303309)
(-1.5801e-16 -0.824811 -0.159755)
(-1.55032e-16 -0.167454 -0.217239)
(-1.60819e-16 0.961837 -0.422595)
(-1.58644e-16 2.13149 -0.908753)
(-1.53699e-16 2.64795 -1.15799)
(-1.54345e-16 2.43603 -1.15945)
(-1.57465e-16 1.50883 -0.62678)
(-1.55549e-16 -0.954476 0.652216)
(-1.42816e-16 -2.16273 0.668451)
(-1.20513e-16 -2.44322 0.663718)
(-6.69629e-17 -1.496 -0.599836)
(-5.31889e-17 -1.32818 -0.182996)
(-5.49121e-17 -2.76402 -0.281802)
(-4.56964e-17 -2.92878 -0.499567)
(-3.92577e-17 -1.89908 -0.710011)
(-4.10213e-17 -0.769704 -0.678614)
(3.69872e-17 0.980558 -0.442515)
(2.30615e-16 2.68524 -0.76631)
(2.55646e-16 3.7413 -0.854066)
(3.78155e-16 4.2305 -0.847013)
(-9.79732e-16 0.0212832 0.945032)
(-9.79727e-16 0.0134321 0.943545)
(-9.79729e-16 0.00226462 0.941576)
(-9.7973e-16 -0.00849374 0.939353)
(-9.79733e-16 -0.0193591 0.936721)
(-9.79737e-16 -0.030416 0.934574)
(-9.79741e-16 -0.0421242 0.932307)
(-9.79744e-16 -0.0545362 0.928547)
(-9.79747e-16 -0.0616493 0.925606)
(-9.79747e-16 -0.0696661 0.924954)
(-9.79744e-16 -0.078096 0.92601)
(-9.79737e-16 -0.0887209 0.928549)
(-9.79725e-16 -0.102103 0.931352)
(-9.79708e-16 -0.117538 0.934274)
(-9.79683e-16 -0.136063 0.937371)
(-9.79649e-16 -0.157815 0.940509)
(-9.79602e-16 -0.18369 0.943676)
(-9.79538e-16 -0.214526 0.946786)
(-9.79455e-16 -0.251492 0.949776)
(-9.79344e-16 -0.295482 0.952699)
(-9.792e-16 -0.347952 0.955767)
(-9.79013e-16 -0.410382 0.959077)
(-9.78771e-16 -0.484365 0.962838)
(-9.78461e-16 -0.57155 0.967124)
(-9.78064e-16 -0.673136 0.972335)
(-9.77556e-16 -0.790047 0.978825)
(-9.7691e-16 -0.921614 0.987162)
(-9.76096e-16 -1.06595 0.998434)
(-9.75085e-16 -1.21659 1.01376)
(-9.73859e-16 -1.3637 1.0361)
(-9.72449e-16 -1.48768 1.07209)
(-9.71257e-16 -1.56218 1.13423)
(-9.71272e-16 -1.52166 1.22673)
(-9.65978e-16 -1.11982 1.19876)
(-9.25341e-16 0.12083 0.365387)
(-8.86432e-16 1.27072 -0.266766)
(-8.80432e-16 1.37451 -0.443224)
(-8.80211e-16 1.23732 -0.626111)
(-8.80635e-16 0.929432 -0.76036)
(-8.80757e-16 0.49514 -0.824933)
(-8.81262e-16 0.0421852 -0.869804)
(-8.81247e-16 -0.210714 -0.849827)
(-8.82597e-16 -0.284869 -0.766952)
(-8.81734e-16 -0.163428 -0.432122)
(-8.05727e-16 -0.259454 0.149608)
(-8.00495e-16 -1.04941 0.182032)
(-7.99982e-16 -1.63104 0.154893)
(-7.99336e-16 -1.88272 -0.00632445)
(-7.9897e-16 -1.49407 -0.0769808)
(-7.98915e-16 -0.961134 -0.164767)
(-7.99109e-16 -0.373382 -0.159087)
(-7.97472e-16 0.548068 -0.263534)
(-7.45757e-16 0.817421 0.14392)
(-6.54369e-16 -1.06541 -0.0570068)
(-5.96121e-16 -5.63602 -0.118567)
(-4.59912e-16 -9.81222 -0.380962)
(-2.82278e-16 -8.10604 -0.316909)
(-1.98359e-16 -4.3286 -0.265532)
(-1.66905e-16 -1.86061 -0.269679)
(-1.58151e-16 -0.834758 -0.164102)
(-1.54891e-16 -0.130754 -0.237788)
(-1.61308e-16 1.03795 -0.459341)
(-1.5845e-16 2.19506 -0.952368)
(-1.53179e-16 2.66639 -1.18374)
(-1.5382e-16 2.39278 -1.13309)
(-1.5708e-16 1.35612 -0.583896)
(-1.55226e-16 -1.09337 0.591539)
(-1.42471e-16 -2.13898 0.573635)
(-1.19525e-16 -2.22114 0.589473)
(-6.54964e-17 -1.31734 -0.566642)
(-5.24816e-17 -1.27424 -0.12837)
(-5.49114e-17 -2.70934 -0.26922)
(-4.60365e-17 -2.85453 -0.481711)
(-3.94898e-17 -1.84482 -0.680425)
(-4.23455e-17 -0.722327 -0.595372)
(5.35187e-17 0.983205 -0.445841)
(2.54721e-16 2.714 -0.772452)
(2.77683e-16 3.74437 -0.843875)
(4.00273e-16 4.2073 -0.805555)
(-9.79691e-16 0.022069 0.953687)
(-9.79681e-16 0.0143494 0.952195)
(-9.79681e-16 0.00329922 0.950066)
(-9.79682e-16 -0.00697392 0.947583)
(-9.79683e-16 -0.0173004 0.944526)
(-9.79686e-16 -0.0278635 0.941836)
(-9.7969e-16 -0.0393792 0.93897)
(-9.79693e-16 -0.0515047 0.935027)
(-9.79695e-16 -0.0593439 0.93193)
(-9.79695e-16 -0.0675646 0.93084)
(-9.79691e-16 -0.0760969 0.931463)
(-9.79682e-16 -0.0866365 0.933488)
(-9.79669e-16 -0.0998855 0.935782)
(-9.79649e-16 -0.11526 0.938198)
(-9.79622e-16 -0.133517 0.940789)
(-9.79584e-16 -0.155127 0.943477)
(-9.79534e-16 -0.180923 0.946251)
(-9.79466e-16 -0.211728 0.949022)
(-9.79378e-16 -0.248588 0.951729)
(-9.79262e-16 -0.292563 0.954395)
(-9.79111e-16 -0.344983 0.957167)
(-9.78917e-16 -0.407349 0.960102)
(-9.78668e-16 -0.481224 0.963394)
(-9.78349e-16 -0.568224 0.967137)
(-9.77942e-16 -0.669607 0.971753)
(-9.77423e-16 -0.78627 0.977649)
(-9.76764e-16 -0.917738 0.985475)
(-9.75936e-16 -1.06213 0.996535)
(-9.74909e-16 -1.21353 1.01222)
(-9.73663e-16 -1.36244 1.03608)
(-9.72277e-16 -1.49118 1.07642)
(-9.71386e-16 -1.57351 1.1489)
(-9.71391e-16 -1.5226 1.24329)
(-9.60292e-16 -1.03466 1.11798)
(-9.03603e-16 0.296524 -0.0223628)
(-8.85901e-16 1.30047 -0.268841)
(-8.80631e-16 1.41741 -0.465157)
(-8.79092e-16 1.27109 -0.648458)
(-8.79216e-16 0.950205 -0.768892)
(-8.79318e-16 0.505982 -0.814003)
(-8.79922e-16 0.0567952 -0.834132)
(-8.80402e-16 -0.229511 -0.799)
(-8.81897e-16 -0.327966 -0.710029)
(-8.81574e-16 -0.237399 -0.444749)
(-8.06553e-16 -0.316 0.125496)
(-8.00485e-16 -1.0481 0.164593)
(-7.99973e-16 -1.60493 0.15051)
(-7.99335e-16 -1.85266 0.00210573)
(-7.98972e-16 -1.47445 -0.064974)
(-7.98914e-16 -0.950217 -0.15452)
(-7.99114e-16 -0.376727 -0.143678)
(-7.97412e-16 0.526179 -0.270468)
(-7.47196e-16 0.789281 0.108281)
(-6.54722e-16 -1.03594 -0.061233)
(-5.96575e-16 -5.60295 -0.121079)
(-4.60842e-16 -9.79066 -0.382989)
(-2.83539e-16 -8.11146 -0.321105)
(-1.9892e-16 -4.33018 -0.25744)
(-1.67239e-16 -1.85901 -0.245952)
(-1.58327e-16 -0.832241 -0.169781)
(-1.54817e-16 -0.11839 -0.24542)
(-1.61882e-16 1.12563 -0.501491)
(-1.5811e-16 2.27135 -1.00033)
(-1.52541e-16 2.68182 -1.20851)
(-1.53246e-16 2.31326 -1.1253)
(-1.56598e-16 1.16905 -0.540924)
(-1.54931e-16 -1.17788 0.539429)
(-1.41996e-16 -2.13158 0.513296)
(-1.18158e-16 -2.10264 0.518383)
(-6.30038e-17 -1.22698 -0.504511)
(-5.17253e-17 -1.2497 -0.00924373)
(-5.49518e-17 -2.66555 -0.241976)
(-4.63484e-17 -2.80535 -0.457975)
(-3.9721e-17 -1.81417 -0.654778)
(-4.40295e-17 -0.716477 -0.562015)
(7.2666e-17 1.01163 -0.449101)
(2.80585e-16 2.75196 -0.778257)
(3.00849e-16 3.7438 -0.83449)
(4.24218e-16 4.16765 -0.809139)
(-9.79641e-16 0.0215482 0.963239)
(-9.79628e-16 0.0138533 0.961821)
(-9.79626e-16 0.00291097 0.959573)
(-9.79625e-16 -0.00729394 0.956946)
(-9.79625e-16 -0.0175082 0.953658)
(-9.79627e-16 -0.027895 0.950599)
(-9.79629e-16 -0.0390099 0.947278)
(-9.79632e-16 -0.0505677 0.943127)
(-9.79633e-16 -0.0585746 0.939803)
(-9.79632e-16 -0.0669215 0.938208)
(-9.79627e-16 -0.0757028 0.938205)
(-9.79617e-16 -0.0864542 0.939493)
(-9.79602e-16 -0.0998906 0.941106)
(-9.7958e-16 -0.115538 0.942945)
(-9.7955e-16 -0.133978 0.945039)
(-9.7951e-16 -0.155727 0.947314)
(-9.79456e-16 -0.181601 0.949742)
(-9.79384e-16 -0.212485 0.95222)
(-9.79291e-16 -0.249349 0.95466)
(-9.7917e-16 -0.293328 0.957051)
(-9.79014e-16 -0.345738 0.959492)
(-9.78813e-16 -0.408096 0.962007)
(-9.78557e-16 -0.481942 0.964773)
(-9.78229e-16 -0.568914 0.967888)
(-9.77812e-16 -0.670308 0.971782)
(-9.77282e-16 -0.787065 0.976905)
(-9.76611e-16 -0.91884 0.983977)
(-9.7577e-16 -1.06384 0.994478)
(-9.74725e-16 -1.21654 1.01003)
(-9.7346e-16 -1.36789 1.03485)
(-9.72144e-16 -1.502 1.07935)
(-9.71625e-16 -1.59007 1.16191)
(-9.71073e-16 -1.51353 1.24927)
(-9.52736e-16 -0.907252 1.0087)
(-8.81872e-16 0.508595 -0.322782)
(-8.84521e-16 1.31042 -0.278108)
(-8.7994e-16 1.45475 -0.488476)
(-8.77714e-16 1.30133 -0.663738)
(-8.77655e-16 0.965516 -0.766854)
(-8.77771e-16 0.508413 -0.789514)
(-8.78472e-16 0.0597059 -0.786145)
(-8.79465e-16 -0.246365 -0.740559)
(-8.81319e-16 -0.364787 -0.644357)
(-8.81556e-16 -0.305965 -0.434515)
(-8.0775e-16 -0.371813 0.104627)
(-8.00471e-16 -1.05538 0.151415)
(-7.99963e-16 -1.59001 0.147899)
(-7.99334e-16 -1.83008 0.0105454)
(-7.98974e-16 -1.45683 -0.0534161)
(-7.98912e-16 -0.936047 -0.143819)
(-7.99103e-16 -0.371934 -0.12862)
(-7.96584e-16 0.512524 -0.270976)
(-7.46944e-16 0.758929 0.0829604)
(-6.55314e-16 -1.01005 -0.067124)
(-5.97034e-16 -5.57332 -0.123149)
(-4.61772e-16 -9.772 -0.383558)
(-2.84795e-16 -8.12285 -0.323922)
(-1.99472e-16 -4.34555 -0.250137)
(-1.67582e-16 -1.86071 -0.226505)
(-1.58507e-16 -0.816697 -0.175276)
(-1.54858e-16 -0.115576 -0.26649)
(-1.62488e-16 1.21501 -0.544017)
(-1.5767e-16 2.34218 -1.04608)
(-1.51881e-16 2.6909 -1.2281)
(-1.52713e-16 2.23776 -1.11408)
(-1.56203e-16 0.994347 -0.516105)
(-1.54614e-16 -1.24838 0.492713)
(-1.41406e-16 -2.13294 0.463611)
(-1.17052e-16 -2.04126 0.456163)
(-6.26855e-17 -1.19284 -0.430626)
(-5.19281e-17 -1.23997 0.111787)
(-5.49854e-17 -2.62837 -0.21095)
(-4.66074e-17 -2.77196 -0.430795)
(-3.9922e-17 -1.79633 -0.631232)
(-4.59402e-17 -0.743885 -0.541103)
(9.47785e-17 1.04202 -0.447556)
(3.07363e-16 2.78576 -0.78157)
(3.24424e-16 3.74161 -0.823003)
(4.48532e-16 4.12136 -0.73274)
(-9.79584e-16 0.0218798 0.973458)
(-9.79566e-16 0.0141814 0.972019)
(-9.79563e-16 0.00339013 0.969712)
(-9.7956e-16 -0.00673998 0.966974)
(-9.79559e-16 -0.0169861 0.963534)
(-9.79559e-16 -0.0274602 0.960214)
(-9.79561e-16 -0.0384958 0.956569)
(-9.79562e-16 -0.049787 0.952256)
(-9.79562e-16 -0.0581407 0.94871)
(-9.7956e-16 -0.066695 0.946657)
(-9.79554e-16 -0.0756914 0.946058)
(-9.79542e-16 -0.0865131 0.946635)
(-9.79525e-16 -0.0999504 0.947572)
(-9.79502e-16 -0.11566 0.948815)
(-9.79469e-16 -0.134218 0.950388)
(-9.79426e-16 -0.156089 0.952214)
(-9.79369e-16 -0.182064 0.954235)
(-9.79294e-16 -0.213048 0.956342)
(-9.79197e-16 -0.25002 0.958437)
(-9.79071e-16 -0.294091 0.960471)
(-9.78909e-16 -0.346595 0.962502)
(-9.78703e-16 -0.409052 0.964526)
(-9.78439e-16 -0.483018 0.966691)
(-9.78104e-16 -0.570148 0.969088)
(-9.77678e-16 -0.67177 0.97214)
(-9.77137e-16 -0.788884 0.976329)
(-9.76454e-16 -0.921264 0.982432)
(-9.75598e-16 -1.06722 0.992069)
(-9.74534e-16 -1.22163 1.00707)
(-9.73257e-16 -1.37613 1.03246)
(-9.72076e-16 -1.51669 1.08138)
(-9.71986e-16 -1.60918 1.17417)
(-9.70494e-16 -1.49625 1.25027)
(-9.45868e-16 -0.774017 0.90935)
(-8.80817e-16 0.607059 -0.220326)
(-8.83432e-16 1.32132 -0.284647)
(-8.78784e-16 1.49007 -0.506805)
(-8.7613e-16 1.32839 -0.672031)
(-8.76011e-16 0.975903 -0.753897)
(-8.76128e-16 0.504634 -0.751434)