/*--------------------------------*- C++ -*----------------------------------*\
| =========                 |                                                 |
| \\      /  F ield         | OpenFOAM: The Open Source CFD Toolbox           |
|  \\    /   O peration     | Version:  4.1                                   |
|   \\  /    A nd           | Web:      www.OpenFOAM.org                      |
|    \\/     M anipulation  |                                                 |
\*---------------------------------------------------------------------------*/
FoamFile
{
    version     2.0;
    format      ascii;
    class       volScalarField;
    location    "17";
    object      p;
}
// * * * * * * * * * * * * * * * * * * * * * * * * * * * * * * * * * * * * * //

dimensions      [0 2 -2 0 0 0 0];

internalField   nonuniform List<scalar> 
6785
(
550.618
497.221
445.39
396.978
352.087
310.07
270.716
233.712
198.617
165.253
134.311
106.172
77.1433
42.2245
13.0721
84.1853
61.9239
56.1651
52.4547
46.9806
41.2729
36.1199
31.731
28.2469
25.788
24.5965
25.0981
27.1944
29.0659
29.326
-18.5964
-25.2399
-19.4733
-15.3266
-12.2361
-8.64101
-4.75493
-0.817829
3.08628
6.80182
10.147
13.2137
16.2901
18.9427
20.1766
27.5391
25.1205
29.7126
30.0365
30.0898
30.3046
30.2152
29.8375
29.2556
28.496
27.5389
26.4291
25.5182
25.3654
25.6754
43.9748
41.6409
43.1937
41.095
39.6752
38.4309
37.0201
35.6374
34.3792
33.2874
32.3858
31.6727
31.1943
31.1609
31.4055
34.7616
32.7358
33.707
32.4855
32.2797
32.2616
32.1716
32.2027
32.3563
32.598
32.9157
33.277
33.5956
33.8517
34.0263
31.3213
30.1607
31.2389
30.9104
31.2907
31.6796
31.9735
32.3194
32.6717
32.9926
33.2789
33.5301
33.706
33.7854
33.8001
33.0521
32.4865
33.3248
33.0829
33.2672
33.3682
33.381
33.4157
33.4311
33.4178
33.3866
33.3522
33.3135
33.2645
33.214
33.4728
33.1344
33.6111
33.3064
33.3198
33.2658
33.1685
33.1009
33.0273
32.9507
32.8773
32.8124
32.7561
32.7032
32.647
32.293
32.0675
32.348
32.1113
32.1266
32.09
32.0339
32.0023
31.9649
31.9266
31.8895
31.8507
31.81
31.7625
31.6959
31.2794
31.1264
31.3006
31.1285
31.1377
31.0946
31.038
30.9953
30.943
30.8877
30.8309
30.7715
30.709
30.6427
30.555
30.3974
30.3313
30.4162
30.2204
30.1571
30.0564
29.9529
29.8572
29.7538
29.6494
29.5454
29.4412
29.343
29.2552
29.1517
31.2796
31.145
30.9713
30.5739
30.294
29.9794
29.6557
29.3457
29.045
28.7646
28.5057
28.2732
28.0716
27.9137
27.7697
28.324
28.8294
29.2538
29.1439
28.8298
28.4209
28.0294
27.6654
27.309
26.9501
26.5909
26.2287
25.8763
25.5557
25.2396
46.4528
45.9709
45.1292
42.6152
39.0709
35.4962
32.1762
29.2324
26.5802
24.3625
22.4845
20.952
19.7757
18.9462
18.314
41.4574
40.5036
41.3951
40.8917
40.6785
39.8492
40.6446
39.5247
38.6769
37.4247
37.7508
35.5355
32.6919
33.4055
31.1235
29.1837
28.1409
28.6553
25.1612
22.3996
24.0016
21.3341
19.0955
19.337
20.5109
17.0769
14.8124
15.9168
17.8433
14.2803
12.5731
15.6533
13.7822
12.1895
13.8547
17.1971
15.1583
14.9513
19.2569
18.7829
18.2724
20.4948
24.5335
24.0888
23.8323
25.9147
29.5452
29.2107
29.6557
32.7868
32.984
32.9184
33.8015
35.8776
35.7086
35.4075
35.7157
37.5666
37.5585
37.4221
39.3213
39.5756
39.4196
39.2225
40.547
40.6938
40.3024
40.5328
40.2921
40.7547
41.0207
38.8017
38.1502
38.603
36.1919
31.6811
34.0727
28.2418
12.0861
17.7703
21.7822
22.2516
23.0398
19.286
22.9102
26.8401
28.2112
28.9088
29.112
29.8337
31.6323
33.1315
34.3866
29.8111
30.8345
33.0093
34.726
34.9545
35.1012
34.9405
35.0107
37.5826
34.5031
34.9339
35.1098
35.9986
37.4044
38.1037
37.9578
37.3257
36.6644
40.5617
38.7008
38.6996
38.3019
38.0389
38.8094
39.5763
38.5405
36.7053
38.9333
40.3738
41.0757
40.9985
39.9742
38.9445
37.9262
37.0003
35.9988
41.2826
41.1255
39.3099
38.6578
37.843
36.3756
34.2246
31.0305
28.5515
32.364
35.5738
33.227
31.5947
29.149
25.834
23.2587
21.3579
19.1492
17.8408
14.5548
18.2628
16.7183
17.0376
17.2126
15.8134
13.1208
12.4505
13.5033
8.65006
14.1815
12.8442
11.7913
14.1881
13.7396
14.4498
14.9044
15.7199
16.2045
15.8378
16.3021
16.4494
16.2149
16.2576
16.1921
16.213
16.0168
15.9592
15.7464
15.3436
15.1398
14.7939
14.8807
14.4076
13.6303
13.7599
13.2317
12.5749
12.3848
12.1688
12.8778
12.1485
11.2281
11.0493
10.7471
11.5381
10.5435
9.02065
9.96204
9.15293
7.91603
7.62083
7.24581
8.45678
7.14922
5.67905
5.60002
5.52003
7.04732
5.74835
3.83974
5.53738
4.71934
3.39198
3.32599
3.23769
5.23812
3.69758
2.00511
2.08657
2.24715
4.47462
2.97521
0.711168
3.03846
2.13513
0.618857
0.635032
0.648168
3.28113
1.49743
-0.486834
-0.369851
-0.150875
2.65208
0.898827
-1.78965
1.06797
-0.0944834
-1.92741
-2.06203
-1.74202
-0.00454564
0.0247269
0.0444354
0.0978845
0.318968
0.105328
0.0854275
0.149463
0.24732
0.292855
0.372806
0.0964704
0.156884
0.145114
0.0409461
-0.0266016
0.0420399
-0.00790844
-0.249182
-0.465868
-0.109633
0.360475
0.319326
0.226571
0.175449
0.238229
0.1264
-0.316869
-0.403093
-0.155729
0.0885955
0.237388
0.157773
0.0679538
0.129364
0.288414
0.138072
0.0767717
-0.0189943
-0.136603
-0.170624
-0.138061
-0.0558381
-0.0159845
0.0757424
0.00935998
0.0486667
0.0377759
0.0308578
0.0351048
0.0373766
0.0364649
0.0618686
0.00650759
-0.165042
0.152418
0.524126
0.713575
0.690428
0.635665
0.429924
0.347046
0.562606
0.68913
0.50253
0.230656
0.307962
0.0388977
-0.0488613
-0.100156
0.0235651
-0.193372
0.0614397
0.579229
0.536362
0.347832
0.187243
0.0526083
0.0821865
-0.00406086
0.0306102
0.0439664
0.117317
0.422423
0.180903
0.141271
0.225174
0.330723
0.418409
0.475998
0.202086
0.193448
0.163641
0.0750751
0.00197207
0.1008
0.010271
-0.289809
-0.366867
-0.0534814
0.442069
0.467221
0.359686
0.341627
0.352672
0.236818
-0.18912
-0.395009
-0.111942
0.0813824
0.232192
0.119674
0.0364836
0.0960628
0.339183
0.107468
0.213292
0.0145214
-0.14577
-0.201424
-0.169167
-0.0620037
-0.0242453
0.0832924
0.013031
0.0562389
0.0584543
0.0625412
0.0795401
0.100244
0.099507
0.153207
0.0203826
0.0732247
0.431766
0.59827
0.845959
0.957255
0.859006
0.517455
0.4416
0.541349
0.67773
0.532879
0.133807
0.28075
-0.00165604
-0.119356
-0.171401
0.0159855
-0.158352
0.24317
0.505151
0.643486
0.400344
0.259633
0.176519
0.266465
-0.0017956
0.0362817
0.0607811
0.153053
0.441374
0.21114
0.153676
0.243456
0.366991
0.459765
0.49084
0.24857
0.199889
0.169818
0.0798621
0.00798845
0.0668945
0.0111913
-0.240509
-0.314157
-0.0278006
0.489081
0.549697
0.458935
0.426452
0.38543
0.260013
-0.125605
-0.347518
-0.113158
0.00707621
0.167155
0.0751848
0.00612465
0.0680329
0.282919
0.0543471
0.199437
0.042322
-0.109645
-0.180383
-0.162004
-0.0637376
-0.020169
0.0870429
0.0289528
0.0626696
0.0737321
0.0966337
0.127625
0.168931
0.172502
0.251745
0.0563535
0.169547
0.526751
0.682464
0.923751
1.04091
0.936064
0.591296
0.540031
0.666929
0.689324
0.503295
0.0902624
0.200448
-0.056677
-0.183613
-0.246138
-0.00729903
-0.103733
0.242167
0.35696
0.574487
0.367296
0.296429
0.304673
0.488752
0.00629214
0.0549316
0.0973435
0.210969
0.462981
0.253544
0.187739
0.27989
0.415718
0.507166
0.525213
0.291401
0.220729
0.193848
0.105131
0.0339644
0.0605877
0.0394555
-0.163691
-0.247527
0.0639146
0.540427
0.598236
0.53155
0.4734
0.430405
0.298477
-0.0661492
-0.321896
-0.128705
-0.0461084
0.106402
0.0448485
-0.00788031
0.0529292
0.24122
0.0364904
0.183929
0.0782372
-0.0488643
-0.129701
-0.128084
-0.0453738
0.00271341
0.10319
0.055538
0.0797126
0.097699
0.133196
0.177065
0.235431
0.245201
0.34356
0.102748
0.180982
0.542733
0.813091
1.03732
1.12722
1.04059
0.729533
0.678722
0.869522
0.770098
0.514787
0.0918265
0.149526
-0.110184
-0.232459
-0.295797
0.00278133
-0.0385638
0.195399
0.248973
0.520339
0.366586
0.370591
0.441165
0.6713
0.016438
0.078992
0.138984
0.270161
0.485754
0.295449
0.234207
0.3256
0.46593
0.553992
0.56145
0.332423
0.24115
0.217734
0.139342
0.0713215
0.0784751
0.072607
-0.0956542
-0.157775
0.172706
0.542895
0.616101
0.572507
0.495815
0.457237
0.347725
-0.00371042
-0.315031
-0.145419
-0.0792508
0.0452147
0.012295
-0.0223288
0.0362182
0.210503
0.0335377
0.178048
0.107962
0.00994187
-0.0743159
-0.0873098
-0.0209392
0.0258572
0.116899
0.0807919
0.0999982
0.124319
0.169575
0.225874
0.299876
0.317059
0.431633
0.156615
0.204609
0.566813
0.925348
1.13862
1.20982
1.15992
0.893879
0.824715
1.01997
0.863822
0.552064
0.109368
0.119727
-0.162022
-0.277491
-0.338414
0.00890107
0.0161171
0.14174
0.157036
0.483723
0.376864
0.443074
0.573259
0.918978
0.0260701
0.102312
0.178816
0.322379
0.504875
0.334093
0.283673
0.373208
0.51079
0.593524
0.592201
0.367064
0.260721
0.236782
0.169511
0.104297
0.100849
0.0988839
-0.049788
-0.0718839
0.261653
0.538863
0.618903
0.590814
0.508837
0.473836
0.395627
0.0466871
-0.320774
-0.174616
-0.11212
-0.011953
-0.0242007
-0.0398877
0.0140099
0.17771
0.03304
0.166845
0.121869
0.0521955
-0.0285432
-0.0524087
-0.00045596
0.043515
0.126287
0.102889
0.120949
0.151319
0.205777
0.274324
0.363671
0.389935
0.518671
0.221351
0.264673
0.624026
1.0188
1.23241
1.29739
1.28841
1.07146
0.972206
1.13122
0.956507
0.598752
0.135559
0.102846
-0.209458
-0.317629
-0.375585
0.0132016
0.0487164
0.0777125
0.0751843
0.452589
0.391118
0.525742
0.716526
1.09611
0.0345134
0.123311
0.215041
0.366286
0.52037
0.368851
0.331288
0.418956
0.547743
0.623784
0.614785
0.394392
0.278922
0.250803
0.19284
0.129965
0.119036
0.11898
-0.0231503
0.00136268
0.326593
0.539396
0.61878
0.597284
0.524734
0.483495
0.437333
0.0801838
-0.332939
-0.216345
-0.150858
-0.0635251
-0.0591361
-0.0564602
-0.0125655
0.144341
0.0308825
0.152526
0.122326
0.0766979
0.00401249
-0.0266653
0.0137282
0.0556979
0.132494
0.122021
0.141775
0.177735
0.24103
0.321316
0.425062
0.461652
0.600447
0.291418
0.339724
0.695917
1.10333
1.32503
1.38613
1.41271
1.24133
1.10702
1.21932
1.04217
0.644359
0.164908
0.0940058
-0.252878
-0.357464
-0.413781
0.00422067
0.0569793
0.00722305
-0.000966665
0.424614
0.408407
0.610445
0.870922
1.30294
0.041866
0.142317
0.248093
0.403783
0.534384
0.401533
0.377499
0.463343
0.578842
0.647496
0.630792
0.417122
0.29518
0.261216
0.209702
0.149649
0.132416
0.134736
-0.00364166
0.0626825
0.373145
0.537017
0.617958
0.596655
0.545245
0.484379
0.468652
0.0977106
-0.352511
-0.265469
-0.195585
-0.112211
-0.0936354
-0.0747551
-0.0451388
0.109353
0.0232558
0.13658
0.112948
0.084405
0.023017
-0.0103763
0.0219412
0.0633266
0.136453
0.139096
0.162623
0.203845
0.275908
0.367931
0.485376
0.533448
0.681281
0.369912
0.422979
0.775812
1.19379
1.42699
1.48408
1.54009
1.41056
1.23891
1.29837
1.1217
0.686541
0.193999
0.0913313
-0.28779
-0.394884
-0.449346
-0.0142177
0.0485889
-0.0645951
-0.0732056
0.399614
0.431299
0.700764
1.01869
1.56516
0.0480578
0.159158
0.277322
0.434754
0.546635
0.432093
0.421061
0.504496
0.605357
0.664509
0.639342
0.435771
0.308695
0.268832
0.221789
0.165373
0.142251
0.14516
0.00964111
0.11152
0.406538
0.533311
0.619228
0.592814
0.566831
0.477287
0.492999
0.10126
-0.376063
-0.317734
-0.239575
-0.158345
-0.12689
-0.0939371
-0.0779743
0.0771342
0.0111355
0.120271
0.0985818
0.0798314
0.0312813
-0.00138188
0.0257764
0.067738
0.139173
0.154617
0.183126
0.229345
0.309783
0.413362
0.543172
0.602779
0.758936
0.451507
0.50787
0.856015
1.28368
1.52651
1.57815
1.659
1.5639
1.35685
1.36345
1.18939
0.72068
0.218402
0.0906247
-0.313395
-0.431638
-0.485581
-0.0434377
0.029013
-0.131378
-0.138993
0.381801
0.460436
0.794875
1.18267
1.76631
0.0533731
0.174275
0.303272
0.460576
0.558112
0.461517
0.462744
0.543296
0.630931
0.677552
0.642451
0.45081
0.319982
0.275128
0.2312
0.178699
0.151083
0.151037
0.0194907
0.154444
0.427758
0.527063
0.619785
0.582945
0.582348
0.46104
0.509378
0.0934391
-0.405331
-0.37393
-0.283626
-0.207032
-0.162967
-0.117002
-0.11199
0.0437738
-0.00529876
0.100686
0.079429
0.0657127
0.0301339
0.00121385
0.0259176
0.0699345
0.141443
0.169455
0.203451
0.254641
0.343144
0.458169
0.600136
0.672683
0.837899
0.539356
0.599871
0.942362
1.37993
1.63051
1.67595
1.77895
1.71283
1.47226
1.42354
1.24916
0.749086
0.23763
0.0926927
-0.330033
-0.464354
-0.519177
-0.0793028
0.00339355
-0.191934
-0.199232
0.367883
0.494562
0.893534
1.35789
1.98675
0.0578618
0.187632
0.325684
0.48128
0.568269
0.489211
0.501571
0.578714
0.65494
0.687421
0.64288
0.462733
0.329417
0.27997
0.238702
0.19055
0.159843
0.153539
0.0271975
0.195809
0.442548
0.522422
0.619265
0.570541
0.584296
0.442843
0.510448
0.0798871
-0.437912
-0.429184
-0.327688
-0.25521
-0.199467
-0.142349
-0.14472
0.0104055
-0.0214984
0.0785164
0.0580068
0.047022
0.0229494
-0.000152643
0.0240289
0.071038
0.143952
0.183688
0.223193
0.279507
0.375365
0.501382
0.65471
0.7408
0.915041
0.628149
0.692728
1.02869
1.4747
1.73122
1.76723
1.89011
1.84371
1.57456
1.47358
1.29877
0.770632
0.249419
0.0934129
-0.341831
-0.49387
-0.55064
-0.122898
-0.0266624
-0.243462
-0.252652
0.35781
0.535375
0.995164
1.53725
2.23732
0.0618646
0.199782
0.345486
0.498607
0.577845
0.516163
0.538692
0.612247
0.678401
0.697319
0.643039
0.472258
0.337656
0.283851
0.244891
0.201215
0.168722
0.154809
0.0352132
0.239088
0.454505
0.518709
0.61665
0.555022
0.578197
0.420126
0.49359
0.065484
-0.46882
-0.480105
-0.373946
-0.302401
-0.237931
-0.171859
-0.179004
-0.0254576
-0.0387776
0.055079
0.0346805
0.0252619
0.0109012
-0.00496087
0.0205205
0.0714974
0.147042
0.197852
0.242651
0.304205
0.406576
0.543581
0.708306
0.808527
0.99269
0.718949
0.78911
1.11851
1.57552
1.83919
1.86228
2.00341
1.97132
1.67915
1.52274
1.34497
0.789101
0.255816
0.0922053
-0.347933
-0.517922
-0.575701
-0.169357
-0.0572607
-0.287041
-0.302078
0.346826
0.579815
1.09876
1.72936
2.46635
0.0654412
0.210801
0.362713
0.512725
0.586653
0.541832
0.573148
0.64302
0.700079
0.707283
0.642975
0.479371
0.344515
0.286315
0.249719
0.210546
0.177338
0.155162
0.0422424
0.283672
0.47022
0.520012
0.614517
0.538338
0.564706
0.395089
0.467478
0.0523474
-0.489263
-0.520836
-0.41861
-0.344721
-0.2757
-0.203342
-0.212128
-0.0606276
-0.0567441
0.0318747
0.0121937
0.00346605
-0.00334208
-0.0115306
0.0165058
0.0718127
0.15089
0.211561
0.261633
0.328255
0.436275
0.583905
0.759219
0.8724
1.06533
0.805674
0.882863
1.20539
1.67372
1.94567
1.95225
2.10704
2.08331
1.77463
1.5646
1.38472
0.803741
0.2558
0.0880832
-0.351706
-0.538205
-0.59405
-0.217658
-0.0843444
-0.325476
-0.350552
0.336805
0.626932
1.20221
1.92209
2.75838
0.068974
0.221207
0.378166
0.525082
0.595806
0.566935
0.605699
0.672075
0.721085
0.718829
0.643624
0.485143
0.349982
0.287548
0.253587
0.218356
0.185523
0.155329
0.0499246
0.331055
0.489813
0.524367
0.611445
0.518978
0.544093
0.365511
0.435221
0.0380431
-0.501079
-0.553943
-0.463243
-0.383651
-0.315337
-0.238611
-0.245955
-0.0973699
-0.0779757
0.00739827
-0.00974302
-0.0185551
-0.0193403
-0.0198858
0.0118733
0.0721044
0.155623
0.225173
0.280529
0.352058
0.465342
0.62321
0.808868
0.934266
1.13448
0.888656
0.97935
1.29379
1.77719
2.0599
2.04842
2.21249
2.19701
1.87576
1.60838
1.42398
0.818916
0.252452
0.0841326
-0.351722
-0.552603
-0.604176
-0.275369
-0.117211
-0.358592
-0.396886
0.326327
0.682087
1.31298
2.13629
3.00511
0.0724657
0.23094
0.391763
0.535732
0.605031
0.590684
0.635496
0.698253
0.740516
0.730847
0.644969
0.489863
0.353796
0.286844
0.256724
0.224261
0.192632
0.154631
0.0557925
0.380625
0.515566
0.533808
0.608305
0.498465
0.518256
0.336037
0.401597
0.0236046
-0.507326
-0.578109
-0.504186
-0.419119
-0.354448
-0.27516
-0.277355
-0.133067
-0.100607
-0.0189873
-0.0298715
-0.0392473
-0.0356017
-0.028842
0.00723535
0.0725036
0.161071
0.238275
0.298881
0.375329
0.493881
0.660766
0.855842
0.992451
1.19761
0.967088
1.07551
1.37857
1.87709
2.17178
2.1413
2.31205
2.29882
1.96856
1.6472
1.45901
0.834739
0.246557
0.0791063
-0.350942
-0.560129
-0.612064
-0.341893
-0.171956
-0.383511
-0.435727
0.319576
0.751671
1.43624
2.37226
3.2842
0.0760778
0.240275
0.404249
0.545959
0.614927
0.613751
0.663446
0.722586
0.759941
0.743933
0.647643
0.494414
0.35639
0.284734
0.260361
0.228159
0.198021
0.154132
0.0611526
0.433656
0.545649
0.546248
0.604686
0.476027
0.486809
0.305126
0.366645
0.00836571
-0.508135
-0.596852
-0.542759
-0.455386
-0.393916
-0.314084
-0.307818
-0.169591
-0.12587
-0.0476712
-0.0494918
-0.0597469
-0.0525906
-0.0386869
0.00238603
0.0729398
0.167283
0.251214
0.317086
0.398415
0.522139
0.697097
0.901261
1.04935
1.25844
1.04612
1.1766
1.46381
1.98199
2.29111
2.24126
2.41867
2.40618
2.06959
1.69204
1.49716
0.856476
0.243149
0.0753256
-0.344566
-0.552932
-0.617719
-0.400909
-0.242667
-0.404856
-0.463526
0.319784
0.834078
1.57903
2.62019
3.62018
0.0796336
0.249058
0.415634
0.555472
0.624991
0.635592
0.688786
0.744495
0.778469
0.756405
0.651111
0.49877
0.357915
0.281159
0.265324
0.229018
0.200872
0.152955
0.0658436
0.489951
0.581827
0.563834
0.603496
0.453516
0.452621
0.276782
0.334761
-0.00462999
-0.500941
-0.609768
-0.576312
-0.490472
-0.430022
-0.35248
-0.334512
-0.204296
-0.152352
-0.0771304
-0.0668075
-0.0791148
-0.069757
-0.0489062
-0.00236461
0.073139
0.173784
0.26336
0.33466
0.420797
0.549617
0.731534
0.943725
1.10271
1.31481
1.12308
1.27697
1.54455
2.08281
2.40651
2.33727
2.52081
2.50354
2.16391
1.73475
1.53318
0.882897
0.241142
0.0711429
-0.334719
-0.53399
-0.619155
-0.453165
-0.320657
-0.429471
-0.486028
0.329869
0.927064
1.73882
2.89411
3.91169
0.0832754
0.257692
0.426728
0.564984
0.635718
0.656907
0.712624
0.765863
0.797008
0.768752
0.6559
0.503762
0.359096
0.277251
0.269849
0.226214
0.201408
0.151478
0.0724245
0.551125
0.62295
0.585104
0.605036
0.430452
0.415248
0.248661
0.305439
-0.0155599
-0.488018
-0.61621
-0.606167
-0.526471
-0.464819
-0.392053
-0.361406
-0.238838
-0.181364
-0.108025
-0.0836675
-0.0982773
-0.0875237
-0.0600174
-0.00743356
0.0730902
0.180543
0.275046
0.35184
0.442721
0.576439
0.764293
0.984236
1.15395
1.36852
1.19984
1.37834
1.62413
2.18896
2.52812
2.43925
2.62963
2.60962
2.26935
1.78607
1.57318
0.918749
0.244844
0.070162
-0.317964
-0.502955
-0.610826
-0.495258
-0.407712
-0.458281
-0.502305
0.34889
1.0327
1.91999
3.1948
4.22002
0.0868521
0.266091
0.437388
0.57419
0.64691
0.677428
0.734795
0.786289
0.814508
0.780397
0.661391
0.509096
0.360134
0.272637
0.26861
0.220157
0.199451
0.148331
0.0813754
0.617804
0.671121
0.611842
0.60973
0.408017
0.376995
0.224071
0.282571
-0.0214538
-0.469384
-0.611678
-0.62888
-0.560769
-0.495709
-0.430194
-0.388692
-0.270743
-0.211455
-0.13859
-0.101433
-0.116381
-0.104981
-0.0715646
-0.0128051
0.0727456
0.186937
0.285733
0.368026
0.463677
0.60211
0.794743
1.02152
1.20081
1.41691
1.2732
1.4752
1.69817
2.29165
2.6444
2.53754
2.73391
2.708
2.36894
1.8373
1.61096
0.961213
0.253153
0.0730215
-0.292641
-0.468864
-0.596734
-0.52861
-0.500676
-0.493717
-0.512756
0.377265
1.1507
2.11919
3.50684
4.54174
0.0905279
0.274565
0.44821
0.584071
0.659212
0.69815
0.756874
0.807242
0.832352
0.792623
0.668234
0.515548
0.361872
0.26828
0.26127
0.2137
0.195245
0.144062
0.0964354
0.692736
0.726994
0.642893
0.616772
0.385416
0.337359
0.201279
0.264334
-0.0224703
-0.446455
-0.597141
-0.646038
-0.594801
-0.526215
-0.469792
-0.419372
-0.302657
-0.243395
-0.168904
-0.122849
-0.134641
-0.122134
-0.0836159
-0.0186463
0.0720394
0.193073
0.295871
0.383585
0.484042
0.626719
0.823137
1.05621
1.24445
1.4609
1.34433
1.56998
1.76968
2.40172
2.7671
2.64461
2.84686
2.818
2.48107
1.90102
1.65353
1.01498
0.270704
0.0827687
-0.261181
-0.438183
-0.578793
-0.551818
-0.586898
-0.532492
-0.517282
0.416612
1.28316
2.34502
3.84274
4.85659
0.0941467
0.282812
0.458876
0.594245
0.672318
0.71879
0.778569
0.827971
0.849801
0.804838
0.675716
0.522508
0.36448
0.264502
0.249235
0.209654
0.187708
0.138014
0.119267
0.776154
0.793771
0.679512
0.624328
0.36344
0.299154
0.183927
0.252606
-0.0162257
-0.418483
-0.573982
-0.657408
-0.625372
-0.555927
-0.507748
-0.450274
-0.335007
-0.275126
-0.19845
-0.147196
-0.152417
-0.138506
-0.0958771
-0.0250644
0.0707904
0.198301
0.304794
0.397999
0.503433
0.650013
0.849181
1.08726
1.28305
1.49835
1.40989
1.65899
1.83475
2.5106
2.88431
2.75004
2.95704
2.92093
2.5865
1.96688
1.69426
1.07402
0.292592
0.0901339
-0.239622
-0.420069
-0.555619
-0.5727
-0.664202
-0.575327
-0.518341
0.465378
1.42839
2.59264
4.1807
5.22443
0.0978356
0.291075
0.469899
0.605358
0.686665
0.740071
0.800918
0.849589
0.868022
0.818111
0.684603
0.530841
0.36871
0.262408
0.237863
0.207699
0.178981
0.132679
0.153465
0.869978
0.871844
0.722886
0.632571
0.34181
0.262367
0.170208
0.243904
-0.00367766
-0.385587
-0.545367
-0.667776
-0.655183
-0.588082
-0.546511
-0.483545
-0.370076
-0.307146
-0.229623
-0.174376
-0.170672
-0.154655
-0.108399
-0.0321445
0.0693648
0.2029
0.312942
0.411636
0.522224
0.672144
0.873038
1.11549
1.31786
1.53011
1.46978
1.74458
1.89568
2.62962
3.00979
2.86393
3.07755
3.03561
2.70443
2.04767
1.74006
1.14234
0.323142
0.0966467
-0.226994
-0.403609
-0.522542
-0.588853
-0.726968
-0.621976
-0.51938
0.521563
1.58879
2.86645
4.54177
5.5874
0.101403
0.299141
0.480917
0.616846
0.701754
0.761395
0.823064
0.871068
0.8862
0.831486
0.694197
0.539875
0.374144
0.261518
0.227586
0.203668
0.171331
0.130261
0.199886
0.972936
0.960232
0.775064
0.642715
0.32158
0.22902
0.161756
0.239
0.015822
-0.34899
-0.516083
-0.677319
-0.68259
-0.620629
-0.583531
-0.517046
-0.405824
-0.337616
-0.261306
-0.202884
-0.188452
-0.170592
-0.121155
-0.0398171
0.0676847
0.206229
0.319773
0.424123
0.540028
0.693018
0.895013
1.14037
1.34771
1.55523
1.52144
1.82257
1.94847
2.74945
3.13219
2.97418
3.19519
3.14248
2.81511
2.13233
1.78327
1.21057
0.35627
0.0981268
-0.223881
-0.385989
-0.487309
-0.598691
-0.777841
-0.675898
-0.524876
0.578359
1.75825
3.15302
4.91217
5.99057
0.105003
0.307436
0.492327
0.629201
0.717942
0.783329
0.845817
0.893592
0.905465
0.845819
0.705468
0.550497
0.381596
0.262765
0.219326
0.198747
0.168159
0.134084
0.261387
1.08669
1.05922
0.837435
0.656057
0.303232
0.198534
0.156358
0.233778
0.0366213
-0.311717
-0.491819
-0.687302
-0.710303
-0.656628
-0.622173
-0.553783
-0.44363
-0.368625
-0.294038
-0.233156
-0.207006
-0.186829
-0.134147
-0.047559
0.0660941
0.208572
0.325864
0.436008
0.55719
0.712737
0.915563
1.16257
1.37399
1.57442
1.5638
1.89213
1.99489
2.8817
3.26691
3.09176
3.32281
3.26284
2.93841
2.23267
1.83727
1.28409
0.396436
0.101822
-0.221478
-0.361968
-0.448238
-0.598447
-0.813286
-0.73591
-0.530199
0.637548
1.93737
3.4552
5.29438
6.46517
0.10854
0.315773
0.503605
0.641857
0.734596
0.805046
0.868159
0.916179
0.924799
0.860198
0.717605
0.561774
0.390552
0.265814
0.213236
0.194221
0.168374
0.14527
0.337387
1.20946
1.16767
0.909878
0.671842
0.287617
0.17164
0.154902
0.22642
0.0560354
-0.273815
-0.475079
-0.695941
-0.735892
-0.693597
-0.659399
-0.591434
-0.48131
-0.400188
-0.326519
-0.263428
-0.226742
-0.203223
-0.147216
-0.0554837
0.064379
0.209401
0.330777
0.446984
0.573312
0.731317
0.934813
1.18179
1.39594
1.58787
1.5944
1.94531
2.03072
3.01677
3.40075
3.20637
3.44682
3.37674
3.05161
2.33057
1.8973
1.3546
0.43464
0.101833
-0.217416
-0.333307
-0.405665
-0.60054
-0.838192
-0.803043
-0.535902
0.700109
2.12145
3.76132
5.69118
6.92321
0.11222
0.324456
0.515279
0.655329
0.75199
0.827003
0.890956
0.940048
0.944763
0.875444
0.731554
0.574896
0.402106
0.272194
0.211491
0.193032
0.172999
0.16726
0.430836
1.34342
1.287
0.991615
0.69036
0.274918
0.147582
0.154008
0.212827
0.0723955
-0.239224
-0.469518
-0.70765
-0.763299
-0.733521
-0.698036
-0.632637
-0.520488
-0.434118
-0.359577
-0.294228
-0.249022
-0.220198
-0.160173
-0.0632445
0.0628899
0.209485
0.335122
0.457525
0.588635
0.748757
0.952449
1.19833
1.41446
1.59677
1.6138
1.97109
2.05812
3.16737
3.54973
3.33032
3.58095
3.50501
3.17197
2.43331
1.97483
1.43459
0.479599
0.106848
-0.2062
-0.302765
-0.363182
-0.603364
-0.84911
-0.875913
-0.540348
0.770139
2.31561
4.08274
6.11708
7.42118
0.115933
0.333162
0.52698
0.669031
0.769467
0.848329
0.91358
0.963889
0.963895
0.8905
0.746296
0.588949
0.415562
0.281426
0.214056
0.195664
0.182657
0.202395
0.54027
1.48612
1.41589
1.07898
0.709895
0.265007
0.127457
0.152212
0.194184
0.0861569
-0.210498
-0.473223
-0.721628
-0.791845
-0.773238
-0.73564
-0.673761
-0.558521
-0.468527
-0.391824
-0.324029
-0.273209
-0.237657
-0.173101
-0.0709673
0.060934
0.208553
0.338542
0.467301
0.602834
0.765032
0.968613
1.21166
1.42924
1.60265
1.62392
1.96151
2.07497
3.32479
3.70021
3.45357
3.71195
3.62618
3.27365
2.52025
2.05427
1.51186
0.522144
0.110855
-0.194125
-0.276619
-0.331523
-0.595988
-0.856126
-0.951326
-0.544383
0.843098
2.51352
4.40878
6.54395
7.93124
0.11981
0.342167
0.539222
0.683521
0.787518
0.869788
0.937233
0.988389
0.982902
0.906099
0.762706
0.60512
0.432114
0.295201
0.223307
0.205921
0.202154
0.25479
0.668333
1.63951
1.5581
1.17339
0.730713
0.25778
0.110574
0.146392
0.171449
0.0967784
-0.187234
-0.485301
-0.739936
-0.824336
-0.814919
-0.775479
-0.716205
-0.596606
-0.504008
-0.4243
-0.353763
-0.298839
-0.255779
-0.186033
-0.0781009
0.0592107
0.207481
0.341657
0.476647
0.616152
0.780017
0.983186
1.2216
1.44034
1.60585
1.62817
1.92703
2.08733
3.50362
3.87036
3.58978
3.85302
3.76191
3.37553
2.60736
2.14701
1.5964
0.57228
0.125523
-0.171625
-0.244763
-0.300926
-0.56236
-0.853567
-1.02022
-0.546788
0.920383
2.71978
4.75175
6.99483
8.4424
0.12366
0.351177
0.551591
0.698319
0.805725
0.890902
0.961041
1.01232
1.00104
0.921245
0.779629
0.622142
0.450669
0.312485
0.238306
0.22355
0.232368
0.325116
0.811873
1.79974
1.71217
1.2779
0.751117
0.252537
0.0980229
0.137038
0.150044
0.105275
-0.168167
-0.502451
-0.759952
-0.857855
-0.855565
-0.814979
-0.756513
-0.632489
-0.538881
-0.455814
-0.382269
-0.324673
-0.274013
-0.199058
-0.0850133
0.0571625
0.205888
0.344199
0.485205
0.628276
0.793872
0.996524
1.2285
1.44663
1.60652
1.62794
1.87976
2.09527
3.69611
4.04669
3.7314
3.98938
3.89064
3.45849
2.68193
2.2287
1.66761
0.621542
0.143278
-0.133276
-0.195996
-0.264709
-0.522347
-0.842444
-1.08045
-0.552123
0.994401
2.92388
5.0949
7.44186
8.96981
0.127609
0.360539
0.564565
0.713976
0.824713
0.912708
0.985901
1.03669
1.0191
0.936599
0.797898
0.641156
0.472401
0.334967
0.261206
0.251202
0.276872
0.416057
0.972656
1.96652
1.87948
1.39949
0.770834
0.24888
0.0892194
0.128154
0.132083
0.110903
-0.155004
-0.525243
-0.784472
-0.8943
-0.897677
-0.856082
-0.796723
-0.667514
-0.573893
-0.487355
-0.410718
-0.351095
-0.292733
-0.211929
-0.0911537
0.0552324
0.204538
0.346683
0.493234
0.639265
0.806387
1.00805
1.23301
1.44623
1.60391
1.62394
1.82206
2.10641
3.91802
4.24811
3.89421
4.13363
4.03288
3.54611
2.76605
2.30867
1.73723
0.691016
0.180311
-0.0581735
-0.116187
-0.2119
-0.484599
-0.822912
-1.12718
-0.558312
1.0685
3.13072
5.45215
7.91643
9.49065
0.131552
0.370015
0.577626
0.72986
0.843876
0.934471
1.01075
1.06042
1.03632
0.951227
0.816246
0.660797
0.495848
0.361111
0.290161
0.28699
0.33468
0.525644
1.14577
2.13341
2.05072
1.52796
0.78763
0.24557
0.0852333
0.122802
0.118065
0.116519
-0.150709
-0.550595
-0.811099
-0.930639
-0.939196
-0.896261
-0.833496
-0.700837
-0.607414
-0.517581
-0.438072
-0.377223
-0.312345
-0.224752
-0.0968062
0.0527535
0.203021
0.348791
0.500313
0.648952
0.817864
1.01787
1.23594
1.44177
1.60004
1.61167
1.75546
2.12122
4.16238
4.46016
4.06939
4.27346
4.1657
3.61674
2.83747
2.36792
1.78961
0.768929
0.237885
0.0510422
-0.010996
-0.1421
-0.452009
-0.800585
-1.16151
-0.568585
1.13855
3.33059
5.80524
8.40135
10.0165
0.135774
0.37995
0.591155
0.746348
0.863561
0.956795
1.0363
1.08422
1.05329
0.965661
0.835379
0.682126
0.522177
0.392736
0.327512
0.333148
0.408817
0.655319
1.3327
2.29859
2.21746
1.65572
0.802866
0.242178
0.085749
0.120736
0.108085
0.116484
-0.164084
-0.579046
-0.841374
-0.968877
-0.981715
-0.937063
-0.868648
-0.735045
-0.64028
-0.547085
-0.465291
-0.403655
-0.332632
-0.237234
-0.10155
0.0501561
0.201829
0.350984
0.506525
0.65742
0.827997
1.0252
1.23756
1.43682
1.59724
1.59499
1.68799
2.14961
4.44639
4.70257
4.27335
4.42578
4.30753
3.68659
2.90961
2.43185
1.85554
0.8731
0.343654
0.20003
0.118131
-0.0549377
-0.411409
-0.768797
-1.18268
-0.578397
1.20842
3.53286
6.175
8.90586
10.5858
0.140213
0.390072
0.604705
0.76274
0.882906
0.978726
1.0615
1.10692
1.06929
0.978893
0.853914
0.703567
0.549684
0.427795
0.370957
0.387518
0.496924
0.801783
1.5281
2.45649
2.37102
1.76466
0.81603
0.238044
0.0896919
0.121186
0.103301
0.100581
-0.195888
-0.606659
-0.871636
-1.00617
-1.02205
-0.975153
-0.899888
-0.767734
-0.670868
-0.574387
-0.491411
-0.429606
-0.352878
-0.249204
-0.105934
0.0470586
0.200537
0.35311
0.51169
0.664746
0.837196
1.03098
1.23945
1.43383
1.59491
1.57581
1.61974
2.19151
4.7636
4.96163
4.50049
4.58407
4.42654
3.71464
2.94601
2.4767
1.9199
0.982413
0.478559
0.368895
0.260221
0.0412209
-0.361989
-0.732572
-1.1956
-0.58886
1.2696
3.72703
6.5434
9.40503
11.1559
0.144996
0.400657
0.618635
0.779308
0.902187
1.00096
1.08709
1.12892
1.08487
0.991557
0.872413
0.726114
0.579741
0.468053
0.423068
0.454233
0.601219
0.96575
1.73286
2.61234
2.5134
1.84474
0.828174
0.234052
0.0960353
0.124633
0.107445
0.063608
-0.242939
-0.634581
-0.904117
-1.04496
-1.06108
-1.0111
-0.92808
-0.798165
-0.699529
-0.600079
-0.517257
-0.455583
-0.372712
-0.260396
-0.110456
0.0437965
0.199572
0.355402
0.516097
0.671049
0.845035
1.03534
1.24231
1.4321
1.59223
1.55981
1.55261
2.25863
5.1322
5.25791
4.75673
4.76951
4.54311
3.71676
2.96795
2.53879
2.00114
1.11309
0.646442
0.565108
0.422888
0.149803
-0.299928
-0.682635
-1.19487
-0.59283
1.32911
3.92095
6.92586
9.90009
11.7542
0.149963
0.411371
0.632384
0.795331
0.920751
1.02297
1.11186
1.14909
1.09966
1.00369
0.889516
0.748234
0.61071
0.511179
0.480719
0.530896
0.718004
1.14205
1.94151
2.76902
2.64027
1.9036
0.84031
0.23185
0.10167
0.130522
0.115598
0.0153039
-0.294842
-0.662122
-0.935884
-1.08199
-1.09565
-1.04218
-0.951124
-0.824495
-0.724783
-0.623284
-0.541259
-0.479877
-0.391088
-0.270512
-0.115705
0.0396885
0.198506
0.357636
0.519966
0.676707
0.852347
1.04021
1.24668
1.43131
1.58733
1.54623
1.48342
2.35139
5.54582
5.57943
5.02305
4.9639
4.62726
3.67349
2.94873
2.58149
2.04983
1.23608
0.820103
0.770874
0.597104
0.270225
-0.233334
-0.62564
-1.18574
-0.594464
1.38289
4.09515
7.28858
10.3605
12.3382
0.155208
0.422428
0.646265
0.811251
0.939258
1.04553
1.1362
1.168
1.11384
1.01608
0.906126
0.771017
0.644103
0.559237
0.54635
0.620011
0.849091
1.33035
2.1554
2.93328
2.74509
1.92949
0.853705
0.234453
0.105352
0.138823
0.116723
-0.0372899
-0.343865
-0.691065
-0.968102
-1.11752
-1.12604
-1.06804
-0.969226
-0.847097
-0.74709
-0.644944
-0.56406
-0.502176