/*--------------------------------*- C++ -*----------------------------------*\
| =========                 |                                                 |
| \\      /  F ield         | OpenFOAM: The Open Source CFD Toolbox           |
|  \\    /   O peration     | Version:  4.1                                   |
|   \\  /    A nd           | Web:      www.OpenFOAM.org                      |
|    \\/     M anipulation  |                                                 |
\*---------------------------------------------------------------------------*/
FoamFile
{
    version     2.0;
    format      ascii;
    class       surfaceScalarField;
    location    "17";
    object      phi;
}
// * * * * * * * * * * * * * * * * * * * * * * * * * * * * * * * * * * * * * //

dimensions      [0 3 -1 0 0 0 0];

internalField   nonuniform List<scalar> 
13220
(
-949.875
2249.78
-1573.94
1924.27
-2053.98
1779.94
-2424.21
1670.13
-2699.83
1575.82
-2888.35
1488.41
-2993.02
1404.57
-3013.82
1321
-2949.58
1235.65
-2797.2
1147.52
-2551.14
1054.14
-2192.98
941.738
-1687.15
794.064
-1012.66
625.696
287.241
373.358
1876.42
442.749
1854.86
437.323
1785.38
406.706
1700.72
380.61
1601.93
359.916
1509.08
345.33
1419.17
337.56
1328.74
333.52
1239.69
326.986
1154.03
309.662
1071.45
267.507
983.856
191.448
870.093
111.439
705.678
398.682
33.6612
1842.77
-97.3613
1985.85
-253.555
1941.59
-371.077
1818.22
-473.097
1703.98
-567.458
1603.42
-651.643
1503.38
-725.697
1402.78
-787.942
1301.96
-837.146
1203.26
-868.067
1102.39
-855.914
971.802
-740.237
754.518
-434.265
399.817
-35.5836
28.9577
1813.84
-100.502
2115.3
-225.34
2066.49
-304.277
1897.14
-367.865
1767.62
-416.663
1652.2
-445.859
1532.64
-456.646
1413.55
-451.421
1296.78
-429.722
1181.54
-386.761
1059.46
-311.537
896.495
-192.734
635.625
-48.4326
255.423
-84.0161
169.986
1643.9
146.547
2138.71
124.169
2088.93
123.272
1898
127.44
1763.53
136.268
1643.33
149.625
1519.34
167.043
1396.07
187.397
1276.44
208.515
1160.37
229.364
1038.5
244.09
881.87
233.198
646.523
155.381
333.238
71.3607
223.943
1420.02
245.294
2117.34
235.944
2098.41
237.145
1896.75
241.64
1759.14
245.53
1639.35
247.874
1517.06
246.499
1397.33
242.438
1280.49
235.145
1167.5
222.599
1051.04
199.973
904.048
156.515
689.465
78.2896
410.972
149.651
205.301
1214.81
241.176
2081.37
216.403
2123.25
193.882
1919.15
179.715
1773.35
166.15
1652.78
152.357
1530.83
138.005
1411.54
122.985
1295.42
108.62
1181.78
94.1046
1065.32
77.0029
921.387
52.9561
713.638
19.5213
444.509
169.166
176.172
1038.7
228.681
2028.67
206.335
2145.76
176.574
1948.69
158.2
1791.8
143.539
1667.16
128.566
1545.77
114.003
1425.81
100.814
1308.5
87.9019
1194.36
76.1046
1077.09
62.1593
934.546
42.4108
732.524
16.3652
469.769
185.533
154.712
883.915
224.675
1958.32
212.01
2158.39
183.498
1976.81
165.364
1809.94
151.911
1680.24
139.068
1558.57
125.038
1439.51
111.771
1321.67
98.9495
1207.01
85.26
1090.5
70.3203
949.876
49.6685
753.401
22.0301
497.594
207.551
133.638
749.959
214.705
1876.42
211.563
2161.55
182.389
2005.21
163.338
1828.98
148.299
1694.52
134.641
1572.2
120.482
1453
106.342
1335.65
92.2847
1220.42
79.122
1103.64
62.6495
965.014
41.8695
772.823
16.8412
521.375
224.389
112.587
636.994
199.716
1788.1
207.163
2154.06
179.39
2031.89
159.992
1848.31
146.335
1707.13
132.999
1585.38
118.603
1466.5
104.743
1349.21
89.8128
1234.73
75.0012
1117.88
59.524
980.428
39.6698
792.312
16.5818
544.102
240.956
97.7932
539.75
186.512
1698.55
203.436
2138
175.28
2059.33
148.146
1876.07
128.343
1726.22
113.549
1600.44
98.6821
1480.71
86.0587
1361.79
74.384
1245.73
63.2569
1128.92
49.8529
992.436
31.6316
808.814
10.3575
563.721
251.256
84.4391
459.208
211.831
1573.05
257.32
2094.72
255.502
2062.5
255.86
1877.05
258.616
1724.61
254.544
1604.75
244.172
1492.24
225.611
1379.87
202.14
1268.66
175.853
1154.98
139.114
1024.05
96.3258
845.533
46.0408
608.203
297.261
105.49
358.595
186.759
1491.6
212.648
2071.2
161.091
2113.01
94.713
1944.6
43.3489
1773.67
16.828
1631.12
3.04888
1502.17
1.70837
1379.23
6.78583
1260.64
14.6169
1143.17
23.9722
1014.56
17.8914
847.56
2.70319
619.248
299.71
-218.876
177.303
713.966
1140.73
1372.06
1500.99
1514.28
1473.41
1365.28
1224.27
1056.51
851.814
614.552
309.438
-3.92298
805.673
-827.113
803.395
785.083
791.883
1541.09
-758.371
1550.14
1547.11
1557.05
2249.45
-694.689
2256.91
2255.92
2839.23
-577.468
2841.66
2847.05
2848.31
3302.52
-451.147
3305.68
3307.43
3649.84
-340.168
3651.26
3654.23
3654.28
3885.73
-228.692
3885.97
3888.76
3888.06
3994.24
-105.364
3993.66
3994.45
3987.88
5.72032
3989.33
3988.3
3989.75
3790.15
198.577
3790.99
3789.83
3429.12
361.385
3428.46
3428.52
3428.13
2899.72
528.244
2899.37
2899.57
2899.06
2362.19
537.413
2362.3
2362.07
1888.97
473.291
1887.05
1887.36
1885.12
1458.97
427.837
1455.29
1457.51
1453.37
999.136
457.044
996.264
1001.32
439.521
558.514
446.006
445.404
453.249
-150.134
601.275
-132.696
-137.167
-1132.12
1006.85
-1132.74
-1120.85
-1121.97
-2653
1538.36
-2650.99
-2643.17
-2642.83
-4562.47
1924.49
-4559.75
-4555.06
-6760.57
2206.4
-6755.87
-6754.5
-6642.36
-6523.82
-6398.99
-8681.71
2404.81
-8564.65
-8416.5
-8242.19
-8064.07
-7885.68
-7710.51
-7529.3
-7329.02
-9682.23
2551.34
-9471.07
-9265.21
-9060.51
-8833.97
-8603.36
-8371.87
-8139.2
-7910.28
-10235.9
2557.95
-9988.65
-9740.85
-9493.53
-9246.09
-8993.89
-8727.99
-8461.08
-8191.7
-7926.61
-10068.1
2394.59
-9791.16
-9511.96
-9232.98
-8954.16
-8678.64
-8387.05
-8087.87
-7792.23
-9580.7
2068.19
-9295.84
-9006.84
-8703.22
-8400.91
-8096.26
-7794.02
-7491.26
-7175.52
-8529.78
1658.78
-8223.94
-7919.55
-7616.24
-7299.78
-6975.84
-6653.27
-6330.58
-6017.32
-6817.05
1112.68
-6499.85
-6183.47
-5867.86
-5553.71
-5243.24
-4943.6
-4654.61
-4368.9
-4095.57
-3929.93
111.617
-3696.94
-3486.25
-3276.75
-3077.78
-2859.01
-2685.97
-2571.1
-2474.22
-1914.33
-458.761
-1832.41
-1743.87
-1749.44
-1378.56
-378.538
-1011.64
-372.887
-1019.98
-660.596
-365.36
-671.617
-324.719
-354.413
-42.9334
-310.383
-51.3126
227.841
-314.759
502.115
-275.405
480.119
718.226
-231.811
696.383
905.991
-201.975
1070.54
-183.986
1077.88
1237.78
-175.52
1248.04
1393.51
-155.32
1522.82
-116.758
1516.75
1634.84
-107.338
1713.17
-85.4984
1722.67
1801.5
-84.1025
1810.43
1891.88
-82.7205
1966.38
-64.2473
1966.51
2047
-71.8831
2048.66
2129.98
-72.9895
2193.4
-62.0115
2199.54
2265.01
-61.5222
2324.29
-53.8018
2328.83
2386.53
-54.146
2391.5
2441.95
-46.7166
2485.79
-38.374
2487.73
2531.36
-38.4502
2532.41
2568.65
-31.0019
2590.4
-21.7186
2594.64
2617.68
-22.4826
2636.2
-13.4119
2636.3
2655.48
-14.6435
2655.18
2671.21
-12.0417
2672.19
-2.20658
2675.12
2683.4
-9.71198
2686.66
2694.12
-8.14492
2697.91
0.369952
2696.34
2709.46
-9.47189
2709.97
-2.43651
2712.34
2719.61
-9.35079
2722.82
2732.44
-11.8015
2740.56
-4.42027
2738.76
2760.63
-18.4877
2758.29
2782.71
-21.7935
2795.67
-16.3332
2798.04
2828.52
-33.1945
2862.15
-29.9883
2860.89
2905.06
-43.5683
2905.25
-56.5193
-110.265
278.889
-109.316
366.404
-102.867
447.172
-87.0286
563.798
-54.015
362.038
-68.4386
-523.356
-76.2843
-225.691
-87.8766
132.542
-83.5474
319.878
-20.454
33.9879
0.560355
-785.742
-31.439
-832.821
-48.5004
-528.574
-41.149
-66.146
-64.8848
483.054
-43.9964
479.584
-28.5264
432.786
-29.243
398.089
1.61803
1258.12
53.6794
2921.47
29.9645
1422.79
36.3765
-567.697
49.7582
-1479.12
16.5738
-1345.5
17.5777
218.609
3.2582
-827.84
-50.3992
447
5.57094
1773.4
33.8973
986.21
-10.5708
512.81
-162.538
605.271
42.2848
1401.76
120.565
412.683
82.7889
4.11494
109.227
173.276
108.284
126.888
117.949
131.371
102.383
-311.098
137.615
880.448
158.188
980.031
166.92
839.091
162.902
649.209
158.404
525.826
149.739
372.179
151.294
560.068
154.677
414.084
156.129
356.829
158.584
137.148
149.588
-49.9417
130.123
-237.751
96.7151
-587.028
67.9893
-897.703
26.1396
-1171.39
3.74674
-944.413
34.5517
2963.39
50.2722
6899.66
40.4436
6366.29
19.9751
3721.33
-25.5786
-424.854
-64.8472
-57.8633
-68.2868
1719.78
-37.6432
2777.08
-24.8709
2138.25
-83.3039
1175.69
-64.4649
2264.07
-65.0556
745.929
-121.49
237.714
-133.85
372.481
-114.759
562.281
-54.0359
1072.99
-50.3392
1206.34
-78.7018
788.843
-70.9545
707.524
-49.1458
-534.955
-17.3543
-1260.76
10.0932
-1861.59
19.4453
-2384.3
30.7559
-2807.71
-2904.87
-125.188
287.045
-125.515
368.182
-119.804
443.594
-91.8548
537.876
-25.4212
296.942
-68.5858
-479.467
-100.141
-194.187
-106.71
138.216
-71.3337
282.804
19.4664
-59.242
14.4243
-783.416
-22.6222
-797.894
-35.5137
-519.647
1.84829
-111.782
-40.0808
488.357
-30.0199
455.397
-23.2076
410.352
-21.3117
362.679
15.1574
1216.74
49.4092
2885.33
18.3811
1448.34
36.0071
-589.849
47.5448
-1493.36
13.7128
-1314.94
22.8143
191.248
-5.45824
-804.169
-9.57371
444.429
20.1367
1740.98
32.2818
966.982
-7.28561
545.419
-121.929
712.148
62.7125
1207.22
132.687
336.674
64.6527
56.8623
108.479
125.907
111.437
117.542
121.07
118.513
55.7061
-251.323
135.603
801.041
159.435
956.772
164.202
834.894
156.844
657.83
150.448
534.586
138.803
387.302
160.089
542.656
153.451
425.736
158.137
358.719
155.668
150.535
145.809
-30.4905
127.942
-214.636
96.3951
-551.245
67.987
-865.689
28.0901
-1128.39
5.1359
-916.582
31.3609
2938.16
46.7504
6884.91
41.6238
6372.16
36.6964
3727.38
-30.5595
-355.851
-78.7583
-6.47135
-75.6424
1722.4
-48.7309
2753.48
-22.1405
2115.8
-78.7937
1237.82
-55.8917
2244.16
-31.3528
728.43
-80.326
296.688
-80.0431
382.201
-78.8508
570.714
-70.2397
1068.11
-60.3226
1197.28
-73.9953
801.912
-58.6235
689.88
-47.5893
-548.673
-27.0573
-1283.31
-2.62788
-1888.24
9.79185
-2399.36
19.447
-2820.18
-2932.67
-128.336
294.623
-129.371
369.129
-123.806
438.344
-92.9182
507.287
-31.5381
234.172
-76.8245
-434.75
-114.086
-159.242
-115.954
138.901
-68.8495
234.919
19.9032
-149.097
12.7561
-772.842
-16.47
-766.869
-24.9191
-507.617
2.03667
-132.336
-35.9797
529.631
-25.0884
443.769
-14.9037
396.393
-14.2379
358.321
17.2372
1185.83
46.3222
2856.41
18.1016
1476.44
36.6406
-603.654
46.7357
-1500.31
11.667
-1277.03
23.1058
177.75
-3.681
-775.063
-0.450729
444.199
26.4676
1714.57
14.4088
978.298
-21.3169
582.202
-104.447
801.772
58.756
1064.34
121.911
283.618
69.3366
114.477
106.425
94.1697
111.766
120.791
118.14
116.116
53.5077
-186.617
132.272
723.357
159.432
930.176
162.641
831.639
154.397
666.063
146.525
542.617
134.812
398.887
155.468
522.561
149.369
432.04
153.571
355.101
150.236
152.334
144.114
-31.9683
127.423
-202.962
97.0575
-524.799
67.6429
-839.772
29.094
-1092.74
3.37865
-894.264
28.8295
2911.78
44.2471
6869.28
39.5865
6376.66
32.9483
3733.76
-26.4155
-304.127
-73.2788
33.8129
-75.0799
1724.96
-50.6044
2728.88
-25.1935
2091.17
-77.4802
1290.52
-48.9809
2215.75
-23.4888
702.755
-74.586
347.602
-64.8911
365.153
-72.622
573.021
-66.5357
1061.59
-60.102
1189.76
-77.5576
818.882
-57.6616
669.458
-46.9545
-556.502
-28.1844
-1300.38
-6.01181
-1908.02
5.77914
-2408.51
19.6236
-2830.59
-2938.28
-130.492
302.397
-132.44
371.93
-127.091
434.34
-93.6299
475.171
-38.2401
179.288
-81.5741
-391.593
-121.743
-119.973
-119.112
135.123
-63.6125
177.43
20.3068
-235.817
14.3662
-769.125
-13.4241
-741.655
-20.2654
-504.979
0.0767417
-160.447
-30.8969
523.06
-20.5135
418.36
-10.2961
371.089
-11.374
327.202
18.1773
1152.05
43.3845
2829.56
22.8019
1491.75
38.8245
-623.859
45.451
-1509.48
12.3826
-1246.69
27.3576
144.309
1.72408
-754.095
4.13386
434.299
27.2688
1688.5
2.39407
996.328
-29.3255
609.706
-110.533
870.116
50.4216
900.971
105.502
224.898
76.4526
130.304
103.406
64.3594
111.707
108.017
115.069
110.946
55.9438
-131.308
127.835
652.138
159.283
899.141
162.916
828.525
154.292
675.93
144.929
554.354
132.617
414.575
150.705
508.392
146.533
440.921
150.074
358.092
146.356
166.05
142.738
-18.2997
126.858
-181.748
97.4382
-490.963
67.3417
-805.975
29.6146
-1051.82
2.27826
-861.913
26.8989
2888.25
42.2647
6854.69
37.8129
6382.2
30.3668
3743.02
-24.239
-240.628
-69.4957
87.2893
-73.4189
1735.57
-50.9839
2709.85
-26.0334
2069.66
-74.2148
1342.66
-46.5702
2190.66
-25.8718
688.144
-72.4895
401.894
-53.79
357.145
-68.3413
595.77
-64.9054
1062.29
-59.4373
1185.18
-76.6049
835.232
-58.3839
648.272
-46.4248
-571.548
-30.5493
-1318.38
-9.91497
-1930.67
2.45926
-2423.22
12.0259
-2842.46
-2962.45
-133.108
309.009
-135.871
374.269
-129.938
428.332
-93.7002
438.876
-44.3764
127.902
-89.8496
-346.832
-127.409
-84.5711
-119.096
125.775
-56.3111
113.96
22.5423
-315.366
15.0795
-758.635
-10.865
-713.525
-17.309
-494.784
-3.77627
-167.381
-26.3784
556.247
-16.6074
410.915
-7.04282
360.341
-9.40422
331.758
18.6993
1125.84
40.7076
2808.25
28.1605
1505.4
41.3295
-632.366
44.0107
-1508.9
13.1836
-1213.41
31.3469
127.929
5.94058
-726.856
10.1466
434.833
29.0519
1670.81
2.17329
1024.06
-49.6421
663.791
-149.869
986.157
40.9628
726.269
92.0287
183.651
76.0027
154.345
100.269
45.9824
111.809
104.05
113.627
113.973
55.7274
-72.7109
122.519
586.742
158.402
863.895
163.999
822.878
155.325
684.5
145.167
564.387
132.203
426.868
146.907
493.684
144.514
442.653
147.519
354.374
143.78
165.987
141.957
-23.9295
126.749
-171.583
97.9788
-466.184
67.0575
-778.655
29.4835
-1017.16
0.742781
-836.329
24.902
2862.78
40.3709
6838.86
35.9761
6386.34
27.8937
3750.92
-23.0849
-196.799
-66.4901
124.074
-71.2625
1740.47
-49.8936
2687.83
-25.929
2045.81
-70.3772
1386.54
-46.2195
2165.91
-32.0606
672.095
-73.8608
441.356
-55.7699
330.235
-68.7082
600.401
-64.6489
1056.77
-60.8351
1180.03
-76.4245
850.639
-57.9079
629.864
-45.9811
-580.068
-32.176
-1330.18
-13.5909
-1946.77
-0.504886
-2433.64
13.448
-2852.78
-2960.36
-136.743
315.748
-139.917
377.699
-132.407
421.311
-93.4188
400.326
-50.1257
83.3935
-97.5049
-301.202
-131.067
-53.6385
-116.519
109.191
-46.517
41.4291
26.4227
-392.644
15.1972
-749.805
-9.44824
-691.971
-14.8323
-493.899
-6.26273
-183.599
-22.1132
535.533
-13.1706
385.972
-4.26746
336.247
-7.56337
303.491
18.7464
1096.09
38.8924
2786.72
31.9952
1507.36
44.9241
-649.415
43.0268
-1509.68
14.5908
-1187.78
37.8953
83.9254
11.6908
-705.904
14.4011
424.354
31.0351
1651.06
6.73978
1042
-49.0646
715.115
-72.4503
996.864
41.3091
611.669
81.8259
140.409
81.3262
144.304
99.4286
25.1148
111.581
88.2367
111.834
112.891
60.9576
-23.7079
116.848
531.932
156.576
824.683
165.223
814.827
157.2
693.738
146.528
577.321
133.051
443.445
144.203
486.299
143.117
448.026
145.815
357.786
141.892
178.472
141.354
-12.8375
126.704
-151.195
98.4873
-433.153
66.7493
-742.942
29.0223
-975.922
-1.25868
-800.732
22.8931
2839.64
38.5795
6823.94
34.0722
6391.98
25.6095
3761.22
-22.5576
-140.27
-64.1758
173.312
-68.551
1751.45
-47.971
2670.48
-26.301
2026.82
-67.1974
1430
-46.5872
2147.28
-39.0741
669.203
-65.0505
473.418
-53.537
329.763
-68.9704
620.872
-65.5694
1057.11
-63.3589
1178.29
-76.281
862.317
-56.2496
606.273
-45.1179
-594.196
-32.6216
-1344.65
-15.7835
-1965.32
-2.95177
-2448.4
9.55754
-2867.1
-2975.22
-141.097
321.7
-144.079
380.182
-134.143
411.23
-93.0391
359.084
-57.0947
45.16
-104.694
-254.122
-132.686
-27.1577
-111.647
87.4748
-33.192
-37.4654
31.9396
-457.647
14.1245
-729.255
-9.02351
-666.105
-13.2329
-485.683
-7.58419
-182.301
-17.5105
561.109
-9.61145
383.57
-2.28374
330.13
-5.98292
314.352
18.494
1074.39
37.2825
2769.05
32.7242
1513.87
46.0486
-658.275
42.0519
-1502.51
11.6895
-1154.98
48.4948
56.4288
17.2065
-672.399
18.5392
429.446
33.8087
1637.74
11.307
1066.45
-42.2978
771.837
-39.6556
1010.1
42.7759
541.95
73.2757
118.997
81.7805
144.99
98.5454
14.6235
110.221
83.1549
112.589
117.301
61.4798
28.0008
110.493
484.584
153.868
781.912
166.126
802.369
159.498
700.025
148.714
587.6
134.97
455.938
142.711
477.949
142.383
446.911
144.844
353.379
140.715
177.215
140.869
-20.5199
126.731
-142.187
98.9432
-409.415
66.3942
-714.069
28.186
-940.679
-3.42459
-772.239
20.9135
2813.66
36.8717
6807.44
32.1377
6396.28
23.0063
3769.9
-22.0607
-103.496
-61.5957
205.064
-65.5345
1754.79
-45.7723
2649.58
-26.5636
2007.3
-64.0695
1466.54
-47.3508
2129.56
-46.5498
665.687
-58.5082
481.965
-63.7445
326.161
-72.3945
619.964
-67.5522
1049.98
-65.9651
1175.15
-74.8504
871.179
-53.6151
585.684
-43.5265
-600.704
-32.1296
-1353.87
-16.9615
-1978.09
-4.59651
-2458.33
3.34534
-2871.51
-2985.32
-145.924
327.822
-148.121
382.197
-135.298
398.224
-92.9196
316.38
-63.8943
13.1441
-110.251
-211.166
-132.242
-8.87209
-104.545
56.9681
-13.4337
-131.791
44.0844
-522.034
12.9101
-700.889
-8.4854
-648.077
-12.4605
-486.224
-8.30093
-193.492
-13.2399
532.235
-6.24708
360.155
0.3336
308.414
-3.60969
287.508
18.0802
1050.4
35.5763
2750.47
33.0423
1511.82
47.2177
-676.407
42.3277
-1500.29
10.3564
-1126.33
65.8403
-23.8757
23.5655
-636.594
21.6412
423.717
36.6866
1619.63
14.6304
1082.89
-34.2347
815.816
-14.8244
982.528
47.4194
479.1
72.2241
91.9763
87.1855
122.548
100.416
-1.35217
109.596
70.6295
108.998
117.876
61.069
75.2012
103.501
443.805
150.402
735.847
166.568
787.05
162.029
705.879
151.595
600.262
137.88
472.541
142.428
476.953
142.313
450.873
144.451
356.748
139.917
188.662
140.366
-10.79
126.793
-122.638
99.4467
-377.01
66.0541
-676.563
27.1679
-898.06
-5.49
-733.981
18.9594
2790.04
35.2179
6791.88
30.2401
6402.36
20.6524
3781.15
-22.0553
-54.5441
-59.5158
248.246
-62.3528
1763.84
-43.3032
2633.59
-26.3442
1992.36
-60.7468
1502.42
-48.1138
2118.33
-54.4861
675.158
-65.2551
497.358
-80.5542
349.447
-76.2411
618.084
-69.9569
1046.55
-67.9083
1173.11
-71.8523
873.677
-50.1989
560.224
-41.3608
-611.977
-30.8011
-1365.99
-17.3174
-1992.89
-5.20769
-2471.84
6.89941
-2884.81
-2984.74
-150.799
333.265
-151.668
382.606
-135.899
382.348
-93.5393
273.919
-71.8754
-10.8129
-115.132
-168.312
-130.268
5.29451
-96.8076
23.1341
-6.35521
-222.554
41.6294
-568.273
11.0015
-667.567
-8.42002
-625.457
-12.6832
-477.651
-8.39868
-190.124
-8.43884
552.921
-2.78311
362.48
2.19729
306.205
-1.87874
304.438
17.5161
1034.35
33.8036
2735.62
33.5656
1514.66
49.0465
-687.348
44.0688
-1492.11
12.387
-1091.48
90.8619
-86.2943
28.8757
-571.933
24.7379
435.538
40.3885
1606.52
18.1742
1107.91
-27.8122
865.663
-0.68074
971.493
51.6685
437.417
71.2899
80.8442
90.0134
112.998
101.952
-6.8274
110.262
68.3669
102.519
132.014
54.9609
122.989
94.7044
406.088
145.451
685.738
166.038
766.212
164.298
707.169
154.761
609.097
141.406
484.309
143.22
474.115
142.864
449.242
144.569
352.217
139.682
187.236
139.781
-19.1001
126.79
-115.005
99.8037
-354.212
65.605
-646.184
25.7033
-861.239
-7.49589
-704.027
17.0786
2763.53
33.6412
6774.61
28.3959
6407.02
18.1664
3790.72
-22.1717
-23.4507
-57.0725
274.458
-58.9681
1764.66
-40.6372
2613.83
-25.7232
1976.86
-57.1686
1532.72
-48.631
2108.56
-62.1999
685.527
-74.411
505.567
-92.2732
359.965
-82.0541
597.538
-72.3851
1033.83
-68.8738
1167.92
-67.4966
872.715
-46.1873
540.655
-38.5639
-615.778
-28.7254
-1373.37
-16.856
-2002.31
-5.19511
-2481.05
4.03479
-2890.35
-2986.98
-155.61
338.577
-154.788
381.323
-136.298
363.186
-95.0782
231.74
-79.3019
-31.1606
-118.315
-134.682
-127.251
9.69877
-90.1689
-17.5404
-17.0558
-300.087
22.2541
-612.947
8.57272
-657.073
-9.268
-611.244
-13.5317
-477.929
-8.43672
-201.54
-4.82055
519.443
-0.203359
340.868
5.2554
284.869
1.37095
280.039
16.6494
1017.56
31.9642
2719.36
34.3881
1507.87
51.5002
-708.242
46.9925
-1490.22
30.6669
-1079.1
92.13
-167.083
33.1348
-521.446
26.9103
433.988
43.6373
1586.62
21.8374
1124.66
-19.3143
901.097
13.8614
932.354
58.8573
391.484
77.0704
60.5678
96.7424
87.9313
105.949
-19.0547
112.107
59.0283
98.2824
145.408
53.6779
167.22
85.5493
376.601
138.526
634.158
164.074
742.005
165.997
706.93
158.012
619.565
145.42
499.891
144.937
478.176
143.999
453.894
145.101
356.363
139.739
198.447
138.912
-8.31209
126.767
-96.2397
100.221
-322.171
65.2123
-606.788
24.2307
-816.104
-9.31279
-664.413
15.2664
2739.67
32.1613
6758.35
26.6463
6413.64
15.9395
3803.05
-22.6007
19.727
-54.9066
311.175
-55.4188
1771.3
-37.7101
2599.23
-24.7366
1965.5
-53.297
1562.03
-48.542
2104.71
-69.021
707.838
-82.2012
521.835
-99.2168
381.555
-87.3399
585.786
-74.043
1022.34
-68.4061
1162.01
-61.683
864.631
-41.5647
516.843
-35.082
-623.958
-25.7296
-1383.77
-15.5739
-2013.32
-4.43297
-2492.94
0.662555
-2895.92
-2996.89
-160.116
343.029
-157.342
378.228
-136.564
342.468
-97.8151
193.158
-87.429
-43.2869
-120.893
-100.79
-124.035
12.6275
-84.5996
-56.9442
-24.2235
-360.199
9.36287
-643.461
5.33585
-650.259
-10.851
-591.388
-14.8699
-469.253
-7.97665
-200.389
-0.300178
535.347
2.7454
348.153
6.10734
286.661
3.13293
300.734
15.341
1008.98
30.098
2706.27
35.5079
1505.39
54.3455
-722.674
50.0599
-1482.79
36.9355
-1062.17
93.1031
-208.331
35.9828
-461.054
29.1477
449.483
46.6643
1572.14
25.421
1149.06
-10.7981
942.013
26.0917
910.419
65.8468
360.772
80.8895
53.283
100.686
76.22
108.524
-20.3456
112.776
60.2076
98.1035
165.111
53.6406
211.492
76.6291
355.83
129.907
581.407
160.237
711.208
166.489
699.973
160.779
624.305
149.427
509.306
147.285
478.905
145.562
453.171
145.929
352.47
140.326
197.263
137.759
-15.0963
126.614
-90.8422
100.394
-300.246
64.6441
-574.946
22.3095
-776.963
-11.0727
-634.485
13.5673
2712.93
30.817
6740.29
24.9895
6418.77
13.6074
3813.61
-23.1544
47.047
-52.4046
331.314
-51.7134
1769.28
-34.6235
2580.56
-23.4294
1953.59
-49.0137
1586.56
-47.5705
2102.04
-74.3726
731.553
-89.7927
533.478
-104.687
391.174
-92.7135
564.104
-74.846
1001.2
-67.0004
1152.48
-54.825
853.061
-36.2143
500.54
-30.4481
-626.099
-21.5658
-1390.22
-13.529
-2019.11
-2.81008
-2501.5
3.67997
-2898.92
-2990.41
-164.335
346.922
-159.483
372.811
-136.97
319.029
-101.529
156.392
-94.0464
-56.2016
-121.477
-80.8567
-120.559
6.78817
-79.4769
-102.049
-28.3267
-416.755
0.0138867
-675.219
0.755314
-654.147
-12.844
-581.393
-16.6343
-469.814
-7.64713
-214.039
2.7574
503.291
5.26585
329.202
7.58591
267.674
7.42775
278.181
13.4852
1002.16
28.133
2690.79
36.97
1492.43
57.6239
-746.672
53.6185
-1481.07
44.2422
-1056.4
91.8768
-268.208
38.9806
-417.907
31.0356
449.957
50.0976
1549.99
29.8348
1165.03
0.235435
965.265
40.3172
865.964
75.1443
324.871
88.7299
37.8495
106.981
54.011
112.689
-29.2449
114.296
55.7883
98.7428
180.336
57.304
252.578
70.6642
345.332
120.55
533.454
154.717
678.872
165.657
691.064
162.856
629.823
153.241
521.992
150.024
485.674
147.426
459.32
146.931
357.935
141.155
208.08
135.927
-0.467435
126.446
-74.2275
100.636
-268.703
64.1285
-533.957
20.5223
-728.953
-12.5859
-594.965
11.9626
2688.9
29.6143
6723.19
23.4599
6426.04
11.5206
3827.14
-23.839
85.7333
-50.1443
360.952
-47.865
1773.1
-31.273
2567.16
-21.7955
1945.39
-44.2995
1609.31
-45.5354
2103.81
-78.0808
764.974
-95.9059
553.077
-108.554
406.536
-96.6709
550.747
-72.3289
977.793
-62.5546
1142.37
-47.1771
836.716
-31.0852
480.948
-25.6482
-632.563
-17.0352
-1399.35
-10.4727
-2026.07
-0.308352
-2511.72
1.32796
-2900.25
-2999.33
-168.128
349.654
-161.141
365.659
-137.494
295.623
-106.189
125.589
-101.652
-61.7396
-122.057
-58.7596
-117.032
2.27036
-73.9759
-144.706
-30.7586
-458.922
-9.16318
-693.565
-5.97559
-654.41
-15.3688
-567.85
-18.7714
-461.332
-6.78016
-217.587
7.65624
515.189
8.9782
342.573
5.16169
279.304
10.1671
296.165
10.9774
1005.1
26.1238
2677.52
38.6526
1483.22
61.0224
-764.561
57.1858
-1473.97
48.9335
-1043.63
91.7473
-296.721
40.5886
-362.608
33.0834
467.151
55.9368
1530.66
37.858
1186.49
11.8915
996.844
52.9192
838.794
83.3033
302.538
94.385
33.9952
111.335
43.9923
115.149
-26.3683
114.631
61.5115
98.974
200.331
61.2537
289.884
67.07
341.6
111.089
489.793
147.596
641.705
163.133
674.613
163.738
628.068
156.342
527.215
152.749
487.576
149.357
459.942
147.983
355.312
142.652
206.435
133.961
-2.23413
126.109
-72.7714
100.553
-247.625
63.3467
-500.826
18.1943
-687.245
-14.1907
-566.518
10.4961
2661.95
28.5818
6704.19
22.0551
6431.79
9.33142
3838.97
-24.6327
110.285
-47.6674
374.713
-43.888
1767.91
-27.7681
2549.39
-19.8558
1936.66
-39.1158
1627.62
-42.3621
2105.95
-80.1224
799.955
-99.0653
568.702
-105.431
408.882
-93.5557
529.412
-60.0244
940.495
-49.2028
1129.87
-37.5299
825.983
-24.9403
471.718
-22.1014
-632.077
-13.6225
-1405.34
-6.34338
-2031.13
3.21174
-2519.11
6.81105
-2900.24
-2986.47
-171.554
351.454
-162.513
356.041
-138.287
270.325
-111.122
96.8208
-111.266
-67.5023
-124.336
-53.0455
-112.994
-14.2313
-67.1801
-194.915
-30.7127
-502.387
-14.9903
-712.235
-11.3853
-661.157
-18.3308
-564.505
-21.4254
-462.52
-6.27553
-235.469
11.7117
485.167
12.0605
324.456
5.00895
267.486
16.3304
268.325
7.78993
1013.06
23.908
2660.61
40.5445
1462.71
64.5591
-791.391
60.8356
-1472.12
54.2208
-1040.02
90.2123
-341.311
42.0714
-325.353
34.815
467.199
61.2996
1501.06
47.0529
1196.98
25.6906
1011.18
66.8394
794.15
93.1669
274.964
103.722
21.5923
118.781
25.5686
119.519
-30.5026
115.738
62.8448
99.4979
216.413
68.2141
320.76
67.2873
345.432
102.524
456.963
139.571
607.055
159.221
657.459
163.44
626.954
158.624
535.361
155.21
494.697
151.238
467.524
149.039
362.51
144.303
216.117
132.302
18.1838
125.754
-58.4314
100.591
-216.302
62.6765
-458.204
16.2126
-635.96
-15.5733
-527.907
9.13801
2637.6
27.7086
6686.12
20.809
6439.87
7.36757
3854.12
-25.4246
145.681
-45.3994
397.583
-39.7832
1768.67
-23.9657
2537.01
-17.5871
1931.36
-33.5602
1643.52
-37.8638
2110.59
-79.808
842.155
-97.295
586.988
-92.6085
405.666
-83.9406
517.876
-47.1737
903.853
-34.9857
1117.65
-27.8008
818.871
-16.562
458.041
-18.2517
-630.882
-10.087
-1413.49
-1.744
-2039.28
7.12288
-2527.16
7.9509
-2899.74
-2986.51
-174.526
351.9
-163.571
345.064
-139.272
246.46
-116.323
74.8305
-120.716
-63.1613
-127.402
-43.2206
-108.761
-31.7057
-59.4895
-243.281
-28.9798
-530.234
-19.4129
-718.506
-16.3452
-661.201
-21.7565
-554.626
-24.4786
-454.416
-5.37629
-245.917
20.6937
492.583
17.0207
348.207
2.48632
293.074
21.5537
273.661
3.78267
1034.63
21.5855
2644.78
42.5752
1445.08
67.9942
-812.577
64.1613
-1465.03
57.9969
-1028.94
88.9567
-359.836
41.6431
-272.979
36.1538
482.978
65.7167
1475.38
55.8001
1210.22
38.8881
1034.32
79.841
765.294
102.794
259.133
111.669
19.2713
124.531
18.4651
121.765
-20.8537
115.266
74.0906
100.04
235.338
74.6617
345.548
68.6858
353.104
94.8996
430.777
130.807
570.126
153.792
633.187
161.65
617.653
159.682
534.845
156.998
495.388
152.888
468.552
150.106
360.913
145.649
213.48
131.409
22.1783
125.117
-59.4627
100.164
-196.022
61.6819
-423.918
13.6772
-591.641
-17.2345
-501.258
7.92469
2610.13
27.0182
6666.08
19.7173
6446.37
5.32067
3867.58
-26.3883
168.35
-42.98
404.785
-35.596
1759.91
-19.9878
2519.79
-15.0028
1925.5
-27.6519
1655.36
-31.8672
2113.85
-76.6673
884.648
-94.8983
602.713
-87.7566
396.04
-81.6181
504.447
-42.8004
861.983
-25.0923
1098.46
-17.3452
811.809
-7.12214
450.818
-11.6884
-623.469
-4.25885
-1418.7
2.88084
-2044.56
11.1494
-2533.6
7.25499
-2892.56
-2983.51
-177.164
351.249
-164.513
331.894
-140.552
221.404
-121.282
53.8891
-126.584
-63.5676
-127.932
-47.5595
-104.015
-60.599
-50.3975
-301.541
-24.1064
-564.896
-23.0535
-722.403
-21.102
-666.146
-25.6129
-553.462
-28.2563
-455.835
-6.42842
-269.265
31.7444
449.24
21.5054
340.365
4.18078
288.822
28.1511
239.038
-1.10211
1063.31
18.9908
2624
44.6928
1415.95
72.1035
-842.111
68.0616
-1462.29
61.7078
-1024.75
86.3586
-390.608
41.0834
-239.295
37.2152
480.314
69.2781
1440.4
64.187
1212.16
52.8691
1038.2
93.8789
721.627
114.964
236.896
122.879
9.57662
132.415
5.86711
125.601
-17.2057
115.488
82.3735
100.794
250.172
80.8603
365.092
71.6087
364.991
88.7579
416.201
122.035
539.642
147.4
610.634
158.642
609.77
159.605
537.335
158.012
500.711
154.162
475.946
151.04
368.92
146.387
222.918
130.486
44.7921
124.402
-45.5874
99.9234
-165.19
60.9583
-380.185
11.8585
-537.464
-18.5182
-463.829
6.81174
2584.9
26.4862
6646.83
18.8049
6455.27
3.50644
3884.69
-27.3366
201.133
-40.7389
420.701
-31.3167
1757.09
-15.6614
2507.75
-12.0612
1922.73
-21.5302
1664.45
-24.4297
2117.01
-71.4204
931.578
-93.5944
625.05
-94.0189
396.93
-86.9572
494.053
-42.2658
816.886
-14.5919
1071.28
-3.80071
803.117
2.83105
444.52
-4.16264
-617.008
3.05219
-1425.41
8.30407
-2049.04
15.8952
-2539.49
14.8166
-2889.03
-2969.8
-179.45
349.189
-165.331
317.875
-142.085
198.76
-126.141
39.3472
-131.035
-57.8842
-127.699
-47.1648
-99.8503
-86.7345
-49.0506
-350.818
-25.1186
-584.044
-27.4661
-716.643
-26.5508
-663.897
-29.9907
-545.214
-32.6236
-447.464
-14.2161
-278.818
56.2728
421.322
27.5817
391.572
6.2424
326.026
32.9462
236.287
-6.89037
1107.01
16.3184
2602.89
47.098
1388.67
77.0416
-867.96
72.334
-1454.32
64.1505
-1011.4
83.6357
-398.912
38.4457
-187.732
37.6963
492.234
72.9397
1409.47
72.748
1215.59
66.287
1051.52
106.93
691.9
126.427
223.91
132.247
9.7258
137.467
5.53888
126.271
1.30839
113.523
99.5953
100.971
266.096
85.407
380.015
73.517
378.159
83.1251
406.212
113.122
508.199
139.921
582.161
154.228
593.756
158.132
530.673
157.98
498.624
154.716
475.872
151.488
367.476
146.655
220.572
129.881
51.6637
123.259
-47.341
99.1208
-145.99
59.8922
-345.366
9.4218
-490.886
-20.1537
-439.204
5.84053
2556.47
26.134
6625.54
18.0669
6462.5
1.61952
3900.2
-28.5185
222.501
-38.4529
421.13
-27.013
1744.32
-11.0971
2490.21
-8.77572
1919.42
-15.2468
1670.25
-15.5759
2116.62
-64.7287
979.002
-94.1529
652.766
-103.59
405.208
-91.6694
476.514
-41.0364
763.572
-6.10296
1034.75
5.41726
791.598
8.7112
443.345
2.82512
-608.869
10.7015
-1431.26
15.3199
-2052.03
21.5132
-2543.93
17.4734
-2881.67
-2958.71
-181.544
346.021
-166.25
302.125
-144.018
175.406
-130.638
24.2486
-133.868
-59.9764
-126.334
-59.3429
-96.0649
-121.801
-54.6988
-397.331
-32.6392
-612.997
-31.8842
-720.191
-32.0303
-666.655
-34.8628
-545.492
-37.8517
-448.382
-32.9137
-286.15
54.5084
328.371
29.5363
403.383
14.5039
319.5
35.0257
209.09
-13.5626
1154.79
13.3955
2575.4
49.6329
1349.44
81.979
-901.807
76.169
-1449.29
65.9599
-1002.63
79.6351
-417.191
36.0967
-156.567
38.0903
484.401
76.0295
1368.77
81.016
1207.8
80.6031
1044.63
120.79
649.846
139.264
204.394
143.546
3.5541
144.317
1.27586
129.266
13.753
113.49
114.315
102.313
277.771
89.4098
392.65
75.6969
394.233
79.1058
405.375
104.797
485.632
131.904
558.237
148.792
580.6
155.488
527.694
156.943
501.078
154.502
481.972
151.35
375.625
146.267
230.597
128.969
74.696
122.01
-32.6901
98.7234
-115.801
59.4495
-301.016
8.23983
-434.413
-21.0958
-402.653
4.97235
2530.33
25.9251
6604.97
17.5212
6472.21
-0.0585043
3919.82
-29.6555
253.707
-36.3452
430.375
-22.6596