/*--------------------------------*- C++ -*----------------------------------*\
| =========                 |                                                 |
| \\      /  F ield         | OpenFOAM: The Open Source CFD Toolbox           |
|  \\    /   O peration     | Version:  4.1                                   |
|   \\  /    A nd           | Web:      www.OpenFOAM.org                      |
|    \\/     M anipulation  |                                                 |
\*---------------------------------------------------------------------------*/
FoamFile
{
    version     2.0;
    format      ascii;
    class       volScalarField;
    location    "15";
    object      p;
}
// * * * * * * * * * * * * * * * * * * * * * * * * * * * * * * * * * * * * * //

dimensions      [0 2 -2 0 0 0 0];

internalField   nonuniform List<scalar> 
6785
(
593.789
515.663
468.905
415.711
369.118
324.176
282.261
242.516
204.892
169.292
135.032
101.896
74.1381
45.6293
4.01534
-11.2426
-29.4913
-19.5556
-26.9018
-26.2566
-28.7722
-29.3877
-29.8641
-29.3154
-27.8257
-25.3676
-21.9096
-16.5397
-11.5019
-9.79171
-8.0834
-13.6765
-5.60875
-11.4326
-8.93855
-11.48
-12.0964
-14.0161
-15.7534
-17.8929
-20.0742
-21.7951
-22.346
-22.7052
-22.0478
-6.92529
-10.4063
-7.89054
-13.5507
-12.4987
-16.2676
-17.3357
-19.6442
-21.2389
-22.8851
-24.0403
-24.6318
-23.4572
-22.348
-20.0133
-3.00745
-4.08322
-0.483728
-2.67846
1.13825
0.618394
2.98232
4.15091
6.00799
7.79469
9.82698
11.7308
14.091
15.6146
18.2574
21.8131
22.4455
25.8635
24.9034
28.4278
28.4929
30.7132
31.874
33.4096
34.8063
36.238
37.5497
39.0931
40.2138
41.8237
43.1455
44.0728
46.3545
45.5793
48.0257
47.7258
49.2071
49.4236
49.9915
50.2937
50.7742
51.491
52.4662
53.2172
54.1705
53.2403
53.7882
55.1718
54.5241
56.2853
55.9163
56.997
57.0237
57.4392
57.5062
57.4323
57.0581
56.4252
56.3565
56.0415
61.7067
59.7005
60.5083
58.5337
59.0441
57.3364
56.9268
55.0681
53.2454
50.5021
47.5828
44.821
43.1698
42.6051
39.8585
26.8701
21.7489
20.53
16.5202
14.8169
11.3355
9.30445
6.73841
5.2957
3.98588
3.33209
3.09396
3.1152
2.15433
-0.611484
-12.7741
-17.0317
-17.8498
-20.8144
-22.0381
-24.6369
-26.1133
-27.9771
-29.2984
-30.7827
-32.1953
-33.3711
-34.3831
-35.1247
-33.6803
-18.6724
-18.8844
-18.5195
-19.5405
-19.31
-20.1343
-20.3841
-21.0319
-21.4083
-21.7064
-21.5266
-20.8307
-19.1426
-17.4326
-14.4181
9.1359
10.664
11.6606
12.0631
13.0943
13.5036
14.2865
14.9948
15.9
16.9306
18.2173
19.5812
21.2781
22.6327
24.5386
22.7186
25.5041
25.7321
25.6637
25.8663
26.1797
26.9179
27.6053
28.3986
29.1178
29.7867
30.2962
30.7605
30.9939
31.2071
66.9871
65.8713
61.2576
53.9252
47.884
43.6937
39.3376
35.6692
32.8063
30.2034
27.9075
26.2759
24.9252
24.0474
22.156
40.7286
41.0598
41.2261
41.231
41.3019
41.4981
42.0162
41.8483
41.7722
41.6616
41.9201
41.4962
41.3539
41.5214
40.9342
40.8094
40.819
40.9837
40.0986
40.3987
40.5685
39.763
39.6655
40.1819
40.3169
39.5405
39.4954
40.1005
40.3789
39.5173
40.2434
40.4555
39.9074
39.9041
40.4528
40.6892
40.2087
40.6298
40.849
40.5997
40.5843
40.8188
40.9125
40.7455
40.6981
40.8061
40.7412
40.5645
40.6124
40.5223
40.4365
40.3854
40.423
40.4529
40.4289
40.3771
40.4436
40.5368
40.5447
40.4999
40.6159
40.5927
40.673
40.6064
40.8471
41.1697
41.6374
40.487
39.2231
40.6699
41.5731
34.8956
31.7029
35.4419
38.3305
15.9076
25.8001
31.9653
-11.0983
1.3048
7.6505
5.33498
9.45553
3.31603
5.08947
9.71907
9.95655
10.8592
11.5456
12.4048
13.2366
16.4502
19.4893
13.0481
15.0287
16.9745
19.3139
19.7281
20.7681
20.9399
22.8163
29.8384
22.7034
24.4374
24.1352
25.2062
27.2083
28.2188
28.23
28.3894
27.5745
34.0225
30.6748
31.5114
31.434
31.1593
32.0274
33.721
33.6533
30.2867
34.949
35.7969
37.5388
37.8243
36.941
36.1724
35.2746
36.9911
33.4867
37.3938
43.1752
40.2149
40.8612
40.8617
38.7401
37.0821
35.3893
28.8029
37.3835
41.9449
35.7117
32.8965
28.7681
25.4697
22.2337
19.8516
17.3392
12.4526
9.33203
18.1262
13.1225
12.4269
10.7042
8.35593
1.89259
-0.0992105
2.46805
-8.93713
6.2082
3.37771
2.15917
9.10958
3.09938
6.41191
5.35148
7.41006
10.4815
6.10794
8.68661
10.5997
7.65325
8.89283
8.14384
9.0588
10.9252
8.17136
9.19664
8.38019
9.23513
10.7765
7.83127
9.29992
10.4157
8.17604
8.93815
8.17315
8.819
10.0957
7.83428
8.5768
7.76824
8.44225
9.56585
7.09252
8.24272
9.05149
7.16664
7.74364
7.05402
7.5336
8.46843
6.6304
7.17389
6.49809
6.96801
7.75577
5.84192
6.65429
7.16872
5.73947
6.11391
5.57908
5.86371
6.40755
5.09274
5.4111
4.91104
5.15602
5.5208
4.26068
4.68793
4.82765
3.90007
4.03559
3.65116
3.71902
3.79919
2.99411
3.0461
2.68848
2.69203
2.60868
1.85973
1.90774
1.68752
1.06138
0.935127
0.510009
0.388186
0.358207
0.00108219
0.00174583
0.00284635
0.00358944
0.00446305
0.00522793
0.00602032
0.00676839
0.00750559
0.00820648
0.00887352
0.00949328
0.0100599
0.010565
0.0110039
0.0113739
0.0116764
0.0119167
0.0121048
0.0122555
0.0123871
0.0125192
0.012669
0.0128472
0.0130564
0.0132936
0.0135585
0.0138657
0.0142574
0.0148124
0.0156442
0.0168741
0.0185667
0.0206388
0.02287
0.0250453
0.0269404
0.0283203
0.0290513
0.0290426
0.028326
0.0270357
0.0253561
0.0234377
0.021279
0.0187066
0.0155106
0.0115532
0.00669186
0.000660893
-0.0071354
-0.0175565
-0.03038
-0.0435818
-0.0667616
-0.127423
-0.0450532
-0.559678
-0.455474
-0.588933
-0.709546
-0.770391
-0.833466
-0.838987
-0.769318
-0.670453
-0.498118
-0.32618
-0.134461
0.0397244
0.194521
0.306977
0.403978
0.427881
0.480236
0.466957
0.424249
0.561582
0.391154
0.00307631
0.00486208
0.00789742
0.00998802
0.0123676
0.0144604
0.016589
0.0185887
0.0205328
0.0223629
0.024079
0.025648
0.0270518
0.0282688
0.0292862
0.0300985
0.0307106
0.0311395
0.0314151
0.0315809
0.03169
0.031799
0.0319563
0.0321918
0.0325115
0.0329054
0.0333714
0.0339504
0.0347612
0.0360256
0.0380642
0.0412179
0.0456661
0.0511608
0.0570665
0.0627887
0.0677157
0.0712095
0.0729265
0.0726381
0.0704662
0.0668332
0.0623243
0.0574322
0.0521406
0.0457154
0.0369628
0.0246161
0.00758285
-0.0145897
-0.0417049
-0.0730158
-0.10543
-0.133736
-0.165895
-0.219278
-0.0756447
-0.741678
-0.649242
-0.943134
-1.22422
-1.41161
-1.57117
-1.60582
-1.48726
-1.30207
-0.969317
-0.631013
-0.264544
0.0759797
0.350821
0.578744
0.727926
0.825774
0.889255
0.929608
0.922269
1.02406
0.864457
0.00479878
0.00788308
0.0130757
0.0166436
0.0207176
0.0242982
0.027948
0.0313801
0.0347243
0.037879
0.0408464
0.0435698
0.0460189
0.048157
0.0499622
0.0514248
0.0525526
0.0533735
0.0539375
0.0543171
0.0546019
0.054887
0.0552546
0.055755
0.0563984
0.0571675
0.0580575
0.0591359
0.0606021
0.0628304
0.0663649
0.0717876
0.0794085
0.0888096
0.0989163
0.108724
0.117191
0.123234
0.126259
0.125868
0.122253
0.116117
0.108445
0.100089
0.0910816
0.0803244
0.0660439
0.0463898
0.0196947
-0.0149712
-0.0579081
-0.108787
-0.163924
-0.217783
-0.277665
-0.356256
-0.272048
-0.757526
-0.744879
-1.11287
-1.47852
-1.72631
-1.93409
-1.97843
-1.83199
-1.60219
-1.18721
-0.767927
-0.314993
0.105651
0.439125
0.720317
0.894918
1.01779
1.09635
1.13203
1.18004
1.20642
1.28852
0.00643004
0.0107745
0.0180073
0.0230176
0.0287055
0.0337146
0.0388078
0.0435982
0.04826
0.0526563
0.0567877
0.0605767
0.0639804
0.066948
0.0694489
0.0714697
0.0730213
0.0741429
0.0749043
0.0754071
0.075777
0.0761475
0.076634
0.0773068
0.078179
0.0792244
0.0804332
0.0818965
0.0838904
0.0869377
0.0918043
0.099316
0.109918
0.12302
0.137103
0.150769
0.162558
0.170963
0.175154
0.174572
0.16949
0.160894
0.150188
0.138587
0.126157
0.111361
0.0917134
0.0646301
0.0278001
-0.0200169
-0.079104
-0.148759
-0.22442
-0.301006
-0.379616
-0.463903
-0.561628
-0.830416
-0.931253
-1.3646
-1.83661
-2.15262
-2.4169
-2.47037
-2.2848
-1.99571
-1.47427
-0.950501
-0.385118
0.139081
0.552782
0.902194
1.1167
1.26564
1.36752
1.3928
1.48616
1.46634
1.68094
0.00790278
0.0135756
0.0228606
0.0293524
0.0366865
0.0431607
0.0497326
0.0559184
0.0619353
0.0676115
0.0729461
0.0778405
0.0822387
0.0860758
0.089312
0.0919299
0.0939431
0.0954018
0.0963957
0.0970555
0.0975438
0.0980335
0.0986741
0.0995567
0.100697
0.102057
0.10362
0.105497
0.108039
0.11192
0.118134
0.127771
0.141429
0.158338
0.176517
0.194174
0.209409
0.220287
0.225725
0.224992
0.218431
0.207314
0.193466
0.178474
0.162428
0.143345
0.118089
0.0834905
0.0367881
-0.0234551
-0.0976059
-0.184953
-0.280967
-0.382128
-0.484544
-0.598983
-0.915265
-0.824041
-1.13523
-1.6328
-2.22611
-2.62057
-2.94978
-3.01352
-2.78529
-2.43106
-1.79178
-1.15296
-0.464142
0.173848
0.67388
1.09915
1.35478
1.53706
1.65955
1.68302
1.81912
1.75358
2.13282
0.0092704
0.016294
0.0275731
0.0355511
0.0445093
0.0524416
0.0604755
0.0680439
0.0753995
0.0823402
0.0888608
0.0948431
0.100218
0.104905
0.108857
0.112051
0.114505
0.116278
0.117481
0.118274
0.118856
0.11944
0.120213
0.121284
0.122671
0.124324
0.126211
0.128463
0.131499
0.136144
0.143631
0.155329
0.172009
0.192716
0.214977
0.236619
0.255288
0.268626
0.275294
0.27438
0.266298
0.252606
0.235558
0.217124
0.197413
0.173974
0.143041
0.100917
0.0444712
-0.0278713
-0.116544
-0.220854
-0.336663
-0.462074
-0.58894
-0.738021
-1.18592
-0.721755
-1.35343
-1.89178
-2.6043
-3.07409
-3.4673
-3.53701
-3.26565
-2.84726
-2.09228
-1.34344
-0.535916
0.210185
0.791477
1.28879
1.58161
1.79568
1.93631
1.95643
2.13432
2.02133
2.45192
0.0105268
0.0189487
0.0321848
0.041669
0.0522494
0.0616518
0.0711531
0.0801133
0.088815
0.0970287
0.104744
0.111822
0.118181
0.123727
0.1284
0.132177
0.135075
0.137166
0.138578
0.139503
0.140178
0.140858
0.141764
0.143028
0.144669
0.146618
0.148828
0.15144
0.154941
0.160305
0.169015
0.182747
0.202473
0.227036
0.253448
0.279152
0.301326
0.317181
0.325116
0.324019
0.314365
0.297985
0.277575
0.255494
0.231868
0.203778
0.166875
0.117057
0.0509544
-0.0331023
-0.13571
-0.256431
-0.39198
-0.542086
-0.696634
-0.880183
-1.32191
-0.623888
-1.61744
-2.16668
-2.99707
-3.54215
-4.0009
-4.07173
-3.7537
-3.26799
-2.39336
-1.53346
-0.605645
0.248664
0.911261
1.4805
1.80981
2.05511
2.21272
2.22809
2.44453
2.28707
2.8089
0.0116906
0.021549
0.0366888
0.0476916
0.0598799
0.0707554
0.0817182
0.0920696
0.102114
0.111599
0.120505
0.128677
0.136017
0.142416
0.147807
0.152159
0.155493
0.157891
0.159501
0.160545
0.161299
0.162061
0.16309
0.164541
0.166429
0.168667
0.171185
0.174127
0.178043
0.184057
0.193915
0.20963
0.232408
0.260878
0.291492
0.321323
0.347053
0.365468
0.374686
0.373378
0.36206
0.342821
0.318803
0.292781
0.264913
0.231822
0.188649
0.131021
0.0554222
-0.0399458
-0.155999
-0.292783
-0.448144
-0.623233
-0.807926
-1.02549
-1.40858
-0.640334
-1.88266
-2.47043
-3.41152
-4.03431
-4.56201
-4.62863
-4.25931
-3.70146
-2.70083
-1.72663
-0.674833
0.289648
1.03468
1.67707
2.04225
2.31982
2.49238
2.50394
2.75505
2.55469
3.13319
0.0127676
0.0241064
0.0410991
0.0536355
0.0674203
0.079775
0.0921975
0.103943
0.115331
0.12609
0.13619
0.145459
0.153781
0.161035
0.167142
0.172068
0.175834
0.178534
0.180335
0.181487
0.182309
0.183144
0.18429
0.185925
0.188062
0.190587
0.193402
0.196648
0.20093
0.207522
0.218446
0.236094
0.261948
0.294399
0.329296
0.363347
0.392713
0.413753
0.424283
0.422723
0.409596
0.387221
0.359206
0.32879
0.296198
0.257619
0.207798
0.14224
0.0573357
-0.0489515
-0.178061
-0.330781
-0.506325
-0.707185
-0.924939
-1.1785
-1.50975
-0.878062
-2.13701
-2.81573
-3.84585
-4.54874
-5.14894
-5.2042
-4.77858
-4.14352
-3.01088
-1.92017
-0.741752
0.333535
1.16102
1.87682
2.27635
2.58701
2.77176
2.78067
3.06215
2.82352
3.41016
0.0137676
0.0266287
0.0454197
0.0595026
0.0748686
0.0887064
0.102584
0.115726
0.128456
0.14049
0.151784
0.16215
0.171454
0.179562
0.186382
0.191878
0.19607
0.199062
0.201041
0.202289
0.203165
0.204059
0.205312
0.207128
0.209511
0.212319
0.215418
0.218937
0.223525
0.230609
0.242504
0.262026
0.29098
0.327497
0.366766
0.405143
0.438231
0.461965
0.473822
0.471923
0.456742
0.43081
0.398248
0.362839
0.324925
0.280322
0.223525
0.150052
0.0561576
-0.0606117
-0.202443
-0.371114
-0.567403
-0.795147
-1.04839
-1.34042
-1.66261
-1.35157
-2.37685
-3.21442
-4.30306
-5.08964
-5.76686
-5.80163
-5.31373
-4.59529
-3.32375
-2.11403
-0.806068
0.380599
1.29052
2.07988
2.51213
2.85668
3.05057
3.05817
3.36576
3.08978
3.73558
0.0146971
0.0291235
0.0496584
0.0653007
0.0822324
0.0975575
0.112886
0.127425
0.141498
0.15481
0.167299
0.178763
0.18905
0.198011
0.205544
0.211605
0.216218
0.219493
0.221639
0.222967
0.223881
0.22482
0.226173
0.228164
0.230796
0.233885
0.237256
0.241013
0.245845
0.253325
0.266081
0.28741
0.319499
0.360186
0.403932
0.446761
0.483673
0.510174
0.523348
0.520939
0.503316
0.473224
0.435395
0.394258
0.350346
0.299201
0.235231
0.154014
0.0515409
-0.0752704
-0.229567
-0.414357
-0.632162
-0.888288
-1.17928
-1.5136
-1.87656
-1.9526
-2.52815
-3.66031
-4.78752
-5.66285
-6.42326
-6.42597
-5.86866
-5.05929
-3.64069
-2.30878
-0.86773
0.431152
1.42377
2.28687
2.75007
3.12962
3.32918
3.33734
3.66645
3.35268
4.03667
0.0155626
0.0315968
0.0538206
0.0710343
0.0895144
0.10633
0.123104
0.139042
0.154457
0.169047
0.182733
0.195297
0.206568
0.216383
0.224625
0.231247
0.236273
0.239822
0.24212
0.243512
0.244446
0.245415
0.246855
0.24902
0.251899
0.25527
0.258899
0.26286
0.267866
0.275633
0.289123
0.312182
0.347449
0.392422
0.440769
0.488192
0.529036
0.558363
0.572774
0.569545
0.54889
0.513843
0.469889
0.422218
0.371652
0.313598
0.242481
0.153886
0.0433424
-0.0930598
-0.25962
-0.460793
-0.701031
-0.987295
-1.31829
-1.69936
-2.1297
-2.46229
-2.5711
-4.16326
-5.30389
-6.27332
-7.12541
-7.08155
-6.44637
-5.53702
-3.9621
-2.50433
-0.926328
0.485617
1.56098
2.49798
2.99026
3.40597
3.60733
3.61848
3.96367
3.61966
4.29168
0.0163695
0.0340539
0.0579123
0.0767088
0.0967195
0.115029
0.133242
0.150581
0.167337
0.183208
0.198091
0.211758
0.224014
0.234681
0.243631
0.25081
0.256241
0.260052
0.262488
0.263926
0.26486
0.265842
0.267358
0.269692
0.272822
0.276474
0.280351
0.284478
0.289582
0.297515
0.311596
0.336296
0.374791
0.42419
0.477276
0.52945
0.574332
0.606495
0.621932
0.61736
0.592861
0.551907
0.500909
0.445933
0.388217
0.323138
0.245143
0.149688
0.0316396
-0.11392
-0.292611
-0.510528
-0.774237
-1.09257
-1.46604
-1.89835
-2.40135
-2.81073
-2.63647
-4.75595
-5.85987
-6.92562
-7.88166
-7.77341
-7.05022
-6.03016
-4.28843
-2.7009
-0.981548
0.544374
1.70296
2.71348
3.23269
3.6858
3.88481
3.90168
4.25769
3.88075
4.60233
0.0171227
0.0364994
0.0619386
0.0823286
0.103851
0.123656
0.143302
0.162043
0.180139
0.197293
0.213376
0.228148
0.241389
0.25291
0.262565
0.270296
0.276124
0.280185
0.282742
0.284205
0.285119
0.286093
0.287673
0.290172
0.293557
0.297493
0.301607
0.305863
0.310983
0.318947
0.333451
0.359693
0.401477
0.455457
0.513438
0.57053
0.619519
0.654416
0.670452
0.663747
0.634386
0.586513
0.527629
0.464764
0.399677
0.327748
0.243361
0.141677
0.0167162
-0.137596
-0.32834
-0.563437
-0.851733
-1.20415
-1.6229
-2.11161
-2.69088
-3.12613
-2.85918
-5.39273
-6.46756
-7.62298
-8.70166
-8.50771
-7.68438
-6.54074
-4.62058
-2.89898
-1.03311
0.607739
1.85092
2.93377
3.47746
3.96942
4.16134
4.18728
4.54833
4.14368
4.8576
0.0178263
0.0389371
0.0659042
0.0878978
0.110913
0.132215
0.153288
0.173431
0.192867
0.211305
0.228591
0.244469
0.258699
0.271072
0.28143
0.289708
0.295924
0.300223
0.302883
0.30435
0.305218
0.306163
0.307793
0.310455
0.314099
0.318325
0.322667
0.327013
0.332062
0.339906
0.354645
0.382311
0.427459
0.486197
0.549244
0.611404
0.66448
0.701797
0.717699
0.707799
0.672451
0.616754
0.549404
0.478385
0.40603
0.32768
0.237536
0.13031
-0.000975134
-0.163675
-0.366462
-0.619235
-0.933283
-1.32185
-1.78894
-2.33998
-3.00064
-3.46301
-3.34168
-6.02265
-7.1397
-8.36813
-9.59649
-9.29165
-8.35372
-7.07095
-4.9595
-3.09867
-1.08059
0.67618
2.00541
3.15895
3.72652
4.25651
4.43701
4.4755
4.83545
4.40381
5.12129
0.0184838
0.0413705
0.0698135
0.0934201
0.117908
0.140709
0.163201
0.184747
0.205521
0.225247
0.243737
0.260726
0.275944
0.28917
0.300229
0.309048
0.315644
0.320167
0.322911
0.324356
0.325153
0.326045
0.32771
0.330532
0.334444
0.338967
0.343531
0.347929
0.352813
0.360371
0.375127
0.404087
0.452685
0.516378
0.584661
0.65198
0.708933
0.748035
0.762714
0.748347
0.705969
0.641894
0.565923
0.486847
0.407603
0.323439
0.228254
0.116191
-0.020857
-0.19163
-0.406498
-0.677482
-1.01846
-1.4452
-1.96389
-2.58326
-3.3294
-3.84416
-4.08551
-6.62762
-7.89302
-9.16432
-10.5784
-10.1336
-9.06397
-7.62328
-5.30576
-3.29989
-1.12353
0.750193
2.16681
3.38919
3.9817
4.54705
4.71131
4.76645
5.11921
4.66025
5.39457
0.0190982
0.0438024
0.0736705
0.098899
0.124839
0.149139
0.173044
0.195992
0.218104
0.23912
0.258817
0.276919
0.293129
0.307208
0.318966
0.32832
0.335287
0.340018
0.342825
0.344224
0.344919
0.345733
0.347415
0.350397
0.354586
0.359416
0.364199
0.368611
0.373233
0.380321
0.394846
0.424948
0.4771
0.545959
0.619618
0.692039
0.752337
0.792166
0.804199
0.784071
0.734005
0.661586
0.577308
0.490557
0.404981
0.315702
0.216222
0.100011
-0.0422772
-0.220858
-0.447886
-0.737629
-1.10669
-1.57358
-2.1471
-2.84024
-3.67457
-4.28514
-5.07254
-7.18165
-8.73776
-10.0146
-11.6605
-11.0428
-9.82183
-8.20079
-5.66001
-3.50258
-1.16151
0.830282
2.33562
3.62477
4.24304
4.84075
4.98421
5.06089
5.39948
4.92174
5.63412
0.0196721
0.0462354
0.0774788
0.104337
0.13171
0.157508
0.182817
0.207168
0.230618
0.252926
0.273833
0.293052
0.310256
0.325189
0.337642
0.347527
0.354853
0.359778
0.362627
0.36395
0.364513
0.365218
0.366901
0.370039
0.374518
0.379671
0.384672
0.389065
0.393322
0.399737
0.413748
0.444819
0.500643
0.574875
0.653952
0.731132
0.793792
0.832838
0.840596
0.813723
0.756045
0.675983
0.584063
0.490165
0.398896
0.305233
0.202199
0.0824984
-0.0645508
-0.250712
-0.489995
-0.799026
-1.19727
-1.70612
-2.3375
-3.10873
-4.0331
-4.78278
-6.15282
-7.59077
-9.65622
-10.9238
-12.8564
-12.0295
-10.6349
-8.80724
-6.02312
-3.70675
-1.19408
0.916971
2.51231
3.86598
4.51062
5.13654
5.2594
5.35775
5.67625
5.17839
5.88739
0.0202074
0.0486718
0.0812414
0.109738
0.138522
0.165818
0.192523
0.218277
0.243063
0.266667
0.288787
0.309127
0.327327
0.343114
0.356261
0.36667
0.374346
0.379448
0.382315
0.383532
0.383927
0.384493
0.386157
0.389452
0.394236
0.399729
0.404955
0.409294
0.413084
0.418602
0.431773
0.463615
0.523238
0.602999
0.687319
0.768478
0.831978
0.868326
0.870299
0.836489
0.772193
0.685707
0.586949
0.486448
0.390135
0.292815
0.186944
0.0643738
-0.086992
-0.280525
-0.532146
-0.860943
-1.28935
-1.8418
-2.53366
-3.38601
-4.40174
-5.31031
-7.04929
-7.84546
-10.6474
-11.8952
-14.1811
-13.1046
-11.5118
-9.44681
-6.39608
-3.91235
-1.22076
1.01081
2.69732
4.11308
4.78472
5.43402
5.54011
5.65526
5.94969
5.4291
6.15694
0.0207058
0.0511136
0.0849613
0.115103
0.145278
0.174071
0.202164
0.22932
0.25544
0.280343
0.30368
0.325146
0.344345
0.360988
0.374826
0.385753
0.393768
0.39903
0.40189
0.402967
0.403158
0.403549
0.405172
0.408623
0.413732
0.419589
0.425049
0.429309
0.432524
0.436902
0.448859
0.481241
0.544775
0.630077
0.719091
0.80289
0.865145
0.896702
0.892077
0.852296
0.78315
0.691672
0.586825
0.48019
0.379461
0.279188
0.171171
0.0463251
-0.108928
-0.309618
-0.573619
-0.922588
-1.38201
-1.97944
-2.73381
-3.669
-4.77717
-5.84337
-7.67765
-8.09929
-11.7003
-12.9297
-15.6513
-14.2796
-12.4619
-10.1242
-6.78002
-4.11934
-1.24107
1.11236
2.89108
4.36638
5.06544
5.73311
5.82628
5.95373
6.21977
5.68859
6.39653
0.0211686
0.0535628
0.088641
0.120434
0.151979
0.182266
0.211739
0.240296
0.267751
0.293955
0.318514
0.341109
0.361312
0.378811
0.393338
0.404778
0.413121
0.418525
0.421351
0.422254
0.422197
0.422375
0.423935
0.427543
0.433
0.439251
0.44496
0.449119
0.451654
0.454625
0.464938
0.497577
0.565063
0.655633
0.74828
0.832745
0.89117
0.916259
0.905538
0.861859
0.79
0.694881
0.58452
0.47211
0.367557
0.265019
0.155533
0.0289979
-0.129701
-0.337298
-0.613666
-0.983134
-1.47428
-2.11775
-2.936
-3.95467
-5.15719
-6.37727
-8.18659
-8.53691
-12.7145
-14.047
-17.2861
-15.5667
-13.4954
-10.8444
-7.17641
-4.32768
-1.25453
1.2222
3.09401
4.62615
5.35283
6.03361
6.11766
6.25382
6.48596
5.9371
6.65442
0.0215967
0.0560208
0.0922826
0.125734
0.158627
0.190406
0.221249
0.251206
0.279995
0.307504
0.333289
0.35702
0.37823
0.396586
0.4118
0.423746
0.432406
0.437934
0.440699
0.441389
0.441041
0.440963
0.442433
0.446201
0.452032
0.458712
0.464694
0.468738
0.470493
0.471764
0.479929
0.512458
0.583756
0.678892
0.773526
0.85595
0.907899
0.926146
0.911321
0.866433
0.793936
0.696284
0.580758
0.462806
0.354998
0.250881
0.140616
0.0130008
-0.148661
-0.362869
-0.651544
-1.04179
-1.56526
-2.25553
-3.13841
-4.24055
-5.54043
-6.91104
-8.67187
-9.35625
-13.6792
-15.2886
-19.1052
-16.9779
-14.6235
-11.6126
-7.58712
-4.53732
-1.2606
1.34091
3.30651
4.89266
5.64687
6.3353
6.41409
6.55592
6.7484
6.18821
6.90819
0.0219907
0.0584892
0.0958878
0.131003
0.165223
0.198491
0.230695
0.26205
0.292173
0.320991
0.348006
0.372879
0.3951
0.414316
0.430214
0.44266
0.451626
0.457259
0.459934
0.460369
0.45968
0.459301
0.460653
0.464583
0.47082
0.47797
0.484257
0.488185
0.489064
0.488314
0.493732
0.52562
0.600273
0.698804
0.793032
0.870066
0.913876
0.926785
0.910837
0.86744
0.796073
0.696686
0.576109
0.45273
0.342237
0.237258
0.126949
-0.00108256
-0.165168
-0.385656
-0.686583
-1.09791
-1.65427
-2.3919
-3.33972
-4.52517
-5.9261
-7.44566
-9.22085
-10.6171
-14.5202
-16.6605
-21.1289
-18.5252
-15.8576
-12.4342
-8.01444
-4.74826
-1.25877
1.4691
3.52894
5.16618
5.94747
6.63794
6.71522
6.85895
7.00864
6.43775
7.14413
0.0223507
0.0609694
0.0994583
0.136243
0.171767
0.206521
0.240076
0.272828
0.304284
0.334414
0.362666
0.388687
0.411925
0.432001
0.448582
0.461522
0.470782
0.476501
0.479055
0.479192
0.478109
0.477376
0.478579
0.482675
0.489356
0.497026
0.503659
0.507479
0.507399
0.504268
0.506191
0.536625
0.613837
0.714077
0.804411
0.872958
0.909094
0.919706
0.905781
0.8662
0.797341
0.696719
0.570975
0.442188
0.329613
0.224557
0.115021
-0.0126869
-0.178611
-0.405074
-0.718313
-1.1512
-1.74111
-2.52663
-3.53965
-4.80865
-6.31495
-7.98658
-9.8704
-12.021
-15.0622
-18.1497
-23.391
-20.2215
-17.2099
-13.3147
-8.461
-4.96054
-1.24849
1.60734
3.76168
5.44693
6.25446
6.94131
7.02066
7.16194
7.26806
6.68896
7.4108
0.0226768
0.0634627
0.102995
0.141454
0.178262
0.214496
0.249392
0.283539
0.316327
0.347774
0.377268
0.404445
0.428704
0.449643
0.466906
0.480333
0.489876
0.495662
0.498062
0.497855
0.496319
0.495176
0.496195
0.500463
0.50763
0.515878
0.522907
0.526645
0.525534
0.519601
0.517034
0.544862
0.623659
0.722874
0.804967
0.863881
0.895071
0.906918
0.897728
0.863793
0.798462
0.696839
0.565598
0.431343
0.317362
0.213127
0.105296
-0.0212768
-0.188462
-0.420743
-0.746647
-1.20193
-1.82633
-2.6605
-3.73926
-5.09282
-6.70957
-8.54012
-10.5891
-13.1071
-15.4559
-19.7619
-25.9223
-22.0822
-18.6932
-14.2595
-8.92919
-5.17426
-1.22921
1.75623
4.00503
5.73509
6.56762
7.24516
7.32984
7.4651
7.52619
6.95666
7.64776
0.0229687
0.0659703
0.1065
0.146637
0.184705
0.222415
0.258643
0.294182
0.328301
0.361069
0.391813
0.420152
0.445439
0.467244
0.485186
0.499095
0.508909
0.514742
0.516956
0.516354
0.514303
0.512686
0.513483
0.517929
0.525632
0.534524
0.542013
0.54571
0.543503
0.53422
0.52579
0.549818
0.628844
0.722462
0.792886
0.844054
0.874147
0.890319
0.887943
0.861037
0.799966
0.69735
0.560074
0.420233
0.305642
0.203274
0.0982008
-0.0263893
-0.194385
-0.432677
-0.772129
-1.2512
-1.91154
-2.79556
-3.94108
-5.38105
-7.11437
-9.11457
-11.3621
-13.9649
-15.9851
-21.3759
-28.759
-24.1261
-20.3207
-15.2743
-9.42055
-5.38961
-1.20036
1.91634
4.2593
6.03082
6.88667
7.5492
7.64207
7.76818
7.78215
7.22505
7.87444
0.0232257
0.0684933
0.109972
0.151792
0.191099
0.230277
0.267826
0.304754
0.340204
0.374298
0.406299
0.435811
0.462132
0.484805
0.503423
0.517809
0.527884
0.533743
0.535736
0.534688
0.532052
0.529892
0.530424
0.535054
0.54335
0.552964
0.560986
0.564694
0.561308
0.547844
0.531935
0.551484
0.627608
0.709909
0.76854
0.81608
0.848624
0.871412
0.877359
0.858522
0.802235
0.698441
0.554377
0.408788
0.29454
0.195263
0.0941072
-0.0277187
-0.196405
-0.441528
-0.796196
-1.30122
-1.99956
-2.93505
-4.14874
-5.67762
-7.53472
-9.7196
-12.1917
-14.811
-17.0818
-23.0375
-32.0214
-26.3747
-22.1048
-16.3638
-9.93581
-5.60688
-1.16141
2.08824
4.52475
6.33421
7.21125
7.85311
7.95653
8.07064
8.03718
7.49002
8.13692
0.023447
0.0710328
0.113413
0.15692
0.197441
0.238082
0.276941
0.315255
0.352036
0.38746
0.420726
0.451418
0.478781
0.502325
0.521619
0.536475
0.5468
0.552667
0.554404
0.552852
0.549557
0.546777
0.546996
0.55182
0.560773
0.571195
0.579832
0.583601
0.578819
0.559874
0.535465
0.549702
0.616676
0.684012
0.734495
0.782753
0.82031
0.851272
0.86662
0.856666
0.805553
0.700213
0.548368
0.396837
0.284078
0.189308
0.0932684
-0.0252573
-0.195142
-0.448852
-0.821412
-1.35539
-2.09427
-3.08296
-4.36629
-5.98693
-7.97592
-10.3622
-13.0786
-15.8113
-19.1231
-24.8941
-35.8754
-28.8521
-24.0558
-17.5312
-10.4751
-5.82626
-1.11181
2.27247
4.80161
6.64531
7.54095
8.15647
8.27232
8.37184
8.29326
7.77514
8.36748
0.0236316
0.0735898
0.116822
0.16202
0.203732
0.245828
0.285985
0.325681
0.363792
0.400553
0.435093
0.466976
0.495388
0.519806
0.539774
0.555095
0.56566
0.571514
0.572959
0.570844
0.566808
0.563324
0.563176
0.568204
0.577885
0.589212
0.598545
0.602363
0.595548
0.569646
0.537195
0.542314
0.59245
0.646441
0.694223
0.746234
0.79046
0.830616
0.856169
0.855792
0.810157
0.702714
0.541809
0.384107
0.27421
0.185539
0.0957205
-0.0195028
-0.192084
-0.457348
-0.851574
-1.41817
-2.20008
-3.24324
-4.59739
-6.31274
-8.44225
-11.0468
-14.0279
-17.0915
-22.0719
-26.7882
-40.3185
-31.5876
-26.1806
-18.7776
-11.0382
-6.04767
-1.05099
2.46956
5.09004
6.96408
7.87529
8.45879
8.58844
8.67061
8.5507
8.04788
8.60111
0.0237781
0.0761653
0.1202
0.167091
0.20997
0.253513
0.294956
0.336029
0.37547
0.413573
0.449397
0.482482
0.511951
0.537248
0.557888
0.573668
0.584463
0.590286
0.591403
0.588662
0.583796
0.579513
0.578937
0.584182
0.594671
0.607003
0.617086
0.620673
0.610484
0.577309
0.537778
0.526842
0.55551
0.600475
0.650299
0.708049
0.759891
0.809905
0.846335
0.856186
0.816282
0.705961
0.534367
0.370226
0.264816
0.183956
0.101126
-0.0117185
-0.189836
-0.470979
-0.89157
-1.49444
-2.32102
-3.41899
-4.84469
-6.6576
-8.93642
-11.7765
-15.0482
-18.6511
-25.0488
-28.5811
-45.4216
-34.6004
-28.483
-20.1035
-11.6245
-6.27051
-0.978248
2.68003
5.39017
7.29046
8.21373
8.75941
8.90382
8.96587
8.81076
8.33091
8.84247
0.0238849
0.0787601
0.123545
0.172132
0.216153
0.261134
0.303851
0.346297
0.387067
0.426517
0.463635
0.497934
0.528471
0.554649
0.57596
0.592194
0.603211
0.608985
0.609736
0.606303
0.600511
0.595323
0.594253
0.599728
0.611109
0.624536
0.635302
0.637682
0.622612
0.583762
0.533609
0.492813
0.506455
0.550268
0.60481
0.668909
0.729128
0.789466
0.837411
0.858154
0.824198
0.709964
0.525609
0.354722
0.255691
0.18434
0.108557
-0.00419103
-0.192268
-0.494887
-0.946787
-1.58851
-2.45984
-3.61191
-5.10944
-7.02252
-9.45923
-12.5518
-16.1405
-20.4344
-27.8208
-30.5523
-51.1085
-37.8568
-30.9643
-21.5091
-12.2331
-6.49329
-0.892676
2.90445
5.70207
7.62432
8.55566
9.05749
9.21733
9.25655
9.07394
8.60836
9.06045
0.0239504
0.0813754
0.126858
0.177143
0.222281
0.268689
0.312667
0.356479
0.398578
0.439383
0.477806
0.513332
0.544946
0.572009
0.593988
0.610672
0.621903
0.627612
0.627959
0.623765
0.616942
0.610734
0.609092
0.614808
0.627163
0.641734
0.652699
0.651929
0.631821
0.58794
0.516636
0.438494
0.452216
0.49444
0.558618
0.629339
0.698438
0.769572
0.829718
0.862063
0.834252
0.714738
0.515007
0.337033
0.246526
0.186112
0.116247
-0.000409498
-0.204515
-0.534903
-1.02199
-1.70301
-2.61746
-3.82206
-5.39127
-7.40679
-10.0094
-13.3711
-17.305
-22.4241
-30.6564
-33.3175
-57.1303
-41.392
-33.6208
-22.9941
-12.8623
-6.71341
-0.792952
3.14349
6.02576
7.96544
8.90037
9.352
9.52778
9.54153
9.34111
8.87913
9.32141
0.0239725
0.0840117
0.130138
0.182123
0.228351
0.276175
0.321399
0.366572
0.409999
0.452165
0.491906
0.528673
0.561375
0.589327
0.611973
0.629101
0.640539
0.646167
0.646076
0.641046
0.63308
0.625721
0.623419
0.629382
0.642778
0.658366
0.668123
0.662068
0.6392
0.589741
0.478133
0.377566
0.397505
0.436236
0.512462
0.589561
0.668139
0.750517
0.823637
0.868379
0.846893
0.720328
0.50194
0.316519
0.23686
0.188149
0.121405
-0.00515095
-0.232686
-0.596425
-1.12001
-1.83831
-2.79288
-4.04783
-5.68808
-7.80767
-10.5831
-14.2296
-18.538
-24.6129
-33.6408
-37.1466
-63.6678
-45.2582
-36.4473
-24.5566
-13.5086
-6.92708
-0.677222
3.39801
6.36125
8.3136
9.24706
9.64167
9.83394
9.82001
9.61308
9.1693
9.55005
0.023949
0.0866702
0.133384
0.187069
0.23436
0.283588
0.330045
0.376571
0.421324
0.464858
0.505931
0.543955
0.577756
0.606601
0.62991
0.647478
0.659118
0.664653
0.664086
0.658147
0.648914
0.640258
0.637192
0.643394
0.657836
0.673795
0.67995
0.668253
0.645487
0.579144
0.424146
0.315935
0.340384
0.377145
0.46656
0.549903
0.638567
0.732683
0.819649
0.877693
0.862707
0.726824
0.485707
0.292476
0.225986
0.188622
0.120093
-0.0244573
-0.282905
-0.682856
-1.24094
-1.99248
-2.98332
-4.28591
-5.99581
-8.22003
-11.1736
-15.1186
-19.831
-26.9839
-36.8185
-42.1706
-70.6708
-49.4639
-39.4275
-26.1895
-14.1666
-7.12952
-0.543003
3.66916
6.70858
8.6685
9.59477
9.92498
10.1345
10.0911
9.88984
9.44627
9.77472
0.0238774
0.0893515
0.136593
0.191979
0.240306
0.290925
0.338597
0.386469
0.432548
0.477457
0.519876
0.559174
0.594087
0.623828
0.647798
0.665801
0.677639
0.683069
0.681994
0.675067
0.664432
0.654313
0.650355
0.656761
0.67203
0.686761
0.68759
0.673822
0.650996
0.545318
0.36912
0.250203
0.281203
0.31775
0.421029
0.510802
0.61014
0.716524
0.818343
0.890748
0.882459
0.734387
0.46554
0.264128
0.212882
0.184952
0.106993
-0.0651208
-0.359563
-0.794391
-1.38211
-2.16171
-3.18442
-4.53117
-6.30809
-8.63575
-11.77
-16.024
-21.1693
-29.5112
-40.1972
-48.4105
-77.9986
-53.9825
-42.5291
-27.8786
-14.8288
-7.31524
-0.387133
3.95857
7.06789
9.02986
9.94236
10.2002
10.4282
10.3542
10.172
9.71225
10.0453
0.0237553
0.0920565
0.139766
0.196853
0.246186
0.29818
0.347053
0.396261
0.443664
0.489956
0.533737
0.574326
0.610365
0.641006
0.665632
0.684065
0.696098
0.701418
0.699802
0.691805
0.679621
0.667848
0.662837
0.669326
0.684641
0.696007
0.693181
0.684185
0.642191
0.504312
0.312652
0.180487
0.220683
0.258959
0.376356
0.472657
0.583297
0.702574
0.820427
0.908464
0.907131
0.743278
0.440597
0.230602
0.196333
0.17357
0.0751613
-0.133019
-0.463515
-0.927889