/*--------------------------------*- C++ -*----------------------------------*\
| =========                 |                                                 |
| \\      /  F ield         | OpenFOAM: The Open Source CFD Toolbox           |
|  \\    /   O peration     | Version:  4.1                                   |
|   \\  /    A nd           | Web:      www.OpenFOAM.org                      |
|    \\/     M anipulation  |                                                 |
\*---------------------------------------------------------------------------*/
FoamFile
{
    version     2.0;
    format      ascii;
    class       volVectorField;
    location    "15";
    object      U;
}
// * * * * * * * * * * * * * * * * * * * * * * * * * * * * * * * * * * * * * //

dimensions      [0 1 -1 0 0 0 0];

internalField   nonuniform List<vector> 
6785
(
(1.37875e-14 -2.28813 16.4271)
(1.11749e-14 -7.90511 12.919)
(-3.02321e-15 -5.12235 13.7191)
(4.21093e-15 -5.06929 13.2261)
(8.7812e-16 -4.27514 13.0843)
(-1.83731e-16 -3.84833 12.7931)
(2.54217e-15 -3.41942 12.508)
(6.22331e-16 -3.11372 12.1969)
(-7.07179e-16 -2.90646 11.9059)
(1.50229e-15 -2.84262 11.654)
(2.97796e-16 -2.88664 11.4657)
(-3.54035e-16 -3.01464 11.2714)
(8.8888e-16 -3.56112 10.6538)
(-2.85292e-17 -3.71501 9.47462)
(-4.10681e-16 -0.0847953 7.64446)
(2.07087e-14 -10.322 26.817)
(1.26324e-14 -16.1745 23.3101)
(-2.57262e-15 -11.1567 23.6478)
(4.21446e-15 -11.8513 21.8657)
(6.6515e-16 -10.1155 21.043)
(7.58408e-16 -9.4433 19.8571)
(1.70531e-15 -8.43626 18.8393)
(5.95835e-17 -7.63592 17.8016)
(-1.53258e-16 -6.8126 16.7693)
(4.4222e-16 -5.96069 15.547)
(-3.91138e-16 -4.91805 13.8672)
(-5.42837e-16 -3.69025 11.4455)
(-2.03787e-16 -2.61091 8.17839)
(-5.9208e-16 -1.79558 4.71438)
(-7.97786e-16 -0.729497 1.76581)
(2.24019e-14 -13.1171 28.7055)
(1.06668e-14 -17.0332 25.5544)
(-1.51867e-15 -12.2982 25.5498)
(4.05421e-15 -13.3601 23.0821)
(4.18538e-16 -11.2047 22.1117)
(1.30427e-15 -10.811 20.4153)
(1.34777e-15 -9.68941 19.1687)
(-2.42632e-16 -9.03196 17.8309)
(3.55909e-16 -8.22187 16.5555)
(5.05379e-16 -7.28398 14.8224)
(-5.01771e-16 -5.50484 11.7078)
(1.78787e-15 -2.1081 5.58404)
(3.86781e-15 2.36126 -2.68973)
(-1.09835e-15 3.99503 -5.42009)
(-4.16412e-15 2.49803 -4.46164)
(2.21875e-14 -13.8965 28.3567)
(1.12711e-14 -17.561 26.2607)
(-1.23059e-15 -13.0578 25.6188)
(4.12817e-15 -14.459 22.7912)
(9.96493e-16 -12.116 21.8518)
(1.25388e-15 -12.0619 19.8394)
(1.56349e-15 -10.9061 18.4996)
(6.84697e-16 -10.3644 16.9626)
(3.29447e-16 -9.64145 15.5705)
(8.54809e-16 -8.89754 13.9483)
(8.34932e-16 -7.72188 11.6486)
(7.17753e-16 -5.50478 7.94284)
(1.7798e-15 -2.95992 3.63312)
(4.74299e-15 0.526008 0.210701)
(-5.7079e-15 2.1493 -5.90642)
(2.08318e-14 -13.6066 26.6574)
(1.27274e-14 -17.5345 26.7432)
(-6.77587e-16 -13.3098 25.1421)
(3.44477e-15 -14.2323 22.2036)
(1.44845e-15 -12.0829 21.1368)
(9.03508e-16 -11.8996 19.0487)
(1.39695e-15 -10.7316 17.5694)
(8.16394e-16 -10.0419 15.8773)
(-5.67081e-17 -9.22816 14.3232)
(2.66367e-16 -8.43146 12.7381)
(1.79681e-16 -7.53624 10.9465)
(-6.65304e-16 -6.15892 8.71409)
(-8.78234e-16 -4.51488 5.82006)
(-1.41143e-15 -1.67726 2.43174)
(-2.49203e-15 0.447255 -3.08283)
(2.00661e-14 -12.9304 24.6688)
(1.43311e-14 -17.0184 26.5833)
(7.1283e-16 -13.2486 24.4216)
(2.56703e-15 -13.5813 21.4042)
(1.93098e-15 -11.7134 20.2104)
(1.68266e-15 -11.3595 18.1782)
(1.90135e-15 -10.2646 16.6471)
(1.29815e-15 -9.52501 15.0081)
(8.07953e-16 -8.74143 13.5214)
(2.80657e-16 -7.9789 12.0974)
(3.31323e-16 -7.23254 10.6365)
(6.72808e-16 -6.28434 9.1069)
(-3.2249e-16 -5.20301 7.19895)
(-5.05403e-16 -3.31433 4.83656)
(4.47915e-15 -0.960644 0.0123158)
(2.16241e-14 -12.3849 23.5233)
(1.57498e-14 -16.2967 25.8416)
(2.59817e-15 -12.8765 23.6597)
(2.30302e-15 -12.9898 20.5583)
(2.70169e-15 -11.1146 19.3547)
(4.36171e-15 -10.8003 17.2845)
(2.51356e-15 -9.70246 15.8891)
(2.1243e-15 -9.1576 14.35)
(4.34558e-15 -8.51039 12.9719)
(2.02536e-15 -7.94553 11.6391)
(1.06541e-15 -7.41163 10.4652)
(3.40635e-15 -6.87159 9.56179)
(1.91808e-15 -6.29262 8.76864)
(-1.87777e-15 -5.19654 7.69583)
(5.53275e-15 -2.87343 3.96632)
(2.08188e-14 -12.4107 23.3842)
(1.39863e-14 -15.316 24.8661)
(1.80985e-15 -12.3254 22.847)
(2.5661e-15 -12.2257 19.9726)
(2.59753e-15 -10.2574 18.7355)
(3.16144e-15 -9.69647 16.4447)
(2.18795e-15 -8.05801 14.5113)
(2.28164e-15 -7.15066 12.1701)
(2.43119e-15 -6.3343 10.5959)
(1.19334e-15 -6.22828 9.73624)
(5.2231e-16 -6.46418 9.74422)
(7.28745e-16 -7.0919 10.425)
(5.20427e-16 -7.53509 11.4001)
(-3.08408e-15 -7.49675 11.5442)
(1.21515e-15 -5.19268 8.75366)
(2.10288e-14 -13.5792 25.276)
(1.00039e-14 -15.0557 25.2034)
(-1.57189e-16 -12.435 23.5693)
(2.3038e-15 -12.1591 21.5696)
(1.24403e-15 -10.3723 20.3966)
(1.11387e-16 -9.21063 18.0162)
(9.58093e-16 -6.85869 15.0509)
(1.0744e-15 -4.8081 11.5315)
(3.3643e-16 -2.93521 8.71376)
(1.60595e-15 -1.87687 6.7711)
(1.43276e-15 -1.84195 6.45371)
(1.49876e-16 -3.32908 8.27774)
(4.79431e-17 -5.78443 11.466)
(-1.56697e-15 -7.80114 13.5925)
(-1.266e-15 -5.85067 11.0887)
(2.03337e-14 -14.4341 26.5028)
(1.05016e-14 -17.3032 28.4202)
(-6.95349e-16 -13.8722 25.786)
(1.69728e-15 -13.7264 24.0378)
(4.80203e-16 -12.1421 23.1073)
(-4.89373e-16 -11.1971 20.977)
(1.56592e-16 -8.87696 18.1166)
(7.70068e-16 -6.63129 14.4936)
(1.56271e-15 -4.19877 11.213)
(3.26713e-15 -2.0286 8.00131)
(4.12245e-15 0.079239 4.90569)
(2.97915e-15 1.42158 2.52512)
(-5.63376e-16 1.01765 2.3878)
(-1.87268e-15 -1.25164 4.66968)
(-7.17986e-16 -2.42163 5.79964)
(1.85262e-14 -12.8443 22.9142)
(1.47767e-14 -19.0838 30.6468)
(3.93236e-15 -16.3684 28.3324)
(1.97513e-15 -15.4489 25.5749)
(4.00683e-17 -14.0496 24.2139)
(1.21427e-15 -13.4332 22.4171)
(6.63557e-16 -11.9442 20.3154)
(-1.3217e-16 -10.3522 17.5274)
(2.58427e-15 -8.35373 14.618)
(2.963e-15 -6.25002 11.4482)
(2.70068e-15 -3.85244 7.94754)
(8.28181e-15 -1.37524 4.04643)
(7.21508e-15 1.49415 -0.307506)
(1.05672e-14 3.6587 -3.84007)
(-1.82386e-15 1.73134 -3.4371)
(1.57487e-14 -9.59897 16.4094)
(1.78961e-14 -18.1313 29.127)
(8.61098e-15 -17.4379 28.9219)
(3.14557e-15 -15.8472 25.4255)
(2.30319e-16 -14.268 23.0198)
(1.19814e-15 -13.4795 21.0384)
(1.17662e-15 -12.5398 19.2531)
(2.14934e-16 -11.5493 17.2393)
(1.32332e-15 -10.3479 15.0799)
(1.42889e-15 -8.99287 12.7847)
(1.12119e-15 -7.48948 10.3407)
(2.87265e-15 -5.71217 7.73793)
(2.63557e-15 -3.75496 4.75166)
(3.152e-15 -1.06573 1.71674)
(-2.72444e-15 0.93394 -3.62577)
(1.32047e-14 -7.03161 11.5982)
(1.88955e-14 -16.5221 27.1123)
(1.11519e-14 -17.1938 28.5103)
(4.10647e-15 -15.5515 25.0598)
(1.04061e-15 -13.8678 22.0929)
(6.27052e-16 -12.8419 19.8384)
(3.79133e-16 -11.95 18.0398)
(1.74894e-15 -11.0865 16.3164)
(1.25458e-15 -10.147 14.5606)
(4.24865e-16 -9.08819 12.7572)
(1.07195e-15 -7.95154 10.8762)
(3.28064e-16 -6.61259 8.93616)
(-2.70826e-17 -5.19062 6.74647)
(1.11611e-15 -3.16253 4.2803)
(-3.68129e-15 -0.790643 -0.610395)
(1.05501e-14 -5.03066 7.6624)
(1.88594e-14 -14.9629 24.9931)
(1.00855e-14 -16.0468 26.7354)
(2.02318e-15 -13.8756 22.9067)
(4.79708e-16 -11.9278 19.8395)
(6.16039e-16 -10.8907 17.9564)
(6.35887e-16 -10.1518 16.707)
(2.44417e-15 -9.54621 15.5478)
(1.89674e-15 -8.93099 14.3696)
(9.21556e-16 -8.26978 13.1724)
(3.69778e-16 -7.61722 11.9537)
(-4.6699e-16 -6.85492 10.6935)
(4.73176e-17 -5.99191 9.1415)
(-2.87216e-16 -4.59381 7.15839)
(-3.39413e-15 -2.35255 3.46711)
(5.43351e-15 -4.36244 8.18531)
(1.78432e-14 -14.9967 24.2808)
(1.59504e-14 -18.7262 28.4573)
(8.33974e-15 -18.8112 26.6024)
(2.40601e-15 -17.1982 23.1622)
(3.48837e-16 -15.4267 20.0869)
(-8.65393e-16 -13.8857 17.612)
(-1.12167e-15 -12.4638 15.5477)
(-1.31103e-16 -11.0913 13.7858)
(5.15238e-16 -9.81179 12.189)
(-5.43378e-16 -8.5247 10.5952)
(-1.78642e-15 -7.21434 9.06228)
(-2.74855e-15 -6.14274 8.146)
(-3.37392e-15 -5.49203 7.60162)
(-4.49191e-15 -2.94175 5.17137)
(-6.38155e-17 9.78149 42.0728)
(-3.01488e-15 -0.26623 4.71163)
(-3.13091e-15 -0.385111 -2.88676)
(-2.99522e-15 -0.233005 -1.96363)
(-2.94383e-15 -0.0679023 -2.21632)
(-3.82917e-15 0.424545 -2.9082)
(-2.95198e-15 0.253961 -2.03141)
(-2.9942e-15 0.460289 -2.03642)
(-3.20821e-15 0.584414 -2.04018)
(-2.46677e-15 0.95073 -2.5887)
(-1.32629e-15 0.822909 -1.84736)
(-1.3457e-15 1.00223 -1.79175)
(-1.96335e-15 1.37527 -2.2098)
(-1.64377e-15 1.14098 -1.57203)
(-1.73627e-15 1.35454 -1.56745)
(-1.72584e-15 1.38923 -1.53906)
(-2.29468e-15 1.7357 -1.84854)
(-1.58091e-15 1.47018 -1.31155)
(-1.46835e-15 1.62189 -1.22901)
(-1.9513e-15 1.98722 -1.40763)
(-1.38858e-15 1.58727 -0.965675)
(-1.36638e-15 1.802 -0.902946)
(-1.08085e-15 1.76075 -0.821274)
(-1.42258e-15 2.11912 -0.844178)
(-9.0926e-16 1.67936 -0.536682)
(-7.22739e-16 1.86412 -0.454162)
(-6.718e-16 1.79865 -0.380931)
(-6.55042e-16 2.07189 -0.247782)
(-1.11112e-16 1.66763 -0.093066)
(1.77695e-16 1.73757 -0.0427404)
(5.41856e-16 1.98802 0.220232)
(5.78915e-16 1.50786 0.213868)
(8.48917e-16 1.63048 0.270624)
(9.08651e-16 1.53956 0.287609)
(1.51416e-15 1.69787 0.616763)
(1.44822e-15 1.30087 0.473081)
(1.53235e-15 1.3292 0.449664)
(2.30036e-15 1.44402 0.79085)
(1.86349e-15 1.02806 0.535799)
(1.88208e-15 1.08801 0.541534)
(2.10915e-15 1.01303 0.505194)
(2.90675e-15 1.09123 0.798517)
(2.00934e-15 0.761776 0.508775)
(1.93688e-15 0.806571 0.497493)
(1.74774e-15 0.738629 0.439905)
(2.38287e-15 0.846769 0.723)
(9.64086e-16 0.670783 0.576013)
(6.53041e-16 0.648986 0.492269)
(4.02089e-16 0.774417 0.736423)
(6.9163e-16 0.611207 0.634248)
(7.12727e-16 0.618834 0.667556)
(6.87483e-16 0.541626 0.636552)
(9.07233e-16 0.581489 0.803249)
(7.90487e-16 0.392879 0.567808)
(3.99041e-16 0.396499 0.548395)
(1.38965e-15 0.30779 0.626522)
(1.32584e-15 0.439654 -0.293547)
(1.46239e-15 0.0649883 -0.808957)
(-1.40335e-14 0.173914 -0.923746)
(-8.74562e-15 0.287777 -3.28979)
(7.6307e-16 -0.327056 -1.6762)
(4.12099e-17 -0.0683887 -1.85374)
(2.2836e-16 0.158941 -1.83146)
(3.84843e-16 -0.265288 -1.08173)
(-1.03931e-15 -0.947348 0.602561)
(-9.24576e-16 -0.644803 0.571637)
(-1.23293e-15 -1.53963 2.42696)
(-8.76996e-16 -2.01132 2.97052)
(-7.75847e-16 -2.21763 3.0101)
(-7.62874e-16 -2.13876 3.18282)
(-7.72444e-16 -3.54998 5.71554)
(-4.34368e-16 -3.85795 5.01246)
(-4.11679e-16 -4.3386 5.10588)
(-4.29725e-16 -4.19059 5.26693)
(-6.44558e-16 -6.33184 8.53488)
(-6.98653e-16 -6.44649 6.98757)
(-1.22537e-15 -6.46868 7.59744)
(-2.32012e-15 -9.00128 11.6653)
(-2.30427e-15 -8.82582 9.26971)
(-3.10812e-15 -9.17765 10.2178)
(-4.39637e-15 -9.90127 12.3312)
(-4.55377e-15 -9.77581 12.1872)
(-4.82558e-15 -9.86449 12.6001)
(-3.96683e-15 -11.3438 15.1466)
(-4.29908e-15 -10.5339 14.0712)
(-3.73067e-15 -10.7345 14.7025)
(-3.18401e-15 -10.7223 14.862)
(-2.46512e-15 -10.8127 15.0077)
(-1.6365e-15 -10.8675 15.0876)
(-8.28442e-16 -10.9502 15.1508)
(-7.5348e-17 -11.0394 15.2602)
(5.5106e-16 -11.065 15.4764)
(2.49945e-15 -12.0167 17.3206)
(1.60128e-15 -11.4761 16.1118)
(1.86597e-15 -11.6529 16.3214)
(1.82039e-15 -11.6373 16.4606)
(1.99798e-15 -11.7779 16.7819)
(2.00619e-15 -11.799 16.9543)
(2.1186e-15 -11.8966 17.0698)
(2.21223e-15 -11.9827 17.1796)
(2.31792e-15 -12.0333 17.2903)
(3.60795e-15 -12.6351 18.6325)
(2.89424e-15 -12.1405 17.4509)
(2.98225e-15 -12.2909 17.4966)
(2.99079e-15 -12.3171 17.4237)
(3.02175e-15 -12.4019 17.4658)
(3.10719e-15 -12.4393 17.6378)
(3.19214e-15 -12.5333 17.8885)
(3.17243e-15 -12.5526 17.9867)
(3.28642e-15 -12.6336 18.1452)
(3.39186e-15 -12.709 18.2688)
(4.23976e-15 -12.6646 18.9216)
(3.58471e-15 -12.4457 18.3686)
(3.78878e-15 -12.5145 18.6121)
(3.88391e-15 -12.5291 18.8136)
(3.93878e-15 -12.5982 19.0989)
(3.90475e-15 -12.6213 19.4234)
(3.78447e-15 -12.7068 19.8741)
(3.87349e-15 -12.7286 20.0954)
(4.01802e-15 -12.8561 20.1758)
(5.12883e-15 -12.017 19.6473)
(4.03261e-15 -12.0932 19.3153)
(4.02304e-15 -12.1124 19.2843)
(3.97502e-15 -12.1678 19.2333)
(3.9457e-15 -12.1459 19.0176)
(3.96529e-15 -12.1843 18.9216)
(4.12495e-15 -12.19 18.8679)
(4.39184e-15 -12.1376 18.9152)
(4.82438e-15 -12.3424 19.2228)
(5.74897e-15 -10.3873 17.0919)
(5.27875e-15 -10.9895 18.1296)
(5.65238e-15 -10.8898 18.1032)
(5.89545e-15 -10.8773 18.2265)
(6.29605e-15 -10.8572 18.5251)
(6.4876e-15 -10.817 18.5022)
(6.53682e-15 -10.7379 18.2821)
(6.48926e-15 -10.6584 17.9274)
(6.3693e-15 -10.717 17.3491)
(6.28438e-15 -7.95002 13.06)
(6.16141e-15 -8.94799 15.0079)
(5.57378e-15 -8.68786 13.608)
(5.16582e-15 -8.72738 12.6908)
(4.84503e-15 -8.55641 11.6413)
(4.75943e-15 -8.45617 10.7593)
(5.56491e-15 -8.27068 10.2069)
(4.7909e-15 -8.05991 9.43835)
(4.66862e-15 -7.83211 8.92901)
(4.37948e-15 -7.70115 8.37142)
(1.75817e-15 -4.25914 2.97706)
(4.33442e-15 -5.95458 7.49606)
(4.08113e-15 -5.35776 6.55305)
(3.93592e-15 -5.47246 6.36838)
(3.63531e-15 -5.10662 5.71082)
(3.14632e-15 -5.02706 4.85414)
(1.98626e-15 -4.82202 3.013)
(8.81288e-16 -4.46579 1.13409)
(1.19534e-15 -4.44659 1.10375)
(6.31436e-17 -3.81619 -1.48232)
(8.96244e-16 -3.86241 0.297447)
(6.72614e-16 -3.79258 -0.522698)
(-4.6321e-16 -2.86061 -2.15367)
(1.73308e-17 -4.2106 -1.6036)
(-3.79857e-16 -3.22931 -1.42591)
(-3.04045e-16 -2.91499 -0.934854)
(-4.67062e-16 -3.59016 -1.33741)
(-3.99266e-16 -2.483 -0.783591)
(-6.49989e-16 -3.11363 -1.17203)
(-4.50133e-16 -2.79614 -0.811781)
(-3.76485e-16 -2.30932 -0.572498)
(-6.19336e-16 -2.73098 -0.847148)
(-5.89951e-16 -2.51899 -0.592656)
(-5.08277e-16 -2.14007 -0.410009)
(-7.14229e-16 -2.82155 -0.591014)
(-5.50246e-16 -1.93138 -0.341027)
(-7.19741e-16 -2.51102 -0.522068)
(-4.67831e-16 -2.23413 -0.375913)
(-4.20247e-16 -1.9465 -0.263301)
(-5.61106e-16 -2.59157 -0.399194)
(-3.56969e-16 -1.76929 -0.23943)
(-5.87765e-16 -2.33039 -0.375269)
(-5.4776e-16 -2.17549 -0.306805)
(-4.92144e-16 -1.78924 -0.224232)
(-7.44752e-16 -2.18359 -0.363813)
(-6.24527e-16 -2.07325 -0.305401)
(-4.08757e-16 -1.75901 -0.225022)
(-6.24162e-16 -2.38652 -0.345988)
(-5.18494e-16 -1.62094 -0.22807)
(-7.80697e-16 -2.14175 -0.354317)
(-4.21737e-16 -1.94258 -0.308835)
(-3.87659e-16 -1.67528 -0.231909)
(-5.23856e-16 -2.27132 -0.346802)
(-3.97699e-16 -1.52681 -0.231856)
(-5.99417e-16 -2.03339 -0.349109)
(-5.1072e-16 -1.91544 -0.314045)
(-3.33071e-16 -1.55006 -0.237046)
(-5.27538e-16 -1.90724 -0.363653)
(-4.17396e-16 -1.81282 -0.318251)
(-2.26834e-16 -1.51802 -0.238196)
(-3.519e-16 -2.08487 -0.345004)
(-2.575e-16 -1.38515 -0.234453)
(-3.87461e-16 -1.8522 -0.350772)
(-3.49268e-16 -1.66352 -0.313235)
(-3.9999e-16 -1.41672 -0.237997)
(-4.98351e-16 -1.94396 -0.343231)
(-3.01179e-16 -1.27012 -0.235895)
(-4.76167e-16 -1.71744 -0.350269)
(-3.75721e-16 -1.59065 -0.323056)
(-2.13076e-16 -1.26358 -0.249979)
(-3.38492e-16 -1.56995 -0.379733)
(-2.69953e-16 -1.4638 -0.341905)
(-2.29495e-16 -1.19938 -0.262798)
(-3.44432e-16 -1.67792 -0.375398)
(-3.90392e-16 -1.05825 -0.265634)
(-5.17721e-16 -1.45446 -0.399992)
(-2.11678e-16 -1.25836 -0.36533)
(-1.58939e-16 -1.04203 -0.286142)
(-1.33629e-16 -1.46942 -0.408302)
(2.56499e-17 -0.883562 -0.29311)
(4.39618e-18 -1.25172 -0.442282)
(3.67688e-17 -1.10204 -0.410867)
(6.67237e-17 -0.822027 -0.327872)
(1.35075e-16 -1.06546 -0.495885)
(2.45632e-16 -0.933474 -0.446856)
(-4.00943e-17 -0.706238 -0.349528)
(1.0819e-17 -1.07991 -0.491142)
(-1.25925e-16 -0.539906 -0.354871)
(-1.67211e-16 -0.873467 -0.539858)
(-1.55602e-16 -0.645361 -0.487765)
(-7.681e-18 -0.461065 -0.382146)
(-9.02977e-18 -0.814847 -0.536824)
(7.91638e-17 -0.260719 -0.3885)
(1.96236e-16 -0.633248 -0.602031)
(3.07586e-16 -0.412318 -0.558807)
(6.84263e-17 -0.102575 -0.438404)
(1.67513e-16 -0.488781 -0.686599)
(-4.58624e-17 -0.206971 -0.65041)
(5.64671e-17 0.30325 -0.494684)
(9.65119e-17 -1.38087 -0.638437)
(-1.72513e-17 0.769236 -0.276171)
(-3.8294e-17 -0.446354 -0.469162)
(2.86645e-40 0.421686 0.479702)
(3.94735e-40 0.499965 0.477138)
(-1.21577e-39 0.547066 0.480625)
(-8.03268e-39 0.594024 0.483298)
(-1.92256e-38 0.63916 0.488438)
(3.05378e-39 0.681711 0.494114)
(1.92285e-37 0.72309 0.501243)
(6.65827e-37 0.762912 0.50926)
(5.20412e-37 0.801692 0.518408)
(-4.73609e-36 0.839396 0.5285)
(-2.26529e-35 0.876198 0.539578)
(-3.69135e-35 0.912116 0.551559)
(8.66499e-35 0.947193 0.564421)
(6.99246e-34 0.981425 0.57811)
(1.89773e-33 1.0148 0.592584)
(8.51047e-34 1.0473 0.607794)
(-1.48443e-32 1.0789 0.623696)
(-7.26436e-32 1.10958 0.640251)
(-1.81823e-31 1.13934 0.657423)
(-1.08429e-31 1.1682 0.675186)
(1.5077e-30 1.19622 0.693523)
(9.27856e-30 1.22349 0.712428)
(3.03307e-29 1.25011 0.731904)
(3.80409e-29 1.27623 0.75196)
(-2.1157e-28 1.30196 0.772604)
(-1.60639e-27 1.32744 0.793845)
(-5.27965e-27 1.35276 0.815688)
(-5.13141e-27 1.37804 0.838148)
(4.18177e-26 1.40343 0.861258)
(2.59196e-25 1.42922 0.885093)
(7.01584e-25 1.45585 0.909787)
(2.22073e-25 1.48399 0.93553)
(-6.73945e-24 1.51443 0.96253)
(-3.20507e-23 1.54782 0.990941)
(-7.067e-23 1.58445 1.0208)
(1.01699e-23 1.62415 1.05198)
(7.09743e-22 1.66637 1.08426)
(2.92382e-21 1.71025 1.11724)
(6.22439e-21 1.75475 1.15046)
(2.05297e-21 1.79881 1.18344)
(-4.04726e-20 1.84154 1.2157)
(-1.84984e-19 1.88237 1.2468)
(-4.83686e-19 1.92114 1.2764)
(-7.59159e-19 1.95796 1.30437)
(-3.23116e-20 1.99287 1.33105)
(4.5422e-18 2.02519 1.35783)
(1.91254e-17 2.05318 1.38776)
(5.44827e-17 2.07387 1.42561)
(1.26195e-16 2.08341 1.47653)
(2.5299e-16 2.07751 1.54325)
(4.53038e-16 2.05168 1.62275)
(7.38497e-16 2.00031 1.70445)
(1.10977e-15 1.91665 1.77137)
(1.56185e-15 1.80203 1.80547)
(2.11204e-15 1.65708 1.79151)
(2.68708e-15 1.29565 1.64852)
(2.64044e-15 0.19221 1.01817)
(1.69071e-15 -1.03714 0.32816)
(1.05438e-15 -1.62911 0.0640714)
(5.09936e-16 -2.07589 -0.121066)
(1.59942e-16 -2.52967 -0.26714)
(2.35169e-17 -2.96316 -0.328503)
(-1.10956e-18 -3.41403 -0.362592)
(-9.04078e-19 -3.85272 -0.373745)
(-9.62043e-20 -4.21963 -0.37775)
(5.22128e-21 -4.50635 -0.37191)
(1.89239e-21 -4.6853 -0.369312)
(1.34549e-22 -4.75803 -0.361336)
(-2.38767e-23 -4.7096 -0.362744)
(-4.83966e-24 -4.57304 -0.35014)
(-2.65601e-23 -4.29273 -0.354316)
(7.04491e-23 -4.02215 -0.319549)
(-2.27066e-22 -3.55854 -0.333308)
(9.56197e-22 -3.46286 -0.255645)
(-4.78766e-21 -2.81354 -0.331274)
(4.21402e-20 -3.34265 -0.191285)
(-3.95279e-19 -2.61187 -0.377743)
(2.73856e-18 -2.95559 -0.302721)
(1.23464e-17 -5.49113 -0.355627)
(6.96604e-40 0.422285 0.51187)
(1.02436e-39 0.499938 0.507441)
(-2.64847e-39 0.546167 0.510829)
(-1.79847e-38 0.59284 0.51305)
(-4.01608e-38 0.637483 0.518195)
(2.43694e-38 0.679705 0.523861)
(4.60672e-37 0.720703 0.531151)
(1.3269e-36 0.760197 0.539374)
(-1.14966e-37 0.798641 0.548809)
(-1.42425e-35 0.836034 0.559231)
(-4.99339e-35 0.872533 0.570681)
(-3.22057e-35 0.908164 0.58306)
(4.07001e-34 0.942968 0.596342)
(1.90197e-33 0.976942 0.610459)
(3.29124e-33 1.01008 0.625368)
(-6.04614e-33 1.04235 0.641015)
(-5.86065e-32 1.07373 0.657357)
(-1.94676e-31 1.10421 0.674355)
(-2.84935e-31 1.13377 0.691981)
(7.42186e-31 1.16245 0.710214)
(7.12253e-30 1.19029 0.729052)
(2.83944e-29 1.21737 0.748497)
(5.80557e-29 1.24381 0.768563)
(-7.69914e-29 1.26973 0.789265)
(-1.19604e-27 1.29528 0.810613)
(-5.0646e-27 1.32056 0.832613)
(-9.41239e-27 1.34568 0.855271)
(1.9292e-26 1.37076 0.878605)
(2.08778e-25 1.39592 0.902673)
(7.39674e-25 1.42145 0.927593)
(9.50014e-25 1.44777 0.953562)
(-4.05382e-24 1.47553 0.980836)
(-2.8323e-23 1.50552 1.00965)
(-8.17039e-23 1.53846 1.04012)
(-6.88741e-23 1.57464 1.07216)
(4.94842e-22 1.61395 1.10554)
(2.74888e-21 1.6559 1.13988)
(7.25372e-21 1.69965 1.17469)
(7.25951e-21 1.74417 1.20944)
(-2.82572e-20 1.7884 1.24361)
(-1.74496e-19 1.83144 1.27674)
(-5.22205e-19 1.8727 1.3085)
(-9.61223e-19 1.91195 1.33885)
(-5.41449e-19 1.94918 1.36843)
(3.80686e-18 1.9841 1.39927)
(1.9118e-17 2.01556 1.43572)
(5.81193e-17 2.04124 1.48473)
(1.39559e-16 2.05788 1.55438)
(2.85896e-16 2.06212 1.65023)
(5.18215e-16 2.05123 1.77052)
(8.49726e-16 2.02307 1.90321)
(1.27934e-15 1.97429 2.02703)
(1.78752e-15 1.89919 2.11636)
(2.34887e-15 1.79872 2.14918)
(2.97069e-15 1.68275 2.11435)
(3.56408e-15 1.41042 1.94825)
(3.31766e-15 0.416783 1.26259)
(1.64274e-15 -0.971538 0.23419)
(1.05151e-15 -1.59768 0.052777)
(5.13133e-16 -2.06095 -0.137936)
(1.62673e-16 -2.53163 -0.280357)
(2.41889e-17 -2.97843 -0.337032)
(-1.20493e-18 -3.43477 -0.366917)
(-9.69617e-19 -3.87485 -0.37289)
(-1.03518e-19 -4.2402 -0.373276)
(6.08324e-21 -4.52427 -0.364736)
(2.13154e-21 -4.69872 -0.360122)
(1.42364e-22 -4.76677 -0.351836)
(-2.62285e-23 -4.71455 -0.353068)
(-5.26372e-24 -4.57349 -0.341529)
(-2.65367e-23 -4.29235 -0.346752)
(7.02151e-23 -4.01697 -0.313732)
(-2.26661e-22 -3.55543 -0.328615)
(9.57707e-22 -3.44965 -0.252998)
(-4.8334e-21 -2.80443 -0.32809)
(4.26718e-20 -3.32001 -0.19098)
(-3.99993e-19 -2.57932 -0.373837)
(2.67806e-18 -2.93577 -0.306035)
(1.20888e-17 -5.45053 -0.362404)
(1.21547e-39 0.422736 0.529085)
(2.02867e-39 0.500063 0.523926)
(-3.23615e-39 0.545787 0.52724)
(-2.54899e-38 0.59231 0.529243)
(-5.28105e-38 0.636691 0.534399)
(5.9154e-38 0.678747 0.540075)
(6.51961e-37 0.719552 0.547463)
(1.30033e-36 0.758885 0.55581)
(-3.208e-36 0.797166 0.56541)
(-2.61075e-35 0.83441 0.57602)
(-5.52468e-35 0.870765 0.58768)
(1.03805e-34 0.906264 0.600282)
(1.0484e-33 0.940942 0.613795)
(2.98289e-33 0.974801 0.628151)
(5.11346e-34 1.00783 0.6433)
(-3.0054e-32 1.04 0.65919)
(-1.34556e-31 1.07128 0.675778)
(-2.84981e-31 1.10167 0.693026)
(1.04774e-31 1.13114 0.710909)
(3.72334e-30 1.15973 0.729415)
(1.81798e-29 1.18748 0.748545)
(4.99403e-29 1.21446 0.768308)
(2.42337e-29 1.24081 0.788724)
(-5.65494e-28 1.26663 0.809809)
(-3.30761e-27 1.29207 0.831572)
(-9.18163e-27 1.31726 0.854017)
(-1.74781e-27 1.34228 0.877149)
(1.0934e-25 1.36724 0.900991)
(5.38565e-25 1.39228 0.925617)
(1.18589e-24 1.41764 0.951174)
(-8.27782e-25 1.44375 0.977899)
(-1.69368e-23 1.47127 1.00609)
(-6.59705e-23 1.501 1.03598)
(-1.12857e-22 1.53367 1.06766)
(1.68272e-22 1.56964 1.10095)
(1.79744e-21 1.6088 1.13556)
(6.1074e-21 1.65068 1.17103)
(1.01308e-20 1.69444 1.20683)
(-8.25137e-21 1.73906 1.24239)
(-1.15118e-19 1.78346 1.27716)
(-4.1965e-19 1.82671 1.3107)
(-9.26654e-19 1.86817 1.34286)
(-1.00355e-18 1.90747 1.37415)
(1.81894e-18 1.94432 1.40651)
(1.37623e-17 1.97799 1.44436)
(4.6853e-17 2.00681 1.49524)
(1.19747e-16 2.02819 1.56883)
(2.5575e-16 2.03937 1.67334)
(4.77531e-16 2.03841 1.81005)
(8.00049e-16 2.02459 1.96913)
(1.22441e-15 1.99758 2.12972)
(1.73409e-15 1.95479 2.2647)
(2.29456e-15 1.88993 2.34711)
(2.86838e-15 1.80178 2.35738)
(3.4565e-15 1.70152 2.2918)
(4.00092e-15 1.47662 2.11553)
(3.75705e-15 0.591539 1.47499)
(1.69415e-15 -0.804177 0.160967)
(1.03743e-15 -1.54536 0.00912105)
(5.17891e-16 -2.01272 -0.162205)
(1.66997e-16 -2.49685 -0.304424)
(2.51592e-17 -2.95591 -0.352968)
(-1.34008e-18 -3.41841 -0.375281)
(-1.05831e-18 -3.86279 -0.372767)
(-1.13197e-19 -4.23121 -0.366795)
(7.22695e-21 -4.51772 -0.353962)
(2.44663e-21 -4.69411 -0.34596)
(1.52373e-22 -4.76366 -0.337037)
(-2.94551e-23 -4.71381 -0.338011)
(-5.80715e-24 -4.57429 -0.327947)
(-2.65086e-23 -4.29729 -0.334855)
(6.99439e-23 -4.02259 -0.304418)
(-2.26203e-22 -3.56732 -0.321167)
(9.59656e-22 -3.45633 -0.248335)
(-4.88857e-21 -2.81956 -0.323606)
(4.33139e-20 -3.3233 -0.189111)
(-4.05425e-19 -2.57652 -0.369946)
(2.60409e-18 -2.94729 -0.3046)
(1.25557e-17 -5.41283 -0.366937)
(1.89086e-39 0.423434 0.549422)
(4.68983e-39 0.500231 0.543571)
(2.35209e-39 0.545226 0.546825)
(-1.75249e-38 0.591503 0.548634)
(-4.96524e-38 0.635484 0.553824)
(5.37934e-39 0.677279 0.559544)
(2.03529e-37 0.717785 0.56707)
(-9.18317e-37 0.756865 0.575588)
(-9.41779e-36 0.794891 0.585408)
(-2.62839e-35 0.831902 0.596265)
(3.29594e-35 0.868032 0.608198)
(5.35251e-34 0.903321 0.621091)
(1.94557e-33 0.937801 0.634907)
(1.85026e-33 0.971475 0.649572)
(-1.50044e-32 1.00433 0.665035)
(-8.72509e-32 1.03633 0.681241)
(-2.26922e-31 1.06747 0.698146)
(-1.07697e-31 1.0977 0.715716)
(1.9505e-30 1.12704 0.733928)
(1.11403e-29 1.15548 0.752777)
(3.57356e-29 1.18309 0.77227)
(5.04244e-29 1.20993 0.792426)
(-2.1781e-28 1.23612 0.81327)
(-1.91092e-27 1.26179 0.83482)
(-7.08737e-27 1.28708 0.857089)
(-1.01308e-26 1.31211 0.880075)
(4.40147e-26 1.33697 0.903783)
(3.43473e-25 1.36176 0.928241)
(1.07808e-24 1.38661 0.953536)
(8.90214e-25 1.41174 0.979847)
(-8.34524e-24 1.43755 1.00746)
(-4.71651e-23 1.46471 1.03671)
(-1.19099e-22 1.49404 1.06788)
(-3.60841e-23 1.52634 1.10099)
(1.01425e-21 1.56198 1.1358)
(4.6751e-21 1.60089 1.17193)
(1.07207e-20 1.64264 1.20884)
(5.11269e-21 1.68639 1.24592)
(-6.62616e-20 1.73112 1.28253)
(-3.17719e-19 1.77575 1.31809)
(-8.39088e-19 1.81929 1.35223)
(-1.27333e-18 1.86096 1.38521)
(2.78912e-19 1.90012 1.41872)
(9.21978e-18 1.93596 1.45709)
(3.68614e-17 1.9671 1.50834)
(1.01894e-16 1.99136 1.58372)
(2.28956e-16 2.00629 1.69446)
(4.43247e-16 2.01037 1.84564)
(7.62498e-16 2.00386 2.03033)
(1.18973e-15 1.98845 2.22829)
(1.70981e-15 1.96534 2.41063)
(2.28978e-15 1.93222 2.54733)
(2.8822e-15 1.88173 2.61318)
(3.44041e-15 1.81012 2.59291)
(3.95787e-15 1.72985 2.49037)
(4.40688e-15 1.56225 2.29442)
(4.16931e-15 0.814856 1.69685)
(1.91379e-15 -0.639811 0.167358)
(1.01917e-15 -1.51105 -0.0761728)
(5.21186e-16 -1.9828 -0.193657)
(1.72251e-16 -2.4765 -0.337745)
(2.64526e-17 -2.94714 -0.377015)
(-1.48674e-18 -3.4148 -0.388403)
(-1.16478e-18 -3.86193 -0.374425)
(-1.24726e-19 -4.23126 -0.359331)
(8.5651e-21 -4.51838 -0.340517)
(2.80734e-21 -4.69443 -0.327706)
(1.62888e-22 -4.76357 -0.317541)
(-3.3257e-23 -4.71411 -0.318099)
(-6.38985e-24 -4.57436 -0.309648)
(-2.64799e-23 -4.29969 -0.318794)
(6.96861e-23 -4.02436 -0.291583)
(-2.25783e-22 -3.57351 -0.311043)
(9.61793e-22 -3.45743 -0.241533)
(-4.94435e-21 -2.82678 -0.318073)
(4.39654e-20 -3.32098 -0.185725)
(-4.10582e-19 -2.56754 -0.365958)
(2.53154e-18 -2.95013 -0.300119)
(1.24231e-17 -5.37411 -0.36244)
(2.5677e-39 0.424143 0.568827)
(1.33132e-38 0.500461 0.562527)
(3.3469e-38 0.544789 0.565729)
(4.83766e-38 0.590836 0.567404)
(-4.1979e-38 0.634452 0.572644)
(-6.20811e-37 0.676009 0.578434)
(-2.82689e-36 0.716247 0.586113)
(-8.48581e-36 0.755103 0.594817)
(-1.15823e-35 0.792904 0.604868)
(4.89235e-35 0.829711 0.615984)
(4.07876e-34 0.865646 0.6282)
(1.40726e-33 0.900755 0.641391)
(1.69296e-33 0.935068 0.655518)
(-8.97283e-33 0.968585 0.6705)
(-6.09573e-32 1.00129 0.686283)
(-1.79394e-31 1.03316 0.702811)
(-1.68743e-31 1.06417 0.720041)
(1.11048e-30 1.09428 0.737938)
(7.23155e-30 1.12349 0.756487)
(2.47226e-29 1.15182 0.775686)
(4.63156e-29 1.17929 0.795549)
(-6.61537e-29 1.206 0.816105)
(-1.02465e-27 1.23206 0.837382)
(-4.75125e-27 1.25759 0.859407)
(-1.10088e-26 1.28274 0.882187)
(8.63961e-27 1.30763 0.905721)
(1.90375e-25 1.33234 0.93001)
(8.14146e-25 1.35698 0.955084)
(1.50172e-24 1.38164 0.981047)
(-2.71879e-24 1.40653 1.00811)
(-2.94951e-23 1.43204 1.0366)
(-1.01883e-22 1.45883 1.06691)
(-1.37411e-22 1.48778 1.09935)
(4.33975e-22 1.51971 1.1339)
(3.2011e-21 1.55505 1.17024)
(9.6338e-21 1.59378 1.20791)
(1.24747e-20 1.63545 1.24628)
(-2.87435e-20 1.67926 1.28464)
(-2.21021e-19 1.72418 1.32228)
(-7.06874e-19 1.76907 1.35859)
(-1.35611e-18 1.81285 1.39348)
(-8.12106e-19 1.85445 1.42816)
(5.43587e-18 1.89269 1.46651)
(2.7745e-17 1.92603 1.51664)
(8.44728e-17 1.95233 1.59104)
(2.01315e-16 1.96929 1.70382)
(4.06056e-16 1.97554 1.86425)
(7.19611e-16 1.97193 2.06922)
(1.14729e-15 1.96157 2.29988)
(1.67448e-15 1.94814 2.52575)
(2.26802e-15 1.93329 2.7136)
(2.88107e-15 1.91377 2.83539)
(3.45898e-15 1.88039 2.87118)
(3.95184e-15 1.82628 2.81105)
(4.346e-15 1.76204 2.66506)
(4.6419e-15 1.63841 2.44589)
(4.42286e-15 1.03606 1.91085)
(2.29257e-15 -0.459274 0.255508)
(1.03711e-15 -1.47409 -0.184542)
(5.20763e-16 -1.96318 -0.240316)
(1.76295e-16 -2.46184 -0.380145)
(2.81081e-17 -2.94592 -0.41057)
(-1.57604e-18 -3.41933 -0.407749)
(-1.29184e-18 -3.86871 -0.378975)
(-1.39441e-19 -4.23763 -0.351669)
(1.01268e-20 -4.52417 -0.324762)
(3.22058e-21 -4.6983 -0.305497)
(1.72948e-22 -4.76558 -0.293195)
(-3.76097e-23 -4.71526 -0.293073)
(-6.97587e-24 -4.57401 -0.28629)
(-2.64511e-23 -4.30084 -0.298165)
(6.94593e-23 -4.02393 -0.274858)
(-2.25429e-22 -3.57704 -0.297843)
(9.64067e-22 -3.45508 -0.232268)
(-4.99811e-21 -2.83021 -0.31116)
(4.46002e-20 -3.31463 -0.180548)
(-4.15242e-19 -2.55373 -0.361719)
(2.46927e-18 -2.94885 -0.291081)
(1.1195e-17 -5.33721 -0.361244)
(3.45592e-39 0.424937 0.588269)
(4.19544e-38 0.500712 0.581669)
(1.41765e-37 0.54433 0.584837)
(2.51192e-37 0.590111 0.586434)
(-2.16578e-37 0.633324 0.591745)
(-3.37916e-36 0.674615 0.597635)
(-1.28659e-35 0.714557 0.605487)
(-2.32456e-35 0.753163 0.614403)
(2.87705e-35 0.790716 0.624708)
(3.74923e-34 0.827298 0.636106)
(1.38523e-33 0.86302 0.648628)
(2.20468e-33 0.897932 0.662143)
(-5.04909e-33 0.93206 0.676604)
(-4.64451e-32 0.965407 0.691927)
(-1.55529e-31 0.997955 0.708055)
(-2.18589e-31 1.02968 0.72493)
(5.97021e-31 1.06054 0.742508)
(5.02576e-30 1.09052 0.760758)
(1.82549e-29 1.1196 0.779667)
(3.87086e-29 1.14778 0.799238)
(-6.87585e-30 1.17512 0.819495)
(-5.41531e-28 1.20168 0.840473)
(-2.98704e-27 1.22758 0.86221)
(-9.00197e-27 1.25296 0.884733)
(-6.48887e-27 1.27795 0.908053)
(9.01475e-26 1.30268 0.932163)
(5.393e-25 1.32724 0.95706)
(1.47334e-24 1.3517 0.982778)
(3.58991e-25 1.37615 1.00943)
(-1.57119e-23 1.40077 1.03726)
(-7.53792e-23 1.42594 1.06665)
(-1.65444e-22 1.45231 1.09806)
(5.9516e-23 1.48081 1.13181)
(1.91455e-21 1.51233 1.16786)
(7.65933e-21 1.54735 1.20581)
(1.51298e-20 1.58587 1.2451)
(-2.73285e-21 1.62749 1.28501)
(-1.3706e-19 1.67139 1.3247)
(-5.53997e-19 1.71653 1.3634)
(-1.29621e-18 1.76171 1.40059)
(-1.49823e-18 1.80557 1.43685)
(2.43089e-18 1.84654 1.47535)
(1.96889e-17 1.88259 1.52369)
(6.79189e-17 1.91121 1.59503)
(1.73523e-16 1.92981 1.70611)
(3.669e-16 1.93685 1.87068)
(6.72699e-16 1.93332 2.09047)
(1.09927e-15 1.92334 2.34928)
(1.63294e-15 1.91266 2.61551)
(2.23936e-15 1.90583 2.85219)
(2.87004e-15 1.90357 3.02752)
(3.46999e-15 1.90087 3.11982)
(3.98443e-15 1.88672 3.11619)
(4.36694e-15 1.85136 3.01155)
(4.5992e-15 1.80224 2.81938)
(4.69472e-15 1.71369 2.57092)
(4.45849e-15 1.2451 2.10397)
(2.81028e-15 -0.255541 0.487532)
(1.14037e-15 -1.4165 -0.287503)
(5.26673e-16 -1.94648 -0.309844)
(1.7724e-16 -2.44586 -0.432361)
(2.96804e-17 -2.94394 -0.453863)
(-1.57492e-18 -3.42416 -0.43445)
(-1.43569e-18 -3.87584 -0.387273)
(-1.58228e-19 -4.24402 -0.344491)