/*--------------------------------*- C++ -*----------------------------------*\
| =========                 |                                                 |
| \\      /  F ield         | OpenFOAM: The Open Source CFD Toolbox           |
|  \\    /   O peration     | Version:  4.1                                   |
|   \\  /    A nd           | Web:      www.OpenFOAM.org                      |
|    \\/     M anipulation  |                                                 |
\*---------------------------------------------------------------------------*/
FoamFile
{
    version     2.0;
    format      ascii;
    class       volVectorField;
    location    "6";
    object      U;
}
// * * * * * * * * * * * * * * * * * * * * * * * * * * * * * * * * * * * * * //

dimensions      [0 1 -1 0 0 0 0];

internalField   nonuniform List<vector> 
6785
(
(1.23217e-14 -1.84748 16.4168)
(1.06245e-14 -7.5794 12.8673)
(-2.91859e-15 -5.04268 13.5436)
(4.17644e-15 -4.81269 13.1442)
(8.68068e-16 -4.08304 12.9867)
(-1.77355e-16 -3.6183 12.7224)
(2.47766e-15 -3.19548 12.4435)
(5.85441e-16 -2.87724 12.1291)
(-8.15611e-16 -2.65752 11.7936)
(1.19701e-15 -2.55321 11.4584)
(2.0247e-16 -2.52905 11.2015)
(-2.5524e-16 -2.66994 11.0087)
(5.6255e-16 -3.28564 10.5098)
(-7.83646e-17 -3.23399 9.57004)
(-1.82665e-17 0.145843 7.54363)
(1.75502e-14 -9.57608 26.838)
(1.24009e-14 -16.5086 23.0379)
(-3.14303e-15 -11.3313 23.4399)
(3.90752e-15 -12.0211 21.7177)
(7.35084e-16 -10.4943 20.8288)
(4.79672e-16 -9.81134 19.6622)
(1.4298e-15 -8.90197 18.5819)
(1.43899e-16 -8.12563 17.4808)
(-4.5479e-16 -7.3849 16.4168)
(5.55334e-17 -6.71085 15.3674)
(-3.23589e-16 -5.96102 14.1567)
(-6.27558e-16 -4.84938 12.2109)
(-7.82912e-16 -3.08265 8.58621)
(-2.58325e-16 -0.562753 3.10282)
(-3.09532e-16 1.11051 -1.60906)
(1.98413e-14 -12.1601 28.3726)
(1.11364e-14 -17.3406 24.9716)
(-2.16788e-15 -12.0022 25.1486)
(4.9215e-15 -13.3086 22.6179)
(5.17454e-16 -11.225 21.6102)
(1.41242e-15 -10.7946 19.9094)
(2.5363e-15 -9.74526 18.5427)
(-9.47517e-17 -9.03327 17.0837)
(4.86948e-16 -8.2777 15.7343)
(1.80463e-15 -7.61472 14.3945)
(-4.49351e-16 -6.83625 12.8535)
(3.43874e-17 -5.50834 10.3362)
(3.73854e-15 -2.37056 4.99264)
(3.49601e-16 4.29634 -5.55217)
(-8.35928e-16 1.55664 -5.99558)
(2.0786e-14 -12.6458 27.2292)
(1.24802e-14 -17.3057 24.9289)
(-1.48178e-15 -12.3099 24.55)
(5.05682e-15 -13.9134 21.588)
(1.17001e-15 -11.6726 20.609)
(1.33352e-15 -11.472 18.6339)
(3.00206e-15 -10.4524 17.1358)
(9.62278e-16 -9.79456 15.5387)
(3.24636e-16 -9.12827 14.1021)
(1.77318e-15 -8.53085 12.7664)
(7.5379e-16 -7.92209 11.366)
(-6.97025e-16 -6.99939 9.60995)
(8.04937e-16 -5.48594 6.82502)
(1.17799e-15 -3.01895 3.53484)
(-6.08917e-16 -0.633607 -0.942221)
(2.12429e-14 -12.4725 26.0454)
(1.34318e-14 -16.7968 24.5827)
(-1.25272e-15 -12.0943 23.878)
(5.05252e-15 -13.6181 20.7434)
(9.06194e-16 -11.1148 19.8512)
(1.14635e-15 -11.037 17.6344)
(2.62072e-15 -9.74119 16.1521)
(2.49703e-16 -9.09327 14.5184)
(-3.49692e-16 -8.40698 13.1851)
(6.12147e-16 -7.89161 11.9215)
(-2.44468e-16 -7.40886 10.6613)
(-9.28062e-16 -6.79593 9.41685)
(-6.64709e-17 -5.99181 8.00288)
(-6.39467e-16 -4.6054 6.33798)
(-2.6184e-15 -2.28598 2.35567)
(2.20085e-14 -12.7239 25.7432)
(1.18891e-14 -15.9417 24.2027)
(-2.39155e-16 -11.8856 23.5062)
(4.43407e-15 -12.9395 20.5452)
(7.68001e-16 -10.3875 19.6373)
(1.77896e-15 -10.2265 17.4431)
(1.10474e-15 -8.60335 15.9692)
(7.29268e-16 -7.53242 13.7031)
(1.83145e-15 -6.0226 11.2719)
(1.59776e-15 -5.16835 9.24996)
(9.50956e-16 -5.18084 8.65355)
(1.49432e-16 -5.78172 9.07447)
(-1.16912e-15 -6.25829 9.69611)
(-1.30966e-15 -6.41542 9.75931)
(-6.48837e-16 -4.51243 7.6018)
(2.19564e-14 -13.6591 26.9198)
(9.18924e-15 -15.9857 25.1575)
(-3.93053e-17 -12.4182 24.4383)
(3.11881e-15 -13.025 21.9816)
(1.01581e-16 -10.7308 21.0808)
(8.49873e-16 -10.4305 19.2543)
(-1.84052e-16 -8.72157 17.801)
(4.75353e-16 -7.12261 14.9359)
(2.30214e-15 -4.53305 11.1943)
(1.79892e-15 -2.32107 7.50246)
(-5.8383e-16 -0.937184 5.22711)
(-1.6873e-15 -1.04467 4.92825)
(-3.01519e-15 -2.79915 6.89631)
(-4.25252e-15 -5.09144 9.53284)
(-2.29501e-15 -4.34286 8.85138)
(2.1253e-14 -13.9847 27.004)
(9.97857e-15 -17.6417 27.8418)
(-5.69618e-16 -13.5626 25.9915)
(2.73483e-15 -14.2082 23.6234)
(-4.26849e-16 -12.0251 22.7821)
(2.14365e-16 -11.9742 21.0183)
(-5.50622e-16 -10.4482 19.795)
(-5.13875e-16 -9.2696 17.2693)
(1.52064e-15 -6.83171 13.8513)
(1.70822e-15 -4.33072 9.8662)
(5.42936e-16 -1.80878 6.15501)
(1.86363e-15 0.452379 2.47325)
(2.97698e-15 2.10669 -0.26109)
(4.30623e-15 1.68625 -0.266594)
(3.04748e-15 -0.114039 1.45859)
(1.94032e-14 -12.858 24.0634)
(1.35059e-14 -18.6316 29.4937)
(1.76801e-15 -14.9843 26.977)
(1.88873e-15 -14.8748 24.0501)
(1.47798e-17 -13.1237 22.833)
(1.05601e-15 -12.9133 21.0632)
(4.01141e-17 -11.8484 19.756)
(-5.26073e-16 -11.081 17.878)
(1.39917e-15 -9.68948 15.6047)
(1.18791e-15 -8.01767 12.8521)
(7.11415e-16 -6.01748 9.85719)
(3.82783e-15 -3.67178 6.47234)
(3.14303e-15 -0.647309 2.38762)
(4.58758e-15 3.50236 -2.72525)
(6.76564e-15 1.69725 -4.90839)
(1.83887e-14 -11.0586 20.024)
(1.63872e-14 -18.0789 29.0693)
(4.41819e-15 -15.4564 26.8898)
(2.06621e-15 -14.5189 23.3841)
(7.06523e-16 -12.9714 21.6426)
(1.5137e-15 -12.4437 19.8188)
(1.51236e-15 -11.5501 18.3218)
(5.33572e-16 -10.8043 16.6411)
(1.4651e-15 -9.88906 14.8655)
(1.78148e-15 -8.81997 12.9304)
(1.17702e-15 -7.59168 10.8113)
(2.46717e-15 -6.06498 8.49456)
(2.96704e-15 -4.32107 5.69187)
(2.84824e-15 -1.65608 2.51524)
(1.4459e-15 0.382362 -2.78769)
(1.74786e-14 -9.75675 17.3857)
(1.75818e-14 -17.1162 28.164)
(6.07277e-15 -15.1794 26.3724)
(2.01867e-15 -13.8421 22.668)
(1.05527e-15 -12.3127 20.6746)
(1.94987e-15 -11.6243 18.8458)
(1.90953e-15 -10.7293 17.3164)
(1.27934e-15 -9.93705 15.7238)
(1.46635e-15 -9.10392 14.1484)
(1.5703e-15 -8.21885 12.5719)
(1.44515e-15 -7.29978 10.9249)
(1.32627e-15 -6.18618 9.18641)
(1.19591e-15 -4.97199 7.0932)
(1.24395e-15 -3.04909 4.50688)
(-1.79208e-15 -0.649407 -0.877183)
(1.66932e-14 -9.12666 16.2153)
(1.83606e-14 -16.3523 27.4083)
(6.48301e-15 -14.8214 25.7812)
(1.67634e-15 -13.2969 22.028)
(1.48436e-15 -11.7407 19.8694)
(1.60871e-15 -10.9949 18.0874)
(1.44422e-15 -10.1358 16.6477)
(1.39701e-15 -9.3791 15.1973)
(9.72476e-16 -8.60873 13.7903)
(3.72787e-16 -7.82879 12.4164)
(3.36288e-16 -7.06489 11.0193)
(-6.11761e-16 -6.18735 9.6129)
(-3.51273e-16 -5.29304 8.02103)
(-1.09596e-15 -3.85155 6.15625)
(-3.63506e-15 -1.30683 1.10882)
(1.58227e-14 -9.23599 16.3685)
(1.82885e-14 -15.6354 26.4804)
(6.19226e-15 -14.3651 24.959)
(9.43622e-16 -13.1621 21.7169)
(2.12642e-15 -11.8151 19.6232)
(8.85384e-16 -11.1586 17.9012)
(-1.13578e-15 -10.4347 16.5021)
(2.02792e-15 -9.77562 15.1168)
(1.58395e-15 -9.07376 13.7322)
(-5.6996e-16 -8.32864 12.361)
(-2.57859e-16 -7.59984 11.0681)
(-9.94007e-16 -6.89843 10.0141)
(-1.75758e-15 -6.29763 9.1633)
(-1.70681e-15 -5.35612 8.27644)
(-5.79667e-15 -3.04346 4.31255)
(1.40838e-14 -9.33495 15.8552)
(1.78232e-14 -15.2555 25.4492)
(2.24849e-15 -13.3042 22.8268)
(-1.49878e-15 -11.3684 18.962)
(2.25234e-15 -9.79252 17.0689)
(-1.15184e-16 -9.0719 15.5239)
(-3.28383e-16 -8.33555 14.5014)
(2.31465e-15 -7.97694 13.5079)
(3.13585e-16 -7.67954 12.6979)
(-1.12256e-15 -7.50202 11.9497)
(-1.26572e-15 -7.42457 11.4624)
(-2.38966e-15 -7.45846 11.3907)
(-3.09376e-15 -7.48939 11.6298)
(-4.25114e-15 -7.09209 11.4791)
(-8.15017e-15 -4.83516 8.01927)
(8.81814e-15 -7.85271 13.6872)
(1.65809e-14 -16.3427 25.3926)
(8.94187e-15 -18.165 26.7755)
(1.78095e-15 -17.4946 24.344)
(4.04853e-16 -15.6066 21.5401)
(-2.85878e-18 -13.6926 18.7225)
(4.06652e-15 -11.3867 15.6416)
(9.32041e-15 -9.07574 12.6302)
(9.76889e-15 -7.005 10.0861)
(5.12097e-15 -5.7872 8.59292)
(-3.98364e-16 -5.46855 8.65718)
(-1.3383e-15 -6.28221 10.2944)
(-3.33698e-15 -7.15985 12.2246)
(-6.80712e-15 -7.64666 12.7529)
(-8.23479e-15 -4.63089 8.56667)
(1.448e-17 3.09714 14.7625)
(8.03093e-16 -0.419155 1.45062)
(1.2284e-15 -0.119332 -1.19486)
(1.36816e-15 -0.0965045 -0.848239)
(1.54499e-15 -0.00337084 -0.939143)
(2.29346e-15 0.149959 -1.21345)
(1.52681e-15 0.104867 -0.87121)
(1.42346e-15 0.185168 -0.888088)
(1.01661e-15 0.243657 -0.87449)
(3.61037e-15 0.374524 -1.18397)
(2.61079e-15 0.345212 -0.874576)
(2.28633e-15 0.424305 -0.826843)
(2.81675e-15 0.573806 -1.10073)
(1.86517e-15 0.50221 -0.795457)
(1.72707e-15 0.594312 -0.783713)
(1.50892e-15 0.618716 -0.7454)
(1.98767e-15 0.768603 -0.969312)
(1.55272e-15 0.677995 -0.699566)
(1.3179e-15 0.749104 -0.64465)
(1.77857e-15 0.92099 -0.824273)
(1.20535e-15 0.765258 -0.589706)
(1.10554e-15 0.865194 -0.569402)
(1.09032e-15 0.861705 -0.535532)
(1.519e-15 1.02663 -0.678835)
(9.63887e-16 0.849038 -0.494394)
(9.13925e-16 0.944692 -0.471867)
(6.52995e-16 0.937917 -0.434821)
(9.68745e-16 1.04752 -0.526894)
(4.77214e-16 0.858286 -0.373249)
(4.38426e-16 0.914286 -0.318934)
(8.14175e-16 1.03932 -0.319156)
(4.49216e-16 0.804166 -0.204761)
(5.4787e-16 0.88081 -0.156341)
(4.71825e-16 0.862697 -0.111287)
(8.55817e-16 0.943697 -0.00856589)
(6.3496e-16 0.734804 0.0205884)
(5.58951e-16 0.776636 0.0444545)
(6.56653e-16 0.83572 0.213058)
(2.31269e-16 0.612235 0.160806)
(-5.50392e-17 0.652084 0.182412)
(-1.94069e-16 0.628823 0.179924)
(-8.37048e-16 0.65077 0.375158)
(-1.054e-15 0.46398 0.252085)
(-1.42267e-15 0.490579 0.250055)
(-1.69855e-15 0.468873 0.218274)
(-2.68681e-15 0.49703 0.440348)
(-2.53855e-15 0.372926 0.324994)
(-2.38117e-15 0.390256 0.259726)
(-3.0689e-15 0.432529 0.454894)
(-1.89311e-15 0.361891 0.355691)
(-1.73034e-15 0.367224 0.308158)
(-1.46243e-15 0.349381 0.230811)
(-1.62388e-15 0.345764 0.464006)
(-8.33754e-16 0.271755 0.333071)
(-5.85741e-16 0.265687 0.251644)
(9.70815e-17 0.27226 0.122054)
(6.69024e-16 0.232412 0.117414)
(9.57528e-16 0.0784829 -0.0193292)
(1.54317e-16 0.0910236 0.00789277)
(1.94396e-15 0.27242 -0.899908)
(1.5292e-15 -0.290053 -0.625998)
(2.14535e-15 -0.10933 -0.931072)
(3.47011e-15 0.0590531 -1.61912)
(3.87847e-15 -0.390241 -2.40246)
(-1.3645e-15 -0.603781 -0.899403)
(-2.2742e-15 -0.31964 -0.586779)
(-5.53951e-15 -0.980225 1.21219)
(-5.63304e-15 -1.3992 2.27327)
(-5.43941e-15 -1.51792 2.3433)
(-5.66209e-15 -1.49119 2.70471)
(-8.40046e-15 -2.6156 5.27799)
(-6.77299e-15 -2.99724 4.96033)
(-6.69678e-15 -3.38588 5.07888)
(-6.62823e-15 -3.36606 5.30281)
(-8.95168e-15 -5.32161 8.38155)
(-6.30564e-15 -5.35545 6.72559)
(-6.11027e-15 -5.43669 6.96872)
(-7.39785e-15 -7.79874 10.1617)
(-4.8992e-15 -7.60316 7.77872)
(-4.90145e-15 -7.87172 8.50021)
(-6.21528e-15 -8.51243 10.7571)
(-5.52664e-15 -8.32007 10.6453)
(-5.12218e-15 -8.41353 10.8903)
(-3.60045e-15 -9.57117 12.0381)
(-3.7652e-15 -8.97634 11.2141)
(-3.43108e-15 -9.13075 11.7642)
(-3.41895e-15 -9.03952 11.8879)
(-3.59226e-15 -9.0563 11.9895)
(-3.93842e-15 -9.03209 12.1452)
(-4.33415e-15 -9.04659 12.308)
(-4.53626e-15 -9.04371 12.4433)
(-4.61277e-15 -9.02218 12.563)
(-5.65785e-15 -9.75392 13.4515)
(-5.22023e-15 -9.52877 13.017)
(-5.16928e-15 -9.55958 13.2051)
(-4.50967e-15 -9.57992 13.1567)
(-3.41073e-15 -9.56396 12.8448)
(-2.64177e-15 -9.62036 12.988)
(-1.55829e-15 -9.63757 13.1343)
(-4.72977e-16 -9.69126 13.3852)
(5.58552e-16 -9.68688 13.7198)
(2.35895e-15 -10.6398 15.3071)
(3.00817e-15 -10.2701 14.2302)
(3.64523e-15 -10.3702 14.5221)
(3.61705e-15 -10.3824 14.7119)
(3.53211e-15 -10.4443 14.9701)
(3.52653e-15 -10.4911 15.186)
(3.39568e-15 -10.5579 15.3336)
(2.37898e-15 -10.6158 15.4908)
(1.32942e-15 -10.7272 15.7612)
(1.91521e-16 -10.7572 16.1521)
(-3.29154e-15 -11.6466 18.6566)
(-1.87309e-15 -11.1544 17.6611)
(-3.13649e-15 -11.2518 18.2398)
(-3.99656e-15 -11.2885 18.6247)
(-5.13179e-15 -11.3939 19.0802)
(-6.34405e-15 -11.4296 19.5472)
(-7.64958e-15 -11.5806 20.2181)
(-8.98378e-15 -11.6581 20.6158)
(-1.02838e-14 -11.7629 20.9645)
(-1.45861e-14 -11.7001 22.2374)
(-1.1083e-14 -11.4361 21.351)
(-1.12661e-14 -11.4886 21.9387)
(-1.02818e-14 -11.5875 22.2525)
(-8.32378e-15 -11.5829 22.1979)
(-5.87144e-15 -11.6805 22.1566)
(-3.15195e-15 -11.7368 22.0361)
(-6.24005e-16 -11.7246 21.9759)
(8.7158e-16 -11.9624 22.2919)
(5.64429e-15 -10.2046 20.5461)
(5.469e-15 -10.7266 20.9642)
(6.5673e-15 -10.6794 20.9137)
(6.45769e-15 -10.691 20.9871)
(6.53389e-15 -10.7265 21.2239)
(6.6127e-15 -10.7151 21.1467)
(6.89479e-15 -10.6723 20.9268)
(7.33042e-15 -10.6608 20.6439)
(7.83987e-15 -10.7255 20.2499)
(9.40719e-15 -8.26159 17.0926)
(8.62522e-15 -9.02679 18.5581)
(8.75047e-15 -8.83671 17.6288)
(8.48917e-15 -8.90128 16.8815)
(8.10287e-15 -8.81053 15.9079)
(7.66223e-15 -8.74072 14.9007)
(7.89516e-15 -8.64659 14.0656)
(6.91541e-15 -8.43874 12.7465)
(6.29923e-15 -8.21837 11.4221)
(5.7165e-15 -8.04984 10.0924)
(4.05073e-15 -4.81006 3.82359)
(5.45443e-15 -6.29984 7.86765)
(5.04599e-15 -5.79978 6.38882)
(4.5363e-15 -5.84826 5.92933)
(4.07729e-15 -5.50171 5.19017)
(3.65415e-15 -5.40349 4.53595)
(2.92303e-15 -5.20594 3.29527)
(2.26841e-15 -4.83693 2.15218)
(2.48454e-15 -4.84574 2.35616)
(9.82732e-16 -3.79379 -0.488536)
(2.11649e-15 -4.08972 1.76163)
(1.91921e-15 -4.03844 0.97927)
(8.4835e-17 -2.73119 -2.02961)
(1.17621e-15 -4.85754 -0.785394)
(8.23551e-16 -3.64862 -0.87084)
(7.13633e-16 -3.39767 -0.521774)
(9.37509e-16 -4.35373 -0.795031)
(6.54184e-16 -3.01032 -0.443278)
(9.53579e-16 -3.96811 -0.690334)
(7.77989e-16 -3.6427 -0.491121)
(5.79796e-16 -2.9964 -0.324735)
(7.9696e-16 -3.69614 -0.507545)
(6.05971e-16 -3.4294 -0.368689)
(4.59333e-16 -2.96202 -0.235783)
(5.58916e-16 -3.96233 -0.356464)
(3.64678e-16 -2.72992 -0.198191)
(4.76244e-16 -3.61919 -0.310131)
(3.58048e-16 -3.24029 -0.255331)
(2.82961e-16 -2.8477 -0.169391)
(3.35902e-16 -3.80781 -0.264924)
(2.09399e-16 -2.61012 -0.153934)
(3.40229e-16 -3.5019 -0.233957)
(3.04061e-16 -3.25568 -0.2193)
(2.62572e-16 -2.67169 -0.146521)
(3.65849e-16 -3.32284 -0.237233)
(2.34075e-16 -3.11434 -0.218235)
(1.26675e-16 -2.68684 -0.148495)
(1.33846e-16 -3.62759 -0.223838)
(4.34382e-17 -2.49445 -0.138753)
(6.26437e-18 -3.32839 -0.198623)
(-3.09282e-17 -3.01892 -0.190523)
(-7.60834e-18 -2.65007 -0.129316)
(2.80285e-17 -3.58203 -0.17839)
(7.0996e-17 -2.45545 -0.0985618)
(1.81517e-16 -3.32466 -0.108333)
(2.37211e-16 -3.15159 -0.101664)
(2.46186e-16 -2.57981 -0.0428532)
(4.46857e-16 -3.24519 -0.031651)
(4.19639e-16 -3.07948 -0.0148501)
(3.26316e-16 -2.66347 0.0339889)
(4.88609e-16 -3.62984 0.0727288)
(3.57905e-16 -2.5181 0.0942258)
(5.3049e-16 -3.38148 0.175292)
(4.48945e-16 -3.06569 0.125487)
(3.67368e-16 -2.70405 0.122808)
(4.03622e-16 -3.66707 0.150329)
(2.07913e-16 -2.5284 0.119538)
(2.43214e-16 -3.42717 0.17803)
(9.95466e-17 -3.19048 0.0867185)
(2.16852e-17 -2.6302 0.0864317)
(-5.94225e-18 -3.29985 0.0945683)
(-5.14741e-17 -3.07602 0.0336881)
(-5.39383e-17 -2.66126 0.050751)
(-8.06786e-17 -3.60789 0.0472449)
(-4.30556e-17 -2.48308 0.0520158)
(-1.07886e-16 -3.32716 0.0789432)
(-1.04141e-16 -2.96438 0.0192726)
(-1.23546e-16 -2.60297 0.0292309)
(-1.79694e-16 -3.50878 -0.000866079)
(-1.44024e-16 -2.39028 -0.00282779)
(-2.18994e-16 -3.22698 -0.0325754)
(-2.08317e-16 -2.94952 -0.116848)
(-1.88853e-16 -2.40744 -0.096872)
(-2.89343e-16 -2.99635 -0.206257)
(-2.31726e-16 -2.74061 -0.253403)
(-1.76891e-16 -2.33271 -0.203611)
(-2.43253e-16 -3.13897 -0.336327)
(-1.63105e-16 -2.09214 -0.25614)
(-2.44336e-16 -2.78956 -0.424636)
(-2.05835e-16 -2.40737 -0.445904)
(-1.78445e-16 -2.05633 -0.369773)
(-2.29699e-16 -2.74821 -0.562891)
(-1.68814e-16 -1.7692 -0.42051)
(-2.40455e-16 -2.38866 -0.658858)
(-1.79942e-16 -2.08601 -0.635029)
(-1.47626e-16 -1.61657 -0.523536)
(-2.25829e-16 -2.00715 -0.815086)
(-2.4256e-16 -1.73307 -0.758813)
(-2.03011e-16 -1.3789 -0.618464)
(-2.81411e-16 -1.9209 -0.893708)
(-2.23286e-16 -1.08482 -0.668815)
(-3.41909e-16 -1.39535 -1.04465)
(5.10065e-59 0.0951098 0.0989407)
(3.66348e-58 0.124427 0.0970818)
(1.27829e-57 0.143966 0.0977177)
(1.78265e-57 0.162731 0.0978704)
(-1.0907e-56 0.181212 0.0988537)
(-9.3112e-56 0.19886 0.0999259)
(-3.33048e-55 0.216337 0.101452)
(-2.0888e-55 0.233481 0.10322)
(4.60886e-54 0.250542 0.105338)
(2.75052e-53 0.267521 0.107739)
(6.34955e-53 0.284533 0.110458)
(-1.2605e-52 0.301618 0.113471)
(-1.61732e-51 0.318848 0.116789)
(-6.25453e-51 0.336266 0.120406)
(-9.49892e-51 0.353927 0.124323)
(3.61364e-50 0.371873 0.128541)
(4.03659e-49 0.390149 0.133062)
(2.41191e-48 0.408794 0.137887)
(8.48999e-48 0.427848 0.143019)
(-9.96021e-48 0.447349 0.148462)
(-3.33456e-46 0.467333 0.154222)
(-1.85639e-45 0.487835 0.160304)
(-1.91137e-45 0.508892 0.166713)
(3.7594e-44 0.530537 0.173458)
(2.49506e-43 0.552805 0.180547)
(4.00909e-43 0.57573 0.187988)
(-3.65657e-42 0.599346 0.195792)
(-2.6595e-41 0.623687 0.203968)
(-4.99226e-41 0.648788 0.212527)
(3.05456e-40 0.674679 0.221479)
(2.37337e-39 0.701392 0.230836)
(4.93105e-39 0.728957 0.240608)
(-2.12708e-38 0.757396 0.250803)
(-1.79357e-37 0.78673 0.261428)
(-4.13639e-37 0.816969 0.272486)
(1.16172e-36 0.848113 0.283978)
(1.13899e-35 0.880148 0.295896)
(2.99024e-35 0.913039 0.308225)
(-4.23876e-35 0.946733 0.320942)
(-5.92428e-34 0.981147 0.334011)
(-1.8357e-33 1.01617 0.347382)
(2.61325e-34 1.05167 0.36099)
(2.38621e-32 1.08748 0.374754)
(9.20304e-32 1.12342 0.388577)
(9.20279e-32 1.1593 0.402348)
(-6.47318e-31 1.19495 0.415941)
(-3.52041e-30 1.23019 0.429218)
(-7.28321e-30 1.26491 0.442029)
(5.63263e-30 1.29901 0.454207)
(8.99611e-29 1.33242 0.465568)
(3.01172e-28 1.36508 0.475896)
(4.01468e-28 1.39692 0.48493)
(-9.26407e-28 1.42778 0.492344)
(-6.80594e-27 1.45739 0.49771)
(-1.94253e-26 1.48526 0.500448)
(-2.56026e-26 1.51051 0.499756)
(3.74197e-26 1.53172 0.49452)
(3.18793e-25 1.54662 0.483245)
(9.97941e-25 1.55206 0.464013)
(1.90602e-24 1.54377 0.434505)
(1.48783e-24 1.51631 0.392061)
(-5.10365e-24 1.46251 0.333964)
(-2.82836e-23 1.37334 0.257621)
(-8.42728e-23 1.23539 0.161727)
(-1.84755e-22 1.02934 0.0468444)
(-2.87022e-22 0.723775 -0.0820961)
(-2.56298e-22 0.187707 -0.241831)
(-4.69361e-23 -0.556938 -0.342931)
(-2.33732e-23 -1.01411 -0.383612)
(-1.44603e-23 -1.45689 -0.393976)
(-2.26797e-23 -1.8424 -0.41335)
(3.26709e-23 -2.23484 -0.37903)
(-1.18222e-22 -2.54053 -0.383707)
(5.93821e-22 -2.95992 -0.29321)
(-2.48251e-21 -3.1014 -0.362325)
(2.71178e-20 -3.68083 -0.169742)
(-4.14614e-19 -3.42042 -0.485971)
(7.37024e-18 -4.51752 -0.0822286)
(1.22057e-18 -5.15172 -0.855865)
(1.3863e-58 0.0955051 0.110123)
(1.17975e-57 0.124684 0.107465)
(4.52967e-57 0.143884 0.10804)
(8.23234e-57 0.16258 0.108023)
(-2.74777e-56 0.180908 0.109016)
(-2.99316e-55 0.198463 0.110104)
(-1.20306e-54 0.215826 0.111717)
(-1.37451e-54 0.232872 0.113598)
(1.35535e-53 0.249831 0.11587)
(9.45442e-53 0.266712 0.118455)
(2.5462e-52 0.283625 0.121387)
(-2.86346e-52 0.300614 0.124642)
(-5.55138e-51 0.317746 0.128229)
(-2.33691e-50 0.335068 0.132139)
(-3.56863e-50 0.352633 0.136376)
(1.56e-49 0.370482 0.140938)
(1.49027e-48 0.388661 0.145826)
(7.33029e-48 0.407208 0.151042)
(2.10536e-47 0.426163 0.156588)
(-4.20999e-47 0.445564 0.16247)
(-9.32969e-46 0.465446 0.16869)
(-5.06053e-45 0.485845 0.175256)
(-5.70215e-45 0.506796 0.182174)
(9.93053e-44 0.528332 0.189451)
(6.88852e-43 0.550489 0.197096)
(1.27028e-42 0.573301 0.205119)
(-9.23122e-42 0.5968 0.213528)
(-7.33459e-41 0.621021 0.222335)
(-1.58528e-40 0.645998 0.23155)
(7.40206e-40 0.671762 0.241185)
(6.50104e-39 0.698346 0.251249)
(1.54644e-38 0.725777 0.261752)
(-4.91533e-38 0.754081 0.272702)
(-4.85659e-37 0.783278 0.284104)
(-1.26863e-36 0.81338 0.295956)
(2.48104e-36 0.844388 0.308256)
(3.03093e-35 0.876291 0.320989)
(8.89908e-35 0.909057 0.334134)
(-7.19855e-35 0.942635 0.347657)
(-1.53543e-33 0.976948 0.361509)
(-5.27013e-33 1.01189 0.375629)
(-1.48304e-33 1.04733 0.389937)
(5.92058e-32 1.08311 0.404339)
(2.53586e-31 1.11905 0.418727)
(3.3188e-31 1.15498 0.43298)
(-1.46001e-30 1.1907 0.446967)
(-9.23546e-30 1.22608 0.460552)
(-2.15942e-29 1.26097 0.473585)
(4.66882e-30 1.2953 0.485908)
(2.19225e-28 1.32901 0.497335)
(8.16145e-28 1.36204 0.507647)
(1.30233e-27 1.39434 0.51657)
(-1.68255e-27 1.42579 0.523748)
(-1.69624e-26 1.45614 0.5287)
(-5.31309e-26 1.48498 0.530759)
(-8.12113e-26 1.51152 0.528979)
(6.17587e-26 1.53443 0.522042)
(7.90604e-25 1.55159 0.508194)
(2.65122e-24 1.55996 0.485234)
(5.31327e-24 1.55542 0.450572)
(4.75442e-24 1.53256 0.401301)
(-1.17667e-23 1.48423 0.334558)
(-7.11717e-23 1.40115 0.247664)
(-2.13652e-22 1.26946 0.139494)
(-4.63027e-22 1.06912 0.011415)
(-7.00984e-22 0.768312 -0.13222)
(-6.12137e-22 0.241761 -0.309538)
(-8.44358e-23 -0.586581 -0.412658)
(-2.26034e-23 -1.0523 -0.419254)
(-1.42234e-23 -1.49352 -0.412319)
(-2.27417e-23 -1.88186 -0.424087)
(3.22677e-23 -2.27356 -0.384146)
(-1.18181e-22 -2.5812 -0.384541)
(5.93777e-22 -2.98925 -0.29126)
(-2.51536e-21 -3.13719 -0.35873)
(2.78937e-20 -3.68501 -0.166382)
(-4.26635e-19 -3.44494 -0.4775)
(7.32559e-18 -4.48144 -0.0818164)
(2.48583e-18 -5.05539 -0.84817)
(2.96225e-58 0.0957528 0.116131)
(3.08657e-57 0.124846 0.113161)
(1.2906e-56 0.143848 0.113697)
(2.79e-56 0.1625 0.113593)
(-5.21278e-56 0.180744 0.114593)
(-7.78979e-55 0.198247 0.115692)
(-3.46724e-54 0.215547 0.117355)
(-5.37854e-54 0.232541 0.1193)
(3.18555e-53 0.249444 0.121659)
(2.60575e-52 0.266273 0.124345)
(7.91305e-52 0.283133 0.127397)
(-4.10246e-52 0.30007 0.130785)
(-1.51817e-50 0.317151 0.134521)
(-6.92395e-50 0.334423 0.138594)
(-1.10971e-49 0.351936 0.143006)
(4.88093e-49 0.369734 0.147757)
(4.42068e-48 0.387861 0.152847)
(1.87734e-47 0.406357 0.158277)
(4.10114e-47 0.42526 0.164051)
(-1.46793e-46 0.444608 0.170172)
(-2.18528e-45 0.464436 0.176645)
(-1.10769e-44 0.484781 0.183476)
(-1.18681e-44 0.505676 0.190672)
(2.1769e-43 0.527155 0.19824)
(1.52565e-42 0.549254 0.206189)
(3.02503e-42 0.572006 0.214528)
(-1.91628e-41 0.595444 0.223268)
(-1.61957e-40 0.619602 0.23242)
(-3.83307e-40 0.644514 0.241994)
(1.46155e-39 0.670212 0.252)
(1.42328e-38 0.696728 0.26245)
(3.71827e-38 0.724091 0.273353)
(-9.15537e-38 0.752326 0.284714)
(-1.0497e-36 0.781454 0.296537)
(-3.0019e-36 0.811487 0.308821)
(4.17013e-36 0.84243 0.321559)
(6.43327e-35 0.87427 0.334733)
(2.05677e-34 0.906979 0.348317)
(-7.87896e-35 0.940508 0.362271)
(-3.17349e-33 0.974782 0.376541)
(-1.18249e-32 1.0097 0.391057)
(-7.02941e-33 1.04513 0.405733)
(1.1711e-31 1.08091 0.420468)
(5.49158e-31 1.11688 0.435148)
(8.51426e-31 1.15284 0.449651)
(-2.60293e-30 1.18863 0.463844)
(-1.91293e-29 1.22409 0.477594)
(-4.90636e-29 1.25909 0.490755)
(-8.13064e-30 1.29355 0.503172)
(4.22852e-28 1.32741 0.514662)
(1.72667e-27 1.36064 0.525003)
(3.11211e-27 1.39319 0.533911)
(-2.15959e-27 1.42494 0.541014)
(-3.32551e-26 1.45571 0.545802)
(-1.12635e-25 1.4851 0.547555)
(-1.90638e-25 1.51238 0.545247)
(6.26274e-26 1.53628 0.537438)
(1.53445e-24 1.55478 0.522229)
(5.47274e-24 1.56488 0.497267)
(1.14216e-23 1.56251 0.459822)
(1.13259e-23 1.54228 0.406852)
(-2.08851e-23 1.49699 0.335413)
(-1.40016e-22 1.41722 0.242745)
(-4.25868e-22 1.28876 0.127714)
(-9.187e-22 1.09122 -0.00785473)
(-1.36998e-21 0.791866 -0.161107)
(-1.19951e-21 0.266215 -0.338471)
(-1.77403e-22 -0.555396 -0.489829)
(-2.46386e-23 -1.03558 -0.483402)
(-1.34244e-23 -1.47733 -0.446707)
(-2.2738e-23 -1.86935 -0.442677)
(3.17134e-23 -2.26382 -0.394099)
(-1.18097e-22 -2.57843 -0.387471)
(5.93717e-22 -2.98168 -0.289601)
(-2.55731e-21 -3.14125 -0.353647)
(2.88713e-20 -3.66509 -0.161338)
(-4.40648e-19 -3.44758 -0.465098)
(7.27005e-18 -4.43523 -0.0734637)
(3.61886e-18 -4.9668 -0.847966)
(5.59048e-58 0.096147 0.123068)
(7.84011e-57 0.125101 0.119817)
(3.58544e-56 0.143822 0.120325)
(8.93574e-56 0.162402 0.120146)
(-7.50594e-56 0.180519 0.121163)
(-1.96664e-54 0.197943 0.122286)
(-9.73498e-54 0.215151 0.124015)
(-1.88714e-53 0.232065 0.126043)
(7.00521e-53 0.248886 0.12851)
(6.98678e-52 0.265637 0.131324)
(2.37888e-51 0.282419 0.134522)
(4.29034e-53 0.29928 0.138074)
(-4.00114e-50 0.316284 0.141991)
(-1.99967e-49 0.33348 0.146261)
(-3.51675e-49 0.350918 0.150887)
(1.37992e-48 0.368641 0.155866)
(1.27846e-47 0.386692 0.161201)
(4.94537e-47 0.405112 0.16689)
(7.83135e-47 0.423938 0.172939)
(-4.80042e-46 0.443208 0.179349)
(-5.21537e-45 0.462958 0.186127)
(-2.39462e-44 0.483222 0.193277)
(-2.16534e-44 0.504035 0.200808)
(4.80151e-43 0.525431 0.208726)
(3.32532e-42 0.547444 0.217042)
(6.90393e-42 0.570107 0.225763)
(-3.9457e-41 0.593455 0.234902)
(-3.51252e-40 0.617521 0.244468)
(-8.96179e-40 0.642338 0.254474)
(2.81756e-39 0.667939 0.264929)
(3.05719e-38 0.694355 0.275844)
(8.67843e-38 0.721617 0.287227)
(-1.62824e-37 0.749749 0.299085)
(-2.22457e-36 0.778775 0.311418)
(-6.91617e-36 0.808707 0.324225)
(6.29085e-36 0.83955 0.337494)
(1.33804e-34 0.871296 0.351205)
(4.64116e-34 0.903919 0.365325)
(-4.60079e-36 0.937372 0.37981)
(-6.41924e-33 0.971583 0.394596)
(-2.59639e-32 1.00645 0.409606)
(-2.2833e-32 1.04186 0.424745)
(2.25747e-31 1.07764 0.439904)
(1.16547e-30 1.11364 0.454961)
(2.07508e-30 1.14965 0.469789)
(-4.40014e-30 1.18553 0.484255)
(-3.8828e-29 1.2211 0.498225)
(-1.08517e-28 1.25624 0.51156)
(-5.29019e-29 1.29089 0.524105)
(7.94465e-28 1.32498 0.535683)
(3.5749e-27 1.3585 0.546069)
(7.14118e-27 1.3914 0.554974)
(-1.73172e-27 1.42362 0.562007)
(-6.36552e-26 1.45498 0.56663)
(-2.33374e-25 1.48515 0.568073)
(-4.30832e-25 1.51349 0.56522)
(-2.75493e-27 1.53883 0.556501)
(2.90633e-24 1.55923 0.539851)
(1.1068e-23 1.5718 0.512737)
(2.40329e-23 1.57254 0.472253)
(2.59937e-23 1.55609 0.415185)
(-3.5614e-23 1.51521 0.338459)
(-2.71192e-22 1.44028 0.239176)
(-8.37822e-22 1.31668 0.116129)
(-1.80083e-21 1.12355 -0.0285576)
(-2.64756e-21 0.826544 -0.193498)
(-2.32114e-21 0.308719 -0.378132)
(-3.83204e-22 -0.534327 -0.555641)
(-3.29994e-23 -1.03523 -0.569029)
(-1.17521e-23 -1.47842 -0.501324)
(-2.25604e-23 -1.86996 -0.470486)
(3.10553e-23 -2.26472 -0.408871)
(-1.17958e-22 -2.58358 -0.392763)
(5.93576e-22 -2.98134 -0.288143)
(-2.60291e-21 -3.14917 -0.347686)
(2.99015e-20 -3.65238 -0.154601)
(-4.54143e-19 -3.45269 -0.450302)
(7.2127e-18 -4.39868 -0.062458)
(4.74299e-18 -4.90278 -0.797435)
(8.0123e-58 0.0965289 0.129615)
(1.91678e-56 0.125346 0.126187)
(9.6662e-56 0.143809 0.126674)
(2.72562e-55 0.162316 0.126441)
(-1.59733e-56 0.180314 0.127481)
(-4.77293e-54 0.19766 0.128637)
(-2.65093e-53 0.214781 0.130434)
(-6.14155e-53 0.231621 0.132548)
(1.38675e-52 0.248364 0.135125)
(1.81157e-51 0.265042 0.138065)
(6.90133e-51 0.281752 0.141409)
(3.48813e-51 0.298541 0.145123)
(-1.00949e-49 0.315475 0.149218)
(-5.59797e-49 0.332601 0.153682)
(-1.10332e-48 0.349968 0.158518)
(3.56812e-48 0.367622 0.163721)
(3.57856e-47 0.385603 0.169294)
(1.32326e-46 0.403952 0.175237)
(1.50515e-46 0.422708 0.181553)
(-1.47455e-45 0.441906 0.188246)
(-1.26346e-44 0.461583 0.19532)
(-5.10818e-44 0.481773 0.202782)
(-3.06073e-44 0.50251 0.210639)
(1.06575e-42 0.523829 0.218898)
(7.0966e-42 0.545763 0.22757)
(1.4973e-41 0.568346 0.236663)
(-8.0561e-41 0.59161 0.246189)
(-7.43118e-40 0.615591 0.256159)
(-2.01259e-39 0.640321 0.266584)
(5.27515e-39 0.665832 0.277476)
(6.39227e-38 0.692158 0.288843)
(1.95275e-37 0.719327 0.300694)
(-2.71157e-37 0.747367 0.313035)
(-4.58255e-36 0.776299 0.325865)
(-1.53989e-35 0.806141 0.339181)
(7.63204e-36 0.836897 0.352968)
(2.70148e-34 0.868561 0.367202)
(1.01415e-33 0.901111 0.381846)
(3.28157e-34 0.934502 0.396849)
(-1.25762e-32 0.968666 0.41214)
(-5.52923e-32 1.00351 0.427635)
(-6.32582e-32 1.0389 0.443228)
(4.18691e-31 1.0747 0.458803)
(2.40079e-30 1.11073 0.474232)
(4.81229e-30 1.14682 0.489383)
(-6.81738e-30 1.18278 0.504121)
(-7.64165e-29 1.21846 0.518315)
(-2.31926e-28 1.25375 0.53183)
(-1.78464e-28 1.28857 0.544516)
(1.43368e-27 1.32288 0.556199)
(7.17516e-27 1.35666 0.566655)
(1.57047e-26 1.38989 0.575589)
(1.89705e-27 1.42252 0.582597)
(-1.17569e-25 1.45444 0.587118)
(-4.68647e-25 1.48535 0.588335)
(-9.34933e-25 1.5147 0.585052)
(-2.61967e-25 1.54143 0.575574)
(5.31652e-24 1.56368 0.557676)
(2.1744e-23 1.57865 0.528651)
(4.9072e-23 1.58239 0.485422)
(5.70631e-23 1.56957 0.424603)
(-5.78476e-23 1.53291 0.342976)
(-5.12956e-22 1.4626 0.237468)
(-1.60846e-21 1.3436 0.106739)
(-3.43521e-21 1.1547 -0.0470185)
(-4.95654e-21 0.859706 -0.224022)
(-4.29712e-21 0.348874 -0.417011)
(-8.49267e-22 -0.517404 -0.620788)
(-6.19078e-23 -1.04392 -0.666113)
(-7.63153e-24 -1.4951 -0.578922)
(-2.20418e-23 -1.8848 -0.512093)
(3.02781e-23 -2.27737 -0.429907)
(-1.1774e-22 -2.5989 -0.40124)
(5.93261e-22 -2.98952 -0.287298)
(-2.65085e-21 -3.1641 -0.341008)
(3.09406e-20 -3.64537 -0.146145)
(-4.66403e-19 -3.46292 -0.433343)
(7.15921e-18 -4.36518 -0.0471466)
(5.27463e-18 -4.83883 -0.792613)
(2.20753e-58 0.0969524 0.136087)
(4.48716e-56 0.125612 0.132548)
(2.52717e-55 0.143805 0.133024)
(7.96673e-55 0.162226 0.132758)
(4.52951e-55 0.180093 0.133827)
(-1.10714e-53 0.197354 0.135024)
(-6.99809e-53 0.214379 0.136896)
(-1.88567e-52 0.231135 0.139103)
(2.27576e-52 0.247794 0.141795)
(4.53381e-51 0.264392 0.144868)
(1.9338e-50 0.281021 0.148363)
(1.85e-50 0.297733 0.152245)
(-2.42911e-49 0.314589 0.156524)
(-1.5174e-48 0.331638 0.161188)
(-3.37753e-48 0.34893 0.166238)
(8.42626e-48 0.366506 0.171671)
(9.67373e-47 0.384411 0.177489)
(3.56286e-46 0.402684 0.183691)
(3.12171e-46 0.421362 0.19028)
(-4.27008e-45 0.440482 0.197261)
(-3.10491e-44 0.460079 0.204639)
(-1.08712e-43 0.480188 0.212418)
(-1.62564e-44 0.500843 0.220608)
(2.39687e-42 0.522078 0.229215)
(1.48986e-41 0.543926 0.238249)
(3.07973e-41 0.56642 0.247722)
(-1.64878e-40 0.589595 0.257643)
(-1.53722e-39 0.613482 0.268024)
(-4.34359e-39 0.638117 0.278876)
(9.67268e-39 0.663531 0.290212)
(1.30254e-37 0.689758 0.30204)
(4.23823e-37 0.716826 0.314368)
(-4.17093e-37 0.744765 0.327202)
(-9.18031e-36 0.773598 0.340539)
(-3.31432e-35 0.803341 0.354375)
(4.54145e-36 0.834003 0.368691)
(5.29451e-34 0.86558 0.383462)
(2.14601e-33 0.898051 0.398644)
(1.33717e-33 0.931376 0.414179)
(-2.38486e-32 0.965491 0.429992)
(-1.14187e-31 1.0003 0.445988)
(-1.58863e-31 1.03569 0.462054)
(7.44991e-31 1.07151 0.478063)
(4.79894e-30 1.10759 0.493882)
(1.06741e-29 1.14375 0.509374)
(-9.23655e-30 1.17981 0.524403)
(-1.45746e-28 1.21562 0.538839)
(-4.79424e-28 1.25107 0.552552)
(-4.89597e-28 1.28608 0.565399)
(2.47565e-27 1.32061 0.577208)
(1.39648e-26 1.35467 0.587759)
(3.3223e-26 1.38826 0.596752)
(1.40545e-26 1.42135 0.603775)