/*--------------------------------*- C++ -*----------------------------------*\
| =========                 |                                                 |
| \\      /  F ield         | OpenFOAM: The Open Source CFD Toolbox           |
|  \\    /   O peration     | Version:  4.1                                   |
|   \\  /    A nd           | Web:      www.OpenFOAM.org                      |
|    \\/     M anipulation  |                                                 |
\*---------------------------------------------------------------------------*/
FoamFile
{
    version     2.0;
    format      ascii;
    class       volScalarField;
    location    "24";
    object      p;
}
// * * * * * * * * * * * * * * * * * * * * * * * * * * * * * * * * * * * * * //

dimensions      [0 2 -2 0 0 0 0];

internalField   nonuniform List<scalar> 
6785
(
28514.4
28447.9
28397
28346.9
28300.6
28257
28216
28177.3
28140.9
28106
28072.1
28040.6
28011.9
27977.7
27943.3
27967.8
27949.8
27953.5
27948.7
27945.7
27942.4
27939.6
27937.4
27936.2
27935.9
27936.5
27938.6
27943
27946.4
27946.4
27920.9
27914.5
27924.1
27922.6
27925.7
27927.5
27929.5
27931.3
27933
27934.5
27935.9
27937.1
27938.1
27938.7
27939.8
27957.8
27954.8
27959
27954.5
27954.7
27952.3
27950.6
27948.5
27946.5
27944.5
27942.6
27941.2
27941.2
27942
27943.7
27957.7
27955.6
27958.8
27955.5
27957.3
27956.6
27956.8
27957.1
27957.5
27958
27958.8
27959.7
27961.1
27962.3
27963.9
27966
27965.4
27968.8
27967.1
27969.8
27970.1
27971.5
27972.7
27973.9
27975.1
27976.4
27977.6
27978.9
27979.8
27980.8
27980.5
27980.9
27983.7
27982.5
27984.7
27984.8
27985.8
27986.5
27987.1
27987.8
27988.4
27989
27989.6
27990.2
27990.9
27991.3
27992.1
27994
27993
27994.8
27994.5
27995.4
27995.7
27996.1
27996.3
27996.4
27996.6
27996.9
27997.2
27997.6
27997.5
27997.7
27999.1
27997.9
27999.2
27998.5
27999
27998.8
27998.7
27998.3
27997.9
27997.6
27997.3
27997.3
27997
27995.9
27995.1
27995.7
27994.2
27994.7
27993.6
27993.6
27992.8
27992.2
27991.3
27990.4
27989.6
27988.9
27988.2
27987
27981.8
27980.2
27980
27978.1
27977.9
27976.3
27975.6
27974.4
27973.6
27972.6
27971.8
27971.2
27970.3
27969
27967.9
27963
27961.7
27961.1
27959.5
27958.9
27957.3
27956.5
27955.2
27954.2
27953.2
27952.4
27951.7
27950.9
27950.4
27950.7
27954.3
27953.8
27953.6
27952.4
27952.2
27951.1
27950.7
27950.1
27949.8
27949.7
27949.9
27950.3
27950.9
27951.6
27952.7
27952.1
27955
27956.5
27957.6
27959.3
27960.4
27962.1
27963.4
27964.9
27966.2
27967.4
27968.3
27969.3
27970
27970.8
27998.5
27991.8
27985.3
27979.3
27974.5
27970.7
27968.1
27966.3
27964.9
27964
27963.3
27963.9
27964.8
27966.1
27968.7
28069.8
28069.8
28069.9
28069.8
28069.9
28069.8
28069.9
28069.8
28069.8
28069.8
28069.8
28069.8
28069.8
28069.8
28069.8
28069.8
28069.8
28069.7
28069.7
28069.7
28069.7
28069.7
28069.7
28069.7
28069.7
28069.6
28069.6
28069.7
28069.5
28069.5
28069.5
28069.5
28069.4
28069.3
28069.3
28069.2
28069.2
28069
28069
28069
28068.9
28068.8
28068.8
28068.7
28068.6
28068.6
28068.4
28068.3
28068.2
28068.1
28068
28067.8
28067.7
28067.7
28067.5
28067.4
28067.3
28067.3
28067.1
28067
28067.1
28066.8
28066.6
28066.4
28066.5
28066.2
28066.3
28065.8
28065.2
28064.9
28064.7
28062.3
28060.9
28060.5
28059.5
28052.7
28052.8
28050.6
28037.3
28036.7
28033.5
28030.9
28027.6
28033.6
28012.1
28011.1
28009.2
28008
28006.2
28006.4
28009.4
28009.1
28011.5
27999.2
27999.9
28001.7
28003.6
28003.5
28004.6
28005.4
28003.2
28000.6
27991.8
27992.5
27992.3
27993.1
27994.6
27995.2
27995.7
27996.3
27992.8
27981.4
27977.3
27977.3
27976.9
27976.2
27976.9
27978.6
27978.9
27974
27948.5
27952.7
27953.4
27953.4
27952.1
27950.7
27949.8
27951.1
27946.7
27911
27920.4
27917.5
27917.9
27917.6
27915.6
27914
27912.9
27907.2
27866.9
27885.8
27881.3
27878.8
27875.2
27874.4
27872.2
27868.7
27866.5
27860.7
27813.3
27844.9
27839.4
27837.9
27835.9
27830.9
27821.7
27819.7
27821.7
27777.7
27819.7
27809.2
27802.3
27815.5
27765.6
27770.7
27742.6
27776.4
27780.1
27701.4
27751.5
27765.6
27694.6
27712.7
27684.9
27725.5
27752.2
27701
27729.2
27728.4
27766.1
27805.4
27816.9
27857.4
27893.5
27934.8
27969.4
27998.1
28014.4
28004.5
28060.2
28080
28061.5
28083.1
28063.4
28123.6
28097.7
28025.1
28129.2
28075.4
28007.1
28037
27996.7
28129.3
28040.8
27962.7
27999.2
27971.6
28111.4
28002.2
27900.1
28094
27830.5
27648.1
27576.6
27369.2
27639.1
27436.7
27114.1
27337.2
27241.2
27901.7
28252.1
28068.1
29201.5
29699.2
29550.9
30781.9
30951.4
32648
33946.2
30899.2
37821.7
40162.4
20039
34274.6
48879.3
-783.52
-7159.9
-43101
-34948.6
47754.4
0.628616
1.2228
1.95106
2.52715
3.15212
3.73747
4.37622
5.07669
5.90309
6.86722
7.9273
9.00528
10.0498
11.0478
12.0448
13.0925
14.1888
15.3061
16.479
17.7211
19.051
20.688
22.8989
25.672
28.6705
31.6187
34.4469
36.9682
39.4956
42.3477
45.3026
48.2688
51.3715
54.5958
57.8534
61.0592
64.1532
67.105
69.8119
71.9845
73.2026
72.9915
70.8
65.6839
55.6296
37.7441
13.5815
-1.73909
1.67595
10.266
18.2244
20.5569
21.0011
22.09
23.3373
24.5824
25.8953
27.293
28.5493
29.3006
29.2669
28.1541
25.906
25.5181
28.8382
35.124
44.8448
59.4533
81.255
114.566
167.256
253.745
401.189
666.639
1158.12
2132.55
3928.11
5339.45
6631.79
1.80769
3.47291
5.58869
7.35568
9.31063
11.2119
13.2241
15.2647
17.3708
19.5288
21.7429
24.0528
26.5579
29.321
32.3497
35.5815
38.9065
42.2723
45.7994
49.4572
53.1554
57.2815
62.4073
68.5682
75.1377
81.6789
88.219
94.3339
100.614
107.614
114.746
121.639
128.568
135.526
142.421
149.193
155.814
162.304
168.606
174.265
178.367
179.655
176.565
166.941
147.732
116.67
79.1224
55.7895
52.9729
52.6172
61.3823
67.1932
70.0964
72.8036
74.8173
76.5472
78.0486
79.3308
80.419
81.2712
81.4824
79.756
75.0589
72.3853
75.1951
81.3698
90.7474
103.084
117.99
135.377
155.513
177.797
198.531
209.273
163.026
66.7758
-292.717
-2318.61
19896.4
2.87811
5.69515
9.27264
12.2234
15.4742
18.6175
21.9605
25.401
29.0497
32.9034
36.9347
41.1252
45.5506
50.2807
55.3601
60.7406
66.2843
71.926
77.865
84.0571
90.4759
97.8598
107.079
118.014
129.56
141.049
152.458
163.059
174.069
186.194
198.497
210.516
222.761
235.172
247.579
259.862
271.954
283.848
295.285
305.356
312.431
314.406
308.72
291.74
257.859
201.651
129.963
79.9449
74.3453
83.1068
103.108
114.39
119.031
123.934
128.084
131.767
135.08
137.913
139.972
140.934
140.256
136.534
129.679
127.747
134.974
147.852
166.709
191.5
222.041
258.964
304.081
358.963
422.422
492.193
523.433
627.662
902.777
140.717
36649.6
3.85579
7.78947
12.7916
16.936
21.5015
25.9301
30.6387
35.4809
40.5971
45.9712
51.5604
57.3477
63.467
70.0459
77.1465
84.6833
92.4563
100.377
108.717
117.415
126.44
136.768
149.52
164.509
180.325
196.138
211.871
226.581
241.927
258.703
275.666
292.255
309.13
326.197
343.262
360.195
376.929
393.436
409.344
423.46
433.584
436.842
429.728
407.372
362.511
288.4
193.569
124.307
112.674
122.183
147.012
163.196
170.462
177.642
183.57
188.717
193.225
196.952
199.58
200.738
199.565
194.069
185.515
184.949
197.37
218.735
250.177
292.696
347.705
418.973
514.244
645.603
830.757
1108.37
1518.71
2432.23
4718.21
7399.56
41595.3
4.74527
9.79681
16.2204
21.5635
27.4465
33.1642
39.2423
45.4959
52.1003
59.0292
66.2236
73.6605
81.5212
89.976
99.097
108.774
118.764
128.962
139.698
150.901
162.556
175.873
192.191
211.252
231.375
251.579
271.674
290.585
310.38
331.865
353.481
374.661
396.213
418.024
439.897
461.692
483.341
504.759
525.41
543.801
557.158
561.869
553.553
526.184
470.889
379.345
260.856
169.85
150.224
161.574
191.719
213.304
223.448
233.213
241.389
248.48
254.679
259.767
263.268
264.695
262.943
255.637
245.886
246.987
264.155
293.269
336.061
394.28
470.423
570.518
706.6
898.132
1175.83
1608.18
2307.13
3823.87
7505.11
12093.4
36447.1
5.56611
11.7189
19.5438
26.0888
33.2951
40.3171
47.7782
55.4497
63.529
71.9731
80.7084
89.7219
99.2641
109.559
120.683
132.493
144.698
157.169
170.292
183.984
198.232
214.439
234.135
257.022
281.22
305.618
329.879
352.896
377.038
403.087
429.157
454.728
480.725
507.044
533.504
559.968
586.372
612.555
637.838
660.48
677.194
683.69
674.772
643.394
579.381
473.265
334.813
223.85
194.396
205.147
238.292
264.956
278.413
290.98
301.535
310.626
318.508
324.925
329.327
331.116
328.846
319.876
309.916
314.074
337.009
374.979
430.265
505.319
603.529
732.842
908.841
1156.94
1518.61
2089.63
3051.77
5078.48
9722.71
15904
34408.5
6.32665
13.5656
22.7777
30.5268
39.0605
47.3967
56.2487
65.3421
74.8902
84.8324
95.0832
105.651
116.862
128.991
142.11
156.04
170.449
185.186
200.682
216.841
233.657
252.699
275.67
302.246
330.395
358.881
387.195
414.29
442.76
473.299
503.691
533.523
563.831
594.552
625.54
656.659
687.847
718.848
748.832
775.828
796.069
804.643
795.61
761.017
689.553
570.717
414.252
283.61
242.499
251.525
286.63
318.19
335.259
350.886
364.15
375.553
385.4
393.39
398.887
401.179
398.444
387.858
378.185
386.152
415.613
463.543
532.866
626.911
750.138
912.699
1134.2
1447.24
1907.78
2647.63
3937.34
6570.38
12176.9
19595.8
29627.8
7.03955
15.3419
25.9268
34.8804
44.7453
54.406
64.6569
75.1743
86.1798
97.5933
109.32
121.404
134.258
148.203
163.302
179.341
195.944
212.938
230.789
249.388
268.73
290.531
316.643
346.741
378.684
411.111
443.336
474.447
507.19
542.101
576.652
610.587
645.036
680.021
715.436
751.146
787.085
822.885
857.576
888.981
912.905
923.869
915.263
878.337
800.833
671.396
499.421
350.238
295.968
301.618
337.208
373.151
394.094
413.008
429.249
443.205
455.213
464.931
471.666
474.581
471.488
459.647
451.094
463.746
500.412
559.146
643.585
758.041
908.116
1106.28
1376.5
1759.94
2331.26
3266.42
4935.99
8220.09
14614.2
22814.7
26897.1
7.71474
17.0525
28.9993
39.1567
50.3563
61.3506
73.0067
84.9479
97.3977
110.256
123.424
136.994
151.473
167.224
184.292
202.425
221.211
240.448
260.629
281.633
303.458
327.944
357.074
390.55
426.146
462.376
498.383
533.454
570.427
609.587
648.147
686.033
724.472
763.61
803.39
843.665
884.357
924.974
964.413
1000.31
1028.08
1041.74
1034.09
995.684
913.47
775.35
590.071
423.402
354.643
355.394
390.258
429.967
454.952
477.37
496.902
513.741
528.211
539.916
548.109
551.787
548.383
535.614
528.966
547.204
591.939
662.488
763.248
899.524
1078
1313.46
1634.52
2092.49
2784.83
3937.11
6016.7
9926.52
16862.5
25581.9
24788.9
8.36259
18.7027
32.0013
43.3613
55.8989
68.2352
81.3018
94.6641
108.543
122.818
137.39
152.418
168.502
186.044
205.067
225.282
246.236
267.701
290.182
313.549
337.806
364.896
396.921
433.631
472.742
512.626
552.278
591.247
632.391
675.658
718.072
759.757
802.038
845.23
889.318
934.135
979.576
1025.02
1069.23
1109.69
1141.47
1158.14
1151.97
1112.94
1027.34
882.436
686.104
503.308
419.056
413.276
446.162
488.82
517.91
544.011
567.121
587.169
604.411
618.377
628.271
632.872
629.257
616.083
612.212
636.875
690.588
774.047
892.46
1052.12
1260.77
1535.6
1910.71
2449.91
3278.18
4674.87
7189.53
11683.2
18945.1
27821.6
24326.9
8.99287
20.2985
34.9383
47.5002
61.3791
75.0649
89.5461
104.324
119.614
135.275
151.217
167.676
185.347
204.668
225.632
247.914
271.022
294.695
319.441
345.121
371.752
401.362
436.167
475.975
518.467
561.849
605.015
647.816
693.061
740.285
786.4
831.739
877.733
924.897
973.252
1022.6
1072.79
1123.07
1172.1
1217.18
1253.13
1273.11
1268.95
1230.13
1142.42
992.558
787.347
589.934
489.501
475.562
505.275
549.932
583.058
612.973
639.929
663.535
683.911
700.478
712.371
718.073
714.318
701.381
701.262
733.145
796.78
894.239
1031.61
1216.16
1456.71
1773.31
2206.81
2836.7
3820.3
5492.24
8458.36
13475.3
20789.9
29054.8
26796.7
9.61447
21.8472
37.8169
51.5783
66.8026
81.8446
97.7432
113.93
130.609
147.624
164.903
182.769
202.011
223.093
245.984
270.319
295.564
321.422
348.389
376.327
405.268
437.312
474.784
517.561
563.306
610.017
656.566
703.128
752.386
803.41
853.079
901.936
951.53
1002.6
1055.19
1109.07
1164.01
1219.13
1273.01
1322.78
1363.04
1386.62
1384.99
1347.21
1258.63
1105.56
893.623
683.303
566.381
542.675
568.014
613.589
650.527
684.318
715.339
742.83
766.707
786.245
800.478
807.477
803.66
791.805
796.55
836.374
910.913
1023.47
1181.05
1391.95
1666.15
2027.3
2524.86
3257.36
4418.51
6394.8
9811.19
15259.6
22367
29107.1
29284.3
10.2341
23.3574
40.6457
55.6005
72.1754
88.5794
105.897
123.482
141.527
159.863
178.445
197.697
218.495
241.322
266.123
292.497
319.86
347.874
377.013
407.145
438.327
472.722
512.749
558.377
607.24
657.108
706.911
757.158
810.327
864.992
918.074
970.328
1023.43
1078.35
1135.15
1193.55
1253.25
1313.23
1371.96
1426.48
1471.2
1498.67
1500.06
1464.11
1375.87
1221.29
1004.72
783.365
650.044
615.062
634.827
680.143
720.5
758.147
793.387
825.057
852.801
875.7
892.638
901.138
897.363
887.561
898.386
946.871
1033.31
1162.06
1341.12
1579.82
1889.7
2299.07
2868.15
3717.95
5080.81
7385.45
11231.1
16989.7
23722.2
28500.4
29815.4
10.8563
24.8383
43.435
59.5736
77.5019
95.2742
114.009
132.979
152.366
171.988
191.842
212.46
234.799
259.354
286.046
314.444
343.904
374.042
405.295
437.552
470.903
507.563
550.039
598.409
650.249
703.101
756.033
809.883
866.849
924.992
981.355
1036.9
1093.42
1152.15
1213.15
1276.08
1340.52
1405.36
1468.97
1528.29
1577.6
1609.22
1614.11
1580.75
1494.02
1339.54
1120.41
890.031
740.821
693.231
706.206
750.023
793.228
834.614
874.147
910.232
942.179
968.831
988.85
999.094
995.571
988.806
1006.93
1064.9
1164.23
1310.25
1512.08
1780.23
2128.33
2590.84
3241.16
4225.68
5815.06
8464.12
12699.2
18622.2
24832.5
27869.9
29763.8
11.4826
26.2988
46.1956
63.5071
82.7871
101.934
122.083
142.423
163.122
183.996
205.092
227.059
250.923
277.189
305.754
336.157
367.69
399.913
433.216
467.525
502.968
541.809
586.633
637.643
692.317
747.981
803.919
861.291
921.921
983.375
1042.9
1101.65
1161.53
1224.04
1289.22
1356.67
1425.86
1495.54
1564.03
1628.2
1682.21
1718.24
1727.08
1697.06
1612.92
1460.11
1240.41
1003.15
838.978
777.72
782.689
823.737
869.044
913.94
957.753
998.421
1034.87
1065.65
1089.12
1101.36
1098.43
1095.72
1122.34
1190.66
1303.86
1468.3
1694.32
1993.9
2383.58
2905.74
3649.31
4788.16
6627.41
9625.75
14192.5
20129.8
25713.3
27437.1
29359.5
12.1108
27.7466
48.938
67.4121
88.0378
108.561
130.122
151.811
173.793
195.883
218.193
241.494
266.867
294.825
325.245
357.63
391.211
425.473
460.756
497.039
534.496
575.433
622.511
676.065
733.427
791.738
850.561
911.366
975.512
1040.11
1102.7
1164.57
1227.77
1294.02
1363.38
1435.36
1509.27
1583.78
1657.16
1726.19
1785.01
1825.69
1838.9
1812.9
1732.42
1582.76
1364.43
1122.51
944.706
869.075
864.86
901.866
948.373
996.428
1044.41
1089.75
1130.93
1166.19
1193.44
1207.9
1206.07
1208.46
1244.74
1324.32
1452.42
1636.5
1888.39
2221.97
2657.69
3247.8
4098.89
5412.83
7521.33
10860
15684.6
21495.2
26387.2
27236.8
29001.5
12.7371
29.1842
51.6716
71.299
93.2639
115.16
138.126
161.142
184.374
207.643
231.143
255.763
282.63
312.262
344.516
378.857
414.458
450.706
487.896
526.069
565.461
608.41
657.655
713.66
773.568
834.362
895.952
960.086
1027.59
1095.17
1160.73
1225.65
1292.14
1362.14
1435.66
1512.16
1590.78
1670.09
1748.33
1822.25
1885.98
1931.5
1949.49
1928.17
1852.33
1707.22
1492.15
1247.84
1058.1
967.825
953.341
985.064
1031.74
1082.47
1134.42
1184.42
1230.5
1270.54
1301.84
1318.71
1318.58
1327.22
1374.27
1466.08
1610.19
1815.37
2095.25
2466.19
2953.74
3622.01
4596.77
6106.34
8497
12152.3
17148.3
22706.1
26874.6
27242.2
28701.1
13.3581
30.6088
54.4025
75.1771
98.4752
121.736
146.094
170.413
194.86
219.273
243.941
269.867
298.21
329.498
363.564
399.831
437.418
475.596
514.614
554.591
595.835
640.714
692.047
750.418
812.731
875.848
940.084
1007.43
1078.11
1148.54
1217
1284.92
1354.68
1428.4
1506.09
1587.1
1670.4
1754.49
1837.56
1916.37
1985.07
2035.63
2058.76
2042.73
1972.46
1833.23
1623.21
1378.8
1179.17
1074.45
1048.78
1074.04
1119.77
1172.57
1228.16
1282.74
1333.81
1378.84
1414.41
1433.82
1436.15
1452.24
1511.15
1616.25
1777.65
2005.72
2316.33
2729
3275.67
4034.12
5149.93
6873.72
9550.73
13484.1
18558
23759.3
27211.6
27449.3
28415.8
13.971
32.0145
57.1303
79.0529
103.679
128.295
154.028
179.621
205.245
230.768
256.584
283.803
313.605
346.532
382.387
420.545
460.079
500.122
540.887
582.579
625.591
672.322
725.671
786.325
850.909
916.191
982.947
1053.37
1127.06
1200.22
1271.49
1342.37
1415.39
1492.86
1574.72
1660.22
1748.15
1836.97
1924.84
2008.53
2082.25
2138.01
2166.61
2156.43
2092.6
1960.49
1757.22
1515.01
1307.78
1189.33
1151.83
1169.56
1213.18
1267.32
1326.16
1385.13
1441.19
1491.39
1531.33
1553.36
1559.07
1583.93
1655.73
1775.36
1955.55
2208.8
2553.7
3013.64
3628.23
4490.42
5764.91
7717.65
10674.8
14834.5
19891.6
24653.5
27396.7
27916.6
28279.4
14.5748
33.3956
59.8508
82.9292
108.883
134.841
161.924
188.761
215.525
242.123
269.072
297.571
328.814
363.361
400.98
440.992
482.424
524.265
566.692
610.006
654.703
703.208
758.51
821.371
888.093
955.387
1024.53
1097.88
1174.43
1250.21
1324.23
1398.03
1474.32
1555.54
1641.56
1731.53
1824.06
1917.55
2010.16
2098.71
2177.48
2238.59
2272.95
2269.12
2212.53
2088.67
1893.78
1656.03
1443.7
1312.74
1263.11
1272.4
1312.79
1367.46
1429.02
1492.12
1553.11
1608.56
1652.92
1677.54
1687.78
1722.9
1808.59
1944.21
2145.07
2426.37
2810.1
3324.13
4016.87
4997.37
6447.15
8637.81
11857.5
16181.6
21130
25388.9
27438.9
28486.2
28121.7
15.1697
34.7488
62.559
86.8054
114.09
141.377
169.783
197.828
225.692
253.333
281.401
311.166
343.834
379.984
419.338
461.163
504.435
548.003
592.005
636.848
683.142
733.35
790.55
855.546
924.275
993.43
1064.82
1140.94
1220.21
1298.51
1375.24
1451.92
1531.5
1616.48
1706.66
1801.06
1898.13
1996.23
2093.52
2186.89
2270.72
2337.28
2377.66
2380.65
2332
2217.47
2032.47
1801.36
1586.61
1444.84
1383.21
1383.37
1419.48
1473.8
1537.53
1604.41
1670.2
1730.9
1779.63
1806.83
1822.84
1869.88
1970.63
2123.97
2347.82
2660.84
3089
3665.19
4447.51
5561.1
7200.3
9630.56
13084.3
17503.8
22259.8
25988.4
27369.1
28566.1
27892.1
15.7579
36.0749
65.2512
90.6792
119.303
147.902
177.6
206.816
235.739
264.394
293.569
324.588
358.664
396.399
437.457
481.045
526.094
571.315
616.799
663.08
710.885
762.728
821.777
888.838
959.447
1030.32
1103.81
1182.54
1264.39
1345.15
1424.53
1504.08
1586.97
1675.72
1770.04
1868.84
1970.39
2073.02
2174.9
2273.04
2361.93
2434.02
2480.63
2490.84
2450.78
2346.54
2172.83
1950.47
1736.03
1585.59
1512.57
1503.25
1534.17
1587.3
1652.57
1722.85
1793.25
1859.16
1912.21
1942.07
1965.09
2025.77
2143.1
2316.28
2566.01
2915.21
3394.56
4042.17
4926.17
6186.91
8025.7
10688.8
14337.9
18781.3
23270.7
26464.1
27271.6
28295.4
27704.8
16.3432
37.3797
67.9277
94.5481
124.52
154.415
185.369
215.716
245.659
275.302
305.574
337.834
373.302
412.606
455.33
500.626
547.383
594.174
641.049
688.678
737.908
791.322
852.179
921.236
993.595
1066.04
1141.49
1222.67
1306.99
1390.15
1472.14
1554.55
1640.76
1733.3
1831.74
1934.89
2040.85
2147.91
2254.31
2357.14
2451.06
2528.74
2581.76
2599.52
2568.63
2475.54
2314.4
2102.78
1891.44
1734.81
1651.54
1632.75
1657.83
1708.99
1775.19
1848.47
1923.29
1994.32
2051.65
2084.45
2115.75
2191.88
2327.67
2523.23
2802.36
3193.12
3731.53
4460.72
5458.62
6878.71
8921.95
11802.5
15599.9
19996.1
24157.6
26827.6
27231.4
28033.9
27594.5
16.9303
38.672
70.5939
98.4113
129.739
160.913
193.081
224.52
255.443
286.051
317.412
350.899
387.747
428.602
472.951
519.892
568.282
616.556
664.731
713.62
764.189
819.115
881.743
952.726
1026.71
1100.6
1177.86
1261.32
1348.02
1433.53
1518.11
1603.36
1692.91
1789.25
1891.8
1999.24
2109.52
2220.93
2331.73
2439.17
2538.07
2621.36
2680.92
2706.52
2685.29
2604.12
2456.72
2257.7
2052.21
1892.17
1800.27
1772.47
1791.38
1839.95
1906.54
1982.46
2061.51
2137.58
2199.17
2235.36
2276.36
2369.93
2526.43
2747.42
3060.17
3498.78
4105.1
4926.58
6049.89
7638.52
9884.71
12958.5
16851.4
21132.9
24922.6
27100
27251.4
27845.2
27555.2
17.5227
39.961
73.2587
102.272
134.958
167.391
200.729
233.217
265.083
296.638
329.081
363.782
401.997
444.387
490.313
538.825
588.769
638.434
687.818
737.883
789.707
846.091
910.46
983.294
1058.77
1134
1212.93
1298.52
1387.49
1475.33
1562.47
1650.56
1743.46
1843.6
1950.24
2061.91
2176.42
2292.05
2407.15
2519.09
2622.91
2711.82
2778.01
2811.67
2800.51
2731.92
2599.31
2414.61
2217.62
2057.15
1958.74
1922.88
1935.66
1981.28
2047.84
2126.12
2209.29
2290.33
2356.19
2396.48
2448.77
2561.99
2741.91
2991.93
3343.23
3836.8
4520.65
5445.14
6703.77
8466.07
10906.8
14142.1
18074
22180.2
25571.9
27301.2
27314.6
27717.2
27569.4
18.1233
41.2549
75.9316
106.137
140.175
173.84
208.303
241.798
274.571
307.059
340.578
376.48
416.053
459.958
507.405
557.408
608.819
659.779
710.287
761.446
814.444
872.237
938.32
1012.93
1089.77
1166.22
1246.69
1334.27
1425.44
1515.59
1605.27
1696.19
1792.46
1896.4
2007.09
2122.93
2241.56
2361.3
2480.56
2596.89
2705.54
2800.03
2872.9
2914.8
2914.05
2858.6
2741.68
2572.86
2386.93
2229.11
2126.69
2084.23
2091.38
2134.01
2200.36
2280.85
2368.11
2454.12
2524.37
2569.71
2635.15
2770.52
2977.04
3260.27
3655.7
4212.03
4983.42
6021.04
7422.47
9358.61
11978.3
15337.1
19251
23129.9
26113.7
27446.6
27408
27635.7
27622.7
18.7345
42.5609
78.6214
110.015
145.389
180.254
215.794
250.25
283.899
317.312
351.899
388.99
429.914
475.313
524.22
575.622
628.408
680.565
732.112
784.288
838.384
897.544
965.317
1041.6
1119.69
1197.27
1279.17
1368.62
1461.91
1554.34
1646.56
1740.31
1839.96
1947.68
2062.4
2182.31
2304.96
2428.66
2551.96
2672.54
2785.91
2885.92
2965.5
3015.75
3025.66
2983.81
2883.37
2731.82
2559.32
2407.25
2303.68
2256.57
2259.08
2299.05
2365.27
2448.04
2539.54
2630.65
2705.48
2757.2
2837.99
2998.27
3235.07
3556.22
4001.96
4629.28
5498.14
6657.77
8206.26
10310.9
13087.3
16526.8
20367.5
23978
26558.5
27546.5
27517.9
27594.9
27690.8
19.358
43.8852
81.3357
113.912
150.603
186.626
223.192
258.563
293.061
327.394
363.045
401.313
443.581
490.448
540.744
593.447
647.51
700.767
753.268
806.387
861.515
922.005
991.443
1069.31
1148.52
1227.14
1310.38
1401.59
1496.95
1591.66
1686.38
1782.97
1886
1997.49
2116.18
2240.08
2366.62
2494.15
2621.32
2746.01
2863.98
2969.43
3055.68
3114.34
3135.11
3107.23
3023.9
2890.84
2733.96
2590.71
2489.06
2439.68
2439.03
2477.14
2543.66
2629.04
2725.15
2821.63
2901.37
2961.21
3060
3248.22
3519.48
3883.73
4386.31
5092.94
6068.61
7357.23
9053.33
11315.2
14220.2
17694.9
21411.7
24724.1
26917.2
27610.8
27627.5
27571.4
27738
19.995
45.2334
84.0801
117.834
155.815
192.951
230.489
266.729
302.051
337.304
374.012
413.447
457.055
505.361
556.966
610.861
666.1
720.36
773.734
827.728
883.825
945.616
1016.69
1096.04
1176.24
1255.84
1340.36
1433.24
1530.6
1627.57
1724.78
1824.22
1930.63
2045.87
2168.48
2296.26
2426.56
2557.75
2688.64
2817.28
2939.71
3050.49
3143.35
3210.43
3242.17
3228.51
3162.82
3049.28
2910
2778.5
2681.97
2633.08
2631.23
2668.75
2736.4
2825.05
2926.39
3028.73
3113.85
3184.02
3303.99
3523.46
3833.78
4246.67
4812.81
5606.7
6697.3
8119.4
9959.5
12362
15362.5
18826.4
22374.7
25370.5
27203.2
27651
27673.3
27543.1
27755.1
20.6465
46.6106
86.8587
121.785
161.022
199.222
237.679
274.737
310.866
347.043
384.8
425.392
470.335
520.046
572.871
627.845
684.15
739.323
793.487
848.291
905.306
968.372
1041.05
1121.77
1202.85
1283.38
1369.12
1463.61
1562.94
1662.14
1761.83
1864.11
1973.9
2092.85
2219.31
2350.88
2484.78
2619.47
2753.9
2886.33
3013.06
3129.05
3228.41
3303.88
3346.63
3347.37
3299.68
3206.52
3086.59
2969.6
2881.42
2836.04
2835.38
2874.04
2944.1
3037.04
3144.52
3253.45
3344.66
3427.74
3572.61
3827
4181.33
4648.59
5284.89
6173.17
7384.92
8942.02
10918.1
13439.7
16499.4
19907.7
23250.7
25922.4
27429.9
27682.6
27650.3
27522.2
27770.8
21.313
48.0219
89.6741
125.765
166.22
205.433
244.755
282.582
319.504
356.613
395.41
437.149
483.422
534.495
588.444
644.376
701.639
757.635
812.511
868.063
925.951
990.271
1064.52
1146.49
1228.35
1309.75
1396.71
1492.76
1594.03
1695.43
1797.57
1902.69
2015.85
2138.47
2268.71
2403.94
2541.3
2679.31
2817.1
2953.13
3084
3205.03
3310.78
3394.54
3448.3
3463.51
3434.09
3361.98
3262.89
3162.93
3086.27
3047.59
3050.87
3092.84
3167
3265.61
3380.51
3497.11
3595.49
3694.34
3868.19
4161.62
4565.14
5092.54
5805.15
6793.64
8130.24
9820.45
11920.2
14535.5
17616.5
20927.5
24036.9
26386.3
27606.2
27723.4
27652.1
27530.2
27779.1
21.9945
49.4724
92.528
129.775
171.399
211.575
251.712
290.258
327.968
366.014
405.841
448.72
496.316
548.699
603.666
660.435
718.543
775.279
830.789
887.03
945.755
1011.31
1087.09
1170.18
1252.73
1334.99
1423.15
1520.75
1623.92
1727.5
1832.06
1940.02
2056.53
2182.76
2316.71
2455.48
2596.12
2737.27
2878.22
3017.67
3152.49
3278.4
3390.37
3482.31
3546.98
3576.66
3565.63
3515.07
3438.08
3357.4
3295.29
3266.55
3276.77
3324.58
3404.95
3511.04
3634.94
3760.63
3867.72
3985.53
4192.78
4529.66
4987.62
5580.71
6375.05
7467.85
8930.02
10747.8
12955
15635.6
18700.1
21877
24732.8
26770.8
27742.5
27773.4
27680.1
27555.3
27779.6
22.6906
50.9677
95.4205
133.808
176.55
217.638
258.54
297.764
336.261
375.248
416.095
460.107
509.015
562.647
618.519
676.003
734.843
792.24
848.31
905.182
964.714
1031.49
1108.74
1192.85
1275.99
1359.1
1448.5
1547.63
1652.69
1758.41
1865.37
1976.15
2095.98
2225.76
2363.34
2505.5
2649.25
2793.33
2937.26
3079.92
3218.5
3349.1
3467.11
3567.06
3642.53
3686.58
3693.97
3665.27
3611.37
3551.93
3507.17
3491.58
3511.87
3568.36
3657.41
3773.12
3907.95
4044.49
4162.31
4302.66
4547.94
4932.82
5450.38
6114.28
6994.69
8193.85
9779.14
11715.5
14010.6
16726.2
19738.2
22749.7
25340.9
27085.1
27848
27825.6
27713.8
27590
27777.9
23.3999
52.5139
98.351
137.86
181.66
223.615
265.231
305.097
344.389
384.317
426.172
471.311
521.519
576.322
632.983
691.064
750.522
808.505
865.063
922.513
982.828
1050.8
1129.48
1214.49
1298.16
1382.13
1472.79
1573.48
1680.41
1788.22
1897.55
2011.11
2134.23
2267.49
2408.6
2554.02
2700.69
2847.51
2994.19
3139.87
3282.01
3417.09
3540.94
3648.72
3734.8
3793.06
3818.76
3812.08
3782.01
3745.47
3720.57
3721.19
3754.74
3822.92
3923.4
4051.22
4199.17
4348.58
4479.66
4646.46
4934.59
5372.03
5954.05
6693.2
7662.7
8967.97
10670.8
12713.2
15074.7
17794.4
20720.6
23542
25865
27338.4
27929.4
27878.2
27746.2
27623
27764.1
24.1202
54.117
101.317
141.923
186.718
229.495
271.776
312.261
352.359
393.224
436.075
482.337
533.822
589.707
647.04
705.601
765.568
824.064
881.045
939.019
1000.1
1069.26
1149.28
1235.09
1319.25
1404.11
1496.07
1598.34
1707.14
1817
1928.64
2044.97
2171.3
2307.99
2452.53
2601.05
2750.44
2899.78
3049.03
3197.51
3343
3482.35
3611.82
3727.2
3823.67
3895.9
3939.73
3955.05
3949.33
3937
3934.18
3953.84
4003.77
4086.74
4201.58
4344.21
4507.69
4672.23
4819.57
5017.09
5352.85
5847.26
6498.12
7316.11
8376.19
9784.94
11596.5
13730.1
16134.7
18828.1
21639.3
24252.3
26311
27539.5
27991.8
27932.4
27777.9
27653.2
27739.7
24.8476
55.7833
104.315
145.985
191.71
235.269
278.164
319.258
360.178
401.973
445.809
493.19
545.918
602.782
660.668
719.604
779.971
838.912
896.252
954.702
1016.53
1086.85
1168.15
1254.66
1339.29
1425.08
1518.4
1622.29
1732.93
1844.79
1958.71
2077.76
2207.24
2347.27
2495.14
2646.6
2798.5
2950.16
3101.75
3252.83
3401.45
3544.85
3679.7
3802.45
3909.04
3994.96
4056.62
4093.8
4112.68
4125.59
4146.69
4187.95
4257.2
4358.02
4490.21
4650.5
4832.05
5014.13
5181.24
5414.04
5802.03
6357.52
7080.92
7980.27
9130.78
10638.1
12546.9
14754.3
17178.5
19817.1
22488.4
24881.5
26685.3
27696.7
28038.9
27997.7
27807.6
27677.7
27706.2
25.5769
57.5194
107.339
150.036
196.629
240.927
284.387
326.097
367.854
410.565
455.38
503.878
557.799
615.523
673.849
733.06
793.727
853.043
910.688
969.567
1032.13
1103.59
1186.08
1273.21
1358.31
1445.09
1539.83
1645.37
1757.84
1871.64
1987.79
2109.52
2242.05
2385.35
2536.44
2690.67
2844.87
2998.63
3152.35
3305.81
3457.36
3604.58
3744.58
3874.43
3990.85
4090.11
4169.22
4227.97
4271.51
4310.36
4356.88
4421.95
4513.21
4634.81
4787.31
4968.12
5170.29
5372.35
5563.29
5836.14
6280.53
6900.78
7699.59
8681.68
9920.77
11519.6
13511.7
15774.2
18194.8
20752.8
23264.3
25432
26995.1
27817.4
28072.2
28063.3
27833
27691.6
27676.2
26.3009
59.3319
110.38
154.064
201.466
246.461
290.442
332.785
375.392
419.006
464.796
514.407
569.448
627.906
686.566
745.964
806.835
866.459
924.36
983.622
1046.9
1119.48
1203.09
1290.76
1376.36
1464.19
1560.42
1667.66
1781.93
1897.61
2015.94
2140.28
2275.76
2422.24
2576.43
2733.25
2889.55
3045.19
3200.83
3356.46
3510.72
3661.53
3806.43
3943.11
4069.05
4181.25
4277.37
4357.27
4425.33
4490.52
4563.6
4654.3
4769.96
4915.02
5090.63
5294.77
5520.04
5744.42
5963.74
6281.65
6785.92
7474.03
8350.21
9415.15
10739.3
12420.7
14480.3
16778.2
19173.4
21628.6
23965.4
25907.9
27248.2
27908.6
28094
28108.1
27854.8
27697.9
27646.3
27.0101
61.227
113.43
158.059
206.217
251.862
296.328
339.336
382.801
427.299
474.068
524.783
580.848
639.906
698.802
758.312
819.299
879.166
937.278
996.877
1060.86
1134.54
1219.17
1307.33
1393.46
1482.45
1580.22
1689.22
1805.25
1922.74
2043.2
2170.08
2308.38
2457.95
2615.12
2774.36
2932.53
3089.84
3247.19
3404.78
3561.53
3715.71
3865.26
4008.5
4143.6
4268.32
4380.93
4481.46
4573.7
4665.36
4765.77
4883.57
5025.61
5196.51
5397.8
5627.88
5878.55
6127.37
6380
6748.15
7315.01
8073.4
9027.86
10174.6
11578.8
13332.3
15442.3
17755.6
20105.6
22439.6
24592.2
26314.7
27451.6
27975.6
28112.3
28135.2
27873.9
27699.8
27621.6
27.6923
63.211
116.475
162.01
210.878
257.119
302.05
345.76
390.084
435.452
483.21
535.01
591.977
651.498
710.545
770.104
831.127
891.172
949.458
1009.35
1074.02
1148.77
1234.33
1322.94
1409.68
1499.91
1599.31
1710.08
1827.83
1947.06
2069.63
2198.96
2339.93
2492.48
2652.5
2813.97
2973.81
3132.57
3291.43
3450.78
3609.82
3767.14
3921.1
4070.61
4214.51
4351.28
4479.81
4600.35
4716.29
4834.3
4962.46
5108.38
5278.42
5477.14
5706.34
5964.68
6242.84
6518.12
6808.93
7232.32
7863.91
8694.25
9726.89
10953
12431.1
14245.1
16387.9
18696.7
20984.2
23183.2
25146.5
26658.4
27612.6
28023.3
28131.3
28149.1
27896
27702.5
27606.1
28.3327
65.2887
119.5
165.912
215.445
262.225
307.618
352.069
397.246
443.472
492.236
545.087
602.809
662.657
721.786
781.341
842.329
902.49
960.915
1021.06
1086.4
1162.19
1248.6
1337.63
1425.07
1516.64
1617.73
1730.31
1849.73
1970.63
2095.26
2226.93
2370.42
2525.83
2688.57
2852.09
3013.37
3173.39
3333.55
3494.46
3655.6
3815.85
3973.97
4129.47
4281.79
4430.11
4573.95
4713.81
4852.81
4996.8
5152.82
5327.52
5526.72
5754.84
6013.78
6302.36
6609.94
6913.77
7247.18
7730.2
8428.27
9331.39
10441.1
11743.3
13287.8
15150.1
17308.1
19593.2
21803.6
23858.3
25631.8
26945.4
27738
28053.9
28159.3
28166.7
27935.6
27705.7