/*--------------------------------*- C++ -*----------------------------------*\
| =========                 |                                                 |
| \\      /  F ield         | OpenFOAM: The Open Source CFD Toolbox           |
|  \\    /   O peration     | Version:  4.1                                   |
|   \\  /    A nd           | Web:      www.OpenFOAM.org                      |
|    \\/     M anipulation  |                                                 |
\*---------------------------------------------------------------------------*/
FoamFile
{
    version     2.0;
    format      ascii;
    class       surfaceScalarField;
    location    "24";
    object      phi;
}
// * * * * * * * * * * * * * * * * * * * * * * * * * * * * * * * * * * * * * //

dimensions      [0 3 -1 0 0 0 0];

internalField   nonuniform List<scalar> 
13220
(
-882.55
2182.48
-1364.25
1781.92
-1821.81
1757.48
-2166.58
1644.69
-2430.65
1564.29
-2614.95
1484.22
-2721.7
1406.67
-2751.05
1329.57
-2703.44
1252.3
-2582.03
1178.5
-2397.29
1115.47
-2140.79
1043.42
-1742.92
902.048
-1082.99
640.296
216.909
-32.6347
2215.17
-106.627
1855.98
-266.304
1917.22
-396.172
1774.62
-530.068
1698.24
-646.778
1600.98
-747.911
1507.84
-831.789
1413.49
-902.136
1322.68
-954.785
1231.18
-943.575
1104.28
-768.984
868.864
-382.045
515.168
17.6598
240.763
234.579
-172.578
2387.8
-409.38
2092.84
-626.714
2134.6
-774.218
1922.18
-915.461
1839.53
-1020.7
1706.28
-1106.71
1593.91
-1174.79
1481.62
-1229.52
1377.47
-1263.75
1265.49
-1237.94
1078.53
-1079.28
710.344
-770.624
206.774
-443.886
-85.5556
-209.302
25.3335
2362.54
-61.3864
2179.64
-98.3027
2171.61
-100.638
1924.61
-102.697
1841.69
-82.9988
1686.7
-50.4186
1561.44
-1.11634
1432.43
64.7128
1311.75
141.135
1189.17
192.383
1027.34
145.023
757.915
-16.5382
368.812
-107.293
5.75694
-316.587
148.93
2213.7
134.151
2194.51
183.455
2122.39
241.484
1866.69
303.193
1780.08
367.316
1622.67
435.187
1493.65
506.074
1361.61
583.39
1234.49
661.094
1111.54
708.516
979.923
652.146
814.497
444.661
576.587
153.465
297.449
-163.13
132.089
2081.69
146.011
2180.69
191.254
2077.25
238.124
1819.92
286.863
1731.42
332.547
1577.07
377.94
1448.33
419.876
1319.74
458.818
1195.6
491.922
1078.44
509.55
962.323
484.375
839.519
378.348
682.43
198.279
477.066
35.1625
72.3474
2009.42
125.874
2127.23
169.679
2033.51
217.976
1771.68
260.973
1688.49
309.36
1528.73
353.179
1404.57
394.5
1278.45
427.215
1162.92
452.53
1053.2
466.225
948.622
454.378
851.657
382.872
754.228
232.121
628.366
267.273
9.56472
1999.88
71.9948
2064.83
113.77
1991.76
149.423
1736.04
180.998
1656.9
225.68
1484.05
272.032
1358.17
345.401
1205.07
438.534
1069.76
527.801
963.833
579.732
896.706
565.047
865.968
462.588
856.349
279.433
811.037
546.712
-43.0004
2042.89
-44.4901
2066.32
-38.1076
1985.37
-58.9645
1756.91
-73.8248
1671.78
-82.801
1493.04
-65.3176
1340.72
17.5709
1122.19
159.466
927.886
314.08
809.336
427.827
782.941
460.548
833.639
385.477
931.706
218.176
978.664
764.88
-35.2134
2078.05
-172.971
2204.04
-250.914
2063.28
-354.206
1860.17
-452.676
1770.21
-554.706
1595.05
-637.899
1423.88
-676.561
1160.84
-664.724
916.021
-599.764
744.283
-472.874
656.056
-287.519
647.882
-98.8901
742.694
2.30258
877.009
767.185
80.8438
1997.11
-108.34
2393.13
-241.527
2196.35
-363.474
1982.01
-484.266
1890.89
-613.682
1724.35
-760.075
1570.16
-923.162
1323.81
-1083.55
1076.3
-1196.47
857.153
-1207.31
666.766
-1053.22
493.97
-706.454
396.03
-265.319
436.01
501.857
219.058
1777.93
130.624
2481.47
7.13543
2319.71
-78.0213
2067.04
-131.349
1944.05
-190.961
1783.82
-265.337
1644.35
-386.899
1445.24
-540.406
1229.64
-692.996
1009.55
-813.658
787.336
-859.921
539.765
-740.3
275.881
-380.41
75.3209
121.444
311.96
1465.87
388.305
2405.06
387.078
2320.84
407.043
2047.01
450.69
1900.32
481.468
1752.99
499.248
1626.51
472.418
1472.03
396.433
1305.58
281.793
1124.15
138.748
930.342
-35.7905
714.266
-202.236
442.176
-230.084
102.893
-108.636
137.318
1328.47
144.125
2398.23
99.6439
2365.26
61.2873
2085.35
77.4636
1884.07
115.401
1715.05
164.645
1577.21
205.832
1430.85
248.671
1262.71
280.171
1092.62
283.728
926.795
239.217
758.742
118.267
563.242
102.391
118.998
-6.24287
43.5695
586.187
893.563
1014.71
995.234
914.831
819.961
706.064
583.467
450.109
286.362
138.739
10.9831
-101.071
-0.0012752
-54.4555
54.4522
-54.4569
-54.4584
-54.4598
-95.442
40.9804
-95.4433
-95.4449
-95.4463
-152.427
56.9803
-152.429
-152.429
-195.253
42.8214
-195.253
-195.256
-195.256
-211.566
16.3068
-211.567
-211.569
-219.242
7.67168
-219.244
-219.244
-219.247
-209.585
-9.66304
-209.588
-209.588
-209.591
-175.254
-34.3357
-175.257
-175.255
-105.782
-69.4773
-105.781
-105.784
-105.783
-24.4974
-81.2896
-24.4962
-24.5005
60.7627
-85.2622
60.7586
60.7607
60.7562
109.628
-48.8704
109.624
109.626
109.621
183.15
-73.5222
183.146
183.152
254.471
-71.3254
254.478
254.472
254.479
295.346
-40.8745
295.354
295.348
295.357
301.918
-6.56923
301.929
301.919
276.566
25.3647
276.557
276.571
276.558
237.002
39.582
236.993
237.02
-180.525
417.523
-180.494
-180.506
-180.477
-1002.96
822.463
-1002.93
-1002.95
-1002.9
-2133.31
1130.37
-2133.25
-2133.34
-3649.05
1515.75
-3649.16
-3649.18
-3677.16
-3672.68
-3715.84
-5556.23
1777.04
-5523.45
-5488.56
-5436.81
-5383.56
-5335.97
-5311.17
-5252.78
-5128.04
-7082.93
2079.75
-6940.69
-6806.73
-6676.15
-6511.56
-6345.02
-6177.26
-6004.53
-5827.89
-8224.54
2584.95
-8020.65
-7815.17
-7608.79
-7401.32
-7186.65
-6959.46
-6731.43
-6500.17
-6266.06
-9006.18
2971.04
-8749.51
-8490.97
-8231.39
-7971.02
-7709.64
-7432.86
-7144.04
-6849.92
-9766.67
3206.47
-9476.93
-9178.88
-8868.28
-8555.78
-8241.4
-7927.24
-7609.17
-7266.18
-10229.8
3301.97
-9896.64
-9561.98
-9228.52
-8878.82
-8522.21
-8167.27
-7810.61
-7449.77
-10186.9
3104.73
-9818.49
-9449.45
-9082.16
-8717.64
-8355.6
-7964.26
-7576.84
-7190.55
-6803.87
-8604.48
2188
-8247.39
-7889.51
-7539.26
-7193.36
-6849.57
-6540.06
-6297.48
-6048.21
-6676.65
878.971
-6457.91
-6233.2
-6233.21
-7197.8
964.586
-7888
690.199
-7888
-8418.5
530.498
-8418.5
-9091.53
673.034
-9487.5
395.968
-9487.5
-9874
386.503
-10025.2
151.24
-10025.2
-9943.8
-81.4379
-9943.8
-9756.17
-187.635
-9312.95
-443.222
-9312.95
-8524.81
-788.142
-8524.81
-7388.86
-1135.95
-5939.73
-1449.13
-5939.73
-4083.54
-1856.19
-2106.24
-1977.31
-2106.24
-12.5886
-2093.66
-12.5904
2108.5
-2121.1
4383.72
-2275.22
4383.72
6482.39
-2098.66
6482.39
8346.28
-1863.9
10016.3
-1670.03
10016.3
11458.6
-1442.29
12709
-1250.37
12709
13762.3
-1053.35
13762.3
14606.1
-843.775
15065.2
-459.123
15065.2
15399.7
-334.503
15399.7
15794.8
-395.122
16471.2
-676.365
16471.2
18603
-2131.81
22455.3
-3852.31
22455.3
25614.4
-3159.02
25614.4
27323.8
-1709.47
27829.5
-505.685
27829.5
26578.2
1251.28
26578.2
23188.4
3389.8
18561.7
4626.74
18561.7
11510.5
7051.15
3134.08
8376.45
3134.08
-10268.1
13402.2
-10268.1
-32125.3
21857.2
-62513
30387.7
-62513
-100495
37982.3
-100495
-147968
47473.2
-200228
52260
-200228
-263256
63027.8
-328114
64858
-328114
-401553
73439
-401553
84833.2
-1794.7
-8640.96
-1805.49
-10488.8
-1820.84
-11594.9
-1830.95
-12769.4
-1833.95
-13905.3
-1828.23
-15000.4
-1819.97
-16039.9
-1820.92
-16975.6
-1848.76
-17767
-1918.93
-18400.6
-2034.54
-18930.1
-2182.72
-19472.3
-2342.95
-20148.7
-2499.11
-21005.3
-2646.11
-22005.8
-2786.24
-23073.9
-2922.38
-24141.4
-3055.82
-25177.4
-3188.32
-26175.2
-3323.8
-27126.2
-3470.39
-28046.4
-3642.03
-29022.3
-3854.34
-30144.6
-4116.92
-31416
-4429.26
-32753.5
-4783.33
-34065.8
-5167.01
-35306.8
-5567.28
-36471.2
-5981.46
-37601.9
-6415.56
-38750.9
-6874.76
-39908.9
-7364.51
-41068.9
-7888.97
-42240.3
-8448.75
-43433
-9040.33
-44666.8
-9656.9
-45971.1
-10290
-47374.6
-10930.8
-48897.9
-11569
-50548.3
-12190.7
-52307.1
-12780.3
-54134.6
-13322.1
-55976.8
-13800.7
-57744.2
-14193.1
-59203.2
-14439.7
-59700.7
-14399.5
-57794
-13885.5
-51530
-12939.7
-40801.6
-12051.4
-30279.3
-11641.1
-25480.9
-11551.9
-25004.5
-11483.1
-24566.8
-11376
-23105.2
-11280.4
-21259
-11222.5
-19319.6
-11210.2
-17256.6
-11254.4
-15064.8
-11369.5
-12771.7
-11561
-10398.3
-11813.6
-7967.46
-12094.2
-5502.07
-12372.9
-3031
-12649.2
-601.465
-12985.6
1785.32
-13461.4
4301.56
-14114.5
7177.6
-14979.2
10602.6
-16105.8
14826.4
-17560.4
20162.5
-19432.7
27036.4
-21846.9
36074
-24979.3
48234.5
-29089.2
65024.4
-34570.4
88874.1
-42032.7
123804
-52394.6
176136
-66613.8
254906
-82742.8
363809
471772
-1905.05
-8643.15
-1914.49
-10479.4
-1928.33
-11581.1
-1935.73
-12762
-1935.02
-13906.1
-1925.65
-15009.8
-1915.68
-16049.9
-1919.27
-16972
-1955.91
-17730.4
-2040.03
-18316.5
-2169.68
-18800.4
-2325.98
-19316
-2486.76
-19987.9
-2639.54
-20852.5
-2783.78
-21861.5
-2923.64
-22934
-3061.62
-24003.4
-3198.92
-25040.1
-3338.02
-26036.1
-3483.4
-26980.9
-3642.78
-27887.1
-3828.89
-28836.2
-4056.47
-29917
-4335.06
-31137.4
-4663.93
-32424.6
-5034.33
-33695.4
-5433.53
-34907.6
-5848.19
-36056.6
-6276.15
-37173.9
-6725.87
-38301.2
-7205
-39429.8
-7719.39
-40554.5
-8271.46
-41688.3
-8858.93
-42845.5
-9475.42
-44050.3
-10112
-45334.6
-10758.8
-46727.8
-11407
-48249.7
-12047.5
-49907.8
-12668.4
-51686.1
-13256.2
-53546.8
-13796.6
-55436.5
-14274.6
-57266.1
-14668.1
-58809.7
-14921.7
-59447
-14906.2
-57809.5
-14439.7
-51996.6
-13529.2
-41712.1
-12620.3
-31188.3
-12163.8
-25937.4
-12055.9
-25112.4
-11998.5
-24624.2
-11907.6
-23196.2
-11819.9
-21346.7
-11760.8
-19378.7
-11737.5
-17280
-11752.6
-15049.7
-11809.9
-12714.4
-11917.3
-10291
-12082.3
-7802.39
-12303.7
-5280.69
-12571.3
-2763.38
-12883.7
-289.083
-13276.9
2178.44
-13802.7
4827.44
-14499.7
7874.57
-15409.2
11512.1
-16584.5
16001.6
-18094
21672
-20030.3
28972.6
-22520.6
38564.3
-25745.4
51459.3
-29968
69246.9
-35592.3
94498.4
-43291.9
131504
-54182.6
187027
-69085.6
269809
-83801.6
378525
461410
-1965.51
-8646.83
-1973.95
-10471
-1985.95
-11569.1
-1991.22
-12756.8
-1988.19
-13909.1
-1977.21
-15020.8
-1967.43
-16059.6
-1974.33
-16965.1
-2017.82
-17686.9
-2110.49
-18223.8
-2246.62
-18664.3
-2404.67
-19158
-2563.46
-19829.1
-2713.75
-20702.2
-2857.06
-21718.2
-2997.46
-22793.6
-3136.91
-23864
-3276.96
-24900
-3420.74
-25892.3
-3573.15
-26828.4
-3741.77
-27718.4
-3938.36
-28639.6
-4176.39
-29679
-4464.6
-30849.2
-4802.16
-32087
-5180.33
-33317.3
-5586.68
-34501.3
-6009.15
-35634.1
-6446.14
-36736.9
-6906.72
-37840.6
-7399.23
-38937.3
-7929
-40024.7
-8496.84
-41120.4
-9098.46
-42243.9
-9726.15
-43422.6
-10370.5
-44690.2
-11022.1
-46076.3
-11672.4
-47599.4
-12313.1
-49267.1
-12933.8
-51065.4
-13521.8
-52958.8
-14063.5
-54894.8
-14544.6
-56785.1
-14942.6
-58411.7
-15204.4
-59185.2
-15206
-57807.8
-14769.4
-52433.2
-13882.7
-42598.7
-12962.4
-32108.6
-12475.3
-26424.5
-12352.7
-25235
-12302.4
-24674.5
-12225.4
-23273.2
-12148.7
-21423.3
-12097.3
-19430.1
-12082.1
-17295.2
-12109.4
-15022.4
-12181.4
-12642.4
-12298.5
-10173.9
-12462.6
-7638.34
-12676.3
-5066.96
-12941.5
-2498.2
-13265.9
35.3626
-13688.7
2601.25
-14254.6
5393.3
-14995.3
8615.26
-15954
12470.8
-17185
17232.6
-18759.2
23246.2
-20771.8
30985.2
-23352.9
41145.5
-26684.4
54790.7
-31032.9
73595.4
-36840.4
100306
-44945.4
139609
-56720.5
198802
-72187.9
285276
-83233.6
389571
443034
-2035.83
-8651.7
-2043.38
-10463.4
-2053.47
-11559
-2056.45
-12753.8
-2050.94
-13914.6
-2038.25
-15033.4
-2028.81
-16069.1
-2039.67
-16954.2
-2091.14
-17635.4
-2193.5
-18121.4
-2336.75
-18521
-2496.68
-18998.1
-2653.5
-19672.3
-2801.32
-20554.4
-2943.75
-21575.8
-3084.84
-22652.5
-3226.1
-23722.7
-3369.47
-24756.6
-3518.88
-25742.9
-3679.55
-26667.8
-3858.72
-27539.3
-4067.14
-28431.2
-4317.11
-29429
-4616.69
-30549.6
-4964.78
-31739
-5352.6
-32929.4
-5768.01
-34085.9
-6200.23
-35201.9
-6648.47
-36288.7
-7122.42
-37366.6
-7630.96
-38428.8
-8178.64
-39477.1
-8764.49
-40534.6
-9382.15
-41626.2
-10022.5
-42782.2
-10675.9
-44036.9
-11333
-45419.2
-11986.1
-46946.2
-12628.1
-48625.2
-13249.5
-50444
-13839.1
-52369.2
-14384.2
-54349.7
-14870.6
-56298.7
-15276.8
-58005.5
-15551.5
-58910.5
-15575.8
-57783.5
-15172.3
-52836.8
-14307.6
-43463.3
-13368.4
-33047.9
-12842
-26950.9
-12701.4
-25375.6
-12658.8
-24717.1
-12597.2
-23334.8
-12532.8
-21487.6
-12488.4
-19474.6
-12475.8
-17307.8
-12503.6
-14994.6
-12576.5
-12569.5
-12696.7
-10053.7
-12866.1
-7468.87
-13087.5
-4845.61
-13363.8
-2221.86
-13706.7
378.229
-14157.4
3051.96
-14758.7
5994.59
-15540.9
9397.49
-16548.4
13478.3
-17836.8
18521
-19479.2
24888.6
-21573.1
33079
-24249.2
43821.6
-27688.9
58230.5
-32175.6
78082.1
-38247.8
106378
-46972.7
148333
-59717.5
211547
-75073.3
300632
-82476.6
396974
423585
-2102.6
-8657.53
-2109.14
-10456.9
-2117.04
-11551.1
-2117.65
-12753.2
-2109.83
-13922.4
-2095.88
-15047.4
-2087.51
-16077.4
-2103.23
-16938.5
-2163.3
-17575.4
-2275.02
-18009.7
-2423.96
-18372.1
-2584.17
-18837.9
-2738.2
-19518.3
-2883.67
-20408.9
-3025.68
-21433.8
-3167.83
-22510.4
-3311.18
-23579.4
-3458.22
-24609.6
-3613.71
-25587.4
-3783.2
-26498.3
-3973.45
-27349
-4194.12
-28210.5
-4456.22
-29166.9
-4767.01
-30238.8
-5125.13
-31380.8
-5521.9
-32532.7
-5945.82
-33662
-6387.81
-34759.9
-6848.06
-35828.5
-7336.42
-36878.3
-7861.62
-37903.6
-8427.01
-38911.7
-9029.7
-39931.9
-9661.44
-40994.4
-10312.1
-42131.5
-10972.1
-43376.9
-11633
-44758.3
-12288.1
-46291.1
-12931.2
-47982.1
-13554.1
-49821
-14146.8
-51776.5
-14697.1
-53799.3
-15191.6
-55804.3
-15608.9
-57588.2
-15899.7
-58619.7
-15949.3
-57734
-15580.5
-53205.6
-14739.6
-44304.2
-13781.3
-34006.2
-13210.2
-27522.1
-13045.5
-25540.2
-13008
-24754.7
-12962.3
-23380.5
-12912.8
-21537.1
-12879.1
-19508.3
-12873.6
-17313.3
-12907
-14961.2
-12985.4
-12491.1
-13111.8
-9927.29
-13289
-7291.68
-13520.4
-4614.21
-13810.8
-1931.42
-14176
743.441
-14656.4
3532.32
-15292
6630.22
-16115.1
10220.6
-17171.5
14534.7
-18518.2
19867.7
-20230.4
26600.8
-22405.9
35254.5
-25173.8
46589.5
-28719.8
61776.4
-33374.9
82737.3
-39837.2
112840
-49369.7
157866
-62948.8
225126
-77358.4
315042
-80037.3
399653
395808
-2168.67
-8664.22
-2174.06
-10451.5
-2179.61
-11545.6
-2177.83
-12755
-2167.87
-13932.4
-2153.04
-15062.2
-2146.36
-16084.1
-2167.72
-16917.1
-2236.92
-17506.2
-2357.68
-17889
-2511.2
-18218.6
-2670.66
-18678.4
-2821.68
-19367.3
-2965.16
-20265.5
-3107.18
-21291.8
-3250.71
-22366.8
-3396.47
-23433.6
-3547.61
-24458.5
-3709.8
-25425.2
-3888.81
-26319.3
-4090.81
-27147
-4324.28
-27977
-4598.91
-28892.3
-4921.08
-29916.7
-5289.23
-31012.7
-5694.92
-32127
-6127.52
-33229.3
-6579.89
-34307.5
-7053.35
-35355
-7557.46
-36374.2
-8100.11
-37360.9
-8683.14
-38328.6
-9301.75
-39313.3
-9946.09
-40350.1
-10605.5
-41472.2
-11270.7
-42711.6
-11934.5
-44094.4
-12591.3
-45634.3
-13235.9
-47337.5
-13861.5
-49195.5
-14458.7
-51179.3
-15016.3
-53241.7
-15521.2
-55299.4
-15952.7
-57156.7
-16263.2
-58309.2
-16341.4
-57655.8
-16009.8
-53537.2
-15194.3
-45119.6
-14216.5
-34984
-13595.1
-28143.5
-13400
-25735.3
-13364.1
-24790.6
-13333.9
-23410.7
-13300.8
-21570.2
-13280
-19529.1
-13283.4
-17309.9
-13323
-14921.6
-13407.6
-12406.5
-13541.7
-9793.2
-13728.8
-7104.63
-13972.7
-4370.3
-14279.5
-1624.65
-14668.1
1132.04
-15177.7
4042
-15847.3
7299.8
-16711.3
11084.6
-17816.7
15640
-19222.1
21273.2
-21003.3
28382
-23256.2
37507.4
-26108.8
49442.1
-29766.6
65434.2
-34652.4
87623.2
-41654.1
119842
-52083.9
168296
-66116.6
239159
-78694.4
327619
-76671.7
397631
366610
-2233.26
-8671.8
-2237.28
-10447.5
-2240.32
-11542.5
-2236.15
-12759.1
-2224.26
-13944.2
-2208.99
-15077.5
-2204.67
-16088.4
-2232.46
-16889.4
-2311.19
-17427.4
-2440.45
-17759.7
-2597.3
-18061.7
-2755.06
-18520.6
-2902.95
-19219.4
-3044.86
-20123.5
-3187.32
-21149.3
-3332.57
-22221.6
-3481.1
-23285.1
-3636.85
-24302.7
-3806.39
-25255.7
-3995.65
-26130
-4210.08
-26932.6
-4456.87
-27730.3
-4744.3
-28604.8
-5077.86
-29583.1
-5455.91
-30634.6
-5870.38
-31712.5
-6311.81
-32787.9
-6775.14
-33844.2
-7262.9
-34867.2
-7783.9
-35853.2
-8344.47
-36800.3
-8944.63
-37728.5
-9577.76
-38680.2
-10232.9
-39695
-10899
-40806
-11568
-42042.6
-12233.9
-43428.5
-12892.2
-44976
-13538.9
-46690.9
-14168
-48566.3
-14771.2
-50576.1
-15338.1
-52674.8
-15855.7
-54781.7
-16304.2
-56708.2
-16637.4
-57976
-16747.1
-57546.1
-16455.8
-53828.5
-15669.6
-45905.8
-14674.5
-35979.2
-13998.2
-28819.7
-13764.6
-25968.9
-13725
-24830.3
-13708.9
-23426.8
-13693.4
-21585.7
-13688.5
-19534
-13703.9
-17294.5
-13752.3
-14873.2
-13844.6
-12314.2
-13987.4
-9650.38
-14185.4
-6906.61
-14442.9
-4112.79
-14766.7
-1300.81
-15179
1544.31
-15718.3
4581.32
-16422.3
8003.81
-17327.8
11990
-18482.6
16794.8
-19946.1
22736.8
-21792.8
30228.7
-24115.9
39830.6
-27049.7
52375.9
-30846.5
69231
-36060.5
92837.2
-43743.5
127525
-55033.6
179586
-69021
253146
-79093.7
337692
-72205.3
390742
332387
-2296.35
-8680.38
-2298.73
-10445.1
-2299.14
-11542.1
-2292.62
-12765.6
-2279.07
-13957.8
-2263.82
-15092.7
-2262.54
-16089.7
-2297.46
-16854.4
-2385.96
-17338.9
-2523.03
-17622.6
-2682
-17902.8
-2837.31
-18365.3
-2982.21
-19074.5
-3123.08
-19982.7
-3266.43
-21006
-3413.73
-22074.3
-3565.47
-23133.3
-3726.4
-24141.8
-3903.99
-25078.1
-4104.25
-25929.8
-4331.78
-26705
-4592.34
-27469.7
-4892.77
-28304.4
-5237.71
-29238.2
-5625.52
-30246.8
-6048.8
-31289.2
-6499.39
-32337.3
-6974.35
-33369.2
-7477.44
-34364.1
-8016.26
-35314.3
-8594.95
-36221.7
-9211.36
-37112.1
-9857.34
-38034.2
-10521.2
-39031.1
-11192.4
-40134.8
-11863.9
-41371.2
-12531.2
-42761.3
-13191
-44316.2
-13840.3
-46041.6
-14474.1
-47932.5
-15084.9
-49965.3
-15662.7
-52097
-16195.4
-54249
-16663.5
-56240.1
-17022.3
-57617.2
-17166.6
-57401.7
-16919
-54076.2
-16166.7
-46658
-15158.2
-36987.7
-14423.7
-29554.2
-14142.9
-26249.7
-14092.7
-24880.5
-14087.7
-23431.7
-14090
-21583.5
-14103.2
-19520.7
-14133.9
-17263.9
-14194
-14813.1
-14296.1
-12212.1
-14449.1
-9497.45
-14658.9
-6696.76
-14930.4
-3841.29
-15271.3
-959.923
-15707.2
1980.18
-16276.6
5150.7
-17015.7
8742.95
-17963
12937.4
-19166.8
17998.6
-20685.8
24255.8
-22591.9
32134.8
-24979
42217.7
-28002.8
55399.7
-31994
73222.2
-37656
98499.1
-46117.1
135986
-58097
191566
-71468.6
266518
-78478.6
344702
-66904.2
379168
295870
-2357.76
-8690.19
-2358.17
-10444.7
-2355.87
-11544.4
-2347.07
-12774.4
-2332.11
-13972.8
-2317.38
-15107.5
-2319.82
-16087.3
-2362.53
-16811.7
-2460.88
-17240.6
-2604.93
-17478.6
-2764.87
-17742.8
-2917.26
-18212.9
-3059.49
-18932.2
-3199.89
-19842.3
-3344.55
-20861.3
-3494.26
-21924.6
-3649.69
-22977.9
-3816.46
-23975
-4002.84
-24891.7
-4214.88
-25717.7
-4456.15
-26463.8
-4730.88
-27195
-5044.44
-27990.8
-5400.64
-28882
-5798.11
-29849.4
-6230.3
-30857.1
-6690.52
-31877.1
-7177.86
-32881.9
-7697.13
-33844.9
-8254.41
-34757.1
-8851.04
-35625
-9482.5
-36480.6
-10139.4
-37377.3
-10810
-38360.5
-11484.5
-39460.2
-12157.3
-40698.4
-12825.6
-42093
-13487.1
-43654.7
-14139.7
-45389
-14779.3
-47293
-15399
-49345.6
-15989.7
-51506.3
-16539.5
-53699.2
-17029.6
-55750
-17416.6
-57230.2
-17598.5
-57219.9
-17398.1
-54276.5
-16685.7
-47370.5
-15669.8
-38003.5
-14875.6
-30348.4
-14538.6
-26586.7
-14469.2
-24949.9
-14470.7
-23430.2
-14489.4
-21564.8
-14522.2
-19487.9
-14571.2
-17214.9
-14646.3
-14738
-14760.8
-12097.6
-14925.5
-9332.75
-15148.1
-6474.12
-15434.2
-3555.23
-15792.2
-601.856
-16251.7
2439.67
-16851.5
5750.48
-17625.9
9517.37
-18614.6
13926
-19865
19249.1
-21434.4
25825.1
-23393.3
34093.7
-25844.3
44668.7
-28986
58541.3
-33253.4
77489.6
-39482.2
104728
-48741.6
145245
-61121.8
203946
-73311.3
278707
-76912.6
348303
-60951.3
363206
256776
-2417.36
-8701.56
-2415.4
-10446.6
-2410.32
-11549.5
-2399.33
-12785.4
-2383.25
-13988.8
-2369.54
-15121.2
-2376.39
-16080.5
-2427.48
-16760.6
-2535.6
-17132.5
-2685.72
-17328.4
-2845.65
-17582.9
-2994.87
-18063.7
-3134.88
-18792.2
-3275.42
-19701.7
-3421.81
-20714.9
-3574.32
-21772.1
-3734.01
-22818.2
-3907.33
-23801.7
-4103.3
-24695.7
-4327.88
-25493.2
-4583.48
-26208.2
-4872.69
-26905.7
-5199.41
-27664.1
-5566.74
-28514.6
-5973.78
-29442.3
-6415.11
-30415.7
-6885.6
-31406.6
-7386.09
-32381.4
-7922.18
-33308.8
-8498.14
-34181.1
-9112.13
-35011
-9757.11
-35835.6
-10422.8
-36711.6
-11098.1
-37685.3
-11774.4
-38783.9
-12447.7
-40025.1
-13116.6
-41424.2
-13780.1
-42991.2
-14436.8
-44732.3
-15083.2
-46646.5
-15713.3
-48715.5
-16318.4
-50901.2
-16887.4
-53130.2
-17401.7
-55235.7
-17819.5
-56812.4
-18041.6
-56997.7
-17892.3
-54425.8
-17226.1
-48036.7
-16210.9
-39018.8
-15357.9
-31201.4
-14956
-26988.6
-14857.3
-25048.6
-14858.8
-23428.7
-14890.9
-21532.7
-14943.2
-19435.7
-15012.6
-17145.4
-15106
-14644.7
-15236.1
-11967.5
-15415
-9153.89
-15651.9
-6237.16
-15953.3
-3253.9
-16328.5
-226.655
-16811.3
2922.52
-17441.4
6380.54
-18250.3
10326.3
-19278.2
14953.9
-20571.1
20542
-22184.8
27438.8
-24192.9
36101.8
-26720.3
47196
-30029.9
61850.9
-34671.6
82131.4
-41559
111615
-51544.2
155231
-63953.4
216355
-74460.6
289214
-74499.3
348342
-54594
343301
215584
-2475.05
-8714.88
-2470.25
-10451.4
-2462.29
-11557.5
-2449.2
-12798.5
-2432.31
-14005.7
-2420.15
-15133.3
-2432.1
-16068.5
-2492.07
-16700.7
-2609.76
-17014.8
-2765.01
-17173.2
-2924.11
-17423.8
-3070.15
-17917.7
-3208.53
-18653.8
-3349.79
-19560.5
-3498.35
-20566.4
-3654.09
-21616.3
-3818.65
-22653.7
-3999.33
-23621
-4205.7
-24489.3
-4443.55
-25255.3
-4714.01
-25937.7
-5017.91
-26601.8
-5357.75
-27324.3
-5736.06
-28136.3
-6152.64
-29025.7
-6603.44
-29964.9
-7084.93
-30925.1
-7599.39
-31867
-8152.68
-32755.5
-8747.06
-33586.7
-9377.35
-34380.8
-10034.1
-35178.9
-10706.4
-36039.3
-11384.4
-37007.3
-12061.2
-38107.1
-12734.2
-39352
-13403.7
-40754.7
-14069.6
-42325.3
-14731.1
-44070.8
-15385.5
-45992.2
-16027.2
-48073.7
-16648.5
-50279.9
-17238.3
-52540.4
-17779
-54695.1
-18229.8
-56361.6
-18494.7
-56732.8
-18400.3
-54520.3
-17787.3
-48649.7
-16782.4
-40023.7
-15874.3
-32109.5
-15400.2
-27462.7
-15261.1
-25187.6
-15254.5
-23435.3
-15295.1
-21492.1
-15364.6
-19366.1
-15455.2
-17054.8
-15569.3
-14530.6
-15718
-11818.8
-15913.7
-8958.12
-16167
-5983.88
-16484.7
-2936.21
-16877.3
165.938
-17383.2
3428.46
-18042.8
7040.11
-18884.4
11168
-19948
16017.4
-21278.3
21872.2
-22931.9
29092.5
-24993.7
38163.6
-27626.2
49828.5
-31173.5
65398.3
-36288.5
87246.3
-43876.3
119203
-54424.4
165779
-66449.9
228381
-74853.1
297617
-71278.1
344767
-48235.2
320258
175725
-2530.75
-8730.58
-2522.57
-10459.6
-2511.59
-11568.4
-2496.5
-12813.6
-2479.09
-14023.1
-2469.02
-15143.4
-2486.77
-16050.8
-2556.09
-16631.3
-2683.02
-16887.8
-2842.48
-17013.7
-3000.14
-17266.1
-3143.24
-17774.6
-3280.62
-18516.5
-3423.17
-19417.9
-3574.31
-20415.2
-3733.75
-21456.9
-3903.9
-22483.5
-4092.79
-23432.1
-4310.41
-24271.7
-4562.22
-25003.5
-4847.95
-25652
-5166.66
-26283.1
-5519.49
-26971.5
-5908.62
-27747.2
-6334.78
-28599.6
-6795.51
-29504.2
-7288.81
-30431.8
-7818.01
-31337.8
-8388.61
-32184.9
-9000.61
-32974.7
-9645.68
-33735.7
-10312.1
-34512.5
-10988.9
-35362.4
-11667.8
-36328.5
-12343.9
-37431
-13016.3
-38679.6
-13686.5
-40084.5
-14355.3
-41656.5
-15022.4
-43403.6
-15685.7
-45328.9
-16340.4
-47419.1
-16979.1
-49641.2
-17591.6
-51927.9
-18160.4
-54126.2
-18646.3
-55875.7
-18956.5
-56422.6
-18920.5
-54556.3
-18367.9
-49202.3
-17384.7
-41007
-16428.4
-33065.7
-15876.7
-28014.4
-15686
-25378.3
-15661.4
-23459.9
-15703.8
-21449.7
-15786.6
-19283.3
-15896.8
-16944.5
-16032.3
-14395.1
-16201.4
-11649.7
-16415.9
-8743.6
-16686.6
-5713.22
-17021.2
-2601.6
-17433.4
578.149
-17963.6
3958.64
-18650.9
7727.38
-19522.4
12039.5
-20617.5
17112.6
-21981.1
23235.8
-23675.6
30787
-25807.5
40295.5
-28591.3
52612.3
-32458.2
69265.1
-38127.7
92915.8
-46394.1
127470
-57267.1
176652
-68487
239601
-74436.3
303567
-67277.5
337608
-41993.6
294974
140783
-2584.37
-8749.07
-2572.28
-10471.7
-2558.07
-11582.7
-2541.01
-12830.7
-2523.39
-14040.8
-2515.98
-15150.8
-2540.25
-16026.5
-2619.32
-16552.3
-2755.08
-16752.1
-2917.88
-16850.9
-3073.75
-17110.3
-3214.31
-17634
-3351.36
-18379.4
-3495.71
-19273.6
-3649.85
-20261.1
-3813.53
-21293.2
-3990.04
-22307
-4188.07
-23234.1
-4417.79
-24042
-4684.18
-24737.1
-4985.48
-25350.7
-5318.99
-25949.6
-5684.63
-26605.8
-6084.47
-27347.3
-6520.34
-28163.7
-6991.51
-29033
-7497.47
-29925.9
-8042.06
-30793.2
-8629.82
-31597.1
-9258.18
-32346.4
-9916.01
-33077.8
-10589.9
-33838.6
-11269.2
-34683.2
-11947.3
-35650.3
-12621.9
-36756.4
-13293.5
-38008
-13964.5
-39413.4
-14636.7
-40984.3
-15310.3
-42730.1
-15983.5
-44655.7
-16652.2
-46750.4
-17309.8
-48983.6
-17946.4
-51291.3
-18545.2
-53527.4
-19068
-55352.9
-19425.6
-56065
-19451.3
-54530.6
-18966.3
-49687.2
-18017.1
-41956.2
-17022.8
-34060
-16391.3
-28645.9
-16138.2
-25631.3
-16085
-23513.1
-16121
-21413.8
-16211
-19193.3
-16337.5
-16818.1
-16493.2
-14239.4
-16682.9
-11460
-16917
-8509.54
-17205.8
-5424.43
-17558.3
-2249.06
-17992.4
1012.21
-18547.2
4513.5
-19259.8
8439.92
-20158.2
12937.9
-21281.8
18236.2
-22678.4
24632.4
-24423.3
32531.8
-26655.2
42527.4
-29651.4
55608.5
-33919.7
73533.4
-40190.9
99187
-49046.5
136325
-59951.5
187557
-69961.7
249611
-73206.6
306812
-62693.7
327095
-35917
268198
109493
-2635.81
-8770.67
-2619.32
-10488.2
-2601.58
-11600.4
-2582.53
-12849.7
-2564.99
-14058.3
-2560.82
-15155
-2592.36
-15994.9
-2681.56
-16463.1
-2825.71
-16607.9
-2991.07
-16685.6
-3144.99
-16956.3
-3283.59
-17495.4
-3420.99
-18242
-3567.59
-19127
-3725.16
-20103.5
-3893.69
-21124.7
-4077.4
-22123.3
-4285.56
-23025.9
-4528.21
-23799.3
-4809.7
-24455.6
-5126.75
-25033.6
-5474.93
-25601.4
-5853.15
-26227.6
-6263.63
-26936.9
-6709.45
-27717.9
-7191.66
-28550.8
-7711.11
-29406.4
-8271.56
-30232.7
-8875.97
-30992.7
-9519.02
-31703.3
-10187.2
-32409.6
-10866.1
-33159.7
-11545.9
-34003.4
-12222.1
-34974.1
-12894.4
-36084.1
-13565.1
-37337.4
-14237.4
-38741.1
-14913.5
-40308.2
-15594.2
-42049.5
-16278.2
-43971.7
-16962.1
-46066.5
-17639.7
-48306
-18301.9
-50629.1
-18932.1
-52897.2
-19493.5
-54791.5
-19900.4
-55658.2
-19991
-54440
-19580.4
-50097.8
-18678.2
-42858.5
-17658.9
-35079.3
-16949.2
-29355.6
-16624.6
-25955.9
-16531.7
-23606
-16552.1
-21393.3
-16642.2
-19103.2
-16779.8
-16680.5
-16952.9
-14066.3
-17162.4
-11250.5
-17416.5
-8255.48
-17724.4
-5116.52
-18095.5
-1877.9
-18550.9
1467.6
-19128.8
5091.41
-19864.6
9175.73
-20788
13861.3
-21939.8
19387.9
-23375.4
26068
-25190.4
34346.9
-27565.9
44902.9
-30842.8
58885.3
-35581.5
78272.1
-42456
106061
-51748
145617
-62360.8
198170
-70800.3
258050
-71202.3
307214
-57669.9
313563
-30129
240657
82753.4
-2684.92
-8795.62
-2663.65
-10509.4
-2642.06
-11622
-2620.9
-12870.9
-2603.69
-14075.5
-2603.4
-15155.3
-2642.99
-15955.4
-2742.67
-16363.4
-2894.76
-16455.8
-3062.03
-16518.3
-3214.05
-16804.3
-3351.34
-17358.1
-3489.73
-18103.6
-3639.01
-18977.7
-3800.44
-19942.1
-3974.49
-20950.6
-4166.33
-21931.5
-4385.63
-22806.6
-4642.05
-23542.9
-4939.04
-24158.6
-5271.86
-24700.8
-5634.47
-25238.8
-6025.02
-25837
-6446.13
-26515.8
-6902.24
-27261.8
-7396.19
-28056.9
-7929.86
-28872.7
-8506.39
-29656.2
-9126.57
-30372.5
-9782.26
-31047.6
-10458.2
-31733.7
-11139.7
-32478.2
-11818.1
-33325
-12491.2
-34300.9
-13160.9
-35414.4
-13830.7
-36667.6
-14504.6
-38067.2
-15185.3
-39627.5
-15873.8
-41360.9
-16569.5
-43276
-17269.5
-45366.6
-17968.3
-47607.2
-18657.1
-49940.2
-19320.1
-52234.2
-19921.7
-54189.9
-20379.5
-55200.4
-20537.5
-54282
-20207.5
-50427.8
-19365.5
-43700.4
-18337.1
-36107.8
-17554.8
-30138
-17151.9
-26358.7
-17008.7
-23749.2
-17003.9
-21398.2
-17085.8
-19021.3
-17228
-16538.3
-17414.3
-13880
-17641.4
-11023.3
-17914.5
-7982.36
-18240.9
-4790.14
-18629.7
-1489.13
-19105
1942.92
-19704.7
5691.08
-20462.8
9933.85
-21411.5
14810
-22595.7
20572.2
-24084.3
27556.5
-26000.5
36263.1
-28572.5
47475
-32197.2
62510
-37450.1
83525.1
-44877.9
113489
-54401.2
155141
-64389.7
208158
-70961.6
264622
-68504
304756
-52394.1
297453
-24663.9
212927
59340.8
-2731.51
-8824.04
-2705.22
-10535.7
-2679.46
-11647.8
-2656.02
-12894.3
-2639.34
-14092.2
-2643.57
-15151.1
-2692.05
-15906.9
-2802.58
-16252.9
-2962.17
-16296.2
-3130.82
-16349.7
-3281.14
-16654
-3417.86
-17221.4
-3557.84
-17963.6
-3710.17
-18825.4
-3875.93
-19776.3
-4056.24
-20770.3
-4257.18
-21730.5
-4488.67
-22575.2
-4759.63
-23272
-5072.43
-23845.8
-5420.86
-24352.4
-5797.54
-24862.2
-6200.19
-25434.4
-6632.01
-26083.9
-7098.87
-26794.9
-7605.26
-27550.5
-8153.77
-28324.2
-8746.29
-29063.7
-9380.9
-29737.9
-10046.8
-30381.7
-10727.7
-31052.9
-11409.3
-31796.6
-12084.7
-32649.6
-12754
-33631.6
-13420.9
-34747.5
-14090
-35998.4
-14765.9
-37391.3
-15451.7
-38941.7
-16148.7
-40663.9
-16856.9
-42567.8
-17573.8
-44649.7
-18294.7
-46886.3
-19011.3
-49223.6
-19708.2
-51537.3
-20351
-53547.1
-20861.2
-54690.2
-21088.9
-54054.2
-20845.1
-50671.6
-20076.1
-44469.4
-19056.1
-37127.8
-18211.1
-30982.9
-17726.6
-26843.3
-17523.3
-23952.6
-17483.3
-21438.1
-17548.2
-18956.4
-17687.5
-16399.1
-17881.2
-13686.2
-18121.9
-10782.6
-18411.4
-7692.83
-18754.4
-4447.14
-19159.2
-1084.29
-19653.3
2436.96
-20274.4
6312.17
-21055.7
10715.2
-22033.5
15787.8
-23260.8
21799.5
-24824.7
29120.4
-26882
38320.4
-29707.4
50300.4
-33736.1
66538.6
-39512.5
89301.4
-47392.6
121369
-56904.8
164653
-65950.9
217204
-70437.7
269109
-65217.1
299536
-47022.7
279259
-19607.5
185511
39227.6
-2775.37
-8855.93
-2743.97
-10567.1
-2713.77
-11678
-2687.83
-12920.3
-2671.85
-14108.2
-2681.28
-15141.6
-2739.54
-15848.6
-2861.29
-16131.1
-3027.98
-16129.5
-3197.6
-16180.1
-3346.57
-16505
-3483.45
-17084.5
-3625.58
-17821.5
-3781.31
-18669.7
-3951.88
-19605.7
-4139.25
-20582.9
-4350.34
-21519.4
-4595.06
-22330.4
-4881.3
-22985.7
-5210.05
-23517.1
-5573.78
-23988.7
-5964.1
-24471.8
-6378.62
-25019.9
-6821.33
-25641.2
-7299.49
-26316.8
-7818.99
-27031
-8382.75
-27760.5
-8990.77
-28455.6
-9638.01
-29090.7
-10311.5
-29708.2
-10994.5
-30369.9
-11673.9
-31117.2
-12344.9
-31978.6
-13009.7
-32966.8
-13673.7
-34083.4
-14342.5
-35329.7
-15020.9
-36712.9
-15712.3
-38250.3
-16418.5
-39957.8
-17139.7
-41846.6
-17874.3
-43915.1
-18618.1
-46142.5
-19363.3
-48478.4
-20095
-50805.5
-20780.2
-52862
-21343.9
-54126.5
-21643
-53755.1
-21490.1
-50824.6
-20806.1
-45153.3
-19813.4
-38120.5
-18919.8
-31876.5
-18354.3
-27408.8
-18082.8
-24224
-17998.3
-21522.7
-18037
-18917.7
-18164.9
-16271.2
-18359
-13492.2
-18607.9
-10533.7
-18910
-7390.7
-19267.1
-4090.13
-19686.2
-665.165
-20198.2
2948.99
-20841.8
6955.75
-21650
11523.4
-22665.3
16803.1
-23952.4
23086.7
-25621.7
30789.6
-27865.4
40564.1