/*--------------------------------*- C++ -*----------------------------------*\
| =========                 |                                                 |
| \\      /  F ield         | OpenFOAM: The Open Source CFD Toolbox           |
|  \\    /   O peration     | Version:  4.1                                   |
|   \\  /    A nd           | Web:      www.OpenFOAM.org                      |
|    \\/     M anipulation  |                                                 |
\*---------------------------------------------------------------------------*/
FoamFile
{
    version     2.0;
    format      ascii;
    class       volSymmTensorField;
    location    "24";
    object      R;
}
// * * * * * * * * * * * * * * * * * * * * * * * * * * * * * * * * * * * * * //

dimensions      [0 2 -2 0 0 0 0];

internalField   nonuniform List<symmTensor> 
6785
(
(0.264535 1.38727e-15 1.68824e-15 0.191702 0.0371869 0.369732)
(0.000127391 7.02101e-21 8.1209e-21 0.000126868 2.22593e-07 0.000128107)
(0.000121984 -3.40423e-22 -2.96117e-22 0.000121993 1.10063e-08 0.000121981)
(0.000121979 2.42315e-22 -6.63421e-23 0.000121983 8.52318e-09 0.000121976)
(0.000121993 -3.11852e-22 -1.7678e-22 0.000121997 8.15453e-09 0.000121991)
(0.000121968 1.4382e-22 9.07703e-23 0.000121971 7.45226e-09 0.000121966)
(0.000121983 1.4064e-22 -1.05955e-22 0.000121986 6.85672e-09 0.000121982)
(0.000121989 -2.83076e-22 -2.34397e-22 0.000121991 6.2604e-09 0.000121988)
(0.000121962 1.70563e-22 2.95728e-25 0.000121963 5.75734e-09 0.000121962)
(0.000121976 1.13963e-22 -1.04031e-22 0.000121977 5.40339e-09 0.000121977)
(0.00012198 -3.21816e-22 -1.59173e-22 0.00012198 4.78213e-09 0.000121982)
(0.000121948 5.74606e-23 9.14387e-23 0.000121946 3.64057e-09 0.00012195)
(0.000122479 3.93025e-23 -2.51385e-22 0.000122473 -8.33788e-09 0.000122478)
(0.000353602 4.73027e-20 -2.4648e-20 0.000322631 -6.13598e-05 0.000339962)
(0.408511 2.76214e-16 -1.18474e-16 0.275852 -0.287228 0.356318)
(0.335066 2.77876e-15 5.46411e-15 0.136097 -0.00397865 0.592985)
(0.000694257 1.31232e-18 2.60073e-18 0.000394771 -1.25078e-05 0.00104039)
(2.23243e-07 1.93566e-25 8.58653e-25 2.23392e-07 3.4959e-11 2.23181e-07)
(2.08712e-07 9.44397e-25 6.35144e-25 2.08734e-07 -4.14657e-12 2.08635e-07)
(1.98778e-07 -3.2211e-24 -2.88063e-24 1.98826e-07 4.25422e-12 1.98715e-07)
(1.88612e-07 3.64611e-24 2.74766e-24 1.88649e-07 1.2732e-12 1.88556e-07)
(1.78821e-07 -7.14428e-25 -4.28118e-25 1.78857e-07 3.66679e-13 1.78772e-07)
(1.68969e-07 -1.77273e-24 -1.27466e-24 1.69e-07 -9.69827e-13 1.68926e-07)
(1.58925e-07 2.99339e-24 2.22574e-24 1.58952e-07 -2.08374e-12 1.58887e-07)
(1.48988e-07 -4.87945e-25 -4.50861e-25 1.49013e-07 -2.23125e-12 1.48955e-07)
(1.39707e-07 -4.61337e-25 -7.70977e-25 1.3973e-07 -3.23044e-12 1.39679e-07)
(1.41189e-07 -5.66532e-24 8.54561e-24 1.40499e-07 -1.28725e-09 1.40517e-07)
(1.6817e-05 -3.7138e-20 2.17374e-20 1.46417e-05 -4.3796e-06 1.4861e-05)
(0.00586001 -2.9037e-17 8.55281e-18 0.00492083 -0.00171931 0.00503393)
(0.130352 1.4967e-15 3.94397e-16 0.0833658 -0.0604891 0.11505)
(0.407903 2.38298e-15 5.5054e-15 0.130957 -0.0694385 0.773586)
(0.00409777 3.42869e-18 1.3639e-17 0.00153781 -0.000675193 0.00673367)
(6.26944e-09 -2.00087e-26 1.33704e-24 4.75658e-09 -1.24242e-10 7.84113e-09)
(7.43495e-09 -2.65066e-25 1.05214e-24 8.64129e-09 -4.60972e-11 7.20482e-09)
(1.62651e-06 -5.09437e-22 5.77018e-22 2.17499e-06 -3.02879e-08 1.51999e-06)
(1.5433e-05 -4.73772e-20 -1.93844e-20 2.42647e-05 -9.19323e-07 1.41052e-05)
(3.83474e-05 1.52375e-19 1.34502e-19 6.52979e-05 -4.22151e-06 3.82455e-05)
(6.74284e-05 -1.85438e-19 3.24939e-19 0.000113775 -9.70232e-06 7.40784e-05)
(9.83239e-05 -2.69352e-18 -2.95022e-19 0.000164806 -1.89228e-05 0.000115045)
(0.000142894 -4.08631e-18 2.37326e-18 0.0002361 -4.22314e-05 0.000171529)
(0.000257556 -9.35372e-18 3.11937e-18 0.000434037 -0.00012191 0.000296632)
(0.00063933 -5.62741e-18 -7.28836e-19 0.00113359 -0.00042865 0.000664456)
(0.00212078 1.21576e-16 -3.77176e-17 0.00384472 -0.00160993 0.00197163)
(0.010584 9.92594e-16 -1.09422e-16 0.0191276 -0.00633911 0.00953811)
(0.0164233 5.08205e-15 3.25425e-15 0.0405959 0.0589385 0.00996334)
(0.49736 2.09619e-15 5.53339e-15 0.156061 -0.140153 0.953556)
(0.00821907 -5.04705e-18 1.10943e-16 0.0030513 -0.00340821 0.0135067)
(1.11661e-06 1.97344e-21 1.16101e-19 6.37999e-07 -3.80009e-06 1.66885e-06)
(7.19444e-08 1.88962e-22 8.00993e-23 9.92303e-08 -1.09657e-08 6.66316e-08)
(4.08217e-06 4.5041e-20 3.68468e-20 6.37356e-06 -2.69996e-07 3.80496e-06)
(4.06625e-05 -3.47057e-19 2.34153e-19 7.04751e-05 -7.68337e-06 4.17253e-05)
(0.000147807 -6.4335e-18 -2.27929e-18 0.000279164 -4.31551e-05 0.00017172)
(0.000347547 2.58131e-17 8.47501e-18 0.000675006 -0.000126124 0.000460994)
(0.000732586 -4.53644e-18 2.02964e-17 0.00144734 -0.000279365 0.00108166)
(0.00131458 -2.42001e-16 -2.66328e-17 0.00241546 -0.00046688 0.00219031)
(0.00178953 4.00917e-17 1.0258e-16 0.0029324 -0.000640942 0.00317411)
(0.00198258 -9.68466e-16 4.19595e-16 0.00317471 -0.00101909 0.00314002)
(0.00318413 -3.57874e-15 1.50601e-15 0.00535918 -0.00218729 0.00422613)
(0.00595121 3.16615e-15 -1.09488e-15 0.0108099 -0.00498283 0.00533468)
(0.00992566 2.91044e-14 -2.20868e-15 0.0178778 -0.0052576 0.00814021)
(0.59616 1.15425e-15 3.12793e-15 0.194145 -0.205762 1.13828)
(0.0118571 1.86275e-17 8.97829e-17 0.00474443 -0.00616039 0.0187062)
(7.48635e-06 1.08916e-19 5.62967e-19 1.12187e-05 -2.99268e-05 8.87642e-06)
(1.4327e-06 -3.02186e-20 5.55285e-20 2.6281e-06 -1.37979e-06 1.37198e-06)
(1.94897e-05 4.34099e-19 1.81851e-19 3.71681e-05 -4.67598e-06 1.95858e-05)
(0.000137441 2.80782e-18 1.47082e-18 0.000266641 -5.37216e-05 0.000149229)
(0.000547845 -5.78935e-17 -1.2706e-18 0.00112285 -0.000253961 0.000629158)
(0.00153479 3.29465e-17 9.05365e-18 0.00313944 -0.000812822 0.00188332)
(0.00366788 2.43559e-16 7.47729e-17 0.00739752 -0.00209097 0.00469318)
(0.00687958 -9.57942e-16 -5.37722e-17 0.0134146 -0.00421635 0.00939647)
(0.00882627 -1.06799e-15 -6.49517e-17 0.0156903 -0.00561813 0.0134215)
(0.00666376 -8.68967e-16 7.15703e-16 0.0082552 -0.00445586 0.0125974)
(0.00873031 -4.8983e-15 1.99436e-15 0.00847833 -0.00373168 0.0183262)
(0.00949501 -1.50547e-15 -2.69266e-16 0.0102201 -0.00500172 0.0158246)
(0.022343 4.2308e-14 -6.00056e-15 0.0320348 -0.0126891 0.0240095)
(0.702919 8.27884e-16 2.30082e-15 0.238488 -0.26282 1.33041)
(0.025088 7.07845e-18 -3.87432e-16 0.00967587 -0.00726506 0.038724)
(8.94389e-05 -2.17043e-19 -5.00105e-18 0.00015033 -2.98091e-05 8.78311e-05)
(5.15916e-06 -2.86799e-19 3.40644e-20 9.44678e-06 -3.81422e-06 5.17971e-06)
(4.02478e-05 1.51817e-18 -7.25348e-19 7.56306e-05 -3.14171e-05 4.15527e-05)
(0.00024923 1.00961e-17 -6.31811e-18 0.000471505 -0.000217579 0.000269418)
(0.000887257 -9.96188e-17 5.99508e-17 0.00171784 -0.000836743 0.000984461)
(0.00223876 5.56101e-17 -8.29749e-17 0.00427082 -0.00232212 0.00258169)
(0.00463506 3.36643e-16 -1.64938e-16 0.00878836 -0.00485483 0.0054597)
(0.00807906 -8.01769e-16 5.76393e-16 0.0149877 -0.00862575 0.00992554)
(0.0124477 -1.00177e-15 -2.25816e-16 0.0217195 -0.011457 0.0165727)
(0.0145319 -1.16835e-15 8.80049e-16 0.0200539 -0.00903994 0.0226147)
(0.015277 -3.29109e-15 -5.90133e-16 0.0134723 -0.00682959 0.0283051)
(0.0188072 1.34193e-14 -1.00646e-14 0.016399 -0.00550301 0.0334968)
(0.0265951 1.83071e-15 -6.31224e-15 0.0318218 -0.0211387 0.0311092)
(0.796924 2.12694e-15 6.87199e-15 0.279713 -0.309168 1.4868)
(0.0699404 -3.98396e-16 -2.56283e-15 0.0283776 -0.0107487 0.113805)
(0.00202806 -6.15968e-17 -3.44186e-17 0.00205154 -0.000180621 0.00237629)
(6.39347e-05 -1.2538e-17 1.26868e-18 8.03616e-05 -4.51323e-05 6.78769e-05)
(4.31978e-05 1.4862e-18 -3.20155e-18 8.30254e-05 -7.10446e-05 4.4062e-05)
(0.000197907 8.82297e-18 2.08163e-18 0.000362372 -0.000306103 0.000213231)
(0.000714969 -7.78878e-17 4.94751e-17 0.00133923 -0.000940236 0.000778938)
(0.00179223 5.69324e-17 -8.38751e-17 0.00325942 -0.0021588 0.00202375)
(0.00325823 1.81927e-16 -7.57008e-17 0.00585868 -0.00391941 0.00366141)
(0.00471808 -3.66071e-16 -4.33186e-18 0.00843904 -0.00625742 0.00532652)
(0.00652319 -3.11674e-16 -1.05731e-15 0.0118345 -0.0080163 0.00748328)
(0.00760108 -5.44304e-16 8.00608e-16 0.0136477 -0.00471753 0.00866265)
(0.00831704 -3.21885e-15 -9.63682e-16 0.0125457 -0.00299019 0.0093664)
(0.00991625 5.71338e-15 -5.84629e-15 0.00757298 -0.00685105 0.0136883)
(0.0151022 2.40738e-15 -6.78142e-15 0.0122172 -0.0202371 0.023433)
(0.863216 2.48965e-15 8.60724e-15 0.311215 -0.344282 1.57846)
(0.127629 -2.92839e-16 -3.96082e-15 0.0557503 -0.0258436 0.21595)
(0.0123118 -1.94316e-16 -1.5439e-16 0.0100255 -0.000983546 0.0166299)
(0.00137476 -1.20391e-16 2.14316e-18 0.0013498 -0.000250065 0.00171481)
(0.000249457 2.40798e-19 1.45865e-18 0.000360025 -0.000110695 0.000296998)
(0.000197776 7.42747e-18 6.30597e-18 0.000347211 -0.000251682 0.000221525)
(0.000563104 -5.63931e-17 2.67631e-17 0.00104608 -0.000653328 0.000618342)
(0.00140657 3.13366e-17 -3.42522e-17 0.00253315 -0.00141423 0.00160208)
(0.00241691 1.19864e-16 -1.2931e-17 0.00426833 -0.00236107 0.00271534)
(0.00306423 -1.16319e-16 5.00334e-17 0.00533418 -0.00347473 0.00337551)
(0.00354859 -8.93402e-17 1.37917e-16 0.00628117 -0.00445277 0.00385232)
(0.00358661 -1.30987e-16 1.9246e-16 0.0065248 -0.00449526 0.00375305)
(0.00399532 -1.76535e-15 -2.03881e-15 0.00766913 -0.00485372 0.00386399)
(0.00508794 1.81844e-15 -4.57201e-15 0.0104427 -0.00635927 0.00429136)
(0.00419737 7.47089e-16 -5.78348e-15 1e-15 -0.0150259 0.0168628)
(0.89742 2.72871e-15 9.31853e-15 0.329563 -0.362396 1.60498)
(0.177094 -1.43027e-15 -7.09896e-15 0.0821082 -0.0522772 0.311977)
(0.0260025 -6.22089e-16 -3.2611e-16 0.0231503 -0.00748015 0.0352922)
(0.00432514 -3.804e-16 1.09364e-16 0.00472343 -0.00200903 0.00546304)
(0.000947585 -1.27996e-17 1.14796e-17 0.00137605 -0.000409121 0.00117569)
(0.000351016 1.09023e-17 4.52832e-18 0.000588154 -0.000269671 0.000428803)
(0.000516883 -3.95983e-17 1.95357e-17 0.000959202 -0.00046742 0.000586757)
(0.00123396 -1.60531e-17 -4.20791e-18 0.00226861 -0.00100527 0.00144159)
(0.0020959 1.11111e-16 -1.12687e-17 0.0037758 -0.00160395 0.00241136)
(0.00245831 4.04339e-17 7.95365e-17 0.00430165 -0.00212413 0.00273432)
(0.00241781 -1.0431e-16 3.2279e-16 0.00421439 -0.00222426 0.00259775)
(0.00231884 -2.14341e-17 5.68339e-16 0.00416121 -0.00221686 0.00240048)
(0.00294307 -3.6514e-16 1.05607e-15 0.00562116 -0.00327419 0.00299307)
(0.00488831 -3.01967e-16 3.25765e-15 0.00987127 -0.00577704 0.00457282)
(0.00504536 8.75188e-16 1.45896e-14 0.00995718 0.000844566 0.00426989)
(0.906135 2.01208e-15 9.66235e-15 0.335926 -0.363937 1.58901)
(0.210858 -1.57899e-15 -7.42998e-15 0.102049 -0.0725726 0.388242)
(0.0390105 -1.74754e-15 -7.04239e-16 0.0393492 -0.01788 0.0522949)
(0.00840992 -4.79512e-16 1.82375e-16 0.0105157 -0.00577901 0.0106244)
(0.00222918 3.55593e-17 2.33438e-17 0.00353587 -0.00165524 0.00281498)
(0.000732827 -2.76062e-17 2.04784e-17 0.00126483 -0.000634197 0.000952386)
(0.000608502 -3.93926e-17 2.131e-17 0.00114768 -0.000511929 0.000732114)
(0.00119782 -9.47588e-17 1.73573e-17 0.00227069 -0.000931576 0.00144192)
(0.00203136 -1.8968e-16 4.73459e-17 0.00379687 -0.00144601 0.00240653)
(0.00231495 -1.9652e-17 3.60912e-17 0.00417625 -0.00176876 0.00263358)
(0.00202991 -6.02828e-17 1.13203e-16 0.00357495 -0.0016625 0.00219647)
(0.001865 5.72973e-17 2.51118e-16 0.00335787 -0.00151485 0.00194397)
(0.00245181 1.41892e-16 8.05202e-16 0.00459745 -0.00192875 0.00258781)
(0.00445614 -6.2086e-16 4.04765e-15 0.00870649 -0.00424357 0.00449431)
(0.00452724 1.06386e-15 1.87394e-14 0.00785688 0.00100991 0.00410596)
(0.902242 8.74659e-16 5.78641e-15 0.335153 -0.354538 1.55995)
(0.227598 -3.03052e-15 -7.46145e-15 0.115236 -0.0792159 0.435428)
(0.0492545 -2.70815e-15 -6.09291e-16 0.0547258 -0.0270779 0.065221)
(0.0136687 6.67647e-17 2.16946e-17 0.0189276 -0.0113777 0.0173671)
(0.00448193 -2.12439e-16 5.62229e-17 0.00758318 -0.00411651 0.00576663)
(0.00160471 -1.11364e-16 8.99057e-17 0.00288003 -0.0015797 0.00216877)
(0.000942345 -1.60678e-16 4.10747e-17 0.00180267 -0.000860011 0.00122609)
(0.00127534 -5.11617e-16 9.23071e-17 0.00246859 -0.00106216 0.00160189)
(0.00204027 -6.93637e-16 1.89843e-16 0.00392911 -0.00152885 0.00250107)
(0.00235946 -6.74917e-16 1.8275e-16 0.00441447 -0.00179401 0.00277754)
(0.00201363 -4.78035e-16 1.88822e-16 0.00364375 -0.00158571 0.00223739)
(0.00175642 2.17129e-16 7.97879e-17 0.00319777 -0.00139998 0.00186588)
(0.00209911 5.60896e-16 -1.29066e-16 0.00391877 -0.00170516 0.00222243)
(0.0039744 3.50489e-16 1.0294e-15 0.00766139 -0.00373027 0.00413347)
(0.00523167 1.719e-15 7.04766e-15 0.00840689 -0.00375147 0.00493761)
(0.896542 9.0682e-16 3.64749e-15 0.331846 -0.341723 1.53782)
(0.230003 -4.9288e-15 -1.2091e-14 0.120242 -0.0751569 0.451503)
(0.0568924 -3.70267e-15 -9.46872e-16 0.0673547 -0.0335451 0.0751502)
(0.0197435 1.28966e-15 -4.92986e-16 0.0290935 -0.0175289 0.025253)
(0.00782537 -8.51519e-16 2.6731e-16 0.0137217 -0.00757381 0.0101356)
(0.00313535 -2.1288e-16 1.92835e-16 0.00569756 -0.00315739 0.00433552)
(0.00178351 -1.85372e-16 7.60361e-17 0.00343779 -0.00158824 0.00248717)
(0.00171007 -1.00381e-15 2.25197e-16 0.00334698 -0.00144543 0.0023205)
(0.00224871 -1.2613e-15 3.44157e-16 0.00438945 -0.00176308 0.00292448)
(0.0025029 -1.28654e-15 3.66809e-16 0.00476237 -0.00192115 0.0031006)
(0.00218926 -8.04268e-16 3.32557e-16 0.00405648 -0.00170377 0.00254821)
(0.00180247 4.21492e-16 3.72607e-18 0.0033042 -0.00142691 0.0019668)
(0.00186177 1.15829e-15 -3.77965e-16 0.00349786 -0.00154864 0.00193491)
(0.00365617 2.04406e-15 -5.55048e-16 0.00705918 -0.00340396 0.00382553)
(0.00717474 4.45001e-15 -1.25692e-16 0.0115205 -0.00389512 0.00701486)
(0.902708 -1.83121e-16 7.34155e-16 0.332746 -0.334021 1.54475)
(0.231281 -3.50469e-15 -7.37755e-15 0.12323 -0.0699083 0.447372)
(0.0613069 -5.51144e-15 -8.56705e-16 0.0771297 -0.0390626 0.0797941)
(0.0239267 1.36902e-15 -7.9067e-16 0.0363574 -0.0230273 0.0309149)
(0.0123476 -8.50682e-16 2.89622e-16 0.0222511 -0.0135661 0.0164008)
(0.0064095 -7.86019e-16 4.54791e-16 0.0117688 -0.00715117 0.00930882)
(0.00509748 8.17192e-16 8.35916e-17 0.009861 -0.00439548 0.00755788)
(0.00409822 -1.06905e-15 3.28742e-16 0.00796622 -0.00332473 0.00623309)
(0.00351057 -2.07367e-15 4.97636e-16 0.00632828 -0.00280888 0.00490967)
(0.00321256 -1.75941e-15 5.63981e-16 0.00588163 -0.00258415 0.00430434)
(0.00262234 -1.41292e-15 5.54936e-16 0.00478715 -0.00211283 0.00326284)
(0.00202157 9.34647e-16 -7.44933e-17 0.00368075 -0.00165707 0.00228469)
(0.00175087 3.78399e-15 -1.14268e-15 0.00326799 -0.00138339 0.00177326)
(0.00374219 9.27489e-15 -4.72274e-15 0.00749739 -0.00338099 0.00378652)
(0.0121514 2.951e-14 -6.19486e-15 0.0187532 -0.00734602 0.0126038)
(0.880816 -1.75262e-15 -5.2e-15 0.325896 -0.323656 1.49038)
(0.321075 -2.55516e-15 -1.52243e-15 0.157617 -0.0782381 0.612808)
(0.102771 -8.4418e-15 -2.6072e-15 0.128008 -0.0500496 0.133922)
(0.0361934 1.79445e-15 -1.38247e-15 0.0601552 -0.0318948 0.0439258)
(0.0142025 -2.57101e-16 2.4088e-16 0.0259539 -0.0108583 0.0170902)
(0.00906932 -8.06309e-16 1.4696e-16 0.0146276 -0.00501685 0.0109871)
(0.00970789 1.28441e-15 4.05339e-16 0.0180955 -0.00425517 0.0126153)
(0.00622362 -3.52168e-16 5.46057e-16 0.0115693 -0.00320167 0.00874313)
(0.00526823 -2.20073e-15 7.52127e-16 0.00915237 -0.00372662 0.00664307)
(0.00294006 -1.85128e-15 7.29329e-16 0.00594765 -0.00405834 0.00178702)
(1e-15 -9.25006e-16 5.79622e-16 1e-15 -0.0023707 0.00348096)
(0.00180956 -2.43714e-16 2.19668e-17 0.00190068 -0.00142032 0.00284787)
(0.00199216 2.0271e-15 -9.01069e-16 0.0030208 -0.00131618 0.00249729)
(0.00919891 1.70183e-14 -9.96118e-15 0.0178459 -0.00706348 0.0111588)
(0.0262641 1.64576e-14 -1.13482e-14 0.0361379 -0.0197078 0.0293885)
(0.86002 -4.51132e-15 -1.50049e-14 0.328613 -0.323666 1.44349)
(1.35178 1.16142e-14 5.82522e-14 0.639328 -0.565525 3.07016)
(0.624208 -7.93737e-15 -2.60775e-14 0.394222 -0.248747 1.25463)
(0.32459 -2.70013e-15 -7.40807e-15 0.25948 -0.155796 0.578628)
(0.185605 1.2604e-15 5.66429e-16 0.186908 -0.103472 0.293259)
(0.125429 -4.05804e-16 -1.72733e-15 0.157704 -0.0804756 0.169824)
(0.100257 5.76098e-16 -1.30177e-15 0.155723 -0.0681673 0.123863)
(0.0927473 1.32911e-15 -7.70136e-17 0.160555 -0.060591 0.125462)
(0.132719 -1.2281e-14 -5.94721e-15 0.198617 -0.0501619 0.232623)
(0.197174 -2.87281e-14 -7.88774e-16 0.257355 -0.0393518 0.389345)
(0.20256 -2.28102e-14 1.13307e-14 0.116823 -0.0154635 0.319712)
(1e-15 -4.66423e-23 2.2655e-21 1e-15 -9.24775e-07 1e-15)
(1e-15 -2.05112e-22 1.84503e-22 1e-15 8.03731e-08 1e-15)
(0.0181797 1.89754e-14 -2.68691e-14 0.0327935 -0.0107344 0.0215888)
(0.0345035 9.61826e-15 -8.0653e-15 0.0451367 -0.0279038 0.0379449)
(0.828507 -1.13716e-16 1.17892e-15 0.702851 0.00672334 0.716039)
(0.849467 -8.39304e-16 1.78043e-15 0.737661 0.00824926 0.75912)
(0.809125 -1.048e-15 9.98043e-16 0.696246 -0.0158944 0.702046)
(0.801188 -1.52304e-15 9.78076e-16 0.693064 -0.0278509 0.685523)
(0.79765 -2.3802e-15 7.99748e-16 0.693923 -0.0360419 0.678235)
(0.81787 -5.20133e-15 2.19332e-15 0.723674 -0.0636739 0.712162)
(0.781999 -2.42215e-15 -2.5623e-15 0.686621 -0.0497664 0.659741)
(0.773992 -1.48089e-15 -3.70747e-15 0.680143 -0.0519923 0.648747)
(0.770357 6.74937e-16 -8.62519e-15 0.678734 -0.0516387 0.64438)
(0.79052 2.33662e-14 -6.89693e-15 0.706307 -0.075878 0.678824)
(0.762403 2.51231e-14 -7.50005e-15 0.685215 -0.0549264 0.620044)
(0.757599 1.10155e-14 -3.02583e-15 0.685406 -0.0558473 0.606184)
(0.773914 3.28768e-15 3.85505e-16 0.712906 -0.087428 0.624283)
(0.741432 1.24239e-16 2.11737e-16 0.681238 -0.0649352 0.573148)
(0.732866 -7.43594e-16 6.48573e-16 0.674656 -0.0665515 0.560266)
(0.727882 -5.95368e-17 9.30815e-16 0.672751 -0.0659668 0.551661)
(0.743674 1.90467e-15 2.90711e-15 0.697757 -0.0973852 0.573227)
(0.715189 1.35836e-15 5.20328e-16 0.672298 -0.069574 0.526278)
(0.708329 1.44545e-15 4.99844e-16 0.668604 -0.0694845 0.514529)
(0.719377 7.87156e-16 1.06052e-15 0.689106 -0.105811 0.529528)
(0.687537 7.49546e-16 6.37709e-16 0.656324 -0.079421 0.486709)
(0.677576 8.80297e-16 5.79773e-16 0.647714 -0.0818905 0.474791)
(0.670068 1.24057e-15 3.09619e-16 0.642415 -0.0818327 0.465482)
(0.679342 1.5537e-15 4.58315e-17 0.660277 -0.120133 0.480376)
(0.648776 6.21743e-16 1.4681e-15 0.6295 -0.0873382 0.439252)
(0.638788 1.90471e-16 8.11e-16 0.621068 -0.0872589 0.42701)
(0.630733 -5.43562e-16 1.74863e-16 0.615064 -0.08389 0.417302)
(0.637786 -2.41802e-15 -4.24104e-15 0.630091 -0.119256 0.430385)
(0.608613 -1.25756e-15 1.96781e-16 0.601272 -0.0820526 0.390713)
(0.599225 -1.07573e-15 7.14344e-16 0.594099 -0.0778451 0.378177)
(0.603185 -2.57965e-15 2.1785e-17 0.608019 -0.109199 0.382642)
(0.573734 -4.82023e-15 3.38132e-15 0.577537 -0.0781554 0.346129)
(0.563828 -3.43789e-15 1.96003e-15 0.569514 -0.0748322 0.334422)
(0.55515 -2.217e-15 1.56242e-15 0.562915 -0.0700553 0.324693)
(0.559807 -1.94927e-15 6.05488e-16 0.577651 -0.0967267 0.332366)
(0.531297 -9.51211e-16 4.06503e-16 0.54712 -0.0646035 0.30008)
(0.522008 -8.63752e-16 4.60441e-16 0.539382 -0.0603505 0.290486)
(0.525371 -1.5648e-15 9.70793e-16 0.553891 -0.0839537 0.296347)
(0.496223 -1.70739e-15 3.63902e-16 0.521421 -0.0557043 0.26462)
(0.486432 -1.626e-15 2.94429e-16 0.512933 -0.0524466 0.255367)
(0.477592 -1.20357e-15 -4.18767e-16 0.505599 -0.0489037 0.247636)
(0.481666 -7.19611e-16 1.99974e-15 0.522339 -0.0692487 0.255209)
(0.453041 5.05853e-17 5.35092e-16 0.4884 -0.0442984 0.227824)
(0.444056 2.66838e-16 2.1941e-16 0.480625 -0.0414858 0.220442)
(0.436039 5.49886e-16 -1.46886e-16 0.473965 -0.038409 0.214874)
(0.442351 1.37962e-15 -1.2133e-15 0.49607 -0.0562726 0.224937)
(0.415878 2.3124e-15 3.6421e-16 0.462068 -0.0344873 0.203679)
(0.409116 9.01054e-16 6.40212e-16 0.457031 -0.0323738 0.199964)
(0.418897 -1.20936e-15 5.73732e-16 0.488348 -0.0539414 0.21415)
(0.394128 -1.12648e-15 -1.80641e-17 0.453656 -0.0332165 0.195141)
(0.388864 -1.29282e-15 1.7867e-17 0.451126 -0.0336422 0.193077)
(0.385109 -9.59139e-16 5.85873e-17 0.451157 -0.0336889 0.192365)
(0.401631 -1.44524e-15 5.90362e-16 0.497213 -0.0709567 0.220232)
(0.371358 -2.20873e-15 -1.36649e-16 0.448192 -0.0384566 0.190601)
(0.361993 -3.86663e-15 1.08446e-16 0.437209 -0.0376048 0.184074)
(0.353876 -2.24618e-15 9.42859e-17 0.429073 -0.0347462 0.17691)
(0.360169 -9.70838e-16 1.10808e-15 0.457899 -0.0740823 0.199262)
(0.327921 -5.54511e-18 -8.7161e-16 0.405626 -0.0305282 0.16433)
(0.31757 1.94578e-16 -8.94809e-16 0.393671 -0.0261786 0.159656)
(0.313697 8.45648e-16 -2.98058e-16 0.405425 -0.0581038 0.180576)
(0.277481 1.60283e-16 3.24085e-17 0.345077 -0.025867 0.154285)
(0.264406 -1.24905e-16 3.17499e-16 0.329494 -0.0277836 0.148945)
(0.252514 -3.60449e-16 8.82309e-16 0.31622 -0.0293585 0.145765)
(0.240405 4.39961e-16 2.81242e-15 0.31321 -0.0669152 0.158824)
(0.21201 2.26916e-16 -1.14468e-15 0.271677 -0.0421974 0.144562)
(0.201847 2.8539e-16 -9.95147e-16 0.260031 -0.0471923 0.146956)
(0.191801 3.68818e-16 2.32932e-16 0.25224 -0.0777559 0.162009)
(0.183264 -1.67187e-16 1.0126e-15 0.241224 -0.0626012 0.166588)
(0.182423 -2.35015e-16 6.82447e-16 0.240822 -0.0712616 0.173328)
(0.183479 -2.28156e-16 4.48706e-16 0.242597 -0.0782965 0.181288)
(0.187141 -4.94777e-16 -2.02591e-17 0.2475 -0.103914 0.194078)
(0.187403 -7.47082e-16 7.95989e-16 0.247206 -0.0867132 0.200134)
(0.187688 -3.91725e-16 5.20519e-16 0.245371 -0.0975093 0.207744)
(0.188293 -2.45991e-16 2.6909e-16 0.244014 -0.103164 0.216074)
(0.189414 -2.74156e-16 -4.70199e-16 0.243285 -0.120821 0.223561)
(0.188021 -3.3028e-16 -5.70287e-16 0.239083 -0.103907 0.229623)
(0.188478 -4.48373e-16 -8.93161e-16 0.23882 -0.112688 0.233513)
(0.188856 -8.50978e-16 -1.68546e-15 0.23778 -0.126522 0.236922)
(0.185791 -1.39209e-15 -2.19589e-15 0.229112 -0.111551 0.246675)
(0.185831 -1.84526e-15 -2.80038e-15 0.228018 -0.119627 0.250303)
(0.185823 -2.48837e-15 -3.8042e-15 0.22701 -0.119645 0.252091)
(0.185865 -1.4116e-15 -3.12123e-15 0.22495 -0.115245 0.249202)
(0.188429 5.41356e-16 -2.86301e-15 0.227238 -0.116062 0.25174)
(0.190976 2.14864e-15 -3.38112e-15 0.225878 -0.115349 0.254015)
(0.191924 3.34059e-15 -1.44647e-15 0.217961 -0.113958 0.268453)
(0.195693 2.60197e-15 -1.0973e-15 0.221173 -0.114778 0.274987)
(0.198144 6.61032e-16 -1.27454e-15 0.222136 -0.112886 0.277363)
(0.202306 -4.65309e-16 -1.41246e-15 0.226157 -0.11288 0.282667)
(0.206621 -7.84037e-16 -1.37608e-15 0.230098 -0.112836 0.288071)
(0.211082 -1.05133e-15 -1.21606e-15 0.23399 -0.112649 0.293398)
(0.21558 -1.04583e-15 -1.14536e-15 0.237388 -0.112476 0.29878)
(0.220866 -5.37549e-16 -1.50506e-15 0.242172 -0.112403 0.305339)
(0.229454 7.01221e-17 -2.37739e-15 0.249202 -0.112416 0.316795)
(0.232327 -8.85223e-17 -7.19699e-16 0.244184 -0.111108 0.332356)
(0.2394 -1.07215e-16 -2.34857e-16 0.250897 -0.113282 0.343962)
(0.244694 -4.2098e-18 2.56412e-16 0.254925 -0.112541 0.351225)
(0.250661 1.46737e-16 3.12339e-16 0.259913 -0.113323 0.360105)
(0.257264 2.93347e-16 -6.95865e-17 0.265444 -0.113154 0.371612)
(0.264157 2.34256e-16 -4.61417e-16 0.270802 -0.110902 0.38415)
(0.271142 -4.17926e-17 -9.50851e-16 0.275622 -0.107769 0.397031)
(0.278844 -4.92491e-16 -1.52737e-15 0.281601 -0.103765 0.41099)
(0.289495 -8.94571e-16 -2.33309e-15 0.288535 -0.0990387 0.430162)
(0.291764 -1.01364e-15 -1.33031e-15 0.284312 -0.0964131 0.442216)
(0.29628 -1.14802e-15 -1.33929e-15 0.287581 -0.0972511 0.454472)
(0.29862 -1.47772e-15 -1.63693e-15 0.288452 -0.0939558 0.461998)
(0.300964 -1.808e-15 -1.83791e-15 0.289985 -0.0910972 0.470023)
(0.302793 -1.93654e-15 -1.97223e-15 0.291285 -0.0879903 0.477268)
(0.304028 -1.76654e-15 -2.05756e-15 0.290903 -0.0846109 0.483325)
(0.305671 -1.71809e-15 -2.19574e-15 0.28883 -0.081738 0.489855)
(0.307677 -1.80112e-15 -2.43278e-15 0.286796 -0.0795022 0.497747)
(0.309552 -1.67069e-15 -2.76667e-15 0.284473 -0.0769115 0.505399)
(0.313095 -1.43001e-15 -3.28959e-15 0.282369 -0.0741933 0.516938)
(0.313017 -4.97414e-16 -1.05015e-15 0.278375 -0.0722026 0.519271)
(0.316804 -2.49426e-16 -7.69301e-16 0.278596 -0.0726597 0.530334)
(0.318937 2.2683e-16 -6.02377e-16 0.276864 -0.0713374 0.537552)
(0.321049 6.74322e-16 -3.97981e-16 0.27486 -0.0703762 0.544827)
(0.323304 9.97817e-16 -2.23756e-16 0.273159 -0.0694447 0.551905)
(0.325266 9.49657e-16 -2.23504e-16 0.270899 -0.0679558 0.557657)
(0.328297 7.09363e-16 -5.03257e-16 0.269197 -0.0663639 0.565474)
(0.332983 6.48393e-16 -8.40381e-16 0.268984 -0.0657658 0.577181)
(0.341011 7.11553e-16 -1.17571e-15 0.272354 -0.0660877 0.595432)
(0.34635 2.79054e-16 -6.34515e-16 0.276351 -0.0687597 0.603113)
(0.351238 2.43402e-17 -8.90705e-16 0.277469 -0.068976 0.613979)
(0.3549 -3.75185e-16 -1.16285e-15 0.276922 -0.0678793 0.622065)
(0.359719 -5.76279e-16 -1.06433e-15 0.277335 -0.0681318 0.633298)
(0.365764 -6.63908e-16 -1.00149e-15 0.278713 -0.0695958 0.647774)
(0.372356 -7.61805e-16 -1.00423e-15 0.279726 -0.0710831 0.663958)
(0.380269 -7.48547e-16 -1.01305e-15 0.282359 -0.0726272 0.682892)
(0.387951 -4.25829e-16 -1.04705e-15 0.28223 -0.0726648 0.702677)
(0.399182 -6.57557e-17 -1.14166e-15 0.28875 -0.0739163 0.728151)
(0.410111 3.11974e-16 -1.00974e-15 0.298067 -0.0777787 0.74157)
(0.417921 3.47867e-16 -9.86078e-16 0.299438 -0.0781365 0.760764)
(0.427639 3.31851e-16 -1.00155e-15 0.303869 -0.0797018 0.784475)
(0.437046 1.77461e-16 -1.113e-15 0.305976 -0.0795568 0.80824)
(0.446459 -3.24989e-17 -1.34809e-15 0.308166 -0.0790442 0.832231)
(0.456997 -1.93956e-16 -1.60807e-15 0.312018 -0.0798054 0.85896)
(0.468213 -3.81483e-16 -1.90729e-15 0.315553 -0.0810396 0.887838)
(0.479417 -5.90562e-16 -2.26242e-15 0.317033 -0.0826232 0.917782)
(0.496828 -6.76493e-16 -2.67589e-15 0.329987 -0.0872056 0.957955)
(0.503241 -8.95488e-16 -2.09328e-15 0.327765 -0.0843325 0.957056)
(0.507603 -1.02608e-15 -1.9388e-15 0.324752 -0.0812744 0.970321)
(0.51619 -1.08612e-15 -1.81693e-15 0.327554 -0.0839337 0.994824)
(0.523835 -1.07279e-15 -1.60664e-15 0.326155 -0.0866085 1.01908)
(0.533276 -9.13453e-16 -1.35712e-15 0.326633 -0.0915422 1.04769)
(0.542761 -2.58692e-16 -1.16141e-15 0.325687 -0.0960803 1.07696)
(0.537464 2.84417e-16 -1.14919e-15 0.318697 -0.0990596 1.07167)
(0.530789 4.60992e-16 -1.07708e-15 0.31153 -0.106073 1.06244)
(0.522795 7.76361e-16 -1.0146e-15 0.302768 -0.113665 1.04957)
(0.517118 1.11349e-15 -9.46839e-16 0.305921 -0.122983 1.03412)
(0.511415 1.27888e-15 1.81179e-16 0.277575 -0.133653 1.0114)
(0.474152 1.257e-15 1.69021e-17 0.250886 -0.119066 0.928307)
(0.433107 1.13728e-15 -3.92147e-16 0.23434 -0.110265 0.837551)
(0.380649 8.82982e-16 -6.38452e-16 0.207962 -0.0942505 0.716004)
(0.325434 5.26878e-16 -9.03936e-16 0.184016 -0.0781481 0.584069)
(0.263636 -2.02495e-16 -1.01313e-15 0.156178 -0.0628001 0.435377)
(0.217111 -1.09546e-15 -8.40339e-16 0.144511 -0.0571964 0.326509)
(0.195681 -1.38855e-15 -5.78386e-16 0.144415 -0.0562567 0.285362)
(0.166 -1.17567e-15 -5.27805e-16 0.139454 -0.0489785 0.230689)
(0.14556 -6.4275e-16 -3.16928e-17 0.131 -0.0409795 0.168501)
(0.112289 -5.81081e-16 8.98406e-17 0.121697 -0.0314527 0.105871)
(0.0798496 -1.70756e-16 5.81653e-17 0.123264 -0.0316231 0.0465243)
(0.0790835 -1.41251e-16 5.07585e-17 0.126682 -0.0368169 0.0440125)
(0.0703912 -1.61735e-16 5.8808e-17 0.112466 -0.0282812 0.0345779)
(0.0622514 -1.65364e-16 8.50299e-17 0.0958088 -0.0181587 0.028261)
(0.0621492 -1.81071e-16 4.44972e-17 0.0958554 -0.0217459 0.0277057)
(0.0565116 -1.80983e-16 6.57613e-17 0.0836081 -0.0135911 0.0243079)
(0.057043 -1.95451e-16 3.00747e-17 0.0848315 -0.0164105 0.0243076)
(0.052831 -2.07907e-16 4.17469e-17 0.07538 -0.0123999 0.0224098)
(0.0489864 -2.15176e-16 4.94249e-17 0.0668826 -0.0078589 0.0208405)
(0.0497648 -2.32957e-16 3.49387e-17 0.0686817 -0.0112047 0.0201265)
(0.0472599 -2.48139e-16 4.31587e-17 0.0630477 -0.00946561 0.019012)
(0.0449173 -2.57023e-16 5.15666e-17 0.0579121 -0.00663374 0.0180709)
(0.0454562 -2.75928e-16 4.27373e-17 0.0588198 -0.00873659 0.0182323)
(0.0437353 -2.83435e-16 5.52779e-17 0.0550666 -0.0060277 0.0175481)
(0.0445431 -2.99885e-16 4.83796e-17 0.0565939 -0.00790313 0.0178197)
(0.0432861 -3.02987e-16 5.59657e-17 0.0536421 -0.00675787 0.0173802)
(0.0420934 -2.97394e-16 6.67229e-17 0.0509793 -0.00481047 0.016898)
(0.042771 -3.17673e-16 4.85447e-17 0.0520841 -0.00664665 0.0171838)
(0.0418678 -2.97105e-16 7.04039e-17 0.0500547 -0.00461359 0.0167754)
(0.0427599 -3.20667e-16 6.42713e-17 0.0516702 -0.00634928 0.0171223)
(0.0421867 -3.04114e-16 1.21603e-16 0.0501123 -0.00551183 0.0169045)
(0.0416349 -2.61497e-16 1.93106e-16 0.0487429 -0.00389954 0.0166272)
(0.04245 -3.04819e-16 1.88122e-16 0.0501193 -0.00637805 0.0168033)
(0.042153 -2.80642e-16 3.56993e-16 0.0490799 -0.00600695 0.0166384)
(0.0418798 -1.6258e-16 1.40944e-16 0.0482352 -0.00460911 0.0164126)
(0.0426896 -2.17282e-16 6.3002e-17 0.0495072 -0.00657957 0.0168202)
(0.042531 -1.55256e-16 7.12534e-17 0.048914 -0.00492653 0.0166244)
(0.0435211 -1.66265e-16 6.13731e-17 0.0506323 -0.00689451 0.0170938)
(0.0436194 -1.52788e-16 5.22622e-17 0.0503312 -0.00651087 0.0171321)
(0.0437276 -1.27908e-16 6.28008e-17 0.0501932 -0.00519691 0.0170594)
(0.044593 -1.31193e-16 5.16593e-17 0.0515402 -0.00738804 0.0175458)
(0.0447661 -1.17028e-16 5.60777e-17 0.0515558 -0.00576322 0.0174824)
(0.0458108 -1.14004e-16 5.22772e-17 0.0533577 -0.0080001 0.0180263)
(0.0460907 -1.06633e-16 4.11753e-17 0.0533706 -0.00776223 0.0181507)
(0.0463799 -1.0386e-16 6.33589e-17 0.0535532 -0.00649242 0.0181355)
(0.0473827 -9.66446e-17 5.16363e-17 0.0552499 -0.0101348 0.0184909)
(0.047716 -9.37979e-17 4.32211e-17 0.0553351 -0.0104629 0.0186153)
(0.0480321 -9.15083e-17 5.21286e-17 0.0555424 -0.00919906 0.0185522)
(0.0489346 -9.22399e-17 4.07941e-17 0.0569412 -0.0123257 0.0191253)
(0.0492794 -8.70597e-17 4.7525e-17 0.0572305 -0.0104186 0.0190551)
(0.0503628 -8.26857e-17 3.95683e-17 0.0591019 -0.0135991 0.0196902)
(0.0507714 -8.166e-17 3.594e-17 0.0593039 -0.0135924 0.0198969)
(0.0511624 -7.96339e-17 4.35204e-17 0.0596256 -0.0121046 0.01984)
(0.0520514 -6.35103e-17 3.11723e-17 0.0610044 -0.0157527 0.0204522)