/*--------------------------------*- C++ -*----------------------------------*\
| =========                 |                                                 |
| \\      /  F ield         | OpenFOAM: The Open Source CFD Toolbox           |
|  \\    /   O peration     | Version:  4.1                                   |
|   \\  /    A nd           | Web:      www.OpenFOAM.org                      |
|    \\/     M anipulation  |                                                 |
\*---------------------------------------------------------------------------*/
FoamFile
{
    version     2.0;
    format      ascii;
    class       volVectorField;
    location    "24";
    object      U;
}
// * * * * * * * * * * * * * * * * * * * * * * * * * * * * * * * * * * * * * //

dimensions      [0 1 -1 0 0 0 0];

internalField   nonuniform List<vector> 
6785
(
(6.04531e-13 -0.833244 16.1425)
(6.18752e-13 -6.74726 12.5096)
(-2.13779e-13 -4.82733 12.9141)
(2.51736e-13 -4.35459 12.6597)
(9.18089e-14 -3.74274 12.4881)
(-1.0249e-13 -3.28329 12.2593)
(2.52035e-13 -2.9064 11.9999)
(4.86971e-14 -2.62999 11.6972)
(-1.37388e-13 -2.45508 11.3477)
(2.472e-13 -2.35209 10.9732)
(8.14967e-14 -2.29807 10.6137)
(-8.77127e-14 -2.47197 10.1839)
(2.34455e-13 -2.90012 9.5308)
(-6.51849e-14 -2.15137 8.87252)
(-5.4972e-13 0.804077 6.92909)
(1.2712e-12 -7.79236 26.1801)
(7.11746e-13 -16.5668 21.9055)
(-1.4777e-13 -11.5294 22.3765)
(8.85386e-13 -11.8687 20.9135)
(4.67774e-14 -10.7996 19.9451)
(2.52938e-13 -10.0643 18.8822)
(8.97409e-13 -9.28574 17.8326)
(7.1612e-14 -8.53775 16.7698)
(4.06036e-13 -7.83131 15.7108)
(8.68284e-13 -7.19354 14.7598)
(2.57474e-13 -6.65059 14.0339)
(6.86555e-13 -6.32313 13.2103)
(1.05686e-12 -6.21165 11.426)
(-3.30562e-13 -5.58907 8.53493)
(-5.86114e-13 -3.35742 5.65068)
(3.40596e-13 -10.7412 28.2071)
(7.53102e-13 -17.5371 24.5357)
(-2.68497e-13 -11.9092 24.9948)
(-1.68426e-13 -12.7531 22.8145)
(1.64916e-13 -11.1152 21.7106)
(-7.35043e-14 -10.3157 20.2676)
(-3.41323e-13 -9.34879 18.9315)
(3.87411e-13 -8.4928 17.6223)
(-6.46976e-14 -7.69148 16.3907)
(-4.23896e-13 -6.82456 15.0225)
(5.4957e-14 -5.41694 12.6355)
(-1.3008e-12 -2.85046 7.88772)
(-2.8019e-12 0.576199 1.40311)
(-1.50244e-12 2.36592 -2.29737)
(-1.39869e-12 0.630331 -1.11783)
(8.6316e-13 -11.7812 27.7255)
(3.6031e-13 -17.6464 24.5899)
(6.01746e-14 -11.9976 24.9258)
(-3.4188e-13 -13.7136 22.1446)
(-2.24244e-13 -11.5885 21.21)
(2.98545e-13 -11.2017 19.4654)
(-5.43611e-13 -10.2255 18.0838)
(-3.67875e-13 -9.51712 16.6601)
(3.8209e-13 -8.83705 15.3696)
(-4.12284e-13 -8.15875 14.036)
(-7.14386e-13 -7.06224 11.9969)
(-6.38455e-13 -4.81653 8.12236)
(-1.24717e-12 -1.49633 2.56191)
(-8.27634e-12 2.91437 -2.06901)
(-5.14162e-12 1.82381 -5.10929)
(4.45233e-13 -11.9011 26.3625)
(-5.81219e-13 -17.67 25.2036)
(-2.90804e-13 -12.3906 24.6967)
(-7.37237e-13 -13.9808 21.764)
(-1.36113e-12 -11.913 20.8075)
(-1.55596e-13 -11.554 18.9821)
(-8.5549e-13 -10.6377 17.5116)
(-1.6507e-12 -9.89198 16.006)
(-6.70455e-13 -9.17297 14.5737)
(-8.07277e-13 -8.47051 13.1638)
(-1.85075e-12 -7.65566 11.5534)
(-1.54475e-12 -6.31989 9.2872)
(-1.56772e-12 -4.34742 5.95595)
(-4.87438e-12 -1.38092 2.44713)
(-6.48757e-12 0.148883 -2.25245)
(8.55029e-13 -11.6559 24.6767)
(-2.90327e-13 -17.2857 25.4092)
(3.35396e-13 -12.5494 24.279)
(-8.88637e-13 -13.6026 21.3192)
(-1.14069e-12 -11.7224 20.2899)
(1.53465e-13 -11.255 18.5006)
(-5.34629e-13 -10.353 16.9958)
(-1.35005e-12 -9.53308 15.472)
(-4.70265e-13 -8.74696 13.9783)
(-8.44561e-13 -7.97073 12.5494)
(-1.19386e-12 -7.21002 11.1284)
(-7.82988e-13 -6.28368 9.58116)
(-1.47244e-12 -5.06942 7.43758)
(-1.78179e-12 -2.96094 4.60188)
(3.73491e-12 -0.781641 -0.933927)
(1.86424e-12 -11.3965 23.4447)
(-7.58897e-14 -16.6822 24.9893)
(1.23039e-12 -12.4368 23.7567)
(-5.96345e-13 -13.2058 20.7731)
(-9.23905e-13 -11.4053 19.7452)
(1.44246e-12 -10.9488 17.9753)
(-2.35125e-14 -10.05 16.4957)
(-7.89589e-13 -9.26836 15.0369)
(9.30864e-13 -8.55501 13.6601)
(-1.00094e-13 -7.85365 12.3776)
(-3.81695e-13 -7.17036 11.103)
(6.31788e-13 -6.40817 9.81229)
(-3.19743e-13 -5.57519 8.32034)
(-1.92548e-12 -4.13661 6.41579)
(3.48109e-12 -2.00766 1.7416)
(1.23093e-12 -11.417 22.987)
(-1.09594e-13 -15.9846 24.1783)
(1.02729e-12 -12.0563 23.2299)
(-3.5301e-13 -12.9396 20.1859)
(-8.23532e-13 -10.8948 19.3043)
(1.23066e-12 -10.6571 17.3869)
(-3.47394e-14 -9.60195 16.0195)
(-8.13946e-13 -8.97185 14.5852)
(4.97107e-13 -8.34247 13.3027)
(4.66377e-13 -7.78861 12.0768)
(2.78422e-13 -7.27734 10.95)
(5.019e-13 -6.7714 10.0123)
(1.16213e-12 -6.2755 9.26991)
(-7.40481e-13 -5.43029 8.31914)
(5.20367e-13 -3.56796 4.88641)
(1.19355e-12 -11.9294 23.2826)
(-1.09688e-13 -15.2662 23.6109)
(2.64871e-13 -11.8386 22.8545)
(-3.32484e-13 -12.5722 20.0049)
(-5.36083e-13 -10.3954 19.0809)
(-1.17652e-13 -10.1529 17.0233)
(-1.00136e-13 -8.76682 15.4923)
(-5.93673e-13 -7.89797 13.4328)
(-8.45752e-13 -6.97933 11.6453)
(4.10584e-13 -6.66114 10.5025)
(-2.11641e-13 -6.62515 10.1033)
(-1.30749e-12 -6.82846 10.2884)
(1.76014e-12 -7.02385 10.77)
(4.59676e-13 -6.92472 10.7213)
(-1.81121e-12 -5.1087 8.18483)
(4.92626e-13 -12.6308 24.1156)
(-1.17395e-13 -15.3422 24.307)
(-1.60328e-13 -12.0283 23.1924)
(-8.5065e-13 -12.4653 20.7853)
(-3.17496e-13 -10.3695 19.74)
(-7.48924e-13 -9.85691 17.6895)
(-9.51876e-13 -8.09304 15.7109)
(-1.03481e-12 -6.52332 12.7375)
(-2.47719e-12 -4.81633 10.0656)
(-4.3846e-12 -3.99186 8.48526)
(-6.03739e-12 -3.95041 8.24429)
(-6.50633e-12 -4.81356 9.22261)
(-2.82214e-12 -6.27058 11.053)
(3.70819e-14 -7.31852 12.2431)
(-1.65027e-12 -5.45027 9.88638)
(-2.49896e-13 -12.6466 23.9397)
(8.7899e-14 -16.6421 26.6424)
(-1.53678e-12 -12.8385 24.4829)
(-9.35028e-13 -13.1677 22.2085)
(3.87136e-14 -11.0964 21.1759)
(-2.00454e-12 -10.6031 19.1683)
(-1.0931e-12 -8.7389 17.2001)
(-1.53581e-12 -7.008 14.0948)
(-5.00861e-12 -4.8486 11.1004)
(-5.80932e-12 -3.29675 8.71413)
(-1.14796e-11 -2.13783 6.92892)
(-1.75263e-11 -1.59867 5.79334)
(-1.60178e-11 -2.17041 6.17943)
(-9.92052e-12 -3.69553 8.00403)
(-1.64749e-12 -3.52074 7.73073)
(-3.22071e-13 -11.7209 21.9136)
(5.87485e-13 -17.6152 28.394)
(-2.23142e-12 -14.1964 25.9879)
(-1.11631e-12 -13.9778 23.279)
(6.83254e-13 -12.0757 22.1991)
(-3.04127e-12 -11.7361 20.3304)
(-1.06704e-12 -10.1479 18.6929)
(-1.4551e-13 -8.7841 16.067)
(-4.85572e-12 -6.79091 13.2874)
(-4.69191e-12 -4.9993 10.5487)
(-9.73632e-12 -3.24392 7.88524)
(-1.85396e-11 -1.40753 4.93436)
(-1.86832e-11 0.514101 2.07225)
(-1.68624e-11 1.01316 0.729603)
(-3.53844e-12 -0.344827 1.86439)
(-1.25574e-12 -10.3213 18.8966)
(2.51718e-13 -17.7134 28.6816)
(-1.33586e-12 -15.8069 27.3759)
(-1.96008e-12 -14.8845 24.2238)
(3.03132e-13 -13.2722 22.4377)
(-1.99424e-12 -12.6725 20.603)
(-2.35902e-12 -11.5734 19.0082)
(8.45478e-13 -10.5348 17.02)
(-2.2698e-12 -9.15431 14.8221)
(-3.5421e-12 -7.65452 12.468)
(-3.73396e-12 -6.02318 9.98116)
(-9.60157e-12 -4.12409 7.14543)
(-1.19653e-11 -1.70448 3.67698)
(-1.04929e-11 1.67736 -0.78268)
(-1.14261e-11 0.119256 -1.351)
(-2.05851e-12 -8.39322 14.2131)
(-1.50855e-13 -15.8879 26.5082)
(-1.92588e-12 -14.7641 25.9373)
(-2.22075e-12 -13.5724 22.8395)
(-1.0871e-13 -12.1664 21.3155)
(-1.80607e-12 -11.6696 19.8238)
(-2.12339e-12 -10.8677 18.5882)
(5.37696e-13 -10.1181 17.0852)
(-1.07483e-12 -9.26989 15.5096)
(-1.873e-12 -8.27352 13.7485)
(-2.19052e-12 -7.22306 11.8339)
(-4.70157e-12 -5.91527 9.75097)
(-4.96359e-12 -4.3592 7.11997)
(-6.18694e-12 -2.27631 4.51293)
(-5.11007e-12 -1.19799 0.854934)
(-3.55126e-12 -9.99053 20.0203)
(-6.91158e-13 -18.3322 30.532)
(-1.2764e-12 -18.3066 29.8432)
(-2.47544e-12 -16.7363 26.2523)
(-1.52678e-12 -14.6922 22.8328)
(-1.32295e-12 -13.165 20.2174)
(-2.0847e-12 -11.6991 17.9849)
(-5.10552e-13 -10.3885 15.9328)
(-2.16666e-13 -8.72317 13.4969)
(-1.90762e-12 -7.28308 11.2275)
(-2.70016e-12 -5.77365 9.17898)
(-1.64046e-12 -4.35798 6.99239)
(-3.01634e-12 -2.20314 4.24806)
(-4.69419e-12 4.13611 -5.32624)
(4.64603e-12 3.36963 -10.9316)
(-1.87701e-15 0.0343039 -0.158884)
(-2.54482e-16 -0.101515 -0.0399578)
(2.53201e-14 -0.0615955 0.0276317)
(6.76751e-14 -0.0823976 0.0582874)
(1.7877e-13 -0.0634624 0.0430202)
(6.13432e-13 -0.120333 -0.0833555)
(7.21129e-13 -0.123062 0.0815967)
(1.1314e-12 -0.12884 0.212135)
(1.8327e-12 -0.146171 0.260517)
(2.94405e-12 -0.170694 0.316406)
(-3.04706e-16 -0.195786 0.316861)
(1.15958e-13 -0.216594 0.360975)
(1.47313e-13 -0.253028 0.356726)
(1.13824e-13 -0.234664 0.266292)
(1.44552e-13 -0.27286 0.256067)
(1.95878e-13 -0.262462 0.182456)
(3.6281e-13 -0.293174 0.147381)
(2.64812e-13 -0.278547 0.114854)
(-3.02136e-14 -0.280115 0.0999921)
(2.58207e-14 -0.318195 0.00937382)
(2.33281e-14 -0.281739 0.00176134)
(3.99698e-14 -0.307612 -0.00823949)
(-3.52221e-15 -0.272107 -0.0504928)
(-6.03229e-13 -0.347181 -0.161857)
(-4.51059e-13 -0.272831 -0.14958)
(-5.81528e-13 -0.294543 -0.137301)
(-7.45888e-13 -0.2539 -0.124739)
(-3.75447e-13 -0.275769 -0.212318)
(-5.96418e-13 -0.243236 -0.171568)
(-3.41904e-13 -0.218517 -0.171045)
(-6.49079e-13 -0.232201 -0.402716)
(-6.03561e-13 -0.142863 -0.249384)
(-2.91556e-13 -0.15485 -0.202849)
(-3.88904e-13 -0.114293 -0.249444)
(1.42043e-13 -0.0922577 -0.567901)
(9.80016e-15 -0.0503029 -0.29593)
(2.85131e-14 -0.0119917 -0.278237)
(8.59513e-14 -0.0640843 -0.782256)
(8.62169e-14 0.0561101 -0.592119)
(2.77394e-13 0.0581185 -0.397839)
(1.05133e-12 0.114977 -0.148694)
(4.72913e-13 0.0199351 -0.401618)
(4.7911e-14 0.146651 -0.390801)
(1.54115e-14 0.126352 -0.468847)
(1.03771e-14 0.19701 -0.439457)
(1.97528e-13 0.179918 -0.556652)
(-3.72106e-13 0.228671 -0.473896)
(-3.14214e-13 0.25596 -0.384289)
(-3.40877e-13 0.313306 -0.460981)
(1.9974e-13 0.318221 -0.290934)
(1.73606e-13 0.34384 -0.251385)
(1.18803e-13 0.342675 -0.187992)
(1.59287e-13 0.415578 -0.36456)
(1.28189e-13 0.377207 -0.259042)
(3.57035e-14 0.403024 -0.241497)
(5.44536e-13 0.396538 -0.185487)
(6.21618e-13 0.50083 -0.478203)
(4.60028e-13 0.377039 -0.369782)
(1.0064e-13 0.409558 -0.334351)
(4.13338e-14 0.467848 -0.823137)
(2.74422e-14 0.318761 -0.640144)
(2.17547e-14 0.366987 -0.680439)
(-1.04081e-13 0.408536 -0.650727)
(2.75218e-12 0.505548 -1.80095)
(1.88948e-12 0.241992 -1.0639)
(1.07968e-12 0.327604 -0.221257)
(-1.00434e-13 0.353739 1.29689)
(-6.2469e-13 -0.0535002 2.9208)
(-1.65347e-13 -0.233222 2.62644)
(-2.67379e-13 -0.337713 2.58025)
(-4.12608e-13 -0.652702 4.1839)
(-3.34394e-13 -1.13241 4.1587)
(-2.9999e-13 -1.42437 4.1095)
(-2.88534e-13 -1.51366 4.10457)
(-4.32206e-13 -2.3503 6.22131)
(-1.83265e-13 -2.74867 5.40006)
(-3.35787e-13 -2.88406 5.78238)
(-7.80203e-13 -4.19535 8.80273)
(-8.58317e-13 -4.38374 7.21218)
(-1.08692e-12 -4.68574 7.4784)
(-9.41207e-13 -5.20233 7.25547)
(-7.14834e-13 -5.23705 6.8689)
(-4.96095e-13 -5.56422 6.8402)
(-9.06226e-13 -6.55761 10.7903)
(-6.44171e-13 -6.60045 8.5955)
(-1.19795e-12 -6.87654 9.61362)
(-1.49155e-12 -6.9149 9.82055)
(-1.51798e-12 -7.10778 9.86959)
(-1.57068e-12 -7.27682 9.90996)
(-1.5966e-12 -7.41592 9.93798)
(-1.51887e-12 -7.53455 10.367)
(-1.39306e-12 -7.90639 11.1823)
(-1.2933e-12 -8.21691 13.1913)
(-1.47669e-12 -8.27205 12.1844)
(-1.40288e-12 -8.49022 12.389)
(-1.30444e-12 -8.45093 12.4271)
(-1.09246e-12 -8.65645 12.8768)
(-1.12172e-12 -8.63047 13.0111)
(-1.11054e-12 -8.70923 13.2418)
(-1.13202e-12 -8.73655 13.4765)
(-1.17325e-12 -8.94691 13.7717)
(-1.21698e-12 -9.30162 16.1304)
(-1.24031e-12 -9.46692 15.0653)
(-1.28093e-12 -9.59095 15.3329)
(-1.34724e-12 -9.62141 15.4322)
(-1.39954e-12 -9.6818 15.6041)
(-1.4156e-12 -9.72524 15.86)
(-1.40006e-12 -9.82657 16.1542)
(-1.44479e-12 -9.81332 16.2464)
(-1.47762e-12 -9.84831 16.4275)
(-1.47926e-12 -10.0498 16.6171)
(-1.27604e-12 -10.0937 18.4834)
(-1.33336e-12 -10.6075 17.4849)
(-1.274e-12 -10.6445 17.6711)
(-1.16857e-12 -10.6826 17.7562)
(-1.01026e-12 -10.7397 17.9305)
(-8.35064e-13 -10.7558 18.1629)
(-7.11088e-13 -10.8214 18.618)
(-6.76731e-13 -10.7902 18.8491)
(-6.57519e-13 -10.9809 19.0045)
(-7.58786e-13 -10.5983 20.0778)
(-8.11319e-13 -11.442 19.1341)
(-9.79288e-13 -11.3807 19.4772)
(-1.14881e-12 -11.4467 19.7223)
(-1.09771e-12 -11.4062 19.8109)
(-1.12084e-12 -11.4609 19.9805)
(-1.11993e-12 -11.4568 20.1489)
(-1.09192e-12 -11.3833 20.3715)
(-9.7032e-13 -11.6355 20.8204)
(-9.06648e-13 -10.5161 20.8286)
(-8.31188e-13 -11.9281 20.2294)
(-8.07186e-13 -11.7645 20.3113)
(-7.91386e-13 -11.7853 20.3516)
(-8.10018e-13 -11.7822 20.6007)
(-8.23737e-13 -11.7606 20.5895)
(-8.34037e-13 -11.697 20.4925)
(-8.6373e-13 -11.6142 20.3892)
(-9.02242e-13 -11.6711 20.2413)
(-7.99424e-13 -10.3313 19.3709)
(-1.00162e-12 -11.903 19.2993)
(-1.014e-12 -11.5617 18.945)
(-1.01829e-12 -11.6153 18.7254)
(-9.96433e-13 -11.4973 18.4937)
(-9.31243e-13 -11.3754 18.3536)
(-7.21109e-13 -11.3732 18.5997)
(-7.46104e-13 -11.1423 18.0844)
(-6.92765e-13 -10.9773 17.7574)
(-6.47159e-13 -10.8445 17.2491)
(-4.15663e-13 -8.48369 13.3243)
(-5.71607e-13 -10.5751 14.5811)
(-5.35237e-13 -9.99509 13.8187)
(-5.86297e-13 -10.006 13.2702)
(-6.28488e-13 -9.68354 12.5084)
(-7.25392e-13 -9.59428 11.584)
(-9.69162e-13 -9.39389 10.0452)
(-1.20336e-12 -8.91208 8.493)
(-1.07427e-12 -8.82303 8.22682)
(-3.42893e-13 -7.33222 4.29415)
(-7.31264e-13 -8.57561 5.52849)
(-6.0924e-13 -8.37887 4.60012)
(1.58678e-13 -6.08169 0.216705)
(-3.10409e-13 -10.7257 3.31359)
(-3.08947e-13 -10.7206 1.25221)
(-2.32559e-13 -9.79907 0.641254)
(-4.04645e-13 -13.4666 0.847746)
(-2.42702e-13 -9.45635 -0.0219691)
(-3.88095e-13 -13.5091 0.0667589)
(-2.60491e-13 -14.0452 -1.12005)
(-1.63691e-13 -11.0567 -1.31384)
(-2.79435e-13 -14.4552 -1.9312)
(-2.63581e-13 -14.4297 -2.63813)
(-2.31685e-13 -12.426 -2.42433)
(-3.39006e-13 -16.4031 -3.276)
(-2.54175e-13 -11.3699 -2.80268)
(-3.2891e-13 -14.9275 -4.05515)
(-2.71085e-13 -13.6021 -4.25756)
(-2.60189e-13 -11.6608 -3.71962)
(-3.74296e-13 -14.2388 -5.06157)
(-2.235e-13 -10.023 -4.05784)
(-3.63685e-13 -11.6788 -6.18295)
(-3.07221e-13 -9.49043 -6.24)
(-2.41995e-13 -7.58849 -5.61346)
(-3.36159e-13 -6.49791 -8.77348)
(-1.45364e-13 -5.05977 -8.08421)
(-5.65015e-14 -3.41257 -6.90534)
(-1.21134e-13 3.16049 -9.6475)
(-3.63652e-14 -3.7317 -5.68385)
(-4.54305e-13 4.43033 -9.00961)
(-4.06434e-13 6.75098 -10.9128)
(-2.59207e-13 3.84861 -6.87842)
(-2.8123e-13 10.2424 -9.35975)
(-1.95958e-13 7.91893 -6.41023)
(-1.94612e-13 11.0576 -7.70516)
(-2.68747e-13 14.337 -7.62127)
(-1.79055e-13 11.6024 -4.70715)
(-1.96427e-13 15.7526 -5.20168)
(-2.78085e-13 19.2646 -4.16027)
(-1.8209e-13 14.0939 -2.43149)
(-2.4974e-13 22.3789 -2.19765)
(-1.70851e-13 16.8376 -1.1754)
(-2.0546e-13 20.0627 -0.790632)
(-1.90444e-13 23.2567 1.61895)
(-1.21528e-13 16.995 1.43865)
(-1.95939e-13 25.4922 3.19788)
(-1.43446e-13 18.7995 2.72969)
(-1.57972e-13 21.4803 3.87437)
(-2.29772e-13 24.8271 3.67877)
(-1.58498e-13 19.457 3.32964)
(-1.77638e-13 23.8441 0.888383)
(-2.37945e-13 31.9852 -13.8729)
(-1.64649e-13 25.6619 -9.73709)
(-2.16834e-13 38.7813 -21.0204)
(-1.59898e-13 31.9372 -15.7809)
(-1.88897e-13 37.9375 -22.2274)
(-2.74003e-13 41.0895 -30.4633)
(-1.75118e-13 32.1444 -20.8457)
(-2.60694e-13 44.1772 -32.4385)
(-1.95095e-13 33.6995 -24.4959)
(-2.3917e-13 38.1501 -34.4286)
(-2.94382e-13 31.0549 -52.4579)
(-1.94779e-13 20.4344 -37.5204)
(-3.26843e-13 25.6574 -59.5944)
(-3.36814e-13 20.6536 -90.4734)
(-2.34121e-13 -10.6171 -67.5716)
(-3.46971e-13 17.8688 -77.0692)
(-9.5214e-14 -22.0326 -17.7229)
(-8.22801e-14 -6.69425 -13.8219)
(2.18498e-13 -72.1013 49.9699)
(2.98228e-13 -78.5259 65.5389)
(4.61991e-13 -131.647 104.499)
(4.6529e-13 -118.312 108.28)
(7.63839e-13 -186.668 181.291)
(8.84777e-13 -269.304 212.457)
(7.82098e-13 -233.04 193.664)
(1.23442e-12 -341.687 308.447)
(1.24334e-12 -411.614 319.718)
(1.05808e-12 -392.652 279.806)
(1.52653e-12 -594.077 405.084)
(1.20939e-12 -482.553 328.374)
(1.92036e-12 -680.574 525.057)
(1.76665e-24 11.5194 11.9607)
(4.92211e-24 13.9953 11.9708)
(7.32997e-24 15.4752 12.1015)
(1.5607e-24 17.0346 12.1767)
(-3.62821e-23 18.5403 12.2357)
(-1.52609e-22 19.9898 12.217)
(-3.84093e-22 21.3724 12.1593)
(-5.80271e-22 22.6307 12.1069)
(1.03004e-22 23.7176 12.1718)
(4.05997e-21 24.612 12.478)
(1.55691e-20 25.3711 13.1074)
(3.85989e-20 26.1317 14.0197)
(7.17915e-20 27.0469 15.0833)
(1.05751e-19 28.1836 16.156)
(1.32012e-19 29.5066 17.1654)
(1.6528e-19 30.9225 18.1159)
(2.48921e-19 32.341 19.0338)
(3.53105e-19 33.7189 19.9311)
(4.37838e-20 35.0482 20.813)
(-1.96304e-18 36.3198 21.6978)
(-7.24862e-18 37.5601 22.6194)
(-1.29163e-17 38.8911 23.6524)
(2.51478e-18 40.4353 24.9077)
(1.00408e-16 42.189 26.4828)
(3.72672e-16 44.0299 28.409)
(8.3412e-16 45.8279 30.6476)
(1.24414e-15 47.5167 33.1299)
(1.05927e-15 49.0882 35.7637)
(-3.06838e-16 50.6119 38.4667)
(-3.09631e-15 52.1669 41.2858)
(-6.99941e-15 53.7403 44.2548)
(-1.12692e-14 55.3229 47.4086)
(-1.50489e-14 56.9258 50.7847)
(-1.74743e-14 58.5576 54.4013)
(-1.75253e-14 60.2401 58.2485)
(-1.38834e-14 62.0086 62.2892)
(-5.02102e-15 63.8995 66.4694)
(1.03954e-14 65.94 70.73)
(3.29358e-14 68.1381 75.0138)
(6.18929e-14 70.4649 79.2389)
(9.52619e-14 72.8654 83.3042)
(1.30387e-13 75.2677 87.1006)
(1.64876e-13 77.5531 90.5276)
(1.96881e-13 79.402 93.482)
(2.24127e-13 79.9029 95.76)
(2.41838e-13 77.0377 96.7725)
(2.42191e-13 68.1394 95.2283)
(2.21446e-13 53.31 89.9127)
(1.93476e-13 39.323 82.6046)
(1.81125e-13 33.4796 78.0766)
(1.84076e-13 33.2254 77.1356)
(1.88548e-13 32.6779 76.8946)
(1.89998e-13 30.6842 76.2147)
(1.90189e-13 28.2349 75.465)
(1.90559e-13 25.6928 74.9397)
(1.9125e-13 22.9941 74.6933)
(1.92408e-13 20.1346 74.7757)
(1.94437e-13 17.1542 75.2833)
(1.97691e-13 14.073 76.3091)
(2.02197e-13 10.9001 77.8367)
(2.07506e-13 7.64684 79.6781)
(2.12962e-13 4.35663 81.5784)
(2.18207e-13 1.12773 83.3989)
(2.23671e-13 -1.98119 85.2587)
(2.31527e-13 -5.18599 87.8802)
(2.42799e-13 -8.83213 91.6046)
(2.5798e-13 -13.1725 96.5889)
(2.78065e-13 -18.5233 103.134)
(3.04289e-13 -25.2857 111.611)
(3.3838e-13 -34.0016 122.529)
(3.82725e-13 -45.4685 136.576)
(4.40741e-13 -60.9083 154.718)
(5.17477e-13 -82.24 178.345)
(6.20663e-13 -112.558 209.519)
(7.62499e-13 -156.981 251.434)
(9.61914e-13 -223.584 309.008)
(1.24539e-12 -324.33 389.493)
(1.63192e-12 -467.22 498.703)
(2.03912e-12 -626.305 605.768)
(2.78634e-24 11.5216 12.709)
(6.79691e-24 13.975 12.6979)
(7.94097e-24 15.4444 12.8263)
(-5.86973e-24 17.0149 12.8855)
(-6.71327e-23 18.5355 12.9233)
(-2.26739e-22 20.003 12.8769)
(-4.90213e-22 21.3903 12.7978)
(-5.6389e-22 22.6282 12.7442)
(7.61502e-22 23.6572 12.8456)
(6.4627e-21 24.4618 13.2329)
(2.1164e-20 25.1259 13.9673)
(4.80295e-20 25.8202 14.9616)
(8.37029e-20 26.7125 16.0511)
(1.18036e-19 27.8588 17.1052)
(1.47446e-19 29.2003 18.088)
(1.97887e-19 30.6294 19.0284)
(3.10257e-19 32.0554 19.9529)
(3.71982e-19 33.438 20.8684)
(-2.9904e-19 34.768 21.7834)
(-3.27365e-18 36.0321 22.723)
(-9.54142e-18 37.2476 23.7223)
(-1.2485e-17 38.5247 24.8483)
(1.88938e-17 39.9832 26.2032)
(1.5899e-16 41.6322 27.8822)
(4.97596e-16 43.3704 29.9178)
(1.00068e-15 45.0827 32.2675)
(1.33436e-15 46.7107 34.8562)
(8.92079e-16 48.2486 37.5909)
(-8.49435e-16 49.7436 40.385)
(-3.96243e-15 51.257 43.2962)
(-7.96757e-15 52.7773 46.3815)
(-1.20455e-14 54.2952 49.6851)
(-1.53498e-14 55.8248 53.2399)
(-1.6996e-14 57.3828 57.0461)
(-1.58722e-14 58.9997 61.0729)
(-1.05624e-14 60.7173 65.266)
(4.35148e-16 62.5752 69.5602)
(1.82118e-14 64.6006 73.8902)
(4.29216e-14 66.8047 78.2031)
(7.34177e-14 69.1655 82.4294)
(1.07429e-13 71.6321 86.4829)
(1.42324e-13 74.1328 90.2671)
(1.75981e-13 76.5481 93.6875)
(2.06916e-13 78.5734 96.6418)
(2.33187e-13 79.3689 98.9346)
(2.50392e-13 77.0809 100.027)
(2.5113e-13 69.149 98.7313)
(2.31392e-13 55.2404 93.7948)
(2.03326e-13 41.1823 86.5835)
(1.89228e-13 34.3527 81.6908)
(1.91207e-13 33.4041 80.4815)
(1.96085e-13 32.7932 80.2677)
(1.98273e-13 30.8793 79.7144)
(1.99024e-13 28.4095 79.0533)
(1.99751e-13 25.7914 78.546)
(2.00652e-13 23.0023 78.2653)
(2.01781e-13 20.0359 78.2345)
(2.03298e-13 16.9259 78.4669)
(2.05391e-13 13.7023 78.9986)
(2.08308e-13 10.4066 79.8979)
(2.12214e-13 7.08241 81.1985)
(2.17012e-13 3.76814 82.8501)
(2.22537e-13 0.509596 84.7762)
(2.29033e-13 -2.71261 87.0114)
(2.37988e-13 -6.15279 90.0087)
(2.5017e-13 -10.0982 94.0262)
(2.66304e-13 -14.8016 99.3015)
(2.87425e-13 -20.6043 106.153)
(3.14835e-13 -27.9334 114.972)
(3.50315e-13 -37.3718 126.28)
(3.9634e-13 -49.7763 140.788)
(4.56452e-13 -66.46 159.484)
(5.35876e-13 -89.4861 183.785)
(6.42571e-13 -122.184 215.777)
(7.89279e-13 -170.059 258.793)
(9.967e-13 -241.781 318.409)
(1.29577e-12 -349.367 403.907)
(1.70051e-12 -495.689 519.078)
(2.03747e-12 -631.004 591.507)
(3.73824e-24 11.5254 13.1189)
(8.12013e-24 13.9662 13.0973)
(7.13818e-24 15.4323 13.218)
(-1.53508e-23 17.0105 13.2628)
(-9.74476e-23 18.5403 13.2852)
(-2.87267e-22 20.0163 13.2239)
(-5.49542e-22 21.402 13.138)
(-4.54078e-22 22.6213 13.0939)
(1.48957e-21 23.6103 13.2298)
(8.57538e-21 24.3619 13.6738)
(2.53376e-20 24.9809 14.4655)
(5.39781e-20 25.6554 15.4891)
(8.99352e-20 26.5513 16.5727)
(1.2393e-19 27.7097 17.6062)
(1.57674e-19 29.0591 18.5763)
(2.23188e-19 30.4902 19.5168)
(3.4472e-19 31.916 20.4483)
(3.19932e-19 33.2974 21.3766)
(-7.10547e-19 34.6229 22.3153)
(-4.3326e-18 35.8772 23.2938)
(-1.0491e-17 37.076 24.3483)
(-8.86312e-18 38.3253 25.5421)
(3.87581e-17 39.7423 26.9684)
(2.12445e-16 41.3398 28.715)
(5.89798e-16 43.0265 30.8118)
(1.09285e-15 44.6968 33.2163)
(1.33341e-15 46.2963 35.8536)
(6.97491e-16 47.8191 38.6357)
(-1.26343e-15 49.301 41.486)
(-4.51193e-15 50.7903 44.4611)
(-8.49587e-15 52.2762 47.6275)
(-1.23854e-14 53.7536 51.0287)
(-1.53401e-14 55.2427 54.6909)
(-1.64375e-14 56.7658 58.5999)
(-1.45018e-14 58.3572 62.7127)
(-8.09403e-15 60.0606 66.9692)
(4.20317e-15 61.9153 71.3046)
(2.32766e-14 63.9468 75.6562)
(4.9017e-14 66.165 79.9753)
(8.00722e-14 68.5495 84.1994)
(1.14123e-13 71.0511 88.2509)
(1.4866e-13 73.5996 92.0397)
(1.81769e-13 76.077 95.4748)
(2.12155e-13 78.1872 98.4537)
(2.38011e-13 79.1218 100.784)
(2.55094e-13 77.0967 101.95)
(2.56197e-13 69.6039 100.815)
(2.37142e-13 56.1389 96.1101)
(2.09127e-13 42.1025 88.9701)
(1.94122e-13 34.8452 83.8585)
(1.95535e-13 33.5406 82.462)
(2.00558e-13 32.8566 82.2489)
(2.03158e-13 30.9684 81.7872)
(2.04299e-13 28.5022 81.2168)
(2.05337e-13 25.8649 80.767)
(2.06518e-13 23.0479 80.5307)
(2.07977e-13 20.0546 80.5642)
(2.09912e-13 16.9225 80.8948)
(2.12416e-13 13.671 81.5238)
(2.15563e-13 10.3256 82.4558)
(2.19445e-13 6.92901 83.71)
(2.24157e-13 3.53602 85.3075)
(2.29773e-13 0.191128 87.2585)
(2.36675e-13 -3.17919 89.6246)
(2.46463e-13 -6.82098 92.8842)
(2.59554e-13 -11.0187 97.1747)
(2.76737e-13 -16.0349 102.759)
(2.9907e-13 -22.2279 109.957)
(3.27899e-13 -30.0488 119.173)
(3.65073e-13 -40.1151 130.947)
(4.13166e-13 -53.3349 146.008)
(4.75854e-13 -71.0988 165.361)
(5.58509e-13 -95.5902 190.427)
(6.69389e-13 -130.348 223.332)
(8.22594e-13 -181.326 267.894)
(1.04307e-12 -257.953 331.386)
(1.36519e-12 -371.566 424.77)
(1.77126e-12 -515.668 540.323)
(1.97373e-12 -604.362 562.319)
(4.94476e-24 11.5316 13.5932)
(9.61577e-24 13.9548 13.5635)
(5.57803e-24 15.4158 13.6759)
(-2.82655e-23 17.0036 13.7056)
(-1.36133e-22 18.5452 13.7114)
(-3.60082e-22 20.0322 13.6342)
(-6.09246e-22 21.4156 13.5411)
(-2.80659e-22 22.61 13.5089)
(2.44849e-21 23.5456 13.6857)
(1.11986e-20 24.2265 14.1952)
(3.02955e-20 24.7838 15.0507)
(6.07879e-20 25.4275 16.1055)
(9.6963e-20 26.322 17.183)
(1.31009e-19 27.4915 18.196)
(1.70728e-19 28.8501 19.1537)
(2.52657e-19 30.2853 20.0949)
(3.7438e-19 31.7125 21.035)
(2.2287e-19 33.0927 21.9789)
(-1.23937e-18 34.4122 22.9463)
(-5.48046e-18 35.6535 23.9711)
(-1.09336e-17 36.828 25.0896)
(-2.68968e-18 38.0361 26.36)
(6.54223e-17 39.3927 27.8672)
(2.7815e-16 40.9179 29.692)
(6.96428e-16 42.5339 31.8621)
(1.19185e-15 44.1458 34.3339)
(1.31871e-15 45.7045 37.0325)
(4.6013e-16 47.2031 39.8747)
(-1.7475e-15 48.6626 42.7948)
(-5.14605e-15 50.1169 45.8497)
(-9.10183e-15 51.5563 49.1148)
(-1.27663e-14 52.9798 52.6311)
(-1.52972e-14 54.4143 56.4169)
(-1.57295e-14 55.8891 60.4425)
(-1.28263e-14 57.4433 64.6526)
(-5.13774e-15 59.1225 68.9809)
(8.64771e-15 60.9662 73.3637)
(2.91873e-14 62.9982 77.7422)
(5.60885e-14 65.2289 82.0725)
(8.77844e-14 67.6411 86.3011)
(1.21906e-13 70.189 90.3588)
(1.56071e-13 72.8035 94.1632)
(1.88583e-13 75.368 97.627)
(2.18354e-13 77.5969 100.65)
(2.4374e-13 78.7258 103.045)
(2.60697e-13 77.0725 104.32)
(2.62261e-13 70.2133 103.38)
(2.4408e-13 57.4173 98.9192)
(2.16209e-13 43.4593 91.8207)
(2.00075e-13 35.5777 86.4196)
(2.00621e-13 33.7236 84.7855)
(2.05731e-13 32.9203 84.5739)
(2.08808e-13 31.0698 84.2154)
(2.10413e-13 28.603 83.7456)
(2.11802e-13 25.9277 83.3597)
(2.13244e-13 23.0545 83.152)
(2.14897e-13 19.9909 83.1915)
(2.16993e-13 16.7809 83.5229)
(2.19664e-13 13.4526 84.1635)
(2.22991e-13 10.0363 85.1243)
(2.2706e-13 6.5732 86.4219)
(2.31961e-13 3.11543 88.0803)
(2.3783e-13 -0.297012 90.1214)
(2.45195e-13 -3.7732 92.638)
(2.55703e-13 -7.58552 96.118)
(2.6964e-13 -11.9939 100.661)
(2.87852e-13 -17.2783 106.547)
(3.11405e-13 -23.809 114.095)
(3.41696e-13 -32.0583 123.726)
(3.80638e-13 -42.6741 135.995)
(4.30889e-13 -56.6075 151.644)
(4.96206e-13 -75.3112 171.676)
(5.8209e-13 -101.077 197.511)
(6.97493e-13 -137.702 231.494)
(8.59233e-13 -191.753 278.523)
(1.09691e-12 -273.315 347.848)
(1.4383e-12 -390.951 448.234)
(1.81786e-12 -525.865 554.748)
(1.91185e-12 -576.848 541.041)
(6.38958e-24 11.5385 14.0426)
(1.11003e-23 13.9457 14.0066)
(2.78568e-24 15.4044 14.108)
(-4.52802e-23 17.0018 14.1216)
(-1.82917e-22 18.5545 14.1109)
(-4.4037e-22 20.0502 14.0199)
(-6.53074e-22 21.4275 13.9235)
(-1.16491e-23 22.5925 13.9089)
(3.66056e-21 23.472 14.1328)
(1.42328e-20 24.0856 14.7099)
(3.55861e-20 24.5924 15.6227)
(6.74331e-20 25.2193 16.6963)
(1.03242e-19 26.1216 17.7586)
(1.37653e-19 27.3035 18.7496)
(1.85116e-19 28.6678 19.6978)
(2.82948e-19 30.1033 20.6428)
(3.87962e-19 31.5292 21.5933)
(5.86006e-20 32.9053 22.5547)
(-1.88313e-18 34.215 23.5534)
(-6.54432e-18 35.4394 24.6281)
(-1.02362e-17 36.5881 25.8145)
(7.32396e-18 37.7576 27.1648)
(1.00116e-16 39.0607 28.7551)
(3.54273e-16 40.5225 30.6584)
(8.07122e-16 42.0766 32.8996)
(1.27543e-15 43.6379 35.4341)
(1.26384e-15 45.1617 38.1893)
(1.71958e-16 46.6381 41.0887)
(-2.26635e-15 48.076 44.0815)
(-5.77684e-15 49.4954 47.2237)
(-9.66013e-15 50.8878 50.5939)
(-1.30596e-14 52.2592 54.2274)
(-1.51257e-14 53.6444 58.1321)
(-1.48444e-14 55.08 62.2633)
(-1.09266e-14 56.608 66.5555)
(-1.9416e-15 58.2742 70.9392)
(1.32838e-14 60.1165 75.3554)
(3.5164e-14 62.1566 79.7514)
(6.30424e-14 64.4039 84.0897)
(9.51866e-14 66.8432 88.325)
(1.29233e-13 69.4316 92.3963)
(1.6296e-13 72.1021 96.2276)
(1.9489e-13 74.7402 99.7352)
(2.24118e-13 77.0701 102.821)
(2.49135e-13 78.3646 105.303)
(2.66076e-13 77.0264 106.708)
(2.68212e-13 70.7096 105.976)
(2.51026e-13 58.5134 101.769)
(2.23427e-13 44.6791 94.7252)
(2.06163e-13 36.2842 89.0175)
(2.05692e-13 33.922 87.0943)
(2.10767e-13 32.9714 86.8535)
(2.14278e-13 31.1377 86.5934)
(2.16355e-13 28.6769 86.2356)
(2.18134e-13 25.9821 85.936)
(2.19894e-13 23.074 85.785)
(2.21816e-13 19.965 85.863)
(2.24161e-13 16.7035 86.2293)
(2.27065e-13 13.3188 86.9084)
(2.30619e-13 9.83921 87.9141)
(2.34907e-13 6.30469 89.2695)
(2.40034e-13 2.76416 91.0074)
(2.46199e-13 -0.758319 93.157)
(2.54126e-13 -4.40137 95.8593)
(2.65317e-13 -8.42585 99.5491)
(2.8008e-13 -13.0835 104.341)
(2.99299e-13 -18.6738 110.523)
(3.24069e-13 -25.5829 118.425)
(3.55833e-13 -34.3066 128.481)
(3.96558e-13 -45.5245 141.256)
(4.48943e-13 -60.2298 157.488)
(5.16783e-13 -79.9411 178.162)
(6.0587e-13 -107.102 204.772)
(7.26629e-13 -145.917 240.231)
(8.99659e-13 -203.728 290.99)
(1.15696e-12 -290.719 367.369)
(1.51021e-12 -410.642 471.746)
(1.84518e-12 -532.333 560.871)
(1.79832e-12 -548.474 502.164)
(8.09708e-24 11.547 14.4873)
(1.25264e-23 13.9377 14.4449)
(-1.46722e-24 15.3952 14.5338)
(-6.68829e-23 17.0024 14.5305)
(-2.38289e-22 18.5663 14.5038)
(-5.27259e-22 20.0695 14.4008)
(-6.75279e-22 21.4379 14.3043)
(3.68263e-22 22.5681 14.3125)
(5.1482e-21 23.3859 14.5888)
(1.76859e-20 23.93 15.2353)
(4.11861e-20 24.3892 16.1993)
(7.39338e-20 25.004 17.2827)
(1.0904e-19 25.9157 18.3252)
(1.44533e-19 27.1082 19.2956)
(2.01452e-19 28.4759 20.2378)
(3.12526e-19 29.9104 21.189)
(3.78402e-19 31.3342 22.1519)
(-1.81722e-19 32.7045 23.133)
(-2.61492e-18 34.0013 24.1666)
(-7.34906e-18 35.2053 25.2958)
(-7.88889e-18 36.3247 26.5548)
(2.21231e-17 37.4525 27.9893)
(1.43878e-16 38.6998 29.6659)
(4.41004e-16 40.0966 31.6496)
(9.20611e-16 41.5877 33.9623)
(1.34207e-15 43.0976 36.5591)
(1.16941e-15 44.5848 39.3709)
(-1.64396e-16 46.0358 42.3297)
(-2.82036e-15 47.4472 45.4013)
(-6.41397e-15 48.8271 48.6407)
(-1.01894e-14 50.1688 52.1239)
(-1.32848e-14 51.4859 55.8773)
(-1.48361e-14 52.8217 59.8972)
(-1.37784e-14 54.2199 64.1254)
(-8.78507e-15 55.7246 68.4886)
(1.52793e-15 57.3799 72.917)
(1.81709e-14 59.2219 77.3584)
(4.13115e-14 61.2702 81.7682)
(7.00504e-14 63.5333 86.1154)
(1.02529e-13 65.9989 90.3628)
(1.36424e-13 68.6268 94.4564)
(1.69688e-13 71.3526 98.3264)
(2.01057e-13 74.0642 101.893)
(2.29791e-13 76.4959 105.059)
(2.54501e-13 77.9574 107.65)
(2.71498e-13 76.9389 109.209)
(2.74295e-13 71.1822 108.706)
(2.58232e-13 59.6344 104.767)
(2.31051e-13 45.99 97.7874)
(2.1266e-13 37.0891 91.7536)
(2.10986e-13 34.1623 89.4879)
(2.15886e-13 33.019 89.1838)
(2.19789e-13 31.1891 89.0126)
(2.22343e-13 28.733 88.7715)
(2.24542e-13 26.0179 88.5732)
(2.26651e-13 23.0721 88.4937)
(2.28857e-13 19.9088 88.6177)
(2.31443e-13 16.5829 89.022)
(2.3458e-13 13.1297 89.7459)
(2.38375e-13 9.57942 90.8089)
(2.42915e-13 5.97226 92.2385)
(2.48318e-13 2.35627 94.0729)
(2.54817e-13 -1.26133 96.3418)
(2.63323e-13 -5.05761 99.2327)
(2.75171e-13 -9.29373 103.127)
(2.90756e-13 -14.2095 108.167)
(3.10979e-13 -20.1213 114.646)
(3.36969e-13 -27.4307 122.905)
(3.7021e-13 -36.6573 133.387)
(4.12687e-13 -48.5097 146.655)
(4.67102e-13 -64.0219 163.426)
(5.37337e-13 -84.7961 184.69)
(6.29894e-13 -113.511 212.204)
(7.57588e-13 -154.943 249.84)
(9.44847e-13 -217.165 305.611)
(1.2214e-12 -309.481 388.937)
(1.57405e-12 -429.232 492.42)
(1.84388e-12 -533.283 557.475)
(1.67135e-12 -508.911 463.011)
(1.00825e-23 11.5564 14.9223)
(1.38189e-23 13.9314 14.8727)