/*--------------------------------*- C++ -*----------------------------------*\
| =========                 |                                                 |
| \\      /  F ield         | OpenFOAM: The Open Source CFD Toolbox           |
|  \\    /   O peration     | Version:  4.1                                   |
|   \\  /    A nd           | Web:      www.OpenFOAM.org                      |
|    \\/     M anipulation  |                                                 |
\*---------------------------------------------------------------------------*/
FoamFile
{
    version     2.0;
    format      ascii;
    class       surfaceScalarField;
    location    "6";
    object      phi;
}
// * * * * * * * * * * * * * * * * * * * * * * * * * * * * * * * * * * * * * //

dimensions      [0 3 -1 0 0 0 0];

internalField   nonuniform List<scalar> 
13220
(
-906.843
2206.75
-1504.66
1898.02
-1985.11
1780.36
-2354.94
1669.72
-2630.28
1575.54
-2818.71
1488.34
-2923.51
1404.7
-2944.48
1321.17
-2880.29
1235.72
-2727.84
1147.45
-2482.46
1054.82
-2127.44
944.89
-1626.88
799.338
-956.021
629.346
343.879
423.642
1783.11
466.711
1854.96
450.479
1796.6
411.011
1709.21
378.587
1607.98
352.503
1514.43
333.269
1423.95
321.582
1332.87
314.167
1243.15
304.868
1156.76
285.541
1074.16
242.44
988.009
165.932
875.866
88.5905
706.709
432.47
181.261
1601.86
21.0924
2015.14
-139.9
1957.61
-258.406
1827.73
-362.55
1712.14
-459.529
1611.43
-546.569
1511.01
-624.052
1410.37
-690.176
1309.28
-742.501
1209.11
-776.737
1108.41
-774.151
985.454
-684.364
786.12
-432.545
454.941
-0.0745876
215.591
1386.28
135.686
2095.06
1.8804
2091.43
-93.2888
1922.91
-169.327
1788.19
-229.373
1671.49
-269.267
1550.92
-289.214
1430.33
-291.229
1311.32
-275.811
1193.71
-241.727
1074.34
-184.181
927.927
-101.277
703.243
-9.86245
363.561
-9.93646
282.795
1103.5
349.809
2028.06
327.054
2114.19
306.466
1943.51
296.812
1797.86
293.069
1675.25
292.967
1551.03
296.766
1426.54
303.272
1304.82
310.603
1186.39
318.135
1066.81
320.137
925.957
296.9
726.516
215.841
444.66
205.904
250.435
853.075
361.4
1917.1
371.968
2103.64
351.941
1963.55
336.271
1813.54
325.034
1686.49
313.516
1562.56
299.337
1440.73
283.44
1320.73
265.875
1203.95
245.216
1087.48
219.432
951.718
178.144
767.78
109.294
513.487
315.198
131.653
721.431
214.565
1834.2
238.8
2079.41
216.136
1986.22
192.889
1836.79
173.54
1705.85
155.306
1580.79
137.509
1458.53
119.911
1338.33
103.847
1220.02
89.2737
1102.05
76.4957
964.534
62.2092
782.103
45.0245
530.706
360.222
34.8875
686.547
84.5988
1784.49
124.982
2039.03
115.612
1995.59
101.186
1851.21
90.0446
1716.99
78.6922
1592.14
68.1501
1469.07
58.7533
1347.72
49.4993
1229.27
41.3335
1110.21
37.097
968.726
33.2965
785.86
28.7399
535.222
388.963
12.8697
673.681
52.91
1744.45
98.4772
1993.46
99.5161
1994.55
90.4918
1860.24
82.5471
1724.94
74.9799
1599.72
66.736
1477.32
58.9245
1355.53
51.3707
1236.83
43.474
1118.11
40.2979
971.952
38.2282
787.976
29.3402
544.152
418.302
34.0179
639.658
81.0953
1697.37
121.196
1953.36
122.51
1993.24
111.817
1870.93
99.9549
1736.8
89.2093
1610.46
79.3293
1487.2
69.0891
1365.77
59.5638
1246.35
50.8774
1126.79
46.5288
976.245
43.1076
791.344
30.2404
556.97
448.543
53.8075
585.836
106.784
1644.38
140.723
1919.4
140.727
1993.22
128.014
1883.63
114.663
1750.13
101.533
1623.57
89.4241
1499.29
77.8989
1377.28
66.4139
1257.82
56.2527
1136.93
51.6045
980.905
46.487
796.462
29.8113
573.646
478.353
46.6588
539.157
91.5749
1599.45
114.808
1896.16
110.356
1997.66
93.0574
1900.91
76.3959
1766.77
63.5007
1636.44
52.0036
1510.76
42.2119
1387.04
34.1656
1265.83
26.7233
1144.36
25.8571
981.705
26.5904
795.666
19.3122
580.866
497.666
30.1397
508.995
78.9398
1550.63
109.566
1865.51
120.955
1986.25
121.792
1900.06
114.159
1774.39
101.736
1648.85
87.0662
1525.42
70.0564
1404.04
54.2294
1281.65
43.3013
1155.27
38.8014
986.201
35.213
799.246
12.6331
603.437
510.298
-66.9429
575.921
-124.511
1608.19
-169.133
1910.12
-218.199
2035.31
-257.152
1939
-280.336
1797.57
-283.292
1651.79
-274.786
1516.91
-257.937
1387.18
-243.334
1267.03
-214.387
1126.32
-170.72
942.513
-114.406
742.913
-71.3693
560.382
438.929
-137.237
163.253
392.15
555.283
557.125
488.08
360.662
231.44
110.337
35.8092
-28.6247
-56.3026
-79.8386
-83.0709
-0.000312795
258.88
-258.881
258.88
258.879
258.879
446.336
-187.458
446.336
446.335
446.335
630.925
-184.59
630.924
630.924
804.306
-173.383
804.306
804.306
804.305
914.65
-110.345
914.65
914.649
985.175
-70.5265
985.175
985.175
985.175
988.722
-3.54786
988.722
988.721
988.721
953.342
35.3786
953.342
953.342
902.744
50.5968
902.744
902.744
902.743
834.721
68.0226
834.72
834.72
770.598
64.1216
770.598
770.597
770.597
695.736
74.8603
695.736
695.736
695.735
622.319
73.416
622.319
622.318
540.497
81.8207
540.497
540.497
540.496
432.617
107.879
432.616
432.616
432.616
295.959
136.656
295.959
295.959
128.21
167.748
128.209
128.209
128.209
-44.4577
172.666
-44.4585
-44.4583
-233.13
188.671
-233.13
-233.13
-233.13
-697.639
464.508
-697.638
-697.639
-697.638
-1469.01
771.367
-1469
-1469.01
-2601.07
1132.07
-2601.08
-2601.08
-2546.91
-2481.54
-2418.87
-3999.55
1649.15
-3917.75
-3828.31
-3726.51
-3622.11
-3515.59
-3406.15
-3284.37
-3151.08
-5239.83
2228.2
-5081.77
-4932.97
-4787.53
-4614.43
-4437.4
-4257.18
-4069.53
-3880.59
-6444.56
2768.82
-6218.77
-5992.9
-5766.92
-5542.91
-5313.05
-5069.45
-4821.21
-4564.2
-4304.45
-7207.8
3157.35
-6927.7
-6644.7
-6360.18
-6077.29
-5796.23
-5499.62
-5187.97
-4872.41
-7834.22
3264.82
-7524.56
-7206.32
-6875.64
-6543.53
-6210.36
-5875.6
-5535.8
-5175.79
-7819.82
2989.07
-7472.15
-7122.65
-6774.57
-6414.03
-6047.69
-5680.74
-5313.02
-4948.46
-6775.4
2178.67
-6422.86
-6069.12
-5718.26
-5370.15
-5026.44
-4694.31
-4366.05
-4046.12
-3734.83
-4119.56
683.375
-3852.26
-3594.93
-3346.24
-3102.83
-2864.48
-2661.42
-2528.18
-2392.09
-1928.8
-321.838
-1810.9
-1690.24
-1690.24
-1650.23
-40.0113
-1568.82
-81.4142
-1568.82
-1522.58
-46.2403
-1522.58
-1500.23
-22.3438
-1480.48
-19.755
-1480.48
-1475.71
-4.76312
-1466.16
-9.55739
-1466.16
-1459.58
-6.57621
-1459.58
-1460.13
0.549822
-1450.38
-9.7517
-1450.38
-1439.6
-10.7757
-1439.6
-1434.03
-5.57395
-1416.68
-17.3447
-1416.68
-1404.59
-12.092
-1378.11
-26.4836
-1378.11
-1348.22
-29.8877
-1348.22
-1320.15
-28.0756
-1276.47
-43.6723
-1276.47
-1227.85
-48.6201
-1227.85
-1180.17
-47.6839
-1117.99
-62.1747
-1117.99
-1057.09
-60.9001
-981.108
-75.985
-981.108
-900.068
-81.0392
-900.069
-816.597
-83.4703
-719.36
-97.2382
-719.359
-615.542
-103.818
-615.541
-504.104
-111.438
-383.109
-120.994
-383.109
-254.62
-128.489
-122.289
-132.332
-122.289
13.3181
-135.607
13.3187
162.36
-149.042
296.59
-134.229
296.59
397.997
-101.406
397.996
489.867
-91.8693
570.582
-80.7159
570.583
676.622
-106.039
769.142
-92.5192
769.142
894.963
-125.821
894.963
996.715
-101.751
1107.44
-110.729
1107.44
1287.42
-179.975
1287.42
1455.76
-168.341
1606.63
-150.874
1606.63
1788.13
-181.496
1980.69
-192.561
1980.69
2211.08
-230.392
2211.08
-275.256
-1295.82
-664.256
-1267.19
-599.303
-1238.28
-533.64
-1207.99
-461.21
-1178.06
-377.111
-1150.98
-285.964
-1129.42
-189.908
-1115.99
-93.1029
-1112.38
-0.0218532
-1118.62
84.5748
-1132.68
158.123
-1150.82
222.334
-1168.8
280.055
-1189.46
312.895
-1210.15
349.099
-1227.36
385.46
-1240.92
417.87
-1251.59
455.031
-1258.58
493.936
-1261.62
527.494
-1262.29
556.182
-1261.42
581.29
-1259.1
601.914
-1255.64
619.768
-1250.87
638.745
-1243.75
659.301
-1232.46
681.248
-1214.16
704.363
-1184.67
730.333
-1138.59
759.771
-1070.08
784.165
-976.217
799.781
-862.167
806.993
-746.419
797.042
-665.382
729.918
-661.448
580.319
-718.711
573.867
-776.18
898.688
-795.163
1031.5
-774.05
1169.52
-738.635
1229.82
-742.151
1366.51
-836.459
1543.81
-1003.14
1931.58
-1193.13
2627.48
-1390.09
3458.16
-1593.86
4371.07
-1810.79
5405.37
-2021.41
6599.4
-2176.78
7864.97
-2219.85
8965.89
-2110.23
9682.93
-1879.16
9741.78
-1640.45
9037.11
-1480.31
7999.57
-1358.44
7151.45
-1204.87
6168.02
-1038.84
4336.8
-908.642
1769.28
-830.385
-253.129
-713.789
-474.205
-486.99
-1156.24
-270.204
-1820.11
-295.779
-1831.16
-212.08
-383.559
224.591
3290.24
94.8877
1754.15
237.989
2033.73
293.114
2086.43
232.97
1991.67
301.254
2261.62
431.072
2554.4
541.885
2790.23
603.372
2858.4
586.666
2710.2
496.726
2155.03
411.765
1077.76
319.845
-771.941
-1367.38
-1343.65
-680.465
-1316.86
-626.096
-1287.94
-562.556
-1256.35
-492.804
-1223.33
-410.132
-1191.07
-318.219
-1162.15
-218.832
-1139.58
-115.667
-1126.14
-13.4644
-1123.62
82.0579
-1131.86
166.356
-1148.08
238.561
-1167.58
299.553
-1191.46
336.773
-1214.47
372.113
-1233.87
404.854
-1249.48
433.485
-1259.98
465.524
-1265.11
499.071
-1266.41
528.793
-1265.46
555.228
-1262.66
578.491
-1258.17
597.424
-1251.81
613.407
-1242.26
629.197
-1227.95
644.994
-1207
660.3
-1176.95
674.31
-1134.14
687.525
-1074.12
699.749
-995.411
705.459
-901.588
705.958
-802.062
707.467
-711.744
706.723
-656.797
674.971
-678.81
602.333
-755.21
650.267
-777.815
921.294
-778.26
1031.94
-751.174
1142.43
-739.461
1218.11
-763.774
1390.82
-870.799
1650.83
-1051.43
2112.21
-1246.95
2823
-1441.82
3653.04
-1642.92
4572.17
-1856.71
5619.15
-2058.78
6801.48
-2197.03
8003.23
-2222.87
8991.72
-2103.26
9563.33
-1868.34
9506.85
-1629.57
8798.34
-1474.97
7844.96
-1355
7031.48
-1173.96
5986.97
-936.047
4098.89
-735.84
1569.07
-668.723
-320.246
-445.696
-697.231
-274.561
-1327.37
-238.854
-1855.82
-371.831
-1698.18
-294.119
-461.27
211.854
2784.27
92.1483
1873.86
162.31
1963.57
179.708
2069.03
161.394
2009.98
257.438
2165.58
394.481
2417.36
526.716
2658
611.426
2773.69
624.588
2697.04
565.452
2214.17
455.059
1188.15
286.902
-603.784
-1310.86
-1369.38
-696.431
-1344.02
-651.459
-1315.29
-591.289
-1282.91
-525.185
-1247.79
-445.249
-1211.83
-354.176
-1177.49
-253.175
-1147.93
-145.223
-1126.52
-34.8794
-1116.09
71.6351
-1117.68
167.938
-1129.32
250.203
-1146.74
316.97
-1170.11
360.148
-1194.78
396.78
-1217.58
427.656
-1237.56
453.467
-1252.25
480.211
-1260.76
507.585
-1263.99
532.019
-1262.53
553.766
-1256.88
572.846
-1247.54
588.084
-1234.26
600.123
-1215.73
610.67
-1190.17
619.433
-1155.53
625.66
-1109.8
628.576
-1050.95
628.677
-978.494
627.293
-896.624
623.589
-813.696
623.03
-739.839
633.61
-685.875
652.76
-668.607
657.703
-707.95
641.676
-769.761
712.077
-774.844
926.376
-763.11
1020.21
-740.824
1120.15
-749.372
1226.65
-803.378
1444.83
-932.248
1779.7
-1117.38
2297.34
-1310.06
3015.68
-1501.86
3844.84
-1701.84
4772.15
-1910.71
5828.02
-2098.36
6989.13
-2212.88
8117.75
-2211.4
8990.23
-2072.46
9424.39
-1836.3
9270.69
-1609.97
8572.01
-1464.07
7699.07
-1338.69
6906.1
-1141.48
5789.77
-880.879
3838.29
-660.672
1348.87
-544.438
-436.479
-215.966
-1025.7
-164.154
-1379.18
-366.917
-1653.05
-445.87
-1619.23
-331.842
-575.298
158.837
2293.59
94.8002
1937.9
161.749
1896.62
177.66
2053.12
150.256
2037.39
228.89
2086.95
361.008
2285.24
498.685
2520.32
596.234
2676.14
627.925
2665.35
584.291
2257.8
472.268
1300.18
274.977
-406.494
-1228.45
-1398.71
-711.486
-1375.21
-674.965
-1347.37
-619.124
-1314.99
-557.563
-1278.55
-481.696
-1239.43
-393.29
-1199.76
-292.85
-1162.52
-182.462
-1131.39
-66.0117
-1110.12
50.3732
-1101.28
159.094
-1104.6
253.522
-1116.74
329.108
-1136.88
380.29
-1160.69
420.592
-1184.51
451.478
-1206.45
475.409
-1224
497.76
-1235.5
519.085
-1240.67
537.187
-1239.05
552.15
-1230.21
564.003
-1214.31
572.186
-1191.15
576.966
-1160.04
579.55
-1120.29
579.686
-1070.96
576.336
-1011.97
569.584
-944.543
561.249
-872.248
554.999
-802.421
553.762
-743.23
563.839
-700.847
591.227
-680.397
632.31
-689.571
666.877
-732.109
684.215
-774.795
754.764
-767.129
918.71
-750.628
1003.71
-741.287
1110.8
-773.958
1259.32
-857.054
1527.93
-1002.4
1925.05
-1187.84
2482.78
-1376.32
3204.16
-1565.47
4033.98
-1764.28
4970.96
-1965.95
6029.69
-2135.86
7159.04
-2223.64
8205.53
-2193.12
8959.72
-2035.37
9266.64
-1800.54
9035.86
-1588.6
8360.07
-1450.09
7560.56
-1316.21
6772.21
-1102.98
5576.54
-828.476
3563.78
-604.29
1124.68
-469.45
-571.319
-288.292
-1206.86
-324.982
-1342.49
-490.065
-1487.97
-508.176
-1601.12
-372.046
-711.427
102.627
1818.92
90.8479
1949.68
149.777
1837.69
177.939
2024.96
155.646
2059.68
211.563
2031.03
328.979
2167.83
466.796
2382.51
573.874
2569.07
622.082
2617.14
593.201
2286.69
480.977
1412.4
258.799
-184.316
-1151.15
-1426.24
-725.138
-1404.94
-696.261
-1378.71
-645.359
-1347.26
-589.011
-1310.63
-518.319
-1269.66
-434.269
-1225.9
-336.601
-1181.91
-226.459
-1141.21
-106.71
-1108.02
17.1827
-1086.22
137.295
-1077.73
245.028
-1081.49
332.868
-1095.63
394.434
-1115.44
440.405
-1137.53
473.566
-1158.48
496.358
-1175.79
515.071
-1186.99
530.289
-1190.51
540.7
-1185.86
547.507
-1171.72
549.855
-1147.66
548.13
-1114.23
543.532
-1071.46
536.788
-1020.37
528.597
-962.403
518.364
-899.905
507.085
-837.02
498.365
-779.188
497.166
-732.616
507.19
-701.57
532.793
-687.514
577.17
-691.11
635.907
-713.315
689.082
-749.15
720.049
-772.421
778.035
-757.186
903.474
-744.203
990.726
-754.461
1121.06
-812.929
1317.79
-921.044
1636.04
-1077.05
2081.06
-1259.66
2665.38
-1443.79
3388.3
-1631.12
4221.31
-1827.88
5167.72
-2019.76
6221.56
-2168.74
7308.02
-2227.89
8264.68
-2168.74
8900.57
-1994.91
9092.82
-1764.46
8805.41
-1567.35
8162.96
-1433.78
7426.98
-1289.31
6627.75
-1061.88
5349.11
-781.833
3283.74
-563.351
906.198
-411.101
-723.568
-329.842
-1288.12
-425.389
-1246.95
-567.99
-1345.37
-569.076
-1600.03
-412.77
-867.733
48.4816
1357.66
80.0533
1918.1
128.612
1789.13
170.906
1982.66
163.108
2067.48
201.278
1992.86
301.628
2067.48
434.182
2249.95
547.376
2455.87
609.255
2555.27
593.948
2301.99
488.446
1517.9
250.478
53.6519
-1051.54
-1452.82
-736.989
-1434.04
-715.04
-1410.02
-669.381
-1380.36
-618.664
-1344.72
-553.966
-1303.31
-475.676
-1257.09
-382.822
-1207.9
-275.65
-1158.71
-155.896
-1113.64
-27.892
-1077.41
101.065
-1054.01
221.637
-1045.08
323.937
-1048.88
398.23
-1060.36
451.89
-1076.87
490.071
-1093.89
513.375
-1107.64
528.824
-1115.76
538.406
-1115.35
540.296
-1104.77
536.924
-1083.61
528.693
-1051.41
515.929
-1009.55
501.677
-960.254
487.489
-905.905
474.249
-849.996
462.456
-796.619
453.708
-750.329
452.074
-715.38
462.218
-694.651
486.461
-688.463
526.605
-695.238
583.946
-712.443
653.112
-735.971
712.61
-758.163
742.241
-764.316
784.188
-748.255
887.413
-748.269
990.741
-782.498
1155.29
-865.515
1400.81
-992.25
1762.78
-1153.5
2242.32
-1331.66
2843.54
-1512.06
3568.7
-1698.25
4407.5
-1891.2
5360.67
-2070.31
6400.67
-2195.45
7433.16
-2224.81
8294.04
-2138.55
8814.31
-1952.36
8906.62
-1729.13
8582.18
-1546.3
7980.13
-1415.13
7295.82
-1259.52
6472.13
-1021.44
5111.03
-743.366
3005.66
-532.471
695.304
-329.303
-926.736
-333.583
-1283.84
-550.502
-1030.03
-665.436
-1230.44
-629.998
-1635.47
-459.883
-1037.85
3.48743
894.294
104.267
1817.32
149.482
1743.92
167.626
1964.52
162.215
2072.89
191.601
1963.47
278.384
1980.7
402.658
2125.68
518.92
2339.61
591.095
2483.09
587.652
2305.44
489.744
1615.81
259.019
284.377
-960.864
-1478.09
-746.762
-1462.08
-731.051
-1440.8
-690.667
-1413.73
-645.731
-1380.19
-587.512
-1339.88
-515.984
-1293.08
-429.616
-1240.84
-327.894
-1185.23
-211.51
-1129.65
-83.4705
-1078.87
50.2884
-1038.2
180.968
-1011.86
297.591
-1001.32
387.696
-1001.24
451.811
-1007.85
496.683
-1017.93
523.453
-1025.31
536.207
-1027.14
540.232
-1021.12
534.275
-1003.93
519.73
-975.968
500.735
-938.349
478.31
-893.151
456.479
-844.682
439.02
-797.014
426.582
-753.989
419.431
-719.414
419.132
-696.166
428.827
-685.6
451.651
-687.418
488.279
-699.486
538.673
-718.2
602.66
-738.367
673.278
-753.367
727.611
-758.837
747.711
-754.053
779.404
-746.29
879.651
-766.962
1011.41
-826.192
1214.52
-929.62
1504.24
-1068.14
1901.3
-1230.19
2404.37
-1403.72
3017.07
-1581.39
3746.37
-1766.4
4592.51
-1953.1
5547.37
-2116.17
6563.73
-2215
7531.99
-2214.1
8293.14
-2103.14
8703.35
-1908.63
8712.11
-1694.92
8368.47
-1525.17
7810.38
-1394.28
7164.92
-1228.27
6306.13
-984.678
4867.44
-719.615
2740.6
-546.251
521.94
-449.721
-1023.27
-544.992
-1188.57
-711.633
-863.386
-753.425
-1188.64
-703.95
-1684.95
-521.61
-1220.19
-21.1407
393.824
156.231
1639.95
169.159
1730.99
172.772
1960.91
163.79
2081.87
183.995
1943.27
257.608
1907.08
372.441
2010.84
489.424
2222.63
569.214
2403.3
576.164
2298.49
486.261
1705.71
258.766
511.872
-882.073
-1501.97
-754.318
-1488.89
-744.13
-1470.74
-708.819
-1446.91
-669.558
-1416.48
-617.945
-1378.75
-553.711
-1333.4
-474.971
-1280.65
-380.642
-1221.57
-270.59
-1158.48
-146.56
-1095.37
-12.8175
-1037.74
123.334
-991.498
251.349
-962.289
358.488
-946.793
436.314
-939.017
488.908
-937.376
521.812
-936.271
535.103
-930.117
534.078
-917.175
521.333
-895.192
497.747
-863.604
469.147
-825.675
440.382
-785.3
416.104
-746.91
400.63
-714.967
394.638
-692.309
396.773
-680.544
407.368
-680.025
428.308
-689.527
461.153
-706.663
505.416
-727.865
559.875
-748.091
622.886
-760.949
686.136
-761.489
728.151
-753.45
739.672
-748.276
774.23
-757.818
889.193
-802.594
1056.19
-884.274
1296.2
-1002.23
1622.2
-1146.57
2045.64
-1306.74
2564.53
-1476.32
3186.66
-1652.11
3922.15
-1834.89
4775.29
-2012.52
5725
-2156.11
6707.33
-2226.67
7602.55
-2195.82
8262.29
-2063.31
8570.84
-1864.54
8513.34
-1661.98
8165.92
-1503.7
7652.1
-1371.44
7032.66
-1196.65
6131.35
-952.879
4623.66
-708.238
2495.96
-575.068
388.77
-585.023
-1013.31
-730.263
-1043.33
-826.48
-767.169
-833.53
-1181.59
-797.447
-1721.03
-626.704
-1390.93
-187.761
-45.119
100.283
1351.91
145.028
1686.24
171.505
1934.43
172.918
2080.46
180.839
1935.35
238.373
1849.55
343.236
1905.98
458.947
2106.92
544.661
2317.59
561.037
2282.11
480.529
1786.22
257.922
734.479
-734.879
-1524.36
-759.639
-1514.26
-754.223
-1499.48
-723.604
-1479.35
-689.692
-1452.81
-644.482
-1418.91
-587.608
-1376.85
-517.034
-1326.16
-431.331
-1266.95
-329.802
-1200.34
-213.165
-1129.06
-84.0991
-1057.7
51.9737
-992.477
186.124
-940.493
306.504
-905.384
401.205
-881.755
465.279
-864.65
504.707
-852.139
522.591
-837.839
519.778
-818.684
502.179
-794.814
473.877
-766.25
440.582
-736.159
410.29
-709.483
389.428
-689.633
380.78
-678.713
383.718
-677.503
395.563
-685.338
415.203
-700.579
443.549
-720.725
481.299
-742.607
527.298
-762.102
579.369
-773.972
634.757
-773.302
685.466
-760.664
715.513
-748.801
727.809
-754.988
780.418
-787.361
921.566
-854.902
1123.73
-953.914
1395.21
-1080.53
1748.81
-1226.28
2191.39
-1383.5
2721.75
-1550.03
3353.18
-1724.21
4096.33
-1902.79
4953.88
-2068.17
5890.38
-2189.05
6828.21
-2229.95
7643.45
-2170.36
8202.7
-2020.03
8420.51
-1820.78
8314.09
-1630.27
7975.41
-1481.64
7503.47
-1346.9
6897.93
-1165.52
5949.96
-926.677
4384.82
-706.251
2275.53
-602.176
284.695
-649.29
-966.196
-817.884
-874.733
-920.21
-664.842
-936.355
-1165.45
-906.946
-1750.44
-746.93
-1550.95
-342.34
-449.709
21.7165
987.852
97.5082
1610.45
149.707
1882.23
176.597
2053.57
179.685
1932.26
221.766
1807.47
315.248
1812.5
427.264
1994.9
517.791
2227.06
543.014
2256.89
472.281
1856.95
259.786
946.973
-576.845
-1545.23
-762.8
-1538.07
-761.379
-1526.73
-734.949
-1510.52
-705.898
-1488.38
-666.626
-1459.2
-616.785
-1421.89
-554.348
-1375.47
-477.746
-1319.31
-385.965
-1253.48
-278.991
-1179.35
-158.228
-1100.05
-27.3303
-1020.75
106.823
-948.484
234.24
-891.058
343.779
-848.896
423.116
-815.72
471.532
-789.662
496.532
-768.081
498.197
-746.572
480.67
-725.091
452.396
-706.121
421.612
-691.439
395.609
-683.61
381.6
-683.783
380.953
-691.202
391.137
-704.717
409.077
-722.706
433.193
-742.98
463.823
-762.899
501.218
-779.428
543.826
-788.971
588.913
-787.81
633.596
-774.902
672.558
-757.659
698.27
-754.398
724.548
-780.371
806.39
-835.959
977.154
-921.616
1209.39
-1031.98
1505.58
-1162.35
1879.19
-1306.75
2335.79
-1461.02
2876.02
-1625.13
3517.3
-1797.16
4268.36
-1968.97
5125.68
-2118.68
6040.09
-2214.04
6923.57
-2224.6
7654.01
-2138.34
8116.44
-1974.27
8256.43
-1777.86
8117.68
-1599.66
7797.21
-1458.78
7362.58
-1320.95
6760.1
-1135.56
5764.57
-906.363
4155.62
-711.235
2080.41
-625.31
198.771
-709.339
-882.168
-911.847
-672.223
-1025.02
-551.669
-1048.81
-1141.66
-1029.36
-1769.89
-876.346
-1703.96
-481.712
-844.344
-47.1323
553.273
56.9248
1506.4
115.89
1823.27
165.177
2004.28
178.094
1919.34
210.313
1775.25
289.938
1732.87
394.997
1889.84
488.852
2133.21
522.36
2223.38
462.363
1916.95
285.394
1123.94
-417.27
-1564.62
-763.921
-1560.26
-765.734
-1552.29
-742.923
-1540.04
-718.147
-1522.48
-684.178
-1498.51
-640.764
-1466.85
-585.999
-1426.28
-518.324
-1375.65
-436.594
-1314.31
-340.325
-1242.52
-230.02
-1161.92
-107.936
-1076.05
20.9547
-990.673
148.866
-913.21
266.317
-851.977
361.883
-805.429
424.983
-767.695
458.798
-739.044
469.546
-718.035
459.662
-703.152
437.513
-695.802
414.262
-696.529
396.335
-704.11
389.181
-717.048
393.89
-733.352
407.441
-751.324
427.049
-769.445
451.314
-785.731
480.11
-797.96
513.447
-803.881
549.747
-801.498
586.53
-790.017
622.115
-773.103
655.644
-763.134
688.301
-778.357
739.771
-826.68
854.713
-901.513
1051.99
-999.306
1307.18
-1115.47
1621.74
-1246.09
2009.81
-1387.8
2477.49
-1539.54
3027.75
-1701.49
3679.25
-1870.1
4436.97
-2032.18
5287.76
-2162.73
6170.64
-2230.31
6991.15
-2210.61
7634.32
-2100.59
8006.42
-1926.98
8082.82
-1736.16
7926.87
-1569.94
7630.99
-1434.96
7227.61
-1293.86
6619
-1107.18
5577.88
-891.516
3939.96
-722.416
1911.31
-655.193
131.548
-783.489
-753.871
-1003.23
-452.48
-1119.39
-435.51
-1166.72
-1094.33
-1164.91
-1771.7
-1021.07
-1847.8
-639.329
-1226.08
-126.241
40.1843
64.3943
1315.76
103.11
1784.55
139.18
1968.21
171.301
1887.22
202.223
1744.33
267.726
1667.37
363.461
1794.11
458.528
2038.14
499.349
2182.56
450.448
1965.85
315.441
1258.95
-194.349
-1582.6
-763.139
-1580.85
-767.483
-1576.08
-747.696
-1567.65
-726.57
-1554.65
-697.183
-1535.97
-659.44
-1510.36
-611.617
-1476.42
-552.257
-1432.82
-480.194
-1378.49
-394.658
-1312.97
-295.54
-1236.83
-184.077
-1152.19
-63.6868
-1063.19
59.8702
-976.034
179.16
-898.77
284.619
-837.975
364.187
-791.755
412.578
-757.407
435.199
-736.102
438.357
-726.252
427.662
-726.176
414.187
-734.527
404.686
-748.034
402.688
-763.707
409.563
-779.568
423.303
-794.146
441.628
-806.216
463.383
-814.243
488.137
-816.718
515.921
-812.785
545.814
-802.77
576.515
-789.234
608.579
-779.451
645.862
-786.784
695.633
-824.372
777.36
-892.069
922.41
-979.935
1139.85
-1084.1
1411.35
-1201.72
1739.35
-1330.49
2138.59
-1469.34
2616.34
-1619.13
3177.54
-1778.79
3838.92
-1942.05
4600.23
-2091.11
5436.83
-2199.11
6278.63
-2237.25
7029.29
-2188.28
7585.35
-2058.04
7876.18
-1879
7903.78
-1695.9
7743.77
-1540.85
7475.94
-1410.05
7096.81
-1265.9
6474.85
-1080.65
5392.63
-881.823
3741.14
-741.884
1771.37
-706.879
96.5427
-877.944
-582.807
-1093.49
-236.938
-1216.58
-312.413
-1297.82
-1013.1
-1311.67
-1757.85
-1180.36
-1979.12
-831.549
-1574.89
-317.804
-473.56
16.2219
981.734
90.5682
1710.2
111.308
1947.47
157.717
1840.81
193.257
1708.79
247.308
1613.32
333.37
1708.05
427.56
1943.95
474.323
2135.8
435.782
2004.39
320.291
1374.44
19.9025
-1599.29
-760.596
-1599.93
-766.843
-1598.13
-749.495
-1593.31
-731.391
-1584.64
-705.85
-1571.11
-672.97
-1551.48
-631.247
-1524.36
-579.38
-1488.31
-516.242
-1442.07
-440.899
-1384.77
-352.838
-1316.28
-252.565
-1237.67
-142.298
-1151.71
-26.0894
-1063.13
90.5754
-978.566
200.057
-906.418
292.039
-851.326
357.486
-811.365
395.237
-786.062
413.054
-774.93
416.53
-774.473
413.73
-781.455
411.668
-792.325
413.558
-803.642
420.881
-813.761
433.421
-821.544
449.411
-825.914
467.753
-826.007
488.23
-821.379
511.294
-812.96
537.395
-803.414
566.969
-797.758
602.923
-804.221
652.325
-833.228
724.639
-890.863
834.995
-971.774
1003.32
-1066.32
1234.4
-1172.22
1517.25
-1288.63
1855.77
-1414.87
2264.82
-1551.55
2753.02
-1699.94
3325.93
-1856.68
3995.66
-2011.93
4755.48
-2144.3
5569.19
-2226.61
6360.95
-2234.44
7037.12
-2158.15
7509.06
-2011.71
7729.73
-1831.12
7723.19
-1657.19
7569.83
-1512.13
7330.88
-1383.96
6968.64
-1237.33
6328.22
-1056.26
5211.56
-877.41
3562.29
-771.302
1665.26
-783.596
108.836
-984.698
-381.705
-1186.33
-35.3032
-1323.75
-174.995
-1439.03
-897.82
-1465.99
-1730.88
-1347.22
-2097.89
-1023.41
-1898.7
-511.214
-985.756
-79.7888
550.309
53.4428
1576.97
85.717
1915.2
137.276
1789.26
182.255
1663.81
228.184
1567.39
305.059
1631.17
396.515
1852.49
447.657
2084.65
418.656
2033.39
317.649
1475.45
256.834
-1614.79
-756.449
-1617.6
-764.04
-1618.53
-748.567
-1617.04
-732.873
-1612.44
-710.458
-1603.77
-681.638
-1589.87
-645.147
-1569.38
-599.869
-1540.86
-544.761
-1502.94
-478.816
-1454.52
-401.263
-1394.97
-312.108
-1324.6
-212.667
-1245.11
-105.587
-1159.89
5.35496
-1074.21
114.378
-995.096
212.928
-930.328
292.719
-882.351
347.26
-849.331
380.035
-830.677
397.876
-823.338
406.39
-822.995
411.326
-826.35
416.913
-830.388
424.918
-833.279
436.312
-834.304
450.436
-832.755
466.204
-828.471
483.946
-822.359
505.183
-816.935
531.97
-816.296
566.33
-825.986
612.613
-852.353
678.692
-900.976
773.262
-972.369
906.389
-1059.76
1090.71
-1156.08
1330.71
-1260.89
1622.06
-1375.24
1970.12
-1499.53
2389.11
-1635.12
2888.61
-1782.27
3473.08
-1934.6
4147.99
-2078.35
4899.22
-2190.07
5680.92
-2244.14
6415.01
-2221.73
7014.71
-2121.04
7408.37
-1962.72
7571.42
-1784
7544.47
-1620.02
7405.85
-1483.48
7194.34
-1356.62
6841.78
-1208.44
6180.04
-1034.3
5037.42
-878.291
3406.27
-809.139
1596.11
-875.32
175.017
-1095.19
-161.832
-1298.44
167.941
-1453.02
-20.4148
-1587.42
-763.42
-1627.35
-1690.95
-1522.55
-2202.68
-1219.32
-2201.94
-707.649
-1497.42
-204.307
46.9663
-6.23393
1378.9
57.3415
1851.62
111.126
1735.47
169.303
1605.63
210.055
1526.64
278.918
1562.31
365.983
1765.43
419.838
2030.8
399.233
2054
308.014
1566.67
472.98
-1629.21
-750.874
-1633.95
-759.297
-1637.36
-745.167
-1638.93
-731.294
-1638.08
-711.312
-1633.95
-685.773
-1625.44
-653.65
-1611.28
-614.028
-1590.06
-565.985
-1560.36
-508.512
-1520.92
-440.706
-1470.76
-362.264
-1409.57
-273.862
-1338.12
-177.037
-1258.62
-74.1416
-1174.94
30.6973
-1092.8
130.789
-1019.27
219.182
-960.665
288.659
-917.419
336.789
-887.639
368.096
-869.674
388.425
-859.462
401.114
-853.548
410.999
-849.793
421.164
-846.398
432.917
-842.715
446.753
-838.74
462.229
-835.089
480.295
-833.68
503.774
-837.728
536.018
-851.273
579.876
-878.452
639.792
-922.376
722.616
-984.354
835.24
-1062.41
984.447
-1151.04
1179.34
-1246.3
1425.98
-1349.21
1724.97
-1462.06
2082.97
-1585.77
2512.82
-1721.1
3023.95
-1866.16
3618.14
-2011.36
4293.19
-2139.39
5027.25
-2226.63
5768.17
-2250.75
6439.13
-2199.36
6963.32
-2078.03
7287.04
-1912.21
7405.59
-1738.2
7370.46
-1584.3
7251.95
-1454.64
7064.68
-1328.06
6715.21
-1179.51
6031.49
-1014.98
4872.89
-883.967
3275.26
-852.222
1564.36
-972.158
294.954
-1227.86
93.8667
-1445.67
385.754
-1602.89
136.807
-1742.34
-623.975
-1795.23
-1638.06
-1705.89
-2292.02
-1425.83
-2481.99
-927.171
-1996.08
-348.77
-531.435
-59.8272
1089.96
27.4869
1764.31
82.1336
1680.82
152.438
1535.33
191.506
1487.57
254.828
1498.99
336.415
1683.84
391.437
1975.78
378.201
2067.24
298.284
1646.58
669.857
-1642.62
-744.064
-1649.08
-752.839
-1654.69
-739.548
-1659.05
-726.939
-1661.63
-708.735
-1661.67
-685.729
-1658.2
-657.124
-1650.01
-622.213
-1635.78
-580.217
-1614.11
-530.183
-1583.64
-471.175
-1543.16
-402.742
-1491.88
-325.148
-1429.8
-239.11
-1358.07
-145.877
-1279.15
-48.2229
-1197.29
48.9305
-1118.39
140.279
-1049.35
219.626
-994.581
282.016
-953.036
326.552
-922.762
358.151
-901.869
380.222
-886.986
396.116
-876.077
410.255
-868.105
424.945
-862.472
441.119
-859.651
459.409
-860.838
481.483
-868.138
511.074
-884.306
552.186
-912.082
607.653
-953.357
681.067
-1008.56
777.822
-1076.81
903.491
-1156.1
1063.74
-1243.16
1266.4
-1336.61
1519.42
-1438.38
1826.74
-1551.02
2195.62
-1675.31
2637.11
-1810.17
3158.81
-1950.84
3758.8
-2084.85
4427.2
-2192.65
5135.06
-2252.23
5827.74
-2245.96
6432.86
-2168.07
6885.43
-2030.43
7149.4
-1861.24
7236.41
-1694.07
7203.29
-1549.8
7107.69
-1425.32
6940.2
-1298.32
6588.21
-1150.79
5883.96
-998.27
4720.37
-893.565
3170.56
-898.716
1569.52
-1070.19
466.43
-1364.85
388.528
-1598.82
619.718
-1760.65
298.642
-1903.95
-480.678
-1967.62
-1574.39
-1893.61
-2366.03
-1638.96
-2736.65
-1172.31
-2462.73
-546.452
-1157.3
-120.699
664.203
3.42199
1640.19
51.9579
1632.29
130.307
1456.98
171.084
1446.79
231.889
1438.18
307.893
1607.84
362.95
1920.72
355.915
2074.27
284.052
1718.45
819.681
-1655.08
-736.207
-1663.03
-744.89
-1670.61
-731.97
-1677.44
-720.108
-1683.11
-703.07
-1686.95
-681.889
-1688.09
-655.983
-1685.45
-624.844
-1677.82
-587.851
-1663.87
-544.139
-1642.23
-492.806
-1611.6
-433.373
-1570.88
-365.872
-1519.54
-290.45
-1457.85
-207.57
-1387.07
-119.001
-1309.97
-28.1656
-1230.97
61.2737
-1155.77
144.426
-1090.58
216.829
-1038.31
274.279
-997.16
317.004
-965.828
348.89
-942.83
373.117
-926.105
393.53
-914.93
413.77
-909.229
435.418
-909.397
459.576
-916.656
488.742
-932.574
526.991
-958.705
578.317
-996.188
645.136
-1045.16
730.042
-1104.82
837.48
-1174
972.673
-1251.67
1141.4
-1336.63
1351.36
-1428.97
1611.76
-1530.94
1928.71
-1644.44
2309.12
-1769.24
2761.91
-1901.76
3291.33
-2034.22
3891.27
-2152.13
4545.11
-2235.63
5218.55
-2265.56
5857.67
-2229.9
6397.2
-2129.04
6784.57
-1979.64
7000
-1810.78
7067.55
-1651.79
7044.3
-1516.23
6972.12
-1395.29
6819.26
-1267.51
6460.43
-1122.49
5738.94
-983.862
4581.74
-905.804
3092.5
-947.384
1611.09
-1166.1
685.148
-1488.16
710.584
-1743.32
874.878
-1923.14
478.463
-2070.09
-333.725
-2141.92
-1502.56
-2082.06
-2425.89
-1849.85
-2968.85
-1410.96
-2901.63
-767.38
-1800.87
-226.606
123.429
-31.0094
1444.59
22.2221
1579.06
104.276
1374.92
148.47
1402.6
209.178
1377.47
280.265
1536.75
334.694
1866.29
332.839
2076.13
268.811
1782.47
939.45
-1666.68
-727.485
-1675.9
-735.671
-1685.18
-722.693
-1694.18
-711.107
-1702.57
-694.68
-1709.79
-674.673
-1715.07
-650.698
-1717.48
-622.432
-1715.92
-589.411
-1709.18
-550.878
-1695.99
-506.002
-1675.02
-454.345
-1645.07
-395.823
-1605.31
-330.207
-1555.45
-257.433
-1495.86
-178.584
-1428.11
-95.9171
-1355.14
-11.6952
-1281.19
70.4702
-1211.33
146.974
-1150.97
213.914
-1101.81
267.848
-1062.51
309.591
-1032.54
343.143
-1011.09
372.087
-997.366
400.042
-991.414
429.467
-993.666
461.827
-1004.86
499.938
-1025.71
547.841
-1056.66
609.264