/*--------------------------------*- C++ -*----------------------------------*\
| =========                 |                                                 |
| \\      /  F ield         | OpenFOAM: The Open Source CFD Toolbox           |
|  \\    /   O peration     | Version:  4.1                                   |
|   \\  /    A nd           | Web:      www.OpenFOAM.org                      |
|    \\/     M anipulation  |                                                 |
\*---------------------------------------------------------------------------*/
FoamFile
{
    version     2.0;
    format      ascii;
    class       volVectorField;
    location    "6";
    object      U;
}
// * * * * * * * * * * * * * * * * * * * * * * * * * * * * * * * * * * * * * //

dimensions      [0 1 -1 0 0 0 0];

internalField   nonuniform List<vector> 
6785
(
(9.37797e-15 0.684599 15.7418)
(1.72971e-14 -5.13033 12.0538)
(-2.38653e-15 -4.29255 12.1842)
(4.12969e-15 -3.7238 12.0222)
(7.14779e-16 -3.11932 11.901)
(-2.07831e-15 -2.66645 11.7153)
(2.04334e-15 -2.31759 11.4881)
(7.7376e-16 -2.07342 11.2168)
(-3.92487e-16 -1.90792 10.9139)
(1.65063e-15 -1.81718 10.5843)
(1.78019e-16 -1.92241 10.165)
(-1.87146e-16 -2.37179 9.5601)
(1.10862e-15 -2.68973 8.9698)
(-1.38951e-16 -1.3355 8.92612)
(-9.88301e-16 1.73303 7.64138)
(1.54902e-14 -5.6382 22.1818)
(1.60614e-14 -14.7677 21.34)
(3.42979e-16 -13.243 20.4983)
(8.13619e-15 -11.8211 19.6219)
(3.57635e-15 -11.2262 18.5971)
(-2.29099e-15 -10.7088 17.6047)
(2.7896e-16 -10.1206 16.652)
(2.51077e-15 -9.54445 15.6953)
(-2.79311e-16 -8.97873 14.7274)
(-1.29082e-15 -8.37608 13.7515)
(1.98352e-15 -7.7511 12.7736)
(9.40458e-17 -7.2766 11.7828)
(3.66254e-15 -7.01186 10.6934)
(8.36098e-16 -5.7839 8.97357)
(-9.53165e-16 -1.7331 4.85279)
(1.89134e-14 -7.89563 22.185)
(1.94976e-14 -16.7488 24.7019)
(1.22873e-15 -13.8094 23.9911)
(7.80431e-15 -12.4951 22.6554)
(5.31758e-15 -11.8319 21.2608)
(-1.61135e-15 -10.9887 20.0201)
(4.21271e-15 -10.1073 18.7897)
(-2.39519e-16 -9.26108 17.5384)
(3.09663e-17 -8.43719 16.275)
(3.08195e-15 -7.62075 15.0224)
(2.21071e-15 -6.79782 13.8033)
(-3.16919e-18 -5.96952 12.4326)
(-6.34353e-15 -4.99239 10.3276)
(7.02919e-16 -3.2769 6.89252)
(-6.52303e-16 -0.663359 2.40143)
(1.83361e-14 -8.1415 17.9857)
(1.84929e-14 -16.3359 24.4546)
(4.33689e-15 -13.4335 23.9533)
(5.48518e-15 -12.5316 22.1171)
(2.94596e-16 -11.8 20.6123)
(-3.60948e-15 -10.8488 19.281)
(2.03255e-15 -9.96973 17.9212)
(5.70698e-16 -9.14037 16.5566)
(3.11065e-15 -8.34729 15.2037)
(1.21825e-15 -7.59772 13.876)
(-2.19873e-15 -6.837 12.5331)
(-2.05973e-15 -5.87574 10.8646)
(-1.65762e-15 -4.38778 8.19935)
(-4.25097e-15 -2.24603 3.97841)
(1.48875e-14 0.0131291 -1.34923)
(1.4256e-14 -7.32418 13.9194)
(1.41144e-14 -15.3633 23.7136)
(4.82967e-15 -13.9113 24.0445)
(2.97167e-15 -13.0989 21.95)
(-2.6085e-15 -12.3047 20.3339)
(2.17737e-16 -11.3817 18.9622)
(8.6189e-16 -10.5642 17.553)
(-4.20802e-15 -9.77106 16.1501)
(2.27013e-16 -8.9845 14.7774)
(-1.49247e-15 -8.22557 13.439)
(-8.11762e-15 -7.45944 12.0857)
(-7.32548e-15 -6.51546 10.4518)
(-5.62481e-15 -5.04576 8.04742)
(-2.00732e-14 -3.17243 4.57148)
(-1.27149e-14 -1.17755 1.48148)
(1.20663e-14 -6.12191 10.8615)
(1.66607e-14 -14.1717 22.6725)
(4.52067e-15 -14.3483 24.3346)
(1.19501e-16 -13.5294 22.4714)
(-2.20388e-15 -12.5691 20.7525)
(9.02523e-16 -11.6326 19.3264)
(5.73912e-15 -10.8128 17.9026)
(-3.74548e-15 -9.99412 16.4905)
(6.31481e-16 -9.16783 15.1074)
(-3.61695e-16 -8.36273 13.7569)
(-6.65671e-15 -7.55731 12.4012)
(-1.84271e-15 -6.63399 10.8193)
(2.596e-16 -5.24102 8.63833)
(-5.2917e-15 -3.66926 5.60174)
(-1.03655e-14 -1.44685 3.03339)
(2.0881e-14 -5.10639 8.8114)
(1.89239e-14 -12.9949 21.5699)
(1.18587e-14 -14.2949 24.2398)
(6.87533e-15 -13.5721 22.8865)
(-2.28507e-15 -12.5297 21.1407)
(-1.63249e-15 -11.5966 19.6465)
(-5.03464e-16 -10.7703 18.2083)
(-4.37845e-16 -9.93275 16.793)
(-2.46254e-15 -9.09492 15.4002)
(1.31581e-15 -8.28448 14.037)
(5.63722e-16 -7.47624 12.6742)
(5.951e-15 -6.58467 11.0961)
(1.51295e-15 -5.19451 8.99095)
(-7.13052e-15 -3.93525 6.09799)
(1.37398e-14 -1.52485 3.98485)
(6.12408e-15 -4.62796 8.01644)
(1.78119e-14 -12.1933 20.8374)
(1.32211e-14 -14.0328 23.8107)
(5.03487e-15 -13.4578 23.025)
(3.05854e-15 -12.4674 21.3204)
(3.18702e-15 -11.5647 19.7795)
(2.00539e-15 -10.7379 18.3336)
(9.90898e-16 -9.89897 16.9174)
(4.17237e-15 -9.06953 15.5189)
(-3.05328e-15 -8.26741 14.15)
(1.08825e-15 -7.46 12.7821)
(4.06791e-15 -6.58294 11.1747)
(-3.88737e-15 -5.10831 9.07085)
(-6.06125e-15 -4.07358 6.16521)
(7.63511e-15 -1.5403 4.36037)
(1.18252e-14 -4.51839 7.87976)
(1.78008e-14 -11.729 20.3613)
(9.96052e-15 -13.8065 23.2583)
(5.07526e-15 -13.3873 23.0296)
(1.67387e-15 -12.5097 21.413)
(-3.55006e-15 -11.6175 19.8559)
(3.63863e-15 -10.7767 18.4108)
(1.40191e-15 -9.93648 16.9952)
(-3.08043e-15 -9.11111 15.5943)
(4.28247e-15 -8.30955 14.2245)
(-5.03364e-16 -7.49298 12.8529)
(-3.51811e-15 -6.62301 11.1977)
(-6.24565e-15 -5.03759 9.08089)
(-6.62314e-15 -4.22174 6.21447)
(-7.80129e-15 -1.61684 4.6563)
(1.3235e-14 -4.453 7.65027)
(1.70149e-14 -11.3788 19.8851)
(9.11771e-15 -13.6401 22.7483)
(3.03798e-15 -13.3711 23.0056)
(7.59594e-16 -12.6107 21.5138)
(-2.80695e-15 -11.7039 19.9566)
(-7.58384e-16 -10.8422 18.5095)
(1.62169e-15 -10.0006 17.0917)
(4.46848e-15 -9.17524 15.6892)
(2.97436e-15 -8.37205 14.3179)
(-4.5185e-17 -7.54325 12.9419)
(-4.81756e-16 -6.68151 11.2304)
(-1.8114e-14 -4.99411 9.10374)
(-1.53185e-15 -4.3914 6.34341)
(-2.40406e-15 -1.74864 4.99731)
(-3.86839e-15 -4.26381 7.10782)
(1.63878e-14 -10.9871 19.2952)
(4.15927e-15 -13.4759 22.3326)
(3.25869e-15 -13.3674 23.0056)
(-4.42681e-16 -12.7254 21.6712)
(3.05419e-15 -11.8079 20.118)
(-2.60108e-15 -10.931 18.655)
(7.1039e-15 -10.0895 17.2267)
(-7.38727e-15 -9.26178 15.8185)
(-8.09461e-16 -8.45778 14.4399)
(8.62069e-15 -7.6126 13.0571)
(-1.19144e-14 -6.75889 11.2912)
(-2.853e-15 -4.98731 9.15913)
(-1.77537e-14 -4.56023 6.51199)
(-1.84874e-14 -1.88566 5.34654)
(-4.69147e-15 -3.97112 6.39845)
(2.1517e-14 -10.5284 18.6585)
(9.46897e-15 -13.2441 21.9656)
(3.79536e-15 -13.2738 22.9774)
(5.94096e-15 -12.7399 21.7864)
(-7.48377e-15 -11.8198 20.2549)
(-3.43829e-15 -10.9453 18.7886)
(1.13506e-15 -10.1118 17.3598)
(-8.51544e-15 -9.28835 15.955)
(-6.67458e-16 -8.49143 14.5728)
(-1.55546e-15 -7.63501 13.1767)
(-2.63741e-14 -6.77741 11.3444)
(-4.35801e-15 -4.93947 9.21661)
(-2.53355e-14 -4.72558 6.72487)
(-1.72361e-14 -2.01803 5.68225)
(-5.52616e-15 -3.87667 6.14511)
(1.43889e-14 -10.2393 18.2671)
(4.49732e-15 -13.1495 21.7993)
(2.61289e-15 -13.3419 23.1191)
(5.0944e-15 -12.9368 22.0615)
(-7.5369e-15 -12.0217 20.5056)
(-5.23854e-15 -11.115 18.9635)
(1.13768e-14 -10.2492 17.4822)
(-1.1318e-14 -9.38629 16.0361)
(-4.4587e-15 -8.56706 14.6183)
(3.68336e-16 -7.65758 13.201)
(-1.93965e-14 -6.79994 11.2816)
(-9.58406e-15 -4.82453 9.1058)
(-2.11556e-14 -4.71982 6.62522)
(-2.20206e-14 -2.02845 5.73832)
(-6.8916e-15 -3.37245 5.09343)
(1.15893e-14 -9.45257 17.372)
(-8.99684e-16 -12.3281 21.1491)
(4.73877e-15 -12.5144 22.659)
(2.73963e-15 -12.1966 21.7636)
(-6.63736e-15 -11.3559 20.4463)
(-1.46757e-15 -10.5853 19.1282)
(5.27743e-15 -9.82826 17.7804)
(-8.75519e-15 -9.06576 16.4328)
(-2.06049e-15 -8.29962 15.0407)
(-3.31924e-15 -7.45474 13.5499)
(-1.90961e-14 -6.51097 11.5644)
(-1.00073e-14 -4.89705 9.43207)
(-2.1005e-14 -4.96753 7.40008)
(-2.11472e-14 -2.14647 6.11315)
(-8.96132e-15 -6.05873 11.5232)
(1.12081e-14 -11.8057 21.0864)
(4.68439e-15 -14.5239 23.7891)
(7.64766e-16 -14.8756 24.8027)
(8.84856e-16 -14.37 23.2137)
(-5.8034e-15 -13.0554 21.0642)
(-2.39759e-15 -11.6393 18.7719)
(3.7963e-15 -10.2933 16.8289)
(-7.59943e-15 -9.01909 14.9792)
(-3.01358e-15 -7.91598 13.3349)
(-8.03682e-15 -6.61402 11.5028)
(-1.81945e-14 -5.18302 9.01249)
(-1.41245e-14 -3.10263 6.5443)
(-2.47043e-14 -2.70425 4.17485)
(-1.37183e-14 -0.481759 2.15327)
(-1.83906e-15 0.145134 -1.27668)
(-1.20799e-15 0.0587301 -1.59885)
(-6.00143e-16 0.260627 -0.695463)
(-6.04909e-16 0.346873 -0.453822)
(-6.29393e-16 0.3232 -0.335672)
(-8.00428e-16 0.580872 -0.923655)
(-6.16451e-16 0.543339 -0.79111)
(-5.89742e-16 0.663843 -0.669631)
(-2.99579e-16 0.613419 -0.555866)
(6.93802e-15 0.854327 -0.870053)
(4.4062e-15 0.776929 -0.640258)
(3.40026e-15 0.923935 -0.555097)
(2.74163e-15 1.1558 -0.774603)
(2.01596e-15 0.990122 -0.527213)
(1.93211e-15 1.12153 -0.40116)
(1.85867e-15 1.06244 -0.302003)
(2.40673e-15 1.38864 -0.198785)
(1.9384e-15 1.11476 -0.0559381)
(1.91011e-15 1.22878 0.031538)
(2.58341e-15 1.60372 0.251088)
(2.04828e-15 1.26754 0.306927)
(2.02934e-15 1.36814 0.393454)
(1.96495e-15 1.26786 0.46)
(2.5742e-15 1.60081 0.819896)
(1.99959e-15 1.20917 0.711166)
(2.00477e-15 1.37137 0.729477)
(1.17508e-15 1.27378 0.751362)
(1.28762e-15 1.50684 1.06266)
(9.33701e-16 1.17266 0.821691)
(8.55399e-16 1.2579 0.823027)
(9.36437e-16 1.56569 1.06556)
(6.8883e-16 1.16824 0.82633)
(5.85094e-16 1.26408 0.757346)
(5.12944e-16 1.16768 0.723604)
(5.09982e-16 1.33297 0.895401)
(3.54452e-16 1.00642 0.655358)
(3.12553e-16 1.10592 0.633448)
(2.5626e-16 1.37629 0.770358)
(1.74695e-16 0.988899 0.595146)
(9.58704e-17 1.10067 0.525071)
(6.02086e-17 1.02387 0.485609)
(-5.77066e-17 1.14826 0.626355)
(-8.14043e-17 0.797304 0.482332)
(-1.59063e-16 0.974403 0.423224)
(-1.8953e-16 0.916519 0.384455)
(-3.95277e-16 1.03519 0.542815)
(-3.65182e-16 0.710525 0.427899)
(-3.66382e-16 0.789811 0.39819)
(-6.32798e-16 1.05806 0.601388)
(-5.23501e-16 0.645348 0.475166)
(-5.72978e-16 0.755776 0.41232)
(-5.80634e-16 0.708515 0.363839)
(-9.09668e-16 0.789714 0.599584)
(-6.58265e-16 0.455614 0.458057)
(-6.78018e-16 0.588898 0.404844)
(2.85325e-16 0.548367 0.362651)
(2.45905e-16 0.607039 0.634318)
(1.5584e-16 0.279691 0.488569)
(1.08325e-16 0.33633 0.447447)
(7.58764e-17 0.483868 0.754592)
(1.27543e-16 0.0869061 0.552382)
(3.71964e-16 0.168121 0.489779)
(9.86797e-16 0.11549 0.457748)
(1.09561e-14 0.187927 0.789843)
(3.92198e-15 -0.178778 0.643093)
(2.44119e-15 -0.101397 0.618583)
(-4.72207e-16 0.0144032 0.93273)
(-4.72365e-15 -0.368858 0.835435)
(-3.4974e-15 -0.285569 0.940033)
(-3.53894e-15 -0.35173 1.2115)
(-6.19576e-15 -0.598966 2.39077)
(-5.6521e-15 -0.899314 2.31715)
(-5.6244e-15 -0.950103 2.3512)
(-5.70537e-15 -1.08486 2.4835)
(-7.5723e-15 -1.75175 3.89698)
(-4.43113e-15 -2.02159 3.42848)
(-4.8904e-15 -1.96045 3.63047)
(-6.90829e-15 -3.10541 5.64396)
(-5.48895e-15 -3.2072 4.73169)
(-6.11328e-15 -3.39314 5.06952)
(-8.45316e-15 -3.68169 6.04478)
(-8.28414e-15 -3.71037 6.18673)
(-8.31531e-15 -3.96623 6.45265)
(-7.56094e-15 -4.67696 8.81205)
(-9.6438e-15 -4.46709 8.23577)
(-1.05237e-14 -4.78362 8.71412)
(-1.06285e-14 -4.7669 8.9193)
(-1.03367e-14 -4.81592 9.1196)
(-1.00946e-14 -4.86145 9.34279)
(-9.73567e-15 -4.90956 9.59886)
(-8.89259e-15 -5.01054 9.98446)
(-7.69692e-15 -5.21023 10.446)
(-5.49946e-15 -5.76248 12.6254)
(-7.51304e-15 -5.76827 12.0659)
(-7.2642e-15 -5.99308 12.3896)
(-7.2313e-15 -5.94849 12.6172)
(-7.66874e-15 -6.15279 13.1513)
(-7.39632e-15 -6.0802 13.2598)
(-7.22096e-15 -6.13324 13.5024)
(-7.00579e-15 -6.19648 13.7408)
(-6.69187e-15 -6.38309 14.0341)
(-2.53967e-15 -6.77965 16.5042)
(-2.5931e-15 -6.96654 15.8617)
(-2.47735e-15 -7.1005 16.1382)
(-2.30131e-15 -7.15126 16.3069)
(-2.07238e-15 -7.20522 16.5348)
(-1.64779e-15 -7.25434 16.8499)
(-1.1943e-15 -7.32062 17.1947)
(-1.25269e-15 -7.28222 17.3511)
(-1.17807e-15 -7.34787 17.5852)
(-1.1376e-15 -7.51371 17.838)
(-9.96893e-16 -7.57983 19.7599)
(-2.19766e-15 -8.05526 19.0922)
(-1.93178e-15 -8.10962 19.3482)
(-1.80472e-15 -8.17353 19.5038)
(-1.60288e-15 -8.23407 19.7077)
(-1.29266e-15 -8.23563 19.9379)
(-1.68148e-16 -8.2766 20.3254)
(2.26443e-17 -8.29219 20.5472)
(-1.18398e-16 -8.43128 20.7162)
(6.07595e-16 -8.07269 21.6716)
(-5.00465e-16 -8.69192 20.9113)
(-8.46429e-16 -8.68335 21.2601)
(-1.22619e-15 -8.7695 21.5075)
(-1.11751e-15 -8.73966 21.5749)
(-1.10156e-15 -8.75892 21.7015)
(-1.05383e-15 -8.73108 21.8264)
(-1.07504e-15 -8.72089 21.9989)
(-1.44209e-15 -8.91559 22.3929)
(6.17941e-16 -7.49017 21.5134)
(1.04711e-16 -8.61939 21.2379)
(3.92826e-16 -8.46976 21.2449)
(6.64397e-16 -8.48257 21.2523)
(1.47334e-15 -8.49644 21.4117)
(1.65785e-15 -8.43259 21.3421)
(1.63365e-15 -8.353 21.1809)
(1.66278e-15 -8.32349 21.0001)
(1.65101e-15 -8.2586 20.7415)
(2.56492e-15 -6.18298 18.1016)
(2.17892e-15 -7.41399 18.7345)
(2.1856e-15 -7.09261 18.2725)
(2.21663e-15 -7.10102 17.9281)
(2.28343e-15 -6.98739 17.4792)
(2.45124e-15 -6.91049 16.9628)
(2.51046e-15 -6.77167 16.2751)
(2.16921e-15 -6.70309 15.761)
(2.02155e-15 -6.56977 15.0928)
(1.82864e-15 -6.26669 14.3298)
(1.33499e-15 -3.58393 9.16895)
(1.89489e-15 -4.89213 11.2824)
(1.68523e-15 -4.3137 10.1006)
(1.08822e-15 -4.3485 9.41376)
(4.95399e-16 -4.13329 8.47465)
(-3.02708e-16 -4.1032 7.3771)
(-2.07172e-15 -3.97611 5.7281)
(-3.96103e-15 -3.58105 4.12284)
(-3.55961e-15 -3.30675 3.76618)
(-1.98651e-15 -2.57135 0.576339)
(-3.26683e-15 -2.66056 2.51419)
(-2.98047e-15 -2.19394 1.40263)
(-7.18139e-16 -1.34256 -1.60676)
(-3.35692e-15 -2.81188 -0.24561)
(-1.99794e-15 -2.13063 -0.53112)
(-1.68614e-15 -1.90366 -0.273668)
(-2.13225e-15 -2.52613 -0.382158)
(-1.25933e-15 -1.65601 -0.214606)
(-2.11832e-15 -2.42613 -0.292953)
(-9.56158e-16 -2.10805 -0.190085)
(-1.21085e-15 -1.68079 -0.129977)
(-1.63151e-15 -2.35279 -0.160786)
(-1.35705e-15 -2.11569 -0.102613)
(-1.11085e-15 -1.80498 -0.0509082)
(-1.51229e-15 -2.44529 -0.0585034)
(-1.16101e-15 -1.61584 -0.0198752)
(-1.69805e-15 -2.38022 -0.026006)
(-8.53061e-16 -2.0956 -0.0109538)
(-6.92444e-16 -1.78871 0.0172342)
(-2.23726e-15 -2.42534 0.0112074)
(-8.13051e-16 -1.57014 0.0285184)
(-1.1685e-15 -2.36095 0.0220471)
(-9.30579e-16 -2.0289 0.0121468)
(-7.64744e-16 -1.57333 0.0157004)
(-9.83516e-16 -2.26536 0.000575383)
(-7.33009e-16 -1.99493 -0.0132588)
(-8.81114e-16 -1.66385 0.00973319)
(-1.14214e-15 -2.29392 -0.01367)
(-9.55796e-16 -1.41213 -0.00168245)
(-1.26715e-15 -2.18438 -0.0341055)
(-4.05446e-16 -1.83654 -0.049045)
(-5.79304e-16 -1.52683 -0.0193274)
(-7.68106e-16 -2.11835 -0.0639941)
(-6.00153e-16 -1.24407 -0.0353547)
(-1.03981e-15 -1.98812 -0.0925657)
(8.92501e-16 -1.59083 -0.104425)
(-1.57343e-17 -1.14919 -0.0860162)
(-1.88892e-16 -1.74862 -0.159472)
(-1.6994e-15 -1.43032 -0.170742)
(-3.47194e-16 -1.11496 -0.135031)
(-3.49312e-16 -1.62094 -0.209822)
(-2.61993e-16 -0.837841 -0.1767)
(-3.85284e-16 -1.45827 -0.26783)
(4.82196e-16 -1.08054 -0.285167)
(-6.99009e-16 -0.799372 -0.247485)
(-1.89222e-15 -1.19741 -0.340448)
(-2.80526e-16 -0.557672 -0.299343)
(-5.40579e-16 -1.0605 -0.41554)
(-1.52047e-15 -0.669568 -0.429687)
(-1.42158e-16 -0.351633 -0.392617)
(-3.12189e-16 -0.678926 -0.531276)
(-2.35929e-16 -0.361565 -0.529461)
(-1.88733e-16 -0.074143 -0.49232)
(-1.99421e-15 -0.254193 -0.603242)
(-6.28631e-16 -0.0338022 -0.557751)
(-2.26366e-15 -0.300189 -0.695433)
(4.57115e-16 0.0392442 -0.620553)
(-1.38728e-16 0.690614 -0.631776)
(-5.01282e-15 0.614247 -0.633934)
(-2.20404e-17 0.553407 -0.73318)
(-1.3517e-16 0.00341523 -0.726718)
(-2.18824e-16 0.077167 -0.702819)
(-6.56188e-16 0.314614 -0.641154)
(-1.32317e-15 0.57631 -0.704532)
(2.38594e-15 0.201633 -0.711881)
(1.07924e-15 0.386734 -0.546615)
(2.40808e-15 1.41486 -0.564369)
(1.54742e-15 1.26161 -0.466718)
(1.04117e-15 1.19795 -0.54239)
(-1.56214e-15 0.879823 -0.619515)
(3.19449e-16 0.684736 -0.411238)
(-2.7607e-16 1.74254 -0.603536)
(8.42789e-17 1.47178 -0.402013)
(1.91719e-16 1.82573 -0.466317)
(4.37946e-16 1.86573 -0.713546)
(-2.90032e-16 1.65505 -0.455844)
(-4.37486e-16 2.37641 -0.693036)
(-1.63321e-16 2.67224 -1.12549)
(-1.58893e-16 2.10562 -0.702393)
(-1.80094e-16 3.27063 -1.28402)
(-1.4945e-16 2.60608 -0.916587)
(-1.5023e-16 3.11923 -1.52712)
(-1.31147e-15 0.857904 8.74235)
(-1.14079e-15 0.772586 8.54033)
(-1.14052e-15 0.683563 8.35475)
(-1.16494e-15 0.586268 8.15567)
(-1.26106e-15 0.473121 7.95059)
(-1.43293e-15 0.352489 7.75644)
(-1.6868e-15 0.228548 7.58943)
(-2.01787e-15 0.107585 7.46895)
(-2.40695e-15 -0.00229256 7.41094)
(-2.81945e-15 -0.0935544 7.42226)
(-3.2122e-15 -0.162888 7.49566)
(-3.54695e-15 -0.217065 7.61043)
(-3.80265e-15 -0.263389 7.73741)
(-3.98432e-15 -0.281401 7.86198)
(-4.16761e-15 -0.310359 8.0071)
(-4.30953e-15 -0.347466 8.13661)
(-4.40059e-15 -0.38397 8.23549)
(-4.45952e-15 -0.422715 8.31411)
(-4.50577e-15 -0.477088 8.37582)
(-4.52146e-15 -0.532106 8.40577)
(-4.51605e-15 -0.587372 8.4145)
(-4.50081e-15 -0.646455 8.41288)
(-4.47601e-15 -0.703455 8.40161)
(-4.43691e-15 -0.75669 8.38176)
(-4.38172e-15 -0.809022 8.35599)
(-4.30052e-15 -0.857361 8.3196)
(-4.17854e-15 -0.899431 8.2631)
(-3.99843e-15 -0.938766 8.17063)
(-3.73699e-15 -0.986131 8.01894)
(-3.36121e-15 -1.05076 7.77694)
(-2.82775e-15 -1.12207 7.40401)
(-2.10255e-15 -1.1939 6.86264)
(-1.1917e-15 -1.26397 6.15063)
(-1.71023e-16 -1.30966 5.33935)
(7.70852e-16 -1.24063 4.60756)
(1.24867e-15 -0.969999 4.26932)
(9.55681e-16 -0.854952 4.5517)
(4.91076e-16 -1.26232 5.02989)
(2.73403e-16 -1.43255 5.31526)
(2.38178e-16 -1.59132 5.29818)
(2.98423e-16 -1.65206 5.02358)
(3.23691e-16 -1.81177 4.82121)
(3.66873e-16 -1.94906 5.07722)
(5.20981e-16 -2.31711 6.08513)
(7.74449e-16 -3.1922 7.29749)
(1.02453e-15 -4.3153 8.60786)
(1.1562e-15 -5.54108 9.92409)
(1.08538e-15 -6.90707 11.3263)
(8.16278e-16 -8.50145 12.8171)
(4.38318e-16 -10.2567 14.1332)
(8.99104e-17 -11.8525 14.8907)
(-8.01062e-17 -13.0012 14.7074)
(-4.04376e-17 -13.2951 13.4216)
(5.60957e-17 -12.4923 11.6197)
(9.22217e-17 -11.1451 10.2457)
(1.49194e-16 -10.0745 9.49466)
(2.47896e-16 -8.93855 8.61368)
(2.78904e-16 -6.70748 7.44264)
(2.82088e-16 -3.40688 6.43828)
(2.85067e-16 -0.574933 5.78358)
(2.61457e-16 0.00914682 5.32077)
(1.59223e-16 1.2349 4.25525)
(-4.40519e-16 4.63084 1.86711)
(-7.14372e-16 3.95387 1.87442)
(-8.54005e-16 1.59067 1.94732)
(-9.84593e-16 -2.54889 -0.170668)
(-1.04131e-15 -1.90402 -0.434857)
(-1.0994e-15 -1.94498 -0.811638)
(-1.12808e-15 -2.3853 -2.43232)
(-1.01524e-15 -2.42068 -1.55601)
(-6.64388e-16 -3.1044 -1.57142)
(-2.44593e-16 -3.65852 -2.46033)
(1.57693e-16 -4.01751 -3.29054)
(3.74206e-16 -4.0956 -3.9366)
(5.20067e-16 -3.83417 -4.10119)
(2.60187e-16 -2.98329 -3.69861)
(-2.31612e-16 -1.51668 -2.88754)
(-4.15135e-16 1.15364 -2.41157)
(-3.19397e-16 1.61925 -2.14725)
(-1.08108e-15 0.894292 9.05766)
(-8.78552e-16 0.825273 8.86953)
(-8.45254e-16 0.740226 8.68762)
(-8.26873e-16 0.64563 8.4849)
(-8.73481e-16 0.533137 8.26569)
(-9.91918e-16 0.409251 8.04458)
(-1.19531e-15 0.277041 7.83563)
(-1.49002e-15 0.141197 7.65906)
(-1.87136e-15 0.0084119 7.53583)
(-2.31851e-15 -0.112623 7.48275)
(-2.79359e-15 -0.214824 7.50538)
(-3.24881e-15 -0.297268 7.59414)
(-3.6395e-15 -0.362647 7.72414)
(-3.94998e-15 -0.410269 7.8762)
(-4.19844e-15 -0.453959 8.04019)
(-4.37245e-15 -0.498374 8.18366)
(-4.48056e-15 -0.543886 8.29721)
(-4.5402e-15 -0.595715 8.38188)
(-4.55835e-15 -0.647362 8.42873)
(-4.54273e-15 -0.695388 8.44128)
(-4.5082e-15 -0.740888 8.4344)
(-4.46307e-15 -0.781985 8.41613)
(-4.40688e-15 -0.816401 8.38897)
(-4.33574e-15 -0.847269 8.3541)
(-4.23998e-15 -0.876423 8.30653)
(-4.10428e-15 -0.904016 8.2357)
(-3.91203e-15 -0.930061 8.12911)
(-3.64392e-15 -0.954836 7.96853)
(-3.27723e-15 -0.981051 7.73067)
(-2.78538e-15 -1.00944 7.38928)
(-2.14514e-15 -1.03173 6.92166)
(-1.36105e-15 -1.04668 6.32842)
(-4.84313e-16 -1.05529 5.65099)
(3.74675e-16 -1.03895 4.97527)
(1.00753e-15 -0.941555 4.4576)
(1.10507e-15 -0.7793 4.3715)
(6.86248e-16 -0.877036 4.77893)
(3.60855e-16 -1.2961 5.14524)
(2.47622e-16 -1.46011 5.2747)
(2.58254e-16 -1.58145 5.17121)
(3.10297e-16 -1.62808 4.94167)
(3.38504e-16 -1.79058 4.88259)
(4.15677e-16 -2.06128 5.33141)
(6.0161e-16 -2.63211 6.4142)
(8.52808e-16 -3.60041 7.65269)
(1.07012e-15 -4.73114 8.9449)
(1.15177e-15 -5.96443 10.2472)
(1.03432e-15 -7.3682 11.6464)
(7.39843e-16 -8.97672 13.099)
(3.65668e-16 -10.655 14.318)
(4.92406e-17 -12.0912 14.9369)
(-8.15811e-17 -12.9962 14.6145)
(-2.69739e-17 -13.0144 13.2668)
(6.24447e-17 -12.0435 11.5011)
(9.88053e-17 -10.6758 10.1991)
(1.62742e-16 -9.55328 9.45872)
(2.54699e-16 -8.17474 8.51008)
(2.79753e-16 -5.58692 7.17562)
(2.78973e-16 -1.96272 5.89259)
(2.6188e-16 0.901251 5.01101)
(1.98729e-16 1.52812 4.37116)
(1.80645e-17 3.12485 2.65291)
(-6.23589e-16 4.43692 0.898755)
(-7.62817e-16 3.08102 2.38039)
(-8.50805e-16 1.29605 2.32095)
(-9.52797e-16 -3.0457 0.224538)
(-1.04576e-15 -2.33621 -0.595944)
(-1.09888e-15 -2.57123 -0.773583)
(-1.12963e-15 -2.79908 -2.12049)
(-1.02652e-15 -2.822 -1.31534)
(-6.88174e-16 -3.24218 -1.35029)
(-2.82112e-16 -3.64516 -2.26421)
(1.15979e-16 -3.93935 -3.13946)
(3.49199e-16 -4.00663 -3.85632)
(5.12017e-16 -3.79786 -4.14886)
(3.25684e-16 -3.05117 -3.88821)
(-1.0523e-16 -1.61201 -3.19963)
(-2.98702e-16 0.245424 -2.47112)
(-3.64411e-16 1.32225 -1.92203)
(-9.65228e-16 0.91726 9.22586)
(-7.45417e-16 0.859163 9.04921)
(-6.8868e-16 0.778502 8.8706)
(-6.38443e-16 0.687191 8.66616)
(-6.44618e-16 0.576198 8.43779)
(-7.14495e-16 0.45115 8.19792)
(-8.6422e-16 0.315299 7.95872)
(-1.10619e-15 0.17259 7.74)
(-1.44511e-15 0.0274002 7.56528)
(-1.87113e-15 -0.112005 7.45726)
(-2.3543e-15 -0.237262 7.42992)
(-2.84569e-15 -0.341006 7.48143)
(-3.28969e-15 -0.420482 7.59122)
(-3.65775e-15 -0.471276 7.73408)
(-3.97179e-15 -0.513507 7.90169)
(-4.2048e-15 -0.553282 8.06197)
(-4.36445e-15 -0.589474 8.20303)
(-4.46551e-15 -0.626646 8.31865)
(-4.50108e-15 -0.663948 8.39072)
(-4.48774e-15 -0.697583 8.42225)
(-4.4377e-15 -0.727441 8.42087)
(-4.35663e-15 -0.753148 8.39003)
(-4.25094e-15 -0.773375 8.33688)
(-4.11713e-15 -0.79048 8.26276)
(-3.94471e-15 -0.805296 8.16251)
(-3.71793e-15 -0.819284 8.02525)
(-3.41779e-15 -0.833038 7.83534)
(-3.0263e-15 -0.846637 7.57522)
(-2.52752e-15 -0.858805 7.2268)
(-1.91471e-15 -0.868405 6.78071)
(-1.20331e-15 -0.874878 6.24863)
(-4.44711e-16 -0.885516 5.67262)
(2.7669e-16 -0.905665 5.11902)
(8.43389e-16 -0.920825 4.66474)
(1.08469e-15 -0.90358 4.42342)
(8.64365e-16 -0.909844 4.55197)
(4.42761e-16 -1.10726 4.94568)
(2.62322e-16 -1.39037 5.18364)
(2.43802e-16 -1.50188 5.20381)
(2.82809e-16 -1.54841 5.06953)
(3.25637e-16 -1.60465 4.92972)
(3.68936e-16 -1.78785 5.05139)
(4.87811e-16 -2.17936 5.70814)
(7.01421e-16 -2.88361 6.84842)
(9.4042e-16 -3.897 8.08324)
(1.11228e-15 -5.03689 9.34846)
(1.13272e-15 -6.28211 10.6407)
(9.62836e-16 -7.71187 12.0321)
(6.44003e-16 -9.30742 13.424)
(2.81106e-16 -10.89 14.5093)
(6.79749e-18 -12.1583 14.9414)
(-7.92857e-17 -12.8439 14.4375)
(-1.06632e-17 -12.6766 13.0224)
(7.00544e-17 -11.6848 11.3267)
(1.08075e-16 -10.4415 10.1233)
(1.78813e-16 -9.36981 9.38423)
(2.62058e-16 -7.86567 8.37053)
(2.80222e-16 -5.12284 6.93649)
(2.72395e-16 -1.50626 5.50415)
(2.23477e-16 1.20554 4.45106)
(8.31886e-17 2.44776 3.47175)
(-3.02068e-16 4.38079 0.872705)
(-7.42614e-16 3.31606 1.79423)
(-7.647e-16 2.92166 3.15105)
(-8.09146e-16 1.44698 2.49543)
(-9.00184e-16 -2.4418 0.449596)
(-1.02964e-15 -2.58276 -0.525352)
(-1.09816e-15 -2.57969 -0.880698)
(-1.135e-15 -2.91268 -2.07013)
(-1.0397e-15 -3.00033 -1.38557)
(-7.17838e-16 -3.30797 -1.2305)
(-3.25872e-16 -3.67474 -2.05258)
(6.62961e-17 -3.93166 -2.92289)
(3.15941e-16 -4.0358 -3.68488)
(4.96854e-16 -3.91668 -4.0917)
(3.89676e-16 -3.27283 -3.95474)
(2.64763e-17 -1.9508 -3.36776)
(-1.96991e-16 -0.152654 -2.5555)
(-2.88445e-16 0.997426 -1.75106)
(-8.4944e-16 0.940201 9.41522)
(-6.15901e-16 0.892913 9.25409)
(-5.3949e-16 0.8188 9.08266)
(-4.60928e-16 0.733771 8.88154)
(-4.28944e-16 0.62793 8.64933)
(-4.495e-16 0.505738 8.39559)
(-5.39365e-16 0.370426 8.12905)
(-7.14318e-16 0.225385 7.86676)
(-9.86785e-16 0.0722745 7.6323)
(-1.35903e-15 -0.0823336 7.45281)
(-1.81527e-15 -0.228477 7.35164)
(-2.31526e-15 -0.353279 7.33933)
(-2.79906e-15 -0.448776 7.40542)
(-3.21212e-15 -0.511649 7.52073)
(-3.58184e-15 -0.560164 7.67368)
(-3.87337e-15 -0.599054 7.83634)
(-4.07906e-15 -0.629912 7.9885)
(-4.2132e-15 -0.656826 8.12036)
(-4.26885e-15 -0.680428 8.21474)
(-4.2547e-15 -0.699943 8.26396)
(-4.18489e-15 -0.713036 8.27096)
(-4.05996e-15 -0.720264 8.23007)
(-3.88848e-15 -0.721662 8.14413)
(-3.671e-15 -0.717615 8.0155)
(-3.3979e-15 -0.709603 7.83855)
(-3.06077e-15 -0.700024 7.61006)
(-2.64601e-15 -0.689973 7.32132)
(-2.14313e-15 -0.681557 6.96268)
(-1.55507e-15 -0.674663 6.53426)
(-9.04117e-16 -0.671027 6.05119)
(-2.40713e-16 -0.676973 5.55291)
(3.61509e-16 -0.704161 5.09721)
(8.2446e-16 -0.757045 4.73697)
(1.06142e-15 -0.821754 4.51535)
(9.78803e-16 -0.882731 4.49571)
(6.07127e-16 -0.975419 4.72916)
(2.78848e-16 -1.1633 5.04726)
(2.21337e-16 -1.35027 5.17218)
(2.61828e-16 -1.4209 5.12204)
(3.06415e-16 -1.49255 5.01174)
(3.4628e-16 -1.62932 5.00827)
(4.16973e-16 -1.88595 5.33098)
(5.7516e-16 -2.36567 6.15298)
(8.03189e-16 -3.14543 7.31758)
(1.01833e-15 -4.15917 8.53367)
(1.13775e-15 -5.28177 9.77496)
(1.09636e-15 -6.52975 11.0621)
(8.79011e-16 -7.95439 12.4363)
(5.43854e-16 -9.49912 13.7484)
(2.00721e-16 -10.954 14.6791)
(-2.74931e-17 -12.0407 14.9072)
(-7.22927e-17 -12.5186 14.2216)
(5.62237e-18 -12.2053 12.7534)
(7.78514e-17 -11.2289 11.1407)
(1.19049e-16 -10.1045 10.0317)
(1.94675e-16 -9.05551 9.2801)
(2.68446e-16 -7.43584 8.19198)
(2.79555e-16 -4.61013 6.66776)
(2.59541e-16 -1.12159 5.14231)
(1.63728e-16 1.34921 4.03992)
(-6.48854e-17 2.48054 3.04912)
(-5.40794e-16 2.74339 1.932)
(-7.2157e-16 2.51635 3.01195)
(-7.65048e-16 2.73694 3.68607)
(-7.66259e-16 1.54599 2.77654)
(-8.57479e-16 -1.80732 0.730118)
(-1.00407e-15 -2.59014 -0.508888)
(-1.08652e-15 -2.62481 -0.889953)
(-1.13764e-15 -2.97286 -1.97514)
(-1.05868e-15 -3.07868 -1.53356)
(-7.56959e-16 -3.22693 -1.23697)
(-3.71757e-16 -3.52802 -1.8685)
(1.71787e-17 -3.74887 -2.68677)
(2.80576e-16 -3.90657 -3.47483)
(4.76752e-16 -3.87545 -3.979)
(4.37481e-16 -3.35786 -3.95866)
(1.37976e-16 -2.18813 -3.46444)
(-1.07701e-16 -0.495804 -2.59057)
(-2.05444e-16 0.835225 -1.75799)
(-7.5295e-16 0.961604 9.59063)
(-5.11517e-16 0.923533 9.44762)
(-4.21106e-16 0.856362 9.28723)
(-3.20854e-16 0.778713 9.09475)
(-2.57517e-16 0.679894 8.86561)
(-2.3448e-16 0.562964 8.60635)
(-2.66921e-16 0.430654 8.32164)
(-3.70694e-16 0.286063 8.02387)
(-5.61757e-16 0.129408 7.73376)
(-8.51151e-16 -0.0356379 7.47983)
(-1.237e-15 -0.198528 7.29225)
(-1.69516e-15 -0.343654 7.19433)
(-2.1734e-15 -0.457959 7.19102)
(-2.61308e-15 -0.534624 7.26458)
(-3.01254e-15 -0.592436 7.38047)
(-3.35472e-15 -0.634447 7.52673)
(-3.6046e-15 -0.663503 7.67255)
(-3.76438e-15 -0.686517 7.79929)
(-3.83744e-15 -0.701984 7.89637)
(-3.80885e-15 -0.710861 7.93939)
(-3.70056e-15 -0.712629 7.93117)
(-3.51856e-15 -0.705498 7.86588)
(-3.26376e-15 -0.689935 7.73368)
(-2.95074e-15 -0.666933 7.54305)
(-2.57709e-15 -0.636773 7.29209)
(-2.14187e-15 -0.602605 6.98261)
(-1.64816e-15 -0.56735 6.62265)
(-1.10036e-15 -0.535549 6.21749)
(-5.22019e-16 -0.512276 5.78584)
(4.19211e-17 -0.503363 5.3623)
(5.32883e-16 -0.518534 4.99064)
(8.92845e-16 -0.566882 4.71205)
(1.07662e-15 -0.648744 4.54929)
(1.04176e-15 -0.750985 4.5145)
(7.72563e-16 -0.8575 4.62941)
(3.96772e-16 -0.971478 4.87698)
(1.96882e-16 -1.11323 5.09321)
(2.25371e-16 -1.24886 5.12394)
(2.89332e-16 -1.32134 5.04657)
(3.29124e-16 -1.46595 5.01439)
(3.7756e-16 -1.70109 5.18333)
(4.8289e-16 -2.05033 5.70343)
(6.71879e-16 -2.60092 6.64023)
(8.99322e-16 -3.40864 7.80155)
(1.0799e-15 -4.4002 8.99236)
(1.14302e-15 -5.50566 10.2156)
(1.04312e-15 -6.7599 11.5004)
(7.86581e-16 -8.16627 12.8447)
(4.44892e-16 -9.64345 14.0555)
(1.29383e-16 -10.9687 14.8127)
(-5.17082e-17 -11.8829 14.83)
(-6.12888e-17 -12.1796 13.9772)
(2.10093e-17 -11.767 12.4774)
(8.57883e-17 -10.8358 10.9563)
(1.3126e-16 -9.81242 9.93031)
(2.09488e-16 -8.75281 9.15183)
(2.73422e-16 -7.02411 7.98283)
(2.76917e-16 -4.16293 6.38198)
(2.39535e-16 -0.850862 4.82445)
(9.6914e-17 1.39234 3.75774)
(-1.69669e-16 2.38218 2.69476)
(-5.72044e-16 2.27638 2.58386)
(-7.65943e-16 2.32449 3.68948)
(-7.23452e-16 2.60067 4.17511)
(-7.20281e-16 1.6606 3.13109)
(-8.15647e-16 -1.23869 1.03642)
(-9.79776e-16 -2.57176 -0.521306)
(-1.07614e-15 -2.54784 -0.837918)
(-1.13633e-15 -2.96623 -1.83055)
(-1.08062e-15 -3.12827 -1.6403)
(-8.03577e-16 -3.15911 -1.29521)
(-4.21537e-16 -3.35791 -1.72604)
(-3.25684e-17 -3.54473 -2.4601)
(2.44374e-16 -3.73904 -3.24943)
(4.54039e-16 -3.78092 -3.82866)
(4.69649e-16 -3.38633 -3.91558)
(2.27721e-16 -2.36583 -3.51088)
(-2.77297e-17 -0.787386 -2.66687)
(-1.05025e-16 0.676526 -1.50006)
(-6.69798e-16 0.98048 9.75821)
(-4.25063e-16 0.951028 9.63536)
(-3.25914e-16 0.891036 9.48935)
(-2.10776e-16 0.821502 9.31041)
(-1.24245e-16 0.731351 9.09101)
(-6.66792e-17 0.622382 8.83484)
(-5.04225e-17 0.495951 8.54237)
(-8.8957e-17 0.354351 8.22048)
(-1.97962e-16 0.197807 7.88452)
(-3.92325e-16 0.0278111 7.56068)
(-6.80381e-16 -0.146703 7.28219)
(-1.05511e-15 -0.310145 7.08232)
(-1.48385e-15 -0.445999 6.98319)
(-1.91808e-15 -0.542494 6.98485)
(-2.30645e-15 -0.612088 7.03686)
(-2.66395e-15 -0.66133 7.13599)
(-2.94141e-15 -0.690616 7.25522)
(-3.11561e-15 -0.709982 7.35812)
(-3.19456e-15 -0.720105 7.43226)
(-3.15725e-15 -0.718809 7.45788)
(-3.00624e-15 -0.709962 7.41535)
(-2.76082e-15 -0.691049 7.30594)
(-2.4294e-15 -0.660386 7.12511)
(-2.02934e-15 -0.622357 6.8752)
(-1.58222e-15 -0.577327 6.57295)
(-1.09989e-15 -0.527901 6.22872)
(-5.98451e-16 -0.479539 5.85972)
(-1.00764e-16 -0.438282 5.48848)
(3.60277e-16 -0.413623 5.14053)
(7.40657e-16 -0.413132 4.84941)
(1.00035e-15 -0.44464 4.6442)
(1.11479e-15 -0.512154 4.53931)
(1.07193e-15 -0.61338 4.53497)
(8.67758e-16 -0.736992 4.62369)
(5.44555e-16 -0.861372 4.79245)
(2.56388e-16 -0.966682 4.98588)
(1.80761e-16 -1.06216 5.08456)
(2.5547e-16 -1.16669 5.05104)
(3.17544e-16 -1.27429 5.00635)
(3.5511e-16 -1.49756 5.10278)
(4.24462e-16 -1.81964 5.45964)
(5.6496e-16 -2.24375 6.14832)
(7.72419e-16 -2.84623 7.151)
(9.84815e-16 -3.65788 8.2914)
(1.12198e-15 -4.62789 9.45655)
(1.12738e-15 -5.72861 10.6683)
(9.74506e-16 -6.98986 11.9483)
(6.8833e-16 -8.37763 13.2453)
(3.50198e-16 -9.7835 14.3318)
(6.88879e-17 -10.984 14.8989)
(-6.62061e-17 -11.7379 14.7064)
(-4.73878e-17 -11.8857 13.7076)
(3.52442e-17 -11.4169 12.2002)
(9.40735e-17 -10.5504 10.7769)
(1.44367e-16 -9.60899 9.82039)
(2.22956e-16 -8.51936 9.00285)
(2.77009e-16 -6.69439 7.75347)
(2.72496e-16 -3.83441 6.10063)