/*--------------------------------*- C++ -*----------------------------------*\
| =========                 |                                                 |
| \\      /  F ield         | OpenFOAM: The Open Source CFD Toolbox           |
|  \\    /   O peration     | Version:  4.1                                   |
|   \\  /    A nd           | Web:      www.OpenFOAM.org                      |
|    \\/     M anipulation  |                                                 |
\*---------------------------------------------------------------------------*/
FoamFile
{
    version     2.0;
    format      ascii;
    class       volVectorField;
    location    "16";
    object      U;
}
// * * * * * * * * * * * * * * * * * * * * * * * * * * * * * * * * * * * * * //

dimensions      [0 1 -1 0 0 0 0];

internalField   nonuniform List<vector> 
6785
(
(1.24921e-14 -2.2683 16.4823)
(1.26342e-14 -7.91856 12.8979)
(-2.9521e-15 -5.12122 13.6905)
(4.61931e-15 -5.09155 13.1764)
(9.0731e-16 -4.31452 13.0199)
(1.2889e-16 -3.91532 12.7163)
(3.70454e-15 -3.52034 12.4238)
(6.58312e-16 -3.2499 12.0987)
(-6.26392e-16 -3.05647 11.7519)
(1.95065e-15 -2.95254 11.3641)
(2.72462e-16 -2.89746 10.9602)
(-4.56724e-16 -2.89436 10.571)
(9.70298e-16 -3.30397 9.96141)
(7.46773e-17 -3.39825 9.05506)
(-5.39795e-16 -0.0194062 7.445)
(2.01067e-14 -10.1473 26.6551)
(1.32477e-14 -16.1145 22.8379)
(-2.60556e-15 -11.0095 23.208)
(5.06408e-15 -11.8275 21.332)
(7.74225e-16 -10.0911 20.4659)
(1.23596e-15 -9.47491 19.2081)
(2.61069e-15 -8.49073 18.1289)
(2.52823e-16 -7.73869 17.0415)
(2.71258e-16 -7.02857 16.0746)
(1.0027e-15 -6.50184 15.1841)
(-2.13425e-16 -6.11049 14.2184)
(8.54231e-17 -5.69688 12.926)
(7.05133e-16 -5.08712 10.905)
(-4.64049e-16 -3.81912 7.13703)
(-5.75915e-16 -0.807318 1.00167)
(2.07987e-14 -12.8697 28.0512)
(1.07381e-14 -16.5045 24.9136)
(-1.6273e-15 -11.8597 24.7717)
(3.24535e-15 -12.7472 22.3538)
(8.34968e-16 -10.6287 21.3677)
(1.18962e-15 -10.1141 19.7267)
(4.06554e-16 -8.95843 18.4942)
(8.04865e-17 -8.10728 17.082)
(1.49919e-16 -6.91149 15.3038)
(-3.91406e-16 -5.28708 12.5022)
(-3.34088e-17 -3.35227 8.78045)
(-1.03106e-15 -2.06277 5.56831)
(-3.44917e-15 -1.93981 4.08817)
(-6.48955e-16 -1.92971 2.88032)
(-1.15308e-15 -2.21517 3.16162)
(2.1401e-14 -14.255 29.0333)
(8.63977e-15 -16.9034 25.8857)
(-1.06177e-15 -12.87 25.6348)
(2.93011e-15 -13.9499 23.0313)
(3.57632e-16 -11.6245 22.154)
(1.29532e-15 -11.4845 20.3379)
(1.08601e-16 -10.2167 19.2251)
(-1.95878e-16 -9.58671 17.779)
(1.23848e-16 -8.30838 15.9559)
(-1.2539e-16 -6.28899 12.5219)
(9.11294e-16 -3.00631 7.13819)
(2.32033e-15 0.0947926 1.79227)
(4.87966e-15 1.9962 -1.28369)
(4.96695e-15 2.86729 -2.80383)
(3.64482e-15 1.24986 -1.47052)
(2.1319e-14 -14.7467 29.1438)
(9.84924e-15 -17.6845 27.1494)
(-1.05429e-15 -13.5957 26.2329)
(3.03213e-15 -14.7881 23.5269)
(9.93e-16 -12.4358 22.6519)
(1.44775e-15 -12.5175 20.672)
(7.47286e-16 -11.2659 19.5089)
(7.01118e-16 -10.8106 18.0025)
(3.35217e-16 -9.8677 16.4549)
(2.16441e-16 -8.57265 14.0318)
(1.61719e-15 -6.28644 10.3067)
(2.03244e-15 -3.27968 5.70888)
(4.2327e-15 -0.0809198 1.07383)
(6.61532e-15 2.96117 -2.81383)
(1.03784e-14 2.32597 -6.06193)
(2.07048e-14 -14.2819 27.3138)
(1.2118e-14 -17.862 27.7225)
(-5.48646e-16 -13.7835 25.7038)
(2.54877e-15 -14.5206 22.8369)
(1.70403e-15 -12.4552 21.7796)
(1.41926e-15 -12.346 19.7172)
(1.13117e-15 -11.1913 18.3349)
(1.18367e-15 -10.6207 16.688)
(7.5679e-16 -9.82435 15.1275)
(2.5342e-16 -8.9344 13.3055)
(8.06146e-16 -7.7121 11.0074)
(1.42225e-15 -5.89161 8.17174)
(1.45599e-15 -3.80256 4.78551)
(7.60017e-16 -0.762822 1.14192)
(9.82793e-15 1.35032 -4.43357)
(2.10865e-14 -13.4376 25.03)
(1.43936e-14 -17.4904 27.704)
(1.32161e-15 -13.6912 24.9555)
(2.06194e-15 -13.794 21.9106)
(2.56169e-15 -11.9829 20.6964)
(2.91864e-15 -11.6407 18.6617)
(1.60958e-15 -10.5098 17.1603)
(1.96431e-15 -9.78148 15.4563)
(2.85508e-15 -8.93521 13.8776)
(1.26164e-15 -8.08639 12.2818)
(1.38601e-15 -7.19576 10.5752)
(3.50992e-15 -5.98229 8.66498)
(2.77256e-15 -4.59207 6.2267)
(-1.20143e-15 -2.20551 3.11993)
(9.27699e-15 0.0492267 -2.1742)
(1.94075e-14 -12.7239 23.3488)
(1.58293e-14 -16.9292 27.3817)
(2.84377e-15 -13.6368 24.4439)
(1.66642e-15 -13.2078 21.2868)
(2.72852e-15 -11.6255 19.9052)
(3.04611e-15 -11.1404 18.0018)
(2.40771e-15 -10.1169 16.5141)
(2.23843e-15 -9.36933 14.9312)
(2.74701e-15 -8.56786 13.4649)
(2.6395e-15 -7.78121 12.0399)
(2.21e-15 -7.02453 10.6053)
(2.24432e-15 -6.1183 9.15484)
(3.87241e-15 -5.1507 7.44691)
(6.94669e-16 -3.46265 5.29593)
(-5.26035e-16 -1.0159 0.42836)
(1.97234e-14 -12.3165 22.5301)
(1.69696e-14 -16.2573 26.6342)
(2.17088e-15 -13.3799 23.8102)
(1.89241e-15 -12.7132 20.5561)
(3.08526e-15 -11.2293 19.099)
(1.31316e-15 -10.7848 17.3211)
(2.66308e-15 -9.91852 15.9522)
(2.76659e-15 -9.31317 14.4736)
(1.39815e-16 -8.64507 13.0539)
(1.63028e-15 -8.00115 11.6772)
(2.86673e-15 -7.4115 10.4547)
(-2.56568e-16 -6.85352 9.55554)
(1.61585e-15 -6.33938 8.86542)
(1.63077e-15 -5.31236 7.94454)
(-4.37054e-15 -3.00784 4.15256)
(1.84128e-14 -12.2422 22.321)
(1.57808e-14 -15.2543 25.4504)
(6.0343e-16 -12.6446 22.6346)
(2.17798e-16 -11.8397 19.5181)
(2.69164e-15 -10.2191 18.0067)
(-6.30188e-16 -9.59313 15.9051)
(-5.11072e-16 -8.44875 14.2208)
(1.91088e-15 -7.83991 12.4446)
(-1.77355e-15 -7.24803 11.0408)
(-2.79236e-15 -7.02877 10.0603)
(5.89729e-16 -7.16086 9.90845)
(-3.10419e-15 -7.65447 10.5941)
(-3.68644e-15 -8.00826 11.6539)
(4.46504e-16 -7.75422 11.8743)
(-5.58886e-15 -5.47989 9.008)
(1.62049e-14 -13.3347 24.246)
(1.12318e-14 -14.4698 24.9696)
(-3.77617e-15 -12.3283 22.809)
(8.83143e-16 -11.4518 20.6259)
(5.83454e-16 -9.60749 18.7034)
(-3.66298e-15 -7.99434 15.7881)
(1.66474e-15 -6.01559 12.9363)
(3.01327e-15 -4.50922 10.2251)
(1.29686e-15 -3.28566 8.15551)
(5.07675e-15 -2.93807 7.24952)
(3.12365e-15 -3.80026 8.29035)
(-3.29423e-15 -5.80937 11.066)
(-2.93766e-15 -8.00743 14.2302)
(-6.17361e-15 -9.32372 15.647)
(-7.77542e-15 -6.83484 12.4999)
(1.69936e-14 -14.9908 26.9722)
(9.32213e-15 -16.3765 27.6488)
(-4.68613e-15 -13.4024 24.8507)
(6.3381e-16 -12.8553 23.3968)
(-3.31841e-16 -11.0397 21.6413)
(-1.92433e-15 -9.16115 18.5978)
(2.00341e-15 -6.76882 15.4754)
(4.78196e-15 -4.69073 12.4333)
(6.82569e-15 -2.57503 9.55135)
(9.32648e-15 -0.688277 6.76748)
(7.7021e-15 0.664447 4.6436)
(2.70507e-15 0.61683 4.26282)
(-4.1252e-16 -1.45357 6.46908)
(-3.53061e-15 -4.50444 9.72325)
(-4.44717e-15 -4.44846 9.20844)
(1.56118e-14 -13.7636 23.9835)
(1.3695e-14 -19.4685 31.2706)
(1.52223e-15 -16.9175 28.6485)
(1.22712e-15 -15.7016 26.1609)
(2.02785e-16 -14.2809 24.4589)
(-1.81719e-16 -12.9404 21.9704)
(1.36267e-15 -10.9708 19.1614)
(2.08579e-15 -9.00769 16.1351)
(5.22602e-15 -6.86003 13.0635)
(7.22341e-15 -4.67191 9.81316)
(7.4398e-15 -2.40835 6.48775)
(5.86155e-15 -0.277397 3.07535)
(1.48585e-15 1.84402 -0.319442)
(-3.03707e-16 2.36491 -1.57462)
(4.12439e-16 0.130987 0.577717)
(1.20838e-14 -8.59711 13.8046)
(1.74369e-14 -17.8281 27.6619)
(9.07122e-15 -18.571 29.2038)
(3.1698e-15 -16.7102 26.0031)
(1.43187e-16 -14.8048 23.1862)
(-4.18823e-17 -13.6402 21.0375)
(1.19092e-15 -12.5203 19.1095)
(1.09548e-15 -11.375 17.0517)
(2.05714e-15 -10.1043 14.8866)
(3.22463e-15 -8.68912 12.5868)
(3.6432e-15 -7.11562 10.1631)
(3.62651e-15 -5.32474 7.6468)
(2.99674e-15 -3.37217 4.8737)
(2.59494e-15 -0.872269 2.14904)
(1.9407e-15 1.29992 -3.44135)
(6.1864e-15 -3.79711 6.60106)
(1.78502e-14 -15.1975 23.6005)
(1.75136e-14 -20.2628 30.1279)
(1.18652e-14 -20.9218 29.3402)
(5.6944e-15 -19.5844 25.8752)
(2.07871e-15 -17.7256 22.1164)
(7.35091e-16 -15.9175 18.9268)
(-1.21658e-16 -14.344 16.3446)
(-1.23073e-16 -12.8211 14.0713)
(2.61419e-16 -11.305 12.1453)
(1.35885e-16 -9.84561 10.4068)
(3.08528e-16 -8.27108 8.66191)
(5.59029e-16 -6.52963 6.84718)
(-6.4352e-17 -4.51126 4.85175)
(2.84166e-15 -1.27589 0.863445)
(-1.06201e-15 18.4179 2.29642)
(-3.59638e-15 5.36165 -1.36961)
(-4.28893e-15 -0.465263 -1.88413)
(-5.17659e-15 0.812316 -1.95147)
(-6.47041e-15 0.715299 -1.90816)
(-6.74179e-15 0.85679 -2.59687)
(-5.42288e-15 0.89601 -1.87606)
(-5.85107e-15 1.13113 -1.88332)
(-6.649e-15 1.19066 -1.88405)
(-6.60555e-15 1.51005 -2.34901)
(-5.02231e-15 1.34156 -1.69926)
(-5.25191e-15 1.52084 -1.64597)
(-6.29257e-15 1.86633 -2.00266)
(-5.05359e-15 1.55018 -1.45111)
(-5.25463e-15 1.77607 -1.44116)
(-5.4798e-15 1.79082 -1.41685)
(-7.09481e-15 2.12341 -1.70666)
(-5.82186e-15 1.77806 -1.26996)
(-5.87195e-15 1.93753 -1.21513)
(-7.83448e-15 2.26958 -1.4319)
(-6.50916e-15 1.78124 -1.07176)
(-6.73803e-15 2.00598 -1.03759)
(-6.52568e-15 1.98089 -0.974198)
(-8.90585e-15 2.30446 -1.09278)
(-7.04072e-15 1.7989 -0.787679)
(-6.95764e-15 2.00212 -0.7176)
(-6.64857e-15 1.95901 -0.635136)
(-9.08918e-15 2.22525 -0.616302)
(-6.49361e-15 1.78955 -0.382188)
(-5.63195e-15 1.87891 -0.301363)
(-7.31819e-15 2.16495 -0.136662)
(-4.6445e-15 1.65752 -0.0296267)
(-4.01008e-15 1.80442 0.0457417)
(-3.33584e-15 1.71789 0.0998843)
(-3.68174e-15 1.91948 0.377442)
(-1.80705e-15 1.506 0.326093)
(-1.10348e-15 1.53298 0.337836)
(-5.9561e-16 1.74761 0.651593)
(1.14307e-16 1.29621 0.492201)
(4.80853e-16 1.38558 0.511876)
(1.03345e-15 1.2732 0.496165)
(2.19573e-15 1.5119 0.763985)
(1.84064e-15 1.18369 0.606798)
(2.06242e-15 1.24947 0.609854)
(2.13544e-15 1.13507 0.575356)
(3.40656e-15 1.34921 0.753905)
(2.39987e-15 1.1556 0.612148)
(2.2903e-15 1.12585 0.576651)
(3.02376e-15 1.30756 0.774538)
(2.50027e-15 1.03916 0.594448)
(2.40933e-15 1.07923 0.608634)
(2.20877e-15 0.979985 0.629924)
(2.90035e-15 1.0595 0.775041)
(2.42619e-15 0.792011 0.499875)
(2.35131e-15 0.804878 0.482331)
(2.55615e-15 0.739166 0.575158)
(3.9942e-15 0.684045 0.114464)
(4.88327e-15 0.437986 -0.483985)
(4.54119e-15 0.412796 -0.419574)
(6.13366e-15 0.585433 -2.44928)
(3.60807e-15 -0.0548767 -2.81741)
(2.31068e-15 0.0545416 -2.57397)
(1.76627e-15 0.375235 -2.23874)
(-1.49842e-15 0.387208 -1.68507)
(-5.65402e-15 -0.735188 0.757504)
(-5.68494e-15 -0.361116 0.512795)
(-8.8918e-15 -1.13265 2.2498)
(-7.63162e-15 -1.7282 2.92316)
(-7.65182e-15 -1.89572 2.83394)
(-7.76813e-15 -1.83445 2.96045)
(-1.07213e-14 -3.13278 5.44741)
(-8.30905e-15 -3.51984 4.99059)
(-8.67162e-15 -3.97405 5.22203)
(-8.82027e-15 -3.87877 5.50342)
(-1.18183e-14 -5.92058 9.01276)
(-8.71765e-15 -6.14341 7.46606)
(-9.17557e-15 -6.21082 8.0718)
(-1.14028e-14 -8.69123 12.2205)
(-8.11952e-15 -8.55482 9.71631)
(-8.2017e-15 -8.98964 10.6069)
(-8.47055e-15 -9.67225 12.2982)
(-7.5176e-15 -9.62864 12.2047)
(-6.77917e-15 -9.71265 12.4893)
(-5.14976e-15 -11.5451 15.432)
(-3.57399e-15 -10.5622 13.5631)
(-2.58422e-15 -10.847 14.0749)
(-1.77229e-15 -10.8353 14.1331)
(-9.28187e-16 -10.9512 14.1879)
(-2.87865e-16 -11.0268 14.2761)
(2.35409e-16 -11.1286 14.4097)
(6.70737e-16 -11.2274 14.6652)
(1.01658e-15 -11.3015 15.0088)
(2.09631e-15 -12.2241 16.9768)
(1.76255e-15 -11.799 15.6542)
(2.06941e-15 -11.9947 15.8541)
(2.21838e-15 -11.9649 15.8816)
(2.34677e-15 -12.1477 16.1518)
(2.45905e-15 -12.1348 16.1111)
(2.59623e-15 -12.2476 16.1634)
(2.7246e-15 -12.301 16.1959)
(2.87616e-15 -12.3707 16.2766)
(3.96882e-15 -12.9865 17.7815)
(3.46581e-15 -12.5999 16.7448)
(3.621e-15 -12.7305 16.9945)
(3.70065e-15 -12.7485 17.1493)
(3.82049e-15 -12.826 17.346)
(3.94772e-15 -12.865 17.5977)
(4.06613e-15 -12.9634 17.8808)
(4.13491e-15 -12.9852 18.0124)
(4.20508e-15 -13.0547 18.2322)
(4.27009e-15 -13.1754 18.461)
(4.96698e-15 -13.1211 19.4652)
(4.00701e-15 -12.9765 18.7822)
(3.99943e-15 -13.0638 19.0524)
(3.95743e-15 -13.0787 19.1279)
(3.98143e-15 -13.1544 19.19)
(4.00752e-15 -13.1741 19.2092)
(4.02434e-15 -13.2469 19.3818)
(4.03081e-15 -13.2277 19.3669)
(4.03736e-15 -13.3683 19.2901)
(4.69562e-15 -12.4261 18.4695)
(3.95815e-15 -12.6017 18.3241)
(4.18514e-15 -12.6001 18.5216)
(4.41557e-15 -12.6224 18.8079)
(4.61229e-15 -12.581 18.8672)
(4.82798e-15 -12.608 19.0436)
(5.03255e-15 -12.6097 19.2327)
(5.2516e-15 -12.5456 19.5003)
(5.5954e-15 -12.8083 20.0424)
(6.05016e-15 -10.5143 17.5826)
(5.84528e-15 -11.3256 18.5901)
(5.90326e-15 -11.2151 18.4267)
(5.86483e-15 -11.1964 18.2763)
(6.09667e-15 -11.1674 18.2845)
(5.97008e-15 -11.0973 17.8299)
(5.74872e-15 -10.9752 17.1909)
(5.6006e-15 -10.8373 16.5406)
(5.52033e-15 -10.8918 15.8387)
(5.2676e-15 -7.75741 11.2374)
(6.37754e-15 -9.0161 14.2118)
(6.36673e-15 -8.6433 13.4932)
(6.53786e-15 -8.63168 13.426)
(6.7111e-15 -8.40155 13.2747)
(7.04887e-15 -8.31001 13.2548)
(8.0162e-15 -8.10737 13.2848)
(7.69689e-15 -7.94448 13.0078)
(7.76264e-15 -7.74991 12.726)
(7.53944e-15 -7.66118 12.1348)
(4.48114e-15 -3.84139 6.02015)
(6.61187e-15 -5.81077 9.64013)
(5.85472e-15 -5.2419 8.01798)
(5.31175e-15 -5.42432 7.28793)
(4.60414e-15 -5.06114 6.04147)
(3.75701e-15 -4.99463 4.63305)
(2.30295e-15 -4.77825 2.31971)
(9.61453e-16 -4.41422 0.232795)
(1.03629e-15 -4.42776 0.329304)
(-5.25034e-16 -3.9612 -1.77463)
(5.77289e-16 -3.94994 -0.285139)
(1.11565e-16 -3.90822 -0.884754)
(-1.18306e-15 -3.00115 -1.90182)
(-7.51397e-16 -4.27799 -1.68651)
(-1.05453e-15 -3.36743 -1.42583)
(-8.3541e-16 -3.00712 -0.953768)
(-1.15331e-15 -3.73037 -1.34799)
(-8.2684e-16 -2.57367 -0.800635)
(-1.24359e-15 -3.23385 -1.19057)
(-8.98562e-16 -2.91522 -0.85185)
(-7.39167e-16 -2.39987 -0.60807)
(-1.0955e-15 -2.83856 -0.896656)
(-9.68309e-16 -2.62367 -0.656831)
(-8.09598e-16 -2.22088 -0.467559)
(-1.09854e-15 -2.92842 -0.672704)
(-8.23844e-16 -1.9944 -0.413557)
(-1.10895e-15 -2.58794 -0.632441)
(-7.85537e-16 -2.3006 -0.491779)
(-7.01318e-16 -1.99071 -0.36115)
(-8.89888e-16 -2.64604 -0.531151)
(-6.06255e-16 -1.78942 -0.339344)
(-9.93912e-16 -2.35221 -0.516053)
(-9.11526e-16 -2.18874 -0.429825)
(-7.83031e-16 -1.78362 -0.319814)
(-1.13761e-15 -2.17206 -0.489396)
(-9.53937e-16 -2.05397 -0.40649)
(-6.68874e-16 -1.72839 -0.300924)
(-9.31105e-16 -2.34613 -0.437036)
(-6.65653e-16 -1.57481 -0.287601)
(-9.76427e-16 -2.08585 -0.431518)
(-6.36652e-16 -1.87899 -0.366943)
(-5.75745e-16 -1.61092 -0.274169)
(-7.77157e-16 -2.18879 -0.395649)
(-5.85407e-16 -1.45418 -0.261985)
(-8.62042e-16 -1.94591 -0.387224)
(-7.23117e-16 -1.81947 -0.341047)
(-5.00401e-16 -1.4637 -0.2553)
(-7.39353e-16 -1.80623 -0.384181)
(-5.94656e-16 -1.70482 -0.331487)
(-3.77043e-16 -1.41972 -0.246292)
(-5.75027e-16 -1.95928 -0.351546)
(-4.48883e-16 -1.28474 -0.23566)
(-7.19812e-16 -1.73173 -0.348495)
(-6.61299e-16 -1.53995 -0.308862)
(-6.65464e-16 -1.30583 -0.233402)
(-8.33839e-16 -1.80299 -0.334563)
(-4.95124e-16 -1.1606 -0.228528)
(-7.81758e-16 -1.58545 -0.338113)
(-6.1929e-16 -1.45406 -0.313017)
(-3.55303e-16 -1.14627 -0.240351)
(-5.70514e-16 -1.43488 -0.36304)
(-5.13251e-16 -1.32533 -0.327948)
(-4.33467e-16 -1.07716 -0.250992)
(-6.29629e-16 -1.52443 -0.356813)
(-6.52613e-16 -0.938897 -0.250897)
(-7.81766e-16 -1.31368 -0.375023)
(-4.66122e-16 -1.11854 -0.345178)
(-2.36411e-16 -0.917057 -0.269285)
(-3.02587e-16 -1.31636 -0.381819)
(-8.67152e-17 -0.762579 -0.273059)
(-1.54254e-16 -1.1132 -0.40892)
(-1.03953e-16 -0.961112 -0.385122)
(-6.47613e-17 -0.697194 -0.305086)
(-2.79135e-17 -0.931928 -0.457285)
(2.65223e-16 -0.795385 -0.417815)
(-1.58849e-16 -0.580587 -0.325582)
(-1.66918e-16 -0.941599 -0.45296)
(-3.11052e-16 -0.414235 -0.3272)
(-3.50428e-16 -0.752101 -0.492777)
(-2.7609e-16 -0.512685 -0.456117)
(-5.25798e-17 -0.333391 -0.354783)
(-6.35116e-17 -0.713987 -0.493391)
(4.76855e-17 -0.108723 -0.357105)
(3.8864e-16 -0.561192 -0.555865)
(8.58747e-16 -0.388456 -0.545673)
(2.07224e-16 0.161152 -0.412183)
(4.7747e-16 -0.377491 -0.688163)
(-5.38716e-17 -0.7474 -0.801173)
(-1.69955e-16 0.713799 -0.501279)
(3.20149e-16 -0.767891 -0.674241)
(4.06703e-16 0.423451 -0.524789)
(1.71212e-16 0.171819 -0.582116)
(2.74498e-36 0.489845 0.565844)
(9.96003e-36 0.575172 0.563741)
(1.19347e-35 0.625617 0.567956)
(-3.74485e-35 0.676254 0.571469)
(-2.58847e-34 0.724487 0.577638)
(-7.08444e-34 0.769821 0.584458)
(-4.89738e-34 0.813545 0.592843)
(4.53841e-33 0.855317 0.602204)
(2.27221e-32 0.895586 0.612759)
(4.92151e-32 0.934327 0.624306)
(-1.35286e-32 0.971685 0.636868)
(-5.19825e-31 1.00769 0.650352)
(-2.01952e-30 1.0424 0.664729)
(-3.46742e-30 1.07586 0.679944)
(4.76621e-30 1.10813 0.695961)
(5.37492e-29 1.13926 0.712746)
(1.84796e-28 1.16934 0.730279)
(2.79247e-28 1.19848 0.748546)
(-5.70798e-28 1.22682 0.767545)
(-5.1837e-27 1.2545 0.787279)
(-1.72779e-26 1.28166 0.807753)
(-2.67418e-26 1.30844 0.828975)
(4.51407e-26 1.33494 0.850945)
(4.5088e-25 1.36126 0.873669)
(1.58323e-24 1.38754 0.897163)
(2.88279e-24 1.41395 0.921472)
(-1.67516e-24 1.44083 0.94669)
(-3.37238e-23 1.46869 0.972969)
(-1.35093e-22 1.49822 1.0005)
(-2.99338e-22 1.53012 1.02947)
(-1.38724e-22 1.5648 1.05997)
(1.95571e-21 1.60233 1.092)
(9.64587e-21 1.64242 1.12539)
(2.56395e-20 1.68441 1.15988)
(3.3665e-20 1.72733 1.19506)
(-5.17041e-20 1.77007 1.23044)
(-4.62683e-19 1.8114 1.26547)
(-1.57049e-18 1.85029 1.29966)
(-3.41863e-18 1.88601 1.33271)
(-4.03984e-18 1.9183 1.36491)
(4.41942e-18 1.94723 1.39774)
(4.21803e-17 1.97276 1.43493)
(1.49382e-16 1.9941 1.48335)
(3.90146e-16 2.0093 1.55291)
(8.46771e-16 2.01569 1.65423)
(1.60045e-15 2.01094 1.79378)
(2.7032e-15 1.99401 1.96849)
(4.15356e-15 1.96529 2.16344)
(5.88757e-15 1.92504 2.35429)
(7.78507e-15 1.87059 2.51301)
(9.69329e-15 1.79746 2.61451)
(1.15064e-14 1.712 2.64782)
(1.32434e-14 1.61722 2.61906)
(1.45407e-14 1.33695 2.43889)
(1.34794e-14 0.384131 1.70795)
(9.93891e-15 -0.845726 0.762483)
(7.96786e-15 -1.54847 0.506214)
(6.02468e-15 -2.03505 0.279128)
(4.05351e-15 -2.52566 0.0547121)
(2.20852e-15 -2.96161 -0.135336)
(7.85496e-16 -3.33416 -0.260189)
(1.4275e-16 -3.69713 -0.319826)
(-2.91223e-18 -4.06094 -0.353804)
(-7.14418e-18 -4.38089 -0.361992)
(-1.31022e-18 -4.64078 -0.366274)
(-2.08587e-21 -4.80241 -0.360092)
(3.79993e-20 -4.85743 -0.357936)
(5.2837e-21 -4.81474 -0.34968)
(-4.36016e-22 -4.65421 -0.352146)
(-1.99702e-22 -4.41538 -0.340674)
(-7.10656e-23 -4.03202 -0.346915)
(1.08153e-22 -3.66827 -0.314056)
(-4.41568e-22 -3.08471 -0.330494)
(2.32753e-21 -2.94654 -0.25379)
(-1.88421e-20 -2.09748 -0.331143)
(2.83047e-19 -2.78832 -0.191358)
(-4.33378e-18 -1.85376 -0.376193)
(3.55736e-17 -2.29019 -0.313164)
(-1.35415e-17 -5.44731 -0.401496)
(8.46165e-36 0.49038 0.601748)
(3.02461e-35 0.574962 0.597677)
(3.05428e-35 0.624472 0.601785)
(-1.422e-34 0.674776 0.604825)
(-8.39033e-34 0.722467 0.610987)
(-2.00052e-33 0.767436 0.617784)
(-4.57506e-35 0.810747 0.626308)
(1.85623e-32 0.852167 0.635846)
(7.27547e-32 0.892084 0.646647)
(1.07593e-31 0.930501 0.658476)
(-2.73202e-31 0.967547 0.671355)
(-2.11168e-30 1.00326 0.685182)
(-5.79525e-30 1.0377 0.699927)
(-3.06846e-30 1.0709 0.715532)
(4.2896e-29 1.10291 0.731968)
(2.04647e-28 1.13379 0.749205)
(4.38731e-28 1.16363 0.76723)
(-9.8189e-29 1.19254 0.78604)
(-4.51115e-27 1.22064 0.805641)
(-1.81849e-26 1.24808 0.82604)
(-3.60226e-26 1.275 0.847245)
(1.16553e-26 1.30154 0.86926)
(3.79067e-25 1.32779 0.892083)
(1.55162e-24 1.35388 0.915719)
(3.40093e-24 1.37989 0.940197)
(1.05399e-24 1.40602 0.965591)
(-2.59442e-23 1.43258 0.992045)
(-1.25159e-22 1.46006 1.01978)
(-3.26776e-22 1.48915 1.04903)
(-3.49179e-22 1.52056 1.07997)
(1.28973e-21 1.55475 1.11264)
(8.60722e-21 1.59182 1.1469)
(2.66839e-20 1.63152 1.1825)
(4.57189e-20 1.67324 1.21903)
(-1.18035e-20 1.71604 1.25597)
(-3.90558e-19 1.75882 1.29273)
(-1.55307e-18 1.80037 1.3287)
(-3.79171e-18 1.83958 1.36345)
(-5.51665e-18 1.8756 1.39707)
(1.06384e-18 1.90783 1.43108)
(3.76879e-17 1.93569 1.46965)
(1.49761e-16 1.9582 1.52105)
(4.12569e-16 1.97355 1.59792)
(9.25234e-16 1.97927 1.71475)
(1.78624e-15 1.97353 1.88177)
(3.05551e-15 1.95658 2.09718)
(4.72123e-15 1.93112 2.3432)
(6.69091e-15 1.90094 2.58937)
(8.81063e-15 1.86808 2.80158)
(1.08974e-14 1.82953 2.95044)
(1.27739e-14 1.77782 3.01571)
(1.43345e-14 1.71405 2.99378)
(1.56224e-14 1.65224 2.90654)
(1.64236e-14 1.47812 2.70873)
(1.48626e-14 0.675731 1.97221)
(9.61874e-15 -0.75802 0.606401)
(7.87287e-15 -1.52713 0.467657)
(6.00129e-15 -2.01199 0.259372)
(4.04934e-15 -2.50897 0.0398128)
(2.21608e-15 -2.95462 -0.14125)
(7.94037e-16 -3.34058 -0.262813)
(1.45643e-16 -3.71232 -0.319273)
(-2.99947e-18 -4.07832 -0.34956)
(-7.41958e-18 -4.39758 -0.355701)
(-1.36739e-18 -4.65489 -0.357927)
(-1.1169e-21 -4.81228 -0.350755)
(4.01719e-20 -4.86334 -0.348571)
(5.60841e-21 -4.81559 -0.340666)
(-4.54502e-22 -4.65164 -0.344167)
(-2.12983e-22 -4.40874 -0.334091)
(-7.20595e-23 -4.02471 -0.341639)
(1.08065e-22 -3.65659 -0.310612)
(-4.4207e-22 -3.07471 -0.32773)
(2.35104e-21 -2.92667 -0.253067)
(-1.94474e-20 -2.07895 -0.32841)
(2.91589e-19 -2.75892 -0.191669)
(-4.43272e-18 -1.80966 -0.371212)
(3.51885e-17 -2.2544 -0.312262)
(-1.52317e-17 -5.3973 -0.399273)
(1.91463e-35 0.490812 0.62101)
(6.12104e-35 0.575016 0.616168)
(3.5632e-35 0.623982 0.620193)
(-3.92385e-34 0.674117 0.623008)
(-1.82738e-33 0.721523 0.629173)
(-3.37338e-33 0.766312 0.635973)
(4.26177e-33 0.809419 0.644584)
(4.82034e-32 0.850671 0.654229)
(1.42445e-31 0.890419 0.665174)
(7.69961e-32 0.928685 0.677166)
(-1.09423e-30 0.965585 0.690228)
(-5.00722e-30 1.00116 0.704253)
(-8.95022e-30 1.03547 0.71921)
(1.3281e-29 1.06854 0.735044)
(1.39524e-28 1.10044 0.751726)
(4.34947e-28 1.1312 0.76923)
(4.44183e-28 1.16093 0.787548)
(-2.26163e-27 1.18971 0.806683)
(-1.3477e-26 1.21769 0.826643)
(-3.54549e-26 1.24501 0.847439)
(-2.67041e-26 1.2718 0.869078)
(2.0627e-25 1.29821 0.891561)
(1.12474e-24 1.32435 0.914884)
(3.03547e-24 1.3503 0.939053)
(3.27127e-24 1.37618 0.964104)
(-1.25588e-23 1.40215 0.990133)
(-8.48132e-23 1.42851 1.01732)
(-2.66492e-22 1.45575 1.04592)
(-4.39792e-22 1.48458 1.07619)
(3.71219e-22 1.51571 1.1083)
(5.41167e-21 1.54965 1.14222)
(2.05595e-20 1.58651 1.17776)
(4.48876e-20 1.62607 1.21459)
(3.00125e-20 1.66772 1.25224)
(-2.14776e-19 1.71056 1.29013)
(-1.12551e-18 1.75348 1.32758)
(-3.20088e-18 1.79523 1.36396)
(-5.74342e-18 1.83464 1.39905)
(-3.18208e-18 1.87057 1.43373)
(2.22622e-17 1.90194 1.47143)
(1.1094e-16 1.9274 1.51979)
(3.34397e-16 1.94516 1.5916)
(7.93011e-16 1.95302 1.70308)
(1.59389e-15 1.94935 1.86807)
(2.81097e-15 1.93465 2.08937)
(4.44557e-15 1.9123 2.35247)
(6.41167e-15 1.88741 2.62719)
(8.555e-15 1.86421 2.87725)
(1.06919e-14 1.84333 3.07099)
(1.26445e-14 1.81962 3.18664)
(1.42625e-14 1.78328 3.21164)
(1.54565e-14 1.7317 3.14594)
(1.62586e-14 1.67858 3.01541)
(1.66111e-14 1.54553 2.81682)
(1.51959e-14 0.878787 2.18845)
(9.76034e-15 -0.539533 0.565705)
(7.63217e-15 -1.47423 0.355583)
(5.98135e-15 -1.95168 0.233932)
(4.04659e-15 -2.4497 0.0141915)
(2.22761e-15 -2.90683 -0.154444)
(8.05729e-16 -3.30715 -0.269916)
(1.49483e-16 -3.69027 -0.321099)
(-3.10278e-18 -4.0635 -0.344877)
(-7.76817e-18 -4.38788 -0.346999)
(-1.43949e-18 -4.64881 -0.345856)
(5.12159e-23 -4.80884 -0.336599)
(4.28699e-20 -4.86216 -0.334178)
(6.01024e-21 -4.8158 -0.326641)
(-4.77287e-22 -4.654 -0.331552)
(-2.29481e-22 -4.41239 -0.323631)
(-7.33441e-23 -4.03227 -0.333145)
(1.0799e-22 -3.6647 -0.304914)
(-4.42748e-22 -3.08942 -0.323362)
(2.38043e-21 -2.93628 -0.251255)
(-2.01758e-20 -2.0988 -0.325313)
(3.01884e-19 -2.76575 -0.190888)
(-4.54865e-18 -1.81163 -0.366572)
(3.47238e-17 -2.26674 -0.312101)
(-1.43417e-17 -5.35678 -0.402071)
(3.89814e-35 0.491477 0.64381)
(1.04546e-34 0.575068 0.638242)
(-9.14981e-36 0.623249 0.642204)
(-9.24033e-34 0.673106 0.644823)
(-3.31822e-33 0.720075 0.651021)
(-3.65311e-33 0.764579 0.657864)
(1.80799e-32 0.807367 0.666605)
(1.02416e-31 0.848352 0.676409)
(2.03125e-31 0.887835 0.687555)
(-2.61884e-31 0.925861 0.69977)
(-3.06007e-30 0.962531 0.713078)
(-9.21528e-30 0.997895 0.727366)
(-5.27149e-30 1.032 0.742603)
(7.13437e-29 1.06488 0.758733)
(3.3749e-28 1.09658 0.77573)
(6.63994e-28 1.12716 0.793572)
(-5.50958e-28 1.1567 0.812256)
(-8.55473e-27 1.1853 0.831792)
(-3.01683e-26 1.21309 0.852193)
(-4.68007e-26 1.24022 0.873475)
(7.75461e-26 1.26682 0.895643)
(7.48679e-25 1.29304 0.918696)
(2.51284e-24 1.31899 0.942628)
(4.23772e-24 1.34474 0.967445)
(-3.65925e-24 1.37041 0.993191)
(-5.34517e-23 1.39614 1.01998)
(-2.04899e-22 1.42221 1.04803)
(-4.42788e-22 1.4491 1.07765)
(-1.81429e-22 1.47753 1.10913)
(3.02486e-21 1.50825 1.14262)
(1.48847e-20 1.5418 1.17805)
(3.99226e-20 1.57833 1.21515)
(5.2568e-20 1.61765 1.25352)
(-8.64619e-20 1.65919 1.2926)
(-7.62098e-19 1.70206 1.33169)
(-2.58416e-18 1.74514 1.37003)
(-5.53874e-18 1.78715 1.40705)
(-5.96271e-18 1.82669 1.44307)
(1.02691e-17 1.86215 1.4806)
(7.85843e-17 1.8916 1.52642)
(2.66787e-16 1.91263 1.59312)
(6.7699e-16 1.92259 1.69847)
(1.42709e-15 1.91951 1.86023)
(2.60934e-15 1.90368 2.08669)
(4.24286e-15 1.87902 2.36783)
(6.24931e-15 1.85231 2.67422)
(8.46863e-15 1.8304 2.96619)
(1.07027e-14 1.81709 3.2071)
(1.27601e-14 1.81122 3.37193)
(1.4482e-14 1.80577 3.44766)
(1.57494e-14 1.78901 3.42854)
(1.64891e-14 1.75455 3.31687)
(1.67051e-14 1.71596 3.13936)
(1.64084e-14 1.63322 2.92175)
(1.49333e-14 1.11391 2.39319)
(1.02918e-14 -0.368414 0.684463)
(7.34073e-15 -1.44003 0.178808)
(5.94505e-15 -1.92264 0.194026)
(4.05224e-15 -2.41048 -0.0195769)
(2.24369e-15 -2.87782 -0.176681)
(8.19839e-16 -3.28894 -0.282165)
(1.53931e-16 -3.68123 -0.325789)
(-3.20675e-18 -4.05919 -0.340338)
(-8.14684e-18 -4.38621 -0.336165)
(-1.5167e-18 -4.64862 -0.330365)
(1.27716e-21 -4.80894 -0.317867)
(4.56742e-20 -4.86258 -0.314873)
(6.42337e-21 -4.81577 -0.307722)
(-5.0071e-22 -4.65443 -0.314281)
(-2.46505e-22 -4.41269 -0.309188)
(-7.47302e-23 -4.03486 -0.321309)
(1.07953e-22 -3.66681 -0.296713)
(-4.43532e-22 -3.09613 -0.317393)
(2.41145e-21 -2.93819 -0.248184)
(-2.09149e-20 -2.10728 -0.322304)
(3.12351e-19 -2.76474 -0.189188)
(-4.66081e-18 -1.80322 -0.362841)
(3.4252e-17 -2.26742 -0.305793)
(-1.40183e-17 -5.30812 -0.396091)
(6.64943e-35 0.492165 0.665617)
(1.34809e-34 0.575207 0.659583)
(-1.75792e-34 0.622669 0.663492)
(-1.72165e-33 0.672268 0.665982)
(-4.32336e-33 0.718841 0.672233)
(1.39818e-33 0.76309 0.67915)
(4.83501e-32 0.805595 0.68804)
(1.62009e-31 0.846346 0.698024)
(9.17362e-32 0.885599 0.709386)
(-1.39633e-30 0.923417 0.72184)
(-6.46068e-30 0.95989 0.735407)
(-1.07158e-29 0.99507 0.749972)
(2.52857e-29 1.02899 0.765501)
(2.13895e-28 1.06171 0.781939)
(6.1346e-28 1.09324 0.799261)
(3.71344e-28 1.12366 0.817452)
(-4.49362e-27 1.15304 0.836513)
(-2.21796e-26 1.18147 0.85646)
(-4.99357e-26 1.20909 0.877313)
(-3.70823e-27 1.23604 0.899089)
(4.39239e-25 1.26248 0.921796)
(1.90062e-24 1.28852 0.945428)
(4.25138e-24 1.3143 0.969978)
(1.65892e-24 1.33988 0.995448)
(-3.00691e-23 1.36535 1.02189)
(-1.47244e-22 1.39085 1.04944)
(-3.90932e-22 1.41663 1.07835)
(-4.56618e-22 1.44317 1.10898)
(1.3612e-21 1.4712 1.14167)
(9.97108e-21 1.50153 1.17655)
(3.2485e-20 1.53473 1.21349)
(5.97959e-20 1.57098 1.25218)
(-9.36841e-22 1.61013 1.29211)
(-4.6474e-19 1.65162 1.33261)
(-1.96247e-18 1.6946 1.37287)
(-4.9523e-18 1.73792 1.41208)
(-7.37234e-18 1.78015 1.45)
(1.43406e-18 1.81946 1.48822)
(5.15887e-17 1.85344 1.53228)
(2.05736e-16 1.87899 1.59392)
(5.65355e-16 1.89256 1.69162)
(1.25701e-15 1.89129 1.84641)
(2.39136e-15 1.87487 2.07233)
(4.00813e-15 1.84717 2.36513)
(6.04015e-15 1.81622 2.69775)
(8.32318e-15 1.79134 3.02786)
(1.06439e-14 1.77912 3.31326)
(1.27932e-14 1.78101 3.52404)
(1.45997e-14 1.79304 3.64557)
(1.59387e-14 1.80632 3.67387)
(1.67272e-14 1.808 3.60867)
(1.6914e-14 1.78878 3.45286)
(1.64812e-14 1.7582 3.23007)
(1.54446e-14 1.70143 2.9859)
(1.36912e-14 1.30976 2.5546)
(1.05036e-14 -0.134708 1.01871)
(7.29181e-15 -1.38523 -0.0104016)
(5.85637e-15 -1.91314 0.118338)
(4.06973e-15 -2.37865 -0.0588554)
(2.26681e-15 -2.85583 -0.209138)
(8.37306e-16 -3.27787 -0.301244)
(1.59095e-16 -3.67928 -0.334457)
(-3.32471e-18 -4.0613 -0.336943)
(-8.55416e-18 -4.38975 -0.32378)
(-1.59682e-18 -4.65249 -0.311685)
(2.61422e-21 -4.8116 -0.294613)
(4.84437e-20 -4.86429 -0.290413)
(6.8216e-21 -4.81577 -0.283611)
(-5.23438e-22 -4.65381 -0.291951)
(-2.62945e-22 -4.41101 -0.290346)
(-7.61304e-23 -4.03478 -0.305739)
(1.0796e-22 -3.66553 -0.285626)
(-4.44398e-22 -3.09898 -0.309481)
(2.44292e-21 -2.93562 -0.243585)
(-2.16347e-20 -2.1104 -0.319058)
(3.22587e-19 -2.75873 -0.186383)
(-4.76277e-18 -1.78813 -0.35993)
(3.3807e-17 -2.26208 -0.295619)
(-1.46272e-17 -5.27359 -0.394947)
(8.09436e-35 0.492934 0.687511)
(8.45984e-35 0.575358 0.681177)
(-4.66707e-34 0.622052 0.685054)
(-2.00413e-33 0.671356 0.687477)
(-1.22569e-33 0.717493 0.693806)
(1.92339e-32 0.761456 0.700834)
(8.77333e-32 0.803648 0.709899)
(1.1265e-31 0.844141 0.720093)
(-6.07048e-31 0.883139 0.731698)
(-3.88096e-30 0.920729 0.74442)
(-9.261e-30 0.956984 0.758274)
(4.89221e-30 0.991961 0.773143)
(1.22548e-28 1.02569 0.788991)
(4.63157e-28 1.05822 0.805764)
(6.67374e-28 1.08958 0.823439)
(-1.9103e-27 1.11981 0.842004)
(-1.4659e-26 1.14901 0.861469)
(-4.31799e-26 1.17725 0.881854)
(-4.32008e-26 1.20468 0.903185)
(2.18017e-25 1.23144 0.925485)
(1.32152e-24 1.25768 0.94876)
(3.70384e-24 1.28354 0.973004)
(4.27311e-24 1.30912 0.998202)
(-1.39573e-23 1.3345 1.02436)
(-9.87549e-23 1.35976 1.05153)
(-3.15768e-22 1.385 1.07986)
(-5.46302e-22 1.41046 1.10966)
(3.05955e-22 1.4366 1.14133)
(6.09492e-21 1.46418 1.17526)
(2.44963e-20 1.49406 1.2116)
(5.69989e-20 1.52686 1.25013)
(4.90152e-20 1.5628 1.29047)
(-2.38365e-19 1.60177 1.33204)
(-1.39095e-18 1.64324 1.37401)
(-4.14842e-18 1.68638 1.41546)
(-7.72004e-18 1.72993 1.45573)
(-4.61073e-18 1.77214 1.4955)
(2.98546e-17 1.81045 1.53895)
(1.52038e-16 1.84122 1.59645)
(4.60564e-16 1.85993 1.68617)
(1.08835e-15 1.86232 1.8315)
(2.16418e-15 1.84664 2.05198)
(3.75168e-15 1.81598 2.35028)
(5.80008e-15 1.77887 2.70373)
(8.14402e-15 1.74685 3.06887)
(1.05539e-14 1.72973 3.39774)
(1.28003e-14 1.73187 3.65414)
(1.46954e-14 1.7515 3.81978)
(1.6104e-14 1.7822 3.89068)
(1.69381e-14 1.81404 3.86981)
(1.71474e-14 1.83392 3.76028)
(1.67102e-14 1.83054 3.56456)
(1.56138e-14 1.80873 3.30107)
(1.385e-14 1.76913 3.02346)
(1.15755e-14 1.47801 2.65439)
(9.44959e-15 0.178701 1.40719)
(7.72038e-15 -1.2804 -0.153199)
(5.72779e-15 -1.91254 -0.0102559)
(4.08282e-15 -2.34922 -0.106908)
(2.29968e-15 -2.83217 -0.2509)
(8.60339e-16 -3.26626 -0.328656)
(1.65355e-16 -3.67713 -0.348404)
(-3.49701e-18 -4.06339 -0.335881)
(-9.00497e-18 -4.39313 -0.310807)
(-1.67939e-18 -4.65613 -0.290427)
(4.2331e-21 -4.81392 -0.267354)