/*--------------------------------*- C++ -*----------------------------------*\
| =========                 |                                                 |
| \\      /  F ield         | OpenFOAM: The Open Source CFD Toolbox           |
|  \\    /   O peration     | Version:  4.1                                   |
|   \\  /    A nd           | Web:      www.OpenFOAM.org                      |
|    \\/     M anipulation  |                                                 |
\*---------------------------------------------------------------------------*/
FoamFile
{
    version     2.0;
    format      ascii;
    class       volScalarField;
    location    "10";
    object      p;
}
// * * * * * * * * * * * * * * * * * * * * * * * * * * * * * * * * * * * * * //

dimensions      [0 2 -2 0 0 0 0];

internalField   nonuniform List<scalar> 
6785
(
622.858
556.429
505.461
455.474
409.215
365.741
324.92
286.491
250.293
215.855
182.724
152.201
124.397
90.8531
56.5832
73.8747
56.1089
59.816
55.0763
51.9243
48.5587
45.6503
43.3682
41.9124
41.4082
41.7855
43.258
46.649
50.6565
51.9965
30.655
25.0781
34.9997
33.8639
37.3452
39.4265
41.793
43.945
45.9429
47.7714
49.3567
50.5279
51.3482
52.5608
54.3996
85.3275
83.4159
88.6005
85.0202
86.1199
84.9407
84.3808
83.6473
83.0423
82.5441
82.1498
81.757
81.2113
81.0333
82.6491
91.4552
89.8422
92.9139
90.0548
91.9871
91.4351
92.1315
92.5605
93.2161
93.8396
94.3649
94.7321
94.9669
95.2923
96.0242
84.4042
82.5515
84.7128
82.3661
84.1876
83.3324
83.9535
83.91
84.0562
83.954
83.7328
83.3238
82.4949
81.5376
80.8935
72.1031
70.2339
71.3183
68.8477
69.6324
67.8856
67.537
66.4049
65.4965
64.4864
63.6479
62.9201
61.9631
61.2608
61.4193
61.6258
60.4658
61.4014
59.3347
60.0508
58.5613
58.3429
57.5153
56.8988
56.3198
55.9632
55.8639
55.9106
56.2575
57.2995
62.0963
62.1457
63.3527
62.1791
63.3048
62.7229
63.1214
63.1415
63.2839
63.4656
63.7321
64.0666
64.5507
65.0165
66.0619
69.733
70.6629
71.9178
71.4508
72.729
72.7153
73.4359
73.8895
74.4181
74.9669
75.545
76.1043
76.7501
77.2577
78.0212
78.9405
80.2256
81.2572
81.0242
82.1716
82.2559
82.9159
83.354
83.8407
84.3383
84.8548
85.3471
85.922
86.3553
87.0189
87.1361
88.5718
89.3517
89.2258
90.2068
90.2991
90.8842
91.2693
91.7144
92.1675
92.6472
93.1226
93.6862
94.113
94.8155
100.602
101.59
101.828
101.593
102.137
101.824
101.958
101.816
101.738
101.69
101.744
101.948
102.333
102.663
103.147
105.117
106.172
105.046
103.617
102.936
101.996
101.863
101.728
101.954
102.18
102.491
102.801
102.977
102.993
102.872
133.927
130.904
124.737
119.174
115.42
111.352
108.145
105.573
103.028
100.395
97.7033
95.6478
94.4741
93.9407
93.3738
113.714
113.679
113.716
113.711
113.712
113.68
113.714
113.695
113.708
113.674
113.711
113.647
113.74
113.694
113.652
113.677
113.67
113.724
113.618
113.804
113.727
113.663
113.7
113.768
113.787
113.712
113.761
113.82
113.894
113.747
114.022
113.957
113.859
113.934
114.02
114.119
113.966
114.281
114.229
114.148
114.233
114.396
114.444
114.393
114.498
114.636
114.747
114.647
115.009
114.912
114.907
115.078
115.264
115.435
115.491
115.731
115.859
116.38
116.496
116.535
117.38
117.424
117.623
117.528
118.335
118.443
119.009
119.61
119.231
120.439
120.895
117.969
116.746
119.333
118.753
108.169
114.882
113.193
87.7556
98.5934
106.055
106.631
108.891
103.6
104.924
109.039
109.569
110.685
111.598
111.813
111.414
112.754
115.715
107.099
107.211
106.169
105.689
105.382
104.657
103.521
104.952
110.441
99.9793
99.6532
97.9955
97.5651
98.398
98.0763
96.5918
95.2588
95.1918
102.587
94.8359
93.8826
92.2525
90.5256
90.6956
91.5622
90.257
87.7333
89.9566
90.7462
91.8718
91.3714
89.1243
87.0115
85.2876
85.272
83.4014
89.2873
90.6733
87.2682
86.6252
85.3984
83.1839
81.3667
78.3358
74.0076
81.7508
87.8454
83.5534
81.2136
78.1443
75.5249
73.1777
71.1241
68.4311
65.9067
65.6236
73.7594
69.7284
68.5188
67.0969
64.5241
59.5039
58.4197
60.7114
50.8352
64.5988
61.8893
59.6908
64.2356
63.3908
64.7629
65.0782
65.6714
66.0074
65.5294
65.6709
65.5487
64.772
64.3184
63.7121
63.0843
62.244
61.6848
60.5365
59.2018
58.5313
57.1884
57.2268
55.5943
53.2699
54.2196
52.2615
50.0584
49.7771
48.102
49.9353
47.5995
45.1513
45.3602
43.8323
46.5365
44.7189
41.5092
45.2047
43.7563
41.4094
42.4047
41.429
44.5699
43.433
41.6903
42.8772
42.4026
44.9204
44.8286
43.65
46.0227
46.55
46.1136
47.2345
47.2897
49.0911
49.7177
49.4707
50.7222
50.6641
51.3806
53.747
55.1103
53.1856
54.3416
49.5534
56.5474
62.8098
46.48
45.7501
32.0527
49.5115
64.0501
-3.82778
32.6524
70.1766
-30.7368
-34.6008
-87.3357
-59.1398
100.688
-0.00295764
-0.000947383
0.00228644
0.00271813
0.00230393
-0.000220004
-0.00578613
-0.0171599
-0.0322927
-0.0383649
-0.0337818
-0.0257303
-0.0123228
0.00797065
0.0272189
0.0398694
0.0473314
0.0523923
0.059839
0.0735099
0.0817186
0.0891578
0.111975
0.0727569
-0.0145207
-0.0494885
0.0100765
0.0709183
0.0660769
0.0153503
-0.0164953
-0.0129824
0.0151395
0.0423064
0.0551687
0.0575599
0.0645357
0.0625363
0.0583165
0.061807
0.0604694
0.0581835
0.0553237
0.0399328
0.0195024
0.00707591
0.00991233
0.0194817
0.0254196
0.0270239
0.0273341
0.0268465
0.0258571
0.0249743
0.0256142
0.0293847
0.0384392
0.0474519
0.0435004
0.00952849
-0.0523639
-0.129091
-0.187974
-0.226482
-0.22588
-0.182873
-0.114767
-0.0066593
0.193307
0.459763
0.890338
1.54039
1.96727
1.79732
1.33017
1.16766
3.09533
7.62891
11.3271
-0.0103614
-0.0082834
0.000272087
0.00494002
0.00697164
0.00163456
-0.0150308
-0.054262
-0.113594
-0.14648
-0.119556
-0.0492246
0.0240953
0.0741178
0.108057
0.132784
0.153642
0.176261
0.200671
0.22697
0.252241
0.258457
0.260443
0.209058
0.0823415
-0.00728613
0.0483096
0.0911461
0.0731598
0.0675593
0.0847898
0.0935224
0.102712
0.114504
0.126331
0.131537
0.138736
0.142378
0.140622
0.136769
0.135871
0.13455
0.134633
0.116765
0.097242
0.0896917
0.0923222
0.0922867
0.0891425
0.0865965
0.0850993
0.083655
0.0837537
0.0866525
0.094334
0.106318
0.124449
0.141439
0.156849
0.169365
0.199179
0.230528
0.260807
0.215537
0.133877
0.0769439
0.106196
0.348239
1.04658
1.98633
3.20545
4.54666
4.76184
3.06945
2.67672
1.77366
1.9195
-0.873088
19.7066
-0.0171877
-0.0130047
0.000963349
0.00767529
0.0102197
0.0009673
-0.0264495
-0.0852911
-0.168919
-0.218099
-0.188132
-0.0935081
0.0256314
0.120299
0.186613
0.232141
0.266631
0.30247
0.346261
0.39827
0.450528
0.48204
0.507838
0.405083
0.154695
-0.0159118
0.068308
0.161576
0.147699
0.133306
0.163459
0.189975
0.212568
0.231125
0.247422
0.257146
0.273506
0.279554
0.282585
0.283224
0.285074
0.282793
0.282655
0.264416
0.241949
0.225739
0.222307
0.2213
0.220734
0.221132
0.222592
0.22434
0.228699
0.236974
0.251141
0.26843
0.290837
0.307026
0.319483
0.322137
0.337368
0.326967
0.295629
0.146404
-0.0314337
-0.112053
0.017475
0.610119
2.07857
3.88423
5.99396
8.23456
8.56041
5.6201
4.45006
3.40573
4.28581
1.44238
40.4343
-0.0244237
-0.019451
-0.000893041
0.0079216
0.0113527
-0.000118784
-0.0344786
-0.106941
-0.208854
-0.272814
-0.240784
-0.122624
0.0406275
0.174462
0.267149
0.331233
0.380084
0.429979
0.489558
0.559352
0.631609
0.666238
0.681089
0.555747
0.263438
0.0448969
0.118792
0.21817
0.199105
0.199517
0.258687
0.296138
0.313858
0.324597
0.341135
0.353761
0.374355
0.383378
0.388444
0.384648
0.385993
0.381252
0.37915
0.35502
0.330101
0.316272
0.31419
0.308246
0.302568
0.300162
0.30004
0.300477
0.304858
0.314826
0.332242
0.351225
0.372934
0.383237
0.394295
0.40828
0.457024
0.470205
0.436024
0.211723
-0.0678693
-0.207979
-0.0265288
0.850943
2.98107
5.50247
8.33646
11.2981
11.6378
7.60722
6.12531
5.3832
8.47446
9.78006
53.4339
-0.0309644
-0.0251202
-0.00269982
0.00737689
0.0110532
-0.00240639
-0.0413198
-0.120761
-0.231457
-0.305894
-0.277981
-0.148923
0.0524837
0.227879
0.348842
0.432229
0.495015
0.557631
0.632452
0.720508
0.813948
0.858063
0.873662
0.720259
0.373969
0.108756
0.167615
0.273146
0.250395
0.262225
0.349086
0.404014
0.424252
0.429725
0.445205
0.460382
0.486905
0.498304
0.508626
0.506504
0.510898
0.506179
0.505033
0.482275
0.458729
0.439882
0.428771
0.416293
0.408679
0.404624
0.402009
0.399289
0.400822
0.408428
0.423382
0.435825
0.446068
0.438231
0.435906
0.448644
0.51217
0.518575
0.44426
0.10892
-0.296664
-0.500899
-0.250388
0.971897
3.87121
7.1765
10.729
14.3646
14.8111
9.95948
8.17228
7.42224
12.1649
15.4815
53.0682
-0.0377032
-0.0313624
-0.00536344
0.00589357
0.00995701
-0.0046125
-0.0460243
-0.128123
-0.240947
-0.320612
-0.297415
-0.164797
0.0678866
0.284045
0.432405
0.534847
0.61173
0.686612
0.774614
0.877764
0.989014
1.03526
1.04087
0.869041
0.50117
0.202389
0.231094
0.326055
0.294455
0.320068
0.43608
0.509081
0.529808
0.527658
0.54114
0.558086
0.588947
0.602193
0.615798
0.611072
0.61583
0.608643
0.605721
0.578655
0.551877
0.530912
0.519158
0.503979
0.492555
0.484338
0.47768
0.470446
0.467897
0.471963
0.482573
0.484572
0.477149
0.444575
0.426753
0.444862
0.535809
0.546479
0.436045
-0.0172632
-0.562959
-0.845666
-0.539857
1.03001
4.70043
8.72946
12.9086
17.1579
17.7635
12.3323
10.4134
9.77284
15.7442
20.1969
56.582
-0.0442018
-0.0375598
-0.00837896
0.00385325
0.00827144
-0.00680726
-0.0489847
-0.130146
-0.239586
-0.3194
-0.30045
-0.170901
0.0851279
0.342122
0.518023
0.639393
0.730098
0.81646
0.916272
1.03295
1.16057
1.2101
1.20837
1.02064
0.633086
0.304852
0.297561
0.374557
0.332362
0.370386
0.515814
0.610627
0.635239
0.62683
0.637654
0.656113
0.691427
0.70631
0.724913
0.720569
0.728341
0.721493
0.719323
0.691918
0.666101
0.642764
0.623987
0.60121
0.584805
0.571668
0.559076
0.544804
0.535149
0.532021
0.533052
0.516361
0.480471
0.412644
0.374077
0.398385
0.51682
0.524228
0.362017
-0.232671
-0.94302
-1.32275
-0.97359
0.965116
5.46895
10.2424
15.0319
19.8684
20.6793
14.9488
12.9795
12.5459
19.6303
24.6674
56.4575
-0.0507638
-0.0440542
-0.0118548
0.0014139
0.00640569
-0.00848996
-0.0500319
-0.127741
-0.229869
-0.305114
-0.287879
-0.165078
0.105666
0.402532
0.605991
0.746027
0.850375
0.947612
1.05757
1.18565
1.32677
1.37769
1.36434
1.16491
0.770439
0.419554
0.37039
0.421027
0.365728
0.413853
0.587669
0.704918
0.734793
0.721351
0.729797
0.749604
0.788698
0.804882
0.82744
0.821707
0.830777
0.822363
0.819532
0.789918
0.761606
0.733705
0.711566
0.685593
0.664845
0.645846
0.626594
0.604553
0.58699
0.575451
0.563801
0.521814
0.448391
0.337693
0.277911
0.314806
0.466428
0.469812
0.246833
-0.507789
-1.40442
-1.90037
-1.52583
0.793946
6.17337
11.6696
17.0222
22.4141
23.4993
17.7347
15.7988
15.6971
23.6438
29.0611
56.4546
-0.0572639
-0.0507215
-0.0156975
-0.00130077
0.00448647
-0.00958788
-0.0493033
-0.121695
-0.213837
-0.280717
-0.261933
-0.146892
0.130138
0.465085
0.696494
0.854874
0.972547
1.08005
1.19866
1.33637
1.4884
1.5413
1.51596
1.30774
0.908437
0.538758
0.445608
0.464795
0.39483
0.450344
0.651157
0.791124
0.828629
0.812265
0.819035
0.840483
0.883239
0.900892
0.92804
0.922587
0.934798
0.926862
0.924403
0.893225
0.864551
0.834835
0.808023
0.775003
0.747481
0.721172
0.693333
0.661288
0.633406
0.6104
0.580609
0.50395
0.381651
0.219787
0.138915
0.19414
0.381543
0.37593
0.0781217
-0.86021
-1.96893
-2.60659
-2.23223
0.480212
6.79539
13.0159
18.9166
24.8481
26.2656
20.7205
18.911
19.1865
27.687
33.5513
54.2816
-0.0636922
-0.0575737
-0.0199042
-0.00417591
0.00269977
-0.00994056
-0.046838
-0.112583
-0.193066
-0.248736
-0.22494
-0.116214
0.159755
0.529642
0.789692
0.966083
1.09674
1.214
1.33979
1.48529
1.6452
1.69978
1.66033
1.44519
1.04568
0.661507
0.523715
0.507348
0.421343
0.480912
0.705691
0.867444
0.914255
0.897092
0.903499
0.927142
0.973327
0.992782
1.02378
1.0181
1.03244
1.02414
1.02191
0.989395
0.958648
0.924474
0.892784
0.855225
0.822211
0.788178
0.751161
0.708401
0.669286
0.632951
0.579979
0.459193
0.277143
0.0579961
-0.041047
0.0395632
0.265275
0.245697
-0.141362
-1.28742
-2.63383
-3.44211
-3.10078
0.016092
7.3326
14.2775
20.699
27.1389
28.9545
23.8495
22.2794
22.9651
31.6222
37.0997
50.2662
-0.0698976
-0.0644736
-0.0244313
-0.00715762
0.00112841
-0.00951248
-0.0427543
-0.100891
-0.168738
-0.211288
-0.179342
-0.073836
0.195631
0.596021
0.885616
1.07977
1.223
1.34956
1.48123
1.63273
1.79751
1.85355
1.79967
1.57875
1.18049
0.784724
0.603354
0.549214
0.446499
0.506441
0.750832
0.93303
0.990846
0.975134
0.982807
1.00959
1.05935
1.08133
1.11616
1.11151
1.12916
1.12164
1.11967
1.08514
1.05313
1.01709
0.981754
0.937944
0.897231
0.853806
0.805848
0.750491
0.698166
0.645362
0.562414
0.38626
0.13288
-0.148398
-0.261448
-0.14903
0.115626
0.0751978
-0.417615
-1.79712
-3.40858
-4.42358
-4.1606
-0.629932
7.76699
15.4416
22.3666
29.3025
31.5655
27.0792
25.8474
26.9406
35.3603
39.9238
48.9408
-0.0756494
-0.0711752
-0.0291684
-0.0101942
-0.000129477
-0.00823972
-0.0371227
-0.08696
-0.141659
-0.169943
-0.127302
-0.0210013
0.238743
0.664226
0.984184
1.19603
1.35143
1.48692
1.6233
1.77899
1.94558
2.00212
1.93343
1.70666
1.31206
0.906948
0.684193
0.591712
0.472017
0.528476
0.786809
0.98701
1.05709
1.04503
1.05582
1.08695
1.1406
1.16591
1.20409
1.20064
1.22108
1.21435
1.21292
1.17682
1.14329
1.10353
1.06352
1.01402
0.966495
0.913398
0.853806
0.785004
0.718288
0.64611
0.525879
0.282473
-0.0532349
-0.399183
-0.520682
-0.370826
-0.0682618
-0.13759
-0.753235
-2.39208
-4.29681
-5.56178
-5.4358
-1.48131
8.0909
16.5041
23.9063
31.3334
34.0741
30.3475
29.5302
31.0118
38.9255
42.4873
47.322
-0.0805871
-0.0772891
-0.0338986
-0.0132232
-0.00101495
-0.0060792
-0.030001
-0.0710329
-0.112359
-0.125779
-0.0705937
0.0407815
0.289761
0.734429
1.08524
1.31496
1.4821
1.62622
1.76637
1.92448
2.08985
2.14562
2.06228
1.82961
1.43974
1.02628
0.765507
0.635893
0.499427
0.548654
0.8146
1.02941
1.11236
1.10605
1.12183
1.15877
1.21698
1.24666
1.2881
1.287
1.31089
1.30553
1.30437
1.26644
1.23208
1.18926
1.14629
1.0907
1.03486
0.970516
0.897708
0.813813
0.730826
0.635322
0.469108
0.14543
-0.283044
-0.694199
-0.818064
-0.626824
-0.289524
-0.396765
-1.15223
-3.0766
-5.30463
-6.87227
-6.95834
-2.5716
8.28382
17.451
25.3099
33.2317
36.4621
33.606
33.2494
35.0805
42.2289
44.367
45.5195
-0.084282
-0.0823308
-0.0382672
-0.0160915
-0.00146065
-0.00296899
-0.0213975
-0.0532434
-0.081138
-0.079436
-0.0104902
0.109935
0.349013
0.806953
1.18862
1.43658
1.61511
1.76762
1.91081
2.06965
2.23089
2.28398
2.18632
1.94767
1.56264
1.14161
0.846899
0.682571
0.530131
0.56871
0.835802
1.0611
1.15645
1.15753
1.18015
1.22441
1.28808
1.32324
1.36777
1.36959
1.39673
1.3932
1.39259
1.35364
1.31868
1.27177
1.22459
1.16276
1.09882
1.02297
0.935927
0.835898
0.735034
0.611883
0.390181
-0.0273577
-0.557725
-1.03256
-1.1527
-0.918361
-0.551576
-0.705772
-1.61692
-3.85328
-6.43645
-8.36941
-8.75972
-3.93423
8.33884
18.3043
26.5983
34.9815
38.7066
36.812
36.9407
39.0458
45.2002
45.6919
44.9991
-0.0864241
-0.0858151
-0.0417815
-0.0185266
-0.00136096
0.00115845
-0.011284
-0.0336394
-0.0481321
-0.0312289
0.0521816
0.18495
0.416452
0.882252
1.29418
1.5609
1.75055
1.91126
2.05701
2.21509
2.36948
2.41749
2.30594
2.06159
1.68041
1.25242
0.927968
0.732161
0.565159
0.590334
0.852506
1.08371
1.18986
1.19923
1.23037
1.28345
1.35375
1.39554
1.44332
1.44915
1.47992
1.47861
1.47841
1.43899
1.4037
1.35324
1.30179
1.23421
1.16115
1.07257
0.969715
0.851997
0.731098
0.575023
0.28727
-0.238264
-0.878062
-1.41346
-1.52458
-1.24809
-0.858791
-1.06791
-2.14894
-4.72429
-7.69602
-10.0675
-10.8733
-5.6068
8.25147
19.0729
27.7978
36.558
40.7903
39.9196
40.5515
42.8232
47.8718
46.7897
44.6283
-0.0870668
-0.087353
-0.0438403
-0.0201157
-0.000518962
0.00639487
0.000400352
-0.0122015
-0.0133589
0.0187386
0.116928
0.264497
0.491713
0.960838
1.4017
1.68778
1.88849
2.05725
2.2054
2.36141
2.50652
2.54666
2.42126
2.17162
1.79308
1.35876
1.00853
0.784972
0.605236
0.615169
0.867092
1.09911
1.21341
1.23111
1.27224
1.3355
1.41378
1.46332
1.51459
1.52522
1.55964
1.56111
1.56149
1.52247
1.48703
1.43313
1.3763
1.30233
1.2201
1.11819
0.998352
0.861689
0.718471
0.523574
0.15848
-0.4893
-1.24409
-1.83582
-1.93432
-1.61939
-1.21548
-1.48529
-2.74862
-5.6901
-9.08388
-11.9766
-13.3287
-7.61505
8.01605
19.7634
28.9179
37.9506
42.6861
42.8544
44.0239
46.3491
50.2179
47.4417
44.8843
-0.0865543
-0.0868194
-0.0438575
-0.0203316
0.00136641
0.0128714
0.0137309
0.0111227
0.0232288
0.0704756
0.183506
0.34749
0.574196
1.0432
1.51103
1.81704
2.02899
2.2057
2.35633
2.50924
2.64304
2.67229
2.53246
2.27811
1.90098
1.46093
1.08838
0.840955
0.650784
0.644684
0.881727
1.10904
1.22799
1.25334
1.30569
1.38037
1.46809
1.52644
1.58174
1.59815
1.6365
1.64109
1.64202
1.6042
1.56882
1.51185
1.44988
1.36883
1.27704
1.16071
1.02247
0.865208
0.696837
0.456414
0.00199101
-0.782117
-1.6554
-2.29886
-2.38369
-2.03662
-1.62564
-1.95896
-3.41527
-6.74908
-10.5957
-14.0993
-16.1477
-9.97286
7.62923
20.3767
29.9516
39.1897
44.3748
45.5455
47.2725
49.5776
52.2217
47.5881
45.3808
-0.0852601
-0.0844979
-0.0414395
-0.0185977
0.00468807
0.020766
0.0287894
0.036386
0.0616962
0.124036
0.251853
0.433111
0.663162
1.12974
1.62201
1.94856
2.17206
2.35668
2.51011
2.65917
2.78002
2.79531
2.63983
2.38128
2.00445
1.55911
1.16717
0.899587
0.701883
0.67981
0.898068
1.11496
1.23436
1.26618
1.33079
1.41797
1.51663
1.58474
1.64474
1.66771
1.7102
1.71838
1.72019
1.68426
1.64915
1.58934
1.52221
1.43314
1.33103
1.19977
1.04192
0.862384
0.665576
0.372352
-0.183883
-1.1178
-2.11103
-2.80206
-2.87544
-2.50476
-2.09244
-2.48875
-4.14702
-7.89615
-12.2195
-16.4255
-19.3365
-12.6744
7.09873
20.919
30.8981
40.3197
45.8594
47.978
50.2351
52.4821
53.9142
47.4259
45.0546
-0.0834738
-0.0809275
-0.0365984
-0.014439
0.00988443
0.0302967
0.0456613
0.0636168
0.102093
0.179474
0.322004
0.520792
0.757804
1.2207
1.73456
2.0823
2.3177
2.51025
2.66698
2.81169
2.91842
2.91677
2.74398
2.48151
2.10389
1.65327
1.24434
0.959949
0.758
0.720761
0.917292
1.11811
1.23325
1.26999
1.34765
1.44835
1.55947
1.63816
1.70376
1.73408
1.78102
1.79312
1.79638
1.76273
1.7281
1.66576
1.59365
1.49641
1.38288
1.23557
1.05703
0.853125
0.624086
0.270248
-0.400669
-1.49684
-2.60977
-3.3455
-3.41335
-3.02906
-2.61806
-3.07358
-4.94068
-9.12185
-13.934
-18.9274
-22.8769
-15.6831
6.44079
21.4013
31.7669
41.3597
47.1732
50.1661
52.8979
55.0536
55.3291
47.1657
43.9982
-0.0813974
-0.0766484
-0.0297312
-0.00767078
0.0173642
0.0417212
0.0644167
0.09283
0.144444
0.236828
0.394024
0.610172
0.857316
1.31612
1.84863
2.21817
2.46579
2.66644
2.82713
2.96723
3.05899
3.03766
2.84568
2.57924
2.19962
1.74312
1.31903
1.02091
0.817995
0.767179
0.940038
1.11931
1.22536
1.26516
1.35649
1.47163
1.59673
1.6867
1.75895
1.7972
1.84892
1.86533
1.87082
1.83968
1.80578
1.74119
1.66419
1.55861
1.43289
1.26819
1.06759
0.837337
0.571638
0.149073
-0.649248
-1.91919
-3.15023
-3.93
-4.00199
-3.61447
-3.20371
-3.71164
-5.79143
-10.4115
-15.7065
-21.5538
-26.7148
-18.9215
5.68359
21.845
32.574
42.3171
48.3522
52.1112
55.2589
57.298
56.4907
46.9035
42.8249
-0.0791666
-0.0720827
-0.021393
0.00154804
0.0273775
0.0553192
0.0851298
0.124048
0.188756
0.296113
0.467969
0.701052
0.960928
1.41591
1.9642
2.35607
2.61621
2.8253
2.99067
3.12613
3.20235
3.15894
2.94578
2.67505
2.29192
1.82818
1.39021
1.08119
0.880428
0.818278
0.966351
1.11893
1.21131
1.25211
1.35754
1.488
1.62856
1.73048
1.81059
1.85721
1.91405
1.93496
1.9436
1.91517
1.88229
1.81573
1.73401
1.61999
1.48158
1.29828
1.07375
0.815135
0.507577
0.00790679
-0.931771
-2.38404
-3.73116
-4.55725
-4.64649
-4.26519
-3.84981
-4.40055
-6.69251
-11.745
-17.4925
-24.2264
-30.7503
-22.2668
4.86894
22.2815
33.3376
43.2004
49.409
53.8175
57.3222
59.2332
57.4435
46.7318
41.8978
-0.0768603
-0.0674792
-0.0121366
0.0128553
0.0399585
0.0713145
0.107915
0.157285
0.235034
0.357331
0.54387
0.79334
1.06793
1.51977
2.08124
2.49589
2.76889
2.98685
3.15768
3.2887
3.34894
3.2814
3.04505
2.76956
2.38098
1.90778
1.45657
1.1394
0.943901
0.873019
0.995845
1.11684
1.1914
1.23122
1.35107
1.49771
1.65519
1.76966
1.85891
1.91415
1.97647
2.002
2.01479
1.98929
1.95772
1.8895
1.8032
1.68063
1.52907
1.32621
1.07599
0.786135
0.431116
-0.154271
-1.25207
-2.89012
-4.35128
-5.22989
-5.35205
-4.98447
-4.55629
-5.13746
-7.63517
-13.0971
-19.236
-26.8389
-34.8253
-25.5404
4.057
22.7455
34.0754
44.0184
50.3511
55.2995
59.1021
60.8869
58.2315
46.6194
41.0404
-0.0745067
-0.0629109
-0.00240114
0.0257999
0.0549749
0.0898327
0.132925
0.192557
0.283299
0.420478
0.621736
0.887011
1.17766
1.62731
2.19976
2.63751
2.9239
3.15113
3.32822
3.45522
3.4991
3.4057
3.14418
2.86338
2.46685
1.98107
1.51657
1.1942
1.00718
0.930315
1.02785
1.11257
1.16567
1.20282
1.33738
1.50105
1.67688
1.80449
1.90417
1.96819
2.03633
2.06677
2.08446
2.06213
2.0322
1.96263
1.87192
1.74072
1.57552
1.35213
1.07473
0.750279
0.342465
-0.339845
-1.61033
-3.43525
-5.01092
-5.9513
-6.1236
-5.77458
-5.32284
-5.91902
-8.60888
-14.4393
-20.884
-29.252
-38.7197
-28.48
3.33256
23.2699
34.8052
44.7817
51.1913
56.5777
60.6207
62.2904
58.8967
46.6197
40.429
-0.0720874
-0.0583103
0.00757373
0.0399443
0.0721662
0.110902
0.160314
0.229902
0.33357
0.485553
0.701549
0.982069
1.28955
1.73806
2.31971
2.78078
3.08125
3.31818
3.50232
3.62593
3.65311
3.53232
3.24373
2.95704
2.54945
2.047
1.56846
1.24429
1.06925
0.989307
1.06157
1.10548
1.13393
1.1672
1.31682
1.49834
1.69393
1.83524
1.94662
2.01948
2.0938
2.12967
2.15271
2.13381
2.10584
2.03525
1.9403
1.80042
1.62117
1.37627
1.07016
0.707982
0.24141
-0.550654
-2.00454
-4.01676
-5.71128
-6.72551
-6.96543
-6.637
-6.14911
-6.74151
-9.60163
-15.7406
-22.3867
-31.3095
-42.1711
-30.7526
2.81238
23.8847
35.5445
45.5014
51.9458
57.6768
61.905
63.4774
59.4869
46.8033
39.9115
-0.0695435
-0.0535217
0.0177482
0.0549709
0.0912047
0.134448
0.190175
0.269397
0.38585
0.552563
0.783281
1.07852
1.40306
1.85151
2.44104
2.92554
3.24095
3.488
3.67999
3.80107
3.8112
3.66165
3.3442
3.05094
2.62859
2.10433
1.61024
1.28823
1.12941
1.04938
1.09635
1.09497
1.09601
1.1247
1.2898
1.48998
1.70669
1.86228
1.9865
2.06821
2.14898
2.19093
2.21962
2.20446
2.1788
2.10752
2.00853
1.85993
1.6662
1.39887
1.06254
0.659554
0.127181
-0.78647
-2.43394
-4.63364
-6.45415
-7.55654
-7.88101
-7.57267
-7.03486
-7.60093
-10.6006
-16.9691
-23.6811
-32.8876
-44.788
-32.1028
2.6369
24.6157
36.3092
46.1879
52.6335
58.6231
62.9855
64.4835
60.0262
47.0694
39.6276
-0.066795
-0.048361
0.0282234
0.0707218
0.11178
0.160307
0.22253
0.311152
0.440149
0.621515
0.866895
1.17636
1.51774
1.96709
2.56368
3.07163
3.40299
3.66055
3.86123
3.98084
3.97357
3.79401
3.44602
3.14533
2.7039
2.15169
1.6397
1.3243
1.1872
1.11008
1.13181
1.0807
1.05202
1.07582
1.25685
1.47644
1.71556
1.88599
2.02406
2.11459
2.20199
2.25065
2.28529
2.27421
2.25121
2.17959
2.07678
1.91946
1.7109
1.42024
1.05214
0.605061
-4.33141e-05
-1.04711
-2.89711
-5.28472
-7.24137
-8.44829
-8.87295
-8.58223
-7.98002
-8.49318
-11.5928
-18.0947
-24.7037
-33.8812
-46.0889
-32.4594
2.94542
25.4791
37.1114
46.8518
53.2744
59.4444
63.8933
65.3419
60.5444
47.4671
39.7799
-0.0637556
-0.042655
0.039164
0.0871768
0.133665
0.188261
0.257343
0.355255
0.49648
0.692387
0.952337
1.27555
1.63315
2.0843
2.68751
3.21889
3.56732
3.83579
4.04605
4.16544
4.14036
3.92976
3.5496
3.24036
2.77485
2.18745
1.65429
1.35044
1.2421
1.17119
1.16786
1.06266
1.00249
1.02136
1.21863
1.45828
1.72098
1.90681
2.05957
2.15886
2.25312
2.30897
2.34986
2.34324
2.32325
2.25164
2.14524
1.97924
1.75551
1.44068
1.03932
0.544798
-0.140147
-1.33208
-3.39214
-5.96908
-8.07562
-9.40429
-9.943
-9.6663
-8.98474
-9.41431
-12.5663
-19.0915
-25.4132
-34.2147
-45.929
-31.7562
3.82675
26.4847
37.9593
47.504
53.8868
60.1684
64.66
66.0839
61.0752
48.0954
40.1143
-0.0603434
-0.036262
0.050739
0.104406
0.156733
0.218087
0.294526
0.401737
0.554887
0.765156
1.03952
1.376
1.74893
2.2026
2.81244
3.36717
3.73383
4.0137
4.23443
4.35502
4.31174
4.0694
3.65531
3.336
2.84069
2.20965
1.65104
1.36425
1.29337
1.23277
1.20443
1.04114
0.948405
0.962436
1.176
1.4362
1.72347
1.9252
2.0933
2.20128
2.30274
2.36602
2.41348
2.41171
2.39508
2.32385
2.21412
2.03952
1.80036
1.46058
1.02447
0.479144
-0.292512
-1.63956
-3.9166
-6.68576
-8.96039
-10.4274
-11.0923
-10.8256
-10.0495
-10.3608
-13.5106
-19.9394
-25.7897
-33.8862
-44.5245
-29.9678
5.24329
27.6331
38.8558
48.156
54.4869
60.8206
65.3167
66.7395
61.6254
48.8209
40.6542
-0.0564886
-0.0290758
0.063091
0.122518
0.180944
0.249597
0.333961
0.450585
0.615443
0.839795
1.12834
1.47759
1.86474
2.32154
2.93836
3.51632
3.90237
4.19423
4.42634
4.54965
4.4879
4.21337
3.76344
3.43209
2.90048
2.21585
1.62648
1.36293
1.34007
1.29491
1.24137
1.01663
0.891163
0.900529
1.13001
1.41098
1.72359
1.94166
2.12552
2.24216
2.3511
2.42197
2.47632
2.47983
2.46692
2.39643
2.28365
2.10057
1.84577
1.48035
1.00807
0.408597
-0.456501
-1.96794
-4.46744
-7.43376
-9.89796
-11.5199
-12.3216
-12.0613
-11.175
-11.3299
-14.4171
-20.6255
-25.83
-32.9276
-42.1104
-27.2524
7.07511
28.9158
39.7983
48.8201
55.088
61.4235
65.8929
67.3329
62.211
49.7033
41.557
-0.0521356
-0.0210164
0.0763282
0.141623
0.206323
0.282662
0.375511
0.501756
0.678192
0.916266
1.21867
1.58016
1.9803
2.44067
3.06517
3.66616
4.07272
4.37723
4.62168
4.74936
4.66898
4.36204
3.87417
3.52829
2.95305
2.20322
1.57679
1.34343
1.38104
1.35755
1.27838
0.989771
0.832445
0.837378
1.08189
1.38355
1.72199
1.95673
2.15658
2.2818
2.39838
2.47701
2.53858
2.5478
2.53894
2.46959
2.35407
2.16268
1.8921
1.50043
0.990656
0.333756
-0.631248
-2.31577
-5.04305
-8.21431
-10.89
-12.6832
-13.6312
-13.3746
-12.3626
-12.3194
-15.2792
-21.1444
-25.545
-31.3785
-38.8425
-23.7469
9.24819
30.3209
40.7809
49.5065
55.7003
61.9956
66.4145
67.8859
62.8407
50.7142
42.5516
-0.0472423
-0.0120232
0.0905237
0.16181
0.232925
0.317208
0.419038
0.555185
0.743136
0.994564
1.31041
1.68357
2.09532
2.55967
3.19278
3.81653
4.24457
4.56252
4.82028
4.95402
4.85501
4.51561
3.98753
3.62414
2.99705
2.16876
1.49802
1.30259
1.41495
1.42032
1.31497
0.961171
0.774091
0.774877
1.033
1.3549
1.71935
1.97098
2.18675
2.32043
2.44472
2.53135
2.60048
2.61585
2.61137
2.54353
2.42561
2.22613
1.93973
1.52132
0.972807
0.255315
-0.81574
-2.68136
-5.64231
-9.02857
-11.9352
-13.9179
-15.0217
-14.7674
-13.6138
-13.3286
-16.0924
-21.4971
-24.959
-29.3018
-34.8467
-19.5575
11.7331
31.831
41.7995
50.222
56.3306
62.552
66.9026
68.416
63.5184
51.8508
43.6976
-0.0417774
-0.00204887
0.105724
0.183141
0.26081
0.353213
0.464423
0.610801
0.810257
1.0747
1.40344
1.78758
2.2095
2.67828
3.32107
3.96718
4.41754
4.74978
5.02184
5.16343
5.04593
4.67416
4.10349
3.71906
3.03104
2.10954
1.38662
1.23755
1.44034
1.48234
1.35035
0.93139
0.717922
0.714924
0.984791
1.32615
1.7164
1.98496
2.21636
2.35831
2.49033
2.58524
2.66226
2.68422
2.68441
2.6185
2.49853
2.29125
1.98906
1.54354
0.955165
0.174067
-1.00883
-3.06297
-6.26382
-9.87684
-13.0309
-15.2243
-16.4936
-16.2423
-14.9311
-14.3572
-16.8544
-21.6912
-24.108
-26.7882
-30.278
-14.8543
14.4743
33.4229
42.8524
50.9704
56.983
63.1038
67.3737
68.9366
64.2447
53.2045
44.9932
-0.0357162
0.00894663
0.12196
0.205647
0.290024
0.390685
0.51158
0.668525
0.879522
1.15663
1.49764
1.89198
2.32259
2.79638
3.44993
4.11785
4.59116
4.93859
5.22593
5.37723
5.24151
4.83756
4.22193
3.81242
3.05362
2.02315
1.23999
1.14611
1.45579
1.54229
1.38351
0.900855
0.66555
0.659235
0.93871
1.29844
1.71389
1.99922
2.24595
2.39586
2.53543
2.63894
2.72417
2.75313
2.75829
2.69469
2.57309
2.35835
2.04052
1.56765
0.938419
0.0909005
-1.20921
-3.45877
-6.90621
-10.7592
-14.1771
-16.6021
-18.0477
-17.8022
-16.318
-15.4061
-17.5652
-21.7393
-23.0354
-23.9455
-25.305
-9.81449
17.3923
35.0729
43.9359
51.7523
57.6587
63.6588
67.8397
69.4581
65.0135
54.6387
46.3197
-0.0290383
0.0210017
0.139257
0.22934
0.320598
0.429646
0.560451
0.728275
0.950876
1.24034
1.59291
1.99658
2.43434
2.9139
3.57917
4.26819
4.76489
5.12843
5.43194
5.59492
5.44138
5.00554
4.34276
3.90358
3.06369
1.90816
1.05705
1.02724
1.46007
1.59842
1.4132
0.869837
0.618198
0.609167
0.896085
1.27298
1.71257
2.01446
2.276
2.43336
2.58024
2.69272
2.7865
2.82283
2.83322
2.77235
2.64954
2.42777
2.09454
1.59424
0.923311
0.00680102
-1.41546
-3.86681
-7.568
-11.6754
-15.3737
-18.0509
-19.6849
-19.451
-17.7786
-16.4771
-18.2273
-21.6583
-21.7878
-20.8822
-20.103
-4.61822
20.4018
36.7542
45.0436
52.5659
58.3569
64.2216
68.3084
69.9866
65.8216
56.1158
47.7924
-0.021726
0.034157
0.157636
0.254219
0.352543
0.470113
0.611012
0.789983
1.02427
1.32574
1.68909
2.10109
2.54448
3.03089
3.70857
4.41779
4.93806
5.31863
5.63907
5.81578
5.64502
5.17762
4.46587
3.99205
3.06059
1.76443
0.838596
0.881447
1.45236
1.6486
1.43818
0.838483
0.576575
0.565604
0.858074
1.25097
1.71334
2.0313
2.3068
2.47098
2.62497
2.74688
2.84952
2.89355
2.90941
2.85169
2.72814
2.49984
2.15158
1.62392
0.910634
-0.077143
-1.62601
-4.28504
-8.24756
-12.6245
-16.6206
-19.57
-21.4064
-21.193
-19.3182
-17.5732
-18.845
-21.4681
-20.4137
-17.6992
-14.8589
0.54058
23.4042
38.4349
46.1679
53.4073
59.0745
64.7939
68.7841
70.5254
66.6658
57.6995
49.4436
-0.0137626
0.0484581
0.17712
0.280276
0.385861
0.512105
0.663266
0.853601
1.09966
1.41274
1.78597
2.20512
2.65279
3.1474
3.83783
4.56613
5.10994
5.50843
5.84639
6.03889
5.85172
5.35318
4.5911
4.07756
3.0443
1.59328
0.587403
0.710996
1.43239
1.69039
1.4573
0.806926
0.540881
0.528959
0.825626
1.23356
1.71702
2.05032
2.33861
2.50886
2.66988
2.80174
2.91352
2.96551
2.98705
2.9329
2.80914
2.57489
2.21211
1.65732
0.901231
-0.159738
-1.83911
-4.71123
-8.94304
-13.6053
-17.9167
-21.1585
-23.2134
-23.0328
-20.943
-18.699
-19.4233
-21.1903
-18.9595
-14.4833
-9.74071
5.4957
26.3029
40.0824
47.3016
54.2713
59.8071
65.3747
69.2677
71.0759
67.5393
59.2894
51.1333
-0.00512996
0.0639605
0.197733
0.307498
0.420547
0.555635
0.717219
0.919099
1.17698
1.50121
1.88327
2.30824
2.7591
3.26347
3.96662
4.71263
5.27967
5.69689
6.05284
6.26312
6.06061
5.5315
4.71827
4.16011
3.01549
1.39739
0.308186
0.519898
1.40053
1.7212
1.46937
0.775491
0.510964
0.499328
0.799548
1.22189
1.72446
2.07195
2.37156
2.54711
2.71522
2.85762
2.97877
3.03891
3.06632
3.01618
2.89279
2.65326
2.27659
1.69511
0.895998
-0.239684
-2.05289
-5.14303
-9.65235
-14.6159
-19.2606
-22.8155
-25.1076
-24.9752
-22.66
-19.8599
-19.9676
-20.8469
-17.4673
-11.3024
-4.86167
10.134
29.0291
41.6703
48.4394
55.1515
60.5492
65.9607
69.7575
71.6373
68.4353
60.8963
52.8689
0.00419464
0.0807328
0.219507
0.335876
0.45659
0.600715
0.772886
0.98648
1.25617
1.59098
1.9807
2.40999
2.86338
3.37903
4.09452
4.85661
5.44633
5.88294
6.25716
6.48717
6.27067
5.71176
4.84708