/*--------------------------------*- C++ -*----------------------------------*\
| =========                 |                                                 |
| \\      /  F ield         | OpenFOAM: The Open Source CFD Toolbox           |
|  \\    /   O peration     | Version:  4.1                                   |
|   \\  /    A nd           | Web:      www.OpenFOAM.org                      |
|    \\/     M anipulation  |                                                 |
\*---------------------------------------------------------------------------*/
FoamFile
{
    version     2.0;
    format      ascii;
    class       volScalarField;
    location    "14";
    object      p;
}
// * * * * * * * * * * * * * * * * * * * * * * * * * * * * * * * * * * * * * //

dimensions      [0 2 -2 0 0 0 0];

internalField   nonuniform List<scalar> 
6785
(
576.755
500.627
452.514
400.015
353.251
308.631
266.956
227.625
190.54
155.509
121.666
89.071
61.1916
31.2178
-7.98474
-26.4025
-44.2303
-35.5381
-42.0101
-42.3203
-44.7936
-45.9422
-46.737
-46.6636
-45.6842
-43.724
-40.9878
-36.9354
-31.814
-28.2093
-16.9752
-20.6181
-10.8912
-14.3008
-10.1437
-10.0241
-8.46558
-7.71198
-6.87548
-6.24804
-5.68525
-5.33166
-4.91042
-4.38712
-1.907
25.3152
24.2094
28.1566
24.3281
26.7058
25.0899
25.6402
25.3771
25.6421
25.7858
25.8399
25.538
25.3488
25.4201
26.8395
28.4453
26.3498
28.7544
25.7444
28.1552
26.5978
27.5773
27.113
27.2209
26.814
26.2069
25.4563
24.9895
24.6517
23.4815
9.071
5.10529
6.06816
2.45916
3.08637
0.344799
0.0507864
-1.74851
-2.53957
-3.64871
-4.32832
-4.90867
-5.61673
-7.06359
-9.09569
-20.6823
-24.5191
-23.8818
-27.069
-26.8802
-29.6633
-30.3704
-32.5174
-33.8529
-35.341
-36.4168
-37.2942
-38.1495
-38.7729
-37.3078
-25.6671
-26.8771
-25.1188
-26.7527
-25.2744
-26.4321
-25.8325
-26.3459
-26.3589
-26.5025
-26.2703
-25.6804
-24.2948
-22.8178
-20.0657
-4.53685
-3.65971
-1.47745
-1.59265
0.613277
1.05595
2.71719
3.80786
5.22423
6.60725
8.12603
9.61579
11.3298
12.6688
14.5463
12.4627
13.6894
15.344
15.4642
17.196
17.6301
18.8837
19.71
20.7087
21.641
22.6122
23.5024
24.4968
25.2112
26.1557
25.5257
26.684
27.8541
27.9316
29.2368
29.482
30.3856
30.9433
31.6281
32.2764
32.9498
33.5846
34.3554
34.8855
35.8032
37.1372
38.1598
38.9306
39.0982
40.0641
40.1939
40.8393
41.0383
41.3508
41.6143
41.9562
42.4655
43.1533
43.7365
44.4644
52.1979
51.8294
51.3671
50.9007
51.0941
50.5913
50.4746
50.0149
49.6822
49.1817
48.6553
48.2534
47.915
48.0847
47.7773
46.6548
46.0195
44.0402
41.4575
39.1523
36.7809
35.3785
34.049
33.0817
31.9924
31.052
30.3147
30.0156
30.2786
29.2447
67.9744
64.4255
57.4714
50.685
45.1024
39.6337
36.2803
33.955
31.6068
29.8756
28.0264
25.8842
23.829
22.4166
20.8687
40.2481
40.6538
40.924
40.9239
41.0464
41.3756
41.9285
41.7895
41.7181
41.6224
41.9256
41.5799
41.4287
41.6145
41.1183
41.0202
41.1056
41.2104
40.394
40.6709
40.8325
40.0173
39.9004
40.4137
40.5205
39.5932
39.4822
40.0531
40.4395
39.2805
39.8519
40.3745
39.5126
39.3801
40.0476
40.4616
39.525
40.1234
40.5093
39.9474
39.8854
40.5209
40.6807
40.2717
40.2712
40.7982
40.8383
40.4822
41.1038
40.9964
40.8042
40.9315
41.4104
41.6271
41.5338
41.6321
41.9326
42.5185
42.4968
42.5675
43.2917
43.2914
43.2263
43.1821
43.6526
43.7618
44.3355
44.8133
44.2409
45.4328
46.7458
43.1856
41.37
44.5932
47.6932
31.2662
40.455
46.2896
10.662
22.2861
30.5609
31.2127
35.94
33.0371
32.1049
38.2019
39.0325
40.7484
41.5788
41.8707
41.3647
44.2693
51.3058
35.5341
35.4114
35.404
35.3272
33.6856
32.722
30.6798
32.6842
42.0602
26.5449
26.4079
24.3306
24.0688
25.8604
26.0007
24.5749
23.7467
23.5982
37.0366
27.1846
26.3427
24.8887
23.2735
24.048
26.216
25.9354
22.1991
28.5159
30.3112
31.8878
31.7062
29.3032
27.167
25.1384
26.5783
22.5555
31.6185
34.6566
29.3081
28.561
26.9174
23.8962
21.8427
19.7085
12.2498
19.0946
29.4782
24.2383
22.4169
19.3904
15.2433
12.1699
11.328
9.60376
6.33434
3.99658
12.5815
9.29949
9.65721
9.24831
8.24286
3.85571
3.06648
5.37853
-6.04264
8.30044
5.64048
3.33305
9.57558
4.42356
6.92719
6.00908
7.7987
10.1138
6.56533
8.70246
10.1412
7.81447
8.73301
8.12285
8.93726
10.2402
8.21171
8.92024
8.3144
9.0086
9.94995
7.94928
8.96492
9.60576
8.17236
8.60574
8.12677
8.54222
9.21435
7.90035
8.26347
7.80724
8.1782
8.6941
7.36297
7.94128
8.28384
7.30536
7.52632
7.171
7.37362
7.74247
6.8484
7.02775
6.69472
6.86985
7.12859
6.2401
6.54422
6.67664
6.01227
6.09582
5.82986
5.89441
6.01443
5.4192
5.46661
5.21637
5.25366
5.27557
4.70324
4.79721
4.72664
4.26772
4.2322
4.01037
3.9655
3.86034
3.44661
3.35882
3.09515
3.07734
3.02903
2.49119
2.25794
2.25199
1.6145
1.28246
1.06158
0.58618
0.309504
0.00143469
0.00232452
0.00364648
0.00453261
0.00549663
0.00630237
0.00707906
0.00777085
0.00841288
0.00900027
0.0095507
0.0100761
0.0105941
0.0111211
0.011672
0.0122569
0.0128796
0.0135378
0.0142262
0.0149433
0.0156991
0.0165252
0.0174806
0.0186479
0.0201082
0.0218944
0.0239527
0.0261697
0.0284305
0.0305943
0.0325007
0.0339979
0.0349308
0.0351869
0.0347373
0.0336792
0.0322708
0.0309114
0.0300603
0.0300854
0.0310989
0.0329084
0.034953
0.0361921
0.0352801
0.0309293
0.0222024
0.00868554
-0.00891005
-0.0279634
-0.0497164
-0.0987729
-0.166827
0.0305947
-0.691303
-0.723708
-0.893055
-1.06217
-1.14726
-1.17986
-1.11701
-0.989621
-0.815719
-0.625031
-0.404149
-0.192385
0.00899819
0.182538
0.320463
0.424223
0.497707
0.531127
0.555179
0.546051
0.528053
0.561131
0.485922
0.598903
0.430388
0.00399505
0.00633998
0.00997418
0.0124333
0.0150171
0.0171746
0.0192009
0.0209826
0.0225979
0.0240492
0.0253816
0.0266357
0.0278607
0.0291064
0.030415
0.0318159
0.0333186
0.0349158
0.0365913
0.0383393
0.040188
0.0422265
0.0446229
0.0476117
0.0514228
0.0561446
0.061614
0.067501
0.0734851
0.0791792
0.0841466
0.0879798
0.09026
0.0906799
0.0891423
0.0858486
0.0813336
0.0763166
0.0713772
0.0665234
0.0609722
0.0536259
0.0437005
0.0308884
0.0154525
-0.00207347
-0.0215045
-0.0432912
-0.0679376
-0.0958639
-0.1312
-0.183544
-0.205117
0.14333
-1.03706
-1.1354
-1.43744
-1.7339
-1.89687
-1.99582
-1.96514
-1.80297
-1.5245
-1.19001
-0.776721
-0.370924
0.0181435
0.361822
0.626389
0.83052
0.95506
1.0271
1.05151
1.06151
1.0222
1.09206
1.01549
1.13922
1.3925
0.00624456
0.0103249
0.0165505
0.0207683
0.0252143
0.028932
0.0324372
0.0355292
0.0383454
0.0408861
0.0432289
0.0454407
0.0476046
0.0498044
0.0521111
0.0545744
0.0572107
0.0600076
0.0629377
0.0659905
0.0692124
0.0727531
0.0768957
0.0820377
0.0885712
0.096649
0.105997
0.11606
0.126299
0.136058
0.144599
0.151229
0.155234
0.156092
0.153647
0.14828
0.140998
0.133216
0.126219
0.120383
0.114682
0.107303
0.0964963
0.0807863
0.0592772
0.0315169
-0.00309432
-0.0455224
-0.0962389
-0.155104
-0.22786
-0.323919
-0.375481
0.0129438
-1.14148
-1.3046
-1.64937
-2.00639
-2.21019
-2.34797
-2.34193
-2.16787
-1.84348
-1.44245
-0.937734
-0.441249
0.0361158
0.458751
0.781808
1.03253
1.18027
1.26863
1.29375
1.30291
1.26912
1.31378
1.29399
1.32303
1.86542
0.00833926
0.0140962
0.0227708
0.028701
0.0349121
0.0401181
0.0450117
0.0493286
0.0532531
0.0567908
0.0600483
0.0631207
0.0661244
0.0691771
0.0723786
0.0757988
0.0794602
0.0833447
0.0874124
0.0916465
0.0961096
0.101009
0.106741
0.113867
0.122942
0.134184
0.147203
0.161219
0.175482
0.189077
0.200981
0.210226
0.215814
0.217007
0.213576
0.206044
0.195815
0.184873
0.175
0.166643
0.158216
0.147029
0.130607
0.107082
0.0756169
0.0360504
-0.0120972
-0.070037
-0.138929
-0.22032
-0.321991
-0.440835
-0.509754
-0.319696
-1.34742
-1.6111
-1.9765
-2.4154
-2.67057
-2.84891
-2.85762
-2.65295
-2.26014
-1.76965
-1.14812
-0.537128
0.0511206
0.571825
0.969312
1.27847
1.45966
1.56789
1.59914
1.60249
1.57424
1.59237
1.61241
1.57643
2.24852
0.010232
0.0177654
0.0288991
0.0365956
0.0446116
0.0513519
0.0576753
0.063259
0.0683317
0.0729055
0.0771154
0.0810855
0.0849656
0.0889083
0.0930431
0.0974603
0.102189
0.107204
0.112452
0.117908
0.123649
0.129937
0.137284
0.146422
0.158081
0.172551
0.189322
0.207382
0.225771
0.243312
0.258692
0.270665
0.277934
0.279529
0.275124
0.265372
0.252092
0.237889
0.225138
0.214479
0.203888
0.189953
0.169585
0.140449
0.101363
0.0517461
-0.0094898
-0.0842645
-0.1745
-0.283012
-0.419177
-0.574608
-0.711563
-0.815426
-1.47427
-1.97311
-2.34244
-2.87057
-3.18499
-3.40836
-3.43659
-3.19936
-2.73106
-2.14084
-1.38779
-0.647986
0.0652795
0.696847
1.17786
1.55275
1.77042
1.90146
1.9382
1.93802
1.91102
1.9106
1.95585
1.87773
2.49168
0.0119741
0.0213186
0.0348393
0.0443117
0.0541079
0.0623762
0.0701114
0.0769473
0.0831489
0.088739
0.0938792
0.0987238
0.103456
0.108265
0.113309
0.1187
0.124472
0.130595
0.136998
0.143644
0.150622
0.158248
0.167148
0.178233
0.19242
0.210078
0.230568
0.252638
0.275124
0.296586
0.315428
0.330122
0.339065
0.341036
0.335584
0.32347
0.306914
0.289152
0.273159
0.259721
0.24631
0.228778
0.203533
0.167954
0.120673
0.0608247
-0.0131939
-0.103997
-0.214487
-0.349127
-0.518311
-0.711725
-0.932989
-1.29649
-1.44179
-2.34968
-2.69658
-3.29951
-3.67317
-3.94059
-3.99082
-3.72136
-3.18008
-2.49301
-1.61185
-0.748591
0.084802
0.821876
1.38165
1.81844
2.06931
2.22145
2.26232
2.2578
2.23258
2.21084
2.2815
2.16181
2.93444
0.0135677
0.0247929
0.0406508
0.0519277
0.0635026
0.0733143
0.0824666
0.0905632
0.0978979
0.104508
0.11058
0.1163
0.121884
0.127559
0.133513
0.139881
0.146703
0.153938
0.161499
0.169334
0.177538
0.186478
0.196899
0.209895
0.226593
0.247448
0.271681
0.297791
0.324415
0.349843
0.372202
0.389674
0.400329
0.402667
0.396075
0.381394
0.361262
0.339599
0.320041
0.303545
0.287083
0.26588
0.23601
0.194614
0.140002
0.070748
-0.0155568
-0.122459
-0.254019
-0.416258
-0.620213
-0.85819
-1.1616
-1.62614
-1.35596
-2.79146
-3.069
-3.73031
-4.16687
-4.47813
-4.55115
-4.24594
-3.62941
-2.84323
-1.83198
-0.845435
0.108017
0.949354
1.58665
2.08409
2.36717
2.53965
2.5844
2.57415
2.55105
2.5053
2.59903
2.43826
3.15022
0.0150334
0.0281971
0.0463243
0.0594254
0.0727633
0.0841234
0.0946861
0.10404
0.1125
0.120122
0.127115
0.133698
0.140122
0.146649
0.153504
0.16084
0.168704
0.177045
0.185755
0.194763
0.204166
0.214378
0.226263
0.241114
0.260284
0.284329
0.312314
0.342478
0.373263
0.402684
0.428594
0.448876
0.461249
0.463888
0.455977
0.438423
0.414316
0.388337
0.364828
0.3449
0.325015
0.29986
0.265301
0.218245
0.156586
0.0782284
-0.0201201
-0.143025
-0.295849
-0.486177
-0.725532
-1.01091
-1.38228
-1.83108
-1.38196
-3.31032
-3.48025
-4.17729
-4.68046
-5.03528
-5.13286
-4.78761
-4.0918
-3.20171
-2.05517
-0.942276
0.134235
1.08136
1.79696
2.35537
2.67035
2.8631
2.91125
2.8948
2.87287
2.80269
2.91476
2.7186
3.37985
0.0163815
0.0315494
0.05188
0.0668285
0.0819163
0.094833
0.106802
0.117415
0.126996
0.135625
0.143531
0.150968
0.158221
0.165593
0.17334
0.181639
0.190544
0.199991
0.209846
0.220016
0.230594
0.242039
0.25533
0.271978
0.293586
0.320826
0.352587
0.386836
0.421822
0.455283
0.484795
0.507923
0.521995
0.524814
0.515312
0.494475
0.465921
0.435186
0.407362
0.38369
0.360144
0.33101
0.292031
0.239817
0.171699
0.0847554
-0.0253293
-0.164277
-0.33888
-0.558272
-0.83464
-1.17072
-1.60182
-2.02871
-1.66814
-3.85865
-3.9428
-4.63884
-5.21062
-5.60746
-5.73189
-5.34187
-4.56291
-3.56436
-2.27792
-1.03675
0.164733
1.21793
2.01153
2.63029
2.97609
3.18867
3.23932
3.21646
3.19462
3.09968
3.22691
2.99901
3.663
0.0176242
0.0348605
0.0573246
0.0741411
0.0909618
0.105441
0.11881
0.130679
0.141373
0.151
0.159808
0.168086
0.176155
0.18436
0.192988
0.202245
0.212187
0.222736
0.233731
0.24505
0.256776
0.269403
0.284034
0.302409
0.326414
0.356854
0.392419
0.430784
0.470017
0.507561
0.540715
0.566696
0.582386
0.585158
0.573668
0.549036
0.515529
0.479631
0.447178
0.419512
0.392172
0.359149
0.316088
0.259187
0.185085
0.0899324
-0.0316893
-0.186749
-0.383565
-0.632848
-0.947777
-1.33659
-1.82366
-2.27463
-2.2665
-4.39003
-4.46254
-5.11341
-5.7604
-6.1968
-6.35046
-5.90979
-5.04311
-3.93076
-2.49941
-1.12808
0.200161
1.35931
2.23027
2.90839
3.28369
3.51553
3.56767
3.53829
3.51541
3.39524
3.53517
3.27633
3.94385
0.0187707
0.0381422
0.0626699
0.0813754
0.099911
0.115958
0.13072
0.143842
0.155641
0.166258
0.175955
0.185063
0.193933
0.202956
0.212456
0.222663
0.233639
0.245289
0.257421
0.269877
0.282721
0.296478
0.312374
0.332397
0.358757
0.392407
0.431811
0.474335
0.517865
0.559536
0.596356
0.625145
0.642275
0.644637
0.630634
0.601637
0.562711
0.521347
0.484061
0.452279
0.421181
0.384543
0.337879
0.276848
0.19728
0.0943109
-0.0386594
-0.209937
-0.42944
-0.709511
-1.06465
-1.50756
-2.05092
-2.58498
-3.10495
-4.82141
-5.03348
-5.60156
-6.33503
-6.80933
-6.99418
-6.49576
-5.53573
-4.30285
-2.7205
-1.21646
0.240856
1.50607
2.45392
3.19039
3.59378
3.84433
3.89685
3.86108
3.83574
3.69018
3.8401
3.55106
4.1999
0.0198297
0.0414034
0.0679244
0.0885392
0.10877
0.12639
0.142536
0.156907
0.169802
0.181398
0.191971
0.201891
0.211547
0.221373
0.231733
0.242883
0.254889
0.267641
0.280906
0.294485
0.308415
0.323246
0.340321
0.361903
0.390569
0.427446
0.47073
0.517458
0.565334
0.61116
0.651626
0.683081
0.701323
0.702744
0.685595
0.651684
0.607018
0.560058
0.517884
0.48201
0.44735
0.407499
0.357774
0.293166
0.208612
0.0981642
-0.046015
-0.233636
-0.476271
-0.787954
-1.18474
-1.68228
-2.28447
-2.94392
-4.00271
-5.04769
-5.63616
-6.10378
-6.93669
-7.4507
-7.66784
-7.10309
-6.04306
-4.68166
-2.94128
-1.30159
0.287407
1.65876
2.68287
3.47656
3.90643
4.17509
4.22671
4.18494
4.15545
3.98467
4.1418
3.82506
4.45273
0.0208085
0.0446527
0.0730975
0.0956414
0.117547
0.136743
0.154264
0.16988
0.183859
0.196422
0.207856
0.218572
0.228995
0.239608
0.250814
0.262899
0.275934
0.289787
0.304183
0.318873
0.333858
0.349698
0.367858
0.390898
0.421818
0.461942
0.509153
0.560135
0.612399
0.662373
0.706375
0.740203
0.75903
0.758818
0.737856
0.698625
0.648149
0.595694
0.548733
0.508936
0.471051
0.428489
0.376291
0.308667
0.219591
0.101978
-0.053292
-0.257387
-0.523569
-0.867606
-1.30717
-1.85949
-2.52355
-3.31578
-4.73033
-5.06851
-6.26661
-6.62234
-7.56549
-8.1267
-8.37696
-7.73512
-6.56735
-5.06806
-3.16179
-1.38316
0.340601
1.8182
2.91764
3.76691
4.22151
4.50752
4.55686
4.50968
4.47418
4.27861
4.44037
4.09632
4.73051
0.0217134
0.0478973
0.0781973
0.10269
0.126249
0.147024
0.16591
0.182765
0.197816
0.211334
0.22361
0.235103
0.246273
0.257654
0.269692
0.282704
0.296766
0.311722
0.327248
0.343038
0.359044
0.375825
0.394963
0.419347
0.452462
0.49586
0.54705
0.602331
0.658999
0.713038
0.760322
0.796009
0.814674
0.812023
0.786676
0.742014
0.686
0.628379
0.576859
0.533421
0.492747
0.448036
0.39397
0.323877
0.230712
0.106213
-0.0600504
-0.280746
-0.570831
-0.94782
-1.43092
-2.03785
-2.76598
-3.66948
-5.1739
-5.06682
-6.94539
-7.16348
-8.22033
-8.84309
-9.12855
-8.39612
-7.11142
-5.46322
-3.38238
-1.46094
0.401195
1.98537
3.1594
4.06188
4.53884
4.84149
4.88701
4.83526
4.79168
4.57203
4.7357
4.36606
4.97459
0.0225499
0.0511438
0.0832319
0.109692
0.134883
0.15724
0.177478
0.195565
0.211676
0.226133
0.239234
0.251482
0.263377
0.275506
0.288361
0.302291
0.317379
0.33344
0.350097
0.366977
0.383968
0.401617
0.421616
0.447214
0.482459
0.529165
0.584386
0.643997
0.705029
0.762917
0.813003
0.84977
0.867325
0.861431
0.831409
0.781648
0.720729
0.658437
0.602653
0.555927
0.512968
0.466709
0.411386
0.339353
0.242506
0.111378
-0.0657939
-0.303197
-0.61747
-1.02783
-1.55483
-2.21606
-3.00956
-3.99813
-5.45038
-5.23957
-7.63981
-7.73961
-8.89831
-9.60484
-9.93069
-9.09118
-7.67854
-5.86861
-3.6033
-1.5345
0.469879
2.16092
3.40903
4.36231
4.85869
5.17673
5.21684
5.16158
5.10768
4.86499
5.02767
4.63391
5.21777
0.0233224
0.0543982
0.0882085
0.116655
0.143456
0.167395
0.188975
0.208285
0.225442
0.240822
0.254728
0.267709
0.280305
0.293159
0.306813
0.321653
0.337765
0.354935
0.372726
0.390686
0.40863
0.427067
0.447795
0.47446
0.511765
0.561816
0.621115
0.685049
0.750293
0.811604
0.86372
0.900506
0.915891
0.906153
0.871655
0.817639
0.752729
0.68632
0.626569
0.576951
0.532257
0.485071
0.429101
0.355639
0.255491
0.117968
-0.0700362
-0.324232
-0.66289
-1.10681
-1.67765
-2.39268
-3.25203
-4.30738
-5.70378
-5.77378
-8.28189
-8.36304
-9.59561
-10.416
-10.7921
-9.82632
-8.27245
-6.28588
-3.82464
-1.60336
0.547388
2.34552
3.66698
4.66866
5.18176
5.51301
5.54607
5.48852
5.42188
5.15752
5.3163
4.89934
5.46079
0.0240347
0.0576658
0.0931339
0.123585
0.151973
0.177497
0.200404
0.22093
0.239116
0.255403
0.27009
0.28378
0.297051
0.310606
0.32504
0.34078
0.357917
0.376202
0.395132
0.414166
0.433027
0.452169
0.473479
0.501045
0.540329
0.593766
0.657167
0.725337
0.794456
0.858466
0.911506
0.947024
0.959253
0.945538
0.907402
0.850419
0.782552
0.712531
0.64907
0.596979
0.551134
0.503663
0.447654
0.373257
0.270168
0.126459
-0.0723131
-0.343368
-0.706517
-1.18397
-1.79818
-2.56622
-3.49068
-4.60305
-5.99719
-6.67952
-8.7808
-9.0301
-10.3095
-11.2799
-11.7219
-10.6085
-8.89756
-6.71682
-4.04655
-1.66703
0.634501
2.5399
3.93378
4.98118
5.50861
5.85044
5.87417
5.81586
5.73397
5.44965
5.60143
5.16405
5.68773
0.02469
0.0609517
0.0980144
0.130488
0.160441
0.187549
0.211771
0.233502
0.252702
0.269877
0.285323
0.299694
0.31361
0.327841
0.343035
0.359664
0.377825
0.397234
0.417311
0.437415
0.45716
0.476917
0.498649
0.526924
0.568095
0.624953
0.692424
0.764599
0.836979
0.902601
0.955139
0.988025
0.996481
0.979369
0.93906
0.880643
0.810808
0.737547
0.67057
0.616446
0.57007
0.522979
0.467541
0.392689
0.286991
0.137273
-0.072233
-0.360214
-0.74788
-1.25861
-1.9154
-2.73532
-3.72324
-4.89126
-6.3407
-7.72326
-8.96214
-9.71677
-11.0381
-12.1995
-12.7297
-11.4456
-9.55914
-7.16337
-4.2692
-1.72504
0.732025
2.74483
4.21
5.30009
5.83935
6.18896
6.20078
6.14335
6.04363
5.74138
5.88289
5.42632
5.9224
0.0252907
0.0642604
0.102856
0.137372
0.168866
0.197557
0.22308
0.246006
0.266202
0.284244
0.300423
0.315447
0.329979
0.344855
0.360788
0.378296
0.397483
0.418025
0.439259
0.460433
0.48103
0.50131
0.523282
0.552047
0.594994
0.655283
0.726687
0.802398
0.877065
0.942839
0.993222
1.02232
1.0271
1.00797
0.967365
0.909055
0.838064
0.76177
0.691401
0.635714
0.589469
0.543453
0.489203
0.414362
0.306348
0.150739
-0.0695349
-0.374547
-0.786711
-1.33029
-2.02861
-2.89907
-3.94853
-5.17532
-6.69416
-8.50528
-8.86
-10.4328
-11.7817
-13.1772
-13.8256
-12.346
-10.2634
-7.62787
-4.49282
-1.77687
0.840809
2.96109
4.49619
5.62561
6.17382
6.5282
6.52632
6.47073
6.35057
6.0327
6.16053
5.68529
6.1606
0.0258385
0.0675964
0.107664
0.14424
0.177254
0.207527
0.234336
0.258445
0.279619
0.298507
0.315392
0.331038
0.346151
0.361642
0.378289
0.396665
0.41688
0.438567
0.460973
0.483219
0.504642
0.525347
0.547356
0.576359
0.620939
0.684606
0.759617
0.838068
0.91365
0.977776
1.02436
1.04913
1.05129
1.03213
0.993207
0.93636
0.864787
0.785489
0.711787
0.655044
0.609648
0.565446
0.513011
0.438621
0.328515
0.167024
-0.064176
-0.386418
-0.823062
-1.39898
-2.13771
-3.0573
-4.16659
-5.45536
-7.02471
-8.89487
-8.82874
-11.2071
-12.5626
-14.2143
-15.0198
-13.3188
-11.0172
-8.11321
-4.71776
-1.82195
0.961733
3.1895
4.7929
5.95795
6.51185
6.86775
6.85118
6.79765
6.6545
6.32363
6.43402
5.9444
6.37878
0.0263348
0.0709639
0.112444
0.151098
0.185609
0.217462
0.245543
0.270822
0.292955
0.312666
0.330229
0.346462
0.362121
0.378192
0.395529
0.41476
0.436007
0.458854
0.482449
0.505777
0.528001
0.549028
0.570849
0.599787
0.645801
0.712671
0.790677
0.870694
0.945421
1.0059
1.04748
1.06843
1.06984
1.05288
1.01746
0.963148
0.89132
0.808865
0.731829
0.674595
0.630838
0.589244
0.539254
0.4657
0.353601
0.186051
-0.0564384
-0.396265
-0.857437
-1.46519
-2.24325
-3.21079
-4.37883
-5.73309
-7.34447
-9.19101
-9.24756
-11.9594
-13.4257
-15.3142
-16.3224
-14.3731
-11.8285
-8.62288
-4.94458
-1.85971
1.09571
3.4309
5.10069
6.2973
6.85319
7.20728
7.17604
7.12347
6.95513
6.61412
6.70309
6.19913
6.61286
0.0267803
0.0743667
0.1172
0.157951
0.193936
0.227368
0.256704
0.28314
0.306212
0.326722
0.344931
0.361718
0.377883
0.394498
0.412496
0.432569
0.454852
0.478877
0.503684
0.528107
0.551114
0.572358
0.593733
0.622238
0.669382
0.739068
0.819107
0.899123
0.970861
1.02586
1.06225
1.08097
1.08393
1.07128
1.04085
0.989869
0.917874
0.831933
0.751505
0.69442
0.653177
0.615043
0.56811
0.495666
0.381455
0.207383
-0.0470484
-0.405027
-0.890882
-1.53002
-2.34653
-3.36114
-4.58755
-6.01082
-7.67355
-9.57062
-10.2734
-12.4849
-14.3737
-16.4831
-17.7446
-15.5185
-12.7055
-9.16084
-5.17414
-1.88957
1.2437
3.68617
5.42012
6.64384
7.19752
7.54634
7.50133
7.44762
7.25226
6.90419
6.96744
6.45248
6.83006
0.0271753
0.0778088
0.121936
0.164804
0.202241
0.237248
0.267824
0.295403
0.319392
0.340676
0.3595
0.3768
0.393431
0.41055
0.429178
0.450081
0.473405
0.498628
0.524673
0.550212
0.57399
0.595342
0.615968
0.64357
0.691362
0.763192
0.843949
0.921972
0.988429
1.03696
1.06929
1.08804
1.09484
1.08826
1.06399
1.01684
0.944555
0.854611
0.770677
0.714471
0.676718
0.642943
0.599604
0.528338
0.411557
0.230102
-0.0372811
-0.414211
-0.925004
-1.59516
-2.44938
-3.51055
-4.79546
-6.29084
-8.02232
-10.0302
-11.4088
-12.5577
-15.3789
-17.7241
-19.2981
-16.7652
-13.6571
-9.73147
-5.40773
-1.91093
1.40666
3.9562
5.75174
6.99769
7.54441
7.88441
7.82637
7.76984
7.5458
7.1938
7.22666
6.70267
7.04163
0.0275195
0.081294
0.126657
0.17166
0.210527
0.247107
0.278907
0.307613
0.332497
0.354528
0.373932
0.391707
0.408757
0.426337
0.445564
0.46728
0.491653
0.518097
0.545412
0.572094
0.596641
0.617979
0.637491
0.663559
0.711257
0.784282
0.86406
0.937653
0.997001
1.03953
1.06998
1.09115
1.10369
1.10455
1.08729
1.04429
0.971382
0.876719
0.789102
0.734615
0.701429
0.672925
0.63355
0.563182
0.442891
0.252701
-0.0290132
-0.425862
-0.961841
-1.66258
-2.55387
-3.66137
-5.00534
-6.57552
-8.39049
-10.5026
-12.1267
-12.505
-16.4829
-19.0536
-20.9936
-18.1233
-14.6929
-10.3395
-5.64715
-1.92324
1.5856
4.24193
6.09611
7.35898
7.89337
8.22095
8.1504
8.08996
7.83536
7.48289
7.48054
6.94855
7.26625
0.0278123
0.0848259
0.131365
0.178525
0.218799
0.256947
0.289954
0.319773
0.345529
0.368278
0.388228
0.406433
0.423856
0.441849
0.461638
0.484153
0.509582
0.537274
0.565897
0.593755
0.619072
0.640259
0.658185
0.681845
0.728442
0.80149
0.87802
0.944662
0.99646
1.03494
1.06603
1.09165
1.11138
1.1207
1.11108
1.07237
0.99833
0.897998
0.80645
0.754649
0.727196
0.704813
0.669459
0.59919
0.473831
0.273031
-0.0246703
-0.442389
-1.00359
-1.73429
-2.66197
-3.81573
-5.21964
-6.86744
-8.77651
-10.9797
-12.644
-12.8272
-17.6216
-20.5408
-22.8438
-19.6026
-15.8226
-10.9898
-5.89465
-1.92596
1.78156
4.5443
6.45379
7.72779
8.24381
8.55534
8.47259
8.40757
8.12034
7.7718
7.72892
7.19364
7.46792
0.0280526
0.0884082
0.136065
0.1854
0.22706
0.266773
0.300971
0.331885
0.358489
0.381928
0.402385
0.420976
0.438718
0.457075
0.477387
0.500684
0.527177
0.556148
0.586119
0.615193
0.641284
0.662139
0.677827
0.697914
0.742269
0.8138
0.884147
0.942256
0.98795
1.02509
1.05905
1.09061
1.1186
1.13714
1.13565
1.10125
1.02535
0.918126
0.822323
0.774316
0.753819
0.73822
0.706429
0.634749
0.50207
0.288359
-0.0270159
-0.466233
-1.05224
-1.81193
-2.77519
-3.97519
-5.44025
-7.16911
-9.18195
-11.4868
-13.2827
-13.9224
-18.6107
-22.2379
-24.8648
-21.2128
-17.0563
-11.6876
-6.15243
-1.91857
1.99555
4.86427
6.82534
8.10415
8.59504
8.88691
8.79204
8.72148
8.40162
8.06067
7.9718
7.43374
7.67452
0.0282388
0.0920447
0.140759
0.19229
0.235315
0.276587
0.311959
0.343951
0.371379
0.395477
0.416403
0.43533
0.453337
0.472002
0.492795
0.516856
0.544422
0.574704
0.606069
0.6364
0.663255
0.6835
0.696028
0.711221
0.752142
0.819754
0.881005
0.931074
0.973489
1.01186
1.05031
1.08885
1.12582
1.15418
1.16124
1.13109
1.0524
0.936731
0.836266
0.793324
0.780999
0.772466
0.743015
0.667551
0.52466
0.295593
-0.03876
-0.499429
-1.10918
-1.89648
-2.8943
-4.14047
-5.66817
-7.48217
-9.60773
-12.038
-14.0877
-15.465
-19.178
-24.125
-27.0717
-22.9625
-18.4041
-12.4382
-6.42191
-1.90067
2.22864
5.20285
7.21132
8.48808
8.94627
9.21493
9.10786
9.03042
8.6824
8.34802
8.20948
7.66739
7.89802
0.0283689
0.0957389
0.145449
0.199198
0.243565
0.286393
0.32292
0.355972
0.3842
0.408926
0.430279
0.449491
0.467703
0.486617
0.507845
0.532649
0.5613
0.592927
0.62573
0.657351
0.684908
0.704062
0.712244
0.721443
0.757261
0.817548
0.868335
0.913068
0.955237
0.996722
1.04071
1.0869
1.13342
1.17214
1.18816
1.16213
1.07946
0.953397
0.847792
0.811363
0.808298
0.806463
0.777107
0.694578
0.538221
0.291721
-0.0620523
-0.543198
-1.17494
-1.98803
-3.01913
-4.31124
-5.90324
-7.80706
-10.0548
-12.638
-15.001
-16.8883
-19.4489
-26.2626
-29.4779
-24.857
-19.8751
-13.2468
-6.70385
-1.87201
2.48188
5.56102
7.61228
8.87954
9.29663
9.53856
9.41915
9.33363
8.96547
8.63211
8.4421
7.90144
8.09302
0.0284407
0.0994946
0.150138
0.206126
0.251814
0.296192
0.333858
0.367951
0.396953
0.422273
0.444011
0.463455
0.481809
0.500907
0.522519
0.548045
0.57779
0.610797
0.645077
0.677986
0.706047
0.7233
0.725977
0.72834
0.756015
0.805933
0.847518
0.890672
0.934945
0.980744
1.0309
1.08517
1.14171
1.19134
1.21675
1.19468
1.10654
0.967675
0.856402
0.828114
0.83508
0.838579
0.80583
0.712243
0.539396
0.274399
-0.0980121
-0.597671
-1.24901
-2.08565
-3.14839
-4.48593
-6.14389
-8.14267
-10.5234
-13.2867
-15.9719
-18.0627
-19.9571
-28.8189
-32.1295
-26.9019
-21.4768
-14.1186
-6.9992
-1.83244
2.75634
5.93978
8.0288
9.27845
9.64511
9.85687
9.72487
9.63058
9.25113
8.91236
8.66974
8.12626
8.30794
0.0284512
0.103315
0.154827
0.213077
0.260065
0.305988
0.344774
0.379889
0.409638
0.43552
0.457599
0.477217
0.495644
0.514856
0.536797
0.56302
0.593869
0.628284
0.664058
0.698167
0.726239
0.740497
0.737048
0.730976
0.745907
0.785169
0.821224
0.866101
0.913801
0.964606
1.02127
1.08396
1.15099
1.21215
1.24748
1.22917
1.13371
0.979084
0.861612
0.843261
0.860417
0.866467
0.825554
0.716808
0.525526
0.242511
-0.146448
-0.661793
-1.32977
-2.18726
-3.27953
-4.66155
-6.38691
-8.48614
-11.0127
-13.9849
-17.0061
-19.3331
-21.206
-31.7497
-35.1174
-29.1075
-23.2149
-15.0583
-7.30899
-1.78156
3.05314
6.34017
8.46142
9.68469
9.99061
10.1689
10.024
9.92087
9.5384
9.18879
8.89248
8.34836
8.50853
0.0283972
0.107205
0.159519
0.220054
0.268319
0.31578
0.35567
0.391786
0.422255
0.448665
0.471039
0.490771
0.5092
0.52845
0.550658
0.577549
0.609506
0.645345
0.682579
0.717589
0.744724
0.755074
0.745512
0.728428
0.726412
0.757241
0.791704
0.840642
0.89259
0.948759
1.01212
1.08356
1.16162
1.23503
1.28091
1.26614
1.16111
0.987113
0.862996
0.856502
0.882921
0.886859
0.832148
0.705136
0.495352
0.196491
-0.205812
-0.733333
-1.41446
-2.28955
-3.4086
-4.83357
-6.62742
-8.8327
-11.5191
-14.731
-18.1147
-20.8457
-23.4547
-34.9228
-38.4979
-31.486
-25.0946
-16.0697
-7.63356
-1.71853
3.37356
6.76325
8.91074
10.0981
10.3319
10.4734
10.3152
10.2043
9.82595
9.46126
9.11019
8.56859
8.70438
0.028275
0.111168
0.164214
0.227057
0.276579
0.325572
0.366546
0.403644
0.434806
0.461707
0.48433
0.504114
0.522465
0.541669
0.564077
0.591602
0.624662
0.661912
0.700444
0.73565
0.760576
0.76674
0.74958
0.714609
0.69394
0.725365
0.76101
0.815273
0.871624
0.933478
1.00373
1.08429
1.17401
1.26053
1.31774
1.30629
1.18891
0.991222
0.860255
0.867554
0.900409
0.895479
0.821719
0.675592
0.449429
0.138321
-0.273318
-0.808941
-1.49916
-2.3879
-3.53026
-4.99602
-6.85907
-9.17594
-12.0367
-15.5185
-19.297
-22.61
-26.5597
-38.1479
-42.2313
-34.0336
-27.1178
-17.1558
-7.97231
-1.64194
3.71905
7.21015
9.37734
10.5184
10.6675
10.7693
10.5975
10.4807
10.1122
9.72932
9.32281
8.78645
8.91725
0.0280803
0.115208
0.168914
0.234089
0.284846
0.335364
0.377404
0.415461
0.447289
0.474646
0.49747
0.517239
0.535429
0.554497
0.577028
0.605142
0.639283
0.677863
0.717264
0.751415
0.773041
0.774843
0.746841
0.686603
0.655946
0.690627
0.729131
0.790394
0.851242
0.919012
0.996386
1.08652
1.18862
1.28929
1.35882
1.35048
1.21733
0.990811
0.853403
0.876044
0.90931
0.887461
0.791786
0.628683
0.390102
0.0712995
-0.345109
-0.884233
-1.57887
-2.47662
-3.63819
-5.14215
-7.07483
-9.50862
-12.5576
-16.3378
-20.5436
-24.5919
-30.2818
-41.267
-46.259
-36.7366
-29.2802
-18.3165
-8.32411
-1.54993
4.09141
7.68221
9.86186
10.9455
10.996
11.0552
10.8695
10.7502
10.3953
9.99233
9.53021
9.01011
9.0921
0.0278084
0.119329
0.173618
0.24115
0.293121
0.345157
0.388244
0.427238
0.459704
0.487481
0.510456
0.53014
0.54808
0.566911
0.589476
0.618122
0.653285
0.692967
0.732354
0.763951
0.781892
0.779033
0.733204
0.649655
0.618483
0.654794
0.698036
0.766294
0.831674
0.905671
0.990426
1.09066
1.20601
1.32208
1.40517
1.39978
1.24655
0.985233
0.843127
0.880846
0.904162
0.858699
0.742374
0.567063
0.321137
-0.000259908
-0.416445
-0.95397
-1.64778
-2.54946
-3.7259
-5.26547
-7.26824
-9.82396
-13.0735
-17.1767
-21.838
-26.7418
-34.3253
-44.2715
-50.5129
-39.5758
-31.5725
-19.5494
-8.68829
-1.4402
4.49296
8.18099
10.365
11.3788
11.3157
11.3298
11.1299
11.0128
10.6734
10.2493
9.73216
9.23254
9.27758
0.0274539
0.123534
0.178328
0.248242
0.301404
0.35495
0.399066
0.438974
0.472049
0.500209
0.523284
0.542812
0.560404
0.578886
0.601382
0.630475
0.666525
0.706792
0.744833
0.77309
0.788113
0.778549
0.705967
0.611814
0.580035
0.616748
0.667771
0.743092
0.813294
0.893789
0.986233
1.09717
1.22679
1.35978
1.45801
1.45537
1.27644
0.974024
0.831083
0.878479
0.878299
0.807756
0.676272
0.495006
0.247266
-0.0713244
-0.481973
-1.01244
-1.69998
-2.60054
-3.78792
-5.36112
-7.43475
-10.1168
-13.5769
-18.022
-23.1605
-29.0136
-38.4319
-47.3737
-55.0046
-42.5482
-33.9813
-20.85
-9.06457
-1.30987
4.92669
8.70849
10.8878
11.818
11.6248
11.5916
11.3776
11.2685
10.9446
10.4991
9.92856
9.44939
9.48433
0.0270109
0.127829
0.183042
0.255363
0.309695
0.364743
0.409868
0.450667
0.484322
0.512829
0.535953
0.555247
0.572385
0.590392
0.612691
0.642106
0.678755
0.718678
0.754177
0.780051
0.794341
0.766627
0.674687
0.573845
0.541022
0.577725
0.638917
0.721041
0.796435
0.883715
0.984216
1.10656
1.25165
1.4034
1.51875
1.51846
1.30612
0.957833
0.819101
0.861414
0.826508
0.737034
0.59832
0.417711
0.173769
-0.13648
-0.536154
-1.05414
-1.73032
-2.6255
-3.82095
-5.42676
-7.57224
-10.3838
-14.0617
-18.8614
-24.4922
-31.3732
-42.4371
-50.913
-59.7845
-45.6614
-36.4846
-22.21
-9.45099
-1.15486
5.39638
9.26725
11.4313
12.2627
11.9213
11.8391
11.6112
11.5172
11.2071
10.7405
10.1195
9.67554
9.64587
0.0264728
0.132218
0.187761
0.262514
0.317994
0.374534
0.420649
0.462314
0.496521
0.525337
0.548457
0.567436
0.584002
0.601386
0.62333
0.652862
0.68956
0.727995
0.760858
0.786392