/*--------------------------------*- C++ -*----------------------------------*\
| =========                 |                                                 |
| \\      /  F ield         | OpenFOAM: The Open Source CFD Toolbox           |
|  \\    /   O peration     | Version:  4.1                                   |
|   \\  /    A nd           | Web:      www.OpenFOAM.org                      |
|    \\/     M anipulation  |                                                 |
\*---------------------------------------------------------------------------*/
FoamFile
{
    version     2.0;
    format      ascii;
    class       volVectorField;
    location    "14";
    object      U;
}
// * * * * * * * * * * * * * * * * * * * * * * * * * * * * * * * * * * * * * //

dimensions      [0 1 -1 0 0 0 0];

internalField   nonuniform List<vector> 
6785
(
(1.18543e-14 -2.02386 16.4422)
(1.10364e-14 -7.69789 12.9094)
(-2.66693e-15 -5.07014 13.6249)
(4.07333e-15 -4.89701 13.1945)
(8.7434e-16 -4.14956 13.0438)
(-1.32903e-16 -3.69621 12.7714)
(2.50354e-15 -3.26761 12.4775)
(6.54077e-16 -2.93855 12.1289)
(-5.07873e-16 -2.69915 11.7472)
(1.69608e-15 -2.57986 11.3565)
(1.54345e-16 -2.55029 11.0263)
(-4.78998e-16 -2.65319 10.7709)
(7.35908e-16 -3.21293 10.2891)
(-2.18885e-16 -3.24253 9.42385)
(-2.36171e-16 0.0644019 7.47207)
(1.76059e-14 -9.76323 26.834)
(1.38674e-14 -16.5029 23.021)
(-2.52972e-15 -11.2844 23.431)
(5.32718e-15 -12.1148 21.6342)
(9.2542e-16 -10.5327 20.7513)
(1.20428e-15 -9.93408 19.5439)
(2.1879e-15 -9.05388 18.4492)
(3.62692e-16 -8.34392 17.3243)
(4.51953e-16 -7.64239 16.2253)
(1.31653e-15 -6.99394 15.1197)
(8.23618e-17 -6.32917 13.9567)
(2.10352e-16 -5.46295 12.4145)
(3.13319e-16 -3.98443 9.46278)
(-7.0932e-16 -1.31496 4.02566)
(-5.31565e-16 1.14349 -1.85207)
(2.03755e-14 -12.106 27.8705)
(1.33813e-14 -17.0986 24.5372)
(-2.08683e-15 -11.7783 24.636)
(5.35087e-15 -13.1815 21.9729)
(1.09427e-15 -11.0082 20.9544)
(1.75151e-15 -10.6483 19.1376)
(2.15719e-15 -9.58188 17.7239)
(3.92062e-16 -8.93323 16.25)
(5.46997e-16 -8.27351 14.9836)
(1.16764e-15 -7.74463 13.7811)
(3.93227e-16 -7.16464 12.4772)
(2.78955e-16 -6.28567 10.7283)
(-1.24999e-16 -4.76816 7.69011)
(-4.57809e-16 -1.34457 2.4938)
(-1.50429e-15 0.863137 -4.66051)
(2.25311e-14 -12.6657 26.8649)
(1.24165e-14 -16.611 24.1087)
(-1.55812e-15 -11.8029 23.8947)
(4.58046e-15 -13.4115 20.8248)
(3.11916e-16 -10.8319 19.9026)
(2.27418e-15 -10.7277 17.7351)
(1.423e-15 -9.37846 16.2979)
(-5.93467e-16 -8.69368 14.6265)
(8.31401e-16 -7.85044 13.189)
(-1.76215e-16 -7.31643 11.8127)
(-1.9872e-15 -6.91699 10.5413)
(1.6708e-16 -6.4524 9.21484)
(-1.02115e-15 -5.73936 7.50776)
(-5.15301e-15 -3.99727 5.06772)
(-3.05362e-15 -2.33558 1.9658)
(2.29874e-14 -13.3108 26.965)
(9.43526e-15 -16.1082 24.5509)
(-1.19981e-15 -12.1362 24.1495)
(2.71242e-15 -13.1389 21.348)
(-5.73829e-16 -10.6485 20.4215)
(1.41645e-15 -10.4192 18.4297)
(-4.82531e-16 -8.9238 17.142)
(-1.12796e-15 -7.84592 15.1276)
(-1.01162e-16 -5.97783 12.3544)
(-4.93466e-16 -4.16542 9.03401)
(1.24766e-15 -3.15805 6.88057)
(2.57755e-15 -3.49595 6.69974)
(-1.26823e-15 -4.60333 7.70486)
(-5.97012e-15 -5.46124 8.38862)
(-2.25442e-15 -4.43055 7.92232)
(2.30473e-14 -14.167 28.0225)
(8.17867e-15 -16.7323 26.1073)
(-9.20474e-16 -12.9373 25.4189)
(2.05724e-15 -13.7813 22.927)
(-6.48556e-16 -11.3864 22.0751)
(9.01067e-16 -11.2861 20.2539)
(-9.6261e-16 -9.78987 19.1869)
(-1.13855e-15 -8.80225 17.1486)
(-5.20997e-16 -6.50993 13.9614)
(4.71275e-16 -3.73142 9.43523)
(3.00248e-15 -0.998061 5.24006)
(3.25305e-15 0.747487 2.24627)
(8.69717e-16 0.999641 1.3354)
(-2.06937e-15 -0.522548 2.91286)
(-2.21087e-15 -1.90608 4.87066)
(2.0901e-14 -14.0674 27.1161)
(1.02329e-14 -18.1089 28.3196)
(-1.13618e-15 -13.9878 26.4259)
(1.96853e-15 -14.7295 23.8386)
(-5.3543e-16 -12.5501 22.9458)
(-7.40319e-17 -12.5886 21.0844)
(-3.76977e-16 -11.3086 20.011)
(-1.10282e-15 -10.7137 18.2833)
(-1.47149e-15 -9.18179 16.0036)
(-8.7513e-17 -7.11733 12.5709)
(4.35755e-16 -4.39162 8.54369)
(3.89248e-16 -1.56761 4.18309)
(2.63411e-15 1.59073 -0.524358)
(-7.93196e-16 3.65106 -3.8992)
(-6.90734e-15 1.84313 -3.74964)
(1.89724e-14 -12.8377 23.9165)
(1.36823e-14 -18.3904 29.0452)
(1.38051e-15 -14.7304 26.4393)
(1.67601e-15 -14.6687 23.3724)
(5.6342e-16 -12.9403 22.0956)
(8.80928e-16 -12.6786 20.2133)
(5.80241e-16 -11.6772 18.8322)
(6.21528e-17 -11.0649 17.1779)
(2.03001e-16 -10.1545 15.4145)
(4.47376e-16 -9.01253 13.2723)
(4.58625e-16 -7.52959 10.7649)
(7.34554e-16 -5.64718 7.93227)
(1.68744e-15 -3.50238 4.61245)
(2.61107e-15 -0.574798 1.27906)
(-3.98006e-15 1.24627 -4.28204)
(1.70471e-14 -11.4002 20.6898)
(1.59274e-14 -17.7044 28.5457)
(3.37932e-15 -14.7473 25.9476)
(1.86737e-15 -13.9712 22.4946)
(1.5434e-15 -12.4074 20.9091)
(1.22836e-15 -11.8807 19.039)
(1.54056e-15 -10.911 17.5168)
(1.35406e-15 -10.151 15.8618)
(6.069e-16 -9.31259 14.2408)
(1.18179e-15 -8.41139 12.5745)
(1.61122e-15 -7.42743 10.7828)
(3.57331e-16 -6.16908 8.82817)
(1.09662e-15 -4.75449 6.43478)
(2.94905e-15 -2.46934 3.50963)
(-5.44073e-15 -0.104227 -2.12396)
(1.56258e-14 -10.4483 18.7914)
(1.69824e-14 -16.9027 27.841)
(4.7759e-15 -14.5088 25.4639)
(1.49323e-15 -13.3641 21.8954)
(1.74741e-15 -11.8565 20.1309)
(1.63428e-15 -11.2229 18.3198)
(1.20737e-15 -10.2799 16.8215)
(1.57662e-15 -9.4923 15.2582)
(1.12347e-15 -8.67456 13.7669)
(6.61388e-16 -7.85233 12.3191)
(1.43397e-15 -7.04322 10.8503)
(4.92561e-16 -6.07996 9.33231)
(-8.72147e-16 -5.05199 7.52818)
(2.67714e-15 -3.36396 5.2668)
(-3.72251e-15 -0.791748 0.0219983)
(1.4149e-14 -10.0677 18.1348)
(1.80883e-14 -16.2537 27.178)
(4.03765e-15 -14.2555 24.9675)
(5.93784e-16 -12.9778 21.4004)
(2.52615e-15 -11.5281 19.5255)
(-2.18373e-16 -10.9064 17.8201)
(-3.49217e-16 -10.078 16.4316)
(1.87207e-15 -9.37782 15.0095)
(-9.67888e-16 -8.6539 13.6306)
(-2.40399e-15 -7.93404 12.2845)
(3.24931e-16 -7.25172 10.9741)
(-2.23747e-15 -6.53033 9.78671)
(-3.35581e-15 -5.84287 8.61945)
(-3.86891e-15 -4.67955 7.29517)
(-8.51931e-15 -2.25193 2.89526)
(1.45285e-14 -10.2396 18.3382)
(1.82313e-14 -15.2735 25.8686)
(1.95632e-16 -13.4919 23.7232)
(6.74039e-17 -12.3766 20.4396)
(3.5668e-15 -10.9153 18.5625)
(-3.75573e-15 -10.3171 16.8332)
(-1.80701e-15 -9.51368 15.4713)
(3.60679e-15 -8.91537 14.037)
(-2.11618e-15 -8.28331 12.6668)
(-4.94507e-15 -7.7257 11.4001)
(-1.40628e-15 -7.2975 10.4677)
(-4.99491e-15 -7.07074 10.0917)
(-5.14749e-15 -6.94208 10.1356)
(-6.99275e-15 -6.38158 9.90446)
(-1.0965e-14 -4.10404 6.29732)
(1.33527e-14 -11.0035 19.3796)
(1.63793e-14 -15.2993 25.7345)
(-2.85804e-15 -12.7201 22.5158)
(-8.48122e-16 -11.6922 19.7288)
(2.59413e-15 -10.3525 18.1947)
(-4.97861e-15 -9.61099 16.1206)
(-1.14836e-15 -8.52611 14.3637)
(6.32273e-15 -7.8435 12.6253)
(-4.23578e-15 -7.18132 11.2437)
(-4.03963e-15 -6.88181 10.3621)
(-7.86245e-16 -6.96862 10.3739)
(-8.31687e-15 -7.55173 11.3353)
(-6.55913e-15 -8.15562 12.8439)
(-7.82093e-15 -8.35812 13.4452)
(-1.34921e-14 -5.94621 10.2957)
(9.31296e-15 -9.75246 16.44)
(1.56193e-14 -16.346 26.3053)
(-5.4802e-16 -14.768 24.3648)
(-3.96914e-15 -12.208 20.0564)
(-1.68622e-15 -9.71058 17.1385)
(-4.23991e-15 -8.01176 14.5478)
(2.56629e-15 -6.22871 12.4409)
(3.43126e-15 -4.90629 10.51)
(8.09892e-17 -3.8161 9.11277)
(-1.34434e-17 -3.40481 8.53692)
(-2.8711e-15 -3.84346 9.28486)
(-5.72415e-15 -5.18613 11.2736)
(-6.39455e-15 -6.88622 13.6667)
(-9.65985e-15 -7.8932 14.4969)
(-1.0402e-14 -5.33326 10.1512)
(2.49747e-15 -5.98543 10.5013)
(1.09506e-14 -14.8031 22.3491)
(9.4168e-15 -18.7131 26.9785)
(5.52102e-15 -19.7268 27.3934)
(2.93773e-15 -18.9346 25.9029)
(5.01816e-16 -17.372 23.1709)
(7.07551e-16 -15.1263 20.003)
(6.9982e-16 -12.776 16.9218)
(9.15182e-16 -10.4196 13.9617)
(9.1972e-16 -8.14227 11.2524)
(-7.26177e-16 -6.15493 9.01421)
(-1.07529e-15 -4.78777 7.51119)
(-2.90379e-15 -4.42373 7.33442)
(-6.60623e-15 -4.68281 7.54682)
(-4.87535e-15 -2.10999 3.89326)
(-4.9379e-17 11.5532 50.8841)
(-2.07496e-15 -0.033406 5.62714)
(-1.89932e-15 -0.528705 -3.12979)
(-1.74719e-15 -0.324469 -2.15623)
(-1.68645e-15 -0.162919 -2.46006)
(-2.22183e-15 0.358847 -3.19328)
(-1.70519e-15 0.152412 -2.24326)
(-1.73569e-15 0.376342 -2.22878)
(-2.0191e-15 0.527326 -2.14187)
(-1.02223e-15 0.879297 -2.67892)
(-3.3421e-16 0.757928 -1.88694)
(-4.85012e-16 0.937115 -1.79369)
(-1.1836e-15 1.31778 -2.24178)
(-9.28296e-16 1.10616 -1.56863)
(-9.56801e-16 1.3121 -1.54623)
(-9.48611e-16 1.35116 -1.50434)
(-1.64826e-15 1.71319 -1.83454)
(-1.17026e-15 1.46358 -1.29888)
(-1.13015e-15 1.61428 -1.24681)
(-1.74507e-15 2.02051 -1.48215)
(-1.32878e-15 1.62095 -1.06508)
(-1.39718e-15 1.84026 -1.06224)
(-1.2498e-15 1.81832 -1.05565)
(-1.88442e-15 2.22632 -1.22507)
(-1.48855e-15 1.77655 -0.905055)
(-1.50319e-15 1.99424 -0.897848)
(-1.60332e-15 1.96172 -0.883323)
(-2.28244e-15 2.31097 -0.973511)
(-1.88334e-15 1.86747 -0.722995)
(-1.75051e-15 1.98891 -0.684458)
(-2.38555e-15 2.36289 -0.66643)
(-1.82492e-15 1.80075 -0.482203)
(-1.69687e-15 1.99067 -0.43653)
(-1.61138e-15 1.93377 -0.390141)
(-2.14648e-15 2.2148 -0.241867)
(-1.31939e-15 1.74959 -0.138353)
(-1.00703e-15 1.82603 -0.102921)
(-1.11086e-15 2.12199 0.153987)
(-3.60528e-16 1.58556 0.138296)
(-1.29697e-16 1.71958 0.174209)
(2.6907e-16 1.63149 0.185602)
(7.65187e-16 1.86741 0.491121)
(9.01468e-16 1.40434 0.366557)
(1.08604e-15 1.50988 0.382373)
(1.19296e-15 1.41667 0.378554)
(2.04069e-15 1.60584 0.656875)
(1.46248e-15 1.31994 0.545997)
(1.46587e-15 1.32573 0.504269)
(2.11581e-15 1.5365 0.784538)
(1.84172e-15 1.24526 0.603934)
(1.86238e-15 1.3033 0.571899)
(1.76157e-15 1.21868 0.509673)
(2.31176e-15 1.30044 0.786013)
(1.61158e-15 1.01511 0.486613)
(1.39409e-15 1.04819 0.431004)
(1.40548e-15 1.00744 0.391462)
(1.6889e-15 0.940593 0.408103)
(1.28663e-15 0.633852 -0.0525332)
(7.74995e-16 0.661531 -0.0159727)
(1.01385e-15 0.647275 -0.983304)
(8.12545e-16 0.0758834 -1.47698)
(8.98096e-16 0.173931 -1.61109)
(7.9824e-16 0.34774 -1.63633)
(3.70836e-15 0.730562 -3.01623)
(-5.79079e-16 -0.648479 -0.174559)
(-2.30542e-16 -0.0854491 -0.547142)
(-1.23937e-15 -0.734878 1.43007)
(-1.763e-15 -1.51402 2.89832)
(-2.01791e-15 -1.61535 2.79008)
(-2.50153e-15 -1.59571 3.05178)
(-4.28211e-15 -2.85731 5.94166)
(-3.87229e-15 -3.38034 5.69109)
(-4.32366e-15 -3.83494 5.88059)
(-4.59e-15 -3.80459 6.18251)
(-6.09476e-15 -5.99123 10.0327)
(-4.35273e-15 -6.16748 8.3108)
(-4.44035e-15 -6.29914 8.85817)
(-4.94114e-15 -8.99311 13.0733)
(-3.05277e-15 -8.76438 10.0449)
(-2.65638e-15 -9.27428 10.5784)
(-2.86509e-15 -9.90125 12.2849)
(-2.21571e-15 -9.8522 12.1953)
(-1.87539e-15 -9.94128 12.5775)
(-8.81619e-17 -11.8832 15.4373)
(-2.5136e-16 -10.7585 13.5098)
(2.90792e-17 -11.0567 14.0751)
(1.99111e-16 -11.0096 14.1328)
(4.08674e-16 -11.1157 14.2358)
(5.25694e-16 -11.1525 14.375)
(6.09433e-16 -11.243 14.5757)
(8.07648e-16 -11.3495 14.8309)
(1.11169e-15 -11.3557 15.0705)
(2.0845e-15 -12.5734 17.0832)
(1.59345e-15 -11.9291 15.5513)
(1.68802e-15 -12.1264 15.7414)
(1.71437e-15 -12.1017 15.8493)
(1.97028e-15 -12.2636 16.1025)
(2.03023e-15 -12.2659 16.057)
(2.11357e-15 -12.3933 16.1609)
(2.17767e-15 -12.4843 16.2416)
(2.21966e-15 -12.5119 16.3923)
(3.03343e-15 -13.3867 18.2788)
(2.81049e-15 -12.8147 17.0995)
(2.96076e-15 -12.9565 17.3183)
(3.02154e-15 -12.9962 17.427)
(3.0714e-15 -13.0829 17.6362)
(3.15056e-15 -13.1315 17.9807)
(3.29638e-15 -13.2564 18.3726)
(3.36017e-15 -13.2753 18.4934)
(3.39403e-15 -13.3895 18.6492)
(3.39024e-15 -13.4417 18.7347)
(3.67453e-15 -13.4741 19.47)
(3.09312e-15 -13.1989 18.9085)
(3.13429e-15 -13.2684 18.9713)
(3.13426e-15 -13.2965 18.957)
(3.17691e-15 -13.3738 18.9947)
(3.24171e-15 -13.3765 19.0783)
(3.32129e-15 -13.4676 19.4145)
(3.45878e-15 -13.4589 19.4709)
(3.63024e-15 -13.5554 19.3972)
(4.37301e-15 -12.4791 18.3611)
(3.93663e-15 -12.6295 18.8047)
(4.24793e-15 -12.5666 19.1733)
(4.3849e-15 -12.6177 19.5709)
(4.53182e-15 -12.5444 19.6349)
(4.68194e-15 -12.5827 19.7832)
(4.83316e-15 -12.5718 19.8456)
(4.99144e-15 -12.4936 19.873)
(5.11776e-15 -12.7192 20.0765)
(5.49225e-15 -10.0457 16.5114)
(5.19921e-15 -11.0378 18.1967)
(5.20529e-15 -10.8622 17.7241)
(5.27799e-15 -10.8645 17.4965)
(5.58356e-15 -10.8034 17.4124)
(5.63731e-15 -10.7349 17.081)
(5.71993e-15 -10.6021 16.7392)
(5.9092e-15 -10.4893 16.4607)
(6.14526e-15 -10.5446 16.1167)
(6.80453e-15 -7.34129 12.1029)
(7.27328e-15 -8.58256 15.5125)
(7.44367e-15 -8.20565 15.2395)
(7.61493e-15 -8.22672 15.2234)
(7.70721e-15 -8.02311 14.8913)
(7.74508e-15 -8.00779 14.3711)
(8.00929e-15 -7.76658 13.5538)
(7.36413e-15 -7.68411 12.8544)
(6.79536e-15 -7.42522 11.7495)
(5.9893e-15 -7.28262 10.413)
(3.22817e-15 -3.85541 3.46892)
(4.51747e-15 -5.54372 7.07632)
(3.52708e-15 -5.02057 5.1023)
(2.99329e-15 -5.15695 4.40007)
(2.2253e-15 -4.79671 3.27067)
(1.48854e-15 -4.71524 2.30882)
(4.5927e-16 -4.51475 0.896489)
(-3.33315e-16 -4.17297 -0.213368)
(-6.87791e-17 -4.15782 0.182052)
(-6.5167e-16 -3.53594 -1.92688)
(-4.02923e-16 -3.6334 -0.0919673)
(-3.97606e-16 -3.52323 -0.282118)
(-5.7017e-16 -2.47808 -1.90313)
(-8.2796e-16 -3.9776 -1.68437)
(-9.01961e-16 -2.97828 -1.35271)
(-7.35026e-16 -2.68177 -0.950167)
(-9.86588e-16 -3.34195 -1.31599)
(-7.11338e-16 -2.25928 -0.80145)
(-1.05785e-15 -2.88659 -1.1887)
(-7.35922e-16 -2.57259 -0.868556)
(-5.90817e-16 -2.08313 -0.635089)
(-8.84539e-16 -2.49887 -0.930905)
(-8.16881e-16 -2.27241 -0.699344)
(-7.30621e-16 -1.91036 -0.511589)
(-1.07675e-15 -2.53171 -0.722213)
(-8.77618e-16 -1.6787 -0.45772)
(-1.17652e-15 -2.21306 -0.693785)
(-8.63164e-16 -1.93162 -0.542144)
(-7.67441e-16 -1.65689 -0.405846)
(-9.77671e-16 -2.21854 -0.579153)
(-6.18278e-16 -1.45163 -0.376473)
(-9.48021e-16 -1.95445 -0.56866)
(-8.08075e-16 -1.78318 -0.464424)
(-6.71836e-16 -1.4208 -0.350787)
(-9.37602e-16 -1.76691 -0.527147)
(-7.94172e-16 -1.63156 -0.430068)
(-5.73591e-16 -1.35953 -0.321133)
(-8.47533e-16 -1.86963 -0.456362)
(-6.37298e-16 -1.20591 -0.301515)
(-9.25089e-16 -1.64344 -0.453462)
(-5.17276e-16 -1.44115 -0.374024)
(-4.91276e-16 -1.22276 -0.280737)
(-6.59982e-16 -1.68982 -0.397909)
(-5.03841e-16 -1.07086 -0.263281)
(-7.49502e-16 -1.48923 -0.39292)
(-6.33484e-16 -1.35544 -0.332145)
(-3.7823e-16 -1.05966 -0.249636)
(-5.62962e-16 -1.35029 -0.372497)
(-3.65622e-16 -1.2358 -0.310885)
(-2.3908e-16 -1.01408 -0.230177)
(-3.76841e-16 -1.43723 -0.324048)
(-2.80999e-16 -0.888391 -0.215642)
(-4.35592e-16 -1.25514 -0.32309)
(-4.26329e-16 -1.07482 -0.276989)
(-5.44205e-16 -0.896159 -0.208273)
(-6.48441e-16 -1.28111 -0.295272)
(-3.21855e-16 -0.764527 -0.200129)
(-5.27842e-16 -1.11473 -0.301143)
(-4.87189e-16 -0.982997 -0.270008)
(-2.52227e-16 -0.738176 -0.206703)
(-4.04325e-16 -0.979228 -0.311668)
(-3.23992e-16 -0.861882 -0.274582)
(-2.67673e-16 -0.675944 -0.207086)
(-3.82212e-16 -1.02132 -0.289879)
(-4.681e-16 -0.55252 -0.201317)
(-5.25209e-16 -0.863619 -0.303094)
(-6.57975e-17 -0.679273 -0.273978)
(-6.15779e-17 -0.528187 -0.209978)
(-7.07696e-17 -0.8456 -0.293028)
(1.81024e-16 -0.389237 -0.207858)
(2.54679e-16 -0.701764 -0.315809)
(2.76011e-16 -0.544435 -0.298237)
(2.2194e-16 -0.320212 -0.23326)
(4.16383e-16 -0.55816 -0.350471)
(8.81285e-16 -0.397029 -0.319791)
(1.02134e-16 -0.216329 -0.237846)
(1.44868e-16 -0.584206 -0.321381)
(-3.21778e-16 -0.0411533 -0.225012)
(-4.41561e-16 -0.47472 -0.348844)
(-5.00818e-16 -0.154656 -0.33108)
(7.51757e-17 0.0599046 -0.232105)
(-2.63668e-16 -0.808305 -0.28315)
(-5.48354e-16 0.516181 -0.112203)
(-6.83896e-16 -0.354899 -0.303939)
(2.02952e-15 -0.515455 -0.518096)
(2.09891e-15 0.412432 -0.398254)
(2.03786e-15 0.161997 -0.435646)
(1.31617e-15 -0.189583 -0.683403)
(6.73327e-16 0.525429 -0.508565)
(6.86709e-16 0.0720711 -0.795816)
(4.03493e-16 0.53499 -0.607119)
(2.95429e-16 0.512886 -0.741847)
(8.92045e-36 0.537347 0.629498)
(1.22716e-35 0.626183 0.627994)
(-2.92797e-35 0.677539 0.632728)
(-2.04345e-34 0.729516 0.636953)
(-5.51121e-34 0.778428 0.643845)
(-5.03849e-34 0.824247 0.651501)
(2.26443e-33 0.868034 0.660742)
(1.16638e-32 0.909588 0.671028)
(2.4104e-32 0.949324 0.682538)
(6.72304e-34 0.987302 0.695099)
(-1.56921e-31 1.02372 0.708728)
(-5.00326e-31 1.05871 0.723361)
(-6.15282e-31 1.09243 0.738988)
(7.91592e-31 1.12506 0.755584)
(4.73038e-30 1.15675 0.773147)
(9.62648e-30 1.1877 0.79167)
(2.59322e-29 1.21806 0.811156)
(1.54519e-28 1.24798 0.831603)
(6.55925e-28 1.27757 0.853009)
(1.02419e-27 1.30694 0.875372)
(-5.78994e-27 1.33617 0.898696)
(-5.06636e-26 1.36541 0.923005)
(-2.01485e-25 1.39485 0.948351)
(-4.04816e-25 1.42485 0.97483)
(5.18401e-25 1.45585 1.00258)
(8.14535e-24 1.4884 1.03173)
(3.73196e-23 1.52293 1.06241)
(9.97002e-23 1.55965 1.09465)
(8.97456e-23 1.59851 1.12843)
(-6.46457e-22 1.63924 1.16361)
(-4.30089e-21 1.6813 1.19995)
(-1.54427e-20 1.72393 1.23713)
(-3.66166e-20 1.76619 1.27474)
(-4.11412e-20 1.80702 1.31237)
(1.20331e-19 1.84537 1.34976)
(9.61652e-19 1.8803 1.38709)
(3.86633e-18 1.91111 1.4255)
(1.19486e-17 1.9373 1.46777)
(3.12127e-17 1.95845 1.51909)
(7.16287e-17 1.97389 1.5875)
(1.47344e-16 1.98243 1.6831)
(2.75104e-16 1.9827 1.8155)
(4.70552e-16 1.97393 1.98951)
(7.43331e-16 1.95672 2.20071)
(1.09304e-15 1.93301 2.43389)
(1.50774e-15 1.90517 2.66573)
(1.96519e-15 1.87425 2.87052)
(2.4355e-15 1.83789 3.02529)
(2.88386e-15 1.78962 3.11228)
(3.27662e-15 1.72541 3.12292)
(3.59569e-15 1.6532 3.06859)
(3.82759e-15 1.53179 2.94846)
(3.838e-15 1.05762 2.54427)
(3.33173e-15 -0.17783 1.3841)
(2.88632e-15 -1.20584 0.902268)
(2.42883e-15 -1.79406 0.677369)
(1.92541e-15 -2.2703 0.455786)
(1.41143e-15 -2.74395 0.238008)
(9.13937e-16 -3.1914 0.0477765)
(4.72778e-16 -3.5893 -0.124434)
(1.76938e-16 -3.91589 -0.245277)
(4.1193e-17 -4.20917 -0.310607)
(4.16557e-18 -4.47423 -0.344699)
(-5.32903e-19 -4.69728 -0.355652)
(-2.35883e-19 -4.85778 -0.35847)
(-2.7593e-20 -4.92675 -0.355923)
(1.05826e-21 -4.89423 -0.353938)
(7.45336e-22 -4.77278 -0.348868)
(7.49712e-23 -4.54233 -0.351913)
(-1.66998e-23 -4.23528 -0.343016)
(-2.76791e-23 -3.79337 -0.347447)
(2.02295e-23 -3.36755 -0.317797)
(-9.59541e-23 -2.7254 -0.328538)
(3.86898e-22 -2.52851 -0.259018)
(-1.95067e-21 -1.53866 -0.321859)
(2.97966e-20 -2.29121 -0.191948)
(-4.52974e-19 -1.08674 -0.358721)
(2.69039e-18 -1.80977 -0.298805)
(1.9102e-17 -5.12192 -0.437512)
(2.27884e-35 0.537804 0.667747)
(3.54785e-35 0.625809 0.66425)
(-5.96802e-35 0.676214 0.668838)
(-4.88601e-34 0.727826 0.672581)
(-1.37521e-33 0.776178 0.679429)
(-1.37385e-33 0.821612 0.687041)
(5.26408e-33 0.864973 0.696391)
(2.8397e-32 0.90616 0.706833)
(5.91905e-32 0.94553 0.718578)
(-1.12454e-33 0.983167 0.731426)
(-4.03931e-31 1.01925 0.745404)
(-1.27125e-30 1.05392 0.760443)
(-1.4374e-30 1.08733 0.776541)
(2.90575e-30 1.11964 0.793679)
(1.58738e-29 1.15103 0.811855)
(3.68084e-29 1.18166 0.83107)
(9.42897e-29 1.21171 0.851322)
(3.95293e-28 1.24132 0.872606)
(1.16015e-27 1.27061 0.894915)
(-1.0635e-27 1.29967 0.918243)
(-3.00966e-26 1.32859 0.942598)
(-1.63546e-25 1.3575 0.96802)
(-4.7717e-25 1.3866 0.994593)
(-3.13912e-25 1.4162 1.02246)
(4.8033e-24 1.44677 1.05179)
(3.01589e-23 1.47885 1.08275)
(1.01492e-22 1.51288 1.11542)
(1.76207e-22 1.54909 1.14978)
(-2.40819e-22 1.58749 1.18574)
(-3.18418e-21 1.62782 1.22307)
(-1.38641e-20 1.66957 1.26144)
(-3.89269e-20 1.71201 1.30045)
(-6.49421e-20 1.75421 1.33962)
(2.80612e-20 1.79509 1.37862)
(7.11155e-19 1.83347 1.41748)
(3.35201e-18 1.86816 1.45722)
(1.11993e-17 1.898 1.50069)
(3.07893e-17 1.92179 1.5536)
(7.33704e-17 1.93821 1.62526)
(1.5539e-16 1.94579 1.7281)
(2.96755e-16 1.94324 1.87484)
(5.16127e-16 1.93026 2.07319)
(8.24289e-16 1.90866 2.31967)
(1.21852e-15 1.88246 2.59657)
(1.68095e-15 1.8566 2.87512)
(2.18133e-15 1.83483 3.12373)
(2.68225e-15 1.81773 3.31612)
(3.14422e-15 1.80135 3.43506)
(3.52948e-15 1.77685 3.47086)
(3.80587e-15 1.73565 3.42103)
(3.95487e-15 1.6839 3.30186)
(3.97243e-15 1.61347 3.13888)
(3.80938e-15 1.28225 2.77383)
(3.31877e-15 0.102252 1.61505)
(2.81674e-15 -1.19313 0.74008)
(2.40978e-15 -1.78611 0.654724)
(1.91491e-15 -2.26033 0.435015)
(1.40666e-15 -2.73757 0.224472)
(9.13233e-16 -3.18724 0.0418056)
(4.74053e-16 -3.59047 -0.12605)
(1.78291e-16 -3.926 -0.242886)
(4.17296e-17 -4.22484 -0.304841)
(4.20439e-18 -4.49072 -0.336794)
(-5.67473e-19 -4.71201 -0.346311)
(-2.47218e-19 -4.86812 -0.348246)
(-2.86359e-20 -4.93233 -0.345983)
(1.23111e-21 -4.89511 -0.344566)
(8.0281e-22 -4.76847 -0.340759)
(7.98287e-23 -4.53464 -0.345242)
(-1.73228e-23 -4.22381 -0.338011)
(-2.79013e-23 -3.78112 -0.34396)
(2.00163e-23 -3.35128 -0.316043)
(-9.57798e-23 -2.70941 -0.327387)
(3.87806e-22 -2.50332 -0.259976)
(-2.03131e-21 -1.50932 -0.319501)
(3.08517e-20 -2.25465 -0.192768)
(-4.61041e-19 -1.02534 -0.351864)
(2.56543e-18 -1.7542 -0.285684)
(1.70818e-17 -5.04458 -0.435155)
(4.68572e-35 0.538199 0.68832)
(7.89769e-35 0.62578 0.68404)
(-9.85602e-35 0.67563 0.688523)
(-9.3992e-34 0.727056 0.692038)
(-2.7182e-33 0.775112 0.698871)
(-2.83627e-33 0.820355 0.706477)
(9.89348e-33 0.863502 0.715899)
(5.42654e-32 0.904508 0.726443)
(1.10587e-31 0.943697 0.738333)
(-1.93031e-32 0.981166 0.751357)
(-8.17533e-31 1.01709 0.765547)
(-2.41157e-30 1.05159 0.780834)
(-2.08415e-30 1.08484 0.797219)
(8.66818e-30 1.11699 0.814684)
(3.95944e-29 1.14822 0.833232)
(9.0566e-29 1.17869 0.852861)
(2.01129e-28 1.20858 0.87357)
(5.86619e-28 1.23803 0.895349)
(4.9395e-28 1.26716 0.918188)
(-1.13071e-26 1.29607 0.942079)
(-8.83836e-26 1.32483 0.967034)
(-3.50111e-25 1.35356 0.993104)
(-6.54547e-25 1.38246 1.0204)
(1.41402e-24 1.41183 1.04908)
(1.67909e-23 1.44215 1.07935)
(7.26581e-23 1.47395 1.11138)
(1.80291e-22 1.50772 1.14521)
(9.24492e-23 1.54368 1.1808)
(-1.55428e-21 1.58186 1.218)
(-9.04193e-21 1.62203 1.25654)
(-3.04024e-20 1.66369 1.29605)
(-6.60736e-20 1.70611 1.33607)
(-4.95501e-20 1.74835 1.37617)
(3.42626e-19 1.78924 1.41617)
(2.15386e-18 1.82746 1.45664)
(8.05044e-18 1.86148 1.49975)
(2.37233e-17 1.88962 1.55042)
(5.94963e-17 1.91002 1.61732)
(1.31259e-16 1.9208 1.713)
(2.59321e-16 1.92046 1.85174)
(4.64045e-16 1.90865 2.04448)
(7.58793e-16 1.8872 2.29192)
(1.14316e-15 1.86062 2.57974)
(1.60026e-15 1.83498 2.87994)
(2.09951e-15 1.81554 3.15904)
(2.60254e-15 1.80466 3.3878)
(3.06921e-15 1.80079 3.54691)
(3.46191e-15 1.79828 3.6269)
(3.74859e-15 1.78734 3.6239)
(3.9049e-15 1.75798 3.53732)
(3.91654e-15 1.71295 3.3805)
(3.78175e-15 1.6525 3.1888)
(3.50417e-15 1.3865 2.87544)
(3.09867e-15 0.326187 1.85922)
(2.73829e-15 -1.0407 0.556377)
(2.36976e-15 -1.73553 0.580824)
(1.9045e-15 -2.19444 0.409517)
(1.40077e-15 -2.67584 0.201336)
(9.12671e-16 -3.13138 0.0304343)
(4.75846e-16 -3.5432 -0.131031)
(1.80057e-16 -3.89206 -0.242273)
(4.24125e-17 -4.20236 -0.298534)
(4.2539e-18 -4.47641 -0.326396)
(-6.10121e-19 -4.70356 -0.333266)
(-2.61167e-19 -4.86343 -0.333267)
(-2.99097e-20 -4.93041 -0.33101)
(1.44685e-21 -4.89553 -0.330225)
(8.7415e-22 -4.77023 -0.328047)
(8.57933e-23 -4.53855 -0.334642)
(-1.81309e-23 -4.22913 -0.329873)
(-2.81844e-23 -3.79028 -0.338126)
(1.97635e-23 -3.36134 -0.312797)
(-9.55861e-23 -2.72602 -0.325308)
(3.8909e-22 -2.51572 -0.260303)
(-2.12639e-21 -1.53461 -0.317338)
(3.20808e-20 -2.26471 -0.192321)
(-4.68978e-19 -1.03911 -0.346464)
(2.45339e-18 -1.76641 -0.264265)
(1.22876e-17 -4.99184 -0.427808)
(9.72018e-35 0.538813 0.71271)
(1.79377e-34 0.625719 0.707704)
(-1.40432e-34 0.674777 0.712103)
(-1.77783e-33 0.725902 0.715423)
(-5.36996e-33 0.773513 0.72227)
(-6.09185e-33 0.818456 0.729911)
(1.73035e-32 0.861275 0.73945)
(9.99376e-32 0.902002 0.750149)
(2.00797e-31 0.940912 0.762238)
(-5.96724e-32 0.978122 0.7755)
(-1.54576e-30 1.01379 0.789965)
(-4.18482e-30 1.04805 0.805568)
(-1.84514e-30 1.08105 0.822311)
(2.33309e-29 1.11296 0.840182)
(9.06397e-29 1.14394 0.859186)
(1.90881e-28 1.17417 0.879323)
(3.13952e-28 1.20382 0.900589)
(2.72992e-28 1.23303 0.922973)
(-4.2325e-27 1.26193 0.946459)
(-4.25552e-26 1.29059 0.971037)
(-2.15731e-25 1.31911 0.996722)
(-6.15662e-25 1.34758 1.02358)
(-2.19537e-25 1.37618 1.05173)
(7.80252e-24 1.40522 1.08139)
(4.6336e-23 1.43517 1.11278)
(1.507e-22 1.46657 1.14607)
(2.35892e-22 1.49993 1.1813)
(-5.18781e-22 1.53552 1.21838)
(-5.33455e-21 1.57337 1.2571)
(-2.20433e-20 1.61328 1.29715)
(-5.89218e-20 1.65477 1.3381)
(-8.70853e-20 1.69712 1.37947)
(1.0162e-19 1.73935 1.42091)
(1.27913e-18 1.78015 1.46263)
(5.59843e-18 1.8179 1.50616)
(1.7976e-17 1.85055 1.55558)
(4.78691e-17 1.87565 1.61882)
(1.10667e-16 1.8905 1.7083)
(2.27233e-16 1.89274 1.83961)
(4.2005e-16 1.88129 2.02694)
(7.05861e-16 1.85763 2.27575)
(1.08747e-15 1.82654 2.57596)
(1.54932e-15 1.79547 2.9009)
(2.05958e-15 1.77207 3.21454)
(2.5771e-15 1.76128 3.48297)
(3.05877e-15 1.76371 3.68274)
(3.46477e-15 1.77586 3.80253)
(3.76172e-15 1.79067 3.83973)
(3.92522e-15 1.79765 3.79505)
(3.94117e-15 1.7852 3.66943)
(3.80391e-15 1.75245 3.47341)
(3.51196e-15 1.70852 3.24464)
(3.0896e-15 1.51914 2.95117)
(2.70201e-15 0.602825 2.07739)
(2.65964e-15 -0.891841 0.450759)
(2.31125e-15 -1.72092 0.430812)
(1.89309e-15 -2.15739 0.376831)
(1.39593e-15 -2.63481 0.169753)
(9.12566e-16 -3.09524 0.0119723)
(4.78126e-16 -3.5129 -0.139861)
(1.82074e-16 -3.87222 -0.24385)
(4.31604e-17 -4.19096 -0.292215)
(4.30688e-18 -4.4702 -0.313907)
(-6.54715e-19 -4.70074 -0.31691)
(-2.75564e-19 -4.86204 -0.313975)
(-3.12004e-20 -4.92979 -0.311286)
(1.67165e-21 -4.89553 -0.311195)
(9.47707e-22 -4.7701 -0.310878)
(9.18668e-23 -4.53928 -0.320153)
(-1.90067e-23 -4.23016 -0.318528)
(-2.84865e-23 -3.79382 -0.329816)
(1.95149e-23 -3.36499 -0.307827)
(-9.54126e-23 -2.73418 -0.322304)
(3.90621e-22 -2.52015 -0.259819)
(-2.22109e-21 -1.54679 -0.315918)
(3.32863e-20 -2.26673 -0.190909)
(-4.75098e-19 -1.03993 -0.343152)
(2.36242e-18 -1.76791 -0.238254)
(8.56698e-18 -4.9657 -0.412961)
(2.01335e-34 0.53946 0.736092)
(4.12309e-34 0.625757 0.730625)
(-1.21723e-34 0.674086 0.734954)
(-3.24131e-33 0.724932 0.738148)
(-1.05398e-32 0.772135 0.745035)
(-1.378e-32 0.816809 0.752745)
(2.56309e-32 0.859333 0.762423)
(1.72452e-31 0.899811 0.773299)
(3.55111e-31 0.938473 0.785607)
(-8.82081e-32 0.975452 0.799123)
(-2.54411e-30 1.01089 0.81388)
(-6.17275e-30 1.04493 0.829814)
(1.76737e-30 1.07771 0.84693)
(5.50416e-29 1.1094 0.865221)
(1.8304e-28 1.14016 0.884693)
(3.24324e-28 1.17017 0.905348)
(1.68951e-28 1.1996 0.927183)
(-2.24949e-27 1.22859 0.950182)
(-2.09958e-26 1.25727 0.974324)
(-1.20172e-25 1.28572 0.999597)
(-4.4064e-25 1.31401 1.02602)
(-7.2425e-25 1.34224 1.05366)
(2.6598e-24 1.37057 1.08268)
(2.59723e-23 1.39928 1.11331)
(1.08575e-22 1.42885 1.14581)
(2.57244e-22 1.45987 1.18038)
(5.34611e-23 1.49286 1.21701)
(-2.69306e-21 1.52811 1.25559)
(-1.46185e-20 1.56568 1.29585)
(-4.72448e-20 1.60538 1.33743)
(-9.62372e-20 1.64676 1.37986)
(-4.1535e-20 1.68907 1.4227)
(6.58902e-19 1.73123 1.46587)
(3.6843e-18 1.77171 1.51033)
(1.3171e-17 1.80838 1.5593)
(3.75916e-17 1.83846 1.61973)
(9.1549e-17 1.85859 1.70341)
(1.96026e-16 1.86536 1.82648)
(3.75232e-16 1.85651 2.00564)
(6.4926e-16 1.83253 2.25099)
(1.02466e-15 1.79792 2.55754)
(1.488e-15 1.76091 2.9015)
(2.0067e-15 1.7312 3.24551)
(2.53666e-15 1.71637 3.55103)
(3.03152e-15 1.71931 3.78967)
(3.44916e-15 1.73798 3.94715)
(3.75504e-15 1.76676 4.0205)
(3.92403e-15 1.7976 4.01269)
(3.94233e-15 1.81995 3.92745)
(3.80855e-15 1.82177 3.76645)
(3.52945e-15 1.79855 3.53659)
(3.10697e-15 1.76012 3.27165)
(2.55999e-15 1.62195 2.9823)
(2.13622e-15 0.873091 2.25931)
(2.48336e-15 -0.719014 0.446397)
(2.27209e-15 -1.71692 0.223324)
(1.8706e-15 -2.14344 0.31838)
(1.39444e-15 -2.60394 0.132545)
(9.13316e-16 -3.06945 -0.0156059)
(4.81084e-16 -3.49213 -0.153867)
(1.8438e-16 -3.86124 -0.24845)
(4.39711e-17 -4.18761 -0.286623)
(4.36134e-18 -4.47051 -0.299711)
(-7.00129e-19 -4.70294 -0.297262)
(-2.89785e-19 -4.86388 -0.290246)
(-3.24284e-20 -4.93072 -0.286449)
(1.89308e-21 -4.89557 -0.287025)
(1.01869e-21 -4.7686 -0.288773)
(9.76437e-23 -4.53751 -0.301262)
(-1.98953e-23 -4.22771 -0.303528)
(-2.87908e-23 -3.79312 -0.31862)
(1.92843e-23 -3.36361 -0.300798)
(-9.52706e-23 -2.73648 -0.318107)
(3.92365e-22 -2.51809 -0.258408)
(-2.31214e-21 -1.55012 -0.314889)
(3.44322e-20 -2.26127 -0.188806)
(-4.80277e-19 -1.03024 -0.341009)
(2.3498e-18 -1.75933 -0.220513)
(-1.41564e-18 -4.94353 -0.398514)
(4.17372e-34 0.540184 0.759616)
(9.59441e-34 0.625805 0.753863)
(1.76744e-34 0.673358 0.758146)
(-5.66386e-33 0.723887 0.761281)
(-2.08162e-32 0.770645 0.768235)
(-3.31767e-32 0.815019 0.776055)
(2.41926e-32 0.857221 0.785902)
(2.74669e-31 0.897425 0.796987)
(6.40756e-31 0.935815 0.809543)
(1.36777e-31 0.97254 0.823344)
(-3.13848e-30 1.00773 0.838422)
(-6.57311e-30 1.04152 0.854716)
(1.30424e-29 1.07406 0.872233)
(1.10153e-28 1.1055 0.890972)
(3.07146e-28 1.13602 0.910942)
(3.4825e-28 1.16578 0.932148)
(-1.14599e-27 1.19497 0.954584)
(-1.1545e-26 1.22372 0.978232)
(-6.6845e-26 1.25217 1.00307)
(-2.79682e-25 1.28038 1.02907)
(-7.02032e-25 1.30843 1.05626)
(2.6849e-25 1.33639 1.08472)
(1.26462e-23 1.3644 1.11464)
(6.9336e-23 1.39275 1.14627)
(2.16862e-22 1.42191 1.17994)
(3.00072e-22 1.45249 1.21582)
(-1.00657e-21 1.48506 1.25393)
(-8.73475e-21 1.51993 1.29407)
(-3.45753e-20 1.55719 1.33596)
(-8.83079e-20 1.59668 1.37917)
(-1.13298e-19 1.63792 1.42323)
(2.45585e-19 1.68013 1.46789)
(2.24509e-18 1.72203 1.51364)
(9.26394e-18 1.76168 1.56288)
(2.87192e-17 1.79623 1.62149)
(7.42003e-17 1.82193 1.70035)
(1.66429e-16 1.8345 1.81544)
(3.30951e-16 1.83027 1.98516)
(5.91133e-16 1.80807 2.22357)
(9.57813e-16 1.7712 2.5313)
(1.42069e-15 1.72791 2.88902)
(1.94729e-15 1.68946 3.25976)
(2.4906e-15 1.66626 3.60093)
(3.00029e-15 1.66414 3.87833)
(3.43126e-15 1.68314 4.07347)
(3.74753e-15 1.71873 4.18188)
(3.92362e-15 1.76392 4.20721)
(3.94539e-15 1.81029 4.15578)
(3.81133e-15 1.8476 4.0328)
(3.53323e-15 1.86377 3.84027)
(3.13121e-15 1.85138 3.58216)
(2.6143e-15 1.81826 3.28518)
(1.98263e-15 1.71811 2.9847)
(1.47112e-15 1.1273 2.39584)
(2.0596e-15 -0.529848 0.550534)
(2.28669e-15 -1.69981 0.00744346)
(1.8341e-15 -2.1431 0.214782)
(1.39526e-15 -2.57335 0.0911864)
(9.1611e-16 -3.04186 -0.0525218)
(4.85086e-16 -3.4703 -0.174854)
(1.87079e-16 -3.84932 -0.257212)
(4.4865e-17 -4.18378 -0.282824)
(4.41719e-18 -4.4704 -0.284695)
(-7.46596e-19 -4.70473 -0.274863)
(-3.03603e-19 -4.86531 -0.262502)
(-3.35443e-20 -4.93119 -0.256723)