/*--------------------------------*- C++ -*----------------------------------*\
| =========                 |                                                 |
| \\      /  F ield         | OpenFOAM: The Open Source CFD Toolbox           |
|  \\    /   O peration     | Version:  4.1                                   |
|   \\  /    A nd           | Web:      www.OpenFOAM.org                      |
|    \\/     M anipulation  |                                                 |
\*---------------------------------------------------------------------------*/
FoamFile
{
    version     2.0;
    format      ascii;
    class       volVectorField;
    location    "26";
    object      U;
}
// * * * * * * * * * * * * * * * * * * * * * * * * * * * * * * * * * * * * * //

dimensions      [0 1 -1 0 0 0 0];

internalField   nonuniform List<vector> 
6785
(
(1.71222e-14 0.684593 15.7418)
(1.74043e-14 -5.13029 12.0537)
(-2.46513e-15 -4.2925 12.1841)
(4.16658e-15 -3.72376 12.0221)
(1.19822e-15 -3.11931 11.901)
(-2.04407e-15 -2.66646 11.7153)
(1.6574e-15 -2.31761 11.4881)
(9.1743e-16 -2.07344 11.2168)
(-1.34825e-17 -1.90795 10.9139)
(2.1804e-15 -1.8172 10.5843)
(7.85326e-16 -1.92243 10.165)
(-2.65882e-16 -2.37179 9.5601)
(2.17031e-16 -2.68973 8.9698)
(-3.48332e-16 -1.33552 8.92613)
(-1.95684e-15 1.73302 7.64141)
(8.73111e-15 -5.63789 22.1818)
(1.61547e-14 -14.7671 21.3398)
(-1.2099e-16 -13.2426 20.4984)
(-1.27429e-15 -11.8214 19.622)
(4.18352e-15 -11.2269 18.5971)
(-1.09662e-15 -10.7092 17.6049)
(4.92858e-15 -10.1209 16.6522)
(1.80217e-15 -9.54481 15.6955)
(1.4655e-16 -8.97907 14.7276)
(5.34042e-15 -8.37631 13.7517)
(2.79595e-15 -7.75125 12.7738)
(3.19331e-16 -7.27676 11.7831)
(7.6406e-15 -7.01216 10.6939)
(1.60355e-15 -5.78426 8.97419)
(-1.94365e-15 -1.73327 4.85331)
(1.44026e-14 -7.89601 22.1871)
(2.01447e-14 -16.7498 24.7015)
(1.0133e-15 -13.8114 23.9906)
(7.15247e-15 -12.4976 22.6551)
(3.43851e-15 -11.833 21.2611)
(-1.51703e-15 -10.989 20.0206)
(6.81491e-15 -10.1073 18.7901)
(-2.30601e-15 -9.26097 17.5387)
(1.63076e-16 -8.43681 16.2752)
(2.06716e-15 -7.62013 15.0227)
(1.57074e-16 -6.797 13.8035)
(-1.21929e-15 -5.96852 12.4325)
(-7.32332e-16 -4.99112 10.3266)
(1.47173e-15 -3.27547 6.89067)
(-1.21843e-15 -0.662599 2.39954)
(2.18235e-14 -8.14305 17.9872)
(1.91783e-14 -16.3386 24.4549)
(3.8123e-15 -13.4359 23.9537)
(7.05248e-15 -12.5306 22.1185)
(5.57866e-18 -11.797 20.6139)
(9.77751e-16 -10.8463 19.282)
(1.20914e-15 -9.96751 17.9218)
(1.54468e-16 -9.138 16.557)
(2.59277e-15 -8.34524 15.2038)
(6.76832e-16 -7.59629 13.8756)
(-2.51421e-15 -6.83588 12.5324)
(1.92325e-15 -5.87446 10.8634)
(-3.60188e-15 -4.38605 8.19734)
(-7.18546e-15 -2.24422 3.97554)
(2.15372e-14 0.0133879 -1.35178)
(1.55762e-14 -7.32279 13.9175)
(8.04214e-15 -15.3603 23.7138)
(3.91721e-15 -13.9043 24.0464)
(3.97946e-15 -13.0905 21.9522)
(-4.20589e-15 -12.299 20.3345)
(1.69329e-15 -11.3794 18.9612)
(-5.81529e-16 -10.5628 17.5517)
(-1.66497e-15 -9.76977 16.1489)
(-1.22005e-14 -8.98427 14.7759)
(-3.36575e-15 -8.22661 13.4372)
(-8.27998e-15 -7.46107 12.0836)
(-3.95729e-15 -6.51676 10.4496)
(-7.2148e-15 -5.04596 8.04519)
(-4.33077e-14 -3.17178 4.56952)
(-2.4211e-14 -1.17658 1.48032)
(1.67423e-14 -6.12266 10.869)
(1.70095e-14 -14.1692 22.6785)
(8.8374e-15 -14.3396 24.3341)
(3.82e-15 -13.526 22.4678)
(-2.52229e-15 -12.5719 20.7482)
(1.8319e-15 -11.6372 19.3224)
(-1.07361e-15 -10.8162 17.8998)
(-2.29994e-15 -9.99729 16.4883)
(1.30214e-15 -9.17124 15.1055)
(-2.79455e-15 -8.36527 13.7557)
(-6.98202e-15 -7.55811 12.4006)
(-1.40657e-15 -6.63308 10.8187)
(-6.48356e-15 -5.23865 8.63724)
(-1.1966e-14 -3.66649 5.60015)
(-8.34558e-15 -1.44477 3.0321)
(2.36451e-14 -5.11908 8.8381)
(2.02596e-14 -13.0051 21.5844)
(1.44294e-14 -14.2989 24.2376)
(5.02986e-15 -13.5806 22.8796)
(8.24952e-17 -12.5391 21.136)
(3.29194e-15 -11.6015 19.645)
(-9.78896e-16 -10.7714 18.2084)
(-2.59176e-15 -9.9328 16.793)
(4.99945e-15 -9.09353 15.4003)
(-2.15462e-15 -8.28014 14.0378)
(-3.33133e-15 -7.46934 12.6752)
(5.57261e-15 -6.57686 11.0957)
(-4.84184e-15 -5.18691 8.98771)
(-1.45152e-14 -3.92983 6.09193)
(1.03604e-14 -1.52204 3.97972)
(1.41884e-14 -4.64624 8.04492)
(2.06139e-14 -12.2098 20.8511)
(1.48369e-14 -14.0419 23.8099)
(5.74486e-15 -13.4636 23.0217)
(8.81346e-16 -12.4659 21.3212)
(3.50439e-15 -11.5563 19.783)
(-7.67921e-16 -10.7272 18.3367)
(-1.49939e-15 -9.88845 16.9187)
(3.59287e-15 -9.05812 15.5192)
(-1.65834e-15 -8.255 14.1495)
(-2.45211e-15 -7.4483 12.78)
(3.71043e-15 -6.57313 11.1694)
(-4.60647e-15 -5.09987 9.06138)
(-1.30988e-14 -4.0673 6.15239)
(4.70366e-15 -1.53627 4.34958)
(1.24467e-14 -4.53029 7.89777)
(1.99228e-14 -11.7387 20.3776)
(1.19688e-14 -13.8017 23.2626)
(6.77173e-15 -13.3726 23.031)
(1.38779e-15 -12.4879 21.416)
(-3.52129e-16 -11.5951 19.8584)
(1.35199e-16 -10.7579 18.4102)
(-1.31376e-15 -9.92036 16.9917)
(-1.18811e-15 -9.09627 15.5891)
(1.89522e-15 -8.29731 14.2173)
(-2.03637e-15 -7.48438 12.843)
(-4.85742e-15 -6.61632 11.1845)
(-3.64863e-15 -5.02877 9.06431)
(-1.26361e-14 -4.21049 6.19596)
(-1.12114e-14 -1.60703 4.6409)
(5.49501e-15 -4.46961 7.69175)
(1.83549e-14 -11.3881 19.9303)
(1.08276e-14 -13.6195 22.7603)
(3.11568e-15 -13.3381 23.008)
(1.1613e-15 -12.5784 21.5103)
(-1.57969e-15 -11.6796 19.951)
(-3.70017e-15 -10.8254 18.5005)
(-1.80054e-15 -9.98599 17.0808)
(-2.69088e-15 -9.16144 15.6773)
(2.9873e-15 -8.36081 14.3042)
(-3.39316e-15 -7.53386 12.9259)
(-1.4285e-15 -6.67002 11.211)
(-1.07948e-14 -4.97548 9.08074)
(-7.7291e-15 -4.3692 6.31767)
(-1.56031e-14 -1.73034 4.97658)
(-4.32715e-15 -4.31306 7.2267)
(1.82287e-14 -11.0185 19.4056)
(4.76086e-15 -13.4535 22.3578)
(3.13837e-15 -13.3265 23.0082)
(2.64917e-15 -12.69 21.654)
(-8.23017e-15 -11.7801 20.0993)
(-5.08211e-15 -10.9081 18.6354)
(-6.26914e-16 -10.0646 17.2069)
(-1.20375e-14 -9.23476 15.7977)
(-1.37959e-14 -8.4299 14.4167)
(-8.93996e-16 -7.58233 13.0299)
(-9.63179e-15 -6.72217 11.2555)
(-1.39128e-14 -4.93914 9.11249)
(-2.68174e-14 -4.51853 6.45751)
(-2.74247e-14 -1.85263 5.30342)
(-3.61683e-15 -4.11617 6.70206)
(1.95392e-14 -10.626 18.9166)
(3.30866e-16 -13.2274 22.0234)
(5.67553e-15 -13.2158 22.9869)
(4.601e-15 -12.683 21.7606)
(-1.28727e-14 -11.7658 20.2326)
(-4.9072e-15 -10.891 18.7672)
(1.81382e-15 -10.0508 17.3347)
(-1.52706e-14 -9.22232 15.9257)
(-8.84892e-15 -8.42329 14.5393)
(-2.00173e-15 -7.562 13.1347)
(-2.51303e-14 -6.69738 11.2814)
(-1.2692e-14 -4.84692 9.13348)
(-3.63787e-14 -4.65895 6.62316)
(-3.24585e-14 -1.96412 5.6046)
(-1.14658e-14 -4.18689 6.79724)
(1.74579e-14 -10.4624 18.8147)
(2.73209e-15 -13.1709 21.923)
(1.48148e-15 -13.2432 23.1695)
(5.6937e-15 -12.8179 21.9896)
(-1.31898e-14 -11.8612 20.4341)
(-8.21303e-15 -10.9548 18.8981)
(9.83591e-15 -10.0804 17.4145)
(-1.79981e-14 -9.21337 15.9522)
(-9.69003e-15 -8.38463 14.5105)
(7.46994e-16 -7.46775 13.0578)
(-3.37787e-14 -6.5923 11.0723)
(-1.55207e-14 -4.57923 8.84245)
(-2.9875e-14 -4.56491 6.35316)
(-3.49756e-14 -1.88583 5.52658)
(4.04078e-16 -3.95025 6.43298)
(1.22107e-14 -9.74798 18.1996)
(-1.94389e-15 -12.2347 21.5413)
(-2.57529e-15 -12.3283 22.8351)
(9.91465e-16 -11.9544 21.889)
(-1.21718e-14 -11.1001 20.5403)
(-3.12286e-15 -10.2922 19.166)
(3.66774e-15 -9.50152 17.75)
(-1.59238e-14 -8.7131 16.3589)
(-4.67878e-15 -7.95266 14.9527)
(-8.44068e-15 -7.12048 13.3913)
(-2.95421e-14 -6.13716 11.2941)
(-1.57049e-14 -4.61186 9.11205)
(-3.53681e-14 -4.71057 7.12241)
(-3.08218e-14 -1.90486 5.74412)
(-1.28e-14 -7.661 15.552)
(1.05757e-14 -13.1717 23.8391)
(-1.6583e-15 -14.9331 25.0338)
(-3.05422e-15 -14.3343 25.3815)
(-3.60939e-15 -13.3501 22.9789)
(-9.43419e-15 -11.6293 20.7777)
(-5.63186e-16 -10.2568 18.5018)
(-3.46255e-15 -8.91018 16.613)
(-1.23279e-14 -7.69549 14.6906)
(-9.31631e-15 -6.50231 12.7236)
(-2.14493e-14 -5.0936 10.2884)
(-2.68126e-14 -3.50366 7.50571)
(-2.70049e-14 -2.02428 4.97906)
(-3.54728e-14 -1.52827 2.71191)
(-1.19387e-14 -0.197753 0.989542)
(-3.46621e-15 0.100906 -1.26834)
(-5.04887e-15 0.323922 -1.82376)
(-3.69999e-15 0.444348 -1.16298)
(-3.68317e-15 0.613625 -1.1284)
(-3.51744e-15 0.676952 -1.07683)
(-5.01869e-15 1.11244 -1.70363)
(-3.52127e-15 1.02244 -1.11108)
(-3.35951e-15 1.21475 -1.08116)
(-3.38784e-15 1.25148 -1.01941)
(-5.14817e-15 1.80881 -1.58649)
(-2.69843e-15 1.58232 -1.04524)
(-1.79782e-15 1.70363 -0.957479)
(-2.03319e-15 2.48668 -1.45312)
(-1.42214e-15 2.01579 -0.947053)
(-1.25987e-15 2.22638 -0.929224)
(-1.03131e-15 2.20901 -0.882258)
(-2.28142e-15 2.989 -1.30378)
(-1.28882e-15 2.46839 -0.857759)
(-1.13789e-15 2.55292 -0.798519)
(-2.3666e-15 3.57955 -1.13384)
(-1.6722e-15 2.78607 -0.736503)
(-1.80616e-15 3.01837 -0.727804)
(-1.42457e-15 2.95412 -0.703923)
(-2.51115e-15 3.94577 -0.960611)
(-1.74381e-15 3.07164 -0.622253)
(-1.57133e-15 3.33492 -0.609619)
(-1.30643e-15 3.26181 -0.595443)
(-5.40494e-15 4.24178 -0.766879)
(-3.38981e-15 3.35422 -0.488188)
(-2.64135e-15 3.39577 -0.470025)
(-3.07482e-15 4.62615 -0.528152)
(-2.45866e-15 3.47703 -0.326914)
(-2.21424e-15 3.70805 -0.319004)
(-2.23711e-15 3.60866 -0.328877)
(-3.18686e-15 4.62868 -0.302003)
(-2.27063e-15 3.58521 -0.166117)
(-2.05795e-15 3.60844 -0.182294)
(-3.01954e-15 4.84121 -0.0307694)
(-2.06691e-15 3.56985 0.012137)
(-2.06103e-15 3.77888 0.0168903)
(-1.66288e-15 3.66112 -0.0170288)
(-2.45481e-15 4.6806 0.23307)
(-1.62933e-15 3.46238 0.18804)
(-1.57296e-15 3.68791 0.196918)
(-1.45963e-15 3.57897 0.153395)
(-2.09398e-15 4.45235 0.496241)
(-1.7213e-15 3.33766 0.386769)
(-1.57609e-15 3.34136 0.324118)
(-2.48504e-15 4.3378 0.794347)
(-1.31863e-15 3.09406 0.566142)
(-1.27587e-15 3.24613 0.567823)
(-1.19382e-15 3.13398 0.498959)
(-1.87043e-15 3.83359 1.04854)
(-1.17152e-15 2.72308 0.726657)
(-1.24582e-15 2.87721 0.729323)
(-8.66202e-16 2.78341 0.653289)
(-1.35887e-15 3.28858 1.26576)
(-7.01646e-16 2.32183 0.886704)
(-1.01033e-15 2.3372 0.783226)
(-1.47258e-15 2.83219 1.47917)
(-9.13289e-16 1.86682 0.987017)
(-9.43295e-16 1.93804 0.976594)
(-1.22277e-15 1.87031 0.885051)
(6.91829e-15 2.0418 1.59175)
(1.73522e-15 1.28348 1.05091)
(1.84623e-15 1.33721 0.928841)
(2.82047e-15 1.39578 1.62956)
(8.81901e-16 0.733566 0.99885)
(8.42605e-16 0.760094 0.964616)
(8.11082e-16 0.770829 0.862707)
(1.09731e-15 0.496963 1.45974)
(4.91316e-16 0.0898692 0.70679)
(-5.56082e-16 0.130563 0.736826)
(-2.89967e-15 0.203296 0.8417)
(-1.21514e-14 -0.467341 2.56309)
(-8.13652e-15 -0.637171 2.27176)
(-8.06586e-15 -0.610354 2.47144)
(-1.12548e-14 -1.32877 3.74438)
(-9.16437e-15 -1.51161 2.81821)
(-9.98089e-15 -1.60019 3.05824)
(-1.26154e-14 -1.70259 3.59073)
(-1.26491e-14 -1.81239 3.83972)
(-1.28857e-14 -2.20931 4.12293)
(-1.54901e-14 -2.27525 6.02255)
(-1.87583e-14 -2.31105 5.56773)
(-2.10912e-14 -2.63961 6.02947)
(-2.16184e-14 -2.63105 6.26583)
(-2.1236e-14 -2.69923 6.4943)
(-2.0969e-14 -2.73983 6.74668)
(-2.05892e-14 -2.74655 7.03388)
(-1.97906e-14 -2.85975 7.44952)
(-1.87362e-14 -3.18625 7.93838)
(-1.07142e-14 -3.19425 9.78601)
(-1.8299e-14 -3.42966 9.38122)
(-1.78156e-14 -3.66173 9.72534)
(-1.75139e-14 -3.62586 9.99097)
(-1.71498e-14 -3.78465 10.5681)
(-1.69865e-14 -3.73777 10.7232)
(-1.66991e-14 -3.7462 11.0028)
(-1.63854e-14 -3.8173 11.297)
(-1.59593e-14 -4.09359 11.6433)
(-1.09384e-14 -4.10144 14.0682)
(-1.01828e-14 -4.49466 13.6976)
(-9.62181e-15 -4.63895 13.9921)
(-9.12729e-15 -4.66846 14.1974)
(-8.46203e-15 -4.7049 14.4689)
(-7.19159e-15 -4.75455 14.8672)
(-5.82005e-15 -4.82183 15.3014)
(-5.88212e-15 -4.7464 15.4737)
(-5.59128e-15 -4.80364 15.7448)
(-5.21184e-15 -5.06185 16.0383)
(-7.69943e-15 -4.74425 18.1057)
(-6.5644e-15 -5.54543 17.7811)
(-6.1509e-15 -5.58779 18.0345)
(-5.95914e-15 -5.63719 18.2154)
(-5.70021e-15 -5.69031 18.445)
(-5.33247e-15 -5.68858 18.7146)
(-4.29254e-15 -5.69695 19.1546)
(-3.98183e-15 -5.68819 19.4133)
(-3.95407e-15 -5.92227 19.615)
(-3.92607e-15 -5.38324 21.0648)
(-4.15737e-15 -6.40586 20.5059)
(-3.93259e-15 -6.35944 20.8891)
(-3.79105e-15 -6.4338 21.1767)
(-4.07863e-15 -6.40119 21.2829)
(-4.28339e-15 -6.43504 21.4577)
(-4.57289e-15 -6.38526 21.6427)
(-5.03466e-15 -6.33345 21.891)
(-6.4359e-15 -6.60491 22.3866)
(-4.19475e-15 -5.3636 22.6971)
(-4.07089e-15 -6.9904 22.2598)
(-3.78709e-15 -6.81545 22.3603)
(-3.4781e-15 -6.82427 22.4389)
(-2.73584e-15 -6.84516 22.6854)
(-2.4695e-15 -6.77858 22.6899)
(-2.35142e-15 -6.6768 22.6001)
(-2.17847e-15 -6.60626 22.5038)
(-1.96549e-15 -6.59142 22.3708)
(-6.24285e-16 -5.1623 21.7717)
(-8.42551e-16 -6.93393 21.6883)
(-8.45702e-16 -6.57862 21.3697)
(-8.51623e-16 -6.65117 21.1045)
(-8.73022e-16 -6.55244 20.7537)
(-9.84597e-16 -6.43815 20.3417)
(-1.01331e-15 -6.34777 19.8221)
(-8.53685e-16 -6.18304 19.319)
(-7.84475e-16 -6.01044 18.677)
(-7.13737e-16 -5.70916 17.9176)
(2.6841e-16 -3.39484 13.4846)
(6.98886e-16 -5.35655 14.0222)
(7.71492e-16 -4.66428 12.9061)
(8.24494e-17 -4.70101 12.0898)
(-5.5538e-16 -4.44714 11.0146)
(-1.50072e-15 -4.39656 9.7302)
(-3.56584e-15 -4.26387 7.88273)
(-5.48157e-15 -3.77703 6.04457)
(-4.51797e-15 -3.25697 5.35686)
(-1.17083e-15 -2.19053 0.889892)
(-3.98041e-15 -2.64514 4.30584)
(-2.91119e-15 -1.76104 2.32053)
(8.75849e-16 -0.679779 -2.56125)
(-1.08785e-15 -2.48914 -0.461441)
(-6.81207e-16 -1.3501 -0.541098)
(-5.82634e-16 -1.23277 -0.0968573)
(-8.88883e-16 -1.55079 -0.168958)
(-5.59181e-16 -0.975699 -0.0711036)
(-1.08489e-15 -1.42128 -0.0889218)
(-6.24111e-16 -1.24063 -0.0814386)
(-5.49737e-16 -1.00992 -0.0685621)
(-8.21163e-16 -1.38555 -0.0622132)
(-6.8482e-16 -1.28225 -0.0555469)
(-5.4892e-16 -1.10299 -0.0345763)
(-7.58337e-16 -1.52111 -0.0280064)
(-5.37876e-16 -1.03683 -0.0171232)
(-8.04952e-16 -1.49113 -0.00777518)
(-6.46351e-16 -1.34458 -0.00786863)
(-5.25868e-16 -1.18478 0.00423022)
(-7.1638e-16 -1.61107 0.0153373)
(-4.77388e-16 -1.07272 0.0162743)
(-7.40184e-16 -1.55481 0.031147)
(-6.08709e-16 -1.4163 0.0163175)
(-4.79038e-16 -1.16408 0.0170829)
(-7.12459e-16 -1.59595 0.0294659)
(-6.04267e-16 -1.4526 0.0155606)
(-4.44919e-16 -1.23342 0.0243958)
(-6.23557e-16 -1.69432 0.0293878)
(-4.2406e-16 -1.15597 0.0262396)
(-6.47988e-16 -1.64125 0.0319522)
(-4.99587e-16 -1.4675 0.0115065)
(-3.99062e-16 -1.282 0.0205678)
(-5.53631e-16 -1.73637 0.0183997)
(-3.79409e-16 -1.15804 0.0191381)
(-5.90315e-16 -1.67294 0.0129383)
(-5.03152e-16 -1.51978 -0.00914375)
(-3.70075e-16 -1.22768 -0.00165164)
(-5.48973e-16 -1.64134 -0.0178502)
(-5.11458e-16 -1.47717 -0.032743)
(-3.60945e-16 -1.26946 -0.0179992)
(-4.96793e-16 -1.73092 -0.0324307)
(-3.36548e-16 -1.18295 -0.0202007)
(-5.16782e-16 -1.63806 -0.0417469)
(-4.31065e-16 -1.45476 -0.0523262)
(-3.31107e-16 -1.27224 -0.0320309)
(-4.69745e-16 -1.69052 -0.0553972)
(-3.08487e-16 -1.13454 -0.0329254)
(-4.77101e-16 -1.61563 -0.0710498)
(-3.89104e-16 -1.46108 -0.0769163)
(-2.94167e-16 -1.169 -0.0559076)
(-4.42345e-16 -1.51301 -0.11191)
(-3.60607e-16 -1.34994 -0.113422)
(-2.57461e-16 -1.16508 -0.08527)
(-3.39034e-16 -1.53886 -0.138933)
(-2.15986e-16 -1.04873 -0.0980781)
(-3.16808e-16 -1.40632 -0.179215)
(-3.09927e-16 -1.22994 -0.181628)
(-2.81281e-16 -1.05462 -0.146142)
(-3.54398e-16 -1.34633 -0.227838)
(-2.32845e-16 -0.898244 -0.169114)
(-3.44599e-16 -1.22578 -0.290051)
(-3.33054e-16 -1.06139 -0.288817)
(-4.25073e-16 -0.795278 -0.241677)
(-7.94702e-16 -0.984181 -0.399702)
(-7.37731e-16 -0.828141 -0.394018)
(-3.69855e-16 -0.654696 -0.324655)
(-4.51697e-16 -0.799242 -0.487424)
(-5.33877e-16 -0.440857 -0.368609)
(-8.44263e-16 -0.569318 -0.585786)
(-7.62882e-16 -0.398181 -0.537655)
(-4.10512e-16 -0.202855 -0.444464)
(-5.40992e-16 -0.289798 -0.673003)
(-3.24741e-16 0.059519 -0.489599)
(-8.07095e-16 0.00944588 -0.743955)
(-2.31728e-16 0.134868 -0.993087)
(-1.57818e-16 0.334542 -0.676235)
(-6.58942e-16 0.491642 -0.927955)
(-3.85243e-16 0.721179 -1.24085)
(-2.37691e-16 0.690136 -0.821848)
(-3.48351e-16 1.17423 -1.29316)
(-3.24284e-16 1.05789 -0.912634)
(-4.43008e-16 1.42529 -1.38647)
(-6.48008e-16 -0.275182 7.21295)
(-1.93544e-16 -0.249955 6.36211)
(-4.53049e-17 -0.154684 6.2203)
(6.84719e-17 -0.143197 6.07808)
(1.40812e-16 -0.121219 6.02423)
(1.74881e-16 -0.113088 6.01575)
(1.87505e-16 -0.109829 6.02736)
(1.85971e-16 -0.112487 6.04641)
(1.77238e-16 -0.120309 6.06395)
(1.65124e-16 -0.133005 6.07634)
(1.5205e-16 -0.150054 6.082)
(1.39546e-16 -0.170886 6.0806)
(1.28653e-16 -0.194837 6.07253)
(1.20147e-16 -0.221232 6.05889)
(1.14462e-16 -0.249401 6.04134)
(1.12091e-16 -0.279371 6.02222)
(1.13316e-16 -0.311876 6.00482)
(1.18246e-16 -0.348011 5.99325)
(1.26577e-16 -0.389159 5.99235)
(1.37483e-16 -0.436598 6.0068)
(1.49505e-16 -0.491172 6.03991)
(1.60773e-16 -0.553998 6.0923)
(1.69538e-16 -0.626858 6.1616)
(1.74767e-16 -0.713147 6.2438)
(1.76536e-16 -0.816039 6.33536)
(1.75979e-16 -0.935393 6.43473)
(1.74776e-16 -1.06678 6.54135)
(1.74324e-16 -1.20923 6.65286)
(1.74938e-16 -1.36705 6.76272)
(1.75589e-16 -1.54027 6.85882)
(1.7438e-16 -1.71963 6.92493)
(1.69574e-16 -1.89411 6.94809)
(1.60664e-16 -2.05996 6.93456)
(1.48584e-16 -2.22358 6.92457)
(1.34239e-16 -2.41448 6.98889)
(1.1526e-16 -2.66494 7.19522)
(8.30287e-17 -3.00287 7.56218)
(2.28854e-17 -3.43742 8.05737)
(-8.3465e-17 -3.95239 8.64763)
(-2.58144e-16 -4.49542 9.32582)
(-5.30343e-16 -5.10674 10.0912)
(-9.36644e-16 -5.83116 10.9475)
(-1.50712e-15 -6.68268 11.8937)
(-2.24479e-15 -7.64246 12.9248)
(-3.10224e-15 -8.67921 14.0226)
(-3.96817e-15 -9.77299 15.1403)
(-4.69874e-15 -10.8819 16.2124)
(-5.19007e-15 -11.9595 17.2068)
(-5.44034e-15 -12.9863 18.1323)
(-5.53897e-15 -13.9514 18.9642)
(-5.5641e-15 -14.7666 19.521)
(-5.46656e-15 -15.1703 19.411)
(-5.06136e-15 -14.7179 18.1474)
(-4.1604e-15 -12.8451 15.3521)
(-2.76426e-15 -8.99477 10.6583)
(-1.2961e-15 -3.78338 3.89879)
(-7.94163e-16 -0.729555 -0.936679)
(-6.15801e-16 0.938259 -2.64075)
(-4.83928e-16 1.23101 -3.12168)
(-3.85739e-16 0.860767 -1.71053)
(-3.11298e-16 -0.843631 1.40033)
(-3.48748e-16 -1.03189 1.30324)
(-3.72061e-16 -0.800599 1.11262)
(-4.09055e-16 -0.489116 0.874237)
(-4.44312e-16 -0.499109 0.805432)
(-5.04694e-16 -0.592263 0.562283)
(-5.77061e-16 -0.329385 0.328337)
(-6.29077e-16 -0.191719 0.186656)
(-6.15127e-16 -0.750189 0.128071)
(-5.98323e-16 -1.2033 -0.120717)
(-5.68409e-16 -1.39644 -0.341566)
(-5.41678e-16 -1.44835 -0.558339)
(-5.23115e-16 -1.36744 -0.766549)
(-5.10115e-16 -1.15332 -0.955067)
(-4.99815e-16 -0.938579 -1.18701)
(-4.95466e-16 -0.871581 -1.48601)
(-4.98484e-16 -0.892972 -1.74458)
(-5.04681e-16 -0.738027 -1.78771)
(-5.24904e-16 -0.214384 -1.97101)
(-1.00607e-16 -0.125511 6.37431)
(1.17792e-16 -0.105225 6.03426)
(1.25117e-16 -0.0846074 6.075)
(1.60742e-16 -0.0850557 6.03182)
(1.68354e-16 -0.0861484 6.04188)
(1.68985e-16 -0.0933406 6.04907)
(1.63577e-16 -0.1021 6.05941)
(1.55148e-16 -0.11319 6.06705)
(1.45854e-16 -0.125625 6.07057)
(1.3695e-16 -0.139264 6.06953)
(1.29335e-16 -0.153941 6.0642)
(1.23506e-16 -0.17018 6.05547)
(1.19784e-16 -0.188562 6.0446)
(1.18225e-16 -0.209922 6.03319)
(1.18947e-16 -0.235329 6.02302)
(1.22037e-16 -0.265788 6.01622)
(1.27456e-16 -0.301777 6.01547)
(1.34922e-16 -0.343207 6.02369)
(1.4385e-16 -0.389809 6.04376)
(1.53332e-16 -0.441523 6.07778)
(1.62222e-16 -0.49905 6.12662)
(1.69375e-16 -0.564848 6.18899)
(1.74032e-16 -0.642148 6.26253)
(1.76072e-16 -0.734083 6.34456)
(1.76099e-16 -0.841467 6.43345)
(1.75214e-16 -0.962089 6.52872)
(1.74543e-16 -1.09313 6.62924)
(1.74656e-16 -1.23526 6.73083)
(1.75157e-16 -1.39087 6.82481)
(1.74762e-16 -1.558 6.89855)
(1.71862e-16 -1.7274 6.93928)
(1.65387e-16 -1.89149 6.94302)
(1.55421e-16 -2.05388 6.92814)
(1.42834e-16 -2.23154 6.94345)
(1.27386e-16 -2.45548 7.05633)
(1.04821e-16 -2.74899 7.31737)
(6.50841e-17 -3.1247 7.72721)
(-6.87625e-18 -3.58196 8.24853)
(-1.29764e-16 -4.10488 8.85357)
(-3.27288e-16 -4.66099 9.54292)
(-6.30059e-16 -5.29119 10.3238)
(-1.07272e-15 -6.03823 11.2013)
(-1.67904e-15 -6.90172 12.1682)
(-2.44161e-15 -7.85835 13.2111)
(-3.30027e-15 -8.87998 14.3056)
(-4.13676e-15 -9.94543 15.4017)
(-4.81509e-15 -11.0168 16.4388)
(-5.25239e-15 -12.0618 17.3936)
(-5.4672e-15 -13.071 18.2748)
(-5.55083e-15 -14.0203 19.0407)
(-5.56006e-15 -14.7801 19.4854)
(-5.41896e-15 -15.0435 19.2107)
(-4.93534e-15 -14.3409 17.7502)
(-3.94207e-15 -12.0895 14.7018)
(-2.49475e-15 -7.85377 9.65511)
(-1.12254e-15 -2.84765 2.98059)
(-7.64213e-16 0.201958 -0.750551)
(-5.68352e-16 1.41069 -2.37471)
(-4.38913e-16 0.96379 -1.37982)
(-3.4641e-16 0.0400345 0.513203)
(-3.14905e-16 -0.887241 1.50154)
(-3.53113e-16 -0.859853 1.23223)
(-3.78167e-16 -0.605395 1.00502)
(-4.15888e-16 -0.33221 0.766047)
(-4.53571e-16 -0.403793 0.706277)
(-5.12228e-16 -0.496309 0.488677)
(-5.82248e-16 -0.252644 0.258518)
(-6.29326e-16 -0.170869 0.12851)
(-6.15059e-16 -0.745929 0.0949058)
(-5.98723e-16 -1.20917 -0.140763)
(-5.69552e-16 -1.42387 -0.348345)
(-5.42994e-16 -1.49851 -0.55274)
(-5.24321e-16 -1.44129 -0.748782)
(-5.11378e-16 -1.24736 -0.920766)
(-5.01212e-16 -1.01961 -1.11639)
(-4.95916e-16 -0.891693 -1.37842)
(-4.97473e-16 -0.877303 -1.65579)
(-5.01203e-16 -0.729826 -1.73111)
(-5.1386e-16 -0.256897 -1.85669)
(1.5195e-16 -0.117038 6.04211)
(1.85465e-16 -0.113683 6.0177)
(1.67329e-16 -0.109892 6.05082)
(1.64378e-16 -0.111038 6.05016)
(1.52778e-16 -0.115706 6.06411)
(1.44554e-16 -0.122602 6.06681)
(1.36182e-16 -0.130362 6.06872)
(1.29609e-16 -0.138578 6.06632)
(1.24721e-16 -0.146909 6.06157)
(1.21728e-16 -0.155749 6.05514)
(1.20627e-16 -0.165961 6.04815)
(1.21359e-16 -0.178562 6.04181)
(1.23651e-16 -0.194524 6.03752)
(1.27341e-16 -0.216022 6.03657)
(1.32409e-16 -0.243624 6.04048)
(1.3865e-16 -0.277765 6.05088)
(1.45793e-16 -0.317664 6.06958)
(1.53361e-16 -0.362108 6.09808)
(1.60738e-16 -0.409934 6.13728)
(1.6721e-16 -0.461244 6.187)
(1.72145e-16 -0.517781 6.24631)
(1.75174e-16 -0.583486 6.31316)
(1.76352e-16 -0.662655 6.38602)
(1.7615e-16 -0.758386 6.46421)
(1.75335e-16 -0.870155 6.54792)
(1.74682e-16 -0.993652 6.63699)
(1.74618e-16 -1.12501 6.72828)
(1.74937e-16 -1.26475 6.8145)
(1.7474e-16 -1.41561 6.88544)
(1.72745e-16 -1.57595 6.93112)
(1.67844e-16 -1.73653 6.94605)
(1.59666e-16 -1.89244 6.93685)
(1.48731e-16 -2.05521 6.93304)
(1.35383e-16 -2.25071 6.98777)
(1.17706e-16 -2.5088 7.15986)
(8.9397e-17 -2.83867 7.48046)
(3.90891e-17 -3.24052 7.9331)
(-4.8689e-17 -3.71684 8.47866)
(-1.93516e-16 -4.26071 9.10135)
(-4.21096e-16 -4.83946 9.80813)
(-7.6298e-16 -5.49395 10.6064)
(-1.25036e-15 -6.26797 11.5037)
(-1.89823e-15 -7.15143 12.4909)
(-2.68571e-15 -8.121 13.5471)
(-3.53824e-15 -9.14706 14.6404)
(-4.33251e-15 -10.2027 15.7173)
(-4.94538e-15 -11.252 16.7247)
(-5.32007e-15 -12.2707 17.6473)
(-5.49653e-15 -13.2491 18.4868)
(-5.56311e-15 -14.1405 19.1718)
(-5.54824e-15 -14.7752 19.4616)
(-5.34602e-15 -14.8157 18.9515)
(-4.76093e-15 -13.7829 17.1935)
(-3.65818e-15 -11.099 13.7501)
(-2.15835e-15 -6.42891 8.20658)
(-8.69979e-16 -1.28655 1.47181)
(-6.72427e-16 0.875292 -1.9625)
(-5.16704e-16 1.13303 -1.47444)
(-3.8823e-16 0.538919 0.126204)
(-3.23501e-16 -0.0331064 0.994193)
(-3.21538e-16 -0.970047 1.55214)
(-3.58854e-16 -0.808775 1.16153)
(-3.8563e-16 -0.55101 0.932468)
(-4.24341e-16 -0.322787 0.708724)
(-4.64336e-16 -0.37244 0.633095)
(-5.207e-16 -0.416071 0.430926)
(-5.87169e-16 -0.164511 0.210972)
(-6.29481e-16 -0.0781347 0.0876768)
(-6.15087e-16 -0.677408 0.0649182)
(-5.99303e-16 -1.13444 -0.159199)
(-5.7108e-16 -1.35644 -0.360563)
(-5.44733e-16 -1.43661 -0.554124)
(-5.25894e-16 -1.38925 -0.735811)
(-5.12973e-16 -1.20572 -0.886776)
(-5.03001e-16 -0.982145 -1.04034)
(-4.96779e-16 -0.84256 -1.25906)
(-4.96547e-16 -0.82357 -1.54401)
(-4.98897e-16 -0.680243 -1.65211)
(-5.14081e-16 -0.2362 -1.66628)
(1.72571e-16 -0.114891 6.0383)
(1.56334e-16 -0.112687 6.06531)
(1.46502e-16 -0.113035 6.07167)
(1.383e-16 -0.113144 6.07181)
(1.31583e-16 -0.116074 6.07371)
(1.27139e-16 -0.119655 6.07194)
(1.242e-16 -0.123826 6.07003)
(1.23264e-16 -0.128369 6.06708)
(1.23947e-16 -0.133963 6.06473)
(1.26128e-16 -0.141628 6.0636)
(1.29487e-16 -0.152708 6.06464)
(1.33798e-16 -0.167989 6.06874)
(1.38774e-16 -0.188233 6.07685)
(1.44264e-16 -0.214459 6.08986)
(1.50164e-16 -0.246103 6.10887)
(1.56235e-16 -0.282642 6.13483)
(1.62174e-16 -0.32343 6.16858)
(1.67569e-16 -0.367827 6.21052)
(1.71983e-16 -0.415705 6.26025)
(1.75069e-16 -0.468096 6.31663)
(1.76683e-16 -0.526738 6.37831)
(1.76974e-16 -0.594611 6.44396)
(1.76363e-16 -0.674627 6.5127)
(1.75434e-16 -0.769416 6.58489)
(1.74746e-16 -0.879331 6.66125)
(1.7459e-16 -1.00168 6.7409)
(1.748e-16 -1.13311 6.81862)
(1.7469e-16 -1.27186 6.88491)
(1.73226e-16 -1.41835 6.92993)
(1.694e-16 -1.57103 6.94887)
(1.62681e-16 -1.72573 6.94561)
(1.53243e-16 -1.88301 6.93703)
(1.41553e-16 -2.05729 6.95922)
(1.26943e-16 -2.27703 7.06327)
(1.0571e-16 -2.56622 7.29605)
(6.98132e-17 -2.9256 7.67163)
(6.96228e-18 -3.34537 8.1609)
(-9.88514e-17 -3.82954 8.7259)
(-2.68537e-16 -4.38247 9.36436)
(-5.29711e-16 -4.98752 10.0901)
(-9.13828e-16 -5.66928 10.9075)
(-1.44707e-15 -6.46297 11.8243)
(-2.13413e-15 -7.3587 12.83)
(-2.93978e-15 -8.33246 13.8963)
(-3.77659e-15 -9.3555 14.9846)
(-4.52035e-15 -10.3978 16.0406)
(-5.06483e-15 -11.4289 17.0197)
(-5.38002e-15 -12.4309 17.912)
(-5.52289e-15 -13.3879 18.7057)
(-5.57243e-15 -14.2259 19.2944)
(-5.52588e-15 -14.7399 19.405)
(-5.25121e-15 -14.5721 18.6306)
(-4.55715e-15 -13.2388 16.5295)
(-3.34508e-15 -10.1784 12.6018)
(-1.79205e-15 -5.27775 6.46473)
(-5.95586e-16 -0.513084 -0.157783)
(-6.67687e-16 1.06943 -2.06706)
(-4.53236e-16 0.834583 0.130662)
(-3.29334e-16 0.117562 1.22566)
(-3.15886e-16 -0.28248 1.2337)
(-3.29506e-16 -0.946858 1.55299)
(-3.65119e-16 -0.718052 1.09832)
(-3.93934e-16 -0.467318 0.868972)
(-4.33431e-16 -0.288565 0.662004)
(-4.75253e-16 -0.320309 0.569834)
(-5.29313e-16 -0.334045 0.378215)
(-5.91008e-16 -0.0944331 0.171869)
(-6.29543e-16 -0.0201375 0.0560034)
(-6.15215e-16 -0.62794 0.0380997)
(-5.99986e-16 -1.08023 -0.175171)
(-5.72779e-16 -1.30927 -0.373519)
(-5.46668e-16 -1.39182 -0.557577)
(-5.27627e-16 -1.35391 -0.725707)
(-5.14662e-16 -1.18474 -0.857225)
(-5.04899e-16 -0.971899 -0.971736)
(-4.98022e-16 -0.829603 -1.14236)
(-4.96114e-16 -0.799149 -1.41669)
(-4.967e-16 -0.681616 -1.54885)
(-5.22102e-16 -0.285578 -1.54086)
(1.44477e-16 -0.113677 6.08968)
(1.33274e-16 -0.111347 6.09999)
(1.31537e-16 -0.113103 6.10006)
(1.29368e-16 -0.111801 6.09658)
(1.2926e-16 -0.112514 6.09737)
(1.30013e-16 -0.113667 6.09852)
(1.31968e-16 -0.115794 6.1013)
(1.3487e-16 -0.119335 6.10556)
(1.38513e-16 -0.125295 6.11203)
(1.42734e-16 -0.13462 6.12103)
(1.47282e-16 -0.147966 6.13304)
(1.5198e-16 -0.165897 6.14846)
(1.56689e-16 -0.188938 6.16787)
(1.61291e-16 -0.216657 6.19198)
(1.65671e-16 -0.248677 6.22135)
(1.69657e-16 -0.284658 6.25643)
(1.7304e-16 -0.324728 6.29742)
(1.75589e-16 -0.368972 6.34424)
(1.77136e-16 -0.417908 6.39623)
(1.77656e-16 -0.472586 6.45226)
(1.77312e-16 -0.534219 6.51136)
(1.76442e-16 -0.604842 6.57269)
(1.75469e-16 -0.686253 6.63549)
(1.74777e-16 -0.78039 6.70006)
(1.74556e-16 -0.887515 6.76648)
(1.7466e-16 -1.00638 6.83269)
(1.74554e-16 -1.13512 6.89229)
(1.73408e-16 -1.27175 6.93569)
(1.70344e-16 -1.41504 6.95576)
(1.64778e-16 -1.56304 6.95432)
(1.56665e-16 -1.71637 6.94454)
(1.46371e-16 -1.88202 6.95152)
(1.33837e-16 -2.07535 7.01277)
(1.17086e-16 -2.3218 7.17174)
(9.07515e-17 -2.63718 7.46178)
(4.55086e-17 -3.01872 7.88415)
(-3.15954e-17 -3.45411 8.40333)
(-1.57371e-16 -3.94587 8.98467)
(-3.54365e-16 -4.50446 9.63684)
(-6.51643e-16 -5.13367 10.3808)
(-1.07927e-15 -5.84301 11.219)
(-1.65692e-15 -6.65219 12.1558)
(-2.37788e-15 -7.55787 13.1776)
(-3.19281e-15 -8.53348 14.2502)
(-4.00413e-15 -9.55076 15.3295)
(-4.69143e-15 -10.5793 16.3628)
(-5.16844e-15 -11.5939 17.3143)
(-5.43043e-15 -12.5801 18.1754)
(-5.54545e-15 -13.5113 18.9148)
(-5.57706e-15 -14.2854 19.3892)
(-5.49076e-15 -14.6681 19.2985)
(-5.13346e-15 -14.2863 18.2348)
(-4.32294e-15 -12.6456 15.7383)
(-3.01094e-15 -9.22868 11.2535)
(-1.54941e-15 -4.2738 4.6527)
(-9.91717e-16 0.0351646 -0.84692)
(-6.94129e-16 1.12314 -1.49228)
(-3.47463e-16 0.418165 1.59036)
(-3.0938e-16 0.0433405 1.32854)
(-3.18192e-16 -0.444959 1.44087)
(-3.38194e-16 -0.906293 1.51549)
(-3.72066e-16 -0.633047 1.03658)
(-4.03086e-16 -0.390711 0.809962)
(-4.43393e-16 -0.246263 0.616902)
(-4.86012e-16 -0.261325 0.509597)
(-5.37515e-16 -0.252496 0.32663)
(-5.94674e-16 -0.0306474 0.135139)
(-6.29542e-16 0.0152786 0.0269842)
(-6.15434e-16 -0.587949 0.0112741)
(-6.00746e-16 -1.04055 -0.193888)
(-5.74588e-16 -1.2775 -0.387408)
(-5.48743e-16 -1.36103 -0.562395)
(-5.29474e-16 -1.32901 -0.717881)
(-5.1639e-16 -1.17076 -0.832037)
(-5.06814e-16 -0.966188 -0.913281)
(-4.99561e-16 -0.825846 -1.03417)
(-4.96174e-16 -0.785997 -1.28229)
(-4.95827e-16 -0.704125 -1.42837)
(-5.14043e-16 -0.387123 -1.39669)
(1.36416e-16 -0.124545 6.14637)
(1.35844e-16 -0.120102 6.15171)
(1.3809e-16 -0.122609 6.15629)
(1.40282e-16 -0.120267 6.15736)
(1.43093e-16 -0.120171 6.1649)
(1.46228e-16 -0.120793 6.17341)
(1.49737e-16 -0.123126 6.18439)
(1.53395e-16 -0.127611 6.19727)
(1.57119e-16 -0.134967 6.2123)
(1.60773e-16 -0.145781 6.2296)
(1.6426e-16 -0.16035 6.2494)
(1.675e-16 -0.178953 6.27193)
(1.70436e-16 -0.201706 6.29762)
(1.73007e-16 -0.228354 6.32691)
(1.7515e-16 -0.258835 6.36007)
(1.76777e-16 -0.293289 6.39738)
(1.77803e-16 -0.332105 6.43892)
(1.78172e-16 -0.375853 6.48456)
(1.77919e-16 -0.425284 6.53377)
(1.77191e-16 -0.481465 6.58571)
(1.76236e-16 -0.545577 6.63963)
(1.75339e-16 -0.619146 6.69467)
(1.74733e-16 -0.702905 6.74981)
(1.74505e-16 -0.797494 6.80461)
(1.74512e-16 -0.902474 6.85816)
(1.74335e-16 -1.01734 6.90745)
(1.73325e-16 -1.14158 6.94609)
(1.70755e-16 -1.27457 6.96651)
(1.66067e-16 -1.41503 6.96648)
(1.59082e-16 -1.56132 6.95498)
(1.50012e-16 -1.71701 6.95257)
(1.39004e-16 -1.89401 6.98862)
(1.25111e-16 -2.10944 7.0976)
(1.04959e-16 -2.38304 7.31242)
(7.18139e-17 -2.72157 7.65362)
(1.54613e-17 -3.11967 8.11368)
(-7.76681e-17 -3.56927 8.6561)
(-2.2552e-16 -4.07248 9.25202)
(-4.52348e-16 -4.63844 9.91764)
(-7.87841e-16 -5.28628 10.6793)
(-1.25923e-15 -6.01849 11.539)
(-1.87829e-15 -6.84274 12.4952)
(-2.62621e-15 -7.75769 13.5303)
(-3.44055e-15 -8.73607 14.6046)
(-4.21718e-15 -9.74815 15.6711)
(-4.8439e-15 -10.7655 16.6809)
(-5.25638e-15 -11.7659 17.6058)
(-5.47227e-15 -12.7353 18.4336)
(-5.5642e-15 -13.6317 19.1077)
(-5.5752e-15 -14.3252 19.4489)
(-5.4399e-15 -14.5563 19.1343)