/*--------------------------------*- C++ -*----------------------------------*\
| =========                 |                                                 |
| \\      /  F ield         | OpenFOAM: The Open Source CFD Toolbox           |
|  \\    /   O peration     | Version:  4.1                                   |
|   \\  /    A nd           | Web:      www.OpenFOAM.org                      |
|    \\/     M anipulation  |                                                 |
\*---------------------------------------------------------------------------*/
FoamFile
{
    version     2.0;
    format      ascii;
    class       volScalarField;
    location    "11";
    object      p;
}
// * * * * * * * * * * * * * * * * * * * * * * * * * * * * * * * * * * * * * //

dimensions      [0 2 -2 0 0 0 0];

internalField   nonuniform List<scalar> 
6785
(
589.349
510.576
463.457
409.892
363.028
317.895
275.886
236.165
198.699
163.343
129.306
96.3485
68.8447
40.5935
0.248994
-28.8373
-47.1867
-37.5109
-45.0474
-44.767
-47.5586
-48.5442
-49.3555
-49.1794
-48.0807
-45.9363
-42.9783
-38.7773
-33.9481
-30.8855
-18.9749
-23.1338
-14.3201
-19.039
-15.5408
-16.9329
-16.4126
-17.0724
-17.5239
-18.3492
-19.2242
-20.226
-20.6382
-19.8726
-18.2312
7.96943
6.13522
9.90102
5.12992
7.60182
5.00707
5.19424
4.18162
3.81142
3.38183
3.25458
3.18044
3.84731
4.83193
7.69843
19.5114
19.5038
22.863
21.1138
25.034
24.6718
27.2818
28.3537
30.0936
31.2086
32.2462
33.3569
34.9716
36.663
38.3501
36.2035
35.8292
38.0822
36.387
38.9514
37.7364
39.0881
38.5384
38.6807
38.2512
37.9811
37.6609
37.2558
37.201
36.3982
32.4112
29.0915
30.1847
27.1371
27.9505
25.6862
25.7728
24.2547
23.6003
22.0344
20.2844
18.2419
16.9412
15.7807
12.4032
-8.41814
-13.4218
-14.0432
-18.1109
-19.397
-23.2193
-25.4477
-29.0337
-31.589
-34.1391
-35.7395
-36.5078
-36.9926
-37.905
-38.1088
-37.1744
-39.883
-39.3176
-41.7175
-41.4624
-43.422
-43.6726
-44.8294
-44.9007
-44.6134
-43.5843
-42.2985
-40.7322
-39.437
-37.1773
-22.4706
-21.4494
-19.4103
-19.3011
-17.2653
-16.7225
-15.1285
-14.1103
-12.8018
-11.6269
-10.3909
-9.34815
-7.96328
-6.86081
-4.17812
1.75771
3.53617
5.28841
5.97734
7.76762
8.57143
10.0054
11.044
12.222
13.2847
14.3754
15.3443
16.4509
17.2702
18.3809
13.8868
15.3655
16.3641
16.798
17.9314
18.352
19.2148
19.7714
20.4544
21.0611
21.736
22.3498
23.1066
23.6299
24.4893
30.4345
31.1937
31.2806
31.2127
31.5716
31.2597
31.3536
31.2667
31.4018
31.7077
32.2173
32.7613
33.4294
33.8525
34.6073
37.0079
38.3273
36.9621
35.7887
35.2529
34.9285
35.1912
35.6083
36.3813
37.0757
37.5556
37.6412
37.7184
37.8817
37.9034
74.1523
71.3074
63.8388
56.5392
51.878
46.6546
41.8076
38.6242
35.8754
33.9537
32.3054
31.3319
30.3956
29.79
28.1035
39.0452
39.13
39.1561
39.1583
39.1684
39.2127
39.3584
39.311
39.2826
39.2811
39.3503
39.2099
39.2358
39.2333
39.0718
39.023
39.0866
39.082
38.827
38.9636
38.9496
38.7409
38.714
38.8517
38.8693
38.6649
38.6604
38.7937
38.8895
38.6639
38.8401
38.9566
38.8024
38.8409
38.9821
39.1248
39.0011
39.1492
39.313
39.2407
39.3108
39.4105
39.5733
39.5379
39.6095
39.6835
39.8197
39.8188
39.8943
39.9527
39.9608
40.0337
40.0794
40.1771
40.1968
40.2547
40.3142
40.4188
40.4209
40.3949
40.5837
40.6021
40.7744
40.5558
40.9363
41.3933
41.6104
41.2817
40.8465
42.3997
43.1386
38.7884
37.2905
41.1662
43.1934
26.4373
37.1807
40.2065
5.70201
19.7608
28.6465
28.7301
32.5548
18.9957
27.6957
32.6899
33.1593
34.1561
34.8574
35.3604
35.1848
36.9487
34.4239
31.6249
33.5603
32.1441
31.5848
32.8354
33.201
33.123
35.6218
42.6264
28.8331
30.2374
29.2069
29.6
30.7978
31.2593
30.6318
29.0955
30.0116
47.8577
29.8897
29.5033
27.2866
24.9106
25.1376
26.491
24.0703
20.6831
31.4679
23.7172
24.8687
23.3381
20.0862
17.5332
14.5462
14.9886
11.5717
17.0811
22.3091
18.1954
18.0607
17.1065
14.7416
12.8424
11.0508
4.59366
9.87398
20.4186
15.9758
14.4097
11.6328
9.89388
8.17158
6.98741
6.26159
3.01282
-1.7411
12.135
8.42718
8.43795
7.48363
5.92186
0.764877
-0.296699
1.87697
-11.4597
6.20456
2.64773
-0.332897
7.37965
0.932279
4.2578
3.00204
5.1653
8.34381
3.43034
6.32795
8.47043
4.90372
6.37587
5.30252
6.50645
8.82272
5.19918
6.50777
5.33924
6.48605
8.70459
4.44727
6.51731
8.38447
4.88894
6.02958
4.89148
5.86445
8.3969
4.34909
5.65651
4.30343
5.52605
8.20812
3.06428
5.51931
7.78047
3.53382
4.91058
3.52623
4.70268
7.62908
2.92558
4.48679
2.92411
4.36262
7.19876
1.68604
4.38953
6.58153
2.31414
3.78172
2.38517
3.61463
6.16795
1.93861
3.40986
2.0272
3.30578
5.49995
1.11431
3.27011
4.78377
1.60838
2.70714
1.66815
2.54772
4.09837
1.26137
2.21975
1.2721
2.05501
3.12949
0.515226
1.70077
2.23552
0.429767
0.94136
0.215346
0.559762
1.58568
0.000405784
0.000712998
0.00119068
0.00154586
0.00196744
0.00235844
0.00277753
0.00319379
0.00362614
0.00406507
0.00451711
0.00497977
0.00545581
0.00594512
0.00644935
0.0069692
0.00750588
0.00806017
0.00863276
0.00922379
0.00983277
0.0104582
0.0110973
0.0117455
0.0123961
0.0130401
0.013666
0.01426
0.0148072
0.0152927
0.0157039
0.0160328
0.0162787
0.0164494
0.0165619
0.0166412
0.016717
0.0168186
0.0169689
0.0171814
0.0174645
0.0178351
0.0183361
0.0190421
0.0200372
0.0213544
0.0229119
0.0244841
0.0257774
0.0265407
0.0264782
0.0253651
0.022987
0.0190925
0.0134115
0.00554727
-0.00484415
-0.0180233
-0.034323
-0.0514481
-0.0695828
-0.0890106
-0.0650883
-0.291827
-0.442827
-0.543578
-0.656836
-0.725196
-0.725098
-0.684419
-0.566815
-0.447941
-0.274554
-0.196695
-0.00837788
-0.049098
0.0752621
0.211618
-0.409579
0.00117624
0.00205402
0.00340844
0.00444376
0.00563957
0.00675672
0.00793964
0.00911434
0.0103266
0.0115546
0.0128141
0.0140997
0.0154184
0.0167703
0.0181597
0.0195885
0.0210599
0.0225759
0.0241379
0.0257461
0.0273986
0.0290907
0.0308138
0.0325546
0.0342936
0.0360046
0.0376546
0.0392045
0.0406119
0.0418353
0.0428403
0.0436064
0.0441342
0.0444494
0.0446047
0.0446752
0.0447494
0.0449142
0.0452376
0.0457599
0.0465066
0.047529
0.0489549
0.0510087
0.0539468
0.0578859
0.0626211
0.0675487
0.0718969
0.0750514
0.0762885
0.0751166
0.0710828
0.0636189
0.0520569
0.035245
0.0119607
-0.0191888
-0.0604323
-0.107252
-0.164456
-0.227241
-0.198001
-0.575055
-0.849661
-1.05122
-1.27047
-1.39945
-1.40375
-1.32712
-1.12791
-0.89744
-0.611842
-0.393417
-0.111223
0.00259108
0.21126
0.394275
0.371371
0.00183478
0.00331557
0.0056194
0.00736909
0.00939568
0.0112854
0.0132883
0.0152765
0.0173296
0.0194095
0.0215435
0.0237226
0.0259584
0.0282515
0.0306089
0.0330343
0.0355329
0.0381082
0.0407631
0.0434977
0.0463093
0.0491901
0.0521261
0.0550949
0.058064
0.0609896
0.0638162
0.0664782
0.0689037
0.0710226
0.072776
0.0741287
0.0750801
0.0756726
0.075993
0.0761669
0.0763423
0.0766645
0.0772471
0.0781563
0.0794325
0.0811589
0.0835484
0.0869778
0.0918791
0.0984483
0.106331
0.11449
0.1216
0.126589
0.128193
0.125532
0.117777
0.103908
0.082726
0.0522379
0.0103608
-0.0452401
-0.11805
-0.200166
-0.300398
-0.403286
-0.373435
-0.776848
-1.0707
-1.31676
-1.58484
-1.73885
-1.73876
-1.64005
-1.39448
-1.10817
-0.764412
-0.48295
-0.14806
0.0213712
0.297952
0.442081
0.708367
0.0024678
0.00454567
0.00776227
0.0102196
0.0130535
0.0156994
0.0184985
0.0212774
0.0241444
0.0270481
0.0300261
0.0330661
0.0361843
0.0393816
0.0426678
0.046048
0.0495296
0.0531176
0.0568157
0.0606246
0.06454
0.0685515
0.0726395
0.0767727
0.080906
0.0849783
0.088912
0.0926152
0.0959879
0.0989315
0.101364
0.103235
0.104544
0.10535
0.105776
0.105998
0.106223
0.106656
0.107457
0.108716
0.110486
0.112881
0.116197
0.120967
0.12781
0.137015
0.148094
0.159585
0.169639
0.176766
0.179207
0.175753
0.165258
0.146306
0.117201
0.0750942
0.016929
-0.0608744
-0.163518
-0.280679
-0.427744
-0.575303
-0.571473
-1.04289
-1.36566
-1.65972
-1.98868
-2.17647
-2.17073
-2.04416
-1.73584
-1.37735
-0.951496
-0.598331
-0.184491
0.0268773
0.386479
0.53049
0.842404
0.00304169
0.00573214
0.00986533
0.0130415
0.0166923
0.020105
0.0237104
0.0272904
0.0309817
0.0347201
0.038553
0.0424653
0.0464777
0.0505913
0.0548191
0.0591675
0.0636462
0.0682616
0.0730189
0.0779187
0.0829561
0.0881177
0.0933785
0.0986988
0.104021
0.109266
0.114334
0.119108
0.123458
0.127257
0.130396
0.132813
0.134504
0.135546
0.136095
0.136379
0.136667
0.137223
0.138253
0.139872
0.142141
0.145198
0.149425
0.155515
0.164287
0.176138
0.190445
0.205298
0.218306
0.227543
0.230725
0.226306
0.212794
0.188361
0.15078
0.0963024
0.0208342
-0.0805659
-0.214803
-0.369352
-0.567556
-0.761832
-0.804638
-1.34793
-1.69818
-2.04049
-2.43488
-2.65927
-2.64667
-2.48941
-2.11361
-1.67502
-1.1622
-0.724699
-0.230689
0.0405658
0.481592
0.621073
1.14189
0.0035806
0.00689079
0.0119217
0.0158194
0.0202802
0.0244579
0.0288638
0.0332403
0.0377494
0.0423159
0.0469959
0.0517722
0.0566695
0.0616898
0.0668486
0.0721541
0.077618
0.0832483
0.0890514
0.0950284
0.101173
0.10747
0.113889
0.120382
0.126877
0.13328
0.13947
0.1453
0.150614
0.155253
0.159086
0.162032
0.164088
0.165345
0.165997
0.166322
0.166654
0.167316
0.168563
0.170529
0.173282
0.176979
0.182083
0.189459
0.20014
0.214654
0.232251
0.250554
0.266626
0.27811
0.282199
0.277034
0.260791
0.231254
0.185664
0.119346
0.0270714
-0.0976746
-0.263667
-0.456886
-0.710456
-0.9546
-1.06755
-1.67371
-2.03829
-2.42082
-2.87528
-3.13146
-3.1079
-2.9184
-2.47502
-1.95732
-1.36132
-0.840371
-0.27207
0.0591497
0.576079
0.717197
1.34019
0.00408043
0.00802328
0.0139393
0.0185646
0.0238343
0.0287802
0.0339874
0.0391619
0.0444894
0.0498845
0.0554117
0.0610521
0.066834
0.0727606
0.0788498
0.0851116
0.0915599
0.0982043
0.105053
0.112106
0.119359
0.126792
0.13437
0.142036
0.149709
0.157275
0.16459
0.171484
0.177768
0.183255
0.187786
0.191265
0.193686
0.195157
0.195905
0.196264
0.19663
0.197393
0.198852
0.201163
0.204391
0.208706
0.214652
0.223274
0.235842
0.253041
0.273997
0.295837
0.315065
0.328886
0.333954
0.32811
0.309197
0.274628
0.221098
0.142974
0.0338095
-0.114667
-0.313149
-0.546807
-0.859801
-1.15596
-1.36262
-2.02698
-2.40156
-2.81937
-3.33235
-3.61696
-3.5777
-3.35295
-2.83825
-2.23872
-1.55812
-0.952234
-0.310206
0.0799818
0.669391
0.807064
1.53239
0.00454915
0.00913584
0.0159193
0.021276
0.0273499
0.0330646
0.0390701
0.0450411
0.0511839
0.0574047
0.0637754
0.0702759
0.076938
0.0837659
0.0907802
0.0979927
0.105419
0.113072
0.120959
0.129083
0.137437
0.145999
0.15473
0.163566
0.172411
0.181137
0.189577
0.197533
0.204787
0.21112
0.216347
0.220354
0.223131
0.224802
0.225631
0.226006
0.22639
0.227239
0.228901
0.231549
0.23524
0.240146
0.24689
0.256709
0.271137
0.291047
0.315452
0.340942
0.363451
0.379741
0.385916
0.379542
0.358137
0.318765
0.257583
0.16797
0.0421665
-0.130047
-0.36132
-0.636929
-1.01283
-1.36242
-1.68803
-2.40395
-2.79182
-3.24287
-3.81573
-4.12535
-4.06458
-3.8008
-3.20993
-2.52442
-1.75698
-1.06238
-0.347229
0.104916
0.76294
0.892614
1.74339
0.00498857
0.0102318
0.0178655
0.0239582
0.0308319
0.0373165
0.0441186
0.0508855
0.0578418
0.0648865
0.0720984
0.0794563
0.0869956
0.0947216
0.102657
0.110817
0.119218
0.127874
0.136796
0.145986
0.155437
0.165126
0.175008
0.185012
0.19503
0.204917
0.214484
0.223506
0.231734
0.238917
0.244841
0.249374
0.252501
0.254363
0.255259
0.255633
0.256018
0.25694
0.258797
0.261776
0.265917
0.271385
0.278876
0.289834
0.306089
0.328742
0.356699
0.385964
0.411893
0.430788
0.43819
0.431414
0.407658
0.363673
0.295077
0.194241
0.0519973
-0.143986
-0.408283
-0.727291
-1.16861
-1.57167
-2.04256
-2.79439
-3.20597
-3.6902
-4.3261
-4.65628
-4.56615
-4.25878
-3.58654
-2.81106
-1.95518
-1.16841
-0.382002
0.135506
0.856626
1.00225
1.8975
0.00540259
0.0113145
0.0197805
0.0266128
0.0342808
0.0415359
0.0491315
0.056693
0.0644599
0.072326
0.0803757
0.0885876
0.097
0.10562
0.114473
0.123574
0.132944
0.142599
0.15255
0.162801
0.173345
0.184156
0.195185
0.206354
0.217543
0.228592
0.239288
0.24938
0.258585
0.26662
0.273242
0.278297
0.281767
0.283805
0.28475
0.285102
0.285468
0.286447
0.288489
0.291793
0.296369
0.302365
0.310546
0.322575
0.340616
0.366048
0.397679
0.430867
0.460374
0.48203
0.490797
0.483766
0.45783
0.409467
0.333762
0.222067
0.0637129
-0.155878
-0.453108
-0.816626
-1.32428
-1.77947
-2.42398
-3.18638
-3.64287
-4.16307
-4.86825
-5.21466
-5.08518
-4.72847
-3.96858
-3.09859
-2.1523
-1.26973
-0.414055
0.172368
0.950212
1.10161
2.05921
0.00579364
0.0123869
0.0216669
0.0292424
0.037699
0.0457249
0.0541111
0.0624657
0.0710404
0.0797254
0.0886096
0.0976719
0.106954
0.116463
0.126228
0.136267
0.146602
0.15725
0.168225
0.179532
0.191163
0.203092
0.215266
0.227598
0.23996
0.252171
0.264
0.275166
0.285353
0.294246
0.301567
0.307142
0.310946
0.313147
0.314121
0.314428
0.314753
0.315771
0.317988
0.32161
0.326609
0.333096
0.341898
0.35492
0.374699
0.40295
0.438394
0.475668
0.508931
0.533514
0.543791
0.536655
0.508711
0.456206
0.373716
0.251563
0.0774984
-0.165377
-0.495134
-0.90381
-1.47649
-1.98144
-2.83009
-3.56704
-4.10249
-4.66327
-5.44773
-5.80698
-5.62607
-5.21272
-4.35764
-3.38786
-2.34871
-1.36613
-0.443193
0.21591
1.04456
1.19132
2.25412
0.00616431
0.0134511
0.0235273
0.031849
0.041088
0.0498846
0.0590579
0.0682039
0.0775832
0.0870841
0.0967991
0.106708
0.116855
0.127249
0.137922
0.148893
0.160186
0.171822
0.183816
0.196174
0.208888
0.221931
0.235246
0.248741
0.262274
0.27565
0.288616
0.300861
0.312037
0.321791
0.329815
0.335907
0.340036
0.342384
0.343364
0.3436
0.343857
0.344895
0.347277
0.351212
0.356621
0.363557
0.372906
0.386827
0.408285
0.4394
0.478815
0.520359
0.557575
0.585268
0.597208
0.590126
0.560351
0.503962
0.415047
0.282906
0.0936493
-0.171946
-0.53341
-0.987209
-1.62112
-2.17684
-3.25334
-3.91502
-4.58218
-5.19178
-6.06944
-6.43925
-6.1929
-5.71378
-4.75451
-3.679
-2.5442
-1.45711
-0.469371
0.267903
1.1398
1.31897
2.40789
0.00651666
0.0145091
0.0253638
0.0344347
0.0444495
0.0540164
0.0639731
0.0739084
0.084089
0.0944026
0.104945
0.115696
0.126703
0.137978
0.149553
0.161451
0.173698
0.186316
0.199323
0.212727
0.226519
0.240671
0.255125
0.26978
0.284485
0.29903
0.313138
0.326469
0.338641
0.349263
0.357991
0.364598
0.369043
0.37152
0.372482
0.372618
0.372779
0.373815
0.37635
0.380595
0.386401
0.393744
0.403552
0.418265
0.441331
0.475359
0.518926
0.564941
0.606329
0.637326
0.65109
0.64422
0.612796
0.552787
0.457829
0.316225
0.112413
-0.175065
-0.566983
-1.06505
-1.7547
-2.3685
-3.66316
-4.18486
-5.06509
-5.74848
-6.7385
-7.11803
-6.79039
-6.23438
-5.16006
-3.97217
-2.73852
-1.54191
-0.491306
0.327815
1.23583
1.41956
2.5645
0.00685261
0.0155627
0.0271787
0.0370011
0.0477849
0.0581215
0.0688576
0.0795799
0.090558
0.101681
0.113046
0.124636
0.136499
0.148649
0.161121
0.17394
0.187135
0.200729
0.214744
0.229187
0.244052
0.25931
0.274899
0.290713
0.306592
0.322309
0.337564
0.35199
0.365166
0.376664
0.3861
0.393219
0.397969
0.400556
0.401472
0.401476
0.401509
0.402519
0.405197
0.40975
0.415942
0.423645
0.433817
0.449198
0.473785
0.510778
0.5587
0.609408
0.655209
0.689716
0.705473
0.698977
0.66608
0.602715
0.502111
0.351619
0.13402
-0.17421
-0.594902
-1.13554
-1.87497
-2.55576
-3.99784
-4.37119
-5.54305
-6.33301
-7.46067
-7.85045
-7.42391
-6.77808
-5.57553
-4.26768
-2.93136
-1.62152
-0.50573
0.395332
1.33318
1.54483
2.74477
0.00717381
0.0166132
0.0289737
0.0395501
0.0510958
0.0622011
0.0737123
0.0852191
0.0969907
0.108919
0.121103
0.133527
0.14624
0.159261
0.172624
0.186358
0.200495
0.21506
0.230075
0.245552
0.261486
0.277845
0.294567
0.31154
0.328593
0.345486
0.361895
0.377424
0.391615
0.403996
0.414144
0.421774
0.426818
0.429494
0.430336
0.430172
0.430041
0.430998
0.433808
0.438671
0.445241
0.453254
0.463681
0.479586
0.505592
0.545607
0.598112
0.653754
0.704232
0.742468
0.760392
0.754425
0.720218
0.653741
0.547872
0.389093
0.158584
-0.168992
-0.616427
-1.1972
-1.98109
-2.73509
-4.2343
-4.54048
-6.04138
-6.94605
-8.24185
-8.64397
-8.0992
-7.34901
-6.00242
-4.56596
-3.12216
-1.69717
-0.511367
0.469947
1.4336
1.66279
2.86753
0.00748169
0.0176617
0.0307508
0.042083
0.0543835
0.0662563
0.0785381
0.0908264
0.103387
0.116118
0.129115
0.142368
0.155928
0.169813
0.184062
0.198705
0.213777
0.229306
0.245316
0.261821
0.278817
0.296274
0.314125
0.332256
0.350486
0.368559
0.386131
0.402772
0.417988
0.431263
0.442129
0.450267
0.455594
0.458338
0.459072
0.4587
0.458367
0.459243
0.462174
0.46735
0.474295
0.482566
0.493126
0.509391
0.53669
0.579787
0.637131
0.697971
0.753416
0.79561
0.815879
0.810582
0.77519
0.705783
0.594973
0.428488
0.186018
-0.159294
-0.631209
-1.24921
-2.07351
-2.90513
-4.41143
-4.74642
-6.51066
-7.58732
-9.0881
-9.5064
-8.82225
-7.9518
-6.4426
-4.86786
-3.31051
-1.76806
-0.508053
0.550107
1.54192
1.77195
3.06833
0.00777751
0.0187094
0.0325115
0.0446012
0.0576493
0.0702879
0.0833356
0.0964023
0.109748
0.123276
0.137083
0.15116
0.16556
0.180304
0.195432
0.210979
0.226979
0.243465
0.260464
0.277991
0.296044
0.314593
0.333571
0.352859
0.372268
0.391527
0.410269
0.428035
0.444289
0.458468
0.470059
0.478704
0.484301
0.487089
0.48768
0.487057
0.486478
0.487241
0.490285
0.495782
0.5031
0.511577
0.522136
0.538569
0.567013
0.613257
0.675726
0.742051
0.802779
0.84917
0.871957
0.867432
0.8309
0.758627
0.643071
0.469374
0.215893
-0.14543
-0.639467
-1.29162
-2.15392
-3.06639
-4.55356
-5.02156
-6.93555
-8.26741
-10.0066
-10.4456
-9.59922
-8.59149
-6.89834
-5.17434
-3.49616
-1.83336
-0.49521
0.637176
1.6594
1.92398
3.256
0.00806237
0.0197572
0.0342574
0.0471061
0.0608944
0.0742971
0.0881056
0.101947
0.116074
0.130395
0.145006
0.159902
0.175136
0.190733
0.206735
0.223177
0.2401
0.257536
0.275517
0.294059
0.313163
0.3328
0.352903
0.373347
0.393937
0.414388
0.434311
0.453213
0.470518
0.485614
0.497937
0.507088
0.512944
0.515749
0.516159
0.515238
0.514366
0.514982
0.518127
0.52396
0.531658
0.540286
0.550694
0.567077
0.596487
0.645947
0.713861
0.785982
0.852338
0.903169
0.928627
0.924895
0.887115
0.811832
0.691513
0.510939
0.247341
-0.128235
-0.642055
-1.32542
-2.22469
-3.21904
-4.69221
-5.43115
-7.35022
-9.01157
-11.0051
-11.4697
-10.4363
-9.27338
-7.37219
-5.48601
-3.6789
-1.89253
-0.472186
0.732064
1.78507
2.06404
3.38199
0.00833719
0.0208057
0.0359897
0.0495987
0.0641198
0.0782844
0.0928487
0.107462
0.122364
0.137474
0.152883
0.168593
0.184655
0.201099
0.217968
0.2353
0.253137
0.271517
0.290472
0.310023
0.330172
0.350892
0.372116
0.393716
0.41549
0.437139
0.458253
0.478306
0.496678
0.512704
0.525768
0.535424
0.541526
0.544322
0.54451
0.543238
0.54202
0.54245
0.54569
0.551877
0.559969
0.568696
0.578786
0.594867
0.62503
0.67778
0.7515
0.829754
0.902113
0.957616
0.985834
0.982758
0.943369
0.864626
0.739228
0.55191
0.279033
-0.109035
-0.6404
-1.35236
-2.28856
-3.36505
-4.86012
-5.99523
-7.72718
-9.81938
-12.093
-12.587
-11.3393
-10.0029
-7.8669
-5.8037
-3.85852
-1.94495
-0.438413
0.835138
1.92049
2.19421
3.5896
0.00860278
0.0218557
0.0377098
0.05208
0.0673266
0.0822508
0.0975655
0.112946
0.128618
0.144512
0.160715
0.177232
0.194117
0.211401
0.229129
0.247344
0.266089
0.285405
0.305327
0.32588
0.347068
0.368866
0.391208
0.413964
0.436925
0.459779
0.482094
0.503313
0.522768
0.539741
0.553556
0.563718
0.570052
0.57281
0.572731
0.571052
0.569429
0.569634
0.57296
0.579528
0.588038
0.59681
0.606401
0.62189
0.652553
0.708673
0.7886
0.873355
0.952112
1.01248
1.04341
1.04058
0.99885
0.915792
0.784672
0.590593
0.309289
-0.0894908
-0.636295
-1.37472
-2.34855
-3.50824
-5.06755
-6.56803
-8.04281
-10.6984
-13.2775
-13.8058
-12.3141
-10.7857
-8.38525
-6.12857
-4.03484
-1.98992
-0.393293
0.947605
2.06709
2.38487
3.79448
0.0088598
0.0229078
0.0394186
0.054551
0.0705157
0.0861969
0.102257
0.118401
0.134838
0.15151
0.1685
0.185819
0.20352
0.221638
0.240219
0.259309
0.278953
0.299197
0.320079
0.341626
0.363847
0.386718
0.410174
0.434086
0.458236
0.482303
0.505833
0.528233
0.548791
0.566728
0.581306
0.591975
0.598527
0.601216
0.600822
0.598674
0.596583
0.596515
0.599922
0.606908
0.61587
0.624638
0.63353
0.648092
0.678954
0.738534
0.825118
0.916769
1.00232
1.06762
1.10095
1.09755
1.05228
0.963623
0.825894
0.625055
0.336318
-0.0713369
-0.631606
-1.39487
-2.40783
-3.65271
-5.30751
-7.05078
-8.37528
-11.6823
-14.5639
-15.1358
-13.3659
-11.6271
-8.92992
-6.46192
-4.20782
-2.0267
-0.336238
1.06999
2.22338
2.5414
3.92251
0.00910881
0.0239625
0.0411173
0.0570125
0.0736879
0.0901233
0.106922
0.123825
0.141022
0.158467
0.176239
0.194354
0.212864
0.231808
0.251235
0.271192
0.291729
0.312893
0.334726
0.35726
0.380506
0.404445
0.429012
0.454078
0.479422
0.50471
0.529466
0.553066
0.574747
0.593667
0.609021
0.620199
0.626957
0.629545
0.628784
0.626099
0.623469
0.623079
0.626562
0.63401
0.643475
0.652195
0.660166
0.67342
0.704124
0.767262
0.861008
0.959962
1.05264
1.12272
1.15772
1.15238
1.10186
1.006
0.860781
0.653432
0.358511
-0.0560885
-0.62796
-1.4149
-2.46924
-3.80315
-5.57955
-7.51816
-8.83202
-12.7455
-15.9749
-16.5877
-14.4998
-12.5321
-9.50342
-6.80494
-4.37754
-2.05459
-0.266631
1.203
2.39197
2.73483
4.1531
0.00935026
0.0250204
0.0428067
0.0594653
0.0768439
0.0940304
0.111563
0.12922
0.14717
0.165383
0.18393
0.202835
0.222147
0.241911
0.262175
0.282991
0.304412
0.326488
0.349265
0.372777
0.397042
0.422042
0.447717
0.473937
0.500477
0.526994
0.552992
0.577811
0.600637
0.620562
0.636707
0.648397
0.655346
0.6578
0.656616
0.653321
0.650074
0.649304
0.65286
0.660829
0.670865
0.679498
0.686309
0.697814
0.72794
0.794747
0.896209
1.00285
1.10284
1.1771
1.21246
1.20322
1.14532
1.04067
0.887435
0.674264
0.374716
-0.0447862
-0.626481
-1.43635
-2.53497
-3.9638
-5.88627
-8.01003
-9.4922
-13.9093
-17.5443
-18.1724
-15.72
-13.5048
-10.108
-7.15865
-4.54425
-2.07286
-0.183831
1.34756
2.5724
2.91889
4.27231
0.00958451
0.0260819
0.0444876
0.06191
0.0799845
0.0979187
0.116178
0.134585
0.153283
0.172258
0.191574
0.211261
0.231369
0.251944
0.273038
0.294706
0.317002
0.339981
0.363692
0.388175
0.41345
0.439506
0.466285
0.493657
0.521398
0.549153
0.576407
0.602465
0.62646
0.647414
0.664368
0.676574
0.683701
0.685985
0.684319
0.680333
0.676382
0.675171
0.678798
0.687359
0.698053
0.706574
0.711963
0.721215
0.750264
0.820866
0.930631
1.04525
1.15234
1.22959
1.26327
1.24763
1.18026
1.06572
0.904546
0.686746
0.384428
-0.0378245
-0.627632
-1.45999
-2.60617
-4.13756
-6.22845
-8.55166
-10.4076
-15.1924
-19.3089
-19.9006
-17.0293
-14.5484
-10.7455
-7.52379
-4.70829
-2.08082
-0.087195
1.50437
2.76592
3.09795
4.48544
0.00981183
0.0271473
0.0461607
0.0643471
0.0831101
0.101789
0.120769
0.139921
0.159361
0.179091
0.199169
0.219631
0.240527
0.261907
0.283823
0.306333
0.329495
0.353368
0.378005
0.40345
0.429728
0.456833
0.48471
0.513235
0.542179
0.571181
0.599707
0.627027
0.652218
0.674226
0.692008
0.704736
0.712028
0.714105
0.711895
0.70713
0.702378
0.700655
0.704352
0.713592
0.725058
0.733455
0.737141
0.743558
0.770943
0.845473
0.96411
1.08671
1.20015
1.27835
1.30761
1.28298
1.20467
1.07997
0.911621
0.690844
0.387868
-0.034903
-0.631181
-1.48577
-2.68289
-4.32549
-6.60429
-9.16025
-11.6236
-16.6025
-21.3111
-21.7858
-18.4287
-15.665
-11.4172
-7.90087
-4.86998
-2.0778
0.0239604
1.67465
2.974
3.33733
4.71322
0.0100324
0.0282172
0.0478266
0.0667772
0.0862212
0.10564
0.125336
0.145226
0.165402
0.185881
0.206715
0.227946
0.249622
0.271797
0.294527
0.317871
0.34189
0.366648
0.392201
0.418599
0.445871
0.474018
0.502989
0.532664
0.562815
0.593074
0.622889
0.651494
0.677909
0.701001
0.719633
0.73289
0.740333
0.742165
0.739343
0.733705
0.728045
0.725731
0.729498
0.739522
0.751903
0.760183
0.761863
0.764778
0.789802
0.868374
0.996314
1.12642
1.24459
1.32078
1.34248
1.30695
1.21745
1.08325
0.909028
0.687282
0.385926
-0.0351063
-0.636292
-1.51295
-2.76417
-4.52676
-7.00952
-9.84693
-13.1413
-18.1107
-23.5863
-23.8474
-19.9191
-16.8559
-12.1235
-8.29017
-5.02952
-2.0631
0.150309
1.85925
3.19488
3.55357
4.84099
0.0102463
0.0292919
0.0494859
0.0692008
0.0893184
0.109474
0.129878
0.150502
0.171406
0.192629
0.21421
0.236202
0.258651
0.281614
0.305148
0.329317
0.354184
0.379817
0.406276
0.433617
0.461875
0.491056
0.521117
0.55194
0.583301
0.614826
0.645947
0.675862
0.703533
0.72774
0.747246
0.761042
0.768623
0.770171
0.766665
0.76005
0.753365
0.750368
0.754207
0.765141
0.778615
0.786808
0.786161
0.784806
0.80663
0.889273
1.02661
1.16299
1.28323
1.35359
1.3651
1.31833
1.21867
1.07632
0.897875
0.67739
0.379995
-0.0370919
-0.641699
-1.54018
-2.8482
-4.73887
-7.43882
-10.6159
-14.8786
-19.668
-26.1707
-26.1095
-21.5017
-18.1209
-12.8637
-8.69171
-5.18685
-2.03603
0.292547
2.0588
3.43036
3.7611
5.07082
0.0104536
0.0303717
0.051139
0.0716181
0.0924018
0.11329
0.134396
0.155747
0.177373
0.199332
0.221654
0.2444
0.267613
0.291355
0.315685
0.340669
0.366374
0.392871
0.420227
0.448501
0.477735
0.507942
0.539086
0.571056
0.60363
0.636431
0.668876
0.700129
0.729088
0.754445
0.774853
0.789199
0.796906
0.798129
0.793864
0.78616
0.778316
0.774535
0.778446
0.790438
0.805223
0.813396
0.810082
0.803563
0.821156
0.907673
1.05396
1.19439
1.31271
1.37335
1.37385
1.31733
1.20948
1.06064
0.879784
0.662872
0.37172
-0.0393252
-0.645901
-1.56572
-2.9325
-4.95805
-7.88612
-11.4625
-16.6955
-21.3034
-29.1488
-28.5976
-23.1779
-19.4587
-13.6356
-9.10507
-5.34132
-1.99571
0.451449
2.27454
3.68279
4.03977
5.33573
0.0106543
0.0314571
0.0527862
0.0740294
0.0954717
0.117088
0.138889
0.160962
0.183303
0.205991
0.229047
0.252537
0.276506
0.301019
0.326135
0.351924
0.378458
0.405809
0.434051
0.463247
0.493448
0.524672
0.556893
0.590006
0.623796
0.657883
0.691671
0.72429
0.754574
0.781119
0.802458
0.817367
0.82519
0.826046
0.820943
0.812027
0.802876
0.798194
0.802177
0.815402
0.831766
0.840024
0.833686
0.820954
0.832991
0.922783
1.07689
1.21767
1.32906
1.37769
1.36886
1.30544
1.19174
1.0381
0.856613
0.645531
0.36275
-0.0402773
-0.647302
-1.58753
-3.01408
-5.17938
-8.34376
-12.3739
-18.5062
-23.1334
-32.6364
-31.3397
-24.949
-20.8663
-14.4355
-9.5291
-5.4914
-1.94113
0.627813
2.50732
3.94884
4.28228
5.46586
0.0108482
0.0325483
0.0544279
0.0764351
0.0985283
0.120868
0.143358
0.166146
0.189195
0.212604
0.236385
0.260613
0.28533
0.310604
0.336497
0.363081
0.390432
0.418627
0.447743
0.477851
0.509007
0.54124
0.57453
0.608784
0.643791
0.679174
0.714325
0.74834
0.779988
0.807761
0.830066
0.845554
0.853483
0.853931
0.847905
0.837644
0.827023
0.821303
0.825357
0.840019
0.858284
0.866785
0.857048
0.836834
0.841545
0.933588
1.09341
1.22874
1.32882
1.36631
1.3519
1.2849
1.16767
1.01069
0.830169
0.627022
0.35456
-0.0385202
-0.644241
-1.6033
-3.08944
-5.39683
-8.80167
-13.3323
-20.3021
-25.2869
-36.6514
-34.3651
-26.8154
-22.3396
-15.2586
-9.96158
-5.635
-1.87108
0.822529
2.75762
4.23216
4.56356
5.7601
0.0110352
0.0336456
0.0560643
0.0788352
0.101572
0.12463
0.147801
0.171298
0.195047
0.219171
0.24367
0.268627
0.294082
0.320108
0.346767
0.374137
0.402294
0.431321
0.4613
0.492308
0.524409
0.55764
0.591992
0.627382
0.663608
0.700297
0.736831
0.772273
0.805326
0.834373
0.857682
0.873767
0.881794
0.881792
0.874755
0.863006
0.850729
0.843818
0.847935
0.864273
0.884826
0.893786
0.88024
0.850918
0.846053
0.93909
1.10039
1.22306
1.31079
1.34113
1.32568
1.25828
1.13946
0.980232
0.80199
0.608707
0.348396
-0.0327036
-0.634955
-1.61045
-3.15463
-5.60325
-9.24767
-14.3178
-22.0632
-27.8155
-41.1489
-37.7035
-28.7765
-23.8743
-16.0985
-10.3992
-5.77017
-1.78413
1.03666
3.02641
4.53195
4.83328
5.94239
0.0112151
0.0347495
0.0576956
0.0812298
0.104602
0.128373
0.152219
0.176418
0.20086
0.22569
0.250898
0.276576
0.30276
0.329529
0.356945
0.385089
0.414041
0.443888
0.474718
0.506614
0.539647
0.573866
0.609272
0.645793
0.683239
0.721243
0.75918
0.796083
0.830586
0.860957
0.88531
0.902014
0.910133
0.909638
0.901499
0.888106
0.873969
0.865685
0.869856
0.888144
0.911443
0.921143
0.903269
0.862673
0.846079
0.938001
1.09313
1.19767
1.27668
1.30536
1.29315
1.228
1.10904
0.948173
0.773241
0.591645
0.34535
-0.0214586
-0.617511
-1.60612
-3.20534
-5.79065
-9.66918
-15.3136
-23.7573
-30.7106
-46.0652
-41.3798
-30.8303
-25.4664
-16.9482
-10.8375
-5.89503
-1.67842
1.27147
3.31428
4.84921
5.10268
6.22315
0.0113876
0.0358603
0.0593219
0.0836191
0.107618
0.132099
0.156611
0.181505
0.206633
0.232161
0.25807
0.284459
0.311363
0.338864
0.367026
0.395934
0.425669
0.456325
0.487993
0.520764
0.554718
0.589912
0.626362
0.664008
0.702674
0.742002
0.781363
0.819763
0.855764
0.887511
0.912955
0.930303
0.938508
0.937481
0.928144
0.912939
0.896711
0.886846
0.891053
0.911608
0.938185
0.948939
0.925882
0.871479
0.842172
0.927275
1.06673
1.1532
1.23025
1.26244
1.25703
1.19616
1.07797
0.915547
0.744732
0.576681
0.34648
-0.0033081
-0.589823
-1.58741
-3.2372
-5.95082
-10.0545
-16.3025
-25.3517
-33.9669
-51.317
-45.4069
-32.972
-27.1122
-17.8
-11.2708
-6.00735
-1.55176
1.52852
3.62211
5.18573
5.43281
6.52
0.0115523
0.0369782
0.0609432
0.0860029
0.110622
0.135805
0.160977
0.186558
0.212363
0.238582
0.265183
0.292274
0.319889
0.348112
0.37701
0.406669
0.437176
0.468627
0.50112
0.534753
0.569614
0.605772
0.643255
0.68202
0.721905
0.762565
0.803372
0.843305
0.880855
0.914036
0.94062
0.958641
0.966931
0.96533
0.954699
0.937502
0.918926
0.907238
0.91145
0.934631
0.965083
0.977099
0.94727
0.877475
0.83469
0.901285
1.01921
1.09359
1.17567
1.21542
1.21959
1.16442
1.04736
0.883015
0.717032
0.56459
0.352921
0.023344
-0.549793
-1.55165
-3.24641
-6.07662
-10.3952
-17.2672
-26.8185
-37.5926
-56.8119
-49.7844
-35.193
-28.8076
-18.6462
-11.6925
-6.10446
-1.40158
1.80973
3.95069
5.5386
5.73914
6.73268
0.011709
0.0381036
0.0625595
0.0883812
0.113611
0.139492
0.165315
0.191577
0.218051
0.244951
0.272236
0.30002
0.328335
0.35727
0.386892
0.417292
0.448558
0.480791
0.514095
0.548576
0.58433
0.621439
0.659944
0.699818
0.740921
0.78292
0.825194
0.866698
0.905852
0.94053
0.968311
0.987035
0.995411
0.9932
0.981175
0.961792
0.94058
0.926788
0.930958
0.957161
0.992089
1.00501
0.966295
0.882463
0.821453
0.85533
0.953723
1.024
1.11649
1.16675
1.18259
1.134
1.01799
0.85098
0.690599
0.556176
0.365908
0.0600978
-0.495654
-1.49715
-3.23082
-6.1638
-10.6882
-18.1936
-28.147
-41.6482
-62.4653
-54.5068
-37.4806
-30.5465
-19.4794
-12.0954
-6.18322
-1.22503
2.11742
4.30051
5.90943
6.04051
7.05323
0.011857
0.0392369
0.0641708
0.0907538
0.116587
0.143159
0.169626
0.19656
0.223695
0.251268
0.279227
0.307695
0.3367
0.366336
0.396671
0.427799
0.459811
0.492813
0.526915
0.562228
0.598861
0.636906
0.67642
0.717395
0.759711
0.803056
0.846818
0.889933
0.930748
0.966992
0.99603
1.01549
1.02396
1.0211
1.00758
0.985809
0.961641