/*--------------------------------*- C++ -*----------------------------------*\
| =========                 |                                                 |
| \\      /  F ield         | OpenFOAM: The Open Source CFD Toolbox           |
|  \\    /   O peration     | Version:  4.1                                   |
|   \\  /    A nd           | Web:      www.OpenFOAM.org                      |
|    \\/     M anipulation  |                                                 |
\*---------------------------------------------------------------------------*/
FoamFile
{
    version     2.0;
    format      ascii;
    class       volSymmTensorField;
    location    "6";
    object      turbulenceProperties:R;
}
// * * * * * * * * * * * * * * * * * * * * * * * * * * * * * * * * * * * * * //

dimensions      [0 2 -2 0 0 0 0];

internalField   nonuniform List<symmTensor> 
6785
(
(0.753313 1.43315e-19 7.6077e-20 0.753189 0.000165737 0.753498)
(0.753354 -1.08347e-19 -5.30281e-20 0.75332 6.01966e-06 0.753326)
(0.753325 -3.72686e-20 -2.77966e-20 0.753359 3.81769e-05 0.753316)
(0.753334 2.1787e-20 1.53285e-20 0.753344 2.59393e-05 0.753322)
(0.753332 -2.8741e-20 -8.44388e-21 0.753346 2.6493e-05 0.753322)
(0.753333 1.26338e-20 -2.8097e-21 0.753343 2.34823e-05 0.753325)
(0.753332 3.1776e-21 3.05848e-21 0.753341 2.18398e-05 0.753327)
(0.753333 -2.2923e-20 -8.36177e-21 0.753338 2.01529e-05 0.753329)
(0.753333 8.05677e-21 1.52904e-22 0.753336 1.86957e-05 0.753331)
(0.753333 4.80331e-21 6.0661e-21 0.753333 1.74122e-05 0.753334)
(0.753332 -1.52923e-20 -3.10421e-21 0.753332 1.62458e-05 0.753336)
(0.753334 5.34958e-21 -1.1798e-21 0.753328 1.19586e-05 0.753338)
(0.753334 8.82899e-22 5.33631e-21 0.753328 7.33113e-06 0.753337)
(0.753319 -6.87915e-21 1.10107e-21 0.753361 1.4632e-05 0.753321)
(0.753347 2.75447e-21 -2.64403e-21 0.75339 -7.36228e-05 0.753263)
(0.75333 1.80315e-19 1.17863e-19 0.75301 0.000218024 0.75366)
(0.753351 -1.27052e-19 -7.2436e-20 0.753341 -1.53476e-05 0.753309)
(0.753325 -4.75959e-20 -2.86457e-20 0.753378 1.18579e-05 0.753297)
(0.753341 1.62901e-20 2.04677e-20 0.753353 -6.06103e-06 0.753307)
(0.753333 -2.05605e-20 -1.15339e-20 0.753362 1.38256e-06 0.753305)
(0.753336 6.37026e-21 2.5158e-21 0.753356 -2.41858e-06 0.753308)
(0.753334 -9.60288e-21 6.33785e-21 0.753357 -1.63184e-06 0.753309)
(0.753335 -1.2743e-20 -6.63273e-21 0.753355 -2.75803e-06 0.753311)
(0.753334 1.7049e-21 1.37182e-22 0.753354 -3.98712e-06 0.753312)
(0.753334 -6.50569e-21 7.80243e-21 0.753353 -7.06988e-06 0.753313)
(0.753334 -6.25168e-21 -4.20463e-21 0.753351 -1.28427e-05 0.753315)
(0.753334 3.72043e-21 -1.38427e-21 0.753347 -2.20064e-05 0.753319)
(0.753335 6.85496e-22 7.86841e-21 0.753347 -3.25483e-05 0.753318)
(0.753334 -1.54228e-21 -5.707e-22 0.753368 -4.10212e-05 0.753298)
(0.753331 4.08514e-21 3.83398e-21 0.75339 -4.15774e-05 0.753279)
(0.753329 1.99487e-19 6.90153e-20 0.752967 0.000225398 0.753704)
(0.753339 -1.28269e-19 -7.26117e-20 0.753349 -1.44886e-05 0.753312)
(0.753325 -3.65017e-20 -2.17732e-20 0.75337 -3.42231e-07 0.753304)
(0.753337 3.31835e-20 -1.75199e-20 0.753352 -1.41893e-05 0.753311)
(0.75333 -1.49159e-20 -1.71532e-20 0.753361 -5.1476e-06 0.753309)
(0.753334 4.04663e-21 2.15247e-21 0.753353 -9.5341e-06 0.753313)
(0.753332 2.04938e-21 -3.05095e-20 0.753355 -6.7864e-06 0.753313)
(0.753333 -5.11691e-21 -3.50933e-21 0.753354 -8.38651e-06 0.753313)
(0.753333 4.91676e-21 2.53686e-21 0.753361 -1.22947e-05 0.753306)
(0.753333 1.21572e-20 -1.88236e-20 0.75338 -2.47244e-05 0.753288)
(0.753333 2.06768e-20 9.70789e-21 0.753405 -4.34435e-05 0.753262)
(0.753333 1.42698e-20 5.69694e-21 0.753404 -5.0071e-05 0.753263)
(0.753331 -2.98123e-20 -1.68358e-20 0.753364 -2.93914e-05 0.753305)
(0.753331 -3.27131e-20 -2.77478e-20 0.753323 -8.87834e-06 0.753346)
(0.753333 1.564e-20 9.10102e-21 0.75329 1.14468e-05 0.753377)
(0.753332 1.73124e-19 1.21397e-19 0.752948 0.000224513 0.75372)
(0.753337 -1.13948e-19 -1.02382e-19 0.753349 -1.29463e-05 0.753314)
(0.753329 -4.54272e-20 -5.18273e-21 0.753365 -7.84489e-06 0.753306)
(0.753338 1.70772e-20 9.87767e-21 0.75335 -1.71177e-05 0.753312)
(0.75333 -5.3905e-21 -3.66165e-20 0.753359 -7.50069e-06 0.753311)
(0.753336 -2.53177e-21 1.75347e-20 0.75335 -1.35208e-05 0.753314)
(0.753332 -2.64506e-21 -2.02205e-21 0.753353 -8.6518e-06 0.753315)
(0.753334 4.97242e-21 -2.26512e-20 0.75335 -1.10334e-05 0.753316)
(0.753333 -4.22511e-21 7.96603e-21 0.753356 -1.23972e-05 0.753311)
(0.753333 1.25524e-20 6.94388e-21 0.753371 -2.04339e-05 0.753296)
(0.753334 1.7132e-20 -7.11217e-21 0.753398 -3.22251e-05 0.753269)
(0.753334 2.01407e-20 1.781e-20 0.753411 -3.50473e-05 0.753255)
(0.753332 6.06568e-20 3.301e-20 0.753405 -2.4984e-05 0.753263)
(0.75334 -3.87948e-20 -2.08126e-20 0.753369 -2.73522e-05 0.753291)
(0.753333 -7.14087e-20 -4.48535e-20 0.753271 3.32115e-05 0.753396)
(0.753332 2.03239e-19 9.67364e-20 0.752946 0.000219402 0.753722)
(0.753336 -1.09735e-19 -1.01038e-19 0.753341 -8.68505e-06 0.753323)
(0.75333 -4.81623e-20 -3.97868e-20 0.753369 -1.47443e-05 0.753301)
(0.753337 2.93154e-20 4.75365e-21 0.753351 -1.97424e-05 0.753312)
(0.75333 -2.51351e-21 -3.48699e-20 0.753358 -1.05722e-05 0.753311)
(0.753336 1.02096e-21 -1.86985e-20 0.753351 -1.68785e-05 0.753314)
(0.753332 7.26738e-21 -6.83401e-21 0.753354 -1.21258e-05 0.753314)
(0.753334 1.56531e-21 -2.16289e-20 0.75335 -1.45263e-05 0.753316)
(0.753333 -1.96086e-21 -1.2747e-20 0.753353 -1.42191e-05 0.753314)
(0.753334 1.33441e-20 -2.94397e-21 0.753358 -1.7374e-05 0.753309)
(0.753333 1.56371e-20 -7.53545e-21 0.753371 -2.10821e-05 0.753295)
(0.753334 1.73264e-21 -3.78491e-21 0.753384 -2.34187e-05 0.753282)
(0.753331 7.06289e-21 4.6015e-21 0.753397 -2.18875e-05 0.753271)
(0.753338 1.69648e-20 2.11499e-20 0.753401 -3.58637e-05 0.753261)
(0.753331 -4.96403e-20 -2.88182e-20 0.753316 2.14029e-05 0.753353)
(0.753333 1.9219e-19 1.24331e-19 0.752959 0.000209406 0.753708)
(0.753335 -1.24132e-19 -5.29568e-20 0.75333 -2.10942e-06 0.753335)
(0.753331 -8.47645e-20 -1.68951e-20 0.753374 -1.97563e-05 0.753295)
(0.753336 1.77129e-20 1.98685e-20 0.753355 -2.08435e-05 0.753309)
(0.753331 -1.27365e-20 2.72461e-21 0.753358 -1.22472e-05 0.753311)
(0.753335 -1.84913e-20 1.19871e-20 0.753353 -1.74604e-05 0.753313)
(0.753332 -2.87845e-22 2.12468e-21 0.753355 -1.35698e-05 0.753313)
(0.753334 -7.16272e-21 6.17859e-21 0.753353 -1.53314e-05 0.753314)
(0.753333 -2.16214e-20 5.46796e-21 0.753353 -1.42064e-05 0.753314)
(0.753333 3.5126e-22 -4.27126e-21 0.753354 -1.49635e-05 0.753312)
(0.753333 2.72647e-21 8.97363e-21 0.753359 -1.5654e-05 0.753308)
(0.753334 -9.10269e-21 6.18668e-21 0.753366 -1.7737e-05 0.7533)
(0.753332 -9.93809e-21 -4.13504e-21 0.753381 -2.00603e-05 0.753287)
(0.753336 2.99329e-20 2.04405e-20 0.753395 -3.31371e-05 0.753269)
(0.75333 -3.69933e-20 -2.61295e-20 0.753352 5.60878e-06 0.753318)
(0.753333 2.05432e-19 1.40031e-19 0.752976 0.000200783 0.75369)
(0.753334 -1.15164e-19 -4.70569e-20 0.75332 3.28192e-06 0.753345)
(0.753332 -9.90932e-20 -2.5081e-20 0.753375 -2.22559e-05 0.753294)
(0.753335 7.39961e-21 5.18853e-21 0.753358 -2.1304e-05 0.753307)
(0.753331 -3.06272e-22 1.84859e-20 0.753357 -1.30427e-05 0.753311)
(0.753335 -1.52605e-20 1.15065e-20 0.753353 -1.65673e-05 0.753313)
(0.753333 -2.53455e-21 -1.1621e-21 0.753354 -1.31572e-05 0.753313)
(0.753334 1.15456e-21 3.15866e-21 0.753352 -1.37297e-05 0.753314)
(0.753333 -1.47559e-20 1.18138e-20 0.753352 -1.23709e-05 0.753314)
(0.753333 -1.02156e-20 -6.40075e-21 0.753352 -1.21372e-05 0.753315)
(0.753333 4.09057e-21 1.37054e-20 0.753353 -1.16361e-05 0.753313)
(0.753334 -3.15536e-21 1.4784e-20 0.753357 -1.20657e-05 0.75331)
(0.753333 -2.25673e-20 -1.31434e-20 0.753366 -1.31642e-05 0.753301)
(0.753335 3.2804e-20 1.4849e-20 0.753386 -2.54702e-05 0.753278)
(0.753332 -3.52003e-20 -1.63906e-20 0.753387 -1.60885e-05 0.753281)
(0.753333 2.19811e-19 1.08257e-19 0.752991 0.000195147 0.753675)
(0.753334 -9.90622e-20 -5.63164e-20 0.753318 4.07064e-06 0.753348)
(0.753332 -8.13217e-20 -5.94242e-20 0.753373 -2.3326e-05 0.753295)
(0.753335 2.67315e-21 -6.73751e-21 0.75336 -2.16165e-05 0.753305)
(0.753332 6.54758e-21 4.02846e-21 0.753357 -1.37766e-05 0.753311)
(0.753335 -6.71769e-21 -1.35916e-20 0.753351 -1.6447e-05 0.753314)
(0.753333 -8.43373e-22 -3.2596e-21 0.753351 -1.3626e-05 0.753316)
(0.753334 7.31953e-21 4.11868e-21 0.753349 -1.4836e-05 0.753317)
(0.753333 -4.90228e-22 -8.96122e-21 0.753349 -1.36635e-05 0.753318)
(0.753333 -1.26497e-20 -7.17827e-21 0.753348 -1.21542e-05 0.753319)
(0.753333 -1.32817e-21 -3.3699e-22 0.753347 -8.78322e-06 0.75332)
(0.753333 7.02584e-21 9.91546e-22 0.753347 -4.90244e-06 0.75332)
(0.753333 -1.29769e-20 -6.1606e-21 0.753352 -2.81552e-06 0.753315)
(0.753334 4.34105e-21 2.75583e-21 0.753376 -1.40533e-05 0.75329)
(0.753333 -3.30795e-21 5.43826e-21 0.753433 -4.10333e-05 0.753235)
(0.753334 2.04928e-19 1.19279e-19 0.753003 0.000192977 0.753663)
(0.753334 -1.1048e-19 -5.87619e-20 0.753326 9.42025e-07 0.75334)
(0.753333 -6.29128e-20 -5.72599e-20 0.753371 -2.18997e-05 0.753296)
(0.753335 1.06615e-20 6.61523e-21 0.753362 -1.94081e-05 0.753303)
(0.753332 -3.62673e-21 -1.48039e-21 0.753362 -1.45121e-05 0.753306)
(0.753334 6.09256e-21 -1.81717e-20 0.753359 -1.93728e-05 0.753306)
(0.753333 5.88352e-21 1.61677e-22 0.753358 -1.86544e-05 0.753309)
(0.753334 -1.30723e-20 -1.04428e-20 0.75335 -1.94714e-05 0.753316)
(0.753333 -2.12389e-21 -1.88632e-20 0.753343 -1.53628e-05 0.753324)
(0.753333 1.95931e-21 -1.95657e-21 0.753333 -1.0385e-05 0.753334)
(0.753333 -1.74689e-20 -1.27786e-20 0.753325 -2.57546e-06 0.753342)
(0.753333 4.36686e-21 -1.42219e-20 0.753322 5.06856e-06 0.753344)
(0.753334 2.26559e-21 3.11276e-21 0.753331 6.66611e-06 0.753335)
(0.753333 -1.54947e-20 -8.24055e-21 0.753364 -5.79054e-06 0.753302)
(0.753333 3.0492e-20 9.44885e-21 0.75349 -7.69472e-05 0.753177)
(0.753333 1.82569e-19 7.49729e-20 0.752993 0.000202573 0.753674)
(0.753334 -1.14913e-19 -6.302e-20 0.753344 -1.74783e-06 0.753322)
(0.753332 -4.97476e-20 -3.74999e-20 0.753368 -1.29507e-05 0.7533)
(0.753334 3.25942e-20 -1.23555e-20 0.753362 -1.21054e-05 0.753304)
(0.753332 1.23959e-20 7.74381e-21 0.753372 -1.32605e-05 0.753296)
(0.753334 2.29376e-20 -1.31948e-22 0.753379 -2.1801e-05 0.753287)
(0.753333 2.31445e-20 -1.2128e-20 0.753381 -2.36162e-05 0.753286)
(0.753334 -5.31948e-21 -8.1512e-21 0.753373 -2.30927e-05 0.753294)
(0.753333 -2.03959e-21 -1.33381e-20 0.753359 -1.76216e-05 0.753308)
(0.753333 -2.23034e-21 -1.58611e-20 0.753335 -8.79482e-06 0.753331)
(0.753333 -2.8879e-20 -2.76411e-20 0.753305 4.06252e-06 0.753362)
(0.753333 -2.95396e-20 -4.0847e-20 0.753283 1.29843e-05 0.753383)
(0.753334 -6.39769e-21 -3.06994e-20 0.753288 9.43502e-06 0.753378)
(0.753331 -1.03727e-20 -1.13266e-20 0.753342 -9.95618e-06 0.753326)
(0.753334 3.49225e-20 1.27428e-20 0.753514 -0.000107939 0.753152)
(0.753332 1.75352e-19 9.05672e-20 0.752953 0.000216728 0.753715)
(0.753335 -1.22014e-19 -5.21035e-20 0.753338 3.86412e-06 0.753327)
(0.753332 -2.28294e-20 -9.47292e-20 0.753378 -1.16519e-05 0.75329)
(0.753334 2.53152e-20 1.15086e-20 0.753359 -7.22834e-06 0.753307)
(0.753332 1.5631e-20 2.35899e-20 0.753369 -9.15124e-06 0.753298)
(0.753334 5.46779e-20 -1.46268e-20 0.753381 -1.78952e-05 0.753285)
(0.753333 2.41774e-20 1.30977e-20 0.75339 -1.92184e-05 0.753278)
(0.753333 1.22568e-20 1.50319e-20 0.753387 -1.88336e-05 0.75328)
(0.753333 1.59113e-20 -2.46925e-20 0.753384 -1.73666e-05 0.753283)
(0.753333 2.91676e-20 1.33429e-20 0.753377 -1.76821e-05 0.75329)
(0.753333 3.80045e-20 1.68038e-20 0.75336 -1.51353e-05 0.753307)
(0.753333 -1.40891e-20 -2.95104e-20 0.753324 -6.90589e-06 0.753343)
(0.753333 -6.70762e-20 -4.85907e-20 0.753283 3.00135e-06 0.753383)
(0.75333 -7.74678e-20 -7.34696e-20 0.753292 -1.64018e-06 0.753378)
(0.753335 -2.15858e-20 -2.26575e-20 0.753421 -7.64316e-05 0.753243)
(0.753332 1.75153e-19 1.05283e-19 0.752955 0.000198986 0.753713)
(0.753335 -8.06897e-20 -2.52246e-20 0.753276 2.85343e-05 0.753389)
(0.753333 -5.45296e-20 -8.3524e-20 0.753373 -1.17138e-05 0.753294)
(0.753334 -2.41793e-20 -1.75819e-20 0.753368 -1.37977e-05 0.753298)
(0.753333 6.72935e-21 1.73982e-20 0.753363 -1.05574e-05 0.753304)
(0.753334 4.92485e-20 -1.93723e-21 0.753368 -1.46833e-05 0.753299)
(0.753333 9.31261e-21 7.67365e-21 0.753377 -1.60569e-05 0.75329)
(0.753334 1.20419e-20 3.29339e-20 0.753381 -1.7208e-05 0.753285)
(0.753333 2.54447e-20 7.87599e-21 0.753385 -1.70344e-05 0.753282)
(0.753334 1.60825e-20 1.30696e-20 0.753388 -1.85854e-05 0.753278)
(0.753334 4.92363e-20 3.56444e-20 0.753391 -2.13014e-05 0.753275)
(0.753334 -6.53566e-21 1.02592e-21 0.753393 -2.47837e-05 0.753273)
(0.753333 -5.44182e-20 -2.62204e-20 0.753376 -2.08922e-05 0.753291)
(0.753336 -5.20811e-20 -2.79551e-20 0.753321 -6.59725e-06 0.753344)
(0.753334 -7.10809e-20 -4.42005e-20 0.753291 3.53247e-06 0.753374)
(0.753332 1.80919e-19 9.15344e-20 0.753024 0.000151519 0.753643)
(0.753334 -3.30264e-21 -2.56547e-20 0.753206 5.97395e-05 0.75346)
(0.753333 -7.31948e-20 -2.66427e-20 0.753337 -1.6108e-06 0.75333)
(0.753334 -3.6494e-20 -5.83659e-20 0.75337 -2.22133e-05 0.753297)
(0.753333 -1.67023e-20 -9.65789e-21 0.753366 -2.13115e-05 0.753301)
(0.753334 1.95481e-20 1.48192e-20 0.753361 -1.96825e-05 0.753306)
(0.753333 1.00531e-20 -3.39798e-21 0.753361 -1.76922e-05 0.753305)
(0.753333 -1.64159e-20 2.87874e-20 0.753364 -1.70113e-05 0.753302)
(0.753333 1.80369e-20 6.5045e-21 0.753367 -1.60362e-05 0.753299)
(0.753333 3.60182e-21 8.24361e-21 0.753371 -1.55391e-05 0.753296)
(0.753333 9.3378e-21 2.06651e-20 0.753376 -1.49275e-05 0.753291)
(0.753334 1.20829e-20 1.33597e-20 0.753382 -1.53841e-05 0.753285)
(0.753332 -1.75869e-20 -2.11256e-21 0.753389 -1.33904e-05 0.753279)
(0.753338 -3.28937e-20 -1.24979e-20 0.753394 -2.91897e-05 0.753269)
(0.75333 -3.62371e-20 -1.67704e-20 0.753334 8.4597e-06 0.753336)
(0.753335 1.61039e-19 9.92951e-20 0.753112 0.000107845 0.753552)
(0.753333 2.04893e-20 -1.91944e-21 0.753167 8.94582e-05 0.753501)
(0.753333 -5.12047e-20 -6.83275e-20 0.753322 7.06034e-06 0.753345)
(0.753334 -5.98575e-20 -5.86093e-20 0.753378 -2.31554e-05 0.753288)
(0.753333 -2.52641e-20 -3.12564e-20 0.753371 -2.03943e-05 0.753296)
(0.753333 6.91981e-21 1.47717e-22 0.753357 -1.58183e-05 0.753309)
(0.753333 2.98315e-21 1.04861e-20 0.753354 -1.43345e-05 0.753313)
(0.753333 2.25837e-21 -1.04827e-20 0.753355 -1.46112e-05 0.753312)
(0.753333 3.1578e-21 3.58391e-21 0.753357 -1.44157e-05 0.75331)
(0.753333 -3.08181e-21 1.0876e-20 0.753359 -1.41466e-05 0.753308)
(0.753333 1.39278e-21 -8.81118e-21 0.753362 -1.3536e-05 0.753305)
(0.753333 -1.38025e-21 2.19175e-21 0.753365 -1.39646e-05 0.753301)
(0.753333 -7.21354e-21 3.65391e-21 0.753373 -1.44205e-05 0.753294)
(0.753336 -1.91351e-20 -1.61048e-20 0.753387 -2.73729e-05 0.753277)
(0.75333 1.03661e-20 1.46144e-21 0.753381 -1.11237e-05 0.753289)
(0.753332 1.45896e-19 9.09324e-20 0.753129 0.000114435 0.753539)
(0.753333 6.13565e-20 2.45953e-20 0.753132 8.23517e-05 0.753536)
(0.753333 -5.81393e-20 -7.67806e-21 0.753275 3.00812e-06 0.753392)
(0.753333 -5.84501e-20 -3.43883e-20 0.753356 -3.33139e-05 0.753311)
(0.753333 9.98402e-22 -3.66003e-21 0.753384 -3.58294e-05 0.753283)
(0.753333 -1.32789e-21 3.35635e-20 0.753381 -2.7574e-05 0.753285)
(0.753333 -1.94492e-20 -1.2697e-21 0.753369 -1.85276e-05 0.753298)
(0.753333 -2.40391e-20 -2.19506e-20 0.753359 -1.3342e-05 0.753307)
(0.753333 -1.38115e-20 4.07822e-21 0.753356 -1.11433e-05 0.75331)
(0.753333 8.84785e-21 1.26519e-20 0.753357 -9.67583e-06 0.753309)
(0.753333 9.7684e-21 1.11262e-20 0.75336 -8.71709e-06 0.753307)
(0.753333 -6.99525e-21 1.04435e-20 0.753363 -8.05789e-06 0.753303)
(0.753334 3.08428e-21 9.53213e-21 0.75337 -8.79631e-06 0.753297)
(0.753333 2.30919e-20 2.18231e-20 0.753391 -1.60524e-05 0.753276)
(0.753334 -7.0848e-20 -2.68578e-20 0.753415 -2.42914e-05 0.753251)
(0.753437 -1.02341e-21 -6.76588e-23 0.753184 0.000104145 0.753379)
(0.75331 -5.56122e-22 -9.97644e-23 0.753369 0.000119444 0.753321)
(0.753335 5.63697e-22 -2.28821e-22 0.753328 2.42692e-05 0.753336)
(0.753334 2.45374e-22 -1.73229e-22 0.753328 -3.89338e-06 0.753338)
(0.753335 -2.86531e-22 -1.86854e-22 0.753324 6.32929e-06 0.753341)
(0.753333 -9.6065e-24 -2.00203e-22 0.753331 -1.01957e-06 0.753336)
(0.753333 1.12276e-22 -1.84616e-22 0.75333 -4.71479e-06 0.753338)
(0.753334 5.55184e-23 -1.74613e-22 0.753327 -2.00285e-06 0.753339)
(0.753334 -1.2721e-21 -2.98576e-22 0.753328 1.14201e-06 0.753339)
(0.753333 -1.48756e-21 -8.5594e-22 0.753331 -7.93237e-07 0.753336)
(0.753333 -1.10646e-21 -6.86964e-22 0.75333 -5.685e-06 0.753337)
(0.753335 -1.54313e-21 -8.37358e-22 0.753326 -1.00546e-07 0.753339)
(0.753333 5.06912e-22 -6.93728e-22 0.753331 -1.02922e-06 0.753336)
(0.753333 1.60964e-21 -7.35331e-22 0.75333 -4.70058e-06 0.753337)
(0.753334 -4.01062e-22 -6.17518e-22 0.753328 -2.2058e-06 0.753338)
(0.753334 -2.36325e-21 -8.29343e-22 0.753329 -6.08087e-07 0.753338)
(0.753333 -1.00472e-21 -9.18358e-22 0.753332 -1.29816e-06 0.753335)
(0.753332 1.14666e-22 -1.25507e-21 0.753332 -6.37622e-06 0.753336)
(0.753335 -3.51552e-21 -1.20242e-21 0.753327 -2.85856e-06 0.753338)
(0.753333 -1.15388e-21 -9.66174e-22 0.753333 -1.82939e-06 0.753334)
(0.753333 -1.15627e-22 -1.50671e-21 0.753331 -6.22399e-06 0.753336)
(0.753334 -3.92723e-21 -1.58557e-21 0.75333 -5.07642e-06 0.753336)
(0.753334 -7.13459e-21 -2.40851e-21 0.753331 -4.36779e-06 0.753335)
(0.753333 -4.17779e-21 -7.80084e-22 0.753333 -1.94546e-06 0.753334)
(0.753333 -6.43755e-21 -3.11565e-21 0.753333 -5.41051e-06 0.753334)
(0.753334 -1.19702e-20 -4.042e-21 0.753332 -4.35177e-06 0.753334)
(0.753334 -1.56942e-20 -5.64145e-21 0.753332 -4.26302e-06 0.753334)
(0.753333 -5.10499e-21 -7.27823e-22 0.753334 -1.39255e-06 0.753333)
(0.753332 4.5644e-21 -6.36322e-21 0.753335 -3.22263e-06 0.753332)
(0.753335 -7.15997e-21 -6.53717e-21 0.75333 -3.91764e-06 0.753335)
(0.753333 -1.0701e-22 -7.24783e-22 0.753334 -9.86609e-07 0.753333)
(0.753333 1.18247e-20 -6.9522e-21 0.753335 -2.41203e-06 0.753332)
(0.753334 1.16212e-20 -5.54801e-21 0.753333 -2.01256e-06 0.753333)
(0.753334 4.22818e-21 -4.85416e-21 0.753333 -3.23894e-06 0.753333)
(0.753333 5.36868e-21 -8.32512e-22 0.753334 -6.5696e-07 0.753332)
(0.753333 2.03463e-20 -3.7385e-21 0.753336 -1.27514e-06 0.753332)
(0.753335 1.37067e-20 -1.80112e-21 0.753331 -3.06265e-06 0.753334)
(0.753333 7.63751e-21 -8.51414e-22 0.753335 -5.31996e-07 0.753332)
(0.753333 1.41923e-20 -3.37431e-22 0.753335 -1.33747e-06 0.753332)
(0.753334 1.30022e-20 1.21732e-21 0.753333 -1.40843e-06 0.753333)
(0.753334 9.95625e-21 2.47714e-21 0.753334 -2.92649e-06 0.753333)
(0.753333 1.83569e-21 1.26904e-22 0.753335 -3.7047e-07 0.753332)
(0.753333 -4.4643e-21 2.8753e-21 0.753335 -8.2643e-07 0.753332)
(0.753334 -6.26526e-21 2.31881e-21 0.753333 -8.05389e-07 0.753333)
(0.753333 -4.22831e-21 1.80878e-21 0.753334 -2.19039e-06 0.753333)
(0.753333 -3.48892e-21 4.95642e-22 0.753335 -4.98358e-08 0.753331)
(0.753333 -8.67665e-21 1.02883e-21 0.753335 1.67631e-07 0.753332)
(0.753334 -4.77922e-21 3.30095e-22 0.753331 -1.71619e-06 0.753334)
(0.753333 -1.57665e-21 5.36668e-22 0.753336 2.67949e-08 0.753331)
(0.753333 -1.06733e-21 -2.00544e-23 0.753335 1.00656e-07 0.753333)
(0.753334 5.81765e-22 -1.28863e-22 0.753332 1.74232e-07 0.753334)
(0.753333 1.34335e-21 -5.58525e-24 0.753333 -1.25863e-06 0.753334)
(0.753333 8.11054e-22 -4.7179e-22 0.753334 -1.63227e-07 0.753332)
(0.753333 -1.26657e-22 1.7347e-22 0.753334 -3.44121e-07 0.753333)
(0.753334 -1.67877e-21 9.21951e-23 0.753332 -3.54938e-07 0.753334)
(0.753333 -4.06024e-21 -4.12446e-22 0.753332 -3.6633e-07 0.753334)
(0.753333 -3.4275e-21 -5.10545e-22 0.753333 9.33179e-07 0.753334)
(0.753333 -2.34464e-21 -1.06297e-21 0.753333 -1.27774e-06 0.753334)
(0.753334 -3.28079e-21 -1.30727e-21 0.753332 -1.16628e-06 0.753335)
(0.753333 -1.73918e-21 3.57192e-21 0.753336 1.17815e-06 0.75333)
(0.753332 -2.21377e-22 -1.77766e-21 0.753334 -3.88981e-07 0.753333)
(0.753334 4.2103e-21 -1.66625e-21 0.753331 -1.58458e-06 0.753335)
(0.753333 -8.54048e-21 -2.29688e-21 0.753333 3.83168e-06 0.753335)
(0.753334 -1.34215e-20 8.36728e-21 0.753341 8.2731e-06 0.753326)
(0.753331 1.32152e-20 -5.55924e-21 0.753333 -7.10551e-06 0.753336)
(0.753334 -1.9478e-20 -5.7968e-21 0.753327 9.07501e-06 0.753339)
(0.753334 1.82931e-20 1.1485e-20 0.753345 -3.96395e-07 0.753322)
(0.75333 8.50283e-20 -4.05556e-21 0.753335 -3.1382e-05 0.753336)
(0.753336 6.48785e-20 4.66851e-21 0.753328 -2.16982e-05 0.753336)
(0.753332 1.0668e-19 1.49138e-20 0.753344 -3.88677e-05 0.753324)
(0.753333 7.63025e-20 2.13148e-20 0.753355 -2.93288e-05 0.753311)
(0.753331 2.98863e-20 3.1998e-20 0.753361 -8.46709e-06 0.753307)
(0.753336 2.14409e-20 3.49732e-20 0.753355 -1.14448e-06 0.75331)
(0.753334 8.35196e-20 4.32228e-20 0.753366 -3.55911e-05 0.7533)
(0.753332 2.42301e-20 2.01379e-20 0.753365 -1.55467e-05 0.753303)
(0.75334 -4.04751e-20 4.59086e-20 0.753361 1.20917e-05 0.753298)
(0.753334 4.91816e-20 4.68685e-20 0.75338 -3.51728e-05 0.753286)
(0.753331 -8.53116e-21 1.93348e-20 0.753368 -8.42631e-06 0.753301)
(0.753342 -7.09634e-20 4.64622e-20 0.753371 2.38758e-05 0.753287)
(0.753331 3.60096e-21 4.05973e-20 0.753395 -5.83681e-05 0.753274)
(0.75333 -4.93071e-20 2.32791e-20 0.753364 -4.27142e-05 0.753306)
(0.753339 -7.03822e-20 2.12229e-20 0.753345 3.7702e-06 0.753316)
(0.753327 3.83225e-20 2.83244e-20 0.753375 -3.63943e-05 0.753298)
(0.753334 -4.62926e-21 2.57161e-20 0.753351 -7.34802e-06 0.753316)
(0.753337 -3.13253e-20 2.79267e-20 0.75335 -1.05435e-06 0.753313)
(0.753329 -1.54385e-20 2.35047e-20 0.753357 -2.40358e-05 0.753314)
(0.753336 -7.50465e-20 2.37366e-20 0.753344 2.41615e-06 0.75332)
(0.753332 -1.15321e-19 2.16832e-20 0.753351 -1.56038e-07 0.753317)
(0.753333 -1.46075e-19 1.76789e-20 0.75335 -4.46664e-06 0.753317)
(0.753334 -1.57352e-19 1.28205e-20 0.75335 -1.35927e-05 0.753317)
(0.753334 -1.38751e-19 8.80582e-21 0.75335 -2.46792e-05 0.753316)
(0.753331 -4.48734e-20 1.17519e-20 0.753355 -2.99671e-05 0.753314)
(0.753333 -1.66404e-20 1.92259e-20 0.753346 -4.05575e-06 0.753321)
(0.753334 -6.91199e-20 1.84662e-20 0.753348 1.27188e-05 0.753319)
(0.753333 -5.47067e-20 1.57489e-20 0.753346 9.61827e-07 0.753321)
(0.753333 -2.70919e-20 1.3021e-20 0.753346 -1.01153e-05 0.753321)
(0.753332 -3.43547e-21 1.24248e-20 0.753345 -8.12716e-06 0.753323)
(0.753334 3.24359e-20 1.2667e-20 0.753341 2.59616e-06 0.753325)
(0.753333 6.55994e-20 1.47484e-20 0.753344 -3.61151e-06 0.753323)
(0.753334 9.86832e-20 1.85481e-20 0.753343 -5.13572e-06 0.753324)
(0.753331 1.19831e-19 2.31338e-20 0.75335 -1.83438e-05 0.753318)
(0.753333 4.25573e-20 -3.45243e-21 0.753344 -6.14596e-06 0.753323)
(0.753334 4.72295e-20 1.54031e-20 0.753341 7.5276e-06 0.753325)
(0.753332 8.21969e-20 1.38107e-20 0.753343 -2.97148e-06 0.753325)
(0.753333 -2.08832e-21 1.97794e-20 0.75334 -3.77546e-06 0.753326)
(0.753334 -6.30662e-20 2.06117e-20 0.75334 -1.31667e-05 0.753327)
(0.753333 -1.34718e-19 1.78648e-20 0.753341 -2.19476e-05 0.753326)
(0.753333 -2.02927e-19 1.09908e-20 0.75334 -1.69848e-05 0.753327)
(0.753335 -2.50274e-19 2.53515e-21 0.753337 -1.29383e-05 0.753329)
(0.753332 -2.48526e-19 -4.91637e-21 0.753343 -1.70622e-05 0.753324)
(0.753332 -1.24952e-19 -6.43161e-22 0.753345 -1.98857e-05 0.753323)
(0.753334 -3.97697e-20 2.8148e-20 0.75334 -7.18555e-06 0.753327)
(0.753332 -1.24721e-19 1.31226e-20 0.753338 -8.85033e-06 0.75333)
(0.753333 -1.33017e-19 1.04391e-20 0.753336 -2.60888e-05 0.753331)
(0.753333 -6.56007e-20 4.53857e-21 0.753337 -2.79717e-05 0.75333)
(0.753333 -4.05159e-20 2.61056e-21 0.753338 -3.53668e-05 0.753329)
(0.753333 -1.64119e-20 1.79421e-21 0.753341 -4.83478e-05 0.753326)
(0.753334 1.35052e-20 4.32503e-21 0.753339 -5.14986e-05 0.753326)
(0.753331 5.78937e-20 8.40486e-21 0.753346 -4.13887e-05 0.753323)
(0.753334 9.03032e-20 1.299e-20 0.753341 -2.78371e-05 0.753325)
(0.753333 3.29047e-20 2.48674e-20 0.753331 -7.51962e-06 0.753336)
(0.753332 5.14389e-20 6.25176e-21 0.753335 -4.14681e-05 0.753332)
(0.753332 1.1833e-19 5.195e-21 0.753332 -8.05931e-05 0.753335)
(0.753333 1.55936e-19 1.03303e-20 0.753333 -6.76267e-05 0.753334)
(0.753334 2.22663e-19 1.47007e-20 0.753336 -6.6458e-05 0.75333)
(0.753332 2.8514e-19 2.27881e-20 0.753343 -7.30626e-05 0.753324)
(0.753337 3.67634e-19 3.4821e-20 0.753339 -7.80662e-05 0.753324)
(0.753328 4.26797e-19 4.96342e-20 0.753363 -9.47035e-05 0.753309)
(0.753337 3.52705e-19 5.67334e-20 0.753335 -4.8888e-05 0.753328)
(0.753333 8.76288e-20 -2.19726e-20 0.753312 3.0033e-06 0.753355)
(0.75333 1.32852e-19 3.06541e-20 0.753341 -2.01073e-05 0.753329)
(0.753336 1.16638e-19 3.28221e-20 0.75333 -2.16424e-05 0.753335)
(0.753333 -2.20983e-19 4.77749e-20 0.753336 -2.35131e-05 0.753331)
(0.753332 -4.73702e-19 4.16945e-20 0.753333 -8.79489e-06 0.753335)
(0.753335 -7.16596e-19 2.37377e-20 0.753323 3.37338e-05 0.753342)
(0.753335 -8.34831e-19 -2.01537e-21 0.753319 4.94559e-05 0.753346)
(0.753327 -7.88799e-19 -2.46949e-20 0.753331 5.88267e-05 0.753342)
(0.753344 -4.55724e-19 -2.22309e-20 0.753291 7.19599e-05 0.753366)
(0.753333 -8.75526e-20 -1.29992e-20 0.753296 1.69117e-05 0.753371)
(0.753329 -4.6891e-20 5.35125e-21 0.753321 1.28404e-05 0.75335)
(0.753338 5.68153e-20 -9.65261e-22 0.753306 4.76155e-05 0.753356)
(0.753332 1.48e-19 -3.72005e-21 0.753313 2.51447e-05 0.753355)
(0.753335 7.06422e-20 2.15656e-21 0.753305 3.01317e-05 0.753361)
(0.753333 -4.72671e-20 3.07988e-21 0.753306 2.53035e-05 0.753361)
(0.753335 -6.66691e-20 1.01797e-20 0.753294 5.28083e-05 0.753371)
(0.753335 -3.55456e-20 8.96913e-21 0.753287 8.58565e-05 0.753378)
(0.753328 -5.80794e-20 6.62847e-21 0.75329 0.000104348 0.753381)
(0.753346 5.38239e-21 1.09306e-20 0.753242 0.00013077 0.753412)
(0.753332 2.93531e-21 1.43961e-20 0.753292 3.08315e-05 0.753376)
(0.75333 1.50812e-20 1.1239e-20 0.75331 5.58053e-05 0.753361)
(0.753341 7.82437e-20 9.42959e-21 0.753296 0.000136315 0.753363)
(0.753331 9.29196e-20 1.15346e-20 0.753306 9.81664e-05 0.753364)
(0.753338 1.04787e-19 1.44472e-20 0.753285 0.000136844 0.753377)
(0.753327 1.38542e-19 1.86168e-20 0.753293 0.00020836 0.75338)
(0.753339 1.48646e-19 1.89995e-20 0.753266 0.000267312 0.753395)
(0.753339 4.662e-20 8.12805e-21 0.7533 0.000125584 0.753361)
(0.753328 -3.36807e-21 5.8781e-21 0.753332 1.44559e-05 0.75334)
(0.753334 7.99616e-21 4.65733e-21 0.753326 7.60926e-06 0.75334)
(0.753332 -5.90458e-21 6.82748e-21 0.753329 2.68765e-05 0.75334)
(0.753341 3.14252e-20 4.94122e-21 0.753313 6.14727e-05 0.753347)
(0.753335 1.76272e-20 -2.60872e-21 0.753325 2.73572e-05 0.753339)
(0.75333 -6.64504e-21 -1.19975e-21 0.75334 9.84574e-07 0.753329)
(0.753336 1.88157e-21 -3.68727e-22 0.753327 2.52756e-06 0.753336)
(0.753329 -1.51942e-21 -3.09513e-21 0.753339 9.15802e-06 0.753332)
(0.753334 2.02657e-21 -3.9216e-22 0.753332 3.99019e-06 0.753334)
(0.753335 4.08903e-22 -2.93431e-21 0.753329 8.56368e-06 0.753336)
(0.75333 4.36461e-22 -3.78754e-22 0.75334 4.82442e-06 0.75333)
(0.753336 4.54578e-21 -1.30321e-22 0.753327 3.36668e-06 0.753336)
(0.753333 -1.02394e-22 -2.17375e-21 0.753333 9.54155e-06 0.753334)
(0.753331 -8.86885e-22 -3.54612e-22 0.753338 4.93095e-06 0.753331)
(0.753336 1.75053e-21 -2.63209e-22 0.753328 3.87001e-06 0.753336)
(0.75333 -4.1632e-22 -1.91548e-21 0.753339 9.67195e-06 0.753331)
(0.753334 -2.57548e-23 -2.81338e-22 0.753332 4.97807e-06 0.753334)
(0.753335 -8.84693e-22 -2.03256e-21 0.753329 9.21017e-06 0.753336)
(0.753331 3.3579e-22 -2.83184e-22 0.753339 5.32417e-06 0.753331)
(0.753336 1.61206e-21 -2.19175e-22 0.753328 4.21466e-06 0.753336)
(0.75333 -4.69568e-22 -1.88964e-21 0.753339 9.56322e-06 0.753331)
(0.753334 3.4609e-21 -2.13565e-22 0.753332 5.00957e-06 0.753334)
(0.753335 8.26051e-22 -1.57749e-21 0.753329 8.76486e-06 0.753336)
(0.75333 -5.11443e-22 -2.76981e-22 0.753339 5.31347e-06 0.753331)
(0.753336 1.49098e-21 -1.53063e-22 0.753327 4.35006e-06 0.753337)
(0.753333 2.07172e-22 -1.22592e-21 0.753334 9.06402e-06 0.753334)
(0.753331 3.84448e-22 -1.64278e-22 0.753337 5.18259e-06 0.753332)
(0.753336 1.83326e-21 -6.14355e-23 0.753328 4.39506e-06 0.753336)
(0.75333 5.22304e-22 -4.79526e-22 0.753338 9.16786e-06 0.753331)
(0.753334 -3.40355e-22 -5.24266e-23 0.753332 5.08664e-06 0.753335)
(0.753335 -1.02879e-21 -6.26839e-22 0.753329 8.70698e-06 0.753336)
(0.753331 -8.36019e-22 -1.25937e-22 0.753337 5.27173e-06 0.753332)
(0.753336 3.29378e-23 -3.41236e-23 0.753328 4.15173e-06 0.753337)
(0.75333 -1.2564e-21 -9.92251e-22 0.753338 8.7407e-06 0.753331)
(0.753334 -2.39848e-22 -1.36695e-22 0.753331 4.83285e-06 0.753335)
(0.753335 -2.54772e-22 -1.18588e-21 0.753329 8.05802e-06 0.753336)
(0.753331 -1.87815e-22 -1.52447e-22 0.753338 5.1632e-06 0.753332)
(0.753336 3.37456e-21 -3.79223e-23 0.753327 3.97146e-06 0.753337)
(0.753333 1.58203e-21 -4.86639e-22 0.753333 8.10217e-06 0.753334)
(0.753332 5.58103e-22 -3.64907e-23 0.753336 4.88319e-06 0.753332)
(0.753335 2.67896e-21 2.34337e-23 0.753328 3.76683e-06 0.753336)
(0.753331 8.25074e-22 2.52767e-22 0.753337 7.72708e-06 0.753332)
(0.753334 -2.81906e-22 2.09559e-23 0.753331 4.45436e-06 0.753335)
(0.753335 -6.25422e-22 1.85094e-22 0.75333 7.10801e-06 0.753336)
(0.753331 -8.31364e-22 -5.26181e-23 0.753337 4.67056e-06 0.753332)
(0.753335 -2.69698e-21 -1.21269e-22 0.753329 3.54509e-06 0.753336)
(0.753331 -2.7542e-21 -6.90409e-22 0.753338 7.13443e-06 0.753332)
(0.753334 -5.69916e-22 -1.94792e-22 0.753332 4.11426e-06 0.753334)
(0.753334 -1.18688e-21 -1.19106e-21 0.75333 6.10111e-06 0.753335)
(0.753331 -1.15257e-21 -3.71757e-22 0.753338 4.06878e-06 0.753331)
(0.753336 3.05408e-21 -1.89406e-22 0.753329 3.38329e-06 0.753336)
(0.753333 3.38164e-22 -1.01441e-21 0.753334 6.09396e-06 0.753333)
(0.753332 -2.6005e-22 -2.04249e-22 0.753337 3.79375e-06 0.753332)
(0.753335 1.44432e-21 -1.61347e-22 0.75333 3.73925e-06 0.753335)
(0.753331 1.49746e-21 -5.62534e-22 0.753338 6.56572e-06 0.753331)
(0.753334 -4.86967e-22 -3.9022e-23 0.753332 4.14016e-06 0.753334)
(0.753335 2.14894e-21 1.07523e-23 0.753331 6.55988e-06 0.753334)
(0.753331 3.15964e-21 8.72565e-23 0.753337 4.21218e-06 0.753332)
(0.753335 2.11066e-21 5.84323e-23 0.753329 4.06789e-06 0.753336)