/*--------------------------------*- C++ -*----------------------------------*\
| =========                 |                                                 |
| \\      /  F ield         | OpenFOAM: The Open Source CFD Toolbox           |
|  \\    /   O peration     | Version:  4.1                                   |
|   \\  /    A nd           | Web:      www.OpenFOAM.org                      |
|    \\/     M anipulation  |                                                 |
\*---------------------------------------------------------------------------*/
FoamFile
{
    version     2.0;
    format      ascii;
    class       volScalarField;
    location    "9";
    object      p;
}
// * * * * * * * * * * * * * * * * * * * * * * * * * * * * * * * * * * * * * //

dimensions      [0 2 -2 0 0 0 0];

internalField   nonuniform List<scalar> 
6785
(
7279.91
7215.32
7163.87
7114.04
7067.8
7024.38
6983.63
6945.29
6909.14
6874.64
6841.55
6811.23
6783.08
6749.2
6716.97
6738.78
6720.57
6722.97
6718.1
6714.25
6710.34
6706.86
6704.06
6702.13
6701.14
6701.03
6702.5
6706.29
6708.75
6707.94
6676.4
6669.83
6679.23
6678.24
6681.18
6683.2
6685.34
6687.32
6689.14
6690.75
6692.08
6693.14
6693.81
6694.49
6695.75
6720.3
6717.49
6722.25
6718.32
6718.55
6716.75
6715.28
6713.57
6711.86
6710.13
6708.45
6707.05
6706.53
6707.21
6709.1
6726.03
6723.92
6727.21
6723.93
6725.53
6724.84
6724.97
6725.12
6725.43
6725.93
6726.61
6727.49
6728.68
6729.78
6731.13
6730.41
6729.47
6732.53
6730.73
6733.04
6733.25
6734.29
6735.28
6736.29
6737.33
6738.38
6739.37
6740.37
6741.06
6741.73
6740.35
6740.36
6742.96
6741.59
6743.52
6743.5
6744.25
6744.82
6745.38
6745.92
6746.47
6746.97
6747.5
6747.91
6748.46
6749.56
6750.11
6752.11
6750.97
6752.6
6752.41
6753.07
6753.41
6753.77
6754.1
6754.46
6754.84
6755.27
6755.66
6756.2
6757.13
6757.85
6759.33
6758.47
6759.91
6759.67
6760.34
6760.51
6760.76
6760.88
6761.03
6761.24
6761.51
6761.85
6762.2
6762.39
6762.65
6763.66
6762.69
6763.65
6763.07
6763.4
6763.18
6763.12
6762.81
6762.53
6762.32
6762.26
6762.31
6762.12
6759.83
6759.41
6759.92
6758.69
6759.09
6758.11
6758.21
6757.61
6757.11
6756.3
6755.61
6755.06
6754.59
6753.93
6752.93
6749.98
6748.35
6747.35
6745.43
6745.06
6743.55
6743.09
6742.19
6741.49
6740.62
6740.02
6739.52
6738.62
6737.21
6735.99
6719.65
6716.25
6715.31
6714.25
6714.24
6713.6
6714.05
6714.54
6715.24
6715.7
6715.95
6716.03
6716.03
6716.19
6717.19
6671.77
6676.56
6690.61
6703.37
6716.98
6729.52
6741.27
6750.57
6756.62
6759.17
6758.78
6755.46
6752.1
6750.51
6751.75
6640.42
6651.79
6651.31
6651.72
6654.06
6656.93
6659.45
6659.7
6658.31
6654.28
6647.84
6646.25
6653.25
6663.84
6662.1
6434.92
6428.31
6442.55
6443.36
6452.46
6400.99
6409
6414.26
6429.38
6356.5
6377.51
6414.89
6351.96
6334.41
6355.32
6400.23
6323.03
6341.24
6424.38
6374.12
6348.03
6387.69
6471.89
6442.03
6427.95
6474.77
6553.32
6527.62
6574.47
6674.37
6688.26
6722.82
6772.78
6845.56
6869.32
6938.89
7004.66
7036.48
7089.49
7115.76
7157.84
7179.64
7222.46
7235.5
7258.32
7260.16
7301.04
7295.87
7292.52
7333.22
7320.66
7329.21
7351.1
7360.67
7322.17
7334.19
7387.67
7377.19
7282.03
7356.12
7347.19
7238.88
7238.21
7389.39
7335.32
7133.21
7273.62
7251.53
7072.06
7045.91
7312.99
7200.7
6964.98
6940.25
7253.15
7161.81
6837.42
7029
7088.91
6748.12
6964.67
7224.16
7216.16
7183.48
7122.52
7093.38
7085.56
7083.53
7076.19
7064.33
7065.25
7060.07
7271.81
7056.88
6987.36
6971.44
6979.18
6985.8
6971.26
6957.77
6910.97
7000.89
6907.92
6845.4
6824.52
6810.29
6783.62
6752.67
6722.35
6709.42
6677.94
6734.54
6670.98
6589.98
6568.95
6560.49
6539.94
6506.93
6474.57
6432.26
6435.48
6454.68
6364.12
6321.48
6296.81
6270.24
6236.63
6216.67
6169.59
6068.14
6118.32
5998.78
5946.92
5916.42
5858.58
5796.99
5753.41
5687.93
5516.26
5563.68
5379.99
5290.56
5236.48
5164.6
5063.46
4937.82
4855.36
4742.07
4335.22
4487.08
4177.28
3991.93
3876.38
3725.17
3543.65
3326.6
3033.89
2162.85
2542.55
2040.14
1236.56
2353.72
3026.82
2285.68
2228.07
2210.58
2272.98
2520
2229.91
2103.73
2339.16
2130.91
2056.38
2054.1
2009.88
2199.39
2031.94
1943.47
1981.33
1922.04
2174.62
2049.88
1837.99
2216.24
2063.92
1887.01
1990.65
1882.11
2311.9
2063.77
1821.84
1950.17
1812.47
2324.96
2049.92
1573.48
2281.66
1957.73
1576.74
1727.91
1539.02
2234.97
1759.71
1341.86
1506.68
1309.08
2056.34
1604.07
919.634
1910.5
1429.75
922.868
1122.8
886.624
1847.67
1175.23
637.333
870.307
628.662
1677.12
1030.13
108.07
1516.3
824.339
148.665
419.685
140.729
1479.47
516.272
-198.138
98.0377
-183.021
1226.29
325.051
-887.675
948.416
15.2952
-839.274
-589.375
-767.29
4.21849
1.83921
1.01335
-3.34084
-6.47799
-8.56368
-9.03577
-8.08428
-5.7833
-2.8901
0.325071
3.79984
7.34485
10.6661
13.8525
17.1297
20.6187
24.0609
27.1442
29.5095
30.9509
31.5649
31.53
31.0586
30.3282
29.1475
27.1036
23.3427
18.4529
15.3384
7.67892
9.39145
9.29206
11.4335
9.62172
14.2338
12.2974
-8.51434
8.07188
7.45175
14.8389
-2.40295
5.4157
7.30566
-14.1627
-30.6762
-46.345
-72.7225
-177.68
-279.792
-368.917
-412.85
-398.464
-422.551
-436.033
-338.295
-162.234
-12.1726
87.0891
77.6848
94.7644
59.7254
48.5998
45.4614
40.8209
33.6068
15.1917
-17.1594
-23.1238
-73.3096
-24.0208
-19.26
11.1895
19.0112
26.2456
28.2318
30.9036
22.4039
22.8609
12.4993
6.90241
4.80124
-3.9767
-10.4994
-15.1236
-16.5519
-15.1069
-10.8859
-5.05618
2.00145
9.87002
17.9715
25.7521
33.3002
40.6834
47.7442
54.0419
59.1293
62.5896
64.4906
65.0788
64.7597
63.9103
62.7683
61.0041
57.9287
51.4253
40.2169
32.0702
20.7742
25.7553
28.069
35.3724
31.7917
41.5614
33.2257
-2.75467
22.0754
23.8469
36.1917
6.06947
49.1038
31.1421
-32.4423
-96.6058
-141.606
-184.942
-364.805
-539.635
-700.468
-789.101
-768.713
-748.578
-688.861
-500.707
-244.384
-26.6854
138.619
106.863
158.006
129.592
115.628
109.28
97.6353
72.5986
34.3187
-68.0207
-96.7852
-241.503
-22.7932
-11.3576
45.9745
58.096
75.7667
82.9231
88.022
83.6666
74.386
19.7302
12.7808
10.5826
0.196961
-7.3452
-12.8802
-14.6736
-13.1274
-8.23229
-1.26768
7.30052
16.8301
26.624
36.0667
45.1297
53.6824
61.4322
67.9631
72.9153
76.0388
77.611
77.9342
77.4879
76.6326
75.6216
74.0803
71.3755
64.9842
50.563
39.3686
34.1104
41.6132
47.5371
60.2415
56.319
70.0791
57.0819
25.9407
35.268
44.6705
59.0833
30.773
91.6013
47.3667
-54.0616
-158.789
-232.738
-280.118
-466.275
-651.098
-829.268
-926.179
-896.996
-839.723
-729.787
-494.53
-192.231
72.8982
240.007
150.751
181.161
171.937
161.635
151.941
134.369
96.1836
48.7662
-91.0388
-149.595
-420.509
-64.23
-27.2533
76.5643
101.832
131.825
143.895
153.474
146.948
162.964
26.2645
18.1905
15.4444
3.03947
-5.83304
-12.4744
-14.6878
-13.0093
-7.331
0.843665
10.9048
22.041
33.4762
44.5017
54.9659
64.6232
73.1578
80.1741
85.3773
88.6305
90.2866
90.6637
90.2957
89.535
88.7214
87.4909
85.4694
80.0531
62.994
47.3592
47.3018
57.4598
65.7393
84.1578
82.7787
98.2615
81.3874
50.227
48.4287
66.025
80.3769
58.0573
136.442
62.8804
-74.7604
-220.492
-320.424
-371.764
-575.893
-783.559
-984.025
-1083.36
-1041.63
-958.113
-824.011
-543.019
-169.56
169.75
351.364
213.166
226.476
224.433
214.069
200.579
176.072
124.72
64.5148
-109.433
-190.683
-577.232
-96.0387
-30.3517
109.219
145.394
185.9
203.046
216.205
210.797
217.322
31.674
22.9119
19.2714
4.34534
-6.45773
-14.6876
-17.5408
-15.7205
-9.05698
0.653101
12.6526
25.9404
39.6065
52.7994
65.2652
76.6629
86.6356
94.7655
100.763
104.544
106.529
107.061
106.76
106.003
105.229
104.056
102.325
97.4918
78.5026
57.3679
60.3158
72.6628
83.6103
108.273
109.587
126.436
106.874
76.3214
69.4631
89.1188
101.803
85.244
181.38
75.3049
-96.7548
-280.895
-405.184
-465.109
-706.9
-959.803
-1197.04
-1303.63
-1250.13
-1134.33
-965.846
-629.63
-177.307
245.04
452.714
269.845
273.674
280.717
268.898
251.577
220.184
155.89
82.7606
-127.041
-230.442
-713.745
-135.282
-31.9767
142.213
190.982
241.51
263.781
280.455
277.221
307.199
36.0202
27.3396
22.8218
5.63499
-6.96201
-16.6432
-19.9923
-17.8956
-10.1384
1.19881
15.2226
30.7259
46.6549
62.0198
76.4799
89.5915
100.94
110.09
116.753
120.905
123.068
123.617
123.267
122.419
121.596
120.373
118.746
114.323
94.5542
67.6562
72.855
87.6985
101.747
132.163
134.954
153.941
133.313
103.97
96.1698
113.264
123.093
111.372
217.906
83.7108
-120.013
-339.805
-488.4
-562.197
-850.418
-1155.06
-1430.03
-1539.15
-1470.45
-1312.66
-1097.2
-704.596
-180.438
322.181
554.572
329.741
319.646
337.143
323.409
302.147
264.058
187.772
103.772
-137.5
-264.817
-824.61
-173.727
-26.9457
176.814
238.052
297.483
324.898
344.435
337.9
364.045
39.1257
31.4522
25.9322
6.68674
-7.49235
-18.3768
-22.0242
-19.5154
-10.5894
2.40126
18.4224
36.063
54.138
71.5313
87.8233
102.472
115.017
125.016
132.193
136.598
138.853
139.366
138.937
137.988
137.117
135.872
134.406
130.506
111.27
78.6972
84.7442
102.666
120.048
155.192
158.306
180.845
160.701
131.839
120.147
138.445
143.979
133.821
241.175
87.2397
-144.332
-397.143
-571.115
-665.757
-1006.57
-1366.94
-1678.78
-1780.71
-1689.83
-1483.38
-1217.87
-771.785
-182.333
398.056
653.728
394.793
370.037
395.511
378.917
353.51
308.693
221.335
127.322
-139.527
-290.673
-911.59
-212.338
-16.4533
213.11
287.125
354.546
387.071
409.374
413.291
427.737
40.995
35.1524
28.2782
6.93635
-8.75144
-20.7016
-24.5396
-21.54
-11.3802
3.31751
21.3673
41.1576
61.3802
80.792
98.8993
115.071
128.813
139.678
147.404
152.104
154.493
155.003
154.517
153.485
152.574
151.318
150.031
146.622
129.089
91.9564
95.8998
117.456
138.612
177.323
181.151
206.681
188.71
160.003
145.59
165.17
164.043
150.291
252.485
85.9052
-168.734
-452.794
-653.882
-778.441
-1179.02
-1603.69
-1956.39
-2042.46
-1920.58
-1660.72
-1342.29
-842.332
-190.878
464.575
744.905
462.573
426.031
456.131
435.72
406.011
354.518
257.126
153.562
-133.71
-307.58
-975.685
-248.153
0.426004
251.615
338.246
412.616
450.072
474.657
480.956
519.163
41.6328
38.3654
29.7676
6.26354
-10.8414
-23.7108
-27.6205
-24.0327
-12.5453
3.94979
24.1036
46.1051
68.526
89.9952
109.946
127.669
142.639
154.406
162.723
167.75
170.29
170.805
170.249
169.124
168.148
166.859
165.699
162.641
147.643
108.148
106.048
131.958
157.56
198.719
204.128
231.715
217.157
189.796
177.28
192.961
184.036
162.499
255.293
82.4061
-192.716
-506.67
-736.93
-902.685
-1369.82
-1870.38
-2270.84
-2332.45
-2167.67
-1851.18
-1473.85
-916.09
-204.771
519.537
825.746
532.11
487.472
518.579
493.597
459.512
401.485
295.224
182.748
-120.085
-315.517
-1018.37
-279.885
23.6016
292.634
391.599
471.915
514.148
540.322
545.186
580.384
41.095
41.0732
30.3683
4.67112
-13.7217
-27.3219
-31.1358
-26.8115
-13.8643
4.53969
26.8808
51.1509
75.8068
99.3499
121.142
140.407
156.595
169.248
178.144
183.482
186.147
186.641
185.982
184.742
183.666
182.324
181.243
178.448
166.475
127.181
115.337
146.224
176.829
219.628
227.464
256.977
246.101
220.711
209.31
221.241
205.33
174.398
255.527
78.6947
-216.45
-558.545
-820.365
-1039.83
-1577.88
-2168.39
-2626.02
-2653.56
-2430.18
-2058.24
-1612.75
-991.78
-222.637
561.616
894.453
601.981
553.71
582.541
552.476
514.039
449.649
335.695
214.914
-98.7591
-314.402
-1040.39
-306.072
53.185
336.511
447.273
532.522
579.287
606.657
620.56
645.161
39.4804
43.2124
30.0046
2.07407
-17.5011
-31.638
-35.1598
-29.9124
-15.3473
5.08606
29.6963
56.2864
83.2048
108.827
132.448
153.234
170.616
184.13
193.587
199.216
201.982
202.436
201.651
200.288
199.086
197.676
196.638
194.05
185.197
148.698
125.275
160.448
196.247
240.293
251.527
283.872
275.502
251.509
238.511
249.983
227.882
187.56
255.957
73.5298
-239.84
-608.103
-904.249
-1189.38
-1799.87
-2497.2
-3025.18
-3009.83
-2709.86
-2286.09
-1761.19
-1071.2
-245.798
590.002
950.227
670.3
623.176
647.576
612.245
569.608
499.074
378.594
250.004
-70.1402
-304.163
-1042.69
-325.465
89.0655
383.523
505.35
594.545
645.472
673.524
691.551
729.179
36.9544
44.6971
28.5985
-1.65563
-22.3467
-36.8251
-39.8351
-33.4432
-17.0788
5.51592
32.4829
61.4494
90.6644
118.379
143.822
166.116
184.678
199.037
209.043
214.954
217.801
218.201
217.283
215.797
214.455
212.953
211.915
209.459
203.385
171.805
138.203
174.229
215.571
260.84
276.291
312.851
305.067
282.577
270.287
278.709
250.705
201.545
256.306
66.265
-262.247
-655.049
-988.791
-1349.77
-2032.66
-2856.46
-3470.45
-3406.01
-3011.84
-2531.06
-1920.14
-1157.14
-276.12
605.358
993.458
735.445
693.924
713.097
672.695
626.148
549.746
423.894
287.956
-34.7593
-284.803
-1026.22
-336.906
131.097
433.912
565.879
658.047
712.697
740.915
762.719
789.021
33.7418
45.4421
26.1295
-6.64908
-28.394
-43.0064
-45.2639
-37.4722
-19.1009
5.80765
35.2334
66.6436
98.1978
128.023
155.289
179.081
198.811
213.998
224.536
230.713
233.616
233.945
232.887
231.27
229.786
228.174
227.082
224.661
220.718
195.132
156.834
187.526
234.508
281.317
301.666
342.522
334.549
313.43
303.727
307.031
273.785
216.712
256.176
57.6105
-282.865
-699.361
-1074.39
-1519.6
-2276.48
-3247.91
-3962.51
-3845.17
-3341.46
-2787.76
-2088.31
-1251.1
-315.015
609.123
1025.25
796.312
764.164
778.519
733.564
683.538
601.599
471.482
328.669
6.78737
-256.456
-991.996
-339.467
179.053
487.863
628.882
723.075
780.921
808.755
834.496
869.255
30.109
45.1951
22.5925
-13.0077
-35.74
-50.2803
-51.5299
-42.0581
-21.4468
5.95481
37.9596
71.8914
105.834
137.791
166.88
192.157
213.037
229.027
240.073
246.489
249.412
249.65
248.442
246.681
245.063
243.343
242.139
239.652
237.131
217.747
181.616
201.677
252.847
301.699
327.341
370.95
364.01
343.484
336.791
335.268
297.191
233.117
256.075
48.5175
-301.064
-741.428
-1161.37
-1697.83
-2535.67
-3675.4
-4501.73
-4327.71
-3702.49
-3057.89
-2265.09
-1352.48
-363.044
603.052
1047.12
852.4
832.446
843.345
794.558
741.595
654.511
521.164
371.972
53.8313
-219.452
-941.154
-332.468
232.668
545.509
694.355
789.65
850.133
876.901
900.451
930.825
26.2129
43.7328
17.8756
-20.8338
-44.5012
-58.7434
-58.7243
-47.2764
-24.1673
5.93585
40.6602
77.2026
113.586
147.7
178.609
205.355
227.362
244.126
255.645
262.265
265.173
265.295
263.929
262.013
260.273
258.457
257.089
254.445
252.733
239.239
209.678
218.89
270.666
321.927
352.809
397.688
393.673
373.185
369.984
363.854
321.934
251.042
256.291
39.9413
-316.706
-781.658
-1249.68
-1883
-2817.1
-4143.96
-5088.97
-4852.05
-4096.83
-3344.55
-2451.1
-1458.85
-419.252
589.219
1060.84
903.657
897.661
907.179
855.391
800.067
708.286
572.665
417.636
105.645
-174.324
-874.993
-315.533
291.637
606.924
762.266
857.771
920.252
945.629
976.936
993.268
22.1016
40.8978
11.7792
-30.2711
-54.8245
-68.4999
-66.9416
-53.2107
-27.3214
5.72128
43.327
82.5814
121.465
157.762
190.489
218.684
241.787
259.288
271.241
278.022
280.884
280.865
279.329
277.249
275.403
273.504
271.946
269.051
267.679
259.355
237.502
240.136
288.661
341.935
377.452
423.606
423.477
402.629
402.813
393.055
348.646
271.213
257.18
32.8678
-330.223
-819.978
-1338.88
-2073.28
-3127.22
-4656.6
-5725.25
-5416.97
-4524.65
-3650.22
-2646.43
-1566.31
-480.801
570.142
1068.35
950.29
959.061
969.738
915.859
858.697
762.68
625.65
465.41
161.474
-121.77
-795.046
-288.613
355.637
672.12
832.552
927.408
991.133
1014.68
1047
1076.71
17.85
36.2502
4.10204
-41.4658
-66.8545
-79.6644
-76.2693
-59.9401
-30.9644
5.28133
45.9531
88.0359
129.486
167.995
202.533
232.154
256.312
274.507
286.847
293.743
296.526
296.339
294.617
292.366
290.421
288.446
286.712
283.485
282.132
277.691
263.145
263.902
307.71
361.754
400.755
449.201
453.157
431.832
435.077
422.891
376.194
292.633
259.907
28.1097
-341.74
-856.153
-1428.27
-2267.33
-3469.38
-5208.45
-6409.99
-6022.09
-4985.31
-3979.48
-2848.54
-1671.25
-543.533
548.778
1071.79
992.764
1016.38
1030.89
975.879
917.304
817.497
679.762
515.076
220.569
-62.6153
-703.037
-251.996
424.324
741.056
905.124
998.511
1062.74
1083.89
1113.75
1141.78
13.4223
29.2798
-5.4123
-54.5433
-80.7342
-92.3422
-86.7899
-67.5351
-35.1486
4.58575
48.5317
93.5758
137.667
178.417
214.756
245.773
270.936
289.772
302.442
309.404
312.074
311.681
309.758
307.329
305.279
303.227
301.355
297.768
296.243
293.989
286.125
287.961
327.777
381.437
422.591
474.337
482.475
460.836
466.723
453.48
405.01
315.802
264.86
25.9519
-351.05
-889.983
-1517.11
-2464.91
-3843.39
-5788.57
-7140.76
-6665.87
-5477.33
-4336.67
-3053.9
-1773.9
-603.583
527.732
1073.19
1031.85
1069.92
1090.67
1035.49
975.781
872.614
734.689
566.444
282.23
2.22103
-600.775
-206.262
497.346
813.635
979.867
1071.01
1134.97
1153.47
1188.26
1207.96
8.61652
19.7887
-17.0898
-69.6102
-96.6141
-106.655
-98.595
-76.0571
-39.9244
3.60439
51.0562
99.213
146.028
189.045
227.167
259.541
285.65
305.066
318.004
324.982
327.501
326.855
324.706
322.091
319.931
317.792
315.805
311.898
310.118
308.6
306.592
310.744
347.837
400.994
443.195
498.693
511.172
489.594
497.753
484.823
435.795
341.772
271.974
26.8483
-357.976
-921.136
-1604.79
-2666.23
-4246.23
-6391.21
-7918.05
-7346.6
-5998.02
-4723.86
-3264.63
-1877.95
-658.315
508.67
1073.88
1068.61
1120.59
1149.33
1094.84
1034.08
927.917
790.211
619.298
345.842
71.7819
-490.049
-152.204
574.341
889.711
1056.64
1144.81
1207.69
1223.29
1259.13
1290.54
3.30533
7.75116
-31.1659
-86.7918
-114.648
-122.756
-111.772
-85.5615
-45.3398
2.31027
53.5221
104.963
154.591
199.892
239.768
273.451
300.442
320.376
333.516
340.456
342.779
341.841
339.422
336.606
334.334
332.096
329.987
325.822
323.83
322.272
324.683
331.73
367.011
420.332
463.064
522.035
539.028
518.026
528.347
517.157
468.682
370.359
281.692
30.8748
-362.312
-949.192
-1690.55
-2870.75
-4671.8
-7018.46
-8746.2
-8064.06
-6544.71
-5142.3
-3487.59
-1984.68
-704.799
493.499
1074
1104.12
1169.57
1207.28
1154.12
1092.18
983.304
846.144
673.385
410.855
145.146
-372.531
-90.7169
654.951
969.083
1135.29
1219.82
1280.85
1293.35
1329.75
1356.97
-2.5575
-6.85811
-47.7618
-106.286
-134.982
-140.79
-126.39
-96.1067
-51.4346
0.682878
55.9281
110.848
163.376
210.965
252.558
287.493
315.298
335.687
348.969
355.818
357.896
356.629
353.885
350.845
348.454
346.107
343.849
339.467
337.425
335.648
340.559
350.894
384.897
438.805
482.309
544.377
566.071
545.923
558.654
550.783
503.97
401.597
294.758
38.0715
-363.913
-973.7
-1773.49
-3076.45
-5111.1
-7675.46
-9628.12
-8817.08
-7115.36
-5591.43
-3727.87
-2092.91
-740.79
484.872
1074.73
1139.46
1217.9
1264.92
1213.55
1150.13
1038.74
902.23
728.432
476.755
221.449
-249.706
-22.6807
738.833
1051.5
1215.64
1295.93
1354.43
1363.71
1401.09
1436.89
-9.02807
-24.0607
-67.1309
-128.293
-157.733
-160.866
-142.528
-107.758
-58.2397
-1.28925
58.2809
116.885
172.403
222.263
265.524
301.65
330.206
350.99
364.363
371.069
372.854
371.223
368.101
364.798
362.264
359.792
357.366
352.802
350.941
349.035
354.775
368.303
401.408
455.944
500.545
565.549
592.354
572.576
588.723
585.723
541.438
435.298
311.46
48.4568
-362.66
-994.29
-1852.44
-3279.73
-5554.03
-8368
-10564.4
-9603.17
-7706.47
-6066.23
-3988.82
-2206.14
-768.986
485.297
1079.08
1175.74
1266.82
1322.58
1273.21
1208.01
1094.14
958.132
784.123
543.015
299.858
-122.831
51.1041
825.665
1136.67
1297.48
1373.03
1428.48
1434.39
1468.46
1503.68
-16.1704
-43.9004
-89.5802
-152.953
-182.991
-183.08
-160.292
-120.57
-65.7764
-3.60756
60.5953
123.089
181.681
233.781
278.657
315.908
345.159
366.281
379.703
386.216
387.667
385.638
382.097
378.48
375.753
373.104
370.485
365.788
364.379
362.557
368.168
384.136
416.556
471.847
517.706
584.914
617.603
596.608
618.458
622.058
581.02
471.705
331.985
62.0952
-358.261
-1010.49
-1925.87
-3475.87
-5990.56
-9101.57
-11551.2
-10419.2
-8312.59
-6557.53
-4273.63
-2330.21
-796.474
494.429
1088.25
1214.56
1317.65
1380.32
1332.97
1265.76
1149.29
1013.51
840.072
609.082
379.559
7.06699
129.925
915.149
1224.26
1380.6
1451.01
1503.08
1505.82
1543.71
1566.47
-24.0505
-66.4766
-115.259
-180.459
-210.882
-207.546
-179.789
-134.582
-74.0615
-6.26542
62.8843
129.468
191.198
245.502
291.947
330.266
360.158
381.565
394.996
401.27
402.354
399.889
395.906
391.925
388.932
386
383.091
378.295
377.633
376.317
381.486
398.704
430.379
486.323
533.448
601.966
640.743
616.664
647.737
660.023
622.922
511.25
356.389
79.0944
-350.324
-1021.58
-1991.88
-3659.47
-6411.81
-9876.78
-12572.6
-11258.9
-8926.99
-7054.99
-4581.98
-2466.42
-829.939
507.632
1099.08
1257.32
1371.16
1438.11
1392.47
1322.95
1203.83
1068.03
895.838
674.391
459.769
139.165
213.129
1007.01
1313.92
1464.78
1529.79
1578.3
1578.04
1614.86
1642.41
-32.7456
-91.8974
-144.401
-211.125
-241.591
-234.379
-201.104
-149.831
-83.1101
-9.2527
65.1551
136.008
200.916
257.41
305.391
344.736
375.217
396.856
410.257
416.25
416.929
413.991
409.55
405.171
401.838
398.494
395.099
390.128
390.394
390.217
395.158
412.279
443.196
499.3
547.473
616.314
660.016
633.066
676.554
700.001
667.386
553.924
384.778
99.4912
-338.674
-1027.04
-2048.51
-3825.44
-6811.52
-10684.5
-13584.3
-12112.1
-9543.72
-7547.7
-4907.56
-2615.83
-867.764
520.003
1106.01
1303.21
1427.45
1496.14
1451.32
1379.12
1257.45
1121.39
950.976
738.439
539.779
272.732
300.091
1100.96
1405.27
1549.79
1609.26
1654.31
1651.14
1684.36
1706.44
-42.3363
-120.267
-177.435
-245.232
-275.278
-263.666
-224.308
-166.372
-92.9281
-12.5555
67.4139
142.683
210.799
269.49
318.997
359.345
390.371
412.184
425.512
431.179
431.407
427.957
423.034
418.241
414.514
410.646
406.549
401.201
402.237
403.67
409.088
425.063
455.489
510.919
559.924
627.805
675.06
648.085
704.395
742.421
714.565
599.528
417.225
123.242
-323.442
-1026.56
-2094.12
-3970.28
-7185.31
-11500.7
-14507
-12966.8
-10159.4
-8024.43
-5237.33
-2779.92
-893.365
529.352
1104.78
1349.71
1486.07
1554.55
1509.36
1433.87
1309.77
1173.33
1005.09
800.845
619.018
407.006
390.182
1196.72
1497.92
1635.37
1689.33
1731.21
1725.42
1760.05
1762.56
-52.8965
-151.755
-214.556
-282.971
-312.069
-295.486
-249.491
-184.263
-103.502
-16.1519
69.6558
149.462
220.816
281.736
332.78
374.124
405.669
427.604
440.792
446.086
445.808
441.795
436.353
431.13
426.981
422.523
417.587
411.664
413.053
416.014
422.59
437.192
467.494
521.232
570.83
636.764
686.807
663.027
730.59
787.538
764.524
648.208
453.881
150.237
-304.847
-1020
-2127.68
-4092.66
-7528.71
-12280.5
-15283.7
-13812.8
-10770
-8473.5
-5553.37
-2951.02
-889.181
536.256
1095.67
1394.46
1546.12
1612.99
1566.59
1486.94
1360.44
1223.63
1057.82
861.381
697.097
541.162
482.768
1293.97
1591.46
1721.28
1769.9
1809.04
1800.93
1833.74
1824.28
-64.5012
-186.515
-255.903
-324.668
-352.151
-329.963
-276.731
-203.551
-114.81
-20.0255
71.8595
156.301
230.938
294.157
346.787
389.127
421.165
443.171
456.148
461.004
460.156
455.518
449.498
443.815
439.226
434.153
428.349
421.791
423.187
427.25
435.071
448.597
479.062
530.501
580.327
643.509
696.422
678.531
755.478
835.278
817.573
700.387
494.796
180.255
-283.141
-1007.48
-2149
-4192.99
-7834.62
-12971.3
-15907.3
-14632
-11367.7
-8883.28
-5840.4
-3113.85
-859.401
548.025
1085
1436.58
1606.66
1671.03
1622.92
1538.26
1409.26
1272.1
1108.9
919.958
773.815
674.352
577.269
1392.38
1685.47
1807.26
1850.85
1887.83
1877.7
1907.82
1875.79
-77.217
-224.648
-301.961
-370.761
-395.757
-367.239
-306.08
-224.271
-126.84
-24.1782
73.9886
163.144
241.166
306.814
361.097
404.429
436.917
458.941
471.634
475.973
474.481
469.145
462.468
456.26
451.198
445.497
438.849
431.729
433.031
437.84
446.572
459.252
489.927
539.148
588.632
648.86
704.726
695.235
780.151
885.407
874.562
756.291
539.964
213.301
-258.569
-989.434
-2158.87
-4272.72
-8094.85
-13533.2
-16394.7
-15393.2
-11937
-9245.73
-6088.09
-3253.7
-823.034
578.96
1085.28
1477.92
1666.73
1728.41
1678.04
1587.79
1456.16
1318.61
1158.1
976.571
849.093
805.681
673.264
1491.54
1779.53
1893.05
1932.05
1967.5
1955.7
1983.11
1922.75
-91.0885
-266.33
-352.976
-421.495
-443.048
-407.353
-337.584
-246.464
-139.592
-28.6238
75.9865
169.962
251.566
319.818
375.816
420.121
452.999
474.971
487.306
491.038
488.819
482.701
475.27
468.441
462.835
456.472
448.993
441.434
442.698
448.084
457.348
469.332
500
547.359
595.914
653.533
712.135
713.336
805.249
937.467
936.099
815.824
589.574
249.484
-231.496
-966.609
-2159.08
-4334.26
-8303.74
-13943.4
-16777.4
-16075.3
-12460.5
-9554.66
-6288.61
-3360.55
-792.426
643.617
1114.77
1522.98
1725.72
1784.95
1731.61
1635.56
1501.07
1363.05
1205.23
1031.28
922.943
934.066
770.531
1591.07
1873.22
1978.36
2013.32
2047.93
2034.81
2056.46
1971.75
-106.148
-311.725
-408.946
-477.12
-494.203
-450.262
-371.277
-270.158
-153.078
-33.3936
77.8
176.795
262.273
333.302
391.059
436.311
469.504
491.325
503.218
506.251
503.206
496.214
487.924
480.357
474.092
466.993
458.679
450.792
452.107
457.976
467.473
478.985
509.342
555.113
602.507
658.011
719.004
732.438
828.451
990.664
1001.15
879.001
643.729
288.607
-202.323
-940.11
-2152.4
-4381.35
-8460.47
-14197
-17075.9
-16664
-12928.3
-9804.29
-6436.57
-3428.54
-763.449
752.271
1192.57
1577.51
1783.99
1840.41
1783.31
1681.46
1543.95
1405.35
1250.22
1084.18
995.451
1058.08
869.075
1690.55
1966.12
2062.91
2094.49
2128.96
2115.11
2135.61
2005.75
-122.414
-360.902
-470.263
-538.185
-549.525
-496.078
-407.192
-295.343
-167.313
-38.5376
79.4191
183.768
273.451
347.406
406.956
453.113
486.537
508.09
519.433
521.662
517.686
509.714
500.454
492.023
484.955
477.008
467.839
459.727
461.179
467.423
476.89
488.231
517.983
562.359
608.67
662.557
725.553
750.678
848.556
1043.54
1067.06
946.018
702.549
330.695
-171.749
-911.425
-2142.41
-4419.38
-8568.64
-14306.2
-17297.2
-17134
-13329.9
-9988.58
-6529.44
-3455.36
-719.453
908.477
1329.68
1647.23
1843.02
1894.63
1832.93
1725.23
1584.74
1445.42
1293.05
1135.55
1066.83
1176.01
969.165
1789.57
2057.82
2146.41
2175.32
2210.37
2196.57
2213.19
2043.17
-139.874
-413.93
-537.348
-605.109
-609.235
-545.004
-445.386
-322.028
-182.325
-44.0912
80.9174
191.066
285.264
362.275
423.638
470.647
504.201
525.36
536.014
537.327
532.303
523.233
512.884
503.453
495.44
486.512
476.447
468.2
469.862
476.37
485.543
497.014
525.949
569.062
614.481
667.277
732.1
767.349
866.943
1092.05
1130.12
1016.48
766.523
375.994
-141.096
-882.044
-2133.05
-4455.57
-8635.01
-14295.4
-17442.2
-17462.3
-13650.3
-10103.1
-6570.03
-3442.39
-643.393
1107.37
1522.82
1737.29
1904.91
1947.5
1880.31
1766.59
1623.39
1483.24
1333.82
1185.84
1137.49
1286.23
1071.41
1887.77
2147.87
2228.53
2255.56
2291.93
2279.11
2291.21
2084.57
-158.489
-470.891
-610.059
-678.038
-673.372
-597.067
-485.915
-350.243
-198.152
-50.0394
82.4486
198.876
297.866
378.051
441.234
489.028
522.599
543.224
553.019
553.294
547.092
536.796
525.229
514.663
505.568
495.539
484.532
476.202
478.089
484.761
493.403
505.262
533.34
575.263
620.017
672.236
738.932
782.257
884.271
1133.15
1187.31
1089.06
836.455
424.772
-110.091
-852.939
-2129.14
-4499.36
-8668.09
-14194.8
-17504.6
-17638
-13876.4
-10147.7
-6565.47
-3388.52
-530.986
1337.51
1757.55
1850.07
1971.34
1999.08
1925.41
1805.46
1659.9
1518.9
1372.77
1235.7
1207.93
1387.64
1176.87
1984.74
2235.85
2308.88
2334.91
2373.34
2362.77
2374.1
2114.81
-178.197
-531.721
-688.318
-757.468
-742.116
-652.256
-528.84
-380.003
-214.804
-56.299
84.2039
207.369
311.401
394.865
459.861
508.36
541.816
561.749
570.501
569.595
562.073
550.421
537.501
525.66
515.358
504.133
492.171
483.775
485.827
492.542
500.477
512.886
540.24
581.048
625.426
677.458
746.203
795.767
900.982
1166.13
1236.22
1160.23
912.773
477.33
-78.4169
-826.048
-2138.12
-4562.49
-8677.72
-14034.1
-17484
-17668.7
-14000.2
-10131.5
-6525.19
-3290.71
-388.597
1586.59
2014.61
1982.61
2042.93
2049.71
1968.37
1841.92
1694.33
1552.57
1410.15
1285.66
1278.64
1479.72
1287.06
2080.11
2321.28
2387.1
2413.06
2454.27
2447.64
2457.77
2151.36
-198.9
-596.211
-772.605
-844.212
-815.828
-710.675
-574.178
-411.269
-232.246
-62.7329
86.3741
216.694
326
412.833
479.622
528.725
561.918
580.986
588.507
586.255
577.261
564.116
549.702
536.447
524.824
512.338
499.452
490.999
493.118
499.719
506.849
519.827
546.644
586.519
630.835
682.916
753.884
808.38
916.415
1191.71
1277.5
1224.63
994.017
532.164
-48.9753
-804.76
-2168.09
-4657.87
-8675.54
-13834.8
-17381.9
-17573.2
-14028.6
-10074.2
-6454.52
-3147.4
-219.148
1845.02
2274.08
2127.29
2119.43
2099.82
2009.49
1876.03
1726.82
1584.44
1446.17
1336.18
1350.14
1562.08
1403.73
2173.52
2403.65
2462.81
2489.72
2534.43
2533.8
2544.09
2193.01
-220.451
-664.174
-862.894
-938.321
-894.706
-772.362
-621.873
-443.995
-250.407
-69.1755
89.1334
226.991
341.784
432.067
500.612
550.2
582.956
600.972
607.072
603.297
592.672
577.891
561.835
547.022
533.978
520.194
506.453
497.952
500.039
506.371
512.691
526.181
552.554
591.837
636.305
688.548
761.796
820.546
930.893
1211.13
1317.19
1277.52
1074.67
586.055
-23.5623
-791.582
-2224.72
-4796.6
-8673.88
-13609.9
-17197.6
-17359.4
-13991.3
-9983.96
-6341.39
-2964.37
-23.1827
2104.56
2521
2275.02
2200.06
2149.7
2049.14
1908.02
1757.52
1614.6
1481.15
1387.59
1422.89
1633.31
1527.89
2264.64
2482.45
2535.65
2564.62
2613.55
2621.46
2634.05
2233.86
-242.667
-735.339
-958.377
-1039.68
-978.936
-837.301
-671.867
-478.155
-269.182
-75.4455
92.6415
238.394
358.873
452.669
522.917
572.852
604.98
621.75
626.226
620.745
608.326
591.755
573.9
557.382
542.821
527.737
513.24
504.695
506.657
512.605
518.202
532.181
558.106
597.149
641.85
694.343
769.769
832.542
945.098
1224.39
1357.08
1318.35
1146.71
637.996
-0.0650918
-788.213
-2311.99
-4983.73
-8681.32
-13368.6
-16938.7
-17060.4
-13911
-9843.02
-6173.41
-2758.4
196.093
2356.3
2749.02
2418.66
2283.4
2199.57
2087.67
1938.21
1786.56
1643.07
1515.48
1440.19
1496.94
1689.66
1658.9
2353.15
2557.23
2605.32
2637.54
2691.48
2710.94
2726.81
2285.84
-265.34
-809.221
-1058.69
-1149.15
-1068.94
-905.545
-724.147
-513.687
-288.417
-81.363
97.0509
251.038
377.387
474.736
546.616
596.745
628.045
643.368
646.005
638.629
624.248
605.728
585.904
567.528
551.354
534.996
519.856
511.266
513.022
518.519
523.577
538.043
563.532
602.492
647.486
700.36
777.722
844.554
958.936
1230.86
1388
1356.42
1205.21
690.862
25.0951
-794.459
-2431.84
-5215.07
-8698.49
-13121.8
-16632.8
-16745.6
-13780.8
-9643.3
-5963.97
-2535.02
436.368
2593.58
2955.09
2554.28
2367.52
2249.49
2125.35
1966.93
1814.16
1669.87
1549.44
1494.13
1571.73
1725.47
1794.12
2438.64
2627.64
2671.6
2708.34
2768.14
2802.6
2825.41
2347.67
-288.232
-885.167
-1163.95
-1267.06
-1164.95
-977.078
-778.649
-550.483
-307.931
-86.7656
102.512
265.058
397.441
498.356
571.778
621.942
652.214
665.881
666.456
656.987
640.47
619.832
597.864
577.463
559.579
541.991
526.321
517.676
519.165
524.194