/*--------------------------------*- C++ -*----------------------------------*\
| =========                 |                                                 |
| \\      /  F ield         | OpenFOAM: The Open Source CFD Toolbox           |
|  \\    /   O peration     | Version:  4.1                                   |
|   \\  /    A nd           | Web:      www.OpenFOAM.org                      |
|    \\/     M anipulation  |                                                 |
\*---------------------------------------------------------------------------*/
FoamFile
{
    version     2.0;
    format      ascii;
    class       surfaceScalarField;
    location    "9";
    object      phi;
}
// * * * * * * * * * * * * * * * * * * * * * * * * * * * * * * * * * * * * * //

dimensions      [0 3 -1 0 0 0 0];

internalField   nonuniform List<scalar> 
13220
(
-912.081
2211.99
-1417.79
1805.92
-1891.55
1773.67
-2254.67
1663.03
-2535.01
1580.55
-2736
1500.9
-2860.06
1423.96
-2907.67
1347.81
-2878.49
1270.73
-2773.92
1195.34
-2603.68
1129.96
-2359.62
1055.85
-1964.06
904.34
-1267.55
603.696
32.3554
-8.2019
2220.21
-54.0631
1851.8
-195.676
1915.3
-313.379
1780.75
-436.846
1704.03
-547.434
1611.5
-644.543
1521.09
-725.7
1428.98
-793.567
1338.61
-851.951
1253.73
-881.347
1159.36
-802.121
976.636
-490.977
593.212
-7.03733
119.825
25.3236
-150.921
2371.15
-367.496
2068.39
-575.315
2123.13
-709.836
1915.29
-835.958
1830.17
-926.962
1702.52
-995.774
1589.92
-1043.83
1477.06
-1074.93
1369.73
-1088.58
1267.41
-1062.71
1133.51
-940.029
854.019
-673.048
326.348
-401.011
-152.025
-375.687
34.2166
2336.94
-43.0304
2145.66
-75.4732
2155.59
-69.4604
1909.29
-63.734
1824.47
-35.0183
1673.83
8.03643
1546.89
68.5185
1416.6
145.836
1292.44
239.866
1173.4
333.842
1039.56
366.281
821.593
253.523
439.137
17.6153
83.9248
-358.07
144.647
2192.31
122.043
2168.27
162.769
2114.88
213.64
1858.44
262.845
1775.28
316.52
1620.17
371.103
1492.32
426.402
1361.31
484.18
1234.67
543.187
1114.4
590.16
992.576
571.989
839.823
417.813
593.385
191.675
310.177
-166.397
136.996
2055.32
122.205
2183.07
150.545
2086.55
179.47
1829.52
209.945
1744.81
237.001
1593.12
262.872
1466.45
285.842
1338.35
307.908
1212.6
329.106
1093.2
344.851
976.831
333.408
851.212
256.864
669.861
136.888
429.956
-29.5063
98.1158
1957.21
118.123
2163.07
146.71
2057.97
174.948
1801.29
206.962
1712.8
234.359
1565.73
259.08
1441.73
277.979
1319.45
288.789
1201.79
293.971
1088.03
294.608
976.194
281.655
864.215
227.569
724.001
120.776
536.899
91.266
54.8833
1902.33
114.642
2103.32
158.416
2014.19
204.174
1755.53
245.676
1671.29
292.877
1518.52
331.663
1402.94
365.969
1285.14
393.569
1174.19
413.536
1068.04
419.424
970.306
399.854
883.706
331.548
792.229
203.223
665.088
294.49
1.00842
1901.32
62.3342
2041.99
108.926
1967.6
147.87
1716.58
182.972
1636.19
234.867
1466.62
301.18
1336.63
397.128
1189.19
496.505
1074.81
573.751
990.798
602.363
941.688
562.334
923.782
444.04
910.563
262.278
846.904
556.767
-44.3092
1945.62
-46.4647
2044.13
-35.6848
1956.8
-51.3455
1732.23
-56.2861
1641.12
-59.4608
1469.79
-28.7622
1305.91
82.4238
1077.99
238.891
918.323
374.052
855.604
456.372
859.36
458.652
921.422
364.235
1004.91
193.393
1017.67
750.161
-35.3408
1980.94
-162.217
2170.99
-220.106
2014.67
-315.324
1827.43
-413.619
1739.39
-526.466
1582.62
-630.564
1410
-687.725
1135.13
-671.375
901.954
-605.551
789.765
-499.889
753.672
-355.227
776.778
-184.412
834.102
-34.8619
868.118
715.297
65.9308
1914.98
-171.882
2408.78
-384.874
2227.64
-567.293
2009.82
-722.987
1895.06
-874.932
1734.55
-1025.33
1560.38
-1204.05
1313.84
-1354.35
1052.23
-1420.91
856.302
-1376.07
708.817
-1169.87
570.52
-740.719
404.877
-192.654
319.942
522.642
545.146
1369.82
529.251
2424.66
405.251
2351.63
274.238
2140.82
163.403
2005.88
50.9783
1846.96
-67.1956
1678.54
-215.726
1462.36
-354.352
1190.85
-422.639
924.573
-446.972
733.133
-442.114
565.648
-363.787
326.517
-183.304
139.412
339.339
-1268.47
2638.28
-2012.62
3168.8
-2442.18
2781.19
-2731.34
2429.97
-2836.2
2110.74
-2766.72
1777.47
-2478.28
1390.09
-1947.47
931.542
-1208.91
452.283
-379.427
95.0812
377.999
-24.2954
867.132
76.5073
953.091
240.55
577.858
514.632
917.197
-3422.33
-4787.58
-5403.32
-5657.44
-5555.18
-5223.16
-4592.12
-3948.76
-3521.18
-3063.32
-2781.36
-2456.15
-2107.77
-1649.35
8.34485e-05
-3633.81
3633.81
-3633.81
-3633.81
-3633.81
-6967.59
3333.78
-6967.59
-6967.59
-6967.59
-10023
3055.41
-10023
-10023
-12622.9
2599.88
-12622.9
-12622.9
-12622.9
-14626.4
2003.5
-14626.4
-14626.4
-15758.4
1132.01
-15758.4
-15758.4
-15758.4
-16020.5
262.095
-16020.5
-16020.5
-16020.5
-15313.9
-706.614
-15313.9
-15313.9
-13535
-1778.86
-13535
-13535
-13535
-10765.1
-2769.89
-10765.1
-10765.1
-7429.42
-3335.69
-7429.42
-7429.42
-7429.42
-3937.2
-3492.22
-3937.2
-3937.2
-3937.2
-277.773
-3659.43
-277.772
-277.772
3762.17
-4039.94
3762.17
3762.17
3762.17
8056.53
-4294.36
8056.53
8056.53
8056.53
12307.4
-4250.87
12307.4
12307.4
16327.4
-4019.99
16327.4
16327.4
16327.4
19907.6
-3580.18
19907.6
19907.6
23028.3
-3120.78
23028.3
23028.3
23028.3
25508.8
-2480.48
25508.8
25508.8
25508.8
27323.3
-1814.45
27323.3
27323.3
28586.1
-1262.8
28586.1
28586.1
28104.8
27739.1
27732.6
28185.8
-468.309
28245.6
28282.7
28285.2
28290.4
28307.9
28319
28311
28235.2
27891
242.817
27944.6
27988.7
27976.3
27912.4
27860
27821
27809.9
27772.1
27143.4
508.491
27113.5
27085.8
27026.1
26965.8
26915.9
26871.6
26818.2
26764
26695.8
26137.8
445.056
26158.8
26184.3
26179.2
26168.8
26161.3
26199.1
26259.2
26304.5
26046.9
284.587
26108.9
26209.8
26339.6
26470.6
26612.1
26761.6
26922.3
27155.2
26490.5
906.28
26764.7
27067
27355.9
27687.8
28054.3
28427.1
28809.1
29201
27863.4
1742.65
28345
28863.4
29363.6
29870.4
30394.3
31002.3
31623.8
32255.4
32908
30925.1
2615.64
31675.1
32530.2
33360.8
34201.8
35079.6
36034.8
37139.3
38277.3
35638.9
3665.67
36779.1
38075.5
38075.5
34426.7
3648.74
30477.3
3949.38
30477.3
27302.6
3174.79
27302.6
24698.3
2604.23
22172.4
2525.9
22172.4
20396.5
1775.93
18814.8
1581.73
18814.8
17844.2
970.594
17844.2
17316.3
527.857
17080.7
235.581
17080.7
17290.4
-209.643
17290.4
17778.5
-488.109
18515.1
-736.652
18515.1
19424
-908.859
20507.7
-1083.72
20507.7
21735.8
-1228.12
21735.8
23003.4
-1267.6
24371.8
-1368.39
24371.8
25781
-1409.2
25781
27136.2
-1355.15
28478.9
-1342.73
28478.9
29743.1
-1264.15
30904.1
-1161.04
30904.1
32013.4
-1109.28
32013.4
33010.6
-997.19
33870.1
-859.497
33870.1
34726.3
-856.2
34726.3
35531.7
-805.474
36226
-694.266
36226
37009.9
-783.875
37691.6
-681.746
37691.6
38517.5
-825.858
38517.5
39410.9
-893.425
40241.8
-830.854
40241.8
41240.8
-999.067
41240.8
42303.5
-1062.71
43266.9
-963.409
43266.9
44384.4
-1117.44
45331
-946.655
45331
46400.5
-1069.49
46400.5
47491.5
-1091
48369
-877.46
48369
49380.4
-1011.37
49380.4
50423.3
-1042.96
51232.4
-809.116
51232.4
52262.9
-1030.48
53039.2
-776.31
53039.2
54029.5
-990.265
54029.5
-1119.48
-1339.65
-3326.81
-1340.21
2747.88
-1356.01
4750.27
-1356.45
7505.09
-1357.04
9762.04
-1359.59
11770.1
-1365.49
13433.9
-1373.32
14858.8
-1382.95
16058.2
-1388.14
17146.1
-1379.65
18144.5
-1353.62
19003.9
-1310.42
19708.1
-1249.83
20295.6
-1170.61
20762.5
-1075.47
20991.3
-972.426
20868.5
-869.033
20355
-772.396
19447.3
-688.204
18233.5
-615.324
16891.2
-551.126
15499.6
-490.798
14153.9
-428.145
12880.4
-359.067
11590.5
-279.112
10268.3
-189.644
8811.25
-111.143
7376.84
-47.9801
6195.41
32.1437
703.866
38.2037
-5953.69
38.5398
-6733.44
-94.9893
-8436.13
-167.506
-10074.2
49.3174
-11261.5
-5.80599
-14312.3
-416.132
-12287.6
-249.624
-8396.64
499.36
-8704.24
413.16
-15994.1
-341.31
-13838
-401.307
-3067.4
704.02
10081.1
1781.4
-7882.91
2090.61
-22401.4
1727.63
-22302.7
1553.58
-9485.7
1614.31
7885.2
1755.44
18260
2045.64
27468.8
2369.89
36829.2
2588.02
45274.2
2711.22
52105.3
3169.68
61634.1
3945.94
72965.4
4585.56
79891.4
4735.93
75093.1
4304.63
53629.8
3273.14
24408.1
2178.78
14324.9
1744.7
25227.2
1673.42
29461.9
1652.47
26908.5
1652.79
24005.6
1668.21
21967.1
1624.06
20606.8
1623.05
20926.4
1063.36
15374.5
111.466
9698.6
-106.345
-30790.9
608.234
-61599.3
1253.85
-63375.9
1398.11
-60542.7
1388.45
-57765
1329.86
-56679.4
1293.24
-56730.7
1206.99
-56754.8
1246.22
-57325.4
-57310.2
-1304.22
-3382.78
-1324.79
2768.44
-1340.89
4766.37
-1346.38
7510.58
-1352.18
9767.84
-1359.24
11777.1
-1368.34
13443
-1378.4
14868.8
-1389.03
16068.8
-1394.31
17151.4
-1385.3
18135.5
-1358.43
18977
-1314.22
19663.9
-1252.76
20234.2
-1172.87
20682.6
-1077.27
20895.7
-973.814
20765
-869.931
20251.1
-772.692
19350
-687.865
18148.7
-614.356
16817.7
-549.656
15434.9
-488.943
14093.2
-425.886
12817.3
-355.812
11520.5
-273.244
10185.8
-177.94
8715.95
-90.4703
7289.37
-17.1863
6122.13
72.4131
614.267
-33.6349
-5847.64
-61.0071
-6706.07
-210.663
-8286.48
-341.471
-9943.37
-141.491
-11461.4
-123.577
-14330.2
-508.384
-11902.8
-385.307
-8519.72
397.623
-9487.17
270.443
-15866.9
-652.286
-12915.3
-717.968
-3001.72
854.349
8508.76
2046.45
-9075.01
2220.29
-22575.2
1722.19
-21804.7
1643.59
-9407.09
1830.45
7698.33
1887.15
18203.3
2113.53
27242.4
2394.55
36548.2
2585.55
45083.2
2699.57
51991.3
3134.02
61199.7
3888.3
72211.2
4528.91
79250.8
4695.98
74926
4288.33
54037.4
3292.63
25403.8
2188.05
15429.5
1746.49
25668.8
1677.85
29530.5
1657.12
26929.2
1661.13
24001.6
1686.54
21941.7
1658.5
20634.9
1689.94
20895
1122.06
15942.3
187.04
10633.6
-204.767
-30399.1
461.209
-62265.3
1136.56
-64051.2
1284.97
-60691.1
1289.85
-57769.9
1251.2
-56640.7
1237.56
-56717.1
1172.82
-56690.1
1132.85
-57285.4
-57167.6
-1253.12
-3476.75
-1282.51
2797.83
-1314.7
4798.55
-1326.49
7522.38
-1340.44
9781.78
-1355.18
11791.9
-1369.85
13457.7
-1383.85
14882.8
-1396.83
16081.8
-1403.02
17157.6
-1393.91
18126.4
-1366.34
18949.5
-1321.14
19618.7
-1258.56
20171.6
-1177.59
20601.7
-1081.06
20799.2
-976.742
20660.7
-871.916
20146.3
-773.703
19251.8
-687.882
18062.9
-613.409
16743.3
-547.877
15369.4
-486.418
14031.7
-422.584
12753.5
-351.182
11449.1
-265.81
10100.4
-164.746
8614.89
-68.1696
7192.79
9.11178
6044.85
6.91867
616.46
-109.401
-5731.32
-138.546
-6676.92
-254.816
-8170.21
-412.962
-9785.23
-253.449
-11620.9
-225.396
-14358.3
-623.295
-11504.9
-467.803
-8675.21
254.173
-10209.1
49.8752
-15662.6
-864.264
-12001.2
-811.659
-3054.32
956.629
6740.47
2172.11
-10290.5
2218.39
-22621.5
1669.24
-21255.5
1670.58
-9408.43
2027.66
7341.25
2109.6
18121.4
2237.08
27114.9
2448.71
36336.5
2601.01
44930.9
2683.28
51909
3078.85
60804.1
3807.49
71482.5
4446.84
78611.5
4629.54
74743.3
4268.02
54398.9
3335.43
26336.4
2221.61
16543.3
1742.2
26148.2
1677.4
29595.3
1663.89
26942.8
1676.65
23988.8
1716.83
21901.5
1714.92
20636.8
1780.68
20829.2
1247.37
16475.6
360.056
11520.9
-208.631
-29830.4
393.391
-62867.3
1077.87
-64735.7
1235.48
-60848.7
1247.71
-57782.1
1217.15
-56610.2
1210.88
-56710.8
1156.83
-56636
1155.79
-57284.4
-56788.1
-1179.82
-3613.26
-1216.56
2834.57
-1275.55
4857.54
-1300.3
7547.13
-1323.91
9805.39
-1347.98
11815.9
-1370.13
13479.8
-1389.52
14902.2
-1405.8
16098.1
-1413.49
17165.3
-1404.65
18117.6
-1376.6
18921.4
-1330.42
19572.5
-1266.59
20107.8
-1184.26
20519.3
-1086.5
20701.4
-980.986
20555.2
-874.941
20040.2
-775.546
19152.4
-688.551
17975.9
-612.965
16667.7
-546.461
15302.9
-484.142
13969.4
-419.511
12688.9
-346.972
11376.5
-259.44
10012.9
-152.726
8508.17
-44.9087
7084.98
38.0205
5961.92
-42.4779
696.958
-159.983
-5613.82
-191.294
-6645.61
-277.097
-8084.4
-459.09
-9603.23
-357.502
-11722.5
-351.439
-14364.3
-748.428
-11107.9
-586.942
-8836.7
97.8785
-10894
-216.68
-15348.1
-1125.41
-11092.4
-922.664
-3257.07
1071.19
4746.62
2280.42
-11499.7
2197.04
-22538.1
1606.55
-20665
1665
-9466.88
2212.58
6793.67
2390.76
17943.2
2423.36
27082.3
2528.08
36231.8
2625.93
44833.1
2667.54
51867.4
3016.53
60455.1
3710.94
70788.1
4341.34
77981.1
4535.78
74548.9
4236.16
54698.6
3389.3
27183.3
2264.2
17668.4
1735.58
26676.8
1672.85
29658
1672.52
26943.1
1699.01
23962.4
1758.16
21842.4
1787.64
20607.3
1893.53
20723.3
1448.99
16920.2
609.174
12360.7
-183.219
-29038
337.248
-63387.8
1023.93
-65422.4
1186.13
-61010.9
1202
-57798
1177.96
-56586.1
1178.25
-56711.1
1135.84
-56593.6
1160.33
-57308.9
-56658.3
-1091.98
-3795.44
-1126.76
2869.34
-1217.68
4948.47
-1265.25
7594.71
-1302.67
9842.81
-1337.48
11850.7
-1368.74
13511.1
-1395.22
14928.7
-1416.02
16118.9
-1425.95
17175.2
-1417.88
18109.5
-1389.64
18893.2
-1342.59
19525.4
-1277.42
20042.6
-1193.55
20435.5
-1094.29
20602.2
-987.292
20448.2
-879.728
19932.7
-778.862
19051.6
-690.418
17887.4
-613.448
16590.7
-545.726
15235.2
-482.349
13906.1
-416.798
12623.3
-343.175
11302.9
-253.841
9923.53
-141.304
8395.64
-20.5833
6964.26
73.3653
5867.97
-62.8487
833.172
-203.785
-5472.88
-245.739
-6603.66
-290.911
-8039.23
-470.359
-9423.79
-432.794
-11760.1
-485.845
-14311.3
-882.722
-10711
-715.735
-9003.68
-83.0125
-11526.7
-519.241
-14911.8
-1369.78
-10241.9
-1005.68
-3621.16
1188.45
2552.49
2336.66
-12647.9
2128.8
-22330.2
1532.14
-20068.4
1677.11
-9611.85
2423.93
6046.85
2733.08
17634
2700.03
27115.4
2652.35
36279.5
2663.73
44821.7
2653.58
51877.6
2947.61
60161.1
3599.34
70136.4
4211.91
77368.5
4411.22
74349.5
4174.42
54935.4
3415.19
27942.5
2286.17
18797.4
1719
27244
1663.24
29713.8
1682.35
26924
1727.45
23917.3
1810.27
21759.5
1874.6
20543
2027.46
20570.5
1703.18
17244.5
913.046
13150.9
-109.471
-28015.5
307.503
-63804.8
986.171
-66101.1
1151.38
-61176.1
1167.21
-57813.8
1145.63
-56564.5
1147.74
-56713.2
1114.71
-56560.6
1136.41
-57330.6
-56331
-994.176
-4023.27
-1015.68
2890.85
-1138.25
5071.04
-1217.48
7673.93
-1275.76
9901.09
-1323.89
11898.9
-1365.47
13552.7
-1400.44
14963.7
-1427.16
16145.6
-1440.33
17188.4
-1433.63
18102.8
-1405.59
18865.1
-1357.86
19477.7
-1291.33
19976.1
-1205.78
20349.9
-1104.79
20501.2
-996.01
20339.4
-886.604
19823.3
-783.939
18948.9
-693.732
17797.2
-615.075
16512
-545.857
15166
-481.188
13841.4
-414.532
12556.6
-339.747
11228.1
-248.717
9832.5
-130.398
8277.32
4.10379
6829.75
111.213
5760.86
-69.1141
1013.5
-250.813
-5291.18
-304.747
-6549.72
-315.723
-8028.26
-468.732
-9270.78
-485.855
-11743
-623.951
-14173.2
-1005.5
-10329.4
-843.383
-9165.8
-310.164
-12059.9
-834.219
-14387.8
-1544.65
-9531.46
-1036.95
-4128.86
1327.64
187.893
2338.88
-13659.2
2026.33
-22017.7
1458.69
-19500.7
1713.61
-9866.76
2659.43
5101.02
3129.19
17164.3
3083.3
27161.2
2851.25
36511.5
2722.64
44950.3
2642.36
51957.9
2872.56
59930.9
3473.59
69535.3
4059.77
76782.3
4257.34
74152
4062.72
55130
3363.33
28641.9
2253.95
19906.8
1683.96
27814
1646.85
29750.9
1692.42
26878.4
1761.01
23848.7
1871.79
21648.8
1973.03
20441.7
2177.62
20365.9
1982
17440.1
1241.99
13890.9
7.74364
-26781.3
303.407
-64100.4
963.312
-66761
1127.91
-61340.7
1139.08
-57825
1116.01
-56541.5
1115.45
-56712.7
1091.14
-56536.3
1186.54
-57426
-56187.4
-890.41
-4293.31
-887.794
2888.23
-1037.39
5220.64
-1153.43
7789.97
-1240.57
9988.23
-1306.87
11965.2
-1360.51
13606.3
-1404.92
15008.1
-1438.74
16179.5
-1456.24
17205.9
-1451.67
18098.2
-1424.29
18837.8
-1376.1
19429.5
-1308.28
19908.2
-1220.95
20262.6
-1118.02
20398.3
-1007.19
20228.6
-895.644
19711.7
-790.878
18844.1
-698.612
17705
-617.98
16431.4
-547
15095
-480.81
13775.2
-412.86
12488.7
-336.82
11152.1
-244.182
9739.86
-120.48
8153.62
28.0505
6681.22
148.1
5640.81
-57.3576
1218.96
-294.002
-5054.54
-364.44
-6479.28
-366.887
-8025.81
-487.764
-9149.9
-540.95
-11689.8
-765.229
-13948.9
-1112.35
-9982.32
-947.566
-9330.58
-558.96
-12448.5
-1132.76
-13814
-1618.06
-9046.17
-973.974
-4772.94
1508.01
-2294.09
2284.73
-14435.9
1891.98
-21624.9
1386.99
-18995.7
1752.75
-10232.5
2896.61
3957.17
3556.79
16504.1
3567.76
27150.3
3153.52
36925.8
2819.25
45284.6
2635.56
52141.6
2793.02
59773.4
3335.45
68992.9
3886.74
76231
4077.6
73961.1
3882.23
55325.4
3192.23
29331.9
2141.03
20958
1624.04
28331
1622.9
29752
1701.99
26799.3
1798.77
23751.9
1941.16
21506.4
2080.33
20302.5
2338.37
20107.8
2266.88
17511.6
1581.88
14575.9
167.391
-25366.8
326.465
-64259.5
955.819
-67390.3
1115.94
-61500.9
1117.84
-57826.9
1089.08
-56512.7
1081.08
-56704.7
1060.57
-56515.8
1095.02
-57460.4
-56103.7
-783.784
-4599.31
-748.11
2852.56
-917.416
5389.94
-1071.01
7943.56
-1193.32
10110.5
-1284.49
12056.3
-1353.68
13675.5
-1408.69
15063.1
-1450.4
16221.2
-1473.27
17228.8
-1471.74
18096.7
-1445.58
18811.6
-1397.25
19381.2
-1328.23
19839.2
-1239.07
20173.4
-1134.06
20293.3
-1020.96
20115.5
-907.007
19597.8
-799.862
18737
-705.25
17610.3
-622.354
16348.5
-549.335
15022
-481.384
13707.2
-411.933
12419.2
-334.534
11074.7
-240.337
9645.66
-111.89
8025.17
50.1261
6519.21
182.159
5508.78
-21.4131
1422.53
-328.284
-4747.67
-424.017
-6383.55
-441.106
-8008.72
-535.655
-9055.35
-612.59
-11612.9
-911.896
-13649.6
-1215.6
-9678.62
-1046.94
-9499.24
-810.943
-12684.5
-1394.43
-13230.5
-1601.17
-8839.44
-669.151
-5704.96
1526.98
-4490.22
2175.39
-15084.3
1729.83
-21179.4
1314.24
-18580.1
1769.95
-10688.2
3102
2625.12
3979.61
15626.5
4124.06
27005.8
3575.07
37474.8
2982.12
45877.5
2639.95
52483.7
2710.57
59702.8
3186.7
68516.8
3695.04
75722.7
3873.2
73783
3624.34
55574.2
2894.61
30061.6
1946.25
21906.4
1537.84
28739.4
1591.58
29698.3
1710.7
26680.2
1839.96
23622.6
2016.94
21329.4
2194.41
20125.1
2504.74
19797.5
2547.78
17468.5
1925.04
15198.6
365.481
-23807.2
377.397
-64271.4
964.075
-67977
1115.01
-61651.8
1102.7
-57814.6
1063.85
-56473.9
1043.7
-56684.5
1026.51
-56498.6
1122.09
-57556
-55859.1
-676.787
-4932.71
-601.658
2777.43
-782.242
5570.53
-970.311
8131.63
-1130.76
10271
-1253.47
12179
-1343.64
13765.7
-1411.66
15131.1
-1462.07
16271.6
-1491.06
17257.7
-1493.51
18099.1
-1469.31
18787.4
-1421.23
19333.1
-1351.19
19769.2
-1260.21
20082.5
-1153.03
20186.1
-1037.48
19999.9
-920.898
19481.2
-811.112
18627.2
-713.865
17513.1
-628.408
16263.1
-553.051
14946.6
-483.081
13637.3
-411.894
12348.1
-332.986
10995.8
-237.154
9549.83
-104.787
7892.8
69.2075
6345.21
213.446
5364.54
38.4081
1597.57
-353.84
-4355.42
-481.709
-6255.68
-520.678
-7969.75
-591.504
-8984.52
-695.935
-11508.4
-1061.32
-13284.2
-1313.62
-9426.33
-1154.46
-9658.39
-1068.25
-12770.7
-1615.92
-12682.8
-1567.64
-8887.71
-456.103
-6816.5
1442.03
-6388.36
2008.74
-15651
1543.09
-20713.7
1233.67
-18270.7
1748.88
-11203.4
3224.96
1149.05
4346.06
14505.4
4698.59
26653.3
4105.94
38067.4
3243.05
46740.4
2673.17
53053.6
2627.98
59748
3028.64
68116.1
3487.52
75263.8
3642.78
73627.7
3298.04
55919
2505.28
30854.4
1696.68
22715
1431.92
29004.2
1554.6
29575.6
1718.77
26516
1884.07
23457.3
2097.83
21115.6
2313.57
19909.3
2672.79
19438.3
2819.31
17322
2267.35
15750.6
598.405
-22138.3
456.39
-64129.4
988.2
-68508.8
1124.58
-61788.2
1093.03
-57783
1039.52
-56420.4
1001.24
-56646.2
986.113
-56483.4
1141.08
-57711
-55809
-570.183
-5284.45
-451.529
2658.77
-635.893
5754.89
-853.124
8348.86
-1051.33
10469.2
-1210.29
12338
-1327.8
13883.2
-1412.98
15216.3
-1473.66
16332.3
-1509.44
17293.5
-1516.67
18106.4
-1495.24
18766
-1447.94
19285.8
-1377.12
19698.4
-1284.41
19989.7
-1175.02
20076.7
-1056.89
19881.8
-937.486
19361.8
-824.818
18514.5
-724.653
17412.9
-636.334
16174.7
-558.332
14868.6
-486.076
13565
-412.89
12274.9
-332.283
10915.2
-234.617
9452.16
-99.2904
7757.48
84.2413
6161.68
242.773
5206.01
126.27
1714.07
-358.228
-3870.92
-529.955
-6083.96
-593.715
-7905.99
-642.587
-8935.65
-784.024
-11367
-1206.57
-12861.7
-1393.1
-9239.8
-1252.17
-9799.32
-1312.01
-12710.9
-1790.67
-12204.2
-1542.3
-9136.09
-383.017
-7975.78
1312.98
-8084.35
1785.26
-16123.3
1333.43
-20261.9
1137.14
-18074.4
1688.91
-11755.2
3236.37
-398.409
4601.9
13139.9
5222.67
26032.5
4705.08
38585
3619.17
47826.3
2759.75
53913
2546.83
59960.9
2861.84
67801.1
3267.46
74858.2
3385.71
73509.5
2927.29
56377.4
2082.65
31699
1432.84
23364.8
1318.86
29118.1
1515.36
29379.1
1727.1
26304.3
1930.99
23253.4
2182.78
20863.8
2436.46
19655.6
2840.01
19034.7
3078.65
17083.4
2605.18
16224
861.769
-20394.9
563.37
-63831
1028.31
-68973.8
1144.11
-61904
1088.18
-57727.1
1015.35
-56347.5
953.262
-56584.2
935.37
-56465.5
1038.3
-57813.9
-55840.2
-464.521
-5645.24
-299.708
2493.96
-481.356
5936.54
-722.021
8589.53
-955.066
10702.2
-1152.16
12535.1
-1302.79
14033.8
-1410.7
15324.2
-1484.65
16406.2
-1528.27
17337.1
-1540.97
18119.1
-1523.09
18748.1
-1477.2
19239.9
-1405.94
19627.1
-1311.66
19895.5
-1200.08
19965.1
-1079.28
19761
-956.914
19239.4
-841.155
18398.8
-737.804
17309.6
-646.329
16083.3
-565.385
14787.7
-490.577
13490.2
-415.111
12199.4
-332.557
10832.6
-232.769
9352.38
-95.4354
7620.14
94.4586
5971.79
270.159
5030.31
235.893
1748.34
-315.151
-3319.87
-554.675
-5844.43
-654.427
-7806.24
-692.614
-8897.47
-878.824
-11180.8
-1344.23
-12396.3
-1464.98
-9119.05
-1346.64
-9917.66
-1521.9
-12535.6
-1908.13
-11817.9
-1508.33
-9535.89
-372.604
-9111.51
1135.43
-9592.39
1511.07
-16498.9
1100.16
-19851
1016.57
-17990.9
1597.12
-12335.8
3160.97
-1962.26
4726.24
11574.6
5635.05
25123.7
5308.89
38911.2
4101.73
49033.5
2922.04
55092.7
2472.26
60410.7
2688.27
67585.1
3038.07
74508.4
3105.08
73442.4
2541.35
56941.1
1680.87
32559.5
1189.98
23855.7
1211.76
29096.4
1477.87
29113
1736.94
26045.2
1980.89
23009.5
2271.09
20573.6
2562.1
19364.6
3005.12
18591.7
3324.72
16763.8
2935.54
16613.2
1150.59
-18609.9
697.708
-63378.1
1084.39
-69360.4
1172.96
-61992.5
1087.53
-57641.7
990.724
-56250.7
899.463
-56492.9
877.317
-56443.4
1028.6
-57965.2
-55758.3
-359.85
-6006.15
-147.502
2281.61
-321.59
6110.63
-580.171
8848.11
-843.378
10965.4
-1077.74
12769.4
-1265.39
14221.5
-1402
15460.8
-1493.76
16498
-1547.27
17390.7
-1566.22
18138
-1552.58
18734.5
-1508.76
19196.1
-1437.52
19555.9
-1341.9
19799.8
-1228.22
19851.4
-1104.74
19637.5
-979.316
19114
-860.293
18279.7
-753.509
17202.8
-658.601
15988.4
-574.445
14703.5
-496.824
13412.6
-418.784
12121.4
-333.959
10747.8
-231.659
9250.08
-93.0411
7481.52
99.8965
5778.85
294.201
4836
314.721
1727.82
-224.35
-2780.8
-539.259
-5529.52
-693.456
-7652.04
-746.078
-8844.84
-984.012
-10942.8
-1471.96
-11908.3
-1552.05
-9038.96
-1473.1
-9996.61
-1710.64
-12298.1
-1976.87
-11551.7
-1471.94
-10040.8
-396.845
-10186.6
916.303
-10905.5
1194.37
-16777
842.681
-19499.3
864.948
-18013.1
1483.64
-12954.4
3050.94
-3529.56
4761.81
9863.71
5909.31
23976.2
5845.52
38975
4660.61
50218.4
3180.12
56573.2
2420.31
61170.5
2509.88
67495.5
2801.88
74216.4
2807.83
73436.5
2165.11
57583.8
1332.47
33392.1
987.206
24200.9
1119.42
28964.1
1445.28
28787.1
1749.32
25741.2
2033.93
22724.9
2362.29
20245.3
2689.75
19037.2
3167.63
18113.8
3557.36
16374
3255.63
16914.9
1459.42
-16813.7
858.226
-62776.9
1156.25
-69658.5
1210.47
-62046.8
1090.49
-57521.7
965.209
-56125.4
839.167
-56366.9
811.052
-56415.3
993.111
-58147.2
-55882.6
-257.016
-6357.98
2.84829
2021.75
-159.595
6273.07
-431.431
9119.95
-719
11253
-987.4
13037.8
-1213.42
14447.5
-1383.78
15631.2
-1498.86
16613
-1565.64
17457.4
-1592.21
18164.6
-1583.5
18725.8
-1542.38
19155
-1471.67
19485.1
-1375.06
19703.2
-1259.46
19735.8
-1133.34
19511.4
-1004.81
18985.4
-882.389
18157.3
-771.946
17092.4
-673.361
15889.8
-585.749
14615.9
-505.051
13331.9
-424.147
12040.5
-336.669
10660.3
-231.338
9144.74
-91.7041
7341.89
101.505
5585.64
312.029
4625.48
359.84
1680.01
-99.3717
-2321.59
-473.298
-5155.6
-697.28
-7428.06
-803.121
-8739
-1101.25
-10644.7
-1585.55
-11424
-1648.65
-8975.86
-1620.7
-10024.6
-1880.1
-12038.7
-2021.42
-11410.4
-1459.28
-10602.9
-465.49
-11180.4
653.474
-12024.5
843.182
-16966.7
560.833
-19217
675.984
-18128.3
1350.46
-13628.9
2945.96
-5125.06
4789.18
8020.49
6068.42
22697
6250.24
38793.1
5246.13
51222.5
3550.15
58269.2
2418.35
62302.3
2329.32
67584.6
2560.56
73985.2
2502.08
73495
1814.25
58271.7
1047.09
34159.3
827.89
24420.1
1045.31
28746.7
1419.52
28412.9
1764.98
25395.7
2090.11
22399.7
2455.89
19879.5
2818.93
18674.1
3327.42
17605.4
3776.69
15924.8
3562.68
17129
1782.64
-15033.7
1043.21
-62037.5
1243.59
-69858.8
1255.97
-62059.2
1096.56
-57362.3
938.607
-55967.5
773.054
-56201.3
737.496
-56379.7
917.645
-58327.4
-55928.4
-158.903
-6689.23
145.783
1717.06
3.47541
6415.38
-278.579
9402
-585.758
11560.2
-883.143
13335.2
-1146.17
14710.5
-1353.41
15838.4
-1497.35
16757
-1581.98
17542.1
-1618.47
18201.1
-1615.63
18722.9
-1577.82
19117.2
-1508.19
19415.5
-1411
19606
-1293.74
19618.6
-1165.1
19382.7
-1033.48
18853.8
-907.571
18031.4
-793.28
16978.1
-690.809
15787.3
-599.528
14524.6
-515.498
13247.9
-431.449
11956.4
-340.901
10569.8
-231.869
9035.71
-90.9316
7200.95
100.537
5394.17
320.439
4405.58
385.788
1614.66
32.7251
-1968.53
-363.384
-4759.49
-656.164
-7135.28
-853.59
-8541.58
-1223.69
-10274.6
-1686.17
-10961.5
-1747.21
-8914.82
-1769.21
-10002.6
-2024.78
-11783.1
-2063.28
-11371.9
-1484.63
-11181.6
-585.137
-12079.9
347.947
-12957.6
464.978
-17083.7
253.859
-19005.8
444.264
-18318.7
1187.6
-14372.3
2838.52
-6775.98
4848.5
6010.52
6172.46
21373
6495.63
38470
5780.3
51937.8
4027.88
60021.6
2497.71
63832.5
2151.87
67930.4
2315.03
73822
2194.68
73615.3
1495.39
58971
819.564
34835.1
706.696
24533
989.803
28463.6
1402.24
28000.5
1784.99
25013
2149.54
22035.2
2551.42
19477.6
2949.19
18276.4
3484.46
17070.1
3982.74
15426.5
3853.84
17257.9
2114.59
-13294.4
1250.5
-61173.4
1345.88
-69954.2
1308.78
-62022.1
1105.37
-57158.9
911.029
-55773.1
702.242
-55992.5
659.784
-56337.3
894.154
-58561.8
-56096.9
-62.8547
-6991.96
281.774
1372.43
165.84
6531.31
-122.795
9690.63
-447.118
11884.5
-767.927
13656
-1064.35
15006.9
-1309.15
16083.2
-1486.53
16934.4
-1594.32
17649.8
-1644.13
18250.9
-1648.62
18727.4
-1614.84
19083.4
-1546.83
19347.5
-1449.56
19508.8
-1330.98
19500
-1200.01
19251.8
-1065.38
18719.2
-935.936
17902
-817.66
16859.8
-711.139
15680.8
-616.012
14429.5
-528.415
13160.3
-440.958
11869
-346.886
10475.7
-233.352
8922.18
-90.2856
7057.89
98.1142
5205.77
318.131
4185.56
397.497
1535.29
139.245
-1710.28
-238.052
-4382.19
-575.753
-6797.58
-880.182
-8237.15
-1332.48
-9822.31
-1777.43
-10516.6
-1851.83
-8840.42
-1919.3
-9935.1
-2154.51
-11547.9
-2118.38
-11408
-1554.56
-11745.4
-753.634
-12880.8
8.06885
-13719.3
66.1991
-17141.9
-80.1607
-18859.5
166.483
-18565.3
978.812
-15184.6
2685.52
-8482.69
4897.32
3798.72
6275.78
19994.6
6619.51
38126.2
6180.93
52376.4
4573.98
61628.6
2683.02
65723.4
1986.54
68626.9
2064.69
73743.8
1889.72
73790.3
1208.22
59652.5
638.029
35405.3
615.892
24555.1
952.456
28127
1395.73
27557.2
1811.31
24597.4
2212.87
21633.6
2648.59
19041.9
3080.08
17844.9
3638.58
16511.6
4175.3
14889.8
4126.24
17306.9
2449.75
-11617.9
1477.51
-60201.2
1462.44
-69939.2
1368.26
-61927.9
1116.67
-56907.3
882.973
-55539.4
629.354
-55738.9
578.99
-56286.9
760.112
-58742.9
-56335.9
36.0035
-7263.89
413.069
995.369
323.854
6620.53
34.5619
9979.93
-304.665
12223.7
-644.838
13996.2
-969.704
15331.8
-1250.42
16364
-1464.11
17148.1
-1600.33
17786.1
-1667.84
18318.4
-1681.92
18741.5
-1653.11
19054.6
-1587.35
19281.7
-1490.51
19411.9
-1371.03
19380.5
-1238.02
19118.8
-1100.52
18581.7
-967.553
17769
-845.217
16737.4
-734.542
15570.1
-635.434
14330.4
-544.061
13068.9
-452.954
11777.9
-354.873
10377.6
-235.959
8803.26
-89.4808
6911.41
95.1692
5021.12
307.155
3973.58
396.947
1445.5
207.354
-1520.68
-127.052
-4047.79
-476.716
-6447.92
-870.355
-7843.51
-1404.38
-9288.29
-1856.71
-10064.3
-1963.16
-8733.97
-2072.3
-9825.95
-2280.99
-11339.2
-2193.27
-11495.7
-1663.35
-12275.3
-964.399
-13579.8
-360.313
-14323.4
-350.676
-17151.5
-443.285
-18766.9
-156.961
-18851.6
711.828
-16053.4
2454.44
-10225.3
4862.6
1390.55
6374.11
18483
6696.34
37804
6429.16
52643.6
5123.5
62934.2
2985.1
67861.8
1855.52
69756.5
1808.89
73790.5
1587.89
74011.3
946.745
60293.6
488.377
35863.7
547.65
24495.8
932.226
27742.5
1402.32
27087.1
1846.59
24153.1
2281.54
21198.7
2747.49
18576
3211.03
17381.3
3789.36
15933.2
4353.81
14325.3
4376.92
17283.8
2782.9
-10023.9
1721.42
-59139.7
1592.41
-69810.1
1433.78
-61769.2
1130.4
-56603.9
855.335
-55264.4
558.293
-55441.9
503.588
-56232.2
717.044
-58956.3
-56449.7
139.4
-7506.27
537.134
597.634
473.681
6683.98
190.686
10262.9
-159.855
12574.3
-516.547
14352.9
-864.829
15680.1
-1177.9
16677
-1428.66
17398.8
-1597.73
17955.1
-1687.85
18408.5
-1714.61
18768.2
-1692.2
19032.2
-1629.45
19219
-1533.62
19316.1
-1413.71
19260.6
-1279.02
18984.1
-1138.87
18441.5
-1002.45
17632.6
-876.058
16611.1
-761.189
15455.2
-658.011
14227.2
-562.713
12973.6
-467.739
11682.9
-365.135
10275
-239.962
8678.09
-88.4778
6759.92
92.5429
4840.1
292.257
3773.86
385.162
1352.59
242.09
-1377.61
-46.2912
-3759.4
-381.661
-6112.55
-825.587
-7399.58
-1426.54
-8687.33
-1917.61
-9573.2
-2080.74
-8570.84
-2231.86
-9674.83
-2413.13
-11157.9
-2289.9
-11619
-1804.99
-12760.2
-1214.69
-14170.1
-752.847
-14785.2
-783.297
-17121.1
-837.249
-18712.9
-524.409
-19164.5
385.685
-16963.5
2152.34
-11992
4726.05
-1183.17
6423.45
16785.6
6776.11
37451.3
6576.36
52843.3
5607.6
63903
3395.71
70073.7
1797.91
71354.3
1550.39
74038
1287.86
74273.8
701.23
60880.2
355.496
36209.4
493.325
24358
926.184
27309.6
1422.81
26590.5
1892.96
23683
2357.22
20734.4
2848.65
18084.5
3341.45
16888.5
3936.2
15338.5
4517.59
13744
4603.13
17198.3
3109.29
-8530.06
1979.23
-58009.6
1734.76
-69565.7
1504.79
-61539.3
1146.64
-56245.7
829.343
-54947.1
492.782
-55105.3
438.696
-56178.1
678.868
-59196.5
-56664.3
248.166
-7725.05
654.085
191.715
614.932
6723.13
343.587
10534.3
-14.0423
12931.9
-385.124
14724
-752.789
16047.7
-1093.47
17017.7
-1379.87
17685.2
-1584.64
18159.9
-1702.2
18526.1
-1745.44
18811.5
-1731.44
19018.2
-1672.72
19160.3
-1578.61
19222
-1458.8
19140.8
-1322.85
18848.1
-1180.34
18299
-1040.63
17492.9
-910.26
16480.7
-791.211
15336.2
-683.949
14119.9
-584.66
12874.3
-485.637
11583.9
-378.003
10167.4
-245.745
8545.83
-87.6434
6601.82
90.9505
4661.51
278.876
3585.94
363.877
1267.59
250.164
-1263.9
0.355237
-3509.6
-306.701
-5805.49
-760.2
-6946.08
-1403.44
-8044.09
-1957.21
-9019.42
-2204.55
-8323.51
-2401.35
-9478.03
-2556.42
-11002.9
-2409.65
-11765.7
-1977.89
-13192
-1501.24
-14646.7
-1168.08
-15118.4
-1232.58
-17056.5
-1262.03
-18683.5
-934.094
-19492.4
6.81526
-17904.4
1813.68
-13798.8
4543.02
-3912.5
6430.13
14898.5
6873.31
37008.2
6670.66
53046
5978.14
64595.5
3883.31
72168.5
1848.59
73389
1296.79
74589.8
989.021
74581.6
461.785
61407.5
224.088
36447.1
442.647
24139.5
928.621
26823.6
1454.99