/*--------------------------------*- C++ -*----------------------------------*\
| =========                 |                                                 |
| \\      /  F ield         | OpenFOAM: The Open Source CFD Toolbox           |
|  \\    /   O peration     | Version:  4.1                                   |
|   \\  /    A nd           | Web:      www.OpenFOAM.org                      |
|    \\/     M anipulation  |                                                 |
\*---------------------------------------------------------------------------*/
FoamFile
{
    version     2.0;
    format      ascii;
    class       volVectorField;
    location    "9";
    object      U;
}
// * * * * * * * * * * * * * * * * * * * * * * * * * * * * * * * * * * * * * //

dimensions      [0 1 -1 0 0 0 0];

internalField   nonuniform List<vector> 
6785
(
(1.54971e-13 -0.60576 16.1058)
(1.31921e-13 -6.49789 12.4974)
(-4.7459e-14 -4.73369 12.835)
(4.4454e-14 -4.19749 12.6179)
(2.29565e-14 -3.58416 12.4598)
(-2.79557e-14 -3.10956 12.2506)
(6.06626e-14 -2.72118 12.0103)
(2.14963e-14 -2.43282 11.7269)
(-2.14744e-14 -2.23816 11.3978)
(6.29599e-14 -2.10492 11.0392)
(1.61629e-14 -2.04183 10.6712)
(-3.41327e-14 -2.24344 10.2246)
(5.65951e-14 -2.65246 9.63932)
(-2.54583e-14 -1.84992 9.09656)
(-1.35834e-13 0.935835 7.01614)
(3.22337e-13 -7.38558 26.1714)
(2.05798e-13 -16.5769 21.838)
(-4.3301e-14 -11.6838 22.3072)
(2.50547e-13 -11.8791 20.9381)
(9.41087e-15 -10.9279 19.9652)
(4.83685e-14 -10.1944 18.9402)
(2.21189e-13 -9.44648 17.9245)
(1.57196e-14 -8.72008 16.8961)
(1.08058e-13 -8.01749 15.8481)
(2.29316e-13 -7.34598 14.8648)
(2.42065e-14 -6.7476 14.1059)
(1.33797e-13 -6.33453 13.2482)
(2.16902e-13 -5.77007 11.027)
(-1.30943e-13 -3.70273 6.72565)
(-1.89318e-13 0.0373442 2.36814)
(8.02317e-14 -10.2818 28.2911)
(2.07751e-13 -17.7721 24.5324)
(-7.06876e-14 -12.0355 25.0905)
(-8.24682e-15 -12.8196 22.9792)
(4.61095e-14 -11.3248 21.8554)
(-3.3126e-15 -10.5024 20.4626)
(-4.34743e-14 -9.58961 19.1351)
(4.58879e-14 -8.74477 17.8214)
(-2.4716e-14 -7.9619 16.5651)
(-1.12648e-13 -7.21988 15.3517)
(9.5739e-14 -6.25832 13.7003)
(-1.57479e-13 -4.30367 10.099)
(-3.98289e-13 -0.463612 3.11958)
(-2.99732e-13 3.40701 -4.06714)
(-6.99482e-13 2.01571 -3.80653)
(2.58162e-13 -11.2782 27.5058)
(9.71454e-14 -17.7425 24.3075)
(1.7741e-14 -11.9293 24.8134)
(-5.56963e-14 -13.603 22.0571)
(-4.67317e-14 -11.6402 21.0747)
(8.08139e-14 -11.1609 19.3942)
(-8.12026e-14 -10.2545 17.9863)
(-8.47855e-14 -9.52801 16.5447)
(9.5524e-14 -8.83967 15.1962)
(-1.1255e-13 -8.22012 13.923)
(-1.4692e-13 -7.45435 12.3789)
(5.61385e-14 -5.87867 9.47222)
(-9.292e-14 -2.90098 4.19386)
(-1.10612e-12 0.227895 0.00714267)
(-8.80043e-13 1.48134 -4.98279)
(1.64243e-13 -11.4307 26.0596)
(-1.13568e-13 -17.65 24.7651)
(-3.39282e-14 -12.1728 24.4982)
(-1.44946e-13 -13.8424 21.5602)
(-2.92012e-13 -11.8109 20.6121)
(-3.8095e-14 -11.3998 18.8297)
(-1.91047e-13 -10.5021 17.3589)
(-3.78292e-13 -9.73772 15.86)
(-1.20667e-13 -8.99685 14.4241)
(-2.04993e-13 -8.29634 13.0594)
(-4.92765e-13 -7.56392 11.6321)
(-3.07579e-13 -6.445 9.64589)
(-2.31458e-13 -4.53597 6.30164)
(-1.10889e-12 -1.82951 2.77874)
(-8.13121e-13 0.16127 -2.3939)
(2.678e-13 -11.2581 24.4457)
(3.1064e-15 -17.3547 25.1986)
(2.68164e-14 -12.3476 24.2557)
(-2.01809e-13 -13.5888 21.2848)
(-2.57372e-13 -11.6194 20.3291)
(5.56534e-14 -11.1713 18.5475)
(-1.81945e-13 -10.2436 17.0735)
(-3.27777e-13 -9.41438 15.5671)
(5.12641e-14 -8.60464 14.0878)
(-2.51374e-13 -7.8144 12.6719)
(-3.47459e-13 -7.05441 11.2857)
(-6.22606e-14 -6.13171 9.72947)
(-2.63836e-13 -4.80563 7.3433)
(-5.25248e-13 -2.59314 4.24687)
(2.36039e-12 -0.370851 -1.414)
(4.96907e-13 -11.0016 23.0197)
(8.80308e-14 -16.8857 25.2029)
(2.43694e-13 -12.4755 23.9478)
(-1.27162e-13 -13.2588 20.9865)
(-1.55494e-13 -11.4739 19.9684)
(3.33963e-13 -10.9826 18.2537)
(-9.87734e-14 -10.0892 16.791)
(-2.00295e-13 -9.26314 15.3211)
(2.64209e-13 -8.47277 13.8873)
(-6.11325e-14 -7.68947 12.5274)
(-2.2399e-13 -6.93882 11.1975)
(2.61373e-13 -6.10072 9.83154)
(-1.32824e-13 -5.09364 7.99671)
(-7.21985e-13 -3.33568 5.49754)
(1.39421e-12 -1.08264 0.0800271)
(3.8765e-13 -10.8463 22.141)
(9.71006e-14 -16.3497 24.7207)
(2.49377e-13 -12.4095 23.5494)
(-5.51223e-14 -13.0259 20.5865)
(-1.86084e-13 -11.309 19.5668)
(2.2029e-13 -10.8676 17.877)
(-1.50085e-14 -10.0177 16.4828)
(-2.45088e-13 -9.29933 15.1381)
(8.25814e-14 -8.63028 13.8538)
(1.02573e-13 -7.94631 12.6061)
(-6.89458e-14 -7.27352 11.3631)
(7.43305e-14 -6.54257 10.1512)
(1.88208e-13 -5.75105 8.76842)
(-4.29385e-13 -4.43077 6.98833)
(2.22252e-13 -2.37582 2.42119)
(3.72484e-13 -11.0099 21.8453)
(8.89008e-14 -15.6995 23.9391)
(8.68308e-14 -12.0718 23.0473)
(-8.59749e-14 -12.8236 20.0473)
(-1.70856e-13 -10.8772 19.1525)
(-4.65785e-14 -10.6559 17.3346)
(2.4314e-16 -9.70814 16.0756)
(-1.58343e-13 -9.16404 14.7372)
(-1.13884e-13 -8.59078 13.4823)
(2.40288e-13 -8.05872 12.2988)
(1.72451e-13 -7.58781 11.3075)
(-1.81285e-13 -7.13076 10.5393)
(2.49606e-13 -6.60846 9.82847)
(-7.99953e-14 -5.70076 8.76505)
(-4.39644e-13 -3.84355 5.1863)
(2.36567e-13 -11.6426 22.2632)
(6.55869e-14 -15.0228 23.4169)
(-3.4488e-14 -11.8593 22.5849)
(-2.80208e-13 -12.4252 19.8228)
(-1.2038e-13 -10.4097 18.8645)
(-1.71828e-13 -10.0594 16.7959)
(-2.81753e-13 -8.63006 15.07)
(-2.77317e-13 -7.79116 13.0433)
(-5.97714e-13 -7.21549 11.7387)
(-6.3371e-13 -7.15247 11.061)
(-2.04775e-13 -7.18516 10.8967)
(-3.38716e-13 -7.3939 11.1965)
(1.80764e-13 -7.52569 11.5746)
(3.39423e-13 -7.24395 11.2356)
(-7.80341e-13 -5.30987 8.33393)
(-3.28833e-14 -12.2911 22.9908)
(1.12807e-13 -15.0979 24.1069)
(-3.42569e-13 -12.0729 22.9114)
(-2.88884e-13 -12.3246 20.5341)
(-1.26882e-13 -10.3715 19.3937)
(-5.46489e-13 -9.70707 17.4454)
(-4.06785e-13 -7.88671 15.3413)
(-7.94335e-13 -6.09238 12.1279)
(-1.94525e-12 -4.66024 9.8217)
(-2.18633e-12 -4.37392 9.09694)
(-2.5099e-12 -4.61303 9.32462)
(-2.24716e-12 -5.5224 10.4404)
(-8.33762e-13 -6.78381 12.0345)
(-5.06593e-13 -7.45847 12.7268)
(-6.37952e-13 -5.34751 9.54105)
(-1.90511e-14 -12.3594 23.0454)
(2.27044e-13 -16.2354 26.2891)
(-6.11069e-13 -12.5054 23.8584)
(-1.78459e-13 -12.6211 21.885)
(-1.34354e-13 -10.8076 20.9855)
(-7.93788e-13 -10.192 19.2621)
(-3.36944e-13 -8.48446 17.3287)
(-8.67235e-13 -6.66193 14.2117)
(-2.41141e-12 -4.53449 11.1858)
(-3.16688e-12 -3.39709 9.37454)
(-4.47064e-12 -2.82672 8.38403)
(-4.59467e-12 -2.76792 7.89129)
(-3.3453e-12 -3.07278 7.69621)
(-2.31549e-12 -3.64081 7.81408)
(-5.03063e-13 -3.25106 7.52385)
(-2.09458e-13 -11.5013 21.0714)
(1.29476e-13 -18.3586 29.1233)
(-3.42905e-13 -15.906 27.275)
(-4.65752e-13 -14.7843 24.1103)
(-1.48431e-14 -12.8082 22.2302)
(-7.24666e-13 -11.9365 20.2035)
(-6.88113e-13 -10.3527 18.113)
(-1.6604e-14 -8.72372 15.4002)
(-1.70154e-12 -6.458 12.1412)
(-2.5034e-12 -4.54594 9.18871)
(-3.48331e-12 -2.89093 6.5623)
(-4.92974e-12 -1.15033 3.71116)
(-4.3523e-12 1.50867 -0.422825)
(-3.27565e-12 3.6562 -4.07241)
(-2.3308e-12 0.103114 0.20898)
(-2.58544e-13 -3.64113 9.89454)
(-9.93013e-14 -13.3418 26.4287)
(-4.18713e-13 -11.7561 26.7385)
(-3.4847e-13 -10.7875 25.2129)
(-2.37808e-13 -9.67112 24.2023)
(-4.29841e-13 -9.02752 22.84)
(-3.18011e-13 -8.30486 21.3239)
(-4.48392e-13 -7.76544 19.3539)
(-1.14807e-12 -7.11889 16.8269)
(-1.26287e-12 -6.71514 14.2353)
(-1.41666e-12 -6.89196 12.2814)
(-1.86146e-12 -7.27721 11.0932)
(-1.83827e-12 -7.4767 10.0953)
(-1.82528e-12 -7.38333 10.63)
(-2.60652e-12 -7.84759 12.1529)
(-3.04246e-13 -34.1431 64.1275)
(-3.27003e-13 -24.2375 53.9269)
(-4.10865e-13 -16.3861 41.9501)
(-4.02116e-13 -11.1688 33.9886)
(-4.03943e-13 -6.71176 26.4296)
(-3.98023e-13 -2.89774 19.2583)
(-4.70289e-13 1.13438 11.2097)
(-5.17764e-13 5.42165 1.77131)
(-4.4243e-13 10.0087 -7.68389)
(-4.53861e-13 13.7812 -14.692)
(-5.00204e-13 13.9606 -16.3836)
(-5.7117e-13 11.7291 -13.6102)
(-8.01225e-13 8.21073 -9.82039)
(-8.34694e-13 5.26778 -5.45222)
(-5.39621e-13 5.49335 -0.859801)
(-1.28611e-15 3.02815 -0.0085254)
(-1.08959e-14 -5.96429 10.2805)
(-1.59401e-14 -5.12486 4.25639)
(-1.99589e-14 -4.67334 5.61728)
(-2.57056e-14 -4.29246 6.13779)
(-4.7036e-14 -9.04878 9.79731)
(-4.10501e-14 -9.47561 3.93232)
(-4.14697e-14 -9.25659 5.52066)
(-3.78704e-14 -8.98712 6.22471)
(-5.57751e-14 -14.7945 9.94612)
(-5.82165e-14 -13.2392 4.45972)
(-5.867e-14 -12.6777 6.14509)
(-7.61451e-14 -18.5936 9.21835)
(-5.42829e-14 -16.6049 4.20142)
(-5.5647e-14 -17.0013 5.75142)
(-5.48423e-14 -16.2463 6.33503)
(-7.0673e-14 -23.3688 8.79628)
(-4.97329e-14 -19.0788 3.54375)
(-5.25264e-14 -18.616 4.78693)
(-6.25266e-14 -25.0428 5.50937)
(-4.22589e-14 -20.7637 1.22665)
(-4.04812e-14 -21.3902 2.35719)
(-3.70175e-14 -19.8763 2.6664)
(-4.49028e-14 -26.7127 2.57537)
(-2.89764e-14 -21.1155 -0.868943)
(-2.7946e-14 -21.7654 0.116489)
(-2.6286e-14 -20.3253 0.469384)
(-2.85102e-14 -26.9161 -0.666182)
(-2.07326e-14 -20.0266 -2.59883)
(-1.80287e-14 -19.5732 -2.13694)
(-2.17085e-14 -24.0754 -4.64507)
(-1.71526e-14 -18.07 -4.57491)
(-1.43898e-14 -18.4439 -4.59576)
(-1.38001e-14 -16.8732 -4.88562)
(-1.78579e-14 -20.9678 -9.49841)
(-1.47216e-14 -14.4019 -8.01804)
(-1.31637e-14 -13.4814 -8.5684)
(-1.34761e-14 -15.4383 -12.2275)
(-8.63674e-15 -10.551 -6.71798)
(-3.11465e-15 -10.1532 -6.21413)
(-2.39549e-15 -8.80036 -6.49599)
(-9.17943e-15 -9.99436 -12.6573)
(-1.72437e-14 -6.42261 -10.6167)
(-1.54405e-14 -4.67353 -11.3716)
(-7.27116e-15 -3.99293 -10.5983)
(1.87864e-15 -2.42128 -14.6595)
(-1.78504e-15 -2.32731 -10.401)
(-7.92588e-15 1.19618 -10.4407)
(-5.71079e-15 3.83873 -17.609)
(-8.06806e-15 3.30916 -12.4059)
(-1.28652e-14 5.3371 -12.8185)
(-1.76808e-14 5.7196 -12.7245)
(-2.07981e-14 10.347 -20.2655)
(-1.88481e-14 9.18853 -14.2162)
(-2.40237e-14 11.593 -14.4012)
(-2.2713e-14 11.7035 -14.0017)
(-2.91984e-14 17.0286 -21.0289)
(-2.60853e-14 15.2413 -14.7165)
(-2.82045e-14 17.0433 -13.5939)
(-3.83106e-14 24.1861 -19.9509)
(-3.2157e-14 19.6341 -13.4416)
(-3.46014e-14 22.6438 -13.0278)
(-3.69333e-14 22.1872 -12.0507)
(-4.08117e-14 29.4516 -17.2062)
(-3.06861e-14 24.9679 -11.3074)
(-3.01092e-14 26.5958 -9.94077)
(-4.19281e-14 36.1534 -13.9029)
(-3.62264e-14 28.3229 -8.5824)
(-3.8145e-14 31.6426 -7.82656)
(-3.7468e-14 30.398 -6.74362)
(-5.21147e-14 40.1549 -9.26852)
(-3.87305e-14 31.6941 -5.07408)
(-3.80703e-14 35.2397 -4.21062)
(-3.45786e-14 33.6331 -3.28293)
(-5.40221e-14 42.9919 -4.33599)
(-3.97544e-14 34.7589 -1.30995)
(-3.52399e-14 35.9778 -0.456055)
(-4.74338e-14 46.2036 -0.0320213)
(-3.92853e-14 37.1738 1.99612)
(-1.26096e-14 35.222 2.13084)
(-8.32365e-14 39.1509 3.36744)
(-8.07401e-14 36.4135 3.92454)
(-7.35849e-14 35.4633 4.60939)
(7.20263e-15 43.3888 4.96855)
(-4.02943e-14 38.0788 7.41548)
(-5.83757e-14 38.1344 7.34524)
(-6.62519e-14 38.0376 7.25547)
(-6.0401e-14 37.7948 7.32484)
(-5.46479e-14 37.7245 7.36141)
(-5.31544e-14 37.4591 7.35574)
(-5.03637e-14 37.5759 7.34077)
(-5.43023e-14 36.7639 6.55495)
(5.45869e-14 42.6785 8.98675)
(-6.24798e-14 37.4847 7.97771)
(-6.436e-14 38.0015 7.70999)
(-7.17171e-14 37.6793 7.64902)
(-4.42384e-14 37.4918 6.96481)
(-4.35554e-14 37.1763 6.71691)
(-4.82389e-14 36.8519 6.51772)
(-5.31615e-14 37.0261 6.42832)
(-5.58227e-14 36.2281 5.59217)
(-3.97625e-16 41.836 9.27481)
(-6.44464e-14 36.4579 6.39459)
(-6.12498e-14 36.6408 5.70502)
(-5.43686e-14 36.3937 5.07412)
(-4.48675e-14 36.0982 4.40441)
(-3.27892e-14 35.9596 3.81358)
(-2.26466e-14 35.8683 3.7652)
(-1.72158e-14 35.6336 3.508)
(-1.36102e-14 35.7373 3.35526)
(-1.82475e-14 34.9598 2.90144)
(5.32334e-14 41.3264 5.80021)
(-1.44811e-15 34.7664 4.92962)
(9.39886e-16 35.2913 4.48655)
(8.45866e-15 35.1891 3.96516)
(1.76318e-14 34.8664 3.37061)
(2.96099e-14 34.9586 2.47325)
(3.27825e-14 34.7365 2.38908)
(3.85032e-14 35.0596 2.04827)
(2.8086e-14 34.6168 1.37478)
(1.1747e-13 41.8789 1.79282)
(2.81325e-14 34.3775 1.95476)
(1.71617e-14 35.1901 2.0005)
(5.87998e-15 35.2762 2.89313)
(-1.48703e-14 35.2852 3.36402)
(-3.85334e-14 35.45 3.95247)
(-6.27762e-14 35.378 4.80668)
(-8.64962e-14 35.8494 5.47567)
(-1.08581e-13 34.9962 7.7683)
(-7.49475e-14 44.4295 7.19125)
(-1.50999e-13 35.7115 11.0867)
(-1.6753e-13 36.7495 11.8915)
(-1.82232e-13 37.1125 12.5573)
(-1.98595e-13 36.911 13.838)
(-2.14063e-13 37.1579 14.9345)
(-2.29293e-13 37.2657 15.6842)
(-2.41653e-13 37.6764 16.2828)
(-2.65707e-13 37.1351 17.2665)
(-2.29846e-13 48.3554 15.3197)
(-3.0216e-13 38.2443 20.4823)
(-3.20014e-13 39.7314 21.129)
(-3.40035e-13 40.1704 21.7711)
(-3.60009e-13 39.9857 22.6496)
(-3.77747e-13 40.4113 22.971)
(-3.96765e-13 40.4108 24.9142)
(-4.14136e-13 40.7226 26.1729)
(-4.28189e-13 41.2191 27.1958)
(-4.43685e-13 40.5705 29.0559)
(-4.18931e-13 54.9034 25.1861)
(-4.52984e-13 42.7817 32.4086)
(-4.54288e-13 44.6584 34.2408)
(-4.5709e-13 45.3977 35.6485)
(-4.57842e-13 45.3135 37.0163)
(-4.56535e-13 45.7387 38.2889)
(-4.55607e-13 46.0235 40.0649)
(-4.48814e-13 46.5275 42.9392)
(-4.36657e-13 46.2057 46.3376)
(-4.22479e-13 65.5831 40.0252)
(-4.18467e-13 50.2926 48.3317)
(-4.14426e-13 52.6773 51.4781)
(-3.19132e-13 53.8212 38.2879)
(-3.7066e-13 47.6728 41.2059)
(-4.01835e-13 48.6549 41.8648)
(-2.60102e-13 35.5144 27.4039)
(-3.36218e-13 47.374 32.4982)
(-2.36068e-13 32.8145 23.1326)
(-2.81422e-13 34.5197 25.2688)
(-3.10262e-13 35.6646 23.9236)
(-2.03404e-13 26.2263 15.5438)
(-2.38003e-13 30.0718 16.1613)
(-2.59236e-13 31.4509 14.0419)
(-1.65772e-13 21.4277 8.63466)
(-2.16321e-13 30.7716 8.18542)
(-1.50245e-13 21.6227 5.2171)
(-1.80494e-13 24.052 4.15022)
(-2.05985e-13 27.4101 1.24208)
(-1.31774e-13 18.844 0.191312)
(-1.82603e-13 29.5474 -2.47727)
(-1.30537e-13 20.9004 -2.37384)
(-1.60695e-13 24.773 -4.62691)
(-1.91667e-13 28.3288 -7.45875)
(-1.30026e-13 21.2771 -5.43776)
(-1.59352e-13 27.74 -7.77918)
(-1.91122e-13 32.1268 -10.2714)
(-1.26092e-13 22.1876 -7.09444)
(-1.7074e-13 36.2706 -10.8451)
(-1.20375e-13 26.532 -8.0601)
(-1.44745e-13 31.5693 -10.646)
(-1.65976e-13 37.4831 -12.7293)
(-1.06878e-13 26.8843 -8.56248)
(-1.42033e-13 42.9455 -12.2138)
(-1.00204e-13 31.6392 -8.81425)
(-1.19243e-13 37.9247 -11.2507)
(-1.41638e-13 42.8217 -12.6234)
(-9.56645e-14 33.0872 -8.35401)
(-1.15076e-13 42.7605 -10.3027)
(-1.37251e-13 48.0745 -11.088)
(-9.01287e-14 34.2225 -7.24384)
(-1.23439e-13 52.9328 -9.78268)
(-8.7794e-14 39.3506 -6.8056)
(-1.07669e-13 45.7748 -8.39005)
(-1.2159e-13 52.3086 -8.76086)
(-7.73251e-14 37.9676 -5.65437)
(-1.02974e-13 57.7231 -7.65205)
(-7.10528e-14 42.6622 -5.29159)
(-8.42528e-14 49.8496 -6.71957)
(-9.35008e-14 54.8998 -7.22036)
(-5.99877e-14 42.2974 -4.69973)
(-6.93478e-14 53.404 -5.99117)
(-7.29329e-14 59.1018 -6.60016)
(-4.50566e-14 42.1553 -4.41182)
(-5.55761e-14 63.6074 -6.62865)
(-3.66877e-14 47.3939 -4.75887)
(-4.22064e-14 54.4879 -6.40157)
(-4.48039e-14 62.1361 -7.27533)
(-2.83447e-14 45.3683 -4.82407)
(-3.71458e-14 68.1688 -7.20546)
(-2.53183e-14 50.73 -5.05909)
(-2.99415e-14 58.9418 -6.83715)
(-3.40095e-14 65.3278 -7.55732)
(-2.26553e-14 50.7388 -4.7761)
(-2.79461e-14 63.6147 -6.24708)
(-3.16061e-14 70.9237 -6.56072)
(-1.98283e-14 50.9326 -4.1425)
(-2.80878e-14 76.3014 -6.07193)
(-2.06337e-14 57.1877 -4.00031)
(-2.5583e-14 65.3963 -5.3688)
(-3.24502e-14 74.7566 -5.43662)
(-2.14125e-14 54.7397 -3.31284)
(-3.07974e-14 81.4794 -4.9426)
(-2.23261e-14 60.757 -3.13492)
(-2.81418e-14 70.094 -4.47121)
(-3.28404e-14 77.6296 -4.61027)
(-2.17048e-14 60.1457 -2.6221)
(-2.68974e-14 74.8764 -3.751)
(-3.23816e-14 83.4542 -3.90355)
(-2.10572e-14 59.6871 -2.36693)
(-3.00381e-14 89.324 -4.21488)
(-2.11071e-14 65.9443 -2.6936)
(-2.79999e-14 78.6851 -4.72246)
(8.33484e-27 4.34457 9.12464)
(-7.8464e-28 -3.69477 8.79295)
(-4.1347e-29 -6.34745 9.05436)
(-3.8967e-29 -10.003 9.0342)
(-2.9336e-29 -13.0085 9.04678)
(-1.91601e-29 -15.6854 9.04487)
(-1.07114e-29 -17.9082 9.08075)
(-4.87372e-30 -19.8192 9.12414)
(-1.78907e-30 -21.4322 9.18504)
(-8.48997e-31 -22.9017 9.25356)
(-1.1457e-30 -24.2605 9.25475)
(-2.2528e-30 -25.4373 9.14046)
(-3.4871e-30 -26.4053 8.90792)
(-4.18526e-30 -27.2161 8.56486)
(-4.16966e-30 -27.867 8.10016)
(-3.68215e-30 -28.1991 7.50855)
(-2.95886e-30 -28.0564 6.83144)
(-2.06367e-30 -27.3873 6.13456)
(-1.12751e-30 -26.1869 5.45281)
(-4.44134e-31 -24.5731 4.8461)
(-1.30741e-31 -22.7888 4.33036)
(-3.80173e-32 -20.9414 3.87425)
(-2.10645e-32 -19.1603 3.47417)
(-1.3244e-32 -17.483 3.06953)
(-7.95339e-33 -15.7912 2.63801)
(-4.5421e-33 -14.062 2.14784)
(-2.39087e-33 -12.1441 1.57139)
(-1.09453e-32 -10.2059 0.958663)
(-1.05221e-30 -8.60204 0.532929)
(1.75542e-29 -1.75685 0.0754043)
(1.8666e-26 8.91307 -0.146518)
(1.23257e-25 9.02335 -0.659539)
(-3.04117e-25 11.2195 0.112739)
(-1.23515e-23 13.304 1.11557)
(-8.70062e-23 14.7108 1.19686)
(-4.31509e-22 18.9518 -1.92605)
(-1.67615e-21 16.3896 1.87254)
(-3.80947e-21 13.1328 4.3367)
(-5.6991e-21 11.7314 -1.38717)
(2.81053e-20 21.2299 -5.42014)
(2.33023e-19 18.9044 -0.197111)
(2.63099e-19 4.00272 5.28562)
(-3.62403e-20 -14.9385 -0.557309)
(-8.94912e-20 8.86393 -8.79481)
(-2.58186e-17 29.5676 -14.8055)
(-5.15637e-17 30.265 -13.0695)
(-5.61724e-17 13.013 -10.0224)
(-2.91091e-17 -9.63084 -10.6356)
(-6.27813e-18 -23.487 -10.7118)
(-1.69281e-18 -35.9843 -12.7059)
(-1.31703e-18 -48.5601 -14.5634)
(-1.40422e-18 -59.8225 -17.0442)
(-1.52445e-18 -68.9863 -17.5045)
(-9.82902e-19 -82.1371 -18.6333)
(-4.16922e-19 -97.6865 -23.609)
(-1.07641e-19 -106.911 -29.0125)
(3.01175e-20 -100.111 -32.1466)
(6.72982e-20 -70.9348 -31.0033)
(5.63044e-20 -31.4598 -26.4252)
(1.91429e-20 -18.0219 -17.1472)
(1.60517e-22 -33.3463 -11.9471)
(-5.526e-22 -39.3004 -11.284)
(-5.27386e-23 -35.925 -11.033)
(6.2931e-24 -32.0832 -11.0038)
(-4.42651e-24 -29.393 -11.0349)
(4.17919e-22 -27.5184 -11.2129)
(-1.99356e-20 -27.9679 -10.4462)
(5.61397e-19 -19.8373 -11.1578)
(-7.40482e-18 -11.7573 -3.08426)
(7.92638e-17 41.3233 1.74025)
(2.04198e-16 81.3223 -0.434519)
(-4.67801e-16 83.7675 -7.64266)
(-2.73769e-15 80.5625 -9.10218)
(-4.78988e-15 77.0391 -9.52746)
(-8.10121e-15 75.6456 -8.98792)
(-2.64536e-14 75.69 -8.74009)
(-5.61314e-14 75.782 -8.50911)
(-6.50873e-14 76.4352 -7.57268)
(-3.44354e-14 76.6054 -9.48667)
(1.83412e-26 4.42406 8.89411)
(-1.40894e-27 -3.76325 8.63651)
(-5.49443e-30 -6.4262 8.96021)
(-3.85372e-29 -10.1123 8.93496)
(-2.86134e-29 -13.1308 8.99206)
(-1.85556e-29 -15.8082 9.02542)
(-1.03215e-29 -18.0214 9.08671)
(-4.66315e-30 -19.911 9.14873)
(-1.70841e-30 -21.4964 9.22216)
(-8.41511e-31 -22.9285 9.29458)
(-1.18323e-30 -24.2353 9.29441)
(-2.30534e-30 -25.3543 9.17592)
(-3.52381e-30 -26.2672 8.9376)
(-4.19439e-30 -27.0261 8.58842)
(-4.15944e-30 -27.6239 8.11842)
(-3.66368e-30 -27.9054 7.52307)
(-2.93602e-30 -27.7217 6.84358)
(-2.03919e-30 -27.021 6.1437)
(-1.10829e-30 -25.7986 5.45834)
(-4.34156e-31 -24.1728 4.84738)
(-1.27281e-31 -22.3769 4.32666)
(-3.72455e-32 -20.5162 3.86631)
(-2.0856e-32 -18.7167 3.46232)
(-1.31254e-32 -17.0122 3.05449)
(-7.88098e-33 -15.2854 2.61808)
(-4.50768e-33 -13.5159 2.11687)
(-2.86999e-33 -11.5733 1.51335)
(-3.89463e-32 -9.68771 0.852592)
(-1.88415e-30 -8.12702 0.399741)
(6.25926e-29 -0.74221 -0.268192)
(4.14449e-26 7.09974 0.105229)
(2.71418e-25 8.41964 -0.184223)
(-6.12952e-25 10.7492 0.960706)
(-2.55011e-23 13.098 1.76698)
(-1.82383e-22 15.0332 2.95226)
(-9.09444e-22 18.9542 -1.20873)
(-3.47873e-21 15.6828 2.59978)
(-7.89861e-21 8.91781 5.19665)
(-1.04818e-20 11.6009 -0.462547)
(4.92573e-20 20.9874 -5.16502)
(4.42595e-19 17.3405 1.34687)
(6.68027e-19 1.21141 8.46392)
(-3.31923e-20 -12.9117 -0.354695)
(-3.94151e-18 11.2171 -10.6764)
(-3.91713e-17 30.0991 -16.3097)
(-6.87075e-17 29.4442 -13.2333)
(-6.80007e-17 12.7405 -9.7974)
(-3.45102e-17 -10.498 -12.0322)
(-7.7693e-18 -24.8437 -11.9673)
(-1.69494e-18 -37.1459 -13.2952)
(-1.28043e-18 -49.6181 -14.8746)
(-1.39624e-18 -60.9084 -17.1043)
(-1.52551e-18 -69.9823 -17.4988)
(-1.00222e-18 -82.4165 -18.4962)
(-4.30955e-19 -97.2528 -23.272)
(-1.13782e-19 -106.45 -28.6023)
(2.77692e-20 -100.246 -31.8063)
(6.72623e-20 -71.9449 -30.7935)
(5.76859e-20 -33.2767 -26.4443)
(2.04266e-20 -19.7988 -17.3177)
(3.89684e-22 -33.7622 -11.9375)
(-6.2629e-22 -39.2488 -11.3098)
(-6.86348e-23 -35.8352 -11.0604)
(7.55438e-24 -31.9437 -11.04)
(-6.47718e-24 -29.2141 -11.1182)
(5.64707e-22 -27.4413 -11.3677)
(-2.44797e-20 -27.8789 -10.8008)
(6.15022e-19 -20.9742 -11.5867)
(-8.01641e-18 -13.5963 -3.52518)
(8.98453e-17 41.0506 1.474)
(1.98778e-16 82.8021 0.87846)
(-6.5252e-16 85.0796 -6.92979)
(-3.26256e-15 80.8396 -8.26977)
(-5.6304e-15 77.0034 -8.8389)
(-9.68696e-15 75.5135 -8.36769)
(-2.90711e-14 75.6024 -8.31044)
(-5.74482e-14 75.5898 -8.19308)
(-6.41297e-14 76.3855 -7.44205)
(-3.382e-14 76.2991 -8.12447)
(3.38011e-26 4.48627 8.70112)
(-2.45765e-27 -3.77625 8.23924)
(3.80111e-29 -6.43012 8.77945)
(-3.63018e-29 -10.0808 8.77191)
(-2.79349e-29 -13.0967 8.88481)
(-1.78225e-29 -15.7757 8.97572)
(-9.83083e-30 -17.9953 9.08097)
(-4.40704e-30 -19.8932 9.17368)
(-1.6132e-30 -21.4879 9.26897)
(-8.35172e-31 -22.9204 9.35156)
(-1.23158e-30 -24.2144 9.35341)
(-2.37073e-30 -25.3154 9.23182)
(-3.56845e-30 -26.2107 8.98758)
(-4.2048e-30 -26.951 8.63108)
(-4.14628e-30 -27.5281 8.15349)
(-3.64053e-30 -27.7934 7.55143)
(-2.9076e-30 -27.6061 6.86645)
(-2.00901e-30 -26.9138 6.16043)
(-1.08486e-30 -25.7114 5.46858)
(-4.22126e-31 -24.1145 4.85095)
(-1.23159e-31 -22.3457 4.32317)
(-3.63367e-32 -20.5079 3.85677)
(-2.06094e-32 -18.7234 3.44718)
(-1.29846e-32 -17.0243 3.0346)
(-7.79565e-33 -15.2969 2.59173)
(-4.47238e-33 -13.5203 2.07851)
(-3.57126e-33 -11.5734 1.44675)
(-6.83954e-32 -9.71026 0.727821)
(-7.4853e-31 -8.17305 0.24087)
(2.03409e-28 -1.03553 -0.323688)
(9.06149e-26 6.91162 0.615592)
(5.76828e-25 8.33785 0.397902)
(-9.29749e-25 10.7119 1.46533)
(-4.71441e-23 13.0229 1.84305)
(-3.51307e-22 15.2574 3.87296)
(-1.75168e-21 18.9781 -0.676621)
(-6.60805e-21 15.3211 3.39473)
(-1.4882e-20 11.1682 5.66182)
(-1.79704e-20 12.8472 0.604451)
(6.56641e-20 20.8518 -4.44297)
(7.20572e-19 16.2824 3.5084)
(1.40421e-18 2.56186 9.25432)
(-2.7375e-20 -10.718 -0.211545)
(-9.19561e-18 12.6862 -11.8879)
(-5.16769e-17 30.1658 -16.699)
(-8.18748e-17 28.8017 -12.7826)
(-7.48131e-17 12.7257 -9.46709)
(-3.94268e-17 -10.0126 -12.8092)
(-9.92147e-18 -24.3712 -13.8569)
(-1.83255e-18 -36.4334 -14.3842)
(-1.225e-18 -48.8278 -15.4232)
(-1.38196e-18 -60.2942 -17.285)
(-1.52645e-18 -69.5461 -17.5227)
(-1.0262e-18 -81.5367 -18.2655)
(-4.48901e-19 -95.9057 -22.7786)
(-1.21667e-19 -105.315 -28.0189)
(2.47851e-20 -99.8536 -31.291)
(6.71367e-20 -72.3946 -30.4364)
(5.93643e-20 -34.61 -26.5388)
(2.2059e-20 -21.4139 -17.7586)
(6.67952e-22 -34.5757 -11.9324)
(-7.14213e-22 -39.4302 -11.2802)
(-9.03087e-23 -35.9286 -11.0816)
(9.02486e-24 -32.0078 -11.107)
(-1.02354e-23 -29.2464 -11.2626)
(7.99979e-22 -27.5381 -11.6192)
(-3.13037e-20 -27.8416 -11.328)
(7.10766e-19 -21.6967 -12.2393)
(-9.38534e-18 -14.8623 -4.67339)
(9.27701e-17 40.2613 0.685281)
(1.90799e-16 83.4106 1.46211)
(-7.83332e-16 85.8206 -6.56017)
(-3.60557e-15 81.0169 -7.88404)
(-6.19826e-15 77.0396 -8.54933)
(-1.07839e-14 75.5087 -8.0988)
(-3.05516e-14 75.6265 -8.12168)
(-5.75826e-14 75.5624 -8.02855)
(-6.27711e-14 76.3805 -7.37652)
(-3.32428e-14 75.9806 -7.64578)
(6.19482e-26 4.64402 8.39665)
(-4.08799e-27 -3.80723 7.65091)
(7.03445e-29 -6.47144 8.4736)
(-3.06493e-29 -10.0716 8.56093)
(-2.72349e-29 -13.0809 8.74189)
(-1.71681e-29 -15.7586 8.89794)
(-9.32185e-30 -17.9787 9.06117)
(-4.13806e-30 -19.8795 9.19613)
(-1.51877e-30 -21.4787 9.32104)
(-8.32873e-31 -22.9091 9.41864)
(-1.28479e-30 -24.1911 9.42571)
(-2.43977e-30 -25.2766 9.3029)
(-3.61428e-30 -26.1574 9.05356)
(-4.21456e-30 -26.8829 8.68938)
(-4.13179e-30 -27.4439 8.20271)
(-3.61583e-30 -27.6972 7.59188)
(-2.87751e-30 -27.5086 6.89917)
(-1.97743e-30 -26.8245 6.18494)
(-1.06066e-30 -25.6395 5.48495)
(-4.09863e-31 -24.0667 4.85943)
(-1.19015e-31 -22.3196 4.32354)
(-3.5435e-32 -20.4994 3.85017)
(-2.03632e-32 -18.725 3.43411)
(-1.28431e-32 -17.0268 3.01624)
(-7.71055e-33 -15.2927 2.56714)
(-4.44575e-33 -13.4986 2.04457)
(-4.5786e-33 -11.5249 1.39054)
(-1.00839e-31 -9.64773 0.604501)
(2.38832e-30 -8.14034 0.0592366)
(8.87327e-28 -1.23425 -0.381964)
(1.91103e-25 7.08327 0.951084)
(1.18105e-24 8.47491 0.802765)
(-1.07481e-24 10.5272 1.81874)
(-8.40966e-23 12.7186 1.78187)
(-6.62903e-22 15.3267 4.53447)
(-3.33839e-21 19.017 0.0517782)
(-1.24011e-20 14.8087 4.31944)
(-2.7427e-20 11.2928 6.32951)
(-3.3404e-20 13.7613 1.64724)
(7.03416e-20 20.5032 -3.46578)
(1.10472e-18 15.0922 6.07086)
(2.51128e-18 3.58597 10.3153)
(-3.75648e-21 -8.09044 -0.191725)
(-1.69829e-17 14.417 -13.0481)
(-6.7999e-17 30.1701 -16.9434)
(-9.79533e-17 28.0169 -12.2056)
(-8.34936e-17 12.7164 -9.15045)
(-4.39356e-17 -9.36877 -13.1772)
(-1.22783e-17 -23.9249 -15.9268)
(-2.19152e-18 -35.9451 -16.0633)
(-1.17075e-18 -48.2114 -16.224)
(-1.35845e-18 -59.7355 -17.5588)
(-1.52638e-18 -69.1084 -17.5852)
(-1.0514e-18 -80.7632 -18.0012)
(-4.68415e-19 -94.7798 -22.206)
(-1.30267e-19 -104.357 -27.3069)
(2.15824e-20 -99.5155 -30.6014)
(6.68916e-20 -72.7456 -29.894)
(6.10477e-20 -35.717 -26.6588)
(2.35999e-20 -22.816 -18.3237)
(9.43647e-22 -35.2308 -11.9323)
(-7.9988e-22 -39.5239 -11.2027)
(-1.14864e-22 -35.9474 -11.097)
(1.03406e-23 -31.9931 -11.2062)
(-1.64427e-23 -29.1954 -11.4651)
(1.14056e-21 -27.5337 -11.9627)
(-4.04375e-20 -27.7399 -11.9742)
(8.42273e-19 -22.2988 -13.0674)
(-1.08395e-17 -15.9158 -6.64793)
(9.51443e-17 39.3976 -0.329414)
(1.82454e-16 84.2545 1.90516)
(-9.36261e-16 86.7938 -6.22107)
(-4.01003e-15 81.241 -7.51967)
(-6.87183e-15 77.0492 -8.24465)
(-1.21167e-14 75.457 -7.79662)
(-3.23953e-14 75.6081 -7.89918)
(-5.78678e-14 75.4773 -7.81583)
(-6.11914e-14 76.3841 -7.3132)
(-3.25054e-14 75.6321 -8.73388)
(1.11483e-25 4.84072 8.02878)
(-6.51644e-27 -3.87597 6.91414)
(6.7267e-29 -6.59039 7.9996)
(-2.12198e-29 -10.1374 8.26882)
(-2.5881e-29 -13.1402 8.56271)
(-1.66181e-29 -15.818 8.79298)
(-8.86187e-30 -18.0342 9.0237)
(-3.86678e-30 -19.9286 9.21331)
(-1.42535e-30 -21.5203 9.37822)
(-8.35552e-31 -22.9364 9.49697)
(-1.34193e-30 -24.1941 9.5132)
(-2.51044e-30 -25.252 9.39187)
(-3.65977e-30 -26.1067 9.13887)
(-4.22322e-30 -26.807 8.76704)
(-4.11626e-30 -27.342 8.27029)
(-3.59019e-30 -27.5734 7.64913)
(-2.84655e-30 -27.3726 6.9468)
(-1.94534e-30 -26.6855 6.22235)
(-1.03641e-30 -25.5067 5.51228)
(-3.97735e-31 -23.9472 4.87704)
(-1.14975e-31 -22.2123 4.33122)
(-3.45682e-32 -20.4014 3.84912)
(-2.01243e-32 -18.6302 3.42501)
(-1.27049e-32 -16.9268 3.00071)
(-7.62813e-33 -15.1799 2.54478)
(-4.4323e-33 -13.3627 2.01409)
(-5.95518e-33 -11.3571 1.34191)
(-1.07111e-31 -9.47077 0.483492)
(7.48243e-30 -8.00094 -0.149776)
(2.24146e-27 -1.30015 -0.53026)
(3.8257e-25 6.94912 1.13968)
(2.3537e-24 8.3623 1.19355)
(-6.69137e-25 10.3906 2.17943)
(-1.45152e-22 12.4549 1.60917)
(-1.22302e-21 15.337 4.79799)
(-6.27405e-21 18.9998 0.843073)
(-2.28951e-20 14.3029 5.29709)
(-5.00252e-20 11.5034 7.09417)
(-6.93141e-20 14.5205 2.61774)
(2.65569e-20 20.0111 -2.01987)
(1.48789e-18 13.9682 8.6705)
(3.90165e-18 4.12771 11.0688)
(5.27462e-20 -4.98142 -0.283641)
(-2.80094e-17 16.0588 -13.963)
(-8.78029e-17 29.9703 -16.7589)
(-1.15637e-16 27.2155 -11.4357)
(-9.48893e-17 12.83 -8.89109)
(-4.951e-17 -8.55364 -13.7593)
(-1.48575e-17 -23.6616 -18.0576)
(-2.81596e-18 -36.0237 -18.4806)
(-1.14809e-18 -48.2341 -17.5008)
(-1.32252e-18 -59.7113 -17.9607)
(-1.52357e-18 -69.1313 -17.69)
(-1.07707e-18 -80.3895 -17.7217)
(-4.89003e-19 -93.9584 -21.5634)
(-1.39342e-19 -103.591 -26.4655)
(1.82811e-20 -99.2921 -29.7216)
(6.6581e-20 -73.1293 -29.1288)
(6.23004e-20 -36.8049 -26.604)
(2.43972e-20 -24.3307 -18.6902)
(1.13134e-21 -35.9419 -11.8581)
(-8.65952e-22 -39.5915 -11.066)
(-1.38192e-22 -35.9263 -11.1025)
(1.11915e-23 -31.9349 -11.332)
(-2.63501e-23 -29.0897 -11.722)
(1.62719e-21 -27.4606 -12.396)
(-5.25349e-20 -27.5707 -12.7229)
(1.00623e-18 -22.8385 -14.0704)
(-1.21014e-17 -17.0101 -9.1167)
(9.55526e-17 38.1235 -1.65674)
(1.72949e-16 84.8504 2.06997)
(-1.09623e-15 87.6839 -5.97722)
(-4.42555e-15 81.4563 -7.26902)
(-7.57874e-15 77.0753 -8.02344)
(-1.35591e-14 75.4348 -7.55484)
(-3.42694e-14 75.6178 -7.7083)
(-5.79079e-14 75.4365 -7.59911)
(-5.92122e-14 76.4231 -7.23739)
(-3.15507e-14 75.2977 -7.46701)
(1.96582e-25 5.11908 7.61278)
(-9.90178e-27 -3.92859 6.06951)
(-2.16259e-29 -6.74196 7.35522)
(-9.18709e-30 -10.229 7.85878)
(-2.31601e-29 -13.2126 8.33235)
(-1.59398e-29 -15.8847 8.66337)
(-8.48463e-30 -18.0948 8.96957)
(-3.61637e-30 -19.9806 9.22207)
(-1.33159e-30 -21.5614 9.43758)
(-8.422e-31 -22.9595 9.58559)
(-1.40328e-30 -24.1899 9.61597)
(-2.58253e-30 -25.2179 9.49933)
(-3.7046e-30 -26.0447 9.2446)
(-4.23065e-30 -26.7183 8.86562)
(-4.09966e-30 -27.2261 8.35815)
(-3.56361e-30 -27.4348 7.72537)
(-2.81475e-30 -27.2214 7.01159)
(-1.91278e-30 -26.5313 6.27479)
(-1.01214e-30 -25.3593 5.55245)
(-3.85765e-31 -23.8144 4.90535)
(-1.11046e-31 -22.0932 4.3475)
(-3.3737e-32 -20.2934 3.8547)
(-1.98931e-32 -18.527 3.42081)
(-1.25701e-32 -16.82 2.98867)
(-7.54849e-33 -15.0615 2.52484)
(-4.43518e-33 -13.2229 1.98598)
(-7.52732e-33 -11.1855 1.29756)
(-1.98767e-32 -9.29028 0.367482)
(1.51531e-29 -7.86506 -0.379779)
(4.08299e-27 -1.49172 -0.734134)
(7.35726e-25 6.67906 1.28357)
(4.57957e-24 8.25414 1.63447)
(9.84617e-25 10.369 2.5582)
(-2.4545e-22 12.2277 1.57179)
(-2.21273e-21 15.3638 4.7392)
(-1.16123e-20 18.8668 1.66939)
(-4.15931e-20 13.7851 6.29694)
(-9.1127e-20 11.7595 7.69037)
(-1.52497e-19 15.5406 3.71885)
(-1.63766e-19 19.3622 -0.0691209)
(1.52994e-18 12.951 10.9551)
(5.04462e-18 4.97636 11.0884)
(2.35275e-19 -1.3936 -0.550565)
(-4.31228e-17 17.5991 -14.5535)
(-1.11332e-16 29.6262 -16.1851)
(-1.35123e-16 26.4308 -10.6005)
(-1.07101e-16 13.0814 -8.72643)
(-5.56166e-17 -7.51522 -14.5907)
(-1.76504e-17 -23.2285 -20.2424)
(-3.72519e-18 -36.1871 -21.5572)
(-1.19861e-18 -48.5128 -19.5442)
(-1.27632e-18 -59.8701 -18.593)
(-1.51531e-18 -69.2736 -17.8359)
(-1.1028e-18 -80.11 -17.4372)
(-5.1064e-19 -93.1675 -20.8498)
(-1.4886e-19 -102.816 -25.5037)
(1.49169e-20 -99.042 -28.655)
(6.63489e-20 -73.4235 -28.1606)
(6.25134e-20 -37.7741 -26.083)
(2.38059e-20 -25.8437 -18.496)
(1.12276e-21 -36.7226 -11.6149)
(-8.92616e-22 -39.6597 -10.8544)
(-1.53867e-22 -35.8864 -11.0918)
(1.14011e-23 -31.8614 -11.4772)