/*--------------------------------*- C++ -*----------------------------------*\
| =========                 |                                                 |
| \\      /  F ield         | OpenFOAM: The Open Source CFD Toolbox           |
|  \\    /   O peration     | Version:  4.1                                   |
|   \\  /    A nd           | Web:      www.OpenFOAM.org                      |
|    \\/     M anipulation  |                                                 |
\*---------------------------------------------------------------------------*/
FoamFile
{
    version     2.0;
    format      ascii;
    class       volScalarField;
    location    "25";
    object      p;
}
// * * * * * * * * * * * * * * * * * * * * * * * * * * * * * * * * * * * * * //

dimensions      [0 2 -2 0 0 0 0];

internalField   nonuniform List<scalar> 
6785
(
536.54
483.143
431.311
382.9
338.009
295.992
256.637
219.634
184.539
151.175
120.234
92.095
63.0662
28.1475
-1.0045
70.1056
47.8446
42.086
38.3758
32.9017
27.1943
22.0414
17.6527
14.1688
11.7101
10.5188
11.0205
13.1169
14.9884
15.2486
-32.6758
-39.3189
-33.5519
-29.4051
-26.3145
-22.7191
-18.8328
-14.8954
-10.991
-7.27518
-3.92963
-0.862505
2.21434
4.86719
6.10149
13.4599
11.0418
15.6344
15.9584
16.0119
16.227
16.1378
15.7604
15.1787
14.4194
13.4625
12.3531
11.4427
11.2905
11.6011
29.8942
27.5609
29.1142
27.0158
25.5964
24.3524
22.9419
21.5595
20.3015
19.21
18.3086
17.5957
17.1179
17.0852
17.3302
20.68
18.6551
19.6269
18.4061
18.2011
18.1837
18.0944
18.1261
18.2803
18.5226
18.8408
19.2028
19.5219
19.7785
19.9533
17.2391
16.0797
17.159
16.8315
17.2128
17.6026
17.8974
18.244
18.5969
18.9184
19.2052
19.4566
19.6331
19.7131
19.7284
18.9674
18.4035
19.2432
19.003
19.1888
19.2913
19.3054
19.3416
19.358
19.3459
19.3156
19.2823
19.2445
19.1962
19.1463
19.3771
19.0415
19.5205
19.2182
19.2337
19.1814
19.0856
19.0192
18.9465
18.8706
18.7978
18.733
18.6772
18.6249
18.5695
18.1716
17.951
18.2371
18.0068
18.0275
17.9956
17.9433
17.9152
17.8804
17.8447
17.8095
17.7727
17.7331
17.6861
17.6201
17.1203
16.9739
17.1582
16.9983
17.0173
16.9822
16.9315
16.8936
16.8446
16.7916
16.7362
16.6771
16.615
16.5489
16.4615
16.2099
16.1473
16.2421
16.0604
16.0082
15.9166
15.8191
15.7284
15.6281
15.5264
15.4239
15.3213
15.2233
15.135
15.0309
17.1653
17.0295
16.8525
16.4535
16.1707
15.8521
15.5223
15.2055
14.8972
14.6084
14.3414
14.0997
13.8909
13.7274
13.5776
14.6766
15.1281
15.4716
15.2626
14.8622
14.3902
13.9486
13.5434
13.1485
12.7554
12.3647
11.9784
11.6048
11.2638
10.9297
31.8753
31.4681
30.6195
28.0085
24.4008
20.7964
17.4753
14.515
11.8356
9.5536
7.6009
5.9731
4.68297
3.72615
2.92459
30.161
29.0513
29.735
28.7142
27.9842
26.3428
26.6835
25.0294
23.8429
22.3661
22.7072
20.2624
17.4802
18.7869
16.6159
14.8524
14.5798
15.9607
12.6947
10.6951
13.5684
11.3714
9.49842
10.7245
13.5874
10.8042
8.91684
10.752
14.2506
11.2901
10.079
14.3589
12.8612
11.2441
12.4534
16.0627
14.0014
13.045
16.8486
15.9697
14.8766
15.7436
18.7305
17.7497
16.9137
17.7588
20.3681
19.5873
19.0331
21.1245
20.9252
20.5902
20.9699
22.5735
22.3663
22.1686
22.5561
24.2084
24.2128
24.0829
25.7592
25.9542
25.7837
25.631
26.5781
26.6576
26.4091
26.6109
26.3706
26.8637
27.0984
24.3454
23.4734
23.7453
20.9006
15.6808
17.8274
11.3634
-5.56619
0.324255
4.52874
5.073
5.9305
1.70623
4.77544
8.40747
9.42781
9.83582
9.88704
10.6142
12.5384
14.2189
15.7298
10.5513
11.2795
13.2068
14.7554
14.9764
15.2672
15.4052
15.8655
19.5699
16.4898
16.76
16.6907
17.3671
18.6649
19.3996
19.4081
19.0202
18.6498
23.4526
21.5454
21.3761
20.7947
20.4159
21.218
22.1118
21.2652
19.6295
22.6113
24.0098
24.5903
24.4188
23.3911
22.4555
21.5845
20.811
20.0053
26.1536
25.5458
23.4532
22.6009
21.7422
20.4066
18.4837
15.5912
13.5955
19.3798
21.6804
18.8202
16.6767
13.8265
10.3203
7.75964
5.9825
4.11998
3.60338
3.45106
7.209
5.38428
5.09846
4.5555
2.61875
-0.286068
-0.962183
0.225617
-3.8991
3.50913
2.87421
2.24106
4.13667
4.58576
5.34367
5.8875
6.45039
6.84772
7.02476
7.26107
7.36368
7.49796
7.614
7.5574
7.61112
7.52333
7.58215
7.53462
7.33617
7.3247
7.19067
7.34147
7.09018
6.59089
6.83876
6.54745
6.06627
5.97386
5.78621
6.26546
5.70309
4.98859
4.88486
4.72463
5.40757
4.81362
3.84343
4.6055
4.15422
3.43116
3.39205
3.30528
4.34967
3.59043
2.64884
2.6008
2.53385
3.69177
2.97577
1.76751
2.92218
2.41174
1.5587
1.57332
1.56111
2.99278
2.14974
1.09315
1.08546
1.06246
2.53182
1.75469
0.412626
1.82067
1.2447
0.283948
0.284979
0.265394
1.93916
1.04691
-0.0650525
-0.0848317
-0.129568
1.53
0.705235
-0.712528
0.864089
0.191116
-0.8638
-0.993519
-0.927627
-0.00133374
-0.0139971
-0.0263718
-0.0407169
-0.0569485
-0.0723481
-0.0817613
-0.0744793
-0.0451708
0.0816054
0.0701999
0.0208984
0.0164645
0.0168639
0.00859433
0.00879452
-0.0109402
-0.0191043
-0.00660225
-0.015446
-0.00387618
0.00942288
0.0220061
0.031447
0.0201719
0.0155696
0.0160478
0.0192005
0.0399025
0.0394816
0.0623504
0.108415
-0.307583
-0.235324
-0.210719
-0.131347
-0.0740252
-0.0258486
0.0233951
0.0217046
0.0596465
0.0320879
0.0478404
0.0155726
0.0298333
0.0462551
0.0420358
0.0444823
0.0529639
0.0453771
0.0198118
0.0301462
0.0472592
0.132138
0.412989
0.704244
1.12701
0.501305
0.201344
0.134243
0.0584707
0.0169959
-0.0595018
-0.114274
-0.124086
-0.145885
-0.100735
-0.066797
-0.0765393
-0.0865512
-0.0985642
-0.0396334
0.123002
0.200709
0.249019
0.367008
0.246065
0.0888272
0.059109
0.000710953
-0.0129696
-0.0255674
-0.0409032
-0.0592988
-0.0793042
-0.0944031
-0.0894205
-0.0532633
0.0975614
0.0744186
0.00705201
-0.00125262
0.0119695
0.00265198
-0.00036215
-0.0183355
-0.0271382
-0.0120965
-0.015672
-0.00284388
0.00587307
0.0245528
0.0372415
0.0296694
0.0264662
0.0342754
0.0416128
0.0787223
0.0785252
0.129833
0.154311
-0.427237
-0.336539
-0.295916
-0.181739
-0.100582
-0.0342718
0.0373799
0.0456192
0.07273
0.045222
0.0773853
0.03314
0.0473443
0.0691473
0.0562935
0.0600822
0.0773033
0.07516
0.0572071
0.084469
0.115319
0.34121
0.789672
1.73168
1.8419
0.769966
0.519097
0.290159
0.141477
0.0454535
-0.0701244
-0.151065
-0.178246
-0.199991
-0.153482
-0.123534
-0.122364
-0.106639
-0.0956765
0.0227085
0.319242
0.475372
0.442447
0.579054
0.39398
0.141495
0.18525
-0.00241712
-0.0146568
-0.0252014
-0.0374772
-0.0516748
-0.0659736
-0.0744171
-0.0617082
-0.0224855
0.107107
0.0756325
0.00792719
-0.0138426
0.00126087
-0.00481288
-0.00660148
-0.0224722
-0.0314781
-0.016828
-0.0194526
-0.00654409
0.00283985
0.026111
0.0394209
0.0310961
0.0311904
0.0441065
0.0626305
0.110723
0.123282
0.182339
0.235052
-0.269279
-0.230451
-0.220462
-0.127512
-0.0626193
-0.00946824
0.0540432
0.0578786
0.0592818
0.0349047
0.0728814
0.0366631
0.0456297
0.0645751
0.058525
0.0704407
0.0909841
0.0971036
0.0964708
0.137583
0.196838
0.591275
1.14107
2.26883
2.03787
0.922043
0.798627
0.430946
0.227699
0.0771154
-0.0630872
-0.163385
-0.209346
-0.233779
-0.190958
-0.178055
-0.154892
-0.0936482
-0.0646639
0.0592326
0.366253
0.515448
0.470393
0.647142
0.430209
0.187287
0.319301
-0.00503592
-0.0153726
-0.0246629
-0.0345915
-0.0454639
-0.0543406
-0.0556235
-0.0344764
0.0025899
0.110699
0.0819338
0.0265841
-0.00282742
0.00284239
-0.00522982
-0.00816213
-0.0241593
-0.0329491
-0.0176744
-0.0192509
-0.00455545
0.0082883
0.0340381
0.0465296
0.0406736
0.0449576
0.0613186
0.0858993
0.140682
0.163794
0.233676
0.30904
-0.105127
-0.100519
-0.121828
-0.0561695
-0.0139521
0.0212752
0.0711822
0.0725502
0.0583533
0.033059
0.0725279
0.04389
0.0499568
0.0637454
0.0634801
0.0816402
0.105734
0.119376
0.133012
0.186322
0.275885
0.827224
1.50074
2.68279
2.16558
1.08115
1.01532
0.568754
0.314657
0.114861
-0.0485826
-0.163868
-0.224368
-0.251624
-0.215182
-0.212984
-0.173734
-0.0817702
-0.0364869
0.0870109
0.382642
0.515581
0.486036
0.703706
0.492015
0.269505
0.430409
-0.00534808
-0.0122362
-0.0192089
-0.0258178
-0.0329342
-0.0374013
-0.0345493
-0.00961034
0.0202185
0.111333
0.0902885
0.0476163
0.0180175
0.0124222
-0.00197766
-0.008348
-0.0255926
-0.0343948
-0.0187443
-0.0179718
-0.000275012
0.0128482
0.0404129
0.0534087
0.0513598
0.0593105
0.0797325
0.108469
0.168109
0.200174
0.278031
0.348321
-0.0312263
-0.0215133
-0.0534317
-0.000783338
0.0261083
0.0473952
0.0838011
0.0843767
0.0636714
0.0361015
0.0744793
0.0506439
0.0546922
0.0665179
0.0690221
0.0911287
0.11959
0.139055
0.165135
0.229538
0.356984
1.06134
1.85316
3.07623
2.32409
1.21951
1.19195
0.695035
0.396166
0.152206
-0.0337368
-0.163222
-0.23337
-0.262357
-0.230916
-0.23991
-0.194956
-0.0802045
-0.0189602
0.109486
0.386763
0.509885
0.495023
0.733564
0.562565
0.348624
0.568693
-0.00439763
-0.00717897
-0.0109144
-0.013353
-0.0160281
-0.0162759
-0.0107788
0.015789
0.0387938
0.114864
0.0999991
0.0674815
0.0386592
0.0225978
0.00203224
-0.00762371
-0.0258053
-0.0353755
-0.0202274
-0.0165548
0.0038191
0.0155728
0.0456345
0.0597598
0.0606168
0.0719854
0.0972114
0.130439
0.193671
0.233031
0.314203
0.369968
0.00409112
0.0326503
-0.00137882
0.0456726
0.0615023
0.0716345
0.095092
0.0943653
0.0707261
0.0413722
0.0765523
0.0556495
0.0580845
0.071302
0.0757956
0.100221
0.133686
0.158812
0.195698
0.272035
0.44495
1.29362
2.18599
3.45122
2.48562
1.33337
1.3392
0.808945
0.471433
0.187565
-0.020777
-0.164794
-0.242847
-0.272552
-0.248746
-0.266138
-0.219119
-0.0840247
-0.00905095
0.123775
0.378361
0.497218
0.500666
0.745281
0.621526
0.430019
0.667547
-0.00316747
-0.00227342
-0.00299409
-0.00172434
-0.000533166
0.00276929
0.0104797
0.0391083
0.0588371
0.121579
0.11057
0.0860765
0.0556771
0.0304511
0.0047455
-0.007794
-0.0262413
-0.0366752
-0.0226221
-0.0156474
0.00603137
0.0174943
0.0504393
0.0657768
0.0689437
0.0841968
0.114
0.151615
0.217103
0.263314
0.34406
0.393079
0.0510351
0.0930487
0.0526139
0.0925802
0.0967923
0.0962209
0.1072
0.103748
0.0777161
0.0463836
0.0780747
0.0593108
0.0597876
0.0755949
0.0830552
0.108592
0.146194
0.176538
0.222238
0.31197
0.539264
1.52292
2.49246
3.79476
2.63256
1.42696
1.46294
0.908215
0.539231
0.219551
-0.00986907
-0.168604
-0.253688
-0.283347
-0.267963
-0.293209
-0.24517
-0.0897795
-0.00297769
0.132085
0.365508
0.481573
0.507933
0.753585
0.66639
0.513085
0.778337
-0.0021051
0.00168272
0.00328731
0.00729221
0.0112652
0.0172371
0.0270389
0.0585798
0.0778332
0.129614
0.121114
0.103955
0.0708913
0.0380835
0.00788759
-0.00819302
-0.0270034
-0.038305
-0.025105
-0.0149132
0.00703213
0.0204903
0.0559506
0.0725553
0.0778566
0.0971718
0.130843
0.172356
0.238495
0.291244
0.369804
0.419991
0.115799
0.165046
0.112942
0.142765
0.133773
0.122164
0.121204
0.113908
0.0858159
0.0518877
0.080501
0.0637041
0.0618238
0.0797263
0.0915025
0.118348
0.158856
0.193893
0.248999
0.355073
0.646457
1.75385
2.77747
4.11008
2.76916
1.50755
1.57024
0.997429
0.599318
0.247842
-0.00118372
-0.17533
-0.268406
-0.29821
-0.289823
-0.322815
-0.272962
-0.0962463
0.00124739
0.136565
0.353281
0.468391
0.513406
0.760658
0.703393
0.592665
0.905777
-0.00126389
0.00484256
0.00830979
0.014408
0.0204766
0.0286323
0.040553
0.0752563
0.094758
0.1369
0.130283
0.120372
0.0849363
0.0464162
0.0121834
-0.00829775
-0.0285189
-0.0407819
-0.0279238
-0.0159495
0.00674645
0.0238923
0.0611463
0.0792738
0.0870859
0.110362
0.146874
0.191868
0.257141
0.316089
0.391112
0.444047
0.18358
0.239084
0.17473
0.193848
0.171276
0.148514
0.136132
0.124156
0.0944531
0.0582316
0.0836298
0.0684114
0.0641301
0.0836438
0.0997126
0.128553
0.170899
0.209801
0.274568
0.398997
0.765067
1.98334
3.03965
4.39545
2.89902
1.57621
1.66321
1.07835
0.651016
0.272353
0.00483776
-0.184304
-0.286206
-0.316673
-0.313343
-0.354025
-0.303022
-0.104534
0.00415031
0.138715
0.342468
0.456442
0.51107
0.764581
0.730055
0.67171
0.994353
-0.000534099
0.0075366
0.0127451
0.0207339
0.0287487
0.0390626
0.0532529
0.0910394
0.110799
0.14412
0.138507
0.135342
0.0985373
0.0562523
0.0181759
-0.00673711
-0.0294047
-0.0427571
-0.0309575
-0.0186805
0.00653461
0.0277347
0.0662556
0.0860628
0.0968984
0.123803
0.162128
0.210168
0.272855
0.33744
0.4065
0.461452
0.245698
0.30931
0.234857
0.244626
0.20917
0.175619
0.152484
0.135333
0.103933
0.0664619
0.0880105
0.0735614
0.0680368
0.0888818
0.108772
0.140315
0.18443
0.227227
0.302763
0.449738
0.901523
2.21501
3.28777
4.65327
3.02887
1.63418
1.7433
1.14895
0.694464
0.292721
0.00662869
-0.196375
-0.308193
-0.340088
-0.34096
-0.388397
-0.337376
-0.116425
0.00485766
0.13782
0.332382
0.444559
0.499752
0.765499
0.747927
0.75364
1.09214
0.00031393
0.0102413
0.0173024
0.0272212
0.037274
0.0498533
0.0664008
0.107057
0.127188
0.152039
0.146066
0.148648
0.111068
0.0661222
0.0243805
-0.00455283
-0.0301101
-0.0447324
-0.0355612
-0.0230179
0.00549756
0.0304828
0.0699361
0.0923711
0.10684
0.136861
0.175974
0.226422
0.285799
0.354812
0.414073
0.469531
0.300483
0.374253
0.292252
0.294401
0.247053
0.20324
0.169817
0.146957
0.113826
0.0760104
0.0932822
0.0781142
0.0732105
0.0948575
0.117572
0.151682
0.197643
0.244004
0.330889
0.506361
1.0531
2.44299
3.51949
4.87739
3.15676
1.68224
1.81279
1.2051
0.731001
0.308618
0.00407405
-0.211439
-0.332739
-0.367041
-0.371534
-0.425104
-0.376563
-0.133287
0.00259897
0.133603
0.324132
0.434509
0.484155
0.762216
0.76203
0.827938
1.20158
0.00138076
0.0130937
0.0221522
0.0340549
0.0462526
0.0611788
0.0801219
0.123553
0.144804
0.162047
0.153934
0.160895
0.122747
0.0757743
0.0307411
-0.00235649
-0.0310136
-0.0468192
-0.0410244
-0.0271957
0.00387832
0.0323844
0.0728942
0.0991412
0.117611
0.150057
0.188888
0.240917
0.297016
0.368869
0.417082
0.473645
0.351366
0.436527
0.348578
0.344276
0.285847
0.232343
0.189043
0.160025
0.124619
0.0869094
0.10009
0.0835688
0.0803813
0.102897
0.12778
0.163324
0.210795
0.261065
0.362566
0.577193
1.22344
2.66876
3.73675
5.06601
3.28414
1.72083
1.87006
1.24781
0.761448
0.318746
-0.00423975
-0.231686
-0.361671
-0.399235
-0.406847
-0.465641
-0.420664
-0.156517
-0.00474829
0.1245
0.318504
0.427116
0.470534
0.756487
0.779934
0.904996
1.29592
0.00271761
0.0161657
0.0273459
0.0412443
0.0556314
0.0729229
0.0942786
0.140422
0.163646
0.174188
0.162273
0.172124
0.133279
0.0846307
0.0364355
-0.00162615
-0.033325
-0.0503721
-0.0472241
-0.0322724
3.17558e-05
0.0320363
0.074891
0.106058
0.128812
0.162972
0.200554
0.253009
0.306346
0.379459
0.418538
0.477856
0.399874
0.497447
0.404768
0.394648
0.325626
0.262786
0.209784
0.174066
0.135743
0.0983838
0.107679
0.0901011
0.0882476
0.112128
0.138737
0.174208
0.221485
0.275496
0.395303
0.662096
1.40669
2.88688
3.93345
5.21157
3.4083
1.74773
1.91261
1.28203
0.787446
0.324581
-0.0171583
-0.256098
-0.394039
-0.435006
-0.445193
-0.50827
-0.468632
-0.188014
-0.0180225
0.112307
0.314121
0.420888
0.463965
0.751819
0.803337
0.977134
1.42006
0.00422799
0.0192486
0.0326087
0.0484699
0.0650784
0.0847826
0.108651
0.15754
0.183684
0.188718
0.171657
0.183168
0.143625
0.0936624
0.0429797
-0.000173938
-0.0356273
-0.054786
-0.0526916
-0.0381584
-0.00557396
0.0306087
0.0771463
0.113708
0.140533
0.175817
0.211767
0.26324
0.313485
0.388322
0.420918
0.483988
0.447887
0.558829
0.462279
0.446643
0.367309
0.29539
0.233028
0.190088
0.147907
0.111168
0.116815
0.0987146
0.0976237
0.123361
0.151942
0.186238
0.231863
0.2919
0.43498
0.766928
1.60286
3.09845
4.1115
5.31527
3.53091
1.76588
1.94105
1.31091
0.809426
0.326106
-0.0356686
-0.286283
-0.432022
-0.476168
-0.487968
-0.553928
-0.521518
-0.230079
-0.0381744
0.0980567
0.306285
0.412889
0.462064
0.747879
0.836132
1.05683
1.51008
0.00587351
0.0222874
0.0378739
0.0556634
0.0745251
0.0967106
0.123244
0.174866
0.204537
0.205091
0.182115
0.194021
0.153523
0.102474
0.0502696
0.00208014
-0.0378859
-0.0597828
-0.0589491
-0.0462311
-0.0133466
0.0279704
0.079074
0.120903
0.151332
0.187349
0.221824
0.271318
0.31867
0.396115
0.423081
0.490739
0.495041
0.620657
0.52131
0.500295
0.410757
0.329797
0.258335
0.207334
0.160785
0.124835
0.127185
0.108993
0.107824
0.134569
0.164754
0.197078
0.240355
0.310717
0.482727
0.888096
1.80254
3.29705
4.26586
5.37989
3.64949
1.78166
1.95491
1.3335
0.828154
0.325063
-0.0574651
-0.320475
-0.473997
-0.521357
-0.533287
-0.600065
-0.577702
-0.2835
-0.0644883
0.0830127
0.294418
0.403113
0.465141
0.742511
0.877323
1.14159
1.61716
0.00754721
0.0250983
0.0429233
0.0626057
0.083777
0.108555
0.137965
0.192347
0.226092
0.223386
0.19421
0.205207
0.163457
0.111812
0.0585022
0.00531168
-0.0391828
-0.0642044
-0.0660782
-0.0557717
-0.0220713
0.024929
0.0807448
0.127162
0.160888
0.197668
0.230976
0.278159
0.323938
0.404288
0.425155
0.499203
0.542553
0.684008
0.582744
0.556333
0.456658
0.366706
0.286645
0.226738
0.175227
0.140234
0.139663
0.122105
0.120728
0.147235
0.17679
0.205925
0.248705
0.335634
0.544083
1.02518
2.00142
3.48026
4.3991
5.41693
3.76481
1.7954
1.95606
1.34786
0.840837
0.319897
-0.0841729
-0.360345
-0.521727
-0.572304
-0.582607
-0.647479
-0.63812
-0.349242
-0.0957817
0.0681881
0.282123
0.392173
0.468822
0.737757
0.923191
1.22841
1.74536
0.00926014
0.0277248
0.0478056
0.0693453
0.0928632
0.12032
0.152816
0.209961
0.248057
0.243146
0.208044
0.216736
0.172942
0.120828
0.0660358
0.00746017
-0.0412593
-0.0690612
-0.0751039
-0.0673214
-0.0320745
0.0207624
0.0810108
0.131227
0.168116
0.205801
0.238489
0.283683
0.32932
0.411888
0.425619
0.507833
0.590155
0.748744
0.646468
0.614486
0.50463
0.405626
0.317193
0.248065
0.191229
0.156991
0.153864
0.137239
0.13617
0.161322
0.18688
0.211713
0.257417
0.365265
0.615557
1.16764
2.18966
3.64066
4.50975
5.43588
3.87359
1.80182
1.94748
1.35573
0.847494
0.311911
-0.113677
-0.403445
-0.572517
-0.626452
-0.633678
-0.694764
-0.702179
-0.425968
-0.129198
0.0560007
0.26891
0.382829
0.472187
0.735425
0.969795
1.32438
1.8459
0.0109523
0.0300752
0.0524
0.0757553
0.101656
0.131878
0.167686
0.227697
0.27048
0.264501
0.224104
0.229423
0.182614
0.129964
0.0728667
0.00852194
-0.0439937
-0.0741553
-0.0852518
-0.0799667
-0.04259
0.0157656
0.0798695
0.133196
0.173375
0.212314
0.245395
0.289242
0.334615
0.417945
0.42456
0.517738
0.639325
0.815933
0.713159
0.675328
0.555256
0.447267
0.350598
0.272425
0.209928
0.175795
0.170727
0.154889
0.154168
0.176432
0.19533
0.21754
0.272346
0.404636
0.697495
1.3094
2.36158
3.77416
4.60075
5.45332
3.97649
1.8017
1.93246
1.35777
0.846728
0.298967
-0.14755
-0.451397
-0.627806
-0.684275
-0.687087
-0.743113
-0.76857
-0.510771
-0.162879
0.0455363
0.251021
0.372451
0.472361
0.734985
1.01704
1.42898
1.96027
0.0126831
0.0322725
0.0568405
0.0819645
0.110253
0.143285
0.182612
0.245633
0.293323
0.287107
0.242221
0.243052
0.192076
0.138614
0.0790637
0.00922579
-0.0473383
-0.080744
-0.0972201
-0.0939525
-0.0542565
0.00922114
0.0765186
0.132389
0.176174
0.216614
0.251168
0.294887
0.339086
0.420463
0.420485
0.526954
0.689981
0.885438
0.782625
0.738544
0.608121
0.491156
0.386114
0.299164
0.231117
0.196157
0.189604
0.173676
0.171931
0.188465
0.200301
0.223947
0.291726
0.44788
0.780394
1.43886
2.50506
3.86971
4.66636
5.49963
4.07099
1.79523
1.91128
1.35543
0.839208
0.28229
-0.182958
-0.50126
-0.684424
-0.742398
-0.74004
-0.789239
-0.830978
-0.596933
-0.196408
0.0343976
0.229315
0.360271
0.473849
0.736012
1.06803
1.53761
2.09645
0.0144139
0.0342767
0.0610718
0.087929
0.118622
0.154524
0.197588
0.263867
0.316815
0.311117
0.262441
0.257999
0.20179
0.14777
0.0862469
0.011235
-0.050222
-0.0882818
-0.110108
-0.108155
-0.0664901
0.00140152
0.0711101
0.129221
0.177184
0.219816
0.256659
0.301555
0.343332
0.420652
0.414818
0.53687
0.743611
0.958206
0.855563
0.804786
0.663935
0.53805
0.424808
0.32909
0.255518
0.218877
0.211142
0.194557
0.189766
0.197977
0.205948
0.235884
0.317079
0.494825
0.860688
1.55166
2.61302
3.92127
4.70171
5.60381
4.15409
1.78408
1.8839
1.3462
0.820814
0.259131
-0.221589
-0.554244
-0.744245
-0.801455
-0.791986
-0.830612
-0.883641
-0.679358
-0.233427
0.0206082
0.206059
0.34534
0.475533
0.739826
1.12516
1.65368
2.2279
0.0162129
0.036234
0.0652618
0.093825
0.126928
0.165734
0.212729
0.282532
0.341017
0.336306
0.284479
0.273762
0.211378
0.157219
0.0938657
0.0134917
-0.0534576
-0.0971579
-0.124091
-0.12251
-0.0794922
-0.00798896
0.0632794
0.123584
0.175954
0.221729
0.261603
0.30838
0.347453
0.42039
0.408226
0.547073
0.800098
1.03403
0.931803
0.873775
0.722286
0.58736
0.465962
0.361378
0.282552
0.24359
0.234228
0.215889
0.206015
0.206334
0.214245
0.251223
0.342258
0.538056
0.929524
1.63981
2.67937
3.92672
4.7056
5.73946
4.21421
1.76926
1.84557
1.32771
0.792419
0.230465
-0.260927
-0.607542
-0.804579
-0.85924
-0.840424
-0.863518
-0.921514
-0.754159
-0.278858
0.00718057
0.18152
0.332879
0.479652
0.748344
1.19095
1.77112
2.39607
0.0180281
0.0381063
0.0693699
0.0996428
0.135192
0.176969
0.228096
0.301732
0.366092
0.362862
0.308436
0.290368
0.221323
0.16746
0.101187
0.0154337
-0.0569704
-0.106936
-0.138644
-0.136578
-0.0927212
-0.0185873
0.0533478
0.116232
0.173259
0.223397
0.266947
0.315561
0.352208
0.421951
0.402887
0.557992
0.860662
1.11371
1.01201
0.946221
0.78391
0.639832
0.510202
0.396612
0.312571
0.271055
0.259535
0.238363
0.221662
0.216481
0.226959
0.26917
0.367558
0.57731
0.985816
1.70214
2.7065
3.89266
4.67728
5.81559
4.23889
1.75048
1.78865
1.29835
0.754124
0.194341
-0.303274
-0.663637
-0.868304
-0.917521
-0.887383
-0.890257
-0.940553
-0.812946
-0.33385
-0.00314225
0.155385
0.318957
0.483259
0.76411
1.26494
1.89687
2.54431
0.0199044
0.0400168
0.0735403
0.105537
0.143563
0.188366
0.243794
0.321545
0.392008
0.390651
0.334119
0.307286
0.231526
0.177863
0.107036
0.0159236
-0.0617566
-0.11792
-0.153728
-0.150619
-0.106045
-0.0305531
0.0413049
0.107377
0.169354
0.22471
0.272143
0.322202
0.356922
0.424788
0.397831
0.568485
0.925058
1.19699
1.09596
1.0218
0.848309
0.694827
0.55635
0.433867
0.344839
0.300508
0.285651
0.26018
0.237052
0.228508
0.240808
0.285509
0.387773
0.606385
1.02459
1.73565
2.69582
3.82516
4.61749
5.79003
4.22019
1.7298
1.71483
1.26106
0.708873
0.15309
-0.347429
-0.720168
-0.93237
-0.974907
-0.934215
-0.916412
-0.94576
-0.847433
-0.392692
-0.0161485
0.130851
0.303213
0.483759
0.789832
1.3451
2.02852
2.71676
0.0217607
0.0419046
0.0777107
0.11148
0.152047
0.199966
0.259867
0.342024
0.418779
0.419854
0.361624
0.324432
0.242504
0.188385
0.112542
0.0158128
-0.0672725
-0.129517
-0.168742
-0.164426
-0.11904
-0.0438171
0.0276753
0.0978093
0.16533
0.226559
0.277829
0.328928
0.361855
0.42923
0.393011
0.579693
0.994447
1.28447
1.18434
1.10121
0.916267
0.753223
0.605009
0.473903
0.380119
0.33254
0.313823
0.283369
0.253987
0.243192
0.256615
0.301346
0.403934
0.626109
1.04664
1.74243
2.65397
3.7329
4.52928
5.66361
4.15992
1.7103
1.63189
1.2169
0.6556
0.10482
-0.396767
-0.779511
-0.997944
-1.03367
-0.984096
-0.949693
-0.952649
-0.864018
-0.445664
-0.0407011
0.109863
0.286007
0.483059
0.823376
1.42786
2.15886
2.91394
0.0236134
0.0438532
0.0819694
0.117562
0.160723
0.211835
0.276348
0.363163
0.446255
0.450389
0.390704
0.341631
0.253753
0.198738
0.118167
0.0152759
-0.0733318
-0.14133
-0.183146
-0.177519
-0.131426
-0.0581889
0.0129996
0.0879957
0.161132
0.228524
0.283525
0.335304
0.366863
0.434244
0.387344
0.591348
1.06891
1.37584
1.27691
1.184
0.987165
0.814211
0.655521
0.516105
0.417939
0.366513
0.34313
0.306526
0.271321
0.258988
0.271628
0.312804
0.411632
0.632585
1.04933
1.72189
2.58435
3.62023
4.41574
5.45741
4.06598
1.6951
1.54709
1.1669
0.596928
0.0523443
-0.449036
-0.838704
-1.06037
-1.09076
-1.03405
-0.98788
-0.96696
-0.8748
-0.49116
-0.0779143
0.094904
0.272135
0.482298
0.862217
1.51388
2.29515
3.09043
0.025372
0.0457969
0.0862448
0.123739
0.169577
0.223987
0.293245
0.384966
0.474378
0.482064
0.421163
0.358884
0.265556
0.209111
0.123952
0.0145382
-0.0795773
-0.15283
-0.196472
-0.189456
-0.143276
-0.073322
-0.00195287
0.0783801
0.157239
0.230951
0.289766
0.342023
0.372487
0.439733
0.381586
0.605249
1.14971
1.47163
1.37435
1.27087
1.06183
0.878495
0.708851
0.561323
0.459202
0.403851
0.374673
0.330866
0.291035
0.27752
0.287153
0.321358
0.412859
0.628127
1.03542
1.67846
2.49382
3.49283
4.28123
5.19694
3.94891
1.68393
1.46184
1.10927
0.533427
-0.00485955
-0.505277
-0.898885
-1.11897
-1.14516
-1.08166
-1.02674
-0.985762
-0.884129
-0.535108
-0.123491
0.0856271
0.260749
0.483603
0.901306
1.60172
2.4361
3.2801
0.0270517
0.047808
0.0906017
0.130067
0.178647
0.236441
0.310535
0.407361
0.50298
0.514535
0.452764
0.376133
0.278115
0.219165
0.128951
0.0134431
-0.0857121
-0.163533
-0.208159
-0.199538
-0.154677
-0.0888031
-0.0165117
0.0688675
0.153815
0.233713
0.296182
0.348633
0.378321
0.444708
0.375497
0.621648
1.23701
1.57182
1.47642
1.36132
1.1395
0.945129
0.764038
0.608796
0.503211
0.443365
0.406882
0.355568
0.312372
0.296761
0.300188
0.323847
0.404801
0.610906
1.00453
1.6148
2.38693
3.35385
4.12812
4.90815
3.81926
1.6765
1.37691
1.04478
0.469709
-0.0622833
-0.561197
-0.956597
-1.1691
-1.1932
-1.12541
-1.06398
-1.00847
-0.896035
-0.576888
-0.169054
0.07869
0.251208
0.488274
0.939691
1.69166
2.58011
3.49023
0.0285851
0.0498483
0.0949951
0.136526
0.18793
0.249213
0.328216
0.430325
0.531968
0.547513
0.485348
0.393826
0.292493
0.229146
0.132713
0.0122927
-0.0914598
-0.173573
-0.21825
-0.208055
-0.165831
-0.104318
-0.0305816
0.059782
0.15146
0.237356
0.303149
0.355523
0.384477
0.449237
0.370515
0.642408
1.33161
1.67736
1.58388
1.45621
1.22102
1.01504
0.821959
0.659172
0.55057
0.486162
0.441169
0.382887
0.337378
0.318342
0.312461
0.322509
0.390246
0.583878
0.959663
1.53667
2.27123
3.20692
3.95816
4.60985
3.68442
1.67083
1.29476
0.974638
0.406092
-0.120223
-0.61693
-1.01163
-1.2116
-1.23414
-1.16596
-1.09985
-1.03444
-0.91343
-0.614936
-0.211521
0.0681338
0.242709
0.49563
0.977123
1.78182
2.72922
3.69274
0.0300015
0.0519715
0.0994654
0.143141
0.197439
0.262286
0.346223
0.453698
0.561093
0.580713
0.518554
0.412357
0.308671
0.239296
0.135963
0.011627
-0.0966704
-0.182858
-0.226592
-0.215207
-0.176358
-0.119108
-0.0435388
0.0515393
0.149876
0.241418
0.310179
0.362134
0.390517
0.452678
0.366514
0.668022
1.4335
1.78857
1.69637
1.55489
1.30561
1.08737
0.881881
0.711303
0.600108
0.531271
0.476387
0.412241
0.36484
0.340287
0.321771
0.31558
0.368084
0.547024
0.902165
1.44704
2.1505
3.05312
3.77479
4.31533
3.55069
1.66734
1.2195
0.900922
0.345209
-0.174945
-0.668965
-1.05654
-1.24271
-1.26461
-1.20241
-1.13498
-1.06435
-0.938217
-0.651928
-0.253054
0.0486817
0.235596
0.506927
1.01882
1.874
2.87878
3.91887
0.0312776
0.0541729
0.104006
0.149925
0.207195
0.275684
0.364529
0.477397
0.590238
0.614132
0.551959
0.431844
0.326362
0.249753
0.13944
0.0113201
-0.101566
-0.191299
-0.233478
-0.22176
-0.186586
-0.132672
-0.0547778
0.0446716
0.149231
0.246078
0.317406
0.36872
0.396501
0.455296
0.364353
0.700659
1.54327
1.90631
1.81457
1.65819
1.39442
1.16292
0.944565
0.766372
0.652942
0.579634
0.514413
0.446062
0.396764
0.364524
0.330454
0.305873
0.341435
0.503395
0.83624
1.35112
2.02908
2.89524
3.5852
4.03128
3.42074
1.66558
1.15418
0.824442
0.286585
-0.226362
-0.71496
-1.08504
-1.26457
-1.29168
-1.23432
-1.17022
-1.09781
-0.969952
-0.694434
-0.298986
0.0208343
0.22636
0.519906
1.06439
1.96652
3.03169
4.12811
0.0324593
0.0564851
0.108643
0.156888
0.217197
0.28937
0.383031
0.501181
0.61907
0.647703
0.584663
0.452206
0.345256
0.260044
0.14335
0.0111979
-0.105893
-0.198519
-0.239296
-0.228407
-0.196517
-0.144566
-0.0640756
0.0395035
0.149855
0.251253
0.324409
0.374772
0.401692
0.456694
0.363354
0.741018
1.66098
2.03076
1.938
1.76532
1.48661
1.24042
1.00901
0.82408
0.708024
0.629104
0.554144
0.483276
0.43158
0.389296
0.337073
0.292524
0.310121
0.453994
0.764121
1.25261
1.9079
2.73314
3.3936
3.76335
3.29811
1.66838
1.09986
0.747247
0.234076
-0.270593
-0.750085
-1.09964
-1.27976
-1.31481
-1.25885
-1.20375
-1.13402
-1.00814
-0.744987
-0.355263
-0.0164348
0.21202
0.532627
1.1141
2.05969
3.18601
4.34703
0.0335692
0.0589417
0.113418
0.16409
0.227503
0.303377
0.40168
0.524902
0.647389
0.680797
0.616546
0.47332
0.364397
0.26959
0.147218
0.0109425
-0.109755
-0.204697
-0.244766
-0.235721
-0.20616
-0.154947
-0.0717425
0.03619
0.152229
0.25721
0.331201
0.380303
0.406215
0.456764
0.36424
0.791165
1.78718
2.16255
2.06737
1.87715
1.58331
1.32074
1.07627
0.88598
0.766847
0.68114
0.598024
0.526165
0.47143
0.416814
0.344063
0.277962
0.276516
0.401244
0.688637
1.1546
1.7871
2.56791
3.20335
3.51448
3.18298
1.67638
1.05739
0.671778
0.187404
-0.309572
-0.774894
-1.10736
-1.28993
-1.32965
-1.27239
-1.23358
-1.17122
-1.0512
-0.802391
-0.422333
-0.0645716
0.191476
0.53896
1.16198
2.14942
3.33237
4.57213
0.0346625
0.0615311
0.11832
0.171517
0.238095
0.317648
0.420335
0.548222
0.674732
0.712507
0.647846
0.495344
0.383046
0.278424
0.150933
0.0110385
-0.11269
-0.209687
-0.249982
-0.243328
-0.215217
-0.163734
-0.077785
0.0347099
0.155889
0.263547
0.33752
0.385011
0.41009
0.455098
0.367211
0.852109
1.9222
2.30157
2.20195
1.99261
1.68317
1.40259
1.14522
0.951102
0.82818
0.734296
0.645035
0.573315
0.514846
0.445807
0.350459
0.261546
0.240571
0.346472
0.61223
1.05789
1.66464
2.39895
3.01441
3.28731
3.07708
1.69307
1.02776
0.599549
0.147332
-0.341641
-0.78987
-1.10882
-1.29222
-1.33432
-1.2762
-1.25786
-1.20878
-1.09865
-0.863611
-0.492069
-0.119579
0.166335
0.540628
1.20772
2.236
3.47448
4.7745
0.0357929
0.0642859
0.123441
0.179284
0.249051
0.332221
0.438934
0.570932
0.700943
0.742794
0.678582
0.518201
0.401186
0.287243
0.154721
0.0120918
-0.11446
-0.213727
-0.255085
-0.250685
-0.223456
-0.170958
-0.0820312
0.0347006
0.160185
0.269893
0.343428
0.389097
0.413671
0.452464
0.372986
0.926167
2.06666
2.44829
2.34241
2.1126
1.78682
1.48667
1.21709
1.02109
0.893639
0.790964
0.697971
0.6273
0.56428
0.478669
0.358506
0.245131
0.203753
0.290556
0.53658
0.962106
1.54013
2.22852
2.82907
3.08129
2.97852
1.71934
1.01463
0.532217
0.111981
-0.366445
-0.797189
-1.10512
-1.28758
-1.33186
-1.2776
-1.27679
-1.24519
-1.14883
-0.927099
-0.564079
-0.184097
0.134958
0.538751
1.24557
2.31371
3.6064
4.97212
0.0369546
0.0671739
0.128778
0.187399
0.260277
0.347024
0.457305
0.592589
0.725398
0.771315
0.708594
0.542049
0.418555
0.296445
0.159499
0.0147348
-0.114962
-0.216733
-0.259675
-0.256868
-0.230241
-0.176294
-0.0846036
0.035878
0.164674
0.276071
0.348995
0.392566
0.416366
0.448259
0.379203
1.01446
2.22096
2.6024
2.48784
2.23582
1.89239
1.57152
1.29121
1.09479
0.961212
0.849957
0.75572
0.686724
0.618204
0.514086
0.367345
0.228365
0.166233
0.234395
0.462689
0.8673
1.41382
2.05869
2.64938
2.89541
2.88832
1.75746
1.01955
0.472809
0.0832839
-0.380969
-0.797483