/*--------------------------------*- C++ -*----------------------------------*\
| =========                 |                                                 |
| \\      /  F ield         | OpenFOAM: The Open Source CFD Toolbox           |
|  \\    /   O peration     | Version:  4.1                                   |
|   \\  /    A nd           | Web:      www.OpenFOAM.org                      |
|    \\/     M anipulation  |                                                 |
\*---------------------------------------------------------------------------*/
FoamFile
{
    version     2.0;
    format      ascii;
    class       volVectorField;
    location    "25";
    object      U;
}
// * * * * * * * * * * * * * * * * * * * * * * * * * * * * * * * * * * * * * //

dimensions      [0 1 -1 0 0 0 0];

internalField   nonuniform List<vector> 
6785
(
(8.05921e-15 0.852193 15.7946)
(8.28959e-15 -4.89458 12.1215)
(-3.72265e-15 -4.1955 12.1321)
(2.04609e-15 -3.60118 11.9966)
(1.02187e-15 -3.00467 11.8778)
(-4.62896e-17 -2.55318 11.6992)
(2.15854e-15 -2.20879 11.4769)
(4.36241e-16 -1.96601 11.2116)
(-6.98243e-16 -1.79853 10.916)
(1.22161e-15 -1.71236 10.5882)
(1.15034e-16 -1.83743 10.1561)
(-5.59127e-16 -2.28564 9.53763)
(6.60085e-16 -2.51297 8.96379)
(-2.98897e-17 -1.06547 8.91357)
(-2.42248e-16 1.76573 7.47085)
(2.14478e-14 -5.35014 22.493)
(1.57477e-14 -14.6049 21.394)
(-6.14107e-16 -13.2708 20.3412)
(-1.47329e-15 -11.7697 19.5066)
(1.83679e-15 -11.1561 18.5044)
(-7.84501e-17 -10.6594 17.5174)
(2.77628e-15 -10.0901 16.5714)
(1.37665e-15 -9.52498 15.6236)
(-7.7505e-16 -8.96542 14.6638)
(1.33848e-15 -8.36729 13.6946)
(6.69359e-16 -7.75707 12.7179)
(-6.74821e-16 -7.30334 11.7194)
(8.58418e-16 -7.01707 10.6244)
(1.80925e-16 -5.73093 9.16117)
(-1.97157e-16 -2.30498 4.58302)
(1.85343e-14 -7.71563 23.9801)
(1.74126e-14 -16.7731 24.6729)
(6.80763e-16 -13.7365 23.9372)
(1.50761e-15 -12.3061 22.6249)
(6.47875e-16 -11.6447 21.2413)
(6.36233e-16 -10.8139 20.0012)
(4.48044e-15 -9.94016 18.7737)
(7.48053e-16 -9.1 17.5246)
(-6.08492e-17 -8.28326 16.2654)
(1.69745e-15 -7.47509 15.0262)
(4.71842e-16 -6.66744 13.8175)
(-9.91437e-17 -5.84142 12.4299)
(7.93814e-16 -4.81355 10.2748)
(3.3065e-16 -3.1258 6.68373)
(-2.10363e-16 -0.831815 1.68923)
(2.31632e-14 -8.50249 22.0459)
(1.67248e-14 -16.6211 24.3319)
(1.44939e-15 -12.9299 23.7969)
(5.02062e-15 -12.1536 21.9984)
(2.2225e-15 -11.42 20.5026)
(1.63942e-15 -10.4936 19.172)
(2.18402e-15 -9.63382 17.8165)
(4.13803e-16 -8.82353 16.4588)
(9.80092e-16 -8.05355 15.1228)
(1.32927e-15 -7.32368 13.8162)
(3.4859e-16 -6.55232 12.4391)
(6.28693e-16 -5.49057 10.5825)
(3.23615e-16 -3.78456 7.50751)
(-4.6932e-16 -1.49255 2.76413)
(-8.59242e-16 0.153509 -1.77364)
(1.99078e-14 -8.47575 19.7467)
(1.63619e-14 -16.3601 24.3119)
(-1.3833e-15 -13.0993 23.6598)
(4.05172e-15 -12.628 21.5362)
(2.1418e-15 -11.8567 20.0244)
(7.59939e-16 -10.9576 18.6634)
(2.05964e-15 -10.17 17.2583)
(-2.9691e-16 -9.40299 15.8708)
(3.30105e-15 -8.65281 14.5232)
(7.43361e-16 -7.93074 13.2132)
(-1.80057e-15 -7.16607 11.8288)
(-7.30114e-16 -6.11626 9.99581)
(-2.95858e-16 -4.42396 7.15488)
(-5.88593e-15 -2.30506 3.28718)
(-6.21075e-15 -0.787155 0.317214)
(1.75137e-14 -8.02039 17.5488)
(1.69559e-14 -16.0192 24.5269)
(3.15206e-15 -13.6449 24.0457)
(3.87306e-15 -12.9948 21.7646)
(3.714e-16 -12.1272 20.215)
(-1.74437e-16 -11.2255 18.8463)
(2.01639e-15 -10.4398 17.4335)
(-2.84706e-17 -9.64979 16.0429)
(-1.98282e-16 -8.86129 14.6929)
(3.92634e-16 -8.0942 13.3814)
(-1.18525e-15 -7.29827 12.0169)
(-3.86132e-15 -6.28563 10.2819)
(-5.90481e-16 -4.73403 7.72124)
(-4.51014e-15 -2.75683 4.37276)
(2.78213e-15 -0.949588 1.2972)
(1.64319e-14 -7.33222 15.2386)
(1.77793e-14 -15.4892 24.3507)
(7.20757e-15 -14.0274 24.4216)
(4.1612e-15 -13.1303 22.0675)
(3.41058e-15 -12.1474 20.4391)
(2.92724e-15 -11.2386 19.0538)
(2.23087e-15 -10.4389 17.6432)
(-2.86558e-16 -9.62281 16.2573)
(2.908e-16 -8.81316 14.9066)
(4.3571e-16 -8.03024 13.5921)
(1.1848e-16 -7.22702 12.2375)
(-1.04868e-15 -6.24364 10.5506)
(-9.69747e-17 -4.79141 8.11087)
(-2.67983e-15 -2.91789 4.95159)
(3.40367e-15 -1.01324 1.80091)
(1.50118e-14 -6.54024 12.9915)
(1.7782e-14 -14.8393 23.7986)
(8.36291e-15 -14.2757 24.6688)
(5.31402e-15 -13.245 22.3233)
(1.2953e-15 -12.1747 20.5814)
(2.36892e-15 -11.2728 19.1651)
(-8.84428e-17 -10.4723 17.758)
(2.52898e-16 -9.65066 16.3766)
(9.75037e-16 -8.84248 15.0253)
(-2.49433e-15 -8.06284 13.7087)
(1.25292e-16 -7.26279 12.3603)
(2.30194e-15 -6.29554 10.7051)
(1.1744e-16 -4.9009 8.34064)
(-1.97999e-15 -3.09473 5.27963)
(1.11787e-15 -1.12805 2.0539)
(1.03887e-14 -5.73852 11.0283)
(1.74839e-14 -14.152 23.0385)
(7.29216e-15 -14.4668 24.8456)
(3.8599e-15 -13.4189 22.6255)
(1.66457e-15 -12.2731 20.7576)
(2.80541e-15 -11.3681 19.2969)
(1.86598e-15 -10.5667 17.8937)
(1.14209e-15 -9.74508 16.5158)
(3.69737e-16 -8.93899 15.1624)
(1.09971e-15 -8.15958 13.8428)
(2.93683e-16 -7.35968 12.4969)
(-2.10619e-15 -6.40185 10.8684)
(5.34408e-16 -5.04884 8.57437)
(-1.5977e-15 -3.29259 5.59442)
(-1.74759e-15 -1.25613 2.28175)
(6.85198e-15 -4.98789 9.37854)
(1.706e-14 -13.4534 22.1539)
(9.8791e-15 -14.5775 24.9365)
(4.24881e-15 -13.6026 22.9579)
(1.97805e-15 -12.3858 20.9733)
(-1.69927e-15 -11.4597 19.4553)
(1.27758e-15 -10.652 18.0532)
(1.06339e-15 -9.83019 16.6787)
(2.4551e-16 -9.02378 15.3238)
(-1.14085e-15 -8.24159 14.0012)
(6.78275e-16 -7.44114 12.6554)
(1.56145e-15 -6.49171 11.0456)
(4.58807e-16 -5.17152 8.80622)
(-7.51948e-16 -3.45454 5.88436)
(-2.75093e-15 -1.35147 2.49302)
(6.58558e-15 -4.34835 8.05542)
(1.63756e-14 -12.786 21.2391)
(1.0113e-14 -14.6143 24.9404)
(5.13469e-15 -13.789 23.3014)
(2.41314e-15 -12.5261 21.234)
(9.382e-16 -11.5716 19.6473)
(1.60988e-15 -10.7554 18.2373)
(1.37087e-15 -9.9346 16.8628)
(-8.88485e-16 -9.12765 15.5047)
(-6.36335e-16 -8.34157 14.1773)
(-2.83066e-16 -7.53942 12.8296)
(-1.40796e-15 -6.59778 11.2367)
(2.36331e-15 -5.30735 9.04949)
(-3.72471e-15 -3.62625 6.18073)
(-5.64515e-15 -1.4542 2.71202)
(4.63026e-15 -3.72097 6.74058)
(1.56896e-14 -12.0653 20.1519)
(1.01586e-14 -14.5386 24.7594)
(5.45219e-15 -13.9085 23.513)
(2.80324e-15 -12.6012 21.3782)
(2.13494e-16 -11.6055 19.726)
(1.49699e-15 -10.7833 18.3227)
(1.86969e-15 -9.97087 16.9649)
(-1.1656e-15 -9.1727 15.6196)
(1.53517e-17 -8.39426 14.3027)
(-7.25544e-16 -7.60046 12.9641)
(-2.42439e-15 -6.6706 11.3872)
(-2.56771e-15 -5.40237 9.2352)
(-5.09426e-15 -3.74527 6.39585)
(-5.70457e-15 -1.515 2.85609)
(3.57304e-15 -3.37512 6.12367)
(1.46602e-14 -11.5538 19.3138)
(1.1291e-14 -14.6035 24.6627)
(5.59607e-15 -14.3182 24)
(3.21404e-15 -13.0723 21.9083)
(-2.00666e-18 -12.0382 20.1344)
(6.18089e-16 -11.1829 18.646)
(2.51174e-15 -10.352 17.2409)
(-7.66772e-16 -9.528 15.8582)
(-1.0585e-15 -8.71681 14.5083)
(5.12881e-16 -7.89415 13.1533)
(-2.52664e-15 -6.95257 11.6007)
(-1.82401e-15 -5.70014 9.53362)
(-4.14266e-15 -4.0501 6.75934)
(-5.73123e-15 -1.68761 3.12014)
(7.07992e-16 -1.87621 2.65563)
(1.233e-14 -9.89765 16.4248)
(1.10782e-14 -13.9025 23.3459)
(5.46304e-15 -13.9329 23.3944)
(2.81268e-15 -12.565 21.2431)
(1.68327e-16 -11.4554 19.5106)
(7.78781e-16 -10.6958 18.2852)
(2.73193e-15 -10.0051 17.1421)
(-4.75803e-16 -9.32291 15.9823)
(-6.4546e-16 -8.64912 14.8087)
(3.08534e-16 -7.95824 13.6007)
(-2.49105e-15 -7.1482 12.1907)
(-1.81165e-15 -6.0232 10.2633)
(-4.02929e-15 -4.52904 7.71024)
(-4.54892e-15 -2.22843 4.35881)
(1.79909e-15 -4.45817 9.16208)
(1.21119e-14 -10.9591 18.4818)
(1.31504e-14 -15.2253 24.8717)
(8.56886e-15 -16.7657 26.0045)
(4.67806e-15 -16.3074 24.3382)
(1.70277e-15 -15.1701 21.8941)
(2.84636e-16 -13.8875 19.6001)
(9.16234e-16 -12.6457 17.6354)
(1.17115e-16 -11.4399 15.8301)
(-7.18576e-16 -10.2636 14.2056)
(-6.58168e-16 -9.11471 12.6967)
(-1.93646e-15 -7.90233 11.1273)
(-2.46955e-15 -6.48308 9.32626)
(-4.2427e-15 -4.56554 6.63903)
(-4.69368e-15 -1.03933 2.41023)
(1.47801e-17 0.70494 -3.67892)
(-4.98898e-17 0.816992 -5.75705)
(-5.45134e-17 0.745098 -4.11078)
(-4.71387e-17 1.22833 -4.06952)
(-3.67264e-17 1.6767 -3.87578)
(-9.40497e-17 2.38734 -5.33292)
(-7.67063e-17 2.01322 -3.67553)
(-7.06411e-17 2.44443 -3.62395)
(7.70555e-17 2.70655 -3.47502)
(-3.78678e-16 3.72746 -4.55685)
(-2.71323e-16 2.99812 -3.14371)
(-1.19632e-16 3.2798 -2.96904)
(-8.46721e-17 4.67746 -3.78665)
(-8.55496e-17 3.5809 -2.57945)
(-6.12084e-17 3.92752 -2.54331)
(-5.21906e-17 4.02465 -2.4722)
(-1.55103e-17 5.24918 -3.07292)
(8.75757e-18 4.07285 -2.11693)
(6.35167e-19 4.23205 -2.03034)
(-6.1252e-17 5.71502 -2.4176)
(-1.13402e-17 4.2809 -1.66217)
(-8.17004e-18 4.56636 -1.64042)
(1.124e-17 4.58841 -1.62499)
(1.58366e-17 5.86529 -1.85543)
(3.71108e-17 4.3228 -1.31005)
(6.68675e-17 4.66074 -1.28713)
(3.58445e-17 4.67098 -1.28548)
(6.66266e-17 5.85737 -1.37939)
(1.22966e-16 4.30526 -0.985454)
(1.42619e-16 4.36072 -0.977777)
(2.22047e-16 5.80555 -0.922633)
(1.54947e-16 4.1131 -0.64595)
(1.60128e-16 4.30068 -0.633067)
(1.75327e-16 4.29773 -0.655826)
(2.48176e-16 5.25383 -0.528127)
(1.90728e-16 3.83022 -0.360462)
(1.90708e-16 3.85124 -0.38737)
(2.61338e-16 4.8909 -0.14199)
(2.14023e-16 3.49873 -0.081376)
(3.0663e-16 3.59801 -0.0779567)
(2.60006e-16 3.61091 -0.12318)
(1.19549e-16 4.21465 0.196011)
(1.79258e-16 3.04987 0.140539)
(1.84658e-16 3.16958 0.141676)
(1.8226e-16 3.19629 0.0907193)
(2.72983e-16 3.64129 0.476296)
(1.39616e-16 2.65429 0.362954)
(1.3213e-16 2.66076 0.299519)
(1.63658e-16 3.26424 0.784141)
(1.86411e-16 2.36473 0.64683)
(1.83187e-16 2.38904 0.648598)
(1.69014e-16 2.37301 0.580156)
(1.98036e-16 2.67815 1.13039)
(1.26501e-16 1.90476 0.8579)
(1.36323e-16 1.93311 0.853496)
(2.65391e-16 1.92198 0.786479)
(2.66479e-16 1.99412 1.2793)
(2.77937e-16 1.32678 0.844237)
(2.63083e-16 1.27177 0.78644)
(2.81734e-16 1.32952 0.844089)
(2.10425e-16 0.60345 0.29321)
(2.0648e-16 0.530201 0.267986)
(1.40774e-16 0.632661 0.28339)
(1.27995e-15 0.946843 -1.13359)
(-4.81425e-16 -0.541855 -0.0476244)
(-8.61937e-16 -0.0749541 0.160604)
(-1.46766e-15 -0.2552 1.69483)
(-1.13442e-15 -1.44734 3.40826)
(-1.0105e-15 -1.42741 3.37737)
(-1.04482e-15 -1.43063 3.56064)
(-1.27268e-15 -2.76361 6.41564)
(-8.76403e-16 -3.32491 6.09702)
(-9.47295e-16 -3.55753 6.22314)
(-8.78548e-16 -3.73379 6.41332)
(-1.69967e-15 -6.27284 9.95759)
(-6.90236e-16 -5.8037 8.1668)
(-7.03622e-16 -6.07963 8.64302)
(-6.24221e-16 -9.40767 12.6356)
(-4.20966e-16 -8.47181 9.84298)
(-5.59036e-16 -8.83877 10.5683)
(-1.13919e-15 -9.68264 12.2921)
(-1.00178e-15 -9.55207 12.2162)
(-9.47981e-16 -9.71524 12.502)
(3.84089e-16 -11.8469 15.3002)
(-3.72654e-16 -10.3911 13.5662)
(-2.08267e-16 -10.772 14.2386)
(-1.40775e-16 -10.7487 14.3857)
(-7.68926e-17 -10.823 14.5157)
(-8.5635e-18 -10.9112 14.6667)
(7.97877e-17 -10.9871 14.8416)
(2.4454e-16 -11.0724 15.1559)
(4.47028e-16 -11.1927 15.5444)
(1.42408e-15 -12.1115 17.0259)
(8.24548e-16 -11.5164 15.9947)
(9.32863e-16 -11.6695 16.23)
(9.81615e-16 -11.6485 16.3571)
(1.0901e-15 -11.8133 16.7288)
(1.11302e-15 -11.7873 16.7721)
(1.17285e-15 -11.8675 16.9214)
(1.22691e-15 -11.9228 17.0516)
(1.2938e-15 -11.9844 17.2077)
(2.41421e-15 -12.4595 18.356)
(2.064e-15 -12.0181 17.5637)
(2.14745e-15 -12.1243 17.7458)
(2.20133e-15 -12.1577 17.8275)
(2.28e-15 -12.2005 17.9571)
(2.36557e-15 -12.2449 18.1531)
(2.44268e-15 -12.3188 18.374)
(2.50396e-15 -12.3216 18.4389)
(2.5841e-15 -12.3918 18.5538)
(2.68168e-15 -12.4441 18.6518)
(3.58591e-15 -12.2078 18.9112)
(2.97043e-15 -12.0816 18.5693)
(3.09253e-15 -12.1154 18.6667)
(3.13939e-15 -12.1473 18.7125)
(3.20891e-15 -12.1822 18.7817)
(3.28381e-15 -12.1715 18.8695)
(3.45558e-15 -12.2278 19.1001)
(3.595e-15 -12.2553 19.1621)
(3.70166e-15 -12.2931 19.1375)
(4.83371e-15 -11.2484 18.067)
(3.94291e-15 -11.4485 18.3196)
(4.06451e-15 -11.4065 18.4194)
(4.08761e-15 -11.4428 18.538)
(4.1972e-15 -11.3837 18.4384)
(4.31254e-15 -11.3798 18.396)
(4.44255e-15 -11.3536 18.3345)
(4.59922e-15 -11.3393 18.3029)
(4.90863e-15 -11.4124 18.4617)
(5.43569e-15 -9.2498 15.6008)
(5.11968e-15 -10.0846 17.0099)
(5.26908e-15 -9.91099 16.7123)
(5.3954e-15 -9.87447 16.5991)
(5.76212e-15 -9.82867 16.6063)
(5.85879e-15 -9.7196 16.3684)
(5.87519e-15 -9.61443 16.0256)
(5.91682e-15 -9.56939 15.6594)
(5.95161e-15 -9.44858 15.2007)
(5.96922e-15 -6.69892 11.0907)
(6.30699e-15 -7.88171 13.7541)
(6.14036e-15 -7.53867 12.9767)
(6.03318e-15 -7.47249 12.5418)
(5.91077e-15 -7.31751 11.9433)
(5.84908e-15 -7.23356 11.2974)
(6.2221e-15 -6.93701 10.4726)
(5.74152e-15 -6.87811 9.89707)
(5.44125e-15 -6.68266 9.17289)
(5.0515e-15 -6.40951 8.37632)
(2.66594e-15 -3.22576 2.86428)
(4.21656e-15 -4.99773 6.44576)
(3.63756e-15 -4.45685 5.13295)
(3.3993e-15 -4.45851 4.75247)
(3.03816e-15 -4.20331 4.07815)
(2.58753e-15 -4.13607 3.33146)
(1.65022e-15 -3.95358 2.10329)
(6.93257e-16 -3.55778 0.898132)
(8.73128e-16 -3.52349 0.813989)
(7.50165e-16 -1.83731 -1.50027)
(5.97192e-16 -2.9613 0.463817)
(5.35867e-16 -2.69849 -0.168139)
(2.52449e-16 -1.68281 -1.99364)
(1.0375e-15 -2.8405 -1.75473)
(1.33358e-16 -2.04627 -1.41588)
(-4.00683e-16 -1.58031 -0.891843)
(-1.80245e-16 -1.96343 -1.37594)
(8.01934e-16 -1.11555 -0.753049)
(5.67531e-16 -1.3638 -1.25855)
(-2.46915e-15 -1.03023 -0.809841)
(4.37663e-16 -0.6306 -0.561471)
(6.90726e-16 -0.690054 -0.816924)
(3.95016e-16 -0.611554 -0.772393)
(2.81673e-16 -0.220615 -0.742683)
(3.94009e-16 -0.291462 -0.861098)
(5.17542e-17 -0.0619294 -0.741787)
(-4.85731e-16 0.16579 -0.84923)
(-4.46527e-19 0.342245 -0.994421)
(-2.70149e-17 0.372376 -0.747426)
(-3.99652e-16 0.712832 -0.867148)
(-3.86143e-16 0.676489 -0.690486)
(-2.96713e-16 0.917054 -0.770631)
(-1.7033e-16 1.21217 -0.803067)
(-1.85996e-16 0.951379 -0.590267)
(-9.12984e-17 1.35497 -0.658079)
(-1.24359e-16 1.71839 -0.661142)
(-1.45078e-16 1.21191 -0.497408)
(-1.90041e-16 2.00212 -0.570867)
(-2.31009e-16 1.50876 -0.452587)
(-1.77306e-15 1.86674 -0.509509)
(2.22633e-18 2.23694 -0.488112)
(-4.38707e-17 1.57766 -0.372798)
(-4.31402e-17 2.52871 -0.416299)
(-7.73503e-17 1.87855 -0.333526)
(-3.01246e-16 2.26971 -0.375512)
(3.77832e-16 2.59139 -0.338897)
(3.02822e-16 1.91406 -0.268173)
(4.2991e-18 2.4993 -0.282825)
(5.97002e-16 2.8685 -0.23766)
(6.9286e-17 2.00532 -0.209369)
(1.54469e-17 3.02541 -0.205252)
(-1.68417e-17 2.24952 -0.185822)
(-5.50888e-18 2.66783 -0.192692)
(1.09517e-16 3.00975 -0.147736)
(-6.11104e-17 2.12787 -0.13597)
(-4.23792e-16 3.22017 -0.127596)
(1.47134e-16 2.38983 -0.116291)
(5.06665e-17 2.804 -0.124484)
(7.61963e-17 3.08732 -0.091304)
(2.3867e-17 2.27956 -0.0822223)
(-1.54066e-18 2.90529 -0.0721356)
(1.02357e-16 3.24931 -0.0440727)
(2.04911e-17 2.28393 -0.0506687)
(-1.31528e-16 3.31347 -0.0396771)
(8.70105e-17 2.504 -0.0504473)
(1.67945e-16 2.89726 -0.0490769)
(1.06935e-17 3.22672 -0.0315252)
(-5.88941e-17 2.28791 -0.032557)
(2.37876e-16 3.38571 -0.0358753)
(1.28429e-17 2.54053 -0.0345326)
(9.74572e-17 2.92937 -0.049629)
(2.1287e-16 3.21668 -0.0507192)
(1.24897e-16 2.37342 -0.0319267)
(1.94612e-16 2.9989 -0.036958)
(2.01586e-16 3.37009 -0.046362)
(1.07511e-16 2.35365 -0.0242053)
(3.47952e-16 3.39776 -0.0518867)
(2.03657e-16 2.59257 -0.0414227)
(3.71147e-16 2.96132 -0.0672361)
(4.35822e-16 3.3502 -0.0793318)
(2.27535e-16 2.36209 -0.0473132)
(3.88914e-16 3.51186 -0.088826)
(2.62731e-16 2.63847 -0.0596525)
(3.66321e-16 3.03454 -0.106511)
(3.04719e-16 3.39659 -0.128881)
(3.46159e-16 2.49978 -0.072043)
(5.75926e-16 3.15418 -0.11171)
(5.74863e-16 3.63369 -0.139915)
(3.60174e-16 2.50238 -0.0768138)
(5.35488e-16 3.73085 -0.154218)
(3.70679e-16 2.7673 -0.0996366)
(5.2656e-16 3.35272 -0.18978)
(-9.11096e-16 -0.387376 0.389807)
(-9.1032e-16 -0.443747 0.425623)
(-9.09439e-16 -0.543059 0.424622)
(-9.08189e-16 -0.642882 0.406653)
(-9.06654e-16 -0.774826 0.361147)
(-9.04982e-16 -0.937522 0.295548)
(-9.03406e-16 -1.15012 0.21877)
(-9.02143e-16 -1.42388 0.1417)
(-9.01248e-16 -1.73685 0.0914007)
(-9.00256e-16 -1.27998 -0.0313055)
(-8.99643e-16 -0.623474 0.143328)
(-8.99125e-16 -0.73824 0.0778129)
(-8.97502e-16 -0.593482 -0.0221088)
(-8.9569e-16 -0.462496 -0.0219401)
(-8.93963e-16 -0.468637 -0.0569607)
(-8.92298e-16 -0.427511 -0.0684898)
(-8.9148e-16 -0.465517 0.0197554)
(-8.88484e-16 -0.324139 -0.215111)
(-8.87376e-16 -0.394459 -0.139237)
(-8.84265e-16 -0.278146 -0.335915)
(-8.81926e-16 -0.223793 -0.42803)
(-8.7962e-16 -0.192585 -0.475101)
(-8.75772e-16 -0.0671373 -0.531342)
(-8.71419e-16 -0.113286 -0.503391)
(-8.75115e-16 0.0484029 -0.570956)
(-8.81915e-16 0.1313 -0.566948)
(-8.86005e-16 0.201838 -0.566155)
(-8.87816e-16 0.327598 -0.585341)
(-8.88581e-16 0.524803 -0.614409)
(-8.91825e-16 0.751259 -0.477077)
(-8.92329e-16 0.883465 -0.10641)
(-7.83074e-16 -3.51774 0.116455)
(-7.72517e-16 -5.03306 -0.15027)
(-7.65037e-16 -3.87179 -0.160759)
(-7.59971e-16 -3.02715 -0.263308)
(-7.56994e-16 -2.2115 -0.316276)
(-7.55458e-16 -1.56575 -0.34818)
(-7.54715e-16 -1.0024 -0.366076)
(-7.54422e-16 -0.408658 -0.322771)
(-7.54325e-16 0.336197 -0.122405)
(-7.54363e-16 -0.160978 0.296178)
(-7.54621e-16 0.373725 0.0936613)
(-7.54636e-16 0.230879 0.140698)
(-7.54648e-16 -0.188379 0.0998524)
(-7.54686e-16 0.167334 -0.0665866)
(-7.54692e-16 0.18567 -0.0830997)
(-7.54729e-16 0.309563 -0.200107)
(-7.54882e-16 0.426347 -0.28239)
(-7.55116e-16 0.531904 -0.353727)
(-7.55489e-16 0.62883 -0.371494)
(-7.55772e-16 0.736935 -0.394524)
(-7.56561e-16 0.940031 -0.091185)
(-7.49609e-16 1.6309 0.00123674)
(-7.25741e-16 2.76043 -0.0838031)
(-6.84321e-16 1.98915 0.817994)
(-5.46414e-16 -4.12665 -0.175708)
(-3.67404e-16 -6.21709 -0.250633)
(6.59033e-16 0.486515 -0.037605)
(1.00197e-15 1.20216 1.01137)
(9.79291e-16 0.279363 1.21624)
(9.94172e-16 -0.120852 1.32656)
(9.89373e-16 -0.39706 1.29902)
(9.89876e-16 -0.430259 1.36193)
(1.00214e-15 -0.614749 1.21707)
(1.00714e-15 -0.705728 1.08398)
(1.00274e-15 -0.722002 1.04545)
(1.00124e-15 -0.797073 0.784724)
(9.8061e-16 -0.675519 0.840441)
(9.5377e-16 -0.592956 0.713147)
(9.28405e-16 -0.495579 0.621027)
(9.2792e-16 -0.560834 0.633631)
(9.62801e-16 -0.728326 0.684403)
(1.02981e-15 -0.791306 0.748525)
(1.01656e-15 -0.203088 0.627085)
(4.11564e-16 0.987131 0.325751)
(-3.37095e-17 0.29576 0.838932)
(1.23051e-16 -0.279647 0.460375)
(5.17157e-16 2.01251 -0.450037)
(7.65615e-16 2.88474 -0.389617)
(-9.11037e-16 -0.397971 0.374795)
(-9.10218e-16 -0.474054 0.414756)
(-9.09318e-16 -0.576754 0.414528)
(-9.08062e-16 -0.680286 0.396282)
(-9.06545e-16 -0.811693 0.353209)
(-9.04906e-16 -0.970922 0.292506)
(-9.03366e-16 -1.17598 0.223066)
(-9.02127e-16 -1.43921 0.156605)
(-9.0124e-16 -1.72868 0.114645)
(-9.00251e-16 -1.23962 -0.00796365)
(-8.9964e-16 -0.551671 0.141907)
(-8.99108e-16 -0.674262 0.0723211)
(-8.97499e-16 -0.52975 -0.0271752)
(-8.95708e-16 -0.413231 -0.0372547)
(-8.9399e-16 -0.434222 -0.0738269)
(-8.92333e-16 -0.405822 -0.100194)
(-8.91524e-16 -0.44886 -0.0195481)
(-8.88545e-16 -0.329697 -0.236966)
(-8.87446e-16 -0.374002 -0.166055)
(-8.84832e-16 -0.268712 -0.3351)
(-8.82876e-16 -0.207993 -0.396484)
(-8.80794e-16 -0.142151 -0.444269)
(-8.7716e-16 -0.0249423 -0.46868)
(-8.72599e-16 -0.106931 -0.501161)
(-8.71931e-16 -0.000300517 -0.555315)
(-8.76196e-16 0.101061 -0.542592)
(-8.80399e-16 0.183933 -0.552791)
(-8.82433e-16 0.313138 -0.578603)
(-8.8416e-16 0.490669 -0.58482)
(-8.88886e-16 0.680666 -0.434419)
(-8.92213e-16 0.780572 -0.075366)
(-7.83113e-16 -3.47756 0.112791)
(-7.7251e-16 -5.02771 -0.16023)
(-7.6508e-16 -3.88706 -0.162279)
(-7.60019e-16 -3.04265 -0.25995)
(-7.57038e-16 -2.23136 -0.310765)
(-7.5549e-16 -1.58375 -0.344284)
(-7.54737e-16 -1.02031 -0.360463)
(-7.54437e-16 -0.407435 -0.337795)
(-7.5433e-16 0.248914 -0.0565323)
(-7.54375e-16 -0.0167737 0.252205)
(-7.54612e-16 0.34773 0.0419807)
(-7.54641e-16 0.232461 0.149167)
(-7.54651e-16 -0.116252 0.0512261)
(-7.54672e-16 0.366379 -0.152251)
(-7.5466e-16 0.177814 -0.0662452)
(-7.54699e-16 0.320755 -0.198582)
(-7.54853e-16 0.428925 -0.279265)
(-7.55094e-16 0.518981 -0.349022)
(-7.55587e-16 0.615459 -0.362025)
(-7.55913e-16 0.682144 -0.389053)
(-7.57022e-16 0.884964 -0.0460971)
(-7.48601e-16 1.62839 0.00919865)
(-7.22169e-16 2.63577 -0.108125)
(-6.81953e-16 1.97522 0.8459)
(-5.45664e-16 -3.94199 -0.173114)
(-3.68681e-16 -6.14338 -0.234932)
(6.55087e-16 0.165798 -0.18699)
(9.98863e-16 1.014 0.879865)
(9.78606e-16 0.251822 1.062)
(9.9998e-16 -0.116444 1.22549)
(9.92273e-16 -0.398431 1.19357)
(9.94747e-16 -0.515181 1.20758)
(1.00394e-15 -0.697273 1.14407)
(1.00621e-15 -0.787229 1.06413)
(1.00223e-15 -0.813204 1.02206)
(9.97831e-16 -0.836915 0.828274)
(9.74683e-16 -0.709794 0.833649)
(9.47357e-16 -0.636911 0.670754)
(9.26384e-16 -0.626566 0.594702)
(9.32415e-16 -0.730438 0.632689)
(9.73608e-16 -0.844351 0.676726)
(1.04102e-15 -0.791597 0.664151)
(1.00202e-15 -0.128509 0.52238)
(3.24791e-16 0.850929 0.291982)
(7.6363e-17 0.27095 0.779189)
(1.36324e-16 0.210356 0.453137)
(5.4899e-16 2.11547 -0.474858)
(7.87537e-16 2.84563 -0.315582)
(-9.10963e-16 -0.40017 0.369632)
(-9.1009e-16 -0.468578 0.407431)
(-9.09169e-16 -0.561536 0.40583)
(-9.07907e-16 -0.658133 0.385918)
(-9.06413e-16 -0.784305 0.343422)
(-9.04815e-16 -0.94208 0.285554)
(-9.03317e-16 -1.15046 0.221342)
(-9.02107e-16 -1.42256 0.161907)
(-9.01228e-16 -1.71447 0.126727)
(-9.00244e-16 -1.25501 0.00614435)
(-8.99634e-16 -0.598306 0.133242)
(-8.99088e-16 -0.689518 0.0627592)
(-8.97492e-16 -0.552951 -0.0289268)
(-8.95735e-16 -0.437047 -0.044895)
(-8.94047e-16 -0.451594 -0.0825498)
(-8.92406e-16 -0.429184 -0.113219)
(-8.91587e-16 -0.445511 -0.0394651)
(-8.88666e-16 -0.322655 -0.221581)
(-8.87668e-16 -0.367811 -0.154889)
(-8.85618e-16 -0.25555 -0.276174)
(-8.83943e-16 -0.211775 -0.3167)
(-8.81546e-16 -0.166814 -0.385433)
(-8.77804e-16 -0.0774913 -0.430773)
(-8.73314e-16 -0.0999244 -0.480117)
(-8.71116e-16 0.00598699 -0.53812)
(-8.73211e-16 0.103297 -0.536674)
(-8.76326e-16 0.189028 -0.543029)
(-8.78433e-16 0.319501 -0.56324)
(-8.81026e-16 0.483585 -0.560188)
(-8.86953e-16 0.644231 -0.4077)
(-8.9218e-16 0.739017 -0.075306)
(-7.83198e-16 -3.47114 0.0976822)
(-7.72494e-16 -5.00442 -0.171064)
(-7.65133e-16 -3.87576 -0.161615)
(-7.60078e-16 -3.02651 -0.254001)
(-7.5709e-16 -2.22161 -0.301641)
(-7.55528e-16 -1.57908 -0.334477)
(-7.54764e-16 -1.02818 -0.347548)
(-7.5445e-16 -0.449907 -0.329537)
(-7.54335e-16 0.197804 -0.0751884)
(-7.54389e-16 -0.0859916 0.225403)
(-7.546e-16 0.326928 0.0483532)
(-7.54638e-16 0.201573 0.120468)
(-7.54661e-16 -0.0541182 -0.00160637)
(-7.54667e-16 0.250565 -0.136663)
(-7.54648e-16 0.201004 -0.110561)
(-7.54679e-16 0.341274 -0.241454)
(-7.54848e-16 0.449158 -0.304209)
(-7.55139e-16 0.537737 -0.365372)
(-7.55706e-16 0.625002 -0.365285)
(-7.56007e-16 0.666544 -0.371817)
(-7.57393e-16 0.858263 -0.0163614)
(-7.47751e-16 1.6247 -0.0139513)
(-7.19928e-16 2.57376 -0.145906)
(-6.81093e-16 2.00331 0.805371)
(-5.44894e-16 -3.83937 -0.130843)
(-3.7071e-16 -6.13196 -0.253915)
(6.50386e-16 0.0933583 -0.192255)
(9.97584e-16 0.939848 0.780867)
(9.80785e-16 0.223166 0.924001)
(1.00481e-15 -0.147577 1.11036)
(9.97618e-16 -0.40002 1.08483)
(1.00077e-15 -0.498045 1.07848)
(1.00625e-15 -0.655088 1.06926)
(1.00642e-15 -0.738524 1.02911)
(1.00174e-15 -0.757336 0.991202)
(9.93077e-16 -0.789423 0.872831)
(9.67268e-16 -0.671372 0.839935)
(9.39774e-16 -0.580126 0.651336)
(9.25334e-16 -0.56339 0.587124)
(9.39902e-16 -0.666873 0.661048)
(9.88059e-16 -0.783616 0.726005)
(1.05003e-15 -0.693606 0.664775)
(9.72388e-16 0.00351616 0.391894)
(3.56896e-16 0.779411 0.267255)
(1.97019e-16 0.306736 0.55174)
(1.50293e-16 0.251768 0.348035)
(5.68614e-16 2.1363 -0.472766)
(7.91219e-16 2.82257 -0.26923)
(-9.10881e-16 -0.4064 0.369011)
(-9.09953e-16 -0.470744 0.403561)
(-9.09011e-16 -0.556611 0.399595)
(-9.07747e-16 -0.647847 0.377731)
(-9.06278e-16 -0.769052 0.335378)
(-9.04722e-16 -0.923515 0.279703)
(-9.03266e-16 -1.13169 0.219729)
(-9.02086e-16 -1.40762 0.165403)
(-9.01216e-16 -1.69718 0.134307)
(-9.00237e-16 -1.25492 0.0155759)
(-8.99628e-16 -0.609509 0.124461)
(-8.99071e-16 -0.677011 0.0530174)
(-8.97502e-16 -0.544861 -0.0303128)
(-8.95813e-16 -0.434674 -0.0495701)
(-8.94172e-16 -0.4473 -0.0862686)
(-8.9254e-16 -0.428932 -0.119488)
(-8.91635e-16 -0.435558 -0.0519188)
(-8.88964e-16 -0.314457 -0.180197)
(-8.87878e-16 -0.358666 -0.131583)
(-8.86347e-16 -0.247484 -0.216166)
(-8.84552e-16 -0.194133 -0.258918)
(-8.81839e-16 -0.146705 -0.331986)
(-8.77906e-16 -0.0624818 -0.39275)
(-8.732e-16 -0.0649442 -0.45997)
(-8.70175e-16 0.0212592 -0.526336)
(-8.70886e-16 0.113533 -0.532962)
(-8.7302e-16 0.199731 -0.535949)
(-8.7504e-16 0.323917 -0.55114)
(-8.78175e-16 0.466705 -0.536776)
(-8.85076e-16 0.599358 -0.385323)
(-8.91858e-16 0.67844 -0.0777003)
(-7.83318e-16 -3.45303 0.0842272)
(-7.72472e-16 -4.9732 -0.179749)
(-7.65189e-16 -3.8575 -0.161764)
(-7.60139e-16 -3.00353 -0.249742)
(-7.57144e-16 -2.20452 -0.294581)
(-7.55568e-16 -1.5664 -0.326879)
(-7.54791e-16 -1.02499 -0.337267)
(-7.54462e-16 -0.472955 -0.321093)
(-7.5434e-16 0.175379 -0.126891)
(-7.544e-16 -0.10736 0.209561)
(-7.54578e-16 0.346555 0.0345253)
(-7.54612e-16 0.216167 0.0916719)
(-7.54668e-16 -0.00871467 -0.0435258)
(-7.54654e-16 0.225328 -0.141118)
(-7.54627e-16 0.22658 -0.152335)
(-7.54653e-16 0.365206 -0.278916)
(-7.54857e-16 0.463988 -0.337129)
(-7.55235e-16 0.545539 -0.392358)
(-7.55873e-16 0.627188 -0.375197)
(-7.56155e-16 0.62809 -0.371078)
(-7.57869e-16 0.829172 -0.0039725)
(-7.46872e-16 1.62669 -0.0525642)
(-7.17467e-16 2.49703 -0.192613)
(-6.80011e-16 1.99451 0.761097)
(-5.44117e-16 -3.76975 -0.104358)
(-3.72769e-16 -6.12706 -0.276588)
(6.43668e-16 0.00907079 -0.140531)
(9.96281e-16 0.834624 0.694605)
(9.81571e-16 0.195634 0.799451)
(1.00887e-15 -0.155822 0.996037)
(1.0026e-15 -0.39281 0.975019)
(1.00525e-15 -0.493167 0.982115)
(1.00836e-15 -0.644878 0.992003)
(1.00749e-15 -0.726179 0.966747)
(1.00148e-15 -0.745209 0.948114)
(9.88348e-16 -0.771263 0.889368)
(9.60395e-16 -0.647905 0.828283)
(9.33698e-16 -0.548695 0.6508)
(9.27024e-16 -0.551001 0.615097)
(9.50069e-16 -0.663172 0.710835)
(1.00289e-15 -0.778378 0.782572)
(1.04939e-15 -0.655392 0.684112)
(8.895e-16 -0.11717 0.250045)
(4.02853e-16 0.783576 0.3557)
(3.01661e-16 0.39332 0.363116)
(1.86968e-16 0.278219 0.284538)
(5.92842e-16 2.15431 -0.470766)
(7.95822e-16 2.78513 -0.260911)
(-9.10793e-16 -0.411434 0.370044)
(-9.09809e-16 -0.473949 0.40103)
(-9.08849e-16 -0.554928 0.394366)
(-9.07586e-16 -0.642853 0.370688)
(-9.06144e-16 -0.760986 0.328498)
(-9.0463e-16 -0.913451 0.27489)
(-9.03216e-16 -1.12163 0.21883)
(-9.02065e-16 -1.39987 0.168465)
(-9.01203e-16 -1.68442 0.139957)
(-9.00229e-16 -1.25138 0.0231325)
(-8.99621e-16 -0.611587 0.117362)
(-8.99062e-16 -0.66006 0.0442178)
(-8.97548e-16 -0.528899 -0.0349094)
(-8.9593e-16 -0.427543 -0.0575419)
(-8.94274e-16 -0.441569 -0.0948345)
(-8.92542e-16 -0.429151 -0.133294)
(-8.91438e-16 -0.434213 -0.0695592)
(-8.89106e-16 -0.316519 -0.152917)
(-8.8809e-16 -0.350175 -0.105112)
(-8.87039e-16 -0.241202 -0.163762)
(-8.84832e-16 -0.180522 -0.214328)
(-8.81422e-16 -0.125745 -0.292645)
(-8.77103e-16 -0.049373 -0.365084)
(-8.72189e-16 -0.0450914 -0.44789)
(-8.68821e-16 0.0258553 -0.520905)
(-8.68726e-16 0.11413 -0.534387)
(-8.70166e-16 0.197865 -0.534542)
(-8.72061e-16 0.317818 -0.543089)
(-8.75559e-16 0.447848 -0.516308)
(-8.8331e-16 0.558247 -0.367917)
(-8.91601e-16 0.628358 -0.083993)
(-7.83471e-16 -3.4354 0.0726446)
(-7.72443e-16 -4.95086 -0.187318)
(-7.65245e-16 -3.84818 -0.162597)
(-7.60201e-16 -2.98922 -0.246771)
(-7.57198e-16 -2.19508 -0.289198)
(-7.55608e-16 -1.56049 -0.321397)
(-7.54817e-16 -1.02628 -0.330007)
(-7.54474e-16 -0.493227 -0.315086)
(-7.54344e-16 0.130715 -0.148839)
(-7.54407e-16 -0.110877 0.189733)
(-7.54545e-16 0.348049 -0.000572085)
(-7.5456e-16 0.221757 0.0549736)
(-7.54658e-16 0.0533689 -0.0847101)
(-7.54628e-16 0.212099 -0.142346)
(-7.54596e-16 0.244085 -0.195643)
(-7.5462e-16 0.380772 -0.316032)
(-7.5488e-16 0.472759 -0.376822)
(-7.55372e-16 0.544974 -0.428602)
(-7.56065e-16 0.618541 -0.386262)
(-7.56357e-16 0.589685 -0.372179)
(-7.58392e-16 0.806244 -0.005691)
(-7.45921e-16 1.62866 -0.107492)
(-7.14966e-16 2.428 -0.25072)
(-6.7885e-16 1.98819 0.705889)
(-5.43453e-16 -3.67908 -0.0823695)
(-3.75316e-16 -6.11555 -0.3029)
(6.13184e-16 -0.187215 0.0399778)
(9.9629e-16 0.77259 0.635746)
(9.81529e-16 0.169045 0.685888)
(1.01146e-15 -0.166128 0.890012)
(1.00682e-15 -0.390471 0.871879)
(1.00907e-15 -0.500314 0.893476)
(1.01027e-15 -0.641254 0.915878)
(1.00808e-15 -0.718628 0.89807)
(1.00019e-15 -0.744005 0.897536)
(9.83447e-16 -0.755345 0.869793)
(9.53638e-16 -0.619858 0.792356)
(9.29699e-16 -0.524801 0.659099)
(9.31737e-16 -0.561293 0.662967)
(9.61656e-16 -0.681037 0.77247)
(1.0121e-15 -0.77294 0.830533)
(1.01429e-15 -0.580916 0.686941)
(5.74363e-16 -0.0851734 0.090167)
(4.43994e-16 0.737593 0.440035)
(3.94701e-16 0.385256 0.331313)
(3.94012e-16 0.696872 0.079493)
(6.1908e-16 2.14511 -0.450268)
(7.96136e-16 2.74683 -0.19228)
(-9.10698e-16 -0.415005 0.372442)
(-9.09659e-16 -0.474993 0.399457)
(-9.08684e-16 -0.550868 0.389919)
(-9.07425e-16 -0.63548 0.364581)
(-9.06013e-16 -0.750925 0.322544)
(-9.0454e-16 -0.902273 0.270834)
(-9.03167e-16 -1.11168 0.218377)
(-9.02043e-16 -1.39296 0.1711)
(-9.01189e-16 -1.67242 0.144216)
(-9.00222e-16 -1.24738 0.0294289)
(-8.99615e-16 -0.613177 0.111558)
(-8.99061e-16 -0.645993 0.0357095)
(-8.97609e-16 -0.514307 -0.0429877)
(-8.96012e-16 -0.419658 -0.0696192)
(-8.94262e-16 -0.434711 -0.108141)
(-8.92356e-16 -0.428948 -0.143402)
(-8.91068e-16 -0.434554 -0.0758463)
(-8.89066e-16 -0.321207 -0.13684)
(-8.88657e-16 -0.343353 -0.0729399)
(-8.87615e-16 -0.234384 -0.131851)
(-8.8477e-16 -0.165598 -0.19012)
(-8.8053e-16 -0.104468 -0.270102)
(-8.75572e-16 -0.035867 -0.351845)
(-8.70435e-16 -0.0234982 -0.450933)
(-8.66927e-16 0.0338188 -0.52755)
(-8.66463e-16 0.114934 -0.54262)
(-8.67486e-16 0.197802 -0.537866)
(-8.69336e-16 0.314168 -0.539251)
(-8.73085e-16 0.43099 -0.498223)
(-8.81595e-16 0.519552 -0.35438)
(-8.91248e-16 0.580587 -0.0895202)
(-7.83692e-16 -3.42028 0.0617772)
(-7.7241e-16 -4.93429 -0.194152)
(-7.653e-16 -3.84394 -0.163558)
(-7.60263e-16 -2.97929 -0.244486)
(-7.57252e-16 -2.18896 -0.284856)
(-7.55648e-16 -1.55741 -0.317437)
(-7.54845e-16 -1.02952 -0.325246)
(-7.54487e-16 -0.51464 -0.311309)