/*--------------------------------*- C++ -*----------------------------------*\
| =========                 |                                                 |
| \\      /  F ield         | OpenFOAM: The Open Source CFD Toolbox           |
|  \\    /   O peration     | Version:  4.1                                   |
|   \\  /    A nd           | Web:      www.OpenFOAM.org                      |
|    \\/     M anipulation  |                                                 |
\*---------------------------------------------------------------------------*/
FoamFile
{
    version     2.0;
    format      ascii;
    class       volScalarField;
    location    "22";
    object      p;
}
// * * * * * * * * * * * * * * * * * * * * * * * * * * * * * * * * * * * * * //

dimensions      [0 2 -2 0 0 0 0];

internalField   nonuniform List<scalar> 
6785
(
5078.55
5014.2
4962.96
4913.35
4867.33
4824.13
4783.58
4745.42
4709.45
4675.19
4642.37
4612.36
4584.53
4550.46
4517.31
4542.62
4524.73
4527.21
4522.78
4519.17
4515.51
4512.25
4509.62
4507.81
4506.95
4506.99
4508.22
4511.43
4514.99
4515.54
4488.31
4482.73
4492.32
4491.89
4495.2
4497.69
4500.35
4502.9
4505.31
4507.58
4509.57
4511.1
4512.45
4514.35
4515.95
4544.92
4543.19
4548.5
4545.3
4546.17
4545.19
4544.54
4543.75
4543
4542.3
4541.68
4541.06
4540.4
4540.34
4541.89
4554.34
4553.2
4556.31
4553.54
4555.25
4554.85
4555.38
4555.81
4556.41
4557.02
4557.57
4558.06
4558.68
4559.5
4560.84
4553.12
4552.1
4554.62
4552.71
4554.79
4554.49
4555.35
4555.73
4556.14
4556.26
4556.15
4555.92
4555.68
4555.49
4555.49
4549.84
4548.47
4550.02
4547.92
4549.07
4547.89
4547.94
4547.34
4546.9
4546.28
4545.66
4544.98
4544.16
4543.28
4542.54
4537.12
4535.58
4536.18
4533.95
4534.33
4532.68
4532.2
4531.11
4530.28
4529.49
4528.9
4528.32
4527.56
4526.99
4526.97
4525.32
4524.28
4524.78
4522.96
4523.35
4522
4521.68
4520.9
4520.32
4519.84
4519.57
4519.4
4519.28
4519.48
4520.25
4521.87
4522
4522.88
4521.91
4522.72
4522.18
4522.43
4522.32
4522.32
4522.39
4522.55
4522.79
4523.12
4523.56
4524.38
4530.52
4531.06
4531.79
4531.19
4532
4531.7
4532.06
4531.99
4532.16
4532.38
4532.66
4532.94
4533.29
4533.59
4534.1
4526.48
4528.29
4529.49
4529.66
4530.98
4531.32
4532.22
4532.87
4533.62
4534.32
4534.99
4535.55
4536.08
4536.54
4537.27
4559.19
4559.06
4558.65
4557.84
4557.89
4557.25
4556.92
4556.24
4555.75
4555.27
4554.77
4554.09
4553.35
4553.3
4553.79
4482.42
4488.36
4497.09
4503.81
4511.05
4516.58
4521.94
4526.44
4530.24
4533.09
4535.09
4537.02
4539.61
4543.57
4548.03
4685.65
4710.86
4714.37
4714.34
4708.9
4702.25
4694
4681.86
4668.36
4651.34
4632.76
4623.46
4634.43
4647.44
4648.42
4480.84
4481.69
4481.66
4480.5
4482.25
4473.74
4470.94
4469.5
4472.89
4459.79
4455.7
4462.72
4449.99
4438.68
4438.03
4446.48
4427.86
4418.36
4433.53
4418.12
4398.77
4398.56
4414.65
4399.87
4377.51
4379.38
4395.63
4372.91
4358.47
4383.83
4367.94
4341.27
4343.33
4362.95
4342.64
4325.31
4353.28
4343.48
4316.66
4317.75
4340.66
4337.24
4312.6
4314.86
4334.87
4328.04
4314.75
4339.51
4341.65
4326.55
4327.41
4345.85
4352.25
4341.63
4342.88
4357.94
4361.93
4358.74
4373.35
4380.31
4380.44
4380.89
4390.51
4397.69
4401.64
4408.62
4416.51
4423.78
4424.17
4428.59
4436.79
4445.29
4445.08
4447.64
4456.19
4463.02
4462.33
4469.82
4475.8
4475.46
4474.73
4473.41
4473.71
4440.82
4475.5
4465.54
4458.63
4455.29
4450.91
4445.93
4441.53
4434.1
4378.12
4388.29
4368.16
4357.91
4350.59
4337.88
4326.03
4320.19
4313.73
4288.53
4310.12
4278.02
4286.61
4289.75
4288.73
4290.53
4291.61
4291.97
4291.9
4257.07
4327.9
4291.25
4293.73
4298.87
4296.74
4295.86
4296
4292.84
4249.98
4313.96
4269.31
4268.09
4271.36
4265.82
4260.44
4259.84
4251.08
4176.51
4239.4
4178.05
4172.08
4178.24
4170.81
4161.51
4158.74
4147.76
4079.25
4100.88
4011.53
4007.43
4017.53
4006.32
3994.51
3983.15
3982.21
3966.75
3900.97
3870.2
3736.05
3736.86
3751.84
3738.57
3722.48
3711.86
3669.23
3645.32
3525.39
3343.23
3194.67
3548.54
4115.74
3432.82
3379.37
3422.51
3395.86
4070.36
3474.44
3018.72
4041.3
3340.1
3024.36
3167.3
3011.96
4127.46
3177.3
2713.6
2947.12
2723.35
4082.55
3133.23
1993.87
3975.89
2912.95
2047.25
2449.88
2091.73
4114.79
2618.73
1615.96
2112.63
1727.47
3982.36
2558.99
709.931
3726.01
2267.02
967.688
1538.83
1106.87
3880.86
1933.53
629.927
1240.65
854.271
3623.7
1919.25
-164.496
3218.99
1604.1
252.066
802.676
441.001
3254.56
1267.78
0.377619
541.049
224.716
2783.12
1172.72
-712.95
2254.16
825.297
-391.744
62.7962
-275.815
2104.61
432.467
-703.645
-243.35
-564.431
1605.14
269.9
-1422.87
1172.16
-44.3548
-1179.89
-770.712
-1001.94
-13.3013
-0.790117
2.01445
9.45642
20.1337
27.7581
37.1601
44.5047
52.4396
60.7742
69.3233
75.5579
78.7314
83.2325
89.7829
100.725
105.054
102.762
104.766
103.405
103.829
101.535
96.0276
91.0103
85.6723
79.1779
66.2267
54.2084
31.4979
14.1332
5.64842
-8.33121
-2.58994
7.93283
19.3374
24.8252
41.1863
29.6702
189.111
120.487
40.9201
12.8885
2.16437
-4.3722
0.946447
-0.12886
-9.5517
-18.294
-10.9304
-17.4747
-24.81
-27.6878
-21.8112
-4.23242
4.72788
6.97831
-20.4372
-16.0999
-80.1059
323.038
-0.0514082
-36.5364
-29.9796
-19.3381
-11.2382
-3.6911
3.44461
9.76299
15.0847
18.9905
21.4572
23.1682
26.6055
28.4444
36.1717
34.6353
34.3381
35.5947
3.02826
-19.8777
-1.50592
9.70666
24.6702
48.0752
66.08
87.8877
106.716
127.488
148.757
168.591
182.947
194.999
208.895
225.956
242.147
246.289
247.552
250.415
248.234
245.623
240.383
228.889
215.14
201.759
186.987
157.257
128.873
76.4653
38.5854
23.6262
-1.73352
-12.292
12.6513
55.4836
60.86
96.3177
99.5573
390.16
241.665
91.9089
35.346
10.6352
-2.82491
2.30825
2.64022
5.04969
3.65237
-13.707
-54.0073
-76.9231
-83.2946
-64.9088
-20.0554
-6.73693
20.9367
-17.3125
-34.7697
-266.407
457.073
-64.3662
-89.6173
-59.3627
-27.9254
-5.71452
12.4799
27.62
39.8655
49.7776
57.3935
62.7962
65.3367
68.1498
64.2757
74.2237
59.1224
73.8134
76.7243
25.9993
-10.6496
5.84184
23.8757
40.339
68.6675
90.0609
116.893
140.614
166.617
192.362
216.018
234.364
251.232
269.138
288.221
303.561
307.346
311.135
313.42
311.027
306.246
299.311
286.064
269.62
252.496
234.321
200.132
167.272
109.328
67.397
46.6773
21.4235
-6.25606
30.0489
91.7062
105.41
163.902
165.763
459.192
272.792
113.405
50.1788
20.8783
4.51949
5.94822
6.41624
-0.627846
-9.99714
-27.9908
-85.5881
-122.165
-135.6
-108.189
-35.1459
-8.62083
18.2567
-67.8318
-67.795
-391.916
271.858
-84.516
-59.52
-34.0197
-1.03139
23.6128
44.4053
61.7279
75.5732
86.6776
95.1758
102.443
106.956
114.704
111.903
126.851
108.278
132.341
143.049
127.053
-3.1987
12.755
38.3291
55.8558
89.1067
113.171
144.488
172.161
202.183
231.197
258.051
280.155
300.42
320.888
340.515
356.226
360.922
365.555
367.249
364.708
358.918
350.637
336.113
318.441
298.598
277.701
241.056
205.676
144.245
99.0026
70.2641
46.3055
3.37925
47.0296
127.213
146.325
222.794
227.873
505.966
297.752
132.792
64.4707
31.4
13.1125
10.3722
11.9198
1.97362
-8.45308
-36.7826
-115.293
-164.84
-185.069
-152.921
-50.2888
-6.61608
30.2196
-89.6495
-101.259
-467.183
130.803
-97.9086
-35.6427
-14.6229
20.3872
48.056
72.3366
92.7922
109.07
122.129
132.309
141.688
147.306
157.128
152.872
172.692
149.959
185.437
202.533
164.44
1.54762
17.8429
51.8549
71.3535
111.212
139.213
176.436
209.232
244.656
278.556
310.102
336.778
361.104
385.106
407.003
424.603
430.475
436.048
437.589
434.872
428.109
418.327
401.747
381.775
358.531
333.964
292.618
252.511
183.222
131.745
94.6297
71.2189
19.9119
66.8398
162.04
188.16
278.906
283.732
556.42
338.324
159.058
81.7802
42.5141
22.4647
16.1065
18.9979
2.91372
-9.91361
-45.1983
-140.472
-201.707
-230.191
-197.533
-65.3756
-2.09185
32.1106
-118.995
-135.261
-550.456
36.9079
-119.123
-29.8725
-5.17985
36.1271
69.0993
98.1711
122.527
141.729
157.061
168.895
179.88
186.627
199.379
194.827
219.62
194.762
240.911
265.161
289.84
7.20837
23.3202
65.7916
87.3686
134.053
166.155
209.482
247.576
288.679
327.748
364.12
395.326
423.93
451.743
476.357
495.659
502.378
509.205
510.641
507.677
499.629
488.226
469.395
446.689
419.855
391.527
345.07
299.931
222.908
165.275
121.132
97.8029
40.8164
88.2405
196.145
229.15
330.117
330.797
600.345
378.449
186.838
100.862
54.7337
33.0037
23.1737
27.6355
6.12707
-8.27814
-50.3695
-160.486
-232.177
-269.455
-241.656
-80.0983
5.55977
22.3573
-143.372
-170.795
-621.488
-57.3682
-138.694
-25.3327
5.08778
52.9664
91.2282
124.831
152.719
174.473
191.709
204.87
217.337
224.968
239.942
234.735
264.811
238.794
295.642
321.145
319.143
13.9172
29.2645
80.1352
103.466
156.65
192.49
241.601
284.662
331.099
374.947
415.77
451.219
483.854
515.176
542.175
562.846
570.284
578.283
579.515
576.297
566.969
554.007
533.115
507.931
477.803
446.105
395.275
345.885
262.865
199.671
149.591
126.183
65.9258
111.511
229.591
269.782
377.443
369.129
634.782
413.983
213.571
120.822
68.1819
44.8258
31.6442
37.7423
10.0959
-5.68003
-52.5225
-174.173
-254.471
-299.745
-284.115
-95.2473
16.2004
-8.43078
-170.7
-205.855
-659.002
-142.625
-154.955
-21.663
15.4659
69.8859
113.475
151.505
182.748
206.86
225.835
240.202
253.913
262.342
279.568
273.923
309.206
282.91
351.184
392.969
387.077
20.9145
35.2302
94.6207
119.485
179.08
218.479
273.26
321.138
372.753
421.234
466.411
506.017
542.527
577.195
606.477
628.573
636.79
645.826
646.861
643.435
632.975
618.552
595.723
568.264
535.068
500.224
445.43
392.103
303.958
235.092
179.615
156.047
94.5271
136.541
262.469
309.686
421.468
404.108
657.839
446.996
240.379
141.882
82.8842
57.9431
41.6121
49.3391
15.5633
-1.08291
-50.883
-180.864
-267.528
-319.112
-321.148
-113.246
32.7299
-44.4235
-197.129
-240.979
-666.75
-208.372
-169.596
-21.5878
24.1926
85.8214
135.172
177.758
212.36
238.779
259.431
274.887
289.701
298.817
318.022
311.888
352.409
326.437
406.126
453.355
522.283
28.1001
41.3765
109.391
135.771
201.858
244.794
305.274
357.948
414.73
467.851
517.396
561.131
601.469
639.463
671.09
694.695
703.717
713.743
714.629
711.01
699.473
683.621
658.862
629.16
592.988
555.081
496.45
439.187
346.38
271.746
211.369
187.34
126.252
163.327
294.878
348.85
462.885
434.955
668.33
475.677
268.588
164.444
98.9684
72.4464
53.1964
62.4111
22.5722
5.13216
-45.3247
-180.207
-270.581
-326.785
-350.282
-136.341
52.5968
-65.4615
-220.233
-275.536
-647.831
-255.794
-182.529
-24.368
31.7071
101.084
156.539
203.743
241.658
270.291
292.506
308.915
324.668
334.404
355.46
348.853
394.451
369.29
460.484
509.543
562.759
35.5517
47.8498
124.475
152.439
225.061
271.513
337.702
395.138
457.049
514.772
568.645
616.44
660.551
701.837
735.815
760.912
770.709
781.696
782.453
778.626
766.005
748.726
722.043
690.125
651.065
610.21
547.936
486.854
389.947
309.719
245.08
220.064
160.605
191.812
326.926
387.246
502.131
463.839
676.208
504.291
298.803
188.708
116.601
88.4687
66.5086
76.8917
31.2544
12.876
-35.824
-172.36
-263.404
-322.076
-365.032
-165.21
57.3431
-76.4434
-238.577
-310.013
-605.348
-287.584
-193.724
-29.1997
38.3087
115.79
177.615
229.464
270.632
301.377
325.036
342.282
358.857
369.149
391.859
384.738
435.234
411.244
514.644
579.486
635.074
43.2383
54.5933
139.749
169.357
248.477
298.402
370.285
432.426
499.4
561.656
619.791
671.572
719.389
763.904
800.198
826.752
837.309
849.213
849.848
845.803
832.106
813.416
784.852
750.799
708.975
665.317
599.674
535.003
434.552
348.977
280.654
254.174
197.167
221.934
358.743
424.935
539.548
496.201
681.089
535.177
331.859
214.836
135.927
106.128
81.6543
92.7275
41.6056
21.8763
-22.6508
-157.865
-246.31
-303.88
-358.154
-200.188
27.6192
-92.0572
-255.086
-344.594
-546.507
-306.713
-203.868
-35.9745
43.9033
129.85
198.314
254.853
299.236
332.016
357.008
374.988
392.272
403.065
427.253
419.584
474.709
452.141
568.137
641.729
748.798
51.0969
61.5864
155.181
186.494
272.029
325.397
402.962
469.757
541.732
608.462
670.807
726.515
777.974
825.665
864.244
892.239
903.561
916.334
916.856
912.592
897.839
877.762
847.38
811.288
766.833
720.509
651.76
583.731
480.144
389.516
317.753
289.581
235.701
253.669
390.482
461.969
575.273
529.924
685.897
568.261
368.233
242.922
157.071
125.526
98.7505
109.887
53.5927
31.9763
-6.2799
-137.587
-220.201
-273.444
-344.487
-229.701
-18.9326
-118.196
-273.713
-380.076
-479.556
-317.558
-213.824
-44.5578
48.4535
143.243
218.61
279.896
327.457
362.206
388.423
407.039
424.941
436.178
461.643
453.391
512.844
491.957
621.13
703.761
786.837
59.0562
68.8892
170.81
203.928
295.783
352.587
435.828
507.236
584.155
655.307
721.815
781.395
836.441
887.262
928.101
957.52
969.612
983.211
983.624
979.127
963.327
941.885
909.747
871.698
824.752
775.89
704.282
633.105
526.672
431.378
356.031
326.137
276.158
287.049
422.301
498.361
609.47
566.279
698.729
608.51
407.678
272.95
180.153
146.786
117.929
128.369
67.0577
42.9867
12.542
-112.654
-186.399
-234.724
-327.998
-243.38
-60.0207
-153.942
-296.678
-416.982
-411.549
-324.968
-224.519
-54.7676
51.9879
155.998
238.516
304.602
355.304
391.952
419.283
438.443
456.879
468.495
495.029
486.183
549.634
530.718
673.358
763.863
930.394
66.9999
76.5394
186.616
221.705
319.778
380.036
468.945
544.925
626.731
702.251
772.873
836.272
894.852
948.76
991.825
1022.64
1035.5
1049.88
1050.18
1045.43
1028.58
1005.79
971.951
932.023
882.73
831.471
757.247
683.137
574.11
474.582
395.328
363.555
318.297
322.106
454.354
534.086
642.259
604.488
712.57
654.268
450.045
304.905
205.303
170.066
139.33
148.178
81.8376
54.5511
32.7307
-84.4649
-146.811
-193.793
-306.548
-249.935
-93.8576
-197.667
-325.523
-456.003
-349.08
-333.146
-236.975
-66.5143
54.5866
168.197
258.083
329.006
382.807
421.263
449.599
469.21
488.103
500.022
527.404
517.988
585.104
568.577
724.798
815
956.554
74.7972
84.5284
202.517
239.825
344.005
407.746
502.312
582.823
669.461
749.294
823.983
891.152
953.214
1010.16
1055.42
1087.59
1101.23
1116.33
1116.51
1111.46
1093.55
1069.43
1033.96
992.234
940.742
887.234
810.641
733.827
622.477
519.101
435.771
401.495
361.281
358.771
486.79
569.152
673.697
642.237
731.591
703.068
494.314
338.641
232.661
195.546
163.092
169.387
97.8222
66.2316
52.9013
-54.7538
-103.935
-154.938
-283.485
-252.041
-121.832
-246.299
-360.493
-497.554
-299.663
-345.429
-252.224
-79.7316
56.4141
180.018
277.438
353.182
410.02
450.152
479.382
499.35
518.622
530.751
558.757
548.845
619.305
605.653
776.494
885.022
1025.46
82.3014
92.8524
218.417
258.282
368.451
435.723
535.931
620.936
712.349
796.445
875.156
946.05
1011.54
1071.49
1118.88
1152.38
1166.77
1182.55
1182.59
1177.19
1158.24
1132.79
1095.75
1052.31
998.767
943.156
864.454
785.17
671.81
564.94
477.561
440.008
403.988
396.854
519.74
603.602
703.826
680.054
752.974
754.206
539.278
373.914
262.354
223.389
189.351
192.167
114.893
77.5895
71.4714
-25.7625
-60.9389
-119.365
-261.545
-250.636
-144.79
-294.565
-399.906
-541.049
-271.625
-364.548
-271.173
-94.2381
57.7183
191.731
296.765
377.252
437.005
478.639
508.642
528.871
548.435
560.667
589.073
578.801
652.307
642.068
827.741
940.34
1149.63
89.3577
101.535
234.222
277.083
393.109
463.979
569.819
659.283
755.418
843.727
926.417
1001
1069.87
1132.76
1182.24
1217.01
1232.14
1248.54
1248.39
1242.61
1222.6
1195.85
1157.29
1112.23
1056.77
999.198
918.669
837.165
722.15
612.205
520.815
479.626
445.854
436.063
553.293
637.46
732.674
717.024
772.135
803.487
584.072
410.554
294.481
253.725
218.218
216.596
132.876
88.1591
86.7064
-0.31182
-21.5597
-87.3194
-242.091
-247.555
-162.819
-336.892
-441.464
-584.996
-273.791
-392.789
-294.419
-109.596
58.8826
203.674
316.285
401.364
463.81
506.751
537.391
557.777
577.533
589.744
618.343
607.911
684.214
678.123
878.802
989.239
1189.8
95.7848
110.626
249.819
296.228
417.963
492.528
603.998
697.887
798.692
891.165
977.797
1056.03
1128.23
1194.02
1245.5
1281.49
1297.33
1314.26
1313.9
1307.69
1286.63
1258.57
1218.56
1171.96
1114.72
1055.31
973.25
889.808
773.523
661.009
565.655
520.886
487.438
476.208
587.509
670.753
760.226
752.059
794.221
848.98
627.406
448.358
329.102
286.631
249.734
242.613
151.554
97.4656
96.7774
18.4767
10.2924
-59.8926
-225.637
-245.16
-175.653
-370.054
-483.896
-628.98
-312.759
-431.685
-321.997
-124.989
60.5176
216.265
336.256
425.671
490.486
534.522
565.639
586.064
605.893
617.952
646.563
636.239
715.152
714.002
930.436
1056.78
1267.82
101.362
120.171
265.075
315.704
442.982
521.378
638.482
736.767
842.189
938.782
1029.32
1111.18
1186.65
1255.26
1308.67
1345.8
1362.31
1379.71
1379.09
1372.41
1350.28
1320.92
1279.5
1231.46
1172.55
1111.43
1028.13
943.078
825.937
711.366
612.186
564.098
529.96
517.33
622.446
703.61
786.403
785.237
816.789
890.132
668.203
487.12
366.232
322.165
283.862
270.183
170.734
105.087
99.8832
27.5076
31.052
-39.0775
-212.296
-244.56
-184.889
-393.417
-525.783
-674.666
-386.301
-481.518
-353.278
-139.174
63.4925
230.045
357.005
450.323
517.114
561.991
593.397
613.72
633.481
645.254
673.744
663.853
745.269
749.846
982.385
1115.96
1379.51
105.915
130.173
279.859
335.489
468.125
550.533
673.285
775.938
885.929
986.597
1081.01
1166.48
1245.16
1316.49
1371.73
1409.93
1427.06
1444.85
1443.93
1436.73
1413.52
1382.86
1340.08
1290.67
1230.22
1167.52
1083.23
996.914
879.383
763.232
660.613
609.358
574.316
559.717
658.221
736.395
811.208
816.505
836.139
924.446
705.99
526.739
405.86
360.313
320.518
299.342
190.329
110.723
94.3131
23.6674
37.8084
-27.2359
-202.152
-246.401
-193.753
-407.408
-563.2
-723.006
-487.24
-541.913
-387.271
-150.603
68.8782
245.67
378.89
475.478
543.797
589.198
620.669
640.721
660.257
671.618
699.915
690.83
774.734
785.855
1035.08
1176.33
1424.37
109.245
140.645
294.044
355.557
493.345
579.991
708.418
815.417
929.932
1034.64
1132.9
1221.96
1303.79
1377.72
1434.67
1473.82
1491.55
1509.67
1508.42
1500.65
1476.33
1444.39
1400.26
1349.57
1287.68
1223.52
1138.49
1051.23
933.828
816.576
711.344
656.728
620.845
603.911
694.958
769.69
834.988
845.536
852.799
950.146
740.584
567.187
447.945
401.025
359.691
330.249
210.339
114.176
78.5283
4.06243
28.3064
-26.6642
-195.413
-251.275
-205.372
-414.2
-591.911
-771.024
-611.922
-613.744
-422.915
-157.668
77.8418
263.827
402.233
501.309
570.627
616.17
647.447
667.032
686.184
697.023
725.128
717.256
803.735
822.197
1088.44
1236.64
1562.37
111.15
151.588
307.472
375.87
518.586
609.749
743.887
855.219
974.222
1082.93
1185
1277.64
1362.55
1438.91
1497.43
1537.45
1555.75
1574.14
1572.55
1564.17
1538.72
1505.51
1460.06
1408.12
1344.9
1279.4
1193.84
1105.95
989.196
871.408
764.64
706.334
669.57
650.172
732.673
803.799
858.426
872.117
867.534
967.736
771.996
608.457
492.429
444.263
401.278
362.943
230.795
115.311
51.4594
-33.3303
1.01485
-38.6612
-192.087
-259.175
-222.263
-419.039
-612.205
-814.577
-760.511
-699.601
-458.854
-158.759
91.4796
285.177
427.321
527.967
597.654
642.909
673.703
692.605
711.231
721.467
749.459
743.22
832.479
859.121
1142.48
1286.56
1604.66
111.53
163.045
319.965
396.386
543.785
639.799
779.697
895.359
1018.82
1131.51
1237.35
1333.53
1421.44
1500.05
1560
1600.77
1619.65
1638.28
1636.33
1627.31
1600.7
1566.25
1519.49
1466.34
1401.83
1335.07
1249.19
1160.97
1045.36
927.692
820.304
758.467
720.457
698.294
771.33
838.457
882.287
896.464
880.283
978.495
800.448
650.572
539.226
489.9
444.847
396.969
251.732
114.098
12.7601
-89.1823
-44.6234
-62.7866
-191.879
-269.631
-245.202
-427.972
-628.592
-854.551
-933.347
-799.641
-493.398
-152.41
110.5
310.126
454.34
555.499
624.862
669.371
699.381
717.388
735.385
744.972
773.008
768.819
861.181
896.782
1198.16
1360.71
1683.56
110.199
174.921
331.389
417.054
568.883
670.133
815.853
935.848
1063.76
1180.43
1289.99
1389.63
1480.44
1561.12
1622.34
1663.78
1683.24
1702.07
1699.78
1690.07
1662.28
1626.61
1578.59
1524.23
1458.48
1390.48
1304.41
1216.1
1102.08
985.209
877.895
813.295
773.365
747.935
810.824
873.211
906.92
918.993
890.597
982.866
826.354
693.608
588.198
537.696
489.917
431.95
273.255
110.644
-37.0453
-162.614
-107.523
-97.096
-193.731
-282.178
-273.475
-443.771
-646.126
-896.792
-1126.78
-909.682
-525.11
-138.33
134.856
338.552
483.249
583.833
652.164
695.468
724.399
741.327
758.65
767.588
795.895
794.155
890.067
935.263
1254.84
1421.11
1816.12
106.993
187.019
341.647
437.807
593.824
700.747
852.362
976.7
1109.05
1229.69
1342.91
1445.92
1539.49
1622.07
1684.45
1726.49
1746.54
1765.54
1762.91
1752.47
1723.47
1686.6
1637.36
1581.83
1514.83
1445.59
1359.36
1271.12
1159.04
1043.54
936.909
870.217
827.778
798.567
850.982
907.609
931.89
940.322
898.561
981.246
850.218
737.656
639.184
587.424
536.27
467.993
295.554
105.225
-96.3633
-251.182
-185.21
-138.632
-196.373
-295.88
-304.96
-464.953
-669.852
-947.28
-1332.78
-1025.14
-553.295
-117.915
163.642
369.873
513.786
612.795
679.428
721.089
748.675
764.385
781.047
789.383
818.249
819.332
919.373
974.845
1312.68
1475.76
1875.24
101.833
199.141
350.647
458.547
618.563
731.641
889.24
1017.93
1154.72
1279.32
1396.13
1502.38
1598.54
1682.9
1746.32
1788.94
1809.6
1828.72
1825.75
1814.54
1784.28
1746.22
1695.81
1639.13
1570.92
1500.42
1413.97
1325.81
1215.81
1102.16
996.682
928.224
883.099
849.696
891.644
941.499
956.812
961.077
904.104
974.527
872.649
782.795
692.011
638.874
583.819
505.111
318.786
98.4338
-162.531
-350.273
-273.819
-184.092
-199.549
-309.587
-335.983
-489.35
-703.129
-1008.46
-1541.31
-1143.4
-577.615
-93.2039
195.444
403.242
545.483
642.155
706.511
746.135
772.141
786.547
802.614
810.438
840.203
844.463
949.335
1015.67
1372.41
1551.69
1954.53
94.4983
210.987
358.346
479.151
643.062
762.826
926.513
1059.55
1200.81
1329.35
1449.67
1558.98
1657.58
1743.58
1807.96
1851.17
1872.47
1891.69
1888.34
1876.3
1844.71
1805.49
1753.92
1696.12
1626.72
1554.97
1468.28
1380.11
1272.12
1160.6
1056.52
986.723
939.146
901.224
932.6
974.738
981.543
981.622
907.918
963.898
894.353
829.084
746.476
691.834
632.436
543.155
343.084
91.2946
-232.021
-452.937
-366.97
-229.791
-203.304
-321.816
-364.043
-515.51
-744.138
-1079.12
-1743.27
-1261.49
-597.507
-65.6976
229.013
437.851
577.771
671.648
733.267
770.529
794.764
807.83
823.391
830.843
861.896
869.672
980.187
1057.83
1433.83
1620.71
2074.87
84.672
222.212
364.733
499.483
667.304
794.333
964.189
1101.62
1247.37
1379.82
1503.5
1615.69
1716.56
1804.1
1869.41
1913.22
1935.23
1954.51
1950.73
1937.79
1904.78
1864.39
1811.66
1752.75
1682.2
1609.23
1522.33
1434.09
1327.91
1218.6
1116.06
1045.48
996.004
953.26
973.674
1006.99
1005.89
1002.18
911.8
950.622
916.107
876.555
802.337
746.156
681.994
581.989
368.558
85.2733
-300.749
-551.436
-457.499
-271.753
-206.97
-330.827
-388.898
-541.618
-788.487
-1156.26
-1934.18
-1373.84
-612.071
-36.1168
263.637
473.194
610.261
701.033
759.561
794.214
816.537
828.273
843.416
850.696
883.465
895.1
1012.17
1101.49
1497.26
1692.25
2140.06
71.9722
232.339
369.836
519.391
691.286
826.196
1002.29
1144.21
1294.46
1430.74
1557.6
1672.47
1775.47
1864.49
1930.73
1975.17
1997.92
2017.23
2012.99
1999.04
1964.53
1922.93
1869.02
1808.98
1737.29
1663.14
1576.05
1487.75
1383.25
1276.1
1175.27
1104.3
1053.63
1005.81
1014.74
1038.01
1029.66
1022.82
918.177
936.073
938.765
925.18
859.303
801.489
732.202
621.379
395.318
82.1239
-364.36
-637.911
-538.65
-306.895
-210.321
-336.979
-410.022
-565.991
-832.209
-1236.17
-2113.14
-1474.05
-620.29
-4.81111
298.974
508.995
642.78
730.146
785.29
817.148
837.472
847.929
862.732
870.113
905.063
920.922
1045.52
1146.82
1562.74
1766.1
2263.34
55.9356
240.67
373.78
538.715
715.033
858.386
1040.82
1187.38
1342.11
1482.09
1611.91
1729.27
1834.34
1924.82
1991.99
2037.11
2060.61
2079.89
2075.15
2060.1
2024
1981.14
1925.99
1864.75
1791.91
1716.6
1629.34
1541.01
1438.11
1333.08
1234.08
1162.96
1111.8
1058.74
1055.72
1067.69
1052.59
1043.55
928.702
922.105
963.186
974.848
917.032
857.351
782.77
661.025
423.473
83.5868
-418.432
-705.531
-603.856
-332.722
-214.064
-342.226
-426.161
-587.306
-870.999
-1314.23
-2277.73
-1557.43
-621.326
28.0876
334.914
545.094
675.213
758.868
810.384
839.308
857.595
866.858
881.414
889.239
926.861
947.353
1080.46
1194.04
1630.25
1830.27
2336.88
36.4732
246.19
376.689
557.293
738.592
890.797
1079.79
1231.16
1390.36
1533.82
1666.36
1786.09
1893.23
1985.15
2053.29
2099.12
2123.38
2142.55
2137.27
2121
2083.23
2039.02
1982.58
1920.05
1846
1769.5
1682.06
1593.7
1492.34
1389.45
1292.38
1221.28
1170.21
1111.85
1096.56
1096
1074.6
1064.38
942.836
911.733
990.12
1025.35
975.156
913.5
833.421
700.557
453.115
91.0818
-458.765
-749.673
-647.612
-347.668
-218.065
-347.384
-436.465
-604.122
-900.673
-1384.69
-2421.95
-1620.8
-614.55
62.754
371.423
581.368
707.431
787.099
834.8
860.701
876.951
885.128
899.586
908.266
949.061
974.637
1117.16
1243.28
1700.51
1917.39
2424.04
13.6441
247.669
378.682
574.99
762.016
923.422
1119.21
1275.58
1439.2
1585.86
1720.91
1842.99
1952.21
2045.57
2114.69
2161.28
2186.31
2205.28
2199.38
2181.79
2142.25
2096.59
2038.78
1974.86
1899.51
1821.76
1734.1
1645.69
1545.81
1445.07
1349.99
1279.12
1228.52
1164.88
1137.22
1122.96
1095.86
1085.44
959.887
908.964
1019.99
1076.38
1033.26
969.562
883.932
739.623
484.303
105.501
-481.933
-768.245
-666.133
-351.101
-221.378
-352.099
-440.911
-614.969
-918.525
-1441.56
-2538.69
-1661.03
-599.469
99.5272
408.453
617.732
739.312
814.75
858.5
881.37
895.619
902.854
917.44
927.446
971.891
1002.99
1155.69
1294.59
1773.16
1993.97
2554.91
-12.359
244.373
379.911
591.726
785.331
956.385
1159.18
1320.72
1488.54
1638.11
1775.55
1900.05
2011.35
2106.13
2176.26
2223.67
2249.46
2268.13
2261.52
2242.48
2201.09
2153.87
2094.62
2029.19
1952.43
1873.34
1785.36
1696.87
1598.38
1499.81
1406.76
1336.36
1286.35
1217.54
1177.67
1148.9
1116.69
1106.95
979.252
916.331
1052.73
1127.64
1090.9
1025.03
934.406
777.945
517.067
127.065
-485.781
-761.451
-658.155
-343.349
-223.579
-356.092
-440.675
-618.63
-923.67
-1480.05
-2622.83
-1674.76
-575.736
138.695
445.997
654.144
770.786
841.794
881.522
901.403
913.731
920.228
935.255
947.069
995.569
1032.58
1196.14
1348.18
1848.17
2065.75
2643.08
-41.2056
236.666
380.399
607.487
808.526
989.753
1199.81
1366.59
1538.27
1690.49
1830.39
1957.37
2070.73
2166.89
2238.05
2286.34
2312.88
2331.15
2323.7
2303.11
2259.74
2210.86
2150.07
2083.01
2004.74
1924.2
1835.79
1747.14
1649.93
1553.53
1462.54
1392.91
1343.3
1269.53
1217.88
1174.43
1137.34
1129.18
1000.4
934.473
1088.19
1178.81
1147.63
1079.63
984.292
815.188
551.631
155.092
-469.53
-731.272
-625.679
-325.741
-224.487
-359.227
-437.794
-614.746
-916.209
-1497.08
-2671.06
-1659.26
-543.207
180.423
484.095
690.522
801.813
868.245
904.013
920.976
931.492
937.524
953.35
967.412
1020.26
1063.53
1238.56
1404.17
1925.95
2155.04
2742.05
-72.6295
225.68
380.167
622.357
831.636
1023.51
1241.15
1413.09
1588.23
1743.03
1885.53
2015.03
2130.41
2227.91
2300.11
2349.3
2376.58
2394.35
2385.94
2363.66
2318.2
2267.54
2205.13
2136.31
2056.42
1974.34
1885.35
1796.42
1700.35
1606.08
1517.13
1448.72
1399.04
1320.56
1257.89
1200.24
1158.17
1152.24
1024.18
963.527
1126.41
1229.58
1203
1133.05
1032.84
851.376
588.577
187.504
-433.541
-680.537
-572.781
-300.35
-224.456
-362.029
-433.918
-603.692
-896.355
-1491.78
-2682.02
-1613.28
-501.952
224.762
522.805
726.797
832.448
894.216
926.163
940.301
949.127
955.029
972.029
988.692
1046.07
1095.95
1283.01
1462.63
2006.26
2239.34
2874.63
-106.462
213.266
379.472
636.491
854.772
1057.69
1283.16
1460.04
1638.32
1795.84
1941.1
2073.13
2190.44
2289.21
2362.45
2412.58
2440.55
2457.72
2448.23
2424.11
2376.45
2323.89
2259.77
2189.07
2107.45
2023.74
1934.02
1844.66
1749.51
1657.33
1570.33
1503.71
1453.35
1370.42
1297.77
1226.88
1179.83
1176.02
1051.18
1002.43
1167.64
1279.56
1256.66
1184.9
1080.27
886.895
628.191
220.274
-379.69
-612.212
-504.606
-269.733
-225.4
-364.675
-428.336
-587.21
-864.745
-1465.27
-2656.27
-1537.35
-452.229
271.673
562.2
763.044
862.869
919.962
948.172
959.576
966.898
973.048
991.572
1011.06
1073.07
1129.91
1329.56
1523.69
2089.09
2325.33
2972.97
-142.723
201.466
378.638
650.035
878.089
1092.37
1325.72
1507.22
1688.54
1849.08
1997.22
2131.73
2250.89
2350.85
2425.11
2476.15
2504.76
2521.23
2510.55
2484.45
2434.52
2379.91
2313.95
2241.26
2157.81
2072.37
1981.75
1891.78
1797.35
1707.09
1621.9
1557.74
1506.08
1419
1337.57
1254.74
1203.04
1200.25
1080.18
1050.68
1212.59
1328.28
1308.33
1235.04
1126.39
921.9
669.448
247.495
-311.813
-528.931
-426.931
-236.681
-229.946
-364.823
-418.878
-568.683
-823.202
-1418.74
-2594.68
-1433.52
-394.456
321.072
602.4
799.462
893.328
945.755
970.249
978.998
985.138
991.932
1012.22
1034.62
1101.33
1165.5
1378.27
1587.43
2174.28
2414.25
3105.39
-179.879
190.972
378.079
663.156
901.778
1127.6
1368.62
1554.5
1739.04
1902.92
2053.98
2190.91
2311.81
2412.88
2488.11
2540.02
2569.18
2584.86
2572.86
2544.66
2492.38
2435.55
2367.64
2292.83
2207.47
2120.22
2028.53
1937.76
1843.77
1755.22
1671.61
1610.57
1556.98
1466.22
1377.31
1284.17
1228.31
1225.15
1109.11
1105.64
1261.47
1375.21
1357.95
1283.54
1170.6
956.375
709.544
263.287
-234.099
-434.545
-346.175
-204.263
-236.757
-360.298
-405.647
-547.453
-773.219
-1352.95
-2497.77
-1304.79
-329.161
372.855
643.599
836.291
924.122
971.839
992.619
998.816
1004.16
1011.95
1034.11
1059.43
1130.89
1202.8
1429.23
1654.01
2261.67
2495.65
3207.03
-214.76
181.16
378.355
676.066
926.029
1163.33
1411.7
1601.91
1790.03
1957.51
2111.5
2250.76
2373.26
2475.33
2551.46
2604.17
2633.77
2648.57
2635.14
2604.71
2550.04
2490.81
2420.8
2343.74
2256.37
2167.24
2074.31
1982.52
1888.71
1801.56
1719.32
1661.87
1605.68
1512.01
1416.94
1315.48
1255.85
1251.52
1138
1160.13
1312.22
1420.05
1405.49
1330.58
1212.96
990.246
744.721
265.792
-149.679
-334.903
-267.778
-175.075
-240.516
-352.134
-390.125
-519.337
-715.751
-1270.91
-2362.97
-1158.26
-256.959
426.904
686.057
873.79
955.538
998.454
1015.51
1019.34
1024.27
1033.31
1057.3
1085.49
1161.78
1241.9
1482.56
1723.52
2351.35
2592.43
3320.67
-244.792
171.847
379.919
688.966
950.973
1199.43
1454.83
1649.61
1841.77
2013.01
2169.89
2311.37
2435.33
2538.26
2615.21
2668.61
2698.53
2712.33
2697.38
2664.59
2607.49
2545.66
2473.38
2393.94
2304.47
2213.38
2119.04
2026.04
1932.12
1846.02
1764.97
1711.3
1651.84
1556.2
1456.39
1348.75
1285.77
1280.19
1168.34
1210.75
1361.37
1462.87
1450.73
1376.28
1253.95
1023.3
772.345
260.335
-61.9098
-236.247
-195.242
-150.904
-239.351
-342.062
-373.044
-488.668
-653.399
-1176.97
-2189.34
-1001.6
-178.728
483.099
730.081
912.25
987.848
1025.83
1039.17
1040.9
1045.75
1056.1
1081.81
1112.8
1194.03
1282.92