/*--------------------------------*- C++ -*----------------------------------*\
| =========                 |                                                 |
| \\      /  F ield         | OpenFOAM: The Open Source CFD Toolbox           |
|  \\    /   O peration     | Version:  4.1                                   |
|   \\  /    A nd           | Web:      www.OpenFOAM.org                      |
|    \\/     M anipulation  |                                                 |
\*---------------------------------------------------------------------------*/
FoamFile
{
    version     2.0;
    format      ascii;
    class       surfaceScalarField;
    location    "22";
    object      phi;
}
// * * * * * * * * * * * * * * * * * * * * * * * * * * * * * * * * * * * * * //

dimensions      [0 3 -1 0 0 0 0];

internalField   nonuniform List<scalar> 
13220
(
-906.123
2206.05
-1411.24
1805.34
-1882.99
1771.66
-2244.13
1661.06
-2521.53
1577.61
-2718.72
1497.11
-2837.77
1418.96
-2879.38
1341.83
-2843.15
1263.68
-2726.48
1183.25
-2531.15
1104.87
-2255.9
1024.67
-1864.04
908.056
-1241.75
677.935
58.154
17.2419
2188.85
-10.2484
1832.88
-121.59
1883.05
-204.535
1744.06
-290.366
1663.49
-360.829
1567.62
-415.388
1473.57
-451.2
1377.68
-469.3
1281.81
-472.959
1186.94
-466.489
1098.42
-453.401
1011.62
-387.404
842.096
-135.394
426.057
-77.2276
-98.9581
2287.83
-268.619
2002.56
-433.566
2048.02
-522.171
1832.68
-602.678
1744.03
-647.935
1612.9
-668.383
1494.05
-665.509
1374.83
-643.869
1260.2
-609.673
1152.8
-563.892
1052.67
-493.906
941.806
-377.777
726.21
-191.498
240.302
-268.73
35.2786
2252.54
7.73584
2030.1
-4.0214
2059.77
26.2619
1802.39
51.3672
1718.92
102.342
1561.92
167.484
1428.9
249.735
1292.59
342.573
1167.38
440.031
1055.33
539.946
952.791
631.31
850.31
640.002
717.398
401.896
478.204
133.164
54.2959
2198.21
76.7632
2007.59
108.296
2028.2
146.615
1764.03
176.425
1689.06
216.682
1521.62
251.655
1393.88
296.075
1248.11
371.924
1091.48
491.253
935.939
611.542
832.429
669.701
792.14
616.266
770.778
382.196
712.19
515.357
-12.2992
2210.45
-56.0742
2051.31
-80.8267
2052.89
-122.018
1805.16
-165.334
1732.31
-205.575
1561.8
-251.194
1439.43
-272.19
1269.05
-215.056
1034.27
-46.5086
767.289
164.826
621.02
314.02
642.712
337.742
746.881
207.941
841.81
723.296
-18.3684
2228.78
-160.869
2193.77
-245.582
2137.56
-345.33
1904.87
-447.624
1834.57
-550.093
1664.23
-660.599
1549.9
-761.276
1369.69
-829.731
1102.69
-826.281
763.794
-718.01
512.738
-495.782
420.367
-232.831
483.809
-49.9838
658.813
673.313
80.901
2147.85
-74.6939
2349.34
-157.064
2219.91
-238.67
1986.45
-317.587
1913.46
-400.548
1747.16
-489.588
1638.93
-598.214
1478.3
-751.448
1255.91
-943.899
956.237
-1089.32
658.13
-1067.69
398.79
-803.437
219.596
-361.675
217.104
311.635
186.365
1961.48
119.836
2415.86
87.3488
2252.39
71.4235
2002.36
73.9481
1910.92
66.7991
1754.3
66.4656
1639.24
46.1317
1498.62
-27.2358
1329.27
-182.174
1111.13
-379.646
855.627
-549.732
568.647
-589.436
259.08
-396.795
24.1722
-85.1563
207.168
1754.32
222.671
2400.36
233.582
2241.48
262.018
1973.93
311.056
1861.89
353.273
1712.08
405.028
1587.5
447.895
1455.75
460.573
1316.59
417.749
1153.98
309.403
963.946
136.406
741.801
-68.8228
464.581
-168.351
124.067
-253.509
160.627
1593.7
198.892
2362.11
219.071
2221.31
248.73
1944.28
289.47
1821.17
334.791
1666.77
386.899
1535.4
434.187
1408.48
465.273
1285.52
471.089
1148.16
446.842
988.23
385.25
803.311
279.468
570.292
125.057
278.361
-128.446
112.896
1480.83
144.165
2330.86
154.396
2211.1
167.031
1931.67
192.901
1795.32
209.338
1650.36
220.66
1524.09
234.201
1394.95
248.58
1271.16
253.646
1143.13
234.933
1006.94
181.638
856.716
103.573
648.498
48.8837
333.466
-79.5629
42.1326
1438.72
126.001
2247.01
184.676
2152.45
234.421
1881.94
278.373
1751.38
343.116
1585.63
413.111
1454.11
471.111
1336.96
509.286
1232.99
556.356
1096.07
648.44
914.873
745.298
759.845
621.75
772.041
401.026
554.186
321.464
-340.347
1779.08
-522.041
2428.71
-514.773
2145.19
-502.939
1870.12
-395.461
1643.92
-290.967
1481.14
-180.69
1343.85
-68.8959
1225.18
34.3269
1129.78
56.7109
1073.69
-40.3214
1011.9
-158.509
878.056
-248.888
862.446
-246.205
551.565
75.2576
-1310.43
-1257.45
-939.886
-522.856
15.6174
500.709
1284.69
2072.86
2943.91
3759.56
3912.41
2895.46
1725.54
794.153
0.000211212
-1612.17
1612.17
-1612.17
-1612.17
-1612.17
-3081.33
1469.16
-3081.33
-3081.33
-3081.33
-4329.95
1248.62
-4329.95
-4329.95
-5406.09
1076.14
-5406.09
-5406.09
-5406.09
-6307.39
901.3
-6307.39
-6307.39
-7095.92
788.533
-7095.92
-7095.92
-7095.92
-7750.57
654.653
-7750.57
-7750.57
-7750.57
-8207.95
457.376
-8207.95
-8207.95
-8570.19
362.239
-8570.19
-8570.19
-8570.19
-8733.29
163.098
-8733.29
-8733.29
-8727.26
-6.02582
-8727.26
-8727.26
-8727.26
-8561.92
-165.34
-8561.92
-8561.92
-8561.92
-8206.43
-355.492
-8206.43
-8206.43
-7680.91
-525.519
-7680.91
-7680.91
-7680.91
-7018.04
-662.868
-7018.04
-7018.04
-7018.04
-6237.97
-780.068
-6237.97
-6237.97
-5335.8
-902.172
-5335.8
-5335.8
-5335.8
-4341.84
-993.96
-4341.84
-4341.84
-3235.72
-1106.12
-3235.72
-3235.72
-3235.72
-2046.25
-1189.47
-2046.25
-2046.25
-2046.25
-778.162
-1268.09
-778.163
-778.16
303.034
-1081.19
303.04
303.043
379.678
475.712
654.047
1936.93
-1094.95
2153.15
2390.4
2633.22
2902.95
3197.71
3510.24
3840.08
4190.26
2955.39
1583.77
3363.8
3777.65
4177.93
4586.53
4993.18
5398.16
5738.18
6004.26
6178.38
79.3956
6394.53
6571.73
6695.67
6789.48
6857.47
6906.3
6939.91
6961.29
6984.32
9370.97
-2298.79
9434.85
9503.57
9546.3
9584.1
9618.25
9660.96
9708.66
9769.21
12372
-2480.05
12455.9
12563
12659.3
12759.1
12866.2
12972.4
13079.6
13240.7
15945.7
-2497.94
16129.8
16339.4
16496.1
16663.7
16852.6
17044.6
17241.8
17466.6
20127.7
-2396.09
20403.8
20701.1
20941.9
21196.3
21476.2
21775.9
22084.4
22406.6
22762.8
24938.6
-1800.99
25373.3
25836.4
26241
26668.2
27130.5
27611.1
28126.2
28668.8
29998.3
-810.629
30636.2
31327.4
31327.4
32151.3
-823.897
32911.2
-759.925
32911.2
34050.9
-1139.69
34050.9
35437.1
-1386.21
36707.6
-1270.43
36707.6
38291.1
-1583.58
39710.5
-1419.32
39710.5
41349.6
-1639.09
41349.6
43105.2
-1755.65
44699.4
-1594.23
44699.4
46502.3
-1802.92
46502.3
48404.3
-1901.95
50135.3
-1731.05
50135.3
52082.4
-1947.07
53800.7
-1718.3
53800.7
55680.1
-1879.37
55680.1
57580.5
-1900.42
59192.1
-1611.62
59192.1
60919.9
-1727.76
60919.9
62628.9
-1708.98
63961.6
-1332.74
63961.6
65470.5
-1508.86
66509.8
-1039.28
66509.8
67649.9
-1140.14
67649.9
68771.7
-1121.76
69363.2
-591.519
69363.2
70075.7
-712.557
70075.7
70779.4
-703.709
70884
-104.615
70884
71278.7
-394.661
70985.4
293.269
70985.4
70838.4
147.065
70838.4
70736
102.411
69962.4
773.547
69962.4
69424.1
538.356
69424.1
68996
428.09
67979.8
1016.13
67979.8
67429.7
550.145
66299.8
1129.93
66299.8
65500.5
799.289
65500.5
64895.3
605.143
63840.1
1055.21
63840.1
63167.7
672.379
63167.7
62717.2
450.573
61958.5
758.706
61958.5
61701.6
256.893
61185.9
515.646
61185.9
61113.7
72.1768
61113.7
-277.278
-2856.72
11629.9
-2968.31
17775.2
-3023.76
19968
-3048.39
23691.2
-3040.71
26377.6
-2994.4
29091
-2917.69
31408.4
-2805.86
33693.7
-2651.87
35821.4
-2455.65
37572.9
-2236.5
38820.9
-2014.76
40059.9
-1762.53
41947.4
-1481.19
43705.2
-1157.09
44740.8
-854.235
43570.4
-587.717
43016
-289.814
44918.9
4.33915
45010.8
301.099
44964.5
580.396
43627.6
857.826
43441.6
1125.99
43248.1
1363.46
41377.3
1590.33
39313.4
1810.34
38153.2
1983.78
35838.8
2109.19
33187.5
2116.49
27941.1
1989.81
18668
1984.77
10895.2
2028.52
6801.03
1574.57
-9168.82
984.098
-30761
875.479
-34980.9
586.104
-33105.1
-281.026
-33539.2
-320.199
-30498
597.882
-774.334
815.991
23652
879.245
22117
930.87
15275.4
955.398
9036.22
996.363
3648.1
810.324
-2252.8
1298.01
-2282.09
2954.25
-14898.5
4236.61
-35259.1
4593.04
-41462
4476.06
-34342
4254.95
-22676.4
4096.84
-11391.1
4141.48
-2598.57
3769.88
1220.42
2840.55
2677.5
3459.63
318.872
5123.71
-11815.1
5338.12
-28509.3
4689.38
-3483.07
4643.13
66112.1
4361.8
79833.1
4094.14
67793.5
3952.38
54950
3885.89
44539.5
3866.23
35950.4
3876.92
28528.1
3901.95
21808
3927.58
15464.5
3943.67
9296.1
3955.63
3257.32
3935.01
-2917.87
3811.88
-9413.38
3460.4
-16097.6
2884.35
-20148.4
2240.04
-31059.4
1590.51
-51897.2
1192.98
-69896.4
650.457
-82474.6
-101207
-2874.66
11749.6
-2984.78
17885.3
-3038.38
20021.6
-3061.77
23714.6
-3049.59
26365.5
-3001.49
29042.9
-2922.14
31329
-2808.9
33580.5
-2653.27
35665.7
-2455.42
37375.1
-2235.01
38600.4
-2012.89
39837.8
-1761.35
41695.9
-1481.05
43424.9
-1156.76
44416.5
-852.588
43266.2
-586.322
42749.7
-289.115
44621.7
4.91211
44716.8
301.2
44668.2
580.316
43348.5
858.501
43163.4
1127.07
42979.5
1364.16
41140.2
1591.38
39086.2
1815.68
37928.9
1992.93
35661.5
2128.66
33051.7
2145.02
27924.7
2017
18796.1
2019.84
10892.4
2134.96
6685.91
1761.48
-8795.34
1085.83
-30085.4
927.559
-34822.6
686.59
-32864.1
-151.704
-32700.9
-467.103
-30182.6
620.393
-1861.83
897.76
23374.7
922.949
22091.8
956.319
15242
989.216
9003.32
1051.81
3585.5
1032.34
-2233.33
1626.81
-2876.56
3199.01
-16470.7
4281.42
-36341.5
4520.23
-41700.8
4349.1
-34170.8
4085.08
-22412.4
3870.35
-11176.4
3856.32
-2584.55
3569.12
1507.62
3017.93
3228.68
3954.91
-618.11
5472.22
-13332.4
5430.33
-28467.4
4614.01
-2666.74
4680.14
66046
4390.28
80122.9
4096.21
68087.6
3946.08
55100.1
3879.25
44606.4
3859.29
35970.4
3869.26
28518.1
3893.48
21783.7
3917.98
15439.9
3932.57
9281.51
3937.45
3252.45
3889.75
-2870.18
3735.4
-9259.03
3385.79
-15748
2861.48
-19624.1
2277.78
-30475.7
1660.04
-51279.5
1228.97
-69465.3
528.777
-81774.4
-100606
-2892.73
11869.6
-3011.08
18003.7
-3057.73
20068.3
-3079.86
23736.7
-3063.17
26348.8
-3012.37
28992.1
-2930.54
31247.2
-2815.16
33465.1
-2657.23
35507.8
-2457.25
37175.1
-2235.86
38379
-2013.21
39615.1
-1762.01
41444.7
-1481.72
43144.6
-1156.47
44091.3
-851.813
42961.6
-585.732
42483.6
-288.523
44324.5
5.24532
44423
301.693
44371.8
580.924
43069.3
859.759
42884.6
1129.18
42710.1
1366.67
40902.7
1595.41
38857.5
1823.83
37700.5
2008.62
35476.8
2154.33
32906
2182.22
27896.8
2063.74
18914.5
2075.26
10880.9
2237.72
6523.45
1870.61
-8428.23
1161.56
-29376.3
960.755
-34621.8
704.694
-32608.1
-86.4619
-31909.8
-534.008
-29735.1
645.334
-3041.17
1006.83
23013.2
1005.8
22092.8
1016.02
15231.8
1044.31
8975.03
1127.16
3502.65
1187.68
-2293.84
1848.91
-3537.8
3320.72
-17942.5
4269.58
-37290.4
4443.46
-41874.7
4246.31
-33973.7
3957.2
-22123.3
3703.83
-10923
3571.61
-2452.33
3315.65
1763.58
3039.24
3505.1
4173.15
-1752.03
5599.01
-14758.2
5508.41
-28376.8
4659.26
-1817.59
4675.81
66029.5
4412.46
80386.3
4098.19
68401.9
3938.56
55259.8
3870.12
44674.8
3849.56
35991
3858.67
28509
3882.02
21760.4
3905.28
15416.7
3917.9
9268.89
3914.95
3255.4
3853.76
-2808.99
3692.43
-9097.7
3354.03
-15409.6
2856.55
-19126.6
2310.71
-29929.9
1719.95
-50688.7
1261.6
-69006.9
534.646
-81047.5
-99555.7
-2922.4
11986.1
-3042.02
18123.3
-3080.6
20106.8
-3100.66
23756.8
-3079.46
26327.6
-3025.97
28938.7
-2941.61
31162.8
-2823.8
33347.3
-2663.23
35347.2
-2461.11
36973
-2238.91
38156.8
-2015.46
39391.7
-1764.12
41193.3
-1482.98
42863.5
-1156.79
43765.1
-851.815
42656.6
-585.491
42217.3
-288.29
44027.3
5.59394
44129.1
302.294
44075.1
581.986
42789.6
861.517
42605.1
1131.91
42439.7
1370.38
40664.3
1601.03
38626.8
1833.49
37468
2026.37
35283.9
2182.5
32749.9
2224.16
27855.2
2116.27
19022.4
2146.92
10850.2
2364.66
6305.71
2002.3
-8065.88
1257.98
-28632
1014.12
-34377.9
749.581
-32343.5
-23.3136
-31136.9
-594.642
-29163.7
714.518
-4350.33
1130.64
22597.1
1103.29
22120.1
1090.98
15244.1
1120.3
8945.71
1225.94
3397.01
1326.44
-2394.34
2040.1
-4251.45
3440.27
-19342.7
4257.66
-38107.7
4353.62
-41970.7
4122.09
-33742.1
3801.01
-21802.2
3503.63
-10625.6
3244.83
-2193.53
2988.01
2020.4
2963.29
3529.83
4355.76
-3144.5
5718.25
-16120.7
5567.46
-28226
4707.34
-957.476
4660.62
66076.2
4419.21
80627.7
4098.42
68722.7
3931.4
55426.8
3860.11
44746.1
3838.26
36012.8
3846.22
28501.1
3868.57
21738
3890.29
15395
3899.42
9259.76
3887.82
3266.99
3814.28
-2735.44
3645.59
-8929.01
3314.61
-15078.6
2843.97
-18655.9
2338.83
-29424.7
1774.48
-50124.4
1290.97
-68523.4
519.395
-80275.9
-98779.4
-2962.05
12096.9
-3077.21
18238.5
-3107.16
20136.8
-3124.32
23773.9
-3098.81
26302
-3042.71
28882.6
-2955.78
31075.9
-2835.38
33226.9
-2672
35183.8
-2467.7
36768.7
-2244.58
37933.7
-2020.08
39167.2
-1768.12
40941.4
-1485.68
42581.1
-1158.27
43437.7
-852.743
42351.1
-585.956
41950.5
-288.497
43729.9
5.81178
43834.8
303.009
43777.9
583.455
42509.2
863.936
42324.6
1135.62
42168
1375.49
40424.4
1608.44
38393.9
1845.37
37231.1
2046.77
35082.5
2214.67
32582
2272.38
27797.5
2174.83
19120
2222.65
10802.4
2478.93
6049.43
2129.86
-7716.8
1364.34
-27866.5
1077.01
-34090.6
801.229
-32067.7
41.603
-30377.3
-769.803
-28352.3
826.279
-5946.41
1264.43
22158.9
1215.56
22169
1180.17
15279.5
1211.74
8914.15
1331.76
3276.98
1466.22
-2528.8
2227.75
-5012.98
3544.95
-20659.9
4229.8
-38792.6
4249.88
-41990.8
3987.98
-33480.2
3638.1
-21452.3
3292.3
-10279.8
2903.45
-1804.67
2586.71
2337.14
2809.48
3307.06
4511.39
-4846.4
5811
-17420.3
5597.83
-28012.8
4729.94
-89.585
4640.31
66165.8
4414.99
80853
4095.74
69041.9
3923.2
55599.3
3848.43
44820.9
3824.85
36036.4
3831.5
28494.4
3852.71
21716.8
3872.64
15375
3877.75
9254.65
3858.06
3286.69
3774.32
-2651.71
3601.33
-8756.02
3278.09
-14755.3
2830.31
-18208.2
2364.16
-28958.6
1827.81
-49588
1321.94
-68017.6
500.871
-79454.8
-97519.9
-3008.61
12194.5
-3115.01
18344.9
-3136.75
20158.5
-3150.42
23787.6
-3121.12
26272.7
-3062.61
28824.1
-2973.26
30986.6
-2850.18
33103.8
-2683.9
35017.6
-2477.34
36562.1
-2253.15
37709.5
-2027.41
38941.4
-1774.42
40688.4
-1490.2
42296.8
-1161.11
43108.6
-854.777
42044.7
-587.39
41683.1
-289.272
43431.8
5.77637
43539.8
303.85
43479.8
585.361
42227.6
867.093
42042.9
1140.46
41894.6
1382.21
40182.6
1617.93
38158.2
1859.81
36989.3
2070.45
34871.8
2251.18
32401.2
2326.95
27721.7
2241.56
19205.4
2297.29
10746.7
2582.26
5764.46
2258.89
-7393.43
1482.2
-27089.8
1153.51
-33761.9
870.702
-31784.9
132.373
-29638.9
-740.918
-27479
878.926
-7566.26
1400.5
21637.3
1340.61
22228.9
1281.36
15338.8
1313.06
8882.44
1442.47
3147.58
1599.96
-2686.3
2400.64
-5813.67
3638.94
-21898.2
4195.22
-39348.9
4138.87
-41934.4
3847.1
-33188.5
3469.48
-21074.7
3064.42
-9874.76
2551.64
-1291.9
2117.35
2771.43
2612.1
2812.3
4672.96
-6907.26
5874.36
-18621.7
5582.89
-27721.4
4737.13
756.17
4612.83
66290.1
4402.05
81063.8
4090.07
69353.9
3913.62
55775.8
3835.07
44899.4
3809.53
36061.9
3814.85
28489.1
3834.87
21696.8
3852.94
15357
3854.04
9253.55
3826.76
3313.96
3734.92
-2559.87
3559.61
-8580.72
3241.99
-14437.7
2813.03
-17779.2
2383.86
-28529.4
1873.96
-49078.1
1351.07
-67494.7
548.1
-78651.9
-96521.2
-3058.81
12271.3
-3152.91
18439
-3167.97
20173.6
-3178.16
23797.8
-3145.88
26240.5
-3085.35
28763.5
-2993.87
30895.1
-2868.1
32978.1
-2698.85
34848.3
-2489.99
36353.2
-2264.64
37484.2
-2037.46
38714.3
-1783.03
40434
-1496.53
42010.3
-1165.35
42777.4
-858.007
41737.4
-589.826
41415
-290.704
43132.6
5.41426
43243.6
304.724
43180.5
587.638
41944.7
870.893
41759.6
1146.29
41619.2
1390.42
39938.5
1629.35
37919.2
1876.52
36742.1
2096.99
34651.4
2291.32
32206.9
2386.77
27626.2
2317.34
19274.8
2374.44
10689.6
2677.66
5461.24
2387.77
-7103.54
1610.31
-26312.3
1242.68
-33394.3
956.07
-31498.3
253.351
-28936.2
-478.008
-26747.7
865.186
-8909.45
1537.55
20965
1474.84
22291.6
1391.41
15422.2
1420.69
8853.16
1555.99
3012.28
1733.93
-2864.24
2568.66
-6648.4
3726.22
-23055.7
4155.93
-39778.6
4023.45
-41801.9
3703.27
-32868.3
3300.41
-20671.9
2822.14
-9396.49
2182.45
-652.204
1564.41
3389.47
2419.11
1957.61
4859.52
-9347.67
5896.25
-19658.5
5521.01
-27346.1
4728.79
1548.4
4580.47
66438.4
4382.11
81262.2
4081.61
69654.4
3902.69
55954.7
3820.28
44981.8
3792.63
36089.6
3796.63
28485.1
3815.5
21678
3831.66
15340.8
3828.92
9256.29
3794.8
3348.07
3696.18
-2461.24
3519.71
-8404.24
3206.15
-14124.2
2793.03
-17366.1
2398.9
-28135.3
1914.74
-48594
1374.84
-66954.8
483.297
-77760.3
-95365.5
-3107.81
12323.7
-3188.81
18520
-3199.41
20184.2
-3206.85
23805.2
-3172.75
26206.3
-3110.73
28701.5
-3017.49
30801.8
-2889.07
32849.7
-2716.83
34676.1
-2505.68
36142.1
-2279.09
37257.6
-2050.26
38485.4
-1794.01
40177.7
-1504.73
41721.1
-1171.1
42443.8
-862.531
41428.8
-593.327
41145.8
-292.9
42832.2
4.61229
42946.1
305.483
42879.6
590.141
41660.1
875.185
41474.6
1152.93
41341.5
1399.9
39691.6
1642.45
37676.7
1895.25
36489.3
2125.9
34420.7
2334.59
31998.2
2450.85
27510
2401.66
19324
2458.44
10632.8
2769.97
5149.71
2516.58
-6850.16
1747.91
-25543.6
1345.42
-32991.8
1056.75
-31209.7
394.758
-28274.2
-305.855
-26047.1
882.48
-10097.8
1673.87
20173.6
1616.51
22349
1508.82
15529.9
1533.14
8828.84
1671.8
2873.62
1869.7
-3062.13
2733.07
-7511.77
3809.67
-24132.3
4117.13
-40086.1
3909.11
-41593.9
3561.58
-32520.8
3134.92
-20245.2
2567.92
-8829.48
1803.55
112.164
1012.81
4180.21
2384.74
585.689
5069.57
-12032.5
5869.98
-20458.9
5421.38
-26897.5
4705
2264.78
4546.77
66596.7
4357.61
81451.3
4070.57
69941.5
3890.28
56135
3804.08
45068
3774.3
36119.3
3777.06
28482.3
3794.81
21660.2
3809.07
15326.6
3802.74
9262.62
3762.49
3388.32
3658.56
-2357.31
3481.91
-8227.6
3170.27
-13812.5
2770.29
-16966.1
2409.61
-27774.6
1950.55
-48134.9
1402.2
-66406.4
547.422
-76905.5
-93762.9
-3150.73
12351.8
-3221.44
18590.7
-3230.07
20192.8
-3235.91
23811.1
-3201.59
26172
-3138.73
28638.6
-3044.16
30707.3
-2913.21
32718.7
-2737.99
34500.9
-2524.55
35928.6
-2296.63
37029.7
-2065.93
38254.7
-1807.47
39919.2
-1514.97
41428.6
-1178.52
42107.3
-868.494
41118.8
-598.033
40875.3
-295.998
42530.2
3.22095
42646.9
305.976
42576.9
592.718
41373.3
879.826
41187.5
1160.23
41061.1
1410.5
39441.3
1657.06
37430.1
1915.83
36230.5
2156.92
34179.6
2380.67
31774.5
2518.3
27372.3
2492.7
19349.6
2550.69
10574.8
2861.36
4839.04
2645
-6633.81
1894.06
-24792.7
1462.07
-32559.8
1172.81
-30920.4
554.282
-27655.7
-101.417
-25391.4
942.392
-11141.6
1809.77
19306.2
1764.32
22394.4
1633.12
15661.1
1649.91
8812.06
1789.99
2733.53
2008.57
-3280.71
2895.51
-8398.71
3892.56
-25129.4
4084.12
-40277.6
3801.46
-41311.3
3427.34
-32146.6
2977.29
-19795.2
2309.45
-8161.64
1440.42
981.186
862.087
4758.54
2789.42
-1341.64
5274.88
-14518
5786.69
-20970.7
5291.73
-26402.6
4670.88
2885.62
4514.17
66753.4
4330.82
81634.7
4057.17
70215.1
3876.23
56315.9
3786.5
45157.8
3754.69
36151.2
3756.35
28480.7
3773.07
21643.5
3785.5
15314.1
3775.93
9272.19
3730.33
3433.93
3622.26
-2249.24
3445.78
-8051.12
3133.95
-13500.7
2745.48
-16577.6
2417.13
-27446.3
1981.79
-47699.6
1430.11
-65854.7
621.849
-76097.3
-92535.9
-3184.02
12357.7
-3250
18656.6
-3259.47
20202.3
-3264.94
23816.5
-3232.27
26139.4
-3169.41
28575.8
-3073.93
30611.8
-2940.59
32585.4
-2762.45
34322.7
-2546.74
35712.9
-2317.39
36800.3
-2084.6
38021.9
-1823.57
39658.2
-1527.4
41132.4
-1187.78
41767.7
-876.049
40807.1
-604.101
40603.3
-300.15
42226.2
1.09035
42345.7
306.064
42271.9
595.227
41084.2
884.674
40898
1168.04
40777.7
1422.04
39187.3
1672.98
37179.2
1938.09
35965.4
2189.76
33928
2429.12
31535.1
2588.07
27213.4
2587.75
19349.9
2649.62
10512.9
2952.03
4536.64
2772.73
-6454.51
2048.07
-24068
1592.6
-32104.3
1303.56
-30631.4
729.525
-27081.6
117.656
-24779.5
1042.19
-12066.1
1951.75
18396.7
1916.83
22429.3
1763.93
15814
1770.64
8805.35
1910.68
2593.49
2150.81
-3520.84
3056.31
-9304.21
3978.06
-26051.1
4063.09
-40362.6
3707.16
-40955.3
3306.33
-31745.8
2830.89
-19319.7
2023.63
-7354.38
859.437
2145.38
835.491
4782.49
3346.29
-3852.44
5416.08
-16587.8
5646.9
-21201.5
5138.35
-25894
4631.35
3392.63
4484.39
66900.3
4303.35
81815.7
4041.63
70476.8
3860.45
56497.1
3767.59
45250.6
3733.98
36184.8
3734.73
28479.9
3750.54
21627.7
3761.28
15303.4
3748.85
9284.62
3698.6
3484.19
3587.44
-2138.08
3411.06
-7874.74
3096.9
-13186.5
2719.24
-16200
2422.81
-27149.8
2010.67
-47287.4
1455.59
-65299.7
583.327
-75225
-91153.3
-3205.43
12344.9
-3273.68
18724.9
-3287.47
20216.1
-3293.75
23822.8
-3264.57
26110.2
-3202.81
28514
-3106.89
30515.9
-2971.32
32449.8
-2790.34
34141.7
-2572.39
35495
-2341.49
36569.4
-2106.39
37786.8
-1842.43
39394.3
-1542.16
40832.1
-1199.03
41424.6
-885.349
40493.4
-611.67
40329.7
-305.501
41920
-1.92313
42042.1
305.604
41964.4
597.524
40792.2
889.577
40606
1176.2
40491.1
1434.34
38929.1
1690.02
36923.5
1961.82
35693.6
2224.12
33665.7
2479.4
31279.8
2659.32
27033.5
2684.23
19325
2752.29
10444.9
3041.25
4247.68
2899.56
-6312.81
2209.35
-23377.8
1736.34
-31631.3
1447.46
-30342.5
916.629
-26550.8
331.369
-24194.2
1138.39
-12873.2
2093.67
17441.4
2073.28
22449.7
1900.78
15986.5
1895.22
8810.92
2034.32
2454.39
2296.6
-3783.12
3215.81
-10223.4
4069.36
-26904.7
4060.65
-40353.9
3633.49
-40528.2
3204.64
-31317
2700.64
-18815.7
1690.43
-6344.17
4.54484
3831.26
627.872
4159.16
3821.74
-7046.31
5447.16
-18213.2
5454.58
-21208.9
4964.87
-25404.3
4589.41
3768.09
4458.69
67031
4276.21
81998.2
4024.06
70729
3842.9
56678.3
3747.46
45346.1
3712.37
36219.9
3712.45
28479.8
3727.5
21612.6
3736.73
15294.1
3721.83
9299.53
3667.59
3538.43
3554.16
-2024.65
3377.28
-7697.86
3058.78
-12868
2692.36
-15833.5
2428.13
-26885.6
2039.35
-46898.6
1487.14
-64747.5
674.666
-74412.5
-89348.7
-3213.25
12316.4
-3291.11
18802.8
-3313.9
20238.9
-3322.46
23831.4
-3298.33
26086.1
-3238.84
28454.5
-3143.11
30420.1
-3005.5
32312.2
-2821.76
33958
-2601.61
35274.8
-2369.07
36336.9
-2131.42
37549.2
-1864.18
39127
-1559.39
40527.3
-1212.4
41077.6
-896.541
40177.5
-620.88
40054
-312.193
41611.4
-5.96147
41735.9
304.454
41654
599.459
40497.2
894.372
40311
1184.52
40201
1447.21
38666.5
1707.98
36662.7
1986.78
35414.8
2259.7
33392.7
2531.01
31008.5
2731.55
26832.9
2780.52
19276
2855.7
10369.7
3128.24
3975.13
3025.48
-6210.05
2377.41
-22729.8
1892.27
-31146.2
1602.56
-30052.8
1113.3
-26061.6
571.326
-23652.3
1263.43
-13565.3
2231.81
16473
2229.88
22451.7
2042.37
16174
2023.73
8829.55
2161.64
2316.49
2446.29
-4067.78
3374.45
-11151.6
4169.41
-27699.6
4083.74
-40268.3
3588.61
-40033
3128.67
-30857
2593.86
-18280.9
1382.54
-5132.85
-130.088
5343.89
1083.68
2945.39
4144.64
-10107.3
5361.98
-19430.5
5219.75
-21066.7
4772.77
-24957.3
4546.46
3994.39
4437.79
67139.7
4249.99
82186
4004.53
70974.4
3823.56
56859.2
3726.23
45443.4
3690.08
36256
3689.74
28480.2
3704.2
21598.1
3712.14
15286.2
3695.11
9316.55
3637.45
3596.09
3522.31
-1909.51
3343.83
-7519.38
3019.31
-12543.5
2665.66
-15479.9
2434.51
-26654.5
2068.98
-46533.1
1522.1
-64200.6
753.486
-73643.9
-88045.1
-3205.73
12274.4
-3300.11
18897.1
-3338.19
20276.9
-3351.25
23844.4
-3333.52
26068.3
-3277.42
28398.4
-3182.56
30325.3
-3043.2
32172.8
-2856.82
33771.6
-2634.52
35052.5
-2400.23
36102.6
-2159.8
37308.8
-1888.92
38856.1
-1579.21
40217.6
-1228.05
40726.4
-909.776
39859.2
-631.869
39776.1
-320.364
41299.9
-11.164
41426.7
302.475
41340.3
600.885
40198.8
898.896
40013
1192.84
39907
1460.44
38398.9
1726.64
36396.5
2012.74
35128.7
2296.27
33109.2
2583.49
30721.3
2804.52
26611.9
2876.33
19204.2
2958.04
10288
3212.77
3720.41
3150.81
-6148.09
2551.64
-22130.6
2059.26
-30653.8
1766.85
-29760.4
1316.42
-25611.1
797.384
-23133.2
1385.61
-14153.5
2366.48
15492.1
2383.93
22434.2
2186.89
16371
2156.2
8860.24
2293.28
2179.41
2599.96
-4374.47
3532.65
-12084.3
4280.64
-28447.6
4139.26
-40126.9
3581.61
-39475.4
3084.63
-30360
2516.27
-17712.6
1180
-3796.59
283.229
6240.66
1912.92
1315.7
4338.92
-12533.3
5200.39
-20292
4954.39
-20820.7
4564.77
-24567.7
4503
4056.17
4421.97
67220.7
4224.97
82383
3983.08
71216.3
3802.49
57039.8
3704.05
45541.8
3667.31
36292.7
3666.81
28480.7
3680.87
21584.1
3687.72
15279.4
3668.88
9335.4
3608.26
3656.7
3491.63
-1792.88
3309.99
-7337.74
2978.24
-12211.8
2639.99
-15141.6
2443.26
-26457.7
2101.27
-46191.1
1562.8
-63662.1
812.45
-72893.6
-86216.5
-3180.94
12219.3
-3297.66
19013.9
-3359.01
20338.3
-3380.09
23865.5
-3370.26
26058.5
-3318.48
28346.7
-3225.2
30232
-3084.48
32032.1
-2895.61
33582.8
-2671.23
34828.2
-2435.08
35866.4
-2191.65
37065.3
-1916.78
38581.3
-1601.75
39902.6
-1246.13
40370.8
-925.207
39538.3
-644.78
39495.7
-330.155
40985.2
-17.6672
41114.2
299.529
41023.1
601.645
39896.7
902.978
39711.7
1200.96
39609
1473.84
38126
1745.79
36124.6
2039.44
34835.1
2333.6
32815.1
2636.5
30418.4
2877.96
26370.4
2972.41
19109.8
3059.74
10200.6
3296.13
3484.02
3276.26
-6128.23
2731.31
-21585.6
2236.27
-30158.8
1939.16
-29463.2
1524.33
-25196.3
1025.5
-22634.4
1502.06
-14630
2492.47
14501.7
2533.03
22393.7
2332.58
16571.5
2292.48
8900.33
2429.47
2042.42
2757.1
-4702.09
3690.48
-13017.6
4404.71
-29161.9
4233.53
-39955.7
3622.59
-38864.5
3078.5
-29815.9
2475.65
-17109.7
1150.96
-2471.9
734.018
6657.61
2521.7
-471.982
4405.87
-14417.4
4982.74
-20868.9
4670.06
-20508
4348.3
-24245.9
4458.89
3945.58
4411.1
67268.5
4201.23
82592.9
3959.81
71457.7
3779.75
57219.9
3681.05
45640.5
3644.24
36329.6
3643.87
28481
3657.67
21570.3
3663.62
15273.4
3643.16
9355.86
3579.92
3719.94
3461.62
-1674.58
3274.89
-7151
2935.48
-11872.3
2616.2
-14822.4
2455.42
-26297
2137
-45872.7
1610.56
-63135.7
958.466
-72241.5
-84829.9
-3137.25
12150.1
-3280.39
19157
-3374.25
20432.2
-3408.41
23899.7
-3408.65
26058.7
-3362.08
28300.1
-3270.93
30140.8
-3129.32
31890.5
-2938.24
33391.7
-2711.86
34601.8
-2473.75
35628.3
-2227.06
36818.6
-1947.85
38302.1
-1627.13
39581.9
-1266.77
40010.4
-942.989
39214.5
-659.757
39212.4
-341.706
40667.2
-25.6099
40798.1
295.471
40702.1
601.578
39590.6
906.434
39406.8
1208.68
39306.8
1487.16
37847.5
1765.18
35846.5
2066.62
34533.6
2371.46
32510.2
2689.72
30100.1
2951.52
26108.6
3069.32
18992
3158.91
10111
3377.99
3264.94
3402.9
-6153.14
2915.55
-21098.3
2422.25
-29665.5
2118.45
-29159.4
1734.23
-24812.1
1247.89
-22148
1614.57
-14996.7
2606.48
13509.8
2673.69
22326.4
2477.15
16768
2431.99
8945.5
2569.79
1904.62
2916.56
-5048.87
3847.87
-13948.9
4542.29
-29856.3
4371.45
-39784.9
3722.15
-38215.2
3116.81
-29210.6
2478.86
-16471.8
1284.98
-1278.01
1187.93
6754.66
2920.89
-2204.95
4373.22
-15869.8
4721.94
-21217.6
4384.2
-20170.3
4136.57
-23998.3
4413.13
3669.02
4404.23
67277.4
4178.58
82818.5
3934.8
71701.5
3755.48
57399.2
3657.37
45738.7
3621.01
36365.9
3621.01
28481.1
3634.68
21556.6
3639.8
15268.3
3617.82
9377.84
3552.11
3785.66
3431.55
-1554.02
3237.65
-6957.1
2891.14
-11525.8
2595.19
-14526.4
2471.89
-26173.6
2177.47
-45578.3
1658.65
-62616.9
941.67
-71524.5
-83349.9
-3074.08
12063.8
-3245.4
19328.3
-3381.19
20567.9
-3434.97
23953.4
-3448.48
26072.3
-3408.31
28259.9
-3319.73
30052.2
-3177.69
31748.5
-2984.75
33198.7
-2756.52
34373.5
-2516.33
35388.1
-2266.15
36568.5
-1982.26
38018.2
-1655.46
39255.1
-1290.13
39645.1
-963.285
38887.7
-676.948
38926.1
-355.161
40345.4
-35.1367
40478
290.146
40376.8
600.502
39280.3
909.058
39098.3
1215.78
39000.1
1500.16
37563.1
1784.55
35562.1
2093.95
34224.2
2409.57
32194.6
2742.88
29766.8
3024.92
25826.6
3166.5
18850.4
3253.74
10023.8
3460.89
3057.8
3533.53
-6225.77
3103.37
-20668.1
2615.97
-29178.1
2304.12
-28847.6
1944.87
-24452.8
1465.33
-21668.5
1719.97
-15251.4
2708.45
12521.3
2804.33
22230.6
2618.48
16953.9
2573.38
8990.6
2713.09
1764.91
3076.92
-5412.69
4004.59
-14876.6
4692.93
-30544.6
4555.52
-39647.4
3890.19
-37549.8
3208.09
-28528.5
2530.91
-15794.6
1517.78
-264.882
1636.71
6635.72
3197.5
-3765.74
4272.43
-16944.7
4435.21
-21380.4
4122.15
-19857.2
3948.92
-23825.1
4363.72
3254.23
4399.23
67241.9
4156.42
83061.3
3908.05
71949.9
3729.73
57577.5
3633.06
45835.3
3597.66
36401.3
3598.23
28480.5
3611.83
21543
3616.09
15264
3592.52
9401.41
3524.27
3853.91
3400.42
-1430.17
3197.47
-6754.15
2845.6
-11174
2577.84
-14258.7
2493.32
-26089.1
2223.73
-45308.7
1717.47
-62110.6
1085.31
-70892.3
-81491
-2991.92
11957.1
-3190.74
19527.2
-3376.97
20754.2
-3457.85
24034.3
-3489.08
26103.5
-3457.17
28228
-3371.64
29966.7
-3229.53
31606.4
-3035.15
33004.4
-2805.29
34143.7
-2562.95
35145.8
-2309.02
36314.5
-2020.1
37729.2
-1686.88
38921.9
-1316.37
39274.6
-986.257
38557.6
-696.508
38636.4
-370.67
40019.6
-46.3991
40153.8
283.389
40047
598.223
38965.4
910.628
38785.9
1221.99
38688.7
1512.55
37272.5
1803.57
35271.1
2121.08
33906.7
2447.6
31868.1
2795.67
29418.7
3098.07
25524.2
3263.12
18685.3
3349.81
9937.12
3555.39
2852.21
3671.91
-6342.29
3293.87
-20290.1
2816.03
-28700.2
2495.63
-28527.2
2154.42
-24111.6
1683.95
-21198
1825.76
-15393.2
2796.35
11550.7
2923.48
22103.4
2754.9
17122.5
2714.99
9030.52
2857.63
1622.26
3236.88
-5791.95
4160.11
-15799.8
4855.05
-31239.6
4784.75
-39577.1
4134.04
-36899.1
3363.12
-27757.6
2634.18
-15065.6
1795.36
573.94
2056.19
6374.89
3390.34
-5099.88
4120.94
-17675.3
4140.68
-21400.1
3910.18
-19626.7
3807.02
-23721.9
4308.02
2753.23
4392.49
67157.5
4133.51
83320.3
3879.32
72204.1
3702.48
57754.3
3608.1
45929.7
3574.08
36435.3
3575.36
28479.2
3588.8
21529.6
3592.03
15260.8
3566.66
9426.78
3495.54
3925.03
3367.09
-1301.72
3153.75
-6540.81
2799.54
-10819.8
2565.03
-14024.1
2520.1
-26044.2
2274.69
-45063.3
1781.94
-61617.9
1232.29
-70342.7
-80156.3
-2891.49
11826.7
-3115.45
19751.1
-3359
20997.7
-3474.72
24150
-3529.17
26157.9
-3508.32
28207.2
-3426.71
29885.1
-3284.86
31464.5
-3089.44
32808.9
-2858.23
33912.5
-2613.69
34901.3
-2355.76
36056.6
-2061.48
37435
-1721.51
38581.9
-1345.63
38898.7
-1012.07
38224
-718.589
38342.9
-388.381
39689.3
-59.553
39824.9
275.027
39712.4
594.537
38645.9
910.899
38469.5
1227.04
38372.6
1524
36975.6
1821.88
34973.2
2147.57
33581
2485.09
31530.6
2847.67
29056.2
3170.91
25201
3359.2
18497.1
3452.45
9843.87
3666.61
2638.05
3818.87
-6494.55
3486.43
-19957.7
3021.15
-28234.9
2691.67
-28197.7
2361.12
-23781.1
1894.81
-20731.7
1929.97
-15428.3
2869.21
10611.5
3029.35
21943.3
2884.78
17267
2854.81
9060.49
3001.5
1475.58
3395.26
-6185.71
4313.64
-16718.2
5026.15
-31952.1
5053.3
-39604.3
4455.01
-36300.8
3592.83
-26895.4
2788.01
-14260.8
2088.66
1273.29
2432.32
6031.23
3514.07
-6181.63
3933.16
-18094.4
3854.09
-21321
3763.76
-19536.4
3728.61
-23686.8
4245.67
2236.17
4379.19
67023.9
4107.88
83591.6
3848.12
72463.9
3673.55
57928.9
3582.32
46020.9
3550.04
36467.6
3552.02
28477.2
3565.05
21516.6
3566.94
15258.9
3539.39
9454.34
3464.84
3999.57
3330.44
-1167.32
3106.32
-6316.69
2754
-10467.4
2557.64
-13827.8
2552.52
-26039.1
2331.16
-44841.9
1847.83
-61134.5
1211.47
-69706.3
-78797.8
-2773.56
11670.4
-3019.45