/*--------------------------------*- C++ -*----------------------------------*\
| =========                 |                                                 |
| \\      /  F ield         | OpenFOAM: The Open Source CFD Toolbox           |
|  \\    /   O peration     | Version:  4.1                                   |
|   \\  /    A nd           | Web:      www.OpenFOAM.org                      |
|    \\/     M anipulation  |                                                 |
\*---------------------------------------------------------------------------*/
FoamFile
{
    version     2.0;
    format      ascii;
    class       volVectorField;
    location    "22";
    object      U;
}
// * * * * * * * * * * * * * * * * * * * * * * * * * * * * * * * * * * * * * //

dimensions      [0 1 -1 0 0 0 0];

internalField   nonuniform List<vector> 
6785
(
(8.34591e-14 -0.580783 16.0933)
(1.07008e-13 -6.45121 12.4252)
(-1.55665e-14 -4.69551 12.7777)
(3.46721e-14 -4.15813 12.5442)
(1.00892e-14 -3.54175 12.3766)
(-1.22147e-14 -3.06719 12.1533)
(4.67443e-14 -2.67756 11.8999)
(9.86658e-15 -2.39005 11.6074)
(-1.01927e-14 -2.20511 11.2818)
(2.95089e-14 -2.09847 10.945)
(9.80964e-15 -2.07655 10.6036)
(-1.4029e-14 -2.32414 10.1475)
(3.1129e-14 -2.75793 9.52555)
(-7.8686e-15 -1.89008 9.06501)
(-6.86271e-14 0.894541 7.04454)
(2.48475e-13 -7.30329 25.9507)
(1.38468e-13 -16.5108 21.76)
(-1.3171e-14 -11.645 22.1271)
(1.62384e-13 -11.8297 20.7472)
(5.89701e-15 -10.9444 19.7436)
(2.38986e-14 -10.2488 18.7015)
(1.50785e-13 -9.55639 17.6639)
(4.79542e-15 -8.88541 16.6216)
(5.31844e-14 -8.23884 15.5566)
(1.68503e-13 -7.59827 14.4679)
(-3.31796e-15 -6.9401 13.4271)
(6.78387e-14 -6.40071 12.4741)
(1.93248e-13 -6.01915 11.1127)
(-6.04337e-14 -4.35317 7.78977)
(-5.22596e-14 0.476089 0.406147)
(6.99367e-14 -9.94303 27.6996)
(1.56698e-13 -17.7353 24.1133)
(-2.63991e-14 -11.8492 24.5672)
(1.3474e-14 -12.7346 22.4065)
(2.23382e-14 -11.2925 21.2663)
(-1.15354e-14 -10.5273 19.8485)
(-4.07883e-14 -9.66954 18.491)
(1.28318e-14 -8.87893 17.134)
(4.91394e-16 -8.13025 15.796)
(-2.68974e-14 -7.42761 14.4794)
(4.22091e-14 -6.76051 13.2329)
(-1.23586e-14 -5.98466 11.8688)
(-1.40793e-13 -4.34368 8.88987)
(-2.47329e-15 -0.837292 1.88504)
(4.05693e-14 1.0564 -4.18836)
(1.73615e-13 -10.7382 26.3797)
(8.18347e-14 -17.4353 23.4675)
(4.76294e-14 -11.5276 23.8784)
(5.26899e-16 -13.2333 21.0484)
(-6.96208e-14 -11.3559 20.0377)
(7.80962e-14 -10.8502 18.3469)
(-8.17926e-14 -9.9988 16.869)
(-1.26792e-13 -9.27034 15.3795)
(9.42437e-14 -8.60546 13.9954)
(-1.21763e-14 -8.03687 12.7584)
(-9.21518e-14 -7.53762 11.6308)
(1.00012e-13 -6.9936 10.4244)
(-1.08566e-14 -5.97938 8.51936)
(-2.20014e-13 -3.81342 4.82067)
(5.88852e-15 -2.57079 0.648107)
(1.19623e-13 -11.1465 25.4567)
(-5.33145e-14 -16.9549 23.2166)
(-2.61562e-14 -11.4577 23.4793)
(-7.80652e-14 -13.3974 20.3965)
(-2.21461e-13 -11.1452 19.5318)
(1.96362e-16 -10.8124 17.6488)
(-1.4413e-13 -9.8062 16.1478)
(-3.12109e-13 -9.02823 14.598)
(-8.88251e-14 -8.31841 13.2084)
(-1.61957e-13 -7.76732 11.9849)
(-5.6967e-13 -7.29567 10.8341)
(-3.35357e-13 -6.86633 9.75511)
(-2.62805e-13 -6.35995 8.71693)
(-6.36887e-13 -5.15267 7.16571)
(-6.27558e-13 -3.99795 4.11491)
(1.7598e-13 -11.7924 25.4451)
(-5.64683e-14 -16.3563 23.3466)
(7.36204e-15 -11.5416 23.5452)
(-1.12254e-13 -13.1456 20.5633)
(-1.52971e-13 -10.6891 19.7207)
(3.91665e-14 -10.3715 17.7487)
(-1.99784e-13 -9.11357 16.2985)
(-2.42381e-13 -8.12784 14.4942)
(-1.36109e-13 -6.81895 12.2751)
(-3.14136e-13 -5.65956 9.93694)
(-2.27994e-13 -5.37468 8.79375)
(1.02131e-13 -5.95261 9.05236)
(1.98614e-15 -6.4459 9.51803)
(-2.8401e-13 -6.28383 9.61345)
(-3.23818e-13 -5.29443 7.9699)
(3.22979e-13 -12.4341 25.891)
(3.50781e-14 -16.3547 24.3238)
(1.68572e-13 -11.8994 24.1432)
(-9.06728e-14 -13.1809 21.4157)
(-2.61138e-14 -10.6886 20.5544)
(1.18915e-13 -10.3893 18.5908)
(-1.98798e-13 -8.94894 17.2025)
(-3.8564e-14 -7.74638 15.0575)
(-1.53964e-13 -5.67292 11.863)
(-3.41835e-13 -3.39966 8.04854)
(-7.44797e-14 -2.16786 5.84257)
(-4.5956e-13 -2.63254 6.15293)
(-6.97517e-13 -4.20599 8.11785)
(-2.8308e-14 -5.62407 10.1536)
(5.79464e-13 -4.76321 9.01131)
(2.413e-13 -12.5056 25.476)
(3.01935e-14 -17.1843 26.2229)
(1.25594e-13 -12.5306 25.0651)
(-9.42215e-14 -13.804 22.4122)
(-1.29307e-14 -11.2603 21.6376)
(1.3611e-13 -11.1659 19.6426)
(-1.90407e-13 -9.67757 18.3849)
(-6.76245e-14 -8.64308 16.3494)
(-1.26172e-13 -6.60956 13.3541)
(-3.6377e-13 -4.02966 9.3126)
(-4.14734e-13 -1.63117 5.68629)
(-1.50066e-12 0.0350137 3.1929)
(-2.42929e-12 0.36598 2.57084)
(-1.73642e-12 -1.08792 4.34577)
(-5.66089e-14 -2.11237 5.54512)
(2.25097e-13 -11.9663 23.7433)
(8.46886e-14 -17.7452 27.6652)
(1.80234e-16 -13.579 25.812)
(-4.9268e-14 -14.2544 23.0255)
(-4.11798e-14 -12.13 22.1075)
(1.68939e-14 -11.9585 20.2324)
(-1.11049e-13 -10.7481 18.955)
(-6.81868e-14 -9.92572 17.2541)
(-1.85069e-13 -8.54512 15.0685)
(-2.41812e-13 -6.63597 12.0793)
(-2.87771e-13 -4.24755 8.58706)
(-1.33418e-12 -1.53918 4.75582)
(-2.23788e-12 1.26088 0.954679)
(-3.50604e-12 2.42522 -1.42022)
(-3.13356e-12 0.715721 -0.859573)
(1.41874e-13 -11.0654 21.181)
(1.04779e-13 -17.5265 27.7993)
(2.34066e-14 -14.22 25.8972)
(-1.24477e-13 -14.1705 22.8939)
(-9.38916e-14 -12.4759 21.688)
(-7.50453e-14 -12.0965 19.9581)
(-1.53672e-13 -11.1462 18.5844)
(-7.58273e-14 -10.3769 17.0305)
(-1.56747e-13 -9.42486 15.307)
(-2.75314e-13 -8.2049 13.2364)
(-2.05207e-13 -6.66882 10.7699)
(-6.45475e-13 -4.72971 7.85822)
(-1.29721e-12 -2.28211 4.30048)
(-1.55564e-12 0.839923 0.137183)
(-3.73176e-12 0.615364 -2.55583)
(-6.99934e-14 -10.4605 19.4374)
(1.32124e-13 -17.1824 27.6755)
(-1.50922e-13 -14.4871 25.9134)
(-1.75135e-13 -14.0009 22.763)
(-7.59979e-14 -12.4523 21.3844)
(-3.14553e-13 -11.9244 19.6394)
(-1.77689e-13 -10.9427 18.1365)
(-2.95985e-14 -10.2211 16.6508)
(-4.62277e-13 -9.44007 15.1791)
(-3.3211e-13 -8.50442 13.5287)
(-1.83042e-14 -7.41453 11.6389)
(-6.89243e-13 -6.06553 9.46698)
(-1.03222e-12 -4.45063 6.77419)
(-1.52348e-12 -2.35797 3.79521)
(-3.50677e-12 0.166742 -2.16767)
(-1.10875e-13 -9.37668 16.791)
(1.92442e-13 -16.2151 26.5066)
(-3.4234e-13 -14.0378 25.0241)
(-2.13243e-13 -13.263 21.7513)
(-6.31819e-15 -11.7442 20.31)
(-4.83139e-13 -11.1423 18.5402)
(-2.61564e-13 -10.1213 17.0568)
(6.6516e-14 -9.36763 15.6255)
(-5.95568e-13 -8.58468 14.2274)
(-4.11676e-13 -7.69482 12.6741)
(-2.39363e-14 -6.65897 10.8593)
(-1.06671e-12 -5.32997 8.73513)
(-8.59219e-13 -3.6765 5.96246)
(-1.68325e-12 -0.992018 1.92136)
(-2.81918e-12 -0.206203 -3.02401)
(-2.32308e-13 -10.487 19.0943)
(1.98262e-13 -17.002 28.2904)
(-2.28269e-13 -15.3638 26.9764)
(-3.48512e-13 -14.4335 23.8129)
(1.56864e-14 -12.9178 22.0304)
(-4.6413e-13 -12.2789 20.2814)
(-4.49312e-13 -11.3347 18.6808)
(2.91931e-13 -10.5865 17.1063)
(-2.60872e-13 -9.84096 15.7034)
(-4.33757e-13 -9.10381 14.3486)
(3.13767e-15 -8.47772 13.0485)
(-4.64862e-13 -7.89475 11.7435)
(-6.10365e-13 -6.91167 9.82401)
(-8.49796e-13 -4.95723 7.05847)
(-1.53289e-12 -3.79253 4.99025)
(-3.35645e-13 -5.33755 10.0435)
(1.04465e-13 -12.1847 20.9339)
(-3.86481e-13 -10.3344 20.0627)
(-3.29037e-13 -9.32547 16.8046)
(-7.18322e-14 -8.13387 15.58)
(-4.40023e-13 -7.47386 13.6151)
(-1.94503e-13 -6.78028 12.2978)
(4.24066e-13 -6.29759 11.1155)
(-4.1203e-14 -5.9125 10.1738)
(-1.62567e-13 -5.32533 9.04395)
(-2.51496e-13 -4.00035 6.8825)
(-3.6032e-13 -2.646 4.84005)
(-8.51693e-14 -3.62329 6.81287)
(-6.83095e-13 -1.81182 3.57375)
(-9.17408e-13 -0.0762595 -3.03482)
(-3.21601e-13 -25.4197 41.7154)
(-1.57152e-13 -21.6026 43.0241)
(-4.55836e-13 -19.7927 36.8399)
(-3.51901e-13 -18.7112 34.5615)
(-3.06498e-13 -17.2063 30.619)
(-4.66771e-13 -17.2689 28.6847)
(-3.42162e-13 -16.1216 25.9714)
(-3.46155e-13 -15.9955 23.2445)
(-5.50797e-13 -16.1134 21.4877)
(-7.22616e-13 -16.5957 20.002)
(-9.17536e-13 -16.9633 19.3675)
(-1.04869e-12 -16.1076 17.8077)
(-8.55556e-13 -13.1468 15.6912)
(-7.38215e-13 -9.76116 13.3318)
(-7.57681e-13 -7.51446 15.2979)
(2.87224e-16 0.891907 0.698932)
(1.55227e-14 -2.31526 6.30431)
(1.761e-14 -1.96653 4.07591)
(1.83712e-14 -2.16344 4.25268)
(2.03778e-14 -2.04318 4.18319)
(3.22062e-14 -3.80061 5.6642)
(2.66438e-14 -4.05362 2.94815)
(2.74591e-14 -4.1847 3.21238)
(2.601e-14 -3.99734 3.14093)
(2.61992e-14 -6.16544 4.2775)
(3.49111e-15 -5.77436 1.93138)
(6.1051e-15 -5.47361 2.22668)
(6.46475e-15 -7.67107 2.96544)
(4.77897e-15 -7.1235 1.09512)
(4.98233e-15 -7.31147 1.30663)
(5.27528e-15 -6.84189 1.25485)
(7.66908e-15 -9.56539 1.79164)
(6.17138e-15 -8.37646 0.249389)
(3.73726e-15 -7.97998 0.438658)
(8.27277e-15 -10.5179 0.666154)
(7.45033e-15 -9.41789 -0.4257)
(9.24614e-15 -9.65376 -0.271981)
(1.05571e-14 -8.89698 -0.306188)
(1.11107e-14 -11.7915 -0.224577)
(9.99276e-15 -10.2807 -1.02061)
(1.10873e-14 -10.496 -0.878978)
(1.19464e-14 -9.73585 -0.87882)
(2.13183e-14 -12.9186 -1.04182)
(1.41408e-14 -10.9042 -1.53901)
(1.77105e-14 -10.4065 -1.4384)
(2.15035e-14 -13.1442 -1.73506)
(1.43719e-14 -11.4333 -1.93461)
(1.65944e-14 -11.6318 -1.83618)
(1.48794e-14 -10.7653 -1.83129)
(2.26896e-14 -13.9302 -2.32035)
(1.37262e-14 -11.6506 -2.29726)
(1.37752e-14 -11.1299 -2.29552)
(1.68536e-14 -13.6174 -2.97681)
(1.10691e-14 -11.7096 -2.62064)
(1.10452e-14 -11.9453 -2.59103)
(1.05177e-14 -10.9555 -2.59778)
(9.98249e-15 -13.5619 -3.44065)
(7.1885e-15 -11.4328 -2.93973)
(7.09973e-15 -11.6425 -2.93153)
(6.7483e-15 -10.713 -2.92497)
(8.61324e-15 -13.2599 -3.99406)
(5.32021e-15 -11.0028 -3.31782)
(7.97403e-15 -10.4577 -3.41547)
(8.2285e-15 -12.2037 -4.69549)
(4.93223e-15 -10.4021 -3.76594)
(1.55583e-15 -10.5209 -3.7889)
(2.0002e-15 -9.59816 -3.76591)
(2.34349e-15 -11.2594 -5.22053)
(1.3538e-15 -9.46081 -4.11115)
(1.66871e-15 -9.52191 -4.11151)
(1.83524e-15 -8.67452 -4.03713)
(-1.50201e-15 -10.0798 -5.62148)
(-1.07811e-16 -8.46565 -4.41081)
(7.3515e-16 -7.88215 -4.50924)
(7.65921e-15 -8.60274 -6.26092)
(4.80396e-15 -7.40387 -4.93222)
(5.77828e-15 -7.27222 -4.86898)
(5.76841e-15 -6.57917 -4.70228)
(6.7046e-16 -7.04667 -6.55079)
(-1.59296e-14 -6.10431 -5.13853)
(-1.59076e-14 -5.49053 -5.14044)
(-2.50147e-14 -5.41403 -7.16998)
(-2.50998e-14 -4.86064 -5.846)
(-2.12039e-14 -4.4602 -5.59852)
(-2.74398e-14 -3.9816 -5.25468)
(-4.55019e-14 -3.30284 -7.47396)
(-5.00535e-14 -3.25329 -6.30148)
(-5.15303e-14 -2.70225 -5.72716)
(-4.72686e-14 -2.37005 -5.09333)
(-2.71217e-14 -0.875676 -7.90256)
(2.67382e-14 -1.69499 -8.18188)
(2.82992e-14 -0.807261 -6.73246)
(1.54803e-14 1.3474 -5.25042)
(-5.69668e-14 -0.427392 -3.69401)
(6.29604e-14 0.55432 -7.98991)
(-7.97082e-15 0.762026 -8.23269)
(-5.59663e-14 0.768198 -5.98071)
(-2.46788e-13 1.72377 1.40814)
(4.34737e-14 5.96797 -2.70171)
(-2.0243e-13 2.53209 6.50471)
(-3.46256e-13 3.71045 9.8387)
(-5.11199e-13 4.16859 13.4103)
(-6.63858e-13 4.05304 16.5493)
(-7.96107e-13 4.00733 19.0203)
(-8.94476e-13 3.93689 20.8511)
(-9.7568e-13 3.95824 22.3352)
(-1.09231e-12 3.62776 23.8587)
(-1.15176e-12 10.4537 26.3527)
(-1.28788e-12 5.91771 29.8233)
(-1.28312e-12 6.74331 29.4086)
(-1.24462e-12 6.93338 28.7917)
(-1.23311e-12 6.29552 28.5357)
(-1.21388e-12 6.38169 27.9621)
(-1.06735e-12 6.1849 28.0924)
(-6.95924e-13 6.47412 21.3792)
(-4.74461e-13 6.78868 13.3931)
(-2.14812e-13 13.1977 8.38128)
(-3.19287e-13 8.06917 6.0023)
(-2.84222e-13 9.09921 1.73867)
(-2.29287e-13 8.75475 -2.36734)
(-1.72056e-13 8.79363 -6.02891)
(-1.20623e-13 9.10666 -9.11403)
(-7.6241e-14 9.43805 -11.5362)
(-5.5723e-14 9.79884 -13.2437)
(-3.88212e-14 10.2429 -14.618)
(-4.70153e-14 10.6731 -14.8233)
(1.46115e-13 16.6351 -18.3779)
(-3.28441e-15 10.8857 -12.2068)
(-5.02505e-14 12.2431 -12.5464)
(-7.63894e-14 12.4712 -13.2456)
(-7.75315e-14 12.6245 -13.9762)
(-6.42652e-14 13.0671 -14.6976)
(-2.2548e-14 13.4283 -14.9156)
(8.38682e-15 13.873 -15.1759)
(-1.05405e-14 14.2002 -14.425)
(1.1555e-13 20.5187 -19.2184)
(1.15867e-14 14.8616 -12.7416)
(-3.19762e-14 16.2023 -12.6027)
(-3.65521e-14 16.5639 -12.4194)
(-3.81982e-14 16.768 -12.4434)
(-4.06719e-14 17.2692 -12.4774)
(-4.45527e-14 17.6168 -12.2174)
(-6.09781e-14 18.1789 -12.4298)
(-8.46074e-14 18.3136 -10.8034)
(-1.31441e-14 25.658 -17.5808)
(-8.93526e-14 19.834 -10.2688)
(-9.71863e-14 21.2592 -9.8425)
(-1.09641e-13 21.7226 -9.63671)
(-1.08493e-13 21.9132 -9.18949)
(-1.11986e-13 22.4196 -8.69209)
(-1.25879e-13 22.8176 -8.0353)
(-1.38266e-13 23.3556 -7.69971)
(-1.57891e-13 23.486 -6.00272)
(-1.14989e-13 31.6386 -14.4042)
(-1.66997e-13 25.7088 -5.94015)
(-1.71403e-13 27.3397 -5.08715)
(-1.74505e-13 27.7742 -4.27436)
(-1.81773e-13 27.95 -3.332)
(-1.87332e-13 28.4555 -2.34634)
(-2.09285e-13 28.8903 -0.856052)
(-2.22605e-13 29.1667 0.646921)
(-2.34651e-13 29.683 1.77426)
(-2.53892e-13 29.557 4.42856)
(-1.95314e-13 39.0839 -5.23421)
(-2.34671e-13 32.9703 4.45338)
(-2.31371e-13 34.7486 6.3488)
(-2.37335e-13 35.1046 8.03055)
(-2.42141e-13 35.1751 9.75552)
(-2.46274e-13 35.6917 11.5249)
(-2.5613e-13 35.918 13.4422)
(-2.66535e-13 36.3893 15.0721)
(-2.72172e-13 36.0962 18.041)
(-2.37659e-13 48.0294 8.31995)
(-2.77588e-13 40.5244 17.2912)
(-2.96301e-13 43.0817 19.8097)
(-2.30187e-13 40.8974 13.7781)
(-2.72897e-13 41.3351 13.6172)
(-3.3732e-13 50.6206 13.5525)
(-2.34358e-13 38.1342 9.61505)
(-3.32913e-13 55.2064 10.4088)
(-2.5451e-13 41.5725 8.22887)
(-3.15815e-13 47.0499 8.05799)
(-3.81267e-13 55.2632 7.62655)
(-2.71153e-13 43.8272 5.96542)
(-3.27172e-13 52.7443 5.51684)
(-3.82495e-13 62.1128 4.99831)
(-2.60692e-13 45.2816 3.86111)
(-3.46831e-13 67.2338 3.03138)
(-2.54779e-13 50.8839 2.69169)
(-3.03838e-13 57.7223 1.64369)
(-3.40846e-13 68.8831 0.675017)
(-2.27515e-13 50.9462 0.826969)
(-2.95666e-13 75.9 -1.02953)
(-2.13672e-13 57.1083 -0.441267)
(-2.47673e-13 66.0195 -2.24955)
(-2.70247e-13 75.2782 -3.61314)
(-1.83637e-13 59.2251 -2.01945)
(-2.10782e-13 73.4717 -3.8861)
(-2.37243e-13 83.803 -5.03174)
(-1.59061e-13 60.7143 -3.11134)
(-2.09582e-13 90.9833 -5.77885)
(-1.55081e-13 68.684 -3.81663)
(-1.8575e-13 78.4658 -5.84243)
(-2.22562e-13 91.1222 -6.44117)
(-1.53621e-13 67.1609 -3.89309)
(-2.14682e-13 100.091 -6.16143)
(-1.64857e-13 75.0021 -3.85995)
(-2.04402e-13 86.5579 -5.63571)
(-2.5743e-13 96.6361 -5.49272)
(-1.88431e-13 75.2432 -2.82658)
(-2.34244e-13 93.5667 -3.96742)
(-3.01123e-13 104.578 -3.00133)
(-2.12259e-13 75.0424 -1.42556)
(-3.07289e-13 111.406 -2.13062)
(-2.38452e-13 83.3891 -0.682467)
(-3.00224e-13 94.665 -1.34182)
(-3.82188e-13 107.882 0.514361)
(-2.67751e-13 78.6787 1.0178)
(-3.87465e-13 116.046 1.5704)
(-2.98371e-13 86.0648 2.14114)
(-3.7519e-13 98.4294 2.18406)
(-4.71528e-13 108.41 4.87642)
(-3.38807e-13 83.1714 4.54586)
(-4.21345e-13 102.806 5.45529)
(-5.21947e-13 113.271 8.98574)
(-3.59132e-13 80.3129 6.67256)
(-5.03668e-13 117.858 9.37589)
(-3.76427e-13 87.0842 7.69734)
(-4.63983e-13 98.2354 9.08023)
(-5.58514e-13 110.115 12.6864)
(-3.78219e-13 79.4182 8.93613)
(-5.1808e-13 115.993 12.0336)
(-3.79934e-13 84.9632 9.33035)
(-4.62707e-13 96.5725 10.6734)
(-5.38613e-13 104.937 13.5712)
(-3.68689e-13 79.5553 9.81176)
(-4.43505e-13 98.1384 11.2803)
(-5.1017e-13 106.751 14.0597)
(-3.37929e-13 74.9512 9.43384)
(-4.52721e-13 109.768 11.9049)
(-3.24954e-13 80.381 8.79815)
(-3.89556e-13 90.6535 9.73257)
(-4.45435e-13 100.883 11.6703)
(-2.91991e-13 72.1848 7.70887)
(-3.87947e-13 106.06 9.26542)
(-2.75372e-13 77.2318 6.71078)
(-3.29099e-13 88.129 6.8933)
(-3.687e-13 95.6402 7.62052)
(-2.44951e-13 72.2463 5.16544)
(-2.90405e-13 89.8342 5.04288)
(-3.29193e-13 98.2181 5.12126)
(-2.12401e-13 68.5319 3.07687)
(-2.83408e-13 102.688 2.01993)
(-1.96864e-13 74.4158 1.25318)
(-2.5221e-13 87.952 -1.28331)
(-3.00421e-16 -15.2632 18.4936)
(-3.29898e-16 -23.5596 19.5352)
(-3.53226e-16 -26.5364 20.0565)
(-3.861e-16 -31.5756 20.2572)
(-4.16912e-16 -35.2222 20.3845)
(-4.47601e-16 -38.902 20.1608)
(-4.72785e-16 -42.0449 19.7625)
(-4.91798e-16 -45.142 19.1414)
(-5.04166e-16 -48.0379 18.2699)
(-5.08963e-16 -50.434 17.0883)
(-5.04729e-16 -52.1367 15.653)
(-4.91511e-16 -53.7964 14.1672)
(-4.71954e-16 -56.3443 12.6982)
(-4.476e-16 -58.7226 10.8026)
(-4.16969e-16 -60.1631 8.94763)
(-3.82848e-16 -58.6049 6.47665)
(-3.407e-16 -57.8331 4.91362)
(-2.94437e-16 -60.3922 2.92681)
(-2.4689e-16 -60.5142 0.93486)
(-1.99039e-16 -60.4514 -0.990594)
(-1.53922e-16 -58.6543 -3.02547)
(-1.14457e-16 -58.4004 -4.71324)
(-7.89337e-17 -58.1202 -6.72294)
(-4.77222e-17 -55.5857 -8.29047)
(-2.60053e-17 -52.8188 -9.88926)
(-2.19012e-17 -51.2567 -11.3177)
(-4.77773e-17 -48.0951 -12.8173)
(-1.03295e-16 -44.4849 -13.6389)
(-2.42213e-16 -37.3083 -14.477)
(-2.85263e-16 -24.7267 -13.738)
(-1.60288e-16 -14.4925 -12.8145)
(1.26969e-16 -8.85894 -13.5902)
(-1.36501e-16 12.5952 -13.5333)
(-1.55694e-15 41.8183 -7.40147)
(-2.84246e-15 46.8304 -5.73455)
(-3.67628e-15 44.5615 -5.91334)
(-4.54042e-15 45.8703 -1.93351)
(-5.34713e-15 41.0333 5.90003)
(-5.22905e-15 -1.22714 -2.25822)
(-4.47891e-15 -32.0907 -5.1832)
(-3.44643e-15 -29.5622 -5.65656)
(-2.44792e-15 -20.3685 -6.10276)
(-1.92683e-15 -12.0084 -6.33716)
(-1.7737e-15 -4.56524 -6.35127)
(-1.73787e-15 3.31038 -7.09108)
(-1.65975e-15 2.58892 -3.74489)
(-2.27428e-15 17.9571 -13.5013)
(-1.74285e-15 45.5644 -25.8629)
(-7.43249e-16 54.8728 -30.6543)
(-1.73265e-16 45.9212 -30.5797)
(-2.55885e-17 30.5031 -29.0913)
(-3.34551e-17 15.3547 -27.635)
(-5.06141e-17 3.5603 -26.9116)
(-9.68222e-17 -1.08775 -28.3869)
(-1.32961e-16 -2.56634 -21.8732)
(-1.24563e-16 -1.30494 -16.0732)
(-8.4926e-17 13.7254 -29.9583)
(-3.90123e-17 37.8028 -38.4289)
(-1.52665e-17 6.22607 -31.9827)
(6.02133e-19 -88.6694 -31.435)
(6.82236e-19 -106.144 -30.2656)
(9.26773e-20 -90.0151 -27.9307)
(4.82893e-20 -73.0385 -26.6652)
(7.71934e-20 -59.2517 -26.0352)
(7.27984e-20 -47.856 -25.7762)
(4.17695e-20 -37.9976 -25.7736)
(2.53292e-19 -29.0596 -25.919)
(3.03516e-19 -20.6116 -26.1073)
(-9.71535e-19 -12.3902 -26.2614)
(-2.52807e-18 -4.3543 -26.3222)
(1.27213e-17 3.89869 -26.419)
(-2.40067e-17 12.6833 -26.0426)
(-2.36331e-17 21.8637 -24.7871)
(6.84273e-16 27.5243 -21.3422)
(-3.52211e-15 42.1311 -17.1313)
(-5.70808e-16 69.9335 -12.7289)
(4.86825e-15 93.6548 -8.47821)
(1.07139e-14 110.627 -7.44048)
(-1.93129e-13 135.433 -1.54685)
(-3.02615e-16 -15.7016 18.4921)
(-3.3196e-16 -23.8043 19.6833)
(-3.55776e-16 -26.6819 20.1473)
(-3.88312e-16 -31.6017 20.3549)
(-4.18939e-16 -35.1333 20.4566)
(-4.49193e-16 -38.7111 20.2121)
(-4.73926e-16 -41.7641 19.8008)
(-4.92534e-16 -44.7784 19.166)
(-5.04531e-16 -47.5761 18.2849)
(-5.08962e-16 -49.8705 17.0915)
(-5.04406e-16 -51.5057 15.6466)
(-4.91011e-16 -53.15 14.1588)
(-4.71406e-16 -55.6478 12.6844)
(-4.47012e-16 -57.9696 10.8026)
(-4.16446e-16 -59.3102 8.94305)
(-3.82341e-16 -57.7384 6.4756)
(-3.40278e-16 -57.0149 4.9017)
(-2.94177e-16 -59.5422 2.92037)
(-2.46804e-16 -59.6623 0.931808)
(-1.99129e-16 -59.6005 -0.992419)
(-1.54167e-16 -57.8224 -3.02345)
(-1.14805e-16 -57.5769 -4.7161)
(-7.93684e-17 -57.3335 -6.7269)
(-4.81929e-17 -54.8625 -8.29825)
(-2.63229e-17 -52.118 -9.89145)
(-2.17144e-17 -50.581 -11.3398)
(-4.66e-17 -47.5463 -12.8585)
(-1.00482e-16 -44.0585 -13.7373)
(-2.36575e-16 -37.1943 -14.6213)
(-2.86091e-16 -24.9722 -13.95)
(-1.80274e-16 -14.5631 -13.0544)
(9.47054e-17 -9.20178 -13.7269)
(-6.42668e-17 11.7318 -14.9233)
(-1.33199e-15 40.5168 -8.41314)
(-2.67089e-15 46.6042 -6.14287)
(-3.54809e-15 43.9968 -6.14648)
(-4.40854e-15 44.1046 -3.02838)
(-5.25093e-15 40.7185 5.41775)
(-5.23402e-15 5.79996 -0.99419)
(-4.49697e-15 -30.8051 -5.72254)
(-3.47216e-15 -29.2373 -6.13458)
(-2.47873e-15 -20.2323 -6.35796)
(-1.94704e-15 -12.0073 -6.54608)
(-1.78212e-15 -4.92667 -6.48377)
(-1.73692e-15 2.91466 -7.86695)
(-1.76343e-15 3.4888 -5.82851)
(-2.36176e-15 21.2699 -15.9253)
(-1.64814e-15 48.0959 -26.7115)
(-5.83896e-16 55.5471 -30.3966)
(-6.79178e-17 45.64 -29.846)
(1.6905e-17 30.0022 -28.1246)
(-2.33684e-17 14.9972 -26.3284)
(-4.73514e-17 3.5006 -25.1099)
(-8.71301e-17 -1.73721 -26.5516)
(-1.32545e-16 -4.04737 -20.8696)
(-1.25635e-16 0.567754 -19.4922)
(-7.96897e-17 17.3327 -33.1661)
(-3.28348e-17 38.0837 -39.9207)
(-1.31442e-17 3.85463 -31.5309)
(3.7036e-19 -87.6249 -31.2413)
(7.54206e-19 -106.646 -30.6359)
(1.13053e-19 -90.6692 -28.0007)
(4.52545e-20 -73.4401 -26.6301)
(7.55022e-20 -59.4957 -25.9897)
(7.36122e-20 -48.0062 -25.7322)
(4.06082e-20 -38.0841 -25.7252)
(2.36156e-19 -29.1078 -25.8655)
(3.3399e-19 -20.6413 -26.0479)
(-7.77765e-19 -12.4116 -26.1928)
(-3.11341e-18 -4.34205 -26.2425)
(1.61243e-17 3.88258 -26.2588)
(-3.63553e-17 12.445 -25.5989)
(1.07072e-17 21.1471 -24.2155)
(6.54775e-16 26.3599 -20.9082)
(-3.69546e-15 40.8762 -17.2768)
(-8.82729e-16 68.6376 -13.0623)
(4.84362e-15 92.8359 -9.09082)
(1.11461e-14 109.408 -7.30784)
(-1.9237e-13 134.55 -0.0963817)
(-3.05407e-16 -15.7663 18.5796)
(-3.34573e-16 -23.9456 19.8814)
(-3.58937e-16 -26.7374 20.2834)
(-3.91043e-16 -31.6351 20.4855)
(-4.21422e-16 -35.1307 20.5622)
(-4.51133e-16 -38.6668 20.2905)
(-4.75311e-16 -41.6843 19.8656)
(-4.93423e-16 -44.6542 19.214)
(-5.04964e-16 -47.3952 18.3197)
(-5.08944e-16 -49.6341 17.11)
(-5.03999e-16 -51.2438 15.6533)
(-4.90392e-16 -52.8886 14.1641)
(-4.70728e-16 -55.3414 12.6826)
(-4.46287e-16 -57.6203 10.8129)
(-4.15801e-16 -58.9002 8.94162)
(-3.81717e-16 -57.3714 6.47567)
(-3.39759e-16 -56.7082 4.89292)
(-2.93858e-16 -59.1817 2.91758)
(-2.46699e-16 -59.3077 0.929349)
(-1.9924e-16 -59.2412 -0.995881)
(-1.54468e-16 -57.4931 -3.0248)
(-1.15234e-16 -57.2484 -4.7232)
(-7.99036e-17 -57.0151 -6.73712)
(-4.87739e-17 -54.5904 -8.31658)
(-2.67215e-17 -51.8609 -9.90563)
(-2.15037e-17 -50.3248 -11.3808)
(-4.51842e-17 -47.3496 -12.9258)
(-9.70699e-17 -43.9153 -13.8804)
(-2.29621e-16 -37.1947 -14.8201)
(-2.86296e-16 -25.153 -14.2513)
(-2.03533e-16 -14.5309 -13.3619)
(5.46896e-17 -8.87225 -14.228)
(-6.24549e-17 11.5161 -15.6996)
(-1.22754e-15 39.7468 -9.08742)
(-2.57324e-15 46.3728 -6.49692)
(-3.48807e-15 43.775 -6.19807)
(-4.36434e-15 43.2841 -3.23578)
(-5.19537e-15 40.1848 4.80527)
(-5.24119e-15 7.11186 0.0400783)
(-4.52069e-15 -30.4759 -6.58085)
(-3.50664e-15 -29.2409 -6.82155)
(-2.51966e-15 -20.1965 -6.80864)
(-1.97501e-15 -11.9311 -6.91445)
(-1.79789e-15 -4.71346 -6.87708)
(-1.74602e-15 3.11602 -8.43419)
(-1.82966e-15 4.33704 -7.42433)
(-2.40229e-15 22.8492 -17.2602)
(-1.58918e-15 49.0337 -26.9788)
(-5.02717e-16 55.7005 -29.9976)
(-2.5181e-17 45.4346 -29.2119)
(2.5248e-17 29.713 -27.378)
(-3.06906e-17 14.7357 -25.3535)
(-5.96981e-17 3.47244 -23.7545)
(-8.96667e-17 -2.07305 -24.2649)
(-1.36017e-16 -4.55703 -19.7346)
(-1.328e-16 1.25364 -20.9755)
(-7.80573e-17 18.5342 -34.4676)
(-3.01194e-17 37.9132 -40.3884)
(-1.19134e-17 2.69803 -32.1645)
(1.59119e-19 -87.9351 -31.043)
(8.20351e-19 -107.024 -30.8797)
(1.39821e-19 -91.027 -28.0468)
(4.21943e-20 -73.5931 -26.5912)
(7.31337e-20 -59.5337 -25.9299)
(7.45181e-20 -47.9821 -25.6704)
(3.95931e-20 -38.0226 -25.6576)
(2.14704e-19 -29.0317 -25.7921)
(3.65184e-19 -20.5712 -25.9685)
(-5.24878e-19 -12.3645 -26.1027)
(-4.00434e-18 -4.3352 -26.1348)
(1.75744e-17 3.7783 -26.068)
(-4.25714e-17 12.2396 -25.3059)
(2.82998e-17 20.7995 -23.9437)
(6.45217e-16 25.8817 -20.7488)
(-3.74211e-15 40.3003 -17.3837)
(-1.28915e-15 68.012 -13.3824)
(4.79289e-15 92.3455 -9.57619)
(1.15169e-14 108.593 -7.24607)
(-1.89273e-13 133.479 0.449373)
(-3.08465e-16 -15.8583 18.7788)
(-3.37379e-16 -24.0803 20.1097)
(-3.62254e-16 -26.7762 20.4523)
(-3.93893e-16 -31.6645 20.6311)
(-4.23988e-16 -35.1255 20.6876)
(-4.53124e-16 -38.6318 20.3858)
(-4.76727e-16 -41.6214 19.9489)
(-4.94327e-16 -44.557 19.2791)
(-5.05393e-16 -47.2529 18.3693)
(-5.08906e-16 -49.4489 17.1414)
(-5.03562e-16 -51.0418 15.6741)
(-4.89742e-16 -52.6892 14.1836)
(-4.70016e-16 -55.1079 12.6931)
(-4.4553e-16 -57.3533 10.8303)
(-4.15126e-16 -58.5854 8.94294)
(-3.81067e-16 -57.0967 6.4792)
(-3.39221e-16 -56.4867 4.88911)
(-2.93526e-16 -58.9169 2.91766)
(-2.4659e-16 -59.0502 0.927729)
(-1.99355e-16 -58.9792 -0.999603)
(-1.5478e-16 -57.2552 -3.02859)
(-1.15679e-16 -57.0088 -4.7332)
(-8.04607e-17 -56.7809 -6.7504)
(-4.93804e-17 -54.3926 -8.34106)
(-2.71461e-17 -51.6714 -9.92954)
(-2.13092e-17 -50.1277 -11.4319)
(-4.37537e-17 -47.1887 -13.004)
(-9.35854e-17 -43.7849 -14.0399)
(-2.22384e-16 -37.1757 -15.0362)
(-2.85534e-16 -25.2899 -14.6034)
(-2.25189e-16 -14.4824 -13.6828)
(9.13807e-18 -8.47917 -14.9317)
(-5.53639e-17 10.9696 -16.6002)
(-1.10399e-15 38.7146 -9.93286)
(-2.45617e-15 46.0744 -6.95983)
(-3.41238e-15 43.3839 -6.41238)
(-4.30399e-15 42.1644 -3.62004)
(-5.13799e-15 39.5674 4.37182)
(-5.25219e-15 8.24327 0.679217)
(-4.54753e-15 -30.2601 -7.53773)
(-3.54589e-15 -29.377 -7.59769)
(-2.56604e-15 -20.2547 -7.36258)
(-2.00811e-15 -11.8859 -7.37036)
(-1.82179e-15 -4.48713 -7.47285)
(-1.76102e-15 3.20072 -9.0888)
(-1.91377e-15 5.25316 -8.66824)
(-2.45643e-15 24.9281 -18.5592)
(-1.52198e-15 50.3544 -27.2786)
(-4.10224e-16 55.9283 -29.5469)
(2.19478e-17 45.1368 -28.4547)
(3.38059e-17 29.2772 -26.4731)
(-3.84845e-17 14.3533 -24.1674)
(-7.29779e-17 3.18147 -22.1442)
(-9.79098e-17 -2.39078 -21.678)
(-1.4408e-16 -4.69122 -17.8915)
(-1.36323e-16 3.18522 -21.8956)
(-7.32447e-17 20.7025 -35.8918)
(-2.662e-17 37.7588 -40.5779)
(-1.06512e-17 1.91509 -32.8324)
(-4.05792e-21 -88.1041 -30.8639)
(8.6608e-19 -107.334 -30.9444)
(1.68523e-19 -91.3977 -28.0663)
(4.00404e-20 -73.7732 -26.56)
(7.03641e-20 -59.6004 -25.8674)
(7.53059e-20 -47.9912 -25.5995)
(3.90682e-20 -37.9971 -25.5783)
(1.92481e-19 -28.9912 -25.7058)
(3.85503e-19 -20.5354 -25.8754)
(-2.33327e-19 -12.3494 -25.996)
(-4.909e-18 -4.34752 -25.9939)
(1.91614e-17 3.70312 -25.85)
(-5.1316e-17 12.0192 -24.9944)
(5.00187e-17 20.3062 -23.6368)
(6.34461e-16 25.1517 -20.52)
(-3.83356e-15 39.5328 -17.4588)
(-1.64427e-15 67.1777 -13.6679)
(4.77816e-15 91.6823 -10.0279)
(1.18244e-14 107.547 -7.19368)
(-1.84593e-13 132.239 -0.222008)
(-3.11732e-16 -16.0343 19.0722)
(-3.40285e-16 -24.2442 20.363)
(-3.65621e-16 -26.8239 20.6546)
(-3.96766e-16 -31.6912 20.7921)
(-4.2655e-16 -35.0937 20.8343)
(-4.55099e-16 -38.5582 20.501)
(-4.78125e-16 -41.5063 20.0537)
(-4.95212e-16 -44.398 19.3644)
(-5.05802e-16 -47.0378 18.4378)
(-5.08845e-16 -49.1795 17.1905)
(-5.03107e-16 -50.7462 15.7132)
(-4.89081e-16 -52.3914 14.2203)
(-4.69293e-16 -54.775 12.7186)
(-4.44765e-16 -56.9819 10.8583)
(-4.14443e-16 -58.1552 8.95218)
(-3.80411e-16 -56.6923 6.48997)
(-3.3868e-16 -56.1315 4.89151)
(-2.93191e-16 -58.5235 2.92141)
(-2.46478e-16 -58.661 0.927922)
(-1.99469e-16 -58.586 -1.00283)
(-1.55094e-16 -56.8821 -3.03434)
(-1.16127e-16 -56.635 -4.74687)
(-8.10213e-17 -56.4185 -6.76847)
(-4.99929e-17 -54.0704 -8.37306)
(-2.75842e-17 -51.3574 -9.96506)
(-2.114e-17 -49.8091 -11.4962)
(-4.236e-17 -46.918 -13.0975)
(-9.01443e-17 -43.559 -14.2217)
(-2.15104e-16 -37.1004 -15.28)
(-2.83808e-16 -25.4156 -15.0086)
(-2.43488e-16 -14.4303 -14.0402)
(-4.02296e-17 -8.16949 -15.6153)
(-6.28601e-17 10.5472 -17.3957)
(-9.94936e-16 37.7148 -10.8216)
(-2.34007e-15 45.7177 -7.50296)
(-3.33861e-15 43.0381 -6.68296)
(-4.24838e-15 41.168 -4.03907)
(-5.08501e-15 38.7522 3.99521)
(-5.27158e-15 14.6818 1.67304)
(-4.57676e-15 -29.5809 -8.51279)
(-3.58848e-15 -29.4389 -8.46895)
(-2.6165e-15 -20.3007 -8.01878)
(-2.04568e-15 -11.852 -7.90182)
(-1.8532e-15 -4.3258 -8.19262)
(-1.78253e-15 3.37147 -9.73486)
(-2.00847e-15 6.23651 -9.93985)
(-2.50913e-15 26.6843 -19.7679)
(-1.45572e-15 51.3033 -27.4696)
(-3.27826e-16 55.9893 -28.9938)
(5.74547e-17 44.8129 -27.6185)
(3.48308e-17 28.8428 -25.5175)
(-5.04843e-17 13.9528 -22.9446)
(-9.01517e-17 2.72505 -20.4256)
(-1.10619e-16 -2.79494 -18.9989)
(-1.55842e-16 -4.57886 -15.1976)
(-1.33576e-16 4.99002 -22.622)
(-6.63957e-17 22.3392 -37.1441)
(-2.35251e-17 37.5268 -40.5934)
(-9.44398e-18 0.734742 -33.2344)
(-1.16072e-19 -88.1298 -30.694)
(8.91668e-19 -107.649 -30.8917)
(1.96791e-19 -91.8406 -28.0591)
(3.90897e-20 -74.0135 -26.5239)
(6.73466e-20 -59.7097 -25.7958)
(7.59015e-20 -48.0325 -25.5152)
(3.90503e-20 -37.9975 -25.4842)
(1.71136e-19 -28.971 -25.604)
(3.89991e-19 -20.5147 -25.7657)
(7.87988e-20 -12.344 -25.8706)
(-5.7022e-18 -4.36818 -25.8297)
(2.08617e-17 3.5895 -25.6183)
(-5.97431e-17 11.7886 -24.6899)
(7.12154e-17 19.8904 -23.3578)
(6.26093e-16 24.5775 -20.3032)
(-3.9263e-15 38.912 -17.5059)
(-2.00339e-15 66.4676 -13.9471)
(4.76421e-15 91.0353 -10.4673)
(1.20778e-14 106.503 -7.14454)
(-1.78893e-13 130.862 0.86339)
(-3.15171e-16 -16.1881 19.4572)
(-3.43259e-16 -24.3973 20.6228)
(-3.69008e-16 -26.8601 20.8845)
(-3.99636e-16 -31.7104 20.9661)
(-4.29089e-16 -35.0507 21.0009)
(-4.57044e-16 -38.4722 20.6361)
(-4.79497e-16 -41.3763 20.1811)
(-4.96074e-16 -44.2211 19.4715)
(-5.06186e-16 -46.8011 18.5274)
(-5.08761e-16 -48.8859 17.2601)
(-5.02637e-16 -50.4258 15.7726)
(-4.88411e-16 -52.068 14.2757)
(-4.68563e-16 -54.4145 12.7613)
(-4.43996e-16 -56.5791 10.8996)
(-4.13755e-16 -57.6899 8.97179)
(-3.79753e-16 -56.2536 6.50888)
(-3.38138e-16 -55.7438 4.90107)
(-2.92854e-16 -58.0955 2.93021)
(-2.46366e-16 -58.2363 0.930731)
(-1.99582e-16 -58.1574 -1.00542)
(-1.55405e-16 -56.4753 -3.04212)
(-1.16573e-16 -56.2285 -4.76454)
(-8.15816e-17 -56.0249 -6.79252)
(-5.06075e-17 -53.7203 -8.41382)
(-2.8033e-17 -51.0163 -10.0133)
(-2.09979e-17 -49.4629 -11.5757)
(-4.10127e-17 -46.6203 -13.2094)
(-8.67638e-17 -43.3086 -14.4286)
(-2.07815e-16 -37.0032 -15.5567)
(-2.81193e-16 -25.5334 -15.4626)
(-2.58028e-16 -14.3507 -14.4638)
(-9.05865e-17 -7.82019 -16.2083)
(-7.61244e-17 10.1053 -18.1493)
(-8.92061e-16 36.6737 -11.7682)
(-2.22e-15 45.3046 -8.1383)
(-3.25997e-15 42.6527 -7.04923)
(-4.18822e-15 40.1469 -4.60511)
(-5.03218e-15 37.7118 3.50516)
(-5.29364e-15 15.9999 1.61091)
(-4.60798e-15 -28.8092 -9.49165)
(-3.63349e-15 -29.5002 -9.41503)
(-2.67021e-15 -20.3621 -8.7635)
(-2.08742e-15 -11.8139 -8.4958)
(-1.89085e-15 -4.1615 -8.97819)
(-1.81067e-15 3.5657 -10.3865)
(-2.11007e-15 7.27797 -11.1127)
(-2.55972e-15 28.4121 -20.8831)
(-1.3907e-15 52.1486 -27.6141)
(-2.52685e-16 55.9732 -28.3944)
(8.5611e-17 44.4434 -26.7338)
(3.21362e-17 28.3549 -24.5221)
(-6.31853e-17 13.4584 -21.6929)
(-1.08393e-16 2.1853 -18.5241)
(-1.26118e-16 -3.28995 -16.3521)
(-1.69309e-16 -4.06552 -11.6367)
(-1.24188e-16 7.58298 -23.5763)
(-5.84539e-17 24.0766 -38.2977)
(-2.0722e-17 37.1862 -40.2881)
(-8.3034e-18 -0.49996 -33.3948)
(-1.79545e-19 -88.2626 -30.5257)