/*--------------------------------*- C++ -*----------------------------------*\
| =========                 |                                                 |
| \\      /  F ield         | OpenFOAM: The Open Source CFD Toolbox           |
|  \\    /   O peration     | Version:  4.1                                   |
|   \\  /    A nd           | Web:      www.OpenFOAM.org                      |
|    \\/     M anipulation  |                                                 |
\*---------------------------------------------------------------------------*/
FoamFile
{
    version     2.0;
    format      ascii;
    class       volScalarField;
    location    "11";
    object      p;
}
// * * * * * * * * * * * * * * * * * * * * * * * * * * * * * * * * * * * * * //

dimensions      [0 2 -2 0 0 0 0];

internalField   nonuniform List<scalar> 
6785
(
599.1
523.3
475.395
423.144
376.613
332.23
290.786
251.66
214.7
179.656
145.705
112.907
84.4138
53.6832
14.3592
2.18731
-15.1951
-6.2768
-12.4312
-12.459
-14.6889
-15.6328
-16.2954
-16.1342
-15.0562
-12.9347
-10.0951
-5.88606
0.0213523
3.42437
18.0893
14.427
24.3722
21.0479
25.4372
25.6933
27.4645
28.3697
29.3762
30.231
31.1662
31.9859
32.4944
32.9647
34.5393
56.1311
53.3076
56.6635
51.7846
53.2087
50.5566
50.0424
48.5642
47.6166
46.6349
45.9062
45.3564
44.88
44.2197
43.2856
25.8862
21.7258
22.8327
18.5837
19.4025
16.5067
16.125
14.4119
13.5172
12.3875
11.6373
11.1023
10.2481
8.84182
7.91682
-0.83515
-4.16258
-2.72857
-5.82797
-4.64716
-7.06506
-7.03819
-8.51604
-9.25044
-10.1871
-10.6574
-10.7686
-10.8266
-10.9816
-9.51312
4.44867
3.61393
6.03069
4.49635
6.71548
5.83822
7.00742
6.99432
7.47184
7.74546
8.2019
8.75042
9.88111
11.1459
13.7841
25.8703
26.5894
28.9537
28.5347
30.9445
31.1724
32.8648
33.8488
35.1886
36.47
37.8661
39.2122
40.7632
41.9927
43.6412
41.8474
42.8734
44.6862
44.4929
46.3977
46.6483
47.9231
48.6798
49.625
50.508
51.4367
52.3167
53.3423
54.1161
55.1697
55.0526
56.1945
57.5484
57.4518
58.9204
59.0139
59.9625
60.4175
61.0895
61.7703
62.5194
63.2826
64.1475
64.741
65.6625
68.1615
69.1452
70.0356
70.1791
71.3819
71.64
72.5132
72.7536
72.9851
72.784
72.3701
72.0941
72.0973
72.4124
72.6067
75.7131
74.9513
75.0856
74.2741
74.4105
73.368
72.796
71.5287
70.2971
68.8434
67.5288
66.4738
65.7338
65.695
64.6342
69.8517
66.5749
64.842
62.4501
60.7779
58.6301
57.2487
55.6177
54.2155
52.5811
50.8826
49.2337
48.2245
47.7277
45.3449
43.5422
41.4039
39.1037
35.7944
32.6352
29.2396
26.3011
23.3321
20.7279
18.5092
16.9798
16.1779
16.1498
15.9683
14.758
54.3662
51.6154
46.7975
40.0395
31.9061
24.306
18.8951
14.9217
12.5461
12.4234
13.3516
14.6276
15.7716
16.1045
15.5235
41.1926
41.5605
41.8036
41.8023
41.9166
42.3143
42.9151
42.768
42.6729
42.6211
42.9736
42.5345
42.4391
42.5149
41.9695
41.7741
41.9123
41.8136
40.9744
41.2802
41.137
40.469
40.2714
40.7313
40.5132
39.8768
39.7186
40.1392
40.0914
39.3786
39.7416
39.764
39.3195
39.1981
39.4746
39.5591
39.1206
39.2793
39.4257
39.1735
39.0921
39.2229
39.3281
39.142
39.0814
39.1658
39.2432
39.0711
39.1674
39.0836
38.9537
38.928
39.0157
39.1016
38.9979
38.964
39.034
39.3613
39.3112
39.2515
39.7329
39.714
39.6515
39.5492
39.8925
39.9822
40.4837
40.1693
39.378
40.2934
40.8987
36.8022
34.7137
37.2056
38.2498
23.5855
30.6542
33.4031
2.59769
10.358
14.1214
12.9949
16.5752
12.0159
10.7472
15.8905
16.2103
17.324
17.698
18.657
21.2671
24.9792
27.3639
19.352
21.1848
25.0648
28.8276
29.207
30.8937
32.0957
33.9824
41.766
36.0206
38.9897
39.7275
42.2468
46.2542
48.6114
49.7492
51.5475
50.3132
61.8152
56.3421
57.9452
58.3586
58.8097
60.6466
63.8579
65.204
60.5255
67.2341
67.594
69.9291
70.4549
69.2622
67.8918
66.7788
68.0495
62.3869
71.9539
70.0494
65.0107
63.9433
62.0719
58.3727
55.6656
52.5171
43.5174
52.1279
55.1413
48.2799
44.9204
40.1146
33.8868
28.757
26.2928
22.4952
17.3319
17.56
18.7082
14.3394
14.2048
13.3783
11.9625
6.78556
5.32057
7.73494
-0.656161
9.53939
7.46458
6.37342
11.9689
6.78912
9.16348
8.09701
9.90296
12.4453
8.32774
10.6247
12.2971
9.48373
10.4432
9.67137
10.5243
12.2933
9.57165
10.3834
9.54291
10.4069
11.9972
8.79803
10.3431
11.6748
9.09646
9.80112
8.93111
9.6829
11.3977
8.52483
9.29776
8.28378
9.21959
10.8819
7.29626
9.00797
10.3791
7.50012
8.28723
7.245
8.1019
9.77561
6.76183
7.58987
6.49781
7.4492
8.94189
5.53882
7.13121
8.26747
5.68712
6.38167
5.45959
6.16097
7.44261
4.97449
5.62723
4.74642
5.43384
6.43656
3.91503
5.01271
5.65298
3.82628
4.25054
3.58018
3.96438
4.55801
2.96238
3.27934
2.67247
2.95673
3.23462
1.78028
2.20622
2.20524
1.15105
1.18575
0.674917
0.707886
0.889903
0.000699018
0.00116107
0.00191022
0.00243742
0.00305944
0.00362105
0.00421504
0.00479562
0.00539065
0.00598686
0.00659244
0.00720294
0.00781953
0.00843883
0.00905794
0.00967141
0.0102726
0.0108529
0.0114027
0.0119116
0.0123701
0.0127704
0.0131088
0.0133865
0.0136106
0.0137947
0.0139567
0.0141175
0.0142963
0.0145065
0.0147536
0.015036
0.0153539
0.0157212
0.0161777
0.0167887
0.0176256
0.0187256
0.0200458
0.0214451
0.0227375
0.0237598
0.0243563
0.02442
0.0239222
0.0228837
0.0213783
0.0194692
0.0171297
0.0141682
0.0101917
0.00467922
-0.00289503
-0.0129921
-0.0259762
-0.0416837
-0.0589159
-0.0799273
-0.109596
-0.0751549
-0.503818
-0.477435
-0.576719
-0.724546
-0.827041
-0.875536
-0.842067
-0.753521
-0.596123
-0.413889
-0.210949
-0.0312601
0.145092
0.229891
0.368597
0.341178
0.393529
0.509835
0.0500128
0.00200656
0.00330618
0.00541398
0.00693469
0.00867847
0.0102626
0.0119156
0.0135288
0.0151695
0.0168077
0.0184625
0.020124
0.0217939
0.0234633
0.0251231
0.0267577
0.0283475
0.0298678
0.0312904
0.0325857
0.0337262
0.0346906
0.0354686
0.0360648
0.0365014
0.0368182
0.0370691
0.0373146
0.0376108
0.0379969
0.0384878
0.0390787
0.0397686
0.0405977
0.0416812
0.0432092
0.0453895
0.0483324
0.0519173
0.0557433
0.0592894
0.0621148
0.0638066
0.0640999
0.0629641
0.060521
0.0570636
0.0528835
0.0480501
0.0421909
0.0343637
0.0232192
0.0072828
-0.014951
-0.0450216
-0.0832967
-0.127975
-0.185815
-0.252616
-0.21862
-0.88221
-0.870519
-1.08981
-1.38697
-1.59043
-1.68869
-1.62826
-1.45429
-1.15654
-0.806768
-0.44092
-0.0902989
0.208377
0.432847
0.636608
0.726203
0.837237
0.974598
0.94333
0.00312689
0.00534264
0.00892954
0.0115089
0.0144722
0.0171614
0.0199701
0.0227111
0.025501
0.0282876
0.0311044
0.0339343
0.0367808
0.0396287
0.0424635
0.0452587
0.047982
0.0505917
0.0530407
0.0552794
0.0572611
0.0589499
0.060328
0.0614026
0.0622107
0.0628186
0.0633164
0.0638059
0.0643813
0.0651086
0.0660122
0.0670834
0.0683189
0.0697854
0.0716755
0.0743106
0.078043
0.0830619
0.0891638
0.095669
0.101694
0.106488
0.109342
0.109796
0.107779
0.103475
0.0973502
0.0898639
0.0810881
0.0703344
0.0559443
0.0355826
0.00674078
-0.0330845
-0.0863332
-0.153251
-0.231146
-0.330311
-0.425502
-0.420428
-1.05731
-1.04357
-1.32657
-1.69847
-1.94698
-2.06436
-1.98641
-1.7703
-1.40458
-0.977263
-0.537084
-0.10982
0.241225
0.525385
0.760344
0.888661
1.05789
1.13051
1.36334
0.00419173
0.00731299
0.0123163
0.0159415
0.0200847
0.0238511
0.0277762
0.0316074
0.0355031
0.0393932
0.0433234
0.0472707
0.0512398
0.05521
0.0591608
0.0630556
0.0668491
0.0704832
0.0738921
0.077006
0.0797598
0.0821028
0.0840101
0.0854917
0.0865992
0.0874256
0.0880976
0.0887581
0.0895395
0.0905345
0.0917764
0.0932509
0.0949502
0.0969648
0.0995644
0.103202
0.10838
0.115371
0.123893
0.132987
0.141412
0.14812
0.152115
0.152762
0.14996
0.143978
0.135486
0.125146
0.113088
0.0983658
0.0786607
0.0506989
0.0109665
-0.0440669
-0.11782
-0.21058
-0.319877
-0.458385
-0.573727
-0.648717
-1.28978
-1.29017
-1.63406
-2.10083
-2.40798
-2.54836
-2.44706
-2.17752
-1.72387
-1.19695
-0.656736
-0.131442
0.295295
0.645049
0.931338
1.08237
1.31454
1.34978
1.64918
0.00515432
0.00921437
0.0156362
0.0203275
0.0256652
0.0305265
0.035584
0.0405223
0.0455403
0.0505511
0.0556123
0.0606952
0.065806
0.0709184
0.0760062
0.0810229
0.08591
0.0905931
0.0949874
0.0990029
0.102555
0.105579
0.108041
0.109954
0.111384
0.112451
0.113318
0.114171
0.115181
0.116468
0.118075
0.119977
0.122162
0.12474
0.128058
0.132706
0.139346
0.148345
0.159345
0.171093
0.181983
0.19066
0.195829
0.196668
0.193042
0.185298
0.174311
0.160955
0.145416
0.126475
0.101112
0.0650745
0.0138296
-0.0571632
-0.152188
-0.271434
-0.413303
-0.590055
-0.722837
-0.913625
-1.52416
-1.57531
-1.98319
-2.56137
-2.93732
-3.10329
-2.97468
-2.64356
-2.08929
-1.44881
-0.795821
-0.157992
0.353071
0.782132
1.12185
1.30998
1.60253
1.60964
2.10359
0.00605079
0.0110647
0.0188717
0.0246338
0.0311548
0.0371082
0.0432893
0.0493277
0.0554583
0.06158
0.067761
0.0739681
0.0802082
0.0864503
0.0926623
0.0987877
0.104755
0.110475
0.115841
0.120744
0.125081
0.12877
0.13177
0.134096
0.135829
0.137115
0.138156
0.13918
0.140398
0.14196
0.143913
0.146226
0.148871
0.151978
0.155971
0.161582
0.169644
0.180634
0.194117
0.208537
0.22191
0.232577
0.238934
0.239976
0.235535
0.226044
0.212602
0.196322
0.177476
0.154591
0.123941
0.0802965
0.0181344
-0.0680608
-0.183353
-0.327895
-0.501752
-0.713677
-0.865766
-1.20676
-1.71463
-1.85297
-2.32128
-3.01351
-3.45667
-3.64384
-3.48466
-3.09169
-2.43758
-1.68718
-0.926106
-0.179818
0.409691
0.916631
1.30367
1.53008
1.8784
1.85739
2.44298
0.00687762
0.0128705
0.0220385
0.0288821
0.0365835
0.0436343
0.0509398
0.0580807
0.0653249
0.0725588
0.0798603
0.0871923
0.0945628
0.101936
0.109274
0.11651
0.123562
0.13032
0.136663
0.142459
0.147584
0.151941
0.15548
0.158218
0.160251
0.161751
0.16296
0.164149
0.165573
0.167408
0.16971
0.172433
0.175532
0.17915
0.183788
0.19033
0.199794
0.212782
0.22879
0.245937
0.261848
0.274554
0.28213
0.283385
0.278111
0.266833
0.250892
0.231661
0.209527
0.182764
0.146922
0.0957837
0.0228712
-0.0782468
-0.213287
-0.382457
-0.587884
-0.831906
-1.01245
-1.53097
-1.87164
-2.13899
-2.66406
-3.4773
-3.98887
-4.19311
-3.99868
-3.54118
-2.78393
-1.92285
-1.0532
-0.198354
0.468442
1.05304
1.48515
1.74846
2.14826
2.09902
2.79325
0.00764729
0.0146402
0.0251376
0.0330696
0.0419431
0.0500924
0.0585178
0.0667591
0.0751124
0.0834546
0.0918719
0.100324
0.10882
0.117319
0.125779
0.134123
0.142255
0.15005
0.157367
0.164052
0.169962
0.174982
0.179054
0.182195
0.184515
0.186216
0.187577
0.188917
0.190534
0.192634
0.195278
0.198403
0.20194
0.20604
0.211281
0.218705
0.229536
0.244525
0.263097
0.283027
0.301533
0.31633
0.325156
0.326633
0.320511
0.307414
0.288947
0.266773
0.241427
0.210943
0.170132
0.111797
0.0285635
-0.0868358
-0.240656
-0.43335
-0.669204
-0.942645
-1.16583
-1.86955
-1.98484
-2.43627
-3.02167
-3.96722
-4.55043
-4.76732
-4.53171
-4.00506
-3.13845
-2.16297
-1.18143
-0.215012
0.529818
1.19469
1.66998
1.97244
2.4187
2.34181
3.13397
0.00836401
0.0163802
0.028176
0.037204
0.0472419
0.0564915
0.0660336
0.0753745
0.0848343
0.0942827
0.103813
0.113383
0.123002
0.132625
0.142205
0.151655
0.160868
0.169701
0.177993
0.185568
0.192263
0.197945
0.202545
0.206083
0.208681
0.210569
0.212069
0.213547
0.215347
0.217706
0.22069
0.224212
0.228175
0.232728
0.238524
0.246779
0.258942
0.27594
0.297133
0.319917
0.341091
0.358045
0.368159
0.369869
0.362875
0.347907
0.326853
0.301702
0.273174
0.23907
0.193445
0.12814
0.0349577
-0.0941148
-0.265779
-0.480983
-0.745977
-1.04768
-1.32501
-2.16788
-2.02913
-2.73543
-3.39365
-4.48449
-5.1421
-5.36485
-5.08075
-4.47988
-3.49748
-2.40453
-1.30863
-0.228581
0.593864
1.34128
1.85649
2.20125
2.68751
2.59447
3.41965
0.0090344
0.0180959
0.0311576
0.0412879
0.0524806
0.0628314
0.0734854
0.0839239
0.0944863
0.105037
0.115676
0.12636
0.137098
0.147843
0.15854
0.169095
0.179387
0.189258
0.198525
0.206992
0.214471
0.220812
0.225936
0.22986
0.232723
0.234785
0.236406
0.238006
0.239976
0.242586
0.245906
0.249821
0.254193
0.259165
0.265465
0.274488
0.287941
0.306957
0.330834
0.356558
0.380483
0.399668
0.411114
0.413068
0.40517
0.388262
0.36454
0.336354
0.304644
0.266996
0.216696
0.144647
0.0419292
-0.100127
-0.288624
-0.525299
-0.818084
-1.14834
-1.48154
-2.35863
-2.03236
-3.0479
-3.78239
-5.03385
-5.76922
-5.98858
-5.64682
-4.96587
-3.86041
-2.64682
-1.43396
-0.238425
0.660908
1.49302
2.04436
2.43469
2.95388
2.84338
3.73607
0.00966301
0.0197919
0.0340874
0.0453259
0.0576633
0.0691156
0.0808767
0.0924107
0.104071
0.115722
0.127466
0.13926
0.151114
0.162976
0.174789
0.186448
0.19782
0.20873
0.218974
0.228333
0.236597
0.243595
0.249237
0.253539
0.256655
0.258872
0.260597
0.2623
0.264427
0.267281
0.270936
0.27524
0.280006
0.28536
0.292103
0.301825
0.316521
0.337567
0.364205
0.392966
0.419738
0.44124
0.454068
0.456276
0.44743
0.428491
0.401977
0.370638
0.335678
0.294481
0.239556
0.160919
0.0490332
-0.105344
-0.309735
-0.566981
-0.886447
-1.24664
-1.63271
-2.4614
-2.05675
-3.37688
-4.1933
-5.62217
-6.44055
-6.64486
-6.23394
-5.46586
-4.22871
-2.89069
-1.55763
-0.244449
0.731426
1.65057
2.23395
2.67377
3.21845
3.08736
4.05619
0.0102544
0.0214721
0.0369693
0.0493211
0.0627922
0.0753458
0.0882085
0.100835
0.113589
0.126335
0.13918
0.15208
0.165046
0.178024
0.19095
0.203712
0.216164
0.228114
0.239337
0.24959
0.258639
0.266293
0.272447
0.277118
0.280471
0.282825
0.284632
0.28642
0.288688
0.291779
0.295766
0.300458
0.305603
0.311299
0.318417
0.328758
0.34464
0.36773
0.397219
0.429128
0.458858
0.482773
0.497036
0.499505
0.489653
0.468553
0.439065
0.404375
0.365999
0.321141
0.261536
0.176382
0.0556577
-0.110398
-0.329828
-0.606905
-0.95235
-1.3448
-1.78272
-2.5427
-2.17437
-3.68225
-4.6354
-6.25541
-7.16469
-7.3399
-6.84547
-5.9818
-4.60303
-3.13633
-1.67933
-0.24619
0.805457
1.81451
2.42557
2.91936
3.48114
3.34693
4.33174
0.0108123
0.0231399
0.0398073
0.0532768
0.0678705
0.0815245
0.0954825
0.109199
0.123042
0.136879
0.150819
0.164822
0.178895
0.192986
0.207023
0.220888
0.23442
0.247412
0.259617
0.270767
0.280602
0.28891
0.295571
0.3006
0.304175
0.306646
0.308512
0.310362
0.312756
0.316076
0.320395
0.325472
0.330981
0.336976
0.344394
0.355262
0.372266
0.397416
0.42986
0.465041
0.497854
0.524288
0.540046
0.542776
0.531829
0.508385
0.475653
0.437295
0.395197
0.346415
0.281937
0.190248
0.0609771
-0.11615
-0.349885
-0.646269
-1.01752
-1.445
-1.9351
-2.64183
-2.45168
-3.97206
-5.12696
-6.93952
-7.95062
-8.08054
-7.48505
-6.51557
-4.9838
-3.3838
-1.79873
-0.243539
0.884426
1.9852
2.61855
3.17244
3.74169
3.59576
4.63532
0.0113401
0.024798
0.042605
0.0571962
0.0729004
0.0876534
0.1027
0.117502
0.132428
0.147352
0.162383
0.177483
0.192661
0.207861
0.223007
0.237974
0.252588
0.266625
0.279815
0.291865
0.302488
0.311449
0.318611
0.323986
0.327766
0.330331
0.332232
0.33412
0.336621
0.340162
0.344814
0.35028
0.356138
0.362384
0.370018
0.38131
0.399359
0.426589
0.462103
0.500698
0.536733
0.565803
0.583114
0.586089
0.573916
0.547859
0.511488
0.468991
0.422692
0.369549
0.299873
0.201579
0.0640632
-0.123538
-0.370956
-0.686348
-1.08377
-1.54908
-2.09302
-2.79154
-2.92211
-4.25986
-5.68555
-7.68144
-8.80824
-8.87462
-8.15729
-7.06953
-5.37164
-3.63369
-1.91555
-0.236818
0.970472
2.16187
2.81634
3.43203
4.00062
3.8534
4.92575
0.0118406
0.026449
0.0453657
0.0610819
0.0778845
0.0937346
0.109863
0.125747
0.14175
0.157755
0.173872
0.190065
0.206343
0.222648
0.238903
0.254971
0.270669
0.285753
0.299931
0.312885
0.324299
0.333912
0.341569
0.347279
0.351245
0.35388
0.355788
0.357688
0.360276
0.36403
0.369019
0.374876
0.381071
0.387519
0.395276
0.406871
0.425878
0.455209
0.493928
0.536091
0.575502
0.607333
0.62625
0.629423
0.615815
0.586755
0.546187
0.498896
0.447718
0.389606
0.314327
0.209384
0.0639904
-0.133475
-0.394058
-0.728382
-1.15284
-1.65877
-2.26005
-3.00255
-3.51005
-4.50413
-6.30904
-8.48905
-9.74859
-9.73078
-8.86758
-7.64653
-5.76747
-3.88667
-2.02941
-0.225656
1.06406
2.34363
3.0238
3.69731
4.2574
4.10883
5.19274
0.0123165
0.0280949
0.0480926
0.0649365
0.0828249
0.0997697
0.116972
0.133933
0.151008
0.168089
0.185285
0.202566
0.219939
0.237348
0.254708
0.271878
0.288661
0.304796
0.319968
0.333831
0.346038
0.356302
0.364449
0.37048
0.374613
0.377292
0.379177
0.381059
0.383713
0.387672
0.393002
0.399259
0.405778
0.412376
0.420153
0.431916
0.451778
0.483232
0.525309
0.57121
0.614166
0.648884
0.66944
0.672702
0.657338
0.624719
0.579205
0.52626
0.469334
0.405535
0.324277
0.21276
0.0599725
-0.146719
-0.420025
-0.773413
-1.22621
-1.77571
-2.43917
-3.26022
-4.04374
-4.70026
-7.00733
-9.36937
-10.784
-10.6583
-9.62192
-8.24982
-6.17236
-4.143
-2.13993
-0.209507
1.16549
2.53102
3.24077
3.9692
4.51267
4.36044
5.50095
0.0127698
0.0297375
0.0507883
0.0687622
0.0877239
0.10576
0.124029
0.142062
0.160201
0.178353
0.196622
0.214986
0.23345
0.251958
0.270422
0.288694
0.306564
0.323754
0.339926
0.354702
0.367707
0.378622
0.387252
0.393593
0.39787
0.400565
0.402393
0.404226
0.406923
0.411078
0.416758
0.423425
0.43026
0.436953
0.444636
0.456413
0.477009
0.510613
0.556218
0.606043
0.652725
0.690447
0.712628
0.715765
0.698153
0.66122
0.609813
0.550172
0.486503
0.416307
0.328846
0.211029
0.0514734
-0.163765
-0.449422
-0.822179
-1.30492
-1.90123
-2.63244
-3.54949
-4.47728
-4.93192
-7.81462
-10.3313
-11.9281
-11.667
-10.4268
-8.88327
-6.58718
-4.40276
-2.24674
-0.187912
1.27532
2.72462
3.46705
4.24665
4.76888
4.62915
5.79096
0.0132025
0.0313785
0.0534556
0.0725613
0.0925834
0.111708
0.131035
0.150134
0.16933
0.188546
0.207883
0.227324
0.246874
0.266478
0.286044
0.305418
0.324378
0.342628
0.359805
0.375501
0.389308
0.400874
0.409982
0.416618
0.421018
0.423697
0.425433
0.427181
0.429895
0.434239
0.440279
0.447373
0.454518
0.461249
0.468712
0.480328
0.501518
0.537299
0.586626
0.640575
0.691168
0.731976
0.755677
0.758309
0.737742
0.695528
0.637112
0.569628
0.498217
0.421079
0.327455
0.203842
0.038284
-0.184792
-0.482485
-0.87506
-1.38959
-2.03627
-2.84183
-3.86907
-4.89994
-5.30327
-8.705
-11.391
-13.1938
-12.7668
-11.2889
-9.55131
-7.01286
-4.66603
-2.34946
-0.160402
1.39403
2.9248
3.70324
4.52878
5.02857
4.89415
6.05934
0.0136161
0.0330194
0.0560966
0.0763355
0.0974052
0.117613
0.13799
0.158149
0.178396
0.198669
0.219066
0.239578
0.260209
0.280905
0.301571
0.322048
0.3421
0.361416
0.379605
0.39623
0.410843
0.423062
0.432642
0.439558
0.444056
0.446688
0.448291
0.449916
0.45262
0.457145
0.463559
0.4711
0.478555
0.485264
0.492369
0.503624
0.525244
0.563233
0.616499
0.674781
0.729456
0.773359
0.798314
0.799825
0.775353
0.726715
0.6601
0.583661
0.503682
0.419348
0.319908
0.191225
0.0205508
-0.209631
-0.5191
-0.932059
-1.48033
-2.18119
-3.06879
-4.21993
-5.34875
-5.89717
-9.66177
-12.5672
-14.5939
-13.967
-12.2152
-10.2588
-7.45068
-4.93294
-2.44769
-0.126464
1.5221
3.13203
3.94981
4.81605
5.29391
5.15772
6.37417
0.0140119
0.0346612
0.0587135
0.0800867
0.102191
0.123478
0.144895
0.166108
0.187397
0.208721
0.230172
0.251748
0.273454
0.295238
0.317003
0.338582
0.359731
0.380118
0.399328
0.416888
0.432314
0.445187
0.455234
0.462415
0.466987
0.469534
0.470964
0.472423
0.475085
0.479784
0.486589
0.494607
0.502375
0.509002
0.515599
0.526265
0.548123
0.588353
0.645797
0.708616
0.767498
0.814357
0.840059
0.839546
0.809993
0.753711
0.677807
0.591534
0.50247
0.411032
0.306417
0.173577
-0.00123982
-0.237797
-0.558838
-0.992823
-1.57683
-2.33581
-3.31364
-4.60076
-5.84348
-6.74584
-10.6867
-13.8837
-16.1434
-15.2766
-13.2127
-11.011
-7.90228
-5.20364
-2.54102
-0.0855671
1.65994
3.34681
4.20706
5.10904
5.56554
5.45303
6.67064
0.014391
0.0363053
0.0613082
0.0838163
0.106942
0.129304
0.151752
0.174012
0.196334
0.218702
0.241198
0.263833
0.286608
0.309476
0.332337
0.35502
0.377269
0.398733
0.418972
0.437476
0.453724
0.467254
0.477761
0.485193
0.48981
0.492235
0.493445
0.494692
0.497279
0.502143
0.509362
0.517893
0.525985
0.532469
0.538394
0.548212
0.570082
0.612588
0.674467
0.742
0.805102
0.85454
0.880151
0.876406
0.84046
0.775443
0.689498
0.592903
0.494597
0.396476
0.28757
0.15162
-0.026318
-0.26854
-0.600998
-1.05669
-1.67838
-2.49936
-3.57554
-5.00826
-6.39802
-7.87067
-11.7707
-15.3672
-17.8619
-16.7048
-14.2885
-11.8131
-8.3696
-5.47836
-2.62903
-0.0371772
1.80797
3.56968
4.47522
5.40776
5.84295
5.73706
6.93853
0.0147543
0.0379527
0.0638824
0.0875259
0.11166
0.135091
0.15856
0.181859
0.205207
0.228609
0.252143
0.275829
0.299668
0.323616
0.347571
0.371358
0.39471
0.41726
0.438537
0.457997
0.475074
0.489263
0.500227
0.507892
0.512527
0.514789
0.515728
0.516713
0.519187
0.524208
0.531868
0.540958
0.549392
0.555675
0.560746
0.569421
0.591041
0.635855
0.70243
0.774774
0.841907
0.893192
0.917492
0.90906
0.865481
0.79106
0.694868
0.587899
0.480507
0.376381
0.264245
0.126313
-0.0537111
-0.300928
-0.644686
-1.12276
-1.78395
-2.67059
-3.85246
-5.43764
-7.01834
-9.22279
-12.8509
-17.0241
-19.7733
-18.2613
-15.4493
-12.6705
-8.85457
-5.75746
-2.7113
0.0192411
1.96656
3.80117
4.75447
5.7122
6.12752
6.03894
7.24754
0.0151024
0.0396044
0.0664377
0.0912166
0.116345
0.14084
0.16532
0.189651
0.214015
0.238444
0.263007
0.287737
0.312632
0.337655
0.362702
0.387594
0.412055
0.435697
0.458023
0.47845
0.496365
0.511218
0.522633
0.530516
0.535139
0.537194
0.537809
0.538475
0.540795
0.545965
0.554099
0.563802
0.572609
0.578631
0.582656
0.589851
0.610907
0.658053
0.729556
0.806645
0.877291
0.929245
0.950633
0.935987
0.883963
0.800188
0.69414
0.577085
0.460969
0.351697
0.23751
0.0987586
-0.0823355
-0.333919
-0.688873
-1.18993
-1.89221
-2.84777
-4.14141
-5.88357
-7.69847
-10.6433
-13.8476
-18.8453
-21.901
-19.956
-16.7014
-13.588
-9.35896
-6.04144
-2.78741
0.0842189
2.13608
4.04183
5.04492
6.02245
6.41946
6.34031
7.49821
0.0154359
0.0412612
0.0689753
0.0948895
0.121
0.146551
0.172033
0.197387
0.222757
0.248204
0.273788
0.299553
0.325499
0.351591
0.377727
0.403726
0.429299
0.454042
0.477429
0.498835
0.5176
0.533122
0.544984
0.553068
0.557647
0.559449
0.55968
0.559966
0.562087
0.567397
0.576043
0.586428
0.595648
0.601355
0.604123
0.609452
0.629573
0.679043
0.755618
0.837102
0.910289
0.961237
0.977835
0.955755
0.895318
0.803062
0.688006
0.561327
0.436947
0.323506
0.208511
0.0701054
-0.111078
-0.366433
-0.732452
-1.25697
-2.00163
-3.0288
-4.43871
-6.34073
-8.4235
-11.949
-14.8107
-20.8727
-24.2707
-21.7993
-18.05
-14.5698
-9.88416
-6.33097
-2.85693
0.158275
2.31685
4.29215
5.3466
6.3384
6.71954
6.63914
7.80776
0.015755
0.0429241
0.0714965
0.0985457
0.125625
0.152225
0.178698
0.205066
0.231432
0.257888
0.284484
0.311276
0.338264
0.365422
0.392644
0.419749
0.446439
0.472293
0.496753
0.519153
0.538779
0.554977
0.567282
0.57555
0.580053
0.581552
0.581336
0.581174
0.583044
0.588484
0.597689
0.608837
0.618526
0.623869
0.625152
0.628173
0.646907
0.698622
0.780223
0.86533
0.939542
0.987313
0.997299
0.967426
0.89969
0.800478
0.677468
0.541643
0.409466
0.292901
0.178379
0.0414659
-0.138855
-0.397389
-0.774275
-1.32254
-2.11053
-3.21131
-4.74016
-6.8039
-9.17934
-13.1033
-15.8604
-23.1296
-26.9155
-23.8027
-19.4997
-15.6194
-10.4311
-6.62683
-2.91945
0.24191
2.50915
4.55264
5.6595
6.66017
7.02874
6.96928
8.10514
0.01606
0.0445938
0.0740022
0.102186
0.13022
0.157863
0.185315
0.212689
0.240041
0.267496
0.295093
0.322903
0.350927
0.379143
0.407449
0.435661
0.463474
0.490447
0.515994
0.539403
0.559905
0.576786
0.589531
0.597966
0.602359
0.603502
0.602769
0.602086
0.603646
0.609207
0.619024
0.631031
0.641261
0.646199
0.645754
0.645951
0.662734
0.716468
0.802732
0.890163
0.963256
1.00537
1.00763
0.970927
0.897932
0.793588
0.663651
0.51905
0.379493
0.260897
0.14815
0.0138706
-0.164641
-0.425727
-0.813184
-1.38529
-2.21717
-3.39277
-5.04141
-7.26854
-9.9556
-14.145
-17.1189
-25.5281
-29.8764
-25.9786
-21.0545
-16.7393
-11.0002
-6.92972
-2.97456
0.335606
2.71323
4.82369
5.98351
6.98773
7.34649
7.28762
8.35069
0.0163507
0.0462711
0.0764935
0.105811
0.134786
0.163465
0.191885
0.220253
0.248581
0.277024
0.305613
0.334432
0.363483
0.392752
0.422138
0.451457
0.480398
0.508502
0.53515
0.559585
0.580978
0.598551
0.611735
0.620319
0.624566
0.625297
0.623973
0.622686
0.623874
0.629541
0.640032
0.653014
0.663875
0.668377
0.665941
0.662705
0.676804
0.732082
0.822232
0.910043
0.979214
1.01351
1.00839
0.967111
0.891361
0.783664
0.647643
0.494455
0.34785
0.228364
0.118735
-0.0117477
-0.18747
-0.450423
-0.848071
-1.44398
-2.32
-3.57085
-5.33854
-7.73149
-10.7423
-15.1022
-18.6688
-28.0082
-33.2061
-28.3406
-22.7189
-17.931
-11.5913
-7.23999
-3.02181
0.439835
2.92929
5.10565
6.31846
7.32087
7.67368
7.59781
8.65878
0.0166273
0.0479568
0.0789709
0.109421
0.139324
0.16903
0.198407
0.22776
0.257052
0.286473
0.316042
0.34586
0.375929
0.406244
0.436706
0.467134
0.497207
0.526453
0.554218
0.579698
0.601998
0.620274
0.633895
0.642612
0.646676
0.646937
0.644941
0.642959
0.643702
0.649462
0.660697
0.674788
0.686395
0.690441
0.685724
0.678317
0.688744
0.744751
0.83754
0.922924
0.985065
1.01073
1.00032
0.957478
0.881444
0.771916
0.630393
0.468581
0.315157
0.196001
0.0909112
-0.0345423
-0.206441
-0.470536
-0.877991
-1.49766
-2.41791
-3.74385
-5.62889
-8.19138
-11.5295
-16.0193
-20.6423
-30.5652
-36.9882
-30.9038
-24.4967
-19.1947
-12.2035
-7.55747
-3.06063
0.555076
3.15746
5.39871
6.66413
7.65987
8.0115
7.94614
8.95887
0.0168893
0.0496517
0.0814351
0.113017
0.143834
0.174558
0.20488
0.235207
0.265452
0.295839
0.326378
0.357183
0.388261
0.419615
0.45115
0.482685
0.513898
0.544296
0.573197
0.599741
0.622968
0.641958
0.656017
0.664849
0.668693
0.668421
0.665666
0.662889
0.663104
0.668939
0.680998
0.696355
0.708848
0.712427
0.705101
0.692587
0.69802
0.75363
0.847132
0.926265
0.979087
0.997474
0.985117
0.943749
0.869561
0.759388
0.612651
0.441928
0.281826
0.164349
0.0653474
-0.0537374
-0.220738
-0.485299
-0.902362
-1.54598
-2.51072
-3.91136
-5.91191
-8.64876
-12.3085
-16.967
-23.194
-33.2026
-41.3228
-33.6856
-26.3915
-20.5291
-12.8349
-7.88118
-3.09026
0.681849
3.39784
5.70297
7.02021
8.00486
8.35807
8.27309
9.19435
0.0171365
0.0513565
0.0838867
0.1166
0.148316
0.18005
0.211304
0.242594
0.273779
0.30512
0.336617
0.3684
0.400477
0.432861
0.465463
0.498107
0.530464
0.562028
0.592081
0.619712
0.643887
0.663606
0.678103
0.687034
0.690619
0.689747
0.68614
0.682458
0.682053
0.687941
0.700914
0.717718
0.73126
0.734367
0.724024
0.705173
0.70401
0.757813
0.848854
0.917571
0.961107
0.975534
0.96483
0.927543
0.856892
0.746914
0.594959
0.414777
0.248067
0.133816
0.0426314
-0.068632
-0.229706
-0.494307
-0.921268
-1.58965
-2.59965
-4.07486
-6.18974
-9.10608
-13.0759
-18.0223
-26.3223
-35.7985
-46.2551
-36.7041
-28.4056
-21.9315
-13.4828
-8.20926
-3.10964
0.820769
3.65046
6.01834
7.38629
8.3558
8.71477
8.61609
9.50222
0.0173683
0.0530718
0.0863259
0.120169
0.15277
0.185505
0.217679
0.24992
0.282032
0.314315
0.346758
0.379506
0.412571
0.445978
0.479642
0.513394
0.5469
0.579642
0.610868
0.639609
0.664755
0.685219
0.700156
0.709171
0.712457
0.710918
0.706356
0.701647
0.700517
0.70643
0.720417
0.738874
0.753654
0.756261
0.74233
0.715579
0.706284
0.756067
0.839907
0.895584
0.932793
0.947341
0.941399
0.910216
0.844376
0.735125
0.577671
0.387212
0.213922
0.104712
0.0232808
-0.0786498
-0.233009
-0.497798
-0.935857
-1.63085
-2.68783
-4.23813
-6.46726
-9.56792
-13.8356
-19.2309
-29.6433
-38.2685
-51.8375
-39.9727
-30.539
-23.3979
-14.1436
-8.53897
-3.11728
0.972611
3.91531
6.34458
7.76191
8.71303
9.08072
8.94982
9.73612
0.0175842
0.0547984
0.0887531
0.123724
0.157196
0.190922
0.224002
0.257182
0.290209
0.323421
0.356796
0.390497
0.424539
0.458959
0.49368
0.528538
0.5632
0.597133
0.629552
0.65943
0.685573
0.7068
0.722182
0.731264
0.734211
0.731932
0.726308
0.720436
0.718461
0.724365
0.739477
0.759816
0.776031
0.778023
0.75962
0.723346
0.704703
0.746149
0.817804
0.861266
0.896971
0.915237
0.916425
0.892831
0.832733
0.724495
0.560997
0.359151
0.17929
0.0772686
0.00771751
-0.0834578
-0.230881
-0.497039
-0.948781
-1.67367
-2.78052
-4.40714
-6.75146
-10.0405
-14.5974
-20.5988
-32.7051
-40.7946
-58.2456
-43.4913
-32.7885
-24.9237
-14.8129
-8.86658
-3.1112
1.1384
4.19242
6.68127
8.14648
9.07671
9.45565
9.27854
10.0289
0.0177835
0.056537
0.0911683
0.127266
0.161594
0.196301
0.230274
0.26438
0.298308
0.332435
0.366729
0.40137
0.436377
0.4718
0.507571
0.543534
0.579357
0.614495
0.64813
0.679172
0.706339
0.728349
0.744182
0.753318
0.755886
0.752791
0.745987
0.738804
0.735847
0.741699
0.758052
0.78052
0.798339
0.799351
0.775224
0.728432
0.698604
0.724759
0.781955
0.817483
0.856535
0.88111
0.891136
0.87619
0.822525
0.715394
0.545042
0.330368
0.143944
0.0516338
-0.00380859
-0.0831738
-0.224485
-0.494759
-0.964578
-1.72424
-2.88481
-4.58926
-7.05026
-10.5305
-15.3735
-22.1224
-35.4779
-43.6846
-65.4207
-47.2491
-35.1448
-26.5023
-15.4855
-9.18743
-3.08889
1.31951
4.48183
7.02781
8.53934
9.44715
9.83973
9.64131
10.3192
0.0179654
0.0582883
0.0935717
0.130794
0.165963
0.20164
0.236493
0.271512
0.306326
0.341355
0.376553
0.41212
0.44808
0.484495
0.521308
0.558374
0.595363
0.63172
0.666594
0.69883
0.727053
0.749869
0.76616
0.775337
0.777485
0.773496
0.765388
0.75673
0.752635
0.758376
0.77609
0.800929
0.820387
0.819545
0.788521
0.731304
0.686196
0.690124
0.734832
0.767634
0.813848
0.846361
0.866424
0.860906
0.814221
0.708147
0.529846
0.300502
0.107523
0.0278324
-0.011365
-0.0786784
-0.216347
-0.495542
-0.989847
-1.79046
-3.0087
-4.79207
-7.37114
-11.0439
-16.1756
-23.7956
-38.0318
-47.264
-73.2054
-51.2466
-37.5938
-28.1259
-16.1554
-9.49594
-3.04737
1.51771
4.78377
7.38347
8.93968
9.82449
10.2304
9.98388
10.5473
0.0181289
0.0600529
0.0959631
0.134309
0.170303
0.206939
0.242658
0.278575
0.314262
0.350177
0.386265
0.422743
0.459641
0.497037
0.534884
0.573049
0.611209
0.6488
0.684938
0.718402
0.747713
0.771361
0.78812
0.797325
0.799013
0.794051
0.784505
0.774189
0.768776
0.774331
0.793517
0.82091
0.841665
0.837454
0.79937
0.731707
0.662809
0.638012
0.680114
0.71503
0.770323
0.811979
0.842948
0.847479
0.808268
0.703085
0.515411
0.269055
0.0695239
0.00569035
-0.01557
-0.0720191
-0.210769
-0.506049
-1.03296
-1.88087
-3.15963
-5.02194
-7.71994
-11.585
-17.0145
-25.6079
-40.4295
-51.709
-81.4672
-55.4838
-40.1177
-29.7839
-16.8157
-9.78574
-2.98328
1.73527
5.09865
7.74741
9.34657
10.2085
10.6276
10.316
10.8501
0.0182732
0.0618316
0.0983424
0.13781
0.174613
0.212198
0.248767
0.285568
0.322112
0.358898
0.39586
0.433234
0.471057
0.50942
0.548292
0.587553
0.626887
0.665727
0.703155
0.73788
0.768317
0.792825
0.810064
0.819288
0.820477
0.814459
0.803333
0.791156
0.784217
0.789484
0.810215
0.840144
0.861156
0.851865
0.807148
0.725434
0.618755
0.573858
0.618527
0.661028
0.72706
0.778499
0.8212
0.836399